/*--------------------------------*- C++ -*----------------------------------*\
  =========                 |
  \\      /  F ield         | OpenFOAM: The Open Source CFD Toolbox
   \\    /   O peration     | Website:  https://openfoam.org
    \\  /    A nd           | Version:  7
     \\/     M anipulation  |
\*---------------------------------------------------------------------------*/
FoamFile
{
    version     2.0;
    format      ascii;
    class       volScalarField;
    location    "0.02";
    object      p;
}
// * * * * * * * * * * * * * * * * * * * * * * * * * * * * * * * * * * * * * //

dimensions      [0 2 -2 0 0 0 0];

internalField   nonuniform List<scalar> 
2500
(
-6.67492e-07
6.38451
9.04758
10.1411
10.7316
11.0793
11.2924
11.4325
11.5313
11.6047
11.6618
11.7079
11.7466
11.7802
11.8103
11.838
11.8642
11.8893
11.9138
11.9379
11.962
11.9861
12.0103
12.0348
12.0596
12.0847
12.1104
12.1366
12.1635
12.1913
12.2202
12.2504
12.2823
12.3164
12.3532
12.3936
12.4385
12.4892
12.5478
12.6168
12.7
12.8033
12.936
13.1147
13.3716
13.7706
14.4284
15.6171
18.3964
24.9047
4.86848
7.46766
8.88412
9.7661
10.3683
10.7736
11.0481
11.2401
11.3794
11.4839
11.5647
11.6294
11.6826
11.7278
11.7673
11.8026
11.835
11.8653
11.8942
11.9221
11.9493
11.9762
12.0029
12.0296
12.0565
12.0837
12.1115
12.1399
12.1691
12.1995
12.2313
12.2648
12.3007
12.3395
12.382
12.4293
12.4827
12.5441
12.616
12.7021
12.8075
12.9399
13.1111
13.3395
13.6556
14.1099
14.7721
15.7271
17.2294
19.9456
7.70564
8.46852
9.21053
9.83273
10.3181
10.6795
10.946
11.1445
11.2948
11.4109
11.5026
11.5767
11.6382
11.6904
11.7358
11.7762
11.8129
11.8469
11.8789
11.9095
11.9391
11.9681
11.9967
12.0251
12.0537
12.0825
12.1118
12.1418
12.1728
12.205
12.2388
12.2748
12.3134
12.3553
12.4015
12.4531
12.5117
12.5792
12.6584
12.7529
12.8679
13.0105
13.1909
13.4235
13.7287
14.1342
14.67
15.3467
16.1433
16.9705
9.11649
9.29257
9.67079
10.0709
10.4195
10.7046
10.9325
11.1132
11.2568
11.3719
11.4654
11.5427
11.6078
11.6636
11.7125
11.756
11.7956
11.8321
11.8665
11.8991
11.9305
11.9612
11.9913
12.0211
12.051
12.081
12.1116
12.1428
12.1751
12.2087
12.2441
12.2817
12.3221
12.3661
12.4145
12.4686
12.5298
12.6001
12.682
12.7787
12.8943
13.0346
13.2065
13.4188
13.6817
14.0051
14.3942
14.8351
15.2489
15.4553
9.93014
9.90844
10.0835
10.3263
10.5649
10.7792
10.9637
11.1188
11.248
11.3557
11.4459
11.5223
11.5879
11.6449
11.6954
11.7407
11.7821
11.8203
11.8563
11.8904
11.9233
11.9552
11.9865
12.0175
12.0484
12.0796
12.1111
12.1434
12.1767
12.2114
12.2479
12.2866
12.3282
12.3734
12.4231
12.4784
12.5406
12.6115
12.6931
12.7879
12.8992
13.0306
13.1864
13.3706
13.5863
13.8332
14.1043
14.3767
14.5743
14.5646
10.4427
10.356
10.4239
10.5651
10.7236
10.8794
11.0232
11.151
11.2625
11.3589
11.4424
11.5149
11.5784
11.6347
11.6851
11.7308
11.7729
11.812
11.8489
11.884
11.9178
11.9506
11.9828
12.0147
12.0464
12.0783
12.1106
12.1437
12.1777
12.2131
12.2503
12.2897
12.332
12.3777
12.4277
12.483
12.5447
12.6143
12.6933
12.7835
12.8871
13.0061
13.1424
13.2969
13.4685
13.6519
13.8359
13.9984
14.0797
13.9942
10.7844
10.6849
10.6994
10.7775
10.8796
10.9898
11.0987
11.2009
11.294
11.3776
11.4523
11.5189
11.5786
11.6325
11.6815
11.7265
11.7683
11.8075
11.8446
11.8801
11.9144
11.9477
11.9805
12.0128
12.0451
12.0775
12.1103
12.1439
12.1783
12.2141
12.2516
12.2913
12.3336
12.3792
12.4288
12.4831
12.5432
12.61
12.6848
12.7686
12.8627
12.9677
13.084
13.2105
13.3438
13.4771
13.5993
13.6925
13.7141
13.6103
11.0267
10.9325
10.9209
10.9604
11.024
11.1001
11.1808
11.2606
11.3366
11.4073
11.4725
11.5322
11.587
11.6373
11.6839
11.7274
11.7681
11.8067
11.8435
11.8788
11.9131
11.9466
11.9795
12.0121
12.0446
12.0773
12.1104
12.1441
12.1788
12.2147
12.2522
12.2917
12.3336
12.3786
12.4271
12.4797
12.5373
12.6005
12.6701
12.7466
12.8304
12.9215
13.0189
13.1206
13.2225
13.3178
13.397
13.4471
13.4386
13.3374
11.2083
11.1236
11.0997
11.1158
11.1535
11.2047
11.2633
11.3245
11.3854
11.4441
11.5
11.5525
11.6018
11.6481
11.6916
11.7328
11.7719
11.8093
11.8452
11.8801
11.914
11.9472
11.98
12.0126
12.0451
12.0778
12.1109
12.1446
12.1792
12.215
12.2522
12.2912
12.3325
12.3763
12.4233
12.4738
12.5283
12.5873
12.6512
12.7201
12.7938
12.8717
12.9523
13.0331
13.11
13.177
13.2267
13.2499
13.2265
13.1337
11.3499
11.2748
11.2455
11.2474
11.2677
11.301
11.3427
11.3889
11.437
11.4851
11.5322
11.5778
11.6215
11.6634
11.7035
11.742
11.7791
11.8149
11.8497
11.8836
11.9168
11.9496
11.982
12.0143
12.0466
12.0791
12.112
12.1455
12.1798
12.2151
12.2518
12.2902
12.3304
12.3729
12.418
12.466
12.5172
12.5718
12.6298
12.6912
12.7554
12.8214
12.8874
12.951
13.0084
13.0545
13.084
13.0905
13.0599
12.9764
11.4637
11.3969
11.3655
11.3589
11.3676
11.3881
11.417
11.4514
11.4888
11.5278
11.5671
11.6062
11.6446
11.6821
11.7187
11.7543
11.7891
11.823
11.8563
11.8891
11.9214
11.9534
11.9852
12.017
12.0489
12.081
12.1136
12.1467
12.1805
12.2153
12.2513
12.2887
12.3278
12.3687
12.4117
12.457
12.5047
12.5548
12.6073
12.6616
12.7171
12.7725
12.8263
12.8759
12.9181
12.9489
12.9644
12.9605
12.9269
12.8518
11.5571
11.497
11.4654
11.4537
11.4546
11.466
11.4854
11.5105
11.5393
11.5705
11.6031
11.6363
11.6697
11.7031
11.7361
11.7688
11.8012
11.8332
11.8648
11.8962
11.9274
11.9585
11.9896
12.0207
12.052
12.0836
12.1156
12.1482
12.1815
12.2156
12.2507
12.2871
12.3248
12.364
12.4048
12.4473
12.4916
12.5374
12.5845
12.6323
12.68
12.7264
12.7698
12.8081
12.8387
12.8583
12.8642
12.8538
12.8194
12.7515
11.6347
11.5803
11.5492
11.5344
11.5303
11.5351
11.5474
11.5653
11.5872
11.612
11.6387
11.6668
11.6958
11.7252
11.7549
11.7848
11.8147
11.8447
11.8746
11.9046
11.9346
11.9646
11.9948
12.0252
12.0558
12.0867
12.1181
12.1501
12.1826
12.2159
12.2501
12.2853
12.3215
12.359
12.3976
12.4374
12.4783
12.52
12.5621
12.604
12.6449
12.6836
12.7185
12.7478
12.7694
12.7808
12.7801
12.7657
12.7315
12.6698
11.6999
11.6501
11.62
11.6035
11.5958
11.5961
11.6031
11.6154
11.6317
11.6513
11.6732
11.6968
11.7218
11.7477
11.7743
11.8015
11.8291
11.8571
11.8853
11.9137
11.9425
11.9714
12.0006
12.0302
12.06
12.0902
12.1209
12.1521
12.1839
12.2163
12.2495
12.2834
12.3182
12.3539
12.3903
12.4275
12.4652
12.5031
12.5407
12.5774
12.6124
12.6445
12.6724
12.6945
12.7092
12.7146
12.7094
12.6925
12.6592
12.6029
11.7549
11.7089
11.6799
11.6625
11.6526
11.6496
11.6526
11.6606
11.6726
11.6879
11.7057
11.7256
11.7471
11.7698
11.7937
11.8184
11.8438
11.8698
11.8963
11.9233
11.9508
11.9786
12.0068
12.0355
12.0645
12.0939
12.1239
12.1543
12.1852
12.2168
12.2489
12.2816
12.3149
12.3488
12.3832
12.4178
12.4526
12.487
12.5206
12.5527
12.5826
12.6092
12.6314
12.6478
12.6573
12.6582
12.6498
12.6317
12.5996
12.5478
11.8013
11.7586
11.7308
11.7129
11.7015
11.6962
11.6963
11.701
11.7096
11.7214
11.7359
11.7525
11.771
11.7911
11.8124
11.8349
11.8583
11.8825
11.9074
11.933
11.9592
11.9859
12.0132
12.0409
12.0691
12.0977
12.1269
12.1565
12.1866
12.2172
12.2483
12.2798
12.3117
12.3439
12.3763
12.4086
12.4406
12.4719
12.5019
12.5301
12.5557
12.5777
12.5953
12.6072
12.6126
12.6103
12.5998
12.5809
12.5502
12.5024
11.8406
11.8006
11.7739
11.7559
11.7436
11.7366
11.7345
11.7367
11.7426
11.7516
11.7633
11.7773
11.7933
11.811
11.8301
11.8506
11.8721
11.8947
11.9182
11.9425
11.9675
11.9931
12.0194
12.0462
12.0736
12.1015
12.1298
12.1586
12.1879
12.2176
12.2476
12.278
12.3086
12.3392
12.3698
12.4
12.4295
12.458
12.485
12.5097
12.5317
12.5499
12.5637
12.5722
12.5745
12.5698
12.5579
12.5388
12.5093
12.4651
11.8736
11.8359
11.8102
11.7923
11.7794
11.7712
11.7676
11.7679
11.7716
11.7784
11.7879
11.7997
11.8135
11.8292
11.8464
11.8651
11.8851
11.9062
11.9283
11.9514
11.9753
12
12.0253
12.0513
12.0779
12.105
12.1326
12.1607
12.1891
12.2179
12.247
12.2763
12.3056
12.3348
12.3637
12.392
12.4194
12.4455
12.4698
12.4917
12.5106
12.5258
12.5366
12.5422
12.5422
12.5358
12.523
12.5038
12.4757
12.4344
11.9011
11.8654
11.8406
11.8229
11.8096
11.8006
11.7958
11.7946
11.7967
11.8018
11.8094
11.8194
11.8315
11.8455
11.8611
11.8783
11.8969
11.9167
11.9376
11.9596
11.9825
12.0063
12.0308
12.056
12.0818
12.1082
12.1352
12.1625
12.1902
12.2182
12.2464
12.2747
12.3029
12.3308
12.3582
12.3848
12.4104
12.4344
12.4564
12.4759
12.4923
12.505
12.5134
12.5169
12.5151
12.5075
12.4941
12.4751
12.4482
12.4095
11.9236
11.8896
11.8656
11.8482
11.8347
11.8252
11.8194
11.8172
11.818
11.8217
11.8279
11.8364
11.8471
11.8596
11.8739
11.8899
11.9072
11.9259
11.9459
11.9669
11.9889
12.0119
12.0357
12.0602
12.0854
12.1111
12.1374
12.1641
12.1912
12.2184
12.2458
12.2732
12.3004
12.3272
12.3533
12.3786
12.4025
12.4248
12.4449
12.4624
12.4768
12.4875
12.494
12.4959
12.4928
12.4843
12.4705
12.4518
12.426
12.3895
11.9418
11.9091
11.8858
11.8686
11.855
11.8451
11.8388
11.8357
11.8356
11.8382
11.8432
11.8506
11.8601
11.8716
11.8848
11.8997
11.9161
11.9338
11.9529
11.9732
11.9945
12.0167
12.0399
12.0638
12.0884
12.1136
12.1393
12.1655
12.1919
12.2186
12.2453
12.2719
12.2982
12.3241
12.3492
12.3732
12.3958
12.4167
12.4353
12.4512
12.464
12.4732
12.4783
12.4789
12.4748
12.4657
12.4517
12.4333
12.4084
12.3737
11.9559
11.9243
11.9016
11.8846
11.8709
11.8608
11.854
11.8503
11.8495
11.8513
11.8555
11.862
11.8706
11.8812
11.8936
11.9076
11.9232
11.9403
11.9587
11.9783
11.999
12.0207
12.0433
12.0667
12.0909
12.1156
12.1409
12.1666
12.1925
12.2187
12.2448
12.2708
12.2965
12.3215
12.3458
12.3688
12.3904
12.4102
12.4276
12.4423
12.4539
12.4619
12.4659
12.4656
12.4607
12.4512
12.4372
12.419
12.3949
12.3616
11.9663
11.9354
11.9132
11.8963
11.8827
11.8724
11.8653
11.8612
11.8598
11.8611
11.8647
11.8706
11.8785
11.8884
11.9002
11.9136
11.9287
11.9452
11.963
11.9822
12.0024
12.0237
12.0459
12.069
12.0928
12.1172
12.1421
12.1674
12.193
12.2187
12.2444
12.27
12.2951
12.3196
12.3432
12.3655
12.3864
12.4053
12.4218
12.4357
12.4463
12.4535
12.4567
12.4557
12.4504
12.4406
12.4266
12.4087
12.3851
12.3528
11.9731
11.9427
11.9208
11.904
11.8904
11.88
11.8727
11.8683
11.8667
11.8676
11.8708
11.8763
11.8838
11.8933
11.9046
11.9177
11.9323
11.9485
11.966
11.9848
12.0047
12.0257
12.0477
12.0705
12.094
12.1182
12.1429
12.1679
12.1933
12.2187
12.2442
12.2694
12.2942
12.3183
12.3414
12.3633
12.3836
12.402
12.418
12.4312
12.4413
12.4479
12.4506
12.4493
12.4436
12.4337
12.4196
12.4019
12.3787
12.3472
11.9765
11.9463
11.9245
11.9079
11.8943
11.8838
11.8764
11.8719
11.8701
11.8708
11.8738
11.8791
11.8864
11.8957
11.9069
11.9197
11.9342
11.9501
11.9675
11.9861
12.0059
12.0268
12.0486
12.0713
12.0947
12.1187
12.1433
12.1682
12.1934
12.2188
12.244
12.2691
12.2937
12.3176
12.3405
12.3622
12.3823
12.4003
12.4161
12.429
12.4388
12.4451
12.4476
12.4461
12.4403
12.4303
12.4162
12.3985
12.3756
12.3444
11.9765
11.9463
11.9245
11.9079
11.8943
11.8838
11.8764
11.8719
11.8701
11.8708
11.8738
11.8791
11.8864
11.8957
11.9069
11.9197
11.9342
11.9501
11.9675
11.9861
12.0059
12.0268
12.0486
12.0713
12.0947
12.1187
12.1433
12.1682
12.1934
12.2188
12.244
12.2691
12.2937
12.3176
12.3405
12.3622
12.3823
12.4003
12.4161
12.429
12.4388
12.4451
12.4476
12.4461
12.4403
12.4303
12.4162
12.3985
12.3756
12.3444
11.9731
11.9427
11.9207
11.904
11.8904
11.88
11.8727
11.8683
11.8667
11.8676
11.8708
11.8763
11.8838
11.8933
11.9046
11.9177
11.9323
11.9485
11.966
11.9848
12.0047
12.0257
12.0477
12.0705
12.094
12.1182
12.1429
12.1679
12.1933
12.2187
12.2442
12.2694
12.2942
12.3183
12.3414
12.3633
12.3836
12.402
12.418
12.4312
12.4413
12.4479
12.4506
12.4493
12.4436
12.4337
12.4196
12.4019
12.3787
12.3472
11.9663
11.9354
11.9131
11.8963
11.8827
11.8724
11.8653
11.8612
11.8598
11.8611
11.8647
11.8706
11.8785
11.8884
11.9002
11.9136
11.9287
11.9452
11.963
11.9822
12.0024
12.0237
12.0459
12.069
12.0928
12.1172
12.1421
12.1674
12.193
12.2187
12.2444
12.27
12.2951
12.3196
12.3432
12.3655
12.3864
12.4053
12.4218
12.4357
12.4463
12.4535
12.4567
12.4557
12.4504
12.4406
12.4266
12.4087
12.3851
12.3528
11.9559
11.9242
11.9016
11.8845
11.8709
11.8608
11.854
11.8503
11.8495
11.8513
11.8555
11.862
11.8706
11.8812
11.8936
11.9076
11.9232
11.9403
11.9587
11.9783
11.999
12.0207
12.0433
12.0667
12.0909
12.1156
12.1409
12.1666
12.1925
12.2187
12.2448
12.2708
12.2965
12.3215
12.3458
12.3689
12.3904
12.4102
12.4276
12.4423
12.4539
12.4619
12.4659
12.4656
12.4607
12.4512
12.4372
12.419
12.3949
12.3616
11.9418
11.9091
11.8858
11.8686
11.855
11.8451
11.8388
11.8357
11.8355
11.8381
11.8432
11.8506
11.8601
11.8716
11.8848
11.8997
11.916
11.9338
11.9529
11.9732
11.9945
12.0167
12.0399
12.0638
12.0884
12.1136
12.1393
12.1655
12.1919
12.2186
12.2453
12.2719
12.2982
12.3241
12.3492
12.3732
12.3958
12.4167
12.4353
12.4512
12.464
12.4732
12.4783
12.4789
12.4748
12.4657
12.4517
12.4333
12.4084
12.3737
11.9236
11.8896
11.8656
11.8481
11.8347
11.8251
11.8194
11.8171
11.818
11.8217
11.8279
11.8364
11.8471
11.8596
11.8739
11.8898
11.9072
11.9259
11.9459
11.9669
11.9889
12.0119
12.0357
12.0602
12.0854
12.1111
12.1374
12.1641
12.1912
12.2184
12.2458
12.2732
12.3004
12.3272
12.3533
12.3786
12.4025
12.4248
12.4449
12.4624
12.4768
12.4875
12.4941
12.4959
12.4928
12.4843
12.4705
12.4518
12.426
12.3895
11.901
11.8653
11.8406
11.8229
11.8096
11.8006
11.7958
11.7946
11.7967
11.8018
11.8094
11.8194
11.8315
11.8454
11.8611
11.8783
11.8968
11.9167
11.9376
11.9596
11.9825
12.0063
12.0308
12.056
12.0818
12.1082
12.1352
12.1625
12.1902
12.2182
12.2464
12.2747
12.3029
12.3308
12.3582
12.3848
12.4104
12.4344
12.4564
12.4759
12.4923
12.505
12.5134
12.5169
12.5151
12.5075
12.4941
12.4751
12.4482
12.4095
11.8735
11.8359
11.8102
11.7923
11.7794
11.7712
11.7675
11.7678
11.7716
11.7784
11.7879
11.7997
11.8135
11.8292
11.8464
11.8651
11.8851
11.9062
11.9283
11.9514
11.9753
11.9999
12.0253
12.0513
12.0779
12.105
12.1326
12.1607
12.1891
12.2179
12.247
12.2763
12.3056
12.3348
12.3637
12.392
12.4194
12.4455
12.4698
12.4917
12.5106
12.5258
12.5366
12.5422
12.5422
12.5358
12.523
12.5039
12.4757
12.4344
11.8406
11.8006
11.7739
11.7559
11.7435
11.7366
11.7345
11.7367
11.7426
11.7516
11.7633
11.7773
11.7933
11.8109
11.8301
11.8505
11.8721
11.8947
11.9182
11.9425
11.9675
11.9931
12.0194
12.0462
12.0736
12.1015
12.1298
12.1586
12.1879
12.2176
12.2476
12.278
12.3086
12.3392
12.3698
12.4
12.4295
12.458
12.485
12.5097
12.5317
12.5499
12.5637
12.5722
12.5745
12.5698
12.5579
12.5388
12.5094
12.4651
11.8013
11.7586
11.7308
11.7129
11.7015
11.6962
11.6963
11.701
11.7096
11.7214
11.7358
11.7525
11.771
11.7911
11.8124
11.8348
11.8582
11.8825
11.9074
11.933
11.9592
11.9859
12.0132
12.0409
12.0691
12.0977
12.1269
12.1565
12.1866
12.2172
12.2483
12.2798
12.3117
12.3439
12.3763
12.4086
12.4406
12.4719
12.5019
12.5301
12.5557
12.5777
12.5953
12.6072
12.6126
12.6103
12.5998
12.581
12.5502
12.5024
11.7548
11.7089
11.6799
11.6625
11.6526
11.6495
11.6526
11.6606
11.6726
11.6879
11.7057
11.7255
11.747
11.7698
11.7937
11.8184
11.8438
11.8698
11.8963
11.9233
11.9508
11.9786
12.0068
12.0355
12.0645
12.0939
12.1239
12.1543
12.1852
12.2168
12.2489
12.2816
12.3149
12.3488
12.3832
12.4178
12.4526
12.487
12.5206
12.5527
12.5826
12.6092
12.6314
12.6479
12.6573
12.6582
12.6499
12.6317
12.5996
12.5478
11.6998
11.65
11.6199
11.6034
11.5958
11.5961
11.603
11.6153
11.6317
11.6512
11.6731
11.6968
11.7217
11.7477
11.7743
11.8015
11.8291
11.857
11.8853
11.9137
11.9424
11.9714
12.0006
12.0301
12.06
12.0902
12.1209
12.1521
12.1839
12.2163
12.2495
12.2834
12.3182
12.3539
12.3903
12.4275
12.4652
12.5031
12.5407
12.5774
12.6124
12.6445
12.6724
12.6945
12.7092
12.7146
12.7094
12.6925
12.6592
12.6029
11.6347
11.5802
11.5492
11.5344
11.5302
11.5351
11.5474
11.5652
11.5871
11.6119
11.6387
11.6668
11.6957
11.7252
11.7549
11.7848
11.8147
11.8447
11.8746
11.9046
11.9345
11.9646
11.9948
12.0252
12.0558
12.0867
12.1181
12.15
12.1826
12.2159
12.2501
12.2853
12.3215
12.359
12.3976
12.4374
12.4783
12.52
12.5621
12.6041
12.6449
12.6836
12.7185
12.7478
12.7694
12.7808
12.7801
12.7657
12.7315
12.6698
11.557
11.497
11.4654
11.4536
11.4546
11.466
11.4854
11.5104
11.5392
11.5705
11.603
11.6363
11.6697
11.703
11.7361
11.7688
11.8012
11.8331
11.8648
11.8962
11.9274
11.9585
11.9896
12.0207
12.052
12.0836
12.1156
12.1482
12.1815
12.2156
12.2507
12.2871
12.3248
12.364
12.4048
12.4473
12.4916
12.5374
12.5845
12.6323
12.68
12.7264
12.7698
12.8081
12.8387
12.8583
12.8643
12.8538
12.8194
12.7515
11.4637
11.3968
11.3655
11.3588
11.3676
11.3881
11.417
11.4513
11.4888
11.5277
11.5671
11.6062
11.6446
11.6821
11.7187
11.7543
11.7891
11.823
11.8563
11.8891
11.9214
11.9534
11.9852
12.017
12.0489
12.081
12.1136
12.1467
12.1805
12.2153
12.2513
12.2887
12.3278
12.3687
12.4117
12.457
12.5047
12.5549
12.6073
12.6616
12.7171
12.7725
12.8263
12.8759
12.9181
12.949
12.9644
12.9605
12.9269
12.8518
11.3499
11.2747
11.2454
11.2473
11.2676
11.3009
11.3426
11.3889
11.4369
11.485
11.5322
11.5777
11.6215
11.6634
11.7035
11.742
11.7791
11.8149
11.8496
11.8836
11.9168
11.9495
11.982
12.0143
12.0466
12.0791
12.112
12.1455
12.1798
12.2151
12.2518
12.2902
12.3304
12.3729
12.418
12.466
12.5172
12.5718
12.6298
12.6912
12.7554
12.8214
12.8875
12.951
13.0084
13.0546
13.084
13.0905
13.0599
12.9764
11.2082
11.1236
11.0997
11.1158
11.1534
11.2046
11.2632
11.3245
11.3853
11.4441
11.4999
11.5525
11.6018
11.6481
11.6916
11.7328
11.7719
11.8092
11.8452
11.88
11.914
11.9472
11.98
12.0126
12.0451
12.0778
12.1109
12.1446
12.1792
12.215
12.2522
12.2912
12.3325
12.3763
12.4233
12.4738
12.5283
12.5873
12.6512
12.7201
12.7938
12.8717
12.9523
13.0331
13.11
13.177
13.2267
13.2499
13.2265
13.1337
11.0267
10.9324
10.9209
10.9603
11.024
11.1001
11.1807
11.2605
11.3365
11.4073
11.4724
11.5322
11.5869
11.6373
11.6839
11.7273
11.7681
11.8066
11.8434
11.8788
11.9131
11.9466
11.9795
12.0121
12.0446
12.0773
12.1104
12.1441
12.1788
12.2147
12.2522
12.2917
12.3336
12.3786
12.4271
12.4797
12.5373
12.6005
12.6701
12.7466
12.8304
12.9215
13.0189
13.1206
13.2225
13.3178
13.397
13.4471
13.4386
13.3374
10.7843
10.6849
10.6993
10.7774
10.8795
10.9898
11.0987
11.2009
11.294
11.3776
11.4522
11.5189
11.5786
11.6324
11.6814
11.7265
11.7683
11.8075
11.8446
11.8801
11.9144
11.9477
11.9804
12.0128
12.0451
12.0775
12.1103
12.1438
12.1783
12.2141
12.2516
12.2913
12.3336
12.3792
12.4288
12.4831
12.5432
12.61
12.6848
12.7686
12.8627
12.9677
13.084
13.2105
13.3438
13.4771
13.5993
13.6925
13.7141
13.6103
10.4427
10.3559
10.4239
10.5651
10.7235
10.8793
11.0231
11.151
11.2624
11.3589
11.4423
11.5148
11.5784
11.6346
11.685
11.7308
11.7729
11.812
11.8489
11.884
11.9178
11.9506
11.9828
12.0147
12.0464
12.0783
12.1106
12.1437
12.1777
12.2131
12.2503
12.2897
12.332
12.3777
12.4277
12.483
12.5447
12.6143
12.6933
12.7835
12.8871
13.0061
13.1424
13.2969
13.4685
13.6519
13.8359
13.9984
14.0797
13.9942
9.93006
9.90836
10.0834
10.3262
10.5649
10.7791
10.9636
11.1187
11.2479
11.3556
11.4458
11.5223
11.5878
11.6449
11.6953
11.7407
11.782
11.8203
11.8562
11.8904
11.9233
11.9552
11.9865
12.0175
12.0484
12.0796
12.1111
12.1434
12.1767
12.2114
12.2479
12.2866
12.3282
12.3734
12.4231
12.4784
12.5406
12.6115
12.6931
12.7879
12.8992
13.0306
13.1864
13.3706
13.5863
13.8332
14.1043
14.3767
14.5743
14.5646
9.11639
9.29248
9.67071
10.0709
10.4194
10.7045
10.9324
11.1131
11.2567
11.3718
11.4654
11.5427
11.6078
11.6636
11.7124
11.756
11.7956
11.8321
11.8664
11.8991
11.9305
11.9611
11.9912
12.0211
12.0509
12.081
12.1116
12.1428
12.1751
12.2087
12.2441
12.2817
12.3221
12.3661
12.4145
12.4686
12.5298
12.6002
12.682
12.7787
12.8944
13.0346
13.2065
13.4188
13.6817
14.0051
14.3942
14.8351
15.2489
15.4553
7.70554
8.46842
9.21044
9.83264
10.318
10.6794
10.9459
11.1444
11.2947
11.4108
11.5025
11.5767
11.6381
11.6903
11.7357
11.7761
11.8128
11.8468
11.8789
11.9095
11.9391
11.9681
11.9967
12.0251
12.0537
12.0825
12.1118
12.1418
12.1727
12.205
12.2388
12.2748
12.3134
12.3553
12.4015
12.4531
12.5117
12.5792
12.6584
12.7529
12.8679
13.0105
13.1909
13.4235
13.7287
14.1342
14.67
15.3467
16.1433
16.9705
4.86836
7.46755
8.88402
9.76601
10.3682
10.7736
11.048
11.2401
11.3794
11.4838
11.5647
11.6293
11.6826
11.7278
11.7672
11.8026
11.835
11.8653
11.8942
11.9221
11.9493
11.9762
12.0029
12.0296
12.0565
12.0837
12.1115
12.1398
12.1691
12.1995
12.2313
12.2648
12.3007
12.3395
12.382
12.4293
12.4827
12.5441
12.616
12.7021
12.8075
12.94
13.1111
13.3395
13.6556
14.1099
14.7722
15.7271
17.2294
19.9456
-0.000127616
6.38439
9.04747
10.141
10.7315
11.0793
11.2923
11.4325
11.5313
11.6047
11.6617
11.7079
11.7466
11.7802
11.8103
11.838
11.8641
11.8892
11.9137
11.9379
11.962
11.986
12.0103
12.0348
12.0595
12.0847
12.1104
12.1366
12.1635
12.1913
12.2202
12.2504
12.2823
12.3164
12.3532
12.3936
12.4385
12.4892
12.5478
12.6168
12.7
12.8033
12.936
13.1147
13.3716
13.7706
14.4284
15.6171
18.3964
24.9047
)
;

boundaryField
{
    movingWallTop
    {
        type            zeroGradient;
    }
    movingWallBottom
    {
        type            zeroGradient;
    }
    fixedWalls
    {
        type            zeroGradient;
    }
    frontAndBack
    {
        type            empty;
    }
}


// ************************************************************************* //
