/*--------------------------------*- C++ -*----------------------------------*\
  =========                 |
  \\      /  F ield         | OpenFOAM: The Open Source CFD Toolbox
   \\    /   O peration     | Website:  https://openfoam.org
    \\  /    A nd           | Version:  7
     \\/     M anipulation  |
\*---------------------------------------------------------------------------*/
FoamFile
{
    version     2.0;
    format      ascii;
    class       volVectorField;
    location    "0.073";
    object      U;
}
// * * * * * * * * * * * * * * * * * * * * * * * * * * * * * * * * * * * * * //

dimensions      [0 1 -1 0 0 0 0];

internalField   nonuniform List<vector> 
2500
(
(0.290244 -0.152406 0)
(0.389514 -0.128226 0)
(0.565392 -0.0747285 0)
(0.683223 -0.042232 0)
(0.752832 -0.0245348 0)
(0.797874 -0.0148978 0)
(0.82908 -0.00959327 0)
(0.851601 -0.00657207 0)
(0.868463 -0.00474939 0)
(0.881485 -0.00357534 0)
(0.891776 -0.00277173 0)
(0.900042 -0.00219319 0)
(0.90676 -0.0017599 0)
(0.912266 -0.00142545 0)
(0.916801 -0.00116124 0)
(0.920548 -0.000948634 0)
(0.923646 -0.000774864 0)
(0.926202 -0.000630825 0)
(0.928299 -0.000509785 0)
(0.930004 -0.000406601 0)
(0.931369 -0.000317226 0)
(0.932435 -0.000238381 0)
(0.933231 -0.000167328 0)
(0.93378 -0.000101705 0)
(0.934097 -3.94105e-05 0)
(0.934192 2.15046e-05 0)
(0.934064 8.30295e-05 0)
(0.933711 0.000147003 0)
(0.933122 0.000215452 0)
(0.932277 0.000290622 0)
(0.931151 0.000375087 0)
(0.929708 0.000471918 0)
(0.927903 0.000584913 0)
(0.925676 0.000718923 0)
(0.922948 0.000880339 0)
(0.91962 0.00107784 0)
(0.915561 0.00132363 0)
(0.910597 0.00163548 0)
(0.904493 0.00204045 0)
(0.896924 0.002582 0)
(0.887423 0.00333416 0)
(0.875298 0.00443123 0)
(0.85946 0.00613184 0)
(0.838109 0.0089567 0)
(0.808192 0.0139658 0)
(0.764437 0.0232508 0)
(0.695915 0.0407741 0)
(0.577939 0.0737475 0)
(0.398041 0.128742 0)
(0.293865 0.153782 0)
(0.00107739 -0.294871 0)
(0.0168367 -0.298595 0)
(0.152304 -0.213015 0)
(0.282862 -0.145342 0)
(0.388076 -0.0996751 0)
(0.471363 -0.0698664 0)
(0.536874 -0.0505295 0)
(0.588456 -0.0377413 0)
(0.629447 -0.0289903 0)
(0.662402 -0.0227745 0)
(0.689183 -0.0182041 0)
(0.711143 -0.0147409 0)
(0.729278 -0.0120498 0)
(0.744334 -0.00991475 0)
(0.756877 -0.00819114 0)
(0.767343 -0.00677892 0)
(0.776072 -0.00560644 0)
(0.783334 -0.00462088 0)
(0.789343 -0.00378209 0)
(0.794269 -0.0030588 0)
(0.798247 -0.00242592 0)
(0.801383 -0.00186282 0)
(0.80376 -0.00135199 0)
(0.805436 -0.000878173 0)
(0.806454 -0.000427565 0)
(0.806835 1.27392e-05 0)
(0.806587 0.000455348 0)
(0.805697 0.000912935 0)
(0.804137 0.00139891 0)
(0.80186 0.001928 0)
(0.798796 0.00251697 0)
(0.794853 0.00318565 0)
(0.78991 0.00395819 0)
(0.78381 0.00486494 0)
(0.776353 0.00594514 0)
(0.767282 0.00725084 0)
(0.756267 0.00885308 0)
(0.742878 0.0108516 0)
(0.72655 0.0133906 0)
(0.706526 0.0166865 0)
(0.68178 0.0210749 0)
(0.650897 0.0270977 0)
(0.6119 0.0356599 0)
(0.562019 0.0483133 0)
(0.497523 0.0677169 0)
(0.413952 0.0981741 0)
(0.306403 0.145796 0)
(0.170553 0.21731 0)
(0.0269058 0.307195 0)
(0.00518353 0.303002 0)
(-0.032922 -0.250361 0)
(-0.0615894 -0.344027 0)
(-0.0114655 -0.310613 0)
(0.0708967 -0.251591 0)
(0.159083 -0.1961 0)
(0.241706 -0.151559 0)
(0.314406 -0.117879 0)
(0.376487 -0.0927936 0)
(0.428842 -0.074008 0)
(0.472819 -0.0597443 0)
(0.509751 -0.0487301 0)
(0.54081 -0.0400778 0)
(0.566977 -0.0331702 0)
(0.589054 -0.0275744 0)
(0.60769 -0.0229815 0)
(0.623416 -0.0191667 0)
(0.636661 -0.0159628 0)
(0.647773 -0.0132427 0)
(0.657039 -0.0109072 0)
(0.66469 -0.00887776 0)
(0.670912 -0.00708994 0)
(0.675853 -0.00549004 0)
(0.679629 -0.00403191 0)
(0.682325 -0.00267478 0)
(0.684 -0.00138148 0)
(0.684686 -0.000116979 0)
(0.684391 0.00115289 0)
(0.6831 0.0024629 0)
(0.68077 0.00384959 0)
(0.677332 0.00535291 0)
(0.672686 0.00701808 0)
(0.6667 0.00889799 0)
(0.659199 0.0110564 0)
(0.649965 0.0135721 0)
(0.63872 0.0165454 0)
(0.625114 0.0201064 0)
(0.608711 0.0244281 0)
(0.588959 0.0297454 0)
(0.565165 0.036384 0)
(0.536451 0.0448043 0)
(0.501717 0.0556688 0)
(0.459603 0.0699415 0)
(0.408493 0.0890254 0)
(0.346635 0.114918 0)
(0.2726 0.150266 0)
(0.186518 0.19783 0)
(0.0924228 0.258148 0)
(0.00192859 0.323367 0)
(-0.0569046 0.361569 0)
(-0.0321671 0.263989 0)
(-0.0267681 -0.190598 0)
(-0.0654015 -0.333012 0)
(-0.0644712 -0.351559 0)
(-0.0273349 -0.319366 0)
(0.0298979 -0.272169 0)
(0.0941462 -0.225681 0)
(0.15772 -0.185375 0)
(0.216813 -0.15216 0)
(0.269905 -0.125304 0)
(0.316698 -0.10368 0)
(0.357488 -0.0862072 0)
(0.392812 -0.0719895 0)
(0.423277 -0.0603207 0)
(0.449472 -0.0506571 0)
(0.471935 -0.0425826 0)
(0.49114 -0.0357762 0)
(0.507495 -0.0299882 0)
(0.521349 -0.0250216 0)
(0.532998 -0.0207179 0)
(0.542687 -0.0169477 0)
(0.55062 -0.0136029 0)
(0.556962 -0.0105917 0)
(0.56184 -0.00783341 0)
(0.565352 -0.00525616 0)
(0.567564 -0.00279351 0)
(0.568513 -0.000382334 0)
(0.568205 0.00203934 0)
(0.566621 0.00453451 0)
(0.56371 0.0071694 0)
(0.559389 0.010016 0)
(0.55354 0.0131551 0)
(0.546009 0.0166802 0)
(0.536598 0.020702 0)
(0.525059 0.0253553 0)
(0.511087 0.0308076 0)
(0.494309 0.0372706 0)
(0.474278 0.0450168 0)
(0.450454 0.0544014 0)
(0.422204 0.0658928 0)
(0.388797 0.0801109 0)
(0.349434 0.0978748 0)
(0.303311 0.120246 0)
(0.249805 0.148534 0)
(0.188831 0.184171 0)
(0.121555 0.22823 0)
(0.0516493 0.280033 0)
(-0.0128384 0.333834 0)
(-0.0576858 0.372341 0)
(-0.0646308 0.356001 0)
(-0.027279 0.204823 0)
(-0.0178409 -0.14917 0)
(-0.0530664 -0.302984 0)
(-0.0735197 -0.355006 0)
(-0.0663949 -0.35046 0)
(-0.0371096 -0.319879 0)
(0.00512253 -0.280613 0)
(0.0530919 -0.241242 0)
(0.102034 -0.205383 0)
(0.149102 -0.174145 0)
(0.192793 -0.1475 0)
(0.23245 -0.124973 0)
(0.267916 -0.105971 0)
(0.299307 -0.0899168 0)
(0.326877 -0.0763061 0)
(0.350936 -0.0647114 0)
(0.371809 -0.0547791 0)
(0.389805 -0.0462171 0)
(0.40521 -0.0387838 0)
(0.41828 -0.0322772 0)
(0.429236 -0.0265267 0)
(0.438267 -0.0213858 0)
(0.445529 -0.0167265 0)
(0.451147 -0.0124349 0)
(0.455215 -0.00840718 0)
(0.457797 -0.00454618 0)
(0.458928 -0.000758772 0)
(0.458612 0.00304708 0)
(0.456825 0.00696504 0)
(0.453512 0.0110934 0)
(0.448585 0.0155382 0)
(0.441923 0.0204173 0)
(0.433366 0.025865 0)
(0.422717 0.0320376 0)
(0.409735 0.0391211 0)
(0.394131 0.0473398 0)
(0.37557 0.0569686 0)
(0.353671 0.0683468 0)
(0.32801 0.0818948 0)
(0.298143 0.098132 0)
(0.263645 0.117691 0)
(0.224187 0.141314 0)
(0.179683 0.169808 0)
(0.13054 0.203896 0)
(0.0780697 0.243852 0)
(0.0250825 0.288699 0)
(-0.0233409 0.334613 0)
(-0.0591696 0.372046 0)
(-0.0718183 0.381406 0)
(-0.0542759 0.328299 0)
(-0.018635 0.162515 0)
(-0.0114173 -0.120936 0)
(-0.0402131 -0.270053 0)
(-0.0677145 -0.340344 0)
(-0.0775399 -0.357621 0)
(-0.0685796 -0.344428 0)
(-0.0456279 -0.316249 0)
(-0.01387 -0.282467 0)
(0.0224246 -0.248227 0)
(0.0601391 -0.216058 0)
(0.0972074 -0.186996 0)
(0.132372 -0.161292 0)
(0.16494 -0.138809 0)
(0.194592 -0.119249 0)
(0.221245 -0.102259 0)
(0.244954 -0.0874921 0)
(0.265854 -0.0746264 0)
(0.284118 -0.0633751 0)
(0.299931 -0.0534852 0)
(0.313476 -0.0447346 0)
(0.324923 -0.0369278 0)
(0.334424 -0.0298911 0)
(0.342107 -0.0234682 0)
(0.34808 -0.0175167 0)
(0.35242 -0.0119041 0)
(0.355184 -0.00650476 0)
(0.356398 -0.00119671 0)
(0.356063 0.00414123 0)
(0.354153 0.00963259 0)
(0.350611 0.0154065 0)
(0.345353 0.0216014 0)
(0.338263 0.028369 0)
(0.329196 0.0358792 0)
(0.317975 0.0443255 0)
(0.304393 0.0539315 0)
(0.288215 0.0649587 0)
(0.269185 0.0777139 0)
(0.247039 0.0925568 0)
(0.221529 0.109905 0)
(0.192459 0.130231 0)
(0.159754 0.154041 0)
(0.123565 0.181821 0)
(0.0844298 0.213907 0)
(0.0435125 0.250231 0)
(0.00291365 0.289838 0)
(-0.0339944 0.330047 0)
(-0.0623634 0.365101 0)
(-0.0760818 0.384235 0)
(-0.0692423 0.36961 0)
(-0.0422404 0.295507 0)
(-0.0121729 0.133051 0)
(-0.00746032 -0.100964 0)
(-0.0303789 -0.239845 0)
(-0.0584898 -0.318358 0)
(-0.0767142 -0.350639 0)
(-0.080969 -0.352223 0)
(-0.0727737 -0.335578 0)
(-0.0551492 -0.309455 0)
(-0.0312575 -0.279467 0)
(-0.00383313 -0.248949 0)
(0.0250214 -0.219726 0)
(0.0538124 -0.192687 0)
(0.0815443 -0.168168 0)
(0.107597 -0.146198 0)
(0.131618 -0.126646 0)
(0.15344 -0.109301 0)
(0.173016 -0.093926 0)
(0.190375 -0.0802799 0)
(0.20559 -0.0681305 0)
(0.218758 -0.0572602 0)
(0.229982 -0.0474671 0)
(0.239363 -0.0385642 0)
(0.246992 -0.0303776 0)
(0.252945 -0.0227443 0)
(0.257281 -0.015509 0)
(0.26004 -0.0085224 0)
(0.261238 -0.00163767 0)
(0.260871 0.00529198 0)
(0.25891 0.0124164 0)
(0.255304 0.0198915 0)
(0.249978 0.0278828 0)
(0.242832 0.0365693 0)
(0.233745 0.046147 0)
(0.222579 0.0568337 0)
(0.209179 0.0688728 0)
(0.193385 0.0825373 0)
(0.175045 0.0981312 0)
(0.154036 0.115988 0)
(0.1303 0.13646 0)
(0.103888 0.159894 0)
(0.075041 0.186578 0)
(0.0442906 0.216646 0)
(0.0125975 0.249897 0)
(-0.0184805 0.285505 0)
(-0.0466233 0.321537 0)
(-0.0686753 0.354251 0)
(-0.0808355 0.377157 0)
(-0.0793049 0.380016 0)
(-0.0618949 0.348274 0)
(-0.0326925 0.264106 0)
(-0.00811706 0.111732 0)
(-0.00512277 -0.0863299 0)
(-0.0234735 -0.213617 0)
(-0.0497397 -0.294258 0)
(-0.0714824 -0.335828 0)
(-0.0837337 -0.348675 0)
(-0.0860289 -0.342287 0)
(-0.0796684 -0.324149 0)
(-0.0666462 -0.299647 0)
(-0.0490394 -0.272394 0)
(-0.0286725 -0.24467 0)
(-0.00700066 -0.217826 0)
(0.0148872 -0.192595 0)
(0.0362177 -0.169318 0)
(0.0564688 -0.148095 0)
(0.0753085 -0.128882 0)
(0.0925435 -0.111553 0)
(0.108077 -0.0959419 0)
(0.121878 -0.0818621 0)
(0.133957 -0.0691212 0)
(0.144347 -0.0575282 0)
(0.153095 -0.0468969 0)
(0.160248 -0.0370469 0)
(0.165848 -0.0278035 0)
(0.169931 -0.0189968 0)
(0.172515 -0.0104598 0)
(0.173608 -0.00202669 0)
(0.173199 0.00646941 0)
(0.17126 0.015199 0)
(0.167747 0.0243385 0)
(0.162598 0.0340734 0)
(0.155737 0.0446004 0)
(0.147077 0.0561304 0)
(0.136525 0.0688902 0)
(0.123991 0.0831237 0)
(0.109398 0.0990905 0)
(0.0927027 0.11706 0)
(0.0739224 0.137302 0)
(0.0531698 0.160057 0)
(0.0307057 0.185499 0)
(0.00700516 0.213659 0)
(-0.0171586 0.244304 0)
(-0.0406218 0.276748 0)
(-0.0617457 0.309569 0)
(-0.0783862 0.340213 0)
(-0.0880045 0.364491 0)
(-0.08805 0.376049 0)
(-0.0766985 0.366018 0)
(-0.0541621 0.323264 0)
(-0.0258509 0.235945 0)
(-0.0056934 0.0957498 0)
(-0.00372471 -0.0751538 0)
(-0.0187045 -0.191113 0)
(-0.0424853 -0.270411 0)
(-0.0652074 -0.317054 0)
(-0.082024 -0.337843 0)
(-0.0914495 -0.339781 0)
(-0.0936132 -0.32896 0)
(-0.0895317 -0.310183 0)
(-0.0805947 -0.286979 0)
(-0.0682138 -0.261799 0)
(-0.0536433 -0.236265 0)
(-0.0379147 -0.211394 0)
(-0.0218308 -0.187782 0)
(-0.00598968 -0.165735 0)
(0.00918056 -0.145372 0)
(0.0233863 -0.12669 0)
(0.0364358 -0.10961 0)
(0.0482121 -0.0940055 0)
(0.0586508 -0.079725 0)
(0.0677229 -0.0666015 0)
(0.0754216 -0.0544613 0)
(0.0817518 -0.043128 0)
(0.0867227 -0.0324244 0)
(0.0903425 -0.0221735 0)
(0.0926136 -0.0121982 0)
(0.0935307 -0.00232022 0)
(0.0930787 0.00764082 0)
(0.0912321 0.0178691 0)
(0.0879555 0.0285544 0)
(0.083205 0.0398931 0)
(0.0769314 0.05209 0)
(0.069085 0.0653585 0)
(0.0596225 0.07992 0)
(0.0485177 0.0960009 0)
(0.0357762 0.113827 0)
(0.0214553 0.133609 0)
(0.00569085 0.155526 0)
(-0.0112673 0.179686 0)
(-0.0290118 0.206075 0)
(-0.0469265 0.234469 0)
(-0.0641327 0.264316 0)
(-0.0794451 0.29455 0)
(-0.0913607 0.323368 0)
(-0.098122 0.347929 0)
(-0.0979249 0.364059 0)
(-0.0893458 0.366023 0)
(-0.0719874 0.346567 0)
(-0.0473864 0.297497 0)
(-0.0210405 0.211133 0)
(-0.00422781 0.083272 0)
(-0.0028582 -0.066253 0)
(-0.0153831 -0.171688 0)
(-0.0367673 -0.24775 0)
(-0.0592588 -0.296534 0)
(-0.0785229 -0.322509 0)
(-0.0926564 -0.330774 0)
(-0.101076 -0.326148 0)
(-0.104075 -0.31273 0)
(-0.102446 -0.293758 0)
(-0.0971705 -0.271652 0)
(-0.0892321 -0.248144 0)
(-0.0795152 -0.224418 0)
(-0.0687654 -0.201248 0)
(-0.0575816 -0.179108 0)
(-0.0464273 -0.158257 0)
(-0.03565 -0.138806 0)
(-0.0255022 -0.120765 0)
(-0.0161622 -0.104074 0)
(-0.00775179 -0.0886287 0)
(-0.000351513 -0.0742959 0)
(0.00598697 -0.0609228 0)
(0.0112311 -0.0483454 0)
(0.0153598 -0.0363919 0)
(0.0183576 -0.0248856 0)
(0.0202106 -0.0136463 0)
(0.0209034 -0.00249037 0)
(0.0204178 0.00876922 0)
(0.0187318 0.0203232 0)
(0.0158211 0.0323665 0)
(0.0116607 0.0450982 0)
(0.0062292 0.0587211 0)
(-0.000486133 0.0734402 0)
(-0.00848059 0.0894586 0)
(-0.017721 0.106972 0)
(-0.028131 0.126156 0)
(-0.0395711 0.14715 0)
(-0.0518153 0.170032 0)
(-0.0645217 0.194771 0)
(-0.0772003 0.221176 0)
(-0.0891812 0.248807 0)
(-0.0995902 0.276861 0)
(-0.107346 0.304029 0)
(-0.111202 0.328318 0)
(-0.109857 0.346864 0)
(-0.102199 0.355792 0)
(-0.0876857 0.350186 0)
(-0.0668389 0.324326 0)
(-0.0418004 0.272317 0)
(-0.0176163 0.189248 0)
(-0.00330516 0.0731371 0)
(-0.00229807 -0.0588956 0)
(-0.0130309 -0.154692 0)
(-0.0323481 -0.22652 0)
(-0.0541043 -0.275461 0)
(-0.0745664 -0.304475 0)
(-0.0917481 -0.317267 0)
(-0.104678 -0.317594 0)
(-0.113159 -0.30886 0)
(-0.117514 -0.293919 0)
(-0.11834 -0.275039 0)
(-0.11634 -0.253939 0)
(-0.112212 -0.231873 0)
(-0.106592 -0.209722 0)
(-0.100029 -0.188077 0)
(-0.0929736 -0.167305 0)
(-0.0857881 -0.147615 0)
(-0.0787537 -0.129096 0)
(-0.0720847 -0.111754 0)
(-0.0659416 -0.0955336 0)
(-0.0604422 -0.0803381 0)
(-0.0556725 -0.0660418 0)
(-0.051695 -0.0524988 0)
(-0.0485556 -0.0395491 0)
(-0.0462891 -0.0270227 0)
(-0.044923 -0.0147425 0)
(-0.0444802 -0.00252602 0)
(-0.0449806 0.0098137 0)
(-0.0464411 0.0224669 0)
(-0.0488744 0.0356265 0)
(-0.0522867 0.0494861 0)
(-0.0566734 0.0642381 0)
(-0.062013 0.0800698 0)
(-0.068259 0.0971569 0)
(-0.0753288 0.115654 0)
(-0.0830905 0.135681 0)
(-0.0913455 0.157299 0)
(-0.0998104 0.180485 0)
(-0.108095 0.205083 0)
(-0.115685 0.230752 0)
(-0.121925 0.256884 0)
(-0.126023 0.282513 0)
(-0.127074 0.306203 0)
(-0.12413 0.32593 0)
(-0.116338 0.338982 0)
(-0.103155 0.341925 0)
(-0.0846715 0.330688 0)
(-0.0619402 0.300862 0)
(-0.0372819 0.248263 0)
(-0.0151194 0.169783 0)
(-0.00269454 0.0646279 0)
(-0.0019212 -0.0526175 0)
(-0.0113347 -0.139579 0)
(-0.0289544 -0.206669 0)
(-0.0498259 -0.254435 0)
(-0.0707778 -0.284872 0)
(-0.089906 -0.30068 0)
(-0.106059 -0.304771 0)
(-0.118731 -0.299927 0)
(-0.127899 -0.288604 0)
(-0.133845 -0.272847 0)
(-0.137014 -0.254289 0)
(-0.137912 -0.234177 0)
(-0.137044 -0.213439 0)
(-0.134874 -0.192731 0)
(-0.131812 -0.1725 0)
(-0.128202 -0.153027 0)
(-0.124328 -0.134468 0)
(-0.120417 -0.116885 0)
(-0.116652 -0.10027 0)
(-0.113172 -0.0845637 0)
(-0.110087 -0.0696687 0)
(-0.10748 -0.0554609 0)
(-0.105416 -0.0417964 0)
(-0.103943 -0.028517 0)
(-0.103098 -0.015454 0)
(-0.102911 -0.00243157 0)
(-0.103399 0.0107312 0)
(-0.104575 0.0242181 0)
(-0.10644 0.0382132 0)
(-0.108982 0.0528984 0)
(-0.112174 0.0684489 0)
(-0.115966 0.0850276 0)
(-0.120278 0.102777 0)
(-0.12499 0.121807 0)
(-0.129932 0.142177 0)
(-0.134871 0.163877 0)
(-0.139497 0.18679 0)
(-0.143409 0.210657 0)
(-0.146114 0.235022 0)
(-0.147021 0.259165 0)
(-0.145465 0.282035 0)
(-0.140746 0.302167 0)
(-0.132216 0.317616 0)
(-0.119406 0.325922 0)
(-0.102215 0.324139 0)
(-0.0811497 0.308971 0)
(-0.0575312 0.277071 0)
(-0.0336313 0.225492 0)
(-0.0132486 0.152288 0)
(-0.00226984 0.0572928 0)
(-0.00165891 -0.0471135 0)
(-0.0100915 -0.125916 0)
(-0.0263501 -0.188033 0)
(-0.0463552 -0.233734 0)
(-0.0674142 -0.264391 0)
(-0.0877729 -0.281991 0)
(-0.106225 -0.28879 0)
(-0.122081 -0.287042 0)
(-0.135079 -0.278825 0)
(-0.145257 -0.26594 0)
(-0.152839 -0.249885 0)
(-0.158153 -0.231854 0)
(-0.161567 -0.212768 0)
(-0.163451 -0.193313 0)
(-0.16415 -0.17398 0)
(-0.16397 -0.155101 0)
(-0.163179 -0.136882 0)
(-0.162 -0.11943 0)
(-0.160618 -0.102779 0)
(-0.159184 -0.0869026 0)
(-0.157819 -0.0717332 0)
(-0.156621 -0.0571694 0)
(-0.155663 -0.0430858 0)
(-0.155004 -0.0293391 0)
(-0.154687 -0.0157735 0)
(-0.154743 -0.00222415 0)
(-0.155188 0.0114791 0)
(-0.156029 0.0255084 0)
(-0.157255 0.0400343 0)
(-0.158841 0.0552215 0)
(-0.16074 0.0712236 0)
(-0.162881 0.0881755 0)
(-0.165159 0.106183 0)
(-0.167431 0.125312 0)
(-0.169507 0.145567 0)
(-0.171139 0.16687 0)
(-0.172016 0.189031 0)
(-0.171761 0.211712 0)
(-0.169931 0.234377 0)
(-0.166031 0.256251 0)
(-0.15954 0.276257 0)
(-0.149969 0.292976 0)
(-0.136937 0.304612 0)
(-0.120288 0.308999 0)
(-0.100241 0.303667 0)
(-0.0775564 0.285992 0)
(-0.0536586 0.253454 0)
(-0.0306629 0.203988 0)
(-0.0118103 0.136396 0)
(-0.0019612 0.0508364 0)
(-0.00147144 -0.0421758 0)
(-0.00916788 -0.113367 0)
(-0.0243487 -0.170418 0)
(-0.043577 -0.213456 0)
(-0.0645502 -0.243445 0)
(-0.0856811 -0.261867 0)
(-0.105776 -0.270474 0)
(-0.12405 -0.271087 0)
(-0.140079 -0.265442 0)
(-0.15372 -0.255101 0)
(-0.165018 -0.241403 0)
(-0.174146 -0.225458 0)
(-0.181345 -0.208147 0)
(-0.186883 -0.190154 0)
(-0.191033 -0.171985 0)
(-0.194054 -0.154001 0)
(-0.196181 -0.136441 0)
(-0.197618 -0.119448 0)
(-0.198545 -0.103086 0)
(-0.199111 -0.0873621 0)
(-0.199439 -0.0722319 0)
(-0.199631 -0.0576174 0)
(-0.199766 -0.0434129 0)
(-0.199908 -0.0294922 0)
(-0.200101 -0.0157146 0)
(-0.200375 -0.00192987 0)
(-0.200745 0.0120179 0)
(-0.201209 0.0262854 0)
(-0.201749 0.0410262 0)
(-0.202328 0.0563849 0)
(-0.202885 0.0724905 0)
(-0.203333 0.0894486 0)
(-0.203554 0.10733 0)
(-0.203393 0.126158 0)
(-0.202654 0.145889 0)
(-0.201094 0.166392 0)
(-0.198424 0.18742 0)
(-0.194308 0.208582 0)
(-0.188376 0.229302 0)
(-0.180239 0.248787 0)
(-0.16953 0.265988 0)
(-0.155949 0.279579 0)
(-0.139344 0.287949 0)
(-0.119799 0.289234 0)
(-0.0977519 0.281398 0)
(-0.0741084 0.262373 0)
(-0.0502933 0.230274 0)
(-0.0282274 0.183661 0)
(-0.0106793 0.121816 0)
(-0.00172872 0.0450574 0)
(-0.00133474 -0.0376587 0)
(-0.00847462 -0.101678 0)
(-0.0228076 -0.153643 0)
(-0.0413718 -0.193611 0)
(-0.0621743 -0.222277 0)
(-0.0837875 -0.240759 0)
(-0.105065 -0.250428 0)
(-0.125177 -0.252749 0)
(-0.143599 -0.249165 0)
(-0.160056 -0.241011 0)
(-0.174454 -0.229467 0)
(-0.186834 -0.215534 0)
(-0.197323 -0.200037 0)
(-0.206095 -0.183629 0)
(-0.213351 -0.166812 0)
(-0.219291 -0.149957 0)
(-0.224112 -0.13332 0)
(-0.227993 -0.117067 0)
(-0.231095 -0.101287 0)
(-0.233558 -0.0860095 0)
(-0.235501 -0.0712136 0)
(-0.237023 -0.0568421 0)
(-0.238205 -0.0428085 0)
(-0.239107 -0.0290045 0)
(-0.239774 -0.0153063 0)
(-0.240234 -0.00157998 0)
(-0.240497 0.0123135 0)
(-0.240556 0.0265135 0)
(-0.240385 0.0411541 0)
(-0.239938 0.0563581 0)
(-0.239146 0.0722298 0)
(-0.237914 0.0888463 0)
(-0.236117 0.106246 0)
(-0.2336 0.124415 0)
(-0.230174 0.143272 0)
(-0.225616 0.162645 0)
(-0.219671 0.182252 0)
(-0.21206 0.201671 0)
(-0.202493 0.220317 0)
(-0.190694 0.237415 0)
(-0.176436 0.251977 0)
(-0.159589 0.262798 0)
(-0.140181 0.268468 0)
(-0.11848 0.26741 0)
(-0.095065 0.257965 0)
(-0.0709078 0.238516 0)
(-0.0473824 0.20766 0)
(-0.0262118 0.164398 0)
(-0.0097736 0.10832 0)
(-0.00154865 0.039813 0)
(-0.00123362 -0.0334573 0)
(-0.00795033 -0.090652 0)
(-0.0216195 -0.137545 0)
(-0.0396319 -0.174163 0)
(-0.0602384 -0.20102 0)
(-0.0821524 -0.21897 0)
(-0.104287 -0.229089 0)
(-0.125803 -0.232558 0)
(-0.146114 -0.23057 0)
(-0.16485 -0.224253 0)
(-0.181813 -0.214631 0)
(-0.196938 -0.202594 0)
(-0.210251 -0.188891 0)
(-0.221844 -0.17413 0)
(-0.231843 -0.158793 0)
(-0.240396 -0.143242 0)
(-0.247654 -0.127741 0)
(-0.253767 -0.112466 0)
(-0.25887 -0.0975227 0)
(-0.26309 -0.0829568 0)
(-0.266535 -0.068767 0)
(-0.269297 -0.0549141 0)
(-0.27145 -0.0413297 0)
(-0.273054 -0.027923 0)
(-0.274148 -0.0145877 0)
(-0.274757 -0.00120709 0)
(-0.274886 0.01234 0)
(-0.274524 0.0261742 0)
(-0.273638 0.0404094 0)
(-0.272178 0.0551469 0)
(-0.270068 0.0704671 0)
(-0.267212 0.0864209 0)
(-0.263488 0.103019 0)
(-0.258748 0.120219 0)
(-0.252819 0.137909 0)
(-0.245508 0.155893 0)
(-0.236603 0.173869 0)
(-0.225888 0.191409 0)
(-0.213158 0.207943 0)
(-0.198242 0.222737 0)
(-0.18104 0.234889 0)
(-0.161562 0.243329 0)
(-0.139984 0.246843 0)
(-0.116697 0.244117 0)
(-0.0923722 0.233813 0)
(-0.0679978 0.214674 0)
(-0.0448715 0.18566 0)
(-0.024532 0.146081 0)
(-0.0090381 0.0957258 0)
(-0.00140625 0.0349982 0)
(-0.00115808 -0.0294945 0)
(-0.0075519 -0.0801369 0)
(-0.0207031 -0.121989 0)
(-0.0382664 -0.155063 0)
(-0.0586824 -0.179747 0)
(-0.0807845 -0.196703 0)
(-0.103548 -0.206779 0)
(-0.126141 -0.210926 0)
(-0.147942 -0.210122 0)
(-0.168517 -0.205317 0)
(-0.187589 -0.197384 0)
(-0.205007 -0.187101 0)
(-0.220717 -0.175136 0)
(-0.234735 -0.162041 0)
(-0.247122 -0.148263 0)
(-0.257974 -0.134148 0)
(-0.267396 -0.119951 0)
(-0.275505 -0.105853 0)
(-0.282413 -0.0919651 0)
(-0.288223 -0.078346 0)
(-0.293032 -0.0650081 0)
(-0.296921 -0.0519274 0)
(-0.299956 -0.0390517 0)
(-0.30219 -0.0263068 0)
(-0.303658 -0.0136033 0)
(-0.304379 -0.000841992 0)
(-0.304354 0.0120804 0)
(-0.303567 0.0252657 0)
(-0.301983 0.0388083 0)
(-0.299546 0.0527886 0)
(-0.296182 0.0672656 0)
(-0.291797 0.0822678 0)
(-0.286276 0.0977837 0)
(-0.279485 0.113749 0)
(-0.271275 0.130035 0)
(-0.261487 0.146432 0)
(-0.249957 0.162636 0)
(-0.236535 0.17823 0)
(-0.221095 0.192676 0)
(-0.203563 0.205302 0)
(-0.183949 0.215301 0)
(-0.162377 0.221745 0)
(-0.139133 0.223604 0)
(-0.114699 0.219796 0)
(-0.0897924 0.209252 0)
(-0.0653927 0.191 0)
(-0.0427123 0.164272 0)
(-0.0231264 0.128596 0)
(-0.00843531 0.0838859 0)
(-0.00129201 0.030533 0)
(-0.00110131 -0.025713 0)
(-0.00724848 -0.0700163 0)
(-0.0199973 -0.10686 0)
(-0.0372006 -0.136253 0)
(-0.0574463 -0.158494 0)
(-0.0796672 -0.174097 0)
(-0.102896 -0.183734 0)
(-0.126318 -0.188167 0)
(-0.149294 -0.188197 0)
(-0.171347 -0.18461 0)
(-0.192141 -0.178145 0)
(-0.211459 -0.16947 0)
(-0.229179 -0.159167 0)
(-0.245253 -0.147728 0)
(-0.259688 -0.135556 0)
(-0.272528 -0.12297 0)
(-0.283838 -0.110211 0)
(-0.2937 -0.0974514 0)
(-0.3022 -0.084806 0)
(-0.309421 -0.0723384 0)
(-0.315442 -0.0600706 0)
(-0.320332 -0.047991 0)
(-0.324149 -0.036061 0)
(-0.326935 -0.0242215 0)
(-0.328721 -0.012399 0)
(-0.32952 -0.000511123 0)
(-0.329329 0.0115281 0)
(-0.328127 0.0238025 0)
(-0.325877 0.0363883 0)
(-0.322525 0.0493471 0)
(-0.317997 0.0627193 0)
(-0.312205 0.0765158 0)
(-0.305046 0.0907085 0)
(-0.296405 0.10522 0)
(-0.286159 0.119913 0)
(-0.274186 0.134578 0)
(-0.260372 0.14892 0)
(-0.244627 0.16255 0)
(-0.226901 0.174975 0)
(-0.207204 0.185594 0)
(-0.185636 0.193705 0)
(-0.162416 0.198514 0)
(-0.137908 0.199163 0)
(-0.112656 0.194772 0)
(-0.0874003 0.184493 0)
(-0.0630938 0.167581 0)
(-0.0408655 0.143467 0)
(-0.02195 0.111837 0)
(-0.00793919 0.0726783 0)
(-0.00119963 0.0263545 0)
(-0.00105857 -0.0220692 0)
(-0.00701766 -0.0601992 0)
(-0.0194557 -0.0920667 0)
(-0.0363745 -0.117681 0)
(-0.0564759 -0.137274 0)
(-0.078773 -0.151247 0)
(-0.102349 -0.160129 0)
(-0.126411 -0.164529 0)
(-0.150311 -0.165095 0)
(-0.173544 -0.162473 0)
(-0.195731 -0.157276 0)
(-0.216604 -0.150067 0)
(-0.235989 -0.141344 0)
(-0.253783 -0.131534 0)
(-0.269945 -0.120991 0)
(-0.284474 -0.11 0)
(-0.2974 -0.0987802 0)
(-0.308772 -0.0874924 0)
(-0.318648 -0.0762457 0)
(-0.327093 -0.065105 0)
(-0.334167 -0.0540981 0)
(-0.339927 -0.0432219 0)
(-0.344419 -0.0324494 0)
(-0.347679 -0.0217347 0)
(-0.349728 -0.0110188 0)
(-0.350576 -0.000234799 0)
(-0.350213 0.010687 0)
(-0.348619 0.0218142 0)
(-0.345754 0.0332061 0)
(-0.341565 0.0449085 0)
(-0.335983 0.0569467 0)
(-0.328929 0.0693184 0)
(-0.320313 0.0819852 0)
(-0.310041 0.0948643 0)
(-0.298017 0.107819 0)
(-0.284156 0.120648 0)
(-0.268391 0.13308 0)
(-0.250689 0.144761 0)
(-0.231064 0.155255 0)
(-0.209601 0.164039 0)
(-0.186472 0.170514 0)
(-0.161968 0.174016 0)
(-0.136514 0.173842 0)
(-0.110689 0.169283 0)
(-0.0852438 0.159677 0)
(-0.0610968 0.144454 0)
(-0.0392999 0.123199 0)
(-0.02097 0.0957031 0)
(-0.00753141 0.0619995 0)
(-0.00112479 0.0224116 0)
(-0.00102648 -0.01853 0)
(-0.006843 -0.0506142 0)
(-0.0190432 -0.0775339 0)
(-0.0357407 -0.0992994 0)
(-0.0557244 -0.11609 0)
(-0.0780713 -0.128218 0)
(-0.101908 -0.136096 0)
(-0.126461 -0.140207 0)
(-0.151083 -0.141065 0)
(-0.175249 -0.139192 0)
(-0.19855 -0.135087 0)
(-0.220679 -0.129214 0)
(-0.241419 -0.12199 0)
(-0.260626 -0.113773 0)
(-0.278217 -0.104867 0)
(-0.294154 -0.0955169 0)
(-0.308432 -0.0859151 0)
(-0.321073 -0.0762049 0)
(-0.332113 -0.0664862 0)
(-0.341593 -0.0568205 0)
(-0.349561 -0.0472374 0)
(-0.356057 -0.0377401 0)
(-0.361119 -0.0283102 0)
(-0.364773 -0.018913 0)
(-0.367034 -0.00950266 0)
(-0.367907 -2.61608e-05 0)
(-0.367379 0.00957163 0)
(-0.365426 0.0193433 0)
(-0.362009 0.0293342 0)
(-0.357078 0.0395767 0)
(-0.35057 0.0500846 0)
(-0.342414 0.0608471 0)
(-0.332536 0.0718212 0)
(-0.320861 0.0829251 0)
(-0.307321 0.0940305 0)
(-0.291867 0.104955 0)
(-0.274472 0.115456 0)
(-0.255154 0.125225 0)
(-0.233982 0.133887 0)
(-0.211101 0.141003 0)
(-0.186744 0.146073 0)
(-0.161254 0.148554 0)
(-0.1351 0.147882 0)
(-0.108885 0.143498 0)
(-0.083355 0.134889 0)
(-0.0593959 0.121626 0)
(-0.0379918 0.103409 0)
(-0.0201624 0.0801019 0)
(-0.00719902 0.0517597 0)
(-0.00106449 0.0186615 0)
(-0.00100263 -0.0150693 0)
(-0.00671241 -0.0412051 0)
(-0.0187332 -0.0632004 0)
(-0.0352619 -0.0810657 0)
(-0.055153 -0.0949385 0)
(-0.0775334 -0.105057 0)
(-0.101565 -0.111739 0)
(-0.126492 -0.115356 0)
(-0.151669 -0.116309 0)
(-0.17656 -0.115007 0)
(-0.200735 -0.111847 0)
(-0.223858 -0.107199 0)
(-0.245677 -0.101398 0)
(-0.266018 -0.0947373 0)
(-0.284761 -0.0874654 0)
(-0.301838 -0.0797864 0)
(-0.317219 -0.0718617 0)
(-0.330899 -0.0638132 0)
(-0.342892 -0.055727 0)
(-0.353224 -0.0476582 0)
(-0.361925 -0.0396354 0)
(-0.369027 -0.0316647 0)
(-0.374555 -0.0237345 0)
(-0.378527 -0.0158196 0)
(-0.380955 -0.00788521 0)
(-0.381835 0.000109238 0)
(-0.381155 0.00820591 0)
(-0.378887 0.0164446 0)
(-0.374994 0.0248585 0)
(-0.369427 0.0334695 0)
(-0.362132 0.0422837 0)
(-0.353046 0.0512856 0)
(-0.34211 0.0604331 0)
(-0.329266 0.0696511 0)
(-0.314474 0.078826 0)
(-0.297712 0.0878004 0)
(-0.278992 0.0963683 0)
(-0.258373 0.104272 0)
(-0.235971 0.111203 0)
(-0.211978 0.116801 0)
(-0.186674 0.120667 0)
(-0.160441 0.12237 0)
(-0.133779 0.121469 0)
(-0.107304 0.117534 0)
(-0.0817555 0.110177 0)
(-0.0579859 0.0990809 0)
(-0.0369235 0.0840316 0)
(-0.01951 0.0649441 0)
(-0.0069328 0.0418789 0)
(-0.00101666 0.0150673 0)
(-0.000985295 -0.0116667 0)
(-0.00661704 -0.0319268 0)
(-0.0185061 -0.0490161 0)
(-0.0349096 -0.0629446 0)
(-0.0547308 -0.073814 0)
(-0.077134 -0.0818003 0)
(-0.101308 -0.0871382 0)
(-0.126513 -0.090104 0)
(-0.152106 -0.0909978 0)
(-0.177546 -0.0901266 0)
(-0.202385 -0.0877909 0)
(-0.226268 -0.0842735 0)
(-0.248919 -0.0798314 0)
(-0.270136 -0.0746915 0)
(-0.289776 -0.0690476 0)
(-0.307744 -0.0630597 0)
(-0.323989 -0.0568558 0)
(-0.338485 -0.0505333 0)
(-0.35123 -0.0441621 0)
(-0.362234 -0.0377879 0)
(-0.371515 -0.0314354 0)
(-0.379093 -0.0251118 0)
(-0.384986 -0.0188103 0)
(-0.389207 -0.0125131 0)
(-0.391759 -0.00619523 0)
(-0.392637 0.000173123 0)
(-0.391824 0.00662273 0)
(-0.389294 0.0131823 0)
(-0.385009 0.0198752 0)
(-0.378924 0.0267156 0)
(-0.37099 0.0337044 0)
(-0.361154 0.0408258 0)
(-0.349368 0.0480422 0)
(-0.335592 0.0552904 0)
(-0.319805 0.0624769 0)
(-0.302012 0.0694743 0)
(-0.282256 0.0761179 0)
(-0.260629 0.0822046 0)
(-0.237282 0.0874926 0)
(-0.212445 0.0917048 0)
(-0.186432 0.0945348 0)
(-0.159656 0.0956571 0)
(-0.132635 0.0947414 0)
(-0.105993 0.0914702 0)
(-0.0804605 0.0855603 0)
(-0.0568625 0.0767853 0)
(-0.0360818 0.0649973 0)
(-0.0190003 0.0501448 0)
(-0.00672623 0.0322839 0)
(-0.000979822 0.011596 0)
(-0.000973239 -0.0083058 0)
(-0.00655052 -0.0227424 0)
(-0.0183472 -0.0349396 0)
(-0.0346627 -0.0449054 0)
(-0.0544341 -0.0527101 0)
(-0.0768524 -0.0584746 0)
(-0.101127 -0.0623605 0)
(-0.126528 -0.0645587 0)
(-0.152419 -0.065277 0)
(-0.178252 -0.0647294 0)
(-0.20357 -0.0631261 0)
(-0.228003 -0.060666 0)
(-0.251259 -0.0575311 0)
(-0.273116 -0.0538823 0)
(-0.293412 -0.0498583 0)
(-0.312037 -0.0455741 0)
(-0.328918 -0.0411221 0)
(-0.344017 -0.0365735 0)
(-0.357318 -0.0319795 0)
(-0.36882 -0.0273743 0)
(-0.37853 -0.0227768 0)
(-0.386461 -0.0181936 0)
(-0.392625 -0.0136209 0)
(-0.397026 -0.00904733 0)
(-0.399667 -0.00445578 0)
(-0.400537 0.00017381 0)
(-0.399619 0.00486233 0)
(-0.396885 0.0096291 0)
(-0.3923 0.0144893 0)
(-0.385821 0.0194514 0)
(-0.377403 0.0245142 0)
(-0.367001 0.0296641 0)
(-0.354576 0.0348718 0)
(-0.340103 0.0400895 0)
(-0.323577 0.0452478 0)
(-0.305021 0.0502529 0)
(-0.284503 0.0549853 0)
(-0.262138 0.0592982 0)
(-0.238106 0.0630188 0)
(-0.212663 0.0659502 0)
(-0.186147 0.0678765 0)
(-0.158992 0.0685703 0)
(-0.131729 0.0678025 0)
(-0.104984 0.0653554 0)
(-0.0794809 0.0610364 0)
(-0.0560224 0.0546942 0)
(-0.0354577 0.0462324 0)
(-0.0186247 0.0356218 0)
(-0.00657475 0.0229069 0)
(-0.00095296 0.00821785 0)
(-0.000965631 -0.0049728 0)
(-0.00650845 -0.0136213 0)
(-0.0182466 -0.0209359 0)
(-0.0345061 -0.0269218 0)
(-0.0542456 -0.0316205 0)
(-0.0766733 -0.0351026 0)
(-0.101011 -0.0374627 0)
(-0.126539 -0.0388129 0)
(-0.152621 -0.0392754 0)
(-0.178707 -0.0389764 0)
(-0.204336 -0.0380403 0)
(-0.229127 -0.0365852 0)
(-0.252777 -0.0347195 0)
(-0.275053 -0.0325395 0)
(-0.295779 -0.0301283 0)
(-0.314834 -0.0275552 0)
(-0.332134 -0.0248761 0)
(-0.347631 -0.0221341 0)
(-0.361299 -0.0193607 0)
(-0.373129 -0.0165768 0)
(-0.383123 -0.0137944 0)
(-0.391287 -0.011018 0)
(-0.397628 -0.00824584 0)
(-0.402148 -0.00547138 0)
(-0.404845 -0.00268491 0)
(-0.405707 0.000125189 0)
(-0.404716 0.002971 0)
(-0.401844 0.00586358 0)
(-0.397056 0.00881147 0)
(-0.390312 0.011819 0)
(-0.381569 0.0148848 0)
(-0.370788 0.0179997 0)
(-0.357937 0.0211452 0)
(-0.343 0.0242916 0)
(-0.325984 0.027396 0)
(-0.306925 0.0304012 0)
(-0.285905 0.0332348 0)
(-0.263058 0.0358081 0)
(-0.238581 0.0380173 0)
(-0.212746 0.0397449 0)
(-0.185909 0.0408625 0)
(-0.158515 0.0412358 0)
(-0.131102 0.0407302 0)
(-0.1043 0.0392183 0)
(-0.0788239 0.0365887 0)
(-0.0554634 0.0327545 0)
(-0.0350448 0.0276615 0)
(-0.0183773 0.021295 0)
(-0.00647532 0.0136833 0)
(-0.000935397 0.00490496 0)
(-0.000961952 -0.00165585 0)
(-0.00648809 -0.00453645 0)
(-0.0181979 -0.00697404 0)
(-0.0344301 -0.00897042 0)
(-0.054154 -0.0105392 0)
(-0.0765863 -0.0117037 0)
(-0.100955 -0.0124952 0)
(-0.126545 -0.0129504 0)
(-0.15272 -0.0131097 0)
(-0.178931 -0.013015 0)
(-0.204712 -0.0127072 0)
(-0.229679 -0.0122257 0)
(-0.253524 -0.0116064 0)
(-0.276006 -0.0108813 0)
(-0.296945 -0.0100781 0)
(-0.316213 -0.00922 0)
(-0.333722 -0.00832568 0)