/*--------------------------------*- C++ -*----------------------------------*\
  =========                 |
  \\      /  F ield         | OpenFOAM: The Open Source CFD Toolbox
   \\    /   O peration     | Website:  https://openfoam.org
    \\  /    A nd           | Version:  7
     \\/     M anipulation  |
\*---------------------------------------------------------------------------*/
FoamFile
{
    version     2.0;
    format      ascii;
    class       volScalarField;
    location    "0.045";
    object      p;
}
// * * * * * * * * * * * * * * * * * * * * * * * * * * * * * * * * * * * * * //

dimensions      [0 2 -2 0 0 0 0];

internalField   nonuniform List<scalar> 
2500
(
6.77546e-06
6.38527
9.05035
10.1466
10.7401
11.0907
11.306
11.4477
11.5471
11.6204
11.6764
11.7206
11.7566
11.7869
11.8131
11.8364
11.8577
11.8777
11.8969
11.9156
11.9341
11.9527
11.9715
11.9907
12.0104
12.0306
12.0517
12.0736
12.0966
12.1209
12.1466
12.1742
12.2039
12.2362
12.2718
12.3114
12.356
12.407
12.4663
12.5364
12.6211
12.7262
12.8611
13.0423
13.3017
13.7033
14.3638
15.5548
18.336
24.8454
4.868
7.46782
8.88594
9.77012
10.3746
10.7821
11.0581
11.2512
11.3907
11.4947
11.5744
11.637
11.6877
11.7297
11.7655
11.7967
11.8247
11.8503
11.8743
11.8971
11.9193
11.9412
11.9629
11.9848
12.0071
12.0299
12.0535
12.0781
12.1039
12.1311
12.1602
12.1915
12.2255
12.2629
12.3044
12.3512
12.4045
12.4663
12.539
12.6262
12.7331
12.8672
13.0403
13.2707
13.589
14.0454
14.7096
15.6663
17.1701
19.8875
7.70319
8.46708
9.21074
9.83493
10.3223
10.6855
10.9533
11.1525
11.3028
11.4182
11.5086
11.5807
11.6396
11.6887
11.7306
11.767
11.7995
11.8291
11.8565
11.8824
11.9073
11.9316
11.9556
11.9796
12.0039
12.0286
12.0542
12.0807
12.1085
12.138
12.1695
12.2034
12.2405
12.2812
12.3267
12.378
12.4367
12.5047
12.5847
12.6803
12.7967
12.9409
13.1231
13.3575
13.6645
14.0717
14.6091
15.2873
16.0854
16.9142
9.11113
9.28878
9.66882
10.0709
10.4215
10.7082
10.9372
11.1185
11.2619
11.3763
11.4684
11.5437
11.6062
11.6589
11.7043
11.7441
11.7796
11.8119
11.8418
11.87
11.8969
11.9232
11.9489
11.9746
12.0005
12.0269
12.0539
12.082
12.1115
12.1426
12.1759
12.2117
12.2508
12.2939
12.3418
12.3957
12.4572
12.5281
12.6108
12.7086
12.8256
12.9674
13.1408
13.3547
13.6192
13.9441
14.3346
14.7769
15.1924
15.4009
9.92145
9.90193
10.079
10.3238
10.5643
10.7802
10.9657
11.1213
11.2503
11.3571
11.4459
11.5203
11.5833
11.6373
11.6844
11.726
11.7634
11.7976
11.8294
11.8593
11.8879
11.9157
11.9429
11.97
11.9972
12.0249
12.0533
12.0827
12.1134
12.1459
12.1805
12.2177
12.2582
12.3027
12.352
12.4073
12.4699
12.5414
12.6238
12.7198
12.8324
12.9652
13.1223
13.3079
13.5248
13.7733
14.0456
14.3194
14.5189
14.5119
10.4307
10.3468
10.4169
10.5601
10.7204
10.8777
11.0225
11.1507
11.2619
11.3575
11.4394
11.5099
11.5709
11.6242
11.6713
11.7135
11.7517
11.7869
11.8198
11.8508
11.8806
11.9095
11.9379
11.9661
11.9943
12.023
12.0524
12.0828
12.1145
12.1479
12.1834
12.2215
12.2628
12.308
12.3578
12.4132
12.4753
12.5455
12.6254
12.7167
12.8215
12.9417
13.0792
13.2349
13.4076
13.5923
13.7776
13.9416
14.0251
13.9428
10.7695
10.6733
10.6901
10.7701
10.874
10.9855
11.0953
11.1978
11.2906
11.3733
11.4465
11.5111
11.5683
11.6193
11.6651
11.7066
11.7447
11.7801
11.8134
11.845
11.8754
11.905
11.9341
11.9631
11.9921
12.0215
12.0516
12.0826
12.115
12.1489
12.185
12.2235
12.265
12.3101
12.3596
12.4141
12.4746
12.5421
12.6177
12.7025
12.7976
12.9038
13.0211
13.1487
13.283
13.4175
13.5411
13.6359
13.6599
13.5596
11.0096
10.9189
10.9097
10.9511
11.0163
11.0935
11.1749
11.2549
11.3305
11.4003
11.464
11.5217
11.574
11.6216
11.665
11.7051
11.7423
11.7772
11.8102
11.8419
11.8725
11.9024
11.9319
11.9612
11.9907
12.0205
12.051
12.0825
12.1151
12.1494
12.1855
12.224
12.2653
12.3098
12.3582
12.4111
12.4691
12.533
12.6033
12.6807
12.7655
12.8575
12.9559
13.0586
13.1616
13.258
13.3386
13.3904
13.3843
13.2867
11.1897
11.1087
11.0872
11.105
11.1441
11.1963
11.2554
11.3166
11.377
11.4347
11.489
11.5395
11.5864
11.6299
11.6704
11.7082
11.7439
11.7778
11.8101
11.8414
11.8718
11.9016
11.9312
11.9606
11.9902
12.0203
12.0509
12.0825
12.1152
12.1494
12.1854
12.2235
12.2641
12.3077
12.3546
12.4053
12.4602
12.5198
12.5844
12.6541
12.7287
12.8075
12.889
12.9707
13.0486
13.1168
13.1678
13.1928
13.1717
13.0824
11.3309
11.2594
11.2323
11.2358
11.2572
11.2912
11.3332
11.3793
11.4266
11.4736
11.5191
11.5626
11.604
11.6431
11.6802
11.7155
11.7492
11.7816
11.8129
11.8434
11.8733
11.9027
11.932
11.9614
11.9909
12.0209
12.0515
12.0829
12.1155
12.1494
12.1849
12.2224
12.262
12.3042
12.3493
12.3975
12.449
12.5042
12.5629
12.6251
12.69
12.7568
12.8237
12.8882
12.9465
12.9937
13.0245
13.0326
13.0042
12.9238
11.4452
11.3817
11.3524
11.347
11.3566
11.3776
11.4066
11.4405
11.4771
11.5147
11.5524
11.5893
11.6253
11.6601
11.6937
11.7262
11.7577
11.7883
11.8182
11.8477
11.8767
11.9056
11.9344
11.9634
11.9926
12.0223
12.0526
12.0838
12.116
12.1495
12.1843
12.2209
12.2594
12.3
12.343
12.3884
12.4365
12.4871
12.5402
12.5952
12.6514
12.7076
12.7621
12.8125
12.8556
12.8874
12.9041
12.9017
12.87
12.7975
11.54
11.4828
11.4529
11.4422
11.4437
11.4553
11.4744
11.4988
11.5266
11.5563
11.5871
11.6181
11.6491
11.6797
11.7098
11.7394
11.7685
11.7973
11.8257
11.8538
11.8819
11.91
11.9381
11.9665
11.9953
12.0246
12.0545
12.0852
12.1169
12.1497
12.1838
12.2193
12.2565
12.2954
12.3362
12.3788
12.4234
12.4696
12.5173
12.5657
12.6141
12.6611
12.7052
12.7442
12.7755
12.7961
12.803
12.7937
12.7608
12.6951
11.62
11.5678
11.538
11.5239
11.52
11.5247
11.5365
11.5534
11.5741
11.5972
11.622
11.6478
11.6742
11.7009
11.7277
11.7545
11.7812
11.808
11.8347
11.8616
11.8885
11.9156
11.943
11.9707
11.9989
12.0276
12.0569
12.0871
12.1181
12.1502
12.1833
12.2177
12.2535
12.2906
12.3292
12.3691
12.4103
12.4524
12.495
12.5375
12.5789
12.6181
12.6536
12.6835
12.7057
12.7177
12.7178
12.7042
12.6711
12.6109
11.6881
11.6399
11.6106
11.5943
11.5866
11.5865
11.5927
11.6038
11.6187
11.6364
11.6562
11.6775
11.6998
11.7229
11.7466
11.7707
11.7952
11.8199
11.845
11.8704
11.8961
11.9222
11.9487
11.9757
12.0031
12.0312
12.0599
12.0894
12.1197
12.1509
12.1831
12.2163
12.2506
12.286
12.3223
12.3596
12.3975
12.4357
12.4738
12.511
12.5464
12.579
12.6073
12.6299
12.6449
12.6507
12.6459
12.6295
12.5967
12.5412
11.7467
11.7015
11.6728
11.6552
11.6449
11.6411
11.6431
11.6497
11.6601
11.6734
11.6889
11.7063
11.7251
11.745
11.7659
11.7875
11.8098
11.8326
11.8561
11.88
11.9045
11.9295
11.9551
11.9812
12.0079
12.0353
12.0633
12.092
12.1216
12.1519
12.1831
12.2151
12.2479
12.2815
12.3158
12.3505
12.3854
12.4202
12.4541
12.4866
12.5169
12.5438
12.5663
12.5829
12.5925
12.5935
12.5851
12.567
12.5349
12.4832
11.7972
11.7544
11.7262
11.7078
11.6956
11.6893
11.6881
11.6912
11.6979
11.7076
11.7197
11.7337
11.7495
11.7666
11.7849
11.8042
11.8245
11.8456
11.8674
11.89
11.9133
11.9372
11.9618
11.9871
12.013
12.0396
12.0669
12.0949
12.1236
12.1531
12.1832
12.2141
12.2455
12.2774
12.3097
12.3421
12.3743
12.4058
12.4361
12.4646
12.4904
12.5126
12.5302
12.5422
12.5474
12.5448
12.5339
12.5146
12.4833
12.4349
11.8406
11.7997
11.7721
11.7532
11.7397
11.7314
11.7277
11.7282
11.732
11.7387
11.748
11.7593
11.7724
11.7871
11.8032
11.8205
11.8389
11.8583
11.8787
11.9
11.9221
11.945
11.9687
11.9931
12.0182
12.0441
12.0706
12.0979
12.1258
12.1544
12.1835
12.2132
12.2433
12.2737
12.3042
12.3344
12.3641
12.3928
12.4199
12.4449
12.4669
12.4852
12.4988
12.507
12.5088
12.5035
12.4908
12.4708
12.4403
12.3946
11.8779
11.8385
11.8113
11.792
11.7776
11.7678
11.7624
11.7607
11.7623
11.7667
11.7736
11.7826
11.7935
11.8061
11.8203
11.8358
11.8526
11.8705
11.8896
11.9097
11.9307
11.9526
11.9754
11.999
12.0234
12.0485
12.0743
12.1009
12.128
12.1558
12.184
12.2126
12.2415
12.2704
12.2992
12.3275
12.355
12.3812
12.4056
12.4275
12.4464
12.4614
12.4718
12.4769
12.4761
12.4688
12.4548
12.4343
12.4046
12.3612
11.9095
11.8713
11.8445
11.825
11.8099
11.7991
11.7922
11.7889
11.7887
11.7913
11.7962
11.8034
11.8125
11.8234
11.8359
11.8498
11.8652
11.8819
11.8997
11.9187
11.9387
11.9598
11.9817
12.0046
12.0282
12.0527
12.0779
12.1037
12.1302
12.1571
12.1845
12.2121
12.2399
12.2676
12.2949
12.3215
12.3471
12.3711
12.3931
12.4126
12.4288
12.4411
12.4489
12.4516
12.4487
12.4398
12.4248
12.4041
12.3751
12.3336
11.936
11.8986
11.8722
11.8526
11.837
11.8254
11.8175
11.8129
11.8113
11.8124
11.8159
11.8215
11.8291
11.8386
11.8497
11.8624
11.8765
11.8921
11.9089
11.9269
11.9461
11.9663
11.9875
12.0097
12.0327
12.0566
12.0811
12.1064
12.1322
12.1584
12.185
12.2118
12.2386
12.2651
12.2911
12.3163
12.3402
12.3625
12.3825
12.3999
12.4139
12.424
12.4298
12.4306
12.4261
12.416
12.4003
12.3795
12.3511
12.3112
11.9576
11.921
11.8948
11.8751
11.8592
11.847
11.8383
11.8328
11.8301
11.8301
11.8323
11.8368
11.8432
11.8515
11.8615
11.8731
11.8863
11.9009
11.9168
11.934
11.9525
11.972
11.9926
12.0142
12.0367
12.06
12.084
12.1087
12.1339
12.1596
12.1855
12.2116
12.2375
12.2631
12.2881
12.312
12.3346
12.3553
12.3738
12.3894
12.4017
12.4101
12.4142
12.4135
12.4078
12.3968
12.3807
12.3598
12.3319
12.2934
11.9747
11.9385
11.9126
11.8928
11.8766
11.864
11.8548
11.8486
11.8451
11.8442
11.8456
11.8491
11.8546
11.862
11.8711
11.8819
11.8943
11.9081
11.9234
11.9399
11.9577
11.9767
11.9968
12.0179
12.0399
12.0628
12.0864
12.1106
12.1354
12.1606
12.186
12.2114
12.2367
12.2615
12.2856
12.3086
12.3301
12.3496
12.3668
12.3811
12.3921
12.3992
12.402
12.4002
12.3936
12.3819
12.3654
12.3446
12.3171
12.2796
11.9873
11.9515
11.9257
11.9059
11.8896
11.8767
11.867
11.8603
11.8564
11.8548
11.8556
11.8584
11.8633
11.87
11.8784
11.8886
11.9004
11.9137
11.9284
11.9445
11.9618
11.9804
12.0001
12.0208
12.0425
12.065
12.0882
12.1122
12.1366
12.1614
12.1863
12.2113
12.2361
12.2603
12.2837
12.306
12.3267
12.3454
12.3616
12.375
12.3849
12.3911
12.393
12.3904
12.3831
12.371
12.3543
12.3334
12.3064
12.2695
11.9957
11.9601
11.9344
11.9146
11.8982
11.8851
11.8752
11.8682
11.8638
11.8619
11.8622
11.8646
11.869
11.8753
11.8834
11.8931
11.9045
11.9174
11.9318
11.9475
11.9646
11.9829
12.0023
12.0228
12.0442
12.0665
12.0895
12.1132
12.1374
12.1619
12.1866
12.2113
12.2357
12.2595
12.2825
12.3043
12.3244
12.3426
12.3582
12.3709
12.3802
12.3857
12.3871
12.384
12.3762
12.3638
12.347
12.3262
12.2993
12.263
11.9999
11.9644
11.9387
11.9189
11.9025
11.8893
11.8792
11.8721
11.8676
11.8654
11.8655
11.8678
11.872
11.878
11.8859
11.8954
11.9066
11.9193
11.9335
11.9491
11.966
11.9841
12.0034
12.0237
12.0451
12.0672
12.0901
12.1137
12.1378
12.1622
12.1867
12.2112
12.2355
12.2591
12.2819
12.3034
12.3233
12.3412
12.3565
12.3689
12.3779
12.3831
12.3841
12.3808
12.3728
12.3603
12.3434
12.3226
12.2958
12.2597
11.9999
11.9644
11.9387
11.9189
11.9025
11.8893
11.8792
11.8721
11.8676
11.8654
11.8655
11.8678
11.872
11.878
11.8859
11.8954
11.9066
11.9193
11.9335
11.9491
11.966
11.9841
12.0034
12.0237
12.0451
12.0672
12.0901
12.1137
12.1378
12.1622
12.1867
12.2112
12.2355
12.2591
12.2819
12.3034
12.3233
12.3412
12.3565
12.3689
12.3779
12.3831
12.3841
12.3808
12.3728
12.3603
12.3434
12.3226
12.2958
12.2597
11.9957
11.9601
11.9344
11.9146
11.8982
11.8851
11.8752
11.8682
11.8638
11.8619
11.8622
11.8646
11.869
11.8753
11.8834
11.8931
11.9045
11.9174
11.9318
11.9475
11.9646
11.9829
12.0023
12.0228
12.0442
12.0665
12.0895
12.1132
12.1374
12.1619
12.1866
12.2113
12.2357
12.2595
12.2825
12.3043
12.3244
12.3426
12.3582
12.3709
12.3802
12.3857
12.3871
12.384
12.3762
12.3638
12.347
12.3262
12.2993
12.263
11.9874
11.9515
11.9257
11.9059
11.8896
11.8767
11.867
11.8604
11.8564
11.8548
11.8556
11.8584
11.8633
11.87
11.8784
11.8886
11.9004
11.9137
11.9284
11.9445
11.9618
11.9804
12.0001
12.0208
12.0425
12.065
12.0882
12.1122
12.1366
12.1614
12.1863
12.2113
12.2361
12.2603
12.2837
12.306
12.3267
12.3454
12.3616
12.375
12.3849
12.3911
12.393
12.3904
12.3831
12.371
12.3543
12.3334
12.3064
12.2695
11.9747
11.9385
11.9126
11.8928
11.8766
11.864
11.8548
11.8486
11.8451
11.8442
11.8456
11.8491
11.8546
11.862
11.8711
11.8819
11.8943
11.9081
11.9234
11.9399
11.9578
11.9767
11.9968
12.0179
12.0399
12.0628
12.0864
12.1106
12.1354
12.1606
12.186
12.2114
12.2367
12.2615
12.2856
12.3086
12.3301
12.3496
12.3668
12.3811
12.3921
12.3992
12.402
12.4002
12.3936
12.3819
12.3654
12.3446
12.3171
12.2796
11.9577
11.921
11.8948
11.8751
11.8592
11.847
11.8383
11.8328
11.8301
11.8301
11.8324
11.8368
11.8432
11.8515
11.8615
11.8731
11.8863
11.9009
11.9168
11.934
11.9525
11.972
11.9926
12.0142
12.0367
12.06
12.084
12.1087
12.1339
12.1596
12.1855
12.2116
12.2375
12.2631
12.288
12.312
12.3346
12.3553
12.3738
12.3894
12.4017
12.4101
12.4142
12.4135
12.4078
12.3968
12.3807
12.3598
12.3319
12.2934
11.936
11.8986
11.8722
11.8526
11.837
11.8254
11.8175
11.8129
11.8113
11.8124
11.8159
11.8215
11.8291
11.8386
11.8497
11.8624
11.8765
11.8921
11.9089
11.9269
11.9461
11.9663
11.9875
12.0097
12.0327
12.0566
12.0811
12.1064
12.1322
12.1584
12.185
12.2118
12.2386
12.2651
12.2911
12.3163
12.3402
12.3625
12.3825
12.3999
12.4139
12.424
12.4298
12.4306
12.4261
12.4159
12.4003
12.3795
12.3511
12.3112
11.9095
11.8713
11.8445
11.825
11.8099
11.7991
11.7923
11.7889
11.7887
11.7913
11.7963
11.8034
11.8125
11.8234
11.8359
11.8499
11.8652
11.8819
11.8997
11.9187
11.9387
11.9598
11.9817
12.0046
12.0283
12.0527
12.0779
12.1037
12.1302
12.1571
12.1845
12.2121
12.2399
12.2676
12.2949
12.3215
12.3471
12.3711
12.3931
12.4126
12.4287
12.4411
12.4489
12.4516
12.4487
12.4398
12.4248
12.4041
12.3751
12.3336
11.8779
11.8385
11.8113
11.792
11.7776
11.7679
11.7624
11.7607
11.7623
11.7667
11.7736
11.7826
11.7935
11.8061
11.8203
11.8358
11.8526
11.8705
11.8896
11.9097
11.9307
11.9526
11.9754
11.999
12.0234
12.0485
12.0743
12.1009
12.128
12.1558
12.184
12.2126
12.2415
12.2704
12.2992
12.3275
12.355
12.3812
12.4056
12.4275
12.4464
12.4614
12.4718
12.4769
12.4761
12.4688
12.4548
12.4343
12.4045
12.3612
11.8406
11.7997
11.7721
11.7532
11.7397
11.7314
11.7277
11.7282
11.732
11.7388
11.748
11.7593
11.7724
11.7871
11.8032
11.8205
11.8389
11.8583
11.8787
11.9
11.9221
11.945
11.9687
11.9931
12.0182
12.0441
12.0706
12.0979
12.1258
12.1544
12.1835
12.2132
12.2433
12.2737
12.3042
12.3344
12.3641
12.3928
12.4199
12.4449
12.4669
12.4852
12.4988
12.507
12.5088
12.5035
12.4908
12.4708
12.4403
12.3946
11.7972
11.7544
11.7263
11.7078
11.6957
11.6893
11.6881
11.6912
11.6979
11.7076
11.7197
11.7337
11.7495
11.7666
11.7849
11.8042
11.8245
11.8456
11.8674
11.89
11.9133
11.9372
11.9618
11.9871
12.013
12.0396
12.0669
12.0949
12.1236
12.1531
12.1832
12.2141
12.2455
12.2774
12.3097
12.3421
12.3743
12.4058
12.4361
12.4646
12.4904
12.5126
12.5302
12.5421
12.5473
12.5448
12.5339
12.5146
12.4833
12.4349
11.7467
11.7015
11.6728
11.6552
11.6449
11.6412
11.6431
11.6498
11.6601
11.6734
11.689
11.7063
11.7251
11.745
11.7659
11.7875
11.8098
11.8326
11.8561
11.88
11.9045
11.9295
11.9551
11.9812
12.0079
12.0353
12.0633
12.092
12.1216
12.1519
12.1831
12.2151
12.2479
12.2815
12.3158
12.3505
12.3854
12.4201
12.4541
12.4866
12.5169
12.5438
12.5663
12.5829
12.5925
12.5935
12.5851
12.567
12.5349
12.4832
11.6882
11.6399
11.6106
11.5944
11.5867
11.5865
11.5927
11.6038
11.6187
11.6365
11.6562
11.6775
11.6998
11.7229
11.7466
11.7707
11.7952
11.82
11.845
11.8704
11.8961
11.9222
11.9487
11.9757
12.0031
12.0312
12.0599
12.0894
12.1197
12.1509
12.1831
12.2163
12.2506
12.286
12.3223
12.3596
12.3975
12.4357
12.4738
12.511
12.5464
12.579
12.6073
12.6299
12.6449
12.6507
12.6458
12.6295
12.5967
12.5412
11.62
11.5678
11.538
11.5239
11.52
11.5247
11.5365
11.5534
11.5741
11.5972
11.622
11.6478
11.6742
11.7009
11.7277
11.7545
11.7812
11.808
11.8348
11.8616
11.8885
11.9156
11.943
11.9707
11.9989
12.0276
12.0569
12.0871
12.1181
12.1502
12.1833
12.2177
12.2535
12.2906
12.3292
12.3691
12.4102
12.4523
12.495
12.5374
12.5789
12.6181
12.6536
12.6835
12.7056
12.7177
12.7177
12.7042
12.6711
12.6109
11.5401
11.4829
11.4529
11.4422
11.4438
11.4553
11.4745
11.4988
11.5266
11.5564
11.5871
11.6181
11.6491
11.6797
11.7098
11.7394
11.7685
11.7973
11.8257
11.8538
11.8819
11.91
11.9381
11.9665
11.9953
12.0246
12.0545
12.0852
12.1169
12.1497
12.1838
12.2193
12.2565
12.2954
12.3362
12.3788
12.4234
12.4696
12.5173
12.5657
12.614
12.6611
12.7052
12.7442
12.7755
12.7961
12.803
12.7937
12.7608
12.695
11.4453
11.3817
11.3524
11.3471
11.3567
11.3776
11.4066
11.4405
11.4771
11.5147
11.5524
11.5893
11.6253
11.6601
11.6937
11.7262
11.7577
11.7883
11.8183
11.8477
11.8767
11.9056
11.9344
11.9634
11.9926
12.0223
12.0526
12.0838
12.116
12.1494
12.1843
12.2209
12.2594
12.3
12.343
12.3884
12.4365
12.4871
12.5402
12.5952
12.6514
12.7076
12.7621
12.8125
12.8555
12.8874
12.9041
12.9016
12.8699
12.7975
11.3309
11.2594
11.2323
11.2358
11.2572
11.2913
11.3332
11.3793
11.4267
11.4736
11.5191
11.5627
11.604
11.6431
11.6803
11.7155
11.7493
11.7816
11.8129
11.8434
11.8733
11.9028
11.932
11.9614
11.9909
12.0209
12.0515
12.0829
12.1155
12.1494
12.1849
12.2224
12.262
12.3042
12.3493
12.3974
12.449
12.5042
12.5629
12.625
12.69
12.7568
12.8237
12.8881
12.9465
12.9937
13.0245
13.0326
13.0042
12.9238
11.1897
11.1088
11.0873
11.1051
11.1441
11.1963
11.2554
11.3166
11.377
11.4347
11.489
11.5396
11.5864
11.6299
11.6704
11.7083
11.7439
11.7778
11.8102
11.8414
11.8718
11.9016
11.9312
11.9606
11.9903
12.0203
12.0509
12.0825
12.1152
12.1494
12.1854
12.2235
12.2641
12.3077
12.3545
12.4053
12.4602
12.5198
12.5844
12.6541
12.7287
12.8075
12.889
12.9707
13.0486
13.1168
13.1678
13.1927
13.1717
13.0824
11.0096
10.9189
10.9098
10.9511
11.0163
11.0936
11.175
11.255
11.3305
11.4003
11.464
11.5217
11.574
11.6216
11.665
11.7051
11.7423
11.7772
11.8102
11.8419
11.8725
11.9024
11.9319
11.9612
11.9907
12.0205
12.051
12.0825
12.1151
12.1494
12.1855
12.224
12.2653
12.3098
12.3582
12.4111
12.4691
12.533
12.6033
12.6807
12.7655
12.8575
12.9559
13.0586
13.1615
13.258
13.3386
13.3904
13.3843
13.2866
10.7695
10.6733
10.6901
10.7702
10.874
10.9856
11.0953
11.1978
11.2907
11.3734
11.4465
11.5111
11.5683
11.6193
11.6651
11.7066
11.7448
11.7802
11.8134
11.845
11.8754
11.905
11.9341
11.9631
11.9921
12.0215
12.0516
12.0826
12.115
12.1489
12.185
12.2235
12.265
12.3101
12.3596
12.4141
12.4746
12.5421
12.6177
12.7025
12.7976
12.9038
13.0211
13.1486
13.283
13.4175
13.5411
13.6359
13.6599
13.5596
10.4308
10.3468
10.417
10.5601
10.7204
10.8777
11.0225
11.1507
11.2619
11.3575
11.4395
11.5099
11.5709
11.6242
11.6713
11.7135
11.7518
11.787
11.8198
11.8509
11.8806
11.9095
11.9379
11.9661
11.9943
12.023
12.0524
12.0828
12.1145
12.1479
12.1834
12.2215
12.2628
12.308
12.3578
12.4132
12.4753
12.5455
12.6254
12.7167
12.8215
12.9417
13.0792
13.2349
13.4076
13.5922
13.7776
13.9416
14.0251
13.9428
9.92149
9.90197
10.0791
10.3239
10.5644
10.7802
10.9657
11.1213
11.2503
11.3572
11.4459
11.5203
11.5833
11.6373
11.6844
11.726
11.7634
11.7976
11.8294
11.8593
11.8879
11.9157
11.9429
11.97
11.9973
12.0249
12.0533
12.0827
12.1134
12.1459
12.1805
12.2177
12.2582
12.3027
12.352
12.4073
12.4699
12.5414
12.6238
12.7198
12.8324
12.9651
13.1223
13.3078
13.5248
13.7733
14.0456
14.3194
14.5189
14.5119
9.11118
9.28882
9.66886
10.071
10.4215
10.7082
10.9373
11.1185
11.262
11.3763
11.4684
11.5437
11.6062
11.659
11.7043
11.7441
11.7796
11.8119
11.8418
11.87
11.897
11.9232
11.949
11.9746
12.0005
12.0269
12.0539
12.082
12.1115
12.1426
12.1759
12.2117
12.2508
12.2939
12.3418
12.3957
12.4572
12.5281
12.6108
12.7086
12.8256
12.9674
13.1408
13.3547
13.6191
13.9441
14.3346
14.7769
15.1924
15.4008
7.70324
8.46712
9.21078
9.83497
10.3224
10.6855
10.9533
11.1525
11.3028
11.4182
11.5086
11.5808
11.6396
11.6887
11.7306
11.7671
11.7995
11.8291
11.8565
11.8824
11.9073
11.9316
11.9556
11.9796
12.0039
12.0286
12.0542
12.0807
12.1085
12.138
12.1695
12.2034
12.2404
12.2812
12.3267
12.378
12.4367
12.5047
12.5847
12.6803
12.7967
12.9409
13.1231
13.3575
13.6645
14.0717
14.6091
15.2873
16.0854
16.9142
4.86805
7.46787
8.88598
9.77016
10.3747
10.7821
11.0581
11.2512
11.3908
11.4947
11.5744
11.6371
11.6877
11.7298
11.7655
11.7968
11.8247
11.8503
11.8743
11.8972
11.9193
11.9412
11.9629
11.9848
12.0071
12.0299
12.0535
12.0781
12.1039
12.1311
12.1602
12.1915
12.2255
12.2629
12.3044
12.3512
12.4045
12.4663
12.539
12.6262
12.7331
12.8672
13.0403
13.2707
13.589
14.0454
14.7096
15.6663
17.1701
19.8875
7.10598e-05
6.38532
9.05039
10.1467
10.7402
11.0907
11.306
11.4477
11.5472
11.6204
11.6764
11.7206
11.7567
11.7869
11.8131
11.8364
11.8577
11.8777
11.8969
11.9156
11.9342
11.9527
11.9715
11.9907
12.0104
12.0307
12.0517
12.0736
12.0966
12.1209
12.1466
12.1742
12.2039
12.2362
12.2718
12.3114
12.356
12.407
12.4663
12.5364
12.6211
12.7262
12.8611
13.0423
13.3017
13.7033
14.3637
15.5548
18.336
24.8454
)
;

boundaryField
{
    movingWallTop
    {
        type            zeroGradient;
    }
    movingWallBottom
    {
        type            zeroGradient;
    }
    fixedWalls
    {
        type            zeroGradient;
    }
    frontAndBack
    {
        type            empty;
    }
}


// ************************************************************************* //
