/*--------------------------------*- C++ -*----------------------------------*\
  =========                 |
  \\      /  F ield         | OpenFOAM: The Open Source CFD Toolbox
   \\    /   O peration     | Website:  https://openfoam.org
    \\  /    A nd           | Version:  7
     \\/     M anipulation  |
\*---------------------------------------------------------------------------*/
FoamFile
{
    version     2.0;
    format      ascii;
    class       volScalarField;
    location    "0.0134";
    object      p;
}
// * * * * * * * * * * * * * * * * * * * * * * * * * * * * * * * * * * * * * //

dimensions      [0 2 -2 0 0 0 0];

internalField   nonuniform List<scalar> 
2500
(
3.86308e-08
-0.000671143
-0.00203939
-0.00379966
-0.00554404
-0.00709999
-0.00830479
-0.00905031
-0.00927048
-0.00892821
-0.00800776
-0.00650938
-0.00444535
-0.00183697
0.00128768
0.00489547
0.00894945
0.0134098
0.0182344
0.0233795
0.0288
0.0344496
0.0402811
0.0462464
0.0522968
0.0583831
0.0644553
0.0704632
0.0763565
0.0820847
0.0875975
0.0928448
0.0977776
0.102348
0.106509
0.110217
0.113432
0.116118
0.118243
0.119787
0.120735
0.12109
0.120869
0.120112
0.118888
0.117311
0.115548
0.113774
0.1124
0.111732
0.000666085
-4.59306e-06
-0.00108913
-0.00239176
-0.00369564
-0.00483834
-0.00569114
-0.00616066
-0.00618309
-0.00571804
-0.00474388
-0.00325384
-0.00125287
0.00124483
0.00421783
0.00763901
0.0114768
0.015696
0.0202588
0.025125
0.0302526
0.0355981
0.0411168
0.0467629
0.0524899
0.0582505
0.0639971
0.0696816
0.075256
0.0806723
0.085883
0.0908414
0.0955018
0.0998204
0.103755
0.107268
0.110324
0.112893
0.114951
0.116485
0.117488
0.117968
0.117949
0.117473
0.116608
0.11545
0.114132
0.112819
0.111731
0.111063
0.00203106
0.00107243
-1.86156e-05
-0.00117029
-0.00227653
-0.00321084
-0.00387089
-0.00417976
-0.00408138
-0.00353785
-0.002527
-0.00103971
0.000922373
0.00334883
0.00622209
0.00951878
0.0132108
0.0172662
0.0216501
0.0263247
0.0312504
0.0363858
0.0416881
0.0471133
0.0526164
0.0581519
0.0636736
0.0691351
0.0744902
0.0796928
0.0846973
0.0894594
0.0939359
0.0980857
0.10187
0.105254
0.108206
0.110701
0.112719
0.114248
0.115288
0.115847
0.11595
0.115637
0.114966
0.114019
0.1129
0.111739
0.110643
0.109684
0.0038008
0.00237738
0.001111
-5.92229e-05
-0.00111895
-0.00197308
-0.00254165
-0.00276471
-0.00259663
-0.00200519
-0.000970756
0.000515294
0.00245216
0.00483106
0.00763647
0.0108473
0.0144377
0.0183779
0.0226351
0.0271735
0.0319552
0.0369404
0.0420877
0.0473546
0.0526975
0.0580719
0.063433
0.0687359
0.0739353
0.0789869
0.0838464
0.0884712
0.09282
0.0968535
0.100535
0.103832
0.106716
0.109162
0.111154
0.112682
0.113744
0.114351
0.114523
0.114295
0.113716
0.112848
0.111775
0.110594
0.109324
0.107907
0.00560552
0.0037113
0.00220744
0.000941197
-0.000148222
-0.000990212
-0.00152364
-0.00170438
-0.00149752
-0.000877555
0.000171295
0.00165579
0.00357468
0.00591961
0.0086761
0.0118244
0.0153402
0.0191954
0.0233586
0.0277955
0.0324696
0.0373425
0.0423739
0.0475225
0.0527456
0.0579999
0.0632416
0.0684267
0.0735112
0.0784516
0.083205
0.0877299
0.0919863
0.0959364
0.0995453
0.102781
0.105617
0.108031
0.110005
0.111531
0.112608
0.113242
0.113452
0.113264
0.112718
0.11186
0.110755
0.109477
0.107968
0.106077
0.00728603
0.00492462
0.00315455
0.00174491
0.000573865
-0.000305706
-0.000847452
-0.00102081
-0.000800781
-0.000168602
0.000887096
0.00237041
0.00427872
0.00660324
0.0093297
0.0124389
0.0159074
0.0197081
0.0238106
0.0281817
0.0327858
0.0375855
0.0425413
0.0476128
0.0527581
0.0579347
0.0630995
0.0682092
0.0732206
0.0780908
0.0827778
0.0872409
0.0914408
0.0953408
0.0989067
0.102108
0.104917
0.107313
0.109279
0.110805
0.111888
0.112534
0.112755
0.112572
0.112014
0.111116
0.109926
0.108502
0.106725
0.104368
0.00869887
0.00589954
0.00385674
0.00227666
0.000989824
3.75103e-05
-0.000544768
-0.000737435
-0.00052402
0.00010799
0.00116549
0.00264955
0.00455561
0.00687382
0.00958942
0.0126832
0.016132
0.0199091
0.0239846
0.028326
0.0328982
0.0376644
0.0425858
0.0476223
0.0527327
0.0578748
0.0630059
0.0680833
0.073064
0.0779056
0.0825666
0.0870064
0.0911862
0.0950696
0.0986225
0.101814
0.104619
0.107013
0.10898
0.110509
0.111595
0.11224
0.112452
0.112247
0.111645
0.110669
0.10936
0.107762
0.105711
0.102917
0.00974869
0.0065486
0.00423896
0.00247606
0.0010536
6.10379e-06
-0.000638323
-0.000868601
-0.000675269
-5.12504e-05
0.00100614
0.00249487
0.00440817
0.0067347
0.00945876
0.0125606
0.0160169
0.0198007
0.0238824
0.0282296
0.0328075
0.0375794
0.0425068
0.0475498
0.0526674
0.0578176
0.0629578
0.0680453
0.0730372
0.0778913
0.0825657
0.0870202
0.0912156
0.0951153
0.0986851
0.101894
0.104715
0.107124
0.109103
0.11064
0.111728
0.112365
0.112555
0.112309
0.11164
0.110565
0.109115
0.10733
0.105011
0.101817
0.0103742
0.00680735
0.004241
0.002291
0.000722223
-0.000434033
-0.00115431
-0.00143381
-0.00126861
-0.000656236
0.000402267
0.00190185
0.00383344
0.00618395
0.0089364
0.0120701
0.0155611
0.0193821
0.023503
0.0278914
0.0325123
0.0373288
0.0423025
0.0473933
0.05256
0.0577606
0.0629523
0.0680921
0.073137
0.0780442
0.0827717
0.0872785
0.0915252
0.0954744
0.099091
0.102343
0.105203
0.107645
0.10965
0.111203
0.112294
0.112919
0.11308
0.112781
0.112032
0.110842
0.10924
0.107263
0.104684
0.101125
0.0105344
0.00662734
0.00381396
0.00167617
-4.45101e-05
-0.00131747
-0.00212175
-0.00245703
-0.00232366
-0.00172291
-0.000659134
0.000859829
0.00282258
0.00521412
0.00801594
0.0112062
0.0147597
0.0186487
0.0228423
0.0273075
0.0320089
0.0369092
0.0419696
0.0471496
0.0524077
0.0577012
0.0629871
0.0682217
0.0733614
0.0783628
0.0831832
0.0877806
0.0921147
0.096147
0.0998413
0.103164
0.106086
0.10858
0.110626
0.112205
0.113305
0.11392
0.114047
0.113689
0.11285
0.111537
0.109777
0.107607
0.104778
0.100878
0.0102009
0.00597094
0.00291722
0.000591641
-0.00128414
-0.0026784
-0.00357108
-0.00396495
-0.00386359
-0.00327134
-0.00219539
-0.00064621
0.00136251
0.00381375
0.00668728
0.00995972
0.0136047
0.0175933
0.0218936
0.0264719
0.0312919
0.0363158
0.0415038
0.0468149
0.0522068
0.0576364
0.0630595
0.0684319
0.073709
0.0788464
0.0838002
0.0885273
0.092986
0.0971362
0.10094
0.104363
0.107372
0.109941
0.112043
0.113661
0.114779
0.115387
0.115481
0.115061
0.114128
0.112686
0.110763
0.108399
0.105324
0.101101
0.00935253
0.00480723
0.00151544
-0.000999111
-0.00303264
-0.0045511
-0.00553419
-0.00598677
-0.00591485
-0.00532528
-0.0042278
-0.0026353
-0.000563788
0.00196762
0.00493675
0.00831853
0.0120851
0.0162059
0.0206481
0.0253765
0.0303541
0.0355419
0.0408992
0.046384
0.0519532
0.0575625
0.063167
0.068721
0.074179
0.0794951
0.084624
0.0895211
0.0941428
0.0984473
0.102395
0.105948
0.109072
0.111738
0.113917
0.115589
0.116735
0.117344
0.117409
0.116926
0.115895
0.114321
0.112232
0.10967
0.106352
0.10181
0.00797107
0.00310859
-0.000424095
-0.00313105
-0.00532567
-0.00697074
-0.0080449
-0.00855442
-0.00850721
-0.00791223
-0.00678154
-0.00513042
-0.0029772
-0.000343231
0.00274721
0.00626706
0.0101867
0.0144738
0.0190942
0.0240112
0.0291863
0.0345794
0.0401487
0.0458509
0.0516417
0.0574756
0.0633064
0.0690872
0.0747707
0.0803096
0.0856569
0.0907658
0.0955909
0.100088
0.104215
0.107931
0.1112
0.113989
0.116268
0.118011
0.1192
0.119819
0.119858
0.119315
0.118186
0.116476
0.114215
0.111451
0.107883
0.103019
0.00603896
0.000848226
-0.0029336
-0.00583937
-0.00819993
-0.00997431
-0.0111396
-0.011703
-0.0116739
-0.0110634
-0.00988573
-0.00815848
-0.00590246
-0.00314145
9.79732e-05
0.00378654
0.00789248
0.0123817
0.0172181
0.0223633
0.0277773
0.0334185
0.0392436
0.0452081
0.0512661
0.0573707
0.0634742
0.0695282
0.0754836
0.0812911
0.0869017
0.0922664
0.0973373
0.102067
0.106412
0.110327
0.113773
0.116714
0.119117
0.120954
0.122201
0.122841
0.122864
0.122262
0.121035
0.119185
0.116746
0.11377
0.109942
0.104741
0.0035369
-0.00200193
-0.00604668
-0.00916103
-0.0116944
-0.0136016
-0.0148578
-0.0154711
-0.0154522
-0.0148142
-0.0135735
-0.0117504
-0.0093682
-0.00645337
-0.00303508
0.00085491
0.00518249
0.00991138
0.0150033
0.0204181
0.0261139
0.0320474
0.0381737
0.0444467
0.0508189
0.0572419
0.0636662
0.0700415
0.0763168
0.0824408
0.0883619
0.0940287
0.0993904
0.104397
0.109
0.113153
0.116812
0.119937
0.122492
0.124445
0.12577
0.126447
0.126461
0.125806
0.12448
0.122484
0.119858
0.116659
0.112554
0.106991
0.000442364
-0.00547296
-0.0098
-0.0131363
-0.0158516
-0.0178963
-0.0192434
-0.0199017
-0.0198837
-0.0192042
-0.0178824
-0.0159412
-0.013407
-0.0103091
-0.00667962
-0.00255311
0.00203364
0.00704185
0.0124309
0.0181585
0.0241808
0.0304526
0.0369271
0.0435565
0.0502916
0.0570823
0.0638771
0.0706237
0.0772692
0.0837597
0.0900411
0.096059
0.101759
0.107089
0.111995
0.116428
0.120339
0.123685
0.126423
0.12852
0.129945
0.130674
0.130692
0.129989
0.128562
0.126415
0.123589
0.12015
0.115744
0.109788
-0.00327175
-0.00960037
-0.0142347
-0.01781
-0.0207189
-0.0229069
-0.024345
-0.0250428
-0.0250147
-0.024278
-0.0228545
-0.0207705
-0.0180557
-0.0147426
-0.0108669
-0.0064661
-0.00158013
0.00374946
0.00947945
0.0155652
0.0219606
0.0286183
0.0354898
0.0425253
0.0496738
0.0568832
0.0641003
0.0712706
0.0783387
0.0852483
0.0919425
0.0983636
0.104454
0.110157
0.115415
0.120173
0.12438
0.127986
0.130945
0.133216
0.134767
0.135568
0.135602
0.134858
0.13333
0.131024
0.127984
0.124283
0.119547
0.113153
-0.00763823
-0.0144255
-0.0193979
-0.0232331
-0.0263496
-0.0286882
-0.0302173
-0.0309482
-0.0308975
-0.0300853
-0.028537
-0.0262825
-0.0233552
-0.0197919
-0.0156317
-0.0109159
-0.00568789
7.75829e-06
0.00612493
0.0126163
0.0194335
0.026527
0.0338461
0.0413392
0.0489535
0.0566348
0.0643279
0.0719763
0.079522
0.0869062
0.0940687
0.100949
0.107484
0.113614
0.119277
0.124413
0.128964
0.132874
0.136094
0.138576
0.140282
0.141179
0.141245
0.140466
0.138837
0.136362
0.133091
0.129104
0.124
0.117116
-0.0126966
-0.0199968
-0.025344
-0.0294639
-0.0328048
-0.035302
-0.0369222
-0.0376786
-0.0375906
-0.0366822
-0.0349826
-0.0325262
-0.0293513
-0.0254988
-0.0210125
-0.0159378
-0.0103217
-0.00421236
0.00234091
0.009288
0.016578
0.024159
0.0319785
0.0399827
0.0481169
0.0563252
0.0645503
0.0727335
0.0808145
0.0887315
0.0964213
0.103819
0.110859
0.117476
0.123601
0.129171
0.134119
0.138386
0.141912
0.144646
0.146542
0.147562
0.147679
0.146876
0.145146
0.142492
0.138969
0.134664
0.129149
0.121711
-0.0184944
-0.0263714
-0.0321364
-0.03657
-0.0401541
-0.0428192
-0.0445299
-0.0453023
-0.0451598
-0.0441308
-0.0422497
-0.0395563
-0.0360941
-0.0319097
-0.0270515
-0.02157
-0.0155163
-0.00894251
-0.00190133
0.00555411
0.0133702
0.0214928
0.0298672
0.0384379
0.0471482
0.0559406
0.0647557
0.0735329
0.0822094
0.0907208
0.0990003
0.10698
0.114588
0.121755
0.128407
0.134472
0.139879
0.144559
0.148445
0.151478
0.153605
0.154781
0.154973
0.154159
0.152328
0.149484
0.145685
0.141028
0.13505
0.126982
-0.0250884
-0.0336167
-0.0398494
-0.0446294
-0.0484782
-0.0513205
-0.05312
-0.0538966
-0.053679
-0.0525009
-0.0504034
-0.0474327
-0.0436389
-0.0390747
-0.0337945
-0.027854
-0.0213092
-0.0142166
-0.00663257
0.00138664
0.00978464
0.018505
0.027491
0.0366853
0.0460298
0.0554651
0.0649304
0.074363
0.083698
0.0928681
0.101803
0.110432
0.118678
0.126464
0.133713
0.140343
0.146277
0.151435
0.155743
0.159131
0.161537
0.162908
0.163203
0.162394
0.160467
0.157421
0.15332
0.14827
0.141769
0.132982
-0.0325465
-0.0418124
-0.0485698
-0.0537334
-0.0578698
-0.0608988
-0.0627834
-0.0635491
-0.0632309
-0.0618702
-0.0595157
-0.0562216
-0.0520457
-0.0470482
-0.0412904
-0.0348339
-0.0277403
-0.0200707
-0.0118853
-0.00324401
0.00579421
0.0151707
0.0248267
0.0347036
0.0447418
0.0548807
0.065058
0.0752096
0.0852684
0.0951649
0.104826
0.114175
0.123133
0.131615
0.139537
0.14681
0.153347
0.159057
0.163857
0.167665
0.170408
0.172022
0.172456
0.171675
0.169657
0.1664
0.161969
0.15648
0.149386
0.139776
-0.0409499
-0.0510527
-0.0583998
-0.0639881
-0.0684367
-0.0716607
-0.0736238
-0.0743585
-0.0739086
-0.0723248
-0.0696656
-0.0659948
-0.0613796
-0.0558888
-0.0495915
-0.0425564
-0.0348512
-0.0265419
-0.0176934
-0.00836854
0.00137069
0.0114636
0.02185
0.0324698
0.0432626
0.054167
0.0651198
0.0760556
0.0869061
0.0975993
0.108059
0.118206
0.127954
0.137215
0.145895
0.153898
0.161123
0.167472
0.172846
0.17715
0.180299
0.182214
0.182833
0.182109
0.180012
0.176533
0.171742
0.165764
0.157998
0.147445
-0.0503955
-0.0614499
-0.0694601
-0.0755179
-0.080304
-0.0837292
-0.0857594
-0.0864367
-0.0858163
-0.0839606
-0.0809401
-0.0768305
-0.0717102
-0.065658
-0.0587524
-0.0510698
-0.0426846
-0.0336686
-0.0240909
-0.0140181
-0.00351461
0.00735697
0.0185353
0.0299595
0.0415688
0.0533015
0.0650942
0.0768809
0.0885925
0.100155
0.111491
0.122516
0.133141
0.14327
0.152801
0.161628
0.16964
0.176724
0.182767
0.187659
0.191296
0.193584
0.194445
0.193817
0.19166
0.187955
0.182774
0.176252
0.167723
0.156086
-0.0610001
-0.0731374
-0.0818932
-0.088469
-0.0936174
-0.0972461
-0.0993253
-0.0999102
-0.0990703
-0.0968831
-0.093434
-0.0888129
-0.0831115
-0.0764208
-0.0688295
-0.0604232
-0.0512836
-0.0414885
-0.0311117
-0.0202233
-0.00888993
0.00282422
0.0148571
0.0271478
0.0396358
0.0522599
0.0649572
0.0776622
0.0903055
0.102813
0.115104
0.127093
0.138685
0.149777
0.160262
0.17002
0.178929
0.18686
0.193683
0.19927
0.203495
0.206244
0.207419
0.206941
0.204753
0.200823
0.195223
0.188096
0.178703
0.165821
-0.0729045
-0.086275
-0.0958683
-0.103013
-0.108546
-0.112375
-0.114476
-0.114922
-0.113801
-0.111209
-0.10725
-0.102032
-0.0956612
-0.0882437
-0.0798799
-0.0706653
-0.0606899
-0.0500378
-0.0387876
-0.0270127
-0.0147817
-0.0021599
0.0107908
0.02401
0.0374385
0.0510165
0.0646827
0.0783731
0.0920191
0.105547
0.118876
0.131916
0.144571
0.156732
0.16828
0.179088
0.189018
0.197924
0.205657
0.212065
0.216998
0.220319
0.221901
0.221643
0.219466
0.215321
0.209277
0.201484
0.191112
0.1768
-0.0862795
-0.101055
-0.111587
-0.119353
-0.12529
-0.129305
-0.131388
-0.131632
-0.130151
-0.127065
-0.122498
-0.116581
-0.109439
-0.101194
-0.0919591
-0.0818422
-0.0709419
-0.0593489
-0.0471465
-0.0344111
-0.021213
-0.00761757
0.00631397
0.020523
0.0349525
0.0495454
0.0642432
0.0789847
0.0937037
0.108328
0.122777
0.136961
0.15078
0.164119
0.176852
0.18884
0.19993
0.209958
0.218751
0.22613
0.231918
0.235944
0.238052
0.238108
0.236004
0.231669
0.225162
0.21664
0.205164
0.189208
-0.101333
-0.117708
-0.12929
-0.137729
-0.14408
-0.148255
-0.150262
-0.150223
-0.148282
-0.144588
-0.139296
-0.132559
-0.124525
-0.115335
-0.105119
-0.0939952
-0.0820723
-0.069448
-0.05621
-0.0424373
-0.028201
-0.0135659
0.00140875
0.0166671
0.0321557
0.0478216
0.0636109
0.0794664
0.0953263
0.111121
0.126774
0.142194
0.157281
0.171915
0.185963
0.199275
0.211681
0.222997
0.233024
0.241553
0.248372
0.253271
0.256054
0.256547
0.254605
0.250123
0.243147
0.233835
0.221119
0.20328
-0.11832
-0.136514
-0.149267
-0.158427
-0.165189
-0.16948
-0.171328
-0.170896
-0.168367
-0.163927
-0.157765
-0.150063
-0.140997
-0.130729
-0.119404
-0.107157
-0.0941046
-0.0803516
-0.06599
-0.0511005
-0.0357542
-0.020014
-0.0039361
0.0124281
0.0290301
0.0458231
0.062759
0.0797872
0.0968517
0.113889
0.130826
0.147575
0.164035
0.180087
0.195589
0.21038
0.224276
0.237069
0.248532
0.258422
0.266484
0.272462
0.276109
0.277202
0.275545
0.270989
0.263556
0.253399
0.239298
0.219304
-0.137551
-0.157815
-0.171865
-0.181785
-0.188939
-0.193271
-0.194847
-0.193878
-0.190598
-0.185238
-0.178029
-0.16919
-0.158926
-0.147424
-0.134849
-0.121347
-0.107048
-0.0920623
-0.0764848
-0.0603971
-0.043869
-0.0269601
-0.00972179
0.00780033
0.025565
0.0435328
0.0616643
0.0799173
0.0982442
0.11659
0.134887
0.153056
0.170996
0.18859
0.205692
0.222131
0.237707
0.25219
0.265323
0.27682
0.286381
0.293691
0.298444
0.300349
0.299146
0.294627
0.286775
0.275733
0.260094
0.237643
-0.159411
-0.182023
-0.197502
-0.208209
-0.215705
-0.21997
-0.221115
-0.219419
-0.215178
-0.208681
-0.20021
-0.190027
-0.178371
-0.165455
-0.151467
-0.136567
-0.120894
-0.104564
-0.087674
-0.0703056
-0.0525249
-0.0343867
-0.0159358
0.00279036
0.0217595
0.0409422
0.0603097
0.0798308
0.0994693
0.119181
0.138909
0.158581
0.178106
0.197367
0.21622
0.234486
0.251951
0.268363
0.283431
0.296826
0.308191
0.317145
0.323305
0.326299
0.325781
0.321461
0.31327
0.301324
0.283993
0.258748
-0.184372
-0.209646
-0.226689
-0.238183
-0.245934
-0.249967
-0.250465
-0.247791
-0.242321
-0.234417
-0.224421
-0.212645
-0.199368
-0.184833
-0.169248
-0.15279
-0.135605
-0.117813
-0.0995124
-0.080781
-0.06168
-0.0422568
-0.0225475
-0.00257936
0.0176269
0.0380544
0.0586875
0.0795089
0.100497
0.121621
0.142839
0.164092
0.185298
0.20635
0.227107
0.247387
0.266966
0.285571
0.302876
0.318506
0.332039
0.343018
0.350964
0.355404
0.355879
0.351993
0.343599
0.330766
0.311592
0.283181
-0.213018
-0.241307
-0.260044
-0.272291
-0.280149
-0.283717
-0.283271
-0.279288
-0.272247
-0.262598
-0.250755
-0.23709
-0.221925
-0.205534
-0.188148
-0.169956
-0.151111
-0.131735
-0.111923
-0.091749
-0.0712648
-0.0505083
-0.0295039
-0.00826611
0.0131984
0.0348879
0.0568027
0.0789426
0.101303
0.123873
0.146627
0.169524
0.1925
0.215459
0.238271
0.260758
0.282688
0.303773
0.323654
0.341907
0.35804
0.371505
0.381712
0.388056
0.38994
0.386819
0.378435
0.364783
0.343629
0.311645
-0.246075
-0.277779
-0.298328
-0.311236
-0.31897
-0.321737
-0.319946
-0.314221
-0.305171
-0.293355
-0.279275
-0.263368
-0.246003
-0.227488
-0.208072
-0.187956
-0.167295
-0.146211
-0.124791
-0.103099
-0.0811772
-0.0590491
-0.0367247
-0.0142028
0.00852679
0.0314803
0.054677
0.0781367
0.101877
0.125906
0.150225
0.174814
0.199631
0.224603
0.249614
0.274498
0.299028
0.322901
0.345734
0.367052
0.386292
0.4028
0.415855
0.424694
0.428534
0.42664
0.418593
0.404267
0.381022
0.345015
-0.284445
-0.320021
-0.342476
-0.355871
-0.363128
-0.364619
-0.360938
-0.352901
-0.341284
-0.326779
-0.309989
-0.291423
-0.2715
-0.250559
-0.228865
-0.206623
-0.183988
-0.161073
-0.137953
-0.114679
-0.0912768
-0.0677527
-0.0440988
-0.0202946
0.00368969
0.0278911
0.052351
0.0771126
0.102217
0.127702
0.153592
0.1799
0.206611
0.233681
0.261022
0.288489
0.315866
0.342853
0.369047
0.393931
0.416864
0.437083
0.453713
0.465796
0.472317
0.472286
0.465055
0.450317
0.424913
0.384386
-0.329267
-0.369246
-0.393658
-0.407233
-0.413486
-0.413032
-0.406721
-0.395627
-0.380734
-0.362895
-0.342826
-0.321114
-0.298228
-0.274528
-0.250291
-0.225717
-0.200952
-0.176091
-0.151194
-0.126289
-0.101381
-0.0764551
-0.0514813
-0.0264167
-0.00120852
0.024204
0.049887
0.0759098
0.102342
0.129251
0.156696
0.184722
0.213355
0.242586
0.272365
0.302584
0.333053
0.363487
0.393479
0.422481
0.449783
0.474505
0.4956
0.511879
0.522034
0.524738
0.519023
0.504297
0.476739
0.431138
-0.38199
-0.427004
-0.453343
-0.466594
-0.471057
-0.467714
-0.457776
-0.442651
-0.423588
-0.401623
-0.377602
-0.352186
-0.325884
-0.299072
-0.272019
-0.244912
-0.217872
-0.190971
-0.164239
-0.137677
-0.111263
-0.0849539
-0.0586942
-0.0324149
-0.00603723
0.0205257
0.0473676
0.0745866
0.102284
0.13056
0.159513
0.189229
0.219777
0.2512
0.283498
0.316611
0.350397
0.384608
0.418854
0.452576
0.48501
0.515164
0.541809
0.563483
0.578521
0.585153
0.581959
0.56792
0.53833
0.487024
-0.444498
-0.49531
-0.523409
-0.535517
-0.537025
-0.529465
-0.514551
-0.494133
-0.469776
-0.442732
-0.413973
-0.384228
-0.354025
-0.323735
-0.293603
-0.26378
-0.234351
-0.205344
-0.176754
-0.148543
-0.120653
-0.093011
-0.0655289
-0.0381087
-0.0106432
0.0169832
0.0448935
0.0732169
0.102088
0.131646
0.162028
0.193369
0.225792
0.259399
0.294254
0.330366
0.367665
0.405962
0.44492
0.483999
0.522411
0.559073
0.592571
0.621146
0.642699
0.654888
0.655664
0.643361
0.612049
0.554308
-0.519298
-0.576846
-0.606283
-0.615933
-0.612751
-0.599102
-0.577402
-0.55006
-0.519024
-0.485769
-0.451381
-0.416629
-0.382029
-0.347912
-0.314469
-0.281791
-0.249901
-0.218774
-0.188348
-0.158539
-0.129247
-0.10036
-0.071754
-0.0432992
-0.0148576
0.0137165
0.0425766
0.0718843
0.10181
0.13253
0.164229
0.197094
0.231308
0.267043
0.304443
0.343608
0.384561
0.427216
0.471322
0.516408
0.561712
0.606102
0.648005
0.685354
0.715544
0.735513
0.742348
0.733408
0.701011
0.635979
-0.609849
-0.675271
-0.705152
-0.710217
-0.699759
-0.677388
-0.646479
-0.610143
-0.570747
-0.529977
-0.488989
-0.448536
-0.409068
-0.370827
-0.333906
-0.298304
-0.263957
-0.23076
-0.198585
-0.167288
-0.136718
-0.106718
-0.0771275
-0.0477807
-0.0185077
0.0108678
0.0405301
0.0706729
0.101502
0.133234
0.166102
0.200346
0.236219
0.27397
0.313841
0.356041
0.400721
0.447932
0.497568
0.549291
0.602437
0.655903
0.708023
0.756449
0.798025
0.828812
0.844731
0.841691
0.809416
0.736105
-0.721132
-0.795718
-0.824248
-0.821271
-0.799663
-0.764881
-0.721566
-0.67365
-0.623916
-0.574191
-0.525607
-0.478804
-0.434083
-0.391525
-0.351073
-0.312587
-0.275885
-0.240761
-0.207002
-0.174396
-0.142732
-0.111806
-0.0814145
-0.051357
-0.0214317
0.00856762
0.0388546
0.069654
0.101205
0.133766
0.167614
0.20305
0.240394
0.279986
0.322175
0.367303
0.415679
0.46754
0.522987
0.5819
0.643821
0.707796
0.772193
0.834479
0.890972
0.936716
0.966121
0.972981
0.943078
0.860456
-0.860707
-0.945598
-0.969228
-0.952541
-0.913988
-0.86167
-0.801803
-0.73918
-0.676889
-0.616726
-0.559627
-0.505969
-0.455781
-0.40889
-0.365017
-0.323838
-0.285015
-0.248221
-0.213142
-0.179486
-0.146981
-0.115369
-0.0844074
-0.0538605
-0.0234965
0.00691796
0.0376233
0.068872
0.100935
0.134105
0.168706
0.205095
0.243664
0.284846
0.329108
0.376943
0.42885
0.485299
0.546672
0.613172
0.684688
0.760601
0.839521
0.918947
0.994814
1.06113
1.11045
1.13359
1.11026
1.01764
-1.04076
-1.13587
-1.14762
-1.10791
-1.04378
-0.96693
-0.885302
-0.804372
-0.727213
-0.655261
-0.588973
-0.52824
-0.472655
-0.421675
-0.374724
-0.331237
-0.290692
-0.252617
-0.216588
-0.18223
-0.149204
-0.117205
-0.0859506
-0.0551735
-0.0246167
0.00597591
0.0368664
0.06833
0.100663
0.134191
0.169277
0.206329
0.24581
0.288245
0.334224
0.384403
0.439498
0.500258
0.567421
0.641636
0.723316
0.812425
0.908149
1.00841
1.10915
1.20355
1.28218
1.33182
1.32302
1.22128
-1.28233
-1.38304
-1.36909
-1.29113
-1.1888
-1.07815
-0.968549
-0.865504
-0.771401
-0.686746
-0.611089
-0.543538
-0.483049
-0.428585
-0.379188
-0.334014
-0.292329
-0.253507
-0.217012
-0.182385
-0.149229
-0.117192
-0.0859618
-0.0552465
-0.02477
0.00573948
0.0365587
0.0679786
0.100314
0.133914
0.169173
0.206543
0.24655
0.289803
0.337013
0.389002
0.446716
0.511221
0.583681
0.66531
0.757253
0.860379
0.974917
1.09986
1.23191
1.36422
1.48567
1.57825
1.59921
1.49448
-1.62401
-1.71211
-1.64492
-1.5041
-1.34574
-1.18975
-1.04548
-0.916968
-0.804682
-0.707326
-0.622968
-0.549573
-0.485254
-0.428361
-0.377501
-0.331522
-0.289475
-0.250585
-0.214213
-0.179829
-0.146987
-0.115305
-0.0844474
-0.05411
-0.024007
0.00614009
0.0366136
0.0677108
0.0997552
0.133109
0.168187
0.205474
0.245541
0.289069
0.336873
0.389933
0.449419
0.516726
0.593491
0.681597
0.783123
0.900203
1.03472
1.18768
1.35792
1.54021
1.72339
1.8851
1.96554
1.87895
-2.13726
-2.16029
-1.98611
-1.74383
-1.50551
-1.29125
-1.1065
-0.950873
-0.820955
-0.712474
-0.621348
-0.544054
-0.477696
-0.419949
-0.368978
-0.323336
-0.281887
-0.243733
-0.208157
-0.174584
-0.142541
-0.11163
-0.0815112
-0.0518795
-0.0224524
0.00704395
0.0368865
0.0673677
0.0988081
0.13157
0.166074
0.202817
0.242398
0.285544
0.333147
0.38631
0.446398
0.515109
0.59455
0.687318
0.796574
0.92606
1.07999
1.26259
1.47693
1.72267
1.99276
2.26434
2.46106
2.45014
-2.95208
-2.77711
-2.39976
-2.00025
-1.65226
-1.36728
-1.13924
-0.958136
-0.813942
-0.698049
-0.603621
-0.525426
-0.459522
-0.402956
-0.353515
-0.309532
-0.269744
-0.233185
-0.199106
-0.166918
-0.136151
-0.106416
-0.0773865
-0.0487727
-0.0203092
0.00826057
0.0371963
0.0667736
0.0972969
0.129114
0.162632
0.198342
0.236841
0.278868
0.325349
0.377455
0.436682
0.504956
0.584774
0.679394
0.793074
0.931368
1.10141
1.31204
1.57342
1.89553
2.28364
2.72356
3.13655
3.34195
-4.36427
-3.60226
-2.86109
-2.23963
-1.75486
-1.39373
-1.12723
-0.928431
-0.777577
-0.660753
-0.568209
-0.493138
-0.430774
-0.377743
-0.331632
-0.290691
-0.253634
-0.219504
-0.18758
-0.157305
-0.128243
-0.100042
-0.0724077
-0.045084
-0.0178358
0.00956332
0.0373439
0.0657526
0.095064
0.125595
0.157723
0.191905
0.228706
0.268835
0.313196
0.362951
0.419623
0.485225
0.562465
0.655039
0.76807
0.908761
1.08732
1.31817
1.6217
2.02576
2.56033
3.23609
4.03189
4.85834
-7.20261
-4.60406
-3.18847
-2.30739
-1.70594
-1.30105
-1.02677
-0.834517
-0.694707
-0.589535
-0.507782
-0.442181
-0.387926
-0.341768
-0.301458
-0.265412
-0.232498
-0.201889
-0.172975
-0.145297
-0.1185
-0.0923012
-0.0664691
-0.0408012
-0.0151123
0.0107778
0.0370549
0.0639195
0.091599
0.120359
0.150518
0.182468
0.216697
0.253823
0.294644
0.340197
0.391859
0.451486
0.521626
0.605866
0.709386
0.839891
1.00915
1.23569
1.55006
2.00277
2.66357
3.61737
5.11878
7.83451
-12.0717
-5.68782
-3.02586
-1.93363
-1.34426
-0.997247
-0.784539
-0.644325
-0.545102
-0.470915
-0.412871
-0.365603
-0.325704
-0.290928
-0.259749
-0.231107
-0.204256
-0.178664
-0.153949
-0.129827
-0.106088
-0.0825661
-0.059127
-0.0356522
-0.0120309
0.0118484
0.0361046
0.0608714
0.086304
0.112588
0.139949
0.168667
0.199097
0.231688
0.267021
0.305855
0.349196
0.398394
0.455307
0.52255
0.603938
0.705307
0.836094
1.01286
1.26775
1.66483
2.32095
3.50816
6.28637
12.7941
)
;

boundaryField
{
    movingWall
    {
        type            zeroGradient;
    }
    fixedWalls
    {
        type            zeroGradient;
    }
    frontAndBack
    {
        type            empty;
    }
}


// ************************************************************************* //
