/*--------------------------------*- C++ -*----------------------------------*\
  =========                 |
  \\      /  F ield         | OpenFOAM: The Open Source CFD Toolbox
   \\    /   O peration     | Website:  https://openfoam.org
    \\  /    A nd           | Version:  7
     \\/     M anipulation  |
\*---------------------------------------------------------------------------*/
FoamFile
{
    version     2.0;
    format      ascii;
    class       surfaceScalarField;
    location    "0.0134";
    object      phi;
}
// * * * * * * * * * * * * * * * * * * * * * * * * * * * * * * * * * * * * * //

dimensions      [0 3 -1 0 0 0 0];

internalField   nonuniform List<scalar> 
4900
(
7.45383e-10
-7.45434e-10
9.6322e-10
-2.17833e-10
-4.12278e-12
9.67343e-10
-2.20828e-09
2.20411e-09
-5.56782e-09
3.35951e-09
-9.89595e-09
4.32814e-09
-1.49875e-08
5.09153e-09
-2.06457e-08
5.65823e-09
-2.66906e-08
6.0449e-09
-3.29614e-08
6.27087e-09
-3.93172e-08
6.35579e-09
-4.56357e-08
6.31845e-09
-5.18118e-08
6.17616e-09
-5.77564e-08
5.94451e-09
-6.33936e-08
5.63728e-09
-6.86602e-08
5.26653e-09
-7.35028e-08
4.84261e-09
-7.78772e-08
4.37443e-09
-8.17468e-08
3.86956e-09
-8.50812e-08
3.33445e-09
-8.78559e-08
2.77465e-09
-9.00509e-08
2.195e-09
-9.16507e-08
1.5998e-09
-9.26437e-08
9.92963e-10
-9.30219e-08
3.78179e-10
-9.27809e-08
-2.40943e-10
-9.19201e-08
-8.60765e-10
-9.04426e-08
-1.47748e-09
-8.83556e-08
-2.08701e-09
-8.56708e-08
-2.68483e-09
-8.24049e-08
-3.2659e-09
-7.85804e-08
-3.82447e-09
-7.42265e-08
-4.35395e-09
-6.93797e-08
-4.84675e-09
-6.40856e-08
-5.29412e-09
-5.83995e-08
-5.68604e-09
-5.23885e-08
-6.01104e-09
-4.61323e-08
-6.25615e-09
-3.97254e-08
-6.40685e-09
-3.32783e-08
-6.44711e-09
-2.69188e-08
-6.35953e-09
-2.07931e-08
-6.12564e-09
-1.50666e-08
-5.72654e-09
-9.92256e-09
-5.14404e-09
-5.55951e-09
-4.36304e-09
-2.18263e-09
-3.37686e-09
2.36258e-11
-2.20623e-09
9.82678e-10
-9.5904e-10
7.52338e-10
2.3035e-10
7.52359e-10
2.27641e-10
-9.73076e-10
-1.27036e-09
1.28015e-09
-5.35557e-09
5.0526e-09
-1.22422e-08
9.09078e-09
-2.17463e-08
1.28636e-08
-3.35316e-08
1.61134e-08
-4.71802e-08
1.87401e-08
-6.22532e-08
2.07312e-08
-7.83246e-08
2.21163e-08
-9.49984e-08
2.29447e-08
-1.11916e-07
2.32735e-08
-1.28759e-07
2.31618e-08
-1.4525e-07
2.26669e-08
-1.61148e-07
2.18418e-08
-1.76245e-07
2.0735e-08
-1.90368e-07
1.93895e-08
-2.03369e-07
1.78428e-08
-2.15122e-07
1.61279e-08
-2.25525e-07
1.4273e-08
-2.34493e-07
1.23024e-08
-2.41956e-07
1.02375e-08
-2.47858e-07
8.09677e-09
-2.52155e-07
5.89686e-09
-2.54815e-07
3.65298e-09
-2.55816e-07
1.37949e-09
-2.55148e-07
-9.09609e-10
-2.52808e-07
-3.20021e-09
-2.48808e-07
-5.47762e-09
-2.43169e-07
-7.72613e-09
-2.35925e-07
-9.9285e-09
-2.27126e-07
-1.20655e-08
-2.16835e-07
-1.41155e-08
-2.05135e-07
-1.60537e-08
-1.9213e-07
-1.78519e-08
-1.77946e-07
-1.94779e-08
-1.62737e-07
-2.08951e-08
-1.46686e-07
-2.20621e-08
-1.30009e-07
-2.2933e-08
-1.12959e-07
-2.34569e-08
-9.58266e-08
-2.35794e-08
-7.89431e-08
-2.3243e-08
-6.2679e-08
-2.23898e-08
-4.74405e-08
-2.09651e-08
-3.36611e-08
-1.89234e-08
-2.17838e-08
-1.62403e-08
-1.22262e-08
-1.29344e-08
-5.31997e-09
-9.11248e-09
-1.23987e-09
-5.03914e-09
2.42054e-10
-1.25154e-09
9.94391e-10
-9.33051e-10
-4.00289e-11
-4.99547e-09
5.34249e-09
-1.28241e-08
1.28812e-08
-2.45176e-08
2.07843e-08
-3.9837e-08
2.8183e-08
-5.83386e-08
3.4615e-08
-7.947e-08
3.98714e-08
-1.02636e-07
4.38972e-08
-1.27243e-07
4.67238e-08
-1.52728e-07
4.84289e-08
-1.78568e-07
4.91137e-08
-2.04294e-07
4.88882e-08
-2.2949e-07
4.7863e-08
-2.53792e-07
4.61435e-08
-2.76884e-07
4.38273e-08
-2.98497e-07
4.10024e-08
-3.18402e-07
3.77473e-08
-3.36404e-07
3.41305e-08
-3.52344e-07
3.02122e-08
-3.66085e-07
2.60443e-08
-3.77521e-07
2.16727e-08
-3.86561e-07
1.71374e-08
-3.93139e-07
1.24746e-08
-3.97203e-07
7.71743e-09
-3.98721e-07
2.89733e-09
-3.97676e-07
-1.95524e-09
-3.94066e-07
-6.80951e-09
-3.8791e-07
-1.16335e-08
-3.79243e-07
-1.63933e-08
-3.6812e-07
-2.10515e-08
-3.54619e-07
-2.55669e-08
-3.38841e-07
-2.98931e-08
-3.20918e-07
-3.39773e-08
-3.0101e-07
-3.77599e-08
-2.79314e-07
-4.11731e-08
-2.56069e-07
-4.41406e-08
-2.31554e-07
-4.65769e-08
-2.06099e-07
-4.83879e-08
-1.80084e-07
-4.94715e-08
-1.53944e-07
-4.97196e-08
-1.28166e-07
-4.90213e-08
-1.03287e-07
-4.72689e-08
-7.98857e-08
-4.43662e-08
-5.85662e-08
-4.02429e-08
-3.9929e-08
-3.48776e-08
-2.45265e-08
-2.83369e-08
-1.27963e-08
-2.08427e-08
-4.96548e-09
-1.287e-08
-9.17367e-10
-5.29967e-09
7.69935e-11
-2.15255e-09
2.11255e-09
-9.02062e-09
1.22105e-08
-2.07501e-08
2.46107e-08
-3.72276e-08
3.72617e-08
-5.80798e-08
4.90352e-08
-8.27547e-08
5.929e-08
-1.10593e-07
6.77093e-08
-1.40885e-07
7.41893e-08
-1.72918e-07
7.87568e-08
-2.06004e-07
8.15158e-08
-2.39504e-07
8.26128e-08
-2.7283e-07
8.22142e-08
-3.05458e-07
8.04915e-08
-3.36926e-07
7.76119e-08
-3.66831e-07
7.37322e-08
-3.94825e-07
6.89961e-08
-4.2061e-07
6.35325e-08
-4.43935e-07
5.74556e-08
-4.64589e-07
5.08659e-08
-4.82396e-07
4.38512e-08
-4.97212e-07
3.64891e-08
-5.08923e-07
2.88481e-08
-5.17439e-07
2.099e-08
-5.22693e-07
1.29718e-08
-5.24643e-07
4.84737e-09
-5.23267e-07
-3.33089e-09
-5.18567e-07
-1.15102e-08
-5.10564e-07
-1.96358e-08
-4.99308e-07
-2.76495e-08
-4.84872e-07
-3.54878e-08
-4.67358e-07
-4.30806e-08
-4.46902e-07
-5.03492e-08
-4.23674e-07
-5.7205e-08
-3.97887e-07
-6.35479e-08
-3.69795e-07
-6.92649e-08
-3.39706e-07
-7.42296e-08
-3.07981e-07
-7.83019e-08
-2.7504e-07
-8.13286e-08
-2.41366e-07
-8.31455e-08
-2.07505e-07
-8.35814e-08
-1.74061e-07
-8.24644e-08
-1.41699e-07
-7.96316e-08
-1.1112e-07
-7.49445e-08
-8.30522e-08
-6.83111e-08
-5.82097e-08
-5.97201e-08
-3.72529e-08
-4.92937e-08
-2.07271e-08
-3.73685e-08
-8.99182e-09
-2.46053e-08
-2.14166e-09
-1.21498e-08
-2.06467e-09
-3.31374e-09
5.42631e-09
-1.28861e-08
2.17829e-08
-2.84129e-08
4.01375e-08
-4.94904e-08
5.83392e-08
-7.55632e-08
7.5108e-08
-1.0595e-07
8.96764e-08
-1.39884e-07
1.01644e-07
-1.7656e-07
1.10865e-07
-2.1517e-07
1.17367e-07
-2.54932e-07
1.21278e-07
-2.95113e-07
1.22793e-07
-3.35037e-07
1.22138e-07
-3.74096e-07
1.19551e-07
-4.1175e-07
1.15266e-07
-4.47524e-07
1.09507e-07
-4.81008e-07
1.0248e-07
-5.11849e-07
9.43729e-08
-5.39746e-07
8.53526e-08
-5.64447e-07
7.55669e-08
-5.85742e-07
6.51461e-08
-6.03458e-07
5.42055e-08
-6.17457e-07
4.28475e-08
-6.27633e-07
3.11651e-08
-6.33905e-07
1.92438e-08
-6.36222e-07
7.16465e-09
-6.34559e-07
-4.99345e-09
-6.28918e-07
-1.71511e-08
-6.19328e-07
-2.9226e-08
-6.05847e-07
-4.11309e-08
-5.88564e-07
-5.27709e-08
-5.67603e-07
-6.40412e-08
-5.43127e-07
-7.4825e-08
-5.15341e-07
-8.49909e-08
-4.84498e-07
-9.43913e-08
-4.50903e-07
-1.0286e-07
-4.14918e-07
-1.10214e-07
-3.76972e-07
-1.16248e-07
-3.37557e-07
-1.20744e-07
-2.97236e-07
-1.23466e-07
-2.56642e-07
-1.24176e-07
-2.16473e-07
-1.22633e-07
-1.77486e-07
-1.18618e-07
-1.40483e-07
-1.11948e-07
-1.06285e-07
-1.02509e-07
-7.57069e-08
-9.02981e-08
-4.95149e-08
-7.54857e-08
-2.8383e-08
-5.85004e-08
-1.28508e-08
-4.01375e-08
-3.29848e-09
-2.17021e-08
-5.36312e-09
-4.33521e-09
9.76149e-09
-1.64039e-08
3.38516e-08
-3.5489e-08
5.92226e-08
-6.08917e-08
8.37419e-08
-9.1851e-08
1.06067e-07
-1.27537e-07
1.25363e-07
-1.67072e-07
1.41178e-07
-2.09553e-07
1.53347e-07
-2.5409e-07
1.61903e-07
-2.9982e-07
1.67008e-07
-3.45935e-07
1.68908e-07
-3.91688e-07
1.67892e-07
-4.36405e-07
1.64267e-07
-4.79481e-07
1.58342e-07
-5.20387e-07
1.50413e-07
-5.58661e-07
1.40754e-07
-5.93905e-07
1.29616e-07
-6.25779e-07
1.17227e-07
-6.53997e-07
1.03785e-07
-6.7832e-07
8.94696e-08
-6.98553e-07
7.44384e-08
-7.14538e-07
5.88325e-08
-7.26153e-07
4.27799e-08
-7.33308e-07
2.63988e-08
-7.35944e-07
9.80131e-09
-7.34035e-07
-6.90338e-09
-7.2758e-07
-2.36055e-08
-7.16615e-07
-4.01915e-08
-7.01205e-07
-5.65408e-08
-6.81453e-07
-7.25229e-08
-6.575e-07
-8.79939e-08
-6.29531e-07
-1.02793e-07
-5.9778e-07
-1.16742e-07
-5.62532e-07
-1.29639e-07
-5.24133e-07
-1.41259e-07
-4.82993e-07
-1.51354e-07
-4.3959e-07
-1.59651e-07
-3.94476e-07
-1.65857e-07
-3.48279e-07
-1.69663e-07
-3.01702e-07
-1.70753e-07
-2.55518e-07
-1.68818e-07
-2.10561e-07
-1.63575e-07
-1.67714e-07
-1.54795e-07
-1.27886e-07
-1.42336e-07
-9.19879e-08
-1.26196e-07
-6.08989e-08
-1.06575e-07
-3.54402e-08
-8.3959e-08
-1.63546e-08
-5.92231e-08
-4.31379e-09
-3.37429e-08
-9.67688e-09
-5.21545e-09
1.49769e-08
-1.95328e-08
4.8169e-08
-4.1889e-08
8.15789e-08
-7.13095e-08
1.13162e-07
-1.06824e-07
1.41582e-07
-1.47446e-07
1.65984e-07
-1.92174e-07
1.85906e-07
-2.40009e-07
2.01183e-07
-2.89977e-07
2.11871e-07
-3.41143e-07
2.18175e-07
-3.92632e-07
2.20397e-07
-4.43638e-07
2.18897e-07
-4.93429e-07
2.14058e-07
-5.41351e-07
2.06264e-07
-5.86827e-07
1.95889e-07
-6.29355e-07
1.83282e-07
-6.68501e-07
1.68762e-07
-7.03893e-07
1.52618e-07
-7.35218e-07
1.3511e-07
-7.62214e-07
1.16466e-07
-7.84666e-07
9.68909e-08
-8.02402e-07
7.65687e-08
-8.15288e-07
5.56655e-08
-8.23225e-07
3.43355e-08
-8.26148e-07
1.27248e-08
-8.24027e-07
-9.02428e-09
-8.16864e-07
-3.07685e-08
-8.04696e-07
-5.236e-08
-7.87595e-07
-7.36418e-08
-7.65673e-07
-9.44442e-08
-7.39087e-07
-1.1458e-07
-7.08038e-07
-1.33842e-07
-6.72782e-07
-1.51999e-07
-6.33631e-07
-1.6879e-07
-5.90963e-07
-1.83927e-07
-5.45226e-07
-1.97092e-07
-4.96941e-07
-2.07937e-07
-4.46708e-07
-2.1609e-07
-3.95209e-07
-2.21162e-07
-3.43204e-07
-2.22757e-07
-2.91531e-07
-2.20491e-07
-2.41095e-07
-2.14012e-07
-1.92852e-07
-2.03037e-07
-1.47799e-07
-1.8739e-07
-1.06944e-07
-1.67051e-07
-7.12891e-08
-1.42229e-07
-4.18129e-08
-1.13435e-07
-1.94644e-08
-8.15715e-08
-5.18638e-09
-4.8021e-08
-1.48633e-08
-5.9763e-09
2.09532e-08
-2.23082e-08
6.45009e-08
-4.76557e-08
1.06926e-07
-8.07993e-08
1.46306e-07
-1.20568e-07
1.81351e-07
-1.65815e-07
2.11231e-07
-2.15411e-07
2.35502e-07
-2.68256e-07
2.54028e-07
-3.23289e-07
2.66903e-07
-3.79504e-07
2.7439e-07
-4.35962e-07
2.76856e-07
-4.91803e-07
2.74738e-07
-5.46245e-07
2.685e-07
-5.98592e-07
2.58611e-07
-6.48227e-07
2.45525e-07
-6.94615e-07
2.2967e-07
-7.37291e-07
2.11438e-07
-7.7586e-07
1.91187e-07
-8.09985e-07
1.69235e-07
-8.39389e-07
1.45869e-07
-8.63839e-07
1.21342e-07
-8.83153e-07
9.58824e-08
-8.97186e-07
6.96984e-08
-9.05833e-07
4.29821e-08
-9.09024e-07
1.59159e-08
-9.06726e-07
-1.13224e-08
-8.9894e-07
-3.85539e-08
-8.85706e-07
-6.55943e-08
-8.671e-07
-9.22478e-08
-8.43241e-07
-1.18303e-07
-8.14296e-07
-1.43526e-07
-7.80479e-07
-1.67659e-07
-7.42063e-07
-1.90415e-07
-6.99383e-07
-2.1147e-07
-6.52841e-07
-2.30469e-07
-6.02915e-07
-2.47017e-07
-5.50163e-07
-2.60689e-07
-4.95226e-07
-2.71027e-07
-4.38832e-07
-2.77556e-07
-3.81795e-07
-2.79795e-07
-3.2501e-07
-2.77275e-07
-2.69449e-07
-2.69573e-07
-2.16146e-07
-2.56341e-07
-1.66182e-07
-2.37353e-07
-1.20674e-07
-2.1256e-07
-8.07505e-08
-1.82152e-07
-4.75497e-08
-1.46636e-07
-2.22184e-08
-1.06903e-07
-5.93857e-09
-6.43008e-08
-2.08019e-08
-6.64454e-09
2.75978e-08
-2.47968e-08
8.26532e-08
-5.2897e-08
1.35027e-07
-8.95135e-08
1.82922e-07
-1.33288e-07
2.25126e-07
-1.82916e-07
2.60859e-07
-2.37139e-07
2.89724e-07
-2.94747e-07
3.11635e-07
-3.5459e-07
3.26747e-07
-4.15589e-07
3.35389e-07
-4.76743e-07
3.3801e-07
-5.37136e-07
3.35131e-07
-5.95943e-07
3.27306e-07
-6.52427e-07
3.15094e-07
-7.05938e-07
2.99036e-07
-7.55911e-07
2.79643e-07
-8.01859e-07
2.57386e-07
-8.43364e-07
2.32692e-07
-8.80074e-07
2.05946e-07
-9.11697e-07
1.77492e-07
-9.3799e-07
1.47635e-07
-9.5876e-07
1.16652e-07
-9.73855e-07
8.47938e-08
-9.83166e-07
5.22921e-08
-9.86617e-07
1.93674e-08
-9.84174e-07
-1.37657e-08
-9.75836e-07
-4.68915e-08
-9.61643e-07
-7.97872e-08
-9.41675e-07
-1.12216e-07
-9.16054e-07
-1.43924e-07
-8.84952e-07
-1.74628e-07
-8.48595e-07
-2.04016e-07
-8.07268e-07
-2.31742e-07
-7.61321e-07
-2.57417e-07
-7.11179e-07
-2.80611e-07
-6.57345e-07
-3.00852e-07
-6.00405e-07
-3.17628e-07
-5.4104e-07
-3.30392e-07
-4.8002e-07
-3.38577e-07
-4.18208e-07
-3.41607e-07
-3.56558e-07
-3.38924e-07
-2.9611e-07
-3.30021e-07
-2.37976e-07
-3.14475e-07
-1.83331e-07
-2.91998e-07
-1.33401e-07
-2.6249e-07
-8.94475e-08
-2.26106e-07
-5.27658e-08
-1.83318e-07
-2.46866e-08
-1.34982e-07
-6.59811e-09
-8.23893e-08
-2.74e-08
-7.24694e-09
3.48447e-08
-2.70757e-08
1.02482e-07
-5.77498e-08
1.65701e-07
-9.76529e-08
2.22825e-07
-1.45255e-07
2.72727e-07
-1.99096e-07
3.14701e-07
-2.57787e-07
3.48415e-07
-3.20005e-07
3.73854e-07
-3.84508e-07
3.9125e-07
-4.50137e-07
4.01018e-07
-5.15827e-07
4.037e-07
-5.80608e-07
3.99912e-07
-6.43608e-07
3.90307e-07
-7.04055e-07
3.7554e-07
-7.61267e-07
3.56249e-07
-8.14655e-07
3.33031e-07
-8.63709e-07
3.0644e-07
-9.07997e-07
2.7698e-07
-9.47154e-07
2.45103e-07
-9.80875e-07
2.11212e-07
-1.00891e-06
1.7567e-07
-1.03106e-06
1.38802e-07
-1.04717e-06
1.00901e-07
-1.05712e-06
6.22418e-08
-1.06083e-06
2.30828e-08
-1.05827e-06
-1.63235e-08
-1.04944e-06
-5.57237e-08
-1.03437e-06
-9.4856e-08
-1.01315e-06
-1.33442e-07
-9.8589e-07
-1.71182e-07
-9.52775e-07
-2.07742e-07
-9.14034e-07
-2.42757e-07
-8.69962e-07
-2.75814e-07
-8.2092e-07
-3.06458e-07
-7.6735e-07
-3.34181e-07
-7.09776e-07
-3.58426e-07
-6.48815e-07
-3.78589e-07
-5.85178e-07
-3.94029e-07
-5.19679e-07
-4.04076e-07
-4.53231e-07
-4.08055e-07
-3.86848e-07
-4.05307e-07
-3.2164e-07
-3.95229e-07
-2.58805e-07
-3.77311e-07
-1.99615e-07
-3.51187e-07
-1.45412e-07
-3.16693e-07
-9.75931e-08
-2.73925e-07
-5.76055e-08
-2.23305e-07
-2.69499e-08
-1.65638e-07
-7.19281e-09
-1.02146e-07
-3.45927e-08
-7.80852e-09
4.26532e-08
-2.9223e-08
1.23896e-07
-6.23596e-08
1.98837e-07
-1.05438e-07
2.65904e-07
-1.56767e-07
3.24056e-07
-2.14738e-07
3.72672e-07
-2.77826e-07
4.11503e-07
-3.44595e-07
4.40623e-07
-4.13703e-07
4.60358e-07
-4.83909e-07
4.71224e-07
-5.54077e-07
4.73868e-07
-6.23182e-07
4.69017e-07
-6.90306e-07
4.57431e-07
-7.54639e-07
4.39873e-07
-8.15471e-07
4.17081e-07
-8.72189e-07
3.89749e-07
-9.24266e-07
3.58518e-07
-9.71257e-07
3.23971e-07
-1.01278e-06
2.86631e-07
-1.04854e-06
2.46967e-07
-1.07826e-06
2.05396e-07
-1.10176e-06
1.62293e-07
-1.11885e-06
1.17998e-07
-1.12944e-06
7.28262e-08
-1.13343e-06
2.70752e-08
-1.13079e-06
-1.89651e-08
-1.12151e-06
-6.50033e-08
-1.10563e-06
-1.10738e-07
-1.08322e-06
-1.5585e-07
-1.05441e-06
-1.9999e-07
-1.01937e-06
-2.42777e-07
-9.78347e-07
-2.83784e-07
-9.31626e-07
-3.22536e-07
-8.79583e-07
-3.58501e-07
-8.22672e-07
-3.91092e-07
-7.61437e-07
-4.19661e-07
-6.96519e-07
-4.43507e-07
-6.28664e-07
-4.61884e-07
-5.58727e-07
-4.74013e-07
-4.87675e-07
-4.79107e-07
-4.16585e-07
-4.76397e-07
-3.46643e-07
-4.65171e-07
-2.79136e-07
-4.44818e-07
-2.15443e-07
-4.1488e-07
-1.57027e-07
-3.75109e-07
-1.05421e-07
-3.25531e-07
-6.22224e-08
-2.66504e-07
-2.90904e-08
-1.9877e-07
-7.74871e-09
-1.23488e-07
-4.23415e-08
-8.35205e-09
5.10053e-08
-3.13139e-08
1.46858e-07
-6.68711e-08
2.34395e-07
-1.13093e-07
3.12126e-07
-1.68134e-07
3.79097e-07
-2.30237e-07
4.34775e-07
-2.97744e-07
4.79009e-07
-3.69095e-07
5.11975e-07
-4.42846e-07
5.34108e-07
-5.17666e-07
5.46044e-07
-5.92346e-07
5.48549e-07
-6.65802e-07
5.42472e-07
-7.37067e-07
5.28696e-07
-8.05293e-07
5.08099e-07
-8.69743e-07
4.8153e-07
-9.29781e-07
4.49786e-07
-9.84864e-07
4.13602e-07
-1.03454e-06
3.73643e-07
-1.07842e-06
3.3051e-07
-1.11619e-06
2.84736e-07
-1.14759e-06
2.36797e-07
-1.17241e-06
1.87118e-07
-1.1905e-06
1.36086e-07
-1.20173e-06
8.40567e-08
-1.20602e-06
3.1366e-08
-1.20333e-06
-2.1659e-08
-1.19364e-06
-7.46898e-08
-1.17699e-06
-1.27386e-07
-1.15346e-06
-1.79386e-07
-1.12315e-06
-2.30295e-07
-1.08625e-06
-2.79678e-07
-1.04299e-06
-3.27049e-07
-9.93658e-07
-3.71864e-07
-9.38643e-07
-4.13516e-07
-8.78407e-07
-4.51328e-07
-8.13509e-07
-4.84559e-07
-7.44616e-07
-5.124e-07
-6.72507e-07
-5.33993e-07
-5.9808e-07
-5.4844e-07
-5.22358e-07
-5.54829e-07
-4.46488e-07
-5.52268e-07
-3.71737e-07
-5.39922e-07
-2.9949e-07
-5.17065e-07
-2.3124e-07
-4.8313e-07
-1.68575e-07
-4.37774e-07
-1.13169e-07
-3.80937e-07
-6.67695e-08
-3.12903e-07
-3.11869e-08
-2.34352e-07
-8.28961e-09
-1.46385e-07
-5.06311e-08
-8.89805e-09
5.99034e-08
-3.34186e-08
1.71379e-07
-7.14237e-08
2.724e-07
-1.20837e-07
3.61539e-07
-1.7966e-07
4.37921e-07
-2.45989e-07
5.01104e-07
-3.18023e-07
5.51043e-07
-3.94078e-07
5.8803e-07
-4.72598e-07
6.12628e-07
-5.52157e-07
6.25603e-07
-6.31468e-07
6.2786e-07
-7.09382e-07
6.20386e-07
-7.84882e-07
6.04196e-07
-8.57081e-07
5.80298e-07
-9.25212e-07
5.49661e-07
-9.88619e-07
5.13194e-07
-1.04675e-06
4.7173e-07
-1.09913e-06
4.26028e-07
-1.14539e-06
3.76763e-07
-1.18519e-06
3.24539e-07
-1.21828e-06
2.69891e-07
-1.24446e-06
2.13297e-07
-1.26356e-06
1.55187e-07
-1.27546e-06
9.59586e-08
-1.28008e-06
3.59846e-08
-1.27737e-06
-2.4372e-08
-1.26731e-06
-8.47471e-08
-1.24994e-06
-1.44763e-07
-1.22531e-06
-2.04015e-07
-1.19354e-06
-2.62064e-07
-1.15479e-06
-3.18421e-07
-1.1093e-06
-3.72539e-07
-1.05737e-06
-4.23803e-07
-9.99358e-07
-4.71523e-07
-9.35753e-07
-5.14933e-07
-8.67126e-07
-5.53186e-07
-7.94167e-07
-5.8536e-07
-7.17688e-07
-6.10472e-07
-6.38635e-07
-6.27493e-07
-5.5809e-07
-6.35374e-07
-4.77274e-07
-6.33084e-07
-3.97544e-07
-6.19652e-07
-3.20391e-07
-5.94217e-07
-2.47429e-07
-5.56092e-07
-1.80383e-07
-5.0482e-07
-1.21072e-07
-4.40248e-07
-7.13946e-08
-3.6258e-07
-3.33137e-08
-2.72433e-07
-8.83708e-09
-1.70862e-07
-5.94682e-08
-9.46511e-09
6.93685e-08
-3.56027e-08
1.97516e-07
-7.61492e-08
3.12946e-07
-1.28881e-07
4.14271e-07
-1.91644e-07
5.00684e-07
-2.6238e-07
5.7184e-07
-3.39141e-07
6.27804e-07
-4.20109e-07
6.68998e-07
-5.03608e-07
6.96127e-07
-5.88112e-07
7.10107e-07
-6.72249e-07
7.11997e-07
-7.54799e-07
7.02936e-07
-8.34693e-07
6.8409e-07
-9.11004e-07
6.56609e-07
-9.82935e-07
6.21593e-07
-1.04981e-06
5.80071e-07
-1.11107e-06
5.32987e-07
-1.16623e-06
4.81192e-07
-1.21492e-06
4.25446e-07
-1.2568e-06
3.66424e-07
-1.29163e-06
3.04721e-07
-1.3192e-06
2.40867e-07
-1.33935e-06
1.75337e-07
-1.35196e-06
1.08568e-07
-1.35694e-06
4.09678e-08
-1.35425e-06
-2.70676e-08
-1.34385e-06
-9.51401e-08
-1.32578e-06
-1.62836e-07
-1.30009e-06
-2.29712e-07
-1.26687e-06
-2.95282e-07
-1.22629e-06
-3.59004e-07
-1.17856e-06
-4.20268e-07
-1.12397e-06
-4.78387e-07
-1.06291e-06
-5.32585e-07
-9.95848e-07
-5.81996e-07
-9.23372e-07
-6.25662e-07
-8.46195e-07
-6.62537e-07
-7.65164e-07
-6.91503e-07
-6.81273e-07
-7.11383e-07
-5.95668e-07
-7.20979e-07
-5.09651e-07
-7.19101e-07
-4.24679e-07
-7.04624e-07
-3.42358e-07
-6.76539e-07
-2.64433e-07
-6.34017e-07
-1.92774e-07
-5.76479e-07
-1.29357e-07
-5.03665e-07
-7.62398e-08
-4.15697e-07
-3.55409e-08
-3.13132e-07
-9.41083e-09
-1.96992e-07
-6.8879e-08
-1.00703e-08
7.94388e-08
-3.79276e-08
2.25374e-07
-8.11736e-08
3.56192e-07
-1.37428e-07
4.70525e-07
-2.04374e-07
5.6763e-07
-2.79786e-07
6.47252e-07
-3.61561e-07
7.09579e-07
-4.47736e-07
7.55173e-07
-5.36507e-07
7.84898e-07
-6.26237e-07
7.99837e-07
-7.15463e-07
8.01223e-07
-8.02891e-07
7.90365e-07
-8.87396e-07
7.68595e-07
-9.68008e-07
7.37221e-07
-1.0439e-06
6.97488e-07
-1.11439e-06
6.50556e-07
-1.17889e-06
5.97486e-07
-1.23693e-06
5.39231e-07
-1.28812e-06
4.76639e-07
-1.33215e-06
4.10457e-07
-1.36878e-06
3.41344e-07
-1.39779e-06
2.6988e-07
-1.41904e-06
1.96585e-07
-1.4324e-06
1.21931e-07
-1.43779e-06
4.63586e-08
-1.43515e-06
-2.9705e-08
-1.42446e-06
-1.05831e-07
-1.40572e-06
-1.81574e-07
-1.37898e-06
-2.56453e-07
-1.34433e-06
-3.29938e-07
-1.3019e-06
-4.01433e-07
-1.2519e-06
-4.70266e-07
-1.19461e-06
-5.35673e-07
-1.13041e-06
-5.96788e-07
-1.05977e-06
-6.52639e-07
-9.83282e-07
-7.02148e-07
-9.01685e-07
-7.44134e-07
-8.1586e-07
-7.77327e-07
-7.26852e-07
-8.00391e-07
-6.35876e-07
-8.11955e-07
-5.44322e-07
-8.10655e-07
-4.53754e-07
-7.95192e-07
-3.65906e-07
-7.64387e-07
-2.82667e-07
-7.17256e-07
-2.06066e-07
-6.5308e-07
-1.38248e-07
-5.71483e-07
-8.14424e-08
-4.72502e-07
-3.79351e-08
-3.56639e-07
-1.00292e-08
-2.24898e-07
-7.89082e-08
-1.07297e-08
9.01685e-08
-4.0452e-08
2.55096e-07
-8.66182e-08
4.02358e-07
-1.46677e-07
5.30584e-07
-2.18131e-07
6.39084e-07
-2.98577e-07
7.27698e-07
-3.85739e-07
7.96741e-07
-4.77498e-07
8.46932e-07
-5.71909e-07
8.79309e-07
-6.67217e-07
8.95145e-07
-7.61859e-07
8.95864e-07
-8.54462e-07
8.82968e-07
-9.4384e-07
8.57974e-07
-1.02898e-06
8.22363e-07
-1.10904e-06
7.77542e-07
-1.1833e-06
7.24814e-07
-1.25118e-06
6.65366e-07
-1.3122e-06
6.0026e-07
-1.366e-06
5.30437e-07
-1.41226e-06
4.56719e-07
-1.45075e-06
3.79828e-07
-1.48127e-06
3.00397e-07
-1.50367e-06
2.18985e-07
-1.51783e-06
1.36098e-07
-1.52368e-06
5.22063e-08
-1.52115e-06
-3.22377e-08
-1.5102e-06
-1.16779e-07
-1.49083e-06
-2.00942e-07
-1.46307e-06
-2.84213e-07
-1.42699e-06
-3.66021e-07
-1.3827e-06
-4.45718e-07
-1.3304e-06
-5.22567e-07
-1.27035e-06
-5.95726e-07
-1.2029e-06
-6.64234e-07
-1.12853e-06
-7.27008e-07
-1.04785e-06
-7.82837e-07
-9.61588e-07
-8.30391e-07
-8.7068e-07
-8.68236e-07
-7.76218e-07
-8.94853e-07
-6.79491e-07
-9.08682e-07
-5.81983e-07
-9.08163e-07
-4.85378e-07
-8.91797e-07
-3.9155e-07
-8.58216e-07
-3.02547e-07
-8.06258e-07
-2.20575e-07
-7.35052e-07
-1.47965e-07
-6.44093e-07
-8.71375e-08
-5.3333e-07
-4.05614e-08
-4.03216e-07
-1.07099e-08
-2.54749e-07
-8.96181e-08
-1.14589e-08
1.01627e-07
-4.32335e-08
2.8687e-07
-9.26025e-08
4.51727e-07
-1.56822e-07
5.94804e-07
-2.33194e-07
7.15456e-07
-3.19117e-07
8.1362e-07
-4.12125e-07
8.89749e-07
-5.09925e-07
9.44732e-07
-6.10419e-07
9.79804e-07
-7.11721e-07
9.96447e-07
-8.1216e-07
9.96303e-07
-9.10281e-07
9.81088e-07
-1.00483e-06
9.52527e-07
-1.09477e-06
9.12295e-07
-1.1792e-06
8.61974e-07
-1.25741e-06
8.03026e-07
-1.32882e-06
7.36775e-07
-1.39296e-06
6.644e-07
-1.44946e-06
5.86937e-07
-1.49803e-06
5.0529e-07
-1.53845e-06
4.20244e-07
-1.57053e-06
3.3248e-07
-1.59414e-06
2.42595e-07
-1.60917e-06
1.51126e-07
-1.61553e-06
5.85656e-08
-1.61315e-06
-3.46121e-08
-1.602e-06
-1.27932e-07
-1.58205e-06
-2.20894e-07
-1.5533e-06
-3.12957e-07
-1.51581e-06
-4.0351e-07
-1.46967e-06
-4.91858e-07
-1.41504e-06
-5.77199e-07
-1.35216e-06
-6.58609e-07
-1.28136e-06
-7.3503e-07
-1.20311e-06
-8.05256e-07
-1.11802e-06
-8.67936e-07
-1.02683e-06
-9.21575e-07
-9.30511e-07
-9.64555e-07
-8.30208e-07
-9.95157e-07
-7.27286e-07
-1.0116e-06
-6.23335e-07
-1.01211e-06
-5.20167e-07
-9.94965e-07
-4.19812e-07
-9.58571e-07
-3.24497e-07
-9.01574e-07
-2.36624e-07
-8.22924e-07
-1.58734e-07
-7.21983e-07
-9.34618e-08
-5.98603e-07
-4.3485e-08
-4.53193e-07
-1.14704e-08
-2.86764e-07
-1.01089e-07
-1.22737e-08
1.13901e-07
-4.63303e-08
3.20927e-07
-9.9248e-08
5.04645e-07
-1.68062e-07
6.63618e-07
-2.49847e-07
7.97241e-07
-3.41776e-07
9.0555e-07
-4.41173e-07
9.89145e-07
-5.45549e-07
1.04911e-06
-6.52638e-07
1.08689e-06
-7.60409e-07
1.10422e-06
-8.67075e-07
1.10297e-06
-9.71092e-07
1.08511e-06
-1.07115e-06
1.05258e-06
-1.16614e-06
1.00729e-06
-1.25518e-06
9.51012e-07
-1.33753e-06
8.85376e-07
-1.41262e-06
8.11859e-07
-1.47998e-06
7.31765e-07
-1.53928e-06
6.46232e-07
-1.59023e-06
5.56247e-07
-1.63264e-06
4.62655e-07
-1.66635e-06
3.66186e-07
-1.69123e-06
2.67471e-07
-1.70717e-06
1.67071e-07
-1.7141e-06
6.54956e-08
-1.71195e-06
-3.67667e-08
-1.70065e-06
-1.39227e-07
-1.68017e-06
-2.41371e-07
-1.6505e-06
-3.42631e-07
-1.61165e-06
-4.42365e-07
-1.56367e-06
-5.39832e-07
-1.5067e-06
-6.34169e-07
-1.44094e-06
-7.24369e-07
-1.3667e-06
-8.09268e-07
-1.28443e-06
-8.87533e-07
-1.19471e-06
-9.57657e-07
-1.09831e-06
-1.01797e-06
-9.9623e-07
-1.06664e-06
-8.89658e-07
-1.10173e-06
-7.80045e-07
-1.12122e-06
-6.69092e-07
-1.12307e-06
-5.58754e-07
-1.1053e-06
-4.51232e-07
-1.06609e-06
-3.48955e-07
-1.00385e-06
-2.54547e-07
-9.17332e-07
-1.70788e-07
-8.05742e-07
-1.00558e-07
-6.68833e-07
-4.6774e-08
-5.06976e-07
-1.23292e-08
-3.21209e-07
-1.13418e-07
-1.31907e-08
1.27092e-07
-4.98033e-08
3.5754e-07
-1.06681e-07
5.61523e-07
-1.80603e-07
7.3754e-07
-2.68383e-07
8.8502e-07
-3.66937e-07
1.0041e-06
-4.73347e-07
1.09556e-06
-5.8491e-07
1.16067e-06
-6.99169e-07
1.20115e-06
-8.13936e-07
1.21898e-06
-9.27299e-07
1.21633e-06
-1.03762e-06
1.19543e-06
-1.14352e-06
1.15848e-06
-1.24386e-06
1.10763e-06
-1.33773e-06
1.04488e-06
-1.42439e-06
9.72038e-07
-1.50328e-06
8.90751e-07
-1.57397e-06
8.02455e-07
-1.63613e-06
7.08396e-07
-1.68953e-06
6.09645e-07
-1.73398e-06
5.07109e-07
-1.76936e-06
4.01561e-07
-1.79555e-06
2.93661e-07
-1.81247e-06
1.83987e-07
-1.82003e-06
7.3059e-08
-1.81817e-06
-3.86304e-08
-1.80681e-06
-1.50588e-07
-1.78589e-06
-2.6229e-07
-1.75536e-06
-3.73155e-07
-1.71521e-06
-4.82516e-07
-1.66545e-06
-5.8959e-07
-1.60617e-06
-6.93454e-07
-1.53752e-06
-7.93018e-07
-1.45977e-06
-8.87011e-07
-1.37334e-06
-9.73963e-07
-1.2788e-06
-1.0522e-06
-1.17692e-06
-1.11985e-06
-1.06871e-06
-1.17485e-06
-9.55412e-07
-1.21502e-06
-8.38567e-07
-1.23806e-06
-7.19992e-07
-1.24164e-06
-6.01797e-07
-1.2235e-06
-4.86376e-07
-1.18151e-06
-3.76384e-07
-1.11384e-06
-2.74701e-07
-1.01902e-06
-1.84377e-07
-8.96065e-07
-1.08578e-07
-7.44633e-07
-5.05016e-08
-5.65052e-07
-1.3306e-08
-3.58405e-07
-1.26724e-07
-1.42277e-08
1.41319e-07
-5.37185e-08
3.9703e-07
-1.15038e-07
6.22843e-07
-1.94666e-07
8.17168e-07
-2.89112e-07
9.79466e-07
-3.94998e-07
1.10999e-06
-5.09132e-07
1.20969e-06
-6.28565e-07
1.2801e-06
-7.50628e-07
1.32322e-06
-8.72962e-07
1.34132e-06
-9.93518e-07
1.33689e-06
-1.11056e-06
1.31247e-06
-1.22264e-06
1.27057e-06
-1.3286e-06
1.21359e-06
-1.4275e-06
1.14378e-06
-1.51862e-06
1.06316e-06
-1.60142e-06
9.73551e-07
-1.6755e-06
8.76535e-07
-1.74058e-06
7.73471e-07
-1.79644e-06
6.65512e-07
-1.84296e-06
5.53628e-07
-1.88003e-06
4.3863e-07
-1.90757e-06
3.212e-07
-1.92551e-06
2.01923e-07
-1.93377e-06
8.13202e-08
-1.93228e-06
-4.01222e-08
-1.92095e-06
-1.61917e-07
-1.89969e-06
-2.83545e-07
-1.86843e-06
-4.04419e-07
-1.82709e-06
-5.23854e-07
-1.77565e-06
-6.41035e-07
-1.71412e-06
-7.54982e-07
-1.64261e-06
-8.64525e-07
-1.56134e-06
-9.68281e-07
-1.47067e-06
-1.06463e-06
-1.37114e-06
-1.15173e-06
-1.26352e-06
-1.22747e-06
-1.14881e-06
-1.28956e-06
-1.02833e-06
-1.33551e-06
-9.03674e-07
-1.36271e-06
-7.76802e-07
-1.36851e-06
-6.49991e-07
-1.35031e-06
-5.25849e-07
-1.30566e-06
-4.07285e-07
-1.23241e-06
-2.9747e-07
-1.12883e-06
-1.99774e-07
-9.93762e-07
-1.1769e-07
-8.26717e-07
-5.47489e-08
-6.27993e-07
-1.44226e-08
-3.98731e-07
-1.41146e-07
-1.54048e-08
1.56724e-07
-5.81485e-08
4.39774e-07
-1.24468e-07
6.89162e-07
-2.1049e-07
9.0319e-07
-3.12369e-07
1.08135e-06
-4.26387e-07
1.22401e-06
-5.49038e-07
1.33234e-06
-6.77092e-07
1.40816e-06
-8.07646e-07
1.45377e-06
-9.3815e-07
1.47182e-06
-1.06641e-06
1.46515e-06
-1.19059e-06
1.43665e-06
-1.30919e-06
1.38916e-06
-1.421e-06
1.3254e-06
-1.52509e-06
1.24787e-06
-1.62078e-06
1.15884e-06
-1.70754e-06
1.06031e-06
-1.78503e-06
9.54023e-07
-1.853e-06
8.4145e-07
-1.91133e-06
7.23833e-07
-1.9599e-06
6.02198e-07
-1.99866e-06
4.77389e-07
-2.02756e-06
3.50101e-07
-2.04655e-06
2.20916e-07
-2.05557e-06
9.03429e-08
-2.05454e-06
-4.1151e-08
-2.04336e-06
-1.73098e-07
-2.02191e-06
-3.04996e-07
-1.99006e-06
-4.36266e-07
-1.9477e-06
-5.66218e-07
-1.89472e-06
-6.94011e-07
-1.83109e-06
-8.18618e-07
-1.75682e-06
-9.38789e-07
-1.67208e-06
-1.05303e-06
-1.57714e-06
-1.15957e-06
-1.47252e-06
-1.25635e-06
-1.35893e-06
-1.34106e-06
-1.23739e-06
-1.41109e-06
-1.10926e-06
-1.46365e-06
-9.76209e-07
-1.49576e-06
-8.40327e-07
-1.5044e-06
-7.04075e-07
-1.48656e-06
-5.70299e-07
-1.43943e-06
-4.422e-07
-1.36051e-06
-3.23281e-07
-1.24775e-06
-2.1728e-07
-1.09976e-06
-1.28082e-07
-9.15915e-07
-5.9607e-08
-6.96468e-07
-1.57043e-08
-4.42633e-07
-1.56851e-07
-1.67449e-08
1.73469e-07
-6.31753e-08
4.86205e-07
-1.35136e-07
7.61123e-07
-2.28338e-07
9.96392e-07
-3.3852e-07
1.19153e-06
-4.61566e-07
1.34705e-06
-5.93606e-07
1.46438e-06
-7.31096e-07
1.54565e-06
-8.70869e-07
1.59354e-06
-1.01017e-06
1.61112e-06
-1.14664e-06
1.60163e-06
-1.27836e-06
1.56836e-06
-1.40375e-06
1.51456e-06
-1.5216e-06
1.44325e-06
-1.631e-06
1.35727e-06
-1.73128e-06
1.25912e-06
-1.82198e-06
1.15102e-06
-1.90282e-06
1.03487e-06
-1.97364e-06
9.12263e-07
-2.03434e-06
7.84533e-07
-2.08489e-06
6.52754e-07
-2.1253e-06
5.17793e-07
-2.15554e-06
3.80348e-07
-2.17561e-06
2.40986e-07
-2.18546e-06
1.00187e-07
-2.18499e-06
-4.16156e-08
-2.1741e-06
-1.8399e-07
-2.15263e-06
-3.26467e-07
-2.1204e-06
-4.68492e-07
-2.07724e-06
-6.09384e-07
-2.02296e-06
-7.4829e-07
-1.95743e-06
-8.84143e-07
-1.8806e-06
-1.01562e-06
-1.79251e-06
-1.14112e-06
-1.69338e-06
-1.2587e-06
-1.58362e-06
-1.36611e-06
-1.46392e-06
-1.46076e-06
-1.33528e-06
-1.53973e-06
-1.19906e-06
-1.59987e-06
-1.05703e-06
-1.63779e-06
-9.11401e-07
-1.65003e-06
-7.64829e-07
-1.63313e-06
-6.20427e-07
-1.58383e-06
-4.81722e-07
-1.49921e-06
-3.52602e-07
-1.37687e-06
-2.37236e-07
-1.21513e-06
-1.39966e-07
-1.01319e-06
-6.51806e-08
-7.71254e-07
-1.71802e-08
-4.90634e-07
-1.74031e-07
-1.82742e-08
1.91743e-07
-6.88922e-08
5.36822e-07
-1.47231e-07
8.39461e-07
-2.48506e-07
1.09767e-06
-3.67965e-07
1.31099e-06
-5.0103e-07
1.48012e-06
-6.43412e-07
1.60676e-06
-7.91206e-07
1.69344e-06
-9.40953e-07
1.74329e-06
-1.08967e-06
1.75983e-06
-1.23484e-06
1.7468e-06
-1.37444e-06
1.70796e-06
-1.50685e-06
1.64697e-06
-1.63085e-06
1.56726e-06
-1.74556e-06
1.47198e-06
-1.85037e-06
1.36393e-06
-1.9449e-06
1.24555e-06
-2.02896e-06
1.11892e-06
-2.10245e-06
9.85752e-07
-2.16537e-06
8.4746e-07
-2.21778e-06
7.05163e-07
-2.25973e-06
5.59743e-07
-2.29127e-06
4.11886e-07
-2.31241e-06
2.62127e-07
-2.32312e-06
1.10903e-07
-2.32333e-06
-4.1407e-08
-2.3129e-06
-1.94427e-07
-2.29163e-06
-3.47739e-07
-2.25928e-06
-5.00832e-07
-2.21562e-06
-6.53053e-07
-2.16035e-06
-8.03552e-07
-2.09326e-06
-9.51238e-07
-2.01416e-06
-1.09472e-06
-1.92298e-06
-1.23229e-06
-1.81983e-06
-1.36185e-06
-1.70503e-06
-1.48091e-06
-1.57918e-06
-1.58661e-06
-1.44324e-06
-1.67568e-06
-1.29857e-06
-1.74454e-06
-1.147e-06
-1.78936e-06
-9.90881e-07
-1.80615e-06
-8.33075e-07
-1.79094e-06
-6.76982e-07
-1.73993e-06
-5.26498e-07
-1.6497e-06
-3.85953e-07
-1.51741e-06
-2.60021e-07
-1.34106e-06
-1.53584e-07
-1.11962e-06
-7.15894e-08
-8.53248e-07
-1.88838e-08
-5.4334e-07
-1.92915e-07
-2.00232e-08
2.11767e-07
-7.54056e-08
5.92205e-07
-1.60962e-07
9.25018e-07
-2.71319e-07
1.20802e-06
-4.01144e-07
1.44081e-06
-5.45314e-07
1.62429e-06
-6.9906e-07
1.76051e-06
-8.58068e-07
1.85245e-06
-1.01855e-06
1.90377e-06
-1.17728e-06
1.91856e-06
-1.33158e-06
1.9011e-06
-1.47932e-06
1.8557e-06
-1.61887e-06
1.78651e-06
-1.74901e-06
1.6974e-06
-1.86892e-06
1.59189e-06
-1.97808e-06
1.47309e-06
-2.07621e-06
1.34368e-06
-2.16321e-06
1.20592e-06
-2.2391e-06
1.06165e-06
-2.304e-06
9.12359e-07
-2.35804e-06
7.59205e-07
-2.40137e-06