/*--------------------------------*- C++ -*----------------------------------*\
  =========                 |
  \\      /  F ield         | OpenFOAM: The Open Source CFD Toolbox
   \\    /   O peration     | Website:  https://openfoam.org
    \\  /    A nd           | Version:  7
     \\/     M anipulation  |
\*---------------------------------------------------------------------------*/
FoamFile
{
    version     2.0;
    format      ascii;
    class       volVectorField;
    location    "0.0134";
    object      U;
}
// * * * * * * * * * * * * * * * * * * * * * * * * * * * * * * * * * * * * * //

dimensions      [0 1 -1 0 0 0 0];

internalField   nonuniform List<vector> 
2500
(
(2.28665e-05 -2.28744e-05 0)
(5.29912e-05 -1.72287e-05 0)
(3.77476e-05 4.25476e-06 0)
(-4.12978e-05 2.6621e-05 0)
(-0.000182899 4.71405e-05 0)
(-0.000377101 6.37821e-05 0)
(-0.000614641 7.64389e-05 0)
(-0.000885417 8.55355e-05 0)
(-0.00117988 9.15489e-05 0)
(-0.00148948 9.49243e-05 0)
(-0.00180665 9.60602e-05 0)
(-0.00212482 9.53061e-05 0)
(-0.00243832 9.29653e-05 0)
(-0.0027423 8.92984e-05 0)
(-0.00303267 8.45276e-05 0)
(-0.00330596 7.88414e-05 0)
(-0.00355926 7.23977e-05 0)
(-0.00379017 6.53287e-05 0)
(-0.00399667 5.77446e-05 0)
(-0.0041771 4.97373e-05 0)
(-0.0043301 4.13847e-05 0)
(-0.00445455 3.27538e-05 0)
(-0.00454958 2.39032e-05 0)
(-0.00461452 1.48859e-05 0)
(-0.00464887 5.75208e-06 0)
(-0.00465232 -3.44918e-06 0)
(-0.00462476 -1.26683e-05 0)
(-0.00456624 -2.1853e-05 0)
(-0.00447701 -3.09465e-05 0)
(-0.00435754 -3.98859e-05 0)
(-0.00420854 -4.85997e-05 0)
(-0.00403097 -5.70056e-05 0)
(-0.00382611 -6.50081e-05 0)
(-0.00359561 -7.24959e-05 0)
(-0.00334149 -7.9339e-05 0)
(-0.00306626 -8.53851e-05 0)
(-0.00277297 -9.04574e-05 0)
(-0.00246527 -9.43513e-05 0)
(-0.00214751 -9.68314e-05 0)
(-0.00182479 -9.76288e-05 0)
(-0.00150306 -9.64381e-05 0)
(-0.00118917 -9.29146e-05 0)
(-0.000890937 -8.66727e-05 0)
(-0.000617112 -7.72874e-05 0)
(-0.000377377 -6.43088e-05 0)
(-0.000181879 -4.73464e-05 0)
(-3.98186e-05 -2.6553e-05 0)
(3.90213e-05 -4.01342e-06 0)
(5.36664e-05 1.74973e-05 0)
(2.30577e-05 2.30201e-05 0)
(1.74999e-05 -5.31012e-05 0)
(1.56785e-06 -8.93069e-07 0)
(-0.000133175 0.000106493 0)
(-0.000407699 0.000221942 0)
(-0.000820556 0.000329604 0)
(-0.00135728 0.000421085 0)
(-0.00199821 0.000493993 0)
(-0.0027214 0.000548583 0)
(-0.00350492 0.00058613 0)
(-0.00432807 0.000608302 0)
(-0.00517193 0.000616877 0)
(-0.00601955 0.000613601 0)
(-0.00685604 0.000600107 0)
(-0.00766844 0.000577883 0)
(-0.00844563 0.000548255 0)
(-0.00917811 0.000512388 0)
(-0.00985784 0.000471292 0)
(-0.0104781 0.000425833 0)
(-0.0110331 0.000376754 0)
(-0.0115184 0.000324692 0)
(-0.0119299 0.000270194 0)
(-0.0122646 0.000213739 0)
(-0.01252 0.000155752 0)
(-0.0126943 9.66216e-05 0)
(-0.012786 3.67141e-05 0)
(-0.0127944 -2.36129e-05 0)
(-0.0127192 -8.39986e-05 0)
(-0.0125605 -0.000144067 0)
(-0.0123191 -0.000203413 0)
(-0.0119966 -0.000261593 0)
(-0.0115948 -0.000318109 0)
(-0.0111166 -0.000372396 0)
(-0.0105657 -0.000423806 0)
(-0.00994672 -0.000471599 0)
(-0.00926529 -0.00051492 0)
(-0.00852843 -0.000552794 0)
(-0.00774451 -0.000584109 0)
(-0.00692348 -0.000607612 0)
(-0.00607703 -0.00062191 0)
(-0.00521872 -0.000625474 0)
(-0.00436412 -0.000616663 0)
(-0.00353077 -0.000593764 0)
(-0.00273819 -0.000555067 0)
(-0.00200752 -0.000499013 0)
(-0.001361 -0.000424473 0)
(-0.000820667 -0.000331368 0)
(-0.000406061 -0.000222293 0)
(-0.000131306 -0.000105861 0)
(2.7415e-06 1.9009e-06 0)
(1.78566e-05 5.37869e-05 0)
(-3.26148e-06 -3.88463e-05 0)
(-0.000103892 0.000133179 0)
(-0.00039744 0.000400272 0)
(-0.000887608 0.000685234 0)
(-0.0015673 0.000952578 0)
(-0.00241894 0.00118418 0)
(-0.00341683 0.00137251 0)
(-0.00453156 0.00151603 0)
(-0.00573298 0.00161637 0)
(-0.00699191 0.00167669 0)
(-0.00828108 0.00170091 0)
(-0.00957566 0.00169312 0)
(-0.0108535 0.00165738 0)
(-0.0120951 0.00159749 0)
(-0.0132835 0.00151694 0)
(-0.0144042 0.00141883 0)
(-0.0154447 0.00130592 0)
(-0.0163946 0.00118059 0)
(-0.0172449 0.00104493 0)
(-0.0179884 0.000900729 0)
(-0.0186191 0.000749555 0)
(-0.0191319 0.000592783 0)
(-0.0195231 0.000431645 0)
(-0.0197897 0.000267267 0)
(-0.0199295 0.000100716 0)
(-0.0199414 -6.69698e-05 0)
(-0.019825 -0.000234745 0)
(-0.0195805 -0.000401522 0)
(-0.0192094 -0.000566136 0)
(-0.0187138 -0.000727317 0)
(-0.0180971 -0.000883646 0)
(-0.0173637 -0.00103353 0)
(-0.0165194 -0.00117514 0)
(-0.0155714 -0.00130642 0)
(-0.0145287 -0.00142501 0)
(-0.013402 -0.00152824 0)
(-0.0122042 -0.0016131 0)
(-0.0109507 -0.00167627 0)
(-0.00965895 -0.0017141 0)
(-0.00834945 -0.00172267 0)
(-0.00704522 -0.00169795 0)
(-0.00577196 -0.00163589 0)
(-0.00455772 -0.00153277 0)
(-0.00343232 -0.0013857 0)
(-0.0024263 -0.0011934 0)
(-0.00156923 -0.000957844 0)
(-0.000886641 -0.000687036 0)
(-0.000395675 -0.000399578 0)
(-0.000102641 -0.000131388 0)
(-2.86024e-06 4.00066e-05 0)
(-2.4952e-05 3.78592e-05 0)
(-0.000218127 0.000405981 0)
(-0.000682394 0.000890148 0)
(-0.00139297 0.0013932 0)
(-0.00233216 0.00186385 0)
(-0.00347781 0.00227395 0)
(-0.00479915 0.00261015 0)
(-0.00626123 0.00286842 0)
(-0.00782802 0.00305024 0)
(-0.00946422 0.00316016 0)
(-0.0111364 0.00320433 0)
(-0.0128139 0.00318962 0)
(-0.0144688 0.00312299 0)
(-0.0160766 0.00301118 0)
(-0.0176155 0.00286044 0)
(-0.019067 0.00267644 0)
(-0.0204148 0.00246426 0)
(-0.0216454 0.00222838 0)
(-0.0227472 0.00197269 0)
(-0.0237107 0.00170062 0)
(-0.0245279 0.00141516 0)
(-0.0251923 0.00111894 0)
(-0.0256989 0.000814359 0)
(-0.0260438 0.00050359 0)
(-0.0262243 0.000188702 0)
(-0.0262388 -0.000128291 0)
(-0.0260868 -0.000445364 0)
(-0.0257688 -0.000760414 0)
(-0.0252866 -0.0010712 0)
(-0.0246432 -0.00137528 0)
(-0.023843 -0.00166993 0)
(-0.0228918 -0.00195213 0)
(-0.0217974 -0.00221842 0)
(-0.0205691 -0.00246491 0)
(-0.0192187 -0.00268719 0)
(-0.0177601 -0.00288031 0)
(-0.0162099 -0.00303874 0)
(-0.0145877 -0.0031564 0)
(-0.012916 -0.00322677 0)
(-0.0112206 -0.00324295 0)
(-0.00953012 -0.00319796 0)
(-0.00787655 -0.00308507 0)
(-0.00629418 -0.00289844 0)
(-0.00481907 -0.00263399 0)
(-0.00348772 -0.0022909 0)
(-0.00233531 -0.00187392 0)
(-0.00139242 -0.0013972 0)
(-0.000680714 -0.000889695 0)
(-0.000217023 -0.000403409 0)
(-2.46868e-05 -3.60301e-05 0)
(-4.50458e-05 0.000176451 0)
(-0.000327098 0.000818775 0)
(-0.000957704 0.00157382 0)
(-0.00188206 0.00233512 0)
(-0.00306874 0.00304121 0)
(-0.0044891 0.00365613 0)
(-0.00610695 0.00416155 0)
(-0.0078823 0.00455105 0)
(-0.00977434 0.00482585 0)
(-0.011743 0.00499177 0)
(-0.0137503 0.00505726 0)
(-0.0157609 0.00503209 0)
(-0.0177426 0.00492644 0)
(-0.0196667 0.00475028 0)
(-0.0215078 0.00451306 0)
(-0.023244 0.00422345 0)
(-0.0248561 0.00388926 0)
(-0.026328 0.00351745 0)
(-0.0276458 0.00311414 0)
(-0.028798 0.00268473 0)
(-0.0297752 0.00223395 0)
(-0.0305696 0.00176603 0)
(-0.0311751 0.00128478 0)
(-0.0315871 0.000793694 0)
(-0.0318023 0.000296101 0)
(-0.0318188 -0.000204768 0)
(-0.031636 -0.00070566 0)
(-0.0312547 -0.0012032 0)
(-0.030677 -0.00169382 0)
(-0.0299066 -0.0021736 0)
(-0.0289487 -0.00263825 0)
(-0.0278106 -0.00308293 0)
(-0.0265012 -0.00350223 0)
(-0.025032 -0.00389004 0)
(-0.023417 -0.00423946 0)
(-0.0216726 -0.00454282 0)
(-0.0198187 -0.00479162 0)
(-0.0178781 -0.00497662 0)
(-0.0158773 -0.00508795 0)
(-0.0138462 -0.00511539 0)
(-0.0118181 -0.00504873 0)
(-0.00982957 -0.00487842 0)
(-0.00791973 -0.00459649 0)
(-0.00612948 -0.00419782 0)
(-0.0045002 -0.00368214 0)
(-0.0030721 -0.00305694 0)
(-0.00188122 -0.00234175 0)
(-0.000955625 -0.0015737 0)
(-0.000325705 -0.000815283 0)
(-4.46793e-05 -0.000173709 0)
(-6.19488e-05 0.000369026 0)
(-0.000424443 0.00136245 0)
(-0.0012102 0.00244231 0)
(-0.00233565 0.00350067 0)
(-0.00375484 0.00447102 0)
(-0.00543142 0.00531257 0)
(-0.00732307 0.0060036 0)
(-0.0093847 0.00653608 0)
(-0.0115711 0.00691126 0)
(-0.0138381 0.00713639 0)
(-0.0161439 0.00722236 0)
(-0.0184495 0.00718199 0)
(-0.0207191 0.00702886 0)
(-0.022921 0.00677649 0)
(-0.0250267 0.00643779 0)
(-0.0270115 0.00602473 0)
(-0.028854 0.00554821 0)
(-0.0305358 0.00501799 0)
(-0.0320413 0.00444272 0)
(-0.0333575 0.00383004 0)
(-0.0344736 0.00318673 0)
(-0.0353807 0.00251884 0)
(-0.036072 0.00183184 0)
(-0.0365422 0.00113077 0)
(-0.0367875 0.000420425 0)
(-0.0368058 -0.000294536 0)
(-0.0365965 -0.00100943 0)
(-0.0361604 -0.00171939 0)
(-0.0355 -0.00241929 0)
(-0.0346194 -0.00310352 0)
(-0.0335248 -0.00376592 0)
(-0.0322242 -0.00439963 0)
(-0.030728 -0.00499692 0)
(-0.0290491 -0.00554916 0)
(-0.0272033 -0.00604665 0)
(-0.0252094 -0.00647863 0)
(-0.0230894 -0.00683329 0)
(-0.0208692 -0.00709786 0)
(-0.0185782 -0.00725883 0)
(-0.0162497 -0.00730237 0)
(-0.0139206 -0.00721485 0)
(-0.0116314 -0.00698375 0)
(-0.00942516 -0.00659881 0)
(-0.00734691 -0.00605378 0)
(-0.00544255 -0.00534867 0)
(-0.00375748 -0.004493 0)
(-0.00233381 -0.0035101 0)
(-0.00120725 -0.00244239 0)
(-0.000422545 -0.00135781 0)
(-6.1437e-05 -0.000365378 0)
(-7.5836e-05 0.000609022 0)
(-0.000509402 0.00202489 0)
(-0.00143658 0.00348182 0)
(-0.00274809 0.00487502 0)
(-0.00438389 0.00613685 0)
(-0.00629941 0.00722453 0)
(-0.00844565 0.00811475 0)
(-0.0107721 0.008799 0)
(-0.0132291 0.00927924 0)
(-0.0157687 0.00956454 0)
(-0.0183456 0.00966847 0)
(-0.0209175 0.00960715 0)
(-0.023446 0.00939778 0)
(-0.0258965 0.00905766 0)
(-0.0282381 0.0086034 0)
(-0.030444 0.00805056 0)
(-0.0324908 0.00741336 0)
(-0.0343585 0.00670461 0)
(-0.03603 0.00593574 0)
(-0.0374909 0.00511689 0)
(-0.0387295 0.00425709 0)
(-0.0397361 0.00336441 0)
(-0.0405031 0.00244617 0)
(-0.0410247 0.00150914 0)
(-0.0412968 0.000559751 0)
(-0.041317 -0.000395742 0)
(-0.0410847 -0.00135105 0)
(-0.0406007 -0.00229966 0)
(-0.0398678 -0.00323469 0)
(-0.0388906 -0.00414866 0)
(-0.0376757 -0.00503333 0)
(-0.036232 -0.00587956 0)
(-0.0345709 -0.00667712 0)
(-0.0327064 -0.00741455 0)
(-0.0306559 -0.00807909 0)
(-0.0284398 -0.0086566 0)
(-0.0260823 -0.00913166 0)
(-0.0236114 -0.00948771 0)
(-0.0210591 -0.00970733 0)
(-0.0184616 -0.00977283 0)
(-0.0158588 -0.00966692 0)
(-0.0132945 -0.00937388 0)
(-0.0108153 -0.00888095 0)
(-0.00847038 -0.00818034 0)
(-0.00631008 -0.00727171 0)
(-0.00438527 -0.00616554 0)
(-0.00274476 -0.00488724 0)
(-0.0014324 -0.00348173 0)
(-0.000506838 -0.00201859 0)
(-7.51507e-05 -0.000604135 0)
(-8.7341e-05 0.000889892 0)
(-0.00058352 0.00279361 0)
(-0.00163877 0.00467757 0)
(-0.00312164 0.00644252 0)
(-0.00495914 0.00802241 0)
(-0.00709837 0.00937475 0)
(-0.0094834 0.0104765 0)
(-0.012058 0.0113198 0)
(-0.0147678 0.0119082 0)
(-0.0175611 0.0122532 0)
(-0.0203892 0.0123714 0)
(-0.0232069 0.0122827 0)
(-0.0259731 0.0120081 0)
(-0.028651 0.0115688 0)
(-0.0312077 0.0109856 0)
(-0.0336145 0.0102777 0)
(-0.0358464 0.00946285 0)
(-0.037882 0.00855726 0)
(-0.0397032 0.00757527 0)
(-0.0412945 0.00652971 0)
(-0.0426434 0.00543204 0)
(-0.0437396 0.0042925 0)
(-0.0445748 0.00312043 0)
(-0.0451428 0.00192446 0)
(-0.0454394 0.000712782 0)
(-0.0454619 -0.000506624 0)
(-0.0452096 -0.00172573 0)
(-0.0446834 -0.00293626 0)
(-0.0438861 -0.00412942 0)
(-0.0428228 -0.00529569 0)
(-0.0415003 -0.00642462 0)
(-0.0399283 -0.00750459 0)
(-0.0381187 -0.00852265 0)
(-0.0360867 -0.00946432 0)
(-0.0338507 -0.0103135 0)
(-0.0314326 -0.0110525 0)
(-0.0288583 -0.011662 0)
(-0.0261575 -0.0121213 0)
(-0.0233647 -0.0124089 0)
(-0.0205183 -0.012503 0)
(-0.0176611 -0.0123823 0)
(-0.01484 -0.0120276 0)
(-0.0121052 -0.0114232 0)
(-0.00950973 -0.0105592 0)
(-0.0071089 -0.0094342 0)
(-0.00495931 -0.00805837 0)
(-0.00311673 -0.0064575 0)
(-0.00163324 -0.00467685 0)
(-0.0005802 -0.00278503 0)
(-8.64575e-05 -0.00088334 0)
(-9.70935e-05 0.00120624 0)
(-0.000649063 0.00365768 0)
(-0.00182109 0.00601628 0)
(-0.00346275 0.00818921 0)
(-0.00548938 0.0101137 0)
(-0.00784004 0.0117492 0)
(-0.0104517 0.0130745 0)
(-0.0132623 0.0140836 0)
(-0.0162125 0.0147826 0)
(-0.0192465 0.0151862 0)
(-0.0223123 0.0153145 0)
(-0.0253618 0.0151914 0)
(-0.0283515 0.0148421 0)
(-0.0312424 0.0142924 0)
(-0.0339998 0.0135671 0)
(-0.0365934 0.0126895 0)
(-0.038997 0.0116811 0)
(-0.0411881 0.0105615 0)
(-0.0431475 0.00934838 0)
(-0.0448591 0.00805728 0)
(-0.0463097 0.00670223 0)
(-0.0474884 0.00529582 0)
(-0.0483866 0.00384948 0)
(-0.0489979 0.00237382 0)
(-0.0493176 0.000878875 0)
(-0.049343 -0.000625545 0)
(-0.0490733 -0.0021296 0)
(-0.0485093 -0.00362312 0)
(-0.047654 -0.00509532 0)
(-0.0465124 -0.00653453 0)
(-0.0450919 -0.00792794 0)
(-0.0434023 -0.00926132 0)
(-0.0414563 -0.0105188 0)
(-0.0392697 -0.0116827 0)
(-0.0368617 -0.0127334 0)
(-0.0342555 -0.0136493 0)
(-0.0314783 -0.014407 0)
(-0.0285617 -0.0149816 0)
(-0.0255419 -0.0153469 0)
(-0.0224598 -0.0154767 0)
(-0.0193609 -0.0153455 0)
(-0.016295 -0.0149301 0)
(-0.0133161 -0.0142114 0)
(-0.0104816 -0.0131767 0)
(-0.00785171 -0.0118226 0)
(-0.00548908 -0.0101578 0)
(-0.00345659 -0.00820715 0)
(-0.0018143 -0.00601457 0)
(-0.000644992 -0.00364617 0)
(-9.60025e-05 -0.00119758 0)
(-0.000105644 0.0015541 0)
(-0.000708433 0.00460857 0)
(-0.00198877 0.00748739 0)
(-0.00377976 0.010104 0)
(-0.00598629 0.0123998 0)
(-0.0085397 0.0143376 0)
(-0.0113699 0.0158987 0)
(-0.0144087 0.0170806 0)
(-0.0175917 0.0178926 0)
(-0.0208589 0.0183532 0)
(-0.0241546 0.018487 0)
(-0.0274278 0.0183221 0)
(-0.0306326 0.0178888 0)
(-0.0337278 0.0172173 0)
(-0.0366771 0.0163368 0)
(-0.0394489 0.0152751 0)
(-0.0420158 0.0140577 0)
(-0.0443543 0.0127078 0)
(-0.0464446 0.0112464 0)
(-0.0482699 0.00969202 0)
(-0.0498166 0.0080614 0)
(-0.0510734 0.00636952 0)
(-0.0520315 0.00463001 0)
(-0.0526841 0.00285549 0)
(-0.0530265 0.00105795 0)
(-0.0530557 -0.000750949 0)
(-0.0527707 -0.00255949 0)
(-0.0521724 -0.00435555 0)
(-0.0512638 -0.0061263 0)
(-0.0500499 -0.00785781 0)
(-0.048538 -0.00953481 0)
(-0.0467384 -0.0111403 0)
(-0.044664 -0.0126554 0)
(-0.0423312 -0.014059 0)
(-0.03976 -0.0153278 0)
(-0.0369743 -0.0164361 0)
(-0.0340027 -0.017356 0)
(-0.0308783 -0.0180579 0)
(-0.0276391 -0.0185111 0)
(-0.0243284 -0.0186843 0)
(-0.0209944 -0.0185473 0)
(-0.0176903 -0.0180725 0)
(-0.0144738 -0.0172367 0)
(-0.0114068 -0.0160237 0)
(-0.00855487 -0.0144272 0)
(-0.00598703 -0.0124536 0)
(-0.00377321 -0.0101255 0)
(-0.0019811 -0.00748456 0)
(-0.000703716 -0.00459361 0)
(-0.000104353 -0.0015429 0)
(-0.000113464 0.0019308 0)
(-0.000763947 0.00564039 0)
(-0.00214724 0.00908356 0)
(-0.00408177 0.0121794 0)
(-0.00646282 0.0148738 0)
(-0.00921437 0.0171334 0)
(-0.0122593 0.0189435 0)
(-0.0155232 0.0203055 0)
(-0.0189362 0.021233 0)
(-0.0224339 0.0217492 0)
(-0.0259567 0.0218836 0)
(-0.0294506 0.0216695 0)
(-0.0328671 0.0211423 0)
(-0.036163 0.0203372 0)
(-0.0393003 0.0192884 0)
(-0.0422461 0.0180283 0)
(-0.044972 0.0165866 0)
(-0.0474538 0.0149904 0)
(-0.049671 0.0132641 0)
(-0.0516066 0.0114294 0)
(-0.0532464 0.00950583 0)
(-0.054579 0.00751081 0)
(-0.0555954 0.00546024 0)
(-0.0562887 0.00336881 0)
(-0.0566539 0.00125044 0)
(-0.0566879 -0.000881311 0)
(-0.0563897 -0.00301282 0)
(-0.0557599 -0.00513 0)
(-0.0548015 -0.00721791 0)
(-0.0535192 -0.00926034 0)
(-0.0519206 -0.0112395 0)
(-0.0500158 -0.0131354 0)
(-0.0478179 -0.0149261 0)
(-0.0453437 -0.0165869 0)
(-0.0426137 -0.0180905 0)
(-0.0396527 -0.0194067 0)
(-0.0364903 -0.0205032 0)
(-0.033161 -0.0213453 0)
(-0.0297049 -0.0218969 0)
(-0.0261675 -0.0221216 0)
(-0.0225998 -0.0219839 0)
(-0.0190586 -0.021451 0)
(-0.0156057 -0.0204951 0)
(-0.0123079 -0.0190957 0)
(-0.0092365 -0.0172429 0)
(-0.0064669 -0.0149397 0)
(-0.00407618 -0.0122058 0)
(-0.00213936 -0.00907999 0)
(-0.00075879 -0.00562172 0)
(-0.000111995 -0.00191671 0)
(-0.000120951 0.00233489 0)
(-0.000817753 0.00674993 0)
(-0.00230183 0.010801 0)
(-0.0043779 0.0144118 0)
(-0.00693224 0.0175327 0)
(-0.00988164 0.0201347 0)
(-0.013142 0.0222076 0)
(-0.0166322 0.0237576 0)
(-0.0202771 0.0248035 0)
(-0.0240072 0.0253739 0)
(-0.027759 0.0255039 0)
(-0.0314752 0.0252327 0)
(-0.0351045 0.0246013 0)
(-0.0386017 0.0236506 0)
(-0.0419271 0.0224201 0)
(-0.0450465 0.0209469 0)
(-0.0479308 0.0192655 0)
(-0.0505549 0.0174069 0)
(-0.052898 0.0153993 0)
(-0.0549427 0.0132675 0)
(-0.0566749 0.011034 0)
(-0.0580828 0.00871865 0)
(-0.0591574 0.00633973 0)
(-0.0598916 0.00391396 0)
(-0.0602804 0.00145721 0)
(-0.0603206 -0.00101509 0)
(-0.060011 -0.00348744 0)
(-0.059352 -0.00594377 0)
(-0.0583462 -0.00836704 0)
(-0.0569984 -0.0107387 0)
(-0.0553157 -0.0130383 0)
(-0.0533083 -0.0152431 0)
(-0.0509893 -0.0173276 0)
(-0.0483755 -0.0192634 0)
(-0.0454879 -0.021019 0)
(-0.0423519 -0.0225596 0)
(-0.0389982 -0.0238478 0)
(-0.0354627 -0.0248435 0)
(-0.0317874 -0.0255049 0)
(-0.0280202 -0.0257896 0)
(-0.0242153 -0.0256564 0)
(-0.0204333 -0.0250668 0)
(-0.0167404 -0.0239875 0)
(-0.0132086 -0.022393 0)
(-0.00991539 -0.0202689 0)
(-0.00694281 -0.0176142 0)
(-0.00437517 -0.0144454 0)
(-0.00229467 -0.0107977 0)
(-0.000812463 -0.00672769 0)
(-0.000119342 -0.0023177 0)
(-0.000128447 0.00276599 0)
(-0.000871816 0.00793655 0)
(-0.00245755 0.0126393 0)
(-0.00467701 0.0168016 0)
(-0.0074076 0.0203779 0)
(-0.010559 0.0233438 0)
(-0.0140398 0.0256942 0)
(-0.0177623 0.0274407 0)
(-0.0216453 0.0286082 0)
(-0.0256142 0.0292313 0)
(-0.0296011 0.0293518 0)
(-0.0335453 0.0290152 0)
(-0.0373924 0.0282689 0)
(-0.0410952 0.0271599 0)
(-0.0446122 0.0257335 0)
(-0.0479082 0.0240321 0)
(-0.0509529 0.0220951 0)
(-0.053721 0.0199578 0)
(-0.0561913 0.0176521 0)
(-0.0583463 0.0152064 0)
(-0.0601716 0.012646 0)
(-0.0616557 0.0099934 0)
(-0.0627894 0.0072691 0)
(-0.0635658 0.0044919 0)
(-0.0639796 0.00167954 0)
(-0.0640276 -0.00115069 0)
(-0.0637083 -0.00398146 0)
(-0.0630219 -0.0067948 0)
(-0.0619706 -0.00957154 0)
(-0.0605589 -0.0122908 0)
(-0.0587937 -0.0149296 0)
(-0.0566846 -0.0174619 0)
(-0.0542447 -0.019859 0)
(-0.0514908 -0.0220884 0)
(-0.048444 -0.0241142 0)
(-0.0451304 -0.0258966 0)
(-0.0415814 -0.0273926 0)
(-0.0378345 -0.0285563 0)
(-0.0339337 -0.0293397 0)
(-0.0299294 -0.0296939 0)
(-0.0258793 -0.029571 0)
(-0.0218478 -0.0289262 0)
(-0.0179064 -0.0277198 0)
(-0.0141327 -0.0259208 0)
(-0.0106103 -0.0235094 0)
(-0.00742874 -0.0204803 0)
(-0.00467961 -0.0168458 0)
(-0.00245235 -0.0126382 0)
(-0.000866801 -0.00791142 0)
(-0.000126749 -0.00274567 0)
(-0.000136248 0.00322473 0)
(-0.000927928 0.00920202 0)
(-0.00261914 0.0146015 0)
(-0.00498754 0.0193532 0)
(-0.00790156 0.0234151 0)
(-0.0112635 0.0267676 0)
(-0.0149744 0.0294111 0)
(-0.0189395 0.0313632 0)
(-0.0230711 0.0326555 0)
(-0.0272893 0.0333299 0)
(-0.0315215 0.0334351 0)
(-0.0357029 0.0330242 0)
(-0.0397764 0.0321514 0)
(-0.0436922 0.0308706 0)
(-0.0474074 0.0292333 0)
(-0.0508853 0.0272878 0)
(-0.0540951 0.0250785 0)
(-0.0570109 0.0226455 0)
(-0.0596114 0.0200246 0)
(-0.0618792 0.0172479 0)
(-0.0637998 0.0143435 0)
(-0.0653621 0.0113366 0)
(-0.0665568 0.00824986 0)
(-0.0673771 0.00510419 0)
(-0.0678178 0.0019191 0)
(-0.0678754 -0.00128637 0)
(-0.0675482 -0.00449315 0)
(-0.0668361 -0.00768141 0)
(-0.0657409 -0.01083 0)
(-0.0642664 -0.0139156 0)
(-0.0624191 -0.0169127 0)
(-0.0602082 -0.0197921 0)
(-0.0576462 -0.0225215 0)
(-0.0547498 -0.0250642 0)
(-0.0515402 -0.0273795 0)
(-0.0480436 -0.0294224 0)
(-0.0442926 -0.0311438 0)
(-0.040326 -0.0324914 0)
(-0.0361897 -0.0334102 0)
(-0.031937 -0.0338442 0)
(-0.0276293 -0.0337382 0)
(-0.0233355 -0.0330399 0)
(-0.0191323 -0.0317028 0)
(-0.0151035 -0.0296893 0)
(-0.0113399 -0.0269736 0)
(-0.00793838 -0.0235454 0)
(-0.00499862 -0.0194131 0)
(-0.00261747 -0.0146058 0)
(-0.000923712 -0.00917538 0)
(-0.000134528 -0.00320145 0)
(-0.000144617 0.00371257 0)
(-0.000987751 0.0105504 0)
(-0.00279104 0.016694 0)
(-0.00531762 0.0220749 0)
(-0.00842635 0.0266544 0)
(-0.0120117 0.0304175 0)
(-0.0159668 0.0333704 0)
(-0.0201891 0.0355376 0)
(-0.0245842 0.0369582 0)
(-0.0290661 0.0376818 0)
(-0.0335571 0.0377655 0)
(-0.0379886 0.0372703 0)
(-0.0422999 0.0362584 0)
(-0.046439 0.034791 0)
(-0.050361 0.0329267 0)
(-0.0540284 0.03072 0)
(-0.0574095 0.0282208 0)
(-0.0604783 0.0254742 0)
(-0.0632134 0.0225204 0)
(-0.0655975 0.0193949 0)
(-0.0676167 0.016129 0)
(-0.0692598 0.0127505 0)
(-0.0705181 0.00928418 0)
(-0.0713846 0.0057529 0)
(-0.0718543 0.00217789 0)
(-0.0719236 -0.00142022 0)
(-0.0715905 -0.00502073 0)
(-0.0708545 -0.00860209 0)
(-0.0697167 -0.0121412 0)
(-0.0681804 -0.0156126 0)
(-0.0662511 -0.0189878 0)
(-0.0639374 -0.0222349 0)
(-0.0612513 -0.0253174 0)
(-0.0582089 -0.0281946 0)
(-0.0548311 -0.0308205 0)
(-0.0511446 -0.0331442 0)
(-0.0471825 -0.0351104 0)
(-0.042985 -0.0366595 0)
(-0.0386002 -0.0377289 0)
(-0.0340844 -0.0382545 0)
(-0.0295027 -0.0381728 0)
(-0.0249291 -0.0374235 0)
(-0.0204461 -0.0359521 0)
(-0.0161444 -0.0337134 0)
(-0.0121223 -0.0306754 0)
(-0.00848518 -0.0268221 0)
(-0.00534104 -0.0221576 0)
(-0.00279488 -0.0167082 0)
(-0.000984985 -0.0105245 0)
(-0.000142956 -0.00368682 0)
(-0.000153796 0.00423185 0)
(-0.00105285 0.0119879 0)
(-0.00297755 0.0189262 0)
(-0.00567506 0.0249788 0)
(-0.00899387 0.0301098 0)
(-0.0128199 0.034309 0)
(-0.0170375 0.0375887 0)
(-0.021536 0.0399808 0)
(-0.0262134 0.0415327 0)
(-0.0309771 0.042303 0)
(-0.0357441 0.0423578 0)
(-0.0404411 0.0417671 0)
(-0.0450043 0.040602 0)
(-0.0493789 0.0389319 0)
(-0.0535185 0.0368228 0)
(-0.0573843 0.0343364 0)
(-0.0609443 0.0315285 0)
(-0.0641723 0.0284495 0)
(-0.0670471 0.025144 0)
(-0.069552 0.0216513 0)
(-0.0716733 0.0180058 0)
(-0.0734004 0.014238 0)
(-0.074725 0.0103747 0)
(-0.0756404 0.00644049 0)
(-0.0761417 0.00245822 0)
(-0.0762251 -0.00155007 0)
(-0.0758884 -0.00556226 0)
(-0.0751304 -0.00955523 0)
(-0.0739516 -0.0135041 0)
(-0.0723543 -0.0173812 0)
(-0.0703432 -0.0211556 0)
(-0.0679258 -0.0247919 0)
(-0.0651132 -0.0282501 0)
(-0.0619205 -0.0314845 0)
(-0.0583685 -0.0344439 0)
(-0.0544837 -0.0370711 0)
(-0.0502997 -0.0393036 0)
(-0.0458581 -0.041074 0)
(-0.041209 -0.0423111 0)
(-0.036412 -0.0429419 0)
(-0.0315364 -0.0428937 0)
(-0.0266615 -0.0420968 0)
(-0.0218761 -0.0404878 0)
(-0.0172787 -0.0380133 0)
(-0.012976 -0.0346338 0)
(-0.00908251 -0.0303274 0)
(-0.00571564 -0.0250937 0)
(-0.00298931 -0.0189567 0)
(-0.00105235 -0.0119661 0)
(-0.000152297 -0.00420446 0)
(-0.000164016 0.00478565 0)
(-0.00112477 0.0135228 0)
(-0.00318285 0.0213108 0)
(-0.00606763 0.0280809 0)
(-0.00961594 0.0337999 0)
(-0.0137042 0.0384622 0)
(-0.0182072 0.0420868 0)
(-0.0230049 0.0447137 0)
(-0.0279871 0.0463995 0)
(-0.0330542 0.0472128 0)
(-0.0381172 0.0472298 0)
(-0.043098 0.0465307 0)
(-0.0479292 0.0451964 0)
(-0.0525533 0.0433054 0)
(-0.0569223 0.0409322 0)
(-0.0609965 0.0381458 0)
(-0.0647435 0.0350089 0)
(-0.0681373 0.0315772 0)
(-0.0711574 0.0279002 0)
(-0.0737873 0.0240211 0)
(-0.0760145 0.0199775 0)
(-0.0778289 0.0158022 0)
(-0.0792227 0.0115242 0)
(-0.0801899 0.00716968 0)
(-0.0807255 0.00276271 0)
(-0.0808258 -0.00167344 0)
(-0.080488 -0.00611544 0)
(-0.0797105 -0.0105389 0)
(-0.0784927 -0.0149172 0)
(-0.0768361 -0.0192209 0)
(-0.0747438 -0.0234163 0)
(-0.0722221 -0.027465 0)
(-0.0692807 -0.0313228 0)
(-0.0659338 -0.0349393 0)
(-0.0622011 -0.0382574 0)
(-0.058109 -0.0412132 0)
(-0.0536913 -0.0437362 0)
(-0.0489907 -0.0457504 0)
(-0.0440595 -0.0471752 0)
(-0.0389605 -0.0479273 0)
(-0.0337675 -0.0479237 0)
(-0.0285656 -0.0470841 0)
(-0.0234509 -0.0453351 0)
(-0.0185302 -0.0426139 0)
(-0.0139196 -0.0388727 0)
(-0.00974395 -0.0340833 0)
(-0.00613129 -0.0282405 0)
(-0.00320555 -0.021366 0)
(-0.00112753 -0.0135098 0)
(-0.000162809 -0.00475792 0)
(-0.000175509 0.00537787 0)
(-0.00120503 0.0151655 0)
(-0.00341121 0.0238633 0)
(-0.00650317 0.0314009 0)
(-0.0103045 0.0377472 0)
(-0.014681 0.0429014 0)
(-0.0194964 0.0468897 0)
(-0.0246205 0.049761 0)
(-0.0299339 0.0515824 0)
(-0.0353292 0.0524334 0)
(-0.0407109 0.0524018 0)
(-0.0459958 0.0515793 0)
(-0.0511126 0.0500575 0)
(-0.0560012 0.0479251 0)
(-0.0606122 0.0452661 0)
(-0.0649049 0.0421577 0)
(-0.0688472 0.0386694 0)
(-0.0724133 0.0348635 0)
(-0.0755836 0.0307941 0)
(-0.0783428 0.0265085 0)
(-0.0806792 0.0220475 0)
(-0.0825839 0.0174463 0)
(-0.0840498 0.0127357 0)
(-0.0850714 0.00794331 0)
(-0.0856442 0.0030942 0)
(-0.0857644 -0.00178747 0)
(-0.0854288 -0.00667749 0)
(-0.0846348 -0.0115504 0)
(-0.0833811 -0.0163784 0)
(-0.0816674 -0.0211301 0)
(-0.0794956 -0.0257695 0)
(-0.0768699 -0.030255 0)
(-0.0737986 -0.0345384 0)
(-0.0702941 -0.0385641 0)
(-0.0663749 -0.0422687 0)
(-0.0620665 -0.0455811 0)
(-0.0574028 -0.0484221 0)
(-0.0524274 -0.050706 0)
(-0.0471945 -0.0523416 0)
(-0.0417703 -0.0532342 0)
(-0.0362334 -0.053289 0)
(-0.0306752 -0.0524137 0)
(-0.0251998 -0.0505235 0)
(-0.0199232 -0.047545 0)
(-0.0149723 -0.0434213 0)
(-0.0104836 -0.0381166 0)
(-0.00659721 -0.0316212 0)
(-0.0034486 -0.0239546 0)
(-0.00121234 -0.0151677 0)
(-0.000174757 -0.00535164 0)
(-0.00018852 0.00601319 0)
(-0.00129528 0.0169286 0)
(-0.00366709 0.0266028 0)
(-0.00698988 0.0349625 0)
(-0.0110721 0.0419786 0)
(-0.015767 0.0476553 0)
(-0.0209263 0.0520266 0)
(-0.0264079 0.0551515 0)
(-0.0320825 0.0571086 0)
(-0.0378337 0.05799 0)
(-0.043559 0.0578966 0)
(-0.0491699 0.0569326 0)
(-0.054591 0.0552021 0)
(-0.0597597 0.0528052 0)
(-0.0646251 0.0498361 0)
(-0.0691463 0.0463809 0)
(-0.0732913 0.0425174 0)
(-0.0770354 0.0383138 0)
(-0.0803602 0.0338298 0)
(-0.0832518 0.0291168 0)
(-0.0857 0.0242186 0)
(-0.0876972 0.0191728 0)
(-0.0892375 0.0140119 0)
(-0.0903161 0.00876421 0)
(-0.0909291 0.00345576 0)
(-0.0910724 -0.00188885 0)
(-0.0907426 -0.00724494 0)
(-0.0899363 -0.0125864 0)
(-0.0886507 -0.0178845 0)
(-0.0868838 -0.0231063 0)
(-0.0846355 -0.0282137 0)
(-0.081908 -0.0331619 0)
(-0.078707 -0.0378987 0)
(-0.0750431 -0.042363 0)
(-0.0709327 -0.046485 0)
(-0.0664001 -0.0501853 0)
(-0.0614786 -0.0533755 0)
(-0.0562123 -0.0559589 0)
(-0.0506572 -0.0578325 0)
(-0.0448829 -0.0588887 0)
(-0.0389729 -0.0590192 0)
(-0.0330256 -0.0581181 0)
(-0.0271537 -0.0560875 0)
(-0.0214837 -0.0528418 0)
(-0.0161548 -0.0483137 0)
(-0.0113166 -0.0424594 0)
(-0.00712331 -0.0352638 0)
(-0.00372379 -0.0267446 0)
(-0.00130869 -0.0169545 0)
(-0.000188431 -0.005991 0)
(-0.000203316 0.00669713 0)
(-0.00139725 0.018827 0)
(-0.00395527 0.0295514 0)
(-0.00753654 0.0387934 0)
(-0.0119318 0.0465254 0)
(-0.0169802 0.052757 0)
(-0.0225191 0.057531 0)
(-0.0283935 0.0609175 0)
(-0.0344623 0.0630084 0)
(-0.0405997 0.0639102 0)
(-0.0466955 0.0637383 0)
(-0.0526552 0.0626114 0)
(-0.0583996 0.0606475 0)
(-0.0638637 0.0579595 0)
(-0.0689952 0.0546529 0)
(-0.0737535 0.0508239 0)
(-0.0781073 0.0465587 0)
(-0.0820335 0.0419325 0)
(-0.0855153 0.0370105 0)
(-0.0885409 0.0318483 0)
(-0.0911021 0.0264929 0)
(-0.0931929 0.0209838 0)
(-0.094809 0.0153548 0)
(-0.0959467 0.00963499 0)
(-0.0966025 0.00385059 0)
(-0.0967728 -0.00197379 0)
(-0.0964533 -0.00781348 0)
(-0.0956398 -0.0136423 0)
(-0.0943278 -0.0194308 0)
(-0.0925134 -0.0251452 0)
(-0.0901939 -0.0307453 0)
(-0.0873689 -0.0361835 0)
(-0.0840411 -0.0414033 0)
(-0.0802182 -0.0463384 0)
(-0.0759142 -0.0509118 0)
(-0.0711512 -0.0550352 0)
(-0.0659614 -0.05861 0)
(-0.0603888 -0.0615276 0)
(-0.0544909 -0.0636712 0)
(-0.0483403 -0.0649189 0)
(-0.042026 -0.0651467 0)
(-0.0356534 -0.0642334 0)
(-0.0293452 -0.0620658 0)
(-0.0232395 -0.0585445 0)
(-0.0174891 -0.0535899 0)
(-0.0122594 -0.0471492 0)
(-0.00772042 -0.0392014 0)
(-0.00403705 -0.0297625 0)
(-0.00141876 -0.0188876 0)
(-0.000204158 -0.00668243 0)
(-0.0002202 0.00743617 0)
(-0.00151292 0.020878 0)
(-0.00428106 0.032735 0)
(-0.00815273 0.0429256 0)
(-0.0128981 0.0514235 0)
(-0.0183397 0.0582442 0)
(-0.0242985 0.0634403 0)
(-0.0306045 0.067095 0)
(-0.0371038 0.0693151 0)
(-0.0436598 0.0702235 0)
(-0.050154 0.0699523 0)
(-0.0564858 0.0686369 0)
(-0.062572 0.0664107 0)
(-0.0683454 0.063401 0)
(-0.0737531 0.059726 0)
(-0.078755 0.0554931 0)
(-0.0833213 0.0507974 0)
(-0.0874311 0.0457219 0)
(-0.0910701 0.0403373 0)
(-0.094229 0.0347036 0)
(-0.0969022 0.0288706 0)
(-0.0990861 0.0228798 0)
(-0.100778 0.0167658 0)
(-0.101976 0.0105579 0)
(-0.102677 0.00428192 0)
(-0.102878 -0.00203798 0)
(-0.102574 -0.00837783 0)
(-0.10176 -0.0147118 0)
(-0.100429 -0.0210108 0)
(-0.0985754 -0.02724 0)
(-0.0961928 -0.0333581 0)
(-0.0932777 -0.0393147 0)
(-0.0898292 -0.0450493 0)
(-0.0858512 -0.0504899 0)
(-0.0813544 -0.055552 0)
(-0.0763578 -0.0601381 0)
(-0.0708917 -0.064138 0)
(-0.0649992 -0.0674296 0)
(-0.0587386 -0.0698812 0)
(-0.0521855 -0.071354 0)
(-0.045434 -0.0717065 0)
(-0.0385976 -0.0707994 0)
(-0.0318092 -0.068502 0)
(-0.0252204 -0.0646985 0)
(-0.0189996 -0.0592956 0)
(-0.01333 -0.0522294 0)
(-0.00840068 -0.0434726 0)
(-0.00439503 -0.0330391 0)
(-0.00154499 -0.0209875 0)
(-0.000222316 -0.0074335 0)
(-0.000239525 0.00823787 0)
(-0.0016445 0.0231017 0)
(-0.00465039 0.0361837 0)
(-0.00884913 0.047396 0)
(-0.0139867 0.0567137 0)
(-0.0198662 0.0641592 0)
(-0.0262897 0.0697963 0)
(-0.03307 0.0737232 0)
(-0.0400386 0.0760641 0)
(-0.0470471 0.0769608 0)
(-0.0539681 0.0765646 0)
(-0.0606946 0.0750297 0)
(-0.0671395 0.0725072 0)
(-0.0732339 0.0691407 0)
(-0.0789248 0.0650625 0)
(-0.0841735 0.0603922 0)
(-0.0889525 0.0552348 0)
(-0.093244 0.0496813 0)
(-0.0970368 0.0438085 0)
(-0.100325 0.0376805 0)
(-0.103107 0.03135 0)
(-0.105381 0.0248598 0)
(-0.107147 0.0182449 0)
(-0.108406 0.0115343 0)
(-0.109154 0.0047529 0)
(-0.10939 -0.00207661 0)
(-0.109108 -0.00893154 0)
(-0.108301 -0.0157873 0)
(-0.10696 -0.0226155 0)
(-0.105078 -0.0293815 0)
(-0.102644 -0.0360428 0)
(-0.09965 -0.042547 0)
(-0.0960912 -0.0488297 0)
(-0.0919666 -0.0548132 0)
(-0.0872822 -0.0604051 0)
(-0.0820533 -0.0654979 0)
(-0.0763066 -0.0699688 0)
(-0.0700836 -0.0736809 0)
(-0.0634427 -0.0764851 0)
(-0.0564617 -0.0782238 0)
(-0.0492399 -0.0787351 0)
(-0.0418989 -0.0778589 0)
(-0.0345832 -0.0754437 0)
(-0.0274591 -0.0713548 0)
(-0.0207131 -0.0654822 0)
(-0.0145488 -0.0577497 0)
(-0.0091777 -0.0481217 0)
(-0.0048053 -0.0366104 0)
(-0.00169021 -0.0232783 0)
(-0.000243353 -0.00825316 0)
(-0.000261703 0.00911098 0)
(-0.00179454 0.0255215 0)
(-0.00507 0.0399316 0)
(-0.00963768 0.0522463 0)
(-0.015215 0.0624421 0)
(-0.0215824 0.0705492 0)
(-0.0285198 0.0766447 0)
(-0.0358203 0.0808443 0)
(-0.0432991 0.0832927 0)
(-0.0507948 0.0841534 0)
(-0.0581702 0.0836001 0)
(-0.0653121 0.0818086 0)
(-0.0721298 0.0789501 0)
(-0.0785531 0.0751863 0)
(-0.08453 0.0706657 0)
(-0.090024 0.0655209 0)
(-0.0950112 0.0598679 0)