/*--------------------------------*- C++ -*----------------------------------*\
  =========                 |
  \\      /  F ield         | OpenFOAM: The Open Source CFD Toolbox
   \\    /   O peration     | Website:  https://openfoam.org
    \\  /    A nd           | Version:  7
     \\/     M anipulation  |
\*---------------------------------------------------------------------------*/
FoamFile
{
    version     2.0;
    format      ascii;
    class       volVectorField;
    location    "0.0128";
    object      U;
}
// * * * * * * * * * * * * * * * * * * * * * * * * * * * * * * * * * * * * * //

dimensions      [0 1 -1 0 0 0 0];

internalField   nonuniform List<vector> 
2500
(
(2.28538e-05 -2.28604e-05 0)
(5.2094e-05 -1.67402e-05 0)
(3.44041e-05 5.01393e-06 0)
(-4.71846e-05 2.77381e-05 0)
(-0.00019089 4.81104e-05 0)
(-0.000387061 6.45029e-05 0)
(-0.000625862 7.68875e-05 0)
(-0.000897042 8.56997e-05 0)
(-0.00119104 9.14326e-05 0)
(-0.00149934 9.45469e-05 0)
(-0.00181444 9.54526e-05 0)
(-0.00212988 9.45073e-05 0)
(-0.00244011 9.20184e-05 0)
(-0.00274045 8.82482e-05 0)
(-0.00302691 8.34179e-05 0)
(-0.00329618 7.77135e-05 0)
(-0.0035455 7.12893e-05 0)
(-0.00377256 6.4273e-05 0)
(-0.00397545 5.67705e-05 0)
(-0.00415261 4.88689e-05 0)
(-0.00430274 4.0642e-05 0)
(-0.00442482 3.21529e-05 0)
(-0.004518 2.34565e-05 0)
(-0.00458164 1.46028e-05 0)
(-0.0046153 5.63903e-06 0)
(-0.00461867 -3.38864e-06 0)
(-0.00459164 -1.24336e-05 0)
(-0.00453427 -2.14465e-05 0)
(-0.00444678 -3.03743e-05 0)
(-0.00432962 -3.91579e-05 0)
(-0.00418344 -4.77303e-05 0)
(-0.00400916 -5.60142e-05 0)
(-0.00380798 -6.39197e-05 0)
(-0.00358144 -7.13412e-05 0)
(-0.00333146 -7.81543e-05 0)
(-0.00306042 -8.4212e-05 0)
(-0.00277123 -8.93419e-05 0)
(-0.00246738 -9.33422e-05 0)
(-0.00215305 -9.59785e-05 0)
(-0.0018332 -9.69798e-05 0)
(-0.00151365 -9.60354e-05 0)
(-0.00120113 -9.2792e-05 0)
(-0.000903357 -8.68502e-05 0)
(-0.000629074 -7.77675e-05 0)
(-0.000387982 -6.50741e-05 0)
(-0.000190381 -4.83609e-05 0)
(-4.59834e-05 -2.76994e-05 0)
(3.55479e-05 -4.8496e-06 0)
(5.26736e-05 1.69593e-05 0)
(2.30214e-05 2.29698e-05 0)
(1.69728e-05 -5.21793e-05 0)
(-1.52098e-06 2.12849e-06 0)
(-0.000141004 0.000110649 0)
(-0.000420634 0.000226663 0)
(-0.00083794 0.000333664 0)
(-0.00137802 0.000423942 0)
(-0.0020206 0.00049537 0)
(-0.00274342 0.000548344 0)
(-0.00352445 0.000584265 0)
(-0.00434302 0.000604901 0)
(-0.00518038 0.00061211 0)
(-0.00601986 0.000607689 0)
(-0.00684686 0.000593306 0)
(-0.00764879 0.000570465 0)
(-0.00841489 0.000540492 0)
(-0.00913603 0.000504542 0)
(-0.00980452 0.000463605 0)
(-0.0104139 0.000418524 0)
(-0.0109589 0.000370016 0)
(-0.0114349 0.000318689 0)
(-0.0118384 0.000265063 0)
(-0.0121665 0.000209591 0)
(-0.0124167 0.000152676 0)
(-0.0125874 9.46814e-05 0)
(-0.0126772 3.5954e-05 0)
(-0.0126854 -2.31702e-05 0)
(-0.0126116 -8.2352e-05 0)
(-0.0124562 -0.000141238 0)
(-0.0122197 -0.000199447 0)
(-0.0119036 -0.000256563 0)
(-0.0115098 -0.000312117 0)
(-0.0110408 -0.000365577 0)
(-0.0105002 -0.000416329 0)
(-0.00989225 -0.000463665 0)
(-0.00922242 -0.000506765 0)
(-0.00849732 -0.000544682 0)
(-0.00772494 -0.000576328 0)
(-0.00691484 -0.000600462 0)
(-0.00607831 -0.000615689 0)
(-0.00522851 -0.000620464 0)
(-0.00438067 -0.000613107 0)
(-0.00355206 -0.000591843 0)
(-0.002762 -0.000554876 0)
(-0.0020316 -0.000500535 0)
(-0.00138321 -0.000427552 0)
(-0.000839219 -0.000335687 0)
(-0.000419793 -0.000227263 0)
(-0.00013961 -0.000110298 0)
(-6.21911e-07 -1.3128e-06 0)
(1.72331e-05 5.27287e-05 0)
(-4.10953e-06 -3.56444e-05 0)
(-0.000108221 0.000140911 0)
(-0.000407559 0.000410212 0)
(-0.000903694 0.000695331 0)
(-0.00158826 0.000960933 0)
(-0.00244289 0.00118951 0)
(-0.00344121 0.00137402 0)
(-0.00455342 0.00151333 0)
(-0.00574924 0.00160941 0)
(-0.00699954 0.0016657 0)
(-0.0082773 0.0016863 0)
(-0.00955808 0.00167549 0)
(-0.0108202 0.00163741 0)
(-0.0120446 0.00157591 0)
(-0.0132151 0.00149448 0)
(-0.0143175 0.00139621 0)
(-0.0153399 0.00128381 0)
(-0.0162724 0.0011596 0)
(-0.0171066 0.00102559 0)
(-0.0178354 0.000883512 0)
(-0.0184533 0.000734848 0)
(-0.0189555 0.000580904 0)
(-0.0193384 0.000422843 0)
(-0.0195993 0.00026173 0)
(-0.0197361 9.85659e-05 0)
(-0.0197477 -6.56709e-05 0)
(-0.0196336 -0.000229997 0)
(-0.0193943 -0.00039339 0)
(-0.019031 -0.000554757 0)
(-0.0185458 -0.000712901 0)
(-0.0179417 -0.000866489 0)
(-0.017223 -0.00101401 0)
(-0.016395 -0.00115374 0)
(-0.0154648 -0.00128369 0)
(-0.0144406 -0.00140161 0)
(-0.0133328 -0.00150489 0)
(-0.0121537 -0.00159059 0)
(-0.0109179 -0.0016554 0)
(-0.00964252 -0.00169566 0)
(-0.00834735 -0.00170743 0)
(-0.00705494 -0.00168653 0)
(-0.00579055 -0.00162875 0)
(-0.00458199 -0.00153016 0)
(-0.00345899 -0.00138753 0)
(-0.00245227 -0.00119926 0)
(-0.00159182 -0.000966851 0)
(-0.00090389 -0.000697809 0)
(-0.000406522 -0.000410111 0)
(-0.000107428 -0.000139447 0)
(-3.89831e-06 3.68811e-05 0)
(-2.60351e-05 4.3662e-05 0)
(-0.000222937 0.000418939 0)
(-0.000692846 0.000906131 0)
(-0.00140886 0.00140862 0)
(-0.00235185 0.00187578 0)
(-0.00349869 0.00228025 0)
(-0.00481792 0.00260945 0)
(-0.00627415 0.00286006 0)
(-0.00783123 0.00303413 0)
(-0.00945396 0.0031367 0)
(-0.0111093 0.00317431 0)
(-0.0127669 0.00315412 0)
(-0.0143997 0.00308328 0)
(-0.0159836 0.00296859 0)
(-0.0174977 0.00281635 0)
(-0.0189241 0.00263219 0)
(-0.0202473 0.00242111 0)
(-0.0214543 0.00218748 0)
(-0.0225341 0.00193506 0)
(-0.0234778 0.00166715 0)
(-0.0242776 0.00138658 0)
(-0.0249277 0.00109588 0)
(-0.0254232 0.000797285 0)
(-0.0257604 0.000492864 0)
(-0.0259368 0.00018456 0)
(-0.0259508 -0.000125732 0)
(-0.0258021 -0.000436109 0)
(-0.0254911 -0.000744594 0)
(-0.0250194 -0.00104908 0)
(-0.02439 -0.00134727 0)
(-0.0236068 -0.0016366 0)
(-0.0226756 -0.00191421 0)
(-0.0216033 -0.00217681 0)
(-0.0203991 -0.00242067 0)
(-0.0190739 -0.00264156 0)
(-0.017641 -0.00283463 0)
(-0.0161165 -0.00299447 0)
(-0.0145189 -0.00311506 0)
(-0.0128702 -0.00318982 0)
(-0.0111952 -0.00321176 0)
(-0.00952221 -0.00317369 0)
(-0.00788244 -0.00306858 0)
(-0.0063099 -0.00289016 0)
(-0.00484054 -0.00263382 0)
(-0.00351102 -0.00229809 0)
(-0.00235696 -0.00188698 0)
(-0.00140971 -0.00141383 0)
(-0.000691942 -0.000906758 0)
(-0.000221991 -0.000417063 0)
(-2.56976e-05 -4.1913e-05 0)
(-4.60552e-05 0.000184677 0)
(-0.00033145 0.000836523 0)
(-0.000966764 0.00159494 0)
(-0.00189499 0.00235444 0)
(-0.00308322 0.0030546 0)
(-0.00450181 0.00366058 0)
(-0.00611387 0.00415511 0)
(-0.00787901 0.00453279 0)
(-0.00975634 0.0047957 0)
(-0.011706 0.00495038 0)
(-0.0136904 0.00500588 0)
(-0.0156746 0.00497239 0)
(-0.0176274 0.00486037 0)
(-0.0195208 0.00467996 0)
(-0.0213303 0.00444064 0)
(-0.0230347 0.00415102 0)
(-0.0246157 0.00381881 0)
(-0.0260578 0.0034508 0)
(-0.027348 0.0030529 0)
(-0.0284754 0.0026303 0)
(-0.029431 0.00218753 0)
(-0.0302074 0.00172859 0)
(-0.030799 0.00125708 0)
(-0.0312014 0.000776317 0)
(-0.0314115 0.000289417 0)
(-0.0314275 -0.000200574 0)
(-0.0312488 -0.0006906 0)
(-0.0308763 -0.00117749 0)
(-0.0303117 -0.00165789 0)
(-0.0295587 -0.00212811 0)
(-0.0286222 -0.0025841 0)
(-0.0275089 -0.0030213 0)
(-0.0262273 -0.00343454 0)
(-0.0247883 -0.00381797 0)
(-0.023205 -0.00416495 0)
(-0.0214933 -0.00446799 0)
(-0.0196719 -0.00471876 0)
(-0.017763 -0.00490806 0)
(-0.0157921 -0.00502599 0)
(-0.013788 -0.00506216 0)
(-0.0117835 -0.00500605 0)
(-0.00981446 -0.00484763 0)
(-0.00791951 -0.00457828 0)
(-0.0061394 -0.00419209 0)
(-0.00451562 -0.00368786 0)
(-0.0030888 -0.00307201 0)
(-0.00189575 -0.00236291 0)
(-0.000965603 -0.00159652 0)
(-0.00033035 -0.000834312 0)
(-4.56939e-05 -0.000182542 0)
(-6.27762e-05 0.000379434 0)
(-0.000427805 0.00138401 0)
(-0.00121661 0.00246686 0)
(-0.00234349 0.00352147 0)
(-0.00376103 0.00448273 0)
(-0.00543192 0.00531132 0)
(-0.00731318 0.00598691 0)
(-0.00935939 0.0065028 0)
(-0.0115253 0.0068614 0)
(-0.0137671 0.00707095 0)
(-0.0160433 0.00714312 0)
(-0.0183157 0.00709133 0)
(-0.0205495 0.00692955 0)
(-0.0227136 0.00667153 0)
(-0.0247806 0.00633022 0)
(-0.0267269 0.00591755 0)
(-0.0285318 0.00544423 0)
(-0.0301778 0.0049198 0)
(-0.0316503 0.00435263 0)
(-0.0329367 0.00375006 0)
(-0.0340269 0.00311858 0)
(-0.0349127 0.00246391 0)
(-0.0355874 0.00179123 0)
(-0.0360461 0.00110532 0)
(-0.0362853 0.00041066 0)
(-0.036303 -0.00028835 0)
(-0.0360986 -0.000987309 0)
(-0.0356729 -0.00168166 0)
(-0.0350282 -0.00236656 0)
(-0.0341684 -0.00303676 0)
(-0.0330992 -0.00368643 0)
(-0.0318283 -0.00430908 0)
(-0.0303654 -0.00489735 0)
(-0.0287228 -0.00544298 0)
(-0.0269153 -0.0059366 0)
(-0.0249608 -0.00636774 0)
(-0.0228805 -0.00672478 0)
(-0.0206991 -0.00699505 0)
(-0.0184451 -0.00716498 0)
(-0.0161507 -0.00722048 0)
(-0.013852 -0.00714751 0)
(-0.0115886 -0.00693289 0)
(-0.00940308 -0.00656549 0)
(-0.00734025 -0.00603798 0)
(-0.00544601 -0.0053491 0)
(-0.00376612 -0.00450696 0)
(-0.00234343 -0.0035334 0)
(-0.00121471 -0.0024693 0)
(-0.000426316 -0.00138116 0)
(-6.2327e-05 -0.000376569 0)
(-7.64424e-05 0.000621009 0)
(-0.000511457 0.00204871 0)
(-0.00143946 0.00350739 0)
(-0.00274927 0.00489408 0)
(-0.00437949 0.00614291 0)
(-0.00628463 0.00721289 0)
(-0.00841513 0.00808249 0)
(-0.0107202 0.00874483 0)
(-0.0131503 0.00920334 0)
(-0.0156579 0.00946834 0)
(-0.0181981 0.0095544 0)
(-0.0207296 0.0094784 0)
(-0.0232149 0.00925807 0)
(-0.0256204 0.00891096 0)
(-0.0279163 0.00845378 0)
(-0.0300768 0.007902 0)
(-0.0320795 0.00726961 0)
(-0.0339055 0.00656913 0)
(-0.0355384 0.00581162 0)
(-0.0369647 0.00500683 0)
(-0.0381733 0.00416338 0)
(-0.039155 0.00328893 0)
(-0.0399028 0.00239041 0)
(-0.040411 0.0014742 0)
(-0.040676 0.000546361 0)
(-0.0406956 -0.000387233 0)
(-0.0404689 -0.00132067 0)
(-0.0399969 -0.00224784 0)
(-0.0392822 -0.00316227 0)
(-0.0383291 -0.00405693 0)
(-0.0371437 -0.00492404 0)
(-0.0357344 -0.00575496 0)
(-0.034112 -0.00653992 0)
(-0.0322898 -0.00726798 0)
(-0.0302841 -0.00792679 0)
(-0.0281144 -0.00850261 0)
(-0.0258038 -0.00898028 0)
(-0.0233792 -0.00934333 0)
(-0.0208714 -0.0095743 0)
(-0.0183154 -0.00965516 0)
(-0.0157502 -0.00956808 0)
(-0.0132187 -0.0092965 0)
(-0.0107668 -0.00882656 0)
(-0.00844326 -0.00814908 0)
(-0.00629846 -0.00726214 0)
(-0.00438353 -0.00617445 0)
(-0.0027479 -0.00490952 0)
(-0.00143647 -0.00351038 0)
(-0.000509376 -0.00204477 0)
(-7.58434e-05 -0.000617117 0)
(-8.7704e-05 0.000902702 0)
(-0.000584068 0.00281777 0)
(-0.00163754 0.00470123 0)
(-0.00311508 0.006456 0)
(-0.0049425 0.00801817 0)
(-0.00706609 0.00934738 0)
(-0.00942943 0.0104227 0)
(-0.0119761 0.0112382 0)
(-0.0146521 0.0117993 0)
(-0.0174061 0.012119 0)
(-0.02019 0.0122152 0)
(-0.0229597 0.0121084 0)
(-0.0256751 0.0118205 0)
(-0.0283005 0.0113731 0)
(-0.0308042 0.0107869 0)
(-0.0331587 0.010081 0)
(-0.03534 0.00927308 0)
(-0.0373279 0.00837876 0)
(-0.039105 0.00741198 0)
(-0.0406569 0.00638509 0)
(-0.0419717 0.005309 0)
(-0.0430395 0.00419346 0)
(-0.0438529 0.00304729 0)
(-0.0444058 0.00187864 0)
(-0.0446943 0.000695213 0)
(-0.044716 -0.000495493 0)
(-0.04447 -0.00168594 0)
(-0.0439573 -0.00286836 0)
(-0.0431807 -0.00403448 0)
(-0.0421446 -0.00517537 0)
(-0.0408556 -0.00628116 0)
(-0.0393227 -0.00734085 0)
(-0.0375573 -0.0083421 0)
(-0.0355736 -0.00927106 0)
(-0.033389 -0.0101122 0)
(-0.0310244 -0.0108483 0)
(-0.0285043 -0.0114603 0)
(-0.0258575 -0.0119278 0)
(-0.0231169 -0.0122291 0)
(-0.0203198 -0.012342 0)
(-0.0175079 -0.0122446 0)
(-0.014727 -0.0119167 0)
(-0.0120266 -0.0113411 0)
(-0.00945924 -0.0105065 0)
(-0.00707993 -0.00940925 0)
(-0.00494551 -0.00805758 0)
(-0.0031123 -0.00647497 0)
(-0.00163331 -0.00470436 0)
(-0.000581294 -0.00281216 0)
(-8.69225e-05 -0.000897414 0)
(-9.72024e-05 0.00121905 0)
(-0.000647989 0.00368003 0)
(-0.00181539 0.00603475 0)
(-0.00344775 0.00819285 0)
(-0.0054594 0.010094 0)
(-0.00778871 0.0117003 0)
(-0.0103723 0.0129927 0)
(-0.013148 0.0139677 0)
(-0.016057 0.0146335 0)
(-0.0190441 0.0150065 0)
(-0.0220579 0.0151083 0)
(-0.0250515 0.0149638 0)
(-0.0279826 0.0145991 0)
(-0.0308133 0.0140403 0)
(-0.0335103 0.0133122 0)
(-0.0360446 0.012438 0)
(-0.038391 0.011439 0)
(-0.0405283 0.0103343 0)
(-0.0424382 0.00914078 0)
(-0.0441055 0.0078736 0)
(-0.0455178 0.00654609 0)
(-0.0466648 0.0051702 0)
(-0.0475385 0.00375674 0)
(-0.0481329 0.0023157 0)
(-0.0484435 0.000856539 0)
(-0.0484678 -0.000611541 0)
(-0.0482051 -0.0020793 0)
(-0.0476561 -0.0035372 0)
(-0.0468237 -0.00497511 0)
(-0.0457125 -0.00638207 0)
(-0.0443294 -0.00774599 0)
(-0.0426836 -0.00905339 0)
(-0.0407871 -0.0102892 0)
(-0.0386548 -0.0114364 0)
(-0.0363049 -0.0124762 0)
(-0.0337593 -0.0133875 0)
(-0.031044 -0.0141474 0)
(-0.0281892 -0.014731 0)
(-0.0252298 -0.0151123 0)
(-0.0222051 -0.0152644 0)
(-0.0191596 -0.0151612 0)
(-0.0161419 -0.0147781 0)
(-0.013205 -0.0140946 0)
(-0.0104057 -0.0130959 0)
(-0.00780378 -0.0117763 0)
(-0.00546209 -0.0101422 0)
(-0.00344388 -0.00821555 0)
(-0.00181002 -0.0060377 0)
(-0.000644523 -0.00367216 0)
(-9.62283e-05 -0.00121196 0)
(-0.000105498 0.00156605 0)
(-0.000705685 0.00462681 0)
(-0.0019784 0.00749714 0)
(-0.00375592 0.0100932 0)
(-0.0059423 0.0123593 0)
(-0.00846833 0.0142607 0)
(-0.0112638 0.0157821 0)
(-0.0142604 0.016923 0)
(-0.0173946 0.0176955 0)
(-0.0206068 0.0181201 0)
(-0.0238423 0.0182228 0)
(-0.0270515 0.0180333 0)
(-0.0301896 0.0175825 0)
(-0.0332168 0.016901 0)
(-0.0360983 0.0160183 0)
(-0.0388036 0.0149619 0)
(-0.0413067 0.0137569 0)
(-0.0435852 0.012426 0)
(-0.0456205 0.0109893 0)
(-0.0473967 0.0094648 0)
(-0.0489009 0.00786838 0)
(-0.0501226 0.00621429 0)
(-0.0510535 0.0045154 0)
(-0.0516873 0.00278363 0)
(-0.0520195 0.00103022 0)
(-0.0520473 -0.000733877 0)
(-0.05177 -0.00249766 0)
(-0.0511881 -0.00424976 0)
(-0.0503046 -0.00597814 0)
(-0.0491241 -0.00766972 0)
(-0.0476535 -0.00931009 0)
(-0.0459024 -0.0108832 0)
(-0.0438829 -0.012371 0)
(-0.0416105 -0.0137534 0)
(-0.039104 -0.0150078 0)
(-0.0363862 -0.0161093 0)
(-0.0334842 -0.0170306 0)
(-0.0304296 -0.0177423 0)
(-0.0272592 -0.0182134 0)
(-0.0240145 -0.0184124 0)
(-0.0207423 -0.0183081 0)
(-0.0174947 -0.0178714 0)
(-0.0143281 -0.0170775 0)
(-0.0113038 -0.0159078 0)
(-0.00848684 -0.0143533 0)
(-0.00594608 -0.0124176 0)
(-0.00375176 -0.0101203 0)
(-0.00197226 -0.00749984 0)
(-0.000701631 -0.00461621 0)
(-0.000104339 -0.00155676 0)
(-0.000113068 0.00194104 0)
(-0.000759514 0.00565216 0)
(-0.00213213 0.00908095 0)
(-0.00404886 0.0121495 0)
(-0.00640442 0.0148066 0)
(-0.00912235 0.0170222 0)
(-0.0121256 0.0187848 0)
(-0.0153398 0.0200986 0)
(-0.0186959 0.02098 0)
(-0.0221304 0.0214544 0)
(-0.0255847 0.0215532 0)
(-0.0290063 0.0213113 0)
(-0.0323478 0.0207646 0)
(-0.0355677 0.0199491 0)
(-0.0386295 0.0188991 0)
(-0.0415016 0.0176465 0)
(-0.044157 0.0162208 0)
(-0.0465726 0.0146482 0)
(-0.0487293 0.0129523 0)
(-0.0506108 0.0111541 0)
(-0.0522039 0.00927213 0)
(-0.053498 0.00732291 0)
(-0.0544845 0.00532148 0)
(-0.055157 0.00328169 0)
(-0.0555109 0.0012166 0)
(-0.0555433 -0.000861048 0)
(-0.0552531 -0.0029385 0)
(-0.0546411 -0.00500256 0)
(-0.0537099 -0.00703919 0)
(-0.052464 -0.00903319 0)
(-0.0509105 -0.0109677 0)
(-0.0490587 -0.0128241 0)
(-0.0469212 -0.0145812 0)
(-0.0445134 -0.0162155 0)
(-0.0418549 -0.0177007 0)
(-0.0389692 -0.0190075 0)
(-0.0358842 -0.0201041 0)
(-0.0326332 -0.0209562 0)
(-0.0292543 -0.0215276 0)
(-0.0257916 -0.0217815 0)
(-0.0222946 -0.0216812 0)
(-0.0188185 -0.0211925 0)
(-0.015424 -0.0202855 0)
(-0.0121768 -0.0189372 0)
(-0.00914755 -0.0171346 0)
(-0.00641146 -0.0148775 0)
(-0.0040457 -0.0121821 0)
(-0.00212584 -0.00908378 0)
(-0.000755069 -0.00563863 0)
(-0.000111746 -0.00192923 0)
(-0.000120314 0.00234255 0)
(-0.000811647 0.00675286 0)
(-0.00228194 0.0107823 0)
(-0.00433583 0.0143578 0)
(-0.00685919 0.017433 0)
(-0.00976857 0.0199825 0)
(-0.01298 0.0219995 0)
(-0.0164128 0.0234935 0)
(-0.0199926 0.0244863 0)
(-0.0236511 0.025009 0)
(-0.0273259 0.0250989 0)
(-0.0309611 0.0247966 0)
(-0.0345071 0.0241441 0)
(-0.0379202 0.0231829 0)
(-0.0411622 0.0219524 0)
(-0.0442007 0.0204895 0)
(-0.0470075 0.0188281 0)
(-0.0495593 0.0169984 0)
(-0.0518362 0.0150276 0)
(-0.053822 0.0129396 0)
(-0.0555032 0.0107557 0)
(-0.056869 0.00849495 0)
(-0.0579109 0.00617446 0)
(-0.0586223 0.00381001 0)
(-0.0589986 0.0014165 0)
(-0.0590367 -0.000991607 0)
(-0.0587355 -0.00339978 0)
(-0.0580955 -0.00579299 0)
(-0.057119 -0.00815524 0)
(-0.0558105 -0.0104691 0)
(-0.0541766 -0.0127154 0)
(-0.0522268 -0.0148726 0)
(-0.0499734 -0.0169164 0)
(-0.0474322 -0.0188198 0)
(-0.0446229 -0.0205523 0)
(-0.0415696 -0.0220802 0)
(-0.0383014 -0.0233668 0)
(-0.0348527 -0.0243723 0)
(-0.0312635 -0.0250551 0)
(-0.0275801 -0.0253723 0)
(-0.023855 -0.0252814 0)
(-0.0201471 -0.0247423 0)
(-0.0165212 -0.0237193 0)
(-0.0130483 -0.0221843 0)
(-0.00980482 -0.0201192 0)
(-0.00687244 -0.0175198 0)
(-0.00433544 -0.0143982 0)
(-0.00227638 -0.0107862 0)
(-0.0008071 -0.00673655 0)
(-0.000118865 -0.00232804 0)
(-0.000127577 0.00277023 0)
(-0.000864051 0.00792825 0)
(-0.00243289 0.0126007 0)
(-0.0046257 0.0167186 0)
(-0.00731974 0.0202397 0)
(-0.0104245 0.0231437 0)
(-0.0138491 0.0254292 0)
(-0.0175063 0.0271114 0)
(-0.0213158 0.0282184 0)
(-0.0252043 0.0287878 0)
(-0.0291055 0.0288635 0)
(-0.0329599 0.0284927 0)
(-0.0367152 0.0277238 0)
(-0.0403256 0.0266044 0)
(-0.0437514 0.0251798 0)
(-0.0469589 0.023492 0)
(-0.0499193 0.0215795 0)
(-0.0526088 0.019477 0)
(-0.0550072 0.0172151 0)
(-0.0570981 0.0148212 0)
(-0.0588682 0.0123192 0)
(-0.0603065 0.00973071 0)
(-0.0614047 0.00707488 0)
(-0.0621562 0.00436944 0)
(-0.0625561 0.00163107 0)
(-0.0626015 -0.00112406 0)
(-0.0622909 -0.00387972 0)
(-0.0616245 -0.0066191 0)
(-0.0606045 -0.00932426 0)
(-0.0592348 -0.0119756 0)
(-0.057522 -0.0145515 0)
(-0.055475 -0.0170274 0)
(-0.053106 -0.0193759 0)
(-0.0504308 -0.0215661 0)
(-0.0474692 -0.0235633 0)
(-0.0442459 -0.0253291 0)
(-0.0407906 -0.0268213 0)
(-0.0371392 -0.0279944 0)
(-0.0333336 -0.0288004 0)
(-0.0294226 -0.0291902 0)
(-0.0254617 -0.0291145 0)
(-0.0215137 -0.0285265 0)
(-0.0176484 -0.0273844 0)
(-0.0139421 -0.0256538 0)
(-0.0104774 -0.0233112 0)
(-0.00734298 -0.0203472 0)
(-0.00463038 -0.0167701 0)
(-0.00242922 -0.0126077 0)
(-0.000859785 -0.00790982 0)
(-0.000126051 -0.002753 0)
(-0.000135151 0.0032247 0)
(-0.000918512 0.0091801 0)
(-0.00258967 0.0145393 0)
(-0.00492691 0.0192361 0)
(-0.00779867 0.0232323 0)
(-0.0111073 0.0265126 0)
(-0.0147544 0.0290814 0)
(-0.018646 0.0309603 0)
(-0.0226956 0.0321846 0)
(-0.0268245 0.0327989 0)
(-0.0309619 0.0328547 0)
(-0.0350448 0.0324065 0)
(-0.0390177 0.03151 0)
(-0.0428326 0.0302192 0)
(-0.0464485 0.0285858 0)
(-0.0498303 0.0266576 0)
(-0.0529488 0.0244781 0)
(-0.0557795 0.0220864 0)
(-0.0583024 0.019517 0)
(-0.060501 0.0168007 0)
(-0.062362 0.0139642 0)
(-0.0638748 0.0110316 0)
(-0.065031 0.00802414 0)
(-0.0658241 0.00496145 0)
(-0.0662494 0.00186187 0)
(-0.0663038 -0.0012568 0)
(-0.0659854 -0.00437672 0)
(-0.0652943 -0.00747937 0)
(-0.064232 -0.0105449 0)
(-0.0628023 -0.0135516 0)
(-0.0610109 -0.0164753 0)
(-0.0588664 -0.0192886 0)
(-0.0563806 -0.0219607 0)
(-0.053569 -0.0244567 0)
(-0.0504515 -0.0267373 0)
(-0.047053 -0.0287589 0)
(-0.0434041 -0.0304736 0)
(-0.0395419 -0.0318296 0)
(-0.0355102 -0.032772 0)
(-0.0313605 -0.0332445 0)
(-0.0271519 -0.0331905 0)
(-0.0229514 -0.0325558 0)
(-0.0188337 -0.0312912 0)
(-0.0148813 -0.0293555 0)
(-0.0111836 -0.0267191 0)
(-0.00783664 -0.0233672 0)
(-0.00493955 -0.0193034 0)
(-0.00258934 -0.0145522 0)
(-0.000915009 -0.00916086 0)
(-0.000133608 -0.00320492 0)
(-0.000143294 0.00370745 0)
(-0.000976667 0.0105124 0)
(-0.0027567 0.0166043 0)
(-0.00524746 0.0219185 0)
(-0.00830808 0.0264206 0)
(-0.0118332 0.0301003 0)
(-0.0157167 0.032968 0)
(-0.0198572 0.0350527 0)
(-0.0241614 0.0363972 0)
(-0.0285449 0.0370543 0)
(-0.032932 0.0370839 0)
(-0.0372556 0.0365486 0)
(-0.0414574 0.0355119 0)
(-0.045487 0.0340354 0)
(-0.0493015 0.0321776 0)
(-0.0528651 0.0299924 0)
(-0.0561478 0.0275288 0)
(-0.0591249 0.0248307 0)
(-0.0617765 0.0219367 0)
(-0.0640863 0.0188809 0)
(-0.0660413 0.0156932 0)
(-0.0676311 0.0123998 0)
(-0.0688477 0.0090243 0)
(-0.0696847 0.00558796 0)
(-0.0701375 0.00211075 0)
(-0.0702027 -0.00138808 0)
(-0.0698783 -0.00488917 0)
(-0.069164 -0.00837243 0)
(-0.0680608 -0.0118162 0)
(-0.0665716 -0.0151968 0)
(-0.0647017 -0.0184873 0)
(-0.0624587 -0.0216577 0)
(-0.059854 -0.0246734 0)
(-0.0569024 -0.0274953 0)
(-0.0536238 -0.0300795 0)
(-0.0500431 -0.0323766 0)
(-0.0461917 -0.0343325 0)
(-0.0421078 -0.0358884 0)
(-0.0378374 -0.036982 0)
(-0.0334346 -0.0375487 0)
(-0.0289623 -0.0375239 0)
(-0.0244922 -0.036845 0)
(-0.0201048 -0.0354547 0)
(-0.015889 -0.0333041 0)
(-0.0119415 -0.0303567 0)
(-0.0083666 -0.0265919 0)
(-0.00527165 -0.0220083 0)
(-0.00276151 -0.0166274 0)
(-0.000974526 -0.0104945 0)
(-0.000141809 -0.00368559 0)
(-0.000152243 0.00422079 0)
(-0.00104005 0.0119314 0)
(-0.00293816 0.018805 0)
(-0.00559506 0.0247778 0)
(-0.00885969 0.0298187 0)
(-0.0126184 0.0339222 0)
(-0.0167564 0.0371055 0)
(-0.0211643 0.0394051 0)
(-0.0257416 0.0408725 0)
(-0.0303975 0.0415697 0)
(-0.0350511 0.0415656 0)
(-0.0396309 0.0409321 0)
(-0.0440754 0.0397415 0)
(-0.0483317 0.0380635 0)
(-0.0523554 0.0359641 0)
(-0.0561095 0.033504 0)
(-0.0595638 0.030738 0)
(-0.0626935 0.0277152 0)
(-0.0654788 0.0244785 0)
(-0.067904 0.0210655 0)
(-0.0699565 0.0175092 0)
(-0.0716264 0.0138381 0)
(-0.0729061 0.0100778 0)
(-0.0737895 0.00625129 0)
(-0.0742721 0.00237985 0)
(-0.0743503 -0.0015159 0)
(-0.0740221 -0.00541531 0)
(-0.0732864 -0.00929686 0)
(-0.0721436 -0.0131373 0)
(-0.0705957 -0.0169108 0)
(-0.0686471 -0.0205882 0)
(-0.0663046 -0.0241363 0)
(-0.0635784 -0.0275171 0)
(-0.0604827 -0.030687 0)
(-0.0570368 -0.0335968 0)
(-0.0532656 -0.0361911 0)
(-0.0492011 -0.038409 0)
(-0.0448826 -0.040184 0)
(-0.040358 -0.0414454 0)
(-0.0356846 -0.0421198 0)
(-0.0309291 -0.0421331 0)
(-0.0261684 -0.0414136 0)
(-0.0214892 -0.0398947 0)
(-0.0169878 -0.0375191 0)
(-0.012769 -0.0342425 0)
(-0.00894592 -0.0300378 0)
(-0.00563519 -0.024899 0)
(-0.00295034 -0.0188442 0)
(-0.00104001 -0.0119179 0)
(-0.000150909 -0.00419762 0)
(-0.000162222 0.00476777 0)
(-0.00111016 0.0134452 0)
(-0.00313817 0.0211539 0)
(-0.0059773 0.0278298 0)
(-0.00946506 0.0334447 0)
(-0.0134785 0.0379981 0)
(-0.0178936 0.0415142 0)
(-0.0225916 0.0440381 0)
(-0.0274643 0.0456306 0)
(-0.0324139 0.046364 0)
(-0.0373536 0.0463174 0)
(-0.0422076 0.0455731 0)
(-0.0469106 0.0442128 0)
(-0.0514074 0.0423156 0)
(-0.0556519 0.0399556 0)
(-0.0596065 0.037201 0)
(-0.0632404 0.0341129 0)
(-0.0665292 0.0307458 0)
(-0.0694536 0.0271473 0)
(-0.0719985 0.0233586 0)
(-0.0741521 0.0194157 0)
(-0.0759053 0.0153495 0)
(-0.0772509 0.0111875 0)
(-0.0781834 0.00695398 0)
(-0.0786983 0.00267161 0)
(-0.0787921 -0.00163798 0)
(-0.0784624 -0.00595307 0)
(-0.0777075 -0.0102509 0)
(-0.0765269 -0.0145068 0)
(-0.0749217 -0.0186932 0)
(-0.0728948 -0.0227785 0)
(-0.0704519 -0.0267265 0)
(-0.0676018 -0.0304953 0)
(-0.0643578 -0.034037 0)
(-0.0607383 -0.0372966 0)
(-0.0567678 -0.0402124 0)
(-0.0524784 -0.0427158 0)
(-0.0479106 -0.0447317 0)
(-0.0431144 -0.0461802 0)
(-0.0381499 -0.0469779 0)
(-0.0330883 -0.0470403 0)
(-0.0280121 -0.0462852 0)
(-0.0230148 -0.0446356 0)
(-0.0182008 -0.0420247 0)
(-0.0136841 -0.0383997 0)
(-0.00958778 -0.0337264 0)
(-0.00603879 -0.0279938 0)
(-0.00316047 -0.0212171 0)
(-0.00111314 -0.0134405 0)
(-0.000161155 -0.00474449 0)
(-0.000173454 0.00535223 0)
(-0.0011885 0.0150641 0)
(-0.00336088 0.0236665 0)
(-0.00640183 0.0310939 0)
(-0.0101359 0.0373208 0)
(-0.0144297 0.0423518 0)
(-0.0191483 0.0462189 0)
(-0.0241633 0.0489761 0)
(-0.0293573 0.0506951 0)
(-0.0346251 0.0514593 0)
(-0.0398734 0.0513595 0)
(-0.0450215 0.0504893 0)
(-0.0500004 0.0489414 0)
(-0.0547526 0.046805 0)
(-0.0592304 0.0441633 0)
(-0.0633955 0.0410926 0)
(-0.0672172 0.0376609 0)
(-0.0706715 0.0339285 0)
(-0.0737401 0.0299479 0)
(-0.0764087 0.0257641 0)
(-0.0786668 0.021416 0)
(-0.080506 0.016937 0)
(-0.0819203 0.012356 0)
(-0.0829044 0.00769871 0)
(-0.0834543 0.00298866 0)
(-0.0835666 -0.0017517 0)
(-0.0832382 -0.0064999 0)
(-0.0824669 -0.0112323 0)
(-0.0812512 -0.015923 0)
(-0.0795907 -0.0205428 0)
(-0.0774869 -0.025058 0)
(-0.0749438 -0.0294293 0)
(-0.0719684 -0.0336111 0)
(-0.0685726 -0.0375506 0)
(-0.0647734 -0.0411869 0)
(-0.0605946 -0.0444511 0)
(-0.0560683 -0.0472664 0)
(-0.0512357 -0.0495483 0)
(-0.0461485 -0.0512064 0)
(-0.0408703 -0.0521461 0)
(-0.0354767 -0.0522712 0)
(-0.0300563 -0.0514874 0)
(-0.0247102 -0.0497064 0)
(-0.0195518 -0.0468503 0)
(-0.0147056 -0.0428567 0)
(-0.0103059 -0.0376839 0)
(-0.0064914 -0.0313155 0)
(-0.00339671 -0.0237641 0)
(-0.00119564 -0.0150742 0)
(-0.000172802 -0.00533054 0)
(-0.000186175 0.00597876 0)
(-0.00127663 0.0168005 0)
(-0.00361064 0.0263612 0)
(-0.0068767 0.0345934 0)
(-0.0108845 0.0414734 0)
(-0.0154884 0.0470117 0)
(-0.0205417 0.0512482 0)
(-0.0259043 0.0542474 0)
(-0.0314491 0.0560927 0)
(-0.0370623 0.0568803 0)
(-0.0426439 0.0567141 0)
(-0.0481077 0.0557004 0)
(-0.0533812 0.0539441 0)
(-0.0584041 0.0515457 0)
(-0.0631276 0.0485986 0)
(-0.067513 0.0451878 0)
(-0.0715299 0.0413891 0)
(-0.0751555 0.0372688 0)
(-0.0783724 0.0328846 0)
(-0.081168 0.0282854 0)
(-0.083533 0.0235131 0)
(-0.0854606 0.0186031 0)
(-0.0869455 0.0135859 0)
(-0.0879837 0.00848812 0)
(-0.0885714 0.00333388 0)
(-0.0887052 -0.00185399 0)
(-0.0883817 -0.00705263 0)
(-0.0875978 -0.0122379 0)
(-0.0863506 -0.017383 0)
(-0.0846383 -0.0224574 0)
(-0.0824603 -0.0274254 0)
(-0.0798186 -0.0322449 0)
(-0.0767181 -0.0368665 0)
(-0.0731683 -0.0412321 0)
(-0.0691846 -0.0452747 0)
(-0.0647895 -0.0489176 0)
(-0.0600144 -0.0520749 0)
(-0.054901 -0.0546517 0)
(-0.0495028 -0.0565458 0)
(-0.0438863 -0.05765 0)
(-0.0381321 -0.0578547 0)
(-0.0323353 -0.0570521 0)
(-0.0266055 -0.0551405 0)
(-0.0210662 -0.0520298 0)
(-0.0158535 -0.047647 0)
(-0.0111149 -0.0419416 0)
(-0.0070026 -0.0348914 0)
(-0.00366426 -0.0265067 0)
(-0.00128939 -0.016833 0)
(-0.000186125 -0.005961 0)
(-0.000200646 0.00665281 0)
(-0.00137629 0.0186689 0)
(-0.00389215 0.0292601 0)
(-0.00741051 0.0383554 0)
(-0.0117237 0.0459335 0)
(-0.0166723 0.0520104 0)
(-0.0220955 0.0566352 0)
(-0.0278405 0.0598839 0)
(-0.0337689 0.0618534 0)
(-0.0397575 0.0626543 0)
(-0.0456988 0.0624052 0)
(-0.0515012 0.0612269 0)
(-0.0570881 0.059238 0)
(-0.0623969 0.0565516 0)
(-0.0673778 0.0532723 0)
(-0.0719922 0.049495 0)
(-0.0762106 0.0453035 0)
(-0.0800114 0.040771 0)
(-0.0833793 0.0359604 0)
(-0.0863035 0.0309248 0)
(-0.0887767 0.0257087 0)
(-0.0907937 0.0203497 0)
(-0.0923509 0.0148792 0)
(-0.093445 0.00932468 0)
(-0.0940731 0.00371022 0)
(-0.0942318 -0.00194135 0)
(-0.0939173 -0.00760727 0)
(-0.0931255 -0.0132633 0)
(-0.091852 -0.0188824 0)
(-0.0900931 -0.024433 0)
(-0.0878458 -0.0298776 0)
(-0.0851094 -0.0351715 0)
(-0.081886 -0.0402614 0)
(-0.0781825 -0.0450841 0)
(-0.0740115 -0.0495657 0)
(-0.0693937 -0.0536214 0)
(-0.0643593 -0.057155 0)
(-0.0589498 -0.0600601 0)
(-0.05322 -0.0622214 0)
(-0.0472396 -0.0635171 0)
(-0.041094 -0.0638226 0)
(-0.0348854 -0.0630145 0)
(-0.0287328 -0.060976 0)
(-0.022771 -0.0576028 0)
(-0.0171496 -0.0528095 0)
(-0.012031 -0.046536 0)
(-0.007583 -0.0387538 0)
(-0.00396886 -0.0294707 0)
(-0.00139646 -0.0187341 0)
(-0.000201439 -0.00664213 0)
(-0.000217161 0.00738073 0)
(-0.00148939 0.0206865 0)
(-0.00421064 0.0323886 0)
(-0.00801278 0.0424117 0)
(-0.0126679 0.0507364 0)
(-0.0180004 0.0573851 0)
(-0.0238333 0.0624168 0)
(-0.0299993 0.0659212 0)
(-0.0363471 0.06801 0)
(-0.0427433 0.0688106 0)
(-0.0490722 0.0684581 0)
(-0.0552363 0.0670898 0)
(-0.0611551 0.06484 0)
(-0.0667639 0.0618356 0)
(-0.0720124 0.058194 0)
(-0.0768624 0.0540206 0)
(-0.0812861 0.0494084 0)
(-0.0852641 0.0444376 0)
(-0.0887833 0.0391767 0)
(-0.0918357 0.0336828 0)
(-0.0944162 0.0280033 0)
(-0.0965222 0.0221774 0)
(-0.0981518 0.0162373 0)
(-0.0993031 0.0102105 0)
(-0.0999739 0.00412074 0)
(-0.100161 -0.00200973 0)
(-0.0998606 -0.00815889 0)
(-0.0990669 -0.014303 0)
(-0.0977742 -0.0204152 0)
(-0.0959761 -0.0264635 0)
(-0.093667 -0.032409 0)
(-0.0908427 -0.0382046 0)
(-0.087502 -0.0437933 0)
(-0.083648 -0.0491066 0)
(-0.0792901 -0.0540634 0)
(-0.074446 -0.0585699 0)
(-0.0691439 -0.062519 0)
(-0.0634245 -0.0657911 0)
(-0.0573434 -0.0682563 0)
(-0.050973 -0.0697764 0)
(-0.0444036 -0.0702093 0)
(-0.0377452 -0.0694138 0)
(-0.0311268 -0.0672554 0)
(-0.024696 -0.0636137 0)
(-0.0186178 -0.0583888 0)
(-0.0130719 -0.0515095 0)
(-0.00824449 -0.0429401 0)
(-0.00431704 -0.0326861 0)
(-0.00151927 -0.0207974 0)
(-0.000219111 -0.00738127 0)
(-0.000236069 0.00816992 0)
(-0.00161814 0.022873 0)
(-0.00457203 0.0357761 0)
(-0.00869415 0.0467985 0)
(-0.0137329 0.0559225 0)
(-0.0194935 0.0631775 0)
(-0.0257806 0.0686345 0)
(-0.0324098 0.0723981 0)
(-0.0392158 0.0745979 0)
(-0.0460534 0.0753798 0)
(-0.0527984 0.0748985 0)
(-0.0593468 0.0733099 0)
(-0.0656146 0.0707658 0)
(-0.0715354 0.0674091 0)
(-0.0770589 0.0633709 0)
(-0.0821483 0.0587688 0)
(-0.086778 0.0537052 0)
(-0.0909315 0.0482683 0)
(-0.0945992 0.042532 0)
(-0.0977762 0.0365577 0)
(-0.100461 0.0303953 0)
(-0.102653 0.0240852 0)
(-0.104353 0.0176601 0)
(-0.105562 0.0111469 0)
(-0.106277 0.00456839 0)
(-0.106497 -0.00205461 0)
(-0.106216 -0.00870142 0)
(-0.105428 -0.0153496 0)
(-0.104125 -0.0219731 0)
(-0.102298 -0.02854 0)
(-0.0999381 -0.0350108 0)
(-0.0970366 -0.0413364 0)
(-0.0935882 -0.047456 0)
(-0.0895914 -0.0532959 0)
(-0.0850512 -0.0587676 0)
(-0.0799813 -0.0637676 0)
(-0.0744068 -0.0681766 0)
(-0.0683666 -0.0718607 0)
(-0.0619163 -0.0746732 0)
(-0.0551304 -0.0764573 0)
(-0.0481043 -0.0770508 0)
(-0.0409557 -0.076292 0)
(-0.0338249 -0.0740258 0)
(-0.0268738 -0.0701124 0)
(-0.0202849 -0.0644355 0)
(-0.0142578 -0.0569108 0)
(-0.00900061 -0.0474942 0)
(-0.00471628 -0.0361883 0)
(-0.00166058 -0.0230464 0)
(-0.000239577 -0.00818714 0)
(-0.000257779 0.00902901 0)
(-0.00176509 0.0252514 0)
(-0.0049831 0.0394566 0)
(-0.00946668 0.0515572 0)
(-0.0149363 0.0615373 0)
(-0.0211747 0.0694346 0)
(-0.0279649 0.0753337 0)
(-0.0351032 0.0793568 0)
(-0.0424083 0.0816541 0)
(-0.0497222 0.0823936 0)
(-0.0569112 0.0817518 0)
(-0.0638652 0.0799063 0)
(-0.0704965 0.0770287 0)
(-0.0767379 0.07328 0)
(-0.0825398 0.0688069 0)
(-0.0878677 0.0637397 0)
(-0.0926994 0.0581916 0)