/*--------------------------------*- C++ -*----------------------------------*\
  =========                 |
  \\      /  F ield         | OpenFOAM: The Open Source CFD Toolbox
   \\    /   O peration     | Website:  https://openfoam.org
    \\  /    A nd           | Version:  7
     \\/     M anipulation  |
\*---------------------------------------------------------------------------*/
FoamFile
{
    version     2.0;
    format      ascii;
    class       volVectorField;
    location    "0.011";
    object      U;
}
// * * * * * * * * * * * * * * * * * * * * * * * * * * * * * * * * * * * * * //

dimensions      [0 1 -1 0 0 0 0];

internalField   nonuniform List<vector> 
2500
(
(2.28401e-05 -2.28688e-05 0)
(4.88612e-05 -1.50618e-05 0)
(2.33806e-05 7.87706e-06 0)
(-6.6825e-05 3.12106e-05 0)
(-0.000218406 5.12313e-05 0)
(-0.000421192 6.6905e-05 0)
(-0.000664213 7.84045e-05 0)
(-0.000936797 8.62667e-05 0)
(-0.00122931 9.10644e-05 0)
(-0.00153332 9.3317e-05 0)
(-0.00184164 9.34744e-05 0)
(-0.00214817 9.19182e-05 0)
(-0.00244782 8.89677e-05 0)
(-0.00273636 8.48866e-05 0)
(-0.0030103 7.98903e-05 0)
(-0.00326678 7.41525e-05 0)
(-0.00350345 6.78125e-05 0)
(-0.00371837 6.09817e-05 0)
(-0.00390996 5.37492e-05 0)
(-0.00407691 4.61874e-05 0)
(-0.00421816 3.83562e-05 0)
(-0.00433285 3.03066e-05 0)
(-0.00442028 2.20837e-05 0)
(-0.00447993 1.37288e-05 0)
(-0.00451142 5.28113e-06 0)
(-0.00451449 -3.22029e-06 0)
(-0.00448905 -1.1736e-05 0)
(-0.00443514 -2.0225e-05 0)
(-0.00435296 -2.86433e-05 0)
(-0.00424287 -3.69428e-05 0)
(-0.00410541 -4.50694e-05 0)
(-0.00394132 -5.29612e-05 0)
(-0.0037516 -6.05456e-05 0)
(-0.00353749 -6.77358e-05 0)
(-0.00330059 -7.44273e-05 0)
(-0.00304287 -8.04929e-05 0)
(-0.00276678 -8.57774e-05 0)
(-0.00247532 -9.0092e-05 0)
(-0.00217216 -9.3209e-05 0)
(-0.00186173 -9.48554e-05 0)
(-0.00154935 -9.47067e-05 0)
(-0.00124135 -9.23811e-05 0)
(-0.000945152 -8.74346e-05 0)
(-0.000669375 -7.93605e-05 0)
(-0.00042381 -6.76053e-05 0)
(-0.000219217 -5.16566e-05 0)
(-6.65757e-05 -3.13729e-05 0)
(2.40207e-05 -7.83407e-06 0)
(4.93425e-05 1.5199e-05 0)
(2.30245e-05 2.29834e-05 0)
(1.52624e-05 -4.89803e-05 0)
(-1.19782e-05 1.25548e-05 0)
(-0.000167468 0.000125243 0)
(-0.00046457 0.000242326 0)
(-0.000897431 0.000347251 0)
(-0.00144904 0.000433623 0)
(-0.00209734 0.000500104 0)
(-0.00281907 0.000547665 0)
(-0.0035919 0.00057817 0)
(-0.00439539 0.000593747 0)
(-0.00521142 0.000596513 0)
(-0.00602422 0.000588437 0)
(-0.00682033 0.000571282 0)
(-0.00758835 0.000546584 0)
(-0.00831875 0.000515651 0)
(-0.00900358 0.000479583 0)
(-0.00963626 0.000439292 0)
(-0.0102114 0.000395529 0)
(-0.0107244 0.000348913 0)
(-0.0111716 0.000299959 0)
(-0.01155 0.000249101 0)
(-0.0118573 0.000196711 0)
(-0.0120913 0.00014312 0)
(-0.0122507 8.86316e-05 0)
(-0.0123345 3.35313e-05 0)
(-0.0123419 -2.19003e-05 0)
(-0.0122727 -7.73801e-05 0)
(-0.0121271 -0.000132615 0)
(-0.0119057 -0.000187293 0)
(-0.0116096 -0.000241072 0)
(-0.0112404 -0.000293572 0)
(-0.0108001 -0.000344356 0)
(-0.0102917 -0.000392922 0)
(-0.00971876 -0.000438675 0)
(-0.00908572 -0.000480911 0)
(-0.00839815 -0.000518791 0)
(-0.00766287 -0.000551319 0)
(-0.00688813 -0.000577317 0)
(-0.00608389 -0.000595409 0)
(-0.00526201 -0.000604014 0)
(-0.00443649 -0.000601342 0)
(-0.00362361 -0.000585427 0)
(-0.00284204 -0.00055419 0)
(-0.00211263 -0.000505569 0)
(-0.00145807 -0.000437801 0)
(-0.000901811 -0.000350044 0)
(-0.000465942 -0.000243785 0)
(-0.000167334 -0.000125597 0)
(-1.15206e-05 -1.22203e-05 0)
(1.54687e-05 4.94581e-05 0)
(-6.97688e-06 -2.45296e-05 0)
(-0.000122951 0.000167463 0)
(-0.000442001 0.000444343 0)
(-0.000958567 0.000729695 0)
(-0.00165998 0.000989394 0)
(-0.00252497 0.00120776 0)
(-0.003525 0.00137941 0)
(-0.00462901 0.00150462 0)
(-0.00580631 0.00158652 0)
(-0.00702811 0.00162952 0)
(-0.00826832 0.00163842 0)
(-0.00950383 0.00161796 0)
(-0.0107146 0.00157258 0)
(-0.0118834 0.00150623 0)
(-0.0129958 0.00142239 0)
(-0.0140394 0.00132401 0)
(-0.0150042 0.00121361 0)
(-0.0158815 0.00109327 0)
(-0.0166644 0.000964767 0)
(-0.017347 0.000829552 0)
(-0.0179247 0.000688881 0)
(-0.0183935 0.000543836 0)
(-0.0187506 0.000395378 0)
(-0.0189935 0.000244386 0)
(-0.0191206 9.16924e-05 0)
(-0.019131 -6.18929e-05 0)
(-0.0190244 -0.000215554 0)
(-0.018801 -0.000368447 0)
(-0.0184619 -0.000519674 0)
(-0.0180087 -0.000668256 0)
(-0.017444 -0.000813102 0)
(-0.0167713 -0.000952973 0)
(-0.015995 -0.00108644 0)
(-0.0151208 -0.00121182 0)
(-0.0141557 -0.00132716 0)
(-0.0131083 -0.00143013 0)
(-0.0119893 -0.00151803 0)
(-0.0108112 -0.00158768 0)
(-0.00958918 -0.00163546 0)
(-0.00834109 -0.00165729 0)
(-0.0070877 -0.00164869 0)
(-0.00585284 -0.00160492 0)
(-0.00466331 -0.00152127 0)
(-0.0035485 -0.00139351 0)
(-0.00253955 -0.00121876 0)
(-0.00166781 -0.000997046 0)
(-0.000961864 -0.000734116 0)
(-0.000442788 -0.000446038 0)
(-0.000122831 -0.000167323 0)
(-6.84764e-06 2.52445e-05 0)
(-2.96626e-05 6.3575e-05 0)
(-0.000239219 0.000463302 0)
(-0.000728423 0.000960859 0)
(-0.00146315 0.00146139 0)
(-0.00241933 0.00191667 0)
(-0.00357053 0.00230208 0)
(-0.00488296 0.00260772 0)
(-0.00631987 0.00283264 0)
(-0.00784477 0.00298097 0)
(-0.00942298 0.0030594 0)
(-0.0110226 0.00307578 0)
(-0.0126152 0.00303812 0)
(-0.0141755 0.00295413 0)
(-0.0156818 0.00283084 0)
(-0.0171157 0.00267453 0)
(-0.0184614 0.00249062 0)
(-0.0197056 0.00228376 0)
(-0.0208374 0.00205789 0)
(-0.0218474 0.00181634 0)
(-0.0227283 0.0015619 0)
(-0.0234736 0.00129698 0)
(-0.0240784 0.00102367 0)
(-0.0245388 0.000743836 0)
(-0.0248518 0.000459177 0)
(-0.0250151 0.000171303 0)
(-0.0250277 -0.000118217 0)
(-0.0248891 -0.00040781 0)
(-0.0245997 -0.000695848 0)
(-0.0241609 -0.000980603 0)
(-0.023575 -0.00126019 0)
(-0.0228454 -0.00153253 0)
(-0.0219766 -0.00179523 0)
(-0.0209744 -0.00204558 0)
(-0.0198465 -0.00228041 0)
(-0.0186018 -0.00249601 0)
(-0.0172518 -0.00268807 0)
(-0.0158099 -0.00285156 0)
(-0.0142924 -0.00298071 0)
(-0.0127187 -0.00306896 0)
(-0.0111111 -0.00310908 0)
(-0.00949562 -0.00309328 0)
(-0.00790174 -0.00301356 0)
(-0.00636213 -0.00286224 0)
(-0.00491219 -0.00263292 0)
(-0.00358898 -0.00232193 0)
(-0.00242954 -0.00193074 0)
(-0.00146775 -0.00146988 0)
(-0.000729807 -0.0009646 0)
(-0.000239288 -0.000463769 0)
(-2.95601e-05 -6.28043e-05 0)
(-4.94291e-05 0.000212793 0)
(-0.00034618 0.000897259 0)
(-0.000997642 0.00166728 0)
(-0.00193928 0.00242072 0)
(-0.00313313 0.00310079 0)
(-0.00454617 0.00367652 0)
(-0.00613916 0.00413443 0)
(-0.00787048 0.00447258 0)
(-0.00969906 0.00469605 0)
(-0.0115858 0.00481388 0)
(-0.0134945 0.00483703 0)
(-0.0153924 0.00477708 0)
(-0.0172508 0.00464531 0)
(-0.0190443 0.00445224 0)
(-0.0207513 0.00420734 0)
(-0.0223531 0.00391891 0)
(-0.0238343 0.00359415 0)
(-0.0251816 0.00323919 0)
(-0.026384 0.00285925 0)
(-0.0274325 0.00245879 0)
(-0.0283197 0.00204162 0)
(-0.0290396 0.00161109 0)
(-0.0295873 0.00117019 0)
(-0.0299593 0.000721632 0)
(-0.0301532 0.000268015 0)
(-0.0301674 -0.000188156 0)
(-0.0300015 -0.000644358 0)
(-0.0296561 -0.00109799 0)
(-0.0291327 -0.00154629 0)
(-0.0284343 -0.00198626 0)
(-0.0275648 -0.00241456 0)
(-0.0265298 -0.00282744 0)
(-0.0253363 -0.00322058 0)
(-0.0239933 -0.00358898 0)
(-0.0225117 -0.00392687 0)
(-0.0209048 -0.00422752 0)
(-0.0191888 -0.00448318 0)
(-0.0173827 -0.00468504 0)
(-0.0155091 -0.00482321 0)
(-0.0135941 -0.00488688 0)
(-0.0116676 -0.00486462 0)
(-0.00976315 -0.00474492 0)
(-0.00791797 -0.00451704 0)
(-0.00617194 -0.00417241 0)
(-0.00456677 -0.00370658 0)
(-0.00314446 -0.00312229 0)
(-0.00194431 -0.00243395 0)
(-0.000999093 -0.00167347 0)
(-0.000346201 -0.000898526 0)
(-4.93011e-05 -0.000212036 0)
(-6.55646e-05 0.000414948 0)
(-0.000439239 0.00145777 0)
(-0.00123858 0.00255107 0)
(-0.00237065 0.00359311 0)
(-0.00378312 0.00452369 0)
(-0.00543539 0.00530854 0)
(-0.0072823 0.00593229 0)
(-0.00927739 0.0063928 0)
(-0.0113755 0.00669651 0)
(-0.0135338 0.00685502 0)
(-0.0157127 0.00688261 0)
(-0.0178763 0.00679459 0)
(-0.0199928 0.00660608 0)
(-0.022034 0.00633135 0)
(-0.023976 0.00598336 0)
(-0.0257979 0.00557363 0)
(-0.0274822 0.00511216 0)
(-0.0290141 0.00460758 0)
(-0.0303811 0.00406728 0)
(-0.031573 0.00349758 0)
(-0.0325814 0.00290396 0)
(-0.0333994 0.00229121 0)
(-0.0340217 0.00166361 0)
(-0.0344443 0.0010251 0)
(-0.0346641 0.000379393 0)
(-0.0346798 -0.000269899 0)
(-0.0344906 -0.000919153 0)
(-0.0340973 -0.00156463 0)
(-0.0335018 -0.00220237 0)
(-0.0327072 -0.00282806 0)
(-0.0317183 -0.00343696 0)
(-0.0305412 -0.00402367 0)
(-0.029184 -0.00458206 0)
(-0.0276567 -0.00510506 0)
(-0.0259718 -0.0055845 0)
(-0.0241443 -0.00601097 0)
(-0.0221923 -0.00637368 0)
(-0.0201371 -0.00666044 0)
(-0.0180038 -0.00685772 0)
(-0.0158213 -0.00695084 0)
(-0.0136226 -0.00692449 0)
(-0.0114448 -0.00676344 0)
(-0.00932839 -0.00645373 0)
(-0.00731712 -0.00598439 0)
(-0.00545687 -0.00534984 0)
(-0.00379453 -0.00455332 0)
(-0.00237533 -0.00361145 0)
(-0.00123959 -0.00255978 0)
(-0.000438974 -0.00145975 0)
(-6.53531e-05 -0.000414088 0)
(-7.84962e-05 0.000661885 0)
(-0.000518528 0.0021303 0)
(-0.00144965 0.0035954 0)
(-0.00275423 0.00496033 0)
(-0.00436632 0.00616539 0)
(-0.00623734 0.00717586 0)
(-0.00831583 0.00797634 0)
(-0.0105503 0.00856568 0)
(-0.0128915 0.00895238 0)
(-0.0152933 0.009151 0)
(-0.0177131 0.00917945 0)
(-0.0201123 0.00905701 0)
(-0.0224565 0.0088029 0)
(-0.0247157 0.00843534 0)
(-0.0268636 0.00797105 0)
(-0.0288778 0.00742495 0)
(-0.0307393 0.00681012 0)
(-0.0324318 0.00613791 0)
(-0.0339418 0.00541805 0)
(-0.0352582 0.00465896 0)
(-0.0363717 0.00386792 0)
(-0.0372749 0.00305133 0)
(-0.0379619 0.00221494 0)
(-0.0384282 0.00136401 0)
(-0.0386709 0.000503525 0)
(-0.0386879 -0.000361687 0)
(-0.0384789 -0.00122677 0)
(-0.0380444 -0.00208673 0)
(-0.0373867 -0.00293627 0)
(-0.0365091 -0.00376963 0)
(-0.0354168 -0.00458047 0)
(-0.0341166 -0.00536161 0)
(-0.0326172 -0.00610491 0)
(-0.0309296 -0.006801 0)
(-0.0290674 -0.00743912 0)
(-0.027047 -0.00800689 0)
(-0.0248879 -0.00849026 0)
(-0.0226134 -0.00887341 0)
(-0.0202505 -0.00913888 0)
(-0.0178306 -0.00926792 0)
(-0.015389 -0.00924107 0)
(-0.0129657 -0.00903914 0)
(-0.0106043 -0.00864466 0)
(-0.00835212 -0.00804384 0)
(-0.00625911 -0.00722933 0)
(-0.00437724 -0.00620369 0)
(-0.00275808 -0.00498394 0)
(-0.00144988 -0.00360649 0)
(-0.000517805 -0.00213269 0)
(-7.81585e-05 -0.000660691 0)
(-8.89438e-05 0.000946424 0)
(-0.000586137 0.00290079 0)
(-0.00163413 0.0047833 0)
(-0.0030945 0.0065042 0)
(-0.00488902 0.00800687 0)
(-0.00696121 0.00925848 0)
(-0.00925311 0.0102454 0)
(-0.011708 0.0109687 0)
(-0.0142725 0.0114398 0)
(-0.0168971 0.0116769 0)
(-0.0195363 0.0117018 0)
(-0.0221492 0.0115383 0)
(-0.0246991 0.0112097 0)
(-0.0271543 0.0107386 0)
(-0.0294868 0.0101457 0)
(-0.0316728 0.00944946 0)
(-0.0336921 0.00866624 0)
(-0.0355274 0.00781028 0)
(-0.0371644 0.00689385 0)
(-0.0385911 0.00592759 0)
(-0.0397978 0.00492075 0)
(-0.0407764 0.00388144 0)
(-0.0415207 0.00281699 0)
(-0.042026 0.00173409 0)
(-0.042289 0.00063908 0)
(-0.0423078 -0.000461887 0)
(-0.0420817 -0.00156264 0)
(-0.0416114 -0.00265683 0)
(-0.0408993 -0.00373771 0)
(-0.0399488 -0.00479799 0)
(-0.0387656 -0.00582959 0)
(-0.0373566 -0.00682342 0)
(-0.0357313 -0.00776916 0)
(-0.0339014 -0.00865498 0)
(-0.0318812 -0.00946733 0)
(-0.0296883 -0.0101907 0)
(-0.0273433 -0.0108075 0)
(-0.0248712 -0.0112981 0)
(-0.0223005 -0.0116408 0)
(-0.0196646 -0.0118127 0)
(-0.0170012 -0.0117897 0)
(-0.0143527 -0.0115485 0)
(-0.0117659 -0.0110675 0)
(-0.00929136 -0.0103298 0)
(-0.00698346 -0.00932516 0)
(-0.00489945 -0.00805442 0)
(-0.00309742 -0.00653321 0)
(-0.00163347 -0.00479656 0)
(-0.00058488 -0.00290317 0)
(-8.84577e-05 -0.000944596 0)
(-9.7604e-05 0.00126291 0)
(-0.000644745 0.00375739 0)
(-0.00179738 0.00610011 0)
(-0.00339967 0.00820901 0)
(-0.00536253 0.0100322 0)
(-0.00762195 0.0115404 0)
(-0.0101134 0.0127232 0)
(-0.0127749 0.0135853 0)
(-0.0155487 0.0141417 0)
(-0.0183817 0.0144151 0)
(-0.0212257 0.0144317 0)
(-0.0240372 0.0142201 0)
(-0.0267779 0.0138082 0)
(-0.0294139 0.0132232 0)
(-0.0319163 0.0124898 0)
(-0.03426 0.0116305 0)
(-0.0364236 0.0106649 0)
(-0.0383892 0.00961037 0)
(-0.0401417 0.00848189 0)
(-0.0416687 0.00729241 0)
(-0.0429599 0.00605324 0)
(-0.0440071 0.00477433 0)
(-0.0448036 0.00346464 0)
(-0.0453446 0.00213238 0)
(-0.0456266 0.000785312 0)
(-0.0456475 -0.000569038 0)
(-0.0454066 -0.00192312 0)
(-0.0449048 -0.00326915 0)
(-0.0441441 -0.00459889 0)
(-0.0431285 -0.00590341 0)
(-0.0418633 -0.0071728 0)
(-0.0403562 -0.00839595 0)
(-0.0386168 -0.00956025 0)
(-0.0366574 -0.0106513 0)
(-0.0344928 -0.0116524 0)
(-0.0321415 -0.012545 0)
(-0.0296253 -0.0133076 0)
(-0.0269701 -0.0139165 0)
(-0.0242063 -0.0143457 0)
(-0.0213689 -0.0145675 0)
(-0.0184977 -0.0145532 0)
(-0.0156377 -0.0142748 0)
(-0.0128388 -0.0137062 0)
(-0.0101552 -0.0128264 0)
(-0.00764573 -0.0116217 0)
(-0.0053731 -0.0100898 0)
(-0.00340197 -0.00824372 0)
(-0.00179593 -0.00611536 0)
(-0.000642971 -0.00375935 0)
(-9.69652e-05 -0.00126013 0)
(-0.000105075 0.00160727 0)
(-0.00069705 0.0046911 0)
(-0.00194539 0.00753442 0)
(-0.00367943 0.0100626 0)
(-0.00580045 0.0122293 0)
(-0.00823733 0.0140099 0)
(-0.0109192 0.0153984 0)
(-0.0137784 0.0164041 0)
(-0.0167527 0.0170468 0)
(-0.0197855 0.0173541 0)
(-0.0228255 0.0173575 0)
(-0.0258268 0.0170906 0)
(-0.028749 0.0165866 0)
(-0.0315569 0.0158773 0)
(-0.0342201 0.0149919 0)
(-0.0367124 0.0139569 0)
(-0.0390118 0.0127956 0)
(-0.0410996 0.0115286 0)
(-0.0429604 0.0101735 0)
(-0.0445812 0.00874591 0)
(-0.0459514 0.00725917 0)
(-0.0470627 0.00572517 0)
(-0.0479081 0.00415456 0)
(-0.0484828 0.00255709 0)
(-0.0487831 0.000941984 0)
(-0.0488068 -0.000681809 0)
(-0.0485531 -0.00230533 0)
(-0.0480229 -0.00391935 0)
(-0.0472181 -0.00551405 0)
(-0.0461427 -0.00707882 0)
(-0.0448021 -0.00860189 0)
(-0.0432041 -0.01007 0)
(-0.0413585 -0.0114682 0)
(-0.0392779 -0.0127791 0)
(-0.0369777 -0.0139833 0)
(-0.0344769 -0.0150584 0)
(-0.0317983 -0.0159791 0)
(-0.0289689 -0.0167173 0)
(-0.0260204 -0.0172423 0)
(-0.0229896 -0.0175215 0)
(-0.0199186 -0.017521 0)
(-0.016855 -0.0172076 0)
(-0.0138517 -0.0165502 0)
(-0.0109671 -0.0155229 0)
(-0.00826451 -0.0141077 0)
(-0.00581238 -0.0122983 0)
(-0.00368182 -0.0101037 0)
(-0.0019435 -0.00755172 0)
(-0.000694863 -0.00469233 0)
(-0.000104295 -0.00160324 0)
(-0.000111857 0.00197684 0)
(-0.000745557 0.00569587 0)
(-0.00208411 0.00907854 0)
(-0.00394375 0.0120569 0)
(-0.00621703 0.0145903 0)
(-0.00882609 0.0166596 0)
(-0.0116937 0.0182643 0)
(-0.0147466 0.0194189 0)
(-0.0179179 0.0201491 0)
(-0.021147 0.020488 0)
(-0.0243795 0.0204732 0)
(-0.0275669 0.0201438 0)
(-0.0306668 0.0195386 0)
(-0.0336424 0.0186944 0)
(-0.036462 0.0176454 0)
(-0.0390986 0.0164223 0)
(-0.0415294 0.0150522 0)
(-0.0437353 0.0135591 0)
(-0.0457003 0.0119635 0)
(-0.0474113 0.0102836 0)
(-0.0488576 0.00853482 0)
(-0.0500305 0.00673113 0)
(-0.0509233 0.00488486 0)
(-0.0515308 0.00300735 0)
(-0.0518493 0.00110929 0)
(-0.0518766 -0.000798964 0)
(-0.0516118 -0.00270703 0)
(-0.0510555 -0.0046042 0)
(-0.0502097 -0.00647912 0)
(-0.0490782 -0.00831942 0)
(-0.0476664 -0.0101114 0)
(-0.045982 -0.0118396 0)
(-0.0440349 -0.0134866 0)
(-0.0418379 -0.0150322 0)
(-0.0394067 -0.0164535 0)
(-0.0367609 -0.0177246 0)
(-0.0339239 -0.0188158 0)
(-0.0309238 -0.0196946 0)
(-0.0277938 -0.0203252 0)
(-0.0245725 -0.0206695 0)
(-0.0213041 -0.0206881 0)
(-0.0180392 -0.0203419 0)
(-0.0148342 -0.0195942 0)
(-0.0117514 -0.0184136 0)
(-0.00885938 -0.0167769 0)
(-0.00623215 -0.0146727 0)
(-0.00394732 -0.0121054 0)
(-0.00208232 -0.00909834 0)
(-0.00074314 -0.00569631 0)
(-0.00011096 -0.00197135 0)
(-0.000118359 0.00237026 0)
(-0.000792511 0.00676853 0)
(-0.00221913 0.0107285 0)
(-0.00420225 0.0141879 0)
(-0.00662626 0.0171119 0)
(-0.00940678 0.0194871 0)
(-0.0124602 0.021319 0)
(-0.0157075 0.0226284 0)
(-0.0190769 0.0234474 0)
(-0.0225036 0.0238158 0)
(-0.0259298 0.0237776 0)
(-0.0293043 0.0233782 0)
(-0.0325826 0.0226624 0)
(-0.0357261 0.0216727 0)
(-0.0387019 0.0204482 0)
(-0.0414822 0.0190244 0)
(-0.0440435 0.0174324 0)
(-0.0463662 0.0156995 0)
(-0.0484343 0.0138496 0)
(-0.0502344 0.0119033 0)
(-0.0517558 0.00987851 0)
(-0.0529897 0.007791 0)
(-0.0539295 0.0056549 0)
(-0.0545699 0.00348313 0)
(-0.0549072 0.0012878 0)
(-0.054939 -0.000919316 0)
(-0.0546644 -0.00312645 0)
(-0.0540838 -0.00532145 0)
(-0.0531991 -0.00749138 0)
(-0.0520138 -0.00962216 0)
(-0.0505331 -0.0116981 0)
(-0.0487646 -0.0137016 0)
(-0.0467182 -0.0156124 0)
(-0.0444065 -0.0174075 0)
(-0.0418456 -0.0190605 0)
(-0.0390553 -0.0205414 0)
(-0.03606 -0.0218163 0)
(-0.0328885 -0.0228475 0)
(-0.0295756 -0.0235939 0)
(-0.0261617 -0.0240114 0)
(-0.0226936 -0.0240545 0)
(-0.0192248 -0.0236777 0)
(-0.0158155 -0.0228381 0)
(-0.0125326 -0.0214978 0)
(-0.00944971 -0.0196277 0)
(-0.00664697 -0.0172107 0)
(-0.00420847 -0.0142459 0)
(-0.00221817 -0.0107518 0)
(-0.000790112 -0.00676841 0)
(-0.000117379 -0.00236321 0)
(-0.000124924 0.00278726 0)
(-0.00083989 0.00790854 0)
(-0.00235553 0.012484 0)
(-0.00446391 0.016456 0)
(-0.00704142 0.0197952 0)
(-0.00999715 0.0224942 0)
(-0.013241 0.0245651 0)
(-0.016688 0.0260358 0)
(-0.0202611 0.0269454 0)
(-0.0238912 0.0273411 0)
(-0.0275165 0.027274 0)
(-0.0310832 0.0267967 0)
(-0.0345443 0.0259605 0)
(-0.0378596 0.0248139 0)
(-0.0409948 0.0234017 0)
(-0.0439212 0.021764 0)
(-0.0466149 0.0199364 0)
(-0.049056 0.01795 0)
(-0.0512282 0.0158318 0)
(-0.0531182 0.0136051 0)
(-0.0547153 0.0112902 0)
(-0.056011 0.00890494 0)
(-0.0569984 0.00646506 0)
(-0.0576724 0.00398504 0)
(-0.0580294 0.00147842 0)
(-0.0580669 -0.00104169 0)
(-0.0577838 -0.00356218 0)
(-0.0571804 -0.0060695 0)
(-0.0562581 -0.00854918 0)
(-0.0550202 -0.0109854 0)
(-0.0534717 -0.0133606 0)
(-0.0516197 -0.0156547 0)
(-0.0494739 -0.0178448 0)
(-0.0470469 -0.0199049 0)
(-0.0443549 -0.0218048 0)
(-0.0414178 -0.0235103 0)
(-0.0382606 -0.0249828 0)
(-0.0349134 -0.0261791 0)
(-0.0314122 -0.0270522 0)
(-0.0277995 -0.0275517 0)
(-0.0241247 -0.0276252 0)
(-0.0204448 -0.0272202 0)
(-0.016824 -0.0262866 0)
(-0.013334 -0.0247796 0)
(-0.0100541 -0.0226632 0)
(-0.00707073 -0.0199144 0)
(-0.00447463 -0.0165263 0)
(-0.00235634 -0.0125124 0)
(-0.000837824 -0.00790854 0)
(-0.000123903 -0.00277868 0)
(-0.000131834 0.00322855 0)
(-0.000889438 0.00911779 0)
(-0.00249793 0.0143481 0)
(-0.00473701 0.0188655 0)
(-0.00747488 0.0226456 0)
(-0.0106139 0.0256874 0)
(-0.0140572 0.02801 0)
(-0.0177135 0.0296487 0)
(-0.0215002 0.0306508 0)
(-0.0253433 0.0310714 0)
(-0.0291772 0.0309698 0)
(-0.0329447 0.0304061 0)
(-0.0365965 0.0294389 0)
(-0.0400904 0.0281233 0)
(-0.0433909 0.0265101 0)
(-0.0464686 0.0246446 0)
(-0.0492989 0.0225672 0)
(-0.0518617 0.0203129 0)
(-0.0541408 0.0179119 0)
(-0.056123 0.0153905 0)
(-0.0577977 0.0127713 0)
(-0.0591567 0.0100741 0)
(-0.0601932 0.00731645 0)
(-0.0609024 0.00451423 0)
(-0.0612804 0.00168234 0)
(-0.0613249 -0.00116486 0)
(-0.0610346 -0.00401301 0)
(-0.0604093 -0.00684723 0)
(-0.0594503 -0.00965158 0)
(-0.0581604 -0.0124086 0)
(-0.0565441 -0.0150986 0)
(-0.054608 -0.0176994 0)
(-0.0523615 -0.0201852 0)
(-0.0498168 -0.0225266 0)
(-0.04699 -0.0246897 0)
(-0.0439013 -0.0266358 0)
(-0.0405762 -0.0283209 0)
(-0.0370456 -0.0296962 0)
(-0.0333472 -0.030708 0)
(-0.0295257 -0.0312991 0)
(-0.0256334 -0.0314094 0)
(-0.0217307 -0.0309787 0)
(-0.0178866 -0.0299491 0)
(-0.014178 -0.0282678 0)
(-0.0106903 -0.0258917 0)
(-0.00751646 -0.0227906 0)
(-0.00475447 -0.018952 0)
(-0.00250163 -0.0143841 0)
(-0.000888083 -0.00911907 0)
(-0.000130821 -0.00321865 0)
(-0.000139334 0.00369566 0)
(-0.000942707 0.0104003 0)
(-0.0026505 0.0163269 0)
(-0.00502919 0.0214242 0)
(-0.0079382 0.0256726 0)
(-0.0112728 0.0290774 0)
(-0.0149288 0.0316649 0)
(-0.0188082 0.0334789 0)
(-0.0228223 0.0345753 0)
(-0.0268918 0.0350182 0)
(-0.0309471 0.0348756 0)
(-0.0349272 0.0342162 0)
(-0.0387803 0.0331063 0)
(-0.0424623 0.0316086 0)
(-0.0459365 0.0297801 0)
(-0.0491723 0.027672 0)
(-0.052145 0.0253296 0)
(-0.0548344 0.0227921 0)
(-0.0572244 0.0200932 0)
(-0.0593021 0.0172622 0)
(-0.0610572 0.014324 0)
(-0.0624818 0.0113005 0)
(-0.0635695 0.00821082 0)
(-0.0643155 0.00507229 0)
(-0.0647163 0.00190101 0)
(-0.0647693 -0.00128752 0)
(-0.0644729 -0.00447781 0)
(-0.0638269 -0.00765376 0)
(-0.0628319 -0.0107981 0)
(-0.0614902 -0.0138916 0)
(-0.0598056 -0.0169129 0)
(-0.0577842 -0.0198372 0)
(-0.0554346 -0.0226361 0)
(-0.0527686 -0.0252765 0)
(-0.0498019 -0.0277204 0)
(-0.0465549 -0.0299243 0)
(-0.0430534 -0.0318387 0)
(-0.0393294 -0.0334083 0)
(-0.035422 -0.0345724 0)
(-0.0313783 -0.0352658 0)
(-0.0272538 -0.0354204 0)
(-0.0231129 -0.0349672 0)
(-0.0190294 -0.0338395 0)
(-0.0150861 -0.0319761 0)
(-0.011375 -0.0293257 0)
(-0.00799651 -0.0258507 0)
(-0.00505611 -0.0215324 0)
(-0.00265848 -0.0163741 0)
(-0.000942517 -0.0104047 0)
(-0.000138385 -0.00368485 0)
(-0.000147638 0.00419089 0)
(-0.00100111 0.0117622 0)
(-0.00281716 0.0184297 0)
(-0.00534762 0.0241439 0)
(-0.00844233 0.0288898 0)
(-0.0119887 0.0326789 0)
(-0.0158748 0.0355456 0)
(-0.019995 0.0375423 0)
(-0.024254 0.0387346 0)
(-0.028567 0.0391964 0)
(-0.0328594 0.0390054 0)
(-0.0370668 0.0382396 0)
(-0.0411343 0.0369741 0)
(-0.0450159 0.0352796 0)
(-0.0486735 0.0332202 0)
(-0.0520759 0.0308533 0)
(-0.0551981 0.0282295 0)
(-0.0580199 0.0253924 0)
(-0.0605255 0.0223797 0)
(-0.0627026 0.0192234 0)
(-0.0645413 0.0159511 0)
(-0.0660342 0.0125865 0)
(-0.0671754 0.00915027 0)
(-0.0679604 0.00566108 0)
(-0.0683857 0.0021361 0)
(-0.0684488 -0.0014082 0)
(-0.068148 -0.00495536 0)
(-0.0674823 -0.00848822 0)
(-0.0664521 -0.0119883 0)
(-0.0650588 -0.0154349 0)
(-0.0633054 -0.0188046 0)
(-0.061197 -0.0220704 0)
(-0.0587415 -0.0252009 0)
(-0.0559499 -0.0281594 0)
(-0.0528374 -0.0309035 0)
(-0.0494242 -0.0333844 0)
(-0.0457363 -0.0355466 0)
(-0.0418067 -0.0373277 0)
(-0.0376761 -0.0386593 0)
(-0.0333939 -0.0394676 0)
(-0.0290191 -0.0396751 0)
(-0.0246206 -0.0392034 0)
(-0.0202774 -0.0379761 0)
(-0.016079 -0.0359225 0)
(-0.0121246 -0.0329823 0)
(-0.00852274 -0.0291101 0)
(-0.0053873 -0.0242808 0)
(-0.00283107 -0.0184928 0)
(-0.00100264 -0.0117722 0)
(-0.000146821 -0.00417984 0)
(-0.000156942 0.00471724 0)
(-0.00106601 0.0132114 0)
(-0.00300164 0.0206683 0)
(-0.00569923 0.0270396 0)
(-0.00899786 0.0323144 0)
(-0.0127763 0.0365108 0)
(-0.0169136 0.0396714 0)
(-0.0212962 0.0418583 0)
(-0.0258212 0.0431476 0)
(-0.0303978 0.0436239 0)
(-0.0349461 0.0433757 0)
(-0.0393976 0.0424913 0)
(-0.0436946 0.0410556 0)
(-0.0477889 0.0391479 0)
(-0.051641 0.0368402 0)
(-0.0552193 0.0341967 0)
(-0.0584985 0.0312737 0)
(-0.0614589 0.0281196 0)
(-0.0640852 0.024776 0)
(-0.0663656 0.021278 0)
(-0.0682912 0.0176557 0)
(-0.0698552 0.0139347 0)
(-0.0710524 0.0101371 0)
(-0.0718785 0.00628268 0)
(-0.0723304 0.00238949 0)
(-0.0724056 -0.00152521 0)
(-0.072102 -0.00544422 0)
(-0.0714183 -0.00934954 0)
(-0.070354 -0.0132216 0)
(-0.0689096 -0.0170384 0)
(-0.0670871 -0.0207747 0)
(-0.0648905 -0.0244011 0)
(-0.0623263 -0.0278832 0)
(-0.0594048 -0.0311806 0)
(-0.0561401 -0.0342462 0)
(-0.052552 -0.0370255 0)
(-0.0486667 -0.0394564 0)
(-0.0445178 -0.0414687 0)
(-0.0401476 -0.0429854 0)
(-0.0356081 -0.043923 0)
(-0.030962 -0.044194 0)
(-0.0262828 -0.0437092 0)
(-0.0216558 -0.0423813 0)
(-0.0171775 -0.0401293 0)
(-0.0129553 -0.036883 0)
(-0.00910694 -0.0325887 0)
(-0.0057557 -0.0272142 0)
(-0.00302351 -0.0207535 0)
(-0.00106991 -0.0132304 0)
(-0.000156341 -0.0047069 0)
(-0.000167444 0.00527836 0)
(-0.00113872 0.0147576 0)
(-0.00320767 0.0230575 0)
(-0.00609096 0.0301297 0)
(-0.00961546 0.0359676 0)
(-0.01365 0.0405958 0)
(-0.0180639 0.0440658 0)
(-0.022734 0.0464501 0)
(-0.0275497 0.0478365 0)
(-0.0324128 0.0483215 0)
(-0.0372382 0.0480055 0)
(-0.0419529 0.0469883 0)
(-0.0464958 0.0453656 0)
(-0.0508168 0.0432262 0)
(-0.0548753 0.0406507 0)
(-0.0586391 0.0377109 0)
(-0.0620831 0.0344692 0)
(-0.0651882 0.0309792 0)
(-0.0679399 0.0272865 0)
(-0.0703275 0.0234296 0)
(-0.072343 0.0194408 0)
(-0.0739807 0.0153477 0)
(-0.075236 0.0111736 0)
(-0.0761054 0.00693921 0)
(-0.076586 0.00266324 0)
(-0.0766754 -0.0016366 0)
(-0.0763711 -0.00594259 0)
(-0.0756714 -0.0102362 0)
(-0.0745748 -0.0144969 0)
(-0.0730806 -0.0187017 0)
(-0.0711895 -0.0228237 0)
(-0.0689041 -0.0268312 0)
(-0.0662293 -0.0306866 0)
(-0.0631739 -0.0343457 0)
(-0.0597509 -0.0377563 0)
(-0.0559793 -0.0408579 0)
(-0.051885 -0.043581 0)
(-0.0475021 -0.045847 0)
(-0.0428745 -0.0475692 0)
(-0.0380568 -0.0486534 0)
(-0.0331153 -0.0490008 0)
(-0.0281291 -0.04851 0)
(-0.0231901 -0.0470817 0)
(-0.0184027 -0.0446234 0)
(-0.0138838 -0.041054 0)
(-0.00976126 -0.0363106 0)
(-0.00616919 -0.0303538 0)
(-0.00324 -0.023173 0)
(-0.00114584 -0.0147904 0)
(-0.000167158 -0.00527006 0)
(-0.000179346 0.00587862 0)
(-0.00122066 0.0164126 0)
(-0.00343916 0.0256148 0)
(-0.0065301 0.0334363 0)
(-0.0103062 0.0398743 0)
(-0.0146251 0.0449605 0)
(-0.0193447 0.0487558 0)
(-0.0243315 0.0513444 0)
(-0.0294655 0.0528267 0)
(-0.0346412 0.0533126 0)
(-0.0397669 0.0529159 0)
(-0.0447652 0.0517491 0)
(-0.0495717 0.0499198 0)
(-0.0541341 0.0475276 0)
(-0.0584108 0.0446626 0)
(-0.0623695 0.0414046 0)
(-0.0659855 0.0378229 0)
(-0.0692407 0.0339765 0)
(-0.0721219 0.0299153 0)
(-0.0746196 0.0256812 0)
(-0.0767275 0.021309 0)
(-0.0784407 0.0168277 0)
(-0.079756 0.0122619 0)
(-0.0806707 0.00763281 0)
(-0.0811822 0.00295953 0)
(-0.0812881 -0.00174006 0)
(-0.0809858 -0.00644812 0)
(-0.0802728 -0.0111458 0)
(-0.0791465 -0.0158123 0)
(-0.077605 -0.0204236 0)
(-0.0756471 -0.0249512 0)
(-0.0732735 -0.0293613 0)
(-0.0704874 -0.0336135 0)
(-0.0672954 -0.0376591 0)
(-0.063709 -0.0414409 0)
(-0.0597458 -0.0448916 0)
(-0.0554311 -0.0479337 0)
(-0.0507992 -0.0504794 0)
(-0.0458952 -0.052431 0)
(-0.0407764 -0.0536825 0)
(-0.0355133 -0.054122 0)
(-0.0301905 -0.0536348 0)
(-0.0249074 -0.0521081 0)
(-0.0197774 -0.049436 0)
(-0.0149279 -0.0455258 0)
(-0.0104987 -0.0403043 0)
(-0.00663625 -0.0337244 0)
(-0.0034851 -0.025771 0)
(-0.00123203 -0.016465 0)
(-0.000179507 -0.00587414 0)
(-0.000192877 0.0065231 0)
(-0.00131337 0.01819 0)
(-0.00370041 0.0283607 0)
(-0.00702454 0.036985 0)
(-0.0110822 0.0440636 0)
(-0.0157179 0.0496356 0)
(-0.0207765 0.0537725 0)
(-0.0261127 0.0565713 0)
(-0.0315962 0.0581465 0)
(-0.0371127 0.0586232 0)
(-0.0425641 0.0581298 0)
(-0.0478677 0.0567933 0)
(-0.0529558 0.0547347 0)
(-0.0577742 0.0520654 0)
(-0.0622805 0.0488862 0)
(-0.0664425 0.0452857 0)
(-0.0702367 0.0413405 0)
(-0.0736462 0.0371156 0)
(-0.0766595 0.0326655 0)
(-0.0792692 0.0280352 0)
(-0.0814705 0.023262 0)
(-0.0832603 0.0183763 0)
(-0.0846368 0.0134036 0)
(-0.0855982 0.0083654 0)
(-0.0861425 0.00328069 0)
(-0.0862676 -0.00183289 0)
(-0.0859706 -0.00695779 0)
(-0.0852479 -0.0120754 0)
(-0.084096 -0.0171647 0)
(-0.082511 -0.0222011 0)
(-0.0804898 -0.0271551 0)
(-0.0780307 -0.0319908 0)
(-0.0751344 -0.0366647 0)
(-0.071805 -0.0411241 0)
(-0.0680518 -0.0453059 0)
(-0.0638903 -0.0491359 0)
(-0.0593447 -0.0525277 0)
(-0.0544491 -0.055383 0)
(-0.0492495 -0.0575922 0)
(-0.0438056 -0.0590357 0)
(-0.0381922 -0.0595871 0)
(-0.0325001 -0.0591164 0)
(-0.0268368 -0.0574953 0)
(-0.0213261 -0.0546033 0)
(-0.0161073 -0.0503341 0)
(-0.0113337 -0.0446033 0)
(-0.00716633 -0.0373555 0)
(-0.00376389 -0.0285709 0)
(-0.00133033 -0.0182698 0)
(-0.000193654 -0.00652481 0)
(-0.000208302 0.00721773 0)
(-0.00141863 0.0201058 0)
(-0.00399627 0.0313193 0)
(-0.00758318 0.0408055 0)
(-0.0119568 0.0485688 0)
(-0.0169463 0.0546562 0)
(-0.0223817 0.059151 0)
(-0.0281039 0.0621645 0)
(-0.033971 0.0638271 0)
(-0.0398592 0.0642809 0)
(-0.0456628 0.0636712 0)
(-0.0512941 0.0621411 0)
(-0.0566818 0.0598265 0)
(-0.06177 0.0568524 0)
(-0.066516 0.053331 0)
(-0.0708883 0.0493609 0)
(-0.0748648 0.0450266 0)
(-0.0784307 0.0403993 0)
(-0.081577 0.0355384 0)
(-0.0842985 0.0304922 0)
(-0.0865927 0.0253002 0)
(-0.0884589 0.0199941 0)
(-0.0898966 0.0145997 0)
(-0.0909056 0.0091386 0)
(-0.0914847 0.00362907 0)
(-0.0916319 -0.00191194 0)
(-0.0913439 -0.00746772 0)
(-0.0906165 -0.0130203 0)
(-0.0894444 -0.0185492 0)
(-0.0878218 -0.0240297 0)
(-0.0857431 -0.0294313 0)
(-0.0832037 -0.0347166 0)
(-0.0802011 -0.0398391 0)
(-0.0767362 -0.0447417 0)
(-0.0728153 -0.0493556 0)
(-0.0684512 -0.0535987 0)
(-0.063666 -0.0573751 0)
(-0.0584931 -0.0605748 0)
(-0.0529788 -0.0630747 0)
(-0.0471851 -0.0647402 0)
(-0.0411911 -0.0654279 0)
(-0.0350942 -0.0649907 0)
(-0.0290109 -0.0632826 0)
(-0.0230765 -0.0601662 0)
(-0.017444 -0.0555198 0)
(-0.0122827 -0.0492464 0)
(-0.00777028 -0.0412815 0)
(-0.00408228 -0.0316003 0)
(-0.00144285 -0.0202231 0)
(-0.000209916 -0.00722873 0)
(-0.000225939 0.0079694 0)
(-0.00153849 0.0221787 0)
(-0.00433237 0.0345183 0)
(-0.00821627 0.044932 0)
(-0.0129454 0.053428 0)
(-0.0183308 0.0600621 0)
(-0.0241853 0.0649306 0)
(-0.0303341 0.068161 0)
(-0.0366219 0.0699022 0)
(-0.0429144 0.0703153 0)
(-0.049098 0.069565 0)
(-0.0550792 0.0678126 0)
(-0.0607836 0.0652108 0)
(-0.0661539 0.0618997 0)
(-0.0711475 0.0580046 0)
(-0.0757344 0.0536346 0)
(-0.0798948 0.048883 0)
(-0.0836166 0.0438279 0)
(-0.0868938 0.0385333 0)
(-0.0897244 0.033051 0)
(-0.092109 0.0274224 0)
(-0.0940492 0.0216802 0)
(-0.0955469 0.0158503 0)
(-0.0966035 0.0099535 0)
(-0.0972187 0.00400702 0)
(-0.0973911 -0.00197358 0)
(-0.0971169 -0.00797305 0)
(-0.0963909 -0.0139748 0)
(-0.095206 -0.0199593 0)
(-0.0935542 -0.0259022 0)
(-0.0914267 -0.031773 0)
(-0.0888154 -0.0375327 0)
(-0.085714 -0.0431321 0)
(-0.0821192 -0.0485098 0)
(-0.0780333 -0.053591 0)
(-0.0734655 -0.0582851 0)
(-0.0684351 -0.0624859 0)
(-0.0629733 -0.0660705 0)
(-0.0571266 -0.0689004 0)
(-0.0509586 -0.0708238 0)
(-0.0445525 -0.0716785 0)
(-0.0380128 -0.0712971 0)
(-0.0314658 -0.0695136 0)
(-0.0250598 -0.0661709 0)
(-0.0189636 -0.0611297 0)
(-0.0133647 -0.0542784 0)
(-0.0084608 -0.0455422 0)
(-0.00444723 -0.0348911 0)
(-0.00157217 -0.022346 0)
(-0.000228683 -0.00799375 0)
(-0.000246177 0.00878617 0)
(-0.00167546 0.0244301 0)
(-0.00471537 0.0379896 0)
(-0.00893574 0.0494039 0)
(-0.0140654 0.0586848 0)
(-0.0198945 0.0658981 0)
(-0.0262155 0.0711549 0)
(-0.0328353 0.0746015 0)
(-0.0395838 0.076408 0)
(-0.0463149 0.0767573 0)
(-0.0529063 0.0758362 0)
(-0.0592589 0.073827 0)
(-0.0652952 0.0709014 0)