/*--------------------------------*- C++ -*----------------------------------*\
  =========                 |
  \\      /  F ield         | OpenFOAM: The Open Source CFD Toolbox
   \\    /   O peration     | Website:  https://openfoam.org
    \\  /    A nd           | Version:  7
     \\/     M anipulation  |
\*---------------------------------------------------------------------------*/
FoamFile
{
    version     2.0;
    format      ascii;
    class       volScalarField;
    location    "0.0692";
    object      p;
}
// * * * * * * * * * * * * * * * * * * * * * * * * * * * * * * * * * * * * * //

dimensions      [0 2 -2 0 0 0 0];

internalField   nonuniform List<scalar> 
2500
(
1.46993e-05
-0.000504528
-0.00218086
-0.00468387
-0.00762695
-0.0106913
-0.0136328
-0.0162608
-0.0184304
-0.0200361
-0.021004
-0.0212862
-0.0208567
-0.0197077
-0.0178464
-0.0152937
-0.0120813
-0.00825088
-0.00385251
0.0010564
0.00641204
0.0121451
0.0181816
0.0244433
0.0308488
0.0373143
0.0437541
0.0500818
0.0562112
0.0620572
0.0675373
0.0725728
0.0770899
0.0810218
0.0843099
0.0869058
0.0887731
0.0898894
0.0902486
0.0898633
0.0887672
0.0870185
0.0847035
0.0819411
0.0788889
0.075748
0.0727717
0.0702708
0.0686393
0.0681656
0.000547627
2.56297e-05
-0.00134439
-0.00333115
-0.00564876
-0.00807225
-0.0104091
-0.0125004
-0.0142199
-0.0154714
-0.0161844
-0.016311
-0.0158226
-0.014707
-0.0129666
-0.010616
-0.00768061
-0.00419538
-0.000203318
0.00424538
0.00909432
0.0142817
0.0197412
0.0254026
0.0311925
0.0370352
0.0428537
0.0485702
0.0541073
0.0593889
0.0643415
0.0688956
0.0729864
0.0765558
0.0795539
0.08194
0.0836851
0.0847732
0.0852032
0.0849912
0.084172
0.0828024
0.0809625
0.0787594
0.0763294
0.0738402
0.071491
0.0695036
0.068161
0.0676918
0.00222673
0.00139896
1.70113e-05
-0.00178074
-0.00381388
-0.00590785
-0.00790858
-0.00968548
-0.0111313
-0.0121617
-0.0127131
-0.0127408
-0.012217
-0.0111289
-0.00947622
-0.00727065
-0.00453372
-0.0012959
0.0024046
0.0065227
0.0110073
0.0158023
0.0208468
0.0260767
0.0314245
0.0368208
0.0421947
0.0474747
0.0525898
0.0574704
0.0620494
0.0662635
0.0700541
0.0733689
0.0761634
0.078402
0.0800598
0.081124
0.0815957
0.0814913
0.0808444
0.0797072
0.0781519
0.0762726
0.0741857
0.0720298
0.0699643
0.0681648
0.0668154
0.0660644
0.00476205
0.00339959
0.00179254
-3.40539e-05
-0.00199674
-0.00395757
-0.00579275
-0.00739746
-0.00868334
-0.00957913
-0.0100302
-0.00999751
-0.00945624
-0.00839462
-0.0068124
-0.00471969
-0.00213582
0.000911671
0.00438796
0.00825177
0.0124561
0.0169491
0.0216747
0.0265732
0.0315821
0.0366367
0.041671
0.0466186
0.0514134
0.0559906
0.060288
0.0642465
0.0678122
0.0709366
0.0735787
0.075706
0.0772957
0.0783363
0.078829
0.0787888
0.0782458
0.0772461
0.075853
0.074147
0.0722257
0.0702022
0.0682065
0.0663794
0.064813
0.0635485
0.00779626
0.00577399
0.00382449
0.00184893
-0.000162356
-0.00210101
-0.0038687
-0.0053844
-0.00657804
-0.0073918
-0.00778073
-0.0077124
-0.0071664
-0.00613333
-0.00461382
-0.00261765
-0.000162882
0.00272497
0.00601365
0.00966491
0.0136352
0.0178763
0.022336
0.0269586
0.0316858
0.0364571
0.0412107
0.0458842
0.0504157
0.0547444
0.0588117
0.0625623
0.0659453
0.0689154
0.0714337
0.0734695
0.075001
0.0760169
0.0765172
0.0765142
0.0760336
0.0751147
0.0738111
0.0721903
0.0703319
0.0683264
0.0662792
0.0643036
0.0624037
0.0604993
0.0110558
0.0083226
0.00595769
0.0037477
0.00159794
-0.000405911
-0.00218628
-0.00368296
-0.00484265
-0.00562036
-0.00598094
-0.00589916
-0.00535962
-0.00435617
-0.00289117
-0.000974947
0.00137488
0.00413396
0.00727188
0.0107527
0.0145355
0.0185751
0.0228225
0.0272254
0.0317288
0.0362757
0.0408076
0.0452657
0.0495912
0.0537263
0.0576155
0.0612059
0.0644489
0.0673008
0.0697243
0.0716892
0.0731738
0.0741656
0.0746627
0.0746739
0.0742197
0.0733325
0.0720565
0.0704466
0.0685669
0.066488
0.0642962
0.0620839
0.059774
0.0571751
0.0143331
0.0108764
0.00805441
0.00555097
0.00319628
0.00105981
-0.000797041
-0.00233176
-0.0035058
-0.00428602
-0.00464665
-0.00456973
-0.00404524
-0.00307074
-0.00165099
0.000202483
0.00247176
0.00513299
0.00815686
0.0115091
0.0151507
0.019039
0.0231273
0.0273661
0.0317031
0.0360839
0.040453
0.0447538
0.0489301
0.0529264
0.056689
0.0601667
0.0633122
0.0660827
0.0684411
0.0703569
0.0718075
0.0727787
0.0732654
0.0732727
0.0728157
0.0719197
0.07062
0.0689606
0.0669918
0.0647682
0.0623616
0.05985
0.0570852
0.0537768
0.0174668
0.0132938
0.0099943
0.00715986
0.00455467
0.00223724
0.000256711
-0.00135909
-0.00258442
-0.0033967
-0.00377894
-0.00372019
-0.00321585
-0.00226748
-0.000882609
0.000925507
0.00313813
0.00573131
0.00867627
0.0119397
0.0154843
0.0192687
0.0232485
0.0273759
0.0316009
0.0358711
0.0401329
0.0443317
0.048413
0.0523226
0.0560079
0.0594188
0.0625081
0.0652332
0.0675563
0.069446
0.0708777
0.0718347
0.0723087
0.0723003
0.0718192
0.0708839
0.0695216
0.0677667
0.0656581
0.0632375
0.0605663
0.0577139
0.0544697
0.050455
0.0203305
0.015457
0.0116719
0.00848354
0.00559757
0.00306553
0.000927564
-0.000800632
-0.00210421
-0.00296997
-0.00338885
-0.00335655
-0.00287373
-0.00194606
-0.000584065
0.00119692
0.00337692
0.00593144
0.00883174
0.0120451
0.015535
0.0192613
0.023181
0.0272477
0.0314128
0.0356256
0.0398337
0.0439838
0.0480222
0.0518956
0.0555519
0.0589408
0.062015
0.0647309
0.0670495
0.0689376
0.0703681
0.0713213
0.0717851
0.0717554
0.0712366
0.0702407
0.0687876
0.0669035
0.0646181
0.0619627
0.0589922
0.0557715
0.0520353
0.047325
0.022824
0.0172666
0.0129945
0.00943872
0.00625234
0.00348292
0.00116416
-0.00069821
-0.00209864
-0.00303209
-0.0034967
-0.00349428
-0.00303059
-0.00211533
-0.000762193
0.0010112
0.0031833
0.00572875
0.00861843
0.0118197
0.0152965
0.0190094
0.0229162
0.0269715
0.0311276
0.0353348
0.0395415
0.0436949
0.0477418
0.051629
0.055304
0.058716
0.0618166
0.0645607
0.0669074
0.0688209
0.0702713
0.0712351
0.0716962
0.0716456
0.0710824
0.0700127
0.0684498
0.066413
0.0639243
0.0610074
0.0577131
0.0541055
0.0498702
0.0444752
0.0248642
0.0186373
0.0138791
0.00994835
0.00644931
0.00342783
0.000913084
-0.00109747
-0.00260621
-0.00361525
-0.00412918
-0.0041555
-0.00370476
-0.00279066
-0.0014301
0.000356862
0.00254691
0.00511347
0.00802678
0.0112539
0.0147588
0.0185023
0.0224427
0.026535
0.0307322
0.0349849
0.0392417
0.04345
0.0475565
0.0515073
0.0552492
0.05873
0.0618998
0.0647114
0.0671211
0.0690901
0.070585
0.0715783
0.0720492
0.0719842
0.0713767
0.0702274
0.0685436
0.0663388
0.0636289
0.0604316
0.0567963
0.0527884
0.0480486
0.0419758
0.0263792
0.0194927
0.0142499
0.00993999
0.00612107
0.00283879
0.000119195
-0.0020472
-0.00366965
-0.00475659
-0.00531844
-0.00536798
-0.00492035
-0.00399312
-0.00260641
-0.00078282
0.00145238
0.00407122
0.00704295
0.0103341
0.0139082
0.0177263
0.0217464
0.025924
0.0302119
0.0345607
0.038919
0.0432339
0.0474512
0.0515161
0.0553739
0.0589708
0.0622544
0.0651749
0.0676854
0.0697435
0.0713116
0.0723578
0.0728566
0.0727893
0.0721439
0.0709158
0.0691072
0.0667261
0.0637837
0.0602932
0.0563043
0.0518856
0.0466353
0.0398852
0.0273036
0.0197626
0.0140358
0.00934419
0.00520144
0.00165394
-0.0012744
-0.00359912
-0.00533552
-0.00649773
-0.00710156
-0.00716474
-0.00670679
-0.0057491
-0.00431497
-0.00242964
-0.000120438
0.00258304
0.00564889
0.00904276
0.0127278
0.0166644
0.0208106
0.0251214
0.0295497
0.0340456
0.0385572
0.0430306
0.0474107
0.0516413
0.0556656
0.0594276
0.0628721
0.0659458
0.0685983
0.0707829
0.0724574
0.0735851
0.0741351
0.0740834
0.0734128
0.0721132
0.0701817
0.0676222
0.0644414
0.0606495
0.0562972
0.0514582
0.0456892
0.0382557
0.0275751
0.0193795
0.0131677
0.00809271
0.00362435
-0.000189596
-0.00332669
-0.00580788
-0.00765402
-0.0088845
-0.00952019
-0.00958357
-0.00909842
-0.00808985
-0.00658439
-0.00460996
-0.00219609
0.000625867
0.00382265
0.00735889
0.0111969
0.0152967
0.0196155
0.0241082
0.0287269
0.0334212
0.0381384
0.0428234
0.0474196
0.0518689
0.0561123
0.0600908
0.063746
0.0670207
0.0698604
0.0722133
0.0740324
0.0752752
0.0759055
0.0758934
0.0752161
0.0738582
0.071812
0.069077
0.0656565
0.0615581
0.0568348
0.0515661
0.0452673
0.0371366
0.0271318
0.0182769
0.011577
0.00611697
0.00132262
-0.00275656
-0.00609919
-0.0087313
-0.010679
-0.0119667
-0.0126203
-0.0126667
-0.012134
-0.011051
-0.00944751
-0.00735425
-0.00480304
-0.00182708
0.00153883
0.00525815
0.00929229
0.0136004
0.0181392
0.0228629
0.0277228
0.0326678
0.0376438
0.0425947
0.0474618
0.0521848
0.0567022
0.0609515
0.0648707
0.0683981
0.0714743
0.0740424
0.0760494
0.0774469
0.0781924
0.0782499
0.0775906
0.0761936
0.0740461
0.0711437
0.0674862
0.0630791
0.0579784
0.0522699
0.0454268
0.0365782
0.0259102
0.0163865
0.00919352
0.00334667
-0.00177309
-0.00611429
-0.00965649
-0.0124307
-0.0144681
-0.0157983
-0.0164518
-0.0164604
-0.0158563
-0.0146722
-0.0129411
-0.0106968
-0.00797329
-0.00480597
-0.00123116
0.00271327
0.00698772
0.0115505
0.0163575
0.0213621
0.0265149
0.0317637
0.0370532
0.0423256
0.0475203
0.0525745
0.0574234
0.0620012
0.0662413
0.0700774
0.0734446
0.0762799
0.0785239
0.0801217
0.0810238
0.0811874
0.0805773
0.0791664
0.0769368
0.0738797
0.0699918
0.0652763
0.0597925
0.0536335
0.0462282
0.036634
0.0238435
0.0136375
0.00594453
-0.000291392
-0.00573521
-0.0103335
-0.0140668
-0.0169711
-0.019083
-0.0204371
-0.0210689
-0.0210151
-0.0203121
-0.0189967
-0.0171055
-0.014675
-0.011742
-0.0083438
-0.00451857
-0.000305478
0.00425475
0.00911949
0.0142439
0.0195804
0.0250789
0.0306859
0.036345
0.0419964
0.0475775
0.0530226
0.0582638
0.0632312
0.0678535
0.0720591
0.0757768
0.0789372
0.0814738
0.0833242
0.0844312
0.0847444
0.0842214
0.0828284
0.0805417
0.0773478
0.0732397
0.0682186
0.0623471
0.0557257
0.0477371
0.0373628
0.0208604
0.00995484
0.00175306
-0.00487453
-0.0106404
-0.0154891
-0.0194025
-0.0224218
-0.0245893
-0.0259448
-0.0265294
-0.0263845
-0.0255515
-0.0240711
-0.0219837
-0.019329
-0.0161466
-0.0124758
-0.0083567
-0.00382976
0.00106315
0.00627848
0.0117706
0.0174912
0.0233892
0.0294101
0.0354962
0.041586
0.0476145
0.0535132
0.0592107
0.0646327
0.0697029
0.0743438
0.0784776
0.0820276
0.0849193
0.0870817
0.0884495
0.0889634
0.0885729
0.0872366
0.0849242
0.0816167
0.0773031
0.0719818
0.0657189
0.0586226
0.0500264
0.0388311
0.016884
0.00525795
-0.00346317
-0.0104853
-0.0165703
-0.0216611
-0.0257409
-0.0288568
-0.031057
-0.0323875
-0.0328947
-0.0326259
-0.0316274
-0.0299444
-0.0276212
-0.0247012
-0.0212265
-0.0172389
-0.0127803
-0.00789246
-0.00261844
0.0029974
0.00890869
0.0150666
0.0214191
0.027911
0.0344832
0.0410725
0.0476117
0.0540295
0.0602507
0.0661964
0.0717851
0.0769328
0.0815546
0.0855654
0.0888821
0.0914244
0.093117
0.0938913
0.093687
0.092454
0.0901543
0.0867626
0.0822628
0.07665
0.0699935
0.0624094
0.0531782
0.041115
0.0118307
-0.000540289
-0.00979294
-0.0172127
-0.0236129
-0.0289354
-0.0331648
-0.0363551
-0.038561
-0.039835
-0.0402302
-0.0397998
-0.0385955
-0.0366678
-0.0340654
-0.030835
-0.027022
-0.0226706
-0.0178244
-0.0125268
-0.00682164
-0.000754035
0.00562913
0.0122785
0.0191418
0.0261628
0.0332815
0.0404333
0.0475489
0.0545539
0.0613697
0.0679127
0.0740954
0.0798273
0.0850155
0.0895661
0.0933861
0.0963847
0.0984757
0.0995792
0.0996242
0.0985501
0.0963098
0.0928703
0.0882092
0.0823174
0.075267
0.067182
0.057286
0.0443019
0.00560922
-0.00753486
-0.0173329
-0.0251532
-0.0318636
-0.0374046
-0.0417635
-0.0450014
-0.0471809
-0.0483618
-0.0486045
-0.047969
-0.0465136
-0.0442941
-0.041364
-0.0377742
-0.0335733
-0.028808
-0.0235237
-0.0177652
-0.0115772
-0.00500524
0.00190355
0.00909969
0.0165306
0.02414
0.0318671
0.0396459
0.0474054
0.0550687
0.0625534
0.0697712
0.0766288
0.0830285
0.0888687
0.0940461
0.0984567
0.101998
0.104571
0.106083
0.106451
0.105602
0.103477
0.100034
0.0952434
0.08909
0.0816482
0.0730496
0.0624565
0.0484926
-0.00188059
-0.0158298
-0.0261887
-0.0344125
-0.0414261
-0.0471695
-0.0516331
-0.0548866
-0.0570015
-0.058046
-0.0580892
-0.0571989
-0.0554405
-0.0528762
-0.0495649
-0.0455618
-0.0409191
-0.0356863
-0.0299107
-0.023638
-0.0169137
-0.00978352
-0.00229439
0.00550448
0.0135609
0.0218185
0.0302165
0.0386882
0.0471611
0.055556
0.0637871
0.0717616
0.0793801
0.0865374
0.093123
0.0990229
0.104121
0.108302
0.111453
0.113465
0.114241
0.113694
0.111752
0.10836
0.10348
0.0970878
0.0892606
0.0801369
0.0688121
0.0538035
-0.0107488
-0.0255399
-0.0364768
-0.0451065
-0.0524142
-0.0583398
-0.0628781
-0.0661086
-0.0681131
-0.0689704
-0.068759
-0.0675561
-0.0654355
-0.0624664
-0.0587139
-0.0542383
-0.0490955
-0.0433377
-0.0370142
-0.0301717
-0.022856
-0.0151124
-0.00698752
0.00147051
0.0102103
0.0191765
0.0283084
0.0375396
0.0467967
0.0559986
0.0650566
0.0738735
0.082344
0.0903552
0.0977871
0.104514
0.110408
0.115337
0.119173
0.121791
0.123075
0.122921
0.121241
0.117967
0.113046
0.106447
0.0982448
0.0885862
0.0764935
0.060369
-0.0211169
-0.0367921
-0.0483265
-0.0573637
-0.0649532
-0.0710358
-0.0756117
-0.0787723
-0.0806119
-0.0812211
-0.0806905
-0.0791079
-0.0765567
-0.0731148
-0.0688539
-0.06384
-0.0581333
-0.0517888
-0.0448575
-0.037387
-0.029423
-0.0210101
-0.0121934
-0.00301972
0.00646134
0.016196
0.0261249
0.0361824
0.046295
0.0563807
0.0663483
0.0760968
0.0855153
0.0944829
0.10287
0.110539
0.117347
0.123146
0.12779
0.131134
0.133041
0.133388
0.132065
0.128988
0.124088
0.117322
0.108762
0.098561
0.0856625
0.0683443
-0.0331197
-0.0497281
-0.0618819
-0.0713271
-0.0791822
-0.0853898
-0.0899576
-0.0929911
-0.0945995
-0.0948883
-0.0939617
-0.0919207
-0.0888601
-0.0848673
-0.0800223
-0.0743971
-0.0680565
-0.0610586
-0.053456
-0.0452968
-0.0366259
-0.0274867
-0.0179222
-0.00797684
0.00230249
0.0128646
0.0236526
0.0346024
0.0456418
0.0566887
0.0676503
0.0784225
0.0888891
0.0989219
0.108381
0.117117
0.12497
0.131775
0.137365
0.141572
0.144236
0.145208
0.144357
0.141574
0.136771
0.129889
0.120996
0.11025
0.096506
0.0779085
-0.0469077
-0.064507
-0.0773051
-0.0871573
-0.0952565
-0.101549
-0.106051
-0.108887
-0.110184
-0.110065
-0.108651
-0.106059
-0.102397
-0.0977638
-0.0922486
-0.0859305
-0.0788792
-0.0711558
-0.0628143
-0.0539028
-0.0444651
-0.0345423
-0.0241745
-0.0134024
-0.0022693
0.00917746
0.0208846
0.0327914
0.0448276
0.0569125
0.068953
0.0808429
0.0924614
0.103674
0.11433
0.124266
0.133308
0.14127
0.147961
0.153189
0.156765
0.158511
0.158266
0.155894
0.151282
0.14435
0.135159
0.123869
0.10924
0.0892691
-0.06265
-0.0813094
-0.0947805
-0.105036
-0.113351
-0.119676
-0.124041
-0.126592
-0.127478
-0.126845
-0.124835
-0.121582
-0.117212
-0.111835
-0.105552
-0.0984494
-0.0906025
-0.0820755
-0.0729234
-0.0631936
-0.0529278
-0.042164
-0.0309382
-0.0192863
-0.00724647
0.00513927
0.0178228
0.030748
0.0438486
0.0570466
0.0702503
0.0833525
0.0962295
0.10874
0.120725
0.132007
0.142395
0.151681
0.159649
0.166076
0.170743
0.173435
0.173957
0.172138
0.167835
0.160937
0.151495
0.13967
0.124114
0.102666
-0.080539
-0.100342
-0.11452
-0.125172
-0.133663
-0.139954
-0.144091
-0.146248
-0.146602
-0.145327
-0.142588
-0.138545
-0.133339
-0.127099
-0.119937
-0.111947
-0.103211
-0.0937959
-0.0837569
-0.0731402
-0.0619843
-0.0503229
-0.0381863
-0.0256043
-0.0126083
0.000766608
0.0144793
0.02848
0.0427086
0.0570916
0.0715404
0.0859489
0.100192
0.114123
0.127575
0.140358
0.152262
0.163057
0.172498
0.18033
0.186294
0.190136
0.191617
0.190523
0.186671
0.179915
0.170287
0.157944
0.14142
0.118378
-0.100796
-0.121846
-0.136768
-0.147804
-0.156421
-0.16259
-0.166384
-0.168009
-0.16768
-0.165604
-0.161978
-0.156988
-0.150799
-0.143558
-0.135389
-0.126397
-0.116669
-0.106274
-0.0952678
-0.0836934
-0.0715852
-0.0589708
-0.0458735
-0.0323152
-0.0183186
-0.00390987
0.0108787
0.0260063
0.0414205
0.0570551
0.0728268
0.0886329
0.104349
0.119826
0.134889
0.149337
0.162941
0.175448
0.186582
0.196051
0.203552
0.208782
0.211451
0.211292
0.208069
0.201592
0.191864
0.179033
0.161499
0.136732
-0.123678
-0.146101
-0.161813
-0.173214
-0.181885
-0.187819
-0.19112
-0.19204
-0.19084
-0.187769
-0.183064
-0.176942
-0.169596
-0.161192
-0.151872
-0.141749
-0.130915
-0.119442
-0.107384
-0.0947797
-0.0816576
-0.0680376
-0.0539339
-0.0393584
-0.0243232
-0.00884333
0.00706027
0.0233578
0.0400076
0.0569529
0.074119
0.0914094
0.108703
0.12585
0.142672
0.158957
0.174459
0.188901
0.201973
0.213343
0.222658
0.229558
0.233689
0.23472
0.232348
0.226323
0.21661
0.203337
0.184751
0.158108
-0.14949
-0.173445
-0.19
-0.201732
-0.210361
-0.215908
-0.218523
-0.218519
-0.216212
-0.211908
-0.205889
-0.198414
-0.189706
-0.179955
-0.169318
-0.15792
-0.145857
-0.133202
-0.120004
-0.106298
-0.0921022
-0.077428
-0.0622779
-0.0466517
-0.0305482
-0.013969
0.00307883
0.0205793
0.0385043
0.05681
0.0754331
0.0942868
0.113257
0.132198
0.150928
0.169228
0.186839
0.203457
0.218741
0.232311
0.24376
0.25266
0.258583
0.261116
0.259872
0.254523
0.244976
0.231329
0.211652
0.182958
-0.178598
-0.204285
-0.221741
-0.233753
-0.242207
-0.247166
-0.248845
-0.247633
-0.243925
-0.238092
-0.230478
-0.221385
-0.211075
-0.199765
-0.187626
-0.174794
-0.161369
-0.147421
-0.132994
-0.118114
-0.10279
-0.0870193
-0.0707908
-0.0540895
-0.0368985
-0.0192032
-0.000993992
0.0177299
0.0369571
0.0566601
0.0767909
0.0972765
0.118014
0.138865
0.159652
0.180152
0.200092
0.219149
0.236946
0.253056
0.267008
0.2783
0.286412
0.290829
0.291061
0.286673
0.277495
0.263575
0.24277
0.211819
-0.211449
-0.23912
-0.257544
-0.269757
-0.277848
-0.281949
-0.282362
-0.279581
-0.274101
-0.266377
-0.256823
-0.245801
-0.233611
-0.220497
-0.20665
-0.192211
-0.177282
-0.161928
-0.146183
-0.130063
-0.113561
-0.09666
-0.0793313
-0.0615421
-0.0432573
-0.024443
-0.00506996
0.0148826
0.0354234
0.0565452
0.0782194
0.100392
0.122975
0.145846
0.168834
0.191717
0.214218
0.235994
0.256635
0.275667
0.292551
0.306696
0.317475
0.324251
0.326397
0.323341
0.314804
0.300754
0.27879
0.245336
-0.248602
-0.278577
-0.298039
-0.310327
-0.317793
-0.320668
-0.319381
-0.314566
-0.306846
-0.296784
-0.28488
-0.271558
-0.257167
-0.241976
-0.226193
-0.209962
-0.193382
-0.176507
-0.159361
-0.141941
-0.124223
-0.106169
-0.0877316
-0.0688567
-0.0494874
-0.0295677
-0.00904566
0.0121227
0.0339702
0.0565134
0.0797482
0.103644
0.128136
0.153121
0.178444
0.203894
0.229192
0.253984
0.277834
0.300217
0.320525
0.338067
0.352093
0.361815
0.366433
0.365195
0.357664
0.343691
0.320552
0.284293
-0.290762
-0.323452
-0.34402
-0.356186
-0.362651
-0.363798
-0.360236
-0.352787
-0.34224
-0.329291
-0.314542
-0.298492
-0.281532
-0.263962
-0.245997
-0.227781
-0.209402
-0.1909
-0.172277
-0.153509
-0.134549
-0.115337
-0.0958
-0.0758593
-0.0554335
-0.0344415
-0.0128056
0.00954492
0.0326702
0.0566153
0.0814054
0.107039
0.133482
0.160658
0.188436
0.216626
0.244958
0.273078
0.300528
0.326742
0.351039
0.372623
0.390599
0.403998
0.411802
0.413021
0.406998
0.393402
0.369095
0.329659
-0.338847
-0.374778
-0.3965
-0.408234
-0.413157
-0.411886
-0.405282
-0.394426
-0.380314
-0.363809
-0.345632
-0.326355
-0.306418
-0.286139
-0.265736
-0.245341
-0.225023
-0.204796
-0.184637
-0.164492
-0.144287
-0.123931
-0.103324
-0.082359
-0.060927
-0.0389185
-0.0162271
0.00724776
0.0315972
0.0568989
0.0832123
0.110572
0.138981
0.168398
0.198731
0.229818
0.261417
0.293182
0.324652
0.355227
0.384159
0.410543
0.433323
0.451313
0.463226
0.467752
0.463929
0.451151
0.425726
0.382649
-0.394066
-0.433915
-0.456794
-0.467604
-0.470197
-0.465549
-0.454883
-0.439619
-0.421024
-0.400155
-0.377863
-0.354798
-0.331437
-0.308104
-0.285004
-0.262246
-0.239865
-0.21784
-0.19611
-0.174586
-0.153157
-0.131698
-0.110077
-0.0881553
-0.065793
-0.0428496
-0.0191873
0.00532701
0.0308187
0.0574022
0.0851762
0.114218
0.144574
0.176252
0.209207
0.243326
0.278405
0.314133
0.35006
0.385574
0.419874
0.451948
0.480568
0.504298
0.521513
0.530492
0.52984
0.518536
0.492121
0.444816
-0.458058
-0.502694
-0.526625
-0.535727
-0.534835
-0.525472
-0.509378
-0.488423
-0.464206
-0.438009
-0.410815
-0.383342
-0.356083
-0.32935
-0.303311
-0.278032
-0.253496
-0.229633
-0.206334
-0.183461
-0.160863
-0.138375
-0.115827
-0.0930467
-0.0698593
-0.0460916
-0.0215723
0.00386644
0.0303872
0.0581444
0.0872807
0.117922
0.150168
0.184085
0.21969
0.256935
0.29568
0.335671
0.3765
0.417571
0.458055
0.496854
0.532567
0.563476
0.587552
0.602537
0.606436
0.5976
0.57047
0.51819
-0.533097
-0.583627
-0.608289
-0.614416
-0.608325
-0.592377
-0.569034
-0.540747
-0.509517
-0.476861
-0.443885
-0.411344
-0.379714
-0.349256
-0.320074
-0.292161
-0.265429
-0.239738
-0.214918
-0.190775
-0.167106
-0.143701
-0.120351
-0.0968427
-0.0729681
-0.0485187
-0.0232884
0.00292716
0.0303293
0.0591152
0.0894755
0.12159
0.155621
0.191703
0.229932
0.270345
0.312892
0.357408
0.403569
0.450836
0.4984
0.545111
0.589416
0.629308
0.662281
0.685397
0.695833
0.690995
0.6637
0.605503
-0.622438
-0.680236
-0.70487
-0.705964
-0.692118
-0.666961
-0.633948
-0.59626
-0.556345
-0.515945
-0.476241
-0.437967
-0.401526
-0.367079
-0.33462
-0.304034
-0.275135
-0.247695
-0.221465
-0.196185
-0.171593
-0.14743
-0.123442
-0.0993768
-0.0749889
-0.0500349
-0.0242736
0.00253598
0.0306347
0.0602642
0.0916655
0.125077
0.16073
0.198841
0.239599
0.283147
0.329558
0.378796
0.430669
0.484761
0.540348
0.596302
0.650975
0.702089
0.746618
0.780786
0.800651
0.802212
0.775816
0.710551
-0.730918
-0.797571
-0.820544
-0.813227
-0.787795
-0.749762
-0.703896
-0.654244
-0.603694
-0.554145
-0.506755
-0.462141
-0.420543
-0.381949
-0.34619
-0.312998
-0.28206
-0.253035
-0.225584
-0.199367
-0.17406
-0.14935
-0.124934
-0.100522
-0.0758326
-0.0505871
-0.0245103
0.00267392
0.0312455
0.06149
0.0937003
0.128177
0.165225
0.205151
0.248253
0.294805
0.345035
0.399083
0.456953
0.518431
0.582983
0.649615
0.7167
0.78178
0.841314
0.890556
0.924101
0.935888
0.912442
0.838832
-0.866039
-0.943032
-0.960979
-0.939672
-0.896909
-0.84091
-0.778083
-0.713381
-0.650025
-0.589895
-0.533949
-0.482533
-0.435602
-0.392878
-0.353954
-0.318369
-0.285644
-0.255308
-0.226914
-0.200039
-0.174289
-0.149296
-0.124711
-0.100207
-0.0754652
-0.0501774
-0.0240366
0.00326599
0.0320464
0.0626324
0.0953672
0.130613
0.168753
0.21019
0.255344
0.304642
0.358496
0.417279
0.481261
0.550537
0.624899
0.703665
0.785426
0.867741
0.946694
1.01652
1.07002
1.09821
1.08167
0.998695
-1.04005
-1.12767
-1.1338
-1.08928
-1.02061
-0.939706
-0.854764
-0.771474
-0.693065
-0.621061
-0.555936
-0.497538
-0.445373
-0.398782
-0.357049
-0.319465
-0.285358
-0.254109
-0.225153
-0.197981
-0.172129
-0.147174
-0.122728
-0.0984248
-0.0739184
-0.0488723
-0.0229533
0.00417539
0.0328613
0.0634695
0.0963896
0.132043
0.170888
0.213428
0.260211
0.311832
0.368923
0.432131
0.502079
0.57929
0.664058
0.75627
0.855037
0.958321
1.06219
1.16006
1.24277
1.29739
1.29542
1.20355
-1.2742
-1.3682
-1.34887
-1.26599
-1.15887
-1.04386
-0.930665
-0.825052
-0.729578
-0.644837
-0.570388
-0.505285
-0.448388
-0.398532
-0.354619
-0.31565
-0.28074
-0.249111
-0.220083
-0.193059
-0.167513
-0.142974
-0.119016
-0.0952472
-0.0712966
-0.0468075
-0.021427
0.00520273
0.0334534
0.0637204
0.0964321
0.132061
0.171137
0.214256
0.262095
0.315423
0.37511
0.442121
0.517507
0.602347
0.697651
0.804168
0.922035
1.05022
1.18552
1.32126
1.44662
1.54393
1.57146
1.47635
-1.60749
-1.68998
-1.6178
-1.47203
-1.30868
-1.1481
-1.00004
-0.868811
-0.755075
-0.65762
-0.574515
-0.503669
-0.44309
-0.391002
-0.345866
-0.306375
-0.271429
-0.240096
-0.21159
-0.185242
-0.160471
-0.136772
-0.113693
-0.0908226
-0.0677762
-0.0441856
-0.0196867
0.00609016
0.0335316
0.0630527
0.0951097
0.130215
0.168954
0.212003
0.260157
0.314351
0.37569
0.44548
0.525247
0.616741
0.721897
0.842707
0.980923
1.13746
1.31119
1.49698
1.68393
1.85002
1.93649
1.85874
-2.11197
-2.13072
-1.95202
-1.70482
-1.46138
-1.24235
-1.05364
-0.895164
-0.763705
-0.655076
-0.5652
-0.490498
-0.427975
-0.375182
-0.330139
-0.291246
-0.257212
-0.226981
-0.199688
-0.17461
-0.151135
-0.128738
-0.106956
-0.0853713
-0.0635974
-0.0412649
-0.0180096
0.00653912
0.0327711
0.061108
0.092019
0.126038
0.163787
0.205999
0.253557
0.307533
0.369241
0.440304
0.522729
0.618992
0.73211
0.86567
1.02373
1.21038
1.42862
1.67811
1.95197
2.22761
2.42966
2.42626
-2.91847
-2.74061
-2.35923
-1.95486
-1.60153
-1.31165
-1.07944
-0.895286
-0.749366
-0.633174
-0.53989
-0.464239
-0.40219
-0.35067
-0.307325
-0.270336
-0.238279
-0.210028
-0.184677
-0.161484
-0.139834
-0.119201
-0.099129
-0.07921
-0.0590675
-0.0383437
-0.0166859
0.0062659
0.030891
0.0576029
0.0868656
0.119213
0.155276
0.19581
0.241744
0.294233
0.354736
0.425119
0.507797
0.605921
0.723621
0.866296
1.04092
1.25615
1.52201
1.84837
2.24047
2.68437
3.10193
3.31316
-4.32378
-3.56009
-2.81524
-2.18883
-1.69858
-1.33219
-1.06114
-0.8589
-0.705956
-0.588519
-0.49688
-0.424203
-0.365643
-0.317712
-0.277855
-0.244162
-0.215183
-0.18979
-0.167095
-0.146378
-0.127049
-0.108609
-0.0906275
-0.0727204
-0.0545358
-0.0357393
-0.0160016
0.00501338
0.0276616
0.0523323
0.0794648
0.109569
0.14325
0.181247
0.224475
0.274096
0.331609
0.398986
0.47887
0.574868
0.691991
0.837304
1.02085
1.25687
1.56557
1.9746
2.51375
3.19364
3.99338
4.82422
-7.15779
-4.55833
-3.13903
-2.2525
-1.64488
-1.2339
-0.954236
-0.757752
-0.61516
-0.508816
-0.427565
-0.364122
-0.313603
-0.272633
-0.238813
-0.210385
-0.186034
-0.164746
-0.14573
-0.128346
-0.112073
-0.0964706
-0.0811581
-0.0657981
-0.0500804
-0.0337106
-0.0163978
0.00215354
0.0222578
0.0442588
0.0685455
0.0955696
0.12587
0.160107
0.199101
0.243903
0.295884
0.356874
0.429375
0.516906
0.624552
0.759898
0.934566
1.16691
1.48727
1.94592
2.61231
3.57103
5.0765
7.79533
-12.0262
-5.64112
-2.97473
-1.87573
-1.27855
-0.923733
-0.704015
-0.558142
-0.454968
-0.378735
-0.320618
-0.275221
-0.23904
-0.209677
-0.185423
-0.165014
-0.147491
-0.13211
-0.118276
-0.105511
-0.0934127
-0.081644
-0.069909
-0.0579433
-0.0455028
-0.0323545
-0.0182694
-0.00301149
0.0136672
0.0320377
0.0524044
0.0751192
0.100598
0.129346
0.161986
0.199307
0.242329
0.292398
0.351347
0.421743
0.507331
0.613847
0.750605
0.934007
1.19601
1.60044
2.2638
3.45765
6.2411
12.7519
)
;

boundaryField
{
    movingWall
    {
        type            zeroGradient;
    }
    fixedWalls
    {
        type            zeroGradient;
    }
    frontAndBack
    {
        type            empty;
    }
}


// ************************************************************************* //
