/*--------------------------------*- C++ -*----------------------------------*\
  =========                 |
  \\      /  F ield         | OpenFOAM: The Open Source CFD Toolbox
   \\    /   O peration     | Website:  https://openfoam.org
    \\  /    A nd           | Version:  7
     \\/     M anipulation  |
\*---------------------------------------------------------------------------*/
FoamFile
{
    version     2.0;
    format      ascii;
    class       surfaceScalarField;
    location    "0.0692";
    object      phi;
}
// * * * * * * * * * * * * * * * * * * * * * * * * * * * * * * * * * * * * * //

dimensions      [0 3 -1 0 0 0 0];

internalField   nonuniform List<scalar> 
4900
(
1.12917e-09
-1.13801e-09
2.29488e-09
-1.16577e-09
2.35768e-09
-6.28355e-11
9.19069e-10
1.4387e-09
-2.09977e-09
3.01882e-09
-6.6149e-09
4.5151e-09
-1.24628e-08
5.84786e-09
-1.94441e-08
6.98138e-09
-2.73469e-08
7.90273e-09
-3.59572e-08
8.61039e-09
-4.50664e-08
9.10913e-09
-5.44737e-08
9.40732e-09
-6.39892e-08
9.51548e-09
-7.34346e-08
9.44542e-09
-8.26443e-08
9.2097e-09
-9.14656e-08
8.82131e-09
-9.97591e-08
8.29347e-09
-1.07399e-07
7.63952e-09
-1.14271e-07
6.87284e-09
-1.20278e-07
6.00689e-09
-1.25333e-07
5.05521e-09
-1.29365e-07
4.03149e-09
-1.32315e-07
2.94961e-09
-1.34138e-07
1.82376e-09
-1.34807e-07
6.68444e-10
-1.34305e-07
-5.01383e-10
-1.32635e-07
-1.67033e-09
-1.29813e-07
-2.82254e-09
-1.25871e-07
-3.94167e-09
-1.2086e-07
-5.01097e-09
-1.14847e-07
-6.01331e-09
-1.07915e-07
-6.93134e-09
-1.00168e-07
-7.74765e-09
-9.17226e-08
-8.44491e-09
-8.27165e-08
-9.00614e-09
-7.33015e-08
-9.415e-09
-6.36454e-08
-9.65603e-09
-5.39304e-08
-9.71504e-09
-4.43509e-08
-9.57952e-09
-3.51118e-08
-9.23903e-09
-2.64259e-08
-8.68589e-09
-1.851e-08
-7.91594e-09
-1.158e-08
-6.93002e-09
-5.84357e-09
-5.73638e-09
-1.48781e-09
-4.35576e-09
1.345e-09
-2.83281e-09
2.59955e-09
-1.25454e-09
2.37533e-09
2.24283e-10
1.1309e-09
1.24454e-09
1.13102e-09
1.17401e-09
-2.31206e-09
1.30953e-09
-1.30129e-09
-1.23383e-09
2.4806e-09
-7.22922e-09
7.43412e-09
-1.69094e-08
1.2699e-08
-3.01656e-08
1.77713e-08
-4.66846e-08
2.23669e-08
-6.60365e-08
2.63333e-08
-8.77288e-08
2.9595e-08
-1.11241e-07
3.2123e-08
-1.36049e-07
3.39164e-08
-1.61634e-07
3.49924e-08
-1.87498e-07
3.53802e-08
-2.13169e-07
3.5116e-08
-2.382e-07
3.42413e-08
-2.6218e-07
3.28009e-08
-2.84728e-07
3.08414e-08
-3.055e-07
2.84111e-08
-3.24186e-07
2.55592e-08
-3.40515e-07
2.23356e-08
-3.5425e-07
1.87911e-08
-3.65196e-07
1.49772e-08
-3.73193e-07
1.09464e-08
-3.78121e-07
6.75236e-09
-3.79903e-07
2.45012e-09
-3.78501e-07
-1.90393e-09
-3.73919e-07
-6.25178e-09
-3.66208e-07
-1.05339e-08
-3.5546e-07
-1.46891e-08
-3.41816e-07
-1.8655e-08
-3.25461e-07
-2.23684e-08
-3.06627e-07
-2.57652e-08
-2.85593e-07
-2.87818e-08
-2.62683e-07
-3.13553e-08
-2.38265e-07
-3.34245e-08
-2.12748e-07
-3.49313e-08
-1.86583e-07
-3.58217e-08
-1.6025e-07
-3.60472e-08
-1.34263e-07
-3.55669e-08
-1.09153e-07
-3.43492e-08
-8.54641e-08
-3.23748e-08
-6.37392e-08
-2.96408e-08
-4.45028e-08
-2.61664e-08
-2.82362e-08
-2.20029e-08
-1.53421e-08
-1.72499e-08
-6.09045e-09
-1.20844e-08
-5.33381e-10
-6.81168e-09
1.6439e-09
-1.95315e-09
1.25575e-09
1.63249e-09
2.38683e-09
1.20772e-10
-2.43286e-09
-2.37604e-09
1.19565e-09
-9.06848e-09
9.17304e-09
-2.07508e-08
1.91165e-08
-3.76672e-08
2.96153e-08
-5.96723e-08
3.97764e-08
-8.63529e-08
4.90476e-08
-1.17123e-07
5.71038e-08
-1.51294e-07
6.37659e-08
-1.8812e-07
6.89489e-08
-2.26834e-07
7.26304e-08
-2.66671e-07
7.48295e-08
-3.06885e-07
7.55938e-08
-3.46759e-07
7.49904e-08
-3.85617e-07
7.30993e-08
-4.22826e-07
7.00101e-08
-4.57803e-07
6.58183e-08
-4.90016e-07
6.0624e-08
-5.18987e-07
5.45306e-08
-5.44296e-07
4.76439e-08
-5.65577e-07
4.00721e-08
-5.82525e-07
3.19257e-08
-5.94896e-07
2.33173e-08
-6.02506e-07
1.43623e-08
-6.05235e-07
5.17883e-09
-6.03027e-07
-4.11195e-09
-5.95893e-07
-1.33857e-08
-5.83912e-07
-2.2515e-08
-5.67231e-07
-3.13695e-08
-5.4607e-07
-3.98166e-08
-5.20716e-07
-4.7722e-08
-4.9153e-07
-5.4951e-08
-4.58943e-07
-6.13694e-08
-4.23452e-07
-6.68459e-08
-3.85623e-07
-7.12536e-08
-3.46082e-07
-7.44728e-08
-3.0551e-07
-7.63937e-08
-2.64637e-07
-7.69197e-08
-2.24232e-07
-7.59716e-08
-1.85089e-07
-7.34924e-08
-1.4801e-07
-6.94537e-08
-1.13787e-07
-6.38645e-08
-8.31696e-08
-5.67834e-08
-5.68347e-08
-4.83379e-08
-3.53312e-08
-3.87533e-08
-1.90147e-08
-2.84008e-08
-7.95355e-09
-1.78727e-08
-1.8165e-09
-8.09009e-09
2.86142e-10
-4.70241e-10
2.67299e-09
-1.33927e-09
-1.09354e-09
-7.25556e-09
7.1119e-09
-1.89469e-08
2.08643e-08
-3.70126e-08
3.71822e-08
-6.15841e-08
5.41868e-08
-9.24183e-08
7.06106e-08
-1.28993e-07
8.56226e-08
-1.70592e-07
9.87024e-08
-2.16369e-07
1.09543e-07
-2.65404e-07
1.17983e-07
-3.16739e-07
1.23966e-07
-3.69411e-07
1.27502e-07
-4.22475e-07
1.28657e-07
-4.75015e-07
1.2753e-07
-5.26162e-07
1.24247e-07
-5.75101e-07
1.18949e-07
-6.21076e-07
1.11793e-07
-6.63397e-07
1.02945e-07
-7.01443e-07
9.25766e-08
-7.34665e-07
8.08664e-08
-7.6259e-07
6.79967e-08
-7.84819e-07
5.41549e-08
-8.01034e-07
3.95323e-08
-8.10996e-07
2.4325e-08
-8.14552e-07
8.73411e-09
-8.11629e-07
-7.03455e-09
-8.02245e-07
-2.27699e-08
-7.86504e-07
-3.82559e-08
-7.64601e-07
-5.32723e-08
-7.36823e-07
-6.75952e-08
-7.03546e-07
-8.09987e-08
-6.6524e-07
-9.32566e-08
-6.22464e-07
-1.04145e-07
-5.75865e-07
-1.13445e-07
-5.26171e-07
-1.20947e-07
-4.74189e-07
-1.26455e-07
-4.20795e-07
-1.29788e-07
-3.66921e-07
-1.30793e-07
-3.13546e-07
-1.29347e-07
-2.61673e-07
-1.25365e-07
-2.12313e-07
-1.18814e-07
-1.66453e-07
-1.09725e-07
-1.25022e-07
-9.8214e-08
-8.8852e-08
-8.4508e-08
-5.86193e-08
-6.89861e-08
-3.47797e-08
-5.22404e-08
-1.74873e-08
-3.51651e-08
-6.50443e-09
-1.90729e-08
-1.11871e-09
-5.85598e-09
1.55429e-09
-2.90161e-09
1.8081e-09
-1.2576e-08
1.67862e-08
-2.96884e-08
3.79766e-08
-5.45241e-08
6.2018e-08
-8.70028e-08
8.66655e-08
-1.26724e-07
1.10332e-07
-1.7303e-07
1.31929e-07
-2.25071e-07
1.50743e-07
-2.81859e-07
1.66332e-07
-3.42326e-07
1.7845e-07
-4.05357e-07
1.86996e-07
-4.69825e-07
1.9197e-07
-5.34619e-07
1.93451e-07
-5.9866e-07
1.91572e-07
-6.60919e-07
1.86506e-07
-7.20428e-07
1.78457e-07
-7.76287e-07
1.67652e-07
-8.27672e-07
1.5433e-07
-8.73842e-07
1.38747e-07
-9.14141e-07
1.21165e-07
-9.48e-07
1.01856e-07
-9.74944e-07
8.10985e-08
-9.9459e-07
5.91791e-08
-1.00666e-06
3.63907e-08
-1.01096e-06
1.30336e-08
-1.00741e-06
-1.05843e-08
-9.96028e-07
-3.41479e-08
-9.76948e-07
-5.73353e-08
-9.50402e-07
-7.98184e-08
-9.16733e-07
-1.01265e-07
-8.76393e-07
-1.21339e-07
-8.29943e-07
-1.39707e-07
-7.7805e-07
-1.56038e-07
-7.21484e-07
-1.70011e-07
-6.61113e-07
-1.81318e-07
-5.97894e-07
-1.89674e-07
-5.32863e-07
-1.94819e-07
-4.67122e-07
-1.96534e-07
-4.01822e-07
-1.94647e-07
-3.38143e-07
-1.89044e-07
-2.77264e-07
-1.79692e-07
-2.2034e-07
-1.6665e-07
-1.68453e-07
-1.50101e-07
-1.22578e-07
-1.30383e-07
-8.35238e-08
-1.0804e-07
-5.1877e-08
-8.38872e-08
-2.79385e-08
-5.91037e-08
-1.16651e-08
-3.53462e-08
-2.62884e-09
-1.48922e-08
-1.07456e-09
-4.44343e-09
6.25151e-09
-1.79482e-08
3.0291e-08
-4.06315e-08
6.066e-08
-7.23994e-08
9.3786e-08
-1.12898e-07
1.27164e-07
-1.6152e-07
1.58955e-07
-2.17442e-07
1.87851e-07
-2.79664e-07
2.12965e-07
-3.47059e-07
2.33727e-07
-4.18419e-07
2.4981e-07
-4.92489e-07
2.61066e-07
-5.68002e-07
2.67483e-07
-6.43706e-07
2.69155e-07
-7.18383e-07
2.66249e-07
-7.90871e-07
2.58993e-07
-8.60071e-07
2.47658e-07
-9.24964e-07
2.32545e-07
-9.84615e-07
2.13981e-07
-1.03818e-06
1.9231e-07
-1.08491e-06
1.67894e-07
-1.12416e-06
1.41104e-07
-1.15538e-06
1.12324e-07
-1.17815e-06
8.19473e-08
-1.19214e-06
5.03776e-08
-1.19713e-06
1.80287e-08
-1.19304e-06
-1.46754e-08
-1.17989e-06
-4.73011e-08
-1.15782e-06
-7.94057e-08
-1.1271e-06
-1.10539e-07
-1.08812e-06
-1.40244e-07
-1.04139e-06
-1.68063e-07
-9.8756e-07
-1.93539e-07
-9.27378e-07
-2.1622e-07
-8.6172e-07
-2.3567e-07
-7.91567e-07
-2.51471e-07
-7.18005e-07
-2.63236e-07
-6.42204e-07
-2.7062e-07
-5.6541e-07
-2.73329e-07
-4.88921e-07
-2.71135e-07
-4.14067e-07
-2.63898e-07
-3.4218e-07
-2.51579e-07
-2.74561e-07
-2.34269e-07
-2.1244e-07
-2.12221e-07
-1.56937e-07
-1.85886e-07
-1.09011e-07
-1.55967e-07
-6.94111e-08
-1.23487e-07
-3.86362e-08
-8.98786e-08
-1.68995e-08
-5.70828e-08
-4.12542e-09
-2.76663e-08
-5.19998e-09
-5.91563e-09
1.21671e-08
-2.31929e-08
4.75682e-08
-5.14361e-08
8.89032e-08
-9.01539e-08
1.32504e-07
-1.38685e-07
1.75695e-07
-1.96182e-07
2.16451e-07
-2.61624e-07
2.53293e-07
-3.33846e-07
2.85187e-07
-4.11573e-07
3.11454e-07
-4.93457e-07
3.31694e-07
-5.7811e-07
3.45719e-07
-6.64137e-07
3.53511e-07
-7.50162e-07
3.55179e-07
-8.34847e-07
3.50934e-07
-9.16914e-07
3.4106e-07
-9.95154e-07
3.25899e-07
-1.06845e-06
3.05837e-07
-1.13576e-06
2.81295e-07
-1.19617e-06
2.52717e-07
-1.24884e-06
2.20568e-07
-1.29307e-06
1.85334e-07
-1.32826e-06
1.47511e-07
-1.35392e-06
1.07612e-07
-1.36971e-06
6.6162e-08
-1.37538e-06
2.37002e-08
-1.37083e-06
-1.9222e-08
-1.35609e-06
-6.20403e-08
-1.33132e-06
-1.04179e-07
-1.2968e-06
-1.45054e-07
-1.25298e-06
-1.84072e-07
-1.2004e-06
-2.20639e-07
-1.13978e-06
-2.54162e-07
-1.07194e-06
-2.84059e-07
-9.97844e-07
-3.09765e-07
-9.18573e-07
-3.30742e-07
-8.35316e-07
-3.46493e-07
-7.49363e-07
-3.56574e-07
-6.62082e-07
-3.6061e-07
-5.74903e-07
-3.58314e-07
-4.89292e-07
-3.49509e-07
-4.0672e-07
-3.34151e-07
-3.28631e-07
-3.12358e-07
-2.56407e-07
-2.84446e-07
-1.91321e-07
-2.50971e-07
-1.34504e-07
-2.12784e-07
-8.68996e-08
-1.71091e-07
-4.92387e-08
-1.2754e-07
-2.20261e-08
-8.42955e-08
-5.5581e-09
-4.41343e-08
-1.07581e-08
-7.30798e-09
1.94751e-08
-2.82469e-08
6.85072e-08
-6.19596e-08
1.22616e-07
-1.07565e-07
1.78109e-07
-1.64081e-07
2.32211e-07
-2.30398e-07
2.82768e-07
-3.05278e-07
3.28173e-07
-3.87372e-07
3.6728e-07
-4.75244e-07
3.99326e-07
-5.67401e-07
4.23852e-07
-6.62327e-07
4.40645e-07
-7.58502e-07
4.49686e-07
-8.54436e-07
4.51113e-07
-9.48682e-07
4.4518e-07
-1.03986e-06
4.32238e-07
-1.12667e-06
4.12707e-07
-1.2079e-06
3.87065e-07
-1.28243e-06
3.55832e-07
-1.34928e-06
3.19561e-07
-1.40754e-06
2.78832e-07
-1.45645e-06
2.34248e-07
-1.49537e-06
1.8643e-07
-1.52378e-06
1.36018e-07
-1.54129e-06
8.36689e-08
-1.54764e-06
3.00544e-08
-1.54273e-06
-2.4136e-08
-1.52657e-06
-7.81981e-08
-1.49934e-06
-1.31414e-07
-1.46134e-06
-1.83053e-07
-1.41303e-06
-2.32377e-07
-1.35502e-06
-2.78646e-07
-1.28806e-06
-3.21121e-07
-1.21305e-06
-3.59076e-07
-1.131e-06
-3.91809e-07
-1.04309e-06
-4.1865e-07
-9.50604e-07
-4.38982e-07
-8.54925e-07
-4.52253e-07
-7.57536e-07
-4.57999e-07
-6.59988e-07
-4.55862e-07
-5.63874e-07
-4.45623e-07
-4.70804e-07
-4.27221e-07
-3.82368e-07
-4.00794e-07
-3.00103e-07
-3.66711e-07
-2.25456e-07
-3.25619e-07
-1.59745e-07
-2.78495e-07
-1.04133e-07
-2.26702e-07
-5.96095e-08
-1.72063e-07
-2.69831e-08
-1.16922e-07
-6.91564e-09
-6.42017e-08
-1.76737e-08
-8.62775e-09
2.81029e-08
-3.31074e-08
9.29868e-08
-7.21716e-08
1.6168e-07
-1.24569e-07
2.30507e-07
-1.88996e-07
2.96638e-07
-2.64069e-07
3.57841e-07
-3.48316e-07
4.1242e-07
-4.4019e-07
4.59154e-07
-5.38083e-07
4.97219e-07
-6.40352e-07
5.26121e-07
-7.45345e-07
5.45638e-07
-8.51423e-07
5.55764e-07
-9.56983e-07
5.56673e-07
-1.06048e-06
5.48677e-07
-1.16044e-06
5.32198e-07
-1.25548e-06
5.07746e-07
-1.34431e-06
4.75896e-07
-1.42575e-06
4.37276e-07
-1.49875e-06
3.92554e-07
-1.56235e-06
3.42432e-07
-1.61574e-06
2.87639e-07
-1.65823e-06
2.28927e-07
-1.68929e-06
1.6707e-07
-1.70848e-06
1.02863e-07
-1.71555e-06
3.71204e-08
-1.71036e-06
-2.93253e-08
-1.69293e-06
-9.56217e-08
-1.66345e-06
-1.609e-07
-1.62222e-06
-2.24277e-07
-1.56974e-06
-2.84861e-07
-1.50663e-06
-3.41754e-07
-1.43369e-06
-3.94063e-07
-1.35186e-06
-4.4091e-07
-1.26222e-06
-4.81442e-07
-1.16602e-06
-5.14851e-07
-1.06462e-06
-5.40386e-07
-9.59496e-07
-5.57377e-07
-8.52237e-07
-5.65257e-07
-7.44508e-07
-5.63592e-07
-6.38028e-07
-5.52102e-07
-5.34546e-07
-5.30703e-07
-4.35805e-07
-4.99535e-07
-3.43509e-07
-4.59007e-07
-2.5929e-07
-4.09838e-07
-1.84678e-07
-3.53107e-07
-1.21073e-07
-2.90308e-07
-6.97313e-08
-2.23405e-07
-3.17731e-08
-1.5488e-07
-8.20642e-09
-8.77683e-08
-2.58801e-08
-9.8887e-09
3.79916e-08
-3.78008e-08
1.20899e-07
-8.21027e-08
2.05982e-07
-1.41194e-07
2.89598e-07
-2.13456e-07
3.689e-07
-2.97224e-07
4.41609e-07
-3.90784e-07
5.05981e-07
-4.92379e-07
5.60748e-07
-6.00217e-07
6.05057e-07
-7.12497e-07
6.38402e-07
-8.27428e-07
6.60569e-07
-9.43249e-07
6.71585e-07
-1.05825e-06
6.71673e-07
-1.17079e-06
6.61215e-07
-1.2793e-06
6.40716e-07
-1.38234e-06
6.10783e-07
-1.47854e-06
5.72097e-07
-1.56667e-06
5.25403e-07
-1.64561e-06
4.71491e-07
-1.71437e-06
4.11192e-07
-1.77209e-06
3.45366e-07
-1.81807e-06
2.74903e-07
-1.85172e-06
2.00716e-07
-1.8726e-06
1.23744e-07
-1.88042e-06
4.49464e-08
-1.87506e-06
-3.4692e-08
-1.85651e-06
-1.14166e-07
-1.82496e-06
-1.92451e-07
-1.78073e-06
-2.68504e-07
-1.72432e-06
-3.4127e-07
-1.65639e-06
-4.0969e-07
-1.57774e-06
-4.72707e-07
-1.48937e-06
-5.29279e-07
-1.39242e-06
-5.78397e-07
-1.28817e-06
-6.19097e-07
-1.17807e-06
-6.50487e-07
-1.06368e-06
-6.71765e-07
-9.46691e-07
-6.8225e-07
-8.28871e-07
-6.81411e-07
-7.12073e-07
-6.689e-07
-5.98188e-07
-6.44588e-07
-4.89119e-07
-6.08604e-07
-3.86752e-07
-5.61374e-07
-2.9292e-07
-5.03669e-07
-2.09379e-07
-4.36649e-07
-1.37777e-07
-3.61909e-07
-7.96536e-08
-2.81529e-07
-3.64314e-08
-1.98102e-07
-9.44658e-09
-1.14753e-07
-3.53267e-08
-1.11064e-08
4.9098e-08
-4.23667e-08
1.52159e-07
-9.18144e-08
2.5543e-07
-1.5752e-07
3.55303e-07
-2.37554e-07
4.48934e-07
-3.29973e-07
5.34028e-07
-4.32813e-07
6.08821e-07
-5.44096e-07
6.72031e-07
-6.61839e-07
7.228e-07
-7.84075e-07
7.60638e-07
-9.08869e-07
7.85362e-07
-1.03433e-06
7.9705e-07
-1.15865e-06
7.95993e-07
-1.28009e-06
7.82654e-07
-1.39701e-06
7.57636e-07
-1.50788e-06
7.21653e-07
-1.61129e-06
6.75504e-07
-1.70594e-06
6.20057e-07
-1.79068e-06
5.56232e-07
-1.86449e-06
4.84993e-07
-1.92646e-06
4.0734e-07
-1.97586e-06
3.24302e-07
-2.01208e-06
2.36938e-07
-2.03467e-06
1.46333e-07
-2.04332e-06
5.35974e-08
-2.03788e-06
-4.01305e-08
-2.01836e-06
-1.33689e-07
-1.98492e-06
-2.25891e-07
-1.93789e-06
-3.1553e-07
-1.87778e-06
-4.01384e-07
-1.80525e-06
-4.82223e-07
-1.72113e-06
-5.56819e-07
-1.62645e-06
-6.2396e-07
-1.52239e-06
-6.82465e-07
-1.41027e-06
-7.31208e-07
-1.29162e-06
-7.69139e-07
-1.16808e-06
-7.95311e-07
-1.04141e-06
-8.08912e-07
-9.13527e-07
-8.09299e-07
-7.86392e-07
-7.96035e-07
-6.62052e-07
-7.68929e-07
-5.42581e-07
-7.28074e-07
-4.30058e-07
-6.73897e-07
-3.26532e-07
-6.07195e-07
-2.33997e-07
-5.29184e-07
-1.54366e-07
-4.4154e-07
-8.94613e-08
-3.46433e-07
-4.10089e-08
-2.46555e-07
-1.06549e-08
-1.45107e-07
-4.59817e-08
-1.22963e-08
6.13944e-08
-4.68489e-08
1.86712e-07
-1.01381e-07
3.09962e-07
-1.73649e-07
4.27571e-07
-2.6142e-07
5.36705e-07
-3.6247e-07
6.35078e-07
-4.74579e-07
7.2093e-07
-5.95542e-07
7.92994e-07
-7.23177e-07
8.50436e-07
-8.55345e-07
8.92806e-07
-9.8996e-07
9.19977e-07
-1.12501e-06
9.321e-07
-1.25857e-06
9.29552e-07
-1.38881e-06
9.12896e-07
-1.51402e-06
8.82848e-07
-1.63261e-06
8.40239e-07
-1.7431e-06
7.85998e-07
-1.84417e-06
7.21123e-07
-1.93461e-06
6.46673e-07
-2.01337e-06
5.63752e-07
-2.07953e-06
4.73502e-07
-2.13233e-06
3.77097e-07
-2.17113e-06
2.75742e-07
-2.19547e-06
1.70673e-07
-2.20503e-06
6.31525e-08
-2.19963e-06
-4.55266e-08
-2.17928e-06
-1.54042e-07
-2.14412e-06
-2.61045e-07
-2.09449e-06
-3.6516e-07
-2.03088e-06
-4.64993e-07
-1.95397e-06
-5.59139e-07
-1.8646e-06
-6.4619e-07
-1.7638e-06
-7.24755e-07
-1.65279e-06
-7.93473e-07
-1.53296e-06
-8.51041e-07
-1.40586e-06
-8.96237e-07
-1.27322e-06
-9.27951e-07
-1.13691e-06
-9.45224e-07
-9.98932e-07
-9.47279e-07
-8.61397e-07
-9.33571e-07
-7.26506e-07
-9.0382e-07
-5.96515e-07
-8.58065e-07
-4.73707e-07
-7.96705e-07
-3.60362e-07
-7.2054e-07
-2.58726e-07
-6.30821e-07
-1.70987e-07
-5.29279e-07
-9.92568e-08
-4.18163e-07
-4.55628e-08
-3.00249e-07
-1.18506e-08
-1.78819e-07
-5.78323e-08
-1.34727e-08
7.4867e-08
-5.12909e-08
2.2453e-07
-1.10881e-07
3.69552e-07
-1.89693e-07
5.06383e-07
-2.85196e-07
6.32208e-07
-3.94883e-07
7.44765e-07
-5.16274e-07
8.42322e-07
-6.46931e-07
9.2365e-07
-7.84467e-07
9.87972e-07
-9.26562e-07
1.0349e-06
-1.07098e-06
1.06439e-06
-1.21557e-06
1.0767e-06
-1.35832e-06
1.07229e-06
-1.49729e-06
1.05187e-06
-1.6307e-06
1.01626e-06
-1.75691e-06
9.66443e-07
-1.87438e-06
9.03477e-07
-1.98177e-06
8.28506e-07
-2.07783e-06
7.42732e-07
-2.16148e-06
6.47404e-07
-2.23179e-06
5.43811e-07
-2.28796e-06
4.33275e-07
-2.32937e-06
3.1715e-07
-2.35552e-06
1.9682e-07
-2.36607e-06
7.3702e-08
-2.36084e-06
-5.0756e-08
-2.33981e-06
-1.75072e-07
-2.30312e-06
-2.97733e-07
-2.25109e-06
-4.17194e-07
-2.18419e-06
-5.31886e-07
-2.10311e-06
-6.40223e-07
-2.00869e-06
-7.40613e-07
-1.90197e-06
-8.31474e-07
-1.78419e-06
-9.11256e-07
-1.65676e-06
-9.78464e-07
-1.52131e-06
-1.03169e-06
-1.37962e-06
-1.06964e-06
-1.23366e-06
-1.09119e-06
-1.08553e-06
-1.0954e-06
-9.37505e-07
-1.0816e-06
-7.91933e-07
-1.04939e-06
-6.51266e-07
-9.98732e-07
-5.18005e-07
-9.29966e-07
-3.94672e-07
-8.43873e-07
-2.83779e-07
-7.41713e-07
-1.87801e-07
-6.25256e-07
-1.09149e-07
-4.96816e-07
-5.01516e-08
-3.59246e-07
-1.30521e-08
-2.15919e-07
-7.08843e-08
-1.46483e-08
8.95153e-08
-5.57335e-08
2.65615e-07
-1.2039e-07
4.34209e-07
-2.05764e-07
5.91757e-07
-3.09026e-07
7.3547e-07
-4.27384e-07
8.63122e-07
-5.58092e-07
9.73031e-07
-6.98475e-07
1.06403e-06
-8.45931e-07
1.13543e-06
-9.97959e-07
1.18693e-06
-1.15216e-06
1.2186e-06
-1.30627e-06
1.2308e-06
-1.45813e-06
1.22416e-06
-1.60576e-06
1.19949e-06
-1.74728e-06
1.15779e-06
-1.88101e-06
1.10017e-06
-2.00537e-06
1.02784e-06
-2.11898e-06
9.42109e-07
-2.22057e-06
8.44322e-07
-2.30904e-06
7.35882e-07
-2.38346e-06
6.18227e-07
-2.44301e-06
4.92827e-07
-2.48705e-06
3.61185e-07
-2.51506e-06
2.24835e-07
-2.5267e-06
8.53445e-08
-2.52178e-06
-5.56844e-08
-2.50024e-06
-1.96612e-07
-2.46221e-06
-3.35761e-07
-2.40799e-06
-4.71417e-07
-2.33804e-06
-6.01835e-07
-2.25302e-06
-7.25244e-07
-2.15377e-06
-8.39862e-07
-2.04133e-06
-9.43909e-07
-1.91695e-06
-1.03563e-06
-1.78209e-06
-1.11333e-06
-1.63838e-06
-1.1754e-06
-1.48769e-06
-1.22033e-06
-1.33207e-06
-1.24681e-06
-1.17374e-06
-1.25373e-06
-1.01511e-06
-1.24023e-06
-8.58711e-07
-1.2058e-06
-7.07184e-07
-1.15026e-06
-5.63263e-07
-1.07389e-06
-4.29729e-07
-9.77408e-07
-3.09374e-07
-8.62067e-07
-2.04973e-07
-7.29658e-07
-1.19245e-07
-5.82544e-07
-5.48323e-08
-4.23658e-07
-1.42768e-08
-2.56474e-07
-8.51612e-08
-1.58347e-08
1.0535e-07
-6.0214e-08
3.09994e-07
-1.29978e-07
5.03973e-07
-2.21966e-07
6.83745e-07
-3.33046e-07
8.4655e-07
-4.60134e-07
9.9021e-07
-6.00216e-07
1.11311e-06
-7.50366e-07
1.21418e-06
-9.0777e-07
1.29283e-06
-1.06973e-06
1.34889e-06
-1.2337e-06
1.38256e-06
-1.39727e-06
1.39437e-06
-1.55819e-06
1.38508e-06
-1.71437e-06
1.35568e-06
-1.8639e-06
1.30732e-06
-2.00502e-06
1.24129e-06
-2.13614e-06
1.15897e-06
-2.25585e-06
1.06181e-06
-2.36287e-06
9.51341e-07
-2.45609e-06
8.29105e-07
-2.53456e-06
6.96695e-07
-2.59747e-06
5.55733e-07
-2.64415e-06
4.07867e-07
-2.67409e-06
2.54779e-07
-2.68693e-06
9.81833e-08
-2.68245e-06
-6.01671e-08
-2.66058e-06
-2.18478e-07
-2.62143e-06
-3.74912e-07
-2.56526e-06
-5.27588e-07
-2.49251e-06
-6.74582e-07
-2.40382e-06
-8.13938e-07
-2.3e-06
-9.43678e-07
-2.1821e-06
-1.06182e-06
-2.05134e-06
-1.16639e-06
-1.9092e-06
-1.25547e-06
-1.75737e-06
-1.32723e-06
-1.59775e-06
-1.37994e-06
-1.43249e-06
-1.41207e-06
-1.26392e-06
-1.42229e-06
-1.09458e-06
-1.40957e-06
-9.27191e-07
-1.37319e-06
-7.646e-07
-1.31285e-06
-6.09785e-07
-1.2287e-06
-4.65797e-07
-1.1214e-06
-3.35726e-07
-9.92138e-07
-2.22662e-07
-8.42722e-07
-1.29651e-07
-6.75555e-07
-5.96594e-08
-4.9365e-07
-1.55412e-08
-3.00592e-07
-1.00702e-07
-1.7042e-08
1.22392e-07
-6.47663e-08
3.57719e-07
-1.39709e-07
5.78915e-07
-2.38395e-07
7.82431e-07
-3.57381e-07
9.65536e-07
-4.93282e-07
1.12611e-06
-6.42806e-07
1.26264e-06
-8.02774e-07
1.37415e-06
-9.70145e-07
1.4602e-06
-1.14203e-06
1.52078e-06
-1.31572e-06
1.55625e-06
-1.48868e-06
1.56732e-06
-1.65854e-06
1.55494e-06
-1.82315e-06
1.52028e-06
-1.98053e-06
1.4647e-06
-2.12888e-06
1.38964e-06
-2.2666e-06
1.29669e-06
-2.39225e-06
1.18746e-06
-2.50456e-06
1.06365e-06
-2.60241e-06
9.26955e-07
-2.68485e-06
7.79134e-07
-2.75106e-06
6.2195e-07
-2.8004e-06
4.572e-07
-2.83232e-06
2.86705e-07
-2.84646e-06
1.12323e-07
-2.84258e-06
-6.40497e-08
-2.82059e-06
-2.4047e-07
-2.78056e-06
-4.14945e-07
-2.72271e-06
-5.8543e-07
-2.64747e-06
-7.49826e-07
-2.55542e-06
-9.05991e-07
-2.44735e-06
-1.05175e-06
-2.32427e-06
-1.1849e-06
-2.18741e-06
-1.30325e-06
-2.03823e-06
-1.40465e-06
-1.87846e-06
-1.487e-06
-1.71004e-06
-1.54836e-06
-1.53519e-06
-1.58692e-06
-1.35636e-06
-1.60113e-06
-1.17623e-06
-1.5897e-06
-9.97689e-07
-1.55173e-06
-8.23822e-07
-1.48672e-06
-6.57854e-07
-1.39467e-06
-5.03125e-07
-1.27613e-06
-3.6304e-07
-1.13222e-06
-2.41024e-07
-9.64739e-07
-1.40468e-07
-7.76111e-07
-6.46849e-08
-5.69433e-07
-1.68605e-08
-3.48417e-07
-1.17563e-07
-1.82791e-08
1.40671e-07
-6.94206e-08
4.0886e-07
-1.49641e-07
6.59136e-07
-2.55138e-07
8.87928e-07
-3.82142e-07
1.09254e-06
-5.26958e-07
1.27093e-06
-6.86002e-07
1.42168e-06
-8.55833e-07
1.54398e-06
-1.03318e-06
1.63755e-06
-1.21496e-06
1.70256e-06
-1.39829e-06
1.73959e-06
-1.58051e-06
1.74954e-06
-1.75916e-06
1.73359e-06
-1.932e-06
1.69313e-06
-2.09702e-06
1.62971e-06
-2.25238e-06
1.54501e-06
-2.39647e-06
1.44078e-06
-2.52784e-06
1.31884e-06
-2.64523e-06
1.18104e-06
-2.74754e-06
1.02927e-06
-2.83382e-06
8.65415e-07
-2.90328e-06
6.91403e-07
-2.95524e-06
5.09162e-07
-2.98919e-06
3.20652e-07
-3.00473e-06
1.27864e-07
-3.00161e-06
-6.71699e-08
-2.97971e-06
-2.62367e-07
-2.93907e-06
-4.55586e-07
-2.87988e-06
-6.44624e-07
-2.80249e-06
-8.27215e-07
-2.70745e-06
-1.00103e-06
-2.59551e-06
-1.16369e-06
-2.46763e-06
-1.31277e-06
-2.32502e-06
-1.44586e-06
-2.16913e-06
-1.56054e-06
-2.00167e-06
-1.65446e-06
-1.82464e-06
-1.72539e-06
-1.64032e-06
-1.77124e-06
-1.45126e-06
-1.79019e-06
-1.26029e-06
-1.78067e-06
-1.07047e-06
-1.74154e-06
-8.85121e-07
-1.67207e-06
-7.07732e-07
-1.57206e-06
-5.41947e-07
-1.44191e-06
-3.9151e-07
-1.28266e-06
-2.60203e-07
-1.09605e-06
-1.51791e-07
-8.84523e-07
-6.99577e-08
-6.51266e-07
-1.8249e-08
-4.00125e-07
-1.35812e-07
-1.95542e-08
1.60225e-07
-7.42044e-08
4.6351e-07
-1.59828e-07
7.44759e-07
-2.72274e-07
1.00037e-06
-4.0743e-07
1.2277e-06
-5.61274e-07
1.42477e-06
-7.29918e-07
1.59032e-06
-9.09649e-07
1.72371e-06
-1.09696e-06
1.82486e-06
-1.28855e-06
1.89416e-06
-1.4814e-06
1.93243e-06
-1.6727e-06
1.94084e-06
-1.8599e-06
1.92079e-06
-2.04071e-06
1.87394e-06
-2.21306e-06
1.80206e-06
-2.37512e-06
1.70707e-06
-2.52526e-06
1.59092e-06
-2.66206e-06
1.45563e-06
-2.78426e-06
1.30324e-06
-2.89079e-06
1.1358e-06
-2.98073e-06
9.55353e-07
-3.05329e-06
7.63963e-07
-3.10782e-06
5.63695e-07
-3.14381e-06
3.56635e-07
-3.16084e-06
1.44898e-07
-3.15865e-06
-6.93591e-08
-3.13709e-06
-2.83925e-07
-3.09616e-06
-4.96523e-07
-3.03598e-06
-7.04801e-07
-2.95687e-06
-9.06329e-07
-2.8593e-06
-1.0986e-06
-2.74396e-06
-1.27903e-06
-2.61176e-06
-1.44498e-06
-2.46385e-06
-1.59377e-06
-2.30165e-06
-1.72274e-06
-2.12687e-06
-1.82924e-06
-1.94152e-06
-1.91074e-06
-1.74793e-06
-1.96483e-06
-1.54875e-06
-1.98937e-06
-1.34693e-06
-1.98249e-06
-1.14575e-06
-1.94273e-06
-9.48725e-07
-1.86909e-06
-7.59646e-07
-1.76114e-06
-5.82475e-07
-1.61908e-06
-4.21315e-07
-1.44382e-06
-2.80337e-07
-1.23702e-06
-1.6371e-07
-1.00115e-06
-7.55246e-08
-7.39451e-07
-1.97204e-08
-4.55929e-07
-1.55532e-07
-2.08747e-08
1.811e-07
-7.91435e-08
5.21779e-07
-1.70318e-07
8.35933e-07
-2.89874e-07
1.11993e-06
-4.33334e-07
1.37116e-06
-5.96327e-07
1.58776e-06
-7.74646e-07
1.76864e-06
-9.64289e-07
1.91336e-06
-1.1615e-06
2.02207e-06
-1.36279e-06
2.09545e-06
-1.56495e-06
2.13459e-06
-1.76507e-06
2.14095e-06
-1.9605e-06
2.11623e-06
-2.14891e-06
2.06234e-06
-2.3282e-06
1.98135e-06
-2.49653e-06
1.8754e-06
-2.6523e-06
1.74669e-06
-2.79411e-06
1.59744e-06
-2.92076e-06
1.42988e-06
-3.03118e-06
1.24623e-06
-3.12451e-06
1.04868e-06
-3.19999e-06
8.3944e-07
-3.25699e-06
6.20691e-07
-3.29499e-06
3.94636e-07
-3.31359e-06
1.63501e-07
-3.3125e-06
-7.04466e-08
-3.29155e-06
-3.04882e-07
-3.25066e-06
-5.37405e-07
-3.18993e-06
-7.6553e-07
-3.10959e-06
-9.86674e-07
-3.01003e-06
-1.19815e-06
-2.89187e-06
-1.39719e-06
-2.75593e-06
-1.58091e-06
-2.6033e-06
-1.74641e-06
-2.43534e-06
-1.8907e-06
-2.25372e-06
-2.01086e-06
-2.06046e-06
-2.104e-06
-1.85792e-06
-2.16737e-06
-1.64882e-06
-2.19847e-06
-1.43625e-06
-2.19506e-06
-1.22366e-06
-2.15532e-06
-1.01482e-06
-2.07793e-06
-8.13792e-07
-1.96216e-06
-6.24898e-07
-1.80797e-06
-4.52622e-07
-1.6161e-06
-3.01557e-07
-1.38809e-06
-1.76313e-07
-1.12639e-06
-8.14304e-08
-8.34334e-07
-2.1288e-08
-5.16072e-07
-1.7682e-07
-2.22482e-08
2.03348e-07
-8.4263e-08
5.83794e-07
-1.81158e-07
9.32828e-07
-3.08006e-07
1.24678e-06
-4.59935e-07
1.52308e-06
-6.322e-07
1.76003e-06
-8.20253e-07
1.9567e-06
-1.01979e-06
2.1129e-06
-1.2268e-06
2.22908e-06
-1.43759e-06
2.30623e-06
-1.64878e-06
2.34579e-06
-1.85734e-06
2.34951e-06
-2.06057e-06
2.31946e-06
-2.25608e-06
2.25785e-06
-2.44177e-06
2.16704e-06
-2.61583e-06
2.04946e-06
-2.77668e-06
1.90754e-06
-2.92298e-06
1.74374e-06
-3.05356e-06
1.56047e-06
-3.16745e-06
1.36012e-06
-3.26382e-06
1.14504e-06
-3.34194e-06
9.17563e-07
-3.40123e-06
6.79978e-07
-3.44118e-06
4.34593e-07
-3.46141e-06
1.83726e-07
-3.46159e-06
-7.02629e-08
-3.44152e-06
-3.24953e-07
-3.40109e-06
-5.7784e-07
-3.3403e-06
-8.2632e-07
-3.2593e-06
-1.06767e-06
-3.15841e-06
-1.29905e-06
-3.03812e-06
-1.51747e-06
-2.89917e-06
-1.71987e-06
-2.74253e-06
-1.90304e-06
-2.5695e-06
-2.06373e-06
-2.38169e-06
-2.19867e-06
-2.18108e-06
-2.30461e-06
-1.97004e-06
-2.37842e-06
-1.75135e-06
-2.41715e-06
-1.52822e-06
-2.41818e-06
-1.30427e-06
-2.37927e-06
-1.08352e-06
-2.29868e-06
-8.7033e-07
-2.17535e-06
-6.69382e-07
-2.00892e-06
-4.85582e-07
-1.7999e-06
-3.23983e-07
-1.54969e-06
-1.89682e-07
-1.26069e-06
-8.77193e-08
-9.36297e-07
-2.29649e-08
-5.80826e-07
-1.99785e-07
-2.36823e-08
2.27031e-07
-8.95886e-08
6.497e-07
-1.92397e-07
1.03564e-06
-3.26739e-07
1.38112e-06
-4.87311e-07
1.68366e-06
-6.68967e-07
1.94169e-06
-8.66791e-07
2.15452e-06
-1.07616e-06
2.32227e-06
-1.2928e-06
2.44572e-06
-1.5128e-06
2.52623e-06
-1.73262e-06
2.56561e-06
-1.94914e-06
2.56603e-06
-2.15959e-06
2.5299e-06
-2.36155e-06
2.45982e-06
-2.55295e-06
2.35845e-06
-2.73202e-06
2.22853e-06
-2.89724e-06
2.07276e-06
-3.04734e-06
1.89384e-06
-3.18124e-06
1.69437e-06
-3.29803e-06
1.47691e-06
-3.39695e-06
1.24396e-06
-3.47735e-06
9.97964e-07
-3.53869e-06
7.4131e-07
-3.58048e-06
4.76389e-07
-3.60235e-06
2.05594e-07
-3.60397e-06
-6.86461e-08
-3.58508e-06
-3.43836e-07
-3.54553e-06
-6.17391e-07
-3.48525e-06
-8.86607e-07
-3.40427e-06
-1.14864e-06
-3.30281e-06
-1.40051e-06
-3.18123e-06
-1.63905e-06
-3.04015e-06
-1.86096e-06
-2.88041e-06
-2.06278e-06
-2.70318e-06
-2.24096e-06
-2.51e-06
-2.39185e-06
-2.30278e-06
-2.51183e-06
-2.08386e-06
-2.59733e-06
-1.85608e-06
-2.64494e-06
-1.62272e-06
-2.65154e-06
-1.38758e-06
-2.61441e-06
-1.1549e-06
-2.53136e-06
-9.29378e-07
-2.40087e-06
-7.1607e-07
-2.22223e-06
-5.20336e-07
-1.99563e-06
-3.47734e-07
-1.72229e-06
-2.03901e-07
-1.40453e-06
-9.44351e-08
-1.04576e-06
-2.47643e-08
-6.50497e-07
-2.2455e-07
-2.51852e-08
2.52216e-07
-9.51485e-08
7.19663e-07
-2.04086e-07
1.14457e-06
-3.46142e-07
1.52318e-06
-5.15542e-07
1.85306e-06
-7.06698e-07
2.13284e-06
-9.14297e-07
2.36212e-06
-1.13338e-06
2.54135e-06
-1.35939e-06
2.67173e-06
-1.5882e-06
2.75504e-06
-1.81614e-06
2.79355e-06
-2.03996e-06
2.78986e-06
-2.25687e-06
2.74682e-06
-2.46447e-06
2.66741e-06
-2.66071e-06
2.55469e-06
-2.84389e-06
2.41171e-06
-3.01259e-06
2.24146e-06
-3.16563e-06
2.04688e-06
-3.30204e-06
1.83078e-06
-3.42102e-06
1.59589e-06
-3.52189e-06
1.34484e-06
-3.60409e-06
1.08016e-06
-3.66712e-06
8.04348e-07
-3.71058e-06
5.19841e-07
-3.73407e-06
2.29084e-07
-3.73726e-06
-6.54481e-08
-3.71989e-06
-3.61215e-07
-3.6817e-06
-6.55576e-07
-3.62255e-06
-9.45757e-07
-3.54237e-06
-1.22882e-06
-3.44124e-06
-1.50165e-06
-3.31936e-06
-1.76092e-06
-3.1772e-06
-2.00312e-06
-3.01545e-06
-2.22453e-06
-2.83512e-06
-2.42128e-06
-2.63761e-06
-2.58937e-06
-2.42473e-06
-2.72471e-06
-2.19878e-06
-2.82328e-06
-1.96258e-06
-2.88114e-06
-1.7195e-06
-2.89462e-06
-1.47346e-06
-2.86044e-06
-1.22897e-06
-2.77586e-06
-9.91015e-07
-2.63883e-06
-7.65081e-07
-2.44816e-06
-5.57013e-07
-2.2037e-06
-3.72922e-07
-1.90638e-06
-2.1905e-07
-1.5584e-06
-1.01623e-07
-1.16319e-06
-2.67001e-08
-7.2542e-07
-2.5125e-07
-2.6767e-08
2.78983e-07
-1.00975e-07
7.93871e-07
-2.16284e-07
1.25988e-06
-3.66297e-07
1.67319e-06
-5.44715e-07
2.03147e-06
-7.45462e-07
2.33359e-06
-9.62799e-07
2.57946e-06
-1.1914e-06
2.76995e-06
-1.42642e-06
2.90675e-06
-1.66352e-06
2.99214e-06
-1.89887e-06
3.0289e-06
-2.12917e-06
3.02016e-06
-2.35161e-06
2.96925e-06
-2.5638e-06
2.8796e-06
-2.76378e-06
2.75468e-06
-2.94996e-06
2.59788e-06
-3.12103e-06
2.41253e-06
-3.27595e-06
2.20179e-06
-3.41388e-06
1.96871e-06
-3.53415e-06
1.71616e-06
-3.63621e-06
1.44689e-06
-3.71959e-06
1.16354e-06
-3.78389e-06
8.68644e-07
-3.82873e-06
5.64683e-07
-3.85377e-06
2.54124e-07
-3.85867e-06
-6.05429e-08
-3.84312e-06
-3.76764e-07
-3.80683e-06
-6.91873e-07
-3.74953e-06
-1.00306e-06
-3.67103e-06
-1.30731e-06
-3.57125e-06
-1.60142e-06
-3.45025e-06
-1.88193e-06
-3.30827e-06
-2.1451e-06
-3.14581e-06
-2.38699e-06
-2.9637e-06
-2.60339e-06
-2.76315e-06
-2.78991e-06
-2.54583e-06
-2.94203e-06
-2.31394e-06
-3.05517e-06
-2.07024e-06
-3.12483e-06
-1.81815e-06
-3.14672e-06
-1.56171e-06
-3.11688e-06
-1.30564e-06
-3.03193e-06
-1.05527e-06
-2.88919e-06
-8.1651e-07
-2.68693e-06
-5.95732e-07
-2.42448e-06
-3.99661e-07
-2.10245e-06
-2.35215e-07
-1.72285e-06
-1.09331e-07
-1.28907e-06
-2.87871e-08
-8.05963e-07
-2.80037e-07
-2.84394e-08
3.07422e-07
-1.07107e-07
8.7254e-07
-2.29063e-07
1.38184e-06
-3.87299e-07
1.83143e-06
-5.74929e-07
2.2191e-06
-7.85341e-07
2.544e-06
-1.01232e-06
2.80644e-06
-1.25016e-06
3.00779e-06
-1.4937e-06
3.15029e-06
-1.73839e-06
3.23683e-06
-1.98028e-06
3.27079e-06
-2.21601e-06
3.25589e-06
-2.44278e-06
3.19602e-06
-2.65828e-06
3.0951e-06
-2.86067e-06
2.95706e-06
-3.04848e-06
2.78569e-06
-3.22056e-06
2.58462e-06
-3.37606e-06
2.35729e-06
-3.51431e-06
2.10695e-06
-3.63479e-06
1.83664e-06
-3.7371e-06
1.5492e-06
-3.82089e-06
1.24734e-06
-3.88588e-06