/*--------------------------------*- C++ -*----------------------------------*\
  =========                 |
  \\      /  F ield         | OpenFOAM: The Open Source CFD Toolbox
   \\    /   O peration     | Website:  https://openfoam.org
    \\  /    A nd           | Version:  7
     \\/     M anipulation  |
\*---------------------------------------------------------------------------*/
FoamFile
{
    version     2.0;
    format      ascii;
    class       surfaceScalarField;
    location    "0.0668";
    object      phi;
}
// * * * * * * * * * * * * * * * * * * * * * * * * * * * * * * * * * * * * * //

dimensions      [0 3 -1 0 0 0 0];

internalField   nonuniform List<scalar> 
4900
(
5.45462e-06
-5.45463e-06
9.95311e-06
-4.4985e-06
1.26939e-05
-2.7408e-06
1.44122e-05
-1.71831e-06
1.55285e-05
-1.11629e-06
1.62818e-05
-7.53262e-07
1.6813e-05
-5.312e-07
1.72037e-05
-3.90679e-07
1.7501e-05
-2.97382e-07
1.77334e-05
-2.32369e-07
1.79185e-05
-1.85112e-07
1.80681e-05
-1.49547e-07
1.81901e-05
-1.22025e-07
1.82903e-05
-1.00249e-07
1.8373e-05
-8.27033e-08
1.84414e-05
-6.83512e-08
1.84978e-05
-5.64531e-08
1.85443e-05
-4.64654e-08
1.85823e-05
-3.79763e-08
1.86129e-05
-3.06649e-08
1.86372e-05
-2.42745e-08
1.86558e-05
-1.85939e-08
1.86693e-05
-1.34441e-08
1.86779e-05
-8.66934e-09
1.86821e-05
-4.12895e-09
1.86817e-05
3.11251e-10
1.8677e-05
4.77397e-09
1.86676e-05
9.39398e-09
1.86533e-05
1.43057e-08
1.86336e-05
1.96595e-08
1.8608e-05
2.56263e-08
1.85756e-05
3.24084e-08
1.85353e-05
4.02522e-08
1.84859e-05
4.94679e-08
1.84254e-05
6.04569e-08
1.83517e-05
7.37526e-08
1.82616e-05
9.00849e-08
1.81511e-05
1.10483e-07
1.80146e-05
1.36445e-07
1.78444e-05
1.70247e-07
1.76289e-05
2.15491e-07
1.73507e-05
2.78167e-07
1.6982e-05
3.68739e-07
1.64757e-05
5.06288e-07
1.57495e-05
7.26184e-07
1.46575e-05
1.09198e-06
1.29451e-05
1.7124e-06
1.0162e-05
2.78319e-06
5.55723e-06
4.60473e-06
5.55723e-06
-1.19308e-07
-5.33533e-06
1.83182e-06
-6.44962e-06
4.41346e-06
-5.32244e-06
6.72983e-06
-4.03468e-06
8.61059e-06
-2.99705e-06
1.00942e-05
-2.23685e-06
1.12603e-05
-1.69729e-06
1.21829e-05
-1.31334e-06
1.29206e-05
-1.03505e-06
1.35168e-05
-8.28579e-07
1.40034e-05
-6.71724e-07
1.44038e-05
-5.49929e-07
1.47353e-05
-4.53513e-07
1.50109e-05
-3.759e-07
1.52407e-05
-3.12512e-07
1.54325e-05
-2.60073e-07
1.55922e-05
-2.16179e-07
1.57248e-05
-1.7902e-07
1.5834e-05
-1.47199e-07
1.59229e-05
-1.19607e-07
1.5994e-05
-9.53489e-08
1.60491e-05
-7.36765e-08
1.60896e-05
-5.39508e-08
1.61165e-05
-3.5609e-08
1.61305e-05
-1.81393e-08
1.61319e-05
-1.06179e-09
1.61206e-05
1.60967e-08
1.60962e-05
3.38091e-08
1.60579e-05
5.25781e-08
1.60046e-05
7.29523e-08
1.59347e-05
9.55541e-08
1.5846e-05
1.21113e-07
1.57357e-05
1.50511e-07
1.56003e-05
1.84845e-07
1.54353e-05
2.25515e-07
1.52347e-05
2.74352e-07
1.49909e-05
3.3381e-07
1.46942e-05
4.07257e-07
1.43312e-05
4.99434e-07
1.38843e-05
6.17184e-07
1.33291e-05
7.70642e-07
1.26321e-05
9.75164e-07
1.17464e-05
1.25441e-06
1.06077e-05
1.645e-06
9.1319e-06
2.202e-06
7.2245e-06
2.99938e-06
4.83155e-06
4.10535e-06
2.12101e-06
5.49373e-06
1.07187e-08
6.71502e-06
5.56795e-06
-1.08241e-06
-4.25292e-06
-7.53937e-07
-6.77809e-06
5.89951e-07
-6.66633e-06
2.30276e-06
-5.74749e-06
4.01476e-06
-4.70906e-06
5.56732e-06
-3.78941e-06
6.91317e-06
-3.04314e-06
8.05586e-06
-2.45603e-06
9.01789e-06
-1.99709e-06
9.82598e-06
-1.63667e-06
1.05051e-05
-1.35086e-06
1.10768e-05
-1.12158e-06
1.15587e-05
-9.3544e-07
1.19654e-05
-7.82607e-07
1.23087e-05
-6.55778e-07
1.25981e-05
-5.49467e-07
1.28414e-05
-4.59489e-07
1.30449e-05
-3.82588e-07
1.32139e-05
-3.16183e-07
1.33525e-05
-2.58187e-07
1.3464e-05
-2.06871e-07
1.35511e-05
-1.60776e-07
1.36158e-05
-1.18633e-07
1.36595e-05
-7.93111e-08
1.36831e-05
-4.17733e-08
1.36871e-05
-5.03765e-09
1.36714e-05
3.18635e-08
1.36353e-05
6.99053e-08
1.35777e-05
1.10118e-07
1.3497e-05
1.53624e-07
1.33909e-05
2.01684e-07
1.32563e-05
2.55764e-07
1.30892e-05
3.17614e-07
1.28846e-05
3.89374e-07
1.26364e-05
4.73726e-07
1.23367e-05
5.741e-07
1.19755e-05
6.94967e-07
1.15405e-05
8.42255e-07
1.1016e-05
1.02395e-06
1.03823e-05
1.25094e-06
9.61472e-06
1.53817e-06
8.68372e-06
1.90616e-06
7.5557e-06
2.38243e-06
6.1988e-06
3.0019e-06
4.59829e-06
3.80251e-06
2.79186e-06
4.80581e-06
9.3821e-07
5.959e-06
-5.70555e-07
7.00249e-06
-1.03813e-06
7.18259e-06
4.52982e-06
-9.12964e-07
-3.33995e-06
-1.34119e-06
-6.34987e-06
-9.35974e-07
-7.07155e-06
2.28386e-08
-6.7063e-06
1.24148e-06
-5.92769e-06
2.52041e-06
-5.06834e-06
3.74686e-06
-4.26958e-06
4.86807e-06
-3.57724e-06
5.86617e-06
-2.99519e-06
6.74127e-06
-2.51177e-06
7.50174e-06
-2.11134e-06
8.15905e-06
-1.77888e-06
8.72513e-06
-1.50152e-06
9.21125e-06
-1.26873e-06
9.62752e-06
-1.07205e-06
9.98275e-06
-9.04701e-07
1.02845e-05
-7.61268e-07
1.05393e-05
-6.37351e-07
1.07525e-05
-5.29341e-07
1.09285e-05
-4.34234e-07
1.10711e-05
-3.49481e-07
1.11832e-05
-2.72881e-07
1.12671e-05
-2.02488e-07
1.13243e-05
-1.36541e-07
1.13559e-05
-7.34046e-08
1.13624e-05
-1.15155e-08
1.13436e-05
5.06699e-08
1.12988e-05
1.14717e-07
1.12266e-05
1.82272e-07
1.11251e-05
2.55117e-07
1.09916e-05
3.3524e-07
1.08224e-05
4.24918e-07
1.06132e-05
5.26824e-07
1.03584e-05
6.44167e-07
1.00513e-05
7.80871e-07
9.68358e-06
9.41806e-07
9.24545e-06
1.1331e-06
8.72518e-06
1.36252e-06
8.10914e-06
1.63998e-06
7.38204e-06
1.97804e-06
6.52783e-06
2.39238e-06
5.53222e-06
2.90177e-06
4.38799e-06
3.52666e-06
3.10567e-06
4.28421e-06
1.73286e-06
5.17532e-06
3.84359e-07
6.15431e-06
-7.24056e-07
7.06741e-06
-1.26548e-06
7.54392e-06
-9.15808e-07
6.83292e-06
3.61401e-06
-6.64641e-07
-2.67531e-06
-1.29672e-06
-5.71779e-06
-1.41695e-06
-6.95131e-06
-1.04051e-06
-7.08274e-06
-3.21914e-07
-6.64629e-06
5.81302e-07
-5.97156e-06
1.55087e-06
-5.23915e-06
2.51086e-06
-4.53723e-06
3.41805e-06
-3.90238e-06
4.25101e-06
-3.34473e-06
5.00169e-06
-2.86202e-06
5.66972e-06
-2.44691e-06
6.25882e-06
-2.09062e-06
6.77464e-06
-1.78455e-06
7.22353e-06
-1.52093e-06
7.61182e-06
-1.29299e-06
7.94549e-06
-1.09494e-06
8.22994e-06
-9.21803e-07
8.46995e-06
-7.69347e-07
8.66962e-06
-6.33901e-07
8.83239e-06
-5.12259e-07
8.96109e-06
-4.01577e-07
9.05789e-06
-2.99288e-07
9.12437e-06
-2.03024e-07
9.16153e-06
-1.10557e-07
9.16974e-06
-1.97339e-08
9.14883e-06
7.15798e-08
9.09799e-06
1.65557e-07
9.01579e-06
2.64474e-07
8.90013e-06
3.70777e-07
8.74821e-06
4.87163e-07
8.55645e-06
6.16675e-07
8.32046e-06
7.62815e-07
8.03495e-06
9.2968e-07
7.69369e-06
1.12213e-06
7.28949e-06
1.346e-06
6.81432e-06
1.60827e-06
6.2595e-06
1.91735e-06
5.61632e-06
2.28316e-06
4.87723e-06
2.71713e-06
4.03805e-06
3.23157e-06
3.10189e-06
3.83793e-06
2.08575e-06
4.5428e-06
1.03065e-06
5.33931e-06
1.52953e-08
6.19068e-06
-8.31048e-07
7.00065e-06
-1.32855e-06
7.56491e-06
-1.29256e-06
7.50793e-06
-6.84853e-07
6.22521e-06
2.92916e-06
-4.70593e-07
-2.20472e-06
-1.09899e-06
-5.08939e-06
-1.46657e-06
-6.58374e-06
-1.46672e-06
-7.08259e-06
-1.14523e-06
-6.96778e-06
-5.97108e-07
-6.51968e-06
8.39737e-08
-5.92023e-06
8.24137e-07
-5.27739e-06
1.57173e-06
-4.64997e-06
2.29367e-06
-4.06667e-06
2.97053e-06
-3.53888e-06
3.59226e-06
-3.06863e-06
4.15483e-06
-2.65319e-06
4.65798e-06
-2.28771e-06
5.10363e-06
-1.96659e-06
5.49487e-06
-1.68423e-06
5.83528e-06
-1.43535e-06
6.12855e-06
-1.21507e-06
6.37821e-06
-1.019e-06
6.58747e-06
-8.43162e-07
6.75914e-06
-6.83935e-07
6.89558e-06
-5.38017e-07
6.99864e-06
-4.02348e-07
7.06967e-06
-2.74048e-07
7.10947e-06
-1.50364e-07
7.11835e-06
-2.86059e-08
7.09602e-06
9.39089e-08
7.04166e-06
2.19916e-07
6.95386e-06
3.52269e-07
6.83063e-06
4.94009e-07
6.66935e-06
6.48444e-07
6.46679e-06
8.19237e-07
6.2191e-06
1.0105e-06
5.92187e-06
1.22692e-06
5.57018e-06
1.47382e-06
5.15884e-06
1.75734e-06
4.68271e-06
2.0844e-06
4.13734e-06
2.46272e-06
3.52e-06
2.9005e-06
2.83144e-06
3.4057e-06
2.07849e-06
3.98452e-06
1.27808e-06
4.63833e-06
4.6272e-07
5.35816e-06
-3.13042e-07
6.11508e-06
-9.67024e-07
6.84466e-06
-1.3904e-06
7.42403e-06
-1.46802e-06
7.64254e-06
-1.13548e-06
7.17539e-06
-4.96378e-07
5.58611e-06
2.43278e-06
-3.3959e-07
-1.86513e-06
-9.01007e-07
-4.52797e-06
-1.36209e-06
-6.12266e-06
-1.58146e-06
-6.86322e-06
-1.5407e-06
-7.00854e-06
-1.28186e-06
-6.77852e-06
-8.6628e-07
-6.33581e-06
-3.53043e-07
-5.79063e-06
2.09572e-07
-5.21258e-06
7.85707e-07
-4.6428e-06
1.35054e-06
-4.10371e-06
1.88794e-06
-3.60604e-06
2.38823e-06
-3.15348e-06
2.84622e-06
-2.7457e-06
3.25978e-06
-2.38014e-06
3.62873e-06
-2.05318e-06
3.95411e-06
-1.76073e-06
4.23763e-06
-1.49859e-06
4.48129e-06
-1.26266e-06
4.68712e-06
-1.04899e-06
4.85704e-06
-8.53861e-07
4.99274e-06
-6.73714e-07
5.09556e-06
-5.0517e-07
5.16649e-06
-3.44974e-07
5.20608e-06
-1.89958e-07
5.21447e-06
-3.6994e-08
5.19132e-06
1.1706e-07
5.13583e-06
2.75408e-07
5.04671e-06
4.41379e-07
4.92224e-06
6.18484e-07
4.7602e-06
8.10482e-07
4.55799e-06
1.02144e-06
4.31268e-06
1.25582e-06
4.02111e-06
1.51849e-06
3.68016e-06
1.81477e-06
3.28708e-06
2.15041e-06
2.84004e-06
2.53144e-06
2.33895e-06
2.96381e-06
1.78674e-06
3.45271e-06
1.19109e-06
4.00135e-06
5.66871e-07
4.60873e-06
-6.0782e-08
5.26599e-06
-6.53202e-07
5.95058e-06
-1.15571e-06
6.61759e-06
-1.49859e-06
7.18754e-06
-1.60633e-06
7.53177e-06
-1.42268e-06
7.45889e-06
-9.59003e-07
6.71171e-06
-3.6637e-07
4.99347e-06
2.06641e-06
-2.54641e-07
-1.61049e-06
-7.39947e-07
-4.04267e-06
-1.2192e-06
-5.6434e-06
-1.55576e-06
-6.52667e-06
-1.70061e-06
-6.86369e-06
-1.65968e-06
-6.81945e-06
-1.46563e-06
-6.52986e-06
-1.15933e-06
-6.09693e-06
-7.79763e-07
-5.59215e-06
-3.59664e-07
-5.0629e-06
7.55728e-08
-4.53895e-06
5.07357e-07
-4.03782e-06
9.22756e-07
-3.56888e-06
1.31325e-06
-3.13619e-06
1.6736e-06
-2.74049e-06
2.00092e-06
-2.3805e-06
2.29392e-06
-2.05374e-06
2.55242e-06
-1.75709e-06
2.77685e-06
-1.48709e-06
2.96802e-06
-1.24016e-06
3.12686e-06
-1.0127e-06
3.25427e-06
-8.01128e-07
3.35103e-06
-6.01927e-07
3.41767e-06
-4.1162e-07
3.45447e-06
-2.26761e-07
3.46139e-06
-4.39087e-08
3.43803e-06
1.40416e-07
3.38368e-06
3.29763e-07
3.29726e-06
5.27796e-07
3.17741e-06
7.38338e-07
3.02248e-06
9.65407e-07
2.83068e-06
1.21325e-06
2.60016e-06
1.48634e-06
2.32924e-06
1.7894e-06
2.01674e-06
2.12727e-06
1.66237e-06
2.50478e-06
1.26743e-06
2.92639e-06
8.3563e-07
3.3956e-06
3.7432e-07
3.91402e-06
-1.04043e-07
4.47972e-06
-5.80121e-07
5.08481e-06
-1.02593e-06
5.7118e-06
-1.40371e-06
6.32836e-06
-1.66664e-06
6.88052e-06
-1.76364e-06
7.28454e-06
-1.65124e-06
7.41938e-06
-1.31607e-06
7.12371e-06
-8.08561e-07
6.2042e-06
-2.80942e-07
4.46585e-06
1.78547e-06
-1.99042e-07
-1.41145e-06
-6.17069e-07
-3.62464e-06
-1.08181e-06
-5.17866e-06
-1.47503e-06
-6.13345e-06
-1.7373e-06
-6.60141e-06
-1.85318e-06
-6.70357e-06
-1.83395e-06
-6.5491e-06
-1.70384e-06
-6.22705e-06
-1.49085e-06
-5.80514e-06
-1.22161e-06
-5.33214e-06
-9.18944e-07
-4.84161e-06
-6.01182e-07
-4.35559e-06
-2.82309e-07
-3.88775e-06
2.74274e-08
-3.44593e-06
3.20824e-07
-3.03389e-06
5.93035e-07
-2.65271e-06
8.4098e-07
-2.30168e-06
1.06285e-06
-1.97896e-06
1.25772e-06
-1.68195e-06
1.42523e-06
-1.40767e-06
1.56536e-06
-1.15283e-06
1.67826e-06
-9.14028e-07
1.7641e-06
-6.87768e-07
1.82299e-06
-4.70509e-07
1.8549e-06
-2.5867e-07
1.85962e-06
-4.86314e-08
1.83675e-06
1.63287e-07
1.78567e-06
3.80839e-07
1.7056e-06
6.07872e-07
1.59559e-06
8.48346e-07
1.45465e-06
1.10634e-06
1.28186e-06
1.38604e-06
1.07651e-06
1.6917e-06
8.38383e-07
2.02752e-06
5.68111e-07
2.39755e-06
2.67614e-07
2.80528e-06
-5.92585e-08
3.25326e-06
-4.05948e-07
3.74229e-06
-7.62235e-07
4.27031e-06
-1.11319e-06
4.83067e-06
-1.43819e-06
5.40981e-06
-1.71038e-06
5.98399e-06
-1.89719e-06
6.51517e-06
-1.96298e-06
6.94631e-06
-1.87529e-06
7.19684e-06
-1.61609e-06
7.16018e-06
-1.19895e-06
6.70657e-06
-6.89887e-07
5.69514e-06
-2.24269e-07
4.00024e-06
1.5612e-06
-1.61697e-07
-1.24975e-06
-5.25141e-07
-3.26119e-06
-9.63778e-07
-4.74002e-06
-1.37986e-06
-5.71737e-06
-1.71394e-06
-6.26733e-06
-1.93962e-06
-6.47789e-06
-2.05387e-06
-6.43484e-06
-2.0677e-06
-6.21322e-06
-1.99886e-06
-5.87398e-06
-1.86698e-06
-5.46402e-06
-1.69073e-06
-5.01786e-06
-1.48638e-06
-4.55993e-06
-1.26738e-06
-4.10676e-06
-1.04433e-06
-3.66898e-06
-8.25334e-07
-3.25288e-06
-6.16385e-07
-2.86166e-06
-4.21785e-07
-2.49628e-06
-2.44529e-07
-2.15621e-06
-8.66364e-08
-1.83985e-06
5.05731e-08
-1.54488e-06
1.6626e-07
-1.26852e-06
2.59889e-07
-1.00766e-06
3.31096e-07
-7.58975e-07
3.79588e-07
-5.19e-07
4.05071e-07
-2.84153e-07
4.07207e-07
-5.07681e-08
3.85595e-07
1.84899e-07
3.39771e-07
4.26663e-07
2.69238e-07
6.78404e-07
1.7353e-07
9.44054e-07
5.23015e-08
1.22757e-06
-9.453e-08
1.53287e-06
-2.66591e-07
1.86376e-06
-4.6279e-07
2.22372e-06
-6.80975e-07
2.61573e-06
-9.17499e-07
3.0418e-06
-1.16669e-06
3.50245e-06
-1.42024e-06
3.99584e-06
-1.66657e-06
4.51663e-06
-1.89023e-06
5.05434e-06
-2.0717e-06
5.59128e-06
-2.1877e-06
6.09998e-06
-2.21277e-06
6.54024e-06
-2.12276e-06
6.8563e-06
-1.90092e-06
6.97501e-06
-1.54723e-06
6.80649e-06
-1.09012e-06
6.24945e-06
-5.98123e-07
5.20314e-06
-1.85472e-07
3.58759e-06
1.37573e-06
-1.35881e-07
-1.11387e-06
-4.56522e-07
-2.94055e-06
-8.67154e-07
-4.32939e-06
-1.28824e-06
-5.29628e-06
-1.6649e-06
-5.89067e-06
-1.96625e-06
-6.17655e-06
-2.18049e-06
-6.2206e-06
-2.309e-06
-6.0847e-06
-2.36102e-06
-5.82196e-06
-2.34952e-06
-5.47552e-06
-2.28849e-06
-5.07889e-06
-2.19129e-06
-4.65713e-06
-2.06974e-06
-4.22831e-06
-1.93383e-06
-3.80488e-06
-1.7917e-06
-3.39502e-06
-1.64975e-06
-3.0036e-06
-1.51295e-06
-2.63308e-06
-1.38504e-06
-2.28412e-06
-1.26879e-06
-1.95609e-06
-1.16625e-06
-1.64742e-06
-1.0789e-06
-1.35587e-06
-1.00781e-06
-1.07874e-06
-9.538e-07
-8.12986e-07
-9.17486e-07
-5.55314e-07
-8.99375e-07
-3.02265e-07
-8.99895e-07
-5.02484e-08
-9.19413e-07
2.04418e-07
-9.58228e-07
4.65478e-07
-1.01653e-06
7.36707e-07
-1.09434e-06
1.02186e-06
-1.1914e-06
1.32463e-06
-1.30702e-06
1.6485e-06
-1.43993e-06
1.99667e-06
-1.58799e-06
2.37178e-06
-1.74789e-06
2.77563e-06
-1.91482e-06
3.20873e-06
-2.08205e-06
3.66968e-06
-2.24054e-06
4.15433e-06
-2.3786e-06
4.6547e-06
-2.48178e-06
5.15752e-06
-2.5331e-06
5.6426e-06
-2.51404e-06
6.08093e-06
-2.40659e-06
6.43279e-06
-2.19677e-06
6.64647e-06
-1.87989e-06
6.65813e-06
-1.46753e-06
6.39413e-06
-9.94963e-07
5.77689e-06
-5.26974e-07
4.73515e-06
-1.57907e-07
3.21852e-06
1.21782e-06
-1.17557e-07
-9.96311e-07
-4.05067e-07
-2.65304e-06
-7.89845e-07
-3.94461e-06
-1.20718e-06
-4.87894e-06
-1.60824e-06
-5.48961e-06
-1.96131e-06
-5.82348e-06
-2.24971e-06
-5.9322e-06
-2.46826e-06
-5.86615e-06
-2.61958e-06
-5.67064e-06
-2.71093e-06
-5.38417e-06
-2.7518e-06
-5.03801e-06
-2.75232e-06
-4.65662e-06
-2.72216e-06
-4.25846e-06
-2.67006e-06
-3.85698e-06
-2.60355e-06
-3.46153e-06
-2.5289e-06
-3.07825e-06
-2.45124e-06
-2.71075e-06
-2.37465e-06
-2.36072e-06
-2.30234e-06
-2.0284e-06
-2.2368e-06
-1.71295e-06
-2.17997e-06
-1.4127e-06
-2.13332e-06
-1.12539e-06
-2.09799e-06
-8.48324e-07
-2.07482e-06
-5.78478e-07
-2.06448e-06
-3.12602e-07
-2.06745e-06
-4.72849e-08
-2.08402e-06
2.2099e-07
-2.11432e-06
4.95784e-07
-2.15827e-06
7.80651e-07
-2.21546e-06
1.07906e-06
-2.28514e-06
1.3943e-06
-2.36599e-06
1.72935e-06
-2.45603e-06
2.08671e-06
-2.55237e-06
2.46812e-06
-2.65097e-06
2.87423e-06
-2.7464e-06
3.30416e-06
-2.83157e-06
3.75485e-06
-2.89755e-06
4.22031e-06
-2.93348e-06
4.69063e-06
-2.92682e-06
5.15086e-06
-2.86393e-06
5.5797e-06
-2.73132e-06
5.94832e-06
-2.51781e-06
6.21929e-06
-2.21769e-06
6.34635e-06
-1.83488e-06
6.27532e-06
-1.38779e-06
5.94704e-06
-9.13709e-07
5.30281e-06
-4.71138e-07
4.29258e-06
-1.37601e-07
2.88498e-06
1.08022e-06
-1.04263e-07
-8.92048e-07
-3.6623e-07
-2.39108e-06
-7.28686e-07
-3.58216e-06
-1.13853e-06
-4.4691e-06
-1.55294e-06
-5.0752e-06
-1.94128e-06
-5.43515e-06
-2.28449e-06
-5.58899e-06
-2.57316e-06
-5.57748e-06
-2.80506e-06
-5.43874e-06
-2.98279e-06
-5.20643e-06
-3.1119e-06
-4.90891e-06
-3.19934e-06
-4.56919e-06
-3.25248e-06
-4.20533e-06
-3.27845e-06
-3.83101e-06
-3.28378e-06
-3.4562e-06
-3.27421e-06
-3.08782e-06
-3.25463e-06
-2.73033e-06
-3.22913e-06
-2.38622e-06
-3.20106e-06
-2.05646e-06
-3.17316e-06
-1.74085e-06
-3.14759e-06
-1.43827e-06
-3.12607e-06
-1.14692e-06
-3.10992e-06
-8.64468e-07
-3.10017e-06
-5.8823e-07
-3.09755e-06
-3.15229e-07
-3.10252e-06
-4.23079e-08
-3.11533e-06
2.33796e-07
-3.13592e-06
5.16379e-07
-3.16396e-06
8.08683e-07
-3.1987e-06
1.11381e-06
-3.23899e-06
1.43458e-06
-3.28305e-06
1.77341e-06
-3.32842e-06
2.13208e-06
-3.37175e-06
2.51145e-06
-3.40868e-06
2.91116e-06
-3.43362e-06
3.3291e-06
-3.4397e-06
3.76093e-06
-3.41871e-06
4.19932e-06
-3.36127e-06
4.63319e-06
-3.25724e-06
5.04683e-06
-3.09652e-06
5.41898e-06
-2.87039e-06
5.72219e-06
-2.57348e-06
5.92238e-06
-2.20641e-06
5.97927e-06
-1.77885e-06
5.84777e-06
-1.3128e-06
5.48098e-06
-8.44842e-07
4.83486e-06
-4.26661e-07
3.8744e-06
-1.22159e-07
2.58048e-06
9.58065e-07
-9.44525e-08
-7.97595e-07
-3.36729e-07
-2.1488e-06
-6.80587e-07
-3.2383e-06
-1.08185e-06
-4.06784e-06
-1.50307e-06
-4.65398e-06
-1.91551e-06
-5.0227e-06
-2.29928e-06
-5.20522e-06
-2.64239e-06
-5.23438e-06
-2.93916e-06
-5.14197e-06
-3.18862e-06
-4.95697e-06
-3.39297e-06
-4.70456e-06
-3.55631e-06
-4.40584e-06
-3.68375e-06
-4.07789e-06
-3.78071e-06
-3.73405e-06
-3.8525e-06
-3.38441e-06
-3.90404e-06
-3.03628e-06
-3.93974e-06
-2.69463e-06
-3.96344e-06
-2.36252e-06
-3.97841e-06
-2.04149e-06
-3.98739e-06
-1.73188e-06
-3.99262e-06
-1.43304e-06
-3.99592e-06
-1.14362e-06
-3.9987e-06
-8.61683e-07
-4.00205e-06
-5.84883e-07
-4.00671e-06
-3.10568e-07
-4.01313e-06
-3.58894e-08
-4.02144e-06
2.42106e-07
-4.03144e-06
5.26384e-07
-4.04258e-06
8.19825e-07
-4.05388e-06
1.12511e-06
-4.06386e-06
1.44457e-06
-4.07048e-06
1.78003e-06
-4.07101e-06
2.1326e-06
-4.06193e-06
2.50237e-06
-4.03886e-06
2.88809e-06
-3.99649e-06
3.28673e-06
-3.92855e-06
3.693e-06
-3.828e-06
4.09877e-06
-3.68725e-06
4.49244e-06
-3.49873e-06
4.85831e-06
-3.25577e-06
5.17602e-06
-2.95385e-06
5.42026e-06
-2.59228e-06
5.56081e-06
-2.17628e-06
5.56327e-06
-1.71918e-06
5.39067e-06
-1.2444e-06
5.0062e-06
-7.86504e-07
4.37696e-06
-3.90709e-07
3.47861e-06
-1.10105e-07
2.29988e-06
8.47959e-07
-8.712e-08
-7.10475e-07
-3.14201e-07
-1.92172e-06
-6.42886e-07
-2.90961e-06
-1.0358e-06
-3.67492e-06
-1.46007e-06
-4.22971e-06
-1.88909e-06
-4.59369e-06
-2.303e-06
-4.79131e-06
-2.68835e-06
-4.84902e-06
-3.03714e-06
-4.79318e-06
-3.34568e-06
-4.64843e-06
-3.61346e-06
-4.43678e-06
-3.84214e-06
-4.17716e-06
-4.03475e-06
-3.88528e-06
-4.19502e-06
-3.57377e-06
-4.32697e-06
-3.25246e-06
-4.43458e-06
-2.92867e-06
-4.5216e-06
-2.60761e-06
-4.59143e-06
-2.29269e-06
-4.64708e-06
-1.98584e-06
-4.69114e-06
-1.68782e-06
-4.72579e-06
-1.39839e-06
-4.75283e-06
-1.11658e-06
-4.77366e-06
-8.40851e-07
-4.78935e-06
-5.69193e-07
-4.80062e-06
-2.99302e-07
-4.80784e-06
-2.8667e-08
-4.81105e-06
2.4532e-07
-4.80993e-06
5.25261e-07
-4.80375e-06
8.13643e-07
-4.79135e-06
1.11271e-06
-4.7711e-06
1.42431e-06
-4.74079e-06
1.74973e-06
-4.69765e-06
2.08946e-06
-4.63822e-06
2.44294e-06
-4.55838e-06
2.80825e-06
-4.45335e-06
3.18169e-06
-4.31779e-06
3.55743e-06
-4.14601e-06
3.92699e-06
-3.93236e-06
4.27879e-06
-3.6718e-06
4.59775e-06
-3.36075e-06
4.86497e-06
-2.9982e-06
5.05771e-06
-2.58709e-06
5.14971e-06
-2.13589e-06
5.11207e-06
-1.66003e-06
4.91481e-06
-1.18307e-06
4.52923e-06
-7.36987e-07
3.93088e-06
-3.61282e-07
3.1029e-06
-1.00499e-07
2.03909e-06
7.4746e-07
-8.15896e-08
-6.28886e-07
-2.96931e-07
-1.70638e-06
-6.13408e-07
-2.59314e-06
-9.98828e-07
-3.2895e-06
-1.42407e-06
-3.80447e-06
-1.86459e-06
-4.15317e-06
-2.30104e-06
-4.35486e-06
-2.71923e-06
-4.43083e-06
-3.10962e-06
-4.4028e-06
-3.46652e-06
-4.29153e-06
-3.7873e-06
-4.116e-06
-4.07159e-06
-3.89288e-06
-4.32055e-06
-3.63631e-06
-4.53638e-06
-3.35794e-06
-4.72182e-06
-3.06702e-06
-4.87986e-06
-2.77064e-06
-5.0135e-06
-2.47398e-06
-5.12559e-06
-2.18059e-06
-5.21878e-06
-1.89266e-06
-5.29538e-06
-1.61121e-06
-5.35741e-06
-1.33636e-06
-5.40654e-06
-1.06746e-06
-5.4441e-06
-8.03293e-07
-5.47107e-06
-5.42218e-07
-5.48811e-06
-2.82266e-07
-5.4955e-06
-2.12741e-08
-5.49319e-06
2.43008e-07
-5.48073e-06
5.12808e-07
-5.45731e-06
7.90216e-07
-5.42165e-06
1.07705e-06
-5.37205e-06
1.37471e-06
-5.3063e-06
1.68399e-06
-5.22173e-06
2.00488e-06
-5.11511e-06
2.33633e-06
-4.98279e-06
2.67592e-06
-4.8207e-06
3.01961e-06
-4.62459e-06
3.36132e-06
-4.39022e-06
3.69262e-06
-4.11384e-06
4.00242e-06
-3.79274e-06
4.27665e-06
-3.42602e-06
4.49825e-06
-3.01552e-06
4.64721e-06
-2.56692e-06
4.7011e-06
-2.09082e-06
4.63597e-06
-1.60375e-06
4.42774e-06
-1.12867e-06
4.05415e-06
-6.94879e-07
3.49709e-06
-3.36962e-07
2.74498e-06
-9.27265e-08
1.79486e-06
6.54733e-07
-7.73938e-08
-5.51492e-07
-2.83665e-07
-1.5001e-06
-5.90419e-07
-2.28638e-06
-9.69408e-07
-2.91051e-06
-1.39455e-06
-3.37933e-06
-1.84314e-06
-3.70458e-06
-2.29656e-06
-3.90144e-06
-2.74034e-06
-3.98705e-06
-3.16393e-06
-3.97921e-06
-3.56022e-06
-3.89524e-06
-3.92494e-06
-3.75128e-06
-4.25604e-06
-3.56178e-06
-4.55313e-06
-3.33922e-06
-4.81701e-06
-3.09406e-06
-5.04924e-06
-2.83479e-06
-5.25183e-06
-2.56804e-06
-5.42701e-06
-2.29879e-06
-5.57705e-06
-2.03055e-06
-5.70413e-06
-1.76558e-06
-5.81024e-06
-1.5051e-06
-5.89715e-06
-1.24945e-06
-5.96634e-06
-9.98264e-07
-6.01901e-06
-7.50628e-07
-6.05602e-06
-5.05207e-07
-6.07792e-06
-2.60365e-07
-6.08491e-06
-1.42832e-08
-6.07684e-06
2.34936e-07
-6.05318e-06
4.89155e-07
-6.01305e-06
7.50082e-07
-5.95514e-06
1.01914e-06
-5.87776e-06
1.29733e-06
-5.77882e-06
1.58505e-06
-5.65584e-06
1.8819e-06
-5.50598e-06
2.18647e-06
-5.32615e-06
2.4961e-06
-5.11314e-06
2.80659e-06
-4.86378e-06
3.11196e-06
-4.57532e-06
3.40416e-06
-4.24577e-06
3.67286e-06
-3.87447e-06
3.90535e-06
-3.46276e-06
4.08654e-06
-3.01474e-06
4.19919e-06
-2.53806e-06
4.22443e-06
-2.04474e-06
4.14265e-06
-1.55167e-06
3.93468e-06
-1.08087e-06
3.58334e-06
-6.59067e-07
3.07529e-06
-3.16744e-07
2.40266e-06
-8.63727e-08
1.56449e-06
5.68361e-07
-7.42012e-08
-4.77291e-07
-2.73474e-07
-1.30083e-06
-5.72552e-07
-1.98731e-06
-9.46198e-07
-2.53687e-06
-1.37074e-06
-2.95479e-06
-1.82509e-06
-3.25022e-06
-2.29137e-06
-3.43516e-06
-2.7551e-06
-3.52332e-06
-3.20513e-06
-3.52918e-06
-3.63332e-06
-3.46704e-06
-4.03416e-06
-3.35044e-06
-4.40426e-06
-3.19167e-06
-4.74194e-06
-3.00154e-06
-5.04679e-06
-2.78922e-06
-5.31929e-06
-2.56229e-06
-5.56057e-06
-2.32677e-06
-5.7721e-06
-2.08726e-06
-5.95554e-06
-1.84711e-06
-6.1126e-06
-1.60853e-06
-6.24489e-06
-1.37281e-06
-6.35391e-06
-1.14044e-06
-6.4409e-06
-9.11269e-07
-6.50689e-06
-6.84638e-07
-6.55261e-06
-4.59491e-07
-6.57847e-06
-2.34498e-07
-6.5846e-06
-8.1623e-09
-6.57074e-06
2.21077e-07
-6.53632e-06
4.54738e-07
-6.48042e-06
6.94181e-07
-6.40176e-06
9.40483e-07
-6.29873e-06
1.1943e-06
-6.16942e-06
1.45573e-06
-6.01162e-06
1.7241e-06
-5.82297e-06
1.99782e-06
-5.60102e-06
2.27414e-06
-5.34339e-06
2.54897e-06
-5.04805e-06
2.81662e-06
-4.71359e-06
3.06969e-06
-4.33959e-06
3.29887e-06
-3.92719e-06
3.49295e-06
-3.47953e-06
3.63889e-06
-3.00246e-06
3.72211e-06
-2.50504e-06
3.72701e-06
-2.00011e-06
3.63772e-06
-1.50455e-06
3.43912e-06
-1.03926e-06
3.11805e-06
-6.28695e-07
2.66472e-06
-2.99907e-07
2.07387e-06
-8.11534e-08
1.34573e-06
4.87207e-07
-7.17732e-08
-4.05517e-07
-2.65666e-07
-1.10694e-06
-5.58743e-07
-1.69423e-06
-9.28055e-07
-2.16755e-06
-1.35183e-06
-2.53101e-06
-1.81034e-06
-2.79171e-06
-2.28641e-06
-2.95909e-06
-2.76568e-06
-3.04405e-06
-3.23666e-06
-3.0582e-06
-3.6905e-06
-3.01321e-06
-4.12074e-06
-2.9202e-06
-4.52296e-06
-2.78946e-06
-4.8944e-06
-2.6301e-06
-5.23363e-06
-2.44998e-06
-5.54023e-06
-2.25569e-06
-5.8145e-06
-2.05251e-06
-6.05721e-06
-1.84455e-06
-6.26946e-06
-1.63486e-06
-6.45247e-06
-1.42551e-06
-6.6075e-06
-1.21778e-06
-6.73571e-06
-1.01222e-06
-6.83814e-06
-8.0884e-07
-6.9156e-06
-6.07173e-07
-6.96868e-06
-4.06413e-07
-6.99768e-06
-2.05505e-07
-7.00259e-06
-3.24644e-09
-6.98313e-06
2.01612e-07
-6.93867e-06
4.10279e-07
-6.86829e-06
6.23803e-07
-6.77078e-06
8.4297e-07
-6.64465e-06
1.06817e-06
-6.4882e-06
1.29928e-06
-6.29959e-06
1.53549e-06
-6.07691e-06
1.77515e-06
-5.81837e-06
2.0156e-06
-5.52244e-06
2.25303e-06
-5.1881e-06
2.48228e-06
-4.81515e-06
2.69675e-06
-4.40459e-06
2.88831e-06
-3.95898e-06
3.04734e-06
-3.48295e-06
3.16286e-06
-2.98364e-06
3.2228e-06
-2.4711e-06
3.21448e-06
-1.95863e-06
3.12525e-06
-1.46283e-06
2.94332e-06
-1.00351e-06
2.65873e-06
-6.03121e-07
2.26434e-06
-2.85936e-07
1.75669e-06
-7.68702e-08
1.13667e-06
4.10337e-07
-6.99356e-08
-3.35582e-07
-2.59723e-07
-9.17152e-07
-5.48163e-07
-1.40579e-06
-9.14039e-07
-1.80168e-06
-1.33707e-06
-2.10798e-06
-1.7986e-06
-2.33018e-06
-2.28211e-06
-2.47559e-06
-2.77343e-06
-2.55273e-06
-3.26087e-06
-2.57076e-06
-3.7351e-06
-2.53898e-06
-4.18896e-06
-2.46634e-06
-4.61721e-06
-2.3612e-06
-5.01626e-06
-2.23105e-06
-5.38384e-06
-2.08241e-06
-5.71873e-06
-1.9208e-06
-6.02053e-06
-1.75071e-06
-6.28941e-06
-1.57567e-06
-6.52594e-06
-1.39833e-06
-6.73089e-06
-1.22056e-06
-6.90518e-06
-1.0435e-06
-7.04966e-06
-8.67739e-07
-7.16513e-06
-6.93366e-07
-7.25223e-06
-5.20077e-07
-7.31137e-06
-3.4727e-07
-7.34274e-06
-1.74133e-07
-7.34627e-06
2.76163e-10
-7.32158e-06
1.76924e-07
-7.26805e-06
3.56747e-07
-7.18477e-06
5.40529e-07
-7.07062e-06
7.28817e-07
-6.92426e-06
9.21813e-07
-6.74423e-06
1.11925e-06
-6.52903e-06
1.32029e-06
-6.27724e-06
1.52336e-06
-5.98768e-06
1.72604e-06
-5.65957e-06
1.92493e-06
-5.29284e-06
2.11555e-06
-4.88834e-06
2.29225e-06
-4.4482e-06
2.44817e-06
-3.97621e-06
2.57534e-06
-3.47811e-06
2.66476e-06
-2.96201e-06
2.7067e-06
-2.43863e-06
2.6911e-06
-1.92146e-06
2.60808e-06
-1.42677e-06
2.44862e-06
-9.73306e-07
2.20527e-06
-5.81864e-07
1.87289e-06
-2.74459e-07
1.44928e-06
-7.3383e-08
9.35593e-07
3.36954e-07
-6.8561e-08
-2.67021e-07
-2.55259e-07
-7.30454e-07
-5.40176e-07
-1.12087e-06
-9.03395e-07
-1.43846e-06
-1.32577e-06
-1.6856e-06
-1.78952e-06
-1.86643e-06
-2.27863e-06
-1.98647e-06
-2.77918e-06
-2.05218e-06
-3.27935e-06
-2.07059e-06
-3.7695e-06
-2.04883e-06
-4.24196e-06
-1.99389e-06
-4.69087e-06
-1.91228e-06
-5.11198e-06
-1.80994e-06
-5.50235e-06
-1.69204e-06
-5.86012e-06
-1.56303e-06
-6.18429e-06
-1.42653e-06
-6.47453e-06
-1.28543e-06
-6.73094e-06
-1.14193e-06
-6.95391e-06
-9.97582e-07
-7.14402e-06
-8.53391e-07
-7.30187e-06
-7.09886e-07
-7.42804e-06
-5.67199e-07
-7.52297e-06
-4.25141e-07
-7.58696e-06
-2.83281e-07
-7.62008e-06
-1.41015e-07
-7.62217e-06
2.36156e-09
-7.59282e-06
1.47579e-07
-7.5314e-06
2.95329e-07
-7.43705e-06
4.46176e-07
-7.30872e-06
6.00484e-07
-7.14523e-06
7.58326e-07
-6.94537e-06
9.1939e-07
-6.70795e-06
1.08288e-06
-6.43201e-06
1.24742e-06
-6.1169e-06
1.41093e-06
-5.76253e-06
1.57056e-06
-5.36961e-06
1.72262e-06
-4.93986e-06
1.8625e-06
-4.47637e-06
1.98468e-06
-3.98384e-06
2.08281e-06
-3.46891e-06
2.14982e-06
-2.94037e-06
2.17816e-06
-2.40937e-06
2.1601e-06
-1.88947e-06
2.08818e-06
-1.39653e-06
1.95568e-06
-9.48427e-07
1.75717e-06
-5.64573e-07
1.48904e-06
-2.65209e-07
1.14992e-06
-7.05926e-08
7.40976e-07
2.66361e-07
-6.75565e-08
-1.99464e-07
-2.51987e-07
-5.46024e-07
-5.34301e-07
-8.38558e-07
-8.95533e-07
-1.07723e-06
-1.31738e-06
-1.26375e-06
-1.78272e-06
-1.40109e-06
-2.27599e-06
-1.4932e-06
-2.78341e-06
-1.54476e-06
-3.29317e-06
-1.56083e-06
-3.79538e-06
-1.54662e-06
-4.28203e-06
-1.50724e-06
-4.7468e-06
-1.44751e-06
-5.18494e-06
-1.3718e-06
-5.59298e-06
-1.284e-06
-5.96857e-06
-1.18744e-06
-6.31025e-06
-1.08484e-06
-6.61725e-06
-9.78433e-07
-6.8893e-06
-8.69883e-07
-7.12647e-06
-7.60406e-07
-7.32907e-06
-6.50796e-07
-7.49747e-06
-5.41488e-07
-7.63205e-06
-4.32617e-07
-7.73312e-06
-3.24075e-07
-7.80083e-06
-2.15569e-07
-7.83517e-06
-1.06673e-07
-7.83592e-06
3.11202e-09
-7.80265e-06
1.14304e-07
-7.73471e-06
2.27388e-07
-7.63128e-06
3.42748e-07
-7.49141e-06
4.60613e-07
-7.31407e-06
5.80984e-07
-7.09824e-06
7.03566e-07
-6.84306e-06
8.27693e-07
-6.54789e-06
9.52254e-07
-6.21259e-06
1.07562e-06
-5.83761e-06
1.19558e-06
-5.42429e-06
1.3093e-06
-4.97506e-06
1.41328e-06
-4.49374e-06
1.50336e-06
-3.98574e-06
1.57481e-06
-3.45834e-06
1.62242e-06
-2.92082e-06
1.64064e-06
-2.38461e-06
1.62389e-06
-1.86325e-06
1.56682e-06
-1.37222e-06
1.46466e-06
-9.28698e-07
1.31365e-06
-5.50994e-07
1.11134e-06
-2.57996e-07
8.56922e-07
-6.84289e-08
5.51409e-07
1.97933e-07
-6.68553e-08
-1.32609e-07
-2.49697e-07
-3.63182e-07
-5.30181e-07
-5.58074e-07
-8.90004e-07
-7.17406e-07
-1.31147e-06
-8.42291e-07
-1.77792e-06
-9.34642e-07
-2.2741e-06
-9.97017e-07
-2.78642e-06
-1.03244e-06
-3.30303e-06
-1.04421e-06
-3.81392e-06
-1.03574e-06
-4.31081e-06
-1.01035e-06
-4.78709e-06
-9.71227e-07
-5.23763e-06
-9.21264e-07
-5.65859e-06
-8.63038e-07
-6.04727e-06
-7.9876e-07
-6.40184e-06
-7.30276e-07
-6.7212e-06
-6.59066e-07
-7.00482e-06
-5.8627e-07
-7.25251e-06
-5.12714e-07
-7.46436e-06
-4.38948e-07
-7.64056e-06
-3.65281e-07
-7.78136e-06
-2.91819e-07
-7.88693e-06
-2.18507e-07
-7.95734e-06
-1.45163e-07
-7.99249e-06
-7.15177e-08
-7.99213e-06
2.74662e-09
-7.95578e-06
7.79614e-08
-7.88283e-06
1.54432e-07
-7.77248e-06
2.32397e-07
-7.62385e-06
3.11985e-07
-7.43604e-06
3.93172e-07
-7.2082e-06
4.7573e-07
-6.93969e-06
5.59185e-07
-6.6302e-06
6.42758e-07
-6.27991e-06
7.2533e-07
-5.88971e-06
8.05392e-07
-5.46143e-06
8.81022e-07
-4.99803e-06
9.49869e-07
-4.50383e-06
1.00917e-06
-3.98479e-06
1.05577e-06
-3.4486e-06
1.08624e-06
-2.90491e-06
1.09695e-06
-2.36529e-06
1.08427e-06
-1.84323e-06
1.04476e-06
-1.35394e-06
9.75363e-07
-9.13996e-07
8.73707e-07
-5.40946e-07
7.38287e-07
-2.52688e-07
5.68663e-07
-6.68431e-08
3.65565e-07
1.31089e-07
-6.64117e-08
-6.61968e-08
-2.48247e-07
-1.81347e-07
-5.27567e-07
-2.78754e-07
-8.86489e-07
-3.58484e-07
-1.3077e-06
-4.21083e-07
-1.77485e-06
-4.67491e-07
-2.2729e-06
-4.98963e-07
-2.78836e-06
-5.16987e-07
-3.30938e-06
-5.23188e-07
-3.82588e-06
-5.19244e-07
-4.32942e-06
-5.0681e-07
-4.81319e-06
-4.87458e-07
-5.27182e-06
-4.6263e-07
-5.70125e-06
-4.3361e-07
-6.0985e-06
-4.01504e-07
-6.46154e-06
-3.67237e-07
-6.78906e-06
-3.31554e-07
-7.0803e-06
-2.95029e-07
-7.33493e-06
-2.58082e-07
-7.55288e-06
-2.20992e-07
-7.73424e-06
-1.83921e-07
-7.87914e-06
-1.46926e-07
-7.98766e-06
-1.09985e-07
-8.05981e-06
-7.30106e-08
-8.09546e-06
-3.58736e-08
-8.09429e-06
1.58118e-09
-8.05584e-06
3.95147e-08
-7.97949e-06
7.80745e-08
-7.86446e-06
1.17374e-07
-7.70995e-06
1.5747e-07
-7.51512e-06
1.98344e-07
-7.27926e-06
2.39872e-07
-7.00189e-06
2.81807e-07
-6.68288e-06