/*--------------------------------*- C++ -*----------------------------------*\
  =========                 |
  \\      /  F ield         | OpenFOAM: The Open Source CFD Toolbox
   \\    /   O peration     | Website:  https://openfoam.org
    \\  /    A nd           | Version:  7
     \\/     M anipulation  |
\*---------------------------------------------------------------------------*/
FoamFile
{
    version     2.0;
    format      ascii;
    class       surfaceScalarField;
    location    "0.0068";
    object      phi;
}
// * * * * * * * * * * * * * * * * * * * * * * * * * * * * * * * * * * * * * //

dimensions      [0 3 -1 0 0 0 0];

internalField   nonuniform List<scalar> 
4900
(
6.25772e-10
-6.25944e-10
2.80189e-10
3.45587e-10
-1.44375e-09
1.72395e-09
-4.45507e-09
3.01132e-09
-8.50185e-09
4.04678e-09
-1.33097e-08
4.8079e-09
-1.86292e-08
5.31944e-09
-2.42501e-08
5.62098e-09
-3.00031e-08
5.75298e-09
-3.57546e-08
5.75152e-09
-4.14013e-08
5.64672e-09
-4.68639e-08
5.46261e-09
-5.20816e-08
5.21769e-09
-5.70074e-08
4.9258e-09
-6.16044e-08
4.59703e-09
-6.58431e-08
4.2387e-09
-6.96992e-08
3.85611e-09
-7.31524e-08
3.45321e-09
-7.61855e-08
3.03309e-09
-7.87838e-08
2.59829e-09
-8.09349e-08
2.1511e-09
-8.26285e-08
1.69361e-09
-8.38564e-08
1.22788e-09
-8.46124e-08
7.55947e-10
-8.48922e-08
2.79848e-10
-8.46939e-08
-1.98347e-10
-8.40173e-08
-6.76559e-10
-8.28647e-08
-1.15267e-09
-8.12401e-08
-1.62454e-09
-7.91501e-08
-2.08997e-09
-7.66034e-08
-2.54672e-09
-7.3611e-08
-2.99243e-09
-7.01865e-08
-3.42452e-09
-6.63464e-08
-3.84009e-09
-6.21107e-08
-4.23567e-09
-5.75039e-08
-4.60685e-09
-5.2556e-08
-4.94785e-09
-4.73052e-08
-5.25085e-09
-4.17999e-08
-5.50526e-09
-3.61031e-08
-5.69677e-09
-3.02967e-08
-5.80644e-09
-2.44867e-08
-5.80995e-09
-1.88097e-08
-5.67702e-09
-1.34381e-08
-5.37162e-09
-8.58455e-09
-4.85355e-09
-4.50083e-09
-4.08372e-09
-1.4628e-09
-3.03801e-09
2.76881e-10
-1.73967e-09
6.28708e-10
-3.51821e-10
6.28736e-10
-3.37474e-10
-2.88466e-10
-3.06024e-09
3.06836e-09
-8.71927e-09
7.38299e-09
-1.71322e-08
1.14243e-08
-2.78637e-08
1.47783e-08
-4.03835e-08
1.73277e-08
-5.41628e-08
1.90988e-08
-6.87241e-08
2.01823e-08
-8.366e-08
2.06889e-08
-9.86352e-08
2.07267e-08
-1.1338e-07
2.03917e-08
-1.27682e-07
1.97643e-08
-1.41372e-07
1.89083e-08
-1.5432e-07
1.78733e-08
-1.66419e-07
1.66966e-08
-1.77587e-07
1.54059e-08
-1.87752e-07
1.40218e-08
-1.96859e-07
1.25602e-08
-2.04859e-07
1.10332e-08
-2.11712e-07
9.45107e-09
-2.17384e-07
7.82276e-09
-2.21847e-07
6.15643e-09
-2.25079e-07
4.45988e-09
-2.27064e-07
2.74075e-09
-2.2779e-07
1.00664e-09
-2.27254e-07
-7.34831e-10
-2.25454e-07
-2.47595e-09
-2.22398e-07
-4.20894e-09
-2.18097e-07
-5.92586e-09
-2.12568e-07
-7.61856e-09
-2.05836e-07
-9.27854e-09
-1.97932e-07
-1.08968e-08
-1.88893e-07
-1.24634e-08
-1.78766e-07
-1.3967e-08
-1.67608e-07
-1.5394e-08
-1.55488e-07
-1.67271e-08
-1.42491e-07
-1.79442e-08
-1.28726e-07
-1.90159e-08
-1.14328e-07
-1.99032e-08
-9.94699e-08
-2.05552e-08
-8.43699e-08
-2.09064e-08
-6.93041e-08
-2.08758e-08
-5.46144e-08
-2.03668e-08
-4.07146e-08
-1.92714e-08
-2.8088e-08
-1.74801e-08
-1.72681e-08
-1.49036e-08
-8.78828e-09
-1.15178e-08
-3.08503e-09
-7.44291e-09
-3.40632e-10
-3.09618e-09
2.88094e-10
-1.69886e-09
1.41041e-09
-7.35195e-09
8.72144e-09
-1.70323e-08
1.70633e-08
-3.04123e-08
2.48043e-08
-4.69169e-08
3.12829e-08
-6.58641e-08
3.62749e-08
-8.65617e-08
3.97963e-08
-1.08366e-07
4.19871e-08
-1.30714e-07
4.30362e-08
-1.53127e-07
4.31397e-08
-1.75213e-07
4.24784e-08
-1.96657e-07
4.12078e-08
-2.17204e-07
3.94553e-08
-2.36652e-07
3.73214e-08
-2.54839e-07
3.48832e-08
-2.71632e-07
3.21996e-08
-2.86925e-07
2.93148e-08
-3.00628e-07
2.6263e-08
-3.12666e-07
2.30713e-08
-3.22977e-07
1.97621e-08
-3.31509e-07
1.63548e-08
-3.3822e-07
1.28673e-08
-3.43077e-07
9.31624e-09
-3.46054e-07
5.718e-09
-3.47136e-07
2.08868e-09
-3.46315e-07
-1.55562e-09
-3.43592e-07
-5.19867e-09
-3.38977e-07
-8.82402e-09
-3.32488e-07
-1.24149e-08
-3.24153e-07
-1.5954e-08
-3.14008e-07
-1.94232e-08
-3.02102e-07
-2.28031e-08
-2.88493e-07
-2.60723e-08
-2.73254e-07
-2.9206e-08
-2.56474e-07
-3.21745e-08
-2.3826e-07
-3.49409e-08
-2.18746e-07
-3.74578e-08
-1.98099e-07
-3.96632e-08
-1.76525e-07
-4.14768e-08
-1.54285e-07
-4.27951e-08
-1.31704e-07
-4.34883e-08
-1.0918e-07
-4.33991e-08
-8.72011e-08
-4.23459e-08
-6.63393e-08
-4.01332e-08
-4.72457e-08
-3.65737e-08
-3.06186e-08
-3.15306e-08
-1.71442e-08
-2.49923e-08
-7.39912e-09
-1.7188e-08
-1.71011e-09
-8.78518e-09
-1.42204e-09
-2.98511e-09
4.39552e-09
-1.14361e-08
1.71725e-08
-2.48977e-08
3.05249e-08
-4.27691e-08
4.26757e-08
-6.43085e-08
5.28223e-08
-8.87067e-08
6.06732e-08
-1.15158e-07
6.62476e-08
-1.42911e-07
6.97396e-08
-1.71296e-07
7.14218e-08
-1.99742e-07
7.15855e-08
-2.2777e-07
7.05059e-08
-2.54986e-07
6.84248e-08
-2.81075e-07
6.55434e-08
-3.05777e-07
6.20234e-08
-3.28884e-07
5.79909e-08
-3.50228e-07
5.3543e-08
-3.69667e-07
4.87544e-08
-3.87087e-07
4.36829e-08
-4.02391e-07
3.8375e-08
-4.15498e-07
3.2869e-08
-4.26341e-07
2.71984e-08
-4.34868e-07
2.13934e-08
-4.41034e-07
1.54826e-08
-4.44809e-07
9.49329e-09
-4.46173e-07
3.45267e-09
-4.45117e-07
-2.61231e-09
-4.41641e-07
-8.67454e-09
-4.35758e-07
-1.47065e-08
-4.27493e-07
-2.06802e-08
-4.16881e-07
-2.65664e-08
-4.03969e-07
-3.23345e-08
-3.88821e-07
-3.79518e-08
-3.71511e-07
-4.33816e-08
-3.52135e-07
-4.85819e-08
-3.30808e-07
-5.35023e-08
-3.07668e-07
-5.80802e-08
-2.8289e-07
-6.22364e-08
-2.56684e-07
-6.58687e-08
-2.29315e-07
-6.88459e-08
-2.01108e-07
-7.10019e-08
-1.72465e-07
-7.21316e-08
-1.43874e-07
-7.19906e-08
-1.15917e-07
-7.03026e-08
-8.92733e-08
-6.67769e-08
-6.47033e-08
-6.11438e-08
-4.30197e-08
-5.32142e-08
-2.50362e-08
-4.29758e-08
-1.14965e-08
-3.07277e-08
-3.00038e-09
-1.72813e-08
-4.42243e-09
-4.05478e-09
8.45031e-09
-1.49649e-08
2.80826e-08
-3.17855e-08
4.73456e-08
-5.36136e-08
6.45037e-08
-7.95178e-08
7.87266e-08
-1.08562e-07
8.97174e-08
-1.39845e-07
9.75301e-08
-1.72532e-07
1.02427e-07
-2.05885e-07
1.04774e-07
-2.39262e-07
1.04963e-07
-2.72126e-07
1.0337e-07
-3.04031e-07
1.00329e-07
-3.3461e-07
9.61227e-08
-3.63566e-07
9.09792e-08
-3.90655e-07
8.50798e-08
-4.15677e-07
7.85655e-08
-4.38468e-07
7.15457e-08
-4.58892e-07
6.41063e-08
-4.76833e-07
5.63163e-08
-4.92197e-07
4.82334e-08
-5.04906e-07
3.99074e-08
-5.14897e-07
3.13836e-08
-5.22118e-07
2.27044e-08
-5.26536e-07
1.39104e-08
-5.28124e-07
5.04159e-09
-5.26874e-07
-3.86234e-09
-5.22788e-07
-1.27615e-08
-5.15879e-07
-2.16155e-08
-5.06176e-07
-3.03828e-08
-4.93722e-07
-3.90205e-08
-4.78573e-07
-4.74834e-08
-4.60802e-07
-5.57225e-08
-4.405e-07
-6.36835e-08
-4.17779e-07
-7.13036e-08
-3.92773e-07
-7.85081e-08
-3.65648e-07
-8.52047e-08
-3.36607e-07
-9.12773e-08
-3.05898e-07
-9.65779e-08
-2.73825e-07
-1.00919e-07
-2.40763e-07
-1.04064e-07
-2.07168e-07
-1.05727e-07
-1.73588e-07
-1.0557e-07
-1.40676e-07
-1.03215e-07
-1.09182e-07
-9.82709e-08
-7.99485e-08
-9.03768e-08
-5.38861e-08
-7.92767e-08
-3.19355e-08
-6.49263e-08
-1.50298e-08
-4.76333e-08
-4.07085e-09
-2.82403e-08
-8.49325e-09
-4.90182e-09
1.33521e-08
-1.78748e-08
4.10556e-08
-3.7578e-08
6.70488e-08
-6.28245e-08
8.97503e-08
-9.2491e-08
1.08393e-07
-1.25511e-07
1.22737e-07
-1.6089e-07
1.32909e-07
-1.97726e-07
1.39263e-07
-2.3522e-07
1.42268e-07
-2.72683e-07
1.42427e-07
-3.09534e-07
1.40221e-07
-3.45288e-07
1.36083e-07
-3.79544e-07
1.30379e-07
-4.11975e-07
1.2341e-07
-4.42311e-07
1.15416e-07
-4.7033e-07
1.06585e-07
-4.95849e-07
9.70642e-08
-5.18714e-07
8.69714e-08
-5.38798e-07
7.64004e-08
-5.55995e-07
6.54305e-08
-5.70218e-07
5.41301e-08
-5.81395e-07
4.25614e-08
-5.89473e-07
3.07821e-08
-5.9441e-07
1.88478e-08
-5.96182e-07
6.81277e-09
-5.94775e-07
-5.26918e-09
-5.90192e-07
-1.7344e-08
-5.82451e-07
-2.93568e-08
-5.71582e-07
-4.12515e-08
-5.57633e-07
-5.29696e-08
-5.40667e-07
-6.44493e-08
-5.20766e-07
-7.56238e-08
-4.98031e-07
-8.64187e-08
-4.72586e-07
-9.67483e-08
-4.44584e-07
-1.06511e-07
-4.14208e-07
-1.1558e-07
-3.81684e-07
-1.23801e-07
-3.47286e-07
-1.30976e-07
-3.1135e-07
-1.36855e-07
-2.74284e-07
-1.4113e-07
-2.36585e-07
-1.43427e-07
-1.98846e-07
-1.43309e-07
-1.61768e-07
-1.40293e-07
-1.26161e-07
-1.33877e-07
-9.29394e-08
-1.23599e-07
-6.31047e-08
-1.09111e-07
-3.77292e-08
-9.03018e-08
-1.79381e-08
-6.74244e-08
-4.91646e-09
-4.12619e-08
-1.34097e-08
-5.56233e-09
1.89145e-08
-2.02313e-08
5.57245e-08
-4.23696e-08
8.91871e-08
-7.05466e-08
1.17927e-07
-1.03458e-07
1.41304e-07
-1.39908e-07
1.59187e-07
-1.7881e-07
1.71811e-07
-2.19194e-07
1.79647e-07
-2.60211e-07
1.83285e-07
-3.01131e-07
1.83347e-07
-3.41338e-07
1.80427e-07
-3.80317e-07
1.75062e-07
-4.17643e-07
1.67705e-07
-4.52966e-07
1.58733e-07
-4.85997e-07
1.48447e-07
-5.16498e-07
1.37086e-07
-5.44272e-07
1.24838e-07
-5.69153e-07
1.11853e-07
-5.91005e-07
9.82519e-08
-6.09712e-07
8.41379e-08
-6.25182e-07
6.95996e-08
-6.37337e-07
5.47171e-08
-6.4612e-07
3.95651e-08
-6.51487e-07
2.42148e-08
-6.53411e-07
8.73609e-09
-6.51878e-07
-6.80219e-09
-6.46891e-07
-2.23308e-08
-6.38468e-07
-3.77795e-08
-6.26643e-07
-5.30763e-08
-6.11467e-07
-6.81461e-08
-5.93007e-07
-8.29095e-08
-5.7135e-07
-9.728e-08
-5.46607e-07
-1.11162e-07
-5.18912e-07
-1.24444e-07
-4.88427e-07
-1.36996e-07
-4.55351e-07
-1.48656e-07
-4.19926e-07
-1.59226e-07
-3.82446e-07
-1.68456e-07
-3.4327e-07
-1.76032e-07
-3.02831e-07
-1.81568e-07
-2.61656e-07
-1.84601e-07
-2.20375e-07
-1.84591e-07
-1.7973e-07
-1.80938e-07
-1.40584e-07
-1.73024e-07
-1.03918e-07
-1.60264e-07
-7.08291e-08
-1.422e-07
-4.25178e-08
-1.18613e-07
-2.02904e-08
-8.96519e-08
-5.57449e-09
-5.59778e-08
-1.89842e-08
-6.08321e-09
2.49977e-08
-2.21518e-08
7.17931e-08
-4.63542e-08
1.1339e-07
-7.70596e-08
1.48633e-07
-1.12801e-07
1.77046e-07
-1.52259e-07
1.98645e-07
-1.94256e-07
2.13808e-07
-2.37752e-07
2.23144e-07
-2.81849e-07
2.27382e-07
-3.25779e-07
2.27276e-07
-3.68895e-07
2.23543e-07
-4.10658e-07
2.16825e-07
-4.50624e-07
2.07671e-07
-4.88425e-07
1.96534e-07
-5.23759e-07
1.83781e-07
-5.56374e-07
1.69702e-07
-5.86064e-07
1.54528e-07
-6.12655e-07
1.38444e-07
-6.36003e-07
1.216e-07
-6.55988e-07
1.04123e-07
-6.72512e-07
8.61232e-08
-6.85495e-07
6.76999e-08
-6.94875e-07
4.89454e-08
-7.00608e-07
2.99475e-08
-7.02664e-07
1.07921e-08
-7.0103e-07
-8.43625e-09
-6.95708e-07
-2.76525e-08
-6.86717e-07
-4.67704e-08
-6.74092e-07
-6.57015e-08
-6.57885e-07
-8.43531e-08
-6.38167e-07
-1.02627e-07
-6.1503e-07
-1.20417e-07
-5.88588e-07
-1.37604e-07
-5.58982e-07
-1.5405e-07
-5.26383e-07
-1.69595e-07
-4.91e-07
-1.84039e-07
-4.53087e-07
-1.97139e-07
-4.12953e-07
-2.0859e-07
-3.70973e-07
-2.18012e-07
-3.27603e-07
-2.24938e-07
-2.83395e-07
-2.28809e-07
-2.3901e-07
-2.28976e-07
-1.9523e-07
-2.24718e-07
-1.52969e-07
-2.15284e-07
-1.13279e-07
-1.99954e-07
-7.73472e-08
-1.78132e-07
-4.65004e-08
-1.4946e-07
-2.22068e-08
-1.13946e-07
-6.09291e-09
-7.20916e-08
-2.50771e-08
-6.50924e-09
3.15069e-08
-2.37632e-08
8.9047e-08
-4.97548e-08
1.39381e-07
-8.26903e-08
1.81568e-07
-1.2096e-07
2.15316e-07
-1.63127e-07
2.40812e-07
-2.07922e-07
2.58603e-07
-2.54238e-07
2.6946e-07
-3.01124e-07
2.74268e-07
-3.47773e-07
2.73925e-07
-3.93509e-07
2.69279e-07
-4.37772e-07
2.61088e-07
-4.80098e-07
2.49997e-07
-5.20106e-07
2.36543e-07
-5.57483e-07
2.21158e-07
-5.9197e-07
2.04188e-07
-6.2335e-07
1.85908e-07
-6.51446e-07
1.6654e-07
-6.76109e-07
1.46262e-07
-6.97215e-07
1.25229e-07
-7.14663e-07
1.03571e-07
-7.28372e-07
8.14086e-08
-7.38278e-07
5.88514e-08
-7.44335e-07
3.60045e-08
-7.46513e-07
1.29701e-08
-7.44798e-07
-1.01511e-08
-7.39192e-07
-3.32583e-08
-7.29714e-07
-5.62488e-08
-7.16398e-07
-7.90172e-08
-6.99298e-07
-1.01453e-07
-6.78485e-07
-1.23439e-07
-6.54055e-07
-1.44848e-07
-6.26123e-07
-1.65536e-07
-5.94834e-07
-1.85339e-07
-5.60366e-07
-2.04063e-07
-5.22934e-07
-2.2147e-07
-4.82802e-07
-2.37271e-07
-4.4029e-07
-2.51102e-07
-3.95788e-07
-2.62514e-07
-3.49771e-07
-2.70955e-07
-3.02814e-07
-2.75766e-07
-2.55609e-07
-2.76181e-07
-2.08979e-07
-2.71348e-07
-1.63892e-07
-2.60371e-07
-1.2147e-07
-2.42377e-07
-8.29929e-08
-2.16609e-07
-4.99047e-08
-1.82548e-07
-2.38168e-08
-1.40033e-07
-6.51724e-09
-8.93911e-08
-3.15944e-08
-6.87878e-09
3.83857e-08
-2.51833e-08
1.07352e-07
-5.27875e-08
1.66985e-07
-8.77624e-08
2.16543e-07
-1.28371e-07
2.55924e-07
-1.73065e-07
2.85507e-07
-2.20487e-07
3.06024e-07
-2.69457e-07
3.18431e-07
-3.18971e-07
3.23782e-07
-3.68181e-07
3.23135e-07
-4.1638e-07
3.17479e-07
-4.62985e-07
3.07693e-07
-5.07517e-07
2.94528e-07
-5.49581e-07
2.78607e-07
-5.88854e-07
2.60431e-07
-6.25071e-07
2.40404e-07
-6.5801e-07
2.18848e-07
-6.8749e-07
1.9602e-07
-7.13359e-07
1.72131e-07
-7.35492e-07
1.47362e-07
-7.53787e-07
1.21866e-07
-7.68161e-07
9.57829e-08
-7.78551e-07
6.92412e-08
-7.8491e-07
4.23631e-08
-7.87206e-07
1.52669e-08
-7.85427e-07
-1.19308e-08
-7.79572e-07
-3.91129e-08
-7.6966e-07
-6.61609e-08
-7.55725e-07
-9.29523e-08
-7.37819e-07
-1.19359e-07
-7.16015e-07
-1.45243e-07
-6.90407e-07
-1.70457e-07
-6.61111e-07
-1.94831e-07
-6.28276e-07
-2.18174e-07
-5.92081e-07
-2.40257e-07
-5.52748e-07
-2.60804e-07
-5.10546e-07
-2.79473e-07
-4.65807e-07
-2.95842e-07
-4.18933e-07
-3.09388e-07
-3.70418e-07
-3.1947e-07
-3.20862e-07
-3.25322e-07
-2.7099e-07
-3.26054e-07
-2.21667e-07
-3.20671e-07
-1.73917e-07
-3.0812e-07
-1.28936e-07
-2.87358e-07
-8.80952e-08
-2.5745e-07
-5.29502e-08
-2.17693e-07
-2.52398e-08
-1.67744e-07
-6.88635e-09
-1.07745e-07
-3.84807e-08
-7.22308e-09
4.56088e-08
-2.65133e-08
1.26642e-07
-5.56448e-08
1.96117e-07
-9.25696e-08
2.53468e-07
-1.35433e-07
2.98788e-07
-1.82583e-07
3.32656e-07
-2.32568e-07
3.5601e-07
-2.84139e-07
3.70002e-07
-3.36232e-07
3.75875e-07
-3.87956e-07
3.74859e-07
-4.38571e-07
3.68094e-07
-4.87469e-07
3.56591e-07
-5.34153e-07
3.41213e-07
-5.78218e-07
3.22671e-07
-6.1933e-07
3.01544e-07
-6.57219e-07
2.78293e-07
-6.91661e-07
2.53289e-07
-7.22471e-07
2.26829e-07
-7.49497e-07
1.99157e-07
-7.72613e-07
1.70479e-07
-7.91719e-07
1.40971e-07
-8.06731e-07
1.10795e-07
-8.17586e-07
8.00966e-08
-8.24238e-07
4.9015e-08
-8.26656e-07
1.76846e-08
-8.24825e-07
-1.37623e-08
-8.18744e-07
-4.51935e-08
-8.08431e-07
-7.64743e-08
-7.93917e-07
-1.07466e-07
-7.75255e-07
-1.38021e-07
-7.52513e-07
-1.67985e-07
-7.25785e-07
-1.97185e-07
-6.95187e-07
-2.25429e-07
-6.60866e-07
-2.52495e-07
-6.23005e-07
-2.78118e-07
-5.81827e-07
-3.01981e-07
-5.37609e-07
-3.23691e-07
-4.9069e-07
-3.42761e-07
-4.41488e-07
-3.5859e-07
-3.90515e-07
-3.70442e-07
-3.38398e-07
-3.77439e-07
-2.85896e-07
-3.78556e-07
-2.33922e-07
-3.72645e-07
-1.83561e-07
-3.58481e-07
-1.36083e-07
-3.34836e-07
-9.29521e-08
-3.0058e-07
-5.58319e-08
-2.54813e-07
-2.65783e-08
-1.96997e-07
-7.23176e-09
-1.27091e-07
-4.57124e-08
-7.56675e-09
5.31755e-08
-2.78366e-08
1.46912e-07
-5.84894e-08
2.2677e-07
-9.73653e-08
2.92344e-07
-1.42497e-07
3.43919e-07
-1.92125e-07
3.82285e-07
-2.44711e-07
4.08595e-07
-2.98925e-07
4.24216e-07
-3.53643e-07
4.30593e-07
-4.07926e-07
4.29141e-07
-4.60998e-07
4.21166e-07
-5.12225e-07
4.07818e-07
-5.61091e-07
3.90078e-07
-6.07176e-07
3.68757e-07
-6.50142e-07
3.44509e-07
-6.89711e-07
3.17862e-07
-7.25657e-07
2.89235e-07
-7.57795e-07
2.58968e-07
-7.85974e-07
2.27336e-07
-8.10069e-07
1.94574e-07
-8.29981e-07
1.60883e-07
-8.45628e-07
1.26442e-07
-8.56949e-07
9.14176e-08
-8.63897e-07
5.59637e-08
-8.66443e-07
2.02303e-08
-8.6457e-07
-1.56353e-08
-8.58278e-07
-5.14861e-08
-8.47579e-07
-8.71724e-08
-8.32506e-07
-1.22539e-07
-8.13105e-07
-1.57423e-07
-7.89443e-07
-1.91647e-07
-7.61609e-07
-2.25019e-07
-7.29719e-07
-2.5732e-07
-6.93917e-07
-2.88297e-07
-6.54385e-07
-3.17651e-07
-6.11349e-07
-3.45017e-07
-5.65091e-07
-3.69949e-07
-5.15959e-07
-3.91893e-07
-4.64385e-07
-4.10163e-07
-4.10903e-07
-4.23925e-07
-3.56167e-07
-4.32175e-07
-3.00977e-07
-4.33746e-07
-2.46297e-07
-4.27325e-07
-1.93276e-07
-4.11502e-07
-1.43264e-07
-3.84848e-07
-9.78203e-08
-3.46024e-07
-5.87145e-08
-2.93919e-07
-2.79166e-08
-2.27795e-07
-7.57831e-09
-1.47429e-07
-5.32908e-08
-7.92885e-09
6.11044e-08
-2.92202e-08
1.68203e-07
-6.14552e-08
2.59005e-07
-1.02361e-07
3.3325e-07
-1.49855e-07
3.91413e-07
-2.02073e-07
4.34503e-07
-2.57378e-07
4.63899e-07
-3.1436e-07
4.81198e-07
-3.71829e-07
4.88062e-07
-4.28793e-07
4.86105e-07
-4.84437e-07
4.7681e-07
-5.38097e-07
4.61478e-07
-5.89237e-07
4.41218e-07
-6.37424e-07
4.16944e-07
-6.82311e-07
3.89396e-07
-7.23616e-07
3.59167e-07
-7.61112e-07
3.26731e-07
-7.94615e-07
2.92471e-07
-8.23976e-07
2.56697e-07
-8.49073e-07
2.19671e-07
-8.69809e-07
1.81619e-07
-8.86107e-07
1.4274e-07
-8.97906e-07
1.03217e-07
-9.05163e-07
6.32204e-08
-9.07847e-07
2.29142e-08
-9.05941e-07
-1.75406e-08
-8.99444e-07
-5.79833e-08
-8.88367e-07
-9.825e-08
-8.72735e-07
-1.38171e-07
-8.52593e-07
-1.77565e-07
-8.28001e-07
-2.16238e-07
-7.99045e-07
-2.53975e-07
-7.65835e-07
-2.9053e-07
-7.28513e-07
-3.2562e-07
-6.87257e-07
-3.58906e-07
-6.42296e-07
-3.89978e-07
-5.93915e-07
-4.1833e-07
-5.42472e-07
-4.43336e-07
-4.88414e-07
-4.64222e-07
-4.32297e-07
-4.80042e-07
-3.74808e-07
-4.89664e-07
-3.1679e-07
-4.91764e-07
-2.59264e-07
-4.84852e-07
-2.03448e-07
-4.67318e-07
-1.50779e-07
-4.37517e-07
-1.02914e-07
-3.93888e-07
-6.17335e-08
-3.351e-07
-2.93221e-08
-2.60207e-07
-7.94519e-09
-1.68806e-07
-6.1236e-08
-8.32404e-09
6.94284e-08
-3.07172e-08
1.90596e-07
-6.46509e-08
2.92938e-07
-1.07731e-07
3.7633e-07
-1.57756e-07
4.41438e-07
-2.12745e-07
4.89492e-07
-2.70961e-07
5.22115e-07
-3.30906e-07
5.41143e-07
-3.91318e-07
5.48474e-07
-4.51148e-07
5.45935e-07
-5.09536e-07
5.35198e-07
-5.65788e-07
5.1773e-07
-6.19345e-07
4.94775e-07
-6.69759e-07
4.67358e-07
-7.16675e-07
4.36312e-07
-7.59807e-07
4.023e-07
-7.9893e-07
3.65854e-07
-8.33862e-07
3.27402e-07
-8.64456e-07
2.87291e-07
-8.90597e-07
2.45812e-07
-9.12192e-07
2.03214e-07
-9.29167e-07
1.59716e-07
-9.41467e-07
1.15517e-07
-9.49049e-07
7.08023e-08
-9.51884e-07
2.57491e-08
-9.49955e-07
-1.94696e-08
-9.43257e-07
-6.4681e-08
-9.31799e-07
-1.09709e-07
-9.15601e-07
-1.54369e-07
-8.94701e-07
-1.98465e-07
-8.69154e-07
-2.41785e-07
-8.39037e-07
-2.84091e-07
-8.04455e-07
-3.25112e-07
-7.65543e-07
-3.64532e-07
-7.22477e-07
-4.01972e-07
-6.75484e-07
-4.36971e-07
-6.24853e-07
-4.68961e-07
-5.70951e-07
-4.97238e-07
-5.14241e-07
-5.20932e-07
-4.55304e-07
-5.38979e-07
-3.94863e-07
-5.50105e-07
-3.33809e-07
-5.52818e-07
-2.73223e-07
-5.45437e-07
-2.14405e-07
-5.26137e-07
-1.5888e-07
-4.93042e-07
-1.08412e-07
-4.44356e-07
-6.49993e-08
-3.78513e-07
-3.08489e-08
-2.94357e-07
-8.3472e-09
-1.91308e-07
-6.95832e-08
-8.76385e-09
7.81923e-08
-3.23706e-08
2.14203e-07
-6.81658e-08
3.28733e-07
-1.13622e-07
4.21787e-07
-1.66405e-07
4.94221e-07
-2.24412e-07
5.47499e-07
-2.85793e-07
5.83496e-07
-3.48957e-07
6.04307e-07
-4.1256e-07
6.12078e-07
-4.75492e-07
6.08867e-07
-5.36846e-07
5.96552e-07
-5.9589e-07
5.76774e-07
-6.52042e-07
5.50927e-07
-7.0484e-07
5.20157e-07
-7.5392e-07
4.85392e-07
-7.98997e-07
4.47376e-07
-8.39844e-07
4.06701e-07
-8.76284e-07
3.63842e-07
-9.08178e-07
3.19185e-07
-9.35416e-07
2.7305e-07
-9.57912e-07
2.2571e-07
-9.756e-07
1.77403e-07
-9.88427e-07
1.28344e-07
-9.96354e-07
7.87299e-08
-9.99355e-07
2.87498e-08
-9.97411e-07
-2.14133e-08
-9.90516e-07
-7.15764e-08
-9.78672e-07
-1.21552e-07
-9.61895e-07
-1.71146e-07
-9.40214e-07
-2.20146e-07
-9.13676e-07
-2.68323e-07
-8.82349e-07
-3.15419e-07
-8.46326e-07
-3.61135e-07
-8.05737e-07
-4.05121e-07
-7.60751e-07
-4.46958e-07
-7.11592e-07
-4.8613e-07
-6.58552e-07
-5.22001e-07
-6.02005e-07
-5.53784e-07
-5.42433e-07
-5.80504e-07
-4.80442e-07
-6.00969e-07
-4.16796e-07
-6.1375e-07
-3.52439e-07
-6.17176e-07
-2.88521e-07
-6.09355e-07
-2.26424e-07
-5.88233e-07
-1.67779e-07
-5.51688e-07
-1.14464e-07
-4.97671e-07
-6.86034e-08
-4.24373e-07
-3.25407e-08
-3.3042e-07
-8.79599e-09
-2.15053e-07
-7.83791e-08
-9.25776e-09
8.745e-08
-3.42165e-08
2.39162e-07
-7.20762e-08
3.66593e-07
-1.20159e-07
4.69869e-07
-1.75984e-07
5.50046e-07
-2.3731e-07
6.08826e-07
-3.02166e-07
6.48352e-07
-3.68856e-07
6.70996e-07
-4.35948e-07
6.7917e-07
-5.02262e-07
6.75181e-07
-5.66838e-07
6.61127e-07
-6.28907e-07
6.38844e-07
-6.87861e-07
6.09881e-07
-7.43223e-07
5.75519e-07
-7.94623e-07
5.36792e-07
-8.41773e-07
4.94526e-07
-8.84451e-07
4.4938e-07
-9.22489e-07
4.01879e-07
-9.55754e-07
3.5245e-07
-9.84147e-07
3.01443e-07
-1.00759e-06
2.49154e-07
-1.02603e-06
1.95839e-07
-1.03941e-06
1.41727e-07
-1.04771e-06
8.70255e-08
-1.05089e-06
3.19324e-08
-1.04894e-06
-2.33613e-08
-1.04185e-06
-7.86655e-08
-1.02962e-06
-1.33785e-07
-1.01225e-06
-1.88514e-07
-9.89765e-07
-2.42631e-07
-9.62199e-07
-2.9589e-07
-9.29606e-07
-3.48011e-07
-8.9207e-07
-3.98671e-07
-8.49706e-07
-4.47485e-07
-8.02677e-07
-4.93987e-07
-7.51201e-07
-5.37606e-07
-6.95569e-07
-5.77633e-07
-6.36165e-07
-6.13188e-07
-5.73486e-07
-6.43183e-07
-5.0817e-07
-6.66286e-07
-4.41021e-07
-6.809e-07
-3.73042e-07
-6.85155e-07
-3.05461e-07
-6.76936e-07
-2.39754e-07
-6.53939e-07
-1.77664e-07
-6.13779e-07
-1.21199e-07
-5.54136e-07
-7.26246e-08
-4.72947e-07
-3.44347e-08
-3.6861e-07
-9.30128e-09
-2.40186e-07
-8.76805e-08
-9.81418e-09
9.72642e-08
-3.62874e-08
2.65635e-07
-7.64512e-08
4.06757e-07
-1.27456e-07
5.20874e-07
-1.86655e-07
6.09245e-07
-2.51656e-07
6.73826e-07
-3.20348e-07
7.17045e-07
-3.90918e-07
7.41566e-07
-4.61839e-07
7.50091e-07
-5.31851e-07
7.45194e-07
-5.99939e-07
7.29215e-07
-6.65291e-07
7.04196e-07
-7.27273e-07
6.71863e-07
-7.85394e-07
6.33639e-07
-8.39276e-07
5.90674e-07
-8.88635e-07
5.43885e-07
-9.33257e-07
4.94001e-07
-9.72981e-07
4.41604e-07
-1.00769e-06
3.87158e-07
-1.03729e-06
3.31048e-07
-1.06173e-06
2.7359e-07
-1.08095e-06
2.15059e-07
-1.09492e-06
1.55693e-07
-1.1036e-06
9.57109e-08
-1.10698e-06
3.53141e-08
-1.10504e-06
-2.53014e-08
-1.09777e-06
-8.59412e-08
-1.08515e-06
-1.46405e-07
-1.06718e-06
-2.06482e-07
-1.04387e-06
-2.65939e-07
-1.01524e-06
-3.24518e-07
-9.81335e-07
-3.81919e-07
-9.42212e-07
-4.37793e-07
-8.97977e-07
-4.9172e-07
-8.48778e-07
-5.43186e-07
-7.94825e-07
-5.91559e-07
-7.36407e-07
-6.36051e-07
-6.73913e-07
-6.75682e-07
-6.07858e-07
-7.09238e-07
-5.38909e-07
-7.35235e-07
-4.67919e-07
-7.5189e-07
-3.95954e-07
-7.57119e-07
-3.24329e-07
-7.48562e-07
-2.54625e-07
-7.23643e-07
-1.8871e-07
-6.79694e-07
-1.28738e-07
-6.14108e-07
-7.71356e-08
-5.2455e-07
-3.6565e-08
-4.0918e-07
-9.87189e-09
-2.66879e-07
-9.75524e-08
-1.04413e-08
1.07706e-07
-3.86151e-08
2.93809e-07
-8.13583e-08
4.495e-07
-1.35626e-07
5.75142e-07
-1.98583e-07
6.72202e-07
-2.67662e-07
7.42906e-07
-3.406e-07
7.89983e-07
-4.15451e-07
8.16416e-07
-4.90578e-07
8.25218e-07
-5.64639e-07
8.19255e-07
-6.36553e-07
8.01129e-07
-7.05465e-07
7.73108e-07
-7.70714e-07
7.37112e-07
-8.31794e-07
6.94719e-07
-8.88325e-07
6.47205e-07
-9.40028e-07
5.95588e-07
-9.86699e-07
5.40673e-07
-1.02819e-06
4.83098e-07
-1.06441e-06
4.23373e-07
-1.09527e-06
3.61913e-07
-1.12074e-06
2.99056e-07
-1.14077e-06
2.35092e-07
-1.15535e-06
1.70268e-07
-1.16444e-06
1.04807e-07
-1.16804e-06
3.89126e-08
-1.16612e-06
-2.72182e-08
-1.15867e-06
-9.33913e-08
-1.14567e-06
-1.59406e-07
-1.12711e-06
-2.25048e-07
-1.10297e-06
-2.90079e-07
-1.07326e-06
-3.54229e-07
-1.03799e-06
-4.17183e-07
-9.97221e-07
-4.78564e-07
-9.51024e-07
-5.37917e-07
-8.99532e-07
-5.94678e-07
-8.42942e-07
-6.48149e-07
-7.81536e-07
-6.97457e-07
-7.15708e-07
-7.41511e-07
-6.45986e-07
-7.7896e-07
-5.73072e-07
-8.08149e-07
-4.97867e-07
-8.27095e-07
-4.2151e-07
-8.33476e-07
-3.45409e-07
-8.24662e-07
-2.71266e-07
-7.97786e-07
-2.01092e-07
-7.49869e-07
-1.37203e-07
-6.77996e-07
-8.22091e-08
-5.79544e-07
-3.89655e-08
-4.52424e-07
-1.05165e-08
-2.95328e-07
-1.08069e-07
-1.1148e-08
1.18854e-07
-4.12331e-08
3.23894e-07
-8.68689e-08
4.95136e-07
-1.44786e-07
6.33059e-07
-2.11935e-07
7.39351e-07
-2.8555e-07
8.16521e-07
-3.63194e-07
8.67626e-07
-4.42769e-07
8.95992e-07
-5.2252e-07
9.04969e-07
-6.0101e-07
8.97744e-07
-6.77086e-07
8.77205e-07
-7.49849e-07
8.45871e-07
-8.18609e-07
8.05872e-07
-8.82849e-07
7.58959e-07
-9.4219e-07
7.06546e-07
-9.96362e-07
6.4976e-07
-1.04518e-06
5.89488e-07
-1.08851e-06
5.26432e-07
-1.12628e-06
4.61146e-07
-1.15845e-06
3.94074e-07
-1.18497e-06
3.25579e-07
-1.20584e-06
2.55959e-07
-1.22104e-06
1.85468e-07
-1.23056e-06
1.1433e-07
-1.23439e-06
4.27457e-08
-1.23252e-06
-2.90928e-08
-1.22491e-06
-1.00996e-07
-1.21155e-06
-1.72769e-07
-1.1924e-06
-2.44198e-07
-1.16743e-06
-3.15044e-07
-1.13663e-06
-3.85029e-07
-1.09999e-06
-4.53824e-07
-1.05753e-06
-5.21029e-07
-1.0093e-06
-5.8615e-07
-9.55401e-07
-6.48573e-07
-8.96022e-07
-7.07529e-07
-8.31429e-07
-7.6205e-07
-7.62014e-07
-8.10926e-07
-6.88323e-07
-8.52652e-07
-6.11085e-07
-8.85387e-07
-5.31258e-07
-9.06922e-07
-4.50059e-07
-9.14675e-07
-3.69002e-07
-9.05719e-07
-2.89924e-07
-8.76865e-07
-2.14995e-07
-8.24797e-07
-1.46723e-07
-7.46268e-07
-8.79227e-08
-6.38344e-07
-4.16726e-08
-4.98674e-07
-1.12446e-08
-3.25756e-07
-1.19314e-07
-1.19443e-08
1.30798e-07
-4.41795e-08
3.56129e-07
-9.30633e-08
5.4402e-07
-1.55069e-07
6.95064e-07
-2.26899e-07
8.11181e-07
-3.05565e-07
8.95187e-07
-3.88426e-07
9.50487e-07
-4.73218e-07
9.80783e-07
-5.58047e-07
9.89799e-07
-6.41372e-07
9.81069e-07
-7.21966e-07
9.57799e-07
-7.98879e-07
9.22785e-07
-8.71396e-07
8.78389e-07
-9.38991e-07
8.26553e-07
-1.00129e-06
7.68846e-07
-1.05804e-06
7.0651e-07
-1.10908e-06
6.40525e-07
-1.1543e-06
5.71657e-07
-1.19366e-06
5.00507e-07
-1.22714e-06
4.27551e-07
-1.25473e-06
3.53168e-07
-1.27644e-06
2.77667e-07
-1.29227e-06
2.01303e-07
-1.30224e-06
1.24293e-07
-1.30632e-06
4.68311e-08
-1.30451e-06
-3.09018e-08
-1.29678e-06
-1.08728e-07
-1.28309e-06
-1.86462e-07
-1.26338e-06
-2.639e-07
-1.23762e-06
-3.40806e-07
-1.20575e-06
-4.16899e-07
-1.16774e-06
-4.91841e-07
-1.12356e-06
-5.65207e-07
-1.07324e-06
-6.3647e-07
-1.01685e-06
-7.0496e-07
-9.54545e-07
-7.69833e-07
-8.86575e-07
-8.3002e-07
-8.13325e-07
-8.84176e-07
-7.3535e-07
-9.30627e-07
-6.53411e-07
-9.67325e-07
-5.68524e-07
-9.9181e-07
-4.8199e-07
-1.00121e-06
-3.95443e-07
-9.92266e-07
-3.10871e-07
-9.61437e-07
-2.30631e-07
-9.05037e-07
-1.57445e-07
-8.19455e-07
-9.43655e-08
-7.01423e-07
-4.47282e-08
-5.48312e-07
-1.20672e-08
-3.58417e-07
-1.31381e-07
-1.28421e-08
1.4364e-07
-4.74994e-08
3.90786e-07
-1.00036e-07
5.96556e-07
-1.66628e-07
7.61656e-07
-2.43696e-07
8.88249e-07
-3.27988e-07
9.79479e-07
-4.16637e-07
1.03914e-06
-5.07185e-07
1.07133e-06
-5.97586e-07
1.0802e-06
-6.8618e-07
1.06966e-06
-7.71661e-07
1.04328e-06
-8.53028e-07
1.00415e-06
-9.29541e-07
9.54901e-07
-1.00067e-06
8.97683e-07
-1.06606e-06
8.34232e-07
-1.12547e-06
7.65923e-07
-1.17878e-06
6.93831e-07
-1.22591e-06
6.18794e-07
-1.26687e-06
5.4146e-07
-1.30165e-06
4.62336e-07
-1.3303e-06
3.81814e-07
-1.35284e-06
3.00208e-07
-1.3693e-06
2.17768e-07
-1.37971e-06
1.34701e-07
-1.38407e-06
5.11858e-08
-1.38235e-06
-3.26165e-08
-1.37453e-06
-1.16547e-07
-1.36056e-06
-2.00438e-07
-1.34036e-06
-2.841e-07
-1.31385e-06
-3.6731e-07
-1.28096e-06
-4.49791e-07
-1.24161e-06
-5.31196e-07
-1.19573e-06
-6.11085e-07
-1.1433e-06
-6.88894e-07
-1.08437e-06
-7.63899e-07
-1.01902e-06
-8.35174e-07
-9.47506e-07
-9.01539e-07
-8.70179e-07
-9.61502e-07
-7.87604e-07
-1.0132e-06
-7.00571e-07
-1.05436e-06
-6.10153e-07
-1.08223e-06
-5.17748e-07
-1.09361e-06
-4.2512e-07
-1.08489e-06
-3.3443e-07
-1.05213e-06
-2.48247e-07
-9.9122e-07
-1.69541e-07
-8.98161e-07
-1.01643e-07
-7.69321e-07
-4.81826e-08
-6.01772e-07
-1.29975e-08
-3.93602e-07
-1.44378e-07
-1.38561e-08
1.57496e-07
-5.12474e-08
4.28178e-07
-1.079e-07
6.53208e-07
-1.79648e-07
8.33404e-07
-2.62583e-07
9.71184e-07
-3.53152e-07
1.07005e-06
-4.48225e-07
1.13421e-06
-5.45125e-07
1.16823e-06
-6.4163e-07
1.1767e-06
-7.35953e-07
1.16399e-06
-8.267e-07
1.13403e-06
-9.12821e-07
1.09027e-06
-9.93554e-07
1.03563e-06
-1.06837e-06
9.72504e-07
-1.13694e-06
9.02802e-07
-1.19907e-06
8.28047e-07
-1.25466e-06
7.49419e-07
-1.30369e-06
6.67829e-07
-1.34621e-06
5.83975e-07
-1.38226e-06
4.98389e-07
-1.41192e-06
4.11478e-07
-1.43527e-06
3.2355e-07
-1.45234e-06
2.34846e-07
-1.46319e-06
1.45553e-07
-1.46783e-06
5.58251e-08
-1.46625e-06
-3.42024e-08
-1.4584e-06
-1.24399e-07
-1.44421e-06
-2.14626e-07
-1.42359e-06
-3.04717e-07
-1.39643e-06
-3.94468e-07
-1.36261e-06
-4.83615e-07
-1.32199e-06
-5.71812e-07
-1.27447e-06
-6.58604e-07
-1.21997e-06
-7.43395e-07
-1.15847e-06
-8.25405e-07
-1.09002e-06
-9.03623e-07
-1.01481e-06
-9.76749e-07
-9.33182e-07
-1.04313e-06
-8.45695e-07
-1.10069e-06
-7.53162e-07
-1.14689e-06
-6.56716e-07
-1.17867e-06
-5.57854e-07
-1.19247e-06
-4.58491e-07
-1.18426e-06
-3.60982e-07
-1.14964e-06
-2.6814e-07
-1.08406e-06
-1.83223e-07
-9.83078e-07
-1.09884e-07
-8.42661e-07
-5.20973e-08
-6.59559e-07
-1.40519e-08
-4.31648e-07
-1.5843e-07
-1.50047e-08
1.72501e-07
-5.54916e-08
4.68665e-07
-1.16797e-07
7.14513e-07
-1.94355e-07
9.10963e-07
-2.83877e-07
1.06071e-06
-3.8146e-07
1.16763e-06
-4.83667e-07
1.23642e-06
-5.87571e-07
1.27214e-06
-6.90754e-07
1.27989e-06
-7.91288e-07
1.26452e-06
-8.87686e-07
1.23043e-06
-9.78849e-07
1.18144e-06
-1.064e-06
1.12079e-06
-1.14263e-06
1.05114e-06
-1.21444e-06
9.74611e-07
-1.27928e-06
8.92884e-07
-1.33711e-06
8.07252e-07
-1.38798e-06
7.187e-07
-1.43198e-06
6.27975e-07
-1.46923e-06
5.35633e-07
-1.49984e-06
4.42086e-07
-1.52392e-06
3.47634e-07
-1.54157e-06
2.52497e-07
-1.55285e-06
1.56833e-07
-1.55779e-06
6.07622e-08
-1.55637e-06
-3.5618e-08
-1.54856e-06
-1.32216e-07
-1.53425e-06
-2.28932e-07
-1.51333e-06
-3.25635e-07
-1.48565e-06
-4.22151e-07
-1.45103e-06
-5.18237e-07
-1.40928e-06
-6.13556e-07
-1.36024e-06
-7.07647e-07
-1.30375e-06
-7.99886e-07
-1.23972e-06
-8.89437e-07
-1.16814e-06
-9.75202e-07
-1.08914e-06
-1.05575e-06
-1.00302e-06
-1.12924e-06
-9.10326e-07
-1.19339e-06
-8.11883e-07
-1.24533e-06
-7.08884e-07
-1.28167e-06
-6.02934e-07
-1.29842e-06
-4.96111e-07
-1.29108e-06
-3.90993e-07
-1.25475e-06
-2.90676e-07
-1.18438e-06
-1.98752e-07
-1.075e-06
-1.1925e-07
-9.22162e-07
-5.65496e-08
-7.22259e-07
-1.52511e-08
-4.72946e-07
-1.73681e-07
-1.63112e-08
1.88812e-07
-6.03171e-08
5.12671e-07
-1.269e-07
7.81097e-07
-2.1103e-07
9.95092e-07
-3.07966e-07
1.15764e-06
-4.13397e-07
1.27306e-06
-5.23534e-07
1.34655e-06
-6.35161e-07
1.38376e-06
-7.45638e-07
1.39037e-06
-8.52882e-07
1.37176e-06
-9.55312e-07
1.33285e-06
-1.05178e-06
1.27791e-06
-1.14152e-06
1.21052e-06
-1.22403e-06
1.13365e-06
-1.29908e-06
1.04965e-06
-1.36657e-06
9.60375e-07
-1.42654e-06
8.67229e-07
-1.47913e-06
7.71283e-07
-1.52448e-06
6.73327e-07
-1.56278e-06