/*--------------------------------*- C++ -*----------------------------------*\
  =========                 |
  \\      /  F ield         | OpenFOAM: The Open Source CFD Toolbox
   \\    /   O peration     | Website:  https://openfoam.org
    \\  /    A nd           | Version:  7
     \\/     M anipulation  |
\*---------------------------------------------------------------------------*/
FoamFile
{
    version     2.0;
    format      ascii;
    class       volVectorField;
    location    "0.08";
    object      U;
}
// * * * * * * * * * * * * * * * * * * * * * * * * * * * * * * * * * * * * * //

dimensions      [0 1 -1 0 0 0 0];

internalField   nonuniform List<vector> 
2500
(
(-0.293794 0.153716 0)
(-0.397923 0.128716 0)
(-0.577965 0.0737927 0)
(-0.696273 0.0408797 0)
(-0.765289 0.0234033 0)
(-0.809665 0.0141538 0)
(-0.840304 0.00917149 0)
(-0.862454 0.00636644 0)
(-0.879145 0.00467998 0)
(-0.89216 0.00359226 0)
(-0.902572 0.00284517 0)
(-0.911059 0.00230472 0)
(-0.918074 0.0018971 0)
(-0.923929 0.00157899 0)
(-0.928845 0.00132341 0)
(-0.932986 0.00111268 0)
(-0.93647 0.00093471 0)
(-0.939386 0.00078093 0)
(-0.941802 0.000645103 0)
(-0.943768 0.000522565 0)
(-0.945322 0.000409743 0)
(-0.94649 0.000303837 0)
(-0.947294 0.000202591 0)
(-0.947744 0.000104139 0)
(-0.947849 6.87466e-06 0)
(-0.94761 -9.06802e-05 0)
(-0.947024 -0.000189881 0)
(-0.946084 -0.000292112 0)
(-0.944778 -0.000398856 0)
(-0.943089 -0.000511795 0)
(-0.940994 -0.000632938 0)
(-0.938463 -0.00076479 0)
(-0.935455 -0.000910589 0)
(-0.93192 -0.00107464 0)
(-0.927791 -0.00126283 0)
(-0.92298 -0.00148343 0)
(-0.917372 -0.00174839 0)
(-0.910808 -0.00207562 0)
(-0.903072 -0.00249307 0)
(-0.893854 -0.00304668 0)
(-0.882707 -0.00381602 0)
(-0.868949 -0.0049466 0)
(-0.851496 -0.00671727 0)
(-0.828551 -0.00967942 0)
(-0.797099 -0.0149207 0)
(-0.751993 -0.0244955 0)
(-0.682487 -0.0421395 0)
(-0.564888 -0.0746045 0)
(-0.389289 -0.128114 0)
(-0.2902 -0.152366 0)
(-0.00515673 0.302894 0)
(-0.0270665 0.307345 0)
(-0.171374 0.217818 0)
(-0.308322 0.146634 0)
(-0.417351 0.0992863 0)
(-0.502726 0.069048 0)
(-0.569281 0.0498136 0)
(-0.621419 0.0372864 0)
(-0.662816 0.0288127 0)
(-0.696192 0.0228452 0)
(-0.723481 0.0184817 0)
(-0.746054 0.0151829 0)
(-0.764901 0.0126146 0)
(-0.780741 0.0105619 0)
(-0.794104 0.0088815 0)
(-0.805388 0.00747478 0)
(-0.814892 0.00627178 0)
(-0.822844 0.00522163 0)
(-0.829417 0.00428646 0)
(-0.834741 0.00343747 0)
(-0.838917 0.00265229 0)
(-0.842018 0.00191317 0)
(-0.844095 0.00120564 0)
(-0.845185 0.000517608 0)
(-0.845306 -0.000161446 0)
(-0.844466 -0.000841056 0)
(-0.842659 -0.00153028 0)
(-0.839868 -0.00223824 0)
(-0.836061 -0.00297468 0)
(-0.831196 -0.00375057 0)
(-0.825213 -0.00457888 0)
(-0.818034 -0.00547557 0)
(-0.809559 -0.00646093 0)
(-0.799659 -0.00756146 0)
(-0.788166 -0.00881261 0)
(-0.774863 -0.0102628 0)
(-0.759468 -0.0119796 0)
(-0.741605 -0.0140599 0)
(-0.720773 -0.0166457 0)
(-0.696295 -0.0199521 0)
(-0.667236 -0.0243149 0)
(-0.632305 -0.0302754 0)
(-0.589694 -0.03873 0)
(-0.536891 -0.0511916 0)
(-0.470578 -0.070189 0)
(-0.386906 -0.0996716 0)
(-0.281682 -0.145063 0)
(-0.151413 -0.212563 0)
(-0.016391 -0.298139 0)
(-0.000973801 -0.294648 0)
(0.0321085 0.26405 0)
(0.0563273 0.362388 0)
(-0.00377504 0.32509 0)
(-0.0961851 0.260716 0)
(-0.192756 0.201117 0)
(-0.281788 0.154136 0)
(-0.359154 0.119247 0)
(-0.424636 0.0936958 0)
(-0.47958 0.0748495 0)
(-0.525663 0.0607201 0)
(-0.564429 0.0499127 0)
(-0.597174 0.0414693 0)
(-0.624937 0.0347324 0)
(-0.648538 0.0292457 0)
(-0.668617 0.0246871 0)
(-0.685674 0.0208252 0)
(-0.7001 0.0174906 0)
(-0.712198 0.0145569 0)
(-0.722205 0.0119284 0)
(-0.730305 0.00953073 0)
(-0.736637 0.00730572 0)
(-0.741306 0.00520649 0)
(-0.744389 0.00319461 0)
(-0.745939 0.00123761 0)
(-0.745985 -0.000692801 0)
(-0.744541 -0.00262231 0)
(-0.741601 -0.0045754 0)
(-0.737141 -0.00657663 0)
(-0.731124 -0.00865204 0)
(-0.723489 -0.0108307 0)
(-0.714159 -0.0131467 0)
(-0.703028 -0.0156412 0)
(-0.689966 -0.0183661 0)
(-0.674802 -0.0213878 0)
(-0.657323 -0.0247935 0)
(-0.637258 -0.0286995 0)
(-0.614262 -0.0332636 0)
(-0.587896 -0.0387032 0)
(-0.557604 -0.0453228 0)
(-0.522676 -0.0535547 0)
(-0.482224 -0.0640206 0)
(-0.435159 -0.077619 0)
(-0.38022 -0.0956421 0)
(-0.316112 -0.119898 0)
(-0.241969 -0.152726 0)
(-0.158482 -0.196455 0)
(-0.0699594 -0.251258 0)
(0.0123061 -0.30982 0)
(0.0620639 -0.343128 0)
(0.0330466 -0.249847 0)
(0.0271361 0.205281 0)
(0.0636412 0.35801 0)
(0.0548204 0.376019 0)
(0.00724332 0.339051 0)
(-0.0606956 0.286569 0)
(-0.134657 0.235843 0)
(-0.206478 0.192632 0)
(-0.272371 0.157625 0)
(-0.331062 0.129772 0)
(-0.382532 0.107655 0)
(-0.427313 0.0899794 0)
(-0.466121 0.0756951 0)
(-0.499675 0.0639929 0)
(-0.52863 0.0542609 0)
(-0.553548 0.0460386 0)
(-0.574901 0.0389779 0)
(-0.593077 0.0328141 0)
(-0.60839 0.0273433 0)
(-0.621094 0.0224068 0)
(-0.631388 0.0178795 0)
(-0.639432 0.0136613 0)
(-0.645345 0.00967075 0)
(-0.649216 0.00584016 0)
(-0.65111 0.00211202 0)
(-0.651063 -0.0015641 0)
(-0.649095 -0.00523407 0)
(-0.645204 -0.00894149 0)
(-0.639368 -0.0127299 0)
(-0.631548 -0.0166449 0)
(-0.621684 -0.0207371 0)
(-0.609694 -0.0250646 0)
(-0.595474 -0.0296969 0)
(-0.57889 -0.0347194 0)
(-0.559774 -0.0402396 0)
(-0.537924 -0.0463953 0)
(-0.513088 -0.0533648 0)
(-0.484963 -0.0613824 0)
(-0.453187 -0.0707573 0)
(-0.417338 -0.0818998 0)
(-0.376939 -0.0953548 0)
(-0.331494 -0.111839 0)
(-0.280563 -0.132271 0)
(-0.223937 -0.157769 0)
(-0.161975 -0.189515 0)
(-0.0962323 -0.228317 0)
(-0.0305113 -0.273369 0)
(0.0275452 -0.31933 0)
(0.0649514 -0.350649 0)
(0.0657608 -0.331781 0)
(0.0268813 -0.189824 0)
(0.0184305 0.163572 0)
(0.0529307 0.331988 0)
(0.0680243 0.387738 0)
(0.0518817 0.380779 0)
(0.0116809 0.345406 0)
(-0.0418473 0.301179 0)
(-0.100528 0.257655 0)
(-0.159145 0.21868 0)
(-0.214748 0.18526 0)
(-0.265902 0.157145 0)
(-0.312084 0.133634 0)
(-0.353272 0.113939 0)
(-0.389695 0.0973335 0)
(-0.421685 0.0831985 0)
(-0.449601 0.0710281 0)
(-0.473784 0.0604144 0)
(-0.494544 0.0510313 0)
(-0.512146 0.0426174 0)
(-0.526818 0.0349631 0)
(-0.538746 0.0278986 0)
(-0.548081 0.0212851 0)
(-0.554944 0.0150077 0)
(-0.559424 0.00896982 0)
(-0.561589 0.00308857 0)
(-0.561481 -0.00270924 0)
(-0.559125 -0.00849027 0)
(-0.554523 -0.0143177 0)
(-0.547663 -0.020254 0)
(-0.538513 -0.0263643 0)
(-0.527025 -0.0327192 0)
(-0.513131 -0.0393985 0)
(-0.496745 -0.0464958 0)
(-0.477761 -0.0541236 0)
(-0.456052 -0.0624198 0)
(-0.431465 -0.0715558 0)
(-0.403831 -0.0817463 0)
(-0.37296 -0.093261 0)
(-0.338656 -0.106438 0)
(-0.300739 -0.121698 0)
(-0.259082 -0.139551 0)
(-0.213692 -0.160591 0)
(-0.164838 -0.185447 0)
(-0.113272 -0.214651 0)
(-0.0605716 -0.248313 0)
(-0.00962344 -0.285432 0)
(0.0348001 -0.322536 0)
(0.0655252 -0.351222 0)
(0.0734204 -0.354358 0)
(0.0532093 -0.301663 0)
(0.0179176 -0.148232 0)
(0.0119225 0.134878 0)
(0.0405984 0.301303 0)
(0.064639 0.379233 0)
(0.0672889 0.397296 0)
(0.0483549 0.381101 0)
(0.0139065 0.348459 0)
(-0.029775 0.310135 0)
(-0.0776756 0.271923 0)
(-0.126261 0.236539 0)
(-0.173282 0.204971 0)
(-0.217436 0.17732 0)
(-0.258057 0.153277 0)
(-0.294875 0.13238 0)
(-0.327856 0.114145 0)
(-0.357095 0.09812 0)
(-0.382746 0.0839064 0)
(-0.404989 0.0711648 0)
(-0.424002 0.0596091 0)
(-0.43995 0.0490001 0)
(-0.45298 0.0391382 0)
(-0.463216 0.0298558 0)
(-0.470762 0.0210115 0)
(-0.475699 0.0124841 0)
(-0.478091 0.0041688 0)
(-0.477982 -0.00402784 0)
(-0.475399 -0.0121909 0)
(-0.470354 -0.0204009 0)
(-0.462844 -0.0287366 0)
(-0.452855 -0.0372789 0)
(-0.440357 -0.046114 0)
(-0.425311 -0.0553372 0)
(-0.407666 -0.0650576 0)
(-0.387363 -0.0754022 0)
(-0.364335 -0.0865225 0)
(-0.338517 -0.0985994 0)
(-0.309848 -0.11185 0)
(-0.278289 -0.126533 0)
(-0.243844 -0.14295 0)
(-0.206598 -0.161442 0)
(-0.166774 -0.182369 0)
(-0.124826 -0.206057 0)
(-0.0815689 -0.232691 0)
(-0.0383651 -0.262099 0)
(0.00263514 -0.293351 0)
(0.0382594 -0.32406 0)
(0.0642156 -0.349261 0)
(0.0753355 -0.359795 0)
(0.0668845 -0.340443 0)
(0.0400769 -0.268973 0)
(0.0114453 -0.119966 0)
(0.00783166 0.114469 0)
(0.0308055 0.27238 0)
(0.0566006 0.361754 0)
(0.0692012 0.398137 0)
(0.0647509 0.39924 0)
(0.0456169 0.379581 0)
(0.0157903 0.34941 0)
(-0.0207364 0.315253 0)
(-0.0606231 0.280898 0)
(-0.101376 0.248323 0)
(-0.141276 0.218398 0)
(-0.179214 0.191362 0)
(-0.214522 0.167115 0)
(-0.246832 0.145401 0)
(-0.275976 0.125903 0)
(-0.301908 0.108297 0)
(-0.324655 0.0922772 0)
(-0.344283 0.0775705 0)
(-0.360876 0.0639347 0)
(-0.37452 0.0511597 0)
(-0.385299 0.0390637 0)
(-0.393289 0.027489 0)
(-0.398553 0.0162985 0)
(-0.401144 0.00537127 0)
(-0.401104 -0.00540078 0)
(-0.398462 -0.0161166 0)
(-0.393239 -0.0268691 0)
(-0.385445 -0.0377487 0)
(-0.375086 -0.0488462 0)
(-0.362158 -0.0602564 0)
(-0.346657 -0.0720815 0)
(-0.328578 -0.0844345 0)
(-0.307917 -0.0974428 0)
(-0.284685 -0.111252 0)
(-0.258908 -0.126028 0)
(-0.230647 -0.141957 0)
(-0.200015 -0.159246 0)
(-0.167206 -0.178109 0)
(-0.132538 -0.198748 0)
(-0.0965113 -0.221308 0)
(-0.0598894 -0.245795 0)
(-0.0238005 -0.271935 0)
(0.0101442 -0.298935 0)
(0.0397449 -0.325101 0)
(0.0621947 -0.34727 0)
(0.0742882 -0.360043 0)
(0.0729954 -0.354931 0)
(0.0568277 -0.319773 0)
(0.0299259 -0.239397 0)
(0.00743409 -0.100121 0)
(0.00538093 0.0995079 0)
(0.0237614 0.247016 0)
(0.0482798 0.341099 0)
(0.0654583 0.389853 0)
(0.0701396 0.405005 0)
(0.0623051 0.39765 0)
(0.043989 0.376666 0)
(0.0179553 0.34845 0)
(-0.0130507 0.317244 0)
(-0.0466887 0.285661 0)
(-0.0811365 0.255177 0)
(-0.115061 0.22653 0)
(-0.147532 0.199999 0)
(-0.177931 0.175598 0)
(-0.205869 0.153194 0)
(-0.231113 0.132583 0)
(-0.253541 0.113538 0)
(-0.273101 0.0958279 0)
(-0.289786 0.0792355 0)
(-0.303615 0.063561 0)
(-0.31462 0.0486246 0)
(-0.322842 0.0342654 0)
(-0.328319 0.0203402 0)
(-0.331089 0.00672084 0)
(-0.331188 -0.00670853 0)
(-0.328645 -0.0200541 0)
(-0.323488 -0.0334151 0)
(-0.315743 -0.0468867 0)
(-0.305434 -0.0605629 0)
(-0.292589 -0.0745389 0)
(-0.277239 -0.0889139 0)
(-0.259427 -0.103793 0)
(-0.239211 -0.11929 0)
(-0.216675 -0.135526 0)
(-0.191936 -0.152632 0)
(-0.165166 -0.170738 0)
(-0.136609 -0.189971 0)
(-0.106614 -0.210427 0)
(-0.0756684 -0.232142 0)
(-0.044452 -0.255033 0)
(-0.0138902 -0.278801 0)
(0.0147845 -0.302787 0)
(0.0399857 -0.325753 0)
(0.0597756 -0.34557 0)
(0.0719839 -0.358822 0)
(0.0745474 -0.360366 0)
(0.0661259 -0.343013 0)
(0.0471799 -0.297616 0)
(0.0226818 -0.214232 0)
(0.00503986 -0.0857862 0)
(0.00389406 0.0881436 0)
(0.0187816 0.225271 0)
(0.0409994 0.320123 0)
(0.0597553 0.376699 0)
(0.0698222 0.402567 0)
(0.0698684 0.405878 0)
(0.0605164 0.393892 0)
(0.0434212 0.372389 0)
(0.0206134 0.345605 0)
(-0.00593276 0.316449 0)
(-0.0345094 0.286795 0)
(-0.0637408 0.257772 0)
(-0.092573 0.229994 0)
(-0.12023 0.203743 0)
(-0.146158 0.179087 0)
(-0.169979 0.155969 0)
(-0.191437 0.134266 0)
(-0.210374 0.113816 0)
(-0.226693 0.094449 0)
(-0.240343 0.0759949 0)
(-0.251304 0.0582917 0)
(-0.259575 0.0411886 0)
(-0.265166 0.0245473 0)
(-0.268098 0.00824171 0)
(-0.268396 -0.00784341 0)
(-0.266088 -0.023814 0)
(-0.261208 -0.0397686 0)
(-0.253794 -0.0558 0)
(-0.243891 -0.0719975 0)
(-0.231553 -0.0884486 0)
(-0.216848 -0.10524 0)
(-0.199865 -0.122459 0)
(-0.180716 -0.140192 0)
(-0.15955 -0.158525 0)
(-0.136565 -0.177534 0)
(-0.112021 -0.197283 0)
(-0.0862616 -0.217799 0)
(-0.0597411 -0.239055 0)
(-0.0330506 -0.260922 0)
(-0.0069528 -0.283109 0)
(0.0175874 -0.305069 0)
(0.0393825 -0.325871 0)
(0.0570318 -0.344016 0)
(0.0689904 -0.357223 0)
(0.0737515 -0.362179 0)
(0.0701996 -0.354349 0)
(0.0581306 -0.32796 0)
(0.0389869 -0.276382 0)
(0.0175619 -0.193249 0)
(0.0035844 -0.0750898 0)
(0.00295412 0.0791993 0)
(0.0152123 0.206687 0)
(0.0349718 0.300117 0)
(0.0537272 0.36128 0)
(0.0667167 0.39497 0)
(0.0720133 0.407035 0)
(0.0693332 0.4032 0)
(0.0594638 0.388423 0)
(0.0437632 0.36665 0)
(0.0237661 0.34082 0)
(0.000944777 0.31301 0)
(-0.0234095 0.28461 0)
(-0.0482285 0.256499 0)
(-0.0726652 0.22919 0)
(-0.0960693 0.202947 0)
(-0.117955 0.177865 0)
(-0.137969 0.153935 0)
(-0.155859 0.131085 0)
(-0.171451 0.109206 0)
(-0.184631 0.0881737 0)
(-0.195325 0.0678574 0)
(-0.203492 0.0481288 0)
(-0.209113 0.0288654 0)
(-0.212189 0.00995233 0)
(-0.212732 -0.00871666 0)
(-0.210769 -0.0272396 0)
(-0.206334 -0.0457067 0)
(-0.199477 -0.0642016 0)
(-0.190259 -0.0828016 0)
(-0.178759 -0.101579 0)
(-0.165077 -0.120599 0)
(-0.149338 -0.139923 0)
(-0.1317 -0.159603 0)
(-0.112367 -0.179676 0)
(-0.091595 -0.200161 0)
(-0.0697073 -0.221043 0)
(-0.0471131 -0.242254 0)
(-0.0243237 -0.263646 0)
(-0.00197265 -0.284944 0)
(0.0191685 -0.305693 0)
(0.0381814 -0.32517 0)
(0.0540113 -0.34228 0)
(0.0655111 -0.355427 0)
(0.0715432 -0.362371 0)
(0.0711713 -0.360106 0)
(0.0639694 -0.344819 0)
(0.0504083 -0.312028 0)
(0.0323059 -0.257032 0)
(0.0138837 -0.175819 0)
(0.00266063 -0.0668526 0)
(0.00232869 0.0719477 0)
(0.0125867 0.190734 0)
(0.0300558 0.281586 0)
(0.0480289 0.345115 0)
(0.062379 0.384311 0)
(0.0710089 0.403302 0)
(0.0731134 0.406497 0)
(0.0688628 0.398009 0)
(0.0590568 0.381343 0)
(0.0448032 0.359298 0)
(0.0272917 0.333994 0)
(0.0076555 0.306961 0)
(-0.0131005 0.279261 0)
(-0.0341282 0.251592 0)
(-0.054737 0.224382 0)
(-0.0743803 0.197873 0)
(-0.0926355 0.172172 0)
(-0.109183 0.147301 0)
(-0.123786 0.123223 0)
(-0.136274 0.0998702 0)
(-0.146527 0.077154 0)
(-0.154468 0.0549786 0)
(-0.160049 0.0332465 0)
(-0.163249 0.0118629 0)
(-0.164069 -0.00926185 0)
(-0.162529 -0.0302105 0)
(-0.158664 -0.0510583 0)
(-0.15253 -0.0718727 0)
(-0.144203 -0.0927129 0)
(-0.133779 -0.113629 0)
(-0.121381 -0.13466 0)
(-0.107165 -0.155834 0)
(-0.0913235 -0.177162 0)
(-0.0740962 -0.19863 0)
(-0.0557784 -0.220196 0)
(-0.0367319 -0.241768 0)
(-0.017397 -0.263189 0)
(0.00169661 -0.284205 0)
(0.0199208 -0.304429 0)
(0.0365463 -0.323284 0)
(0.0507516 -0.339941 0)
(0.0616522 -0.353238 0)
(0.0683626 -0.361595 0)
(0.0701047 -0.362935 0)
(0.0663818 -0.354643 0)
(0.057223 -0.333613 0)
(0.0434466 -0.296439 0)
(0.0269102 -0.239831 0)
(0.0111724 -0.161302 0)
(0.0020438 -0.0603439 0)
(0.00189045 0.0659308 0)
(0.0105965 0.176942 0)
(0.026034 0.26466 0)
(0.0428697 0.32907 0)
(0.0576113 0.371995 0)
(0.0682182 0.396318 0)
(0.0736271 0.40538 0)
(0.0736031 0.402514 0)
(0.0685186 0.390739 0)
(0.0591108 0.37261 0)
(0.0462876 0.350177 0)
(0.030993 0.325017 0)
(0.014122 0.298294 0)
(-0.003526 0.270835 0)
(-0.0212657 0.243205 0)
(-0.0385283 0.215768 0)
(-0.0548536 0.188741 0)
(-0.0698772 0.162238 0)
(-0.083317 0.136299 0)
(-0.0949591 0.110917 0)
(-0.104646 0.0860534 0)
(-0.112268 0.0616523 0)
(-0.117751 0.0376487 0)
(-0.121056 0.0139748 0)
(-0.122168 -0.00943546 0)
(-0.121101 -0.0326433 0)
(-0.117888 -0.0557032 0)
(-0.112589 -0.0786608 0)
(-0.105286 -0.101552 0)
(-0.0960878 -0.124399 0)
(-0.085135 -0.147212 0)
(-0.0726017 -0.16998 0)
(-0.0587021 -0.192671 0)
(-0.0436977 -0.215222 0)
(-0.0279036 -0.237528 0)
(-0.0116964 -0.259429 0)
(0.00447934 -0.280689 0)
(0.020106 -0.300973 0)
(0.0345928 -0.319808 0)
(0.0472828 -0.336542 0)
(0.0574735 -0.350299 0)
(0.0644551 -0.359919 0)
(0.0675777 -0.363912 0)
(0.0663521 -0.360422 0)
(0.0605938 -0.34724 0)
(0.0506048 -0.321887 0)
(0.037341 -0.281812 0)
(0.0225333 -0.224738 0)
(0.00911694 -0.149155 0)
(0.00161095 -0.0550997 0)
(0.0015685 0.0608502 0)
(0.00904189 0.164935 0)
(0.0227048 0.249308 0)
(0.0382683 0.313625 0)
(0.0528078 0.358955 0)
(0.0644469 0.38729 0)
(0.072031 0.401132 0)
(0.0750807 0.40314 0)
(0.073662 0.395857 0)
(0.0682126 0.381548 0)
(0.0593872 0.362127 0)
(0.0479376 0.33914 0)
(0.0346268 0.31379 0)
(0.0201753 0.286987 0)
(0.00522992 0.25939 0)
(-0.00964915 0.231465 0)
(-0.0239907 0.203525 0)
(-0.0374079 0.175767 0)
(-0.04959 0.148308 0)
(-0.0602934 0.121202 0)
(-0.0693321 0.0944648 0)
(-0.0765693 0.0680853 0)
(-0.0819105 0.042036 0)
(-0.0852975 0.0162815 0)
(-0.0867044 -0.00921526 0)
(-0.0861342 -0.0344891 0)
(-0.0836177 -0.0595688 0)
(-0.0792126 -0.0844741 0)
(-0.0730047 -0.109213 0)
(-0.0651094 -0.133779 0)
(-0.0556744 -0.158146 0)
(-0.0448836 -0.182267 0)
(-0.0329609 -0.206066 0)
(-0.0201752 -0.229431 0)
(-0.00684514 -0.2522 0)
(0.00665676 -0.274156 0)
(0.0199017 -0.294998 0)
(0.0324052 -0.314328 0)
(0.0436324 -0.331618 0)
(0.0530126 -0.34618 0)
(0.0599645 -0.357131 0)
(0.0639388 -0.363363 0)
(0.0644807 -0.363514 0)
(0.0613176 -0.35597 0)
(0.0544709 -0.3389 0)
(0.0443862 -0.310352 0)
(0.0320317 -0.268438 0)
(0.018943 -0.211596 0)
(0.00751513 -0.138949 0)
(0.00129338 -0.0508142 0)
(0.00132206 0.0565045 0)
(0.00779236 0.154421 0)
(0.0199047 0.235437 0)
(0.0341699 0.299039 0)
(0.0481471 0.345805 0)
(0.060164 0.377091 0)
(0.0690745 0.394757 0)
(0.0742686 0.400897 0)
(0.075605 0.397622 0)
(0.0732931 0.386898 0)
(0.0677742 0.370464 0)
(0.0596221 0.349788 0)
(0.0494642 0.326064 0)
(0.0379261 0.300239 0)
(0.0255957 0.273035 0)
(0.013002 0.244993 0)
(0.000605787 0.216503 0)
(-0.0112021 0.18784 0)
(-0.0220985 0.159187 0)
(-0.0318221 0.130661 0)
(-0.0401679 0.102331 0)
(-0.0469801 0.0742324 0)
(-0.0521469 0.0463785 0)
(-0.0555953 0.0187701 0)
(-0.057287 -0.0085975 0)
(-0.0572161 -0.0357289 0)
(-0.0554068 -0.0626238 0)
(-0.0519132 -0.089273 0)
(-0.0468195 -0.115654 0)
(-0.0402408 -0.141729 0)
(-0.0323259 -0.167438 0)
(-0.023259 -0.192695 0)
(-0.0132632 -0.217381 0)
(-0.00260315 -0.24134 0)
(0.00841215 -0.264363 0)
(0.0194283 -0.286181 0)
(0.0300464 -0.306444 0)
(0.0398269 -0.324712 0)
(0.0483001 -0.340425 0)
(0.054983 -0.352886 0)
(0.0594074 -0.361239 0)
(0.0611599 -0.36445 0)
(0.0599385 -0.361304 0)
(0.0556228 -0.350422 0)
(0.0483596 -0.330306 0)
(0.0386509 -0.299436 0)
(0.0274082 -0.256425 0)
(0.0159545 -0.200219 0)
(0.00623407 -0.130349 0)
(0.00105124 -0.0472787 0)
(0.00112662 0.0527535 0)
(0.00676101 0.145177 0)
(0.0175077 0.22294 0)
(0.0304983 0.285445 0)
(0.0436961 0.332949 0)
(0.0556377 0.366355 0)
(0.0652408 0.387032 0)
(0.0718416 0.396618 0)
(0.0751686 0.396842 0)
(0.0752648 0.389389 0)
(0.0724007 0.375807 0)
(0.066995 0.357458 0)
(0.0595468 0.335493 0)
(0.0505829 0.310861 0)
(0.0406208 0.284319 0)
(0.0301439 0.256459 0)
(0.019587 0.227732 0)
(0.00932981 0.198474 0)
(-0.000305116 0.16893 0)
(-0.00905048 0.139273 0)
(-0.0166909 0.109624 0)
(-0.0230588 0.0800658 0)
(-0.0280297 0.0506524 0)
(-0.0315189 0.0214228 0)
(-0.0334773 -0.00759346 0)
(-0.0338897 -0.0363685 0)
(-0.0327727 -0.064871 0)
(-0.0301736 -0.093061 0)
(-0.026171 -0.120885 0)
(-0.020875 -0.148272 0)
(-0.0144284 -0.175128 0)
(-0.00700873 -0.201331 0)
(0.00117055 -0.226724 0)
(0.00985828 -0.251109 0)
(0.0187651 -0.274236 0)
(0.0275641 -0.295795 0)
(0.0358946 -0.315402 0)
(0.0433682 -0.332589 0)
(0.0495816 -0.346782 0)
(0.0541345 -0.357296 0)
(0.0566567 -0.363318 0)
(0.056845 -0.363904 0)
(0.0545103 -0.357985 0)
(0.0496329 -0.344395 0)
(0.0424257 -0.321921 0)
(0.0333924 -0.289389 0)
(0.0233533 -0.245787 0)
(0.013426 -0.190425 0)
(0.00518425 -0.1231 0)
(0.000860353 -0.0443468 0)
(0.000966773 0.0494972 0)
(0.00588857 0.137033 0)
(0.0154183 0.211713 0)
(0.0271781 0.272906 0)
(0.0394664 0.320655 0)
(0.0510176 0.355539 0)
(0.0608405 0.378555 0)
(0.0682679 0.390974 0)
(0.0729545 0.394205 0)
(0.0748278 0.389673 0)
(0.0740275 0.378741 0)
(0.0708432 0.362648 0)
(0.0656589 0.342482 0)
(0.0589063 0.319169 0)
(0.051029 0.293478 0)
(0.0424563 0.26603 0)
(0.0335868 0.23732 0)
(0.0247779 0.207735 0)
(0.0163408 0.177569 0)
(0.00853963 0.147049 0)
(0.00159172 0.116341 0)
(-0.00432959 0.0855724 0)
(-0.00909235 0.0548396 0)
(-0.012603 0.0242185 0)
(-0.0148037 -0.0062259 0)
(-0.0156702 -0.036433 0)
(-0.0152103 -0.0663396 0)
(-0.0134628 -0.0958745 0)
(-0.0104974 -0.124953 0)
(-0.00641457 -0.153472 0)
(-0.00134641 -0.181305 0)
(0.00454266 -0.208295 0)
(0.0110552 -0.23425 0)
(0.0179606 -0.258938 0)
(0.0249956 -0.282073 0)
(0.0318671 -0.303314 0)
(0.0382565 -0.322254 0)
(0.0438281 -0.338405 0)
(0.0482414 -0.351198 0)
(0.05117 -0.359969 0)
(0.0523254 -0.363957 0)
(0.0514893 -0.36231 0)
(0.0485518 -0.354097 0)
(0.0435544 -0.338339 0)
(0.0367346 -0.314058 0)
(0.0285646 -0.280352 0)
(0.0197596 -0.236497 0)
(0.0112495 -0.182056 0)
(0.00430377 -0.117007 0)
(0.000705338 -0.041913 0)
(0.000832434 0.0466626 0)
(0.00513367 0.129856 0)
(0.0135644 0.201665 0)
(0.0241421 0.261446 0)
(0.0354438 0.3091 0)
(0.0463839 0.344974 0)
(0.0560736 0.369782 0)
(0.0638734 0.384507 0)
(0.0694043 0.390286 0)
(0.0725194 0.38832 0)
(0.0732612 0.379797 0)
(0.0718162 0.365831 0)
(0.0684696 0.347434 0)
(0.063566 0.325495 0)
(0.0574761 0.300773 0)
(0.0505726 0.273904 0)
(0.0432113 0.245413 0)
(0.03572 0.215722 0)
(0.0283906 0.18517 0)
(0.0214762 0.154024 0)
(0.0151895 0.122495 0)
(0.00970385 0.0907509 0)
(0.00515431 0.0589266 0)
(0.00163995 0.0271347 0)
(-0.000774381 -0.00452578 0)
(-0.00205628 -0.0359616 0)
(-0.00220438 -0.0670782 0)
(-0.00124742 -0.097774 0)
(0.000756287 -0.127934 0)
(0.003719 -0.157424 0)
(0.00752344 -0.186087 0)
(0.0120227 -0.213734 0)
(0.0170402 -0.240144 0)
(0.0223706 -0.265052 0)
(0.0277812 -0.288145 0)
(0.0330153 -0.309059 0)
(0.0377978 -0.327368 0)
(0.0418437 -0.342579 0)
(0.0448703 -0.35413 0)
(0.0466139 -0.361386 0)
(0.0468517 -0.363642 0)
(0.0454282 -0.360134 0)
(0.0422857 -0.350052 0)
(0.0374971 -0.332578 0)
(0.0312971 -0.306924 0)
(0.0241074 -0.272404 0)
(0.0165349 -0.228504 0)
(0.0093426 -0.174977 0)
(0.00354879 -0.111917 0)
(0.000575989 -0.0399002 0)
(0.000716738 0.0441956 0)
(0.00446679 0.123548 0)
(0.0118917 0.19272 0)
(0.0213338 0.25107 0)
(0.0316037 0.298404 0)
(0.0417765 0.334902 0)
(0.0510684 0.361065 0)
(0.0588858 0.377645 0)
(0.0648444 0.385561 0)
(0.068753 0.385819 0)
(0.0705861 0.379447 0)
(0.07045 0.367443 0)
(0.068548 0.350735 0)
(0.0651476 0.330166 0)
(0.0605519 0.306474 0)
(0.0550767 0.280297 0)
(0.0490328 0.252175 0)
(0.0427135 0.222557 0)
(0.036386 0.191814 0)
(0.0302865 0.160251 0)
(0.0246176 0.128114 0)
(0.0195478 0.0956084 0)
(0.0152113 0.0629041 0)
(0.0117097 0.0301477 0)
(0.00911272 -0.00252937 0)
(0.00746007 -0.0350029 0)
(0.00676214 -0.0671485 0)
(0.00700111 -0.0988355 0)
(0.00813159 -0.12992 0)
(0.0100809 -0.16024 0)
(0.0127495 -0.18961 0)
(0.016011 -0.217813 0)
(0.0197132 -0.2446 0)
(0.0236787 -0.269681 0)
(0.0277075 -0.29272 0)
(0.0315806 -0.313335 0)
(0.0350655 -0.331086 0)
(0.0379244 -0.345482 0)
(0.0399253 -0.355973 0)
(0.0408574 -0.361954 0)
(0.0405486 -0.362775 0)
(0.0388877 -0.357746 0)
(0.0358484 -0.346167 0)
(0.0315134 -0.327349 0)
(0.0260965 -0.300661 0)
(0.0199588 -0.265582 0)
(0.0136021 -0.221759 0)
(0.00764211 -0.169077 0)
(0.00288747 -0.107717 0)
(0.000465276 -0.0382513 0)
(0.000614871 0.0420558 0)
(0.00386638 0.11803 0)
(0.0103585 0.184813 0)
(0.0187064 0.241773 0)
(0.0279185 0.28865 0)
(0.0372129 0.325503 0)
(0.0459078 0.352672 0)
(0.0534663 0.370731 0)
(0.0595174 0.38042 0)
(0.0638491 0.38258 0)
(0.0663903 0.378102 0)
(0.0671874 0.367871 0)
(0.0663777 0.352739 0)
(0.0641626 0.333493 0)
(0.060784 0.310846 0)
(0.0565037 0.285425 0)
(0.0515869 0.257778 0)
(0.0462903 0.22837 0)
(0.0408527 0.197598 0)
(0.0354895 0.165793 0)
(0.0303887 0.133234 0)
(0.02571 0.100158 0)
(0.0215834 0.0667652 0)
(0.01811 0.0332336 0)
(0.0153628 -0.000276047 0)
(0.0133873 -0.033611 0)
(0.0122024 -0.0666195 0)
(0.0118016 -0.0991438 0)
(0.0121533 -0.131014 0)
(0.0132014 -0.162043 0)
(0.0148658 -0.192018 0)
(0.0170427 -0.2207 0)
(0.0196061 -0.247814 0)
(0.0224083 -0.273048 0)
(0.0252829 -0.29605 0)
(0.0280481 -0.31642 0)
(0.0305119 -0.333715 0)
(0.0324796 -0.347442 0)
(0.0337634 -0.357066 0)
(0.0341952 -0.362012 0)
(0.0336415 -0.361675 0)
(0.0320207 -0.355435 0)
(0.0293218 -0.342678 0)
(0.0256221 -0.322824 0)
(0.0211034 -0.295364 0)
(0.0160612 -0.259903 0)
(0.010898 -0.21621 0)
(0.00609924 -0.164269 0)
(0.00229624 -0.104317 0)
(0.000368205 -0.0369239 0)
(0.000523357 0.0402125 0)
(0.00331642 0.113242 0)
(0.00893292 0.177894 0)
(0.0162217 0.233544 0)
(0.0243616 0.279892 0)
(0.0326977 0.316907 0)
(0.0406454 0.344811 0)
(0.0477298 0.364036 0)
(0.053606 0.375179 0)
(0.0580577 0.378947 0)
(0.0609867 0.37611 0)
(0.0623962 0.367457 0)
(0.0623713 0.353762 0)
(0.0610581 0.335761 0)
(0.0586444 0.314134 0)
(0.055342 0.289495 0)
(0.0513722 0.262389 0)
(0.0469543 0.233292 0)
(0.0422966 0.202616 0)
(0.0375907 0.170715 0)
(0.0330074 0.137894 0)
(0.0286938 0.104414 0)
(0.0247731 0.0705043 0)
(0.0213435 0.0363684 0)
(0.018479 0.00219343 0)
(0.0162295 -0.0318425 0)
(0.014622 -0.0655631 0)
(0.0136608 -0.0987868 0)
(0.0133286 -0.131321 0)
(0.0135864 -0.162954 0)
(0.0143745 -0.193452 0)
(0.0156131 -0.222555 0)
(0.0172031 -0.249968 0)
(0.0190272 -0.27536 0)
(0.0209525 -0.298363 0)
(0.0228331 -0.318566 0)
(0.0245153 -0.33552 0)
(0.0258431 -0.348736 0)
(0.0266667 -0.357691 0)
(0.0268524 -0.361835 0)
(0.0262951 -0.360602 0)
(0.0249313 -0.353427 0)
(0.0227536 -0.339768 0)
(0.0198237 -0.319129 0)
(0.016284 -0.291095 0)
(0.0123633 -0.255371 0)
(0.00837071 -0.211815 0)
(0.00467589 -0.160482 0)
(0.00175733 -0.10165 0)
(0.000281134 -0.0358861 0)
(0.000439625 0.0386424 0)
(0.00280476 0.10914 0)
(0.00758989 0.17192 0)
(0.0138486 0.226374 0)
(0.0209083 0.27217 0)
(0.0282282 0.309214 0)
(0.0353155 0.337639 0)
(0.0417593 0.357771 0)
(0.0472491 0.370092 0)
(0.0515768 0.3752 0)
(0.0546305 0.373764 0)
(0.0563838 0.366488 0)
(0.0568819 0.354078 0)
(0.0562254 0.337221 0)
(0.0545551 0.316563 0)
(0.0520374 0.292698 0)
(0.0488518 0.266166 0)
(0.0451807 0.237446 0)
(0.0412013 0.206962 0)
(0.0370795 0.175083 0)
(0.0329663 0.142132 0)
(0.0289943 0.108392 0)
(0.0252769 0.0741157 0)
(0.0219073 0.0395278 0)
(0.0189586 0.00483797 0)
(0.0164839 -0.0297542 0)
(0.0145169 -0.0640511 0)
(0.0130725 -0.0978509 0)
(0.0121472 -0.13094 0)
(0.0117193 -0.16309 0)
(0.0117501 -0.194046 0)
(0.0121839 -0.223529 0)
(0.0129488 -0.251229 0)
(0.0139579 -0.276799 0)
(0.015111 -0.299858 0)
(0.0162972 -0.319985 0)
(0.017398 -0.336727 0)
(0.0182924 -0.349596 0)
(0.0188633 -0.358077 0)
(0.019005 -0.361642 0)
(0.0186325 -0.359755 0)
(0.017692 -0.351894 0)
(0.0161712 -0.33757 0)
(0.0141092 -0.316353 0)
(0.0116049 -0.287899 0)
(0.00882068 -0.251985 0)
(0.00597784 -0.208537 0)
(0.00334204 -0.157661 0)
(0.00125708 -0.0996662 0)
(0.000201337 -0.0351145 0)
(0.000361714 0.0373279 0)
(0.00232192 0.105687 0)
(0.00630947 0.166861 0)
(0.0115611 0.220252 0)
(0.0175365 0.265509 0)
(0.0237981 0.302497 0)
(0.02994 0.331279 0)
(0.0356156 0.352102 0)
(0.0405543 0.365361 0)
(0.0445646 0.371566 0)
(0.0475315 0.371304 0)
(0.0494099 0.365206 0)
(0.0502148 0.353921 0)
(0.05001 0.338089 0)
(0.0488957 0.318323 0)
(0.0469975 0.295199 0)
(0.0444559 0.269247 0)
(0.0414177 0.240943 0)
(0.0380284 0.210718 0)
(0.0344278 0.178951 0)
(0.0307448 0.14598 0)
(0.0270959 0.112104 0)
(0.0235826 0.0775914 0)
(0.020291 0.0426867 0)
(0.0172918 0.00761675 0)
(0.0146395 -0.0274011 0)
(0.0123735 -0.0621521 0)
(0.0105183 -0.0964175 0)
(0.00908349 -0.129968 0)
(0.0080648 -0.162557 0)
(0.00744394 -0.193918 0)
(0.00718923 -0.223755 0)
(0.00725601 -0.251743 0)
(0.00758731 -0.277524 0)
(0.00811494 -0.300704 0)
(0.00876106 -0.320855 0)
(0.00944055 -0.337517 0)
(0.0100643 -0.350203 0)
(0.0105435 -0.358405 0)
(0.0107954 -0.361605 0)
(0.0107495 -0.359289 0)
(0.0103554 -0.350966 0)
(0.00959013 -0.336184 0)
(0.00846575 -0.314561 0)
(0.00703509 -0.285804 0)
(0.00539527 -0.24974 0)
(0.00368466 -0.206346 0)
(0.00207365 -0.155765 0)
(0.000784792 -0.0983269 0)
(0.000126727 -0.0345919 0)
(0.000288081 0.036256 0)
(0.00186029 0.102857 0)
(0.00507533 0.162691 0)
(0.00933721 0.215169 0)
(0.014226 0.25993 0)
(0.0193988 0.296808 0)
(0.0245323 0.325821 0)
(0.0293438 0.347156 0)
(0.0336059 0.361143 0)
(0.0371498 0.368223 0)
(0.0398651 0.368919 0)
(0.0416962 0.363805 0)
(0.0426363 0.353479 0)
(0.0427188 0.338541 0)
(0.0420095 0.319575 0)
(0.0405971 0.297138 0)
(0.038586 0.271746 0)
(0.0360884 0.243874 0)
(0.033219 0.213952 0)
(0.0300902 0.182366 0)
(0.0268084 0.149464 0)
(0.0234719 0.115555 0)
(0.0201688 0.0809205 0)
(0.0169765 0.0458185 0)
(0.013961 0.0104894 0)
(0.0111773 -0.0248361 0)
(0.00866895 -0.0599302 0)
(0.00646879 -0.0945612 0)
(0.0045991 -0.128487 0)
(0.00307187 -0.161451 0)
(0.00188899 -0.193171 0)
(0.00104236 -0.223342 0)
(0.000514059 -0.251628 0)
(0.000276428 -0.27766 0)
(0.000292446 -0.301033 0)
(0.000516311 -0.321312 0)
(0.000894503 -0.338032 0)
(0.00136745 -0.3507 0)
(0.00187194 -0.35881 0)
(0.0023444 -0.361849 0)
(0.00272505 -0.359316 0)
(0.00296275 -0.350735 0)
(0.00302031 -0.33568 0)
(0.00287977 -0.313797 0)
(0.00254701 -0.284826 0)
(0.00205479 -0.248632 0)
(0.00146238 -0.205221 0)
(0.000851233 -0.154764 0)
(0.000331907 -0.0976052 0)
(5.56602e-05 -0.0343061 0)
(0.000217462 0.0354172 0)
(0.00141353 0.100632 0)
(0.00387356 0.159392 0)
(0.00715785 0.211119 0)
(0.010958 0.255446 0)
(0.0150201 0.292189 0)
(0.0190996 0.321334 0)
(0.0229774 0.343028 0)
(0.0264711 0.357555 0)
(0.0294388 0.365307 0)
(0.0317803 0.366757 0)
(0.0334356 0.362435 0)
(0.0343819 0.352899 0)
(0.0346283 0.338716 0)
(0.0342103 0.320445 0)
(0.0331837 0.298623 0)
(0.0316186 0.273755 0)
(0.0295945 0.24631 0)
(0.0271954 0.216716 0)
(0.0245062 0.185361 0)
(0.0216098 0.152598 0)
(0.0185851 0.118743 0)
(0.0155053 0.0840868 0)
(0.0124374 0.0488944 0)
(0.00944157 0.0134158 0)
(0.00657115 -0.0221092 0)
(0.00387274 -0.0574439 0)
(0.00138636 -0.092348 0)
(-0.000854264 -0.126571 0)
(-0.00282167 -0.159848 0)
(-0.00449461 -0.191889 0)
(-0.00585821 -0.222381 0)
(-0.00690425 -0.250978 0)
(-0.00763164 -0.277303 0)
(-0.00804686 -0.300945 0)
(-0.00816449 -0.321458 0)
(-0.00800745 -0.33837 0)
(-0.00760708 -0.351182 0)
(-0.00700268 -0.359383 0)
(-0.00624046 -0.362459 0)
(-0.00537178 -0.359908 0)
(-0.00445068 -0.351261 0)
(-0.00353063 -0.336101 0)
(-0.00266101 -0.314087 0)
(-0.00188336 -0.284977 0)
(-0.00122831 -0.248654 0)
(-0.000713216 -0.205144 0)
(-0.000341453 -0.154635 0)
(-0.000108624 -0.0974829 0)
(-1.31991e-05 -0.0342491 0)
(0.000148769 0.034805 0)
(0.0009761 0.0989979 0)
(0.00269178 0.156953 0)
(0.00500541 0.208098 0)
(0.00771469 0.252067 0)
(0.0106505 0.288666 0)
(0.0136448 0.317864 0)
(0.0165415 0.339785 0)
(0.0192045 0.354682 0)
(0.0215215 0.362914 0)
(0.0234061 0.364923 0)
(0.0247985 0.361203 0)
(0.0256639 0.352286 0)
(0.0259912 0.338712 0)
(0.025789 0.32102 0)
(0.0250827 0.29973 0)
(0.0239105 0.275335 0)
(0.02232 0.248297 0)
(0.0203647 0.21904 0)
(0.0181021 0.187952 0)