/*--------------------------------*- C++ -*----------------------------------*\
  =========                 |
  \\      /  F ield         | OpenFOAM: The Open Source CFD Toolbox
   \\    /   O peration     | Website:  https://openfoam.org
    \\  /    A nd           | Version:  7
     \\/     M anipulation  |
\*---------------------------------------------------------------------------*/
FoamFile
{
    version     2.0;
    format      ascii;
    class       volScalarField;
    location    "0.0214";
    object      p;
}
// * * * * * * * * * * * * * * * * * * * * * * * * * * * * * * * * * * * * * //

dimensions      [0 2 -2 0 0 0 0];

internalField   nonuniform List<scalar> 
2500
(
3.76062e-05
6.38471
9.0481
10.142
10.7329
11.0811
11.2945
11.4349
11.5337
11.6071
11.664
11.7098
11.7482
11.7813
11.8108
11.8379
11.8634
11.8878
11.9116
11.935
11.9584
11.9817
12.0052
12.029
12.0531
12.0776
12.1026
12.1282
12.1546
12.1819
12.2103
12.2401
12.2716
12.3054
12.342
12.3822
12.427
12.4777
12.5364
12.6055
12.6888
12.7923
12.9254
13.1044
13.3617
13.761
14.4193
15.6083
18.3879
24.8964
4.86849
7.46779
8.88451
9.76682
10.3694
10.775
11.0497
11.2418
11.3812
11.4856
11.5662
11.6306
11.6835
11.7282
11.7672
11.802
11.8338
11.8634
11.8916
11.9188
11.9454
11.9716
11.9976
12.0237
12.05
12.0766
12.1037
12.1316
12.1603
12.1903
12.2216
12.2549
12.2904
12.329
12.3713
12.4184
12.4718
12.5332
12.6052
12.6914
12.797
12.9297
13.1011
13.3298
13.6462
14.1008
14.7633
15.7186
17.221
19.9375
7.70539
8.46843
9.2107
9.83319
10.3189
10.6805
10.9472
11.1458
11.2961
11.4121
11.5035
11.5774
11.6385
11.6903
11.7352
11.7751
11.8112
11.8446
11.876
11.906
11.9349
11.9633
11.9913
12.0191
12.0471
12.0753
12.1041
12.1336
12.1641
12.1959
12.2294
12.2651
12.3034
12.3451
12.3912
12.4427
12.5012
12.5688
12.648
12.7427
12.8579
13.0007
13.1814
13.4142
13.7196
14.1254
14.6614
15.3384
16.1352
16.9627
9.11584
9.29217
9.67066
10.0711
10.42
10.7053
10.9333
11.1141
11.2576
11.3726
11.466
11.543
11.6077
11.6631
11.7115
11.7545
11.7936
11.8295
11.8632
11.8953
11.9261
11.9562
11.9857
12.0149
12.0442
12.0738
12.1039
12.1347
12.1665
12.1998
12.2348
12.2721
12.3123
12.3561
12.4044
12.4585
12.5197
12.5901
12.672
12.7688
12.8847
13.0251
13.1972
13.4098
13.6729
13.9965
14.3859
14.8269
15.241
15.4477
9.92905
9.90767
10.083
10.3261
10.565
10.7795
10.9641
11.1193
11.2485
11.356
11.446
11.5222
11.5874
11.644
11.694
11.7388
11.7797
11.8174
11.8528
11.8864
11.9186
11.95
11.9808
12.0112
12.0416
12.0723
12.1034
12.1352
12.1682
12.2025
12.2387
12.2772
12.3186
12.3637
12.4133
12.4685
12.5308
12.6017
12.6834
12.7784
12.8898
13.0214
13.1773
13.3618
13.5777
13.8248
14.0961
14.3687
14.5666
14.5573
10.4412
10.3549
10.4231
10.5646
10.7233
10.8793
11.0232
11.1511
11.2626
11.3589
11.4421
11.5143
11.5775
11.6334
11.6833
11.7286
11.7702
11.8088
11.8451
11.8797
11.9129
11.9452
11.9769
12.0082
12.0395
12.0709
12.1028
12.1355
12.1692
12.2043
12.2412
12.2804
12.3224
12.3681
12.418
12.4733
12.535
12.6047
12.6837
12.7741
12.8779
12.9971
13.1335
13.2882
13.4599
13.6435
13.8278
13.9905
14.0721
13.9871
10.7825
10.6835
10.6983
10.7766
10.879
10.9894
11.0984
11.2006
11.2937
11.3772
11.4516
11.518
11.5773
11.6308
11.6794
11.7239
11.7652
11.8039
11.8405
11.8755
11.9093
11.9421
11.9743
12.0062
12.038
12.07
12.1025
12.1356
12.1698
12.2053
12.2425
12.282
12.3242
12.3697
12.4192
12.4735
12.5336
12.6005
12.6754
12.7593
12.8535
12.9587
13.0752
13.2018
13.3352
13.4687
13.5911
13.6846
13.7066
13.6033
11.0245
10.9308
10.9196
10.9593
11.0231
11.0994
11.1801
11.26
11.3359
11.4065
11.4714
11.5309
11.5853
11.6353
11.6815
11.7245
11.7647
11.8028
11.8391
11.874
11.9078
11.9408
11.9732
12.0054
12.0375
12.0697
12.1024
12.1358
12.1702
12.2058
12.2431
12.2824
12.3242
12.3691
12.4175
12.4702
12.5278
12.5911
12.6607
12.7373
12.8213
12.9125
13.01
13.1119
13.2139
13.3094
13.3888
13.4391
13.431
13.3303
11.2059
11.1218
11.0982
11.1145
11.1524
11.2037
11.2623
11.3236
11.3843
11.443
11.4986
11.5509
11.5998
11.6457
11.6889
11.7296
11.7682
11.8052
11.8406
11.875
11.9084
11.9412
11.9736
12.0057
12.0378
12.0701
12.1029
12.1363
12.1706
12.2061
12.2431
12.2819
12.3231
12.3668
12.4137
12.4642
12.5188
12.5779
12.6418
12.7108
12.7846
12.8626
12.9434
13.0243
13.1014
13.1685
13.2184
13.2419
13.2188
13.1265
11.3475
11.2729
11.2439
11.246
11.2664
11.2998
11.3415
11.3877
11.4357
11.4836
11.5306
11.5758
11.6193
11.6608
11.7005
11.7386
11.7752
11.8106
11.8449
11.8783
11.9111
11.9434
11.9754
12.0073
12.0392
12.0713
12.1039
12.1371
12.1711
12.2062
12.2427
12.2809
12.321
12.3634
12.4085
12.4564
12.5077
12.5623
12.6205
12.6819
12.7462
12.8123
12.8785
12.9422
12.9997
13.046
13.0756
13.0823
13.0521
12.969
11.4614
11.395
11.3639
11.3574
11.3663
11.3868
11.4158
11.45
11.4874
11.5261
11.5653
11.604
11.6421
11.6793
11.7154
11.7507
11.785
11.8185
11.8514
11.8837
11.9155
11.9471
11.9785
12.0099
12.0414
12.0732
12.1054
12.1382
12.1718
12.2064
12.2422
12.2795
12.3184
12.3592
12.4022
12.4475
12.4952
12.5454
12.5979
12.6523
12.7078
12.7634
12.8172
12.8669
12.9093
12.9403
12.9559
12.9522
12.9189
12.8441
11.555
11.4953
11.4639
11.4523
11.4533
11.4647
11.4841
11.509
11.5377
11.5687
11.601
11.634
11.6671
11.7
11.7327
11.765
11.7969
11.8285
11.8597
11.8907
11.9215
11.9522
11.9828
12.0136
12.0445
12.0758
12.1075
12.1398
12.1728
12.2067
12.2417
12.2778
12.3154
12.3545
12.3953
12.4378
12.4821
12.5279
12.5751
12.6229
12.6707
12.7172
12.7607
12.7991
12.8298
12.8496
12.8556
12.8453
12.8111
12.7435
11.633
11.5788
11.5479
11.5332
11.529
11.5339
11.5461
11.5638
11.5855
11.6101
11.6366
11.6644
11.693
11.7221
11.7514
11.7809
11.8104
11.8399
11.8694
11.899
11.9285
11.9582
11.988
12.018
12.0483
12.0789
12.11
12.1416
12.174
12.2071
12.2411
12.2761
12.3122
12.3496
12.3882
12.428
12.4688
12.5106
12.5527
12.5947
12.6357
12.6744
12.7094
12.7387
12.7604
12.7719
12.7713
12.757
12.7229
12.6614
11.6986
11.6489
11.6189
11.6024
11.5947
11.5949
11.6018
11.6139
11.6301
11.6494
11.671
11.6943
11.7189
11.7445
11.7707
11.7975
11.8247
11.8522
11.88
11.9081
11.9364
11.965
11.9938
12.023
12.0525
12.0824
12.1128
12.1438
12.1753
12.2075
12.2405
12.2743
12.309
12.3446
12.381
12.4181
12.4558
12.4937
12.5314
12.5681
12.6031
12.6353
12.6632
12.6854
12.7001
12.7056
12.7004
12.6836
12.6504
12.5941
11.754
11.7081
11.6791
11.6617
11.6517
11.6486
11.6514
11.6593
11.6711
11.686
11.7036
11.7231
11.7442
11.7666
11.7901
11.8144
11.8394
11.865
11.8911
11.9177
11.9448
11.9722
12.0001
12.0283
12.0571
12.0862
12.1158
12.146
12.1767
12.208
12.24
12.2726
12.3058
12.3396
12.3739
12.4086
12.4433
12.4777
12.5113
12.5435
12.5734
12.6
12.6222
12.6387
12.6481
12.6491
12.6407
12.6225
12.5904
12.5386
11.801
11.7582
11.7303
11.7124
11.7009
11.6954
11.6953
11.6998
11.7081
11.7197
11.7338
11.7501
11.7683
11.7879
11.8089
11.8309
11.8539
11.8777
11.9022
11.9274
11.9532
11.9796
12.0065
12.0338
12.0617
12.0901
12.1189
12.1483
12.1782
12.2086
12.2395
12.2709
12.3027
12.3348
12.3672
12.3995
12.4315
12.4627
12.4928
12.521
12.5465
12.5686
12.5861
12.5981
12.6034
12.6011
12.5905
12.5715
12.5407
12.4928
11.8408
11.8006
11.7738
11.7557
11.7432
11.736
11.7337
11.7357
11.7413
11.75
11.7614
11.775
11.7906
11.8079
11.8266
11.8467
11.8678
11.89
11.9131
11.937
11.9616
11.9869
12.0128
12.0393
12.0663
12.0939
12.122
12.1506
12.1796
12.2091
12.239
12.2692
12.2997
12.3303
12.3608
12.391
12.4205
12.449
12.4759
12.5007
12.5226
12.5409
12.5546
12.563
12.5652
12.5605
12.5484
12.5291
12.4995
12.455
11.8743
11.8364
11.8105
11.7924
11.7792
11.7709
11.7669
11.767
11.7704
11.7769
11.786
11.7975
11.8109
11.8262
11.8431
11.8613
11.8809
11.9016
11.9233
11.946
11.9695
11.9938
12.0188
12.0445
12.0707
12.0975
12.1249
12.1527
12.181
12.2096
12.2385
12.2677
12.2969
12.326
12.3549
12.3831
12.4105
12.4366
12.4608
12.4827
12.5016
12.5167
12.5275
12.533
12.5329
12.5263
12.5133
12.494
12.4656
12.424
11.9023
11.8662
11.8412
11.8232
11.8097
11.8005
11.7954
11.7939
11.7957
11.8004
11.8077
11.8173
11.829
11.8426
11.8578
11.8746
11.8928
11.9122
11.9327
11.9543
11.9768
12.0002
12.0244
12.0493
12.0748
12.1009
12.1276
12.1547
12.1822
12.21
12.2381
12.2662
12.2943
12.3221
12.3495
12.3761
12.4016
12.4256
12.4476
12.467
12.4834
12.496
12.5043
12.5077
12.5057
12.4979
12.4843
12.4651
12.4378
12.3987
11.9253
11.8908
11.8666
11.8488
11.835
11.8252
11.8192
11.8166
11.8172
11.8205
11.8263
11.8345
11.8447
11.8569
11.8708
11.8863
11.9032
11.9215
11.9411
11.9617
11.9834
12.0059
12.0294
12.0536
12.0784
12.1039
12.13
12.1564
12.1833
12.2104
12.2376
12.2649
12.292
12.3187
12.3448
12.37
12.3939
12.4161
12.4362
12.4537
12.468
12.4786
12.485
12.4867
12.4834
12.4746
12.4606
12.4416
12.4154
12.3784
11.9439
11.9107
11.887
11.8695
11.8556
11.8454
11.8387
11.8353
11.8348
11.8371
11.8418
11.8488
11.8579
11.8689
11.8818
11.8962
11.9122
11.9296
11.9482
11.9681
11.989
12.0109
12.0337
12.0573
12.0816
12.1065
12.132
12.1579
12.1842
12.2107
12.2372
12.2637
12.29
12.3157
12.3408
12.3648
12.3873
12.4081
12.4267
12.4426
12.4553
12.4643
12.4692
12.4697
12.4653
12.4559
12.4417
12.4229
12.3976
12.3623
11.9584
11.9261
11.903
11.8856
11.8717
11.8612
11.8541
11.8501
11.8489
11.8503
11.8542
11.8603
11.8685
11.8787
11.8906
11.9043
11.9195
11.9361
11.9541
11.9733
11.9936
12.0149
12.0372
12.0603
12.0842
12.1086
12.1337
12.1591
12.1849
12.2109
12.2369
12.2628
12.2883
12.3133
12.3375
12.3605
12.3821
12.4017
12.4191
12.4338
12.4452
12.453
12.4568
12.4563
12.4512
12.4414
12.427
12.4085
12.3839
12.35
11.969
11.9375
11.9148
11.8976
11.8836
11.8729
11.8655
11.861
11.8594
11.8602
11.8635
11.869
11.8765
11.886
11.8973
11.9104
11.925
11.9411
11.9585
11.9772
11.9971
12.018
12.0399
12.0626
12.0861
12.1102
12.1349
12.16
12.1854
12.211
12.2366
12.262
12.287
12.3114
12.335
12.3573
12.3781
12.3969
12.4134
12.4271
12.4377
12.4447
12.4477
12.4465
12.4409
12.4308
12.4164
12.398
12.374
12.3411
11.976
11.945
11.9225
11.9054
11.8914
11.8807
11.873
11.8683
11.8663
11.8668
11.8697
11.8747
11.8818
11.8909
11.9018
11.9145
11.9287
11.9444
11.9615
11.9799
11.9995
12.0201
12.0417
12.0642
12.0874
12.1113
12.1358
12.1606
12.1858
12.2111
12.2364
12.2615
12.2862
12.3102
12.3333
12.3551
12.3754
12.3937
12.4096
12.4228
12.4327
12.4391
12.4417
12.44
12.4341
12.4238
12.4094
12.3912
12.3675
12.3353
11.9795
11.9487
11.9264
11.9093
11.8953
11.8845
11.8768
11.8719
11.8697
11.8701
11.8727
11.8776
11.8845
11.8934
11.9041
11.9165
11.9305
11.9461
11.963
11.9812
12.0007
12.0212
12.0426
12.065
12.0881
12.1119
12.1362
12.1609
12.186
12.2111
12.2363
12.2612
12.2857
12.3096
12.3324
12.3541
12.3741
12.3921
12.4077
12.4206
12.4302
12.4364
12.4387
12.4368
12.4308
12.4204
12.4059
12.3878
12.3643
12.3325
11.9795
11.9487
11.9264
11.9093
11.8953
11.8845
11.8768
11.8719
11.8698
11.8701
11.8727
11.8776
11.8845
11.8934
11.9041
11.9165
11.9305
11.9461
11.963
11.9812
12.0007
12.0212
12.0426
12.065
12.0881
12.1119
12.1362
12.1609
12.186
12.2111
12.2363
12.2612
12.2857
12.3096
12.3324
12.3541
12.3741
12.3921
12.4077
12.4206
12.4302
12.4364
12.4387
12.4368
12.4308
12.4204
12.4059
12.3878
12.3643
12.3325
11.976
11.945
11.9225
11.9054
11.8914
11.8807
11.873
11.8683
11.8663
11.8668
11.8697
11.8747
11.8819
11.8909
11.9018
11.9145
11.9287
11.9444
11.9615
11.9799
11.9995
12.0201
12.0417
12.0642
12.0874
12.1113
12.1358
12.1606
12.1858
12.2111
12.2364
12.2615
12.2862
12.3102
12.3333
12.3551
12.3754
12.3937
12.4096
12.4228
12.4327
12.4391
12.4417
12.44
12.4341
12.4238
12.4094
12.3912
12.3675
12.3353
11.969
11.9375
11.9148
11.8976
11.8836
11.8729
11.8655
11.861
11.8594
11.8602
11.8635
11.869
11.8765
11.886
11.8973
11.9104
11.925
11.9411
11.9585
11.9772
11.9971
12.018
12.0399
12.0626
12.0861
12.1102
12.1349
12.16
12.1854
12.211
12.2366
12.262
12.287
12.3115
12.335
12.3573
12.3781
12.3969
12.4134
12.4272
12.4377
12.4447
12.4477
12.4465
12.4409
12.4308
12.4164
12.398
12.374
12.3411
11.9584
11.9261
11.903
11.8857
11.8717
11.8612
11.8541
11.8501
11.8489
11.8503
11.8542
11.8603
11.8685
11.8787
11.8906
11.9043
11.9195
11.9361
11.9541
11.9733
11.9936
12.0149
12.0372
12.0603
12.0842
12.1086
12.1337
12.1591
12.1849
12.2109
12.2369
12.2628
12.2883
12.3133
12.3375
12.3605
12.3821
12.4017
12.4191
12.4338
12.4452
12.453
12.4569
12.4563
12.4512
12.4414
12.427
12.4085
12.3839
12.35
11.9439
11.9107
11.8871
11.8695
11.8556
11.8454
11.8387
11.8353
11.8349
11.8371
11.8418
11.8488
11.8579
11.869
11.8818
11.8962
11.9122
11.9296
11.9482
11.9681
11.989
12.0109
12.0337
12.0573
12.0816
12.1065
12.132
12.1579
12.1842
12.2107
12.2372
12.2637
12.29
12.3157
12.3408
12.3648
12.3873
12.4081
12.4267
12.4426
12.4553
12.4643
12.4692
12.4697
12.4653
12.4559
12.4417
12.4229
12.3976
12.3623
11.9254
11.8908
11.8666
11.8488
11.835
11.8252
11.8192
11.8166
11.8172
11.8205
11.8263
11.8345
11.8447
11.8569
11.8708
11.8863
11.9032
11.9215
11.9411
11.9617
11.9834
12.0059
12.0294
12.0536
12.0785
12.1039
12.13
12.1564
12.1833
12.2104
12.2376
12.2649
12.292
12.3187
12.3448
12.37
12.3939
12.4161
12.4362
12.4537
12.468
12.4786
12.485
12.4867
12.4834
12.4746
12.4606
12.4416
12.4154
12.3784
11.9023
11.8662
11.8412
11.8233
11.8097
11.8005
11.7954
11.7939
11.7957
11.8004
11.8077
11.8174
11.829
11.8426
11.8578
11.8746
11.8928
11.9122
11.9327
11.9543
11.9768
12.0002
12.0244
12.0493
12.0748
12.1009
12.1276
12.1547
12.1822
12.21
12.2381
12.2662
12.2943
12.3222
12.3495
12.3761
12.4016
12.4256
12.4476
12.4671
12.4834
12.496
12.5043
12.5077
12.5057
12.4979
12.4843
12.4651
12.4378
12.3987
11.8743
11.8364
11.8105
11.7924
11.7792
11.7709
11.767
11.767
11.7705
11.7769
11.7861
11.7975
11.811
11.8262
11.8431
11.8613
11.8809
11.9016
11.9233
11.946
11.9695
11.9938
12.0188
12.0445
12.0707
12.0976
12.1249
12.1527
12.181
12.2096
12.2385
12.2677
12.2969
12.326
12.3549
12.3832
12.4105
12.4366
12.4608
12.4827
12.5016
12.5167
12.5275
12.5331
12.5329
12.5263
12.5133
12.494
12.4656
12.424
11.8408
11.8007
11.7738
11.7557
11.7432
11.736
11.7337
11.7357
11.7413
11.75
11.7614
11.775
11.7906
11.8079
11.8267
11.8467
11.8679
11.89
11.9131
11.937
11.9616
11.9869
12.0128
12.0393
12.0663
12.0939
12.122
12.1506
12.1796
12.2091
12.239
12.2692
12.2997
12.3303
12.3608
12.391
12.4205
12.449
12.4759
12.5007
12.5226
12.5409
12.5546
12.563
12.5652
12.5605
12.5484
12.5291
12.4995
12.455
11.801
11.7583
11.7304
11.7124
11.7009
11.6954
11.6953
11.6998
11.7082
11.7197
11.7338
11.7501
11.7683
11.7879
11.8089
11.8309
11.8539
11.8777
11.9023
11.9275
11.9533
11.9796
12.0065
12.0338
12.0617
12.0901
12.1189
12.1483
12.1782
12.2086
12.2395
12.2709
12.3027
12.3348
12.3672
12.3995
12.4315
12.4627
12.4928
12.521
12.5465
12.5686
12.5861
12.5981
12.6034
12.6011
12.5905
12.5715
12.5407
12.4928
11.754
11.7081
11.6792
11.6617
11.6517
11.6486
11.6515
11.6593
11.6711
11.6861
11.7036
11.7231
11.7442
11.7667
11.7901
11.8144
11.8394
11.865
11.8911
11.9177
11.9448
11.9722
12.0001
12.0284
12.0571
12.0862
12.1159
12.146
12.1767
12.2081
12.24
12.2726
12.3058
12.3396
12.3739
12.4086
12.4433
12.4777
12.5113
12.5435
12.5734
12.6
12.6222
12.6387
12.6481
12.6491
12.6407
12.6225
12.5904
12.5386
11.6986
11.6489
11.6189
11.6024
11.5948
11.595
11.6018
11.6139
11.6301
11.6494
11.671
11.6944
11.719
11.7445
11.7708
11.7975
11.8247
11.8523
11.8801
11.9081
11.9364
11.965
11.9939
12.023
12.0525
12.0824
12.1128
12.1438
12.1753
12.2075
12.2405
12.2744
12.309
12.3446
12.381
12.4181
12.4558
12.4937
12.5314
12.5681
12.6031
12.6353
12.6632
12.6854
12.7002
12.7056
12.7004
12.6836
12.6504
12.5941
11.633
11.5788
11.5479
11.5332
11.5291
11.5339
11.5461
11.5638
11.5855
11.6101
11.6366
11.6644
11.693
11.7221
11.7514
11.7809
11.8104
11.8399
11.8694
11.899
11.9286
11.9582
11.988
12.018
12.0483
12.0789
12.11
12.1417
12.174
12.2071
12.2411
12.2761
12.3123
12.3496
12.3882
12.428
12.4689
12.5106
12.5527
12.5947
12.6357
12.6744
12.7094
12.7387
12.7604
12.7719
12.7713
12.757
12.7229
12.6614
11.555
11.4953
11.4639
11.4523
11.4534
11.4647
11.4841
11.509
11.5377
11.5687
11.6011
11.634
11.6671
11.7001
11.7327
11.765
11.7969
11.8285
11.8597
11.8907
11.9215
11.9522
11.9828
12.0136
12.0445
12.0758
12.1075
12.1398
12.1728
12.2067
12.2417
12.2778
12.3154
12.3545
12.3953
12.4379
12.4821
12.528
12.5751
12.623
12.6707
12.7172
12.7607
12.7991
12.8298
12.8496
12.8556
12.8454
12.8111
12.7435
11.4615
11.395
11.364
11.3575
11.3663
11.3869
11.4158
11.4501
11.4874
11.5262
11.5653
11.6041
11.6421
11.6793
11.7155
11.7507
11.785
11.8185
11.8514
11.8837
11.9156
11.9471
11.9786
12.01
12.0415
12.0732
12.1054
12.1383
12.1719
12.2064
12.2422
12.2795
12.3184
12.3592
12.4022
12.4475
12.4952
12.5454
12.5979
12.6523
12.7079
12.7634
12.8173
12.8669
12.9093
12.9403
12.9559
12.9522
12.9189
12.8441
11.3476
11.2729
11.2439
11.246
11.2665
11.2999
11.3416
11.3878
11.4357
11.4837
11.5306
11.5759
11.6193
11.6608
11.7005
11.7386
11.7752
11.8106
11.8449
11.8783
11.9111
11.9434
11.9754
12.0073
12.0392
12.0713
12.1039
12.1371
12.1711
12.2063
12.2428
12.2809
12.321
12.3634
12.4085
12.4565
12.5077
12.5623
12.6205
12.6819
12.7462
12.8123
12.8785
12.9422
12.9997
13.046
13.0756
13.0823
13.0521
12.969
11.2059
11.1218
11.0983
11.1146
11.1524
11.2037
11.2624
11.3236
11.3844
11.443
11.4986
11.5509
11.5999
11.6458
11.6889
11.7296
11.7683
11.8052
11.8407
11.875
11.9085
11.9412
11.9736
12.0057
12.0379
12.0702
12.1029
12.1363
12.1706
12.2061
12.2431
12.282
12.3231
12.3668
12.4137
12.4642
12.5188
12.5779
12.6418
12.7108
12.7846
12.8626
12.9434
13.0243
13.1014
13.1685
13.2184
13.2419
13.2188
13.1265
11.0246
10.9308
10.9196
10.9593
11.0232
11.0994
11.1802
11.26
11.3359
11.4065
11.4715
11.5309
11.5854
11.6354
11.6815
11.7245
11.7648
11.8028
11.8391
11.874
11.9078
11.9408
11.9732
12.0054
12.0375
12.0698
12.1025
12.1358
12.1702
12.2058
12.2431
12.2824
12.3242
12.3691
12.4175
12.4702
12.5278
12.5911
12.6607
12.7373
12.8213
12.9125
13.01
13.1119
13.2139
13.3094
13.3888
13.4391
13.431
13.3303
10.7826
10.6835
10.6983
10.7767
10.879
10.9894
11.0985
11.2007
11.2937
11.3772
11.4517
11.518
11.5774
11.6308
11.6794
11.724
11.7653
11.804
11.8406
11.8755
11.9093
11.9421
11.9743
12.0062
12.0381
12.0701
12.1025
12.1356
12.1698
12.2053
12.2426
12.282
12.3242
12.3697
12.4192
12.4735
12.5336
12.6005
12.6754
12.7594
12.8535
12.9587
13.0752
13.2018
13.3352
13.4687
13.5911
13.6846
13.7066
13.6033
10.4413
10.3549
10.4232
10.5646
10.7233
10.8793
11.0233
11.1512
11.2626
11.3589
11.4421
11.5144
11.5775
11.6334
11.6834
11.7286
11.7702
11.8088
11.8451
11.8797
11.9129
11.9452
11.9769
12.0082
12.0395
12.071
12.1029
12.1355
12.1692
12.2043
12.2412
12.2804
12.3225
12.3681
12.418
12.4733
12.5351
12.6047
12.6838
12.7741
12.8779
12.9971
13.1335
13.2882
13.4599
13.6435
13.8278
13.9905
14.0721
13.9871
9.92912
9.90774
10.0831
10.3262
10.5651
10.7796
10.9642
11.1193
11.2485
11.3561
11.4461
11.5222
11.5874
11.6441
11.6941
11.7389
11.7797
11.8174
11.8528
11.8864
11.9187
11.95
11.9808
12.0112
12.0417
12.0723
12.1034
12.1353
12.1682
12.2025
12.2387
12.2772
12.3186
12.3637
12.4133
12.4685
12.5308
12.6017
12.6834
12.7784
12.8898
13.0214
13.1774
13.3618
13.5777
13.8248
14.0961
14.3687
14.5666
14.5573
9.11593
9.29225
9.67073
10.0711
10.42
10.7053
10.9334
11.1141
11.2577
11.3727
11.466
11.5431
11.6078
11.6632
11.7115
11.7546
11.7936
11.8296
11.8633
11.8953
11.9262
11.9562
11.9857
12.015
12.0443
12.0738
12.1039
12.1347
12.1666
12.1998
12.2348
12.2721
12.3123
12.3561
12.4044
12.4585
12.5197
12.5901
12.672
12.7688
12.8847
13.0251
13.1972
13.4098
13.6729
13.9965
14.3859
14.8269
15.241
15.4477
7.70549
8.46852
9.21078
9.83326
10.3189
10.6806
10.9472
11.1458
11.2961
11.4121
11.5036
11.5775
11.6386
11.6903
11.7352
11.7751
11.8112
11.8446
11.876
11.906
11.935
11.9633
11.9913
12.0191
12.0471
12.0753
12.1041
12.1336
12.1641
12.1959
12.2294
12.2651
12.3034
12.3451
12.3912
12.4427
12.5012
12.5688
12.648
12.7427
12.8579
13.0007
13.1814
13.4142
13.7197
14.1254
14.6614
15.3384
16.1352
16.9627
4.8686
7.46789
8.8846
9.7669
10.3694
10.7751
11.0497
11.2419
11.3812
11.4856
11.5663
11.6306
11.6835
11.7283
11.7672
11.802
11.8338
11.8635
11.8917
11.9189
11.9454
11.9716
11.9976
12.0237
12.05
12.0766
12.1038
12.1316
12.1604
12.1903
12.2216
12.2549
12.2905
12.329
12.3713
12.4184
12.4718
12.5332
12.6052
12.6914
12.797
12.9297
13.1011
13.3298
13.6462
14.1008
14.7634
15.7186
17.2211
19.9375
0.000195511
6.38482
9.0482
10.1421
10.733
11.0812
11.2946
11.4349
11.5338
11.6072
11.664
11.7099
11.7482
11.7813
11.8109
11.838
11.8635
11.8879
11.9116
11.9351
11.9584
11.9817
12.0052
12.029
12.0531
12.0776
12.1026
12.1282
12.1546
12.1819
12.2103
12.2401
12.2717
12.3054
12.342
12.3822
12.427
12.4777
12.5364
12.6055
12.6889
12.7924
12.9254
13.1045
13.3617
13.761
14.4193
15.6083
18.3879
24.8964
)
;

boundaryField
{
    movingWallTop
    {
        type            zeroGradient;
    }
    movingWallBottom
    {
        type            zeroGradient;
    }
    fixedWalls
    {
        type            zeroGradient;
    }
    frontAndBack
    {
        type            empty;
    }
}


// ************************************************************************* //
