/*--------------------------------*- C++ -*----------------------------------*\
  =========                 |
  \\      /  F ield         | OpenFOAM: The Open Source CFD Toolbox
   \\    /   O peration     | Website:  https://openfoam.org
    \\  /    A nd           | Version:  7
     \\/     M anipulation  |
\*---------------------------------------------------------------------------*/
FoamFile
{
    version     2.0;
    format      ascii;
    class       surfaceScalarField;
    location    "0.0392";
    object      phi;
}
// * * * * * * * * * * * * * * * * * * * * * * * * * * * * * * * * * * * * * //

dimensions      [0 3 -1 0 0 0 0];

internalField   nonuniform List<scalar> 
4900
(
5.45486e-06
-5.45484e-06
9.95357e-06
-4.49871e-06
1.26944e-05
-2.74078e-06
1.44123e-05
-1.71797e-06
1.5528e-05
-1.11563e-06
1.62803e-05
-7.52297e-07
1.68102e-05
-5.29983e-07
1.71995e-05
-3.89268e-07
1.74953e-05
-2.95834e-07
1.77261e-05
-2.30735e-07
1.79095e-05
-1.8344e-07
1.80574e-05
-1.4788e-07
1.81778e-05
-1.20399e-07
1.82765e-05
-9.86944e-08
1.83577e-05
-8.12477e-08
1.84247e-05
-6.70157e-08
1.848e-05
-5.52553e-08
1.85254e-05
-4.54191e-08
1.85625e-05
-3.70919e-08
1.85925e-05
-2.99497e-08
1.86162e-05
-2.37332e-08
1.86344e-05
-1.82286e-08
1.86477e-05
-1.32547e-08
1.86563e-05
-8.65307e-09
1.86606e-05
-4.28013e-09
1.86606e-05
-1.29235e-11
1.86563e-05
4.30358e-09
1.86475e-05
8.77508e-09
1.8634e-05
1.35508e-08
1.86152e-05
1.87811e-08
1.85906e-05
2.46381e-08
1.85593e-05
3.13249e-08
1.85202e-05
3.90891e-08
1.84719e-05
4.82416e-08
1.84127e-05
5.91841e-08
1.83403e-05
7.24507e-08
1.82515e-05
8.87712e-08
1.81423e-05
1.09174e-07
1.80072e-05
1.3516e-07
1.78382e-05
1.69001e-07
1.76239e-05
2.14302e-07
1.73468e-05
2.77051e-07
1.69791e-05
3.67715e-07
1.64737e-05
5.05376e-07
1.57483e-05
7.25405e-07
1.4657e-05
1.09134e-06
1.2945e-05
1.71195e-06
1.01621e-05
2.78296e-06
5.55736e-06
4.60472e-06
5.55736e-06
-1.19063e-07
-5.33578e-06
1.83208e-06
-6.44986e-06
4.4132e-06
-5.3219e-06
6.72835e-06
-4.03312e-06
8.60718e-06
-2.99445e-06
1.00881e-05
-2.23327e-06
1.1251e-05
-1.69286e-06
1.217e-05
-1.30824e-06
1.29036e-05
-1.02945e-06
1.34955e-05
-8.22658e-07
1.39777e-05
-6.65643e-07
1.43737e-05
-5.43836e-07
1.47008e-05
-4.47539e-07
1.49723e-05
-3.7016e-07
1.51982e-05
-3.07104e-07
1.53862e-05
-2.5508e-07
1.55426e-05
-2.1167e-07
1.56723e-05
-1.7505e-07
1.5779e-05
-1.4381e-07
1.58659e-05
-1.16832e-07
1.59353e-05
-9.3209e-08
1.59893e-05
-7.21834e-08
1.60291e-05
-5.31078e-08
1.60559e-05
-3.54111e-08
1.60702e-05
-1.85744e-08
1.60723e-05
-2.11105e-09
1.60621e-05
1.4461e-08
1.60393e-05
3.16185e-08
1.6003e-05
4.98706e-08
1.5952e-05
6.97718e-08
1.58847e-05
9.19491e-08
1.57989e-05
1.17136e-07
1.56917e-05
1.46219e-07
1.55597e-05
1.80298e-07
1.53981e-05
2.20775e-07
1.52011e-05
2.69482e-07
1.4961e-05
3.28874e-07
1.46678e-05
4.0232e-07
1.43084e-05
4.94561e-07
1.3865e-05
6.12439e-07
1.33132e-05
7.66089e-07
1.26194e-05
9.70869e-07
1.17366e-05
1.25045e-06
1.06006e-05
1.64143e-06
9.12706e-06
2.19892e-06
7.2216e-06
2.9968e-06
4.83012e-06
4.10343e-06
2.12054e-06
5.49254e-06
1.06908e-08
6.71457e-06
5.56806e-06
-1.08239e-06
-4.25339e-06
-7.54408e-07
-6.77784e-06
5.88184e-07
-6.66449e-06
2.29874e-06
-5.74368e-06
4.00757e-06
-4.70328e-06
5.55603e-06
-3.78172e-06
6.89697e-06
-3.0338e-06
8.03409e-06
-2.44535e-06
8.99005e-06
-1.98541e-06
9.79172e-06
-1.62433e-06
1.04643e-05
-1.33817e-06
1.10292e-05
-1.10883e-06
1.15046e-05
-9.22912e-07
1.1905e-05
-7.70532e-07
1.22423e-05
-6.44362e-07
1.25261e-05
-5.38887e-07
1.27643e-05
-4.49893e-07
1.29633e-05
-3.74096e-07
1.31284e-05
-3.08892e-07
1.32637e-05
-2.52169e-07
1.33727e-05
-2.02179e-07
1.3458e-05
-1.57439e-07
1.35215e-05
-1.16663e-07
1.35648e-05
-7.87043e-08
1.35888e-05
-4.25078e-08
1.35937e-05
-7.07614e-09
1.35796e-05
2.85714e-08
1.35458e-05
6.5425e-08
1.34911e-05
1.04527e-07
1.34139e-05
1.47011e-07
1.33117e-05
1.9415e-07
1.31814e-05
2.47418e-07
1.30191e-05
3.08573e-07
1.28196e-05
3.79762e-07
1.25767e-05
4.63674e-07
1.22824e-05
5.63741e-07
1.19269e-05
6.84436e-07
1.14975e-05
8.3169e-07
1.09786e-05
1.01349e-06
1.03503e-05
1.24072e-06
9.58807e-06
1.52833e-06
8.66211e-06
1.89684e-06
7.53878e-06
2.37377e-06
6.18614e-06
2.99407e-06
4.58939e-06
3.79567e-06
2.78618e-06
4.80001e-06
9.35086e-07
5.95452e-06
-5.71882e-07
6.99951e-06
-1.03843e-06
7.18113e-06
4.52962e-06
-9.13245e-07
-3.34014e-06
-1.34262e-06
-6.34847e-06
-9.39574e-07
-7.06754e-06
1.60052e-08
-6.69926e-06
1.23019e-06
-5.91747e-06
2.50369e-06
-5.05522e-06
3.72379e-06
-4.25391e-06
4.83791e-06
-3.55947e-06
5.82832e-06
-2.97583e-06
6.69533e-06
-2.49134e-06
7.44749e-06
-2.09033e-06
8.09642e-06
-1.75777e-06
8.65424e-06
-1.48073e-06
9.13236e-06
-1.24865e-06
9.54102e-06
-1.05302e-06
9.88915e-06
-8.87018e-07
1.01844e-05
-7.45179e-07
1.04334e-05
-6.23062e-07
1.06415e-05
-5.17018e-07
1.08134e-05
-4.24005e-07
1.09526e-05
-3.4144e-07
1.10623e-05
-2.67086e-07
1.11446e-05
-1.98967e-07
1.12012e-05
-1.35292e-07
1.12331e-05
-7.4399e-08
1.12407e-05
-1.46974e-08
1.12239e-05
4.538e-08
1.11819e-05
1.07423e-07
1.11133e-05
1.73098e-07
1.10161e-05
2.44208e-07
1.08875e-05
3.22758e-07
1.07239e-05
4.11042e-07
1.05207e-05
5.11748e-07
1.02724e-05
6.28096e-07
9.97202e-06
7.64018e-07
9.61137e-06
9.24394e-07
9.18045e-06
1.11535e-06
8.66747e-06
1.34467e-06
8.0587e-06
1.62226e-06
7.33874e-06
1.96067e-06
6.49147e-06
2.3756e-06
5.50249e-06
2.88582e-06
4.36449e-06
3.51178e-06
3.08787e-06
4.27069e-06
1.72e-06
5.16354e-06
3.76028e-07
6.14398e-06
-7.2883e-07
7.05938e-06
-1.26765e-06
7.53833e-06
-9.16358e-07
6.82983e-06
3.61326e-06
-6.65244e-07
-2.6749e-06
-1.29916e-06
-5.71455e-06
-1.42247e-06
-6.94422e-06
-1.05037e-06
-7.07136e-06
-3.37236e-07
-6.63061e-06
5.59419e-07
-5.95187e-06
1.52148e-06
-5.21597e-06
2.47317e-06
-4.51117e-06
3.37146e-06
-3.87412e-06
4.1951e-06
-3.31497e-06
4.93622e-06
-2.83145e-06
5.59465e-06
-2.41619e-06
6.17427e-06
-2.06035e-06
6.68089e-06
-1.75528e-06
7.12102e-06
-1.49315e-06
7.50112e-06
-1.26712e-06
7.82728e-06
-1.07134e-06
8.105e-06
-9.00786e-07
8.33915e-06
-7.51161e-07
8.53388e-06
-6.18741e-07
8.69271e-06
-5.00268e-07
8.81848e-06
-3.92851e-07
8.91338e-06
-2.93875e-07
8.97902e-06
-2.00932e-07
9.01638e-06
-1.11751e-07
9.02582e-06
-2.41401e-08
9.00713e-06
6.40707e-08
8.95946e-06
1.55089e-07
8.88134e-06
2.51223e-07
8.77059e-06
3.54949e-07
8.62436e-06
4.68991e-07
8.43899e-06
5.96416e-07
8.20999e-06
7.40747e-07
7.93198e-06
9.06101e-07
7.59865e-06
1.09735e-06
7.2027e-06
1.32034e-06
6.736e-06
1.58206e-06
6.18975e-06
1.89092e-06
5.55516e-06
2.25686e-06
4.82454e-06
2.69129e-06
3.99361e-06
3.20653e-06
3.06538e-06
3.81405e-06
2.05674e-06
4.52042e-06
1.00865e-06
5.31878e-06
-9.89349e-11
6.17229e-06
-8.41495e-07
6.98537e-06
-1.33471e-06
7.55259e-06
-1.29543e-06
7.49904e-06
-6.85621e-07
6.22003e-06
2.92764e-06
-4.71486e-07
-2.20341e-06
-1.10235e-06
-5.08369e-06
-1.47381e-06
-6.57275e-06
-1.47918e-06
-7.066e-06
-1.1641e-06
-6.94568e-06
-6.23449e-07
-6.49252e-06
4.92366e-08
-5.88865e-06
7.80245e-07
-5.24217e-06
1.5181e-06
-4.61197e-06
2.2299e-06
-4.02677e-06
2.89642e-06
-3.49797e-06
3.50776e-06
-3.02753e-06
4.0601e-06
-2.61269e-06
4.55332e-06
-2.24851e-06
4.98952e-06
-1.92934e-06
5.37189e-06
-1.6495e-06
5.70417e-06
-1.40361e-06
5.99013e-06
-1.18675e-06
6.2334e-06
-9.94433e-07
6.43727e-06
-8.22612e-07
6.60461e-06
-6.67606e-07
6.73781e-06
-5.26047e-07
6.83874e-06
-3.94813e-07
6.90878e-06
-2.70966e-07
6.94873e-06
-1.51699e-07
6.95885e-06
-3.4268e-08
6.93887e-06
8.40578e-08
6.88789e-06
2.06061e-07
6.80448e-06
3.34639e-07
6.68656e-06
4.72873e-07
6.53144e-06
6.24108e-07
6.33581e-06
7.92041e-07
6.09575e-06
9.80814e-07
5.80672e-06
1.19513e-06
5.46372e-06
1.44035e-06
5.06145e-06
1.72261e-06
4.59465e-06
2.04886e-06
4.05876e-06
2.42681e-06
3.45094e-06
2.86468e-06
2.7718e-06
3.37043e-06
2.02805e-06
3.95027e-06
1.23652e-06
4.60558e-06
4.29542e-07
5.3274e-06
-3.38468e-07
6.08679e-06
-9.85595e-07
6.81941e-06
-1.4027e-06
7.40248e-06
-1.47526e-06
7.62515e-06
-1.13888e-06
7.16266e-06
-4.97302e-07
5.57845e-06
2.43034e-06
-3.40716e-07
-1.8627e-06
-9.05103e-07
-4.51931e-06
-1.37073e-06
-6.10712e-06
-1.59601e-06
-6.84072e-06
-1.56234e-06
-6.97935e-06
-1.31162e-06
-6.74325e-06
-9.05011e-07
-6.29526e-06
-4.01442e-07
-5.74574e-06
1.50981e-07
-5.1644e-06
7.16577e-07
-4.59237e-06
1.2707e-06
-4.05209e-06
1.79739e-06
-3.55423e-06
2.28714e-06
-3.10244e-06
2.73491e-06
-2.69629e-06
3.13873e-06
-2.33316e-06
3.49857e-06
-2.00933e-06
3.81557e-06
-1.72061e-06
4.09155e-06
-1.46273e-06
4.3286e-06
-1.23148e-06
4.52884e-06
-1.02285e-06
4.69426e-06
-8.33021e-07
4.82657e-06
-6.58355e-07
4.92715e-06
-4.95397e-07
4.99701e-06
-3.40821e-07
5.0367e-06
-1.9139e-07
5.04634e-06
-4.39073e-08
5.02557e-06
1.0483e-07
4.97354e-06
2.58086e-07
4.88894e-06
4.19244e-07
4.76994e-06
5.91868e-07
4.61428e-06
7.79764e-07
4.41928e-06
9.87046e-07
4.18189e-06
1.2182e-06
3.89888e-06
1.47814e-06
3.56702e-06
1.77221e-06
3.18345e-06
2.10618e-06
2.74621e-06
2.48609e-06
2.25511e-06
2.91791e-06
1.71294e-06
3.40685e-06
1.12725e-06
3.95612e-06
5.12797e-07
4.56472e-06
-1.05436e-07
5.22381e-06
-6.88923e-07
5.91088e-06
-1.18315e-06
6.58102e-06
-1.51854e-06
7.15481e-06
-1.6197e-06
7.50364e-06
-1.43058e-06
7.43603e-06
-9.62728e-07
6.69481e-06
-3.67387e-07
4.98311e-06
2.06295e-06
-2.55931e-07
-1.60677e-06
-7.44559e-07
-4.03068e-06
-1.22879e-06
-5.62289e-06
-1.5717e-06
-6.49781e-06
-1.72404e-06
-6.82701e-06
-1.69156e-06
-6.77574e-06
-1.50672e-06
-6.4801e-06
-1.21023e-06
-6.04223e-06
-8.40929e-07
-5.5337e-06
-4.31369e-07
-5.00193e-06
-6.78918e-09
-4.47667e-06
4.1438e-07
-3.9754e-06
8.19357e-07
-3.50741e-06
1.19977e-06
-3.0767e-06
1.55052e-06
-2.68391e-06
1.86884e-06
-2.32765e-06
2.15357e-06
-2.00535e-06
2.40462e-06
-1.71378e-06
2.62253e-06
-1.44939e-06
2.80817e-06
-1.20849e-06
2.96253e-06
-9.87385e-07
3.08658e-06
-7.82397e-07
3.1811e-06
-5.89917e-07
3.24666e-06
-4.06382e-07
3.28353e-06
-2.28264e-07
3.29166e-06
-5.20382e-08
3.27064e-06
1.25848e-07
3.21971e-06
3.09016e-07
3.13776e-06
5.01198e-07
3.02335e-06
7.0628e-07
2.87477e-06
9.28337e-07
2.69015e-06
1.17167e-06
2.46756e-06
1.4408e-06
2.20522e-06
1.74048e-06
1.90183e-06
2.07559e-06
1.55702e-06
2.45099e-06
1.17195e-06
2.87116e-06
7.50231e-07
3.33963e-06
2.99076e-07
3.85801e-06
-1.69186e-07
4.42438e-06
-6.35354e-07
5.03089e-06
-1.07159e-06
5.66005e-06
-1.44027e-06
6.27957e-06
-1.69475e-06
6.8355e-06
-1.78409e-06
7.24414e-06
-1.66497e-06
7.38452e-06
-1.3242e-06
7.09526e-06
-8.12402e-07
6.18301e-06
-2.81991e-07
4.4527e-06
1.78096e-06
-2.00418e-07
-1.40635e-06
-6.21943e-07
-3.60915e-06
-1.09185e-06
-5.15298e-06
-1.49158e-06
-6.09809e-06
-1.76142e-06
-6.55716e-06
-1.88573e-06
-6.65143e-06
-1.87558e-06
-6.49024e-06
-1.75506e-06
-6.16275e-06
-1.55201e-06
-5.73675e-06
-1.2929e-06
-5.26103e-06
-1.00044e-06
-4.76913e-06
-6.92797e-07
-4.28304e-06
-3.83829e-07
-3.81638e-06
-8.36526e-08
-3.37688e-06
2.0065e-07
-2.96821e-06
4.64349e-07
-2.59135e-06
7.0447e-07
-2.24547e-06
9.19299e-07
-1.92861e-06
1.10799e-06
-1.63808e-06
1.27026e-06
-1.37076e-06
1.40615e-06
-1.12327e-06
1.51585e-06
-8.92096e-07
1.59956e-06
-6.7363e-07
1.65742e-06
-4.64235e-07
1.68939e-06
-2.60234e-07
1.69526e-06
-5.79126e-08
1.67461e-06
1.46496e-07
1.6268e-06
3.5683e-07
1.55098e-06
5.77015e-07
1.44618e-06
8.11086e-07
1.31132e-06
1.06319e-06
1.14542e-06
1.33757e-06
9.4768e-07
1.63854e-06
7.17808e-07
1.97035e-06
4.56327e-07
2.33708e-06
1.65058e-07
2.74226e-06
-1.52259e-07
3.18848e-06
-4.89182e-07
3.67656e-06
-8.35614e-07
4.20444e-06
-1.17675e-06
4.76552e-06
-1.49211e-06
5.34625e-06
-1.75497e-06
5.92291e-06
-1.93291e-06
6.45751e-06
-1.99046e-06
6.89304e-06
-1.89528e-06
7.14897e-06
-1.62953e-06
7.11876e-06
-1.20692e-06
6.67265e-06
-6.93651e-07
5.66975e-06
-2.25296e-07
3.98435e-06
1.55566e-06
-1.63083e-07
-1.24327e-06
-5.30013e-07
-3.24222e-06
-9.73753e-07
-4.70924e-06
-1.39618e-06
-5.67566e-06
-1.73758e-06
-6.21577e-06
-1.9713e-06
-6.41771e-06
-2.09415e-06
-6.36739e-06
-2.11696e-06
-6.13994e-06
-2.05735e-06
-5.79636e-06
-1.93483e-06
-5.38356e-06
-1.76793e-06
-4.93603e-06
-1.57283e-06
-4.47814e-06
-1.36284e-06
-4.02637e-06
-1.14847e-06
-3.59125e-06
-9.3771e-07
-3.17897e-06
-7.36464e-07
-2.79259e-06
-5.48938e-07
-2.433e-06
-3.78047e-07
-2.0995e-06
-2.25736e-07
-1.79039e-06
-9.32618e-08
-1.50324e-06
1.85895e-08
-1.23513e-06
1.09324e-07
-9.82831e-07
1.78608e-07
-7.42914e-07
2.26167e-07
-5.11793e-07
2.51713e-07
-2.85781e-07
2.54907e-07
-6.11059e-08
2.35329e-07
1.66074e-07
1.9249e-07
3.99668e-07
1.25859e-07
6.43646e-07
3.49207e-08
9.02024e-07
-8.07234e-08
1.17883e-06
-2.21221e-07
1.47807e-06
-3.8627e-07
1.80358e-06
-5.74859e-07
2.15894e-06
-7.84923e-07
2.54714e-06
-1.01291e-06
2.97025e-06
-1.25325e-06
3.42882e-06
-1.49774e-06
3.92105e-06
-1.73491e-06
4.44161e-06
-1.94945e-06
4.98006e-06
-2.12195e-06
5.51875e-06
-2.22926e-06
6.03022e-06
-2.24607e-06
6.47432e-06
-2.14837e-06
6.79534e-06
-1.91957e-06
6.92017e-06
-1.55976e-06
6.75896e-06
-1.09755e-06
6.21043e-06
-6.01636e-07
5.17384e-06
-1.8643e-07
3.56914e-06
1.36923e-06
-1.37201e-07
-1.10607e-06
-4.61136e-07
-2.91829e-06
-8.76547e-07
-4.29383e-06
-1.30352e-06
-5.24868e-06
-1.6869e-06
-5.83239e-06
-1.99555e-06
-6.10905e-06
-2.21752e-06
-6.14542e-06
-2.35405e-06
-6.00342e-06
-2.41422e-06
-5.73618e-06
-2.41093e-06
-5.38685e-06
-2.35806e-06
-4.9889e-06
-2.26887e-06
-4.56733e-06
-2.15511e-06
-4.14013e-06
-2.02667e-06
-3.71968e-06
-1.89161e-06
-3.31403e-06
-1.75627e-06
-2.92794e-06
-1.62553e-06
-2.56374e-06
-1.50306e-06
-2.22197e-06
-1.39159e-06
-1.90187e-06
-1.29309e-06
-1.60173e-06
-1.20902e-06
-1.3192e-06
-1.1404e-06
-1.05145e-06
-1.08803e-06
-7.95287e-07
-1.0525e-06
-5.4732e-07
-1.03432e-06
-3.03964e-07
-1.03391e-06
-6.15151e-08
-1.05165e-06
1.83817e-07
-1.08787e-06
4.35882e-07
-1.14277e-06
6.9855e-07
-1.21642e-06
9.75673e-07
-1.3086e-06
1.27102e-06
-1.41869e-06
1.58816e-06
-1.54547e-06
1.93036e-06
-1.68686e-06
2.30032e-06
-1.83963e-06
2.69991e-06
-1.99905e-06
3.12967e-06
-2.15849e-06
3.58826e-06
-2.309e-06
4.07155e-06
-2.43899e-06
4.5716e-06
-2.5341e-06
5.07518e-06
-2.5775e-06
5.56214e-06
-2.55077e-06
6.00349e-06
-2.43602e-06
6.35958e-06
-2.2194e-06
6.57872e-06
-1.89637e-06
6.59713e-06
-1.4786e-06
6.34119e-06
-1.00154e-06
5.73336e-06
-5.3008e-07
4.70238e-06
-1.58754e-07
3.19781e-06
1.21048e-06
-1.18742e-07
-9.87323e-07
-4.09184e-07
-2.62785e-06
-7.98174e-07
-3.90484e-06
-1.22065e-06
-4.8262e-06
-1.6275e-06
-5.42554e-06
-1.98681e-06
-5.74975e-06
-2.28173e-06
-5.8505e-06
-2.50696e-06
-5.77818e-06
-2.66503e-06
-5.57812e-06
-2.7631e-06
-5.28878e-06
-2.81061e-06
-4.94139e-06
-2.8176e-06
-4.56035e-06
-2.7937e-06
-4.16403e-06
-2.74758e-06
-3.7658e-06
-2.68672e-06
-3.37489e-06
-2.61733e-06
-2.99733e-06
-2.54448e-06
-2.63659e-06
-2.4722e-06
-2.29424e-06
-2.40368e-06
-1.97039e-06
-2.34135e-06
-1.66406e-06
-2.28711e-06
-1.37344e-06
-2.24242e-06
-1.09614e-06
-2.20837e-06
-8.29337e-07
-2.18581e-06
-5.69875e-07
-2.17539e-06
-3.1438e-07
-2.17759e-06
-5.93187e-08
-2.19271e-06
1.9894e-07
-2.2209e-06
4.6407e-07
-2.26208e-06
7.39729e-07
-2.31589e-06
1.02948e-06
-2.3816e-06
1.33672e-06
-2.45793e-06
1.6645e-06
-2.54296e-06
2.01539e-06
-2.63384e-06
2.3912e-06
-2.7266e-06
2.79267e-06
-2.81587e-06
3.21894e-06
-2.89463e-06
3.66702e-06
-2.95403e-06
4.13095e-06
-2.98331e-06
4.60088e-06
-2.97e-06
5.06187e-06
-2.90057e-06
5.4927e-06
-2.76163e-06
5.86455e-06
-2.5421e-06
6.14006e-06
-2.23637e-06
6.273e-06
-1.84848e-06
6.20924e-06
-1.39694e-06
5.88965e-06
-9.19141e-07
5.25557e-06
-4.73708e-07
4.25695e-06
-1.38302e-07
2.86241e-06
1.07218e-06
-1.05252e-07
-8.82071e-07
-3.69637e-07
-2.36346e-06
-7.35522e-07
-3.53895e-06
-1.1495e-06
-4.41223e-06
-1.56849e-06
-5.00655e-06
-1.96169e-06
-5.35655e-06
-2.30991e-06
-5.50228e-06
-2.60364e-06
-5.48446e-06
-2.84056e-06
-5.34119e-06
-3.02325e-06
-5.10609e-06
-3.15718e-06
-4.80745e-06
-3.24929e-06
-4.46824e-06
-3.3069e-06
-4.10642e-06
-3.33712e-06
-3.73558e-06
-3.34644e-06
-3.36557e-06
-3.34057e-06
-3.0032e-06
-3.32437e-06
-2.65279e-06
-3.3019e-06
-2.31671e-06
-3.27648e-06
-1.99581e-06
-3.25082e-06
-1.68972e-06
-3.22706e-06
-1.3972e-06
-3.2069e-06
-1.11631e-06
-3.19164e-06
-8.44591e-07
-3.1823e-06
-5.79218e-07
-3.17959e-06
-3.17086e-07
-3.184e-06
-5.49131e-08
-3.19575e-06
2.10686e-07
-3.2148e-06
4.83122e-07
-3.24082e-06
7.65747e-07
-3.2731e-06
1.06176e-06
-3.31048e-06
1.3741e-06
-3.35123e-06
1.70525e-06
-3.39292e-06
2.05708e-06
-3.43225e-06
2.43053e-06
-3.46486e-06
2.82529e-06
-3.48525e-06
3.23933e-06
-3.48659e-06
3.66836e-06
-3.46073e-06
4.10509e-06
-3.39835e-06
4.5385e-06
-3.28938e-06
4.9529e-06
-3.1238e-06
5.32712e-06
-2.89296e-06
5.63371e-06
-2.59158e-06
5.83867e-06
-2.22033e-06
5.90175e-06
-1.789e-06
5.77791e-06
-1.31963e-06
5.42027e-06
-8.48905e-07
4.78485e-06
-4.28586e-07
3.83663e-06
-1.22686e-07
2.55651e-06
9.49493e-07
-9.51955e-08
-7.86875e-07
-3.39247e-07
-2.11941e-06
-6.8557e-07
-3.19263e-06
-1.08973e-06
-4.00807e-06
-1.51408e-06
-4.58219e-06
-1.92975e-06
-4.94088e-06
-2.31676e-06
-5.11528e-06
-2.66303e-06
-5.13819e-06
-2.96286e-06
-5.04136e-06
-3.21526e-06
-4.85369e-06
-3.4224e-06
-4.60032e-06
-3.58838e-06
-4.30226e-06
-3.71831e-06
-3.97649e-06
-3.8176e-06
-3.63629e-06
-3.89155e-06
-3.29162e-06
-3.94508e-06
-2.94967e-06
-3.98258e-06
-2.61528e-06
-4.00789e-06
-2.2914e-06
-4.02427e-06
-1.97943e-06
-4.03443e-06
-1.67956e-06
-4.04061e-06
-1.39102e-06
-4.04462e-06
-1.1123e-06
-4.04786e-06
-8.41348e-07
-4.05141e-06
-5.75674e-07
-4.056e-06
-3.12497e-07
-4.06207e-06
-4.88389e-08
-4.06976e-06
2.18376e-07
-4.07887e-06
4.92232e-07
-4.08885e-06
7.75721e-07
-4.09871e-06
1.07163e-06
-4.107e-06
1.38239e-06
-4.11168e-06
1.70993e-06
-4.11004e-06
2.05544e-06
-4.09859e-06
2.41907e-06
-4.07296e-06
2.79966e-06
-4.02786e-06
3.19423e-06
-3.95708e-06
3.59757e-06
-3.85358e-06
4.0016e-06
-3.70984e-06
4.39476e-06
-3.51833e-06
4.76139e-06
-3.27242e-06
5.08121e-06
-2.96764e-06
5.32893e-06
-2.60335e-06
5.47438e-06
-2.18481e-06
5.48322e-06
-1.72541e-06
5.31851e-06
-1.24861e-06
4.94347e-06
-7.89019e-07
4.32525e-06
-3.91908e-07
3.43952e-06
-1.10436e-07
2.27504e-06
8.39057e-07
-8.75773e-08
-6.99298e-07
-3.15692e-07
-1.8913e-06
-6.45734e-07
-2.86259e-06
-1.04014e-06
-3.61367e-06
-1.4659e-06
-4.15643e-06
-1.89632e-06
-4.51047e-06
-2.31148e-06
-4.70011e-06
-2.69792e-06
-4.75175e-06
-3.04761e-06
-4.69166e-06
-3.35689e-06
-4.54441e-06
-3.62526e-06
-4.33195e-06
-3.85441e-06
-4.07311e-06
-4.04737e-06
-3.78353e-06
-4.20791e-06
-3.47574e-06
-4.34008e-06
-3.15946e-06
-4.44785e-06
-2.8419e-06
-4.53499e-06
-2.52814e-06
-4.60492e-06
-2.22147e-06
-4.66066e-06
-1.9237e-06
-4.70479e-06
-1.63543e-06
-4.73949e-06
-1.35631e-06
-4.76656e-06
-1.08523e-06
-4.7874e-06
-8.20506e-07
-4.80307e-06
-5.60001e-07
-4.81429e-06
-3.01281e-07
-4.82142e-06
-4.17066e-08
-4.8245e-06
2.21453e-07
-4.82319e-06
4.9092e-07
-4.81676e-06
7.69293e-07
-4.80405e-06
1.05892e-06
-4.78342e-06
1.36176e-06
-4.75266e-06
1.67918e-06
-4.709e-06
2.01177e-06
-4.64897e-06
2.35905e-06
-4.56846e-06
2.71915e-06
-4.4627e-06
3.08847e-06
-4.32635e-06
3.46122e-06
-4.15374e-06
3.82899e-06
-3.93923e-06
4.18025e-06
-3.67779e-06
4.49996e-06
-3.36587e-06
4.76928e-06
-3.00246e-06
4.96553e-06
-2.59055e-06
5.06247e-06
-2.13859e-06
5.03125e-06
-1.66203e-06
4.84195e-06
-1.18444e-06
4.46589e-06
-7.37832e-07
3.87864e-06
-3.61699e-07
3.06338e-06
-1.0062e-07
2.01396e-06
7.38437e-07
-8.17343e-08
-6.17564e-07
-2.973e-07
-1.67573e-06
-6.13927e-07
-2.54596e-06
-9.99314e-07
-3.22828e-06
-1.42427e-06
-3.73147e-06
-1.86422e-06
-4.07052e-06
-2.29982e-06
-4.26452e-06
-2.71688e-06
-4.33469e-06
-3.1059e-06
-4.30265e-06
-3.46123e-06
-4.18908e-06
-3.78029e-06
-4.01288e-06
-4.06276e-06
-3.79064e-06
-4.30986e-06
-3.53643e-06
-4.52384e-06
-3.26177e-06
-4.70747e-06
-2.97583e-06
-4.86379e-06
-2.68558e-06
-4.99582e-06
-2.3961e-06
-5.10648e-06
-2.11082e-06
-5.19839e-06
-1.83178e-06
-5.27392e-06
-1.5599e-06
-5.33507e-06
-1.29515e-06
-5.38354e-06
-1.03676e-06
-5.42066e-06
-7.83392e-07
-5.4474e-06
-5.33256e-07
-5.46442e-06
-2.84264e-07
-5.472e-06
-3.41294e-08
-5.47006e-06
2.19518e-07
-5.45816e-06
4.79024e-07
-5.43546e-06
7.46587e-07
-5.40067e-06
1.02413e-06
-5.35206e-06
1.31315e-06
-5.28743e-06
1.61455e-06
-5.20405e-06
1.92839e-06
-5.0987e-06
2.2537e-06
-4.9677e-06
2.58815e-06
-4.80698e-06
2.92774e-06
-4.61224e-06
3.26648e-06
-4.37925e-06
3.596e-06
-4.10424e-06
3.90524e-06
-3.7845e-06
4.18021e-06
-3.41908e-06
4.40387e-06
-3.00984e-06
4.55628e-06
-2.56242e-06
4.61505e-06
-2.08742e-06
4.55626e-06
-1.60133e-06
4.35587e-06
-1.1271e-06
3.99165e-06
-6.93985e-07
3.44553e-06
-3.36566e-07
2.70596e-06
-9.26296e-08
1.77002e-06
6.45807e-07
-7.72114e-08
-5.40352e-07
-2.82861e-07
-1.47008e-06
-5.88505e-07
-2.24032e-06
-9.65877e-07
-2.85091e-06
-1.38889e-06
-3.30845e-06
-1.83489e-06
-3.62452e-06
-2.28528e-06
-3.81412e-06
-2.72566e-06
-3.89431e-06
-3.14555e-06
-3.88276e-06
-3.53792e-06
-3.79671e-06
-3.89858e-06
-3.65223e-06
-4.22555e-06
-3.46367e-06
-4.51854e-06
-3.24343e-06
-4.77842e-06
-3.0019e-06
-5.00681e-06
-2.74744e-06
-5.20579e-06
-2.4866e-06
-5.37765e-06
-2.22424e-06
-5.5247e-06
-1.96377e-06
-5.64915e-06
-1.70733e-06
-5.75304e-06
-1.45601e-06
-5.83816e-06
-1.21004e-06
-5.90601e-06
-9.68918e-07
-5.95778e-06
-7.31617e-07
-5.99436e-06
-4.96676e-07
-6.01629e-06
-2.62339e-07
-6.02375e-06
-2.66676e-08
-6.01658e-06
2.1235e-07
-5.99424e-06
4.56687e-07
-5.95582e-06
7.08158e-07
-5.89998e-06
9.6829e-07
-5.825e-06
1.23817e-06
-5.72875e-06
1.5183e-06
-5.60871e-06
1.80835e-06
-5.46202e-06
2.10701e-06
-5.28555e-06
2.41167e-06
-5.07602e-06
2.71821e-06
-4.83024e-06
3.02071e-06
-4.54541e-06
3.31117e-06
-4.2195e-06
3.57933e-06
-3.85181e-06
3.81252e-06
-3.44362e-06
3.99569e-06
-2.99899e-06
4.11165e-06
-2.52553e-06
4.14159e-06
-2.03518e-06
4.06591e-06
-1.5448e-06
3.86548e-06
-1.07631e-06
3.52317e-06
-6.5642e-07
3.02564e-06
-3.15529e-07
2.36507e-06
-8.60569e-08
1.54055e-06
5.5975e-07
-7.36899e-08
-4.66663e-07
-2.7149e-07
-1.27228e-06
-5.68194e-07
-1.94362e-06
-9.38633e-07
-2.48047e-06
-1.35921e-06
-2.88787e-06
-1.80894e-06
-3.17479e-06
-2.27003e-06
-3.35304e-06
-2.72811e-06
-3.43624e-06
-3.17213e-06
-3.43874e-06
-3.59408e-06
-3.37476e-06
-3.98854e-06
-3.25776e-06
-4.35226e-06
-3.09995e-06
-4.68365e-06
-2.91205e-06
-4.98239e-06
-2.70315e-06
-5.24908e-06
-2.48075e-06
-5.4849e-06
-2.25077e-06
-5.69142e-06
-2.01772e-06
-5.87036e-06
-1.78483e-06
-6.02348e-06
-1.55421e-06
-6.15245e-06
-1.32704e-06
-6.25879e-06
-1.1037e-06
-6.34378e-06
-8.8393e-07
-6.40845e-06
-6.66944e-07
-6.45354e-06
-4.51581e-07
-6.47949e-06
-2.36397e-07
-6.48637e-06
-1.97866e-08
-6.47394e-06
1.9992e-07
-6.44159e-06
4.24342e-07
-6.38837e-06
6.54939e-07
-6.31297e-06
8.92884e-07
-6.21372e-06
1.13893e-06
-6.08866e-06
1.39324e-06
-5.93554e-06
1.65524e-06
-5.75193e-06
1.9234e-06
-5.53532e-06
2.19506e-06
-5.28328e-06
2.46617e-06
-4.99369e-06
2.73112e-06
-4.66507e-06
2.98255e-06
-4.29696e-06
3.21121e-06
-3.89038e-06
3.40594e-06
-3.44843e-06
3.55373e-06
-2.97685e-06
3.64007e-06
-2.48463e-06
3.64937e-06
-1.98452e-06
3.5658e-06
-1.49331e-06
3.37426e-06
-1.03179e-06
3.06165e-06
-6.24335e-07
2.61818e-06
-2.97893e-07
2.03863e-06
-8.06242e-08
1.32328e-06
4.79126e-07
-7.09433e-08
-3.95719e-07
-2.62539e-07
-1.08069e-06
-5.52018e-07
-1.65414e-06
-9.16587e-07
-2.1159e-06
-1.33463e-06
-2.46983e-06
-1.78656e-06
-2.72286e-06
-2.25535e-06
-2.88424e-06
-2.72681e-06
-2.96478e-06
-3.18958e-06
-2.97597e-06
-3.63495e-06
-2.92939e-06
-4.05662e-06
-2.83609e-06
-4.4503e-06
-2.70627e-06
-4.81336e-06
-2.54899e-06
-5.1445e-06
-2.37202e-06
-5.4434e-06
-2.18185e-06
-5.71046e-06
-1.98371e-06
-5.94657e-06
-1.78161e-06
-6.1529e-06
-1.5785e-06
-6.33074e-06
-1.37637e-06
-6.4814e-06
-1.17638e-06
-6.6061e-06
-9.79002e-07
-6.7059e-06
-7.84127e-07
-6.78165e-06
-5.91195e-07
-6.83394e-06
-3.99295e-07
-6.86306e-06
-2.07274e-07
-6.86902e-06
-1.3829e-08
-6.85149e-06
1.82388e-07
-6.80982e-06
3.82676e-07
-6.74306e-06
5.88175e-07
-6.64993e-06
7.99757e-07
-6.5289e-06
1.0179e-06
-6.3782e-06
1.24254e-06
-6.19592e-06
1.47295e-06
-5.98008e-06
1.70756e-06
-5.72879e-06
1.94377e-06
-5.44043e-06
2.17782e-06
-5.11391e-06
2.4046e-06
-4.74894e-06
2.61757e-06
-4.34638e-06
2.80866e-06
-3.90872e-06
2.96828e-06
-3.44047e-06
3.08548e-06
-2.94865e-06
3.14825e-06
-2.44321e-06
3.14393e-06
-1.93731e-06
3.0599e-06
-1.44744e-06
2.8844e-06
-9.93273e-07
2.60748e-06
-5.97135e-07
2.22204e-06
-2.83163e-07
1.72466e-06
-7.61389e-08
1.11626e-06
4.02987e-07
-6.8809e-08
-3.2691e-07
-2.55532e-07
-8.93963e-07
-5.39234e-07
-1.37043e-06
-8.98938e-07
-1.7562e-06
-1.31458e-06
-2.05418e-06
-1.76773e-06
-2.26971e-06
-2.24203e-06
-2.40994e-06
-2.72353e-06
-2.48327e-06
-3.20072e-06
-2.49879e-06
-3.66444e-06
-2.46567e-06
-4.10769e-06
-2.39283e-06
-4.52542e-06
-2.28854e-06
-4.91418e-06
-2.16023e-06
-5.27183e-06
-2.01437e-06
-5.5973e-06
-1.85638e-06
-5.8903e-06
-1.6907e-06
-6.15113e-06
-1.52079e-06
-6.38043e-06
-1.3492e-06
-6.57908e-06
-1.17772e-06
-6.74804e-06
-1.00742e-06
-6.88825e-06
-8.38793e-07
-7.00054e-06
-6.71842e-07
-7.08556e-06
-5.06173e-07
-7.14375e-06
-3.41098e-07
-7.17531e-06
-1.75715e-07
-7.18014e-06
-9.0012e-09
-7.15786e-06
1.60103e-07
-7.10779e-06
3.32608e-07
-7.02899e-06
5.09378e-07
-6.92027e-06
6.91036e-07
-6.78023e-06
8.77855e-07
-6.60733e-06
1.06964e-06
-6.39998e-06
1.26561e-06
-6.15667e-06
1.46425e-06
-5.87612e-06
1.66321e-06
-5.55744e-06
1.85914e-06
-5.20044e-06
2.0476e-06
-4.80585e-06
2.22299e-06
-4.37569e-06
2.3785e-06
-3.91359e-06
2.50618e-06
-3.42517e-06
2.59707e-06
-2.91841e-06
2.64149e-06
-2.40387e-06
2.62939e-06
-1.89489e-06
2.55092e-06
-1.40757e-06
2.39708e-06
-9.60535e-07
2.16045e-06
-5.74389e-07
1.8359e-06
-2.70992e-07
1.42126e-06
-7.24668e-08
9.17731e-07
3.3052e-07
-6.717e-08
-2.5974e-07
-2.50119e-07
-7.11014e-07
-5.29283e-07
-1.09127e-06
-8.85057e-07
-1.40042e-06
-1.29858e-06
-1.64066e-06
-1.75232e-06
-1.81597e-06
-2.23052e-06
-1.93174e-06
-2.71947e-06
-1.99433e-06
-3.20758e-06
-2.01067e-06
-3.68541e-06
-1.98785e-06
-4.14547e-06
-1.93277e-06
-4.58211e-06
-1.8519e-06
-4.99123e-06
-1.75111e-06
-5.37005e-06
-1.63554e-06
-5.71688e-06
-1.50955e-06
-6.03086e-06
-1.37673e-06
-6.31176e-06
-1.23989e-06
-6.5598e-06
-1.10116e-06
-6.77547e-06
-9.62044e-07
-6.95942e-06
-8.23464e-07
-7.11234e-06
-6.85882e-07
-7.23482e-06
-5.49355e-07
-7.32737e-06
-4.13624e-07
-7.39029e-06
-2.78184e-07
-7.42364e-06
-1.42357e-07
-7.42727e-06
-5.37069e-09
-7.40075e-06
1.33579e-07
-7.34339e-06
2.75247e-07
-7.25428e-06
4.20266e-07
-7.1323e-06
5.69062e-07
-6.97621e-06
7.21767e-07
-6.7847e-06
8.78126e-07
-6.55649e-06
1.0374e-06
-6.29049e-06
1.19825e-06
-5.98594e-06
1.35866e-06
-5.64263e-06
1.51583e-06
-5.26112e-06
1.66609e-06
-4.84302e-06
1.80488e-06
-4.39123e-06
1.92671e-06
-3.91032e-06
2.02527e-06
-3.40676e-06
2.09351e-06
-2.88918e-06
2.12391e-06
-2.36855e-06
2.10876e-06
-1.85826e-06
2.04063e-06
-1.37398e-06
1.91281e-06
-9.33421e-07
1.71988e-06
-5.55787e-07
1.45826e-06
-2.61131e-07
1.12661e-06
-6.95137e-08
7.26114e-07
2.61007e-07
-6.59424e-08
-1.93798e-07
-2.46046e-07
-5.30911e-07
-5.2175e-07
-8.15564e-07
-8.74463e-07
-1.04771e-06
-1.28622e-06
-1.22891e-06
-1.7402e-06
-1.36199e-06
-2.2211e-06
-1.45083e-06
-2.71544e-06
-1.49999e-06
-3.21162e-06
-1.51449e-06
-3.69998e-06
-1.49949e-06
-4.17273e-06
-1.46002e-06
-4.62376e-06
-1.40088e-06
-5.04848e-06
-1.32639e-06
-5.44363e-06
-1.24039e-06
-5.80702e-06
-1.14617e-06
-6.13732e-06
-1.04642e-06
-6.43391e-06
-9.43297e-07
-6.69664e-06
-8.38437e-07
-6.92569e-06
-7.32996e-07
-7.12143e-06
-6.27717e-07
-7.28434e-06
-5.2298e-07
-7.41483e-06
-4.18864e-07
-7.51325e-06
-3.15205e-07
-7.57978e-06
-2.11652e-07
-7.61441e-06
-1.07727e-07
-7.6169e-06
-2.87484e-09
-7.5868e-06
1.03477e-07
-7.52342e-06
2.11865e-07
-7.42588e-06
3.22724e-07
-7.29315e-06
4.3633e-07
-7.12411e-06
5.52731e-07
-6.91766e-06
6.71676e-07
-6.67281e-06
7.92542e-07
-6.38881e-06
9.14256e-07
-6.06537e-06
1.03523e-06
-5.70282e-06
1.15328e-06
-5.30233e-06
1.26561e-06
-4.86619e-06
1.36873e-06
-4.39803e-06
1.45855e-06
-3.90309e-06
1.53033e-06
-3.38848e-06
1.57889e-06
-2.86328e-06
1.59871e-06
-2.33873e-06
1.58421e-06
-1.82816e-06
1.53006e-06
-1.34688e-06
1.43152e-06
-9.11824e-07
1.28483e-06
-5.41111e-07
1.08755e-06
-2.53407e-07
8.38902e-07
-6.72141e-08
5.39921e-07
1.93793e-07
-6.50671e-08
-1.28731e-07
-2.43131e-07
-3.52847e-07
-5.16336e-07
-5.42359e-07
-8.66802e-07
-6.97244e-07
-1.2772e-06
-8.18505e-07
-1.73123e-06
-9.07968e-07
-2.21394e-06
-9.6812e-07
-2.712e-06
-1.00193e-06
-3.21385e-06
-1.01265e-06
-3.7097e-06
-1.00363e-06
-4.19152e-06
-9.78201e-07
-4.65291e-06
-9.39486e-07
-5.08894e-06
-8.90358e-07
-5.49597e-06
-8.33364e-07
-5.87145e-06
-7.70686e-07
-6.21374e-06
-7.04138e-07
-6.52186e-06
-6.35169e-07
-6.79542e-06
-5.64884e-07
-7.03434e-06
-4.94076e-07
-7.2388e-06
-4.23257e-07
-7.40908e-06
-3.52699e-07
-7.54547e-06
-2.82472e-07
-7.64819e-06
-2.12482e-07
-7.71734e-06
-1.42508e-07
-7.75282e-06
-7.22454e-08
-7.75436e-06
-1.33732e-09
-7.72146e-06
7.05835e-08
-7.65345e-06
1.43858e-07
-7.54949e-06
2.18758e-07
-7.40861e-06
2.95447e-07
-7.22981e-06
3.73931e-07
-7.01214e-06
4.54013e-07
-6.75485e-06
5.35246e-07
-6.45747e-06
6.1688e-07
-6.12006e-06
6.97819e-07
-5.74336e-06
7.7658e-07
-5.32902e-06
8.51261e-07
-4.87982e-06
9.19533e-07
-4.39991e-06
9.78646e-07
-3.89505e-06
1.02547e-06
-3.37276e-06
1.05659e-06
-2.84244e-06
1.06839e-06
-2.31548e-06
1.05725e-06
-1.80514e-06
1.01973e-06
-1.32642e-06
9.52797e-07
-8.95673e-07
8.54081e-07
-5.30213e-07
7.22088e-07
-2.47703e-07
5.56392e-07
-6.55229e-08
3.57741e-07
1.2827e-07
-6.45041e-08
-6.42268e-08
-2.41252e-07
-1.76099e-07
-5.12834e-07
-2.70778e-07
-8.61825e-07
-3.48253e-07
-1.27131e-06
-4.09018e-07
-1.72531e-06
-4.53966e-07
-2.20912e-06
-4.84316e-07
-2.70952e-06
-5.01525e-07
-3.21497e-06
-5.07195e-07
-3.71562e-06
-5.02984e-07
-4.20329e-06
-4.9053e-07
-4.67139e-06
-4.71387e-07
-5.11477e-06
-4.46985e-07
-5.52954e-06
-4.18591e-07
-5.91293e-06
-3.87296e-07
-6.26306e-06
-3.54011e-07
-6.57876e-06
-3.19462e-07
-6.85944e-06
-2.84209e-07
-7.10486e-06
-2.48653e-07
-7.31506e-06
-2.13055e-07
-7.4902e-06
-1.77558e-07
-7.63048e-06
-1.422e-07
-7.73602e-06
-1.0694e-07
-7.80685e-06
-7.16723e-08
-7.84285e-06
-3.62473e-08
-7.8437e-06
-4.91281e-10
-7.80889e-06
3.57748e-08
-7.73775e-06
7.27166e-08
-7.62945e-06
1.10465e-07
-7.4831e-06
1.49093e-07
-7.29777e-06
1.88598e-07
-7.07263e-06
2.28873e-07
-6.80706e-06
2.69683e-07
-6.50083e-06
3.10643e-07