/*--------------------------------*- C++ -*----------------------------------*\
  =========                 |
  \\      /  F ield         | OpenFOAM: The Open Source CFD Toolbox
   \\    /   O peration     | Website:  https://openfoam.org
    \\  /    A nd           | Version:  7
     \\/     M anipulation  |
\*---------------------------------------------------------------------------*/
FoamFile
{
    version     2.0;
    format      ascii;
    class       surfaceScalarField;
    location    "0.0762";
    object      phi;
}
// * * * * * * * * * * * * * * * * * * * * * * * * * * * * * * * * * * * * * //

dimensions      [0 3 -1 0 0 0 0];

internalField   nonuniform List<scalar> 
4900
(
5.45461e-06
-5.45462e-06
9.95309e-06
-4.49848e-06
1.26939e-05
-2.7408e-06
1.44122e-05
-1.71833e-06
1.55285e-05
-1.11633e-06
1.62819e-05
-7.53317e-07
1.68131e-05
-5.31269e-07
1.72039e-05
-3.90759e-07
1.75014e-05
-2.9747e-07
1.77338e-05
-2.32461e-07
1.7919e-05
-1.85205e-07
1.80687e-05
-1.4964e-07
1.81908e-05
-1.22115e-07
1.82911e-05
-1.00334e-07
1.83739e-05
-8.27824e-08
1.84423e-05
-6.84229e-08
1.84988e-05
-5.65165e-08
1.85454e-05
-4.65199e-08
1.85834e-05
-3.80212e-08
1.86141e-05
-3.07001e-08
1.86384e-05
-2.42997e-08
1.8657e-05
-1.8609e-08
1.86704e-05
-1.34494e-08
1.86791e-05
-8.66501e-09
1.86832e-05
-4.11536e-09
1.86829e-05
3.33475e-10
1.86781e-05
4.80457e-09
1.86686e-05
9.43216e-09
1.86543e-05
1.43508e-08
1.86346e-05
1.97107e-08
1.86089e-05
2.56828e-08
1.85764e-05
3.24692e-08
1.85361e-05
4.03166e-08
1.84866e-05
4.9535e-08
1.84261e-05
6.05256e-08
1.83522e-05
7.38222e-08
1.82621e-05
9.01544e-08
1.81515e-05
1.10551e-07
1.8015e-05
1.36512e-07
1.78447e-05
1.70312e-07
1.76292e-05
2.15552e-07
1.73509e-05
2.78224e-07
1.69821e-05
3.68791e-07
1.64758e-05
5.06334e-07
1.57496e-05
7.26223e-07
1.46576e-05
1.09201e-06
1.29452e-05
1.71242e-06
1.0162e-05
2.7832e-06
5.55723e-06
4.60473e-06
5.55723e-06
-1.19319e-07
-5.3353e-06
1.83181e-06
-6.44961e-06
4.41348e-06
-5.32247e-06
6.72992e-06
-4.03477e-06
8.61079e-06
-2.9972e-06
1.00945e-05
-2.23705e-06
1.12608e-05
-1.69754e-06
1.21837e-05
-1.31363e-06
1.29216e-05
-1.03537e-06
1.3518e-05
-8.2891e-07
1.40049e-05
-6.72063e-07
1.44055e-05
-5.50267e-07
1.47372e-05
-4.53842e-07
1.50131e-05
-3.76214e-07
1.52431e-05
-3.12805e-07
1.5435e-05
-2.6034e-07
1.55949e-05
-2.16418e-07
1.57277e-05
-1.79227e-07
1.5837e-05
-1.47371e-07
1.59261e-05
-1.19744e-07
1.59972e-05
-9.54497e-08
1.60523e-05
-7.37405e-08
1.60929e-05
-5.39784e-08
1.61198e-05
-3.5601e-08
1.61338e-05
-1.80967e-08
1.61351e-05
-9.86352e-10
1.61237e-05
1.62033e-08
1.60992e-05
3.39446e-08
1.60608e-05
5.27399e-08
1.60074e-05
7.31377e-08
1.59373e-05
9.57601e-08
1.58484e-05
1.21336e-07
1.5738e-05
1.50749e-07
1.56024e-05
1.85094e-07
1.54372e-05
2.25771e-07
1.52364e-05
2.74612e-07
1.49925e-05
3.34071e-07
1.46955e-05
4.07516e-07
1.43323e-05
4.99687e-07
1.38852e-05
6.17429e-07
1.33299e-05
7.70875e-07
1.26327e-05
9.75383e-07
1.17469e-05
1.25462e-06
1.06081e-05
1.64518e-06
9.13214e-06
2.20216e-06
7.22464e-06
2.9995e-06
4.83162e-06
4.10544e-06
2.12103e-06
5.49379e-06
1.072e-08
6.71504e-06
5.56795e-06
-1.08241e-06
-4.25289e-06
-7.53908e-07
-6.77811e-06
5.90056e-07
-6.66643e-06
2.30299e-06
-5.74771e-06
4.01518e-06
-4.70939e-06
5.56796e-06
-3.78984e-06
6.9141e-06
-3.04367e-06
8.0571e-06
-2.45663e-06
9.01947e-06
-1.99774e-06
9.82792e-06
-1.63736e-06
1.05074e-05
-1.35157e-06
1.10794e-05
-1.12228e-06
1.15617e-05
-9.3613e-07
1.19688e-05
-7.83267e-07
1.23124e-05
-6.56396e-07
1.26021e-05
-5.50035e-07
1.28457e-05
-4.59997e-07
1.30495e-05
-3.83031e-07
1.32186e-05
-3.16555e-07
1.33574e-05
-2.58485e-07
1.3469e-05
-2.07094e-07
1.35562e-05
-1.60922e-07
1.36209e-05
-1.18702e-07
1.36646e-05
-7.93046e-08
1.36882e-05
-4.16936e-08
1.36921e-05
-4.8878e-09
1.36763e-05
3.20798e-08
1.364e-05
7.01835e-08
1.35823e-05
1.10453e-07
1.35014e-05
1.5401e-07
1.33951e-05
2.02115e-07
1.32602e-05
2.56234e-07
1.30928e-05
3.18115e-07
1.2888e-05
3.899e-07
1.26395e-05
4.7427e-07
1.23395e-05
5.74655e-07
1.1978e-05
6.95525e-07
1.15427e-05
8.42811e-07
1.10179e-05
1.0245e-06
1.03839e-05
1.25147e-06
9.61606e-06
1.53868e-06
8.68481e-06
1.90664e-06
7.55655e-06
2.38287e-06
6.19943e-06
3.0023e-06
4.59873e-06
3.80286e-06
2.79214e-06
4.8061e-06
9.38365e-07
5.95922e-06
-5.70489e-07
7.00264e-06
-1.03811e-06
7.18267e-06
4.52983e-06
-9.12947e-07
-3.33994e-06
-1.34111e-06
-6.34995e-06
-9.35765e-07
-7.07178e-06
2.3233e-08
-6.70671e-06
1.24212e-06
-5.92828e-06
2.52137e-06
-5.06909e-06
3.74817e-06
-4.27047e-06
4.86979e-06
-3.57824e-06
5.86832e-06
-2.99628e-06
6.74387e-06
-2.51291e-06
7.5048e-06
-2.11251e-06
8.16257e-06
-1.78005e-06
8.7291e-06
-1.50267e-06
9.21567e-06
-1.26983e-06
9.63235e-06
-1.07308e-06
9.98796e-06
-9.05649e-07
1.02901e-05
-7.62121e-07
1.05451e-05
-6.38096e-07
1.07586e-05
-5.29971e-07
1.09348e-05
-4.34742e-07
1.10776e-05
-3.49864e-07
1.11898e-05
-2.73137e-07
1.12737e-05
-2.02616e-07
1.1331e-05
-1.36543e-07
1.13626e-05
-7.32846e-08
1.13689e-05
-1.12776e-08
1.135e-05
5.10197e-08
1.1305e-05
1.15172e-07
1.12326e-05
1.82823e-07
1.11309e-05
2.55755e-07
1.09971e-05
3.35955e-07
1.08276e-05
4.25699e-07
1.0618e-05
5.2766e-07
1.03629e-05
6.45048e-07
1.00554e-05
7.81784e-07
9.6873e-06
9.42739e-07
9.24878e-06
1.13404e-06
8.72813e-06
1.36346e-06
8.11172e-06
1.64091e-06
7.38424e-06
1.97894e-06
6.52968e-06
2.39325e-06
5.53372e-06
2.90259e-06
4.38917e-06
3.52742e-06
3.10657e-06
4.2849e-06
1.7335e-06
5.17592e-06
3.84777e-07
6.15482e-06
-7.23817e-07
7.06781e-06
-1.26538e-06
7.5442e-06
-9.1578e-07
6.83307e-06
3.61405e-06
-6.64606e-07
-2.67534e-06
-1.29658e-06
-5.71798e-06
-1.41664e-06
-6.95172e-06
-1.03995e-06
-7.08339e-06
-3.21039e-07
-6.64719e-06
5.82549e-07
-5.97268e-06
1.55254e-06
-5.24046e-06
2.513e-06
-4.5387e-06
3.42068e-06
-3.90396e-06
4.25416e-06
-3.34639e-06
5.00538e-06
-2.86372e-06
5.67394e-06
-2.44861e-06
6.26356e-06
-2.09229e-06
6.77988e-06
-1.78615e-06
7.22924e-06
-1.52244e-06
7.61798e-06
-1.29438e-06
7.95204e-06
-1.09619e-06
8.23684e-06
-9.22899e-07
8.47715e-06
-7.70277e-07
8.67706e-06
-6.34655e-07
8.84003e-06
-5.12832e-07
8.96886e-06
-4.01965e-07
9.06573e-06
-2.9949e-07
9.13223e-06
-2.03042e-07
9.16934e-06
-1.10396e-07
9.17747e-06
-1.93996e-08
9.15641e-06
7.20789e-08
9.10537e-06
1.66211e-07
9.02292e-06
2.6527e-07
8.90697e-06
3.71703e-07
8.75472e-06
4.88204e-07
8.56261e-06
6.17816e-07
8.32623e-06
7.6404e-07
8.0403e-06
9.30973e-07
7.69861e-06
1.12348e-06
7.29397e-06
1.34737e-06
6.81835e-06
1.60966e-06
6.26308e-06
1.91874e-06
5.61945e-06
2.28454e-06
4.87992e-06
2.71847e-06
4.04031e-06
3.23286e-06
3.10374e-06
3.83916e-06
2.08722e-06
4.54394e-06
1.03177e-06
5.34035e-06
1.60938e-08
6.1916e-06
-8.30516e-07
7.00143e-06
-1.32824e-06
7.56554e-06
-1.29242e-06
7.50838e-06
-6.84814e-07
6.22546e-06
2.92924e-06
-4.70542e-07
-2.2048e-06
-1.0988e-06
-5.08972e-06
-1.46615e-06
-6.58437e-06
-1.46601e-06
-7.08354e-06
-1.14416e-06
-6.96903e-06
-5.95612e-07
-6.52122e-06
8.59439e-08
-5.92202e-06
8.26622e-07
-5.27938e-06
1.57476e-06
-4.6521e-06
2.29726e-06
-4.06889e-06
2.9747e-06
-3.54116e-06
3.597e-06
-3.07091e-06
4.16013e-06
-2.65542e-06
4.66382e-06
-2.28984e-06
5.10999e-06
-1.9686e-06
5.5017e-06
-1.68609e-06
5.84254e-06
-1.43703e-06
6.13619e-06
-1.21655e-06
6.38617e-06
-1.02026e-06
6.5957e-06
-8.44186e-07
6.76759e-06
-6.84717e-07
6.90418e-06
-5.38552e-07
7.00732e-06
-4.02634e-07
7.07837e-06
-2.74088e-07
7.11813e-06
-1.50162e-07
7.1269e-06
-2.81711e-08
7.10442e-06
9.45663e-08
7.04985e-06
2.20783e-07
6.96179e-06
3.53329e-07
6.83824e-06
4.95246e-07
6.67661e-06
6.49839e-07
6.47365e-06
8.2077e-07
6.22554e-06
1.01215e-06
5.92786e-06
1.22866e-06
5.5757e-06
1.47564e-06
5.16387e-06
1.7592e-06
4.68724e-06
2.08629e-06
4.14137e-06
2.46461e-06
3.52354e-06
2.90237e-06
2.83448e-06
3.40753e-06
2.08105e-06
3.98629e-06
1.2802e-06
4.64001e-06
4.64403e-07
5.35973e-06
-3.11756e-07
6.11651e-06
-9.66092e-07
6.84594e-06
-1.38978e-06
7.42512e-06
-1.46766e-06
7.64341e-06
-1.1353e-06
7.17603e-06
-4.96331e-07
5.58649e-06
2.43291e-06
-3.39526e-07
-1.86527e-06
-9.00773e-07
-4.52847e-06
-1.3616e-06
-6.12354e-06
-1.58063e-06
-6.8645e-06
-1.53947e-06
-7.0102e-06
-1.28017e-06
-6.78052e-06
-8.64087e-07
-6.3381e-06
-3.50307e-07
-5.79316e-06
2.12878e-07
-5.21529e-06
7.896e-07
-4.64562e-06
1.35502e-06
-4.10658e-06
1.89302e-06
-3.6089e-06
2.39388e-06
-3.15628e-06
2.85243e-06
-2.74839e-06
3.26651e-06
-2.38268e-06
3.63595e-06
-2.05553e-06
3.96178e-06
-1.76285e-06
4.24569e-06
-1.50046e-06
4.48968e-06
-1.26425e-06
4.69579e-06
-1.0503e-06
4.86593e-06
-8.5486e-07
5.00179e-06
-6.74403e-07
5.1047e-06
-5.05546e-07
5.17565e-06
-3.45039e-07
5.2152e-06
-1.89718e-07
5.22349e-06
-3.64579e-08
5.20018e-06
1.17879e-07
5.14447e-06
2.76493e-07
5.05509e-06
4.42712e-07
4.93029e-06
6.20043e-07
4.76788e-06
8.12243e-07
4.56527e-06
1.02338e-06
4.31951e-06
1.25791e-06
4.02747e-06
1.5207e-06
3.68603e-06
1.81708e-06
3.29244e-06
2.15279e-06
2.84488e-06
2.53385e-06
2.34327e-06
2.96623e-06
1.79052e-06
3.45511e-06
1.19435e-06
4.00371e-06
5.6963e-07
4.61101e-06
-5.85087e-08
5.26815e-06
-6.51387e-07
5.95261e-06
-1.15432e-06
6.61945e-06
-1.49758e-06
7.1892e-06
-1.60566e-06
7.53319e-06
-1.42228e-06
7.46004e-06
-9.58815e-07
6.71256e-06
-3.66318e-07
4.99399e-06
2.06659e-06
-2.54568e-07
-1.6107e-06
-7.39685e-07
-4.04335e-06
-1.21866e-06
-5.64457e-06
-1.55485e-06
-6.52831e-06
-1.69928e-06
-6.86577e-06
-1.65787e-06
-6.82193e-06
-1.4633e-06
-6.53267e-06
-1.15645e-06
-6.10001e-06
-7.76315e-07
-5.59542e-06
-3.5563e-07
-5.0663e-06
8.01975e-08
-4.54241e-06
5.12566e-07
-4.04127e-06
9.28537e-07
-3.57226e-06
1.31958e-06
-3.13943e-06
1.68045e-06
-2.74355e-06
2.00824e-06
-2.38333e-06
2.30169e-06
-2.0563e-06
2.56057e-06
-1.75934e-06
2.78533e-06
-1.48902e-06
2.97678e-06
-1.24174e-06
3.13583e-06
-1.01391e-06
3.2634e-06
-8.0197e-07
3.36024e-06
-6.02392e-07
3.42691e-06
-4.1171e-07
3.46368e-06
-2.26484e-07
3.4705e-06
-4.32737e-08
3.44698e-06
1.41393e-07
3.39241e-06
3.31063e-07
3.30573e-06
5.29398e-07
3.18555e-06
7.40216e-07
3.03026e-06
9.67533e-07
2.83806e-06
1.21559e-06
2.60709e-06
1.48887e-06
2.33571e-06
1.79209e-06
2.02271e-06
2.13008e-06
1.66783e-06
2.50767e-06
1.27236e-06
2.92932e-06
8.40027e-07
3.39856e-06
3.78184e-07
3.91695e-06
-1.00706e-07
4.4826e-06
-5.77298e-07
5.0876e-06
-1.0236e-06
5.71446e-06
-1.40185e-06
6.33086e-06
-1.66522e-06
6.88281e-06
-1.7626e-06
7.28659e-06
-1.65055e-06
7.42114e-06
-1.31565e-06
7.12515e-06
-8.08366e-07
6.20527e-06
-2.80889e-07
4.46652e-06
1.7857e-06
-1.98964e-07
-1.41174e-06
-6.16793e-07
-3.62552e-06
-1.08124e-06
-5.18012e-06
-1.47409e-06
-6.13546e-06
-1.73594e-06
-6.60392e-06
-1.85134e-06
-6.70652e-06
-1.8316e-06
-6.55242e-06
-1.70095e-06
-6.23066e-06
-1.4874e-06
-5.80897e-06
-1.2176e-06
-5.33611e-06
-9.14372e-07
-4.84563e-06
-5.96052e-07
-4.35959e-06
-2.76638e-07
-3.89167e-06
3.3618e-08
-3.44969e-06
3.27505e-07
-3.03744e-06
6.00169e-07
-2.65599e-06
8.48527e-07
-2.30466e-06
1.07076e-06
-1.98158e-06
1.26595e-06
-1.6842e-06
1.43371e-06
-1.40951e-06
1.57405e-06
-1.15425e-06
1.68709e-06
-9.15015e-07
1.77302e-06
-6.88318e-07
1.83194e-06
-4.70624e-07
1.86381e-06
-2.58358e-07
1.86844e-06
-4.79027e-08
1.84542e-06
1.64415e-07
1.79414e-06
3.82344e-07
1.7138e-06
6.0973e-07
1.60349e-06
8.50529e-07
1.46221e-06
1.10882e-06
1.28903e-06
1.38877e-06
1.08325e-06
1.69465e-06
8.44674e-07
2.03066e-06
5.73924e-07
2.40083e-06
2.72932e-07
2.80866e-06
-5.44506e-08
3.25671e-06
-4.01657e-07
3.74576e-06
-7.58462e-07
4.27376e-06
-1.10993e-06
4.83406e-06
-1.43543e-06
5.4131e-06
-1.7081e-06
5.98713e-06
-1.89537e-06
6.51812e-06
-1.96159e-06
6.94903e-06
-1.87427e-06
7.19927e-06
-1.61541e-06
7.16228e-06
-1.19855e-06
6.70829e-06
-6.89696e-07
5.69642e-06
-2.24217e-07
4.00104e-06
1.56148e-06
-1.61619e-07
-1.25012e-06
-5.24865e-07
-3.26228e-06
-9.63213e-07
-4.74178e-06
-1.37893e-06
-5.71974e-06
-1.7126e-06
-6.27025e-06
-1.93783e-06
-6.4813e-06
-2.0516e-06
-6.43865e-06
-2.06492e-06
-6.21734e-06
-1.99557e-06
-5.87832e-06
-1.86317e-06
-5.4685e-06
-1.6864e-06
-5.0224e-06
-1.48155e-06
-4.56444e-06
-1.26205e-06
-4.11117e-06
-1.03853e-06
-3.67321e-06
-8.19091e-07
-3.25688e-06
-6.09732e-07
-2.86535e-06
-4.14759e-07
-2.49963e-06
-2.37172e-07
-2.15917e-06
-7.8995e-08
-1.84237e-06
5.845e-08
-1.54695e-06
1.74321e-07
-1.27012e-06
2.68081e-07
-1.00877e-06
3.39365e-07
-7.59602e-07
3.87879e-07
-5.19138e-07
4.13329e-07
-2.83809e-07
4.15381e-07
-4.99538e-08
3.93631e-07
1.86165e-07
3.47619e-07
4.28356e-07
2.76852e-07
6.80497e-07
1.80865e-07
9.46516e-07
5.93165e-08
1.23036e-06
-8.78714e-08
1.53596e-06
-2.60321e-07
1.8671e-06
-4.56938e-07
2.22728e-06
-6.75563e-07
2.61945e-06
-9.12547e-07
3.04565e-06
-1.16221e-06
3.50637e-06
-1.41624e-06
3.99979e-06
-1.66305e-06
4.52056e-06
-1.88719e-06
5.05821e-06
-2.06913e-06
5.59504e-06
-2.18557e-06
6.10358e-06
-2.21107e-06
6.54362e-06
-2.12145e-06
6.85941e-06
-1.89997e-06
6.9778e-06
-1.5466e-06
6.8089e-06
-1.08974e-06
6.25143e-06
-5.97945e-07
5.20462e-06
-1.85423e-07
3.58852e-06
1.37606e-06
-1.35806e-07
-1.11431e-06
-4.5626e-07
-2.94182e-06
-8.66623e-07
-4.33141e-06
-1.28738e-06
-5.29899e-06
-1.66366e-06
-5.89397e-06
-1.96459e-06
-6.18036e-06
-2.1784e-06
-6.22484e-06
-2.30647e-06
-6.08927e-06
-2.35803e-06
-5.82676e-06
-2.34607e-06
-5.48046e-06
-2.2846e-06
-5.08388e-06
-2.18695e-06
-4.66209e-06
-2.06498e-06
-4.23314e-06
-1.92866e-06
-3.80952e-06
-1.78615e-06
-3.39939e-06
-1.64385e-06
-3.00765e-06
-1.50673e-06
-2.63675e-06
-1.37854e-06
-2.28736e-06
-1.26205e-06
-1.95886e-06
-1.15931e-06
-1.64969e-06
-1.0718e-06
-1.35763e-06
-1.0006e-06
-1.07997e-06
-9.46522e-07
-8.13678e-07
-9.1019e-07
-5.5547e-07
-8.92108e-07
-3.01891e-07
-8.92702e-07
-4.93595e-08
-9.1234e-07
2.05803e-07
-9.51318e-07
4.67334e-07
-1.00982e-06
7.39004e-07
-1.08788e-06
1.02457e-06
-1.18521e-06
1.3277e-06
-1.30115e-06
1.6519e-06
-1.4344e-06
2.00035e-06
-1.58282e-06
2.3757e-06
-1.74311e-06
2.77974e-06
-1.91044e-06
3.21298e-06
-2.07808e-06
3.67402e-06
-2.237e-06
4.15871e-06
-2.37549e-06
4.65905e-06
-2.47909e-06
5.1618e-06
-2.53082e-06
5.64677e-06
-2.51216e-06
6.08492e-06
-2.40509e-06
6.43655e-06
-2.19561e-06
6.64993e-06
-1.87905e-06
6.66124e-06
-1.46696e-06
6.39681e-06
-9.94628e-07
5.77909e-06
-5.26815e-07
4.73681e-06
-1.57864e-07
3.21956e-06
1.2182e-06
-1.1749e-07
-9.96824e-07
-4.04835e-07
-2.65448e-06
-7.89374e-07
-3.94687e-06
-1.20642e-06
-4.88194e-06
-1.60715e-06
-5.49324e-06
-1.95987e-06
-5.82765e-06
-2.2479e-06
-5.93681e-06
-2.46608e-06
-5.87109e-06
-2.61702e-06
-5.67581e-06
-2.708e-06
-5.38948e-06
-2.74851e-06
-5.04337e-06
-2.74867e-06
-4.66193e-06
-2.71817e-06
-4.26364e-06
-2.66575e-06
-3.86194e-06
-2.59893e-06
-3.46621e-06
-2.52401e-06
-3.08257e-06
-2.44609e-06
-2.71466e-06
-2.36928e-06
-2.36418e-06
-2.29677e-06
-2.03137e-06
-2.23108e-06
-1.71539e-06
-2.17413e-06
-1.41458e-06
-2.12739e-06
-1.12671e-06
-2.092e-06
-8.49067e-07
-2.06882e-06
-5.78647e-07
-2.05851e-06
-3.12205e-07
-2.06153e-06
-4.6335e-08
-2.0782e-06
2.22472e-07
-2.10864e-06
4.97772e-07
-2.15275e-06
7.83113e-07
-2.21014e-06
1.08196e-06
-2.28004e-06
1.3976e-06
-2.36115e-06
1.73301e-06
-2.45147e-06
2.09067e-06
-2.54811e-06
2.47234e-06
-2.64703e-06
2.87866e-06
-2.74279e-06
3.30874e-06
-2.8283e-06
3.75953e-06
-2.89462e-06
4.22503e-06
-2.93091e-06
4.69534e-06
-2.9246e-06
5.15549e-06
-2.86204e-06
5.58421e-06
-2.72976e-06
5.95263e-06
-2.51656e-06
6.22335e-06
-2.21673e-06
6.3501e-06
-1.83418e-06
6.27869e-06
-1.38732e-06
5.94995e-06
-9.13431e-07
5.30521e-06
-4.71007e-07
4.29438e-06
-1.37565e-07
2.88612e-06
1.08063e-06
-1.04207e-07
-8.92616e-07
-3.66038e-07
-2.39265e-06
-7.283e-07
-3.58461e-06
-1.13791e-06
-4.47232e-06
-1.55207e-06
-5.07909e-06
-1.94013e-06
-5.43958e-06
-2.28306e-06
-5.59387e-06
-2.57145e-06
-5.5827e-06
-2.80306e-06
-5.4442e-06
-2.98053e-06
-5.21202e-06
-3.10937e-06
-4.91453e-06
-3.19655e-06
-4.57475e-06
-3.24944e-06
-4.21074e-06
-3.27519e-06
-3.8362e-06
-3.28031e-06
-3.46109e-06
-3.27054e-06
-3.09234e-06
-3.25078e-06
-2.73442e-06
-3.22512e-06
-2.38984e-06
-3.19693e-06
-2.05956e-06
-3.16891e-06
-1.7434e-06
-3.14326e-06
-1.44024e-06
-3.12167e-06
-1.14829e-06
-3.10549e-06
-8.65246e-07
-3.09573e-06
-5.88407e-07
-3.09313e-06
-3.14813e-07
-3.09815e-06
-4.13134e-08
-3.11102e-06
2.35349e-07
-3.13172e-06
5.18463e-07
-3.15987e-06
8.11266e-07
-3.19476e-06
1.11685e-06
-3.23521e-06
1.43805e-06
-3.27945e-06
1.77725e-06
-3.32502e-06
2.13624e-06
-3.36858e-06
2.51589e-06
-3.40574e-06
2.91581e-06
-3.43092e-06
3.33392e-06
-3.43726e-06
3.76586e-06
-3.41653e-06
4.2043e-06
-3.35935e-06
4.63816e-06
-3.25558e-06
5.05172e-06
-3.09511e-06
5.42374e-06
-2.86923e-06
5.72675e-06
-2.57255e-06
5.92668e-06
-2.20569e-06
5.98323e-06
-1.77833e-06
5.85133e-06
-1.31244e-06
5.48406e-06
-8.44634e-07
4.8374e-06
-4.26562e-07
3.87631e-06
-1.22132e-07
2.58169e-06
9.58498e-07
-9.44106e-08
-7.98206e-07
-3.36587e-07
-2.15047e-06
-6.80306e-07
-3.24089e-06
-1.0814e-06
-4.07123e-06
-1.50245e-06
-4.65804e-06
-1.91471e-06
-5.02733e-06
-2.2983e-06
-5.21028e-06
-2.64123e-06
-5.23977e-06
-2.93783e-06
-5.1476e-06
-3.18713e-06
-4.96272e-06
-3.39132e-06
-4.71034e-06
-3.55452e-06
-4.41155e-06
-3.68183e-06
-4.08344e-06
-3.77866e-06
-3.73936e-06
-3.85034e-06
-3.38942e-06
-3.90177e-06
-3.04091e-06
-3.93738e-06
-2.69881e-06
-3.961e-06
-2.36622e-06
-3.9759e-06
-2.04466e-06
-3.98482e-06
-1.73448e-06
-3.99e-06
-1.43506e-06
-3.99327e-06
-1.14503e-06
-3.99604e-06
-8.62479e-07
-3.99938e-06
-5.85064e-07
-4.00405e-06
-3.10141e-07
-4.0105e-06
-3.4869e-08
-4.01885e-06
2.43699e-07
-4.02891e-06
5.28523e-07
-4.04012e-06
8.22476e-07
-4.0515e-06
1.12823e-06
-4.06158e-06
1.44813e-06
-4.0683e-06
1.78398e-06
-4.06895e-06
2.13689e-06
-4.06e-06
2.50694e-06
-4.03707e-06
2.89289e-06
-3.99484e-06
3.29169e-06
-3.92706e-06
3.69808e-06
-3.82666e-06
4.10391e-06
-3.68607e-06
4.49757e-06
-3.49771e-06
4.86336e-06
-3.25491e-06
5.18094e-06
-2.95313e-06
5.42498e-06
-2.5917e-06
5.56525e-06
-2.17584e-06
5.56737e-06
-1.71886e-06
5.39436e-06
-1.24418e-06
5.00939e-06
-7.86373e-07
4.37959e-06
-3.90647e-07
3.48059e-06
-1.10088e-07
2.30113e-06
8.4841e-07
-8.70942e-08
-7.11111e-07
-3.14117e-07
-1.92345e-06
-6.42726e-07
-2.91228e-06
-1.03556e-06
-3.67839e-06
-1.45975e-06
-4.23385e-06
-1.88868e-06
-4.59839e-06
-2.30253e-06
-4.79644e-06
-2.68782e-06
-4.85448e-06
-3.03656e-06
-4.79886e-06
-3.34506e-06
-4.65422e-06
-3.6128e-06
-4.44259e-06
-3.84146e-06
-4.18289e-06
-4.03405e-06
-3.89085e-06
-4.19431e-06
-3.5791e-06
-4.32625e-06
-3.25747e-06
-4.43386e-06
-2.9333e-06
-4.52087e-06
-2.6118e-06
-4.59069e-06
-2.29639e-06
-4.64634e-06
-1.98902e-06
-4.6904e-06
-1.69042e-06
-4.72505e-06
-1.4004e-06
-4.75208e-06
-1.11799e-06
-4.77292e-06
-8.41645e-07
-4.78861e-06
-5.69371e-07
-4.79988e-06
-2.98871e-07
-4.80711e-06
-2.76411e-08
-4.81033e-06
2.4692e-07
-4.80922e-06
5.2741e-07
-4.80305e-06
8.16308e-07
-4.79067e-06
1.11585e-06
-4.77043e-06
1.42789e-06
-4.74016e-06
1.7537e-06
-4.69704e-06
2.09377e-06
-4.63765e-06
2.44754e-06
-4.55784e-06
2.81308e-06
-4.45285e-06
3.1867e-06
-4.31733e-06
3.56256e-06
-4.14559e-06
3.93217e-06
-3.93199e-06
4.28397e-06
-3.67148e-06
4.60285e-06
-3.36047e-06
4.86993e-06
-2.99797e-06
5.06247e-06
-2.58691e-06
5.15419e-06
-2.13575e-06
5.1162e-06
-1.65992e-06
4.91853e-06
-1.18299e-06
4.53246e-06
-7.36941e-07
3.93354e-06
-3.61259e-07
3.1049e-06
-1.00493e-07
2.04037e-06
7.47917e-07
-8.15816e-08
-6.2953e-07
-2.96911e-07
-1.70812e-06
-6.1338e-07
-2.59582e-06
-9.98803e-07
-3.29297e-06
-1.42406e-06
-3.80859e-06
-1.86461e-06
-4.15784e-06
-2.30111e-06
-4.35994e-06
-2.71937e-06
-4.43622e-06
-3.10983e-06
-4.4084e-06
-3.46682e-06
-4.29723e-06
-3.7877e-06
-4.12171e-06
-4.07209e-06
-3.89851e-06
-4.32116e-06
-3.64178e-06
-4.53709e-06
-3.36317e-06
-4.72263e-06
-3.07193e-06
-4.88076e-06
-2.77517e-06
-5.01448e-06
-2.47808e-06
-5.12666e-06
-2.18422e-06
-5.2199e-06
-1.89577e-06
-5.29656e-06
-1.61377e-06
-5.35863e-06
-1.33833e-06
-5.40779e-06
-1.06883e-06
-5.44537e-06
-8.0407e-07
-5.47235e-06
-5.42391e-07
-5.48938e-06
-2.81841e-07
-5.49676e-06
-2.02647e-08
-5.49442e-06
2.44582e-07
-5.48193e-06
5.14921e-07
-5.45846e-06
7.92837e-07
-5.42275e-06
1.08014e-06
-5.37309e-06
1.37823e-06
-5.30728e-06
1.6879e-06
-5.22264e-06
2.00913e-06
-5.11595e-06
2.34086e-06
-4.98355e-06
2.68069e-06
-4.8214e-06
3.02454e-06
-4.62521e-06
3.36637e-06
-4.39076e-06
3.69773e-06
-4.11432e-06
4.00752e-06
-3.79315e-06
4.28169e-06
-3.42636e-06
4.50315e-06
-3.0158e-06
4.6519e-06
-2.56713e-06
4.70553e-06
-2.09099e-06
4.64006e-06
-1.60387e-06
4.43141e-06
-1.12875e-06
4.05734e-06
-6.94922e-07
3.49971e-06
-3.36981e-07
2.74696e-06
-9.27311e-08
1.79612e-06
6.55186e-07
-7.74044e-08
-5.52125e-07
-2.83712e-07
-1.50181e-06
-5.90529e-07
-2.289e-06
-9.6961e-07
-2.91389e-06
-1.39487e-06
-3.38334e-06
-1.84361e-06
-3.70909e-06
-2.29721e-06
-3.90635e-06
-2.74117e-06
-3.99226e-06
-3.16497e-06
-3.9846e-06
-3.56148e-06
-3.90072e-06
-3.92643e-06
-3.75677e-06
-4.25775e-06
-3.56718e-06
-4.55507e-06
-3.34446e-06
-4.81917e-06
-3.09907e-06
-5.0516e-06
-2.8395e-06
-5.25439e-06
-2.57239e-06
-5.42975e-06
-2.30272e-06
-5.57995e-06
-2.03402e-06
-5.70716e-06
-1.76855e-06
-5.81338e-06
-1.50754e-06
-5.90037e-06
-1.25134e-06
-5.96963e-06
-9.99582e-07
-6.02233e-06
-7.51368e-07
-6.05935e-06
-5.05369e-07
-6.08124e-06
-2.59955e-07
-6.08819e-06
-1.33127e-08
-6.08005e-06
2.36448e-07
-6.05632e-06
4.91184e-07
-6.01608e-06
7.52598e-07
-5.95805e-06
1.02211e-06
-5.88053e-06
1.30072e-06
-5.78144e-06
1.5888e-06
-5.65829e-06
1.88598e-06
-5.50826e-06
2.19082e-06
-5.32825e-06
2.50068e-06
-5.11505e-06
2.81134e-06
-4.8655e-06
3.11682e-06
-4.57685e-06
3.40908e-06
-4.2471e-06
3.67777e-06
-3.87562e-06
3.9102e-06
-3.46373e-06
4.09126e-06
-3.01553e-06
4.20371e-06
-2.53869e-06
4.22869e-06
-2.04522e-06
4.14658e-06
-1.55202e-06
3.93821e-06
-1.08109e-06
3.58641e-06
-6.59199e-07
3.07782e-06
-3.16804e-07
2.40457e-06
-8.63884e-08
1.5657e-06
5.68797e-07
-7.42305e-08
-4.77895e-07
-2.73587e-07
-1.30245e-06
-5.72801e-07
-1.98979e-06
-9.46628e-07
-2.54006e-06
-1.37139e-06
-2.95857e-06
-1.82601e-06
-3.25448e-06
-2.29258e-06
-3.43978e-06
-2.75663e-06
-3.52821e-06
-3.20699e-06
-3.53423e-06
-3.63553e-06
-3.47218e-06
-4.03672e-06
-3.35558e-06
-4.40718e-06
-3.19673e-06
-4.74521e-06
-3.00643e-06
-5.05038e-06
-2.79389e-06
-5.3232e-06
-2.56668e-06
-5.56477e-06
-2.33082e-06
-5.77656e-06
-2.09093e-06
-5.96024e-06
-1.85034e-06
-6.1175e-06
-1.6113e-06
-6.24996e-06
-1.37508e-06
-6.3591e-06
-1.1422e-06
-6.44619e-06
-9.12496e-07
-6.51223e-06
-6.85326e-07
-6.55796e-06
-4.59639e-07
-6.5838e-06
-2.34112e-07
-6.58986e-06
-7.25304e-09
-6.57591e-06
2.22492e-07
-6.54136e-06
4.56637e-07
-6.4853e-06
6.96536e-07
-6.40645e-06
9.43262e-07
-6.3032e-06
1.19747e-06
-6.17365e-06
1.45925e-06
-6.01559e-06
1.72792e-06
-5.82667e-06
2.0019e-06
-5.60442e-06
2.27843e-06
-5.3465e-06
2.55342e-06
-5.05085e-06
2.82118e-06
-4.71607e-06
3.0743e-06
-4.34178e-06
3.30348e-06
-3.92907e-06
3.49749e-06
-3.48112e-06
3.64331e-06
-3.00376e-06
3.72635e-06
-2.50608e-06
3.73101e-06
-2.0009e-06
3.64141e-06
-1.50512e-06
3.44243e-06
-1.03964e-06
3.12093e-06
-6.28915e-07
2.66709e-06
-3.00009e-07
2.07566e-06
-8.11801e-08
1.34687e-06
4.87617e-07
-7.18205e-08
-4.06074e-07
-2.65844e-07
-1.10843e-06
-5.59126e-07
-1.6965e-06
-9.28706e-07
-2.17048e-06
-1.35281e-06
-2.53447e-06
-1.81169e-06
-2.7956e-06
-2.28816e-06
-2.9633e-06
-2.76788e-06
-3.04849e-06
-3.23932e-06
-3.0628e-06
-3.69363e-06
-3.01787e-06
-4.12434e-06
-2.92486e-06
-4.52703e-06
-2.79404e-06
-4.89893e-06
-2.63453e-06
-5.23861e-06
-2.45422e-06
-5.54562e-06
-2.25967e-06
-5.82027e-06
-2.05618e-06
-6.06333e-06
-1.84787e-06
-6.27588e-06
-1.63779e-06
-6.45916e-06
-1.42802e-06
-6.61441e-06
-1.21984e-06
-6.74279e-06
-1.01381e-06
-6.84534e-06
-8.09949e-07
-6.92287e-06
-6.07794e-07
-6.97597e-06
-4.06544e-07
-7.00493e-06
-2.05153e-07
-7.00976e-06
-2.42033e-09
-6.99016e-06
2.02898e-07
-6.94553e-06
4.12003e-07
-6.87493e-06
6.25941e-07
-6.77716e-06
8.45492e-07
-6.65074e-06
1.07105e-06
-6.49397e-06
1.30247e-06
-6.30501e-06
1.53896e-06
-6.08196e-06
1.77885e-06
-5.82302e-06
2.0195e-06
-5.52668e-06
2.25707e-06
-5.19192e-06
2.48642e-06
-4.81856e-06
2.70094e-06
-4.40757e-06
2.89249e-06
-3.96155e-06
3.05147e-06
-3.48512e-06
3.16688e-06
-2.98542e-06
3.22665e-06
-2.47252e-06
3.21811e-06
-1.95971e-06
3.1286e-06
-1.46361e-06
2.94633e-06
-1.00403e-06
2.66134e-06
-6.03423e-07
2.26649e-06
-2.86076e-07
1.75832e-06
-7.69072e-08
1.1377e-06
4.1071e-07
-6.99998e-08
-3.36074e-07
-2.59962e-07
-9.18468e-07
-5.4867e-07
-1.40779e-06
-9.14896e-07
-1.80426e-06
-1.33834e-06
-2.11102e-06
-1.80035e-06
-2.33359e-06
-2.28438e-06
-2.47928e-06
-2.77625e-06
-2.55662e-06
-3.26426e-06
-2.57479e-06
-3.73907e-06
-2.54306e-06
-4.19352e-06
-2.47041e-06
-4.62236e-06
-2.3652e-06
-5.02197e-06
-2.23492e-06
-5.39009e-06
-2.0861e-06
-5.72548e-06
-1.92427e-06
-6.02775e-06
-1.75391e-06
-6.29706e-06
-1.57856e-06
-6.53396e-06
-1.40089e-06
-6.73924e-06
-1.22274e-06
-6.91379e-06
-1.04529e-06
-7.05847e-06
-8.69123e-07
-7.17409e-06
-6.94331e-07
-7.26127e-06
-5.20617e-07
-7.32043e-06
-3.47383e-07
-7.35176e-06
-1.73823e-07
-7.35518e-06
9.98026e-10
-7.33033e-06
1.78048e-07
-7.27658e-06
3.58254e-07
-7.19304e-06
5.42397e-07
-7.07857e-06
7.31022e-07
-6.93184e-06
9.24325e-07
-6.75141e-06
1.12204e-06
-6.53578e-06
1.32332e-06
-6.28353e-06
1.5266e-06
-5.99347e-06
1.72944e-06
-5.66486e-06
1.92846e-06
-5.29761e-06
2.11917e-06
-4.89258e-06
2.29591e-06
-4.45193e-06
2.45183e-06
-3.97941e-06
2.57895e-06
-3.48081e-06
2.66827e-06
-2.96423e-06
2.71007e-06
-2.4404e-06
2.69427e-06
-1.92281e-06
2.61101e-06
-1.42774e-06
2.45126e-06
-9.73954e-07
2.20756e-06
-5.82243e-07
1.87478e-06
-2.74634e-07
1.45071e-06
-7.34294e-08
9.36499e-07
3.37281e-07
-6.86402e-08
-2.67434e-07
-2.55551e-07
-7.31557e-07
-5.40795e-07
-1.12255e-06
-9.04436e-07
-1.44061e-06
-1.32731e-06
-1.68814e-06
-1.79162e-06
-1.86928e-06
-2.28135e-06
-1.98955e-06
-2.78255e-06
-2.05543e-06
-3.2834e-06
-2.07394e-06
-3.77423e-06
-2.05223e-06
-4.24737e-06
-1.99727e-06
-4.69697e-06
-1.91561e-06
-5.11873e-06
-1.81315e-06
-5.50972e-06
-1.69511e-06
-5.86808e-06
-1.56591e-06
-6.1928e-06
-1.42918e-06
-6.48353e-06
-1.28783e-06
-6.74037e-06
-1.14405e-06
-6.96372e-06
-9.99392e-07
-7.15413e-06
-8.54877e-07
-7.31222e-06
-7.11034e-07
-7.43855e-06
-5.67998e-07
-7.53358e-06
-4.25587e-07
-7.59759e-06
-2.83373e-07
-7.63066e-06
-1.40756e-07
-7.63263e-06
2.96328e-09
-7.60309e-06
1.48514e-07
-7.54142e-06
2.96582e-07
-7.44675e-06
4.47729e-07
-7.31805e-06
6.02317e-07
-7.15414e-06
7.60415e-07
-6.9538e-06
9.2171e-07
-6.71588e-06
1.0854e-06
-6.43939e-06
1.25011e-06
-6.12371e-06
1.41376e-06
-5.76875e-06
1.5735e-06
-5.37522e-06
1.72564e-06
-4.94485e-06
1.86555e-06
-4.48075e-06
1.98773e-06
-3.98761e-06
2.08582e-06
-3.47209e-06
2.15275e-06
-2.94298e-06
2.18096e-06
-2.41145e-06
2.16274e-06
-1.89105e-06
2.09062e-06
-1.39767e-06
1.95788e-06
-9.49189e-07
1.75908e-06
-5.65019e-07
1.49061e-06
-2.65415e-07
1.1511e-06
-7.06473e-08
7.41731e-07
2.66633e-07
-6.76483e-08
-1.99786e-07
-2.52324e-07
-5.46882e-07
-5.35014e-07
-8.39861e-07
-8.96728e-07
-1.0789e-06
-1.31915e-06
-1.26572e-06
-1.78513e-06
-1.4033e-06
-2.27909e-06
-1.49559e-06
-2.78725e-06
-1.54727e-06
-3.29777e-06
-1.56342e-06
-3.80075e-06
-1.54924e-06
-4.28816e-06
-1.50986e-06
-4.75369e-06
-1.45007e-06
-5.19256e-06
-1.37429e-06
-5.6013e-06
-1.28637e-06
-5.97755e-06
-1.18966e-06
-6.31984e-06
-1.08689e-06
-6.62739e-06
-9.80284e-07
-6.89992e-06
-8.71515e-07
-7.13751e-06
-7.61802e-07
-7.34045e-06
-6.51941e-07
-7.50911e-06
-5.42372e-07
-7.64387e-06
-4.33233e-07
-7.74504e-06
-3.24419e-07
-7.81278e-06
-2.15639e-07
-7.84706e-06
-1.06472e-07
-7.84768e-06
3.57769e-09
-7.81419e-06
1.15027e-07
-7.74596e-06
2.28356e-07
-7.64218e-06
3.43949e-07
-7.5019e-06
4.6203e-07
-7.32408e-06
5.82599e-07
-7.10773e-06
7.05358e-07
-6.85197e-06
8.29642e-07
-6.55619e-06
9.54336e-07
-6.22025e-06
1.07781e-06
-5.8446e-06
1.19786e-06
-5.43059e-06
1.31163e-06
-4.98068e-06
1.41563e-06
-4.49866e-06
1.50571e-06
-3.98998e-06
1.57714e-06
-3.46191e-06
1.62468e-06
-2.92376e-06
1.64281e-06
-2.38695e-06
1.62593e-06
-1.86503e-06
1.5687e-06
-1.37351e-06
1.46636e-06
-9.29555e-07
1.31512e-06
-5.51495e-07
1.11255e-06
-2.58229e-07
8.57838e-07
-6.84906e-08
5.51993e-07
1.98143e-07
-6.69571e-08
-1.32829e-07
-2.5007e-07
-3.63768e-07
-5.30967e-07
-5.58965e-07
-8.9132e-07
-7.18548e-07
-1.31341e-06
-8.43636e-07
-1.78056e-06
-9.36147e-07
-2.2775e-06
-9.98643e-07
-2.79062e-06
-1.03415e-06
-3.30806e-06
-1.04598e-06
-3.81978e-06
-1.03752e-06
-4.3175e-06
-1.01213e-06
-4.7946e-06
-9.72974e-07
-5.24594e-06
-9.22955e-07
-5.66766e-06
-8.64649e-07
-6.05704e-06
-8.00272e-07
-6.41227e-06
-7.31669e-07
-6.73223e-06
-6.60324e-07
-7.01636e-06
-5.87379e-07
-7.2645e-06
-5.13663e-07
-7.47672e-06
-4.39727e-07
-7.65321e-06
-3.65882e-07
-7.7942e-06
-2.92238e-07
-7.89988e-06
-2.1874e-07
-7.97031e-06
-1.4521e-07
-8.0054e-06
-7.13806e-08
-8.00489e-06
3.06413e-09
-7.96832e-06
7.84537e-08
-7.89505e-06
1.55092e-07
-7.78432e-06
2.33214e-07
-7.63524e-06
3.1295e-07
-7.44691e-06
3.94271e-07
-7.2185e-06
4.76951e-07
-6.94937e-06
5.60512e-07
-6.63921e-06
6.44176e-07
-6.28822e-06
7.26822e-07
-5.8973e-06
8.0694e-07
-5.46828e-06
8.82608e-07
-5.00412e-06
9.51474e-07
-4.50918e-06
1.01077e-06
-3.98939e-06
1.05735e-06
-3.45249e-06
1.08778e-06
-2.9081e-06
1.09843e-06
-2.36784e-06
1.08566e-06
-1.84518e-06
1.04604e-06
-1.35534e-06
9.76518e-07
-9.14927e-07
8.74709e-07
-5.41491e-07
7.39112e-07
-2.52941e-07
5.69287e-07
-6.69102e-08
3.65962e-07
1.31233e-07
-6.65203e-08
-6.63087e-08
-2.48644e-07
-1.81644e-07
-5.28403e-07
-2.79206e-07
-8.87888e-07
-3.59063e-07
-1.30976e-06
-4.21765e-07
-1.77765e-06
-4.68254e-07
-2.27651e-06
-4.99787e-07
-2.79281e-06
-5.17854e-07
-3.3147e-06
-5.24082e-07
-3.83208e-06
-5.20149e-07
-4.3365e-06
-5.07711e-07
-4.82113e-06
-4.88343e-07
-5.2806e-06
-4.63486e-07
-5.71082e-06
-4.34426e-07
-6.10882e-06
-4.02269e-07
-6.47255e-06
-3.67942e-07
-6.80068e-06
-3.3219e-07
-7.09247e-06
-2.9559e-07
-7.34757e-06
-2.58561e-07
-7.56592e-06
-2.21386e-07
-7.74757e-06
-1.84225e-07
-7.89267e-06
-1.47137e-07
-8.00131e-06
-1.10102e-07
-8.07349e-06
-7.3034e-08
-8.10906e-06
-3.58038e-08
-8.10774e-06
1.74235e-09
-8.06905e-06
3.97644e-08
-7.99237e-06
7.84088e-08
-7.87694e-06
1.17788e-07
-7.72195e-06
1.57959e-07
-7.52658e-06
1.98901e-07
-7.29012e-06
2.40491e-07
-7.01209e-06
2.82479e-07
-6.69238e-06
3.24468e-07
-6.33144e-06