/*--------------------------------*- C++ -*----------------------------------*\
  =========                 |
  \\      /  F ield         | OpenFOAM: The Open Source CFD Toolbox
   \\    /   O peration     | Website:  https://openfoam.org
    \\  /    A nd           | Version:  7
     \\/     M anipulation  |
\*---------------------------------------------------------------------------*/
FoamFile
{
    version     2.0;
    format      ascii;
    class       surfaceScalarField;
    location    "0.0776";
    object      phi;
}
// * * * * * * * * * * * * * * * * * * * * * * * * * * * * * * * * * * * * * //

dimensions      [0 3 -1 0 0 0 0];

internalField   nonuniform List<scalar> 
4900
(
5.45461e-06
-5.45462e-06
9.95309e-06
-4.49848e-06
1.26939e-05
-2.7408e-06
1.44122e-05
-1.71833e-06
1.55285e-05
-1.11634e-06
1.62819e-05
-7.53322e-07
1.68131e-05
-5.31275e-07
1.72039e-05
-3.90766e-07
1.75014e-05
-2.97478e-07
1.77339e-05
-2.32469e-07
1.79191e-05
-1.85214e-07
1.80687e-05
-1.49648e-07
1.81908e-05
-1.22124e-07
1.82912e-05
-1.00342e-07
1.8374e-05
-8.27897e-08
1.84424e-05
-6.84296e-08
1.84989e-05
-5.65224e-08
1.85455e-05
-4.65249e-08
1.85835e-05
-3.80254e-08
1.86142e-05
-3.07033e-08
1.86385e-05
-2.4302e-08
1.86571e-05
-1.86104e-08
1.86705e-05
-1.34499e-08
1.86792e-05
-8.66456e-09
1.86833e-05
-4.11403e-09
1.8683e-05
3.35614e-10
1.86782e-05
4.80748e-09
1.86687e-05
9.43576e-09
1.86544e-05
1.4355e-08
1.86347e-05
1.97154e-08
1.8609e-05
2.56881e-08
1.85765e-05
3.24749e-08
1.85362e-05
4.03226e-08
1.84866e-05
4.95412e-08
1.84261e-05
6.0532e-08
1.83523e-05
7.38286e-08
1.82621e-05
9.01609e-08
1.81516e-05
1.10557e-07
1.8015e-05
1.36518e-07
1.78447e-05
1.70318e-07
1.76292e-05
2.15558e-07
1.73509e-05
2.78229e-07
1.69821e-05
3.68796e-07
1.64758e-05
5.06338e-07
1.57496e-05
7.26227e-07
1.46576e-05
1.09201e-06
1.29452e-05
1.71242e-06
1.0162e-05
2.7832e-06
5.55722e-06
4.60473e-06
5.55722e-06
-1.1932e-07
-5.3353e-06
1.83181e-06
-6.44961e-06
4.41348e-06
-5.32247e-06
6.72993e-06
-4.03478e-06
8.61081e-06
-2.99722e-06
1.00946e-05
-2.23707e-06
1.12608e-05
-1.69756e-06
1.21837e-05
-1.31366e-06
1.29217e-05
-1.0354e-06
1.35181e-05
-8.28942e-07
1.4005e-05
-6.72095e-07
1.44057e-05
-5.50299e-07
1.47374e-05
-4.53873e-07
1.50133e-05
-3.76243e-07
1.52434e-05
-3.12832e-07
1.54353e-05
-2.60365e-07
1.55952e-05
-2.1644e-07
1.57279e-05
-1.79246e-07
1.58373e-05
-1.47387e-07
1.59263e-05
-1.19757e-07
1.59975e-05
-9.54589e-08
1.60526e-05
-7.37463e-08
1.60932e-05
-5.39808e-08
1.61201e-05
-3.56e-08
1.61341e-05
-1.80924e-08
1.61354e-05
-9.79043e-10
1.6124e-05
1.62135e-08
1.60995e-05
3.39574e-08
1.60611e-05
5.27552e-08
1.60076e-05
7.31552e-08
1.59375e-05
9.57795e-08
1.58487e-05
1.21357e-07
1.57382e-05
1.50771e-07
1.56026e-05
1.85117e-07
1.54374e-05
2.25795e-07
1.52366e-05
2.74637e-07
1.49926e-05
3.34095e-07
1.46956e-05
4.0754e-07
1.43325e-05
4.99711e-07
1.38853e-05
6.17452e-07
1.333e-05
7.70897e-07
1.26328e-05
9.75403e-07
1.1747e-05
1.25463e-06
1.06081e-05
1.64519e-06
9.13216e-06
2.20217e-06
7.22466e-06
2.99952e-06
4.83163e-06
4.10545e-06
2.12103e-06
5.49379e-06
1.07204e-08
6.71504e-06
5.56794e-06
-1.08241e-06
-4.25289e-06
-7.53904e-07
-6.77811e-06
5.90066e-07
-6.66644e-06
2.30302e-06
-5.74773e-06
4.01522e-06
-4.70942e-06
5.56803e-06
-3.78988e-06
6.91418e-06
-3.04372e-06
8.05721e-06
-2.45668e-06
9.01962e-06
-1.99781e-06
9.82811e-06
-1.63743e-06
1.05076e-05
-1.35164e-06
1.10797e-05
-1.12235e-06
1.1562e-05
-9.36194e-07
1.19691e-05
-7.83329e-07
1.23127e-05
-6.56454e-07
1.26025e-05
-5.50088e-07
1.28461e-05
-4.60045e-07
1.30499e-05
-3.83072e-07
1.32191e-05
-3.1659e-07
1.33578e-05
-2.58513e-07
1.34695e-05
-2.07114e-07
1.35567e-05
-1.60935e-07
1.36214e-05
-1.18708e-07
1.36651e-05
-7.93035e-08
1.36887e-05
-4.16856e-08
1.36926e-05
-4.87328e-09
1.36767e-05
3.21005e-08
1.36405e-05
7.021e-08
1.35827e-05
1.10485e-07
1.35018e-05
1.54046e-07
1.33955e-05
2.02156e-07
1.32605e-05
2.56278e-07
1.30932e-05
3.18162e-07
1.28883e-05
3.89949e-07
1.26398e-05
4.74321e-07
1.23397e-05
5.74706e-07
1.19782e-05
6.95577e-07
1.15429e-05
8.42862e-07
1.10181e-05
1.02455e-06
1.0384e-05
1.25152e-06
9.61619e-06
1.53873e-06
8.68491e-06
1.90668e-06
7.55663e-06
2.38291e-06
6.19949e-06
3.00233e-06
4.59877e-06
3.80289e-06
2.79217e-06
4.80612e-06
9.3838e-07
5.95924e-06
-5.70483e-07
7.00265e-06
-1.03811e-06
7.18267e-06
4.52983e-06
-9.12946e-07
-3.33994e-06
-1.3411e-06
-6.34996e-06
-9.35745e-07
-7.0718e-06
2.32704e-08
-6.70674e-06
1.24218e-06
-5.92833e-06
2.52146e-06
-5.06916e-06
3.7483e-06
-4.27056e-06
4.86995e-06
-3.57833e-06
5.86852e-06
-2.99638e-06
6.74411e-06
-2.51302e-06
7.50509e-06
-2.11262e-06
8.1629e-06
-1.78016e-06
8.72948e-06
-1.50277e-06
9.21608e-06
-1.26993e-06
9.6328e-06
-1.07317e-06
9.98845e-06
-9.05738e-07
1.02906e-05
-7.622e-07
1.05457e-05
-6.38166e-07
1.07591e-05
-5.3003e-07
1.09354e-05
-4.34789e-07
1.10782e-05
-3.49899e-07
1.11904e-05
-2.7316e-07
1.12743e-05
-2.02627e-07
1.13316e-05
-1.36543e-07
1.13632e-05
-7.32724e-08
1.13696e-05
-1.12544e-08
1.13506e-05
5.10533e-08
1.13056e-05
1.15215e-07
1.12332e-05
1.82875e-07
1.11314e-05
2.55816e-07
1.09976e-05
3.36022e-07
1.08281e-05
4.25772e-07
1.06185e-05
5.27739e-07
1.03633e-05
6.45131e-07
1.00558e-05
7.81869e-07
9.68765e-06
9.42827e-07
9.24909e-06
1.13413e-06
8.72841e-06
1.36355e-06
8.11196e-06
1.641e-06
7.38444e-06
1.97903e-06
6.52985e-06
2.39333e-06
5.53386e-06
2.90267e-06
4.38928e-06
3.52749e-06
3.10665e-06
4.28497e-06
1.73356e-06
5.17598e-06
3.84815e-07
6.15487e-06
-7.23795e-07
7.06785e-06
-1.26537e-06
7.54423e-06
-9.15778e-07
6.83308e-06
3.61406e-06
-6.64603e-07
-2.67534e-06
-1.29656e-06
-5.71799e-06
-1.41661e-06
-6.95176e-06
-1.0399e-06
-7.08345e-06
-3.20956e-07
-6.64727e-06
5.82666e-07
-5.97278e-06
1.5527e-06
-5.24059e-06
2.5132e-06
-4.53884e-06
3.42093e-06
-3.90411e-06
4.25446e-06
-3.34655e-06
5.00572e-06
-2.86388e-06
5.67434e-06
-2.44877e-06
6.26401e-06
-2.09244e-06
6.78038e-06
-1.7863e-06
7.22978e-06
-1.52258e-06
7.61855e-06
-1.29451e-06
7.95266e-06
-1.0963e-06
8.23749e-06
-9.23001e-07
8.47783e-06
-7.70363e-07
8.67776e-06
-6.34725e-07
8.84075e-06
-5.12885e-07
8.96959e-06
-4.02001e-07
9.06647e-06
-2.99508e-07
9.13297e-06
-2.03043e-07
9.17008e-06
-1.10379e-07
9.17819e-06
-1.93669e-08
9.15711e-06
7.21269e-08
9.10606e-06
1.66273e-07
9.02359e-06
2.65346e-07
8.90761e-06
3.7179e-07
8.75533e-06
4.88303e-07
8.56318e-06
6.17924e-07
8.32676e-06
7.64155e-07
8.0408e-06
9.31094e-07
7.69907e-06
1.1236e-06
7.29439e-06
1.3475e-06
6.81872e-06
1.60979e-06
6.26341e-06
1.91887e-06
5.61974e-06
2.28467e-06
4.88017e-06
2.7186e-06
4.04051e-06
3.23298e-06
3.10391e-06
3.83927e-06
2.08736e-06
4.54405e-06
1.03187e-06
5.34045e-06
1.61676e-08
6.19169e-06
-8.30467e-07
7.0015e-06
-1.32821e-06
7.56559e-06
-1.29241e-06
7.50842e-06
-6.84811e-07
6.22549e-06
2.92924e-06
-4.70537e-07
-2.2048e-06
-1.09878e-06
-5.08975e-06
-1.46611e-06
-6.58443e-06
-1.46594e-06
-7.08363e-06
-1.14406e-06
-6.96915e-06
-5.9547e-07
-6.52137e-06
8.61298e-08
-5.92219e-06
8.26856e-07
-5.27956e-06
1.57505e-06
-4.6523e-06
2.2976e-06
-4.0691e-06
2.97509e-06
-3.54137e-06
3.59744e-06
-3.07112e-06
4.16063e-06
-2.65563e-06
4.66437e-06
-2.29005e-06
5.11059e-06
-1.96879e-06
5.50234e-06
-1.68627e-06
5.84322e-06
-1.43718e-06
6.13691e-06
-1.21669e-06
6.38692e-06
-1.02038e-06
6.59648e-06
-8.44281e-07
6.76838e-06
-6.84789e-07
6.90498e-06
-5.38601e-07
7.00813e-06
-4.02659e-07
7.07918e-06
-2.7409e-07
7.11894e-06
-1.50142e-07
7.12771e-06
-2.81286e-08
7.1052e-06
9.46295e-08
7.05061e-06
2.20865e-07
6.96253e-06
3.5343e-07
6.83895e-06
4.95363e-07
6.67728e-06
6.49971e-07
6.47429e-06
8.20914e-07
6.22614e-06
1.01231e-06
5.92841e-06
1.22882e-06
5.57621e-06
1.47581e-06
5.16434e-06
1.75938e-06
4.68766e-06
2.08647e-06
4.14174e-06
2.46479e-06
3.52387e-06
2.90254e-06
2.83477e-06
3.4077e-06
2.08129e-06
3.98645e-06
1.28039e-06
4.64017e-06
4.64559e-07
5.35988e-06
-3.11637e-07
6.11665e-06
-9.66006e-07
6.84606e-06
-1.38972e-06
7.42522e-06
-1.46763e-06
7.6435e-06
-1.13529e-06
7.17608e-06
-4.96327e-07
5.58653e-06
2.43292e-06
-3.3952e-07
-1.86528e-06
-9.00751e-07
-4.52852e-06
-1.36155e-06
-6.12363e-06
-1.58056e-06
-6.86462e-06
-1.53935e-06
-7.01035e-06
-1.28001e-06
-6.78071e-06
-8.6388e-07
-6.33832e-06
-3.50048e-07
-5.7934e-06
2.1319e-07
-5.21554e-06
7.89967e-07
-4.64588e-06
1.35545e-06
-4.10685e-06
1.8935e-06
-3.60917e-06
2.39442e-06
-3.15655e-06
2.85302e-06
-2.74864e-06
3.26715e-06
-2.38292e-06
3.63663e-06
-2.05575e-06
3.9625e-06
-1.76305e-06
4.24645e-06
-1.50063e-06
4.49047e-06
-1.2644e-06
4.69661e-06
-1.05042e-06
4.86677e-06
-8.54952e-07
5.00263e-06
-6.74466e-07
5.10555e-06
-5.05579e-07
5.17651e-06
-3.45043e-07
5.21606e-06
-1.89693e-07
5.22433e-06
-3.64055e-08
5.20101e-06
1.17957e-07
5.14527e-06
2.76597e-07
5.05587e-06
4.42839e-07
4.93104e-06
6.20191e-07
4.7686e-06
8.1241e-07
4.56595e-06
1.02357e-06
4.32015e-06
1.25811e-06
4.02806e-06
1.52091e-06
3.68658e-06
1.81729e-06
3.29294e-06
2.15301e-06
2.84533e-06
2.53408e-06
2.34367e-06
2.96645e-06
1.79088e-06
3.45533e-06
1.19465e-06
4.00392e-06
5.69886e-07
4.61122e-06
-5.8298e-08
5.26835e-06
-6.51219e-07
5.9528e-06
-1.15419e-06
6.61962e-06
-1.49749e-06
7.18935e-06
-1.60559e-06
7.53333e-06
-1.42225e-06
7.46015e-06
-9.58797e-07
6.71263e-06
-3.66314e-07
4.99404e-06
2.0666e-06
-2.54561e-07
-1.61072e-06
-7.3966e-07
-4.04342e-06
-1.21861e-06
-5.64468e-06
-1.55476e-06
-6.52846e-06
-1.69915e-06
-6.86596e-06
-1.6577e-06
-6.82216e-06
-1.46308e-06
-6.53294e-06
-1.15618e-06
-6.1003e-06
-7.7599e-07
-5.59573e-06
-3.55249e-07
-5.06662e-06
8.06331e-08
-4.54273e-06
5.13057e-07
-4.04159e-06
9.29081e-07
-3.57257e-06
1.32017e-06
-3.13974e-06
1.68109e-06
-2.74384e-06
2.00893e-06
-2.38359e-06
2.30241e-06
-2.05654e-06
2.56133e-06
-1.75955e-06
2.78613e-06
-1.48919e-06
2.9776e-06
-1.24189e-06
3.13667e-06
-1.01402e-06
3.26425e-06
-8.02046e-07
3.36111e-06
-6.02433e-07
3.42778e-06
-4.11716e-07
3.46454e-06
-2.26455e-07
3.47135e-06
-4.32116e-08
3.44782e-06
1.41487e-07
3.39323e-06
3.31188e-07
3.30652e-06
5.2955e-07
3.18631e-06
7.40394e-07
3.03099e-06
9.67733e-07
2.83874e-06
1.21581e-06
2.60774e-06
1.48911e-06
2.33631e-06
1.79234e-06
2.02326e-06
2.13034e-06
1.66833e-06
2.50794e-06
1.27282e-06
2.9296e-06
8.40435e-07
3.39883e-06
3.78542e-07
3.91723e-06
-1.00397e-07
4.48286e-06
-5.77036e-07
5.08786e-06
-1.02339e-06
5.71471e-06
-1.40168e-06
6.33109e-06
-1.66508e-06
6.88303e-06
-1.76251e-06
7.28678e-06
-1.65048e-06
7.4213e-06
-1.31562e-06
7.12528e-06
-8.08348e-07
6.20537e-06
-2.80884e-07
4.46658e-06
1.78572e-06
-1.98956e-07
-1.41177e-06
-6.16767e-07
-3.62561e-06
-1.08119e-06
-5.18026e-06
-1.474e-06
-6.13565e-06
-1.73581e-06
-6.60416e-06
-1.85117e-06
-6.7068e-06
-1.83138e-06
-6.55273e-06
-1.70067e-06
-6.231e-06
-1.48708e-06
-5.80933e-06
-1.21722e-06
-5.33648e-06
-9.13941e-07
-4.84601e-06
-5.9557e-07
-4.35997e-06
-2.76104e-07
-3.89204e-06
3.42002e-08
-3.45004e-06
3.28133e-07
-3.03777e-06
6.0084e-07
-2.6563e-06
8.49236e-07
-2.30493e-06
1.07151e-06
-1.98182e-06
1.26672e-06
-1.68441e-06
1.43451e-06
-1.40968e-06
1.57487e-06
-1.15438e-06
1.68792e-06
-9.15105e-07
1.77386e-06
-6.88367e-07
1.83277e-06
-4.70632e-07
1.86464e-06
-2.58325e-07
1.86926e-06
-4.78314e-08
1.84623e-06
1.64524e-07
1.79493e-06
3.82488e-07
1.71457e-06
6.09907e-07
1.60423e-06
8.50735e-07
1.46291e-06
1.10905e-06
1.28969e-06
1.38903e-06
1.08388e-06
1.69493e-06
8.4526e-07
2.03096e-06
5.74465e-07
2.40113e-06
2.73426e-07
2.80898e-06
-5.40037e-08
3.25703e-06
-4.01258e-07
3.74609e-06
-7.58111e-07
4.27408e-06
-1.10963e-06
4.83438e-06
-1.43518e-06
5.41341e-06
-1.70789e-06
5.98742e-06
-1.8952e-06
6.5184e-06
-1.96146e-06
6.94928e-06
-1.87418e-06
7.1995e-06
-1.61535e-06
7.16247e-06
-1.19851e-06
6.70845e-06
-6.89678e-07
5.69653e-06
-2.24212e-07
4.00111e-06
1.56151e-06
-1.61611e-07
-1.25015e-06
-5.24839e-07
-3.26238e-06
-9.63159e-07
-4.74194e-06
-1.37885e-06
-5.71996e-06
-1.71248e-06
-6.27053e-06
-1.93766e-06
-6.48162e-06
-2.05138e-06
-6.43901e-06
-2.06466e-06
-6.21772e-06
-1.99526e-06
-5.87873e-06
-1.86281e-06
-5.46893e-06
-1.68599e-06
-5.02283e-06
-1.48109e-06
-4.56487e-06
-1.26155e-06
-4.11158e-06
-1.03798e-06
-3.67361e-06
-8.18504e-07
-3.25725e-06
-6.09106e-07
-2.8657e-06
-4.14099e-07
-2.49994e-06
-2.36481e-07
-2.15944e-06
-7.8278e-08
-1.84261e-06
5.91887e-08
-1.54715e-06
1.75077e-07
-1.27027e-06
2.68849e-07
-1.00888e-06
3.40139e-07
-7.59658e-07
3.88655e-07
-5.19147e-07
4.14102e-07
-2.83773e-07
4.16145e-07
-4.98741e-08
3.94382e-07
1.86286e-07
3.48352e-07
4.28518e-07
2.77562e-07
6.80696e-07
1.81549e-07
9.46749e-07
5.99707e-08
1.23063e-06
-8.72508e-08
1.53625e-06
-2.59737e-07
1.86741e-06
-4.56393e-07
2.22761e-06
-6.7506e-07
2.6198e-06
-9.12086e-07
3.04601e-06
-1.16179e-06
3.50674e-06
-1.41587e-06
4.00016e-06
-1.66272e-06
4.52093e-06
-1.88691e-06
5.05857e-06
-2.06889e-06
5.59539e-06
-2.18538e-06
6.10391e-06
-2.21091e-06
6.54393e-06
-2.12133e-06
6.8597e-06
-1.89989e-06
6.97806e-06
-1.54654e-06
6.80912e-06
-1.0897e-06
6.25161e-06
-5.97928e-07
5.20476e-06
-1.85419e-07
3.5886e-06
1.37609e-06
-1.35799e-07
-1.11436e-06
-4.56236e-07
-2.94194e-06
-8.66573e-07
-4.3316e-06
-1.28729e-06
-5.29924e-06
-1.66354e-06
-5.89428e-06
-1.96444e-06
-6.18072e-06
-2.1782e-06
-6.22524e-06
-2.30623e-06
-6.0897e-06
-2.35775e-06
-5.82721e-06
-2.34575e-06
-5.48092e-06
-2.28423e-06
-5.08435e-06
-2.18654e-06
-4.66255e-06
-2.06453e-06
-4.23359e-06
-1.92818e-06
-3.80996e-06
-1.78563e-06
-3.3998e-06
-1.6433e-06
-3.00803e-06
-1.50615e-06
-2.63709e-06
-1.37793e-06
-2.28766e-06
-1.26142e-06
-1.95912e-06
-1.15866e-06
-1.64991e-06
-1.07113e-06
-1.35779e-06
-9.99922e-07
-1.08008e-06
-9.45841e-07
-8.13739e-07
-9.09508e-07
-5.5548e-07
-8.91428e-07
-3.01853e-07
-8.9203e-07
-4.92725e-08
-9.11679e-07
2.05936e-07
-9.50672e-07
4.67511e-07
-1.0092e-06
7.39222e-07
-1.08727e-06
1.02482e-06
-1.18463e-06
1.32799e-06
-1.3006e-06
1.65222e-06
-1.43389e-06
2.0007e-06
-1.58234e-06
2.37607e-06
-1.74266e-06
2.78012e-06
-1.91003e-06
3.21337e-06
-2.07772e-06
3.67442e-06
-2.23667e-06
4.15912e-06
-2.3752e-06
4.65946e-06
-2.47884e-06
5.1622e-06
-2.53061e-06
5.64715e-06
-2.51198e-06
6.08529e-06
-2.40495e-06
6.4369e-06
-2.1955e-06
6.65025e-06
-1.87897e-06
6.66153e-06
-1.46691e-06
6.39706e-06
-9.94597e-07
5.7793e-06
-5.26801e-07
4.73696e-06
-1.5786e-07
3.21966e-06
1.21823e-06
-1.17484e-07
-9.96872e-07
-4.04813e-07
-2.65461e-06
-7.89329e-07
-3.94709e-06
-1.20635e-06
-4.88222e-06
-1.60705e-06
-5.49358e-06
-1.95973e-06
-5.82804e-06
-2.24773e-06
-5.93724e-06
-2.46587e-06
-5.87155e-06
-2.61678e-06
-5.6763e-06
-2.70773e-06
-5.38998e-06
-2.7482e-06
-5.04387e-06
-2.74833e-06
-4.66243e-06
-2.7178e-06
-4.26412e-06
-2.66534e-06
-3.86241e-06
-2.5985e-06
-3.46665e-06
-2.52355e-06
-3.08298e-06
-2.44561e-06
-2.71503e-06
-2.36877e-06
-2.3645e-06
-2.29625e-06
-2.03164e-06
-2.23054e-06
-1.71561e-06
-2.17358e-06
-1.41476e-06
-2.12684e-06
-1.12683e-06
-2.09144e-06
-8.49133e-07
-2.06826e-06
-5.78659e-07
-2.05795e-06
-3.12164e-07
-2.06098e-06
-4.62421e-08
-2.07766e-06
2.22614e-07
-2.10811e-06
4.97962e-07
-2.15224e-06
7.83347e-07
-2.20965e-06
1.08223e-06
-2.27957e-06
1.39791e-06
-2.3607e-06
1.73335e-06
-2.45105e-06
2.09104e-06
-2.54771e-06
2.47273e-06
-2.64666e-06
2.87907e-06
-2.74245e-06
3.30917e-06
-2.82799e-06
3.75996e-06
-2.89435e-06
4.22547e-06
-2.93067e-06
4.69578e-06
-2.92439e-06
5.15593e-06
-2.86186e-06
5.58463e-06
-2.72961e-06
5.95304e-06
-2.51645e-06
6.22373e-06
-2.21664e-06
6.35045e-06
-1.83412e-06
6.279e-06
-1.38727e-06
5.95022e-06
-9.13406e-07
5.30543e-06
-4.70995e-07
4.29455e-06
-1.37562e-07
2.88623e-06
1.08067e-06
-1.04202e-07
-8.9267e-07
-3.6602e-07
-2.3928e-06
-7.28264e-07
-3.58484e-06
-1.13785e-06
-4.47263e-06
-1.55198e-06
-5.07946e-06
-1.94002e-06
-5.44e-06
-2.28293e-06
-5.59433e-06
-2.57129e-06
-5.58319e-06
-2.80288e-06
-5.44471e-06
-2.98031e-06
-5.21255e-06
-3.10913e-06
-4.91506e-06
-3.19629e-06
-4.57527e-06
-3.24916e-06
-4.21125e-06
-3.27488e-06
-3.83668e-06
-3.27998e-06
-3.46155e-06
-3.27019e-06
-3.09277e-06
-3.25042e-06
-2.7348e-06
-3.22475e-06
-2.39017e-06
-3.19654e-06
-2.05985e-06
-3.16852e-06
-1.74364e-06
-3.14285e-06
-1.44042e-06
-3.12126e-06
-1.14842e-06
-3.10508e-06
-8.65314e-07
-3.09532e-06
-5.88419e-07
-3.09271e-06
-3.1477e-07
-3.09774e-06
-4.12161e-08
-3.11062e-06
2.35498e-07
-3.13132e-06
5.18661e-07
-3.15949e-06
8.11511e-07
-3.19439e-06
1.11714e-06
-3.23486e-06
1.43837e-06
-3.27912e-06
1.77761e-06
-3.32471e-06
2.13663e-06
-3.36828e-06
2.51631e-06
-3.40546e-06
2.91625e-06
-3.43067e-06
3.33438e-06
-3.43703e-06
3.76632e-06
-3.41633e-06
4.20477e-06
-3.35917e-06
4.63863e-06
-3.25543e-06
5.05218e-06
-3.09498e-06
5.42419e-06
-2.86912e-06
5.72717e-06
-2.57247e-06
5.92708e-06
-2.20562e-06
5.9836e-06
-1.77828e-06
5.85166e-06
-1.31241e-06
5.48435e-06
-8.44615e-07
4.83763e-06
-4.26553e-07
3.87649e-06
-1.2213e-07
2.58181e-06
9.58538e-07
-9.44067e-08
-7.98263e-07
-3.36574e-07
-2.15063e-06
-6.8028e-07
-3.24114e-06
-1.08136e-06
-4.07155e-06
-1.50239e-06
-4.65843e-06
-1.91464e-06
-5.02776e-06
-2.29821e-06
-5.21076e-06
-2.64112e-06
-5.24028e-06
-2.93771e-06
-5.14813e-06
-3.18699e-06
-4.96326e-06
-3.39117e-06
-4.71088e-06
-3.55435e-06
-4.41209e-06
-3.68165e-06
-4.08396e-06
-3.77847e-06
-3.73986e-06
-3.85013e-06
-3.38988e-06
-3.90156e-06
-3.04134e-06
-3.93716e-06
-2.69921e-06
-3.96077e-06
-2.36656e-06
-3.97566e-06
-2.04496e-06
-3.98458e-06
-1.73472e-06
-3.98976e-06
-1.43524e-06
-3.99302e-06
-1.14516e-06
-3.99579e-06
-8.62549e-07
-3.99913e-06
-5.85076e-07
-4.0038e-06
-3.10097e-07
-4.01025e-06
-3.47691e-08
-4.0186e-06
2.43852e-07
-4.02867e-06
5.28727e-07
-4.03989e-06
8.22728e-07
-4.05128e-06
1.12853e-06
-4.06136e-06
1.44846e-06
-4.0681e-06
1.78435e-06
-4.06876e-06
2.13729e-06
-4.05982e-06
2.50737e-06
-4.0369e-06
2.89333e-06
-3.99469e-06
3.29216e-06
-3.92692e-06
3.69855e-06
-3.82654e-06
4.10438e-06
-3.68596e-06
4.49805e-06
-3.49762e-06
4.86383e-06
-3.25483e-06
5.1814e-06
-2.95307e-06
5.42541e-06
-2.59165e-06
5.56566e-06
-2.17579e-06
5.56775e-06
-1.71883e-06
5.3947e-06
-1.24416e-06
5.00968e-06
-7.86362e-07
4.37983e-06
-3.90641e-07
3.48077e-06
-1.10087e-07
2.30125e-06
8.48451e-07
-8.70918e-08
-7.11171e-07
-3.14109e-07
-1.92361e-06
-6.42711e-07
-2.91254e-06
-1.03554e-06
-3.67872e-06
-1.45972e-06
-4.23424e-06
-1.88865e-06
-4.59883e-06
-2.30248e-06
-4.79692e-06
-2.68777e-06
-4.855e-06
-3.0365e-06
-4.79939e-06
-3.345e-06
-4.65477e-06
-3.61274e-06
-4.44313e-06
-3.8414e-06
-4.18343e-06
-4.03399e-06
-3.89137e-06
-4.19425e-06
-3.5796e-06
-4.32619e-06
-3.25794e-06
-4.43379e-06
-2.93374e-06
-4.5208e-06
-2.61219e-06
-4.59062e-06
-2.29674e-06
-4.64627e-06
-1.98931e-06
-4.69033e-06
-1.69066e-06
-4.72498e-06
-1.40059e-06
-4.75201e-06
-1.11812e-06
-4.77285e-06
-8.41716e-07
-4.78854e-06
-5.69384e-07
-4.79981e-06
-2.98826e-07
-4.80704e-06
-2.75407e-08
-4.81026e-06
2.47074e-07
-4.80915e-06
5.27615e-07
-4.80298e-06
8.16561e-07
-4.7906e-06
1.11615e-06
-4.77037e-06
1.42823e-06
-4.7401e-06
1.75407e-06
-4.69699e-06
2.09418e-06
-4.63759e-06
2.44798e-06
-4.55779e-06
2.81353e-06
-4.4528e-06
3.18717e-06
-4.31728e-06
3.56304e-06
-4.14555e-06
3.93265e-06
-3.93196e-06
4.28445e-06
-3.67145e-06
4.60333e-06
-3.36045e-06
4.8704e-06
-2.99794e-06
5.06291e-06
-2.58689e-06
5.15461e-06
-2.13573e-06
5.11659e-06
-1.65991e-06
4.91888e-06
-1.18299e-06
4.53276e-06
-7.36937e-07
3.93378e-06
-3.61257e-07
3.10509e-06
-1.00492e-07
2.04049e-06
7.47959e-07
-8.15809e-08
-6.2959e-07
-2.96909e-07
-1.70828e-06
-6.13378e-07
-2.59607e-06
-9.988e-07
-3.2933e-06
-1.42406e-06
-3.80898e-06
-1.86461e-06
-4.15828e-06
-2.30112e-06
-4.36042e-06
-2.71938e-06
-4.43673e-06
-3.10985e-06
-4.40892e-06
-3.46685e-06
-4.29777e-06
-3.78774e-06
-4.12225e-06
-4.07213e-06
-3.89904e-06
-4.32121e-06
-3.64229e-06
-4.53716e-06
-3.36366e-06
-4.7227e-06
-3.07239e-06
-4.88084e-06
-2.7756e-06
-5.01457e-06
-2.47846e-06
-5.12676e-06
-2.18456e-06
-5.22001e-06
-1.89605e-06
-5.29667e-06
-1.614e-06
-5.35875e-06
-1.33851e-06
-5.40791e-06
-1.06896e-06
-5.44549e-06
-8.04138e-07
-5.47247e-06
-5.42403e-07
-5.4895e-06
-2.81797e-07
-5.49687e-06
-2.01658e-08
-5.49453e-06
2.44733e-07
-5.48204e-06
5.15123e-07
-5.45857e-06
7.93086e-07
-5.42285e-06
1.08043e-06
-5.37318e-06
1.37856e-06
-5.30737e-06
1.68826e-06
-5.22272e-06
2.00953e-06
-5.11603e-06
2.34128e-06
-4.98363e-06
2.68113e-06
-4.82146e-06
3.02501e-06
-4.62526e-06
3.36684e-06
-4.39082e-06
3.69821e-06
-4.11436e-06
4.00799e-06
-3.79319e-06
4.28215e-06
-3.4264e-06
4.5036e-06
-3.01582e-06
4.65234e-06
-2.56716e-06
4.70594e-06
-2.091e-06
4.64044e-06
-1.60388e-06
4.43175e-06
-1.12875e-06
4.05763e-06
-6.94926e-07
3.49995e-06
-3.36983e-07
2.74715e-06
-9.27315e-08
1.79623e-06
6.55227e-07
-7.74054e-08
-5.52185e-07
-2.83716e-07
-1.50197e-06
-5.90539e-07
-2.28925e-06
-9.6963e-07
-2.91421e-06
-1.3949e-06
-3.38371e-06
-1.84366e-06
-3.70952e-06
-2.29727e-06
-3.90681e-06
-2.74125e-06
-3.99274e-06
-3.16507e-06
-3.9851e-06
-3.5616e-06
-3.90124e-06
-3.92657e-06
-3.75728e-06
-4.25791e-06
-3.56769e-06
-4.55525e-06
-3.34495e-06
-4.81937e-06
-3.09954e-06
-5.05183e-06
-2.83994e-06
-5.25463e-06
-2.5728e-06
-5.43e-06
-2.30309e-06
-5.58022e-06
-2.03434e-06
-5.70744e-06
-1.76883e-06
-5.81368e-06
-1.50777e-06
-5.90068e-06
-1.25151e-06
-5.96994e-06
-9.99701e-07
-6.02264e-06
-7.51434e-07
-6.05966e-06
-5.0538e-07
-6.08155e-06
-2.59912e-07
-6.08849e-06
-1.32176e-08
-6.08036e-06
2.36594e-07
-6.05661e-06
4.91378e-07
-6.01636e-06
7.52837e-07
-5.95832e-06
1.02239e-06
-5.88079e-06
1.30103e-06
-5.78169e-06
1.58916e-06
-5.65852e-06
1.88636e-06
-5.50847e-06
2.19123e-06
-5.32844e-06
2.50111e-06
-5.11522e-06
2.81179e-06
-4.86566e-06
3.11728e-06
-4.57699e-06
3.40954e-06
-4.24723e-06
3.67823e-06
-3.87572e-06
3.91065e-06
-3.46382e-06
4.09169e-06
-3.0156e-06
4.20413e-06
-2.53875e-06
4.22909e-06
-2.04527e-06
4.14695e-06
-1.55205e-06
3.93854e-06
-1.08112e-06
3.58669e-06
-6.59211e-07
3.07805e-06
-3.1681e-07
2.40475e-06
-8.63899e-08
1.56581e-06
5.68838e-07
-7.42332e-08
-4.77952e-07
-2.73598e-07
-1.30261e-06
-5.72824e-07
-1.99002e-06
-9.46669e-07
-2.54036e-06
-1.37146e-06
-2.95893e-06
-1.8261e-06
-3.25488e-06
-2.2927e-06
-3.44021e-06
-2.75677e-06
-3.52867e-06
-3.20717e-06
-3.53471e-06
-3.63574e-06
-3.47266e-06
-4.03697e-06
-3.35606e-06
-4.40746e-06
-3.1972e-06
-4.74551e-06
-3.00689e-06
-5.05072e-06
-2.79433e-06
-5.32357e-06
-2.56709e-06
-5.56517e-06
-2.3312e-06
-5.77698e-06
-2.09127e-06
-5.96068e-06
-1.85064e-06
-6.11796e-06
-1.61155e-06
-6.25044e-06
-1.37529e-06
-6.35959e-06
-1.14236e-06
-6.44668e-06
-9.12608e-07
-6.51273e-06
-6.85387e-07
-6.55846e-06
-4.59649e-07
-6.5843e-06
-2.34072e-07
-6.59036e-06
-7.16402e-09
-6.57639e-06
2.22629e-07
-6.54183e-06
4.56819e-07
-6.48575e-06
6.96759e-07
-6.40689e-06
9.43525e-07
-6.30362e-06
1.19777e-06
-6.17404e-06
1.45958e-06
-6.01596e-06
1.72828e-06
-5.82701e-06
2.00228e-06
-5.60474e-06
2.27883e-06
-5.34679e-06
2.55383e-06
-5.05111e-06
2.82161e-06
-4.71631e-06
3.07473e-06
-4.34198e-06
3.3039e-06
-3.92924e-06
3.49791e-06
-3.48126e-06
3.64372e-06
-3.00388e-06
3.72674e-06
-2.50617e-06
3.73138e-06
-2.00097e-06
3.64175e-06
-1.50517e-06
3.44274e-06
-1.03967e-06
3.12119e-06
-6.28935e-07
2.66731e-06
-3.00018e-07
2.07583e-06
-8.11825e-08
1.34698e-06
4.87655e-07
-7.1825e-08
-4.06127e-07
-2.65861e-07
-1.10857e-06
-5.59162e-07
-1.69672e-06
-9.28768e-07
-2.17076e-06
-1.3529e-06
-2.53479e-06
-1.81182e-06
-2.79596e-06
-2.28833e-06
-2.9637e-06
-2.76809e-06
-3.04891e-06
-3.23957e-06
-3.06323e-06
-3.69392e-06
-3.01831e-06
-4.12468e-06
-2.9253e-06
-4.52741e-06
-2.79447e-06
-4.89936e-06
-2.63495e-06
-5.23907e-06
-2.45462e-06
-5.54613e-06
-2.26004e-06
-5.82081e-06
-2.05652e-06
-6.0639e-06
-1.84818e-06
-6.27649e-06
-1.63806e-06
-6.45979e-06
-1.42825e-06
-6.61506e-06
-1.22003e-06
-6.74346e-06
-1.01396e-06
-6.84601e-06
-8.10049e-07
-6.92355e-06
-6.07848e-07
-6.97665e-06
-4.06553e-07
-7.0056e-06
-2.05116e-07
-7.01043e-06
-2.33945e-09
-6.99082e-06
2.03021e-07
-6.94617e-06
4.12167e-07
-6.87555e-06
6.26144e-07
-6.77776e-06
8.45731e-07
-6.65131e-06
1.07132e-06
-6.49451e-06
1.30277e-06
-6.30551e-06
1.53928e-06
-6.08243e-06
1.7792e-06
-5.82346e-06
2.01986e-06
-5.52707e-06
2.25745e-06
-5.19228e-06
2.48681e-06
-4.81887e-06
2.70133e-06
-4.40785e-06
2.89288e-06
-3.96179e-06
3.05185e-06
-3.48532e-06
3.16725e-06
-2.98559e-06
3.22701e-06
-2.47265e-06
3.21844e-06
-1.95981e-06
3.12891e-06
-1.46368e-06
2.94661e-06
-1.00407e-06
2.66159e-06
-6.03451e-07
2.26669e-06
-2.86089e-07
1.75847e-06
-7.69106e-08
1.1378e-06
4.10745e-07
-7.00058e-08
-3.36121e-07
-2.59984e-07
-9.18592e-07
-5.48718e-07
-1.40798e-06
-9.14977e-07
-1.8045e-06
-1.33846e-06
-2.11131e-06
-1.80052e-06
-2.33391e-06
-2.28459e-06
-2.47963e-06
-2.77651e-06
-2.55699e-06
-3.26458e-06
-2.57516e-06
-3.73945e-06
-2.54344e-06
-4.19395e-06
-2.4708e-06
-4.62284e-06
-2.36558e-06
-5.02251e-06
-2.23528e-06
-5.39067e-06
-2.08645e-06
-5.72612e-06
-1.92459e-06
-6.02843e-06
-1.75421e-06
-6.29778e-06
-1.57883e-06
-6.53471e-06
-1.40112e-06
-6.74002e-06
-1.22294e-06
-6.91459e-06
-1.04546e-06
-7.0593e-06
-8.6925e-07
-7.17493e-06
-6.94419e-07
-7.26212e-06
-5.20664e-07
-7.32128e-06
-3.47391e-07
-7.3526e-06
-1.73791e-07
-7.35601e-06
1.06876e-09
-7.33115e-06
1.78156e-07
-7.27738e-06
3.58398e-07
-7.19381e-06
5.42575e-07
-7.07931e-06
7.31231e-07
-6.93255e-06
9.24563e-07
-6.75208e-06
1.12231e-06
-6.53641e-06
1.32361e-06
-6.28411e-06
1.5269e-06
-5.99401e-06
1.72976e-06
-5.66535e-06
1.92879e-06
-5.29805e-06
2.11951e-06
-4.89298e-06
2.29625e-06
-4.45227e-06
2.45218e-06
-3.97971e-06
2.57929e-06
-3.48106e-06
2.6686e-06
-2.96444e-06
2.71038e-06
-2.44056e-06
2.69457e-06
-1.92294e-06
2.61128e-06
-1.42783e-06
2.4515e-06
-9.74014e-07
2.20777e-06
-5.82278e-07
1.87495e-06
-2.74651e-07
1.45084e-06
-7.34337e-08
9.36583e-07
3.37311e-07
-6.86476e-08
-2.67473e-07
-2.55579e-07
-7.31661e-07
-5.40853e-07
-1.12271e-06
-9.04534e-07
-1.44082e-06
-1.32746e-06
-1.68838e-06
-1.79182e-06
-1.86955e-06
-2.28161e-06
-1.98984e-06
-2.78287e-06
-2.05573e-06
-3.28378e-06
-2.07425e-06
-3.77467e-06
-2.05254e-06
-4.24788e-06
-1.99759e-06
-4.69754e-06
-1.91592e-06
-5.11937e-06
-1.81346e-06
-5.51042e-06
-1.6954e-06
-5.86883e-06
-1.56618e-06
-6.1936e-06
-1.42943e-06
-6.48438e-06
-1.28805e-06
-6.74126e-06
-1.14424e-06
-6.96464e-06
-9.9956e-07
-7.15508e-06
-8.55014e-07
-7.31319e-06
-7.11139e-07
-7.43954e-06
-5.68071e-07
-7.53458e-06
-4.25626e-07
-7.59859e-06
-2.83379e-07
-7.63165e-06
-1.4073e-07
-7.6336e-06
3.02216e-09
-7.60405e-06
1.48604e-07
-7.54235e-06
2.96701e-07
-7.44766e-06
4.47876e-07
-7.31892e-06
6.0249e-07
-7.15497e-06
7.60612e-07
-6.95459e-06
9.21928e-07
-6.71662e-06
1.08564e-06
-6.44008e-06
1.25036e-06
-6.12434e-06
1.41403e-06
-5.76933e-06
1.57378e-06
-5.37574e-06
1.72592e-06
-4.94532e-06
1.86583e-06
-4.48116e-06
1.98801e-06
-3.98796e-06
2.0861e-06
-3.47238e-06
2.15302e-06
-2.94322e-06
2.18122e-06
-2.41164e-06
2.16299e-06
-1.8912e-06
2.09085e-06
-1.39778e-06
1.95808e-06
-9.49259e-07
1.75925e-06
-5.6506e-07
1.49075e-06
-2.65435e-07
1.15121e-06
-7.06524e-08
7.41801e-07
2.66659e-07
-6.76569e-08
-1.99816e-07
-2.52356e-07
-5.46962e-07
-5.35081e-07
-8.39984e-07
-8.9684e-07
-1.07906e-06
-1.31931e-06
-1.26591e-06
-1.78536e-06
-1.4035e-06
-2.27938e-06
-1.49581e-06
-2.78761e-06
-1.5475e-06
-3.2982e-06
-1.56366e-06
-3.80125e-06
-1.54949e-06
-4.28874e-06
-1.5101e-06
-4.75434e-06
-1.45032e-06
-5.19328e-06
-1.37452e-06
-5.60208e-06
-1.2866e-06
-5.9784e-06
-1.18986e-06
-6.32074e-06
-1.08708e-06
-6.62834e-06
-9.80456e-07
-6.90092e-06
-8.71667e-07
-7.13855e-06
-7.61931e-07
-7.34151e-06
-6.52047e-07
-7.5102e-06
-5.42453e-07
-7.64498e-06
-4.33289e-07
-7.74616e-06
-3.24449e-07
-7.8139e-06
-2.15643e-07
-7.84817e-06
-1.06451e-07
-7.84877e-06
3.62323e-09
-7.81527e-06
1.15096e-07
-7.74701e-06
2.28448e-07
-7.6432e-06
3.44063e-07
-7.50287e-06
4.62164e-07
-7.32501e-06
5.82751e-07
-7.10861e-06
7.05527e-07
-6.8528e-06
8.29825e-07
-6.55697e-06
9.54531e-07
-6.22096e-06
1.07802e-06
-5.84525e-06
1.19807e-06
-5.43118e-06
1.31185e-06
-4.9812e-06
1.41585e-06
-4.49912e-06
1.50593e-06
-3.99038e-06
1.57735e-06
-3.46224e-06
1.62489e-06
-2.92403e-06
1.64301e-06
-2.38717e-06
1.62612e-06
-1.8652e-06
1.56888e-06
-1.37363e-06
1.46651e-06
-9.29635e-07
1.31525e-06
-5.51542e-07
1.11266e-06
-2.5825e-07
8.57923e-07
-6.84962e-08
5.52047e-07
1.98162e-07
-6.69666e-08
-1.3285e-07
-2.50105e-07
-3.63824e-07
-5.31041e-07
-5.59049e-07
-8.91444e-07
-7.18656e-07
-1.31359e-06
-8.43763e-07
-1.78081e-06
-9.36288e-07
-2.27782e-06
-9.98796e-07
-2.79101e-06
-1.03431e-06
-3.30853e-06
-1.04614e-06
-3.82033e-06
-1.03769e-06
-4.31813e-06
-1.0123e-06
-4.79531e-06
-9.73138e-07
-5.24672e-06
-9.23114e-07
-5.66851e-06
-8.648e-07
-6.05796e-06
-8.00413e-07
-6.41325e-06
-7.31799e-07
-6.73326e-06
-6.60442e-07
-7.01745e-06
-5.87483e-07
-7.26563e-06
-5.13751e-07
-7.47788e-06
-4.39799e-07
-7.65439e-06
-3.65937e-07
-7.79541e-06
-2.92276e-07
-7.90109e-06
-2.1876e-07
-7.97152e-06
-1.45213e-07
-8.00661e-06
-7.13664e-08
-8.00608e-06
3.09519e-09
-7.96949e-06
7.85011e-08
-7.89619e-06
1.55154e-07
-7.78542e-06
2.33292e-07
-7.6363e-06
3.13041e-07
-7.44792e-06
3.94375e-07
-7.21946e-06
4.77066e-07
-6.95027e-06
5.60637e-07
-6.64005e-06
6.44309e-07
-6.289e-06
7.26962e-07
-5.89801e-06
8.07085e-07
-5.46892e-06
8.82756e-07
-5.00469e-06
9.51624e-07
-4.50968e-06
1.01092e-06
-3.98982e-06
1.0575e-06
-3.45285e-06
1.08792e-06
-2.9084e-06
1.09856e-06
-2.36807e-06
1.08579e-06
-1.84536e-06
1.04616e-06
-1.35547e-06
9.76625e-07
-9.15013e-07
8.74801e-07
-5.41542e-07
7.39189e-07
-2.52964e-07
5.69345e-07
-6.69163e-08
3.65999e-07
1.31246e-07
-6.65304e-08
-6.63192e-08
-2.48682e-07
-1.81672e-07
-5.28482e-07
-2.79249e-07
-8.8802e-07
-3.59117e-07
-1.30995e-06
-4.21829e-07
-1.77792e-06
-4.68325e-07
-2.27685e-06
-4.99865e-07
-2.79322e-06
-5.17936e-07
-3.3152e-06
-5.24166e-07
-3.83266e-06
-5.20234e-07
-4.33716e-06
-5.07796e-07
-4.82187e-06
-4.88426e-07
-5.28142e-06
-4.63566e-07
-5.71172e-06
-4.34502e-07
-6.10979e-06
-4.02341e-07
-6.47358e-06
-3.68008e-07
-6.80178e-06
-3.3225e-07
-7.09362e-06
-2.95642e-07
-7.34876e-06
-2.58606e-07
-7.56714e-06
-2.21422e-07
-7.74882e-06
-1.84253e-07
-7.89394e-06
-1.47157e-07
-8.00259e-06
-1.10113e-07
-8.07477e-06
-7.30355e-08
-8.11034e-06
-3.57965e-08
-8.109e-06
1.75815e-09
-8.07029e-06
3.97884e-08
-7.99357e-06
7.84407e-08
-7.87811e-06
1.17827e-07
-7.72307e-06
1.58005e-07
-7.52765e-06
1.98953e-07
-7.29113e-06
2.40549e-07
-7.01304e-06
2.82543e-07