/*--------------------------------*- C++ -*----------------------------------*\
  =========                 |
  \\      /  F ield         | OpenFOAM: The Open Source CFD Toolbox
   \\    /   O peration     | Website:  https://openfoam.org
    \\  /    A nd           | Version:  7
     \\/     M anipulation  |
\*---------------------------------------------------------------------------*/
FoamFile
{
    version     2.0;
    format      ascii;
    class       surfaceScalarField;
    location    "0.0006";
    object      phi;
}
// * * * * * * * * * * * * * * * * * * * * * * * * * * * * * * * * * * * * * //

dimensions      [0 3 -1 0 0 0 0];

internalField   nonuniform List<scalar> 
4900
(
-1.09763e-09
1.09758e-09
-4.3768e-09
3.27918e-09
-8.7479e-09
4.37111e-09
-1.34128e-08
4.66485e-09
-1.80955e-08
4.6827e-09
-2.27058e-08
4.6103e-09
-2.72076e-08
4.50187e-09
-3.158e-08
4.37237e-09
-3.58053e-08
4.22533e-09
-3.98667e-08
4.06138e-09
-4.37476e-08
3.88093e-09
-4.74323e-08
3.68462e-09
-5.09056e-08
3.47331e-09
-5.41535e-08
3.24797e-09
-5.71632e-08
3.00966e-09
-5.99226e-08
2.75943e-09
-6.2421e-08
2.49837e-09
-6.46486e-08
2.22761e-09
-6.65969e-08
1.94825e-09
-6.82583e-08
1.66145e-09
-6.96267e-08
1.36834e-09
-7.06968e-08
1.07012e-09
-7.14647e-08
7.6797e-10
-7.19277e-08
4.63014e-10
-7.20841e-08
1.56356e-10
-7.19332e-08
-1.50895e-10
-7.14756e-08
-4.57622e-10
-7.07129e-08
-7.62694e-10
-6.9648e-08
-1.06488e-09
-6.8285e-08
-1.36295e-09
-6.66292e-08
-1.65579e-09
-6.46869e-08
-1.94234e-09
-6.24654e-08
-2.22147e-09
-5.99734e-08
-2.49203e-09
-5.72205e-08
-2.75294e-09
-5.42174e-08
-3.00308e-09
-5.09762e-08
-3.24121e-09
-4.751e-08
-3.46617e-09
-4.3833e-08
-3.677e-09
-3.99603e-08
-3.87278e-09
-3.59077e-08
-4.05251e-09
-3.16924e-08
-4.21538e-09
-2.73313e-08
-4.36109e-09
-2.28417e-08
-4.48959e-09
-1.82428e-08
-4.59886e-09
-1.35662e-08
-4.67661e-09
-8.89478e-09
-4.67144e-09
-4.49132e-09
-4.40347e-09
-1.09863e-09
-3.39268e-09
-1.09865e-09
-3.5e-09
4.59759e-09
-1.05511e-08
1.03302e-08
-1.9132e-08
1.29521e-08
-2.82439e-08
1.37768e-08
-3.74323e-08
1.38711e-08
-4.65131e-08
1.36911e-08
-5.54021e-08
1.33909e-08
-6.40476e-08
1.30179e-08
-7.24086e-08
1.25863e-08
-8.04482e-08
1.2101e-08
-8.8132e-08
1.15647e-08
-9.54277e-08
1.09803e-08
-1.02305e-07
1.03508e-08
-1.08736e-07
9.67919e-09
-1.14695e-07
8.96874e-09
-1.20159e-07
8.22271e-09
-1.25105e-07
7.44444e-09
-1.29514e-07
6.63728e-09
-1.33371e-07
5.8046e-09
-1.36659e-07
4.9498e-09
-1.39367e-07
4.07633e-09
-1.41485e-07
3.18764e-09
-1.43004e-07
2.28717e-09
-1.43919e-07
1.37828e-09
-1.44227e-07
4.64296e-10
-1.43926e-07
-4.51463e-10
-1.43018e-07
-1.36566e-09
-1.41506e-07
-2.27494e-09
-1.39395e-07
-3.17579e-09
-1.36694e-07
-4.06467e-09
-1.33411e-07
-4.93821e-09
-1.2956e-07
-5.79314e-09
-1.25156e-07
-6.62608e-09
-1.20214e-07
-7.43358e-09
-1.14755e-07
-8.21233e-09
-1.08799e-07
-8.95895e-09
-1.0237e-07
-9.66988e-09
-9.54947e-08
-1.03417e-08
-8.82002e-08
-1.09715e-08
-8.05168e-08
-1.15561e-08
-7.24766e-08
-1.20928e-08
-6.41134e-08
-1.25786e-08
-5.54631e-08
-1.30113e-08
-4.6565e-08
-1.33877e-08
-3.74674e-08
-1.36965e-08
-2.82496e-08
-1.38943e-08
-1.90911e-08
-1.383e-08
-1.04488e-08
-1.30458e-08
-3.3918e-09
-1.04497e-08
-4.49043e-09
-4.46133e-09
9.05893e-09
-1.32283e-08
1.90972e-08
-2.36892e-08
2.3413e-08
-3.46936e-08
2.47812e-08
-4.57595e-08
2.4937e-08
-5.66891e-08
2.46208e-08
-6.73882e-08
2.40899e-08
-7.77956e-08
2.34253e-08
-8.78614e-08
2.26521e-08
-9.75406e-08
2.17802e-08
-1.06791e-07
2.08155e-08
-1.15575e-07
1.97637e-08
-1.23854e-07
1.86303e-08
-1.31596e-07
1.74209e-08
-1.38769e-07
1.61415e-08
-1.45344e-07
1.47981e-08
-1.51297e-07
1.33968e-08
-1.56603e-07
1.19435e-08
-1.61243e-07
1.04445e-08
-1.65199e-07
8.90596e-09
-1.68457e-07
7.33393e-09
-1.71003e-07
5.73461e-09
-1.7283e-07
4.11414e-09
-1.73931e-07
2.47853e-09
-1.743e-07
8.33793e-10
-1.73938e-07
-8.14097e-10
-1.72844e-07
-2.45916e-09
-1.71024e-07
-4.09537e-09
-1.68483e-07
-5.71657e-09
-1.65231e-07
-7.31656e-09
-1.6128e-07
-8.88927e-09
-1.56644e-07
-1.04287e-08
-1.51342e-07
-1.19287e-08
-1.45392e-07
-1.33831e-08
-1.38819e-07
-1.47859e-08
-1.31647e-07
-1.61308e-08
-1.23905e-07
-1.74117e-08
-1.15624e-07
-1.86225e-08
-1.06838e-07
-1.97575e-08
-9.75832e-08
-2.08112e-08
-8.7898e-08
-2.1778e-08
-7.78237e-08
-2.26529e-08
-6.74045e-08
-2.34306e-08
-5.66893e-08
-2.41029e-08
-4.57386e-08
-2.46472e-08
-3.46478e-08
-2.49851e-08
-2.36197e-08
-2.48581e-08
-1.31532e-08
-2.35123e-08
-4.43681e-09
-1.9166e-08
-8.92723e-09
-4.7834e-09
1.38423e-08
-1.42173e-08
2.85311e-08
-2.5453e-08
3.46487e-08
-3.7229e-08
3.65573e-08
-4.90453e-08
3.67532e-08
-6.07042e-08
3.62797e-08
-7.21118e-08
3.54975e-08
-8.32057e-08
3.45192e-08
-9.3934e-08
3.33803e-08
-1.04249e-07
3.20952e-08
-1.14107e-07
3.06731e-08
-1.23465e-07
2.91222e-08
-1.32286e-07
2.74509e-08
-1.40532e-07
2.56677e-08
-1.48172e-07
2.37814e-08
-1.55175e-07
2.18009e-08
-1.61513e-07
1.97352e-08
-1.67163e-07
1.75933e-08
-1.72103e-07
1.53844e-08
-1.76314e-07
1.31174e-08
-1.79782e-07
1.08014e-08
-1.82493e-07
8.4454e-09
-1.84437e-07
6.0584e-09
-1.85608e-07
3.64922e-09
-1.86e-07
1.22666e-09
-1.85614e-07
-1.2005e-09
-1.8445e-07
-3.62346e-09
-1.82512e-07
-6.03344e-09
-1.79807e-07
-8.42152e-09
-1.76345e-07
-1.07787e-08
-1.72138e-07
-1.3096e-08
-1.67202e-07
-1.53646e-08
-1.61555e-07
-1.75754e-08
-1.55219e-07
-1.97194e-08
-1.48217e-07
-2.17875e-08
-1.40577e-07
-2.37706e-08
-1.3233e-07
-2.56596e-08
-1.23506e-07
-2.74456e-08
-1.14144e-07
-2.912e-08
-1.04281e-07
-3.06744e-08
-9.39579e-08
-3.21007e-08
-8.32199e-08
-3.33909e-08
-7.21138e-08
-3.45366e-08
-6.06918e-08
-3.55249e-08
-4.90172e-08
-3.63218e-08
-3.71871e-08
-3.68152e-08
-2.54052e-08
-3.664e-08
-1.4182e-08
-3.47356e-08
-4.78429e-09
-2.85637e-08
-1.37115e-08
-4.90121e-09
1.87435e-08
-1.46313e-08
3.82611e-08
-2.62371e-08
4.62545e-08
-3.83907e-08
4.87109e-08
-5.05738e-08
4.89363e-08
-6.25863e-08
4.82923e-08
-7.43346e-08
4.72457e-08
-8.57562e-08
4.59408e-08
-9.67987e-08
4.44229e-08
-1.07414e-07
4.27104e-08
-1.17556e-07
4.08156e-08
-1.27184e-07
3.87495e-08
-1.36256e-07
3.65233e-08
-1.44737e-07
3.41484e-08
-1.52592e-07
3.16367e-08
-1.59791e-07
2.89999e-08
-1.66306e-07
2.62503e-08
-1.72113e-07
2.33998e-08
-1.77189e-07
2.04605e-08
-1.81516e-07
1.74444e-08
-1.85078e-07
1.43637e-08
-1.87863e-07
1.12301e-08
-1.8986e-07
8.05553e-09
-1.91063e-07
4.85167e-09
-1.91466e-07
1.63013e-09
-1.91069e-07
-1.59747e-09
-1.89873e-07
-4.8195e-09
-1.87882e-07
-8.02437e-09
-1.85103e-07
-1.12004e-08
-1.81546e-07
-1.43357e-08
-1.77224e-07
-1.74184e-08
-1.72152e-07
-2.04368e-08
-1.66348e-07
-2.33788e-08
-1.59835e-07
-2.62325e-08
-1.52637e-07
-2.89856e-08
-1.44782e-07
-3.1626e-08
-1.363e-07
-3.41417e-08
-1.27224e-07
-3.65207e-08
-1.17593e-07
-3.87515e-08
-1.07445e-07
-4.08226e-08
-9.68224e-08
-4.27231e-08
-8.57712e-08
-4.44422e-08
-7.43395e-08
-4.59683e-08
-6.25805e-08
-4.72839e-08
-5.05581e-08
-4.83442e-08
-3.8369e-08
-4.90042e-08
-2.62175e-08
-4.87916e-08
-1.46252e-08
-4.63279e-08
-4.91407e-09
-3.82748e-08
-1.86256e-08
-4.98734e-09
2.37309e-08
-1.49264e-08
4.82002e-08
-2.68001e-08
5.81282e-08
-3.92355e-08
6.11463e-08
-5.16971e-08
6.13979e-08
-6.39797e-08
6.05749e-08
-7.59879e-08
5.92539e-08
-8.76587e-08
5.76116e-08
-9.89392e-08
5.57033e-08
-1.0978e-07
5.35516e-08
-1.20136e-07
5.11715e-08
-1.29964e-07
4.8577e-08
-1.39223e-07
4.57822e-08
-1.47876e-07
4.28015e-08
-1.55889e-07
3.96497e-08
-1.63231e-07
3.6342e-08
-1.69874e-07
3.28935e-08
-1.75794e-07
2.93192e-08
-1.80968e-07
2.56345e-08
-1.85377e-07
2.18543e-08
-1.89008e-07
1.79937e-08
-1.91845e-07
1.40675e-08
-1.9388e-07
1.00903e-08
-1.95105e-07
6.07674e-09
-1.95516e-07
2.04126e-09
-1.95112e-07
-2.00174e-09
-1.93893e-07
-6.03783e-09
-1.91865e-07
-1.00526e-08
-1.89034e-07
-1.40316e-08
-1.85409e-07
-1.79601e-08
-1.81004e-07
-2.18234e-08
-1.75834e-07
-2.56067e-08
-1.69918e-07
-2.92951e-08
-1.63277e-07
-3.28734e-08
-1.55936e-07
-3.63264e-08
-1.47923e-07
-3.9639e-08
-1.39269e-07
-4.27959e-08
-1.30008e-07
-4.5782e-08
-1.20177e-07
-4.85827e-08
-1.09816e-07
-5.11836e-08
-9.89684e-08
-5.35705e-08
-8.76806e-08
-5.573e-08
-7.60018e-08
-5.76471e-08
-6.39859e-08
-5.92998e-08
-5.16972e-08
-6.06329e-08
-3.92334e-08
-6.1468e-08
-2.68018e-08
-6.12232e-08
-1.49377e-08
-5.8192e-08
-5.00529e-09
-4.82072e-08
-2.36309e-08
-5.09029e-09
2.88212e-08
-1.525e-08
5.83598e-08
-2.73985e-08
7.02768e-08
-4.01251e-08
7.38728e-08
-5.28777e-08
7.41505e-08
-6.54446e-08
7.31418e-08
-7.77275e-08
7.15368e-08
-8.96619e-08
6.95461e-08
-1.01194e-07
6.72353e-08
-1.12273e-07
6.46312e-08
-1.22854e-07
6.1752e-08
-1.32892e-07
5.86146e-08
-1.42346e-07
5.52362e-08
-1.51178e-07
5.16343e-08
-1.59356e-07
4.7827e-08
-1.66846e-07
4.38325e-08
-1.73622e-07
3.96691e-08
-1.79658e-07
3.53553e-08
-1.84932e-07
3.09093e-08
-1.89427e-07
2.63493e-08
-1.93127e-07
2.16932e-08
-1.96018e-07
1.69587e-08
-1.98091e-07
1.21635e-08
-1.9934e-07
7.32497e-09
-1.99759e-07
2.46029e-09
-1.99347e-07
-2.41337e-09
-1.98106e-07
-7.2788e-09
-1.9604e-07
-1.21188e-08
-1.93155e-07
-1.69162e-08
-1.89462e-07
-2.16534e-08
-1.84972e-07
-2.63129e-08
-1.79702e-07
-3.08769e-08
-1.7367e-07
-3.53275e-08
-1.66897e-07
-3.96463e-08
-1.59408e-07
-4.38152e-08
-1.51231e-07
-4.78157e-08
-1.42398e-07
-5.16294e-08
-1.32942e-07
-5.5238e-08
-1.22901e-07
-5.86236e-08
-1.12316e-07
-6.17685e-08
-1.01231e-07
-6.46555e-08
-8.96926e-08
-6.72681e-08
-7.77517e-08
-6.95881e-08
-6.54627e-08
-7.15887e-08
-5.28914e-08
-7.32042e-08
-4.01373e-08
-7.42221e-08
-2.74132e-08
-7.39473e-08
-1.52693e-08
-7.03359e-08
-5.1089e-09
-5.83676e-08
-2.87398e-08
-5.21948e-09
3.40407e-08
-1.56404e-08
6.87807e-08
-2.81065e-08
8.2743e-08
-4.11682e-08
8.69345e-08
-5.42564e-08
8.72387e-08
-6.7152e-08
8.60375e-08
-7.97532e-08
8.4138e-08
-9.19934e-08
8.17863e-08
-1.03817e-07
7.90589e-08
-1.15173e-07
7.59871e-08
-1.26014e-07
7.25926e-08
-1.36294e-07
6.88953e-08
-1.45974e-07
6.49157e-08
-1.55014e-07
6.06745e-08
-1.6338e-07
5.61932e-08
-1.71041e-07
5.14935e-08
-1.77969e-07
4.65968e-08
-1.84139e-07
4.1525e-08
-1.89529e-07
3.62994e-08
-1.94121e-07
3.09414e-08
-1.979e-07
2.54718e-08
-2.00852e-07
1.99115e-08
-2.0297e-07
1.42807e-08
-2.04244e-07
8.59964e-09
-2.04672e-07
2.88835e-09
-2.04252e-07
-2.83332e-09
-2.02986e-07
-8.54549e-09
-2.00876e-07
-1.42283e-08
-1.97931e-07
-1.98616e-08
-1.94159e-07
-2.54254e-08
-1.89573e-07
-3.0899e-08
-1.84188e-07
-3.62619e-08
-1.78022e-07
-4.1493e-08
-1.71098e-07
-4.65709e-08
-1.63439e-07
-5.14742e-08
-1.55073e-07
-5.61811e-08
-1.46033e-07
-6.067e-08
-1.36352e-07
-6.49191e-08
-1.26068e-07
-6.89071e-08
-1.15223e-07
-7.2613e-08
-1.03863e-07
-7.60164e-08
-9.20334e-08
-7.90973e-08
-7.97873e-08
-8.18341e-08
-6.71807e-08
-8.41954e-08
-5.42808e-08
-8.61041e-08
-4.11904e-08
-8.73125e-08
-2.81286e-08
-8.70091e-08
-1.56626e-08
-8.28018e-08
-5.23677e-09
-6.87935e-08
-3.39766e-08
-5.3753e-09
3.9416e-08
-1.61059e-08
7.95114e-08
-2.89445e-08
9.55815e-08
-4.23972e-08
1.00387e-07
-5.58763e-08
1.00718e-07
-6.9155e-08
9.93161e-08
-8.21271e-08
9.71101e-08
-9.47237e-08
9.43829e-08
-1.06887e-07
9.12224e-08
-1.18565e-07
8.7665e-08
-1.29708e-07
8.3736e-08
-1.40272e-07
7.94586e-08
-1.50213e-07
7.48569e-08
-1.59494e-07
6.99552e-08
-1.68079e-07
6.47784e-08
-1.75937e-07
5.93517e-08
-1.8304e-07
5.37002e-08
-1.89364e-07
4.78488e-08
-1.94887e-07
4.18224e-08
-1.99591e-07
3.56454e-08
-2.03461e-07
2.93416e-08
-2.06485e-07
2.29349e-08
-2.08652e-07
1.64482e-08
-2.09957e-07
9.90466e-09
-2.10396e-07
3.32683e-09
-2.09966e-07
-3.26279e-09
-2.0867e-07
-9.84168e-09
-2.06511e-07
-1.63873e-08
-2.03496e-07
-2.28769e-08
-1.99633e-07
-2.92877e-08
-1.94936e-07
-3.55963e-08
-1.89419e-07
-4.17791e-08
-1.831e-07
-4.7812e-08
-1.76e-07
-5.36706e-08
-1.68144e-07
-5.93299e-08
-1.5956e-07
-6.4765e-08
-1.5028e-07
-6.99507e-08
-1.40337e-07
-7.48616e-08
-1.29771e-07
-7.94729e-08
-1.18625e-07
-8.376e-08
-1.06942e-07
-8.76989e-08
-9.47731e-08
-9.12661e-08
-8.21708e-08
-9.44365e-08
-6.9193e-08
-9.71732e-08
-5.59094e-08
-9.93877e-08
-4.24263e-08
-1.00796e-07
-2.89708e-08
-1.00465e-07
-1.6129e-08
-9.56437e-08
-5.39085e-09
-7.95316e-08
-3.93674e-08
-5.55758e-09
4.49736e-08
-1.66494e-08
9.06032e-08
-2.992e-08
1.08852e-07
-4.3825e-08
1.14292e-07
-5.77556e-08
1.14648e-07
-7.1476e-08
1.13036e-07
-8.48757e-08
1.1051e-07
-9.78829e-08
1.0739e-07
-1.10438e-07
1.03777e-07
-1.22486e-07
9.97131e-08
-1.33977e-07
9.5227e-08
-1.44864e-07
9.03461e-08
-1.55105e-07
8.5098e-08
-1.64661e-07
7.95109e-08
-1.73496e-07
7.36136e-08
-1.81579e-07
6.74349e-08
-1.88883e-07
6.10035e-08
-1.95382e-07
5.4348e-08
-2.01056e-07
4.74963e-08
-2.05887e-07
4.04763e-08
-2.0986e-07
3.33147e-08
-2.12963e-07
2.60383e-08
-2.15188e-07
1.86728e-08
-2.16527e-07
1.1244e-08
-2.16977e-07
3.77709e-09
-2.16537e-07
-3.703e-09
-2.15208e-07
-1.11712e-08
-2.12993e-07
-1.86024e-08
-2.09898e-07
-2.59713e-08
-2.05934e-07
-3.32524e-08
-2.0111e-07
-4.04197e-08
-1.95443e-07
-4.74464e-08
-1.88949e-07
-5.43056e-08
-1.8165e-07
-6.09696e-08
-1.7357e-07
-6.741e-08
-1.64737e-07
-7.35985e-08
-1.55181e-07
-7.9506e-08
-1.44939e-07
-8.51037e-08
-1.3405e-07
-9.03627e-08
-1.22555e-07
-9.52545e-08
-1.10502e-07
-9.97516e-08
-9.79419e-08
-1.03826e-07
-8.49287e-08
-1.0745e-07
-7.15225e-08
-1.10579e-07
-5.7796e-08
-1.13114e-07
-4.38597e-08
-1.14732e-07
-2.99494e-08
-1.14375e-07
-1.66727e-08
-1.0892e-07
-5.57168e-09
-9.06326e-08
-4.49391e-08
-5.76688e-09
5.07404e-08
-1.72734e-08
1.0211e-07
-3.10392e-08
1.22618e-07
-4.54614e-08
1.28714e-07
-5.99075e-08
1.29095e-07
-7.41318e-08
1.27261e-07
-8.80188e-08
1.24397e-07
-1.01493e-07
1.20864e-07
-1.14493e-07
1.16777e-07
-1.26961e-07
1.12181e-07
-1.38846e-07
1.07112e-07
-1.501e-07
1.016e-07
-1.6068e-07
9.56778e-08
-1.70546e-07
8.93769e-08
-1.79663e-07
8.27303e-08
-1.87999e-07
7.57708e-08
-1.95526e-07
6.85312e-08
-2.02222e-07
6.10434e-08
-2.08064e-07
5.3339e-08
-2.13037e-07
4.54488e-08
-2.17125e-07
3.7403e-08
-2.20318e-07
2.92308e-08
-2.22606e-07
2.0961e-08
-2.23983e-07
1.26216e-08
-2.24447e-07
4.24046e-09
-2.23995e-07
-4.15513e-09
-2.22628e-07
-1.25377e-08
-2.20351e-07
-2.08798e-08
-2.17168e-07
-2.91537e-08
-2.1309e-07
-3.73312e-08
-2.08126e-07
-4.53836e-08
-2.0229e-07
-5.32815e-08
-1.95601e-07
-6.09947e-08
-1.88079e-07
-6.84922e-08
-1.79747e-07
-7.57423e-08
-1.70632e-07
-8.27129e-08
-1.60767e-07
-8.93713e-08
-1.50186e-07
-9.56844e-08
-1.3893e-07
-1.01619e-07
-1.27041e-07
-1.07143e-07
-1.14568e-07
-1.12225e-07
-1.01562e-07
-1.16832e-07
-8.80811e-08
-1.20931e-07
-7.41867e-08
-1.24474e-07
-5.99549e-08
-1.27346e-07
-4.55013e-08
-1.29185e-07
-3.10714e-08
-1.28805e-07
-1.72972e-08
-1.22695e-07
-5.78e-09
-1.0215e-07
-5.07191e-08
-6.00434e-09
5.67447e-08
-1.79819e-08
1.14087e-07
-3.23093e-08
1.36945e-07
-4.73174e-08
1.43722e-07
-6.23466e-08
1.44124e-07
-7.71401e-08
1.42054e-07
-9.15766e-08
1.38833e-07
-1.05577e-07
1.34865e-07
-1.19077e-07
1.30276e-07
-1.32017e-07
1.25121e-07
-1.44344e-07
1.19439e-07
-1.56009e-07
1.13265e-07
-1.66967e-07
1.06636e-07
-1.77178e-07
9.95884e-08
-1.86608e-07
9.21599e-08
-1.95224e-07
8.43873e-08
-2.03e-07
7.63072e-08
-2.09913e-07
6.79557e-08
-2.15941e-07
5.93677e-08
-2.2107e-07
5.05774e-08
-2.25285e-07
4.16179e-08
-2.28575e-07
3.25213e-08
-2.30933e-07
2.33188e-08
-2.32353e-07
1.40412e-08
-2.3283e-07
4.71825e-09
-2.32365e-07
-4.62029e-09
-2.30958e-07
-1.39448e-08
-2.28612e-07
-2.32257e-08
-2.25333e-07
-3.24327e-08
-2.21129e-07
-4.15354e-08
-2.1601e-07
-5.05025e-08
-2.0999e-07
-5.93016e-08
-2.03085e-07
-6.78997e-08
-1.95315e-07
-7.62623e-08
-1.86703e-07
-8.43544e-08
-1.77276e-07
-9.21398e-08
-1.67066e-07
-9.95818e-08
-1.56107e-07
-1.06643e-07
-1.4444e-07
-1.13286e-07
-1.32109e-07
-1.19474e-07
-1.19164e-07
-1.2517e-07
-1.05657e-07
-1.30338e-07
-9.16489e-08
-1.34939e-07
-7.72037e-08
-1.38919e-07
-6.24011e-08
-1.42149e-07
-4.73623e-08
-1.44224e-07
-3.23444e-08
-1.43823e-07
-1.80064e-08
-1.37033e-07
-6.01689e-09
-1.14139e-07
-5.6736e-08
-6.27156e-09
6.30163e-08
-1.87795e-08
1.26595e-07
-3.37389e-08
1.51905e-07
-4.94055e-08
1.59389e-07
-6.50893e-08
1.59808e-07
-8.05209e-08
1.57486e-07
-9.55727e-08
1.53885e-07
-1.10162e-07
1.49454e-07
-1.24219e-07
1.44334e-07
-1.37685e-07
1.38587e-07
-1.50502e-07
1.32257e-07
-1.62622e-07
1.25385e-07
-1.73998e-07
1.18012e-07
-1.84591e-07
1.10181e-07
-1.94364e-07
1.01934e-07
-2.03289e-07
9.33114e-08
-2.11336e-07
8.43551e-08
-2.18486e-07
7.51048e-08
-2.24717e-07
6.55992e-08
-2.30015e-07
5.58756e-08
-2.34368e-07
4.59702e-08
-2.37764e-07
3.59179e-08
-2.40197e-07
2.57522e-08
-2.41662e-07
1.55061e-08
-2.42156e-07
5.21165e-09
-2.41677e-07
-5.09947e-09
-2.40226e-07
-1.53958e-08
-2.37806e-07
-2.56455e-08
-2.34422e-07
-3.58163e-08
-2.30082e-07
-4.58756e-08
-2.24795e-07
-5.57896e-08
-2.18573e-07
-6.55233e-08
-2.11432e-07
-7.50404e-08
-2.03391e-07
-8.43034e-08
-1.94472e-07
-9.32734e-08
-1.84702e-07
-1.0191e-07
-1.7411e-07
-1.10173e-07
-1.62734e-07
-1.1802e-07
-1.50612e-07
-1.25408e-07
-1.3779e-07
-1.32296e-07
-1.24319e-07
-1.38641e-07
-1.10254e-07
-1.44403e-07
-9.56559e-08
-1.49537e-07
-8.05939e-08
-1.53981e-07
-6.51513e-08
-1.57591e-07
-4.94558e-08
-1.5992e-07
-3.3777e-08
-1.59502e-07
-1.88049e-08
-1.52005e-07
-6.28383e-09
-1.2666e-07
-6.30198e-08
-6.57049e-09
6.95868e-08
-1.96719e-08
1.39697e-07
-3.53382e-08
1.67571e-07
-5.17406e-08
1.75791e-07
-6.8155e-08
1.76222e-07
-8.42976e-08
1.73628e-07
-1.00034e-07
1.69622e-07
-1.15276e-07
1.64696e-07
-1.29952e-07
1.5901e-07
-1.43998e-07
1.52633e-07
-1.57356e-07
1.45615e-07
-1.69976e-07
1.38004e-07
-1.81811e-07
1.29847e-07
-1.9282e-07
1.21191e-07
-2.02969e-07
1.12083e-07
-2.12227e-07
1.0257e-07
-2.2057e-07
9.26975e-08
-2.27975e-07
8.25098e-08
-2.34425e-07
7.20491e-08
-2.39905e-07
6.13561e-08
-2.44405e-07
5.047e-08
-2.47915e-07
3.94281e-08
-2.50429e-07
2.82663e-08
-2.51943e-07
1.70195e-08
-2.52453e-07
5.72178e-09
-2.51959e-07
-5.59361e-09
-2.50461e-07
-1.68935e-08
-2.47962e-07
-2.81443e-08
-2.44467e-07
-3.9312e-08
-2.3998e-07
-5.03618e-08
-2.34512e-07
-6.12577e-08
-2.28074e-07
-7.1962e-08
-2.20678e-07
-8.24358e-08
-2.12344e-07
-9.26379e-08
-2.03091e-07
-1.02526e-07
-1.92946e-07
-1.12055e-07
-1.81939e-07
-1.21181e-07
-1.70104e-07
-1.29855e-07
-1.57482e-07
-1.3803e-07
-1.44118e-07
-1.45659e-07
-1.30066e-07
-1.52694e-07
-1.15381e-07
-1.59088e-07
-1.00129e-07
-1.64789e-07
-8.43811e-08
-1.69729e-07
-6.82254e-08
-1.73747e-07
-5.1797e-08
-1.76348e-07
-3.538e-08
-1.75918e-07
-1.96989e-08
-1.67686e-07
-6.58291e-09
-1.39776e-07
-6.96027e-08
-6.90354e-09
7.64903e-08
-2.06662e-08
1.53459e-07
-3.71193e-08
1.84024e-07
-5.43402e-08
1.93012e-07
-7.15662e-08
1.93448e-07
-8.84975e-08
1.9056e-07
-1.04991e-07
1.86116e-07
-1.20955e-07
1.80659e-07
-1.36312e-07
1.74367e-07
-1.50996e-07
1.67317e-07
-1.64947e-07
1.59566e-07
-1.78113e-07
1.5117e-07
-1.90446e-07
1.4218e-07
-2.01907e-07
1.32652e-07
-2.12462e-07
1.22637e-07
-2.2208e-07
1.12188e-07
-2.30739e-07
1.01356e-07
-2.38418e-07
9.01885e-08
-2.451e-07
7.8732e-08
-2.50775e-07
6.70306e-08
-2.55431e-07
5.51263e-08
-2.59062e-07
4.30587e-08
-2.61661e-07
3.08658e-08
-2.63226e-07
1.85843e-08
-2.63754e-07
6.24961e-09
-2.63244e-07
-6.10344e-09
-2.61697e-07
-1.84404e-08
-2.59115e-07
-3.07266e-08
-2.55501e-07
-4.29262e-08
-2.5086e-07
-5.50026e-08
-2.45199e-07
-6.6918e-08
-2.38529e-07
-7.86322e-08
-2.30862e-07
-9.01034e-08
-2.22212e-07
-1.01287e-07
-2.12601e-07
-1.12137e-07
-2.02051e-07
-1.22605e-07
-1.90592e-07
-1.32639e-07
-1.78258e-07
-1.42188e-07
-1.6509e-07
-1.51198e-07
-1.51134e-07
-1.59615e-07
-1.36442e-07
-1.67385e-07
-1.21076e-07
-1.74454e-07
-1.05101e-07
-1.80765e-07
-8.85929e-08
-1.86237e-07
-7.16462e-08
-1.90694e-07
-5.44037e-08
-1.93591e-07
-3.71657e-08
-1.93157e-07
-2.06954e-08
-1.84156e-07
-6.91661e-09
-1.53555e-07
-7.65193e-08
-7.27355e-09
8.37639e-08
-2.17703e-08
1.67956e-07
-3.90966e-08
2.01351e-07
-5.72248e-08
2.11141e-07
-7.53493e-08
2.11572e-07
-9.31522e-08
2.08363e-07
-1.10482e-07
2.03445e-07
-1.27238e-07
1.97416e-07
-1.43342e-07
1.90471e-07
-1.58724e-07
1.82698e-07
-1.7332e-07
1.74163e-07
-1.87079e-07
1.64928e-07
-1.99952e-07
1.55053e-07
-2.11899e-07
1.44599e-07
-2.22888e-07
1.33626e-07
-2.32891e-07
1.22191e-07
-2.41886e-07
1.10351e-07
-2.49855e-07
9.81571e-08
-2.56783e-07
8.56607e-08
-2.62662e-07
7.2909e-08
-2.67482e-07
5.99465e-08
-2.71238e-07
4.68151e-08
-2.73927e-07
3.35544e-08
-2.75545e-07
2.02025e-08
-2.76092e-07
6.79594e-09
-2.75566e-07
-6.62953e-09
-2.73967e-07
-2.00386e-08
-2.71298e-07
-3.33957e-08
-2.6756e-07
-4.6664e-08
-2.62758e-07
-5.98054e-08
-2.56895e-07
-7.27803e-08
-2.49981e-07
-8.55465e-08
-2.42025e-07
-9.80594e-08
-2.33041e-07
-1.10272e-07
-2.23046e-07
-1.22132e-07
-2.12062e-07
-1.33589e-07
-2.00117e-07
-1.44584e-07
-1.87245e-07
-1.55061e-07
-1.73484e-07
-1.64959e-07
-1.58881e-07
-1.74218e-07
-1.43492e-07
-1.82775e-07
-1.27377e-07
-1.90569e-07
-1.10606e-07
-1.97535e-07
-9.32612e-08
-2.03582e-07
-7.54405e-08
-2.08514e-07
-5.72969e-08
-2.11734e-07
-3.91487e-08
-2.11305e-07
-2.18025e-08
-2.01502e-07
-7.28758e-09
-1.6807e-07
-8.38069e-08
-7.68378e-09
9.14477e-08
-2.29937e-08
1.83266e-07
-4.12868e-08
2.19644e-07
-6.04185e-08
2.30272e-07
-7.95351e-08
2.30689e-07
-9.82986e-08
2.27126e-07
-1.16546e-07
2.21693e-07
-1.34173e-07
2.15042e-07
-1.51093e-07
2.0739e-07
-1.67233e-07
1.98838e-07
-1.82529e-07
1.8946e-07
-1.96927e-07
1.79326e-07
-2.10379e-07
1.68506e-07
-2.22847e-07
1.57067e-07
-2.34299e-07
1.45078e-07
-2.44709e-07
1.32601e-07
-2.54058e-07
1.19699e-07
-2.6233e-07
1.0643e-07
-2.69516e-07
9.28461e-08
-2.75606e-07
7.89993e-08
-2.80596e-07
6.49365e-08
-2.84482e-07
5.07014e-08
-2.87263e-07
3.63349e-08
-2.88936e-07
2.18758e-08
-2.89502e-07
7.36141e-09
-2.88959e-07
-7.17219e-09
-2.87308e-07
-2.16894e-08
-2.8455e-07
-3.61541e-08
-2.80684e-07
-5.05293e-08
-2.75714e-07
-6.47757e-08
-2.69642e-07
-7.88524e-08
-2.62473e-07
-9.27154e-08
-2.54215e-07
-1.06318e-07
-2.44878e-07
-1.19608e-07
-2.34478e-07
-1.32533e-07
-2.23032e-07
-1.45034e-07
-2.10568e-07
-1.57049e-07
-1.97116e-07
-1.68513e-07
-1.82716e-07
-1.7936e-07
-1.67413e-07
-1.8952e-07
-1.51263e-07
-1.98924e-07
-1.34331e-07
-2.07502e-07
-1.16689e-07
-2.15177e-07
-9.84232e-08
-2.21848e-07
-7.96392e-08
-2.27298e-07
-6.05003e-08
-2.30873e-07
-4.13454e-08
-2.3046e-07
-2.30294e-08
-2.19818e-07
-7.69873e-09
-1.83401e-07
-9.15056e-08
-8.13795e-09
9.95856e-08
-2.43476e-08
1.99476e-07
-4.37095e-08
2.39006e-07
-6.39494e-08
2.50512e-07
-8.41596e-08
2.50899e-07
-1.03979e-07
2.46946e-07
-1.23234e-07
2.40948e-07
-1.41811e-07
2.33619e-07
-1.59619e-07
2.25199e-07
-1.76582e-07
2.15801e-07
-1.92633e-07
2.05511e-07
-2.07718e-07
1.9441e-07
-2.21789e-07
1.82577e-07
-2.34809e-07
1.70087e-07
-2.46749e-07
1.57018e-07
-2.57586e-07
1.43439e-07
-2.67304e-07
1.29418e-07
-2.75892e-07
1.15017e-07
-2.83342e-07
1.00296e-07
-2.89649e-07
8.53072e-08
-2.94813e-07
7.01e-08
-2.98832e-07
5.472e-08
-3.01705e-07
3.92087e-08
-3.03435e-07
2.36051e-08
-3.04019e-07
7.94636e-09
-3.0346e-07
-7.73146e-09
-3.01756e-07
-2.33932e-08
-2.98908e-07
-3.90031e-08
-2.94913e-07
-5.45241e-08
-2.89772e-07
-6.99169e-08
-2.83484e-07
-8.51396e-08
-2.76053e-07
-1.00147e-07
-2.67482e-07
-1.14889e-07
-2.57778e-07
-1.29313e-07
-2.46951e-07
-1.43359e-07
-2.35019e-07
-1.56966e-07
-2.22003e-07
-1.70064e-07
-2.07933e-07
-1.82583e-07
-1.92846e-07
-1.94447e-07
-1.76788e-07
-2.05579e-07
-1.59814e-07
-2.15898e-07
-1.41992e-07
-2.25324e-07
-1.23398e-07
-2.33771e-07
-1.04122e-07
-2.41124e-07
-8.42785e-08
-2.47142e-07
-6.40424e-08
-2.51109e-07
-4.37755e-08
-2.50726e-07
-2.4387e-08
-2.39207e-07
-8.15369e-09
-1.99634e-07
-9.96593e-08
-8.64039e-09
1.08226e-07
-2.5845e-08
2.1668e-07
-4.63879e-08
2.59548e-07
-6.78503e-08
2.71975e-07
-8.92648e-08
2.72314e-07
-1.10244e-07
2.67925e-07
-1.30602e-07
2.61305e-07
-1.50214e-07
2.53232e-07
-1.68987e-07
2.43971e-07
-1.86838e-07
2.33652e-07
-2.037e-07
2.22374e-07
-2.19518e-07
2.10228e-07
-2.34245e-07
1.97304e-07
-2.47847e-07
1.8369e-07
-2.60298e-07
1.69469e-07
-2.71579e-07
1.5472e-07
-2.81679e-07
1.39517e-07
-2.90589e-07
1.23928e-07
-2.98309e-07
1.08015e-07
-3.04837e-07
9.1835e-08
-3.10175e-07
7.54381e-08
-3.14326e-07
5.8871e-08
-3.17292e-07
4.21754e-08
-3.19077e-07
2.53899e-08
-3.19682e-07
8.5508e-09
-3.19106e-07
-8.30702e-09
-3.1735e-07
-2.51494e-08
-3.14411e-07
-4.19419e-08
-3.10287e-07
-5.86482e-08
-3.04974e-07
-7.52296e-08
-2.9847e-07
-9.16439e-08
-2.90772e-07
-1.07845e-07
-2.8188e-07
-1.23781e-07
-2.71797e-07
-1.39396e-07
-2.60528e-07
-1.54628e-07
-2.48087e-07
-1.69407e-07
-2.3449e-07
-1.83661e-07
-2.19764e-07
-1.97309e-07
-2.03943e-07
-2.10268e-07
-1.87073e-07
-2.22448e-07
-1.6921e-07
-2.33761e-07
-1.50422e-07
-2.44113e-07
-1.30789e-07
-2.53404e-07
-1.10408e-07
-2.61505e-07
-8.94007e-08
-2.68149e-07
-6.79563e-08
-2.72554e-07
-4.64626e-08
-2.7222e-07
-2.58889e-08
-2.5978e-07
-8.65706e-09
-2.16866e-07
-1.08316e-07
-9.19623e-09
1.17422e-07
-2.75013e-08
2.34985e-07
-4.9349e-08
2.81396e-07
-7.21602e-08
2.94786e-07
-9.49e-08
2.95054e-07
-1.17152e-07
2.90178e-07
-1.38714e-07
2.82867e-07
-1.59454e-07
2.73972e-07
-1.7927e-07
2.63787e-07
-1.98078e-07
2.5246e-07
-2.15808e-07
2.40103e-07
-2.32404e-07
2.26824e-07
-2.47823e-07
2.12723e-07
-2.62034e-07
1.97901e-07
-2.75015e-07
1.82449e-07
-2.86752e-07
1.66457e-07
-2.9724e-07
1.50005e-07
-3.06477e-07
1.33165e-07
-3.14467e-07
1.16005e-07
-3.21213e-07
9.85815e-08
-3.26723e-07
8.09484e-08
-3.31004e-07
6.31518e-08
-3.34062e-07
4.52329e-08
-3.35901e-07
2.7229e-08
-3.36524e-07
9.17435e-09
-3.35933e-07
-8.89813e-09
-3.34126e-07
-2.69564e-08
-3.311e-07
-4.49681e-08
-3.26849e-07
-6.28988e-08
-3.21368e-07
-8.07112e-08
-3.14648e-07
-9.83636e-08
-3.06683e-07
-1.15809e-07
-2.97468e-07
-1.32996e-07
-2.86998e-07
-1.49865e-07
-2.75276e-07
-1.6635e-07
-2.62306e-07
-1.82377e-07
-2.48101e-07
-1.97866e-07
-2.32684e-07
-2.12727e-07
-2.16085e-07
-2.26867e-07
-1.98347e-07
-2.40186e-07
-1.79526e-07
-2.52582e-07
-1.59692e-07
-2.63947e-07
-1.38929e-07
-2.74167e-07
-1.17339e-07
-2.83094e-07
-9.50556e-08
-2.90432e-07
-7.22814e-08
-2.95328e-07
-4.94341e-08
-2.95068e-07
-2.75507e-08
-2.81664e-07
-9.21436e-09
-2.35202e-07
-1.17531e-07
-9.81161e-09
1.27234e-07
-2.93348e-08
2.54508e-07
-5.26252e-08
3.04687e-07
-7.69247e-08
3.19085e-07
-1.01123e-07
3.19252e-07
-1.24771e-07
3.13826e-07
-1.47649e-07
3.05744e-07
-1.69614e-07
2.95937e-07
-1.90557e-07
2.8473e-07
-2.1039e-07
2.72293e-07
-2.29043e-07
2.58756e-07
-2.46461e-07
2.44242e-07
-2.62605e-07
2.28867e-07
-2.77447e-07
2.12743e-07
-2.90972e-07
1.95974e-07
-3.03173e-07
1.78658e-07
-3.14051e-07
1.60883e-07
-3.23612e-07
1.42727e-07
-3.31867e-07
1.24259e-07
-3.38826e-07
1.05541e-07
-3.44502e-07
8.66244e-08
-3.48907e-07
6.75566e-08
-3.5205e-07
4.83767e-08
-3.53941e-07
2.91194e-08
-3.54583e-07
9.81614e-09
-3.53977e-07
-9.50353e-09
-3.52123e-07
-2.88109e-08
-3.49014e-07
-4.80767e-08
-3.44643e-07
-6.72697e-08
-3.39e-07
-8.63549e-08
-3.32071e-07
-1.05292e-07
-3.23844e-07
-1.24036e-07
-3.14308e-07
-1.42533e-07
-3.03451e-07
-1.60722e-07
-2.91267e-07
-1.78534e-07
-2.77756e-07
-1.95889e-07
-2.62922e-07
-2.127e-07
-2.46781e-07
-2.28868e-07
-2.2936e-07
-2.44288e-07
-2.10698e-07
-2.58848e-07
-1.9085e-07
-2.7243e-07
-1.69886e-07
-2.84911e-07
-1.47895e-07
-2.96158e-07
-1.24986e-07
-3.06003e-07
-1.01302e-07
-3.14116e-07
-7.70638e-08
-3.19566e-07
-5.27226e-08
-3.19409e-07
-2.93911e-08
-3.04995e-07
-9.83199e-09
-2.54761e-07
-1.27363e-07
-1.0494e-08
1.37728e-07
-3.13673e-08
2.75382e-07
-5.62547e-08
3.29574e-07
-8.21982e-08
3.45029e-07
-1.08003e-07
3.45056e-07
-1.33182e-07
3.39005e-07
-1.57495e-07
3.30057e-07
-1.80788e-07
3.1923e-07
-2.02946e-07
3.06888e-07
-2.23876e-07
2.93223e-07
-2.43507e-07
2.78388e-07
-2.61788e-07
2.62523e-07
-2.78684e-07
2.45762e-07
-2.94173e-07
2.28232e-07
-3.08249e-07
2.1005e-07
-3.20914e-07
1.91323e-07
-3.32177e-07
1.72146e-07
-3.42053e-07
1.52603e-07
-3.50562e-07
1.32767e-07
-3.57721e-07
1.127e-07
-3.63552e-07
9.24551e-08
-3.68071e-07
7.20757e-08
-3.71294e-07
5.15991e-08
-3.73231e-07
3.10565e-08
-3.73889e-07
1.04747e-08
-3.73272e-07
-1.01214e-08
-3.71375e-07
-3.07078e-08
-3.68192e-07
-5.12599e-08
-3.63711e-07
-7.17506e-08
-3.57917e-07
-9.21489e-08
-3.50791e-07
-1.12418e-07
-3.42315e-07
-1.32513e-07
-3.32467e-07
-1.52381e-07
-3.21228e-07
-1.7196e-07
-3.08584e-07
-1.91178e-07
-2.94524e-07
-2.0995e-07
-2.79044e-07
-2.28179e-07
-2.62152e-07
-2.45759e-07
-2.43869e-07
-2.62571e-07
-2.24228e-07
-2.78489e-07
-2.03282e-07
-2.93376e-07
-1.81102e-07
-3.07091e-07
-1.57778e-07
-3.19482e-07
-1.33429e-07
-3.30352e-07
-1.08209e-07
-3.39337e-07
-8.23587e-08
-3.45416e-07
-5.6367e-08
-3.454e-07
-3.14321e-08
-3.2993e-07
-1.05174e-08
-2.75676e-07
-1.3788e-07
-1.12523e-08
1.4898e-07
-3.3625e-08
2.97754e-07
-6.02834e-08
3.56232e-07
-8.80456e-08
3.72791e-07
-1.15621e-07
3.72632e-07
-1.42479e-07
3.65863e-07
-1.68359e-07
3.55937e-07
-1.93092e-07
3.43963e-07
-2.16554e-07
3.3035e-07
-2.38652e-07
3.15321e-07
-2.59314e-07
2.9905e-07
-2.78494e-07
2.81703e-07
-2.96163e-07
2.63431e-07
-3.12309e-07
2.44378e-07
-3.26935e-07
2.24676e-07
-3.40054e-07
2.04442e-07
-3.51688e-07
1.8378e-07
-3.61862e-07
1.62777e-07
-3.70605e-07
1.4151e-07
-3.77947e-07
1.20042e-07
-3.83915e-07
9.84231e-08
-3.88534e-07
7.66946e-08
-3.91824e-07
5.48895e-08
-3.93801e-07
3.30336e-08
-3.94475e-07
1.1148e-08
-3.93847e-07
-1.0749e-08
-3.91915e-07
-3.26399e-08
-3.88669e-07
-5.45061e-08
-3.84093e-07
-7.63266e-08
-3.78166e-07
-9.80757e-08
-3.70863e-07
-1.1972e-07
-3.62156e-07
-1.4122e-07
-3.52014e-07
-1.62522e-07
-3.40409e-07
-1.83566e-07
-3.27314e-07
-2.04274e-07
-3.12706e-07
-2.24557e-07
-2.96572e-07
-2.44313e-07
-2.78909e-07
-2.63422e-07
-2.59728e-07
-2.81753e-07
-2.39056e-07
-2.99161e-07
-2.16941e-07
-3.15491e-07
-1.93453e-07
-3.3058e-07
-1.68686e-07
-3.44248e-07
-1.42766e-07
-3.56273e-07
-1.1586e-07
-3.66243e-07
-8.82315e-08
-3.73044e-07
-6.04134e-08
-3.73218e-07
-3.37e-08
-3.56644e-07
-1.12795e-08
-2.98097e-07
-1.4916e-07
-1.20974e-08
1.61077e-07
-3.61396e-08
3.21797e-07
-6.47665e-08
3.84859e-07
-9.45449e-08
4.02569e-07
-1.24075e-07
4.02162e-07
-1.52778e-07
3.94566e-07
-1.80366e-07
3.83525e-07
-2.06657e-07
3.70254e-07
-2.31518e-07
3.55212e-07
-2.54854e-07
3.38656e-07
-2.76596e-07
3.20793e-07
-2.96704e-07
3.0181e-07
-3.15158e-07
2.81885e-07
-3.3196e-07
2.6118e-07
-3.47124e-07
2.39841e-07
-3.60678e-07
2.17997e-07
-3.72658e-07
1.95759e-07
-3.83101e-07
1.73221e-07
-3.92051e-07
1.5046e-07
-3.99548e-07
1.27539e-07
-4.05629e-07
1.04504e-07
-4.10327e-07
8.13932e-08
-4.13671e-07