/*--------------------------------*- C++ -*----------------------------------*\
  =========                 |
  \\      /  F ield         | OpenFOAM: The Open Source CFD Toolbox
   \\    /   O peration     | Website:  https://openfoam.org
    \\  /    A nd           | Version:  7
     \\/     M anipulation  |
\*---------------------------------------------------------------------------*/
FoamFile
{
    version     2.0;
    format      ascii;
    class       volVectorField;
    location    "0.0006";
    object      U;
}
// * * * * * * * * * * * * * * * * * * * * * * * * * * * * * * * * * * * * * //

dimensions      [0 1 -1 0 0 0 0];

internalField   nonuniform List<vector> 
2500
(
(-2.17653e-05 1.25108e-05 0)
(-0.000122145 5.89528e-05 0)
(-0.00032352 8.64753e-05 0)
(-0.000551897 9.40784e-05 0)
(-0.000787527 9.46914e-05 0)
(-0.00102067 9.32018e-05 0)
(-0.00124883 9.09634e-05 0)
(-0.00147092 8.83183e-05 0)
(-0.00168605 8.53375e-05 0)
(-0.0018934 8.20263e-05 0)
(-0.00209212 7.83861e-05 0)
(-0.00228141 7.44264e-05 0)
(-0.0024605 7.01641e-05 0)
(-0.00262866 6.5619e-05 0)
(-0.00278522 6.08111e-05 0)
(-0.00292955 5.57616e-05 0)
(-0.0030611 5.04921e-05 0)
(-0.00317933 4.50249e-05 0)
(-0.00328381 3.93829e-05 0)
(-0.00337411 3.35889e-05 0)
(-0.00344991 2.76658e-05 0)
(-0.00351092 2.1638e-05 0)
(-0.0035569 1.553e-05 0)
(-0.0035877 9.36525e-06 0)
(-0.0036032 3.16596e-06 0)
(-0.00360334 -3.04556e-06 0)
(-0.00358811 -9.24718e-06 0)
(-0.00355758 -1.54158e-05 0)
(-0.00351186 -2.15252e-05 0)
(-0.00345113 -2.75489e-05 0)
(-0.0033756 -3.34649e-05 0)
(-0.00328559 -3.92523e-05 0)
(-0.00318141 -4.48878e-05 0)
(-0.00306349 -5.03484e-05 0)
(-0.00293227 -5.56136e-05 0)
(-0.00278826 -6.06613e-05 0)
(-0.00263204 -6.54649e-05 0)
(-0.00246422 -7.00002e-05 0)
(-0.0022855 -7.42495e-05 0)
(-0.00209661 -7.81964e-05 0)
(-0.00189832 -8.18207e-05 0)
(-0.00169146 -8.51069e-05 0)
(-0.00147688 -8.80566e-05 0)
(-0.00125543 -9.0688e-05 0)
(-0.00102797 -9.29946e-05 0)
(-0.000795607 -9.47731e-05 0)
(-0.000560304 -9.49706e-05 0)
(-0.000328166 -8.94932e-05 0)
(-0.000124274 -6.72359e-05 0)
(-1.71906e-05 -1.72007e-05 0)
(-7.51978e-05 0.000125853 0)
(-0.000326712 0.000308651 0)
(-0.000730418 0.000398808 0)
(-0.0011816 0.000426082 0)
(-0.00164226 0.000428876 0)
(-0.00210018 0.000422983 0)
(-0.0025501 0.000413454 0)
(-0.00298896 0.000401781 0)
(-0.00341455 0.000388375 0)
(-0.00382496 0.000373355 0)
(-0.0042184 0.000356789 0)
(-0.00459322 0.000338751 0)
(-0.00494787 0.000319327 0)
(-0.00528087 0.000298611 0)
(-0.00559089 0.0002767 0)
(-0.00587669 0.000253693 0)
(-0.00613714 0.000229691 0)
(-0.00637122 0.000204796 0)
(-0.00657804 0.000179113 0)
(-0.0067568 0.000152745 0)
(-0.00690682 0.000125798 0)
(-0.00702756 9.83809e-05 0)
(-0.00711855 7.06002e-05 0)
(-0.00717946 4.256e-05 0)
(-0.00721006 1.43623e-05 0)
(-0.00721025 -1.38907e-05 0)
(-0.00718001 -4.20966e-05 0)
(-0.00711946 -7.0151e-05 0)
(-0.00702881 -9.79427e-05 0)
(-0.00690841 -0.00012536 0)
(-0.00675869 -0.000152299 0)
(-0.00658022 -0.000178661 0)
(-0.00637366 -0.00020434 0)
(-0.00613982 -0.000229232 0)
(-0.00587958 -0.000253237 0)
(-0.00559396 -0.00027625 0)
(-0.00528409 -0.000298159 0)
(-0.0049512 -0.000318859 0)
(-0.00459664 -0.000338258 0)
(-0.00422187 -0.00035627 0)
(-0.00382843 -0.000372803 0)
(-0.00341798 -0.000387774 0)
(-0.00299225 -0.000401138 0)
(-0.00255309 -0.000412836 0)
(-0.0021026 -0.000422597 0)
(-0.00164372 -0.000429165 0)
(-0.00118122 -0.000427799 0)
(-0.000725899 -0.000403229 0)
(-0.000318184 -0.000317866 0)
(-6.71723e-05 -0.00012407 0)
(-9.28128e-05 0.000332404 0)
(-0.000410548 0.00072085 0)
(-0.000909256 0.000891976 0)
(-0.00145732 0.000946482 0)
(-0.00201232 0.000953061 0)
(-0.00256332 0.000941113 0)
(-0.00310477 0.000920813 0)
(-0.00363302 0.00089538 0)
(-0.00414537 0.000865814 0)
(-0.00463947 0.000832488 0)
(-0.00511316 0.000795627 0)
(-0.00556443 0.000755437 0)
(-0.00599139 0.000712128 0)
(-0.00639227 0.000665918 0)
(-0.00676546 0.000617032 0)
(-0.00710946 0.000565697 0)
(-0.00742292 0.000512142 0)
(-0.00770462 0.000456601 0)
(-0.00795348 0.000399307 0)
(-0.00816855 0.000340494 0)
(-0.00834904 0.000280399 0)
(-0.00849428 0.000219257 0)
(-0.00860372 0.000157305 0)
(-0.00867696 9.47736e-05 0)
(-0.00871373 3.18918e-05 0)
(-0.0087139 -3.11111e-05 0)
(-0.00867747 -9.40061e-05 0)
(-0.00860457 -0.000156562 0)
(-0.00849545 -0.00021854 0)
(-0.00835053 -0.000279699 0)
(-0.00817031 -0.000339809 0)
(-0.00795547 -0.00039864 0)
(-0.00770681 -0.000455958 0)
(-0.00742527 -0.00051153 0)
(-0.00711194 -0.000565127 0)
(-0.006768 -0.000616513 0)
(-0.00639484 -0.000665448 0)
(-0.00599393 -0.000711698 0)
(-0.00556688 -0.000755053 0)
(-0.00511544 -0.000795303 0)
(-0.0046415 -0.00083224 0)
(-0.00414706 -0.000865669 0)
(-0.00363422 -0.000895409 0)
(-0.00310528 -0.000921183 0)
(-0.00256288 -0.000942153 0)
(-0.00201067 -0.000955308 0)
(-0.00145418 -0.000950499 0)
(-0.000904653 -0.000897786 0)
(-0.000406873 -0.000726484 0)
(-9.00676e-05 -0.00032836 0)
(-9.77867e-05 0.000571196 0)
(-0.000439954 0.00118662 0)
(-0.000977121 0.00144595 0)
(-0.00156509 0.00152761 0)
(-0.00215822 0.00153658 0)
(-0.00274616 0.00151709 0)
(-0.00332355 0.0014845 0)
(-0.00388668 0.00144364 0)
(-0.00443277 0.00139605 0)
(-0.00495935 0.00134235 0)
(-0.00546413 0.00128291 0)
(-0.00594498 0.00121808 0)
(-0.00639986 0.00114821 0)
(-0.00682692 0.00107366 0)
(-0.00722444 0.000994795 0)
(-0.00759082 0.000911981 0)
(-0.00792463 0.000825597 0)
(-0.00822458 0.000736019 0)
(-0.00848954 0.000643626 0)
(-0.0087185 0.000548797 0)
(-0.00891063 0.000451912 0)
(-0.00906521 0.000353347 0)
(-0.00918169 0.000253481 0)
(-0.00925962 0.000152684 0)
(-0.00929874 5.13245e-05 0)
(-0.0092989 -5.02271e-05 0)
(-0.00926011 -0.000151602 0)
(-0.00918249 -0.000252432 0)
(-0.00906632 -0.000352339 0)
(-0.00891203 -0.000450944 0)
(-0.00872016 -0.000547873 0)
(-0.0084914 -0.000642755 0)
(-0.00822661 -0.000735212 0)
(-0.00792679 -0.000824867 0)
(-0.00759307 -0.000911341 0)
(-0.00722671 -0.000994257 0)
(-0.00682917 -0.00107323 0)
(-0.00640202 -0.00114789 0)
(-0.00594698 -0.00121789 0)
(-0.0054659 -0.00128286 0)
(-0.00496078 -0.00134248 0)
(-0.00443377 -0.00139642 0)
(-0.00388713 -0.00144434 0)
(-0.0033233 -0.0014857 0)
(-0.0027451 -0.00151909 0)
(-0.00215629 -0.00153975 0)
(-0.00156238 -0.00153208 0)
(-0.000974278 -0.00145087 0)
(-0.000438889 -0.00118866 0)
(-9.70942e-05 -0.000563729 0)
(-9.92789e-05 0.000814149 0)
(-0.000451518 0.00166783 0)
(-0.00100637 0.00201963 0)
(-0.00161373 0.00212847 0)
(-0.00222564 0.00213903 0)
(-0.00283161 0.0021112 0)
(-0.00342635 0.00206562 0)
(-0.00400619 0.00200868 0)
(-0.00456833 0.0019424 0)
(-0.00511028 0.00186761 0)
(-0.0056297 0.00178483 0)
(-0.00612439 0.00169456 0)
(-0.0065923 0.00159727 0)
(-0.00703152 0.00149348 0)
(-0.00744027 0.00138369 0)
(-0.00781695 0.00126842 0)
(-0.00816009 0.0011482 0)
(-0.00846838 0.00102356 0)
(-0.00874067 0.000895018 0)
(-0.00897594 0.000763109 0)
(-0.00917333 0.000628357 0)
(-0.00933213 0.000491283 0)
(-0.00945177 0.000352409 0)
(-0.00953183 0.000212248 0)
(-0.009572 7.13115e-05 0)
(-0.00957217 -6.98907e-05 0)
(-0.00953231 -0.000210848 0)
(-0.00945258 -0.00035105 0)
(-0.00933324 -0.000489981 0)
(-0.00917473 -0.00062712 0)
(-0.00897759 -0.000761949 0)
(-0.00874253 -0.00089395 0)
(-0.00847042 -0.0010226 0)
(-0.00816225 -0.00114737 0)
(-0.0078192 -0.00126773 0)
(-0.00744254 -0.00138315 0)
(-0.00703374 -0.00149311 0)
(-0.00659443 -0.00159708 0)
(-0.00612636 -0.00169457 0)
(-0.00563142 -0.00178507 0)
(-0.00511167 -0.00186811 0)
(-0.00456932 -0.00194323 0)
(-0.0040067 -0.00200992 0)
(-0.00342629 -0.00206742 0)
(-0.00283096 -0.00211376 0)
(-0.00222449 -0.0021425 0)
(-0.0016123 -0.00213274 0)
(-0.00100526 -0.00202363 0)
(-0.00045182 -0.00166856 0)
(-9.93568e-05 -0.000807379 0)
(-0.000100583 0.00106108 0)
(-0.000459926 0.00215947 0)
(-0.00102724 0.00260676 0)
(-0.00164882 0.00274334 0)
(-0.00227491 0.00275523 0)
(-0.00289464 0.00271862 0)
(-0.00350265 0.00265953 0)
(-0.00409523 0.00258598 0)
(-0.00466955 0.00250047 0)
(-0.0052231 0.00240401 0)
(-0.00575351 0.00229729 0)
(-0.00625855 0.00218093 0)
(-0.00673613 0.00205557 0)
(-0.00718432 0.00192185 0)
(-0.00760133 0.00178042 0)
(-0.00798553 0.00163198 0)
(-0.00833545 0.00147719 0)
(-0.00864977 0.00131674 0)
(-0.00892733 0.00115131 0)
(-0.00916712 0.000981566 0)
(-0.00936828 0.000808194 0)
(-0.00953009 0.000631859 0)
(-0.00965198 0.000453224 0)
(-0.00973354 0.000272948 0)
(-0.00977448 9.16829e-05 0)
(-0.00977464 -8.99213e-05 0)
(-0.00973405 -0.000271212 0)
(-0.00965283 -0.00045154 0)
(-0.00953125 -0.000630248 0)
(-0.00936974 -0.000806675 0)
(-0.00916885 -0.000980157 0)
(-0.00892929 -0.00115003 0)
(-0.00865191 -0.00131562 0)
(-0.00833773 -0.00147625 0)
(-0.00798791 -0.00163123 0)
(-0.00760373 -0.00177988 0)
(-0.0071867 -0.00192153 0)
(-0.00673842 -0.0020555 0)
(-0.00626069 -0.00218114 0)
(-0.00575543 -0.00229779 0)
(-0.00522473 -0.00240484 0)
(-0.00467084 -0.00250168 0)
(-0.00409611 -0.00258765 0)
(-0.00350309 -0.00266175 0)
(-0.00289467 -0.00272149 0)
(-0.00227466 -0.00275879 0)
(-0.00164853 -0.00274733 0)
(-0.00102732 -0.00261011 0)
(-0.000460877 -0.00215975 0)
(-0.00010094 -0.00105543 0)
(-0.000102465 0.00131276 0)
(-0.000469606 0.00266156 0)
(-0.00104977 0.00320697 0)
(-0.00168589 0.00337206 0)
(-0.00232669 0.00338525 0)
(-0.00296086 0.00333951 0)
(-0.00358288 0.00326646 0)
(-0.00418894 0.00317578 0)
(-0.00477615 0.00307045 0)
(-0.00534195 0.00295172 0)
(-0.00588394 0.00282041 0)
(-0.00639985 0.00267729 0)
(-0.00688757 0.00252315 0)
(-0.00734513 0.00235877 0)
(-0.00777074 0.00218499 0)
(-0.00816276 0.00200262 0)
(-0.0085197 0.00181251 0)
(-0.00884024 0.0016155 0)
(-0.00912324 0.00141242 0)
(-0.00936767 0.0012041 0)
(-0.00957268 0.000991361 0)
(-0.00973757 0.000775023 0)
(-0.00986178 0.000555891 0)
(-0.00994488 0.000334766 0)
(-0.00998659 0.00011244 0)
(-0.00998677 -0.000110299 0)
(-0.00994542 -0.000332657 0)
(-0.00986269 -0.000553847 0)
(-0.00973883 -0.000773073 0)
(-0.00957425 -0.000989532 0)
(-0.00936953 -0.00120241 0)
(-0.00912535 -0.00141091 0)
(-0.00884256 -0.00161419 0)
(-0.00852218 -0.00181143 0)
(-0.00816535 -0.00200179 0)
(-0.00777338 -0.00218443 0)
(-0.00734776 -0.0023585 0)
(-0.00689014 -0.00252319 0)
(-0.00640229 -0.00267766 0)
(-0.00588618 -0.00282113 0)
(-0.00534393 -0.00295282 0)
(-0.00477783 -0.00307197 0)
(-0.00419029 -0.00317776 0)
(-0.00358388 -0.00326897 0)
(-0.00296155 -0.00334258 0)
(-0.00232719 -0.00338882 0)
(-0.00168638 -0.00337583 0)
(-0.00105049 -0.00320995 0)
(-0.000470768 -0.00266177 0)
(-0.000102887 -0.00130813 0)
(-0.000104985 0.00157025 0)
(-0.000481552 0.00317558 0)
(-0.00107671 0.00382181 0)
(-0.00172956 0.00401624 0)
(-0.00238727 0.00403075 0)
(-0.0030381 0.00397557 0)
(-0.00367634 0.00388807 0)
(-0.00429802 0.00377966 0)
(-0.00490018 0.00365388 0)
(-0.0054802 0.00351217 0)
(-0.00603561 0.00335553 0)
(-0.00656411 0.00318487 0)
(-0.00706355 0.00300114 0)
(-0.00753194 0.00280528 0)
(-0.00796746 0.00259829 0)
(-0.00836847 0.00238115 0)
(-0.00873347 0.00215488 0)
(-0.00906116 0.00192045 0)
(-0.00935038 0.00167888 0)
(-0.00960012 0.00143114 0)
(-0.00980955 0.00117821 0)
(-0.00997795 0.000921046 0)
(-0.0101048 0.000660603 0)
(-0.0101896 0.000397819 0)
(-0.0102322 0.000133624 0)
(-0.0102324 -0.000131055 0)
(-0.0101902 -0.000395291 0)
(-0.0101058 -0.000658155 0)
(-0.00997933 -0.000918717 0)
(-0.00981126 -0.00117603 0)
(-0.00960216 -0.00142915 0)
(-0.0093527 -0.00167711 0)
(-0.00906372 -0.00191893 0)
(-0.00873622 -0.00215364 0)
(-0.00837135 -0.00238023 0)
(-0.00797041 -0.00259769 0)
(-0.00753489 -0.00280504 0)
(-0.00706646 -0.00300126 0)
(-0.00656692 -0.00318539 0)
(-0.00603824 -0.00335645 0)
(-0.00548259 -0.00351351 0)
(-0.00490231 -0.00365567 0)
(-0.00429985 -0.00378192 0)
(-0.00367785 -0.00389081 0)
(-0.00303935 -0.00397879 0)
(-0.00238832 -0.00403437 0)
(-0.00173054 -0.00401991 0)
(-0.00107775 -0.00382465 0)
(-0.000482717 -0.00317597 0)
(-0.000105387 -0.00156655 0)
(-0.000108087 0.00183486 0)
(-0.000495898 0.00370383 0)
(-0.00110875 0.00445379 0)
(-0.00178113 0.00467846 0)
(-0.00245853 0.00469431 0)
(-0.00312878 0.00462932 0)
(-0.0037859 0.00452683 0)
(-0.0044258 0.00440003 0)
(-0.00504539 0.00425302 0)
(-0.00564197 0.00408752 0)
(-0.00621301 0.00390466 0)
(-0.00675615 0.00370554 0)
(-0.0072692 0.00349125 0)
(-0.00775015 0.00326294 0)
(-0.00819716 0.00302174 0)
(-0.00860857 0.00276884 0)
(-0.00898289 0.00250539 0)
(-0.00931882 0.00223257 0)
(-0.00961521 0.00195152 0)
(-0.00987107 0.00166339 0)
(-0.0100856 0.0013693 0)
(-0.010258 0.00107036 0)
(-0.0103879 0.000767661 0)
(-0.0104747 0.000462283 0)
(-0.0105184 0.00015529 0)
(-0.0105186 -0.000152259 0)
(-0.0104754 -0.000459302 0)
(-0.010389 -0.000764778 0)
(-0.0102595 -0.00106762 0)
(-0.0100875 -0.00136674 0)
(-0.00987334 -0.00166106 0)
(-0.00961779 -0.00194946 0)
(-0.00932168 -0.00223081 0)
(-0.00898596 -0.00250398 0)
(-0.0086118 -0.0027678 0)
(-0.00820047 -0.0030211 0)
(-0.0077535 -0.00326271 0)
(-0.00727252 -0.00349146 0)
(-0.00675938 -0.00370619 0)
(-0.00621607 -0.00390577 0)
(-0.00564481 -0.0040891 0)
(-0.00504798 -0.00425508 0)
(-0.0044281 -0.00440256 0)
(-0.0037879 -0.00452982 0)
(-0.0031305 -0.00463275 0)
(-0.00246002 -0.00469806 0)
(-0.00178244 -0.00468219 0)
(-0.00110995 -0.00445672 0)
(-0.000496996 -0.00370455 0)
(-0.000108447 -0.00183199 0)
(-0.000111738 0.00210792 0)
(-0.000512672 0.00424882 0)
(-0.00114611 0.00510585 0)
(-0.00184112 0.00536171 0)
(-0.00254127 0.00537887 0)
(-0.00323391 0.00530364 0)
(-0.00391281 0.00518549 0)
(-0.00457369 0.00503951 0)
(-0.00521335 0.0048704 0)
(-0.00582898 0.00468012 0)
(-0.00641798 0.00447001 0)
(-0.00697793 0.00424133 0)
(-0.00750659 0.00399538 0)
(-0.00800191 0.00373345 0)
(-0.00846205 0.0034569 0)
(-0.00888534 0.00316706 0)
(-0.00927028 0.00286528 0)
(-0.00961559 0.0025529 0)
(-0.00992013 0.00223123 0)
(-0.0101829 0.00190158 0)
(-0.0104032 0.00156523 0)
(-0.0105802 0.00122342 0)
(-0.0107135 0.000877391 0)
(-0.0108026 0.000528349 0)
(-0.0108474 0.000177494 0)
(-0.0108477 -0.000173986 0)
(-0.0108034 -0.0005249 0)
(-0.0107147 -0.000874056 0)
(-0.0105819 -0.00122026 0)
(-0.0104053 -0.00156228 0)
(-0.0101855 -0.00189891 0)
(-0.00992303 -0.00222887 0)
(-0.00961879 -0.00255089 0)
(-0.00927374 -0.00286367 0)
(-0.00888898 -0.00316588 0)
(-0.00846581 -0.00345619 0)
(-0.00800572 -0.00373323 0)
(-0.00751039 -0.00399566 0)
(-0.00698164 -0.00424213 0)
(-0.00642153 -0.00447132 0)
(-0.00583231 -0.00468195 0)
(-0.00521642 -0.00487274 0)
(-0.00457647 -0.00504234 0)
(-0.00391527 -0.00518878 0)
(-0.00323605 -0.00530734 0)
(-0.00254311 -0.00538285 0)
(-0.00184268 -0.00536564 0)
(-0.00114741 -0.00510902 0)
(-0.000513703 -0.00424998 0)
(-0.000112063 -0.0021058 0)
(-0.000115943 0.00239076 0)
(-0.000531939 0.00481319 0)
(-0.00118902 0.00578104 0)
(-0.00190993 0.00606915 0)
(-0.00263608 0.00608756 0)
(-0.00335426 0.00600154 0)
(-0.00405798 0.00586698 0)
(-0.00474275 0.0057009 0)
(-0.00540524 0.00550865 0)
(-0.00604251 0.00529245 0)
(-0.00665189 0.00505388 0)
(-0.00723087 0.00479438 0)
(-0.00777717 0.00451545 0)
(-0.00828872 0.00421859 0)
(-0.00876365 0.00390532 0)
(-0.00920029 0.00357721 0)
(-0.00959716 0.00323576 0)
(-0.00995298 0.0028825 0)
(-0.0102666 0.00251893 0)
(-0.0105372 0.00214648 0)
(-0.0107639 0.00176661 0)
(-0.010946 0.0013807 0)
(-0.0110831 0.000990118 0)
(-0.0111748 0.00059621 0)
(-0.0112208 0.0002003 0)
(-0.0112211 -0.0001963 0)
(-0.0111756 -0.000592277 0)
(-0.0110845 -0.000986315 0)
(-0.0109479 -0.00137709 0)
(-0.0107662 -0.00176325 0)
(-0.01054 -0.00214344 0)
(-0.0102699 -0.00251624 0)
(-0.00995659 -0.00288023 0)
(-0.00960106 -0.00323395 0)
(-0.00920441 -0.00357589 0)
(-0.00876792 -0.00390454 0)
(-0.00829306 -0.00421835 0)
(-0.00778151 -0.00451579 0)
(-0.00723512 -0.00479531 0)
(-0.00665598 -0.00505538 0)
(-0.00604638 -0.00529453 0)
(-0.00540883 -0.00551128 0)
(-0.00474602 -0.00570405 0)
(-0.00406089 -0.00587061 0)
(-0.0033568 -0.00600559 0)
(-0.00263824 -0.00609187 0)
(-0.00191171 -0.00607341 0)
(-0.00119042 -0.00578459 0)
(-0.00053293 -0.00481485 0)
(-0.000116244 -0.00238933 0)
(-0.000120722 0.00268475 0)
(-0.00055381 0.00539966 0)
(-0.00123773 0.00648261 0)
(-0.001988 0.00680411 0)
(-0.00274357 0.00682366 0)
(-0.00349063 0.00672624 0)
(-0.00422237 0.00657435 0)
(-0.00493408 0.0063871 0)
(-0.00562225 0.00617048 0)
(-0.00628385 0.00592707 0)
(-0.00691608 0.00565863 0)
(-0.00751638 0.00536686 0)
(-0.00808241 0.00505344 0)
(-0.00861206 0.00472011 0)
(-0.00910345 0.00436861 0)
(-0.00955492 0.00400069 0)
(-0.00996501 0.00361806 0)
(-0.0103324 0.00322244 0)
(-0.0106562 0.00281549 0)
(-0.0109353 0.00239883 0)
(-0.011169 0.00197404 0)
(-0.0113567 0.00154265 0)
(-0.011498 0.00110618 0)
(-0.0115925 0.000666073 0)
(-0.0116399 0.00022379 0)
(-0.0116403 -0.000219246 0)
(-0.0115934 -0.000661606 0)
(-0.0114996 -0.00110186 0)
(-0.0113589 -0.00153855 0)
(-0.0111717 -0.00197023 0)
(-0.0109385 -0.00239538 0)
(-0.0106598 -0.00281245 0)
(-0.0103365 -0.00321988 0)
(-0.00996941 -0.00361601 0)
(-0.00955959 -0.00399919 0)
(-0.00910829 -0.00436772 0)
(-0.008617 -0.00471985 0)
(-0.00808736 -0.00505382 0)
(-0.00752125 -0.00536789 0)
(-0.00692078 -0.00566032 0)
(-0.00628831 -0.00592939 0)
(-0.00562641 -0.00617343 0)
(-0.00493787 -0.00639061 0)
(-0.00422575 -0.00657838 0)
(-0.00349358 -0.0067307 0)
(-0.00274605 -0.00682841 0)
(-0.00199 -0.00680883 0)
(-0.00123923 -0.00648665 0)
(-0.000554784 -0.00540191 0)
(-0.000121008 -0.00268397 0)
(-0.000126104 0.00299134 0)
(-0.000578431 0.00601114 0)
(-0.00129258 0.00721398 0)
(-0.00207586 0.00757015 0)
(-0.00286448 0.00759067 0)
(-0.00364394 0.00748107 0)
(-0.00440707 0.00731081 0)
(-0.0051489 0.00710114 0)
(-0.00586576 0.00685877 0)
(-0.00655447 0.0065866 0)
(-0.00721212 0.00628669 0)
(-0.00783607 0.00596096 0)
(-0.00842392 0.00561135 0)
(-0.00897356 0.00523982 0)
(-0.00948308 0.00484835 0)
(-0.00995084 0.00443889 0)
(-0.0103754 0.0040134 0)
(-0.0107556 0.00357376 0)
(-0.0110903 0.00312181 0)
(-0.0113787 0.00265935 0)
(-0.01162 0.0021881 0)
(-0.0118139 0.00170974 0)
(-0.0119597 0.00122589 0)
(-0.0120572 0.000738138 0)
(-0.0121062 0.000248045 0)
(-0.0121065 -0.000242857 0)
(-0.0120582 -0.000733038 0)
(-0.0119614 -0.00122096 0)
(-0.0118163 -0.00170505 0)
(-0.0116231 -0.00218374 0)
(-0.0113823 -0.0026554 0)
(-0.0110944 -0.00311834 0)
(-0.0107602 -0.00357082 0)
(-0.0103804 -0.00401105 0)
(-0.00995612 -0.00443718 0)
(-0.00948857 -0.00484731 0)
(-0.00897917 -0.00523949 0)
(-0.00842956 -0.00561175 0)
(-0.00784163 -0.0059621 0)
(-0.0072175 -0.00628857 0)
(-0.00655959 -0.0065892 0)
(-0.00587054 -0.00686206 0)
(-0.00515327 -0.00710507 0)
(-0.00441096 -0.00731532 0)
(-0.00364732 -0.00748606 0)
(-0.00286729 -0.00759596 0)
(-0.00207809 -0.00757543 0)
(-0.00129418 -0.00721862 0)
(-0.000579404 -0.00601403 0)
(-0.000126381 -0.00299119 0)
(-0.000132128 0.00331207 0)
(-0.000605981 0.00665067 0)
(-0.00135394 0.00797878 0)
(-0.00217415 0.008371 0)
(-0.00299966 0.00839227 0)
(-0.00381526 0.00826961 0)
(-0.00461333 0.00807975 0)
(-0.00538865 0.00784619 0)
(-0.00613733 0.00757644 0)
(-0.00685604 0.00727378 0)
(-0.00754175 0.00694056 0)
(-0.00819173 0.00657896 0)
(-0.00880356 0.0061912 0)
(-0.00937507 0.0057795 0)
(-0.00990438 0.0053461 0)
(-0.0103899 0.00489319 0)
(-0.0108301 0.00442293 0)
(-0.011224 0.00393743 0)
(-0.0115706 0.0034387 0)
(-0.011869 0.00292871 0)
(-0.0121186 0.00240932 0)
(-0.0123189 0.00188235 0)
(-0.0124696 0.00134954 0)
(-0.0125703 0.000812579 0)
(-0.0126209 0.000273134 0)
(-0.0126213 -0.000267174 0)
(-0.0125715 -0.00080672 0)
(-0.0124716 -0.00134387 0)
(-0.0123217 -0.00187696 0)
(-0.012122 -0.00240431 0)
(-0.0118731 -0.00292415 0)
(-0.0115753 -0.00343469 0)
(-0.0112292 -0.00393403 0)
(-0.0108358 -0.00442021 0)
(-0.0103958 -0.00489118 0)
(-0.00991061 -0.00534486 0)
(-0.00938144 -0.00577907 0)
(-0.00880997 -0.00619159 0)
(-0.00819807 -0.00658019 0)
(-0.00754791 -0.00694263 0)
(-0.00686191 -0.00727668 0)
(-0.00614282 -0.00758012 0)
(-0.00539367 -0.0078506 0)
(-0.0046178 -0.0080848 0)
(-0.00381911 -0.0082752 0)
(-0.00300285 -0.0083982 0)
(-0.00217662 -0.00837696 0)
(-0.00135567 -0.00798412 0)
(-0.000606977 -0.00665428 0)
(-0.000132404 -0.00331255 0)
(-0.000138838 0.00364859 0)
(-0.000636674 0.00732154 0)
(-0.0014223 0.00878087 0)
(-0.00228359 0.00921066 0)
(-0.00315014 0.00923237 0)
(-0.00400584 0.0090956 0)
(-0.00484265 0.0088847 0)
(-0.00565499 0.00862558 0)
(-0.00643877 0.00832659 0)
(-0.00719048 0.00799142 0)
(-0.00790697 0.00762276 0)
(-0.00858543 0.00722311 0)
(-0.00922338 0.00679499 0)
(-0.00981866 0.00634091 0)
(-0.0103694 0.00586339 0)
(-0.010874 0.00536488 0)
(-0.0113312 0.00484777 0)
(-0.0117398 0.00431437 0)
(-0.012099 0.00376691 0)
(-0.012408 0.0032075 0)
(-0.0126664 0.00263816 0)
(-0.0128736 0.00206083 0)
(-0.0130294 0.00147736 0)
(-0.0131336 0.000889533 0)
(-0.0131859 0.000299097 0)
(-0.0131864 -0.000292244 0)
(-0.0131349 -0.000882793 0)
(-0.0130317 -0.00147084 0)
(-0.0128767 -0.00205463 0)
(-0.0126703 -0.00263238 0)
(-0.0124127 -0.00320224 0)
(-0.0121043 -0.00376226 0)
(-0.0117457 -0.00431042 0)
(-0.0113375 -0.00484458 0)
(-0.0108808 -0.00536251 0)
(-0.0103765 -0.0058619 0)
(-0.0098259 -0.00634034 0)
(-0.00923068 -0.00679535 0)
(-0.00859267 -0.00722443 0)
(-0.00791401 -0.00762503 0)
(-0.00719721 -0.00799463 0)
(-0.00644507 -0.00833069 0)
(-0.00566074 -0.00863052 0)
(-0.00484776 -0.00889037 0)
(-0.00401024 -0.00910188 0)
(-0.00315375 -0.00923906 0)
(-0.00228637 -0.00921741 0)
(-0.0014242 -0.00878701 0)
(-0.000637729 -0.00732592 0)
(-0.000139128 -0.00364971 0)
(-0.000146293 0.00400266 0)
(-0.000670765 0.00802724 0)
(-0.00149821 0.0096244 0)
(-0.00240507 0.0100934 0)
(-0.00331708 0.0101152 0)
(-0.00421715 0.00996305 0)
(-0.0050967 0.00972943 0)
(-0.00594983 0.0094428 0)
(-0.00677216 0.0091124 0)
(-0.00756 0.00874241 0)
(-0.00831008 0.0083359 0)
(-0.00901951 0.00789572 0)
(-0.00968576 0.00742473 0)
(-0.0103067 0.00692579 0)
(-0.0108804 0.00640169 0)
(-0.0114055 0.00585518 0)
(-0.0118806 0.00528891 0)
(-0.0123049 0.00470541 0)
(-0.0126775 0.00410709 0)
(-0.0129977 0.00349624 0)
(-0.0132653 0.00287502 0)
(-0.0134797 0.00224547 0)
(-0.0136409 0.00160954 0)
(-0.0137486 0.000969102 0)
(-0.0138027 0.000325959 0)
(-0.0138032 -0.000318119 0)
(-0.0137501 -0.000961386 0)
(-0.0136434 -0.00160207 0)
(-0.0134832 -0.00223836 0)
(-0.0132696 -0.00286838 0)
(-0.013003 -0.00349019 0)
(-0.0126834 -0.00410173 0)
(-0.0123115 -0.00470083 0)
(-0.0118879 -0.0052852 0)
(-0.0114132 -0.00585241 0)
(-0.0108884 -0.00639992 0)
(-0.0103149 -0.00692506 0)
(-0.00969406 -0.00742507 0)
(-0.00902776 -0.00789715 0)
(-0.00831813 -0.00833841 0)
(-0.0075677 -0.00874599 0)
(-0.00677937 -0.00911699 0)
(-0.00595642 -0.00944834 0)
(-0.00510256 -0.00973582 0)
(-0.00422217 -0.00997013 0)
(-0.00332118 -0.0101227 0)
(-0.0024082 -0.0101011 0)
(-0.00150032 -0.00963146 0)
(-0.000671907 -0.00803247 0)
(-0.000146605 -0.00400445 0)
(-0.000154561 0.00437621 0)
(-0.000708552 0.00877155 0)
(-0.00158231 0.0105138 0)
(-0.00253961 0.0110238 0)
(-0.00350185 0.0110451 0)
(-0.00445087 0.0108762 0)
(-0.00537749 0.0106179 0)
(-0.00627537 0.0103015 0)
(-0.00713988 0.00993723 0)
(-0.00796713 0.00952977 0)
(-0.00875369 0.00908264 0)
(-0.0094966 0.00859911 0)
(-0.0101933 0.00808243 0)
(-0.0108417 0.00753581 0)
(-0.01144 0.00696241 0)
(-0.0119868 0.00636526 0)
(-0.0124809 0.0057473 0)
(-0.0129216 0.00511129 0)
(-0.0133082 0.00445983 0)
(-0.0136401 0.00379537 0)
(-0.0139172 0.00312021 0)
(-0.0141391 0.00243649 0)
(-0.0143058 0.00174624 0)
(-0.0144172 0.00105137 0)
(-0.0144731 0.000353742 0)
(-0.0144737 -0.000344841 0)
(-0.0144189 -0.0010426 0)
(-0.0143086 -0.00173774 0)
(-0.014143 -0.0024284 0)
(-0.0139221 -0.00311265 0)
(-0.013646 -0.00378847 0)
(-0.0133149 -0.00445369 0)
(-0.0129291 -0.00510603 0)
(-0.0124891 -0.00574303 0)
(-0.0119955 -0.00636207 0)
(-0.0114491 -0.00696035 0)
(-0.0108511 -0.00753494 0)
(-0.0102028 -0.00808277 0)
(-0.00950601 -0.00860069 0)
(-0.00876289 -0.00908545 0)
(-0.00797594 -0.0095338 0)
(-0.00714814 -0.00994242 0)
(-0.00628292 -0.0103078 0)
(-0.00538419 -0.0106252 0)
(-0.00445661 -0.0108843 0)
(-0.00350653 -0.0110537 0)
(-0.00254315 -0.0110326 0)
(-0.00158466 -0.0105219 0)
(-0.000709788 -0.00877773 0)
(-0.000154892 -0.0043787 0)
(-0.00016372 0.00477132 0)
(-0.000750379 0.0095586 0)
(-0.00167537 0.0114541 0)
(-0.00268841 0.0120069 0)
(-0.00370608 0.0120272 0)
(-0.004709 0.0118397 0)
(-0.00568729 0.0115545 0)
(-0.00663418 0.0112057 0)
(-0.00754471 0.0108046 0)
(-0.00841476 0.0103566 0)
(-0.00924077 0.0098657 0)
(-0.0100197 0.00933562 0)
(-0.0107491 0.00877005 0)
(-0.0114267 0.00817264 0)
(-0.012051 0.0075469 0)
(-0.0126206 0.00689621 0)
(-0.0131346 0.00622379 0)
(-0.0135924 0.00553266 0)
(-0.0139934 0.00482561 0)
(-0.0143373 0.00410525 0)
(-0.0146241 0.00337399 0)
(-0.0148537 0.00263407 0)
(-0.015026 0.00188756 0)
(-0.0151411 0.0011364 0)
(-0.0151989 0.000382473 0)
(-0.0151996 -0.000372415 0)
(-0.015143 -0.00112649 0)
(-0.0150292 -0.00187794 0)
(-0.0148581 -0.00262491 0)
(-0.0146297 -0.00336543 0)
(-0.014344 -0.00409741 0)
(-0.014001 -0.00481862 0)
(-0.0136009 -0.00552666 0)
(-0.0131439 -0.0062189 0)
(-0.0126305 -0.00689253 0)
(-0.0120613 -0.00754452 0)
(-0.0114373 -0.00817161 0)
(-0.0107598 -0.00877042 0)
(-0.0100304 -0.0093374 0)
(-0.00925127 -0.00986889 0)
(-0.00842483 -0.0103612 0)
(-0.00755416 -0.0108105 0)
(-0.00664283 -0.0112128 0)
(-0.00569497 -0.0115627 0)
(-0.00471556 -0.0118489 0)
(-0.0037114 -0.012037 0)
(-0.0026924 -0.0120169 0)
(-0.00167799 -0.0114634 0)
(-0.000751714 -0.00956586 0)
(-0.000164065 -0.00477457 0)
(-0.000173862 0.00519029 0)
(-0.000796652 0.0103929 0)
(-0.00177827 0.0124504 0)
(-0.00285286 0.0130481 0)
(-0.00393165 0.0130665 0)
(-0.00499384 0.0128585 0)
(-0.0060288 0.0125437 0)
(-0.00702923 0.0121594 0)
(-0.00798981 0.0117182 0)
(-0.0089062 0.0112262 0)
(-0.00977472 0.0106879 0)
(-0.0105923 0.0101076 0)
(-0.0113563 0.00948958 0)
(-0.0120649 0.00883786 0)
(-0.0127164 0.00815641 0)
(-0.0133099 0.00744898 0)
(-0.0138445 0.0067191 0)
(-0.0143198 0.00597004 0)
(-0.0147356 0.00520479 0)
(-0.0150917 0.00442611 0)
(-0.0153883 0.00363652 0)
(-0.0156255 0.0028383 0)
(-0.0158035 0.00203356 0)
(-0.0159222 0.00122424 0)
(-0.0159819 0.000412188 0)
(-0.0159827 -0.000400811 0)
(-0.0159244 -0.00121302 0)
(-0.0158071 -0.00202266 0)
(-0.0156305 -0.00282791 0)
(-0.0153946 -0.00362679 0)
(-0.0150992 -0.00441719 0)
(-0.0147442 -0.00519682 0)
(-0.0143294 -0.00596317 0)
(-0.013855 -0.00671348 0)
(-0.0133211 -0.00744473 0)
(-0.0127282 -0.00815363 0)
(-0.012077 -0.00883663 0)
(-0.0113686 -0.00948994 0)
(-0.0106045 -0.0101096 0)
(-0.0097867 -0.0106915 0)
(-0.00891772 -0.0112314 0)
(-0.00800063 -0.0117249 0)
(-0.00703914 -0.0121675 0)
(-0.00603759 -0.0125531 0)
(-0.00500134 -0.0128689 0)
(-0.00393772 -0.0130777 0)
(-0.00285739 -0.0130596 0)
(-0.00178121 -0.0124611 0)
(-0.000798107 -0.0104014 0)
(-0.000174222 -0.00519435 0)
(-0.000185091 0.00563566 0)
(-0.000847849 0.0112794 0)
(-0.00189209 0.0135087 0)
(-0.00303464 0.0141535 0)
(-0.00418077 0.0141689 0)
(-0.0053081 0.013938 0)
(-0.00640512 0.0135905 0)
(-0.00746394 0.0131672 0)
(-0.00847885 0.012682 0)
(-0.00944527 0.0121419 0)
(-0.0103594 0.0115521 0)
(-0.011218 0.0109175 0)
(-0.0120188 0.0102429 0)
(-0.0127599 0.00953293 0)
(-0.0134398 0.00879204 0)
(-0.0140579 0.00802436 0)
(-0.0146136 0.00723375 0)
(-0.0151067 0.00642375 0)
(-0.0155373 0.00559754 0)
(-0.0159056 0.00475803 0)
(-0.016212 0.00390779 0)
(-0.0164567 0.00304916 0)
(-0.0166401 0.00218422 0)
(-0.0167625 0.00131487 0)
(-0.016824 0.000442904 0)
(-0.0168248 -0.000429981 0)
(-0.0167649 -0.00130212 0)
(-0.0166441 -0.00217182 0)
(-0.0164622 -0.00303732 0)
(-0.016219 -0.0038967 0)
(-0.015914 -0.00474784 0)
(-0.015547 -0.00558843 0)
(-0.0151175 -0.00641586 0)
(-0.0146255 -0.00722726 0)
(-0.0140706 -0.0080194 0)
(-0.0134532 -0.00878874 0)
(-0.0127736 -0.00953139 0)
(-0.0120328 -0.0102432 0)
(-0.011232 -0.0109196 0)
(-0.0103731 -0.0115561 0)
(-0.00945845 -0.0121477 0)
(-0.00849125 -0.0126896 0)
(-0.00747529 -0.0131764 0)
(-0.0064152 -0.0136011 0)
(-0.00531669 -0.0139499 0)
(-0.00418771 -0.0141817 0)
(-0.0030398 -0.0141666 0)
(-0.00189541 -0.0135211 0)
(-0.000849467 -0.0112894 0)
(-0.00018548 -0.0056406 0)
(-0.000197531 0.00611025 0)
(-0.00090454 0.0122238 0)
(-0.00201806 0.0146356 0)
(-0.0032357 0.0153297 0)
(-0.00445606 0.0153409 0)
(-0.00565496 0.0150841 0)
(-0.00681991 0.0147002 0)
(-0.00794232 0.0142337 0)
(-0.00901609 0.0137001 0)
(-0.0100364 0.0131072 0)
(-0.0109992 0.0124611 0)
(-0.0119015 0.0117674 0)
(-0.0127409 0.0110317 0)
(-0.0135157 0.0102591 0)
(-0.014225 0.0094546 0)
(-0.0148682 0.00862282 0)
(-0.0154451 0.00776796 0)
(-0.015956 0.0068938 0)
(-0.0164013 0.00600375 0)
(-0.0167815 0.0051008 0)
(-0.0170972 0.00418758 0)
(-0.0173491 0.00326641 0)
(-0.0175378 0.00233935 0)
(-0.0176636 0.00140818 0)
(-0.0177268 0.00047458 0)
(-0.0177277 -0.000459885 0)
(-0.0176662 -0.00139368 0)
(-0.0175423 -0.00232524 0)
(-0.0173554 -0.00325293 0)
(-0.0171051 -0.00417492 0)
(-0.0167909 -0.00508916 0)
(-0.0164122 -0.00599332 0)
(-0.0159682 -0.00688475 0)
(-0.0154585 -0.00776046 0)
(-0.0148826 -0.00861704 0)
(-0.0142402 -0.00945068 0)
(-0.0135314 -0.0102571 0)
(-0.0127568 -0.0110318 0)
(-0.0119174 -0.0117697 0)
(-0.0110148 -0.0124655 0)
(-0.0100514 -0.0131137 0)
(-0.0090303 -0.0137086 0)
(-0.00795536 -0.0142441 0)
(-0.00683148 -0.0147123 0)
(-0.00566483 -0.0150976 0)
(-0.00446402 -0.0153555 0)
(-0.00324161 -0.0153447 0)
(-0.00202186 -0.0146499 0)
(-0.000906375 -0.0122355 0)
(-0.000197968 -0.00611616 0)
(-0.000211328 0.00661721 0)
(-0.000967406 0.0132323 0)
(-0.00215768 0.0158383 0)
(-0.00345837 0.016584 0)
(-0.00476061 0.0165893 0)
(-0.00603818 0.0163032 0)
(-0.00727745 0.0158786 0)
(-0.00846907 0.0153641 0)
(-0.00960646 0.0147767 0)
(-0.0106845 0.0141256 0)
(-0.0116992 0.0134177 0)
(-0.0126475 0.0126595 0)
(-0.0135272 0.0118574 0)
(-0.0143369 0.0110173 0)
(-0.0150761 0.0101446 0)
(-0.0157446 0.00924454 0)
(-0.0163426 0.00832161 0)
(-0.0168709 0.00737991 0)
(-0.0173303 0.006423 0)
(-0.0177218 0.00545395 0)
(-0.0180463 0.00447541 0)
(-0.0183049 0.00348966 0)
(-0.0184983 0.00249862 0)
(-0.0186272 0.00150395 0)
(-0.018692 0.000507127 0)
(-0.018693 -0.000490472 0)