/*--------------------------------*- C++ -*----------------------------------*\
  =========                 |
  \\      /  F ield         | OpenFOAM: The Open Source CFD Toolbox
   \\    /   O peration     | Website:  https://openfoam.org
    \\  /    A nd           | Version:  7
     \\/     M anipulation  |
\*---------------------------------------------------------------------------*/
FoamFile
{
    version     2.0;
    format      ascii;
    class       volVectorField;
    location    "0.0238";
    object      U;
}
// * * * * * * * * * * * * * * * * * * * * * * * * * * * * * * * * * * * * * //

dimensions      [0 1 -1 0 0 0 0];

internalField   nonuniform List<vector> 
2500
(
(2.43748e-05 -2.42578e-05 0)
(6.62126e-05 -2.47115e-05 0)
(7.44584e-05 -6.48847e-06 0)
(2.31565e-05 1.60571e-05 0)
(-9.26024e-05 3.78104e-05 0)
(-0.000268343 5.69069e-05 0)
(-0.000496231 7.27105e-05 0)
(-0.000767445 8.5216e-05 0)
(-0.00107291 9.46283e-05 0)
(-0.00140379 0.000101205 0)
(-0.00175178 0.000105209 0)
(-0.00210911 0.000106896 0)
(-0.00246868 0.000106506 0)
(-0.00282401 0.000104265 0)
(-0.00316929 0.000100381 0)
(-0.00349928 9.50493e-05 0)
(-0.00380935 8.84485e-05 0)
(-0.00409544 8.07435e-05 0)
(-0.00435399 7.20852e-05 0)
(-0.00458193 6.26122e-05 0)
(-0.00477666 5.24538e-05 0)
(-0.004936 4.17301e-05 0)
(-0.00505819 3.05544e-05 0)
(-0.00514185 1.90362e-05 0)
(-0.005186 7.28304e-06 0)
(-0.00519004 -4.59664e-06 0)
(-0.00515376 -1.64919e-05 0)
(-0.00507734 -2.82868e-05 0)
(-0.0049614 -3.98583e-05 0)
(-0.00480697 -5.10751e-05 0)
(-0.00461558 -6.17953e-05 0)
(-0.00438925 -7.18663e-05 0)
(-0.00413053 -8.11239e-05 0)
(-0.00384253 -8.93923e-05 0)
(-0.00352898 -9.6485e-05 0)
(-0.00319419 -0.000102205 0)
(-0.00284316 -0.000106346 0)
(-0.0024815 -0.000108695 0)
(-0.00211552 -0.000109032 0)
(-0.00175214 -0.000107134 0)
(-0.00139892 -0.000102772 0)
(-0.00106397 -9.57203e-05 0)
(-0.000755921 -8.5755e-05 0)
(-0.000483732 -7.26721e-05 0)
(-0.000256453 -5.63311e-05 0)
(-8.26609e-05 -3.68134e-05 0)
(3.01711e-05 -1.48547e-05 0)
(7.81652e-05 7.66731e-06 0)
(6.72651e-05 2.54497e-05 0)
(2.43483e-05 2.42978e-05 0)
(2.51587e-05 -6.62954e-05 0)
(3.9229e-05 -3.82016e-05 0)
(-4.61273e-05 5.75664e-05 0)
(-0.000267606 0.000174173 0)
(-0.000635083 0.00029047 0)
(-0.00114308 0.000396444 0)
(-0.00177716 0.000487439 0)
(-0.00251849 0.000561781 0)
(-0.00334635 0.000619269 0)
(-0.00423958 0.000660425 0)
(-0.00517742 0.000686152 0)
(-0.0061401 0.000697539 0)
(-0.00710907 0.000695764 0)
(-0.0080672 0.00068203 0)
(-0.00899889 0.000657525 0)
(-0.00989002 0.000623402 0)
(-0.010728 0.000580764 0)
(-0.0115016 0.000530656 0)
(-0.012201 0.000474062 0)
(-0.0128178 0.000411905 0)
(-0.0133448 0.000345057 0)
(-0.013776 0.000274346 0)
(-0.0141063 0.000200561 0)
(-0.0143322 0.00012447 0)
(-0.0144508 4.68327e-05 0)
(-0.0144606 -3.15913e-05 0)
(-0.0143611 -0.000110025 0)
(-0.0141529 -0.000187663 0)
(-0.0138377 -0.000263662 0)
(-0.0134186 -0.000337127 0)
(-0.0128999 -0.000407111 0)
(-0.0122872 -0.000472604 0)
(-0.0115876 -0.000532537 0)
(-0.0108097 -0.000585783 0)
(-0.00996365 -0.000631162 0)
(-0.00906132 -0.000667452 0)
(-0.0081161 -0.000693407 0)
(-0.00714308 -0.000707771 0)
(-0.00615894 -0.000709307 0)
(-0.0051819 -0.000696825 0)
(-0.0042315 -0.000669232 0)
(-0.00332842 -0.00062559 0)
(-0.00249403 -0.000565221 0)
(-0.00174982 -0.000487886 0)
(-0.00111646 -0.000394122 0)
(-0.000612236 -0.000285978 0)
(-0.000250731 -0.000168515 0)
(-3.62538e-05 -5.20103e-05 0)
(4.29879e-05 4.21145e-05 0)
(2.57595e-05 6.72852e-05 0)
(7.71463e-06 -7.57913e-05 0)
(-5.40571e-05 4.61836e-05 0)
(-0.000288054 0.000292391 0)
(-0.000719424 0.000582823 0)
(-0.00135535 0.000875031 0)
(-0.00218864 0.00114539 0)
(-0.00320072 0.00138127 0)
(-0.00436641 0.00157669 0)
(-0.00565712 0.00172955 0)
(-0.00704291 0.00184004 0)
(-0.0084938 0.00190967 0)
(-0.00998074 0.00194071 0)
(-0.0114762 0.00193592 0)
(-0.0129543 0.00189826 0)
(-0.0143915 0.00183075 0)
(-0.0157662 0.00173645 0)
(-0.0170589 0.00161829 0)
(-0.0182526 0.00147912 0)
(-0.0193319 0.00132165 0)
(-0.0202837 0.00114846 0)
(-0.0210969 0.000962007 0)
(-0.021762 0.00076462 0)
(-0.0222714 0.000558559 0)
(-0.0226193 0.000346018 0)
(-0.0228015 0.000129169 0)
(-0.0228156 -8.98102e-05 0)
(-0.0226608 -0.000308701 0)
(-0.0223382 -0.00052521 0)
(-0.0218507 -0.000736945 0)
(-0.021203 -0.000941387 0)
(-0.0204018 -0.00113588 0)
(-0.019456 -0.00131761 0)
(-0.0183768 -0.00148362 0)
(-0.0171773 -0.00163083 0)
(-0.0158733 -0.00175601 0)
(-0.0144829 -0.00185588 0)
(-0.0130267 -0.00192712 0)
(-0.0115276 -0.00196645 0)
(-0.0100107 -0.00197071 0)
(-0.0085033 -0.00193699 0)
(-0.00703445 -0.00186276 0)
(-0.0056344 -0.00174612 0)
(-0.00433401 -0.00158612 0)
(-0.00316368 -0.0013833 0)
(-0.00215194 -0.00114057 0)
(-0.00132335 -0.000864788 0)
(-0.0006953 -0.000569478 0)
(-0.000273365 -0.000278975 0)
(-4.7984e-05 -3.60666e-05 0)
(8.87178e-06 7.94164e-05 0)
(-1.38214e-05 -2.7706e-05 0)
(-0.000168042 0.000264458 0)
(-0.000575564 0.000722804 0)
(-0.00123689 0.00124239 0)
(-0.00215024 0.00176224 0)
(-0.00330444 0.00224496 0)
(-0.00467651 0.00266872 0)
(-0.00623598 0.00302199 0)
(-0.00794829 0.00329977 0)
(-0.00977686 0.00350123 0)
(-0.0116847 0.00362816 0)
(-0.0136355 0.00368405 0)
(-0.0155946 0.0036734 0)
(-0.0175292 0.0036013 0)
(-0.0194091 0.00347315 0)
(-0.0212065 0.00329439 0)
(-0.0228965 0.00307045 0)
(-0.0244566 0.0028066 0)
(-0.0258672 0.00250791 0)
(-0.027111 0.00217924 0)
(-0.0281734 0.00182524 0)
(-0.0290421 0.00145039 0)
(-0.0297073 0.001059 0)
(-0.0301612 0.000655276 0)
(-0.0303985 0.000243407 0)
(-0.030416 -0.000172424 0)
(-0.0302128 -0.000587953 0)
(-0.0297903 -0.000998788 0)
(-0.0291524 -0.00140035 0)
(-0.0283054 -0.00178786 0)
(-0.0272581 -0.00215625 0)
(-0.0260222 -0.00250024 0)
(-0.0246121 -0.00281426 0)
(-0.0230451 -0.00309253 0)
(-0.0213416 -0.00332908 0)
(-0.019525 -0.00351785 0)
(-0.0176219 -0.00365278 0)
(-0.0156615 -0.00372796 0)
(-0.0136759 -0.0037378 0)
(-0.0116998 -0.00367729 0)
(-0.00976955 -0.00354231 0)
(-0.00792298 -0.00333007 0)
(-0.00619819 -0.00303975 0)
(-0.00463236 -0.00267343 0)
(-0.00326005 -0.00223753 0)
(-0.00211102 -0.0017451 0)
(-0.00120691 -0.00121944 0)
(-0.000556962 -0.00069917 0)
(-0.000160203 -0.000246023 0)
(-1.23163e-05 3.51135e-05 0)
(-3.4733e-05 8.34021e-05 0)
(-0.000283922 0.000628902 0)
(-0.00087231 0.00136031 0)
(-0.0017703 0.00215761 0)
(-0.00296295 0.00294591 0)
(-0.0044328 0.00367629 0)
(-0.00615132 0.00431832 0)
(-0.00808276 0.00485476 0)
(-0.0101872 0.00527729 0)
(-0.0124227 0.00558367 0)
(-0.0147464 0.00577575 0)
(-0.0171162 0.00585809 0)
(-0.0194917 0.00583703 0)
(-0.0218345 0.00572001 0)
(-0.0241089 0.00551504 0)
(-0.0262821 0.00523042 0)
(-0.0283244 0.00487446 0)
(-0.030209 0.00445533 0)
(-0.0319124 0.00398095 0)
(-0.0334142 0.00345897 0)
(-0.0346966 0.00289675 0)
(-0.035745 0.00230138 0)
(-0.0365476 0.00167973 0)
(-0.037095 0.00103853 0)
(-0.0373809 0.000384458 0)
(-0.0374016 -0.000275801 0)
(-0.0371558 -0.000935439 0)
(-0.0366455 -0.00158745 0)
(-0.0358753 -0.00222457 0)
(-0.0348526 -0.00283918 0)
(-0.0335883 -0.00342331 0)
(-0.0320963 -0.0039686 0)
(-0.0303938 -0.00446632 0)
(-0.0285017 -0.00490744 0)
(-0.0264441 -0.00528267 0)
(-0.024249 -0.00558264 0)
(-0.0219477 -0.00579806 0)
(-0.0195749 -0.00591997 0)
(-0.0171684 -0.00594004 0)
(-0.0147687 -0.00585094 0)
(-0.0124184 -0.00564691 0)
(-0.0101613 -0.0053244 0)
(-0.00804147 -0.00488305 0)
(-0.00610173 -0.00432694 0)
(-0.00438207 -0.00366647 0)
(-0.00291753 -0.00292117 0)
(-0.00173516 -0.00212362 0)
(-0.000850235 -0.00132465 0)
(-0.000274481 -0.000600469 0)
(-3.28792e-05 -7.13611e-05 0)
(-5.36145e-05 0.000254739 0)
(-0.000394118 0.00113929 0)
(-0.00116088 0.00220672 0)
(-0.0022936 0.00332996 0)
(-0.00376221 0.00442486 0)
(-0.00554112 0.00543371 0)
(-0.00759509 0.00631895 0)
(-0.0098825 0.0070582 0)
(-0.0123582 0.00763999 0)
(-0.0149749 0.00806062 0)
(-0.017685 0.00832194 0)
(-0.0204414 0.00842959 0)
(-0.0231988 0.00839184 0)
(-0.025914 0.0082186 0)
(-0.0285468 0.0079208 0)
(-0.0310603 0.00750985 0)
(-0.0334206 0.00699733 0)
(-0.0355977 0.00639468 0)
(-0.0375646 0.00571309 0)
(-0.0392981 0.00496342 0)
(-0.0407781 0.00415613 0)
(-0.0419879 0.00330137 0)
(-0.0429138 0.002409 0)
(-0.0435454 0.00148867 0)
(-0.0438753 0.00054996 0)
(-0.0438993 -0.000397504 0)
(-0.0436161 -0.00134395 0)
(-0.0430277 -0.00227933 0)
(-0.0421396 -0.00319322 0)
(-0.0409602 -0.00407476 0)
(-0.0395018 -0.00491255 0)
(-0.0377803 -0.00569472 0)
(-0.0358153 -0.00640888 0)
(-0.0336304 -0.00704225 0)
(-0.0312532 -0.00758178 0)
(-0.0287153 -0.00801434 0)
(-0.026052 -0.00832701 0)
(-0.0233025 -0.00850742 0)
(-0.0205095 -0.0085442 0)
(-0.0177185 -0.00842757 0)
(-0.0149771 -0.00815003 0)
(-0.0123345 -0.00770733 0)
(-0.00984002 -0.00709961 0)
(-0.00754182 -0.00633308 0)
(-0.00548527 -0.00542208 0)
(-0.00371135 -0.00439209 0)
(-0.00225372 -0.00328371 0)
(-0.00113553 -0.00215736 0)
(-0.000383163 -0.00109923 0)
(-5.14403e-05 -0.000237292 0)
(-7.02244e-05 0.000481419 0)
(-0.000496186 0.00178946 0)
(-0.00143437 0.00325679 0)
(-0.00279543 0.00475458 0)
(-0.00453374 0.00619334 0)
(-0.00661454 0.00750934 0)
(-0.00899486 0.00865964 0)
(-0.0116265 0.00961777 0)
(-0.0144586 0.0103696 0)
(-0.017439 0.0109105 0)
(-0.0205151 0.0112422 0)
(-0.0236354 0.0113717 0)
(-0.0267502 0.0113094 0)
(-0.0298123 0.0110679 0)
(-0.0327776 0.0106611 0)
(-0.0356054 0.010104 0)
(-0.0382589 0.00941169 0)
(-0.0407047 0.00859915 0)
(-0.0429134 0.00768124 0)
(-0.0448592 0.00667233 0)
(-0.0465201 0.00558639 0)
(-0.0478775 0.00443694 0)
(-0.0489165 0.00323718 0)
(-0.0496256 0.00200003 0)
(-0.0499965 0.000738337 0)
(-0.0500245 -0.000535003 0)
(-0.0497082 -0.00180689 0)
(-0.0490499 -0.00306388 0)
(-0.0480553 -0.00429202 0)
(-0.0467339 -0.0054768 0)
(-0.0450992 -0.00660304 0)
(-0.0431685 -0.00765491 0)
(-0.0409635 -0.00861598 0)
(-0.03851 -0.0094693 0)
(-0.0358384 -0.0101976 0)
(-0.0329834 -0.0107837 0)
(-0.0299839 -0.0112107 0)
(-0.0268828 -0.0114623 0)
(-0.023727 -0.011524 0)
(-0.0205664 -0.0113833 0)
(-0.0174534 -0.0110308 0)
(-0.014442 -0.0104614 0)
(-0.0115865 -0.00967567 0)
(-0.00894055 -0.00868162 0)
(-0.00655534 -0.00749708 0)
(-0.00447847 -0.0061526 0)
(-0.0027513 -0.00469516 0)
(-0.0014059 -0.00319221 0)
(-0.000483714 -0.0017362 0)
(-6.77081e-05 -0.000457699 0)
(-8.48804e-05 0.000758665 0)
(-0.000590355 0.0025716 0)
(-0.00169184 0.00450259 0)
(-0.00327345 0.00642405 0)
(-0.00527446 0.00824406 0)
(-0.00765042 0.00989525 0)
(-0.0103499 0.0113311 0)
(-0.0133176 0.0125222 0)
(-0.0164966 0.0134528 0)
(-0.0198292 0.0141175 0)
(-0.0232581 0.0145187 0)
(-0.0267274 0.014665 0)
(-0.0301834 0.014569 0)
(-0.0335752 0.0142463 0)
(-0.0368551 0.0137142 0)
(-0.0399796 0.0129914 0)
(-0.0429087 0.0120968 0)
(-0.0456066 0.0110494 0)
(-0.0480416 0.00986777 0)
(-0.0501859 0.00857028 0)
(-0.0520159 0.0071746 0)
(-0.0535116 0.00569797 0)
(-0.0546567 0.00415716 0)
(-0.0554388 0.00256867 0)
(-0.055849 0.000948892 0)
(-0.0558822 -0.000685738 0)
(-0.0555369 -0.00231851 0)
(-0.0548152 -0.00393227 0)
(-0.0537233 -0.00550926 0)
(-0.0522713 -0.00703098 0)
(-0.0504736 -0.00847814 0)
(-0.0483488 -0.00983061 0)
(-0.0459201 -0.0110676 0)
(-0.0432153 -0.0121675 0)
(-0.0402671 -0.0131086 0)
(-0.0371127 -0.0138692 0)
(-0.0337942 -0.0144279 0)
(-0.0303579 -0.0147646 0)
(-0.0268544 -0.014861 0)
(-0.0233377 -0.0147016 0)
(-0.0198647 -0.0142749 0)
(-0.0164942 -0.0135746 0)
(-0.0132859 -0.0126013 0)
(-0.0102988 -0.0113644 0)
(-0.00759073 -0.00988456 0)
(-0.00521653 -0.00819619 0)
(-0.00322596 -0.00635109 0)
(-0.00166058 -0.00442157 0)
(-0.000576404 -0.00250369 0)
(-8.19979e-05 -0.000727826 0)
(-9.80388e-05 0.00108235 0)
(-0.000677996 0.00347829 0)
(-0.00193544 0.00593615 0)
(-0.00373048 0.008331 0)
(-0.00598808 0.0105704 0)
(-0.00865399 0.0125853 0)
(-0.011668 0.014327 0)
(-0.0149669 0.0157646 0)
(-0.0184873 0.0168814 0)
(-0.0221659 0.0176723 0)
(-0.0259404 0.0181408 0)
(-0.0297503 0.0182974 0)
(-0.033538 0.0181575 0)
(-0.0372491 0.0177399 0)
(-0.0408328 0.0170658 0)
(-0.0442426 0.0161578 0)
(-0.0474361 0.0150389 0)
(-0.0503753 0.0137323 0)
(-0.0530265 0.0122608 0)
(-0.0553605 0.0106469 0)
(-0.0573519 0.00891214 0)
(-0.0589797 0.00707781 0)
(-0.0602266 0.00516449 0)
(-0.0610794 0.00319246 0)
(-0.0615286 0.00118184 0)
(-0.0615687 -0.000847136 0)
(-0.0611978 -0.00287394 0)
(-0.0604182 -0.00487748 0)
(-0.0592362 -0.00683594 0)
(-0.0576623 -0.00872658 0)
(-0.0557115 -0.0105257 0)
(-0.0534035 -0.0122086 0)
(-0.0507625 -0.0137496 0)
(-0.0478181 -0.0151225 0)
(-0.0446048 -0.0163005 0)
(-0.0411621 -0.0172569 0)
(-0.0375349 -0.0179658 0)
(-0.0337726 -0.0184024 0)
(-0.0299293 -0.0185446 0)
(-0.0260632 -0.0183734 0)
(-0.0222354 -0.0178747 0)
(-0.0185099 -0.0170406 0)
(-0.0149518 -0.0158713 0)
(-0.0116264 -0.0143769 0)
(-0.00859824 -0.0125798 0)
(-0.00593032 -0.0105175 0)
(-0.00368121 -0.00824502 0)
(-0.00190208 -0.00583803 0)
(-0.000662723 -0.00339452 0)
(-9.47855e-05 -0.00104358 0)
(-0.000110152 0.00144932 0)
(-0.000760912 0.00450358 0)
(-0.00216886 0.007551 0)
(-0.00417216 0.0104697 0)
(-0.00668233 0.0131677 0)
(-0.00963537 0.0155756 0)
(-0.0129619 0.0176441 0)
(-0.0165908 0.0193417 0)
(-0.0204513 0.020652 0)
(-0.0244743 0.0215707 0)
(-0.028592 0.0221034 0)
(-0.0327395 0.0222629 0)
(-0.036855 0.022068 0)
(-0.0408807 0.0215413 0)
(-0.0447628 0.0207079 0)
(-0.048452 0.0195949 0)
(-0.0519039 0.0182297 0)
(-0.0550785 0.01664 0)
(-0.0579404 0.0148532 0)
(-0.0604589 0.0128958 0)
(-0.0626075 0.0107939 0)
(-0.0643642 0.00857274 0)
(-0.065711 0.00625696 0)
(-0.0666338 0.00387077 0)
(-0.0671228 0.00143823 0)
(-0.0671718 -0.00101652 0)
(-0.0667788 -0.00346895 0)
(-0.065946 -0.00589387 0)
(-0.0646796 -0.00826518 0)
(-0.0629903 -0.0105557 0)
(-0.0608936 -0.0127371 0)
(-0.0584097 -0.0147798 0)
(-0.055564 -0.0166531 0)
(-0.0523871 -0.0183254 0)
(-0.0489152 -0.0197648 0)
(-0.0451899 -0.0209393 0)
(-0.0412586 -0.0218177 0)
(-0.0371737 -0.0223704 0)
(-0.0329927 -0.0225707 0)
(-0.0287778 -0.0223958 0)
(-0.024595 -0.0218284 0)
(-0.0205133 -0.0208585 0)
(-0.0166039 -0.019485 0)
(-0.0129387 -0.017718 0)
(-0.00958996 -0.0155811 0)
(-0.00662895 -0.0131134 0)
(-0.00412355 -0.0103724 0)
(-0.00213452 -0.00743599 0)
(-0.000744643 -0.00440321 0)
(-0.000106551 -0.00140191 0)
(-0.000121634 0.00185752 0)
(-0.000841024 0.00564353 0)
(-0.00239644 0.00934301 0)
(-0.00460559 0.0128367 0)
(-0.00736719 0.0160339 0)
(-0.0106076 0.0188655 0)
(-0.0142481 0.0212825 0)
(-0.0182091 0.0232541 0)
(-0.0224124 0.0247651 0)
(-0.0267822 0.0258131 0)
(-0.0312453 0.0264062 0)
(-0.0357319 0.0265606 0)
(-0.040176 0.0262989 0)
(-0.0445163 0.0256479 0)
(-0.048696 0.0246374 0)
(-0.0526634 0.0232992 0)
(-0.0563719 0.0216655 0)
(-0.0597798 0.0197689 0)
(-0.0628503 0.0176414 0)
(-0.0655514 0.0153141 0)
(-0.0678559 0.0128176 0)
(-0.0697408 0.0101814 0)
(-0.0711873 0.00743418 0)
(-0.072181 0.00460431 0)
(-0.0727113 0.00171985 0)
(-0.0727719 -0.00119103 0)
(-0.0723603 -0.0040997 0)
(-0.0714783 -0.00697674 0)
(-0.0701321 -0.00979164 0)
(-0.0683325 -0.0125126 0)
(-0.0660949 -0.0151064 0)
(-0.06344 -0.0175383 0)
(-0.0603938 -0.0197724 0)
(-0.056988 -0.0217715 0)
(-0.0532602 -0.0234978 0)
(-0.0492537 -0.0249137 0)
(-0.0450182 -0.0259823 0)
(-0.0406091 -0.0266686 0)
(-0.0360875 -0.0269407 0)
(-0.0315196 -0.0267713 0)
(-0.0269764 -0.0261394 0)
(-0.0225326 -0.025032 0)
(-0.0182658 -0.023446 0)
(-0.0142553 -0.0213909 0)
(-0.0105812 -0.0188902 0)
(-0.00732405 -0.0159841 0)
(-0.00456114 -0.0127318 0)
(-0.00236283 -0.00921257 0)
(-0.00082429 -0.00552651 0)
(-0.00011774 -0.00180095 0)
(-0.000132857 0.00230591 0)
(-0.000920239 0.00689639 0)
(-0.00262277 0.0113109 0)
(-0.00503852 0.0154319 0)
(-0.00805379 0.0191701 0)
(-0.0115853 0.0224573 0)
(-0.0155449 0.0252457 0)
(-0.0198438 0.0275061 0)
(-0.0243963 0.0292253 0)
(-0.0291194 0.0304038 0)
(-0.0339341 0.0310532 0)
(-0.0387652 0.0311938 0)
(-0.0435427 0.0308526 0)
(-0.0482014 0.0300614 0)
(-0.0526817 0.0288553 0)
(-0.0569295 0.027271 0)
(-0.0608961 0.0253462 0)
(-0.0645383 0.0231185 0)
(-0.0678181 0.020625 0)
(-0.0707027 0.0179016 0)
(-0.0731638 0.0149834 0)
(-0.0751779 0.0119042 0)
(-0.0767258 0.00869729 0)
(-0.0777923 0.00539489 0)
(-0.0783666 0.00202919 0)
(-0.0784418 -0.00136754 0)
(-0.078015 -0.00476251 0)
(-0.0770878 -0.00812201 0)
(-0.0756659 -0.011411 0)
(-0.0737597 -0.014593 0)
(-0.0713849 -0.0176296 0)
(-0.068562 -0.0204809 0)
(-0.0653175 -0.0231051 0)
(-0.0616838 -0.0254592 0)
(-0.0576994 -0.0274993 0)
(-0.0534097 -0.0291815 0)
(-0.0488662 -0.0304625 0)
(-0.0441274 -0.0313014 0)
(-0.0392578 -0.0316605 0)
(-0.0343283 -0.0315071 0)
(-0.029415 -0.0308156 0)
(-0.0245986 -0.0295693 0)
(-0.0199637 -0.0277625 0)
(-0.0155977 -0.0254027 0)
(-0.0115894 -0.022513 0)
(-0.00802866 -0.0191338 0)
(-0.00500295 -0.0153253 0)
(-0.00259225 -0.0111681 0)
(-0.00090381 -0.00676371 0)
(-0.000128762 -0.00224 0)
(-0.000144155 0.00279447 0)
(-0.0010004 0.00826274 0)
(-0.00285246 0.0134563 0)
(-0.00547894 0.0182585 0)
(-0.00875376 0.0225811 0)
(-0.0125839 0.0263573 0)
(-0.0168713 0.0295411 0)
(-0.0215179 0.0321056 0)
(-0.0264297 0.0340409 0)
(-0.0315163 0.0353511 0)
(-0.0366921 0.0360522 0)
(-0.0418769 0.0361694 0)
(-0.0469957 0.0357352 0)
(-0.0519799 0.0347871 0)
(-0.0567668 0.0333657 0)
(-0.0612998 0.0315137 0)
(-0.0655287 0.0292745 0)
(-0.0694086 0.0266911 0)
(-0.0729008 0.0238059 0)
(-0.0759713 0.0206599 0)
(-0.0785916 0.017293 0)
(-0.0807375 0.0137434 0)
(-0.0823893 0.0100487 0)
(-0.0835317 0.00624525 0)
(-0.0841533 0.0023694 0)
(-0.0842466 -0.00154256 0)
(-0.0838085 -0.00545368 0)
(-0.0828398 -0.00932591 0)
(-0.0813458 -0.0131197 0)
(-0.0793366 -0.0167936 0)
(-0.0768272 -0.0203042 0)
(-0.0738381 -0.0236058 0)
(-0.0703959 -0.0266507 0)
(-0.0665333 -0.0293896 0)
(-0.0622899 -0.031772 0)
(-0.0577121 -0.0337471 0)
(-0.052854 -0.0352648 0)
(-0.0477766 -0.0362772 0)
(-0.0425484 -0.03674 0)
(-0.0372446 -0.0366145 0)
(-0.0319471 -0.0358694 0)
(-0.0267433 -0.0344834 0)
(-0.0217253 -0.0324471 0)
(-0.016989 -0.0297654 0)
(-0.0126327 -0.02646 0)
(-0.00875654 -0.0225709 0)
(-0.00545835 -0.0181592 0)
(-0.00282812 -0.0133067 0)
(-0.00098531 -0.00811671 0)
(-0.000139991 -0.00271946 0)
(-0.00015583 0.00332411 0)
(-0.00108326 0.0097454 0)
(-0.00309002 0.015784 0)
(-0.00593481 0.0213233 0)
(-0.00947884 0.0262755 0)
(-0.013619 0.0305756 0)
(-0.0182468 0.0341799 0)
(-0.0232547 0.0370646 0)
(-0.0285394 0.0392238 0)
(-0.034003 0.0406665 0)
(-0.0395529 0.041414 0)
(-0.0451031 0.0414976 0)
(-0.0505741 0.0409558 0)
(-0.0558933 0.0398327 0)
(-0.060995 0.0381754 0)
(-0.0658204 0.0360331 0)
(-0.0703174 0.0334552 0)
(-0.0744402 0.0304908 0)
(-0.0781489 0.0271878 0)
(-0.0814094 0.0235925 0)
(-0.0841923 0.0197496 0)
(-0.0864735 0.0157021 0)
(-0.0882329 0.0114916 0)
(-0.0894549 0.00715893 0)
(-0.0901276 0.00274419 0)
(-0.0902432 -0.00171222 0)
(-0.0897979 -0.00616928 0)
(-0.0887918 -0.0105846 0)
(-0.0872296 -0.0149142 0)
(-0.0851206 -0.0191117 0)
(-0.0824791 -0.0231282 0)
(-0.0793252 -0.0269123 0)
(-0.075685 -0.03041 0)
(-0.0715916 -0.0335654 0)
(-0.0670849 -0.0363206 0)
(-0.0622128 -0.0386175 0)
(-0.0570312 -0.0403983 0)
(-0.0516039 -0.0416073 0)
(-0.0460032 -0.0421927 0)
(-0.0403092 -0.0421086 0)
(-0.0346099 -0.0413172 0)
(-0.0289996 -0.0397914 0)
(-0.0235789 -0.037517 0)
(-0.0184528 -0.0344955 0)
(-0.0137301 -0.0307463 0)
(-0.0095218 -0.0263087 0)
(-0.00593683 -0.0212439 0)
(-0.00307579 -0.0156358 0)
(-0.00107085 -0.0095901 0)
(-0.000151775 -0.00324086 0)
(-0.000168165 0.00389667 0)
(-0.00117051 0.0113494 0)
(-0.00333986 0.0183021 0)
(-0.00641394 0.0246366 0)
(-0.0102406 0.0302659 0)
(-0.0147061 0.0351263 0)
(-0.019691 0.039177 0)
(-0.0250771 0.0423984 0)
(-0.030752 0.0447893 0)
(-0.0366091 0.0463648 0)
(-0.0425488 0.0471525 0)
(-0.0484789 0.0471908 0)
(-0.0543149 0.0465256 0)
(-0.0599804 0.0452081 0)
(-0.0654066 0.0432929 0)
(-0.0705327 0.0408363 0)
(-0.0753048 0.0378944 0)
(-0.0796763 0.0345228 0)
(-0.0836068 0.0307752 0)
(-0.0870615 0.0267035 0)
(-0.0900114 0.0223572 0)
(-0.0924318 0.0177841 0)
(-0.0943029 0.0130302 0)
(-0.0956085 0.00814 0)
(-0.0963367 0.00315781 0)
(-0.0964792 -0.00187218 0)
(-0.0960313 -0.00690499 0)
(-0.0949925 -0.0118941 0)
(-0.0933663 -0.0167909 0)
(-0.0911612 -0.0215442 0)
(-0.0883903 -0.0260996 0)
(-0.0850731 -0.0303999 0)
(-0.0812348 -0.0343844 0)
(-0.0769083 -0.0379898 0)
(-0.0721338 -0.0411509 0)
(-0.0669601 -0.043801 0)
(-0.0614447 -0.045874 0)
(-0.0556543 -0.0473054 0)
(-0.0496651 -0.0480349 0)
(-0.0435622 -0.048008 0)
(-0.0374399 -0.0471794 0)
(-0.0314004 -0.0455147 0)
(-0.0255531 -0.0429941 0)
(-0.0200133 -0.0396144 0)
(-0.0149008 -0.035392 0)
(-0.0103387 -0.0303649 0)
(-0.00644792 -0.0245946 0)
(-0.00334056 -0.0181669 0)
(-0.00116243 -0.0111911 0)
(-0.000164448 -0.00380676 0)
(-0.000181422 0.00451481 0)
(-0.00126375 0.0130819 0)
(-0.00360622 0.0210213 0)
(-0.00692395 0.0282125 0)
(-0.0110504 0.0345684 0)
(-0.0158603 0.0400271 0)
(-0.0212225 0.0445511 0)
(-0.0270076 0.0481258 0)
(-0.0330928 0.0507559 0)
(-0.0393628 0.0524635 0)
(-0.0457102 0.053284 0)
(-0.0520364 0.0532639 0)
(-0.0582518 0.0524575 0)
(-0.064276 0.0509245 0)
(-0.0700373 0.0487278 0)
(-0.0754727 0.0459314 0)
(-0.0805273 0.042599 0)
(-0.0851535 0.0387929 0)
(-0.0893107 0.0345731 0)
(-0.0929642 0.0299972 0)
(-0.096085 0.02512 0)
(-0.0986487 0.0199937 0)
(-0.100635 0.0146685 0)
(-0.102029 0.00919292 0)
(-0.102818 0.00361494 0)
(-0.102992 -0.0020176 0)
(-0.102547 -0.00765592 0)
(-0.10148 -0.0132495 0)
(-0.0997953 -0.0187455 0)
(-0.0974986 -0.0240876 0)
(-0.0946022 -0.0292162 0)
(-0.0911239 -0.0340678 0)
(-0.0870882 -0.0385748 0)
(-0.0825269 -0.0426665 0)
(-0.0774803 -0.0462689 0)
(-0.0719976 -0.0493068 0)
(-0.0661378 -0.0517042 0)
(-0.0599703 -0.0533871 0)
(-0.0535749 -0.054285 0)
(-0.0470422 -0.054334 0)
(-0.0404731 -0.0534794 0)
(-0.0339781 -0.0516786 0)
(-0.0276763 -0.0489044 0)
(-0.0216942 -0.0451481 0)
(-0.0161639 -0.0404221 0)
(-0.0112213 -0.0347623 0)
(-0.00700112 -0.0282307 0)
(-0.00362771 -0.0209151 0)
(-0.00126205 -0.0129295 0)
(-0.000178328 -0.00442076 0)
(-0.000195854 0.005182 0)
(-0.00136454 0.0149522 0)
(-0.00389323 0.0239557 0)
(-0.00747227 0.0320684 0)
(-0.0119193 0.0392031 0)
(-0.0170965 0.0452996 0)
(-0.0228598 0.0503245 0)
(-0.0290676 0.0542689 0)
(-0.0355862 0.0571448 0)
(-0.0422906 0.0589823 0)
(-0.0490653 0.0598263 0)
(-0.055805 0.0597326 0)
(-0.0624148 0.0587653 0)
(-0.0688103 0.0569937 0)
(-0.074917 0.0544898 0)
(-0.0806701 0.0513264 0)
(-0.0860138 0.0475754 0)
(-0.0909 0.0433063 0)
(-0.0952882 0.0385861 0)
(-0.0991441 0.0334779 0)
(-0.102439 0.0280418 0)
(-0.10515 0.0223347 0)
(-0.107256 0.0164107 0)
(-0.108742 0.0103223 0)
(-0.109595 0.00412056 0)
(-0.109806 -0.00214309 0)
(-0.10937 -0.00841645 0)
(-0.108282 -0.0146453 0)
(-0.106545 -0.0207725 0)
(-0.104162 -0.0267372 0)
(-0.101146 -0.0324743 0)
(-0.0975103 -0.0379139 0)
(-0.0932793 -0.0429814 0)
(-0.0884832 -0.0475977 0)
(-0.0831614 -0.0516803 0)
(-0.0773634 -0.0551436 0)
(-0.0711491 -0.0579015 0)
(-0.0645902 -0.0598685 0)
(-0.0577705 -0.0609632 0)
(-0.0507856 -0.0611101 0)
(-0.0437437 -0.0602438 0)
(-0.0367641 -0.0583118 0)
(-0.0299764 -0.0552782 0)
(-0.0235193 -0.0511272 0)
(-0.0175382 -0.0458662 0)
(-0.012184 -0.0395285 0)
(-0.00760589 -0.032176 0)
(-0.00394247 -0.0238993 0)
(-0.00137167 -0.0148178 0)
(-0.000193734 -0.00508748 0)
(-0.000211708 0.00590254 0)
(-0.0014744 0.0169716 0)
(-0.00420492 0.027122 0)
(-0.00806611 0.0362253 0)
(-0.012858 0.0441935 0)
(-0.0184287 0.0509688 0)
(-0.0246201 0.0565226 0)
(-0.0312773 0.0608524 0)
(-0.0382545 0.0639792 0)
(-0.0454166 0.0659428 0)
(-0.0526392 0.0667986 0)
(-0.0598102 0.0666136 0)
(-0.0668292 0.0654629 0)
(-0.0736079 0.0634269 0)
(-0.0800693 0.0605878 0)
(-0.0861471 0.0570283 0)
(-0.0917847 0.0528289 0)
(-0.0969344 0.0480674 0)
(-0.101556 0.0428173 0)
(-0.105616 0.0371483 0)
(-0.109088 0.0311256 0)
(-0.111947 0.0248103 0)
(-0.114175 0.0182607 0)
(-0.115757 0.0115324 0)
(-0.11668 0.00467983 0)
(-0.116934 -0.00224278 0)
(-0.116513 -0.00918011 0)
(-0.115411 -0.0160746 0)
(-0.113629 -0.0228652 0)
(-0.111169 -0.0294866 0)
(-0.108039 -0.0358683 0)
(-0.104253 -0.041934 0)
(-0.0998318 -0.0476019 0)
(-0.0948032 -0.0527843 0)
(-0.0892058 -0.0573888 0)
(-0.0830881 -0.0613192 0)
(-0.0765109 -0.0644775 0)
(-0.0695477 -0.0667659 0)
(-0.0622856 -0.0680899 0)
(-0.0548259 -0.0683611 0)
(-0.0472839 -0.0675013 0)
(-0.0397883 -0.0654463 0)
(-0.0324802 -0.0621496 0)
(-0.0255115 -0.0575867 0)
(-0.0190427 -0.0517588 0)
(-0.0132407 -0.0446957 0)
(-0.00827168 -0.0364589 0)
(-0.00429011 -0.0271421 0)
(-0.00149325 -0.0168711 0)
(-0.000210983 -0.00581256 0)
(-0.000229229 0.00668149 0)
(-0.00159483 0.0191533 0)
(-0.00454524 0.0305398 0)
(-0.00871248 0.0407072 0)
(-0.0138768 0.0495667 0)
(-0.0198705 0.0570631 0)
(-0.0265199 0.0631735 0)
(-0.0336554 0.0679035 0)
(-0.0411182 0.0712843 0)
(-0.048762 0.0733673 0)
(-0.0564533 0.0742201 0)
(-0.0640727 0.0739228 0)
(-0.0715144 0.0725632 0)
(-0.0786865 0.0702339 0)
(-0.0855096 0.0670291 0)
(-0.0919163 0.0630419 0)
(-0.0978502 0.0583628 0)
(-0.103264 0.0530778 0)
(-0.108119 0.0472682 0)
(-0.112383 0.0410096 0)
(-0.11603 0.0343724 0)
(-0.119038 0.0274224 0)
(-0.12139 0.0202211 0)
(-0.123071 0.0128272 0)
(-0.124067 0.00529785 0)
(-0.12437 -0.00231033 0)
(-0.123971 -0.00993944 0)
(-0.122864 -0.017529 0)
(-0.121047 -0.0250147 0)
(-0.118519 -0.0323268 0)
(-0.115287 -0.0393899 0)
(-0.11136 -0.0461212 0)
(-0.106756 -0.0524314 0)
(-0.101502 -0.0582238 0)
(-0.0956313 -0.0633955 0)
(-0.0891932 -0.0678386 0)
(-0.0822476 -0.071442 0)
(-0.0748694 -0.074094 0)
(-0.0671488 -0.0756852 0)
(-0.0591923 -0.0761121 0)
(-0.0511227 -0.0752819 0)
(-0.0430784 -0.073116 0)
(-0.0352131 -0.0695554 0)
(-0.027693 -0.0645652 0)
(-0.0206954 -0.0581386 0)
(-0.0144054 -0.0503007 0)
(-0.00900788 -0.0411122 0)
(-0.00467587 -0.0306699 0)
(-0.0016288 -0.019107 0)
(-0.000230399 -0.00660264 0)
(-0.000248661 0.00752465 0)
(-0.00172732 0.0215126 0)
(-0.00491809 0.0342315 0)
(-0.00941826 0.0455414 0)
(-0.0149856 0.0553527 0)
(-0.0214348 0.0636136 0)
(-0.0285745 0.0703078 0)
(-0.0362189 0.075451 0)
(-0.044195 0.079086 0)
(-0.0523445 0.0812781 0)
(-0.0605244 0.0821095 0)
(-0.0686076 0.0816749 0)
(-0.0764831 0.0800769 0)
(-0.0840555 0.0774221 0)
(-0.0912436 0.0738178 0)
(-0.0979798 0.069369 0)
(-0.104208 0.0641767 0)
(-0.109883 0.0583362 0)
(-0.114967 0.0519365 0)
(-0.11943 0.0450595 0)
(-0.123249 0.037781 0)
(-0.126404 0.0301706 0)
(-0.128879 0.022293 0)
(-0.130659 0.0142097 0)
(-0.131733 0.00597944 0)
(-0.13209 -0.00233901 0)
(-0.131721 -0.0106859 0)
(-0.130619 -0.0189986 0)
(-0.128778 -0.0272098 0)
(-0.126197 -0.0352462 0)
(-0.122876 -0.0430274 0)
(-0.118822 -0.0504646 0)
(-0.114049 -0.0574606 0)
(-0.108578 -0.0639094 0)
(-0.102443 -0.0696971 0)
(-0.0956888 -0.074703 0)
(-0.0883739 -0.0788014 0)
(-0.080574 -0.0818649 0)
(-0.0723819 -0.0837672 0)
(-0.0639089 -0.0843876 0)
(-0.0552851 -0.0836157 0)
(-0.0466595 -0.0813563 0)
(-0.0381987 -0.0775354 0)
(-0.030085 -0.072105 0)
(-0.0225141 -0.0650483 0)
(-0.0156916 -0.0563846 0)
(-0.00982386 -0.0461727 0)
(-0.00510507 -0.0345128 0)
(-0.00178033 -0.0215458 0)
(-0.000252316 -0.00746541 0)
(-0.000270255 0.00843865 0)
(-0.00187336 0.0240666 0)
(-0.00532732 0.038222 0)
(-0.0101901 0.050758 0)
(-0.0161941 0.0615845 0)
(-0.0231336 0.0706538 0)
(-0.0307978 0.077958 0)
(-0.0389826 0.0835244 0)
(-0.0474998 0.0874103 0)
(-0.0561779 0.0896969 0)
(-0.0648639 0.0904834 0)
(-0.0734231 0.0898817 0)
(-0.0817394 0.0880112 0)
(-0.0897144 0.0849945 0)
(-0.0972659 0.0809535 0)
(-0.104327 0.0760064 0)
(-0.110842 0.0702657 0)
(-0.116768 0.0638366 0)
(-0.122072 0.0568159 0)
(-0.126726 0.0492923 0)
(-0.13071 0.0413464 0)
(-0.134005 0.0330517 0)
(-0.136598 0.0244756 0)
(-0.138476 0.0156812 0)
(-0.139629 0.0067288 0)
(-0.140046 -0.00232188 0)
(-0.139716 -0.01141 0)
(-0.138631 -0.0204713 0)
(-0.136782 -0.0294366 0)
(-0.134163 -0.0382293 0)
(-0.130771 -0.0467648 0)
(-0.126609 -0.0549483 0)
(-0.121685 -0.0626749 0)
(-0.116016 -0.069829 0)
(-0.109631 -0.0762849 0)
(-0.102571 -0.081908 0)
(-0.094892 -0.0865569 0)
(-0.0866696 -0.0900862 0)
(-0.077998 -0.0923506 0)
(-0.0689926 -0.0932094 0)
(-0.0597909 -0.0925317 0)
(-0.0505525 -0.0902029 0)
(-0.041458 -0.0861304 0)
(-0.0327071 -0.0802505 0)
(-0.0245156 -0.0725341 0)
(-0.0171126 -0.0629925 0)
(-0.0107289 -0.0516816 0)
(-0.00558302 -0.0387043 0)
(-0.00194991 -0.0242104 0)
(-0.000277083 -0.00840964 0)
(-0.000294271 0.00943086 0)
(-0.00203447 0.0268342 0)
(-0.00577679 0.0425388 0)
(-0.0110347 0.0563901 0)
(-0.0175114 0.0682976 0)
(-0.0249782 0.0782193 0)
(-0.033202 0.0861573 0)
(-0.041959 0.0921533 0)
(-0.0510435 0.0962817 0)
(-0.0602707 0.0986425 0)
(-0.0694767 0.0993549 0)
(-0.0785193 0.0985506 0)
(-0.0872778 0.0963683 0)
(-0.0956513 0.0929486 0)
(-0.103558 0.0884299 0)
(-0.11093 0.0829449 0)
(-0.117718 0.0766186 0)
(-0.123881 0.0695667 0)
(-0.129388 0.0618944 0)
(-0.134218 0.0536968 0)
(-0.138352 0.0450594 0)
(-0.141776 0.0360589 0)
(-0.14448 0.0267648 0)
(-0.146453 0.0172413 0)
(-0.147686 0.00754908 0)
(-0.148167 -0.00225198 0)
(-0.147885 -0.0121009 0)
(-0.146829 -0.021933 0)
(-0.144989 -0.0316778 0)
(-0.142353 -0.0412566 0)
(-0.138914 -0.0505809 0)
(-0.134669 -0.0595506 0)
(-0.12962 -0.0680531 0)
(-0.123778 -0.0759632 0)
(-0.117165 -0.0831427 0)
(-0.109818 -0.0894421 0)
(-0.101789 -0.0947026 0)
(-0.0931515 -0.0987591 0)
(-0.0839995 -0.101445 0)
(-0.074452 -0.102595 0)
(-0.0646535 -0.102056 0)
(-0.054774 -0.0996898 0)
(-0.0450089 -0.0953815 0)
(-0.0355766 -0.0890481 0)
(-0.0267158 -0.080645 0)
(-0.0186813 -0.0701731 0)
(-0.0117322 -0.0576836 0)
(-0.00611513 -0.0432818 0)
(-0.00213966 -0.0271265 0)
(-0.000305064 -0.00944514 0)
(-0.000320986 0.0105095 0)
(-0.00221222 0.0298366 0)
(-0.00627044 0.0472121 0)
(-0.0119586 0.062473 0)
(-0.0189463 0.0755296 0)
(-0.0269788 0.0863467 0)
(-0.0357979 0.0949392 0)
(-0.0451574 0.101366 0)
(-0.0548332 0.105722 0)
(-0.0646256 0.10813 0)
(-0.0743599 0.108732 0)
(-0.0838866 0.107683 0)
(-0.0930807 0.105143 0)
(-0.10184 0.101274 0)
(-0.110083 0.0962326 0)
(-0.117747 0.0901671 0)
(-0.124784 0.0832163 0)
(-0.131158 0.0755068 0)
(-0.136845 0.0671526 0)
(-0.141827 0.0582553 0)
(-0.146091 0.0489048 0)
(-0.149628 0.0391804 0)
(-0.152431 0.0291529 0)
(-0.154491 0.0188867 0)