/*--------------------------------*- C++ -*----------------------------------*\
  =========                 |
  \\      /  F ield         | OpenFOAM: The Open Source CFD Toolbox
   \\    /   O peration     | Website:  https://openfoam.org
    \\  /    A nd           | Version:  7
     \\/     M anipulation  |
\*---------------------------------------------------------------------------*/
FoamFile
{
    version     2.0;
    format      ascii;
    class       volScalarField;
    location    "0.075";
    object      p;
}
// * * * * * * * * * * * * * * * * * * * * * * * * * * * * * * * * * * * * * //

dimensions      [0 2 -2 0 0 0 0];

internalField   nonuniform List<scalar> 
2500
(
-6.9417e-06
-0.000544673
-0.00224532
-0.00478339
-0.00776759
-0.0108764
-0.013863
-0.0165345
-0.0187445
-0.0203858
-0.0213836
-0.0216896
-0.0212769
-0.0201377
-0.0182794
-0.0157226
-0.0124995
-0.00865212
-0.00423089
0.000706191
0.00609466
0.0118645
0.0179408
0.0242447
0.030694
0.0372037
0.0436873
0.0500576
0.0562272
0.0621105
0.0676237
0.0726874
0.0772271
0.0811752
0.0844728
0.0870711
0.0889334
0.0900374
0.0903772
0.0899658
0.0888375
0.0870517
0.0846956
0.0818899
0.0787941
0.0756118
0.0725989
0.0700693
0.0684214
0.0679452
0.000515513
-1.46792e-05
-0.00140403
-0.00341856
-0.00576943
-0.0082293
-0.0106035
-0.0127312
-0.0144849
-0.015767
-0.0165063
-0.0166541
-0.0161812
-0.0150755
-0.013339
-0.0109866
-0.00804389
-0.00454588
-0.000536063
0.0039349
0.00881006
0.014027
0.0195188
0.0252145
0.0310399
0.0369187
0.042773
0.0485241
0.054094
0.0594058
0.0643852
0.0689617
0.0730703
0.0766522
0.0796569
0.0820437
0.0837834
0.08486
0.0852726
0.0850377
0.0841908
0.0827895
0.0809151
0.0786759
0.07621
0.073687
0.0713083
0.0692973
0.0679409
0.0674691
0.00220758
0.00137138
-2.87325e-05
-0.00185123
-0.00391359
-0.00603951
-0.00807309
-0.00988215
-0.0113583
-0.0124161
-0.0129912
-0.0130384
-0.0125294
-0.0114512
-0.00980349
-0.00759789
-0.00485605
-0.00160864
0.00210573
0.00624161
0.0107475
0.0155666
0.0206378
0.0258961
0.0312734
0.0366996
0.0421032
0.0474121
0.0525544
0.05746
0.0620611
0.0662935
0.0700983
0.0734227
0.0762218
0.0784598
0.0801117
0.0811648
0.0816203
0.0814952
0.0808235
0.079658
0.0780722
0.0761612
0.0740428
0.0718571
0.0697652
0.0679446
0.0665815
0.0658254
0.00477115
0.00339442
0.00176753
-8.3362e-05
-0.0020737
-0.00406424
-0.00592964
-0.00756394
-0.00887774
-0.00979884
-0.0102719
-0.0102576
-0.00973073
-0.0086793
-0.0071029
-0.00501163
-0.00242495
0.000629404
0.00411631
0.0079942
0.0122157
0.0167285
0.0214761
0.0263981
0.0314315
0.0365111
0.0415704
0.0465422
0.0513597
0.0559578
0.0602733
0.0642469
0.0678239
0.0709556
0.0736006
0.0757262
0.0773095
0.0783392
0.0788166
0.078757
0.0781909
0.0771653
0.0757441
0.074009
0.0720586
0.0700072
0.0679863
0.0661379
0.0645554
0.0632812
0.00784166
0.00579789
0.00382524
0.00182412
-0.00021473
-0.00218206
-0.0039785
-0.00552211
-0.00674201
-0.00757952
-0.00798927
-0.00793866
-0.00740691
-0.00638438
-0.00487158
-0.00287829
-0.000422669
0.00246955
0.00576589
0.00942787
0.0134116
0.0176686
0.022146
0.0267879
0.0315353
0.0363272
0.0411013
0.0457949
0.0503452
0.054691
0.0587732
0.0625359
0.0659277
0.068903
0.0714227
0.0734557
0.0749804
0.0759854
0.0764708
0.0764493
0.0759468
0.0750035
0.0736735
0.0720251
0.0701389
0.0681062
0.0660338
0.0640357
0.0621165
0.0601955
0.0111426
0.00837971
0.00598721
0.00374953
0.00157129
-0.000461275
-0.00226984
-0.00379345
-0.00497832
-0.00577885
-0.00615957
-0.00609517
-0.00556997
-0.00457752
-0.00312013
-0.00120818
0.00114061
0.00390174
0.0070446
0.0105331
0.014326
0.0183779
0.0226394
0.0270577
0.0315773
0.0361409
0.0406897
0.0451641
0.049505
0.0536541
0.0575551
0.061155
0.0644046
0.06726
0.0696834
0.0716447
0.0731219
0.0741027
0.0745851
0.0745783
0.0741031
0.0731924
0.0718909
0.0702542
0.0683471
0.0662409
0.0640228
0.061786
0.0594526
0.0568296
0.0144631
0.0109683
0.00811386
0.00558009
0.00319534
0.00102945
-0.000855676
-0.00241698
-0.00361565
-0.00441822
-0.00479874
-0.00473916
-0.00422923
-0.00326633
-0.00185515
-7.32449e-06
0.00225914
0.00492027
0.0079466
0.0113037
0.0149526
0.01885
0.022949
0.0271998
0.0315496
0.0359437
0.0403263
0.0446403
0.048829
0.0528364
0.0566084
0.0600934
0.0632436
0.066016
0.0683731
0.0702845
0.0717272
0.0726871
0.0731593
0.0731489
0.0726713
0.0717523
0.0704274
0.0687414
0.066745
0.0644933
0.0620588
0.05952
0.0567272
0.0533872
0.0176392
0.01342
0.0100833
0.00721558
0.0045784
0.00223042
0.000221206
-0.00142126
-0.00267115
-0.00350571
-0.00390785
-0.0038666
-0.0033772
-0.00244108
-0.00106578
0.000735338
0.00294346
0.00553454
0.00847972
0.0117457
0.0152947
0.0190854
0.023073
0.0272094
0.0314441
0.0357247
0.0399971
0.0442064
0.0482974
0.0522157
0.0559084
0.0593246
0.0624171
0.0651427
0.0674636
0.069348
0.0707714
0.0717169
0.0721763
0.0721503
0.0716488
0.0706906
0.0693032
0.0675215
0.0653846
0.0629347
0.0602336
0.0573512
0.0540744
0.0500209
0.0205426
0.0156155
0.0117885
0.00856401
0.00564408
0.00308026
0.000912882
-0.000842361
-0.00217074
-0.00305895
-0.00349794
-0.00348343
-0.00301605
-0.00210138
-0.000749985
0.00102266
0.00319655
0.00574714
0.00864563
0.0118592
0.0153512
0.0190813
0.023006
0.0270791
0.0312514
0.035472
0.0396882
0.0438463
0.0478922
0.0517724
0.0554341
0.0588268
0.0619028
0.0646182
0.0669338
0.068816
0.0702378
0.0711793
0.0716284
0.0715811
0.0710419
0.070023
0.0685447
0.0666333
0.0643187
0.0616326
0.0586301
0.0553764
0.0516034
0.0468478
0.0230712
0.0174539
0.0131357
0.00954106
0.00631883
0.0035164
0.0011674
-0.000722594
-0.00214821
-0.00310441
-0.00358943
-0.00360521
-0.00315751
-0.00225607
-0.000914592
0.000849171
0.00301368
0.00555351
0.00843952
0.011639
0.0151157
0.0188301
0.0227396
0.0267989
0.0309599
0.0351727
0.0393853
0.0435447
0.0475973
0.0514894
0.0551684
0.0585829
0.0616842
0.064427
0.06677
0.0686772
0.0701186
0.0710705
0.0715168
0.0714486
0.070865
0.0697722
0.0681837
0.0661191
0.0636003
0.0606511
0.0573229
0.0536796
0.0494036
0.0439575
0.0251406
0.0188484
0.0140408
0.0100689
0.00653232
0.00347662
0.000930811
-0.00110794
-0.00264226
-0.00367438
-0.00420908
-0.00425404
-0.00381993
-0.00292049
-0.00157262
0.000203497
0.00238457
0.00494396
0.00785185
0.0110753
0.0145781
0.0183211
0.0222622
0.0263565
0.0305566
0.0348128
0.0390737
0.0432863
0.0473969
0.0513512
0.0550958
0.0585782
0.0617479
0.0645574
0.0669629
0.0689254
0.0704111
0.0713924
0.0718486
0.071766
0.071138
0.0699655
0.0682559
0.0660227
0.0632818
0.060051
0.0563799
0.052334
0.0475502
0.0414214
0.026678
0.0197221
0.0144272
0.0100743
0.00621648
0.00289897
0.000147637
-0.00204742
-0.00369579
-0.00480612
-0.00538912
-0.00545781
-0.00502747
-0.00411573
-0.00274271
-0.000931117
0.0012938
0.003904
0.00686872
0.0101544
0.0137248
0.0175405
0.0215595
0.0257372
0.0300262
0.034377
0.0387378
0.0430555
0.0472755
0.0513429
0.0552025
0.0588001
0.062083
0.065001
0.0675071
0.0695585
0.0711175
0.0721518
0.072636
0.0725512
0.0718855
0.0706342
0.0687995
0.0663896
0.0634155
0.0598905
0.0558642
0.0514056
0.0461086
0.0392986
0.0276172
0.0200038
0.014223
0.00948711
0.00530454
0.00172116
-0.00123936
-0.003593
-0.00535555
-0.00654143
-0.00716678
-0.00724959
-0.00680958
-0.00586816
-0.00444865
-0.00257639
-0.000278707
0.00241476
0.00547211
0.00885903
0.0125386
0.0164712
0.0206147
0.0249241
0.0293519
0.0338483
0.0383611
0.0428361
0.047218
0.0514501
0.0554755
0.0592377
0.0626811
0.0657522
0.0684003
0.0705783
0.0722438
0.0733599
0.0738956
0.0738267
0.073136
0.0718134
0.0698559
0.0672673
0.0640544
0.0602271
0.0558365
0.0509561
0.0451384
0.037642
0.0278951
0.0196254
0.0133584
0.00823856
0.00372995
-0.000120089
-0.00328945
-0.00579963
-0.00767199
-0.00892631
-0.00958384
-0.00966728
-0.00920061
-0.00820902
-0.00671902
-0.00475867
-0.00235748
0.000453209
0.00364014
0.00716801
0.0109991
0.0150934
0.0194081
0.023898
0.028515
0.0332085
0.0379257
0.0426114
0.0472085
0.0516587
0.0559027
0.0598811
0.0635351
0.0668073
0.0696427
0.0719894
0.0737998
0.0750316
0.075648
0.0756192
0.0749223
0.0735417
0.0714697
0.0687057
0.065253
0.0611189
0.0563567
0.0510457
0.0446969
0.0365015
0.0274493
0.0185198
0.0117646
0.00625974
0.0014253
-0.00268973
-0.00606438
-0.00872531
-0.0106992
-0.0120108
-0.0126863
-0.0127531
-0.0122393
-0.0111739
-0.00958669
-0.00750843
-0.00497094
-0.00200743
0.0013474
0.00505708
0.00908301
0.0133844
0.0179178
0.0226374
0.0274945
0.0324376
0.0374128
0.0423636
0.047231
0.0519545
0.0564722
0.0607214
0.0646394
0.0681646
0.0712369
0.0737992
0.0757982
0.0771852
0.0779177
0.0779592
0.077281
0.075862
0.0736893
0.0707582
0.0670688
0.0626261
0.0574863
0.0517353
0.0448417
0.0359275
0.0262162
0.0166187
0.00937124
0.0034803
-0.0016788
-0.00605518
-0.00962882
-0.0124314
-0.0144947
-0.0158486
-0.0165241
-0.0165533
-0.0159684
-0.0148024
-0.0130883
-0.0108598
-0.008151
-0.00499717
-0.00143456
0.00249908
0.00676414
0.011319
0.0161195
0.0211189
0.0262679
0.031514
0.036802
0.0420737
0.0472683
0.0523227
0.057172
0.0617497
0.065989
0.0698233
0.0731871
0.0760174
0.0782542
0.0798425
0.0807325
0.0808811
0.0802531
0.0788211
0.0765672
0.0734823
0.0695631
0.0648126
0.0592902
0.0530889
0.0456334
0.0359737
0.0241289
0.0138513
0.00610555
-0.00017302
-0.00565489
-0.0102872
-0.014051
-0.0169829
-0.0191201
-0.0204975
-0.0211512
-0.021118
-0.0204346
-0.0191377
-0.017264
-0.0148501
-0.0119326
-0.0085489
-0.00473687
-0.000535617
0.00401417
0.00886993
0.0139868
0.0193173
0.0248111
0.0304148
0.0360717
0.041722
0.0473028
0.0527481
0.0579898
0.0629574
0.0675794
0.0717837
0.075499
0.0786553
0.0811858
0.0830278
0.0841238
0.0844234
0.0838837
0.082471
0.0801611
0.0769406
0.0728024
0.0677473
0.0618381
0.0551755
0.0471376
0.0366989
0.0211163
0.0101426
0.00189063
-0.00477745
-0.0105795
-0.0154607
-0.0194032
-0.022449
-0.0246409
-0.0260192
-0.0266253
-0.0265009
-0.0256875
-0.024226
-0.0221567
-0.0195192
-0.0163531
-0.0126977
-0.00859263
-0.00407847
0.000803041
0.00600845
0.0114921
0.0172059
0.0230985
0.0291155
0.0351991
0.0412875
0.0473156
0.0532147
0.0589128
0.0643356
0.0694061
0.0740467
0.078179
0.081726
0.0846129
0.0867684
0.0881266
0.0886284
0.0882228
0.0868684
0.0845344
0.0812019
0.0768596
0.0715059
0.065207
0.0580711
0.0494272
0.0381697
0.0171018
0.00541232
-0.00335552
-0.0104154
-0.0165341
-0.0216553
-0.0257624
-0.0289034
-0.031127
-0.0324794
-0.0330077
-0.0327591
-0.0317802
-0.0301162
-0.0278116
-0.0249093
-0.0214516
-0.01748
-0.0130363
-0.00816212
-0.00290038
0.00270468
0.00860678
0.0147571
0.0211037
0.0275912
0.0341605
0.0407483
0.0472872
0.0537056
0.0599279
0.0658751
0.0714649
0.0766133
0.0812347
0.0852439
0.0885573
0.0910942
0.0927791
0.093543
0.0933255
0.0920763
0.089757
0.0863423
0.0818158
0.0761727
0.0694823
0.0618607
0.0525843
0.040462
0.0120023
-0.00042631
-0.00972136
-0.0171753
-0.0236064
-0.0289566
-0.0332113
-0.0364249
-0.0386528
-0.0399478
-0.0403633
-0.0399527
-0.0387679
-0.0368594
-0.0342756
-0.0310634
-0.0272679
-0.0229332
-0.0181027
-0.0128195
-0.00712739
-0.00107133
0.00530193
0.0119431
0.0187999
0.0258162
0.0329319
0.0400822
0.0471976
0.0542037
0.0610211
0.0675662
0.0737511
0.0794848
0.084674
0.0892245
0.0930428
0.0960379
0.0981231
0.0992183
0.0992522
0.0981642
0.0959066
0.0924464
0.0877612
0.0818416
0.0747601
0.0666402
0.0567022
0.0436629
0.00572709
-0.0074676
-0.0173029
-0.0251534
-0.031891
-0.0374568
-0.0418384
-0.0450976
-0.0472975
-0.0484981
-0.0487603
-0.0481441
-0.0467079
-0.0445075
-0.0415962
-0.0380249
-0.0338419
-0.0290939
-0.0238259
-0.0180826
-0.0119084
-0.00534865
0.0015496
0.00873702
0.0161611
0.0237655
0.0314894
0.0392668
0.0470265
0.0546912
0.0621782
0.069399
0.0762599
0.0826626
0.0885053
0.0936843
0.0980951
0.101635
0.104204
0.105711
0.10607
0.105209
0.103069
0.0996087
0.0947968
0.0886186
0.0811488
0.0725188
0.0618873
0.047873
-0.00182302
-0.0158148
-0.026205
-0.0344544
-0.0414913
-0.047256
-0.0517396
-0.0550121
-0.0571455
-0.0582084
-0.05827
-0.0573982
-0.0556585
-0.0531131
-0.0498206
-0.0458363
-0.041212
-0.0359969
-0.0302382
-0.0239813
-0.0172715
-0.0101541
-0.00267613
0.00511354
0.0131627
0.0214152
0.0298099
0.0382804
0.0467538
0.0551507
0.0633849
0.0713633
0.0789862
0.0861479
0.0927376
0.0986408
0.103741
0.107923
0.111072
0.113081
0.113851
0.113295
0.111341
0.107935
0.103036
0.0966234
0.0887718
0.0796205
0.0682618
0.0532083
-0.010757
-0.0255817
-0.0365435
-0.0451936
-0.0525201
-0.0584633
-0.0630185
-0.0662654
-0.0682865
-0.0691605
-0.0689663
-0.067781
-0.0656784
-0.0627279
-0.0589942
-0.0545374
-0.0494133
-0.0436738
-0.0373677
-0.0305416
-0.0232409
-0.0155108
-0.00739758
0.0010508
0.00978309
0.0187439
0.0278727
0.0371029
0.0463608
0.0555653
0.0646272
0.073449
0.0819251
0.0899422
0.0973798
0.104112
0.11001
0.114942
0.118779
0.121396
0.122677
0.122518
0.120829
0.117544
0.112608
0.105992
0.0977696
0.0880876
0.075966
0.0598028
-0.0211953
-0.0368942
-0.0484464
-0.0574985
-0.0651021
-0.0711983
-0.0757877
-0.078962
-0.0808158
-0.08144
-0.0809251
-0.0793591
-0.0768252
-0.0734014
-0.0691592
-0.0641642
-0.0584763
-0.0521505
-0.0452371
-0.0377836
-0.0298351
-0.0214362
-0.0126317
-0.00346812
0.00600514
0.0157343
0.0256601
0.0357168
0.0458307
0.0559195
0.0658919
0.0756465
0.0850718
0.0940468
0.102441
0.110118
0.116932
0.122736
0.127384
0.130729
0.132637
0.132981
0.131653
0.128569
0.123658
0.116878
0.108303
0.0980834
0.0851614
0.0678113
-0.0332712
-0.0498928
-0.0620569
-0.0715111
-0.0793754
-0.0855923
-0.09017
-0.0932142
-0.0948344
-0.0951361
-0.0942237
-0.0921981
-0.089154
-0.0851787
-0.0803521
-0.0747458
-0.0684243
-0.0614453
-0.0538611
-0.0457193
-0.0370646
-0.02794
-0.0183882
-0.00845327
0.00181799
0.0123745
0.0231594
0.0341087
0.0451498
0.0562005
0.0671677
0.077947
0.0884218
0.0984635
0.107932
0.116677
0.124538
0.131351
0.136947
0.141158
0.143826
0.144799
0.143946
0.14116
0.136351
0.129459
0.120555
0.109796
0.0960345
0.0774126
-0.0471337
-0.0647354
-0.077536
-0.0873911
-0.0954943
-0.101791
-0.1063
-0.109143
-0.110449
-0.110341
-0.10894
-0.106362
-0.102715
-0.098099
-0.0926019
-0.0863026
-0.0792704
-0.0715663
-0.0632436
-0.0543501
-0.0449292
-0.0350215
-0.0246668
-0.0139056
-0.00278084
0.00866022
0.0203644
0.0322708
0.0443092
0.0563985
0.0684455
0.0803435
0.0919716
0.103194
0.113861
0.123809
0.132861
0.140833
0.147533
0.152768
0.15635
0.1581
0.157857
0.155486
0.150873
0.143936
0.134739
0.123441
0.108801
0.0888134
-0.0629506
-0.0816013
-0.0950669
-0.105319
-0.113632
-0.119958
-0.124325
-0.12688
-0.127773
-0.127149
-0.125149
-0.121909
-0.117553
-0.112192
-0.105927
-0.0988429
-0.0910153
-0.0825078
-0.0733749
-0.0636636
-0.0534152
-0.0426671
-0.0314549
-0.0198143
-0.00778314
0.00459677
0.0172773
0.0302024
0.0433056
0.0565087
0.0697197
0.0828312
0.0957189
0.108241
0.120239
0.131534
0.141934
0.151233
0.159212
0.16565
0.170325
0.173025
0.173553
0.171739
0.167437
0.160541
0.151098
0.13927
0.12371
0.102253
-0.0809127
-0.100696
-0.11486
-0.125502
-0.133987
-0.140273
-0.144409
-0.146567
-0.146925
-0.145655
-0.142925
-0.138892
-0.1337
-0.127476
-0.12033
-0.112359
-0.103643
-0.0942472
-0.0842279
-0.0736302
-0.0624923
-0.0508471
-0.0387247
-0.0261546
-0.0131676
0.000201344
0.013911
0.0279119
0.0421435
0.0565322
0.0709892
0.085408
0.099663
0.113608
0.127074
0.139872
0.15179
0.162599
0.172054
0.179899
0.185875
0.189728
0.191218
0.190133
0.186288
0.179538
0.169915
0.157575
0.141053
0.118011
-0.101239
-0.122258
-0.137158
-0.148179
-0.156784
-0.162944
-0.166732
-0.168355
-0.168027
-0.165954
-0.162335
-0.157354
-0.151177
-0.14395
-0.135798
-0.126824
-0.117116
-0.106741
-0.0957546
-0.0841999
-0.0721103
-0.0595129
-0.0464305
-0.0328845
-0.0188973
-0.00449475
0.0102908
0.0254187
0.0408363
0.0564772
0.072258
0.0880755
0.103805
0.119296
0.134375
0.148839
0.16246
0.174984
0.186134
0.195618
0.203134
0.208378
0.211059
0.210913
0.207702
0.201235
0.191517
0.178695
0.16117
0.136411
-0.124186
-0.146567
-0.16225
-0.173629
-0.182283
-0.188203
-0.191494
-0.192409
-0.191207
-0.188137
-0.183436
-0.177321
-0.169986
-0.161596
-0.152291
-0.142186
-0.131372
-0.11992
-0.107882
-0.0952984
-0.0821958
-0.0685935
-0.0545054
-0.0399428
-0.0249175
-0.00944415
0.00645638
0.0227543
0.0394078
0.0563601
0.073536
0.0908388
0.108147
0.12531
0.142149
0.158452
0.173972
0.188432
0.201523
0.21291
0.222242
0.229159
0.233306
0.234353
0.231997
0.225987
0.216289
0.203031
0.184461
0.157836
-0.150056
-0.173959
-0.190477
-0.202182
-0.210789
-0.216318
-0.21892
-0.218906
-0.216594
-0.212288
-0.206272
-0.198802
-0.190103
-0.180365
-0.169743
-0.158363
-0.14632
-0.133686
-0.120509
-0.106824
-0.0926487
-0.0779931
-0.0628595
-0.0472469
-0.0311538
-0.0145816
0.00246303
0.0199639
0.037893
0.0562062
0.0748398
0.0937068
0.112692
0.13165
0.150399
0.168719
0.186349
0.202988
0.218291
0.231881
0.243349
0.252269
0.258211
0.260763
0.259539
0.254209
0.244682
0.231056
0.211401
0.182734
-0.179213
-0.204839
-0.222252
-0.234232
-0.242659
-0.247596
-0.249257
-0.248033
-0.244316
-0.238479
-0.230864
-0.221776
-0.211474
-0.200175
-0.188051
-0.175237
-0.161832
-0.147905
-0.1335
-0.118643
-0.10334
-0.0875886
-0.0713775
-0.0546906
-0.0375108
-0.0198229
-0.00161722
0.0171071
0.0363386
0.0560495
0.0761915
0.0966913
0.117445
0.138315
0.159122
0.179643
0.199604
0.218682
0.2365
0.252632
0.266606
0.277919
0.286052
0.290492
0.290747
0.286382
0.277229
0.263335
0.242558
0.211642
-0.212104
-0.239705
-0.258081
-0.270257
-0.278317
-0.282392
-0.282784
-0.279987
-0.274495
-0.266764
-0.257208
-0.246187
-0.234004
-0.220901
-0.207068
-0.192647
-0.177738
-0.162406
-0.146685
-0.130588
-0.114109
-0.097228
-0.0799179
-0.0621442
-0.0438714
-0.0250651
-0.00569593
0.0142569
0.0348022
0.0559322
0.0776183
0.0998055
0.122407
0.145297
0.168306
0.191211
0.213735
0.235533
0.256198
0.275252
0.292159
0.306326
0.317129
0.32393
0.326102
0.323073
0.314565
0.300545
0.278617
0.245205
-0.249285
-0.279184
-0.298593
-0.31084
-0.318271
-0.321116
-0.319805
-0.314971
-0.307235
-0.297163
-0.285254
-0.271933
-0.257547
-0.242366
-0.226597
-0.210384
-0.193825
-0.176974
-0.159852
-0.142456
-0.124762
-0.10673
-0.0883129
-0.0694546
-0.0500982
-0.0301873
-0.00966965
0.0114988
0.0333507
0.0559025
0.0791497
0.103061
0.127572
0.152577
0.177923
0.203396
0.228717
0.253533
0.277407
0.299814
0.320145
0.337712
0.351763
0.361511
0.366157
0.36495
0.357452
0.343514
0.320415
0.284207
-0.291461
-0.32407
-0.344581
-0.356703
-0.363129
-0.364244
-0.360653
-0.353182
-0.342617
-0.329655
-0.3149
-0.298848
-0.281892
-0.264331
-0.24638
-0.228183
-0.209826
-0.191347
-0.17275
-0.154009
-0.135075
-0.115886
-0.0963705
-0.0764478
-0.0560362
-0.0350539
-0.013423
0.00892721
0.0320568
0.0560107
0.0808136
0.106464
0.132926
0.160123
0.187925
0.216139
0.244496
0.27264
0.300115
0.326354
0.350675
0.372284
0.390286
0.403712
0.411547
0.412799
0.406811
0.393254
0.368993
0.329615
-0.339549
-0.375396
-0.397058
-0.408745
-0.413626
-0.412319
-0.405685
-0.394803
-0.38067
-0.364151
-0.345964
-0.326684
-0.30675
-0.286481
-0.266091
-0.245716
-0.22542
-0.205219
-0.185088
-0.164971
-0.144793
-0.124463
-0.103879
-0.0829334
-0.0615168
-0.0395191
-0.0168336
0.00664041
0.0309939
0.0563044
0.0826309
0.110008
0.138436
0.167876
0.198233
0.229346
0.26097
0.292761
0.324256
0.354856
0.383813
0.410223
0.433029
0.451048
0.462991
0.467552
0.463768
0.451032
0.425655
0.382643
-0.394757
-0.43452
-0.457337
-0.468099
-0.470649
-0.465962
-0.455263
-0.43997
-0.421351
-0.400465
-0.378162
-0.355093
-0.331734
-0.30841
-0.285325
-0.262588
-0.240231
-0.218233
-0.196533
-0.175038
-0.153638
-0.132207
-0.110611
-0.088711
-0.0663656
-0.0434344
-0.019779
0.00473363
0.0302289
0.056821
0.0846082
0.113667
0.144044
0.175745
0.208726
0.24287
0.277976
0.313731
0.349684
0.385223
0.419548
0.451648
0.480294
0.504052
0.521299
0.530313
0.529701
0.518441
0.492079
0.444843
-0.458725
-0.503275
-0.527144
-0.536196
-0.535259
-0.525856
-0.509726
-0.488739
-0.464497
-0.43828
-0.411073
-0.383595
-0.356338
-0.329614
-0.303592
-0.278333
-0.253824
-0.22999
-0.206722
-0.183882
-0.161316
-0.138858
-0.116337
-0.0935797
-0.070411
-0.046657
-0.022146
0.00329003
0.0298137
0.0575788
0.0867283
0.117386
0.149654
0.183595
0.219226
0.256498
0.295271
0.335288
0.376144
0.417241
0.457751
0.496575
0.532313
0.563251
0.587358
0.602378
0.606317
0.597527
0.570453
0.518245
-0.533725
-0.584172
-0.608773
-0.614851
-0.608714
-0.592724
-0.569342
-0.541021
-0.509762
-0.477086
-0.444096
-0.41155
-0.379921
-0.349474
-0.320309
-0.292419
-0.265714
-0.240055
-0.215269
-0.191161
-0.167525
-0.144153
-0.120832
-0.0973496
-0.0734958
-0.049062
-0.0238416
0.00236997
0.0297743
0.0585664
0.0889397
0.121071
0.155123
0.19123
0.229486
0.269926
0.312502
0.357047
0.403234
0.450528
0.498117
0.544853
0.589184
0.629103
0.662106
0.685256
0.695732
0.69094
0.663702
0.60558
-0.623015
-0.680734
-0.70531
-0.706355
-0.692463
-0.667262
-0.634208
-0.596485
-0.556539
-0.516117
-0.476398
-0.438119
-0.401681
-0.367245
-0.334805
-0.304244
-0.275375
-0.247969
-0.221775
-0.196532
-0.171977
-0.147849
-0.123893
-0.0998552
-0.0754904
-0.0505542
-0.0248047
0.00199905
0.0300981
0.0597335
0.0911465
0.124575
0.160249
0.198384
0.239169
0.282746
0.329186
0.378454
0.430355
0.484474
0.540087
0.596065
0.650762
0.701903
0.74646
0.780661
0.800565
0.802171
0.775832
0.710644
-0.731432
-0.798014
-0.820933
-0.813568
-0.788089
-0.750011
-0.704103
-0.654413
-0.603832
-0.554261
-0.506856
-0.462236
-0.420642
-0.382061
-0.346322
-0.313157
-0.282251
-0.253263
-0.22585
-0.199674
-0.174406
-0.149733
-0.125352
-0.100971
-0.0763068
-0.0510814
-0.0250189
0.00215734
0.0307272
0.0609761
0.0931967
0.127689
0.164757
0.204707
0.247836
0.294418
0.344678
0.398756
0.456655
0.518161
0.58274
0.649397
0.716506
0.781611
0.841172
0.890445
0.924027
0.935857
0.912466
0.838933
-0.866482
-0.943413
-0.96131
-0.939957
-0.897147
-0.841102
-0.778232
-0.713491
-0.650104
-0.58995
-0.53399
-0.48257
-0.435644
-0.392933
-0.354032
-0.318476
-0.285785
-0.255489
-0.227136
-0.200303
-0.174596
-0.149642
-0.125095
-0.100624
-0.0759114
-0.0506466
-0.0245229
0.00276899
0.0315452
0.0621334
0.0948765
0.130136
0.168295
0.209756
0.254937
0.304263
0.358149
0.416962
0.480975
0.55028
0.62467
0.703461
0.785246
0.867586
0.946564
1.01642
1.06996
1.09819
1.0817
0.998795
-1.04042
-1.12798
-1.13406
-1.0895
-1.02079
-0.939838
-0.854853
-0.771523
-0.693082
-0.621055
-0.555916
-0.497515
-0.445357
-0.398781
-0.357072
-0.319519
-0.285449
-0.254241
-0.225329
-0.198202
-0.172395
-0.147484
-0.123078
-0.0988114
-0.074337
-0.0493173
-0.0234186
0.00369614
0.0323747
0.0629821
0.0959078
0.131573
0.170435
0.212997
0.259806
0.311456
0.368577
0.431817
0.501797
0.579039
0.663836
0.756075
0.854867
0.958176
1.06207
1.15997
1.24271
1.29737
1.29544
1.20364
-1.27449
-1.36844
-1.34908
-1.26615
-1.15899
-1.04393
-0.930693
-0.825041
-0.729535
-0.644771
-0.570309
-0.505204
-0.448314
-0.398476
-0.354588
-0.315652
-0.280781
-0.249195
-0.220213
-0.193237
-0.167739
-0.143246
-0.119333
-0.0956038
-0.0716888
-0.0472299
-0.0218737
0.00473819
0.0329777
0.0632403
0.0959543
0.131592
0.170682
0.213821
0.261684
0.315041
0.374758
0.441802
0.51722
0.602092
0.697428
0.803974
0.921868
1.05008
1.1854
1.32117
1.44656
1.5439
1.57147
1.47642
-1.60769
-1.69016
-1.61794
-1.47213
-1.30874
-1.14812
-1.00001
-0.868741
-0.754974
-0.657497
-0.57438
-0.503531
-0.442961
-0.390891
-0.345781
-0.306325
-0.271419
-0.240131
-0.211674
-0.185376
-0.160657
-0.137008
-0.113977
-0.0911503
-0.0681439
-0.044588
-0.0201179
0.00563658
0.0330624
0.0625747
0.0946299
0.12974
0.16849
0.211557
0.259733
0.313953
0.375322
0.445144
0.524944
0.616472
0.721662
0.842503
0.980749
1.13731
1.31107
1.49689
1.68386
1.84998
1.93649
1.85879
-2.1121
-2.13084
-1.9521
-1.70487
-1.46138
-1.24231
-1.05356
-0.895041
-0.76355
-0.654899
-0.565011
-0.490307
-0.427792
-0.375018
-0.330001
-0.291144
-0.257152
-0.226968
-0.199726
-0.174701
-0.151281
-0.128938
-0.107208
-0.0856723
-0.0639432
-0.0416506
-0.0184293
0.00609185
0.0323029
0.0606261
0.0915305
0.12555
0.163306
0.205532
0.253109
0.307109
0.368846
0.439941
0.5224
0.618698
0.731851
0.865446
1.02354
1.21022
1.42848
1.67801
1.95188
2.22756
2.42963
2.42628
-2.91854
-2.74067
-2.35927
-1.95486
-1.60149
-1.31157
-1.07931
-0.895116
-0.749163
-0.632946
-0.539649
-0.463995
-0.401953
-0.350451
-0.307134
-0.270181
-0.238168
-0.209966
-0.184668
-0.161533
-0.139941
-0.119366
-0.0993514
-0.0794867
-0.0593947
-0.0387165
-0.0170986
0.00581961
0.030418
0.0571105
0.0863612
0.118704
0.154769
0.195313
0.241264
0.293774
0.354304
0.424717
0.50743
0.60559
0.723327
0.86604
1.04069
1.25596
1.52185
1.84825
2.24037
2.68429
3.10188
3.31314
-4.3238
-3.56012
-2.81525
-2.1888
-1.69851
-1.33207
-1.06097
-0.858687
-0.705707
-0.588244
-0.496587
-0.423905
-0.365352
-0.317438
-0.277608
-0.243952
-0.215018
-0.189677
-0.167039
-0.146383
-0.127117
-0.108741
-0.0908221
-0.0729755
-0.0548479
-0.0361035
-0.0164125
0.0045624
0.0271775
0.0518227
0.0789373
0.109031
0.142711
0.180713
0.223954
0.273594
0.331131
0.398538
0.478456
0.574491
0.691652
0.837005
1.02059
1.25665
1.56538
1.97445
2.51363
3.19354
3.99331
4.82417
-7.15779
-4.55834
-3.13901
-2.25244
-1.64478
-1.23375
-0.954029
-0.757496
-0.614861
-0.508485
-0.427213
-0.363761
-0.313245
-0.272292
-0.238499
-0.21011
-0.185806
-0.164574
-0.14562
-0.128303
-0.112099
-0.0965675
-0.0813254
-0.0660338
-0.0503811
-0.0340717
-0.0168136
0.00168962
0.0217532
0.0437215
0.0679838
0.0949921
0.125286
0.159523
0.198526
0.243344
0.295348
0.356366
0.428902
0.51647
0.624157
0.759546
0.934258
1.16664
1.48705
1.94574
2.61216
3.57091
5.07641
7.79525
-12.0262
-5.64112
-2.97472
-1.87567
-1.27843
-0.92355
-0.703766
-0.557831
-0.454604
-0.378329
-0.320184
-0.274773
-0.238592
-0.209244
-0.185018
-0.164651
-0.147181
-0.131861
-0.118097
-0.105407
-0.0933879
-0.0817002
-0.0700464
-0.0581602
-0.0457959
-0.032719
-0.0186994
-0.00349987
0.0131285
0.0314573
0.0517916
0.0744834
0.0999492
0.128693
0.161338
0.198672
0.241715
0.291813
0.350796
0.421232
0.506864
0.613426
0.750233
0.933686
1.19574
1.60022
2.26362
3.45751
6.24099
12.7518
)
;

boundaryField
{
    movingWall
    {
        type            zeroGradient;
    }
    fixedWalls
    {
        type            zeroGradient;
    }
    frontAndBack
    {
        type            empty;
    }
}


// ************************************************************************* //
