/*--------------------------------*- C++ -*----------------------------------*\
  =========                 |
  \\      /  F ield         | OpenFOAM: The Open Source CFD Toolbox
   \\    /   O peration     | Website:  https://openfoam.org
    \\  /    A nd           | Version:  7
     \\/     M anipulation  |
\*---------------------------------------------------------------------------*/
FoamFile
{
    version     2.0;
    format      ascii;
    class       surfaceScalarField;
    location    "0.0252";
    object      phi;
}
// * * * * * * * * * * * * * * * * * * * * * * * * * * * * * * * * * * * * * //

dimensions      [0 3 -1 0 0 0 0];

internalField   nonuniform List<scalar> 
4900
(
-5.55648e-06
5.55649e-06
-1.01623e-05
4.60578e-06
-1.29486e-05
2.78638e-06
-1.4666e-05
1.71738e-06
-1.57644e-05
1.09834e-06
-1.64979e-05
7.33553e-07
-1.70123e-05
5.14369e-07
-1.73896e-05
3.77285e-07
-1.76765e-05
2.8697e-07
-1.79009e-05
2.24373e-07
-1.808e-05
1.79055e-07
-1.8225e-05
1.45043e-07
-1.83438e-05
1.18751e-07
-1.84417e-05
9.79149e-08
-1.85227e-05
8.10468e-08
-1.85898e-05
6.71265e-08
-1.86453e-05
5.54324e-08
-1.86907e-05
4.54385e-08
-1.87275e-05
3.67507e-08
-1.87565e-05
2.90661e-08
-1.87787e-05
2.21458e-08
-1.87945e-05
1.57955e-08
-1.88043e-05
9.85279e-09
-1.88085e-05
4.17743e-09
-1.88071e-05
-1.35721e-09
-1.88003e-05
-6.86777e-09
-1.87878e-05
-1.24699e-08
-1.87695e-05
-1.828e-08
-1.87451e-05
-2.44226e-08
-1.87141e-05
-3.10355e-08
-1.86758e-05
-3.82779e-08
-1.86295e-05
-4.63399e-08
-1.8574e-05
-5.54558e-08
-1.85081e-05
-6.59233e-08
-1.84299e-05
-7.8131e-08
-1.83373e-05
-9.25994e-08
-1.82273e-05
-1.10046e-07
-1.80958e-05
-1.31492e-07
-1.79374e-05
-1.58436e-07
-1.77442e-05
-1.9317e-07
-1.75049e-05
-2.39345e-07
-1.72018e-05
-3.03041e-07
-1.6807e-05
-3.94821e-07
-1.62733e-05
-5.33685e-07
-1.55193e-05
-7.54046e-07
-1.44038e-05
-1.11548e-06
-1.26876e-05
-1.71619e-06
-9.94961e-06
-2.73798e-06
-5.45366e-06
-4.49595e-06
-5.45366e-06
-1.19267e-08
5.56842e-06
-2.12785e-06
6.72171e-06
-4.84871e-06
5.50724e-06
-7.2561e-06
4.12478e-06
-9.18129e-06
3.02352e-06
-1.06774e-05
2.22971e-06
-1.18383e-05
1.67525e-06
-1.27474e-05
1.28634e-06
-1.34684e-05
1.00801e-06
-1.40478e-05
8.03744e-07
-1.45187e-05
6.49968e-07
-1.49051e-05
5.31391e-07
-1.52242e-05
4.37935e-07
-1.54891e-05
3.62805e-07
-1.57094e-05
3.01299e-07
-1.58923e-05
2.50086e-07
-1.60437e-05
2.06744e-07
-1.61677e-05
1.69473e-07
-1.62678e-05
1.36901e-07
-1.63467e-05
1.07961e-07
-1.64064e-05
8.18006e-08
-1.64483e-05
5.77209e-08
-1.64736e-05
3.51333e-08
-1.64829e-05
1.35256e-08
-1.64767e-05
-7.56278e-09
-1.6455e-05
-2.85641e-08
-1.64176e-05
-4.9898e-08
-1.63639e-05
-7.19914e-08
-1.6293e-05
-9.52958e-08
-1.62038e-05
-1.20309e-07
-1.60944e-05
-1.476e-07
-1.59629e-05
-1.77841e-07
-1.58065e-05
-2.11852e-07
-1.56218e-05
-2.50661e-07
-1.54044e-05
-2.95586e-07
-1.51486e-05
-3.48366e-07
-1.48473e-05
-4.11336e-07
-1.44911e-05
-4.87717e-07
-1.40675e-05
-5.82053e-07
-1.35597e-05
-7.00912e-07
-1.29451e-05
-8.54e-07
-1.21921e-05
-1.05595e-06
-1.12579e-05
-1.32911e-06
-1.0084e-05
-1.70752e-06
-8.59658e-06
-2.24149e-06
-6.71557e-06
-2.99648e-06
-4.40189e-06
-4.02987e-06
-1.82469e-06
-5.31518e-06
1.21877e-07
-6.44252e-06
-5.33178e-06
1.03443e-06
4.53399e-06
5.56044e-07
7.2001e-06
-9.70432e-07
7.03371e-06
-2.8478e-06
6.00215e-06
-4.68285e-06
4.85857e-06
-6.31575e-06
3.86261e-06
-7.7078e-06
3.0673e-06
-8.87277e-06
2.45132e-06
-9.84169e-06
1.97693e-06
-1.06474e-05
1.60942e-06
-1.13188e-05
1.32143e-06
-1.18801e-05
1.0926e-06
-1.23502e-05
9.0809e-07
-1.27445e-05
7.57114e-07
-1.3075e-05
6.31781e-07
-1.33512e-05
5.26241e-07
-1.35805e-05
4.36097e-07
-1.3769e-05
3.57988e-07
-1.39214e-05
2.89296e-07
-1.40414e-05
2.27946e-07
-1.41319e-05
1.72253e-07
-1.4195e-05
1.20821e-07
-1.42323e-05
7.24622e-08
-1.42449e-05
2.61331e-08
-1.42333e-05
-1.9108e-08
-1.41978e-05
-6.41449e-08
-1.41378e-05
-1.09837e-07
-1.40528e-05
-1.57051e-07
-1.39414e-05
-2.06701e-07
-1.38019e-05
-2.59781e-07
-1.36321e-05
-3.17415e-07
-1.3429e-05
-3.80913e-07
-1.3189e-05
-4.51845e-07
-1.29075e-05
-5.32141e-07
-1.25789e-05
-6.24228e-07
-1.2196e-05
-7.31217e-07
-1.17502e-05
-8.57168e-07
-1.12304e-05
-1.00747e-06
-1.06231e-05
-1.18937e-06
-9.91134e-06
-1.41271e-06
-9.07441e-06
-1.69093e-06
-8.08805e-06
-2.04231e-06
-6.92613e-06
-2.49103e-06
-5.56644e-06
-3.06721e-06
-4.00549e-06
-3.80245e-06
-2.29014e-06
-4.71183e-06
-5.7829e-07
-5.74173e-06
7.61759e-07
-6.65522e-06
1.08545e-06
-6.76622e-06
-4.24633e-06
9.10118e-07
3.62387e-06
1.2438e-06
6.86641e-06
6.77414e-07
7.6001e-06
-4.63665e-07
7.14323e-06
-1.85124e-06
6.24615e-06
-3.26798e-06
5.27936e-06
-4.59786e-06
4.39718e-06
-5.79201e-06
3.64547e-06
-6.8388e-06
3.02371e-06
-7.74444e-06
2.51506e-06
-8.52235e-06
2.09935e-06
-9.1878e-06
1.75804e-06
-9.75537e-06
1.47566e-06
-1.02381e-05
1.23983e-06
-1.06471e-05
1.04079e-06
-1.09918e-05
8.70924e-07
-1.12799e-05
7.24228e-07
-1.15179e-05
5.95953e-07
-1.17109e-05
4.82293e-07
-1.18631e-05
3.80153e-07
-1.19778e-05
2.86975e-07
-1.20576e-05
2.00602e-07
-1.21043e-05
1.19172e-07
-1.21192e-05
4.10388e-08
-1.2103e-05
-3.52944e-08
-1.20559e-05
-1.11234e-07
-1.19776e-05
-1.88147e-07
-1.18673e-05
-2.67403e-07
-1.17235e-05
-3.50432e-07
-1.15445e-05
-4.38771e-07
-1.13278e-05
-5.34129e-07
-1.10703e-05
-6.38461e-07
-1.07681e-05
-7.54061e-07
-1.04165e-05
-8.83682e-07
-1.00101e-05
-1.03069e-06
-9.54203e-06
-1.19925e-06
-9.0046e-06
-1.3946e-06
-8.38871e-06
-1.62336e-06
-7.68415e-06
-1.89393e-06
-6.88001e-06
-2.21684e-06
-5.96582e-06
-2.60512e-06
-4.93405e-06
-3.07407e-06
-3.78528e-06
-3.63981e-06
-2.5378e-06
-4.31469e-06
-1.24445e-06
-5.09579e-06
-1.77347e-08
-5.93854e-06
9.43767e-07
-6.70323e-06
1.3475e-06
-7.05896e-06
9.15649e-07
-6.33436e-06
-3.33068e-06
6.77274e-07
2.9466e-06
1.26449e-06
6.27919e-06
1.26877e-06
7.59582e-06
7.30007e-07
7.68199e-06
-1.65368e-07
7.14152e-06
-1.23609e-06
6.35008e-06
-2.35098e-06
5.51207e-06
-3.42986e-06
4.72434e-06
-4.43033e-06
4.02419e-06
-5.33417e-06
3.4189e-06
-6.13714e-06
2.90233e-06
-6.84245e-06
2.46335e-06
-7.45677e-06
2.08998e-06
-7.98802e-06
1.77108e-06
-8.4442e-06
1.49697e-06
-8.83273e-06
1.25946e-06
-9.16028e-06
1.05177e-06
-9.4326e-06
8.68272e-07
-9.65458e-06
7.04275e-07
-9.83029e-06
5.55862e-07
-9.96302e-06
4.19712e-07
-1.00554e-05
2.92964e-07
-1.01093e-05
1.73115e-07
-1.01262e-05
5.7922e-08
-1.01068e-05
-5.46681e-08
-1.00515e-05
-1.6659e-07
-9.95992e-06
-2.79717e-07
-9.8314e-06
-3.95919e-07
-9.66471e-06
-5.17122e-07
-9.45811e-06
-6.45368e-07
-9.20936e-06
-7.8288e-07
-8.91567e-06
-9.32148e-07
-8.57372e-06
-1.09601e-06
-8.17962e-06
-1.27778e-06
-7.72895e-06
-1.48136e-06
-7.21681e-06
-1.71138e-06
-6.63803e-06
-1.97339e-06
-5.98744e-06
-2.27395e-06
-5.26062e-06
-2.62074e-06
-4.45506e-06
-3.02241e-06
-3.57224e-06
-3.48794e-06
-2.62122e-06
-4.02509e-06
-1.62423e-06
-4.63679e-06
-6.25054e-07
-5.31386e-06
3.00168e-07
-6.02102e-06
1.03338e-06
-6.67175e-06
1.41766e-06
-7.0875e-06
1.29978e-06
-6.94108e-06
6.66504e-07
-5.70109e-06
-2.66417e-06
4.87276e-07
2.45932e-06
1.10174e-06
5.66473e-06
1.39621e-06
7.30135e-06
1.26903e-06
7.80917e-06
7.86597e-07
7.62396e-06
6.61621e-08
7.07051e-06
-7.81583e-07
6.35982e-06
-1.67265e-06
5.61541e-06
-2.55077e-06
4.90231e-06
-3.38196e-06
4.25009e-06
-4.14791e-06
3.66828e-06
-4.84059e-06
3.15602e-06
-5.45818e-06
2.70757e-06
-6.00246e-06
2.31536e-06
-6.47705e-06
1.97156e-06
-6.88636e-06
1.66877e-06
-7.23495e-06
1.40036e-06
-7.52718e-06
1.1605e-06
-7.767e-06
9.44095e-07
-7.95787e-06
7.46732e-07
-8.10271e-06
5.64552e-07
-8.2039e-06
3.94152e-07
-8.26328e-06
2.32496e-07
-8.28219e-06
7.68283e-08
-8.26146e-06
-7.5399e-08
-8.20145e-06
-2.26592e-07
-8.10209e-06
-3.79078e-07
-7.96285e-06
-5.35162e-07
-7.78278e-06
-6.97188e-07
-7.56056e-06
-8.67595e-07
-7.29445e-06
-1.04898e-06
-6.98241e-06
-1.24418e-06
-6.6221e-06
-1.45632e-06
-6.21098e-06
-1.6889e-06
-5.74647e-06
-1.94587e-06
-5.22618e-06
-2.23167e-06
-4.64831e-06
-2.55126e-06
-4.01228e-06
-2.90998e-06
-3.31972e-06
-3.3133e-06
-2.57598e-06
-3.76615e-06
-1.79242e-06
-4.27151e-06
-9.89596e-07
-4.82791e-06
-2.01582e-07
-5.42481e-06
5.19252e-07
-6.0347e-06
1.09863e-06
-6.60039e-06
1.44284e-06
-7.01596e-06
1.45734e-06
-7.102e-06
1.09735e-06
-6.58109e-06
4.71158e-07
-5.0749e-06
-2.19302e-06
3.55936e-07
2.10338e-06
9.20093e-07
5.10057e-06
1.3396e-06
6.88184e-06
1.46562e-06
7.68315e-06
1.28905e-06
7.80053e-06
8.68411e-07
7.49115e-06
2.81424e-07
6.9468e-06
-4.00056e-07
6.29689e-06
-1.11938e-06
5.62164e-06
-1.83608e-06
4.96678e-06
-2.5234e-06
4.3556e-06
-3.165e-06
3.79763e-06
-3.75193e-06
3.2945e-06
-4.28013e-06
2.84356e-06
-4.74868e-06
2.44011e-06
-5.15856e-06
2.07865e-06
-5.51176e-06
1.75357e-06
-5.81078e-06
1.45952e-06
-6.05821e-06
1.19152e-06
-6.25655e-06
9.4507e-07
-6.40805e-06
7.16052e-07
-6.51464e-06
5.00749e-07
-6.57791e-06
2.95763e-07
-6.59904e-06
9.796e-08
-6.57885e-06
-9.55861e-08
-6.51779e-06
-2.87652e-07
-6.41595e-06
-4.80918e-07
-6.2731e-06
-6.78019e-07
-6.08869e-06
-8.81594e-07
-5.86195e-06
-1.09434e-06
-5.59189e-06
-1.31904e-06
-5.27741e-06
-1.55866e-06
-4.91744e-06
-1.8163e-06
-4.51105e-06
-2.09529e-06
-4.05774e-06
-2.39918e-06
-3.55779e-06
-2.73162e-06
-3.01278e-06
-3.09627e-06
-2.42629e-06
-3.49646e-06
-1.80502e-06
-3.93457e-06
-1.16016e-06
-4.41101e-06
-5.09264e-07
-4.92241e-06
1.21504e-07
-5.45868e-06
6.95113e-07
-5.99842e-06
1.16233e-06
-6.50192e-06
1.46342e-06
-6.90148e-06
1.53674e-06
-7.08928e-06
1.34037e-06
-6.90563e-06
8.93397e-07
-6.13411e-06
3.38504e-07
-4.52001e-06
-1.85451e-06
2.69268e-07
1.83412e-06
7.64709e-07
4.60513e-06
1.22205e-06
6.42449e-06
1.49153e-06
7.41368e-06
1.52515e-06
7.76691e-06
1.33884e-06
7.67746e-06
9.78526e-07
7.30712e-06
4.97731e-07
6.77768e-06
-5.44451e-08
6.17382e-06
-6.38126e-07
5.55047e-06
-1.22342e-06
4.94089e-06
-1.78926e-06
4.36347e-06
-2.32166e-06
3.8269e-06
-2.81194e-06
3.33384e-06
-3.25521e-06
2.88337e-06
-3.64915e-06
2.47259e-06
-3.99316e-06
2.09758e-06
-4.28769e-06
1.75405e-06
-4.5338e-06
1.43763e-06
-4.7328e-06
1.14408e-06
-4.88612e-06
8.69367e-07
-4.99508e-06
6.09707e-07
-5.06086e-06
3.61542e-07
-5.08443e-06
1.21533e-07
-5.06653e-06
-1.13481e-07
-5.00768e-06
-3.46511e-07
-4.90813e-06
-5.80462e-07
-4.76799e-06
-8.18165e-07
-4.58717e-06
-1.06241e-06
-4.36552e-06
-1.31599e-06
-4.10287e-06
-1.58169e-06
-3.79918e-06
-1.86235e-06
-3.45466e-06
-2.16082e-06
-3.07002e-06
-2.47993e-06
-2.64676e-06
-2.82244e-06
-2.18756e-06
-3.19082e-06
-1.69682e-06
-3.58701e-06
-1.18139e-06
-4.01189e-06
-6.51423e-07
-4.46454e-06
-1.21514e-07
-4.94092e-06
3.88117e-07
-5.43204e-06
8.50523e-07
-5.92109e-06
1.23156e-06
-6.37945e-06
1.49101e-06
-6.76137e-06
1.58703e-06
-6.9975e-06
1.48629e-06
-6.98855e-06
1.18262e-06
-6.60196e-06
7.25232e-07
-5.67673e-06
2.51597e-07
-4.04637e-06
-1.60292e-06
2.11368e-07
1.62275e-06
6.41091e-07
4.17541e-06
1.09391e-06
5.97168e-06
1.43707e-06
7.07052e-06
1.60723e-06
7.59675e-06
1.59358e-06
7.69111e-06
1.41689e-06
7.4838e-06
1.11236e-06
7.08221e-06
7.18218e-07
6.56796e-06
2.69459e-07
5.99922e-06
-2.04826e-07
5.41517e-06
-6.82007e-07
4.84065e-06
-1.14536e-06
4.29026e-06
-1.58309e-06
3.77157e-06
-1.98725e-06
3.28753e-06
-2.3528e-06
2.83814e-06
-2.67679e-06
2.42158e-06
-2.95774e-06
2.035e-06
-3.19514e-06
1.67503e-06
-3.3891e-06
1.33804e-06
-3.54009e-06
1.02036e-06
-3.64877e-06
7.18387e-07
-3.71585e-06
4.28619e-07
-3.74201e-06
1.4769e-07
-3.72786e-06
-1.27629e-07
-3.67393e-06
-4.00437e-07
-3.58068e-06
-6.73719e-07
-3.44848e-06
-9.50357e-07
-3.27775e-06
-1.23315e-06
-3.06893e-06
-1.52481e-06
-2.82266e-06
-1.82796e-06
-2.53989e-06
-2.14512e-06
-2.22205e-06
-2.47866e-06
-1.87129e-06
-2.8307e-06
-1.49078e-06
-3.20294e-06
-1.08513e-06
-3.59648e-06
-6.60794e-07
-4.01135e-06
-2.26711e-07
-4.44598e-06
2.05073e-07
-4.89632e-06
6.18723e-07
-5.35457e-06
9.94075e-07
-5.80739e-06
1.3065e-06
-6.23351e-06
1.52767e-06
-6.60062e-06
1.628e-06
-6.86171e-06
1.58192e-06
-6.95142e-06
1.37705e-06
-6.78368e-06
1.0281e-06
-6.25301e-06
5.94182e-07
-5.24281e-06
1.93758e-07
-3.64595e-06
-1.40916e-06
1.71297e-07
1.45145e-06
5.44186e-07
3.80252e-06
9.73574e-07
5.54229e-06
1.34804e-06
6.69606e-06
1.6019e-06
7.34288e-06
1.70971e-06
7.5833e-06
1.67454e-06
7.51897e-06
1.51614e-06
7.24061e-06
1.26158e-06
6.82252e-06
9.39069e-07
6.32174e-06
5.74438e-07
5.7798e-06
1.89551e-07
5.22554e-06
-1.98082e-07
4.67789e-06
-5.75036e-07
4.14852e-06
-9.31391e-07
3.64389e-06
-1.26009e-06
3.16684e-06
-1.55629e-06
2.71778e-06
-1.81685e-06
2.29556e-06
-2.03983e-06
1.89801e-06
-2.22421e-06
1.52241e-06
-2.36952e-06
1.16567e-06
-2.47573e-06
8.24595e-07
-2.54304e-06
4.95928e-07
-2.5718e-06
1.76459e-07
-2.56249e-06
-1.36947e-07
-2.5156e-06
-4.47328e-07
-2.43171e-06
-7.57604e-07
-2.3115e-06
-1.07057e-06
-2.15576e-06
-1.38889e-06
-1.96551e-06
-1.71505e-06
-1.7421e-06
-2.05137e-06
-1.48732e-06
-2.3999e-06
-1.20362e-06
-2.76236e-06
-8.94306e-07
-3.14001e-06
-5.63813e-07
-3.53344e-06
-2.18045e-07
-3.94224e-06
1.35261e-07
-4.36465e-06
4.86135e-07
-4.79685e-06
8.21989e-07
-5.23217e-06
1.12734e-06
-5.65992e-06
1.38382e-06
-6.06387e-06
1.57067e-06
-6.42036e-06
1.66621e-06
-6.69616e-06
1.65073e-06
-6.84623e-06
1.51143e-06
-6.81212e-06
1.24974e-06
-6.52199e-06
8.90782e-07
-5.89404e-06
4.93068e-07
-4.8451e-06
1.53906e-07
-3.30679e-06
-1.25525e-06
1.42365e-07
1.30909e-06
4.67541e-07
3.47734e-06
8.66145e-07
5.14368e-06
1.2468e-06
6.3154e-06
1.54784e-06
7.04184e-06
1.73721e-06
7.39394e-06
1.80664e-06
7.44954e-06
1.76412e-06
7.28313e-06
1.62689e-06
6.95975e-06
1.41605e-06
6.53257e-06
1.15301e-06
6.04285e-06
8.57388e-07
5.52116e-06
5.46032e-07
4.98925e-06
2.32749e-07
4.46181e-06
-7.1562e-08
3.9482e-06
-3.58569e-07
3.45384e-06
-6.22089e-07
2.9813e-06
-8.5767e-07
2.53114e-06
-1.06222e-06
2.10256e-06
-1.23367e-06
1.69386e-06
-1.37076e-06
1.30276e-06
-1.47276e-06
9.26599e-07
-1.5394e-06
5.62564e-07
-1.57069e-06
2.07751e-07
-1.5669e-06
-1.40737e-07
-1.52849e-06
-4.85734e-07
-1.45613e-06
-8.29966e-07
-1.35069e-06
-1.17602e-06
-1.2133e-06
-1.52628e-06
-1.04543e-06
-1.88292e-06
-8.48993e-07
-2.24781e-06
-6.26458e-07
-2.62243e-06
-3.81022e-07
-3.0078e-06
-1.16804e-07
-3.40423e-06
1.60935e-07
-3.81117e-06
4.45545e-07
-4.22686e-06
7.28739e-07
-4.64785e-06
1.00037e-06
-5.06848e-06
1.24827e-06
-5.48008e-06
1.45834e-06
-5.86999e-06
1.61485e-06
-6.22038e-06
1.7014e-06
-6.5069e-06
1.70255e-06
-6.69731e-06
1.60669e-06
-6.75037e-06
1.41014e-06
-6.61556e-06
1.12252e-06
-6.23437e-06
7.7281e-07
-5.54434e-06
4.14297e-07
-4.48658e-06
1.25327e-07
-3.01782e-06
-1.12992e-06
1.20561e-07
1.18852e-06
4.05727e-07
3.19218e-06
7.71585e-07
4.77783e-06
1.14379e-06
5.94319e-06
1.46721e-06
6.71842e-06
1.70805e-06
7.1531e-06
1.85152e-06
7.30607e-06
1.89731e-06
7.23734e-06
1.85473e-06
7.00234e-06
1.73839e-06
6.64891e-06
1.56501e-06
6.21622e-06
1.35123e-06
5.73495e-06
1.11229e-06
5.22818e-06
8.61465e-07
4.71263e-06
6.098e-07
4.19987e-06
3.66218e-07
3.69742e-06
1.3772e-07
3.2098e-06
-7.0344e-08
2.7392e-06
-2.53995e-07
2.28621e-06
-4.10362e-07
1.85023e-06
-5.37458e-07
1.42985e-06
-6.33992e-07
1.02313e-06
-6.99221e-07
6.27793e-07
-7.32842e-07
2.41372e-07
-7.34916e-07
-1.38664e-07
-7.05824e-07
-5.14825e-07
-6.46257e-07
-8.89533e-07
-5.57225e-07
-1.26505e-06
-4.40099e-07
-1.6434e-06
-2.96674e-07
-2.02634e-06
-1.29258e-07
-2.41522e-06
5.92177e-08
-2.81091e-06
2.65061e-07
-3.21364e-06
4.8367e-07
-3.62284e-06
7.0937e-07
-4.03687e-06
9.35253e-07
-4.45274e-06
1.15304e-06
-4.86563e-06
1.35302e-06
-5.26846e-06
1.52408e-06
-5.65114e-06
1.65398e-06
-5.9999e-06
1.72995e-06
-6.29634e-06
1.73966e-06
-6.51662e-06
1.67301e-06
-6.63066e-06
1.52446e-06
-6.60183e-06
1.29635e-06
-6.38744e-06
1.00256e-06
-5.94058e-06
6.72199e-07
-5.21398e-06
3.51777e-07
-4.16616e-06
1.03997e-07
-2.77004e-06
-1.02593e-06
1.03463e-07
1.08506e-06
3.54686e-07
2.94095e-06
6.88181e-07
4.44433e-06
1.04347e-06
5.5879e-06
1.37254e-06
6.38936e-06
1.64259e-06
6.88304e-06
1.83561e-06
7.11306e-06
1.94585e-06
7.12709e-06
1.97667e-06
6.97152e-06
1.93721e-06
6.68837e-06
1.83979e-06
6.31364e-06
1.69785e-06
5.87689e-06
1.52456e-06
5.40148e-06
1.33201e-06
4.90518e-06
1.13081e-06
4.40107e-06
9.29902e-07
3.89833e-06
7.36632e-07
3.40307e-06
5.56865e-07
2.91897e-06
3.95171e-07
2.44791e-06
2.55011e-07
1.99039e-06
1.38925e-07
1.54594e-06
4.86813e-08
1.11338e-06
-1.45831e-08
6.91058e-07
-5.02671e-08
2.77055e-07
-5.82273e-08
-1.30704e-07
-3.87361e-08
-5.34317e-07
7.53741e-09
-9.35807e-07
7.95215e-08
-1.33703e-06
1.75712e-07
-1.73959e-06
2.94119e-07
-2.14475e-06
4.32197e-07
-2.5533e-06
5.86757e-07
-2.96547e-06
7.53861e-07
-3.38074e-06
9.28718e-07
-3.7977e-06
1.10558e-06
-4.21374e-06
1.27766e-06
-4.62481e-06
1.43708e-06
-5.02506e-06
1.57497e-06
-5.40634e-06
1.68157e-06
-5.75774e-06
1.74669e-06
-6.06502e-06
1.76034e-06
-6.30999e-06
1.71378e-06
-6.47006e-06
1.60105e-06
-6.51792e-06
1.42092e-06
-6.4217e-06
1.17934e-06
-6.14586e-06
8.91908e-07
-5.65315e-06
5.85907e-07
-4.90798e-06
3.01017e-07
-3.88127e-06
8.74703e-08
-2.55649e-06
-9.38457e-07
8.95702e-08
9.95491e-07
3.11507e-07
2.71901e-06
6.13911e-07
4.14193e-06
9.4743e-07
5.25438e-06
1.27084e-06
6.06595e-06
1.55375e-06
6.60013e-06
1.77706e-06
6.88975e-06
1.93179e-06
6.97235e-06
2.01704e-06
6.88627e-06
2.03767e-06
6.66774e-06
2.00215e-06
6.34916e-06
1.92086e-06
5.95818e-06
1.80472e-06
5.51761e-06
1.66434e-06
5.04556e-06
1.50944e-06
4.55597e-06
1.34858e-06
4.05919e-06
1.18907e-06
3.56258e-06
1.03694e-06
3.07109e-06
8.9709e-07
2.58776e-06
7.73347e-07
2.11413e-06
6.68638e-07
1.65065e-06
5.85097e-07
1.19692e-06
5.24177e-07
7.51978e-07
4.86738e-07
3.14494e-07
4.73117e-07
-1.17083e-07
4.8317e-07
-5.44369e-07
5.16293e-07
-9.6893e-07
5.71423e-07
-1.39216e-06
6.47018e-07
-1.81519e-06
7.41017e-07
-2.23875e-06
8.5079e-07
-2.66307e-06
9.73071e-07
-3.08775e-06
1.10389e-06
-3.51156e-06
1.23851e-06
-3.93231e-06
1.37136e-06
-4.34659e-06
1.49606e-06
-4.74951e-06
1.60539e-06
-5.1344e-06
1.69151e-06
-5.49245e-06
1.74613e-06
-5.81236e-06
1.76101e-06
-6.0799e-06
1.72864e-06
-6.27762e-06
1.64317e-06
-6.38459e-06
1.50171e-06
-6.37646e-06
1.30588e-06
-6.22587e-06
1.06353e-06
-5.90352e-06
7.90363e-07
-5.37998e-06
5.10976e-07
-4.62859e-06
2.58799e-07
-3.62909e-06
7.42157e-08
-2.37191e-06
-8.64241e-07
7.79251e-08
9.17566e-07
2.74123e-07
2.52282e-06
5.46941e-07
3.86911e-06
8.55934e-07
4.94539e-06
1.166e-06
5.75588e-06
1.44977e-06
6.31637e-06
1.6884e-06
6.65111e-06
1.87124e-06
6.78951e-06
1.99456e-06
6.76296e-06
2.05997e-06
6.60233e-06
2.07282e-06
6.3363e-06
2.04076e-06
5.99025e-06
1.97251e-06
5.58586e-06
1.87705e-06
5.14101e-06
1.76302e-06
4.67001e-06
1.63829e-06
4.18392e-06
1.50983e-06
3.69104e-06
1.38359e-06
3.19733e-06
1.26453e-06
2.70682e-06
1.15667e-06
2.22199e-06
1.06316e-06
1.74416e-06
9.86373e-07
1.2737e-06
9.28008e-07
8.10343e-07
8.89132e-07
3.5337e-07
8.70257e-07
-9.82081e-08
8.71378e-07
-5.4549e-07
8.9199e-07
-9.89542e-07
9.31101e-07
-1.43127e-06
9.87214e-07
-1.8713e-06
1.05831e-06
-2.30984e-06
1.14179e-06
-2.74656e-06
1.23448e-06
-3.18044e-06
1.33255e-06
-3.60963e-06
1.43149e-06
-4.03125e-06
1.5261e-06
-4.44121e-06
1.61057e-06
-4.83398e-06
1.6785e-06
-5.20232e-06
1.72312e-06
-5.53707e-06
1.73757e-06
-5.82682e-06
1.71539e-06
-6.05772e-06
1.6511e-06
-6.21333e-06
1.54107e-06
-6.27456e-06
1.38456e-06
-6.21996e-06
1.18491e-06
-6.02622e-06
9.5071e-07
-5.66932e-06
6.96829e-07
-5.1261e-06
4.44884e-07
-4.37665e-06
2.22823e-07
-3.40703e-06
6.32457e-08
-2.21233e-06
-8.00995e-07
6.78967e-08
8.49669e-07
2.41061e-07
2.34965e-06
4.85748e-07
3.62442e-06
7.68694e-07
4.66244e-06
1.06018e-06
5.4644e-06
1.33598e-06
6.04056e-06
1.57836e-06
6.40873e-06
1.77604e-06
6.59183e-06
1.92357e-06
6.61543e-06
2.02028e-06
6.50563e-06
2.06904e-06
6.28753e-06
2.07519e-06
5.98411e-06
2.04546e-06
5.61559e-06
1.98723e-06
5.19924e-06
1.90793e-06
4.74931e-06
1.8146e-06
4.27725e-06
1.71366e-06
3.79198e-06
1.61077e-06
3.30022e-06
1.51077e-06
2.80682e-06
1.41768e-06
2.31508e-06
1.33475e-06
1.82709e-06
1.26449e-06
1.34396e-06
1.20873e-06
8.66096e-07
1.16872e-06
3.9338e-07
1.14512e-06
-7.46049e-08
1.13806e-06
-5.38426e-07
1.14716e-06
-9.98641e-07
1.17154e-06
-1.45566e-06
1.20983e-06
-1.90959e-06
1.26013e-06
-2.36014e-06
1.32e-06
-2.80643e-06
1.38645e-06
-3.2469e-06
1.45593e-06
-3.67911e-06
1.52429e-06
-4.09961e-06
1.58685e-06
-4.50377e-06
1.63842e-06
-4.88555e-06
1.67347e-06
-5.23738e-06
1.68631e-06
-5.54991e-06
1.67138e-06
-5.81189e-06
1.62369e-06
-6.01004e-06
1.53941e-06
-6.12904e-06
1.41652e-06
-6.15167e-06
1.25569e-06
-6.05912e-06
1.06111e-06
-5.83165e-06
8.41365e-07
-5.44957e-06
6.09978e-07
-4.89471e-06
3.85596e-07
-4.15226e-06
1.91441e-07
-3.21288e-06
5.39016e-08
-2.07479e-06
-7.47094e-07
5.9057e-08
7.90612e-07
2.11267e-07
2.19744e-06
4.29128e-07
3.40656e-06
6.85226e-07
4.40634e-06
9.54508e-07
5.19512e-06
1.21587e-06
5.7792e-06
1.45306e-06
6.17154e-06
1.65495e-06
6.38995e-06
1.81518e-06
6.45519e-06
1.93154e-06
6.38927e-06
2.00507e-06
6.214e-06
2.03923e-06
5.94995e-06
2.03902e-06
5.6158e-06
2.01035e-06
5.22791e-06
1.95942e-06
4.80024e-06
1.89236e-06
4.34431e-06
1.81494e-06
3.8694e-06
1.73237e-06
3.38279e-06
1.64923e-06
2.88995e-06
1.56941e-06
2.3949e-06
1.49613e-06
1.90038e-06
1.43191e-06
1.40818e-06
1.3787e-06
9.19306e-07
1.33783e-06
4.3425e-07
1.31009e-06
-4.68612e-08
1.29574e-06
-5.24075e-07
1.29455e-06
-9.97448e-07
1.30579e-06
-1.4669e-06
1.32825e-06
-1.93205e-06
1.36023e-06
-2.39212e-06
1.39953e-06
-2.84573e-06
1.44345e-06
-3.29081e-06
1.48877e-06
-3.72443e-06
1.53183e-06
-4.14266e-06
1.56848e-06
-4.54042e-06
1.59426e-06
-4.91133e-06
1.60446e-06
-5.24758e-06
1.59439e-06
-5.53984e-06
1.55961e-06
-5.77711e-06
1.49637e-06
-5.94679e-06
1.40204e-06
-6.03472e-06
1.27575e-06
-6.02537e-06
1.11895e-06
-5.90232e-06
9.3613e-07
-5.64883e-06
7.35338e-07
-5.24878e-06
5.28522e-07
-4.68789e-06
3.31507e-07
-3.95525e-06
1.63457e-07
-3.04483e-06
4.57317e-08
-1.95707e-06
-7.01362e-07
5.11077e-08
7.39505e-07
1.83975e-07
2.06457e-06
3.76137e-07
3.2144e-06
6.05017e-07
4.17746e-06
8.49608e-07
4.95053e-06
1.09174e-06
5.53707e-06
1.31689e-06
5.94639e-06
1.51453e-06
6.19231e-06
1.678e-06
6.29172e-06
1.80415e-06
6.26312e-06
1.89273e-06
6.12541e-06
1.94574e-06
5.89695e-06
1.96673e-06
5.5948e-06
1.96028e-06
5.23436e-06
1.93147e-06
4.82905e-06
1.88551e-06
4.39027e-06
1.82743e-06
3.92748e-06
1.76193e-06
3.44829e-06
1.6932e-06
2.95868e-06
1.6249e-06
2.4632e-06
1.56011e-06
1.96517e-06
1.50132e-06
1.46696e-06
1.45049e-06
9.70144e-07
1.40899e-06
4.75748e-07
1.37771e-06
-1.55843e-08
1.35704e-06
-5.03407e-07
1.3469e-06
-9.87302e-07
1.34673e-06
-1.46672e-06
1.35552e-06
-1.94085e-06
1.37182e-06
-2.40842e-06
1.39373e-06
-2.86764e-06
1.41888e-06
-3.31596e-06
1.44448e-06
-3.75004e-06
1.46736e-06
-4.16554e-06
1.48399e-06
-4.55704e-06
1.49057e-06
-4.91791e-06
1.48321e-06
-5.24023e-06
1.4581e-06
-5.51472e-06
1.41174e-06
-5.73075e-06
1.34134e-06
-5.87639e-06
1.24517e-06
-5.93854e-06
1.12303e-06
-5.90324e-06
9.76788e-07
-5.75608e-06
8.10771e-07
-5.48281e-06
6.32194e-07
-5.0702e-06
4.51324e-07
-4.50702e-06
2.81368e-07
-3.78529e-06
1.37993e-07
-2.90145e-06
3.8418e-08
-1.85749e-06
-6.62944e-07
4.38357e-08
6.95669e-07
1.58622e-07
1.94979e-06
3.26048e-07
3.04697e-06
5.27592e-07
3.97592e-06
7.45779e-07
4.73234e-06
9.65162e-07
5.31769e-06
1.17302e-06
5.73853e-06
1.35973e-06
6.00561e-06
1.51876e-06
6.13269e-06
1.6465e-06
6.13538e-06
1.74183e-06
6.03008e-06
1.80565e-06
5.83313e-06
1.84037e-06
5.56009e-06
1.84942e-06
5.22531e-06
1.83686e-06
4.8416e-06
1.80701e-06
4.42013e-06
1.76416e-06
3.97033e-06
1.71243e-06
3.50003e-06
1.65558e-06
3.01554e-06
1.59694e-06
2.52183e-06
1.53941e-06
2.02271e-06
1.48534e-06
1.52102e-06
1.43664e-06
1.01885e-06
1.39471e-06
5.17678e-07
1.3605e-06
1.86306e-08
1.33449e-06
-4.77401e-07
1.31676e-06
-9.69566e-07
1.30693e-06
-1.4569e-06
1.30423e-06
-1.93815e-06
1.30749e-06
-2.41168e-06
1.31511e-06
-2.87526e-06
1.32514e-06
-3.32599e-06
1.33523e-06
-3.76014e-06
1.34273e-06
-4.17304e-06
1.3447e-06
-4.55902e-06
1.33803e-06
-4.91124e-06
1.31954e-06
-5.22174e-06
1.28619e-06
-5.48136e-06
1.23526e-06
-5.67983e-06
1.16468e-06
-5.80581e-06
1.07333e-06
-5.84719e-06
9.61399e-07
-5.79131e-06
8.30777e-07
-5.62546e-06
6.85381e-07
-5.33742e-06
5.31406e-07
-4.91622e-06
3.77415e-07
-4.35303e-06
2.34206e-07
-3.64208e-06
1.14399e-07
-2.78165e-06
3.17314e-08
-1.77482e-06
-6.31213e-07
3.70853e-08
6.58584e-07
1.34784e-07
1.85209e-06
2.78288e-07
2.90347e-06
4.52536e-07
3.80167e-06
6.43152e-07
4.54172e-06
8.37205e-07
5.12363e-06
1.02379e-06
5.55195e-06
1.19434e-06
5.83505e-06
1.34279e-06
5.98425e-06
1.46538e-06
6.01278e-06
1.5605e-06
5.93496e-06
1.62828e-06
5.76536e-06
1.6702e-06
5.51816e-06
1.68878e-06
5.20673e-06
1.68714e-06
4.84324e-06
1.66879e-06
4.43848e-06
1.63731e-06
4.00181e-06
1.59621e-06
3.54113e-06
1.54877e-06
3.06297e-06
1.49799e-06
2.57262e-06
1.44645e-06
2.07425e-06
1.39637e-06
1.5711e-06
1.34954e-06
1.06567e-06
1.30734e-06
5.59876e-07
1.27075e-06
5.52209e-08
1.24035e-06
-4.47001e-07
1.21634e-06
-9.45556e-07
1.19855e-06
-1.43911e-06
1.18645e-06
-1.92605e-06
1.17914e-06
-2.40437e-06
1.1754e-06
-2.87152e-06
1.17367e-06
-3.32426e-06
1.17208e-06
-3.75855e-06
1.1685e-06
-4.16947e-06
1.16058e-06
-4.55109e-06
1.14582e-06
-4.89648e-06
1.12171e-06
-5.19763e-06
1.08586e-06
-5.44551e-06
1.03618e-06
-5.63015e-06
9.71133e-07
-5.74076e-06
8.89958e-07
-5.76602e-06
7.92991e-07
-5.69434e-06
6.81923e-07
-5.51439e-06
5.60051e-07
-5.21554e-06
4.32444e-07
-4.78862e-06
3.05989e-07
-4.22658e-06
1.89259e-07
-3.52535e-06
9.21819e-08
-2.68457e-06
2.55033e-08
-1.70815e-06
-6.05709e-07
3.07391e-08
6.27845e-07
1.12139e-07
1.77069e-06
2.32405e-07
2.78321e-06
3.79484e-07
3.65459e-06
5.41757e-07
4.37945e-06
7.08612e-07
4.95678e-06
8.70913e-07
5.38965e-06
1.0213e-06
5.68467e-06
1.1543e-06
5.85124e-06
1.26635e-06
5.90074e-06
1.35556e-06
5.84575e-06
1.42156e-06
5.69935e-06
1.46517e-06
5.47455e-06
1.48811e-06
5.18379e-06
1.49274e-06
4.8386e-06
1.4818e-06
4.44941e-06
1.45821e-06
4.0254e-06
1.42488e-06
3.57446e-06
1.38461e-06
3.10325e-06
1.33996e-06
2.61726e-06
1.29325e-06
2.12096e-06
1.24646e-06
1.61789e-06
1.20124e-06
1.11089e-06
1.15892e-06
6.02195e-07
1.12048e-06
9.36649e-08
1.08656e-06
-4.13083e-07
1.0575e-06
-9.16492e-07
1.0333e-06
-1.41491e-06
1.01369e-06
-1.90643e-06
9.98069e-07
-2.38875e-06
9.85575e-07
-2.85903e-06
9.75065e-07
-3.31375e-06
9.65142e-07
-3.74863e-06
9.54192e-07
-4.15852e-06
9.40421e-07
-4.53732e-06
9.21924e-07
-4.87798e-06
8.96774e-07
-5.17248e-06
8.63136e-07
-5.41188e-06
8.19419e-07
-5.58643e-06
7.64451e-07
-5.68579e-06
6.97678e-07
-5.69924e-06
6.19382e-07
-5.61605e-06
5.30886e-07
-5.42589e-06
4.34736e-07
-5.11939e-06
3.34818e-07
-4.6887e-06
2.36379e-07
-4.12814e-06
1.45924e-07
-3.4349e-06
7.09623e-08
-2.60961e-06
1.96063e-08
-1.65679e-06
-5.86103e-07
2.47062e-08
6.03138e-07
9.04312e-08
1.70496e-06
1.8803e-07
2.68561e-06
3.08118e-07
3.5345e-06
4.41557e-07
4.24601e-06
5.79891e-07
4.81844e-06
7.15704e-07
5.25383e-06
8.42876e-07
5.5575e-06
9.56711e-07
5.73741e-06
1.05396e-06
5.80349e-06
1.13272e-06
5.76699e-06
1.19232e-06
5.63976e-06
1.23307e-06
5.43381e-06
1.25608e-06
5.16077e-06
1.26306e-06
4.83163e-06
1.25607e-06
4.45641e-06
1.23738e-06
4.04408e-06
1.20935e-06
3.60249e-06
1.17426e-06
3.13834e-06
1.13428e-06
2.65725e-06
1.09136e-06
2.16387e-06
1.04726e-06
1.662e-06
1.00345e-06
1.1547e-06
9.61154e-07
6.44488e-07
9.21337e-07
1.33482e-07
8.84693e-07
-3.76439e-07
8.51664e-07
-8.83463e-07
8.22442e-07
-1.38569e-06
7.96979e-07
-1.88097e-06
7.74992e-07
-2.36676e-06
7.5597e-07
-2.84001e-06
7.39189e-07
-3.29697e-06
7.23721e-07
-3.73316e-06
7.08456e-07
-4.14325e-06
6.92137e-07
-4.521e-06
6.73405e-07
-4.85925e-06
6.50861e-07
-5.14994e-06
6.2315e-07
-5.38417e-06
5.89072e-07
-5.55235e-06
5.4771e-07
-5.64443e-06
4.98574e-07
-5.65011e-06
4.41762e-07
-5.55924e-06
3.7811e-07
-5.36224e-06
3.09327e-07
-5.05061e-06
2.38083e-07
-4.61745e-06
1.68027e-07
-4.05808e-06
1.03717e-07
-3.37059e-06
5.04419e-08
-2.55633e-06
1.39415e-08
-1.62029e-06
-5.72161e-07
1.89134e-08
5.84225e-07
6.94503e-08
1.65443e-06
1.44853e-07
2.6102e-06
2.38145e-07
3.44121e-06
3.42467e-07
4.14169e-06
4.5138e-07
4.70953e-06
5.59134e-07
5.14608e-06
6.60872e-07
5.45576e-06
7.52751e-07
5.64553e-06
8.31987e-07
5.72426e-06
8.96815e-07
5.70216e-06
9.46407e-07
5.59017e-06
9.80735e-07
5.39948e-06
1.00043e-06
5.14108e-06
1.00662e-06
4.82544e-06
1.00077e-06
4.46225e-06
9.84579e-07
4.06027e-06
9.59835e-07
3.62723e-06
9.28336e-07
3.16984e-06
8.91813e-07
2.69377e-06
8.51881e-07
2.20381e-06
8.10002e-07
1.70388e-06
7.67464e-07
1.19724e-06
7.25368e-07
6.86584e-07
6.84626e-07
1.74224e-07
6.4596e-07
-3.37773e-07
6.09907e-07
-8.4741e-07
5.76825e-07
-1.35261e-06
5.46896e-07
-1.85104e-06
5.20133e-07
-2.34e-06
4.96381e-07
-2.81625e-06
4.75326e-07
-3.27591e-06
4.56499e-07
-3.71433e-06
4.39287e-07
-4.12604e-06
4.22947e-07
-4.50466e-06
4.06632e-07
-4.84294e-06
3.89429e-07
-5.13273e-06
3.70407e-07
-5.36514e-06
3.48682e-07
-5.53063e-06
3.23508e-07
-5.61926e-06
2.94366e-07
-5.62096e-06
2.61078e-07
-5.52595e-06
2.23915e-07
-5.32508e-06
1.83693e-07
-5.01039e-06
1.41848e-07
-4.57561e-06
1.00463e-07
-4.0167e-06
6.22373e-08
-3.33236e-06
3.03787e-08
-2.52448e-06
8.42972e-09
-1.59834e-06
-5.63732e-07
1.32989e-08
5.70926e-07
4.90175e-08
1.61871e-06
1.02598e-07
2.55662e-06
1.69292e-07
3.37452e-06
2.44366e-07
4.06662e-06
3.23291e-07
4.63061e-06
4.01936e-07
5.06743e-06
4.76711e-07
5.38098e-06
5.44682e-07
5.57756e-06
6.03618e-07
5.66532e-06
6.51997e-07
5.65378e-06
6.88961e-07
5.5532e-06
7.14249e-07
5.37419e-06
7.28105e-07
5.12722e-06
7.31169e-07
4.82238e-06
7.24383e-07
4.46904e-06
7.0889e-07
4.07577e-06
6.85951e-07
3.65017e-06
6.56875e-07
3.19891e-06
6.22962e-07
2.72769e-06
5.85459e-07
2.24131e-06
5.45534e-07
1.7438e-06
5.04253e-07
1.23852e-06
4.62573e-07
7.28265e-07
4.21334e-07
2.15463e-07
3.81264e-07
-2.97702e-07
3.42976e-07
-8.09122e-07
3.06977e-07
-1.31661e-06
2.73667e-07
-1.81773e-06
2.43344e-07
-2.30968e-06
2.16201e-07
-2.78911e-06
1.92329e-07
-3.25204e-06
1.71707e-07
-3.69371e-06
1.54208e-07
-4.10854e-06
1.3959e-07
-4.49004e-06
1.275e-07
-4.83085e-06
1.17481e-07
-5.12271e-06
1.0899e-07
-5.35665e-06
1.01419e-07
-5.52306e-06
9.41392e-08
-5.61198e-06
8.65477e-08
-5.61337e-06
7.81358e-08
-5.51754e-06
6.85578e-08
-5.3155e-06
5.77047e-08
-4.99954e-06
4.57684e-08
-4.56367e-06
3.32855e-08
-4.00421e-06
2.1148e-08
-3.32022e-06
1.05703e-08
-2.5139e-06
3.00491e-09