/*--------------------------------*- C++ -*----------------------------------*\
  =========                 |
  \\      /  F ield         | OpenFOAM: The Open Source CFD Toolbox
   \\    /   O peration     | Website:  https://openfoam.org
    \\  /    A nd           | Version:  7
     \\/     M anipulation  |
\*---------------------------------------------------------------------------*/
FoamFile
{
    version     2.0;
    format      ascii;
    class       surfaceScalarField;
    location    "0.0094";
    object      phi;
}
// * * * * * * * * * * * * * * * * * * * * * * * * * * * * * * * * * * * * * //

dimensions      [0 3 -1 0 0 0 0];

internalField   nonuniform List<scalar> 
4900
(
5.45966e-06
-5.45966e-06
9.96156e-06
-4.5019e-06
1.26992e-05
-2.73764e-06
1.44066e-05
-1.70736e-06
1.55046e-05
-1.098e-06
1.62334e-05
-7.28854e-07
1.67356e-05
-5.02198e-07
1.70942e-05
-3.58606e-07
1.73579e-05
-2.63639e-07
1.7556e-05
-1.98167e-07
1.77075e-05
-1.51454e-07
1.78247e-05
-1.17224e-07
1.79163e-05
-9.16299e-08
1.79885e-05
-7.21952e-08
1.80458e-05
-5.72544e-08
1.80914e-05
-4.56441e-08
1.8128e-05
-3.65273e-08
1.81572e-05
-2.92886e-08
1.81807e-05
-2.34676e-08
1.81994e-05
-1.87152e-08
1.82142e-05
-1.47632e-08
1.82256e-05
-1.14026e-08
1.82341e-05
-8.46729e-09
1.82399e-05
-5.821e-09
1.82432e-05
-3.3477e-09
1.82442e-05
-9.43056e-10
1.82427e-05
1.49362e-09
1.82386e-05
4.06547e-09
1.82317e-05
6.88668e-09
1.82216e-05
1.00899e-08
1.82078e-05
1.38362e-08
1.81895e-05
1.83273e-08
1.81657e-05
2.38209e-08
1.8135e-05
3.06523e-08
1.80957e-05
3.92629e-08
1.80455e-05
5.02431e-08
1.79811e-05
6.43962e-08
1.78983e-05
8.28396e-08
1.77911e-05
1.07175e-07
1.76513e-05
1.39789e-07
1.74669e-05
1.844e-07
1.72198e-05
2.47118e-07
1.68813e-05
3.38525e-07
1.64034e-05
4.7782e-07
1.57029e-05
7.00504e-07
1.46327e-05
1.07027e-06
1.29367e-05
1.69597e-06
1.01632e-05
2.77345e-06
5.56069e-06
4.60255e-06
5.56069e-06
-1.15705e-07
-5.34395e-06
1.83136e-06
-6.44896e-06
4.39481e-06
-5.3011e-06
6.67667e-06
-3.98922e-06
8.507e-06
-2.92832e-06
9.92631e-06
-2.14817e-06
1.10172e-05
-1.59304e-06
1.18568e-05
-1.19822e-06
1.25067e-05
-9.1357e-07
1.30133e-05
-7.04795e-07
1.3411e-05
-5.49112e-07
1.37251e-05
-4.31323e-07
1.39746e-05
-3.41114e-07
1.41737e-05
-2.71322e-07
1.43333e-05
-2.16846e-07
1.44616e-05
-1.73971e-07
1.4565e-05
-1.39939e-07
1.46484e-05
-1.12668e-07
1.47155e-05
-9.05696e-08
1.47692e-05
-7.24172e-08
1.48117e-05
-5.72531e-08
1.48446e-05
-4.43195e-08
1.48692e-05
-3.30056e-08
1.48861e-05
-2.28056e-08
1.48961e-05
-1.32839e-08
1.48992e-05
-4.04668e-09
1.48954e-05
5.28516e-09
1.48844e-05
1.51019e-08
1.48654e-05
2.58296e-08
1.48375e-05
3.79606e-08
1.47993e-05
5.20869e-08
1.47487e-05
6.89412e-08
1.4683e-05
8.94505e-08
1.45989e-05
1.14805e-07
1.44916e-05
1.46551e-07
1.43551e-05
1.86725e-07
1.41815e-05
2.38044e-07
1.39601e-05
3.04194e-07
1.3677e-05
3.90278e-07
1.33133e-05
5.03536e-07
1.28432e-05
6.54519e-07
1.22313e-05
8.59004e-07
1.14287e-05
1.14107e-06
1.03688e-05
1.53771e-06
8.96492e-06
2.10442e-06
7.11971e-06
2.91548e-06
4.77636e-06
4.03931e-06
2.10025e-06
5.44956e-06
7.74407e-09
6.69506e-06
5.56844e-06
-1.08508e-06
-4.25888e-06
-7.73914e-07
-6.76013e-06
5.32839e-07
-6.60785e-06
2.18717e-06
-5.64355e-06
3.81996e-06
-4.56112e-06
5.27516e-06
-3.60337e-06
6.50892e-06
-2.8268e-06
7.52869e-06
-2.21799e-06
8.36099e-06
-1.74587e-06
9.03633e-06
-1.38013e-06
9.58309e-06
-1.09588e-06
1.00256e-05
-8.73876e-07
1.03841e-05
-6.99585e-07
1.06748e-05
-5.62037e-07
1.09109e-05
-4.52912e-07
1.11028e-05
-3.65847e-07
1.12588e-05
-2.95934e-07
1.13855e-05
-2.39354e-07
1.1488e-05
-1.93117e-07
1.15704e-05
-1.54866e-07
1.16359e-05
-1.22726e-07
1.16868e-05
-9.51884e-08
1.17248e-05
-7.10197e-08
1.17512e-05
-4.91852e-08
1.17667e-05
-2.87853e-08
1.17716e-05
-8.99991e-09
1.1766e-05
1.09632e-08
1.17491e-05
3.19179e-08
1.17202e-05
5.47501e-08
1.16777e-05
8.04751e-08
1.16195e-05
1.10302e-07
1.15427e-05
1.45713e-07
1.14436e-05
1.88555e-07
1.13173e-05
2.41169e-07
1.11573e-05
3.06544e-07
1.09555e-05
3.88534e-07
1.07013e-05
4.92151e-07
1.03816e-05
6.23972e-07
9.97912e-06
7.92723e-07
9.47256e-06
1.0101e-06
8.83518e-06
1.2919e-06
8.0347e-06
1.65948e-06
7.03459e-06
2.14119e-06
5.79958e-06
2.77272e-06
4.31125e-06
3.59274e-06
2.60333e-06
4.6234e-06
8.30658e-07
5.81198e-06
-6.18388e-07
6.8986e-06
-1.0501e-06
7.12677e-06
4.51834e-06
-9.22626e-07
-3.33625e-06
-1.38321e-06
-6.29954e-06
-1.03451e-06
-6.95655e-06
-1.56613e-07
-6.52145e-06
9.58552e-07
-5.67628e-06
2.11377e-06
-4.75859e-06
3.2e-06
-3.91303e-06
4.16872e-06
-3.18671e-06
5.00639e-06
-2.58354e-06
5.71733e-06
-2.09107e-06
6.31376e-06
-1.69231e-06
6.81053e-06
-1.37064e-06
7.22239e-06
-1.11145e-06
7.56287e-06
-9.02517e-07
7.84377e-06
-7.33809e-07
8.07511e-06
-5.97187e-07
8.26525e-06
-4.86073e-07
8.42105e-06
-3.95157e-07
8.54809e-06
-3.20153e-07
8.65081e-06
-2.57592e-07
8.73275e-06
-2.04659e-07
8.7966e-06
-1.59044e-07
8.84441e-06
-1.18827e-07
8.8776e-06
-8.23732e-08
8.89706e-06
-4.82441e-08
8.90317e-06
-1.51169e-08
8.89585e-06
1.82921e-08
8.87446e-06
5.33015e-08
8.83787e-06
9.13418e-08
8.78431e-06
1.3404e-07
8.7113e-06
1.83312e-07
8.61553e-06
2.41476e-07
8.49271e-06
3.11382e-07
8.3373e-06
3.96573e-07
8.14236e-06
5.01481e-07
7.89922e-06
6.31674e-07
7.59722e-06
7.94157e-07
7.22343e-06
9.97759e-07
6.76258e-06
1.25358e-06
6.1972e-06
1.57548e-06
5.5086e-06
1.9805e-06
4.6793e-06
2.48878e-06
3.69841e-06
3.12207e-06
2.57236e-06
3.89876e-06
1.3443e-06
4.82081e-06
1.24177e-07
5.84352e-06
-8.77063e-07
6.81323e-06
-1.33677e-06
7.35831e-06
-9.3468e-07
6.72468e-06
3.58366e-06
-6.80948e-07
-2.6553e-06
-1.35867e-06
-5.62182e-06
-1.55217e-06
-6.76305e-06
-1.2748e-06
-6.79882e-06
-6.78845e-07
-6.27223e-06
8.14235e-08
-5.51886e-06
8.91421e-07
-4.72303e-06
1.67936e-06
-3.97464e-06
2.4063e-06
-3.31049e-06
3.05506e-06
-2.73982e-06
3.62151e-06
-2.25877e-06
4.10883e-06
-1.85795e-06
4.52373e-06
-1.52636e-06
4.87435e-06
-1.25314e-06
5.16897e-06
-1.02842e-06
5.41535e-06
-8.43565e-07
5.62044e-06
-6.91168e-07
5.79027e-06
-5.6499e-07
5.92993e-06
-4.59813e-07
6.04363e-06
-3.71289e-07
6.13477e-06
-2.95799e-07
6.20604e-06
-2.3031e-07
6.25946e-06
-1.72252e-07
6.29649e-06
-1.19404e-07
6.31803e-06
-6.97822e-08
6.32446e-06
-2.15456e-08
6.31565e-06
2.71028e-08
6.29094e-06
7.80094e-08
6.24911e-06
1.3317e-07
6.18832e-06
1.94834e-07
6.10601e-06
2.65622e-07
5.99883e-06
3.48658e-07
5.86249e-06
4.47714e-07
5.69168e-06
5.67385e-07
5.47989e-06
7.13275e-07
5.21936e-06
8.92207e-07
4.90107e-06
1.11244e-06
4.51497e-06
1.38386e-06
4.05043e-06
1.71812e-06
3.49745e-06
2.12845e-06
2.84885e-06
2.6291e-06
2.10418e-06
3.23345e-06
1.27632e-06
3.94993e-06
4.0169e-07
4.7734e-06
-4.46075e-07
5.66857e-06
-1.14271e-06
6.54015e-06
-1.51397e-06
7.18449e-06
-1.38049e-06
7.22484e-06
-7.09093e-07
6.05328e-06
2.87457e-06
-4.91832e-07
-2.16347e-06
-1.17599e-06
-4.93766e-06
-1.62917e-06
-6.30988e-06
-1.7412e-06
-6.68679e-06
-1.55456e-06
-6.45888e-06
-1.16072e-06
-5.91269e-06
-6.49683e-07
-5.23407e-06
-9.13781e-08
-4.53295e-06
4.66573e-07
-3.86844e-06
9.95063e-07
-3.26831e-06
1.47844e-06
-2.74214e-06
1.91005e-06
-2.28957e-06
2.28888e-06
-1.90519e-06
2.61718e-06
-1.58143e-06
2.89888e-06
-1.31013e-06
3.13862e-06
-1.08331e-06
3.34113e-06
-8.93674e-07
3.51085e-06
-7.34714e-07
3.6518e-06
-6.00756e-07
3.76742e-06
-4.86914e-07
3.86063e-06
-3.89006e-07
3.93376e-06
-3.03443e-07
3.98863e-06
-2.2712e-07
4.02653e-06
-1.57304e-07
4.04827e-06
-9.15202e-08
4.05417e-06
-2.74469e-08
4.04408e-06
3.7196e-08
4.01733e-06
1.04753e-07
3.97275e-06
1.77748e-07
3.90859e-06
2.58998e-07
3.82247e-06
3.51745e-07
3.71134e-06
4.59789e-07
3.57142e-06
5.87631e-07
3.39818e-06
7.40624e-07
3.18635e-06
9.25105e-07
2.93004e-06
1.14852e-06
2.62302e-06
1.41946e-06
2.2593e-06
1.74759e-06
1.83408e-06
2.14334e-06
1.34546e-06
2.61707e-06
7.971e-07
3.17747e-06
2.02142e-07
3.82841e-06
-4.11255e-07
4.56332e-06
-9.93351e-07
5.35549e-06
-1.46717e-06
6.14239e-06
-1.72951e-06
6.8025e-06
-1.67076e-06
7.12573e-06
-1.23219e-06
6.78627e-06
-5.23223e-07
5.34431e-06
2.35135e-06
-3.63744e-07
-1.79973e-06
-9.86806e-07
-4.3146e-06
-1.5402e-06
-5.75648e-06
-1.87759e-06
-6.34939e-06
-1.97646e-06
-6.36001e-06
-1.8751e-06
-6.01405e-06
-1.63122e-06
-5.47795e-06
-1.30028e-06
-4.86389e-06
-9.26929e-07
-4.24179e-06
-5.43444e-07
-3.6518e-06
-1.71255e-07
-3.11433e-06
1.76659e-07
-2.63748e-06
4.93399e-07
-2.22193e-06
7.76185e-07
-1.86422e-06
1.02487e-06
-1.55881e-06
1.24087e-06
-1.29931e-06
1.42643e-06
-1.07924e-06
1.58413e-06
-8.92412e-07
1.71657e-06
-7.3319e-07
1.82617e-06
-5.96512e-07
1.91507e-06
-4.77909e-07
1.98507e-06
-3.73449e-07
2.0376e-06
-2.79648e-07
2.07368e-06
-1.93385e-07
2.09395e-06
-1.11786e-07
2.09863e-06
-3.21276e-08
2.08754e-06
4.82837e-08
2.06008e-06
1.32218e-07
2.01519e-06
2.2264e-07
1.95135e-06
3.22834e-07
1.86658e-06
4.36519e-07
1.75838e-06
5.67981e-07
1.62383e-06
7.22187e-07
1.45957e-06
9.04882e-07
1.26203e-06
1.12264e-06
1.02767e-06
1.38288e-06
7.53454e-07
1.69367e-06
4.37667e-07
2.06338e-06
8.10652e-08
2.49994e-06
-3.11362e-07
3.0095e-06
-7.28006e-07
3.59411e-06
-1.14757e-06
4.24797e-06
-1.53574e-06
4.95149e-06
-1.84265e-06
5.6624e-06
-2.00378e-06
6.30352e-06
-1.94906e-06
6.74778e-06
-1.62778e-06
6.80445e-06
-1.05693e-06
6.21541e-06
-3.93524e-07
4.68091e-06
1.95782e-06
-2.79673e-07
-1.52005e-06
-8.28009e-07
-3.76626e-06
-1.40028e-06
-5.18421e-06
-1.85405e-06
-5.89562e-06
-2.13575e-06
-6.07832e-06
-2.24744e-06
-5.90236e-06
-2.21833e-06
-5.50705e-06
-2.08605e-06
-4.99617e-06
-1.88642e-06
-4.44143e-06
-1.6491e-06
-3.88912e-06
-1.39657e-06
-3.36687e-06
-1.14467e-06
-2.88938e-06
-9.03865e-07
-2.46273e-06
-6.80493e-07
-2.08759e-06
-4.77938e-07
-1.76137e-06
-2.97561e-07
-1.47969e-06
-1.39417e-07
-1.23738e-06
-2.77608e-09
-1.02905e-06
1.13502e-07
-8.49468e-07
2.10711e-07
-6.93721e-07
2.90128e-07
-5.57327e-07
3.52901e-07
-4.36221e-07
3.99971e-07
-3.26719e-07
4.32034e-07
-2.25447e-07
4.49503e-07
-1.29256e-07
4.52495e-07
-3.51193e-08
4.40811e-07
5.99679e-08
4.13929e-07
1.591e-07
3.70998e-07
2.65571e-07
3.10841e-07
3.8299e-07
2.31975e-07
5.15386e-07
1.32648e-07
6.67308e-07
1.09331e-08
8.43902e-07
-1.35126e-07
1.05094e-06
-3.07276e-07
1.2948e-06
-5.06661e-07
1.58227e-06
-7.33251e-07
1.92026e-06
-9.85012e-07
2.31514e-06
-1.25678e-06
2.7717e-06
-1.53876e-06
3.29148e-06
-1.81483e-06
3.87018e-06
-2.06071e-06
4.49385e-06
-2.24281e-06
5.13359e-06
-2.31889e-06
5.73848e-06
-2.24272e-06
6.22735e-06
-1.97589e-06
6.48095e-06
-1.51011e-06
6.33867e-06
-9.01045e-07
5.60635e-06
-3.06484e-07
4.08635e-06
1.65134e-06
-2.23108e-07
-1.29694e-06
-7.01333e-07
-3.28803e-06
-1.2541e-06
-4.63144e-06
-1.75713e-06
-5.3926e-06
-2.14632e-06
-5.68912e-06
-2.40251e-06
-5.64617e-06
-2.53381e-06
-5.37575e-06
-2.56164e-06
-4.96834e-06
-2.51138e-06
-4.49169e-06
-2.40715e-06
-3.99335e-06
-2.26937e-06
-3.50465e-06
-2.11412e-06
-3.04463e-06
-1.9533e-06
-2.62355e-06
-1.79528e-06
-2.24562e-06
-1.64561e-06
-1.91103e-06
-1.50774e-06
-1.61756e-06
-1.38358e-06
-1.36154e-06
-1.27401e-06
-1.13863e-06
-1.1792e-06
-9.44277e-07
-1.09894e-06
-7.73981e-07
-1.0328e-06
-6.23459e-07
-9.80314e-07
-4.8871e-07
-9.41022e-07
-3.66011e-07
-9.14588e-07
-2.51881e-07
-9.00827e-07
-1.43017e-07
-8.99738e-07
-3.62079e-08
-9.11522e-07
7.17513e-08
-9.36584e-07
1.84162e-07
-9.75532e-07
3.04519e-07
-1.02915e-06
4.36606e-07
-1.09834e-06
5.84579e-07
-1.18407e-06
7.53036e-07
-1.2872e-06
9.47036e-07
-1.40833e-06
1.17207e-06
-1.54746e-06
1.43392e-06
-1.70358e-06
1.73839e-06
-1.87415e-06
2.09082e-06
-2.05428e-06
2.49526e-06
-2.23585e-06
2.95328e-06
-2.4065e-06
3.46213e-06
-2.54861e-06
4.01229e-06
-2.63875e-06
4.58399e-06
-2.64815e-06
5.14299e-06
-2.54527e-06
5.63561e-06
-2.30194e-06
5.98401e-06
-1.90449e-06
6.08351e-06
-1.37087e-06
5.80505e-06
-7.71552e-07
5.00703e-06
-2.4669e-07
3.56149e-06
1.40465e-06
-1.83276e-07
-1.11367e-06
-6.00486e-07
-2.87082e-06
-1.11722e-06
-4.1147e-06
-1.62995e-06
-4.87988e-06
-2.07482e-06
-5.24425e-06
-2.42204e-06
-5.29895e-06
-2.66586e-06
-5.13193e-06
-2.81497e-06
-4.81923e-06
-2.88506e-06
-4.4216e-06
-2.89384e-06
-3.98457e-06
-2.85814e-06
-3.54034e-06
-2.79251e-06
-3.11026e-06
-2.70874e-06
-2.70733e-06
-2.61591e-06
-2.33845e-06
-2.52074e-06
-2.0062e-06
-2.428e-06
-1.7103e-06
-2.34094e-06
-1.4486e-06
-2.26164e-06
-1.21793e-06
-2.19138e-06
-1.01453e-06
-2.13087e-06
-8.34496e-07
-2.08043e-06
-6.73895e-07
-2.0402e-06
-5.28946e-07
-2.01018e-06
-3.96029e-07
-1.99038e-06
-2.71684e-07
-1.98082e-06
-1.52574e-07
-1.98161e-06
-3.54202e-08
-1.99293e-06
8.30701e-08
-2.01505e-06
2.06286e-07
-2.04832e-06
3.37792e-07
-2.09312e-06
4.81402e-07
-2.14977e-06
6.41233e-07
-2.21847e-06
8.21736e-07
-2.2991e-06
1.02767e-06
-2.39103e-06
1.26399e-06
-2.49277e-06
1.53567e-06
-2.60166e-06
1.84728e-06
-2.71327e-06
2.20244e-06
-2.82093e-06
2.60292e-06
-2.91499e-06
3.04734e-06
-2.98237e-06
3.52952e-06
-3.00621e-06
4.03613e-06
-2.96622e-06
4.544e-06
-2.84022e-06
5.01698e-06
-2.60746e-06
5.40285e-06
-2.25474e-06
5.63129e-06
-1.78548e-06
5.61425e-06
-1.23156e-06
5.25113e-06
-6.64985e-07
4.44046e-06
-2.03691e-07
3.10019e-06
1.20096e-06
-1.53828e-07
-9.59841e-07
-5.19013e-07
-2.50564e-06
-9.93924e-07
-3.63979e-06
-1.49391e-06
-4.37989e-06
-1.96027e-06
-4.77789e-06
-2.35925e-06
-4.89998e-06
-2.67687e-06
-4.81431e-06
-2.9128e-06
-4.5833e-06
-3.07477e-06
-4.25962e-06
-3.17446e-06
-3.88488e-06
-3.2246e-06
-3.4902e-06
-3.23733e-06
-3.09753e-06
-3.22329e-06
-2.72136e-06
-3.19134e-06
-2.37039e-06
-3.14853e-06
-2.04901e-06
-3.10027e-06
-1.75855e-06
-3.05061e-06
-1.49826e-06
-3.00247e-06
-1.26606e-06
-2.95793e-06
-1.05908e-06
-2.91839e-06
-8.74036e-07
-2.8848e-06
-7.0748e-07
-2.8578e-06
-5.55948e-07
-2.83779e-06
-4.16034e-07
-2.82507e-06
-2.84409e-07
-2.81984e-06
-1.57805e-07
-2.82228e-06
-3.29804e-08
-2.83255e-06
9.33395e-08
-2.85078e-06
2.2452e-07
-2.87707e-06
3.64078e-07
-2.91139e-06
5.15725e-07
-2.95356e-06
6.834e-07
-3.00307e-06
8.71254e-07
-3.05899e-06
1.08358e-06
-3.11967e-06
1.32467e-06
-3.18253e-06
1.59853e-06
-3.24371e-06
1.90846e-06
-3.29768e-06
2.25641e-06
-3.33687e-06
2.64211e-06
-3.35134e-06
3.06181e-06
-3.32862e-06
3.5068e-06
-3.254e-06
3.9615e-06
-3.11139e-06
4.40139e-06
-2.88535e-06
4.79094e-06
-2.56451e-06
5.08201e-06
-2.14677e-06
5.21355e-06
-1.64618e-06
5.11366e-06
-1.10037e-06
4.70532e-06
-5.76452e-07
3.91654e-06
-1.71252e-07
2.69499e-06
1.0297e-06
-1.31111e-07
-8.28729e-07
-4.52015e-07
-2.18473e-06
-8.84501e-07
-3.20731e-06
-1.35973e-06
-3.90466e-06
-1.82583e-06
-4.31179e-06
-2.24892e-06
-4.47689e-06
-2.6108e-06
-4.45243e-06
-2.90517e-06
-4.28893e-06
-3.1338e-06
-4.03099e-06
-3.30324e-06
-3.71545e-06
-3.4223e-06
-3.37114e-06
-3.50041e-06
-3.01942e-06
-3.54655e-06
-2.67522e-06
-3.56872e-06
-2.34823e-06
-3.57368e-06
-2.04405e-06
-3.56697e-06
-1.76526e-06
-3.55298e-06
-1.51226e-06
-3.5351e-06
-1.28395e-06
-3.51589e-06
-1.07828e-06
-3.49728e-06
-8.92648e-07
-3.48066e-06
-7.24101e-07
-3.46704e-06
-5.6957e-07
-3.45714e-06
-4.25935e-07
-3.45147e-06
-2.90077e-07
-3.45039e-06
-1.58889e-07
-3.45412e-06
-2.92498e-08
-3.46278e-06
1.02003e-07
-3.47638e-06
2.38118e-07
-3.49476e-06
3.82459e-07
-3.51757e-06
5.38537e-07
-3.54417e-06
7.10002e-07
-3.57352e-06
9.00598e-07
-3.604e-06
1.11406e-06
-3.63327e-06
1.35394e-06
-3.658e-06
1.62326e-06
-3.67365e-06
1.92411e-06
-3.67421e-06
2.25697e-06
-3.65201e-06
2.61991e-06
-3.59765e-06
3.00745e-06
-3.50015e-06
3.40931e-06
-3.3476e-06
3.80894e-06
-3.12828e-06
4.18208e-06
-2.8328e-06
4.49546e-06
-2.45716e-06
4.70637e-06
-2.00685e-06
4.76324e-06
-1.50168e-06
4.60849e-06
-9.80172e-07
4.18381e-06
-5.01957e-07
3.43832e-06
-1.45774e-07
2.33881e-06
8.83931e-07
-1.13017e-07
-7.15712e-07
-3.96122e-07
-1.90163e-06
-7.88095e-07
-2.81533e-06
-1.23286e-06
-3.45989e-06
-1.68551e-06
-3.85915e-06
-2.11403e-06
-4.04836e-06
-2.49856e-06
-4.0679e-06
-2.82923e-06
-3.95827e-06
-3.10358e-06
-3.75663e-06
-3.32413e-06
-3.4949e-06
-3.49627e-06
-3.199e-06
-3.62681e-06
-2.88888e-06
-3.72288e-06
-2.57915e-06
-3.79128e-06
-2.27983e-06
-3.83811e-06
-1.99722e-06
-3.86864e-06
-1.73474e-06
-3.88724e-06
-1.49366e-06
-3.89746e-06
-1.27372e-06
-3.90214e-06
-1.07361e-06
-3.90346e-06
-8.91325e-07
-3.90312e-06
-7.24444e-07
-3.90238e-06
-5.70308e-07
-3.90218e-06
-4.26131e-07
-3.9032e-06
-2.89063e-07
-3.90587e-06
-1.56216e-07
-3.91046e-06
-2.46619e-08
-3.91703e-06
1.08578e-07
-3.92547e-06
2.46556e-07
-3.93543e-06
3.92413e-07
-3.94626e-06
5.49375e-07
-3.95699e-06
7.20732e-07
-3.96616e-06
9.09763e-07
-3.97171e-06
1.11961e-06
-3.97083e-06
1.35307e-06
-3.95983e-06
1.61225e-06
-3.93389e-06
1.89817e-06
-3.88705e-06
2.21013e-06
-3.81209e-06
2.54495e-06
-3.70069e-06
2.89605e-06
-3.54381e-06
3.25243e-06
-3.33246e-06
3.5976e-06
-3.05898e-06
3.90859e-06
-2.71892e-06
4.15541e-06
-2.31366e-06
4.30111e-06
-1.85346e-06
4.30304e-06
-1.36059e-06
4.11562e-06
-8.71773e-07
3.695e-06
-4.38673e-07
3.00522e-06
-1.25177e-07
2.02531e-06
7.58754e-07
-9.82977e-08
-6.17414e-07
-3.49076e-07
-1.65085e-06
-7.03653e-07
-2.46076e-06
-1.11611e-06
-3.04744e-06
-1.54792e-06
-3.42734e-06
-1.96982e-06
-3.62645e-06
-2.36188e-06
-3.67585e-06
-2.7123e-06
-3.60784e-06
-3.01586e-06
-3.45308e-06
-3.27202e-06
-3.23874e-06
-3.48341e-06
-2.9876e-06
-3.65449e-06
-2.71779e-06
-3.79058e-06
-2.44306e-06
-3.89717e-06
-2.17324e-06
-3.97949e-06
-1.9149e-06
-4.04228e-06
-1.67195e-06
-4.08965e-06
-1.44628e-06
-4.12509e-06
-1.23828e-06
-4.15147e-06
-1.04724e-06
-4.17109e-06
-8.71704e-07
-4.18579e-06
-7.09743e-07
-4.19698e-06
-5.59111e-07
-4.20574e-06
-4.17373e-07
-4.21283e-06
-2.81978e-07
-4.21874e-06
-1.50303e-07
-4.22374e-06
-1.96629e-08
-4.22785e-06
1.12686e-07
-4.23084e-06
2.49545e-07
-4.2322e-06
3.93775e-07
-4.2311e-06
5.48273e-07
-4.22629e-06
7.15926e-07
-4.21606e-06
8.9953e-07
-4.19808e-06
1.10163e-06
-4.16935e-06
1.32433e-06
-4.12605e-06
1.56895e-06
-4.06348e-06
1.83561e-06
-3.97605e-06
2.12271e-06
-3.85738e-06
2.42627e-06
-3.7005e-06
2.73917e-06
-3.49842e-06
3.05035e-06
-3.24491e-06
3.34409e-06
-2.93574e-06
3.59941e-06
-2.57028e-06
3.78995e-06
-2.15359e-06
3.88442e-06
-1.69856e-06
3.848e-06
-1.22789e-06
3.64495e-06
-7.75216e-07
3.24233e-06
-3.84677e-07
2.61468e-06
-1.08232e-07
1.74887e-06
6.50522e-07
-8.61839e-08
-5.3123e-07
-3.09343e-07
-1.42769e-06
-6.30187e-07
-2.13991e-06
-1.01082e-06
-2.6668e-06
-1.4183e-06
-3.01985e-06
-1.82637e-06
-3.21838e-06
-2.21587e-06
-3.28635e-06
-2.57424e-06
-3.24947e-06
-2.89449e-06
-3.13282e-06
-3.17398e-06
-2.95926e-06
-3.41315e-06
-2.74843e-06
-3.61449e-06
-2.51646e-06
-3.78166e-06
-2.27588e-06
-3.91888e-06
-2.03603e-06
-4.03043e-06
-1.80335e-06
-4.12037e-06
-1.582e-06
-4.19243e-06
-1.37423e-06
-4.24983e-06
-1.18088e-06
-4.29534e-06
-1.00173e-06
-4.33126e-06
-8.35789e-07
-4.35944e-06
-6.81567e-07
-4.38134e-06
-5.37204e-07
-4.3981e-06
-4.00616e-07
-4.41051e-06
-2.69568e-07
-4.41909e-06
-1.41721e-07
-4.42409e-06
-1.46644e-08
-4.42548e-06
1.14074e-07
-4.42295e-06
2.47013e-07
-4.41587e-06
3.86698e-07
-4.40327e-06
5.35674e-07
-4.38376e-06
6.96418e-07
-4.35548e-06
8.71247e-07
-4.31601e-06
1.06216e-06
-4.26233e-06
1.27065e-06
-4.19074e-06
1.49736e-06
-4.09688e-06
1.74175e-06
-3.9758e-06
2.00162e-06
-3.82209e-06
2.27256e-06
-3.63025e-06
2.54734e-06
-3.39525e-06
2.81535e-06
-3.11326e-06
3.0621e-06
-2.7828e-06
3.26895e-06
-2.40605e-06
3.41321e-06
-1.9904e-06
3.46876e-06
-1.5499e-06
3.40751e-06
-1.10646e-06
3.20151e-06
-6.90216e-07
2.82608e-06
-3.38632e-07
2.2631e-06
-9.41769e-08
1.50441e-06
5.56345e-07
-7.61717e-08
-4.55059e-07
-2.75829e-07
-1.22804e-06
-5.66802e-07
-1.84894e-06
-9.17521e-07
-2.31608e-06
-1.29978e-06
-2.6376e-06
-1.69021e-06
-2.82795e-06
-2.07089e-06
-2.90568e-06
-2.42916e-06
-2.8912e-06
-2.75709e-06
-2.8049e-06
-3.05056e-06
-2.66579e-06
-3.30839e-06
-2.4906e-06
-3.53148e-06
-2.29337e-06
-3.72207e-06
-2.08529e-06
-3.8832e-06
-1.8749e-06
-4.0182e-06
-1.66835e-06
-4.13045e-06
-1.46975e-06
-4.22315e-06
-1.28152e-06
-4.29922e-06
-1.10482e-06
-4.36119e-06
-9.39754e-07
-4.41124e-06
-7.85737e-07
-4.45117e-06
-6.41633e-07
-4.48243e-06
-5.05943e-07
-4.50613e-06
-3.76915e-07
-4.52308e-06
-2.52626e-07
-4.53376e-06
-1.31032e-07
-4.53842e-06
-1.00099e-08
-4.53697e-06
1.12623e-07
-4.52904e-06
2.39083e-07
-4.51393e-06
3.71592e-07
-4.49059e-06
5.12336e-07
-4.45757e-06
6.63395e-07
-4.41297e-06
8.26641e-07
-4.35439e-06
1.00359e-06
-4.27896e-06
1.19522e-06
-4.18326e-06
1.40166e-06
-4.06341e-06
1.6219e-06
-3.9152e-06
1.85341e-06
-3.73428e-06
2.09164e-06
-3.51656e-06
2.32962e-06
-3.25873e-06
2.55752e-06
-2.95899e-06
2.76236e-06
-2.61796e-06
2.92793e-06
-2.23977e-06
3.03501e-06
-1.83311e-06
3.06211e-06
-1.4123e-06
2.98669e-06
-9.97821e-07
2.78704e-06
-6.16307e-07
2.44457e-06
-2.9955e-07
1.94634e-06
-8.25039e-08
1.28737e-06
4.73841e-07
-6.79068e-08
-3.87152e-07
-2.47707e-07
-1.04824e-06
-5.12662e-07
-1.58398e-06
-8.36191e-07
-1.99256e-06
-1.19401e-06
-2.27978e-06
-1.5654e-06
-2.45656e-06
-1.93379e-06
-2.53728e-06
-2.28688e-06
-2.5381e-06
-2.61627e-06
-2.47551e-06
-2.91692e-06
-2.36515e-06
-3.18645e-06
-2.22107e-06
-3.42454e-06
-2.05528e-06
-3.63224e-06
-1.87758e-06
-3.81154e-06
-1.6956e-06
-3.96493e-06
-1.51496e-06
-4.09509e-06
-1.33959e-06
-4.20469e-06
-1.17192e-06
-4.29626e-06
-1.01325e-06
-4.37207e-06
-8.63947e-07
-4.43411e-06
-7.23697e-07
-4.48406e-06
-5.9168e-07
-4.5233e-06
-4.66706e-07
-4.55288e-06
-3.47331e-07
-4.57358e-06
-2.31929e-07
-4.58586e-06
-1.1875e-07
-4.58991e-06
-5.95707e-09
-4.58563e-06
1.08337e-07
-4.57259e-06
2.26043e-07
-4.55006e-06
3.49064e-07
-4.51696e-06
4.79237e-07
-4.47184e-06
6.18271e-07
-4.41284e-06
7.67644e-07
-4.33771e-06
9.28465e-07
-4.24378e-06
1.10129e-06
-4.12802e-06
1.2859e-06
-3.98711e-06
1.48099e-06
-3.81761e-06
1.68391e-06
-3.6162e-06
1.89023e-06
-3.38006e-06
2.09348e-06
-3.10736e-06
2.28482e-06
-2.79791e-06
2.4529e-06
-2.45387e-06
2.58389e-06
-2.08063e-06
2.66177e-06
-1.68754e-06
2.66902e-06
-1.28857e-06
2.58772e-06
-9.02548e-07
2.40101e-06
-5.52886e-07
2.0949e-06
-2.6664e-07
1.6601e-06
-7.28459e-08
1.09357e-06
4.00995e-07
-6.11221e-08
-3.2603e-07
-2.24305e-07
-8.85052e-07
-4.66972e-07
-1.34132e-06
-7.66453e-07
-1.69307e-06
-1.10168e-06
-1.94455e-06
-1.45422e-06
-2.10402e-06
-1.8089e-06
-2.18261e-06
-2.15393e-06
-2.19308e-06
-2.4808e-06
-2.14863e-06
-2.78391e-06
-2.06203e-06
-3.06007e-06
-1.94491e-06
-3.30798e-06
-1.80737e-06
-3.52778e-06
-1.65779e-06
-3.72056e-06
-1.50281e-06
-3.88805e-06
-1.34748e-06
-4.03228e-06
-1.19535e-06
-4.15543e-06
-1.04877e-06
-4.25962e-06
-9.09065e-07
-4.34682e-06
-7.76744e-07
-4.41881e-06
-6.51703e-07
-4.47713e-06
-5.33367e-07
-4.52302e-06
-4.20814e-07
-4.55748e-06
-3.12874e-07
-4.58121e-06
-2.08198e-07
-4.59464e-06
-1.05315e-07
-4.59793e-06
-2.67281e-09
-4.59092e-06
1.0133e-07
-4.57319e-06
2.0831e-07
-4.54398e-06
3.19856e-07
-4.50223e-06
4.37487e-07
-4.44653e-06
5.62576e-07
-4.37515e-06
6.96259e-07
-4.286e-06
8.39313e-07
-4.1767e-06
9.91992e-07
-4.04463e-06
1.15383e-06
-3.88706e-06
1.32342e-06
-3.70128e-06
1.49813e-06
-3.48493e-06
1.67387e-06
-3.23626e-06
1.84481e-06
-2.95468e-06
2.00324e-06
-2.64121e-06
2.13943e-06
-2.29914e-06
2.24181e-06
-1.93459e-06
2.29723e-06
-1.55714e-06
2.29157e-06
-1.18009e-06
2.21067e-06
-8.20595e-07
2.04152e-06
-4.99247e-07
1.77356e-06
-2.3922e-07
1.40007e-06
-6.49164e-08
9.19268e-07
3.36079e-07
-5.56055e-08
-2.70424e-07
-2.0506e-07
-7.35598e-07
-4.28964e-07
-1.11741e-06
-7.07705e-07
-1.41433e-06
-1.0228e-06
-1.62945e-06
-1.35778e-06
-1.76904e-06
-1.69871e-06
-1.84168e-06
-2.03442e-06
-1.85736e-06
-2.35651e-06
-1.82655e-06
-2.65905e-06
-1.7595e-06
-2.93828e-06
-1.66568e-06
-3.19222e-06
-1.55342e-06
-3.42026e-06
-1.42975e-06
-3.62278e-06
-1.3003e-06
-3.80084e-06
-1.16942e-06
-3.95592e-06
-1.04027e-06
-4.08972e-06
-9.14976e-07
-4.20398e-06
-7.94808e-07
-4.30038e-06
-6.80342e-07
-4.38047e-06
-5.71609e-07
-4.44562e-06
-4.68223e-07
-4.49694e-06
-3.69485e-07
-4.53535e-06
-2.74465e-07
-4.56148e-06
-1.82069e-07
-4.57571e-06
-9.10882e-08
-4.57814e-06
-2.37023e-10
-4.56862e-06
9.18107e-08
-4.5467e-06
1.86389e-07
-4.51165e-06
2.84799e-07
-4.46242e-06
3.88265e-07
-4.39772e-06
4.97867e-07
-4.31591e-06
6.14456e-07
-4.21515e-06
7.38551e-07
-4.09335e-06
8.70196e-07
-3.94832e-06
1.0088e-06
-3.77786e-06
1.15296e-06
-3.57997e-06
1.30024e-06
-3.35306e-06
1.44697e-06
-3.09635e-06
1.5881e-06
-2.81017e-06
1.71706e-06
-2.49648e-06
1.82574e-06
-2.15931e-06
1.90464e-06
-1.80522e-06
1.94314e-06
-1.44368e-06
1.93002e-06
-1.08724e-06
1.85424e-06
-7.51486e-07
1.70576e-06
-4.54617e-07
1.47669e-06
-2.16682e-07
1.16213e-06
-5.84788e-08
7.61065e-07
2.776e-07
-5.1183e-08
-2.19241e-07
-1.89482e-07
-5.97298e-07
-3.97914e-07
-9.0898e-07
-6.59226e-07
-1.15302e-06
-9.56994e-07
-1.33169e-06
-1.27635e-06
-1.44969e-06
-1.60446e-06
-1.51358e-06
-1.93077e-06
-1.53104e-06
-2.24706e-06
-1.51026e-06
-2.54727e-06
-1.45929e-06
-2.82727e-06
-1.38567e-06
-3.08458e-06
-1.29611e-06
-3.31801e-06
-1.19632e-06
-3.52737e-06
-1.09094e-06
-3.71318e-06
-9.83608e-07
-3.87645e-06
-8.77004e-07
-4.01845e-06
-7.72978e-07
-4.14058e-06
-6.72676e-07
-4.24425e-06
-5.76668e-07
-4.3308e-06
-4.85064e-07
-4.4014e-06
-3.97617e-07
-4.45708e-06
-3.1381e-07
-4.49862e-06
-2.32923e-07
-4.5266e-06
-1.54091e-07
-4.54134e-06
-7.63454e-08
-4.54292e-06
1.3466e-09
-4.53117e-06
8.00536e-08
-4.50562e-06
1.60846e-07
-4.46559e-06
2.44762e-07
-4.41008e-06
3.3276e-07
-4.33788e-06
4.25668e-07
-4.24753e-06
5.24107e-07
-4.13739e-06
6.28403e-07
-4.00566e-06
7.38474e-07
-3.85056e-06
8.53698e-07
-3.67037e-06
9.7277e-07
-3.46368e-06
1.09354e-06
-3.2296e-06
1.21289e-06
-2.96807e-06
1.32657e-06
-2.68017e-06
1.42916e-06
-2.36853e-06
1.51411e-06
-2.03767e-06
1.57378e-06
-1.69434e-06
1.59981e-06
-1.34777e-06
1.58345e-06
-1.00975e-06
1.51621e-06
-6.94483e-07
1.3905e-06
-4.18199e-07
1.2004e-06
-1.98474e-07
9.42409e-07
-5.33322e-08
6.15923e-07
2.24268e-07
-4.77109e-08
-1.7153e-07
-1.77154e-07
-4.67855e-07
-3.73153e-07
-7.1298e-07
-6.20257e-07
-9.05919e-07
-9.03635e-07
-1.04831e-06
-1.2097e-06
-1.14362e-06
-1.52655e-06
-1.19673e-06
-1.84418e-06
-1.21341e-06
-2.15459e-06
-1.19985e-06
-2.45168e-06
-1.1622e-06
-2.73111e-06
-1.10625e-06
-2.99002e-06
-1.0372e-06
-3.22681e-06
-9.59532e-07
-3.44083e-06
-8.76914e-07
-3.63219e-06
-7.92249e-07
-3.80149e-06
-7.07708e-07
-3.94965e-06
-6.24814e-07
-4.07779e-06
-5.44537e-07
-4.18707e-06
-4.67388e-07
-4.27862e-06
-3.93511e-07
-4.35349e-06
-3.22755e-07
-4.41255e-06
-2.54751e-07
-4.45651e-06
-1.88959e-07
-4.48588e-06
-1.24721e-07
-4.50094e-06
-6.12886e-08
-4.50173e-06
2.13721e-09
-4.48806e-06
6.63847e-08
-4.45949e-06
1.32281e-07
-4.41535e-06
2.00622e-07
-4.35473e-06
2.72135e-07
-4.27649e-06
3.47431e-07
-4.17933e-06
4.26949e-07
-4.06181e-06
5.10878e-07
-3.92241e-06
5.99076e-07
-3.75968e-06
6.90964e-07
-3.57233e-06
7.85419e-07
-3.35944e-06
8.80655e-07
-3.12067e-06
9.74126e-07
-2.85654e-06
1.06244e-06
-2.56869e-06
1.14131e-06
-2.26021e-06
1.20562e-06
-1.93593e-06
1.24949e-06
-1.60264e-06
1.26652e-06
-1.2693e-06
1.25011e-06
-9.46974e-07
1.19389e-06
-6.4873e-07
1.09225e-06
-3.89218e-07
9.4089e-07
-1.84101e-07
7.37292e-07
-4.93058e-08
4.81128e-07
1.74962e-07
-4.50716e-08
-1.26459e-07
-1.67721e-07
-3.45206e-07
-3.54096e-07
-5.26606e-07
-5.90073e-07
-6.69941e-07
-8.62028e-07
-7.76352e-07
-1.15736e-06
-8.48285e-07
-1.4649e-06
-8.89197e-07
-1.7751e-06
-9.0321e-07
-2.08019e-06
-8.94761e-07
-2.37409e-06
-8.68295e-07
-2.65231e-06
-8.28024e-07
-2.91176e-06
-7.77754e-07
-3.15052e-06
-7.20774e-07
-3.36762e-06
-6.59815e-07
-3.56282e-06
-5.97045e-07
-3.73643e-06
-5.34103e-07
-3.88909e-06
-4.72156e-07
-4.02166e-06
-4.11959e-07
-4.13512e-06
-3.53928e-07
-4.23044e-06
-2.98199e-07
-4.3085e-06
-2.44689e-07
-4.37011e-06
-1.93145e-07
-4.41588e-06
-1.43187e-07
-4.44626e-06
-9.43379e-08
-4.4615e-06
-4.60559e-08
-4.4616e-06
2.24272e-09
-4.44638e-06
5.11623e-08
-4.4154e-06
1.01305e-07
-4.36803e-06
1.53247e-07
-4.3034e-06
2.07508e-07
-4.22049e-06
2.64517e-07
-4.1181e-06
3.24567e-07
-3.99499e-06
3.87761e-07
-3.84986e-06
4.53947e-07
-3.68154e-06
5.22646e-07
-3.48909e-06
5.9297e-07
-3.27198e-06
6.63546e-07
-3.0303e-06
7.32443e-07
-2.76498e-06
7.97121e-07
-2.47808e-06
8.54411e-07
-2.173e-06
9.00544e-07
-1.85474e-06
9.31241e-07
-1.5301e-06
9.4188e-07
-1.20772e-06
9.2773e-07
-8.98095e-07
8.84264e-07
-6.13363e-07
8.07521e-07
-3.66967e-07
6.94495e-07
-1.73138e-07
5.43464e-07
-4.6257e-08
3.54247e-07
1.28705e-07
-4.31725e-08
-8.3286e-08
-1.60899e-07
-2.27479e-07
-3.40249e-07
-3.47256e-07
-5.68038e-07
-4.42153e-07
-8.315e-07
-5.1289e-07
-1.11875e-06
-5.6103e-07
-1.41916e-06
-5.88789e-07
-1.72356e-06
-5.98817e-07
-2.02434e-06
-5.93981e-07
-2.31547e-06
-5.77166e-07
-2.59237e-06
-5.51115e-07
-2.85181e-06
-5.18319e-07
-3.09164e-06
-4.80941e-07
-3.31067e-06
-4.40786e-07
-3.50842e-06
-3.99295e-07
-3.68496e-06
-3.57566e-07
-3.84073e-06
-3.16385e-07
-3.97642e-06
-2.76271e-07
-4.09283e-06
-2.37512e-07
-4.19082e-06
-2.00216e-07
-4.27116e-06
-1.6434e-07
-4.33458e-06
-1.29727e-07
-4.38163e-06
-9.6135e-08
-4.41272e-06
-6.3255e-08
-4.42804e-06
-3.07348e-08
-4.4276e-06
1.80684e-09
-4.4112e-06
3.47642e-08
-4.37843e-06
6.85298e-08
-4.32866e-06
1.03477e-07
-4.26109e-06
1.39941e-07
-4.17477e-06
1.78192e-07
-4.06861e-06
2.18409e-07
-3.94149e-06
2.60642e-07
-3.79231e-06
3.04768e-07
-3.62011e-06
3.50447e-07
-3.42421e-06
3.97067e-07
-3.20436e-06
4.43697e-07
-2.96096e-06
4.89043e-07
-2.69526e-06
5.31415e-07
-2.40956e-06
5.6872e-07
-2.10751e-06
5.98486e-07
-1.79419e-06
6.17921e-07
-1.47633e-06
6.24028e-07
-1.16236e-06
6.13755e-07
-8.62292e-07
5.84196e-07
-5.87597e-07
5.32826e-07
-3.50841e-07
4.57739e-07
-1.65233e-07
3.57856e-07
-4.40711e-08
2.33085e-07
8.46341e-08
-4.19445e-08
-4.13414e-08
-1.56472e-07
-1.12951e-07
-3.31234e-07
-1.72495e-07
-5.53644e-07
-2.19743e-07
-8.11487e-07
-2.55047e-07
-1.09335e-06
-2.79167e-07
-1.38895e-06
-2.93185e-07
-1.68937e-06
-2.98399e-07
-1.98714e-06
-2.96216e-07
-2.27625e-06
-2.88054e-07
-2.5521e-06
-2.75266e-07
-2.81133e-06
-2.59082e-07
-3.0517e-06
-2.40576e-07
-3.27184e-06
-2.20645e-07
-3.47113e-06
-2.00009e-07
-3.64948e-06
-1.79216e-07
-3.8072e-06
-1.58663e-07
-3.94486e-06
-1.38613e-07
-4.06315e-06
-1.19214e-07
-4.16285e-06
-1.00525e-07
-4.24466e-06
-8.25278e-08
-4.30924e-06
-6.51478e-08
-4.35711e-06
-4.82668e-08
-4.38863e-06
-3.17337e-08
-4.40399e-06
-1.53749e-08
-4.40318e-06
9.97661e-10
-4.38599e-06
1.75786e-08
-4.35202e-06
3.45613e-08
-4.30068e-06
5.21293e-08
-4.23118e-06
7.04462e-08
-4.14263e-06
8.96433e-08