/*--------------------------------*- C++ -*----------------------------------*\
  =========                 |
  \\      /  F ield         | OpenFOAM: The Open Source CFD Toolbox
   \\    /   O peration     | Website:  https://openfoam.org
    \\  /    A nd           | Version:  7
     \\/     M anipulation  |
\*---------------------------------------------------------------------------*/
FoamFile
{
    version     2.0;
    format      ascii;
    class       volVectorField;
    location    "0.0106";
    object      U;
}
// * * * * * * * * * * * * * * * * * * * * * * * * * * * * * * * * * * * * * //

dimensions      [0 1 -1 0 0 0 0];

internalField   nonuniform List<vector> 
2500
(
(2.29016e-05 -2.29274e-05 0)
(4.80638e-05 -1.46865e-05 0)
(2.05774e-05 8.59982e-06 0)
(-7.17675e-05 3.20535e-05 0)
(-0.000225358 5.19975e-05 0)
(-0.000429782 6.74981e-05 0)
(-0.000673841 7.87779e-05 0)
(-0.000946764 8.64045e-05 0)
(-0.0012389 9.09721e-05 0)
(-0.00154186 9.30153e-05 0)
(-0.00184852 9.29939e-05 0)
(-0.00215289 9.12948e-05 0)
(-0.00244998 8.82395e-05 0)
(-0.00273571 8.40911e-05 0)
(-0.00300668 7.90623e-05 0)
(-0.00326015 7.33232e-05 0)
(-0.00349386 6.70086e-05 0)
(-0.00370596 6.02256e-05 0)
(-0.00389493 5.3059e-05 0)
(-0.00405954 4.55777e-05 0)
(-0.00419875 3.78383e-05 0)
(-0.00431175 2.98891e-05 0)
(-0.00439788 2.17733e-05 0)
(-0.00445661 1.35302e-05 0)
(-0.00448759 5.1979e-06 0)
(-0.00449059 -3.18603e-06 0)
(-0.00446549 -1.15834e-05 0)
(-0.00441236 -1.99547e-05 0)
(-0.00433137 -2.82577e-05 0)
(-0.00422288 -3.64464e-05 0)
(-0.0040874 -4.44696e-05 0)
(-0.00392565 -5.22686e-05 0)
(-0.00373855 -5.97747e-05 0)
(-0.00352732 -6.69058e-05 0)
(-0.00329347 -7.35624e-05 0)
(-0.00303887 -7.96223e-05 0)
(-0.00276588 -8.49353e-05 0)
(-0.00247738 -8.93168e-05 0)
(-0.00217691 -9.25416e-05 0)
(-0.00186877 -9.43374e-05 0)
(-0.00155815 -9.43771e-05 0)
(-0.00125128 -9.22727e-05 0)
(-0.000955496 -8.75695e-05 0)
(-0.00067938 -7.97442e-05 0)
(-0.000432741 -6.82202e-05 0)
(-0.000226446 -5.2453e-05 0)
(-7.17163e-05 -3.22484e-05 0)
(2.11001e-05 -8.57746e-06 0)
(4.85029e-05 1.48324e-05 0)
(2.30853e-05 2.30389e-05 0)
(1.49361e-05 -4.81646e-05 0)
(-1.45136e-05 1.51243e-05 0)
(-0.000174133 0.000128909 0)
(-0.000475627 0.000246212 0)
(-0.000912399 0.000350623 0)
(-0.00146688 0.000436021 0)
(-0.00211658 0.000501267 0)
(-0.00283803 0.000547485 0)
(-0.00360881 0.000576659 0)
(-0.00440859 0.000591009 0)
(-0.00521939 0.000592714 0)
(-0.00602571 0.000583783 0)
(-0.00681436 0.000565998 0)
(-0.00757425 0.000540896 0)
(-0.00829614 0.000509777 0)
(-0.00897239 0.000473721 0)
(-0.00959665 0.000433617 0)
(-0.0101637 0.000390192 0)
(-0.0106693 0.00034404 0)
(-0.0111099 0.000295652 0)
(-0.0114825 0.000245441 0)
(-0.0117849 0.000193763 0)
(-0.0120153 0.000140934 0)
(-0.0121721 8.72424e-05 0)
(-0.0122544 3.2964e-05 0)
(-0.0122616 -2.16316e-05 0)
(-0.0121934 -7.62723e-05 0)
(-0.0120501 -0.000130677 0)
(-0.0118321 -0.000184546 0)
(-0.0115406 -0.000237554 0)
(-0.011177 -0.000289338 0)
(-0.0107434 -0.000339486 0)
(-0.0102424 -0.000387517 0)
(-0.00967759 -0.000432867 0)
(-0.00905317 -0.000474859 0)
(-0.00837445 -0.000512685 0)
(-0.00764798 -0.000545374 0)
(-0.00688171 -0.000571769 0)
(-0.00608526 -0.000590505 0)
(-0.00527017 -0.000599997 0)
(-0.00445013 -0.000598434 0)
(-0.00364117 -0.000583808 0)
(-0.00286175 -0.000553969 0)
(-0.00213266 -0.00050676 0)
(-0.00147664 -0.000440289 0)
(-0.000917389 -0.000353551 0)
(-0.000477441 -0.000247829 0)
(-0.000174248 -0.000129404 0)
(-1.41716e-05 -1.4874e-05 0)
(1.51035e-05 4.86242e-05 0)
(-7.68594e-06 -2.17045e-05 0)
(-0.000126645 0.000174114 0)
(-0.000450658 0.000452906 0)
(-0.000972345 0.000738287 0)
(-0.00167797 0.000996487 0)
(-0.00254554 0.00121229 0)
(-0.00354598 0.00138071 0)
(-0.00464792 0.00150243 0)
(-0.00582062 0.00158086 0)
(-0.00703539 0.00162064 0)
(-0.00826639 0.00162674 0)
(-0.00949088 0.00160403 0)
(-0.0106892 0.00155699 0)
(-0.0118447 0.00148959 0)
(-0.0129432 0.00140528 0)
(-0.0139729 0.00130699 0)
(-0.014924 0.00119715 0)
(-0.0157884 0.00107781 0)
(-0.0165593 0.000950652 0)
(-0.0172311 0.000817079 0)
(-0.0177995 0.000678287 0)
(-0.0182606 0.000535309 0)
(-0.0186117 0.000389061 0)
(-0.0188504 0.000240385 0)
(-0.0189753 9.00785e-05 0)
(-0.0189854 -6.10808e-05 0)
(-0.0188805 -0.00021231 0)
(-0.0186607 -0.0003628 0)
(-0.0183271 -0.000511693 0)
(-0.0178813 -0.000658054 0)
(-0.0173257 -0.000800846 0)
(-0.0166636 -0.000938889 0)
(-0.0158993 -0.00107082 0)
(-0.0150382 -0.00119504 0)
(-0.014087 -0.00130966 0)
(-0.013054 -0.00141244 0)
(-0.0119492 -0.00150073 0)
(-0.010785 -0.00157141 0)
(-0.00957586 -0.00162088 0)
(-0.00833924 -0.00164504 0)
(-0.00709544 -0.00163935 0)
(-0.0058679 -0.00159895 0)
(-0.00468315 -0.00151894 0)
(-0.00357047 -0.00139485 0)
(-0.00256107 -0.00122347 0)
(-0.00168662 -0.00100444 0)
(-0.000976248 -0.000743073 0)
(-0.00045181 -0.00045496 0)
(-0.000126682 -0.000174251 0)
(-7.59029e-06 2.23335e-05 0)
(-3.05268e-05 6.85697e-05 0)
(-0.000243238 0.000474442 0)
(-0.000737313 0.000974592 0)
(-0.00147673 0.0014746 0)
(-0.0024362 0.00192686 0)
(-0.00358848 0.00230748 0)
(-0.00489917 0.00260722 0)
(-0.00633126 0.00282579 0)
(-0.00784818 0.00296781 0)
(-0.00941542 0.00304041 0)
(-0.0110014 0.00305172 0)
(-0.0125781 0.00300999 0)
(-0.0141208 0.00292302 0)
(-0.0156086 0.00279788 0)
(-0.0170232 0.0026408 0)
(-0.0183497 0.00245715 0)
(-0.0195753 0.00225148 0)
(-0.0206893 0.00202759 0)
(-0.021683 0.0017887 0)
(-0.0225491 0.00153749 0)
(-0.0232818 0.00127626 0)
(-0.0238761 0.001007 0)
(-0.0243284 0.000731501 0)
(-0.0246357 0.000451382 0)
(-0.024796 0.000168186 0)
(-0.0248082 -0.000116583 0)
(-0.0246719 -0.000401418 0)
(-0.0243874 -0.000684758 0)
(-0.0239562 -0.000964954 0)
(-0.0233803 -0.00124021 0)
(-0.0226631 -0.00150854 0)
(-0.0218088 -0.00176768 0)
(-0.020823 -0.00201503 0)
(-0.019713 -0.00224756 0)
(-0.0184873 -0.00246172 0)
(-0.0171569 -0.00265331 0)
(-0.0157348 -0.00281742 0)
(-0.0142366 -0.00294838 0)
(-0.0126809 -0.00303966 0)
(-0.0110898 -0.00308398 0)
(-0.00948843 -0.00307344 0)
(-0.00790591 -0.00299981 0)
(-0.00637453 -0.0028551 0)
(-0.00492953 -0.00263244 0)
(-0.00360801 -0.00232761 0)
(-0.00244736 -0.00194142 0)
(-0.00148205 -0.00148369 0)
(-0.00073914 -0.000978941 0)
(-0.000243497 -0.000475379 0)
(-3.04626e-05 -6.79835e-05 0)
(-5.02497e-05 0.000219897 0)
(-0.000349824 0.000912531 0)
(-0.00100533 0.00168543 0)
(-0.00195032 0.00243729 0)
(-0.00314556 0.00311228 0)
(-0.00455719 0.00368042 0)
(-0.00614542 0.00412921 0)
(-0.00786833 0.00445758 0)
(-0.00968483 0.0046714 0)
(-0.011556 0.00478033 0)
(-0.0134462 0.0047958 0)
(-0.0153232 0.00472969 0)
(-0.0171587 0.00459346 0)
(-0.0189281 0.00439767 0)
(-0.0206105 0.00415177 0)
(-0.022188 0.00386394 0)
(-0.0236454 0.00354123 0)
(-0.0249703 0.00318959 0)
(-0.0261522 0.00281406 0)
(-0.0271822 0.0024189 0)
(-0.0280535 0.00200779 0)
(-0.0287601 0.00158389 0)
(-0.0292976 0.00115008 0)
(-0.0296626 0.00070895 0)
(-0.0298527 0.000262978 0)
(-0.0298665 -0.000185431 0)
(-0.0297035 -0.000633865 0)
(-0.0293642 -0.00107983 0)
(-0.0288504 -0.0015207 0)
(-0.0281646 -0.0019536 0)
(-0.0273107 -0.00237537 0)
(-0.0262939 -0.00278242 0)
(-0.0251211 -0.00317064 0)
(-0.0238006 -0.00353524 0)
(-0.022343 -0.00387066 0)
(-0.0207611 -0.00417038 0)
(-0.0190702 -0.00442684 0)
(-0.0172889 -0.00463133 0)
(-0.0154389 -0.00477402 0)
(-0.0135455 -0.00484403 0)
(-0.0116381 -0.00482976 0)
(-0.00974965 -0.00471934 0)
(-0.00791685 -0.00450155 0)
(-0.00617939 -0.00416713 0)
(-0.00457899 -0.00371084 0)
(-0.00315794 -0.00313447 0)
(-0.00195615 -0.0024514 0)
(-0.00100728 -0.0016925 0)
(-0.00035006 -0.000914494 0)
(-5.01639e-05 -0.000219431 0)
(-6.62499e-05 0.000423879 0)
(-0.000442069 0.00147629 0)
(-0.00124403 0.00257218 0)
(-0.0023774 0.00361101 0)
(-0.0037886 0.00453386 0)
(-0.00543622 0.00530776 0)
(-0.00727459 0.00591862 0)
(-0.00925702 0.00636547 0)
(-0.0113384 0.00665578 0)
(-0.0134762 0.00680198 0)
(-0.0156313 0.006819 0)
(-0.0177684 0.00672256 0)
(-0.0198565 0.00652804 0)
(-0.0218682 0.00624976 0)
(-0.0237802 0.00590066 0)
(-0.0255725 0.00549208 0)
(-0.0272282 0.00503383 0)
(-0.0287331 0.00453428 0)
(-0.0300753 0.00400056 0)
(-0.0312451 0.00343876 0)
(-0.0322343 0.0028541 0)
(-0.0330366 0.00225115 0)
(-0.0336467 0.00163403 0)
(-0.0340607 0.00100647 0)
(-0.0342761 0.000372033 0)
(-0.0342912 -0.000265821 0)
(-0.0341055 -0.000903628 0)
(-0.0337197 -0.00153781 0)
(-0.0331356 -0.0021646 0)
(-0.0323562 -0.00277989 0)
(-0.0313859 -0.00337914 0)
(-0.0302307 -0.00395724 0)
(-0.0288982 -0.00450832 0)
(-0.0273981 -0.00502561 0)
(-0.0257422 -0.00550125 0)
(-0.0239449 -0.0059261 0)
(-0.0220236 -0.00628963 0)
(-0.0199987 -0.00657981 0)
(-0.0178946 -0.00678317 0)
(-0.0157393 -0.00688495 0)
(-0.0135652 -0.00686957 0)
(-0.0114084 -0.00672135 0)
(-0.00930908 -0.00642564 0)
(-0.00731068 -0.00597057 0)
(-0.005459 -0.00534949 0)
(-0.00380116 -0.00456438 0)
(-0.00238297 -0.00363051 0)
(-0.0012456 -0.00258208 0)
(-0.000442042 -0.00147922 0)
(-6.60848e-05 -0.00042343 0)
(-7.90009e-05 0.000672134 0)
(-0.000520274 0.00215076 0)
(-0.00145217 0.00361744 0)
(-0.00275547 0.0049769 0)
(-0.00436307 0.00617097 0)
(-0.00622564 0.00716657 0)
(-0.00829127 0.00794991 0)
(-0.0105083 0.00852129 0)
(-0.0128277 0.00889049 0)
(-0.0152036 0.00907314 0)
(-0.017594 0.00908796 0)
(-0.019961 0.00895476 0)
(-0.0222712 0.00869308 0)
(-0.0244952 0.00832124 0)
(-0.0266077 0.00785588 0)
(-0.0285871 0.00731175 0)
(-0.030415 0.00670163 0)
(-0.032076 0.00603655 0)
(-0.0335571 0.00532591 0)
(-0.0348478 0.0045778 0)
(-0.035939 0.00379917 0)
(-0.0368239 0.00299615 0)
(-0.0374967 0.00217421 0)
(-0.0379533 0.00133839 0)
(-0.0381907 0.000493447 0)
(-0.0382072 -0.000356002 0)
(-0.0380021 -0.00120532 0)
(-0.0375764 -0.00204972 0)
(-0.0369318 -0.00288417 0)
(-0.0360718 -0.00370318 0)
(-0.0350012 -0.0045007 0)
(-0.0337265 -0.00526991 0)
(-0.0322559 -0.00600303 0)
(-0.0306 -0.00669109 0)
(-0.0287718 -0.00732371 0)
(-0.0267868 -0.00788891 0)
(-0.0246639 -0.00837293 0)
(-0.0224255 -0.00876017 0)
(-0.0200976 -0.00903327 0)
(-0.0177106 -0.00917337 0)
(-0.0152992 -0.00916067 0)
(-0.0129025 -0.00897538 0)
(-0.0105634 -0.00859917 0)
(-0.0083289 -0.00801713 0)
(-0.0062488 -0.00722052 0)
(-0.00437525 -0.00621035 0)
(-0.0027603 -0.00500197 0)
(-0.00145303 -0.00363008 0)
(-0.000519818 -0.00215439 0)
(-7.87155e-05 -0.000671486 0)
(-8.92479e-05 0.000957373 0)
(-0.000586653 0.00292161 0)
(-0.00163332 0.0048039 0)
(-0.00308948 0.0065163 0)
(-0.00487591 0.0080041 0)
(-0.00693546 0.00923639 0)
(-0.0092098 0.0102015 0)
(-0.0116422 0.0109021 0)
(-0.0141794 0.0113513 0)
(-0.0167724 0.0115686 0)
(-0.0193764 0.0115767 0)
(-0.0219513 0.0114 0)
(-0.0244614 0.0110624 0)
(-0.0268756 0.0105865 0)
(-0.0291673 0.00999274 0)
(-0.0313133 0.00929955 0)
(-0.0332941 0.00852289 0)
(-0.0350935 0.00767657 0)
(-0.0366975 0.00677246 0)
(-0.0380949 0.00582077 0)
(-0.0392763 0.00483032 0)
(-0.0402341 0.00380891 0)
(-0.0409623 0.00276349 0)
(-0.0414566 0.00170046 0)
(-0.0417136 0.000625886 0)
(-0.0417317 -0.000454366 0)
(-0.0415102 -0.0015344 0)
(-0.0410497 -0.00260815 0)
(-0.0403525 -0.00366919 0)
(-0.039422 -0.00471058 0)
(-0.0382634 -0.00572462 0)
(-0.0368834 -0.00670267 0)
(-0.0352909 -0.00763487 0)
(-0.0334972 -0.00850989 0)
(-0.0315159 -0.00931466 0)
(-0.0293637 -0.0100342 0)
(-0.0270605 -0.0106512 0)
(-0.0246302 -0.0111464 0)
(-0.0221005 -0.0114983 0)
(-0.0195035 -0.0116836 0)
(-0.0168762 -0.0116781 0)
(-0.0142601 -0.0114575 0)
(-0.0117011 -0.0109994 0)
(-0.00924943 -0.0102854 0)
(-0.0069592 -0.00930358 0)
(-0.00488772 -0.00805294 0)
(-0.00309349 -0.00654711 0)
(-0.00163335 -0.00481906 0)
(-0.000585698 -0.00292555 0)
(-8.88217e-05 -0.000956242 0)
(-9.7704e-05 0.0012739 0)
(-0.000643973 0.00377684 0)
(-0.00179303 0.00611662 0)
(-0.00338801 0.00821327 0)
(-0.00533896 0.010017 0)
(-0.0075813 0.0115009 0)
(-0.0100503 0.0126567 0)
(-0.0126839 0.013491 0)
(-0.0154247 0.014021 0)
(-0.0182203 0.0142704 0)
(-0.0210231 0.0142671 0)
(-0.0237907 0.0140399 0)
(-0.0264856 0.0136177 0)
(-0.0290751 0.0130274 0)
(-0.0315311 0.0122937 0)
(-0.0338295 0.0114388 0)
(-0.0359498 0.010482 0)
(-0.037875 0.00944009 0)
(-0.0395906 0.00832748 0)
(-0.0410848 0.00715665 0)
(-0.0423478 0.00593841 0)
(-0.0433717 0.00468227 0)
(-0.0441502 0.00339677 0)
(-0.0446788 0.00208974 0)
(-0.0449542 0.000768596 0)
(-0.0449742 -0.000559477 0)
(-0.0447385 -0.00188727 0)
(-0.0442475 -0.00320737 0)
(-0.0435035 -0.00451192 0)
(-0.0425101 -0.00579242 0)
(-0.0412724 -0.00703945 0)
(-0.0397977 -0.00824243 0)
(-0.0380951 -0.00938932 0)
(-0.0361762 -0.0104663 0)
(-0.0340554 -0.0114574 0)
(-0.0317501 -0.0123445 0)
(-0.0292813 -0.0131066 0)
(-0.0266738 -0.0137205 0)
(-0.0239569 -0.0141602 0)
(-0.0211646 -0.0143979 0)
(-0.0183356 -0.0144044 0)
(-0.015514 -0.0141508 0)
(-0.0127487 -0.01361 0)
(-0.0100934 -0.0127591 0)
(-0.00760664 -0.0115827 0)
(-0.00535101 -0.0100762 0)
(-0.00339151 -0.00825012 0)
(-0.00179236 -0.0061342 0)
(-0.00064254 -0.00378072 0)
(-9.71343e-05 -0.00127198 0)
(-0.000104978 0.00161762 0)
(-0.000694992 0.0047074 0)
(-0.00193748 0.00754413 0)
(-0.00366102 0.0100555 0)
(-0.00576619 0.0121975 0)
(-0.00818143 0.0139482 0)
(-0.0108357 0.0153041 0)
(-0.0136615 0.0162766 0)
(-0.0165971 0.016888 0)
(-0.0195866 0.0171672 0)
(-0.0225793 0.0171473 0)
(-0.0255306 0.0168627 0)
(-0.0284012 0.016347 0)
(-0.0311568 0.0156321 0)
(-0.033768 0.0147473 0)
(-0.0362099 0.0137185 0)
(-0.0384612 0.0125686 0)
(-0.0405043 0.0113175 0)
(-0.0423242 0.00998237 0)
(-0.0439087 0.00857799 0)
(-0.0452477 0.00711724 0)
(-0.0463333 0.00561143 0)
(-0.047159 0.00407072 0)
(-0.0477199 0.00250442 0)
(-0.0480128 0.000921318 0)
(-0.0480355 -0.000670044 0)
(-0.0477874 -0.00226112 0)
(-0.047269 -0.00384311 0)
(-0.0464825 -0.00540669 0)
(-0.0454315 -0.00694174 0)
(-0.0441212 -0.00843707 0)
(-0.0425589 -0.00988009 0)
(-0.040754 -0.0112564 0)
(-0.0387183 -0.0125497 0)
(-0.0364667 -0.0137409 0)
(-0.0340172 -0.0148085 0)
(-0.0313916 -0.0157277 0)
(-0.0286158 -0.016471 0)
(-0.0257203 -0.0170077 0)
(-0.0227409 -0.0173051 0)
(-0.0197184 -0.0173289 0)
(-0.0166992 -0.0170447 0)
(-0.0137356 -0.0164202 0)
(-0.0108849 -0.0154275 0)
(-0.00821019 -0.0140465 0)
(-0.00577969 -0.0122682 0)
(-0.00366469 -0.010099 0)
(-0.00193644 -0.00756421 0)
(-0.000693188 -0.00471096 0)
(-0.000104278 -0.00161466 0)
(-0.000111575 0.00198591 0)
(-0.000742256 0.00570725 0)
(-0.00207269 0.00907871 0)
(-0.00391864 0.0120348 0)
(-0.00617213 0.0145377 0)
(-0.00875494 0.0165709 0)
(-0.0115898 0.0181368 0)
(-0.0146038 0.0192526 0)
(-0.0177305 0.0199462 0)
(-0.0209102 0.0202528 0)
(-0.0240894 0.0202113 0)
(-0.0272207 0.019862 0)
(-0.030263 0.019244 0)
(-0.0331806 0.0183944 0)
(-0.0359428 0.017347 0)
(-0.0385238 0.0161322 0)
(-0.0409018 0.0147765 0)
(-0.0430584 0.0133031 0)
(-0.0449787 0.011732 0)
(-0.04665 0.0100803 0)
(-0.0480621 0.00836311 0)
(-0.049207 0.00659357 0)
(-0.0500781 0.00478347 0)
(-0.0506706 0.00294363 0)
(-0.050981 0.00108422 0)
(-0.0510071 -0.000784876 0)
(-0.0507481 -0.00265376 0)
(-0.0502047 -0.00451224 0)
(-0.0493787 -0.0063495 0)
(-0.0482737 -0.0081538 0)
(-0.0468948 -0.00991211 0)
(-0.0452494 -0.0116098 0)
(-0.0433468 -0.01323 0)
(-0.041199 -0.0147537 0)
(-0.0388212 -0.0161587 0)
(-0.0362319 -0.0174198 0)
(-0.0334535 -0.0185083 0)
(-0.030513 -0.0193919 0)
(-0.0274423 -0.0200353 0)
(-0.0242786 -0.0204 0)
(-0.0210651 -0.0204463 0)
(-0.017851 -0.0201338 0)
(-0.0146916 -0.0194245 0)
(-0.0116486 -0.0182846 0)
(-0.00878972 -0.0166884 0)
(-0.00618881 -0.0146219 0)
(-0.00392356 -0.0120862 0)
(-0.00207182 -0.00910174 0)
(-0.000740259 -0.00571044 0)
(-0.000110768 -0.0019817 0)
(-0.000117909 0.00237742 0)
(-0.000788026 0.00677326 0)
(-0.00220432 0.0107164 0)
(-0.00417061 0.0141474 0)
(-0.0065709 0.0170341 0)
(-0.00932055 0.0193664 0)
(-0.0123361 0.021153 0)
(-0.0155388 0.0224175 0)
(-0.0188578 0.0231946 0)
(-0.022229 0.0235262 0)
(-0.0255958 0.023458 0)
(-0.0289081 0.0230365 0)
(-0.0321228 0.022307 0)
(-0.0352024 0.0213121 0)
(-0.0381154 0.0200907 0)
(-0.0408349 0.0186776 0)
(-0.0433386 0.0171034 0)
(-0.0456078 0.0153945 0)
(-0.0476272 0.013574 0)
(-0.0493842 0.0116616 0)
(-0.0508686 0.00967438 0)
(-0.0520721 0.0076275 0)
(-0.0529883 0.00553437 0)
(-0.0536123 0.00340729 0)
(-0.0539406 0.00125782 0)
(-0.053971 -0.000902846 0)
(-0.0537026 -0.00306349 0)
(-0.0531358 -0.00521255 0)
(-0.0522723 -0.00733773 0)
(-0.0511155 -0.00942565 0)
(-0.0496703 -0.0114614 0)
(-0.047944 -0.0134282 0)
(-0.0459457 -0.0153069 0)
(-0.0436876 -0.0170753 0)
(-0.0411848 -0.0187082 0)
(-0.0384563 -0.0201763 0)
(-0.0355252 -0.0214468 0)
(-0.0324194 -0.0224824 0)
(-0.029172 -0.0232423 0)
(-0.0258222 -0.0236825 0)
(-0.0224154 -0.0237567 0)
(-0.0190038 -0.0234184 0)
(-0.0156464 -0.0226227 0)
(-0.0124091 -0.0213295 0)
(-0.00936471 -0.0195069 0)
(-0.00659307 -0.0171347 0)
(-0.00417817 -0.0142085 0)
(-0.00220431 -0.0107434 0)
(-0.000786078 -0.00677636 0)
(-0.000117029 -0.00237189 0)
(-0.000124319 0.00279194 0)
(-0.000834281 0.00790496 0)
(-0.00233745 0.0124571 0)
(-0.0044259 0.0163935 0)
(-0.00697578 0.019688 0)
(-0.00989605 0.0223367 0)
(-0.0130968 0.0243552 0)
(-0.0164937 0.0257744 0)
(-0.0200104 0.0266366 0)
(-0.0235788 0.026991 0)
(-0.0271385 0.0268906 0)
(-0.0306369 0.0263891 0)
(-0.0340283 0.0255384 0)
(-0.0372739 0.0243871 0)
(-0.0403407 0.0229797 0)
(-0.0432013 0.0213556 0)
(-0.0458326 0.0195496 0)
(-0.0482158 0.0175919 0)
(-0.0503355 0.0155085 0)
(-0.0521789 0.0133217 0)
(-0.0537361 0.011051 0)
(-0.0549988 0.00871334 0)
(-0.0559608 0.00632375 0)
(-0.0566171 0.00389599 0)
(-0.0569643 0.00144297 0)
(-0.057 -0.00102285 0)
(-0.0567234 -0.00348898 0)
(-0.0561344 -0.00594255 0)
(-0.0552347 -0.00836981 0)
(-0.0540272 -0.0107558 0)
(-0.0525168 -0.0130836 0)
(-0.05071 -0.0153345 0)
(-0.0486161 -0.0174865 0)
(-0.0462469 -0.0195146 0)
(-0.0436177 -0.02139 0)
(-0.0407477 -0.0230795 0)
(-0.0376605 -0.0245454 0)
(-0.0343849 -0.0257454 0)
(-0.0309556 -0.0266326 0)
(-0.0274136 -0.0271568 0)
(-0.0238068 -0.0272649 0)
(-0.0201906 -0.0269031 0)
(-0.016628 -0.0260194 0)
(-0.0131896 -0.0245664 0)
(-0.00995374 -0.0225051 0)
(-0.0070063 -0.0198088 0)
(-0.00443787 -0.0164671 0)
(-0.0023392 -0.0124896 0)
(-0.000832683 -0.00790863 0)
(-0.000123407 -0.00278513 0)
(-0.000131088 0.00323018 0)
(-0.000882753 0.00910429 0)
(-0.00247666 0.0143037 0)
(-0.00469276 0.0187774 0)
(-0.0073991 0.0225047 0)
(-0.010498 0.0254882 0)
(-0.013893 0.0277507 0)
(-0.0174935 0.0293311 0)
(-0.0212178 0.0302799 0)
(-0.024993 0.0306546 0)
(-0.028755 0.0305163 0)
(-0.0324479 0.0299264 0)
(-0.0360239 0.0289441 0)
(-0.0394422 0.0276246 0)
(-0.0426689 0.0260182 0)
(-0.0456754 0.0241696 0)
(-0.0484385 0.022118 0)
(-0.0509391 0.0198975 0)
(-0.0531617 0.0175372 0)
(-0.0550939 0.0150623 0)
(-0.0567258 0.0124943 0)
(-0.0580493 0.00985225 0)
(-0.0590585 0.0071527 0)
(-0.0597484 0.00441083 0)
(-0.0601157 0.0016408 0)
(-0.0601581 -0.00114374 0)
(-0.0598742 -0.00392912 0)
(-0.0592642 -0.00670121 0)
(-0.058329 -0.0094449 0)
(-0.0570714 -0.0121436 0)
(-0.0554955 -0.0147787 0)
(-0.0536077 -0.017329 0)
(-0.0514166 -0.0197701 0)
(-0.0489339 -0.0220738 0)
(-0.0461748 -0.0242075 0)
(-0.0431585 -0.0261337 0)
(-0.0399091 -0.0278097 0)
(-0.0364564 -0.0291874 0)
(-0.0328364 -0.0302139 0)
(-0.0290923 -0.0308315 0)
(-0.0252747 -0.0309799 0)
(-0.0214426 -0.0305974 0)
(-0.0176632 -0.0296238 0)
(-0.0140124 -0.0280039 0)
(-0.0105743 -0.025691 0)
(-0.00744142 -0.022651 0)
(-0.00471124 -0.0188673 0)
(-0.00248124 -0.0143442 0)
(-0.000881862 -0.00910969 0)
(-0.000130189 -0.00322231 0)
(-0.000138453 0.00369372 0)
(-0.000934969 0.0103753 0)
(-0.00262609 0.0162625 0)
(-0.0049787 0.0213072 0)
(-0.00785224 0.0254938 0)
(-0.011142 0.0288315 0)
(-0.0147444 0.0313509 0)
(-0.0185621 0.0330993 0)
(-0.0225076 0.0341362 0)
(-0.026503 0.0345283 0)
(-0.0304798 0.0343457 0)
(-0.034379 0.0336582 0)
(-0.0381501 0.0325329 0)
(-0.0417506 0.0310323 0)
(-0.0451451 0.029213 0)
(-0.0483046 0.0271253 0)
(-0.0512052 0.0248134 0)
(-0.053828 0.0223152 0)
(-0.0561575 0.0196634 0)
(-0.0581817 0.0168859 0)
(-0.059891 0.0140065 0)
(-0.0612776 0.0110461 0)
(-0.0623359 0.00802288 0)
(-0.0630612 0.0049533 0)
(-0.0634502 0.00185266 0)
(-0.0635005 -0.0012643 0)
(-0.0632107 -0.00438287 0)
(-0.0625805 -0.00748777 0)
(-0.0616104 -0.0105626 0)
(-0.0603027 -0.0135893 0)
(-0.0586609 -0.0165474 0)
(-0.0566906 -0.0194134 0)
(-0.0544 -0.0221603 0)
(-0.0518002 -0.0247565 0)
(-0.048906 -0.0271656 0)
(-0.0457368 -0.0293454 0)
(-0.0423169 -0.0312477 0)
(-0.0386771 -0.0328182 0)
(-0.0348549 -0.033997 0)
(-0.0308956 -0.0347187 0)
(-0.0268528 -0.0349148 0)
(-0.0227895 -0.0345148 0)
(-0.0187776 -0.0334498 0)
(-0.0148985 -0.0316555 0)
(-0.0112429 -0.029077 0)
(-0.00791054 -0.0256724 0)
(-0.00500625 -0.0214186 0)
(-0.00263478 -0.0163143 0)
(-0.000935212 -0.0103842 0)
(-0.000137622 -0.0036852 0)
(-0.000146624 0.00418486 0)
(-0.000992316 0.0117241 0)
(-0.00278955 0.0183426 0)
(-0.00529077 0.0239944 0)
(-0.00834594 0.0286686 0)
(-0.0118427 0.0323813 0)
(-0.0156696 0.035171 0)
(-0.0197221 0.0370945 0)
(-0.0239061 0.0382209 0)
(-0.0281383 0.038627 0)
(-0.0323458 0.0383926 0)
(-0.0364656 0.0375969 0)
(-0.0404448 0.0363159 0)
(-0.0442387 0.0346198 0)
(-0.0478109 0.0325723 0)
(-0.0511315 0.0302298 0)
(-0.0541766 0.0276416 0)
(-0.0569273 0.0248499 0)
(-0.0593684 0.0218911 0)
(-0.0614884 0.0187958 0)
(-0.0632782 0.0155903 0)
(-0.0647306 0.0122973 0)
(-0.0658402 0.00893633 0)
(-0.0666029 0.00552519 0)
(-0.0670153 0.00208014 0)
(-0.0670752 -0.00138317 0)
(-0.0667808 -0.00484912 0)
(-0.0661314 -0.00830146 0)
(-0.0651272 -0.0117226 0)
(-0.0637694 -0.0150932 0)
(-0.062061 -0.0183908 0)
(-0.0600066 -0.0215899 0)
(-0.0576136 -0.0246606 0)
(-0.0548924 -0.0275678 0)
(-0.0518572 -0.030271 0)
(-0.0485271 -0.0327229 0)
(-0.0449269 -0.0348695 0)
(-0.0410881 -0.0366497 0)
(-0.0370496 -0.0379957 0)
(-0.032859 -0.0388338 0)
(-0.0285735 -0.0390862 0)
(-0.0242599 -0.0386729 0)
(-0.0199955 -0.0375151 0)
(-0.0158682 -0.0355388 0)
(-0.0119755 -0.0326799 0)
(-0.00842524 -0.0288884 0)
(-0.00533047 -0.0241339 0)
(-0.0028039 -0.0184103 0)
(-0.000994203 -0.0117389 0)
(-0.000145923 -0.00417633 0)
(-0.000155791 0.00470657 0)
(-0.0010561 0.0131585 0)
(-0.00297068 0.0205558 0)
(-0.00563571 0.0268539 0)
(-0.00889053 0.0320464 0)
(-0.0126142 0.0361561 0)
(-0.0166866 0.0392305 0)
(-0.0209951 0.0413361 0)
(-0.0254386 0.0425527 0)
(-0.0299275 0.0429682 0)
(-0.0343839 0.0426732 0)
(-0.0387411 0.0417574 0)
(-0.0429431 0.0403062 0)
(-0.0469434 0.0383986 0)
(-0.0507041 0.0361059 0)
(-0.0541951 0.0334912 0)
(-0.0573922 0.0306093 0)
(-0.0602768 0.0275071 0)
(-0.0628345 0.0242247 0)
(-0.0650543 0.0207957 0)
(-0.0669278 0.0172488 0)
(-0.0684487 0.0136083 0)
(-0.069612 0.00989525 0)
(-0.0704141 0.00612845 0)
(-0.0708519 0.00232499 0)
(-0.0709231 -0.0014988 0)
(-0.0706257 -0.00532659 0)
(-0.0699585 -0.00914135 0)
(-0.068921 -0.0129246 0)
(-0.0675137 -0.0166555 0)
(-0.0657383 -0.0203101 0)
(-0.0635984 -0.0238608 0)
(-0.0611002 -0.0272746 0)
(-0.0582531 -0.0305131 0)
(-0.0550706 -0.033531 0)
(-0.0515712 -0.0362757 0)
(-0.0477798 -0.0386869 0)
(-0.0437284 -0.0406958 0)
(-0.0394576 -0.0422262 0)
(-0.0350174 -0.0431951 0)
(-0.0304683 -0.0435142 0)
(-0.025882 -0.0430931 0)
(-0.0213415 -0.0418418 0)
(-0.0169415 -0.0396759 0)
(-0.0127878 -0.0365209 0)
(-0.00899694 -0.0323182 0)
(-0.0056913 -0.0270302 0)
(-0.00299257 -0.0206454 0)
(-0.00106025 -0.0131825 0)
(-0.000155298 -0.00469896 0)
(-0.000166143 0.00526249 0)
(-0.00112762 0.0146883 0)
(-0.00317309 0.0229168 0)
(-0.00602027 0.0299039 0)
(-0.00949638 0.0356478 0)
(-0.0134707 0.0401784 0)
(-0.0178135 0.0435523 0)
(-0.022403 0.0458468 0)
(-0.02713 0.0471535 0)
(-0.0318983 0.0475725 0)
(-0.0366245 0.0472064 0)
(-0.0412377 0.0461563 0)
(-0.0456788 0.0445183 0)
(-0.0498993 0.042381 0)
(-0.0538603 0.0398241 0)
(-0.0575311 0.036918 0)
(-0.0608878 0.0337234 0)
(-0.0639124 0.0302923 0)
(-0.0665913 0.0266686 0)
(-0.0689145 0.0228891 0)
(-0.0708748 0.0189848 0)
(-0.0724665 0.0149816 0)
(-0.0736858 0.0109018 0)
(-0.0745293 0.00676513 0)
(-0.0749945 0.00258913 0)
(-0.0750789 -0.00160936 0)
(-0.0747805 -0.00581361 0)
(-0.0740974 -0.010006 0)
(-0.0730283 -0.0141674 0)
(-0.0715725 -0.0182759 0)
(-0.0697304 -0.0223061 0)
(-0.0675043 -0.0262279 0)
(-0.0648988 -0.0300059 0)
(-0.0619219 -0.0335975 0)
(-0.058586 -0.036953 0)
(-0.0549087 -0.0400138 0)
(-0.0509147 -0.0427124 0)
(-0.0466364 -0.044972 0)
(-0.0421157 -0.0467069 0)
(-0.0374053 -0.0478234 0)
(-0.0325693 -0.048222 0)
(-0.0276844 -0.0478001 0)
(-0.0228401 -0.0464559 0)
(-0.018139 -0.0440928 0)
(-0.013696 -0.0406256 0)
(-0.00963738 -0.0359857 0)
(-0.00609636 -0.030128 0)
(-0.00320485 -0.0230359 0)
(-0.0011348 -0.0147258 0)
(-0.000165949 -0.00525704 0)
(-0.000177876 0.00585692 0)
(-0.00120822 0.0163249 0)
(-0.0034006 0.0254428 0)
(-0.00645151 0.0331662 0)
(-0.0101743 0.0394977 0)
(-0.0144271 0.0444744 0)
(-0.0190689 0.0481631 0)
(-0.0239679 0.0506528 0)
(-0.0290058 0.0520484 0)
(-0.034079 0.052463 0)
(-0.039098 0.0520129 0)
(-0.0439874 0.0508119 0)
(-0.0486849 0.0489679 0)
(-0.05314 0.0465802 0)
(-0.0573129 0.0437378 0)
(-0.0611728 0.0405188 0)
(-0.0646962 0.0369907 0)
(-0.0678662 0.0332107 0)
(-0.0706703 0.0292269 0)
(-0.0730999 0.0250792 0)
(-0.0751491 0.0208008 0)
(-0.0768137 0.0164194 0)
(-0.0780906 0.0119581 0)
(-0.0789774 0.00743721 0)
(-0.0794719 0.00287463 0)
(-0.0795719 -0.00171273 0)
(-0.0792749 -0.00630801 0)
(-0.0785784 -0.0108935 0)
(-0.0774801 -0.0154495 0)
(-0.0759779 -0.0199533 0)
(-0.0740708 -0.0243783 0)
(-0.071759 -0.0286923 0)
(-0.0690453 -0.0328569 0)
(-0.0659359 -0.0368259 0)
(-0.0624413 -0.0405442 0)
(-0.0585782 -0.0439472 0)
(-0.0543702 -0.0469594 0)
(-0.0498502 -0.0494949 0)
(-0.0450613 -0.0514575 0)
(-0.0400583 -0.0527418 0)
(-0.0349095 -0.0532355 0)
(-0.0296971 -0.0528226 0)
(-0.0245177 -0.0513875 0)
(-0.0194827 -0.0488205 0)
(-0.0147172 -0.0450239 0)
(-0.0103591 -0.0399188 0)
(-0.00655383 -0.0334518 0)
(-0.00344512 -0.0256011 0)
(-0.0012194 -0.0163816 0)
(-0.000178101 -0.00585532 0)
(-0.00019121 0.00649487 0)
(-0.00129942 0.0180819 0)
(-0.00365736 0.028154 0)
(-0.00693714 0.036666 0)
(-0.010936 0.0436244 0)
(-0.0154991 0.0490744 0)
(-0.0204729 0.0530935 0)
(-0.0257136 0.055784 0)
(-0.031093 0.057265 0)
(-0.0364989 0.057665 0)
(-0.0418356 0.0571151 0)
(-0.0470225 0.0557434 0)
(-0.0519942 0.0536711 0)
(-0.0566983 0.0510092 0)
(-0.0610943 0.047857 0)
(-0.0651516 0.0443014 0)
(-0.0688478 0.0404169 0)
(-0.0721672 0.0362665 0)
(-0.0750992 0.0319025 0)
(-0.077637 0.027368 0)
(-0.0797764 0.0226986 0)
(-0.0815147 0.0179231 0)
(-0.0828503 0.0130656 0)
(-0.0837818 0.00814651 0)
(-0.0843076 0.00318364 0)
(-0.0844255 -0.00180637 0)
(-0.0841329 -0.00680699 0)
(-0.0834265 -0.0118007 0)
(-0.0823028 -0.0167678 0)
(-0.0807579 -0.0216852 0)
(-0.0787889 -0.026525 0)
(-0.0763938 -0.0312533 0)
(-0.0735729 -0.0358289 0)
(-0.0703299 -0.0402015 0)
(-0.0666733 -0.0443107 0)
(-0.0626175 -0.048085 0)
(-0.0581853 -0.0514405 0)
(-0.0534091 -0.0542812 0)
(-0.0483328 -0.0564991 0)
(-0.0430137 -0.0579754 0)
(-0.0375242 -0.0585836 0)
(-0.0319522 -0.0581924 0)
(-0.0264026 -0.0566707 0)
(-0.0209964 -0.0538939 0)
(-0.0158705 -0.0497506 0)
(-0.0111762 -0.0441501 0)
(-0.00707285 -0.0370303 0)
(-0.0037183 -0.0283641 0)
(-0.00131581 -0.018165 0)
(-0.000192008 -0.00649932 0)
(-0.000206402 0.00718215 0)
(-0.00140293 0.0199749 0)
(-0.00394811 0.031074 0)
(-0.00748585 0.0404324 0)
(-0.0117946 0.0480608 0)
(-0.0167046 0.0540128 0)
(-0.0220473 0.058378 0)
(-0.0276658 0.0612733 0)
(-0.0334202 0.0628341 0)
(-0.0391892 0.0632059 0)
(-0.0448697 0.0625367 0)
(-0.0503762 0.0609708 0)
(-0.0556398 0.0586439 0)
(-0.0606066 0.0556805 0)
(-0.0652358 0.0521911 0)
(-0.0694973 0.0482723 0)
(-0.0733705 0.0440064 0)
(-0.0768416 0.0394622 0)
(-0.0799023 0.0346968 0)
(-0.0825482 0.0297564 0)
(-0.0847772 0.0246785 0)
(-0.086589 0.0194934 0)
(-0.0879834 0.0142253 0)
(-0.0889604 0.00889453 0)
(-0.0895191 0.00351837 0)
(-0.0896577 -0.00188733 0)
(-0.0893732 -0.00730691 0)
(-0.0886615 -0.0127236 0)
(-0.0875174 -0.018118 0)
(-0.0859354 -0.0234671 0)
(-0.08391 -0.0287424 0)
(-0.0814364 -0.0339082 0)
(-0.0785119 -0.0389207 0)
(-0.075137 -0.0437255 0)
(-0.0713172 -0.0482567 0)
(-0.0670644 -0.0524351 0)
(-0.0623993 -0.0561679 0)
(-0.0573533 -0.0593476 0)
(-0.051971 -0.0618531 0)
(-0.0463116 -0.0635508 0)
(-0.0404516 -0.0642975 0)
(-0.0344854 -0.0639447 0)
(-0.0285264 -0.0623438 0)
(-0.022707 -0.0593532 0)
(-0.0171775 -0.0548457 0)
(-0.0121045 -0.0487176 0)
(-0.00766396 -0.040897 0)
(-0.00403011 -0.0313515 0)
(-0.00142611 -0.0200937 0)
(-0.000207975 -0.00719555 0)
(-0.00022376 0.00792553 0)
(-0.00152078 0.0220222 0)
(-0.00427838 0.0342299 0)
(-0.0081077 0.0444991 0)
(-0.0127652 0.0528444 0)
(-0.0180634 0.0593288 0)
(-0.0238169 0.0640552 0)
(-0.029853 0.0671573 0)
(-0.0360192 0.0687889 0)
(-0.0421835 0.0691149 0)
(-0.0482352 0.0683024 0)
(-0.0540833 0.0665138 0)
(-0.0596558 0.0639017 0)
(-0.0648974 0.0606052 0)
(-0.0697676 0.0567478 0)
(-0.0742379 0.0524362 0)
(-0.0782896 0.0477612 0)
(-0.081912 0.0427983 0)
(-0.0850995 0.037609 0)
(-0.0878509 0.032243 0)
(-0.0901671 0.0267394 0)
(-0.0920501 0.0211293 0)
(-0.0935021 0.0154371 0)
(-0.0945245 0.00968228 0)
(-0.0951175 0.00388102 0)
(-0.0952797 -0.00195219 0)
(-0.0950077 -0.00780315 0)
(-0.0942965 -0.0136564 0)
(-0.0931392 -0.0194937 0)
(-0.091528 -0.0252925 0)
(-0.0894544 -0.0310239 0)
(-0.0869103 -0.0366513 0)
(-0.0838891 -0.0421282 0)
(-0.0803875 -0.0473961 0)
(-0.0764069 -0.0523834 0)
(-0.0719558 -0.0570029 0)
(-0.0670519 -0.0611517 0)
(-0.0617249 -0.0647097 0)
(-0.0560189 -0.067541 0)
(-0.049995 -0.0694952 0)
(-0.0437336 -0.0704104 0)
(-0.0373358 -0.0701181 0)
(-0.0309248 -0.0684496 0)
(-0.0246453 -0.0652435 0)
(-0.0186631 -0.0603549 0)
(-0.0131628 -0.053665 0)
(-0.00833956 -0.0450911 0)
(-0.00438734 -0.0345948 0)
(-0.00155276 -0.0221886 0)
(-0.000226377 -0.00795166 0)
(-0.000243665 0.0087329 0)
(-0.00165542 0.0242448 0)
(-0.00465475 0.0376534 0)
(-0.0088145 0.0489047 0)
(-0.0138653 0.0580179 0)
(-0.0195988 0.0650663 0)
(-0.0258096 0.0701682 0)
(-0.0323073 0.073476 0)
(-0.0389247 0.0751651 0)
(-0.0455183 0.0754224 0)
(-0.0519687 0.0744368 0)
(-0.0581797 0.0723916 0)
(-0.0640763 0.0694582 0)
(-0.0696025 0.0657924 0)
(-0.0747186 0.0615317 0)