/*--------------------------------*- C++ -*----------------------------------*\
  =========                 |
  \\      /  F ield         | OpenFOAM: The Open Source CFD Toolbox
   \\    /   O peration     | Website:  https://openfoam.org
    \\  /    A nd           | Version:  7
     \\/     M anipulation  |
\*---------------------------------------------------------------------------*/
FoamFile
{
    version     2.0;
    format      ascii;
    class       surfaceScalarField;
    location    "0.055";
    object      phi;
}
// * * * * * * * * * * * * * * * * * * * * * * * * * * * * * * * * * * * * * //

dimensions      [0 3 -1 0 0 0 0];

internalField   nonuniform List<scalar> 
4900
(
1.079e-09
-1.08198e-09
2.17032e-09
-1.0912e-09
2.18565e-09
-1.52276e-11
7.67983e-10
1.41762e-09
-2.16218e-09
2.93012e-09
-6.52013e-09
4.35794e-09
-1.21467e-08
5.62659e-09
-1.88498e-08
6.70314e-09
-2.64258e-08
7.57601e-09
-3.46701e-08
8.24433e-09
-4.33831e-08
8.71306e-09
-5.23737e-08
8.99056e-09
-6.14609e-08
9.08717e-09
-7.04753e-08
9.01439e-09
-7.92597e-08
8.78443e-09
-8.76695e-08
8.40984e-09
-9.55729e-08
7.90335e-09
-1.02851e-07
7.27778e-09
-1.09397e-07
6.5459e-09
-1.15117e-07
5.72053e-09
-1.19932e-07
4.81448e-09
-1.23772e-07
3.84069e-09
-1.26584e-07
2.81222e-09
-1.28327e-07
1.74237e-09
-1.28972e-07
6.44738e-10
-1.28505e-07
-4.66709e-10
-1.26927e-07
-1.57758e-09
-1.24254e-07
-2.67304e-09
-1.20516e-07
-3.73779e-09
-1.1576e-07
-4.75608e-09
-1.10049e-07
-5.71182e-09
-1.0346e-07
-6.58863e-09
-9.609e-08
-7.36998e-09
-8.80506e-08
-8.03939e-09
-7.947e-08
-8.58064e-09
-7.0492e-08
-8.97799e-09
-6.12755e-08
-9.21653e-09
-5.1993e-08
-9.28242e-09
-4.28297e-08
-9.16335e-09
-3.39808e-08
-8.84893e-09
-2.56495e-08
-8.3313e-09
-1.80436e-08
-7.60591e-09
-1.13707e-08
-6.67286e-09
-5.8315e-09
-5.53925e-09
-1.60759e-09
-4.22393e-09
1.16062e-09
-2.76822e-09
2.41495e-09
-1.25432e-09
2.24596e-09
1.69007e-10
1.08035e-09
1.16562e-09
1.08036e-09
1.10032e-09
-2.18217e-09
1.16738e-09
-1.15811e-09
-1.34205e-09
2.49408e-09
-7.16876e-09
7.24417e-09
-1.65162e-08
1.22775e-08
-2.92733e-08
1.71151e-08
-4.51354e-08
2.14887e-08
-6.36876e-08
2.52554e-08
-8.44571e-08
2.83455e-08
-1.06946e-07
3.0733e-08
-1.30652e-07
3.24189e-08
-1.55082e-07
3.34208e-08
-1.79762e-07
3.37676e-08
-2.04243e-07
3.3495e-08
-2.28102e-07
3.26433e-08
-2.50948e-07
3.12557e-08
-2.72422e-07
2.93773e-08
-2.92198e-07
2.70544e-08
-3.09986e-07
2.43338e-08
-3.25529e-07
2.12631e-08
-3.38605e-07
1.78904e-08
-3.49029e-07
1.42643e-08
-3.56651e-07
1.04343e-08
-3.61359e-07
6.45054e-09
-3.63079e-07
2.36464e-09
-3.61775e-07
-1.77065e-09
-3.57451e-07
-5.90108e-09
-3.50153e-07
-9.9709e-09
-3.39968e-07
-1.39229e-08
-3.27026e-07
-1.76984e-08
-3.115e-07
-2.12379e-08
-2.93607e-07
-2.44809e-08
-2.7361e-07
-2.73671e-08
-2.51813e-07
-2.98365e-08
-2.28563e-07
-3.18307e-08
-2.04247e-07
-3.32938e-08
-1.7929e-07
-3.41736e-08
-1.5415e-07
-3.44226e-08
-1.29313e-07
-3.40006e-08
-1.05286e-07
-3.28756e-08
-8.25897e-08
-3.10277e-08
-6.17439e-08
-2.84517e-08
-4.32531e-08
-2.51636e-08
-2.75825e-08
-2.12098e-08
-1.51239e-08
-1.66824e-08
-6.1446e-09
-1.17475e-08
-7.05219e-10
-6.69368e-09
1.47852e-09
-2.01472e-09
1.17668e-09
1.46747e-09
2.25704e-09
7.65699e-11
-2.25864e-09
-2.38875e-09
1.3071e-09
-8.89108e-09
8.99633e-09
-2.01753e-08
1.85284e-08
-3.646e-08
2.85622e-08
-5.75959e-08
3.82511e-08
-8.31802e-08
4.70731e-08
-1.12648e-07
5.47233e-08
-1.45337e-07
6.10346e-08
-1.80534e-07
6.593e-08
-2.17506e-07
6.9391e-08
-2.55524e-07
7.14388e-08
-2.93878e-07
7.21212e-08
-3.31887e-07
7.15041e-08
-3.68909e-07
6.96657e-08
-4.04346e-07
6.66926e-08
-4.37646e-07
6.2677e-08
-4.68306e-07
5.77148e-08
-4.95877e-07
5.19047e-08
-5.19962e-07
4.53473e-08
-5.40216e-07
3.81451e-08
-5.56354e-07
3.04023e-08
-5.68145e-07
2.22248e-08
-5.75415e-07
1.37208e-08
-5.78051e-07
5.00103e-09
-5.76001e-07
-3.8212e-09
-5.69272e-07
-1.26296e-08
-5.57939e-07
-2.13048e-08
-5.42137e-07
-2.97247e-08
-5.2207e-07
-3.77648e-08
-4.9801e-07
-4.52986e-08
-4.70292e-07
-5.21986e-08
-4.39321e-07
-5.83379e-08
-4.05566e-07
-6.35912e-08
-3.6956e-07
-6.78372e-08
-3.31893e-07
-7.09608e-08
-2.93211e-07
-7.28554e-08
-2.54207e-07
-7.34268e-08
-2.15611e-07
-7.25966e-08
-1.7818e-07
-7.0307e-08
-1.4268e-07
-6.6527e-08
-1.09871e-07
-6.12609e-08
-8.04747e-08
-5.45598e-08
-5.51441e-08
-4.65404e-08
-3.4414e-08
-3.74125e-08
-1.86369e-08
-2.75247e-08
-7.89286e-09
-1.74377e-08
-1.88063e-09
-8.02693e-09
2.30626e-10
-6.43787e-10
2.48767e-09
-1.31962e-09
-9.39078e-10
-7.06416e-09
7.05151e-09
-1.83536e-08
2.02857e-08
-3.57448e-08
3.59197e-08
-5.93492e-08
5.21666e-08
-8.8923e-08
6.78248e-08
-1.23959e-07
8.21088e-08
-1.63765e-07
9.45292e-08
-2.07529e-07
1.04799e-07
-2.54371e-07
1.12772e-07
-3.03376e-07
1.18396e-07
-3.53626e-07
1.21689e-07
-4.0422e-07
1.22715e-07
-4.54289e-07
1.21574e-07
-5.0301e-07
1.18386e-07
-5.49609e-07
1.13292e-07
-5.93373e-07
1.06441e-07
-6.3365e-07
9.79914e-08
-6.69854e-07
8.81086e-08
-7.01468e-07
7.69614e-08
-7.28045e-07
6.47227e-08
-7.49212e-07
5.15692e-08
-7.64668e-07
3.76808e-08
-7.74189e-07
2.32415e-08
-7.77627e-07
8.43954e-09
-7.74916e-07
-6.53235e-09
-7.66069e-07
-2.14767e-08
-7.51182e-07
-3.61913e-08
-7.30438e-07
-5.04696e-08
-7.04101e-07
-6.41012e-08
-6.72526e-07
-7.68733e-08
-6.36153e-07
-8.85722e-08
-5.95505e-07
-9.89855e-08
-5.51192e-07
-1.07905e-07
-5.039e-07
-1.15129e-07
-4.54392e-07
-1.20469e-07
-4.03497e-07
-1.23751e-07
-3.521e-07
-1.24824e-07
-3.0113e-07
-1.23566e-07
-2.51547e-07
-1.19891e-07
-2.04313e-07
-1.1376e-07
-1.60377e-07
-1.05197e-07
-1.20632e-07
-9.43045e-08
-8.58822e-08
-8.12907e-08
-5.67848e-08
-6.65099e-08
-3.37902e-08
-5.05192e-08
-1.70627e-08
-3.41652e-08
-6.39377e-09
-1.86958e-08
-1.12127e-09
-5.91628e-09
1.36641e-09
-2.81235e-09
1.87322e-09
-1.21459e-08
1.6385e-08
-2.86134e-08
3.67532e-08
-5.24704e-08
5.97767e-08
-8.36255e-08
8.33218e-08
-1.21685e-07
1.05884e-07
-1.66009e-07
1.26434e-07
-2.15781e-07
1.443e-07
-2.70052e-07
1.5907e-07
-3.27798e-07
1.70518e-07
-3.87955e-07
1.78553e-07
-4.49448e-07
1.83182e-07
-5.11221e-07
1.84488e-07
-5.72248e-07
1.826e-07
-6.31552e-07
1.77691e-07
-6.88218e-07
1.69957e-07
-7.41393e-07
1.59616e-07
-7.903e-07
1.46899e-07
-8.3424e-07
1.32048e-07
-8.72593e-07
1.15315e-07
-9.04825e-07
9.69545e-08
-9.30487e-07
7.72313e-08
-9.4922e-07
5.64139e-08
-9.60756e-07
3.47772e-08
-9.64919e-07
1.26027e-08
-9.6163e-07
-9.82159e-09
-9.50906e-07
-3.22008e-08
-9.32864e-07
-5.42333e-08
-9.07722e-07
-7.56116e-08
-8.758e-07
-9.60229e-08
-8.37522e-07
-1.15152e-07
-7.93413e-07
-1.32681e-07
-7.44099e-07
-1.48299e-07
-6.90307e-07
-1.61697e-07
-6.32853e-07
-1.72583e-07
-5.72642e-07
-1.80679e-07
-5.10656e-07
-1.85737e-07
-4.47941e-07
-1.87539e-07
-3.85592e-07
-1.85915e-07
-3.24733e-07
-1.80749e-07
-2.66495e-07
-1.71999e-07
-2.1198e-07
-1.59712e-07
-1.62234e-07
-1.44051e-07
-1.18195e-07
-1.25329e-07
-8.06514e-08
-1.04054e-07
-5.01784e-08
-8.09923e-08
-2.70819e-08
-5.72617e-08
-1.13412e-08
-3.44365e-08
-2.56916e-09
-1.46883e-08
-1.20275e-09
-4.28188e-09
6.15511e-09
-1.72686e-08
2.93717e-08
-3.90518e-08
5.85365e-08
-6.95254e-08
9.02503e-08
-1.08337e-07
1.22133e-07
-1.54895e-07
1.52442e-07
-2.08401e-07
1.7994e-07
-2.67894e-07
2.03793e-07
-3.32293e-07
2.23469e-07
-4.00439e-07
2.38664e-07
-4.71133e-07
2.49247e-07
-5.43168e-07
2.55217e-07
-6.15351e-07
2.5667e-07
-6.86525e-07
2.53775e-07
-7.55587e-07
2.46753e-07
-8.21497e-07
2.35867e-07
-8.83288e-07
2.21408e-07
-9.40079e-07
2.03689e-07
-9.91071e-07
1.8304e-07
-1.03556e-06
1.59804e-07
-1.07294e-06
1.34331e-07
-1.10269e-06
1.06985e-07
-1.12441e-06
7.81344e-08
-1.13779e-06
4.81588e-08
-1.14263e-06
1.74457e-08
-1.13885e-06
-1.36082e-08
-1.12645e-06
-4.45969e-08
-1.10558e-06
-7.51058e-08
-1.07648e-06
-1.04712e-07
-1.03952e-06
-1.32987e-07
-9.95169e-07
-1.59498e-07
-9.44037e-07
-1.83813e-07
-8.86833e-07
-2.05503e-07
-8.24377e-07
-2.24153e-07
-7.57598e-07
-2.39362e-07
-6.87521e-07
-2.50757e-07
-6.15255e-07
-2.58002e-07
-5.41984e-07
-2.6081e-07
-4.68944e-07
-2.58955e-07
-3.97403e-07
-2.5229e-07
-3.28635e-07
-2.40766e-07
-2.63889e-07
-2.24459e-07
-2.04347e-07
-2.03592e-07
-1.51092e-07
-1.78585e-07
-1.05053e-07
-1.50093e-07
-6.69642e-08
-1.19081e-07
-3.73215e-08
-8.69044e-08
-1.63499e-08
-5.5408e-08
-4.00058e-09
-2.70377e-08
-5.20333e-09
-5.68371e-09
1.18388e-08
-2.22675e-08
4.59556e-08
-4.93566e-08
8.56257e-08
-8.64667e-08
1.2736e-07
-1.32952e-07
1.68619e-07
-1.87992e-07
2.07482e-07
-2.50601e-07
2.42549e-07
-3.19657e-07
2.7285e-07
-3.93937e-07
2.97749e-07
-4.72149e-07
3.16875e-07
-5.52966e-07
3.30064e-07
-6.35057e-07
3.37309e-07
-7.17111e-07
3.38725e-07
-7.97856e-07
3.3452e-07
-8.76078e-07
3.24975e-07
-9.50632e-07
3.10421e-07
-1.02046e-06
2.91232e-07
-1.08458e-06
2.67809e-07
-1.14211e-06
2.40578e-07
-1.19229e-06
2.09982e-07
-1.23444e-06
1.76477e-07
-1.26799e-06
1.40535e-07
-1.29249e-06
1.02636e-07
-1.3076e-06
6.32732e-08
-1.31311e-06
2.29519e-08
-1.30891e-06
-1.78117e-08
-1.29501e-06
-5.84893e-08
-1.27158e-06
-9.85415e-08
-1.23887e-06
-1.37419e-07
-1.19729e-06
-1.74566e-07
-1.14737e-06
-2.0942e-07
-1.08976e-06
-2.41422e-07
-1.02525e-06
-2.70017e-07
-9.54733e-07
-2.94667e-07
-8.79239e-07
-3.14856e-07
-7.99892e-07
-3.30105e-07
-7.17912e-07
-3.39982e-07
-6.34603e-07
-3.4412e-07
-5.51326e-07
-3.42233e-07
-4.69479e-07
-3.34136e-07
-3.90473e-07
-3.19773e-07
-3.15692e-07
-2.99239e-07
-2.46466e-07
-2.72818e-07
-1.84025e-07
-2.41025e-07
-1.29465e-07
-2.04653e-07
-8.37062e-08
-1.6484e-07
-4.74674e-08
-1.23143e-07
-2.12528e-08
-8.16226e-08
-5.36939e-09
-4.29211e-08
-1.05727e-08
-7.0102e-09
1.88491e-08
-2.70887e-08
6.60341e-08
-5.94039e-08
1.17941e-07
-1.03101e-07
1.71058e-07
-1.57229e-07
2.22747e-07
-2.20717e-07
2.70969e-07
-2.92369e-07
3.14201e-07
-3.70888e-07
3.51369e-07
-4.54896e-07
3.81756e-07
-5.42962e-07
4.04941e-07
-6.33634e-07
4.20736e-07
-7.25461e-07
4.29136e-07
-8.17022e-07
4.30285e-07
-9.06941e-07
4.24439e-07
-9.93905e-07
4.11939e-07
-1.07668e-06
3.93196e-07
-1.15412e-06
3.68671e-07
-1.22517e-06
3.38861e-07
-1.28889e-06
3.04297e-07
-1.34444e-06
2.65528e-07
-1.39109e-06
2.23126e-07
-1.42823e-06
1.77676e-07
-1.45537e-06
1.2978e-07
-1.47215e-06
8.00547e-08
-1.47833e-06
2.91298e-08
-1.47379e-06
-2.23494e-08
-1.45856e-06
-7.37234e-08
-1.43278e-06
-1.24319e-07
-1.39675e-06
-1.7345e-07
-1.35089e-06
-2.20423e-07
-1.29578e-06
-2.64537e-07
-1.2321e-06
-3.05095e-07
-1.16071e-06
-3.41407e-07
-1.08258e-06
-3.728e-07
-9.98803e-07
-3.98634e-07
-9.10595e-07
-4.18312e-07
-8.19279e-07
-4.31298e-07
-7.26262e-07
-4.37136e-07
-6.33024e-07
-4.35471e-07
-5.41087e-07
-4.26073e-07
-4.51993e-07
-4.08867e-07
-3.67269e-07
-3.83963e-07
-2.88396e-07
-3.51692e-07
-2.16769e-07
-3.12652e-07
-1.53668e-07
-2.67754e-07
-1.00224e-07
-2.18284e-07
-5.74014e-08
-1.65966e-07
-2.59973e-08
-1.13027e-07
-6.66708e-09
-6.22513e-08
-1.72398e-08
-8.26998e-09
2.71191e-08
-3.17352e-08
8.94993e-08
-6.91761e-08
1.55382e-07
-1.19386e-07
2.21268e-07
-1.81107e-07
2.84469e-07
-2.53005e-07
3.42867e-07
-3.33662e-07
3.94859e-07
-4.21589e-07
4.39295e-07
-5.1524e-07
4.75408e-07
-6.13041e-07
5.02742e-07
-7.13407e-07
5.21102e-07
-8.14773e-07
5.30502e-07
-9.15608e-07
5.31121e-07
-1.01444e-06
5.23271e-07
-1.10987e-06
5.07367e-07
-1.20058e-06
4.83905e-07
-1.28535e-06
4.53439e-07
-1.36306e-06
4.16573e-07
-1.43271e-06
3.73946e-07
-1.4934e-06
3.26224e-07
-1.54437e-06
2.74097e-07
-1.58497e-06
2.18275e-07
-1.61468e-06
1.59487e-07
-1.6331e-06
9.8477e-08
-1.63998e-06
3.60094e-08
-1.63519e-06
-2.71355e-08
-1.61876e-06
-9.01595e-08
-1.59083e-06
-1.52248e-07
-1.55171e-06
-2.12572e-07
-1.50184e-06
-2.70289e-07
-1.44182e-06
-3.24555e-07
-1.3724e-06
-3.74522e-07
-1.29445e-06
-4.19355e-07
-1.20901e-06
-4.5824e-07
-1.11724e-06
-4.904e-07
-1.02044e-06
-5.1511e-07
-9.20022e-07
-5.31719e-07
-8.17488e-07
-5.3967e-07
-7.14431e-07
-5.38528e-07
-6.12497e-07
-5.28007e-07
-5.13362e-07
-5.08002e-07
-4.18701e-07
-4.78623e-07
-3.30158e-07
-4.40235e-07
-2.49309e-07
-3.93501e-07
-1.77636e-07
-3.39428e-07
-1.16497e-07
-2.79422e-07
-6.71182e-08
-2.15345e-07
-3.05915e-08
-1.49553e-07
-7.90335e-09
-8.49394e-08
-2.51431e-08
-9.47769e-09
3.65967e-08
-3.62375e-08
1.16259e-07
-7.87132e-08
1.97857e-07
-1.35366e-07
2.7792e-07
-2.04635e-07
3.53738e-07
-2.84919e-07
4.2315e-07
-3.74566e-07
4.84505e-07
-4.71882e-07
5.36611e-07
-5.75146e-07
5.78672e-07
-6.82627e-07
6.10224e-07
-7.92608e-07
6.31083e-07
-9.03403e-07
6.41297e-07
-1.01338e-06
6.41095e-07
-1.12096e-06
6.30858e-07
-1.22468e-06
6.11083e-07
-1.32314e-06
5.8236e-07
-1.41505e-06
5.45349e-07
-1.49924e-06
5.00763e-07
-1.57465e-06
4.49359e-07
-1.64035e-06
3.91925e-07
-1.69553e-06
3.29277e-07
-1.73951e-06
2.62255e-07
-1.77174e-06
1.91717e-07
-1.79181e-06
1.18545e-07
-1.79944e-06
4.36398e-08
-1.7945e-06
-3.20781e-08
-1.77699e-06
-1.07666e-07
-1.74708e-06
-1.82162e-07
-1.70506e-06
-2.54586e-07
-1.65141e-06
-3.23946e-07
-1.58672e-06
-3.89239e-07
-1.51178e-06
-4.49463e-07
-1.42751e-06
-5.03628e-07
-1.33498e-06
-5.50768e-07
-1.23543e-06
-5.89957e-07
-1.1302e-06
-6.20333e-07
-1.02081e-06
-6.41115e-07
-9.08842e-07
-6.51634e-07
-7.96009e-07
-6.51361e-07
-6.84078e-07
-6.39938e-07
-5.74866e-07
-6.17214e-07
-4.70206e-07
-5.83283e-07
-3.71916e-07
-5.38525e-07
-2.81768e-07
-4.83648e-07
-2.01462e-07
-4.19734e-07
-1.326e-07
-3.48284e-07
-7.66756e-08
-2.71269e-07
-3.50742e-08
-1.91155e-07
-9.09508e-09
-1.10919e-07
-3.42382e-08
-1.06495e-08
4.72462e-08
-4.06382e-08
1.46248e-07
-8.80835e-08
2.45303e-07
-1.51132e-07
3.40968e-07
-2.27926e-07
4.30533e-07
-3.16594e-07
5.11818e-07
-4.15242e-07
5.83153e-07
-5.21964e-07
6.43332e-07
-6.3485e-07
6.91558e-07
-7.5201e-07
7.27383e-07
-8.71584e-07
7.50657e-07
-9.91763e-07
7.61477e-07
-1.11081e-06
7.60141e-07
-1.22706e-06
7.47112e-07
-1.33896e-06
7.22984e-07
-1.44505e-06
6.8845e-07
-1.54399e-06
6.44283e-07
-1.63454e-06
5.91317e-07
-1.71562e-06
5.30432e-07
-1.78624e-06
4.62546e-07
-1.84556e-06
3.88604e-07
-1.89289e-06
3.0958e-07
-1.92764e-06
2.26469e-07
-1.94938e-06
1.4029e-07
-1.95783e-06
5.20859e-08
-1.95283e-06
-3.70787e-08
-1.93438e-06
-1.26113e-07
-1.90264e-06
-2.13905e-07
-1.85791e-06
-2.99318e-07
-1.80065e-06
-3.81202e-07
-1.7315e-06
-4.58393e-07
-1.65123e-06
-5.29726e-07
-1.56082e-06
-5.94045e-07
-1.46136e-06
-6.50223e-07
-1.35414e-06
-6.97175e-07
-1.24059e-06
-7.33886e-07
-1.12227e-06
-7.59432e-07
-1.00089e-06
-7.73017e-07
-8.7825e-07
-7.74e-07
-7.56255e-07
-7.61934e-07
-6.36867e-07
-7.36602e-07
-5.22087e-07
-6.98064e-07
-4.13921e-07
-6.46691e-07
-3.14353e-07
-5.83216e-07
-2.25314e-07
-5.08773e-07
-1.48661e-07
-4.24937e-07
-8.61643e-08
-3.33766e-07
-3.94987e-08
-2.3782e-07
-1.02615e-08
-1.40156e-07
-4.44997e-08
-1.18014e-08
5.90476e-08
-4.49834e-08
1.7943e-07
-9.73674e-08
2.97687e-07
-1.66797e-07
4.10398e-07
-2.51125e-07
5.1486e-07
-3.48204e-07
6.08898e-07
-4.55894e-07
6.90843e-07
-5.72067e-07
7.59505e-07
-6.9462e-07
8.14111e-07
-8.21491e-07
8.54254e-07
-9.50675e-07
8.79841e-07
-1.08024e-06
8.9104e-07
-1.20833e-06
8.88237e-07
-1.33322e-06
8.71994e-07
-1.45324e-06
8.43013e-07
-1.5669e-06
8.02105e-07
-1.67278e-06
7.50168e-07
-1.76963e-06
6.88163e-07
-1.8563e-06
6.17101e-07
-1.93179e-06
5.38035e-07
-1.99523e-06
4.52046e-07
-2.04589e-06
3.60243e-07
-2.08319e-06
2.63762e-07
-2.10666e-06
1.63761e-07
-2.116e-06
6.14267e-08
-2.11105e-06
-4.203e-08
-2.09179e-06
-1.45369e-07
-2.05837e-06
-2.47323e-07
-2.01109e-06
-3.46599e-07
-1.95041e-06
-4.41882e-07
-1.87696e-06
-5.31842e-07
-1.79154e-06
-6.15143e-07
-1.69513e-06
-6.90458e-07
-1.58887e-06
-7.56483e-07
-1.47408e-06
-8.11964e-07
-1.35225e-06
-8.55718e-07
-1.22502e-06
-8.86663e-07
-1.09418e-06
-9.03856e-07
-9.61658e-07
-9.06525e-07
-8.29479e-07
-8.94112e-07
-6.99765e-07
-8.66316e-07
-5.74695e-07
-8.23134e-07
-4.56476e-07
-7.6491e-07
-3.47317e-07
-6.92376e-07
-2.49396e-07
-6.06694e-07
-1.64837e-07
-5.09496e-07
-9.56905e-08
-4.02913e-07
-4.39238e-08
-2.89587e-07
-1.14219e-08
-1.72658e-07
-5.59216e-08
-1.2948e-08
7.19956e-08
-4.93185e-08
2.158e-07
-1.06647e-07
3.55016e-07
-1.82483e-07
4.86233e-07
-2.74386e-07
6.06763e-07
-3.79936e-07
7.14448e-07
-4.96738e-07
8.07646e-07
-6.22436e-07
8.85203e-07
-7.54725e-07
9.464e-07
-8.91365e-07
9.90895e-07
-1.0302e-06
1.01868e-06
-1.16917e-06
1.03001e-06
-1.30632e-06
1.02539e-06
-1.43981e-06
1.00549e-06
-1.56793e-06
9.71137e-07
-1.68911e-06
9.23282e-07
-1.80189e-06
8.62952e-07
-1.90498e-06
7.91249e-07
-1.9972e-06
7.09322e-07
-2.07753e-06
6.18361e-07
-2.14507e-06
5.19588e-07
-2.19908e-06
4.14253e-07
-2.23895e-06
3.0363e-07
-2.2642e-06
1.8902e-07
-2.27453e-06
7.1752e-08
-2.26974e-06
-4.68155e-08
-2.24982e-06
-1.65293e-07
-2.21489e-06
-2.82258e-07
-2.16523e-06
-3.96257e-07
-2.1013e-06
-5.05809e-07
-2.02373e-06
-6.09412e-07
-1.93332e-06
-7.05553e-07
-1.83106e-06
-7.92722e-07
-1.71811e-06
-8.69434e-07
-1.59582e-06
-9.34247e-07
-1.46575e-06
-9.85795e-07
-1.32959e-06
-1.02282e-06
-1.18923e-06
-1.04421e-06
-1.04671e-06
-1.04905e-06
-9.04198e-07
-1.03663e-06
-7.63971e-07
-1.00654e-06
-6.284e-07
-9.58705e-07
-4.99906e-07
-8.93403e-07
-3.80937e-07
-8.11345e-07
-2.73932e-07
-7.13699e-07
-1.81294e-07
-6.02133e-07
-1.05366e-07
-4.78841e-07
-4.84089e-08
-3.46544e-07
-1.25951e-08
-2.08471e-07
-6.85167e-08
-1.41027e-08
8.60983e-08
-5.36862e-08
2.55384e-07
-1.16003e-07
4.17333e-07
-1.98306e-07
5.68536e-07
-2.97864e-07
7.06321e-07
-4.11976e-07
8.2856e-07
-5.37988e-07
9.33658e-07
-6.73307e-07
1.02052e-06
-8.15417e-07
1.08851e-06
-9.61899e-07
1.13738e-06
-1.11044e-06
1.16722e-06
-1.25884e-06
1.17841e-06
-1.40505e-06
1.17159e-06
-1.54714e-06
1.14757e-06
-1.68333e-06
1.10732e-06
-1.81198e-06
1.05193e-06
-1.93161e-06
9.82586e-07
-2.04089e-06
9.00525e-07
-2.13862e-06
8.07048e-07
-2.22375e-06
7.03491e-07
-2.29538e-06
5.91218e-07
-2.35274e-06
4.71619e-07
-2.39522e-06
3.46111e-07
-2.42234e-06
2.16134e-07
-2.43375e-06
8.31597e-08
-2.42925e-06
-5.13087e-08
-2.40881e-06
-1.85733e-07
-2.37253e-06
-3.18536e-07
-2.32069e-06
-4.48104e-07
-2.25371e-06
-5.72788e-07
-2.17221e-06
-6.90911e-07
-2.07699e-06
-8.00775e-07
-1.96903e-06
-9.00683e-07
-1.84951e-06
-9.8895e-07
-1.71982e-06
-1.06394e-06
-1.58153e-06
-1.12408e-06
-1.43644e-06
-1.16792e-06
-1.28649e-06
-1.19416e-06
-1.13386e-06
-1.20168e-06
-9.80837e-07
-1.18965e-06
-8.29885e-07
-1.15749e-06
-6.83568e-07
-1.10502e-06
-5.44536e-07
-1.03244e-06
-4.1549e-07
-9.40391e-07
-2.99146e-07
-8.30043e-07
-1.98201e-07
-7.03078e-07
-1.15301e-07
-5.61741e-07
-5.30121e-08
-4.08833e-07
-1.37987e-08
-2.47685e-07
-8.23155e-08
-1.52771e-08
1.01375e-07
-5.81252e-08
2.98232e-07
-1.25508e-07
4.84715e-07
-2.14378e-07
6.57406e-07
-3.21704e-07
8.13648e-07
-4.44499e-07
9.51356e-07
-5.79841e-07
1.069e-06
-7.24892e-07
1.16557e-06
-8.76921e-07
1.24054e-06
-1.03332e-06
1.29377e-06
-1.19161e-06
1.32551e-06
-1.34947e-06
1.33628e-06
-1.50473e-06
1.32686e-06
-1.65539e-06
1.29823e-06
-1.79959e-06
1.25153e-06
-1.93565e-06
1.188e-06
-2.06207e-06
1.109e-06
-2.17746e-06
1.01592e-06
-2.28063e-06
9.10218e-07
-2.37052e-06
7.93378e-07
-2.44621e-06
6.6691e-07
-2.50694e-06
5.32345e-07
-2.55206e-06
3.91239e-07
-2.5811e-06
2.45171e-07
-2.59369e-06
9.57527e-08
-2.58963e-06
-5.5373e-08
-2.56884e-06
-2.06521e-07
-2.53141e-06
-3.55964e-07
-2.47759e-06
-5.01929e-07
-2.40778e-06
-6.42598e-07
-2.32257e-06
-7.76116e-07
-2.22275e-06
-9.00599e-07
-2.10928e-06
-1.01415e-06
-1.98336e-06
-1.11487e-06
-1.84638e-06
-1.20092e-06
-1.69995e-06
-1.2705e-06
-1.54593e-06
-1.32195e-06
-1.38635e-06
-1.35373e-06
-1.22348e-06
-1.36455e-06
-1.05978e-06
-1.35335e-06
-8.97878e-07
-1.3194e-06
-7.40548e-07
-1.26235e-06
-5.90682e-07
-1.1823e-06
-4.51249e-07
-1.07982e-06
-3.25259e-07
-9.56033e-07
-2.15722e-07
-8.12616e-07
-1.25603e-07
-6.5186e-07
-5.77886e-08
-4.76647e-07
-1.50491e-08
-2.90424e-07
-9.73645e-08
-1.64817e-08
1.17857e-07
-6.26705e-08
3.44421e-07
-1.35229e-07
5.57274e-07
-2.30798e-07
7.52975e-07
-3.46038e-07
9.28888e-07
-4.77664e-07
1.08298e-06
-6.22473e-07
1.21381e-06
-7.77377e-07
1.32048e-06
-9.39418e-07
1.40258e-06
-1.10579e-06
1.46015e-06
-1.27387e-06
1.49358e-06
-1.44118e-06
1.50359e-06
-1.60546e-06
1.49113e-06
-1.76462e-06
1.45738e-06
-1.91674e-06
1.40365e-06
-2.06012e-06
1.33138e-06
-2.19319e-06
1.24207e-06
-2.3146e-06
1.13732e-06
-2.42311e-06
1.01873e-06
-2.51767e-06
8.87942e-07
-2.59737e-06
7.4661e-07
-2.66144e-06
5.96409e-07
-2.70923e-06
4.39032e-07
-2.74025e-06
2.76193e-07
-2.75413e-06
1.09635e-07
-2.75065e-06
-5.88624e-08
-2.72969e-06
-2.27474e-07
-2.69133e-06
-3.94325e-07
-2.63578e-06
-5.57487e-07
-2.5634e-06
-7.14976e-07
-2.47475e-06
-8.64759e-07
-2.37059e-06
-1.00476e-06
-2.25187e-06
-1.13287e-06
-2.11976e-06
-1.24699e-06
-1.97566e-06
-1.34502e-06
-1.82121e-06
-1.42495e-06
-1.65831e-06
-1.48485e-06
-1.48908e-06
-1.52296e-06
-1.31589e-06
-1.53773e-06
-1.14136e-06
-1.52788e-06
-9.68282e-07
-1.49247e-06
-7.9966e-07
-1.43097e-06
-6.38638e-07
-1.34332e-06
-4.88471e-07
-1.22999e-06
-3.52482e-07
-1.09202e-06
-2.34014e-07
-9.31084e-07
-1.36374e-07
-7.495e-07
-6.27906e-08
-5.50231e-07
-1.63615e-08
-3.36853e-07
-1.13726e-07
-1.77258e-08
1.35583e-07
-6.73533e-08
3.94048e-07
-1.45227e-07
6.35148e-07
-2.47659e-07
8.55407e-07
-3.70985e-07
1.05221e-06
-5.11607e-07
1.2236e-06
-6.66033e-07
1.36824e-06
-8.30909e-07
1.48535e-06
-1.00305e-06
1.57472e-06
-1.17944e-06
1.63655e-06
-1.3573e-06
1.67144e-06
-1.53402e-06
1.68031e-06
-1.70723e-06
1.66434e-06
-1.87476e-06
1.62491e-06
-2.03466e-06
1.56355e-06
-2.18517e-06
1.48189e-06
-2.32474e-06
1.38164e-06
-2.45198e-06
1.26456e-06
-2.56568e-06
1.13243e-06
-2.66479e-06
9.87051e-07
-2.7484e-06
8.30221e-07
-2.81575e-06
6.63758e-07
-2.86621e-06
4.89485e-07
-2.89926e-06
3.09244e-07
-2.91453e-06
1.24905e-07
-2.91177e-06
-6.16225e-08
-2.89086e-06
-2.48384e-07
-2.85182e-06
-4.33365e-07
-2.79482e-06
-6.14488e-07
-2.72019e-06
-7.89606e-07
-2.62844e-06
-9.56507e-07
-2.52028e-06
-1.11292e-06
-2.39661e-06
-1.25653e-06
-2.2586e-06
-1.385e-06
-2.10763e-06
-1.49599e-06
-1.94535e-06
-1.58723e-06
-1.7737e-06
-1.65651e-06
-1.59486e-06
-1.7018e-06
-1.41132e-06
-1.72127e-06
-1.22583e-06
-1.71338e-06
-1.04137e-06
-1.67693e-06
-8.61184e-07
-1.61116e-06
-6.88669e-07
-1.51584e-06
-5.27392e-07
-1.39127e-06
-3.81011e-07
-1.2384e-06
-2.53224e-07
-1.05887e-06
-1.4771e-07
-8.55013e-07
-6.80674e-08
-6.29874e-07
-1.77505e-08
-3.8717e-07
-1.31477e-07
-1.90175e-08
1.546e-07
-7.22018e-08
4.47232e-07
-1.55555e-07
7.18501e-07
-2.6504e-07
9.64891e-07
-3.96646e-07
1.18382e-06
-5.46445e-07
1.3734e-06
-7.1064e-07
1.53243e-06
-8.85599e-07
1.66031e-06
-1.06789e-06
1.75701e-06
-1.25432e-06
1.82297e-06
-1.4419e-06
1.85902e-06
-1.62791e-06
1.86633e-06
-1.80989e-06
1.84632e-06
-1.9856e-06
1.80062e-06
-2.15305e-06
1.731e-06
-2.31046e-06
1.6393e-06
-2.45626e-06
1.52745e-06
-2.58908e-06
1.39739e-06
-2.70774e-06
1.25109e-06
-2.81119e-06
1.0905e-06
-2.89856e-06
9.17587e-07
-2.96909e-06
7.34286e-07
-3.02215e-06
5.42552e-07
-3.05726e-06
3.44347e-07
-3.07401e-06
1.41657e-07
-3.07214e-06
-6.34931e-08
-3.0515e-06
-2.69026e-07
-3.01206e-06
-4.72799e-07
-2.95396e-06
-6.72593e-07
-2.87746e-06
-8.66106e-07
-2.78301e-06
-1.05095e-06
-2.67127e-06
-1.22467e-06
-2.54309e-06
-1.38471e-06
-2.39957e-06
-1.52852e-06
-2.24208e-06
-1.65348e-06
-2.07226e-06
-1.75704e-06
-1.89207e-06
-1.8367e-06
-1.70375e-06
-1.89012e-06
-1.50989e-06
-1.91513e-06
-1.31337e-06
-1.9099e-06
-1.11737e-06
-1.87292e-06
-9.25353e-07
-1.80318e-06
-7.4101e-07
-1.70018e-06
-5.68228e-07
-1.56405e-06
-4.11026e-07
-1.3956e-06
-2.7349e-07
-1.19641e-06
-1.59702e-07
-9.68801e-07
-7.3666e-08
-7.1591e-07
-1.92297e-08
-4.41606e-07
-1.50706e-07
-2.03647e-08
1.74965e-07
-7.7242e-08
5.0411e-07
-1.66263e-07
8.07523e-07
-2.83013e-07
1.08164e-06
-4.23111e-07
1.32392e-06
-5.82277e-07
1.53257e-06
-7.56386e-07
1.70654e-06
-9.41519e-07
1.84544e-06
-1.13399e-06
1.94949e-06
-1.33039e-06
2.01937e-06
-1.52758e-06
2.0562e-06
-1.7227e-06
2.06145e-06
-1.91321e-06
2.03682e-06
-2.09679e-06
1.98421e-06
-2.27145e-06
1.90565e-06
-2.43538e-06
1.80323e-06
-2.58705e-06
1.67912e-06
-2.72511e-06
1.53545e-06
-2.84839e-06
1.37437e-06
-2.9559e-06
1.19801e-06
-3.04679e-06
1.00847e-06
-3.12033e-06
8.07826e-07
-3.17592e-06
5.98142e-07
-3.21306e-06
3.81492e-07
-3.23137e-06
1.59965e-07
-3.23055e-06
-6.4311e-08
-3.21043e-06
-2.89151e-07
-3.17093e-06
-5.12298e-07
-3.11212e-06
-7.31403e-07
-3.03421e-06
-9.44019e-07
-2.93756e-06
-1.14759e-06
-2.82276e-06
-1.33947e-06
-2.69059e-06
-1.51689e-06
-2.54208e-06
-1.67703e-06
-2.37854e-06
-1.81702e-06
-2.20161e-06
-1.93398e-06
-2.01321e-06
-2.0251e-06
-1.81566e-06
-2.08767e-06
-1.61161e-06
-2.11919e-06
-1.40407e-06
-2.11743e-06
-1.19642e-06
-2.08058e-06
-9.9235e-07
-2.00725e-06
-7.95857e-07
-1.89667e-06
-6.11169e-07
-1.74874e-06
-4.42695e-07
-1.56408e-06
-2.94942e-07
-1.34416e-06
-1.72437e-07
-1.09131e-06
-7.9631e-08
-8.08716e-07
-2.08123e-08
-5.00425e-07
-1.71519e-07
-2.17745e-08
1.96739e-07
-8.24985e-08
5.64834e-07
-1.77398e-07
9.02422e-07
-3.01646e-07
1.20589e-06
-4.50461e-07
1.47273e-06
-6.19182e-07
1.70129e-06
-8.03337e-07
1.89069e-06
-9.98699e-07
2.04081e-06
-1.20132e-06
2.15211e-06
-1.40758e-06
2.22562e-06
-1.61416e-06
2.26279e-06
-1.8181e-06
2.2654e-06
-2.01676e-06
2.23548e-06
-2.2078e-06
2.17525e-06
-2.38919e-06
2.08704e-06
-2.55917e-06
1.97321e-06
-2.71621e-06
1.83616e-06
-2.85901e-06
1.67825e-06
-2.98647e-06
1.50183e-06
-3.09764e-06
1.30918e-06
-3.19172e-06
1.10255e-06
-3.26803e-06
8.8413e-07
-3.32598e-06
6.561e-07
-3.36512e-06
4.20625e-07
-3.38503e-06
1.79882e-07
-3.38543e-06
-6.39138e-08
-3.36609e-06
-3.0849e-07
-3.3269e-06
-5.51491e-07
-3.26785e-06
-7.90455e-07
-3.18906e-06
-1.0228e-06
-3.09083e-06
-1.24583e-06
-2.97362e-06
-1.45668e-06
-2.83812e-06
-1.65239e-06
-2.68528e-06
-1.82987e-06
-2.51634e-06
-1.98596e-06
-2.33285e-06
-2.11747e-06
-2.13674e-06
-2.2212e-06
-1.93033e-06
-2.29408e-06
-1.71634e-06
-2.33318e-06
-1.49791e-06
-2.33587e-06
-1.27858e-06
-2.2999e-06
-1.0623e-06
-2.22353e-06
-8.53366e-07
-2.10561e-06
-6.56379e-07
-1.94572e-06
-4.76168e-07
-1.74429e-06
-3.17702e-07
-1.50263e-06
-1.85997e-07
-1.22301e-06
-8.60062e-08
-9.08707e-07
-2.25113e-08
-5.6392e-07
-1.9403e-07
-2.32544e-08
2.19994e-07
-8.79964e-08
6.29576e-07
-1.89005e-07
1.00343e-06
-3.21003e-07
1.33789e-06
-4.78768e-07
1.6305e-06
-6.57227e-07
1.87975e-06
-8.51534e-07
2.085e-06
-1.05713e-06
2.24641e-06
-1.26981e-06
2.36479e-06
-1.48571e-06
2.44152e-06
-1.70137e-06
2.47845e-06
-1.91371e-06
2.47773e-06
-2.12001e-06
2.44178e-06
-2.31792e-06
2.37317e-06
-2.50543e-06
2.27454e-06
-2.68079e-06
2.14857e-06
-2.84255e-06
1.99792e-06
-2.98947e-06
1.82517e-06
-3.12051e-06
1.63288e-06
-3.23482e-06
1.42349e-06
-3.33164e-06
1.19937e-06
-3.41037e-06
9.62854e-07
-3.47046e-06
7.16195e-07
-3.51147e-06
4.61639e-07
-3.53302e-06
2.01432e-07
-3.53479e-06
-6.21458e-08
-3.51653e-06
-3.26755e-07
-3.47806e-06
-5.89962e-07
-3.41929e-06
-8.49215e-07
-3.34028e-06
-1.10182e-06
-3.24118e-06
-1.34492e-06
-3.12235e-06
-1.57551e-06
-2.98436e-06
-1.79038e-06
-2.82802e-06
-1.9862e-06
-2.65448e-06
-2.15951e-06
-2.46519e-06
-2.30675e-06
-2.26205e-06
-2.42435e-06
-2.04734e-06
-2.50879e-06
-1.82383e-06
-2.55669e-06
-1.59475e-06
-2.56495e-06
-1.36383e-06
-2.53082e-06
-1.13526e-06
-2.4521e-06
-9.13651e-07
-2.32722e-06
-7.03997e-07
-2.15538e-06
-5.11582e-07
-1.93671e-06
-3.41884e-07
-1.67232e-06
-2.00464e-07
-1.36443e-06
-9.28349e-08
-1.01634e-06
-2.43399e-08
-6.32415e-07
-2.1837e-07
-2.48125e-08
2.44806e-07
-9.37621e-08
6.98525e-07
-2.01133e-07
1.1108e-06
-3.41149e-07
1.4779e-06
-5.08102e-07
1.79745e-06
-6.96469e-07
2.06811e-06
-9.00998e-07
2.28953e-06
-1.11679e-06
2.46219e-06
-1.33933e-06
2.58733e-06
-1.56455e-06
2.66675e-06
-1.78883e-06
2.70273e-06
-2.00898e-06
2.69788e-06
-2.22225e-06
2.65505e-06
-2.42627e-06
2.5772e-06
-2.61907e-06
2.46734e-06
-2.79898e-06
2.32848e-06
-2.96461e-06
2.16355e-06
-3.11483e-06
1.9754e-06
-3.24871e-06
1.76676e-06
-3.36547e-06
1.54024e-06
-3.46446e-06
1.29837e-06
-3.54514e-06
1.04354e-06
-3.60705e-06
7.78102e-07
-3.64977e-06
5.04358e-07
-3.67293e-06
2.24596e-07
-3.67621e-06
-5.88643e-08
-3.65933e-06
-3.43641e-07
-3.62204e-06
-6.27251e-07
-3.56418e-06
-9.07074e-07
-3.48567e-06
-1.18033e-06
-3.38657e-06
-1.44403e-06
-3.26706e-06
-1.69501e-06
-3.12758e-06
-1.92986e-06
-2.96879e-06
-2.145e-06
-2.79167e-06
-2.33663e-06
-2.59757e-06
-2.50085e-06
-2.38827e-06
-2.63364e-06
-2.16603e-06
-2.73103e-06
-1.93361e-06
-2.78911e-06
-1.69432e-06
-2.80423e-06
-1.45205e-06
-2.77309e-06
-1.21122e-06
-2.69293e-06
-9.76781e-07
-2.56166e-06
-7.54134e-07
-2.37802e-06
-5.4906e-07
-2.14178e-06
-3.67598e-07
-1.85378e-06
-2.15916e-07
-1.51611e-06
-1.00161e-07
-1.13209e-06
-2.63115e-08
-7.06265e-07
-2.44681e-07
-2.64579e-08
2.71264e-07
-9.9826e-08
7.71893e-07
-2.13837e-07
1.22481e-06
-3.62155e-07
1.62622e-06
-5.38538e-07
1.97383e-06
-7.36963e-07
2.26654e-06
-9.51737e-07
2.5043e-06
-1.17758e-06
2.68804e-06
-1.40969e-06
2.81944e-06
-1.64377e-06
2.90083e-06
-1.87605e-06
2.935e-06
-2.10325e-06
2.92508e-06
-2.32259e-06
2.8744e-06
-2.53176e-06
2.78636e-06
-2.72882e-06
2.6644e-06
-2.9122e-06
2.51186e-06
-3.08065e-06
2.332e-06
-3.23315e-06
2.1279e-06
-3.36891e-06
1.90251e-06
-3.48726e-06
1.6586e-06
-3.58768e-06
1.39879e-06
-3.66974e-06
1.12559e-06
-3.73302e-06
8.41391e-07
-3.77719e-06
5.48526e-07
-3.8019e-06
2.49304e-07
-3.80682e-06
-5.39471e-08
-3.79163e-06
-3.58833e-07
-3.75603e-06
-6.6285e-07
-3.69976e-06
-9.63345e-07
-3.62261e-06
-1.25747e-06
-3.5245e-06
-1.54215e-06
-3.40544e-06
-1.81406e-06
-3.26568e-06
-2.06963e-06
-3.10569e-06
-2.30499e-06
-2.92626e-06
-2.51606e-06
-2.72858e-06
-2.69852e-06
-2.51429e-06
-2.84794e-06
-2.28553e-06
-2.95978e-06
-2.04505e-06
-3.02959e-06
-1.79621e-06
-3.05308e-06
-1.543e-06
-3.0263e-06
-1.2901e-06
-2.94584e-06
-1.04277e-06
-2.80898e-06
-8.06874e-07
-2.61392e-06
-5.88715e-07
-2.35994e-06
-3.94953e-07
-2.04755e-06
-2.32437e-07
-1.67863e-06
-1.08031e-07
-1.2565e-06
-2.84407e-08
-7.85855e-07
-2.73122e-07
-2.8202e-08
2.99466e-07
-1.06225e-07
8.49916e-07
-2.27181e-07
1.34577e-06
-3.84108e-07
1.78315e-06
-5.70163e-07
2.15989e-06
-7.78768e-07
2.47515e-06
-1.00375e-06
2.72928e-06
-1.23942e-06
2.92371e-06
-1.48067e-06
3.06069e-06
-1.72298e-06
3.14313e-06
-1.96242e-06
3.17444e-06
-2.19568e-06
3.15834e-06
-2.41998e-06
3.09869e-06
-2.63305e-06
2.99943e-06
-2.83308e-06
2.86442e-06
-3.01862e-06
2.69741e-06
-3.18858e-06
2.50196e-06
-3.34211e-06
2.28143e-06
-3.47856e-06
2.03896e-06
-3.59746e-06
1.77749e-06
-3.6984e-06
1.49974e-06
-3.78108e-06