/*--------------------------------*- C++ -*----------------------------------*\
  =========                 |
  \\      /  F ield         | OpenFOAM: The Open Source CFD Toolbox
   \\    /   O peration     | Website:  https://openfoam.org
    \\  /    A nd           | Version:  7
     \\/     M anipulation  |
\*---------------------------------------------------------------------------*/
FoamFile
{
    version     2.0;
    format      ascii;
    class       volVectorField;
    location    "0.055";
    object      U;
}
// * * * * * * * * * * * * * * * * * * * * * * * * * * * * * * * * * * * * * //

dimensions      [0 1 -1 0 0 0 0];

internalField   nonuniform List<vector> 
2500
(
(2.93726e-05 -2.9388e-05 0)
(8.88841e-05 -3.58325e-05 0)
(0.000121856 -1.82158e-05 0)
(8.98844e-05 7.68458e-06 0)
(-1.86222e-05 3.41279e-05 0)
(-0.000202094 5.84049e-05 0)
(-0.000453529 7.94136e-05 0)
(-0.000763879 9.68373e-05 0)
(-0.0011231 0.0001107 0)
(-0.00152087 0.000121153 0)
(-0.00194703 0.000128394 0)
(-0.00239176 0.000132639 0)
(-0.00284574 0.000134108 0)
(-0.00330019 0.000133017 0)
(-0.00374693 0.000129581 0)
(-0.00417842 0.000124008 0)
(-0.00458773 0.000116499 0)
(-0.00496859 0.000107253 0)
(-0.00531537 9.64607e-05 0)
(-0.00562306 8.43111e-05 0)
(-0.00588731 7.09903e-05 0)
(-0.00610442 5.66838e-05 0)
(-0.00627131 4.15782e-05 0)
(-0.00638558 2.58627e-05 0)
(-0.0064455 9.73105e-06 0)
(-0.00645002 -6.61745e-06 0)
(-0.00639881 -2.29764e-05 0)
(-0.00629227 -3.91317e-05 0)
(-0.00613153 -5.48606e-05 0)
(-0.00591853 -6.99326e-05 0)
(-0.00565599 -8.41096e-05 0)
(-0.00534745 -9.71468e-05 0)
(-0.00499726 -0.000108795 0)
(-0.00461061 -0.000118802 0)
(-0.00419351 -0.000126916 0)
(-0.00375277 -0.00013289 0)
(-0.00329598 -0.000136481 0)
(-0.00283143 -0.000137459 0)
(-0.00236809 -0.000135606 0)
(-0.0019155 -0.000130721 0)
(-0.00148366 -0.000122626 0)
(-0.00108291 -0.000111171 0)
(-0.000723699 -9.62439e-05 0)
(-0.000416358 -7.78069e-05 0)
(-0.000170593 -5.59744e-05 0)
(5.21961e-06 -3.12382e-05 0)
(0.00010527 -4.87259e-06 0)
(0.000129036 2.01802e-05 0)
(9.00946e-05 3.67843e-05 0)
(2.89779e-05 2.89184e-05 0)
(3.61128e-05 -8.90435e-05 0)
(8.07604e-05 -7.99405e-05 0)
(3.10413e-05 1.89993e-05 0)
(-0.000171648 0.00015338 0)
(-0.000550503 0.000295193 0)
(-0.00110567 0.000430261 0)
(-0.00182545 0.000551189 0)
(-0.0026911 0.000654435 0)
(-0.00367995 0.000738544 0)
(-0.00476742 0.000803189 0)
(-0.00592829 0.000848682 0)
(-0.00713754 0.000875719 0)
(-0.00837092 0.000885227 0)
(-0.00960525 0.000878272 0)
(-0.0108187 0.000856005 0)
(-0.0119909 0.000819627 0)
(-0.0131031 0.000770364 0)
(-0.0141381 0.000709455 0)
(-0.0150805 0.000638146 0)
(-0.0159167 0.000557687 0)
(-0.0166347 0.000469336 0)
(-0.0172242 0.000374358 0)
(-0.017677 0.000274038 0)
(-0.0179863 0.00016968 0)
(-0.0181477 6.26207e-05 0)
(-0.0181583 -4.577e-05 0)
(-0.0180173 -0.000154081 0)
(-0.017726 -0.000260858 0)
(-0.0172876 -0.000364605 0)
(-0.0167075 -0.000463786 0)
(-0.0159934 -0.000556829 0)
(-0.015155 -0.000642141 0)
(-0.0142043 -0.000718115 0)
(-0.0131555 -0.000783155 0)
(-0.0120248 -0.000835692 0)
(-0.0108308 -0.000874209 0)
(-0.00959357 -0.000897276 0)
(-0.00833541 -0.000903575 0)
(-0.00707995 -0.000891948 0)
(-0.00585214 -0.000861437 0)
(-0.00467779 -0.000811352 0)
(-0.00358307 -0.000741358 0)
(-0.00259385 -0.000651622 0)
(-0.0017347 -0.000543052 0)
(-0.00102754 -0.00041777 0)
(-0.00048958 -0.000280032 0)
(-0.000130168 -0.000137883 0)
(5.38631e-05 -6.11721e-06 0)
(8.88141e-05 8.77869e-05 0)
(3.71212e-05 9.0095e-05 0)
(1.94155e-05 -0.000123635 0)
(-1.48695e-05 -3.12093e-05 0)
(-0.000227042 0.000232644 0)
(-0.000666368 0.000570949 0)
(-0.00135533 0.000929488 0)
(-0.00229435 0.00127547 0)
(-0.00346836 0.0015896 0)
(-0.00485222 0.00186114 0)
(-0.0064146 0.00208457 0)
(-0.00812063 0.00225759 0)
(-0.00993384 0.00237994 0)
(-0.0118174 0.00245268 0)
(-0.0137353 0.00247773 0)
(-0.0156525 0.00245756 0)
(-0.0175359 0.00239503 0)
(-0.0193545 0.00229324 0)
(-0.0210794 0.00215546 0)
(-0.0226843 0.00198503 0)
(-0.0241453 0.0017854 0)
(-0.0254412 0.00156005 0)
(-0.0265536 0.00131251 0)
(-0.0274666 0.00104635 0)
(-0.0281673 0.000765223 0)
(-0.0286456 0.000472824 0)
(-0.0288943 0.000172952 0)
(-0.0289092 -0.000130505 0)
(-0.0286892 -0.000433556 0)
(-0.0282363 -0.000732099 0)
(-0.0275558 -0.00102193 0)
(-0.0266562 -0.00129875 0)
(-0.0255493 -0.00155819 0)
(-0.0242503 -0.00179584 0)
(-0.0227777 -0.00200728 0)
(-0.0211534 -0.00218814 0)
(-0.0194024 -0.00233418 0)
(-0.017553 -0.00244135 0)
(-0.015636 -0.00250588 0)
(-0.0136851 -0.00252437 0)
(-0.011736 -0.00249397 0)
(-0.00982591 -0.00241249 0)
(-0.00799327 -0.00227862 0)
(-0.00627646 -0.00209222 0)
(-0.00471287 -0.00185475 0)
(-0.00333738 -0.00156993 0)
(-0.00218034 -0.00124487 0)
(-0.00126488 -0.000891899 0)
(-0.000603017 -0.000531731 0)
(-0.000190598 -0.000198228 0)
(-8.81263e-07 5.41631e-05 0)
(2.16353e-05 0.000130593 0)
(-4.91104e-06 -9.57886e-05 0)
(-0.000145523 0.00016756 0)
(-0.000561412 0.000670749 0)
(-0.00127592 0.00128329 0)
(-0.00230186 0.00192586 0)
(-0.00363602 0.00254672 0)
(-0.00525878 0.00311308 0)
(-0.00713919 0.00360516 0)
(-0.00923897 0.00401178 0)
(-0.0115153 0.00432749 0)
(-0.0139228 0.00455069 0)
(-0.0164154 0.00468242 0)
(-0.0189474 0.0047255 0)
(-0.0214745 0.00468403 0)
(-0.0239542 0.00456296 0)
(-0.0263464 0.00436782 0)
(-0.0286139 0.00410456 0)
(-0.0307226 0.00377939 0)
(-0.0326414 0.00339873 0)
(-0.0343428 0.00296916 0)
(-0.0358027 0.00249739 0)
(-0.0370005 0.00199022 0)
(-0.0379193 0.00145461 0)
(-0.038546 0.000897666 0)
(-0.0388713 0.00032664 0)
(-0.0388898 -0.00025103 0)
(-0.0386002 -0.000827719 0)
(-0.0380051 -0.00139561 0)
(-0.0371116 -0.00194672 0)
(-0.0359307 -0.00247289 0)
(-0.034478 -0.00296587 0)
(-0.0327733 -0.00341735 0)
(-0.0308408 -0.00381906 0)
(-0.0287087 -0.00416285 0)
(-0.0264096 -0.00444087 0)
(-0.0239798 -0.00464565 0)
(-0.0214591 -0.00477036 0)
(-0.0188906 -0.00480896 0)
(-0.0163197 -0.0047565 0)
(-0.013794 -0.0046094 0)
(-0.0113617 -0.0043659 0)
(-0.0090711 -0.00402658 0)
(-0.00696853 -0.00359512 0)
(-0.00509704 -0.00307947 0)
(-0.00349388 -0.00249352 0)
(-0.00218771 -0.00185977 0)
(-0.0011947 -0.00121346 0)
(-0.000513748 -0.000608121 0)
(-0.000126514 -0.00012364 0)
(-1.55777e-06 0.000111656 0)
(-3.01777e-05 6.73163e-06 0)
(-0.000286627 0.000542285 0)
(-0.000925557 0.00136152 0)
(-0.00193554 0.00231154 0)
(-0.0033141 0.00329298 0)
(-0.00505082 0.00423738 0)
(-0.00711958 0.00509899 0)
(-0.00948304 0.00584863 0)
(-0.0120964 0.0064688 0)
(-0.0149098 0.00695017 0)
(-0.0178707 0.00728928 0)
(-0.0209252 0.00748678 0)
(-0.0240198 0.0075463 0)
(-0.0271022 0.0074736 0)
(-0.0301223 0.00727593 0)
(-0.0330325 0.00696162 0)
(-0.0357886 0.00653976 0)
(-0.0383499 0.00602 0)
(-0.0406792 0.00541236 0)
(-0.0427437 0.0047272 0)
(-0.0445144 0.0039751 0)
(-0.0459668 0.0031669 0)
(-0.0470806 0.00231365 0)
(-0.04784 0.00142666 0)
(-0.0482341 0.000517476 0)
(-0.0482563 -0.000402057 0)
(-0.0479052 -0.00131981 0)
(-0.0471839 -0.00222339 0)
(-0.046101 -0.00310012 0)
(-0.0446698 -0.00393711 0)
(-0.0429089 -0.00472135 0)
(-0.0408421 -0.00543977 0)
(-0.0384981 -0.00607939 0)
(-0.0359109 -0.00662752 0)
(-0.033119 -0.00707194 0)
(-0.0301657 -0.00740115 0)
(-0.0270982 -0.00760468 0)
(-0.0239674 -0.00767344 0)
(-0.020827 -0.00760016 0)
(-0.0177328 -0.00737983 0)
(-0.0147415 -0.00701041 0)
(-0.0119093 -0.00649363 0)
(-0.00929037 -0.00583605 0)
(-0.00693492 -0.00505066 0)
(-0.00488678 -0.00415897 0)
(-0.0031809 -0.0031942 0)
(-0.00183966 -0.00220578 0)
(-0.000868603 -0.00126496 0)
(-0.000263529 -0.000472438 0)
(-2.59579e-05 2.02817e-05 0)
(-5.41382e-05 0.000184399 0)
(-0.000427016 0.0011002 0)
(-0.00129473 0.00231707 0)
(-0.00260818 0.00366877 0)
(-0.00434641 0.00504129 0)
(-0.00648913 0.00635262 0)
(-0.00900179 0.00754562 0)
(-0.0118396 0.00858232 0)
(-0.0149509 0.00943893 0)
(-0.0182792 0.0101021 0)
(-0.0217652 0.0105664 0)
(-0.0253484 0.0108318 0)
(-0.0289685 0.0109027 0)
(-0.0325665 0.0107866 0)
(-0.0360858 0.0104933 0)
(-0.0394725 0.0100342 0)
(-0.0426766 0.00942197 0)
(-0.0456515 0.00867003 0)
(-0.0483554 0.00779261 0)
(-0.0507506 0.0068044 0)
(-0.0528042 0.00572049 0)
(-0.0544882 0.00455638 0)
(-0.0557795 0.0033279 0)
(-0.0566602 0.00205124 0)
(-0.0571176 0.000742977 0)
(-0.0571445 -0.000579913 0)
(-0.0567389 -0.00190007 0)
(-0.0559049 -0.00319974 0)
(-0.0546517 -0.00446082 0)
(-0.0529949 -0.00566495 0)
(-0.0509554 -0.00679357 0)
(-0.0485603 -0.00782813 0)
(-0.0458424 -0.00875026 0)
(-0.04284 -0.00954199 0)
(-0.039597 -0.0101861 0)
(-0.0361623 -0.0106666 0)
(-0.0325895 -0.0109689 0)
(-0.028936 -0.0110804 0)
(-0.0252626 -0.0109913 0)
(-0.0216323 -0.0106952 0)
(-0.0181088 -0.0101898 0)
(-0.0147558 -0.00947803 0)
(-0.0116344 -0.0085698 0)
(-0.00880185 -0.00748333 0)
(-0.00630901 -0.00624788 0)
(-0.00419832 -0.00490697 0)
(-0.00250032 -0.00352287 0)
(-0.00122996 -0.00218178 0)
(-0.000400418 -0.00100021 0)
(-4.91807e-05 -0.000144184 0)
(-7.61812e-05 0.000434134 0)
(-0.000562148 0.00184031 0)
(-0.00165708 0.00353944 0)
(-0.00327454 0.00535861 0)
(-0.00537381 0.00717388 0)
(-0.00792292 0.00889296 0)
(-0.0108773 0.0104494 0)
(-0.0141837 0.0117977 0)
(-0.0177828 0.0129084 0)
(-0.0216115 0.0137645 0)
(-0.0256038 0.0143584 0)
(-0.029693 0.0146899 0)
(-0.0338128 0.0147642 0)
(-0.0378982 0.0145906 0)
(-0.0418871 0.0141817 0)
(-0.0457203 0.0135522 0)
(-0.0493424 0.0127186 0)
(-0.0527025 0.0116987 0)
(-0.0557542 0.0105112 0)
(-0.0584561 0.00917583 0)
(-0.0607719 0.00771255 0)
(-0.0626707 0.00614207 0)
(-0.0641269 0.00448558 0)
(-0.0651207 0.00276475 0)
(-0.0656382 0.00100176 0)
(-0.0656713 -0.000780665 0)
(-0.0652179 -0.00255931 0)
(-0.0642821 -0.00431046 0)
(-0.0628743 -0.00600994 0)
(-0.0610114 -0.00763324 0)
(-0.0587165 -0.00915568 0)
(-0.0560193 -0.0105526 0)
(-0.0529557 -0.0117995 0)
(-0.0495681 -0.0128727 0)
(-0.0459045 -0.0137494 0)
(-0.0420189 -0.0144085 0)
(-0.03797 -0.0148308 0)
(-0.0338211 -0.0150001 0)
(-0.0296393 -0.0149038 0)
(-0.0254936 -0.0145335 0)
(-0.0214549 -0.0138868 0)
(-0.0175932 -0.012968 0)
(-0.013977 -0.0117899 0)
(-0.0106708 -0.010376 0)
(-0.00773309 -0.00876265 0)
(-0.00521516 -0.00700279 0)
(-0.00315735 -0.00516973 0)
(-0.00158581 -0.00336169 0)
(-0.000532516 -0.00170669 0)
(-7.05625e-05 -0.00037898 0)
(-9.63955e-05 0.000752111 0)
(-0.000690911 0.00275802 0)
(-0.00200826 0.00502563 0)
(-0.00392651 0.00737959 0)
(-0.00638502 0.00968981 0)
(-0.00933913 0.0118567 0)
(-0.0127332 0.0138066 0)
(-0.0165043 0.0154881 0)
(-0.0205851 0.0168671 0)
(-0.0249049 0.0179235 0)
(-0.0293915 0.0186483 0)
(-0.033972 0.0190411 0)
(-0.0385741 0.0191083 0)
(-0.0431279 0.0188614 0)
(-0.0475659 0.0183157 0)
(-0.0518242 0.0174899 0)
(-0.0558433 0.0164045 0)
(-0.059568 0.0150822 0)
(-0.0629484 0.0135465 0)
(-0.0659398 0.0118223 0)
(-0.068503 0.00993521 0)
(-0.0706046 0.00791148 0)
(-0.072217 0.00577811 0)
(-0.073319 0.00356274 0)
(-0.0738951 0.00129364 0)
(-0.0739367 -0.00100023 0)
(-0.0734413 -0.0032893 0)
(-0.0724133 -0.00554333 0)
(-0.0708636 -0.00773159 0)
(-0.0688103 -0.0098229 0)
(-0.066278 -0.0117859 0)
(-0.0632986 -0.0135891 0)
(-0.0599107 -0.0152017 0)
(-0.0561598 -0.0165935 0)
(-0.0520976 -0.0177357 0)
(-0.0477821 -0.0186016 0)
(-0.043277 -0.019167 0)
(-0.0386507 -0.0194116 0)
(-0.0339756 -0.0193193 0)
(-0.029327 -0.0188801 0)
(-0.0247821 -0.0180906 0)
(-0.0204178 -0.0169563 0)
(-0.0163099 -0.0154926 0)
(-0.0125306 -0.0137275 0)
(-0.00914732 -0.0117039 0)
(-0.00622099 -0.00948278 0)
(-0.00380308 -0.00714654 0)
(-0.001932 -0.00480285 0)
(-0.000658691 -0.00258797 0)
(-9.01547e-05 -0.000680454 0)
(-0.00011512 0.00113467 0)
(-0.00081381 0.00384772 0)
(-0.00234805 0.00677066 0)
(-0.00456257 0.00972816 0)
(-0.00737729 0.0125867 0)
(-0.0107344 0.0152417 0)
(-0.0145665 0.0176148 0)
(-0.0188001 0.0196498 0)
(-0.0233591 0.0213093 0)
(-0.0281652 0.0225713 0)
(-0.033139 0.0234258 0)
(-0.0382017 0.0238729 0)
(-0.0432754 0.0239205 0)
(-0.0482851 0.0235827 0)
(-0.0531585 0.0228784 0)
(-0.0578278 0.0218299 0)
(-0.0622293 0.0204627 0)
(-0.0663045 0.0188041 0)
(-0.0700004 0.0168833 0)
(-0.0732693 0.0147306 0)
(-0.0760698 0.0123775 0)
(-0.0783663 0.00985629 0)
(-0.0801297 0.00720012 0)
(-0.0813369 0.00444297 0)
(-0.0819718 0.0016196 0)
(-0.0820248 -0.00123442 0)
(-0.0814932 -0.00408272 0)
(-0.0803812 -0.00688819 0)
(-0.0787003 -0.00961305 0)
(-0.0764691 -0.012219 0)
(-0.0737137 -0.0146675 0)
(-0.0704674 -0.01692 0)
(-0.0667711 -0.0189386 0)
(-0.0626727 -0.0206861 0)
(-0.0582272 -0.0221274 0)
(-0.0534962 -0.0232294 0)
(-0.0485475 -0.0239627 0)
(-0.0434543 -0.024302 0)
(-0.0382944 -0.0242278 0)
(-0.0331488 -0.0237274 0)
(-0.0281011 -0.0227964 0)
(-0.0232355 -0.0214405 0)
(-0.0186352 -0.0196774 0)
(-0.0143813 -0.0175387 0)
(-0.0105504 -0.0150728 0)
(-0.00721447 -0.0123471 0)
(-0.00443681 -0.0094518 0)
(-0.00226866 -0.00650177 0)
(-0.000779564 -0.00363925 0)
(-0.000108303 -0.00104518 0)
(-0.00013274 0.00157879 0)
(-0.000932029 0.00510423 0)
(-0.00267824 0.00876949 0)
(-0.00518483 0.0124004 0)
(-0.00835292 0.0158619 0)
(-0.0121115 0.0190464 0)
(-0.0163806 0.0218724 0)
(-0.0210761 0.0242809 0)
(-0.0261122 0.0262324 0)
(-0.0314024 0.0277037 0)
(-0.0368603 0.0286851 0)
(-0.0424004 0.0291778 0)
(-0.0479397 0.029192 0)
(-0.0533977 0.0287447 0)
(-0.0586983 0.0278587 0)
(-0.0637693 0.0265609 0)
(-0.0685437 0.0248815 0)
(-0.0729602 0.0228535 0)
(-0.0769627 0.0205115 0)
(-0.0805014 0.017892 0)
(-0.0835327 0.0150324 0)
(-0.0860194 0.0119715 0)
(-0.0879307 0.00874881 0)
(-0.0892424 0.00540502 0)
(-0.0899374 0.00198165 0)
(-0.0900054 -0.0014788 0)
(-0.0894431 -0.00493289 0)
(-0.0882548 -0.00833626 0)
(-0.0864518 -0.0116438 0)
(-0.0840533 -0.0148096 0)
(-0.0810861 -0.0177877 0)
(-0.077585 -0.0205319 0)
(-0.0735922 -0.0229967 0)
(-0.0691578 -0.0251377 0)
(-0.0643395 -0.0269124 0)
(-0.0592022 -0.0282815 0)
(-0.0538174 -0.0292092 0)
(-0.0482628 -0.029665 0)
(-0.0426212 -0.0296252 0)
(-0.0369797 -0.0290736 0)
(-0.0314283 -0.0280043 0)
(-0.0260586 -0.0264224 0)
(-0.0209624 -0.024347 0)
(-0.0162297 -0.0218124 0)
(-0.0119477 -0.0188713 0)
(-0.00819975 -0.0155966 0)
(-0.00506182 -0.0120843 0)
(-0.00259822 -0.00845528 0)
(-0.000896533 -0.00485645 0)
(-0.000125425 -0.00147045 0)
(-0.000149619 0.00208223 0)
(-0.00104699 0.00652349 0)
(-0.00300164 0.0110181 0)
(-0.00579731 0.0153933 0)
(-0.009317 0.0195136 0)
(-0.0134764 0.0232701 0)
(-0.018183 0.0265795 0)
(-0.0233412 0.0293814 0)
(-0.0288552 0.0316358 0)
(-0.0346298 0.0333196 0)
(-0.040571 0.034424 0)
(-0.0465871 0.0349525 0)
(-0.0525889 0.0349181 0)
(-0.0584916 0.0343416 0)
(-0.0642143 0.0332501 0)
(-0.0696816 0.0316756 0)
(-0.0748232 0.0296538 0)
(-0.0795749 0.0272232 0)
(-0.0838785 0.0244247 0)
(-0.0876821 0.0213009 0)
(-0.0909405 0.0178957 0)
(-0.0936148 0.0142544 0)
(-0.0956729 0.0104233 0)
(-0.0970899 0.00644987 0)
(-0.0978474 0.00238268 0)
(-0.0979345 -0.00172865 0)
(-0.0973473 -0.00583335 0)
(-0.0960897 -0.00987958 0)
(-0.094173 -0.0138145 0)
(-0.0916165 -0.0175847 0)
(-0.0884474 -0.0211359 0)
(-0.0847011 -0.0244141 0)
(-0.0804212 -0.0273659 0)
(-0.0756595 -0.0299389 0)
(-0.0704758 -0.0320832 0)
(-0.0649378 -0.0337518 0)
(-0.0591206 -0.0349024 0)
(-0.0531062 -0.0354986 0)
(-0.0469824 -0.0355113 0)
(-0.0408424 -0.0349206 0)
(-0.0347831 -0.0337177 0)
(-0.0289038 -0.0319067 0)
(-0.0233052 -0.0295065 0)
(-0.0180873 -0.0265535 0)
(-0.0133484 -0.0231034 0)
(-0.00918416 -0.0192333 0)
(-0.00568359 -0.0150441 0)
(-0.00292425 -0.0106617 0)
(-0.00101131 -0.00623694 0)
(-0.00014193 -0.00195448 0)
(-0.00016608 0.00264362 0)
(-0.00116012 0.00810296 0)
(-0.00332136 0.0135139 0)
(-0.00640488 0.0187052 0)
(-0.010276 0.0235413 0)
(-0.0148372 0.0279132 0)
(-0.0199831 0.0317372 0)
(-0.0256062 0.0349531 0)
(-0.0316004 0.0375211 0)
(-0.0378614 0.0394198 0)
(-0.0442874 0.0406426 0)
(-0.0507797 0.041196 0)
(-0.0572437 0.0410967 0)
(-0.0635893 0.0403703 0)
(-0.0697318 0.0390489 0)
(-0.0755921 0.0371699 0)
(-0.0810972 0.034775 0)
(-0.0861805 0.031909 0)
(-0.0907817 0.028619 0)
(-0.0948473 0.0249541 0)
(-0.0983306 0.0209652 0)
(-0.101191 0.0167041 0)
(-0.103397 0.0122241 0)
(-0.104921 0.00757959 0)
(-0.105744 0.00282632 0)
(-0.105855 -0.00197882 0)
(-0.105249 -0.0067776 0)
(-0.103929 -0.0115105 0)
(-0.101907 -0.016117 0)
(-0.099201 -0.0205352 0)
(-0.0958389 -0.0247031 0)
(-0.0918561 -0.0285582 0)
(-0.0872972 -0.0320384 0)
(-0.082215 -0.0350833 0)
(-0.0766713 -0.0376343 0)
(-0.0707362 -0.0396369 0)
(-0.0644882 -0.041041 0)
(-0.0580133 -0.0418035 0)
(-0.0514045 -0.0418892 0)
(-0.044761 -0.0412733 0)
(-0.0381868 -0.0399432 0)
(-0.0317898 -0.0379006 0)
(-0.0256799 -0.0351636 0)
(-0.019968 -0.0317693 0)
(-0.0147641 -0.0277752 0)
(-0.0101768 -0.0232618 0)
(-0.00630865 -0.0183339 0)
(-0.00325079 -0.0131217 0)
(-0.00112566 -0.00778004 0)
(-0.000158198 -0.00249648 0)
(-0.000182401 0.00326233 0)
(-0.0012728 0.00984163 0)
(-0.00364055 0.0162564 0)
(-0.00701262 0.0223363 0)
(-0.0112368 0.0279463 0)
(-0.0162024 0.0329781 0)
(-0.0217909 0.0373485 0)
(-0.0278826 0.0409988 0)
(-0.0343607 0.0438912 0)
(-0.0411114 0.0460068 0)
(-0.0480247 0.0473425 0)
(-0.0549949 0.0479089 0)
(-0.0619215 0.0477278 0)
(-0.0687097 0.0468298 0)
(-0.0752706 0.0452531 0)
(-0.081522 0.0430413 0)
(-0.0873882 0.0402424 0)
(-0.0928004 0.0369079 0)
(-0.0976968 0.0330917 0)
(-0.102022 0.0288499 0)
(-0.105729 0.0242399 0)
(-0.108777 0.0193208 0)
(-0.11113 0.0141526 0)
(-0.112763 0.00879702 0)
(-0.113656 0.00331681 0)
(-0.113796 -0.00222374 0)
(-0.113177 -0.00775888 0)
(-0.111803 -0.0132214 0)
(-0.109684 -0.0185426 0)
(-0.106838 -0.0236527 0)
(-0.103291 -0.0284808 0)
(-0.0990807 -0.0329559 0)
(-0.0942504 -0.0370072 0)
(-0.0888542 -0.040565 0)
(-0.0829554 -0.0435621 0)
(-0.0766261 -0.045935 0)
(-0.0699478 -0.0476256 0)
(-0.0630104 -0.0485825 0)
(-0.0559122 -0.0487639 0)
(-0.0487586 -0.0481386 0)
(-0.041661 -0.0466892 0)
(-0.0347361 -0.0444138 0)
(-0.028104 -0.0413284 0)
(-0.0218868 -0.0374695 0)
(-0.0162072 -0.0328955 0)
(-0.0111873 -0.0276892 0)
(-0.00694396 -0.0219588 0)
(-0.00358201 -0.0158384 0)
(-0.00124135 -0.00948708 0)
(-0.000174568 -0.00309663 0)
(-0.000198823 0.00393843 0)
(-0.00138627 0.01174 0)
(-0.0039622 0.0192468 0)
(-0.00762546 0.0262887 0)
(-0.0122063 0.0327317 0)
(-0.0175806 0.0384683 0)
(-0.0236165 0.0434176 0)
(-0.0301818 0.047523 0)
(-0.0371484 0.0507501 0)
(-0.0443928 0.0530839 0)
(-0.0517965 0.0545263 0)
(-0.0592467 0.055093 0)
(-0.066637 0.0548117 0)
(-0.0738675 0.0537196 0)
(-0.0808457 0.0518614 0)
(-0.0874862 0.0492877 0)
(-0.093711 0.0460536 0)
(-0.0994495 0.0422177 0)
(-0.104639 0.0378411 0)
(-0.109222 0.0329868 0)
(-0.113152 0.0277195 0)
(-0.116385 0.0221051 0)
(-0.118888 0.0162109 0)
(-0.120633 0.0101055 0)
(-0.121599 0.0038589 0)
(-0.121774 -0.00245733 0)
(-0.12115 -0.00876994 0)
(-0.11973 -0.0150039 0)
(-0.117522 -0.0210827 0)
(-0.114545 -0.0269279 0)
(-0.110824 -0.0324601 0)
(-0.106395 -0.0375991 0)
(-0.101302 -0.0422649 0)
(-0.0955992 -0.0463784 0)
(-0.0893505 -0.0498627 0)
(-0.0826302 -0.0526447 0)
(-0.0755222 -0.0546569 0)
(-0.0681205 -0.0558392 0)
(-0.0605282 -0.0561413 0)
(-0.052857 -0.0555248 0)
(-0.0452263 -0.0539659 0)
(-0.037762 -0.0514578 0)
(-0.0305948 -0.0480131 0)
(-0.0238589 -0.0436663 0)
(-0.0176903 -0.0384758 0)
(-0.0122256 -0.0325256 0)
(-0.00759646 -0.0259268 0)
(-0.00392201 -0.0188175 0)
(-0.00136004 -0.0113614 0)
(-0.000191351 -0.00375602 0)
(-0.000215551 0.00467264 0)
(-0.00150164 0.0138 0)
(-0.00428906 0.0224882 0)
(-0.00824802 0.0305666 0)
(-0.013191 0.0379022 0)
(-0.01898 0.0443894 0)
(-0.0254694 0.0499498 0)
(-0.0325141 0.0545308 0)
(-0.0399745 0.0581024 0)
(-0.0477169 0.060655 0)
(-0.0556141 0.0621966 0)
(-0.0635461 0.0627495 0)
(-0.0714003 0.0623487 0)
(-0.0790722 0.0610387 0)
(-0.0864657 0.0588719 0)
(-0.0934923 0.0559067 0)
(-0.100072 0.0522058 0)
(-0.106133 0.0478356 0)
(-0.111612 0.0428645 0)
(-0.11645 0.037363 0)
(-0.1206 0.031403 0)
(-0.12402 0.0250575 0)
(-0.126673 0.0184008 0)
(-0.128532 0.0115085 0)
(-0.129577 0.00445764 0)
(-0.129791 -0.00267301 0)
(-0.12917 -0.00980283 0)
(-0.127713 -0.0168492 0)
(-0.125427 -0.0237273 0)
(-0.12233 -0.0303506 0)
(-0.118446 -0.0366307 0)
(-0.113809 -0.0424782 0)
(-0.108464 -0.0478032 0)
(-0.102463 -0.0525166 0)
(-0.0958716 -0.0565312 0)
(-0.0887649 -0.0597635 0)
(-0.0812293 -0.0621354 0)
(-0.0733622 -0.0635768 0)
(-0.0652716 -0.0640277 0)
(-0.0570757 -0.0634408 0)
(-0.0489019 -0.0617845 0)
(-0.0408857 -0.0590456 0)
(-0.0331691 -0.0552317 0)
(-0.0258991 -0.0503742 0)
(-0.0192259 -0.04453 0)
(-0.0133014 -0.0377838 0)
(-0.00827292 -0.0302489 0)
(-0.00427472 -0.0220674 0)
(-0.00148328 -0.0134085 0)
(-0.000208824 -0.00447657 0)
(-0.000232763 0.00546622 0)
(-0.00161992 0.0160249 0)
(-0.00462359 0.0259852 0)
(-0.0088845 0.0351758 0)
(-0.0141967 0.0434644 0)
(-0.0204077 0.050748 0)
(-0.0273579 0.0569518 0)
(-0.0348887 0.0620282 0)
(-0.0428483 0.065953 0)
(-0.0510928 0.0687237 0)
(-0.0594859 0.0703555 0)
(-0.0679002 0.0708792 0)
(-0.0762173 0.070338 0)
(-0.084328 0.0687851 0)
(-0.0921327 0.0662816 0)
(-0.0995406 0.0628944 0)
(-0.10647 0.0586948 0)
(-0.112848 0.0537572 0)
(-0.11861 0.0481581 0)
(-0.1237 0.0419756 0)
(-0.128067 0.0352887 0)
(-0.13167 0.0281777 0)
(-0.134473 0.0207237 0)
(-0.136449 0.0130093 0)
(-0.137575 0.00511824 0)
(-0.137837 -0.00286372 0)
(-0.137226 -0.0108488 0)
(-0.135742 -0.0187468 0)
(-0.13339 -0.0264652 0)
(-0.130186 -0.0339089 0)
(-0.126152 -0.0409806 0)
(-0.121322 -0.0475815 0)
(-0.115736 -0.0536114 0)
(-0.109449 -0.0589707 0)
(-0.102525 -0.0635609 0)
(-0.0950393 -0.0672871 0)
(-0.0870804 -0.0700598 0)
(-0.0787489 -0.0717972 0)
(-0.0701576 -0.0724281 0)
(-0.0614308 -0.0718948 0)
(-0.0527043 -0.0701563 0)
(-0.0441235 -0.0671909 0)
(-0.0358423 -0.0629999 0)
(-0.0280214 -0.0576097 0)
(-0.0208258 -0.0510749 0)
(-0.0144239 -0.0434795 0)
(-0.00897978 -0.0349388 0)
(-0.00464386 -0.0255991 0)
(-0.00161256 -0.0156355 0)
(-0.000227243 -0.00526104 0)
(-0.000250611 0.00632091 0)
(-0.00174199 0.018419 0)
(-0.00496803 0.0297442 0)
(-0.00953868 0.0401236 0)
(-0.0152286 0.0494263 0)
(-0.0218704 0.057552 0)
(-0.0292894 0.0644309 0)
(-0.037313 0.0700212 0)
(-0.0457771 0.0743066 0)
(-0.0545267 0.0772927 0)
(-0.0634167 0.0790041 0)
(-0.0723122 0.0794811 0)
(-0.0810887 0.0787767 0)
(-0.089633 0.0769543 0)
(-0.0978419 0.0740846 0)
(-0.105623 0.0702442 0)
(-0.112893 0.0655136 0)
(-0.11958 0.0599759 0)
(-0.125618 0.0537159 0)
(-0.13095 0.0468194 0)
(-0.135528 0.0393731 0)
(-0.139311 0.031464 0)
(-0.142263 0.0231802 0)
(-0.144356 0.0146107 0)
(-0.145568 0.00584586 0)
(-0.145883 -0.00302191 0)
(-0.145292 -0.011898 0)
(-0.143792 -0.0206851 0)
(-0.141388 -0.029283 0)
(-0.138092 -0.0375884 0)
(-0.133925 -0.045495 0)
(-0.128917 -0.0528942 0)
(-0.123109 -0.0596755 0)
(-0.116551 -0.065728 0)
(-0.109307 -0.0709414 0)
(-0.101454 -0.0752082 0)
(-0.0930799 -0.0784259 0)
(-0.0842883 -0.0804999 0)
(-0.0751964 -0.0813461 0)
(-0.0659347 -0.0808943 0)
(-0.0566472 -0.0790922 0)
(-0.0474896 -0.0759079 0)
(-0.0386284 -0.0713341 0)
(-0.0302384 -0.0653911 0)
(-0.0225009 -0.058129 0)
(-0.0156017 -0.0496308 0)
(-0.00972312 -0.040013 0)
(-0.00503297 -0.0294259 0)
(-0.00174925 -0.0180516 0)
(-0.000246849 -0.00611288 0)
(-0.000269236 0.00723892 0)
(-0.00186863 0.0209878 0)
(-0.00532439 0.0337727 0)
(-0.0102139 0.0454191 0)
(-0.0162914 0.0557971 0)
(-0.0233736 0.0648103 0)
(-0.0312699 0.0723946 0)
(-0.0397931 0.0785159 0)
(-0.0487659 0.0831669 0)
(-0.0580225 0.0863635 0)
(-0.0674081 0.0881411 0)
(-0.0767806 0.0885513 0)
(-0.0860099 0.0876589 0)
(-0.0949785 0.0855384 0)
(-0.103581 0.0822717 0)
(-0.111723 0.077946 0)
(-0.119321 0.0726517 0)
(-0.126303 0.0664813 0)
(-0.132604 0.0595283 0)
(-0.138169 0.0518865 0)
(-0.142949 0.0436499 0)
(-0.146905 0.0349126 0)
(-0.150002 0.025769 0)
(-0.152212 0.0163144 0)
(-0.153512 0.00664537 0)
(-0.153887 -0.0031397 0)
(-0.153325 -0.0129398 0)
(-0.151823 -0.0226508 0)
(-0.149382 -0.0321652 0)
(-0.146012 -0.0413718 0)
(-0.141732 -0.0501554 0)
(-0.136568 -0.0583977 0)
(-0.130557 -0.0659775 0)
(-0.123749 -0.0727719 0)
(-0.116205 -0.078658 0)
(-0.108 -0.0835149 0)
(-0.0992239 -0.0872256 0)
(-0.0899811 -0.0896809 0)
(-0.0803926 -0.090782 0)
(-0.0705952 -0.0904444 0)
(-0.0607407 -0.0886017 0)
(-0.0509956 -0.0852101 0)
(-0.0415392 -0.0802515 0)
(-0.0325616 -0.0737376 0)
(-0.0242613 -0.0657132 0)
(-0.016843 -0.0562584 0)
(-0.0105087 -0.0454904 0)
(-0.00544539 -0.0335636 0)
(-0.00189468 -0.0206675 0)
(-0.000267865 -0.00703629 0)
(-0.000288762 0.00822281 0)
(-0.0020006 0.0237376 0)
(-0.00569451 0.0380797 0)
(-0.0109134 0.0510723 0)
(-0.0173894 0.062587 0)
(-0.0249222 0.0725321 0)
(-0.0333044 0.0808505 0)
(-0.0423331 0.0875173 0)
(-0.0518177 0.0925362 0)
(-0.0615804 0.095935 0)
(-0.0714575 0.0977623 0)
(-0.0812992 0.0980829 0)
(-0.0909701 0.0969747 0)
(-0.100349 0.0945253 0)
(-0.109329 0.0908291 0)
(-0.117814 0.0859848 0)
(-0.125723 0.0800938 0)
(-0.132981 0.0732586 0)
(-0.139528 0.0655816 0)
(-0.14531 0.0571648 0)
(-0.150279 0.0481096 0)
(-0.154398 0.0385168 0)
(-0.157633 0.0284869 0)
(-0.159957 0.018121 0)
(-0.161348 0.00752102 0)
(-0.161788 -0.00320895 0)
(-0.161266 -0.0139622 0)
(-0.159775 -0.0246285 0)
(-0.157316 -0.0350935 0)
(-0.153894 -0.0452383 0)
(-0.149524 -0.0549394 0)
(-0.14423 -0.0640686 0)
(-0.138044 -0.0724938 0)
(-0.131013 -0.0800799 0)
(-0.123193 -0.0866905 0)
(-0.114659 -0.0921898 0)
(-0.105499 -0.0964454 0)
(-0.0958199 -0.0993314 0)
(-0.0857444 -0.100732 0)
(-0.0754147 -0.100547 0)
(-0.0649909 -0.0986921 0)
(-0.0546499 -0.0951098 0)
(-0.0445845 -0.0897686 0)
(-0.0350008 -0.0826695 0)
(-0.026116 -0.0738495 0)
(-0.0181552 -0.0633847 0)
(-0.0113419 -0.0513921 0)
(-0.00588432 -0.0380298 0)
(-0.00205009 -0.0234955 0)
(-0.000290514 -0.00803609 0)
(-0.000309313 0.00927555 0)
(-0.00213859 0.0266758 0)
(-0.00608015 0.0426751 0)
(-0.0116399 0.0570943 0)
(-0.0185262 0.0698071 0)
(-0.0265203 0.080727 0)
(-0.0353966 0.0898057 0)
(-0.0449358 0.0970293 0)
(-0.0549328 0.102414 0)
(-0.0651981 0.106003 0)
(-0.0755583 0.10786 0)
(-0.0858565 0.108064 0)
(-0.0959525 0.106709 0)
(-0.105722 0.103897 0)
(-0.115057 0.0997369 0)
(-0.123861 0.0943397 0)
(-0.132054 0.0878188 0)
(-0.139565 0.0802871 0)
(-0.146335 0.0718566 0)
(-0.152311 0.0626375 0)
(-0.157452 0.0527385 0)
(-0.161719 0.0422666 0)
(-0.165082 0.031328 0)
(-0.167515 0.0200289 0)
(-0.168995 0.00847615 0)
(-0.169507 -0.00322148 0)
(-0.169035 -0.0149523 0)
(-0.167573 -0.0266007 0)
(-0.165116 -0.0380463 0)
(-0.161667 -0.0491631 0)
(-0.157237 -0.0598195 0)
(-0.151844 -0.0698778 0)
(-0.145516 -0.0791949 0)
(-0.138294 -0.087623 0)
(-0.130232 -0.0950114 0)
(-0.121399 -0.101209 0)
(-0.111883 -0.106065 0)
(-0.101789 -0.109436 0)
(-0.0912425 -0.111187 0)
(-0.0803901 -0.111198 0)
(-0.0693992 -0.109367 0)
(-0.0584575 -0.105617 0)
(-0.0477715 -0.099901 0)
(-0.0375645 -0.0922066 0)
(-0.0280732 -0.082561 0)
(-0.0195453 -0.0710339 0)
(-0.0122279 -0.0577412 0)
(-0.00635286 -0.0428445 0)
(-0.00221676 -0.0265497 0)
(-0.000315013 -0.00911779 0)
(-0.000331013 0.0104004 0)
(-0.00228332 0.0298103 0)
(-0.00648307 0.0475699 0)
(-0.0123963 0.0634973 0)
(-0.0197055 0.0774687 0)
(-0.0281716 0.0894044 0)
(-0.0375496 0.0992662 0)
(-0.0476023 0.107054 0)
(-0.0581097 0.112799 0)
(-0.0688698 0.116561 0)
(-0.0796998 0.118421 0)
(-0.0904358 0.118477 0)
(-0.100933 0.11684 0)
(-0.111066 0.113629 0)
(-0.120725 0.108968 0)
(-0.129816 0.102982 0)
(-0.138261 0.095798 0)
(-0.145992 0.0875392 0)
(-0.152953 0.0783276 0)
(-0.159097 0.0682818 0)
(-0.164384 0.0575173 0)
(-0.168779 0.0461472 0)
(-0.172256 0.0342827 0)
(-0.174789 0.0220343 0)
(-0.176357 0.00951276 0)
(-0.176944 -0.00316926 0)
(-0.176534 -0.0158961 0)
(-0.175117 -0.0285478 0)
(-0.172687 -0.0409987 0)
(-0.169241 -0.0531168 0)
(-0.164785 -0.0647626 0)
(-0.159331 -0.0757896 0)
(-0.152902 -0.0860435 0)
(-0.145531 -0.0953639 0)
(-0.137268 -0.103585 0)
(-0.128177 -0.110539 0)
(-0.11834 -0.116056 0)
(-0.107862 -0.119972 0)
(-0.0968693 -0.122131 0)
(-0.0855112 -0.12239 0)
(-0.073962 -0.120625 0)
(-0.0624197 -0.116738 0)
(-0.0511052 -0.110662 0)
(-0.0402592 -0.102368 0)
(-0.0301401 -0.091871 0)
(-0.0210199 -0.0792316 0)
(-0.0131718 -0.0645629 0)
(-0.00685408 -0.0480293 0)
(-0.00239591 -0.0298454 0)
(-0.000341588 -0.0102875 0)
(-0.000353999 0.0116012 0)
(-0.00243557 0.0331502 0)
(-0.00690515 0.0527762 0)
(-0.0131856 0.0702943 0)
(-0.0209308 0.0855838 0)
(-0.0298796 0.0985732 0)
(-0.0397656 0.109237 0)
(-0.0503325 0.117589 0)
(-0.0613444 0.123682 0)
(-0.0725866 0.127594 0)
(-0.0838667 0.129426 0)
(-0.0950145 0.129298 0)
(-0.105882 0.127339 0)
(-0.116341 0.123689 0)
(-0.126285 0.118487 0)
(-0.135621 0.111876 0)
(-0.144275 0.103995 0)
(-0.152185 0.0949791 0)
(-0.159298 0.0849612 0)
(-0.165572 0.0740677 0)
(-0.170973 0.0624208 0)
(-0.175471 0.0501389 0)
(-0.179042 0.0373374 0)
(-0.181662 0.0241302 0)
(-0.183313 0.0106311 0)
(-0.183978 -0.00304474 0)
(-0.183641 -0.0167788 0)
(-0.18229 -0.0304479 0)
(-0.179912 -0.0439223 0)
(-0.176504 -0.0570648 0)
(-0.172062 -0.0697294 0)
(-0.166593 -0.0817608 0)
(-0.160111 -0.0929943 0)
(-0.152644 -0.103256 0)
(-0.144232 -0.112366 0)
(-0.134932 -0.120137 0)
(-0.124822 -0.12638 0)
(-0.114002 -0.130907 0)
(-0.102598 -0.133539 0)
(-0.0907605 -0.134106 0)
(-0.0786698 -0.132459 0)
(-0.0665337 -0.128474 0)
(-0.0545872 -0.122062 0)
(-0.0430899 -0.113172 0)
(-0.032323 -0.101803 0)
(-0.0225849 -0.0880041 0)
(-0.0141784 -0.0718837 0)
(-0.00739106 -0.0536078 0)
(-0.00258886 -0.0333996 0)
(-0.000370478 -0.0115521 0)
(-0.00037843 0.0128819 0)
(-0.00259623 0.0367056 0)
(-0.00734851 0.0583074 0)
(-0.014011 0.0774992 0)
(-0.0222061 0.0941644 0)
(-0.0316479 0.108241 0)
(-0.0420465 0.119719 0)
(-0.0531252 0.128633 0)
(-0.064631 0.135053 0)
(-0.0763362 0.139083 0)
(-0.0880391 0.140849 0)
(-0.0995636 0.140492 0)
(-0.110759 0.138167 0)
(-0.121498 0.134032 0)
(-0.131676 0.128248 0)
(-0.141204 0.120973 0)
(-0.150014 0.112361 0)
(-0.158049 0.102561 0)
(-0.165265 0.091715 0)
(-0.171625 0.0799572 0)
(-0.1771 0.0674164 0)
(-0.181667 0.0542155 0)
(-0.185305 0.0404733 0)
(-0.187996 0.0263061 0)
(-0.189722 0.011829 0)
(-0.190467 -0.00284119 0)
(-0.190214 -0.0175848 0)
(-0.188947 -0.0322767 0)
(-0.186653 -0.0467846 0)
(-0.18332 -0.0609674 0)
(-0.178939 -0.0746734 0)
(-0.173508 -0.0877398 0)
(-0.167033 -0.0999919 0)
(-0.159532 -0.111243 0)