/*--------------------------------*- C++ -*----------------------------------*\
  =========                 |
  \\      /  F ield         | OpenFOAM: The Open Source CFD Toolbox
   \\    /   O peration     | Website:  https://openfoam.org
    \\  /    A nd           | Version:  7
     \\/     M anipulation  |
\*---------------------------------------------------------------------------*/
FoamFile
{
    version     2.0;
    format      ascii;
    class       surfaceScalarField;
    location    "0.0338";
    object      phi;
}
// * * * * * * * * * * * * * * * * * * * * * * * * * * * * * * * * * * * * * //

dimensions      [0 3 -1 0 0 0 0];

internalField   nonuniform List<scalar> 
4900
(
-5.556e-06
5.55598e-06
-1.01617e-05
4.60573e-06
-1.29488e-05
2.78711e-06
-1.46677e-05
1.71888e-06
-1.57682e-05
1.10049e-06
-1.65045e-05
7.3626e-07
-1.7022e-05
5.17524e-07
-1.74028e-05
3.80799e-07
-1.76936e-05
2.90761e-07
-1.79219e-05
2.28368e-07
-1.81051e-05
1.83182e-07
-1.82543e-05
1.49235e-07
-1.83773e-05
1.2294e-07
-1.84793e-05
1.02037e-07
-1.85644e-05
8.50368e-08
-1.86353e-05
7.09228e-08
-1.86943e-05
5.89757e-08
-1.87429e-05
4.86727e-08
-1.87825e-05
3.96237e-08
-1.88141e-05
3.15306e-08
-1.88382e-05
2.41593e-08
-1.88556e-05
1.73215e-08
-1.88664e-05
1.08611e-08
-1.88711e-05
4.6445e-09
-1.88696e-05
-1.44766e-09
-1.88621e-05
-7.52413e-09
-1.88484e-05
-1.36925e-08
-1.88283e-05
-2.00604e-08
-1.88016e-05
-2.67431e-08
-1.87677e-05
-3.3869e-08
-1.87261e-05
-4.15871e-08
-1.86761e-05
-5.00771e-08
-1.86165e-05
-5.95632e-08
-1.85462e-05
-7.03323e-08
-1.84634e-05
-8.27626e-08
-1.8366e-05
-9.73648e-08
-1.82512e-05
-1.14848e-07
-1.8115e-05
-1.36223e-07
-1.7952e-05
-1.62984e-07
-1.77546e-05
-1.97418e-07
-1.75114e-05
-2.43175e-07
-1.72051e-05
-3.06338e-07
-1.68076e-05
-3.97478e-07
-1.6272e-05
-5.35613e-07
-1.55168e-05
-7.55186e-07
-1.4401e-05
-1.11582e-06
-1.26851e-05
-1.71582e-06
-9.94806e-06
-2.73709e-06
-5.45313e-06
-4.49493e-06
-5.45313e-06
-1.19569e-08
5.56794e-06
-2.1293e-06
6.72307e-06
-4.8534e-06
5.5112e-06
-7.26584e-06
4.13132e-06
-9.1977e-06
3.03236e-06
-1.07019e-05
2.24049e-06
-1.1872e-05
1.68764e-06
-1.27913e-05
1.30001e-06
-1.35232e-05
1.02266e-06
-1.41139e-05
8.19096e-07
-1.45964e-05
6.65751e-07
-1.49946e-05
5.47346e-07
-1.53254e-05
4.53807e-07
-1.56017e-05
3.78346e-07
-1.5833e-05
3.16272e-07
-1.60263e-05
2.6426e-07
-1.61872e-05
2.199e-07
-1.632e-05
1.81407e-07
-1.64278e-05
1.47424e-07
-1.65131e-05
1.16903e-07
-1.6578e-05
8.90116e-08
-1.66237e-05
6.30736e-08
-1.66514e-05
3.85244e-08
-1.66616e-05
1.48779e-08
-1.66548e-05
-8.29879e-09
-1.66309e-05
-3.14087e-08
-1.65898e-05
-5.48406e-08
-1.65308e-05
-7.89888e-08
-1.64533e-05
-1.04271e-07
-1.6356e-05
-1.3115e-07
-1.62374e-05
-1.60158e-07
-1.60956e-05
-1.91932e-07
-1.59279e-05
-2.27253e-07
-1.57311e-05
-2.67114e-07
-1.55011e-05
-3.12798e-07
-1.52324e-05
-3.66009e-07
-1.49182e-05
-4.29055e-07
-1.45493e-05
-5.05133e-07
-1.41135e-05
-5.9877e-07
-1.35944e-05
-7.16524e-07
-1.29695e-05
-8.68107e-07
-1.22077e-05
-1.06818e-06
-1.1266e-05
-1.33911e-06
-1.00866e-05
-1.71504e-06
-8.59541e-06
-2.24637e-06
-6.71248e-06
-2.99875e-06
-4.39849e-06
-4.02981e-06
-1.8222e-06
-5.31337e-06
1.22913e-07
-6.44004e-06
-5.33022e-06
1.03344e-06
4.5345e-06
5.51568e-07
7.20494e-06
-9.81142e-07
7.04391e-06
-2.8674e-06
6.01758e-06
-4.71371e-06
4.87867e-06
-6.35993e-06
3.88671e-06
-7.767e-06
3.09471e-06
-8.94835e-06
2.48136e-06
-9.93466e-06
2.00897e-06
-1.07584e-05
1.64286e-06
-1.14484e-05
1.35569e-06
-1.20281e-05
1.1271e-06
-1.25166e-05
9.423e-07
-1.29288e-05
7.90503e-07
-1.32763e-05
6.6384e-07
-1.35686e-05
5.56483e-07
-1.38127e-05
4.64062e-07
-1.40146e-05
3.83247e-07
-1.41786e-05
3.11457e-07
-1.43083e-05
2.46657e-07
-1.44065e-05
1.87208e-07
-1.44752e-05
1.31763e-07
-1.45159e-05
7.91856e-08
-1.45295e-05
2.84894e-08
-1.45166e-05
-2.12077e-08
-1.44773e-05
-7.07268e-08
-1.44113e-05
-1.20861e-07
-1.43178e-05
-1.7241e-07
-1.41959e-05
-2.26215e-07
-1.40438e-05
-2.83197e-07
-1.38596e-05
-3.44405e-07
-1.36405e-05
-4.11074e-07
-1.3383e-05
-4.84699e-07
-1.3083e-05
-5.67138e-07
-1.2735e-05
-6.60747e-07
-1.23325e-05
-7.68575e-07
-1.18669e-05
-8.9463e-07
-1.13278e-05
-1.04426e-06
-1.07019e-05
-1.22467e-06
-9.97268e-06
-1.44572e-06
-9.11993e-06
-1.72086e-06
-8.11969e-06
-2.06841e-06
-6.94612e-06
-2.51268e-06
-5.57724e-06
-3.08392e-06
-4.00964e-06
-3.81397e-06
-2.29018e-06
-4.71821e-06
-5.76444e-07
-5.74355e-06
7.63678e-07
-6.6535e-06
1.08639e-06
-6.76275e-06
-4.24383e-06
9.08229e-07
3.62627e-06
1.23623e-06
6.87694e-06
6.60554e-07
7.61959e-06
-4.93182e-07
7.17131e-06
-1.89644e-06
6.28193e-06
-3.33145e-06
5.32172e-06
-4.68172e-06
4.44498e-06
-5.89795e-06
3.69759e-06
-6.96805e-06
3.07907e-06
-7.89782e-06
2.57263e-06
-8.70027e-06
2.15814e-06
-9.39026e-06
1.81709e-06
-9.98202e-06
1.53405e-06
-1.04882e-05
1.29666e-06
-1.09195e-05
1.09521e-06
-1.12852e-05
9.22117e-07
-1.15925e-05
7.71424e-07
-1.18477e-05
6.3844e-07
-1.20557e-05
5.19422e-07
-1.22204e-05
4.11348e-07
-1.23449e-05
3.11736e-07
-1.24317e-05
2.18514e-07
-1.24824e-05
1.29912e-07
-1.24983e-05
4.43778e-08
-1.248e-05
-3.94834e-08
-1.24278e-05
-1.22972e-07
-1.23413e-05
-2.07344e-07
-1.22198e-05
-2.93855e-07
-1.20622e-05
-3.83815e-07
-1.18668e-05
-4.78641e-07
-1.16313e-05
-5.7992e-07
-1.13529e-05
-6.89483e-07
-1.10281e-05
-8.09505e-07
-1.06526e-05
-9.42622e-07
-1.02212e-05
-1.09209e-06
-9.72783e-06
-1.26198e-06
-9.165e-06
-1.45746e-06
-8.52417e-06
-1.68508e-06
-7.79565e-06
-1.9532e-06
-6.96899e-06
-2.27237e-06
-6.03418e-06
-2.65566e-06
-4.98412e-06
-3.11847e-06
-3.81971e-06
-3.67709e-06
-2.5595e-06
-4.34414e-06
-1.25643e-06
-5.11704e-06
-2.29414e-08
-5.9517e-06
9.42509e-07
-6.709e-06
1.34792e-06
-7.05891e-06
9.1614e-07
-6.33097e-06
-3.32769e-06
6.74546e-07
2.95172e-06
1.25418e-06
6.29731e-06
1.24641e-06
7.62737e-06
6.91533e-07
7.72618e-06
-2.23507e-07
7.19697e-06
-1.31693e-06
6.41514e-06
-2.45702e-06
5.58507e-06
-3.56301e-06
4.80359e-06
-4.59202e-06
4.10807e-06
-5.52527e-06
3.50589e-06
-6.35806e-06
2.99093e-06
-7.0931e-06
2.55214e-06
-7.73662e-06
2.17757e-06
-8.29611e-06
1.85615e-06
-8.77913e-06
1.57824e-06
-9.19275e-06
1.33574e-06
-9.54325e-06
1.12192e-06
-9.83606e-06
9.31248e-07
-1.00758e-05
7.59139e-07
-1.02662e-05
6.01779e-07
-1.04104e-05
4.55964e-07
-1.05109e-05
3.18963e-07
-1.05694e-05
1.88406e-07
-1.05872e-05
6.21965e-08
-1.05651e-05
-6.157e-08
-1.05034e-05
-1.8467e-07
-1.04019e-05
-3.08814e-07
-1.02601e-05
-4.35703e-07
-1.00768e-05
-5.6709e-07
-9.85062e-06
-7.04842e-07
-9.57953e-06
-8.51005e-07
-9.26112e-06
-1.00789e-06
-8.89244e-06
-1.17818e-06
-8.47006e-06
-1.36501e-06
-7.99001e-06
-1.57214e-06
-7.44793e-06
-1.80407e-06
-6.83916e-06
-2.06623e-06
-6.1591e-06
-2.36514e-06
-5.40386e-06
-2.70843e-06
-4.57147e-06
-3.10476e-06
-3.66392e-06
-3.56321e-06
-2.69071e-06
-4.09169e-06
-1.67443e-06
-4.69337e-06
-6.59126e-07
-5.35944e-06
2.78923e-07
-6.05509e-06
1.02166e-06
-6.69444e-06
1.41238e-06
-7.09971e-06
1.29818e-06
-6.94471e-06
6.66392e-07
-5.69919e-06
-2.66129e-06
4.83914e-07
2.46781e-06
1.08921e-06
5.69201e-06
1.36932e-06
7.34726e-06
1.22315e-06
7.87236e-06
7.17672e-07
7.70244e-06
-2.92327e-08
7.16204e-06
-9.06193e-07
6.46203e-06
-1.82864e-06
5.72603e-06
-2.73969e-06
5.01912e-06
-3.60475e-06
4.37095e-06
-4.40496e-06
3.79113e-06
-5.13171e-06
3.27889e-06
-5.7827e-06
2.82856e-06
-6.3592e-06
2.43265e-06
-6.86437e-06
2.08341e-06
-7.30217e-06
1.77354e-06
-7.67678e-06
1.49653e-06
-7.99218e-06
1.24665e-06
-8.25201e-06
1.01897e-06
-8.45944e-06
8.09211e-07
-8.61716e-06
6.13686e-07
-8.72737e-06
4.29167e-07
-8.79177e-06
2.52805e-07
-8.81161e-06
8.20412e-08
-8.78772e-06
-8.54652e-08
-8.72048e-06
-2.51906e-07
-8.60991e-06
-4.19388e-07
-8.45562e-06
-5.89987e-07
-8.2569e-06
-7.65816e-07
-8.01266e-06
-9.4908e-07
-7.72152e-06
-1.14215e-06
-7.3818e-06
-1.34761e-06
-6.9916e-06
-1.56838e-06
-6.54885e-06
-1.80775e-06
-6.0515e-06
-2.06948e-06
-5.49771e-06
-2.35785e-06
-4.88626e-06
-2.67769e-06
-4.21715e-06
-3.03425e-06
-3.49259e-06
-3.43299e-06
-2.71849e-06
-3.87886e-06
-1.90672e-06
-4.37499e-06
-1.07831e-06
-4.9201e-06
-2.67708e-07
-5.50397e-06
4.72432e-07
-6.09958e-06
1.06766e-06
-6.65032e-06
1.42423e-06
-7.05101e-06
1.4477e-06
-7.12318e-06
1.09352e-06
-6.59053e-06
4.70369e-07
-5.07603e-06
-2.19093e-06
3.52126e-07
2.11568e-06
9.05937e-07
5.1382e-06
1.30933e-06
6.94386e-06
1.41414e-06
7.76755e-06
1.21192e-06
7.90466e-06
7.61909e-07
7.61205e-06
1.42489e-07
7.08145e-06
-5.73758e-07
6.44228e-06
-1.32951e-06
5.77488e-06
-2.08363e-06
5.12507e-06
-2.80874e-06
4.51625e-06
-3.48791e-06
3.95806e-06
-4.11159e-06
3.45224e-06
-4.67519e-06
2.99625e-06
-5.17729e-06
2.58551e-06
-5.61839e-06
2.21464e-06
-6.00006e-06
1.8782e-06
-6.32441e-06
1.57099e-06
-6.59368e-06
1.28824e-06
-6.81007e-06
1.02561e-06
-6.9756e-06
7.79217e-07
-7.09201e-06
5.45578e-07
-7.16075e-06
3.21536e-07
-7.18292e-06
1.04212e-07
-7.15933e-06
-1.09055e-07
-7.09047e-06
-3.20766e-07
-6.97654e-06
-5.33317e-07
-6.81747e-06
-7.49052e-07
-6.61297e-06
-9.70319e-07
-6.36254e-06
-1.19951e-06
-6.06554e-06
-1.43914e-06
-5.7213e-06
-1.69186e-06
-5.32917e-06
-1.9605e-06
-4.88876e-06
-2.24817e-06
-4.40011e-06
-2.55814e-06
-3.86406e-06
-2.8939e-06
-3.28279e-06
-3.25896e-06
-2.66049e-06
-3.65655e-06
-2.00443e-06
-4.08904e-06
-1.32639e-06
-4.55691e-06
-6.44432e-07
-5.05694e-06
1.47962e-08
-5.57933e-06
6.13876e-07
-6.10305e-06
1.10327e-06
-6.58897e-06
1.42302e-06
-6.97007e-06
1.51139e-06
-7.13938e-06
1.32645e-06
-6.93825e-06
8.87387e-07
-6.15146e-06
3.37055e-07
-4.5257e-06
-1.85387e-06
2.6518e-07
1.8505e-06
7.49509e-07
4.65387e-06
1.18957e-06
6.5038e-06
1.43632e-06
7.5208e-06
1.44251e-06
7.89847e-06
1.22476e-06
7.8298e-06
8.29759e-07
7.47645e-06
3.1177e-07
6.96027e-06
-2.79372e-07
6.36602e-06
-9.0308e-07
5.74877e-06
-1.52878e-06
5.14195e-06
-2.13476e-06
4.56404e-06
-2.70642e-06
4.02389e-06
-3.23449e-06
3.52432e-06
-3.71354e-06
3.06456e-06
-4.14077e-06
2.64187e-06
-4.51511e-06
2.25255e-06
-4.83663e-06
1.89251e-06
-5.106e-06
1.55761e-06
-5.32425e-06
1.24386e-06
-5.49254e-06
9.47509e-07
-5.61201e-06
6.65052e-07
-5.68372e-06
3.93239e-07
-5.70855e-06
1.29044e-07
-5.68724e-06
-1.30363e-07
-5.62035e-06
-3.87656e-07
-5.50828e-06
-6.45391e-07
-5.35128e-06
-9.06045e-07
-5.14955e-06
-1.17205e-06
-4.90322e-06
-1.44584e-06
-4.6125e-06
-1.72986e-06
-4.27775e-06
-2.0266e-06
-3.89967e-06
-2.33858e-06
-3.47949e-06
-2.66835e-06
-3.01926e-06
-3.01838e-06
-2.52223e-06
-3.39093e-06
-1.9934e-06
-3.78778e-06
-1.44023e-06
-4.20973e-06
-8.7345e-07
-4.65582e-06
-3.0823e-07
-5.12213e-06
2.34688e-07
-5.59986e-06
7.27882e-07
-6.07252e-06
1.1368e-06
-6.51197e-06
1.42089e-06
-6.87306e-06
1.53805e-06
-7.08723e-06
1.45478e-06
-7.05611e-06
1.16479e-06
-6.64825e-06
7.17232e-07
-5.70391e-06
2.49555e-07
-4.05802e-06
-1.60432e-06
2.07158e-07
1.64335e-06
6.25395e-07
4.23563e-06
1.06033e-06
6.06887e-06
1.37996e-06
7.20116e-06
1.5217e-06
7.75674e-06
1.47545e-06
7.87604e-06
1.26277e-06
7.68914e-06
9.19589e-07
7.30344e-06
4.84916e-07
6.80069e-06
-5.51242e-09
6.2392e-06
-5.2187e-07
5.6583e-06
-1.04086e-06
5.08303e-06
-1.54512e-06
4.52815e-06
-2.02223e-06
4.00143e-06
-2.46369e-06
3.50602e-06
-2.86395e-06
3.04213e-06
-3.21958e-06
2.60818e-06
-3.52868e-06
2.20161e-06
-3.79039e-06
1.81931e-06
-4.0045e-06
1.45797e-06
-4.17123e-06
1.11424e-06
-4.29105e-06
7.8487e-07
-4.36453e-06
4.66721e-07
-4.39229e-06
1.56806e-07
-4.37494e-06
-1.47709e-07
-4.31308e-06
-4.49522e-07
-4.20726e-06
-7.51205e-07
-4.05809e-06
-1.05522e-06
-3.86619e-06
-1.36395e-06
-3.63234e-06
-1.67969e-06
-3.35756e-06
-2.00465e-06
-3.0432e-06
-2.34096e-06
-2.69117e-06
-2.69061e-06
-2.30415e-06
-3.05537e-06
-1.88584e-06
-3.43668e-06
-1.44143e-06
-3.83534e-06
-9.77962e-07
-4.25125e-06
-5.04962e-07
-4.68273e-06
-3.50569e-08
-5.12573e-06
4.15363e-07
-5.57255e-06
8.25613e-07
-6.01011e-06
1.17059e-06
-6.41749e-06
1.42154e-06
-6.76292e-06
1.54852e-06
-7.00005e-06
1.52564e-06
-7.06436e-06
1.34028e-06
-6.87075e-06
1.00693e-06
-6.3149e-06
5.84488e-07
-5.28147e-06
1.91217e-07
-3.66475e-06
-1.4131e-06
1.67103e-07
1.47624e-06
5.28488e-07
3.87425e-06
9.3992e-07
5.65744e-06
1.29072e-06
6.85036e-06
1.51594e-06
7.53152e-06
1.59086e-06
7.80112e-06
1.5193e-06
7.7607e-06
1.32175e-06
7.50099e-06
1.02607e-06
7.09637e-06
6.61227e-07
6.60405e-06
2.53771e-07
6.06576e-06
-1.73716e-07
5.51052e-06
-6.03063e-07
4.9575e-06
-1.02022e-06
4.41858e-06
-1.41469e-06
3.90049e-06
-1.77888e-06
3.40632e-06
-2.10748e-06
2.93679e-06
-2.39691e-06
2.49105e-06
-2.64489e-06
2.06729e-06
-2.85005e-06
1.66312e-06
-3.01169e-06
1.27589e-06
-3.12959e-06
9.02764e-07
-3.20381e-06
5.40941e-07
-3.23465e-06
1.87647e-07
-3.22256e-06
-1.59799e-07
-3.16812e-06
-5.03964e-07
-3.07203e-06
-8.47294e-07
-2.93515e-06
-1.19211e-06
-2.75852e-06
-1.54057e-06
-2.54349e-06
-1.89472e-06
-2.29175e-06
-2.25639e-06
-2.00553e-06
-2.62718e-06
-1.68772e-06
-3.00842e-06
-1.34214e-06
-3.40096e-06
-9.73752e-07
-3.80506e-06
-5.89023e-07
-4.22007e-06
-1.96254e-07
-4.64402e-06
1.94012e-07
-5.073e-06
5.68627e-07
-5.50034e-06
9.11568e-07
-5.91549e-06
1.20394e-06
-6.30248e-06
1.42453e-06
-6.63808e-06
1.5512e-06
-6.88959e-06
1.56387e-06
-7.01271e-06
1.44936e-06
-6.94985e-06
1.20879e-06
-6.63018e-06
8.6695e-07
-5.97305e-06
4.82032e-07
-4.89655e-06
1.50973e-07
-3.33369e-06
-1.26213e-06
1.38302e-07
1.33794e-06
4.52271e-07
3.56028e-06
8.33323e-07
5.27639e-06
1.19079e-06
6.49289e-06
1.46369e-06
7.25862e-06
1.62066e-06
7.64416e-06
1.65415e-06
7.72721e-06
1.57289e-06
7.58225e-06
1.39486e-06
7.2744e-06
1.14192e-06
6.85699e-06
8.36204e-07
6.37147e-06
4.98045e-07
5.84868e-06
1.44967e-07
5.31057e-06
-2.08594e-07
4.77215e-06
-5.51155e-07
4.24305e-06
-8.7385e-07
3.72901e-06
-1.17001e-06
3.23295e-06
-1.43476e-06
2.7558e-06
-1.66463e-06
2.29716e-06
-1.85726e-06
1.85575e-06
-2.01111e-06
1.42973e-06
-2.12527e-06
1.01693e-06
-2.19934e-06
6.15011e-07
-2.23327e-06
2.21578e-07
-2.22733e-06
-1.65747e-07
-2.18202e-06
-5.49266e-07
-2.09815e-06
-9.31168e-07
-1.97676e-06
-1.31349e-06
-1.81924e-06
-1.6981e-06
-1.62734e-06
-2.08661e-06
-1.40334e-06
-2.48039e-06
-1.15009e-06
-2.88043e-06
-8.7125e-07
-3.28726e-06
-5.71408e-07
-3.7008e-06
-2.56337e-07
-4.12013e-06
6.67819e-08
-4.54319e-06
3.89118e-07
-4.96635e-06
6.99973e-07
-5.38385e-06
9.86653e-07
-5.78702e-06
1.23452e-06
-6.16336e-06
1.42734e-06
-6.49531e-06
1.54824e-06
-6.75897e-06
1.58133e-06
-6.92269e-06
1.51459e-06
-6.94597e-06
1.34391e-06
-6.77917e-06
1.07854e-06
-6.36481e-06
7.47047e-07
-5.64157e-06
4.02289e-07
-4.55179e-06
1.22113e-07
-3.05351e-06
-1.14001e-06
1.16727e-07
1.22121e-06
3.91248e-07
3.28576e-06
7.40368e-07
4.92727e-06
1.09039e-06
6.14287e-06
1.3868e-06
6.96221e-06
1.59644e-06
7.43451e-06
1.70519e-06
7.61846e-06
1.71345e-06
7.57399e-06
1.63122e-06
7.35663e-06
1.47386e-06
7.01436e-06
1.25878e-06
6.58655e-06
1.00332e-06
6.10414e-06
7.23402e-07
5.59049e-06
4.32916e-07
5.06263e-06
1.43495e-07
4.53247e-06
-1.35405e-07
4.00791e-06
-3.96302e-07
3.49384e-06
-6.33419e-07
2.99291e-06
-8.42408e-07
2.50615e-06
-1.02009e-06
2.03343e-06
-1.16422e-06
1.57386e-06
-1.27331e-06
1.12603e-06
-1.3465e-06
6.88202e-07
-1.38341e-06
2.5849e-07
-1.3841e-06
-1.6506e-07
-1.349e-06
-5.8437e-07
-1.2789e-06
-1.00126e-06
-1.175e-06
-1.41739e-06
-1.03889e-06
-1.83421e-06
-8.72652e-07
-2.25286e-06
-6.78914e-07
-2.67413e-06
-4.6099e-07
-3.09835e-06
-2.22988e-07
-3.52526e-06
3.00392e-08
-3.95383e-06
2.91936e-07
-4.38203e-06
5.55294e-07
-4.80655e-06
8.11322e-07
-5.22238e-06
1.04978e-06
-5.62231e-06
1.25906e-06
-5.9963e-06
1.4264e-06
-6.3307e-06
1.53853e-06
-6.60744e-06
1.58266e-06
-6.80311e-06
1.54822e-06
-6.88824e-06
1.42923e-06
-6.82698e-06
1.22757e-06
-6.57751e-06
9.56687e-07
-6.09393e-06
6.45222e-07
-5.3301e-06
3.39157e-07
-4.24573e-06
1.00609e-07
-2.81497e-06
-1.0394e-06
9.99358e-08
1.12128e-06
3.41295e-07
3.0444e-06
6.59203e-07
4.60936e-06
9.93748e-07
5.80833e-06
1.29746e-06
6.6585e-06
1.53813e-06
7.19384e-06
1.69833e-06
7.45827e-06
1.77295e-06
7.49936e-06
1.76601e-06
7.36357e-06
1.68734e-06
7.09303e-06
1.54993e-06
6.72396e-06
1.36789e-06
6.28618e-06
1.15504e-06
5.80334e-06
9.24087e-07
5.29358e-06
6.86203e-07
4.77035e-06
4.50864e-07
4.24325e-06
2.25887e-07
3.71882e-06
1.75608e-08
3.20124e-06
-1.6918e-07
2.69289e-06
-3.30563e-07
2.19481e-06
-4.63798e-07
1.70709e-06
-5.66922e-07
1.22915e-06
-6.38665e-07
7.59945e-07
-6.78351e-07
2.98175e-07
-6.8582e-07
-1.57592e-07
-6.61386e-07
-6.08804e-07
-6.05816e-07
-1.05683e-06
-5.20336e-07
-1.50287e-06
-4.06656e-07
-1.94789e-06
-2.67023e-07
-2.39249e-06
-1.04287e-07
-2.83687e-06
7.80171e-08
-3.28066e-06
2.75566e-07
-3.72281e-06
4.8315e-07
-4.16141e-06
6.94577e-07
-4.59346e-06
9.02589e-07
-5.01456e-06
1.09884e-06
-5.41864e-06
1.27396e-06
-5.79743e-06
1.4177e-06
-6.14004e-06
1.51938e-06
-6.43238e-06
1.56854e-06
-6.65659e-06
1.55595e-06
-6.79052e-06
1.47519e-06
-6.80748e-06
1.32456e-06
-6.67635e-06
1.10954e-06
-6.36248e-06
8.45223e-07
-5.82962e-06
5.58383e-07
-5.04326e-06
2.88117e-07
-3.97546e-06
8.40031e-08
-2.61085e-06
-9.55401e-07
8.64084e-08
1.03487e-06
2.99431e-07
2.83137e-06
5.8767e-07
4.32112e-06
9.02242e-07
5.49375e-06
1.20239e-06
6.35835e-06
1.45822e-06
6.93801e-06
1.65115e-06
7.26533e-06
1.77278e-06
7.37774e-06
1.82278e-06
7.31357e-06
1.80664e-06
7.10917e-06
1.73348e-06
6.79712e-06
1.61428e-06
6.40537e-06
1.4606e-06
5.95702e-06
1.28363e-06
5.47056e-06
1.09363e-06
4.96035e-06
8.99696e-07
4.43719e-06
7.09573e-07
3.90894e-06
5.29727e-07
3.38109e-06
3.654e-07
2.85722e-06
2.20738e-07
2.33947e-06
9.89163e-08
1.82892e-06
2.2638e-09
1.3258e-06
-6.76279e-08
8.29837e-07
-1.09814e-07
3.40362e-07
-1.23931e-07
-1.43475e-07
-1.10149e-07
-6.22586e-07
-6.91522e-08
-1.09783e-06
-2.13416e-09
-1.56989e-06
8.91781e-08
-2.0392e-06
2.02499e-07
-2.50581e-06
3.34925e-07
-2.96929e-06
4.82878e-07
-3.42861e-06
6.42039e-07
-3.88197e-06
8.07287e-07
-4.32666e-06
9.72655e-07
-4.75882e-06
1.13131e-06
-5.17322e-06
1.27562e-06
-5.56295e-06
1.39726e-06
-5.91906e-06
1.48749e-06
-6.23027e-06
1.53761e-06
-6.4825e-06
1.53962e-06
-6.6586e-06
1.48722e-06
-6.73811e-06
1.37702e-06
-6.69729e-06
1.21019e-06
-6.50952e-06
9.94061e-07
-6.14636e-06
7.43817e-07
-5.57937e-06
4.83496e-07
-4.78294e-06
2.45909e-07
-3.73788e-06
7.07525e-08
-2.4357e-06
-8.84648e-07
7.51698e-08
9.597e-07
2.63525e-07
2.64302e-06
5.23798e-07
4.06085e-06
8.15914e-07
5.20164e-06
1.10515e-06
6.06911e-06
1.36453e-06
6.67864e-06
1.57566e-06
7.0542e-06
1.72837e-06
7.22503e-06
1.81944e-06
7.2225e-06
1.85106e-06
7.07755e-06
1.82913e-06
6.81904e-06
1.76188e-06
6.47262e-06
1.65861e-06
6.06029e-06
1.52886e-06
5.60032e-06
1.38176e-06
5.10745e-06
1.2257e-06
4.59325e-06
1.06808e-06
4.06656e-06
9.15265e-07
3.5339e-06
7.7256e-07
2.99992e-06
6.44284e-07
2.46775e-06
5.33841e-07
1.93936e-06
4.43809e-07
1.41584e-06
3.76021e-07
8.97625e-07
3.31642e-07
3.8474e-07
3.11228e-07
-1.2306e-07
3.14762e-07
-6.2612e-07
3.41683e-07
-1.12475e-06
3.90891e-07
-1.6191e-06
4.60739e-07
-2.10905e-06
5.49005e-07
-2.59408e-06
6.52869e-07
-3.07316e-06
7.68866e-07
-3.54461e-06
8.92858e-07
-4.00596e-06
1.02e-06
-4.4538e-06
1.14473e-06
-4.88356e-06
1.26084e-06
-5.28933e-06
1.36152e-06
-5.66363e-06
1.43958e-06
-5.99712e-06
1.48773e-06
-6.27842e-06
1.49905e-06
-6.49382e-06
1.46762e-06
-6.62717e-06
1.38934e-06
-6.65984e-06
1.26301e-06
-6.57095e-06
1.09145e-06
-6.33796e-06
8.82749e-07
-5.93766e-06
6.51238e-07
-5.34786e-06
4.17947e-07
-4.54965e-06
2.10187e-07
-3.53012e-06
5.98545e-08
-2.28536e-06
-8.24794e-07
6.55727e-08
8.94127e-07
2.32046e-07
2.47654e-06
4.65943e-07
3.82695e-06
7.34265e-07
4.93332e-06
1.00757e-06
5.79581e-06
1.26196e-06
6.42425e-06
1.48003e-06
6.83613e-06
1.65091e-06
7.05415e-06
1.76959e-06
7.10382e-06
1.83587e-06
7.01128e-06
1.85313e-06
6.80178e-06
1.82722e-06
6.49853e-06
1.7654e-06
6.12211e-06
1.67556e-06
5.69016e-06
1.56559e-06
5.21741e-06
1.44302e-06
4.71582e-06
1.31468e-06
4.1949e-06
1.18663e-06
3.66196e-06
1.06404e-06
3.12251e-06
9.51227e-07
2.58056e-06
8.51687e-07
2.0389e-06
7.68134e-07
1.49939e-06
7.02564e-07
9.63195e-07
6.56314e-07
4.3099e-07
6.30104e-07
-9.68511e-08
6.2408e-07
-6.20095e-07
6.37829e-07
-1.1385e-06
6.70396e-07
-1.65167e-06
7.20282e-07
-2.15893e-06
7.85427e-07
-2.65922e-06
8.63199e-07
-3.15093e-06
9.50374e-07
-3.63178e-06
1.04312e-06
-4.09871e-06
1.137e-06
-4.54768e-06
1.227e-06
-4.97356e-06
1.3076e-06
-5.36993e-06
1.37288e-06
-5.72891e-06
1.41677e-06
-6.04101e-06
1.4333e-06
-6.29495e-06
1.41707e-06
-6.47759e-06
1.36378e-06
-6.57389e-06
1.27099e-06
-6.56705e-06
1.13888e-06
-6.43884e-06
9.71161e-07
-6.17023e-06
7.75875e-07
-5.74237e-06
5.66006e-07
-5.13799e-06
3.59606e-07
-4.34325e-06
1.79253e-07
-3.34976e-06
5.06358e-08
-2.15675e-06
-7.74158e-07
5.71747e-08
8.36953e-07
2.03886e-07
2.32983e-06
4.12784e-07
3.61805e-06
6.56622e-07
4.68948e-06
9.10529e-07
5.5419e-06
1.15362e-06
6.18116e-06
1.36991e-06
6.61983e-06
1.54857e-06
6.87549e-06
1.6836e-06
6.96878e-06
1.77319e-06
6.9217e-06
1.8188e-06
6.75617e-06
1.82434e-06
6.49299e-06
1.79528e-06
6.15117e-06
1.73797e-06
5.74747e-06
1.65908e-06
5.2963e-06
1.56515e-06
4.80975e-06
1.46235e-06
4.2977e-06
1.35625e-06
3.76805e-06
1.25178e-06
3.22699e-06
1.15309e-06
2.67924e-06
1.06366e-06
2.12834e-06
9.86221e-07
1.57682e-06
9.22871e-07
1.02654e-06
8.75063e-07
4.78799e-07
8.43657e-07
-6.54456e-08
8.28953e-07
-6.05392e-07
8.30708e-07
-1.14025e-06
8.48147e-07
-1.66911e-06
8.79973e-07
-2.19076e-06
9.24358e-07
-2.70361e-06
9.78944e-07
-3.20551e-06
1.04083e-06
-3.69367e-06
1.1066e-06
-4.16447e-06
1.17229e-06
-4.61338e-06
1.23352e-06
-5.03479e-06
1.28549e-06
-5.4219e-06
1.32317e-06
-5.76659e-06
1.34151e-06
-6.05935e-06
1.3357e-06
-6.28914e-06
1.30158e-06
-6.44347e-06
1.23612e-06
-6.50843e-06
1.13799e-06
-6.46891e-06
1.00819e-06
-6.30904e-06
8.50709e-07
-6.01276e-06
6.73079e-07
-5.56474e-06
4.8669e-07
-4.95161e-06
3.06776e-07
-4.16333e-06
1.51864e-07
-3.19485e-06
4.26305e-08
-2.04751e-06
-7.31527e-07
4.96652e-08
7.87287e-07
1.78232e-07
2.20127e-06
3.63282e-07
3.433e-06
5.82305e-07
4.47046e-06
8.14388e-07
5.30982e-06
1.04149e-06
5.95406e-06
1.24925e-06
6.41207e-06
1.42737e-06
6.69738e-06
1.56945e-06
6.8267e-06
1.67267e-06
6.81848e-06
1.73711e-06
6.69172e-06
1.76515e-06
6.46496e-06
1.76074e-06
6.15557e-06
1.72888e-06
5.77934e-06
1.67502e-06
5.35016e-06
1.60477e-06
4.88e-06
1.52354e-06
4.37894e-06
1.43634e-06
3.85525e-06
1.3477e-06
3.31563e-06
1.26154e-06
2.7654e-06
1.1812e-06
2.20868e-06
1.10937e-06
1.64865e-06
1.04816e-06
1.08776e-06
9.99093e-07
5.27866e-07
9.63142e-07
-2.94944e-08
9.4075e-07
-5.82999e-07
9.31847e-07
-1.13135e-06
9.35867e-07
-1.67313e-06
9.51751e-07
-2.20664e-06
9.77954e-07
-2.72981e-06
1.01245e-06
-3.24001e-06
1.05273e-06
-3.73395e-06
1.09583e-06
-4.20757e-06
1.13835e-06
-4.6559e-06
1.17652e-06
-5.07296e-06
1.2063e-06
-5.45167e-06
1.22349e-06
-5.78379e-06
1.22396e-06
-6.05981e-06
1.20387e-06
-6.26906e-06
1.16006e-06
-6.39966e-06
1.0904e-06
-6.43876e-06
9.94271e-07
-6.37279e-06
8.73074e-07
-6.18784e-06
7.30665e-07
-5.87035e-06
5.73742e-07
-5.40782e-06
4.1202e-07
-4.78988e-06
2.58126e-07
-4.00944e-06
1.27102e-07
-3.06383e-06
3.55085e-08
-1.95592e-06
-6.96019e-07
4.28211e-08
7.44466e-07
1.54483e-07
2.0896e-06
3.16625e-07
3.27086e-06
5.10703e-07
4.27638e-06
7.19244e-07
5.10128e-06
9.26842e-07
5.74646e-06
1.12086e-06
6.21805e-06
1.2918e-06
6.52644e-06
1.43333e-06
6.68517e-06
1.54206e-06
6.70976e-06
1.61713e-06
6.61665e-06
1.65977e-06
6.42233e-06
1.67269e-06
6.14265e-06
1.65969e-06
5.79233e-06
1.62517e-06
5.38468e-06
1.57377e-06
4.9314e-06
1.51014e-06
4.44256e-06
1.43871e-06
3.92668e-06
1.36353e-06
3.39082e-06
1.2882e-06
2.84073e-06
1.21583e-06
2.28104e-06
1.14902e-06
1.71547e-06
1.08981e-06
1.14696e-06
1.03977e-06
5.77908e-07
9.99942e-07
1.03337e-08
9.70898e-07
-5.53955e-07
9.52742e-07
-1.11319e-06
9.45125e-07
-1.66551e-06
9.47252e-07
-2.20877e-06
9.57892e-07
-2.74045e-06
9.75386e-07
-3.2575e-06
9.97658e-07
-3.75622e-06
1.02224e-06
-4.23215e-06
1.0463e-06
-4.67996e-06
1.0667e-06
-5.09337e-06
1.08012e-06
-5.46509e-06
1.08313e-06
-5.78679e-06
1.07238e-06
-6.04907e-06
1.04488e-06
-6.24155e-06
9.98189e-07
-6.35297e-06
9.30819e-07
-6.37139e-06
8.42561e-07
-6.28453e-06
7.34863e-07
-6.08014e-06
6.11173e-07
-5.74666e-06
4.77183e-07
-5.27383e-06
3.4092e-07
-4.65362e-06
2.12613e-07
-3.88113e-06
1.04281e-07
-2.9555e-06
2.90309e-08
-1.88067e-06
-6.66988e-07
3.64791e-08
7.07987e-07
1.32188e-07
1.9939e-06
2.72181e-07
3.13087e-06
4.41292e-07
4.10727e-06
6.25065e-07
4.9175e-06
8.10529e-07
5.561e-06
9.86774e-07
6.0418e-06
1.1453e-06
6.36791e-06
1.28012e-06
6.55036e-06
1.38764e-06
6.60224e-06
1.46642e-06
6.53786e-06
1.51684e-06
6.37191e-06
1.54065e-06
6.11884e-06
1.54062e-06
5.79236e-06
1.5202e-06
5.40511e-06
1.48317e-06
4.96843e-06
1.43342e-06
4.49231e-06
1.37473e-06
3.98536e-06
1.31068e-06
3.45487e-06
1.24448e-06
2.90692e-06
1.17897e-06
2.34655e-06
1.11656e-06
1.77788e-06
1.05922e-06
1.2043e-06
1.00848e-06
6.28648e-07
9.65442e-07
5.33734e-08
9.30781e-07
-5.19294e-07
9.04768e-07
-1.08718e-06
8.87272e-07
-1.64801e-06
8.77774e-07
-2.19927e-06
8.75375e-07
-2.73805e-06
8.78804e-07
-3.26093e-06
8.86437e-07
-3.76386e-06
8.96314e-07
-4.24203e-06
9.06175e-07
-4.68982e-06
9.13519e-07
-5.10071e-06
9.15676e-07
-5.46725e-06
9.09918e-07
-5.78103e-06
8.93609e-07
-6.03276e-06
8.64389e-07
-6.21233e-06
8.20399e-07
-6.30898e-06
7.60546e-07
-6.31154e-06
6.84778e-07
-6.20876e-06
5.94371e-07
-5.98974e-06
4.92169e-07
-5.64446e-06
3.82756e-07
-5.16442e-06
2.725e-07
-4.54336e-06
1.69424e-07
-3.77806e-06
8.28833e-08
-2.86896e-06
2.30218e-08
-1.82081e-06
-6.43966e-07
3.05169e-08
6.7747e-07
1.11002e-07
1.91341e-06
2.29451e-07
3.01242e-06
3.73629e-07
3.96309e-06
5.31764e-07
4.75937e-06
6.93127e-07
5.39963e-06
8.48505e-07
5.88642e-06
9.90509e-07
6.22591e-06
1.1137e-06
6.42717e-06
1.21455e-06
6.50138e-06
1.29133e-06
6.46108e-06
1.3438e-06
6.31944e-06
1.37298e-06
6.08966e-06
1.38081e-06
5.78453e-06
1.36989e-06
5.41602e-06
1.34322e-06
4.9951e-06
1.30396e-06
4.53157e-06
1.25528e-06
4.03404e-06
1.20021e-06
3.50994e-06
1.14157e-06
2.96556e-06
1.08188e-06
2.40625e-06
1.02331e-06
1.83645e-06
9.67712e-07
1.2599e-06
9.16554e-07
6.79807e-07
8.70953e-07
9.89747e-08
8.31673e-07
-4.80014e-07
7.99133e-07
-1.05464e-06
7.73418e-07
-1.6223e-06
7.54284e-07
-2.18014e-06
7.41169e-07
-2.72494e-06
7.33199e-07
-3.25296e-06
7.29207e-07
-3.75986e-06
7.27747e-07
-4.24057e-06
7.27122e-07
-4.68919e-06
7.25433e-07
-5.09902e-06
7.20638e-07
-5.46245e-06
7.10638e-07
-5.77103e-06
6.93397e-07
-6.01552e-06
6.67084e-07
-6.18602e-06
6.3025e-07
-6.27215e-06
5.82028e-07
-6.26332e-06
5.22344e-07
-6.14908e-06
4.52131e-07
-5.91952e-06
3.73506e-07
-5.56583e-06
2.89891e-07
-5.0808e-06
2.06038e-07
-4.45951e-06
1.27925e-07
-3.69994e-06
6.2513e-08
-2.80355e-06
1.73493e-08
-1.77564e-06
-6.26617e-07
2.4841e-08
6.52629e-07
9.06606e-08
1.84759e-06
1.88041e-07
2.91504e-06
3.07349e-07
3.84378e-06
4.39228e-07
4.62749e-06
5.75037e-07
5.26382e-06
7.07212e-07
5.75425e-06
8.29531e-07
6.10359e-06
9.37247e-07
6.31945e-06
1.0271e-06
6.41152e-06
1.09725e-06
6.39093e-06
1.14709e-06
6.2696e-06
1.17708e-06
6.05968e-06
1.18848e-06
5.77313e-06
1.18318e-06
5.42132e-06
1.16345e-06
5.01484e-06
1.13177e-06
4.56325e-06
1.09071e-06
4.07511e-06
1.04277e-06
3.55787e-06
9.90331e-07
3.018e-06
9.35559e-07
2.46102e-06
8.80382e-07
1.89162e-06
8.26463e-07
1.31382e-06
7.75186e-07
7.31083e-07
7.27656e-07
1.46505e-07
6.84697e-07
-4.37055e-07
6.46862e-07
-1.01681e-06
6.14437e-07
-1.58987e-06
5.87445e-07
-2.15315e-06
5.6566e-07
-2.70315e-06
5.48605e-07
-3.23591e-06
5.35566e-07
-3.74682e-06
5.25604e-07
-4.2306e-06
5.17575e-07
-4.68116e-06
5.10157e-07
-5.0916e-06
5.01895e-07
-5.45419e-06
4.91265e-07
-5.7604e-06
4.7675e-07
-6.00101e-06
4.5695e-07
-6.16622e-06
4.30709e-07
-6.24591e-06
3.97258e-07
-6.22987e-06
3.56371e-07
-6.10819e-06
3.08524e-07
-5.87168e-06
2.55026e-07
-5.51233e-06
1.98109e-07
-5.02388e-06
1.40951e-07
-4.40235e-06
8.76122e-08
-3.64661e-06
4.28645e-08
-2.7588e-06
1.19125e-08
-1.74469e-06
-6.14704e-07
1.93777e-08
6.33252e-07
7.09493e-08
1.79602e-06
1.4763e-07
2.83836e-06
2.4214e-07
3.74927e-06
3.47342e-07
4.52229e-06
4.56547e-07
5.15462e-06
5.63797e-07
5.647e-06
6.64065e-07
6.00332e-06
7.53389e-07
6.23013e-06
8.28912e-07
6.336e-06
8.88847e-07
6.331e-06
9.32387e-07
6.22606e-06
9.59568e-07
6.0325e-06
9.71121e-07
5.76157e-06
9.683e-07
5.42414e-06
9.52735e-07
5.0304e-06
9.26284e-07
4.5897e-06
8.90918e-07
4.11047e-06
8.4862e-07
3.60017e-06
8.0131e-07
3.06531e-06
7.50787e-07
2.51154e-06
6.98694e-07
1.94372e-06
6.46488e-07
1.36602e-06
5.95434e-07
7.82138e-07
5.46593e-07
1.95346e-07
5.00828e-07
-3.9129e-07
4.58802e-07
-9.74781e-07
4.20987e-07
-1.55206e-06
3.87663e-07
-2.11982e-06
3.58927e-07
-2.67441e-06
3.34691e-07
-3.21167e-06
3.14689e-07
-3.72682e-06
2.98481e-07
-4.2144e-06
2.85457e-07
-4.66814e-06
2.74854e-07
-5.081e-06
2.65774e-07
-5.44511e-06
2.5722e-07
-5.75185e-06
2.48144e-07
-5.99193e-06
2.37505e-07
-6.15558e-06
2.24358e-07
-6.23276e-06
2.07943e-07
-6.21345e-06
1.87797e-07
-6.08804e-06
1.63865e-07
-5.84775e-06
1.36593e-07
-5.48506e-06
1.07013e-07
-4.9943e-06
7.67676e-08
-4.37211e-06
4.8088e-08
-3.61793e-06
2.36962e-08
-2.73441e-06
6.63261e-09
-1.72763e-06
-6.08072e-07
1.40669e-08
6.19185e-07
5.16931e-08
1.75839e-06
1.07949e-07
2.7821e-06
1.77734e-07
3.67948e-06
2.55983e-07
4.44404e-06
3.37867e-07
5.07274e-06
4.18982e-07
5.56588e-06
4.95515e-07
5.92679e-06
5.64347e-07
6.16129e-06
6.23115e-07
6.27723e-06
6.70207e-07
6.28391e-06
7.04727e-07
6.19154e-06
7.2642e-07
6.0108e-06
7.35569e-07
5.75242e-06
7.32892e-07
5.42682e-06
7.19436e-07
5.04386e-06
6.96468e-07
4.61267e-06
6.65392e-07
4.14155e-06
6.27671e-07
3.63789e-06
5.84766e-07
3.10822e-06
5.38088e-07
2.55822e-06
4.88968e-07
1.99284e-06
4.38635e-07
1.41636e-06
3.88203e-07
8.32569e-07
3.38667e-07
2.44882e-07
2.90899e-07
-3.43522e-07
2.45652e-07
-9.29533e-07
2.03562e-07
-1.50997e-06
1.65149e-07
-2.08141e-06
1.30821e-07
-2.64009e-06
1.00868e-07
-3.18172e-06
7.54614e-08
-3.70142e-06
5.46466e-08
-4.19358e-06
3.83394e-08
-4.65183e-06
2.6319e-08
-5.06898e-06
1.82264e-08
-5.43702e-06
1.35674e-08
-5.74719e-06
1.17246e-08
-5.99009e-06
1.19792e-08
-6.15584e-06
1.35477e-08
-6.23433e-06
1.56304e-08
-6.21553e-06
1.74753e-08
-6.08989e-06
1.8449e-08
-5.84872e-06
1.81123e-08
-5.48472e-06
1.6287e-08
-4.99248e-06
1.31054e-08
-4.36893e-06
9.02724e-09
-3.61385e-06
4.81258e-09
-2.73019e-06
1.44598e-09
-1.72426e-06