/*--------------------------------*- C++ -*----------------------------------*\
  =========                 |
  \\      /  F ield         | OpenFOAM: The Open Source CFD Toolbox
   \\    /   O peration     | Website:  https://openfoam.org
    \\  /    A nd           | Version:  7
     \\/     M anipulation  |
\*---------------------------------------------------------------------------*/
FoamFile
{
    version     2.0;
    format      ascii;
    class       volScalarField;
    location    "0.0138";
    object      p;
}
// * * * * * * * * * * * * * * * * * * * * * * * * * * * * * * * * * * * * * //

dimensions      [0 2 -2 0 0 0 0];

internalField   nonuniform List<scalar> 
2500
(
3.38793e-08
-0.000663925
-0.00203388
-0.00379391
-0.00555871
-0.00714219
-0.00838133
-0.00916691
-0.00943127
-0.00913583
-0.00826348
-0.00681333
-0.00479669
-0.00223416
0.000846753
0.00441322
0.00842848
0.0128527
0.0176438
0.0227578
0.0281492
0.0337717
0.0395775
0.0455183
0.0515449
0.0576077
0.0636564
0.0696403
0.0755085
0.0812103
0.0866947
0.0919115
0.0968112
0.101345
0.105468
0.109134
0.112304
0.114943
0.117019
0.118512
0.11941
0.119716
0.119448
0.118648
0.117389
0.115783
0.113996
0.112227
0.110849
0.110188
0.000659447
-4.09865e-06
-0.00108907
-0.00239835
-0.0037186
-0.00488501
-0.00576782
-0.00627256
-0.00633419
-0.00591116
-0.00498075
-0.00353523
-0.00157874
0.000875157
0.00380555
0.00718565
0.0109841
0.0151659
0.0196931
0.0245254
0.0296208
0.0349355
0.0404245
0.0460419
0.0517407
0.0574734
0.063192
0.068848
0.0743932
0.0797792
0.0849581
0.089883
0.094508
0.0987891
0.102684
0.106155
0.109167
0.111691
0.113704
0.11519
0.116147
0.116583
0.116523
0.11601
0.115113
0.113931
0.112595
0.111276
0.110187
0.109527
0.00202877
0.00107465
-1.71577e-05
-0.00117673
-0.00229814
-0.00325423
-0.00394184
-0.00428309
-0.00422093
-0.00371653
-0.00274679
-0.00130178
0.000617559
0.00300139
0.00583261
0.00908818
0.0127402
0.016757
0.0211036
0.0257422
0.0306332
0.035735
0.0410046
0.0463977
0.0518693
0.0573734
0.0628636
0.0682934
0.073616
0.0787853
0.0837554
0.0884817
0.0929209
0.0970319
0.100776
0.104118
0.107027
0.109478
0.111451
0.112936
0.113933
0.114451
0.114515
0.114168
0.113468
0.112498
0.111363
0.110194
0.109098
0.108147
0.00379639
0.00238737
0.00112116
-5.73214e-05
-0.00113188
-0.0020069
-0.00260174
-0.00285563
-0.00272207
-0.00216805
-0.00117317
0.00027191
0.00216701
0.00450385
0.00726736
0.0104367
0.0139864
0.0178869
0.0221052
0.0266057
0.0313504
0.0362995
0.0414115
0.0466435
0.0519519
0.057292
0.0626188
0.067887
0.0730514
0.0780671
0.0828899
0.0874769
0.0917868
0.0957802
0.0994208
0.102676
0.105516
0.107919
0.109867
0.111352
0.112373
0.11294
0.113076
0.112815
0.112208
0.111318
0.110229
0.10904
0.10777
0.106366
0.00562375
0.00373878
0.0022335
0.000958141
-0.000146456
-0.00100921
-0.0015684
-0.00177916
-0.00160589
-0.00102236
-1.21549e-05
0.0014321
0.00330968
0.00561272
0.00832712
0.0114334
0.0149076
0.0187217
0.0228444
0.0272416
0.0318766
0.036711
0.0417045
0.0468155
0.0520014
0.0572187
0.0624233
0.0675711
0.0726179
0.07752
0.0822345
0.0867197
0.0909356
0.0948443
0.098411
0.101604
0.104397
0.106767
0.108698
0.110182
0.111218
0.111814
0.111988
0.111768
0.111195
0.110315
0.109194
0.107907
0.106396
0.104515
0.00733289
0.00497688
0.00320331
0.00178315
0.000595933
-0.000304958
-0.000872634
-0.00107593
-0.000889215
-0.000293149
0.000724203
0.00216746
0.00403447
0.00631687
0.00900072
0.0120672
0.015493
0.0192512
0.0233115
0.0276409
0.0322038
0.0369627
0.0418782
0.0469096
0.0520151
0.057152
0.0622771
0.067347
0.0723182
0.0771479
0.0817939
0.0862154
0.0903732
0.0942304
0.097753
0.10091
0.103676
0.106028
0.107951
0.109435
0.110478
0.111085
0.11127
0.111056
0.11047
0.109549
0.108342
0.106908
0.105128
0.102777
0.00878167
0.00598363
0.00393459
0.002342
0.00103741
6.2604e-05
-0.000546412
-0.000769543
-0.000589801
5.83366e-06
0.00102473
0.00246842
0.00433275
0.00660821
0.0092804
0.0123304
0.0157352
0.0194683
0.0234999
0.0277977
0.0323266
0.0370498
0.0419284
0.0469224
0.0519905
0.0570904
0.0621794
0.0672145
0.0721528
0.0769517
0.0815696
0.085966
0.090102
0.0939411
0.0974495
0.100597
0.103356
0.105706
0.10763
0.109116
0.110161
0.110767
0.110943
0.110706
0.110075
0.109076
0.107748
0.106137
0.10408
0.101289
0.00987482
0.00667108
0.00435177
0.00257379
0.00113147
5.97713e-05
-0.000612756
-0.000874583
-0.000715817
-0.000128953
0.000889105
0.0023367
0.00420742
0.00649026
0.0091698
0.0122266
0.0156373
0.0193756
0.0234116
0.0277132
0.0322456
0.0369723
0.0418546
0.0468528
0.0519256
0.0570312
0.0621269
0.0671698
0.0721171
0.0769263
0.0815557
0.0859649
0.0901148
0.0939687
0.0974926
0.100656
0.10343
0.105794
0.107729
0.109223
0.110269
0.110866
0.111019
0.110739
0.11004
0.108939
0.107468
0.105668
0.103339
0.100143
0.01055
0.00697398
0.00439402
0.00242592
0.000834698
-0.000347949
-0.00109817
-0.00141078
-0.00128152
-0.000707527
0.000310475
0.00176777
0.00365559
0.00596114
0.00866768
0.0117548
0.0151987
0.0189722
0.0230456
0.0273863
0.0319596
0.0367286
0.041655
0.0466986
0.0518182
0.0569719
0.0621167
0.0672097
0.0722077
0.077068
0.0817485
0.0862081
0.0904075
0.0943093
0.0978785
0.101083
0.103896
0.106291
0.10825
0.109759
0.110807
0.111391
0.111513
0.111178
0.110396
0.109178
0.107553
0.105558
0.102965
0.0993988
0.0107653
0.00684312
0.00401185
0.00185255
0.000106431
-0.00119552
-0.00203199
-0.00240238
-0.00230671
-0.00174598
-0.000724248
0.000750916
0.00266838
0.00501339
0.00776768
0.0109096
0.0144142
0.0182538
0.0223978
0.0268132
0.0314648
0.0363154
0.0413262
0.0464566
0.0516653
0.0569096
0.0621463
0.0673319
0.0724226
0.077375
0.0821464
0.0866947
0.0909798
0.0949629
0.0986082
0.101882
0.104755
0.107202
0.1092
0.110732
0.111788
0.11236
0.112446
0.11205
0.111176
0.109832
0.108045
0.105853
0.103006
0.0990931
0.0104914
0.00624022
0.00316405
0.000813236
-0.00109131
-0.00251751
-0.003445
-0.00387632
-0.0038148
-0.00326455
-0.00223253
-0.000728977
0.00123264
0.00363553
0.00645965
0.00968183
0.0132759
0.017213
0.0214616
0.0259879
0.0307559
0.0357277
0.0408637
0.0461229
0.0514632
0.0568412
0.0622129
0.0675341
0.0727601
0.0778464
0.0827492
0.0874253
0.0918331
0.0959324
0.0996857
0.103058
0.106017
0.108535
0.110589
0.112158
0.113229
0.113792
0.113843
0.113382
0.112411
0.110934
0.108981
0.10659
0.103494
0.099251
0.00970646
0.00513371
0.00181471
-0.000729025
-0.00279492
-0.00434858
-0.00536941
-0.0058621
-0.00583249
-0.00528721
-0.00423584
-0.00269107
-0.000668734
0.00181225
0.00472988
0.00805927
0.0117727
0.0158399
0.0202281
0.0249022
0.0298254
0.0349588
0.0402617
0.0456923
0.0512075
0.056763
0.0623138
0.0678144
0.0732191
0.0784821
0.083558
0.0884022
0.0929711
0.0972229
0.101118
0.104618
0.107691
0.110304
0.112433
0.114054
0.115151
0.115712
0.11573
0.115203
0.114132
0.11252
0.110395
0.107803
0.104457
0.0998901
0.00839178
0.00349548
-6.93417e-05
-0.00280966
-0.0050405
-0.00672428
-0.0078394
-0.00839197
-0.00838978
-0.00784166
-0.00675953
-0.00515851
-0.00305678
-0.000475536
0.00256111
0.00602627
0.00989043
0.0141216
0.0186855
0.0235458
0.0286642
0.0340004
0.0395129
0.0451585
0.0508929
0.0566707
0.0624456
0.0681708
0.0737989
0.0792827
0.0845749
0.0896291
0.0943994
0.0988418
0.102914
0.106576
0.109791
0.112526
0.114751
0.116442
0.117579
0.118147
0.118138
0.117547
0.116373
0.114621
0.112321
0.109521
0.105921
0.101024
0.00652932
0.00129829
-0.00252077
-0.00546427
-0.00786513
-0.00968199
-0.0108917
-0.0115013
-0.0115203
-0.0109594
-0.00983294
-0.00815839
-0.0059564
-0.00325061
-6.74751e-05
0.0035639
0.00761192
0.0120427
0.01682
0.021906
0.0272608
0.0328426
0.0386085
0.0445139
0.0505131
0.0565593
0.0626047
0.0686008
0.0744987
0.080249
0.0858026
0.0911106
0.0961248
0.100798
0.105086
0.108945
0.112335
0.11522
0.117567
0.119349
0.120541
0.121128
0.121098
0.120446
0.119169
0.117272
0.114789
0.111774
0.107908
0.102667
0.00409944
-0.00148632
-0.0055736
-0.00873025
-0.0113082
-0.0132619
-0.0145661
-0.015229
-0.0152614
-0.014676
-0.0134895
-0.0117218
-0.00939641
-0.0065395
-0.00318017
0.000649971
0.00491697
0.00958468
0.014615
0.0199679
0.0256018
0.0314734
0.037538
0.0437494
0.0500604
0.0564226
0.0627865
0.0691017
0.0753174
0.0813822
0.0872443
0.0928524
0.0981555
0.103104
0.107648
0.111743
0.115344
0.118411
0.120908
0.122803
0.12407
0.12469
0.124648
0.123939
0.122559
0.120512
0.117836
0.114592
0.110442
0.104834
0.00107935
-0.00488978
-0.00926485
-0.0126482
-0.0154126
-0.0175079
-0.0189069
-0.0196184
-0.019655
-0.0190315
-0.0177669
-0.0158842
-0.0134096
-0.0103725
-0.00680484
-0.00274101
0.00178233
0.00672657
0.0120512
0.0177142
0.0236719
0.029879
0.0362891
0.0428544
0.0495259
0.0562533
0.0629854
0.0696699
0.0762536
0.0826828
0.0889033
0.0948606
0.100501
0.10577
0.110616
0.114988
0.118839
0.122124
0.124802
0.126838
0.128203
0.128872
0.12883
0.128068
0.126583
0.12438
0.1215
0.118009
0.113553
0.107542
-0.00255831
-0.00894794
-0.0136361
-0.0172634
-0.0202261
-0.0224691
-0.0239631
-0.0247179
-0.0247479
-0.0240705
-0.0227075
-0.0206852
-0.0180331
-0.0147839
-0.0109729
-0.00663786
-0.00181828
0.00344438
0.00910706
0.0151253
0.0214531
0.0280434
0.0348478
0.0418166
0.0488989
0.0560427
0.0631947
0.0703006
0.0773049
0.0841512
0.0907825
0.0971412
0.103169
0.10881
0.114006
0.118702
0.122847
0.12639
0.129285
0.131494
0.132981
0.133719
0.133689
0.132881
0.131291
0.128923
0.125823
0.122065
0.117271
0.110815
-0.00684656
-0.0137025
-0.0187347
-0.0226273
-0.0258025
-0.0282005
-0.0297898
-0.0305816
-0.0305927
-0.0298434
-0.0283589
-0.0261693
-0.0233081
-0.0198118
-0.0157196
-0.0110727
-0.0059142
-0.000288605
0.00575817
0.012179
0.0189257
0.0259488
0.033198
0.0406217
0.0481671
0.0557803
0.063406
0.0709877
0.0784676
0.0857865
0.0928843
0.0996999
0.106172
0.112238
0.117837
0.122909
0.127395
0.131241
0.134395
0.136811
0.13845
0.139281
0.139279
0.138433
0.136736
0.134194
0.130857
0.126805
0.121637
0.11468
-0.0118253
-0.0192024
-0.0246158
-0.0287986
-0.0322032
-0.0347646
-0.0364493
-0.0372705
-0.0372482
-0.0364062
-0.034774
-0.032386
-0.0292805
-0.0254985
-0.0210835
-0.016081
-0.0105377
-0.00450179
0.00197781
0.00885115
0.0160675
0.0235751
0.0313217
0.0392536
0.0473163
0.055454
0.0636093
0.0717236
0.0797366
0.0875865
0.0952098
0.102542
0.109516
0.116067
0.122128
0.127631
0.132514
0.136713
0.140172
0.142838
0.144664
0.145614
0.14566
0.144785
0.142982
0.140255
0.136659
0.132283
0.126695
0.119174
-0.0175424
-0.0255052
-0.0313433
-0.0358454
-0.0394985
-0.0422325
-0.0440121
-0.0448535
-0.0447806
-0.0438217
-0.0420116
-0.0393902
-0.036001
-0.0318905
-0.0271073
-0.0217014
-0.0157241
-0.00922715
-0.00226308
0.00511522
0.0128543
0.0209004
0.0291988
0.0376943
0.0463303
0.0550494
0.0637924
0.0724984
0.0811049
0.0895472
0.0977585
0.10567
0.113212
0.120312
0.126897
0.132895
0.138235
0.142846
0.146663
0.149626
0.15168
0.152783
0.152899
0.152009
0.1501
0.147177
0.143299
0.138563
0.132503
0.12434
-0.0240554
-0.0326791
-0.038992
-0.0438465
-0.0477695
-0.0506856
-0.0525585
-0.0534083
-0.053264
-0.05216
-0.0501372
-0.0472422
-0.043525
-0.0390384
-0.0338368
-0.0279757
-0.0215111
-0.014499
-0.00699568
0.000942801
0.00926035
0.0179008
0.0268076
0.0359236
0.0451909
0.0545502
0.0639408
0.0733
0.082563
0.0916622
0.100528
0.109087
0.117265
0.124984
0.132164
0.138727
0.144591
0.14968
0.153917
0.157232
0.159564
0.160858
0.161074
0.160185
0.158175
0.155044
0.150857
0.14572
0.139127
0.130233
-0.0314332
-0.0408045
-0.0476496
-0.0528937
-0.0571098
-0.0602174
-0.0621798
-0.0630227
-0.0627819
-0.0614989
-0.0592229
-0.0560083
-0.0519129
-0.0469969
-0.0413216
-0.0349484
-0.0279388
-0.0203536
-0.0122529
-0.00369613
0.00525793
0.0145509
0.0241243
0.0339197
0.0438777
0.0539378
0.0640379
0.0741138
0.0840986
0.0939224
0.103512
0.112791
0.121679
0.130093
0.137946
0.145151
0.151618
0.157258
0.161986
0.16572
0.168386
0.169921
0.170274
0.169407
0.167302
0.163953
0.159428
0.153845
0.146648
0.136917
-0.0397579
-0.0499769
-0.0574194
-0.0630941
-0.0676277
-0.0709351
-0.0729802
-0.0737961
-0.0734275
-0.0719253
-0.0693484
-0.0657609
-0.0612301
-0.0558248
-0.0496141
-0.0426665
-0.0350494
-0.0268288
-0.018069
-0.00883274
0.0008184
0.010824
0.0211241
0.031659
0.0423685
0.0531912
0.0640641
0.074922
0.0856963
0.0963152
0.106703
0.116778
0.126456
0.135648
0.144259
0.152192
0.159348
0.165625
0.170927
0.175157
0.178228
0.180062
0.180596
0.179783
0.177594
0.174018
0.169127
0.163045
0.155166
0.144476
-0.0491282
-0.0603097
-0.068423
-0.0745731
-0.0794492
-0.0829623
-0.0850785
-0.0858409
-0.0853054
-0.0835351
-0.0806007
-0.0765784
-0.0715465
-0.0655841
-0.0587693
-0.0511786
-0.042886
-0.033963
-0.0244785
-0.0144986
-0.00408736
0.00669286
0.0177811
0.0291168
0.0406393
0.0522873
0.0639974
0.0757038
0.0873372
0.0988241
0.110086
0.121039
0.131593
0.141652
0.151114
0.159872
0.167815
0.174828
0.180799
0.185616
0.189175
0.191381
0.192155
0.191436
0.189182
0.185375
0.180087
0.173452
0.164798
0.153008
-0.0596627
-0.0719381
-0.0808043
-0.0874778
-0.0927207
-0.0964414
-0.0986103
-0.0992838
-0.0985325
-0.0964343
-0.0930751
-0.0885452
-0.0829365
-0.0763399
-0.068844
-0.0605341
-0.0514918
-0.0417945
-0.0315155
-0.0207245
-0.00948797
0.0021305
0.0140692
0.0262675
0.0386652
0.0512013
0.0638132
0.0764353
0.0889984
0.101428
0.113644
0.12556
0.137081
0.148104
0.15852
0.16821
0.17705
0.184912
0.191664
0.197176
0.201323
0.203991
0.205078
0.204507
0.202218
0.198182
0.192468
0.185221
0.175691
0.162639
-0.0715048
-0.0850237
-0.0947341
-0.101981
-0.107613
-0.111537
-0.113731
-0.114268
-0.113239
-0.110739
-0.106874
-0.101751
-0.0954778
-0.0881589
-0.0798951
-0.0707819
-0.0609088
-0.0503594
-0.039212
-0.0275395
-0.0154102
-0.0028886
0.00996345
0.0230862
0.0364205
0.0499071
0.0634848
0.0770897
0.0906535
0.104102
0.117355
0.130322
0.142906
0.154997
0.166478
0.177219
0.187082
0.19592
0.203584
0.209919
0.214776
0.218015
0.219511
0.219159
0.216879
0.212624
0.206461
0.198541
0.188021
0.173521
-0.0848278
-0.0997604
-0.110415
-0.118287
-0.124325
-0.128438
-0.130616
-0.130955
-0.129569
-0.126578
-0.122109
-0.116291
-0.10925
-0.101108
-0.0919785
-0.0819681
-0.0711753
-0.0596904
-0.0475961
-0.0349684
-0.021877
-0.00838675
0.00544148
0.0195496
0.0338808
0.0483786
0.0629847
0.0776379
0.0922723
0.106816
0.121187
0.135298
0.149045
0.162316
0.174983
0.186907
0.197932
0.207895
0.21662
0.22393
0.229645
0.233592
0.235614
0.235577
0.233371
0.228923
0.222293
0.213638
0.202004
0.185845
-0.0998427
-0.116382
-0.12809
-0.136637
-0.14309
-0.147365
-0.149468
-0.149526
-0.147682
-0.144087
-0.138895
-0.132261
-0.124334
-0.115252
-0.105146
-0.0941338
-0.082324
-0.0698133
-0.056689
-0.0430296
-0.0289055
-0.0143809
0.000485395
0.015638
0.031024
0.0465908
0.0622847
0.078049
0.0938218
0.109534
0.125108
0.140454
0.15547
0.170037
0.184021
0.197271
0.209615
0.22087
0.230834
0.239298
0.246047
0.250871
0.253572
0.253974
0.251931
0.247337
0.240236
0.230786
0.217905
0.199849
-0.116807
-0.13517
-0.148049
-0.157317
-0.164182
-0.168572
-0.170517
-0.170183
-0.167753
-0.163414
-0.157355
-0.149761
-0.140805
-0.13065
-0.119441
-0.107311
-0.0943775
-0.0807441
-0.0665023
-0.051732
-0.0365037
-0.0208796
-0.0049155
0.0113378
0.0278325
0.0445219
0.0613586
0.0782922
0.095267
0.11222
0.129077
0.145751
0.162141
0.178127
0.193567
0.208299
0.222137
0.234873
0.246279
0.256109
0.264107
0.270015
0.273586
0.274593
0.272839
0.268173
0.260615
0.25032
0.236048
0.215826
-0.136036
-0.156466
-0.170641
-0.180667
-0.187921
-0.192351
-0.194023
-0.193152
-0.189972
-0.184715
-0.177612
-0.168884
-0.158736
-0.147351
-0.134897
-0.121519
-0.107345
-0.0924847
-0.0770331
-0.0610709
-0.0446669
-0.0278802
-0.0107615
0.00664427
0.0242963
0.0421559
0.0601839
0.0783386
0.0965728
0.114831
0.133048
0.151141
0.169012
0.186541
0.203583
0.219966
0.235489
0.249922
0.263003
0.274447
0.283951
0.291199
0.295882
0.297709
0.296415
0.29179
0.283818
0.27264
0.25683
0.234145
-0.157915
-0.180687
-0.196285
-0.207091
-0.214684
-0.219042
-0.220281
-0.218682
-0.214541
-0.208149
-0.199787
-0.189718
-0.178181
-0.165388
-0.151527
-0.136756
-0.121214
-0.105017
-0.0882597
-0.0710233
-0.0533734
-0.0353638
-0.0170386
0.00156522
0.0204162
0.0394855
0.0587448
0.0781635
0.0977057
0.117327
0.136972
0.156569
0.176024
0.195223
0.214018
0.232232
0.24965
0.266017
0.28104
0.29439
0.305707
0.314609
0.320709
0.323633
0.323033
0.318616
0.310312
0.298237
0.280739
0.255262
-0.182918
-0.208339
-0.225491
-0.237076
-0.244915
-0.249037
-0.249624
-0.247044
-0.241674
-0.233875
-0.22399
-0.212331
-0.199178
-0.184771
-0.169319
-0.152996
-0.135948
-0.118296
-0.100135
-0.0815423
-0.0625789
-0.0432912
-0.0237143
-0.00387486
0.0162072
0.0365155
0.0570352
0.0777496
0.0986373
0.119669
0.140802
0.161977
0.183115
0.204105
0.224807
0.24504
0.264576
0.283142
0.300411
0.316005
0.329501
0.340438
0.348336
0.352717
0.353124
0.349153
0.340658
0.327706
0.308375
0.279743
-0.211632
-0.240047
-0.258876
-0.271201
-0.279137
-0.282785
-0.282424
-0.278531
-0.271587
-0.262043
-0.250313
-0.236768
-0.22173
-0.205472
-0.188224
-0.170174
-0.151473
-0.132244
-0.112579
-0.0925509
-0.0722116
-0.0515978
-0.030733
-0.00963074
0.011703
0.0332671
0.0550628
0.0770906
0.0993467
0.12182
0.144486
0.167305
0.190211
0.21311
0.23587
0.258313
0.280206
0.301259
0.321113
0.33934
0.355447
0.368883
0.379055
0.385356
0.387185
0.383995
0.375527
0.361772
0.34048
0.308293
-0.244778
-0.276578
-0.297198
-0.310169
-0.317967
-0.320804
-0.319089
-0.313449
-0.304493
-0.292781
-0.278815
-0.26303
-0.245796
-0.227418
-0.208146
-0.188178
-0.16767
-0.146739
-0.125473
-0.103936
-0.0821662
-0.0601884
-0.0380113
-0.0156323
0.0069593
0.0297807
0.052852
0.0761939
0.0998241
0.123753
0.147981
0.17249
0.197237
0.222149
0.24711
0.271955
0.296453
0.320302
0.343116
0.36442
0.383645
0.400137
0.413173
0.421984
0.425788
0.423844
0.415733
0.401327
0.377968
0.34179
-0.283258
-0.318891
-0.341391
-0.354828
-0.362133
-0.363681
-0.360066
-0.352107
-0.340579
-0.326176
-0.309499
-0.291057
-0.271269
-0.25047
-0.228925
-0.206839
-0.184363
-0.161609
-0.138652
-0.11554
-0.0922986
-0.0689331
-0.0454345
-0.0217814
0.0020572
0.0261191
0.0504468
0.0750841
0.100074
0.125453
0.151249
0.177473
0.204113
0.231124
0.258418
0.285848
0.3132
0.34017
0.366354
0.391234
0.414165
0.434383
0.451009
0.463083
0.469588
0.469529
0.462259
0.447467
0.421982
0.381327
-0.328202
-0.368193
-0.392618
-0.406212
-0.412494
-0.412081
-0.405824
-0.394799
-0.37999
-0.362248
-0.342292
-0.320706
-0.297956
-0.274404
-0.250322
-0.225911
-0.201312
-0.176621
-0.151894
-0.127161
-0.102422
-0.0776642
-0.0528546
-0.0279497
-0.00289553
0.0223695
0.0479126
0.0738043
0.100116
0.126914
0.15426
0.1822
0.21076
0.239932
0.269665
0.299851
0.330299
0.360724
0.390715
0.419724
0.447037
0.471772
0.49288
0.509168
0.519328
0.52203
0.516303
0.501555
0.473956
0.428281
-0.381052
-0.426025
-0.452342
-0.465586
-0.470057
-0.466737
-0.456839
-0.441772
-0.422785
-0.400914
-0.377002
-0.351713
-0.325552
-0.298891
-0.272
-0.245062
-0.218198
-0.191475
-0.164923
-0.138542
-0.112307
-0.0861758
-0.0600898
-0.0339795
-0.00776504
0.0186417
0.0453355
0.0724159
0.0999851
0.128145
0.156994
0.186621
0.217094
0.248457
0.280711
0.313794
0.347565
0.381773
0.416027
0.449766
0.482223
0.512404
0.539077
0.56078
0.575845
0.5825
0.579325
0.5653
0.535713
0.484397
-0.44368
-0.494394
-0.522433
-0.534507
-0.535999
-0.528442
-0.513553
-0.49318
-0.46889
-0.441934
-0.413283
-0.383664
-0.353605
-0.323472
-0.293508
-0.263863
-0.234618
-0.2058
-0.1774
-0.14938
-0.121681
-0.0942267
-0.0669288
-0.0396878
-0.0123953
0.0150655
0.0428188
0.0709953
0.0997312
0.129166
0.159439
0.190687
0.223033
0.256579
0.291391
0.327477
0.364764
0.403065
0.44204
0.481145
0.519592
0.556294
0.589835
0.618457
0.640057
0.652295
0.653121
0.640868
0.60961
0.55193
-0.518579
-0.575972
-0.60531
-0.614898
-0.611675
-0.598008
-0.576314
-0.549004
-0.518025
-0.484851
-0.450569
-0.415944
-0.381491
-0.347537
-0.31427
-0.281779
-0.250084
-0.219156
-0.188932
-0.159326
-0.130237
-0.101548
-0.073138
-0.0448736
-0.0166158
0.0117825
0.0404761
0.069628
0.0994098
0.130001
0.161585
0.194353
0.228486
0.264159
0.301517
0.340658
0.381605
0.424269
0.468399
0.513522
0.558871
0.603313
0.645273
0.682684
0.712941
0.732983
0.739897
0.731045
0.698753
0.633857
-0.609193
-0.674406
-0.704153
-0.709127
-0.698603
-0.676191
-0.64527
-0.60895
-0.569599
-0.528904
-0.488019
-0.447695
-0.408378
-0.370307
-0.333572
-0.298168
-0.264027
-0.231042
-0.199081
-0.168
-0.137645
-0.107857
-0.0784748
-0.0493304
-0.0202529
0.0089357
0.0384209
0.0683984
0.099075
0.13067
0.163417
0.197559
0.233348
0.271036
0.310865
0.353043
0.397721
0.444948
0.494615
0.546384
0.599586
0.653115
0.705304
0.753805
0.795465
0.826344
0.842369
0.839451
0.807331
0.73423
-0.720487
-0.79482
-0.823183
-0.820088
-0.798389
-0.763543
-0.720196
-0.67228
-0.622581
-0.572926
-0.524444
-0.477772
-0.433208
-0.390829
-0.350573
-0.312297
-0.275813
-0.240915
-0.207385
-0.175009
-0.143575
-0.112874
-0.0827044
-0.0528626
-0.0231454
0.00665475
0.0367533
0.0673767
0.0987664
0.131181
0.164902
0.200229
0.237485
0.277012
0.319159
0.364267
0.412645
0.464528
0.520014
0.578981
0.640967
0.705017
0.769494
0.831866
0.888454
0.934307
0.96384
0.97085
0.941145
0.858804
-0.86001
-0.944614
-0.968052
-0.951224
-0.912556
-0.860151
-0.800232
-0.737595
-0.675329
-0.615231
-0.558234
-0.504711
-0.454688
-0.407986
-0.364321
-0.323365
-0.284777
-0.248223
-0.213388
-0.179978
-0.147717
-0.116346
-0.0856214
-0.0553046
-0.0251626
0.00503957
0.035544
0.066605
0.0984951
0.13151
0.165975
0.202249
0.240725
0.281839
0.326057
0.373873
0.425785
0.482262
0.543681
0.610244
0.681836
0.757833
0.836843
0.916365
0.992338
1.05877
1.10824
1.13154
1.10845
1.01617
-1.03994
-1.13474
-1.14628
-1.10641
-1.04215
-0.965188
-0.88349
-0.802533
-0.725391
-0.653502
-0.587318
-0.526727
-0.471316
-0.420537
-0.373807
-0.330558
-0.290263
-0.252444
-0.216677
-0.182581
-0.149817
-0.118075
-0.087073
-0.0565417
-0.026222
0.00414382
0.0348196
0.0660825
0.098231
0.131592
0.166532
0.20346
0.242842
0.285203
0.331135
0.381295
0.436397
0.497188
0.564406
0.638692
0.720457
0.809662
0.905487
1.00585
1.1067
1.20124
1.28001
1.32983
1.32129
1.21993
-1.28131
-1.38172
-1.36755
-1.28941
-1.18693
-1.07615
-0.966463
-0.86338
-0.76929
-0.684697
-0.609148
-0.541746
-0.481442
-0.427191
-0.378031
-0.333111
-0.291692
-0.253144
-0.216928
-0.182581
-0.149703
-0.117942
-0.0869812
-0.0565285
-0.0263056
0.0039613
0.0345506
0.0657553
0.0978921
0.131312
0.166413
0.203649
0.243547
0.286719
0.333876
0.385842
0.443562
0.5081
0.580619
0.662328
0.754367
0.8576
0.972252
1.09731
1.22949
1.36192
1.48352
1.57629
1.59752
1.49318
-1.62272
-1.71054
-1.64314
-1.50213
-1.34359
-1.18746
-1.04309
-0.914539
-0.802263
-0.704971
-0.620726
-0.547489
-0.483365
-0.426698
-0.376089
-0.330379
-0.288616
-0.250018
-0.213943
-0.179857
-0.147313
-0.115926
-0.0853567
-0.0553001
-0.0254683
0.00441874
0.0346455
0.065511
0.0973411
0.1305
0.165406
0.202544
0.242489
0.285924
0.333666
0.386695
0.446183
0.513521
0.590347
0.678538
0.780169
0.89737
1.03202
1.1851
1.35548
1.53791
1.72124
1.88313
1.96382
1.87762
-2.13565
-2.15845
-1.98406
-1.74158
-1.50308
-1.28866
-1.10381
-0.948132
-0.818222
-0.709806
-0.618797
-0.541668
-0.475515
-0.418007
-0.367301
-0.321945
-0.280797
-0.242953
-0.207694
-0.17444
-0.142714
-0.112118
-0.0823074
-0.0529761
-0.0238396
0.00537776
0.0349548
0.065186
0.0963939
0.128943
0.163257
0.199835
0.239277
0.282315
0.329841
0.382961
0.443039
0.511775
0.591274
0.684129
0.793496
0.923113
1.07718
1.25993
1.47442
1.72031
1.99056
2.26231
2.45927
2.44869
-2.95013
-2.77498
-2.39745
-1.99773
-1.64954
-1.36441
-1.13625
-0.955088
-0.810897
-0.695068
-0.600759
-0.522734
-0.457043
-0.400727
-0.351565
-0.307884
-0.268416
-0.232187
-0.198445
-0.166598
-0.13617
-0.106771
-0.0780709
-0.0497786
-0.0216264
0.00664378
0.0352936
0.0646005
0.094871
0.126455
0.159762
0.195286
0.233626
0.275524
0.321909
0.373954
0.433157
0.501442
0.581308
0.67601
0.789804
0.928236
1.09844
1.30924
1.57079
1.89307
2.28134
2.72144
3.13463
3.34031
-4.36201
-3.59988
-2.85854
-2.23687
-1.75189
-1.39059
-1.12395
-0.925086
-0.774226
-0.657459
-0.565032
-0.490134
-0.42799
-0.37522
-0.329404
-0.288782
-0.252064
-0.218287
-0.186722
-0.156809
-0.12811
-0.100268
-0.0729856
-0.0460057
-0.019091
0.00798678
0.0354596
0.0635757
0.0926119
0.122887
0.154781
0.188753
0.225371
0.265347
0.309587
0.359259
0.415884
0.481479
0.558752
0.651398
0.764538
0.905372
1.0841
1.31514
1.61886
2.02313
2.55789
3.23383
4.02981
4.85648
-7.20013
-4.6015
-3.18573
-2.30443
-1.70274
-1.29764
-1.02319
-0.830842
-0.691006
-0.585879
-0.504239
-0.438813
-0.384788
-0.338906
-0.29891
-0.263209
-0.230659
-0.20043
-0.171904
-0.144616
-0.118209
-0.0923957
-0.0669421
-0.0416436
-0.0163133
0.00923031
0.0351744
0.0617209
0.0890988
0.117576
0.147472
0.179183
0.213198
0.250141
0.29081
0.336249
0.387836
0.44743
0.517581
0.601877
0.705497
0.836143
1.00558
1.23233
1.54693
1.99988
2.66092
3.61493
5.11653
7.83242
-12.0691
-5.68518
-3.02301
-1.93048
-1.34079
-0.993501
-0.78057
-0.640212
-0.540929
-0.466769
-0.408835
-0.36175
-0.3221
-0.287627
-0.256795
-0.228533
-0.202085
-0.176912
-0.152622
-0.128929
-0.105616
-0.0825149
-0.0594877
-0.0364145
-0.0131833
0.0103185
0.0342104
0.058627
0.0837247
0.10969
0.136752
0.165193
0.195369
0.227735
0.262876
0.301554
0.34478
0.39391
0.450804
0.518079
0.599554
0.701061
0.832037
1.00903
1.2642
1.66158
2.318
3.50551
6.28396
12.7919
)
;

boundaryField
{
    movingWall
    {
        type            zeroGradient;
    }
    fixedWalls
    {
        type            zeroGradient;
    }
    frontAndBack
    {
        type            empty;
    }
}


// ************************************************************************* //
