/*--------------------------------*- C++ -*----------------------------------*\
  =========                 |
  \\      /  F ield         | OpenFOAM: The Open Source CFD Toolbox
   \\    /   O peration     | Website:  https://openfoam.org
    \\  /    A nd           | Version:  7
     \\/     M anipulation  |
\*---------------------------------------------------------------------------*/
FoamFile
{
    version     2.0;
    format      ascii;
    class       volVectorField;
    location    "0.077";
    object      U;
}
// * * * * * * * * * * * * * * * * * * * * * * * * * * * * * * * * * * * * * //

dimensions      [0 1 -1 0 0 0 0];

internalField   nonuniform List<vector> 
2500
(
(-0.293794 0.153717 0)
(-0.397923 0.128717 0)
(-0.577965 0.0737927 0)
(-0.696273 0.0408795 0)
(-0.765286 0.0234028 0)
(-0.80966 0.0141531 0)
(-0.840297 0.00917069 0)
(-0.862443 0.00636552 0)
(-0.87913 0.00467896 0)
(-0.892142 0.00359116 0)
(-0.90255 0.002844 0)
(-0.911033 0.00230351 0)
(-0.918043 0.00189586 0)
(-0.923893 0.00157774 0)
(-0.928805 0.00132216 0)
(-0.932942 0.00111145 0)
(-0.936421 0.000933521 0)
(-0.939333 0.000779803 0)
(-0.941746 0.000644058 0)
(-0.943709 0.000521622 0)
(-0.94526 0.000408922 0)
(-0.946426 0.000303156 0)
(-0.947227 0.000202069 0)
(-0.947677 0.00010379 0)
(-0.947781 6.71258e-06 0)
(-0.947541 -9.06459e-05 0)
(-0.946956 -0.000189644 0)
(-0.946018 -0.00029167 0)
(-0.944714 -0.00039821 0)
(-0.943028 -0.000510951 0)
(-0.940937 -0.000631907 0)
(-0.938409 -0.000763587 0)
(-0.935406 -0.000909235 0)
(-0.931875 -0.00107316 0)
(-0.927752 -0.00126126 0)
(-0.922947 -0.0014818 0)
(-0.917344 -0.00174674 0)
(-0.910786 -0.00207398 0)
(-0.903054 -0.0024915 0)
(-0.893842 -0.00304522 0)
(-0.882699 -0.00381473 0)
(-0.868945 -0.00494553 0)
(-0.851496 -0.00671646 0)
(-0.828553 -0.00967891 0)
(-0.797102 -0.0149205 0)
(-0.751997 -0.0244956 0)
(-0.68249 -0.0421399 0)
(-0.564891 -0.0746051 0)
(-0.38929 -0.128114 0)
(-0.290201 -0.152366 0)
(-0.00515676 0.302895 0)
(-0.027066 0.307345 0)
(-0.171372 0.217817 0)
(-0.308316 0.146631 0)
(-0.417339 0.0992822 0)
(-0.502706 0.0690428 0)
(-0.569253 0.0498075 0)
(-0.621382 0.0372795 0)
(-0.662768 0.0288052 0)
(-0.696133 0.0228372 0)
(-0.723409 0.0184734 0)
(-0.74597 0.0151744 0)
(-0.764805 0.0126059 0)
(-0.780632 0.0105532 0)
(-0.793983 0.00887295 0)
(-0.805255 0.00746649 0)
(-0.814748 0.00626388 0)
(-0.822689 0.00521425 0)
(-0.829252 0.00427972 0)
(-0.834568 0.00343151 0)
(-0.838736 0.00264723 0)
(-0.841831 0.00190911 0)
(-0.843904 0.0012027 0)
(-0.84499 0.000515856 0)
(-0.845111 -0.000161937 0)
(-0.844271 -0.000840238 0)
(-0.842467 -0.00152813 0)
(-0.83968 -0.00223476 0)
(-0.835879 -0.00296989 0)
(-0.831022 -0.00374454 0)
(-0.825048 -0.00457168 0)
(-0.817881 -0.00546732 0)
(-0.809418 -0.00645178 0)
(-0.799531 -0.00755159 0)
(-0.788052 -0.0088022 0)
(-0.774764 -0.0102521 0)
(-0.759383 -0.0119689 0)
(-0.741535 -0.0140493 0)
(-0.720719 -0.0166356 0)
(-0.696253 -0.0199427 0)
(-0.667207 -0.0243066 0)
(-0.632287 -0.0302684 0)
(-0.589685 -0.0387245 0)
(-0.536888 -0.0511877 0)
(-0.470581 -0.0701869 0)
(-0.386911 -0.0996712 0)
(-0.281688 -0.145064 0)
(-0.151418 -0.212565 0)
(-0.0163932 -0.298141 0)
(-0.000974343 -0.294649 0)
(0.0321087 0.264051 0)
(0.0563293 0.362386 0)
(-0.00376841 0.325084 0)
(-0.096171 0.260706 0)
(-0.192732 0.201104 0)
(-0.281751 0.154121 0)
(-0.359103 0.119228 0)
(-0.424569 0.0936754 0)
(-0.479496 0.0748275 0)
(-0.52556 0.0606969 0)
(-0.564307 0.0498885 0)
(-0.597032 0.0414446 0)
(-0.624776 0.0347075 0)
(-0.648357 0.0292209 0)
(-0.668417 0.0246628 0)
(-0.685455 0.0208018 0)
(-0.699863 0.0174684 0)
(-0.711945 0.0145364 0)
(-0.721937 0.0119098 0)
(-0.730023 0.00951443 0)
(-0.736344 0.00729204 0)
(-0.741004 0.00519573 0)
(-0.744081 0.00318702 0)
(-0.745627 0.00123341 0)
(-0.745672 -0.000693449 0)
(-0.744229 -0.0026193 0)
(-0.741293 -0.00456869 0)
(-0.73684 -0.00656624 0)
(-0.730833 -0.00863807 0)
(-0.723211 -0.0108134 0)
(-0.713895 -0.0131262 0)
(-0.702782 -0.0156179 0)
(-0.689739 -0.0183404 0)
(-0.674596 -0.0213601 0)
(-0.657138 -0.0247645 0)
(-0.637096 -0.0286697 0)
(-0.614122 -0.0332337 0)
(-0.58778 -0.0386739 0)
(-0.557509 -0.0452948 0)
(-0.522602 -0.0535288 0)
(-0.482169 -0.0639974 0)
(-0.435121 -0.0775992 0)
(-0.380196 -0.0956261 0)
(-0.316099 -0.119887 0)
(-0.241965 -0.152719 0)
(-0.158483 -0.196452 0)
(-0.069963 -0.251259 0)
(0.0123024 -0.309824 0)
(0.0620617 -0.343133 0)
(0.033046 -0.24985 0)
(0.0271366 0.20528 0)
(0.0636449 0.358004 0)
(0.0548315 0.376006 0)
(0.00726557 0.339031 0)
(-0.0606589 0.286543 0)
(-0.134603 0.235811 0)
(-0.206404 0.192595 0)
(-0.272275 0.157585 0)
(-0.330942 0.129729 0)
(-0.382387 0.10761 0)
(-0.427143 0.0899323 0)
(-0.465924 0.0756471 0)
(-0.499451 0.0639447 0)
(-0.52838 0.0542131 0)
(-0.553272 0.045992 0)
(-0.574601 0.0389332 0)
(-0.592754 0.0327719 0)
(-0.608045 0.0273043 0)
(-0.620729 0.0223717 0)
(-0.631007 0.017849 0)
(-0.639036 0.0136359 0)
(-0.644937 0.00965099 0)
(-0.6488 0.00582651 0)
(-0.650689 0.00210486 0)
(-0.650641 -0.00156449 0)
(-0.648676 -0.00522753 0)
(-0.64479 -0.00892796 0)
(-0.638964 -0.0127094 0)
(-0.631157 -0.0166178 0)
(-0.621309 -0.0207037 0)
(-0.609339 -0.0250253 0)
(-0.595141 -0.0296524 0)
(-0.578582 -0.0346704 0)
(-0.559493 -0.0401872 0)
(-0.537671 -0.0463403 0)
(-0.512864 -0.0533086 0)
(-0.484769 -0.061326 0)
(-0.453023 -0.0707019 0)
(-0.417202 -0.0818469 0)
(-0.37683 -0.0953056 0)
(-0.331409 -0.111794 0)
(-0.280501 -0.132233 0)
(-0.223894 -0.157737 0)
(-0.161948 -0.189491 0)
(-0.0962177 -0.228301 0)
(-0.0305054 -0.273361 0)
(0.027546 -0.319329 0)
(0.0649499 -0.350653 0)
(0.0657593 -0.331787 0)
(0.0268808 -0.189828 0)
(0.0184313 0.163568 0)
(0.0529361 0.331975 0)
(0.0680397 0.387714 0)
(0.0519118 0.380745 0)
(0.0117296 0.345361 0)
(-0.0417763 0.301126 0)
(-0.100431 0.257594 0)
(-0.159021 0.218614 0)
(-0.214594 0.185189 0)
(-0.265717 0.157071 0)
(-0.311867 0.133558 0)
(-0.353022 0.113862 0)
(-0.389412 0.0972557 0)
(-0.421371 0.0831217 0)
(-0.449255 0.0709535 0)
(-0.473409 0.0603431 0)
(-0.49414 0.0509642 0)
(-0.511716 0.0425557 0)
(-0.526365 0.0349079 0)
(-0.538272 0.0278507 0)
(-0.547591 0.0212454 0)
(-0.55444 0.0149771 0)
(-0.55891 0.00894907 0)
(-0.56107 0.00307816 0)
(-0.560961 -0.00270892 0)
(-0.558607 -0.00847898 0)
(-0.554013 -0.0142954 0)
(-0.547164 -0.0202209 0)
(-0.53803 -0.0263207 0)
(-0.526562 -0.0326657 0)
(-0.512691 -0.0393359 0)
(-0.496333 -0.0464252 0)
(-0.477378 -0.0540462 0)
(-0.455701 -0.062337 0)
(-0.431148 -0.0714692 0)
(-0.403549 -0.0816575 0)
(-0.372713 -0.0931721 0)
(-0.338444 -0.106351 0)
(-0.30056 -0.121615 0)
(-0.258936 -0.139473 0)
(-0.213576 -0.16052 0)
(-0.16475 -0.185386 0)
(-0.113208 -0.2146 0)
(-0.0605277 -0.248273 0)
(-0.00959587 -0.285404 0)
(0.0348153 -0.322519 0)
(0.0655321 -0.351216 0)
(0.0734223 -0.354359 0)
(0.0532091 -0.301669 0)
(0.0179173 -0.148236 0)
(0.0119235 0.134872 0)
(0.0406051 0.301282 0)
(0.0646582 0.379195 0)
(0.0673259 0.397242 0)
(0.0484144 0.381034 0)
(0.0139926 0.348379 0)
(-0.0296588 0.310045 0)
(-0.0775265 0.271825 0)
(-0.126077 0.236434 0)
(-0.173061 0.204862 0)
(-0.217177 0.177208 0)
(-0.25776 0.153163 0)
(-0.29454 0.132267 0)
(-0.327484 0.114034 0)
(-0.356686 0.0980122 0)
(-0.382303 0.0838036 0)
(-0.404514 0.0710685 0)
(-0.423497 0.0595207 0)
(-0.439418 0.0489212 0)
(-0.452424 0.0390701 0)
(-0.462641 0.0297998 0)
(-0.470172 0.0209686 0)
(-0.475098 0.0124554 0)
(-0.477484 0.00415486 0)
(-0.477373 -0.00402643 0)
(-0.474794 -0.0121739 0)
(-0.469757 -0.0203682 0)
(-0.462261 -0.0286886 0)
(-0.45229 -0.0372161 0)
(-0.439815 -0.0460373 0)
(-0.424795 -0.0552478 0)
(-0.40718 -0.0649568 0)
(-0.38691 -0.0752919 0)
(-0.363919 -0.0864045 0)
(-0.338139 -0.0984761 0)
(-0.30951 -0.111724 0)
(-0.27799 -0.126406 0)
(-0.243585 -0.142826 0)
(-0.206378 -0.161323 0)
(-0.166591 -0.182257 0)
(-0.124679 -0.205955 0)
(-0.081453 -0.232602 0)
(-0.0382778 -0.262024 0)
(0.00269773 -0.29329 0)
(0.0383014 -0.324015 0)
(0.0642415 -0.349232 0)
(0.0753493 -0.359781 0)
(0.0668903 -0.34044 0)
(0.0400783 -0.268977 0)
(0.0114453 -0.11997 0)
(0.00783284 0.114459 0)
(0.0308134 0.272348 0)
(0.0566229 0.3617 0)
(0.069244 0.398061 0)
(0.0648195 0.399146 0)
(0.045716 0.379472 0)
(0.0159236 0.349287 0)
(-0.0205656 0.315119 0)
(-0.0604124 0.280755 0)
(-0.101124 0.248174 0)
(-0.140981 0.218246 0)
(-0.178876 0.191208 0)
(-0.214141 0.166962 0)
(-0.246409 0.145251 0)
(-0.275512 0.125758 0)
(-0.301406 0.108158 0)
(-0.324117 0.0921479 0)
(-0.343712 0.0774522 0)
(-0.360275 0.0638293 0)
(-0.373893 0.0510691 0)
(-0.384651 0.0389894 0)
(-0.392624 0.0274324 0)
(-0.397876 0.0162608 0)
(-0.40046 0.00535348 0)
(-0.400418 -0.00539809 0)
(-0.397781 -0.0160931 0)
(-0.392567 -0.0268249 0)
(-0.384788 -0.0376841 0)
(-0.374448 -0.0487621 0)
(-0.361545 -0.0601539 0)
(-0.346073 -0.0719622 0)
(-0.328026 -0.0843003 0)
(-0.307403 -0.097296 0)
(-0.28421 -0.111095 0)
(-0.258474 -0.125863 0)
(-0.230256 -0.141789 0)
(-0.199668 -0.159077 0)
(-0.166903 -0.177943 0)
(-0.132277 -0.198588 0)
(-0.0962922 -0.221158 0)
(-0.0597095 -0.245658 0)
(-0.0236569 -0.271813 0)
(0.010255 -0.298831 0)
(0.0398267 -0.325016 0)
(0.0622518 -0.347205 0)
(0.0743251 -0.359998 0)
(0.0730167 -0.354905 0)
(0.0568377 -0.319762 0)
(0.0299289 -0.239396 0)
(0.00743439 -0.100124 0)
(0.00538224 0.0994935 0)
(0.0237702 0.246972 0)
(0.0483046 0.341026 0)
(0.0655058 0.389753 0)
(0.0702156 0.404881 0)
(0.0624145 0.397506 0)
(0.0441363 0.376505 0)
(0.0181438 0.348274 0)
(-0.0128184 0.317058 0)
(-0.0464106 0.285468 0)
(-0.0808116 0.254979 0)
(-0.114689 0.226331 0)
(-0.147113 0.199801 0)
(-0.177466 0.175404 0)
(-0.205359 0.153007 0)
(-0.230561 0.132406 0)
(-0.25295 0.113372 0)
(-0.272474 0.0956767 0)
(-0.289127 0.0791011 0)
(-0.302928 0.0634457 0)
(-0.31391 0.0485303 0)
(-0.322114 0.0341938 0)
(-0.327578 0.0202929 0)
(-0.330341 0.00669879 0)
(-0.330437 -0.00670455 0)
(-0.327899 -0.0200237 0)
(-0.322752 -0.0333584 0)
(-0.315022 -0.0468044 0)
(-0.304734 -0.060456 0)
(-0.291914 -0.0744088 0)
(-0.276595 -0.0887625 0)
(-0.258818 -0.103623 0)
(-0.238641 -0.119104 0)
(-0.216146 -0.135328 0)
(-0.191451 -0.152424 0)
(-0.164727 -0.170525 0)
(-0.136217 -0.189756 0)
(-0.106269 -0.210215 0)
(-0.07537 -0.231938 0)
(-0.0441986 -0.25484 0)
(-0.0136797 -0.278623 0)
(0.0149548 -0.302628 0)
(0.0401192 -0.325615 0)
(0.0598762 -0.345456 0)
(0.0720558 -0.358732 0)
(0.0745953 -0.360302 0)
(0.0661544 -0.342971 0)
(0.047194 -0.297595 0)
(0.0226865 -0.214225 0)
(0.00504045 -0.0857874 0)
(0.00389546 0.0881245 0)
(0.018791 0.225214 0)
(0.0410259 0.320029 0)
(0.0598063 0.376573 0)
(0.0699037 0.402412 0)
(0.0699857 0.405697 0)
(0.0606743 0.39369 0)
(0.0436232 0.372169 0)
(0.0208624 0.345373 0)
(-0.00563472 0.316208 0)
(-0.0341612 0.286549 0)
(-0.063342 0.257524 0)
(-0.092124 0.229748 0)
(-0.119732 0.203502 0)
(-0.145613 0.178855 0)
(-0.169388 0.15575 0)
(-0.190805 0.134061 0)
(-0.209703 0.113629 0)
(-0.225988 0.0942835 0)
(-0.239608 0.0758531 0)
(-0.250544 0.0581759 0)
(-0.258795 0.0411009 0)
(-0.264373 0.0244894 0)
(-0.267297 0.00821489 0)
(-0.267592 -0.00783832 0)
(-0.265289 -0.0237767 0)
(-0.260419 -0.0396991 0)
(-0.25302 -0.0556992 0)
(-0.243138 -0.0718667 0)
(-0.230827 -0.0882896 0)
(-0.216155 -0.105055 0)
(-0.199207 -0.122251 0)
(-0.180098 -0.139965 0)
(-0.158976 -0.158282 0)
(-0.136037 -0.17728 0)
(-0.11154 -0.197022 0)
(-0.0858304 -0.217537 0)
(-0.0593594 -0.238796 0)
(-0.032718 -0.260671 0)
(-0.00666817 -0.28287 0)
(0.0178259 -0.304848 0)
(0.0395775 -0.325672 0)
(0.0571865 -0.343842 0)
(0.0691086 -0.357076 0)
(0.0738373 -0.362062 0)
(0.0702577 -0.354261 0)
(0.0581661 -0.3279 0)
(0.0390049 -0.276347 0)
(0.0175681 -0.193235 0)
(0.00358525 -0.0750882 0)
(0.00295557 0.0791754 0)
(0.0152221 0.206617 0)
(0.0349995 0.300003 0)
(0.0537804 0.361125 0)
(0.0668018 0.39478 0)
(0.072136 0.406815 0)
(0.0694983 0.402954 0)
(0.0596752 0.388157 0)
(0.0440238 0.366368 0)
(0.0240781 0.340528 0)
(0.0013095 0.312711 0)
(-0.0229916 0.28431 0)
(-0.047758 0.256202 0)
(-0.0721431 0.2289 0)
(-0.0954975 0.202667 0)
(-0.117336 0.1776 0)
(-0.137306 0.153689 0)
(-0.155155 0.130861 0)
(-0.170712 0.109008 0)
(-0.18386 0.0880038 0)
(-0.194528 0.0677188 0)
(-0.202674 0.0480239 0)
(-0.208281 0.0287961 0)
(-0.211348 0.00992015 0)
(-0.211889 -0.00871082 0)
(-0.209929 -0.0271954 0)
(-0.205504 -0.0456245 0)
(-0.198662 -0.0640821 0)
(-0.189466 -0.0826465 0)
(-0.177994 -0.10139 0)
(-0.164343 -0.12038 0)
(-0.148641 -0.139677 0)
(-0.131044 -0.159333 0)
(-0.111756 -0.179388 0)
(-0.0910304 -0.199859 0)
(-0.069192 -0.220733 0)
(-0.0466485 -0.241941 0)
(-0.0239105 -0.263336 0)
(-0.00161055 -0.284643 0)
(0.0194803 -0.305406 0)
(0.0384446 -0.324903 0)
(0.0542282 -0.342037 0)
(0.0656846 -0.355212 0)
(0.071677 -0.362188 0)
(0.0712695 -0.359957 0)
(0.0640367 -0.344704 0)
(0.0504499 -0.311947 0)
(0.0323274 -0.256981 0)
(0.0138912 -0.175795 0)
(0.0026617 -0.0668475 0)
(0.00233016 0.0719186 0)
(0.0125966 0.190649 0)
(0.0300841 0.28145 0)
(0.0480832 0.344931 0)
(0.062466 0.384085 0)
(0.0711344 0.403041 0)
(0.0732824 0.406206 0)
(0.0690793 0.397694 0)
(0.059324 0.38101 0)
(0.0451234 0.358953 0)
(0.0276661 0.333641 0)
(0.00808468 0.306607 0)
(-0.0126169 0.278911 0)
(-0.0335914 0.25125 0)
(-0.0541489 0.224053 0)
(-0.0737434 0.197562 0)
(-0.0919531 0.171883 0)
(-0.108459 0.147038 0)
(-0.123024 0.12299 0)
(-0.13548 0.099671 0)
(-0.145706 0.0769916 0)
(-0.153625 0.0548556 0)
(-0.159191 0.0331651 0)
(-0.162382 0.0118247 0)
(-0.163199 -0.0092558 0)
(-0.161661 -0.0301598 0)
(-0.157805 -0.0509634 0)
(-0.151687 -0.0717347 0)
(-0.143381 -0.0925335 0)
(-0.132984 -0.113411 0)
(-0.120618 -0.134406 0)
(-0.106439 -0.155549 0)
(-0.0906384 -0.176849 0)
(-0.0734558 -0.198296 0)
(-0.0551857 -0.219845 0)
(-0.0361892 -0.241407 0)
(-0.0169059 -0.262824 0)
(0.00213528 -0.283843 0)
(0.0203069 -0.304076 0)
(0.0368805 -0.322946 0)
(0.0510351 -0.339625 0)
(0.0618872 -0.352949 0)
(0.0685519 -0.361338 0)
(0.0702517 -0.362713 0)
(0.0664905 -0.354459 0)
(0.0572981 -0.333468 0)
(0.0434934 -0.296333 0)
(0.0269346 -0.239761 0)
(0.011181 -0.161266 0)
(0.00204507 -0.0603347 0)
(0.0018919 0.0658966 0)
(0.0106065 0.176843 0)
(0.0260623 0.264501 0)
(0.0429242 0.328857 0)
(0.0576985 0.371734 0)
(0.0683442 0.396016 0)
(0.0737969 0.405043 0)
(0.0738208 0.402149 0)
(0.0687875 0.390354 0)
(0.0594333 0.37221 0)
(0.0466651 0.34977 0)
(0.031426 0.324608 0)
(0.0146102 0.297889 0)
(-0.0029837 0.27044 0)
(-0.0206712 0.242825 0)
(-0.0378842 0.215409 0)
(-0.0541631 0.188408 0)
(-0.0691442 0.161935 0)
(-0.0825459 0.136031 0)
(-0.0941548 0.110688 0)
(-0.103814 0.0858662 0)
(-0.111414 0.0615104 0)
(-0.116881 0.0375544 0)
(-0.120175 0.0139299 0)
(-0.121284 -0.00942984 0)
(-0.120218 -0.0325868 0)
(-0.117014 -0.0555963 0)
(-0.11173 -0.0785047 0)
(-0.104447 -0.101349 0)
(-0.0952756 -0.124152 0)
(-0.0843543 -0.146924 0)
(-0.0718573 -0.169656 0)
(-0.0579983 -0.192316 0)
(-0.0430383 -0.214842 0)
(-0.0272917 -0.237128 0)
(-0.0111345 -0.259017 0)
(0.00498942 -0.280273 0)
(0.0205632 -0.300558 0)
(0.0349966 -0.319402 0)
(0.0476338 -0.336153 0)
(0.0577726 -0.349933 0)
(0.0647042 -0.359582 0)
(0.0677793 -0.363609 0)
(0.0665095 -0.360159 0)
(0.0607108 -0.347019 0)
(0.0506861 -0.32171 0)
(0.037392 -0.28168 0)
(0.02256 -0.224649 0)
(0.00912643 -0.149106 0)
(0.00161237 -0.0550858 0)
(0.00156992 0.060811 0)
(0.00905166 0.164822 0)
(0.0227326 0.249127 0)
(0.0383219 0.313383 0)
(0.0528938 0.358659 0)
(0.0645711 0.386946 0)
(0.0721986 0.400749 0)
(0.0752959 0.402726 0)
(0.073928 0.395419 0)
(0.0685318 0.381094 0)
(0.0597613 0.361664 0)
(0.048367 0.338675 0)
(0.0351115 0.313331 0)
(0.0207141 0.286539 0)
(0.00582106 0.25896 0)
(-0.00900823 0.231058 0)
(-0.0233032 0.203147 0)
(-0.0366776 0.175424 0)
(-0.0488214 0.148003 0)
(-0.0594912 0.120941 0)
(-0.0685016 0.0942522 0)
(-0.0757161 0.0679238 0)
(-0.0810404 0.0419281 0)
(-0.0844167 0.0162292 0)
(-0.085819 -0.00921078 0)
(-0.0852504 -0.0344275 0)
(-0.0827416 -0.0594506 0)
(-0.0783503 -0.0843007 0)
(-0.0721621 -0.108987 0)
(-0.064292 -0.133503 0)
(-0.0548876 -0.157824 0)
(-0.044132 -0.181905 0)
(-0.032249 -0.205669 0)
(-0.0195067 -0.229004 0)
(-0.00622347 -0.251752 0)
(0.00722905 -0.273693 0)
(0.0204227 -0.294529 0)
(0.0328734 -0.31386 0)
(0.0440474 -0.331159 0)
(0.0533744 -0.345738 0)
(0.060274 -0.356714 0)
(0.0641974 -0.362976 0)
(0.0646909 -0.363165 0)
(0.0614822 -0.355663 0)
(0.0545938 -0.33864 0)
(0.044472 -0.310142 0)
(0.0320857 -0.268278 0)
(0.0189713 -0.211486 0)
(0.00752526 -0.138886 0)
(0.0012949 -0.0507953 0)
(0.00132342 0.0564603 0)
(0.00780177 0.154294 0)
(0.0199316 0.235235 0)
(0.0342217 0.298768 0)
(0.0482303 0.345474 0)
(0.0602844 0.376707 0)
(0.0692372 0.394329 0)
(0.0744775 0.400434 0)
(0.0758637 0.397132 0)
(0.0736039 0.386391 0)
(0.0681388 0.369947 0)
(0.0600411 0.349268 0)
(0.0499375 0.32555 0)
(0.0384528 0.299737 0)
(0.026174 0.272553 0)
(0.0136295 0.244538 0)
(0.0012795 0.216081 0)
(-0.010486 0.187456 0)
(-0.0213441 0.158847 0)
(-0.0310343 0.13037 0)
(-0.0393516 0.102093 0)
(-0.0461409 0.0740509 0)
(-0.0512906 0.0462565 0)
(-0.0547276 0.0187098 0)
(-0.0564141 -0.0085949 0)
(-0.0563439 -0.0356631 0)
(-0.0545415 -0.0624953 0)
(-0.0510606 -0.0890834 0)
(-0.0459852 -0.115406 0)
(-0.0394305 -0.141426 0)
(-0.0315447 -0.167084 0)
(-0.0225116 -0.192295 0)
(-0.012554 -0.216943 0)
(-0.00193608 -0.24087 0)
(0.00903384 -0.263868 0)
(0.0200019 -0.285668 0)
(0.0305697 -0.305924 0)
(0.0402985 -0.324191 0)
(0.0487191 -0.339913 0)
(0.0553494 -0.352392 0)
(0.0597216 -0.36077 0)
(0.0614234 -0.364013 0)
(0.0601531 -0.360908 0)
(0.0557915 -0.350071 0)
(0.0484859 -0.330006 0)
(0.0387393 -0.29919 0)
(0.0274641 -0.256235 0)
(0.0159839 -0.200086 0)
(0.0062446 -0.130272 0)
(0.00105283 -0.0472545 0)
(0.0011279 0.0527047 0)
(0.00676991 0.145038 0)
(0.0175332 0.222717 0)
(0.0305475 0.285146 0)
(0.0437753 0.332584 0)
(0.0557524 0.365932 0)
(0.0653958 0.386561 0)
(0.0720411 0.396108 0)
(0.0754159 0.396302 0)
(0.0755622 0.388829 0)
(0.07275 0.375236 0)
(0.0673969 0.356884 0)
(0.0600013 0.334926 0)
(0.0510892 0.310308 0)
(0.0411774 0.283788 0)
(0.0307484 0.255957 0)
(0.0202366 0.227266 0)
(0.0100209 0.19805 0)
(0.000423517 0.168554 0)
(-0.00828886 0.138951 0)
(-0.0159012 0.109361 0)
(-0.0222462 0.0798641 0)
(-0.0271998 0.050516 0)
(-0.0306773 0.0213539 0)
(-0.0326298 -0.00759349 0)
(-0.0330422 -0.0362993 0)
(-0.0319309 -0.0647333 0)
(-0.0293433 -0.0928565 0)
(-0.0253577 -0.120617 0)
(-0.0200839 -0.147943 0)
(-0.0136647 -0.174744 0)
(-0.00627702 -0.200897 0)
(0.00186599 -0.226246 0)
(0.0105136 -0.250595 0)
(0.0193769 -0.273694 0)
(0.0281298 -0.295234 0)
(0.0364117 -0.314831 0)
(0.0438353 -0.332016 0)
(0.0499976 -0.346218 0)
(0.054499 -0.35675 0)
(0.0569701 -0.362798 0)
(0.0571084 -0.363418 0)
(0.0547254 -0.357541 0)
(0.0498024 -0.344001 0)
(0.0425529 -0.321581 0)
(0.0334816 -0.289107 0)
(0.0234098 -0.245568 0)
(0.0134558 -0.190269 0)
(0.00519493 -0.123008 0)
(0.000861973 -0.0443171 0)
(0.000967957 0.049444 0)
(0.00589684 0.136881 0)
(0.015442 0.21147 0)
(0.0272239 0.272581 0)
(0.0395403 0.320257 0)
(0.0511248 0.355079 0)
(0.0609856 0.378042 0)
(0.0684549 0.390419 0)
(0.0731865 0.393617 0)
(0.0751073 0.389063 0)
(0.0743561 0.378119 0)
(0.0712218 0.362023 0)
(0.0660877 0.341863 0)
(0.0593846 0.318566 0)
(0.0515553 0.292898 0)
(0.0430287 0.265482 0)
(0.0342025 0.236811 0)
(0.0254336 0.207272 0)
(0.0170329 0.177159 0)
(0.00926367 0.146696 0)
(0.00234316 0.116052 0)
(-0.00355569 0.0853507 0)
(-0.00830118 0.0546886 0)
(-0.0117999 0.0241407 0)
(-0.0139942 -0.00622926 0)
(-0.0148598 -0.0363615 0)
(-0.0144045 -0.0661939 0)
(-0.0126672 -0.0956565 0)
(-0.00971708 -0.124666 0)
(-0.00565468 -0.15312 0)
(-0.000611771 -0.180892 0)
(0.00524754 -0.207828 0)
(0.0117262 -0.233736 0)
(0.0185939 -0.258383 0)
(0.025588 -0.281487 0)
(0.0324157 -0.302707 0)
(0.0387591 -0.321634 0)
(0.0442828 -0.337783 0)
(0.0486473 -0.350584 0)
(0.0515264 -0.359371 0)
(0.0526325 -0.363386 0)
(0.0517479 -0.361775 0)
(0.0487635 -0.353606 0)
(0.0437214 -0.3379 0)
(0.0368602 -0.313678 0)
(0.0286529 -0.280036 0)
(0.0198155 -0.236248 0)
(0.0112791 -0.181877 0)
(0.00431439 -0.1169 0)
(0.000706949 -0.0418778 0)
(0.000833506 0.0466054 0)
(0.00514119 0.129693 0)
(0.013586 0.201404 0)
(0.0241839 0.261097 0)
(0.0355113 0.308673 0)
(0.0464819 0.344479 0)
(0.0562065 0.369231 0)
(0.064045 0.38391 0)
(0.0696176 0.389654 0)
(0.0727768 0.387664 0)
(0.0735643 0.379126 0)
(0.0721659 0.365157 0)
(0.0688663 0.346767 0)
(0.064009 0.324844 0)
(0.0579644 0.300147 0)
(0.0511042 0.273312 0)
(0.043784 0.244863 0)
(0.0363306 0.215222 0)
(0.0290358 0.184726 0)
(0.022152 0.153642 0)
(0.0158916 0.122181 0)
(0.0104277 0.0905094 0)
(0.0058951 0.058761 0)
(0.00239267 0.0270475 0)
(-1.48467e-05 -0.0045331 0)
(-0.00129509 -0.0358887 0)
(-0.00144668 -0.0669259 0)
(-0.000498301 -0.0975441 0)
(0.00149187 -0.127629 0)
(0.00443626 -0.157049 0)
(0.00821782 -0.185647 0)
(0.0126899 -0.213236 0)
(0.0176763 -0.239595 0)
(0.022972 -0.264459 0)
(0.0283446 -0.287519 0)
(0.033538 -0.308409 0)
(0.0382775 -0.326703 0)
(0.0422786 -0.34191 0)
(0.0452591 -0.353467 0)
(0.0469559 -0.36074 0)
(0.047147 -0.363024 0)
(0.0456773 -0.359553 0)
(0.04249 -0.349517 0)
(0.0376586 -0.332097 0)
(0.0314188 -0.306505 0)
(0.024193 -0.272053 0)
(0.0165892 -0.228227 0)
(0.00937134 -0.174776 0)
(0.00355911 -0.111796 0)
(0.000577556 -0.0398596 0)
(0.000717683 0.0441348 0)
(0.00447344 0.123374 0)
(0.0119108 0.192443 0)
(0.0213709 0.2507 0)
(0.0316638 0.297951 0)
(0.041864 0.334377 0)
(0.0511872 0.360479 0)
(0.0590395 0.37701 0)
(0.0650358 0.384888 0)
(0.0689845 0.38512 0)
(0.0708592 0.378733 0)
(0.0707657 0.366724 0)
(0.0689067 0.350024 0)
(0.0655489 0.329471 0)
(0.0609949 0.305805 0)
(0.0555599 0.279664 0)
(0.049554 0.251587 0)
(0.0432701 0.222021 0)
(0.0369748 0.191339 0)
(0.0309041 0.159841 0)
(0.0252601 0.127777 0)
(0.020211 0.095348 0)
(0.0158908 0.0627242 0)
(0.012401 0.0300511 0)
(0.00981114 -0.00254121 0)
(0.00816086 -0.0349295 0)
(0.00746057 -0.0669908 0)
(0.00769252 -0.0985954 0)
(0.0088114 -0.129601 0)
(0.0107447 -0.159846 0)
(0.013393 -0.189147 0)
(0.0166303 -0.217288 0)
(0.0203045 -0.24402 0)
(0.0242386 -0.269054 0)
(0.028233 -0.292056 0)
(0.032069 -0.312644 0)
(0.0355145 -0.330379 0)
(0.0383322 -0.344769 0)
(0.0402906 -0.355266 0)
(0.0411794 -0.361264 0)
(0.040827 -0.362111 0)
(0.039123 -0.357121 0)
(0.0360417 -0.345589 0)
(0.0316665 -0.326828 0)
(0.026212 -0.300205 0)
(0.0200401 -0.265198 0)
(0.0136538 -0.221453 0)
(0.00766948 -0.168855 0)
(0.0028973 -0.107581 0)
(0.000466769 -0.0382055 0)
(0.000615674 0.0419919 0)
(0.00387207 0.117847 0)
(0.010375 0.184522 0)
(0.0187383 0.241383 0)
(0.0279703 0.288173 0)
(0.0372886 0.324949 0)
(0.0460109 0.352055 0)
(0.0535999 0.370062 0)
(0.0596842 0.37971 0)
(0.0640512 0.381842 0)
(0.0666293 0.377348 0)
(0.0674645 0.367112 0)
(0.0666932 0.351987 0)
(0.0645165 0.332758 0)
(0.0611754 0.310138 0)
(0.0569314 0.284755 0)
(0.0520491 0.257154 0)
(0.0467848 0.227802 0)
(0.0413768 0.197093 0)
(0.03604 0.165358 0)
(0.0309623 0.132875 0)
(0.0263029 0.0998793 0)
(0.0221918 0.0665715 0)
(0.0187298 0.0331275 0)
(0.0159899 -0.000292839 0)
(0.0140173 -0.0335381 0)
(0.0128312 -0.0664577 0)
(0.012425 -0.0988953 0)
(0.0127672 -0.130682 0)
(0.0138017 -0.161632 0)
(0.0154487 -0.191534 0)
(0.0176046 -0.220149 0)
(0.0201435 -0.247205 0)
(0.0229181 -0.27239 0)
(0.0257622 -0.295352 0)
(0.0284944 -0.315693 0)
(0.030923 -0.332969 0)
(0.0328537 -0.346689 0)
(0.0340992 -0.356318 0)
(0.0344917 -0.36128 0)
(0.0338984 -0.36097 0)
(0.0322383 -0.354769 0)
(0.0295008 -0.342061 0)
(0.0257641 -0.322266 0)
(0.0212106 -0.294873 0)
(0.0161369 -0.259488 0)
(0.0109461 -0.215878 0)
(0.00612474 -0.164026 0)
(0.00230541 -0.104168 0)
(0.000369597 -0.0368732 0)
(0.000524008 0.0401459 0)
(0.00332107 0.113052 0)
(0.00894639 0.17759 0)
(0.016248 0.233139 0)
(0.0244044 0.279395 0)
(0.0327603 0.316331 0)
(0.0407311 0.344166 0)
(0.0478413 0.363336 0)
(0.0537456 0.374437 0)
(0.0582276 0.378176 0)
(0.0611884 0.375321 0)
(0.0626307 0.366662 0)
(0.0626391 0.352973 0)
(0.0613592 0.33499 0)
(0.0589785 0.313392 0)
(0.0557081 0.288792 0)
(0.0517688 0.261734 0)
(0.0473795 0.232695 0)
(0.0427482 0.202084 0)
(0.0380662 0.170257 0)
(0.0335037 0.137514 0)
(0.0292079 0.104119 0)
(0.0253015 0.0702976 0)
(0.0218828 0.0362531 0)
(0.0190255 0.00217135 0)
(0.0167795 -0.031771 0)
(0.0151719 -0.0653987 0)
(0.0142069 -0.0985317 0)
(0.0138673 -0.130978 0)
(0.0141141 -0.162529 0)
(0.0148879 -0.192951 0)
(0.016109 -0.221984 0)
(0.0176783 -0.249335 0)
(0.0194789 -0.274675 0)
(0.0213781 -0.297635 0)
(0.0232303 -0.317807 0)
(0.0248819 -0.334741 0)
(0.0261775 -0.347948 0)
(0.0269674 -0.356906 0)
(0.0271186 -0.361065 0)
(0.0265262 -0.359859 0)
(0.0251274 -0.352724 0)
(0.0229152 -0.339114 0)
(0.0199522 -0.318536 0)
(0.0163812 -0.290573 0)
(0.012432 -0.254928 0)
(0.00841442 -0.211459 0)
(0.00469909 -0.160221 0)
(0.00176568 -0.101489 0)
(0.000282401 -0.0358309 0)
(0.000440112 0.0385737 0)
(0.00280828 0.108944 0)
(0.00760018 0.171607 0)
(0.0138688 0.225955 0)
(0.0209414 0.271656 0)
(0.0282769 0.308618 0)
(0.0353826 0.336973 0)
(0.041847 0.357047 0)
(0.0473597 0.369324 0)
(0.051712 0.3744 0)
(0.0547918 0.372945 0)
(0.0565723 0.365663 0)
(0.0570981 0.353259 0)
(0.0564696 0.33642 0)
(0.0548271 0.31579 0)
(0.0523366 0.291966 0)
(0.0491771 0.265484 0)
(0.0455306 0.236823 0)
(0.041574 0.206407 0)
(0.0374731 0.174603 0)
(0.0333782 0.141734 0)
(0.029422 0.108082 0)
(0.0257176 0.0738968 0)
(0.0223581 0.0394037 0)
(0.0194165 0.00481038 0)
(0.0169458 -0.0296847 0)
(0.0149798 -0.0638854 0)
(0.0135333 -0.0975911 0)
(0.0126027 -0.13059 0)
(0.0121666 -0.162653 0)
(0.0121863 -0.19353 0)
(0.0126062 -0.222941 0)
(0.0133545 -0.250576 0)
(0.0143445 -0.276092 0)
(0.0154763 -0.299105 0)
(0.016639 -0.319199 0)
(0.0177143 -0.335919 0)
(0.0185817 -0.348777 0)
(0.0191242 -0.357261 0)
(0.0192365 -0.36084 0)
(0.018834 -0.35898 0)
(0.0178634 -0.351158 0)
(0.0163129 -0.336885 0)
(0.0142221 -0.31573 0)
(0.0116905 -0.287349 0)
(0.00888124 -0.251517 0)
(0.00601646 -0.208159 0)
(0.00336256 -0.157383 0)
(0.00126447 -0.0994944 0)
(0.00020246 -0.0350552 0)
(0.000362029 0.0372577 0)
(0.00232426 0.105487 0)
(0.00631641 0.166541 0)
(0.0115749 0.219823 0)
(0.0175594 0.264984 0)
(0.0238322 0.301886 0)
(0.0299874 0.330596 0)
(0.0356783 0.351359 0)
(0.0406341 0.364572 0)
(0.0446631 0.370744 0)
(0.0476501 0.370461 0)
(0.0495496 0.364356 0)
(0.0503764 0.353077 0)
(0.0501938 0.337262 0)
(0.0491018 0.317526 0)
(0.0472255 0.294443 0)
(0.0447053 0.268541 0)
(0.0416872 0.240298 0)
(0.038317 0.210142 0)
(0.0347337 0.178453 0)
(0.0310664 0.145566 0)
(0.0274311 0.11178 0)
(0.0239292 0.0773615 0)
(0.0206469 0.0425542 0)
(0.0176545 0.00758355 0)
(0.0150066 -0.0273345 0)
(0.0127426 -0.0619865 0)
(0.0108868 -0.096155 0)
(0.009449 -0.129612 0)
(0.0084249 -0.162113 0)
(0.00779627 -0.193391 0)
(0.00753151 -0.223153 0)
(0.00758601 -0.251075 0)
(0.00790294 -0.276798 0)
(0.0084142 -0.299931 0)
(0.00904209 -0.320047 0)
(0.00970166 -0.336685 0)
(0.010304 -0.34936 0)
(0.0107605 -0.357563 0)
(0.0109887 -0.360776 0)
(0.0109184 -0.358487 0)
(0.0104995 -0.350202 0)
(0.00970966 -0.335472 0)
(0.00856124 -0.313912 0)
(0.0071077 -0.285229 0)
(0.0054468 -0.24925 0)
(0.00371759 -0.20595 0)
(0.00209119 -0.155473 0)
(0.000791117 -0.0981456 0)
(0.00012769 -0.0345291 0)
(0.000288217 0.036185 0)
(0.0018614 0.102654 0)
(0.00507878 0.162366 0)
(0.00934435 0.214734 0)
(0.0142382 0.259397 0)
(0.0194176 0.296188 0)
(0.0245592 0.325126 0)
(0.0293804 0.3464 0)
(0.0336537 0.360339 0)
(0.0372101 0.367385 0)
(0.0399392 0.368059 0)
(0.0417852 0.362937 0)
(0.0427408 0.352615 0)
(0.0428395 0.337695 0)
(0.0421467 0.318759 0)
(0.0407508 0.296362 0)
(0.0387558 0.271022 0)
(0.0362738 0.243212 0)
(0.0334193 0.21336 0)
(0.0303043 0.181853 0)
(0.0270351 0.149036 0)
(0.0237098 0.115219 0)
(0.0204164 0.0806809 0)
(0.0172322 0.0456784 0)
(0.0142232 0.0104506 0)
(0.0114442 -0.024773 0)
(0.00893868 -0.0597659 0)
(0.00673959 -0.094298 0)
(0.00486916 -0.128129 0)
(0.00333939 -0.161001 0)
(0.00215217 -0.192637 0)
(0.00129946 -0.222732 0)
(0.000763338 -0.250949 0)
(0.000516217 -0.276921 0)
(0.000521123 -0.300246 0)
(0.000732326 -0.320488 0)
(0.00109639 -0.337182 0)
(0.00155387 -0.349837 0)
(0.00204168 -0.357947 0)
(0.00249647 -0.360999 0)
(0.00285866 -0.358491 0)
(0.0030774 -0.349949 0)
(0.00311586 -0.334946 0)
(0.00295647 -0.313127 0)
(0.00260559 -0.284232 0)
(0.00209653 -0.248124 0)
(0.00148915 -0.20481 0)
(0.000865531 -0.154459 0)
(0.000337081 -0.097416 0)
(5.64518e-05 -0.0342404 0)
(0.000217413 0.0353459 0)
(0.00141338 0.100428 0)
(0.00387344 0.159066 0)
(0.00715815 0.210681 0)
(0.0109594 0.254909 0)
(0.0150233 0.291563 0)
(0.0191056 0.320633 0)
(0.0229873 0.342265 0)
(0.0264861 0.356743 0)
(0.02946 0.364458 0)
(0.0318088 0.365886 0)
(0.0334724 0.361555 0)
(0.0344279 0.352022 0)
(0.0346842 0.337856 0)
(0.0342767 0.319615 0)
(0.0332608 0.297834 0)
(0.0317065 0.273018 0)
(0.0296932 0.245635 0)
(0.0273045 0.216112 0)
(0.0246253 0.184837 0)
(0.0217384 0.15216 0)
(0.0187223 0.118398 0)
(0.0156503 0.0838391 0)
(0.0125893 0.0487473 0)
(0.00959942 0.0133715 0)
(0.00673385 -0.0220501 0)
(0.00403919 -0.0572822 0)
(0.00155546 -0.0920859 0)
(-0.000683679 -0.126212 0)
(-0.00265076 -0.159397 0)
(-0.00432455 -0.191352 0)
(-0.00569019 -0.221765 0)
(-0.00673948 -0.250292 0)
(-0.00747133 -0.276557 0)
(-0.00789225 -0.300148 0)
(-0.00801678 -0.320623 0)
(-0.00786785 -0.337508 0)
(-0.00747675 -0.350306 0)
(-0.00688272 -0.358506 0)
(-0.00613187 -0.361594 0)
(-0.00527542 -0.359068 0)
(-0.00436719 -0.350459 0)
(-0.00346044 -0.335351 0)
(-0.00260418 -0.313401 0)
(-0.00183962 -0.284367 0)
(-0.00119692 -0.248132 0)
(-0.000692961 -0.204721 0)
(-0.000330571 -0.154321 0)
(-0.000104664 -0.0972873 0)
(-1.25878e-05 -0.034181 0)
(0.000148532 0.0347341 0)
(0.000974673 0.0987951 0)
(0.00268804 0.156628 0)
(0.0049988 0.207662 0)
(0.00770502 0.25153 0)
(0.0106379 0.28804 0)
(0.0136297 0.317162 0)
(0.0165244 0.33902 0)
(0.0191863 0.353867 0)
(0.0215031 0.362062 0)
(0.0233885 0.364047 0)
(0.0247826 0.360318 0)
(0.0256507 0.351403 0)
(0.0259815 0.337846 0)
(0.0257835 0.320182 0)
(0.0250821 0.298932 0)
(0.0239153 0.27459 0)
(0.0223305 0.247614 0)
(0.0203812 0.218428 0)
(0.0181247 0.187419 0)