/*--------------------------------*- C++ -*----------------------------------*\
  =========                 |
  \\      /  F ield         | OpenFOAM: The Open Source CFD Toolbox
   \\    /   O peration     | Website:  https://openfoam.org
    \\  /    A nd           | Version:  7
     \\/     M anipulation  |
\*---------------------------------------------------------------------------*/
FoamFile
{
    version     2.0;
    format      ascii;
    class       volVectorField;
    location    "0.0634";
    object      U;
}
// * * * * * * * * * * * * * * * * * * * * * * * * * * * * * * * * * * * * * //

dimensions      [0 1 -1 0 0 0 0];

internalField   nonuniform List<vector> 
2500
(
(3.01937e-05 -3.02951e-05 0)
(9.18873e-05 -3.71697e-05 0)
(0.000127139 -1.9111e-05 0)
(9.58284e-05 7.3734e-06 0)
(-1.43364e-05 3.45563e-05 0)
(-0.000201758 5.9585e-05 0)
(-0.000459368 8.129e-05 0)
(-0.000777915 9.93236e-05 0)
(-0.00114709 0.000113699 0)
(-0.0015563 0.000124564 0)
(-0.00199505 0.00013212 0)
(-0.00245323 0.000136582 0)
(-0.00292121 0.000138177 0)
(-0.00338991 0.000137125 0)
(-0.00385087 0.000133644 0)
(-0.00429626 0.000127947 0)
(-0.00471891 0.000120242 0)
(-0.0051123 0.000110731 0)
(-0.00547055 9.96106e-05 0)
(-0.00578848 8.7077e-05 0)
(-0.00606155 7.33228e-05 0)
(-0.00628587 5.85407e-05 0)
(-0.00645827 4.29248e-05 0)
(-0.00657623 2.66726e-05 0)
(-0.00663794 9.98666e-06 0)
(-0.00664233 -6.92411e-06 0)
(-0.00658904 -2.38436e-05 0)
(-0.00647849 -4.05478e-05 0)
(-0.00631191 -5.6804e-05 0)
(-0.0060913 -7.23712e-05 0)
(-0.00581951 -8.70011e-05 0)
(-0.00550026 -0.000100439 0)
(-0.00513808 -0.000112427 0)
(-0.0047384 -0.000122703 0)
(-0.00430747 -0.000131009 0)
(-0.00385238 -0.000137091 0)
(-0.003381 -0.000140699 0)
(-0.00290195 -0.0001416 0)
(-0.0024245 -0.000139571 0)
(-0.00195851 -0.000134412 0)
(-0.00151432 -0.000125943 0)
(-0.00110255 -0.000114016 0)
(-0.000733959 -9.85249e-05 0)
(-0.000419131 -7.94395e-05 0)
(-0.000167981 -5.68918e-05 0)
(1.0978e-05 -3.14095e-05 0)
(0.000111946 -4.31998e-06 0)
(0.000134571 2.13197e-05 0)
(9.31388e-05 3.81509e-05 0)
(2.97838e-05 2.97244e-05 0)
(3.74554e-05 -9.22178e-05 0)
(8.48827e-05 -8.40715e-05 0)
(3.63615e-05 1.71223e-05 0)
(-0.000169169 0.000155086 0)
(-0.000555965 0.000301114 0)
(-0.0011246 0.00044047 0)
(-0.00186328 0.000565446 0)
(-0.00275286 0.000672321 0)
(-0.0037701 0.000759542 0)
(-0.00488971 0.00082673 0)
(-0.00608572 0.000874179 0)
(-0.00733233 0.000902579 0)
(-0.00860448 0.000912864 0)
(-0.0098782 0.000906116 0)
(-0.0111309 0.000883508 0)
(-0.0123414 0.000846266 0)
(-0.0134903 0.000795645 0)
(-0.0145598 0.00073292 0)
(-0.0155339 0.000659374 0)
(-0.0163982 0.000576301 0)
(-0.0171403 0.000485002 0)
(-0.0177496 0.000386794 0)
(-0.0182174 0.000283015 0)
(-0.0185368 0.000175026 0)
(-0.018703 6.42257e-05 0)
(-0.0187131 -4.79529e-05 0)
(-0.0185663 -0.000160033 0)
(-0.0182639 -0.000270494 0)
(-0.0178093 -0.000377772 0)
(-0.0172083 -0.000480262 0)
(-0.0164688 -0.000576329 0)
(-0.0156009 -0.000664313 0)
(-0.0146173 -0.000742552 0)
(-0.0135327 -0.000809393 0)
(-0.0123641 -0.00086322 0)
(-0.0111306 -0.000902475 0)
(-0.00985331 -0.000925695 0)
(-0.00855521 -0.000931541 0)
(-0.00726081 -0.000918841 0)
(-0.00599588 -0.000886639 0)
(-0.00478706 -0.000834259 0)
(-0.00366132 -0.000761397 0)
(-0.0026452 -0.000668271 0)
(-0.00176392 -0.000555874 0)
(-0.00103984 -0.000426458 0)
(-0.000490399 -0.000284486 0)
(-0.000124833 -0.000138321 0)
(6.05198e-05 -3.30902e-06 0)
(9.32836e-05 9.22375e-05 0)
(3.84955e-05 9.3143e-05 0)
(2.04051e-05 -0.000129045 0)
(-1.28931e-05 -3.66011e-05 0)
(-0.00022785 0.000233432 0)
(-0.000676264 0.000581198 0)
(-0.00138175 0.000950608 0)
(-0.0023452 0.00130769 0)
(-0.00355142 0.00163238 0)
(-0.00497475 0.00191348 0)
(-0.00658304 0.00214518 0)
(-0.00834047 0.00232501 0)
(-0.0102095 0.00245261 0)
(-0.0121521 0.002529 0)
(-0.0141309 0.0025561 0)
(-0.01611 0.0025364 0)
(-0.0180549 0.00247282 0)
(-0.0199335 0.00236853 0)
(-0.0217158 0.00222685 0)
(-0.0233745 0.00205126 0)
(-0.0248848 0.00184527 0)
(-0.0262246 0.0016125 0)
(-0.0273746 0.00135661 0)
(-0.0283183 0.00108131 0)
(-0.0290424 0.000790395 0)
(-0.0295362 0.000487743 0)
(-0.0297923 0.000177316 0)
(-0.0298063 -0.00013682 0)
(-0.0295771 -0.000450487 0)
(-0.0291069 -0.000759396 0)
(-0.0284011 -0.00105915 0)
(-0.0274687 -0.00134528 0)
(-0.0263221 -0.00161321 0)
(-0.0249772 -0.00185836 0)
(-0.0234532 -0.00207616 0)
(-0.0217731 -0.0022621 0)
(-0.0199629 -0.0024118 0)
(-0.0180519 -0.00252109 0)
(-0.0160723 -0.00258613 0)
(-0.0140589 -0.00260347 0)
(-0.0120486 -0.00257024 0)
(-0.01008 -0.00248425 0)
(-0.00819267 -0.00234425 0)
(-0.00642618 -0.00215021 0)
(-0.00481894 -0.00190377 0)
(-0.00340669 -0.00160889 0)
(-0.00222042 -0.00127305 0)
(-0.00128354 -0.00090912 0)
(-0.000607961 -0.000538617 0)
(-0.000188856 -0.000196596 0)
(2.01009e-06 6.0825e-05 0)
(2.2805e-05 0.00013614 0)
(-4.54212e-06 -0.000101839 0)
(-0.000147178 0.000164996 0)
(-0.000571759 0.000680636 0)
(-0.00130342 0.00131058 0)
(-0.00235596 0.00197278 0)
(-0.00372653 0.00261365 0)
(-0.00539527 0.00319911 0)
(-0.00733058 0.00370855 0)
(-0.00949318 0.00413023 0)
(-0.011839 0.00445836 0)
(-0.0143214 0.00469112 0)
(-0.0168929 0.00482946 0)
(-0.0195061 0.00487618 0)
(-0.0221153 0.0048354 0)
(-0.0246764 0.00471215 0)
(-0.0271479 0.00451206 0)
(-0.0294912 0.00424124 0)
(-0.0316709 0.00390607 0)
(-0.0336546 0.00351318 0)
(-0.0354136 0.00306935 0)
(-0.036923 0.00258155 0)
(-0.0381611 0.00205685 0)
(-0.0391106 0.00150252 0)
(-0.0397575 0.000925959 0)
(-0.0400924 0.000334752 0)
(-0.0401096 -0.000263319 0)
(-0.0398077 -0.00086028 0)
(-0.0391897 -0.00144796 0)
(-0.0382628 -0.002018 0)
(-0.0370387 -0.00256191 0)
(-0.0355338 -0.00307109 0)
(-0.0337686 -0.0035369 0)
(-0.0317685 -0.00395077 0)
(-0.029563 -0.00430428 0)
(-0.0271858 -0.00458934 0)
(-0.0246747 -0.0047983 0)
(-0.0220712 -0.00492416 0)
(-0.0194198 -0.00496081 0)
(-0.0167677 -0.00490325 0)
(-0.0141639 -0.00474796 0)
(-0.0116582 -0.0044933 0)
(-0.0093003 -0.00414007 0)
(-0.00713787 -0.00369229 0)
(-0.00521499 -0.00315838 0)
(-0.0035697 -0.00255293 0)
(-0.00223106 -0.00189939 0)
(-0.00121518 -0.00123433 0)
(-0.000520308 -0.000613125 0)
(-0.000126774 -0.000118194 0)
(-9.59075e-07 0.0001184 0)
(-3.05716e-05 2.30973e-06 0)
(-0.000292619 0.000547801 0)
(-0.00094714 0.00138817 0)
(-0.00198342 0.00236555 0)
(-0.00339954 0.00337717 0)
(-0.00518524 0.00435209 0)
(-0.007314 0.00524281 0)
(-0.00974761 0.0060189 0)
(-0.0124401 0.00666202 0)
(-0.0153403 0.00716231 0)
(-0.0183939 0.00751594 0)
(-0.0215455 0.0077234 0)
(-0.0247397 0.00778825 0)
(-0.0279225 0.00771626 0)
(-0.0310419 0.00751479 0)
(-0.0340487 0.00719233 0)
(-0.036897 0.0067582 0)
(-0.0395444 0.0062223 0)
(-0.0419524 0.00559498 0)
(-0.0440867 0.00488695 0)
(-0.0459173 0.00410919 0)
(-0.0474184 0.00327297 0)
(-0.0485691 0.0023898 0)
(-0.049353 0.00147148 0)
(-0.0497585 0.000530105 0)
(-0.0497789 -0.000421957 0)
(-0.0494128 -0.00137202 0)
(-0.0486636 -0.00230711 0)
(-0.0475402 -0.003214 0)
(-0.0460566 -0.00407925 0)
(-0.0442324 -0.0048893 0)
(-0.0420923 -0.00563057 0)
(-0.0396663 -0.00628963 0)
(-0.0369899 -0.00685335 0)
(-0.0341032 -0.00730914 0)
(-0.0310512 -0.00764522 0)
(-0.0278828 -0.0078509 0)
(-0.0246508 -0.00791696 0)
(-0.0214108 -0.00783608 0)
(-0.0182205 -0.00760337 0)
(-0.0151383 -0.00721697 0)
(-0.0122221 -0.00667898 0)
(-0.00952768 -0.0059965 0)
(-0.00710631 -0.00518327 0)
(-0.00500284 -0.00426184 0)
(-0.00325277 -0.00326681 0)
(-0.00187855 -0.00224946 0)
(-0.000885255 -0.00128352 0)
(-0.00026768 -0.000472928 0)
(-2.60524e-05 2.62426e-05 0)
(-5.53182e-05 0.000183985 0)
(-0.000437551 0.00111959 0)
(-0.00132816 0.0023688 0)
(-0.00267752 0.00375986 0)
(-0.00446467 0.00517477 0)
(-0.00666914 0.00652853 0)
(-0.00925574 0.0077618 0)
(-0.0121786 0.00883502 0)
(-0.0153847 0.00972328 0)
(-0.0188161 0.0104125 0)
(-0.0224115 0.0108966 0)
(-0.0261086 0.0111755 0)
(-0.029845 0.0112533 0)
(-0.03356 0.0111377 0)
(-0.0371947 0.0108385 0)
(-0.0406935 0.0103672 0)
(-0.0440042 0.00973696 0)
(-0.0470788 0.00896152 0)
(-0.0498735 0.00805556 0)
(-0.0523492 0.00703425 0)
(-0.0544718 0.00591328 0)
(-0.0562119 0.00470873 0)
(-0.0575456 0.00343712 0)
(-0.0584543 0.00211536 0)
(-0.0589247 0.000760765 0)
(-0.0589494 -0.000608916 0)
(-0.0585265 -0.00197552 0)
(-0.0576601 -0.0033205 0)
(-0.0563602 -0.00462494 0)
(-0.0546429 -0.0058697 0)
(-0.0525303 -0.00703545 0)
(-0.0500506 -0.00810294 0)
(-0.047238 -0.00905311 0)
(-0.0441326 -0.00986744 0)
(-0.0407799 -0.0105282 0)
(-0.0372307 -0.0110189 0)
(-0.0335408 -0.0113247 0)
(-0.0297696 -0.011433 0)
(-0.0259799 -0.0113338 0)
(-0.0222368 -0.0110208 0)
(-0.0186062 -0.010492 0)
(-0.0151534 -0.00975106 0)
(-0.0119413 -0.00880845 0)
(-0.0090286 -0.0076835 0)
(-0.00646722 -0.00640682 0)
(-0.00430034 -0.00502375 0)
(-0.00255884 -0.00359891 0)
(-0.00125739 -0.0022215 0)
(-0.00040869 -0.00101186 0)
(-4.99874e-05 -0.000141162 0)
(-7.81166e-05 0.000440116 0)
(-0.00057715 0.00187947 0)
(-0.00170227 0.0036248 0)
(-0.00336526 0.00549732 0)
(-0.00552474 0.00736874 0)
(-0.0081482 0.00914337 0)
(-0.0111902 0.0107522 0)
(-0.0145959 0.0121478 0)
(-0.0183048 0.0132994 0)
(-0.0222517 0.014189 0)
(-0.0263689 0.0148083 0)
(-0.0305874 0.0151568 0)
(-0.0348389 0.0152395 0)
(-0.0390562 0.0150657 0)
(-0.043175 0.014648 0)
(-0.0471339 0.0140016 0)
(-0.0508756 0.0131433 0)
(-0.0543472 0.0120914 0)
(-0.0575004 0.0108652 0)
(-0.0602923 0.00948505 0)
(-0.0626849 0.00797171 0)
(-0.0646462 0.00634671 0)
(-0.0661496 0.00463212 0)
(-0.0671746 0.00285057 0)
(-0.0677065 0.00102525 0)
(-0.067737 -0.000820103 0)
(-0.0672641 -0.0026612 0)
(-0.0662922 -0.00447325 0)
(-0.0648322 -0.00623101 0)
(-0.0629017 -0.00790895 0)
(-0.0605252 -0.00948136 0)
(-0.0577334 -0.0109226 0)
(-0.0545641 -0.0122074 0)
(-0.0510611 -0.0133113 0)
(-0.0472746 -0.0142107 0)
(-0.0432606 -0.0148841 0)
(-0.03908 -0.0153119 0)
(-0.0347985 -0.0154777 0)
(-0.0304851 -0.0153687 0)
(-0.0262115 -0.014977 0)
(-0.0220504 -0.0143003 0)
(-0.0180741 -0.0133438 0)
(-0.0143528 -0.0121212 0)
(-0.0109526 -0.0106573 0)
(-0.00793341 -0.00899024 0)
(-0.00534742 -0.00717507 0)
(-0.00323556 -0.00528791 0)
(-0.00162403 -0.00343042 0)
(-0.000544866 -0.00173489 0)
(-7.20568e-05 -0.000381078 0)
(-9.90292e-05 0.000766768 0)
(-0.00071014 0.0028227 0)
(-0.0020647 0.00515298 0)
(-0.00403776 0.00757625 0)
(-0.00656736 0.00995784 0)
(-0.00960791 0.0121945 0)
(-0.0131025 0.0142098 0)
(-0.0169866 0.01595 0)
(-0.021191 0.0173794 0)
(-0.0256432 0.018477 0)
(-0.0302688 0.0192328 0)
(-0.0349926 0.0196459 0)
(-0.0397403 0.0197226 0)
(-0.0444393 0.0194742 0)
(-0.04902 0.0189165 0)
(-0.0534163 0.0180682 0)
(-0.0575662 0.0169506 0)
(-0.0614128 0.0155866 0)
(-0.064904 0.0140009 0)
(-0.0679935 0.012219 0)
(-0.0706405 0.0102674 0)
(-0.0728101 0.0081736 0)
(-0.0744739 0.00596562 0)
(-0.0756096 0.00367233 0)
(-0.0762014 0.00132328 0)
(-0.0762401 -0.00105126 0)
(-0.0757234 -0.00342037 0)
(-0.074656 -0.00575246 0)
(-0.0730494 -0.00801545 0)
(-0.0709224 -0.0101768 0)
(-0.0683011 -0.012204 0)
(-0.0652186 -0.0140643 0)
(-0.0617152 -0.0157257 0)
(-0.0578382 -0.0171572 0)
(-0.0536415 -0.0183291 0)
(-0.0491853 -0.019214 0)
(-0.0445356 -0.0197873 0)
(-0.0397631 -0.0200284 0)
(-0.0349428 -0.0199213 0)
(-0.0301523 -0.019456 0)
(-0.0254711 -0.0186299 0)
(-0.0209783 -0.017449 0)
(-0.0167518 -0.0159303 0)
(-0.0128655 -0.0141031 0)
(-0.00938829 -0.0120124 0)
(-0.00638246 -0.00972166 0)
(-0.00390027 -0.0073165 0)
(-0.00198056 -0.00490834 0)
(-0.000674908 -0.002638 0)
(-9.22831e-05 -0.000689751 0)
(-0.000118384 0.00116012 0)
(-0.000836926 0.00394333 0)
(-0.0024149 0.00694791 0)
(-0.00469292 0.00999257 0)
(-0.00758891 0.012939 0)
(-0.0110438 0.0156791 0)
(-0.0149883 0.018131 0)
(-0.0193475 0.0202366 0)
(-0.0240429 0.0219564 0)
(-0.0289942 0.0232672 0)
(-0.0341198 0.0241581 0)
(-0.0393384 0.0246287 0)
(-0.0445699 0.0246865 0)
(-0.0497366 0.0243457 0)
(-0.054764 0.0236253 0)
(-0.0595817 0.0225481 0)
(-0.064124 0.0211401 0)
(-0.06833 0.0194295 0)
(-0.0721447 0.0174462 0)
(-0.0755187 0.0152217 0)
(-0.0784088 0.0127885 0)
(-0.0807782 0.0101804 0)
(-0.0825964 0.00743176 0)
(-0.0838397 0.00457813 0)
(-0.0844912 0.00165581 0)
(-0.0845411 -0.00129801 0)
(-0.0839867 -0.00424532 0)
(-0.0828325 -0.00714735 0)
(-0.0810907 -0.00996466 0)
(-0.0787808 -0.0126574 0)
(-0.07593 -0.0151854 0)
(-0.0725733 -0.0175087 0)
(-0.0687531 -0.0195881 0)
(-0.0645195 -0.0213853 0)
(-0.0599295 -0.0228639 0)
(-0.0550471 -0.0239904 0)
(-0.0499424 -0.0247345 0)
(-0.0446912 -0.0250709 0)
(-0.0393738 -0.0249799 0)
(-0.0340738 -0.0244491 0)
(-0.0288771 -0.0234747 0)
(-0.0238703 -0.0220635 0)
(-0.019139 -0.0202344 0)
(-0.0147658 -0.0180209 0)
(-0.0108295 -0.0154737 0)
(-0.0074033 -0.0126632 0)
(-0.00455174 -0.00968272 0)
(-0.00232683 -0.00665137 0)
(-0.000799341 -0.0037161 0)
(-0.000111002 -0.00106361 0)
(-0.000136562 0.00161694 0)
(-0.000958628 0.00523571 0)
(-0.00275449 0.00900393 0)
(-0.00533245 0.0127416 0)
(-0.00859105 0.0163089 0)
(-0.0124575 0.0195945 0)
(-0.0168501 0.0225135 0)
(-0.0216823 0.0250046 0)
(-0.0268662 0.0270264 0)
(-0.032313 0.0285542 0)
(-0.0379339 0.0295773 0)
(-0.043641 0.0300963 0)
(-0.0493486 0.030121 0)
(-0.0549738 0.0296686 0)
(-0.0604379 0.0287619 0)
(-0.0656664 0.0274284 0)
(-0.0705899 0.0256991 0)
(-0.0751446 0.0236076 0)
(-0.0792727 0.0211898 0)
(-0.0829223 0.0184833 0)
(-0.0860482 0.0155271 0)
(-0.0886117 0.0123613 0)
(-0.0905808 0.00902724 0)
(-0.0919305 0.00556728 0)
(-0.092643 0.00202481 0)
(-0.0927078 -0.00155573 0)
(-0.0921215 -0.00512893 0)
(-0.0908887 -0.00864848 0)
(-0.0890216 -0.0120673 0)
(-0.0865402 -0.0153376 0)
(-0.0834726 -0.0184115 0)
(-0.0798549 -0.0212413 0)
(-0.0757313 -0.0237797 0)
(-0.071154 -0.0259811 0)
(-0.0661828 -0.0278018 0)
(-0.0608849 -0.0292013 0)
(-0.0553344 -0.0301435 0)
(-0.0496115 -0.0305974 0)
(-0.0438017 -0.0305391 0)
(-0.0379947 -0.029953 0)
(-0.0322832 -0.0288336 0)
(-0.0267611 -0.0271875 0)
(-0.0215225 -0.025035 0)
(-0.0166596 -0.0224126 0)
(-0.0122616 -0.0193755 0)
(-0.00841353 -0.0159996 0)
(-0.00519289 -0.0123847 0)
(-0.00266511 -0.00865579 0)
(-0.000919511 -0.00496468 0)
(-0.000128627 -0.00149976 0)
(-0.000153924 0.00213478 0)
(-0.00107662 0.00669524 0)
(-0.00308609 0.0113162 0)
(-0.00596003 0.0158193 0)
(-0.00957832 0.0200644 0)
(-0.0138546 0.0239388 0)
(-0.0186941 0.0273558 0)
(-0.0239987 0.0302528 0)
(-0.0296703 0.0325874 0)
(-0.0356113 0.0343352 0)
(-0.0417251 0.0354863 0)
(-0.0479173 0.0360436 0)
(-0.0540964 0.0360196 0)
(-0.0601746 0.0354353 0)
(-0.0660688 0.0343181 0)
(-0.0717009 0.0327003 0)
(-0.0769983 0.0306186 0)
(-0.0818944 0.0281125 0)
(-0.086329 0.0252241 0)
(-0.0902482 0.0219974 0)
(-0.0936051 0.0184781 0)
(-0.0963594 0.0147131 0)
(-0.0984778 0.0107507 0)
(-0.0999343 0.00664052 0)
(-0.10071 0.00243316 0)
(-0.100794 -0.00181946 0)
(-0.100182 -0.00606431 0)
(-0.0988782 -0.0102473 0)
(-0.0968949 -0.0143132 0)
(-0.0942522 -0.0182065 0)
(-0.0909786 -0.0218708 0)
(-0.087111 -0.0252501 0)
(-0.0826949 -0.0282891 0)
(-0.077784 -0.030934 0)
(-0.0724405 -0.0331333 0)
(-0.0667344 -0.0348391 0)
(-0.0607435 -0.0360082 0)
(-0.0545523 -0.0366039 0)
(-0.0482514 -0.036597 0)
(-0.0419366 -0.035968 0)
(-0.0357074 -0.0347087 0)
(-0.0296659 -0.0328244 0)
(-0.0239151 -0.030336 0)
(-0.0185573 -0.0272819 0)
(-0.0136931 -0.0237205 0)
(-0.00942003 -0.0197321 0)
(-0.00582892 -0.0154217 0)
(-0.00299882 -0.0109193 0)
(-0.00103709 -0.00638066 0)
(-0.000145569 -0.00199622 0)
(-0.000170789 0.00271201 0)
(-0.0011923 0.00831875 0)
(-0.00341271 0.0138813 0)
(-0.00658029 0.0192229 0)
(-0.0105568 0.0242038 0)
(-0.0152422 0.028711 0)
(-0.0205289 0.0326577 0)
(-0.0263064 0.0359809 0)
(-0.0324663 0.0386392 0)
(-0.0389016 0.0406092 0)
(-0.0455079 0.0418835 0)
(-0.0521837 0.0424678 0)
(-0.0588319 0.0423786 0)
(-0.0653596 0.0416413 0)
(-0.0716797 0.0402884 0)
(-0.0777105 0.038358 0)
(-0.0833766 0.0358927 0)
(-0.0886089 0.0329385 0)
(-0.0933452 0.0295439 0)
(-0.09753 0.0257596 0)
(-0.101115 0.0216384 0)
(-0.104058 0.0172341 0)
(-0.106325 0.0126023 0)
(-0.10789 0.0077997 0)
(-0.108732 0.00288449 0)
(-0.10884 -0.00208386 0)
(-0.108209 -0.00704452 0)
(-0.106842 -0.0119354 0)
(-0.104751 -0.0166933 0)
(-0.101957 -0.021254 0)
(-0.0984874 -0.0255528 0)
(-0.0943799 -0.0295251 0)
(-0.0896806 -0.0331069 0)
(-0.0844447 -0.0362357 0)
(-0.078736 -0.0388515 0)
(-0.0726272 -0.0408985 0)
(-0.0661992 -0.0423259 0)
(-0.0595408 -0.0430898 0)
(-0.0527476 -0.0431551 0)
(-0.0459217 -0.0424973 0)
(-0.0391698 -0.0411046 0)
(-0.0326024 -0.0389801 0)
(-0.0263322 -0.0361437 0)
(-0.0204722 -0.0326347 0)
(-0.0151351 -0.0285136 0)
(-0.0104315 -0.0238642 0)
(-0.00646618 -0.0187954 0)
(-0.00333192 -0.0134417 0)
(-0.00115383 -0.0079628 0)
(-0.000162204 -0.002552 0)
(-0.000187434 0.00334774 0)
(-0.00130701 0.0101045 0)
(-0.00373737 0.0166976 0)
(-0.00719806 0.0229514 0)
(-0.011533 0.0287268 0)
(-0.0166286 0.0339118 0)
(-0.0223639 0.0384201 0)
(-0.0286162 0.0421903 0)
(-0.0352661 0.0451827 0)
(-0.0421969 0.0473769 0)
(-0.0492961 0.0487686 0)
(-0.0564552 0.0493677 0)
(-0.063571 0.0491957 0)
(-0.0705459 0.0482834 0)
(-0.0772887 0.0466691 0)
(-0.0837144 0.0443973 0)
(-0.089745 0.0415171 0)
(-0.0953094 0.0380813 0)
(-0.100344 0.0341453 0)
(-0.104791 0.0297671 0)
(-0.108601 0.0250062 0)
(-0.111732 0.0199239 0)
(-0.114149 0.014583 0)
(-0.115824 0.00904745 0)
(-0.116736 0.00338306 0)
(-0.116873 -0.0023431 0)
(-0.116229 -0.00806235 0)
(-0.114808 -0.0137045 0)
(-0.112619 -0.0191981 0)
(-0.109683 -0.0244703 0)
(-0.106027 -0.0294478 0)
(-0.10169 -0.0340569 0)
(-0.096717 -0.0382244 0)
(-0.0911641 -0.0418788 0)
(-0.0850969 -0.044951 0)
(-0.0785899 -0.0473761 0)
(-0.0717273 -0.0490949 0)
(-0.0646017 -0.0500558 0)
(-0.0573139 -0.0502163 0)
(-0.0499722 -0.0495461 0)
(-0.0426909 -0.0480282 0)
(-0.0355894 -0.0456623 0)
(-0.0287905 -0.0424664 0)
(-0.0224188 -0.0384791 0)
(-0.0165996 -0.0337621 0)
(-0.0114574 -0.0284016 0)
(-0.00711145 -0.0225097 0)
(-0.0036685 -0.0162251 0)
(-0.00127147 -0.00971186 0)
(-0.000178875 -0.00316704 0)
(-0.000204094 0.00404178 0)
(-0.00142195 0.0120524 0)
(-0.00406298 0.0197652 0)
(-0.0078181 0.0270054 0)
(-0.0125134 0.0336349 0)
(-0.0180218 0.039543 0)
(-0.0242085 0.0446453 0)
(-0.0309385 0.0488832 0)
(-0.0380808 0.05222 0)
(-0.045509 0.0546394 0)
(-0.053102 0.0561419 0)
(-0.0607442 0.0567428 0)
(-0.0683265 0.0564695 0)
(-0.0757464 0.0553592 0)
(-0.0829087 0.053457 0)
(-0.0897255 0.0508145 0)
(-0.0961164 0.0474879 0)
(-0.102009 0.0435372 0)
(-0.107337 0.0390253 0)
(-0.112043 0.0340173 0)
(-0.116077 0.0285802 0)
(-0.119395 0.0227825 0)
(-0.121962 0.0166942 0)
(-0.12375 0.0103869 0)
(-0.124736 0.00393361 0)
(-0.124908 -0.00259086 0)
(-0.124259 -0.00911004 0)
(-0.122791 -0.0155457 0)
(-0.120514 -0.0218179 0)
(-0.117447 -0.0278454 0)
(-0.113617 -0.0335456 0)
(-0.10906 -0.0388357 0)
(-0.103823 -0.0436329 0)
(-0.0979624 -0.0478559 0)
(-0.0915438 -0.0514259 0)
(-0.0846438 -0.0542683 0)
(-0.0773493 -0.0563144 0)
(-0.0697565 -0.0575034 0)
(-0.0619715 -0.0577848 0)
(-0.0541087 -0.0571205 0)
(-0.0462904 -0.0554877 0)
(-0.0386452 -0.0528808 0)
(-0.0313067 -0.0493145 0)
(-0.0244117 -0.0448257 0)
(-0.0180989 -0.039476 0)
(-0.0125075 -0.0333529 0)
(-0.00777157 -0.0265716 0)
(-0.00401261 -0.0192746 0)
(-0.00139166 -0.0116306 0)
(-0.000195888 -0.0038422 0)
(-0.000220973 0.00479454 0)
(-0.00153823 0.0141635 0)
(-0.00439218 0.0230861 0)
(-0.00844485 0.0313876 0)
(-0.0135043 0.0389312 0)
(-0.0194294 0.045608 0)
(-0.0260717 0.0513369 0)
(-0.0332829 0.0560626 0)
(-0.0409206 0.0597534 0)
(-0.0488483 0.0623983 0)
(-0.0569359 0.0640039 0)
(-0.0650606 0.0645924 0)
(-0.0731074 0.064198 0)
(-0.0809691 0.0628657 0)
(-0.0885468 0.0606484 0)
(-0.0957498 0.0576052 0)
(-0.102496 0.0538004 0)
(-0.108711 0.0493018 0)
(-0.114328 0.0441798 0)
(-0.119289 0.0385073 0)
(-0.123543 0.0323586 0)
(-0.127047 0.0258095 0)
(-0.129765 0.0189375 0)
(-0.131667 0.0118212 0)
(-0.132731 0.00454122 0)
(-0.132944 -0.0028203 0)
(-0.132298 -0.0101791 0)
(-0.130794 -0.0174491 0)
(-0.12844 -0.024542 0)
(-0.125254 -0.0313677 0)
(-0.121261 -0.0378347 0)
(-0.116498 -0.0438504 0)
(-0.111009 -0.0493221 0)
(-0.104851 -0.0541583 0)
(-0.09809 -0.0582696 0)
(-0.0908038 -0.0615708 0)
(-0.0830814 -0.0639825 0)
(-0.0750227 -0.0654338 0)
(-0.0667385 -0.0658644 0)
(-0.0583497 -0.0652274 0)
(-0.0499866 -0.063492 0)
(-0.0417874 -0.0606463 0)
(-0.0338971 -0.0567001 0)
(-0.0264654 -0.0516872 0)
(-0.0196451 -0.0456676 0)
(-0.0135911 -0.0387296 0)
(-0.00845318 -0.0309907 0)
(-0.00436813 -0.0225974 0)
(-0.00151595 -0.0137238 0)
(-0.000213524 -0.00457919 0)
(-0.000238243 0.00560699 0)
(-0.0016568 0.0164402 0)
(-0.00472739 0.0266636 0)
(-0.00908237 0.0361023 0)
(-0.0145112 0.0446203 0)
(-0.0208585 0.0521116 0)
(-0.0279614 0.058499 0)
(-0.0356581 0.0637321 0)
(-0.0437942 0.0677855 0)
(-0.0522228 0.0706548 0)
(-0.060805 0.0723544 0)
(-0.0694105 0.0729145 0)
(-0.0779184 0.0723781 0)
(-0.086217 0.0707987 0)
(-0.0942039 0.0682378 0)
(-0.101786 0.0647636 0)
(-0.10888 0.0604487 0)
(-0.11541 0.0553692 0)
(-0.121309 0.0496038 0)
(-0.126519 0.043233 0)
(-0.13099 0.0363387 0)
(-0.134676 0.0290041 0)
(-0.137543 0.0213137 0)
(-0.139562 0.0133535 0)
(-0.140709 0.00521112 0)
(-0.140969 -0.00302407 0)
(-0.140334 -0.0112604 0)
(-0.138804 -0.0194038 0)
(-0.136386 -0.027358 0)
(-0.133095 -0.0350242 0)
(-0.128955 -0.0423015 0)
(-0.124 -0.0490877 0)
(-0.118274 -0.0552797 0)
(-0.111832 -0.0607751 0)
(-0.10474 -0.0654731 0)
(-0.0970776 -0.069277 0)
(-0.088934 -0.0720957 0)
(-0.0804128 -0.0738465 0)
(-0.0716292 -0.0744581 0)
(-0.0627106 -0.0738728 0)
(-0.0537954 -0.0720503 0)
(-0.0450318 -0.0689706 0)
(-0.0365767 -0.0646368 0)
(-0.0285933 -0.059078 0)
(-0.0212499 -0.0523517 0)
(-0.0147173 -0.0445457 0)
(-0.00916264 -0.0357795 0)
(-0.00473876 -0.0262036 0)
(-0.00164579 -0.015998 0)
(-0.000232038 -0.0053805 0)
(-0.000256057 0.00648056 0)
(-0.00177853 0.018886 0)
(-0.00507077 0.0305029 0)
(-0.00973432 0.0411551 0)
(-0.0155393 0.0507082 0)
(-0.0223153 0.0590595 0)
(-0.0298844 0.0661366 0)
(-0.0380711 0.0718955 0)
(-0.0467084 0.0763183 0)
(-0.0556385 0.0794091 0)
(-0.0647136 0.0811918 0)
(-0.0737962 0.0817059 0)
(-0.0827593 0.0810046 0)
(-0.091487 0.0791513 0)
(-0.0998741 0.0762176 0)
(-0.107825 0.0722812 0)
(-0.115256 0.067424 0)
(-0.12209 0.0617311 0)
(-0.128262 0.0552896 0)
(-0.133713 0.048188 0)
(-0.138392 0.0405158 0)
(-0.142257 0.0323636 0)
(-0.145271 0.0238229 0)
(-0.147406 0.0149864 0)
(-0.148639 0.00594848 0)
(-0.148953 -0.0031944 0)
(-0.14834 -0.0123435 0)
(-0.146796 -0.0213974 0)
(-0.144328 -0.0302517 0)
(-0.140948 -0.0387991 0)
(-0.136678 -0.0469297 0)
(-0.13155 -0.0545312 0)
(-0.125605 -0.0614898 0)
(-0.118897 -0.0676917 0)
(-0.111491 -0.0730241 0)
(-0.103465 -0.0773773 0)
(-0.0949105 -0.0806475 0)
(-0.0859333 -0.0827388 0)
(-0.076653 -0.0835668 0)
(-0.067203 -0.0830615 0)
(-0.0577298 -0.0811711 0)
(-0.0483921 -0.0778654 0)
(-0.039359 -0.0731388 0)
(-0.0308082 -0.0670143 0)
(-0.0229239 -0.0595452 0)
(-0.0158948 -0.0508179 0)
(-0.00990599 -0.0409531 0)
(-0.00512798 -0.0301054 0)
(-0.00178257 -0.0184616 0)
(-0.000251667 -0.00624936 0)
(-0.00027455 0.00741711 0)
(-0.00190421 0.0215055 0)
(-0.00542428 0.03461 0)
(-0.010404 0.0465532 0)
(-0.0165931 0.0572023 0)
(-0.0238052 0.0664583 0)
(-0.0318468 0.0742549 0)
(-0.0405276 0.0805561 0)
(-0.0496677 0.085353 0)
(-0.0590985 0.0886602 0)
(-0.0686627 0.0905122 0)
(-0.0782156 0.0909603 0)
(-0.0876247 0.0900691 0)
(-0.0967702 0.0879135 0)
(-0.105544 0.0845762 0)
(-0.11385 0.0801456 0)
(-0.121603 0.0747138 0)
(-0.128727 0.0683754 0)
(-0.135157 0.0612262 0)
(-0.140836 0.053363 0)
(-0.145714 0.0448829 0)
(-0.149749 0.0358836 0)
(-0.152907 0.0264633 0)
(-0.155158 0.0167212 0)
(-0.156479 0.00675814 0)
(-0.156853 -0.00332311 0)
(-0.156271 -0.0134172 0)
(-0.154728 -0.0234155 0)
(-0.152226 -0.0332063 0)
(-0.148777 -0.042674 0)
(-0.144399 -0.0516995 0)
(-0.13912 -0.0601605 0)
(-0.132979 -0.0679325 0)
(-0.126027 -0.0748894 0)
(-0.118327 -0.0809055 0)
(-0.109956 -0.0858577 0)
(-0.101006 -0.0896275 0)
(-0.0915844 -0.0921042 0)
(-0.0818141 -0.0931886 0)
(-0.0718343 -0.0927963 0)
(-0.0617998 -0.0908616 0)
(-0.0518795 -0.0873419 0)
(-0.0422557 -0.082221 0)
(-0.033121 -0.0755134 0)
(-0.0246771 -0.0672668 0)
(-0.0171315 -0.0575648 0)
(-0.0106889 -0.0465288 0)
(-0.00553914 -0.0343174 0)
(-0.00192759 -0.0211248 0)
(-0.000272638 -0.00718971 0)
(-0.000293846 0.0084189 0)
(-0.00203456 0.0243042 0)
(-0.00578976 0.0389927 0)
(-0.0110945 0.0523051 0)
(-0.0176767 0.0641105 0)
(-0.025333 0.0743149 0)
(-0.0338532 0.0828591 0)
(-0.0430316 0.0897165 0)
(-0.052675 0.0948893 0)
(-0.0626031 0.0984043 0)
(-0.0726496 0.100309 0)
(-0.0826624 0.100668 0)
(-0.0925039 0.0995592 0)
(-0.102051 0.0970707 0)
(-0.111193 0.0932975 0)
(-0.119834 0.08834 0)
(-0.127889 0.0823011 0)
(-0.135283 0.0752856 0)
(-0.141952 0.0673984 0)
(-0.147842 0.0587448 0)
(-0.152905 0.0494293 0)
(-0.157099 0.0395566 0)
(-0.160393 0.0292312 0)
(-0.162756 0.0185582 0)
(-0.164167 0.00764438 0)
(-0.164608 -0.00340181 0)
(-0.164068 -0.014469 0)
(-0.16254 -0.0254422 0)
(-0.160024 -0.0362026 0)
(-0.156528 -0.0466268 0)
(-0.152067 -0.0565868 0)
(-0.146665 -0.0659506 0)
(-0.140357 -0.0745823 0)
(-0.133189 -0.0823436 0)
(-0.125223 -0.089095 0)
(-0.116532 -0.0946984 0)
(-0.107208 -0.0990195 0)
(-0.0973587 -0.101931 0)
(-0.0871102 -0.103317 0)
(-0.0766068 -0.103076 0)
(-0.066011 -0.101126 0)
(-0.0555023 -0.0974099 0)
(-0.0452763 -0.0918977 0)
(-0.0355418 -0.0845932 0)
(-0.0265186 -0.0755366 0)
(-0.0184349 -0.0648074 0)
(-0.0115168 -0.0525265 0)
(-0.00597542 -0.0388564 0)
(-0.00208213 -0.0239991 0)
(-0.000295171 -0.00820614 0)
(-0.000314067 0.00948854 0)
(-0.00217028 0.0272884 0)
(-0.00616897 0.0436593 0)
(-0.0118087 0.05842 0)
(-0.0187938 0.0714419 0)
(-0.0269029 0.0826366 0)
(-0.0359076 0.0919537 0)
(-0.045586 0.099378 0)
(-0.0557308 0.104925 0)
(-0.0661499 0.108635 0)
(-0.0766677 0.110572 0)
(-0.0871251 0.110815 0)
(-0.0973798 0.109457 0)
(-0.107306 0.106603 0)
(-0.116792 0.10236 0)
(-0.125741 0.0968412 0)
(-0.13407 0.0901627 0)
(-0.141708 0.0824392 0)
(-0.148592 0.0737856 0)
(-0.15467 0.0643152 0)
(-0.159897 0.0541402 0)
(-0.164236 0.0433716 0)
(-0.167654 0.0321199 0)
(-0.170125 0.0204957 0)
(-0.171625 0.0086105 0)
(-0.172139 -0.00342209 0)
(-0.171651 -0.0154855 0)
(-0.170155 -0.0274592 0)
(-0.167647 -0.039218 0)
(-0.164131 -0.0506312 0)
(-0.159617 -0.0615628 0)
(-0.154125 -0.0718706 0)
(-0.147685 -0.0814078 0)
(-0.140337 -0.0900231 0)
(-0.132139 -0.0975628 0)
(-0.123161 -0.103873 0)
(-0.113492 -0.108801 0)
(-0.10324 -0.112202 0)
(-0.092532 -0.113941 0)
(-0.0815171 -0.113896 0)
(-0.0703649 -0.111967 0)
(-0.0592656 -0.108077 0)
(-0.0484283 -0.102182 0)
(-0.0380787 -0.0942716 0)
(-0.0284565 -0.0843758 0)
(-0.0198119 -0.0725681 0)
(-0.0123949 -0.0589679 0)
(-0.00643994 -0.0437411 0)
(-0.00224742 -0.0270979 0)
(-0.000319485 -0.00930389 0)
(-0.00033534 0.010629 0)
(-0.00231211 0.0304654 0)
(-0.00656368 0.0486198 0)
(-0.0125494 0.0649086 0)
(-0.0199483 0.079206 0)
(-0.0285186 0.0914305 0)
(-0.0380131 0.101542 0)
(-0.0481922 0.10954 0)
(-0.0588337 0.115453 0)
(-0.0697336 0.119341 0)
(-0.0807068 0.121284 0)
(-0.0915876 0.12138 0)
(-0.10223 0.11974 0)
(-0.112504 0.116482 0)
(-0.122301 0.111733 0)
(-0.131525 0.105619 0)
(-0.140094 0.0982681 0)
(-0.147941 0.0898071 0)
(-0.155007 0.0803605 0)
(-0.161244 0.0700501 0)
(-0.16661 0.0589954 0)
(-0.171072 0.0473133 0)
(-0.1746 0.0351196 0)
(-0.177168 0.0225294 0)
(-0.178756 0.00965846 0)
(-0.179346 -0.00337568 0)
(-0.178923 -0.0164522 0)
(-0.177477 -0.0294461 0)
(-0.175002 -0.0422266 0)
(-0.171496 -0.0546568 0)
(-0.166965 -0.0665927 0)
(-0.161423 -0.0778831 0)
(-0.154892 -0.0883699 0)
(-0.147409 -0.0978889 0)
(-0.139023 -0.106271 0)
(-0.1298 -0.113345 0)
(-0.119825 -0.118941 0)
(-0.109203 -0.122892 0)
(-0.0980624 -0.12504 0)
(-0.0865554 -0.125244 0)
(-0.0748581 -0.123378 0)
(-0.0631708 -0.119347 0)
(-0.0517165 -0.113085 0)
(-0.0407387 -0.104566 0)
(-0.030498 -0.0938058 0)
(-0.0212692 -0.0808706 0)
(-0.0133282 -0.0658765 0)
(-0.00693576 -0.048992 0)
(-0.00242474 -0.0304359 0)
(-0.000345806 -0.0104889 0)
(-0.000357803 0.0118437 0)
(-0.00246084 0.0338432 0)
(-0.00697586 0.0538847 0)
(-0.0133199 0.0717819 0)
(-0.0211438 0.0874125 0)
(-0.0301841 0.100703 0)
(-0.0401724 0.111628 0)
(-0.0508505 0.120199 0)
(-0.0619805 0.126466 0)
(-0.0733459 0.130508 0)
(-0.0847524 0.132426 0)
(-0.0960281 0.132337 0)
(-0.107023 0.130374 0)
(-0.117609 0.126674 0)
(-0.127675 0.12138 0)
(-0.137129 0.114634 0)
(-0.145894 0.106579 0)
(-0.153906 0.0973517 0)
(-0.161112 0.0870882 0)
(-0.16747 0.0759184 0)
(-0.172943 0.0639685 0)
(-0.177501 0.0513609 0)
(-0.181118 0.0382159 0)
(-0.183771 0.0246522 0)
(-0.185441 0.0107884 0)
(-0.186111 -0.00325486 0)
(-0.185764 -0.0173539 0)
(-0.184388 -0.0313803 0)
(-0.181973 -0.045199 0)
(-0.178513 -0.0586679 0)
(-0.174006 -0.0716359 0)
(-0.168461 -0.0839434 0)
(-0.161891 -0.0954213 0)
(-0.154325 -0.105892 0)
(-0.145805 -0.115172 0)
(-0.13639 -0.123071 0)
(-0.126157 -0.129398 0)
(-0.11521 -0.133965 0)
(-0.103675 -0.136588 0)
(-0.0917047 -0.137101 0)
(-0.0794816 -0.135352 0)
(-0.0672154 -0.131219 0)
(-0.0551431 -0.124615 0)
(-0.0435267 -0.115491 0)
(-0.0326496 -0.103848 0)
(-0.0228129 -0.0897397 0)
(-0.0143216 -0.0732776 0)
(-0.00746604 -0.0546318 0)
(-0.00261538 -0.0340294 0)
(-0.000374376 -0.0117677 0)
(-0.000381619 0.0131364 0)
(-0.00261738 0.0374311 0)
(-0.00740772 0.0594661 0)
(-0.0141235 0.0790523 0)
(-0.0223846 0.0960717 0)
(-0.0319032 0.110461 0)
(-0.042388 0.122209 0)
(-0.0535605 0.131348 0)
(-0.0651661 0.137949 0)
(-0.0769756 0.142113 0)
(-0.0887858 0.143967 0)
(-0.100419 0.143651 0)
(-0.111724 0.14132 0)
(-0.122571 0.137133 0)
(-0.132853 0.131253 0)
(-0.142482 0.123838 0)
(-0.151387 0.115045 0)
(-0.159511 0.105026 0)
(-0.166808 0.0939249 0)
(-0.17324 0.0818808 0)
(-0.178778 0.0690259 0)
(-0.183397 0.0554877 0)
(-0.187077 0.0413897 0)
(-0.189797 0.026853 0)
(-0.191541 0.0119982 0)
(-0.192291 -0.00305276 0)
(-0.192032 -0.0181746 0)
(-0.190747 -0.0332369 0)
(-0.188423 -0.048102 0)
(-0.185048 -0.0626234 0)
(-0.180614 -0.0766448 0)
(-0.17512 -0.0899983 0)
(-0.168571 -0.102505 0)
(-0.160987 -0.113975 0)
(-0.152398 -0.124207 0)
(-0.142855 -0.132993 0)
(-0.132429 -0.140121 0)
(-0.121213 -0.145375 0)