/*--------------------------------*- C++ -*----------------------------------*\
  =========                 |
  \\      /  F ield         | OpenFOAM: The Open Source CFD Toolbox
   \\    /   O peration     | Website:  https://openfoam.org
    \\  /    A nd           | Version:  7
     \\/     M anipulation  |
\*---------------------------------------------------------------------------*/
FoamFile
{
    version     2.0;
    format      ascii;
    class       volScalarField;
    location    "0.0688";
    object      p;
}
// * * * * * * * * * * * * * * * * * * * * * * * * * * * * * * * * * * * * * //

dimensions      [0 2 -2 0 0 0 0];

internalField   nonuniform List<scalar> 
2500
(
3.42761e-05
6.38537
9.05064
10.1472
10.741
11.0918
11.3074
11.4492
11.5487
11.6219
11.6778
11.7218
11.7576
11.7875
11.8133
11.8362
11.857
11.8765
11.8951
11.9132
11.9312
11.9492
11.9675
11.9861
12.0053
12.0251
12.0457
12.0673
12.0899
12.1139
12.1394
12.1667
12.1962
12.2285
12.264
12.3036
12.3482
12.3993
12.4587
12.5289
12.6138
12.7192
12.8543
13.0356
13.2953
13.6971
14.3578
15.549
18.3304
24.8399
4.86798
7.46786
8.88614
9.77054
10.3753
10.7829
11.0591
11.2523
11.3919
11.4958
11.5753
11.6378
11.6882
11.7299
11.7653
11.7961
11.8236
11.8487
11.8722
11.8945
11.9162
11.9375
11.9588
11.9802
12.002
12.0245
12.0477
12.0719
12.0974
12.1243
12.1532
12.1843
12.2182
12.2555
12.297
12.3438
12.3971
12.459
12.5318
12.6192
12.7262
12.8605
13.0337
13.2644
13.5828
14.0394
14.7038
15.6607
17.1645
19.882
7.70298
8.46696
9.21077
9.83517
10.3228
10.6861
10.954
11.1533
11.3036
11.419
11.5091
11.5811
11.6397
11.6885
11.73
11.7661
11.7981
11.8272
11.8541
11.8796
11.904
11.9278
11.9513
11.9749
11.9988
12.0232
12.0484
12.0746
12.1022
12.1314
12.1627
12.1965
12.2334
12.2741
12.3196
12.3709
12.4296
12.4977
12.5778
12.6736
12.7901
12.9345
13.1168
13.3514
13.6585
14.0659
14.6034
15.2818
16.0799
16.9088
9.11063
9.28842
9.66864
10.071
10.4216
10.7085
10.9377
11.119
11.2625
11.3767
11.4687
11.5438
11.606
11.6584
11.7035
11.7428
11.7779
11.8097
11.8392
11.8669
11.8935
11.9193
11.9446
11.9699
11.9954
12.0214
12.0482
12.076
12.1052
12.1361
12.1692
12.205
12.244
12.287
12.3349
12.3889
12.4504
12.5213
12.6042
12.7021
12.8193
12.9611
13.1347
13.3488
13.6133
13.9384
14.329
14.7714
15.187
15.3957
9.92061
9.9013
10.0786
10.3236
10.5643
10.7803
10.9659
11.1216
11.2506
11.3573
11.4459
11.5201
11.5828
11.6365
11.6833
11.7245
11.7615
11.7953
11.8266
11.8561
11.8843
11.9116
11.9385
11.9652
11.9921
12.0194
12.0475
12.0766
12.1072
12.1394
12.1739
12.2111
12.2515
12.296
12.3453
12.4006
12.4632
12.5348
12.6174
12.7135
12.8262
12.9591
13.1163
13.302
13.5192
13.7676
14.04
14.314
14.5137
14.5069
10.4295
10.3459
10.4163
10.5596
10.7201
10.8775
11.0224
11.1507
11.2619
11.3574
11.4392
11.5094
11.5702
11.6232
11.6699
11.7117
11.7496
11.7844
11.8168
11.8475
11.8768
11.9053
11.9333
11.9611
11.9891
12.0175
12.0466
12.0768
12.1083
12.1415
12.1769
12.215
12.2562
12.3013
12.3512
12.4066
12.4688
12.5391
12.6191
12.7105
12.8154
12.9357
13.0733
13.2291
13.402
13.5867
13.7721
13.9363
14.0199
13.9379
10.768
10.6721
10.6892
10.7694
10.8734
10.9851
11.095
11.1975
11.2903
11.3729
11.4459
11.5103
11.5673
11.618
11.6634
11.7046
11.7423
11.7773
11.8102
11.8414
11.8715
11.9007
11.9294
11.958
11.9868
12.0159
12.0457
12.0766
12.1087
12.1426
12.1785
12.217
12.2584
12.3036
12.353
12.4076
12.4682
12.5358
12.6115
12.6964
12.7916
12.8978
13.0153
13.1429
13.2774
13.4119
13.5356
13.6306
13.6548
13.5547
11.0079
10.9175
10.9086
10.9502
11.0155
11.0929
11.1744
11.2544
11.3299
11.3996
11.4631
11.5207
11.5727
11.62
11.6631
11.7028
11.7396
11.7741
11.8068
11.8381
11.8684
11.8979
11.9271
11.9561
11.9853
12.0149
12.0451
12.0764
12.1089
12.143
12.1791
12.2175
12.2587
12.3033
12.3517
12.4047
12.4627
12.5267
12.5971
12.6746
12.7594
12.8516
12.9501
13.0529
13.1559
13.2524
13.3331
13.385
13.3792
13.2818
11.1878
11.1072
11.086
11.104
11.1432
11.1955
11.2546
11.3159
11.3762
11.4338
11.4879
11.5382
11.5849
11.6281
11.6682
11.7058
11.7411
11.7745
11.8066
11.8375
11.8675
11.897
11.9262
11.9554
11.9848
12.0145
12.045
12.0764
12.109
12.1431
12.179
12.217
12.2576
12.3012
12.3481
12.3988
12.4539
12.5136
12.5782
12.648
12.7227
12.8015
12.8831
12.9649
13.0429
13.1112
13.1623
13.1874
13.1666
13.0775
11.329
11.2578
11.231
11.2346
11.2562
11.2903
11.3323
11.3783
11.4256
11.4725
11.5178
11.5612
11.6022
11.6411
11.6779
11.7128
11.7462
11.7782
11.8092
11.8393
11.8688
11.898
11.927
11.956
11.9853
12.0151
12.0455
12.0768
12.1092
12.143
12.1785
12.2159
12.2555
12.2977
12.3428
12.391
12.4427
12.4979
12.5567
12.6189
12.684
12.7508
12.8178
12.8823
12.9407
12.9881
13.0189
13.0272
12.999
12.9189
11.4434
11.3801
11.3511
11.3459
11.3556
11.3766
11.4055
11.4394
11.4759
11.5134
11.5509
11.5877
11.6234
11.6579
11.6911
11.7233
11.7545
11.7847
11.8144
11.8434
11.8722
11.9007
11.9293
11.958
11.987
12.0165
12.0466
12.0776
12.1097
12.143
12.1779
12.2144
12.2529
12.2935
12.3365
12.382
12.4301
12.4808
12.5339
12.589
12.6453
12.7016
12.7561
12.8066
12.8497
12.8817
12.8985
12.8962
12.8646
12.7924
11.5383
11.4814
11.4517
11.441
11.4427
11.4542
11.4734
11.4977
11.5254
11.555
11.5855
11.6163
11.647
11.6773
11.7071
11.7364
11.7652
11.7936
11.8217
11.8495
11.8773
11.905
11.9329
11.9611
11.9896
12.0187
12.0484
12.079
12.1106
12.1433
12.1773
12.2128
12.2499
12.2889
12.3297
12.3724
12.417
12.4633
12.511
12.5595
12.6079
12.6551
12.6992
12.7383
12.7697
12.7903
12.7973
12.7882
12.7554
12.6898
11.6185
11.5665
11.5369
11.5229
11.519
11.5237
11.5354
11.5523
11.5728
11.5958
11.6204
11.6459
11.6721
11.6984
11.7249
11.7514
11.7778
11.8042
11.8307
11.8572
11.8838
11.9106
11.9377
11.9652
11.9931
12.0217
12.0509
12.0809
12.1118
12.1437
12.1769
12.2112
12.247
12.2841
12.3227
12.3627
12.4039
12.446
12.4887
12.5313
12.5728
12.612
12.6476
12.6775
12.6997
12.7119
12.712
12.6985
12.6655
12.6055
11.687
11.6389
11.6097
11.5935
11.5858
11.5856
11.5917
11.6027
11.6175
11.635
11.6546
11.6756
11.6976
11.7204
11.7438
11.7676
11.7917
11.8162
11.8409
11.866
11.8914
11.9172
11.9434
11.9702
11.9974
12.0253
12.0539
12.0832
12.1134
12.1445
12.1766
12.2098
12.2441
12.2795
12.3159
12.3532
12.3911
12.4294
12.4676
12.5048
12.5403
12.5729
12.6013
12.6239
12.639
12.6448
12.64
12.6237
12.591
12.5356
11.7459
11.7008
11.6721
11.6546
11.6442
11.6404
11.6422
11.6487
11.6589
11.672
11.6873
11.7044
11.7229
11.7425
11.7631
11.7843
11.8063
11.8288
11.852
11.8756
11.8998
11.9245
11.9498
11.9757
12.0022
12.0294
12.0573
12.0859
12.1153
12.1455
12.1767
12.2087
12.2415
12.2751
12.3094
12.3442
12.3791
12.4139
12.4479
12.4805
12.5108
12.5377
12.5602
12.5769
12.5865
12.5875
12.5792
12.561
12.529
12.4773
11.7968
11.754
11.7259
11.7074
11.6952
11.6887
11.6873
11.6903
11.6968
11.7063
11.7181
11.7319
11.7473
11.7641
11.7821
11.8011
11.821
11.8418
11.8634
11.8856
11.9086
11.9323
11.9566
11.9817
12.0074
12.0338
12.0609
12.0888
12.1174
12.1468
12.1769
12.2077
12.2391
12.2711
12.3034
12.3358
12.368
12.3996
12.43
12.4585
12.4843
12.5065
12.5242
12.5361
12.5413
12.5388
12.5279
12.5085
12.4772
12.4287
11.8407
11.7998
11.7721
11.753
11.7394
11.731
11.7272
11.7274
11.731
11.7375
11.7465
11.7575
11.7703
11.7847
11.8005
11.8174
11.8355
11.8546
11.8747
11.8957
11.9175
11.9401
11.9635
11.9877
12.0127
12.0383
12.0648
12.0919
12.1197
12.1482
12.1773
12.207
12.2371
12.2675
12.2979
12.3282
12.3579
12.3867
12.4138
12.4388
12.4609
12.4792
12.4928
12.501
12.5027
12.4974
12.4847
12.4646
12.434
12.3882
11.8785
11.8389
11.8116
11.7922
11.7776
11.7677
11.762
11.7601
11.7615
11.7656
11.7722
11.7809
11.7916
11.8038
11.8177
11.8328
11.8493
11.8669
11.8857
11.9054
11.9262
11.9478
11.9703
11.9937
12.0179
12.0429
12.0686
12.095
12.122
12.1497
12.1779
12.2065
12.2353
12.2643
12.2931
12.3214
12.349
12.3752
12.3996
12.4216
12.4404
12.4554
12.4658
12.4709
12.47
12.4626
12.4485
12.4279
12.3981
12.3545
11.9106
11.872
11.8451
11.8254
11.8101
11.7991
11.7921
11.7885
11.7881
11.7903
11.795
11.8019
11.8107
11.8212
11.8334
11.847
11.862
11.8784
11.8959
11.9146
11.9343
11.9551
11.9768
11.9994
12.0229
12.0472
12.0722
12.0979
12.1243
12.1512
12.1785
12.2061
12.2339
12.2615
12.2889
12.3155
12.3411
12.3652
12.3872
12.4067
12.4229
12.4352
12.4429
12.4456
12.4426
12.4336
12.4185
12.3976
12.3684
12.3268
11.9375
11.8998
11.8731
11.8532
11.8374
11.8256
11.8175
11.8127
11.8108
11.8116
11.8148
11.8201
11.8274
11.8365
11.8473
11.8596
11.8735
11.8887
11.9051
11.9229
11.9417
11.9617
11.9827
12.0046
12.0275
12.0511
12.0756
12.1007
12.1264
12.1526
12.1791
12.2059
12.2327
12.2592
12.2853
12.3105
12.3344
12.3567
12.3767
12.3941
12.4081
12.4182
12.4238
12.4246
12.42
12.4097
12.3939
12.3729
12.3443
12.3041
11.9595
11.9224
11.896
11.876
11.8598
11.8474
11.8384
11.8327
11.8298
11.8294
11.8314
11.8355
11.8416
11.8496
11.8592
11.8705
11.8833
11.8976
11.9132
11.9301
11.9482
11.9675
11.9879
12.0092
12.0315
12.0546
12.0785
12.1031
12.1283
12.1539
12.1798
12.2058
12.2317
12.2573
12.2823
12.3062
12.3288
12.3496
12.3681
12.3837
12.3959
12.4043
12.4083
12.4075
12.4017
12.3905
12.3742
12.3531
12.325
12.2861
11.9769
11.9403
11.914
11.8939
11.8775
11.8646
11.8551
11.8486
11.8449
11.8437
11.8448
11.848
11.8531
11.8602
11.869
11.8794
11.8914
11.9049
11.9198
11.9361
11.9536
11.9723
11.9922
12.013
12.0349
12.0576
12.081
12.1052
12.1298
12.1549
12.1803
12.2057
12.231
12.2558
12.2799
12.3029
12.3244
12.344
12.3612
12.3755
12.3864
12.3934
12.3961
12.3942
12.3874
12.3756
12.3589
12.3378
12.3101
12.2722
11.9898
11.9535
11.9273
11.9072
11.8906
11.8774
11.8675
11.8605
11.8562
11.8544
11.8548
11.8574
11.8619
11.8682
11.8764
11.8862
11.8976
11.9105
11.9249
11.9407
11.9578
11.9761
11.9955
12.016
12.0375
12.0598
12.0829
12.1067
12.1311
12.1558
12.1807
12.2057
12.2304
12.2547
12.2781
12.3004
12.3211
12.3398
12.3561
12.3694
12.3793
12.3853
12.3872
12.3844
12.377
12.3646
12.3477
12.3266
12.2992
12.262
11.9984
11.9623
11.9361
11.916
11.8993
11.8859
11.8757
11.8684
11.8638
11.8615
11.8616
11.8637
11.8677
11.8737
11.8814
11.8908
11.9018
11.9144
11.9284
11.9438
11.9606
11.9786
11.9978
12.018
12.0392
12.0614
12.0843
12.1078
12.1319
12.1564
12.1811
12.2057
12.2301
12.254
12.277
12.2987
12.3189
12.337
12.3527
12.3653
12.3746
12.38
12.3812
12.378
12.3701
12.3575
12.3404
12.3193
12.2921
12.2553
12.0027
11.9666
11.9405
11.9204
11.9036
11.8901
11.8798
11.8724
11.8675
11.8651
11.8649
11.8668
11.8707
11.8764
11.8839
11.8931
11.9039
11.9163
11.9301
11.9454
11.962
11.9799
11.9989
12.019
12.0401
12.0621
12.0849
12.1084
12.1324
12.1567
12.1812
12.2057
12.2299
12.2536
12.2764
12.2979
12.3178
12.3357
12.351
12.3633
12.3723
12.3774
12.3783
12.3748
12.3667
12.3539
12.3368
12.3157
12.2886
12.2521
12.0027
11.9666
11.9405
11.9204
11.9036
11.8901
11.8798
11.8724
11.8675
11.8651
11.8649
11.8668
11.8707
11.8764
11.8839
11.8931
11.9039
11.9163
11.9301
11.9454
11.962
11.9799
11.9989
12.019
12.0401
12.0621
12.0849
12.1084
12.1324
12.1567
12.1812
12.2057
12.2299
12.2536
12.2764
12.2979
12.3178
12.3357
12.351
12.3633
12.3723
12.3774
12.3783
12.3748
12.3667
12.3539
12.3368
12.3157
12.2886
12.2521
11.9984
11.9623
11.9361
11.916
11.8993
11.8859
11.8757
11.8684
11.8638
11.8615
11.8616
11.8637
11.8677
11.8737
11.8814
11.8908
11.9018
11.9144
11.9284
11.9438
11.9606
11.9786
11.9978
12.018
12.0392
12.0614
12.0843
12.1078
12.1319
12.1564
12.1811
12.2057
12.2301
12.254
12.277
12.2987
12.3189
12.337
12.3527
12.3653
12.3746
12.38
12.3812
12.378
12.3701
12.3575
12.3404
12.3193
12.2921
12.2553
11.9899
11.9535
11.9273
11.9072
11.8906
11.8774
11.8675
11.8605
11.8562
11.8544
11.8548
11.8574
11.8619
11.8682
11.8764
11.8862
11.8976
11.9105
11.9249
11.9407
11.9578
11.9761
11.9955
12.016
12.0375
12.0598
12.0829
12.1067
12.1311
12.1558
12.1807
12.2057
12.2304
12.2547
12.2781
12.3004
12.3211
12.3398
12.3561
12.3694
12.3793
12.3853
12.3872
12.3844
12.377
12.3646
12.3477
12.3266
12.2992
12.262
11.9769
11.9403
11.914
11.8939
11.8775
11.8646
11.8551
11.8486
11.8449
11.8437
11.8448
11.848
11.8531
11.8602
11.869
11.8794
11.8914
11.9049
11.9198
11.9361
11.9536
11.9723
11.9922
12.013
12.0349
12.0576
12.081
12.1052
12.1298
12.1549
12.1803
12.2057
12.231
12.2558
12.2799
12.3029
12.3244
12.344
12.3612
12.3755
12.3864
12.3934
12.3961
12.3942
12.3874
12.3756
12.3589
12.3378
12.3101
12.2722
11.9595
11.9224
11.896
11.876
11.8598
11.8474
11.8385
11.8327
11.8298
11.8294
11.8314
11.8355
11.8416
11.8496
11.8592
11.8705
11.8833
11.8976
11.9132
11.9301
11.9482
11.9675
11.9879
12.0092
12.0315
12.0546
12.0785
12.1031
12.1283
12.1539
12.1798
12.2058
12.2317
12.2573
12.2823
12.3062
12.3288
12.3496
12.3681
12.3837
12.3959
12.4043
12.4083
12.4075
12.4017
12.3905
12.3742
12.3531
12.325
12.2861
11.9375
11.8998
11.8731
11.8533
11.8375
11.8256
11.8175
11.8127
11.8108
11.8116
11.8148
11.8201
11.8274
11.8365
11.8473
11.8596
11.8735
11.8887
11.9052
11.9229
11.9417
11.9617
11.9827
12.0046
12.0275
12.0511
12.0756
12.1007
12.1264
12.1526
12.1791
12.2059
12.2327
12.2592
12.2853
12.3104
12.3344
12.3567
12.3767
12.3941
12.4081
12.4182
12.4238
12.4246
12.4199
12.4097
12.3939
12.3729
12.3443
12.3041
11.9106
11.872
11.8451
11.8254
11.8101
11.7991
11.7921
11.7885
11.7881
11.7904
11.795
11.8019
11.8107
11.8212
11.8334
11.847
11.862
11.8784
11.8959
11.9146
11.9343
11.9551
11.9768
11.9994
12.0229
12.0472
12.0722
12.0979
12.1243
12.1512
12.1785
12.2061
12.2339
12.2615
12.2889
12.3155
12.3411
12.3652
12.3872
12.4067
12.4229
12.4352
12.4429
12.4456
12.4426
12.4336
12.4185
12.3976
12.3684
12.3267
11.8785
11.8389
11.8116
11.7922
11.7776
11.7677
11.762
11.7601
11.7615
11.7656
11.7722
11.7809
11.7916
11.8038
11.8177
11.8328
11.8493
11.8669
11.8857
11.9054
11.9262
11.9478
11.9703
11.9937
12.0179
12.0429
12.0686
12.095
12.122
12.1497
12.1779
12.2065
12.2353
12.2643
12.2931
12.3214
12.349
12.3752
12.3996
12.4216
12.4404
12.4554
12.4658
12.4709
12.47
12.4626
12.4485
12.4279
12.3981
12.3545
11.8407
11.7998
11.7721
11.753
11.7394
11.731
11.7272
11.7274
11.731
11.7375
11.7465
11.7575
11.7703
11.7847
11.8005
11.8174
11.8355
11.8546
11.8747
11.8957
11.9175
11.9401
11.9635
11.9877
12.0127
12.0383
12.0648
12.0919
12.1197
12.1482
12.1773
12.207
12.2371
12.2675
12.2979
12.3282
12.3579
12.3867
12.4138
12.4388
12.4609
12.4792
12.4928
12.501
12.5027
12.4974
12.4847
12.4646
12.434
12.3882
11.7968
11.754
11.7259
11.7074
11.6952
11.6887
11.6873
11.6903
11.6968
11.7063
11.7181
11.7319
11.7473
11.7641
11.7821
11.8011
11.8211
11.8418
11.8634
11.8856
11.9086
11.9323
11.9566
11.9817
12.0074
12.0338
12.0609
12.0888
12.1174
12.1468
12.1769
12.2077
12.2391
12.2711
12.3034
12.3358
12.368
12.3996
12.43
12.4585
12.4843
12.5065
12.5242
12.5361
12.5413
12.5388
12.5279
12.5085
12.4772
12.4287
11.7459
11.7008
11.6722
11.6546
11.6442
11.6404
11.6422
11.6487
11.6589
11.672
11.6873
11.7044
11.7229
11.7425
11.7631
11.7843
11.8063
11.8289
11.852
11.8756
11.8998
11.9245
11.9498
11.9757
12.0022
12.0294
12.0573
12.0859
12.1153
12.1455
12.1767
12.2086
12.2415
12.2751
12.3094
12.3442
12.3791
12.4139
12.4479
12.4805
12.5108
12.5377
12.5602
12.5769
12.5865
12.5875
12.5792
12.561
12.529
12.4773
11.687
11.6389
11.6097
11.5935
11.5858
11.5856
11.5917
11.6027
11.6175
11.635
11.6546
11.6756
11.6976
11.7204
11.7438
11.7676
11.7917
11.8162
11.8409
11.866
11.8914
11.9172
11.9434
11.9702
11.9974
12.0253
12.0539
12.0832
12.1134
12.1445
12.1766
12.2098
12.2441
12.2795
12.3159
12.3532
12.3911
12.4294
12.4675
12.5048
12.5403
12.5729
12.6013
12.6239
12.639
12.6448
12.64
12.6237
12.591
12.5356
11.6185
11.5665
11.5369
11.5229
11.519
11.5237
11.5354
11.5523
11.5728
11.5958
11.6204
11.646
11.6721
11.6984
11.7249
11.7514
11.7778
11.8042
11.8307
11.8572
11.8838
11.9106
11.9377
11.9652
11.9931
12.0217
12.0509
12.0809
12.1118
12.1437
12.1769
12.2112
12.247
12.2841
12.3227
12.3627
12.4039
12.446
12.4887
12.5312
12.5728
12.612
12.6476
12.6775
12.6997
12.7119
12.712
12.6985
12.6655
12.6055
11.5383
11.4814
11.4517
11.4411
11.4427
11.4543
11.4734
11.4977
11.5254
11.555
11.5855
11.6163
11.647
11.6773
11.7071
11.7364
11.7652
11.7936
11.8217
11.8495
11.8773
11.905
11.9329
11.9611
11.9896
12.0187
12.0484
12.079
12.1106
12.1433
12.1773
12.2128
12.2499
12.2889
12.3297
12.3724
12.417
12.4633
12.511
12.5595
12.6079
12.655
12.6992
12.7383
12.7697
12.7903
12.7973
12.7882
12.7553
12.6898
11.4434
11.3801
11.3511
11.3459
11.3556
11.3766
11.4056
11.4394
11.4759
11.5135
11.5509
11.5877
11.6234
11.6579
11.6911
11.7233
11.7545
11.7848
11.8144
11.8434
11.8722
11.9007
11.9293
11.958
11.987
12.0165
12.0466
12.0776
12.1097
12.143
12.1779
12.2144
12.2529
12.2935
12.3365
12.382
12.4301
12.4808
12.5339
12.589
12.6453
12.7016
12.7561
12.8066
12.8497
12.8817
12.8985
12.8962
12.8646
12.7924
11.329
11.2578
11.231
11.2346
11.2562
11.2903
11.3323
11.3783
11.4257
11.4725
11.5178
11.5612
11.6022
11.6411
11.6779
11.7128
11.7462
11.7782
11.8092
11.8393
11.8688
11.898
11.927
11.956
11.9853
12.0151
12.0455
12.0768
12.1092
12.143
12.1785
12.2159
12.2555
12.2977
12.3428
12.391
12.4427
12.4979
12.5567
12.6189
12.684
12.7508
12.8178
12.8823
12.9407
12.9881
13.0189
13.0272
12.999
12.9189
11.1879
11.1072
11.086
11.104
11.1432
11.1955
11.2546
11.3159
11.3762
11.4338
11.4879
11.5383
11.5849
11.6281
11.6682
11.7058
11.7411
11.7746
11.8066
11.8375
11.8675
11.897
11.9262
11.9554
11.9848
12.0145
12.045
12.0764
12.109
12.1431
12.179
12.217
12.2576
12.3012
12.3481
12.3988
12.4538
12.5135
12.5782
12.648
12.7227
12.8015
12.8831
12.9649
13.0429
13.1111
13.1623
13.1874
13.1665
13.0775
11.0079
10.9175
10.9087
10.9502
11.0155
11.0929
11.1744
11.2544
11.3299
11.3997
11.4632
11.5207
11.5727
11.62
11.6631
11.7028
11.7396
11.7741
11.8068
11.8381
11.8684
11.8979
11.9271
11.9561
11.9853
12.0149
12.0451
12.0764
12.1089
12.143
12.1791
12.2175
12.2587
12.3033
12.3517
12.4046
12.4627
12.5267
12.5971
12.6746
12.7594
12.8516
12.9501
13.0529
13.1559
13.2524
13.3331
13.385
13.3792
13.2818
10.768
10.6721
10.6892
10.7694
10.8734
10.9851
11.095
11.1975
11.2903
11.3729
11.4459
11.5103
11.5673
11.618
11.6634
11.7046
11.7423
11.7773
11.8102
11.8414
11.8715
11.9007
11.9295
11.958
11.9868
12.0159
12.0457
12.0766
12.1087
12.1426
12.1785
12.2169
12.2584
12.3036
12.353
12.4076
12.4682
12.5358
12.6114
12.6964
12.7916
12.8978
13.0153
13.1429
13.2774
13.4119
13.5356
13.6306
13.6548
13.5547
10.4296
10.3459
10.4163
10.5596
10.7201
10.8775
11.0224
11.1507
11.2619
11.3574
11.4392
11.5094
11.5702
11.6232
11.6699
11.7117
11.7496
11.7844
11.8168
11.8475
11.8768
11.9053
11.9333
11.9611
11.9891
12.0175
12.0466
12.0768
12.1083
12.1415
12.1769
12.2149
12.2562
12.3013
12.3512
12.4066
12.4688
12.5391
12.6191
12.7105
12.8154
12.9357
13.0733
13.2291
13.402
13.5867
13.7721
13.9363
14.0199
13.9379
9.92062
9.90132
10.0786
10.3236
10.5643
10.7803
10.9659
11.1216
11.2506
11.3573
11.4459
11.5201
11.5828
11.6365
11.6833
11.7245
11.7615
11.7953
11.8266
11.8561
11.8843
11.9116
11.9385
11.9652
11.9921
12.0194
12.0475
12.0766
12.1072
12.1394
12.1739
12.2111
12.2515
12.2959
12.3453
12.4006
12.4632
12.5348
12.6174
12.7135
12.8261
12.9591
13.1163
13.302
13.5191
13.7676
14.04
14.314
14.5137
14.5068
9.11064
9.28843
9.66866
10.071
10.4217
10.7085
10.9377
11.119
11.2625
11.3767
11.4687
11.5438
11.606
11.6584
11.7035
11.7428
11.7779
11.8097
11.8392
11.8669
11.8935
11.9193
11.9446
11.9699
11.9954
12.0214
12.0482
12.076
12.1052
12.1361
12.1692
12.205
12.244
12.287
12.3349
12.3888
12.4504
12.5213
12.6042
12.7021
12.8192
12.9611
13.1347
13.3487
13.6133
13.9383
14.329
14.7714
15.187
15.3957
7.70299
8.46697
9.21079
9.83518
10.3228
10.6861
10.954
11.1533
11.3036
11.419
11.5092
11.5811
11.6397
11.6885
11.73
11.7661
11.7981
11.8272
11.8541
11.8796
11.904
11.9278
11.9513
11.9749
11.9988
12.0232
12.0484
12.0746
12.1022
12.1314
12.1627
12.1965
12.2334
12.2741
12.3196
12.3709
12.4296
12.4977
12.5778
12.6736
12.7901
12.9345
13.1168
13.3514
13.6585
14.0659
14.6034
15.2818
16.0799
16.9088
4.868
7.46787
8.88615
9.77055
10.3753
10.7829
11.0591
11.2523
11.3919
11.4958
11.5753
11.6378
11.6882
11.7299
11.7653
11.7961
11.8236
11.8487
11.8722
11.8945
11.9162
11.9375
11.9588
11.9802
12.002
12.0245
12.0477
12.0719
12.0973
12.1243
12.1532
12.1843
12.2182
12.2555
12.297
12.3438
12.3971
12.459
12.5318
12.6191
12.7262
12.8604
13.0337
13.2644
13.5828
14.0394
14.7038
15.6607
17.1645
19.882
6.69761e-05
6.38539
9.05065
10.1472
10.741
11.0918
11.3074
11.4492
11.5487
11.6219
11.6778
11.7218
11.7576
11.7875
11.8133
11.8362
11.857
11.8765
11.8951
11.9132
11.9312
11.9492
11.9675
11.9861
12.0053
12.0251
12.0457
12.0672
12.0899
12.1139
12.1393
12.1667
12.1962
12.2285
12.264
12.3036
12.3482
12.3993
12.4587
12.5289
12.6138
12.7191
12.8543
13.0356
13.2953
13.6971
14.3578
15.549
18.3304
24.8399
)
;

boundaryField
{
    movingWallTop
    {
        type            zeroGradient;
    }
    movingWallBottom
    {
        type            zeroGradient;
    }
    fixedWalls
    {
        type            zeroGradient;
    }
    frontAndBack
    {
        type            empty;
    }
}


// ************************************************************************* //
