/*--------------------------------*- C++ -*----------------------------------*\
  =========                 |
  \\      /  F ield         | OpenFOAM: The Open Source CFD Toolbox
   \\    /   O peration     | Website:  https://openfoam.org
    \\  /    A nd           | Version:  7
     \\/     M anipulation  |
\*---------------------------------------------------------------------------*/
FoamFile
{
    version     2.0;
    format      ascii;
    class       surfaceScalarField;
    location    "0.0688";
    object      phi;
}
// * * * * * * * * * * * * * * * * * * * * * * * * * * * * * * * * * * * * * //

dimensions      [0 3 -1 0 0 0 0];

internalField   nonuniform List<scalar> 
4900
(
5.45461e-06
-5.45463e-06
9.9531e-06
-4.49849e-06
1.26939e-05
-2.7408e-06
1.44122e-05
-1.71831e-06
1.55285e-05
-1.11631e-06
1.62818e-05
-7.53277e-07
1.6813e-05
-5.31219e-07
1.72037e-05
-3.90701e-07
1.75011e-05
-2.97407e-07
1.77335e-05
-2.32395e-07
1.79187e-05
-1.85138e-07
1.80682e-05
-1.49573e-07
1.81903e-05
-1.22051e-07
1.82906e-05
-1.00273e-07
1.83733e-05
-8.27256e-08
1.84417e-05
-6.83714e-08
1.84981e-05
-5.6471e-08
1.85446e-05
-4.64808e-08
1.85826e-05
-3.7989e-08
1.86133e-05
-3.06749e-08
1.86375e-05
-2.42817e-08
1.86561e-05
-1.85982e-08
1.86696e-05
-1.34457e-08
1.86783e-05
-8.66823e-09
1.86824e-05
-4.12523e-09
1.86821e-05
3.17404e-10
1.86773e-05
4.78249e-09
1.86679e-05
9.40464e-09
1.86536e-05
1.43184e-08
1.86339e-05
1.96738e-08
1.86082e-05
2.56422e-08
1.85758e-05
3.24255e-08
1.85356e-05
4.02703e-08
1.84861e-05
4.94868e-08
1.84256e-05
6.04763e-08
1.83518e-05
7.37722e-08
1.82617e-05
9.01046e-08
1.81512e-05
1.10502e-07
1.80147e-05
1.36464e-07
1.78445e-05
1.70266e-07
1.7629e-05
2.15509e-07
1.73508e-05
2.78183e-07
1.6982e-05
3.68754e-07
1.64757e-05
5.06301e-07
1.57495e-05
7.26195e-07
1.46576e-05
1.09198e-06
1.29451e-05
1.7124e-06
1.0162e-05
2.78319e-06
5.55723e-06
4.60473e-06
5.55723e-06
-1.19312e-07
-5.33532e-06
1.83181e-06
-6.44962e-06
4.41347e-06
-5.32245e-06
6.72986e-06
-4.0347e-06
8.61065e-06
-2.9971e-06
1.00943e-05
-2.23691e-06
1.12604e-05
-1.69736e-06
1.21831e-05
-1.31342e-06
1.29209e-05
-1.03514e-06
1.35171e-05
-8.28672e-07
1.40038e-05
-6.71819e-07
1.44043e-05
-5.50024e-07
1.47358e-05
-4.53605e-07
1.50115e-05
-3.75988e-07
1.52414e-05
-3.12594e-07
1.54332e-05
-2.60148e-07
1.5593e-05
-2.16246e-07
1.57256e-05
-1.79079e-07
1.58348e-05
-1.47247e-07
1.59238e-05
-1.19646e-07
1.59949e-05
-9.53776e-08
1.605e-05
-7.36949e-08
1.60905e-05
-5.3959e-08
1.61174e-05
-3.56072e-08
1.61314e-05
-1.81278e-08
1.61328e-05
-1.04103e-09
1.61215e-05
1.61262e-08
1.6097e-05
3.38467e-08
1.60587e-05
5.26232e-08
1.60054e-05
7.30041e-08
1.59354e-05
9.56117e-08
1.58467e-05
1.21176e-07
1.57364e-05
1.50578e-07
1.56009e-05
1.84915e-07
1.54358e-05
2.25587e-07
1.52352e-05
2.74425e-07
1.49914e-05
3.33883e-07
1.46946e-05
4.0733e-07
1.43315e-05
4.99505e-07
1.38845e-05
6.17253e-07
1.33293e-05
7.70708e-07
1.26323e-05
9.75226e-07
1.17466e-05
1.25447e-06
1.06078e-05
1.64505e-06
9.13197e-06
2.20205e-06
7.22454e-06
2.99941e-06
4.83157e-06
4.10537e-06
2.12102e-06
5.49374e-06
1.07191e-08
6.71503e-06
5.56795e-06
-1.08241e-06
-4.25291e-06
-7.5393e-07
-6.7781e-06
5.8998e-07
-6.66636e-06
2.30283e-06
-5.74755e-06
4.01488e-06
-4.70915e-06
5.5675e-06
-3.78953e-06
6.91343e-06
-3.04329e-06
8.0562e-06
-2.45619e-06
9.01833e-06
-1.99727e-06
9.82653e-06
-1.63686e-06
1.05058e-05
-1.35106e-06
1.10775e-05
-1.12177e-06
1.15595e-05
-9.35633e-07
1.19664e-05
-7.82792e-07
1.23097e-05
-6.55951e-07
1.25992e-05
-5.49627e-07
1.28426e-05
-4.59632e-07
1.30462e-05
-3.82713e-07
1.32152e-05
-3.16288e-07
1.33539e-05
-2.58271e-07
1.34654e-05
-2.06935e-07
1.35526e-05
-1.60818e-07
1.36172e-05
-1.18653e-07
1.3661e-05
-7.93102e-08
1.36846e-05
-4.17518e-08
1.36885e-05
-4.99649e-09
1.36727e-05
3.19233e-08
1.36366e-05
6.99826e-08
1.3579e-05
1.10212e-07
1.34983e-05
1.53732e-07
1.33921e-05
2.01805e-07
1.32574e-05
2.55896e-07
1.30902e-05
3.17755e-07
1.28856e-05
3.89521e-07
1.26373e-05
4.73879e-07
1.23375e-05
5.74256e-07
1.19762e-05
6.95124e-07
1.15411e-05
8.42412e-07
1.10165e-05
1.0241e-06
1.03827e-05
1.25109e-06
9.6151e-06
1.53832e-06
8.68403e-06
1.9063e-06
7.55594e-06
2.38256e-06
6.19898e-06
3.00201e-06
4.59842e-06
3.80261e-06
2.79194e-06
4.80589e-06
9.38254e-07
5.95906e-06
-5.70536e-07
7.00253e-06
-1.03812e-06
7.18261e-06
4.52983e-06
-9.1296e-07
-3.33995e-06
-1.34117e-06
-6.34989e-06
-9.35916e-07
-7.07161e-06
2.29485e-08
-6.70641e-06
1.24166e-06
-5.92786e-06
2.52068e-06
-5.06855e-06
3.74723e-06
-4.26983e-06
4.86855e-06
-3.57752e-06
5.86677e-06
-2.99549e-06
6.742e-06
-2.51209e-06
7.5026e-06
-2.11166e-06
8.16003e-06
-1.77921e-06
8.72624e-06
-1.50184e-06
9.21249e-06
-1.26904e-06
9.62887e-06
-1.07234e-06
9.98421e-06
-9.04967e-07
1.02861e-05
-7.61508e-07
1.05409e-05
-6.37561e-07
1.07542e-05
-5.29519e-07
1.09303e-05
-4.34378e-07
1.10729e-05
-3.4959e-07
1.11851e-05
-2.72954e-07
1.12689e-05
-2.02525e-07
1.13262e-05
-1.36543e-07
1.13578e-05
-7.33725e-08
1.13642e-05
-1.14502e-08
1.13454e-05
5.07667e-08
1.13005e-05
1.14843e-07
1.12283e-05
1.82426e-07
1.11268e-05
2.55296e-07
1.09931e-05
3.3544e-07
1.08239e-05
4.25136e-07
1.06146e-05
5.27058e-07
1.03597e-05
6.44415e-07
1.00524e-05
7.81128e-07
9.68463e-06
9.42069e-07
9.24639e-06
1.13336e-06
8.72601e-06
1.36279e-06
8.10987e-06
1.64025e-06
7.38266e-06
1.9783e-06
6.52835e-06
2.39263e-06
5.53264e-06
2.902e-06
4.38832e-06
3.52688e-06
3.10593e-06
4.28441e-06
1.73304e-06
5.17549e-06
3.84478e-07
6.15446e-06
-7.23988e-07
7.06752e-06
-1.26545e-06
7.544e-06
-9.158e-07
6.83296e-06
3.61403e-06
-6.64631e-07
-2.67532e-06
-1.29668e-06
-5.71784e-06
-1.41687e-06
-6.95143e-06
-1.04036e-06
-7.08292e-06
-3.21669e-07
-6.64654e-06
5.81651e-07
-5.97187e-06
1.55133e-06
-5.23952e-06
2.51146e-06
-4.53764e-06
3.41879e-06
-3.90282e-06
4.25189e-06
-3.3452e-06
5.00272e-06
-2.86249e-06
5.6709e-06
-2.44739e-06
6.26015e-06
-2.09109e-06
6.77611e-06
-1.785e-06
7.22513e-06
-1.52135e-06
7.61355e-06
-1.29338e-06
7.94733e-06
-1.09529e-06
8.23188e-06
-9.22112e-07
8.47197e-06
-7.69609e-07
8.67171e-06
-6.34114e-07
8.83454e-06
-5.12422e-07
8.96327e-06
-4.01688e-07
9.06009e-06
-2.99347e-07
9.12658e-06
-2.03031e-07
9.16372e-06
-1.10514e-07
9.17192e-06
-1.96422e-08
9.15096e-06
7.17178e-08
9.10007e-06
1.65739e-07
9.0178e-06
2.64696e-07
8.90206e-06
3.71035e-07
8.75004e-06
4.87454e-07
8.55819e-06
6.16995e-07
8.32209e-06
7.63158e-07
8.03646e-06
9.30043e-07
7.69507e-06
1.12251e-06
7.29076e-06
1.34638e-06
6.81546e-06
1.60866e-06
6.26051e-06
1.91774e-06
5.61721e-06
2.28355e-06
4.87799e-06
2.71751e-06
4.03868e-06
3.23193e-06
3.10241e-06
3.83828e-06
2.08617e-06
4.54312e-06
1.03097e-06
5.33961e-06
1.55212e-08
6.19094e-06
-8.30897e-07
7.00087e-06
-1.32846e-06
7.56509e-06
-1.29252e-06
7.50806e-06
-6.84842e-07
6.22528e-06
2.92918e-06
-4.70579e-07
-2.20474e-06
-1.09894e-06
-5.08948e-06
-1.46645e-06
-6.58392e-06
-1.46652e-06
-7.08286e-06
-1.14493e-06
-6.96813e-06
-5.9669e-07
-6.52012e-06
8.45251e-08
-5.92073e-06
8.24833e-07
-5.27795e-06
1.57258e-06
-4.65057e-06
2.29467e-06
-4.06729e-06
2.9717e-06
-3.53952e-06
3.59358e-06
-3.06927e-06
4.15631e-06
-2.65382e-06
4.65962e-06
-2.28831e-06
5.10542e-06
-1.96715e-06
5.49679e-06
-1.68475e-06
5.83732e-06
-1.43582e-06
6.13069e-06
-1.21549e-06
6.38044e-06
-1.01936e-06
6.58978e-06
-8.43452e-07
6.76152e-06
-6.84157e-07
6.898e-06
-5.3817e-07
7.00108e-06
-4.02431e-07
7.07211e-06
-2.74062e-07
7.11191e-06
-1.5031e-07
7.12075e-06
-2.84868e-08
7.09838e-06
9.40906e-08
7.04396e-06
2.20157e-07
6.95609e-06
3.52564e-07
6.83278e-06
4.94354e-07
6.6714e-06
6.48835e-07
6.46872e-06
8.19666e-07
6.22092e-06
1.01096e-06
5.92356e-06
1.2274e-06
5.57173e-06
1.47433e-06
5.16026e-06
1.75786e-06
4.68399e-06
2.08493e-06
4.13847e-06
2.46325e-06
3.521e-06
2.90102e-06
2.8323e-06
3.40622e-06
2.07921e-06
3.98502e-06
1.27868e-06
4.63881e-06
4.63196e-07
5.35861e-06
-3.12678e-07
6.11548e-06
-9.66761e-07
6.84502e-06
-1.39023e-06
7.42434e-06
-1.46792e-06
7.64279e-06
-1.13543e-06
7.17557e-06
-4.96364e-07
5.58622e-06
2.43282e-06
-3.39572e-07
-1.86517e-06
-9.00942e-07
-4.52811e-06
-1.36195e-06
-6.1229e-06
-1.58123e-06
-6.86358e-06
-1.54036e-06
-7.009e-06
-1.28139e-06
-6.77908e-06
-8.65666e-07
-6.33646e-06
-3.52277e-07
-5.79134e-06
2.10498e-07
-5.21334e-06
7.86798e-07
-4.64359e-06
1.35179e-06
-4.10452e-06
1.88936e-06
-3.60684e-06
2.38981e-06
-3.15427e-06
2.84796e-06
-2.74645e-06
3.26166e-06
-2.38086e-06
3.63075e-06
-2.05385e-06
3.95626e-06
-1.76133e-06
4.23989e-06
-1.49912e-06
4.48364e-06
-1.26311e-06
4.68955e-06
-1.04936e-06
4.85954e-06
-8.54145e-07
4.99528e-06
-6.73911e-07
5.09813e-06
-5.05279e-07
5.16906e-06
-3.44996e-07
5.20865e-06
-1.89895e-07
5.21701e-06
-3.68472e-08
5.19381e-06
1.17286e-07
5.13826e-06
2.7571e-07
5.04907e-06
4.41751e-07
4.92451e-06
6.18919e-07
4.76237e-06
8.10974e-07
4.56005e-06
1.02199e-06
4.3146e-06
1.25641e-06
4.0229e-06
1.51911e-06
3.68182e-06
1.81542e-06
3.2886e-06
2.15108e-06
2.84141e-06
2.53212e-06
2.34017e-06
2.96449e-06
1.78781e-06
3.45339e-06
1.19201e-06
4.00202e-06
5.6765e-07
4.60938e-06
-6.01395e-08
5.2666e-06
-6.52689e-07
5.95116e-06
-1.15532e-06
6.61811e-06
-1.4983e-06
7.18801e-06
-1.60614e-06
7.53217e-06
-1.42257e-06
7.45922e-06
-9.58949e-07
6.71195e-06
-3.66355e-07
4.99362e-06
2.06646e-06
-2.5462e-07
-1.61055e-06
-7.39874e-07
-4.04286e-06
-1.21905e-06
-5.64373e-06
-1.5555e-06
-6.52713e-06
-1.70024e-06
-6.86427e-06
-1.65917e-06
-6.82015e-06
-1.46497e-06
-6.53065e-06
-1.15852e-06
-6.09779e-06
-7.78797e-07
-5.59307e-06
-3.58534e-07
-5.06385e-06
7.68686e-08
-4.53992e-06
5.08817e-07
-4.03879e-06
9.24377e-07
-3.56983e-06
1.31503e-06
-3.1371e-06
1.67552e-06
-2.74135e-06
2.00297e-06
-2.38129e-06
2.2961e-06
-2.05446e-06
2.5547e-06
-1.75772e-06
2.77923e-06
-1.48763e-06
2.97048e-06
-1.24061e-06
3.12938e-06
-1.01304e-06
3.25683e-06
-8.01369e-07
3.35362e-06
-6.02062e-07
3.42027e-06
-4.1165e-07
3.45706e-06
-2.26688e-07
3.46395e-06
-4.3735e-08
3.44055e-06
1.40686e-07
3.38614e-06
3.30124e-07
3.29964e-06
5.28243e-07
3.1797e-06
7.38863e-07
3.02467e-06
9.66001e-07
2.83276e-06
1.2139e-06
2.60211e-06
1.48705e-06
2.33107e-06
1.79015e-06
2.01842e-06
2.12806e-06
1.66391e-06
2.50559e-06
1.26882e-06
2.92721e-06
8.36871e-07
3.39643e-06
3.75411e-07
3.91485e-06
-1.031e-07
4.48053e-06
-5.79323e-07
5.0856e-06
-1.02527e-06
5.71255e-06
-1.40318e-06
6.32907e-06
-1.66624e-06
6.88117e-06
-1.76334e-06
7.28511e-06
-1.65105e-06
7.41988e-06
-1.31595e-06
7.12412e-06
-8.08506e-07
6.2045e-06
-2.80927e-07
4.46604e-06
1.78554e-06
-1.9902e-07
-1.41153e-06
-6.16992e-07
-3.62489e-06
-1.08165e-06
-5.17907e-06
-1.47477e-06
-6.13401e-06
-1.73692e-06
-6.60212e-06
-1.85267e-06
-6.7044e-06
-1.83329e-06
-6.55003e-06
-1.70303e-06
-6.22806e-06
-1.48988e-06
-5.80621e-06
-1.22048e-06
-5.33325e-06
-9.17663e-07
-4.84274e-06
-5.99744e-07
-4.35671e-06
-2.8072e-07
-3.88885e-06
2.91632e-08
-3.44698e-06
3.22698e-07
-3.03489e-06
5.95036e-07
-2.65363e-06
8.43097e-07
-2.30252e-06
1.06507e-06
-1.9797e-06
1.26003e-06
-1.68259e-06
1.42761e-06
-1.40819e-06
1.5678e-06
-1.15323e-06
1.68074e-06
-9.1431e-07
1.76661e-06
-6.87928e-07
1.8255e-06
-4.70546e-07
1.8574e-06
-2.58588e-07
1.8621e-06
-4.84321e-08
1.83919e-06
1.63599e-07
1.78805e-06
3.81257e-07
1.70791e-06
6.08389e-07
1.59781e-06
8.48956e-07
1.45678e-06
1.10703e-06
1.28388e-06
1.38681e-06
1.07841e-06
1.69252e-06
8.40157e-07
2.02841e-06
5.69751e-07
2.39847e-06
2.69115e-07
2.80623e-06
-5.79014e-08
3.25423e-06
-4.04737e-07
3.74327e-06
-7.61169e-07
4.27128e-06
-1.11227e-06
4.83163e-06
-1.43741e-06
5.41074e-06
-1.70974e-06
5.98488e-06
-1.89667e-06
6.516e-06
-1.96259e-06
6.94708e-06
-1.875e-06
7.19753e-06
-1.6159e-06
7.16077e-06
-1.19884e-06
6.70706e-06
-6.89833e-07
5.6955e-06
-2.24254e-07
4.00046e-06
1.56128e-06
-1.61675e-07
-1.24985e-06
-5.25064e-07
-3.2615e-06
-9.6362e-07
-4.74051e-06
-1.3796e-06
-5.71803e-06
-1.71356e-06
-6.26815e-06
-1.93912e-06
-6.47885e-06
-2.05323e-06
-6.43591e-06
-2.06692e-06
-6.21437e-06
-1.99794e-06
-5.87519e-06
-1.86591e-06
-5.46528e-06
-1.68951e-06
-5.01914e-06
-1.48503e-06
-4.5612e-06
-1.26589e-06
-4.10799e-06
-1.0427e-06
-3.67017e-06
-8.23583e-07
-3.25401e-06
-6.14519e-07
-2.8627e-06
-4.19813e-07
-2.49723e-06
-2.42464e-07
-2.15704e-06
-8.4491e-08
-1.84056e-06
5.27851e-08
-1.54547e-06
1.68524e-07
-1.26897e-06
2.62191e-07
-1.00798e-06
3.3342e-07
-7.59157e-07
3.81919e-07
-5.19045e-07
4.07393e-07
-2.84063e-07
4.09507e-07
-5.05454e-08
3.87857e-07
1.85249e-07
3.4198e-07
4.27133e-07
2.71382e-07
6.78987e-07
1.75596e-07
9.44742e-07
5.42781e-08
1.22835e-06
-9.26532e-08
1.53374e-06
-2.64823e-07
1.86469e-06
-4.61139e-07
2.22472e-06
-6.79448e-07
2.61678e-06
-9.16101e-07
3.04288e-06
-1.16543e-06
3.50355e-06
-1.41911e-06
3.99696e-06
-1.66557e-06
4.51774e-06
-1.88937e-06
5.05543e-06
-2.07098e-06
5.59234e-06
-2.1871e-06
6.101e-06
-2.21229e-06
6.54119e-06
-2.12239e-06
6.85718e-06
-1.90066e-06
6.9758e-06
-1.54705e-06
6.80717e-06
-1.09001e-06
6.25001e-06
-5.98073e-07
5.20356e-06
-1.85458e-07
3.58785e-06
1.37582e-06
-1.3586e-07
-1.11399e-06
-4.56448e-07
-2.94091e-06
-8.67005e-07
-4.32996e-06
-1.288e-06
-5.29704e-06
-1.66455e-06
-5.89159e-06
-1.96578e-06
-6.17762e-06
-2.1799e-06
-6.22179e-06
-2.30829e-06
-6.08598e-06
-2.36018e-06
-5.82331e-06
-2.34855e-06
-5.4769e-06
-2.2874e-06
-5.08029e-06
-2.19007e-06
-4.65852e-06
-2.0684e-06
-4.22966e-06
-1.93238e-06
-3.80619e-06
-1.79014e-06
-3.39625e-06
-1.64809e-06
-3.00474e-06
-1.5112e-06
-2.63412e-06
-1.38321e-06
-2.28504e-06
-1.2669e-06
-1.95687e-06
-1.1643e-06
-1.64806e-06
-1.0769e-06
-1.35637e-06
-1.00578e-06
-1.07909e-06
-9.51754e-07
-8.13187e-07
-9.15435e-07
-5.55364e-07
-8.97331e-07
-3.02167e-07
-8.97871e-07
-5.00053e-08
-9.17422e-07
2.048e-07
-9.56282e-07
4.65994e-07
-1.01464e-06
7.37347e-07
-1.09252e-06
1.02262e-06
-1.18965e-06
1.32549e-06
-1.30537e-06
1.64945e-06
-1.43837e-06
1.9977e-06
-1.58653e-06
2.37288e-06
-1.74654e-06
2.77678e-06
-1.91358e-06
3.20992e-06
-2.08093e-06
3.6709e-06
-2.23954e-06
4.15557e-06
-2.37772e-06
4.65592e-06
-2.48102e-06
5.15873e-06
-2.53245e-06
5.64378e-06
-2.51351e-06
6.08205e-06
-2.40617e-06
6.43385e-06
-2.19644e-06
6.64745e-06
-1.87965e-06
6.65901e-06
-1.46737e-06
6.39489e-06
-9.94868e-07
5.77751e-06
-5.26929e-07
4.73562e-06
-1.57895e-07
3.21882e-06
1.21793e-06
-1.17538e-07
-9.96454e-07
-4.05002e-07
-2.65344e-06
-7.89713e-07
-3.94525e-06
-1.20697e-06
-4.87978e-06
-1.60793e-06
-5.49063e-06
-1.9609e-06
-5.82465e-06
-2.2492e-06
-5.93349e-06
-2.46765e-06
-5.86753e-06
-2.61886e-06
-5.67209e-06
-2.71011e-06
-5.38566e-06
-2.75088e-06
-5.03951e-06
-2.75129e-06
-4.65811e-06
-2.72104e-06
-4.25992e-06
-2.66885e-06
-3.85838e-06
-2.60226e-06
-3.46285e-06
-2.52753e-06
-3.07947e-06
-2.4498e-06
-2.71185e-06
-2.37314e-06
-2.36169e-06
-2.30077e-06
-2.02924e-06
-2.23519e-06
-1.71364e-06
-2.17833e-06
-1.41324e-06
-2.13166e-06
-1.12577e-06
-2.0963e-06
-8.4854e-07
-2.07313e-06
-5.78533e-07
-2.0628e-06
-3.12498e-07
-2.06578e-06
-4.70251e-08
-2.08238e-06
2.21399e-07
-2.11272e-06
4.96336e-07
-2.15671e-06
7.81337e-07
-2.21397e-06
1.07987e-06
-2.2837e-06
1.39522e-06
-2.36463e-06
1.73038e-06
-2.45475e-06
2.08782e-06
-2.55117e-06
2.4693e-06
-2.64986e-06
2.87547e-06
-2.74538e-06
3.30545e-06
-2.83065e-06
3.75617e-06
-2.89672e-06
4.22164e-06
-2.93275e-06
4.69196e-06
-2.92619e-06
5.15216e-06
-2.86339e-06
5.58098e-06
-2.73087e-06
5.94954e-06
-2.51746e-06
6.22044e-06
-2.21742e-06
6.34741e-06
-1.83468e-06
6.27628e-06
-1.38765e-06
5.94786e-06
-9.13631e-07
5.30349e-06
-4.71101e-07
4.29309e-06
-1.37591e-07
2.8853e-06
1.08034e-06
-1.04247e-07
-8.92207e-07
-3.66176e-07
-2.39152e-06
-7.28578e-07
-3.58285e-06
-1.13836e-06
-4.47e-06
-1.5527e-06
-5.07629e-06
-1.94096e-06
-5.43639e-06
-2.28409e-06
-5.59036e-06
-2.57268e-06
-5.57894e-06
-2.8045e-06
-5.44027e-06
-2.98216e-06
-5.208e-06
-3.11119e-06
-4.91048e-06
-3.19855e-06
-4.57075e-06
-3.25162e-06
-4.20685e-06
-3.27753e-06
-3.83247e-06
-3.28281e-06
-3.45757e-06
-3.27318e-06
-3.0891e-06
-3.25355e-06
-2.73148e-06
-3.228e-06
-2.38724e-06
-3.1999e-06
-2.05734e-06
-3.17197e-06
-1.74157e-06
-3.14637e-06
-1.43883e-06
-3.12483e-06
-1.14731e-06
-3.10868e-06
-8.64694e-07
-3.09892e-06
-5.88287e-07
-3.0963e-06
-3.15119e-07
-3.10129e-06
-4.20359e-08
-3.11412e-06
2.34226e-07
-3.13474e-06
5.16958e-07
-3.1628e-06
8.09403e-07
-3.19759e-06
1.11466e-06
-3.23792e-06
1.43555e-06
-3.28203e-06
1.77449e-06
-3.32746e-06
2.13325e-06
-3.37086e-06
2.5127e-06
-3.40785e-06
2.91246e-06
-3.43286e-06
3.33046e-06
-3.43901e-06
3.76232e-06
-3.41809e-06
4.20072e-06
-3.36073e-06
4.63459e-06
-3.25677e-06
5.04821e-06
-3.09612e-06
5.42032e-06
-2.87006e-06
5.72348e-06
-2.57322e-06
5.9236e-06
-2.2062e-06
5.98039e-06
-1.7787e-06
5.84878e-06
-1.3127e-06
5.48185e-06
-8.44783e-07
4.83558e-06
-4.26633e-07
3.87494e-06
-1.22152e-07
2.58082e-06
9.58187e-07
-9.44408e-08
-7.97766e-07
-3.36689e-07
-2.14927e-06
-6.80508e-07
-3.23903e-06
-1.08172e-06
-4.06879e-06
-1.5029e-06
-4.65512e-06
-1.91529e-06
-5.024e-06
-2.29901e-06
-5.20664e-06
-2.64206e-06
-5.23589e-06
-2.93879e-06
-5.14355e-06
-3.18821e-06
-4.95858e-06
-3.39251e-06
-4.70618e-06
-3.55581e-06
-4.40745e-06
-3.68321e-06
-4.07945e-06
-3.78014e-06
-3.73554e-06
-3.85189e-06
-3.38582e-06
-3.9034e-06
-3.03758e-06
-3.93908e-06
-2.69581e-06
-3.96276e-06
-2.36356e-06
-3.97771e-06
-2.04239e-06
-3.98667e-06
-1.73261e-06
-3.99188e-06
-1.43361e-06
-3.99517e-06
-1.14402e-06
-3.99795e-06
-8.61914e-07
-4.0013e-06
-5.84941e-07
-4.00596e-06
-3.10456e-07
-4.01239e-06
-3.56103e-08
-4.02071e-06
2.42546e-07
-4.03073e-06
5.26979e-07
-4.04189e-06
8.20564e-07
-4.05321e-06
1.12598e-06
-4.06322e-06
1.44556e-06
-4.06987e-06
1.78114e-06
-4.07043e-06
2.13381e-06
-4.06138e-06
2.50366e-06
-4.03836e-06
2.88944e-06
-3.99602e-06
3.28812e-06
-3.92813e-06
3.69443e-06
-3.82762e-06
4.10022e-06
-3.68691e-06
4.49389e-06
-3.49844e-06
4.85973e-06
-3.25553e-06
5.17741e-06
-2.95365e-06
5.42159e-06
-2.59212e-06
5.56206e-06
-2.17615e-06
5.56443e-06
-1.71909e-06
5.39172e-06
-1.24434e-06
5.0071e-06
-7.86467e-07
4.37771e-06
-3.90692e-07
3.47917e-06
-1.101e-07
2.30023e-06
8.48087e-07
-8.71127e-08
-7.10653e-07
-3.14177e-07
-1.9222e-06
-6.42841e-07
-2.91036e-06
-1.03573e-06
-3.67589e-06
-1.45998e-06
-4.23087e-06
-1.88897e-06
-4.59501e-06
-2.30287e-06
-4.79274e-06
-2.6882e-06
-4.85055e-06
-3.03698e-06
-4.79477e-06
-3.3455e-06
-4.65005e-06
-3.61327e-06
-4.43841e-06
-3.84195e-06
-4.17877e-06
-4.03455e-06
-3.88684e-06
-4.19482e-06
-3.57527e-06
-4.32677e-06
-3.25387e-06
-4.43438e-06
-2.92998e-06
-4.52139e-06
-2.60879e-06
-4.59122e-06
-2.29373e-06
-4.64687e-06
-1.98674e-06
-4.69093e-06
-1.68855e-06
-4.72558e-06
-1.39896e-06
-4.75262e-06
-1.11699e-06
-4.77345e-06
-8.41082e-07
-4.78914e-06
-5.69251e-07
-4.80041e-06
-2.99188e-07
-4.80763e-06
-2.83863e-08
-4.81085e-06
2.45762e-07
-4.80973e-06
5.25858e-07
-4.80355e-06
8.14386e-07
-4.79116e-06
1.11359e-06
-4.77091e-06
1.42531e-06
-4.74061e-06
1.75084e-06
-4.69748e-06
2.09067e-06
-4.63806e-06
2.44424e-06
-4.55823e-06
2.80961e-06
-4.45321e-06
3.1831e-06
-4.31766e-06
3.55888e-06
-4.14589e-06
3.92845e-06
-3.93226e-06
4.28025e-06
-3.67171e-06
4.59919e-06
-3.36067e-06
4.86637e-06
-2.99813e-06
5.05905e-06
-2.58704e-06
5.15097e-06
-2.13585e-06
5.11324e-06
-1.66e-06
4.91586e-06
-1.18305e-06
4.53015e-06
-7.36974e-07
3.93163e-06
-3.61275e-07
3.10347e-06
-1.00498e-07
2.03946e-06
7.47589e-07
-8.15873e-08
-6.29066e-07
-2.96926e-07
-1.70686e-06
-6.134e-07
-2.59389e-06
-9.98821e-07
-3.29047e-06
-1.42407e-06
-3.80562e-06
-1.86459e-06
-4.15448e-06
-2.30106e-06
-4.35628e-06
-2.71927e-06
-4.43234e-06
-3.10968e-06
-4.40437e-06
-3.4666e-06
-4.29313e-06
-3.78741e-06
-4.1176e-06
-4.07172e-06
-3.89446e-06
-4.32072e-06
-3.63785e-06
-4.53658e-06
-3.35941e-06
-4.72205e-06
-3.0684e-06
-4.88011e-06
-2.77191e-06
-5.01377e-06
-2.47513e-06
-5.12589e-06
-2.18162e-06
-5.21909e-06
-1.89354e-06
-5.29571e-06
-1.61194e-06
-5.35775e-06
-1.33692e-06
-5.40689e-06
-1.06785e-06
-5.44445e-06
-8.03519e-07
-5.47143e-06
-5.42275e-07
-5.48846e-06
-2.82154e-07
-5.49585e-06
-2.09979e-08
-5.49353e-06
2.43443e-07
-5.48107e-06
5.13395e-07
-5.45763e-06
7.90947e-07
-5.42196e-06
1.07791e-06
-5.37234e-06
1.37569e-06
-5.30658e-06
1.68508e-06
-5.22198e-06
2.00607e-06
-5.11535e-06
2.3376e-06
-4.983e-06
2.67726e-06
-4.8209e-06
3.021e-06
-4.62476e-06
3.36274e-06
-4.39037e-06
3.69406e-06
-4.11397e-06
4.00385e-06
-3.79286e-06
4.27807e-06
-3.42612e-06
4.49963e-06
-3.0156e-06
4.64853e-06
-2.56698e-06
4.70235e-06
-2.09087e-06
4.63713e-06
-1.60378e-06
4.42878e-06
-1.12869e-06
4.05505e-06
-6.94891e-07
3.49783e-06
-3.36968e-07
2.74554e-06
-9.27278e-08
1.79522e-06
6.54862e-07
-7.73968e-08
-5.51669e-07
-2.83678e-07
-1.50058e-06
-5.90449e-07
-2.28712e-06
-9.69465e-07
-2.91146e-06
-1.39464e-06
-3.38045e-06
-1.84328e-06
-3.70584e-06
-2.29674e-06
-3.90281e-06
-2.74057e-06
-3.98851e-06
-3.16422e-06
-3.98072e-06
-3.56058e-06
-3.89677e-06
-3.92536e-06
-3.75282e-06
-4.25652e-06
-3.56329e-06
-4.55367e-06
-3.34069e-06
-4.81762e-06
-3.09547e-06
-5.0499e-06
-2.83612e-06
-5.25255e-06
-2.56927e-06
-5.42778e-06
-2.2999e-06
-5.57787e-06
-2.03153e-06
-5.70498e-06
-1.76642e-06
-5.81112e-06
-1.50579e-06
-5.89805e-06
-1.24999e-06
-5.96726e-06
-9.98641e-07
-6.01994e-06
-7.50843e-07
-6.05695e-06
-5.0526e-07
-6.07885e-06
-2.60257e-07
-6.08583e-06
-1.40177e-08
-6.07774e-06
2.35354e-07
-6.05407e-06
4.89719e-07
-6.0139e-06
7.50783e-07
-5.95596e-06
1.01997e-06
-5.87854e-06
1.29828e-06
-5.77956e-06
1.5861e-06
-5.65653e-06
1.88304e-06
-5.50662e-06
2.18769e-06
-5.32674e-06
2.49739e-06
-5.11368e-06
2.80793e-06
-4.86427e-06
3.11333e-06
-4.57575e-06
3.40554e-06
-4.24615e-06
3.67425e-06
-3.87479e-06
3.90672e-06
-3.46303e-06
4.08787e-06
-3.01496e-06
4.20046e-06
-2.53824e-06
4.22563e-06
-2.04488e-06
4.14376e-06
-1.55177e-06
3.93568e-06
-1.08093e-06
3.58421e-06
-6.59104e-07
3.07601e-06
-3.16761e-07
2.4032e-06
-8.63771e-08
1.56483e-06
5.68484e-07
-7.42095e-08
-4.7746e-07
-2.73506e-07
-1.30129e-06
-5.72622e-07
-1.988e-06
-9.46318e-07
-2.53776e-06
-1.37092e-06
-2.95585e-06
-1.82535e-06
-3.25141e-06
-2.29171e-06
-3.43645e-06
-2.75553e-06
-3.52469e-06
-3.20565e-06
-3.5306e-06
-3.63394e-06
-3.46848e-06
-4.03488e-06
-3.35188e-06
-4.40508e-06
-3.19309e-06
-4.74286e-06
-3.00291e-06
-5.0478e-06
-2.79053e-06
-5.32039e-06
-2.56352e-06
-5.56175e-06
-2.32791e-06
-5.77335e-06
-2.0883e-06
-5.95686e-06
-1.84802e-06
-6.11397e-06
-1.60931e-06
-6.24632e-06
-1.37345e-06
-6.35537e-06
-1.14094e-06
-6.44239e-06
-9.1162e-07
-6.50839e-06
-6.84838e-07
-6.55411e-06
-4.59539e-07
-6.57997e-06
-2.34396e-07
-6.58608e-06
-7.91345e-09
-6.57219e-06
2.21469e-07
-6.53774e-06
4.55266e-07
-6.48179e-06
6.94837e-07
-6.40308e-06
9.41259e-07
-6.29999e-06
1.19519e-06
-6.17061e-06
1.45672e-06
-6.01274e-06
1.72517e-06
-5.82401e-06
1.99897e-06
-5.60198e-06
2.27535e-06
-5.34427e-06
2.55022e-06
-5.04884e-06
2.81791e-06
-4.71429e-06
3.07099e-06
-4.34021e-06
3.30017e-06
-3.92772e-06
3.49423e-06
-3.47998e-06
3.64013e-06
-3.00283e-06
3.72331e-06
-2.50533e-06
3.72814e-06
-2.00034e-06
3.63877e-06
-1.50471e-06
3.44005e-06
-1.03937e-06
3.11887e-06
-6.28757e-07
2.66539e-06
-2.99936e-07
2.07438e-06
-8.1161e-08
1.34606e-06
4.87323e-07
-7.17865e-08
-4.05673e-07
-2.65716e-07
-1.10736e-06
-5.5885e-07
-1.69487e-06
-9.28237e-07
-2.16837e-06
-1.35211e-06
-2.53198e-06
-1.81072e-06
-2.7928e-06
-2.2869e-06
-2.96027e-06
-2.7663e-06
-3.04529e-06
-3.2374e-06
-3.05949e-06
-3.69137e-06
-3.01451e-06
-4.12175e-06
-2.92151e-06
-4.5241e-06
-2.79074e-06
-4.89567e-06
-2.63134e-06
-5.23503e-06
-2.45117e-06
-5.54174e-06
-2.25681e-06
-5.81611e-06
-2.05354e-06
-6.05892e-06
-1.84549e-06
-6.27126e-06
-1.63568e-06
-6.45435e-06
-1.42622e-06
-6.60944e-06
-1.21836e-06
-6.7377e-06
-1.01267e-06
-6.84016e-06
-8.09158e-07
-6.91765e-06
-6.07353e-07
-6.97073e-06
-4.06456e-07
-6.99971e-06
-2.05412e-07
-7.00461e-06
-3.02037e-09
-6.98511e-06
2.01968e-07
-6.9406e-06
4.10758e-07
-6.87016e-06
6.24399e-07
-6.77258e-06
8.43675e-07
-6.64636e-06
1.06898e-06
-6.48983e-06
1.30018e-06
-6.30112e-06
1.53646e-06
-6.07834e-06
1.77619e-06
-5.81968e-06
2.0167e-06
-5.52363e-06
2.25417e-06
-5.18918e-06
2.48345e-06
-4.81611e-06
2.69793e-06
-4.40543e-06
2.88949e-06
-3.95971e-06
3.0485e-06
-3.48357e-06
3.16399e-06
-2.98415e-06
3.22389e-06
-2.4715e-06
3.2155e-06
-1.95893e-06
3.12619e-06
-1.46305e-06
2.94417e-06
-1.00365e-06
2.65947e-06
-6.03206e-07
2.26495e-06
-2.85976e-07
1.75715e-06
-7.68807e-08
1.13696e-06
4.10443e-07
-6.99536e-08
-3.3572e-07
-2.5979e-07
-9.1752e-07
-5.48305e-07
-1.40635e-06
-9.14279e-07
-1.8024e-06
-1.33743e-06
-2.10883e-06
-1.79909e-06
-2.33113e-06
-2.28274e-06
-2.47662e-06
-2.77422e-06
-2.55382e-06
-3.26182e-06
-2.57189e-06
-3.73621e-06
-2.54012e-06
-4.19023e-06
-2.46749e-06
-4.61865e-06
-2.36232e-06
-5.01786e-06
-2.23213e-06
-5.38559e-06
-2.08345e-06
-5.72062e-06
-1.92177e-06
-6.02256e-06
-1.75161e-06
-6.29156e-06
-1.57648e-06
-6.52819e-06
-1.39905e-06
-6.73324e-06
-1.22117e-06
-6.90759e-06
-1.04401e-06
-7.05213e-06
-8.68133e-07
-7.16765e-06
-6.93643e-07
-7.25477e-06
-5.20234e-07
-7.31392e-06
-3.47307e-07
-7.34528e-06
-1.74051e-07
-7.34877e-06
4.73446e-10
-7.32404e-06
1.77235e-07
-7.27045e-06
3.57166e-07
-7.1871e-06
5.4105e-07
-7.07286e-06
7.29433e-07
-6.92639e-06
9.22516e-07
-6.74625e-06
1.12004e-06
-6.53093e-06
1.32114e-06
-6.27901e-06
1.52427e-06
-5.98931e-06
1.72699e-06
-5.66106e-06
1.92592e-06
-5.29419e-06
2.11657e-06
-4.88954e-06
2.29328e-06
-4.44926e-06
2.44921e-06
-3.97711e-06
2.57636e-06
-3.47887e-06
2.66575e-06
-2.96264e-06
2.70765e-06
-2.43913e-06
2.69199e-06
-1.92184e-06
2.60891e-06
-1.42704e-06
2.44937e-06
-9.73489e-07
2.20592e-06
-5.81971e-07
1.87343e-06
-2.74508e-07
1.44969e-06
-7.33962e-08
9.35849e-07
3.37047e-07
-6.85832e-08
-2.67136e-07
-2.55341e-07
-7.30763e-07
-5.4035e-07
-1.12134e-06
-9.03687e-07
-1.43906e-06
-1.3262e-06
-1.68631e-06
-1.79011e-06
-1.86723e-06
-2.2794e-06
-1.98733e-06
-2.78012e-06
-2.05309e-06
-3.28049e-06
-2.07153e-06
-3.77082e-06
-2.04978e-06
-4.24347e-06
-1.99484e-06
-4.69258e-06
-1.91322e-06
-5.11387e-06
-1.81084e-06
-5.50441e-06
-1.69291e-06
-5.86235e-06
-1.56384e-06
-6.18668e-06
-1.42728e-06
-6.47706e-06
-1.28611e-06
-6.73358e-06
-1.14253e-06
-6.95666e-06
-9.98094e-07
-7.14686e-06
-8.53812e-07
-7.30478e-06
-7.10213e-07
-7.43099e-06
-5.67427e-07
-7.52596e-06
-4.25271e-07
-7.58995e-06
-2.83311e-07
-7.62306e-06
-1.40947e-07
-7.62511e-06
2.52625e-09
-7.59571e-06
1.47838e-07
-7.53422e-06
2.95677e-07
-7.43978e-06
4.46609e-07
-7.31134e-06
6.00996e-07
-7.14774e-06
7.5891e-07
-6.94774e-06
9.2004e-07
-6.71019e-06
1.08359e-06
-6.43409e-06
1.24817e-06
-6.11882e-06
1.41172e-06
-5.76429e-06
1.57139e-06
-5.37119e-06
1.72347e-06
-4.94127e-06
1.86336e-06
-4.47761e-06
1.98554e-06
-3.98491e-06
2.08366e-06
-3.46981e-06
2.15065e-06
-2.9411e-06
2.17895e-06
-2.40996e-06
2.16085e-06
-1.88992e-06
2.08887e-06
-1.39685e-06
1.9563e-06
-9.48642e-07
1.75771e-06
-5.64699e-07
1.48948e-06
-2.65267e-07
1.15025e-06
-7.06081e-08
7.4119e-07
2.66438e-07
-6.75822e-08
-1.99554e-07
-2.52081e-07
-5.46264e-07
-5.34501e-07
-8.38923e-07
-8.95867e-07
-1.0777e-06
-1.31788e-06
-1.2643e-06
-1.7834e-06
-1.40171e-06
-2.27686e-06
-1.49387e-06
-2.78449e-06
-1.54546e-06
-3.29446e-06
-1.56155e-06
-3.79689e-06
-1.54736e-06
-4.28375e-06
-1.50798e-06
-4.74873e-06
-1.44823e-06
-5.18707e-06
-1.3725e-06
-5.59531e-06
-1.28467e-06
-5.97109e-06
-1.18806e-06
-6.31294e-06
-1.08542e-06
-6.6201e-06
-9.78955e-07
-6.89228e-06
-8.70344e-07
-7.12957e-06
-7.608e-07
-7.33227e-06
-6.5112e-07
-7.50074e-06
-5.41739e-07
-7.63537e-06
-4.32793e-07
-7.73647e-06
-3.24175e-07
-7.80419e-06
-2.15592e-07
-7.83851e-06
-1.0662e-07
-7.83923e-06
3.23953e-09
-7.80589e-06
1.14504e-07
-7.73787e-06
2.27657e-07
-7.63435e-06
3.43083e-07
-7.49436e-06
4.61009e-07
-7.31689e-06
5.81436e-07
-7.10092e-06
7.04068e-07
-6.84557e-06
8.2824e-07
-6.55023e-06
9.52839e-07
-6.21475e-06
1.07624e-06
-5.83958e-06
1.19622e-06
-5.42607e-06
1.30996e-06
-4.97665e-06
1.41394e-06
-4.49513e-06
1.50402e-06
-3.98694e-06
1.57547e-06
-3.45935e-06
1.62306e-06
-2.92165e-06
1.64125e-06
-2.38527e-06
1.62447e-06
-1.86375e-06
1.56735e-06
-1.37259e-06
1.46514e-06
-9.2894e-07
1.31406e-06
-5.51135e-07
1.11168e-06
-2.58062e-07
8.57181e-07
-6.84464e-08
5.51575e-07
1.97992e-07
-6.68839e-08
-1.3267e-07
-2.49802e-07
-3.63346e-07
-5.30401e-07
-5.58323e-07
-8.90373e-07
-7.17726e-07
-1.31201e-06
-8.42668e-07
-1.77866e-06
-9.35064e-07
-2.27505e-06
-9.97473e-07
-2.78759e-06
-1.03292e-06
-3.30444e-06
-1.04471e-06
-3.81556e-06
-1.03624e-06
-4.31268e-06
-1.01085e-06
-4.7892e-06
-9.71717e-07
-5.23996e-06
-9.21739e-07
-5.66114e-06
-8.63491e-07
-6.05001e-06
-7.99185e-07
-6.40476e-06
-7.30668e-07
-6.7243e-06
-6.59421e-07
-7.00806e-06
-5.86583e-07
-7.25588e-06
-5.12982e-07
-7.46783e-06
-4.39169e-07
-7.64412e-06
-3.65452e-07
-7.78497e-06
-2.91939e-07
-7.89057e-06
-2.18575e-07
-7.96098e-06
-1.45178e-07
-7.99612e-06
-7.14815e-08
-7.99572e-06
2.83358e-09
-7.95931e-06
7.80976e-08
-7.88627e-06
1.54615e-07
-7.77581e-06
2.32625e-07
-7.62706e-06
3.12255e-07
-7.4391e-06
3.93479e-07
-7.2111e-06
4.76073e-07
-6.94242e-06
5.59557e-07
-6.63274e-06
6.43157e-07
-6.28225e-06
7.25749e-07
-5.89185e-06
8.05828e-07
-5.46337e-06
8.81469e-07
-4.99975e-06
9.50321e-07
-4.50534e-06
1.00962e-06
-3.98609e-06
1.05621e-06
-3.4497e-06
1.08667e-06
-2.90581e-06
1.09737e-06
-2.36601e-06
1.08467e-06
-1.84378e-06
1.04512e-06
-1.35433e-06
9.75689e-07
-9.14259e-07
8.7399e-07
-5.411e-07
7.3852e-07
-2.52759e-07
5.6884e-07
-6.68621e-08
3.65677e-07
1.3113e-07
-6.64422e-08
-6.62283e-08
-2.48358e-07
-1.8143e-07
-5.27801e-07
-2.78881e-07
-8.86881e-07
-3.58646e-07
-1.30828e-06
-4.21274e-07
-1.77563e-06
-4.67705e-07
-2.27391e-06
-4.99194e-07
-2.7896e-06
-5.1723e-07
-3.31087e-06
-5.23439e-07
-3.82761e-06
-5.19498e-07
-4.3314e-06
-5.07063e-07
-4.81541e-06
-4.87706e-07
-5.27428e-06
-4.62871e-07
-5.70393e-06
-4.33839e-07
-6.1014e-06
-4.01719e-07
-6.46463e-06
-3.67436e-07
-6.79232e-06
-3.31733e-07
-7.08371e-06
-2.95187e-07
-7.33848e-06
-2.58217e-07
-7.55654e-06
-2.21104e-07
-7.73799e-06
-1.84007e-07
-7.88294e-06
-1.46987e-07
-7.9915e-06
-1.10019e-07
-8.06366e-06
-7.30183e-08
-8.09928e-06
-3.58552e-08
-8.09807e-06
1.62536e-09
-8.05956e-06
3.95838e-08
-7.98311e-06
7.81675e-08
-7.86798e-06
1.17489e-07
-7.71333e-06
1.57607e-07
-7.51835e-06
1.985e-07
-7.28232e-06
2.40046e-07
-7.00476e-06
2.81996e-07
-6.68556e-06