/*--------------------------------*- C++ -*----------------------------------*\
  =========                 |
  \\      /  F ield         | OpenFOAM: The Open Source CFD Toolbox
   \\    /   O peration     | Website:  https://openfoam.org
    \\  /    A nd           | Version:  7
     \\/     M anipulation  |
\*---------------------------------------------------------------------------*/
FoamFile
{
    version     2.0;
    format      ascii;
    class       surfaceScalarField;
    location    "0.005";
    object      phi;
}
// * * * * * * * * * * * * * * * * * * * * * * * * * * * * * * * * * * * * * //

dimensions      [0 3 -1 0 0 0 0];

internalField   nonuniform List<scalar> 
4900
(
-5.56368e-06
5.56368e-06
-1.01604e-05
4.59668e-06
-1.29182e-05
2.75786e-06
-1.45912e-05
1.67296e-06
-1.56338e-05
1.04262e-06
-1.63046e-05
6.70743e-07
-1.67527e-05
4.48109e-07
-1.70633e-05
3.10587e-07
-1.72854e-05
2.22186e-07
-1.74487e-05
1.63221e-07
-1.75713e-05
1.22666e-07
-1.76654e-05
9.40506e-08
-1.77388e-05
7.33922e-08
-1.77969e-05
5.81411e-08
-1.78435e-05
4.66178e-08
-1.78812e-05
3.76938e-08
-1.79118e-05
3.06004e-08
-1.79366e-05
2.48084e-08
-1.79566e-05
1.99488e-08
-1.79723e-05
1.57611e-08
-1.79844e-05
1.20572e-08
-1.79931e-05
8.69781e-09
-1.79987e-05
5.576e-09
-1.80013e-05
2.60621e-09
-1.8001e-05
-2.85827e-10
-1.79978e-05
-3.16212e-09
-1.79917e-05
-6.08957e-09
-1.79826e-05
-9.13321e-09
-1.79702e-05
-1.23672e-08
-1.79544e-05
-1.58797e-08
-1.79346e-05
-1.97816e-08
-1.79104e-05
-2.42178e-08
-1.7881e-05
-2.93849e-08
-1.78454e-05
-3.55562e-08
-1.78023e-05
-4.31184e-08
-1.77497e-05
-5.26271e-08
-1.76848e-05
-6.48879e-08
-1.76037e-05
-8.10821e-08
-1.75007e-05
-1.02964e-07
-1.73675e-05
-1.33193e-07
-1.71916e-05
-1.75905e-07
-1.69539e-05
-2.37782e-07
-1.66238e-05
-3.30064e-07
-1.61513e-05
-4.72451e-07
-1.54514e-05
-6.99956e-07
-1.43789e-05
-1.07247e-06
-1.2691e-05
-1.68793e-06
-9.9643e-06
-2.72668e-06
-5.46401e-06
-4.50029e-06
-5.46401e-06
-6.32113e-10
5.56432e-06
-2.06572e-06
6.66177e-06
-4.69464e-06
5.38678e-06
-6.97519e-06
3.95351e-06
-8.74736e-06
2.81479e-06
-1.00735e-05
1.99686e-06
-1.10557e-05
1.43038e-06
-1.17849e-05
1.03974e-06
-1.23306e-05
7.67923e-07
-1.27437e-05
5.76312e-07
-1.30604e-05
4.39367e-07
-1.33065e-05
3.40085e-07
-1.35001e-05
2.67004e-07
-1.36542e-05
2.12292e-07
-1.37781e-05
1.70543e-07
-1.38784e-05
1.37995e-07
-1.39599e-05
1.12018e-07
-1.40258e-05
9.07615e-08
-1.40788e-05
7.29136e-08
-1.41206e-05
5.7534e-08
-1.41524e-05
4.3937e-08
-1.41753e-05
3.16103e-08
-1.41899e-05
2.01586e-08
-1.41966e-05
9.2633e-09
-1.41955e-05
-1.34665e-09
-1.41868e-05
-1.19146e-08
-1.41702e-05
-2.26809e-08
-1.41454e-05
-3.38942e-08
-1.4112e-05
-4.58338e-08
-1.4069e-05
-5.8832e-08
-1.40155e-05
-7.33047e-08
-1.39499e-05
-8.97925e-08
-1.38703e-05
-1.0902e-07
-1.37739e-05
-1.31977e-07
-1.36569e-05
-1.60039e-07
-1.35144e-05
-1.95136e-07
-1.33393e-05
-2.39985e-07
-1.3122e-05
-2.98439e-07
-1.2849e-05
-3.75976e-07
-1.25017e-05
-4.80438e-07
-1.20545e-05
-6.23148e-07
-1.14716e-05
-8.20644e-07
-1.07044e-05
-1.0973e-06
-9.68773e-06
-1.48909e-06
-8.33996e-06
-2.04773e-06
-6.57342e-06
-2.83902e-06
-4.34255e-06
-3.9188e-06
-1.8134e-06
-5.25583e-06
1.17371e-07
-6.43106e-06
-5.34664e-06
1.06778e-06
4.49653e-06
6.82959e-07
7.04659e-06
-6.93381e-07
6.76312e-06
-2.37334e-06
5.63348e-06
-3.97543e-06
4.41688e-06
-5.3518e-06
3.37323e-06
-6.47516e-06
2.55374e-06
-7.36934e-06
1.93393e-06
-8.07367e-06
1.47225e-06
-8.62737e-06
1.13001e-06
-9.06401e-06
8.76008e-07
-9.41045e-06
6.86523e-07
-9.68738e-06
5.43937e-07
-9.91044e-06
4.35351e-07
-1.00913e-05
3.51387e-07
-1.02385e-05
2.85261e-07
-1.03586e-05
2.32083e-07
-1.04562e-05
1.88327e-07
-1.05347e-05
1.51444e-07
-1.05968e-05
1.19578e-07
-1.06442e-05
9.1355e-08
-1.06783e-05
6.57387e-08
-1.07001e-05
4.19221e-08
-1.07101e-05
1.92511e-08
-1.07086e-05
-2.83353e-09
-1.06956e-05
-2.48375e-08
-1.06711e-05
-4.7257e-08
-1.06344e-05
-7.06075e-08
-1.05847e-05
-9.54657e-08
-1.0521e-05
-1.22514e-07
-1.04417e-05
-1.526e-07
-1.03447e-05
-1.86811e-07
-1.02272e-05
-2.26585e-07
-1.00853e-05
-2.73854e-07
-9.91407e-06
-3.31246e-07
-9.70685e-06
-4.02355e-07
-9.45474e-06
-4.92101e-07
-9.14597e-06
-6.0721e-07
-8.76512e-06
-7.56825e-07
-8.29226e-06
-9.53294e-07
-7.70228e-06
-1.21313e-06
-6.96483e-06
-1.55809e-06
-6.04618e-06
-2.01594e-06
-4.91531e-06
-2.61996e-06
-3.55928e-06
-3.40376e-06
-2.01601e-06
-4.38229e-06
-4.35859e-07
-5.49895e-06
8.16519e-07
-6.50821e-06
1.09556e-06
-6.7101e-06
-4.25108e-06
9.5766e-07
3.53887e-06
1.41845e-06
6.5858e-06
1.04546e-06
7.13611e-06
1.52435e-07
6.5265e-06
-9.45187e-07
5.5145e-06
-2.04387e-06
4.47191e-06
-3.04063e-06
3.55049e-06
-3.89825e-06
2.79155e-06
-4.61491e-06
2.18891e-06
-5.20457e-06
1.71966e-06
-5.68638e-06
1.35782e-06
-6.07941e-06
1.07956e-06
-6.40047e-06
8.64995e-07
-6.66346e-06
6.98343e-07
-6.87948e-06
5.67404e-07
-7.05717e-06
4.62948e-07
-7.20316e-06
3.78081e-07
-7.32253e-06
3.07692e-07
-7.41908e-06
2.47995e-07
-7.49568e-06
1.96181e-07
-7.55446e-06
1.50137e-07
-7.59697e-06
1.08247e-07
-7.62429e-06
6.92381e-08
-7.63711e-06
3.20703e-08
-7.63579e-06
-4.15037e-09
-7.62039e-06
-4.02377e-08
-7.59066e-06
-7.6986e-08
-7.54605e-06
-1.15222e-07
-7.48565e-06
-1.55863e-07
-7.40818e-06
-1.99987e-07
-7.31186e-06
-2.48914e-07
-7.19436e-06
-3.04317e-07
-7.05258e-06
-3.68369e-07
-6.8825e-06
-4.43933e-07
-6.67893e-06
-5.34813e-07
-6.43521e-06
-6.46073e-07
-6.14289e-06
-7.84422e-07
-5.79143e-06
-9.58672e-07
-5.36804e-06
-1.18021e-06
-4.8579e-06
-1.46344e-06
-4.24508e-06
-1.82595e-06
-3.51509e-06
-2.28809e-06
-2.66008e-06
-2.87096e-06
-1.68894e-06
-3.5911e-06
-6.44754e-07
-4.44794e-06
3.69178e-07
-5.39623e-06
1.161e-06
-6.29077e-06
1.44327e-06
-6.79048e-06
9.39203e-07
-6.20603e-06
-3.31188e-06
7.33133e-07
2.80574e-06
1.4635e-06
5.85543e-06
1.68339e-06
6.91622e-06
1.4195e-06
6.7904e-06
8.44395e-07
6.08961e-06
1.25381e-07
5.19093e-06
-6.19849e-07
4.29572e-06
-1.32342e-06
3.49513e-06
-1.95356e-06
2.81905e-06
-2.50057e-06
2.26667e-06
-2.96685e-06
1.8241e-06
-3.36021e-06
1.47291e-06
-3.69026e-06
1.19505e-06
-3.96645e-06
9.74533e-07
-4.19719e-06
7.98144e-07
-4.38956e-06
6.55323e-07
-4.54934e-06
5.3786e-07
-4.68111e-06
4.39463e-07
-4.78847e-06
3.55355e-07
-4.87419e-06
2.81903e-07
-4.94038e-06
2.16328e-07
-4.9886e-06
1.56466e-07
-5.01996e-06
1.00594e-07
-5.03518e-06
4.72868e-08
-5.03464e-06
-4.68871e-09
-5.01841e-06
-5.64604e-08
-4.98627e-06
-1.09127e-07
-4.93767e-06
-1.63829e-07
-4.87171e-06
-2.21821e-07
-4.78713e-06
-2.84561e-07
-4.68224e-06
-3.53811e-07
-4.55479e-06
-4.31765e-07
-4.40194e-06
-5.21221e-07
-4.22009e-06
-6.25783e-07
-4.00478e-06
-7.50117e-07
-3.7506e-06
-9.00252e-07
-3.45113e-06
-1.08389e-06
-3.09909e-06
-1.31072e-06
-2.68678e-06
-1.59252e-06
-2.20714e-06
-1.94308e-06
-1.65573e-06
-2.37735e-06
-1.03436e-06
-2.90946e-06
-3.5688e-07
-3.54844e-06
3.41962e-07
-4.28994e-06
9.95083e-07
-5.10106e-06
1.4927e-06
-5.89384e-06
1.68509e-06
-6.48316e-06
1.42404e-06
-6.52943e-06
7.00165e-07
-5.48216e-06
-2.61171e-06
5.43402e-07
2.26234e-06
1.30195e-06
5.09688e-06
1.81334e-06
6.40483e-06
1.96306e-06
6.64067e-06
1.80454e-06
6.24813e-06
1.44185e-06
5.55362e-06
9.7268e-07
4.76489e-06
4.69015e-07
3.99879e-06
-2.35678e-08
3.31163e-06
-4.80232e-07
2.72334e-06
-8.89656e-07
2.23352e-06
-1.24915e-06
1.83241e-06
-1.56059e-06
1.50649e-06
-1.828e-06
1.24194e-06
-2.05606e-06
1.02621e-06
-2.24941e-06
8.48667e-07
-2.41217e-06
7.00626e-07
-2.54791e-06
5.75196e-07
-2.65953e-06
4.66979e-07
-2.7494e-06
3.71771e-07
-2.81935e-06
2.86284e-07
-2.8708e-06
2.07913e-07
-2.90476e-06
1.3455e-07
-2.9219e-06
6.44315e-08
-2.92261e-06
-3.98069e-09
-2.90697e-06
-7.21011e-08
-2.87479e-06
-1.41306e-07
-2.8256e-06
-2.13018e-07
-2.75864e-06
-2.88786e-07
-2.67281e-06
-3.70387e-07
-2.56668e-06
-4.59938e-07
-2.43842e-06
-5.60024e-07
-2.28577e-06
-6.73871e-07
-2.10602e-06
-8.05535e-07
-1.89601e-06
-9.60126e-07
-1.65224e-06
-1.14403e-06
-1.37106e-06
-1.36508e-06
-1.04916e-06
-1.63262e-06
-6.8439e-07
-1.95729e-06
-2.77209e-07
-2.35026e-06
1.67073e-07
-2.82163e-06
6.34926e-07
-3.37731e-06
1.10007e-06
-4.01358e-06
1.51822e-06
-4.70809e-06
1.82297e-06
-5.40581e-06
1.92783e-06
-5.9987e-06
1.74453e-06
-6.29987e-06
1.23374e-06
-6.01863e-06
5.092e-07
-4.75762e-06
-2.10252e-06
4.06548e-07
1.85579e-06
1.10254e-06
4.40089e-06
1.72215e-06
5.78522e-06
2.10568e-06
6.25714e-06
2.23311e-06
6.1207e-06
2.15162e-06
5.63511e-06
1.92745e-06
4.98906e-06
1.62131e-06
4.30493e-06
1.27964e-06
3.65331e-06
9.34025e-07
3.06895e-06
6.03718e-07
2.56383e-06
2.99199e-07
2.13693e-06
2.5091e-08
1.7806e-06
-2.17545e-07
1.48457e-06
-4.29625e-07
1.23829e-06
-6.13016e-07
1.03206e-06
-7.69922e-07
8.57531e-07
-9.02525e-07
7.07799e-07
-1.01282e-06
5.77269e-07
-1.1025e-06
4.61459e-07
-1.173e-06
3.56781e-07
-1.22543e-06
2.60337e-07
-1.26061e-06
1.69738e-07
-1.27914e-06
8.29607e-08
-1.28135e-06
-1.77645e-09
-1.26733e-06
-8.61218e-08
-1.23696e-06
-1.71675e-07
-1.18989e-06
-2.60089e-07
-1.12554e-06
-3.53128e-07
-1.04312e-06
-4.52809e-07
-9.4158e-07
-5.61479e-07
-8.19654e-07
-6.81951e-07
-6.7587e-07
-8.17654e-07
-5.08616e-07
-9.72789e-07
-3.16257e-07
-1.15249e-06
-9.73601e-08
-1.36292e-06
1.48911e-07
-1.61135e-06
4.22182e-07
-1.90589e-06
7.19885e-07
-2.25499e-06
1.03585e-06
-2.66623e-06
1.35838e-06
-3.14416e-06
1.6678e-06
-3.68673e-06
1.93394e-06
-4.27972e-06
2.11442e-06
-4.88857e-06
2.15595e-06
-5.44734e-06
2.00274e-06
-5.84549e-06
1.61813e-06
-5.91526e-06
1.02629e-06
-5.42679e-06
3.75817e-07
-4.10714e-06
-1.7267e-06
3.10576e-07
1.54521e-06
9.1625e-07
3.79522e-06
1.54359e-06
5.15788e-06
2.03507e-06
5.76566e-06
2.33473e-06
5.82105e-06
2.44971e-06
5.52012e-06
2.41662e-06
5.02215e-06
2.27943e-06
4.44212e-06
2.07801e-06
3.85473e-06
1.84376e-06
3.30319e-06
1.59915e-06
2.80844e-06
1.35904e-06
2.37705e-06
1.13248e-06
2.00716e-06
9.24463e-07
1.69258e-06
7.37306e-07
1.42545e-06
5.71656e-07
1.19771e-06
4.27223e-07
1.00196e-06
3.0324e-07
8.31783e-07
1.9875e-07
6.81759e-07
1.12784e-07
5.47425e-07
4.44553e-08
4.2511e-07
-6.98954e-09
3.11782e-07
-4.21481e-08
2.04897e-07
-6.14534e-08
1.02266e-07
-6.51722e-08
1.94232e-09
-5.3409e-08
-9.7885e-08
-2.61094e-08
-1.98974e-07
1.69175e-08
-3.03116e-07
7.60354e-08
-4.12246e-07
1.51719e-07
-5.28493e-07
2.44551e-07
-6.54311e-07
3.55177e-07
-7.92577e-07
4.84232e-07
-9.4671e-07
6.32221e-07
-1.12078e-06
7.99324e-07
-1.31959e-06
9.85092e-07
-1.54869e-06
1.188e-06
-1.81426e-06
1.4048e-06
-2.12268e-06
1.6296e-06
-2.4798e-06
1.85278e-06
-2.8894e-06
2.05956e-06
-3.35094e-06
2.22877e-06
-3.85594e-06
2.33203e-06
-4.38298e-06
2.33461e-06
-4.89115e-06
2.19964e-06
-5.31238e-06
1.89817e-06
-5.54402e-06
1.42799e-06
-5.44508e-06
8.4248e-07
-4.84128e-06
2.84352e-07
-3.54901e-06
-1.44235e-06
2.4147e-07
1.30374e-06
7.54614e-07
3.28207e-06
1.33947e-06
4.57302e-06
1.8592e-06
5.24593e-06
2.24579e-06
5.43446e-06
2.4827e-06
5.28321e-06
2.5839e-06
4.92096e-06
2.57702e-06
4.44899e-06
2.49248e-06
3.93928e-06
2.35761e-06
3.43807e-06
2.19438e-06
2.97167e-06
2.01913e-06
2.55229e-06
1.84329e-06
2.18301e-06
1.67435e-06
1.86153e-06
1.51696e-06
1.58283e-06
1.3738e-06
1.34087e-06
1.2462e-06
1.12957e-06
1.13467e-06
9.43314e-07
1.03924e-06
7.77187e-07
9.59682e-07
6.2698e-07
8.95658e-07
4.89134e-07
8.46801e-07
3.60638e-07
8.12782e-07
2.38916e-07
7.93334e-07
1.21713e-07
7.88273e-07
7.00313e-09
7.97499e-07
-1.0711e-07
8.20994e-07
-2.2247e-07
8.58825e-07
-3.40947e-07
9.11103e-07
-4.64525e-07
9.7798e-07
-5.95369e-07
1.05959e-06
-7.3592e-07
1.15599e-06
-8.88973e-07
1.26703e-06
-1.05776e-06
1.39226e-06
-1.24601e-06
1.53063e-06
-1.45796e-06
1.68022e-06
-1.69828e-06
1.83777e-06
-1.97181e-06
1.99815e-06
-2.28306e-06
2.15361e-06
-2.63526e-06
2.29304e-06
-3.02883e-06
2.40121e-06
-3.45911e-06
2.45841e-06
-3.91314e-06
2.44096e-06
-4.36553e-06
2.32342e-06
-4.77362e-06
2.0837e-06
-5.07266e-06
1.71232e-06
-5.17263e-06
1.22653e-06
-4.95929e-06
6.88221e-07
-4.30297e-06
2.19665e-07
-3.08046e-06
-1.22268e-06
1.89882e-07
1.11386e-06
6.17885e-07
2.85407e-06
1.1386e-06
4.0523e-06
1.64016e-06
4.74437e-06
2.05556e-06
5.01905e-06
2.35669e-06
4.98208e-06
2.5425e-06
4.73515e-06
2.62739e-06
4.36411e-06
2.63226e-06
3.93441e-06
2.57876e-06
3.49156e-06
2.48622e-06
3.06421e-06
2.37038e-06
2.66813e-06
2.24326e-06
2.31012e-06
2.1136e-06
1.99119e-06
1.98745e-06
1.70898e-06
1.86886e-06
1.45947e-06
1.76038e-06
1.23805e-06
1.66357e-06
1.04013e-06
1.57929e-06
8.61465e-07
1.50797e-06
6.98292e-07
1.44979e-06
5.47318e-07
1.40475e-06
4.05682e-07
1.37278e-06
2.70883e-07
1.35379e-06
1.40699e-07
1.3477e-06
1.31018e-08
1.3544e-06
-1.13814e-07
1.37383e-06
-2.41903e-07
1.40593e-06
-3.73041e-07
1.45059e-06
-5.09187e-07
1.50767e-06
-6.52453e-07
1.57692e-06
-8.05165e-07
1.65787e-06
-9.69922e-07
1.74976e-06
-1.14965e-06
1.85134e-06
-1.34759e-06
1.96068e-06
-1.56729e-06
2.07483e-06
-1.81243e-06
2.18949e-06
-2.08647e-06
2.29855e-06
-2.39212e-06
2.39361e-06
-2.73032e-06
2.46354e-06
-3.09876e-06
2.49429e-06
-3.48986e-06
2.46917e-06
-3.88802e-06
2.37006e-06
-4.26642e-06
2.18012e-06
-4.58368e-06
1.88866e-06
-4.78119e-06
1.49855e-06
-4.78253e-06
1.03601e-06
-4.49675e-06
5.60777e-07
-3.82774e-06
1.72102e-07
-2.69178e-06
-1.05058e-06
1.50295e-07
9.63564e-07
5.03679e-07
2.50069e-06
9.54252e-07
3.60173e-06
1.41343e-06
4.2852e-06
1.82124e-06
4.61124e-06
2.14579e-06
4.65753e-06
2.3773e-06
4.50364e-06
2.52062e-06
4.22079e-06
2.58858e-06
3.86645e-06
2.59703e-06
3.48311e-06
2.5617e-06
3.09953e-06
2.49651e-06
2.73332e-06
2.41289e-06
2.39374e-06
2.31975e-06
2.08433e-06
2.22374e-06
1.80498e-06
2.12967e-06
1.55354e-06
2.0409e-06
1.32682e-06
1.95971e-06
1.12132e-06
1.88761e-06
9.33563e-07
1.82557e-06
7.60332e-07
1.77418e-06
5.98708e-07
1.73378e-06
4.46082e-07
1.70454e-06
3.00118e-07
1.68654e-06
1.587e-07
1.67977e-06
1.98752e-08
1.68416e-06
-1.18206e-07
1.69961e-06
-2.57347e-07
1.72593e-06
-3.9936e-07
1.76286e-06
-5.46119e-07
1.81001e-06
-6.99606e-07
1.86681e-06
-8.61961e-07
1.9324e-06
-1.03551e-06
2.00554e-06
-1.22279e-06
2.08447e-06
-1.42651e-06
2.16664e-06
-1.64947e-06
2.24855e-06
-1.89434e-06
2.32543e-06
-2.16335e-06
2.39089e-06
-2.45759e-06
2.43674e-06
-2.77617e-06
2.45278e-06
-3.1148e-06
2.42699e-06
-3.46406e-06
2.34615e-06
-3.80718e-06
2.1974e-06
-4.11766e-06
1.97083e-06
-4.35711e-06
1.66363e-06
-4.474e-06
1.28561e-06
-4.40451e-06
8.65466e-07
-4.0766e-06
4.56141e-07
-3.41841e-06
1.36053e-07
-2.37169e-06
-9.14526e-07
1.19431e-07
8.44132e-07
4.09245e-07
2.21087e-06
7.91934e-07
3.21904e-06
1.19855e-06
3.87859e-06
1.57815e-06
4.23164e-06
1.89953e-06
4.33614e-06
2.14865e-06
4.25452e-06
2.32415e-06
4.04529e-06
2.43268e-06
3.75792e-06
2.485e-06
3.4308e-06
2.49312e-06
3.09141e-06
2.4686e-06
2.75784e-06
2.42156e-06
2.44077e-06
2.3604e-06
2.1455e-06
2.29172e-06
1.87366e-06
2.22059e-06
1.62467e-06
2.15078e-06
1.39663e-06
2.08501e-06
1.18708e-06
2.02524e-06
9.93339e-07
1.9728e-06
8.12767e-07
1.92863e-06
6.42881e-07
1.89332e-06
4.81389e-07
1.86726e-06
3.26182e-07
1.85064e-06
1.75314e-07
1.84356e-06
2.69638e-08
1.84596e-06
-1.20609e-07
1.85771e-06
-2.69101e-07
1.87856e-06
-4.20211e-07
1.90812e-06
-5.75672e-07
1.9458e-06
-7.37292e-07
1.99081e-06
-9.06972e-07
2.04203e-06
-1.08673e-06
2.0979e-06
-1.27866e-06
2.15632e-06
-1.48494e-06
2.21449e-06
-1.70763e-06
2.26867e-06
-1.94852e-06
2.31404e-06
-2.20871e-06
2.34448e-06
-2.48804e-06
2.35253e-06
-2.78421e-06
2.32937e-06
-3.09164e-06
2.26526e-06
-3.39995e-06
2.15033e-06
-3.69226e-06
1.97609e-06
-3.94343e-06
1.73777e-06
-4.11878e-06
1.4375e-06
-4.17374e-06
1.08828e-06
-4.05528e-06
7.17724e-07
-3.70605e-06
3.70664e-07
-3.07135e-06
1.0821e-07
-2.10924e-06
-8.06316e-07
9.52025e-08
7.4893e-07
3.31895e-07
1.97418e-06
6.52968e-07
2.89797e-06
1.00521e-06
3.52635e-06
1.34666e-06
3.89019e-06
1.64903e-06
4.03377e-06
1.89693e-06
4.00662e-06
2.08537e-06
3.85685e-06
2.21666e-06
3.62663e-06
2.29746e-06
3.35e-06
2.33646e-06
3.05241e-06
2.34277e-06
2.75153e-06
2.32492e-06
2.45863e-06
2.29034e-06
2.18008e-06
2.2452e-06
1.9188e-06
2.19446e-06
1.67541e-06
2.14195e-06
1.44914e-06
2.09061e-06
1.23843e-06
2.0426e-06
1.04134e-06
1.99954e-06
8.55831e-07
1.96256e-06
6.79862e-07
1.93246e-06
5.1149e-07
1.90976e-06
3.48874e-07
1.8948e-06
1.90279e-07
1.88771e-06
3.40559e-08
1.88848e-06
-1.21383e-07
1.89697e-06
-2.77589e-07
1.91287e-06
-4.36108e-07
1.93569e-06
-5.985e-07
1.96476e-06
-7.66361e-07
1.99912e-06
-9.41331e-07
2.03749e-06
-1.12509e-06
2.07815e-06
-1.31933e-06
2.11887e-06
-1.52567e-06
2.15678e-06
-1.74554e-06
2.18819e-06
-1.97993e-06
2.20853e-06
-2.22906e-06
2.21227e-06
-2.49177e-06
2.1929e-06
-2.76484e-06
2.14316e-06
-3.0419e-06
2.05549e-06
-3.31229e-06
1.92289e-06
-3.55966e-06
1.74026e-06
-3.7608e-06
1.50632e-06
-3.88483e-06
1.22599e-06
-3.89341e-06
9.13093e-07
-3.74238e-06
5.92517e-07
-3.38547e-06
3.01197e-07
-2.78003e-06
8.64883e-08
-1.89453e-06
-7.19828e-07
7.61404e-08
6.7279e-07
2.69048e-07
1.78127e-06
5.36297e-07
2.63072e-06
8.36943e-07
3.2257e-06
1.13707e-06
3.59006e-06
1.41215e-06
3.7587e-06
1.64715e-06
3.77162e-06
1.8353e-06
3.66869e-06
1.97608e-06
3.48586e-06
2.0731e-06
3.25298e-06
2.1323e-06
2.99321e-06
2.16056e-06
2.72326e-06
2.16477e-06
2.45442e-06
2.15125e-06
2.1936e-06
2.12548e-06
1.94457e-06
2.09203e-06
1.70886e-06
2.05462e-06
1.48656e-06
2.01614e-06
1.2769e-06
1.97888e-06
1.07861e-06
1.94452e-06
8.90183e-07
1.91436e-06
7.10027e-07
1.8893e-06
5.3655e-07
1.86998e-06
3.68197e-07
1.85679e-06
2.03468e-07
1.84993e-06
4.09112e-08
1.84943e-06
-1.20881e-07
1.85513e-06
-2.83289e-07
1.8667e-06
-4.4768e-07
1.88362e-06
-6.15419e-07
1.90513e-06
-7.87875e-07
1.93022e-06
-9.66418e-07
1.95753e-06
-1.1524e-06
1.98532e-06
-1.34711e-06
2.01136e-06
-1.5517e-06
2.03285e-06
-1.76703e-06
2.04636e-06
-1.99345e-06
2.04776e-06
-2.23046e-06
2.03221e-06
-2.47622e-06
1.99427e-06
-2.7269e-06
1.92816e-06
-2.97579e-06
1.82823e-06
-3.21236e-06
1.68977e-06
-3.4212e-06
1.51014e-06
-3.58116e-06
1.29025e-06
-3.66495e-06
1.03635e-06
-3.63952e-06
7.61737e-07
-3.46776e-06
4.87957e-07
-3.11169e-06
2.44976e-07
-2.53705e-06
6.9448e-08
-1.719e-06
-6.5038e-07
6.11213e-08
6.11668e-07
2.18254e-07
1.62414e-06
4.39581e-07
2.40939e-06
6.93584e-07
2.9717e-06
9.53147e-07
3.33049e-06
1.19758e-06
3.51427e-06
1.41313e-06
3.55606e-06
1.59246e-06
3.48936e-06
1.73335e-06
3.34496e-06
1.8373e-06
3.14904e-06
1.9081e-06
2.9224e-06
1.95077e-06
2.6806e-06
1.97066e-06
2.43453e-06
1.97296e-06
2.19129e-06
1.96239e-06
1.95514e-06
1.943e-06
1.72824e-06
1.9182e-06
1.51136e-06
1.89076e-06
1.30434e-06
1.86289e-06
1.10648e-06
1.83631e-06
9.16763e-07
1.81234e-06
7.34002e-07
1.79194e-06
5.56945e-07
1.77582e-06
3.84323e-07
1.76441e-06
2.14877e-07
1.75795e-06
4.7368e-08
1.75649e-06
-1.19419e-07
1.75988e-06
-2.86678e-07
1.76779e-06
-4.55588e-07
1.77968e-06
-6.27308e-07
1.79478e-06
-8.02978e-07
1.81207e-06
-9.83705e-07
1.8302e-06
-1.17053e-06
1.84747e-06
-1.36439e-06
1.86178e-06
-1.56601e-06
1.87052e-06
-1.77577e-06
1.87061e-06
-1.99354e-06
1.85843e-06
-2.21827e-06
1.82988e-06
-2.44768e-06
1.78055e-06
-2.67757e-06
1.70596e-06
-2.9012e-06
1.60204e-06
-3.10844e-06
1.46581e-06
-3.28497e-06
1.2963e-06
-3.41165e-06
1.0957e-06
-3.46435e-06
8.70611e-07
-3.41442e-06
6.33102e-07
-3.23025e-06
4.01386e-07
-2.87998e-06
1.9955e-07
-2.33522e-06
5.60152e-08
-1.57547e-06
-5.94365e-07
4.92444e-08
5.62424e-07
1.77249e-07
1.49613e-06
3.59911e-07
2.22673e-06
5.72902e-07
2.75871e-06
7.94676e-07
3.10872e-06
1.0081e-06
3.30084e-06
1.20111e-06
3.36305e-06
1.3665e-06
3.32398e-06
1.50121e-06
3.21026e-06
1.60532e-06
3.04492e-06
1.68109e-06
2.84664e-06
1.732e-06
2.62969e-06
1.76212e-06
2.4044e-06
1.7756e-06
2.17781e-06
1.77635e-06
1.95439e-06
1.76786e-06
1.73673e-06
1.75318e-06
1.52605e-06
1.73481e-06
1.3227e-06
1.71485e-06
1.12645e-06
1.69494e-06
9.36675e-07
1.67637e-06
7.52569e-07
1.66013e-06
5.7319e-07
1.64691e-06
3.9754e-07
1.63719e-06
2.24598e-07
1.63122e-06
5.33367e-08
1.62906e-06
-1.17264e-07
1.63059e-06
-2.88208e-07
1.63549e-06
-4.60482e-07
1.64322e-06
-6.35043e-07
1.65306e-06
-8.1281e-07
1.66399e-06
-9.94641e-07
1.67476e-06
-1.1813e-06
1.68377e-06
-1.3734e-06
1.68908e-06
-1.57132e-06
1.68838e-06
-1.77507e-06
1.67895e-06
-1.98411e-06
1.65772e-06
-2.19704e-06
1.62131e-06
-2.41127e-06
1.56621e-06
-2.62247e-06
1.48905e-06
-2.82404e-06
1.38698e-06
-3.00637e-06
1.25828e-06
-3.15626e-06
1.10304e-06
-3.25642e-06
9.24085e-07
-3.2854e-06
7.27756e-07
-3.2181e-06
5.24654e-07
-3.02715e-06
3.29904e-07
-2.68523e-06
1.62766e-07
-2.16808e-06
4.53528e-08
-1.45806e-06
-5.49012e-07
3.97804e-08
5.22644e-07
1.44024e-07
1.39189e-06
2.94291e-07
2.07646e-06
4.71739e-07
2.58126e-06
6.5931e-07
2.92115e-06
8.4301e-07
3.11714e-06
1.01252e-06
3.19354e-06
1.1612e-06
3.17529e-06
1.2857e-06
3.08576e-06
1.38526e-06
2.94536e-06
1.46103e-06
2.77087e-06
1.51534e-06
2.57538e-06
1.55121e-06
2.36853e-06
1.57187e-06
2.15716e-06
1.58049e-06
1.94578e-06
1.58001e-06
1.7372e-06
1.57305e-06
1.53301e-06
1.56184e-06
1.33391e-06
1.54827e-06
1.14002e-06
1.53387e-06
9.51076e-07
1.51986e-06
7.66584e-07
1.50717e-06
5.85881e-07
1.49649e-06
4.08217e-07
1.48829e-06
2.32794e-07
1.48284e-06
5.87875e-08
1.48021e-06
-1.14631e-07
1.48029e-06
-2.88283e-07
1.48277e-06
-4.62968e-07
1.48718e-06
-6.39452e-07
1.49282e-06
-8.18446e-07
1.49876e-06
-1.00058e-06
1.50384e-06
-1.18638e-06
1.50663e-06
-1.37619e-06
1.5054e-06
-1.57009e-06
1.49812e-06
-1.7678e-06
1.48249e-06
-1.96848e-06
1.45594e-06
-2.17049e-06
1.41574e-06
-2.37107e-06
1.35918e-06
-2.56591e-06
1.28374e-06
-2.7486e-06
1.18751e-06
-2.91015e-06
1.06964e-06
-3.03838e-06
9.30842e-07
-3.11763e-06
7.74112e-07
-3.12867e-06
6.05248e-07
-3.04923e-06
4.3331e-07
-2.85521e-06
2.70705e-07
-2.52262e-06
1.32781e-07
-2.03015e-06
3.67996e-08
-1.36208e-06
-5.12212e-07
3.21449e-08
4.90499e-07
1.16861e-07
1.30717e-06
2.39928e-07
1.9534e-06
3.86714e-07
2.43448e-06
5.43759e-07
2.7641e-06
6.99749e-07
2.96115e-06
8.46043e-07
3.04725e-06
9.76782e-07
3.04455e-06
1.08865e-06
2.97389e-06
1.18047e-06
2.85355e-06
1.25263e-06
2.69871e-06
1.30664e-06
2.52136e-06
1.34468e-06
2.3305e-06
1.3692e-06
2.13264e-06
1.38273e-06
1.93224e-06
1.3877e-06
1.73224e-06
1.38629e-06
1.53442e-06
1.38045e-06
1.33975e-06
1.37183e-06
1.14864e-06
1.36179e-06
9.6111e-07
1.35146e-06
7.76915e-07
1.3417e-06
5.95639e-07
1.33317e-06
4.16756e-07
1.32629e-06
2.39666e-07
1.32135e-06
6.37352e-08
1.3184e-06
-1.11689e-07
1.31738e-06
-2.87256e-07
1.318e-06
-4.63593e-07
1.31984e-06
-6.41288e-07
1.32226e-06
-8.20866e-07
1.32444e-06
-1.00276e-06
1.32534e-06
-1.18728e-06
1.3237e-06
-1.37455e-06
1.31803e-06
-1.56442e-06
1.30661e-06
-1.75638e-06
1.28751e-06
-1.94937e-06
1.25864e-06
-2.14162e-06
1.21784e-06
-2.33027e-06
1.16301e-06
-2.51108e-06
1.09235e-06
-2.67794e-06
1.00462e-06
-2.82242e-06
8.99513e-07
-2.93327e-06
7.7808e-07
-2.99619e-06
6.43196e-07
-2.99378e-06
4.99962e-07
-2.906e-06
3.55963e-07
-2.71121e-06
2.21266e-07
-2.38793e-06
1.08057e-07
-1.91694e-06
2.9836e-08
-1.28385e-06
-4.82376e-07
2.5878e-08
4.64621e-07
9.4341e-08
1.23871e-06
1.94381e-07
1.85336e-06
3.14637e-07
2.31422e-06
4.44539e-07
2.6342e-06
5.75038e-07
2.83065e-06
6.99033e-07
2.92325e-06
8.1151e-07
2.93208e-06
9.0942e-07
2.87598e-06
9.91399e-07
2.77157e-06
1.0574e-06
2.63271e-06
1.10835e-06
2.47042e-06
1.14575e-06
2.2931e-06
1.17146e-06
2.10693e-06
1.18745e-06
1.91625e-06
1.19566e-06
1.72402e-06
1.19791e-06
1.53217e-06
1.19582e-06
1.34184e-06
1.19081e-06
1.15365e-06
1.18408e-06
9.67843e-07
1.1766e-06
7.84389e-07
1.16917e-06
6.03075e-07
1.16236e-06
4.23565e-07
1.15659e-06
2.45437e-07
1.1521e-06
6.82249e-08
1.14897e-06
-1.08566e-07
1.14714e-06
-2.85427e-07
1.14639e-06
-4.62834e-07
1.14631e-06
-6.41215e-07
1.14638e-06
-8.20933e-07
1.14587e-06
-1.00225e-06
1.1439e-06
-1.18531e-06
1.13938e-06
-1.37003e-06
1.13105e-06
-1.5561e-06
1.1175e-06
-1.74282e-06
1.09715e-06
-1.92902e-06
1.06832e-06
-2.11279e-06
1.02933e-06
-2.29128e-06
9.78608e-07
-2.46036e-06
9.1487e-07
-2.61421e-06
8.37344e-07
-2.74489e-06
7.46059e-07
-2.84199e-06
6.42171e-07
-2.89231e-06
5.28287e-07
-2.8799e-06
4.08742e-07
-2.78645e-06
2.89765e-07
-2.59224e-06
1.79429e-07
-2.27759e-06
8.73463e-08
-1.82486e-06
2.40585e-08
-1.22057e-06
-4.58318e-07
2.06241e-08
4.43997e-07
7.53252e-08
1.18401e-06
1.55606e-07
1.77308e-06
2.52699e-07
2.21713e-06
3.58377e-07
2.52852e-06
4.65501e-07
2.72353e-06
5.68352e-07
2.8204e-06
6.62763e-07
2.83767e-06
7.46063e-07
2.79268e-06
8.169e-07
2.70073e-06
8.74984e-07
2.57462e-06
9.20819e-07
2.42458e-06
9.55447e-07
2.25847e-06
9.8023e-07
2.08214e-06
9.96676e-07
1.8998e-06
1.00631e-06
1.71439e-06
1.0106e-06
1.52788e-06
1.01086e-06
1.34157e-06
1.0083e-06
1.15622e-06
1.0039e-06
9.72235e-07
9.9853e-07
7.89763e-07
9.9285e-07
6.08755e-07
9.8738e-07
4.29034e-07
9.82487e-07
2.50331e-07
9.78392e-07
7.23202e-08
9.75178e-07
-1.05352e-07
9.72795e-07
-2.83044e-07
9.71057e-07
-4.61096e-07
9.69645e-07
-6.39802e-07
9.68101e-07
-8.19389e-07
9.65824e-07
-9.99978e-07
9.62072e-07
-1.18156e-06
9.55957e-07
-1.36391e-06
9.46449e-07
-1.54659e-06
9.32396e-07
-1.72877e-06
9.12543e-07
-1.90917e-06
8.85587e-07
-2.08583e-06
8.50242e-07
-2.25594e-06
8.05343e-07
-2.41546e-06
7.49993e-07
-2.55886e-06
6.83736e-07
-2.67863e-06
6.06782e-07
-2.76503e-06
5.20239e-07
-2.80576e-06
4.26349e-07
-2.78601e-06
3.28688e-07
-2.68879e-06
2.32251e-07
-2.4958e-06
1.43409e-07
-2.18875e-06
6.96555e-08
-1.75111e-06
1.91573e-08
-1.17007e-06
-4.3916e-07
1.61116e-08
4.27885e-07
5.89157e-08
1.14121e-06
1.21944e-07
1.71005e-06
1.9853e-07
2.14054e-06
2.82386e-07
2.44467e-06
3.67995e-07
2.63792e-06
4.50866e-07
2.73753e-06
5.27648e-07
2.76088e-06
5.96109e-07
2.72421e-06
6.55021e-07
2.64182e-06
7.03988e-07
2.52566e-06
7.43252e-07
2.38532e-06
7.73506e-07
2.22822e-06
7.95729e-07
2.05992e-06
8.11046e-07
1.88449e-06
8.20626e-07
1.70481e-06
8.25611e-07
1.5229e-06
8.27063e-07
1.34012e-06
8.25935e-07
1.15735e-06
8.23054e-07
9.75117e-07
8.19116e-07
7.93701e-07
8.14686e-07
6.13185e-07
8.10202e-07
4.33518e-07
8.05976e-07
2.54557e-07
8.02204e-07
7.6093e-08
7.98964e-07
-1.02112e-07
7.96224e-07
-2.80305e-07
7.93841e-07
-4.58713e-07
7.91561e-07
-6.37523e-07
7.89018e-07
-8.16845e-07
7.8573e-07
-9.96691e-07
7.81106e-07
-1.17693e-06
7.7444e-07
-1.35725e-06
7.64923e-07
-1.53707e-06
7.51655e-07
-1.7155e-06
7.33673e-07
-1.89118e-06
7.09986e-07
-2.06214e-06
6.79637e-07
-2.22559e-06
6.41785e-07
-2.37761e-06
5.95816e-07
-2.51289e-06
5.41477e-07
-2.62429e-06
4.79037e-07
-2.70259e-06
4.09466e-07
-2.73619e-06
3.34598e-07
-2.71114e-06
2.57262e-07
-2.61146e-06
1.8135e-07
-2.41989e-06
1.11757e-07
-2.11916e-06
5.42027e-08
-1.69355e-06
1.48961e-08
-1.13076e-06
-4.24264e-07
1.21337e-08
4.15751e-07
4.44105e-08
1.10893e-06
9.2061e-08
1.6624e-06
1.50176e-07
2.08243e-06
2.14107e-07
2.38074e-06
2.79739e-07
2.57229e-06
3.43678e-07
2.67359e-06
4.03343e-07
2.70122e-06
4.56963e-07
2.67059e-06
5.03506e-07
2.59528e-06
5.42567e-07
2.4866e-06
5.74231e-07
2.35365e-06
5.98939e-07
2.20351e-06
6.17371e-07
2.04149e-06
6.30336e-07
1.87152e-06
6.38699e-07
1.69644e-06
6.43319e-07
1.51828e-06
6.45005e-07
1.33843e-06
6.44495e-07
1.15786e-06
6.42434e-07
9.77177e-07
6.39373e-07
7.96761e-07
6.35764e-07
6.16794e-07
6.31957e-07
4.37325e-07
6.2821e-07
2.58304e-07
6.24686e-07
7.9617e-08
6.21458e-07
-9.88842e-08
6.18512e-07
-2.77359e-07
6.15746e-07
-4.55947e-07
6.12972e-07
-6.34749e-07
6.09917e-07
-8.13789e-07
6.06219e-07
-9.92993e-07
6.01434e-07
-1.17215e-06
5.95035e-07
-1.35085e-06
5.86421e-07
-1.52846e-06
5.74926e-07
-1.70401e-06
5.59844e-07
-1.8761e-06
5.4046e-07
-2.04276e-06
5.16089e-07
-2.20122e-06
4.86145e-07
-2.34767e-06
4.50217e-07
-2.47696e-06
4.08172e-07
-2.58225e-06
3.60263e-07
-2.65468e-06
3.07262e-07
-2.68319e-06
2.50568e-07
-2.65445e-06
1.92303e-07
-2.55319e-06
1.35349e-07
-2.36293e-06
8.33082e-08
-2.06712e-06
4.03737e-08
-1.65062e-06
1.10941e-08
-1.10148e-06
-4.1317e-07
8.53171e-09
4.0722e-07
3.1258e-08
1.0862e-06
6.4888e-08
1.62877e-06
1.06034e-07
2.04128e-06
1.51473e-07
2.3353e-06
1.98328e-07
2.52543e-06
2.44198e-07
2.62772e-06
2.87228e-07
2.65819e-06
3.26112e-07
2.63171e-06
3.60057e-07
2.56133e-06
3.8871e-07
2.45794e-06
4.1207e-07
2.33029e-06
4.30402e-07
2.18518e-06
4.44146e-07
2.02775e-06
4.53854e-07
1.86181e-06
4.60124e-07
1.69017e-06
4.63562e-07
1.51484e-06
4.64746e-07
1.33725e-06
4.64208e-07
1.15839e-06
4.62422e-07
9.78964e-07
4.59791e-07
7.99392e-07
4.56651e-07
6.19934e-07
4.53268e-07
4.40707e-07
4.49839e-07
2.61733e-07
4.46493e-07
8.29628e-08
4.43296e-07
-9.56867e-08
4.40248e-07
-2.74311e-07
4.3729e-07
-4.52989e-07
4.343e-07
-6.31759e-07
4.31096e-07
-8.10585e-07
4.27437e-07
-9.89334e-07
4.23022e-07
-1.16773e-06
4.17496e-07
-1.34532e-06
4.10454e-07
-1.52142e-06
4.0145e-07
-1.695e-06
3.90013e-07
-1.86466e-06
3.75665e-07
-2.02841e-06
3.57956e-07
-2.18351e-06
3.36504e-07
-2.32622e-06
3.11046e-07
-2.4515e-06
2.81508e-07
-2.55271e-06
2.48079e-07
-2.62126e-06
2.11294e-07
-2.6464e-06
1.7211e-07
-2.61526e-06
1.3197e-07
-2.51305e-06
9.28248e-08
-2.32379e-06
5.71148e-08
-2.03141e-06
2.76801e-08
-1.62118e-06
7.61047e-09
-1.08141e-06
-4.0556e-07
5.18064e-09
4.02039e-07
1.90164e-08
1.07237e-06
3.95535e-08
1.60823e-06
6.47717e-08
2.01606e-06
9.27309e-08
2.30734e-06
1.21679e-07
2.49648e-06
1.50132e-07
2.59927e-06
1.76921e-07
2.6314e-06
2.01203e-07
2.60743e-06
2.22446e-07
2.54009e-06
2.40388e-07
2.44e-06
2.54992e-07
2.31569e-06
2.6639e-07
2.17378e-06
2.74835e-07
2.0193e-06
2.80653e-07
1.856e-06
2.8421e-07
1.68662e-06
2.85881e-07
1.51317e-06
2.8603e-07
1.3371e-06
2.84994e-07
1.15943e-06
2.83077e-07
9.80881e-07
2.80542e-07
8.01928e-07
2.77608e-07
6.22868e-07
2.74454e-07
4.43862e-07
2.71214e-07
2.64973e-07
2.67983e-07
8.6194e-08
2.64815e-07
-9.25191e-08
2.61728e-07
-2.71224e-07
2.58701e-07
-4.49962e-07
2.55678e-07
-6.28736e-07
2.52569e-07
-8.07476e-07
2.49249e-07
-9.86013e-07
2.45559e-07
-1.16404e-06
2.41312e-07
-1.34107e-06
2.36291e-07
-1.51639e-06
2.30256e-07
-1.68897e-06
2.22954e-07
-1.85736e-06
2.14124e-07
-2.01958e-06
2.03521e-07
-2.1729e-06
1.90933e-07
-2.31363e-06
1.76208e-07
-2.43678e-06
1.59296e-07
-2.5358e-06
1.40288e-07
-2.60225e-06
1.19462e-07
-2.62558e-06
9.73291e-08
-2.59313e-06
7.46747e-08
-2.4904e-06
5.25748e-08
-2.30169e-06
3.23902e-08
-2.01122e-06
1.57227e-08
-1.60452e-06
4.33246e-09
-1.07002e-06
-4.01227e-07
1.97818e-09
4.00061e-07
7.31793e-09
1.06703e-06
1.53236e-08
1.60022e-06
2.5252e-08
2.00613e-06
3.63624e-08
2.29623e-06
4.79574e-08
2.48489e-06
5.94207e-08
2.58781e-06
7.0244e-08
2.62058e-06