/*--------------------------------*- C++ -*----------------------------------*\
  =========                 |
  \\      /  F ield         | OpenFOAM: The Open Source CFD Toolbox
   \\    /   O peration     | Website:  https://openfoam.org
    \\  /    A nd           | Version:  7
     \\/     M anipulation  |
\*---------------------------------------------------------------------------*/
FoamFile
{
    version     2.0;
    format      ascii;
    class       volScalarField;
    location    "0.0654";
    object      p;
}
// * * * * * * * * * * * * * * * * * * * * * * * * * * * * * * * * * * * * * //

dimensions      [0 2 -2 0 0 0 0];

internalField   nonuniform List<scalar> 
2500
(
-3.94738e-06
-0.00054099
-0.00221373
-0.00469889
-0.00761622
-0.0106502
-0.0135597
-0.0161559
-0.0182958
-0.019875
-0.0208205
-0.0210852
-0.0206435
-0.0194875
-0.0176249
-0.0150762
-0.0118733
-0.00805737
-0.00367821
0.00120724
0.00653571
0.0122384
0.018242
0.0244689
0.0308385
0.0372676
0.0436714
0.0499643
0.0560608
0.0618766
0.0673299
0.0723426
0.0768416
0.0807605
0.0840411
0.0866353
0.0885068
0.0896332
0.0900084
0.0896445
0.0885746
0.0868563
0.0845747
0.0818475
0.0788307
0.0757235
0.0727768
0.0702989
0.0686803
0.0682082
0.000505116
-2.09778e-05
-0.00138517
-0.00335812
-0.00565528
-0.00805432
-0.010365
-0.0124301
-0.0141248
-0.0153538
-0.0160476
-0.0161588
-0.0156591
-0.0145367
-0.0127941
-0.0104459
-0.00751735
-0.00404323
-6.62524e-05
0.00436376
0.00919082
0.0143536
0.0197864
0.0254194
0.0311799
0.0369929
0.0427821
0.0484701
0.0539804
0.0592376
0.0641687
0.0687046
0.0727812
0.0763408
0.0793336
0.0817194
0.0834691
0.0845667
0.085011
0.0848176
0.0840211
0.0826772
0.0808654
0.0786916
0.0762908
0.0738291
0.0715039
0.0695355
0.068204
0.0677364
0.00215832
0.00133216
-4.11578e-05
-0.0018248
-0.00383934
-0.00591177
-0.00788954
-0.00964345
-0.0110674
-0.0120779
-0.012612
-0.0126255
-0.0120912
-0.0109962
-0.0093406
-0.00713604
-0.00440396
-0.00117464
0.00251391
0.00661691
0.0110837
0.0158584
0.0208808
0.0260872
0.0314106
0.0367821
0.0421315
0.0473879
0.0524808
0.0573412
0.0619025
0.0661019
0.0698812
0.0731884
0.0759794
0.0782186
0.0798813
0.0809547
0.0814397
0.0813524
0.0807257
0.0796114
0.0780809
0.0762274
0.0741661
0.0720343
0.0699901
0.0682078
0.0668695
0.0661221
0.00466074
0.0033066
0.00171177
-9.91829e-05
-0.00204318
-0.00398352
-0.00579737
-0.00738089
-0.00864668
-0.00952411
-0.00995908
-0.00991301
-0.00936147
-0.00829284
-0.00670698
-0.00461403
-0.00203328
0.00100788
0.0044748
0.00832649
0.0125163
0.0169927
0.0216999
0.0265788
0.0315672
0.0366011
0.0416149
0.0465428
0.051319
0.0558795
0.0601622
0.0641088
0.0676655
0.0707842
0.0734242
0.0755531
0.0771481
0.0781978
0.0787031
0.0786788
0.0781545
0.077176
0.0758057
0.0741234
0.0722257
0.0702248
0.0682496
0.0664396
0.0648862
0.0636293
0.00765783
0.00565095
0.00371771
0.00175983
-0.000231859
-0.00215005
-0.00389717
-0.00539276
-0.0065674
-0.00736375
-0.0077373
-0.00765609
-0.00709992
-0.00605951
-0.00453559
-0.00253798
-8.46728e-05
0.00279889
0.00608062
0.00972251
0.0136813
0.017909
0.0223538
0.0269604
0.0316708
0.0364249
0.0411616
0.0458187
0.0503349
0.0546499
0.0587053
0.0624464
0.0658225
0.0687886
0.071306
0.0733442
0.0748815
0.0759065
0.076419
0.0764311
0.0759682
0.0750692
0.0737871
0.0721886
0.0703529
0.0683694
0.0663428
0.0643854
0.0625011
0.0606098
0.0108779
0.00816742
0.00582308
0.00363328
0.00150453
-0.00047827
-0.0022381
-0.00371504
-0.00485626
-0.00561709
-0.00596269
-0.0058682
-0.00531839
-0.00430715
-0.00283692
-0.000918062
0.00143184
0.00418851
0.00732168
0.0107956
0.0145697
0.0185989
0.0228344
0.0272244
0.0317142
0.0362471
0.0407652
0.04521
0.049523
0.0536471
0.0575268
0.0611098
0.0643476
0.067197
0.0696208
0.0715889
0.0730796
0.0740806
0.0745897
0.0746156
0.0741785
0.0733105
0.0720551
0.070467
0.0686096
0.0665529
0.0643826
0.0621902
0.0598993
0.0573196
0.0141153
0.0106885
0.0078915
0.00541096
0.00307907
0.00096468
-0.000871156
-0.00238602
-0.00354167
-0.00430515
-0.0046509
-0.00456122
-0.00402617
-0.00304333
-0.00161749
0.000239769
0.00251057
0.00517113
0.00819227
0.0115399
0.0151752
0.0190557
0.0231349
0.0273636
0.0316897
0.0360594
0.0404173
0.0447074
0.0488738
0.0528612
0.0566164
0.0600885
0.0632305
0.0659997
0.0683593
0.0702791
0.0717363
0.0727168
0.0732155
0.0732373
0.0727971
0.0719199
0.0706405
0.0690028
0.0670565
0.0648558
0.062472
0.0599826
0.0572405
0.0539575
0.0172101
0.0130739
0.0098037
0.00699494
0.00441451
0.00212044
0.000161743
-0.00143377
-0.00264048
-0.0034359
-0.00380312
-0.00373136
-0.00321602
-0.00225866
-0.000866822
0.000946213
0.00316173
0.00575588
0.00869998
0.0119609
0.0155014
0.0192803
0.0232534
0.0273732
0.0315898
0.0358513
0.0401043
0.0442947
0.0483681
0.0522708
0.0559505
0.0593573
0.0624444
0.0651693
0.0674945
0.0693887
0.0708274
0.0717939
0.07228
0.072286
0.0718216
0.070905
0.0695631
0.0678301
0.0657446
0.0633479
0.0607012
0.0578734
0.0546556
0.0506724
0.0200377
0.015207
0.0114553
0.00829534
0.00543615
0.00292888
0.000813683
-0.00089361
-0.00217818
-0.00302677
-0.00343033
-0.00338462
-0.00289027
-0.00195291
-0.000583052
0.00120396
0.00338817
0.00594519
0.00884635
0.012059
0.0155468
0.0192698
0.0231849
0.0272461
0.0314051
0.0356113
0.0398127
0.0439563
0.0479887
0.0518569
0.055509
0.0588952
0.0619682
0.0646848
0.0670062
0.0688993
0.0703372
0.0713001
0.071776
0.0717608
0.0712586
0.0702814
0.068849
0.0669873
0.0647257
0.0620955
0.0591513
0.0559576
0.0522514
0.0475781
0.0224989
0.0169898
0.0127545
0.00922967
0.00607196
0.00332873
0.0010337
-0.000807104
-0.00218803
-0.00310391
-0.00355278
-0.00353646
-0.00306064
-0.00213496
-0.00077307
0.00100742
0.00318502
0.00573439
0.00862653
0.0118288
0.0153053
0.0190168
0.0229209
0.0269726
0.0311246
0.035327
0.0395288
0.0436774
0.0477198
0.0516032
0.0552753
0.0586856
0.0617859
0.0645315
0.0668815
0.0688004
0.0702584
0.0712321
0.0717053
0.0716693
0.0711228
0.070072
0.06853
0.0665161
0.0640521
0.0611616
0.0578954
0.0543171
0.050115
0.044762
0.0245117
0.0183375
0.0136193
0.00972161
0.00625292
0.00325887
0.00076875
-0.00121959
-0.00270831
-0.00369931
-0.00419703
-0.00420891
-0.00374542
-0.00282017
-0.00144995
0.00034517
0.00254192
0.00511377
0.00803099
0.0112607
0.0147669
0.0185107
0.0224501
0.0265407
0.0307353
0.0349849
0.0392383
0.0434433
0.0475465
0.0514947
0.0552347
0.0587147
0.0618849
0.0646984
0.0671118
0.0690865
0.0705891
0.0715923
0.0720754
0.0720249
0.0714341
0.0703038
0.0686413
0.0664599
0.0637755
0.0606059
0.0570002
0.0530236
0.04832
0.0422933
0.0260049
0.0191749
0.0139746
0.00969939
0.00591216
0.0026583
-3.5915e-05
-0.00217953
-0.00378148
-0.00484993
-0.00539511
-0.00542969
-0.00496868
-0.00402957
-0.00263233
-0.000799577
0.00144347
0.00406885
0.00704586
0.010341
0.013918
0.0177378
0.0217585
0.0259358
0.0302226
0.0345697
0.0389261
0.0432387
0.0474539
0.051517
0.0553738
0.0589705
0.062255
0.0651777
0.0676921
0.069756
0.0713318
0.0723879
0.0728988
0.0728458
0.0722173
0.0710083
0.0692211
0.0668638
0.0639476
0.0604858
0.0565278
0.0521421
0.0469304
0.0402299
0.0269138
0.019432
0.0137496
0.009094
0.00498389
0.00146552
-0.00143691
-0.00373841
-0.00545393
-0.00659727
-0.00718402
-0.00723175
-0.00675984
-0.00578956
-0.00434407
-0.0024486
-0.000130488
0.00258071
0.00565308
0.00905231
0.0127415
0.0166812
0.0208294
0.0251413
0.0295697
0.0340652
0.0385758
0.0430481
0.047427
0.0516565
0.0556803
0.0594425
0.0628882
0.0659643
0.0686208
0.0708111
0.0724932
0.0736306
0.0741925
0.0741549
0.0735009
0.0722204
0.0703105
0.067775
0.0646208
0.0608583
0.056538
0.0517334
0.0460048
0.0386234
0.0271768
0.0190422
0.0128757
0.00783751
0.00340231
-0.000382107
-0.003493
-0.00595072
-0.00777573
-0.00898706
-0.00960535
-0.00965285
-0.00915318
-0.00813134
-0.00661372
-0.00462825
-0.00220448
0.00062628
0.00383075
0.00737354
0.011217
0.015321
0.0196431
0.0241381
0.0287581
0.033453
0.0381701
0.0428548
0.0474504
0.0518992
0.0561425
0.0601215
0.0637779
0.0670551
0.0698986
0.072257
0.0740834
0.0753355
0.0759773
0.075979
0.0753179
0.0739788
0.071954
0.0692431
0.0658495
0.0617809
0.0570903
0.0518568
0.0455996
0.037523
0.0267321
0.0179388
0.0112846
0.00586162
0.0011005
-0.00294912
-0.00626555
-0.00887419
-0.0108007
-0.0120691
-0.012705
-0.0127352
-0.0121875
-0.0110906
-0.00947423
-0.00736909
-0.00480704
-0.00182129
0.00155338
0.00528037
0.00932107
0.0136346
0.0181778
0.0229047
0.027767
0.0327133
0.0376902
0.0426413
0.0475083
0.0522312
0.0567487
0.0609986
0.0649189
0.0684487
0.0715284
0.0741015
0.0761152
0.0775215
0.0782779
0.0783487
0.0777052
0.0763265
0.0742001
0.0713214
0.0676907
0.0633135
0.0582457
0.0525728
0.045772
0.0369785
0.0255166
0.0160541
0.00890651
0.00309622
-0.0019907
-0.00630273
-0.00981903
-0.01257
-0.0145864
-0.0158973
-0.016533
-0.0165251
-0.0159056
-0.014707
-0.0129624
-0.0107054
-0.00797025
-0.00479219
-0.00120764
0.0027455
0.00702754
0.0115968
0.0164091
0.0214179
0.0265739
0.0318248
0.0371157
0.0423889
0.0475838
0.0526381
0.0574872
0.0620654
0.0663065
0.0701445
0.0735147
0.0763544
0.0786045
0.0802103
0.0811226
0.0812987
0.0807036
0.0793104
0.0771012
0.0740674
0.0702057
0.0655198
0.0600687
0.0539451
0.0465822
0.0370432
0.0234635
0.0133173
0.00566854
-0.000531814
-0.00594371
-0.0105136
-0.0142216
-0.0171032
-0.0191944
-0.0205294
-0.0211435
-0.0210729
-0.0203543
-0.019024
-0.0171186
-0.0146747
-0.0117293
-0.00831952
-0.00448363
-0.000260884
0.00430789
0.00918002
0.0143106
0.0196522
0.0251545
0.0307643
0.0364252
0.0420777
0.0476593
0.0531046
0.0583459
0.0633134
0.0679363
0.0721432
0.0758633
0.0790274
0.0815693
0.0834267
0.0845428
0.0848676
0.0843586
0.0829823
0.080715
0.0775435
0.0734609
0.0684686
0.062629
0.0560425
0.0480957
0.0377759
0.0205014
0.00965322
0.00149372
-0.00509986
-0.0108352
-0.0156568
-0.0195459
-0.0225432
-0.0246905
-0.0260273
-0.0265943
-0.0264327
-0.0255837
-0.0240881
-0.021986
-0.0193175
-0.0161218
-0.0124387
-0.00830805
-0.00377058
0.00113173
0.00635529
0.0118544
0.0175807
0.0234832
0.0295074
0.0355957
0.0416868
0.0477159
0.0536147
0.059312
0.0647338
0.069804
0.0744456
0.0785809
0.0821336
0.0850295
0.0871979
0.0885736
0.0890978
0.0887201
0.0873993
0.085105
0.0818187
0.0775294
0.0722356
0.0660036
0.0589411
0.0503853
0.0392432
0.0165534
0.00498111
-0.00370039
-0.0106907
-0.016747
-0.0218123
-0.0258691
-0.0289641
-0.031145
-0.0324572
-0.0329471
-0.0326617
-0.0316471
-0.0299486
-0.0276105
-0.024676
-0.0211874
-0.0171868
-0.0127158
-0.00781667
-0.00253246
0.00309236
0.00901136
0.0151756
0.0215331
0.0280287
0.0346034
0.0411941
0.0477339
0.0541515
0.0603721
0.0663172
0.0719052
0.0770527
0.081675
0.0856875
0.0890071
0.0915541
0.0932533
0.0940364
0.0938434
0.0926243
0.0903413
0.0869692
0.082492
0.0769051
0.0702779
0.0627259
0.0535334
0.041521
0.0115354
-0.000786486
-0.0100029
-0.0173935
-0.0237675
-0.0290664
-0.0332745
-0.0364451
-0.0386327
-0.0398892
-0.0402676
-0.0398207
-0.0386005
-0.0366572
-0.0340393
-0.030794
-0.0269666
-0.0226014
-0.0177423
-0.0124326
-0.00671652
-0.000639248
0.00575225
0.0124085
0.0192772
0.0263023
0.0334237
0.0405769
0.0476929
0.0546976
0.0615123
0.0680539
0.0742352
0.0799659
0.0851535
0.0897045
0.0935261
0.0965278
0.0986238
0.0997345
0.099789
0.098727
0.0965015
0.0930797
0.0884392
0.0825714
0.0755482
0.0674931
0.0576333
0.044697
0.00535546
-0.007745
-0.0175109
-0.0253053
-0.0319922
-0.037512
-0.0418515
-0.0450713
-0.0472337
-0.048398
-0.0486245
-0.047973
-0.0465018
-0.0442665
-0.0413209
-0.0377157
-0.0334998
-0.0287202
-0.0234223
-0.0176511
-0.0114515
-0.00486924
0.00204844
0.00925198
0.0166888
0.0243024
0.0320322
0.0398125
0.0475722
0.0552347
0.0627178
0.0699334
0.0767887
0.0831861
0.0890245
0.0942009
0.0986116
0.102154
0.104731
0.106248
0.106624
0.105784
0.103672
0.100245
0.0954723
0.0893404
0.0819232
0.0733519
0.0627919
0.0488721
-0.00208701
-0.0159991
-0.0263305
-0.0345321
-0.0415255
-0.0472503
-0.0516968
-0.0549341
-0.0570332
-0.0580623
-0.0580901
-0.0571842
-0.0554102
-0.0528302
-0.0495031
-0.0454844
-0.0408264
-0.0355787
-0.0297888
-0.0235028
-0.0167663
-0.00962528
-0.00212675
0.00567995
0.0137425
0.0220046
0.0304054
0.0388784
0.0473513
0.055745
0.0639738
0.0719453
0.0795605
0.0867143
0.0932967
0.0991941
0.104291
0.108471
0.111623
0.113639
0.114421
0.113881
0.111949
0.10857
0.103705
0.0973322
0.0895266
0.0804271
0.069132
0.054163
-0.0109029
-0.0256641
-0.0365789
-0.0451905
-0.0524815
-0.0583917
-0.0629153
-0.0661316
-0.068122
-0.0689651
-0.0687392
-0.0675215
-0.0653855
-0.0624009
-0.0586326
-0.054141
-0.0489825
-0.0432094
-0.0368711
-0.0300148
-0.0226863
-0.0149314
-0.00679657
0.00166968
0.0104159
0.0193867
0.0285216
0.0377539
0.0470106
0.0562107
0.0652658
0.0740788
0.0825449
0.0905513
0.0979786
0.104702
0.110592
0.115519
0.119354
0.121973
0.123261
0.123112
0.121439
0.118175
0.113267
0.106683
0.0984993
0.0888613
0.0767942
0.0607043
-0.0212148
-0.036868
-0.0483861
-0.0574097
-0.0649865
-0.0710569
-0.0756208
-0.0787695
-0.0805968
-0.0811932
-0.0806491
-0.0790524
-0.0764864
-0.0730291
-0.0687524
-0.0637226
-0.0579998
-0.0516396
-0.044693
-0.0372082
-0.0292309
-0.020806
-0.011979
-0.00279677
0.006691
0.0164304
0.0263622
0.0364207
0.0465325
0.0566158
0.0665798
0.0763235
0.0857364
0.094698
0.103079
0.110743
0.117545
0.12334
0.127981
0.131324
0.133232
0.133581
0.132263
0.129193
0.124302
0.117548
0.109002
0.0988183
0.0859409
0.0686515
-0.0331584
-0.0497533
-0.061897
-0.0713335
-0.0791801
-0.085379
-0.0899378
-0.0929617
-0.0945598
-0.0948372
-0.0938984
-0.0918442
-0.0887693
-0.0847615
-0.0799008
-0.0742595
-0.0679027
-0.0608887
-0.0532704
-0.0450963
-0.0364117
-0.0272601
-0.0176849
-0.00773053
0.00255577
0.0131228
0.0239136
0.0348642
0.0459024
0.0569463
0.0679035
0.0786699
0.0891298
0.0991553
0.108607
0.117335
0.125181
0.13198
0.137565
0.141768
0.14443
0.145403
0.144553
0.141774
0.136977
0.130103
0.12122
0.110486
0.0967591
0.0781842
-0.0468853
-0.0644804
-0.0772749
-0.0871234
-0.0952185
-0.101506
-0.106002
-0.108831
-0.110119
-0.109991
-0.108566
-0.105962
-0.102286
-0.0976385
-0.0921079
-0.0857738
-0.078706
-0.0709662
-0.0626086
-0.0536818
-0.0442298
-0.0342941
-0.0239151
-0.0131337
-0.00199337
0.0094584
0.0211683
0.0330756
0.0451103
0.0571917
0.0692269
0.08111
0.0927207
0.103924
0.114571
0.124499
0.133532
0.141486
0.14817
0.153391
0.156962
0.158705
0.158459
0.156087
0.151478
0.14455
0.135365
0.124083
0.109465
0.0895102
-0.0625663
-0.0812309
-0.0947051
-0.104962
-0.113277
-0.119601
-0.123963
-0.12651
-0.12739
-0.12675
-0.12473
-0.121466
-0.117082
-0.111692
-0.105393
-0.098275
-0.0904116
-0.0818678
-0.0726992
-0.0629536
-0.052673
-0.0418958
-0.0306583
-0.0189968
-0.00694941
0.00544148
0.0181277
0.0310532
0.0441519
0.0573458
0.0705435
0.083638
0.0965059
0.109006
0.120981
0.132252
0.142629
0.151905
0.159864
0.166283
0.170942
0.173628
0.174146
0.172324
0.168019
0.161122
0.151682
0.139859
0.124309
0.10287
-0.080395
-0.100213
-0.1144
-0.125059
-0.133555
-0.139849
-0.143987
-0.146142
-0.146492
-0.145211
-0.142464
-0.138411
-0.133193
-0.12694
-0.119763
-0.111757
-0.103005
-0.0935725
-0.0835166
-0.0728835
-0.0617123
-0.0500369
-0.0378881
-0.025296
-0.0122922
0.00108803
0.0148034
0.0288044
0.0430306
0.0574089
0.0718509
0.0862508
0.100484
0.114404
0.127844
0.140615
0.152506
0.163289
0.172719
0.18054
0.186494
0.190327
0.1918
0.190701
0.186843
0.180083
0.170453
0.158108
0.141584
0.118543
-0.100594
-0.121668
-0.136606
-0.147655
-0.156281
-0.162456
-0.166254
-0.16788
-0.16755
-0.16547
-0.161838
-0.15684
-0.15064
-0.143386
-0.135203
-0.126195
-0.11645
-0.106038
-0.0950142
-0.0834229
-0.0712988
-0.0586698
-0.0455598
-0.0319909
-0.0179861
-0.00357183
0.0112196
0.0263471
0.0417587
0.057388
0.0731522
0.0889489
0.104654
0.120118
0.135168
0.149602
0.163192
0.175685
0.186806
0.196262
0.203751
0.20897
0.211628
0.21146
0.208228
0.201742
0.192007
0.179169
0.161629
0.136856
-0.123422
-0.145878
-0.161614
-0.173031
-0.181716
-0.18766
-0.190968
-0.191892
-0.190694
-0.187621
-0.182911
-0.176782
-0.169426
-0.161011
-0.151676
-0.141538
-0.130687
-0.119197
-0.107121
-0.0944989
-0.0813602
-0.0677249
-0.0536079
-0.0390213
-0.0239775
-0.00849175
0.00741474
0.0237122
0.040359
0.0572987
0.0744566
0.0917366
0.109018
0.126152
0.142959
0.159229
0.174715
0.189141
0.202199
0.213554
0.222854
0.22974
0.233858
0.234876
0.232492
0.226455
0.21673
0.203445
0.184847
0.158191
-0.149185
-0.173182
-0.189766
-0.20152
-0.210167
-0.215728
-0.218354
-0.218356
-0.216053
-0.211749
-0.205728
-0.198247
-0.189531
-0.179769
-0.169118
-0.157705
-0.145625
-0.132952
-0.119735
-0.106011
-0.0917978
-0.0771075
-0.0619434
-0.0463053
-0.0301927
-0.0136074
0.0034435
0.0209439
0.0388656
0.0571652
0.0757795
0.094622
0.113579
0.132505
0.15122
0.169504
0.187097
0.203698
0.218965
0.232519
0.243952
0.252836
0.258743
0.26126
0.260001
0.254635
0.245072
0.231409
0.211714
0.182999
-0.178251
-0.203987
-0.221478
-0.233517
-0.241993
-0.24697
-0.248662
-0.24746
-0.243758
-0.237929
-0.230313
-0.221217
-0.2109
-0.199578
-0.187427
-0.17458
-0.161137
-0.14717
-0.132724
-0.117825
-0.102483
-0.0866953
-0.0704519
-0.0537379
-0.0365372
-0.0188353
-0.000622829
0.018101
0.0373248
0.0570212
0.0771427
0.0976164
0.11834
0.139176
0.159946
0.180428
0.20035
0.219388
0.237167
0.253259
0.267194
0.278468
0.286561
0.29096
0.291173
0.286765
0.277567
0.263626
0.242797
0.211818
-0.211068
-0.238795
-0.25726
-0.269503
-0.27762
-0.281742
-0.282171
-0.279404
-0.273932
-0.266213
-0.256661
-0.245636
-0.23344
-0.220317
-0.206457
-0.192003
-0.177056
-0.161682
-0.145918
-0.129777
-0.113256
-0.0963369
-0.0789922
-0.0611896
-0.0428944
-0.0240729
-0.00469625
0.0152563
0.0357936
0.0569085
0.0785729
0.100732
0.123301
0.146155
0.169125
0.19199
0.214472
0.236228
0.25685
0.275863
0.292728
0.306853
0.317612
0.324368
0.326492
0.323413
0.314851
0.300776
0.278784
0.245294
-0.248195
-0.278233
-0.297741
-0.310062
-0.317557
-0.320456
-0.319189
-0.31439
-0.306681
-0.296626
-0.284726
-0.271404
-0.257007
-0.241807
-0.226011
-0.209765
-0.193166
-0.176272
-0.159105
-0.141663
-0.123924
-0.105851
-0.0873971
-0.0685077
-0.0491271
-0.0291995
-0.00867346
0.0124952
0.034339
0.0568751
0.0800996
0.103982
0.128459
0.153426
0.17873
0.20416
0.229438
0.25421
0.278039
0.300403
0.32069
0.338212
0.352216
0.361916
0.36651
0.365246
0.357688
0.343685
0.320513
0.284212
-0.290341
-0.323099
-0.343715
-0.355918
-0.362414
-0.363589
-0.360049
-0.352619
-0.342085
-0.329146
-0.314403
-0.298353
-0.281389
-0.263811
-0.245833
-0.227601
-0.209203
-0.190679
-0.172034
-0.153244
-0.134263
-0.11503
-0.0954744
-0.0755181
-0.05508
-0.0340794
-0.0124389
0.00991219
0.033034
0.0569718
0.0817511
0.107371
0.133798
0.160955
0.188714
0.216883
0.245194
0.273293
0.300722
0.326915
0.351191
0.372754
0.390707
0.404083
0.411862
0.413053
0.406999
0.39337
0.369025
0.329542
-0.338422
-0.374424
-0.396197
-0.40797
-0.412927
-0.411686
-0.405108
-0.394272
-0.380177
-0.363685
-0.345514
-0.326239
-0.306299
-0.286012
-0.265595
-0.245184
-0.224846
-0.204597
-0.184414
-0.164245
-0.144017
-0.123639
-0.103012
-0.0820299
-0.0605844
-0.0385664
-0.0158696
0.0076063
0.0319525
0.0572469
0.0835493
0.110895
0.139286
0.168684
0.198996
0.230062
0.261639
0.293383
0.32483
0.355384
0.384295
0.410658
0.433415
0.451381
0.463268
0.467765
0.463909
0.451095
0.425628
0.382498
-0.393649
-0.433571
-0.456501
-0.467353
-0.469982
-0.465366
-0.454728
-0.439487
-0.420912
-0.400057
-0.377773
-0.354712
-0.331347
-0.308006
-0.284893
-0.262118
-0.239715
-0.217667
-0.195912
-0.174362
-0.152907
-0.131425
-0.109782
-0.0878422
-0.065465
-0.0425109
-0.0188423
0.00567364
0.0311625
0.0577388
0.0855017
0.114528
0.144867
0.176525
0.209459
0.243555
0.278612
0.314317
0.350222
0.385714
0.419992
0.452045
0.480642
0.504348
0.521536
0.530485
0.529799
0.518458
0.491997
0.444634
-0.457661
-0.50237
-0.526353
-0.535496
-0.534642
-0.525313
-0.50925
-0.48832
-0.464125
-0.437944
-0.41076
-0.383291
-0.356029
-0.329287
-0.303235
-0.277936
-0.253378
-0.22949
-0.206164
-0.183264
-0.160638
-0.138125
-0.115554
-0.0927529
-0.0695491
-0.0457694
-0.0212428
0.00419856
0.0307171
0.0584675
0.0875927
0.118219
0.150447
0.184344
0.219927
0.257148
0.29587
0.335837
0.376643
0.417692
0.458155
0.496933
0.532623
0.563508
0.587558
0.602513
0.606377
0.597501
0.570324
0.517983
-0.532732
-0.583332
-0.608045
-0.614214
-0.608163
-0.59225
-0.568939
-0.540681
-0.509473
-0.476835
-0.443871
-0.411334
-0.379701
-0.349233
-0.320037
-0.292104
-0.265347
-0.239629
-0.21478
-0.190607
-0.166909
-0.143477
-0.120101
-0.096571
-0.0726784
-0.0482154
-0.0229763
0.00324291
0.0306437
0.0594234
0.0897731
0.121873
0.155885
0.191947
0.230154
0.270542
0.313065
0.357557
0.403694
0.450938
0.498481
0.54517
0.589454
0.629323
0.66227
0.685356
0.695757
0.69088
0.663536
0.605275
-0.622115
-0.679979
-0.704662
-0.705798
-0.691992
-0.666873
-0.633893
-0.596236
-0.556345
-0.515964
-0.476271
-0.438002
-0.401558
-0.367101
-0.334626
-0.304018
-0.275092
-0.247624
-0.221362
-0.19605
-0.171427
-0.147235
-0.123219
-0.0991296
-0.0747216
-0.0497522
-0.0239804
0.00283427
0.0309329
0.0605572
0.0919486
0.125346
0.160981
0.199071
0.239806
0.283329
0.329715
0.378929
0.430777
0.484845
0.540411
0.596343
0.650994
0.702087
0.746591
0.780731
0.800562
0.802084
0.775639
0.710309
-0.730647
-0.79736
-0.82038
-0.813104
-0.787712
-0.749717
-0.703886
-0.654266
-0.603742
-0.554213
-0.506834
-0.462224
-0.420622
-0.382017
-0.34624
-0.313025
-0.282059
-0.253003
-0.225518
-0.199268
-0.173927
-0.149184
-0.124739
-0.100301
-0.0755891
-0.050326
-0.0242368
0.00295445
0.0315276
0.0617684
0.0939699
0.128433
0.165463
0.205369
0.248448
0.294975
0.345179
0.399201
0.457046
0.5185
0.583029
0.649639
0.716704
0.781762
0.841274
0.890489
0.924002
0.935752
0.912257
0.838582
-0.865828
-0.942874
-0.960865
-0.939596
-0.896873
-0.840914
-0.778123
-0.713453
-0.650124
-0.590013
-0.534079
-0.482667
-0.435731
-0.392994
-0.354051
-0.318441
-0.285686
-0.255317
-0.226887
-0.199976
-0.17419
-0.149162
-0.124546
-0.100012
-0.0752458
-0.0499379
-0.0237823
0.00352957
0.0323138
0.062898
0.0956257
0.13086
0.168983
0.2104
0.255531
0.304804
0.358632
0.417388
0.481344
0.550594
0.624933
0.703676
0.785416
0.867711
0.946641
1.01644
1.06992
1.09807
1.08149
0.998445
-1.03991
-1.12757
-1.13373
-1.08925
-1.02063
-0.93976
-0.854856
-0.771598
-0.693216
-0.621232
-0.556117
-0.497722
-0.445551
-0.398946
-0.357193
-0.319582
-0.285443
-0.254159
-0.225166
-0.197955
-0.172064
-0.147073
-0.122591
-0.0982567
-0.0737228
-0.0486538
-0.0227172
0.00442366
0.033116
0.0637249
0.0966402
0.132283
0.171114
0.213635
0.260396
0.311992
0.369056
0.432237
0.502158
0.579342
0.664088
0.756271
0.855018
0.958282
1.06213
1.15998
1.24266
1.29725
1.29523
1.2033
-1.27413
-1.36816
-1.34886
-1.26602
-1.15894
-1.04397
-0.930809
-0.825228
-0.729781
-0.645059
-0.57062
-0.505519
-0.448615
-0.398745
-0.35481
-0.315813
-0.280869
-0.249203
-0.220136
-0.193071
-0.167483
-0.142904
-0.118909
-0.0951053
-0.0711239
-0.0466086
-0.021207
0.00543813
0.0336985
0.0639692
0.096679
0.132301
0.171364
0.214466
0.262284
0.315588
0.375248
0.442232
0.517589
0.602401
0.697679
0.804171
0.922015
1.05018
1.18545
1.32118
1.44651
1.54379
1.57129
1.47612
-1.60748
-1.69
-1.61784
-1.47211
-1.3088
-1.14826
-1.00023
-0.869037
-0.755328
-0.657891
-0.574796
-0.503951
-0.443365
-0.391261
-0.346102
-0.306582
-0.271601
-0.240229
-0.211682
-0.18529
-0.160476
-0.136734
-0.113614
-0.0907054
-0.0676246
-0.044004
-0.0194802
0.00631604
0.033771
0.0632996
0.0953583
0.130459
0.169188
0.212223
0.260358
0.314529
0.375843
0.445605
0.525342
0.616807
0.721935
0.842717
0.980908
1.13742
1.31113
1.4969
1.68383
1.84989
1.93633
1.85853
-2.11202
-2.13079
-1.95211
-1.70494
-1.46154
-1.24255
-1.05388
-0.895436
-0.764003
-0.655394
-0.565528
-0.490827
-0.428297
-0.375488
-0.330421
-0.291498
-0.257428
-0.227157
-0.19982
-0.174695
-0.151174
-0.128731
-0.106904
-0.0852774
-0.0634648
-0.0410979
-0.0178132
0.00675951
0.0330095
0.0613583
0.092275
0.126294
0.164036
0.206237
0.253778
0.307733
0.369417
0.440453
0.522848
0.619081
0.732168
0.865699
1.02373
1.21035
1.42856
1.67804
1.95187
2.2275
2.42951
2.42608
-2.91858
-2.74072
-2.35936
-1.95502
-1.60173
-1.31189
-1.07972
-0.895599
-0.749707
-0.633535
-0.540263
-0.464614
-0.402558
-0.351022
-0.307654
-0.270633
-0.238539
-0.210246
-0.184848
-0.161607
-0.139907
-0.119224
-0.0991031
-0.0791373
-0.0589513
-0.038188
-0.0164956
0.00648525
0.0311334
0.0578622
0.0871352
0.119487
0.155547
0.196073
0.241994
0.294464
0.354944
0.4253
0.507949
0.606042
0.723709
0.866353
1.04094
1.25614
1.52197
1.84831
2.24039
2.68427
3.1018
3.313
-4.32392
-3.56024
-2.8154
-2.18903
-1.69881
-1.33246
-1.06145
-0.859249
-0.706336
-0.588922
-0.497296
-0.424624
-0.366058
-0.318113
-0.278232
-0.244507
-0.215489
-0.190052
-0.167307
-0.146539
-0.127156
-0.108661
-0.0906255
-0.0726663
-0.0544327
-0.035591
-0.0158131
0.00523668
0.0279135
0.0526064
0.0797542
0.109867
0.14355
0.181542
0.22476
0.274365
0.331857
0.399208
0.479063
0.575029
0.692118
0.837397
1.02091
1.2569
1.56556
1.97456
2.51369
3.19355
3.99328
4.82409
-7.15795
-4.55849
-3.13921
-2.25271
-1.64513
-1.2342
-0.954581
-0.758139
-0.615583
-0.509266
-0.428033
-0.364598
-0.314075
-0.273091
-0.239247
-0.210787
-0.186394
-0.165059
-0.145989
-0.128549
-0.112216
-0.0965528
-0.0811798
-0.0657609
-0.0499871
-0.0335651
-0.0162051
0.00238778
0.0225271
0.0445565
0.0688642
0.0959021
0.126209
0.160445
0.199431
0.24422
0.296181
0.357147
0.429619
0.517117
0.624728
0.760037
0.934667
1.16697
1.4873
1.94591
2.61227
3.57096
5.07642
7.79523
-12.0263
-5.64127
-2.97491
-1.87595
-1.27881
-0.924058
-0.704397
-0.558576
-0.455447
-0.37925
-0.321157
-0.275772
-0.239589
-0.210213
-0.185935
-0.16549
-0.147923
-0.132489
-0.118596
-0.105765
-0.0935998
-0.0817615
-0.0699567
-0.0579226
-0.0454164
-0.0322064
-0.0180648
-0.00275641
0.0139658
0.0323723
0.0527671
0.0755018
0.100993
0.129744
0.16238
0.19969
0.242693
0.292738
0.351658
0.42202
0.50757
0.614045
0.750761
0.934119
1.19608
1.60047
2.26379
3.4576
6.24102
12.7518
)
;

boundaryField
{
    movingWall
    {
        type            zeroGradient;
    }
    fixedWalls
    {
        type            zeroGradient;
    }
    frontAndBack
    {
        type            empty;
    }
}


// ************************************************************************* //
