/*--------------------------------*- C++ -*----------------------------------*\
  =========                 |
  \\      /  F ield         | OpenFOAM: The Open Source CFD Toolbox
   \\    /   O peration     | Website:  https://openfoam.org
    \\  /    A nd           | Version:  7
     \\/     M anipulation  |
\*---------------------------------------------------------------------------*/
FoamFile
{
    version     2.0;
    format      ascii;
    class       volVectorField;
    location    "0.0352";
    object      U;
}
// * * * * * * * * * * * * * * * * * * * * * * * * * * * * * * * * * * * * * //

dimensions      [0 1 -1 0 0 0 0];

internalField   nonuniform List<vector> 
2500
(
(-0.293814 0.153735 0)
(-0.397966 0.12873 0)
(-0.577993 0.0737907 0)
(-0.69624 0.0408626 0)
(-0.765151 0.0233735 0)
(-0.809387 0.0141137 0)
(-0.839856 0.00912304 0)
(-0.86181 0.0063112 0)
(-0.878285 0.0046192 0)
(-0.891069 0.00352704 0)
(-0.901238 0.00277652 0)
(-0.909474 0.00223364 0)
(-0.916232 0.00182459 0)
(-0.92183 0.00150608 0)
(-0.926492 0.00125119 0)
(-0.930385 0.00104226 0)
(-0.933633 0.000867238 0)
(-0.936327 0.000717565 0)
(-0.93854 0.000586998 0)
(-0.940325 0.000470843 0)
(-0.941723 0.000365473 0)
(-0.942766 0.00026801 0)
(-0.943475 0.000176096 0)
(-0.943865 8.77344e-05 0)
(-0.943945 1.17003e-06 0)
(-0.943719 -8.52416e-05 0)
(-0.943185 -0.000173054 0)
(-0.942336 -0.000263862 0)
(-0.941158 -0.000359372 0)
(-0.939634 -0.000461504 0)
(-0.937737 -0.000572517 0)
(-0.935435 -0.000695167 0)
(-0.932684 -0.000832948 0)
(-0.929428 -0.000990423 0)
(-0.925596 -0.00117373 0)
(-0.921094 -0.00139137 0)
(-0.915799 -0.00165552 0)
(-0.909545 -0.00198428 0)
(-0.902109 -0.00240578 0)
(-0.893173 -0.00296607 0)
(-0.882282 -0.0037448 0)
(-0.868745 -0.00488743 0)
(-0.851474 -0.00667266 0)
(-0.828662 -0.0096515 0)
(-0.797292 -0.0149109 0)
(-0.752215 -0.0245038 0)
(-0.682689 -0.0421637 0)
(-0.565031 -0.0746388 0)
(-0.389355 -0.128146 0)
(-0.290214 -0.152379 0)
(-0.00516973 0.302935 0)
(-0.0270571 0.30734 0)
(-0.171238 0.217729 0)
(-0.307949 0.146461 0)
(-0.416638 0.0990383 0)
(-0.501581 0.0687361 0)
(-0.567626 0.0494487 0)
(-0.619189 0.0368781 0)
(-0.659959 0.0283698 0)
(-0.692668 0.0223756 0)
(-0.719259 0.017993 0)
(-0.741118 0.0146825 0)
(-0.759242 0.0121098 0)
(-0.774362 0.0100602 0)
(-0.78702 0.00839032 0)
(-0.797623 0.00700174 0)
(-0.806481 0.00582448 0)
(-0.813832 0.00480756 0)
(-0.81986 0.00391293 0)
(-0.824705 0.00311144 0)
(-0.828475 0.00238025 0)
(-0.831253 0.00170096 0)
(-0.833098 0.00105834 0)
(-0.83405 0.000439368 0)
(-0.834133 -0.000167517 0)
(-0.833358 -0.00077302 0)
(-0.83172 -0.00138748 0)
(-0.8292 -0.00202141 0)
(-0.825765 -0.00268598 0)
(-0.821368 -0.00339368 0)
(-0.815942 -0.004159 0)
(-0.809401 -0.00499946 0)
(-0.801633 -0.00593684 0)
(-0.792496 -0.00699914 0)
(-0.781809 -0.00822317 0)
(-0.769339 -0.00965861 0)
(-0.754785 -0.0113742 0)
(-0.737753 -0.0134675 0)
(-0.717724 -0.0160813 0)
(-0.693999 -0.0194309 0)
(-0.665626 -0.0238519 0)
(-0.631295 -0.0298845 0)
(-0.589182 -0.0384235 0)
(-0.536762 -0.0509787 0)
(-0.470711 -0.0700744 0)
(-0.387179 -0.0996528 0)
(-0.281983 -0.145127 0)
(-0.151652 -0.212682 0)
(-0.0165147 -0.298266 0)
(-0.00100376 -0.294713 0)
(0.0321154 0.26407 0)
(0.0564367 0.362252 0)
(-0.00338847 0.324738 0)
(-0.0953561 0.260145 0)
(-0.191333 0.200348 0)
(-0.279634 0.153196 0)
(-0.356155 0.118162 0)
(-0.420694 0.0924938 0)
(-0.47462 0.0735543 0)
(-0.519625 0.0593549 0)
(-0.557273 0.0484994 0)
(-0.588878 0.0400296 0)
(-0.615494 0.0332877 0)
(-0.637959 0.0278172 0)
(-0.65693 0.0232963 0)
(-0.672924 0.0194934 0)
(-0.686347 0.016239 0)
(-0.697518 0.0134062 0)
(-0.706691 0.0108984 0)
(-0.714061 0.00864023 0)
(-0.719784 0.00657197 0)
(-0.723975 0.00464485 0)
(-0.726721 0.00281814 0)
(-0.728083 0.00105672 0)
(-0.728096 -0.000670685 0)
(-0.726778 -0.00239307 0)
(-0.724122 -0.00413847 0)
(-0.720105 -0.00593526 0)
(-0.714682 -0.00781344 0)
(-0.707786 -0.00980616 0)
(-0.699328 -0.0119515 0)
(-0.68919 -0.014295 0)
(-0.677223 -0.0168922 0)
(-0.663238 -0.0198135 0)
(-0.646999 -0.0231495 0)
(-0.62821 -0.0270196 0)
(-0.606502 -0.0315842 0)
(-0.581409 -0.0370625 0)
(-0.552345 -0.04376 0)
(-0.518574 -0.0521091 0)
(-0.479179 -0.0627298 0)
(-0.433049 -0.0765176 0)
(-0.3789 -0.0947591 0)
(-0.315422 -0.119254 0)
(-0.241739 -0.15233 0)
(-0.158544 -0.196298 0)
(-0.0701566 -0.251307 0)
(0.0121032 -0.310014 0)
(0.0619414 -0.343369 0)
(0.0330128 -0.249992 0)
(0.0271647 0.20522 0)
(0.0638579 0.357612 0)
(0.0554731 0.375213 0)
(0.00855125 0.337844 0)
(-0.0585373 0.284997 0)
(-0.131476 0.233955 0)
(-0.202126 0.190477 0)
(-0.266728 0.155254 0)
(-0.324031 0.12723 0)
(-0.374042 0.104988 0)
(-0.417319 0.0872296 0)
(-0.454597 0.0729044 0)
(-0.486621 0.0612027 0)
(-0.514067 0.0515124 0)
(-0.53752 0.0433727 0)
(-0.557472 0.0364353 0)
(-0.574333 0.0304346 0)
(-0.588438 0.0251655 0)
(-0.600059 0.0204676 0)
(-0.609414 0.0162136 0)
(-0.616678 0.0123001 0)
(-0.621985 0.00864191 0)
(-0.625438 0.00516695 0)
(-0.627108 0.00181256 0)
(-0.627042 -0.00147741 0)
(-0.625259 -0.00475507 0)
(-0.621758 -0.00807075 0)
(-0.616515 -0.0114751 0)
(-0.609484 -0.015021 0)
(-0.600592 -0.0187667 0)
(-0.589745 -0.0227776 0)
(-0.576818 -0.0271308 0)
(-0.561657 -0.0319187 0)
(-0.544069 -0.0372557 0)
(-0.523823 -0.0432855 0)
(-0.500638 -0.0501917 0)
(-0.474178 -0.0582128 0)
(-0.444048 -0.0676607 0)
(-0.409791 -0.0789471 0)
(-0.370897 -0.0926158 0)
(-0.326838 -0.10938 0)
(-0.277146 -0.130153 0)
(-0.221585 -0.15604 0)
(-0.160499 -0.188209 0)
(-0.0954305 -0.227448 0)
(-0.0301825 -0.272921 0)
(0.0275891 -0.319251 0)
(0.0648732 -0.350842 0)
(0.0656817 -0.332092 0)
(0.0268534 -0.190034 0)
(0.0184762 0.163376 0)
(0.053244 0.331196 0)
(0.0689261 0.386294 0)
(0.0536403 0.378707 0)
(0.0145309 0.342764 0)
(-0.0376991 0.298044 0)
(-0.0949065 0.254107 0)
(-0.151908 0.214797 0)
(-0.205785 0.181116 0)
(-0.255133 0.152812 0)
(-0.299457 0.129183 0)
(-0.338766 0.109436 0)
(-0.373315 0.0928449 0)
(-0.403465 0.0787907 0)
(-0.429599 0.0667662 0)
(-0.452086 0.0563625 0)
(-0.471259 0.047252 0)
(-0.487409 0.0391711 0)
(-0.500784 0.031907 0)
(-0.511593 0.0252858 0)
(-0.520004 0.0191637 0)
(-0.526155 0.0134196 0)
(-0.530149 0.00794973 0)
(-0.532062 0.00266296 0)
(-0.531945 -0.00252293 0)
(-0.529824 -0.00768444 0)
(-0.525703 -0.0128952 0)
(-0.519562 -0.0182289 0)
(-0.511361 -0.0237619 0)
(-0.501039 -0.0295762 0)
(-0.48851 -0.0357632 0)
(-0.473666 -0.0424278 0)
(-0.456376 -0.0496931 0)
(-0.436482 -0.057707 0)
(-0.413802 -0.0666497 0)
(-0.388129 -0.0767434 0)
(-0.359237 -0.0882638 0)
(-0.326894 -0.101553 0)
(-0.290879 -0.117031 0)
(-0.25103 -0.135207 0)
(-0.207318 -0.156669 0)
(-0.159981 -0.182036 0)
(-0.109743 -0.211822 0)
(-0.0581608 -0.246115 0)
(-0.00811128 -0.283884 0)
(0.0356367 -0.321618 0)
(0.0658997 -0.350865 0)
(0.0735248 -0.35443 0)
(0.0532011 -0.301966 0)
(0.0179024 -0.148473 0)
(0.0119815 0.1345 0)
(0.0409924 0.300003 0)
(0.0657556 0.376982 0)
(0.0694412 0.394145 0)
(0.0518134 0.377142 0)
(0.0189091 0.343802 0)
(-0.0230292 0.304895 0)
(-0.0690257 0.266212 0)
(-0.115582 0.230466 0)
(-0.160486 0.198642 0)
(-0.202471 0.170835 0)
(-0.240902 0.146734 0)
(-0.275544 0.125876 0)
(-0.306393 0.107775 0)
(-0.333573 0.0919767 0)
(-0.357271 0.0780813 0)
(-0.377692 0.0657465 0)
(-0.395041 0.0546825 0)
(-0.409509 0.0446454 0)
(-0.421264 0.0354292 0)
(-0.430452 0.0268588 0)
(-0.437193 0.0187837 0)
(-0.441583 0.0110725 0)
(-0.443696 0.00360842 0)
(-0.443583 -0.00371472 0)
(-0.441273 -0.010996 0)
(-0.436776 -0.0183307 0)
(-0.430085 -0.025813 0)
(-0.421172 -0.0335396 0)
(-0.409993 -0.0416127 0)
(-0.396488 -0.0501434 0)
(-0.380582 -0.0592559 0)
(-0.362188 -0.0690922 0)
(-0.341207 -0.0798166 0)
(-0.317538 -0.0916221 0)
(-0.291083 -0.104735 0)
(-0.261762 -0.119422 0)
(-0.22954 -0.135989 0)
(-0.19446 -0.154777 0)
(-0.156707 -0.176142 0)
(-0.116696 -0.200402 0)
(-0.0752093 -0.227727 0)
(-0.0335807 -0.257921 0)
(0.00606148 -0.290026 0)
(0.0405596 -0.321615 0)
(0.0656273 -0.347675 0)
(0.0760916 -0.358985 0)
(0.0672032 -0.340254 0)
(0.0401533 -0.269167 0)
(0.0114457 -0.120196 0)
(0.00790044 0.113871 0)
(0.0312633 0.270475 0)
(0.0578913 0.358552 0)
(0.0716769 0.393726 0)
(0.0687137 0.39375 0)
(0.0513316 0.373161 0)
(0.0234785 0.342216 0)
(-0.010896 0.307438 0)
(-0.0484936 0.27261 0)
(-0.0868625 0.239705 0)
(-0.124324 0.209589 0)
(-0.159805 0.182494 0)
(-0.192675 0.158319 0)
(-0.222602 0.136805 0)
(-0.249452 0.11763 0)
(-0.273209 0.100469 0)
(-0.293932 0.0850128 0)
(-0.311716 0.0709805 0)
(-0.32667 0.058124 0)
(-0.338906 0.0462245 0)
(-0.348529 0.0350894 0)
(-0.355631 0.0245491 0)
(-0.360291 0.0144524 0)
(-0.362574 0.00466263 0)
(-0.362525 -0.00494531 0)
(-0.360179 -0.0144887 0)
(-0.35555 -0.0240801 0)
(-0.348645 -0.0338297 0)
(-0.339453 -0.0438491 0)
(-0.327957 -0.0542537 0)
(-0.314129 -0.0651658 0)
(-0.297938 -0.0767181 0)
(-0.279351 -0.0890565 0)
(-0.258344 -0.102343 0)
(-0.234906 -0.116758 0)
(-0.209058 -0.132501 0)
(-0.180873 -0.149786 0)
(-0.150501 -0.168833 0)
(-0.11822 -0.189843 0)
(-0.0844894 -0.212955 0)
(-0.0500331 -0.238164 0)
(-0.0159448 -0.265177 0)
(0.0161942 -0.293171 0)
(0.044208 -0.320418 0)
(0.065308 -0.343707 0)
(0.0762987 -0.357581 0)
(0.0741519 -0.353483 0)
(0.0573723 -0.319168 0)
(0.0300913 -0.239371 0)
(0.00745064 -0.100293 0)
(0.00545658 0.0986613 0)
(0.0242662 0.244429 0)
(0.0497021 0.336832 0)
(0.0681822 0.384034 0)
(0.0744934 0.397807 0)
(0.0685763 0.389268 0)
(0.0524192 0.3673 0)
(0.0287387 0.338298 0)
(0.000233889 0.3065 0)
(-0.0308007 0.274509 0)
(-0.0625869 0.243797 0)
(-0.0938333 0.215094 0)
(-0.12365 0.188676 0)
(-0.151459 0.164551 0)
(-0.176903 0.142581 0)
(-0.199788 0.12256 0)
(-0.220023 0.104252 0)
(-0.237587 0.0874186 0)
(-0.2525 0.0718341 0)
(-0.264806 0.0572869 0)
(-0.27456 0.0435832 0)
(-0.281819 0.0305467 0)
(-0.286638 0.0180161 0)
(-0.289066 0.00584353 0)
(-0.289142 -0.00610853 0)
(-0.286899 -0.0179692 0)
(-0.282361 -0.029862 0)
(-0.275545 -0.0419072 0)
(-0.266463 -0.0542241 0)
(-0.255124 -0.0669332 0)
(-0.241537 -0.0801585 0)
(-0.225717 -0.0940293 0)
(-0.207692 -0.108681 0)
(-0.187509 -0.124256 0)
(-0.165249 -0.140901 0)
(-0.141044 -0.158763 0)
(-0.115096 -0.177974 0)
(-0.0877093 -0.198639 0)
(-0.0593316 -0.220793 0)
(-0.0306 -0.244344 0)
(-0.00240089 -0.268978 0)
(0.0240688 -0.294015 0)
(0.0472546 -0.318182 0)
(0.0652449 -0.339308 0)
(0.0758909 -0.353924 0)
(0.0771449 -0.356824 0)
(0.0676758 -0.340739 0)
(0.0479462 -0.296439 0)
(0.022934 -0.213876 0)
(0.00507187 -0.0858538 0)
(0.00397399 0.0870289 0)
(0.0193179 0.221948 0)
(0.0425122 0.314703 0)
(0.0626527 0.369361 0)
(0.0744527 0.393529 0)
(0.0765375 0.395381 0)
(0.0694819 0.382185 0)
(0.0548907 0.359719 0)
(0.0347452 0.332214 0)
(0.0109709 0.302568 0)
(-0.0147718 0.272647 0)
(-0.0411525 0.243572 0)
(-0.0671605 0.215953 0)
(-0.0920606 0.190062 0)
(-0.115339 0.165962 0)
(-0.136652 0.14359 0)
(-0.155782 0.122812 0)
(-0.172598 0.103457 0)
(-0.187034 0.0853431 0)
(-0.199065 0.0682849 0)
(-0.208692 0.0521036 0)
(-0.215933 0.0366287 0)
(-0.220814 0.0217003 0)
(-0.223364 0.00716775 0)
(-0.223615 -0.00711022 0)
(-0.221597 -0.0212674 0)
(-0.217338 -0.0354313 0)
(-0.210869 -0.0497248 0)
(-0.202219 -0.0642676 0)
(-0.191427 -0.079177 0)
(-0.178536 -0.0945693 0)
(-0.163607 -0.11056 0)
(-0.146721 -0.127261 0)
(-0.127993 -0.144782 0)
(-0.107582 -0.16322 0)
(-0.0857092 -0.182653 0)
(-0.0626761 -0.203122 0)
(-0.0388942 -0.224602 0)
(-0.0149125 -0.246964 0)
(0.00854737 -0.269907 0)
(0.03056 -0.29287 0)
(0.0499746 -0.314891 0)
(0.0654235 -0.334437 0)
(0.0753913 -0.349178 0)
(0.0783961 -0.355745 0)
(0.0733438 -0.349531 0)
(0.0600471 -0.324684 0)
(0.0399593 -0.274482 0)
(0.0178942 -0.192456 0)
(0.00363041 -0.0750084 0)
(0.00303607 0.0778044 0)
(0.0157658 0.202593 0)
(0.0365364 0.29349 0)
(0.0567265 0.352348 0)
(0.071513 0.384 0)
(0.0789249 0.394318 0)
(0.0786299 0.389034 0)
(0.071364 0.373106 0)
(0.0584343 0.350472 0)
(0.0413245 0.324064 0)
(0.0214575 0.295946 0)
(7.66859e-05 0.2675 0)
(-0.0217955 0.239595 0)
(-0.0433553 0.212736 0)
(-0.0639933 0.187178 0)
(-0.0832619 0.163005 0)
(-0.100843 0.140199 0)
(-0.116517 0.118672 0)
(-0.130139 0.0983025 0)
(-0.141622 0.0789463 0)
(-0.150913 0.0604528 0)
(-0.15799 0.0426699 0)
(-0.16285 0.0254491 0)
(-0.165503 0.00864671 0)
(-0.165966 -0.00787423 0)
(-0.164266 -0.0242444 0)
(-0.160436 -0.040588 0)
(-0.154514 -0.0570235 0)
(-0.146549 -0.0736633 0)
(-0.136602 -0.090614 0)
(-0.124748 -0.107976 0)
(-0.111086 -0.125842 0)
(-0.0957449 -0.144292 0)
(-0.0788922 -0.163393 0)
(-0.0607471 -0.183185 0)
(-0.0415946 -0.20367 0)
(-0.0218026 -0.224793 0)
(-0.00184102 -0.246411 0)
(0.0176984 -0.268248 0)
(0.036085 -0.289838 0)
(0.0524397 -0.310439 0)
(0.0657452 -0.328926 0)
(0.0748892 -0.343664 0)
(0.0787662 -0.352362 0)
(0.076469 -0.351952 0)
(0.0675986 -0.338549 0)
(0.0526497 -0.307588 0)
(0.0334606 -0.254273 0)
(0.0142862 -0.174491 0)
(0.00271873 -0.0665825 0)
(0.00241072 0.0702675 0)
(0.0131444 0.185851 0)
(0.0316366 0.273723 0)
(0.0510634 0.33455 0)
(0.0672366 0.371359 0)
(0.0780151 0.388304 0)
(0.0825455 0.389802 0)
(0.0809471 0.379965 0)
(0.0739678 0.362294 0)
(0.062664 0.339576 0)
(0.0481744 0.313918 0)
(0.0315831 0.286842 0)
(0.0138477 0.259397 0)
(-0.00422864 0.232268 0)
(-0.0219974 0.205875 0)
(-0.0389513 0.180444 0)
(-0.054704 0.156069 0)
(-0.0689691 0.132756 0)
(-0.0815396 0.11045 0)
(-0.0922711 0.08906 0)
(-0.101067 0.0684739 0)
(-0.107867 0.0485679 0)
(-0.112639 0.0292143 0)
(-0.115372 0.010285 0)
(-0.116071 -0.00834501 0)
(-0.114757 -0.0267958 0)
(-0.111462 -0.0451816 0)
(-0.106233 -0.0636093 0)
(-0.0991322 -0.0821778 0)
(-0.0902378 -0.100977 0)
(-0.0796513 -0.120083 0)
(-0.0675016 -0.139561 0)
(-0.053952 -0.159454 0)
(-0.0392089 -0.17978 0)
(-0.0235318 -0.200519 0)
(-0.00724478 -0.221601 0)
(0.00925141 -0.242881 0)
(0.0254674 -0.264112 0)
(0.0408157 -0.284904 0)
(0.0546072 -0.304669 0)
(0.0660597 -0.322558 0)
(0.0743269 -0.337378 0)
(0.0785594 -0.347505 0)
(0.078014 -0.35081 0)
(0.0722269 -0.344616 0)
(0.0612595 -0.32574 0)
(0.0459612 -0.290694 0)
(0.0282179 -0.236095 0)
(0.0116337 -0.159355 0)
(0.00211186 -0.0598514 0)
(0.00197089 0.0639665 0)
(0.011147 0.17127 0)
(0.0275987 0.255559 0)
(0.0458782 0.316866 0)
(0.0624332 0.357053 0)
(0.0751809 0.379025 0)
(0.0830109 0.386136 0)
(0.0856385 0.381718 0)
(0.0833853 0.368785 0)
(0.0769373 0.349882 0)
(0.0671516 0.327046 0)
(0.0549224 0.301841 0)
(0.0410967 0.275418 0)
(0.0264284 0.24859 0)
(0.0115599 0.221906 0)
(-0.00298005 0.195716 0)
(-0.016768 0.17022 0)
(-0.029473 0.145511 0)
(-0.0408428 0.121607 0)
(-0.05069 0.0984756 0)
(-0.0588798 0.0760505 0)
(-0.0653196 0.0542437 0)
(-0.0699511 0.0329554 0)
(-0.0727436 0.0120803 0)
(-0.0736894 -0.00848767 0)
(-0.0728011 -0.0288518 0)
(-0.0701101 -0.0491098 0)
(-0.0656665 -0.0693518 0)
(-0.0595403 -0.0896574 0)
(-0.0518241 -0.110094 0)
(-0.0426364 -0.130711 0)
(-0.0321264 -0.15154 0)
(-0.0204806 -0.172585 0)
(-0.0079286 -0.193814 0)
(0.0052483 -0.215151 0)
(0.0187097 -0.236457 0)
(0.0320487 -0.257511 0)
(0.0447865 -0.277984 0)
(0.0563716 -0.297401 0)
(0.0661867 -0.3151 0)
(0.073568 -0.330182 0)
(0.0778444 -0.341454 0)
(0.0784037 -0.347384 0)
(0.0747935 -0.346062 0)
(0.0668663 -0.335215 0)
(0.054961 -0.312288 0)
(0.0400705 -0.274649 0)
(0.0239614 -0.21993 0)
(0.00962416 -0.146523 0)
(0.00168673 -0.0543573 0)
(0.00164591 0.0586084 0)
(0.00957507 0.15849 0)
(0.0242243 0.23899 0)
(0.0411952 0.299808 0)
(0.0575057 0.342049 0)
(0.0712392 0.367729 0)
(0.0811968 0.379364 0)
(0.0868511 0.379613 0)
(0.0882193 0.371016 0)
(0.0856895 0.355828 0)
(0.0798665 0.335949 0)
(0.0714527 0.31291 0)
(0.0611638 0.287901 0)
(0.0496746 0.261813 0)
(0.0375888 0.235289 0)
(0.0254267 0.208776 0)
(0.0136224 0.182566 0)
(0.00252953 0.156834 0)
(-0.00757126 0.131669 0)
(-0.0164624 0.107099 0)
(-0.0239801 0.0831052 0)
(-0.0300059 0.0596409 0)
(-0.0344594 0.0366397 0)
(-0.0372921 0.0140246 0)
(-0.0384836 -0.00828621 0)
(-0.0380382 -0.0303739 0)
(-0.0359833 -0.052315 0)
(-0.0323692 -0.074178 0)
(-0.0272701 -0.0960193 0)
(-0.0207854 -0.11788 0)
(-0.0130433 -0.139781 0)
(-0.00420441 -0.161717 0)
(0.00553379 -0.183653 0)
(0.0159318 -0.20551 0)
(0.0267028 -0.22716 0)
(0.0375086 -0.248406 0)
(0.0479559 -0.268964 0)
(0.0575973 -0.288444 0)
(0.0659357 -0.306316 0)
(0.0724389 -0.321881 0)
(0.0765641 -0.334234 0)
(0.0778006 -0.342234 0)
(0.0757325 -0.344476 0)
(0.070126 -0.339292 0)
(0.0610425 -0.324787 0)
(0.0489685 -0.298937 0)
(0.0349144 -0.259772 0)
(0.0204571 -0.205642 0)
(0.00805527 -0.135579 0)
(0.00137464 -0.0498015 0)
(0.00139521 0.0539967 0)
(0.0082993 0.147233 0)
(0.0213534 0.223945 0)
(0.0369654 0.283662 0)
(0.0526411 0.326997 0)
(0.0666711 0.35533 0)
(0.0778677 0.370534 0)
(0.0855762 0.37471 0)
(0.0896094 0.369961 0)
(0.0901293 0.358248 0)
(0.0875296 0.341295 0)
(0.0823361 0.320554 0)
(0.07513 0.297205 0)
(0.0664921 0.272172 0)
(0.0569678 0.24616 0)
(0.0470466 0.219687 0)
(0.0371527 0.19312 0)
(0.0276438 0.166707 0)
(0.0188135 0.140601 0)
(0.0108973 0.114886 0)
(0.00407822 0.0895956 0)
(-0.00150605 0.0647243 0)
(-0.00575764 0.0402428 0)
(-0.00861336 0.0161057 0)
(-0.0100408 -0.00774058 0)
(-0.0100354 -0.0313512 0)
(-0.00861912 -0.054778 0)
(-0.00583929 -0.0780644 0)
(-0.00176952 -0.101241 0)
(0.00348916 -0.12432 0)
(0.00980611 -0.147293 0)
(0.0170182 -0.170118 0)
(0.0249269 -0.192723 0)
(0.0332944 -0.214986 0)
(0.0418416 -0.236731 0)
(0.0502457 -0.257715 0)
(0.0581411 -0.277607 0)
(0.0651235 -0.295972 0)
(0.0707592 -0.312253 0)
(0.0746023 -0.325741 0)
(0.0762223 -0.335557 0)
(0.0752447 -0.340637 0)
(0.0714066 -0.339723 0)
(0.0646284 -0.331382 0)
(0.0550986 -0.314055 0)
(0.0433639 -0.286149 0)
(0.0303815 -0.2462 0)
(0.0175203 -0.193072 0)
(0.00679413 -0.126207 0)
(0.00113582 -0.0459821 0)
(0.00119446 0.0499954 0)
(0.00723392 0.137286 0)
(0.0188629 0.210336 0)
(0.0331184 0.268587 0)
(0.0479154 0.312331 0)
(0.0617568 0.342495 0)
(0.0735226 0.360464 0)
(0.0825082 0.36788 0)
(0.0883997 0.366473 0)
(0.091196 0.357918 0)
(0.0911228 0.343751 0)
(0.0885536 0.325318 0)
(0.0839429 0.303752 0)
(0.0777744 0.279981 0)
(0.0705244 0.254739 0)
(0.0626378 0.228595 0)
(0.0545137 0.201972 0)
(0.0464994 0.175176 0)
(0.0388884 0.148418 0)
(0.0319227 0.121836 0)
(0.0257961 0.0955099 0)
(0.0206584 0.0694779 0)
(0.01662 0.043748 0)
(0.013756 0.0183086 0)
(0.0121091 -0.00686342 0)
(0.0116925 -0.031795 0)
(0.0124915 -0.0565108 0)
(0.014464 -0.0810274 0)
(0.0175408 -0.105348 0)
(0.0216244 -0.129456 0)
(0.0265878 -0.15331 0)
(0.0322729 -0.176839 0)
(0.038488 -0.199931 0)
(0.0450067 -0.222428 0)
(0.0515666 -0.244115 0)
(0.0578702 -0.26471 0)
(0.0635876 -0.283848 0)
(0.0683634 -0.301069 0)
(0.0718282 -0.315803 0)
(0.0736173 -0.327353 0)
(0.0733974 -0.334887 0)
(0.0709035 -0.337428 0)
(0.0659859 -0.333868 0)
(0.0586666 -0.322989 0)
(0.0492017 -0.303517 0)
(0.0381417 -0.274209 0)
(0.0263556 -0.23398 0)
(0.01501 -0.182061 0)
(0.00575167 -0.11817 0)
(0.000946202 -0.0427593 0)
(0.00102841 0.046508 0)
(0.00632075 0.128491 0)
(0.0166602 0.198076 0)
(0.0295842 0.254669 0)
(0.0433484 0.298347 0)
(0.0566579 0.329714 0)
(0.0684879 0.349785 0)
(0.078135 0.359837 0)
(0.0852156 0.36128 0)
(0.0896174 0.355532 0)
(0.0914385 0.343944 0)
(0.0909268 0.327741 0)
(0.0884245 0.307989 0)
(0.0843224 0.285595 0)
(0.0790247 0.2613 0)
(0.0729241 0.235701 0)
(0.0663846 0.209261 0)
(0.0597322 0.182334 0)
(0.0532502 0.155179 0)
(0.0471779 0.12798 0)
(0.0417116 0.100861 0)
(0.0370072 0.0739013 0)
(0.033183 0.0471459 0)
(0.0303223 0.0206172 0)
(0.0284767 -0.00567668 0)
(0.0276677 -0.0317334 0)
(0.0278882 -0.0575494 0)
(0.0291038 -0.0831138 0)
(0.0312524 -0.108402 0)
(0.0342445 -0.133368 0)
(0.0379617 -0.157942 0)
(0.0422567 -0.18202 0)
(0.0469513 -0.205459 0)
(0.051837 -0.228067 0)
(0.0566749 -0.249598 0)
(0.0611983 -0.26974 0)
(0.065117 -0.288105 0)
(0.0681257 -0.304219 0)
(0.0699159 -0.317514 0)
(0.0701947 -0.327317 0)
(0.0687093 -0.332851 0)
(0.0652785 -0.333232 0)
(0.0598317 -0.327492 0)
(0.0524521 -0.3146 0)
(0.0434213 -0.293523 0)
(0.0332595 -0.263292 0)
(0.022732 -0.223113 0)
(0.0128197 -0.172477 0)
(0.00486676 -0.111287 0)
(0.000790574 -0.040034 0)
(0.00088711 0.0434648 0)
(0.00551936 0.120725 0)
(0.014676 0.187089 0)
(0.0263009 0.241952 0)
(0.0389343 0.285247 0)
(0.0514661 0.317348 0)
(0.0629789 0.338987 0)
(0.0728019 0.351155 0)
(0.0805226 0.354994 0)
(0.0859585 0.351699 0)
(0.0891154 0.342447 0)
(0.0901414 0.328336 0)
(0.0892835 0.310361 0)
(0.0868483 0.289384 0)
(0.08317 0.266141 0)
(0.0785863 0.241238 0)
(0.0734204 0.215166 0)
(0.0679703 0.188312 0)
(0.062501 0.160974 0)
(0.0572419 0.133376 0)
(0.0523852 0.105681 0)
(0.0480873 0.0780072 0)
(0.0444697 0.0504334 0)
(0.0416214 0.0230152 0)
(0.0396004 -0.00420857 0)
(0.0384357 -0.0312064 0)
(0.0381287 -0.057947 0)
(0.0386536 -0.084392 0)
(0.039958 -0.110489 0)
(0.0419633 -0.136166 0)
(0.0445639 -0.161324 0)
(0.0476274 -0.18583 0)
(0.050994 -0.209513 0)
(0.0544776 -0.232154 0)
(0.0578669 -0.25348 0)
(0.060929 -0.273156 0)
(0.0634142 -0.29078 0)
(0.0650652 -0.305873 0)
(0.0656289 -0.317878 0)
(0.0648732 -0.326152 0)
(0.062609 -0.329976 0)
(0.0587166 -0.328555 0)
(0.0531768 -0.321045 0)
(0.0461034 -0.306579 0)
(0.0377754 -0.284317 0)
(0.0286625 -0.25351 0)
(0.0194222 -0.213579 0)
(0.0108692 -0.164207 0)
(0.00409647 -0.105422 0)
(0.000658906 -0.0377349 0)
(0.000763805 0.0408144 0)
(0.00480108 0.113895 0)
(0.0128585 0.177312 0)
(0.0232166 0.230458 0)
(0.0346563 0.273173 0)
(0.046233 0.305662 0)
(0.0571394 0.328448 0)
(0.0667561 0.342295 0)
(0.0746705 0.348125 0)
(0.0806611 0.346942 0)
(0.08467 0.339765 0)
(0.0867697 0.327576 0)
(0.0871293 0.311286 0)
(0.0859819 0.291711 0)
(0.083597 0.269565 0)
(0.080258 0.245453 0)
(0.0762455 0.219879 0)
(0.0718247 0.193255 0)
(0.0672374 0.165909 0)
(0.0626973 0.138097 0)
(0.0583875 0.110016 0)
(0.05446 0.0818173 0)
(0.0510359 0.0536122 0)
(0.0482064 0.0254867 0)
(0.0460345 -0.00249105 0)
(0.0445556 -0.0302618 0)
(0.043779 -0.0577676 0)
(0.0436888 -0.0849436 0)
(0.0442438 -0.111712 0)
(0.0453784 -0.137975 0)
(0.0470027 -0.163607 0)
(0.0490022 -0.188452 0)
(0.0512388 -0.212311 0)
(0.0535515 -0.234943 0)
(0.0557588 -0.256053 0)
(0.0576624 -0.275291 0)
(0.0590521 -0.292245 0)
(0.0597151 -0.306438 0)
(0.0594463 -0.317326 0)
(0.0580638 -0.324301 0)
(0.0554272 -0.326698 0)
(0.0514594 -0.323803 0)
(0.0461708 -0.31488 0)
(0.0396839 -0.299198 0)
(0.0322561 -0.276075 0)
(0.0242954 -0.244931 0)
(0.0163539 -0.205353 0)
(0.00909816 -0.157162 0)
(0.00341 -0.100476 0)
(0.000544364 -0.0358103 0)
(0.000653789 0.0385185 0)
(0.00414518 0.107932 0)
(0.0111684 0.16869 0)
(0.0202895 0.220196 0)
(0.0304943 0.262223 0)
(0.0409865 0.294858 0)
(0.0510666 0.318463 0)
(0.0601774 0.333625 0)
(0.0679252 0.341091 0)
(0.0740729 0.341702 0)
(0.0785224 0.33634 0)
(0.0812912 0.32588 0)
(0.0824865 0.311151 0)
(0.0822793 0.292919 0)
(0.0808814 0.271867 0)
(0.0785255 0.248591 0)
(0.0754491 0.223601 0)
(0.071883 0.197321 0)
(0.0680424 0.170102 0)
(0.0641215 0.142226 0)
(0.0602902 0.113919 0)
(0.0566923 0.0853592 0)
(0.0534451 0.0566872 0)
(0.0506396 0.0280166 0)
(0.0483415 -0.000557838 0)
(0.0465914 -0.0289512 0)
(0.0454065 -0.0570806 0)
(0.0447806 -0.0848573 0)
(0.0446849 -0.11218 0)
(0.0450683 -0.138926 0)
(0.045858 -0.164949 0)
(0.0469598 -0.190068 0)
(0.0482588 -0.214065 0)
(0.049621 -0.236676 0)
(0.0508952 -0.257593 0)
(0.0519171 -0.276452 0)
(0.0525142 -0.292836 0)
(0.0525134 -0.306271 0)
(0.0517509 -0.31623 0)
(0.0500847 -0.322136 0)
(0.0474103 -0.323374 0)
(0.0436779 -0.3193 0)
(0.0389112 -0.30927 0)
(0.0332256 -0.292663 0)
(0.0268442 -0.268923 0)
(0.0201083 -0.237601 0)
(0.0134688 -0.19841 0)
(0.00746052 -0.151273 0)
(0.00278494 -0.0963711 0)
(0.000442152 -0.0342225 0)
(0.000553685 0.0365483 0)
(0.00353639 0.10278 0)
(0.00957601 0.161183 0)
(0.0174855 0.211169 0)
(0.0264287 0.25247 0)
(0.0357418 0.285084 0)
(0.0448283 0.309257 0)
(0.0531989 0.325437 0)
(0.0604918 0.33423 0)
(0.0664714 0.336346 0)
(0.0710175 0.332548 0)
(0.0741097 0.323614 0)
(0.0758078 0.310299 0)
(0.0762318 0.293318 0)
(0.0755435 0.27332 0)
(0.0739288 0.250886 0)
(0.0715843 0.226523 0)
(0.0687059 0.200663 0)
(0.0654806 0.173671 0)
(0.0620805 0.145849 0)
(0.0586593 0.117446 0)
(0.0553495 0.0886627 0)
(0.052262 0.059665 0)
(0.0494851 0.0305903 0)
(0.0470852 0.00155697 0)
(0.0451073 -0.0273273 0)
(0.0435752 -0.0559572 0)
(0.0424927 -0.0842226 0)
(0.0418434 -0.112001 0)
(0.0415916 -0.139149 0)
(0.0416827 -0.1655 0)
(0.0420437 -0.190854 0)
(0.042584 -0.214974 0)
(0.0431969 -0.237581 0)
(0.0437616 -0.258351 0)
(0.0441466 -0.276913 0)
(0.044214 -0.292844 0)
(0.0438262 -0.305677 0)
(0.0428541 -0.3149 0)
(0.0411872 -0.319963 0)
(0.0387463 -0.320292 0)
(0.0354967 -0.315304 0)
(0.0314631 -0.304427 0)
(0.0267428 -0.28713 0)
(0.021517 -0.262953 0)
(0.0160579 -0.23155 0)
(0.0107204 -0.192728 0)
(0.00592123 -0.146488 0)
(0.00220464 -0.0930527 0)
(0.000348822 -0.0329438 0)
(0.000461005 0.0348821 0)
(0.00296324 0.0983981 0)
(0.00805837 0.154755 0)
(0.0147779 0.203376 0)
(0.0224419 0.243963 0)
(0.0305063 0.276454 0)
(0.0384727 0.301005 0)
(0.0459215 0.317961 0)
(0.0525315 0.327818 0)
(0.0580808 0.331177 0)
(0.0624413 0.328703 0)
(0.0655683 0.32109 0)
(0.0674866 0.30903 0)
(0.0682754 0.293184 0)
(0.0680536 0.274171 0)
(0.0669655 0.252551 0)
(0.0651692 0.228824 0)
(0.0628266 0.203425 0)
(0.0600957 0.176728 0)
(0.0571253 0.149048 0)
(0.0540505 0.12065 0)
(0.0509904 0.0917566 0)
(0.048047 0.0625517 0)
(0.045304 0.0331933 0)
(0.0428268 0.00381972 0)
(0.0406631 -0.0254416 0)
(0.0388429 -0.0544665 0)
(0.037379 -0.0831261 0)
(0.0362675 -0.111279 0)
(0.0354884 -0.138766 0)
(0.0350055 -0.165402 0)
(0.0347674 -0.190971 0)
(0.0347082 -0.215219 0)
(0.0347484 -0.237856 0)
(0.0347967 -0.258545 0)
(0.034753 -0.276907 0)
(0.0345113 -0.292518 0)
(0.0339656 -0.304913 0)
(0.0330158 -0.313593 0)
(0.0315758 -0.31803 0)
(0.0295832 -0.317684 0)
(0.0270098 -0.312017 0)
(0.023872 -0.300515 0)
(0.0202414 -0.282715 0)
(0.0162526 -0.258234 0)
(0.0121081 -0.2268 0)
(0.00807185 -0.188292 0)
(0.00445327 -0.142766 0)
(0.00165658 -0.0904794 0)
(0.000261837 -0.0319543 0)
(0.000373872 0.0335035 0)
(0.00241692 0.0947551 0)
(0.00659758 0.14938 0)
(0.0121445 0.196813 0)
(0.0185182 0.236738 0)
(0.0252835 0.26905 0)
(0.0320348 0.293841 0)
(0.0384232 0.311378 0)
(0.0441731 0.322071 0)
(0.0490853 0.326437 0)
(0.0530341 0.325061 0)
(0.0559615 0.318569 0)
(0.0578675 0.307593 0)
(0.0587992 0.292752 0)
(0.0588391 0.274631 0)
(0.0580949 0.253771 0)
(0.0566891 0.230662 0)
(0.054751 0.205737 0)
(0.0524099 0.179373 0)
(0.0497901 0.151895 0)
(0.0470069 0.123581 0)
(0.0441644 0.0946661 0)
(0.0413537 0.0653514 0)
(0.0386518 0.0358103 0)
(0.0361219 0.00619756 0)
(0.0338128 -0.0233437 0)
(0.0317596 -0.0526736 0)
(0.0299835 -0.0816479 0)
(0.0284926 -0.110111 0)
(0.0272821 -0.137888 0)
(0.0263344 -0.16478 0)
(0.0256196 -0.190558 0)
(0.0250961 -0.214956 0)
(0.0247114 -0.237671 0)
(0.0244029 -0.258357 0)
(0.0241 -0.276629 0)
(0.0237268 -0.292058 0)
(0.023205 -0.304183 0)
(0.0224591 -0.312512 0)
(0.0214223 -0.316532 0)
(0.0200429 -0.315727 0)
(0.018292 -0.309593 0)
(0.016172 -0.297658 0)
(0.0137235 -0.279509 0)
(0.0110316 -0.254816 0)
(0.00822933 -0.223366 0)
(0.00549391 -0.185088 0)
(0.00303558 -0.140079 0)
(0.00113117 -0.0886219 0)
(0.000179286 -0.0312399 0)
(0.000290825 0.0324003 0)
(0.00189051 0.0918265 0)
(0.00517932 0.145038 0)
(0.00956761 0.191478 0)
(0.0146441 0.230821 0)
(0.0200744 0.262934 0)
(0.0255413 0.287865 0)
(0.0307661 0.305823 0)
(0.0355223 0.317157 0)
(0.0396391 0.322316 0)
(0.0430014 0.321827 0)
(0.0455459 0.316258 0)
(0.047256 0.306193 0)
(0.0481534 0.292213 0)
(0.0482907 0.274875 0)
(0.0477429 0.254702 0)
(0.0466 0.232169 0)
(0.0449601 0.207705 0)
(0.0429244 0.181689 0)
(0.0405923 0.154451 0)
(0.0380585 0.126276 0)
(0.0354106 0.0974098 0)
(0.0327271 0.0680642 0)
(0.0300771 0.0384248 0)
(0.0275198 0.00865842 0)
(0.0251038 -0.0210797 0)
(0.022868 -0.0506376 0)
(0.0208413 -0.0798597 0)
(0.0190429 -0.108579 0)
(0.0174826 -0.136609 0)
(0.0161611 -0.163741 0)
(0.0150696 -0.189733 0)
(0.0141905 -0.214312 0)
(0.0134975 -0.237164 0)
(0.012956 -0.257935 0)
(0.0125238 -0.276232 0)
(0.0121527 -0.291624 0)
(0.0117902 -0.303647 0)
(0.0113824 -0.311811 0)
(0.0108775 -0.315615 0)
(0.0102302 -0.314554 0)
(0.00940701 -0.308146 0)
(0.0083917 -0.295946 0)
(0.00719071 -0.277574 0)
(0.00583784 -0.252737 0)
(0.00439745 -0.22126 0)
(0.00296304 -0.183107 0)
(0.00165149 -0.138407 0)
(0.000620893 -0.0874599 0)
(9.96862e-05 -0.0307907 0)
(0.000210684 0.0315633 0)
(0.00137832 0.0895947 0)
(0.00379168 0.141711 0)
(0.00703192 0.187366 0)
(0.0108074 0.22623 0)
(0.0148783 0.258151 0)
(0.0190125 0.283149 0)
(0.0230006 0.301397 0)
(0.0266671 0.313199 0)
(0.029874 0.318958 0)
(0.0325217 0.319155 0)
(0.0345482 0.314315 0)
(0.035926 0.304986 0)
(0.0366573 0.291717 0)
(0.0367692 0.275041 0)
(0.0363077 0.255462 0)
(0.0353327 0.233445 0)
(0.0339129 0.209412 0)
(0.0321217 0.18374 0)
(0.0300338 0.156761 0)
(0.0277224 0.128763 0)
(0.0252574 0.0999975 0)
(0.0227038 0.0706846 0)
(0.0201211 0.0410174 0)
(0.017563 0.0111706 0)
(0.0150769 -0.0186923 0)
(0.012704 -0.0484115 0)
(0.0104798 -0.0778232 0)
(0.00843383 -0.106753 0)
(0.00658975 -0.135007 0)
(0.00496557 -0.162368 0)
(0.00357332 -0.188588 0)
(0.00241886 -0.213385 0)
(0.00150159 -0.236437 0)
(0.000814057 -0.257385 0)
(0.000341814 -0.275827 0)
(6.33254e-05 -0.291326 0)
(-4.96739e-05 -0.303414 0)
(-3.15167e-05 -0.3116 0)
(7.89659e-05 -0.31538 0)
(0.000240565 -0.314257 0)
(0.000412333 -0.307754 0)
(0.000557118 -0.295441 0)
(0.000645304 -0.276954 0)
(0.000658535 -0.252021 0)
(0.000592837 -0.220489 0)
(0.000460111 -0.182346 0)
(0.000287503 -0.137739 0)
(0.000119669 -0.0869806 0)
(2.18479e-05 -0.0306006 0)
(0.000132452 0.0309866 0)
(0.0008755 0.0880474 0)
(0.00242435 0.13939 0)
(0.00452393 0.184475 0)
(0.00699672 0.222974 0)
(0.00969339 0.254728 0)
(0.0124641 0.279743 0)
(0.0151685 0.298169 0)
(0.017683 0.310283 0)
(0.0199048 0.316462 0)
(0.0217537 0.317153 0)
(0.0231727 0.312853 0)
(0.0241279 0.304084 0)
(0.024606 0.29137 0)
(0.0246117 0.275225 0)
(0.0241651 0.256138 0)
(0.0232979 0.234563 0)
(0.0220504 0.210916 0)
(0.0204689 0.185568 0)
(0.0186033 0.15885 0)
(0.0165047 0.131052 0)
(0.0142244 0.102428 0)
(0.011813 0.0732002 0)