/*--------------------------------*- C++ -*----------------------------------*\
  =========                 |
  \\      /  F ield         | OpenFOAM: The Open Source CFD Toolbox
   \\    /   O peration     | Website:  https://openfoam.org
    \\  /    A nd           | Version:  7
     \\/     M anipulation  |
\*---------------------------------------------------------------------------*/
FoamFile
{
    version     2.0;
    format      ascii;
    class       surfaceScalarField;
    location    "0.024";
    object      phi;
}
// * * * * * * * * * * * * * * * * * * * * * * * * * * * * * * * * * * * * * //

dimensions      [0 3 -1 0 0 0 0];

internalField   nonuniform List<scalar> 
4900
(
8.50577e-10
-8.50782e-10
1.47293e-09
-6.22334e-10
1.04868e-09
4.24246e-10
-6.29566e-10
1.67825e-09
-3.54969e-09
2.92009e-09
-7.59275e-09
4.04304e-09
-1.25927e-08
4.99996e-09
-1.83699e-08
5.77721e-09
-2.47456e-08
6.37567e-09
-3.15483e-08
6.80271e-09
-3.86172e-08
7.06889e-09
-4.58035e-08
7.18629e-09
-5.29711e-08
7.16758e-09
-5.99965e-08
7.02547e-09
-6.67689e-08
6.77241e-09
-7.31893e-08
6.42041e-09
-7.91702e-08
5.9809e-09
-8.46349e-08
5.46465e-09
-8.95166e-08
4.88178e-09
-9.37584e-08
4.24179e-09
-9.73121e-08
3.55362e-09
-1.00138e-07
2.82574e-09
-1.02204e-07
2.06624e-09
-1.03487e-07
1.28297e-09
-1.03971e-07
4.83709e-10
-1.03647e-07
-3.23756e-10
-1.02515e-07
-1.13146e-09
-1.00584e-07
-1.93115e-09
-9.78702e-08
-2.71414e-09
-9.43989e-08
-3.47124e-09
-9.02062e-08
-4.19268e-09
-8.53382e-08
-4.86805e-09
-7.98519e-08
-5.48631e-09
-7.38161e-08
-6.0358e-09
-6.73118e-08
-6.50432e-09
-6.04326e-08
-6.87918e-09
-5.32852e-08
-7.14743e-09
-4.59892e-08
-7.29597e-09
-3.86774e-08
-7.31181e-09
-3.1495e-08
-7.18239e-09
-2.45991e-08
-6.89589e-09
-1.81572e-08
-6.4419e-09
-1.2345e-08
-5.81222e-09
-7.34244e-09
-5.00254e-09
-3.32685e-09
-4.01562e-09
-4.57717e-10
-2.86915e-09
1.15749e-09
-1.61522e-09
1.51927e-09
-3.61771e-10
8.56933e-10
6.62349e-10
8.56931e-10
6.33118e-10
-1.48389e-09
-2.89133e-11
3.96504e-11
-3.06091e-09
3.45627e-09
-8.94328e-09
7.56062e-09
-1.77019e-08
1.16787e-08
-2.91315e-08
1.54727e-08
-4.29007e-08
1.87692e-08
-5.86146e-08
2.1491e-08
-7.5854e-08
2.36151e-08
-9.41995e-08
2.51483e-08
-1.13245e-07
2.61146e-08
-1.32607e-07
2.6548e-08
-1.51927e-07
2.64877e-08
-1.70877e-07
2.59754e-08
-1.89158e-07
2.50536e-08
-2.06502e-07
2.37642e-08
-2.22669e-07
2.21481e-08
-2.37449e-07
2.02444e-08
-2.50657e-07
1.80901e-08
-2.62136e-07
1.57207e-08
-2.71752e-07
1.31696e-08
-2.79395e-07
1.04688e-08
-2.84978e-07
7.64913e-09
-2.88435e-07
4.74053e-09
-2.89724e-07
1.77264e-09
-2.88823e-07
-1.22475e-09
-2.85733e-07
-4.22132e-09
-2.80479e-07
-7.18569e-09
-2.73108e-07
-1.00851e-08
-2.63694e-07
-1.2885e-08
-2.52338e-07
-1.55489e-08
-2.39168e-07
-1.80383e-08
-2.24341e-07
-2.03125e-08
-2.08048e-07
-2.23289e-08
-1.90509e-07
-2.40433e-08
-1.71978e-07
-2.54103e-08
-1.52742e-07
-2.63839e-08
-1.33119e-07
-2.69187e-08
-1.13461e-07
-2.69705e-08
-9.41448e-08
-2.64981e-08
-7.55751e-08
-2.54656e-08
-5.81726e-08
-2.38444e-08
-4.23663e-08
-2.16185e-08
-2.85777e-08
-1.87912e-08
-1.7196e-08
-1.53973e-08
-8.53817e-09
-1.1527e-08
-2.7866e-09
-7.36677e-09
1.18011e-10
-3.26636e-09
6.71956e-10
1.08402e-10
1.52889e-09
-3.80813e-10
-1.10308e-09
-3.37448e-09
3.03333e-09
-1.00132e-08
1.00949e-08
-2.06743e-08
1.82217e-08
-3.53708e-08
2.63753e-08
-5.3839e-08
3.39408e-08
-7.56411e-08
4.05713e-08
-1.0024e-07
4.60902e-08
-1.27051e-07
5.04258e-08
-1.55473e-07
5.35706e-08
-1.84916e-07
5.55573e-08
-2.14812e-07
5.64434e-08
-2.44625e-07
5.63008e-08
-2.73859e-07
5.52102e-08
-3.02061e-07
5.32556e-08
-3.28819e-07
5.05221e-08
-3.53765e-07
4.70935e-08
-3.76572e-07
4.30512e-08
-3.96955e-07
3.84733e-08
-4.14669e-07
3.34346e-08
-4.29506e-07
2.80066e-08
-4.41295e-07
2.22578e-08
-4.499e-07
1.62545e-08
-4.55221e-07
1.00613e-08
-4.57191e-07
3.74245e-09
-4.55777e-07
-2.63792e-09
-4.50984e-07
-9.0143e-09
-4.42851e-07
-1.53191e-08
-4.31454e-07
-2.14821e-08
-4.1691e-07
-2.74293e-08
-3.99375e-07
-3.30832e-08
-3.79052e-07
-3.83621e-08
-3.56184e-07
-4.31801e-08
-3.31065e-07
-4.7448e-08
-3.04035e-07
-5.10736e-08
-2.75482e-07
-5.39631e-08
-2.45843e-07
-5.60224e-08
-2.15602e-07
-5.71595e-08
-1.85286e-07
-5.72871e-08
-1.55458e-07
-5.63261e-08
-1.26713e-07
-5.42104e-08
-9.96637e-08
-5.08936e-08
-7.49235e-08
-4.63588e-08
-5.30816e-08
-4.06331e-08
-3.4668e-08
-3.38109e-08
-2.01016e-08
-2.60933e-08
-9.61737e-09
-1.7851e-08
-3.16586e-09
-9.71786e-09
-3.1483e-10
-2.74263e-09
1.21407e-09
-1.60052e-09
4.97457e-10
-7.42164e-09
8.85444e-09
-1.80884e-08
2.07617e-08
-3.3818e-08
3.39513e-08
-5.45052e-08
4.70625e-08
-7.97931e-08
5.92286e-08
-1.09146e-07
6.99245e-08
-1.41916e-07
7.88599e-08
-1.7739e-07
8.59001e-08
-2.14832e-07
9.10127e-08
-2.53508e-07
9.42331e-08
-2.92705e-07
9.56407e-08
-3.31748e-07
9.53434e-08
-3.70004e-07
9.34658e-08
-4.0689e-07
9.01417e-08
-4.41876e-07
8.55085e-08
-4.74486e-07
7.97035e-08
-5.04296e-07
7.28612e-08
-5.30935e-07
6.51121e-08
-5.54082e-07
5.65817e-08
-5.73466e-07
4.73907e-08
-5.88864e-07
3.76553e-08
-6.00097e-07
2.74883e-08
-6.07036e-07
1.69999e-08
-6.09593e-07
6.29953e-09
-6.07728e-07
-4.50311e-09
-6.01446e-07
-1.52963e-08
-5.908e-07
-2.59651e-08
-5.75892e-07
-3.63901e-08
-5.56875e-07
-4.64461e-08
-5.33956e-07
-5.60022e-08
-5.07397e-07
-6.49207e-08
-4.77519e-07
-7.30582e-08
-4.44702e-07
-8.02656e-08
-4.09385e-07
-8.63901e-08
-3.72071e-07
-9.1277e-08
-3.33321e-07
-9.47726e-08
-2.93752e-07
-9.67283e-08
-2.54034e-07
-9.70052e-08
-2.14879e-07
-9.54808e-08
-1.77033e-07
-9.2057e-08
-1.41255e-07
-8.66717e-08
-1.08299e-07
-7.93144e-08
-7.88834e-08
-7.00486e-08
-5.36495e-08
-5.90448e-08
-3.31116e-08
-4.66312e-08
-1.75928e-08
-3.33698e-08
-7.15216e-09
-2.01585e-08
-1.51606e-09
-8.37871e-09
-3.01974e-10
-2.8288e-09
3.32624e-09
-1.15797e-08
1.76053e-08
-2.64221e-08
3.56041e-08
-4.73085e-08
5.48377e-08
-7.39569e-08
7.37109e-08
-1.05881e-07
9.11525e-08
-1.42435e-07
1.06479e-07
-1.82866e-07
1.19291e-07
-2.26353e-07
1.29387e-07
-2.72047e-07
1.36707e-07
-3.19098e-07
1.41284e-07
-3.66678e-07
1.43221e-07
-4.13995e-07
1.42661e-07
-4.60306e-07
1.39777e-07
-5.04923e-07
1.34759e-07
-5.47218e-07
1.27803e-07
-5.86622e-07
1.19108e-07
-6.22631e-07
1.0887e-07
-6.54801e-07
9.72822e-08
-6.82749e-07
8.45288e-08
-7.06147e-07
7.07896e-08
-7.2473e-07
5.62377e-08
-7.38283e-07
4.10416e-08
-7.4665e-07
2.53666e-08
-7.49727e-07
9.37652e-09
-7.47466e-07
-6.76416e-09
-7.39874e-07
-2.28881e-08
-7.27016e-07
-3.88234e-08
-7.09014e-07
-5.43915e-08
-6.86054e-07
-6.94061e-08
-6.58384e-07
-8.36724e-08
-6.26318e-07
-9.69866e-08
-5.9024e-07
-1.09136e-07
-5.50603e-07
-1.19903e-07
-5.07931e-07
-1.29061e-07
-4.62821e-07
-1.36387e-07
-4.15936e-07
-1.41658e-07
-3.68004e-07
-1.4466e-07
-3.19813e-07
-1.45197e-07
-2.72195e-07
-1.43099e-07
-2.26017e-07
-1.38235e-07
-1.8216e-07
-1.30528e-07
-1.41495e-07
-1.19979e-07
-1.0485e-07
-1.06694e-07
-7.29732e-08
-9.09221e-08
-4.64863e-08
-7.3118e-08
-2.58382e-08
-5.40179e-08
-1.12578e-08
-3.47389e-08
-2.72636e-09
-1.69102e-08
-3.02833e-09
-3.98515e-09
7.31137e-09
-1.55977e-08
2.92178e-08
-3.45758e-08
5.45823e-08
-6.05703e-08
8.08322e-08
-9.30843e-08
1.06225e-07
-1.31472e-07
1.2954e-07
-1.74961e-07
1.49968e-07
-2.22686e-07
1.67016e-07
-2.73723e-07
1.80424e-07
-3.2712e-07
1.90104e-07
-3.81929e-07
1.96093e-07
-4.37222e-07
1.98513e-07
-4.92111e-07
1.9755e-07
-5.4576e-07
1.93426e-07
-5.97393e-07
1.86392e-07
-6.46299e-07
1.76709e-07
-6.91835e-07
1.64645e-07
-7.33429e-07
1.50464e-07
-7.70574e-07
1.34428e-07
-8.02834e-07
1.16789e-07
-8.29839e-07
9.7794e-08
-8.51282e-07
7.76804e-08
-8.6692e-07
5.66802e-08
-8.76575e-07
3.50212e-08
-8.80128e-07
1.29294e-08
-8.77524e-07
-9.36795e-09
-8.68772e-07
-3.16402e-08
-8.53945e-07
-5.36503e-08
-8.33184e-07
-7.51524e-08
-8.06699e-07
-9.58908e-08
-7.74774e-07
-1.15598e-07
-7.37766e-07
-1.33995e-07
-6.9611e-07
-1.50792e-07
-6.50323e-07
-1.6569e-07
-6.00998e-07
-1.78386e-07
-5.48809e-07
-1.88576e-07
-4.94508e-07
-1.95959e-07
-4.38915e-07
-2.00253e-07
-3.82915e-07
-2.01197e-07
-3.27444e-07
-1.9857e-07
-2.73473e-07
-1.92205e-07
-2.2199e-07
-1.82011e-07
-1.73971e-07
-1.67999e-07
-1.30352e-07
-1.50313e-07
-9.19933e-08
-1.29281e-07
-5.96446e-08
-1.05467e-07
-3.39102e-08
-7.97523e-08
-1.52267e-08
-5.34225e-08
-3.86629e-09
-2.82705e-08
-6.89463e-09
-5.04593e-09
1.23573e-08
-1.93825e-08
4.35544e-08
-4.23654e-08
7.75652e-08
-7.33454e-08
1.11812e-07
-1.11594e-07
1.44474e-07
-1.56286e-07
1.74232e-07
-2.06504e-07
2.00186e-07
-2.61262e-07
2.21773e-07
-3.19527e-07
2.38689e-07
-3.8025e-07
2.50827e-07
-4.42387e-07
2.5823e-07
-5.04923e-07
2.61049e-07
-5.66885e-07
2.59512e-07
-6.27358e-07
2.53898e-07
-6.85489e-07
2.44523e-07
-7.40498e-07
2.31719e-07
-7.9168e-07
2.15826e-07
-8.38403e-07
1.97187e-07
-8.80111e-07
1.76136e-07
-9.16323e-07
1.53001e-07
-9.4663e-07
1.28101e-07
-9.70695e-07
1.01745e-07
-9.88249e-07
7.42344e-08
-9.99094e-07
4.58663e-08
-1.0031e-06
1.69352e-08
-1.0002e-06
-1.22629e-08
-9.90418e-07
-4.14274e-08
-9.73818e-07
-7.02495e-08
-9.50561e-07
-9.84095e-08
-9.20877e-07
-1.25575e-07
-8.85077e-07
-1.51398e-07
-8.43555e-07
-1.75517e-07
-7.96789e-07
-1.97558e-07
-7.45345e-07
-2.17134e-07
-6.89877e-07
-2.33854e-07
-6.31125e-07
-2.47327e-07
-5.69915e-07
-2.5717e-07
-5.07146e-07
-2.63021e-07
-4.43791e-07
-2.64552e-07
-3.80878e-07
-2.61484e-07
-3.19472e-07
-2.53611e-07
-2.60662e-07
-2.40821e-07
-2.05529e-07
-2.23132e-07
-1.55122e-07
-2.00721e-07
-1.10425e-07
-1.73978e-07
-7.23322e-08
-1.43559e-07
-4.1625e-08
-1.10459e-07
-1.89642e-08
-7.60833e-08
-4.91034e-09
-4.23243e-08
-1.1805e-08
-6.01749e-09
1.83748e-08
-2.29269e-08
6.04638e-08
-4.97577e-08
1.04396e-07
-8.55785e-08
1.47633e-07
-1.29427e-07
1.88323e-07
-1.80288e-07
2.25092e-07
-2.37085e-07
2.56984e-07
-2.98699e-07
2.83387e-07
-3.63984e-07
3.03973e-07
-4.31788e-07
3.18631e-07
-5.00975e-07
3.27418e-07
-5.70446e-07
3.3052e-07
-6.39148e-07
3.28215e-07
-7.06095e-07
3.20845e-07
-7.70369e-07
3.08797e-07
-8.3113e-07
2.92479e-07
-8.87616e-07
2.72312e-07
-9.39148e-07
2.48719e-07
-9.85128e-07
2.22115e-07
-1.02504e-06
1.9291e-07
-1.05843e-06
1.61498e-07
-1.08495e-06
1.28266e-07
-1.10431e-06
9.35904e-08
-1.11629e-06
5.78424e-08
-1.12074e-06
2.13897e-08
-1.11761e-06
-1.53976e-08
-1.10689e-06
-5.2144e-08
-1.08868e-06
-8.84636e-08
-1.06313e-06
-1.23957e-07
-1.03049e-06
-1.5821e-07
-9.91103e-07
-1.90787e-07
-9.45381e-07
-2.21239e-07
-8.93841e-07
-2.49099e-07
-8.3709e-07
-2.73885e-07
-7.75833e-07
-2.95112e-07
-7.10867e-07
-3.12293e-07
-6.43082e-07
-3.24955e-07
-5.73451e-07
-3.32652e-07
-5.03025e-07
-3.34977e-07
-4.32917e-07
-3.31591e-07
-3.64289e-07
-3.22239e-07
-2.98328e-07
-3.06782e-07
-2.36226e-07
-2.85234e-07
-1.79151e-07
-2.57795e-07
-1.28227e-07
-2.24902e-07
-8.45049e-08
-1.87281e-07
-4.89553e-08
-1.46009e-07
-2.24653e-08
-1.02573e-07
-5.8652e-09
-5.89244e-08
-1.76702e-08
-6.91699e-09
2.52918e-08
-2.62666e-08
7.98135e-08
-5.68024e-08
1.34932e-07
-9.73343e-08
1.88165e-07
-1.46672e-07
2.37661e-07
-2.03603e-07
2.82023e-07
-2.66886e-07
3.20266e-07
-3.35258e-07
3.51759e-07
-4.0745e-07
3.76165e-07
-4.82201e-07
3.93383e-07
-5.58283e-07
4.035e-07
-6.3451e-07
4.06747e-07
-7.09757e-07
4.03461e-07
-7.82967e-07
3.94055e-07
-8.53163e-07
3.78993e-07
-9.1945e-07
3.58767e-07
-9.81022e-07
3.33884e-07
-1.03716e-06
3.04853e-07
-1.08722e-06
2.72177e-07
-1.13066e-06
2.36349e-07
-1.16701e-06
1.97847e-07
-1.19588e-06
1.5714e-07
-1.21697e-06
1.14682e-07
-1.23005e-06
7.09222e-08
-1.23497e-06
2.6306e-08
-1.23165e-06
-1.87193e-08
-1.22009e-06
-6.36988e-08
-1.20039e-06
-1.08166e-07
-1.17271e-06
-1.51637e-07
-1.13731e-06
-1.93609e-07
-1.09454e-06
-2.33559e-07
-1.04484e-06
-2.70938e-07
-9.88754e-07
-3.05183e-07
-9.26929e-07
-3.35711e-07
-8.60108e-07
-3.61932e-07
-7.8914e-07
-3.8326e-07
-7.14974e-07
-3.99121e-07
-6.38652e-07
-4.08975e-07
-5.61298e-07
-4.12331e-07
-4.84113e-07
-4.08776e-07
-4.08353e-07
-3.97999e-07
-3.3531e-07
-3.79825e-07
-2.66293e-07
-3.54251e-07
-2.02604e-07
-3.21484e-07
-1.45514e-07
-2.81992e-07
-9.6245e-08
-2.3655e-07
-5.59608e-08
-1.86293e-07
-2.57701e-08
-1.32764e-07
-6.74936e-09
-7.79452e-08
-2.44195e-08
-7.76495e-09
3.30567e-08
-2.94567e-08
1.01505e-07
-6.35926e-08
1.69068e-07
-1.08746e-07
2.33318e-07
-1.63506e-07
2.92421e-07
-2.26463e-07
3.4498e-07
-2.96201e-07
3.90005e-07
-3.71306e-07
4.26864e-07
-4.50377e-07
4.55235e-07
-5.32039e-07
4.75045e-07
-6.14964e-07
4.86425e-07
-6.9788e-07
4.89662e-07
-7.79585e-07
4.85166e-07
-8.58958e-07
4.73428e-07
-9.34965e-07
4.55e-07
-1.00666e-06
4.30464e-07
-1.0732e-06
4.00421e-07
-1.13382e-06
3.65472e-07
-1.18786e-06
3.26213e-07
-1.23473e-06
2.83226e-07
-1.27396e-06
2.37077e-07
-1.30514e-06
1.88316e-07
-1.32794e-06
1.37484e-07
-1.34212e-06
8.51072e-08
-1.34753e-06
3.17128e-08
-1.34408e-06
-2.21719e-08
-1.33177e-06
-7.60104e-08
-1.31068e-06
-1.29252e-07
-1.28099e-06
-1.81325e-07
-1.24296e-06
-2.31637e-07
-1.19696e-06
-2.79566e-07
-1.14343e-06
-3.24465e-07
-1.08295e-06
-3.65665e-07
-1.01618e-06
-4.02475e-07
-9.43921e-07
-4.34195e-07
-8.67054e-07
-4.60127e-07
-7.86586e-07
-4.7959e-07
-7.03623e-07
-4.91938e-07
-6.19368e-07
-4.96586e-07
-5.35108e-07
-4.93036e-07
-4.52198e-07
-4.80909e-07
-3.72044e-07
-4.59979e-07
-2.96082e-07
-4.30212e-07
-2.25756e-07
-3.9181e-07
-1.62498e-07
-3.45251e-07
-1.07708e-07
-2.9134e-07
-6.27482e-08
-2.31253e-07
-2.89403e-08
-1.66572e-07
-7.58509e-09
-9.93004e-08
-3.20046e-08
-8.58238e-09
4.16391e-08
-3.25603e-08
1.25483e-07
-7.02427e-08
2.0675e-07
-1.19983e-07
2.83059e-07
-1.80159e-07
3.52597e-07
-2.4916e-07
4.13981e-07
-3.25391e-07
4.66236e-07
-4.07278e-07
5.08752e-07
-4.93281e-07
5.41237e-07
-5.81902e-07
5.63667e-07
-6.71708e-07
5.76231e-07
-7.61337e-07
5.79291e-07
-8.49509e-07
5.73338e-07
-9.35039e-07
5.58958e-07
-1.01684e-06
5.36797e-07
-1.09391e-06
5.0754e-07
-1.16538e-06
4.71886e-07
-1.23044e-06
4.30537e-07
-1.28841e-06
3.84186e-07
-1.3387e-06
3.3351e-07
-1.38079e-06
2.79164e-07
-1.41426e-06
2.21787e-07
-1.43878e-06
1.62003e-07
-1.45409e-06
1.00423e-07
-1.46003e-06
3.76534e-08
-1.45651e-06
-2.56952e-08
-1.44352e-06
-8.90033e-08
-1.42113e-06
-1.51634e-07
-1.38953e-06
-2.12926e-07
-1.34898e-06
-2.72192e-07
-1.29983e-06
-3.2871e-07
-1.24257e-06
-3.81728e-07
-1.17777e-06
-4.30465e-07
-1.10613e-06
-4.74116e-07
-1.02846e-06
-5.11861e-07
-9.45709e-07
-5.42882e-07
-8.58922e-07
-5.66377e-07
-7.69273e-07
-5.81587e-07
-6.78043e-07
-5.87816e-07
-5.8661e-07
-5.84469e-07
-4.96435e-07
-5.71083e-07
-4.09048e-07
-5.47367e-07
-3.26021e-07
-5.13239e-07
-2.48954e-07
-4.68877e-07
-1.79448e-07
-4.14756e-07
-1.19092e-07
-3.51696e-07
-6.94482e-08
-2.80897e-07
-3.20466e-08
-2.03973e-07
-8.39555e-09
-1.22951e-07
-4.04002e-08
-9.38968e-09
5.10288e-08
-3.56427e-08
1.51736e-07
-7.68763e-08
2.47984e-07
-1.31235e-07
3.37417e-07
-1.96886e-07
4.18248e-07
-2.7202e-07
4.89115e-07
-3.54855e-07
5.49071e-07
-4.43649e-07
5.97546e-07
-5.36713e-07
6.34301e-07
-6.32421e-07
6.59374e-07
-7.29225e-07
6.73035e-07
-8.2567e-07
6.75735e-07
-9.20396e-07
6.68065e-07
-1.01215e-06
6.50713e-07
-1.09979e-06
6.24437e-07
-1.18228e-06
5.90031e-07
-1.2587e-06
5.48305e-07
-1.32823e-06
5.00067e-07
-1.39016e-06
4.46112e-07
-1.44386e-06
3.87215e-07
-1.48883e-06
3.24128e-07
-1.52462e-06
2.57579e-07
-1.55089e-06
1.88276e-07
-1.56738e-06
1.16915e-07
-1.57392e-06
4.41848e-08
-1.57039e-06
-2.92224e-08
-1.55679e-06
-1.02603e-07
-1.53319e-06
-1.75233e-07
-1.49976e-06
-2.4636e-07
-1.45675e-06
-3.15199e-07
-1.40454e-06
-3.80925e-07
-1.34359e-06
-4.42676e-07
-1.2745e-06
-4.99553e-07
-1.19799e-06
-5.50629e-07
-1.11489e-06
-5.94956e-07
-1.02619e-06
-6.31584e-07
-9.32988e-07
-6.59578e-07
-8.36525e-07
-6.7805e-07
-7.38159e-07
-6.86182e-07
-6.39366e-07
-6.83262e-07
-5.41723e-07
-6.68727e-07
-4.46889e-07
-6.42201e-07
-3.56588e-07
-6.03541e-07
-2.72585e-07
-5.5288e-07
-1.96666e-07
-4.90675e-07
-1.30617e-07
-4.17745e-07
-7.62032e-08
-3.35311e-07
-3.51634e-08
-2.45013e-07
-9.20358e-09
-1.48911e-07
-4.96037e-08
-1.02062e-08
6.1235e-08
-3.87685e-08
1.80298e-07
-8.36192e-08
2.92834e-07
-1.42697e-07
3.96495e-07
-2.13958e-07
4.89509e-07
-2.95389e-07
5.70545e-07
-3.85013e-07
6.38696e-07
-4.80914e-07
6.93447e-07
-5.81242e-07
7.34629e-07
-6.84234e-07
7.62366e-07
-7.88224e-07
7.77026e-07
-8.91656e-07
7.79167e-07
-9.93087e-07
7.69496e-07
-1.0912e-06
7.48824e-07
-1.18479e-06
7.1803e-07
-1.27279e-06
6.7803e-07
-1.35424e-06
6.29754e-07
-1.4283e-06
5.74124e-07
-1.49423e-06
5.12045e-07
-1.55141e-06
4.44394e-07
-1.5993e-06
3.72021e-07
-1.63747e-06
2.95745e-07
-1.66555e-06
2.16361e-07
-1.68328e-06
1.34647e-07
-1.69047e-06
5.13761e-08
-1.68702e-06
-3.26795e-08
-1.67289e-06
-1.16732e-07
-1.64815e-06
-1.99972e-07
-1.61295e-06
-2.81555e-07
-1.56756e-06
-3.60595e-07
-1.51232e-06
-4.36164e-07
-1.44771e-06
-5.07284e-07
-1.37433e-06
-5.72933e-07
-1.29291e-06
-6.32051e-07
-1.20431e-06
-6.83554e-07
-1.10955e-06
-7.26346e-07
-1.00978e-06
-7.59349e-07
-9.06302e-07
-7.81526e-07
-8.00566e-07
-7.91918e-07
-6.94148e-07
-7.8968e-07
-5.88746e-07
-7.74128e-07
-4.86163e-07
-7.44783e-07
-3.88287e-07
-7.01417e-07
-2.97063e-07
-6.44104e-07
-2.14474e-07
-5.73264e-07
-1.42513e-07
-4.89706e-07
-8.31604e-08
-3.94664e-07
-3.83655e-08
-2.89808e-07
-1.00313e-08
-1.77246e-07
-5.9635e-08
-1.10503e-08
7.22853e-08
-4.20007e-08
2.11249e-07
-9.0596e-08
3.4143e-07
-1.54565e-07
4.60464e-07
-2.31648e-07
5.66592e-07
-3.19616e-07
6.58513e-07
-4.16292e-07
7.35372e-07
-5.19571e-07
7.96725e-07
-6.27435e-07
8.42494e-07
-7.37976e-07
8.72906e-07
-8.494e-07
8.8845e-07
-9.60045e-07
8.89812e-07
-1.06838e-06
8.77835e-07
-1.17303e-06
8.53468e-07
-1.27273e-06
8.17728e-07
-1.36636e-06
7.71666e-07
-1.45295e-06
7.16342e-07
-1.53163e-06
6.52802e-07
-1.60165e-06
5.82067e-07
-1.66238e-06
5.05121e-07
-1.71327e-06
4.22913e-07
-1.75388e-06
3.36355e-07
-1.78385e-06
2.46329e-07
-1.8029e-06
1.53696e-07
-1.81083e-06
5.93076e-08
-1.80753e-06
-3.59835e-08
-1.79295e-06
-1.31309e-07
-1.76715e-06
-2.25772e-07
-1.73027e-06
-3.18438e-07
-1.68254e-06
-4.08323e-07
-1.62431e-06
-4.94389e-07
-1.55606e-06
-5.7554e-07
-1.47837e-06
-6.50624e-07
-1.39198e-06
-7.18441e-07
-1.29777e-06
-7.77758e-07
-1.1968e-06
-8.27322e-07
-1.09025e-06
-8.65891e-07
-9.79514e-07
-8.92265e-07
-8.66109e-07
-9.05322e-07
-7.51728e-07
-9.04062e-07
-6.38199e-07
-8.87657e-07
-5.27482e-07
-8.55501e-07
-4.21639e-07
-8.0726e-07
-3.22813e-07
-7.42929e-07
-2.332e-07
-6.62877e-07
-1.55016e-07
-5.6789e-07
-9.04683e-08
-4.59211e-07
-4.17271e-08
-3.38549e-07
-1.09001e-08
-2.08073e-07
-7.05351e-08
-1.19393e-08
8.42246e-08
-4.54002e-08
2.4471e-07
-9.79286e-08
3.93958e-07
-1.67033e-07
5.29568e-07
-2.50224e-07
6.49783e-07
-3.45048e-07
7.53337e-07
-4.49112e-07
8.39436e-07
-5.60111e-07
9.07724e-07
-6.7585e-07
9.58232e-07
-7.94261e-07
9.91317e-07
-9.13418e-07
1.00761e-06
-1.03155e-06
1.00794e-06
-1.14704e-06
9.93324e-07
-1.25843e-06
9.64856e-07
-1.36441e-06
9.23711e-07
-1.46383e-06
8.71091e-07
-1.55569e-06
8.08198e-07
-1.6391e-06
7.36212e-07
-1.71331e-06
6.56274e-07
-1.77767e-06
5.69482e-07
-1.83164e-06
4.76885e-07
-1.87477e-06
3.7949e-07
-1.90671e-06
2.78264e-07
-1.92716e-06
1.74147e-07
-1.93592e-06
6.80691e-08
-1.93286e-06
-3.90418e-08
-1.91793e-06
-1.46239e-07
-1.89116e-06
-2.52543e-07
-1.85267e-06
-3.5693e-07
-1.80268e-06
-4.58317e-07
-1.74151e-06
-5.55556e-07
-1.66962e-06
-6.47429e-07
-1.58759e-06
-7.32649e-07
-1.49617e-06
-8.09868e-07
-1.39624e-06
-8.77688e-07
-1.28888e-06
-9.34686e-07
-1.17533e-06
-9.79439e-07
-1.05703e-06
-1.01056e-06
-9.35613e-07
-1.02674e-06
-8.1287e-07
-1.02681e-06
-6.90776e-07
-1.00975e-06
-5.71457e-07
-9.7482e-07
-4.57167e-07
-9.21549e-07
-3.50265e-07
-8.49831e-07
-2.53178e-07
-7.59965e-07
-1.68363e-07
-6.52705e-07
-9.8275e-08
-5.293e-07
-4.53218e-08
-3.91502e-07
-1.18308e-08
-2.41564e-07
-8.2366e-08
-1.28899e-08
9.71145e-08
-4.90256e-08
2.80846e-07
-1.05736e-07
4.50668e-07
-1.80289e-07
6.04121e-07
-2.69951e-07
7.39446e-07
-3.72025e-07
8.55411e-07
-4.83885e-07
9.51296e-07
-6.03012e-07
1.02685e-06
-7.27019e-07
1.08224e-06
-8.53672e-07
1.11797e-06
-9.80904e-07
1.13484e-06
-1.10683e-06
1.13387e-06
-1.22973e-06
1.11623e-06
-1.34809e-06
1.08321e-06
-1.46055e-06
1.03617e-06
-1.56592e-06
9.76464e-07
-1.66318e-06
9.05454e-07
-1.75143e-06
8.24462e-07
-1.82991e-06
7.3476e-07
-1.89799e-06
6.37561e-07
-1.95512e-06
5.34018e-07
-2.00086e-06
4.25231e-07
-2.03485e-06
3.12249e-07
-2.05679e-06
1.96091e-07
-2.06648e-06
7.77576e-08
-2.06377e-06
-4.17516e-08
-2.04859e-06
-1.61416e-07
-2.02096e-06
-2.8018e-07
-1.98096e-06
-3.96932e-07
-1.92878e-06
-5.10492e-07
-1.86473e-06
-6.19603e-07
-1.78924e-06
-7.22921e-07
-1.70287e-06
-8.19018e-07
-1.60635e-06
-9.06388e-07
-1.50058e-06
-9.83458e-07
-1.38665e-06
-1.04862e-06
-1.26585e-06
-1.10024e-06
-1.13969e-06
-1.13673e-06
-1.00987e-06
-1.15656e-06
-8.78316e-07
-1.15836e-06
-7.47156e-07
-1.14091e-06
-6.18693e-07
-1.10328e-06
-4.95394e-07
-1.04485e-06
-3.79849e-07
-9.65376e-07
-2.74739e-07
-8.65074e-07
-1.82791e-07
-7.44653e-07
-1.06728e-07
-6.05362e-07
-4.92222e-08
-4.49008e-07
-1.28439e-08
-2.77942e-07
-9.52099e-08
-1.3918e-08
1.11033e-07
-5.29338e-08
3.19861e-07
-1.14132e-07
5.11866e-07
-1.94517e-07
6.84507e-07
-2.91086e-07
8.36014e-07
-4.00873e-07
9.65199e-07
-5.21004e-07
1.07143e-06
-6.48725e-07
1.15457e-06
-7.81445e-07
1.21496e-06
-9.1675e-07
1.25327e-06
-1.05242e-06
1.27051e-06
-1.18646e-06
1.2679e-06
-1.31705e-06
1.24682e-06
-1.44261e-06
1.20877e-06
-1.56173e-06
1.15529e-06
-1.6732e-06
1.08793e-06
-1.77597e-06
1.00823e-06
-1.86915e-06
9.17646e-07
-1.95199e-06
8.17602e-07
-2.02386e-06
7.09426e-07
-2.08422e-06
5.94379e-07
-2.13264e-06
4.73648e-07
-2.16875e-06
3.48364e-07
-2.19228e-06
2.19618e-07
-2.203e-06
8.8475e-08
-2.20075e-06
-4.39996e-08
-2.18545e-06
-1.7672e-07
-2.15707e-06
-3.08557e-07
-2.11568e-06
-4.3832e-07
-2.06144e-06
-5.64735e-07
-1.9946e-06
-6.86436e-07
-1.91557e-06
-8.01952e-07
-1.82488e-06
-9.09708e-07
-1.72324e-06
-1.00803e-06
-1.61154e-06
-1.09516e-06
-1.49088e-06
-1.16927e-06
-1.36259e-06
-1.22853e-06
-1.22823e-06
-1.27109e-06
-1.08961e-06
-1.29519e-06
-9.48767e-07
-1.2992e-06
-8.07991e-07
-1.28169e-06
-6.6978e-07
-1.24149e-06
-5.36829e-07
-1.1778e-06
-4.11986e-07
-1.09022e-06
-2.98214e-07
-9.78846e-07
-1.98535e-07
-8.44332e-07
-1.15975e-07
-6.87923e-07
-5.35004e-08
-5.11483e-07
-1.39596e-08
-3.17483e-07
-1.0917e-07
-1.50394e-08
1.26072e-07
-5.71801e-08
3.62002e-07
-1.23229e-07
5.77915e-07
-2.09895e-07
7.71173e-07
-3.13874e-07
9.39992e-07
-4.31907e-07
1.08323e-06
-5.60841e-07
1.20036e-06
-6.97674e-07
1.29141e-06
-8.39588e-07
1.35687e-06
-9.8398e-07
1.39767e-06
-1.12848e-06
1.41501e-06
-1.27095e-06
1.41037e-06
-1.40949e-06
1.38537e-06
-1.54246e-06
1.34173e-06
-1.6684e-06
1.28123e-06
-1.78608e-06
1.20561e-06
-1.89445e-06
1.1166e-06
-1.99263e-06
1.01582e-06
-2.07987e-06
9.04843e-07
-2.15556e-06
7.85116e-07
-2.21918e-06
6.58006e-07
-2.27032e-06
5.24789e-07
-2.30863e-06
3.86672e-07
-2.33382e-06
2.44809e-07
-2.34567e-06
1.00324e-07
-2.34401e-06
-4.5663e-08
-2.32872e-06
-1.92009e-07
-2.29976e-06
-3.37521e-07
-2.25714e-06
-4.80935e-07
-2.20099e-06
-6.2089e-07
-2.13151e-06
-7.55913e-07
-2.04905e-06
-8.84406e-07
-1.95412e-06
-1.00464e-06
-1.84737e-06
-1.11477e-06
-1.7297e-06
-1.21284e-06
-1.60219e-06
-1.29678e-06
-1.46619e-06
-1.36452e-06
-1.32333e-06
-1.41394e-06
-1.1755e-06
-1.44302e-06
-1.02487e-06
-1.44983e-06
-8.73895e-07
-1.43267e-06
-7.2528e-07
-1.39011e-06
-5.81969e-07
-1.32111e-06
-4.47093e-07
-1.22509e-06
-3.23929e-07
-1.10201e-06
-2.15829e-07
-9.52431e-07
-1.26161e-07
-7.77591e-07
-5.82288e-08
-5.79415e-07
-1.51982e-08
-3.60513e-07
-1.24368e-07
-1.62693e-08
1.42341e-07
-6.1819e-08
4.07552e-07
-1.33137e-07
6.49233e-07
-2.26596e-07
8.64631e-07
-3.38552e-07
1.05195e-06
-4.65422e-07
1.2101e-06
-6.03746e-07
1.33869e-06
-7.50244e-07
1.4379e-06
-9.01859e-07
1.50849e-06
-1.05578e-06
1.55159e-06
-1.20948e-06
1.56871e-06
-1.36069e-06
1.56158e-06
-1.50742e-06
1.5321e-06
-1.64796e-06
1.48227e-06
-1.78083e-06
1.4141e-06
-1.90478e-06
1.32957e-06
-2.01878e-06
1.23059e-06
-2.12194e-06
1.11899e-06
-2.21357e-06
9.96471e-07
-2.29307e-06
8.64617e-07
-2.35996e-06
7.24895e-07
-2.41384e-06
5.78669e-07
-2.45438e-06
4.27212e-07
-2.48131e-06
2.71733e-07
-2.49439e-06
1.13404e-07
-2.49344e-06
-4.66104e-08
-2.47833e-06
-2.07122e-07
-2.44896e-06
-3.66887e-07
-2.40532e-06
-5.24576e-07
-2.34746e-06
-6.7875e-07
-2.27554e-06
-8.27833e-07
-2.18984e-06
-9.70102e-07
-2.09081e-06
-1.10368e-06
-1.97906e-06
-1.22652e-06
-1.85543e-06
-1.33646e-06
-1.72101e-06
-1.4312e-06
-1.57716e-06
-1.50837e-06
-1.42553e-06
-1.56557e-06
-1.26812e-06
-1.60044e-06
-1.10721e-06
-1.61074e-06
-9.45432e-07
-1.59444e-06
-7.85721e-07
-1.54982e-06
-6.31286e-07
-1.47555e-06
-4.85572e-07
-1.37081e-06
-3.52201e-07
-1.23538e-06
-2.34904e-07
-1.06973e-06
-1.37433e-07
-8.75061e-07
-6.34797e-08
-6.53369e-07
-1.65801e-08
-4.07413e-07
-1.40948e-07
-1.76231e-08
1.59964e-07
-6.69038e-08
4.56832e-07
-1.43962e-07
7.26291e-07
-2.44784e-07
9.65454e-07
-3.65346e-07
1.17251e-06
-5.01696e-07
1.34645e-06
-6.50035e-07
1.48702e-06
-8.06778e-07
1.59465e-06
-9.68606e-07
1.67031e-06
-1.13249e-06
1.71548e-06
-1.29574e-06
1.73195e-06
-1.45594e-06
1.72178e-06
-1.61104e-06
1.6872e-06
-1.75925e-06
1.63048e-06
-1.89908e-06
1.55393e-06
-2.02929e-06
1.45978e-06
-2.14885e-06
1.35015e-06
-2.25693e-06
1.22707e-06
-2.35286e-06
1.0924e-06
-2.43609e-06
9.47846e-07
-2.50618e-06
7.94983e-07
-2.56276e-06
6.35251e-07
-2.60553e-06
4.69983e-07
-2.63423e-06
3.00432e-07
-2.64863e-06
1.27805e-07
-2.64854e-06
-4.67048e-08
-2.63378e-06
-2.21878e-07
-2.60424e-06
-3.96432e-07
-2.55983e-06
-5.68989e-07
-2.50054e-06
-7.38038e-07
-2.42646e-06
-9.01913e-07
-2.33779e-06
-1.05877e-06
-2.2349e-06
-1.20657e-06
-2.11833e-06
-1.34309e-06
-1.98888e-06
-1.46592e-06
-1.84758e-06
-1.5725e-06
-1.6958e-06
-1.66015e-06
-1.53522e-06
-1.72615e-06
-1.3679e-06
-1.76776e-06
-1.19625e-06
-1.78238e-06
-1.02309e-06
-1.7676e-06
-8.51579e-07
-1.72133e-06
-6.85221e-07
-1.64191e-06
-5.27804e-07
-1.52822e-06
-3.83343e-07
-1.37984e-06
-2.55987e-07
-1.19708e-06
-1.49936e-07
-9.81113e-07
-6.93261e-08
-7.33979e-07
-1.81261e-08
-4.58613e-07
-1.59074e-07
-1.91161e-08
1.7908e-07
-7.2488e-08
5.10204e-07
-1.55808e-07
8.09611e-07
-2.64623e-07
1.07427e-06
-3.9447e-07
1.30236e-06
-5.40985e-07
1.49297e-06
-6.9999e-07
1.64603e-06
-8.67565e-07
1.76222e-06
-1.04011e-06
1.84286e-06
-1.21436e-06
1.88973e-06
-1.38744e-06
1.90503e-06
-1.55683e-06
1.89117e-06
-1.72037e-06
1.85074e-06
-1.87625e-06
1.78637e-06
-2.02297e-06
1.70065e-06
-2.15931e-06
1.59611e-06
-2.28427e-06
1.47512e-06
-2.39708e-06
1.33988e-06
-2.49712e-06
1.19244e-06
-2.58391e-06
1.03463e-06
-2.65705e-06
8.68123e-07
-2.71623e-06
6.94431e-07
-2.76118e-06
5.14934e-07
-2.79166e-06
3.30916e-07
-2.80746e-06
1.436e-07
-2.80836e-06
-4.58067e-08
-2.79416e-06
-2.36072e-07
-2.7647e-06
-4.25894e-07
-2.71983e-06
-6.13859e-07
-2.65947e-06
-7.98403e-07
-2.5836e-06
-9.77779e-07
-2.49234e-06
-1.15003e-06
-2.38596e-06
-1.31295e-06
-2.2649e-06
-1.46414e-06
-2.12988e-06
-1.60094e-06
-1.98188e-06
-1.7205e-06
-1.82222e-06
-1.81981e-06
-1.6526e-06
-1.89576e-06
-1.47514e-06
-1.94522e-06
-1.29237e-06
-1.96515e-06
-1.10727e-06
-1.9527e-06
-9.23271e-07
-1.90533e-06
-7.44174e-07
-1.821e-06
-5.74152e-07
-1.69825e-06
-4.17651e-07
-1.53634e-06
-2.79304e-07
-1.33543e-06
-1.63816e-07
-1.0966e-06
-7.58418e-08
-8.21953e-07
-1.98576e-08
-5.14597e-07
-1.78932e-07
-2.07639e-08
1.99844e-07
-7.8625e-08
5.68065e-07
-1.6878e-07
8.99766e-07
-2.86266e-07
1.19175e-06
-4.26124e-07
1.44222e-06
-5.83521e-07
1.65036e-06
-7.53854e-07
1.81636e-06
-9.32835e-07
1.9412e-06
-1.11655e-06
2.02657e-06
-1.3015e-06
2.07468e-06
-1.48462e-06
2.08815e-06
-1.66327e-06
2.06982e-06
-1.83523e-06
2.0227e-06
-1.99865e-06
1.94979e-06
-2.15205e-06
1.85405e-06
-2.29423e-06
1.7383e-06
-2.42429e-06
1.60517e-06
-2.5415e-06
1.4571e-06
-2.64533e-06
1.29627e-06
-2.73538e-06
1.12468e-06
-2.81132e-06
9.44068e-07
-2.87291e-06
7.5602e-07
-2.91993e-06
5.61947e-07
-2.95215e-06
3.63145e-07
-2.96939e-06
1.60837e-07
-2.97142e-06
-4.37793e-08
-2.95801e-06
-2.49479e-07
-2.92894e-06
-4.54963e-07
-2.884e-06
-6.58803e-07
-2.823e-06
-8.59401e-07
-2.74584e-06
-1.05494e-06
-2.65251e-06
-1.24336e-06
-2.54314e-06
-1.42232e-06
-2.41808e-06
-1.58921e-06
-2.27791e-06
-1.74111e-06
-2.12353e-06
-1.87488e-06
-1.95621e-06
-1.98713e-06
-1.77763e-06
-2.07434e-06
-1.58993e-06
-2.13292e-06
-1.39576e-06
-2.15933e-06
-1.19827e-06
-2.15019e-06
-1.00113e-06
-2.10247e-06
-8.08493e-07
-2.01364e-06
-6.24942e-07
-1.8818e-06
-4.5541e-07
-1.70588e-06
-3.05072e-07
-1.48577e-06
-1.79217e-07
-1.22246e-06
-8.31014e-08
-9.18069e-07
-2.17965e-08
-5.75902e-07
-2.00728e-07
-2.25827e-08
2.22427e-07
-8.53692e-08
6.30852e-07
-1.8298e-07
9.97377e-07
-3.09865e-07
1.31864e-06
-4.60496e-07
1.59285e-06
-6.29508e-07
1.81938e-06
-8.11822e-07
1.99868e-06
-1.00274e-06
2.13212e-06
-1.19802e-06
2.22185e-06
-1.39391e-06
2.27057e-06
-1.58715e-06
2.28139e-06
-1.775e-06
2.25767e-06
-1.95517e-06
2.20287e-06
-2.12582e-06
2.12044e-06
-2.28549e-06
2.01373e-06
-2.43307e-06
1.88588e-06
-2.56773e-06
1.73983e-06
-2.68885e-06
1.57821e-06
-2.79599e-06
1.40342e-06
-2.88886e-06
1.21755e-06
-2.96724e-06
1.02244e-06
-3.03094e-06
8.19721e-07
-3.07981e-06
6.10818e-07
-3.11368e-06
3.9702e-07
-3.13237e-06
1.79527e-07
-3.13566e-06
-4.04948e-08
-3.12328e-06
-2.61857e-07
-3.09496e-06
-4.83285e-07
-3.0504e-06
-7.03364e-07
-2.98932e-06
-9.20482e-07
-2.91148e-06
-1.13278e-06
-2.81674e-06
-1.3381e-06
-2.70508e-06
-1.53398e-06
-2.57669e-06
-1.7176e-06
-2.43201e-06
-1.88579e-06
-2.27181e-06
-2.03508e-06
-2.09726e-06
-2.16168e-06
-1.90998e-06
-2.26162e-06
-1.71214e-06
-2.33077e-06
-1.50644e-06
-2.36502e-06
-1.29622e-06
-2.36041e-06
-1.08539e-06
-2.3133e-06
-8.78456e-07
-2.22057e-06
-6.80464e-07
-2.07979e-06
-4.96881e-07
-1.88946e-06
-3.33501e-07
-1.64915e-06
-1.96283e-07
-1.35967e-06
-9.11806e-08
-1.02317e-06
-2.39652e-08
-6.43117e-07
-2.24693e-07
-2.45897e-08
2.47017e-07
-9.27769e-08
6.99039e-07
-1.98512e-07
1.10311e-06
-3.35567e-07
1.45569e-06
-4.97759e-07
1.75504e-06
-6.79118e-07
2.00073e-06
-8.74033e-07
2.19359e-06
-1.07736e-06
2.33545e-06
-1.28449e-06
2.42899e-06
-1.49141e-06
2.47749e-06
-1.69469e-06
2.48466e-06
-1.89147e-06
2.45444e-06
-2.07944e-06
2.39084e-06
-2.25678e-06
2.29778e-06
-2.42211e-06
2.17905e-06
-2.57441e-06
2.03818e-06
-2.71295e-06
1.87837e-06
-2.83727e-06
1.70253e-06
-2.94706e-06
1.51321e-06
-3.04214e-06