/*--------------------------------*- C++ -*----------------------------------*\
  =========                 |
  \\      /  F ield         | OpenFOAM: The Open Source CFD Toolbox
   \\    /   O peration     | Website:  https://openfoam.org
    \\  /    A nd           | Version:  7
     \\/     M anipulation  |
\*---------------------------------------------------------------------------*/
FoamFile
{
    version     2.0;
    format      ascii;
    class       surfaceScalarField;
    location    "0.01";
    object      phi;
}
// * * * * * * * * * * * * * * * * * * * * * * * * * * * * * * * * * * * * * //

dimensions      [0 3 -1 0 0 0 0];

internalField   nonuniform List<scalar> 
4900
(
7.13853e-10
-7.13869e-10
6.90623e-10
2.32166e-11
-5.75986e-10
1.26662e-09
-3.11875e-09
2.54276e-09
-6.77071e-09
3.65196e-09
-1.13087e-08
4.53796e-09
-1.65078e-08
5.19912e-09
-2.21629e-08
5.65509e-09
-2.80947e-08
5.93185e-09
-3.41506e-08
6.05591e-09
-4.02026e-08
6.05202e-09
-4.61448e-08
5.94221e-09
-5.18903e-08
5.74547e-09
-5.73681e-08
5.47784e-09
-6.25207e-08
5.15252e-09
-6.73009e-08
4.78026e-09
-7.16707e-08
4.36973e-09
-7.55985e-08
3.92789e-09
-7.90589e-08
3.46034e-09
-8.20306e-08
2.97168e-09
-8.44963e-08
2.46575e-09
-8.64422e-08
1.94585e-09
-8.78571e-08
1.41494e-09
-8.87328e-08
8.75758e-10
-8.90638e-08
3.30912e-10
-8.88467e-08
-2.17008e-10
-8.80813e-08
-7.65397e-10
-8.67698e-08
-1.31157e-09
-8.49171e-08
-1.85269e-09
-8.25314e-08
-2.38567e-09
-7.96243e-08
-2.90713e-09
-7.62111e-08
-3.41321e-09
-7.23117e-08
-3.89944e-09
-6.79511e-08
-4.36052e-09
-6.3161e-08
-4.79006e-09
-5.79807e-08
-5.18029e-09
-5.2459e-08
-5.52173e-09
-4.66562e-08
-5.80284e-09
-4.06464e-08
-6.00973e-09
-3.45206e-08
-6.12586e-09
-2.83887e-08
-6.1319e-09
-2.2383e-08
-6.00571e-09
-1.66602e-08
-5.7228e-09
-1.14031e-08
-5.25719e-09
-6.81928e-09
-4.58377e-09
-3.13523e-09
-3.68406e-09
-5.74197e-10
-2.56104e-09
6.98412e-10
-1.27261e-09
7.1931e-10
-2.0885e-11
7.19312e-10
-1.43152e-11
-6.99563e-10
-1.9915e-09
2.0004e-09
-6.73098e-09
6.00609e-09
-1.4254e-08
1.00658e-08
-2.42852e-08
1.36832e-08
-3.64037e-08
1.66564e-08
-5.01392e-08
1.89347e-08
-6.50294e-08
2.05453e-08
-8.06475e-08
2.155e-08
-9.6615e-08
2.20234e-08
-1.12604e-07
2.20412e-08
-1.28337e-07
2.16751e-08
-1.4358e-07
2.09888e-08
-1.58141e-07
2.00381e-08
-1.71858e-07
1.88699e-08
-1.84601e-07
1.75234e-08
-1.96262e-07
1.60306e-08
-2.06752e-07
1.44177e-08
-2.15998e-07
1.27062e-08
-2.2394e-07
1.09137e-08
-2.30529e-07
9.05528e-09
-2.35727e-07
7.14372e-09
-2.39503e-07
5.19057e-09
-2.41834e-07
3.20644e-09
-2.42704e-07
1.20142e-09
-2.42107e-07
-8.1457e-10
-2.4004e-07
-2.83156e-09
-2.36513e-07
-4.83926e-09
-2.31539e-07
-6.82681e-09
-2.25142e-07
-8.78246e-09
-2.17356e-07
-1.06932e-08
-2.08225e-07
-1.25443e-08
-1.97805e-07
-1.43187e-08
-1.8617e-07
-1.59962e-08
-1.73407e-07
-1.75529e-08
-1.59627e-07
-1.89597e-08
-1.44967e-07
-2.01819e-08
-1.29592e-07
-2.1178e-08
-1.13703e-07
-2.18985e-08
-9.75429e-08
-2.22863e-08
-8.13984e-08
-2.22763e-08
-6.56072e-08
-2.17969e-08
-5.05569e-08
-2.07731e-08
-3.66819e-08
-1.91322e-08
-2.44506e-08
-1.68151e-08
-1.43363e-08
-1.37984e-08
-6.75993e-09
-1.01374e-08
-1.9938e-09
-6.03872e-09
-1.0345e-11
-2.00432e-09
7.08971e-10
-1.23681e-09
5.37261e-10
-5.96023e-09
6.72379e-09
-1.4565e-08
1.46109e-08
-2.69778e-08
2.24785e-08
-4.28234e-08
2.95288e-08
-6.15563e-08
3.53892e-08
-8.25575e-08
3.99359e-08
-1.05201e-07
4.3189e-08
-1.28895e-07
4.52432e-08
-1.53098e-07
4.62271e-08
-1.77337e-07
4.62798e-08
-2.01199e-07
4.55373e-08
-2.24335e-07
4.41251e-08
-2.46452e-07
4.21545e-08
-2.67303e-07
3.97212e-08
-2.86686e-07
3.6906e-08
-3.04431e-07
3.37762e-08
-3.20401e-07
3.03874e-08
-3.3448e-07
2.67855e-08
-3.46575e-07
2.30088e-08
-3.5661e-07
1.90898e-08
-3.64523e-07
1.50564e-08
-3.70266e-07
1.09339e-08
-3.73805e-07
6.74534e-09
-3.75116e-07
2.51265e-09
-3.74188e-07
-1.74269e-09
-3.7102e-07
-5.99914e-09
-3.65625e-07
-1.02345e-08
-3.58027e-07
-1.44252e-08
-3.48263e-07
-1.85459e-08
-3.36388e-07
-2.25686e-08
-3.22471e-07
-2.64615e-08
-3.06602e-07
-3.01878e-08
-2.88893e-07
-3.37045e-08
-2.69486e-07
-3.69605e-08
-2.4855e-07
-3.9895e-08
-2.26297e-07
-4.24352e-08
-2.0298e-07
-4.44954e-08
-1.78903e-07
-4.59756e-08
-1.54428e-07
-4.67612e-08
-1.29979e-07
-4.67249e-08
-1.06046e-07
-4.57304e-08
-8.31787e-08
-4.364e-08
-6.19818e-08
-4.0329e-08
-4.30886e-08
-3.57082e-08
-2.71223e-08
-2.97647e-08
-1.46288e-08
-2.26309e-08
-5.97906e-09
-1.46884e-08
-1.23855e-09
-6.74481e-09
-5.29556e-10
-2.50143e-09
3.03869e-09
-1.00301e-08
1.42525e-08
-2.24979e-08
2.70786e-08
-3.95894e-08
3.95701e-08
-6.07787e-08
5.07182e-08
-8.54015e-08
6.00121e-08
-1.12727e-07
6.72615e-08
-1.42016e-07
7.24776e-08
-1.72559e-07
7.57863e-08
-2.03704e-07
7.73723e-08
-2.34868e-07
7.74434e-08
-2.65539e-07
7.62087e-08
-2.95279e-07
7.38649e-08
-3.23714e-07
7.05895e-08
-3.5053e-07
6.65371e-08
-3.75464e-07
6.18404e-08
-3.98298e-07
5.66105e-08
-4.18851e-07
5.09404e-08
-4.36973e-07
4.49076e-08
-4.52541e-07
3.85771e-08
-4.65456e-07
3.20043e-08
-4.75637e-07
2.52373e-08
-4.83022e-07
1.83191e-08
-4.87566e-07
1.12894e-08
-4.89239e-07
4.18567e-09
-4.88026e-07
-2.95543e-09
-4.83928e-07
-1.00971e-08
-4.76962e-07
-1.72014e-08
-4.67158e-07
-2.42283e-08
-4.5457e-07
-3.11347e-08
-4.39265e-07
-3.78728e-08
-4.21339e-07
-4.43884e-08
-4.00907e-07
-5.06194e-08
-3.78118e-07
-5.64932e-08
-3.53155e-07
-6.19241e-08
-3.26239e-07
-6.68106e-08
-2.97641e-07
-7.1033e-08
-2.67685e-07
-7.44511e-08
-2.36758e-07
-7.69032e-08
-2.05312e-07
-7.82069e-08
-1.73875e-07
-7.81624e-08
-1.43044e-07
-7.65605e-08
-1.13489e-07
-7.31958e-08
-8.59283e-08
-6.78895e-08
-6.11122e-08
-6.05244e-08
-3.97762e-08
-5.11008e-08
-2.25849e-08
-3.98222e-08
-1.00595e-08
-2.72137e-08
-2.50605e-09
-1.42983e-08
-3.03557e-09
-3.62883e-09
6.66751e-09
-1.37744e-08
2.43981e-08
-2.98722e-08
4.31764e-08
-5.13124e-08
6.10103e-08
-7.73814e-08
7.67871e-08
-1.07284e-07
8.99148e-08
-1.40186e-07
1.00164e-07
-1.75256e-07
1.07548e-07
-2.11698e-07
1.12228e-07
-2.48776e-07
1.1445e-07
-2.85826e-07
1.14493e-07
-3.22263e-07
1.12646e-07
-3.57579e-07
1.09182e-07
-3.91341e-07
1.04351e-07
-4.23179e-07
9.83752e-08
-4.52784e-07
9.14452e-08
-4.79896e-07
8.37229e-08
-5.04301e-07
7.53449e-08
-5.25819e-07
6.64256e-08
-5.44304e-07
5.70618e-08
-5.59636e-07
4.73361e-08
-5.71719e-07
3.73208e-08
-5.8048e-07
2.70804e-08
-5.85865e-07
1.66743e-08
-5.87839e-07
6.15888e-09
-5.86383e-07
-4.41103e-09
-5.815e-07
-1.49803e-08
-5.73209e-07
-2.54924e-08
-5.6155e-07
-3.58873e-08
-5.46584e-07
-4.61006e-08
-5.28396e-07
-5.60609e-08
-5.07096e-07
-6.56876e-08
-4.82828e-07
-7.48882e-08
-4.55766e-07
-8.35552e-08
-4.26127e-07
-9.15625e-08
-3.94176e-07
-9.87615e-08
-3.60231e-07
-1.04978e-07
-3.24671e-07
-1.10011e-07
-2.87946e-07
-1.13629e-07
-2.50579e-07
-1.15574e-07
-2.13172e-07
-1.15569e-07
-1.76408e-07
-1.13325e-07
-1.41037e-07
-1.08566e-07
-1.07872e-07
-1.01055e-07
-7.7752e-08
-9.06439e-08
-5.15189e-08
-7.73339e-08
-2.99674e-08
-6.13736e-08
-1.38059e-08
-4.33752e-08
-3.63338e-09
-2.44707e-08
-6.66894e-09
-4.5816e-09
1.12491e-08
-1.70536e-08
3.68701e-08
-3.64399e-08
6.25628e-08
-6.1838e-08
8.64084e-08
-9.23319e-08
1.07281e-07
-1.26984e-07
1.24567e-07
-1.64855e-07
1.38035e-07
-2.05027e-07
1.4772e-07
-2.46631e-07
1.53831e-07
-2.88861e-07
1.56681e-07
-3.30995e-07
1.56626e-07
-3.72387e-07
1.54039e-07
-4.1248e-07
1.49274e-07
-4.5079e-07
1.42661e-07
-4.86907e-07
1.34492e-07
-5.20485e-07
1.25023e-07
-5.51232e-07
1.1447e-07
-5.78905e-07
1.03018e-07
-6.03302e-07
9.08232e-08
-6.24258e-07
7.80177e-08
-6.41637e-07
6.47152e-08
-6.55332e-07
5.10151e-08
-6.65258e-07
3.70064e-08
-6.71354e-07
2.27708e-08
-6.73581e-07
8.38615e-09
-6.7192e-07
-6.07209e-09
-6.66372e-07
-2.05281e-08
-6.56961e-07
-3.4904e-08
-6.43731e-07
-4.91176e-08
-6.26751e-07
-6.308e-08
-6.06119e-07
-7.66931e-08
-5.8196e-07
-8.98467e-08
-5.54434e-07
-1.02414e-07
-5.23741e-07
-1.14248e-07
-4.90125e-07
-1.25179e-07
-4.53882e-07
-1.35004e-07
-4.15368e-07
-1.43492e-07
-3.75008e-07
-1.50372e-07
-3.33297e-07
-1.55339e-07
-2.90814e-07
-1.58057e-07
-2.48222e-07
-1.58161e-07
-2.06265e-07
-1.55283e-07
-1.65764e-07
-1.49067e-07
-1.27605e-07
-1.39214e-07
-9.27165e-08
-1.25532e-07
-6.2046e-08
-1.08004e-07
-3.65305e-08
-8.68892e-08
-1.70797e-08
-6.28261e-08
-4.58337e-09
-3.6967e-08
-1.12523e-08
-5.37281e-09
1.66219e-08
-1.98673e-08
5.13645e-08
-4.21788e-08
8.48743e-08
-7.11402e-08
1.1537e-07
-1.05636e-07
1.41777e-07
-1.44583e-07
1.63514e-07
-1.86929e-07
1.80381e-07
-2.31672e-07
1.92462e-07
-2.77871e-07
2.00031e-07
-3.24664e-07
2.03474e-07
-3.71273e-07
2.03235e-07
-4.17008e-07
1.99774e-07
-4.61269e-07
1.93534e-07
-5.03534e-07
1.84927e-07
-5.43362e-07
1.7432e-07
-5.80376e-07
1.62037e-07
-6.14261e-07
1.48354e-07
-6.44751e-07
1.33508e-07
-6.71627e-07
1.177e-07
-6.94708e-07
1.01099e-07
-7.13848e-07
8.38543e-08
-7.28926e-07
6.6094e-08
-7.39854e-07
4.7934e-08
-7.46564e-07
2.94807e-08
-7.49013e-07
1.08349e-08
-7.47179e-07
-7.90527e-09
-7.41066e-07
-2.66415e-08
-7.30697e-07
-4.52727e-08
-7.16123e-07
-6.36922e-08
-6.97418e-07
-8.17848e-08
-6.74688e-07
-9.94234e-08
-6.4807e-07
-1.16465e-07
-6.17738e-07
-1.32746e-07
-5.8391e-07
-1.48076e-07
-5.46852e-07
-1.62237e-07
-5.06885e-07
-1.74971e-07
-4.64395e-07
-1.85982e-07
-4.19839e-07
-1.94927e-07
-3.73755e-07
-2.01424e-07
-3.26762e-07
-2.05049e-07
-2.79573e-07
-2.05351e-07
-2.32986e-07
-2.0187e-07
-1.87884e-07
-1.94169e-07
-1.45224e-07
-1.81874e-07
-1.06024e-07
-1.64733e-07
-7.13398e-08
-1.42688e-07
-4.2257e-08
-1.15972e-07
-1.98831e-08
-8.52e-08
-5.37001e-09
-5.14801e-08
-1.66224e-08
-6.0328e-09
2.26547e-08
-2.22808e-08
6.76125e-08
-4.71869e-08
1.0978e-07
-7.93564e-08
1.47539e-07
-1.17488e-07
1.79909e-07
-1.60352e-07
2.06378e-07
-2.06785e-07
2.26813e-07
-2.55694e-07
2.41371e-07
-3.06069e-07
2.50406e-07
-3.56991e-07
2.54395e-07
-4.07632e-07
2.53877e-07
-4.57264e-07
2.49406e-07
-5.05249e-07
2.41519e-07
-5.51036e-07
2.30714e-07
-5.94156e-07
2.1744e-07
-6.3421e-07
2.02091e-07
-6.70863e-07
1.85007e-07
-7.03835e-07
1.6648e-07
-7.32891e-07
1.46756e-07
-7.5784e-07
1.26048e-07
-7.78524e-07
1.04539e-07
-7.94819e-07
8.23892e-08
-8.06628e-07
5.97431e-08
-8.13881e-07
3.67331e-08
-8.1653e-07
1.34844e-08
-8.14555e-07
-9.88103e-09
-8.07955e-07
-3.3241e-08
-7.96758e-07
-5.64699e-08
-7.81015e-07
-7.94353e-08
-7.60805e-07
-1.01994e-07
-7.36241e-07
-1.23988e-07
-7.07467e-07
-1.45239e-07
-6.74669e-07
-1.65544e-07
-6.38076e-07
-1.84669e-07
-5.97972e-07
-2.02341e-07
-5.54697e-07
-2.18246e-07
-5.08662e-07
-2.32017e-07
-4.6035e-07
-2.43239e-07
-4.10332e-07
-2.51442e-07
-3.59266e-07
-2.56115e-07
-3.07906e-07
-2.5671e-07
-2.57103e-07
-2.52674e-07
-2.07798e-07
-2.43474e-07
-1.61022e-07
-2.2865e-07
-1.17881e-07
-2.07873e-07
-7.95471e-08
-1.81022e-07
-4.7251e-08
-1.48268e-07
-2.22848e-08
-1.10166e-07
-6.02472e-09
-6.77401e-08
-2.2647e-08
-6.59505e-09
2.92498e-08
-2.43838e-08
8.54013e-08
-5.1616e-08
1.37013e-07
-8.67052e-08
1.82628e-07
-1.28182e-07
2.21385e-07
-1.74674e-07
2.5287e-07
-2.24905e-07
2.77044e-07
-2.77691e-07
2.94158e-07
-3.3195e-07
3.04665e-07
-3.86702e-07
3.09148e-07
-4.41075e-07
3.0825e-07
-4.94299e-07
3.02629e-07
-5.45704e-07
2.92924e-07
-5.94715e-07
2.79724e-07
-6.40838e-07
2.63564e-07
-6.83658e-07
2.44911e-07
-7.22822e-07
2.24172e-07
-7.58039e-07
2.01696e-07
-7.89064e-07
1.77781e-07
-8.15697e-07
1.52681e-07
-8.37776e-07
1.26617e-07
-8.55169e-07
9.97824e-08
-8.67776e-07
7.23505e-08
-8.75524e-07
4.44808e-08
-8.78364e-07
1.63241e-08
-8.76272e-07
-1.19731e-08
-8.69249e-07
-4.02641e-08
-8.57321e-07
-6.8398e-08
-8.40541e-07
-9.62154e-08
-8.1899e-07
-1.23544e-07
-7.92785e-07
-1.50193e-07
-7.62074e-07
-1.75949e-07
-7.27051e-07
-2.00567e-07
-6.87954e-07
-2.23765e-07
-6.4508e-07
-2.45216e-07
-5.98784e-07
-2.64541e-07
-5.49497e-07
-2.81305e-07
-4.97726e-07
-2.95009e-07
-4.4407e-07
-3.05098e-07
-3.89223e-07
-3.10962e-07
-3.33979e-07
-3.11954e-07
-2.79241e-07
-3.07412e-07
-2.26011e-07
-2.96703e-07
-1.75396e-07
-2.79265e-07
-1.28595e-07
-2.54674e-07
-8.68962e-08
-2.22721e-07
-5.16704e-08
-1.83494e-07
-2.43775e-08
-1.37459e-07
-6.58195e-09
-8.55357e-08
-2.9229e-08
-7.09103e-09
3.63408e-08
-2.62697e-08
1.0458e-07
-5.56349e-08
1.66378e-07
-9.34372e-08
2.20431e-07
-1.38054e-07
2.66002e-07
-1.87979e-07
3.02796e-07
-2.41821e-07
3.30886e-07
-2.98304e-07
3.5064e-07
-3.56268e-07
3.62629e-07
-4.14673e-07
3.67553e-07
-4.72597e-07
3.66173e-07
-5.29231e-07
3.59264e-07
-5.83875e-07
3.47568e-07
-6.35926e-07
3.31776e-07
-6.84874e-07
3.12511e-07
-7.30286e-07
2.90322e-07
-7.71798e-07
2.65685e-07
-8.09109e-07
2.39007e-07
-8.41968e-07
2.1064e-07
-8.70168e-07
1.80881e-07
-8.93543e-07
1.49992e-07
-9.11959e-07
1.18199e-07
-9.25313e-07
8.57046e-08
-9.3353e-07
5.26971e-08
-9.36558e-07
1.93524e-08
-9.34373e-07
-1.4158e-08
-9.26975e-07
-4.76626e-08
-9.14388e-07
-8.09849e-08
-8.96665e-07
-1.13938e-07
-8.73888e-07
-1.46321e-07
-8.46173e-07
-1.77908e-07
-8.13673e-07
-2.0845e-07
-7.76584e-07
-2.37656e-07
-7.35152e-07
-2.65197e-07
-6.89682e-07
-2.90686e-07
-6.40542e-07
-3.1368e-07
-5.8818e-07
-3.33667e-07
-5.33124e-07
-3.50065e-07
-4.76001e-07
-3.62222e-07
-4.17538e-07
-3.69425e-07
-3.58575e-07
-3.70917e-07
-3.00064e-07
-3.65923e-07
-2.43076e-07
-3.53692e-07
-1.88795e-07
-3.33546e-07
-1.38517e-07
-3.04952e-07
-9.36467e-08
-2.67592e-07
-5.56897e-08
-2.21451e-07
-2.62575e-08
-1.66891e-07
-7.07399e-09
-1.04719e-07
-3.6303e-08
-7.54867e-09
4.38894e-08
-2.80273e-08
1.25059e-07
-5.94104e-08
1.97761e-07
-9.9806e-08
2.60826e-07
-1.4745e-07
3.13647e-07
-2.00708e-07
3.56053e-07
-2.58074e-07
3.88252e-07
-3.18174e-07
4.1074e-07
-3.7977e-07
4.24225e-07
-4.41756e-07
4.29539e-07
-5.03157e-07
4.27575e-07
-5.63126e-07
4.19232e-07
-6.20928e-07
4.0537e-07
-6.75938e-07
3.86786e-07
-7.27625e-07
3.64198e-07
-7.75543e-07
3.3824e-07
-8.19319e-07
3.09461e-07
-8.58645e-07
2.78332e-07
-8.93263e-07
2.45258e-07
-9.22967e-07
2.10585e-07
-9.47586e-07
1.74611e-07
-9.66985e-07
1.37598e-07
-9.81061e-07
9.97801e-08
-9.89736e-07
6.13719e-08
-9.92958e-07
2.25752e-08
-9.90702e-07
-1.6414e-08
-9.82965e-07
-5.53996e-08
-9.6977e-07
-9.41798e-08
-9.51168e-07
-1.32541e-07
-9.27239e-07
-1.7025e-07
-8.98096e-07
-2.07051e-07
-8.63894e-07
-2.42652e-07
-8.24831e-07
-2.7672e-07
-7.81155e-07
-3.08873e-07
-7.33177e-07
-3.38664e-07
-6.81277e-07
-3.6558e-07
-6.25917e-07
-3.89028e-07
-5.67646e-07
-4.08335e-07
-5.07119e-07
-4.22749e-07
-4.45098e-07
-4.31446e-07
-3.82469e-07
-4.33547e-07
-3.2024e-07
-4.28152e-07
-2.59553e-07
-4.14379e-07
-2.01675e-07
-3.91423e-07
-1.48005e-07
-3.58622e-07
-1.00061e-07
-3.15536e-07
-5.94809e-08
-2.62031e-07
-2.80161e-08
-1.98356e-07
-7.52948e-09
-1.25206e-07
-4.38325e-08
-7.9921e-09
5.18815e-08
-2.97371e-08
1.46804e-07
-6.30987e-08
2.31122e-07
-1.06054e-07
3.03782e-07
-1.56705e-07
3.64298e-07
-2.13289e-07
4.12638e-07
-2.74185e-07
4.49148e-07
-3.3792e-07
4.74476e-07
-4.03171e-07
4.89475e-07
-4.68762e-07
4.9513e-07
-5.33663e-07
4.92476e-07
-5.96981e-07
4.8255e-07
-6.57949e-07
4.66338e-07
-7.15916e-07
4.44753e-07
-7.70334e-07
4.18617e-07
-8.20745e-07
3.88651e-07
-8.66766e-07
3.55483e-07
-9.08085e-07
3.19651e-07
-9.44443e-07
2.81616e-07
-9.75629e-07
2.41772e-07
-1.00148e-06
2.00458e-07
-1.02185e-06
1.5797e-07
-1.03664e-06
1.14574e-07
-1.04578e-06
7.05096e-08
-1.04921e-06
2.60049e-08
-1.0469e-06
-1.87207e-08
-1.03885e-06
-6.34474e-08
-1.02509e-06
-1.07948e-07
-1.00564e-06
-1.51983e-07
-9.80603e-07
-1.9529e-07
-9.50076e-07
-2.37578e-07
-9.14212e-07
-2.78515e-07
-8.73208e-07
-3.17724e-07
-8.27316e-07
-3.54765e-07
-7.76849e-07
-3.89131e-07
-7.22196e-07
-4.20233e-07
-6.63831e-07
-4.47392e-07
-6.02327e-07
-4.6984e-07
-5.38364e-07
-4.86712e-07
-4.72746e-07
-4.97064e-07
-4.06405e-07
-4.99888e-07
-3.40412e-07
-4.94144e-07
-2.75985e-07
-4.78807e-07
-2.14481e-07
-4.52927e-07
-1.57402e-07
-4.157e-07
-1.06388e-07
-3.6655e-07
-6.32047e-08
-3.05214e-07
-2.9736e-08
-2.31825e-07
-7.97315e-09
-1.46969e-07
-5.18056e-08
-8.44197e-09
6.03235e-08
-3.14703e-08
1.69832e-07
-6.6841e-08
2.66493e-07
-1.12404e-07
3.49344e-07
-1.66128e-07
4.18022e-07
-2.26123e-07
4.72632e-07
-2.90649e-07
5.13674e-07
-3.58127e-07
5.41953e-07
-4.27143e-07
5.58492e-07
-4.96448e-07
5.64435e-07
-5.64952e-07
5.6098e-07
-6.31713e-07
5.49311e-07
-6.95929e-07
5.30554e-07
-7.56924e-07
5.05748e-07
-8.14129e-07
4.75822e-07
-8.67076e-07
4.41597e-07
-9.15377e-07
4.03783e-07
-9.58714e-07
3.62988e-07
-9.96829e-07
3.19731e-07
-1.02951e-06
2.74457e-07
-1.0566e-06
2.27545e-07
-1.07796e-06
1.79327e-07
-1.09348e-06
1.30098e-07
-1.1031e-06
8.01254e-08
-1.10675e-06
2.96593e-08
-1.10442e-06
-2.10578e-08
-1.09608e-06
-7.17838e-08
-1.08176e-06
-1.22269e-07
-1.0615e-06
-1.72246e-07
-1.03536e-06
-2.21424e-07
-1.00346e-06
-2.69478e-07
-9.65941e-07
-3.16037e-07
-9.2299e-07
-3.60676e-07
-8.74858e-07
-4.02897e-07
-8.21862e-07
-4.42127e-07
-7.64398e-07
-4.77697e-07
-7.02954e-07
-5.08837e-07
-6.38121e-07
-5.34672e-07
-5.70612e-07
-5.54221e-07
-5.01271e-07
-5.66406e-07
-4.31083e-07
-5.70075e-07
-3.61189e-07
-5.64038e-07
-2.92886e-07
-5.47111e-07
-2.27629e-07
-5.18184e-07
-1.67034e-07
-4.76296e-07
-1.1286e-07
-4.20723e-07
-6.7007e-08
-3.51068e-07
-3.14903e-08
-2.67342e-07
-8.42608e-09
-1.70033e-07
-6.02317e-08
-8.9159e-09
6.92394e-08
-3.32895e-08
1.94205e-07
-7.07642e-08
3.03968e-07
-1.19059e-07
3.97639e-07
-1.76006e-07
4.7497e-07
-2.39582e-07
5.36208e-07
-3.07921e-07
5.82013e-07
-3.79333e-07
6.13366e-07
-4.52308e-07
6.31466e-07
-5.25515e-07
6.37641e-07
-5.97797e-07
6.33262e-07
-6.68162e-07
6.19677e-07
-7.35771e-07
5.98163e-07
-7.99918e-07
5.69895e-07
-8.60019e-07
5.35923e-07
-9.15593e-07
4.97171e-07
-9.66247e-07
4.54437e-07
-1.01166e-06
4.08404e-07
-1.05159e-06
3.59654e-07
-1.08581e-06
3.0868e-07
-1.11417e-06
2.55906e-07
-1.13654e-06
2.01699e-07
-1.15282e-06
1.4638e-07
-1.16294e-06
9.02435e-08
-1.16684e-06
3.3561e-08
-1.1645e-06
-2.34045e-08
-1.15589e-06
-8.03904e-08
-1.14103e-06
-1.37125e-07
-1.11996e-06
-1.93318e-07
-1.09274e-06
-2.48649e-07
-1.05945e-06
-3.02761e-07
-1.02025e-06
-3.55242e-07
-9.75308e-07
-4.05616e-07
-9.24877e-07
-4.53329e-07
-8.6927e-07
-4.97734e-07
-8.08888e-07
-5.38079e-07
-7.4423e-07
-5.73494e-07
-6.75912e-07
-6.02991e-07
-6.04675e-07
-6.25457e-07
-5.31409e-07
-6.39672e-07
-4.5716e-07
-6.44325e-07
-3.83139e-07
-6.38058e-07
-3.10736e-07
-6.19514e-07
-2.41511e-07
-5.87408e-07
-1.77198e-07
-5.40609e-07
-1.19689e-07
-4.78232e-07
-7.10194e-08
-3.99737e-07
-3.33438e-08
-3.05017e-07
-8.90637e-09
-1.9447e-07
-6.9138e-08
-9.42914e-09
7.86685e-08
-3.52502e-08
2.20027e-07
-7.49824e-08
3.437e-07
-1.26204e-07
4.4886e-07
-1.86603e-07
5.35369e-07
-2.5401e-07
6.03616e-07
-3.26428e-07
6.54431e-07
-4.02044e-07
6.88982e-07
-4.79243e-07
7.08665e-07
-5.56606e-07
7.15005e-07
-6.32906e-07
7.09562e-07
-7.07095e-07
6.93866e-07
-7.78293e-07
6.6936e-07
-8.45764e-07
6.37367e-07
-9.08908e-07
5.99067e-07
-9.67233e-07
5.55496e-07
-1.02034e-06
5.07548e-07
-1.06793e-06
4.55985e-07
-1.10973e-06
4.01454e-07
-1.14555e-06
3.445e-07
-1.17523e-06
2.8559e-07
-1.19866e-06
2.25125e-07
-1.21573e-06
1.63455e-07
-1.22638e-06
1.00895e-07
-1.23056e-06
3.77369e-08
-1.22822e-06
-2.57377e-08
-1.21937e-06
-8.92489e-08
-1.20398e-06
-1.52506e-07
-1.18211e-06
-2.15196e-07
-1.15378e-06
-2.76975e-07
-1.11909e-06
-3.37449e-07
-1.07817e-06
-3.96169e-07
-1.03118e-06
-4.52607e-07
-9.78357e-07
-5.06147e-07
-9.20023e-07
-5.56068e-07
-8.56576e-07
-6.01525e-07
-7.88528e-07
-6.41543e-07
-7.16512e-07
-6.75006e-07
-6.41307e-07
-7.00662e-07
-5.63849e-07
-7.1713e-07
-4.85248e-07
-7.22926e-07
-4.06798e-07
-7.16508e-07
-3.29986e-07
-6.96326e-07
-2.5649e-07
-6.60905e-07
-1.88172e-07
-6.08927e-07
-1.27068e-07
-5.39336e-07
-7.53615e-08
-4.51444e-07
-3.53542e-08
-3.45024e-07
-9.42982e-09
-2.20395e-07
-7.85679e-08
-9.99527e-09
8.86638e-08
-3.74026e-08
2.47434e-07
-7.96005e-08
3.85898e-07
-1.34011e-07
5.03271e-07
-1.98162e-07
5.9952e-07
-2.69729e-07
6.75182e-07
-3.46566e-07
7.31267e-07
-4.26729e-07
7.69144e-07
-5.08487e-07
7.90423e-07
-5.90324e-07
7.96843e-07
-6.70937e-07
7.90175e-07
-7.49218e-07
7.72146e-07
-8.2424e-07
7.44383e-07
-8.95244e-07
7.0837e-07
-9.61607e-07
6.6543e-07
-1.02283e-06
6.16722e-07
-1.07853e-06
5.63241e-07
-1.12837e-06
5.05834e-07
-1.17213e-06
4.45214e-07
-1.20962e-06
3.81984e-07
-1.24068e-06
3.16653e-07
-1.26521e-06
2.49653e-07
-1.28312e-06
1.81361e-07
-1.29433e-06
1.12113e-07
-1.29881e-06
4.2217e-08
-1.29652e-06
-2.80318e-08
-1.28743e-06
-9.8339e-08
-1.27154e-06
-1.68398e-07
-1.24886e-06
-2.37878e-07
-1.21942e-06
-3.06409e-07
-1.1833e-06
-3.73568e-07
-1.14061e-06
-4.38865e-07
-1.09149e-06
-5.01721e-07
-1.03619e-06
-5.61455e-07
-9.74988e-07
-6.17265e-07
-9.08303e-07
-6.6821e-07
-8.3665e-07
-7.13196e-07
-7.60685e-07
-7.50972e-07
-6.81219e-07
-7.80128e-07
-5.99242e-07
-7.99107e-07
-5.15933e-07
-8.06235e-07
-4.32676e-07
-7.99764e-07
-3.51068e-07
-7.77935e-07
-2.72913e-07
-7.3906e-07
-2.00221e-07
-6.81619e-07
-1.35182e-07
-6.04375e-07
-8.01449e-08
-5.06481e-07
-3.75749e-08
-3.87595e-07
-1.00107e-08
-2.47959e-07
-8.85787e-08
-1.06269e-08
9.92907e-08
-3.97941e-08
2.76601e-07
-8.47178e-08
4.30822e-07
-1.42644e-07
5.61197e-07
-2.1092e-07
6.67797e-07
-2.87048e-07
7.5131e-07
-3.68718e-07
8.12937e-07
-4.5384e-07
8.54266e-07
-5.40554e-07
8.77138e-07
-6.27241e-07
8.83529e-07
-7.12509e-07
8.75443e-07
-7.95188e-07
8.54826e-07
-8.74307e-07
8.23502e-07
-9.49075e-07
7.83137e-07
-1.01885e-06
7.3521e-07
-1.08314e-06
6.81012e-07
-1.14155e-06
6.21648e-07
-1.19377e-06
5.58056e-07
-1.23958e-06
4.91022e-07
-1.2788e-06
4.21203e-07
-1.3113e-06
3.49151e-07
-1.33697e-06
2.7533e-07
-1.35575e-06
2.00141e-07
-1.36758e-06
1.23936e-07
-1.37239e-06
4.70348e-08
-1.37017e-06
-3.0257e-08
-1.36087e-06
-1.07635e-07
-1.34449e-06
-1.84783e-07
-1.32101e-06
-2.61353e-07
-1.29047e-06
-3.36955e-07
-1.2529e-06
-4.1114e-07
-1.20839e-06
-4.83375e-07
-1.15708e-06
-5.53031e-07
-1.09917e-06
-6.1936e-07
-1.03497e-06
-6.81473e-07
-9.64852e-07
-7.38323e-07
-8.89357e-07
-7.88691e-07
-8.09156e-07
-8.31173e-07
-7.25096e-07
-8.64188e-07
-6.3822e-07
-8.85982e-07
-5.49785e-07
-8.9467e-07
-4.61273e-07
-8.88276e-07
-3.74403e-07
-8.64806e-07
-2.91122e-07
-8.2234e-07
-2.13601e-07
-7.5914e-07
-1.4421e-07
-6.73767e-07
-8.54779e-08
-5.65213e-07
-4.00571e-08
-4.33015e-07
-1.06626e-08
-2.77353e-07
-9.92413e-08
-1.13365e-08
1.10627e-07
-4.24718e-08
3.07736e-07
-9.04333e-08
4.78783e-07
-1.52265e-07
6.23029e-07
-2.25112e-07
7.40643e-07
-3.06276e-07
8.32474e-07
-3.93265e-07
8.99926e-07
-4.83824e-07
9.44824e-07
-5.75952e-07
9.69266e-07
-6.67912e-07
9.75489e-07
-7.58221e-07
9.65752e-07
-8.45639e-07
9.42244e-07
-9.29148e-07
9.07011e-07
-1.00793e-06
8.61917e-07
-1.08133e-06
8.08611e-07
-1.14885e-06
7.48531e-07
-1.2101e-06
6.82902e-07
-1.2648e-06
6.12757e-07
-1.31274e-06
5.38957e-07
-1.35375e-06
4.6222e-07
-1.38774e-06
3.83136e-07
-1.41461e-06
3.02201e-07
-1.4343e-06
2.19834e-07
-1.44677e-06
1.364e-07
-1.45196e-06
5.22259e-08
-1.44984e-06
-3.23781e-08
-1.44037e-06
-1.17104e-07
-1.42352e-06
-2.0163e-07
-1.39927e-06
-2.85599e-07
-1.36763e-06
-3.68605e-07
-1.32859e-06
-4.50171e-07
-1.28224e-06
-5.29729e-07
-1.22867e-06
-6.06599e-07
-1.16807e-06
-6.7996e-07
-1.10071e-06
-7.48834e-07
-1.02697e-06
-8.1206e-07
-9.47385e-07
-8.68278e-07
-8.62638e-07
-9.15921e-07
-7.73614e-07
-9.53211e-07
-6.81414e-07
-9.78182e-07
-5.87378e-07
-9.88707e-07
-4.93095e-07
-9.82558e-07
-4.00421e-07
-9.5748e-07
-3.11464e-07
-9.11297e-07
-2.28579e-07
-8.42025e-07
-1.54333e-07
-7.48012e-07
-9.14707e-08
-6.28076e-07
-4.28527e-08
-4.81633e-07
-1.13992e-08
-3.08807e-07
-1.1064e-07
-1.2137e-08
1.22764e-07
-4.54845e-08
3.41084e-07
-9.68505e-08
5.30149e-07
-1.63046e-07
6.89224e-07
-2.4098e-07
8.18578e-07
-3.27731e-07
9.19225e-07
-4.20597e-07
9.92793e-07
-5.17137e-07
1.04136e-06
-6.15194e-07
1.06732e-06
-7.12898e-07
1.07319e-06
-8.08667e-07
1.06152e-06
-9.01189e-07
1.03477e-06
-9.89396e-07
9.95219e-07
-1.07244e-06
9.44963e-07
-1.14967e-06
8.85838e-07
-1.22058e-06
8.1944e-07
-1.2848e-06
7.47124e-07
-1.34207e-06
6.70027e-07
-1.3922e-06
5.89089e-07
-1.43507e-06
5.05085e-07
-1.47058e-06
4.18647e-07
-1.49868e-06
3.30298e-07
-1.51931e-06
2.40472e-07
-1.53245e-06
1.49539e-07
-1.53806e-06
5.78285e-08
-1.53608e-06
-3.43536e-08
-1.52648e-06
-1.26702e-07
-1.50922e-06
-2.18896e-07
-1.48424e-06
-3.10576e-07
-1.45152e-06
-4.01325e-07
-1.41104e-06
-4.90646e-07
-1.36284e-06
-5.77937e-07
-1.30697e-06
-6.62465e-07
-1.24359e-06
-7.43338e-07
-1.17295e-06
-8.19481e-07
-1.0954e-06
-8.8961e-07
-1.01146e-06
-9.52212e-07
-9.21847e-07
-1.00554e-06
-8.27465e-07
-1.04759e-06
-7.29476e-07
-1.07617e-06
-6.29309e-07
-1.08887e-06
-5.28674e-07
-1.08319e-06
-4.29577e-07
-1.05658e-06
-3.34309e-07
-1.00656e-06
-2.45434e-07
-9.309e-07
-1.6575e-07
-8.27696e-07
-9.82417e-08
-6.95584e-07
-4.60177e-08
-5.33857e-07
-1.2235e-08
-3.4259e-07
-1.22875e-07
-1.30429e-08
1.35807e-07
-4.88865e-08
3.76928e-07
-1.04083e-07
5.85345e-07
-1.75171e-07
7.60312e-07
-2.5879e-07
9.02197e-07
-3.51758e-07
1.01219e-06
-4.51133e-07
1.09217e-06
-5.54266e-07
1.1445e-06
-6.58819e-07
1.17187e-06
-7.6278e-07
1.17715e-06
-8.64459e-07
1.1632e-06
-9.62465e-07
1.13277e-06
-1.05568e-06
1.08844e-06
-1.14325e-06
1.03252e-06
-1.22449e-06
9.67082e-07
-1.29893e-06
8.93879e-07
-1.36622e-06
8.14414e-07
-1.42612e-06
7.29933e-07
-1.47849e-06
6.41459e-07
-1.52324e-06
5.49826e-07
-1.56029e-06
4.55706e-07
-1.58964e-06
3.59642e-07
-1.61124e-06
2.62078e-07
-1.62509e-06
1.63384e-07
-1.63114e-06
6.38815e-08
-1.62936e-06
-3.61342e-08
-1.61969e-06
-1.36371e-07
-1.60207e-06
-2.36516e-07
-1.57643e-06
-3.36218e-07
-1.5427e-06
-4.35056e-07
-1.50083e-06
-5.32518e-07
-1.45079e-06
-6.27972e-07
-1.39262e-06
-7.20634e-07
-1.32642e-06
-8.0954e-07
-1.25239e-06
-8.93514e-07
-1.17086e-06
-9.71139e-07
-1.08233e-06
-1.04074e-06
-9.87524e-07
-1.10035e-06
-8.87372e-07
-1.14775e-06
-7.83098e-07
-1.18044e-06
-6.76221e-07
-1.19575e-06
-5.68587e-07
-1.19083e-06
-4.62368e-07
-1.1628e-06
-3.60065e-07
-1.10887e-06
-2.6448e-07
-1.02649e-06
-1.78677e-07
-9.13498e-07
-1.05924e-07
-7.68337e-07
-4.96152e-08
-5.90166e-07
-1.31869e-08
-3.79018e-07
-1.36062e-07
-1.40709e-08
1.49878e-07
-5.27398e-08
4.15597e-07
-1.12259e-07
6.44864e-07
-1.88851e-07
8.36904e-07
-2.78838e-07
9.92184e-07
-3.78738e-07
1.11209e-06
-4.85335e-07
1.19877e-06
-5.95737e-07
1.2549e-06
-7.07408e-07
1.28355e-06
-8.18177e-07
1.28792e-06
-9.26236e-07
1.27126e-06
-1.03011e-06
1.23665e-06
-1.12865e-06
1.18697e-06
-1.22096e-06
1.12483e-06
-1.30638e-06
1.05251e-06
-1.38446e-06
9.71958e-07
-1.45488e-06
8.84835e-07
-1.51746e-06
7.92505e-07
-1.57207e-06
6.96076e-07
-1.61869e-06
5.96439e-07
-1.65728e-06
4.94303e-07
-1.68787e-06
3.90228e-07
-1.71045e-06
2.84658e-07
-1.72502e-06
1.77956e-07
-1.73157e-06
7.04243e-08
-1.73004e-06
-3.76623e-08
-1.72037e-06
-1.46035e-07
-1.70249e-06
-2.54402e-07
-1.67628e-06
-3.62428e-07
-1.64164e-06
-4.69697e-07
-1.59846e-06
-5.75693e-07
-1.54668e-06
-6.79758e-07
-1.48625e-06
-7.81062e-07
-1.41722e-06
-8.78569e-07
-1.33974e-06
-9.70995e-07
-1.2541e-06
-1.05678e-06
-1.16077e-06
-1.13406e-06
-1.06045e-06
-1.20066e-06
-9.54111e-07
-1.25408e-06
-8.43029e-07
-1.29153e-06
-7.28821e-07
-1.30996e-06
-6.13476e-07
-1.30617e-06
-4.99355e-07
-1.27692e-06
-3.89195e-07
-1.21903e-06
-2.86075e-07
-1.12961e-06
-1.93368e-07
-1.00621e-06
-1.14672e-07
-8.47033e-07
-5.3719e-08
-6.51119e-07
-1.42747e-08
-4.18462e-07
-1.50337e-07
-1.52408e-08
1.65119e-07
-5.71177e-08
4.57473e-07
-1.21531e-07
7.09277e-07
-2.04329e-07
9.19703e-07
-3.01467e-07
1.08932e-06
-4.09108e-07
1.21973e-06
-5.23721e-07
1.31338e-06
-6.42139e-07
1.37332e-06
-7.616e-07
1.40301e-06
-8.79758e-07
1.40608e-06
-9.94678e-07
1.38618e-06
-1.10481e-06
1.34678e-06
-1.20895e-06
1.29112e-06
-1.30621e-06
1.22209e-06
-1.39594e-06
1.14224e-06
-1.47771e-06
1.05374e-06
-1.55128e-06
9.58402e-07
-1.6165e-06
8.57724e-07
-1.67332e-06
7.52899e-07
-1.72176e-06
6.44876e-07
-1.76185e-06
5.34394e-07
-1.79365e-06
4.22023e-07
-1.81719e-06
3.08199e-07
-1.8325e-06
1.93265e-07
-1.83957e-06
7.74953e-08
-1.83836e-06
-3.88709e-08
-1.82879e-06
-1.556e-07
-1.81076e-06
-2.72435e-07
-1.78412e-06
-3.89067e-07
-1.74872e-06
-5.05101e-07
-1.70439e-06
-6.20022e-07
-1.65099e-06
-7.33159e-07
-1.58841e-06
-8.43641e-07
-1.51662e-06
-9.50358e-07
-1.4357e-06
-1.05192e-06
-1.34587e-06
-1.14661e-06
-1.24756e-06
-1.23237e-06
-1.14145e-06
-1.30677e-06
-1.02852e-06
-1.36701e-06
-9.10096e-07
-1.40995e-06
-7.87897e-07
-1.43216e-06
-6.64066e-07
-1.43e-06
-5.41178e-07
-1.39981e-06
-4.22236e-07
-1.33797e-06
-3.10638e-07
-1.2412e-06
-2.1012e-07
-1.10672e-06
-1.24669e-07
-9.32484e-07
-5.8418e-08
-7.1737e-07
-1.55222e-08
-4.61358e-07
-1.65859e-07
-1.6577e-08
1.81696e-07
-6.21082e-08
5.03005e-07
-1.32077e-07
7.79246e-07
-2.21893e-07
1.00952e-06
-3.27073e-07
1.1945e-06
-4.4337e-07
1.33603e-06
-5.66884e-07
1.43689e-06
-6.94133e-07
1.50057e-06
-8.22102e-07
1.53098e-06
-9.48252e-07
1.53223e-06
-1.07052e-06
1.50844e-06
-1.18726e-06
1.46353e-06
-1.29725e-06
1.40111e-06
-1.3996e-06
1.32444e-06
-1.4937e-06
1.23633e-06
-1.57917e-06
1.13921e-06
-1.65583e-06
1.03506e-06
-1.72361e-06
9.25502e-07
-1.78253e-06
8.11826e-07
-1.83269e-06
6.95033e-07
-1.87418e-06
5.75886e-07
-1.90711e-06
4.54955e-07
-1.93157e-06
3.3266e-07
-1.94762e-06
2.09307e-07
-1.95525e-06
8.51291e-08
-1.95444e-06
-3.96833e-08
-1.94509e-06
-1.64948e-07
-1.92707e-06
-2.90459e-07
-1.90018e-06
-4.15949e-07
-1.86423e-06
-5.41057e-07
-1.81896e-06
-6.65287e-07
-1.76416e-06
-7.8796e-07
-1.69963e-06
-9.08176e-07
-1.62523e-06
-1.02475e-06
-1.54095e-06
-1.13619e-06
-1.44694e-06
-1.24062e-06
-1.34355e-06
-1.33576e-06
-1.23141e-06
-1.41891e-06
-1.11151e-06
-1.48692e-06
-9.8521e-07
-1.53625e-06
-8.54333e-07
-1.56303e-06
-7.21185e-07
-1.56315e-06
-5.88576e-07
-1.53241e-06
-4.59812e-07
-1.46673e-06
-3.38664e-07
-1.36235e-06
-2.2929e-07
-1.2161e-06
-1.36138e-07
-1.02564e-06
-6.38204e-08
-7.89688e-07
-1.69593e-08
-5.08219e-07
-1.82819e-07
-1.81092e-08
1.99805e-07
-6.78183e-08
5.52714e-07
-1.44115e-07
8.55543e-07
-2.41884e-07
1.10729e-06
-3.56124e-07
1.30874e-06
-4.82106e-07
1.46201e-06
-6.155e-07
1.57029e-06
-7.52464e-07
1.63753e-06
-8.89698e-07
1.66821e-06
-1.02445e-06
1.66699e-06
-1.15452e-06
1.63851e-06
-1.2782e-06
1.5872e-06
-1.39423e-06
1.51714e-06
-1.50174e-06
1.43195e-06
-1.60018e-06
1.33478e-06
-1.68926e-06
1.22829e-06
-1.76886e-06
1.11466e-06
-1.83902e-06
9.95666e-07
-1.89987e-06
8.72672e-07
-1.95157e-06
7.46732e-07
-1.99431e-06
6.18623e-07