/*--------------------------------*- C++ -*----------------------------------*\
  =========                 |
  \\      /  F ield         | OpenFOAM: The Open Source CFD Toolbox
   \\    /   O peration     | Website:  https://openfoam.org
    \\  /    A nd           | Version:  7
     \\/     M anipulation  |
\*---------------------------------------------------------------------------*/
FoamFile
{
    version     2.0;
    format      ascii;
    class       volScalarField;
    location    "0.0436";
    object      p;
}
// * * * * * * * * * * * * * * * * * * * * * * * * * * * * * * * * * * * * * //

dimensions      [0 2 -2 0 0 0 0];

internalField   nonuniform List<scalar> 
2500
(
-8.32305e-06
-6.51189
-9.29689
-10.4925
-11.1576
-11.5636
-11.827
-12.0114
-12.1488
-12.2555
-12.341
-12.4108
-12.4687
-12.5173
-12.5584
-12.5934
-12.6232
-12.6488
-12.6707
-12.6894
-12.7055
-12.7193
-12.7311
-12.7413
-12.7502
-12.7581
-12.7653
-12.7721
-12.7788
-12.7857
-12.7933
-12.8019
-12.8121
-12.8244
-12.8395
-12.8581
-12.8812
-12.9102
-12.9468
-12.9933
-13.0531
-13.1317
-13.2376
-13.3865
-13.6092
-13.9669
-14.5665
-15.6671
-18.3342
-24.719
-4.95559
-7.67549
-9.18215
-10.1421
-10.8098
-11.2697
-11.5911
-11.8242
-11.9994
-12.1349
-12.2424
-12.3294
-12.401
-12.4607
-12.5109
-12.5536
-12.5901
-12.6214
-12.6485
-12.6719
-12.6923
-12.7101
-12.7257
-12.7396
-12.7522
-12.7637
-12.7746
-12.7852
-12.7958
-12.8069
-12.819
-12.8326
-12.8482
-12.8665
-12.8885
-12.9152
-12.9478
-12.9883
-13.039
-13.1032
-13.1859
-13.2941
-13.4389
-13.6379
-13.9201
-14.3335
-14.9432
-15.8312
-17.2511
-19.8502
-7.92523
-8.75756
-9.55847
-10.2394
-10.7796
-11.1895
-11.499
-11.7357
-11.9197
-12.0651
-12.1821
-12.2776
-12.3566
-12.4228
-12.4788
-12.5265
-12.5674
-12.6027
-12.6334
-12.6601
-12.6836
-12.7044
-12.7229
-12.7395
-12.7548
-12.769
-12.7827
-12.796
-12.8096
-12.8238
-12.8391
-12.8562
-12.8756
-12.8982
-12.9248
-12.9567
-12.9954
-13.0428
-13.1014
-13.1746
-13.2674
-13.3865
-13.5415
-13.7459
-14.0193
-14.3879
-14.8801
-15.5079
-16.2534
-17.0168
-9.43488
-9.64809
-10.0671
-10.512
-10.905
-11.2321
-11.4986
-11.7143
-11.8892
-12.0319
-12.1494
-12.2471
-12.329
-12.3983
-12.4573
-12.508
-12.5518
-12.5898
-12.6231
-12.6523
-12.6781
-12.7011
-12.7218
-12.7406
-12.758
-12.7744
-12.7902
-12.8057
-12.8216
-12.8381
-12.8559
-12.8755
-12.8977
-12.9231
-12.9529
-12.9881
-13.0302
-13.0811
-13.1431
-13.2193
-13.3137
-13.4314
-13.5792
-13.7656
-14.0001
-14.2921
-14.6474
-15.0532
-15.4353
-15.6131
-10.3206
-10.3198
-10.5236
-10.8004
-11.0751
-11.3252
-11.5439
-11.7308
-11.889
-12.0225
-12.1354
-12.2312
-12.3128
-12.3828
-12.4432
-12.4954
-12.541
-12.5808
-12.6159
-12.6469
-12.6746
-12.6994
-12.7218
-12.7425
-12.7616
-12.7798
-12.7973
-12.8147
-12.8323
-12.8507
-12.8704
-12.892
-12.9162
-12.9437
-12.9754
-13.0125
-13.0564
-13.1085
-13.171
-13.2462
-13.3371
-13.4473
-13.5807
-13.7414
-13.9324
-14.1537
-14.3991
-14.6479
-14.8275
-14.809
-10.8873
-10.8128
-10.9014
-11.0688
-11.2567
-11.4431
-11.6171
-11.7738
-11.912
-12.0326
-12.1374
-12.2284
-12.3073
-12.376
-12.436
-12.4886
-12.5348
-12.5755
-12.6117
-12.6439
-12.6729
-12.699
-12.7228
-12.7447
-12.7653
-12.7848
-12.8037
-12.8224
-12.8415
-12.8613
-12.8823
-12.9052
-12.9306
-12.9593
-12.992
-13.0297
-13.0736
-13.1251
-13.1857
-13.2571
-13.3413
-13.4404
-13.5562
-13.6897
-13.8402
-14.0032
-14.1687
-14.3162
-14.3895
-14.3077
-11.2695
-11.1782
-11.2082
-11.3071
-11.4336
-11.5699
-11.7055
-11.8337
-11.9514
-12.0576
-12.1524
-12.2366
-12.311
-12.3769
-12.4352
-12.4869
-12.5328
-12.5737
-12.6102
-12.643
-12.6726
-12.6996
-12.7243
-12.7471
-12.7686
-12.7891
-12.809
-12.8287
-12.8487
-12.8693
-12.8912
-12.9148
-12.9408
-12.9698
-13.0025
-13.0397
-13.0825
-13.1319
-13.1888
-13.2546
-13.3303
-13.4168
-13.5145
-13.6226
-13.7384
-13.8559
-13.9654
-14.0502
-14.0711
-13.9782
-11.5427
-11.455
-11.456
-11.5125
-11.5965
-11.6951
-11.7993
-11.9025
-12.001
-12.0927
-12.1768
-12.2532
-12.3221
-12.384
-12.4397
-12.4895
-12.5343
-12.5746
-12.6109
-12.6438
-12.6736
-12.7009
-12.726
-12.7494
-12.7715
-12.7925
-12.813
-12.8333
-12.8537
-12.8749
-12.8971
-12.9209
-12.9468
-12.9754
-13.0074
-13.0434
-13.0841
-13.1303
-13.1826
-13.2419
-13.3084
-13.3824
-13.4632
-13.5491
-13.6368
-13.7205
-13.7917
-13.8384
-13.8343
-13.7484
-11.7484
-11.6701
-11.6569
-11.6873
-11.7424
-11.8131
-11.8924
-11.9747
-12.0561
-12.1342
-12.2077
-12.276
-12.3387
-12.3961
-12.4483
-12.4957
-12.5388
-12.5779
-12.6134
-12.6458
-12.6754
-12.7026
-12.7278
-12.7514
-12.7736
-12.7949
-12.8156
-12.836
-12.8567
-12.8778
-12.8999
-12.9235
-12.9489
-12.9767
-13.0073
-13.0414
-13.0794
-13.1219
-13.1692
-13.2216
-13.2792
-13.3415
-13.4074
-13.475
-13.5408
-13.5998
-13.6453
-13.6692
-13.6536
-13.5791
-11.9098
-11.8413
-11.8215
-11.8358
-11.8712
-11.9216
-11.9816
-12.0467
-12.1133
-12.1792
-12.2427
-12.303
-12.3594
-12.4118
-12.4602
-12.5047
-12.5455
-12.5829
-12.6172
-12.6487
-12.6777
-12.7045
-12.7294
-12.7528
-12.7749
-12.7961
-12.8167
-12.837
-12.8574
-12.8783
-12.9
-12.9229
-12.9474
-12.9739
-13.0029
-13.0347
-13.0697
-13.1082
-13.1503
-13.1962
-13.2454
-13.2973
-13.3507
-13.4034
-13.4525
-13.4937
-13.5222
-13.5324
-13.5123
-13.4489
-12.0401
-11.9803
-11.9579
-11.9624
-11.9844
-12.02
-12.0651
-12.1163
-12.1705
-12.2256
-12.28
-12.3326
-12.3828
-12.4302
-12.4745
-12.5158
-12.554
-12.5894
-12.6221
-12.6523
-12.6803
-12.7064
-12.7307
-12.7535
-12.7752
-12.796
-12.8162
-12.8362
-12.8561
-12.8764
-12.8974
-12.9193
-12.9427
-12.9677
-12.9947
-13.024
-13.0559
-13.0904
-13.1276
-13.1673
-13.209
-13.252
-13.2949
-13.3359
-13.3723
-13.401
-13.4182
-13.4204
-13.3992
-13.3454
-12.1477
-12.0954
-12.0725
-12.0709
-12.0838
-12.1085
-12.1423
-12.1824
-12.2262
-12.272
-12.3182
-12.3638
-12.408
-12.4504
-12.4905
-12.5284
-12.5638
-12.5969
-12.6277
-12.6564
-12.6832
-12.7081
-12.7316
-12.7537
-12.7747
-12.7949
-12.8144
-12.8337
-12.853
-12.8724
-12.8925
-12.9133
-12.9352
-12.9586
-12.9835
-13.0103
-13.039
-13.0697
-13.1022
-13.1364
-13.1716
-13.207
-13.2414
-13.2732
-13.3002
-13.3199
-13.3298
-13.3273
-13.3067
-13.261
-12.2381
-12.1922
-12.1697
-12.1645
-12.1712
-12.1881
-12.2132
-12.2443
-12.2796
-12.3174
-12.3564
-12.3956
-12.4342
-12.4717
-12.5078
-12.5421
-12.5746
-12.6052
-12.6339
-12.6608
-12.6861
-12.7098
-12.7321
-12.7532
-12.7733
-12.7926
-12.8114
-12.8298
-12.8481
-12.8666
-12.8855
-12.9051
-12.9255
-12.947
-12.9699
-12.9941
-13.0198
-13.0469
-13.0752
-13.1045
-13.1341
-13.1632
-13.1908
-13.2155
-13.2355
-13.2489
-13.2539
-13.249
-13.2296
-13.1907
-12.3151
-12.2745
-12.2532
-12.2458
-12.2483
-12.2595
-12.2779
-12.302
-12.3302
-12.3613
-12.3939
-12.4274
-12.4608
-12.4938
-12.5258
-12.5566
-12.5861
-12.6141
-12.6406
-12.6655
-12.6891
-12.7113
-12.7323
-12.7522
-12.7712
-12.7895
-12.8072
-12.8246
-12.8419
-12.8593
-12.8769
-12.8951
-12.9139
-12.9336
-12.9543
-12.9761
-12.9989
-13.0228
-13.0473
-13.0723
-13.0972
-13.1211
-13.1433
-13.1624
-13.1773
-13.1863
-13.1882
-13.182
-13.1644
-13.1312
-12.3813
-12.3455
-12.3255
-12.3171
-12.3167
-12.3237
-12.3371
-12.3556
-12.378
-12.4033
-12.4305
-12.4587
-12.4875
-12.5161
-12.5443
-12.5717
-12.5981
-12.6235
-12.6476
-12.6705
-12.6922
-12.7128
-12.7323
-12.7508
-12.7686
-12.7856
-12.8022
-12.8185
-12.8345
-12.8506
-12.867
-12.8837
-12.9009
-12.9188
-12.9374
-12.9568
-12.977
-12.9979
-13.0191
-13.0404
-13.0612
-13.081
-13.0988
-13.1137
-13.1247
-13.1307
-13.1307
-13.1241
-13.1084
-13.0801
-12.4389
-12.4073
-12.3888
-12.3799
-12.3777
-12.3816
-12.3911
-12.4052
-12.4229
-12.4433
-12.4657
-12.4894
-12.5139
-12.5385
-12.5631
-12.5872
-12.6106
-12.6332
-12.6549
-12.6756
-12.6954
-12.7142
-12.7321
-12.7492
-12.7655
-12.7813
-12.7966
-12.8115
-12.8263
-12.8411
-12.856
-12.8712
-12.8868
-12.9029
-12.9195
-12.9367
-12.9545
-12.9726
-12.9909
-13.009
-13.0265
-13.0428
-13.0572
-13.0689
-13.0771
-13.081
-13.0799
-13.0734
-13.0596
-13.0355
-12.4895
-12.4615
-12.4447
-12.4358
-12.4323
-12.4342
-12.4407
-12.4512
-12.465
-12.4814
-12.4997
-12.5193
-12.5399
-12.5609
-12.5819
-12.6029
-12.6234
-12.6433
-12.6626
-12.6811
-12.6988
-12.7158
-12.732
-12.7474
-12.7623
-12.7766
-12.7905
-12.8041
-12.8175
-12.8309
-12.8443
-12.8579
-12.8719
-12.8862
-12.901
-12.9161
-12.9316
-12.9473
-12.963
-12.9784
-12.9931
-13.0065
-13.0182
-13.0274
-13.0336
-13.0361
-13.0345
-13.0285
-13.0165
-12.9962
-12.5341
-12.5096
-12.4944
-12.4858
-12.4817
-12.482
-12.4863
-12.494
-12.5046
-12.5176
-12.5323
-12.5484
-12.5654
-12.583
-12.6009
-12.6187
-12.6364
-12.6537
-12.6706
-12.6869
-12.7025
-12.7175
-12.7319
-12.7457
-12.759
-12.7718
-12.7842
-12.7964
-12.8083
-12.8202
-12.8322
-12.8443
-12.8566
-12.8692
-12.8821
-12.8953
-12.9087
-12.9222
-12.9356
-12.9486
-12.9609
-12.972
-12.9815
-12.9889
-12.9936
-12.9952
-12.9934
-12.9881
-12.9779
-12.9611
-12.5739
-12.5526
-12.5391
-12.531
-12.5266
-12.5259
-12.5285
-12.534
-12.5419
-12.552
-12.5636
-12.5766
-12.5904
-12.6049
-12.6198
-12.6348
-12.6497
-12.6645
-12.679
-12.693
-12.7066
-12.7196
-12.7322
-12.7443
-12.7559
-12.7671
-12.7779
-12.7886
-12.799
-12.8094
-12.8198
-12.8303
-12.841
-12.8519
-12.863
-12.8744
-12.8858
-12.8973
-12.9087
-12.9196
-12.9299
-12.9391
-12.9468
-12.9528
-12.9565
-12.9576
-12.9559
-12.9514
-12.943
-12.9293
-12.6097
-12.5913
-12.5795
-12.5721
-12.5678
-12.5664
-12.5677
-12.5714
-12.5772
-12.5848
-12.5938
-12.6039
-12.6149
-12.6266
-12.6387
-12.651
-12.6633
-12.6756
-12.6877
-12.6996
-12.711
-12.7221
-12.7328
-12.7431
-12.753
-12.7626
-12.7718
-12.7809
-12.7898
-12.7986
-12.8075
-12.8164
-12.8254
-12.8346
-12.844
-12.8536
-12.8632
-12.8729
-12.8823
-12.8914
-12.8999
-12.9075
-12.9139
-12.9187
-12.9216
-12.9225
-12.9211
-12.9175
-12.9109
-12.9002
-12.6422
-12.6267
-12.6165
-12.61
-12.6058
-12.604
-12.6044
-12.6067
-12.6107
-12.6162
-12.6229
-12.6305
-12.639
-12.6481
-12.6576
-12.6673
-12.6772
-12.6871
-12.697
-12.7066
-12.716
-12.7251
-12.7339
-12.7424
-12.7506
-12.7584
-12.7661
-12.7735
-12.7808
-12.788
-12.7952
-12.8025
-12.8099
-12.8174
-12.8251
-12.8329
-12.8408
-12.8487
-12.8565
-12.8639
-12.8709
-12.877
-12.8822
-12.8862
-12.8886
-12.8894
-12.8885
-12.8859
-12.881
-12.8731
-12.6721
-12.6593
-12.6508
-12.6451
-12.6413
-12.6393
-12.639
-12.6402
-12.6427
-12.6464
-12.651
-12.6565
-12.6627
-12.6694
-12.6765
-12.6838
-12.6914
-12.6991
-12.7067
-12.7142
-12.7215
-12.7287
-12.7356
-12.7423
-12.7487
-12.7548
-12.7608
-12.7665
-12.7722
-12.7778
-12.7833
-12.789
-12.7947
-12.8005
-12.8065
-12.8126
-12.8187
-12.825
-12.8311
-12.837
-12.8425
-12.8474
-12.8516
-12.8549
-12.857
-12.8579
-12.8575
-12.8559
-12.8527
-12.8475
-12.6998
-12.6896
-12.6828
-12.6781
-12.6748
-12.6728
-12.672
-12.6723
-12.6735
-12.6756
-12.6785
-12.682
-12.686
-12.6905
-12.6954
-12.7006
-12.7059
-12.7114
-12.7169
-12.7223
-12.7277
-12.7329
-12.7379
-12.7428
-12.7474
-12.7518
-12.756
-12.7601
-12.7641
-12.7679
-12.7718
-12.7757
-12.7797
-12.7838
-12.7881
-12.7924
-12.7969
-12.8015
-12.806
-12.8105
-12.8146
-12.8184
-12.8217
-12.8244
-12.8263
-12.8273
-12.8276
-12.827
-12.8255
-12.8229
-12.7259
-12.7183
-12.7131
-12.7094
-12.7067
-12.7047
-12.7036
-12.7032
-12.7034
-12.7041
-12.7054
-12.7071
-12.7092
-12.7117
-12.7145
-12.7175
-12.7208
-12.7241
-12.7276
-12.7311
-12.7345
-12.7378
-12.7409
-12.7439
-12.7468
-12.7494
-12.7519
-12.7543
-12.7565
-12.7587
-12.7608
-12.7629
-12.7652
-12.7675
-12.77
-12.7726
-12.7754
-12.7783
-12.7812
-12.7842
-12.7871
-12.7898
-12.7923
-12.7944
-12.7961
-12.7974
-12.7982
-12.7987
-12.7989
-12.7989
-12.7508
-12.7458
-12.7422
-12.7396
-12.7374
-12.7357
-12.7343
-12.7333
-12.7325
-12.732
-12.7318
-12.7319
-12.7322
-12.7328
-12.7336
-12.7347
-12.736
-12.7374
-12.7389
-12.7404
-12.7419
-12.7433
-12.7447
-12.7459
-12.7469
-12.7478
-12.7485
-12.7491
-12.7496
-12.75
-12.7503
-12.7506
-12.751
-12.7516
-12.7522
-12.753
-12.754
-12.7552
-12.7565
-12.758
-12.7596
-12.7612
-12.7629
-12.7645
-12.766
-12.7675
-12.7691
-12.7706
-12.7725
-12.775
-12.775
-12.7725
-12.7706
-12.7691
-12.7675
-12.766
-12.7645
-12.7629
-12.7612
-12.7596
-12.758
-12.7566
-12.7552
-12.754
-12.753
-12.7522
-12.7516
-12.751
-12.7506
-12.7503
-12.75
-12.7496
-12.7491
-12.7485
-12.7478
-12.7469
-12.7459
-12.7447
-12.7433
-12.7419
-12.7404
-12.7389
-12.7374
-12.736
-12.7347
-12.7336
-12.7328
-12.7322
-12.7319
-12.7318
-12.732
-12.7325
-12.7333
-12.7343
-12.7357
-12.7374
-12.7396
-12.7422
-12.7458
-12.7508
-12.7989
-12.7989
-12.7987
-12.7982
-12.7974
-12.7961
-12.7944
-12.7923
-12.7898
-12.7871
-12.7842
-12.7812
-12.7783
-12.7754
-12.7726
-12.77
-12.7675
-12.7652
-12.7629
-12.7608
-12.7587
-12.7565
-12.7543
-12.7519
-12.7494
-12.7468
-12.7439
-12.7409
-12.7378
-12.7345
-12.7311
-12.7276
-12.7241
-12.7208
-12.7175
-12.7145
-12.7117
-12.7092
-12.7071
-12.7054
-12.7041
-12.7034
-12.7032
-12.7036
-12.7047
-12.7067
-12.7094
-12.7131
-12.7183
-12.7259
-12.8229
-12.8255
-12.827
-12.8276
-12.8273
-12.8263
-12.8244
-12.8217
-12.8184
-12.8146
-12.8105
-12.806
-12.8015
-12.7969
-12.7924
-12.7881
-12.7838
-12.7797
-12.7757
-12.7718
-12.7679
-12.7641
-12.7601
-12.756
-12.7518
-12.7474
-12.7428
-12.7379
-12.7329
-12.7277
-12.7223
-12.7169
-12.7114
-12.7059
-12.7006
-12.6954
-12.6905
-12.686
-12.682
-12.6785
-12.6756
-12.6735
-12.6723
-12.672
-12.6727
-12.6748
-12.6781
-12.6828
-12.6896
-12.6998
-12.8475
-12.8527
-12.8559
-12.8575
-12.8579
-12.857
-12.8549
-12.8516
-12.8474
-12.8425
-12.837
-12.8311
-12.825
-12.8187
-12.8126
-12.8065
-12.8005
-12.7947
-12.789
-12.7833
-12.7778
-12.7722
-12.7665
-12.7608
-12.7548
-12.7487
-12.7423
-12.7356
-12.7287
-12.7215
-12.7142
-12.7067
-12.699
-12.6914
-12.6838
-12.6765
-12.6694
-12.6627
-12.6565
-12.651
-12.6464
-12.6427
-12.6402
-12.639
-12.6393
-12.6413
-12.6451
-12.6507
-12.6593
-12.6721
-12.8731
-12.881
-12.8859
-12.8885
-12.8895
-12.8886
-12.8862
-12.8822
-12.877
-12.8709
-12.8639
-12.8565
-12.8487
-12.8408
-12.8329
-12.8251
-12.8174
-12.8099
-12.8025
-12.7952
-12.788
-12.7808
-12.7735
-12.7661
-12.7584
-12.7506
-12.7424
-12.7339
-12.7251
-12.716
-12.7066
-12.697
-12.6871
-12.6772
-12.6673
-12.6576
-12.6481
-12.639
-12.6305
-12.6229
-12.6162
-12.6107
-12.6067
-12.6044
-12.604
-12.6058
-12.61
-12.6165
-12.6267
-12.6422
-12.9002
-12.9109
-12.9175
-12.9211
-12.9225
-12.9216
-12.9187
-12.9139
-12.9075
-12.8999
-12.8914
-12.8823
-12.8729
-12.8632
-12.8536
-12.844
-12.8346
-12.8254
-12.8164
-12.8075
-12.7986
-12.7898
-12.7809
-12.7718
-12.7626
-12.753
-12.7431
-12.7328
-12.7221
-12.711
-12.6996
-12.6877
-12.6756
-12.6633
-12.651
-12.6387
-12.6266
-12.6149
-12.6039
-12.5938
-12.5848
-12.5772
-12.5714
-12.5677
-12.5664
-12.5678
-12.5721
-12.5795
-12.5913
-12.6097
-12.9293
-12.943
-12.9514
-12.9559
-12.9576
-12.9565
-12.9528
-12.9468
-12.9391
-12.9299
-12.9196
-12.9087
-12.8973
-12.8858
-12.8744
-12.863
-12.8519
-12.841
-12.8303
-12.8198
-12.8094
-12.799
-12.7886
-12.7779
-12.7671
-12.7559
-12.7443
-12.7322
-12.7196
-12.7066
-12.693
-12.679
-12.6645
-12.6497
-12.6348
-12.6198
-12.6049
-12.5904
-12.5765
-12.5636
-12.552
-12.5419
-12.534
-12.5285
-12.5259
-12.5266
-12.531
-12.5391
-12.5526
-12.5739
-12.9611
-12.9779
-12.9881
-12.9934
-12.9952
-12.9936
-12.9889
-12.9815
-12.972
-12.9609
-12.9486
-12.9356
-12.9222
-12.9087
-12.8953
-12.8821
-12.8692
-12.8566
-12.8443
-12.8322
-12.8202
-12.8083
-12.7964
-12.7842
-12.7718
-12.759
-12.7457
-12.7319
-12.7175
-12.7025
-12.6869
-12.6706
-12.6537
-12.6364
-12.6187
-12.6009
-12.583
-12.5654
-12.5484
-12.5323
-12.5176
-12.5046
-12.494
-12.4863
-12.482
-12.4817
-12.4858
-12.4944
-12.5096
-12.5341
-12.9962
-13.0165
-13.0285
-13.0345
-13.0361
-13.0336
-13.0274
-13.0182
-13.0065
-12.9931
-12.9784
-12.963
-12.9473
-12.9316
-12.9161
-12.901
-12.8862
-12.8719
-12.8579
-12.8443
-12.8309
-12.8175
-12.8041
-12.7905
-12.7766
-12.7623
-12.7474
-12.732
-12.7158
-12.6988
-12.6811
-12.6626
-12.6433
-12.6234
-12.6028
-12.5819
-12.5609
-12.5399
-12.5193
-12.4997
-12.4814
-12.465
-12.4512
-12.4407
-12.4342
-12.4323
-12.4357
-12.4447
-12.4615
-12.4895
-13.0355
-13.0596
-13.0734
-13.0799
-13.081
-13.0771
-13.0689
-13.0572
-13.0428
-13.0265
-13.009
-12.9909
-12.9726
-12.9545
-12.9367
-12.9195
-12.9029
-12.8868
-12.8712
-12.856
-12.8411
-12.8263
-12.8115
-12.7966
-12.7813
-12.7655
-12.7492
-12.7321
-12.7142
-12.6954
-12.6756
-12.6549
-12.6332
-12.6106
-12.5871
-12.5631
-12.5385
-12.5139
-12.4894
-12.4657
-12.4433
-12.4229
-12.4052
-12.3911
-12.3816
-12.3776
-12.3799
-12.3888
-12.4073
-12.4389
-13.0801
-13.1084
-13.1241
-13.1307
-13.1307
-13.1247
-13.1137
-13.0988
-13.081
-13.0612
-13.0404
-13.0191
-12.9979
-12.977
-12.9568
-12.9374
-12.9188
-12.9009
-12.8836
-12.867
-12.8506
-12.8345
-12.8185
-12.8022
-12.7856
-12.7686
-12.7508
-12.7323
-12.7127
-12.6922
-12.6705
-12.6476
-12.6235
-12.5981
-12.5717
-12.5443
-12.5161
-12.4875
-12.4587
-12.4305
-12.4033
-12.378
-12.3556
-12.3371
-12.3237
-12.3167
-12.3171
-12.3255
-12.3455
-12.3813
-13.1312
-13.1644
-13.182
-13.1882
-13.1863
-13.1773
-13.1624
-13.1433
-13.1211
-13.0972
-13.0723
-13.0473
-13.0228
-12.9989
-12.9761
-12.9543
-12.9336
-12.9139
-12.8951
-12.8769
-12.8593
-12.8419
-12.8246
-12.8072
-12.7895
-12.7712
-12.7522
-12.7323
-12.7113
-12.6891
-12.6655
-12.6406
-12.6141
-12.5861
-12.5566
-12.5258
-12.4938
-12.4608
-12.4274
-12.3939
-12.3612
-12.3302
-12.302
-12.2779
-12.2594
-12.2483
-12.2458
-12.2532
-12.2745
-12.3151
-13.1907
-13.2296
-13.249
-13.2539
-13.2489
-13.2355
-13.2155
-13.1908
-13.1632
-13.1341
-13.1045
-13.0752
-13.0469
-13.0198
-12.9941
-12.9699
-12.947
-12.9255
-12.9051
-12.8855
-12.8666
-12.8481
-12.8298
-12.8114
-12.7926
-12.7733
-12.7532
-12.7321
-12.7098
-12.6861
-12.6608
-12.6339
-12.6052
-12.5746
-12.5421
-12.5078
-12.4717
-12.4342
-12.3956
-12.3564
-12.3174
-12.2796
-12.2443
-12.2132
-12.188
-12.1712
-12.1645
-12.1697
-12.1921
-12.2381
-13.261
-13.3067
-13.3273
-13.3298
-13.3199
-13.3002
-13.2732
-13.2414
-13.207
-13.1716
-13.1364
-13.1022
-13.0697
-13.039
-13.0103
-12.9835
-12.9586
-12.9352
-12.9133
-12.8924
-12.8724
-12.853
-12.8337
-12.8144
-12.7948
-12.7747
-12.7537
-12.7316
-12.7081
-12.6832
-12.6564
-12.6277
-12.5969
-12.5638
-12.5284
-12.4905
-12.4504
-12.408
-12.3638
-12.3182
-12.2719
-12.2262
-12.1823
-12.1423
-12.1085
-12.0838
-12.0709
-12.0725
-12.0954
-12.1477
-13.3454
-13.3992
-13.4204
-13.4182
-13.401
-13.3723
-13.3359
-13.2949
-13.252
-13.209
-13.1673
-13.1276
-13.0904
-13.0559
-13.024
-12.9947
-12.9677
-12.9427
-12.9193
-12.8974
-12.8764
-12.8561
-12.8362
-12.8162
-12.796
-12.7752
-12.7535
-12.7307
-12.7064
-12.6803
-12.6523
-12.6221
-12.5894
-12.554
-12.5158
-12.4745
-12.4302
-12.3828
-12.3326
-12.28
-12.2256
-12.1705
-12.1163
-12.0651
-12.0199
-11.9844
-11.9624
-11.9579
-11.9803
-12.0401
-13.4489
-13.5123
-13.5324
-13.5222
-13.4937
-13.4525
-13.4034
-13.3507
-13.2973
-13.2454
-13.1962
-13.1503
-13.1082
-13.0697
-13.0347
-13.0029
-12.9739
-12.9474
-12.9229
-12.9
-12.8783
-12.8574
-12.837
-12.8167
-12.7961
-12.7749
-12.7527
-12.7294
-12.7045
-12.6777
-12.6487
-12.6172
-12.5829
-12.5455
-12.5047
-12.4602
-12.4118
-12.3594
-12.3029
-12.2427
-12.1792
-12.1133
-12.0467
-11.9816
-11.9216
-11.8712
-11.8358
-11.8214
-11.8413
-11.9098
-13.5791
-13.6536
-13.6692
-13.6453
-13.5998
-13.5408
-13.475
-13.4074
-13.3415
-13.2792
-13.2216
-13.1692
-13.1219
-13.0794
-13.0414
-13.0073
-12.9767
-12.9489
-12.9235
-12.8999
-12.8778
-12.8567
-12.836
-12.8156
-12.7949
-12.7736
-12.7514
-12.7278
-12.7026
-12.6754
-12.6458
-12.6134
-12.5779
-12.5388
-12.4957
-12.4483
-12.3961
-12.3387
-12.276
-12.2077
-12.1342
-12.0561
-11.9747
-11.8924
-11.8131
-11.7424
-11.6873
-11.6569
-11.6701
-11.7484
-13.7484
-13.8343
-13.8384
-13.7917
-13.7205
-13.6368
-13.5491
-13.4632
-13.3824
-13.3084
-13.2419
-13.1826
-13.1303
-13.0841
-13.0434
-13.0074
-12.9754
-12.9468
-12.9209
-12.8971
-12.8749
-12.8537
-12.8333
-12.813
-12.7925
-12.7715
-12.7494
-12.726
-12.7009
-12.6736
-12.6437
-12.6109
-12.5746
-12.5343
-12.4895
-12.4396
-12.384
-12.3221
-12.2532
-12.1768
-12.0927
-12.001
-11.9025
-11.7993
-11.6951
-11.5965
-11.5125
-11.4559
-11.455
-11.5427
-13.9782
-14.0711
-14.0502
-13.9654
-13.8559
-13.7384
-13.6226
-13.5145
-13.4168
-13.3303
-13.2546
-13.1888
-13.1319
-13.0825
-13.0397
-13.0025
-12.9698
-12.9408
-12.9148
-12.8912
-12.8693
-12.8487
-12.8287
-12.809
-12.7891
-12.7686
-12.7471
-12.7243
-12.6996
-12.6726
-12.643
-12.6102
-12.5736
-12.5328
-12.4869
-12.4352
-12.3769
-12.311
-12.2365
-12.1524
-12.0576
-11.9514
-11.8337
-11.7055
-11.5699
-11.4335
-11.3071
-11.2082
-11.1782
-11.2695
-14.3077
-14.3895
-14.3162
-14.1687
-14.0032
-13.8402
-13.6897
-13.5562
-13.4404
-13.3413
-13.2571
-13.1857
-13.1251
-13.0736
-13.0297
-12.9919
-12.9593
-12.9306
-12.9052
-12.8823
-12.8613
-12.8415
-12.8224
-12.8037
-12.7848
-12.7652
-12.7447
-12.7228
-12.699
-12.6728
-12.6439
-12.6117
-12.5755
-12.5348
-12.4886
-12.436
-12.376
-12.3073
-12.2283
-12.1374
-12.0326
-11.912
-11.7738
-11.6171
-11.4431
-11.2567
-11.0688
-10.9014
-10.8128
-10.8873
-14.809
-14.8275
-14.6479
-14.3991
-14.1537
-13.9324
-13.7414
-13.5807
-13.4473
-13.3371
-13.2462
-13.171
-13.1085
-13.0564
-13.0125
-12.9754
-12.9437
-12.9162
-12.892
-12.8704
-12.8507
-12.8323
-12.8147
-12.7973
-12.7798
-12.7616
-12.7424
-12.7218
-12.6994
-12.6746
-12.6469
-12.6159
-12.5808
-12.541
-12.4954
-12.4431
-12.3828
-12.3128
-12.2312
-12.1354
-12.0225
-11.889
-11.7308
-11.5439
-11.3252
-11.0751
-10.8004
-10.5236
-10.3198
-10.3206
-15.6131
-15.4353
-15.0532
-14.6474
-14.2921
-14.0001
-13.7656
-13.5792
-13.4314
-13.3137
-13.2193
-13.1431
-13.0811
-13.0302
-12.9881
-12.9529
-12.9231
-12.8977
-12.8755
-12.8559
-12.8381
-12.8216
-12.8057
-12.7902
-12.7744
-12.758
-12.7406
-12.7218
-12.7011
-12.6781
-12.6523
-12.6231
-12.5898
-12.5518
-12.508
-12.4573
-12.3982
-12.329
-12.2471
-12.1494
-12.0319
-11.8892
-11.7142
-11.4985
-11.2321
-10.905
-10.512
-10.0671
-9.64807
-9.43486
-17.0168
-16.2534
-15.5079
-14.8801
-14.3879
-14.0193
-13.7459
-13.5415
-13.3865
-13.2674
-13.1746
-13.1014
-13.0428
-12.9954
-12.9567
-12.9248
-12.8982
-12.8756
-12.8562
-12.8391
-12.8238
-12.8096
-12.796
-12.7827
-12.769
-12.7548
-12.7395
-12.7229
-12.7044
-12.6836
-12.6601
-12.6334
-12.6027
-12.5674
-12.5265
-12.4788
-12.4228
-12.3566
-12.2776
-12.1821
-12.0651
-11.9196
-11.7357
-11.499
-11.1895
-10.7796
-10.2394
-9.55845
-8.75754
-7.9252
-19.8502
-17.2511
-15.8312
-14.9432
-14.3335
-13.9201
-13.6379
-13.4389
-13.2941
-13.1859
-13.1032
-13.039
-12.9883
-12.9478
-12.9152
-12.8885
-12.8665
-12.8482
-12.8326
-12.819
-12.8069
-12.7958
-12.7852
-12.7746
-12.7637
-12.7522
-12.7396
-12.7257
-12.7101
-12.6923
-12.6719
-12.6485
-12.6214
-12.5901
-12.5536
-12.5109
-12.4607
-12.401
-12.3294
-12.2424
-12.1349
-11.9994
-11.8242
-11.591
-11.2696
-10.8098
-10.1421
-9.18213
-7.67547
-4.95557
-24.719
-18.3342
-15.6671
-14.5665
-13.9669
-13.6092
-13.3865
-13.2376
-13.1317
-13.0531
-12.9933
-12.9468
-12.9102
-12.8812
-12.8581
-12.8395
-12.8244
-12.8121
-12.8019
-12.7933
-12.7857
-12.7788
-12.7721
-12.7653
-12.7581
-12.7502
-12.7413
-12.7311
-12.7193
-12.7055
-12.6894
-12.6707
-12.6488
-12.6232
-12.5934
-12.5584
-12.5173
-12.4687
-12.4108
-12.341
-12.2555
-12.1488
-12.0114
-11.827
-11.5636
-11.1576
-10.4925
-9.29686
-6.51187
1.89927e-05
)
;

boundaryField
{
    movingWallTop
    {
        type            zeroGradient;
    }
    movingWallBottom
    {
        type            zeroGradient;
    }
    fixedWalls
    {
        type            zeroGradient;
    }
    frontAndBack
    {
        type            empty;
    }
}


// ************************************************************************* //
