/*--------------------------------*- C++ -*----------------------------------*\
  =========                 |
  \\      /  F ield         | OpenFOAM: The Open Source CFD Toolbox
   \\    /   O peration     | Website:  https://openfoam.org
    \\  /    A nd           | Version:  7
     \\/     M anipulation  |
\*---------------------------------------------------------------------------*/
FoamFile
{
    version     2.0;
    format      ascii;
    class       surfaceScalarField;
    location    "0.0396";
    object      phi;
}
// * * * * * * * * * * * * * * * * * * * * * * * * * * * * * * * * * * * * * //

dimensions      [0 3 -1 0 0 0 0];

internalField   nonuniform List<scalar> 
4900
(
5.45485e-06
-5.45484e-06
9.95356e-06
-4.49871e-06
1.26943e-05
-2.74078e-06
1.44123e-05
-1.71798e-06
1.5528e-05
-1.11566e-06
1.62803e-05
-7.52334e-07
1.68103e-05
-5.3003e-07
1.71997e-05
-3.89323e-07
1.74956e-05
-2.95894e-07
1.77264e-05
-2.30798e-07
1.79099e-05
-1.83505e-07
1.80578e-05
-1.47944e-07
1.81783e-05
-1.20462e-07
1.8277e-05
-9.87552e-08
1.83583e-05
-8.13048e-08
1.84254e-05
-6.70684e-08
1.84807e-05
-5.53028e-08
1.85262e-05
-4.54609e-08
1.85633e-05
-3.71276e-08
1.85933e-05
-2.99791e-08
1.8617e-05
-2.3756e-08
1.86353e-05
-1.82446e-08
1.86485e-05
-1.32639e-08
1.86572e-05
-8.65566e-09
1.86615e-05
-4.27618e-09
1.86615e-05
-2.13348e-12
1.86571e-05
4.32011e-09
1.86483e-05
8.79752e-09
1.86348e-05
1.35787e-08
1.8616e-05
1.88141e-08
1.85913e-05
2.46757e-08
1.85599e-05
3.13665e-08
1.85208e-05
3.91342e-08
1.84725e-05
4.82895e-08
1.84133e-05
5.92342e-08
1.83408e-05
7.25023e-08
1.82519e-05
8.88236e-08
1.81427e-05
1.09227e-07
1.80075e-05
1.35212e-07
1.78384e-05
1.69052e-07
1.76241e-05
2.1435e-07
1.7347e-05
2.77097e-07
1.69792e-05
3.67757e-07
1.64738e-05
5.05414e-07
1.57484e-05
7.25437e-07
1.4657e-05
1.09137e-06
1.2945e-05
1.71197e-06
1.01621e-05
2.78297e-06
5.55736e-06
4.60472e-06
5.55736e-06
-1.19072e-07
-5.33576e-06
1.83207e-06
-6.44985e-06
4.41321e-06
-5.32192e-06
6.72841e-06
-4.03318e-06
8.60731e-06
-2.99455e-06
1.00884e-05
-2.23341e-06
1.12514e-05
-1.69303e-06
1.21705e-05
-1.30843e-06
1.29043e-05
-1.02967e-06
1.34964e-05
-8.22887e-07
1.39787e-05
-6.6588e-07
1.43749e-05
-5.44073e-07
1.47022e-05
-4.47772e-07
1.49738e-05
-3.70385e-07
1.51998e-05
-3.07316e-07
1.5388e-05
-2.55277e-07
1.55446e-05
-2.11849e-07
1.56743e-05
-1.75209e-07
1.57811e-05
-1.43947e-07
1.58681e-05
-1.16946e-07
1.59376e-05
-9.32984e-08
1.59916e-05
-7.22481e-08
1.60315e-05
-5.31476e-08
1.60583e-05
-3.5426e-08
1.60726e-05
-1.85646e-08
1.60747e-05
-2.07712e-09
1.60645e-05
1.4518e-08
1.60416e-05
3.16976e-08
1.60052e-05
4.99706e-08
1.59541e-05
6.98911e-08
1.58867e-05
9.2086e-08
1.58008e-05
1.17289e-07
1.56935e-05
1.46386e-07
1.55613e-05
1.80476e-07
1.53996e-05
2.20961e-07
1.52024e-05
2.69675e-07
1.49622e-05
3.29071e-07
1.46689e-05
4.02518e-07
1.43093e-05
4.94757e-07
1.38658e-05
6.12631e-07
1.33138e-05
7.66274e-07
1.26199e-05
9.71044e-07
1.1737e-05
1.25061e-06
1.06009e-05
1.64158e-06
9.12726e-06
2.19904e-06
7.22172e-06
2.99691e-06
4.83018e-06
4.1035e-06
2.12056e-06
5.49259e-06
1.06923e-08
6.71459e-06
5.56805e-06
-1.08239e-06
-4.25337e-06
-7.5439e-07
-6.77785e-06
5.88252e-07
-6.66456e-06
2.2989e-06
-5.74382e-06
4.00785e-06
-4.70351e-06
5.55646e-06
-3.78202e-06
6.8976e-06
-3.03416e-06
8.03493e-06
-2.44577e-06
8.99113e-06
-1.98587e-06
9.79305e-06
-1.62481e-06
1.04658e-05
-1.33867e-06
1.10311e-05
-1.10933e-06
1.15067e-05
-9.23401e-07
1.19073e-05
-7.71005e-07
1.22448e-05
-6.4481e-07
1.25289e-05
-5.39305e-07
1.27673e-05
-4.50273e-07
1.29665e-05
-3.74436e-07
1.31317e-05
-3.09186e-07
1.32672e-05
-2.52415e-07
1.33763e-05
-2.02374e-07
1.34616e-05
-1.57583e-07
1.35252e-05
-1.16755e-07
1.35686e-05
-7.87429e-08
1.35925e-05
-4.24943e-08
1.35974e-05
-7.01152e-09
1.35832e-05
2.86855e-08
1.35494e-05
6.55865e-08
1.34946e-05
1.04733e-07
1.34172e-05
1.47259e-07
1.33149e-05
1.94436e-07
1.31844e-05
2.47738e-07
1.30219e-05
3.08923e-07
1.28222e-05
3.80137e-07
1.25791e-05
4.64069e-07
1.22846e-05
5.6415e-07
1.19289e-05
6.84855e-07
1.14993e-05
8.32113e-07
1.09801e-05
1.01391e-06
1.03516e-05
1.24113e-06
9.58917e-06
1.52873e-06
8.66299e-06
1.89722e-06
7.53948e-06
2.37413e-06
6.18666e-06
2.9944e-06
4.58975e-06
3.79595e-06
2.78642e-06
4.80025e-06
9.35215e-07
5.95471e-06
-5.71827e-07
6.99963e-06
-1.03842e-06
7.18119e-06
4.52963e-06
-9.13234e-07
-3.34014e-06
-1.34257e-06
-6.34852e-06
-9.39436e-07
-7.06769e-06
1.62674e-08
-6.69953e-06
1.23063e-06
-5.91786e-06
2.50433e-06
-5.05572e-06
3.72468e-06
-4.25452e-06
4.83907e-06
-3.56016e-06
5.82979e-06
-2.97658e-06
6.69711e-06
-2.49213e-06
7.44959e-06
-2.09114e-06
8.09885e-06
-1.75859e-06
8.65699e-06
-1.48155e-06
9.13543e-06
-1.24944e-06
9.54438e-06
-1.05377e-06
9.89279e-06
-8.87716e-07
1.01883e-05
-7.45817e-07
1.04375e-05
-6.23633e-07
1.06459e-05
-5.17515e-07
1.08179e-05
-4.24423e-07
1.09573e-05
-3.41774e-07
1.1067e-05
-2.67334e-07
1.11494e-05
-1.99128e-07
1.1206e-05
-1.35366e-07
1.12379e-05
-7.43854e-08
1.12455e-05
-1.45981e-08
1.12286e-05
4.55625e-08
1.11865e-05
1.07685e-07
1.11178e-05
1.73436e-07
1.10205e-05
2.44616e-07
1.08917e-05
3.23231e-07
1.07278e-05
4.11574e-07
1.05244e-05
5.12331e-07
1.02758e-05
6.28722e-07
9.97523e-06
7.6468e-07
9.6143e-06
9.25082e-07
9.18309e-06
1.11606e-06
8.66982e-06
1.34539e-06
8.06076e-06
1.62297e-06
7.34051e-06
1.96137e-06
6.49296e-06
2.37628e-06
5.50371e-06
2.88646e-06
4.36545e-06
3.51239e-06
3.0886e-06
4.27125e-06
1.72052e-06
5.16403e-06
3.76371e-07
6.1444e-06
-7.28633e-07
7.05971e-06
-1.26756e-06
7.53856e-06
-9.16335e-07
6.82996e-06
3.61329e-06
-6.65221e-07
-2.67492e-06
-1.29906e-06
-5.71468e-06
-1.42226e-06
-6.94449e-06
-1.04999e-06
-7.0718e-06
-3.36645e-07
-6.63121e-06
5.60263e-07
-5.95263e-06
1.52261e-06
-5.21686e-06
2.47463e-06
-4.51217e-06
3.37326e-06
-3.87521e-06
4.19726e-06
-3.31613e-06
4.93876e-06
-2.83264e-06
5.59756e-06
-2.41739e-06
6.17755e-06
-2.06153e-06
6.68453e-06
-1.75643e-06
7.125e-06
-1.49424e-06
7.50543e-06
-1.26814e-06
7.83189e-06
-1.07227e-06
8.10988e-06
-9.01625e-07
8.34426e-06
-7.51894e-07
8.53919e-06
-6.19359e-07
8.69818e-06
-5.00766e-07
8.82408e-06
-3.93225e-07
8.91907e-06
-2.94122e-07
8.98475e-06
-2.0105e-07
9.02211e-06
-1.11741e-07
9.03151e-06
-2.40045e-08
9.01275e-06
6.43288e-08
8.96497e-06
1.55465e-07
8.88669e-06
2.51711e-07
8.77577e-06
3.55542e-07
8.62932e-06
4.6968e-07
8.4437e-06
5.97193e-07
8.21443e-06
7.41601e-07
7.93613e-06
9.07019e-07
7.60249e-06
1.09833e-06
7.20622e-06
1.32135e-06
6.73918e-06
1.5831e-06
6.19259e-06
1.89197e-06
5.55765e-06
2.25791e-06
4.82669e-06
2.69233e-06
3.99543e-06
3.20754e-06
3.06688e-06
3.81502e-06
2.05793e-06
4.52133e-06
1.00956e-06
5.31962e-06
5.56815e-10
6.17303e-06
-8.4106e-07
6.98601e-06
-1.33445e-06
7.5531e-06
-1.29531e-06
7.49941e-06
-6.85589e-07
6.22024e-06
2.92771e-06
-4.71452e-07
-2.20346e-06
-1.10222e-06
-5.08391e-06
-1.47353e-06
-6.57317e-06
-1.4787e-06
-7.06664e-06
-1.16337e-06
-6.94654e-06
-6.22432e-07
-6.49357e-06
5.05775e-08
-5.88987e-06
7.8194e-07
-5.24354e-06
1.52017e-06
-4.61344e-06
2.23237e-06
-4.02832e-06
2.89929e-06
-3.49956e-06
3.51103e-06
-3.02914e-06
4.06377e-06
-2.61427e-06
4.55739e-06
-2.25004e-06
4.99395e-06
-1.9308e-06
5.37668e-06
-1.65087e-06
5.70927e-06
-1.40487e-06
5.99553e-06
-1.18788e-06
6.23906e-06
-9.95423e-07
6.44315e-06
-8.2345e-07
6.61067e-06
-6.68284e-07
6.744e-06
-5.26559e-07
6.84503e-06
-3.95154e-07
6.91512e-06
-2.71135e-07
6.95507e-06
-1.51696e-07
6.96516e-06
-3.40959e-08
6.9451e-06
8.43952e-08
6.894e-06
2.06558e-07
6.81043e-06
3.35287e-07
6.69231e-06
4.73664e-07
6.53696e-06
6.25031e-07
6.34107e-06
7.93083e-07
6.1007e-06
9.81961e-07
5.81136e-06
1.19637e-06
5.46802e-06
1.44166e-06
5.06539e-06
1.72398e-06
4.59822e-06
2.05027e-06
4.06195e-06
2.42824e-06
3.45375e-06
2.86611e-06
2.77423e-06
3.37185e-06
2.03011e-06
3.95166e-06
1.23822e-06
4.60691e-06
4.309e-07
5.32865e-06
-3.37427e-07
6.08795e-06
-9.8484e-07
6.82045e-06
-1.4022e-06
7.40337e-06
-1.47496e-06
7.62587e-06
-1.13874e-06
7.16319e-06
-4.97264e-07
5.57877e-06
2.43044e-06
-3.40673e-07
-1.86279e-06
-9.04945e-07
-4.51964e-06
-1.3704e-06
-6.10772e-06
-1.59545e-06
-6.84158e-06
-1.56151e-06
-6.98048e-06
-1.31047e-06
-6.74461e-06
-9.03516e-07
-6.29682e-06
-3.99573e-07
-5.74748e-06
1.53246e-07
-5.16626e-06
7.19251e-07
-4.59433e-06
1.27379e-06
-4.0541e-06
1.8009e-06
-3.55625e-06
2.29106e-06
-3.10443e-06
2.73923e-06
-2.69822e-06
3.14344e-06
-2.33501e-06
3.50363e-06
-2.01106e-06
3.82097e-06
-1.7222e-06
4.09725e-06
-1.46416e-06
4.33457e-06
-1.23274e-06
4.53504e-06
-1.02392e-06
4.70064e-06
-8.33886e-07
4.83309e-06
-6.5901e-07
4.93377e-06
-4.95838e-07
5.00368e-06
-3.41045e-07
5.04338e-06
-1.91396e-07
5.05299e-06
-4.36992e-08
5.03213e-06
1.05248e-07
4.97999e-06
2.58706e-07
4.89522e-06
4.20058e-07
4.77602e-06
5.92864e-07
4.62012e-06
7.80928e-07
4.42484e-06
9.88364e-07
4.18714e-06
1.21965e-06
3.9038e-06
1.47971e-06
3.57159e-06
1.77388e-06
3.18764e-06
2.10793e-06
2.75001e-06
2.4879e-06
2.25851e-06
2.91974e-06
1.71593e-06
3.40869e-06
1.12985e-06
3.95794e-06
5.15001e-07
4.5665e-06
-1.03614e-07
5.22553e-06
-6.87464e-07
5.9125e-06
-1.18203e-06
6.58251e-06
-1.51773e-06
7.15615e-06
-1.61915e-06
7.50479e-06
-1.43026e-06
7.43697e-06
-9.62575e-07
6.6955e-06
-3.67345e-07
4.98354e-06
2.0631e-06
-2.55881e-07
-1.60691e-06
-7.44381e-07
-4.03114e-06
-1.22842e-06
-5.62368e-06
-1.57108e-06
-6.49892e-06
-1.72314e-06
-6.82842e-06
-1.69033e-06
-6.77742e-06
-1.50513e-06
-6.48202e-06
-1.20827e-06
-6.04434e-06
-8.38566e-07
-5.53597e-06
-4.28596e-07
-5.0043e-06
-3.60344e-09
-4.47909e-06
4.1798e-07
-3.97783e-06
8.23365e-07
-3.50981e-06
1.20417e-06
-3.07903e-06
1.5553e-06
-2.68613e-06
1.87397e-06
-2.32973e-06
2.15904e-06
-2.00727e-06
2.41039e-06
-1.71551e-06
2.62856e-06
-1.45091e-06
2.81442e-06
-1.20978e-06
2.96897e-06
-9.88435e-07
3.09316e-06
-7.83196e-07
3.18778e-06
-5.90457e-07
3.25339e-06
-4.06661e-07
3.29028e-06
-2.2828e-07
3.29837e-06
-5.17953e-08
3.27728e-06
1.26345e-07
3.22622e-06
3.09759e-07
3.1441e-06
5.02176e-07
3.02949e-06
7.0748e-07
2.88068e-06
9.29742e-07
2.69578e-06
1.17326e-06
2.47288e-06
1.44256e-06
2.2102e-06
1.74238e-06
1.90646e-06
2.07762e-06
1.56127e-06
2.45312e-06
1.17581e-06
2.87335e-06
7.53691e-07
3.34187e-06
3.02129e-07
3.86025e-06
-1.66539e-07
4.42661e-06
-6.33106e-07
5.03307e-06
-1.06973e-06
5.66215e-06
-1.43878e-06
6.28155e-06
-1.6936e-06
6.83733e-06
-1.78325e-06
7.2458e-06
-1.66441e-06
7.38595e-06
-1.32386e-06
7.09643e-06
-8.12245e-07
6.18388e-06
-2.81949e-07
4.45324e-06
1.78115e-06
-2.00365e-07
-1.40655e-06
-6.21755e-07
-3.60975e-06
-1.09147e-06
-5.15397e-06
-1.49094e-06
-6.09945e-06
-1.76049e-06
-6.55887e-06
-1.88447e-06
-6.65345e-06
-1.87398e-06
-6.49251e-06
-1.75308e-06
-6.16524e-06
-1.54964e-06
-5.7394e-06
-1.29015e-06
-5.26379e-06
-9.97287e-07
-4.77195e-06
-6.8925e-07
-4.28587e-06
-3.79895e-07
-3.81917e-06
-7.93437e-08
-3.37958e-06
2.05317e-07
-2.97079e-06
4.69353e-07
-2.59377e-06
7.09784e-07
-2.2477e-06
9.24895e-07
-1.93062e-06
1.11384e-06
-1.63985e-06
1.27632e-06
-1.37227e-06
1.41238e-06
-1.1245e-06
1.52222e-06
-8.9303e-07
1.60603e-06
-6.74265e-07
1.66393e-06
-4.64566e-07
1.69591e-06
-2.6026e-07
1.70175e-06
-5.76369e-08
1.68103e-06
1.47068e-07
1.6331e-06
3.57689e-07
1.55713e-06
5.78149e-07
1.45213e-06
8.1248e-07
1.31705e-06
1.06483e-06
1.15088e-06
1.33943e-06
9.52843e-07
1.64059e-06
7.2265e-07
1.97258e-06
4.60825e-07
2.33945e-06
1.69193e-07
2.74475e-06
-1.48503e-07
3.19105e-06
-4.85815e-07
3.67918e-06
-8.3264e-07
4.20708e-06
-1.17417e-06
4.76814e-06
-1.48992e-06
5.34882e-06
-1.75316e-06
5.92539e-06
-1.93146e-06
6.45985e-06
-1.98934e-06
6.89521e-06
-1.89447e-06
7.15093e-06
-1.62898e-06
7.12046e-06
-1.20659e-06
6.67404e-06
-6.93498e-07
5.67079e-06
-2.25254e-07
3.985e-06
1.55589e-06
-1.63029e-07
-1.24352e-06
-5.29826e-07
-3.24295e-06
-9.73369e-07
-4.71043e-06
-1.39555e-06
-5.67727e-06
-1.73667e-06
-6.21775e-06
-1.97008e-06
-6.42003e-06
-2.09259e-06
-6.37e-06
-2.11506e-06
-6.14278e-06
-2.05509e-06
-5.79937e-06
-1.93221e-06
-5.38668e-06
-1.76494e-06
-4.93921e-06
-1.56948e-06
-4.48133e-06
-1.35914e-06
-4.02951e-06
-1.14443e-06
-3.59429e-06
-9.33348e-07
-3.18187e-06
-7.31798e-07
-2.79532e-06
-5.43991e-07
-2.43551e-06
-3.72845e-07
-2.10177e-06
-2.20309e-07
-1.79239e-06
-8.76412e-08
-1.50494e-06
2.43691e-08
-1.23651e-06
1.15227e-07
-9.83888e-07
1.84597e-07
-7.43635e-07
2.32203e-07
-5.12172e-07
2.57758e-07
-2.85816e-07
2.60921e-07
-6.08e-08
2.41275e-07
1.66715e-07
1.98329e-07
4.00634e-07
1.31554e-07
6.44924e-07
4.0438e-08
9.03596e-07
-7.54178e-08
1.18068e-06
-2.16158e-07
1.48017e-06
-3.81477e-07
1.80591e-06
-5.70363e-07
2.16146e-06
-7.80745e-07
2.54983e-06
-1.00907e-06
2.97307e-06
-1.24976e-06
3.43174e-06
-1.49461e-06
3.92403e-06
-1.73214e-06
4.44461e-06
-1.94705e-06
4.98305e-06
-2.11991e-06
5.52168e-06
-2.22757e-06
6.03305e-06
-2.24472e-06
6.477e-06
-2.14733e-06
6.79782e-06
-1.91881e-06
6.92241e-06
-1.55925e-06
6.7609e-06
-1.09724e-06
6.21203e-06
-6.01493e-07
5.17504e-06
-1.86391e-07
3.5699e-06
1.3695e-06
-1.3715e-07
-1.10637e-06
-4.60958e-07
-2.91915e-06
-8.76185e-07
-4.2952e-06
-1.30293e-06
-5.25052e-06
-1.68605e-06
-5.83464e-06
-1.99442e-06
-6.11166e-06
-2.2161e-06
-6.14833e-06
-2.35231e-06
-6.00656e-06
-2.41217e-06
-5.73951e-06
-2.40856e-06
-5.39029e-06
-2.35537e-06
-4.9924e-06
-2.26587e-06
-4.57083e-06
-2.1518e-06
-4.14358e-06
-2.02307e-06
-3.72302e-06
-1.88773e-06
-3.31721e-06
-1.75213e-06
-2.93092e-06
-1.62115e-06
-2.56649e-06
-1.49846e-06
-2.22445e-06
-1.3868e-06
-1.90405e-06
-1.28814e-06
-1.60359e-06
-1.20393e-06
-1.32072e-06
-1.13521e-06
-1.05261e-06
-1.08276e-06
-7.96081e-07
-1.0472e-06
-5.47739e-07
-1.02901e-06
-3.04006e-07
-1.02862e-06
-6.11825e-08
-1.04643e-06
1.84518e-07
-1.08273e-06
4.36941e-07
-1.13776e-06
6.99953e-07
-1.21157e-06
9.77401e-07
-1.30393e-06
1.27305e-06
-1.41424e-06
1.59047e-06
-1.54125e-06
1.93292e-06
-1.68289e-06
2.30311e-06
-1.83594e-06
2.70288e-06
-1.99566e-06
3.13279e-06
-2.15541e-06
3.59149e-06
-2.30623e-06
4.07485e-06
-2.43655e-06
4.57492e-06
-2.53199e-06
5.07849e-06
-2.5757e-06
5.56539e-06
-2.54928e-06
6.00663e-06
-2.43483e-06
6.36255e-06
-2.21849e-06
6.58148e-06
-1.8957e-06
6.59962e-06
-1.47815e-06
6.34336e-06
-1.00127e-06
5.73515e-06
-5.29954e-07
4.70372e-06
-1.58719e-07
3.19866e-06
1.21078e-06
-1.18697e-07
-9.87669e-07
-4.09025e-07
-2.62882e-06
-7.97853e-07
-3.90637e-06
-1.22013e-06
-4.82824e-06
-1.62676e-06
-5.42801e-06
-1.98582e-06
-5.75259e-06
-2.2805e-06
-5.85366e-06
-2.50547e-06
-5.78159e-06
-2.66328e-06
-5.5817e-06
-2.76109e-06
-5.29248e-06
-2.80834e-06
-4.94514e-06
-2.81508e-06
-4.5641e-06
-2.79094e-06
-4.16772e-06
-2.74458e-06
-3.76937e-06
-2.68349e-06
-3.3783e-06
-2.6139e-06
-3.00052e-06
-2.54086e-06
-2.63953e-06
-2.46841e-06
-2.2969e-06
-2.39973e-06
-1.97273e-06
-2.33727e-06
-1.66605e-06
-2.28293e-06
-1.37507e-06
-2.23815e-06
-1.09739e-06
-2.20404e-06
-8.30189e-07
-2.18145e-06
-5.70326e-07
-2.17103e-06
-3.14427e-07
-2.17325e-06
-5.89638e-08
-2.18842e-06
1.9969e-07
-2.21669e-06
4.65205e-07
-2.25797e-06
7.41233e-07
-2.31191e-06
1.03134e-06
-2.37776e-06
1.3389e-06
-2.45427e-06
1.66698e-06
-2.53949e-06
2.01814e-06
-2.63058e-06
2.3942e-06
-2.72357e-06
2.79586e-06
-2.81308e-06
3.2223e-06
-2.89209e-06
3.6705e-06
-2.95175e-06
4.13451e-06
-2.9813e-06
4.60447e-06
-2.96826e-06
5.06545e-06
-2.89909e-06
5.49621e-06
-2.7604e-06
5.86794e-06
-2.54112e-06
6.14327e-06
-2.23562e-06
6.27598e-06
-1.84793e-06
6.21194e-06
-1.39657e-06
5.89199e-06
-9.18921e-07
5.2575e-06
-4.73603e-07
4.25841e-06
-1.38273e-07
2.86333e-06
1.07251e-06
-1.05215e-07
-8.82455e-07
-3.69506e-07
-2.36453e-06
-7.3526e-07
-3.54062e-06
-1.14908e-06
-4.41442e-06
-1.56789e-06
-5.00919e-06
-1.96091e-06
-5.35958e-06
-2.30893e-06
-5.50563e-06
-2.60246e-06
-5.48806e-06
-2.83919e-06
-5.34497e-06
-3.02169e-06
-5.10998e-06
-3.15544e-06
-4.8114e-06
-3.24736e-06
-4.47217e-06
-3.3048e-06
-4.11029e-06
-3.33485e-06
-3.73932e-06
-3.34402e-06
-3.36913e-06
-3.338e-06
-3.00654e-06
-3.32166e-06
-2.65587e-06
-3.29907e-06
-2.31949e-06
-3.27355e-06
-1.99825e-06
-3.2478e-06
-1.69181e-06
-3.22396e-06
-1.3989e-06
-3.20374e-06
-1.11761e-06
-3.18844e-06
-8.45483e-07
-3.17908e-06
-5.7969e-07
-3.17637e-06
-3.17135e-07
-3.18079e-06
-5.45413e-08
-3.19258e-06
2.11472e-07
-3.21168e-06
4.84311e-07
-3.23777e-06
7.67326e-07
-3.27015e-06
1.06371e-06
-3.30764e-06
1.37639e-06
-3.34852e-06
1.70786e-06
-3.39035e-06
2.05998e-06
-3.42983e-06
2.43368e-06
-3.46262e-06
2.82865e-06
-3.48319e-06
3.24287e-06
-3.48471e-06
3.67203e-06
-3.45904e-06
4.10884e-06
-3.39686e-06
4.54229e-06
-3.28809e-06
4.95668e-06
-3.1227e-06
5.33082e-06
-2.89205e-06
5.63729e-06
-2.59085e-06
5.84207e-06
-2.21977e-06
5.9049e-06
-1.78859e-06
5.78076e-06
-1.31935e-06
5.42275e-06
-8.4874e-07
4.78689e-06
-4.28508e-07
3.83817e-06
-1.22665e-07
2.55749e-06
9.49845e-07
-9.5167e-08
-7.87288e-07
-3.39151e-07
-2.12054e-06
-6.85379e-07
-3.19439e-06
-1.08942e-06
-4.01037e-06
-1.51366e-06
-4.58496e-06
-1.92921e-06
-4.94404e-06
-2.31609e-06
-5.11875e-06
-2.66224e-06
-5.14191e-06
-2.96195e-06
-5.04525e-06
-3.21424e-06
-4.8577e-06
-3.42127e-06
-4.60437e-06
-3.58715e-06
-4.30629e-06
-3.71698e-06
-3.98045e-06
-3.81618e-06
-3.64012e-06
-3.89004e-06
-3.29527e-06
-3.94349e-06
-2.95309e-06
-3.98093e-06
-2.61844e-06
-4.00617e-06
-2.29425e-06
-4.02249e-06
-1.98193e-06
-4.0326e-06
-1.68169e-06
-4.03875e-06
-1.39276e-06
-4.04272e-06
-1.11364e-06
-4.04595e-06
-8.42261e-07
-4.04948e-06
-5.76157e-07
-4.05407e-06
-3.12546e-07
-4.06015e-06
-4.84567e-08
-4.06786e-06
2.19183e-07
-4.07701e-06
4.93454e-07
-4.08702e-06
7.77343e-07
-4.09694e-06
1.07363e-06
-4.1053e-06
1.38475e-06
-4.11005e-06
1.71262e-06
-4.1085e-06
2.05842e-06
-4.09713e-06
2.42231e-06
-4.0716e-06
2.80312e-06
-4.02661e-06
3.19788e-06
-3.95594e-06
3.60135e-06
-3.85256e-06
4.00547e-06
-3.70894e-06
4.39866e-06
-3.51755e-06
4.76529e-06
-3.27176e-06
5.08503e-06
-2.96709e-06
5.33262e-06
-2.6029e-06
5.47789e-06
-2.18447e-06
5.48647e-06
-1.72516e-06
5.32145e-06
-1.24844e-06
4.94603e-06
-7.88918e-07
4.32737e-06
-3.9186e-07
3.44112e-06
-1.10423e-07
2.27605e-06
8.39422e-07
-8.75598e-08
-6.99728e-07
-3.15635e-07
-1.89247e-06
-6.45625e-07
-2.8644e-06
-1.03998e-06
-3.61602e-06
-1.46568e-06
-4.15925e-06
-1.89604e-06
-4.51368e-06
-2.31116e-06
-4.70363e-06
-2.69755e-06
-4.75551e-06
-3.04722e-06
-4.69559e-06
-3.35646e-06
-4.54845e-06
-3.62481e-06
-4.33602e-06
-3.85394e-06
-4.07716e-06
-4.04689e-06
-3.78751e-06
-4.20742e-06
-3.47958e-06
-4.33958e-06
-3.16312e-06
-4.44734e-06
-2.84533e-06
-4.53448e-06
-2.5313e-06
-4.60441e-06
-2.22432e-06
-4.66014e-06
-1.92621e-06
-4.70426e-06
-1.63757e-06
-4.73897e-06
-1.35806e-06
-4.76603e-06
-1.08657e-06
-4.78688e-06
-8.21419e-07
-4.80255e-06
-5.60484e-07
-4.81377e-06
-3.01329e-07
-4.8209e-06
-4.13214e-08
-4.82398e-06
2.22266e-07
-4.82268e-06
4.92149e-07
-4.81626e-06
7.70924e-07
-4.80356e-06
1.06093e-06
-4.78294e-06
1.36413e-06
-4.75221e-06
1.68188e-06
-4.70856e-06
2.01477e-06
-4.64856e-06
2.36231e-06
-4.56807e-06
2.72264e-06
-4.46234e-06
3.09214e-06
-4.32602e-06
3.46503e-06
-4.15344e-06
3.83289e-06
-3.93896e-06
4.18419e-06
-3.67756e-06
4.50388e-06
-3.36567e-06
4.77314e-06
-3.0023e-06
4.96925e-06
-2.59042e-06
5.066e-06
-2.13848e-06
5.03454e-06
-1.66195e-06
4.84492e-06
-1.18439e-06
4.46847e-06
-7.37799e-07
3.88077e-06
-3.61683e-07
3.065e-06
-1.00616e-07
2.01499e-06
7.38806e-07
-8.17288e-08
-6.17999e-07
-2.97287e-07
-1.67691e-06
-6.13908e-07
-2.54778e-06
-9.99297e-07
-3.23064e-06
-1.42427e-06
-3.73428e-06
-1.86424e-06
-4.0737e-06
-2.29987e-06
-4.268e-06
-2.71698e-06
-4.33841e-06
-3.10605e-06
-4.30652e-06
-3.46144e-06
-4.19305e-06
-3.78057e-06
-4.01689e-06
-4.06311e-06
-3.79463e-06
-4.31029e-06
-3.54033e-06
-4.52433e-06
-3.26554e-06
-4.70803e-06
-2.97941e-06
-4.86442e-06
-2.68894e-06
-4.99652e-06
-2.39919e-06
-5.10723e-06
-2.11361e-06
-5.1992e-06
-1.83424e-06
-5.27477e-06
-1.562e-06
-5.33596e-06
-1.29686e-06
-5.38446e-06
-1.03807e-06
-5.42159e-06
-7.84286e-07
-5.44835e-06
-5.33728e-07
-5.46537e-06
-2.84309e-07
-5.47294e-06
-3.37491e-08
-5.47099e-06
2.20318e-07
-5.45908e-06
4.80233e-07
-5.43634e-06
7.48191e-07
-5.40152e-06
1.02611e-06
-5.35288e-06
1.31549e-06
-5.2882e-06
1.61721e-06
-5.20477e-06
1.93135e-06
-5.09938e-06
2.25692e-06
-4.96833e-06
2.59159e-06
-4.80755e-06
2.93136e-06
-4.61275e-06
3.27024e-06
-4.37971e-06
3.59985e-06
-4.10465e-06
3.90912e-06
-3.78484e-06
4.18408e-06
-3.41938e-06
4.40767e-06
-3.01008e-06
4.55995e-06
-2.56261e-06
4.61853e-06
-2.08757e-06
4.55949e-06
-1.60144e-06
4.35879e-06
-1.12716e-06
3.9942e-06
-6.94024e-07
3.44763e-06
-3.36583e-07
2.70756e-06
-9.26338e-08
1.77104e-06
6.46172e-07
-7.72185e-08
-5.4078e-07
-2.82892e-07
-1.47124e-06
-5.88579e-07
-2.24209e-06
-9.66014e-07
-2.8532e-06
-1.38911e-06
-3.31118e-06
-1.83521e-06
-3.6276e-06
-2.28572e-06
-3.81749e-06
-2.72623e-06
-3.8979e-06
-3.14626e-06
-3.88649e-06
-3.53879e-06
-3.80053e-06
-3.8996e-06
-3.65608e-06
-4.22674e-06
-3.46749e-06
-4.51989e-06
-3.24717e-06
-4.77992e-06
-3.00551e-06
-5.00846e-06
-2.75087e-06
-5.20759e-06
-2.48982e-06
-5.37958e-06
-2.2272e-06
-5.52675e-06
-1.96644e-06
-5.65131e-06
-1.70968e-06
-5.75529e-06
-1.45802e-06
-5.84048e-06
-1.21167e-06
-5.90838e-06
-9.70169e-07
-5.9602e-06
-7.32472e-07
-5.9968e-06
-4.97126e-07
-6.01873e-06
-2.6238e-07
-6.02618e-06
-2.63007e-08
-6.01898e-06
2.1312e-07
-5.9966e-06
4.5785e-07
-5.95811e-06
7.097e-07
-5.90219e-06
9.70193e-07
-5.82712e-06
1.24042e-06
-5.73077e-06
1.52086e-06
-5.61062e-06
1.81119e-06
-5.4638e-06
2.1101e-06
-5.28719e-06
2.41498e-06
-5.07753e-06
2.72169e-06
-4.83161e-06
3.02432e-06
-4.54664e-06
3.31487e-06
-4.22058e-06
3.58307e-06
-3.85274e-06
3.81624e-06
-3.44441e-06
3.99934e-06
-2.99964e-06
4.11518e-06
-2.52605e-06
4.14494e-06
-2.03558e-06
4.06902e-06
-1.54508e-06
3.86829e-06
-1.0765e-06
3.52562e-06
-6.5653e-07
3.02766e-06
-3.15579e-07
2.36661e-06
-8.607e-08
1.54153e-06
5.60102e-07
-7.37096e-08
-4.67071e-07
-2.71566e-07
-1.27338e-06
-5.68363e-07
-1.9453e-06
-9.38925e-07
-2.48264e-06
-1.35966e-06
-2.89045e-06
-1.80957e-06
-3.17769e-06
-2.27086e-06
-3.35621e-06
-2.72915e-06
-3.4396e-06
-3.1734e-06
-3.44224e-06
-3.5956e-06
-3.37834e-06
-3.99031e-06
-3.26136e-06
-4.35428e-06
-3.10352e-06
-4.68591e-06
-2.91554e-06
-4.98489e-06
-2.70653e-06
-5.25181e-06
-2.48396e-06
-5.48785e-06
-2.25378e-06
-5.69457e-06
-2.02048e-06
-5.87369e-06
-1.78732e-06
-6.02697e-06
-1.5564e-06
-6.15608e-06
-1.32891e-06
-6.26252e-06
-1.10523e-06
-6.34759e-06
-8.85096e-07
-6.41233e-06
-6.6774e-07
-6.45745e-06
-4.51998e-07
-6.4834e-06
-2.36433e-07
-6.49026e-06
-1.94416e-08
-6.47778e-06
2.00641e-07
-6.44536e-06
4.2543e-07
-6.39204e-06
6.56382e-07
-6.31651e-06
8.94665e-07
-6.21712e-06
1.14103e-06
-6.0919e-06
1.39563e-06
-5.9386e-06
1.6579e-06
-5.7548e-06
1.9263e-06
-5.53798e-06
2.19816e-06
-5.28571e-06
2.46943e-06
-4.9959e-06
2.73451e-06
-4.66705e-06
2.98602e-06
-4.29869e-06
3.21472e-06
-3.89188e-06
3.40943e-06
-3.4497e-06
3.55716e-06
-2.9779e-06
3.64338e-06
-2.48547e-06
3.65251e-06
-1.98516e-06
3.56872e-06
-1.49377e-06
3.3769e-06
-1.0321e-06
3.06395e-06
-6.24514e-07
2.62008e-06
-2.97975e-07
2.04007e-06
-8.0646e-08
1.3242e-06
4.79456e-07
-7.09753e-08
-3.96096e-07
-2.62659e-07
-1.08169e-06
-5.52278e-07
-1.65568e-06
-9.17029e-07
-2.11789e-06
-1.3353e-06
-2.47218e-06
-1.78748e-06
-2.72551e-06
-2.25655e-06
-2.88713e-06
-2.72831e-06
-2.96784e-06
-3.1914e-06
-2.97915e-06
-3.6371e-06
-2.93264e-06
-4.0591e-06
-2.83936e-06
-4.45311e-06
-2.70951e-06
-4.8165e-06
-2.55215e-06
-5.14796e-06
-2.37507e-06
-5.44716e-06
-2.18476e-06
-5.71451e-06
-1.98643e-06
-5.95088e-06
-1.78411e-06
-6.15745e-06
-1.58075e-06
-6.33549e-06
-1.37835e-06
-6.48633e-06
-1.17807e-06
-6.61118e-06
-9.80381e-07
-6.71109e-06
-7.85181e-07
-6.78692e-06
-5.91914e-07
-6.83925e-06
-3.99672e-07
-6.86837e-06
-2.07305e-07
-6.8743e-06
-1.35145e-08
-6.8567e-06
1.83044e-07
-6.81494e-06
3.83665e-07
-6.74804e-06
5.89486e-07
-6.65475e-06
8.01374e-07
-6.53353e-06
1.0198e-06
-6.38261e-06
1.24471e-06
-6.20008e-06
1.47537e-06
-5.98397e-06
1.71019e-06
-5.7324e-06
1.94658e-06
-5.44375e-06
2.18078e-06
-5.11692e-06
2.40768e-06
-4.75162e-06
2.62072e-06
-4.34875e-06
2.81184e-06
-3.91076e-06
2.97145e-06
-3.4422e-06
3.0886e-06
-2.95008e-06
3.15126e-06
-2.44435e-06
3.14678e-06
-1.93818e-06
3.06255e-06
-1.44807e-06
2.88679e-06
-9.93692e-07
2.60957e-06
-5.97381e-07
2.22377e-06
-2.83277e-07
1.72597e-06
-7.61689e-08
1.11709e-06
4.03287e-07
-6.88524e-08
-3.27243e-07
-2.55693e-07
-8.94853e-07
-5.39578e-07
-1.37179e-06
-8.9952e-07
-1.75794e-06
-1.31545e-06
-2.05626e-06
-1.76892e-06
-2.27204e-06
-2.24358e-06
-2.41247e-06
-2.72546e-06
-2.48596e-06
-3.20304e-06
-2.50157e-06
-3.66717e-06
-2.46851e-06
-4.11084e-06
-2.39569e-06
-4.52898e-06
-2.29137e-06
-4.91813e-06
-2.163e-06
-5.27617e-06
-2.01703e-06
-5.60201e-06
-1.85892e-06
-5.89536e-06
-1.69307e-06
-6.15651e-06
-1.52297e-06
-6.3861e-06
-1.35116e-06
-6.585e-06
-1.17945e-06
-6.75418e-06
-1.00889e-06
-6.89457e-06
-8.39995e-07
-7.00699e-06
-6.7276e-07
-7.0921e-06
-5.06799e-07
-7.15035e-06
-3.41425e-07
-7.18192e-06
-1.7574e-07
-7.18671e-06
-8.72519e-09
-7.16434e-06
1.60677e-07
-7.11415e-06
3.33473e-07
-7.03518e-06
5.10524e-07
-6.92626e-06
6.9245e-07
-6.78598e-06
8.79521e-07
-6.6128e-06
1.07154e-06
-6.40516e-06
1.26772e-06
-6.16152e-06
1.46655e-06
-5.88061e-06
1.66567e-06
-5.56156e-06
1.86173e-06
-5.20417e-06
2.05029e-06
-4.80919e-06
2.22574e-06
-4.37863e-06
2.38128e-06
-3.91613e-06
2.50895e-06
-3.42733e-06
2.59979e-06
-2.92019e-06
2.64412e-06
-2.40528e-06
2.63188e-06
-1.89597e-06
2.55324e-06
-1.40836e-06
2.39918e-06
-9.61057e-07
2.16227e-06
-5.74695e-07
1.8374e-06
-2.71134e-07
1.4224e-06
-7.25043e-08
9.1846e-07
3.30783e-07
-6.72235e-08
-2.6002e-07
-2.50316e-07
-7.11761e-07
-5.29702e-07
-1.09241e-06
-8.85762e-07
-1.40188e-06
-1.29962e-06
-1.64239e-06
-1.75375e-06
-1.81792e-06
-2.23238e-06
-1.93385e-06
-2.72177e-06
-1.99656e-06
-3.21035e-06
-2.01299e-06
-3.68865e-06
-1.99021e-06
-4.1492e-06
-1.93514e-06
-4.58631e-06
-1.85425e-06
-4.9959e-06
-1.75341e-06
-5.37518e-06
-1.63776e-06
-5.72244e-06
-1.51166e-06
-6.03682e-06
-1.37869e-06
-6.31809e-06
-1.2417e-06
-6.56646e-06
-1.10279e-06
-6.78243e-06
-9.63477e-07
-6.96664e-06
-8.24686e-07
-7.11975e-06
-6.86879e-07
-7.2424e-06
-5.50117e-07
-7.33505e-06
-4.14143e-07
-7.39802e-06
-2.78454e-07
-7.43139e-06
-1.42377e-07
-7.43497e-06
-5.14038e-09
-7.40835e-06
1.34056e-07
-7.35084e-06
2.75966e-07
-7.26154e-06
4.21219e-07
-7.13933e-06
5.70238e-07
-6.98296e-06
7.23153e-07
-6.79112e-06
8.79706e-07
-6.56256e-06
1.03915e-06
-6.29617e-06
1.20016e-06
-5.99121e-06
1.36071e-06
-5.64746e-06
1.51799e-06
-5.26551e-06
1.66833e-06
-4.84693e-06
1.80717e-06
-4.39468e-06
1.92903e-06
-3.91331e-06
2.02757e-06
-3.40929e-06
2.09577e-06
-2.89126e-06
2.12609e-06
-2.37021e-06
2.11084e-06
-1.85953e-06
2.04255e-06
-1.3749e-06
1.91455e-06
-9.34034e-07
1.7214e-06
-5.56146e-07
1.45952e-06
-2.61297e-07
1.12756e-06
-6.95578e-08
7.26721e-07
2.61225e-07
-6.60044e-08
-1.94015e-07
-2.46274e-07
-5.31491e-07
-5.22233e-07
-8.16448e-07
-8.75273e-07
-1.04884e-06
-1.28742e-06
-1.23025e-06
-1.74183e-06
-1.3635e-06
-2.22322e-06
-1.45246e-06
-2.71806e-06
-1.50172e-06
-3.21476e-06
-1.51629e-06
-3.70366e-06
-1.50131e-06
-4.17695e-06
-1.46186e-06
-4.62851e-06
-1.40269e-06
-5.05376e-06
-1.32816e-06
-5.44942e-06
-1.2421e-06
-5.81328e-06
-1.14779e-06
-6.14404e-06
-1.04794e-06
-6.44104e-06
-9.44692e-07
-6.70414e-06
-8.39694e-07
-6.93352e-06
-7.34102e-07
-7.12954e-06
-6.28659e-07
-7.29267e-06
-5.23749e-07
-7.42334e-06
-4.19451e-07
-7.52188e-06
-3.15604e-07
-7.58847e-06
-2.1186e-07
-7.62311e-06
-1.07742e-07
-7.62555e-06
-2.69635e-09
-7.59534e-06
1.03847e-07
-7.53179e-06
2.12421e-07
-7.43404e-06
3.2346e-07
-7.30104e-06
4.37239e-07
-7.13169e-06
5.53802e-07
-6.92488e-06
6.72897e-07
-6.67962e-06
7.93899e-07
-6.39519e-06
9.15734e-07
-6.07129e-06
1.03681e-06
-5.70825e-06
1.15495e-06
-5.30725e-06
1.26733e-06
-4.87059e-06
1.37051e-06
-4.4019e-06
1.46034e-06
-3.90645e-06
1.53212e-06
-3.39131e-06
1.58064e-06
-2.86562e-06
1.6004e-06
-2.34059e-06
1.58581e-06
-1.82959e-06
1.53155e-06
-1.34791e-06
1.43287e-06
-9.12513e-07
1.286e-06
-5.41514e-07
1.08852e-06
-2.53595e-07
8.39637e-07
-6.72637e-08
5.4039e-07
1.93962e-07
-6.51357e-08
-1.2888e-07
-2.43383e-07
-3.53243e-07
-5.16868e-07
-5.42963e-07
-8.67693e-07
-6.98019e-07
-1.27852e-06
-8.1942e-07
-1.73303e-06
-9.08995e-07
-2.21625e-06
-9.69234e-07
-2.71487e-06
-1.00311e-06
-3.21729e-06
-1.01387e-06
-3.71372e-06
-1.00488e-06
-4.19613e-06
-9.79449e-07
-4.6581e-06
-9.40721e-07
-5.0947e-06
-8.91565e-07
-5.50227e-06
-8.34526e-07
-5.87827e-06
-7.7179e-07
-6.22104e-06
-7.0517e-07
-6.52961e-06
-6.36118e-07
-6.80357e-06
-5.65739e-07
-7.04284e-06
-4.94828e-07
-7.2476e-06
-4.23898e-07
-7.41813e-06
-3.53222e-07
-7.55471e-06
-2.82871e-07
-7.65756e-06
-2.12753e-07
-7.72677e-06
-1.42649e-07
-7.76226e-06
-7.2255e-08
-7.76374e-06
-1.21549e-09
-7.73073e-06
7.08352e-08
-7.66254e-06
1.44237e-07
-7.55834e-06
2.1926e-07
-7.41717e-06
2.96066e-07
-7.23803e-06
3.7466e-07
-7.01997e-06
4.54844e-07
-6.76225e-06
5.3617e-07
-6.4644e-06
6.17886e-07
-6.12649e-06
6.98896e-07
-5.74925e-06
7.77714e-07
-5.33436e-06
8.52439e-07
-4.88459e-06
9.20739e-07
-4.40412e-06
9.79864e-07
-3.89869e-06
1.02669e-06
-3.37583e-06
1.05778e-06
-2.84498e-06
1.06954e-06
-2.3175e-06
1.05834e-06
-1.8067e-06
1.02074e-06
-1.32754e-06
9.53714e-07
-8.9642e-07
8.54879e-07
-5.30651e-07
7.22747e-07
-2.47906e-07
5.56892e-07
-6.55768e-08
3.5806e-07
1.28385e-07
-6.45773e-08
-6.43024e-08
-2.41521e-07
-1.763e-07
-5.134e-07
-2.71084e-07
-8.62772e-07
-3.48646e-07
-1.27271e-06
-4.09482e-07
-1.72722e-06
-4.54487e-07
-2.21157e-06
-4.8488e-07
-2.71256e-06
-5.02122e-07
-3.21861e-06
-5.07814e-07
-3.71987e-06
-5.03614e-07
-4.20816e-06
-4.91162e-07
-4.67687e-06
-4.72013e-07
-5.12084e-06
-4.47595e-07
-5.53619e-06
-4.19179e-07
-5.92012e-06
-3.87855e-07
-6.27076e-06
-3.54533e-07
-6.58693e-06
-3.19942e-07
-6.86803e-06
-2.84642e-07
-7.11383e-06
-2.49033e-07
-7.32434e-06
-2.13379e-07
-7.49974e-06
-1.77822e-07
-7.64021e-06
-1.42402e-07
-7.74589e-06
-1.07078e-07
-7.81679e-06
-7.17436e-08
-7.8528e-06
-3.6252e-08
-7.85358e-06
-4.29443e-10
-7.81865e-06
3.59025e-08
-7.74732e-06
7.29085e-08
-7.63878e-06
1.10719e-07
-7.49212e-06
1.49407e-07
-7.30643e-06
1.88968e-07
-7.08088e-06
2.29294e-07
-6.81486e-06
2.70151e-07
-6.50813e-06