/*--------------------------------*- C++ -*----------------------------------*\
  =========                 |
  \\      /  F ield         | OpenFOAM: The Open Source CFD Toolbox
   \\    /   O peration     | Website:  https://openfoam.org
    \\  /    A nd           | Version:  7
     \\/     M anipulation  |
\*---------------------------------------------------------------------------*/
FoamFile
{
    version     2.0;
    format      ascii;
    class       volScalarField;
    location    "0.0554";
    object      p;
}
// * * * * * * * * * * * * * * * * * * * * * * * * * * * * * * * * * * * * * //

dimensions      [0 2 -2 0 0 0 0];

internalField   nonuniform List<scalar> 
2500
(
1.1922e-05
-0.000494937
-0.00210758
-0.00449434
-0.00729567
-0.0102022
-0.0129806
-0.0154482
-0.0174673
-0.0189375
-0.0197889
-0.0199765
-0.0194762
-0.0182811
-0.0163993
-0.0138511
-0.0106679
-0.00689008
-0.00256615
0.00224841
0.00749206
0.0130981
0.0189953
0.0251087
0.0313601
0.0376691
0.0439538
0.0501314
0.0561191
0.0618354
0.0672012
0.0721406
0.0765827
0.080463
0.0837247
0.0863206
0.088215
0.0893854
0.0898251
0.0895447
0.0885753
0.0869715
0.0848147
0.0822176
0.0793306
0.076346
0.0735057
0.0711102
0.0695368
0.0690696
0.00053365
2.4433e-05
-0.00128602
-0.00318347
-0.00538677
-0.00768134
-0.0098833
-0.0118404
-0.0134322
-0.014567
-0.0151782
-0.0152204
-0.0146667
-0.0135063
-0.011742
-0.00938865
-0.00647113
-0.00302349
0.000912484
0.00528821
0.0100492
0.0151358
0.020484
0.0260264
0.0316923
0.0374091
0.0431027
0.0486985
0.0541221
0.0593004
0.0641628
0.0686421
0.0726759
0.0762081
0.07919
0.0815822
0.083356
0.0844951
0.0849976
0.0848779
0.0841686
0.0829228
0.0812166
0.0791517
0.0768584
0.074497
0.0722584
0.0703581
0.0690656
0.0686028
0.00214836
0.00134068
1.71775e-05
-0.00169725
-0.00362836
-0.00560872
-0.00749069
-0.00914905
-0.0104814
-0.0114073
-0.0118662
-0.0118159
-0.0112304
-0.0100977
-0.00841839
-0.00620419
-0.00347637
-0.000264659
0.00339373
0.00745502
0.0118698
0.0165836
0.021538
0.0266708
0.0319171
0.0372101
0.0424815
0.0476627
0.0526852
0.057482
0.0619885
0.0661435
0.0698903
0.0731785
0.0759646
0.0782139
0.0799019
0.0810155
0.0815549
0.081535
0.0809871
0.0799604
0.0785237
0.0767665
0.0747999
0.0727567
0.0707901
0.0690694
0.0677701
0.067034
0.00456989
0.00325133
0.00171036
-3.2206e-05
-0.00189679
-0.00375108
-0.00547621
-0.00697164
-0.00815293
-0.00895197
-0.00931672
-0.00921012
-0.00860891
-0.00750232
-0.00589065
-0.00378411
-0.00120184
0.00182917
0.00527494
0.00909531
0.0132447
0.0176728
0.0223254
0.0271447
0.0320704
0.0370401
0.0419901
0.0468565
0.0515755
0.0560846
0.0603236
0.0642356
0.0677682
0.0708746
0.0735148
0.0756568
0.0772784
0.0783678
0.0789253
0.0789645
0.0785137
0.0776163
0.0763325
0.0747391
0.0729293
0.0710117
0.069111
0.0673629
0.065855
0.0646231
0.00746106
0.00551094
0.00364132
0.00175517
-0.000157171
-0.00199176
-0.00365401
-0.00506608
-0.00616095
-0.00688318
-0.00718986
-0.00705028
-0.00644522
-0.00536609
-0.00381401
-0.00179887
0.000661414
0.00354176
0.00681062
0.0104307
0.0143596
0.0185505
0.0229528
0.0275123
0.0321728
0.0368756
0.0415611
0.0461691
0.0506396
0.054914
0.0589355
0.0626507
0.0660102
0.0689699
0.0714921
0.0735465
0.0751119
0.0761765
0.0767398
0.0768128
0.0764197
0.0755975
0.0743972
0.0728833
0.0711318
0.0692297
0.0672783
0.0653865
0.0635572
0.0617104
0.0105592
0.00792913
0.00566141
0.00354985
0.00150356
-0.000395157
-0.00207142
-0.00346716
-0.00453125
-0.00522048
-0.00550119
-0.00534944
-0.00475076
-0.00369959
-0.00219867
-0.000258421
0.00210363
0.00486352
0.0079914
0.0114521
0.0152059
0.0192085
0.0234123
0.0277665
0.0322176
0.0367105
0.0411887
0.045595
0.0498726
0.0539655
0.0578199
0.0613846
0.0646123
0.0674606
0.0698932
0.0718804
0.0734008
0.0744419
0.0750011
0.0750863
0.0747168
0.0739231
0.0727471
0.0712414
0.0694674
0.067493
0.0654012
0.063281
0.0610574
0.0585444
0.0136674
0.0103455
0.00763959
0.00524574
0.00300149
0.000973801
-0.000777768
-0.00221189
-0.00329144
-0.0039844
-0.00426604
-0.00411929
-0.00353473
-0.00251033
-0.00105111
0.000831339
0.00311919
0.00578892
0.00881171
0.0121539
0.0157775
0.0196405
0.0236975
0.0279003
0.0321978
0.0365374
0.040865
0.045126
0.0492657
0.0532302
0.0569675
0.0604278
0.0635652
0.0663379
0.0687099
0.0706513
0.0721398
0.0731611
0.0737099
0.0737904
0.0734167
0.0726127
0.0714119
0.0698565
0.0679948
0.0658793
0.0635794
0.0611705
0.0585094
0.0553156
0.016633
0.0126257
0.00946139
0.00674863
0.00426222
0.0020588
0.00018642
-0.00132749
-0.00245789
-0.00318282
-0.00348581
-0.00335642
-0.00279038
-0.0017895
-0.000361435
0.00148054
0.00371778
0.00632665
0.00927876
0.0125414
0.0160778
0.0198475
0.0238069
0.0279094
0.0321062
0.0363463
0.0405775
0.0447469
0.0488012
0.052688
0.0563561
0.0597566
0.0628439
0.0655762
0.0679168
0.0698349
0.0713064
0.0723146
0.072851
0.0729158
0.0725177
0.0716742
0.0704113
0.0687618
0.0667634
0.0644563
0.0619
0.0591619
0.0560392
0.0521673
0.0193374
0.0146581
0.0110267
0.00797218
0.00521378
0.00280176
0.000775775
-0.000848202
-0.00205543
-0.00283278
-0.00317132
-0.0030669
-0.00252028
-0.00153717
-0.000128153
0.00169149
0.00390189
0.00647883
0.00939388
0.0126147
0.0161054
0.0198265
0.0237355
0.0277872
0.0319341
0.0361265
0.0403134
0.0444429
0.0484628
0.052321
0.0559668
0.0593514
0.0624286
0.0651559
0.0674953
0.0694142
0.0708862
0.0718916
0.0724183
0.0724621
0.0720266
0.0711232
0.0697708
0.0679947
0.0658236
0.0632879
0.0604411
0.0573466
0.0537492
0.0492081
0.0216863
0.016349
0.0122474
0.00883693
0.00578668
0.00314343
0.000940848
-0.000814468
-0.00211654
-0.00295995
-0.00334257
-0.00326608
-0.00273613
-0.00176232
-0.000358277
0.00145848
0.00366653
0.00624071
0.00915218
0.0123686
0.0158543
0.0195704
0.0234752
0.0275243
0.0316709
0.0358662
0.0400599
0.0442004
0.0482358
0.0521142
0.0557844
0.0591969
0.0623046
0.0650635
0.0674335
0.0693798
0.0708728
0.0718897
0.0724143
0.0724376
0.0719583
0.0709822
0.0695218
0.067596
0.065226
0.0624353
0.0592736
0.0558035
0.0517231
0.0465213
0.0236017
0.0176173
0.0130445
0.00926929
0.00591416
0.00302457
0.000630064
-0.00127052
-0.00267867
-0.00359575
-0.00402575
-0.00397579
-0.00345615
-0.00248029
-0.00106493
0.000769988
0.00300128
0.00560254
0.00854416
0.0117934
0.0153146
0.019069
0.0230152
0.0271092
0.0313045
0.0355526
0.0398033
0.0440053
0.0481062
0.0520535
0.0557952
0.0592805
0.0624605
0.0652892
0.0677241
0.0697271
0.0712655
0.0723123
0.072847
0.0728562
0.0723332
0.0712784
0.0696991
0.0676081
0.0650213
0.0619564
0.0584618
0.0546019
0.0500315
0.0441728
0.0250161
0.0183906
0.0133456
0.00919976
0.00553131
0.00238578
-0.000210017
-0.00226381
-0.00378353
-0.00477656
-0.00525249
-0.00522349
-0.00470426
-0.00371205
-0.00226671
-0.000390718
0.00189078
0.00454991
0.00755603
0.0108757
0.014473
0.0183088
0.0223417
0.0265278
0.0308204
0.0351711
0.0395294
0.0438434
0.0480599
0.0521256
0.0559869
0.0595911
0.0628872
0.0658265
0.0683632
0.0704558
0.0720675
0.0731672
0.0737296
0.0737363
0.0731757
0.072043
0.0703402
0.0680755
0.06526
0.0619073
0.0580662
0.0538045
0.0487359
0.0422177
0.0258673
0.0186017
0.0130822
0.00856132
0.00457405
0.001167
-0.00163483
-0.00384485
-0.00547674
-0.00654332
-0.00705936
-0.00704182
-0.00650966
-0.00548383
-0.00398736
-0.00204535
0.000314933
0.00306397
0.00616984
0.00959827
0.0133125
0.0172731
0.0214384
0.0257638
0.0302027
0.034706
0.0392225
0.0436996
0.0480829
0.0523175
0.056348
0.0601193
0.0635776
0.0666708
0.0693497
0.0715686
0.0732863
0.0744666
0.0750795
0.0751012
0.0745149
0.0733108
0.0714861
0.0690447
0.0659937
0.0623438
0.0581451
0.0534703
0.0478929
0.0407056
0.026096
0.0181858
0.0121877
0.0072877
0.00297798
-0.000693237
-0.00370216
-0.00606734
-0.00780775
-0.00894128
-0.00948761
-0.00946829
-0.00890645
-0.00782674
-0.0062554
-0.00422024
-0.00175078
0.00112167
0.00436375
0.00794005
0.0118129
0.0159424
0.0202859
0.0247985
0.029433
0.0341394
0.0388657
0.043558
0.0481605
0.0526162
0.0568674
0.0608564
0.0645259
0.06782
0.0706854
0.0730717
0.0749325
0.0762264
0.076918
0.0769778
0.0763837
0.0751205
0.073181
0.0705649
0.067276
0.0633224
0.0587567
0.0536574
0.0475576
0.0396838
0.0256422
0.017078
0.010595
0.00531181
0.000677217
-0.00325856
-0.00647262
-0.00898838
-0.0108299
-0.0120199
-0.0125829
-0.0125449
-0.0119333
-0.0107764
-0.00910374
-0.00694595
-0.00433488
-0.00130383
0.00211229
0.00587678
0.00995097
0.0142939
0.0188625
0.0236108
0.0284909
0.0334519
0.0384406
0.0434016
0.0482772
0.0530083
0.0575344
0.0617944
0.0657274
0.0692733
0.0723738
0.0749732
0.0770197
0.0784659
0.0792702
0.0793973
0.0788191
0.0775151
0.0754731
0.072689
0.0691633
0.0649022
0.0599612
0.0544252
0.0477857
0.0392009
0.0244439
0.0152116
0.00823519
0.00256438
-0.00239667
-0.00659557
-0.0100102
-0.0126688
-0.0146005
-0.0158328
-0.0163951
-0.016318
-0.0156331
-0.0143726
-0.0125693
-0.0102569
-0.00746959
-0.00424283
-0.000613245
0.00338109
0.00770036
0.0123026
0.0171438
0.0221774
0.0273542
0.0326223
0.0379273
0.043212
0.0484167
0.0534797
0.0583374
0.0629253
0.0671781
0.0710308
0.0744199
0.0772837
0.0795641
0.0812073
0.0821647
0.0823946
0.0818623
0.0805415
0.0784148
0.0754741
0.0717166
0.0671463
0.0618223
0.0558366
0.0486366
0.0393092
0.0224352
0.0125163
0.00503608
-0.00102729
-0.00631571
-0.0107747
-0.0143829
-0.0171736
-0.019181
-0.0204378
-0.0209784
-0.0208381
-0.0200528
-0.0186589
-0.0166927
-0.0141908
-0.0111903
-0.00772872
-0.00384443
0.000422955
0.00503239
0.00994095
0.0151036
0.0204728
0.0259985
0.0316277
0.0373043
0.0429695
0.0485614
0.0540155
0.0592649
0.064241
0.068874
0.0730935
0.0768299
0.0800152
0.0825842
0.0844755
0.0856334
0.0860084
0.0855587
0.0842516
0.0820639
0.0789827
0.0750019
0.0701234
0.0644095
0.0579597
0.0501752
0.0400669
0.019545
0.00891709
0.000920751
-0.00554051
-0.0111566
-0.0158709
-0.0196633
-0.0225722
-0.0246375
-0.0258972
-0.026391
-0.0261594
-0.025243
-0.0236823
-0.0215176
-0.0187886
-0.0155353
-0.0117973
-0.00761514
-0.00302982
0.00191634
0.0071794
0.0127134
0.01847
0.024398
0.0304434
0.0365487
0.0426532
0.0486927
0.0545999
0.0603043
0.0657329
0.070811
0.0754624
0.0796109
0.0831812
0.0861002
0.0882984
0.0897115
0.0902815
0.0899587
0.0887026
0.0864837
0.0832838
0.0790924
0.073909
0.0677993
0.0608704
0.052474
0.0415401
0.0156959
0.00433302
-0.00419362
-0.0110584
-0.0170016
-0.0219648
-0.0259292
-0.0289391
-0.0310405
-0.0322774
-0.0326952
-0.03234
-0.0312575
-0.0294928
-0.0270903
-0.0240933
-0.0205445
-0.0164863
-0.0119609
-0.00701088
-0.00167986
0.00398729
0.00994379
0.0161405
0.0225256
0.0290437
0.0356363
0.0422408
0.0487907
0.0552158
0.0614419
0.0673917
0.0729848
0.0781389
0.0827704
0.0867962
0.0901344
0.0927061
0.0944375
0.095261
0.0951174
0.0939577
0.0917446
0.0884534
0.084069
0.0785872
0.0720771
0.0646537
0.0556152
0.0438046
0.0108029
-0.0013243
-0.010397
-0.017671
-0.0239397
-0.0291432
-0.0332645
-0.0363545
-0.038466
-0.0396496
-0.0399573
-0.0394412
-0.038153
-0.0361427
-0.0334591
-0.0301494
-0.0262595
-0.0218342
-0.0169178
-0.0115545
-0.00578886
0.000333367
0.00676476
0.0134556
0.0203534
0.0274022
0.0345421
0.0417091
0.0488346
0.0558454
0.0626637
0.0692073
0.0753905
0.0811239
0.0863163
0.0908757
0.0947105
0.0977313
0.0998535
0.100998
0.101096
0.100087
0.0979242
0.0945766
0.090022
0.0842523
0.0773393
0.0694057
0.0596921
0.0469482
0.0047728
-0.00815165
-0.0177875
-0.0254764
-0.0320677
-0.0375003
-0.0417597
-0.0449043
-0.0469948
-0.0480893
-0.0482471
-0.0475276
-0.0459886
-0.043686
-0.0406734
-0.0370023
-0.0327218
-0.0278797
-0.022522
-0.0166945
-0.0104427
-0.00381308
0.0031467
0.0103867
0.017854
0.0254923
0.033241
0.0410347
0.048803
0.05647
0.0639543
0.0711691
0.0780224
0.0844182
0.0902566
0.0954359
0.0998538
0.103409
0.106005
0.107549
0.10796
0.107166
0.105109
0.101748
0.0970531
0.0910106
0.0836948
0.075236
0.0648122
0.0510723
-0.00249719
-0.0162556
-0.0264734
-0.0345825
-0.0414915
-0.0471387
-0.0515129
-0.0546814
-0.0567135
-0.0576766
-0.0576383
-0.056666
-0.0548249
-0.0521774
-0.0487826
-0.0446965
-0.0399721
-0.0346597
-0.0288076
-0.0224629
-0.0156718
-0.00848098
-0.000938277
0.00690658
0.0150009
0.0232885
0.0317082
0.0401942
0.0486744
0.0570707
0.0652982
0.0732655
0.0808747
0.0880221
0.0945992
0.100494
0.105591
0.109777
0.112941
0.114976
0.115785
0.115282
0.113396
0.110074
0.105276
0.0989826
0.0912678
0.0822698
0.0710984
0.056294
-0.0111206
-0.0257538
-0.0365739
-0.0451078
-0.0523272
-0.0581705
-0.0626308
-0.0657855
-0.0677147
-0.068496
-0.0682073
-0.0669251
-0.0647232
-0.0616713
-0.0578347
-0.0532747
-0.0480482
-0.0422084
-0.0358057
-0.0288882
-0.0215027
-0.0136959
-0.00551493
0.00299108
0.0117703
0.0207671
0.0299209
0.0391656
0.0484282
0.0576289
0.0666797
0.0754849
0.0839407
0.0919358
0.0993521
0.106066
0.11195
0.116875
0.120714
0.123344
0.124649
0.124527
0.122891
0.119673
0.114821
0.108305
0.1002
0.0906503
0.0786925
0.0627489
-0.021223
-0.0367772
-0.0482215
-0.0571839
-0.0647032
-0.0707187
-0.0752292
-0.0783243
-0.0800968
-0.0806365
-0.0800332
-0.0783746
-0.0757442
-0.0722202
-0.0678751
-0.0627759
-0.0569836
-0.0505549
-0.0435418
-0.0359935
-0.027957
-0.0194781
-0.010603
-0.00137947
0.00814238
0.0179083
0.027859
0.0379289
0.0480453
0.0581269
0.0680836
0.0778157
0.0872138
0.0961589
0.104523
0.11217
0.11896
0.124745
0.129381
0.132725
0.134642
0.135007
0.133715
0.130679
0.125833
0.119133
0.110652
0.100542
0.0877576
0.0705937
-0.0329442
-0.0494718
-0.0615645
-0.0709576
-0.078762
-0.084919
-0.0894349
-0.0924141
-0.0939645
-0.0941908
-0.093197
-0.0910839
-0.0879465
-0.083873
-0.078944
-0.0732327
-0.0668052
-0.059721
-0.0520342
-0.0437944
-0.0350483
-0.0258405
-0.0162153
-0.00621814
0.00410331
0.0146973
0.0255069
0.0364682
0.0475094
0.0585492
0.069496
0.080247
0.0906875
0.100691
0.11012
0.118825
0.12665
0.133431
0.139002
0.143198
0.145858
0.146836
0.146
0.143243
0.138477
0.131643
0.12281
0.112134
0.0984817
0.0800091
-0.0464401
-0.0640016
-0.0767695
-0.0865935
-0.0946627
-0.100922
-0.105387
-0.10818
-0.109429
-0.109255
-0.10778
-0.10512
-0.101385
-0.0966726
-0.0910741
-0.0846695
-0.07753
-0.0697184
-0.0612903
-0.0522957
-0.04278
-0.0327859
-0.022355
-0.0115291
-0.000352571
0.0111268
0.0228554
0.0347725
0.0468086
0.0588835
0.0709053
0.0827691
0.0943557
0.105532
0.11615
0.126048
0.135052
0.14298
0.149642
0.154846
0.158405
0.160142
0.159897
0.157534
0.152942
0.146039
0.136887
0.125646
0.111082
0.0912046
-0.0618861
-0.0805526
-0.0940257
-0.104278
-0.112584
-0.118894
-0.123237
-0.125758
-0.126607
-0.125928
-0.123863
-0.120548
-0.116107
-0.110653
-0.104288
-0.0970987
-0.0891626
-0.0805455
-0.0713044
-0.0614888
-0.0511422
-0.0403044
-0.029013
-0.0173053
-0.00522047
0.00719862
0.0199035
0.0328381
0.0459366
0.0591218
0.0723029
0.0853741
0.0982135
0.110681
0.12262
0.133856
0.144197
0.153439
0.161366
0.167758
0.172395
0.175064
0.17557
0.173744
0.169441
0.162552
0.153128
0.141328
0.125812
0.104422
-0.079481
-0.0993375
-0.11355
-0.124224
-0.132729
-0.139022
-0.143154
-0.145294
-0.145621
-0.144309
-0.141523
-0.137422
-0.132151
-0.125837
-0.118593
-0.110517
-0.101691
-0.0921839
-0.0820536
-0.0713482
-0.0601086
-0.0483701
-0.0361652
-0.0235252
-0.0104826
0.00292663
0.0166607
0.0306701
0.0448947
0.059262
0.0736844
0.0880573
0.102257
0.116139
0.129538
0.142266
0.154115
0.164856
0.174246
0.18203
0.187952
0.191757
0.193206
0.192088
0.188218
0.18145
0.171818
0.159476
0.142963
0.119944
-0.099453
-0.120602
-0.135592
-0.146676
-0.155328
-0.161519
-0.165322
-0.166945
-0.166601
-0.164497
-0.160832
-0.155791
-0.149541
-0.142229
-0.13398
-0.124902
-0.115083
-0.104594
-0.093494
-0.0818279
-0.0696327
-0.0569381
-0.0437695
-0.0301506
-0.0161055
-0.00166133
0.013149
0.0282845
0.0436931
0.0593093
0.0750511
0.0908171
0.106484
0.121906
0.136909
0.151294
0.164835
0.177279
0.188352
0.197762
0.205208
0.210388
0.213011
0.212811
0.209551
0.203041
0.193285
0.180431
0.162879
0.138098
-0.122067
-0.144635
-0.160447
-0.17192
-0.180648
-0.186622
-0.189949
-0.190881
-0.189678
-0.186589
-0.181853
-0.175687
-0.168285
-0.159813
-0.150415
-0.140206
-0.12928
-0.117712
-0.105557
-0.0928574
-0.0796448
-0.0659409
-0.0517626
-0.0371236
-0.0220377
-0.00652091
0.00940495
0.0257099
0.0423527
0.0592773
0.07641
0.0936559
0.110896
0.127982
0.144737
0.160952
0.176382
0.190752
0.203754
0.215056
0.224305
0.231141
0.235212
0.236186
0.233759
0.227681
0.217917
0.204596
0.185963
0.159268
-0.147634
-0.171778
-0.188463
-0.200291
-0.208998
-0.214605
-0.217262
-0.217282
-0.214985
-0.210674
-0.204634
-0.197122
-0.188362
-0.178547
-0.167834
-0.156351
-0.144195
-0.131441
-0.118143
-0.104338
-0.0900481
-0.075286
-0.0600575
-0.0443645
-0.0282075
-0.0115897
0.00548128
0.0229891
0.0409058
0.0591885
0.077775
0.0965801
0.115491
0.134365
0.153023
0.171247
0.188778
0.205317
0.220522
0.234015
0.245388
0.254214
0.260063
0.262523
0.261208
0.255785
0.246165
0.232447
0.212692
0.183909
-0.176528
-0.202444
-0.22006
-0.232191
-0.240742
-0.245779
-0.247515
-0.246343
-0.242657
-0.236829
-0.229202
-0.22008
-0.209724
-0.198353
-0.18614
-0.173222
-0.159702
-0.145653
-0.131123
-0.11614
-0.100716
-0.0848528
-0.0685416
-0.0517695
-0.034522
-0.0167857
0.00144778
0.0201791
0.0393972
0.0590752
0.0791665
0.0995997
0.120274
0.141053
0.161762
0.182179
0.202034
0.221004
0.238714
0.254739
0.268607
0.279814
0.287841
0.292173
0.292317
0.287837
0.278566
0.26455
0.243638
0.21256
-0.209203
-0.237139
-0.255749
-0.268102
-0.276309
-0.280505
-0.280991
-0.278264
-0.272818
-0.26511
-0.255554
-0.244509
-0.232279
-0.219108
-0.205187
-0.190663
-0.175636
-0.160177
-0.144325
-0.128097
-0.111491
-0.0944915
-0.077075
-0.0592107
-0.0408657
-0.0220077
-0.00260861
0.017352
0.0378832
0.0589783
0.0806103
0.102727
0.125243
0.148036
0.17094
0.193735
0.216145
0.237828
0.258377
0.277317
0.29411
0.308162
0.318846
0.325525
0.327569
0.324406
0.315755
0.301586
0.279489
0.245871
-0.246223
-0.276495
-0.296166
-0.308612
-0.316211
-0.319197
-0.317998
-0.313251
-0.305578
-0.295544
-0.283646
-0.270311
-0.255884
-0.240639
-0.224783
-0.208465
-0.191785
-0.174802
-0.157543
-0.140008
-0.12218
-0.104022
-0.0854912
-0.066536
-0.0471021
-0.0271354
-0.00658508
0.0145925
0.0364301
0.0589454
0.0821357
0.105972
0.130393
0.155296
0.18053
0.205887
0.231088
0.255783
0.279535
0.301821
0.322031
0.339475
0.353399
0.363014
0.367519
0.366159
0.358497
0.344385
0.321087
0.284629
-0.2883
-0.321313
-0.342108
-0.354447
-0.36106
-0.362333
-0.358873
-0.351507
-0.34102
-0.32811
-0.313377
-0.297319
-0.280329
-0.262707
-0.24467
-0.226365
-0.207882
-0.189266
-0.170524
-0.151635
-0.132558
-0.113236
-0.0935983
-0.0735714
-0.0530761
-0.0320331
-0.010366
0.0119953
0.0351112
0.0590277
0.0837713
0.109343
0.135711
0.1628
0.190485
0.218576
0.246808
0.274825
0.302173
0.328286
0.352482
0.373963
0.391832
0.405118
0.412801
0.413885
0.407716
0.393963
0.369474
0.329807
-0.336356
-0.372627
-0.394591
-0.40651
-0.411594
-0.410462
-0.403975
-0.393214
-0.379176
-0.362721
-0.344568
-0.325291
-0.305327
-0.284998
-0.264521
-0.244034
-0.223607
-0.203261
-0.182976
-0.162703
-0.142372
-0.121898
-0.101183
-0.0801257
-0.0586183
-0.0365539
-0.0138277
0.00966036
0.0340015
0.0592745
0.0855402
0.112836
0.141165
0.170493
0.200728
0.231712
0.263205
0.294864
0.326228
0.356699
0.385527
0.411806
0.434477
0.45235
0.464135
0.468519
0.464539
0.451589
0.42596
0.382624
-0.391603
-0.431802
-0.45493
-0.465935
-0.468701
-0.464203
-0.453667
-0.438511
-0.420002
-0.399194
-0.376934
-0.353874
-0.330489
-0.307106
-0.283931
-0.261076
-0.238581
-0.21643
-0.194566
-0.172905
-0.151341
-0.129755
-0.108019
-0.0859967
-0.0635522
-0.0405473
-0.0168456
0.00768523
0.0331707
0.0597262
0.087452
0.116427
0.146702
0.178287
0.211141
0.245152
0.280121
0.315739
0.351557
0.386964
0.421159
0.453126
0.481636
0.505248
0.522333
0.531165
0.530348
0.51886
0.492225
0.444635
-0.455681
-0.500668
-0.524852
-0.534154
-0.533442
-0.524241
-0.50829
-0.487455
-0.463335
-0.437207
-0.410053
-0.382589
-0.355308
-0.328523
-0.302406
-0.277024
-0.252368
-0.22837
-0.204927
-0.181909
-0.159167
-0.136543
-0.11387
-0.0909806
-0.0677034
-0.0438675
-0.0193032
0.00615645
0.0326742
0.0604052
0.0894939
0.120068
0.152231
0.186052
0.221552
0.258685
0.297316
0.337193
0.37791
0.418872
0.45925
0.497943
0.533546
0.564339
0.588285
0.603122
0.606851
0.597823
0.570461
0.517877
-0.530863
-0.581737
-0.606649
-0.612979
-0.607075
-0.591298
-0.568107
-0.539952
-0.508828
-0.47625
-0.443319
-0.41079
-0.379138
-0.348625
-0.319361
-0.291338
-0.264477
-0.238643
-0.213669
-0.18937
-0.165547
-0.141996
-0.11851
-0.0948841
-0.0709113
-0.0463858
-0.0211035
0.00513857
0.0325423
0.0613053
0.0916199
0.123668
0.157615
0.193599
0.23172
0.272018
0.314447
0.358845
0.40489
0.452046
0.499502
0.546108
0.590306
0.630084
0.66293
0.6859
0.696166
0.691134
0.663599
0.605083
-0.620403
-0.678527
-0.703402
-0.704699
-0.691044
-0.666066
-0.633214
-0.595668
-0.555867
-0.515551
-0.475896
-0.437635
-0.40117
-0.366664
-0.334116
-0.303414
-0.274376
-0.246783
-0.220389
-0.194942
-0.170185
-0.145865
-0.121731
-0.0975378
-0.0730416
-0.0480025
-0.0221809
0.00466269
0.0327692
0.0623808
0.09374
0.127088
0.162658
0.20067
0.241317
0.284747
0.331036
0.380153
0.431906
0.485883
0.541361
0.597209
0.651777
0.702782
0.747189
0.781217
0.800916
0.802284
0.775645
0.710055
-0.729131
-0.796083
-0.819286
-0.812167
-0.786928
-0.749079
-0.703383
-0.65388
-0.603451
-0.55399
-0.50665
-0.462047
-0.420422
-0.381765
-0.345908
-0.312592
-0.281506
-0.252318
-0.224693
-0.198298
-0.172815
-0.147935
-0.123362
-0.098811
-0.0740019
-0.0486605
-0.0225135
0.00471402
0.0333016
0.0635354
0.0957095
0.130126
0.167094
0.206922
0.249914
0.296346
0.34645
0.400372
0.458117
0.519476
0.583916
0.650441
0.717423
0.782397
0.841816
0.890926
0.924313
0.935914
0.912228
0.838293
-0.864541
-0.941799
-0.959958
-0.938843
-0.896273
-0.840463
-0.777812
-0.713264
-0.650033
-0.589992
-0.534096
-0.482689
-0.435726
-0.392931
-0.353903
-0.318185
-0.285303
-0.254794
-0.226215
-0.19915
-0.173212
-0.148038
-0.123284
-0.0986274
-0.073754
-0.048358
-0.022135
0.00522233
0.0340295
0.0646144
0.0973214
0.132514
0.170579
0.211922
0.256967
0.306143
0.35987
0.418522
0.482375
0.551526
0.625772
0.704426
0.786083
0.868295
0.947139
1.01684
1.0702
1.09821
1.08144
0.998149
-1.03887
-1.12671
-1.13303
-1.08869
-1.02023
-0.939509
-0.854747
-0.771613
-0.693331
-0.621417
-0.556338
-0.497945
-0.445743
-0.399076
-0.357231
-0.319506
-0.285233
-0.2538
-0.224649
-0.197276
-0.171224
-0.146076
-0.121447
-0.0969779
-0.0723257
-0.0471572
-0.0211418
0.00605553
0.0347815
0.065401
0.0983045
0.133915
0.172693
0.215145
0.261822
0.313324
0.370285
0.433359
0.503173
0.580254
0.664901
0.756989
0.85565
0.958832
1.06259
1.16035
1.24293
1.29739
1.2952
1.20303
-1.27336
-1.36753
-1.34837
-1.26567
-1.15874
-1.04392
-0.930903
-0.825448
-0.730101
-0.645447
-0.571043
-0.505941
-0.449002
-0.399065
-0.355034
-0.315916
-0.280832
-0.24901
-0.219777
-0.192541
-0.166782
-0.142035
-0.117881
-0.0939305
-0.069818
-0.04519
-0.0196965
0.00701848
0.0353254
0.0656191
0.0983286
0.133928
0.172948
0.215987
0.263727
0.316939
0.376498
0.443374
0.51862
0.603323
0.698495
0.804886
0.922637
1.05071
1.18591
1.32154
1.44678
1.54395
1.57128
1.4759
-1.60698
-1.68959
-1.61755
-1.47195
-1.30879
-1.14841
-1.00052
-0.869454
-0.755844
-0.658476
-0.575414
-0.504566
-0.443942
-0.391768
-0.346509
-0.306865
-0.271737
-0.240202
-0.211481
-0.184909
-0.159912
-0.135991
-0.1127
-0.0896303
-0.0664037
-0.0426552
-0.0180239
0.0078577
0.0353746
0.064941
0.0970135
0.132105
0.170802
0.213784
0.261849
0.315933
0.377148
0.446802
0.526426
0.617776
0.722791
0.843464
0.981553
1.13797
1.31159
1.49728
1.68411
1.85008
1.93638
1.85839
-2.11177
-2.1306
-1.95201
-1.70497
-1.46171
-1.24288
-1.05435
-0.896035
-0.764704
-0.656163
-0.566331
-0.491628
-0.42906
-0.37618
-0.331011
-0.29196
-0.257738
-0.227298
-0.199778
-0.174463
-0.150748
-0.128112
-0.106099
-0.0842955
-0.0623204
-0.0398081
-0.0163979
0.00827826
0.034608
0.0630121
0.0939591
0.127984
0.165708
0.207868
0.255349
0.309225
0.370814
0.441744
0.524025
0.620138
0.733105
0.866517
1.02443
1.21095
1.42907
1.67845
1.9522
2.22773
2.42963
2.42605
-2.91853
-2.7407
-2.35943
-1.95521
-1.60206
-1.31238
-1.08035
-0.896362
-0.750576
-0.634477
-0.541244
-0.465597
-0.403506
-0.351901
-0.30843
-0.271278
-0.239028
-0.210558
-0.184968
-0.161525
-0.139617
-0.118726
-0.0984014
-0.0782409
-0.057873
-0.0369442
-0.0151058
0.00799895
0.0327472
0.0595507
0.0888727
0.121247
0.157305
0.197805
0.243676
0.296077
0.356468
0.426722
0.509257
0.607227
0.724768
0.867283
1.04175
1.25683
1.52255
1.84879
2.24078
2.68456
3.102
3.31309
-4.32402
-3.56034
-2.81559
-2.18933
-1.69926
-1.33307
-1.06222
-0.860159
-0.707362
-0.590032
-0.498454
-0.425791
-0.367197
-0.319184
-0.279201
-0.245342
-0.216162
-0.19054
-0.167592
-0.146607
-0.127
-0.10828
-0.0900207
-0.0718457
-0.053408
-0.0343782
-0.0144315
0.0067649
0.029564
0.054353
0.0815699
0.111724
0.145422
0.183402
0.226583
0.276128
0.33354
0.400793
0.480535
0.576376
0.693333
0.838474
1.02185
1.2577
1.56624
1.97512
2.51415
3.19392
3.99357
4.8243
-7.15813
-4.55866
-3.13945
-2.25308
-1.64567
-1.23492
-0.955479
-0.7592
-0.616781
-0.510568
-0.429398
-0.365984
-0.31544
-0.274394
-0.240447
-0.211847
-0.187284
-0.165751
-0.146461
-0.128785
-0.112207
-0.0962932
-0.080671
-0.065009
-0.0490034
-0.0323652
-0.0148084
0.00395845
0.0242462
0.0463965
0.0707963
0.0978969
0.128237
0.162477
0.20144
0.246179
0.298067
0.358937
0.431297
0.518668
0.626139
0.761302
0.935781
1.16793
1.48811
1.94659
2.61282
3.57141
5.07678
7.79554
-12.0265
-5.64144
-2.97517
-1.87635
-1.27942
-0.924884
-0.705444
-0.559827
-0.456872
-0.380809
-0.322805
-0.277459
-0.241266
-0.21183
-0.187445
-0.166852
-0.149099
-0.133445
-0.119308
-0.106212
-0.0937683
-0.0816445
-0.0695536
-0.0572386
-0.0444622
-0.0309979
-0.0166222
-0.00110419
0.0158003
0.034359
0.0548744
0.0776969
0.103243
0.132016
0.164643
0.201913
0.244849
0.294802
0.353607
0.423835
0.509236
0.61555
0.752096
0.935281
1.19707
1.60129
2.26444
3.45812
6.24144
12.7522
)
;

boundaryField
{
    movingWall
    {
        type            zeroGradient;
    }
    fixedWalls
    {
        type            zeroGradient;
    }
    frontAndBack
    {
        type            empty;
    }
}


// ************************************************************************* //
