/*--------------------------------*- C++ -*----------------------------------*\
  =========                 |
  \\      /  F ield         | OpenFOAM: The Open Source CFD Toolbox
   \\    /   O peration     | Website:  https://openfoam.org
    \\  /    A nd           | Version:  7
     \\/     M anipulation  |
\*---------------------------------------------------------------------------*/
FoamFile
{
    version     2.0;
    format      ascii;
    class       volScalarField;
    location    "0.0216";
    object      p;
}
// * * * * * * * * * * * * * * * * * * * * * * * * * * * * * * * * * * * * * //

dimensions      [0 2 -2 0 0 0 0];

internalField   nonuniform List<scalar> 
2500
(
-2.52177e-05
6.38459
9.04798
10.1419
10.7329
11.0811
11.2945
11.4349
11.5337
11.6071
11.664
11.7098
11.748
11.7811
11.8106
11.8376
11.863
11.8873
11.911
11.9343
11.9575
11.9808
12.0042
12.0278
12.0518
12.0762
12.1012
12.1267
12.153
12.1802
12.2086
12.2383
12.2698
12.3036
12.3401
12.3803
12.425
12.4758
12.5344
12.6036
12.687
12.7905
12.9236
13.1027
13.36
13.7594
14.4176
15.6068
18.3864
24.8949
4.86834
7.46763
8.88436
9.76668
10.3692
10.7749
11.0496
11.2418
11.3811
11.4855
11.5661
11.6304
11.6833
11.7279
11.7668
11.8015
11.8332
11.8628
11.8909
11.9181
11.9445
11.9706
11.9966
12.0225
12.0487
12.0753
12.1023
12.1301
12.1588
12.1886
12.22
12.2531
12.2887
12.3272
12.3695
12.4166
12.4699
12.5313
12.6034
12.6896
12.7952
12.9279
13.0994
13.3281
13.6446
14.0992
14.7618
15.717
17.2195
19.936
7.70516
8.46822
9.21049
9.833
10.3187
10.6804
10.9471
11.1456
11.2959
11.4119
11.5034
11.5772
11.6382
11.6899
11.7348
11.7746
11.8106
11.8439
11.8753
11.9051
11.934
11.9623
11.9902
12.0179
12.0458
12.074
12.1027
12.1321
12.1626
12.1943
12.2278
12.2634
12.3017
12.3434
12.3894
12.4409
12.4994
12.567
12.6463
12.741
12.8561
12.999
13.1797
13.4126
13.718
14.1238
14.6599
15.3369
16.1337
16.9612
9.11554
9.29189
9.6704
10.0708
10.4198
10.7051
10.9331
11.1139
11.2574
11.3724
11.4658
11.5427
11.6074
11.6627
11.711
11.754
11.7929
11.8288
11.8625
11.8944
11.9252
11.9551
11.9845
12.0138
12.043
12.0725
12.1025
12.1332
12.165
12.1982
12.2332
12.2705
12.3106
12.3544
12.4027
12.4567
12.518
12.5883
12.6703
12.7671
12.883
13.0235
13.1956
13.4082
13.6713
13.9949
14.3844
14.8254
15.2396
15.4463
9.92866
9.90732
10.0827
10.3258
10.5648
10.7793
10.9639
11.1191
11.2482
11.3557
11.4457
11.5218
11.587
11.6436
11.6935
11.7382
11.779
11.8166
11.8519
11.8854
11.9176
11.9489
11.9796
12.01
12.0403
12.0709
12.102
12.1338
12.1666
12.2009
12.2371
12.2755
12.3169
12.362
12.4116
12.4668
12.5291
12.6
12.6817
12.7767
12.8882
13.0198
13.1757
13.3602
13.5761
13.8233
14.0946
14.3673
14.5652
14.5559
10.4407
10.3545
10.4227
10.5642
10.723
10.879
11.023
11.1508
11.2623
11.3585
11.4417
11.5139
11.577
11.6329
11.6828
11.728
11.7694
11.808
11.8442
11.8787
11.9119
11.9441
11.9757
12.007
12.0382
12.0696
12.1014
12.134
12.1676
12.2027
12.2396
12.2788
12.3208
12.3664
12.4163
12.4716
12.5334
12.603
12.6821
12.7725
12.8763
12.9955
13.1319
13.2866
13.4584
13.642
13.8263
13.989
14.0707
13.9858
10.782
10.683
10.6979
10.7762
10.8786
10.989
11.0981
11.2003
11.2933
11.3768
11.4512
11.5175
11.5768
11.6302
11.6787
11.7232
11.7645
11.8031
11.8396
11.8745
11.9082
11.941
11.9731
12.005
12.0367
12.0687
12.101
12.1341
12.1682
12.2037
12.241
12.2804
12.3225
12.368
12.4175
12.4718
12.532
12.5989
12.6737
12.7577
12.8519
12.9571
13.0736
13.2002
13.3337
13.4672
13.5896
13.6831
13.7051
13.6019
11.024
10.9303
10.9191
10.9588
11.0227
11.099
11.1797
11.2595
11.3354
11.406
11.471
11.5304
11.5848
11.6347
11.6808
11.7237
11.7639
11.8019
11.8382
11.873
11.9067
11.9396
11.972
12.0041
12.0361
12.0683
12.101
12.1343
12.1686
12.2042
12.2415
12.2808
12.3226
12.3674
12.4158
12.4685
12.5261
12.5894
12.6591
12.7357
12.8196
12.9109
13.0085
13.1103
13.2124
13.3079
13.3873
13.4376
13.4296
13.329
11.2053
11.1212
11.0977
11.114
11.1519
11.2032
11.2619
11.3231
11.3839
11.4425
11.4981
11.5503
11.5992
11.6451
11.6882
11.7288
11.7674
11.8042
11.8397
11.8739
11.9073
11.94
11.9723
12.0044
12.0365
12.0687
12.1014
12.1348
12.169
12.2045
12.2415
12.2803
12.3214
12.3652
12.4121
12.4626
12.5171
12.5762
12.6402
12.7092
12.783
12.861
12.9418
13.0228
13.0998
13.167
13.2169
13.2404
13.2174
13.1252
11.3469
11.2723
11.2433
11.2455
11.2659
11.2993
11.3411
11.3872
11.4352
11.4831
11.53
11.5752
11.6186
11.6601
11.6998
11.7378
11.7743
11.8096
11.8438
11.8772
11.91
11.9422
11.9741
12.006
12.0378
12.0699
12.1024
12.1356
12.1696
12.2047
12.2411
12.2793
12.3194
12.3618
12.4068
12.4548
12.506
12.5607
12.6188
12.6803
12.7446
12.8107
12.8769
12.9406
12.9981
13.0444
13.0741
13.0808
13.0506
12.9676
11.4608
11.3944
11.3634
11.3569
11.3658
11.3863
11.4153
11.4495
11.4868
11.5256
11.5647
11.6034
11.6414
11.6785
11.7147
11.7498
11.7841
11.8175
11.8503
11.8826
11.9144
11.9459
11.9773
12.0086
12.0401
12.0718
12.104
12.1367
12.1703
12.2049
12.2406
12.2778
12.3167
12.3576
12.4005
12.4458
12.4935
12.5437
12.5962
12.6506
12.7062
12.7618
12.8156
12.8653
12.9077
12.9387
12.9544
12.9507
12.9174
12.8427
11.5544
11.4948
11.4634
11.4518
11.4528
11.4642
11.4835
11.5085
11.5371
11.5681
11.6004
11.6333
11.6664
11.6993
11.7319
11.7641
11.796
11.8275
11.8587
11.8896
11.9203
11.9509
11.9815
12.0122
12.0431
12.0744
12.106
12.1383
12.1713
12.2051
12.2401
12.2762
12.3138
12.3529
12.3937
12.4362
12.4804
12.5263
12.5734
12.6213
12.6691
12.7156
12.7591
12.7975
12.8282
12.848
12.854
12.8438
12.8096
12.742
11.6324
11.5783
11.5474
11.5327
11.5285
11.5334
11.5455
11.5632
11.5849
11.6095
11.636
11.6637
11.6922
11.7213
11.7506
11.78
11.8094
11.8389
11.8684
11.8978
11.9274
11.957
11.9867
12.0167
12.0469
12.0775
12.1085
12.1401
12.1724
12.2055
12.2395
12.2745
12.3106
12.348
12.3865
12.4263
12.4672
12.5089
12.5511
12.5931
12.634
12.6728
12.7077
12.7371
12.7588
12.7703
12.7697
12.7554
12.7214
12.6599
11.698
11.6484
11.6184
11.6019
11.5943
11.5944
11.6013
11.6134
11.6295
11.6488
11.6704
11.6936
11.7182
11.7437
11.7699
11.7966
11.8238
11.8512
11.879
11.907
11.9352
11.9638
11.9926
12.0217
12.0511
12.081
12.1114
12.1423
12.1738
12.206
12.2389
12.2727
12.3074
12.343
12.3794
12.4165
12.4542
12.4921
12.5297
12.5665
12.6015
12.6337
12.6616
12.6838
12.6985
12.704
12.6988
12.682
12.6488
12.5925
11.7535
11.7077
11.6787
11.6612
11.6512
11.6481
11.6509
11.6587
11.6705
11.6854
11.7029
11.7224
11.7435
11.7658
11.7892
11.8135
11.8384
11.864
11.89
11.9166
11.9436
11.971
11.9988
12.027
12.0557
12.0848
12.1144
12.1445
12.1752
12.2065
12.2384
12.271
12.3042
12.338
12.3723
12.4069
12.4416
12.4761
12.5097
12.5419
12.5718
12.5984
12.6206
12.6371
12.6465
12.6475
12.6391
12.6209
12.5887
12.537
11.8006
11.7578
11.7299
11.712
11.7004
11.6949
11.6948
11.6993
11.7076
11.7191
11.7332
11.7494
11.7675
11.7871
11.808
11.83
11.8529
11.8767
11.9012
11.9263
11.9521
11.9784
12.0052
12.0325
12.0603
12.0887
12.1175
12.1468
12.1767
12.2071
12.2379
12.2693
12.3011
12.3332
12.3656
12.3979
12.4298
12.4611
12.4912
12.5193
12.5449
12.567
12.5845
12.5965
12.6018
12.5994
12.5889
12.5699
12.539
12.4911
11.8405
11.8003
11.7734
11.7553
11.7427
11.7355
11.7332
11.7352
11.7407
11.7494
11.7607
11.7743
11.7899
11.8071
11.8258
11.8458
11.8669
11.889
11.912
11.9358
11.9604
11.9856
12.0115
12.0379
12.065
12.0925
12.1206
12.1491
12.1781
12.2076
12.2375
12.2677
12.2981
12.3287
12.3592
12.3894
12.4189
12.4474
12.4743
12.4991
12.521
12.5393
12.553
12.5614
12.5636
12.5588
12.5468
12.5274
12.4978
12.4533
11.874
11.8361
11.8101
11.792
11.7788
11.7704
11.7665
11.7665
11.7699
11.7764
11.7854
11.7968
11.8102
11.8254
11.8422
11.8604
11.8799
11.9006
11.9223
11.9449
11.9683
11.9926
12.0175
12.0431
12.0694
12.0962
12.1235
12.1513
12.1795
12.2081
12.237
12.2661
12.2953
12.3245
12.3533
12.3816
12.4089
12.435
12.4592
12.4811
12.5
12.5151
12.5258
12.5314
12.5312
12.5247
12.5116
12.4923
12.4639
12.4222
11.9021
11.866
11.8409
11.8229
11.8093
11.8001
11.7949
11.7934
11.7952
11.7999
11.8071
11.8167
11.8283
11.8418
11.857
11.8737
11.8918
11.9112
11.9317
11.9532
11.9757
11.999
12.0231
12.048
12.0735
12.0996
12.1262
12.1533
12.1807
12.2085
12.2366
12.2647
12.2928
12.3206
12.348
12.3746
12.4001
12.424
12.446
12.4655
12.4818
12.4944
12.5027
12.5061
12.5041
12.4963
12.4826
12.4633
12.4361
12.3969
11.9252
11.8906
11.8663
11.8485
11.8347
11.8249
11.8188
11.8162
11.8167
11.8199
11.8257
11.8339
11.844
11.8561
11.87
11.8854
11.9023
11.9206
11.94
11.9606
11.9822
12.0048
12.0281
12.0523
12.0771
12.1026
12.1286
12.155
12.1818
12.2089
12.2361
12.2634
12.2905
12.3172
12.3433
12.3684
12.3923
12.4146
12.4346
12.4521
12.4664
12.477
12.4834
12.4851
12.4817
12.4729
12.4589
12.4398
12.4136
12.3765
11.9438
11.9105
11.8868
11.8692
11.8553
11.845
11.8383
11.8349
11.8344
11.8366
11.8413
11.8482
11.8572
11.8682
11.881
11.8954
11.9113
11.9286
11.9472
11.967
11.9879
12.0097
12.0325
12.056
12.0803
12.1052
12.1306
12.1565
12.1827
12.2092
12.2358
12.2622
12.2885
12.3142
12.3393
12.3632
12.3858
12.4066
12.4252
12.441
12.4537
12.4627
12.4676
12.468
12.4636
12.4542
12.4399
12.4211
12.3957
12.3604
11.9584
11.926
11.9029
11.8854
11.8714
11.8609
11.8537
11.8497
11.8484
11.8498
11.8537
11.8597
11.8679
11.878
11.8899
11.9034
11.9186
11.9351
11.9531
11.9722
11.9925
12.0138
12.036
12.0591
12.0829
12.1073
12.1323
12.1577
12.1835
12.2094
12.2354
12.2613
12.2868
12.3118
12.336
12.359
12.3805
12.4002
12.4176
12.4322
12.4436
12.4515
12.4552
12.4547
12.4496
12.4397
12.4253
12.4067
12.382
12.348
11.969
11.9374
11.9146
11.8973
11.8833
11.8726
11.8651
11.8606
11.8589
11.8597
11.8629
11.8684
11.8759
11.8853
11.8966
11.9095
11.9241
11.9401
11.9575
11.9762
11.996
12.0169
12.0387
12.0614
12.0848
12.1089
12.1336
12.1586
12.184
12.2096
12.2351
12.2605
12.2856
12.31
12.3335
12.3558
12.3766
12.3954
12.4119
12.4256
12.4361
12.4431
12.4461
12.4449
12.4392
12.4291
12.4146
12.3962
12.3721
12.3391
11.976
11.9449
11.9224
11.9052
11.8912
11.8804
11.8727
11.8679
11.8659
11.8663
11.8691
11.8741
11.8812
11.8902
11.9011
11.9136
11.9278
11.9435
11.9605
11.9789
11.9984
12.019
12.0405
12.063
12.0862
12.11
12.1344
12.1592
12.1844
12.2097
12.2349
12.26
12.2847
12.3087
12.3318
12.3536
12.3739
12.3922
12.4081
12.4212
12.4312
12.4376
12.4401
12.4384
12.4324
12.4221
12.4076
12.3894
12.3656
12.3333
11.9795
11.9486
11.9262
11.9091
11.8951
11.8842
11.8764
11.8715
11.8693
11.8696
11.8722
11.877
11.8839
11.8927
11.9033
11.9157
11.9297
11.9452
11.962
11.9802
11.9996
12.02
12.0414
12.0637
12.0868
12.1106
12.1348
12.1596
12.1846
12.2097
12.2348
12.2598
12.2843
12.3081
12.331
12.3526
12.3726
12.3906
12.4062
12.419
12.4287
12.4348
12.4371
12.4352
12.4291
12.4187
12.4041
12.386
12.3624
12.3305
11.9795
11.9486
11.9262
11.9091
11.8951
11.8842
11.8764
11.8715
11.8693
11.8696
11.8722
11.877
11.8839
11.8927
11.9033
11.9157
11.9297
11.9452
11.962
11.9802
11.9996
12.02
12.0414
12.0637
12.0868
12.1106
12.1348
12.1596
12.1846
12.2097
12.2348
12.2598
12.2843
12.3081
12.331
12.3526
12.3726
12.3906
12.4062
12.419
12.4287
12.4348
12.4371
12.4352
12.4291
12.4187
12.4041
12.386
12.3624
12.3305
11.976
11.9449
11.9224
11.9052
11.8912
11.8804
11.8727
11.8679
11.8659
11.8663
11.8691
11.8741
11.8812
11.8902
11.9011
11.9136
11.9278
11.9435
11.9605
11.9789
11.9984
12.019
12.0405
12.063
12.0862
12.11
12.1344
12.1592
12.1844
12.2097
12.2349
12.26
12.2847
12.3087
12.3318
12.3536
12.3739
12.3922
12.4081
12.4212
12.4312
12.4376
12.4401
12.4384
12.4324
12.4221
12.4076
12.3894
12.3656
12.3333
11.969
11.9374
11.9146
11.8973
11.8833
11.8726
11.8651
11.8606
11.8589
11.8597
11.8629
11.8684
11.8759
11.8853
11.8966
11.9095
11.9241
11.9401
11.9575
11.9762
11.996
12.0169
12.0387
12.0614
12.0848
12.1089
12.1336
12.1586
12.184
12.2096
12.2351
12.2605
12.2856
12.31
12.3335
12.3558
12.3766
12.3954
12.4119
12.4256
12.4361
12.4431
12.4461
12.4449
12.4392
12.4291
12.4146
12.3962
12.3721
12.3391
11.9583
11.926
11.9028
11.8854
11.8714
11.8609
11.8537
11.8497
11.8484
11.8498
11.8536
11.8597
11.8679
11.878
11.8898
11.9034
11.9186
11.9351
11.9531
11.9722
11.9925
12.0138
12.036
12.0591
12.0829
12.1073
12.1323
12.1577
12.1835
12.2094
12.2354
12.2613
12.2868
12.3118
12.336
12.359
12.3805
12.4002
12.4176
12.4322
12.4436
12.4515
12.4552
12.4547
12.4496
12.4397
12.4253
12.4067
12.382
12.348
11.9438
11.9105
11.8868
11.8692
11.8553
11.845
11.8383
11.8349
11.8344
11.8366
11.8413
11.8482
11.8572
11.8682
11.881
11.8954
11.9113
11.9286
11.9472
11.967
11.9878
12.0097
12.0325
12.056
12.0803
12.1052
12.1306
12.1565
12.1827
12.2092
12.2357
12.2622
12.2885
12.3142
12.3392
12.3632
12.3858
12.4066
12.4252
12.441
12.4537
12.4627
12.4676
12.468
12.4636
12.4542
12.4399
12.4211
12.3957
12.3604
11.9252
11.8906
11.8663
11.8485
11.8347
11.8248
11.8188
11.8162
11.8167
11.8199
11.8257
11.8338
11.844
11.8561
11.87
11.8854
11.9023
11.9206
11.94
11.9606
11.9822
12.0047
12.0281
12.0523
12.0771
12.1026
12.1286
12.155
12.1818
12.2089
12.2361
12.2634
12.2905
12.3172
12.3433
12.3684
12.3923
12.4146
12.4346
12.4521
12.4664
12.477
12.4834
12.4851
12.4817
12.4729
12.4589
12.4398
12.4136
12.3765
11.9021
11.866
11.8409
11.8229
11.8093
11.8001
11.7949
11.7934
11.7952
11.7999
11.8071
11.8167
11.8283
11.8418
11.857
11.8737
11.8918
11.9112
11.9317
11.9532
11.9757
11.999
12.0231
12.048
12.0735
12.0995
12.1262
12.1533
12.1807
12.2085
12.2366
12.2647
12.2928
12.3206
12.348
12.3746
12.4001
12.424
12.446
12.4655
12.4818
12.4944
12.5027
12.5061
12.5041
12.4963
12.4826
12.4633
12.436
12.3969
11.874
11.8361
11.8101
11.792
11.7788
11.7704
11.7665
11.7665
11.7699
11.7763
11.7854
11.7968
11.8102
11.8254
11.8422
11.8604
11.8799
11.9006
11.9222
11.9449
11.9683
11.9926
12.0175
12.0431
12.0694
12.0962
12.1235
12.1513
12.1795
12.2081
12.237
12.2661
12.2953
12.3245
12.3533
12.3816
12.4089
12.435
12.4592
12.4811
12.5
12.5151
12.5258
12.5314
12.5312
12.5247
12.5116
12.4923
12.4638
12.4222
11.8404
11.8003
11.7734
11.7553
11.7427
11.7355
11.7332
11.7351
11.7407
11.7494
11.7607
11.7743
11.7899
11.8071
11.8258
11.8458
11.8669
11.889
11.912
11.9358
11.9604
11.9856
12.0115
12.0379
12.0649
12.0925
12.1205
12.1491
12.1781
12.2076
12.2375
12.2677
12.2981
12.3287
12.3592
12.3893
12.4189
12.4474
12.4743
12.4991
12.521
12.5392
12.553
12.5614
12.5636
12.5588
12.5468
12.5274
12.4978
12.4533
11.8006
11.7578
11.7299
11.7119
11.7004
11.6949
11.6948
11.6993
11.7076
11.719
11.7331
11.7494
11.7675
11.7871
11.808
11.83
11.8529
11.8767
11.9012
11.9263
11.952
11.9783
12.0052
12.0325
12.0603
12.0887
12.1175
12.1468
12.1767
12.207
12.2379
12.2693
12.3011
12.3332
12.3655
12.3978
12.4298
12.4611
12.4911
12.5193
12.5449
12.567
12.5845
12.5965
12.6018
12.5994
12.5889
12.5699
12.539
12.4911
11.7535
11.7076
11.6787
11.6612
11.6512
11.6481
11.6509
11.6587
11.6705
11.6854
11.7029
11.7224
11.7435
11.7658
11.7892
11.8135
11.8384
11.864
11.89
11.9166
11.9436
11.971
11.9988
12.027
12.0557
12.0848
12.1144
12.1445
12.1752
12.2065
12.2384
12.271
12.3042
12.338
12.3723
12.4069
12.4416
12.476
12.5097
12.5418
12.5718
12.5984
12.6206
12.6371
12.6465
12.6475
12.6391
12.6209
12.5887
12.5369
11.698
11.6484
11.6184
11.6019
11.5942
11.5944
11.6013
11.6134
11.6295
11.6488
11.6703
11.6936
11.7182
11.7437
11.7699
11.7966
11.8237
11.8512
11.879
11.907
11.9352
11.9637
11.9925
12.0217
12.0511
12.081
12.1113
12.1422
12.1738
12.206
12.2389
12.2727
12.3074
12.3429
12.3793
12.4165
12.4542
12.4921
12.5297
12.5665
12.6015
12.6337
12.6616
12.6838
12.6985
12.704
12.6988
12.682
12.6488
12.5925
11.6324
11.5782
11.5474
11.5327
11.5285
11.5333
11.5455
11.5632
11.5849
11.6095
11.6359
11.6637
11.6922
11.7213
11.7505
11.78
11.8094
11.8389
11.8683
11.8978
11.9274
11.957
11.9867
12.0167
12.0469
12.0775
12.1085
12.1401
12.1724
12.2055
12.2395
12.2745
12.3106
12.3479
12.3865
12.4263
12.4672
12.5089
12.5511
12.5931
12.634
12.6728
12.7077
12.7371
12.7588
12.7703
12.7697
12.7554
12.7214
12.6599
11.5544
11.4947
11.4633
11.4517
11.4528
11.4642
11.4835
11.5084
11.5371
11.5681
11.6004
11.6333
11.6663
11.6992
11.7319
11.7641
11.796
11.8275
11.8586
11.8896
11.9203
11.9509
11.9815
12.0122
12.0431
12.0744
12.106
12.1383
12.1712
12.2051
12.24
12.2762
12.3138
12.3529
12.3937
12.4362
12.4804
12.5263
12.5734
12.6213
12.6691
12.7156
12.7591
12.7975
12.8282
12.848
12.854
12.8438
12.8096
12.742
11.4608
11.3944
11.3633
11.3569
11.3657
11.3863
11.4152
11.4495
11.4868
11.5255
11.5646
11.6034
11.6414
11.6785
11.7146
11.7498
11.7841
11.8175
11.8503
11.8826
11.9144
11.9459
11.9773
12.0086
12.0401
12.0718
12.104
12.1367
12.1703
12.2048
12.2406
12.2778
12.3167
12.3576
12.4005
12.4458
12.4935
12.5437
12.5962
12.6506
12.7062
12.7618
12.8156
12.8653
12.9077
12.9387
12.9544
12.9507
12.9174
12.8427
11.3468
11.2723
11.2433
11.2454
11.2659
11.2993
11.341
11.3872
11.4351
11.4831
11.53
11.5752
11.6186
11.6601
11.6997
11.7377
11.7743
11.8096
11.8438
11.8772
11.9099
11.9422
11.9741
12.0059
12.0378
12.0699
12.1024
12.1356
12.1696
12.2047
12.2411
12.2793
12.3194
12.3618
12.4068
12.4548
12.506
12.5606
12.6188
12.6803
12.7446
12.8107
12.8769
12.9406
12.9981
13.0444
13.0741
13.0808
13.0506
12.9676
11.2052
11.1212
11.0976
11.114
11.1518
11.2032
11.2618
11.3231
11.3838
11.4425
11.498
11.5503
11.5992
11.6451
11.6881
11.7288
11.7674
11.8042
11.8396
11.8739
11.9073
11.94
11.9723
12.0044
12.0365
12.0687
12.1014
12.1348
12.169
12.2045
12.2415
12.2803
12.3214
12.3652
12.4121
12.4626
12.5171
12.5762
12.6402
12.7092
12.783
12.861
12.9418
13.0227
13.0998
13.167
13.2169
13.2404
13.2174
13.1252
11.0239
10.9302
10.919
10.9588
11.0226
11.0989
11.1797
11.2595
11.3354
11.406
11.4709
11.5303
11.5847
11.6347
11.6808
11.7237
11.7639
11.8019
11.8381
11.873
11.9067
11.9396
11.972
12.0041
12.0361
12.0683
12.101
12.1343
12.1686
12.2042
12.2415
12.2808
12.3226
12.3674
12.4158
12.4685
12.5261
12.5894
12.6591
12.7357
12.8196
12.9108
13.0084
13.1103
13.2124
13.3078
13.3873
13.4376
13.4296
13.3289
10.7819
10.6829
10.6978
10.7762
10.8786
10.989
11.098
11.2002
11.2933
11.3768
11.4512
11.5175
11.5768
11.6302
11.6787
11.7232
11.7645
11.8031
11.8396
11.8745
11.9082
11.941
11.9731
12.0049
12.0367
12.0686
12.101
12.1341
12.1682
12.2037
12.2409
12.2804
12.3225
12.368
12.4175
12.4718
12.5319
12.5989
12.6737
12.7577
12.8519
12.9571
13.0736
13.2002
13.3337
13.4672
13.5896
13.6831
13.7051
13.6019
10.4407
10.3544
10.4227
10.5642
10.7229
10.8789
11.0229
11.1508
11.2622
11.3585
11.4417
11.5139
11.577
11.6328
11.6827
11.7279
11.7694
11.808
11.8442
11.8787
11.9119
11.9441
11.9757
12.007
12.0382
12.0696
12.1014
12.134
12.1676
12.2027
12.2396
12.2787
12.3208
12.3664
12.4163
12.4716
12.5334
12.603
12.6821
12.7725
12.8762
12.9954
13.1319
13.2866
13.4584
13.642
13.8263
13.989
14.0706
13.9858
9.92858
9.90724
10.0826
10.3257
10.5647
10.7792
10.9638
11.119
11.2482
11.3557
11.4457
11.5218
11.5869
11.6435
11.6935
11.7382
11.779
11.8166
11.8519
11.8854
11.9176
11.9489
11.9796
12.01
12.0403
12.0709
12.1019
12.1338
12.1666
12.2009
12.2371
12.2755
12.3169
12.362
12.4116
12.4668
12.529
12.6
12.6817
12.7767
12.8882
13.0198
13.1757
13.3602
13.5761
13.8233
14.0946
14.3672
14.5652
14.5559
9.11545
9.2918
9.67032
10.0707
10.4197
10.705
10.9331
11.1139
11.2574
11.3724
11.4657
11.5427
11.6074
11.6627
11.711
11.754
11.7929
11.8288
11.8624
11.8944
11.9252
11.9551
11.9845
12.0137
12.043
12.0724
12.1024
12.1332
12.165
12.1982
12.2332
12.2705
12.3106
12.3544
12.4027
12.4567
12.518
12.5883
12.6703
12.7671
12.883
13.0234
13.1956
13.4081
13.6713
13.9949
14.3844
14.8254
15.2396
15.4463
7.70506
8.46812
9.21041
9.83292
10.3186
10.6803
10.947
11.1456
11.2959
11.4119
11.5033
11.5771
11.6382
11.6899
11.7348
11.7745
11.8106
11.8439
11.8752
11.9051
11.934
11.9623
11.9901
12.0179
12.0458
12.074
12.1027
12.1321
12.1626
12.1943
12.2278
12.2634
12.3017
12.3434
12.3894
12.4409
12.4994
12.567
12.6463
12.7409
12.8561
12.999
13.1797
13.4126
13.718
14.1238
14.6599
15.3369
16.1337
16.9612
4.86822
7.46752
8.88426
9.7666
10.3692
10.7749
11.0495
11.2417
11.3811
11.4854
11.5661
11.6304
11.6832
11.7279
11.7668
11.8015
11.8332
11.8628
11.8909
11.918
11.9445
11.9706
11.9965
12.0225
12.0487
12.0753
12.1023
12.1301
12.1588
12.1886
12.2199
12.2531
12.2887
12.3272
12.3695
12.4166
12.4699
12.5313
12.6034
12.6896
12.7952
12.9279
13.0993
13.3281
13.6445
14.0992
14.7618
15.717
17.2195
19.936
-0.0001802
6.38446
9.04787
10.1418
10.7328
11.081
11.2944
11.4348
11.5337
11.6071
11.6639
11.7097
11.748
11.7811
11.8105
11.8376
11.8629
11.8873
11.9109
11.9343
11.9575
11.9807
12.0041
12.0278
12.0518
12.0762
12.1012
12.1267
12.153
12.1802
12.2086
12.2383
12.2698
12.3036
12.3401
12.3803
12.425
12.4758
12.5344
12.6035
12.687
12.7905
12.9236
13.1027
13.3599
13.7593
14.4176
15.6067
18.3864
24.8949
)
;

boundaryField
{
    movingWallTop
    {
        type            zeroGradient;
    }
    movingWallBottom
    {
        type            zeroGradient;
    }
    fixedWalls
    {
        type            zeroGradient;
    }
    frontAndBack
    {
        type            empty;
    }
}


// ************************************************************************* //
