/*--------------------------------*- C++ -*----------------------------------*\
  =========                 |
  \\      /  F ield         | OpenFOAM: The Open Source CFD Toolbox
   \\    /   O peration     | Website:  https://openfoam.org
    \\  /    A nd           | Version:  7
     \\/     M anipulation  |
\*---------------------------------------------------------------------------*/
FoamFile
{
    version     2.0;
    format      ascii;
    class       volScalarField;
    location    "0.0464";
    object      p;
}
// * * * * * * * * * * * * * * * * * * * * * * * * * * * * * * * * * * * * * //

dimensions      [0 2 -2 0 0 0 0];

internalField   nonuniform List<scalar> 
2500
(
1.86596e-07
-0.000516025
-0.00207656
-0.00436168
-0.0070282
-0.00977752
-0.0123894
-0.01469
-0.0165489
-0.0178715
-0.0185921
-0.0186693
-0.0180811
-0.0168223
-0.0149016
-0.0123397
-0.00916753
-0.00542459
-0.00115795
0.00357875
0.00872616
0.0142201
0.0199924
0.0259711
0.0320816
0.0382472
0.0443894
0.0504292
0.0562878
0.0618873
0.0671518
0.072009
0.0763906
0.0802345
0.0834857
0.0860985
0.0880376
0.0892801
0.0898182
0.0896605
0.0888351
0.0873923
0.0854082
0.082989
0.0802767
0.0774548
0.0747534
0.0724637
0.0709444
0.0704793
0.000498508
-1.11954e-05
-0.0012752
-0.0030878
-0.00518048
-0.00734628
-0.00940997
-0.0112268
-0.0126822
-0.0136897
-0.0141863
-0.0141298
-0.0134955
-0.012274
-0.0104691
-0.00809576
-0.00517893
-0.00175186
0.00214473
0.00646377
0.0111526
0.0161536
0.0214054
0.0268432
0.0323992
0.0380039
0.0435863
0.0490749
0.0543985
0.0594873
0.0642734
0.0686922
0.0726839
0.0761942
0.0791759
0.0815906
0.0834099
0.084617
0.085209
0.0851982
0.0846144
0.0835072
0.0819478
0.0800325
0.0778848
0.0756575
0.0735327
0.0717189
0.0704753
0.0700146
0.00204614
0.00124268
-2.8422e-05
-0.00166371
-0.00349534
-0.00536158
-0.00712127
-0.00865524
-0.00986602
-0.0106772
-0.0110318
-0.0108903
-0.0102284
-0.00903584
-0.00731391
-0.00507468
-0.00233942
0.000862679
0.00449531
0.00851592
0.0128766
0.0175248
0.0224041
0.0274547
0.0326142
0.0378184
0.0430017
0.0480982
0.0530423
0.0577697
0.0622181
0.0663287
0.0700471
0.0733241
0.0761178
0.0783942
0.0801288
0.0813082
0.0819315
0.0820119
0.0815781
0.0806761
0.0793705
0.0777461
0.0759085
0.0739844
0.0721203
0.0704792
0.0692283
0.0685005
0.00434589
0.00306058
0.00157968
-8.22271e-05
-0.00185007
-0.00359652
-0.00520779
-0.00658794
-0.00765654
-0.00834888
-0.00861579
-0.00842251
-0.00774747
-0.00658107
-0.00492442
-0.00278811
-0.000191275
0.00283949
0.00627092
0.0100639
0.0141742
0.0185531
0.0231481
0.0279035
0.0327611
0.0376609
0.0425416
0.0473415
0.0519994
0.0564551
0.0606507
0.0645314
0.0680464
0.0711505
0.0738047
0.0759778
0.0776476
0.0788019
0.0794401
0.0795742
0.0792303
0.0784489
0.0772868
0.0758167
0.0741272
0.0723219
0.0705201
0.0688523
0.0674007
0.0661945
0.00708748
0.0051995
0.00340416
0.00160523
-0.000208357
-0.00193668
-0.00348911
-0.00479118
-0.00577897
-0.00639974
-0.0066128
-0.00638936
-0.00571163
-0.00457196
-0.00297211
-0.000922378
0.00155929
0.00444815
0.00771325
0.0113182
0.0152217
0.0193782
0.0237386
0.0282506
0.0328598
0.0375096
0.0421424
0.0467
0.0511249
0.0553602
0.0593513
0.0630466
0.0663983
0.0693636
0.0719058
0.0739952
0.0756107
0.0767402
0.0773823
0.0775468
0.0772558
0.0765441
0.0754597
0.0740635
0.0724281
0.0706362
0.0687849
0.0669788
0.0652182
0.0634221
0.0100146
0.00747848
0.00530325
0.00328896
0.00134696
-0.000443429
-0.00201038
-0.00329824
-0.00425801
-0.00484856
-0.0050379
-0.00480356
-0.00413215
-0.00301888
-0.00146702
0.000512709
0.00290274
0.00567939
0.00881329
0.0122701
0.0160107
0.0199922
0.0241683
0.0284896
0.0329044
0.0373592
0.0417993
0.0461695
0.0504148
0.0544812
0.0583165
0.0618714
0.0650999
0.0679609
0.0704188
0.0724447
0.0740174
0.0751241
0.0757614
0.0759363
0.0756663
0.07498
0.0739169
0.072527
0.0708685
0.0690062
0.0670196
0.0649943
0.062856
0.0604228
0.0129403
0.00974528
0.00715206
0.00486794
0.00273614
0.000821548
-0.000818511
-0.00214427
-0.00311998
-0.00371502
-0.00390581
-0.00367634
-0.00301798
-0.00192926
-0.000415538
0.00151134
0.00383353
0.00652775
0.00956556
0.0129139
0.0165355
0.0203894
0.0244312
0.028614
0.0328883
0.0372028
0.0415052
0.0457424
0.0498615
0.0538103
0.0575383
0.0609975
0.0641431
0.0669346
0.0693369
0.0713206
0.0728636
0.0739516
0.0745788
0.0747484
0.0744734
0.0737759
0.0726876
0.0712485
0.0695046
0.067506
0.0653194
0.0630172
0.0604604
0.0573771
0.0157202
0.0118727
0.008842
0.00625273
0.00388861
0.00180489
4.80623e-05
-0.00135516
-0.00238044
-0.00300664
-0.00321798
-0.00300468
-0.00236296
-0.00129497
0.00019146
0.00208289
0.00436064
0.00700128
0.00997674
0.0132548
0.0167993
0.0205706
0.024526
0.02862
0.0328051
0.0370316
0.0412488
0.045405
0.0494488
0.0533292
0.0569965
0.0604033
0.0635052
0.0662616
0.0686367
0.0706004
0.0721286
0.073205
0.0738206
0.0739749
0.0736758
0.0729395
0.0717904
0.0702599
0.0683836
0.0662002
0.0637671
0.0611492
0.0581509
0.0544205
0.018243
0.0137553
0.0102784
0.00736151
0.00473604
0.00245133
0.000546147
-0.000963598
-0.00206324
-0.00273994
-0.00298504
-0.00279469
-0.00216986
-0.00111639
0.000355115
0.00222925
0.00448614
0.00710177
0.010048
0.0132928
0.0168007
0.0205331
0.0244481
0.0285015
0.0326469
0.0368357
0.0410183
0.045144
0.049162
0.0530217
0.0566739
0.060071
0.0631682
0.0659241
0.0683017
0.0702689
0.0717998
0.0728749
0.073482
0.0736163
0.0732809
0.0724863
0.0712503
0.0695969
0.0675536
0.0651497
0.0624371
0.0594769
0.0560242
0.0516548
0.0204211
0.0153051
0.0113779
0.00811897
0.00521243
0.00270448
0.000628534
-0.0010083
-0.00219957
-0.0029397
-0.00322643
-0.00306143
-0.00245026
-0.00140251
6.82941e-05
0.00194458
0.00420495
0.00682443
0.00977433
0.0130226
0.016534
0.0202702
0.02419
0.0282499
0.032404
0.0366045
0.0408022
0.0449468
0.0489878
0.0528744
0.0565569
0.0599872
0.0631194
0.0659105
0.0683216
0.0703185
0.0718722
0.0729601
0.0735662
0.0736814
0.0733038
0.0724386
0.0710978
0.0692991
0.0670634
0.0644131
0.0613968
0.0580753
0.0541591
0.0491576
0.022182
0.0164461
0.0120659
0.00845536
0.00525419
0.0025078
0.000245815
-0.00153181
-0.00282563
-0.00363637
-0.00396763
-0.0038262
-0.00322204
-0.00216846
-0.000681974
0.00121749
0.00350679
0.00615965
0.00914656
0.012435
0.0159896
0.0197721
0.0237413
0.0278541
0.0320649
0.0363259
0.040588
0.0448009
0.0489135
0.0528746
0.0566335
0.0601407
0.0633487
0.0662125
0.0686906
0.0707459
0.0723461
0.073465
0.0740823
0.0741844
0.0737647
0.0728233
0.0713668
0.0694078
0.0669616
0.0640457
0.0607075
0.0570098
0.052622
0.04699
0.023463
0.0171102
0.0122741
0.00830464
0.00479943
0.00180434
-0.000653424
-0.00257993
-0.00398176
-0.00486533
-0.0052395
-0.00511589
-0.00450871
-0.00343491
-0.00191405
3.14468e-05
0.00237645
0.00509322
0.00815112
0.0115169
0.0151546
0.0190258
0.0230891
0.0273012
0.0316163
0.0359866
0.0403624
0.044693
0.0489264
0.0530103
0.0568926
0.060522
0.0638485
0.0668247
0.069406
0.0715518
0.0732262
0.0743984
0.075044
0.0751445
0.0746885
0.0736712
0.0720944
0.0699661
0.0672973
0.0641017
0.0604271
0.05634
0.0514708
0.0452033
0.0242065
0.0172341
0.0119374
0.00760276
0.00378664
0.000536185
-0.00212281
-0.00420169
-0.00571242
-0.00666656
-0.0070779
-0.00696262
-0.00633905
-0.00522777
-0.00365142
-0.00163506
0.000794078
0.00360653
0.00677034
0.0102512
0.0140126
0.0180152
0.0222174
0.0265754
0.0310428
0.0355715
0.0401109
0.0446093
0.0490136
0.05327
0.0573242
0.0611228
0.0646131
0.0677443
0.0704683
0.0727405
0.0745206
0.0757734
0.0764692
0.076585
0.0761041
0.0750169
0.0733207
0.0710194
0.0681204
0.0646346
0.0606114
0.0561223
0.0507591
0.0438432
0.0243566
0.0167561
0.0109919
0.00628597
0.00215357
-0.00135624
-0.00421855
-0.00644947
-0.00806599
-0.00908446
-0.00952337
-0.00940333
-0.00874673
-0.00757778
-0.0059223
-0.00380806
-0.00126456
0.00167685
0.0049827
0.00861753
0.0125437
0.0167212
0.0211077
0.0256586
0.0303271
0.0350638
0.0398174
0.0445349
0.0491616
0.0536416
0.0579185
0.0619359
0.0656379
0.06897
0.0718801
0.0743189
0.0762411
0.0776065
0.0783801
0.0785334
0.0780446
0.076899
0.0750895
0.0726163
0.0694833
0.0656995
0.0613168
0.0564124
0.050539
0.0429543
0.0238568
0.0156143
0.00937302
0.00428929
-0.000163846
-0.00393503
-0.00699995
-0.00937932
-0.0110949
-0.0121678
-0.012621
-0.0124796
-0.0117701
-0.0105203
-0.0087594
-0.00651793
-0.00382783
-0.000722476
0.002763
0.00659173
0.0107249
0.0151216
0.0197387
0.0245305
0.0294494
0.0344449
0.0394646
0.0444538
0.0493559
0.0541129
0.0586656
0.0629543
0.0669194
0.0705023
0.073646
0.0762962
0.0784022
0.0799178
0.0808022
0.0810211
0.080547
0.0793601
0.0774485
0.0748086
0.0714416
0.0673543
0.0626017
0.0572677
0.0508643
0.0425825
0.0226475
0.013744
0.00701378
0.00154512
-0.00323258
-0.00726553
-0.01053
-0.0130512
-0.0148559
-0.0159696
-0.0164203
-0.0162375
-0.0154518
-0.014095
-0.0121995
-0.00979894
-0.0069278
-0.00362161
8.26827e-05
0.00414671
0.00853041
0.0131917
0.0180864
0.0231681
0.0283879
0.0336942
0.0390331
0.0443483
0.049581
0.0546707
0.0595552
0.064171
0.0684545
0.0723423
0.0757721
0.0786839
0.0810207
0.0827301
0.0837646
0.0840834
0.0836528
0.0824472
0.0804499
0.0776532
0.0740552
0.0696608
0.0645286
0.0587493
0.0517921
0.0427778
0.0206648
0.0110768
0.00384339
-0.00201804
-0.00712363
-0.0114173
-0.0148759
-0.0175296
-0.0194099
-0.0205475
-0.0209752
-0.0207272
-0.0198387
-0.0183453
-0.0162831
-0.013689
-0.0106
-0.00705395
-0.00308983
0.00125244
0.00593145
0.010904
0.0161248
0.0215464
0.0271187
0.0327891
0.038502
0.0441993
0.0498201
0.0553009
0.0605762
0.0655786
0.07024
0.0744916
0.0782653
0.0814947
0.0841158
0.086069
0.0872996
0.0877593
0.0874076
0.0862123
0.0841511
0.0812121
0.0773896
0.0726869
0.0671656
0.0609242
0.0533859
0.0435964
0.017839
0.00753858
-0.000214278
-0.00647685
-0.0119132
-0.0164651
-0.0201102
-0.0228837
-0.0248229
-0.0259636
-0.026344
-0.0260034
-0.0249815
-0.0233185
-0.0210543
-0.018229
-0.0148827
-0.0110556
-0.00678861
-0.00212343
0.00289721
0.00822891
0.0138254
0.0196381
0.0256161
0.0317052
0.0378487
0.0439863
0.0500548
0.0559879
0.0617165
0.0671691
0.0722724
0.076952
0.0811332
0.0847425
0.0877084
0.0899628
0.0914428
0.092092
0.0918617
0.0907125
0.0886156
0.0855537
0.0815175
0.0765072
0.0705884
0.063867
0.0557168
0.045103
0.0140932
0.00304873
-0.00524182
-0.0119143
-0.0176836
-0.0224894
-0.0263106
-0.0291884
-0.0311658
-0.0322848
-0.0325893
-0.0321242
-0.0309345
-0.029065
-0.0265598
-0.0234626
-0.0198166
-0.0156646
-0.0110496
-0.006015
-0.000604822
0.00513541
0.0111584
0.0174149
0.0238527
0.0304168
0.0370488
0.0436868
0.0502653
0.0567149
0.0629629
0.0689334
0.0745476
0.079725
0.0843838
0.0884424
0.0918208
0.0944419
0.0962332
0.0971288
0.0970707
0.096011
0.0939134
0.0907543
0.0865194
0.0812057
0.0748819
0.0676619
0.0588661
0.0473724
0.00934239
-0.00248141
-0.0113296
-0.0184209
-0.0245243
-0.0295777
-0.0335617
-0.0365242
-0.038515
-0.0395829
-0.0397782
-0.0391521
-0.0377553
-0.035638
-0.0328488
-0.0294354
-0.0254441
-0.0209206
-0.0159101
-0.0104574
-0.00460808
0.00159147
0.00809323
0.0148471
0.0218002
0.0288967
0.036077
0.0432775
0.0504305
0.0574638
0.064301
0.0708614
0.0770607
0.0828117
0.0880249
0.09261
0.0964773
0.0995393
0.101713
0.102921
0.103096
0.102178
0.100123
0.0968987
0.0924857
0.0868763
0.0801421
0.0724049
0.0629269
0.0504917
0.00349238
-0.00914968
-0.0185769
-0.026096
-0.0325332
-0.0378252
-0.0419552
-0.0449784
-0.0469527
-0.0479345
-0.0479817
-0.0471525
-0.0455042
-0.0430927
-0.0399719
-0.0361937
-0.0318081
-0.0268634
-0.0214071
-0.0154857
-0.00914589
-0.00243479
0.00459903
0.0119051
0.0194301
0.0271177
0.0349072
0.0427341
0.0505284
0.0582154
0.0657151
0.0729419
0.079806
0.0862127
0.0920644
0.0972613
0.101703
0.10529
0.107928
0.109526
0.110003
0.10929
0.10733
0.104082
0.099518
0.0936254
0.086478
0.0782054
0.068006
0.0545619
-0.00356148
-0.0170644
-0.0270936
-0.0350489
-0.0418177
-0.0473362
-0.0515906
-0.0546452
-0.056567
-0.0574214
-0.0572748
-0.0561939
-0.0542434
-0.0514857
-0.0479803
-0.0437841
-0.0389507
-0.0335318
-0.0275767
-0.0211337
-0.0142501
-0.0069739
0.000646409
0.00856028
0.0167145
0.0250526
0.0335137
0.042032
0.0505365
0.0589499
0.0671887
0.0751629
0.0827765
0.0899278
0.09651
0.102413
0.107524
0.111732
0.114926
0.117003
0.117867
0.117433
0.115631
0.11241
0.107731
0.101574
0.094014
0.0851886
0.074227
0.0597002
-0.0119355
-0.026346
-0.0370015
-0.0454007
-0.0524964
-0.0582248
-0.0625766
-0.0656265
-0.0674524
-0.0681301
-0.0677364
-0.0663473
-0.0640362
-0.0608732
-0.0569242
-0.0522513
-0.0469123
-0.040962
-0.034452
-0.0274318
-0.0199497
-0.0120534
-0.00379139
0.00478652
0.0136278
0.0226763
0.0318716
0.0411477
0.0504326
0.0596471
0.0687048
0.0775113
0.0859649
0.0939559
0.101368
0.108081
0.113968
0.118904
0.122761
0.12542
0.126767
0.126701
0.125134
0.122002
0.117253
0.110858
0.102892
0.0934986
0.0817318
0.066043
-0.0217591
-0.0371289
-0.0484364
-0.0572861
-0.0647005
-0.0706169
-0.075032
-0.0780327
-0.0797099
-0.080152
-0.0794479
-0.0776847
-0.0749461
-0.0713106
-0.0668515
-0.0616368
-0.0557289
-0.0491858
-0.0420613
-0.0344061
-0.0262686
-0.0176963
-0.0087366
0.00056175
0.0101477
0.0199665
0.0299587
0.0400591
0.0501954
0.0602875
0.0702463
0.0799739
0.0893626
0.0982954
0.106647
0.114282
0.121064
0.126847
0.131489
0.134849
0.136792
0.137197
0.135959
0.132993
0.128232
0.121635
0.113274
0.1033
0.0906846
0.0737478
-0.0331767
-0.0495632
-0.0615506
-0.0708554
-0.078576
-0.0846515
-0.0890865
-0.0919829
-0.0934472
-0.0935829
-0.0924932
-0.0902787
-0.0870346
-0.0828497
-0.0778055
-0.0719766
-0.0654304
-0.0582281
-0.0504257
-0.0420747
-0.0332234
-0.0239182
-0.0142048
-0.00412994
0.0062577
0.0169058
0.0277569
0.0387476
0.0498065
0.0608531
0.0717973
0.0825376
0.0929614
0.102944
0.11235
0.121033
0.128839
0.135605
0.141168
0.145365
0.148037
0.149038
0.148239
0.145533
0.140833
0.134081
0.125347
0.114784
0.101275
0.082997
-0.04635
-0.0638183
-0.0765152
-0.0862777
-0.0942859
-0.100483
-0.104883
-0.107606
-0.108779
-0.108522
-0.106957
-0.1042
-0.10036
-0.095537
-0.0898226
-0.0832985
-0.0760374
-0.0681041
-0.0595564
-0.0504462
-0.040821
-0.0307253
-0.0202025
-0.00929593
0.00194905
0.0134837
0.025254
0.0371995
0.0492509
0.061329
0.0733432
0.0851901
0.0967526
0.107899
0.118485
0.12835
0.137323
0.145223
0.151862
0.157052
0.160607
0.16235
0.162123
0.159792
0.155245
0.148401
0.139324
0.12817
0.113721
0.0940016
-0.0614609
-0.0800858
-0.0935248
-0.103744
-0.112014
-0.118282
-0.122577
-0.125042
-0.125826
-0.125073
-0.122925
-0.119516
-0.114974
-0.109411
-0.102929
-0.0956188
-0.0875584
-0.0788162
-0.0694514
-0.0595158
-0.0490552
-0.0381115
-0.0267242
-0.0149326
-0.00277696
0.00969882
0.0224457
0.0354077
0.0485193
0.0617041
0.0748727
0.0879209
0.100729
0.113158
0.125055
0.136247
0.146544
0.155745
0.163636
0.169999
0.174614
0.177272
0.177778
0.175962
0.171681
0.164828
0.155452
0.143713
0.128278
0.107006
-0.078716
-0.0985852
-0.112802
-0.123473
-0.131967
-0.138241
-0.142341
-0.14444
-0.144715
-0.143339
-0.140477
-0.136289
-0.130919
-0.124497
-0.117137
-0.108939
-0.0999859
-0.0903502
-0.080092
-0.069262
-0.0579036
-0.0460547
-0.0337498
-0.0210223
-0.00790621
0.00556134
0.0193379
0.0333738
0.0476094
0.0619729
0.076378
0.0907218
0.104883
0.118718
0.132065
0.144738
0.156532
0.167219
0.176559
0.184299
0.190183
0.193958
0.195387
0.194258
0.190387
0.183629
0.174017
0.161706
0.145241
0.122296
-0.0983513
-0.119569
-0.134604
-0.145715
-0.154382
-0.160575
-0.164367
-0.165964
-0.165581
-0.163423
-0.159691
-0.154569
-0.148224
-0.140806
-0.132442
-0.12324
-0.113292
-0.102671
-0.0914385
-0.079643
-0.067324
-0.054514
-0.041241
-0.0275308
-0.0134092
0.00109517
0.0159488
0.0311102
0.0465279
0.0621371
0.077857
0.093588
0.109209
0.124576
0.139518
0.153838
0.167311
0.179689
0.190698
0.20005
0.207442
0.212575
0.215157
0.214925
0.21164
0.205114
0.19535
0.182496
0.164955
0.140201
-0.12064
-0.143334
-0.159231
-0.170762
-0.179531
-0.185531
-0.188865
-0.189788
-0.188559
-0.185429
-0.180634
-0.174393
-0.166901
-0.158327
-0.148813
-0.13848
-0.127423
-0.115718
-0.103426
-0.0905926
-0.0772508
-0.0634262
-0.0491386
-0.034404
-0.0192381
-0.00365881
0.0123114
0.0286421
0.0452923
0.0622068
0.0793133
0.0965186
0.113705
0.130729
0.147414
0.163554
0.178906
0.193199
0.206124
0.217353
0.226532
0.233305
0.237317
0.238237
0.235762
0.229641
0.21984
0.206487
0.187827
0.161111
-0.145904
-0.170229
-0.187038
-0.198955
-0.20773
-0.213384
-0.216069
-0.216097
-0.213789
-0.209448
-0.203359
-0.195779
-0.186936
-0.177021
-0.166194
-0.154585
-0.142294
-0.129401
-0.115962
-0.102016
-0.0875911
-0.0727024
-0.0573591
-0.0415656
-0.025325
-0.00864175
0.00847501
0.0260087
0.0439316
0.0622015
0.0807577
0.0995169
0.118369
0.137173
0.155751
0.173891
0.191335
0.207785
0.222902
0.236309
0.247599
0.256345
0.262118
0.264504
0.263117
0.257626
0.24794
0.234157
0.214338
0.185483
-0.174526
-0.200676
-0.218454
-0.230703
-0.239347
-0.244454
-0.246238
-0.24509
-0.241408
-0.235563
-0.227898
-0.218717
-0.208283
-0.196814
-0.184489
-0.171444
-0.157787
-0.143594
-0.128916
-0.113787
-0.0982219
-0.0822255
-0.0657932
-0.0489153
-0.0315796
-0.0137747
0.0045066
0.0232644
0.0424877
0.0621507
0.082208
0.10259
0.123199
0.143901
0.164523
0.184847
0.204605
0.223477
0.241089
0.257017
0.270789
0.281903
0.289837
0.294077
0.294128
0.289555
0.280188
0.266076
0.245062
0.213861
-0.206968
-0.235188
-0.253995
-0.266493
-0.274818
-0.279105
-0.279658
-0.276974
-0.271548
-0.263836
-0.254253
-0.243158
-0.230855
-0.217591
-0.203558
-0.188905
-0.173738
-0.15813
-0.142125
-0.125743
-0.108988
-0.0918481
-0.0743038
-0.0563275
-0.0378891
-0.0189585
0.000490874
0.020479
0.041015
0.0620931
0.0836879
0.105749
0.128194
0.150903
0.173713
0.196408
0.218712
0.240289
0.260731
0.279564
0.29625
0.310196
0.320774
0.327345
0.329277
0.325997
0.317223
0.302929
0.280691
0.2469
-0.243803
-0.274404
-0.294303
-0.306919
-0.314659
-0.317757
-0.316644
-0.311959
-0.304322
-0.294297
-0.282384
-0.269007
-0.254513
-0.239178
-0.22321
-0.206762
-0.189938
-0.1728
-0.15538
-0.137685
-0.119698
-0.101392
-0.0827259
-0.0636518
-0.0441186
-0.0240747
-0.00347082
0.0177359
0.0395786
0.0620755
0.0852258
0.109003
0.133347
0.15816
0.183294
0.208542
0.233631
0.258211
0.281848
0.304019
0.324115
0.341443
0.35525
0.364743
0.369119
0.367621
0.359813
0.345546
0.322071
0.285392
-0.285753
-0.319131
-0.340181
-0.352713
-0.359487
-0.360893
-0.357538
-0.35025
-0.339815
-0.326929
-0.312193
-0.296102
-0.279051
-0.261341
-0.243192
-0.224754
-0.206121
-0.187344
-0.168433
-0.149374
-0.130131
-0.11065
-0.0908688
-0.0707151
-0.0501137
-0.028988
-0.00726336
0.0151296
0.0382514
0.0621488
0.0868502
0.112359
0.138645
0.165639
0.193217
0.221194
0.249306
0.277202
0.304429
0.33042
0.354495
0.375853
0.393597
0.40675
0.41429
0.41522
0.408883
0.394949
0.370249
0.330316
-0.333744
-0.370411
-0.39265
-0.40478
-0.410044
-0.409063
-0.4027
-0.392035
-0.378065
-0.361649
-0.343503
-0.324201
-0.304181
-0.283766
-0.263176
-0.242552
-0.221969
-0.201453
-0.18099
-0.160537
-0.14003
-0.119388
-0.0985193
-0.0773259
-0.0557047
-0.0335513
-0.0107625
0.0127606
0.0371094
0.0623634
0.0885854
0.115815
0.144059
0.173286
0.203408
0.234272
0.265639
0.297171
0.328408
0.358753
0.387455
0.413607
0.436146
0.45388
0.465513
0.469729
0.465562
0.452409
0.42654
0.382896
-0.388995
-0.429609
-0.453028
-0.464259
-0.46722
-0.46289
-0.452496
-0.437454
-0.419028
-0.398272
-0.37603
-0.352953
-0.329516
-0.306047
-0.282756
-0.259759
-0.2371
-0.21477
-0.192718
-0.170866
-0.149114
-0.127349
-0.105448
-0.0832806
-0.0607136
-0.037612
-0.0138418
0.0107286
0.0362245
0.0627622
0.0904438
0.119351
0.149537
0.181017
0.213752
0.247637
0.282475
0.31796
0.353646
0.388923
0.422988
0.454827
0.483202
0.506671
0.523599
0.532253
0.531237
0.519528
0.492627
0.444692
-0.45315
-0.49856
-0.523043
-0.532581
-0.532078
-0.523061
-0.507267
-0.486562
-0.462541
-0.436478
-0.409351
-0.381876
-0.354545
-0.327673
-0.301436
-0.275905
-0.251076
-0.22689
-0.203248
-0.180026
-0.157083
-0.134268
-0.111419
-0.088373
-0.0649632
-0.041022
-0.0163818
0.00912328
0.0356556
0.0633713
0.0924165
0.122922
0.154994
0.188706
0.224083
0.261084
0.299579
0.339317
0.379897
0.420726
0.460973
0.499535
0.535003
0.565653
0.58944
0.604095
0.607617
0.598355
0.570708
0.517747
-0.528481
-0.579774
-0.604987
-0.611559
-0.605874
-0.590295
-0.567277
-0.539267
-0.508256
-0.475754
-0.442858
-0.410321
-0.378619
-0.348017
-0.318627
-0.290447
-0.263404
-0.237369
-0.212184
-0.187668
-0.163631
-0.139875
-0.116201
-0.0924064
-0.0682896
-0.0436486
-0.0182816
0.0080135
0.0354377
0.0641896
0.0944632
0.126443
0.160298
0.196171
0.234166
0.274326
0.316613
0.360868
0.406771
0.453789
0.501112
0.547586
0.591652
0.631289
0.663978
0.686767
0.696823
0.69155
0.663715
0.604802
-0.618241
-0.676768
-0.701939
-0.703479
-0.690052
-0.665283
-0.632618
-0.595231
-0.555555
-0.515323
-0.475708
-0.437441
-0.400925
-0.366325
-0.333644
-0.302775
-0.273545
-0.245738
-0.219119
-0.193442
-0.168458
-0.143919
-0.119583
-0.095207
-0.0705544
-0.0453879
-0.0194707
0.00743522
0.0355703
0.0651772
0.0965002
0.129783
0.165262
0.203162
0.24368
0.286969
0.333111
0.382078
0.433685
0.48752
0.542861
0.598577
0.653014
0.703881
0.748137
0.781989
0.801481
0.802608
0.775663
0.709661
-0.727254
-0.794582
-0.818067
-0.81119
-0.786184
-0.748554
-0.703057
-0.653724
-0.603429
-0.554059
-0.506762
-0.462153
-0.420473
-0.381715
-0.345717
-0.312225
-0.280934
-0.25152
-0.223655
-0.197016
-0.171291
-0.146178
-0.121388
-0.0966398
-0.07166
-0.0461776
-0.0199222
0.0073796
0.0360064
0.0662446
0.0983899
0.132747
0.169627
0.209345
0.252206
0.298495
0.348448
0.402215
0.459807
0.521019
0.585317
0.651708
0.718559
0.7834
0.842675
0.891617
0.924806
0.93617
0.91218
0.83783
-0.863005
-0.9406
-0.959023
-0.938144
-0.895809
-0.840227
-0.777783
-0.713414
-0.650324
-0.590377
-0.534524
-0.483109
-0.436086
-0.393184
-0.354005
-0.3181
-0.285001
-0.254253
-0.225421
-0.198098
-0.171903
-0.146479
-0.121493
-0.0966231
-0.0715629
-0.0460102
-0.0196634
0.00778273
0.0366427
0.0672443
0.0999331
0.135075
0.173059
0.214295
0.259212
0.308244
0.361816
0.420308
0.484002
0.552999
0.627096
0.705611
0.787136
0.869218
0.947924
1.01747
1.07064
1.09843
1.08137
0.997665
-1.03772
-1.12585
-1.13241
-1.0883
-1.02007
-0.939581
-0.855034
-0.772085
-0.693947
-0.622127
-0.557091
-0.498686
-0.446418
-0.399635
-0.357631
-0.319708
-0.285207
-0.253523
-0.224106
-0.19646
-0.170135
-0.144722
-0.119842
-0.0951431
-0.0702861
-0.0449426
-0.0187853
0.00851856
0.0373142
0.0679664
0.100866
0.136438
0.175146
0.217498
0.264052
0.315411
0.372217
0.435127
0.504775
0.581692
0.666184
0.758124
0.856648
0.959698
1.06333
1.16094
1.24334
1.2976
1.29513
1.20258
-1.27262
-1.36702
-1.34807
-1.26559
-1.15889
-1.04431
-0.931511
-0.826244
-0.731042
-0.646483
-0.572118
-0.506999
-0.449989
-0.39993
-0.355732
-0.316407
-0.281085
-0.249
-0.219487
-0.191963
-0.165916
-0.140887
-0.116463
-0.092263
-0.0679252
-0.0431012
-0.0174445
0.00939815
0.0377955
0.0681416
0.100866
0.136443
0.175407
0.218358
0.265983
0.319059
0.378462
0.445172
0.520247
0.604777
0.699783
0.806015
0.923619
1.05156
1.18662
1.32211
1.44719
1.54418
1.57126
1.47552
-1.60664
-1.68943
-1.61758
-1.47218
-1.30926
-1.14911
-1.00144
-0.870563
-0.757099
-0.659825
-0.576801
-0.505934
-0.445236
-0.392935
-0.347503
-0.307644
-0.272269
-0.24046
-0.211447
-0.184571
-0.159269
-0.135047
-0.111465
-0.088124
-0.0646489
-0.0406801
-0.0158607
0.0101736
0.0378055
0.0674482
0.0995578
0.134648
0.173307
0.216218
0.26418
0.318136
0.3792
0.448688
0.528137
0.619306
0.724142
0.844644
0.982571
1.13884
1.31232
1.49787
1.68456
1.85035
1.93644
1.85814
-2.11182
-2.13076
-1.95233
-1.70549
-1.46246
-1.24387
-1.05556
-0.897437
-0.766253
-0.657809
-0.568017
-0.493297
-0.430655
-0.377647
-0.332301
-0.29303
-0.258552
-0.227827
-0.200001
-0.174367
-0.150327
-0.127369
-0.105042
-0.0829413
-0.0606905
-0.0379298
-0.0143028
0.0105549
0.0370285
0.0655367
0.0965475
0.130596
0.168305
0.210413
0.257807
0.311567
0.373014
0.443781
0.525884
0.62181
0.734587
0.867812
1.02555
1.2119
1.42986
1.6791
1.9527
2.22808
2.4298
2.42597
-2.91891
-2.74115
-2.36
-1.95598
-1.60305
-1.31361
-1.08182
-0.898028
-0.752398
-0.636404
-0.543219
-0.46756
-0.405399
-0.353668
-0.310019
-0.272643
-0.240129
-0.211363
-0.185452
-0.161671
-0.139416
-0.118178
-0.0975135
-0.0770262
-0.0563517
-0.0351425
-0.0130545
0.0102648
0.0351893
0.0621286
0.0915446
0.123971
0.160039
0.200509
0.246313
0.298613
0.358873
0.42897
0.511328
0.609107
0.726447
0.868759
1.04302
1.25791
1.52346
1.84953
2.24137
2.68501
3.1023
3.31321
-4.32465
-3.56099
-2.81635
-2.19029
-1.70045
-1.33451
-1.0639
-0.862062
-0.709438
-0.59223
-0.500714
-0.428052
-0.369396
-0.321262
-0.281101
-0.247014
-0.217561
-0.191629
-0.168342
-0.146998
-0.127019
-0.107922
-0.0892912
-0.0707557
-0.0519762
-0.0326296
-0.0123966
0.00905094
0.0320622
0.0570216
0.0843652
0.114602
0.148337
0.186313
0.229447
0.278908
0.3362
0.403304
0.482871
0.578518
0.695266
0.84019
1.02334
1.25899
1.56731
1.97601
2.51487
3.19449
3.99401
4.82461
-7.15889
-4.55942
-3.14032
-2.25416
-1.64701
-1.23654
-0.957378
-0.76135
-0.619137
-0.513075
-0.431993
-0.368599
-0.318007
-0.276845
-0.242719
-0.213883
-0.189032
-0.167169
-0.147515
-0.129448
-0.112463
-0.0961347
-0.080099
-0.0640333
-0.0476413
-0.030641
-0.012753
0.0063091
0.0268516
0.0492127
0.0737768
0.100994
0.131403
0.165664
0.204603
0.249274
0.301055
0.361784
0.433971
0.521142
0.628395
0.763324
0.937562
1.16947
1.48941
1.94766
2.61369
3.57211
5.07735
7.79602
-12.0273
-5.6422
-2.97606
-1.87749
-1.28087
-0.926686
-0.70759
-0.562288
-0.459598
-0.383735
-0.325857
-0.280558
-0.244333
-0.214787
-0.190218
-0.169373
-0.151307
-0.135291
-0.120748
-0.107216
-0.094313
-0.081719
-0.0691561
-0.0563768
-0.0431526
-0.0292653
-0.0144983
0.0013729
0.018587
0.0374075
0.0581339
0.0811148
0.106765
0.135591
0.168217
0.205438
0.248278
0.298093
0.356723
0.426744
0.511911
0.617969
0.754244
0.93715
1.19866
1.6026
2.26549
3.45895
6.2421
12.7528
)
;

boundaryField
{
    movingWall
    {
        type            zeroGradient;
    }
    fixedWalls
    {
        type            zeroGradient;
    }
    frontAndBack
    {
        type            empty;
    }
}


// ************************************************************************* //
