/*--------------------------------*- C++ -*----------------------------------*\
  =========                 |
  \\      /  F ield         | OpenFOAM: The Open Source CFD Toolbox
   \\    /   O peration     | Website:  https://openfoam.org
    \\  /    A nd           | Version:  7
     \\/     M anipulation  |
\*---------------------------------------------------------------------------*/
FoamFile
{
    version     2.0;
    format      ascii;
    class       volScalarField;
    location    "0.0048";
    object      p;
}
// * * * * * * * * * * * * * * * * * * * * * * * * * * * * * * * * * * * * * //

dimensions      [0 2 -2 0 0 0 0];

internalField   nonuniform List<scalar> 
2500
(
2.06117e-07
-0.000979587
-0.00239658
-0.0037333
-0.00471349
-0.00515204
-0.00495544
-0.00408886
-0.00255083
-0.000358468
0.00246127
0.00587663
0.00985367
0.0143574
0.0193522
0.0248014
0.0306677
0.0369124
0.0434956
0.0503763
0.057512
0.0648593
0.0723737
0.08001
0.0877221
0.0954638
0.103188
0.110849
0.118399
0.125793
0.132985
0.13993
0.146585
0.152905
0.158851
0.164381
0.169455
0.174036
0.178086
0.181568
0.184447
0.186691
0.188271
0.189171
0.189393
0.188972
0.188005
0.186679
0.185274
0.1843
0.000956036
-2.53173e-05
-0.00108156
-0.00200182
-0.00261376
-0.0027732
-0.00239248
-0.00142705
0.000139825
0.00230647
0.00505912
0.00837631
0.0122317
0.0165957
0.0214364
0.0267198
0.0324104
0.0384709
0.0448626
0.0515455
0.0584781
0.0656179
0.0729213
0.080344
0.087841
0.0953668
0.102876
0.110322
0.11766
0.124844
0.131831
0.138576
0.145036
0.151169
0.156935
0.162296
0.167213
0.171651
0.175577
0.178958
0.181768
0.183985
0.185593
0.186592
0.186998
0.186857
0.186259
0.185349
0.184302
0.183327
0.00234464
0.00100163
-5.9552e-05
-0.000843236
-0.00130039
-0.00132469
-0.000843758
0.00018229
0.00177255
0.00393071
0.00664892
0.00991114
0.0136955
0.0179758
0.0227227
0.0279043
0.0334863
0.0394326
0.0457055
0.0522656
0.0590722
0.0660832
0.0732559
0.0805463
0.0879101
0.0953023
0.102678
0.109992
0.117198
0.124254
0.131114
0.137735
0.144075
0.150094
0.155751
0.161008
0.165831
0.170184
0.174038
0.177364
0.180139
0.182346
0.183977
0.185036
0.185542
0.185535
0.185091
0.184315
0.183259
0.181916
0.00368135
0.00190467
0.000684305
-0.000114071
-0.000538849
-0.000515161
1.17681e-05
0.0010713
0.00267852
0.00483699
0.00754053
0.0107754
0.014522
0.0187563
0.0234506
0.0285743
0.0340942
0.0399751
0.0461799
0.0526695
0.0594039
0.0663414
0.0734395
0.0806546
0.0879427
0.0952591
0.102559
0.109798
0.11693
0.123913
0.130701
0.137253
0.143526
0.149479
0.155075
0.160276
0.165047
0.169355
0.173172
0.176471
0.179231
0.181439
0.183087
0.184179
0.18473
0.18477
0.184355
0.183562
0.182343
0.180562
0.00470578
0.0025215
0.00110936
0.000241199
-0.000203556
-0.000173496
0.00037087
0.00144814
0.0030678
0.00523128
0.00793213
0.0111573
0.0148884
0.0191024
0.0237728
0.0288697
0.0343608
0.0402113
0.0463844
0.0528416
0.0595429
0.0664469
0.0735112
0.0806925
0.0879468
0.0952296
0.102496
0.109702
0.116802
0.123752
0.130509
0.13703
0.143273
0.149199
0.154768
0.159945
0.164694
0.168984
0.172787
0.176078
0.178837
0.18105
0.182711
0.18382
0.184388
0.184433
0.183996
0.183131
0.181717
0.179526
0.00524014
0.00271157
0.00111144
0.000149415
-0.000344225
-0.000333525
0.000209454
0.00129409
0.00292424
0.00509837
0.00780871
0.0110419
0.0147796
0.0189993
0.0236748
0.0287768
0.0342731
0.0401292
0.0463085
0.0527726
0.0594814
0.0663936
0.0734666
0.0806572
0.0879211
0.0952139
0.102491
0.109707
0.116817
0.123777
0.130544
0.137075
0.143328
0.149263
0.154841
0.160026
0.164784
0.169084
0.172896
0.176198
0.178969
0.181195
0.182867
0.183983
0.184549
0.184573
0.184086
0.183124
0.18152
0.178984
0.00519192
0.00238468
0.000614006
-0.00044905
-0.00100547
-0.00102819
-0.000497152
0.000589894
0.00223189
0.00442419
0.00715723
0.0104166
0.0141835
0.0184352
0.0231455
0.028285
0.0338213
0.0397201
0.0459444
0.0524556
0.0592136
0.0661767
0.0733021
0.0805462
0.0878645
0.0952121
0.102544
0.109815
0.11698
0.123994
0.130814
0.137396
0.143698
0.149681
0.155304
0.160532
0.165329
0.169665
0.173511
0.176843
0.17964
0.181886
0.183572
0.184691
0.185244
0.185234
0.184682
0.183618
0.181842
0.179026
0.00451925
0.00148686
-0.000433668
-0.00159514
-0.00221792
-0.00227918
-0.00176363
-0.000674113
0.000984393
0.00320445
0.00597454
0.00927893
0.0130979
0.0174082
0.0221829
0.0273922
0.0330036
0.038982
0.0452902
0.0518892
0.0587381
0.0657951
0.0730166
0.0803587
0.0877762
0.0952239
0.102656
0.110027
0.117291
0.124403
0.131318
0.137993
0.144385
0.150453
0.156157
0.161461
0.166329
0.17073
0.174633
0.178015
0.180853
0.18313
0.184834
0.185958
0.186495
0.186446
0.185827
0.184662
0.182734
0.179692
0.00320515
-1.55717e-05
-0.00206855
-0.00332244
-0.00400997
-0.00410951
-0.0036082
-0.0025123
-0.00082973
0.00142972
0.00425266
0.00762189
0.0115166
0.0159123
0.0207816
0.0260937
0.0318155
0.037911
0.0443424
0.05107
0.0580523
0.0652464
0.0726085
0.0800934
0.0876556
0.0952489
0.102827
0.110343
0.117751
0.125004
0.132058
0.138868
0.14539
0.151582
0.157405
0.162819
0.16779
0.172283
0.176269
0.179721
0.182617
0.184938
0.186669
0.1878
0.188324
0.188236
0.187551
0.186292
0.184231
0.180999
0.00124296
-0.00214546
-0.00431949
-0.00566013
-0.00640898
-0.00654373
-0.00605243
-0.00494348
-0.00322694
-0.000914539
0.00197859
0.00543375
0.00942872
0.013938
0.0189327
0.0243814
0.0302495
0.0365004
0.0430952
0.0499932
0.0571518
0.0645273
0.0720748
0.0797484
0.0875014
0.0952868
0.103057
0.110764
0.118362
0.125802
0.133039
0.140026
0.14672
0.153076
0.159054
0.164614
0.169719
0.174334
0.178428
0.181974
0.184946
0.187324
0.189093
0.19024
0.190755
0.190632
0.189884
0.188537
0.186353
0.182952
-0.00137214
-0.00492122
-0.00721124
-0.00863495
-0.00944167
-0.00960741
-0.00912012
-0.00798949
-0.00622719
-0.00384655
-0.000864323
0.00269923
0.00682042
0.0114722
0.0166246
0.0222445
0.0282962
0.0347418
0.0415411
0.048652
0.0560311
0.0636332
0.0714122
0.0793211
0.0873121
0.0953368
0.103347
0.111293
0.119127
0.1268
0.134264
0.141473
0.148381
0.154942
0.161114
0.166856
0.172129
0.176897
0.181127
0.184789
0.187857
0.19031
0.192129
0.1933
0.193813
0.193659
0.192853
0.191421
0.189119
0.185556
-0.00464784
-0.00836115
-0.0107678
-0.0122735
-0.0131355
-0.0133278
-0.0128375
-0.0116752
-0.00985381
-0.00738807
-0.00429628
-0.000600342
0.00367442
0.00849937
0.0138428
0.01967
0.0259438
0.0326246
0.0396707
0.0470387
0.0546834
0.0625585
0.0706163
0.0788084
0.0870857
0.0953983
0.103696
0.111929
0.120048
0.128001
0.13574
0.143216
0.150381
0.15719
0.163596
0.169558
0.175034
0.179987
0.184382
0.188186
0.191373
0.193918
0.195801
0.197008
0.197525
0.197345
0.196483
0.194968
0.192548
0.188818
-0.00859711
-0.0124862
-0.0150149
-0.016604
-0.0175201
-0.0177346
-0.0172338
-0.0160288
-0.0141337
-0.0115645
-0.00834107
-0.0044871
-2.97296e-05
0.00500053
0.01057
0.0166423
0.0231782
0.0301364
0.0374733
0.0451437
0.0531008
0.0612965
0.0696818
0.0782064
0.0868197
0.0954703
0.104107
0.112677
0.121129
0.129411
0.137473
0.145263
0.152732
0.159832
0.166515
0.172736
0.178453
0.183625
0.188215
0.192189
0.195517
0.198174
0.200137
0.201391
0.201922
0.20172
0.200803
0.199204
0.196658
0.19275
-0.0132392
-0.0173215
-0.0199815
-0.0216579
-0.0226281
-0.022861
-0.0223418
-0.0210823
-0.0190975
-0.0164049
-0.0130261
-0.00898665
-0.00431577
0.000953891
0.00678653
0.0131435
0.0199834
0.0272628
0.0349361
0.0429561
0.051274
0.0598399
0.0686028
0.0775108
0.0865114
0.0955515
0.104578
0.113536
0.122374
0.131036
0.13947
0.147624
0.155444
0.162881
0.169885
0.176408
0.182405
0.187832
0.192651
0.196824
0.20032
0.203109
0.20517
0.206484
0.207036
0.206817
0.205845
0.204156
0.201477
0.197371
-0.0185998
-0.0228974
-0.0257012
-0.0274707
-0.0284962
-0.0287441
-0.0281984
-0.0268715
-0.0247799
-0.0219424
-0.0183826
-0.0141282
-0.00921079
-0.00366544
0.0024695
0.00915285
0.0163408
0.0239875
0.0320449
0.0404636
0.0491926
0.0581799
0.0673725
0.0767165
0.0861576
0.0956406
0.10511
0.114511
0.123786
0.132881
0.141741
0.150308
0.15853
0.166353
0.173725
0.180594
0.186913
0.192635
0.197718
0.202122
0.205813
0.208759
0.210935
0.212322
0.212904
0.212672
0.211644
0.20986
0.207034
0.202708
-0.0247114
-0.02925
-0.0322126
-0.0340829
-0.035166
-0.0354257
-0.034845
-0.0334372
-0.03122
-0.0282143
-0.0244458
-0.0199447
-0.0147453
-0.0088855
-0.00240655
0.00464748
0.01223
0.0202923
0.0287837
0.0376524
0.046845
0.056307
0.0659833
0.075818
0.0857545
0.0957357
0.105704
0.115602
0.125371
0.134954
0.144293
0.153329
0.162005
0.170265
0.178054
0.185317
0.192003
0.198062
0.203448
0.208118
0.212033
0.215161
0.217473
0.218949
0.21957
0.219327
0.218241
0.216354
0.213365
0.208793
-0.0316126
-0.0364214
-0.0395604
-0.0415407
-0.0426846
-0.0429532
-0.0423285
-0.0408249
-0.0384619
-0.0352626
-0.0312552
-0.026473
-0.0209534
-0.0147375
-0.00787
-0.000398187
0.0076281
0.016157
0.0251351
0.0345075
0.0442183
0.0542106
0.0644268
0.0748088
0.0852979
0.0958347
0.10636
0.116813
0.127134
0.137262
0.147136
0.156697
0.165883
0.174635
0.182894
0.190602
0.197704
0.204145
0.209876
0.214849
0.219023
0.22236
0.22483
0.22641
0.227081
0.22683
0.225683
0.223682
0.220512
0.215663
-0.0393488
-0.0444604
-0.0477957
-0.0498968
-0.0511055
-0.0513801
-0.0507017
-0.0490861
-0.0465551
-0.0431343
-0.0388551
-0.0337543
-0.0278729
-0.0212561
-0.0139521
-0.0060122
0.00251021
0.0115598
0.0210798
0.0310123
0.0412986
0.0518791
0.0626937
0.073682
0.0847829
0.095935
0.107076
0.118145
0.129077
0.139811
0.150282
0.160427
0.170182
0.179484
0.18827
0.196477
0.204047
0.210919
0.21704
0.222358
0.226827
0.230405
0.233058
0.23476
0.23549
0.235236
0.234022
0.231897
0.228525
0.223366
-0.047972
-0.0534227
-0.0569768
-0.0592112
-0.0604894
-0.0607671
-0.0600242
-0.0582788
-0.0555549
-0.0518818
-0.0472945
-0.041834
-0.0355456
-0.028479
-0.020687
-0.012225
-0.00315063
0.00647691
0.0165972
0.0271492
0.0380709
0.0493
0.0607739
0.0724297
0.084204
0.0960332
0.107853
0.119599
0.131206
0.142608
0.153739
0.164531
0.174918
0.184831
0.194205
0.202971
0.211065
0.218423
0.224985
0.230694
0.235497
0.23935
0.242214
0.244058
0.24486
0.244605
0.24332
0.241058
0.237461
0.231953
-0.0575412
-0.063372
-0.0671703
-0.0695519
-0.0709053
-0.0711826
-0.0703633
-0.0684676
-0.0655234
-0.0615635
-0.0566278
-0.0507621
-0.0440171
-0.0364476
-0.0281115
-0.0190693
-0.00938317
0.000883324
0.0116658
0.0228996
0.0345195
0.0464604
0.0586569
0.0710437
0.0835552
0.0961256
0.108689
0.121177
0.133524
0.14566
0.157517
0.169023
0.180108
0.190699
0.200726
0.210115
0.218796
0.226699
0.233757
0.239908
0.245092
0.249258
0.252363
0.254372
0.255259
0.255008
0.253646
0.251232
0.247383
0.241484
-0.0681231
-0.0743802
-0.0784515
-0.0809964
-0.082431
-0.0827041
-0.0817944
-0.0797256
-0.0765295
-0.0722441
-0.0669148
-0.0605935
-0.053337
-0.0452062
-0.0362651
-0.0265798
-0.0162177
-0.00524721
0.006263
0.0182443
0.0306282
0.0433466
0.0563314
0.0695151
0.0828299
0.0962078
0.109581
0.122879
0.136034
0.148973
0.161625
0.173916
0.185769
0.19711
0.20786
0.217942
0.227278
0.235791
0.243408
0.250057
0.255673
0.260197
0.263578
0.265778
0.266766
0.266523
0.265079
0.262496
0.258364
0.252026
-0.0797929
-0.0865289
-0.090906
-0.0936324
-0.0951549
-0.0954189
-0.0944028
-0.0921342
-0.0886503
-0.0839953
-0.0782215
-0.0713879
-0.0635588
-0.0548025
-0.0451896
-0.0347929
-0.0236858
-0.0119418
0.000365578
0.0131636
0.0263804
0.0399447
0.0537861
0.0678347
0.0820208
0.0962748
0.110526
0.124705
0.138738
0.152553
0.166073
0.179222
0.19192
0.204085
0.215636
0.226486
0.236552
0.245749
0.253993
0.261205
0.267311
0.272242
0.275942
0.278363
0.279471
0.279242
0.277708
0.274936
0.270486
0.263654
-0.0926348
-0.0999104
-0.104631
-0.10756
-0.109178
-0.109426
-0.108284
-0.105785
-0.101971
-0.0968961
-0.0906197
-0.08321
-0.0747401
-0.0652868
-0.0549289
-0.0437465
-0.0318197
-0.019228
-0.00604978
0.00763788
0.0217595
0.0362409
0.0510093
0.0659929
0.0811204
0.0963206
0.111522
0.126652
0.141637
0.156401
0.170866
0.184952
0.198574
0.211647
0.22408
0.235783
0.246661
0.256622
0.265572
0.27342
0.280083
0.28548
0.289546
0.292224
0.293473
0.293265
0.291633
0.28865
0.283843
0.276452
-0.106744
-0.114629
-0.119738
-0.122892
-0.124613
-0.124839
-0.123548
-0.12078
-0.116588
-0.111034
-0.104188
-0.0961297
-0.0869422
-0.0767124
-0.0655287
-0.0534795
-0.0406524
-0.0271333
-0.0130061
0.00164769
0.0167491
0.0322213
0.0479893
0.0639797
0.08012
0.0963381
0.112562
0.128717
0.144729
0.16052
0.17601
0.191115
0.205747
0.219814
0.23322
0.245866
0.257649
0.268464
0.278208
0.286777
0.294073
0.300005
0.304493
0.307471
0.308888
0.308711
0.306973
0.303753
0.298541
0.290516
-0.122226
-0.130805
-0.136353
-0.13976
-0.141593
-0.141784
-0.140316
-0.137235
-0.132607
-0.126505
-0.119013
-0.110222
-0.10023
-0.0891348
-0.0770357
-0.0640308
-0.0502162
-0.0356846
-0.0205256
-0.00482528
0.0113339
0.0278727
0.0447145
0.0617848
0.0790106
0.0963193
0.113638
0.130894
0.14801
0.164909
0.181507
0.197717
0.213449
0.228604
0.243081
0.25677
0.269559
0.281331
0.291969
0.301355
0.309375
0.315921
0.320898
0.324228
0.325846
0.325712
0.323859
0.320373
0.314701
0.305953
-0.139203
-0.148575
-0.154622
-0.158313
-0.160266
-0.160409
-0.158727
-0.15528
-0.150146
-0.143415
-0.135186
-0.125568
-0.114672
-0.102611
-0.089497
-0.075439
-0.0605421
-0.0449067
-0.0286284
-0.0117975
0.0055002
0.0231834
0.0411744
0.0593985
0.0777827
0.0962551
0.114744
0.133175
0.151474
0.169561
0.187353
0.20476
0.221687
0.238031
0.253683
0.268526
0.282434
0.295279
0.306926
0.31724
0.326088
0.333344
0.338892
0.342636
0.344497
0.344423
0.342446
0.33866
0.332462
0.322885
-0.157811
-0.168096
-0.174715
-0.178727
-0.180808
-0.180883
-0.178942
-0.175061
-0.169338
-0.16188
-0.152808
-0.142251
-0.130338
-0.117198
-0.102959
-0.0877402
-0.0716584
-0.0548216
-0.0373314
-0.0192825
-0.000763278
0.0181435
0.0373598
0.0568115
0.0764267
0.0961353
0.115867
0.13555
0.15511
0.174468
0.193542
0.212239
0.230462
0.248103
0.265045
0.281162
0.296316
0.310363
0.323151
0.334523
0.344324
0.352403
0.358621
0.362858
0.365015
0.365024
0.362915
0.358789
0.351985
0.34145
-0.178209
-0.189551
-0.19683
-0.201205
-0.203421
-0.203399
-0.201141
-0.196744
-0.190327
-0.182026
-0.171986
-0.16036
-0.1473
-0.132953
-0.117464
-0.100967
-0.0835893
-0.0654468
-0.0466474
-0.0272897
-0.00746417
0.0127459
0.0332633
0.0540154
0.074933
0.0959487
0.116995
0.138004
0.158903
0.179616
0.20006
0.220144
0.239768
0.258819
0.277175
0.294699
0.31124
0.326637
0.340717
0.353299
0.364201
0.373241
0.380249
0.385077
0.387598
0.387724
0.385476
0.380963
0.373458
0.361804
-0.200576
-0.213159
-0.221204
-0.225989
-0.228342
-0.228185
-0.225534
-0.220514
-0.213277
-0.203991
-0.192834
-0.179987
-0.165628
-0.149929
-0.133052
-0.115147
-0.0963527
-0.0767935
-0.056583
-0.0358232
-0.0146056
0.00698723
0.0288801
0.0510034
0.0732919
0.0956826
0.118113
0.140519
0.162832
0.184982
0.206886
0.228455
0.249589
0.270172
0.290074
0.309149
0.327234
0.344148
0.359695
0.373666
0.385844
0.396013
0.403963
0.409506
0.412481
0.41277
0.410381
0.405427
0.397102
0.384131
-0.225127
-0.239176
-0.248117
-0.253367
-0.255853
-0.255505
-0.252361
-0.246583
-0.238368
-0.227925
-0.215471
-0.201223
-0.185392
-0.168175
-0.149755
-0.1303
-0.109958
-0.0888646
-0.0671373
-0.0448801
-0.0221846
0.000868962
0.0242089
0.0477706
0.0714944
0.0953235
0.119202
0.143072
0.166873
0.190537
0.213989
0.237143
0.259898
0.282137
0.303728
0.324513
0.344316
0.362936
0.380152
0.395721
0.409387
0.420889
0.429969
0.436388
0.439937
0.440455
0.437929
0.432474
0.423184
0.408645
-0.252115
-0.267918
-0.277912
-0.283685
-0.28629
-0.285671
-0.281898
-0.27519
-0.265798
-0.253985
-0.240018
-0.224159
-0.206654
-0.18773
-0.167594
-0.146431
-0.124403
-0.101652
-0.0782986
-0.0544483
-0.0301903
-0.00560112
0.0192533
0.0443152
0.0695325
0.094857
0.120241
0.145637
0.170991
0.196244
0.221329
0.246163
0.270652
0.294679
0.318107
0.340773
0.362486
0.383026
0.402143
0.419557
0.434967
0.448054
0.458502
0.466004
0.470286
0.471129
0.468485
0.462463
0.452031
0.435604
-0.28185
-0.299773
-0.311012
-0.317369
-0.320058
-0.319049
-0.314467
-0.306603
-0.295783
-0.282339
-0.266599
-0.248878
-0.229464
-0.208619
-0.186576
-0.163535
-0.139672
-0.115133
-0.0900423
-0.0645037
-0.038602
-0.0124072
0.0140228
0.0406393
0.0674005
0.0942688
0.121208
0.148181
0.175146
0.202056
0.228851
0.255459
0.281792
0.307738
0.333159
0.357889
0.381724
0.404424
0.425709
0.44526
0.462719
0.477704
0.489819
0.498675
0.503908
0.505216
0.502499
0.495841
0.48405
0.465323
-0.314721
-0.33523
-0.347947
-0.354942
-0.357646
-0.356077
-0.350438
-0.341124
-0.328557
-0.313157
-0.29533
-0.275451
-0.253858
-0.23085
-0.206685
-0.181582
-0.155725
-0.129266
-0.102327
-0.0750084
-0.0473868
-0.0195235
0.0085344
0.0367502
0.065095
0.0935445
0.122076
0.150668
0.179291
0.207912
0.236487
0.264955
0.293238
0.321233
0.348808
0.375793
0.401979
0.427106
0.450866
0.472894
0.492772
0.51004
0.524206
0.53477
0.541252
0.543233
0.540526
0.533172
0.519759
0.498205
-0.35123
-0.374921
-0.38939
-0.397059
-0.399652
-0.397271
-0.390239
-0.379086
-0.364366
-0.346611
-0.326316
-0.30393
-0.279846
-0.254401
-0.22788
-0.200517
-0.172502
-0.143988
-0.115093
-0.0859068
-0.0564974
-0.0269126
0.00281436
0.032662
0.0626169
0.0926711
0.122819
0.153055
0.183369
0.213744
0.244154
0.274555
0.304885
0.335054
0.364941
0.394381
0.423162
0.451011
0.477592
0.502495
0.525237
0.545264
0.561967
0.574709
0.582851
0.585809
0.583267
0.575181
0.559834
0.534776
-0.392045
-0.419675
-0.436209
-0.444543
-0.446809
-0.443249
-0.434356
-0.420854
-0.403464
-0.382855
-0.359634
-0.334331
-0.307399
-0.279214
-0.250082
-0.22025
-0.189909
-0.159207
-0.128252
-0.0971222
-0.0658684
-0.0345224
-0.00309951
0.0283969
0.0599725
0.0916384
0.123409
0.155298
0.187317
0.219471
0.251753
0.284144
0.316603
0.34906
0.381411
0.413505
0.445135
0.476025
0.505816
0.534054
0.560188
0.58356
0.603423
0.618963
0.62933
0.633716
0.631604
0.622806
0.605173
0.57575
-0.438082
-0.470603
-0.489538
-0.49844
-0.500016
-0.494735
-0.483341
-0.466813
-0.446091
-0.422016
-0.395319
-0.366623
-0.336438
-0.305176
-0.273163
-0.240646
-0.207812
-0.174796
-0.141691
-0.108552
-0.0754133
-0.042283
-0.00915514
0.0239888
0.0571764
0.0904412
0.12382
0.15735
0.191067
0.225001
0.259172
0.293588
0.328235
0.363074
0.398026
0.432966
0.467704
0.501969
0.535395
0.567493
0.597642
0.625077
0.648889
0.668044
0.681423
0.687899
0.686665
0.677283
0.656986
0.622122
-0.490626
-0.52921
-0.550872
-0.560081
-0.560376
-0.552578
-0.537795
-0.517351
-0.492458
-0.464162
-0.433336
-0.400696
-0.366808
-0.332109
-0.296931
-0.261514
-0.226029
-0.190587
-0.155256
-0.120065
-0.0850201
-0.0501036
-0.0152833
0.0194849
0.0542538
0.0890819
0.124032
0.159166
0.194549
0.230238
0.266285
0.302731
0.339599
0.376885
0.41455
0.452507
0.4906
0.528584
0.566098
0.60264
0.637532
0.669898
0.698651
0.722498
0.739969
0.74951
0.749881
0.740246
0.716934
0.675307
-0.551507
-0.597568
-0.622195
-0.631165
-0.629225
-0.617749
-0.598353
-0.572819
-0.542696
-0.509262
-0.473542
-0.436336
-0.398253
-0.359739
-0.321114
-0.282594
-0.244317
-0.20636
-0.168753
-0.131492
-0.0945471
-0.0578688
-0.0213942
0.0149497
0.0512439
0.0875745
0.124031
0.160707
0.197693
0.235082
0.27296
0.311407
0.350488
0.390248
0.430701
0.471812
0.513481
0.555513
0.597584
0.639203
0.679663
0.717992
0.752922
0.782863
0.805909
0.819935
0.823078
0.813868
0.787309
0.737343
-0.623365
-0.678555
-0.706153
-0.713849
-0.708164
-0.691314
-0.665628
-0.63347
-0.596792
-0.557122
-0.515627
-0.473172
-0.430377
-0.387672
-0.345335
-0.303536
-0.262361
-0.221836
-0.18194
-0.142625
-0.103819
-0.0654346
-0.0273739
0.0104684
0.0482038
0.0859479
0.12382
0.161943
0.20044
0.239439
0.279064
0.31944
0.360683
0.402895
0.446156
0.490506
0.535923
0.582296
0.629378
0.676732
0.723667
0.76916
0.811778
0.849616
0.880251
0.900814
0.908565
0.901049
0.871303
0.811193
-0.710054
-0.776205
-0.806284
-0.810846
-0.799049
-0.774372
-0.740109
-0.699346
-0.654485
-0.607293
-0.559043
-0.510617
-0.4626
-0.415356
-0.369088
-0.323887
-0.279762
-0.236666
-0.194517
-0.15321
-0.112624
-0.0726263
-0.0330822
0.00614919
0.0452112
0.0842502
0.123416
0.162861
0.202743
0.243224
0.284473
0.326661
0.369959
0.41454
0.460562
0.508161
0.557425
0.608363
0.660856
0.714587
0.768957
0.822961
0.875068
0.923079
0.963998
0.994032
1.00923
1.00565
0.973387
0.90119
-0.817267
-0.896225
-0.92731
-0.925507
-0.903926
-0.867898
-0.821981
-0.770101
-0.715106
-0.658943
-0.602902
-0.547797
-0.494101
-0.442049
-0.391717
-0.343074
-0.296025
-0.25043
-0.20613
-0.162949
-0.120712
-0.079239
-0.0383528
0.00212335
0.0423653
0.0825498
0.122856
0.163467
0.204574
0.246375
0.28908
0.332911
0.378101
0.424897
0.473551
0.524316
0.57742
0.633037
0.691239
0.751915
0.814661
0.878621
0.942289
1.00327
1.05802
1.10165
1.12863
1.13281
1.09987
1.01374
-0.953621
-1.04679
-1.0755
-1.06182
-1.02482
-0.972451
-0.91082
-0.844729
-0.777364
-0.710689
-0.645857
-0.583469
-0.523774
-0.466789
-0.412397
-0.360402
-0.310567
-0.262642
-0.216371
-0.171505
-0.127806
-0.0850433
-0.0429983
-0.00145841
0.0397838
0.0809341
0.122199
0.16379
0.205929
0.248849
0.292801
0.338057
0.384914
0.433697
0.484758
0.538492
0.595294
0.65555
0.719592
0.787622
0.859574
0.934927
1.01243
1.0897
1.1628
1.22572
1.271
1.28933
1.25975
1.15849
-1.13263
-1.23973
-1.25905
-1.22424
-1.16329
-1.08765
-1.00512
-0.921186
-0.83906
-0.760413
-0.685985
-0.615958
-0.550195
-0.488387
-0.430148
-0.375065
-0.322732
-0.272765
-0.224804
-0.17852
-0.133611
-0.0897989
-0.0468225
-0.0044368
0.0375939
0.0795004
0.121515
0.163873
0.206822
0.250627
0.295578
0.341992
0.390231
0.4407
0.493827
0.55021
0.610406
0.675057
0.744833
0.820361
0.902096
0.990106
1.08372
1.18103
1.27805
1.36795
1.44112
1.48409
1.46599
1.35051
-1.37674
-1.49244
-1.48825
-1.41703
-1.3195
-1.21131
-1.10159
-0.995887
-0.896776
-0.805082
-0.720714
-0.643143
-0.571649
-0.505473
-0.443881
-0.386202
-0.331837
-0.280256
-0.230995
-0.183647
-0.137849
-0.0932786
-0.0496406
-0.00666191
0.0359163
0.0783451
0.120875
0.163762
0.207275
0.251703
0.297368
0.344631
0.393912
0.445717
0.500399
0.558998
0.622095
0.690646
0.765726
0.848504
0.940151
1.04164
1.15339
1.27457
1.40204
1.52888
1.64378
1.72825
1.73745
1.61462
-1.72576
-1.83053
-1.77478
-1.64237
-1.49029
-1.33786
-1.19409
-1.06307
-0.945553
-0.840632
-0.746824
-0.662523
-0.586221
-0.51659
-0.452492
-0.392975
-0.337241
-0.284625
-0.234566
-0.186589
-0.140286
-0.0952978
-0.0513054
-0.00801624
0.0348438
0.077539
0.120332
0.163491
0.2073
0.252065
0.29813
0.345885
0.39579
0.448387
0.5043
0.564408
0.629673
0.70132
0.780852
0.870069
0.971045
1.08602
1.21705
1.36541
1.53017
1.70611
1.88193
2.03465
2.10179
1.99425
-2.25167
-2.29129
-2.12955
-1.89705
-1.66627
-1.45641
-1.27256
-1.11439
-0.978848
-0.862138
-0.760693
-0.671481
-0.592038
-0.520403
-0.455031
-0.394706
-0.33846
-0.28552
-0.235259
-0.187158
-0.14078
-0.0957504
-0.0517373
-0.00844081
0.0344188
0.0771103
0.1199
0.163061
0.206883
0.251679
0.297804
0.345667
0.39575
0.448638
0.505052
0.56592
0.6324
0.705983
0.788592
0.882687
0.991371
1.11844
1.26828
1.44543
1.65328
1.89169
2.15367
2.41576
2.59874
2.56636
-3.08373
-2.92341
-2.55877
-2.17004
-1.8306
-1.55062
-1.32371
-1.13996
-0.989712
-0.864889
-0.759226
-0.668034
-0.587858
-0.516158
-0.451056
-0.391147
-0.335366
-0.282888
-0.233064
-0.185367
-0.13936
-0.0946699
-0.0509718
-0.00797073
0.0346076
0.0770267
0.119549
0.162441
0.20599
0.250507
0.296343
0.343907
0.393688
0.446284
0.50245
0.563157
0.629672
0.703676
0.787428
0.883979
0.997449
1.13336
1.29896
1.50337
1.75715
2.07071
2.4497
2.87965
3.2794
3.46542
-4.51481
-3.76491
-3.03599
-2.42607
-1.95065
-1.59523
-1.33025
-1.12883
-0.971613
-0.84522
-0.740526
-0.65133
-0.573424
-0.503912
-0.440775
-0.382571
-0.328245
-0.277004
-0.228233
-0.181441
-0.136221
-0.0922279
-0.0491579
-0.00673499
0.0352987
0.0771923
0.119194
0.161559
0.20456
0.248492
0.293691
0.340549
0.389532
0.441217
0.496337
0.555847
0.621019
0.693588
0.775965
0.871562
0.98526
1.12411
1.29831
1.52247
1.81736
2.21139
2.73525
3.40024
4.18398
4.9937
-7.36988
-4.78063
-3.37792
-2.51021
-1.92
-1.5224
-1.25069
-1.05623
-0.909834
-0.794324
-0.699219
-0.617995
-0.546527
-0.482153
-0.423104
-0.368163
-0.316465
-0.267366
-0.220368
-0.175069
-0.131132
-0.0882646
-0.0462054
-0.00471243
0.0364436
0.0774866
0.118641
0.160139
0.202225
0.245168
0.289269
0.334873
0.382393
0.432333
0.485329
0.542211
0.60409
0.672507
0.749653
0.838733
0.944554
1.0745
1.24015
1.46001
1.76487
2.20579
2.85343
3.79399
5.28251
7.98518
-12.2476
-5.87358
-3.22805
-2.15418
-1.58063
-1.2444
-1.03639
-0.89474
-0.7885
-0.702607
-0.629188
-0.563882
-0.504191
-0.448629
-0.396266
-0.346484
-0.298839
-0.252992
-0.208658
-0.165593
-0.123571
-0.0823873
-0.0418435
-0.0017502
0.0380788
0.0778292
0.117688
0.157852
0.198525
0.239928
0.282303
0.325921
0.371094
0.418187
0.467647
0.520032
0.576071
0.63676
0.703513
0.77843
0.864769
0.967803
1.09648
1.26703
1.51153
1.89434
2.53315
3.70167
6.46266
12.9575
)
;

boundaryField
{
    movingWall
    {
        type            zeroGradient;
    }
    fixedWalls
    {
        type            zeroGradient;
    }
    frontAndBack
    {
        type            empty;
    }
}


// ************************************************************************* //
