/*--------------------------------*- C++ -*----------------------------------*\
  =========                 |
  \\      /  F ield         | OpenFOAM: The Open Source CFD Toolbox
   \\    /   O peration     | Website:  https://openfoam.org
    \\  /    A nd           | Version:  7
     \\/     M anipulation  |
\*---------------------------------------------------------------------------*/
FoamFile
{
    version     2.0;
    format      ascii;
    class       volVectorField;
    location    "0.0722";
    object      U;
}
// * * * * * * * * * * * * * * * * * * * * * * * * * * * * * * * * * * * * * //

dimensions      [0 1 -1 0 0 0 0];

internalField   nonuniform List<vector> 
2500
(
(-0.293795 0.153717 0)
(-0.397925 0.128717 0)
(-0.577966 0.0737927 0)
(-0.696272 0.040879 0)
(-0.765282 0.0234019 0)
(-0.809651 0.0141518 0)
(-0.840282 0.0091691 0)
(-0.862422 0.0063637 0)
(-0.879102 0.00467696 0)
(-0.892106 0.003589 0)
(-0.902506 0.00284172 0)
(-0.91098 0.00230114 0)
(-0.917982 0.00189343 0)
(-0.923823 0.00157527 0)
(-0.928727 0.0013197 0)
(-0.932855 0.00110904 0)
(-0.936326 0.00093119 0)
(-0.939231 0.000777593 0)
(-0.941636 0.00064201 0)
(-0.943592 0.000519775 0)
(-0.945137 0.000407316 0)
(-0.946299 0.000301828 0)
(-0.947097 0.000201052 0)
(-0.947544 0.000103114 0)
(-0.947647 6.40307e-06 0)
(-0.947408 -9.05698e-05 0)
(-0.946824 -0.00018917 0)
(-0.945888 -0.000290793 0)
(-0.944589 -0.000396933 0)
(-0.942908 -0.000509286 0)
(-0.940823 -0.000629876 0)
(-0.938303 -0.000761221 0)
(-0.935309 -0.000906573 0)
(-0.931788 -0.00107025 0)
(-0.927674 -0.00125816 0)
(-0.92288 -0.00147859 0)
(-0.917288 -0.00174348 0)
(-0.910741 -0.00207077 0)
(-0.90302 -0.00248843 0)
(-0.893818 -0.00304238 0)
(-0.882684 -0.00381221 0)
(-0.868938 -0.00494343 0)
(-0.851495 -0.00671487 0)
(-0.828557 -0.00967792 0)
(-0.797109 -0.0149202 0)
(-0.752005 -0.0244959 0)
(-0.682498 -0.0421408 0)
(-0.564896 -0.0746063 0)
(-0.389293 -0.128115 0)
(-0.290201 -0.152367 0)
(-0.00515727 0.302897 0)
(-0.0270658 0.307345 0)
(-0.171368 0.217814 0)
(-0.308304 0.146625 0)
(-0.417316 0.0992741 0)
(-0.502669 0.0690325 0)
(-0.569199 0.0497954 0)
(-0.621308 0.037266 0)
(-0.662673 0.0287905 0)
(-0.696016 0.0228215 0)
(-0.723269 0.018457 0)
(-0.745806 0.0151576 0)
(-0.764616 0.0125889 0)
(-0.780419 0.0105362 0)
(-0.793746 0.00885617 0)
(-0.804994 0.00745022 0)
(-0.814465 0.00624838 0)
(-0.822385 0.00519977 0)
(-0.828929 0.00426652 0)
(-0.834228 0.00341984 0)
(-0.838381 0.00263732 0)
(-0.841464 0.00190119 0)
(-0.843528 0.00119696 0)
(-0.844609 0.000512462 0)
(-0.844727 -0.000162855 0)
(-0.843889 -0.000838589 0)
(-0.842089 -0.00152386 0)
(-0.83931 -0.00222788 0)
(-0.835522 -0.00296047 0)
(-0.83068 -0.00373267 0)
(-0.824725 -0.00455754 0)
(-0.817579 -0.00545113 0)
(-0.809141 -0.00643382 0)
(-0.79928 -0.00753219 0)
(-0.787829 -0.00878177 0)
(-0.77457 -0.010231 0)
(-0.759219 -0.0119477 0)
(-0.7414 -0.0140285 0)
(-0.720611 -0.0166157 0)
(-0.696172 -0.0199243 0)
(-0.66715 -0.0242902 0)
(-0.632251 -0.0302545 0)
(-0.589667 -0.0387136 0)
(-0.536884 -0.0511802 0)
(-0.470585 -0.0701829 0)
(-0.38692 -0.0996705 0)
(-0.281698 -0.145066 0)
(-0.151426 -0.212569 0)
(-0.0163977 -0.298146 0)
(-0.000975413 -0.294652 0)
(0.0321089 0.264052 0)
(0.0563328 0.362381 0)
(-0.00375578 0.325073 0)
(-0.0961438 0.260687 0)
(-0.192685 0.201079 0)
(-0.28168 0.154089 0)
(-0.359004 0.119192 0)
(-0.424438 0.0936354 0)
(-0.479331 0.0747842 0)
(-0.525359 0.0606511 0)
(-0.564068 0.049841 0)
(-0.596755 0.041396 0)
(-0.624459 0.0346586 0)
(-0.648002 0.0291723 0)
(-0.668023 0.0246152 0)
(-0.685026 0.0207559 0)
(-0.699399 0.017425 0)
(-0.711448 0.0144961 0)
(-0.721411 0.0118733 0)
(-0.729471 0.00948251 0)
(-0.735769 0.00726527 0)
(-0.740412 0.0051747 0)
(-0.743476 0.00317223 0)
(-0.745014 0.00122528 0)
(-0.745056 -0.000694604 0)
(-0.743616 -0.00261328 0)
(-0.740688 -0.0045554 0)
(-0.73625 -0.00654575 0)
(-0.730262 -0.00861058 0)
(-0.722664 -0.0107792 0)
(-0.713378 -0.0130858 0)
(-0.702299 -0.0155721 0)
(-0.689293 -0.0182898 0)
(-0.67419 -0.0213059 0)
(-0.656776 -0.0247075 0)
(-0.636778 -0.0286112 0)
(-0.613849 -0.033175 0)
(-0.587551 -0.0386164 0)
(-0.557323 -0.0452399 0)
(-0.522457 -0.0534779 0)
(-0.482061 -0.0639518 0)
(-0.435046 -0.0775602 0)
(-0.380149 -0.0955949 0)
(-0.316075 -0.119864 0)
(-0.241957 -0.152705 0)
(-0.158486 -0.196447 0)
(-0.06997 -0.251261 0)
(0.0122952 -0.30983 0)
(0.0620573 -0.343141 0)
(0.0330448 -0.249855 0)
(0.0271375 0.205278 0)
(0.063652 0.357991 0)
(0.0548531 0.375979 0)
(0.007309 0.338991 0)
(-0.060587 0.28649 0)
(-0.134497 0.235748 0)
(-0.206258 0.192523 0)
(-0.272086 0.157506 0)
(-0.330706 0.129643 0)
(-0.382102 0.10752 0)
(-0.426807 0.0898396 0)
(-0.465536 0.0755527 0)
(-0.499012 0.0638499 0)
(-0.527888 0.0541193 0)
(-0.552731 0.0459005 0)
(-0.574011 0.0388454 0)
(-0.592118 0.0326892 0)
(-0.607367 0.027228 0)
(-0.620013 0.022303 0)
(-0.630257 0.0177892 0)
(-0.638257 0.0135862 0)
(-0.644136 0.0096124 0)
(-0.647984 0.00579993 0)
(-0.649863 0.00209102 0)
(-0.649813 -0.00156504 0)
(-0.647852 -0.00521447 0)
(-0.643978 -0.0089012 0)
(-0.63817 -0.0126691 0)
(-0.630389 -0.0165644 0)
(-0.620574 -0.0206379 0)
(-0.608643 -0.0249481 0)
(-0.594489 -0.029565 0)
(-0.577978 -0.0345744 0)
(-0.558942 -0.0400843 0)
(-0.537175 -0.0462326 0)
(-0.512426 -0.0531982 0)
(-0.484389 -0.0612153 0)
(-0.4527 -0.0705935 0)
(-0.416935 -0.0817432 0)
(-0.376616 -0.0952091 0)
(-0.331244 -0.111708 0)
(-0.28038 -0.132158 0)
(-0.223811 -0.157676 0)
(-0.161896 -0.189445 0)
(-0.0961892 -0.22827 0)
(-0.0304937 -0.273345 0)
(0.0275475 -0.319326 0)
(0.0649471 -0.35066 0)
(0.0657565 -0.331798 0)
(0.0268798 -0.189836 0)
(0.0184328 0.163562 0)
(0.0529465 0.331949 0)
(0.0680698 0.387666 0)
(0.0519706 0.380676 0)
(0.0118251 0.345273 0)
(-0.0416371 0.301021 0)
(-0.100242 0.257475 0)
(-0.158777 0.218484 0)
(-0.214292 0.185049 0)
(-0.265354 0.156925 0)
(-0.31144 0.133407 0)
(-0.352531 0.113709 0)
(-0.388858 0.0971029 0)
(-0.420753 0.082971 0)
(-0.448576 0.0708069 0)
(-0.472671 0.0602029 0)
(-0.493346 0.0508326 0)
(-0.510872 0.0424348 0)
(-0.525475 0.0347995 0)
(-0.537342 0.0277569 0)
(-0.546627 0.0211679 0)
(-0.55345 0.0149175 0)
(-0.557902 0.00890865 0)
(-0.56005 0.00305804 0)
(-0.559939 -0.00270795 0)
(-0.557591 -0.0084565 0)
(-0.553012 -0.0142513 0)
(-0.546187 -0.0201556 0)
(-0.537084 -0.0262349 0)
(-0.525654 -0.0325605 0)
(-0.51183 -0.039213 0)
(-0.495523 -0.0462865 0)
(-0.476627 -0.0538941 0)
(-0.455012 -0.0621743 0)
(-0.430526 -0.0712991 0)
(-0.402994 -0.0814834 0)
(-0.372228 -0.0929975 0)
(-0.338028 -0.10618 0)
(-0.300211 -0.121451 0)
(-0.25865 -0.13932 0)
(-0.21335 -0.160382 0)
(-0.164577 -0.185265 0)
(-0.113083 -0.2145 0)
(-0.0604418 -0.248195 0)
(-0.00954194 -0.285349 0)
(0.0348452 -0.322487 0)
(0.0655454 -0.351203 0)
(0.073426 -0.354361 0)
(0.0532088 -0.30168 0)
(0.0179168 -0.148245 0)
(0.0119255 0.134859 0)
(0.0406184 0.301239 0)
(0.0646957 0.37912 0)
(0.0673985 0.397137 0)
(0.0485312 0.380901 0)
(0.0141616 0.348223 0)
(-0.0294306 0.309869 0)
(-0.0772335 0.271633 0)
(-0.125715 0.23623 0)
(-0.172627 0.204648 0)
(-0.216669 0.176988 0)
(-0.257177 0.152941 0)
(-0.293882 0.132045 0)
(-0.326753 0.113816 0)
(-0.355883 0.0978005 0)
(-0.381432 0.0836018 0)
(-0.403579 0.0708795 0)
(-0.422504 0.0593476 0)
(-0.438373 0.0487667 0)
(-0.451333 0.0389368 0)
(-0.461512 0.0296902 0)
(-0.469013 0.0208848 0)
(-0.473918 0.0123993 0)
(-0.476292 0.00412793 0)
(-0.476179 -0.00402323 0)
(-0.473607 -0.01214 0)
(-0.468587 -0.0203037 0)
(-0.461117 -0.028594 0)
(-0.451182 -0.0370925 0)
(-0.438751 -0.0458864 0)
(-0.423783 -0.0550719 0)
(-0.406228 -0.0647587 0)
(-0.386024 -0.0750751 0)
(-0.363103 -0.0861729 0)
(-0.337398 -0.098234 0)
(-0.308845 -0.111476 0)
(-0.277404 -0.126158 0)
(-0.243077 -0.142581 0)
(-0.205946 -0.161088 0)
(-0.166233 -0.182037 0)
(-0.124389 -0.205755 0)
(-0.0812261 -0.232426 0)
(-0.0381069 -0.261876 0)
(0.00282026 -0.293172 0)
(0.0383838 -0.323928 0)
(0.064292 -0.349176 0)
(0.0753764 -0.359752 0)
(0.0669017 -0.340433 0)
(0.040081 -0.268984 0)
(0.0114453 -0.119978 0)
(0.00783517 0.114439 0)
(0.0308289 0.272285 0)
(0.0566667 0.361592 0)
(0.0693281 0.397913 0)
(0.0649542 0.398961 0)
(0.0459104 0.379255 0)
(0.0161855 0.349044 0)
(-0.0202301 0.314855 0)
(-0.0599987 0.280475 0)
(-0.100628 0.247882 0)
(-0.140402 0.217946 0)
(-0.178212 0.190905 0)
(-0.213393 0.166661 0)
(-0.245578 0.144956 0)
(-0.274602 0.125472 0)
(-0.30042 0.107886 0)
(-0.32306 0.0918941 0)
(-0.34259 0.0772202 0)
(-0.359094 0.0636228 0)
(-0.372662 0.0508915 0)
(-0.383378 0.0388439 0)
(-0.391318 0.0273219 0)
(-0.396547 0.0161875 0)
(-0.399118 0.00531912 0)
(-0.399074 -0.00539224 0)
(-0.396444 -0.0160464 0)
(-0.391248 -0.0267375 0)
(-0.383498 -0.0375569 0)
(-0.373197 -0.0485965 0)
(-0.360342 -0.0599523 0)
(-0.344927 -0.0717276 0)
(-0.326945 -0.0840365 0)
(-0.306393 -0.0970075 0)
(-0.283277 -0.110787 0)
(-0.257623 -0.125542 0)
(-0.22949 -0.141459 0)
(-0.198987 -0.158746 0)
(-0.166308 -0.177617 0)
(-0.131767 -0.198275 0)
(-0.0958627 -0.220863 0)
(-0.059357 -0.245388 0)
(-0.0233756 -0.271574 0)
(0.0104719 -0.298626 0)
(0.0399869 -0.324849 0)
(0.0623637 -0.347078 0)
(0.0743974 -0.35991 0)
(0.0730583 -0.354853 0)
(0.0568573 -0.31974 0)
(0.0299349 -0.239395 0)
(0.00743498 -0.10013 0)
(0.00538482 0.0994653 0)
(0.0237874 0.246885 0)
(0.0483532 0.340883 0)
(0.065599 0.389557 0)
(0.0703647 0.404638 0)
(0.0626295 0.397222 0)
(0.0444255 0.376188 0)
(0.018514 0.34793 0)
(-0.0123621 0.316694 0)
(-0.0458645 0.285088 0)
(-0.0801735 0.254591 0)
(-0.113958 0.225939 0)
(-0.14629 0.199413 0)
(-0.176553 0.175024 0)
(-0.204359 0.152639 0)
(-0.229479 0.132057 0)
(-0.25179 0.113047 0)
(-0.271243 0.0953802 0)
(-0.287833 0.0788378 0)
(-0.301579 0.0632198 0)
(-0.312516 0.0483457 0)
(-0.320684 0.034054 0)
(-0.326123 0.0202006 0)
(-0.328871 0.00665619 0)
(-0.328965 -0.00669603 0)
(-0.326434 -0.0199634 0)
(-0.321307 -0.0332467 0)
(-0.313607 -0.0466422 0)
(-0.30336 -0.0602454 0)
(-0.290592 -0.0741528 0)
(-0.275333 -0.088465 0)
(-0.257624 -0.103289 0)
(-0.237523 -0.118738 0)
(-0.21511 -0.134937 0)
(-0.190501 -0.152016 0)
(-0.163867 -0.170107 0)
(-0.135449 -0.189336 0)
(-0.105593 -0.209801 0)
(-0.0747851 -0.231538 0)
(-0.043702 -0.254462 0)
(-0.0132672 -0.278275 0)
(0.0152885 -0.302317 0)
(0.0403808 -0.325346 0)
(0.0600733 -0.345232 0)
(0.0721967 -0.358557 0)
(0.074689 -0.360175 0)
(0.0662104 -0.342889 0)
(0.0472217 -0.297552 0)
(0.0226956 -0.214213 0)
(0.0050416 -0.0857898 0)
(0.0038982 0.0880872 0)
(0.0188095 0.225102 0)
(0.0410781 0.319846 0)
(0.0599062 0.376325 0)
(0.0700636 0.402105 0)
(0.0702162 0.405341 0)
(0.0609842 0.393292 0)
(0.0440199 0.371738 0)
(0.0213514 0.344917 0)
(-0.00504946 0.315734 0)
(-0.0334774 0.286065 0)
(-0.0625589 0.257036 0)
(-0.0912424 0.229265 0)
(-0.118754 0.203029 0)
(-0.144542 0.178399 0)
(-0.168229 0.155318 0)
(-0.189563 0.133659 0)
(-0.208386 0.113263 0)
(-0.224603 0.093959 0)
(-0.238165 0.0755752 0)
(-0.249053 0.0579492 0)
(-0.257266 0.0409294 0)
(-0.262816 0.0243765 0)
(-0.265725 0.00816306 0)
(-0.266016 -0.0078275 0)
(-0.26372 -0.0237026 0)
(-0.25887 -0.0395621 0)
(-0.251503 -0.0555007 0)
(-0.241663 -0.0716093 0)
(-0.229404 -0.0879768 0)
(-0.214794 -0.104692 0)
(-0.197917 -0.121843 0)
(-0.178887 -0.139519 0)
(-0.15785 -0.157805 0)
(-0.135001 -0.176782 0)
(-0.110599 -0.19651 0)
(-0.084985 -0.217022 0)
(-0.0586111 -0.238287 0)
(-0.032066 -0.260178 0)
(-0.00611027 -0.282403 0)
(0.0182934 -0.304416 0)
(0.0399597 -0.325281 0)
(0.0574896 -0.343501 0)
(0.06934 -0.356789 0)
(0.0740054 -0.361831 0)
(0.0703716 -0.354088 0)
(0.0582355 -0.327782 0)
(0.0390401 -0.276278 0)
(0.0175801 -0.193206 0)
(0.00358691 -0.0750852 0)
(0.00295841 0.0791283 0)
(0.0152413 0.206478 0)
(0.035054 0.299778 0)
(0.0538848 0.360822 0)
(0.0669688 0.394407 0)
(0.0723768 0.406382 0)
(0.0698223 0.402471 0)
(0.0600901 0.387634 0)
(0.0445356 0.365815 0)
(0.0246908 0.339953 0)
(0.00202561 0.312125 0)
(-0.0221713 0.283721 0)
(-0.0468342 0.255618 0)
(-0.071118 0.22833 0)
(-0.0943748 0.202119 0)
(-0.116121 0.177081 0)
(-0.136004 0.153206 0)
(-0.153775 0.130422 0)
(-0.169261 0.108619 0)
(-0.182348 0.0876709 0)
(-0.192964 0.0674475 0)
(-0.20107 0.0478188 0)
(-0.206648 0.0286611 0)
(-0.209698 0.00985792 0)
(-0.210234 -0.00869844 0)
(-0.208281 -0.0271077 0)
(-0.203875 -0.0454621 0)
(-0.197065 -0.0638468 0)
(-0.187911 -0.0823413 0)
(-0.176491 -0.101019 0)
(-0.162904 -0.119949 0)
(-0.147274 -0.139193 0)
(-0.129757 -0.158804 0)
(-0.110556 -0.178822 0)
(-0.0899233 -0.199267 0)
(-0.0681817 -0.220124 0)
(-0.0457375 -0.241328 0)
(-0.0231002 -0.262728 0)
(-0.000900674 -0.284053 0)
(0.0200916 -0.304844 0)
(0.0389604 -0.324379 0)
(0.0546532 -0.341561 0)
(0.0660247 -0.354792 0)
(0.0719391 -0.36183 0)
(0.0714619 -0.359664 0)
(0.0641686 -0.344478 0)
(0.0505314 -0.311787 0)
(0.0323694 -0.256881 0)
(0.0139058 -0.175746 0)
(0.00266382 -0.0668377 0)
(0.00233304 0.0718616 0)
(0.0126162 0.190483 0)
(0.0301396 0.281181 0)
(0.0481899 0.344571 0)
(0.0626368 0.383643 0)
(0.0713808 0.402527 0)
(0.0736141 0.405634 0)
(0.0695044 0.397075 0)
(0.0598486 0.380356 0)
(0.0457519 0.358275 0)
(0.0284011 0.33295 0)
(0.00892717 0.305912 0)
(-0.0116677 0.278223 0)
(-0.0325377 0.250578 0)
(-0.0529944 0.223408 0)
(-0.0724933 0.196951 0)
(-0.0906137 0.171316 0)
(-0.107038 0.146522 0)
(-0.12153 0.122534 0)
(-0.133922 0.0992807 0)
(-0.144095 0.0766735 0)
(-0.151972 0.054615 0)
(-0.157507 0.0330062 0)
(-0.16068 0.0117507 0)
(-0.16149 -0.00924289 0)
(-0.159959 -0.0300594 0)
(-0.156121 -0.0507762 0)
(-0.150033 -0.0714629 0)
(-0.141769 -0.0921806 0)
(-0.131424 -0.112982 0)
(-0.119122 -0.133908 0)
(-0.105015 -0.154988 0)
(-0.0892949 -0.176236 0)
(-0.0721999 -0.19764 0)
(-0.0540233 -0.219157 0)
(-0.0351249 -0.240699 0)
(-0.0159428 -0.262109 0)
(0.00299539 -0.283133 0)
(0.0210639 -0.303384 0)
(0.0375355 -0.322285 0)
(0.051591 -0.339006 0)
(0.062348 -0.352383 0)
(0.0689229 -0.360834 0)
(0.0705397 -0.362278 0)
(0.0667036 -0.354099 0)
(0.0574453 -0.333184 0)
(0.0435852 -0.296125 0)
(0.0269823 -0.239626 0)
(0.0111979 -0.161195 0)
(0.00204755 -0.0603168 0)
(0.00189476 0.0658296 0)
(0.010626 0.176649 0)
(0.0261179 0.26419 0)
(0.043031 0.328438 0)
(0.0578698 0.371221 0)
(0.0685914 0.395421 0)
(0.0741301 0.404381 0)
(0.0742481 0.401433 0)
(0.0693154 0.389597 0)
(0.0600662 0.371425 0)
(0.0474059 0.34897 0)
(0.0322758 0.323805 0)
(0.0155683 0.297094 0)
(-0.00191938 0.269665 0)
(-0.0195044 0.242081 0)
(-0.0366201 0.214705 0)
(-0.052808 0.187754 0)
(-0.0677058 0.161341 0)
(-0.0810328 0.135505 0)
(-0.0925766 0.110238 0)
(-0.102181 0.0854996 0)
(-0.109737 0.0612326 0)
(-0.115172 0.0373703 0)
(-0.118447 0.0138429 0)
(-0.119548 -0.00941768 0)
(-0.118487 -0.0324748 0)
(-0.1153 -0.0553854 0)
(-0.110045 -0.0781974 0)
(-0.102802 -0.100949 0)
(-0.0936824 -0.123665 0)
(-0.082823 -0.146358 0)
(-0.0703972 -0.169019 0)
(-0.056618 -0.191619 0)
(-0.041745 -0.214095 0)
(-0.0260917 -0.236344 0)
(-0.0100326 -0.258209 0)
(0.00598965 -0.279455 0)
(0.0214596 -0.299745 0)
(0.0357886 -0.318607 0)
(0.0483219 -0.33539 0)
(0.0583591 -0.349215 0)
(0.0651926 -0.358922 0)
(0.0681746 -0.363017 0)
(0.0668179 -0.359642 0)
(0.0609402 -0.346586 0)
(0.0508455 -0.321363 0)
(0.0374919 -0.281421 0)
(0.0226123 -0.224474 0)
(0.00914501 -0.149011 0)
(0.00161514 -0.0550588 0)
(0.00157271 0.060734 0)
(0.00907083 0.1646 0)
(0.0227872 0.248772 0)
(0.038427 0.312907 0)
(0.0530625 0.358075 0)
(0.0648149 0.386271 0)
(0.0725275 0.399997 0)
(0.075718 0.401912 0)
(0.0744499 0.394559 0)
(0.0691583 0.380203 0)
(0.0604953 0.360756 0)
(0.0492098 0.337763 0)
(0.0360625 0.312428 0)
(0.0217713 0.285659 0)
(0.00698098 0.258114 0)
(-0.00775064 0.230259 0)
(-0.0219543 0.202405 0)
(-0.0352448 0.17475 0)
(-0.0473132 0.147407 0)
(-0.0579173 0.120431 0)
(-0.0668721 0.0938359 0)
(-0.0740421 0.0676077 0)
(-0.0793335 0.0417174 0)
(-0.0826886 0.0161278 0)
(-0.0840819 -0.00920079 0)
(-0.0835165 -0.0343055 0)
(-0.081023 -0.0592176 0)
(-0.0766588 -0.0839594 0)
(-0.0705092 -0.108542 0)
(-0.0626887 -0.13296 0)
(-0.0533441 -0.157193 0)
(-0.0426579 -0.181194 0)
(-0.0308527 -0.204889 0)
(-0.0181958 -0.228168 0)
(-0.00500426 -0.250873 0)
(0.00835138 -0.272786 0)
(0.0214442 -0.293608 0)
(0.0337916 -0.312942 0)
(0.0448611 -0.330259 0)
(0.0540838 -0.344871 0)
(0.0608807 -0.355895 0)
(0.0647046 -0.362219 0)
(0.0651029 -0.362481 0)
(0.061805 -0.355062 0)
(0.0548348 -0.33813 0)
(0.0446401 -0.309729 0)
(0.0321915 -0.267963 0)
(0.019027 -0.211269 0)
(0.00754511 -0.138763 0)
(0.00129789 -0.0507583 0)
(0.00132609 0.0563738 0)
(0.00782024 0.154046 0)
(0.0199843 0.234837 0)
(0.0343233 0.298236 0)
(0.0483936 0.344822 0)
(0.0605206 0.375953 0)
(0.0695561 0.393489 0)
(0.0748875 0.399525 0)
(0.0763711 0.396171 0)
(0.0742136 0.385394 0)
(0.0688539 0.36893 0)
(0.060863 0.348248 0)
(0.050866 0.324541 0)
(0.039486 0.298753 0)
(0.0273086 0.271608 0)
(0.0148607 0.243644 0)
(0.00260119 0.215252 0)
(-0.00908102 0.186703 0)
(-0.0198642 0.15818 0)
(-0.0294887 0.129799 0)
(-0.0377504 0.101626 0)
(-0.0444947 0.0736956 0)
(-0.0496106 0.0460183 0)
(-0.0530255 0.0185926 0)
(-0.0547016 -0.00858858 0)
(-0.054633 -0.0355326 0)
(-0.0528439 -0.062242 0)
(-0.049388 -0.0887103 0)
(-0.0443489 -0.114918 0)
(-0.0378411 -0.14083 0)
(-0.0300123 -0.166389 0)
(-0.0210458 -0.191512 0)
(-0.0111631 -0.216082 0)
(-0.000627712 -0.239946 0)
(0.0102532 -0.262895 0)
(0.0211268 -0.284663 0)
(0.031596 -0.304902 0)
(0.0412233 -0.32317 0)
(0.0495409 -0.338909 0)
(0.0560679 -0.351421 0)
(0.0603379 -0.359849 0)
(0.06194 -0.363158 0)
(0.0605741 -0.360131 0)
(0.0561223 -0.349384 0)
(0.0487336 -0.329418 0)
(0.0389127 -0.298709 0)
(0.0275735 -0.255864 0)
(0.0160416 -0.199826 0)
(0.00626524 -0.130121 0)
(0.00105595 -0.047207 0)
(0.00113041 0.0526089 0)
(0.00678738 0.144763 0)
(0.0175832 0.222278 0)
(0.030644 0.28456 0)
(0.0439305 0.331866 0)
(0.0559773 0.365101 0)
(0.0656999 0.385635 0)
(0.0724323 0.395106 0)
(0.0759007 0.395243 0)
(0.0761455 0.38773 0)
(0.0734349 0.374115 0)
(0.0681852 0.355759 0)
(0.0608927 0.333812 0)
(0.0520823 0.309222 0)
(0.042269 0.282745 0)
(0.0319342 0.254971 0)
(0.0215107 0.22635 0)
(0.0113766 0.197218 0)
(0.00185272 0.167817 0)
(-0.00679494 0.138319 0)
(-0.0143522 0.108844 0)
(-0.0206524 0.0794693 0)
(-0.0255719 0.0502495 0)
(-0.0290264 0.0212199 0)
(-0.0309674 -0.00759231 0)
(-0.0313797 -0.0361624 0)
(-0.0302796 -0.0644619 0)
(-0.0277145 -0.0924541 0)
(-0.0237622 -0.120089 0)
(-0.0185323 -0.147297 0)
(-0.0121666 -0.173989 0)
(-0.00484175 -0.200044 0)
(0.00323008 -0.225309 0)
(0.011799 -0.249587 0)
(0.0205771 -0.272631 0)
(0.0292392 -0.294133 0)
(0.0374261 -0.313711 0)
(0.0447514 -0.330894 0)
(0.0508135 -0.345112 0)
(0.055214 -0.355677 0)
(0.0575848 -0.361777 0)
(0.057625 -0.362465 0)
(0.0551474 -0.356671 0)
(0.0501348 -0.343227 0)
(0.0428024 -0.320914 0)
(0.0336566 -0.288556 0)
(0.0235204 -0.245138 0)
(0.0135143 -0.189964 0)
(0.00521589 -0.122828 0)
(0.00086515 -0.0442589 0)
(0.000970281 0.0493396 0)
(0.00591305 0.136582 0)
(0.0154885 0.210993 0)
(0.0273139 0.271943 0)
(0.0396851 0.319477 0)
(0.0513349 0.354176 0)
(0.0612701 0.377036 0)
(0.0688214 0.389329 0)
(0.0736413 0.392464 0)
(0.0756553 0.387866 0)
(0.0750004 0.376897 0)
(0.0719643 0.360796 0)
(0.0669284 0.340649 0)
(0.0603224 0.317382 0)
(0.0525874 0.29176 0)
(0.0441511 0.264406 0)
(0.0354099 0.235812 0)
(0.0267196 0.206363 0)
(0.01839 0.176354 0)
(0.0106836 0.146005 0)
(0.00381691 0.115485 0)
(-0.00203786 0.0849165 0)
(-0.00674944 0.0543934 0)
(-0.0102248 0.023989 0)
(-0.0124065 -0.00623463 0)
(-0.0132704 -0.0362199 0)
(-0.0128242 -0.0659069 0)
(-0.0111065 -0.0952276 0)
(-0.00818648 -0.124101 0)
(-0.00416413 -0.152426 0)
(0.000829263 -0.18008 0)
(0.00663021 -0.20691 0)
(0.0130423 -0.232725 0)
(0.0198362 -0.257295 0)
(0.02675 -0.280339 0)
(0.0334919 -0.301516 0)
(0.0397448 -0.320419 0)
(0.0451749 -0.336563 0)
(0.0494433 -0.349379 0)
(0.0522255 -0.3582 0)
(0.0532348 -0.362268 0)
(0.0522551 -0.360727 0)
(0.0491786 -0.352645 0)
(0.0440491 -0.337041 0)
(0.0371066 -0.312932 0)
(0.028826 -0.279415 0)
(0.0199252 -0.23576 0)
(0.0113371 -0.181527 0)
(0.0043352 -0.11669 0)
(0.000710109 -0.0418088 0)
(0.000835608 0.0464931 0)
(0.00515592 0.129372 0)
(0.0136283 0.200892 0)
(0.0242659 0.260412 0)
(0.0356436 0.307835 0)
(0.0466741 0.343509 0)
(0.0564671 0.368149 0)
(0.0643812 0.382737 0)
(0.0700356 0.388413 0)
(0.0732811 0.386375 0)
(0.0741583 0.377811 0)
(0.0728515 0.363835 0)
(0.0696438 0.345458 0)
(0.0648775 0.323567 0)
(0.0589216 0.298919 0)
(0.0521466 0.272151 0)
(0.0449067 0.243784 0)
(0.0375279 0.21424 0)
(0.0303008 0.183855 0)
(0.023477 0.152894 0)
(0.0172684 0.121566 0)
(0.0118472 0.0900367 0)
(0.00734785 0.0584372 0)
(0.00386887 0.0268776 0)
(0.00147479 -0.00454629 0)
(0.000197838 -0.0357444 0)
(3.94373e-05 -0.0666257 0)
(0.000971051 -0.0970919 0)
(0.00293471 -0.127031 0)
(0.0058432 -0.156314 0)
(0.00957992 -0.184784 0)
(0.0139988 -0.212259 0)
(0.0189241 -0.238517 0)
(0.0241517 -0.263297 0)
(0.0294499 -0.28629 0)
(0.0345634 -0.307132 0)
(0.0392186 -0.325398 0)
(0.0431317 -0.340597 0)
(0.0460219 -0.352168 0)
(0.0476271 -0.359474 0)
(0.0477263 -0.361812 0)
(0.0461661 -0.358413 0)
(0.0428908 -0.348468 0)
(0.0379755 -0.331154 0)
(0.0316575 -0.305684 0)
(0.0243609 -0.271365 0)
(0.0166957 -0.227682 0)
(0.00942772 -0.174382 0)
(0.00357937 -0.111558 0)
(0.000580632 -0.0397801 0)
(0.000719534 0.0440154 0)
(0.00448647 0.123033 0)
(0.0119484 0.191899 0)
(0.0214438 0.249972 0)
(0.0317815 0.297061 0)
(0.0420354 0.333345 0)
(0.0514201 0.359328 0)
(0.0593407 0.375762 0)
(0.0654109 0.383566 0)
(0.0694379 0.383747 0)
(0.0713942 0.37733 0)
(0.0713843 0.365314 0)
(0.0696095 0.348626 0)
(0.0663354 0.328107 0)
(0.0618632 0.304494 0)
(0.0565069 0.278423 0)
(0.0505757 0.250433 0)
(0.0443612 0.220971 0)
(0.0381293 0.190406 0)
(0.0321149 0.159039 0)
(0.0265198 0.127116 0)
(0.0215114 0.0948379 0)
(0.0172233 0.0623723 0)
(0.0137566 0.0298625 0)
(0.0111808 -0.00256332 0)
(0.00953524 -0.0347845 0)
(0.00883041 -0.0666802 0)
(0.00904866 -0.0981232 0)
(0.0101449 -0.128973 0)
(0.0120468 -0.159072 0)
(0.0146555 -0.188237 0)
(0.0178453 -0.216256 0)
(0.0214646 -0.24288 0)
(0.0253372 -0.267824 0)
(0.0292641 -0.290754 0)
(0.0330273 -0.311288 0)
(0.0363955 -0.328991 0)
(0.0391324 -0.343371 0)
(0.0410074 -0.353878 0)
(0.0418112 -0.359909 0)
(0.0413734 -0.36081 0)
(0.0395848 -0.355894 0)
(0.036421 -0.344456 0)
(0.0319668 -0.325806 0)
(0.0264386 -0.299311 0)
(0.0201998 -0.264445 0)
(0.0137552 -0.220854 0)
(0.00772317 -0.168419 0)
(0.0029166 -0.107316 0)
(0.0004697 -0.0381158 0)
(0.000617248 0.0418663 0)
(0.0038832 0.117489 0)
(0.0104071 0.18395 0)
(0.018801 0.240618 0)
(0.0280718 0.287236 0)
(0.0374367 0.323864 0)
(0.0462126 0.350843 0)
(0.0538614 0.368747 0)
(0.0600108 0.378317 0)
(0.064447 0.380394 0)
(0.0670976 0.375867 0)
(0.0680072 0.365622 0)
(0.0673113 0.350509 0)
(0.0652096 0.331315 0)
(0.0619422 0.30875 0)
(0.0577694 0.28344 0)
(0.0529549 0.255931 0)
(0.0477539 0.226688 0)
(0.0424038 0.196102 0)
(0.037119 0.164504 0)
(0.0320866 0.132171 0)
(0.0274653 0.0993337 0)
(0.0233846 0.0661924 0)
(0.0199452 0.0329204 0)
(0.0172195 -0.000324773 0)
(0.0152529 -0.0333941 0)
(0.0140645 -0.0661393 0)
(0.0136478 -0.0984067 0)
(0.0139713 -0.13003 0)
(0.0149794 -0.160825 0)
(0.0165923 -0.190584 0)
(0.018707 -0.219069 0)
(0.021198 -0.246011 0)
(0.0239184 -0.271099 0)
(0.0267028 -0.293983 0)
(0.0293702 -0.314266 0)
(0.0317297 -0.331506 0)
(0.0335878 -0.345213 0)
(0.0347581 -0.35485 0)
(0.0350737 -0.359843 0)
(0.0344027 -0.359588 0)
(0.0326652 -0.353462 0)
(0.029852 -0.34085 0)
(0.0260427 -0.32117 0)
(0.0214211 -0.293911 0)
(0.0162853 -0.258675 0)
(0.0110405 -0.215228 0)
(0.00617478 -0.163551 0)
(0.0023234 -0.103877 0)
(0.00037233 -0.0367738 0)
(0.000525281 0.0400152 0)
(0.00333015 0.112679 0)
(0.00897273 0.176995 0)
(0.0162995 0.232342 0)
(0.0244881 0.278419 0)
(0.032883 0.315199 0)
(0.0408988 0.342902 0)
(0.0480594 0.361964 0)
(0.054019 0.372981 0)
(0.0585601 0.376661 0)
(0.0615831 0.373772 0)
(0.0630896 0.365102 0)
(0.0631634 0.351426 0)
(0.061949 0.333477 0)
(0.0596328 0.311935 0)
(0.056425 0.287412 0)
(0.0525457 0.26045 0)
(0.0482126 0.231523 0)
(0.0436332 0.201041 0)
(0.0389978 0.169357 0)
(0.0344764 0.13677 0)
(0.0302154 0.10354 0)
(0.0263374 0.0698927 0)
(0.02294 0.0360278 0)
(0.020097 0.00212892 0)
(0.0178582 -0.0316296 0)
(0.0162504 -0.0650753 0)
(0.0152781 -0.0980304 0)
(0.014924 -0.130306 0)
(0.0151496 -0.161694 0)
(0.0158953 -0.191966 0)
(0.017082 -0.220863 0)
(0.0186109 -0.248093 0)
(0.0203655 -0.27333 0)
(0.0222134 -0.296208 0)
(0.0240098 -0.316318 0)
(0.0256016 -0.333212 0)
(0.0268338 -0.346402 0)
(0.0275577 -0.355367 0)
(0.0276411 -0.359556 0)
(0.0269799 -0.358403 0)
(0.0255123 -0.351344 0)
(0.0232326 -0.337833 0)
(0.0202044 -0.317373 0)
(0.016572 -0.289549 0)
(0.0125668 -0.254059 0)
(0.00850023 -0.210762 0)
(0.00474462 -0.159708 0)
(0.00178206 -0.101174 0)
(0.00028489 -0.0357227 0)
(0.000441065 0.0384389 0)
(0.00281517 0.108559 0)
(0.00762028 0.170993 0)
(0.0139083 0.225133 0)
(0.0210061 0.270649 0)
(0.0283722 0.307449 0)
(0.0355136 0.335666 0)
(0.0420186 0.355627 0)
(0.0475759 0.367816 0)
(0.0519764 0.37283 0)
(0.0551072 0.371338 0)
(0.0569409 0.364043 0)
(0.0575212 0.351651 0)
(0.0569476 0.334847 0)
(0.0553596 0.314275 0)
(0.0529223 0.290528 0)
(0.0498139 0.264145 0)
(0.0462158 0.235601 0)
(0.0423042 0.205317 0)
(0.038244 0.173662 0)
(0.0341853 0.140953 0)
(0.0302602 0.107473 0)
(0.0265815 0.073468 0)
(0.0232419 0.0391608 0)
(0.0203144 0.004757 0)
(0.0178517 -0.0295476 0)
(0.0158877 -0.0635596 0)
(0.014437 -0.0970808 0)
(0.0134963 -0.129902 0)
(0.0130443 -0.161797 0)
(0.0130423 -0.192517 0)
(0.013435 -0.221786 0)
(0.0141509 -0.249296 0)
(0.0151036 -0.274703 0)
(0.0161934 -0.297629 0)
(0.01731 -0.317657 0)
(0.0183355 -0.334333 0)
(0.0191498 -0.347171 0)
(0.0196366 -0.355659 0)
(0.0196912 -0.359267 0)
(0.0192299 -0.35746 0)
(0.0182002 -0.349715 0)
(0.0165911 -0.335541 0)
(0.0144437 -0.314508 0)
(0.0118585 -0.286269 0)
(0.00900019 -0.250598 0)
(0.00609229 -0.20742 0)
(0.00340284 -0.156838 0)
(0.00127898 -0.0991575 0)
(0.000204667 -0.0349391 0)
(0.000362643 0.0371201 0)
(0.00232882 0.105094 0)
(0.00632993 0.165913 0)
(0.0116018 0.218982 0)
(0.017604 0.263952 0)
(0.0238986 0.300688 0)
(0.0300798 0.329255 0)
(0.0358006 0.349902 0)
(0.0407899 0.363024 0)
(0.0448555 0.36913 0)
(0.0478817 0.368808 0)
(0.0498225 0.362689 0)
(0.0506921 0.35142 0)
(0.0505531 0.33564 0)
(0.0495048 0.315961 0)
(0.0476716 0.292958 0)
(0.0451931 0.267157 0)
(0.0422149 0.239033 0)
(0.0388819 0.209014 0)
(0.0353329 0.177476 0)
(0.0316963 0.144754 0)
(0.0280878 0.111144 0)
(0.0246086 0.076911 0)
(0.0213445 0.0422949 0)
(0.0183656 0.00751902 0)
(0.0157265 -0.0272031 0)
(0.0134664 -0.0616609 0)
(0.0116097 -0.0956395 0)
(0.0101662 -0.128914 0)
(0.00913165 -0.161241 0)
(0.00848791 -0.192358 0)
(0.00820352 -0.221972 0)
(0.00823404 -0.249763 0)
(0.00852282 -0.275375 0)
(0.009002 -0.298416 0)
(0.00959416 -0.318461 0)
(0.0102146 -0.335053 0)
(0.0107749 -0.347705 0)
(0.0111869 -0.35591 0)
(0.0113685 -0.35915 0)
(0.0112502 -0.356913 0)
(0.0107828 -0.348705 0)
(0.00994452 -0.334076 0)
(0.00874887 -0.312639 0)
(0.00725038 -0.284102 0)
(0.00554804 -0.248289 0)
(0.00378228 -0.205174 0)
(0.00212562 -0.154899 0)
(0.00080354 -0.09779 0)
(0.000129583 -0.034406 0)
(0.000288479 0.0360456 0)
(0.00186355 0.102256 0)
(0.00508547 0.16173 0)
(0.00935818 0.213881 0)
(0.0142619 0.258349 0)
(0.0194541 0.29497 0)
(0.0246116 0.323763 0)
(0.0294516 0.344917 0)
(0.0337467 0.358761 0)
(0.0373276 0.365739 0)
(0.0400836 0.366372 0)
(0.0419585 0.361233 0)
(0.0429447 0.350921 0)
(0.0430751 0.336034 0)
(0.0424145 0.317156 0)
(0.0410509 0.29484 0)
(0.0390876 0.269602 0)
(0.0366363 0.241912 0)
(0.0338109 0.2122 0)
(0.0307231 0.180847 0)
(0.0274788 0.148199 0)
(0.0241757 0.114561 0)
(0.0209016 0.0802113 0)
(0.0177334 0.0454038 0)
(0.0147372 0.0103749 0)
(0.0119675 -0.0246487 0)
(0.0094678 -0.0594431 0)
(0.00727098 -0.093781 0)
(0.00539925 -0.127425 0)
(0.00386463 -0.16012 0)
(0.00266905 -0.19159 0)
(0.0018045 -0.221533 0)
(0.00125314 -0.249616 0)
(0.000987468 -0.275472 0)
(0.000970612 -0.298702 0)
(0.00115698 -0.318871 0)
(0.00149333 -0.335515 0)
(0.00192041 -0.348145 0)
(0.00237548 -0.356254 0)
(0.00279551 -0.359331 0)
(0.0031214 -0.356875 0)
(0.00330287 -0.348409 0)
(0.00330375 -0.333507 0)
(0.0031073 -0.311812 0)
(0.00272078 -0.283066 0)
(0.0021786 -0.247128 0)
(0.00154177 -0.204003 0)
(0.000893633 -0.153862 0)
(0.00034725 -0.0970448 0)
(5.8008e-05 -0.0341115 0)
(0.000217313 0.0352061 0)
(0.00141306 0.100028 0)
(0.00387312 0.158426 0)
(0.00715857 0.209823 0)
(0.0109617 0.253854 0)
(0.0150292 0.290336 0)
(0.0191169 0.319258 0)
(0.0230062 0.340767 0)
(0.0265147 0.355148 0)
(0.0295007 0.362793 0)
(0.0318637 0.364177 0)
(0.0335436 0.359828 0)
(0.034517 0.350303 0)
(0.0347927 0.33617 0)
(0.0344055 0.317986 0)
(0.0334106 0.296285 0)
(0.0318777 0.271571 0)
(0.0298855 0.24431 0)
(0.0275174 0.214927 0)
(0.024858 0.183808 0)
(0.0219896 0.151302 0)
(0.0189907 0.117721 0)
(0.0159343 0.0833532 0)
(0.012887 0.0484591 0)
(0.00990882 0.0132848 0)
(0.00705294 -0.021934 0)
(0.00436583 -0.0569647 0)
(0.00188744 -0.0915713 0)
(-0.000348609 -0.125508 0)
(-0.0023149 -0.158511 0)
(-0.00399022 -0.190298 0)
(-0.00535976 -0.220557 0)
(-0.00641533 -0.248947 0)
(-0.00715588 -0.275093 0)
(-0.00758792 -0.298586 0)
(-0.00772599 -0.318985 0)
(-0.00759299 -0.335818 0)
(-0.00722013 -0.348588 0)
(-0.00664651 -0.356786 0)
(-0.00591805 -0.359897 0)
(-0.00508567 -0.357421 0)
(-0.00420281 -0.348887 0)
(-0.00332222 -0.33388 0)
(-0.00249231 -0.312055 0)
(-0.00175352 -0.283171 0)
(-0.00113515 -0.247109 0)
(-0.000653098 -0.203891 0)
(-0.000309164 -0.153705 0)
(-9.68741e-05 -0.0969038 0)
(-1.13852e-05 -0.0340474 0)
(0.000148064 0.0345951 0)
(0.000971847 0.0983972 0)
(0.00268064 0.155991 0)
(0.00498568 0.206806 0)
(0.00768579 0.250478 0)
(0.0106128 0.286814 0)
(0.0135995 0.315786 0)
(0.0164904 0.337519 0)
(0.01915 0.352267 0)
(0.0214663 0.36039 0)
(0.0233531 0.362329 0)
(0.0247504 0.35858 0)
(0.0256236 0.349672 0)
(0.0259612 0.336146 0)
(0.0257716 0.318538 0)
(0.0250798 0.297368 0)
(0.0239235 0.273127 0)
(0.0223499 0.246272 0)
(0.0204124 0.217227 0)
(0.0181679 0.186375 0)