/*--------------------------------*- C++ -*----------------------------------*\
  =========                 |
  \\      /  F ield         | OpenFOAM: The Open Source CFD Toolbox
   \\    /   O peration     | Website:  https://openfoam.org
    \\  /    A nd           | Version:  7
     \\/     M anipulation  |
\*---------------------------------------------------------------------------*/
FoamFile
{
    version     2.0;
    format      ascii;
    class       volVectorField;
    location    "0.0334";
    object      U;
}
// * * * * * * * * * * * * * * * * * * * * * * * * * * * * * * * * * * * * * //

dimensions      [0 1 -1 0 0 0 0];

internalField   nonuniform List<vector> 
2500
(
(2.59597e-05 -2.59082e-05 0)
(7.50044e-05 -2.92924e-05 0)
(9.52605e-05 -1.19582e-05 0)
(5.59403e-05 1.14797e-05 0)
(-5.19868e-05 3.44652e-05 0)
(-0.000225624 5.55546e-05 0)
(-0.000457136 7.34971e-05 0)
(-0.000738368 8.80885e-05 0)
(-0.00106014 9.94552e-05 0)
(-0.00141317 0.000107796 0)
(-0.00178849 0.00011333 0)
(-0.00217759 0.000116281 0)
(-0.00257247 0.000116868 0)
(-0.0029657 0.000115304 0)
(-0.00335046 0.000111791 0)
(-0.00372052 0.000106525 0)
(-0.00407023 9.96912e-05 0)
(-0.00439452 9.14658e-05 0)
(-0.00468892 8.20169e-05 0)
(-0.00494946 7.1505e-05 0)
(-0.00517276 6.00849e-05 0)
(-0.00535593 4.79065e-05 0)
(-0.00549661 3.51169e-05 0)
(-0.00559297 2.18626e-05 0)
(-0.00564367 8.29086e-06 0)
(-0.00564791 -5.44786e-06 0)
(-0.00560542 -1.91986e-05 0)
(-0.0055165 -3.28002e-05 0)
(-0.00538199 -4.60841e-05 0)
(-0.00520335 -5.88732e-05 0)
(-0.00498265 -7.0982e-05 0)
(-0.00472261 -8.22165e-05 0)
(-0.00442658 -9.23744e-05 0)
(-0.00409864 -0.000101247 0)
(-0.00374353 -0.00010862 0)
(-0.00336669 -0.000114278 0)
(-0.00297424 -0.000118001 0)
(-0.00257299 -0.000119574 0)
(-0.00217036 -0.000118786 0)
(-0.00177438 -0.000115433 0)
(-0.00139359 -0.000109322 0)
(-0.00103695 -0.000100272 0)
(-0.00071372 -8.8127e-05 0)
(-0.000433232 -7.27746e-05 0)
(-0.000204544 -5.42025e-05 0)
(-3.57288e-05 -3.26913e-05 0)
(6.66737e-05 -9.27632e-06 0)
(0.000100807 1.38725e-05 0)
(7.63782e-05 3.02773e-05 0)
(2.58489e-05 2.57927e-05 0)
(2.97292e-05 -7.51532e-05 0)
(5.85374e-05 -5.75155e-05 0)
(-5.79613e-06 3.64055e-05 0)
(-0.000209419 0.00015768 0)
(-0.000569118 0.000282118 0)
(-0.00108251 0.000399042 0)
(-0.00173679 0.000502052 0)
(-0.00251411 0.000588501 0)
(-0.0033936 0.00065757 0)
(-0.00435314 0.000709321 0)
(-0.00537048 0.000744308 0)
(-0.0064239 0.000763367 0)
(-0.0074926 0.000767496 0)
(-0.00855697 0.000757776 0)
(-0.00959875 0.000735333 0)
(-0.0106011 0.000701303 0)
(-0.0115488 0.000656818 0)
(-0.012428 0.000602988 0)
(-0.0132262 0.000540903 0)
(-0.0139328 0.000471626 0)
(-0.0145383 0.000396199 0)
(-0.0150348 0.000315646 0)
(-0.0154159 0.000230983 0)
(-0.0156764 0.000143224 0)
(-0.0158129 5.3391e-05 0)
(-0.0158231 -3.74739e-05 0)
(-0.0157064 -0.000128304 0)
(-0.0154638 -0.000217996 0)
(-0.0150976 -0.000305409 0)
(-0.0146121 -0.000389356 0)
(-0.014013 -0.000468607 0)
(-0.0133078 -0.000541892 0)
(-0.0125058 -0.000607905 0)
(-0.0116181 -0.000665315 0)
(-0.0106578 -0.000712782 0)
(-0.00963936 -0.000748972 0)
(-0.00857943 -0.000772584 0)
(-0.0074961 -0.000782372 0)
(-0.00640903 -0.000777177 0)
(-0.00533923 -0.000755973 0)
(-0.00430876 -0.000717912 0)
(-0.00334035 -0.000662401 0)
(-0.00245692 -0.000589224 0)
(-0.00168076 -0.000498741 0)
(-0.0010324 -0.000392277 0)
(-0.000528854 -0.000272936 0)
(-0.000181148 -0.000147204 0)
(1.02389e-05 -2.70477e-05 0)
(6.44799e-05 6.34468e-05 0)
(3.06578e-05 7.64241e-05 0)
(1.33961e-05 -9.68774e-05 0)
(-3.22715e-05 5.69818e-06 0)
(-0.000246586 0.000251713 0)
(-0.000665747 0.000555562 0)
(-0.00130485 0.000870403 0)
(-0.00216093 0.00116926 0)
(-0.00321786 0.00143642 0)
(-0.00445149 0.00166365 0)
(-0.00583299 0.00184714 0)
(-0.00733105 0.00198576 0)
(-0.00891349 0.00208002 0)
(-0.0105484 0.00213147 0)
(-0.0122048 0.00214229 0)
(-0.0138532 0.00211508 0)
(-0.0154658 0.00205268 0)
(-0.0170172 0.00195804 0)
(-0.0184836 0.00183417 0)
(-0.0198439 0.00168409 0)
(-0.021079 0.0015108 0)
(-0.0221721 0.00131726 0)
(-0.0231087 0.0011064 0)
(-0.0238765 0.000881105 0)
(-0.0244654 0.00064426 0)
(-0.0248677 0.00039875 0)
(-0.0250778 0.000147487 0)
(-0.0250924 -0.000106566 0)
(-0.0249108 -0.000360381 0)
(-0.0245343 -0.000610837 0)
(-0.0239669 -0.000854717 0)
(-0.0232151 -0.00108869 0)
(-0.0222879 -0.00130934 0)
(-0.0211971 -0.00151312 0)
(-0.0199571 -0.00169644 0)
(-0.018585 -0.00185567 0)
(-0.0171007 -0.00198716 0)
(-0.0155269 -0.00208734 0)
(-0.0138886 -0.00215277 0)
(-0.0122133 -0.00218021 0)
(-0.0105308 -0.00216676 0)
(-0.00887239 -0.00210998 0)
(-0.00727094 -0.00200806 0)
(-0.00575976 -0.00186007 0)
(-0.00437196 -0.00166634 0)
(-0.00313913 -0.00142903 0)
(-0.0020897 -0.00115311 0)
(-0.00124657 -0.000847994 0)
(-0.000623834 -0.000530426 0)
(-0.000221908 -0.000228592 0)
(-2.22406e-05 1.04928e-05 0)
(1.53425e-05 0.000102226 0)
(-8.77842e-06 -6.09343e-05 0)
(-0.000150247 0.000205721 0)
(-0.000546539 0.000669721 0)
(-0.00120984 0.0012171 0)
(-0.00214612 0.00177997 0)
(-0.00334879 0.00231523 0)
(-0.00479747 0.00279624 0)
(-0.00646269 0.00320764 0)
(-0.00830933 0.0035414 0)
(-0.010299 0.00379428 0)
(-0.0123918 0.0039662 0)
(-0.0145478 0.00405921 0)
(-0.0167279 0.00407677 0)
(-0.0188946 0.00402325 0)
(-0.0210124 0.00390359 0)
(-0.0230483 0.00372311 0)
(-0.024972 0.00348732 0)
(-0.0267558 0.0032018 0)
(-0.0283749 0.00287215 0)
(-0.0298076 0.00250396 0)
(-0.0310348 0.00210279 0)
(-0.0320406 0.00167413 0)
(-0.0328118 0.00122351 0)
(-0.0333382 0.000756444 0)
(-0.0336128 0.00027852 0)
(-0.0336313 -0.000204593 0)
(-0.0333925 -0.000687093 0)
(-0.0328986 -0.00116303 0)
(-0.0321547 -0.00162627 0)
(-0.0311694 -0.00207049 0)
(-0.0299545 -0.00248921 0)
(-0.0285253 -0.00287578 0)
(-0.0269006 -0.00322345 0)
(-0.0251029 -0.00352542 0)
(-0.0231577 -0.00377495 0)
(-0.0210943 -0.00396545 0)
(-0.0189451 -0.00409066 0)
(-0.0167452 -0.00414478 0)
(-0.0145326 -0.00412273 0)
(-0.0123471 -0.0040204 0)
(-0.0102301 -0.00383504 0)
(-0.00822335 -0.00356567 0)
(-0.00636779 -0.00321384 0)
(-0.00470233 -0.00278457 0)
(-0.00326165 -0.00228789 0)
(-0.00207388 -0.00174123 0)
(-0.00115709 -0.00117314 0)
(-0.000514866 -0.000628341 0)
(-0.000137155 -0.00017544 0)
(-6.25865e-06 7.22654e-05 0)
(-3.09772e-05 4.14836e-05 0)
(-0.000274183 0.000561442 0)
(-0.000865787 0.00131005 0)
(-0.0017867 0.00215524 0)
(-0.00302917 0.00301263 0)
(-0.00458014 0.00382525 0)
(-0.00641346 0.004556 0)
(-0.008494 0.00518208 0)
(-0.0107809 0.00569071 0)
(-0.0132296 0.006076 0)
(-0.015794 0.00633692 0)
(-0.0184274 0.00647578 0)
(-0.0210842 0.00649726 0)
(-0.0237202 0.00640763 0)
(-0.0262935 0.00621421 0)
(-0.0287651 0.00592503 0)
(-0.0310987 0.00554852 0)
(-0.0332614 0.00509335 0)
(-0.0352237 0.00456828 0)
(-0.0369593 0.00398208 0)
(-0.0384457 0.00334352 0)
(-0.0396636 0.00266136 0)
(-0.0405972 0.00194435 0)
(-0.0412345 0.00120131 0)
(-0.0415667 0.000441119 0)
(-0.041589 -0.000327169 0)
(-0.0413 -0.00109432 0)
(-0.0407022 -0.00185088 0)
(-0.0398018 -0.0025871 0)
(-0.0386091 -0.003293 0)
(-0.0371385 -0.00395831 0)
(-0.0354081 -0.00457258 0)
(-0.0334406 -0.00512521 0)
(-0.0312626 -0.00560558 0)
(-0.0289047 -0.00600321 0)
(-0.0264017 -0.00630793 0)
(-0.0237919 -0.00651014 0)
(-0.021117 -0.00660107 0)
(-0.0184218 -0.0065732 0)
(-0.015753 -0.00642064 0)
(-0.0131591 -0.00613973 0)
(-0.0106888 -0.00572974 0)
(-0.00838966 -0.00519392 0)
(-0.00630693 -0.00454077 0)
(-0.0044811 -0.00378607 0)
(-0.00294596 -0.00295564 0)
(-0.00172516 -0.00208952 0)
(-0.000828399 -0.00124706 0)
(-0.000258685 -0.00051411 0)
(-2.80563e-05 -2.25053e-05 0)
(-5.16829e-05 0.000209399 0)
(-0.000395384 0.00107637 0)
(-0.0011842 0.00217976 0)
(-0.00236619 0.00337752 0)
(-0.00391737 0.00457355 0)
(-0.00581599 0.0056999 0)
(-0.00802862 0.00671038 0)
(-0.0105136 0.00757535 0)
(-0.0132241 0.00827732 0)
(-0.01611 0.00880769 0)
(-0.0191193 0.00916429 0)
(-0.0221996 0.00934966 0)
(-0.0252996 0.0093697 0)
(-0.0283694 0.00923268 0)
(-0.031362 0.00894854 0)
(-0.0342329 0.00852829 0)
(-0.0369411 0.00798367 0)
(-0.0394493 0.00732683 0)
(-0.0417239 0.00657013 0)
(-0.0437349 0.00572603 0)
(-0.0454567 0.00480704 0)
(-0.0468671 0.00382565 0)
(-0.0479484 0.00279442 0)
(-0.0486866 0.00172598 0)
(-0.049072 0.000633092 0)
(-0.0490987 -0.00047128 0)
(-0.0487653 -0.00157389 0)
(-0.0480747 -0.00266119 0)
(-0.0470339 -0.00371924 0)
(-0.0456547 -0.00473378 0)
(-0.0439532 -0.0056902 0)
(-0.0419504 -0.00657361 0)
(-0.0396719 -0.007369 0)
(-0.0371479 -0.00806135 0)
(-0.0344132 -0.0086359 0)
(-0.0315071 -0.00907841 0)
(-0.0284732 -0.00937549 0)
(-0.0253586 -0.00951509 0)
(-0.0222138 -0.00948697 0)
(-0.0190916 -0.00928333 0)
(-0.0160466 -0.00889961 0)
(-0.0131335 -0.00833546 0)
(-0.0104061 -0.00759598 0)
(-0.00791568 -0.00669339 0)
(-0.0057088 -0.00564919 0)
(-0.00382578 -0.00449726 0)
(-0.00229748 -0.00328785 0)
(-0.00114194 -0.00209237 0)
(-0.000377646 -0.00100935 0)
(-4.82849e-05 -0.000181446 0)
(-7.03954e-05 0.000438858 0)
(-0.000510398 0.00174731 0)
(-0.00149285 0.00327784 0)
(-0.00293384 0.00488409 0)
(-0.00479231 0.00646237 0)
(-0.00703645 0.00793668 0)
(-0.00962421 0.00925355 0)
(-0.0125065 0.0103775 0)
(-0.0156302 0.0112871 0)
(-0.0189391 0.0119711 0)
(-0.0223758 0.0124264 0)
(-0.0258826 0.012656 0)
(-0.029403 0.012667 0)
(-0.0328823 0.0124699 0)
(-0.0362685 0.0120774 0)
(-0.039513 0.011504 0)
(-0.0425706 0.0107648 0)
(-0.0454002 0.00987592 0)
(-0.0479645 0.00885372 0)
(-0.0502309 0.00771472 0)
(-0.0521707 0.00647559 0)
(-0.0537597 0.00515302 0)
(-0.0549781 0.0037638 0)
(-0.0558106 0.00232483 0)
(-0.0562462 0.00085319 0)
(-0.0562786 -0.000633742 0)
(-0.0559061 -0.00211825 0)
(-0.0551318 -0.00358219 0)
(-0.0539634 -0.00500696 0)
(-0.0524137 -0.00637351 0)
(-0.0505006 -0.00766236 0)
(-0.0482471 -0.00885371 0)
(-0.0456812 -0.00992759 0)
(-0.0428362 -0.0108641 0)
(-0.0397504 -0.0116437 0)
(-0.0364672 -0.0122477 0)
(-0.0330344 -0.0126585 0)
(-0.0295038 -0.0128604 0)
(-0.0259311 -0.0128401 0)
(-0.0223746 -0.0125878 0)
(-0.0188942 -0.0120978 0)
(-0.0155506 -0.0113702 0)
(-0.0124037 -0.0104117 0)
(-0.00951084 -0.00923803 0)
(-0.0069254 -0.0078761 0)
(-0.0046952 -0.00636685 0)
(-0.00285964 -0.00476918 0)
(-0.0014465 -0.00316392 0)
(-0.00049064 -0.00165844 0)
(-6.65304e-05 -0.000400892 0)
(-8.73165e-05 0.000725981 0)
(-0.000618855 0.00256878 0)
(-0.00178939 0.00459972 0)
(-0.00348499 0.00667159 0)
(-0.00564769 0.00867628 0)
(-0.00823482 0.0105323 0)
(-0.0111948 0.0121807 0)
(-0.0144704 0.0135816 0)
(-0.0180013 0.0147103 0)
(-0.0217252 0.0155537 0)
(-0.0255789 0.0161082 0)
(-0.0294998 0.0163772 0)
(-0.0334262 0.0163697 0)
(-0.037299 0.0160986 0)
(-0.0410622 0.0155796 0)
(-0.044663 0.0148307 0)
(-0.0480528 0.0138711 0)
(-0.051187 0.012721 0)
(-0.0540258 0.0114011 0)
(-0.0565335 0.00993236 0)
(-0.0586795 0.00833598 0)
(-0.0604375 0.00663321 0)
(-0.0617861 0.00484542 0)
(-0.0627087 0.00299415 0)
(-0.0631935 0.0011012 0)
(-0.0632334 -0.000811285 0)
(-0.0628266 -0.00272071 0)
(-0.0619761 -0.00460397 0)
(-0.0606903 -0.00643736 0)
(-0.0589827 -0.00819663 0)
(-0.0568724 -0.009857 0)
(-0.0543841 -0.0113933 0)
(-0.0515479 -0.0127801 0)
(-0.0483996 -0.0139923 0)
(-0.0449805 -0.0150051 0)
(-0.0413373 -0.0157948 0)
(-0.0375217 -0.0163393 0)
(-0.0335899 -0.0166187 0)
(-0.029602 -0.0166166 0)
(-0.0256215 -0.0163207 0)
(-0.0217138 -0.015724 0)
(-0.0179454 -0.0148263 0)
(-0.0143824 -0.0136361 0)
(-0.0110888 -0.0121719 0)
(-0.00812547 -0.0104652 0)
(-0.00554871 -0.00856309 0)
(-0.0034074 -0.00653132 0)
(-0.00173991 -0.00445793 0)
(-0.000597344 -0.0024563 0)
(-8.30004e-05 -0.000676948 0)
(-0.000102851 0.00106721 0)
(-0.000721753 0.00353505 0)
(-0.00207496 0.00614005 0)
(-0.00402071 0.00873593 0)
(-0.00648466 0.0112123 0)
(-0.00941296 0.0134843 0)
(-0.0127439 0.0154893 0)
(-0.0164113 0.0171842 0)
(-0.0203473 0.0185422 0)
(-0.0244829 0.0195491 0)
(-0.0287491 0.0202013 0)
(-0.0330776 0.0205035 0)
(-0.0374024 0.0204666 0)
(-0.0416599 0.0201062 0)
(-0.04579 0.0194417 0)
(-0.0497367 0.0184948 0)
(-0.0534479 0.0172891 0)
(-0.0568765 0.0158492 0)
(-0.0599798 0.0142005 0)
(-0.0627201 0.0123686 0)
(-0.0650648 0.0103797 0)
(-0.066986 0.00825979 0)
(-0.0684609 0.00603515 0)
(-0.0694718 0.00373228 0)
(-0.0700059 0.00137796 0)
(-0.0700557 -0.00100057 0)
(-0.0696191 -0.00337554 0)
(-0.0686989 -0.00571855 0)
(-0.0673037 -0.00800047 0)
(-0.0654478 -0.0101915 0)
(-0.0631512 -0.0122611 0)
(-0.0604396 -0.0141785 0)
(-0.057345 -0.0159123 0)
(-0.0539052 -0.0174317 0)
(-0.0501641 -0.0187063 0)
(-0.0461713 -0.0197069 0)
(-0.0419819 -0.0204063 0)
(-0.0376562 -0.0207804 0)
(-0.0332588 -0.0208088 0)
(-0.0288581 -0.0204764 0)
(-0.0245249 -0.0197743 0)
(-0.0203318 -0.018702 0)
(-0.0163515 -0.0172686 0)
(-0.0126555 -0.0154951 0)
(-0.0093127 -0.0134166 0)
(-0.00638869 -0.011085 0)
(-0.00394258 -0.0085717 0)
(-0.00202369 -0.00597009 0)
(-0.000698872 -0.00339776 0)
(-9.81099e-05 -0.00100618 0)
(-0.000117422 0.0014598 0)
(-0.000820627 0.00464142 0)
(-0.00235246 0.00789434 0)
(-0.00454519 0.0110738 0)
(-0.00730874 0.0140687 0)
(-0.010578 0.016792 0)
(-0.0142807 0.0191792 0)
(-0.0183413 0.0211852 0)
(-0.0226837 0.0227821 0)
(-0.0272316 0.0239556 0)
(-0.0319099 0.0247031 0)
(-0.0366449 0.0250308 0)
(-0.0413656 0.0249522 0)
(-0.0460042 0.0244865 0)
(-0.0504969 0.0236566 0)
(-0.0547843 0.0224888 0)
(-0.0588115 0.0210111 0)
(-0.0625287 0.019253 0)
(-0.0658913 0.0172449 0)
(-0.0688595 0.0150176 0)
(-0.071399 0.012602 0)
(-0.0734806 0.0100294 0)
(-0.0750802 0.00733128 0)
(-0.0761793 0.00453923 0)
(-0.0767643 0.00168527 0)
(-0.076827 -0.00119807 0)
(-0.0763648 -0.00407758 0)
(-0.0753805 -0.00691931 0)
(-0.0738828 -0.00968843 0)
(-0.0718861 -0.0123493 0)
(-0.069411 -0.0148653 0)
(-0.0664844 -0.0171996 0)
(-0.0631393 -0.0193147 0)
(-0.0594153 -0.0211734 0)
(-0.0553585 -0.0227393 0)
(-0.0510212 -0.0239772 0)
(-0.0464616 -0.0248546 0)
(-0.0417438 -0.0253421 0)
(-0.0369368 -0.0254151 0)
(-0.032114 -0.0250549 0)
(-0.0273519 -0.0242505 0)
(-0.0227296 -0.023 0)
(-0.0183269 -0.0213126 0)
(-0.0142233 -0.0192108 0)
(-0.0104966 -0.0167326 0)
(-0.00722234 -0.0139334 0)
(-0.00447041 -0.0108891 0)
(-0.00230127 -0.00769734 0)
(-0.000796951 -0.00447893 0)
(-0.000112308 -0.00138607 0)
(-0.000131419 0.00190195 0)
(-0.000917183 0.00588484 0)
(-0.00262558 0.00985988 0)
(-0.00506425 0.0136838 0)
(-0.00812791 0.0172454 0)
(-0.0117402 0.0204569 0)
(-0.015818 0.0232527 0)
(-0.0202758 0.0255873 0)
(-0.0250288 0.0274327 0)
(-0.0299933 0.0287755 0)
(-0.0350872 0.0296148 0)
(-0.0402314 0.0299594 0)
(-0.0453496 0.0298261 0)
(-0.05037 0.0292378 0)
(-0.055225 0.028222 0)
(-0.0598521 0.0268096 0)
(-0.0641937 0.0250338 0)
(-0.0681978 0.0229292 0)
(-0.0718177 0.0205314 0)
(-0.0750121 0.0178765 0)
(-0.0777453 0.0150009 0)
(-0.0799869 0.0119412 0)
(-0.0817118 0.00873401 0)
(-0.0829005 0.00541638 0)
(-0.0835387 0.00202571 0)
(-0.0836178 -0.0014 0)
(-0.0831345 -0.00482198 0)
(-0.0820914 -0.00820052 0)
(-0.0804968 -0.0114949 0)
(-0.0783655 -0.0146633 0)
(-0.0757181 -0.0176629 0)
(-0.0725821 -0.0204503 0)
(-0.0689916 -0.0229815 0)
(-0.0649875 -0.0252127 0)
(-0.0606176 -0.0271007 0)
(-0.0559368 -0.028604 0)
(-0.0510062 -0.0296839 0)
(-0.0458937 -0.0303055 0)
(-0.0406726 -0.0304389 0)
(-0.0354214 -0.0300615 0)
(-0.0302228 -0.0291589 0)
(-0.0251626 -0.0277272 0)
(-0.0203285 -0.0257751 0)
(-0.0158084 -0.0233255 0)
(-0.0116901 -0.0204182 0)
(-0.0080596 -0.0171115 0)
(-0.00499799 -0.0134846 0)
(-0.00257704 -0.00963886 0)
(-0.000893531 -0.00569785 0)
(-0.000126026 -0.00181516 0)
(-0.000145192 0.00239284 0)
(-0.00101313 0.00726415 0)
(-0.0028983 0.0120363 0)
(-0.00558444 0.0165669 0)
(-0.00895137 0.020745 0)
(-0.0129114 0.0244829 0)
(-0.0173703 0.0277149 0)
(-0.0222322 0.0303961 0)
(-0.027403 0.0324997 0)
(-0.032791 0.0340143 0)
(-0.0383073 0.0349414 0)
(-0.0438664 0.0352934 0)
(-0.0493871 0.0350911 0)
(-0.0547932 0.0343621 0)
(-0.0600134 0.0331389 0)
(-0.0649822 0.0314577 0)
(-0.0696395 0.029357 0)
(-0.0739313 0.0268772 0)
(-0.0778091 0.0240594 0)
(-0.0812304 0.0209453 0)
(-0.0841581 0.0175769 0)
(-0.086561 0.013996 0)
(-0.088413 0.010245 0)
(-0.0896939 0.00636626 0)
(-0.0903888 0.00240265 0)
(-0.0904882 -0.00160225 0)
(-0.0899885 -0.00560397 0)
(-0.0888916 -0.00955693 0)
(-0.0872056 -0.0134143 0)
(-0.0849448 -0.017128 0)
(-0.0821301 -0.0206488 0)
(-0.078789 -0.0239262 0)
(-0.0749562 -0.0269095 0)
(-0.0706738 -0.0295475 0)
(-0.0659911 -0.0317902 0)
(-0.060965 -0.0335888 0)
(-0.0556597 -0.0348979 0)
(-0.0501464 -0.035676 0)
(-0.0445031 -0.0358877 0)
(-0.0388136 -0.035505 0)
(-0.0331672 -0.0345095 0)
(-0.0276567 -0.0328945 0)
(-0.0223783 -0.0306669 0)
(-0.0174296 -0.0278493 0)
(-0.0129083 -0.0244821 0)
(-0.00891191 -0.0206259 0)
(-0.00553331 -0.0163626 0)
(-0.00285575 -0.0117967 0)
(-0.000990613 -0.00705486 0)
(-0.000139659 -0.00229309 0)
(-0.000159054 0.00293254 0)
(-0.00111011 0.0087802 0)
(-0.0031746 0.0144256 0)
(-0.00611249 0.0197268 0)
(-0.00978872 0.0245729 0)
(-0.0141041 0.0288766 0)
(-0.0189528 0.0325735 0)
(-0.0242283 0.0356201 0)
(-0.0298269 0.0379917 0)
(-0.0356482 0.03968 0)
(-0.0415958 0.0406903 0)
(-0.0475782 0.0410394 0)
(-0.0535086 0.0407531 0)
(-0.0593065 0.0398642 0)
(-0.0648969 0.0384112 0)
(-0.0702115 0.0364359 0)
(-0.0751877 0.0339831 0)
(-0.0797698 0.0310989 0)
(-0.0839078 0.0278306 0)
(-0.087558 0.0242256 0)
(-0.0906825 0.0203316 0)
(-0.093249 0.0161962 0)
(-0.0952311 0.0118671 0)
(-0.0966077 0.00739227 0)
(-0.0973631 0.00282009 0)
(-0.0974875 -0.00180026 0)
(-0.0969763 -0.00641858 0)
(-0.0958309 -0.0109834 0)
(-0.0940587 -0.0154416 0)
(-0.0916736 -0.0197388 0)
(-0.088696 -0.0238188 0)
(-0.0851534 -0.0276242 0)
(-0.0810807 -0.0310968 0)
(-0.0765207 -0.0341779 0)
(-0.0715238 -0.0368096 0)
(-0.066149 -0.0389357 0)
(-0.0604629 -0.0405028 0)
(-0.0545406 -0.0414623 0)
(-0.0484645 -0.0417719 0)
(-0.042324 -0.0413977 0)
(-0.0362151 -0.0403161 0)
(-0.0302387 -0.0385163 0)
(-0.0244999 -0.0360024 0)
(-0.0191063 -0.0327957 0)
(-0.014167 -0.0289367 0)
(-0.00979137 -0.024487 0)
(-0.00608473 -0.0195309 0)
(-0.00314226 -0.014176 0)
(-0.00109016 -0.00855266 0)
(-0.000153571 -0.00282057 0)
(-0.000173282 0.00352196 0)
(-0.00120965 0.0104357 0)
(-0.00345832 0.0170327 0)
(-0.00665502 0.02317 0)
(-0.0106495 0.0287372 0)
(-0.0153307 0.0336479 0)
(-0.0205809 0.0378392 0)
(-0.0262822 0.0412703 0)
(-0.0323207 0.0439197 0)
(-0.0385871 0.0457834 0)
(-0.0449773 0.0468715 0)
(-0.0513929 0.0472063 0)
(-0.0577419 0.0468196 0)
(-0.0639391 0.0457506 0)
(-0.069906 0.0440441 0)
(-0.0755714 0.0417486 0)
(-0.0808708 0.0389155 0)
(-0.0857465 0.0355974 0)
(-0.0901477 0.0318478 0)
(-0.0940295 0.0277201 0)
(-0.0973534 0.023268 0)
(-0.100087 0.0185448 0)
(-0.102202 0.0136038 0)
(-0.103678 0.00849841 0)
(-0.104499 0.00328257 0)
(-0.104653 -0.00198904 0)
(-0.104136 -0.00726051 0)
(-0.102948 -0.0124744 0)
(-0.101095 -0.0175716 0)
(-0.0985912 -0.0224908 0)
(-0.0954555 -0.027169 0)
(-0.0917152 -0.0315415 0)
(-0.0874049 -0.0355423 0)
(-0.0825676 -0.0391045 0)
(-0.0772549 -0.042162 0)
(-0.071527 -0.0446499 0)
(-0.0654534 -0.0465065 0)
(-0.0591123 -0.0476747 0)
(-0.052591 -0.0481045 0)
(-0.0459847 -0.0477546 0)
(-0.0393963 -0.0465951 0)
(-0.0329354 -0.04461 0)
(-0.0267166 -0.0417995 0)
(-0.0208586 -0.0381824 0)
(-0.0154824 -0.033798 0)
(-0.0107102 -0.0287088 0)
(-0.00666065 -0.0230009 0)
(-0.00344137 -0.0167853 0)
(-0.00119406 -0.0101964 0)
(-0.000168093 -0.00339932 0)
(-0.000188121 0.00416279 0)
(-0.00131317 0.0122354 0)
(-0.00375308 0.0198646 0)
(-0.00721833 0.026906 0)
(-0.0115429 0.0332492 0)
(-0.0166032 0.0388091 0)
(-0.0222691 0.0435252 0)
(-0.0284107 0.04736 0)
(-0.0349034 0.0502968 0)
(-0.0416285 0.0523368 0)
(-0.0484737 0.0534963 0)
(-0.0553337 0.0538042 0)
(-0.0621109 0.0532994 0)
(-0.0687154 0.0520285 0)
(-0.0750654 0.0500436 0)
(-0.0810869 0.0474008 0)
(-0.0867135 0.0441584 0)
(-0.0918863 0.040376 0)
(-0.0965534 0.0361137 0)
(-0.100669 0.0314315 0)
(-0.104195 0.0263889 0)
(-0.107098 0.0210451 0)
(-0.109351 0.0154589 0)
(-0.110931 0.0096891 0)
(-0.111821 0.00379507 0)
(-0.112011 -0.0021631 0)
(-0.111493 -0.00812389 0)
(-0.110269 -0.0140241 0)
(-0.108343 -0.0197982 0)
(-0.105726 -0.0253785 0)
(-0.102438 -0.0306949 0)
(-0.0985044 -0.0356749 0)
(-0.0939597 -0.0402444 0)
(-0.0888464 -0.044328 0)
(-0.0832166 -0.0478504 0)
(-0.0771319 -0.0507373 0)
(-0.0706637 -0.0529177 0)
(-0.0638939 -0.0543249 0)
(-0.0569141 -0.0548998 0)
(-0.0498257 -0.0545926 0)
(-0.0427391 -0.0533656 0)
(-0.0357726 -0.0511963 0)
(-0.0290515 -0.0480795 0)
(-0.0227061 -0.0440302 0)
(-0.0168704 -0.0390862 0)
(-0.0116806 -0.0333094 0)
(-0.00726929 -0.0267879 0)
(-0.00375776 -0.0196361 0)
(-0.00130412 -0.0119935 0)
(-0.000183536 -0.00403202 0)
(-0.000203797 0.00485743 0)
(-0.00142199 0.0141856 0)
(-0.00406226 0.0229309 0)
(-0.00780837 0.0309468 0)
(-0.0124774 0.0381228 0)
(-0.0179328 0.0443753 0)
(-0.024031 0.0496469 0)
(-0.0306295 0.0539047 0)
(-0.0375924 0.0571378 0)
(-0.044791 0.0593539 0)
(-0.0521044 0.0605769 0)
(-0.0594202 0.0608437 0)
(-0.066635 0.0602015 0)
(-0.0736546 0.0587053 0)
(-0.0803935 0.0564157 0)
(-0.0867755 0.0533969 0)
(-0.0927325 0.0497151 0)
(-0.0982046 0.0454374 0)
(-0.103139 0.040631 0)
(-0.107491 0.0353623 0)
(-0.111221 0.029697 0)
(-0.114296 0.0237002 0)
(-0.116688 0.0174361 0)
(-0.118375 0.0109688 0)
(-0.119341 0.00436284 0)
(-0.119571 -0.00231643 0)
(-0.119061 -0.00900213 0)
(-0.117807 -0.0156253 0)
(-0.115815 -0.0221145 0)
(-0.113093 -0.0283954 0)
(-0.10966 -0.0343905 0)
(-0.10554 -0.0400197 0)
(-0.100766 -0.0452003 0)
(-0.0953799 -0.0498477 0)
(-0.0894335 -0.0538767 0)
(-0.0829894 -0.057203 0)
(-0.0761209 -0.0597446 0)
(-0.0689128 -0.0614246 0)
(-0.0614615 -0.062173 0)
(-0.0538742 -0.0619299 0)
(-0.0462693 -0.0606485 0)
(-0.0387745 -0.058298 0)
(-0.0315263 -0.0548663 0)
(-0.0246675 -0.0503638 0)
(-0.0183464 -0.0448248 0)
(-0.0127141 -0.0383107 0)
(-0.00791862 -0.0309109 0)
(-0.00409593 -0.0227434 0)
(-0.00142207 -0.0139537 0)
(-0.00020019 -0.0047223 0)
(-0.000220513 0.00560894 0)
(-0.00153732 0.0162942 0)
(-0.00438901 0.0262435 0)
(-0.00843064 0.0353072 0)
(-0.0134612 0.0433745 0)
(-0.01933 0.050364 0)
(-0.0258792 0.056222 0)
(-0.0329528 0.0609216 0)
(-0.0404029 0.0644585 0)
(-0.0480902 0.0668489 0)
(-0.055885 0.0681256 0)
(-0.0636675 0.068335 0)
(-0.0713286 0.0675339 0)
(-0.0787694 0.0657872 0)
(-0.0859015 0.0631647 0)
(-0.0926464 0.0597399 0)
(-0.098935 0.0555876 0)
(-0.104707 0.0507829 0)
(-0.109909 0.0454004 0)
(-0.114496 0.0395134 0)
(-0.11843 0.0331938 0)
(-0.121677 0.0265122 0)
(-0.124211 0.0195385 0)
(-0.126009 0.0123417 0)
(-0.127054 0.00499125 0)
(-0.127332 -0.00244258 0)
(-0.126836 -0.00988781 0)
(-0.125562 -0.0172701 0)
(-0.123512 -0.0245121 0)
(-0.120696 -0.0315329 0)
(-0.117127 -0.038248 0)
(-0.112829 -0.0445692 0)
(-0.107834 -0.0504048 0)
(-0.10218 -0.0556606 0)
(-0.0959204 -0.060241 0)
(-0.089117 -0.0640501 0)
(-0.0818446 -0.0669943 0)
(-0.0741907 -0.0689845 0)
(-0.0662558 -0.0699387 0)
(-0.0581536 -0.069785 0)
(-0.0500101 -0.0684657 0)
(-0.0419633 -0.0659397 0)
(-0.0341613 -0.0621868 0)
(-0.0267608 -0.0572105 0)
(-0.0199251 -0.0510411 0)
(-0.0138219 -0.0437381 0)
(-0.00861628 -0.0353922 0)
(-0.0044602 -0.0261251 0)
(-0.00154957 -0.016089 0)
(-0.00021833 -0.00547462 0)
(-0.000238458 0.00642099 0)
(-0.00166029 0.0185707 0)
(-0.00473623 0.0298162 0)
(-0.00909022 0.040004 0)
(-0.0145016 0.0490231 0)
(-0.0208041 0.0567946 0)
(-0.0278245 0.0632699 0)
(-0.0353926 0.0684286 0)
(-0.0433474 0.0722755 0)
(-0.0515386 0.0748362 0)
(-0.0598271 0.0761543 0)
(-0.0680858 0.0762874 0)
(-0.0761995 0.0753034 0)
(-0.0840654 0.0732784 0)
(-0.0915921 0.0702929 0)
(-0.0986994 0.0664304 0)
(-0.105317 0.0617753 0)
(-0.111386 0.0564112 0)
(-0.116852 0.0504205 0)
(-0.121671 0.0438836 0)
(-0.125807 0.0368786 0)
(-0.129226 0.0294818 0)
(-0.131902 0.0217681 0)
(-0.133813 0.0138114 0)
(-0.134941 0.00568555 0)
(-0.135272 -0.00253464 0)
(-0.134798 -0.0107725 0)
(-0.133513 -0.0189487 0)
(-0.131418 -0.0269803 0)
(-0.128518 -0.0347802 0)
(-0.124827 -0.0422566 0)
(-0.120364 -0.0493134 0)
(-0.115158 -0.0558496 0)
(-0.109247 -0.0617608 0)
(-0.102681 -0.0669399 0)
(-0.0955226 -0.0712789 0)
(-0.0878462 -0.0746711 0)
(-0.0797418 -0.0770136 0)
(-0.071314 -0.0782103 0)
(-0.0626822 -0.0781759 0)
(-0.0539808 -0.0768392 0)
(-0.045358 -0.0741472 0)
(-0.0369746 -0.0700692 0)
(-0.029002 -0.0646004 0)
(-0.0216201 -0.0577652 0)
(-0.0150148 -0.0496206 0)
(-0.00936958 -0.0402575 0)
(-0.00485472 -0.0298019 0)
(-0.00168822 -0.0184133 0)
(-0.000238225 -0.00629434 0)
(-0.000257809 0.00729781 0)
(-0.00179195 0.021026 0)
(-0.00510665 0.0336648 0)
(-0.00979181 0.0450563 0)
(-0.0156051 0.0550895 0)
(-0.0223634 0.0636885 0)
(-0.0298766 0.0708108 0)
(-0.0379589 0.0764446 0)
(-0.0464356 0.0806048 0)
(-0.0551448 0.0833289 0)
(-0.0639376 0.084673 0)
(-0.0726793 0.0847075 0)
(-0.0812491 0.0835137 0)
(-0.0895401 0.0811798 0)
(-0.0974586 0.0777988 0)
(-0.104923 0.0734653 0)
(-0.111864 0.0682738 0)
(-0.118222 0.0623173 0)
(-0.123944 0.0556864 0)
(-0.12899 0.0484686 0)
(-0.133321 0.0407483 0)
(-0.136907 0.0326074 0)
(-0.139723 0.0241253 0)
(-0.141747 0.0153804 0)
(-0.142961 0.0064506 0)
(-0.143352 -0.0025854 0)
(-0.142908 -0.0116468 0)
(-0.141624 -0.0206498 0)
(-0.139497 -0.0295063 0)
(-0.13653 -0.0381232 0)
(-0.132732 -0.0464021 0)
(-0.128121 -0.0542383 0)
(-0.122721 -0.0615218 0)
(-0.116567 -0.0681374 0)
(-0.109708 -0.0739657 0)
(-0.102203 -0.0788854 0)
(-0.094127 -0.0827753 0)
(-0.0855722 -0.0855169 0)
(-0.0766458 -0.0869985 0)
(-0.0674731 -0.0871185 0)
(-0.0581964 -0.0857903 0)
(-0.0489747 -0.0829464 0)
(-0.0399822 -0.0785432 0)
(-0.031406 -0.0725654 0)
(-0.0234442 -0.0650301 0)
(-0.0163026 -0.0559899 0)
(-0.0101855 -0.0455358 0)
(-0.00528351 -0.0337976 0)
(-0.00183957 -0.0209429 0)
(-0.000260135 -0.00718759 0)
(-0.000278737 0.00824414 0)
(-0.00193329 0.0236723 0)
(-0.00550279 0.0378068 0)
(-0.0105397 0.0504849 0)
(-0.0167778 0.0615959 0)
(-0.0240151 0.0710678 0)
(-0.0320432 0.0788657 0)
(-0.0406594 0.0849879 0)
(-0.0496742 0.0894616 0)
(-0.0589134 0.0923384 0)
(-0.068218 0.093689 0)
(-0.0774458 0.0935989 0)
(-0.0864704 0.0921643 0)
(-0.0951816 0.089488 0)
(-0.103484 0.0856763 0)
(-0.111295 0.0808363 0)
(-0.118547 0.0750736 0)
(-0.125181 0.0684913 0)
(-0.131147 0.0611884 0)
(-0.136406 0.0532598 0)
(-0.140922 0.0447961 0)
(-0.144668 0.0358842 0)
(-0.147618 0.0266081 0)
(-0.149753 0.0170498 0)
(-0.151056 0.00729057 0)
(-0.151511 -0.00258749 0)
(-0.151108 -0.0125002 0)
(-0.149837 -0.02236 0)
(-0.147694 -0.0320742 0)
(-0.144678 -0.0415445 0)
(-0.140795 -0.0506656 0)
(-0.136057 -0.059325 0)
(-0.130484 -0.0674033 0)
(-0.12411 -0.0747738 0)
(-0.116975 -0.0813046 0)
(-0.10914 -0.0868596 0)
(-0.100677 -0.0913016 0)
(-0.0916777 -0.094495 0)
(-0.0822527 -0.0963096 0)
(-0.0725322 -0.0966257 0)
(-0.0626664 -0.095338 0)
(-0.0528252 -0.092362 0)
(-0.0431968 -0.0876384 0)
(-0.0339854 -0.0811389 0)
(-0.0254087 -0.0728707 0)
(-0.0176946 -0.0628807 0)
(-0.0110706 -0.0512587 0)
(-0.00575041 -0.0381382 0)
(-0.00200513 -0.0236955 0)
(-0.000284321 -0.00816131 0)
(-0.00030141 0.00926526 0)
(-0.0020853 0.0265229 0)
(-0.0059271 0.0422613 0)
(-0.011338 0.0563124 0)
(-0.0180251 0.0685661 0)
(-0.0257655 0.0789558 0)
(-0.0343307 0.0874554 0)
(-0.0434994 0.0940758 0)
(-0.0530664 0.098859 0)
(-0.0628444 0.101873 0)
(-0.0726642 0.103206 0)
(-0.0823758 0.10296 0)
(-0.0918481 0.10125 0)
(-0.100968 0.0981933 0)
(-0.109639 0.0939127 0)
(-0.117779 0.0885287 0)
(-0.125322 0.0821591 0)
(-0.132212 0.0749172 0)
(-0.138402 0.0669113 0)
(-0.143856 0.0582434 0)
(-0.148541 0.0490103 0)
(-0.152433 0.0393037 0)
(-0.15551 0.0292113 0)
(-0.157751 0.0188183 0)
(-0.159142 0.00820853 0)
(-0.159667 -0.00253354 0)
(-0.159313 -0.0133212 0)
(-0.15807 -0.0240638 0)
(-0.155929 -0.0346651 0)
(-0.152887 -0.045022 0)
(-0.148944 -0.0550232 0)
(-0.144108 -0.0645485 0)
(-0.138393 -0.0734689 0)
(-0.131825 -0.0816463 0)
(-0.124444 -0.0889352 0)
(-0.116303 -0.095184 0)
(-0.107472 -0.100238 0)
(-0.0980428 -0.103941 0)
(-0.0881265 -0.106144 0)
(-0.0778578 -0.106705 0)
(-0.0673943 -0.105498 0)
(-0.0569168 -0.102417 0)
(-0.0466282 -0.0973835 0)
(-0.0367508 -0.0903541 0)
(-0.0275238 -0.0813232 0)
(-0.0191993 -0.0703296 0)
(-0.0120313 -0.0574605 0)
(-0.0062592 -0.0428526 0)
(-0.00218641 -0.0266912 0)
(-0.000311046 -0.00922324 0)
(-0.000326 0.0103669 0)
(-0.00224894 0.0295925 0)
(-0.00638196 0.0470489 0)
(-0.0121906 0.0625626 0)
(-0.019352 0.0760248 0)
(-0.02762 0.0873755 0)
(-0.0367437 0.0965999 0)
(-0.0464817 0.103724 0)
(-0.0566118 0.108807 0)
(-0.0669328 0.111936 0)
(-0.0772653 0.113221 0)
(-0.087452 0.112783 0)
(-0.097357 0.110756 0)
(-0.106865 0.107278 0)
(-0.11588 0.102488 0)
(-0.124323 0.0965198 0)
(-0.132129 0.0895062 0)
(-0.139246 0.0815713 0)
(-0.145632 0.0728323 0)
(-0.151255 0.063399 0)
(-0.156087 0.0533737 0)
(-0.160107 0.0428525 0)
(-0.163295 0.0319262 0)
(-0.165635 0.0206822 0)
(-0.167111 0.009206 0)
(-0.167709 -0.00241649 0)
(-0.167414 -0.0140972 0)
(-0.166215 -0.0257434 0)
(-0.164099 -0.0372564 0)
(-0.161058 -0.0485291 0)
(-0.157087 -0.0594449 0)
(-0.152187 -0.0698766 0)
(-0.146367 -0.0796856 0)
(-0.139645 -0.0887224 0)
(-0.132054 -0.0968272 0)
(-0.123641 -0.103832 0)
(-0.114473 -0.109562 0)
(-0.104638 -0.113841 0)
(-0.0942476 -0.116495 0)
(-0.0834389 -0.117358 0)
(-0.0723763 -0.116279 0)
(-0.0612516 -0.113129 0)
(-0.0502824 -0.107805 0)
(-0.0397103 -0.100244 0)
(-0.029798 -0.0904246 0)
(-0.0208247 -0.0783749 0)
(-0.0130735 -0.0641777 0)
(-0.00681356 -0.0479718 0)
(-0.00238492 -0.0299517 0)
(-0.000340583 -0.0103819 0)
(-0.000352693 0.0115555 0)
(-0.00242524 0.0328967 0)
(-0.0068698 0.0521915 0)
(-0.0131012 0.0692606 0)
(-0.0207631 0.0839972 0)
(-0.0295831 0.0963498 0)
(-0.0392854 0.106317 0)
(-0.0496064 0.113944 0)
(-0.060306 0.11931 0)
(-0.0711684 0.122527 0)
(-0.0820037 0.123725 0)
(-0.0926477 0.123052 0)
(-0.102961 0.120663 0)
(-0.112827 0.116717 0)
(-0.122152 0.111371 0)
(-0.13086 0.104777 0)
(-0.138889 0.0970816 0)
(-0.146194 0.0884205 0)
(-0.152739 0.0789204 0)
(-0.158496 0.0686983 0)
(-0.163444 0.057862 0)
(-0.167565 0.0465112 0)
(-0.170845 0.0347391 0)
(-0.17327 0.0226342 0)
(-0.174826 0.0102825 0)
(-0.175499 -0.00222991 0)
(-0.175274 -0.0148147 0)
(-0.174136 -0.0273787 0)
(-0.17207 -0.0398216 0)
(-0.169062 -0.0520337 0)