/*--------------------------------*- C++ -*----------------------------------*\
  =========                 |
  \\      /  F ield         | OpenFOAM: The Open Source CFD Toolbox
   \\    /   O peration     | Website:  https://openfoam.org
    \\  /    A nd           | Version:  7
     \\/     M anipulation  |
\*---------------------------------------------------------------------------*/
FoamFile
{
    version     2.0;
    format      ascii;
    class       volScalarField;
    location    "0.0272";
    object      p;
}
// * * * * * * * * * * * * * * * * * * * * * * * * * * * * * * * * * * * * * //

dimensions      [0 2 -2 0 0 0 0];

internalField   nonuniform List<scalar> 
2500
(
2.22535e-05
-6.51116
-9.29488
-10.4888
-11.1521
-11.5561
-11.8174
-11.9998
-12.1353
-12.2403
-12.3241
-12.3924
-12.4492
-12.4969
-12.5374
-12.572
-12.6019
-12.6279
-12.6505
-12.6704
-12.6879
-12.7034
-12.7173
-12.7298
-12.7413
-12.7519
-12.7619
-12.7716
-12.7812
-12.7911
-12.8014
-12.8126
-12.825
-12.8393
-12.8559
-12.8757
-12.8995
-12.9286
-12.9648
-13.0104
-13.0689
-13.1457
-13.2494
-13.3959
-13.6162
-13.9714
-14.5689
-15.668
-18.3344
-24.7192
-4.95619
-7.67541
-9.18107
-10.1398
-10.806
-11.2642
-11.5839
-11.8153
-11.9887
-12.1226
-12.2286
-12.3142
-12.3846
-12.4433
-12.4928
-12.535
-12.5713
-12.6028
-12.6303
-12.6545
-12.676
-12.6952
-12.7125
-12.7283
-12.743
-12.7569
-12.7702
-12.7832
-12.7964
-12.8101
-12.8246
-12.8404
-12.858
-12.8782
-12.9016
-12.9293
-12.9627
-13.0034
-13.0539
-13.1175
-13.199
-13.3058
-13.4489
-13.6459
-13.9261
-14.3375
-14.9454
-15.8321
-17.2514
-19.8507
-7.92707
-8.75841
-9.55834
-10.2382
-10.7771
-11.1857
-11.4937
-11.7288
-11.9112
-12.0551
-12.1706
-12.2647
-12.3425
-12.4077
-12.4628
-12.5099
-12.5504
-12.5857
-12.6166
-12.6439
-12.6682
-12.69
-12.7099
-12.7282
-12.7452
-12.7615
-12.7772
-12.7928
-12.8087
-12.8251
-12.8427
-12.8618
-12.8831
-12.9073
-12.9354
-12.9684
-13.0077
-13.0554
-13.1139
-13.1867
-13.2787
-13.3965
-13.55
-13.7527
-14.0243
-14.3911
-14.8817
-15.5083
-16.2531
-17.0165
-9.43814
-9.64998
-10.0678
-10.5117
-10.9036
-11.2295
-11.4947
-11.709
-11.8824
-12.0237
-12.1398
-12.2361
-12.3167
-12.3848
-12.4429
-12.4929
-12.5362
-12.574
-12.6072
-12.6367
-12.6631
-12.687
-12.7088
-12.729
-12.7479
-12.7661
-12.7837
-12.8013
-12.8192
-12.8378
-12.8576
-12.8792
-12.9032
-12.9302
-12.9613
-12.9976
-13.0405
-13.0917
-13.1537
-13.2295
-13.3231
-13.4397
-13.5862
-13.7709
-14.0037
-14.2941
-14.6478
-15.0524
-15.4337
-15.6113
-10.3253
-10.3226
-10.525
-10.8007
-11.0744
-11.3234
-11.541
-11.7267
-11.8836
-12.0157
-12.1272
-12.2216
-12.302
-12.3708
-12.4301
-12.4815
-12.5264
-12.5658
-12.6007
-12.6318
-12.6598
-12.6853
-12.7086
-12.7303
-12.7508
-12.7705
-12.7898
-12.809
-12.8285
-12.8488
-12.8705
-12.8939
-12.9197
-12.9488
-12.9818
-13.02
-13.0645
-13.1171
-13.1796
-13.2545
-13.3447
-13.4539
-13.5859
-13.7451
-13.9344
-14.154
-14.3979
-14.6454
-14.8242
-14.8051
-10.8932
-10.8164
-10.9034
-11.0696
-11.2564
-11.4417
-11.6148
-11.7703
-11.9074
-12.0267
-12.1302
-12.2198
-12.2975
-12.365
-12.4238
-12.4754
-12.5208
-12.5611
-12.5969
-12.629
-12.6581
-12.6846
-12.7091
-12.732
-12.7537
-12.7745
-12.795
-12.8154
-12.8362
-12.8577
-12.8806
-12.9052
-12.9323
-12.9624
-12.9963
-13.0351
-13.0798
-13.1317
-13.1923
-13.2634
-13.3469
-13.445
-13.5594
-13.6915
-13.8403
-14.0016
-14.1655
-14.3117
-14.384
-14.3013
-11.2763
-11.1823
-11.2105
-11.308
-11.4333
-11.5687
-11.7033
-11.8305
-11.9471
-12.0521
-12.1457
-12.2286
-12.3018
-12.3664
-12.4236
-12.4742
-12.5192
-12.5594
-12.5955
-12.628
-12.6577
-12.6849
-12.7101
-12.7337
-12.7561
-12.7778
-12.7991
-12.8203
-12.8418
-12.8642
-12.8877
-12.913
-12.9405
-12.9709
-13.0048
-13.0431
-13.0866
-13.1363
-13.1933
-13.2587
-13.3337
-13.4192
-13.5156
-13.6221
-13.7363
-13.8522
-13.96
-14.0435
-14.0631
-13.969
-11.55
-11.4595
-11.4583
-11.5134
-11.5961
-11.6936
-11.7968
-11.8991
-11.9966
-12.0872
-12.1702
-12.2453
-12.313
-12.3737
-12.4281
-12.477
-12.5208
-12.5603
-12.596
-12.6285
-12.6582
-12.6856
-12.7111
-12.7351
-12.758
-12.7801
-12.8018
-12.8234
-12.8454
-12.8681
-12.8919
-12.9172
-12.9446
-12.9746
-13.0077
-13.0446
-13.0859
-13.1324
-13.1848
-13.2437
-13.3095
-13.3825
-13.462
-13.5464
-13.6325
-13.7145
-13.7841
-13.8293
-13.8237
-13.7363
-11.7559
-11.6746
-11.6591
-11.6879
-11.7416
-11.8112
-11.8895
-11.9708
-12.0512
-12.1283
-12.2007
-12.2678
-12.3294
-12.3856
-12.4366
-12.4829
-12.525
-12.5632
-12.5981
-12.63
-12.6594
-12.6866
-12.7121
-12.7361
-12.7591
-12.7813
-12.8031
-12.8248
-12.8468
-12.8694
-12.893
-12.918
-12.9447
-12.9738
-13.0055
-13.0404
-13.079
-13.1218
-13.1691
-13.2211
-13.278
-13.3392
-13.4038
-13.4699
-13.5341
-13.5914
-13.6354
-13.6577
-13.6405
-13.564
-11.917
-11.8454
-11.8233
-11.8359
-11.8699
-11.919
-11.978
-12.0421
-12.1077
-12.1726
-12.2351
-12.2943
-12.3496
-12.4008
-12.4481
-12.4915
-12.5313
-12.5678
-12.6014
-12.6324
-12.661
-12.6877
-12.7128
-12.7365
-12.7592
-12.7812
-12.8028
-12.8243
-12.846
-12.8682
-12.8913
-12.9155
-12.9413
-12.969
-12.999
-13.0315
-13.0671
-13.1058
-13.1478
-13.1933
-13.2418
-13.2926
-13.3447
-13.396
-13.4435
-13.4831
-13.51
-13.5186
-13.4967
-13.431
-12.0467
-11.9839
-11.9592
-11.9619
-11.9824
-12.0166
-12.0607
-12.1108
-12.1641
-12.2182
-12.2716
-12.3232
-12.3723
-12.4185
-12.4617
-12.5019
-12.5391
-12.5736
-12.6056
-12.6353
-12.6629
-12.6888
-12.7131
-12.7363
-12.7585
-12.78
-12.8011
-12.8221
-12.8432
-12.8647
-12.8869
-12.9102
-12.9347
-12.9608
-12.9887
-13.0187
-13.051
-13.0857
-13.1228
-13.162
-13.2031
-13.245
-13.2867
-13.3263
-13.3612
-13.3882
-13.4039
-13.4044
-13.3813
-13.325
-12.1534
-12.0981
-12.0729
-12.0695
-12.0809
-12.1043
-12.137
-12.1759
-12.2188
-12.2636
-12.3089
-12.3534
-12.3966
-12.4379
-12.477
-12.5138
-12.5482
-12.5804
-12.6105
-12.6386
-12.6649
-12.6897
-12.7131
-12.7354
-12.7569
-12.7777
-12.798
-12.8183
-12.8386
-12.8592
-12.8804
-12.9024
-12.9254
-12.9497
-12.9755
-13.0029
-13.032
-13.0628
-13.0952
-13.1289
-13.1634
-13.1979
-13.2311
-13.2616
-13.2871
-13.3053
-13.3135
-13.3094
-13.2867
-13.2384
-12.2426
-12.1938
-12.1692
-12.1622
-12.1673
-12.1829
-12.2068
-12.2369
-12.2712
-12.308
-12.3461
-12.3843
-12.4219
-12.4584
-12.4934
-12.5267
-12.5582
-12.5879
-12.6159
-12.6422
-12.667
-12.6905
-12.7127
-12.734
-12.7545
-12.7743
-12.7938
-12.8131
-12.8324
-12.8519
-12.8719
-12.8925
-12.9139
-12.9364
-12.9599
-12.9847
-13.0107
-13.0379
-13.0661
-13.0949
-13.1239
-13.1521
-13.1786
-13.202
-13.2206
-13.2325
-13.2359
-13.2292
-13.2079
-13.1662
-12.318
-12.2749
-12.2515
-12.2424
-12.2434
-12.2532
-12.2705
-12.2936
-12.3208
-12.3509
-12.3826
-12.4151
-12.4475
-12.4795
-12.5105
-12.5404
-12.5689
-12.596
-12.6218
-12.6462
-12.6693
-12.6912
-12.7121
-12.7321
-12.7514
-12.7702
-12.7885
-12.8067
-12.8248
-12.8431
-12.8618
-12.8809
-12.9007
-12.9212
-12.9426
-12.9649
-12.988
-13.0119
-13.0363
-13.0609
-13.0851
-13.1082
-13.1293
-13.1473
-13.1608
-13.1684
-13.1687
-13.1609
-13.1412
-13.1052
-12.3826
-12.3443
-12.3225
-12.3125
-12.3107
-12.3164
-12.3286
-12.3461
-12.3676
-12.3919
-12.4181
-12.4455
-12.4732
-12.5009
-12.5282
-12.5546
-12.5802
-12.6047
-12.6281
-12.6504
-12.6716
-12.6919
-12.7113
-12.7299
-12.7479
-12.7654
-12.7825
-12.7994
-12.8163
-12.8333
-12.8505
-12.8681
-12.8861
-12.9048
-12.924
-12.9439
-12.9644
-12.9853
-13.0064
-13.0273
-13.0475
-13.0665
-13.0834
-13.0972
-13.107
-13.1115
-13.11
-13.1018
-13.084
-13.0529
-12.4383
-12.4045
-12.3844
-12.374
-12.3704
-12.3732
-12.3816
-12.3947
-12.4114
-12.431
-12.4525
-12.4753
-12.4988
-12.5225
-12.5461
-12.5693
-12.5919
-12.6137
-12.6347
-12.6549
-12.6742
-12.6927
-12.7105
-12.7276
-12.7441
-12.7602
-12.776
-12.7915
-12.807
-12.8226
-12.8383
-12.8543
-12.8706
-12.8874
-12.9046
-12.9223
-12.9403
-12.9585
-12.9767
-12.9945
-13.0114
-13.027
-13.0405
-13.0512
-13.0583
-13.0608
-13.0583
-13.0502
-13.0343
-13.0076
-12.4868
-12.457
-12.4387
-12.4285
-12.4239
-12.4246
-12.4302
-12.4397
-12.4526
-12.4681
-12.4855
-12.5043
-12.524
-12.5441
-12.5643
-12.5843
-12.604
-12.6232
-12.6418
-12.6598
-12.677
-12.6937
-12.7097
-12.7252
-12.7402
-12.7548
-12.7691
-12.7833
-12.7973
-12.8114
-12.8256
-12.8399
-12.8546
-12.8695
-12.8848
-12.9004
-12.9161
-12.9319
-12.9475
-12.9626
-12.9768
-12.9896
-13.0005
-13.0088
-13.014
-13.0152
-13.0122
-13.0046
-12.9907
-12.9678
-12.5293
-12.5032
-12.4868
-12.4771
-12.472
-12.4713
-12.4747
-12.4816
-12.4913
-12.5034
-12.5173
-12.5326
-12.5488
-12.5655
-12.5825
-12.5996
-12.6165
-12.6331
-12.6493
-12.665
-12.6803
-12.695
-12.7092
-12.723
-12.7364
-12.7494
-12.7622
-12.7748
-12.7874
-12.7999
-12.8125
-12.8253
-12.8382
-12.8514
-12.8648
-12.8784
-12.892
-12.9057
-12.919
-12.9318
-12.9437
-12.9543
-12.9631
-12.9696
-12.9734
-12.9738
-12.9708
-12.964
-12.952
-12.9327
-12.5669
-12.5443
-12.5298
-12.5209
-12.5156
-12.5141
-12.5158
-12.5205
-12.5277
-12.537
-12.5479
-12.56
-12.5731
-12.5868
-12.6009
-12.6151
-12.6294
-12.6435
-12.6573
-12.6708
-12.6839
-12.6967
-12.7091
-12.7211
-12.7328
-12.7442
-12.7554
-12.7664
-12.7774
-12.7884
-12.7994
-12.8105
-12.8218
-12.8332
-12.8448
-12.8565
-12.8683
-12.8799
-12.8912
-12.902
-12.9119
-12.9207
-12.9279
-12.933
-12.9359
-12.9359
-12.9331
-12.9272
-12.9171
-12.9011
-12.6005
-12.5812
-12.5686
-12.5606
-12.5555
-12.5534
-12.554
-12.5571
-12.5622
-12.5691
-12.5773
-12.5868
-12.5971
-12.608
-12.6193
-12.6309
-12.6426
-12.6542
-12.6657
-12.677
-12.6881
-12.6989
-12.7094
-12.7196
-12.7295
-12.7393
-12.7488
-12.7583
-12.7676
-12.777
-12.7864
-12.7958
-12.8054
-12.8152
-12.825
-12.8349
-12.8449
-12.8547
-12.8642
-12.8732
-12.8815
-12.8887
-12.8945
-12.8987
-12.9009
-12.9008
-12.8984
-12.8936
-12.8854
-12.8725
-12.6308
-12.6147
-12.604
-12.597
-12.5923
-12.5899
-12.5898
-12.5915
-12.5949
-12.5998
-12.6058
-12.6128
-12.6206
-12.629
-12.6378
-12.6469
-12.6562
-12.6655
-12.6747
-12.6839
-12.6929
-12.7017
-12.7103
-12.7186
-12.7268
-12.7348
-12.7427
-12.7505
-12.7582
-12.7659
-12.7736
-12.7814
-12.7893
-12.7974
-12.8055
-12.8137
-12.8219
-12.83
-12.8378
-12.8453
-12.852
-12.8579
-12.8627
-12.8661
-12.868
-12.868
-12.8661
-12.8624
-12.8561
-12.8462
-12.6584
-12.6454
-12.6366
-12.6307
-12.6265
-12.6242
-12.6235
-12.6242
-12.6262
-12.6294
-12.6335
-12.6384
-12.6439
-12.65
-12.6564
-12.6632
-12.6701
-12.6772
-12.6843
-12.6913
-12.6983
-12.7051
-12.7118
-12.7183
-12.7247
-12.731
-12.7371
-12.7432
-12.7492
-12.7552
-12.7613
-12.7674
-12.7736
-12.7799
-12.7864
-12.7929
-12.7994
-12.8058
-12.8121
-12.818
-12.8235
-12.8283
-12.8321
-12.835
-12.8366
-12.8368
-12.8356
-12.833
-12.8286
-12.8217
-12.684
-12.6739
-12.6671
-12.6623
-12.6588
-12.6566
-12.6555
-12.6555
-12.6564
-12.6581
-12.6605
-12.6634
-12.667
-12.6709
-12.6752
-12.6797
-12.6845
-12.6894
-12.6944
-12.6994
-12.7043
-12.7092
-12.714
-12.7187
-12.7233
-12.7278
-12.7322
-12.7365
-12.7408
-12.7451
-12.7494
-12.7538
-12.7583
-12.7629
-12.7676
-12.7724
-12.7772
-12.7821
-12.7868
-12.7914
-12.7956
-12.7993
-12.8024
-12.8048
-12.8062
-12.8068
-12.8063
-12.805
-12.8024
-12.7983
-12.7081
-12.7009
-12.6959
-12.6923
-12.6896
-12.6876
-12.6864
-12.6857
-12.6856
-12.6861
-12.6869
-12.6882
-12.6899
-12.6918
-12.6941
-12.6966
-12.6993
-12.7021
-12.7051
-12.7081
-12.7111
-12.7141
-12.717
-12.7198
-12.7226
-12.7253
-12.7279
-12.7305
-12.733
-12.7356
-12.7381
-12.7408
-12.7435
-12.7463
-12.7493
-12.7523
-12.7555
-12.7587
-12.762
-12.7651
-12.7681
-12.7709
-12.7732
-12.7752
-12.7766
-12.7775
-12.7778
-12.7777
-12.777
-12.7758
-12.7311
-12.7267
-12.7236
-12.7213
-12.7193
-12.7177
-12.7163
-12.7152
-12.7143
-12.7136
-12.7131
-12.7128
-12.7127
-12.7129
-12.7132
-12.7138
-12.7145
-12.7154
-12.7164
-12.7174
-12.7185
-12.7196
-12.7207
-12.7218
-12.7227
-12.7236
-12.7245
-12.7252
-12.726
-12.7267
-12.7275
-12.7283
-12.7292
-12.7302
-12.7313
-12.7326
-12.7341
-12.7356
-12.7373
-12.7391
-12.7409
-12.7426
-12.7443
-12.7458
-12.7472
-12.7485
-12.7496
-12.7507
-12.752
-12.7535
-12.7535
-12.752
-12.7508
-12.7497
-12.7485
-12.7472
-12.7458
-12.7443
-12.7426
-12.7409
-12.7391
-12.7373
-12.7356
-12.7341
-12.7326
-12.7313
-12.7302
-12.7292
-12.7283
-12.7275
-12.7267
-12.726
-12.7252
-12.7245
-12.7236
-12.7227
-12.7218
-12.7207
-12.7196
-12.7185
-12.7174
-12.7164
-12.7154
-12.7145
-12.7138
-12.7132
-12.7129
-12.7127
-12.7128
-12.7131
-12.7136
-12.7143
-12.7152
-12.7163
-12.7177
-12.7193
-12.7213
-12.7236
-12.7267
-12.7311
-12.7758
-12.777
-12.7777
-12.7778
-12.7775
-12.7766
-12.7752
-12.7732
-12.7709
-12.7681
-12.7651
-12.762
-12.7587
-12.7555
-12.7523
-12.7493
-12.7463
-12.7435
-12.7408
-12.7381
-12.7356
-12.733
-12.7305
-12.7279
-12.7253
-12.7226
-12.7198
-12.717
-12.7141
-12.7111
-12.7081
-12.7051
-12.7021
-12.6993
-12.6966
-12.6941
-12.6918
-12.6898
-12.6882
-12.6869
-12.6861
-12.6856
-12.6857
-12.6863
-12.6876
-12.6896
-12.6923
-12.6959
-12.7009
-12.7081
-12.7983
-12.8024
-12.805
-12.8063
-12.8068
-12.8062
-12.8048
-12.8024
-12.7993
-12.7956
-12.7914
-12.7868
-12.7821
-12.7773
-12.7724
-12.7676
-12.7629
-12.7583
-12.7538
-12.7494
-12.7451
-12.7408
-12.7365
-12.7322
-12.7278
-12.7233
-12.7187
-12.714
-12.7092
-12.7043
-12.6994
-12.6944
-12.6894
-12.6845
-12.6797
-12.6752
-12.6709
-12.6669
-12.6634
-12.6605
-12.6581
-12.6564
-12.6555
-12.6555
-12.6566
-12.6588
-12.6623
-12.6671
-12.6739
-12.684
-12.8217
-12.8286
-12.833
-12.8356
-12.8368
-12.8366
-12.835
-12.8321
-12.8283
-12.8235
-12.818
-12.8121
-12.8058
-12.7994
-12.7929
-12.7864
-12.7799
-12.7736
-12.7674
-12.7613
-12.7552
-12.7492
-12.7432
-12.7371
-12.731
-12.7247
-12.7183
-12.7118
-12.7051
-12.6983
-12.6913
-12.6843
-12.6772
-12.6701
-12.6632
-12.6564
-12.65
-12.6439
-12.6384
-12.6335
-12.6294
-12.6262
-12.6242
-12.6234
-12.6242
-12.6265
-12.6307
-12.6366
-12.6454
-12.6584
-12.8462
-12.8561
-12.8624
-12.8661
-12.868
-12.868
-12.8661
-12.8627
-12.858
-12.852
-12.8453
-12.8378
-12.83
-12.8219
-12.8137
-12.8055
-12.7974
-12.7893
-12.7814
-12.7736
-12.7659
-12.7582
-12.7505
-12.7427
-12.7348
-12.7268
-12.7186
-12.7103
-12.7017
-12.6929
-12.6839
-12.6747
-12.6655
-12.6562
-12.6469
-12.6378
-12.629
-12.6206
-12.6128
-12.6058
-12.5998
-12.5949
-12.5915
-12.5897
-12.5899
-12.5923
-12.5969
-12.604
-12.6147
-12.6308
-12.8725
-12.8854
-12.8936
-12.8984
-12.9009
-12.9009
-12.8987
-12.8945
-12.8887
-12.8815
-12.8732
-12.8642
-12.8547
-12.8449
-12.8349
-12.825
-12.8152
-12.8054
-12.7958
-12.7864
-12.777
-12.7676
-12.7583
-12.7488
-12.7393
-12.7295
-12.7196
-12.7094
-12.6989
-12.6881
-12.677
-12.6657
-12.6542
-12.6426
-12.6309
-12.6193
-12.608
-12.5971
-12.5868
-12.5773
-12.569
-12.5622
-12.5571
-12.554
-12.5534
-12.5555
-12.5606
-12.5686
-12.5812
-12.6005
-12.9011
-12.9171
-12.9272
-12.9331
-12.9359
-12.9359
-12.9331
-12.9279
-12.9207
-12.9119
-12.902
-12.8912
-12.8799
-12.8683
-12.8565
-12.8448
-12.8332
-12.8218
-12.8105
-12.7994
-12.7884
-12.7774
-12.7664
-12.7554
-12.7442
-12.7328
-12.7211
-12.7091
-12.6967
-12.6839
-12.6708
-12.6573
-12.6434
-12.6294
-12.6151
-12.6009
-12.5868
-12.5731
-12.56
-12.5479
-12.537
-12.5277
-12.5205
-12.5158
-12.514
-12.5156
-12.5208
-12.5298
-12.5443
-12.5669
-12.9327
-12.952
-12.964
-12.9708
-12.9738
-12.9734
-12.9696
-12.9631
-12.9543
-12.9437
-12.9318
-12.919
-12.9057
-12.892
-12.8784
-12.8648
-12.8514
-12.8382
-12.8253
-12.8125
-12.7999
-12.7874
-12.7748
-12.7622
-12.7494
-12.7364
-12.723
-12.7092
-12.695
-12.6803
-12.665
-12.6493
-12.6331
-12.6165
-12.5996
-12.5825
-12.5655
-12.5487
-12.5326
-12.5173
-12.5034
-12.4913
-12.4815
-12.4747
-12.4713
-12.472
-12.4771
-12.4868
-12.5032
-12.5293
-12.9679
-12.9907
-13.0046
-13.0122
-13.0152
-13.014
-13.0088
-13.0005
-12.9896
-12.9768
-12.9626
-12.9475
-12.9319
-12.9161
-12.9004
-12.8848
-12.8695
-12.8546
-12.8399
-12.8256
-12.8114
-12.7973
-12.7833
-12.7691
-12.7548
-12.7402
-12.7252
-12.7097
-12.6937
-12.677
-12.6598
-12.6418
-12.6232
-12.604
-12.5843
-12.5643
-12.5441
-12.524
-12.5043
-12.4855
-12.4681
-12.4526
-12.4397
-12.4301
-12.4246
-12.4239
-12.4285
-12.4387
-12.457
-12.4867
-13.0076
-13.0343
-13.0502
-13.0583
-13.0608
-13.0583
-13.0512
-13.0405
-13.027
-13.0114
-12.9945
-12.9767
-12.9585
-12.9403
-12.9223
-12.9046
-12.8874
-12.8706
-12.8543
-12.8383
-12.8226
-12.807
-12.7915
-12.776
-12.7602
-12.7441
-12.7276
-12.7104
-12.6927
-12.6742
-12.6549
-12.6347
-12.6137
-12.5919
-12.5693
-12.5461
-12.5225
-12.4988
-12.4753
-12.4525
-12.4309
-12.4114
-12.3947
-12.3816
-12.3732
-12.3704
-12.374
-12.3844
-12.4045
-12.4383
-13.0529
-13.084
-13.1018
-13.11
-13.1115
-13.107
-13.0972
-13.0834
-13.0665
-13.0475
-13.0273
-13.0064
-12.9853
-12.9644
-12.9439
-12.924
-12.9048
-12.8861
-12.8681
-12.8505
-12.8333
-12.8163
-12.7994
-12.7825
-12.7654
-12.7479
-12.7299
-12.7113
-12.6919
-12.6716
-12.6504
-12.6281
-12.6047
-12.5802
-12.5546
-12.5282
-12.5009
-12.4732
-12.4455
-12.4181
-12.3919
-12.3675
-12.3461
-12.3286
-12.3164
-12.3106
-12.3124
-12.3225
-12.3443
-12.3826
-13.1052
-13.1412
-13.1609
-13.1687
-13.1684
-13.1608
-13.1473
-13.1293
-13.1082
-13.0851
-13.0609
-13.0363
-13.0119
-12.988
-12.9649
-12.9426
-12.9212
-12.9007
-12.8809
-12.8618
-12.8431
-12.8248
-12.8067
-12.7885
-12.7702
-12.7514
-12.7321
-12.7121
-12.6912
-12.6693
-12.6462
-12.6218
-12.596
-12.5689
-12.5404
-12.5105
-12.4795
-12.4475
-12.415
-12.3826
-12.3509
-12.3208
-12.2936
-12.2705
-12.2532
-12.2434
-12.2424
-12.2515
-12.2748
-12.318
-13.1662
-13.2079
-13.2292
-13.2359
-13.2325
-13.2206
-13.202
-13.1786
-13.1521
-13.1239
-13.0949
-13.0661
-13.0379
-13.0107
-12.9847
-12.9599
-12.9364
-12.9139
-12.8925
-12.8719
-12.8519
-12.8323
-12.813
-12.7938
-12.7743
-12.7545
-12.734
-12.7127
-12.6905
-12.667
-12.6422
-12.6159
-12.5879
-12.5582
-12.5267
-12.4934
-12.4584
-12.4219
-12.3842
-12.346
-12.308
-12.2712
-12.2369
-12.2068
-12.1828
-12.1673
-12.1621
-12.1692
-12.1937
-12.2426
-13.2384
-13.2867
-13.3094
-13.3135
-13.3053
-13.2871
-13.2616
-13.2311
-13.1979
-13.1634
-13.1289
-13.0952
-13.0628
-13.032
-13.0029
-12.9755
-12.9497
-12.9254
-12.9024
-12.8804
-12.8592
-12.8386
-12.8183
-12.798
-12.7776
-12.7569
-12.7354
-12.7131
-12.6897
-12.6649
-12.6386
-12.6105
-12.5804
-12.5482
-12.5138
-12.477
-12.4379
-12.3966
-12.3534
-12.3088
-12.2636
-12.2188
-12.1759
-12.1369
-12.1043
-12.0809
-12.0695
-12.0729
-12.0981
-12.1534
-13.325
-13.3813
-13.4044
-13.4039
-13.3882
-13.3612
-13.3263
-13.2867
-13.245
-13.2031
-13.162
-13.1228
-13.0857
-13.051
-13.0187
-12.9887
-12.9608
-12.9347
-12.9102
-12.8869
-12.8647
-12.8432
-12.8221
-12.8011
-12.78
-12.7585
-12.7363
-12.7131
-12.6888
-12.6629
-12.6352
-12.6056
-12.5736
-12.5391
-12.5019
-12.4617
-12.4185
-12.3723
-12.3232
-12.2716
-12.2182
-12.1641
-12.1108
-12.0607
-12.0166
-11.9823
-11.9618
-11.9592
-11.9839
-12.0467
-13.431
-13.4967
-13.5186
-13.51
-13.4831
-13.4435
-13.396
-13.3447
-13.2926
-13.2418
-13.1933
-13.1478
-13.1058
-13.067
-13.0315
-12.999
-12.969
-12.9413
-12.9155
-12.8912
-12.8682
-12.846
-12.8243
-12.8028
-12.7812
-12.7592
-12.7365
-12.7128
-12.6877
-12.661
-12.6323
-12.6014
-12.5678
-12.5313
-12.4914
-12.448
-12.4008
-12.3495
-12.2943
-12.2351
-12.1726
-12.1077
-12.042
-11.978
-11.919
-11.8698
-11.8359
-11.8233
-11.8454
-11.917
-13.564
-13.6405
-13.6577
-13.6354
-13.5914
-13.5341
-13.4699
-13.4038
-13.3392
-13.278
-13.2211
-13.1691
-13.1218
-13.079
-13.0404
-13.0055
-12.9738
-12.9447
-12.918
-12.893
-12.8694
-12.8468
-12.8248
-12.803
-12.7813
-12.759
-12.7361
-12.7121
-12.6866
-12.6594
-12.63
-12.5981
-12.5632
-12.525
-12.4829
-12.4366
-12.3855
-12.3294
-12.2678
-12.2007
-12.1283
-12.0512
-11.9708
-11.8895
-11.8112
-11.7416
-11.6879
-11.6591
-11.6745
-11.7559
-13.7363
-13.8237
-13.8293
-13.7841
-13.7145
-13.6325
-13.5464
-13.462
-13.3825
-13.3095
-13.2437
-13.1848
-13.1324
-13.0859
-13.0446
-13.0077
-12.9746
-12.9446
-12.9172
-12.8918
-12.8681
-12.8454
-12.8234
-12.8018
-12.7801
-12.758
-12.7351
-12.7111
-12.6856
-12.6582
-12.6285
-12.596
-12.5603
-12.5208
-12.4769
-12.4281
-12.3737
-12.313
-12.2453
-12.1701
-12.0872
-11.9966
-11.8991
-11.7968
-11.6936
-11.5961
-11.5133
-11.4583
-11.4594
-11.55
-13.969
-14.0631
-14.0435
-13.96
-13.8522
-13.7363
-13.6221
-13.5156
-13.4192
-13.3337
-13.2587
-13.1933
-13.1363
-13.0866
-13.0431
-13.0048
-12.9709
-12.9405
-12.913
-12.8877
-12.8642
-12.8418
-12.8203
-12.799
-12.7778
-12.7561
-12.7337
-12.71
-12.6848
-12.6577
-12.628
-12.5955
-12.5594
-12.5192
-12.4742
-12.4235
-12.3664
-12.3017
-12.2285
-12.1457
-12.0521
-11.9471
-11.8304
-11.7032
-11.5686
-11.4333
-11.308
-11.2105
-11.1823
-11.2763
-14.3013
-14.384
-14.3117
-14.1655
-14.0016
-13.8403
-13.6915
-13.5594
-13.445
-13.3469
-13.2634
-13.1923
-13.1317
-13.0798
-13.0351
-12.9963
-12.9624
-12.9323
-12.9052
-12.8806
-12.8577
-12.8362
-12.8154
-12.795
-12.7745
-12.7537
-12.732
-12.7091
-12.6846
-12.6581
-12.629
-12.5969
-12.561
-12.5208
-12.4754
-12.4238
-12.365
-12.2975
-12.2198
-12.1302
-12.0267
-11.9073
-11.7703
-11.6147
-11.4417
-11.2563
-11.0696
-10.9033
-10.8164
-10.8932
-14.8051
-14.8242
-14.6454
-14.3979
-14.154
-13.9344
-13.7451
-13.5859
-13.4539
-13.3447
-13.2545
-13.1796
-13.1171
-13.0645
-13.02
-12.9818
-12.9488
-12.9197
-12.8939
-12.8705
-12.8488
-12.8285
-12.809
-12.7898
-12.7705
-12.7508
-12.7303
-12.7086
-12.6852
-12.6598
-12.6318
-12.6007
-12.5658
-12.5264
-12.4815
-12.4301
-12.3708
-12.302
-12.2216
-12.1272
-12.0157
-11.8835
-11.7266
-11.5409
-11.3234
-11.0743
-10.8007
-10.525
-10.3226
-10.3252
-15.6113
-15.4337
-15.0524
-14.6478
-14.2941
-14.0037
-13.7709
-13.5862
-13.4397
-13.3231
-13.2295
-13.1537
-13.0917
-13.0405
-12.9976
-12.9613
-12.9302
-12.9032
-12.8792
-12.8576
-12.8378
-12.8192
-12.8013
-12.7837
-12.7661
-12.7479
-12.729
-12.7088
-12.687
-12.6631
-12.6367
-12.6072
-12.5739
-12.5362
-12.4929
-12.4429
-12.3848
-12.3167
-12.236
-12.1398
-12.0237
-11.8824
-11.7089
-11.4946
-11.2294
-10.9035
-10.5117
-10.0678
-9.64994
-9.4381
-17.0165
-16.2531
-15.5083
-14.8817
-14.3911
-14.0243
-13.7527
-13.55
-13.3965
-13.2787
-13.1867
-13.1139
-13.0554
-13.0077
-12.9684
-12.9354
-12.9073
-12.8831
-12.8618
-12.8427
-12.8251
-12.8087
-12.7928
-12.7772
-12.7615
-12.7452
-12.7282
-12.7099
-12.69
-12.6682
-12.6439
-12.6166
-12.5857
-12.5504
-12.5098
-12.4628
-12.4076
-12.3425
-12.2647
-12.1706
-12.0551
-11.9112
-11.7288
-11.4937
-11.1857
-10.7771
-10.2382
-9.5583
-8.75837
-7.92703
-19.8507
-17.2514
-15.8321
-14.9454
-14.3375
-13.9261
-13.6459
-13.4489
-13.3058
-13.199
-13.1175
-13.0539
-13.0034
-12.9627
-12.9293
-12.9016
-12.8782
-12.858
-12.8404
-12.8246
-12.8101
-12.7964
-12.7832
-12.7701
-12.7568
-12.743
-12.7283
-12.7125
-12.6952
-12.676
-12.6545
-12.6303
-12.6028
-12.5713
-12.535
-12.4928
-12.4432
-12.3846
-12.3142
-12.2286
-12.1226
-11.9887
-11.8152
-11.5838
-11.2642
-10.8059
-10.1397
-9.18103
-7.67536
-4.95614
-24.7192
-18.3344
-15.668
-14.5689
-13.9714
-13.6162
-13.3959
-13.2494
-13.1457
-13.0689
-13.0104
-12.9648
-12.9286
-12.8995
-12.8757
-12.8559
-12.8393
-12.825
-12.8126
-12.8014
-12.791
-12.7812
-12.7716
-12.7619
-12.7519
-12.7413
-12.7298
-12.7173
-12.7034
-12.6879
-12.6703
-12.6505
-12.6279
-12.6019
-12.572
-12.5373
-12.4968
-12.4492
-12.3924
-12.324
-12.2402
-12.1352
-11.9998
-11.8173
-11.556
-11.152
-10.4888
-9.29484
-6.51111
9.72521e-05
)
;

boundaryField
{
    movingWallTop
    {
        type            zeroGradient;
    }
    movingWallBottom
    {
        type            zeroGradient;
    }
    fixedWalls
    {
        type            zeroGradient;
    }
    frontAndBack
    {
        type            empty;
    }
}


// ************************************************************************* //
