/*--------------------------------*- C++ -*----------------------------------*\
  =========                 |
  \\      /  F ield         | OpenFOAM: The Open Source CFD Toolbox
   \\    /   O peration     | Website:  https://openfoam.org
    \\  /    A nd           | Version:  7
     \\/     M anipulation  |
\*---------------------------------------------------------------------------*/
FoamFile
{
    version     2.0;
    format      ascii;
    class       volScalarField;
    location    "0.0616";
    object      p;
}
// * * * * * * * * * * * * * * * * * * * * * * * * * * * * * * * * * * * * * //

dimensions      [0 2 -2 0 0 0 0];

internalField   nonuniform List<scalar> 
2500
(
1.15539e-05
-0.000500533
-0.00214477
-0.00459187
-0.0074666
-0.0104552
-0.013319
-0.0158707
-0.0179693
-0.0195115
-0.0204252
-0.020664
-0.0202026
-0.0190336
-0.0171648
-0.0146165
-0.0114202
-0.00761714
-0.00325655
0.00160509
0.00690511
0.0125754
0.0185433
0.0247322
0.0310623
0.0374511
0.043815
0.0500693
0.0561293
0.0619117
0.0673356
0.0723235
0.0768031
0.0807086
0.0839824
0.0865767
0.0884552
0.0895956
0.0899915
0.0896546
0.0886175
0.0869366
0.0846959
0.0820114
0.0790374
0.0759707
0.0730593
0.0706088
0.0690054
0.0685353
0.000539102
2.41872e-05
-0.00131692
-0.0032603
-0.0055228
-0.0078845
-0.010157
-0.0121845
-0.0138437
-0.0150407
-0.0157065
-0.0157944
-0.0152766
-0.0141415
-0.0123916
-0.0100417
-0.00711701
-0.00365183
0.000311377
0.00472316
0.00952802
0.0146652
0.0200696
0.0256721
0.0314009
0.0371816
0.0429386
0.0485957
0.0540768
0.0593074
0.0642152
0.0687318
0.0727937
0.0763437
0.0793324
0.0817197
0.0834769
0.0845876
0.0850507
0.0848811
0.084113
0.0828011
0.081024
0.078886
0.0765205
0.0740919
0.0717953
0.0698496
0.0685311
0.0680653
0.00218707
0.00137002
1.65468e-05
-0.00174092
-0.003725
-0.00576462
-0.00770876
-0.00942942
-0.0108218
-0.0118033
-0.0123118
-0.0123039
-0.0117523
-0.0106446
-0.00898106
-0.00677329
-0.0040427
-0.000819377
0.00285898
0.00694795
0.0113972
0.0161514
0.0211509
0.0263324
0.0316298
0.0369749
0.042298
0.047529
0.0525981
0.0574369
0.0619795
0.0661636
0.0699317
0.0732321
0.0760209
0.078263
0.0799335
0.0810196
0.081522
0.0814565
0.0808555
0.0797698
0.07827
0.0764481
0.0744179
0.0723153
0.0702968
0.0685349
0.0672096
0.0664664
0.00466777
0.00332732
0.00175258
-3.34328e-05
-0.00194894
-0.00385881
-0.00564161
-0.00719463
-0.00843137
-0.009282
-0.0096931
-0.00962656
-0.00905829
-0.00797688
-0.00638234
-0.00428484
-0.00170364
0.00133403
0.00479377
0.00863487
0.012811
0.0172711
0.0219598
0.0268185
0.0317857
0.0367978
0.04179
0.046697
0.0514538
0.0559967
0.0602644
0.064199
0.0677471
0.0708613
0.0735008
0.0756335
0.0772367
0.078299
0.078821
0.0788173
0.0783168
0.0773648
0.0760227
0.0743695
0.0725007
0.0705272
0.0685766
0.0667871
0.065249
0.0640008
0.00763357
0.00564696
0.00373639
0.00180394
-0.000159802
-0.00204871
-0.00376632
-0.0052331
-0.00638046
-0.0071516
-0.00750248
-0.00740152
-0.00682882
-0.00577537
-0.00424202
-0.00223856
0.000217015
0.00309941
0.00637672
0.0100112
0.0139597
0.0181749
0.0226052
0.0271957
0.0318891
0.0366258
0.041345
0.0459853
0.0504859
0.0547868
0.0588305
0.0625624
0.0659325
0.0688959
0.0714143
0.0734574
0.0750034
0.0760409
0.0765697
0.0766015
0.0761612
0.0752872
0.0740318
0.0724609
0.0706528
0.068696
0.0666942
0.0647585
0.0628926
0.0610165
0.0108165
0.00813378
0.00581608
0.00365351
0.00155335
-0.000400414
-0.00213147
-0.00358056
-0.00469553
-0.00543214
-0.00575582
-0.00564198
-0.00507566
-0.00405098
-0.00257049
-0.000644528
0.00170934
0.00446698
0.00759822
0.0110675
0.0148345
0.0188545
0.0230791
0.0274568
0.0319333
0.0364525
0.0409568
0.0453883
0.049689
0.0538022
0.0576729
0.0612493
0.0644832
0.0673317
0.0697578
0.0717317
0.0732316
0.0742453
0.0747704
0.0748154
0.0744002
0.0735563
0.0723268
0.0707656
0.0689355
0.0669058
0.0647613
0.0625927
0.0603243
0.0577672
0.014014
0.0106229
0.00785708
0.00540631
0.00310443
0.0010196
-0.000787565
-0.00227498
-0.00340486
-0.00414456
-0.00446873
-0.00435983
-0.0038081
-0.0028113
-0.00137432
0.00049128
0.00276764
0.0054311
0.00845259
0.0117981
0.0154292
0.0193034
0.0233748
0.0275944
0.0319106
0.0362699
0.0406172
0.0448971
0.0490541
0.0530333
0.0567819
0.0602496
0.0633894
0.0661592
0.0685224
0.0704487
0.0719157
0.072909
0.0734238
0.0734645
0.0730457
0.0721923
0.0709384
0.0693275
0.0674088
0.065236
0.0628798
0.0604169
0.0577017
0.0544487
0.0170689
0.0129762
0.00974174
0.00696555
0.00441699
0.00215352
0.000223901
-0.00134413
-0.00252515
-0.00329688
-0.00364254
-0.00355143
-0.00301909
-0.00204717
-0.00064327
0.00117933
0.00340194
0.00600079
0.00894729
0.0122084
0.0157471
0.0195226
0.0234907
0.0276043
0.0318138
0.0360677
0.040313
0.0444958
0.0485623
0.0524591
0.0561344
0.0595385
0.062625
0.0653518
0.0676815
0.0695829
0.0710318
0.0720116
0.0725137
0.0725386
0.0720955
0.0712026
0.0698863
0.0681804
0.0661233
0.0637558
0.0611388
0.0583405
0.0551542
0.051208
0.0198585
0.0150786
0.0113672
0.00824258
0.00541723
0.00294189
0.000856513
-0.000822928
-0.00208163
-0.00290638
-0.00328819
-0.00322283
-0.00271103
-0.00175843
-0.000375591
0.00142217
0.00361492
0.00617832
0.00908379
0.0122988
0.0157871
0.019509
0.0234216
0.0274792
0.0316337
0.0358348
0.0400308
0.0441691
0.0481967
0.052061
0.0557105
0.0590955
0.0621692
0.0648887
0.0672154
0.0691164
0.0705649
0.0715413
0.0720334
0.0720371
0.0715563
0.070603
0.0691964
0.0673624
0.0651302
0.0625308
0.0596185
0.0564573
0.0527869
0.0481575
0.0222853
0.0168336
0.0126428
0.009156
0.00603406
0.00332408
0.00105978
-0.000752587
-0.00210728
-0.00299903
-0.00342585
-0.00338949
-0.00289566
-0.00195402
-0.000578201
0.00121419
0.00340168
0.00595901
0.0088572
0.0120638
0.0155429
0.0192554
0.0231592
0.0272096
0.0313593
0.0355588
0.0397573
0.0439026
0.0479421
0.0518232
0.055494
0.0589044
0.0620065
0.0647558
0.0671118
0.069039
0.0705079
0.0714953
0.0719848
0.0719678
0.0714428
0.070416
0.0689004
0.066915
0.0644814
0.0616233
0.0583912
0.0548482
0.0506861
0.0453829
0.0242688
0.0181576
0.0134876
0.00963037
0.00619921
0.00323965
0.000781147
-0.00117813
-0.00264017
-0.0036067
-0.004082
-0.00407338
-0.00359128
-0.00264929
-0.00126422
0.000543903
0.00275183
0.0053331
0.00825801
0.0114938
0.0150045
0.0187513
0.0226925
0.0267836
0.0309779
0.0352265
0.0394784
0.0436818
0.0477836
0.0517308
0.0554707
0.0589518
0.0621246
0.0649424
0.0673622
0.0693456
0.0708593
0.0718762
0.0723757
0.0723442
0.0717752
0.0706691
0.0690333
0.0668811
0.0642282
0.0610924
0.0575228
0.0535842
0.0489241
0.0429525
0.0257389
0.0189763
0.0138272
0.00959463
0.00584645
0.00262815
-3.37036e-05
-0.00214772
-0.00372257
-0.00476617
-0.00528854
-0.00530214
-0.00482192
-0.00386532
-0.00245231
-0.000605479
0.00164998
0.00428615
0.00727237
0.0105752
0.0141584
0.017983
0.0220073
0.0261869
0.0304751
0.0348229
0.0391792
0.0434917
0.0477067
0.05177
0.0556276
0.0592261
0.0625137
0.0654412
0.0679622
0.0700348
0.0716218
0.0726916
0.0732188
0.0731848
0.0725779
0.0713933
0.0696332
0.0673057
0.0644218
0.0609952
0.057075
0.0527295
0.0475643
0.0409233
0.0266318
0.0192209
0.0135918
0.00898042
0.00491053
0.00142854
-0.00144099
-0.00371252
-0.00540061
-0.00651878
-0.00708233
-0.00710862
-0.00661691
-0.00562841
-0.00416628
-0.00225572
7.59717e-05
0.00279926
0.00588227
0.00929068
0.0129877
0.0169338
0.0210871
0.025403
0.0298343
0.0343317
0.0388437
0.043317
0.0476967
0.0519272
0.0559525
0.059717
0.0631661
0.0662472
0.0689103
0.0711093
0.0728024
0.0739532
0.0745312
0.0745124
0.0738799
0.0726237
0.070741
0.0682356
0.0651146
0.0613882
0.0571071
0.0523444
0.0466647
0.0393463
0.0268865
0.0188252
0.0127135
0.00772041
0.00332612
-0.000421465
-0.00349919
-0.00592676
-0.00772417
-0.0089101
-0.00950487
-0.00953051
-0.0090105
-0.00796977
-0.0064347
-0.00443318
-0.00199473
0.000849357
0.00406578
0.00761916
0.0114718
0.0155838
0.0199124
0.0244126
0.0290368
0.0337349
0.0384545
0.0431411
0.0477383
0.0521887
0.0564339
0.0604155
0.0640755
0.0673575
0.0702074
0.0725743
0.0744112
0.0756764
0.0763338
0.0763539
0.075714
0.074399
0.0724013
0.0697206
0.0663604
0.0623286
0.0576781
0.0524877
0.0462812
0.03827
0.0264419
0.0177231
0.0111244
0.0057467
0.00102661
-0.00298614
-0.00626943
-0.00884796
-0.0107469
-0.0119898
-0.012602
-0.01261
-0.0120414
-0.0109251
-0.00929051
-0.00716842
-0.00459064
-0.00159041
0.00179744
0.0055363
0.00958752
0.0139102
0.0184612
0.0231946
0.0280622
0.0330128
0.0379929
0.0429466
0.0478159
0.0525408
0.0570604
0.0613129
0.0652367
0.0687709
0.0718567
0.0744377
0.0764615
0.0778802
0.0786516
0.07874
0.0781171
0.076762
0.0746623
0.0718137
0.0682164
0.0638762
0.0588488
0.0532198
0.0464706
0.0377441
0.0252351
0.0158471
0.00875472
0.0029894
-0.00205695
-0.00633253
-0.00981607
-0.0125372
-0.0145262
-0.0158117
-0.0164237
-0.0163933
-0.0157527
-0.0145341
-0.0127706
-0.0104957
-0.0077439
-0.00455029
-0.000951419
0.00301475
0.00730849
0.011888
0.0167093
0.0217256
0.0268878
0.0321439
0.0374388
0.0427151
0.0479127
0.0529691
0.0578203
0.062401
0.0666452
0.0704873
0.0738628
0.0767097
0.0789691
0.0805864
0.0815127
0.0817056
0.0811302
0.0797598
0.0775766
0.0745722
0.0707436
0.0660943
0.0606836
0.0546039
0.0472929
0.0378215
0.0231996
0.0131265
0.00553184
-0.000624558
-0.00599688
-0.0105313
-0.0142073
-0.0170596
-0.0191239
-0.0204337
-0.0210241
-0.0209311
-0.020191
-0.0188402
-0.0169153
-0.0144529
-0.0114898
-0.0080635
-0.00421224
2.45962e-05
0.00460614
0.00948963
0.0146301
0.0199802
0.0254896
0.0311051
0.0367706
0.0424267
0.048011
0.0534585
0.0587017
0.0636713
0.0682968
0.0725071
0.0762317
0.0794021
0.0819521
0.0838199
0.0849489
0.0852893
0.0847988
0.0834441
0.0812019
0.0780588
0.0740083
0.0690518
0.063252
0.0567088
0.0488134
0.0385608
0.0202641
0.00948621
0.00137875
-0.0051726
-0.0108699
-0.0156573
-0.0195155
-0.0224847
-0.0246057
-0.0259178
-0.0264613
-0.0262772
-0.0254067
-0.0238902
-0.0217681
-0.0190802
-0.0158662
-0.0121656
-0.00801865
-0.00346611
0.00144995
0.00668583
0.0121957
0.0179314
0.0238416
0.0298722
0.0359654
0.0420603
0.0480921
0.053993
0.0596919
0.0651152
0.0701873
0.0748313
0.0789702
0.0825279
0.0854306
0.087608
0.0889952
0.0895336
0.0891729
0.0878722
0.0856015
0.0823422
0.0780835
0.0728244
0.0666309
0.0596104
0.0511049
0.0400284
0.0163512
0.0048453
-0.00378716
-0.0107376
-0.0167581
-0.0217911
-0.0258186
-0.0288865
-0.0310421
-0.0323303
-0.0327973
-0.0324895
-0.0314533
-0.0297336
-0.0273749
-0.0244205
-0.0209128
-0.0168939
-0.0124057
-0.00749064
-0.00219178
0.00344624
0.00937686
0.0155511
0.021917
0.0284194
0.0349993
0.0415939
0.0481363
0.0545557
0.0607774
0.0667233
0.0723123
0.0774612
0.0820857
0.0861018
0.0894268
0.0919811
0.09369
0.0944855
0.0943077
0.093107
0.0908456
0.0874987
0.0830504
0.0774963
0.0709057
0.0633939
0.0542496
0.0423005
0.0113766
-0.000884024
-0.0100553
-0.0174092
-0.0237501
-0.0290189
-0.0331997
-0.0363448
-0.0385083
-0.0397417
-0.0400977
-0.0396288
-0.0383869
-0.0364223
-0.0337836
-0.0305178
-0.0266706
-0.0222864
-0.0174092
-0.0120827
-0.00635118
-0.000259901
0.00614396
0.0128109
0.0196884
0.0267206
0.0338474
0.0410045
0.0481229
0.0551289
0.061944
0.0684856
0.0746668
0.0803977
0.0855862
0.0901392
0.0939643
0.0969716
0.0990754
0.100196
0.100264
0.0992181
0.097012
0.0936131
0.0889992
0.0831617
0.0761727
0.0681554
0.058341
0.0454647
0.00524786
-0.00779773
-0.0175231
-0.0252847
-0.0319418
-0.0374343
-0.0417487
-0.044945
-0.0470847
-0.048227
-0.0484318
-0.0477588
-0.0462661
-0.0440095
-0.0410426
-0.0374166
-0.0331803
-0.028381
-0.0230643
-0.0172755
-0.0110597
-0.00446266
0.00246806
0.00968279
0.0171289
0.0247499
0.0324852
0.0402692
0.048031
0.0556943
0.0631771
0.0703918
0.0772458
0.0836419
0.0894797
0.0946563
0.0990686
0.102615
0.105197
0.106722
0.107108
0.106283
0.104187
0.10078
0.0960314
0.0899269
0.082541
0.0740044
0.0634864
0.0496222
-0.00213641
-0.0160012
-0.0262976
-0.0344707
-0.041438
-0.0471389
-0.0515629
-0.0547787
-0.0568569
-0.0578653
-0.0578723
-0.0569455
-0.0551504
-0.0525491
-0.0492006
-0.0451607
-0.0404818
-0.0352138
-0.0294045
-0.0231001
-0.0163467
-0.00919014
-0.00167796
0.00614044
0.0142126
0.0224823
0.0308886
0.0393652
0.0478398
0.0562336
0.0644614
0.0724309
0.0800434
0.0871945
0.0937745
0.0996702
0.104766
0.108948
0.112103
0.114125
0.114914
0.114385
0.112467
0.109106
0.104261
0.097912
0.0901342
0.0810657
0.0698084
0.0548898
-0.010888
-0.0256105
-0.0364966
-0.0450845
-0.0523538
-0.0582435
-0.0627476
-0.0659449
-0.0679163
-0.0687401
-0.0684946
-0.0672567
-0.0651
-0.0620943
-0.0583046
-0.0537916
-0.0486118
-0.0428179
-0.0364595
-0.0295841
-0.0222379
-0.0144668
-0.00631782
0.00216059
0.0109168
0.0198953
0.0290356
0.0382713
0.0475293
0.0567289
0.0657819
0.0745918
0.083054
0.0910561
0.0984792
0.105199
0.111086
0.116012
0.119848
0.12247
0.123762
0.123621
0.121959
0.118708
0.113817
0.107253
0.0990934
0.0894822
0.0774482
0.0614026
-0.0211305
-0.0367545
-0.0482508
-0.0572562
-0.0648158
-0.0708697
-0.0754174
-0.0785497
-0.0803601
-0.080939
-0.0803766
-0.0787606
-0.0761746
-0.0726965
-0.0683985
-0.063347
-0.0576025
-0.0512209
-0.0442537
-0.0367491
-0.0287534
-0.0203119
-0.0114701
-0.00227526
0.00722278
0.01697
0.0269073
0.0369688
0.0470814
0.0571636
0.0671246
0.0768639
0.0862714
0.0952271
0.103602
0.11126
0.118057
0.123849
0.128488
0.13183
0.13374
0.134093
0.132783
0.129722
0.124845
0.118106
0.10958
0.099418
0.0865683
0.0693164
-0.0330009
-0.049577
-0.0617064
-0.0711304
-0.0789649
-0.0851515
-0.0896974
-0.0927079
-0.0942915
-0.0945533
-0.0935976
-0.0915252
-0.088431
-0.0844029
-0.079521
-0.073858
-0.0674792
-0.0604433
-0.0528038
-0.0446093
-0.0359057
-0.0267367
-0.0171462
-0.00717886
0.00311801
0.013693
0.0244892
0.0354426
0.0464811
0.0575231
0.0684763
0.0792372
0.0896903
0.0997081
0.109152
0.117872
0.125711
0.132504
0.138083
0.142283
0.144944
0.145917
0.145071
0.142298
0.13751
0.130647
0.121779
0.111062
0.0973562
0.0788113
-0.0466524
-0.0642395
-0.0770276
-0.0868698
-0.0949579
-0.101237
-0.105725
-0.108543
-0.10982
-0.109677
-0.108237
-0.105616
-0.101922
-0.0972548
-0.0917032
-0.0853472
-0.0782572
-0.0704952
-0.0621158
-0.053168
-0.0436964
-0.0337428
-0.0233478
-0.012553
-0.00140178
0.0100581
0.0217734
0.0336832
0.0457177
0.0577964
0.0698267
0.0817031
0.0933055
0.1045
0.115137
0.125054
0.134078
0.142023
0.148699
0.153914
0.157481
0.159221
0.158974
0.156604
0.151999
0.145078
0.135902
0.124631
0.110028
0.0900955
-0.062257
-0.0809251
-0.094401
-0.104658
-0.112972
-0.119292
-0.123649
-0.126189
-0.12706
-0.126408
-0.124375
-0.121095
-0.116694
-0.111284
-0.104966
-0.0978253
-0.0899395
-0.0813731
-0.0721821
-0.0624149
-0.0521141
-0.0413183
-0.0300644
-0.0183888
-0.00633026
0.00606893
0.0187605
0.0316882
0.0447862
0.0579767
0.0711685
0.0842551
0.0971133
0.109603
0.121565
0.132825
0.14319
0.152455
0.160403
0.166813
0.171464
0.174144
0.174657
0.172833
0.168527
0.161631
0.152194
0.140377
0.124836
0.10341
-0.0800102
-0.0998433
-0.11404
-0.124706
-0.133206
-0.139501
-0.143638
-0.145789
-0.146133
-0.144843
-0.142085
-0.138017
-0.132783
-0.126512
-0.119314
-0.111287
-0.102512
-0.0930568
-0.082978
-0.0723227
-0.0611306
-0.0494359
-0.03727
-0.0246634
-0.011648
0.00174073
0.0154614
0.0294644
0.0436894
0.0580636
0.0724988
0.0868896
0.101111
0.115019
0.128445
0.141202
0.153079
0.163848
0.173265
0.181074
0.187017
0.19084
0.192305
0.191199
0.187336
0.180572
0.170939
0.158594
0.142072
0.119036
-0.100136
-0.121237
-0.136194
-0.147255
-0.155891
-0.162073
-0.165873
-0.167499
-0.167166
-0.165079
-0.161438
-0.156427
-0.150212
-0.142941
-0.134737
-0.125708
-0.115941
-0.105505
-0.0944578
-0.0828436
-0.0706977
-0.0580487
-0.0449208
-0.0313368
-0.01732
-0.002897
0.0118997
0.0270291
0.0424391
0.0580636
0.0738201
0.0896065
0.105299
0.120749
0.135784
0.150202
0.163776
0.176253
0.187358
0.196799
0.204274
0.209479
0.212125
0.211946
0.208704
0.20221
0.192467
0.179622
0.162076
0.137298
-0.122896
-0.14539
-0.161152
-0.172589
-0.181289
-0.187244
-0.190559
-0.191487
-0.190288
-0.187211
-0.182494
-0.176354
-0.168985
-0.160553
-0.151199
-0.141039
-0.130165
-0.118651
-0.106551
-0.0939052
-0.080744
-0.0670878
-0.0529521
-0.0383497
-0.0232933
-0.00779854
0.00811336
0.0244125
0.0410573
0.0579916
0.0751409
0.0924096
0.109677
0.126796
0.143586
0.159838
0.175306
0.189714
0.202753
0.214091
0.223374
0.230244
0.234346
0.235349
0.232951
0.226899
0.217161
0.203863
0.185253
0.158582
-0.148597
-0.172643
-0.189261
-0.20104
-0.209707
-0.215284
-0.217921
-0.21793
-0.215631
-0.211326
-0.205299
-0.197809
-0.18908
-0.179303
-0.168634
-0.157199
-0.145096
-0.132398
-0.119157
-0.105407
-0.0911712
-0.076459
-0.0612754
-0.0456208
-0.029495
-0.0129001
0.00415635
0.0216583
0.0395778
0.0578714
0.0764763
0.0953065
0.114248
0.133158
0.151854
0.170118
0.187692
0.204273
0.21952
0.233054
0.244467
0.253332
0.25922
0.261719
0.26044
0.255055
0.245473
0.231792
0.212076
0.183338
-0.177609
-0.203404
-0.220937
-0.233007
-0.241507
-0.246505
-0.248212
-0.24702
-0.243325
-0.237497
-0.229879
-0.220775
-0.210447
-0.199111
-0.186941
-0.174073
-0.160607
-0.146615
-0.132143
-0.117219
-0.101852
-0.0860408
-0.0697768
-0.0530453
-0.0358307
-0.0181188
9.95473e-05
0.018825
0.0380462
0.0577362
0.0778475
0.0983078
0.119015
0.139833
0.160583
0.181044
0.200944
0.219961
0.237718
0.253788
0.267701
0.278954
0.287025
0.291403
0.291593
0.287161
0.277939
0.263973
0.243117
0.212105
-0.210382
-0.238177
-0.25669
-0.268969
-0.277116
-0.281262
-0.28171
-0.278957
-0.273494
-0.26578
-0.256228
-0.245198
-0.232992
-0.219855
-0.205977
-0.191502
-0.176531
-0.161131
-0.14534
-0.129173
-0.112626
-0.095682
-0.0783155
-0.0604944
-0.0421843
-0.0233522
-0.00396931
0.015985
0.0365196
0.0576276
0.0792811
0.101426
0.123978
0.146812
0.169761
0.192604
0.215062
0.236795
0.257394
0.276383
0.293225
0.307326
0.318061
0.324792
0.326891
0.323784
0.315193
0.301088
0.279061
0.245529
-0.247476
-0.27759
-0.297151
-0.309513
-0.317042
-0.31997
-0.318725
-0.313944
-0.306247
-0.2962
-0.284302
-0.270976
-0.256571
-0.241359
-0.225545
-0.209277
-0.192653
-0.175732
-0.158537
-0.141067
-0.123301
-0.105202
-0.0867245
-0.0678153
-0.0484188
-0.0284799
-0.00794703
0.0132236
0.0350647
0.0575935
0.0808065
0.104674
0.129133
0.154079
0.179361
0.204767
0.230021
0.254768
0.278572
0.300911
0.321174
0.338671
0.352649
0.362322
0.366887
0.365592
0.358
0.343963
0.32075
0.284398
-0.289602
-0.322442
-0.343115
-0.355362
-0.361897
-0.363104
-0.35959
-0.352181
-0.341663
-0.328735
-0.313996
-0.297945
-0.280974
-0.263383
-0.245387
-0.227133
-0.20871
-0.190158
-0.171483
-0.152663
-0.133652
-0.114392
-0.0948118
-0.0748342
-0.054379
-0.033366
-0.011718
0.0106355
0.0337546
0.0576849
0.0824523
0.108057
0.134464
0.161599
0.189334
0.217478
0.245764
0.273837
0.30124
0.327408
0.351658
0.373195
0.391122
0.404468
0.412217
0.413374
0.407283
0.393614
0.369223
0.329681
-0.337676
-0.373765
-0.395599
-0.407419
-0.412417
-0.411211
-0.404663
-0.393852
-0.379776
-0.363296
-0.345132
-0.325858
-0.305912
-0.285612
-0.265178
-0.244744
-0.224378
-0.2041
-0.183886
-0.163685
-0.143426
-0.123018
-0.102365
-0.0813598
-0.0598958
-0.0378642
-0.015159
0.00831979
0.0326635
0.0579505
0.0842406
0.11157
0.139941
0.169317
0.199604
0.230644
0.262194
0.29391
0.325332
0.355859
0.384743
0.411079
0.433809
0.451746
0.4636
0.468061
0.464166
0.451309
0.42579
0.382594
-0.392911
-0.432921
-0.455915
-0.466816
-0.469489
-0.464911
-0.454306
-0.439093
-0.420539
-0.399701
-0.377426
-0.354366
-0.330996
-0.307643
-0.284511
-0.261712
-0.239281
-0.217201
-0.195413
-0.173829
-0.152341
-0.130827
-0.109156
-0.087191
-0.0647936
-0.0418245
-0.0181465
0.00637326
0.0318602
0.0584292
0.0861797
0.11519
0.145508
0.177142
0.210051
0.244119
0.279148
0.314826
0.350703
0.386168
0.42042
0.452445
0.481015
0.504691
0.521847
0.530758
0.530031
0.518643
0.492127
0.444692
-0.456946
-0.501742
-0.525789
-0.534983
-0.534175
-0.524887
-0.50886
-0.487961
-0.463791
-0.437627
-0.410454
-0.382988
-0.355721
-0.328967
-0.302895
-0.277572
-0.252983
-0.229062
-0.2057
-0.182763
-0.160102
-0.137555
-0.114953
-0.0921252
-0.0688992
-0.0451029
-0.0205653
0.00488089
0.0313983
0.0591418
0.0882549
0.118864
0.151071
0.184944
0.2205
0.257693
0.296386
0.336325
0.377102
0.418124
0.45856
0.497311
0.532973
0.56383
0.587846
0.602764
0.606585
0.597662
0.570427
0.518008
-0.532053
-0.582739
-0.607516
-0.613736
-0.607731
-0.591862
-0.56859
-0.540365
-0.509185
-0.476567
-0.443614
-0.411081
-0.379442
-0.348962
-0.319745
-0.291785
-0.264996
-0.239243
-0.214356
-0.190144
-0.166408
-0.142939
-0.119529
-0.0959705
-0.0720535
-0.0475719
-0.0223202
0.00390544
0.0313061
0.0600799
0.0904178
0.122501
0.156492
0.192529
0.230708
0.271068
0.313561
0.358023
0.404131
0.451347
0.498862
0.545525
0.589782
0.629622
0.662538
0.685587
0.695946
0.69102
0.663616
0.605275
-0.621487
-0.679433
-0.704177
-0.705363
-0.691606
-0.666531
-0.633593
-0.595971
-0.556109
-0.51575
-0.47607
-0.437804
-0.401355
-0.366883
-0.334386
-0.30375
-0.27479
-0.247284
-0.220981
-0.195628
-0.170964
-0.146732
-0.12268
-0.098559
-0.0741243
-0.0491339
-0.0233475
0.00347543
0.0315757
0.0611952
0.0925757
0.125957
0.161571
0.199636
0.240343
0.283837
0.330192
0.379374
0.431193
0.485232
0.54077
0.596675
0.6513
0.702365
0.746839
0.780944
0.800734
0.802207
0.775702
0.71029
-0.730082
-0.79687
-0.819948
-0.812721
-0.787377
-0.749429
-0.703641
-0.654058
-0.603565
-0.554058
-0.506693
-0.462086
-0.420478
-0.381858
-0.346057
-0.312811
-0.281808
-0.252712
-0.225184
-0.198889
-0.173504
-0.148719
-0.124235
-0.0997624
-0.0750209
-0.0497342
-0.0236278
0.00357394
0.0321508
0.0623885
0.0945807
0.129028
0.166039
0.205919
0.24897
0.295468
0.34564
0.39963
0.457443
0.518867
0.583368
0.649952
0.71699
0.782022
0.841505
0.890687
0.92416
0.935863
0.912309
0.838553
-0.865336
-0.942449
-0.960492
-0.939272
-0.896596
-0.840685
-0.777938
-0.713308
-0.65001
-0.589922
-0.534001
-0.482591
-0.435648
-0.392894
-0.353925
-0.318282
-0.285488
-0.255076
-0.2266
-0.199642
-0.173809
-0.148736
-0.124078
-0.0995065
-0.0747075
-0.0493729
-0.0231972
0.00412809
0.0329186
0.0635022
0.0962227
0.131443
0.169547
0.210941
0.256044
0.305286
0.359082
0.417805
0.481728
0.550948
0.625257
0.703972
0.785686
0.867955
0.946858
1.01663
1.07007
1.09818
1.08153
0.998414
-1.0395
-1.12721
-1.13342
-1.08899
-1.02041
-0.939594
-0.854735
-0.771517
-0.693167
-0.621205
-0.556103
-0.497709
-0.44553
-0.398906
-0.357125
-0.319479
-0.2853
-0.253969
-0.224928
-0.197667
-0.171726
-0.146687
-0.12216
-0.0977841
-0.0732141
-0.0481148
-0.0221545
0.00500316
0.0337051
0.0643165
0.0972273
0.13286
0.171673
0.214172
0.260906
0.312472
0.369504
0.43265
0.502537
0.579689
0.664404
0.756556
0.855277
0.958515
1.06233
1.16016
1.2428
1.29735
1.29529
1.20328
-1.2738
-1.36787
-1.34862
-1.26582
-1.15879
-1.04387
-0.930751
-0.825211
-0.729796
-0.645096
-0.570669
-0.505568
-0.448654
-0.398764
-0.3548
-0.315766
-0.280779
-0.249065
-0.219947
-0.192829
-0.167189
-0.142558
-0.118514
-0.0946651
-0.0706436
-0.0460939
-0.0206645
0.00600155
0.0342756
0.0645527
0.0972616
0.132876
0.171925
0.215006
0.262799
0.316074
0.375702
0.442652
0.517974
0.602751
0.697996
0.804456
0.922271
1.0504
1.18566
1.32135
1.44666
1.5439
1.57135
1.47611
-1.60723
-1.68978
-1.61766
-1.47197
-1.30871
-1.14822
-1.00023
-0.869081
-0.755404
-0.65799
-0.574906
-0.50406
-0.443464
-0.391339
-0.346149
-0.306591
-0.271565
-0.240143
-0.211542
-0.185094
-0.160224
-0.136427
-0.113254
-0.0902962
-0.0671707
-0.043511
-0.0189545
0.00686747
0.0343409
0.0638804
0.0959425
0.13104
0.169758
0.212776
0.260888
0.315032
0.376314
0.446042
0.525743
0.617172
0.722264
0.843012
0.981171
1.13765
1.31134
1.49708
1.68398
1.85001
1.93641
1.85855
-2.11186
-2.13064
-1.95199
-1.70486
-1.46151
-1.24257
-1.05394
-0.895537
-0.764137
-0.655549
-0.565695
-0.490995
-0.428453
-0.375623
-0.330525
-0.291563
-0.257446
-0.227123
-0.199729
-0.174546
-0.150965
-0.128462
-0.106578
-0.0848971
-0.0630346
-0.0406231
-0.0173002
0.0073039
0.0335778
0.061943
0.0928683
0.126888
0.164624
0.206811
0.254333
0.308263
0.369917
0.440919
0.523278
0.619473
0.732522
0.866016
1.02401
1.2106
1.42878
1.67823
1.95203
2.22763
2.42961
2.42613
-2.91848
-2.74063
-2.35929
-1.95499
-1.60175
-1.31196
-1.07983
-0.895752
-0.749893
-0.633745
-0.540486
-0.464838
-0.402772
-0.351215
-0.307816
-0.270755
-0.238613
-0.210265
-0.184808
-0.161505
-0.13974
-0.118993
-0.0988093
-0.0787835
-0.0585416
-0.0377275
-0.0159904
0.00702819
0.0317066
0.0584578
0.0877452
0.120103
0.156162
0.196679
0.242583
0.295031
0.355483
0.425807
0.508419
0.606474
0.724101
0.866704
1.04125
1.25642
1.52221
1.84852
2.24057
2.68442
3.10193
3.31309
-4.32386
-3.56018
-2.81537
-2.18903
-1.69886
-1.33256
-1.0616
-0.859447
-0.706571
-0.589184
-0.497574
-0.424905
-0.366332
-0.318366
-0.278454
-0.244688
-0.21562
-0.190126
-0.167319
-0.146483
-0.127031
-0.108466
-0.0903618
-0.0723361
-0.0540395
-0.03514
-0.0153103
0.00578428
0.0284983
0.0532202
0.0803886
0.110513
0.1442
0.182188
0.225393
0.274979
0.332445
0.399765
0.479584
0.575511
0.692559
0.837794
1.02126
1.25721
1.56583
1.9748
2.5139
3.19373
3.99343
4.82422
-7.15792
-4.55846
-3.1392
-2.25274
-1.64521
-1.23434
-0.954774
-0.758384
-0.615871
-0.509588
-0.428376
-0.364947
-0.314419
-0.273416
-0.239541
-0.211038
-0.186593
-0.165197
-0.146059
-0.128546
-0.112137
-0.0963959
-0.0809459
-0.0654518
-0.0496065
-0.0331179
-0.0156974
0.00294879
0.0231335
0.0451995
0.069535
0.0965915
0.126908
0.161144
0.200122
0.244895
0.296833
0.357768
0.430205
0.517662
0.625229
0.760493
0.935075
1.16733
1.48761
1.94618
2.6125
3.57116
5.07659
7.79539
-12.0263
-5.64124
-2.9749
-1.87599
-1.27892
-0.924228
-0.704636
-0.55888
-0.455806
-0.379652
-0.321587
-0.276215
-0.24003
-0.210637
-0.186326
-0.165836
-0.148211
-0.132709
-0.11874
-0.105828
-0.0935756
-0.0816488
-0.0697555
-0.0576344
-0.0450447
-0.0317562
-0.0175425
-0.00216972
0.0146084
0.0330613
0.0534927
0.0762538
0.101761
0.130518
0.16315
0.200447
0.243428
0.293444
0.352327
0.422647
0.50815
0.614575
0.751237
0.934542
1.19645
1.60079
2.26405
3.45782
6.24122
12.752
)
;

boundaryField
{
    movingWall
    {
        type            zeroGradient;
    }
    fixedWalls
    {
        type            zeroGradient;
    }
    frontAndBack
    {
        type            empty;
    }
}


// ************************************************************************* //
