/*--------------------------------*- C++ -*----------------------------------*\
  =========                 |
  \\      /  F ield         | OpenFOAM: The Open Source CFD Toolbox
   \\    /   O peration     | Website:  https://openfoam.org
    \\  /    A nd           | Version:  7
     \\/     M anipulation  |
\*---------------------------------------------------------------------------*/
FoamFile
{
    version     2.0;
    format      ascii;
    class       surfaceScalarField;
    location    "0.0616";
    object      phi;
}
// * * * * * * * * * * * * * * * * * * * * * * * * * * * * * * * * * * * * * //

dimensions      [0 3 -1 0 0 0 0];

internalField   nonuniform List<scalar> 
4900
(
1.10539e-09
-1.11226e-09
2.23742e-09
-1.13198e-09
2.28041e-09
-4.30073e-11
8.53558e-10
1.42679e-09
-2.12165e-09
2.97525e-09
-6.56138e-09
4.43974e-09
-1.23043e-08
5.74289e-09
-1.91546e-08
6.85025e-09
-2.69041e-08
7.74947e-09
-3.53434e-08
8.43931e-09
-4.4268e-08
8.92459e-09
-5.34817e-08
9.21365e-09
-6.27986e-08
9.3169e-09
-7.20445e-08
9.24597e-09
-8.10578e-08
9.01327e-09
-8.96895e-08
8.6316e-09
-9.78034e-08
8.11393e-09
-1.05277e-07
7.47332e-09
-1.12e-07
6.72289e-09
-1.17875e-07
5.8758e-09
-1.22821e-07
4.94526e-09
-1.26765e-07
3.94461e-09
-1.29653e-07
2.88736e-09
-1.3144e-07
1.78728e-09
-1.32098e-07
6.58476e-10
-1.31614e-07
-4.84559e-10
-1.29987e-07
-1.62689e-09
-1.27234e-07
-2.75309e-09
-1.23387e-07
-3.84731e-09
-1.18493e-07
-4.89324e-09
-1.12619e-07
-5.87423e-09
-1.05846e-07
-6.77337e-09
-9.8272e-08
-7.57364e-09
-9.00139e-08
-8.2581e-09
-8.12038e-08
-8.8101e-09
-7.19902e-08
-9.21357e-09
-6.25369e-08
-9.45332e-09
-5.30215e-08
-9.51532e-09
-4.36343e-08
-9.38715e-09
-3.45759e-08
-9.05842e-09
-2.60546e-08
-8.52134e-09
-1.82829e-08
-7.77163e-09
-1.14731e-08
-6.80979e-09
-5.82954e-09
-5.64357e-09
-1.53663e-09
-4.29289e-09
1.26432e-09
-2.80093e-09
2.51686e-09
-1.25253e-09
2.31648e-09
2.00379e-10
1.10761e-09
1.20887e-09
1.1076e-09
1.14048e-09
-2.25268e-09
1.24714e-09
-1.23871e-09
-1.27656e-09
2.48063e-09
-7.18824e-09
7.33847e-09
-1.67082e-08
1.24953e-08
-2.97271e-08
1.74587e-08
-4.59361e-08
2.19518e-08
-6.49123e-08
2.58265e-08
-8.61728e-08
2.90099e-08
-1.09208e-07
3.14742e-08
-1.33502e-07
3.32193e-08
-1.58551e-07
3.42626e-08
-1.83867e-07
3.46329e-08
-2.08988e-07
3.43663e-08
-2.33478e-07
3.35036e-08
-2.56935e-07
3.20887e-08
-2.78989e-07
3.01678e-08
-2.99303e-07
2.77879e-08
-3.17578e-07
2.49973e-08
-3.33547e-07
2.18448e-08
-3.46981e-07
1.83798e-08
-3.57689e-07
1.46526e-08
-3.65516e-07
1.07144e-08
-3.70346e-07
6.61712e-09
-3.72102e-07
2.41427e-09
-3.70747e-07
-1.83939e-09
-3.66287e-07
-6.08755e-09
-3.58767e-07
-1.02724e-08
-3.4828e-07
-1.43345e-08
-3.3496e-07
-1.82132e-08
-3.18988e-07
-2.18469e-08
-3.00588e-07
-2.51733e-08
-2.80031e-07
-2.813e-08
-2.57634e-07
-3.06557e-08
-2.33754e-07
-3.26903e-08
-2.08791e-07
-3.41767e-08
-1.83182e-07
-3.50617e-08
-1.574e-07
-3.52975e-08
-1.31944e-07
-3.48432e-08
-1.07335e-07
-3.36674e-08
-8.41061e-08
-3.17502e-08
-6.27897e-08
-2.9088e-08
-4.39008e-08
-2.56986e-08
-2.79135e-08
-2.16309e-08
-1.52249e-08
-1.69814e-08
-6.10374e-09
-1.19221e-08
-6.055e-10
-6.75074e-09
1.57106e-09
-1.97614e-09
1.22019e-09
1.55977e-09
2.32777e-09
1.02255e-10
-2.35496e-09
-2.37593e-09
1.23937e-09
-8.97407e-09
9.07883e-09
-2.04644e-08
1.88288e-08
-3.70798e-08
2.91107e-08
-5.8674e-08
3.90528e-08
-8.48391e-08
4.81169e-08
-1.14999e-07
5.59868e-08
-1.48478e-07
6.24889e-08
-1.84546e-07
6.75415e-08
-2.2245e-07
7.11239e-08
-2.61444e-07
7.32561e-08
-3.00796e-07
7.39857e-08
-3.39809e-07
7.33789e-08
-3.7782e-07
7.15149e-08
-4.14214e-07
6.84818e-08
-4.48419e-07
6.43735e-08
-4.7992e-07
5.92882e-08
-5.08249e-07
5.33269e-08
-5.32997e-07
4.65932e-08
-5.5381e-07
3.91925e-08
-5.7039e-07
3.12324e-08
-5.82498e-07
2.28226e-08
-5.89956e-07
1.40751e-08
-5.92646e-07
5.10459e-09
-5.90515e-07
-3.9712e-09
-5.8357e-07
-1.30316e-08
-5.7189e-07
-2.19529e-08
-5.55616e-07
-3.06084e-08
-5.3496e-07
-3.88691e-08
-5.10203e-07
-4.66044e-08
-4.81693e-07
-5.36826e-08
-4.4985e-07
-5.9973e-08
-4.15159e-07
-6.5347e-08
-3.78169e-07
-6.96802e-08
-3.39491e-07
-7.28549e-08
-2.9979e-07
-7.47628e-08
-2.59779e-07
-7.53086e-08
-2.20209e-07
-7.44133e-08
-1.81856e-07
-7.20196e-08
-1.45509e-07
-6.80982e-08
-1.11941e-07
-6.26557e-08
-8.18915e-08
-5.57479e-08
-5.60253e-08
-4.74971e-08
-3.48847e-08
-3.8122e-08
-1.88234e-08
-2.79834e-08
-7.91474e-09
-1.76594e-08
-1.84059e-09
-8.05029e-09
2.62234e-10
-5.43042e-10
2.59e-09
-1.32801e-09
-1.02699e-09
-7.15912e-09
7.07051e-09
-1.86566e-08
2.05763e-08
-3.6401e-08
3.65732e-08
-6.05151e-08
5.32248e-08
-9.07563e-08
6.9294e-08
-1.2661e-07
8.39705e-08
-1.67371e-07
9.6748e-08
-2.12211e-07
1.07328e-07
-2.60226e-07
1.15557e-07
-3.1048e-07
1.21378e-07
-3.62031e-07
1.24807e-07
-4.13953e-07
1.25908e-07
-4.65354e-07
1.24779e-07
-5.15383e-07
1.21544e-07
-5.63246e-07
1.16344e-07
-6.08205e-07
1.09333e-07
-6.49588e-07
1.00672e-07
-6.86791e-07
9.05297e-08
-7.19279e-07
7.90807e-08
-7.46589e-07
6.6503e-08
-7.68336e-07
5.29788e-08
-7.84207e-07
3.86944e-08
-7.93973e-07
2.38403e-08
-7.9748e-07
8.61163e-09
-7.94659e-07
-6.79158e-09
-7.85526e-07
-2.21644e-08
-7.70182e-07
-3.72972e-08
-7.48815e-07
-5.19757e-08
-7.21702e-07
-6.59822e-08
-6.89209e-07
-7.90968e-08
-6.51793e-07
-9.10988e-08
-6.09997e-07
-1.0177e-07
-5.64449e-07
-1.10895e-07
-5.1586e-07
-1.18269e-07
-4.65016e-07
-1.23698e-07
-4.12772e-07
-1.27007e-07
-3.60039e-07
-1.28042e-07
-3.07772e-07
-1.2668e-07
-2.56956e-07
-1.22836e-07
-2.08578e-07
-1.16476e-07
-1.63608e-07
-1.07626e-07
-1.22959e-07
-9.63967e-08
-8.74491e-08
-8.3007e-08
-5.77464e-08
-6.78247e-08
-3.43034e-08
-5.14263e-08
-1.72785e-08
-3.46844e-08
-6.44664e-09
-1.88821e-08
-1.11779e-09
-5.8719e-09
1.47221e-09
-2.85764e-09
1.83066e-09
-1.2368e-08
1.65809e-08
-2.91735e-08
3.73818e-08
-5.35468e-08
6.09464e-08
-8.54031e-08
8.50811e-08
-1.24346e-07
1.08237e-07
-1.69727e-07
1.29352e-07
-2.2071e-07
1.47731e-07
-2.76329e-07
1.62947e-07
-3.35534e-07
1.74762e-07
-3.97234e-07
1.83078e-07
-4.60328e-07
1.87901e-07
-5.23728e-07
1.89308e-07
-5.8638e-07
1.87432e-07
-6.47281e-07
1.82445e-07
-7.05483e-07
1.74547e-07
-7.60112e-07
1.63961e-07
-8.10362e-07
1.50923e-07
-8.55513e-07
1.3568e-07
-8.94924e-07
1.18492e-07
-9.28042e-07
9.96213e-08
-9.54404e-07
7.9341e-08
-9.73639e-07
5.79289e-08
-9.85468e-07
3.56697e-08
-9.89712e-07
1.28554e-08
-9.86288e-07
-1.02154e-08
-9.75216e-07
-3.32366e-08
-9.56618e-07
-5.58954e-08
-9.30721e-07
-7.7873e-08
-8.97857e-07
-9.88459e-08
-8.58466e-07
-1.18488e-07
-8.13092e-07
-1.36472e-07
-7.62385e-07
-1.52477e-07
-7.07093e-07
-1.66187e-07
-6.48062e-07
-1.773e-07
-5.86225e-07
-1.85536e-07
-5.22593e-07
-1.90639e-07
-4.58243e-07
-1.92392e-07
-3.94301e-07
-1.90622e-07
-3.3192e-07
-1.85217e-07
-2.72259e-07
-1.76137e-07
-2.16446e-07
-1.63438e-07
-1.65549e-07
-1.47294e-07
-1.20525e-07
-1.28031e-07
-8.21728e-08
-1.06177e-07
-5.10736e-08
-8.25256e-08
-2.753e-08
-5.8228e-08
-1.15085e-08
-3.49035e-08
-2.59904e-09
-1.47814e-08
-1.12683e-09
-4.36586e-09
6.19656e-09
-1.76247e-08
2.98397e-08
-3.98833e-08
5.96405e-08
-7.10434e-08
9.21065e-08
-1.10752e-07
1.2479e-07
-1.58412e-07
1.55896e-07
-2.13209e-07
1.84149e-07
-2.74164e-07
2.08686e-07
-3.40171e-07
2.28954e-07
-4.10044e-07
2.44635e-07
-4.82555e-07
2.5559e-07
-5.56465e-07
2.6181e-07
-6.30547e-07
2.6339e-07
-7.03614e-07
2.60499e-07
-7.74529e-07
2.5336e-07
-8.42221e-07
2.42239e-07
-9.05695e-07
2.27434e-07
-9.64038e-07
2.09266e-07
-1.01643e-06
1.8807e-07
-1.06214e-06
1.64201e-07
-1.10053e-06
1.38019e-07
-1.13109e-06
1.099e-07
-1.15339e-06
8.02252e-08
-1.16711e-06
4.93875e-08
-1.17204e-06
1.77888e-08
-1.1681e-06
-1.41594e-08
-1.1553e-06
-4.60359e-08
-1.13378e-06
-7.74107e-08
-1.10381e-06
-1.07846e-07
-1.06576e-06
-1.36898e-07
-1.02013e-06
-1.64119e-07
-9.67535e-07
-1.89064e-07
-9.08719e-07
-2.11293e-07
-8.4453e-07
-2.30376e-07
-7.75925e-07
-2.45905e-07
-7.0396e-07
-2.575e-07
-6.29781e-07
-2.64818e-07
-5.54603e-07
-2.6757e-07
-4.79697e-07
-2.65528e-07
-4.06365e-07
-2.58549e-07
-3.35912e-07
-2.4659e-07
-2.69614e-07
-2.29736e-07
-2.08682e-07
-2.08226e-07
-1.54217e-07
-1.82496e-07
-1.07164e-07
-1.5323e-07
-6.82653e-08
-1.21424e-07
-3.80178e-08
-8.84755e-08
-1.66393e-08
-5.6282e-08
-4.06565e-09
-2.73551e-08
-5.19249e-09
-5.80569e-09
1.20023e-08
-2.27565e-08
4.67905e-08
-5.04588e-08
8.73428e-08
-8.84256e-08
1.30073e-07
-1.36004e-07
1.72368e-07
-1.92359e-07
2.12251e-07
-2.56487e-07
2.48278e-07
-3.27244e-07
2.79443e-07
-4.03379e-07
3.05088e-07
-4.83568e-07
3.24825e-07
-5.66455e-07
3.38476e-07
-6.50672e-07
3.46027e-07
-7.34873e-07
3.47592e-07
-8.17751e-07
3.43377e-07
-8.98057e-07
3.33665e-07
-9.74611e-07
3.18794e-07
-1.04632e-06
2.99143e-07
-1.11218e-06
2.75123e-07
-1.17128e-06
2.4717e-07
-1.22282e-06
2.15741e-07
-1.2661e-06
1.81304e-07
-1.30055e-06
1.44347e-07
-1.32569e-06
1.05367e-07
-1.34118e-06
6.48751e-08
-1.34678e-06
2.33941e-08
-1.3424e-06
-1.85401e-08
-1.32806e-06
-6.03796e-08
-1.30391e-06
-1.01565e-07
-1.27022e-06
-1.41528e-07
-1.22743e-06
-1.79692e-07
-1.17607e-06
-2.15477e-07
-1.11683e-06
-2.48306e-07
-1.05051e-06
-2.77608e-07
-9.78058e-07
-3.02832e-07
-9.00516e-07
-3.23448e-07
-8.19048e-07
-3.38968e-07
-7.34913e-07
-3.48953e-07
-6.4945e-07
-3.53033e-07
-5.64057e-07
-3.50921e-07
-4.8017e-07
-3.42436e-07
-3.99232e-07
-3.27528e-07
-3.22661e-07
-3.06307e-07
-2.51814e-07
-2.79073e-07
-1.87945e-07
-2.46365e-07
-1.32168e-07
-2.09008e-07
-8.54153e-08
-1.68176e-07
-4.84129e-08
-1.25478e-07
-2.16642e-08
-8.30307e-08
-5.46923e-09
-4.35501e-08
-1.06617e-08
-7.16804e-09
1.91703e-08
-2.77046e-08
6.7327e-08
-6.07659e-08
1.20404e-07
-1.05484e-07
1.74792e-07
-1.60893e-07
2.27777e-07
-2.259e-07
2.77258e-07
-2.99289e-07
3.21667e-07
-3.79734e-07
3.59888e-07
-4.65826e-07
3.9118e-07
-5.56103e-07
4.15101e-07
-6.49075e-07
4.31448e-07
-7.43256e-07
4.40209e-07
-8.37187e-07
4.41522e-07
-9.29454e-07
4.35643e-07
-1.01871e-06
4.22918e-07
-1.10367e-06
4.03762e-07
-1.18318e-06
3.78644e-07
-1.25613e-06
3.48075e-07
-1.32155e-06
3.12595e-07
-1.37859e-06
2.72773e-07
-1.42648e-06
2.29194e-07
-1.46459e-06
1.82466e-07
-1.49244e-06
1.33209e-07
-1.50962e-06
8.20619e-08
-1.51591e-06
2.96785e-08
-1.51117e-06
-2.32724e-08
-1.49545e-06
-7.61067e-08
-1.46889e-06
-1.28126e-07
-1.43179e-06
-1.78622e-07
-1.38461e-06
-2.26874e-07
-1.32793e-06
-2.72161e-07
-1.26247e-06
-3.13762e-07
-1.18911e-06
-3.50968e-07
-1.10885e-06
-3.8309e-07
-1.02283e-06
-4.09471e-07
-9.32294e-07
-4.29503e-07
-8.38605e-07
-4.42642e-07
-7.43212e-07
-4.48427e-07
-6.47631e-07
-4.46502e-07
-5.53425e-07
-4.36642e-07
-4.62171e-07
-4.18782e-07
-3.75433e-07
-3.93045e-07
-2.9472e-07
-3.59786e-07
-2.21456e-07
-3.19629e-07
-1.56943e-07
-2.73521e-07
-1.02328e-07
-2.22791e-07
-5.85873e-08
-1.69218e-07
-2.65254e-08
-1.15093e-07
-6.79976e-09
-6.32757e-08
-1.74615e-08
-8.46077e-09
2.76311e-08
-3.24687e-08
9.1335e-08
-7.07801e-08
1.58715e-07
-1.22165e-07
2.26177e-07
-1.85343e-07
2.90955e-07
-2.58952e-07
3.50867e-07
-3.41547e-07
4.04262e-07
-4.31607e-07
4.49948e-07
-5.27553e-07
4.87127e-07
-6.27774e-07
5.15322e-07
-7.30649e-07
5.34323e-07
-8.34573e-07
5.44132e-07
-9.37975e-07
5.44925e-07
-1.03934e-06
5.37013e-07
-1.13724e-06
5.20814e-07
-1.23031e-06
4.96831e-07
-1.3173e-06
4.6563e-07
-1.39705e-06
4.27826e-07
-1.46853e-06
3.84074e-07
-1.53081e-06
3.3506e-07
-1.58311e-06
2.81494e-07
-1.62476e-06
2.2411e-07
-1.65521e-06
1.6366e-07
-1.67406e-06
1.00917e-07
-1.68106e-06
3.66716e-08
-1.67606e-06
-2.82669e-08
-1.6591e-06
-9.30704e-08
-1.63033e-06
-1.56895e-07
-1.59007e-06
-2.18881e-07
-1.53879e-06
-2.7816e-07
-1.47709e-06
-3.33857e-07
-1.40575e-06
-3.851e-07
-1.32569e-06
-4.31031e-07
-1.23797e-06
-4.70813e-07
-1.14378e-06
-5.03653e-07
-1.04448e-06
-5.28811e-07
-9.41492e-07
-5.45625e-07
-8.36383e-07
-5.53535e-07
-7.3078e-07
-5.52105e-07
-6.26369e-07
-5.41053e-07
-5.24866e-07
-5.20285e-07
-4.27984e-07
-4.89928e-07
-3.37398e-07
-4.50371e-07
-2.54717e-07
-4.0231e-07
-1.81448e-07
-3.46791e-07
-1.18971e-07
-2.85268e-07
-6.85289e-08
-2.1966e-07
-3.12282e-08
-1.52393e-07
-8.06622e-09
-8.64377e-08
-2.55277e-08
-9.69802e-09
3.73291e-08
-3.70772e-08
1.18714e-07
-8.05363e-08
2.02175e-07
-1.38504e-07
2.84145e-07
-2.0939e-07
3.6184e-07
-2.91559e-07
4.33036e-07
-3.83325e-07
4.96028e-07
-4.8296e-07
5.49583e-07
-5.88707e-07
5.92873e-07
-6.98796e-07
6.25411e-07
-8.11469e-07
6.46996e-07
-9.25e-07
6.57663e-07
-1.03771e-06
6.57638e-07
-1.148e-06
6.473e-07
-1.25434e-06
6.27152e-07
-1.3553e-06
5.97791e-07
-1.44956e-06
5.59888e-07
-1.5359e-06
5.14173e-07
-1.61325e-06
4.61421e-07
-1.68063e-06
4.02442e-07
-1.73722e-06
3.38078e-07
-1.7823e-06
2.69193e-07
-1.81531e-06
1.96677e-07
-1.83584e-06
1.21442e-07
-1.84359e-06
4.44218e-08
-1.83843e-06
-3.34287e-08
-1.82037e-06
-1.11132e-07
-1.78957e-06
-1.87693e-07
-1.74635e-06
-2.62095e-07
-1.6912e-06
-3.33313e-07
-1.62475e-06
-4.00311e-07
-1.54779e-06
-4.62059e-07
-1.46128e-06
-5.17538e-07
-1.36634e-06
-5.65757e-07
-1.26422e-06
-6.05771e-07
-1.15633e-06
-6.36699e-07
-1.04421e-06
-6.5775e-07
-9.29493e-07
-6.68248e-07
-8.13935e-07
-6.67663e-07
-6.99344e-07
-6.55644e-07
-5.87578e-07
-6.3205e-07
-4.8051e-07
-5.96996e-07
-3.79994e-07
-5.50888e-07
-2.87836e-07
-4.94468e-07
-2.05766e-07
-4.28861e-07
-1.35412e-07
-3.55622e-07
-7.82911e-08
-2.76781e-07
-3.58093e-08
-1.94875e-07
-9.28508e-09
-1.12962e-07
-3.48128e-08
-1.08956e-08
4.82248e-08
-4.15709e-08
1.49389e-07
-9.0099e-08
2.50703e-07
-1.54586e-07
3.48632e-07
-2.33137e-07
4.40392e-07
-3.23842e-07
5.2374e-07
-4.24768e-07
5.96954e-07
-5.3397e-07
6.58786e-07
-6.49501e-07
7.08404e-07
-7.69428e-07
7.45338e-07
-8.91849e-07
7.69418e-07
-1.01491e-06
7.80729e-07
-1.13684e-06
7.79566e-07
-1.25593e-06
7.66391e-07
-1.37058e-06
7.41802e-07
-1.47929e-06
7.06501e-07
-1.58068e-06
6.61277e-07
-1.67349e-06
6.0698e-07
-1.75658e-06
5.44512e-07
-1.82895e-06
4.74816e-07
-1.88974e-06
3.98867e-07
-1.93822e-06
3.17668e-07
-1.97379e-06
2.32248e-07
-1.99601e-06
1.43664e-07
-2.00458e-06
5.29943e-08
-1.99936e-06
-3.86555e-08
-1.98033e-06
-1.30156e-07
-1.94767e-06
-2.20353e-07
-1.90169e-06
-3.08074e-07
-1.84288e-06
-3.92126e-07
-1.77188e-06
-4.7131e-07
-1.68952e-06
-5.44426e-07
-1.59677e-06
-6.10288e-07
-1.49479e-06
-6.67738e-07
-1.38489e-06
-7.15669e-07
-1.26854e-06
-7.53046e-07
-1.14736e-06
-7.78933e-07
-1.02308e-06
-7.92525e-07
-8.97563e-07
-7.9318e-07
-7.7275e-07
-7.80457e-07
-6.50647e-07
-7.54153e-07
-5.33296e-07
-7.14347e-07
-4.22743e-07
-6.61441e-07
-3.21007e-07
-5.96203e-07
-2.30055e-07
-5.19814e-07
-1.51774e-07
-4.33903e-07
-8.79612e-08
-3.40593e-07
-4.03208e-08
-2.42515e-07
-1.04753e-08
-1.42807e-07
-4.5288e-08
-1.20692e-08
6.02941e-08
-4.59945e-08
1.83315e-07
-9.95451e-08
3.04253e-07
-1.70518e-07
4.19605e-07
-2.5672e-07
5.26593e-07
-3.55962e-07
6.22983e-07
-4.66062e-07
7.07054e-07
-5.8485e-07
7.77573e-07
-7.1018e-07
8.33734e-07
-8.39948e-07
8.75105e-07
-9.72104e-07
9.01574e-07
-1.10467e-06
9.13298e-07
-1.23577e-06
9.10658e-07
-1.36359e-06
8.94215e-07
-1.48647e-06
8.64678e-07
-1.60283e-06
8.22868e-07
-1.71125e-06
7.69699e-07
-1.81043e-06
7.06152e-07
-1.89918e-06
6.33264e-07
-1.97647e-06
5.52114e-07
-2.04142e-06
4.63816e-07
-2.09327e-06
3.69516e-07
-2.13141e-06
2.70387e-07
-2.15538e-06
1.67628e-07
-2.16485e-06
6.2468e-08
-2.15967e-06
-4.38366e-08
-2.13982e-06
-1.50001e-07
-2.10546e-06
-2.54713e-07
-2.0569e-06
-3.56634e-07
-1.99462e-06
-4.54406e-07
-1.91928e-06
-5.46656e-07
-1.83169e-06
-6.3201e-07
-1.73287e-06
-7.09105e-07
-1.62401e-06
-7.76605e-07
-1.50645e-06
-8.33229e-07
-1.38172e-06
-8.77772e-07
-1.25152e-06
-9.09139e-07
-1.11767e-06
-9.26374e-07
-9.82141e-07
-9.28707e-07
-8.47015e-07
-9.15583e-07
-7.14453e-07
-8.86715e-07
-5.86676e-07
-8.42124e-07
-4.65934e-07
-7.82183e-07
-3.54474e-07
-7.07663e-07
-2.54512e-07
-6.19776e-07
-1.68207e-07
-5.20208e-07
-9.76432e-08
-4.11157e-07
-4.48203e-08
-2.95338e-07
-1.16561e-08
-1.75972e-07
-5.69441e-08
-1.32333e-08
7.35274e-08
-5.03923e-08
2.20474e-07
-1.08954e-07
3.62815e-07
-1.86415e-07
4.97065e-07
-2.80285e-07
6.20464e-07
-3.88097e-07
7.30795e-07
-5.07412e-07
8.26369e-07
-6.35827e-07
9.05988e-07
-7.70993e-07
9.689e-07
-9.10626e-07
1.01474e-06
-1.05253e-06
1.04348e-06
-1.19459e-06
1.05536e-06
-1.33481e-06
1.05088e-06
-1.47132e-06
1.03072e-06
-1.60236e-06
9.95718e-07
-1.72631e-06
9.46818e-07
-1.84169e-06
8.85077e-07
-1.94716e-06
8.11615e-07
-2.0415e-06
7.2761e-07
-2.12367e-06
6.34285e-07
-2.19275e-06
5.32898e-07
-2.24797e-06
4.24736e-07
-2.28871e-06
3.11119e-07
-2.31447e-06
1.93392e-07
-2.32493e-06
7.29329e-08
-2.31992e-06
-4.88514e-08
-2.2994e-06
-1.7052e-07
-2.26351e-06
-2.90601e-07
-2.21256e-06
-4.0759e-07
-2.14701e-06
-5.19958e-07
-2.06751e-06
-6.26155e-07
-1.97489e-06
-7.24626e-07
-1.87018e-06
-8.13821e-07
-1.75456e-06
-8.92217e-07
-1.62945e-06
-9.58345e-07
-1.49641e-06
-1.01081e-06
-1.3572e-06
-1.04835e-06
-1.21374e-06
-1.06983e-06
-1.06813e-06
-1.07432e-06
-9.2257e-07
-1.06114e-06
-7.79392e-07
-1.02989e-06
-6.41007e-07
-9.80509e-07
-5.09882e-07
-9.13308e-07
-3.88504e-07
-8.29041e-07
-2.79355e-07
-7.28925e-07
-1.84876e-07
-6.14687e-07
-1.07447e-07
-4.88586e-07
-4.93667e-08
-3.53418e-07
-1.2846e-08
-2.12492e-07
-6.97901e-08
-1.44008e-08
8.79282e-08
-5.48059e-08
2.60879e-07
-1.18404e-07
4.26414e-07
-2.02391e-07
5.81051e-07
-3.03981e-07
7.22054e-07
-4.20424e-07
8.47238e-07
-5.49018e-07
9.54962e-07
-6.87121e-07
1.04409e-06
-8.32174e-07
1.11395e-06
-9.81711e-07
1.16428e-06
-1.13337e-06
1.19514e-06
-1.28492e-06
1.20691e-06
-1.43425e-06
1.20022e-06
-1.5794e-06
1.17587e-06
-1.71854e-06
1.13486e-06
-1.85e-06
1.07828e-06
-1.97226e-06
1.00733e-06
-2.08394e-06
9.23292e-07
-2.18381e-06
8.27485e-07
-2.27081e-06
7.2128e-07
-2.34399e-06
6.06083e-07
-2.40258e-06
4.83327e-07
-2.44594e-06
3.54476e-07
-2.47357e-06
2.21021e-07
-2.48512e-06
8.44871e-08
-2.48041e-06
-5.35692e-08
-2.45937e-06
-1.91553e-07
-2.42214e-06
-3.27833e-07
-2.36899e-06
-4.60739e-07
-2.30038e-06
-5.88569e-07
-2.21694e-06
-7.09594e-07
-2.1195e-06
-8.2207e-07
-2.00907e-06
-9.24252e-07
-1.88686e-06
-1.01442e-06
-1.75431e-06
-1.0909e-06
-1.61302e-06
-1.1521e-06
-1.46483e-06
-1.19654e-06
-1.31174e-06
-1.22291e-06
-1.15595e-06
-1.23011e-06
-9.99822e-07
-1.21727e-06
-8.45849e-07
-1.18387e-06
-6.96644e-07
-1.12971e-06
-5.54902e-07
-1.05505e-06
-4.2337e-07
-9.60574e-07
-3.04804e-07
-8.47491e-07
-2.01945e-07
-7.17546e-07
-1.1748e-07
-5.73051e-07
-5.40173e-08
-4.16881e-07
-1.40625e-08
-2.52447e-07
-8.38526e-08
-1.55832e-08
1.03511e-07
-5.9273e-08
3.04568e-07
-1.27966e-07
4.95106e-07
-2.18552e-07
6.71638e-07
-3.27947e-07
8.31449e-07
-4.5311e-07
9.72401e-07
-5.91067e-07
1.09292e-06
-7.38934e-07
1.19196e-06
-8.93933e-07
1.26895e-06
-1.05341e-06
1.32375e-06
-1.21484e-06
1.35657e-06
-1.37586e-06
1.36793e-06
-1.53426e-06
1.35861e-06
-1.68798e-06
1.32959e-06
-1.83514e-06
1.28202e-06
-1.97402e-06
1.21716e-06
-2.10305e-06
1.13637e-06
-2.22085e-06
1.04109e-06
-2.32617e-06
9.32802e-07
-2.41792e-06
8.13032e-07
-2.49517e-06
6.83331e-07
-2.55712e-06
5.45279e-07
-2.60313e-06
4.00483e-07
-2.63268e-06
2.50579e-07
-2.64543e-06
9.72336e-08
-2.64115e-06
-5.78493e-08
-2.61978e-06
-2.12925e-07
-2.58141e-06
-3.66204e-07
-2.52629e-06
-5.15854e-07
-2.45486e-06
-6.59999e-07
-2.36773e-06
-7.96728e-07
-2.2657e-06
-9.24103e-07
-2.14977e-06
-1.04018e-06
-2.02116e-06
-1.14302e-06
-1.88132e-06
-1.23075e-06
-1.73189e-06
-1.30153e-06
-1.57476e-06
-1.35368e-06
-1.41202e-06
-1.38565e-06
-1.24598e-06
-1.39615e-06
-1.07914e-06
-1.38411e-06
-9.14182e-07
-1.34882e-06
-7.53924e-07
-1.28997e-06
-6.01303e-07
-1.20767e-06
-4.59336e-07
-1.10254e-06
-3.31076e-07
-9.7575e-07
-2.19577e-07
-8.29045e-07
-1.27851e-07
-6.64778e-07
-5.88268e-08
-4.85905e-07
-1.5322e-08
-2.95952e-07
-9.91746e-08
-1.67909e-08
1.20302e-07
-6.38278e-08
3.51605e-07
-1.37704e-07
5.68983e-07
-2.34998e-07
7.68931e-07
-3.52311e-07
9.48762e-07
-4.86305e-07
1.10639e-06
-6.33727e-07
1.24034e-06
-7.91439e-07
1.34967e-06
-9.56439e-07
1.43395e-06
-1.12588e-06
1.49319e-06
-1.29707e-06
1.52776e-06
-1.46752e-06
1.53838e-06
-1.63491e-06
1.526e-06
-1.7971e-06
1.49179e-06
-1.95216e-06
1.43707e-06
-2.09831e-06
1.36331e-06
-2.23398e-06
1.27204e-06
-2.35776e-06
1.16487e-06
-2.4684e-06
1.04344e-06
-2.56481e-06
9.0944e-07
-2.64605e-06
7.64572e-07
-2.71133e-06
6.1056e-07
-2.76e-06
4.49152e-07
-2.79154e-06
2.82122e-07
-2.80558e-06
1.11276e-07
-2.80189e-06
-6.15412e-08
-2.78037e-06
-2.34441e-07
-2.7411e-06
-4.05482e-07
-2.68428e-06
-5.72672e-07
-2.61031e-06
-7.33964e-07
-2.51978e-06
-8.87263e-07
-2.41344e-06
-1.03044e-06
-2.2923e-06
-1.16133e-06
-2.15754e-06
-1.27778e-06
-2.01061e-06
-1.37767e-06
-1.85319e-06
-1.45895e-06
-1.68721e-06
-1.51966e-06
-1.51484e-06
-1.55802e-06
-1.3385e-06
-1.57249e-06
-1.16084e-06
-1.56177e-06
-9.84711e-07
-1.52495e-06
-8.13158e-07
-1.46153e-06
-6.49371e-07
-1.37146e-06
-4.96655e-07
-1.25526e-06
-3.58377e-07
-1.11403e-06
-2.37926e-07
-9.49495e-07
-1.38658e-07
-7.64046e-07
-6.38471e-08
-5.60716e-07
-1.66396e-08
-3.43159e-07
-1.15814e-07
-1.80327e-08
1.38335e-07
-6.85008e-08
4.02073e-07
-1.47678e-07
6.4816e-07
-2.51814e-07
8.73067e-07
-3.77185e-07
1.07413e-06
-5.20141e-07
1.24935e-06
-6.77139e-07
1.39734e-06
-8.44776e-07
1.51731e-06
-1.01982e-06
1.60899e-06
-1.19922e-06
1.67259e-06
-1.38013e-06
1.70868e-06
-1.55992e-06
1.71817e-06
-1.73617e-06
1.70225e-06
-1.90668e-06
1.66229e-06
-2.06944e-06
1.59984e-06
-2.22267e-06
1.51654e-06
-2.36478e-06
1.41414e-06
-2.49434e-06
1.29443e-06
-2.61012e-06
1.15922e-06
-2.71103e-06
1.01035e-06
-2.79615e-06
8.49692e-07
-2.86469e-06
6.79101e-07
-2.91601e-06
5.00466e-07
-2.94958e-06
3.15692e-07
-2.96502e-06
1.26715e-07
-2.96207e-06
-6.44865e-08
-2.94062e-06
-2.55888e-07
-2.9007e-06
-4.45404e-07
-2.84248e-06
-6.30888e-07
-2.76632e-06
-8.10127e-07
-2.67274e-06
-9.80844e-07
-2.56247e-06
-1.14071e-06
-2.43645e-06
-1.28734e-06
-2.29587e-06
-1.41837e-06
-2.14214e-06
-1.5314e-06
-1.97696e-06
-1.62413e-06
-1.80229e-06
-1.69433e-06
-1.62038e-06
-1.73994e-06
-1.43374e-06
-1.75912e-06
-1.24517e-06
-1.75034e-06
-1.05771e-06
-1.71242e-06
-8.74619e-07
-1.64461e-06
-6.99368e-07
-1.54671e-06
-5.3556e-07
-1.41907e-06
-3.86901e-07
-1.26269e-06
-2.57138e-07
-1.07926e-06
-1.49998e-07
-8.71186e-07
-6.91271e-08
-6.41588e-07
-1.80298e-08
-3.94257e-07
-1.33844e-07
-1.93169e-08
1.57652e-07
-7.33196e-08
4.56076e-07
-1.57941e-07
7.32782e-07
-2.6908e-07
9.84207e-07
-4.02671e-07
1.20772e-06
-5.54733e-07
1.40141e-06
-7.21418e-07
1.56402e-06
-8.9905e-07
1.69494e-06
-1.08415e-06
1.7941e-06
-1.27348e-06
1.86191e-06
-1.46401e-06
1.89921e-06
-1.65299e-06
1.90715e-06
-1.83791e-06
1.88716e-06
-2.01648e-06
1.84087e-06
-2.18669e-06
1.77004e-06
-2.34672e-06
1.67657e-06
-2.49496e-06
1.56239e-06
-2.63003e-06
1.4295e-06
-2.75069e-06
1.27988e-06
-2.85589e-06
1.11555e-06
-2.94471e-06
9.38518e-07
-3.0164e-06
7.50787e-07
-3.07031e-06
5.54373e-07
-3.10592e-06
3.51306e-07
-3.12285e-06
1.43642e-07
-3.12081e-06
-6.65207e-08
-3.09967e-06
-2.7703e-07
-3.05941e-06
-4.85669e-07
-3.00015e-06
-6.90146e-07
-2.92219e-06
-8.88087e-07
-2.82599e-06
-1.07704e-06
-2.71223e-06
-1.25447e-06
-2.5818e-06
-1.41778e-06
-2.43581e-06
-1.56436e-06
-2.27567e-06
-1.69154e-06
-2.10306e-06
-1.79674e-06
-1.91996e-06
-1.87742e-06
-1.72867e-06
-1.93122e-06
-1.53181e-06
-1.95598e-06
-1.3323e-06
-1.94985e-06
-1.13338e-06
-1.91134e-06
-9.38537e-07
-1.83945e-06
-7.51522e-07
-1.73372e-06
-5.76263e-07
-1.59432e-06
-4.16828e-07
-1.42212e-06
-2.77351e-07
-1.21874e-06
-1.61962e-07
-9.86575e-07
-7.47134e-08
-7.28836e-07
-1.95062e-08
-4.49464e-07
-1.5335e-07
-2.0651e-08
1.78303e-07
-7.83099e-08
5.13735e-07
-1.68541e-07
8.23013e-07
-2.86868e-07
1.10253e-06
-4.28857e-07
1.34971e-06
-5.90176e-07
1.56273e-06
-7.66654e-07
1.7405e-06
-9.54327e-07
1.88261e-06
-1.14947e-06
1.98924e-06
-1.34863e-06
2.06107e-06
-1.54862e-06
2.0992e-06
-1.74656e-06
2.1051e-06
-1.93985e-06
2.08045e-06
-2.12616e-06
2.02718e-06
-2.30343e-06
1.94732e-06
-2.46986e-06
1.843e-06
-2.62385e-06
1.71639e-06
-2.76404e-06
1.56968e-06
-2.88923e-06
1.40507e-06
-2.9984e-06
1.22472e-06
-3.09068e-06
1.0308e-06
-3.16533e-06
8.25436e-07
-3.22173e-06
6.10772e-07
-3.25937e-06
3.88949e-07
-3.27786e-06
1.62131e-07
-3.27691e-06
-6.74764e-08
-3.25633e-06
-2.97612e-07
-3.21606e-06
-5.25938e-07
-3.15617e-06
-7.5003e-07
-3.07689e-06
-9.67366e-07
-2.97861e-06
-1.17532e-06
-2.86192e-06
-1.37116e-06
-2.72762e-06
-1.55208e-06
-2.57678e-06
-1.7152e-06
-2.41074e-06
-1.85758e-06
-2.23115e-06
-1.97633e-06
-2.04e-06
-2.06857e-06
-1.83962e-06
-2.1316e-06
-1.63271e-06
-2.1629e-06
-1.42232e-06
-2.16024e-06
-1.21187e-06
-2.12179e-06
-1.00509e-06
-2.04623e-06
-8.06028e-07
-1.93279e-06
-6.18954e-07
-1.7814e-06
-4.48323e-07
-1.59275e-06
-2.98692e-07
-1.36837e-06
-1.74634e-07
-1.11063e-06
-8.06508e-08
-8.22819e-07
-2.10819e-08
-5.09033e-07
-1.74432e-07
-2.20423e-08
2.00345e-07
-8.34964e-08
5.75189e-07
-1.79525e-07
9.19041e-07
-3.05245e-07
1.22825e-06
-4.55822e-07
1.50029e-06
-6.2655e-07
1.73346e-06
-8.12913e-07
1.92687e-06
-1.01064e-06
2.08034e-06
-1.21575e-06
2.19435e-06
-1.42458e-06
2.26989e-06
-1.63377e-06
2.3084e-06
-1.84034e-06
2.31166e-06
-2.04159e-06
2.28171e-06
-2.23517e-06
2.22076e-06
-2.41901e-06
2.13115e-06
-2.59131e-06
2.01529e-06
-2.75052e-06
1.8756e-06
-2.89532e-06
1.71448e-06
-3.02457e-06
1.53432e-06
-3.1373e-06
1.33745e-06
-3.23268e-06
1.12619e-06
-3.31003e-06
9.02786e-07
-3.36876e-06
6.69499e-07
-3.40838e-06
4.28564e-07
-3.42848e-06
1.82237e-07
-3.42877e-06
-6.71877e-08
-3.40903e-06
-3.17355e-07
-3.36914e-06
-5.65826e-07
-3.30911e-06
-8.10061e-07
-3.22907e-06
-1.0474e-06
-3.12934e-06
-1.27506e-06
-3.01038e-06
-1.49012e-06
-2.87292e-06
-1.68954e-06
-2.71792e-06
-1.87019e-06
-2.54665e-06
-2.02885e-06
-2.3607e-06
-2.16228e-06
-2.16203e-06
-2.26725e-06
-1.95298e-06
-2.34065e-06
-1.73631e-06
-2.37957e-06
-1.5152e-06
-2.38135e-06
-1.29324e-06
-2.34376e-06
-1.0744e-06
-2.26506e-06
-8.63042e-07
-2.14415e-06
-6.63795e-07
-1.98064e-06
-4.81537e-07
-1.77501e-06
-3.21284e-07
-1.52862e-06
-1.88099e-07
-1.24382e-06
-8.69829e-08
-9.23935e-07
-2.27699e-08
-5.73246e-07
-1.97202e-07
-2.34983e-08
2.23844e-07
-8.89043e-08
6.40595e-07
-1.90939e-07
1.02108e-06
-3.24274e-07
1.36159e-06
-4.83641e-07
1.65966e-06
-6.63924e-07
1.91374e-06
-8.60239e-07
2.12318e-06
-1.06799e-06
2.28809e-06
-1.28293e-06
2.40929e-06
-1.50117e-06
2.48813e-06
-1.71921e-06
2.52644e-06
-1.93394e-06
2.52639e-06
-2.14261e-06
2.49038e-06
-2.34284e-06
2.42099e-06
-2.53258e-06
2.32089e-06
-2.71007e-06
2.19278e-06
-2.87381e-06
2.03934e-06
-3.02256e-06
1.86323e-06
-3.15524e-06
1.667e-06
-3.27098e-06
1.45319e-06
-3.36901e-06
1.22422e-06
-3.44871e-06
9.82481e-07
-3.50952e-06
7.30313e-07
-3.551e-06
4.70037e-07
-3.57274e-06
2.0398e-07
-3.57443e-06
-6.54956e-08
-3.55582e-06
-3.35964e-07
-3.51674e-06
-6.04907e-07
-3.45711e-06
-8.69687e-07
-3.37698e-06
-1.12753e-06
-3.27654e-06
-1.37551e-06
-3.15614e-06
-1.61052e-06
-3.01637e-06
-1.82931e-06
-2.85809e-06
-2.02848e-06
-2.68244e-06
-2.20451e-06
-2.49092e-06
-2.35379e-06
-2.28543e-06
-2.47273e-06
-2.06831e-06
-2.55777e-06
-1.84234e-06
-2.60553e-06
-1.61081e-06
-2.61288e-06
-1.37747e-06
-2.5771e-06
-1.14654e-06
-2.49599e-06
-9.2268e-07
-2.368e-06
-7.10928e-07
-2.1924e-06
-5.16607e-07
-1.96933e-06
-3.45241e-07
-1.69999e-06
-2.02436e-07
-1.38662e-06
-9.37532e-08
-1.03262e-06
-2.45834e-08
-6.42416e-07
-2.21785e-07
-2.50272e-08
2.48871e-07
-9.45607e-08
7.10128e-07
-2.02834e-07
1.12935e-06
-3.44025e-07
1.50278e-06
-5.12388e-07
1.82802e-06
-7.02362e-07
2.10372e-06
-9.0866e-07
2.32948e-06
-1.12635e-06
2.50578e-06
-1.35089e-06
2.63383e-06
-1.57818e-06
2.71542e-06
-1.80456e-06
2.75283e-06
-2.02683e-06
2.74866e-06
-2.2422e-06
2.70575e-06
-2.44829e-06
2.62708e-06
-2.64308e-06
2.51568e-06
-2.82488e-06
2.37458e-06
-2.99228e-06
2.20675e-06
-3.14414e-06
2.01508e-06
-3.27948e-06
1.80235e-06
-3.39752e-06
1.57123e-06
-3.49761e-06
1.3243e-06
-3.57917e-06
1.06405e-06
-3.64174e-06
7.92881e-07
-3.68489e-06
5.13187e-07
-3.70825e-06
2.2734e-07
-3.71149e-06
-6.22545e-08
-3.69433e-06
-3.53127e-07
-3.65653e-06
-6.42706e-07
-3.59793e-06
-9.28286e-07
-3.51847e-06
-1.207e-06
-3.41819e-06
-1.47578e-06
-3.29732e-06
-1.73139e-06
-3.15629e-06
-1.97034e-06
-2.99578e-06
-2.18898e-06
-2.81681e-06
-2.38348e-06
-2.62073e-06
-2.54987e-06
-2.40937e-06
-2.6841e-06
-2.18498e-06
-2.78216e-06
-1.95037e-06
-2.84014e-06
-1.70889e-06
-2.85437e-06
-1.46444e-06
-2.82155e-06
-1.22149e-06
-2.73894e-06
-9.85014e-07
-2.60448e-06
-7.60465e-07
-2.41695e-06
-5.53659e-07
-2.17614e-06
-3.70677e-07
-1.88297e-06
-2.17728e-07
-1.53957e-06
-1.01006e-07
-1.14934e-06
-2.65361e-08
-7.16886e-07
-2.48321e-07
-2.66385e-08
2.75509e-07
-1.00497e-07
7.83987e-07
-2.15266e-07
1.24412e-06
-3.64574e-07
1.65209e-06
-5.42144e-07
2.00559e-06
-7.41925e-07
2.3035e-06
-9.58194e-07
2.54575e-06
-1.18565e-06
2.73323e-06
-1.41945e-06
2.86764e-06
-1.65529e-06
2.95126e-06
-1.88936e-06
2.9869e-06
-2.11837e-06
2.97767e-06
-2.33952e-06
2.92689e-06
-2.55045e-06
2.83801e-06
-2.74922e-06
2.71445e-06
-2.93423e-06
2.5596e-06
-3.10421e-06
2.37673e-06
-3.25813e-06
2.16899e-06
-3.39515e-06
1.93937e-06
-3.51463e-06
1.69071e-06
-3.61601e-06
1.42569e-06
-3.69884e-06
1.14688e-06
-3.76273e-06
8.56762e-07
-3.80729e-06
5.57753e-07
-3.8322e-06
2.52246e-07
-3.83711e-06
-5.73403e-08
-3.82172e-06
-3.68524e-07
-3.78571e-06
-6.7871e-07
-3.72884e-06
-9.85156e-07
-3.65091e-06
-1.28493e-06
-3.55183e-06
-1.57487e-06
-3.43163e-06
-1.85158e-06
-3.29057e-06
-2.1114e-06
-3.12913e-06
-2.35042e-06
-2.94814e-06
-2.56448e-06
-2.74878e-06
-2.74922e-06
-2.53272e-06
-2.90016e-06
-2.30213e-06
-3.01275e-06
-2.05977e-06
-3.0825e-06
-1.80902e-06
-3.10511e-06
-1.55393e-06
-3.07665e-06
-1.29917e-06
-2.9937e-06
-1.05007e-06
-2.85358e-06
-8.12497e-07
-2.65452e-06
-5.92808e-07
-2.39583e-06
-3.97699e-07
-2.07808e-06
-2.34057e-07
-1.70321e-06
-1.08789e-07
-1.27461e-06
-2.86426e-08
-7.97032e-07
-2.76964e-07
-2.83437e-08
3.03853e-07
-1.06751e-07
8.62395e-07
-2.28304e-07
1.36567e-06
-3.86011e-07
1.80979e-06
-5.73003e-07
2.19258e-06
-7.82683e-07
2.51318e-06
-1.00885e-06
2.77192e-06
-1.24581e-06
2.97019e-06
-1.48842e-06
3.11025e-06
-1.73214e-06
3.19498e-06
-1.97304e-06
3.2278e-06
-2.20776e-06
3.21239e-06
-2.43353e-06
3.15266e-06
-2.64804e-06
3.05252e-06
-2.84946e-06
2.91587e-06
-3.03635e-06
2.74648e-06
-3.20757e-06
2.54795e-06
-3.36226e-06
2.32369e-06
-3.49978e-06
2.07689e-06
-3.61961e-06
1.81054e-06
-3.72136e-06
1.52744e-06