/*--------------------------------*- C++ -*----------------------------------*\
  =========                 |
  \\      /  F ield         | OpenFOAM: The Open Source CFD Toolbox
   \\    /   O peration     | Website:  https://openfoam.org
    \\  /    A nd           | Version:  7
     \\/     M anipulation  |
\*---------------------------------------------------------------------------*/
FoamFile
{
    version     2.0;
    format      ascii;
    class       volScalarField;
    location    "0.055";
    object      p;
}
// * * * * * * * * * * * * * * * * * * * * * * * * * * * * * * * * * * * * * //

dimensions      [0 2 -2 0 0 0 0];

internalField   nonuniform List<scalar> 
2500
(
1.34013e-05
-6.51204
-9.29737
-10.4935
-11.1591
-11.5657
-11.8297
-12.0147
-12.1526
-12.2599
-12.3459
-12.4161
-12.4745
-12.5234
-12.5648
-12.5999
-12.6298
-12.6553
-12.677
-12.6955
-12.7112
-12.7245
-12.7358
-12.7453
-12.7535
-12.7606
-12.7669
-12.7728
-12.7786
-12.7847
-12.7915
-12.7994
-12.8089
-12.8206
-12.8352
-12.8535
-12.8765
-12.9054
-12.9422
-12.989
-13.0493
-13.1284
-13.235
-13.3847
-13.6082
-13.9667
-14.5669
-15.668
-18.3353
-24.7201
-4.95536
-7.67544
-9.18237
-10.1427
-10.8108
-11.2711
-11.593
-11.8267
-12.0024
-12.1385
-12.2464
-12.3339
-12.4059
-12.4659
-12.5164
-12.5593
-12.5959
-12.6272
-12.6542
-12.6774
-12.6975
-12.715
-12.7302
-12.7436
-12.7555
-12.7664
-12.7765
-12.7863
-12.7962
-12.8066
-12.818
-12.8309
-12.8459
-12.8637
-12.8853
-12.9116
-12.9441
-12.9845
-13.0353
-13.0998
-13.1828
-13.2915
-13.4369
-13.6365
-13.9194
-14.3334
-14.9436
-15.832
-17.2522
-19.8512
-7.92462
-8.75722
-9.55841
-10.2396
-10.7802
-11.1905
-11.5005
-11.7376
-11.9221
-12.068
-12.1854
-12.2814
-12.3608
-12.4274
-12.4836
-12.5315
-12.5726
-12.608
-12.6387
-12.6653
-12.6886
-12.7091
-12.7272
-12.7435
-12.7582
-12.7719
-12.7849
-12.7976
-12.8105
-12.824
-12.8387
-12.8551
-12.874
-12.8961
-12.9223
-12.9539
-12.9924
-13.0397
-13.0984
-13.1719
-13.265
-13.3844
-13.5399
-13.7449
-14.0189
-14.3881
-14.8807
-15.5089
-16.2546
-17.0179
-9.43383
-9.64744
-10.0668
-10.512
-10.9053
-11.2327
-11.4996
-11.7157
-11.8911
-12.0343
-12.1522
-12.2503
-12.3326
-12.4023
-12.4617
-12.5126
-12.5566
-12.5948
-12.6281
-12.6572
-12.6829
-12.7057
-12.7261
-12.7446
-12.7616
-12.7775
-12.7927
-12.8077
-12.8229
-12.8388
-12.856
-12.875
-12.8967
-12.9217
-12.951
-12.986
-13.0279
-13.0787
-13.1407
-13.2171
-13.3117
-13.4298
-13.5781
-13.765
-14
-14.2926
-14.6483
-15.0545
-15.4369
-15.6147
-10.3191
-10.3189
-10.5231
-10.8002
-11.0752
-11.3256
-11.5446
-11.7319
-11.8905
-12.0245
-12.1378
-12.234
-12.316
-12.3864
-12.4471
-12.4997
-12.5455
-12.5855
-12.6207
-12.6518
-12.6793
-12.704
-12.7263
-12.7466
-12.7654
-12.7831
-12.8001
-12.817
-12.8341
-12.8519
-12.8711
-12.8921
-12.9158
-12.9428
-12.9742
-13.011
-13.0546
-13.1067
-13.1692
-13.2445
-13.3357
-13.4462
-13.5801
-13.7413
-13.9329
-14.1547
-14.4006
-14.6497
-14.8296
-14.8112
-10.8855
-10.8116
-10.9007
-11.0685
-11.2567
-11.4433
-11.6177
-11.7747
-11.9133
-12.0343
-12.1395
-12.2308
-12.3102
-12.3793
-12.4397
-12.4926
-12.5391
-12.5801
-12.6164
-12.6487
-12.6776
-12.7037
-12.7273
-12.749
-12.7693
-12.7884
-12.8069
-12.8252
-12.8437
-12.863
-12.8835
-12.9059
-12.9308
-12.959
-12.9913
-13.0288
-13.0725
-13.1239
-13.1845
-13.2561
-13.3405
-13.44
-13.5562
-13.6902
-13.8413
-14.0048
-14.1707
-14.3187
-14.3924
-14.3107
-11.2674
-11.1768
-11.2074
-11.3067
-11.4335
-11.5702
-11.7059
-11.8347
-11.9526
-12.0591
-12.1543
-12.2389
-12.3138
-12.3801
-12.4387
-12.4908
-12.537
-12.5781
-12.6149
-12.6478
-12.6775
-12.7044
-12.729
-12.7517
-12.7729
-12.7931
-12.8126
-12.8319
-12.8514
-12.8715
-12.8929
-12.9161
-12.9415
-12.9701
-13.0024
-13.0394
-13.082
-13.1313
-13.1883
-13.2542
-13.3302
-13.4171
-13.5152
-13.6237
-13.7401
-13.8582
-13.9681
-14.0534
-14.0747
-13.9822
-11.5403
-11.4536
-11.4551
-11.5121
-11.5965
-11.6954
-11.7999
-11.9035
-12.0022
-12.0943
-12.1787
-12.2555
-12.3248
-12.3872
-12.4432
-12.4934
-12.5385
-12.5791
-12.6157
-12.6487
-12.6786
-12.7059
-12.731
-12.7543
-12.7761
-12.7969
-12.817
-12.8369
-12.8569
-12.8776
-12.8993
-12.9227
-12.9481
-12.9764
-13.008
-13.0437
-13.0843
-13.1304
-13.1828
-13.2422
-13.309
-13.3833
-13.4645
-13.551
-13.6393
-13.7235
-13.7952
-13.8424
-13.8387
-13.7533
-11.746
-11.6686
-11.656
-11.687
-11.7425
-11.8136
-11.8932
-11.9758
-12.0574
-12.1359
-12.2097
-12.2784
-12.3415
-12.3993
-12.4519
-12.4997
-12.5431
-12.5825
-12.6183
-12.6508
-12.6806
-12.7079
-12.7331
-12.7565
-12.7786
-12.7996
-12.82
-12.8401
-12.8603
-12.8811
-12.9027
-12.9258
-12.9508
-12.9782
-13.0086
-13.0424
-13.0803
-13.1227
-13.1701
-13.2227
-13.2805
-13.3432
-13.4095
-13.4776
-13.544
-13.6035
-13.6496
-13.6739
-13.6589
-13.585
-11.9074
-11.8398
-11.8207
-11.8356
-11.8715
-11.9222
-11.9826
-12.0479
-12.1149
-12.1811
-12.2449
-12.3055
-12.3624
-12.4152
-12.4639
-12.5088
-12.55
-12.5877
-12.6223
-12.654
-12.6832
-12.71
-12.735
-12.7583
-12.7802
-12.8012
-12.8216
-12.8416
-12.8616
-12.8821
-12.9033
-12.9258
-12.9499
-12.9761
-13.0048
-13.0364
-13.0712
-13.1097
-13.1519
-13.1979
-13.2474
-13.2997
-13.3535
-13.4067
-13.4563
-13.4981
-13.5272
-13.5379
-13.5184
-13.4557
-12.0378
-11.979
-11.9573
-11.9624
-11.9849
-12.0209
-12.0664
-12.1179
-12.1724
-12.2278
-12.2825
-12.3355
-12.386
-12.4338
-12.4785
-12.5201
-12.5587
-12.5945
-12.6275
-12.6579
-12.6861
-12.7122
-12.7366
-12.7594
-12.781
-12.8016
-12.8216
-12.8412
-12.8608
-12.8808
-12.9013
-12.9229
-12.9459
-12.9706
-12.9973
-13.0264
-13.0581
-13.0926
-13.1299
-13.1698
-13.2118
-13.2551
-13.2985
-13.3399
-13.3769
-13.4061
-13.4239
-13.4266
-13.4061
-13.3531
-12.1457
-12.0944
-12.0721
-12.0711
-12.0845
-12.1097
-12.1439
-12.1843
-12.2284
-12.2745
-12.321
-12.367
-12.4116
-12.4543
-12.4948
-12.5331
-12.5689
-12.6023
-12.6334
-12.6623
-12.6893
-12.7144
-12.7379
-12.7599
-12.7809
-12.8009
-12.8203
-12.8393
-12.8582
-12.8773
-12.897
-12.9175
-12.9391
-12.9621
-12.9868
-13.0133
-13.0419
-13.0726
-13.1053
-13.1396
-13.175
-13.2108
-13.2457
-13.2779
-13.3054
-13.3257
-13.3361
-13.3342
-13.3142
-13.2694
-12.2364
-12.1914
-12.1697
-12.165
-12.1722
-12.1896
-12.2151
-12.2466
-12.2822
-12.3203
-12.3596
-12.3991
-12.4381
-12.476
-12.5124
-12.5471
-12.58
-12.6109
-12.6399
-12.6671
-12.6925
-12.7164
-12.7388
-12.7599
-12.7799
-12.7991
-12.8177
-12.8358
-12.8539
-12.872
-12.8906
-12.9098
-12.9299
-12.9512
-12.9738
-12.9978
-13.0234
-13.0505
-13.0789
-13.1083
-13.1382
-13.1677
-13.1956
-13.2207
-13.2412
-13.2552
-13.2608
-13.2564
-13.2378
-13.1998
-12.3138
-12.2742
-12.2535
-12.2467
-12.2497
-12.2613
-12.2802
-12.3046
-12.3332
-12.3645
-12.3975
-12.4313
-12.4651
-12.4984
-12.5308
-12.562
-12.5918
-12.6201
-12.6469
-12.6722
-12.6959
-12.7183
-12.7393
-12.7593
-12.7782
-12.7964
-12.814
-12.8311
-12.8481
-12.8652
-12.8825
-12.9004
-12.9189
-12.9384
-12.9589
-12.9805
-13.0032
-13.027
-13.0517
-13.0768
-13.1019
-13.1261
-13.1486
-13.1682
-13.1835
-13.193
-13.1955
-13.19
-13.1731
-13.1409
-12.3805
-12.3456
-12.3263
-12.3183
-12.3185
-12.3259
-12.3397
-12.3586
-12.3813
-12.4069
-12.4344
-12.463
-12.4921
-12.5211
-12.5497
-12.5774
-12.6042
-12.6299
-12.6543
-12.6774
-12.6993
-12.7201
-12.7397
-12.7583
-12.776
-12.793
-12.8094
-12.8254
-12.8412
-12.8571
-12.8731
-12.8895
-12.9064
-12.9241
-12.9425
-12.9618
-12.9819
-13.0027
-13.024
-13.0454
-13.0665
-13.0865
-13.1046
-13.12
-13.1314
-13.1379
-13.1384
-13.1324
-13.1174
-13.0901
-12.4387
-12.4078
-12.39
-12.3816
-12.3798
-12.3843
-12.3942
-12.4086
-12.4266
-12.4474
-12.4701
-12.4941
-12.5189
-12.5439
-12.5688
-12.5932
-12.617
-12.6399
-12.6619
-12.6829
-12.7029
-12.7219
-12.7399
-12.757
-12.7733
-12.789
-12.8041
-12.8189
-12.8335
-12.848
-12.8626
-12.8775
-12.8928
-12.9087
-12.9251
-12.9422
-12.9599
-12.978
-12.9963
-13.0145
-13.0322
-13.0487
-13.0634
-13.0755
-13.0841
-13.0884
-13.0879
-13.082
-13.0689
-13.0458
-12.4899
-12.4626
-12.4464
-12.4379
-12.435
-12.4372
-12.4441
-12.455
-12.4691
-12.4858
-12.5044
-12.5244
-12.5453
-12.5666
-12.588
-12.6093
-12.6301
-12.6504
-12.6699
-12.6887
-12.7066
-12.7237
-12.74
-12.7556
-12.7704
-12.7847
-12.7984
-12.8118
-12.8251
-12.8382
-12.8514
-12.8647
-12.8784
-12.8925
-12.9071
-12.9221
-12.9375
-12.9531
-12.9689
-12.9843
-12.9991
-13.0128
-13.0247
-13.0343
-13.0409
-13.0438
-13.0426
-13.0372
-13.0259
-13.0066
-12.5352
-12.5113
-12.4966
-12.4884
-12.4848
-12.4855
-12.4901
-12.4982
-12.5091
-12.5223
-12.5374
-12.5538
-12.5711
-12.589
-12.6072
-12.6255
-12.6435
-12.6611
-12.6782
-12.6948
-12.7106
-12.7258
-12.7403
-12.7542
-12.7674
-12.7802
-12.7925
-12.8045
-12.8162
-12.8279
-12.8396
-12.8515
-12.8635
-12.8759
-12.8886
-12.9016
-12.9149
-12.9284
-12.9418
-12.9549
-12.9672
-12.9785
-12.9883
-12.9959
-13.001
-13.003
-13.0017
-12.9969
-12.9874
-12.9715
-12.5758
-12.5549
-12.5418
-12.5341
-12.5301
-12.5297
-12.5326
-12.5385
-12.5467
-12.557
-12.569
-12.5822
-12.5964
-12.6113
-12.6265
-12.6418
-12.6571
-12.6721
-12.6869
-12.7012
-12.7149
-12.7282
-12.7408
-12.753
-12.7646
-12.7757
-12.7865
-12.797
-12.8073
-12.8175
-12.8276
-12.8379
-12.8483
-12.859
-12.8699
-12.8811
-12.8924
-12.9039
-12.9152
-12.9261
-12.9365
-12.9458
-12.9538
-12.9599
-12.9639
-12.9654
-12.9641
-12.9601
-12.9524
-12.9396
-12.6123
-12.5944
-12.5829
-12.5758
-12.5718
-12.5706
-12.5722
-12.5762
-12.5823
-12.5902
-12.5994
-12.6099
-12.6212
-12.6332
-12.6456
-12.6582
-12.6709
-12.6835
-12.6959
-12.7079
-12.7196
-12.7309
-12.7417
-12.752
-12.762
-12.7715
-12.7807
-12.7896
-12.7983
-12.807
-12.8156
-12.8242
-12.833
-12.842
-12.8512
-12.8606
-12.8701
-12.8796
-12.889
-12.8981
-12.9067
-12.9144
-12.9209
-12.9259
-12.9291
-12.9303
-12.9293
-12.9261
-12.9201
-12.9102
-12.6456
-12.6304
-12.6205
-12.6142
-12.6103
-12.6087
-12.6093
-12.6119
-12.6161
-12.6219
-12.6288
-12.6368
-12.6455
-12.6549
-12.6647
-12.6748
-12.685
-12.6952
-12.7053
-12.7152
-12.7248
-12.7341
-12.743
-12.7515
-12.7597
-12.7676
-12.7751
-12.7824
-12.7896
-12.7966
-12.8036
-12.8107
-12.8178
-12.8251
-12.8326
-12.8402
-12.8479
-12.8557
-12.8634
-12.8708
-12.8777
-12.8839
-12.8892
-12.8933
-12.896
-12.8971
-12.8965
-12.8943
-12.8899
-12.8827
-12.6763
-12.6636
-12.6553
-12.6498
-12.6462
-12.6444
-12.6443
-12.6457
-12.6484
-12.6523
-12.6572
-12.663
-12.6694
-12.6764
-12.6838
-12.6915
-12.6993
-12.7073
-12.7151
-12.7229
-12.7305
-12.7378
-12.7448
-12.7516
-12.758
-12.7641
-12.77
-12.7757
-12.7811
-12.7865
-12.7919
-12.7973
-12.8028
-12.8083
-12.8141
-12.82
-12.826
-12.832
-12.8381
-12.8439
-12.8494
-12.8543
-12.8586
-12.8619
-12.8642
-12.8654
-12.8653
-12.864
-12.8613
-12.8566
-12.7048
-12.6947
-12.6879
-12.6833
-12.6801
-12.6782
-12.6776
-12.6781
-12.6795
-12.6818
-12.6849
-12.6886
-12.6929
-12.6977
-12.7029
-12.7083
-12.714
-12.7197
-12.7255
-12.7312
-12.7367
-12.7421
-12.7473
-12.7522
-12.7568
-12.7612
-12.7654
-12.7693
-12.7732
-12.7769
-12.7805
-12.7842
-12.788
-12.7918
-12.7958
-12.8
-12.8043
-12.8087
-12.8131
-12.8174
-12.8215
-12.8253
-12.8286
-12.8313
-12.8333
-12.8346
-12.835
-12.8347
-12.8336
-12.8315
-12.7316
-12.724
-12.7188
-12.7152
-12.7125
-12.7106
-12.7096
-12.7093
-12.7096
-12.7105
-12.7119
-12.7139
-12.7162
-12.719
-12.722
-12.7254
-12.7289
-12.7326
-12.7363
-12.7399
-12.7436
-12.747
-12.7503
-12.7534
-12.7563
-12.7589
-12.7614
-12.7636
-12.7657
-12.7677
-12.7696
-12.7715
-12.7735
-12.7756
-12.7778
-12.7802
-12.7828
-12.7855
-12.7883
-12.7911
-12.7939
-12.7965
-12.799
-12.8011
-12.8029
-12.8043
-12.8053
-12.806
-12.8065
-12.8068
-12.7573
-12.7521
-12.7485
-12.7458
-12.7437
-12.7419
-12.7406
-12.7396
-12.7389
-12.7386
-12.7385
-12.7388
-12.7393
-12.7402
-12.7413
-12.7426
-12.7441
-12.7458
-12.7475
-12.7493
-12.751
-12.7526
-12.7541
-12.7554
-12.7565
-12.7574
-12.758
-12.7585
-12.7588
-12.759
-12.7592
-12.7593
-12.7595
-12.7597
-12.7601
-12.7607
-12.7614
-12.7624
-12.7635
-12.7649
-12.7663
-12.7678
-12.7694
-12.771
-12.7725
-12.7741
-12.7757
-12.7774
-12.7795
-12.7822
-12.7823
-12.7795
-12.7774
-12.7757
-12.7741
-12.7726
-12.771
-12.7694
-12.7678
-12.7663
-12.7649
-12.7636
-12.7624
-12.7614
-12.7607
-12.7601
-12.7597
-12.7595
-12.7593
-12.7592
-12.7591
-12.7588
-12.7585
-12.758
-12.7574
-12.7565
-12.7554
-12.7541
-12.7526
-12.751
-12.7493
-12.7475
-12.7458
-12.7441
-12.7426
-12.7413
-12.7402
-12.7393
-12.7388
-12.7385
-12.7386
-12.7389
-12.7396
-12.7406
-12.7419
-12.7436
-12.7458
-12.7485
-12.7521
-12.7573
-12.8069
-12.8065
-12.806
-12.8053
-12.8043
-12.8029
-12.8011
-12.799
-12.7966
-12.7939
-12.7911
-12.7883
-12.7855
-12.7828
-12.7802
-12.7778
-12.7756
-12.7735
-12.7716
-12.7696
-12.7677
-12.7657
-12.7636
-12.7614
-12.7589
-12.7563
-12.7534
-12.7503
-12.747
-12.7435
-12.7399
-12.7362
-12.7325
-12.7289
-12.7253
-12.722
-12.7189
-12.7162
-12.7138
-12.7119
-12.7105
-12.7096
-12.7092
-12.7095
-12.7106
-12.7124
-12.7151
-12.7188
-12.724
-12.7316
-12.8315
-12.8336
-12.8347
-12.835
-12.8346
-12.8333
-12.8313
-12.8286
-12.8253
-12.8215
-12.8174
-12.8131
-12.8087
-12.8043
-12.8
-12.7958
-12.7918
-12.788
-12.7842
-12.7805
-12.7769
-12.7732
-12.7694
-12.7654
-12.7612
-12.7568
-12.7522
-12.7473
-12.7421
-12.7367
-12.7311
-12.7254
-12.7197
-12.7139
-12.7083
-12.7029
-12.6977
-12.6929
-12.6886
-12.6849
-12.6818
-12.6795
-12.678
-12.6776
-12.6782
-12.6801
-12.6833
-12.6879
-12.6946
-12.7047
-12.8567
-12.8613
-12.864
-12.8653
-12.8654
-12.8643
-12.862
-12.8586
-12.8544
-12.8494
-12.8439
-12.8381
-12.8321
-12.826
-12.82
-12.8141
-12.8084
-12.8028
-12.7973
-12.7919
-12.7865
-12.7811
-12.7756
-12.77
-12.7641
-12.758
-12.7515
-12.7448
-12.7378
-12.7305
-12.7229
-12.7151
-12.7072
-12.6993
-12.6915
-12.6838
-12.6764
-12.6694
-12.6629
-12.6572
-12.6523
-12.6484
-12.6457
-12.6443
-12.6444
-12.6462
-12.6498
-12.6553
-12.6636
-12.6762
-12.8827
-12.8899
-12.8943
-12.8965
-12.8971
-12.896
-12.8934
-12.8893
-12.884
-12.8777
-12.8708
-12.8634
-12.8557
-12.8479
-12.8402
-12.8326
-12.8251
-12.8178
-12.8107
-12.8036
-12.7966
-12.7896
-12.7824
-12.7751
-12.7676
-12.7597
-12.7515
-12.743
-12.7341
-12.7248
-12.7152
-12.7053
-12.6952
-12.685
-12.6748
-12.6647
-12.6549
-12.6455
-12.6367
-12.6288
-12.6218
-12.6161
-12.6118
-12.6093
-12.6086
-12.6102
-12.6141
-12.6204
-12.6303
-12.6456
-12.9102
-12.9201
-12.9262
-12.9293
-12.9303
-12.9291
-12.9259
-12.9209
-12.9144
-12.9067
-12.8982
-12.8891
-12.8796
-12.8701
-12.8606
-12.8512
-12.842
-12.833
-12.8242
-12.8156
-12.807
-12.7983
-12.7896
-12.7807
-12.7715
-12.762
-12.752
-12.7417
-12.7309
-12.7196
-12.7079
-12.6959
-12.6835
-12.6709
-12.6582
-12.6456
-12.6332
-12.6212
-12.6099
-12.5994
-12.5901
-12.5823
-12.5762
-12.5722
-12.5706
-12.5717
-12.5758
-12.5828
-12.5943
-12.6123
-12.9396
-12.9524
-12.9601
-12.9642
-12.9654
-12.9639
-12.9599
-12.9538
-12.9458
-12.9365
-12.9262
-12.9152
-12.9039
-12.8924
-12.8811
-12.8699
-12.859
-12.8483
-12.8379
-12.8276
-12.8174
-12.8073
-12.797
-12.7865
-12.7757
-12.7646
-12.7529
-12.7408
-12.7281
-12.7149
-12.7011
-12.6868
-12.6721
-12.657
-12.6418
-12.6264
-12.6112
-12.5964
-12.5822
-12.569
-12.557
-12.5467
-12.5384
-12.5326
-12.5297
-12.5301
-12.5341
-12.5418
-12.5549
-12.5757
-12.9715
-12.9874
-12.9969
-13.0017
-13.003
-13.001
-12.9959
-12.9883
-12.9786
-12.9673
-12.9549
-12.9418
-12.9284
-12.9149
-12.9016
-12.8886
-12.8759
-12.8635
-12.8515
-12.8396
-12.8279
-12.8162
-12.8045
-12.7925
-12.7802
-12.7674
-12.7542
-12.7403
-12.7258
-12.7106
-12.6947
-12.6782
-12.6611
-12.6434
-12.6254
-12.6072
-12.589
-12.5711
-12.5537
-12.5373
-12.5223
-12.509
-12.4981
-12.4901
-12.4854
-12.4847
-12.4884
-12.4966
-12.5113
-12.5352
-13.0066
-13.0259
-13.0372
-13.0426
-13.0438
-13.0409
-13.0343
-13.0247
-13.0128
-12.9991
-12.9843
-12.9689
-12.9531
-12.9375
-12.9221
-12.9071
-12.8925
-12.8784
-12.8647
-12.8514
-12.8382
-12.825
-12.8118
-12.7984
-12.7846
-12.7704
-12.7556
-12.74
-12.7237
-12.7066
-12.6887
-12.6699
-12.6503
-12.6301
-12.6092
-12.588
-12.5665
-12.5452
-12.5244
-12.5044
-12.4857
-12.4691
-12.4549
-12.4441
-12.4371
-12.4349
-12.4379
-12.4463
-12.4626
-12.4898
-13.0458
-13.0689
-13.082
-13.0879
-13.0884
-13.0841
-13.0755
-13.0634
-13.0487
-13.0322
-13.0145
-12.9963
-12.978
-12.9599
-12.9422
-12.9251
-12.9087
-12.8928
-12.8775
-12.8626
-12.848
-12.8335
-12.8189
-12.8041
-12.789
-12.7733
-12.757
-12.7398
-12.7218
-12.7029
-12.6829
-12.6619
-12.6399
-12.617
-12.5932
-12.5687
-12.5439
-12.5189
-12.4941
-12.4701
-12.4473
-12.4265
-12.4085
-12.3941
-12.3842
-12.3798
-12.3816
-12.39
-12.4078
-12.4387
-13.0901
-13.1174
-13.1324
-13.1384
-13.1379
-13.1314
-13.12
-13.1046
-13.0865
-13.0665
-13.0454
-13.024
-13.0027
-12.9819
-12.9618
-12.9425
-12.9241
-12.9064
-12.8895
-12.8731
-12.8571
-12.8412
-12.8254
-12.8094
-12.7929
-12.776
-12.7582
-12.7396
-12.72
-12.6993
-12.6774
-12.6542
-12.6298
-12.6042
-12.5774
-12.5496
-12.5211
-12.4921
-12.463
-12.4344
-12.4069
-12.3813
-12.3585
-12.3396
-12.3259
-12.3184
-12.3183
-12.3262
-12.3455
-12.3805
-13.1409
-13.1731
-13.19
-13.1955
-13.193
-13.1835
-13.1682
-13.1487
-13.1261
-13.1019
-13.0768
-13.0517
-13.027
-13.0032
-12.9805
-12.9589
-12.9384
-12.9189
-12.9004
-12.8825
-12.8652
-12.8481
-12.8311
-12.8139
-12.7964
-12.7782
-12.7593
-12.7393
-12.7182
-12.6959
-12.6721
-12.6469
-12.6201
-12.5918
-12.562
-12.5308
-12.4984
-12.465
-12.4312
-12.3975
-12.3645
-12.3331
-12.3046
-12.2801
-12.2613
-12.2496
-12.2467
-12.2535
-12.2741
-12.3137
-13.1998
-13.2378
-13.2564
-13.2608
-13.2552
-13.2412
-13.2208
-13.1957
-13.1677
-13.1382
-13.1083
-13.0789
-13.0505
-13.0234
-12.9978
-12.9738
-12.9512
-12.9299
-12.9098
-12.8906
-12.872
-12.8539
-12.8358
-12.8176
-12.7991
-12.7799
-12.7598
-12.7387
-12.7164
-12.6925
-12.6671
-12.6399
-12.6109
-12.5799
-12.5471
-12.5124
-12.476
-12.4381
-12.3991
-12.3595
-12.3202
-12.2821
-12.2465
-12.215
-12.1895
-12.1722
-12.165
-12.1696
-12.1913
-12.2363
-13.2694
-13.3143
-13.3342
-13.3361
-13.3257
-13.3054
-13.2779
-13.2457
-13.2108
-13.1751
-13.1396
-13.1053
-13.0726
-13.0419
-13.0133
-12.9868
-12.9621
-12.9391
-12.9174
-12.897
-12.8773
-12.8582
-12.8392
-12.8202
-12.8009
-12.7809
-12.7599
-12.7378
-12.7143
-12.6892
-12.6623
-12.6334
-12.6022
-12.5688
-12.533
-12.4948
-12.4542
-12.4115
-12.3669
-12.321
-12.2744
-12.2283
-12.1842
-12.1438
-12.1097
-12.0845
-12.0711
-12.0721
-12.0943
-12.1456
-13.3531
-13.4061
-13.4266
-13.4239
-13.4061
-13.3769
-13.3399
-13.2985
-13.2551
-13.2118
-13.1698
-13.1299
-13.0926
-13.0581
-13.0264
-12.9973
-12.9706
-12.9459
-12.9229
-12.9013
-12.8807
-12.8608
-12.8412
-12.8216
-12.8016
-12.781
-12.7594
-12.7366
-12.7122
-12.6861
-12.6579
-12.6274
-12.5944
-12.5587
-12.5201
-12.4784
-12.4337
-12.386
-12.3354
-12.2824
-12.2277
-12.1723
-12.1178
-12.0663
-12.0208
-11.9848
-11.9623
-11.9573
-11.979
-12.0377
-13.4557
-13.5184
-13.5379
-13.5272
-13.4981
-13.4563
-13.4067
-13.3535
-13.2997
-13.2474
-13.1979
-13.1519
-13.1097
-13.0712
-13.0364
-13.0048
-12.9761
-12.9499
-12.9258
-12.9033
-12.8821
-12.8616
-12.8415
-12.8215
-12.8012
-12.7802
-12.7582
-12.7349
-12.71
-12.6831
-12.654
-12.6223
-12.5877
-12.55
-12.5088
-12.4639
-12.4151
-12.3623
-12.3055
-12.2449
-12.181
-12.1148
-12.0479
-11.9825
-11.9222
-11.8714
-11.8356
-11.8206
-11.8397
-11.9073
-13.585
-13.6589
-13.674
-13.6496
-13.6035
-13.544
-13.4776
-13.4095
-13.3432
-13.2805
-13.2227
-13.1701
-13.1227
-13.0803
-13.0424
-13.0086
-12.9782
-12.9508
-12.9258
-12.9027
-12.881
-12.8603
-12.8401
-12.82
-12.7996
-12.7786
-12.7565
-12.733
-12.7078
-12.6806
-12.6508
-12.6182
-12.5824
-12.543
-12.4996
-12.4518
-12.3992
-12.3414
-12.2783
-12.2097
-12.1358
-12.0574
-11.9757
-11.8931
-11.8135
-11.7424
-11.6869
-11.6559
-11.6685
-11.7459
-13.7534
-13.8387
-13.8424
-13.7952
-13.7235
-13.6393
-13.551
-13.4645
-13.3833
-13.309
-13.2422
-13.1828
-13.1304
-13.0843
-13.0437
-13.008
-12.9764
-12.9481
-12.9226
-12.8993
-12.8776
-12.8569
-12.8369
-12.817
-12.7969
-12.7761
-12.7542
-12.731
-12.7059
-12.6786
-12.6486
-12.6156
-12.5791
-12.5385
-12.4934
-12.4431
-12.3871
-12.3247
-12.2554
-12.1787
-12.0942
-12.0021
-11.9034
-11.7998
-11.6954
-11.5964
-11.512
-11.455
-11.4535
-11.5402
-13.9822
-14.0747
-14.0534
-13.9681
-13.8582
-13.7401
-13.6237
-13.5152
-13.417
-13.3302
-13.2542
-13.1883
-13.1313
-13.082
-13.0394
-13.0024
-12.9701
-12.9415
-12.916
-12.8929
-12.8715
-12.8513
-12.8318
-12.8126
-12.7931
-12.7729
-12.7517
-12.729
-12.7044
-12.6775
-12.6478
-12.6148
-12.5781
-12.5369
-12.4907
-12.4387
-12.38
-12.3137
-12.2388
-12.1543
-12.0591
-11.9525
-11.8346
-11.7058
-11.5701
-11.4334
-11.3066
-11.2073
-11.1767
-11.2673
-14.3107
-14.3924
-14.3187
-14.1707
-14.0048
-13.8413
-13.6902
-13.5562
-13.44
-13.3405
-13.256
-13.1845
-13.1239
-13.0725
-13.0288
-12.9913
-12.959
-12.9308
-12.9059
-12.8835
-12.8629
-12.8437
-12.8251
-12.8069
-12.7884
-12.7692
-12.749
-12.7273
-12.7036
-12.6776
-12.6487
-12.6164
-12.58
-12.539
-12.4925
-12.4396
-12.3793
-12.3102
-12.2308
-12.1394
-12.0342
-11.9132
-11.7747
-11.6176
-11.4432
-11.2566
-11.0684
-10.9006
-10.8115
-10.8854
-14.8112
-14.8296
-14.6497
-14.4006
-14.1547
-13.9329
-13.7413
-13.5801
-13.4462
-13.3357
-13.2445
-13.1692
-13.1067
-13.0546
-13.011
-12.9742
-12.9428
-12.9158
-12.8921
-12.8711
-12.8519
-12.8341
-12.817
-12.8001
-12.7831
-12.7653
-12.7465
-12.7262
-12.704
-12.6793
-12.6517
-12.6206
-12.5855
-12.5454
-12.4996
-12.4471
-12.3864
-12.316
-12.2339
-12.1377
-12.0244
-11.8904
-11.7318
-11.5445
-11.3255
-11.0751
-10.8001
-10.5229
-10.3187
-10.319
-15.6147
-15.4369
-15.0545
-14.6483
-14.2926
-14
-13.765
-13.5781
-13.4298
-13.3117
-13.2171
-13.1407
-13.0787
-13.0279
-12.9859
-12.951
-12.9217
-12.8967
-12.875
-12.856
-12.8388
-12.8229
-12.8076
-12.7927
-12.7774
-12.7616
-12.7446
-12.7261
-12.7057
-12.6829
-12.6572
-12.628
-12.5947
-12.5566
-12.5126
-12.4616
-12.4022
-12.3326
-12.2502
-12.1521
-12.0342
-11.891
-11.7156
-11.4995
-11.2326
-10.9052
-10.5119
-10.0666
-9.64731
-9.4337
-17.0179
-16.2546
-15.5089
-14.8807
-14.3881
-14.0189
-13.7449
-13.5399
-13.3844
-13.265
-13.1718
-13.0984
-13.0397
-12.9924
-12.9539
-12.9223
-12.8961
-12.874
-12.8551
-12.8387
-12.824
-12.8105
-12.7976
-12.7848
-12.7719
-12.7582
-12.7434
-12.7272
-12.709
-12.6886
-12.6653
-12.6386
-12.608
-12.5726
-12.5315
-12.4836
-12.4273
-12.3608
-12.2813
-12.1853
-12.0679
-11.922
-11.7375
-11.5004
-11.1904
-10.7801
-10.2395
-9.55828
-8.75709
-7.92447
-19.8512
-17.2522
-15.832
-14.9436
-14.3334
-13.9194
-13.6365
-13.4369
-13.2915
-13.1828
-13.0998
-13.0353
-12.9845
-12.9441
-12.9116
-12.8852
-12.8637
-12.8458
-12.8308
-12.818
-12.8066
-12.7962
-12.7863
-12.7765
-12.7663
-12.7555
-12.7435
-12.7301
-12.7149
-12.6975
-12.6774
-12.6542
-12.6272
-12.5958
-12.5592
-12.5164
-12.4658
-12.4058
-12.3338
-12.2464
-12.1384
-12.0023
-11.8266
-11.5929
-11.271
-10.8107
-10.1426
-9.18223
-7.67528
-4.95519
-24.7201
-18.3353
-15.668
-14.5669
-13.9667
-13.6082
-13.3847
-13.235
-13.1284
-13.0493
-12.989
-12.9422
-12.9054
-12.8764
-12.8535
-12.8352
-12.8206
-12.8089
-12.7994
-12.7915
-12.7847
-12.7786
-12.7728
-12.7669
-12.7606
-12.7535
-12.7453
-12.7358
-12.7245
-12.7112
-12.6955
-12.677
-12.6552
-12.6297
-12.5998
-12.5647
-12.5233
-12.4744
-12.4161
-12.3458
-12.2599
-12.1525
-12.0146
-11.8295
-11.5656
-11.159
-10.4933
-9.29722
-6.51187
0.000212175
)
;

boundaryField
{
    movingWallTop
    {
        type            zeroGradient;
    }
    movingWallBottom
    {
        type            zeroGradient;
    }
    fixedWalls
    {
        type            zeroGradient;
    }
    frontAndBack
    {
        type            empty;
    }
}


// ************************************************************************* //
