/*--------------------------------*- C++ -*----------------------------------*\
  =========                 |
  \\      /  F ield         | OpenFOAM: The Open Source CFD Toolbox
   \\    /   O peration     | Website:  https://openfoam.org
    \\  /    A nd           | Version:  7
     \\/     M anipulation  |
\*---------------------------------------------------------------------------*/
FoamFile
{
    version     2.0;
    format      ascii;
    class       volScalarField;
    location    "0.0474";
    object      p;
}
// * * * * * * * * * * * * * * * * * * * * * * * * * * * * * * * * * * * * * //

dimensions      [0 2 -2 0 0 0 0];

internalField   nonuniform List<scalar> 
2500
(
-8.22348e-06
6.38523
9.05033
10.1467
10.7402
11.0908
11.3062
11.4479
11.5474
11.6206
11.6765
11.7207
11.7567
11.7869
11.813
11.8362
11.8574
11.8773
11.8963
11.9149
11.9333
11.9517
11.9704
11.9895
12.009
12.0292
12.0501
12.072
12.0949
12.1191
12.1448
12.1723
12.2019
12.2342
12.2698
12.3094
12.354
12.405
12.4643
12.5344
12.6192
12.7244
12.8593
13.0405
13.3
13.7016
14.3621
15.5533
18.3345
24.8439
4.86794
7.46776
8.88589
9.77011
10.3747
10.7821
11.0582
11.2513
11.3909
11.4948
11.5744
11.6371
11.6877
11.7296
11.7653
11.7964
11.8243
11.8498
11.8736
11.8964
11.9184
11.9402
11.9618
11.9836
12.0058
12.0285
12.052
12.0765
12.1022
12.1294
12.1584
12.1896
12.2236
12.261
12.3025
12.3493
12.4026
12.4644
12.5371
12.6244
12.7312
12.8654
13.0385
13.269
13.5873
14.0438
14.7081
15.6648
17.1686
19.886
7.70306
8.46696
9.21065
9.83488
10.3223
10.6855
10.9533
11.1525
11.3028
11.4182
11.5085
11.5807
11.6395
11.6885
11.7303
11.7666
11.799
11.8285
11.8558
11.8816
11.9063
11.9305
11.9544
11.9783
12.0025
12.0272
12.0526
12.0791
12.1069
12.1363
12.1677
12.2016
12.2386
12.2794
12.3249
12.3762
12.4348
12.5028
12.5829
12.6785
12.795
12.9392
13.1214
13.3559
13.6629
14.0702
14.6076
15.2858
16.0839
16.9127
9.11092
9.2886
9.66867
10.0708
10.4214
10.7081
10.9372
11.1185
11.2619
11.3762
11.4683
11.5436
11.606
11.6587
11.7039
11.7436
11.779
11.8112
11.841
11.8691
11.896
11.9221
11.9478
11.9734
11.9992
12.0254
12.0524
12.0805
12.1098
12.1409
12.1741
12.21
12.249
12.2921
12.34
12.3939
12.4554
12.5263
12.6091
12.7069
12.8239
12.9657
13.1392
13.3531
13.6176
13.9425
14.3331
14.7754
15.1909
15.3994
9.92115
9.90168
10.0788
10.3237
10.5642
10.7801
10.9656
11.1212
11.2502
11.357
11.4457
11.5201
11.583
11.637
11.684
11.7255
11.7628
11.7969
11.8285
11.8584
11.8869
11.9145
11.9417
11.9687
11.9959
12.0235
12.0518
12.0811
12.1118
12.1442
12.1787
12.216
12.2565
12.3009
12.3503
12.4056
12.4681
12.5396
12.6221
12.7181
12.8307
12.9635
13.1207
13.3063
13.5233
13.7717
14.0441
14.3179
14.5175
14.5105
10.4303
10.3465
10.4167
10.5599
10.7202
10.8775
11.0223
11.1505
11.2618
11.3573
11.4392
11.5096
11.5706
11.6238
11.6708
11.7129
11.7511
11.7862
11.8189
11.8499
11.8796
11.9084
11.9367
11.9647
11.993
12.0216
12.0509
12.0812
12.1128
12.1462
12.1817
12.2198
12.2611
12.3062
12.356
12.4114
12.4736
12.5438
12.6237
12.7151
12.8198
12.9401
13.0776
13.2334
13.4061
13.5907
13.7761
13.9402
14.0236
13.9415
10.7691
10.6729
10.6898
10.7698
10.8737
10.9853
11.0951
11.1976
11.2904
11.3731
11.4462
11.5108
11.5679
11.6188
11.6645
11.706
11.744
11.7793
11.8125
11.844
11.8744
11.9039
11.9329
11.9617
11.9907
12.02
12.05
12.081
12.1133
12.1473
12.1833
12.2218
12.2633
12.3084
12.3578
12.4124
12.4729
12.5404
12.616
12.7009
12.796
12.9022
13.0196
13.1471
13.2815
13.416
13.5396
13.6345
13.6585
13.5582
11.0091
10.9184
10.9094
10.9508
11.016
11.0933
11.1747
11.2547
11.3302
11.4
11.4636
11.5213
11.5736
11.621
11.6644
11.7044
11.7415
11.7763
11.8093
11.8408
11.8714
11.9012
11.9306
11.9598
11.9892
12.019
12.0495
12.0809
12.1135
12.1477
12.1838
12.2223
12.2635
12.3081
12.3565
12.4094
12.4674
12.5313
12.6016
12.6791
12.7639
12.8559
12.9544
13.0571
13.16
13.2565
13.3371
13.3889
13.3829
13.2853
11.1892
11.1083
11.0868
11.1047
11.1437
11.1959
11.2551
11.3163
11.3766
11.4344
11.4886
11.5391
11.5859
11.6293
11.6697
11.7075
11.7431
11.7769
11.8092
11.8403
11.8706
11.9004
11.9299
11.9592
11.9888
12.0188
12.0494
12.0809
12.1136
12.1478
12.1837
12.2218
12.2624
12.3059
12.3528
12.4036
12.4585
12.5182
12.5828
12.6525
12.7271
12.8059
12.8874
12.9692
13.0471
13.1152
13.1663
13.1913
13.1703
13.081
11.3303
11.2589
11.2319
11.2354
11.2568
11.2909
11.3329
11.3789
11.4263
11.4732
11.5187
11.5621
11.6034
11.6425
11.6795
11.7147
11.7484
11.7807
11.8119
11.8423
11.8721
11.9015
11.9307
11.9599
11.9894
12.0193
12.0499
12.0813
12.1138
12.1477
12.1833
12.2207
12.2603
12.3025
12.3476
12.3958
12.4473
12.5025
12.5613
12.6234
12.6884
12.7552
12.8221
12.8866
12.9449
12.9922
13.023
13.0311
13.0028
12.9225
11.4447
11.3812
11.3519
11.3466
11.3562
11.3772
11.4062
11.4401
11.4767
11.5143
11.5519
11.5888
11.6247
11.6594
11.6929
11.7253
11.7567
11.7873
11.8172
11.8465
11.8755
11.9043
11.933
11.9619
11.9911
12.0208
12.0511
12.0822
12.1144
12.1478
12.1826
12.2192
12.2577
12.2983
12.3413
12.3867
12.4348
12.4855
12.5385
12.5935
12.6497
12.706
12.7605
12.8109
12.854
12.8859
12.9026
12.9002
12.8685
12.7961
11.5395
11.4824
11.4525
11.4418
11.4433
11.4549
11.474
11.4984
11.5262
11.5559
11.5866
11.6175
11.6484
11.6789
11.709
11.7385
11.7676
11.7962
11.8246
11.8527
11.8807
11.9086
11.9367
11.9651
11.9938
12.023
12.0529
12.0836
12.1152
12.148
12.1821
12.2176
12.2547
12.2937
12.3344
12.3771
12.4217
12.468
12.5156
12.564
12.6124
12.6595
12.7036
12.7426
12.774
12.7945
12.8014
12.7922
12.7593
12.6936
11.6195
11.5673
11.5376
11.5235
11.5196
11.5243
11.5361
11.553
11.5736
11.5967
11.6215
11.6472
11.6736
11.7002
11.7269
11.7536
11.7803
11.807
11.8336
11.8604
11.8872
11.9143
11.9416
11.9692
11.9974
12.026
12.0554
12.0855
12.1165
12.1485
12.1816
12.216
12.2518
12.2889
12.3275
12.3674
12.4086
12.4507
12.4933
12.5358
12.5773
12.6165
12.652
12.6819
12.7041
12.7162
12.7162
12.7026
12.6695
12.6094
11.6877
11.6395
11.6102
11.594
11.5863
11.5861
11.5923
11.6034
11.6183
11.6359
11.6557
11.6769
11.6991
11.7222
11.7458
11.7698
11.7942
11.8189
11.8439
11.8692
11.8949
11.9209
11.9473
11.9742
12.0016
12.0296
12.0583
12.0878
12.118
12.1492
12.1814
12.2146
12.2489
12.2843
12.3206
12.3579
12.3958
12.4341
12.4721
12.5093
12.5448
12.5774
12.6057
12.6283
12.6433
12.6491
12.6443
12.6279
12.5952
12.5397
11.7464
11.7012
11.6725
11.6549
11.6446
11.6408
11.6427
11.6493
11.6597
11.6729
11.6884
11.7057
11.7244
11.7443
11.765
11.7866
11.8088
11.8316
11.8549
11.8788
11.9033
11.9282
11.9537
11.9798
12.0064
12.0337
12.0617
12.0904
12.1199
12.1502
12.1814
12.2134
12.2462
12.2798
12.3141
12.3488
12.3838
12.4185
12.4525
12.485
12.5152
12.5422
12.5646
12.5813
12.5909
12.5919
12.5835
12.5654
12.5333
12.4816
11.7969
11.7541
11.726
11.7076
11.6954
11.689
11.6877
11.6908
11.6975
11.7071
11.7191
11.7331
11.7488
11.7658
11.7841
11.8033
11.8235
11.8445
11.8663
11.8888
11.912
11.9359
11.9604
11.9856
12.0115
12.0381
12.0653
12.0933
12.122
12.1514
12.1816
12.2124
12.2438
12.2758
12.308
12.3404
12.3726
12.4041
12.4345
12.4629
12.4887
12.511
12.5286
12.5405
12.5457
12.5432
12.5323
12.513
12.4817
12.4332
11.8405
11.7996
11.7719
11.753
11.7394
11.7311
11.7274
11.7278
11.7316
11.7383
11.7474
11.7587
11.7717
11.7864
11.8024
11.8196
11.8379
11.8573
11.8776
11.8988
11.9209
11.9437
11.9673
11.9917
12.0168
12.0426
12.0691
12.0963
12.1242
12.1528
12.1819
12.2116
12.2417
12.2721
12.3025
12.3328
12.3625
12.3911
12.4183
12.4432
12.4653
12.4835
12.4972
12.5054
12.5072
12.5019
12.4892
12.4691
12.4386
12.3929
11.8778
11.8384
11.8112
11.7919
11.7774
11.7676
11.7621
11.7604
11.7619
11.7663
11.7731
11.782
11.7929
11.8054
11.8195
11.8349
11.8516
11.8695
11.8885
11.9085
11.9295
11.9513
11.974
11.9976
12.0219
12.047
12.0728
12.0993
12.1264
12.1542
12.1824
12.211
12.2399
12.2688
12.2976
12.3259
12.3534
12.3796
12.404
12.4259
12.4448
12.4598
12.4702
12.4753
12.4745
12.4671
12.4531
12.4326
12.4028
12.3594
11.9096
11.8712
11.8444
11.8249
11.8098
11.7989
11.792
11.7887
11.7884
11.7909
11.7958
11.8029
11.8119
11.8227
11.8351
11.849
11.8643
11.8809
11.8987
11.9176
11.9375
11.9585
11.9804
12.0032
12.0268
12.0512
12.0764
12.1022
12.1286
12.1555
12.1829
12.2105
12.2383
12.266
12.2933
12.3199
12.3455
12.3695
12.3916
12.411
12.4272
12.4395
12.4473
12.45
12.4471
12.4381
12.4231
12.4024
12.3733
12.3318
11.9362
11.8987
11.8722
11.8525
11.8369
11.8252
11.8173
11.8127
11.811
11.812
11.8154
11.821
11.8285
11.8379
11.8489
11.8616
11.8756
11.8911
11.9078
11.9258
11.9449
11.965
11.9862
12.0083
12.0313
12.0551
12.0796
12.1049
12.1306
12.1569
12.1835
12.2102
12.237
12.2635
12.2896
12.3147
12.3387
12.3609
12.381
12.3983
12.4123
12.4225
12.4282
12.429
12.4244
12.4143
12.3986
12.3777
12.3493
12.3094
11.9579
11.9211
11.8949
11.8751
11.8591
11.8469
11.8381
11.8326
11.8299
11.8297
11.8319
11.8363
11.8427
11.8508
11.8608
11.8723
11.8854
11.8999
11.9158
11.9329
11.9513
11.9708
11.9913
12.0128
12.0353
12.0585
12.0825
12.1072
12.1324
12.1581
12.184
12.21
12.236
12.2616
12.2865
12.3105
12.333
12.3538
12.3722
12.3879
12.4002
12.4086
12.4126
12.4119
12.4062
12.3951
12.3789
12.358
12.3301
12.2914
11.975
11.9387
11.9127
11.8929
11.8766
11.8639
11.8546
11.8484
11.8449
11.8439
11.8452
11.8487
11.8541
11.8614
11.8704
11.8811
11.8934
11.9072
11.9224
11.9389
11.9566
11.9755
11.9956
12.0166
12.0386
12.0614
12.085
12.1092
12.1339
12.1591
12.1845
12.2099
12.2352
12.26
12.2841
12.307
12.3285
12.3481
12.3653
12.3796
12.3905
12.3976
12.4004
12.3986
12.3919
12.3802
12.3637
12.3428
12.3153
12.2776
11.9877
11.9518
11.9259
11.906
11.8896
11.8766
11.8669
11.8602
11.8561
11.8545
11.8552
11.858
11.8627
11.8694
11.8778
11.8879
11.8995
11.9127
11.9274
11.9434
11.9607
11.9792
11.9988
12.0195
12.0411
12.0636
12.0868
12.1107
12.1351
12.1599
12.1848
12.2098
12.2346
12.2588
12.2822
12.3045
12.3252
12.3439
12.3601
12.3735
12.3834
12.3895
12.3914
12.3888
12.3815
12.3693
12.3525
12.3316
12.3045
12.2676
11.9961
11.9604
11.9346
11.9147
11.8982
11.8851
11.8751
11.868
11.8636
11.8616
11.8619
11.8642
11.8685
11.8747
11.8827
11.8924
11.9037
11.9165
11.9308
11.9465
11.9635
11.9817
12.001
12.0215
12.0428
12.0651
12.0881
12.1117
12.1359
12.1604
12.1851
12.2098
12.2342
12.258
12.281
12.3028
12.3229
12.3411
12.3567
12.3694
12.3787
12.3842
12.3855
12.3824
12.3746
12.3621
12.3452
12.3243
12.2974
12.261
12.0003
11.9647
11.9389
11.9191
11.9025
11.8892
11.8792
11.8719
11.8673
11.8652
11.8652
11.8673
11.8715
11.8774
11.8852
11.8947
11.9058
11.9184
11.9325
11.948
11.9649
11.983
12.0022
12.0225
12.0437
12.0658
12.0887
12.1123
12.1363
12.1607
12.1852
12.2097
12.234
12.2576
12.2804
12.3019
12.3218
12.3397
12.355
12.3674
12.3763
12.3815
12.3825
12.3792
12.3712
12.3586
12.3416
12.3207
12.2939
12.2577
12.0003
11.9647
11.9389
11.9191
11.9025
11.8892
11.8792
11.8719
11.8673
11.8652
11.8652
11.8673
11.8715
11.8774
11.8852
11.8947
11.9058
11.9184
11.9325
11.948
11.9649
11.983
12.0022
12.0225
12.0437
12.0658
12.0887
12.1123
12.1363
12.1607
12.1852
12.2097
12.234
12.2576
12.2804
12.3019
12.3218
12.3397
12.355
12.3674
12.3763
12.3815
12.3825
12.3792
12.3712
12.3586
12.3416
12.3207
12.2939
12.2577
11.9961
11.9604
11.9346
11.9147
11.8982
11.8851
11.8751
11.868
11.8636
11.8616
11.8619
11.8642
11.8685
11.8747
11.8827
11.8924
11.9037
11.9165
11.9308
11.9465
11.9635
11.9817
12.001
12.0215
12.0428
12.0651
12.0881
12.1117
12.1359
12.1604
12.1851
12.2098
12.2342
12.258
12.281
12.3028
12.3229
12.3411
12.3567
12.3694
12.3787
12.3842
12.3855
12.3824
12.3746
12.3621
12.3452
12.3243
12.2974
12.261
11.9877
11.9518
11.9259
11.906
11.8896
11.8766
11.8669
11.8602
11.8561
11.8545
11.8552
11.858
11.8627
11.8694
11.8778
11.8879
11.8995
11.9127
11.9274
11.9434
11.9607
11.9792
11.9988
12.0195
12.0411
12.0636
12.0868
12.1107
12.1351
12.1599
12.1848
12.2098
12.2346
12.2588
12.2822
12.3045
12.3252
12.3439
12.3601
12.3735
12.3834
12.3895
12.3914
12.3888
12.3815
12.3693
12.3525
12.3316
12.3045
12.2676
11.975
11.9387
11.9127
11.8929
11.8766
11.8639
11.8546
11.8484
11.8449
11.8439
11.8452
11.8486
11.8541
11.8614
11.8704
11.8811
11.8934
11.9072
11.9223
11.9388
11.9566
11.9755
11.9956
12.0166
12.0386
12.0614
12.0849
12.1092
12.1339
12.1591
12.1845
12.2099
12.2352
12.26
12.2841
12.307
12.3285
12.3481
12.3653
12.3796
12.3905
12.3976
12.4004
12.3986
12.3919
12.3802
12.3637
12.3428
12.3153
12.2776
11.9579
11.9211
11.8948
11.8751
11.8591
11.8468
11.8381
11.8326
11.8298
11.8297
11.8319
11.8363
11.8426
11.8508
11.8608
11.8723
11.8854
11.8999
11.9158
11.9329
11.9513
11.9708
11.9913
12.0128
12.0353
12.0585
12.0825
12.1072
12.1324
12.1581
12.184
12.21
12.236
12.2616
12.2865
12.3105
12.333
12.3538
12.3722
12.3879
12.4002
12.4086
12.4126
12.4119
12.4062
12.3951
12.3789
12.358
12.3301
12.2914
11.9361
11.8987
11.8722
11.8525
11.8369
11.8252
11.8173
11.8127
11.811
11.812
11.8154
11.821
11.8285
11.8379
11.8489
11.8615
11.8756
11.8911
11.9078
11.9258
11.9449
11.965
11.9862
12.0083
12.0313
12.0551
12.0796
12.1048
12.1306
12.1569
12.1835
12.2102
12.237
12.2635
12.2896
12.3147
12.3387
12.3609
12.381
12.3983
12.4123
12.4225
12.4282
12.429
12.4244
12.4143
12.3986
12.3777
12.3493
12.3094
11.9096
11.8712
11.8444
11.8249
11.8098
11.7989
11.792
11.7886
11.7884
11.7909
11.7958
11.8028
11.8119
11.8227
11.8351
11.849
11.8643
11.8809
11.8987
11.9176
11.9375
11.9585
11.9804
12.0032
12.0268
12.0512
12.0764
12.1022
12.1286
12.1555
12.1829
12.2105
12.2383
12.266
12.2933
12.3199
12.3455
12.3695
12.3916
12.411
12.4272
12.4395
12.4473
12.45
12.4471
12.4381
12.4231
12.4024
12.3733
12.3318
11.8778
11.8383
11.8112
11.7919
11.7774
11.7676
11.7621
11.7604
11.7619
11.7662
11.7731
11.782
11.7929
11.8054
11.8195
11.8349
11.8516
11.8695
11.8885
11.9085
11.9294
11.9513
11.974
11.9976
12.0219
12.047
12.0728
12.0993
12.1264
12.1542
12.1824
12.211
12.2399
12.2688
12.2976
12.3259
12.3534
12.3796
12.404
12.4259
12.4448
12.4598
12.4702
12.4753
12.4745
12.4671
12.4531
12.4326
12.4028
12.3594
11.8405
11.7995
11.7719
11.7529
11.7394
11.7311
11.7274
11.7278
11.7316
11.7383
11.7474
11.7587
11.7717
11.7863
11.8023
11.8196
11.8379
11.8573
11.8776
11.8988
11.9209
11.9437
11.9673
11.9917
12.0167
12.0426
12.0691
12.0963
12.1242
12.1528
12.1819
12.2116
12.2417
12.2721
12.3025
12.3328
12.3625
12.3911
12.4183
12.4432
12.4653
12.4835
12.4972
12.5054
12.5072
12.5019
12.4892
12.4691
12.4386
12.3929
11.7969
11.7541
11.726
11.7075
11.6953
11.6889
11.6877
11.6908
11.6975
11.7071
11.7191
11.7331
11.7488
11.7658
11.7841
11.8033
11.8235
11.8445
11.8663
11.8888
11.912
11.9359
11.9604
11.9856
12.0115
12.0381
12.0653
12.0933
12.122
12.1514
12.1816
12.2124
12.2438
12.2758
12.308
12.3404
12.3726
12.4041
12.4345
12.4629
12.4887
12.511
12.5286
12.5405
12.5457
12.5432
12.5323
12.513
12.4817
12.4332
11.7463
11.7012
11.6725
11.6549
11.6445
11.6408
11.6427
11.6493
11.6596
11.6729
11.6884
11.7057
11.7244
11.7443
11.765
11.7866
11.8088
11.8316
11.8549
11.8788
11.9032
11.9282
11.9537
11.9797
12.0064
12.0337
12.0617
12.0904
12.1199
12.1502
12.1814
12.2134
12.2462
12.2798
12.3141
12.3488
12.3838
12.4185
12.4525
12.485
12.5152
12.5422
12.5646
12.5813
12.5909
12.5919
12.5835
12.5654
12.5333
12.4816
11.6877
11.6395
11.6102
11.594
11.5863
11.5861
11.5922
11.6034
11.6182
11.6359
11.6556
11.6769
11.6991
11.7222
11.7458
11.7698
11.7942
11.8189
11.8439
11.8692
11.8949
11.9209
11.9473
11.9742
12.0016
12.0296
12.0583
12.0878
12.118
12.1492
12.1814
12.2146
12.2489
12.2843
12.3206
12.3579
12.3958
12.4341
12.4721
12.5093
12.5448
12.5774
12.6057
12.6283
12.6433
12.6491
12.6443
12.6279
12.5952
12.5397
11.6194
11.5673
11.5376
11.5235
11.5196
11.5243
11.536
11.553
11.5736
11.5967
11.6214
11.6472
11.6735
11.7001
11.7268
11.7536
11.7803
11.8069
11.8336
11.8604
11.8872
11.9143
11.9416
11.9692
11.9974
12.026
12.0553
12.0855
12.1165
12.1485
12.1816
12.216
12.2518
12.2889
12.3275
12.3674
12.4086
12.4507
12.4933
12.5358
12.5773
12.6165
12.652
12.6819
12.7041
12.7162
12.7162
12.7026
12.6695
12.6094
11.5395
11.4823
11.4525
11.4417
11.4433
11.4549
11.474
11.4984
11.5261
11.5558
11.5865
11.6175
11.6484
11.6789
11.709
11.7385
11.7676
11.7962
11.8246
11.8527
11.8806
11.9086
11.9367
11.9651
11.9938
12.023
12.0529
12.0836
12.1152
12.148
12.1821
12.2176
12.2547
12.2937
12.3344
12.3771
12.4217
12.468
12.5156
12.564
12.6124
12.6595
12.7036
12.7426
12.774
12.7945
12.8014
12.7922
12.7593
12.6936
11.4446
11.3811
11.3519
11.3466
11.3562
11.3772
11.4061
11.4401
11.4766
11.5142
11.5518
11.5888
11.6247
11.6594
11.6929
11.7253
11.7567
11.7873
11.8172
11.8465
11.8755
11.9043
11.933
11.9619
11.9911
12.0208
12.0511
12.0822
12.1144
12.1478
12.1826
12.2192
12.2577
12.2983
12.3413
12.3867
12.4348
12.4855
12.5385
12.5935
12.6497
12.706
12.7605
12.8109
12.854
12.8859
12.9026
12.9002
12.8685
12.7961
11.3303
11.2588
11.2318
11.2353
11.2568
11.2908
11.3328
11.3789
11.4262
11.4732
11.5186
11.5621
11.6034
11.6425
11.6795
11.7147
11.7484
11.7807
11.8119
11.8423
11.8721
11.9015
11.9307
11.9599
11.9894
12.0193
12.0499
12.0813
12.1138
12.1477
12.1832
12.2207
12.2603
12.3025
12.3476
12.3958
12.4473
12.5025
12.5613
12.6234
12.6884
12.7552
12.8221
12.8866
12.9449
12.9922
13.023
13.0311
13.0028
12.9225
11.1891
11.1082
11.0868
11.1046
11.1437
11.1959
11.255
11.3163
11.3766
11.4343
11.4886
11.539
11.5859
11.6293
11.6697
11.7075
11.7431
11.7768
11.8091
11.8403
11.8706
11.9004
11.9298
11.9592
11.9888
12.0188
12.0494
12.0809
12.1136
12.1478
12.1837
12.2218
12.2624
12.3059
12.3528
12.4036
12.4585
12.5182
12.5828
12.6525
12.7271
12.8059
12.8874
12.9692
13.0471
13.1153
13.1663
13.1913
13.1703
13.081
11.009
10.9184
10.9093
10.9507
11.0159
11.0932
11.1746
11.2546
11.3302
11.4
11.4636
11.5213
11.5735
11.621
11.6644
11.7043
11.7415
11.7763
11.8093
11.8408
11.8714
11.9012
11.9306
11.9598
11.9892
12.019
12.0495
12.0809
12.1135
12.1477
12.1838
12.2223
12.2635
12.3081
12.3565
12.4094
12.4674
12.5313
12.6017
12.6791
12.7639
12.8559
12.9544
13.0571
13.16
13.2565
13.3371
13.3889
13.3829
13.2853
10.769
10.6728
10.6897
10.7698
10.8737
10.9852
11.0951
11.1975
11.2904
11.3731
11.4462
11.5107
11.5679
11.6188
11.6645
11.706
11.744
11.7793
11.8125
11.844
11.8743
11.9038
11.9329
11.9617
11.9907
12.02
12.05
12.081
12.1133
12.1473
12.1833
12.2218
12.2633
12.3084
12.3578
12.4124
12.4729
12.5404
12.616
12.7009
12.796
12.9022
13.0196
13.1471
13.2815
13.416
13.5396
13.6345
13.6585
13.5582
10.4303
10.3464
10.4166
10.5598
10.7201
10.8774
11.0223
11.1505
11.2617
11.3573
11.4392
11.5096
11.5705
11.6238
11.6708
11.7129
11.7511
11.7862
11.8189
11.8499
11.8796
11.9084
11.9366
11.9647
11.9929
12.0216
12.0509
12.0812
12.1128
12.1462
12.1817
12.2198
12.2611
12.3062
12.356
12.4114
12.4736
12.5438
12.6237
12.7151
12.8198
12.9401
13.0776
13.2334
13.4061
13.5907
13.7761
13.9402
14.0237
13.9415
9.92108
9.90161
10.0787
10.3236
10.5641
10.78
10.9656
11.1212
11.2502
11.357
11.4457
11.52
11.583
11.6369
11.6839
11.7255
11.7628
11.7969
11.8285
11.8583
11.8869
11.9145
11.9417
11.9687
11.9959
12.0234
12.0517
12.0811
12.1118
12.1442
12.1787
12.216
12.2565
12.3009
12.3503
12.4056
12.4681
12.5396
12.6221
12.7181
12.8307
12.9635
13.1207
13.3063
13.5233
13.7717
14.0441
14.3179
14.5175
14.5105
9.11084
9.28852
9.6686
10.0708
10.4213
10.7081
10.9371
11.1184
11.2619
11.3762
11.4683
11.5435
11.6059
11.6586
11.7039
11.7436
11.779
11.8112
11.841
11.8691
11.896
11.9221
11.9478
11.9734
11.9992
12.0254
12.0524
12.0805
12.1098
12.1409
12.1741
12.21
12.249
12.2921
12.34
12.3939
12.4554
12.5263
12.6091
12.7069
12.8239
12.9657
13.1392
13.3531
13.6176
13.9425
14.3331
14.7754
15.1909
15.3994
7.70297
8.46687
9.21056
9.8348
10.3222
10.6854
10.9533
11.1525
11.3028
11.4182
11.5085
11.5806
11.6394
11.6885
11.7302
11.7666
11.799
11.8284
11.8557
11.8815
11.9063
11.9305
11.9544
11.9783
12.0025
12.0272
12.0526
12.0791
12.1069
12.1363
12.1677
12.2016
12.2386
12.2794
12.3249
12.3762
12.4348
12.5028
12.5829
12.6785
12.795
12.9392
13.1214
13.3559
13.6629
14.0702
14.6076
15.2858
16.0839
16.9127
4.86783
7.46765
8.8858
9.77003
10.3746
10.7821
11.0581
11.2512
11.3908
11.4948
11.5744
11.637
11.6876
11.7296
11.7653
11.7964
11.8242
11.8498
11.8736
11.8964
11.9184
11.9401
11.9618
11.9836
12.0057
12.0285
12.052
12.0765
12.1022
12.1294
12.1584
12.1896
12.2236
12.261
12.3025
12.3493
12.4026
12.4644
12.5371
12.6244
12.7312
12.8654
13.0385
13.269
13.5873
14.0438
14.7081
15.6648
17.1686
19.886
-0.000145881
6.38512
9.05024
10.1466
10.7401
11.0908
11.3061
11.4478
11.5473
11.6205
11.6765
11.7207
11.7567
11.7869
11.8129
11.8361
11.8574
11.8772
11.8963
11.9149
11.9333
11.9517
11.9704
11.9894
12.009
12.0292
12.0501
12.072
12.0949
12.1191
12.1448
12.1723
12.2019
12.2342
12.2698
12.3094
12.354
12.405
12.4643
12.5344
12.6192
12.7244
12.8593
13.0405
13.3
13.7016
14.3621
15.5533
18.3345
24.8439
)
;

boundaryField
{
    movingWallTop
    {
        type            zeroGradient;
    }
    movingWallBottom
    {
        type            zeroGradient;
    }
    fixedWalls
    {
        type            zeroGradient;
    }
    frontAndBack
    {
        type            empty;
    }
}


// ************************************************************************* //
