/*--------------------------------*- C++ -*----------------------------------*\
  =========                 |
  \\      /  F ield         | OpenFOAM: The Open Source CFD Toolbox
   \\    /   O peration     | Website:  https://openfoam.org
    \\  /    A nd           | Version:  7
     \\/     M anipulation  |
\*---------------------------------------------------------------------------*/
FoamFile
{
    version     2.0;
    format      ascii;
    class       volVectorField;
    location    "0.0436";
    object      U;
}
// * * * * * * * * * * * * * * * * * * * * * * * * * * * * * * * * * * * * * //

dimensions      [0 1 -1 0 0 0 0];

internalField   nonuniform List<vector> 
2500
(
(0.290249 -0.15241 0)
(0.389527 -0.128231 0)
(0.56541 -0.0747307 0)
(0.683234 -0.0422301 0)
(0.752826 -0.0245288 0)
(0.79784 -0.0148881 0)
(0.829009 -0.00958069 0)
(0.851484 -0.00655733 0)
(0.868295 -0.0047332 0)
(0.881263 -0.00355834 0)
(0.891497 -0.00275446 0)
(0.899706 -0.00217612 0)
(0.906368 -0.00174342 0)
(0.911819 -0.00140988 0)
(0.916303 -0.00114685 0)
(0.920003 -0.000935615 0)
(0.923058 -0.000763378 0)
(0.925575 -0.00062099 0)
(0.92764 -0.000501681 0)
(0.929319 -0.000400278 0)
(0.930663 -0.000312706 0)
(0.931714 -0.000235662 0)
(0.932501 -0.000166386 0)
(0.933048 -0.000102497 0)
(0.933369 -4.18758e-05 0)
(0.933472 1.74433e-05 0)
(0.933359 7.74806e-05 0)
(0.933025 0.000140074 0)
(0.93246 0.000207264 0)
(0.931643 0.000281311 0)
(0.930549 0.000364798 0)
(0.929143 0.000460808 0)
(0.927376 0.000573145 0)
(0.925189 0.000706666 0)
(0.922504 0.000867762 0)
(0.91922 0.00106512 0)
(0.915205 0.00131093 0)
(0.910285 0.00162296 0)
(0.904224 0.00202827 0)
(0.896698 0.00257032 0)
(0.887238 0.00332311 0)
(0.875151 0.00442096 0)
(0.859349 0.00612252 0)
(0.83803 0.00894852 0)
(0.808141 0.0139589 0)
(0.76441 0.0232455 0)
(0.695906 0.0407708 0)
(0.577941 0.0737466 0)
(0.398047 0.128744 0)
(0.293868 0.153785 0)
(0.00108262 -0.294883 0)
(0.0168485 -0.298606 0)
(0.152309 -0.213011 0)
(0.282837 -0.145318 0)
(0.387998 -0.0996305 0)
(0.471206 -0.0698025 0)
(0.536616 -0.0504493 0)
(0.588079 -0.0376484 0)
(0.628937 -0.0288882 0)
(0.661749 -0.0226668 0)
(0.688381 -0.0180937 0)
(0.710189 -0.0146307 0)
(0.728175 -0.0119423 0)
(0.743085 -0.00981197 0)
(0.755489 -0.00809487 0)
(0.765826 -0.00669063 0)
(0.774437 -0.00552734 0)
(0.781594 -0.00455188 0)
(0.787512 -0.00372391 0)
(0.792361 -0.00301194 0)
(0.796279 -0.00239069 0)
(0.799371 -0.00183935 0)
(0.80172 -0.00134027 0)
(0.803384 -0.000878024 0)
(0.804406 -0.000438699 0)
(0.804807 -9.25713e-06 0)
(0.804593 0.00042306 0)
(0.803752 0.000871001 0)
(0.802254 0.00134808 0)
(0.800051 0.0018691 0)
(0.797072 0.00245094 0)
(0.793224 0.00311346 0)
(0.788384 0.00388089 0)
(0.782395 0.00478363 0)
(0.775053 0.00586092 0)
(0.766101 0.00716484 0)
(0.755208 0.00876644 0)
(0.741941 0.0107654 0)
(0.725734 0.0133061 0)
(0.705829 0.0166046 0)
(0.681198 0.0209967 0)
(0.650425 0.0270243 0)
(0.61153 0.0355925 0)
(0.561742 0.048253 0)
(0.497329 0.0676652 0)
(0.413828 0.0981321 0)
(0.306336 0.145766 0)
(0.170526 0.217293 0)
(0.026902 0.307192 0)
(0.00518513 0.303007 0)
(-0.0329194 -0.250379 0)
(-0.0615915 -0.344031 0)
(-0.0114967 -0.310579 0)
(0.070805 -0.251508 0)
(0.158899 -0.195967 0)
(0.241396 -0.151379 0)
(0.313941 -0.117658 0)
(0.375842 -0.0925398 0)
(0.427997 -0.0737298 0)
(0.471759 -0.0594503 0)
(0.508468 -0.0484282 0)
(0.5393 -0.0397753 0)
(0.565242 -0.0328736 0)
(0.587098 -0.0272895 0)
(0.605525 -0.0227132 0)
(0.621054 -0.0189192 0)
(0.634117 -0.0157396 0)
(0.645068 -0.0130465 0)
(0.654193 -0.0107402 0)
(0.661724 -0.00874155 0)
(0.66785 -0.00698559 0)
(0.672719 -0.00541812 0)
(0.676448 -0.00399255 0)
(0.679121 -0.00266769 0)
(0.680798 -0.00140597 0)
(0.681509 -0.000172005 0)
(0.681264 0.00106873 0)
(0.680043 0.0023513 0)
(0.677804 0.00371254 0)
(0.674476 0.00519266 0)
(0.669958 0.00683712 0)
(0.664114 0.008699 0)
(0.65677 0.0108422 0)
(0.647704 0.0133457 0)
(0.636635 0.0163099 0)
(0.623212 0.0198649 0)
(0.606997 0.0241838 0)
(0.587434 0.0295015 0)
(0.563828 0.0361435 0)
(0.5353 0.0445703 0)
(0.500747 0.0554444 0)
(0.458805 0.0697298 0)
(0.407858 0.0888297 0)
(0.34615 0.114742 0)
(0.272248 0.150113 0)
(0.186283 0.197703 0)
(0.0922838 0.258052 0)
(0.00186194 0.323305 0)
(-0.0569246 0.361543 0)
(-0.0321688 0.263989 0)
(-0.0267693 -0.190612 0)
(-0.0654226 -0.332989 0)
(-0.0645483 -0.351466 0)
(-0.0275073 -0.319189 0)
(0.0295935 -0.271905 0)
(0.0936745 -0.225336 0)
(0.157046 -0.184959 0)
(0.215908 -0.151685 0)
(0.268746 -0.124786 0)
(0.315269 -0.103133 0)
(0.355777 -0.0856457 0)
(0.390816 -0.0714261 0)
(0.420996 -0.059767 0)
(0.446915 -0.0501238 0)
(0.469112 -0.0420788 0)
(0.488067 -0.0353098 0)
(0.504192 -0.0295659 0)
(0.517839 -0.0246486 0)
(0.529305 -0.0203986 0)
(0.538841 -0.0166853 0)
(0.546649 -0.0133998 0)
(0.552895 -0.0104489 0)
(0.557709 -0.00775164 0)
(0.561189 -0.00523499 0)
(0.563398 -0.00283185 0)
(0.564375 -0.000478414 0)
(0.564126 0.00188796 0)
(0.562628 0.00433086 0)
(0.559829 0.00691709 0)
(0.555645 0.00971913 0)
(0.549957 0.0128183 0)
(0.542607 0.0163082 0)
(0.533394 0.0203002 0)
(0.522068 0.0249293 0)
(0.508322 0.0303631 0)
(0.49178 0.0368135 0)
(0.471989 0.0445529 0)
(0.44841 0.0539368 0)
(0.420405 0.0654332 0)
(0.387241 0.0796623 0)
(0.348113 0.0974431 0)
(0.302217 0.119837 0)
(0.248926 0.148154 0)
(0.188151 0.183827 0)
(0.121054 0.227929 0)
(0.0513064 0.279777 0)
(-0.0130474 0.333636 0)
(-0.0577918 0.372205 0)
(-0.0646671 0.35593 0)
(-0.0272842 0.204809 0)
(-0.0178461 -0.149168 0)
(-0.0531076 -0.30291 0)
(-0.0736451 -0.354822 0)
(-0.0666484 -0.350152 0)
(-0.0375314 -0.319444 0)
(0.00449419 -0.28006 0)
(0.0522218 -0.240587 0)
(0.100892 -0.204643 0)
(0.147666 -0.173341 0)
(0.191044 -0.146652 0)
(0.230378 -0.124103 0)
(0.265516 -0.105097 0)
(0.296581 -0.0890576 0)
(0.323833 -0.075477 0)
(0.347587 -0.0639266 0)
(0.368172 -0.0540507 0)
(0.385902 -0.0455556 0)
(0.401067 -0.0381977 0)
(0.413925 -0.0317734 0)
(0.424701 -0.0261104 0)
(0.433585 -0.0210608 0)
(0.440735 -0.0164953 0)
(0.446276 -0.0122984 0)
(0.450302 -0.0083651 0)
(0.452878 -0.00459713 0)
(0.454038 -0.000900227 0)
(0.453786 0.00281869 0)
(0.452095 0.00665424 0)
(0.44891 0.0107056 0)
(0.44414 0.0150796 0)
(0.437662 0.0198949 0)
(0.429313 0.0252864 0)
(0.418894 0.0314109 0)
(0.406159 0.0384547 0)
(0.390818 0.0466427 0)
(0.372532 0.0562499 0)
(0.350915 0.0676156 0)
(0.325542 0.0811604 0)
(0.295964 0.0974039 0)
(0.261752 0.116978 0)
(0.222575 0.140625 0)
(0.178342 0.169154 0)
(0.129457 0.203286 0)
(0.0772271 0.243296 0)
(0.0244538 0.288207 0)
(-0.0237765 0.334196 0)
(-0.0594375 0.371716 0)
(-0.0719576 0.381172 0)
(-0.0543255 0.328166 0)
(-0.0186426 0.162479 0)
(-0.0114261 -0.120908 0)
(-0.0402726 -0.269904 0)
(-0.0678838 -0.34004 0)
(-0.0778669 -0.357148 0)
(-0.0691064 -0.343788 0)
(-0.0463931 -0.315454 0)
(-0.0149078 -0.281537 0)
(0.0210856 -0.247186 0)
(0.0584763 -0.214932 0)
(0.0952041 -0.185814 0)
(0.130018 -0.160079 0)
(0.162232 -0.137592 0)
(0.191533 -0.118051 0)
(0.217842 -0.101102 0)
(0.241221 -0.0863952 0)
(0.26181 -0.0736066 0)
(0.279786 -0.0624468 0)
(0.295339 -0.0526606 0)
(0.308654 -0.0440236 0)
(0.319905 -0.036338 0)
(0.329244 -0.029428 0)
(0.336803 -0.0231355 0)
(0.342689 -0.0173161 0)
(0.346983 -0.0118356 0)
(0.349737 -0.00656669 0)
(0.350981 -0.00138581 0)
(0.350713 0.00382965 0)
(0.348905 0.0092046 0)
(0.3455 0.0148695 0)
(0.340411 0.0209638 0)
(0.33352 0.0276403 0)
(0.324679 0.0350699 0)
(0.313708 0.0434466 0)
(0.300396 0.0529951 0)
(0.284505 0.063977 0)
(0.265777 0.0766994 0)
(0.243943 0.0915226 0)
(0.21875 0.108864 0)
(0.19 0.129196 0)
(0.157613 0.153026 0)
(0.121737 0.180839 0)
(0.0829043 0.21297 0)
(0.0422758 0.249353 0)
(0.00194709 0.289034 0)
(-0.0347158 0.329332 0)
(-0.0628657 0.364494 0)
(-0.0763957 0.383747 0)
(-0.0694071 0.369256 0)
(-0.0422998 0.295298 0)
(-0.0121822 0.132986 0)
(-0.00747203 -0.100901 0)
(-0.0304533 -0.239602 0)
(-0.0586946 -0.317908 0)
(-0.0771003 -0.349975 0)
(-0.0815791 -0.35135 0)
(-0.0736451 -0.334514 0)
(-0.056314 -0.308225 0)
(-0.0327421 -0.278102 0)
(-0.00565805 -0.247481 0)
(0.0228416 -0.218188 0)
(0.0512691 -0.191112 0)
(0.0786351 -0.166588 0)
(0.104325 -0.144644 0)
(0.127993 -0.125144 0)
(0.149476 -0.107876 0)
(0.168732 -0.0925992 0)
(0.185795 -0.0790703 0)
(0.200741 -0.067054 0)
(0.213672 -0.0563297 0)
(0.224693 -0.0466928 0)
(0.233906 -0.0379537 0)
(0.241405 -0.0299359 0)
(0.247268 -0.022474 0)
(0.251554 -0.0154105 0)
(0.254301 -0.00859379 0)
(0.255528 -0.00187512 0)
(0.255228 0.00489428 0)
(0.253373 0.011866 0)
(0.249907 0.0191977 0)
(0.244755 0.0270564 0)
(0.237815 0.0356224 0)
(0.228962 0.0450929 0)
(0.218056 0.0556868 0)
(0.204937 0.0676483 0)
(0.189443 0.0812511 0)
(0.171419 0.0967998 0)
(0.150738 0.114628 0)
(0.127335 0.135088 0)
(0.10126 0.158528 0)
(0.0727501 0.185235 0)
(0.0423309 0.215342 0)
(0.0109594 0.248652 0)
(-0.0198113 0.284336 0)
(-0.0476658 0.320463 0)
(-0.0694541 0.353292 0)
(-0.0813791 0.376336 0)
(-0.079647 0.379351 0)
(-0.0620754 0.347785 0)
(-0.0327578 0.263809 0)
(-0.00812732 0.111635 0)
(-0.00513653 -0.0862252 0)
(-0.0235584 -0.213265 0)
(-0.0499691 -0.293643 0)
(-0.0719087 -0.334951 0)
(-0.0843988 -0.34755 0)
(-0.0869679 -0.340937 0)
(-0.0809105 -0.322606 0)
(-0.0682146 -0.297946 0)
(-0.0509518 -0.270573 0)
(-0.0309408 -0.242769 0)
(-0.00963117 -0.215883 0)
(0.0118935 -0.190649 0)
(0.0328653 -0.167404 0)
(0.0527673 -0.146245 0)
(0.0712725 -0.127126 0)
(0.0881922 -0.109917 0)
(0.103434 -0.0944491 0)
(0.11697 -0.0805316 0)
(0.128814 -0.0679691 0)
(0.139004 -0.0565673 0)
(0.147586 -0.0461368 0)
(0.15461 -0.0364941 0)
(0.16012 -0.0274617 0)
(0.164151 -0.0188667 0)
(0.166724 -0.0105395 0)
(0.167845 -0.00231184 0)
(0.167502 0.00598563 0)
(0.165666 0.0145256 0)
(0.162292 0.0234866 0)
(0.157316 0.0330559 0)
(0.150659 0.0434321 0)
(0.142232 0.0548274 0)
(0.13194 0.0674701 0)
(0.119687 0.0816051 0)
(0.105395 0.0974927 0)
(0.089017 0.115404 0)
(0.0705656 0.135607 0)
(0.0501501 0.158344 0)
(0.0280269 0.183791 0)
(0.00466713 0.211976 0)
(-0.0191606 0.242669 0)
(-0.0422969 0.275182 0)
(-0.063108 0.308096 0)
(-0.0794547 0.338857 0)
(-0.0888033 0.363277 0)
(-0.0886083 0.375004 0)
(-0.0770509 0.365168 0)
(-0.0543484 0.322634 0)
(-0.0259184 0.235556 0)
(-0.00570397 0.0956179 0)
(-0.00373964 -0.0750029 0)
(-0.0187949 -0.190643 0)
(-0.0427268 -0.26962 0)
(-0.0656523 -0.315955 0)
(-0.0827118 -0.336457 0)
(-0.0924125 -0.33814 0)
(-0.0948769 -0.327101 0)
(-0.0911156 -0.308147 0)
(-0.082513 -0.28481 0)
(-0.0704755 -0.259542 0)
(-0.0562526 -0.233964 0)
(-0.0408707 -0.209093 0)
(-0.0251281 -0.185519 0)
(-0.00961822 -0.163549 0)
(0.00523519 -0.143297 0)
(0.0191426 -0.124756 0)
(0.031916 -0.107843 0)
(0.0434418 -0.0924297 0)
(0.0536587 -0.0783588 0)
(0.0625403 -0.0654601 0)
(0.0700819 -0.0535563 0)
(0.07629 -0.0424675 0)
(0.0811753 -0.0320129 0)
(0.0847464 -0.0220124 0)
(0.0870063 -0.0122855 0)
(0.0879494 -0.00265122 0)
(0.08756 0.0070738 0)
(0.0858117 0.0170764 0)
(0.0826676 0.0275487 0)
(0.0780821 0.0386895 0)
(0.072004 0.0507056 0)
(0.064381 0.0638121 0)
(0.0551671 0.0782321 0)
(0.0443334 0.0941934 0)
(0.0318821 0.111922 0)
(0.017867 0.131632 0)
(0.00242063 0.1535 0)
(-0.0142111 0.177637 0)
(-0.0316248 0.204027 0)
(-0.0492085 0.232449 0)
(-0.0660877 0.26235 0)
(-0.0810818 0.292666 0)
(-0.0926923 0.321592 0)
(-0.099167 0.346292 0)
(-0.0987065 0.362591 0)
(-0.0898925 0.364755 0)
(-0.0723328 0.345531 0)
(-0.0475691 0.296724 0)
(-0.0211067 0.210651 0)
(-0.00423814 0.0831053 0)
(-0.00287339 -0.0660543 0)
(-0.0154739 -0.171097 0)
(-0.0370082 -0.246781 0)
(-0.0596996 -0.295213 0)
(-0.0791996 -0.320866 0)
(-0.0935974 -0.328848 0)
(-0.102302 -0.323984 0)
(-0.105603 -0.310374 0)
(-0.104286 -0.291259 0)
(-0.0993284 -0.26906 0)
(-0.0917096 -0.245507 0)
(-0.0823101 -0.221784 0)
(-0.0718713 -0.198662 0)
(-0.0609885 -0.17661 0)
(-0.0501214 -0.155886 0)
(-0.0396142 -0.136596 0)
(-0.0297161 -0.118745 0)
(-0.0206024 -0.102271 0)
(-0.0123924 -0.0870644 0)
(-0.00516431 -0.0729874 0)
(0.00103218 -0.0598837 0)
(0.00616603 -0.047585 0)
(0.0102173 -0.0359158 0)
(0.0131712 -0.0246957 0)
(0.0150143 -0.0137408 0)
(0.015731 -0.00286417 0)
(0.0153026 0.0081245 0)
(0.0137066 0.019419 0)
(0.0109172 0.031217 0)
(0.00690802 0.0437202 0)
(0.00165575 0.057134 0)
(-0.00485436 0.0716651 0)
(-0.01262 0.0875188 0)
(-0.0216107 0.104892 0)
(-0.0317529 0.123962 0)
(-0.0429102 0.14487 0)
(-0.0548599 0.167692 0)
(-0.0672636 0.192401 0)
(-0.079635 0.218806 0)
(-0.0913082 0.246466 0)
(-0.101413 0.27458 0)
(-0.108873 0.30184 0)
(-0.112444 0.326253 0)
(-0.110832 0.344958 0)
(-0.102928 0.35408 0)
(-0.088196 0.348705 0)
(-0.0671614 0.323112 0)
(-0.0419711 0.271407 0)
(-0.017678 0.188677 0)
(-0.00331478 0.0729371 0)
(-0.00231266 -0.05865 0)
(-0.0131173 -0.153984 0)
(-0.0325759 -0.22538 0)
(-0.0545184 -0.273927 0)
(-0.0751984 -0.30259 0)
(-0.0926215 -0.315077 0)
(-0.105809 -0.315148 0)
(-0.11456 -0.306211 0)
(-0.119192 -0.291121 0)
(-0.120299 -0.272145 0)
(-0.118578 -0.251001 0)
(-0.114725 -0.228943 0)
(-0.109375 -0.206848 0)
(-0.103071 -0.185303 0)
(-0.0962627 -0.164672 0)
(-0.0893088 -0.145161 0)
(-0.0824883 -0.126854 0)
(-0.076013 -0.109752 0)
(-0.0700412 -0.0937948 0)
(-0.064689 -0.0788826 0)
(-0.0600406 -0.0648846 0)
(-0.0561573 -0.0516506 0)
(-0.0530839 -0.0390163 0)
(-0.0508545 -0.0268077 0)
(-0.0494964 -0.0148438 0)
(-0.0490325 -0.00293828 0)
(-0.0494828 0.00909944 0)
(-0.050865 0.021463 0)
(-0.0531927 0.0343483 0)
(-0.0564733 0.047952 0)
(-0.0607037 0.0624692 0)
(-0.0658641 0.0780894 0)
(-0.07191 0.0949904 0)
(-0.0787612 0.113329 0)
(-0.0862879 0.133226 0)
(-0.0942946 0.154745 0)
(-0.1025 0.177862 0)
(-0.110519 0.202424 0)
(-0.117837 0.228089 0)
(-0.123806 0.254251 0)
(-0.127635 0.279946 0)
(-0.128424 0.303738 0)
(-0.125229 0.323603 0)
(-0.1172 0.336832 0)
(-0.1038 0.339992 0)
(-0.085123 0.329013 0)
(-0.0622257 0.299487 0)
(-0.037433 0.247229 0)
(-0.015174 0.169131 0)
(-0.00270303 0.0643975 0)
(-0.00193444 -0.0523285 0)
(-0.0114122 -0.138763 0)
(-0.0291573 -0.205374 0)
(-0.0501923 -0.252711 0)
(-0.0713334 -0.28277 0)
(-0.0906688 -0.298255 0)
(-0.107041 -0.302078 0)
(-0.11994 -0.297024 0)
(-0.129337 -0.285548 0)
(-0.135514 -0.269696 0)
(-0.138911 -0.251097 0)
(-0.140032 -0.230999 0)
(-0.139381 -0.210324 0)
(-0.137419 -0.189727 0)
(-0.134554 -0.169651 0)
(-0.131129 -0.150371 0)
(-0.127425 -0.132041 0)
(-0.123668 -0.114718 0)
(-0.120038 -0.0983874 0)
(-0.116675 -0.0829868 0)
(-0.113686 -0.0684141 0)
(-0.111154 -0.0545404 0)
(-0.109141 -0.0412172 0)
(-0.107697 -0.0282819 0)
(-0.106858 -0.0155617 0)
(-0.106653 -0.00287665 0)
(-0.107101 0.0099581 0)
(-0.108213 0.0231299 0)
(-0.109992 0.0368263 0)
(-0.112427 0.0512324 0)
(-0.115492 0.0665262 0)
(-0.119137 0.0828733 0)
(-0.123286 0.100418 0)
(-0.127819 0.119273 0)
(-0.132569 0.1395 0)
(-0.137304 0.161088 0)
(-0.141717 0.183925 0)
(-0.14541 0.20775 0)
(-0.147891 0.232109 0)
(-0.148575 0.256284 0)
(-0.146796 0.279224 0)
(-0.141861 0.299465 0)
(-0.133124 0.315064 0)
(-0.120119 0.323563 0)
(-0.102749 0.322016 0)
(-0.0815231 0.30713 0)
(-0.0577674 0.275557 0)
(-0.0337564 0.224352 0)
(-0.0132939 0.151567 0)
(-0.00227687 0.0570364 0)
(-0.0016701 -0.0467869 0)
(-0.0101561 -0.125006 0)
(-0.0265176 -0.186605 0)
(-0.0466551 -0.231849 0)
(-0.067865 -0.262109 0)
(-0.0883865 -0.279373 0)
(-0.107008 -0.285898 0)
(-0.123037 -0.283937 0)
(-0.136208 -0.275566 0)
(-0.146556 -0.262588 0)
(-0.154305 -0.246496 0)
(-0.159781 -0.228484 0)
(-0.163351 -0.209469 0)
(-0.165383 -0.190134 0)
(-0.166221 -0.170966 0)
(-0.166172 -0.152293 0)
(-0.1655 -0.134316 0)
(-0.164428 -0.117138 0)
(-0.163141 -0.100788 0)
(-0.161789 -0.0852346 0)
(-0.160492 -0.0704057 0)
(-0.159345 -0.0561949 0)
(-0.158423 -0.0424721 0)
(-0.157784 -0.0290896 0)
(-0.15747 -0.0158869 0)
(-0.157512 -0.00269508 0)
(-0.157928 0.0106602 0)
(-0.158722 0.0243548 0)
(-0.159885 0.0385631 0)
(-0.161393 0.0534531 0)
(-0.1632 0.0691813 0)
(-0.165234 0.0858856 0)
(-0.167393 0.103675 0)
(-0.169534 0.122616 0)
(-0.171468 0.142716 0)
(-0.172949 0.163898 0)
(-0.173669 0.185976 0)
(-0.173251 0.208609 0)
(-0.171256 0.231267 0)
(-0.167188 0.253173 0)
(-0.160533 0.273252 0)
(-0.150801 0.290087 0)
(-0.137614 0.301882 0)
(-0.12082 0.306475 0)
(-0.100639 0.301395 0)
(-0.0778355 0.28402 0)
(-0.0538354 0.25183 0)
(-0.0307566 0.202763 0)
(-0.0118443 0.13562 0)
(-0.00196651 0.0505595 0)
(-0.00148003 -0.0418192 0)
(-0.00921623 -0.112386 0)
(-0.0244719 -0.168888 0)
(-0.0437945 -0.211449 0)
(-0.0648723 -0.24103 0)
(-0.086113 -0.259109 0)
(-0.106319 -0.26744 0)
(-0.124703 -0.267839 0)
(-0.140839 -0.262043 0)
(-0.154582 -0.251612 0)
(-0.165978 -0.237883 0)
(-0.175199 -0.221962 0)
(-0.182484 -0.204729 0)
(-0.188104 -0.186862 0)
(-0.192331 -0.168866 0)
(-0.195422 -0.151095 0)
(-0.197612 -0.133787 0)
(-0.199107 -0.117077 0)
(-0.200084 -0.101027 0)
(-0.200692 -0.0856368 0)
(-0.201056 -0.0708586 0)
(-0.201275 -0.0566091 0)
(-0.201429 -0.0427779 0)
(-0.201581 -0.0292341 0)
(-0.201774 -0.0158326 0)
(-0.20204 -0.00241845 0)
(-0.202392 0.0111682 0)
(-0.20283 0.0250883 0)
(-0.203334 0.0394988 0)
(-0.203867 0.054548 0)
(-0.20437 0.0703682 0)
(-0.204756 0.0870678 0)
(-0.204907 0.104721 0)
(-0.204668 0.123352 0)
(-0.203845 0.14292 0)
(-0.202196 0.163295 0)
(-0.199431 0.184234 0)
(-0.195217 0.205346 0)
(-0.189184 0.226057 0)
(-0.180947 0.245574 0)
(-0.170137 0.26285 0)
(-0.156458 0.276561 0)
(-0.139759 0.285097 0)
(-0.120125 0.286596 0)
(-0.0979969 0.279023 0)
(-0.0742807 0.26031 0)
(-0.0504028 0.228575 0)
(-0.0282859 0.182378 0)
(-0.0107007 0.121002 0)
(-0.00173212 0.044766 0)
(-0.0013403 -0.0372813 0)
(-0.00850412 -0.100648 0)
(-0.0228798 -0.152046 0)
(-0.0414945 -0.191527 0)
(-0.062349 -0.21978 0)
(-0.0840123 -0.237921 0)
(-0.105335 -0.247315 0)
(-0.125487 -0.249427 0)
(-0.143944 -0.245697 0)
(-0.160428 -0.237458 0)
(-0.174849 -0.225888 0)
(-0.187247 -0.211985 0)
(-0.19775 -0.196569 0)
(-0.206533 -0.180293 0)
(-0.213796 -0.163652 0)
(-0.219742 -0.147015 0)
(-0.224568 -0.130633 0)
(-0.228452 -0.114667 0)
(-0.231557 -0.099203 0)
(-0.234023 -0.0842633 0)
(-0.235968 -0.0698237 0)
(-0.237491 -0.0558218 0)
(-0.238673 -0.0421663 0)
(-0.239575 -0.0287442 0)
(-0.240241 -0.0154272 0)
(-0.240698 -0.00207689 0)
(-0.240957 0.01145 0)
(-0.241011 0.0252969 0)
(-0.240833 0.0396016 0)
(-0.240376 0.0544905 0)
(-0.239573 0.0700712 0)
(-0.238326 0.0864238 0)
(-0.236512 0.103589 0)
(-0.233977 0.121557 0)
(-0.230529 0.140247 0)
(-0.225947 0.159489 0)
(-0.219976 0.179003 0)
(-0.212337 0.19837 0)
(-0.202741 0.217005 0)
(-0.190913 0.234135 0)
(-0.176625 0.248773 0)
(-0.159748 0.259717 0)
(-0.140312 0.265556 0)
(-0.118584 0.264716 0)
(-0.0951441 0.255538 0)
(-0.0709644 0.236408 0)
(-0.0474193 0.205923 0)
(-0.0262321 0.163085 0)
(-0.00978138 0.107486 0)
(-0.00155 0.0395139 0)
(-0.00123586 -0.0330694 0)
(-0.00795919 -0.0895992 0)
(-0.0216358 -0.135922 0)
(-0.0396512 -0.172054 0)
(-0.0602528 -0.198502 0)
(-0.0821526 -0.216116 0)
(-0.104263 -0.225968 0)
(-0.125745 -0.229236 0)
(-0.146013 -0.227109 0)
(-0.164699 -0.220714 0)
(-0.181606 -0.211071 0)
(-0.196669 -0.199067 0)
(-0.20992 -0.185448 0)
(-0.221449 -0.17082 0)
(-0.231386 -0.155659 0)
(-0.239879 -0.140326 0)
(-0.247081 -0.125078 0)
(-0.253141 -0.110089 0)
(-0.258199 -0.0954581 0)
(-0.26238 -0.0812274 0)
(-0.265792 -0.0673907 0)
(-0.268529 -0.0539041 0)
(-0.270665 -0.0406945 0)
(-0.272258 -0.0276666 0)
(-0.273349 -0.0147095 0)
(-0.273962 -0.00170214 0)
(-0.274102 0.0114808 0)
(-0.273756 0.0249639 0)
(-0.272893 0.038865 0)
(-0.27146 0.0532887 0)
(-0.269383 0.0683188 0)
(-0.266564 0.0840093 0)
(-0.262879 0.100373 0)
(-0.258181 0.117371 0)
(-0.252297 0.134894 0)
(-0.245031 0.152747 0)
(-0.236172 0.170629 0)
(-0.225504 0.188117 0)
(-0.212819 0.204639 0)
(-0.197949 0.219464 0)
(-0.180791 0.231692 0)
(-0.161356 0.240253 0)
(-0.139818 0.243936 0)
(-0.116569 0.241427 0)
(-0.0922782 0.23139 0)
(-0.0679338 0.212569 0)
(-0.0448327 0.183925 0)
(-0.0245126 0.144769 0)
(-0.00903176 0.0948913 0)
(-0.00140549 0.0346985 0)
(-0.00115684 -0.0291072 0)
(-0.00753916 -0.0790908 0)
(-0.0206611 -0.120382 0)
(-0.0381777 -0.152981 0)
(-0.0585297 -0.17727 0)
(-0.0805509 -0.193904 0)
(-0.103218 -0.203725 0)
(-0.1257 -0.207681 0)
(-0.14738 -0.206748 0)
(-0.167824 -0.201871 0)
(-0.18676 -0.193922 0)
(-0.204038 -0.183675 0)
(-0.219608 -0.171794 0)
(-0.233487 -0.15883 0)
(-0.245741 -0.145226 0)
(-0.256466 -0.131322 0)
(-0.265772 -0.117372 0)
(-0.273774 -0.10355 0)
(-0.280587 -0.0899658 0)
(-0.286317 -0.0766716 0)
(-0.291059 -0.0636758 0)
(-0.294896 -0.0509502 0)
(-0.297896 -0.0384378 0)
(-0.300109 -0.0260602 0)
(-0.301573 -0.0137235 0)
(-0.302304 -0.00132441 0)
(-0.302305 0.0112444 0)
(-0.301558 0.0240886 0)
(-0.300027 0.0373063 0)
(-0.297656 0.0509813 0)
(-0.29437 0.0651758 0)
(-0.290072 0.0799213 0)
(-0.284648 0.095209 0)
(-0.277962 0.110977 0)
(-0.269863 0.127099 0)
(-0.26019 0.143368 0)
(-0.24878 0.15948 0)
(-0.23548 0.175022 0)
(-0.220161 0.189455 0)
(-0.202751 0.202111 0)
(-0.183256 0.212184 0)
(-0.161801 0.218746 0)
(-0.138667 0.22077 0)
(-0.114335 0.217174 0)
(-0.0895234 0.206889 0)
(-0.065207 0.188948 0)
(-0.0425971 0.162579 0)
(-0.023067 0.127316 0)
(-0.00841476 0.0830711 0)
(-0.00128914 0.0302401 0)
(-0.00109657 -0.0253375 0)
(-0.007214 -0.0690061 0)
(-0.0198966 -0.105312 0)
(-0.0370035 -0.134254 0)
(-0.0571259 -0.156121 0)
(-0.0791993 -0.171421 0)
(-0.102259 -0.18082 0)
(-0.125496 -0.185077 0)
(-0.148272 -0.184988 0)
(-0.170115 -0.181338 0)
(-0.190693 -0.174861 0)
(-0.209793 -0.166223 0)
(-0.227296 -0.156003 0)
(-0.24316 -0.144689 0)
(-0.257392 -0.132683 0)
(-0.27004 -0.120298 0)
(-0.281174 -0.107772 0)
(-0.290876 -0.0952753 0)
(-0.299234 -0.0829168 0)
(-0.306334 -0.0707564 0)
(-0.312255 -0.0588123 0)
(-0.317069 -0.0470685 0)
(-0.320832 -0.0354821 0)
(-0.323589 -0.0239901 0)
(-0.325369 -0.0125148 0)
(-0.326185 -0.000969875 0)
(-0.326035 0.0107344 0)
(-0.324896 0.0226856 0)
(-0.32273 0.0349632 0)
(-0.31948 0.0476323 0)
(-0.315074 0.0607363 0)
(-0.309421 0.0742887 0)
(-0.302415 0.0882643 0)
(-0.29394 0.102588 0)
(-0.283871 0.117125 0)
(-0.272084 0.131667 0)
(-0.258462 0.145922 0)
(-0.242913 0.159501 0)
(-0.225383 0.171914 0)
(-0.205883 0.182562 0)
(-0.184509 0.190743 0)
(-0.161476 0.195664 0)
(-0.137147 0.19647 0)
(-0.112062 0.19228 0)
(-0.0869597 0.182248 0)
(-0.0627888 0.16563 0)
(-0.0406754 0.141858 0)
(-0.0218515 0.110619 0)
(-0.00790476 0.0719031 0)
(-0.00119469 0.0260757 0)
(-0.00105043 -0.0217169 0)
(-0.00696212 -0.0592538 0)
(-0.0192982 -0.090622 0)
(-0.0360724 -0.115819 0)
(-0.0559933 -0.135068 0)
(-0.0780785 -0.148763 0)
(-0.101417 -0.157429 0)
(-0.125219 -0.16167 0)
(-0.148845 -0.162131 0)
(-0.171792 -0.159453 0)
(-0.193688 -0.154247 0)
(-0.214269 -0.147074 0)
(-0.233364 -0.13843 0)
(-0.250879 -0.128737 0)
(-0.266772 -0.118347 0)
(-0.281049 -0.107542 0)
(-0.293741 -0.0965382 0)
(-0.304902 -0.0854919 0)
(-0.314592 -0.0745093 0)
(-0.322877 -0.0636514 0)
(-0.329821 -0.0529421 0)
(-0.33548 -0.0423749 0)
(-0.339903 -0.0319185 0)
(-0.343124 -0.0215235 0)
(-0.345167 -0.0111272 0)
(-0.346039 -0.000658976 0)
(-0.345732 0.00995437 0)
(-0.344222 0.0207836 0)
(-0.34147 0.0318914 0)
(-0.33742 0.0433266 0)
(-0.332003 0.0551172 0)
(-0.325136 0.0672635 0)
(-0.316727 0.0797297 0)
(-0.306679 0.0924351 0)
(-0.294895 0.105245 0)
(-0.281286 0.117961 0)
(-0.265782 0.130311 0)
(-0.248347 0.141946 0)
(-0.228991 0.152428 0)
(-0.207795 0.161239 0)
(-0.184931 0.167778 0)
(-0.160683 0.171384 0)
(-0.135472 0.171354 0)
(-0.109877 0.166982 0)
(-0.0846403 0.157603 0)
(-0.0606785 0.142652 0)
(-0.0390389 0.121713 0)
(-0.0208344 0.0945783 0)
(-0.00748384 0.0612831 0)
(-0.0011179 0.0221538 0)
(-0.00101518 -0.0182113 0)
(-0.00676783 -0.0497613 0)
(-0.0188327 -0.0762328 0)
(-0.0353407 -0.097625 0)
(-0.0550906 -0.114109 0)
(-0.0771661 -0.125991 0)
(-0.100701 -0.133679 0)
(-0.124927 -0.137651 0)
(-0.149204 -0.138417 0)
(-0.173015 -0.136497 0)
(-0.195955 -0.132386 0)
(-0.217723 -0.126548 0)
(-0.238108 -0.119395 0)
(-0.256971 -0.111284 0)
(-0.274233 -0.102515 0)
(-0.289861 -0.0933306 0)
(-0.303855 -0.083921 0)
(-0.316238 -0.0744261 0)
(-0.327051 -0.0649424 0)
(-0.336337 -0.0555284 0)
(-0.344146 -0.0462103 0)
(-0.35052 -0.0369878 0)
(-0.355497 -0.0278392 0)
(-0.359105 -0.0187266 0)
(-0.36136 -0.00960067 0)
(-0.362263 -0.00040534 0)
(-0.361804 0.00891765 0)
(-0.359955 0.0184239 0)
(-0.356679 0.0281616 0)
(-0.35192 0.0381657 0)
(-0.345616 0.0484527 0)
(-0.337692 0.059014 0)
(-0.32807 0.069809 0)
(-0.316674 0.0807577 0)
(-0.303432 0.0917337 0)
(-0.288291 0.102556 0)
(-0.27122 0.112984 0)
(-0.252234 0.122712 0)
(-0.231397 0.131364 0)
(-0.20885 0.138503 0)
(-0.184822 0.14363 0)
(-0.159651 0.146204 0)
(-0.133801 0.145661 0)
(-0.107871 0.141443 0)
(-0.082602 0.133038 0)
(-0.0588737 0.120017 0)
(-0.0376657 0.102082 0)
(-0.0199928 0.0790976 0)
(-0.00713942 0.0511199 0)
(-0.00105583 0.0184312 0)
(-0.000988516 -0.014794 0)
(-0.00661974 -0.0404696 0)
(-0.0184755 -0.06208 0)
(-0.0347747 -0.0796259 0)
(-0.0543846 -0.0932375 0)
(-0.0764403 -0.103147 0)
(-0.100112 -0.109668 0)
(-0.124653 -0.113168 0)
(-0.149424 -0.114044 0)
(-0.173898 -0.112704 0)
(-0.19765 -0.10954 0)
(-0.220351 -0.104923 0)
(-0.241757 -0.0991835 0)
(-0.261697 -0.0926135 0)
(-0.280058 -0.0854593 0)
(-0.296777 -0.0779225 0)
(-0.311828 -0.070162 0)
(-0.325209 -0.0622972 0)
(-0.336939 -0.0544116 0)
(-0.347047 -0.0465575 0)
(-0.355565 -0.0387605 0)
(-0.362525 -0.0310242 0)
(-0.367956 -0.0233339 0)
(-0.371876 -0.0156617 0)
(-0.374296 -0.00796998 0)
(-0.375213 -0.000215427 0)
(-0.374613 0.00764673 0)
(-0.372468 0.0156588 0)
(-0.368738 0.0238564 0)
(-0.363374 0.0322639 0)
(-0.356317 0.0408893 0)
(-0.347503 0.0497193 0)
(-0.336867 0.0587135 0)
(-0.324351 0.0677986 0)
(-0.309907 0.0768629 0)
(-0.293512 0.0857501 0)
(-0.275173 0.0942558 0)
(-0.254943 0.102124 0)
(-0.232935 0.109045 0)
(-0.209334 0.114664 0)
(-0.184416 0.118579 0)
(-0.158559 0.120361 0)
(-0.132254 0.11957 0)
(-0.106114 0.115778 0)
(-0.0808707 0.108595 0)
(-0.0573721 0.0977059 0)
(-0.03654 0.0828974 0)
(-0.0193104 0.0640855 0)
(-0.0068626 0.0413318 0)
(-0.00100643 0.0148702 0)
(-0.0009688 -0.0114433 0)
(-0.0065096 -0.0313306 0)
(-0.0182085 -0.0481089 0)
(-0.0343489 -0.0617799 0)
(-0.0538488 -0.0724393 0)
(-0.0758825 -0.0802582 0)
(-0.0996487 -0.0854674 0)
(-0.124417 -0.0883399 0)
(-0.149553 -0.0891731 0)
(-0.174523 -0.0882719 0)
(-0.198888 -0.0859347 0)
(-0.222298 -0.0824424 0)
(-0.244486 -0.0780507 0)
(-0.265256 -0.0729843 0)
(-0.284469 -0.0674353 0)
(-0.302038 -0.061562 0)
(-0.317914 -0.0554903 0)
(-0.332078 -0.0493156 0)
(-0.34453 -0.0431057 0)
(-0.355284 -0.036904 0)
(-0.36436 -0.0307331 0)
(-0.371782 -0.0245978 0)
(-0.377567 -0.0184891 0)
(-0.38173 -0.012387 0)
(-0.384274 -0.00626418 0)
(-0.385194 -8.87167e-05 0)
(-0.384471 0.0061723 0)
(-0.382079 0.0125497 0)
(-0.377978 0.0190686 0)
(-0.372121 0.0257451 0)
(-0.364454 0.0325819 0)
(-0.354922 0.0395648 0)
(-0.343474 0.0466578 0)
(-0.330065 0.053799 0)
(-0.31467 0.0608963 0)
(-0.29729 0.0678234 0)
(-0.277962 0.0744169 0)
(-0.256772 0.0804746 0)
(-0.233868 0.0857556 0)
(-0.209472 0.0899837 0)
(-0.183894 0.0928533 0)
(-0.157539 0.0940396 0)
(-0.13092 0.0932127 0)
(-0.104654 0.0900559 0)
(-0.0794655 0.0842863 0)
(-0.0561721 0.0756781 0)
(-0.0356504 0.064084 0)
(-0.0187757 0.0494534 0)
(-0.00664717 0.0318433 0)
(-0.000968286 0.0114373 0)
(-0.000954888 -0.0081411 0)
(-0.00643155 -0.0223033 0)
(-0.0180185 -0.034272 0)
(-0.0340445 -0.0440488 0)
(-0.0534633 -0.0516998 0)
(-0.0754773 -0.057342 0)
(-0.0993061 -0.0611342 0)
(-0.124232 -0.0632645 0)
(-0.149624 -0.063939 0)
(-0.174947 -0.06337 0)
(-0.19975 -0.0617661 0)
(-0.223672 -0.059325 0)
(-0.246427 -0.0562271 0)
(-0.2678 -0.0526325 0)
(-0.287635 -0.0486782 0)
(-0.305827 -0.044478 0)
(-0.322311 -0.040123 0)
(-0.337051 -0.0356826 0)
(-0.350036 -0.0312067 0)
(-0.361268 -0.0267278 0)
(-0.370758 -0.0222632 0)
(-0.378521 -0.0178178 0)
(-0.384568 -0.0133863 0)
(-0.388907 -0.0089555 0)
(-0.39154 -0.00450675 0)
(-0.392455 -1.83845e-05 0)
(-0.391636 0.00453206 0)
(-0.389053 0.00916535 0)
(-0.384667 0.0138981 0)
(-0.378434 0.0187401 0)
(-0.370306 0.0236916 0)
(-0.360234 0.02874 0)
(-0.348176 0.0338572 0)
(-0.334102 0.0389965 0)
(-0.318001 0.0440894 0)
(-0.299893 0.049043 0)
(-0.279839 0.0537385 0)
(-0.257949 0.0580302 0)
(-0.234398 0.0617456 0)
(-0.209434 0.0646887 0)
(-0.183391 0.0666441 0)
(-0.156693 0.0673847 0)
(-0.129866 0.0666821 0)
(-0.10353 0.0643188 0)
(-0.0784002 0.0601028 0)
(-0.0552726 0.0538828 0)
(-0.034989 0.0455631 0)
(-0.0183806 0.0351151 0)
(-0.00648883 0.0225839 0)
(-0.000940412 0.00810152 0)
(-0.000946007 -0.00487188 0)
(-0.00638157 -0.0133523 0)
(-0.0178965 -0.0205272 0)
(-0.0338484 -0.0263978 0)
(-0.0532139 -0.0310027 0)
(-0.0752133 -0.0344103 0)
(-0.0990802 -0.0367134 0)
(-0.124105 -0.0380225 0)
(-0.149661 -0.0384585 0)
(-0.17521 -0.0381466 0)
(-0.200296 -0.0372104 0)
(-0.224548 -0.035767 0)
(-0.247671 -0.0339241 0)
(-0.269437 -0.0317773 0)
(-0.289679 -0.0294087 0)
(-0.30828 -0.0268869 0)
(-0.325163 -0.024267 0)
(-0.340283 -0.021591 0)
(-0.353619 -0.0188896 0)
(-0.365166 -0.0161828 0)
(-0.374929 -0.0134815 0)
(-0.382916 -0.0107892 0)
(-0.389135 -0.00810303 0)
(-0.39359 -0.00541564 0)
(-0.396278 -0.00271626 0)
(-0.397189 7.69986e-06 0)
(-0.396302 0.00276929 0)
(-0.393588 0.00558045 0)
(-0.38901 0.0084506 0)
(-0.382525 0.0113849 0)
(-0.374088 0.0143828 0)
(-0.363655 0.0174357 0)
(-0.351191 0.020526 0)
(-0.336674 0.0236245 0)
(-0.320106 0.0266889 0)
(-0.301519 0.0296627 0)
(-0.280989 0.0324738 0)
(-0.258643 0.0350341 0)
(-0.234673 0.0372402 0)
(-0.209343 0.038975 0)
(-0.183003 0.0401104 0)
(-0.156091 0.0405123 0)
(-0.129139 0.0400464 0)
(-0.102767 0.0385858 0)
(-0.0776848 0.036019 0)
(-0.054673 0.0322593 0)
(-0.0345508 0.0272531 0)
(-0.0181199 0.0209858 0)
(-0.00638471 0.0134863 0)
(-0.000922158 0.00483396 0)
(-0.000941681 -0.00162182 0)
(-0.00635718 -0.00444582 0)
(-0.0178369 -0.00683634 0)
(-0.0337524 -0.0087939 0)
(-0.0530915 -0.0103312 0)
(-0.0750832 -0.0114707 0)
(-0.0989681 -0.012243 0)
(-0.124041 -0.0126844 0)
(-0.149676 -0.0128349 0)
(-0.175335 -0.0127359 0)
(-0.20056 -0.0124282 0)
(-0.224975 -0.0119506 0)
(-0.248279 -0.011339 0)
(-0.270239 -0.0106251 0)
(-0.290682 -0.00983628 0)
(-0.309485 -0.00899547 0)