/*--------------------------------*- C++ -*----------------------------------*\
  =========                 |
  \\      /  F ield         | OpenFOAM: The Open Source CFD Toolbox
   \\    /   O peration     | Website:  https://openfoam.org
    \\  /    A nd           | Version:  7
     \\/     M anipulation  |
\*---------------------------------------------------------------------------*/
FoamFile
{
    version     2.0;
    format      ascii;
    class       surfaceScalarField;
    location    "0.0686";
    object      phi;
}
// * * * * * * * * * * * * * * * * * * * * * * * * * * * * * * * * * * * * * //

dimensions      [0 3 -1 0 0 0 0];

internalField   nonuniform List<scalar> 
4900
(
5.45461e-06
-5.45463e-06
9.95311e-06
-4.49849e-06
1.26939e-05
-2.7408e-06
1.44122e-05
-1.71831e-06
1.55285e-05
-1.1163e-06
1.62818e-05
-7.53276e-07
1.6813e-05
-5.31217e-07
1.72037e-05
-3.90699e-07
1.75011e-05
-2.97405e-07
1.77335e-05
-2.32392e-07
1.79186e-05
-1.85135e-07
1.80682e-05
-1.49571e-07
1.81903e-05
-1.22048e-07
1.82905e-05
-1.0027e-07
1.83733e-05
-8.27235e-08
1.84416e-05
-6.83695e-08
1.84981e-05
-5.64693e-08
1.85446e-05
-4.64793e-08
1.85826e-05
-3.79878e-08
1.86132e-05
-3.0674e-08
1.86375e-05
-2.4281e-08
1.86561e-05
-1.85978e-08
1.86696e-05
-1.34456e-08
1.86782e-05
-8.66835e-09
1.86824e-05
-4.12559e-09
1.8682e-05
3.16828e-10
1.86773e-05
4.7817e-09
1.86679e-05
9.40365e-09
1.86535e-05
1.43172e-08
1.86339e-05
1.96725e-08
1.86082e-05
2.56407e-08
1.85758e-05
3.24239e-08
1.85355e-05
4.02686e-08
1.8486e-05
4.94851e-08
1.84256e-05
6.04745e-08
1.83518e-05
7.37704e-08
1.82617e-05
9.01027e-08
1.81512e-05
1.105e-07
1.80147e-05
1.36463e-07
1.78445e-05
1.70264e-07
1.7629e-05
2.15507e-07
1.73508e-05
2.78182e-07
1.6982e-05
3.68753e-07
1.64757e-05
5.063e-07
1.57495e-05
7.26194e-07
1.46576e-05
1.09198e-06
1.29451e-05
1.7124e-06
1.0162e-05
2.78319e-06
5.55723e-06
4.60473e-06
5.55723e-06
-1.19311e-07
-5.33532e-06
1.83182e-06
-6.44962e-06
4.41347e-06
-5.32245e-06
6.72986e-06
-4.0347e-06
8.61064e-06
-2.99709e-06
1.00943e-05
-2.2369e-06
1.12604e-05
-1.69735e-06
1.21831e-05
-1.31341e-06
1.29208e-05
-1.03513e-06
1.35171e-05
-8.28663e-07
1.40038e-05
-6.7181e-07
1.44042e-05
-5.50015e-07
1.47358e-05
-4.53596e-07
1.50115e-05
-3.7598e-07
1.52414e-05
-3.12586e-07
1.54331e-05
-2.60141e-07
1.55929e-05
-2.1624e-07
1.57255e-05
-1.79073e-07
1.58347e-05
-1.47243e-07
1.59237e-05
-1.19642e-07
1.59948e-05
-9.5375e-08
1.60499e-05
-7.36932e-08
1.60904e-05
-5.39583e-08
1.61174e-05
-3.56074e-08
1.61314e-05
-1.81289e-08
1.61327e-05
-1.04299e-09
1.61214e-05
1.61234e-08
1.60969e-05
3.38432e-08
1.60586e-05
5.2619e-08
1.60053e-05
7.29993e-08
1.59353e-05
9.56064e-08
1.58466e-05
1.2117e-07
1.57363e-05
1.50572e-07
1.56009e-05
1.84909e-07
1.54358e-05
2.2558e-07
1.52351e-05
2.74418e-07
1.49913e-05
3.33876e-07
1.46945e-05
4.07323e-07
1.43315e-05
4.99499e-07
1.38845e-05
6.17247e-07
1.33293e-05
7.70702e-07
1.26323e-05
9.7522e-07
1.17466e-05
1.25447e-06
1.06078e-05
1.64504e-06
9.13196e-06
2.20204e-06
7.22454e-06
2.99941e-06
4.83157e-06
4.10537e-06
2.12102e-06
5.49374e-06
1.07192e-08
6.71502e-06
5.56795e-06
-1.08241e-06
-4.25291e-06
-7.5393e-07
-6.7781e-06
5.89977e-07
-6.66636e-06
2.30282e-06
-5.74754e-06
4.01487e-06
-4.70914e-06
5.56748e-06
-3.78952e-06
6.91341e-06
-3.04327e-06
8.05617e-06
-2.45618e-06
9.01829e-06
-1.99726e-06
9.82648e-06
-1.63685e-06
1.05057e-05
-1.35104e-06
1.10774e-05
-1.12176e-06
1.15595e-05
-9.35615e-07
1.19663e-05
-7.82775e-07
1.23096e-05
-6.55935e-07
1.25991e-05
-5.49612e-07
1.28425e-05
-4.59619e-07
1.30461e-05
-3.82701e-07
1.32151e-05
-3.16279e-07
1.33537e-05
-2.58263e-07
1.34653e-05
-2.06929e-07
1.35524e-05
-1.60814e-07
1.36171e-05
-1.18651e-07
1.36608e-05
-7.93103e-08
1.36844e-05
-4.17539e-08
1.36884e-05
-5.00035e-09
1.36726e-05
3.19177e-08
1.36365e-05
6.99754e-08
1.35789e-05
1.10203e-07
1.34982e-05
1.53722e-07
1.3392e-05
2.01793e-07
1.32573e-05
2.55884e-07
1.30901e-05
3.17741e-07
1.28855e-05
3.89508e-07
1.26372e-05
4.73864e-07
1.23374e-05
5.74241e-07
1.19762e-05
6.95109e-07
1.15411e-05
8.42397e-07
1.10165e-05
1.02409e-06
1.03827e-05
1.25107e-06
9.61506e-06
1.5383e-06
8.684e-06
1.90628e-06
7.55592e-06
2.38254e-06
6.19896e-06
3.002e-06
4.5984e-06
3.8026e-06
2.79193e-06
4.80588e-06
9.3825e-07
5.95905e-06
-5.70538e-07
7.00253e-06
-1.03812e-06
7.18261e-06
4.52982e-06
-9.1296e-07
-3.33995e-06
-1.34117e-06
-6.34989e-06
-9.35921e-07
-7.07161e-06
2.29385e-08
-6.7064e-06
1.24164e-06
-5.92784e-06
2.52066e-06
-5.06853e-06
3.74719e-06
-4.26981e-06
4.86851e-06
-3.57749e-06
5.86672e-06
-2.99547e-06
6.74193e-06
-2.51206e-06
7.50252e-06
-2.11163e-06
8.15994e-06
-1.77918e-06
8.72614e-06
-1.50181e-06
9.21237e-06
-1.26901e-06
9.62875e-06
-1.07231e-06
9.98408e-06
-9.04943e-07
1.02859e-05
-7.61486e-07
1.05408e-05
-6.37542e-07
1.0754e-05
-5.29503e-07
1.09301e-05
-4.34364e-07
1.10728e-05
-3.4958e-07
1.11849e-05
-2.72947e-07
1.12688e-05
-2.02522e-07
1.1326e-05
-1.36543e-07
1.13576e-05
-7.33755e-08
1.13641e-05
-1.14563e-08
1.13452e-05
5.07577e-08
1.13004e-05
1.14832e-07
1.12282e-05
1.82411e-07
1.11266e-05
2.55279e-07
1.0993e-05
3.35422e-07
1.08238e-05
4.25116e-07
1.06145e-05
5.27037e-07
1.03596e-05
6.44392e-07
1.00523e-05
7.81104e-07
9.68453e-06
9.42044e-07
9.2463e-06
1.13334e-06
8.72593e-06
1.36276e-06
8.1098e-06
1.64022e-06
7.3826e-06
1.97827e-06
6.5283e-06
2.3926e-06
5.53261e-06
2.90198e-06
4.38829e-06
3.52686e-06
3.1059e-06
4.28439e-06
1.73303e-06
5.17548e-06
3.84467e-07
6.15444e-06
-7.23994e-07
7.06751e-06
-1.26546e-06
7.54399e-06
-9.158e-07
6.83296e-06
3.61402e-06
-6.64632e-07
-2.67532e-06
-1.29668e-06
-5.71784e-06
-1.41687e-06
-6.95142e-06
-1.04037e-06
-7.08291e-06
-3.21692e-07
-6.64652e-06
5.81619e-07
-5.97184e-06
1.55129e-06
-5.23948e-06
2.5114e-06
-4.5376e-06
3.41872e-06
-3.90278e-06
4.25181e-06
-3.34515e-06
5.00263e-06
-2.86245e-06
5.67079e-06
-2.44734e-06
6.26003e-06
-2.09105e-06
6.77598e-06
-1.78496e-06
7.22498e-06
-1.52132e-06
7.61339e-06
-1.29335e-06
7.94716e-06
-1.09526e-06
8.2317e-06
-9.22083e-07
8.47178e-06
-7.69585e-07
8.67151e-06
-6.34095e-07
8.83434e-06
-5.12407e-07
8.96307e-06
-4.01678e-07
9.05989e-06
-2.99341e-07
9.12638e-06
-2.03031e-07
9.16352e-06
-1.10518e-07
9.17171e-06
-1.96508e-08
9.15077e-06
7.1705e-08
9.09988e-06
1.65722e-07
9.01761e-06
2.64675e-07
8.90188e-06
3.71011e-07
8.74987e-06
4.87427e-07
8.55803e-06
6.16965e-07
8.32194e-06
7.63126e-07
8.03632e-06
9.30009e-07
7.69495e-06
1.12248e-06
7.29064e-06
1.34635e-06
6.81535e-06
1.60863e-06
6.26042e-06
1.9177e-06
5.61712e-06
2.28351e-06
4.87792e-06
2.71748e-06
4.03863e-06
3.2319e-06
3.10236e-06
3.83825e-06
2.08613e-06
4.54309e-06
1.03094e-06
5.33958e-06
1.55003e-08
6.19092e-06
-8.30911e-07
7.00085e-06
-1.32847e-06
7.56507e-06
-1.29253e-06
7.50805e-06
-6.84843e-07
6.22527e-06
2.92918e-06
-4.7058e-07
-2.20474e-06
-1.09894e-06
-5.08947e-06
-1.46646e-06
-6.5839e-06
-1.46654e-06
-7.08283e-06
-1.14496e-06
-6.9681e-06
-5.96728e-07
-6.52007e-06
8.4474e-08
-5.92069e-06
8.24768e-07
-5.2779e-06
1.5725e-06
-4.65051e-06
2.29458e-06
-4.06723e-06
2.97159e-06
-3.53946e-06
3.59346e-06
-3.06921e-06
4.15617e-06
-2.65376e-06
4.65947e-06
-2.28825e-06
5.10525e-06
-1.9671e-06
5.49661e-06
-1.68471e-06
5.83713e-06
-1.43577e-06
6.13049e-06
-1.21545e-06
6.38023e-06
-1.01933e-06
6.58956e-06
-8.43425e-07
6.76129e-06
-6.84137e-07
6.89777e-06
-5.38156e-07
7.00085e-06
-4.02423e-07
7.07189e-06
-2.74061e-07
7.11168e-06
-1.50315e-07
7.12053e-06
-2.84979e-08
7.09816e-06
9.40737e-08
7.04375e-06
2.20134e-07
6.95589e-06
3.52537e-07
6.83258e-06
4.94322e-07
6.67121e-06
6.48798e-07
6.46854e-06
8.19627e-07
6.22075e-06
1.01092e-06
5.9234e-06
1.22736e-06
5.57159e-06
1.47428e-06
5.16013e-06
1.75781e-06
4.68387e-06
2.08488e-06
4.13837e-06
2.4632e-06
3.52091e-06
2.90097e-06
2.83222e-06
3.40617e-06
2.07914e-06
3.98497e-06
1.27863e-06
4.63876e-06
4.63152e-07
5.35857e-06
-3.12712e-07
6.11544e-06
-9.66785e-07
6.84499e-06
-1.39024e-06
7.42431e-06
-1.46793e-06
7.64276e-06
-1.13543e-06
7.17555e-06
-4.96366e-07
5.58621e-06
2.43282e-06
-3.39574e-07
-1.86516e-06
-9.00948e-07
-4.5281e-06
-1.36197e-06
-6.12288e-06
-1.58125e-06
-6.86354e-06
-1.54039e-06
-7.00896e-06
-1.28143e-06
-6.77903e-06
-8.65723e-07
-6.3364e-06
-3.52348e-07
-5.79127e-06
2.10412e-07
-5.21327e-06
7.86697e-07
-4.64352e-06
1.35168e-06
-4.10444e-06
1.88923e-06
-3.60677e-06
2.38967e-06
-3.15419e-06
2.8478e-06
-2.74638e-06
3.26149e-06
-2.38079e-06
3.63057e-06
-2.05378e-06
3.95606e-06
-1.76127e-06
4.23968e-06
-1.49907e-06
4.48342e-06
-1.26306e-06
4.68932e-06
-1.04933e-06
4.85931e-06
-8.54118e-07
4.99504e-06
-6.73893e-07
5.09789e-06
-5.05269e-07
5.16882e-06
-3.44994e-07
5.20841e-06
-1.89901e-07
5.21677e-06
-3.6861e-08
5.19358e-06
1.17265e-07
5.13803e-06
2.75682e-07
5.04885e-06
4.41716e-07
4.9243e-06
6.18879e-07
4.76217e-06
8.10929e-07
4.55985e-06
1.02194e-06
4.31442e-06
1.25635e-06
4.02273e-06
1.51905e-06
3.68166e-06
1.81536e-06
3.28845e-06
2.15102e-06
2.84128e-06
2.53206e-06
2.34006e-06
2.96442e-06
1.78771e-06
3.45332e-06
1.19192e-06
4.00196e-06
5.67578e-07
4.60932e-06
-6.01989e-08
5.26654e-06
-6.52736e-07
5.9511e-06
-1.15535e-06
6.61806e-06
-1.49833e-06
7.18797e-06
-1.60616e-06
7.53214e-06
-1.42258e-06
7.45919e-06
-9.58954e-07
6.71192e-06
-3.66356e-07
4.99361e-06
2.06646e-06
-2.54622e-07
-1.61054e-06
-7.39881e-07
-4.04284e-06
-1.21906e-06
-5.6437e-06
-1.55553e-06
-6.52708e-06
-1.70027e-06
-6.86421e-06
-1.65922e-06
-6.82008e-06
-1.46504e-06
-6.53058e-06
-1.1586e-06
-6.09771e-06
-7.78886e-07
-5.59298e-06
-3.58639e-07
-5.06377e-06
7.67484e-08
-4.53983e-06
5.08681e-07
-4.0387e-06
9.24226e-07
-3.56974e-06
1.31486e-06
-3.13702e-06
1.67534e-06
-2.74127e-06
2.00278e-06
-2.38122e-06
2.2959e-06
-2.05439e-06
2.55449e-06
-1.75766e-06
2.77901e-06
-1.48758e-06
2.97025e-06
-1.24057e-06
3.12914e-06
-1.01301e-06
3.25659e-06
-8.01347e-07
3.35338e-06
-6.0205e-07
3.42003e-06
-4.11647e-07
3.45682e-06
-2.26695e-07
3.46371e-06
-4.37512e-08
3.44032e-06
1.40661e-07
3.38591e-06
3.3009e-07
3.29942e-06
5.28201e-07
3.17949e-06
7.38814e-07
3.02447e-06
9.65946e-07
2.83257e-06
1.21384e-06
2.60193e-06
1.48699e-06
2.3309e-06
1.79008e-06
2.01827e-06
2.12799e-06
1.66377e-06
2.50552e-06
1.26869e-06
2.92714e-06
8.36756e-07
3.39636e-06
3.7531e-07
3.91477e-06
-1.03188e-07
4.48045e-06
-5.79397e-07
5.08552e-06
-1.02533e-06
5.71248e-06
-1.40323e-06
6.329e-06
-1.66628e-06
6.88111e-06
-1.76337e-06
7.28506e-06
-1.65106e-06
7.41983e-06
-1.31596e-06
7.12408e-06
-8.08511e-07
6.20447e-06
-2.80928e-07
4.46602e-06
1.78553e-06
-1.99022e-07
-1.41152e-06
-6.16999e-07
-3.62486e-06
-1.08167e-06
-5.17903e-06
-1.47479e-06
-6.13396e-06
-1.73695e-06
-6.60205e-06
-1.85271e-06
-6.70432e-06
-1.83335e-06
-6.54994e-06
-1.7031e-06
-6.22797e-06
-1.48997e-06
-5.80611e-06
-1.22059e-06
-5.33315e-06
-9.17782e-07
-4.84263e-06
-5.99878e-07
-4.3566e-06
-2.80867e-07
-3.88875e-06
2.9002e-08
-3.44689e-06
3.22524e-07
-3.03479e-06
5.9485e-07
-2.65355e-06
8.42901e-07
-2.30244e-06
1.06486e-06
-1.97963e-06
1.25981e-06
-1.68253e-06
1.42739e-06
-1.40814e-06
1.56757e-06
-1.1532e-06
1.68051e-06
-9.14284e-07
1.76637e-06
-6.87913e-07
1.82527e-06
-4.70543e-07
1.85717e-06
-2.58596e-07
1.86187e-06
-4.84507e-08
1.83896e-06
1.6357e-07
1.78783e-06
3.81218e-07
1.70769e-06
6.08341e-07
1.59761e-06
8.48899e-07
1.45658e-06
1.10697e-06
1.28369e-06
1.38674e-06
1.07823e-06
1.69245e-06
8.39993e-07
2.02832e-06
5.69599e-07
2.39838e-06
2.68976e-07
2.80614e-06
-5.80273e-08
3.25414e-06
-4.04849e-07
3.74318e-06
-7.61268e-07
4.27119e-06
-1.11235e-06
4.83154e-06
-1.43748e-06
5.41065e-06
-1.7098e-06
5.98479e-06
-1.89672e-06
6.51593e-06
-1.96263e-06
6.94701e-06
-1.87503e-06
7.19746e-06
-1.61592e-06
7.16072e-06
-1.19885e-06
6.70701e-06
-6.89838e-07
5.69546e-06
-2.24255e-07
4.00044e-06
1.56128e-06
-1.61677e-07
-1.24984e-06
-5.25071e-07
-3.26147e-06
-9.63634e-07
-4.74047e-06
-1.37962e-06
-5.71797e-06
-1.7136e-06
-6.26807e-06
-1.93916e-06
-6.47876e-06
-2.05329e-06
-6.43581e-06
-2.06699e-06
-6.21426e-06
-1.99802e-06
-5.87508e-06
-1.86601e-06
-5.46516e-06
-1.68963e-06
-5.01902e-06
-1.48515e-06
-4.56108e-06
-1.26602e-06
-4.10788e-06
-1.04285e-06
-3.67006e-06
-8.23746e-07
-3.2539e-06
-6.14692e-07
-2.8626e-06
-4.19997e-07
-2.49714e-06
-2.42656e-07
-2.15697e-06
-8.46903e-08
-1.84049e-06
5.25797e-08
-1.54541e-06
1.68314e-07
-1.26893e-06
2.61977e-07
-1.00795e-06
3.33204e-07
-7.5914e-07
3.81702e-07
-5.19041e-07
4.07178e-07
-2.84071e-07
4.09293e-07
-5.05662e-08
3.87647e-07
1.85216e-07
3.41775e-07
4.2709e-07
2.71183e-07
6.78933e-07
1.75404e-07
9.44678e-07
5.40946e-08
1.22828e-06
-9.28275e-08
1.53366e-06
-2.64987e-07
1.86461e-06
-4.61292e-07
2.22463e-06
-6.7959e-07
2.61668e-06
-9.16231e-07
3.04278e-06
-1.16554e-06
3.50345e-06
-1.41922e-06
3.99685e-06
-1.66566e-06
4.51764e-06
-1.88945e-06
5.05533e-06
-2.07104e-06
5.59224e-06
-2.18715e-06
6.1009e-06
-2.21233e-06
6.54111e-06
-2.12242e-06
6.8571e-06
-1.90068e-06
6.97572e-06
-1.54707e-06
6.80711e-06
-1.09002e-06
6.24996e-06
-5.98077e-07
5.20352e-06
-1.8546e-07
3.58782e-06
1.37582e-06
-1.35862e-07
-1.11398e-06
-4.56455e-07
-2.94088e-06
-8.67019e-07
-4.3299e-06
-1.28802e-06
-5.29697e-06
-1.66458e-06
-5.89151e-06
-1.96583e-06
-6.17752e-06
-2.17995e-06
-6.22168e-06
-2.30836e-06
-6.08586e-06
-2.36026e-06
-5.82318e-06
-2.34864e-06
-5.47678e-06
-2.2875e-06
-5.08016e-06
-2.19019e-06
-4.65839e-06
-2.06853e-06
-4.22954e-06
-1.93252e-06
-3.80607e-06
-1.79028e-06
-3.39614e-06
-1.64825e-06
-3.00464e-06
-1.51137e-06
-2.63402e-06
-1.38338e-06
-2.28495e-06
-1.26707e-06
-1.9568e-06
-1.16448e-06
-1.648e-06
-1.07709e-06
-1.35633e-06
-1.00597e-06
-1.07906e-06
-9.51944e-07
-8.13168e-07
-9.15625e-07
-5.5536e-07
-8.97521e-07
-3.02176e-07
-8.98059e-07
-5.00281e-08
-9.17607e-07
2.04765e-07
-9.56463e-07
4.65946e-07
-1.01482e-06
7.37287e-07
-1.09269e-06
1.02255e-06
-1.18981e-06
1.32541e-06
-1.30552e-06
1.64936e-06
-1.43852e-06
1.9976e-06
-1.58667e-06
2.37278e-06
-1.74666e-06
2.77668e-06
-1.91369e-06
3.20981e-06
-2.08103e-06
3.67079e-06
-2.23963e-06
4.15545e-06
-2.37781e-06
4.65581e-06
-2.48109e-06
5.15861e-06
-2.53251e-06
5.64367e-06
-2.51356e-06
6.08195e-06
-2.40621e-06
6.43376e-06
-2.19647e-06
6.64736e-06
-1.87968e-06
6.65893e-06
-1.46738e-06
6.39482e-06
-9.94877e-07
5.77745e-06
-5.26933e-07
4.73558e-06
-1.57896e-07
3.21879e-06
1.21792e-06
-1.1754e-07
-9.96441e-07
-4.05008e-07
-2.65341e-06
-7.89725e-07
-3.94519e-06
-1.20699e-06
-4.8797e-06
-1.60796e-06
-5.49053e-06
-1.96094e-06
-5.82454e-06
-2.24925e-06
-5.93337e-06
-2.4677e-06
-5.8674e-06
-2.61893e-06
-5.67195e-06
-2.71018e-06
-5.38552e-06
-2.75097e-06
-5.03937e-06
-2.75139e-06
-4.65797e-06
-2.72115e-06
-4.25978e-06
-2.66897e-06
-3.85825e-06
-2.60238e-06
-3.46273e-06
-2.52766e-06
-3.07935e-06
-2.44993e-06
-2.71175e-06
-2.37328e-06
-2.3616e-06
-2.30092e-06
-2.02916e-06
-2.23534e-06
-1.71358e-06
-2.17848e-06
-1.41319e-06
-2.13181e-06
-1.12573e-06
-2.09646e-06
-8.4852e-07
-2.07329e-06
-5.78528e-07
-2.06296e-06
-3.12508e-07
-2.06594e-06
-4.70495e-08
-2.08253e-06
2.21361e-07
-2.11287e-06
4.96285e-07
-2.15686e-06
7.81273e-07
-2.2141e-06
1.07979e-06
-2.28384e-06
1.39514e-06
-2.36475e-06
1.73028e-06
-2.45487e-06
2.08772e-06
-2.55128e-06
2.46919e-06
-2.64996e-06
2.87536e-06
-2.74548e-06
3.30533e-06
-2.83073e-06
3.75604e-06
-2.8968e-06
4.22152e-06
-2.93282e-06
4.69183e-06
-2.92625e-06
5.15204e-06
-2.86344e-06
5.58086e-06
-2.73092e-06
5.94942e-06
-2.51749e-06
6.22033e-06
-2.21744e-06
6.34731e-06
-1.8347e-06
6.27619e-06
-1.38767e-06
5.94778e-06
-9.13638e-07
5.30343e-06
-4.71105e-07
4.29304e-06
-1.37592e-07
2.88527e-06
1.08033e-06
-1.04249e-07
-8.92192e-07
-3.66181e-07
-2.39147e-06
-7.28588e-07
-3.58278e-06
-1.13837e-06
-4.46992e-06
-1.55272e-06
-5.07619e-06
-1.94099e-06
-5.43627e-06
-2.28413e-06
-5.59023e-06
-2.57273e-06
-5.57881e-06
-2.80455e-06
-5.44013e-06
-2.98222e-06
-5.20785e-06
-3.11126e-06
-4.91034e-06
-3.19863e-06
-4.5706e-06
-3.2517e-06
-4.20671e-06
-3.27762e-06
-3.83233e-06
-3.2829e-06
-3.45745e-06
-3.27327e-06
-3.08898e-06
-3.25365e-06
-2.73138e-06
-3.2281e-06
-2.38715e-06
-3.20001e-06
-2.05726e-06
-3.17208e-06
-1.74151e-06
-3.14649e-06
-1.43878e-06
-3.12495e-06
-1.14727e-06
-3.10879e-06
-8.64673e-07
-3.09904e-06
-5.88282e-07
-3.09642e-06
-3.1513e-07
-3.10141e-06
-4.20614e-08
-3.11423e-06
2.34185e-07
-3.13485e-06
5.16904e-07
-3.16291e-06
8.09336e-07
-3.1977e-06
1.11458e-06
-3.23802e-06
1.43546e-06
-3.28213e-06
1.77439e-06
-3.32755e-06
2.13314e-06
-3.37094e-06
2.51258e-06
-3.40792e-06
2.91234e-06
-3.43293e-06
3.33033e-06
-3.43907e-06
3.76219e-06
-3.41815e-06
4.20059e-06
-3.36078e-06
4.63446e-06
-3.25682e-06
5.04808e-06
-3.09616e-06
5.4202e-06
-2.87009e-06
5.72336e-06
-2.57325e-06
5.92348e-06
-2.20622e-06
5.98029e-06
-1.77872e-06
5.84868e-06
-1.31271e-06
5.48177e-06
-8.44789e-07
4.83551e-06
-4.26635e-07
3.87489e-06
-1.22153e-07
2.58079e-06
9.58176e-07
-9.44418e-08
-7.9775e-07
-3.36693e-07
-2.14922e-06
-6.80516e-07
-3.23896e-06
-1.08174e-06
-4.0687e-06
-1.50291e-06
-4.65501e-06
-1.91531e-06
-5.02388e-06
-2.29903e-06
-5.2065e-06
-2.64209e-06
-5.23575e-06
-2.93882e-06
-5.1434e-06
-3.18824e-06
-4.95843e-06
-3.39255e-06
-4.70603e-06
-3.55585e-06
-4.4073e-06
-3.68326e-06
-4.0793e-06
-3.78019e-06
-3.7354e-06
-3.85195e-06
-3.38569e-06
-3.90346e-06
-3.03746e-06
-3.93914e-06
-2.6957e-06
-3.96282e-06
-2.36347e-06
-3.97777e-06
-2.04231e-06
-3.98673e-06
-1.73255e-06
-3.99195e-06
-1.43356e-06
-3.99524e-06
-1.14399e-06
-3.99802e-06
-8.61893e-07
-4.00137e-06
-5.84936e-07
-4.00603e-06
-3.10466e-07
-4.01245e-06
-3.56365e-08
-4.02077e-06
2.42505e-07
-4.03079e-06
5.26923e-07
-4.04195e-06
8.20495e-07
-4.05327e-06
1.1259e-06
-4.06328e-06
1.44547e-06
-4.06992e-06
1.78104e-06
-4.07048e-06
2.13369e-06
-4.06143e-06
2.50354e-06
-4.0384e-06
2.88931e-06
-3.99606e-06
3.28799e-06
-3.92817e-06
3.69429e-06
-3.82766e-06
4.10008e-06
-3.68695e-06
4.49375e-06
-3.49847e-06
4.8596e-06
-3.25555e-06
5.17728e-06
-2.95367e-06
5.42147e-06
-2.59213e-06
5.56195e-06
-2.17616e-06
5.56432e-06
-1.7191e-06
5.39162e-06
-1.24434e-06
5.00702e-06
-7.8647e-07
4.37764e-06
-3.90693e-07
3.47911e-06
-1.10101e-07
2.3002e-06
8.48075e-07
-8.71134e-08
-7.10637e-07
-3.1418e-07
-1.92216e-06
-6.42845e-07
-2.91029e-06
-1.03574e-06
-3.6758e-06
-1.45999e-06
-4.23076e-06
-1.88898e-06
-4.59489e-06
-2.30288e-06
-4.79261e-06
-2.68822e-06
-4.85041e-06
-3.03699e-06
-4.79463e-06
-3.34552e-06
-4.6499e-06
-3.61329e-06
-4.43826e-06
-3.84197e-06
-4.17862e-06
-4.03457e-06
-3.8867e-06
-4.19484e-06
-3.57513e-06
-4.32679e-06
-3.25374e-06
-4.4344e-06
-2.92986e-06
-4.52141e-06
-2.60868e-06
-4.59124e-06
-2.29364e-06
-4.64689e-06
-1.98666e-06
-4.69095e-06
-1.68849e-06
-4.7256e-06
-1.39891e-06
-4.75264e-06
-1.11695e-06
-4.77347e-06
-8.4106e-07
-4.78916e-06
-5.69246e-07
-4.80043e-06
-2.99199e-07
-4.80765e-06
-2.84126e-08
-4.81087e-06
2.45721e-07
-4.80975e-06
5.25802e-07
-4.80357e-06
8.14317e-07
-4.79118e-06
1.11351e-06
-4.77093e-06
1.42522e-06
-4.74063e-06
1.75074e-06
-4.6975e-06
2.09056e-06
-4.63808e-06
2.44412e-06
-4.55824e-06
2.80948e-06
-4.45322e-06
3.18297e-06
-4.31767e-06
3.55874e-06
-4.1459e-06
3.92831e-06
-3.93226e-06
4.28012e-06
-3.67172e-06
4.59906e-06
-3.36068e-06
4.86624e-06
-2.99814e-06
5.05893e-06
-2.58705e-06
5.15086e-06
-2.13585e-06
5.11313e-06
-1.66e-06
4.91577e-06
-1.18305e-06
4.53006e-06
-7.36975e-07
3.93156e-06
-3.61276e-07
3.10342e-06
-1.00498e-07
2.03942e-06
7.47577e-07
-8.15875e-08
-6.29049e-07
-2.96926e-07
-1.70682e-06
-6.13401e-07
-2.59382e-06
-9.98821e-07
-3.29038e-06
-1.42407e-06
-3.80551e-06
-1.86459e-06
-4.15436e-06
-2.30105e-06
-4.35615e-06
-2.71927e-06
-4.4322e-06
-3.10967e-06
-4.40422e-06
-3.4666e-06
-4.29298e-06
-3.7874e-06
-4.11745e-06
-4.07171e-06
-3.89431e-06
-4.3207e-06
-3.63771e-06
-4.53656e-06
-3.35928e-06
-4.72203e-06
-3.06827e-06
-4.88009e-06
-2.77179e-06
-5.01375e-06
-2.47502e-06
-5.12586e-06
-2.18152e-06
-5.21906e-06
-1.89346e-06
-5.29568e-06
-1.61187e-06
-5.35772e-06
-1.33687e-06
-5.40686e-06
-1.06781e-06
-5.44442e-06
-8.03498e-07
-5.4714e-06
-5.4227e-07
-5.48843e-06
-2.82165e-07
-5.49582e-06
-2.10238e-08
-5.4935e-06
2.43402e-07
-5.48104e-06
5.13341e-07
-5.4576e-06
7.90879e-07
-5.42193e-06
1.07783e-06
-5.37231e-06
1.3756e-06
-5.30655e-06
1.68498e-06
-5.22196e-06
2.00596e-06
-5.11532e-06
2.33748e-06
-4.98298e-06
2.67714e-06
-4.82088e-06
3.02087e-06
-4.62474e-06
3.36261e-06
-4.39036e-06
3.69393e-06
-4.11396e-06
4.00372e-06
-3.79285e-06
4.27794e-06
-3.42611e-06
4.4995e-06
-3.01559e-06
4.64841e-06
-2.56697e-06
4.70224e-06
-2.09086e-06
4.63702e-06
-1.60378e-06
4.42868e-06
-1.12869e-06
4.05497e-06
-6.9489e-07
3.49776e-06
-3.36967e-07
2.74549e-06
-9.27277e-08
1.79518e-06
6.54849e-07
-7.73965e-08
-5.51653e-07
-2.83677e-07
-1.50054e-06
-5.90446e-07
-2.28705e-06
-9.69459e-07
-2.91137e-06
-1.39463e-06
-3.38035e-06
-1.84326e-06
-3.70572e-06
-2.29673e-06
-3.90268e-06
-2.74055e-06
-3.98838e-06
-3.1642e-06
-3.98058e-06
-3.56054e-06
-3.89663e-06
-3.92532e-06
-3.75268e-06
-4.25647e-06
-3.56315e-06
-4.55362e-06
-3.34055e-06
-4.81756e-06
-3.09534e-06
-5.04984e-06
-2.83599e-06
-5.25248e-06
-2.56915e-06
-5.42771e-06
-2.2998e-06
-5.57779e-06
-2.03144e-06
-5.7049e-06
-1.76635e-06
-5.81104e-06
-1.50573e-06
-5.89797e-06
-1.24994e-06
-5.96718e-06
-9.98606e-07
-6.01985e-06
-7.50823e-07
-6.05687e-06
-5.05255e-07
-6.07876e-06
-2.60268e-07
-6.08575e-06
-1.40426e-08
-6.07766e-06
2.35315e-07
-6.05398e-06
4.89666e-07
-6.01382e-06
7.50718e-07
-5.95588e-06
1.01989e-06
-5.87847e-06
1.29819e-06
-5.77949e-06
1.586e-06
-5.65646e-06
1.88293e-06
-5.50656e-06
2.18758e-06
-5.32669e-06
2.49727e-06
-5.11363e-06
2.8078e-06
-4.86422e-06
3.1132e-06
-4.57571e-06
3.40542e-06
-4.24611e-06
3.67412e-06
-3.87476e-06
3.90659e-06
-3.46301e-06
4.08775e-06
-3.01494e-06
4.20034e-06
-2.53822e-06
4.22552e-06
-2.04486e-06
4.14366e-06
-1.55176e-06
3.93558e-06
-1.08092e-06
3.58413e-06
-6.59101e-07
3.07594e-06
-3.16759e-07
2.40315e-06
-8.63767e-08
1.5648e-06
5.68473e-07
-7.42087e-08
-4.77444e-07
-2.73503e-07
-1.30124e-06
-5.72615e-07
-1.98794e-06
-9.46307e-07
-2.53768e-06
-1.3709e-06
-2.95575e-06
-1.82533e-06
-3.2513e-06
-2.29168e-06
-3.43633e-06
-2.75549e-06
-3.52457e-06
-3.2056e-06
-3.53047e-06
-3.63388e-06
-3.46835e-06
-4.03481e-06
-3.35175e-06
-4.405e-06
-3.19296e-06
-4.74277e-06
-3.00278e-06
-5.0477e-06
-2.79041e-06
-5.32029e-06
-2.56341e-06
-5.56164e-06
-2.3278e-06
-5.77323e-06
-2.0882e-06
-5.95674e-06
-1.84794e-06
-6.11384e-06
-1.60924e-06
-6.24618e-06
-1.37339e-06
-6.35523e-06
-1.14089e-06
-6.44225e-06
-9.11588e-07
-6.50825e-06
-6.8482e-07
-6.55397e-06
-4.59535e-07
-6.57983e-06
-2.34406e-07
-6.58594e-06
-7.93678e-09
-6.57206e-06
2.21432e-07
-6.53761e-06
4.55217e-07
-6.48167e-06
6.94776e-07
-6.40296e-06
9.41187e-07
-6.29988e-06
1.19511e-06
-6.1705e-06
1.45662e-06
-6.01264e-06
1.72507e-06
-5.82392e-06
1.99886e-06
-5.60189e-06
2.27524e-06
-5.34419e-06
2.5501e-06
-5.04877e-06
2.81779e-06
-4.71422e-06
3.07087e-06
-4.34015e-06
3.30005e-06
-3.92767e-06
3.49411e-06
-3.47994e-06
3.64002e-06
-3.00279e-06
3.7232e-06
-2.50531e-06
3.72804e-06
-2.00032e-06
3.63867e-06
-1.5047e-06
3.43997e-06
-1.03936e-06
3.11879e-06
-6.28752e-07
2.66533e-06
-2.99933e-07
2.07433e-06
-8.11603e-08
1.34603e-06
4.87313e-07
-7.17852e-08
-4.05659e-07
-2.65711e-07
-1.10732e-06
-5.5884e-07
-1.69481e-06
-9.2822e-07
-2.1683e-06
-1.35208e-06
-2.53189e-06
-1.81069e-06
-2.7927e-06
-2.28685e-06
-2.96016e-06
-2.76624e-06
-3.04518e-06
-3.23733e-06
-3.05937e-06
-3.69129e-06
-3.01439e-06
-4.12166e-06
-2.92139e-06
-4.52399e-06
-2.79062e-06
-4.89555e-06
-2.63123e-06
-5.2349e-06
-2.45106e-06
-5.5416e-06
-2.2567e-06
-5.81596e-06
-2.05344e-06
-6.05876e-06
-1.8454e-06
-6.27109e-06
-1.63561e-06
-6.45417e-06
-1.42616e-06
-6.60926e-06
-1.21831e-06
-6.73751e-06
-1.01263e-06
-6.83997e-06
-8.09128e-07
-6.91746e-06
-6.07337e-07
-6.97054e-06
-4.06452e-07
-6.99953e-06
-2.05421e-07
-7.00442e-06
-3.04156e-09
-6.98492e-06
2.01935e-07
-6.94042e-06
4.10714e-07
-6.86999e-06
6.24344e-07
-6.77241e-06
8.43609e-07
-6.64621e-06
1.0689e-06
-6.48968e-06
1.30009e-06
-6.30097e-06
1.53637e-06
-6.0782e-06
1.77609e-06
-5.81956e-06
2.0166e-06
-5.52352e-06
2.25406e-06
-5.18908e-06
2.48334e-06
-4.81603e-06
2.69782e-06
-4.40535e-06
2.88938e-06
-3.95964e-06
3.0484e-06
-3.48351e-06
3.16389e-06
-2.9841e-06
3.22378e-06
-2.47147e-06
3.21541e-06
-1.9589e-06
3.12611e-06
-1.46303e-06
2.94409e-06
-1.00364e-06
2.6594e-06
-6.03198e-07
2.26489e-06
-2.85972e-07
1.75711e-06
-7.68797e-08
1.13693e-06
4.10433e-07
-6.99519e-08
-3.35707e-07
-2.59784e-07
-9.17486e-07
-5.48292e-07
-1.4063e-06
-9.14257e-07
-1.80233e-06
-1.33739e-06
-2.10875e-06
-1.79905e-06
-2.33105e-06
-2.28269e-06
-2.47652e-06
-2.77415e-06
-2.55372e-06
-3.26173e-06
-2.57179e-06
-3.73611e-06
-2.54002e-06
-4.19012e-06
-2.46738e-06
-4.61852e-06
-2.36222e-06
-5.01771e-06
-2.23203e-06
-5.38543e-06
-2.08335e-06
-5.72045e-06
-1.92168e-06
-6.02237e-06
-1.75152e-06
-6.29136e-06
-1.57641e-06
-6.52798e-06
-1.39899e-06
-6.73302e-06
-1.22112e-06
-6.90737e-06
-1.04396e-06
-7.0519e-06
-8.68097e-07
-7.16742e-06
-6.93617e-07
-7.25453e-06
-5.2022e-07
-7.31368e-06
-3.47304e-07
-7.34504e-06
-1.74059e-07
-7.34854e-06
4.54953e-10
-7.32381e-06
1.77206e-07
-7.27022e-06
3.57127e-07
-7.18688e-06
5.41002e-07
-7.07265e-06
7.29376e-07
-6.9262e-06
9.22451e-07
-6.74606e-06
1.11996e-06
-6.53076e-06
1.32106e-06
-6.27885e-06
1.52418e-06
-5.98916e-06
1.72691e-06
-5.66093e-06
1.92583e-06
-5.29406e-06
2.11647e-06
-4.88943e-06
2.29318e-06
-4.44916e-06
2.44911e-06
-3.97703e-06
2.57627e-06
-3.4788e-06
2.66566e-06
-2.96258e-06
2.70756e-06
-2.43908e-06
2.69191e-06
-1.92181e-06
2.60883e-06
-1.42702e-06
2.4493e-06
-9.73473e-07
2.20586e-06
-5.81961e-07
1.87338e-06
-2.74504e-07
1.44965e-06
-7.3395e-08
9.35825e-07
3.37038e-07
-6.85812e-08
-2.67126e-07
-2.55333e-07
-7.30734e-07
-5.40334e-07
-1.1213e-06
-9.0366e-07
-1.43901e-06
-1.32616e-06
-1.68625e-06
-1.79005e-06
-1.86716e-06
-2.27933e-06
-1.98725e-06
-2.78003e-06
-2.05301e-06
-3.28038e-06
-2.07144e-06
-3.7707e-06
-2.0497e-06
-4.24333e-06
-1.99475e-06
-4.69242e-06
-1.91313e-06
-5.1137e-06
-1.81076e-06
-5.50422e-06
-1.69283e-06
-5.86214e-06
-1.56376e-06
-6.18646e-06
-1.42721e-06
-6.47682e-06
-1.28605e-06
-6.73334e-06
-1.14247e-06
-6.95641e-06
-9.98046e-07
-7.14659e-06
-8.53773e-07
-7.30451e-06
-7.10182e-07
-7.43072e-06
-5.67406e-07
-7.52568e-06
-4.25259e-07
-7.58967e-06
-2.83309e-07
-7.62278e-06
-1.40953e-07
-7.62484e-06
2.51084e-09
-7.59544e-06
1.47814e-07
-7.53396e-06
2.95644e-07
-7.43953e-06
4.46568e-07
-7.3111e-06
6.00948e-07
-7.14751e-06
7.58856e-07
-6.94752e-06
9.1998e-07
-6.70998e-06
1.08352e-06
-6.4339e-06
1.2481e-06
-6.11864e-06
1.41165e-06
-5.76413e-06
1.57131e-06
-5.37104e-06
1.72339e-06
-4.94114e-06
1.86328e-06
-4.47749e-06
1.98546e-06
-3.98481e-06
2.08358e-06
-3.46972e-06
2.15057e-06
-2.94104e-06
2.17888e-06
-2.4099e-06
2.16078e-06
-1.88987e-06
2.08881e-06
-1.39682e-06
1.95624e-06
-9.48622e-07
1.75766e-06
-5.64687e-07
1.48944e-06
-2.65262e-07
1.15022e-06
-7.06067e-08
7.4117e-07
2.66431e-07
-6.75799e-08
-1.99546e-07
-2.52072e-07
-5.46242e-07
-5.34482e-07
-8.38889e-07
-8.95836e-07
-1.07765e-06
-1.31783e-06
-1.26425e-06
-1.78333e-06
-1.40165e-06
-2.27677e-06
-1.49381e-06
-2.78439e-06
-1.5454e-06
-3.29434e-06
-1.56149e-06
-3.79675e-06
-1.54729e-06
-4.28359e-06
-1.50791e-06
-4.74855e-06
-1.44816e-06
-5.18688e-06
-1.37244e-06
-5.59509e-06
-1.28461e-06
-5.97085e-06
-1.188e-06
-6.31269e-06
-1.08537e-06
-6.61983e-06
-9.78906e-07
-6.892e-06
-8.70301e-07
-7.12929e-06
-7.60764e-07
-7.33197e-06
-6.5109e-07
-7.50044e-06
-5.41716e-07
-7.63506e-06
-4.32777e-07
-7.73616e-06
-3.24166e-07
-7.80388e-06
-2.1559e-07
-7.8382e-06
-1.06625e-07
-7.83892e-06
3.22763e-09
-7.80559e-06
1.14486e-07
-7.73758e-06
2.27632e-07
-7.63406e-06
3.43052e-07
-7.49409e-06
4.60972e-07
-7.31663e-06
5.81394e-07
-7.10067e-06
7.04022e-07
-6.84533e-06
8.28189e-07
-6.55002e-06
9.52785e-07
-6.21455e-06
1.07618e-06
-5.8394e-06
1.19616e-06
-5.4259e-06
1.3099e-06
-4.9765e-06
1.41388e-06
-4.495e-06
1.50396e-06
-3.98683e-06
1.57541e-06
-3.45925e-06
1.623e-06
-2.92157e-06
1.6412e-06
-2.38521e-06
1.62441e-06
-1.8637e-06
1.5673e-06
-1.37255e-06
1.4651e-06
-9.28918e-07
1.31402e-06
-5.51122e-07
1.11165e-06
-2.58056e-07
8.57157e-07
-6.84448e-08
5.51559e-07
1.97987e-07
-6.68813e-08
-1.32665e-07
-2.49792e-07
-3.63331e-07
-5.30381e-07
-5.583e-07
-8.90338e-07
-7.17696e-07
-1.31196e-06
-8.42633e-07
-1.77859e-06
-9.35024e-07
-2.27497e-06
-9.9743e-07
-2.78749e-06
-1.03288e-06
-3.30431e-06
-1.04466e-06
-3.81541e-06
-1.03619e-06
-4.31251e-06
-1.0108e-06
-4.789e-06
-9.71672e-07
-5.23974e-06
-9.21695e-07
-5.6609e-06
-8.63448e-07
-6.04976e-06
-7.99146e-07
-6.40449e-06
-7.30632e-07
-6.72401e-06
-6.59388e-07
-7.00776e-06
-5.86554e-07
-7.25556e-06
-5.12957e-07
-7.46751e-06
-4.39148e-07
-7.64379e-06
-3.65436e-07
-7.78464e-06
-2.91928e-07
-7.89023e-06
-2.18568e-07
-7.96065e-06
-1.45177e-07
-7.99579e-06
-7.14849e-08
-7.99538e-06
2.8255e-09
-7.95898e-06
7.8085e-08
-7.88595e-06
1.54598e-07
-7.7755e-06
2.32604e-07
-7.62676e-06
3.1223e-07
-7.43882e-06
3.93451e-07
-7.21083e-06
4.76041e-07
-6.94217e-06
5.59523e-07
-6.6325e-06
6.4312e-07
-6.28203e-06
7.2571e-07
-5.89166e-06
8.05787e-07
-5.46319e-06
8.81427e-07
-4.99959e-06
9.50279e-07
-4.5052e-06
1.00958e-06
-3.98597e-06
1.05617e-06
-3.4496e-06
1.08663e-06
-2.90573e-06
1.09733e-06
-2.36595e-06
1.08463e-06
-1.84373e-06
1.04509e-06
-1.3543e-06
9.75659e-07
-9.14234e-07
8.73964e-07
-5.41086e-07
7.38499e-07
-2.52753e-07
5.68824e-07
-6.68603e-08
3.65667e-07
1.31126e-07
-6.64394e-08
-6.62252e-08
-2.48348e-07
-1.81422e-07
-5.27779e-07
-2.78869e-07
-8.86845e-07
-3.58631e-07
-1.30822e-06
-4.21256e-07
-1.77556e-06
-4.67685e-07
-2.27382e-06
-4.99173e-07
-2.78949e-06
-5.17208e-07
-3.31074e-06
-5.23415e-07
-3.82745e-06
-5.19474e-07
-4.33122e-06
-5.07039e-07
-4.81521e-06
-4.87683e-07
-5.27405e-06
-4.62848e-07
-5.70368e-06
-4.33818e-07
-6.10113e-06
-4.01699e-07
-6.46434e-06
-3.67417e-07
-6.79202e-06
-3.31717e-07
-7.0834e-06
-2.95172e-07
-7.33815e-06
-2.58205e-07
-7.5562e-06
-2.21093e-07
-7.73764e-06
-1.83999e-07
-7.88259e-06
-1.46981e-07
-7.99114e-06
-1.10016e-07
-8.0633e-06
-7.30176e-08
-8.09893e-06
-3.58568e-08
-8.09772e-06
1.6213e-09
-8.05922e-06
3.95775e-08
-7.98278e-06
7.81589e-08
-7.86765e-06
1.17479e-07
-7.71302e-06
1.57594e-07
-7.51805e-06
1.98485e-07
-7.28204e-06
2.4003e-07
-7.0045e-06
2.81978e-07
-6.68531e-06
3.23933e-07