/*--------------------------------*- C++ -*----------------------------------*\
  =========                 |
  \\      /  F ield         | OpenFOAM: The Open Source CFD Toolbox
   \\    /   O peration     | Website:  https://openfoam.org
    \\  /    A nd           | Version:  7
     \\/     M anipulation  |
\*---------------------------------------------------------------------------*/
FoamFile
{
    version     2.0;
    format      ascii;
    class       volVectorField;
    location    "0.0328";
    object      U;
}
// * * * * * * * * * * * * * * * * * * * * * * * * * * * * * * * * * * * * * //

dimensions      [0 1 -1 0 0 0 0];

internalField   nonuniform List<vector> 
2500
(
(0.290256 -0.152417 0)
(0.38955 -0.12824 0)
(0.56544 -0.0747347 0)
(0.683255 -0.0422269 0)
(0.752817 -0.0245184 0)
(0.797781 -0.0148712 0)
(0.828884 -0.00955859 0)
(0.851279 -0.00653135 0)
(0.868 -0.0047046 0)
(0.880871 -0.00352821 0)
(0.891004 -0.00272378 0)
(0.899111 -0.00214569 0)
(0.905672 -0.00171391 0)
(0.911026 -0.00138186 0)
(0.915417 -0.00112075 0)
(0.919031 -0.000911801 0)
(0.922007 -0.000742124 0)
(0.924454 -0.000602505 0)
(0.926458 -0.000486117 0)
(0.928085 -0.000387735 0)
(0.929388 -0.000303243 0)
(0.930408 -0.000229299 0)
(0.931174 -0.000163108 0)
(0.931711 -0.000102256 0)
(0.932032 -4.45795e-05 0)
(0.932145 1.19253e-05 0)
(0.932053 6.91501e-05 0)
(0.931749 0.000129108 0)
(0.931222 0.000193859 0)
(0.930452 0.000265671 0)
(0.929413 0.000347149 0)
(0.928068 0.000441396 0)
(0.926369 0.000552239 0)
(0.924255 0.000684552 0)
(0.921646 0.000844745 0)
(0.918442 0.00104151 0)
(0.914509 0.00128706 0)
(0.909672 0.00159915 0)
(0.903694 0.00200485 0)
(0.896249 0.00254761 0)
(0.886868 0.00330145 0)
(0.874857 0.00440066 0)
(0.859125 0.00610392 0)
(0.837871 0.008932 0)
(0.808038 0.0139449 0)
(0.764355 0.0232348 0)
(0.695887 0.040764 0)
(0.577944 0.0737445 0)
(0.398059 0.128747 0)
(0.293874 0.15379 0)
(0.00109164 -0.294905 0)
(0.0168692 -0.298626 0)
(0.152317 -0.213005 0)
(0.282795 -0.145276 0)
(0.387861 -0.0995527 0)
(0.470931 -0.0696903 0)
(0.536164 -0.0503081 0)
(0.587416 -0.0374844 0)
(0.628039 -0.0287076 0)
(0.660597 -0.0224755 0)
(0.686963 -0.0178973 0)
(0.708501 -0.0144339 0)
(0.726218 -0.0117494 0)
(0.740867 -0.00962663 0)
(0.75302 -0.00792015 0)
(0.763121 -0.00652909 0)
(0.771515 -0.00538106 0)
(0.778477 -0.00442255 0)
(0.784223 -0.00361282 0)
(0.788926 -0.00292004 0)
(0.792723 -0.00231866 0)
(0.795723 -0.00178758 0)
(0.798007 -0.00130891 0)
(0.799636 -0.000867002 0)
(0.80065 -0.000447713 0)
(0.801071 -3.78031e-05 0)
(0.800904 0.000375554 0)
(0.800137 0.000805414 0)
(0.798737 0.00126547 0)
(0.796656 0.0017707 0)
(0.793821 0.00233813 0)
(0.790136 0.00298781 0)
(0.785477 0.0037441 0)
(0.779684 0.00463754 0)
(0.77255 0.00570751 0)
(0.763817 0.00700617 0)
(0.753149 0.00860465 0)
(0.740111 0.0106027 0)
(0.724133 0.0131447 0)
(0.704455 0.0164467 0)
(0.680046 0.0208447 0)
(0.649485 0.0268805 0)
(0.61079 0.0354592 0)
(0.561187 0.048133 0)
(0.496939 0.0675613 0)
(0.413579 0.098048 0)
(0.3062 0.145705 0)
(0.170471 0.217259 0)
(0.0268937 0.307185 0)
(0.00518815 0.303018 0)
(-0.0329147 -0.250411 0)
(-0.0615949 -0.34404 0)
(-0.0115509 -0.31052 0)
(0.0706442 -0.251363 0)
(0.158574 -0.195735 0)
(0.240853 -0.151062 0)
(0.313124 -0.117268 0)
(0.374706 -0.0920909 0)
(0.426506 -0.0732369 0)
(0.469887 -0.0589279 0)
(0.506198 -0.0478902 0)
(0.536625 -0.0392344 0)
(0.562162 -0.0323411 0)
(0.583622 -0.0267753 0)
(0.601668 -0.022226 0)
(0.616838 -0.0184662 0)
(0.62957 -0.0153269 0)
(0.640219 -0.012679 0)
(0.649077 -0.010422 0)
(0.656379 -0.00847555 0)
(0.662315 -0.00677403 0)
(0.667037 -0.00526245 0)
(0.67066 -0.00389349 0)
(0.67327 -0.00262533 0)
(0.674927 -0.00141978 0)
(0.675662 -0.000240895 0)
(0.675481 0.000946467 0)
(0.674365 0.00217785 0)
(0.67227 0.00349064 0)
(0.669123 0.00492556 0)
(0.664819 0.00652856 0)
(0.659221 0.00835319 0)
(0.652151 0.0104638 0)
(0.643382 0.0129398 0)
(0.632632 0.0158818 0)
(0.619544 0.0194204 0)
(0.603674 0.0237288 0)
(0.584466 0.029042 0)
(0.561216 0.0356859 0)
(0.533042 0.044121 0)
(0.498835 0.0550098 0)
(0.457228 0.0693166 0)
(0.406597 0.0884447 0)
(0.345183 0.114392 0)
(0.271548 0.149806 0)
(0.185814 0.19745 0)
(0.0920044 0.25786 0)
(0.00172717 0.323181 0)
(-0.0569655 0.361488 0)
(-0.0321726 0.263989 0)
(-0.0267713 -0.190636 0)
(-0.0654592 -0.33295 0)
(-0.0646829 -0.351304 0)
(-0.0278112 -0.318878 0)
(0.0290573 -0.27144 0)
(0.0928452 -0.224727 0)
(0.155859 -0.184223 0)
(0.214312 -0.150846 0)
(0.2667 -0.123868 0)
(0.312742 -0.102161 0)
(0.352749 -0.0846445 0)
(0.387277 -0.0704179 0)
(0.416948 -0.0587723 0)
(0.442367 -0.0491608 0)
(0.464083 -0.0411635 0)
(0.482582 -0.0344559 0)
(0.498283 -0.028785 0)
(0.511545 -0.0239504 0)
(0.522669 -0.0197908 0)
(0.531907 -0.0161741 0)
(0.539468 -0.0129897 0)
(0.54552 -0.0101431 0)
(0.550193 -0.00755173 0)
(0.553585 -0.00514159 0)
(0.555763 -0.00284431 0)
(0.556762 -0.000594956 0)
(0.556588 0.00167019 0)
(0.555218 0.00401577 0)
(0.552597 0.00650957 0)
(0.548638 0.00922508 0)
(0.543218 0.0122445 0)
(0.536178 0.0156625 0)
(0.527312 0.0195912 0)
(0.516366 0.0241663 0)
(0.503025 0.0295561 0)
(0.486912 0.0359731 0)
(0.467567 0.0436903 0)
(0.444444 0.0530634 0)
(0.416899 0.0645609 0)
(0.384195 0.0788031 0)
(0.34552 0.0966093 0)
(0.300062 0.119041 0)
(0.247189 0.147409 0)
(0.186804 0.183147 0)
(0.120063 0.227327 0)
(0.0506278 0.279274 0)
(-0.0134657 0.333242 0)
(-0.0580048 0.371934 0)
(-0.0647403 0.355787 0)
(-0.0272947 0.20478 0)
(-0.0178552 -0.149166 0)
(-0.0531799 -0.302781 0)
(-0.0738652 -0.354502 0)
(-0.0670945 -0.349612 0)
(-0.0382742 -0.318678 0)
(0.00338803 -0.279085 0)
(0.0506886 -0.239428 0)
(0.0988785 -0.203332 0)
(0.145129 -0.171914 0)
(0.187952 -0.145145 0)
(0.22671 -0.122551 0)
(0.261262 -0.103534 0)
(0.291742 -0.0875132 0)
(0.318419 -0.0739792 0)
(0.34162 -0.0625 0)
(0.361679 -0.0527166 0)
(0.37892 -0.0443323 0)
(0.393639 -0.0371004 0)
(0.406098 -0.0308147 0)
(0.416528 -0.0253003 0)
(0.425122 -0.0204068 0)
(0.432041 -0.0160028 0)
(0.437413 -0.0119706 0)
(0.441333 -0.00820338 0)
(0.443866 -0.00460088 0)
(0.445045 -0.00106709 0)
(0.444874 0.00249278 0)
(0.443326 0.00617502 0)
(0.440342 0.0100804 0)
(0.435829 0.0143173 0)
(0.429659 0.019006 0)
(0.421667 0.0242826 0)
(0.411648 0.0303054 0)
(0.399353 0.0372619 0)
(0.384484 0.0453782 0)
(0.366698 0.05493 0)
(0.345603 0.0662576 0)
(0.320765 0.0797823 0)
(0.29173 0.0960239 0)
(0.258062 0.115615 0)
(0.21942 0.139299 0)
(0.175709 0.167884 0)
(0.127322 0.202093 0)
(0.0755598 0.242202 0)
(0.0232197 0.287234 0)
(-0.0246308 0.333368 0)
(-0.059974 0.371056 0)
(-0.072237 0.380702 0)
(-0.0544249 0.327898 0)
(-0.0186579 0.162405 0)
(-0.0114416 -0.12086 0)
(-0.0403773 -0.269644 0)
(-0.0681814 -0.339507 0)
(-0.0784421 -0.356318 0)
(-0.0700337 -0.34266 0)
(-0.0477406 -0.314052 0)
(-0.0167366 -0.279893 0)
(0.0187238 -0.245343 0)
(0.0555401 -0.212935 0)
(0.0916627 -0.18371 0)
(0.125852 -0.157915 0)
(0.157432 -0.135413 0)
(0.186101 -0.115897 0)
(0.21179 -0.099011 0)
(0.234572 -0.0844006 0)
(0.254593 -0.0717382 0)
(0.27204 -0.06073 0)
(0.287108 -0.0511169 0)
(0.299989 -0.042671 0)
(0.310862 -0.035191 0)
(0.319884 -0.0284977 0)
(0.32719 -0.02243 0)
(0.332888 -0.0168405 0)
(0.337061 -0.0115922 0)
(0.339764 -0.00655522 0)
(0.341025 -0.00160355 0)
(0.340841 0.00338794 0)
(0.339184 0.0085465 0)
(0.335993 0.0140048 0)
(0.33118 0.0199047 0)
(0.324623 0.026401 0)
(0.316169 0.0336666 0)
(0.305634 0.0418975 0)
(0.292802 0.05132 0)
(0.277428 0.0621974 0)
(0.259248 0.0748382 0)
(0.237987 0.0896038 0)
(0.213385 0.106913 0)
(0.185235 0.127238 0)
(0.153451 0.151088 0)
(0.11817 0.178948 0)
(0.0799192 0.211155 0)
(0.0398486 0.247643 0)
(4.51075e-05 0.287459 0)
(-0.0361331 0.327925 0)
(-0.0638531 0.363285 0)
(-0.0770179 0.382774 0)
(-0.0697344 0.368548 0)
(-0.0424178 0.294877 0)
(-0.0122007 0.132856 0)
(-0.00749261 -0.100792 0)
(-0.0305841 -0.239177 0)
(-0.0590546 -0.317118 0)
(-0.0777794 -0.348806 0)
(-0.0826524 -0.349812 0)
(-0.0751791 -0.332637 0)
(-0.0583659 -0.306052 0)
(-0.0353597 -0.275684 0)
(-0.0088789 -0.244874 0)
(0.01899 -0.215451 0)
(0.0467698 -0.188301 0)
(0.0734813 -0.163759 0)
(0.0985204 -0.141848 0)
(0.121551 -0.122428 0)
(0.142418 -0.105283 0)
(0.16109 -0.0901678 0)
(0.177607 -0.0768328 0)
(0.192054 -0.0650385 0)
(0.204537 -0.0545599 0)
(0.215167 -0.0451879 0)
(0.224051 -0.0367287 0)
(0.231286 -0.029002 0)
(0.236952 -0.0218383 0)
(0.241111 -0.0150768 0)
(0.243802 -0.00856243 0)
(0.245043 -0.00214299 0)
(0.244828 0.00433342 0)
(0.243125 0.0110215 0)
(0.23988 0.0180819 0)
(0.235012 0.0256846 0)
(0.228417 0.0340126 0)
(0.219966 0.043266 0)
(0.209512 0.0536659 0)
(0.196893 0.0654591 0)
(0.181939 0.0789212 0)
(0.164488 0.0943588 0)
(0.144408 0.112107 0)
(0.121625 0.13252 0)
(0.0961827 0.155946 0)
(0.0683079 0.182674 0)
(0.0385193 0.212839 0)
(0.00776421 0.246243 0)
(-0.0224137 0.282061 0)
(-0.049709 0.318362 0)
(-0.0709816 0.351407 0)
(-0.0824466 0.37471 0)
(-0.080321 0.378031 0)
(-0.0624316 0.346811 0)
(-0.0328868 0.263215 0)
(-0.0081476 0.11144 0)
(-0.00516074 -0.0860423 0)
(-0.0237074 -0.212648 0)
(-0.050372 -0.292564 0)
(-0.0726579 -0.333409 0)
(-0.085568 -0.345568 0)
(-0.0886196 -0.338556 0)
(-0.0830969 -0.319878 0)
(-0.0709778 -0.294934 0)
(-0.0543241 -0.267342 0)
(-0.0349452 -0.239387 0)
(-0.014281 -0.212417 0)
(0.00659432 -0.187164 0)
(0.0269221 -0.163961 0)
(0.0461943 -0.142901 0)
(0.0640926 -0.123932 0)
(0.0804361 -0.106919 0)
(0.0951398 -0.091687 0)
(0.108183 -0.0780403 0)
(0.119585 -0.0657779 0)
(0.129387 -0.0547003 0)
(0.137643 -0.044613 0)
(0.144405 -0.0353277 0)
(0.149719 -0.0266624 0)
(0.153623 -0.0184396 0)
(0.156138 -0.0104858 0)
(0.157271 -0.00262828 0)
(0.157011 0.0053061 0)
(0.155326 0.0134939 0)
(0.15217 0.0221175 0)
(0.147475 0.0313677 0)
(0.141161 0.0414466 0)
(0.133135 0.0525698 0)
(0.123294 0.0649686 0)
(0.111541 0.0788909 0)
(0.0977894 0.0945998 0)
(0.0819871 0.112368 0)
(0.0641398 0.132467 0)
(0.0443491 0.155141 0)
(0.0228638 0.180565 0)
(0.000146544 0.208772 0)
(-0.0230427 0.239531 0)
(-0.0455539 0.272158 0)
(-0.0657631 0.305234 0)
(-0.0815413 0.336208 0)
(-0.0903655 0.360895 0)
(-0.0897017 0.372942 0)
(-0.0777421 0.363484 0)
(-0.0547143 0.321381 0)
(-0.026051 0.234781 0)
(-0.00572478 0.0953543 0)
(-0.00376585 -0.0747388 0)
(-0.0189534 -0.189818 0)
(-0.0431508 -0.268232 0)
(-0.0664333 -0.314022 0)
(-0.0839197 -0.334018 0)
(-0.0941044 -0.335246 0)
(-0.0970986 -0.323816 0)
(-0.0939028 -0.304543 0)
(-0.085892 -0.280962 0)
(-0.0744639 -0.255527 0)
(-0.0608596 -0.229859 0)
(-0.0460972 -0.20497 0)
(-0.030967 -0.18145 0)
(-0.0160545 -0.159597 0)
(-0.0017759 -0.139521 0)
(0.0115863 -0.12121 0)
(0.0238508 -0.104575 0)
(0.03491 -0.0894785 0)
(0.0447082 -0.07576 0)
(0.0532237 -0.0632424 0)
(0.060456 -0.0517427 0)
(0.066415 -0.0410753 0)
(0.0711141 -0.0310542 0)
(0.0745639 -0.0214939 0)
(0.0767687 -0.0122092 0)
(0.0777233 -0.00301397 0)
(0.077412 0.0062797 0)
(0.0758072 0.0158633 0)
(0.0728706 0.0259334 0)
(0.0685543 0.0366931 0)
(0.0628041 0.0483533 0)
(0.055564 0.0611333 0)
(0.0467841 0.0752598 0)
(0.0364303 0.0909641 0)
(0.0244995 0.108476 0)
(0.0110395 0.128011 0)
(-0.00382361 0.14975 0)
(-0.0198511 0.173805 0)
(-0.036647 0.200165 0)
(-0.0536076 0.228608 0)
(-0.069867 0.258583 0)
(-0.0842537 0.28903 0)
(-0.095279 0.318146 0)
(-0.101201 0.343098 0)
(-0.10023 0.359713 0)
(-0.0909596 0.362258 0)
(-0.0730078 0.343484 0)
(-0.0479266 0.295192 0)
(-0.0212362 0.209694 0)
(-0.00425838 0.0827733 0)
(-0.00290002 -0.0657062 0)
(-0.0156331 -0.17006 0)
(-0.0374306 -0.245081 0)
(-0.0604721 -0.292889 0)
(-0.0803862 -0.317974 0)
(-0.0952482 -0.325454 0)
(-0.104456 -0.320161 0)
(-0.108288 -0.306205 0)
(-0.107522 -0.286827 0)
(-0.103128 -0.26445 0)
(-0.0960774 -0.240803 0)
(-0.0872442 -0.217067 0)
(-0.0773631 -0.194009 0)
(-0.0670227 -0.172094 0)
(-0.0566765 -0.151572 0)
(-0.0466627 -0.132543 0)
(-0.0372247 -0.115008 0)
(-0.0285328 -0.0988945 0)
(-0.0207013 -0.0840884 0)
(-0.0138042 -0.070445 0)
(-0.0078874 -0.0578015 0)
(-0.00297893 -0.0459834 0)
(0.000903826 -0.034809 0)
(0.00374805 -0.0240923 0)
(0.00554139 -0.0136435 0)
(0.00626902 -0.00327017 0)
(0.00591213 0.00722339 0)
(0.00444744 0.0180362 0)
(0.00184807 0.0293712 0)
(-0.00191438 0.0414349 0)
(-0.00686589 0.0544375 0)
(-0.0130242 0.0685905 0)
(-0.0203908 0.0841035 0)
(-0.0289396 0.101177 0)
(-0.0386017 0.119993 0)
(-0.0492463 0.140696 0)
(-0.0606567 0.163365 0)
(-0.0725009 0.187976 0)
(-0.0842998 0.214339 0)
(-0.0953949 0.242019 0)
(-0.104924 0.270216 0)
(-0.11182 0.297624 0)
(-0.114847 0.322253 0)
(-0.112722 0.341246 0)
(-0.104345 0.350731 0)
(-0.0891882 0.345795 0)
(-0.0677892 0.32072 0)
(-0.0423035 0.269609 0)
(-0.0177984 0.187546 0)
(-0.00333352 0.07254 0)
(-0.00233821 -0.0582199 0)
(-0.0132685 -0.152741 0)
(-0.0329743 -0.22338 0)
(-0.0552429 -0.271232 0)
(-0.0763044 -0.299272 0)
(-0.0941508 -0.311216 0)
(-0.107793 -0.31083 0)
(-0.117018 -0.301524 0)
(-0.122138 -0.286158 0)
(-0.12374 -0.266998 0)
(-0.122515 -0.245761 0)
(-0.119155 -0.223697 0)
(-0.114286 -0.201678 0)
(-0.108449 -0.180287 0)
(-0.102088 -0.159883 0)
(-0.0955573 -0.140662 0)
(-0.0891307 -0.122703 0)
(-0.0830163 -0.106 0)
(-0.0773682 -0.0904867 0)
(-0.072299 -0.0760543 0)
(-0.0678898 -0.0625659 0)
(-0.0641992 -0.0498646 0)
(-0.0612697 -0.0377794 0)
(-0.0591339 -0.0261299 0)
(-0.0578177 -0.0147288 0)
(-0.0573434 -0.00338349 0)
(-0.057731 0.00810238 0)
(-0.0589986 0.0199284 0)
(-0.0611607 0.0322962 0)
(-0.0642263 0.0454079 0)
(-0.0681943 0.0594642 0)
(-0.0730477 0.0746596 0)
(-0.0787449 0.091177 0)
(-0.0852093 0.109178 0)
(-0.0923154 0.128787 0)
(-0.0998724 0.150072 0)
(-0.107604 0.173013 0)
(-0.115131 0.197461 0)
(-0.121946 0.223076 0)
(-0.127405 0.249256 0)
(-0.130727 0.27504 0)
(-0.131019 0.298994 0)
(-0.127346 0.3191 0)
(-0.118865 0.33265 0)
(-0.105048 0.336215 0)
(-0.0859969 0.325728 0)
(-0.0627787 0.296781 0)
(-0.037726 0.24519 0)
(-0.01528 0.167843 0)
(-0.0027195 0.0639415 0)
(-0.00195753 -0.0518226 0)
(-0.0115475 -0.137332 0)
(-0.0295113 -0.203101 0)
(-0.0508317 -0.249682 0)
(-0.0723033 -0.279073 0)
(-0.0920012 -0.293983 0)
(-0.108758 -0.297327 0)
(-0.122054 -0.291892 0)
(-0.131856 -0.280132 0)
(-0.138439 -0.264095 0)
(-0.14224 -0.245405 0)
(-0.143759 -0.225308 0)
(-0.143495 -0.204722 0)
(-0.141907 -0.184296 0)
(-0.139399 -0.164466 0)
(-0.13631 -0.145502 0)
(-0.132919 -0.127549 0)
(-0.129449 -0.110657 0)
(-0.126076 -0.0948048 0)
(-0.122937 -0.0799223 0)
(-0.120137 -0.0659001 0)
(-0.117757 -0.0526023 0)
(-0.115858 -0.0398731 0)
(-0.114488 -0.0275432 0)
(-0.113682 -0.015433 0)
(-0.113467 -0.00335581 0)
(-0.113863 0.00887955 0)
(-0.114882 0.0214668 0)
(-0.116525 0.0345999 0)
(-0.118786 0.0484696 0)
(-0.121637 0.0632602 0)
(-0.125033 0.0791428 0)
(-0.128897 0.0962674 0)
(-0.133114 0.114751 0)
(-0.13752 0.134661 0)
(-0.141887 0.155991 0)
(-0.145911 0.178632 0)
(-0.1492 0.202329 0)
(-0.151268 0.226629 0)
(-0.151532 0.250821 0)
(-0.149337 0.273855 0)
(-0.143994 0.294272 0)
(-0.134863 0.310133 0)
(-0.121486 0.318981 0)
(-0.103773 0.317876 0)
(-0.0822413 0.303526 0)
(-0.0582221 0.272585 0)
(-0.0339974 0.222107 0)
(-0.0133811 0.150145 0)
(-0.00229042 0.0565302 0)
(-0.00168957 -0.0462154 0)
(-0.0102684 -0.123414 0)
(-0.0268088 -0.184101 0)
(-0.0471767 -0.22854 0)
(-0.0686493 -0.258098 0)
(-0.0894547 -0.274766 0)
(-0.108373 -0.280798 0)
(-0.124703 -0.278448 0)
(-0.138177 -0.269793 0)
(-0.148825 -0.256631 0)
(-0.156868 -0.240455 0)
(-0.162631 -0.222452 0)
(-0.166478 -0.203538 0)
(-0.168776 -0.184388 0)
(-0.169866 -0.165483 0)
(-0.170053 -0.147144 0)
(-0.169601 -0.129566 0)
(-0.16873 -0.112844 0)
(-0.167623 -0.0969987 0)
(-0.166427 -0.0819927 0)
(-0.165262 -0.0677452 0)
(-0.164222 -0.0541427 0)
(-0.163379 -0.041048 0)
(-0.162791 -0.028306 0)
(-0.162499 -0.0157492 0)
(-0.162533 -0.00320157 0)
(-0.16291 0.00951787 0)
(-0.163636 0.0225919 0)
(-0.164701 0.0362012 0)
(-0.166082 0.0505205 0)
(-0.167733 0.0657125 0)
(-0.169584 0.0819211 0)
(-0.171534 0.0992609 0)
(-0.173444 0.117804 0)
(-0.175125 0.137564 0)
(-0.176336 0.158468 0)
(-0.176769 0.180334 0)
(-0.176054 0.202828 0)
(-0.173752 0.225421 0)
(-0.169375 0.247342 0)
(-0.162412 0.26752 0)
(-0.152378 0.284541 0)
(-0.1389 0.296614 0)
(-0.121831 0.301579 0)
(-0.101397 0.296969 0)
(-0.0783674 0.280165 0)
(-0.0541726 0.248649 0)
(-0.0309357 0.200357 0)
(-0.0119093 0.134092 0)
(-0.00197666 0.0500136 0)
(-0.0014949 -0.0411956 0)
(-0.00929991 -0.110667 0)
(-0.0246852 -0.166207 0)
(-0.0441708 -0.207928 0)
(-0.0654296 -0.236787 0)
(-0.0868605 -0.254258 0)
(-0.10726 -0.262091 0)
(-0.125833 -0.262102 0)
(-0.142155 -0.256025 0)
(-0.156077 -0.245416 0)
(-0.167644 -0.23161 0)
(-0.177027 -0.215707 0)
(-0.184467 -0.198584 0)
(-0.190232 -0.180914 0)
(-0.194595 -0.163192 0)
(-0.197813 -0.14577 0)
(-0.20012 -0.128874 0)
(-0.201721 -0.112636 0)
(-0.202794 -0.0971083 0)
(-0.203485 -0.0822832 0)
(-0.203918 -0.0681059 0)
(-0.204193 -0.0544855 0)
(-0.204389 -0.0413039 0)
(-0.204567 -0.0284231 0)
(-0.204771 -0.0156905 0)
(-0.205031 -0.00294421 0)
(-0.20536 0.00998285 0)
(-0.205758 0.0232585 0)
(-0.206205 0.0370466 0)
(-0.206665 0.051502 0)
(-0.207077 0.0667637 0)
(-0.207356 0.0829464 0)
(-0.207385 0.10013 0)
(-0.207011 0.118345 0)
(-0.206038 0.137557 0)
(-0.204228 0.15764 0)
(-0.201293 0.178357 0)
(-0.196901 0.19932 0)
(-0.190685 0.219962 0)
(-0.182262 0.239493 0)
(-0.171268 0.256871 0)
(-0.157408 0.270775 0)
(-0.140533 0.2796 0)
(-0.120735 0.281487 0)
(-0.0984551 0.274403 0)
(-0.0746029 0.256285 0)
(-0.0506079 0.225251 0)
(-0.0283953 0.179862 0)
(-0.0107408 0.119402 0)
(-0.00173848 0.0441927 0)
(-0.00134986 -0.0366218 0)
(-0.00855469 -0.0988451 0)
(-0.0230034 -0.149251 0)
(-0.0417041 -0.187875 0)
(-0.0626473 -0.215399 0)
(-0.0843955 -0.232931 0)
(-0.105796 -0.241832 0)
(-0.126015 -0.243563 0)
(-0.144529 -0.239559 0)
(-0.16106 -0.231152 0)
(-0.175517 -0.219512 0)
(-0.187944 -0.205636 0)
(-0.198469 -0.190339 0)
(-0.207269 -0.174265 0)
(-0.214545 -0.157906 0)
(-0.220501 -0.141622 0)
(-0.225335 -0.12566 0)
(-0.229226 -0.110172 0)
(-0.232336 -0.0952363 0)
(-0.234806 -0.0808688 0)
(-0.236755 -0.0670373 0)
(-0.238282 -0.0536721 0)
(-0.239466 -0.0406745 0)
(-0.240368 -0.0279241 0)
(-0.241033 -0.0152853 0)
(-0.241487 -0.00261249 0)
(-0.24174 0.0102448 0)
(-0.241785 0.023437 0)
(-0.241595 0.0371088 0)
(-0.241123 0.0513935 0)
(-0.2403 0.0664053 0)
(-0.239029 0.0822308 0)
(-0.237187 0.0989175 0)
(-0.234619 0.11646 0)
(-0.231135 0.134785 0)
(-0.226512 0.153728 0)
(-0.220497 0.173014 0)
(-0.21281 0.192228 0)
(-0.203165 0.210791 0)
(-0.191285 0.227934 0)
(-0.176946 0.242675 0)
(-0.160019 0.253815 0)
(-0.140535 0.259948 0)
(-0.118761 0.259503 0)
(-0.0952786 0.250825 0)
(-0.0710608 0.2323 0)
(-0.0474822 0.202529 0)
(-0.0262668 0.160515 0)
(-0.00979477 0.105849 0)
(-0.00155235 0.0389266 0)
(-0.0012396 -0.0323921 0)
(-0.00797362 -0.0877595 0)
(-0.0216617 -0.133083 0)
(-0.0396798 -0.168359 0)
(-0.0602702 -0.194086 0)
(-0.0821418 -0.211103 0)
(-0.104206 -0.220475 0)
(-0.125625 -0.223375 0)
(-0.145814 -0.220988 0)
(-0.164407 -0.214435 0)
(-0.181211 -0.204732 0)
(-0.196164 -0.192762 0)
(-0.209299 -0.179265 0)
(-0.220712 -0.164842 0)
(-0.230534 -0.149963 0)
(-0.238916 -0.134983 0)
(-0.246013 -0.120152 0)
(-0.251978 -0.105636 0)
(-0.256949 -0.0915293 0)
(-0.261054 -0.0778654 0)
(-0.264403 -0.0646312 0)
(-0.267088 -0.0517756 0)
(-0.269186 -0.039218 0)
(-0.270754 -0.0268562 0)
(-0.271833 -0.0145718 0)
(-0.272446 -0.00223699 0)
(-0.272598 0.0102809 0)
(-0.272277 0.0231133 0)
(-0.27145 0.036385 0)
(-0.270062 0.0502073 0)
(-0.26804 0.0646707 0)
(-0.265283 0.0798357 0)
(-0.261669 0.0957219 0)
(-0.257047 0.112295 0)
(-0.251244 0.129453 0)
(-0.244062 0.147006 0)
(-0.235291 0.16466 0)
(-0.224712 0.181994 0)
(-0.212118 0.198443 0)
(-0.197338 0.213281 0)
(-0.180269 0.225611 0)
(-0.16092 0.234368 0)
(-0.139465 0.238345 0)
(-0.116295 0.23623 0)
(-0.0920761 0.22669 0)
(-0.0677955 0.208472 0)
(-0.0447481 0.180539 0)
(-0.02447 0.142203 0)
(-0.00901761 0.0932569 0)
(-0.00140372 0.0341111 0)
(-0.0011545 -0.0284314 0)
(-0.0075159 -0.077264 0)
(-0.0205851 -0.117572 0)
(-0.0380178 -0.149338 0)
(-0.058255 -0.172928 0)
(-0.0801314 -0.188987 0)
(-0.102625 -0.198351 0)
(-0.124911 -0.201959 0)
(-0.146372 -0.200782 0)
(-0.166582 -0.19576 0)
(-0.185272 -0.187761 0)
(-0.202299 -0.177553 0)
(-0.217615 -0.165795 0)
(-0.231243 -0.153034 0)
(-0.243254 -0.139705 0)
(-0.253747 -0.126145 0)
(-0.262836 -0.1126 0)
(-0.270639 -0.0992381 0)
(-0.277274 -0.0861614 0)
(-0.282848 -0.0734164 0)
(-0.287459 -0.0610044 0)
(-0.291191 -0.0488901 0)
(-0.294113 -0.0370097 0)
(-0.296276 -0.0252777 0)
(-0.297716 -0.0135936 0)
(-0.298453 -0.00184702 0)
(-0.298485 0.0100761 0)
(-0.297797 0.0222882 0)
(-0.296349 0.0348942 0)
(-0.294086 0.0479843 0)
(-0.29093 0.0616273 0)
(-0.286783 0.0758611 0)
(-0.281529 0.0906829 0)
(-0.275029 0.106037 0)
(-0.267131 0.121803 0)
(-0.257671 0.137779 0)
(-0.246483 0.153667 0)
(-0.23341 0.169059 0)
(-0.218324 0.183421 0)
(-0.201147 0.196089 0)
(-0.181883 0.206262 0)
(-0.160652 0.213014 0)
(-0.137735 0.215324 0)
(-0.113607 0.212112 0)
(-0.0889826 0.202312 0)
(-0.0648327 0.184957 0)
(-0.0423642 0.159281 0)
(-0.0229467 0.124815 0)
(-0.00837302 0.0814775 0)
(-0.00128326 0.0296669 0)
(-0.00108814 -0.0246831 0)
(-0.00715294 -0.0672434 0)
(-0.0197184 -0.102609 0)
(-0.0366547 -0.130758 0)
(-0.056559 -0.151964 0)
(-0.0783711 -0.166725 0)
(-0.101132 -0.175697 0)
(-0.124038 -0.179631 0)
(-0.146459 -0.179319 0)
(-0.167928 -0.175538 0)
(-0.18812 -0.169019 0)
(-0.206829 -0.160423 0)
(-0.223943 -0.150324 0)
(-0.239425 -0.139205 0)
(-0.253289 -0.127462 0)
(-0.265587 -0.115404 0)
(-0.276394 -0.103262 0)
(-0.285797 -0.0912 0)
(-0.293888 -0.0793219 0)
(-0.300755 -0.067681 0)
(-0.30648 -0.0562888 0)
(-0.311136 -0.0451231 0)
(-0.314783 -0.0341344 0)
(-0.317465 -0.0232532 0)
(-0.319213 -0.0123954 0)
(-0.320039 -0.00146826 0)
(-0.319939 0.00962449 0)
(-0.318892 0.0209768 0)
(-0.316857 0.0326744 0)
(-0.313777 0.0447887 0)
(-0.309576 0.0573693 0)
(-0.304161 0.0704358 0)
(-0.297423 0.0839688 0)
(-0.289243 0.0978993 0)
(-0.279492 0.112098 0)
(-0.268043 0.126361 0)
(-0.254775 0.140403 0)
(-0.23959 0.153839 0)
(-0.222433 0.166184 0)
(-0.203306 0.176843 0)
(-0.182302 0.185118 0)
(-0.159631 0.190221 0)
(-0.135649 0.191299 0)
(-0.110891 0.187474 0)
(-0.086088 0.177902 0)
(-0.0621841 0.161841 0)
(-0.040298 0.138726 0)
(-0.0216555 0.108244 0)
(-0.00783616 0.0703889 0)
(-0.00118483 0.0255306 0)
(-0.00103613 -0.0211031 0)
(-0.00686453 -0.0576054 0)
(-0.0190213 -0.0881 0)
(-0.0355412 -0.112564 0)
(-0.0551442 -0.131205 0)
(-0.0768561 -0.144407 0)
(-0.0997743 -0.152684 0)
(-0.123119 -0.156634 0)
(-0.146257 -0.156894 0)
(-0.168697 -0.154102 0)
(-0.190073 -0.148862 0)
(-0.210132 -0.141732 0)
(-0.228709 -0.133202 0)
(-0.245717 -0.123691 0)
(-0.261123 -0.113545 0)
(-0.274938 -0.103042 0)
(-0.287201 -0.0923917 0)
(-0.297968 -0.0817462 0)
(-0.307306 -0.0712056 0)
(-0.315286 -0.0608254 0)
(-0.321972 -0.0506238 0)
(-0.327425 -0.0405882 0)
(-0.331695 -0.0306817 0)
(-0.334819 -0.0208487 0)
(-0.336821 -0.0110206 0)
(-0.337707 -0.00112107 0)
(-0.33747 0.00892912 0)
(-0.336085 0.0192066 0)
(-0.33351 0.0297799 0)
(-0.329688 0.0407035 0)
(-0.324547 0.0520113 0)
(-0.318001 0.0637091 0)
(-0.309954 0.0757667 0)
(-0.300305 0.0881087 0)
(-0.288951 0.100606 0)
(-0.2758 0.113064 0)
(-0.260776 0.125217 0)
(-0.243835 0.13672 0)
(-0.224984 0.147139 0)
(-0.204295 0.15596 0)
(-0.181934 0.162587 0)
(-0.158176 0.166361 0)
(-0.133437 0.166582 0)
(-0.108285 0.162546 0)
(-0.0834554 0.153593 0)
(-0.0598557 0.139156 0)
(-0.0385246 0.118822 0)
(-0.0205668 0.0923864 0)
(-0.0073899 0.0598852 0)
(-0.00110428 0.0216504 0)
(-0.000995418 -0.0176567 0)
(-0.00663629 -0.0482749 0)
(-0.0184641 -0.0739627 0)
(-0.03464 -0.0946998 0)
(-0.0539795 -0.110644 0)
(-0.0755776 -0.122089 0)
(-0.0985797 -0.129434 0)
(-0.12223 -0.13315 0)
(-0.145899 -0.133742 0)
(-0.169079 -0.131723 0)
(-0.191376 -0.127587 0)
(-0.212501 -0.12179 0)
(-0.232249 -0.114741 0)
(-0.250491 -0.106793 0)
(-0.267157 -0.0982426 0)
(-0.282221 -0.0893279 0)
(-0.29569 -0.0802338 0)
(-0.307595 -0.0710958 0)
(-0.317978 -0.0620056 0)
(-0.326892 -0.0530166 0)
(-0.334387 -0.0441501 0)
(-0.340511 -0.0354006 0)
(-0.345304 -0.0267411 0)
(-0.348794 -0.0181286 0)
(-0.350999 -0.00950851 0)
(-0.351922 -0.000819479 0)
(-0.35155 0.00800198 0)
(-0.349856 0.0170167 0)
(-0.346799 0.026278 0)
(-0.342323 0.0358261 0)
(-0.33636 0.0456826 0)
(-0.328833 0.0558437 0)
(-0.31966 0.066274 0)
(-0.308759 0.0768984 0)
(-0.296051 0.0875949 0)
(-0.281478 0.0981876 0)
(-0.265003 0.10844 0)
(-0.246631 0.118049 0)
(-0.226421 0.126646 0)
(-0.204504 0.133794 0)
(-0.1811 0.138999 0)
(-0.156539 0.141723 0)
(-0.131274 0.141404 0)
(-0.105894 0.137488 0)
(-0.0811303 0.129461 0)
(-0.0578514 0.116899 0)
(-0.0370264 0.0995039 0)
(-0.0196598 0.0771424 0)
(-0.00702233 0.0498728 0)
(-0.00103879 0.0179819 0)
(-0.000963899 -0.0143153 0)
(-0.006458 -0.0391887 0)
(-0.0180252 -0.0601264 0)
(-0.0339232 -0.0771117 0)
(-0.0530403 -0.0902625 0)
(-0.0745264 -0.099801 0)
(-0.0975661 -0.106032 0)
(-0.121426 -0.109316 0)
(-0.145481 -0.110047 0)
(-0.169215 -0.108625 0)
(-0.192216 -0.105442 0)
(-0.214166 -0.100861 0)
(-0.234831 -0.0952128 0)
(-0.254049 -0.0887838 0)
(-0.271719 -0.081817 0)
(-0.287785 -0.0745106 0)
(-0.302227 -0.0670196 0)
(-0.315054 -0.0594594 0)
(-0.326288 -0.0519094 0)
(-0.335964 -0.0444177 0)
(-0.34412 -0.0370058 0)
(-0.350791 -0.0296727 0)
(-0.356008 -0.0223995 0)
(-0.359793 -0.0151538 0)
(-0.362157 -0.00789344 0)
(-0.363098 -0.000570808 0)
(-0.362601 0.00686339 0)
(-0.360637 0.0144559 0)
(-0.357165 0.0222468 0)
(-0.352132 0.0302648 0)
(-0.345474 0.0385224 0)
(-0.337125 0.0470105 0)
(-0.327014 0.0556931 0)
(-0.315077 0.064501 0)
(-0.301259 0.0733263 0)
(-0.28553 0.082017 0)
(-0.267889 0.0903721 0)
(-0.24838 0.0981392 0)
(-0.227106 0.105013 0)
(-0.204243 0.110639 0)
(-0.180057 0.114622 0)
(-0.154914 0.116533 0)
(-0.129294 0.115934 0)
(-0.103798 0.112398 0)
(-0.0791469 0.105539 0)
(-0.0561746 0.0950422 0)
(-0.0357908 0.080695 0)
(-0.01892 0.0624151 0)
(-0.00672521 0.0402661 0)
(-0.000986396 0.0144862 0)
(-0.000940099 -0.0110549 0)
(-0.00632242 -0.0302927 0)
(-0.0176895 -0.0465276 0)
(-0.0333703 -0.0597469 0)
(-0.0523081 -0.070036 0)
(-0.0736944 -0.0775573 0)
(-0.0967447 -0.0825348 0)
(-0.120744 -0.085236 0)
(-0.145073 -0.0859537 0)
(-0.169212 -0.0849891 0)
(-0.192735 -0.0826373 0)
(-0.215305 -0.0791762 0)
(-0.236664 -0.0748585 0)
(-0.256628 -0.0699063 0)
(-0.275069 -0.0645086 0)
(-0.29191 -0.058821 0)
(-0.307109 -0.0529661 0)
(-0.320654 -0.0470363 0)
(-0.332554 -0.0410962 0)
(-0.342827 -0.0351858 0)
(-0.351501 -0.0293242 0)
(-0.358601 -0.023513 0)
(-0.36415 -0.0177394 0)
(-0.368163 -0.0119801 0)
(-0.370646 -0.00620406 0)
(-0.371593 -0.000375829 0)
(-0.370987 0.00554108 0)
(-0.368799 0.011581 0)
(-0.364987 0.0177728 0)
(-0.3595 0.0241359 0)
(-0.352282 0.0306768 0)
(-0.343273 0.0373845 0)
(-0.332413 0.0442266 0)
(-0.319654 0.0511446 0)
(-0.304963 0.0580495 0)
(-0.28833 0.0648183 0)
(-0.269785 0.0712906 0)
(-0.249405 0.0772671 0)
(-0.227325 0.0825097 0)
(-0.203759 0.0867445 0)
(-0.179002 0.0896682 0)
(-0.153449 0.090958 0)
(-0.127599 0.0902858 0)
(-0.102056 0.0873361 0)
(-0.0775311 0.0818273 0)
(-0.0548282 0.0735346 0)
(-0.0348095 0.0623117 0)
(-0.0183374 0.0481091 0)
(-0.00649284 0.0309856 0)
(-0.000945753 0.0111282 0)
(-0.000923004 -0.00785489 0)
(-0.00622453 -0.0215392 0)
(-0.0174459 -0.0331086 0)
(-0.0329668 -0.0425542 0)
(-0.0517695 -0.0499341 0)
(-0.0730755 -0.055359 0)
(-0.0961231 -0.0589822 0)
(-0.120211 -0.0609881 0)
(-0.144727 -0.0615791 0)
(-0.169148 -0.0609646 0)
(-0.193038 -0.0593508 0)
(-0.216049 -0.0569333 0)
(-0.237907 -0.0538902 0)
(-0.258409 -0.0503796 0)
(-0.277411 -0.0465365 0)
(-0.294816 -0.0424724 0)
(-0.310568 -0.0382763 0)
(-0.324642 -0.0340152 0)
(-0.337031 -0.0297368 0)
(-0.347745 -0.025471 0)
(-0.3568 -0.0212329 0)
(-0.364216 -0.0170247 0)
(-0.370008 -0.0128385 0)
(-0.374187 -0.00865848 0)
(-0.376754 -0.00446356 0)
(-0.377701 -0.000229385 0)
(-0.377008 0.0040691 0)
(-0.374646 0.00845532 0)
(-0.370574 0.0129485 0)
(-0.364744 0.017561 0)
(-0.357103 0.0222956 0)
(-0.347598 0.0271424 0)
(-0.336178 0.0320758 0)
(-0.322809 0.0370514 0)
(-0.30747 0.0420033 0)
(-0.290174 0.0468409 0)
(-0.27097 0.0514477 0)
(-0.249958 0.0556798 0)
(-0.227302 0.0593671 0)
(-0.203238 0.0623152 0)
(-0.178085 0.0643103 0)
(-0.152258 0.065127 0)
(-0.126265 0.0645378 0)
(-0.100713 0.0623263 0)
(-0.0763028 0.0583014 0)
(-0.0538152 0.0523125 0)
(-0.0340771 0.0442648 0)
(-0.0179053 0.0341303 0)
(-0.00632139 0.0219556 0)
(-0.000915948 0.00787503 0)
(-0.000911944 -0.00469657 0)
(-0.00616096 -0.0128846 0)
(-0.0172872 -0.0198154 0)
(-0.0327028 -0.0254837 0)
(-0.0514152 -0.0299233 0)
(-0.0726651 -0.0331985 0)
(-0.095706 -0.035399 0)
(-0.119847 -0.0366325 0)
(-0.144478 -0.0370179 0)
(-0.169076 -0.0366787 0)
(-0.193201 -0.0357368 0)
(-0.216494 -0.0343081 0)
(-0.238674 -0.032499 0)
(-0.259525 -0.0304035 0)
(-0.278891 -0.0281029 0)
(-0.296665 -0.0256642 0)
(-0.31278 -0.0231412 0)
(-0.327199 -0.0205747 0)
(-0.33991 -0.0179937 0)
(-0.350913 -0.0154169 0)
(-0.36022 -0.0128536 0)
(-0.367843 -0.0103059 0)
(-0.373795 -0.00776931 0)
(-0.378081 -0.00523489 0)
(-0.380702 -0.00269031 0)
(-0.381646 -0.000121363 0)
(-0.380893 0.00248655 0)
(-0.378413 0.005147 0)
(-0.374166 0.00787098 0)
(-0.368105 0.0106653 0)
(-0.36018 0.0135308 0)
(-0.350344 0.0164608 0)
(-0.338553 0.0194389 0)
(-0.324779 0.0224374 0)
(-0.309014 0.0254159 0)
(-0.291282 0.0283189 0)
(-0.271647 0.0310758 0)
(-0.250226 0.0335998 0)
(-0.227199 0.0357888 0)
(-0.202817 0.0375266 0)
(-0.177416 0.0386863 0)
(-0.15142 0.0391347 0)
(-0.125346 0.0387381 0)
(-0.0998007 0.0373701 0)
(-0.0754761 0.0349199 0)
(-0.0531383 0.0313013 0)
(-0.0335904 0.026461 0)
(-0.0176193 0.020385 0)
(-0.00620834 0.0131029 0)
(-0.000896378 0.00469576 0)
(-0.00090651 -0.00156276 0)
(-0.00612966 -0.00428826 0)
(-0.0172089 -0.00659665 0)
(-0.0325723 -0.00848618 0)
(-0.0512394 -0.0099679 0)
(-0.0724606 -0.011063 0)
(-0.0954968 -0.0118008 0)
(-0.119661 -0.0122169 0)
(-0.144348 -0.0123505 0)
(-0.169031 -0.0122424 0)
(-0.19327 -0.0119328 0)
(-0.216702 -0.0114603 0)
(-0.239039 -0.01086 0)
(-0.260062 -0.0101635 0)
(-0.279607 -0.00939752 0)