/*--------------------------------*- C++ -*----------------------------------*\
  =========                 |
  \\      /  F ield         | OpenFOAM: The Open Source CFD Toolbox
   \\    /   O peration     | Website:  https://openfoam.org
    \\  /    A nd           | Version:  7
     \\/     M anipulation  |
\*---------------------------------------------------------------------------*/
FoamFile
{
    version     2.0;
    format      ascii;
    class       volScalarField;
    location    "0.0086";
    object      p;
}
// * * * * * * * * * * * * * * * * * * * * * * * * * * * * * * * * * * * * * //

dimensions      [0 2 -2 0 0 0 0];

internalField   nonuniform List<scalar> 
2500
(
8.37924e-08
-0.000806024
-0.00220334
-0.00379748
-0.00526503
-0.0063948
-0.007052
-0.00715811
-0.00667341
-0.00558472
-0.00389692
-0.00162705
0.0011997
0.0045528
0.00839815
0.0126993
0.0174181
0.0225151
0.0279499
0.0336811
0.0396664
0.0458626
0.0522259
0.0587117
0.065275
0.0718701
0.078451
0.0849717
0.0913858
0.0976474
0.10371
0.10953
0.11506
0.120256
0.125076
0.129477
0.133417
0.136857
0.139761
0.142096
0.143837
0.144965
0.145476
0.145385
0.144733
0.143601
0.142128
0.140528
0.139128
0.138321
0.000796547
-1.07178e-05
-0.00109295
-0.00225465
-0.00329893
-0.00406396
-0.00443609
-0.0043411
-0.0037344
-0.00259391
-0.000914482
0.00129659
0.00402296
0.00724167
0.010925
0.0150415
0.0195574
0.0244365
0.0296411
0.0351319
0.0408686
0.0468095
0.0529124
0.059134
0.0654305
0.0717575
0.0780704
0.0843244
0.0904746
0.0964764
0.102286
0.107858
0.113152
0.118124
0.122734
0.126943
0.130715
0.134015
0.136814
0.139088
0.140818
0.141998
0.142632
0.142744
0.14238
0.141617
0.140571
0.139406
0.138322
0.137515
0.00218298
0.0010591
-2.97209e-05
-0.00104618
-0.00190688
-0.00249144
-0.00270858
-0.002496
-0.00181287
-0.00063612
0.00104277
0.00322089
0.00588648
0.00902098
0.0126005
0.0165972
0.02098
0.025715
0.0307666
0.0360971
0.0416675
0.0474377
0.0533661
0.0594107
0.0655286
0.0716763
0.0778101
0.0838861
0.0898605
0.0956895
0.10133
0.10674
0.111878
0.116703
0.121177
0.125264
0.128929
0.132143
0.13488
0.137119
0.138848
0.140063
0.140774
0.141004
0.140795
0.140214
0.139351
0.138332
0.13724
0.136113
0.00378935
0.00221873
0.000959837
-7.38733e-05
-0.000893157
-0.00141034
-0.00155519
-0.0012801
-0.000552198
0.000648306
0.00232945
0.00448945
0.00711851
0.0102003
0.0137134
0.017632
0.0219269
0.0265662
0.0315154
0.0367384
0.0421971
0.0478522
0.0536631
0.0595886
0.0655863
0.0716135
0.0776272
0.083584
0.0894409
0.095155
0.100684
0.105986
0.111022
0.115751
0.120137
0.124146
0.127745
0.130906
0.133606
0.135827
0.137558
0.138797
0.139552
0.139844
0.139707
0.139191
0.138369
0.137331
0.136067
0.134491
0.00531214
0.00328482
0.00180356
0.000683735
-0.000161255
-0.000668703
-0.000786314
-0.000480602
0.000272541
0.00148815
0.00317212
0.0053222
0.00792914
0.0109778
0.0144479
0.0183152
0.022552
0.0271272
0.0320078
0.0371584
0.0425418
0.0481194
0.0538514
0.0596967
0.0656138
0.0715604
0.0774939
0.0833714
0.0891503
0.0947884
0.100244
0.105476
0.110444
0.115112
0.119442
0.123402
0.12696
0.130089
0.132769
0.134981
0.136715
0.137969
0.138748
0.13907
0.138959
0.138452
0.137602
0.136475
0.134987
0.132953
0.00655592
0.00410546
0.00238803
0.00114482
0.000231788
-0.000305689
-0.000429211
-0.000117364
0.000645702
0.00186988
0.00355808
0.00570658
0.0083057
0.0113404
0.0147912
0.0186344
0.0228429
0.0273867
0.0322333
0.0373479
0.0426938
0.0482329
0.0539256
0.0597316
0.0656092
0.0715166
0.0774113
0.0832508
0.0889928
0.0945951
0.100016
0.105216
0.110155
0.114795
0.119101
0.123041
0.126583
0.129702
0.132377
0.134589
0.136329
0.137592
0.138381
0.138708
0.13859
0.13805
0.13713
0.135877
0.134151
0.131693
0.00739714
0.00457232
0.00262415
0.0012398
0.000233635
-0.000359832
-0.00051211
-0.000211374
0.000551109
0.00178033
0.00347594
0.00563222
0.00823835
0.0112789
0.0147341
0.0185805
0.0227913
0.0273367
0.0321844
0.0373001
0.0426471
0.0481876
0.0538821
0.0596903
0.0655707
0.0714813
0.0773798
0.0832237
0.0889706
0.0945783
0.100005
0.105211
0.110157
0.114805
0.11912
0.123069
0.126621
0.129752
0.132437
0.134661
0.136411
0.13768
0.138469
0.138784
0.138635
0.138037
0.137021
0.135625
0.133666
0.130833
0.0077614
0.00461061
0.00244621
0.00091607
-0.000195237
-0.000859163
-0.00105372
-0.000774246
-1.77679e-05
0.00121641
0.00292478
0.00509941
0.00772802
0.0107942
0.0142776
0.0181544
0.0223976
0.0269774
0.0318613
0.0370148
0.0424014
0.047983
0.05372
0.0595719
0.0654971
0.0714533
0.0773981
0.0832885
0.0890819
0.094736
0.100209
0.10546
0.11045
0.11514
0.119496
0.123483
0.127071
0.130234
0.132948
0.135195
0.136961
0.138237
0.139021
0.139314
0.139121
0.13845
0.137326
0.135781
0.133604
0.130445
0.00760498
0.00416824
0.00180362
0.000129481
-0.00109125
-0.0018325
-0.00207609
-0.00182247
-0.00107308
0.000169192
0.00189799
0.00410317
0.00677076
0.00988307
0.0134188
0.0173535
0.0216596
0.0263066
0.0312617
0.0364901
0.0419548
0.0476173
0.0534377
0.0593749
0.065387
0.0714314
0.0774648
0.0834441
0.089326
0.0950676
0.100626
0.105961
0.111032
0.1158
0.120228
0.124283
0.127933
0.131151
0.133911
0.136195
0.137986
0.139273
0.140051
0.140318
0.140074
0.139323
0.138087
0.136395
0.134016
0.130571
0.00690216
0.00320818
0.000656611
-0.00115775
-0.00248835
-0.00330927
-0.00360414
-0.00337685
-0.00263213
-0.00137576
0.0003834
0.00263307
0.00535752
0.00853758
0.0121508
0.0161715
0.0205713
0.025319
0.030381
0.0357216
0.0413034
0.0470872
0.0530323
0.059097
0.0652388
0.0714142
0.0775794
0.0836904
0.0897031
0.0955738
0.101259
0.106717
0.111906
0.116787
0.121321
0.125474
0.129213
0.132509
0.135336
0.137671
0.139498
0.140804
0.141579
0.141819
0.141523
0.14069
0.13934
0.137505
0.134937
0.131233
0.00563688
0.00170267
-0.00102732
-0.00297866
-0.00441826
-0.00531879
-0.00566429
-0.00546086
-0.00471562
-0.00343669
-0.0016351
0.000674839
0.00347557
0.00674632
0.0104631
0.0145991
0.0191245
0.0240072
0.0292124
0.0347036
0.0404422
0.0463882
0.0525
0.0587351
0.0650499
0.0714001
0.0777409
0.0840272
0.0902139
0.0962562
0.10211
0.10773
0.113076
0.118106
0.122781
0.127064
0.130921
0.13432
0.137234
0.139639
0.141515
0.142848
0.143627
0.143844
0.143495
0.14258
0.141118
0.139142
0.136392
0.132447
0.00379703
-0.000371381
-0.00327666
-0.00536373
-0.00691169
-0.0078908
-0.00828457
-0.00810047
-0.00734739
-0.00603531
-0.00417724
-0.00178943
0.0011087
0.00449457
0.0083426
0.0126243
0.0173084
0.0223614
0.0277473
0.0334282
0.0393645
0.0455147
0.0518363
0.0582856
0.0648178
0.0713874
0.0779485
0.0844547
0.0908597
0.0971172
0.103181
0.109007
0.11455
0.119767
0.124618
0.129064
0.133068
0.136597
0.139622
0.142116
0.144057
0.145429
0.146219
0.146417
0.14602
0.145022
0.143448
0.141332
0.138403
0.134221
0.00137068
-0.00303569
-0.00611861
-0.00834288
-0.00999969
-0.0110563
-0.0114952
-0.0113245
-0.0105545
-0.00919687
-0.00726639
-0.00478125
-0.00176284
0.00176434
0.00577279
0.0102322
0.0151096
0.0203698
0.0259752
0.0318863
0.0380621
0.0444597
0.0510353
0.0577437
0.0645388
0.0713738
0.0782012
0.0849734
0.0916422
0.09816
0.104479
0.110552
0.116333
0.121778
0.126842
0.131486
0.13567
0.139358
0.142519
0.145123
0.147148
0.148572
0.149383
0.14957
0.149126
0.148048
0.14636
0.144102
0.14099
0.136566
-0.00165638
-0.00631306
-0.00958121
-0.0119471
-0.013715
-0.0148486
-0.015329
-0.0151648
-0.0143676
-0.0129503
-0.0109296
-0.00832577
-0.00516225
-0.0014657
0.00273425
0.0074052
0.0125122
0.018018
0.0238832
0.0300666
0.0365253
0.043215
0.0500902
0.057104
0.064209
0.0713566
0.0784978
0.0855833
0.0925633
0.0993879
0.106008
0.112373
0.118437
0.12415
0.129468
0.134347
0.138745
0.142624
0.145948
0.148687
0.150814
0.152307
0.153151
0.153333
0.152846
0.151688
0.149883
0.147478
0.144175
0.139495
-0.00530229
-0.0102292
-0.013695
-0.0162101
-0.018093
-0.0193041
-0.0198224
-0.0196571
-0.0188209
-0.0173282
-0.0151978
-0.0124519
-0.00911629
-0.00522017
-0.000795531
0.00412283
0.00949765
0.0152894
0.0214566
0.027956
0.0347429
0.0417709
0.0489928
0.05636
0.0638233
0.0713325
0.0788367
0.0862847
0.0936248
0.100805
0.107774
0.114479
0.120871
0.126897
0.132511
0.137665
0.142315
0.146418
0.149936
0.152836
0.155088
0.156668
0.157557
0.157742
0.157217
0.155977
0.154051
0.15149
0.147982
0.143024
-0.00959013
-0.0148138
-0.0184944
-0.0211693
-0.0231733
-0.0244631
-0.0250158
-0.0248413
-0.0239531
-0.0223678
-0.0201059
-0.0171922
-0.0136554
-0.0095271
-0.00484221
0.000361782
0.00604494
0.0121652
0.0186787
0.0255399
0.0327019
0.0401163
0.0477338
0.0555041
0.063376
0.0712975
0.0792157
0.0870774
0.0948288
0.102416
0.109784
0.116879
0.123646
0.130034
0.135989
0.141462
0.146403
0.150768
0.154514
0.157604
0.160006
0.161691
0.16264
0.162838
0.162277
0.160954
0.1589
0.15617
0.152438
0.147174
-0.0145486
-0.020102
-0.0240187
-0.0268669
-0.0290002
-0.0303711
-0.0309548
-0.030762
-0.0298077
-0.0281104
-0.0256932
-0.0225838
-0.0188138
-0.014418
-0.00943459
-0.00390411
0.00213049
0.00862431
0.0155307
0.0228017
0.0303878
0.0382387
0.0463028
0.0545277
0.0628604
0.0712468
0.079632
0.0879607
0.0961767
0.104223
0.112044
0.119581
0.126777
0.133576
0.139921
0.145759
0.151036
0.155703
0.159715
0.163028
0.165606
0.16742
0.168445
0.168666
0.168073
0.166664
0.164472
0.161559
0.157579
0.151973
-0.0202127
-0.0261348
-0.0303133
-0.0333514
-0.035624
-0.0370793
-0.0376907
-0.0374697
-0.0364336
-0.0346029
-0.032004
-0.0286678
-0.0246296
-0.019928
-0.0146047
-0.00870385
-0.00227182
0.00464325
0.0119917
0.0197228
0.0277846
0.0361241
0.0446877
0.053421
0.0622686
0.0711746
0.0800819
0.0889331
0.0976696
0.106232
0.114561
0.122596
0.130275
0.137539
0.144328
0.150582
0.156243
0.161258
0.165576
0.169148
0.171935
0.173902
0.175022
0.175277
0.174656
0.173156
0.170816
0.1677
0.163445
0.157453
-0.0266237
-0.0329599
-0.0374306
-0.0406783
-0.0431022
-0.0446461
-0.0452815
-0.0450215
-0.0438855
-0.0418976
-0.0390874
-0.0354902
-0.0311454
-0.0260959
-0.0203878
-0.0140693
-0.00719056
0.000196572
0.00803919
0.0162834
0.0248746
0.0337573
0.0428756
0.0521728
0.0615916
0.0710739
0.0805608
0.0899924
0.0993077
0.108445
0.117341
0.125933
0.134155
0.141943
0.149232
0.155957
0.162057
0.167469
0.172139
0.176012
0.179042
0.181191
0.182427
0.182728
0.182083
0.180489
0.177985
0.174645
0.170081
0.163656
-0.0338301
-0.0406331
-0.045431
-0.0489112
-0.0515005
-0.0531379
-0.0537931
-0.0534814
-0.0522255
-0.050053
-0.0469984
-0.0431018
-0.0384077
-0.0329643
-0.0268223
-0.0200349
-0.0126566
-0.00474322
0.00364867
0.0124619
0.0216389
0.0311217
0.040852
0.050771
0.0608193
0.0709369
0.0810628
0.091135
0.10109
0.110864
0.12039
0.129602
0.138429
0.146804
0.154656
0.161914
0.16851
0.174376
0.179449
0.18367
0.186984
0.189348
0.190724
0.191088
0.190424
0.188728
0.186046
0.182455
0.177543
0.170627
-0.0418879
-0.0492184
-0.0543843
-0.0581235
-0.0608942
-0.0626305
-0.0633005
-0.0629223
-0.0615227
-0.0591346
-0.0557979
-0.0515588
-0.0464679
-0.0405793
-0.0339498
-0.0266378
-0.0187029
-0.0102053
-0.00120565
0.00823551
0.0180575
0.0281997
0.0386015
0.0492021
0.0599402
0.070754
0.0815806
0.0923561
0.103015
0.11349
0.123712
0.13361
0.143111
0.152141
0.160623
0.168481
0.175639
0.182021
0.187557
0.192178
0.195823
0.19844
0.199985
0.20043
0.199753
0.197951
0.195071
0.1912
0.185894
0.17842
-0.0508616
-0.0587902
-0.0643711
-0.0683998
-0.0713701
-0.0732108
-0.0738887
-0.0734262
-0.0718554
-0.0692154
-0.0655533
-0.0609227
-0.0553815
-0.0489911
-0.0418149
-0.0339176
-0.0253644
-0.0162205
-0.0065508
0.00358038
0.0141093
0.0249727
0.0361077
0.0474517
0.0589418
0.0705146
0.0821056
0.0936492
0.105078
0.116322
0.127309
0.137965
0.148212
0.15797
0.167156
0.175688
0.183481
0.190451
0.196516
0.201599
0.205629
0.208545
0.210294
0.210841
0.210161
0.208246
0.205148
0.200962
0.195208
0.187097
-0.0608252
-0.0694342
-0.075485
-0.0798379
-0.0830278
-0.0849781
-0.085655
-0.0850861
-0.0833109
-0.0803766
-0.0763391
-0.0712608
-0.0652089
-0.0582531
-0.0504648
-0.0419157
-0.0326774
-0.0228205
-0.0124147
-0.00152802
0.00977249
0.0214212
0.0333532
0.0455042
0.0578101
0.0702062
0.082627
0.0950055
0.107272
0.119356
0.131181
0.14267
0.15374
0.164306
0.174279
0.183567
0.192076
0.199713
0.206384
0.212
0.216479
0.219747
0.221743
0.22242
0.221749
0.219715
0.216376
0.211834
0.205571
0.19673
-0.0718639
-0.0812503
-0.0878346
-0.0925514
-0.0959829
-0.0980469
-0.09871
-0.0980074
-0.0959877
-0.0927086
-0.088237
-0.0826466
-0.0760151
-0.0684224
-0.0599491
-0.0506751
-0.0406791
-0.0300377
-0.0188254
-0.00711444
0.00502521
0.0175255
0.0303199
0.043343
0.0565297
0.0698148
0.0831321
0.0964138
0.10959
0.122586
0.135326
0.147727
0.159703
0.171164
0.182011
0.192145
0.201463
0.209857
0.217222
0.223455
0.228458
0.232144
0.234437
0.235281
0.234634
0.232479
0.228873
0.223929
0.217083
0.207402
-0.0840762
-0.094355
-0.101547
-0.106673
-0.110369
-0.112549
-0.113181
-0.112309
-0.109996
-0.106312
-0.101337
-0.0951591
-0.0878692
-0.0795589
-0.0703193
-0.0602399
-0.0494071
-0.0379042
-0.0258108
-0.0132032
-0.000154222
0.013266
0.0269897
0.0409508
0.0550841
0.0693244
0.0836057
0.09786
0.112017
0.126001
0.139735
0.153132
0.166103
0.17855
0.19037
0.201451
0.211679
0.220934
0.229095
0.236042
0.241659
0.245842
0.248497
0.249553
0.248955
0.246677
0.242777
0.237379
0.229863
0.219211
-0.0975777
-0.108886
-0.116773
-0.122358
-0.126344
-0.128638
-0.129213
-0.128128
-0.12546
-0.121297
-0.115737
-0.108884
-0.100844
-0.0917246
-0.0816278
-0.070654
-0.0588983
-0.046451
-0.0333972
-0.0198171
-0.00578625
0.00862373
0.0233445
0.0383101
0.0534558
0.0687175
0.0840302
0.0993269
0.114538
0.129587
0.144396
0.158878
0.172937
0.18647
0.199367
0.211507
0.222761
0.232995
0.24207
0.249845
0.256185
0.260961
0.264059
0.265385
0.26487
0.262473
0.258252
0.25234
0.244054
0.23227
-0.112505
-0.125006
-0.13369
-0.139791
-0.14409
-0.14649
-0.146973
-0.145616
-0.142517
-0.137786
-0.131542
-0.123911
-0.115017
-0.104983
-0.0939266
-0.0819597
-0.0691871
-0.0557065
-0.0416083
-0.0269766
-0.0118891
0.00358166
0.0193676
0.0354036
0.0516268
0.0679752
0.0843858
0.100794
0.117131
0.133324
0.149292
0.164947
0.180193
0.19492
0.209009
0.22233
0.234741
0.246088
0.256214
0.264955
0.272147
0.277634
0.281276
0.282951
0.282567
0.280062
0.275493
0.269002
0.259825
0.246718
-0.129022
-0.142914
-0.152513
-0.159192
-0.163824
-0.166314
-0.166655
-0.164949
-0.161322
-0.155913
-0.148868
-0.140336
-0.130465
-0.119397
-0.107266
-0.0941965
-0.0803044
-0.0656948
-0.0504636
-0.0346981
-0.0184776
-0.00187456
0.015044
0.0322152
0.0495792
0.0670771
0.0846499
0.102236
0.119771
0.137184
0.154395
0.171318
0.187852
0.203886
0.219293
0.23393
0.247643
0.260259
0.271595
0.281461
0.289662
0.296008
0.300322
0.302449
0.302263
0.299677
0.294737
0.287593
0.277385
0.262724
-0.14733
-0.162848
-0.1735
-0.180822
-0.185802
-0.188351
-0.188479
-0.186324
-0.182048
-0.175825
-0.167834
-0.158257
-0.147266
-0.135026
-0.121691
-0.107398
-0.0922745
-0.0764335
-0.0599761
-0.0429919
-0.0255611
-0.00775486
0.0103622
0.0287308
0.0472955
0.0660026
0.0847982
0.103626
0.122427
0.141135
0.159673
0.177957
0.195886
0.213345
0.230203
0.246306
0.261482
0.275542
0.288275
0.299458
0.308858
0.316245
0.321394
0.324108
0.324215
0.321593
0.316269
0.308395
0.296993
0.280497
-0.167679
-0.185107
-0.196968
-0.205
-0.210332
-0.212885
-0.212703
-0.209966
-0.204885
-0.197679
-0.188569
-0.177773
-0.165495
-0.151926
-0.137239
-0.121589
-0.105113
-0.087931
-0.0701498
-0.0518602
-0.0331416
-0.0140629
0.00531559
0.0249399
0.0447606
0.064731
0.0848046
0.104933
0.125063
0.145136
0.165082
0.184819
0.20425
0.223259
0.241709
0.259438
0.276261
0.291963
0.306308
0.319034
0.329865
0.338517
0.344712
0.348191
0.348725
0.34614
0.340435
0.331755
0.318972
0.300307
-0.190383
-0.210057
-0.223306
-0.232111
-0.237777
-0.240252
-0.23962
-0.236126
-0.230041
-0.221642
-0.211202
-0.198981
-0.185221
-0.170142
-0.153938
-0.136781
-0.11882
-0.100182
-0.0809763
-0.0612935
-0.041211
-0.0207933
-9.48748e-05
0.0208376
0.0419631
0.0632439
0.0846431
0.106122
0.127638
0.14914
0.170569
0.191848
0.212887
0.233572
0.253763
0.273293
0.291961
0.309531
0.325736
0.340273
0.352814
0.363013
0.37052
0.375001
0.37615
0.373718
0.36766
0.358104
0.343731
0.322496
-0.215846
-0.238165
-0.252998
-0.262625
-0.268578
-0.270843
-0.26957
-0.265086
-0.257742
-0.247888
-0.235859
-0.221968
-0.206498
-0.189701
-0.171795
-0.152969
-0.133381
-0.113165
-0.0924301
-0.0712667
-0.0497469
-0.0279286
-0.00585813
0.0164275
0.0388979
0.0615268
0.0842892
0.107159
0.130106
0.153093
0.176071
0.198976
0.221726
0.244212
0.266297
0.287811
0.308541
0.328231
0.346582
0.363246
0.377834
0.389926
0.399086
0.404882
0.406904
0.404805
0.398467
0.387982
0.37179
0.347515
-0.244585
-0.270018
-0.286647
-0.297121
-0.303261
-0.305121
-0.302939
-0.297157
-0.288228
-0.276592
-0.26266
-0.246806
-0.229359
-0.210607
-0.190792
-0.170118
-0.148752
-0.126831
-0.104464
-0.0817345
-0.0587089
-0.0354355
-0.0119494
0.0117244
0.0355687
0.0595714
0.0837224
0.108011
0.132423
0.156936
0.181518
0.206121
0.230674
0.255083
0.279217
0.302905
0.32593
0.34802
0.368841
0.387999
0.40504
0.419456
0.430703
0.438225
0.441479
0.439977
0.433499
0.42207
0.403816
0.37595
-0.277278
-0.30637
-0.32501
-0.33631
-0.342462
-0.343624
-0.340167
-0.332677
-0.321745
-0.307919
-0.291702
-0.273537
-0.253805
-0.232829
-0.210876
-0.188161
-0.164858
-0.141104
-0.117001
-0.0926258
-0.0680336
-0.04326
-0.0183262
0.00675814
0.0319918
0.0573795
0.082929
0.108648
0.134541
0.160607
0.186832
0.213189
0.239628
0.266071
0.292401
0.318458
0.344023
0.368814
0.39247
0.41455
0.434526
0.451793
0.465676
0.475467
0.480442
0.479928
0.47355
0.461223
0.440665
0.408576
-0.314805
-0.348186
-0.369042
-0.38107
-0.386943
-0.386982
-0.38174
-0.372003
-0.358531
-0.342009
-0.323044
-0.302158
-0.279786
-0.256285
-0.231942
-0.206983
-0.18158
-0.155864
-0.129928
-0.103837
-0.0776286
-0.051323
-0.0249237
0.00157794
0.0281998
0.0549665
0.0819061
0.109048
0.13642
0.164043
0.19193
0.220079
0.248466
0.277038
0.305702
0.334316
0.362673
0.390488
0.417382
0.44287
0.466352
0.48711
0.504323
0.517088
0.524452
0.52549
0.519601
0.506525
0.483445
0.446416
-0.358324
-0.396715
-0.419958
-0.432489
-0.437619
-0.435915
-0.428192
-0.415495
-0.398798
-0.378951
-0.356682
-0.332596
-0.30718
-0.280823
-0.253823
-0.226407
-0.198742
-0.170944
-0.14309
-0.115225
-0.0873669
-0.0595147
-0.0316504
-0.00374365
0.0242457
0.0523648
0.0806653
0.109201
0.138025
0.167188
0.196731
0.226683
0.257055
0.287828
0.318944
0.350291
0.381687
0.41286
0.443426
0.472869
0.50052
0.525546
0.546953
0.563607
0.574263
0.577656
0.572866
0.559352
0.533591
0.490818
-0.40936
-0.453586
-0.479303
-0.49191
-0.495577
-0.491241
-0.48008
-0.463485
-0.442694
-0.418751
-0.392517
-0.364677
-0.335768
-0.306196
-0.276261
-0.24618
-0.2161
-0.186115
-0.156276
-0.126601
-0.0970816
-0.0676907
-0.0383846
-0.0091074
0.020206
0.049628
0.0792362
0.109112
0.139337
0.169993
0.201156
0.232894
0.265257
0.298272
0.331926
0.366156
0.400822
0.435687
0.470383
0.504382
0.53696
0.567173
0.593842
0.615562
0.630722
0.637607
0.634843
0.621457
0.592971
0.543561
-0.469938
-0.520937
-0.549066
-0.561003
-0.5621
-0.553854
-0.537953
-0.51623
-0.490251
-0.461276
-0.430301
-0.398086
-0.365195
-0.332037
-0.298894
-0.265954
-0.23333
-0.20108
-0.169217
-0.137726
-0.106563
-0.0756695
-0.044972
-0.0143858
0.0161821
0.0468317
0.0776686
0.108803
0.140349
0.172423
0.205138
0.238607
0.272929
0.308185
0.344425
0.38165
0.419786
0.458658
0.497945
0.537139
0.575493
0.611969
0.645204
0.673487
0.694763
0.706734
0.707385
0.695087
0.664038
0.607012
-0.542781
-0.601623
-0.63182
-0.641825
-0.638671
-0.624693
-0.602282
-0.573838
-0.541307
-0.506183
-0.469582
-0.43231
-0.394933
-0.357826
-0.321227
-0.285271
-0.250015
-0.215464
-0.181582
-0.148308
-0.115557
-0.0832331
-0.0512274
-0.019424
0.0123
0.0440739
0.0760326
0.108317
0.141074
0.174456
0.208621
0.243727
0.279931
0.31738
0.356201
0.396478
0.438233
0.481385
0.525704
0.57075
0.615799
0.659768
0.701129
0.737857
0.767378
0.786651
0.792778
0.783137
0.750048
0.684339
-0.631628
-0.699514
-0.730923
-0.736905
-0.726954
-0.704653
-0.673348
-0.636138
-0.595394
-0.552823
-0.50962
-0.466588
-0.424235
-0.382862
-0.342618
-0.303552
-0.265641
-0.228817
-0.192979
-0.158009
-0.123774
-0.0901326
-0.0569401
-0.0240458
0.00870445
0.0414697
0.0744145
0.107711
0.141538
0.176088
0.211561
0.248167
0.286128
0.325666
0.366997
0.410315
0.455763
0.503398
0.553133
0.604663
0.657367
0.710188
0.761506
0.809007
0.84955
0.879188
0.893829
0.889371
0.855391
0.779878
-0.741796
-0.819981
-0.850793
-0.849305
-0.828709
-0.794427
-0.751058
-0.702516
-0.651586
-0.600122
-0.549306
-0.499842
-0.452103
-0.406241
-0.362266
-0.320099
-0.279606
-0.240623
-0.202968
-0.166455
-0.130895
-0.0961009
-0.0618854
-0.0280637
0.00554978
0.0391432
0.0729097
0.107051
0.141778
0.177321
0.213923
0.251851
0.29139
0.332847
0.376543
0.422798
0.471912
0.524126
0.57956
0.63813
0.699424
0.762542
0.825898
0.886988
0.942128
0.986327
1.01394
1.01872
0.986112
0.899737
-0.8812
-0.970672
-0.997266
-0.982624
-0.945596
-0.894224
-0.834656
-0.771654
-0.708307
-0.646444
-0.587067
-0.530633
-0.477257
-0.426854
-0.379225
-0.334114
-0.29124
-0.250322
-0.211083
-0.173259
-0.136601
-0.100871
-0.0658424
-0.0312953
0.00298498
0.0372135
0.0716093
0.106401
0.14183
0.178158
0.215675
0.254697
0.295579
0.338716
0.384543
0.433525
0.486148
0.542885
0.604136
0.670143
0.74085
0.815695
0.893347
0.971335
1.04559
1.11004
1.15716
1.17765
1.15073
1.05291
-1.06235
-1.16275
-1.17801
-1.14086
-1.07876
-1.00329
-0.922298
-0.841212
-0.763104
-0.689456
-0.620803
-0.55714
-0.498159
-0.443423
-0.392444
-0.344739
-0.29985
-0.257354
-0.216871
-0.178056
-0.140596
-0.104204
-0.068617
-0.0335841
0.00113499
0.0357779
0.0705853
0.105808
0.141712
0.17859
0.216768
0.256613
0.298545
0.343046
0.390668
0.442036
0.497845
0.558843
0.625788
0.699365
0.78005
0.867879
0.962107
1.0607
1.1596
1.2519
1.32804
1.37464
1.36156
1.25345
-1.30651
-1.41283
-1.40278
-1.32781
-1.22797
-1.1191
-1.01043
-0.907409
-0.812415
-0.726019
-0.647865
-0.577199
-0.513068
-0.454567
-0.400843
-0.351134
-0.30478
-0.261213
-0.219942
-0.180542
-0.142643
-0.105917
-0.0700685
-0.0348224
8.0517e-05
0.0348939
0.0698735
0.105286
0.141416
0.178579
0.21713
0.25748
0.300106
0.34557
0.394538
0.447796
0.506262
0.570992
0.643165
0.724032
0.814803
0.916428
1.02923
1.15226
1.28226
1.41229
1.53108
1.62041
1.63669
1.52484
-1.65233
-1.7459
-1.68279
-1.54532
-1.38983
-1.23596
-1.09285
-0.964477
-0.851313
-0.752131
-0.665119
-0.588381
-0.520157
-0.458928
-0.403414
-0.35256
-0.305496
-0.26151
-0.220014
-0.180517
-0.142603
-0.105913
-0.0701317
-0.0349699
-0.000158668
0.0345635
0.0694591
0.104802
0.140887
0.178044
0.216647
0.257136
0.300033
0.345967
0.395703
0.450174
0.510514
0.578099
0.654569
0.741837
0.842043
0.957412
1.08993
1.2407
1.40864
1.58845
1.76889
1.92731
2.00299
1.90909
-2.17106
-2.19896
-2.02884
-1.79016
-1.55503
-1.34314
-1.15973
-1.00431
-0.87349
-0.763087
-0.669142
-0.588279
-0.517743
-0.45535
-0.399385
-0.348508
-0.30167
-0.258046
-0.216976
-0.177926
-0.140459
-0.104203
-0.0688352
-0.0340684
0.00036574
0.0347257
0.0692712
0.104274
0.140028
0.176863
0.215163
0.255379
0.298058
0.343871
0.393655
0.448457
0.509595
0.578735
0.657969
0.749912
0.857772
0.985375
1.13704
1.31714
1.52885
1.77184
2.03906
2.30739
2.49958
2.48183
-2.99215
-2.82107
-2.44761
-2.05186
-1.70734
-1.42492
-1.19835
-1.01754
-0.872457
-0.754576
-0.657191
-0.57522
-0.504873
-0.443345
-0.388558
-0.338961
-0.293392
-0.250966
-0.210998
-0.17295
-0.136388
-0.100953
-0.0663356
-0.0322623
0.00152027
0.0352566
0.069193
0.103588
0.138723
0.174918
0.212544
0.252047
0.293973
0.339004
0.388002
0.442076
0.502661
0.571635
0.651462
0.745393
0.857714
0.99404
1.16161
1.36941
1.62774
1.94669
2.3317
2.76832
3.17718
3.37687
-4.41041
-3.65129
-2.91375
-2.29623
-1.81512
-1.45684
-1.19205
-0.993717
-0.842065
-0.723253
-0.627657
-0.548625
-0.481554
-0.423234
-0.3714
-0.324438
-0.281177
-0.240753
-0.202521
-0.16598
-0.130737
-0.0964671
-0.0628964
-0.0297807
0.0031064
0.0359841
0.0690745
0.102613
0.136856
0.172099
0.208685
0.247031
0.287651
0.331194
0.378496
0.430649
0.489101
0.5558
0.6334
0.725562
0.837406
0.97617
1.15213
1.37986
1.67989
2.08028
2.6112
3.28348
4.07564
4.89747
-7.25344
-4.65693
-3.24508
-2.36846
-1.77129
-1.36986
-1.09784
-0.90644
-0.76606
-0.658956
-0.574046
-0.504237
-0.444917
-0.393027
-0.346498
-0.303908
-0.264257
-0.226833
-0.19111
-0.156694
-0.123273
-0.0905948
-0.0584423
-0.0266206
0.00505359
0.0367609
0.0686869
0.101029
0.134006
0.167868
0.202906
0.239477
0.278019
0.31909
0.363414
0.411948
0.46598
0.527276
0.598305
0.682585
0.785255
0.914012
1.08066
1.30383
1.61421
2.06254
2.71886
3.66842
5.16602
7.8783
-12.1243
-5.7427
-3.0854
-1.99904
-1.41543
-1.07321
-0.863797
-0.725147
-0.625714
-0.549639
-0.488211
-0.436293
-0.390729
-0.34952
-0.311366
-0.275408
-0.241066
-0.207941
-0.175749
-0.144277
-0.113359
-0.0828541
-0.0526341
-0.0225785
0.00743365
0.0375268
0.0678328
0.0984954
0.129674
0.161548
0.19433
0.228269
0.263675
0.300936
0.340552
0.383187
0.429735
0.481428
0.540001
0.607954
0.68901
0.788939
0.91716
1.09027
1.34052
1.73219
2.3824
3.56374
6.33692
12.8412
)
;

boundaryField
{
    movingWall
    {
        type            zeroGradient;
    }
    fixedWalls
    {
        type            zeroGradient;
    }
    frontAndBack
    {
        type            empty;
    }
}


// ************************************************************************* //
