/*--------------------------------*- C++ -*----------------------------------*\
  =========                 |
  \\      /  F ield         | OpenFOAM: The Open Source CFD Toolbox
   \\    /   O peration     | Website:  https://openfoam.org
    \\  /    A nd           | Version:  7
     \\/     M anipulation  |
\*---------------------------------------------------------------------------*/
FoamFile
{
    version     2.0;
    format      ascii;
    class       surfaceScalarField;
    location    "0.0784";
    object      phi;
}
// * * * * * * * * * * * * * * * * * * * * * * * * * * * * * * * * * * * * * //

dimensions      [0 3 -1 0 0 0 0];

internalField   nonuniform List<scalar> 
4900
(
-5.55533e-06
5.55533e-06
-1.01609e-05
4.60559e-06
-1.29489e-05
2.78794e-06
-1.46696e-05
1.7207e-06
-1.57727e-05
1.10316e-06
-1.65124e-05
7.39643e-07
-1.70339e-05
5.21501e-07
-1.74191e-05
3.85261e-07
-1.77147e-05
2.95612e-07
-1.79483e-05
2.3352e-07
-1.81368e-05
1.88552e-07
-1.82915e-05
1.54742e-07
-1.842e-05
1.28502e-07
-1.85276e-05
1.07571e-07
-1.86181e-05
9.04614e-08
-1.86942e-05
7.61532e-08
-1.87582e-05
6.39276e-08
-1.88114e-05
5.32625e-08
-1.88552e-05
4.37703e-08
-1.88904e-05
3.51562e-08
-1.89175e-05
2.71917e-08
-1.89372e-05
1.96952e-08
-1.89498e-05
1.25194e-08
-1.89553e-05
5.54056e-09
-1.89539e-05
-1.34934e-09
-1.89457e-05
-8.2456e-09
-1.89305e-05
-1.52421e-08
-1.8908e-05
-2.24314e-08
-1.88781e-05
-2.99126e-08
-1.88403e-05
-3.77974e-08
-1.87941e-05
-4.62179e-08
-1.87388e-05
-5.53369e-08
-1.86734e-05
-6.53613e-08
-1.85968e-05
-7.65618e-08
-1.85075e-05
-8.93008e-08
-1.84035e-05
-1.04075e-07
-1.82819e-05
-1.2158e-07
-1.81391e-05
-1.42817e-07
-1.79698e-05
-1.69273e-07
-1.77666e-05
-2.0323e-07
-1.75182e-05
-2.48341e-07
-1.72075e-05
-3.10697e-07
-1.68066e-05
-4.00885e-07
-1.62687e-05
-5.37957e-07
-1.55123e-05
-7.56404e-07
-1.43964e-05
-1.11593e-06
-1.26814e-05
-1.71496e-06
-9.94579e-06
-2.73559e-06
-5.45241e-06
-4.49338e-06
-5.45241e-06
-1.18897e-08
5.56722e-06
-2.13088e-06
6.72458e-06
-4.85892e-06
5.51599e-06
-7.27763e-06
4.1394e-06
-9.21788e-06
3.04341e-06
-1.07323e-05
2.2541e-06
-1.19142e-05
1.70339e-06
-1.28465e-05
1.31751e-06
-1.35924e-05
1.04155e-06
-1.41979e-05
8.3904e-07
-1.46958e-05
6.86423e-07
-1.51095e-05
5.68428e-07
-1.5456e-05
4.74986e-07
-1.57477e-05
3.99308e-07
-1.5994e-05
3.36701e-07
-1.62016e-05
2.83841e-07
-1.6376e-05
2.38321e-07
-1.65211e-05
1.98361e-07
-1.664e-05
1.62618e-07
-1.67349e-05
1.30059e-07
-1.68076e-05
9.98728e-08
-1.68593e-05
7.14122e-08
-1.68909e-05
4.41458e-08
-1.6903e-05
1.76262e-08
-1.68958e-05
-8.5358e-09
-1.68694e-05
-3.46946e-08
-1.68234e-05
-6.11867e-08
-1.67575e-05
-8.83508e-08
-1.66709e-05
-1.16546e-07
-1.65625e-05
-1.46175e-07
-1.6431e-05
-1.77711e-07
-1.62746e-05
-2.11727e-07
-1.6091e-05
-2.48948e-07
-1.58773e-05
-2.90308e-07
-1.56295e-05
-3.37039e-07
-1.53428e-05
-3.90798e-07
-1.50105e-05
-4.53854e-07
-1.4624e-05
-5.29373e-07
-1.41714e-05
-6.21864e-07
-1.36367e-05
-7.37884e-07
-1.29979e-05
-8.87163e-07
-1.22242e-05
-1.0844e-06
-1.1273e-05
-1.35205e-06
-1.00866e-05
-1.72438e-06
-8.59107e-06
-2.25196e-06
-6.7063e-06
-3.0007e-06
-4.39265e-06
-4.02861e-06
-1.81823e-06
-5.31001e-06
1.24474e-07
-6.43609e-06
-5.32794e-06
1.03228e-06
4.53494e-06
5.46144e-07
7.21072e-06
-9.94358e-07
7.05649e-06
-2.89185e-06
6.03689e-06
-4.75254e-06
4.90409e-06
-6.41585e-06
3.91742e-06
-7.84232e-06
3.12986e-06
-9.04493e-06
2.52013e-06
-1.0054e-05
2.05059e-06
-1.09015e-05
1.68659e-06
-1.16159e-05
1.40082e-06
-1.22204e-05
1.17296e-06
-1.27336e-05
9.88186e-07
-1.31701e-05
8.35742e-07
-1.35411e-05
7.07754e-07
-1.38557e-05
5.98401e-07
-1.41207e-05
5.03324e-07
-1.43415e-05
4.19211e-07
-1.45224e-05
3.4351e-07
-1.46666e-05
2.74224e-07
-1.47765e-05
2.09766e-07
-1.48539e-05
1.48851e-07
-1.49002e-05
9.04147e-08
-1.49161e-05
3.35561e-08
-1.49022e-05
-2.25134e-08
-1.48583e-05
-7.85117e-08
-1.47844e-05
-1.35121e-07
-1.46797e-05
-1.93024e-07
-1.45433e-05
-2.52941e-07
-1.43738e-05
-3.15668e-07
-1.41694e-05
-3.82129e-07
-1.39277e-05
-4.53436e-07
-1.36457e-05
-5.30965e-07
-1.33195e-05
-6.1646e-07
-1.29444e-05
-7.12176e-07
-1.25141e-05
-8.21071e-07
-1.20209e-05
-9.47081e-07
-1.14548e-05
-1.0955e-06
-1.08031e-05
-1.27352e-06
-1.005e-05
-1.49099e-06
-9.17574e-06
-1.76144e-06
-8.15687e-06
-2.10327e-06
-6.96795e-06
-2.54098e-06
-5.58727e-06
-3.10505e-06
-4.01153e-06
-3.8277e-06
-2.28743e-06
-4.7248e-06
-5.72127e-07
-5.74392e-06
7.67218e-07
-6.64935e-06
1.08795e-06
-6.75681e-06
-4.23999e-06
9.05903e-07
3.62904e-06
1.22675e-06
6.88988e-06
6.39215e-07
7.64402e-06
-5.30803e-07
7.20691e-06
-1.95436e-06
6.32765e-06
-3.41315e-06
5.37621e-06
-4.79011e-06
4.50681e-06
-6.03537e-06
3.76539e-06
-7.1363e-06
3.15152e-06
-8.09816e-06
2.64846e-06
-8.93347e-06
2.23613e-06
-9.65658e-06
1.89606e-06
-1.02812e-05
1.61282e-06
-1.08195e-05
1.37407e-06
-1.12819e-05
1.17011e-06
-1.16769e-05
9.93371e-07
-1.20115e-05
8.37927e-07
-1.22914e-05
6.99124e-07
-1.25211e-05
5.73273e-07
-1.27043e-05
4.57422e-07
-1.28438e-05
3.49181e-07
-1.29415e-05
2.46585e-07
-1.29991e-05
1.47991e-07
-1.30175e-05
5.19914e-08
-1.29974e-05
-4.26502e-08
-1.29388e-05
-1.37061e-07
-1.28416e-05
-2.32309e-07
-1.27052e-05
-3.29459e-07
-1.25285e-05
-4.29619e-07
-1.23102e-05
-5.34e-07
-1.20483e-05
-6.43987e-07
-1.17406e-05
-7.61212e-07
-1.13839e-05
-8.87657e-07
-1.09745e-05
-1.02578e-06
-1.0508e-05
-1.17868e-06
-9.97882e-06
-1.35029e-06
-9.38025e-06
-1.54566e-06
-8.70447e-06
-1.77128e-06
-7.9425e-06
-2.03548e-06
-7.08463e-06
-2.34887e-06
-6.12149e-06
-2.72458e-06
-5.04654e-06
-3.17822e-06
-3.86116e-06
-3.72636e-06
-2.58419e-06
-4.38202e-06
-1.2687e-06
-5.14319e-06
-2.69756e-08
-5.96652e-06
9.42869e-07
-6.71376e-06
1.34961e-06
-7.0561e-06
9.17163e-07
-6.32437e-06
-3.32283e-06
6.71085e-07
2.95795e-06
1.24094e-06
6.32002e-06
1.2175e-06
7.66747e-06
6.41547e-07
7.78286e-06
-2.99366e-07
7.26857e-06
-1.42281e-06
6.49965e-06
-2.59633e-06
5.68033e-06
-3.73851e-06
4.90757e-06
-4.80576e-06
4.21876e-06
-5.77867e-06
3.62137e-06
-6.6519e-06
3.10935e-06
-7.42754e-06
2.6717e-06
-8.11122e-06
2.29651e-06
-8.70987e-06
1.97271e-06
-9.23047e-06
1.69071e-06
-9.67954e-06
1.44244e-06
-1.00628e-05
1.22122e-06
-1.03853e-05
1.02158e-06
-1.0651e-05
8.3902e-07
-1.08635e-05
6.69845e-07
-1.10253e-05
5.10989e-07
-1.11386e-05
3.59887e-07
-1.12049e-05
2.1436e-07
-1.12255e-05
7.25248e-08
-1.12008e-05
-6.72839e-08
-1.11313e-05
-2.06587e-07
-1.10168e-05
-3.46822e-07
-1.08568e-05
-4.89409e-07
-1.06507e-05
-6.35806e-07
-1.03971e-05
-7.87586e-07
-1.00946e-05
-9.46503e-07
-9.74118e-06
-1.11459e-06
-9.3346e-06
-1.29424e-06
-8.87202e-06
-1.48836e-06
-8.35022e-06
-1.70047e-06
-7.7656e-06
-1.93491e-06
-7.1143e-06
-2.19695e-06
-6.39255e-06
-2.49303e-06
-5.59728e-06
-2.83076e-06
-4.72727e-06
-3.21888e-06
-3.78524e-06
-3.66661e-06
-2.78133e-06
-4.18213e-06
-1.73863e-06
-4.76905e-06
-7.0154e-07
-5.41911e-06
2.53514e-07
-6.09825e-06
1.00854e-06
-6.72155e-06
1.40718e-06
-7.1124e-06
1.29712e-06
-6.94603e-06
6.66616e-07
-5.69387e-06
-2.65621e-06
4.79543e-07
2.47841e-06
1.07277e-06
5.72679e-06
1.33384e-06
7.4064e-06
1.16235e-06
7.95435e-06
6.26036e-07
7.80488e-06
-1.56407e-07
7.28209e-06
-1.07287e-06
6.5968e-06
-2.03788e-06
5.87258e-06
-2.99378e-06
5.17466e-06
-3.9052e-06
4.53279e-06
-4.75255e-06
3.9567e-06
-5.5265e-06
3.44565e-06
-6.22405e-06
2.99406e-06
-6.84582e-06
2.59448e-06
-7.3943e-06
2.2392e-06
-7.87286e-06
1.921e-06
-8.28507e-06
1.63343e-06
-8.63436e-06
1.37087e-06
-8.92386e-06
1.12852e-06
-9.15628e-06
9.02268e-07
-9.33391e-06
6.88619e-07
-9.4586e-06
4.84579e-07
-9.53181e-06
2.87564e-07
-9.55459e-06
9.53104e-08
-9.52768e-06
-9.4198e-08
-9.45146e-06
-2.82806e-07
-9.32603e-06
-4.7225e-07
-9.15121e-06
-6.64227e-07
-8.92656e-06
-8.60459e-07
-8.65139e-06
-1.06276e-06
-8.32479e-06
-1.2731e-06
-7.94566e-06
-1.49372e-06
-7.51274e-06
-1.72716e-06
-7.0247e-06
-1.9764e-06
-6.48026e-06
-2.24491e-06
-5.87844e-06
-2.53674e-06
-5.21885e-06
-2.85653e-06
-4.5024e-06
-3.20948e-06
-3.73214e-06
-3.60102e-06
-2.91481e-06
-4.0362e-06
-2.06305e-06
-4.51837e-06
-1.19856e-06
-5.04663e-06
-3.56313e-07
-5.61129e-06
4.10623e-07
-6.18605e-06
1.02759e-06
-6.71522e-06
1.40082e-06
-7.09478e-06
1.43607e-06
-7.14765e-06
1.08922e-06
-6.59918e-06
4.69622e-07
-5.07427e-06
-2.18659e-06
3.47049e-07
2.13136e-06
8.86934e-07
5.18691e-06
1.26851e-06
7.02483e-06
1.34444e-06
7.87841e-06
1.1072e-06
8.04213e-06
6.16888e-07
7.7724e-06
-4.71363e-08
7.26082e-06
-8.11387e-07
6.63683e-06
-1.61764e-06
5.98092e-06
-2.42389e-06
5.33904e-06
-3.20189e-06
4.7347e-06
-3.93392e-06
4.17768e-06
-4.60965e-06
3.66979e-06
-5.22375e-06
3.20857e-06
-5.77408e-06
2.78953e-06
-6.26047e-06
2.40739e-06
-6.68385e-06
2.05681e-06
-7.04571e-06
1.73274e-06
-7.34778e-06
1.43059e-06
-7.59176e-06
1.14625e-06
-7.77924e-06
8.76102e-07
-7.91163e-06
6.16962e-07
-7.99008e-06
3.66018e-07
-8.01555e-06
1.20776e-07
-7.98874e-06
-1.21006e-07
-7.91016e-06
-3.61385e-07
-7.78012e-06
-6.02286e-07
-7.59878e-06
-8.45572e-07
-7.36614e-06
-1.09309e-06
-7.08215e-06
-1.34676e-06
-6.74667e-06
-1.60858e-06
-6.35965e-06
-1.88075e-06
-5.92113e-06
-2.16568e-06
-5.43148e-06
-2.46605e-06
-4.89156e-06
-2.78483e-06
-4.30309e-06
-3.1252e-06
-3.66915e-06
-3.49048e-06
-2.99483e-06
-3.8838e-06
-2.2883e-06
-4.30755e-06
-1.56217e-06
-4.76233e-06
-8.35315e-07
-5.24522e-06
-1.35065e-07
-5.74688e-06
5.00572e-07
-6.24693e-06
1.02161e-06
-6.70708e-06
1.36779e-06
-7.0614e-06
1.47725e-06
-7.20424e-06
1.30808e-06
-6.97849e-06
8.79685e-07
-6.17078e-06
3.35294e-07
-4.52988e-06
-1.8513e-06
2.5959e-07
1.87177e-06
7.28591e-07
4.71791e-06
1.14468e-06
6.60874e-06
1.3598e-06
7.66329e-06
1.32765e-06
8.07428e-06
1.06586e-06
8.03419e-06
6.2212e-07
7.70456e-06
5.16982e-08
7.20725e-06
-5.94562e-07
6.62718e-06
-1.27512e-06
6.01959e-06
-1.95846e-06
5.41804e-06
-2.62198e-06
4.8412e-06
-3.25023e-06
4.29804e-06
-3.83315e-06
3.79149e-06
-4.36451e-06
3.3209e-06
-4.84081e-06
2.88368e-06
-5.26029e-06
2.47629e-06
-5.62238e-06
2.09483e-06
-5.9272e-06
1.73541e-06
-6.17528e-06
1.39433e-06
-6.36733e-06
1.06816e-06
-6.50415e-06
7.53783e-07
-6.58652e-06
4.48386e-07
-6.61516e-06
1.49418e-07
-6.59073e-06
-1.45437e-07
-6.51381e-06
-4.38306e-07
-6.38493e-06
-7.31171e-07
-6.20458e-06
-1.02592e-06
-5.97329e-06
-1.32439e-06
-5.69163e-06
-1.62841e-06
-5.36036e-06
-1.93985e-06
-4.98048e-06
-2.26063e-06
-4.55338e-06
-2.59278e-06
-4.08107e-06
-2.93836e-06
-3.56645e-06
-3.29944e-06
-3.01367e-06
-3.67798e-06
-2.42863e-06
-4.07552e-06
-1.81968e-06
-4.49275e-06
-1.19848e-06
-4.92875e-06
-5.81055e-07
-5.37976e-06
1.10483e-08
-5.83733e-06
5.49687e-07
-6.28552e-06
9.99676e-07
-6.69692e-06
1.31996e-06
-7.02736e-06
1.46803e-06
-7.20947e-06
1.41013e-06
-7.14633e-06
1.13981e-06
-6.70817e-06
7.06203e-07
-5.73718e-06
2.46813e-07
-4.07049e-06
-1.60448e-06
2.01233e-07
1.67054e-06
6.03183e-07
4.31596e-06
1.01264e-06
6.19928e-06
1.29867e-06
7.37726e-06
1.39969e-06
7.97326e-06
1.30666e-06
8.12722e-06
1.04217e-06
7.96905e-06
6.4325e-07
7.60617e-06
1.49954e-07
7.12048e-06
-4.00934e-07
6.57048e-06
-9.78609e-07
5.99572e-06
-1.5588e-06
5.42139e-06
-2.12322e-06
4.86246e-06
-2.6586e-06
4.32687e-06
-3.15563e-06
3.81792e-06
-3.60797e-06
3.33603e-06
-4.01151e-06
2.87983e-06
-4.36369e-06
2.44701e-06
-4.66305e-06
2.03477e-06
-4.90888e-06
1.64016e-06
-5.10097e-06
1.26024e-06
-5.23942e-06
8.9223e-07
-5.32454e-06
5.33509e-07
-5.35678e-06
1.81663e-07
-5.33669e-06
-1.65527e-07
-5.26489e-06
-5.10109e-07
-5.14209e-06
-8.53975e-07
-4.96911e-06
-1.1989e-06
-4.74695e-06
-1.54655e-06
-4.47683e-06
-1.89852e-06
-4.16031e-06
-2.25637e-06
-3.79938e-06
-2.62156e-06
-3.39667e-06
-2.99549e-06
-2.95563e-06
-3.3794e-06
-2.48081e-06
-3.77426e-06
-1.97827e-06
-4.18053e-06
-1.45596e-06
-4.59783e-06
-9.24313e-07
-5.02439e-06
-3.96861e-07
-5.4562e-06
1.09144e-07
-5.88576e-06
5.72201e-07
-6.30038e-06
9.66454e-07
-6.67977e-06
1.26248e-06
-6.99295e-06
1.42975e-06
-7.19464e-06
1.44189e-06
-7.22161e-06
1.28586e-06
-6.9903e-06
9.75814e-07
-6.39812e-06
5.70383e-07
-5.33174e-06
1.87577e-07
-3.68768e-06
-1.41691e-06
1.61002e-07
1.50954e-06
5.0556e-07
3.9714e-06
8.90642e-07
5.8142e-06
1.20665e-06
7.06125e-06
1.38969e-06
7.79023e-06
1.41609e-06
8.10082e-06
1.29075e-06
8.09438e-06
1.03528e-06
7.86164e-06
6.78622e-07
7.47714e-06
2.50824e-07
6.99828e-06
-2.20495e-07
6.46704e-06
-7.11758e-07
5.91266e-06
-1.20383e-06
5.35454e-06
-1.68175e-06
4.80479e-06
-2.13417e-06
4.27034e-06
-2.55271e-06
3.75456e-06
-2.93132e-06
3.25844e-06
-3.26576e-06
2.78145e-06
-3.55314e-06
2.32215e-06
-3.79158e-06
1.8786e-06
-3.97995e-06
1.44861e-06
-4.11765e-06
1.02993e-06
-4.2045e-06
6.20364e-07
-4.24064e-06
2.178e-07
-4.22644e-06
-1.79724e-07
-4.16253e-06
-5.74022e-07
-4.04975e-06
-9.66758e-07
-3.88919e-06
-1.35945e-06
-3.68227e-06
-1.75347e-06
-3.43076e-06
-2.15004e-06
-3.1369e-06
-2.55023e-06
-2.80354e-06
-2.95493e-06
-2.43427e-06
-3.36476e-06
-2.03369e-06
-3.77999e-06
-1.60757e-06
-4.20037e-06
-1.16325e-06
-4.62485e-06
-7.09904e-07
-5.05117e-06
-2.58978e-07
-5.47532e-06
1.75496e-07
-5.89067e-06
5.76633e-07
-6.2869e-06
9.24719e-07
-6.64847e-06
1.19775e-06
-6.9528e-06
1.37289e-06
-7.16809e-06
1.42939e-06
-7.25114e-06
1.35349e-06
-7.14571e-06
1.14574e-06
-6.78255e-06
8.30417e-07
-6.0828e-06
4.6522e-07
-4.96655e-06
1.46549e-07
-3.36901e-06
-1.27036e-06
1.32169e-07
1.37737e-06
4.29156e-07
3.67441e-06
7.83564e-07
5.45979e-06
1.1058e-06
6.73901e-06
1.33593e-06
7.5601e-06
1.44364e-06
7.99312e-06
1.42246e-06
8.11556e-06
1.28222e-06
8.00188e-06
1.04201e-06
7.71735e-06
7.24785e-07
7.3155e-06
3.53774e-07
6.83805e-06
-4.96574e-08
6.31609e-06
-4.66992e-07
5.77187e-06
-8.82856e-07
5.22065e-06
-1.28489e-06
4.67238e-06
-1.66341e-06
4.13308e-06
-2.011e-06
3.60603e-06
-2.3221e-06
3.09255e-06
-2.59266e-06
2.5927e-06
-2.81977e-06
2.10571e-06
-3.00146e-06
1.6303e-06
-3.13649e-06
1.16496e-06
-3.22418e-06
7.08053e-07
-3.26432e-06
2.57944e-07
-3.25712e-06
-1.86928e-07
-3.20313e-06
-6.28011e-07
-3.10328e-06
-1.06661e-06
-2.95886e-06
-1.50387e-06
-2.7716e-06
-1.94073e-06
-2.54368e-06
-2.37795e-06
-2.2779e-06
-2.81601e-06
-1.97772e-06
-3.2551e-06
-1.64747e-06
-3.69501e-06
-1.29249e-06
-4.13498e-06
-9.19331e-07
-4.57353e-06
-5.36016e-07
-5.00817e-06
-1.5223e-07
-5.43496e-06
2.20459e-07
-5.84801e-06
5.68488e-07
-6.2387e-06
8.76363e-07
-6.59477e-06
1.12703e-06
-6.89914e-06
1.30281e-06
-7.12857e-06
1.38705e-06
-7.25234e-06
1.36701e-06
-7.2311e-06
1.23789e-06
-7.01658e-06
1.00824e-06
-6.55291e-06
7.05976e-07
-5.78053e-06
3.83216e-07
-4.64379e-06
1.1704e-07
-3.10283e-06
-1.15332e-06
1.10689e-07
1.26668e-06
3.68423e-07
3.41668e-06
6.91144e-07
5.13707e-06
1.0062e-06
6.42396e-06
1.26008e-06
7.30621e-06
1.42067e-06
7.83253e-06
1.47488e-06
8.06135e-06
1.42418e-06
8.05258e-06
1.27969e-06
7.86184e-06
1.05785e-06
7.53735e-06
7.77161e-07
7.11873e-06
4.56012e-07
6.63724e-06
1.11336e-07
6.11655e-06
-2.4203e-07
5.57402e-06
-5.91557e-07
5.0219e-06
-9.26963e-07
4.46849e-06
-1.24001e-06
3.91908e-06
-1.52424e-06
3.37678e-06
-1.7747e-06
2.84316e-06
-1.98769e-06
2.3187e-06
-2.16053e-06
1.80314e-06
-2.29138e-06
1.29582e-06
-2.37913e-06
7.95799e-07
-2.42323e-06
3.02046e-07
-2.42367e-06
-1.86482e-07
-2.38093e-06
-6.70752e-07
-2.29594e-06
-1.15161e-06
-2.1701e-06
-1.62971e-06
-2.00533e-06
-2.1055e-06
-1.80412e-06
-2.57916e-06
-1.56961e-06
-3.05053e-06
-1.30567e-06
-3.51904e-06
-1.01706e-06
-3.98362e-06
-7.09536e-07
-4.4425e-06
-3.90006e-07
-4.89306e-06
-6.66734e-08
-5.3315e-06
2.50848e-07
-5.75248e-06
5.51485e-07
-6.14865e-06
8.22771e-07
-6.50999e-06
1.05112e-06
-6.82312e-06
1.22241e-06
-7.07043e-06
1.32306e-06
-7.22922e-06
1.34168e-06
-7.27095e-06
1.27151e-06
-7.16093e-06
1.11364e-06
-6.85872e-06
8.80738e-07
-6.32e-06
6.00595e-07
-5.50039e-06
3.18315e-07
-4.36151e-06
9.50296e-08
-2.87955e-06
-1.05829e-06
9.41027e-08
1.17258e-06
3.19183e-07
3.1916e-06
6.11427e-07
4.84482e-06
9.11909e-07
6.12348e-06
1.17412e-06
7.044e-06
1.36681e-06
7.63984e-06
1.47356e-06
7.95461e-06
1.49029e-06
8.03584e-06
1.42207e-06
7.93006e-06
1.27981e-06
7.67961e-06
1.07757e-06
7.32098e-06
8.3048e-07
6.88432e-06
5.53377e-07
6.39365e-06
2.59922e-07
5.86747e-06
-3.78233e-08
5.31965e-06
-3.29555e-07
4.76022e-06
-6.067e-07
4.19622e-06
-8.62288e-07
3.63237e-06
-1.09078e-06
3.07166e-06
-1.28789e-06
2.51581e-06
-1.4504e-06
1.96564e-06
-1.57599e-06
1.4214e-06
-1.66313e-06
8.82945e-07
-1.711e-06
3.49911e-07
-1.71935e-06
-1.78126e-07
-1.68854e-06
-7.01568e-07
-1.61943e-06
-1.22071e-06
-1.51348e-06
-1.73566e-06
-1.37268e-06
-2.2463e-06
-1.19966e-06
-2.75217e-06
-9.97739e-07
-3.25245e-06
-7.70984e-07
-3.7458e-06
-5.24318e-07
-4.23028e-06
-2.63611e-07
-4.70321e-06
4.23337e-09
-5.16091e-06
2.7121e-07
-5.59848e-06
5.28194e-07
-6.00947e-06
7.65001e-07
-6.38545e-06
9.70582e-07
-6.71557e-06
1.13343e-06
-6.98597e-06
1.24223e-06
-7.17924e-06
1.28696e-06
-7.27395e-06
1.26034e-06
-7.24434e-06
1.15985e-06
-7.06044e-06
9.90097e-07
-6.68896e-06
7.65284e-07
-6.09519e-06
5.11234e-07
-5.24634e-06
2.66018e-07
-4.11629e-06
7.80651e-08
-2.69159e-06
-9.80224e-07
8.08779e-08
1.0917e-06
2.78406e-07
2.99407e-06
5.42154e-07
4.58108e-06
8.24144e-07
5.84149e-06
1.08451e-06
6.78363e-06
1.29425e-06
7.4301e-06
1.43571e-06
7.81314e-06
1.50146e-06
7.97009e-06
1.49218e-06
7.93934e-06
1.41437e-06
7.75742e-06
1.27817e-06
7.45718e-06
1.09559e-06
7.06691e-06
8.79145e-07
6.61009e-06
6.40971e-07
6.10565e-06
3.92224e-07
5.5684e-06
1.42796e-07
5.00965e-06
-9.88064e-08
4.43782e-06
-3.25448e-07
3.85901e-06
-5.3129e-07
3.2775e-06
-7.11675e-07
2.69619e-06
-8.62999e-07
2.11697e-06
-9.8259e-07
1.541e-06
-1.0686e-06
9.68956e-07
-1.11992e-06
4.01232e-07
-1.13611e-06
-1.61936e-07
-1.11735e-06
-7.20327e-07
-1.06443e-06
-1.27363e-06
-9.78716e-07
-1.82137e-06
-8.6221e-07
-2.36281e-06
-7.17546e-07
-2.89684e-06
-5.48048e-07
-3.42195e-06
-3.57785e-07
-3.93606e-06
-1.51629e-07
-4.43644e-06
6.46887e-08
-4.91953e-06
2.84542e-07
-5.38076e-06
5.00404e-07
-5.81434e-06
7.03897e-07
-6.21296e-06
8.85937e-07
-6.56749e-06
1.037e-06
-6.86664e-06
1.14759e-06
-7.09655e-06
1.20888e-06
-7.24053e-06
1.21374e-06
-7.2788e-06
1.15793e-06
-7.18853e-06
1.04171e-06
-6.94422e-06
8.71527e-07
-6.51878e-06
6.61578e-07
-5.88524e-06
4.34864e-07
-5.01963e-06
2.23062e-07
-3.90449e-06
6.46007e-08
-2.53313e-06
-9.15623e-07
7.00257e-08
1.02167e-06
2.43913e-07
2.82018e-06
4.81254e-07
4.34373e-06
7.42786e-07
5.57996e-06
9.94583e-07
6.53184e-06
1.21048e-06
7.2142e-06
1.37294e-06
7.65068e-06
1.47266e-06
7.87037e-06
1.50736e-06
7.90464e-06
1.48017e-06
7.78461e-06
1.39798e-06
7.53937e-06
1.26995e-06
7.19494e-06
1.10634e-06
6.7737e-06
9.17578e-07
6.29441e-06
7.13671e-07
5.7723e-06
5.03794e-07
5.21953e-06
2.96083e-07
4.64553e-06
9.75546e-08
4.05754e-06
-8.58972e-08
3.46095e-06
-2.49451e-07
2.85974e-06
-3.8928e-07
2.2568e-06
-5.02469e-07
1.65418e-06
-5.86927e-07
1.05341e-06
-6.41318e-07
4.55623e-07
-6.65001e-07
-1.38253e-07
-6.57988e-07
-7.2734e-07
-6.20918e-07
-1.3107e-06
-5.55049e-07
-1.88724e-06
-4.62265e-07
-2.45559e-06
-3.45093e-07
-3.01401e-06
-2.06731e-07
-3.56031e-06
-5.10859e-08
-4.0917e-06
1.17202e-07
-4.60473e-06
2.92731e-07
-5.09506e-06
4.69347e-07
-5.55737e-06
6.40179e-07
-5.98517e-06
7.97742e-07
-6.37052e-06
9.34126e-07
-6.70388e-06
1.0413e-06
-6.97381e-06
1.11156e-06
-7.16681e-06
1.13819e-06
-7.26716e-06
1.11625e-06
-7.25687e-06
1.04368e-06
-7.11595e-06
9.22391e-07
-6.82294e-06
7.59517e-07
-6.3559e-06
5.6836e-07
-5.69408e-06
3.68849e-07
-4.82012e-06
1.87086e-07
-3.72273e-06
5.36274e-08
-2.39967e-06
-8.61996e-07
6.08868e-08
9.60786e-07
2.14129e-07
2.66694e-06
4.2699e-07
4.13087e-06
6.67178e-07
5.33977e-06
9.05948e-07
6.29307e-06
1.12011e-06
7.00003e-06
1.29302e-06
7.47777e-06
1.41459e-06
7.7488e-06
1.48064e-06
7.83859e-06
1.49185e-06
7.77341e-06
1.45248e-06
7.57873e-06
1.36929e-06
7.27813e-06
1.25041e-06
6.89258e-06
1.10459e-06
6.44022e-06
9.40559e-07
5.93634e-06
7.66581e-07
5.3935e-06
5.90212e-07
4.8219e-06
4.18132e-07
4.22962e-06
2.5609e-07
3.623e-06
1.08895e-07
3.00694e-06
-1.95496e-08
2.38524e-06
-1.26194e-07
1.76083e-06
-2.08784e-07
1.136e-06
-2.65809e-07
5.12648e-07
-2.96448e-07
-1.07614e-07
-3.00538e-07
-7.23251e-07
-2.78543e-07
-1.3327e-06
-2.31546e-07
-1.93424e-06
-1.61248e-07
-2.52589e-06
-6.99706e-08
-3.10529e-06
3.9323e-08
-3.6696e-06
1.63019e-07
-4.2154e-06
2.9684e-07
-4.73855e-06
4.35854e-07
-5.23407e-06
5.74501e-07
-5.69602e-06
7.06669e-07
-6.11734e-06
8.25821e-07
-6.48967e-06
9.25201e-07
-6.80326e-06
9.98146e-07
-7.04675e-06
1.03851e-06
-7.20718e-06
1.04123e-06
-7.26988e-06
1.00302e-06
-7.21866e-06
9.2322e-07
-7.03615e-06
8.04604e-07
-6.70432e-06
6.54247e-07
-6.20555e-06
4.84077e-07
-5.52392e-06
3.11006e-07
-4.64704e-06
1.56363e-07
-3.56808e-06
4.44627e-08
-2.28777e-06
-8.17533e-07
5.30078e-08
9.07778e-07
1.87903e-07
2.53204e-06
3.77953e-07
3.94082e-06
5.96497e-07
5.12122e-06
8.19254e-07
6.07031e-06
1.02594e-06
6.79335e-06
1.20121e-06
7.3025e-06
1.33492e-06
7.61509e-06
1.42181e-06
7.7517e-06
1.46083e-06
7.73439e-06
1.45425e-06
7.58531e-06
1.4068e-06
7.32558e-06
1.32476e-06
6.97462e-06
1.21528e-06
6.5497e-06
1.08579e-06
6.06583e-06
9.4356e-07
5.53573e-06
7.95428e-07
4.97004e-06
6.47583e-07
4.37747e-06
5.0547e-07
3.76511e-06
3.73743e-07
3.13867e-06
2.56258e-07
2.50273e-06
1.56098e-07
1.86099e-06
7.56006e-08
1.2165e-06
1.64043e-08
5.71844e-07
-2.05195e-08
-7.06903e-08
-3.48329e-08
-7.08937e-07
-2.68091e-08
-1.34072e-06
2.68252e-09
-1.96373e-06
5.21826e-08
-2.57539e-06
1.19644e-07
-3.17275e-06
2.02428e-07
-3.75238e-06
2.97302e-07
-4.31027e-06
4.00453e-07
-4.8417e-06
5.07501e-07
-5.34112e-06
6.13559e-07
-5.80208e-06
7.13314e-07
-6.21709e-06
8.01168e-07
-6.57753e-06
8.71449e-07
-6.87354e-06
9.18698e-07
-7.094e-06
9.38055e-07
-7.22653e-06
9.2574e-07
-7.25756e-06
8.79627e-07
-7.17255e-06
7.99872e-07
-6.95639e-06
6.89555e-07
-6.594e-06
5.55218e-07
-6.07121e-06
4.07196e-07
-5.37589e-06
2.59572e-07
-4.49942e-06
1.29617e-07
-3.43813e-06
3.66296e-08
-2.19479e-06
-7.80904e-07
4.60682e-08
8.6171e-07
1.64385e-07
2.41373e-06
3.3302e-07
3.77219e-06
5.29924e-07
4.92432e-06
7.34652e-07
5.86558e-06
9.29646e-07
6.59835e-06
1.10108e-06
7.13106e-06
1.23921e-06
7.47696e-06
1.33827e-06
7.65263e-06
1.3961e-06
7.67656e-06
1.41349e-06
7.56792e-06
1.39354e-06
7.34554e-06
1.34094e-06
7.02722e-06
1.2614e-06
6.62924e-06
1.1611e-06
6.16613e-06
1.0463e-06
5.65053e-06
9.23038e-07
5.0933e-06
7.96908e-07
4.5036e-06
6.72942e-07
3.88907e-06
5.55526e-07
3.25608e-06
4.48366e-07
2.60989e-06
3.54486e-07
1.95487e-06
2.76243e-07
1.29474e-06
2.15348e-07
6.32738e-07
1.72896e-07
-2.82382e-08
1.49386e-07
-6.85428e-07
1.44746e-07
-1.33608e-06
1.58343e-07
-1.97733e-06
1.88999e-07
-2.60604e-06
2.34993e-07
-3.21874e-06
2.94069e-07
-3.81146e-06
3.63443e-07
-4.37965e-06
4.39823e-07
-4.91808e-06
5.19439e-07
-5.42073e-06
5.98105e-07
-5.88075e-06
6.71309e-07
-6.2903e-06
7.3435e-07
-6.64057e-06
7.82538e-07
-6.92173e-06
8.11447e-07
-7.12291e-06
8.17251e-07
-7.23234e-06
7.97122e-07
-7.23743e-06
7.4969e-07
-7.12512e-06
6.75526e-07
-6.88223e-06
5.77597e-07
-6.49607e-06
4.61638e-07
-5.95525e-06
3.36322e-07
-5.25058e-06
2.13136e-07
-4.37623e-06
1.05888e-07
-3.33088e-06
2.97859e-08
-2.11868e-06
-7.51118e-07
3.98361e-08
8.21874e-07
1.4294e-07
2.31062e-06
2.91302e-07
3.62383e-06
4.66712e-07
4.74891e-06
6.52036e-07
5.68026e-06
8.32231e-07
6.41816e-06
9.95065e-07
6.96823e-06
1.13148e-06
7.34054e-06
1.23566e-06
7.54846e-06
1.30475e-06
7.60747e-06
1.33851e-06
7.53416e-06
1.33877e-06
7.34528e-06
1.30891e-06
7.05708e-06
1.25336e-06
6.6848e-06
1.17714e-06
6.24235e-06
1.08552e-06
5.74215e-06
9.83724e-07
5.1951e-06
8.76692e-07
4.61063e-06
7.68964e-07
3.9968e-06
6.64571e-07
3.36048e-06
5.66987e-07
2.70747e-06
4.79106e-07
2.04275e-06
4.03239e-07
1.37061e-06
3.41124e-07
6.94853e-07
2.93944e-07
1.89415e-08
2.62345e-07
-6.53829e-07
2.46451e-07
-1.32019e-06
2.45881e-07
-1.97676e-06
2.5976e-07
-2.61992e-06
2.86727e-07
-3.24571e-06
3.24946e-07
-3.84968e-06
3.72121e-07
-4.42682e-06
4.25516e-07
-4.97147e-06
4.81996e-07
-5.47721e-06
5.38079e-07
-5.93683e-06
5.90033e-07
-6.34225e-06
6.33992e-07
-6.68453e-06
6.66137e-07
-6.95387e-06
6.8291e-07
-7.13969e-06
6.81299e-07
-7.23073e-06
6.59158e-07
-7.21529e-06
6.15563e-07
-7.08153e-06
5.51186e-07
-6.81785e-06
4.68623e-07
-6.41351e-06
3.72635e-07
-5.85926e-06
2.70241e-07
-5.14818e-06
1.70569e-07
-4.27656e-06
8.4445e-08
-3.24476e-06
2.368e-08
-2.05792e-06
-7.27438e-07
3.414e-08
7.87734e-07
1.23082e-07
2.22168e-06
2.52095e-07
3.49481e-06
4.06211e-07
4.59479e-06
5.71183e-07
5.51529e-06
7.34274e-07
6.25507e-06
8.84847e-07
6.81766e-06
1.01473e-06
7.21066e-06
1.1183e-06
7.44488e-06
1.19243e-06
7.53335e-06
1.23614e-06
7.49045e-06
1.25032e-06
7.3311e-06
1.23727e-06
7.07012e-06
1.20034e-06
6.72173e-06
1.14351e-06
6.29918e-06
1.0711e-06
5.81455e-06
9.87522e-07
5.27868e-06
8.97042e-07
4.70111e-06
8.03658e-07
4.09019e-06
7.10989e-07
3.45315e-06
6.22212e-07
2.79625e-06
5.40029e-07
2.12493e-06
4.6665e-07
1.44399e-06
4.03796e-07
7.57707e-07
3.52706e-07
7.00312e-08
3.1415e-07
-6.15272e-07
2.8844e-07
-1.29448e-06
2.75446e-07
-1.96376e-06
2.74607e-07
-2.61908e-06
2.84937e-07
-3.25604e-06
3.05044e-07
-3.86979e-06
3.33138e-07
-4.45492e-06
3.67059e-07
-5.00539e-06
4.04306e-07
-5.51446e-06
4.42096e-07
-5.97462e-06
4.77433e-07
-6.37759e-06
5.07223e-07
-6.71432e-06
5.28411e-07
-6.97506e-06
5.38166e-07
-7.14944e-06
5.34102e-07
-7.22666e-06
5.14537e-07
-7.19573e-06
4.78766e-07
-7.04575e-06
4.27339e-07
-6.76642e-06
3.623e-07
-6.34847e-06
2.87358e-07
-5.78432e-06
2.0792e-07
-5.06875e-06
1.30969e-07
-4.19961e-06
6.47273e-08
-3.17852e-06
1.8123e-08
-2.01132e-06
-7.09315e-07
2.885e-08
7.58884e-07
1.04439e-07
2.14609e-06
2.14832e-07
3.38442e-06
3.4786e-07
4.46177e-06
4.91822e-07
5.37133e-06
6.36093e-07
6.1108e-06
7.71605e-07
6.68215e-06
8.91162e-07
7.09111e-06
9.8958e-07
7.34646e-06
1.06365e-06
7.45928e-06
1.11199e-06
7.4421e-06
1.13479e-06
7.3083e-06
1.13349e-06
7.07142e-06
1.1105e-06
6.74472e-06
1.0689e-06
6.34078e-06
1.01214e-06
5.87132e-06
9.43825e-07
5.34699e-06
8.67559e-07
4.77737e-06
7.86767e-07
4.17098e-06
7.04613e-07
3.5353e-06
6.23931e-07
2.87693e-06
5.47179e-07
2.20169e-06
4.76423e-07
1.51475e-06
4.13323e-07
8.20807e-07
3.59142e-07
1.24213e-07
3.14747e-07
-5.70877e-07
2.80624e-07
-1.26036e-06
2.56886e-07
-1.94003e-06
2.43284e-07
-2.60548e-06
2.39215e-07
-3.25197e-06
2.43735e-07
-3.87431e-06
2.55568e-07
-4.46675e-06
2.73131e-07
-5.02295e-06
2.94553e-07
-5.53588e-06
3.17725e-07
-5.99779e-06
3.40353e-07
-6.40022e-06
3.60047e-07
-6.73401e-06
3.74426e-07
-6.98944e-06
3.81264e-07
-7.15628e-06
3.78658e-07
-7.22406e-06
3.65223e-07
-7.18229e-06
3.40301e-07
-7.02083e-06
3.04167e-07
-6.73029e-06
2.58205e-07
-6.30251e-06
2.05026e-07
-5.73114e-06
1.48491e-07
-5.01221e-06
9.36093e-08
-4.14473e-06
4.6295e-08
-3.1312e-06
1.29706e-08
-1.97799e-06
-6.96344e-07
2.38656e-08
7.35018e-07
8.67134e-08
2.08324e-06
1.79054e-07
3.29208e-06
2.91178e-07
4.34964e-06
4.13666e-07
5.24884e-06
5.37846e-07
5.98662e-06
6.56167e-07
6.56382e-06
7.62475e-07
6.9848e-06
8.52147e-07
7.25679e-06
9.22117e-07
7.38931e-06
9.70779e-07
7.39344e-06
9.97832e-07
7.28125e-06
1.00406e-06
7.0652e-06
9.91094e-07
6.75768e-06
9.61196e-07
6.37068e-06
9.17018e-07
5.91549e-06
8.6143e-07
5.40258e-06
7.97354e-07
4.84145e-06
7.27638e-07
4.24069e-06
6.54967e-07
3.60797e-06
5.81794e-07
2.9501e-06
5.10295e-07
2.27318e-06
4.42348e-07
1.58269e-06
3.79518e-07
8.83637e-07
3.23056e-07
1.80675e-07
2.73902e-07
-5.21723e-07
2.32694e-07
-1.21915e-06
1.99773e-07
-1.90711e-06
1.75194e-07
-2.5809e-06
1.58731e-07
-3.23551e-06
1.49885e-07
-3.86546e-06
1.47894e-07
-4.46476e-06
1.51743e-07
-5.0268e-06
1.6018e-07
-5.54432e-06
1.71748e-07
-6.00936e-06
1.84816e-07
-6.41328e-06
1.97645e-07
-6.74684e-06
2.08457e-07
-7.00025e-06
2.15537e-07
-7.16336e-06
2.17355e-07
-7.22588e-06
2.12704e-07
-7.17764e-06
2.00855e-07
-7.00898e-06
1.81703e-07
-6.71114e-06
1.55901e-07
-6.27671e-06
1.24951e-07
-5.70019e-06
9.12251e-08
-4.97848e-06
5.79013e-08
-4.11141e-06
2.87995e-08
-3.1021e-06
8.11009e-09
-1.9573e-06
-6.88234e-07
1.91059e-08
7.15913e-07
6.96653e-08
2.03269e-06
1.44376e-07
3.21737e-06
2.35743e-07
4.25828e-06
3.36429e-07
5.14815e-06
4.3958e-07
5.88347e-06
5.39119e-07
6.46429e-06
6.2996e-07
6.89396e-06
7.0814e-07
7.17861e-06
7.70866e-07
7.32658e-06
8.16477e-07
7.34783e-06
8.44345e-07
7.25338e-06
8.54734e-07
7.05481e-06
8.48634e-07
6.76378e-06
8.27587e-07
6.39173e-06
7.93519e-07
5.94956e-06
7.48594e-07
5.4475e-06
6.95079e-07
4.89497e-06
6.35241e-07
4.30053e-06
5.71268e-07
3.67194e-06
5.05203e-07
3.01617e-06
4.3891e-07
2.33948e-06
3.74043e-07
1.64756e-06
3.12036e-07
9.45644e-07
2.54097e-07
2.38614e-07
2.01211e-07
-4.68837e-07
1.54143e-07
-1.17208e-06
1.13444e-07
-1.86641e-06
7.94562e-08
-2.54691e-06
5.23192e-08
-3.20837e-06
3.19715e-08
-3.84511e-06
1.8153e-08
-4.45094e-06
1.04084e-08
-5.01906e-06
8.09152e-09
-5.542e-06
1.03744e-08
-6.01164e-06
1.62645e-08
-6.41917e-06
2.46311e-08
-6.75521e-06
3.42472e-08
-7.00986e-06
4.3846e-08
-7.17296e-06
5.21952e-08
-7.23423e-06
5.81875e-08
-7.18363e-06
6.09421e-08
-7.01174e-06
5.99116e-08
-6.71011e-06
5.49796e-08
-6.27178e-06
4.65364e-08
-5.69175e-06
3.55135e-08
-4.96746e-06
2.33613e-08
-4.09925e-06
1.1959e-08
-3.0907e-06
3.45167e-09
-1.94879e-06
-6.84782e-07
1.45042e-08
7.01408e-07
5.30913e-08
1.9941e-06
1.10468e-07
3.15999e-06
1.81179e-07
4.18757e-06
2.59821e-07
5.06951e-06
3.41268e-07
5.80202e-06
4.20872e-07
6.38468e-06
4.94629e-07
6.8202e-06
5.59299e-07
7.11394e-06
6.12459e-07
7.27342e-06
6.52508e-07
7.30778e-06
6.78616e-07
7.22728e-06
6.90643e-07
7.04278e-06
6.89033e-07
6.76539e-06
6.74697e-07
6.40606e-06
6.48892e-07
5.97537e-06
6.13111e-07
5.48328e-06
5.68987e-07
4.93909e-06
5.18207e-07
4.35131e-06
4.62449e-07
3.7277e-06
4.03328e-07
3.07529e-06
3.42364e-07
2.40044e-06
2.80959e-07
1.70897e-06
2.20383e-07
1.00622e-06
1.61772e-07
2.97225e-07
1.06124e-07
-4.1319e-07
5.43054e-08
-1.12026e-06
7.05374e-09
-1.81916e-06
-3.50194e-08
-2.50484e-06
-7.14266e-08
-3.17196e-06
-1.01807e-07
-3.81473e-06
-1.25929e-07
-4.42682e-06
-1.437e-07
-5.00129e-06
-1.55175e-07
-5.53053e-06
-1.60563e-07
-6.00625e-06
-1.6024e-07
-6.4195e-06
-1.5475e-07
-6.7607e-06
-1.44797e-07
-7.01982e-06
-1.31238e-07
-7.18652e-06
-1.15048e-07
-7.25042e-06
-9.72789e-08
-7.2014e-06
-7.90044e-08
-7.03001e-06
-6.12501e-08
-6.72786e-06
-4.49212e-08
-6.28811e-06
-3.07332e-08
-5.70594e-06
-1.9161e-08
-4.97903e-06
-1.04151e-08