/*--------------------------------*- C++ -*----------------------------------*\
  =========                 |
  \\      /  F ield         | OpenFOAM: The Open Source CFD Toolbox
   \\    /   O peration     | Website:  https://openfoam.org
    \\  /    A nd           | Version:  7
     \\/     M anipulation  |
\*---------------------------------------------------------------------------*/
FoamFile
{
    version     2.0;
    format      ascii;
    class       volVectorField;
    location    "0.0224";
    object      U;
}
// * * * * * * * * * * * * * * * * * * * * * * * * * * * * * * * * * * * * * //

dimensions      [0 1 -1 0 0 0 0];

internalField   nonuniform List<vector> 
2500
(
(-0.293841 0.15376 0)
(-0.398022 0.128747 0)
(-0.578019 0.0737844 0)
(-0.696173 0.0408352 0)
(-0.764932 0.0233288 0)
(-0.808966 0.0140551 0)
(-0.839194 0.00905338 0)
(-0.860874 0.00623271 0)
(-0.87705 0.00453384 0)
(-0.889516 0.00343652 0)
(-0.899354 0.00268246 0)
(-0.907251 0.0021376 0)
(-0.913669 0.0017281 0)
(-0.918931 0.00141065 0)
(-0.923266 0.0011583 0)
(-0.926846 0.000953349 0)
(-0.929799 0.000783682 0)
(-0.932222 0.000640675 0)
(-0.93419 0.000517992 0)
(-0.935763 0.000410837 0)
(-0.936983 0.000315474 0)
(-0.937885 0.000228902 0)
(-0.938493 0.000148633 0)
(-0.938825 7.25299e-05 0)
(-0.93889 -1.31299e-06 0)
(-0.938694 -7.46973e-05 0)
(-0.938235 -0.000149352 0)
(-0.937504 -0.000227057 0)
(-0.936489 -0.000309722 0)
(-0.935169 -0.000399483 0)
(-0.933517 -0.000498829 0)
(-0.931495 -0.000610769 0)
(-0.929057 -0.000739057 0)
(-0.926141 -0.000888529 0)
(-0.922671 -0.0010656 0)
(-0.918546 -0.00127907 0)
(-0.913636 -0.00154139 0)
(-0.907767 -0.00187092 0)
(-0.900707 -0.00229606 0)
(-0.89213 -0.00286305 0)
(-0.881568 -0.00365172 0)
(-0.868325 -0.00480762 0)
(-0.8513 -0.00660938 0)
(-0.82868 -0.00960773 0)
(-0.79744 -0.0148889 0)
(-0.752429 -0.0245046 0)
(-0.682905 -0.0421855 0)
(-0.565195 -0.074676 0)
(-0.389438 -0.128185 0)
(-0.290233 -0.152396 0)
(-0.00518542 0.302987 0)
(-0.0270321 0.30732 0)
(-0.171022 0.217591 0)
(-0.30739 0.146206 0)
(-0.415594 0.0986812 0)
(-0.499929 0.0682935 0)
(-0.565264 0.0489362 0)
(-0.616034 0.0363102 0)
(-0.655945 0.0277595 0)
(-0.687748 0.021735 0)
(-0.713403 0.0173337 0)
(-0.734311 0.0140155 0)
(-0.751485 0.0114458 0)
(-0.765672 0.00940947 0)
(-0.777426 0.00776298 0)
(-0.78717 0.0064073 0)
(-0.795226 0.00527197 0)
(-0.801844 0.00430541 0)
(-0.807218 0.00346886 0)
(-0.811499 0.00273241 0)
(-0.814805 0.00207239 0)
(-0.817224 0.0014695 0)
(-0.818822 0.000907566 0)
(-0.819645 0.000372558 0)
(-0.819719 -0.000148149 0)
(-0.819057 -0.000666382 0)
(-0.817653 -0.00119368 0)
(-0.815488 -0.0017418 0)
(-0.812525 -0.00232328 0)
(-0.80871 -0.00295201 0)
(-0.803971 -0.00364398 0)
(-0.79821 -0.00441823 0)
(-0.791306 -0.00529818 0)
(-0.783103 -0.0063134 0)
(-0.773402 -0.00750231 0)
(-0.761955 -0.00891616 0)
(-0.74844 -0.0106251 0)
(-0.732443 -0.0127281 0)
(-0.713421 -0.0153688 0)
(-0.690653 -0.0187632 0)
(-0.663164 -0.0232472 0)
(-0.629621 -0.0293606 0)
(-0.58818 -0.0379967 0)
(-0.536298 -0.0506625 0)
(-0.470639 -0.0698778 0)
(-0.387347 -0.0995768 0)
(-0.28225 -0.145159 0)
(-0.151894 -0.212796 0)
(-0.0166522 -0.298407 0)
(-0.00103994 -0.294795 0)
(0.0321284 0.264082 0)
(0.0566026 0.362036 0)
(-0.00282382 0.324218 0)
(-0.0941669 0.259325 0)
(-0.189315 0.19926 0)
(-0.276607 0.151879 0)
(-0.351967 0.116658 0)
(-0.415225 0.0908402 0)
(-0.467773 0.0717881 0)
(-0.511335 0.0575103 0)
(-0.547499 0.0466094 0)
(-0.577603 0.0381256 0)
(-0.602728 0.0314002 0)
(-0.623732 0.0259755 0)
(-0.641297 0.0215284 0)
(-0.655958 0.0178261 0)
(-0.668142 0.0146972 0)
(-0.678187 0.012013 0)
(-0.686362 0.00967494 0)
(-0.692879 0.00760532 0)
(-0.697904 0.00574192 0)
(-0.701565 0.00403338 0)
(-0.703958 0.00243622 0)
(-0.705148 0.000912445 0)
(-0.705176 -0.000572304 0)
(-0.70406 -0.00205022 0)
(-0.701795 -0.00355271 0)
(-0.698351 -0.0051117 0)
(-0.693679 -0.00676092 0)
(-0.687703 -0.00853741 0)
(-0.68032 -0.0104833 0)
(-0.671398 -0.0126483 0)
(-0.660768 -0.0150922 0)
(-0.648223 -0.0178895 0)
(-0.6335 -0.0211349 0)
(-0.616279 -0.0249517 0)
(-0.59616 -0.0295037 0)
(-0.572645 -0.0350131 0)
(-0.545118 -0.0417874 0)
(-0.512808 -0.05026 0)
(-0.474768 -0.0610505 0)
(-0.429853 -0.075052 0)
(-0.376754 -0.0935461 0)
(-0.314137 -0.118325 0)
(-0.241113 -0.151702 0)
(-0.158367 -0.195971 0)
(-0.0702339 -0.251249 0)
(0.0119428 -0.310163 0)
(0.0618235 -0.343612 0)
(0.0329762 -0.250158 0)
(0.0272075 0.205113 0)
(0.0641687 0.357019 0)
(0.0563928 0.374056 0)
(0.0103751 0.33614 0)
(-0.0555507 0.282804 0)
(-0.127101 0.231343 0)
(-0.196173 0.187521 0)
(-0.259044 0.152025 0)
(-0.314501 0.123797 0)
(-0.362587 0.101416 0)
(-0.403892 0.083582 0)
(-0.439185 0.0692413 0)
(-0.469241 0.0575822 0)
(-0.494768 0.0479902 0)
(-0.516378 0.040002 0)
(-0.534592 0.0332663 0)
(-0.549844 0.0275142 0)
(-0.56249 0.022537 0)
(-0.572826 0.0181701 0)
(-0.581087 0.0142816 0)
(-0.587464 0.0107634 0)
(-0.592106 0.00752535 0)
(-0.595123 0.0044899 0)
(-0.596596 0.00158884 0)
(-0.596574 -0.00123985 0)
(-0.59508 -0.00405443 0)
(-0.592109 -0.00691164 0)
(-0.587632 -0.00986878 0)
(-0.581592 -0.0129859 0)
(-0.573907 -0.0163282 0)
(-0.564463 -0.0199689 0)
(-0.553117 -0.0239923 0)
(-0.539689 -0.0284988 0)
(-0.523962 -0.03361 0)
(-0.505671 -0.0394767 0)
(-0.484502 -0.0462894 0)
(-0.460084 -0.0542921 0)
(-0.431983 -0.0638013 0)
(-0.399702 -0.0752317 0)
(-0.362692 -0.0891279 0)
(-0.320386 -0.106201 0)
(-0.27228 -0.127359 0)
(-0.218108 -0.153697 0)
(-0.158188 -0.186369 0)
(-0.0940457 -0.226138 0)
(-0.0294761 -0.272137 0)
(0.0278486 -0.318947 0)
(0.0648925 -0.350914 0)
(0.0656307 -0.332371 0)
(0.0268277 -0.190258 0)
(0.0185414 0.163078 0)
(0.0536786 0.330057 0)
(0.0701619 0.384261 0)
(0.056032 0.375824 0)
(0.0183845 0.339125 0)
(-0.0321185 0.293759 0)
(-0.0873773 0.249291 0)
(-0.142254 0.209564 0)
(-0.193874 0.175574 0)
(-0.240876 0.147065 0)
(-0.282806 0.12333 0)
(-0.319711 0.103573 0)
(-0.351886 0.0870649 0)
(-0.379726 0.0731813 0)
(-0.403649 0.0614112 0)
(-0.424055 0.0513408 0)
(-0.441307 0.0426369 0)
(-0.455722 0.0350298 0)
(-0.467574 0.0283001 0)
(-0.477091 0.0222665 0)
(-0.484462 0.0167775 0)
(-0.489836 0.0117039 0)
(-0.493329 0.0069333 0)
(-0.495027 0.0023656 0)
(-0.494982 -0.00209074 0)
(-0.493222 -0.00652197 0)
(-0.489747 -0.0110119 0)
(-0.48453 -0.0156446 0)
(-0.477519 -0.0205073 0)
(-0.468635 -0.0256933 0)
(-0.457775 -0.0313056 0)
(-0.444805 -0.0374603 0)
(-0.429567 -0.0442922 0)
(-0.411869 -0.0519603 0)
(-0.391495 -0.0606551 0)
(-0.368198 -0.0706085 0)
(-0.341712 -0.0821039 0)
(-0.31176 -0.0954894 0)
(-0.278079 -0.11119 0)
(-0.240462 -0.129712 0)
(-0.198838 -0.151641 0)
(-0.153407 -0.177587 0)
(-0.104858 -0.208048 0)
(-0.0547234 -0.243088 0)
(-0.00586042 -0.281643 0)
(0.0369693 -0.320156 0)
(0.0665734 -0.350124 0)
(0.0737787 -0.354274 0)
(0.0532435 -0.302173 0)
(0.0178943 -0.148708 0)
(0.0120626 0.133951 0)
(0.0415233 0.298177 0)
(0.0672458 0.373867 0)
(0.0722959 0.389829 0)
(0.0563782 0.371763 0)
(0.0254828 0.337516 0)
(-0.0141974 0.297867 0)
(-0.0577385 0.258603 0)
(-0.101695 0.222432 0)
(-0.143902 0.190332 0)
(-0.183141 0.162392 0)
(-0.218822 0.138295 0)
(-0.250753 0.117573 0)
(-0.278969 0.0997329 0)
(-0.303635 0.0843146 0)
(-0.324971 0.0709108 0)
(-0.343216 0.0591709 0)
(-0.358605 0.0487962 0)
(-0.371355 0.0395329 0)
(-0.381657 0.0311644 0)
(-0.389678 0.0235045 0)
(-0.395552 0.0163908 0)
(-0.399389 0.00967967 0)
(-0.401269 0.00324136 0)
(-0.401247 -0.00304363 0)
(-0.399352 -0.00928824 0)
(-0.39559 -0.015602 0)
(-0.389941 -0.0220941 0)
(-0.382367 -0.0288764 0)
(-0.372804 -0.0360666 0)
(-0.36117 -0.0437917 0)
(-0.347362 -0.0521917 0)
(-0.33126 -0.0614239 0)
(-0.312732 -0.0716679 0)
(-0.291637 -0.0831302 0)
(-0.267834 -0.0960501 0)
(-0.241199 -0.110703 0)
(-0.211651 -0.127403 0)
(-0.179186 -0.146495 0)
(-0.143945 -0.168332 0)
(-0.106297 -0.193227 0)
(-0.0669848 -0.221335 0)
(-0.0273082 -0.25244 0)
(0.0106328 -0.28555 0)
(0.0436996 -0.318197 0)
(0.0676159 -0.345311 0)
(0.0772067 -0.357605 0)
(0.0677096 -0.339699 0)
(0.0402974 -0.26918 0)
(0.0114568 -0.12039 0)
(0.00799206 0.113028 0)
(0.0318621 0.267852 0)
(0.059566 0.354196 0)
(0.0748724 0.387775 0)
(0.0738076 0.386392 0)
(0.0586505 0.36461 0)
(0.033294 0.33269 0)
(0.00163041 0.297152 0)
(-0.033099 0.261774 0)
(-0.0684968 0.228518 0)
(-0.102936 0.198242 0)
(-0.135394 0.171171 0)
(-0.165288 0.147197 0)
(-0.192329 0.126049 0)
(-0.216424 0.1074 0)
(-0.237598 0.0909107 0)
(-0.255944 0.076262 0)
(-0.27159 0.0631615 0)
(-0.284671 0.051347 0)
(-0.295326 0.0405855 0)
(-0.30368 0.0306695 0)
(-0.309841 0.0214134 0)
(-0.3139 0.0126493 0)
(-0.31593 0.00422359 0)
(-0.315979 -0.0040067 0)
(-0.31408 -0.0121773 0)
(-0.310244 -0.0204194 0)
(-0.304462 -0.028863 0)
(-0.296712 -0.0376394 0)
(-0.286954 -0.0468843 0)
(-0.275137 -0.0567403 0)
(-0.261198 -0.0673603 0)
(-0.245073 -0.0789099 0)
(-0.226699 -0.0915698 0)
(-0.206024 -0.105538 0)
(-0.183026 -0.121027 0)
(-0.15773 -0.138266 0)
(-0.130241 -0.157479 0)
(-0.100787 -0.178874 0)
(-0.0697818 -0.202585 0)
(-0.0379058 -0.228597 0)
(-0.00621198 -0.2566 0)
(0.0237539 -0.285743 0)
(0.0498449 -0.314257 0)
(0.0692934 -0.338882 0)
(0.0789177 -0.354096 0)
(0.0756942 -0.351262 0)
(0.0581233 -0.318044 0)
(0.0303335 -0.239065 0)
(0.00748 -0.10039 0)
(0.00555395 0.0974981 0)
(0.0249059 0.240936 0)
(0.0514916 0.331122 0)
(0.071594 0.376305 0)
(0.0799278 0.388304 0)
(0.0763806 0.37826 0)
(0.0628825 0.355066 0)
(0.0420896 0.325113 0)
(0.0166407 0.292628 0)
(-0.0112279 0.260207 0)
(-0.0397944 0.22931 0)
(-0.0678207 0.200656 0)
(-0.0944683 0.17451 0)
(-0.119205 0.150869 0)
(-0.14172 0.129583 0)
(-0.161859 0.11043 0)
(-0.179567 0.0931606 0)
(-0.194859 0.0775217 0)
(-0.207783 0.0632686 0)
(-0.218409 0.0501719 0)
(-0.226813 0.0380185 0)
(-0.23307 0.0266117 0)
(-0.237245 0.0157693 0)
(-0.239394 0.00532146 0)
(-0.239561 -0.00489165 0)
(-0.237777 -0.0150224 0)
(-0.234057 -0.0252179 0)
(-0.228407 -0.0356228 0)
(-0.220823 -0.0463811 0)
(-0.211291 -0.0576382 0)
(-0.199795 -0.0695432 0)
(-0.18632 -0.0822498 0)
(-0.170858 -0.0959174 0)
(-0.153418 -0.11071 0)
(-0.13404 -0.126796 0)
(-0.112809 -0.144337 0)
(-0.0898824 -0.163483 0)
(-0.0655174 -0.184343 0)
(-0.0401131 -0.206956 0)
(-0.0142609 -0.231226 0)
(0.0111963 -0.256828 0)
(0.0351021 -0.283055 0)
(0.0559374 -0.308603 0)
(0.0718208 -0.331257 0)
(0.0806273 -0.347488 0)
(0.0803273 -0.352018 0)
(0.0696011 -0.337495 0)
(0.0489163 -0.294587 0)
(0.0232633 -0.213135 0)
(0.00511711 -0.0858048 0)
(0.00407301 0.0855307 0)
(0.0199735 0.217543 0)
(0.0443508 0.307577 0)
(0.0661613 0.359771 0)
(0.0800447 0.381779 0)
(0.084573 0.381801 0)
(0.0802622 0.367114 0)
(0.0686555 0.343491 0)
(0.0516723 0.315156 0)
(0.0311775 0.284995 0)
(0.00877292 0.254861 0)
(-0.0142672 0.225861 0)
(-0.0369854 0.19859 0)
(-0.0586963 0.173306 0)
(-0.0789325 0.150056 0)
(-0.0973925 0.128759 0)
(-0.113896 0.109263 0)
(-0.12835 0.0913772 0)
(-0.140716 0.0748975 0)
(-0.150996 0.0596163 0)
(-0.159212 0.0453307 0)
(-0.165399 0.0318456 0)
(-0.169595 0.0189749 0)
(-0.171837 0.00654176 0)
(-0.172158 -0.00562261 0)
(-0.170586 -0.01768 0)
(-0.167142 -0.0297866 0)
(-0.161844 -0.0420944 0)
(-0.154705 -0.0547526 0)
(-0.145741 -0.0679083 0)
(-0.134968 -0.0817073 0)
(-0.122416 -0.0962936 0)
(-0.108133 -0.111808 0)
(-0.0921945 -0.128384 0)
(-0.0747171 -0.146143 0)
(-0.0558776 -0.165182 0)
(-0.0359331 -0.185557 0)
(-0.0152479 -0.207252 0)
(0.00567501 -0.23014 0)
(0.0261594 -0.253914 0)
(0.0453227 -0.277996 0)
(0.0620537 -0.301399 0)
(0.0750206 -0.32255 0)
(0.0827393 -0.339071 0)
(0.0837547 -0.347526 0)
(0.0769953 -0.343236 0)
(0.0622918 -0.320257 0)
(0.0411117 -0.271766 0)
(0.0182954 -0.19118 0)
(0.00368849 -0.074771 0)
(0.00313329 0.0759695 0)
(0.0164154 0.197268 0)
(0.038365 0.28493 0)
(0.0602228 0.340871 0)
(0.0770936 0.369969 0)
(0.0869549 0.378122 0)
(0.0894169 0.371071 0)
(0.085155 0.353774 0)
(0.0754148 0.330159 0)
(0.0616191 0.303144 0)
(0.0451309 0.27478 0)
(0.0271363 0.246432 0)
(0.00860307 0.21895 0)
(-0.009716 0.192823 0)
(-0.027259 0.168283 0)
(-0.043622 0.145396 0)
(-0.0585259 0.12412 0)
(-0.0717871 0.104342 0)
(-0.083292 0.0859156 0)
(-0.0929772 0.068669 0)
(-0.100814 0.0524229 0)
(-0.106797 0.0369959 0)
(-0.110933 0.0222086 0)
(-0.113241 0.0078861 0)
(-0.11374 -0.00614097 0)
(-0.112455 -0.0200362 0)
(-0.109409 -0.0339575 0)
(-0.10463 -0.0480572 0)
(-0.0981497 -0.062482 0)
(-0.0900052 -0.077373 0)
(-0.0802472 -0.0928644 0)
(-0.0689437 -0.109081 0)
(-0.0561888 -0.126137 0)
(-0.0421128 -0.144125 0)
(-0.0268942 -0.163112 0)
(-0.0107752 -0.183122 0)
(0.00592034 -0.204115 0)
(0.0227675 -0.225958 0)
(0.0392193 -0.248376 0)
(0.0545884 -0.270895 0)
(0.0680379 -0.292755 0)
(0.0785894 -0.312801 0)
(0.0851666 -0.329355 0)
(0.0866965 -0.340073 0)
(0.0823014 -0.34182 0)
(0.0716095 -0.330631 0)
(0.0551401 -0.301851 0)
(0.034753 -0.250582 0)
(0.0147422 -0.172601 0)
(0.00278639 -0.0661234 0)
(0.00250331 0.0681045 0)
(0.0137695 0.179624 0)
(0.0334037 0.263753 0)
(0.0544512 0.321213 0)
(0.0726556 0.355075 0)
(0.0858278 0.369517 0)
(0.0930599 0.368969 0)
(0.0944134 0.357544 0)
(0.090577 0.338733 0)
(0.0825473 0.31531 0)
(0.0714039 0.289367 0)
(0.0581735 0.262406 0)
(0.0437591 0.235454 0)
(0.0289122 0.209176 0)
(0.0142334 0.183968 0)
(0.000186014 0.16003 0)
(-0.0128835 0.137431 0)
(-0.0247242 0.116145 0)
(-0.03516 0.0960893 0)
(-0.0440728 0.0771398 0)
(-0.0513877 0.0591515 0)
(-0.0570615 0.0419662 0)
(-0.0610738 0.0254205 0)
(-0.0634207 0.00935008 0)
(-0.0641103 -0.00640721 0)
(-0.06316 -0.0220094 0)
(-0.0605957 -0.0376091 0)
(-0.0564517 -0.053352 0)
(-0.0507729 -0.0693759 0)
(-0.0436172 -0.085809 0)
(-0.0350606 -0.102767 0)
(-0.0252026 -0.12035 0)
(-0.0141736 -0.138638 0)
(-0.00214381 -0.157678 0)
(0.0106659 -0.177482 0)
(0.0239724 -0.198 0)
(0.0374169 -0.219105 0)
(0.050553 -0.24056 0)
(0.0628358 -0.261975 0)
(0.0736182 -0.282753 0)
(0.0821584 -0.302025 0)
(0.0876483 -0.318565 0)
(0.089275 -0.330705 0)
(0.0863289 -0.336259 0)
(0.0783782 -0.332479 0)
(0.0655156 -0.316104 0)
(0.0486203 -0.283555 0)
(0.0296067 -0.231349 0)
(0.0121271 -0.156792 0)
(0.0021859 -0.0591464 0)
(0.00205659 0.0614927 0)
(0.0117322 0.164183 0)
(0.0292614 0.244239 0)
(0.0490764 0.301743 0)
(0.0675628 0.338596 0)
(0.0825945 0.357733 0)
(0.0930114 0.362519 0)
(0.0984752 0.356291 0)
(0.0992519 0.342055 0)
(0.0959706 0.322342 0)
(0.0894316 0.299174 0)
(0.0804731 0.274091 0)
(0.0698883 0.248223 0)
(0.0583803 0.222357 0)
(0.0465436 0.197015 0)
(0.0348634 0.172518 0)
(0.0237233 0.149033 0)
(0.0134188 0.126621 0)
(0.00417131 0.105266 0)
(-0.003858 0.0848983 0)
(-0.010556 0.065413 0)
(-0.0158472 0.0466833 0)
(-0.0196854 0.028569 0)
(-0.0220473 0.0109239 0)
(-0.0229278 -0.00640034 0)
(-0.0223377 -0.0235495 0)
(-0.0203017 -0.0406645 0)
(-0.0168585 -0.0578787 0)
(-0.0120626 -0.0753153 0)
(-0.0059866 -0.0930842 0)
(0.00127482 -0.111278 0)
(0.00959992 -0.129968 0)
(0.0188335 -0.149196 0)
(0.0287797 -0.168965 0)
(0.0391937 -0.18923 0)
(0.0497735 -0.209877 0)
(0.0601518 -0.230702 0)
(0.0698904 -0.251386 0)
(0.0784782 -0.271455 0)
(0.0853377 -0.290236 0)
(0.0898444 -0.306808 0)
(0.0913647 -0.319946 0)
(0.0893226 -0.328069 0)
(0.0833009 -0.329209 0)
(0.073186 -0.321024 0)
(0.0593513 -0.300879 0)
(0.0428241 -0.266051 0)
(0.0254047 -0.214076 0)
(0.0101387 -0.143248 0)
(0.00176425 -0.0533917 0)
(0.00172303 0.0558481 0)
(0.0101084 0.150604 0)
(0.0257484 0.22641 0)
(0.0441381 0.28301 0)
(0.0622416 0.321548 0)
(0.0781045 0.34407 0)
(0.0904838 0.353108 0)
(0.0988042 0.351326 0)
(0.103032 0.341259 0)
(0.103503 0.325149 0)
(0.100769 0.30488 0)
(0.0954785 0.281962 0)
(0.0882955 0.257557 0)
(0.0798454 0.232529 0)
(0.0706856 0.20749 0)
(0.0612932 0.182855 0)
(0.0520635 0.158879 0)
(0.0433149 0.1357 0)
(0.0352975 0.113368 0)
(0.0282028 0.0918687 0)
(0.0221728 0.071142 0)
(0.017309 0.0510967 0)
(0.0136793 0.0316216 0)
(0.0113243 0.0125935 0)
(0.0102612 -0.00611578 0)
(0.0104869 -0.0246347 0)
(0.0119797 -0.0430875 0)
(0.0146991 -0.0615903 0)
(0.0185854 -0.0802472 0)
(0.0235571 -0.099146 0)
(0.0295079 -0.118354 0)
(0.0363028 -0.137909 0)
(0.0437728 -0.157818 0)
(0.0517099 -0.17804 0)
(0.059861 -0.198479 0)
(0.0679233 -0.218962 0)
(0.0755407 -0.239229 0)
(0.0823034 -0.258895 0)
(0.0877527 -0.277434 0)
(0.0913941 -0.294135 0)
(0.0927224 -0.30807 0)
(0.0912639 -0.318064 0)
(0.0866388 -0.322663 0)
(0.0786492 -0.320142 0)
(0.0673922 -0.308534 0)
(0.0533915 -0.285736 0)
(0.0376951 -0.249692 0)
(0.0219173 -0.19866 0)
(0.00857636 -0.131577 0)
(0.00145314 -0.0485684 0)
(0.00146257 0.0509793 0)
(0.00877199 0.138624 0)
(0.0227131 0.210219 0)
(0.0396033 0.265332 0)
(0.0569033 0.304617 0)
(0.0728721 0.329486 0)
(0.086285 0.34183 0)
(0.0964455 0.343757 0)
(0.103122 0.33737 0)
(0.106428 0.324619 0)
(0.10671 0.307211 0)
(0.104444 0.286575 0)
(0.100161 0.263864 0)
(0.0943968 0.239973 0)
(0.0876511 0.215573 0)
(0.0803721 0.191144 0)
(0.0729461 0.167014 0)
(0.0656964 0.143389 0)
(0.0588869 0.12038 0)
(0.0527267 0.0980244 0)
(0.0473775 0.0763079 0)
(0.0429598 0.0551777 0)
(0.0395586 0.0345545 0)
(0.0372287 0.0143427 0)
(0.0359982 -0.00556235 0)
(0.035872 -0.0252675 0)
(0.0368324 -0.0448763 0)
(0.0388405 -0.0644842 0)
(0.041835 -0.0841732 0)
(0.045731 -0.104007 0)
(0.0504173 -0.124024 0)
(0.0557538 -0.144234 0)
(0.0615676 -0.164605 0)
(0.0676496 -0.185056 0)
(0.0737513 -0.205447 0)
(0.0795826 -0.225561 0)
(0.0848119 -0.245089 0)
(0.0890699 -0.263606 0)
(0.0919586 -0.280556 0)
(0.093068 -0.295218 0)
(0.0920037 -0.306692 0)
(0.088427 -0.313877 0)
(0.0821113 -0.315468 0)
(0.073013 -0.309974 0)
(0.061358 -0.295764 0)
(0.0477316 -0.271172 0)
(0.0331311 -0.234645 0)
(0.0189653 -0.184962 0)
(0.0073096 -0.121478 0)
(0.00121326 -0.0444817 0)
(0.00125133 0.0467542 0)
(0.00764015 0.128042 0)
(0.0200408 0.195593 0)
(0.0354166 0.248891 0)
(0.0516469 0.288266 0)
(0.0672104 0.314681 0)
(0.0809567 0.329539 0)
(0.0921467 0.334498 0)
(0.100428 0.331285 0)
(0.105759 0.321571 0)
(0.108321 0.306874 0)
(0.108443 0.288519 0)
(0.106536 0.26761 0)
(0.103038 0.245044 0)
(0.0983847 0.22152 0)
(0.092981 0.197563 0)
(0.0871897 0.173557 0)
(0.0813248 0.149761 0)
(0.0756508 0.126339 0)
(0.070384 0.103379 0)
(0.0656968 0.0809098 0)
(0.0617216 0.0589164 0)
(0.0585557 0.0373533 0)
(0.0562647 0.0161543 0)
(0.0548864 -0.0047588 0)
(0.0544328 -0.0254687 0)
(0.054892 -0.046056 0)
(0.0562283 -0.066593 0)
(0.0583827 -0.087138 0)
(0.0612714 -0.107729 0)
(0.0647844 -0.128377 0)
(0.0687836 -0.149061 0)
(0.0731 -0.169716 0)
(0.0775327 -0.190227 0)
(0.0818468 -0.210415 0)
(0.0857741 -0.230028 0)
(0.0890158 -0.248722 0)
(0.0912486 -0.266049 0)
(0.0921364 -0.281441 0)
(0.0913483 -0.294189 0)
(0.0885855 -0.30344 0)
(0.0836178 -0.308181 0)
(0.0763313 -0.307258 0)
(0.0667844 -0.299394 0)
(0.0552711 -0.283247 0)
(0.0423818 -0.257498 0)
(0.0290266 -0.220984 0)
(0.0164138 -0.172848 0)
(0.00625186 -0.112728 0)
(0.00102103 -0.0409975 0)
(0.00107451 0.0430785 0)
(0.00665746 0.118705 0)
(0.0176463 0.18246 0)
(0.0315221 0.233789 0)
(0.0465147 0.272811 0)
(0.0613119 0.300167 0)
(0.0748661 0.316896 0)
(0.0864465 0.32429 0)
(0.0956382 0.323764 0)
(0.102294 0.316733 0)
(0.106476 0.304533 0)
(0.10839 0.288367 0)
(0.108341 0.269275 0)
(0.106678 0.248129 0)
(0.103767 0.225633 0)
(0.0999646 0.202342 0)
(0.0955992 0.178673 0)
(0.0909658 0.15493 0)
(0.0863191 0.131322 0)
(0.0818737 0.107979 0)
(0.0778047 0.084971 0)
(0.0742505 0.0623193 0)
(0.0713153 0.0400118 0)
(0.0690728 0.0180121 0)
(0.0675681 -0.00373044 0)
(0.0668201 -0.0252731 0)
(0.0668227 -0.046672 0)
(0.0675459 -0.0679753 0)
(0.0689356 -0.089217 0)
(0.070913 -0.11041 0)
(0.0733741 -0.131538 0)
(0.0761883 -0.152551 0)
(0.0791972 -0.173356 0)
(0.0822141 -0.193806 0)
(0.0850246 -0.213692 0)
(0.0873879 -0.232735 0)
(0.0890418 -0.250569 0)
(0.0897102 -0.266733 0)
(0.0891154 -0.280662 0)
(0.0869961 -0.291674 0)
(0.0831322 -0.298968 0)
(0.0773765 -0.301629 0)
(0.0696934 -0.29864 0)
(0.0602021 -0.288916 0)
(0.0492228 -0.271355 0)
(0.0373157 -0.244917 0)
(0.025288 -0.208728 0)
(0.0141625 -0.1622 0)
(0.00534449 -0.105158 0)
(0.000861688 -0.038021 0)
(0.000922494 0.039883 0)
(0.00578589 0.110493 0)
(0.0154672 0.170747 0)
(0.0278706 0.220079 0)
(0.0415205 0.258466 0)
(0.0552964 0.286321 0)
(0.0682654 0.304405 0)
(0.0797365 0.313728 0)
(0.0892735 0.315441 0)
(0.0966659 0.310738 0)
(0.101888 0.300783 0)
(0.105055 0.286658 0)
(0.106379 0.269327 0)
(0.10613 0.249621 0)
(0.104608 0.228236 0)
(0.102117 0.205734 0)
(0.0989487 0.182558 0)
(0.0953701 0.159043 0)
(0.0916196 0.135432 0)
(0.0879025 0.111894 0)
(0.0843903 0.0885336 0)
(0.0812216 0.0654061 0)
(0.0785038 0.0425311 0)
(0.0763148 0.0199015 0)
(0.0747054 -0.00250619 0)
(0.0737002 -0.0247236 0)
(0.0732996 -0.0467823 0)
(0.0734801 -0.0687065 0)
(0.0741948 -0.0905059 0)
(0.0753731 -0.112169 0)
(0.0769206 -0.133654 0)
(0.0787185 -0.154886 0)
(0.0806234 -0.175745 0)
(0.0824677 -0.196057 0)
(0.0840611 -0.215592 0)
(0.0851933 -0.234049 0)
(0.0856395 -0.251049 0)
(0.0851686 -0.266128 0)
(0.0835555 -0.278732 0)
(0.0805978 -0.288212 0)
(0.0761372 -0.293825 0)
(0.0700868 -0.294747 0)
(0.0624614 -0.290087 0)
(0.0534106 -0.278924 0)
(0.0432515 -0.260353 0)
(0.0324938 -0.233554 0)
(0.0218371 -0.197874 0)
(0.0121373 -0.152918 0)
(0.00454684 -0.0986409 0)
(0.000725613 -0.0354841 0)
(0.000788846 0.0371163 0)
(0.00499883 0.103316 0)
(0.0134572 0.160393 0)
(0.0244211 0.207785 0)
(0.0366645 0.245376 0)
(0.0492395 0.273415 0)
(0.0613303 0.292455 0)
(0.0723047 0.303284 0)
(0.0817331 0.306837 0)
(0.089373 0.304122 0)
(0.0951418 0.296147 0)
(0.0990847 0.28388 0)
(0.101341 0.268203 0)
(0.102114 0.249902 0)
(0.101641 0.229648 0)
(0.100175 0.208003 0)
(0.097969 0.185422 0)
(0.0952589 0.162261 0)
(0.0922616 0.138791 0)
(0.0891676 0.115209 0)
(0.0861396 0.0916524 0)
(0.0833121 0.068206 0)
(0.0807913 0.0449186 0)
(0.078657 0.0218104 0)
(0.0769633 -0.00111604 0)
(0.0757397 -0.0238677 0)
(0.0749929 -0.0464525 0)
(0.0747066 -0.0688713 0)
(0.0748427 -0.0911109 0)
(0.0753408 -0.113137 0)
(0.076119 -0.134885 0)
(0.0770733 -0.156256 0)
(0.0780783 -0.177107 0)
(0.0789884 -0.197246 0)
(0.0796394 -0.216421 0)
(0.0798522 -0.234316 0)
(0.0794385 -0.250548 0)
(0.0782086 -0.264653 0)
(0.075983 -0.276096 0)
(0.0726068 -0.28426 0)
(0.0679688 -0.288461 0)
(0.0620231 -0.287956 0)
(0.054813 -0.281966 0)
(0.0464963 -0.269706 0)
(0.0373675 -0.250431 0)
(0.0278744 -0.223494 0)
(0.0186104 -0.188409 0)
(0.0102827 -0.144923 0)
(0.0038301 -0.0930815 0)
(0.000606313 -0.0333367 0)
(0.000669089 0.0347386 0)
(0.00427715 0.0970992 0)
(0.0115817 0.151343 0)
(0.0211403 0.196915 0)
(0.0319407 0.23364 0)
(0.0431893 0.261648 0)
(0.0541849 0.281339 0)
(0.0643644 0.293326 0)
(0.0733239 0.298374 0)
(0.0808122 0.297331 0)
(0.0867129 0.291074 0)
(0.0910221 0.280461 0)
(0.0938232 0.2663 0)
(0.0952615 0.249324 0)
(0.0955223 0.230176 0)
(0.0948114 0.209407 0)
(0.0933402 0.187476 0)
(0.0913141 0.164751 0)
(0.0889246 0.141525 0)
(0.0863442 0.118017 0)
(0.0837228 0.0943895 0)
(0.081187 0.0707546 0)
(0.0788389 0.0471861 0)
(0.0767572 0.0237294 0)
(0.0749977 0.000410797 0)
(0.0735937 -0.0227537 0)
(0.0725576 -0.0457498 0)
(0.0718807 -0.0685571 0)
(0.0715346 -0.091141 0)
(0.0714707 -0.113446 0)
(0.0716211 -0.135388 0)
(0.0718987 -0.156847 0)
(0.0721982 -0.177662 0)
(0.0723972 -0.197621 0)
(0.0723585 -0.216459 0)
(0.0719338 -0.233851 0)
(0.0709688 -0.249408 0)
(0.0693109 -0.262676 0)
(0.0668188 -0.273134 0)
(0.0633756 -0.280201 0)
(0.0589038 -0.283244 0)
(0.0533828 -0.281593 0)
(0.0468682 -0.274561 0)
(0.0395095 -0.261477 0)
(0.0315661 -0.241725 0)
(0.0234182 -0.214791 0)
(0.0155569 -0.180315 0)
(0.00855678 -0.138151 0)
(0.00317339 -0.0884074 0)
(0.000499256 -0.0315423 0)
(0.000560008 0.0327193 0)
(0.00360674 0.0917845 0)
(0.0098143 0.143546 0)
(0.018001 0.187464 0)
(0.0273399 0.223321 0)
(0.0371759 0.251164 0)
(0.0469172 0.271278 0)
(0.0560747 0.284145 0)
(0.0642831 0.29039 0)
(0.071299 0.290734 0)
(0.0769904 0.285939 0)
(0.0813213 0.276771 0)
(0.0843333 0.263966 0)
(0.0861261 0.248205 0)
(0.086839 0.2301 0)
(0.0866353 0.210187 0)
(0.0856884 0.18892 0)
(0.0841717 0.166677 0)
(0.0822505 0.143761 0)
(0.0800765 0.120412 0)
(0.0777843 0.0968098 0)
(0.0754897 0.0730901 0)
(0.0732881 0.0493482 0)
(0.0712551 0.0256514 0)
(0.069446 0.00204713 0)
(0.0678971 -0.0214281 0)
(0.0666256 -0.0447401 0)
(0.0656308 -0.0678491 0)
(0.064894 -0.0907018 0)
(0.0643794 -0.113224 0)
(0.0640341 -0.135314 0)
(0.0637893 -0.156835 0)
(0.0635603 -0.177608 0)
(0.0632488 -0.197408 0)
(0.0627445 -0.21596 0)
(0.0619283 -0.232929 0)
(0.0606776 -0.247927 0)
(0.0588722 -0.260506 0)
(0.0564025 -0.270163 0)
(0.0531806 -0.276347 0)
(0.0491519 -0.27847 0)
(0.0443096 -0.275922 0)
(0.0387083 -0.268092 0)
(0.032478 -0.254402 0)
(0.0258352 -0.234335 0)
(0.0190896 -0.20748 0)
(0.0126352 -0.173575 0)
(0.00692724 -0.132551 0)
(0.00256113 -0.0845642 0)
(0.000401171 -0.0300735 0)
(0.000459207 0.0310342 0)
(0.00297688 0.0873244 0)
(0.00813434 0.136963 0)
(0.0149805 0.179422 0)
(0.0228516 0.214461 0)
(0.0312174 0.242066 0)
(0.0395894 0.262439 0)
(0.0475547 0.27596 0)
(0.0547944 0.283151 0)
(0.0610848 0.284625 0)
(0.0662919 0.281053 0)
(0.0703615 0.273119 0)
(0.0733054 0.261497 0)
(0.0751875 0.24682 0)
(0.076109 0.229668 0)
(0.0761954 0.210559 0)
(0.0755852 0.18994 0)
(0.0744204 0.16819 0)
(0.0728396 0.14562 0)
(0.0709728 0.122483 0)
(0.0689373 0.0989764 0)
(0.0668358 0.0752508 0)
(0.0647552 0.0514206 0)
(0.0627658 0.0275713 0)
(0.0609214 0.00376845 0)
(0.0592596 -0.0199338 0)
(0.0578021 -0.0434842 0)
(0.0565554 -0.0668262 0)
(0.0555109 -0.0898904 0)
(0.0546456 -0.112587 0)
(0.0539226 -0.134799 0)
(0.0532912 -0.156375 0)
(0.0526885 -0.177123 0)
(0.0520397 -0.196807 0)
(0.0512608 -0.21514 0)
(0.0502607 -0.231786 0)
(0.0489455 -0.246354 0)
(0.0472231 -0.258403 0)
(0.0450103 -0.267444 0)
(0.0422407 -0.272952 0)
(0.0388745 -0.274374 0)
(0.0349088 -0.27115 0)
(0.0303883 -0.262729 0)
(0.0254155 -0.248603 0)
(0.0201589 -0.228333 0)
(0.0148571 -0.201586 0)
(0.00981155 -0.168175 0)
(0.0053687 -0.128086 0)
(0.00198141 -0.0815114 0)
(0.000309615 -0.0289102 0)
(0.000364834 0.0296642 0)
(0.00237905 0.0836805 0)
(0.00652489 0.131555 0)
(0.012059 0.172774 0)
(0.0184639 0.207081 0)
(0.0253226 0.234423 0)
(0.0322447 0.25494 0)
(0.038893 0.26894 0)
(0.045 0.27686 0)
(0.05037 0.279237 0)
(0.0548773 0.276663 0)
(0.0584596 0.269759 0)
(0.0611094 0.259141 0)
(0.062863 0.245402 0)
(0.0637903 0.229093 0)
(0.0639838 0.210711 0)
(0.06355 0.190696 0)
(0.0626013 0.169423 0)
(0.06125 0.147209 0)
(0.0596036 0.124314 0)
(0.0577608 0.100947 0)
(0.0558101 0.0772721 0)
(0.053828 0.0534181 0)
(0.0518779 0.029485 0)
(0.0500108 0.00555304 0)
(0.0482644 -0.0183092 0)
(0.0466642 -0.0420364 0)
(0.0452232 -0.0655584 0)
(0.0439428 -0.0887927 0)
(0.0428129 -0.111637 0)
(0.0418122 -0.133961 0)
(0.0409089 -0.155602 0)
(0.040061 -0.176357 0)
(0.0392177 -0.195982 0)
(0.0383201 -0.214182 0)
(0.0373036 -0.230616 0)
(0.0361004 -0.244891 0)
(0.0346434 -0.256572 0)
(0.032871 -0.265182 0)
(0.030733 -0.270213 0)
(0.0281975 -0.271139 0)
(0.0252588 -0.267435 0)
(0.0219453 -0.258599 0)
(0.0183267 -0.244171 0)
(0.0145198 -0.223773 0)
(0.0106924 -0.197129 0)
(0.00705738 -0.164104 0)
(0.00386058 -0.124729 0)
(0.00142478 -0.0792196 0)
(0.000222692 -0.0280379 0)
(0.000275388 0.0285943 0)
(0.00180621 0.0808221 0)
(0.00497155 0.127293 0)
(0.00921878 0.167505 0)
(0.0141638 0.201194 0)
(0.0194939 0.228282 0)
(0.0249117 0.248868 0)
(0.030155 0.263205 0)
(0.0350101 0.271674 0)
(0.0393151 0.274748 0)
(0.0429597 0.272964 0)
(0.0458817 0.266888 0)
(0.0480617 0.257094 0)
(0.0495156 0.244139 0)
(0.0502875 0.228548 0)
(0.0504414 0.2108 0)
(0.0500548 0.191323 0)
(0.0492121 0.17049 0)
(0.0479999 0.148618 0)
(0.0465029 0.125973 0)
(0.044801 0.10277 0)
(0.042967 0.0791836 0)
(0.0410657 0.0553527 0)
(0.0391528 0.0313883 0)
(0.0372746 0.00738172 0)
(0.0354685 -0.0165875 0)
(0.0337623 -0.0404434 0)
(0.0321754 -0.0641054 0)
(0.0307185 -0.0874808 0)
(0.0293939 -0.110457 0)
(0.028196 -0.132896 0)
(0.0271115 -0.154624 0)
(0.0261195 -0.175433 0)
(0.0251921 -0.195067 0)
(0.0242951 -0.213227 0)
(0.023389 -0.229568 0)
(0.0224306 -0.243695 0)
(0.021375 -0.255174 0)
(0.0201788 -0.263534 0)
(0.018804 -0.268279 0)
(0.0172221 -0.2689 0)
(0.0154201 -0.264897 0)
(0.0134052 -0.255796 0)
(0.0112105 -0.241176 0)
(0.00889986 -0.220696 0)
(0.00656992 -0.194121 0)
(0.00434826 -0.161355 0)
(0.00238562 -0.122459 0)
(0.00088347 -0.0776686 0)
(0.000138868 -0.0274465 0)
(0.0001896 0.0278129 0)
(0.00125227 0.0787247 0)
(0.00346143 0.12415 0)
(0.00644308 0.163599 0)
(0.00993694 0.196804 0)
(0.0137282 0.223673 0)
(0.0176082 0.244279 0)
(0.0213884 0.258841 0)
(0.0249103 0.267701 0)
(0.0280494 0.271288 0)
(0.0307157 0.270097 0)
(0.0328529 0.264657 0)
(0.0344353 0.255507 0)
(0.0354639 0.243176 0)
(0.0359613 0.228167 0)
(0.0359666 0.210944 0)
(0.0355307 0.191925 0)
(0.0347119 0.171478 0)
(0.0335717 0.149918 0)
(0.0321722 0.127513 0)
(0.0305738 0.104483 0)
(0.0288332 0.0810072 0)
(0.0270022 0.0572322 0)
(0.0251277 0.0332759 0)
(0.0232506 0.00923711 0)
(0.0214064 -0.0147972 0)
(0.0196249 -0.0387437 0)
(0.0179308 -0.062515 0)
(0.0163433 -0.0860117 0)
(0.0148771 -0.109115 0)
(0.0135417 -0.131679 0)
(0.0123419 -0.153526 0)
(0.0112776 -0.174439 0)
(0.0103436 -0.194158 0)
(0.00952977 -0.21238 0)
(0.00882084 -0.228752 0)
(0.00819687 -0.242878 0)
(0.00763375 -0.254321 0)
(0.00710436 -0.262612 0)
(0.00658019 -0.267256 0)
(0.0060337 -0.267755 0)
(0.00544118 -0.263618 0)
(0.00478622 -0.254388 0)
(0.00406328 -0.239665 0)
(0.0032813 -0.21913 0)
(0.00246645 -0.192575 0)
(0.00166257 -0.159927 0)
(0.000928885 -0.121268 0)
(0.000350837 -0.076846 0)
(5.68434e-05 -0.0271299 0)
(0.000106335 0.0273117 0)
(0.000711646 0.0773703 0)
(0.0019825 0.122107 0)
(0.00371545 0.161042 0)
(0.00576784 0.193908 0)
(0.00801818 0.22061 0)
(0.0103434 0.241208 0)
(0.0126273 0.255903 0)
(0.0147675 0.265013 0)
(0.0166786 0.268943 0)
(0.018294 0.26816 0)
(0.019567 0.263169 0)
(0.0204696 0.254483 0)
(0.0209914 0.242613 0)
(0.0211369 0.228045 0)
(0.020923 0.21123 0)
(0.0203759 0.192578 0)
(0.0195288 0.172449 0)
(0.018419 0.151158 0)
(0.0170862 0.128971 0)
(0.0155708 0.106109 0)
(0.0139127 0.0827551 0)
(0.0121504 0.059058 0)
(0.0103206 0.0351398 0)
(0.00845805 0.0111028 0)
(0.00659539 -0.0129621 0)