/*--------------------------------*- C++ -*----------------------------------*\
  =========                 |
  \\      /  F ield         | OpenFOAM: The Open Source CFD Toolbox
   \\    /   O peration     | Website:  https://openfoam.org
    \\  /    A nd           | Version:  7
     \\/     M anipulation  |
\*---------------------------------------------------------------------------*/
FoamFile
{
    version     2.0;
    format      ascii;
    class       volVectorField;
    location    "0.0244";
    object      U;
}
// * * * * * * * * * * * * * * * * * * * * * * * * * * * * * * * * * * * * * //

dimensions      [0 1 -1 0 0 0 0];

internalField   nonuniform List<vector> 
2500
(
(0.290271 -0.15243 0)
(0.389592 -0.128257 0)
(0.565496 -0.0747418 0)
(0.683292 -0.0422205 0)
(0.752796 -0.0244986 0)
(0.797668 -0.0148395 0)
(0.828646 -0.00951727 0)
(0.850892 -0.006483 0)
(0.867446 -0.00465155 0)
(0.880137 -0.00347254 0)
(0.890084 -0.00266724 0)
(0.898003 -0.00208975 0)
(0.904378 -0.00165978 0)
(0.909553 -0.0013305 0)
(0.913774 -0.00107293 0)
(0.917229 -0.000868113 0)
(0.92006 -0.000703001 0)
(0.922377 -0.000568262 0)
(0.924267 -0.000456966 0)
(0.925796 -0.000363809 0)
(0.92702 -0.000284609 0)
(0.927977 -0.000215975 0)
(0.9287 -0.000155071 0)
(0.92921 -9.94522e-05 0)
(0.929523 -4.69326e-05 0)
(0.929647 4.51625e-06 0)
(0.929581 5.68465e-05 0)
(0.929321 0.000112064 0)
(0.928855 0.000172263 0)
(0.928162 0.000239753 0)
(0.927214 0.000317185 0)
(0.925975 0.000407711 0)
(0.924394 0.000515211 0)
(0.92241 0.000644617 0)
(0.919941 0.000802395 0)
(0.916885 0.000997296 0)
(0.913106 0.00124157 0)
(0.908428 0.00155303 0)
(0.902611 0.00195878 0)
(0.895326 0.0025023 0)
(0.886102 0.00325762 0)
(0.874242 0.00435908 0)
(0.858654 0.00606541 0)
(0.837532 0.00889745 0)
(0.807817 0.0139154 0)
(0.764233 0.0232117 0)
(0.695841 0.0407489 0)
(0.577948 0.0737394 0)
(0.398081 0.128754 0)
(0.293886 0.153802 0)
(0.00110817 -0.294947 0)
(0.0169064 -0.298663 0)
(0.15233 -0.212992 0)
(0.28271 -0.145195 0)
(0.387596 -0.0994051 0)
(0.470408 -0.0694795 0)
(0.535309 -0.0500441 0)
(0.58617 -0.0371789 0)
(0.626353 -0.0283724 0)
(0.65844 -0.0221215 0)
(0.684316 -0.0175346 0)
(0.705356 -0.0140714 0)
(0.722577 -0.0113946 0)
(0.736744 -0.00928595 0)
(0.748436 -0.00759894 0)
(0.758103 -0.00623168 0)
(0.766097 -0.00511088 0)
(0.772696 -0.00418226 0)
(0.778121 -0.00340443 0)
(0.782547 -0.00274499 0)
(0.786114 -0.00217792 0)
(0.788931 -0.00168176 0)
(0.791081 -0.00123827 0)
(0.792624 -0.000831554 0)
(0.793602 -0.000447219 0)
(0.794036 -7.18098e-05 0)
(0.79393 0.000307752 0)
(0.79327 0.000704718 0)
(0.792024 0.00113303 0)
(0.790141 0.00160794 0)
(0.787547 0.00214679 0)
(0.784142 0.00276995 0)
(0.7798 0.00350216 0)
(0.774355 0.00437432 0)
(0.7676 0.00542617 0)
(0.75927 0.00671029 0)
(0.749023 0.00829813 0)
(0.736421 0.0102898 0)
(0.720886 0.0128298 0)
(0.701652 0.0161347 0)
(0.677681 0.0205406 0)
(0.647545 0.0265895 0)
(0.609255 0.035187 0)
(0.560027 0.0478855 0)
(0.496118 0.0673454 0)
(0.413051 0.0978713 0)
(0.305908 0.145575 0)
(0.170351 0.217184 0)
(0.0268738 0.307168 0)
(0.00519382 0.303039 0)
(-0.0329064 -0.250469 0)
(-0.0616035 -0.344053 0)
(-0.0116572 -0.310406 0)
(0.0703371 -0.251087 0)
(0.15796 -0.195297 0)
(0.239826 -0.150468 0)
(0.311587 -0.11654 0)
(0.372575 -0.0912555 0)
(0.423717 -0.072322 0)
(0.466392 -0.0579609 0)
(0.501968 -0.0468965 0)
(0.531647 -0.038237 0)
(0.556438 -0.0313605 0)
(0.577169 -0.0258291 0)
(0.594515 -0.0213291 0)
(0.609023 -0.017631 0)
(0.62114 -0.0145635 0)
(0.63123 -0.0119955 0)
(0.63959 -0.00982467 0)
(0.646459 -0.00796909 0)
(0.652031 -0.00636183 0)
(0.65646 -0.00494677 0)
(0.659865 -0.00367565 0)
(0.662331 -0.00250582 0)
(0.663919 -0.00139836 0)
(0.664659 -0.000316635 0)
(0.664558 0.000775162 0)
(0.663596 0.00191327 0)
(0.661725 0.0031358 0)
(0.658871 0.00448426 0)
(0.654926 0.00600549 0)
(0.649749 0.00775396 0)
(0.643157 0.00979503 0)
(0.634919 0.0122092 0)
(0.624745 0.015098 0)
(0.612273 0.0185932 0)
(0.597052 0.022869 0)
(0.578514 0.0281614 0)
(0.555949 0.034797 0)
(0.528463 0.043237 0)
(0.494939 0.0541449 0)
(0.453997 0.0684855 0)
(0.404003 0.087663 0)
(0.343185 0.113677 0)
(0.270092 0.149175 0)
(0.184833 0.196923 0)
(0.0914175 0.257455 0)
(0.00144204 0.322916 0)
(-0.0570533 0.361368 0)
(-0.032181 0.263986 0)
(-0.0267757 -0.190679 0)
(-0.0655301 -0.332871 0)
(-0.0649395 -0.350994 0)
(-0.0283831 -0.31829 0)
(0.028051 -0.270568 0)
(0.0912894 -0.223587 0)
(0.153638 -0.182852 0)
(0.211332 -0.149286 0)
(0.262886 -0.122166 0)
(0.308039 -0.100363 0)
(0.347122 -0.0827957 0)
(0.380709 -0.0685591 0)
(0.409442 -0.0569405 0)
(0.433941 -0.0473882 0)
(0.45477 -0.0394779 0)
(0.472429 -0.0328808 0)
(0.487348 -0.0273399 0)
(0.499894 -0.0226511 0)
(0.510378 -0.0186499 0)
(0.519057 -0.0152011 0)
(0.526144 -0.0121918 0)
(0.531812 -0.00952545 0)
(0.536194 -0.00711753 0)
(0.53939 -0.00489238 0)
(0.541467 -0.00278021 0)
(0.54246 -0.000714725 0)
(0.542376 0.00136913 0)
(0.541189 0.00353734 0)
(0.538844 0.00585913 0)
(0.535249 0.00840953 0)
(0.53028 0.0112724 0)
(0.52377 0.0145442 0)
(0.51551 0.0183389 0)
(0.505238 0.0227942 0)
(0.492633 0.0280804 0)
(0.477307 0.0344119 0)
(0.458792 0.0420638 0)
(0.436531 0.0513934 0)
(0.409871 0.0628709 0)
(0.378058 0.0771182 0)
(0.340269 0.0949558 0)
(0.295679 0.117447 0)
(0.243639 0.145904 0)
(0.18404 0.181761 0)
(0.11802 0.226094 0)
(0.0492222 0.278229 0)
(-0.0143337 0.332418 0)
(-0.0584488 0.371362 0)
(-0.0648938 0.355482 0)
(-0.027317 0.204715 0)
(-0.0178727 -0.149158 0)
(-0.0533165 -0.302532 0)
(-0.0742787 -0.353894 0)
(-0.0679283 -0.348596 0)
(-0.0396598 -0.317243 0)
(0.00132679 -0.277266 0)
(0.0478362 -0.237272 0)
(0.0951378 -0.2009 0)
(0.140422 -0.169271 0)
(0.182221 -0.14236 0)
(0.219918 -0.119688 0)
(0.253392 -0.100653 0)
(0.282797 -0.0846699 0)
(0.30842 -0.0712228 0)
(0.330602 -0.0598731 0)
(0.349694 -0.0502558 0)
(0.366032 -0.0420681 0)
(0.379922 -0.0350582 0)
(0.391637 -0.0290149 0)
(0.401413 -0.0237588 0)
(0.409452 -0.019136 0)
(0.415918 -0.0150113 0)
(0.420943 -0.0112645 0)
(0.424625 -0.00778586 0)
(0.42703 -0.00447297 0)
(0.428192 -0.00122753 0)
(0.428115 0.0020474 0)
(0.42677 0.00545031 0)
(0.424096 0.00908425 0)
(0.419997 0.0130602 0)
(0.414342 0.0175007 0)
(0.406961 0.022545 0)
(0.397641 0.0283543 0)
(0.386126 0.0351192 0)
(0.372112 0.0430687 0)
(0.355242 0.052482 0)
(0.335116 0.063702 0)
(0.311287 0.077153 0)
(0.283288 0.0933576 0)
(0.250668 0.112951 0)
(0.213073 0.136678 0)
(0.170388 0.165349 0)
(0.122993 0.199691 0)
(0.0721668 0.23998 0)
(0.0206931 0.285245 0)
(-0.0263869 0.331664 0)
(-0.0610755 0.369691 0)
(-0.0728125 0.379723 0)
(-0.0546307 0.327335 0)
(-0.01869 0.162247 0)
(-0.0114706 -0.120767 0)
(-0.0405726 -0.269152 0)
(-0.068735 -0.338504 0)
(-0.0795096 -0.354763 0)
(-0.0717519 -0.340557 0)
(-0.0502346 -0.311442 0)
(-0.0201178 -0.276841 0)
(0.0143614 -0.241927 0)
(0.0501214 -0.209241 0)
(0.0851325 -0.179826 0)
(0.118175 -0.153927 0)
(0.148593 -0.1314 0)
(0.176104 -0.111934 0)
(0.200657 -0.0951646 0)
(0.222341 -0.0807294 0)
(0.241319 -0.0682925 0)
(0.257789 -0.057553 0)
(0.271959 -0.0482445 0)
(0.284032 -0.0401324 0)
(0.294193 -0.0330095 0)
(0.302607 -0.0266915 0)
(0.309415 -0.0210126 0)
(0.31473 -0.0158213 0)
(0.318636 -0.0109769 0)
(0.321192 -0.00634616 0)
(0.322425 -0.00179979 0)
(0.322336 0.00279039 0)
(0.320892 0.00755482 0)
(0.318032 0.0126295 0)
(0.313664 0.0181597 0)
(0.307663 0.024304 0)
(0.29987 0.0312392 0)
(0.290094 0.0391657 0)
(0.278112 0.0483139 0)
(0.26367 0.0589516 0)
(0.246493 0.0713917 0)
(0.226294 0.0859997 0)
(0.202801 0.103198 0)
(0.175791 0.123464 0)
(0.145164 0.147309 0)
(0.11104 0.175222 0)
(0.0739286 0.207544 0)
(0.03496 0.244211 0)
(-0.00379848 0.284274 0)
(-0.0390089 0.32506 0)
(-0.0658629 0.360812 0)
(-0.0782858 0.380769 0)
(-0.0704032 0.367082 0)
(-0.0426597 0.293998 0)
(-0.0122389 0.13258 0)
(-0.00753085 -0.100584 0)
(-0.0308258 -0.238377 0)
(-0.0597184 -0.315641 0)
(-0.0790298 -0.346627 0)
(-0.0846266 -0.346952 0)
(-0.077998 -0.329154 0)
(-0.0621339 -0.302027 0)
(-0.0401631 -0.271213 0)
(-0.0147858 -0.240063 0)
(0.0119301 -0.210406 0)
(0.0385263 -0.183128 0)
(0.0640425 -0.158557 0)
(0.0878926 -0.13671 0)
(0.109757 -0.117438 0)
(0.129499 -0.100515 0)
(0.147099 -0.0856866 0)
(0.162613 -0.0726943 0)
(0.176136 -0.0612896 0)
(0.187785 -0.0512393 0)
(0.197679 -0.0423271 0)
(0.205933 -0.0343524 0)
(0.21265 -0.0271289 0)
(0.217915 -0.0204819 0)
(0.221793 -0.0142456 0)
(0.224327 -0.00826052 0)
(0.225534 -0.00237028 0)
(0.225411 0.00358122 0)
(0.223924 0.00975291 0)
(0.221017 0.0163098 0)
(0.216607 0.0234265 0)
(0.210584 0.031291 0)
(0.202817 0.0401085 0)
(0.19315 0.0501057 0)
(0.181414 0.0615349 0)
(0.16743 0.0746776 0)
(0.151025 0.0898461 0)
(0.132054 0.107381 0)
(0.110431 0.127642 0)
(0.0861844 0.150982 0)
(0.0595248 0.177696 0)
(0.0309533 0.207922 0)
(0.00139856 0.241468 0)
(-0.027616 0.277512 0)
(-0.0538061 0.31413 0)
(-0.0740543 0.347586 0)
(-0.0845998 0.371397 0)
(-0.0816832 0.375326 0)
(-0.0631528 0.344806 0)
(-0.0331487 0.261987 0)
(-0.00818894 0.111032 0)
(-0.00520521 -0.0856985 0)
(-0.0239803 -0.211497 0)
(-0.0511085 -0.290555 0)
(-0.074026 -0.330547 0)
(-0.0877011 -0.341897 0)
(-0.0916311 -0.334152 0)
(-0.0870811 -0.314842 0)
(-0.0760109 -0.289379 0)
(-0.0604647 -0.261391 0)
(-0.0422344 -0.233166 0)
(-0.0227431 -0.206049 0)
(-0.00304781 -0.180766 0)
(0.016109 -0.157643 0)
(0.0342351 -0.136763 0)
(0.051027 -0.118063 0)
(0.0663176 -0.101398 0)
(0.0800344 -0.0865821 0)
(0.0921678 -0.0734093 0)
(0.102747 -0.061669 0)
(0.111824 -0.0511532 0)
(0.119456 -0.0416591 0)
(0.125704 -0.0329915 0)
(0.13062 -0.0249615 0)
(0.134243 -0.017386 0)
(0.1366 -0.0100857 0)
(0.137697 -0.00288273 0)
(0.137523 0.0044014 0)
(0.13605 0.0119485 0)
(0.133226 0.0199465 0)
(0.128985 0.0285919 0)
(0.123239 0.038093 0)
(0.115891 0.0486718 0)
(0.106834 0.0605666 0)
(0.0959608 0.0740322 0)
(0.0831775 0.0893388 0)
(0.0684206 0.106767 0)
(0.0516841 0.126594 0)
(0.0330564 0.149071 0)
(0.0127714 0.174381 0)
(-0.00872441 0.202562 0)
(-0.0306888 0.233389 0)
(-0.0519907 0.266184 0)
(-0.0710269 0.299533 0)
(-0.0856899 0.330894 0)
(-0.0934798 0.356085 0)
(-0.0918865 0.368759 0)
(-0.0791261 0.36005 0)
(-0.0554481 0.318815 0)
(-0.0263175 0.233186 0)
(-0.00576671 0.0948088 0)
(-0.00381351 -0.074247 0)
(-0.0192409 -0.18829 0)
(-0.0439185 -0.265663 0)
(-0.0678462 -0.31045 0)
(-0.0861037 -0.329515 0)
(-0.0971621 -0.329912 0)
(-0.101113 -0.31777 0)
(-0.098937 -0.297917 0)
(-0.091994 -0.273895 0)
(-0.0816656 -0.248161 0)
(-0.0691779 -0.222333 0)
(-0.0555344 -0.197417 0)
(-0.0415111 -0.173995 0)
(-0.0276799 -0.152354 0)
(-0.014444 -0.132594 0)
(-0.00207373 -0.114689 0)
(0.00926097 -0.0985395 0)
(0.0194628 -0.0839976 0)
(0.0284852 -0.0708907 0)
(0.0363147 -0.0590322 0)
(0.0429577 -0.0482299 0)
(0.0484303 -0.0382898 0)
(0.0527508 -0.0290183 0)
(0.0559338 -0.0202231 0)
(0.0579864 -0.011712 0)
(0.0589055 -0.0032928 0)
(0.0586764 0.00522877 0)
(0.0572714 0.0140505 0)
(0.0546512 0.0233757 0)
(0.0507656 0.0334142 0)
(0.0455571 0.0443845 0)
(0.0389654 0.0565135 0)
(0.0309345 0.0700359 0)
(0.0214233 0.0851917 0)
(0.0104203 0.102219 0)
(-0.00203646 0.121342 0)
(-0.0158325 0.142751 0)
(-0.0307415 0.166564 0)
(-0.0463821 0.19278 0)
(-0.062166 0.221184 0)
(-0.0772447 0.251232 0)
(-0.0904654 0.281873 0)
(-0.100359 0.31131 0)
(-0.105205 0.336716 0)
(-0.103237 0.353927 0)
(-0.0930698 0.357215 0)
(-0.074345 0.339331 0)
(-0.0486357 0.292071 0)
(-0.0214935 0.207736 0)
(-0.00429868 0.0820911 0)
(-0.00294787 -0.0650629 0)
(-0.0159186 -0.168149 0)
(-0.0381873 -0.241949 0)
(-0.0618554 -0.288615 0)
(-0.08251 -0.312659 0)
(-0.098202 -0.31922 0)
(-0.108309 -0.313149 0)
(-0.11309 -0.298562 0)
(-0.11331 -0.278709 0)
(-0.109924 -0.256013 0)
(-0.103891 -0.2322 0)
(-0.0960725 -0.208444 0)
(-0.0871921 -0.185503 0)
(-0.0778268 -0.163832 0)
(-0.0684196 -0.143668 0)
(-0.059298 -0.125101 0)
(-0.0506964 -0.108116 0)
(-0.0427758 -0.0926303 0)
(-0.0356425 -0.0785177 0)
(-0.0293633 -0.0656227 0)
(-0.0239777 -0.053772 0)
(-0.0195082 -0.0427821 0)
(-0.0159674 -0.0324628 0)
(-0.0133644 -0.0226198 0)
(-0.0117087 -0.0130559 0)
(-0.0110129 -0.00357144 0)
(-0.0112948 0.00603658 0)
(-0.0125773 0.0159745 0)
(-0.0148882 0.0264529 0)
(-0.0182575 0.0376865 0)
(-0.0227139 0.0498937 0)
(-0.0282793 0.0632951 0)
(-0.0349602 0.0781097 0)
(-0.0427368 0.0945479 0)
(-0.0515478 0.112801 0)
(-0.0612715 0.133024 0)
(-0.0717013 0.155306 0)
(-0.0825172 0.179632 0)
(-0.0932531 0.205823 0)
(-0.103265 0.233451 0)
(-0.111708 0.261726 0)
(-0.11753 0.289351 0)
(-0.119516 0.314346 0)
(-0.116402 0.333859 0)
(-0.107107 0.344027 0)
(-0.0911269 0.339942 0)
(-0.0690176 0.315888 0)
(-0.0429548 0.265964 0)
(-0.0180344 0.185246 0)
(-0.00337032 0.0717293 0)
(-0.00238351 -0.0574303 0)
(-0.0135363 -0.150464 0)
(-0.0336797 -0.219715 0)
(-0.0565248 -0.266297 0)
(-0.0782606 -0.2932 0)
(-0.0968552 -0.304153 0)
(-0.111299 -0.302935 0)
(-0.121364 -0.292962 0)
(-0.127347 -0.277098 0)
(-0.129825 -0.257607 0)
(-0.129479 -0.236203 0)
(-0.126991 -0.214128 0)
(-0.122979 -0.192248 0)
(-0.117974 -0.17113 0)
(-0.112413 -0.151124 0)
(-0.106641 -0.132412 0)
(-0.100925 -0.115061 0)
(-0.0954665 -0.09905 0)
(-0.0904121 -0.0843014 0)
(-0.0858685 -0.0706951 0)
(-0.0819114 -0.0580831 0)
(-0.0785946 -0.0462983 0)
(-0.0759565 -0.0351605 0)
(-0.0740261 -0.0244803 0)
(-0.0728267 -0.0140623 0)
(-0.0723784 -0.00370564 0)
(-0.0727002 0.00679412 0)
(-0.0738095 0.0176448 0)
(-0.0757214 0.0290566 0)
(-0.0784461 0.0412408 0)
(-0.0819847 0.0544073 0)
(-0.0863233 0.068761 0)
(-0.0914247 0.0844951 0)
(-0.0972178 0.101782 0)
(-0.103583 0.120757 0)
(-0.110338 0.141501 0)
(-0.117216 0.164005 0)
(-0.123846 0.188128 0)
(-0.129734 0.213545 0)
(-0.13425 0.239662 0)
(-0.136625 0.265529 0)
(-0.135981 0.289722 0)
(-0.131401 0.310233 0)
(-0.12206 0.324363 0)
(-0.107446 0.328689 0)
(-0.0876794 0.31915 0)
(-0.0638446 0.291342 0)
(-0.0382908 0.241077 0)
(-0.0154845 0.165238 0)
(-0.00275127 0.0630162 0)
(-0.00199787 -0.0508997 0)
(-0.0117835 -0.134723 0)
(-0.0301288 -0.198958 0)
(-0.0519467 -0.24416 0)
(-0.0739938 -0.272336 0)
(-0.0943228 -0.2862 0)
(-0.111748 -0.288674 0)
(-0.125736 -0.282546 0)
(-0.136244 -0.270275 0)
(-0.143536 -0.253903 0)
(-0.148042 -0.235051 0)
(-0.150256 -0.214957 0)
(-0.150671 -0.194528 0)
(-0.149742 -0.174403 0)
(-0.147864 -0.155004 0)
(-0.145372 -0.13659 0)
(-0.142539 -0.119291 0)
(-0.139584 -0.103143 0)
(-0.136677 -0.0881151 0)
(-0.133952 -0.0741224 0)
(-0.131508 -0.0610449 0)
(-0.129422 -0.048736 0)
(-0.127752 -0.0370303 0)
(-0.126543 -0.0257487 0)
(-0.125828 -0.0147028 0)
(-0.125632 -0.00369707 0)
(-0.125974 0.00746843 0)
(-0.126864 0.0189965 0)
(-0.128305 0.0310903 0)
(-0.13029 0.0439506 0)
(-0.132794 0.057772 0)
(-0.135774 0.0727367 0)
(-0.139156 0.0890062 0)
(-0.14283 0.10671 0)
(-0.146636 0.125926 0)
(-0.150353 0.146663 0)
(-0.153684 0.168822 0)
(-0.156247 0.192162 0)
(-0.157562 0.216242 0)
(-0.157061 0.240361 0)
(-0.154099 0.263483 0)
(-0.147998 0.284158 0)
(-0.138134 0.300458 0)
(-0.124062 0.309937 0)
(-0.105706 0.309659 0)
(-0.0835968 0.29634 0)
(-0.0590808 0.266637 0)
(-0.0344524 0.217602 0)
(-0.0135457 0.147283 0)
(-0.00231598 0.0555089 0)
(-0.00172294 -0.0451789 0)
(-0.0104608 -0.120526 0)
(-0.0273071 -0.179559 0)
(-0.0480684 -0.222535 0)
(-0.0699892 -0.25082 0)
(-0.0912782 -0.266404 0)
(-0.1107 -0.271542 0)
(-0.127544 -0.26849 0)
(-0.141533 -0.259319 0)
(-0.152692 -0.245826 0)
(-0.161238 -0.229496 0)
(-0.16749 -0.211509 0)
(-0.171813 -0.19277 0)
(-0.174568 -0.173944 0)
(-0.176094 -0.155498 0)
(-0.176694 -0.137739 0)
(-0.176627 -0.12085 0)
(-0.17611 -0.104912 0)
(-0.175324 -0.089934 0)
(-0.174414 -0.0758649 0)
(-0.173494 -0.0626128 0)
(-0.172657 -0.0500533 0)
(-0.171972 -0.0380387 0)
(-0.171495 -0.0264042 0)
(-0.171265 -0.0149729 0)
(-0.17131 -0.00355946 0)
(-0.171647 0.00802649 0)
(-0.172279 0.0199773 0)
(-0.173198 0.0324836 0)
(-0.17438 0.0457306 0)
(-0.175781 0.0598923 0)
(-0.177333 0.0751242 0)
(-0.178935 0.0915532 0)
(-0.180453 0.109265 0)
(-0.1817 0.128284 0)
(-0.18244 0.148555 0)
(-0.182372 0.169906 0)
(-0.181131 0.192016 0)
(-0.178285 0.214373 0)
(-0.173354 0.236214 0)
(-0.165835 0.256484 0)
(-0.155255 0.273779 0)
(-0.141249 0.286319 0)
(-0.12368 0.291953 0)
(-0.102784 0.288222 0)
(-0.0793402 0.272513 0)
(-0.0547891 0.242311 0)
(-0.0312627 0.195551 0)
(-0.0120278 0.131034 0)
(-0.00199511 0.0489186 0)
(-0.00151971 -0.0400711 0)
(-0.00943904 -0.107566 0)
(-0.0250391 -0.161366 0)
(-0.0447936 -0.201568 0)
(-0.0663501 -0.229118 0)
(-0.0880923 -0.245487 0)
(-0.108805 -0.25242 0)
(-0.127688 -0.251729 0)
(-0.14431 -0.245142 0)
(-0.158521 -0.234211 0)
(-0.170364 -0.220263 0)
(-0.180011 -0.20439 0)
(-0.187701 -0.187458 0)
(-0.193703 -0.170127 0)
(-0.19829 -0.152882 0)
(-0.201718 -0.136061 0)
(-0.20422 -0.119876 0)
(-0.206001 -0.104447 0)
(-0.207237 -0.0898126 0)
(-0.208073 -0.0759533 0)
(-0.208632 -0.0628024 0)
(-0.209011 -0.0502582 0)
(-0.209287 -0.0381921 0)
(-0.209522 -0.0264559 0)
(-0.209756 -0.0148874 0)
(-0.21002 -0.00331518 0)
(-0.210324 0.00843756 0)
(-0.210668 0.0205486 0)
(-0.211033 0.0331922 0)
(-0.21138 0.0465343 0)
(-0.211652 0.0607253 0)
(-0.211761 0.0758923 0)
(-0.211592 0.0921282 0)
(-0.210995 0.109477 0)
(-0.209775 0.127918 0)
(-0.207696 0.14734 0)
(-0.204474 0.167519 0)
(-0.199781 0.188082 0)
(-0.193254 0.208476 0)
(-0.184515 0.227924 0)
(-0.173203 0.245397 0)
(-0.159032 0.259586 0)
(-0.141858 0.268897 0)
(-0.121777 0.27148 0)
(-0.0992373 0.26531 0)
(-0.0751524 0.248329 0)
(-0.0509572 0.218658 0)
(-0.0285814 0.174859 0)
(-0.0108087 0.116214 0)
(-0.00174924 0.0430492 0)
(-0.00136496 -0.035439 0)
(-0.00863362 -0.095608 0)
(-0.0231943 -0.144226 0)
(-0.0420247 -0.181305 0)
(-0.0630978 -0.207512 0)
(-0.0849667 -0.223943 0)
(-0.106472 -0.231953 0)
(-0.126778 -0.232994 0)
(-0.14536 -0.228496 0)
(-0.16194 -0.219781 0)
(-0.176432 -0.208014 0)
(-0.18888 -0.19418 0)
(-0.199415 -0.179085 0)
(-0.208219 -0.16336 0)
(-0.215494 -0.147487 0)
(-0.221447 -0.131812 0)
(-0.226276 -0.116569 0)
(-0.230163 -0.101898 0)
(-0.23327 -0.0878636 0)
(-0.235738 -0.0744709 0)
(-0.237686 -0.061676 0)
(-0.239213 -0.049398 0)
(-0.240397 -0.037528 0)
(-0.241299 -0.0259355 0)
(-0.241962 -0.0144752 0)
(-0.242413 -0.00299168 0)
(-0.242659 0.00867522 0)
(-0.242694 0.020686 0)
(-0.24249 0.0331961 0)
(-0.241999 0.0463499 0)
(-0.241152 0.0602737 0)
(-0.239851 0.0750664 0)
(-0.237974 0.0907889 0)
(-0.235365 0.10745 0)
(-0.231835 0.12499 0)
(-0.227161 0.143259 0)
(-0.221089 0.161997 0)
(-0.213344 0.180803 0)
(-0.203638 0.199114 0)
(-0.191697 0.216173 0)
(-0.177297 0.231011 0)
(-0.160311 0.242443 0)
(-0.140772 0.249071 0)
(-0.118947 0.249334 0)
(-0.0954198 0.241585 0)
(-0.0711621 0.224216 0)
(-0.0475489 0.195829 0)
(-0.0263043 0.155428 0)
(-0.00980962 0.102606 0)
(-0.0015551 0.0377613 0)
(-0.00124432 -0.0311837 0)
(-0.00798806 -0.0844712 0)
(-0.0216781 -0.128001 0)
(-0.0396771 -0.16174 0)
(-0.0602191 -0.186166 0)
(-0.0820095 -0.202106 0)
(-0.103959 -0.210612 0)
(-0.125231 -0.212847 0)
(-0.145244 -0.209987 0)
(-0.163638 -0.203146 0)
(-0.180225 -0.19333 0)
(-0.194949 -0.181413 0)
(-0.207849 -0.168124 0)
(-0.219026 -0.154053 0)
(-0.228617 -0.139658 0)
(-0.236777 -0.125282 0)
(-0.243666 -0.111163 0)
(-0.249439 -0.0974546 0)
(-0.254237 -0.084239 0)
(-0.25819 -0.0715386 0)
(-0.26141 -0.059329 0)
(-0.263989 -0.0475485 0)
(-0.266005 -0.0361066 0)
(-0.267515 -0.0248911 0)
(-0.26856 -0.0137741 0)
(-0.269164 -0.00261815 0)
(-0.26933 0.00871907 0)
(-0.269045 0.0203791 0)
(-0.268275 0.0324973 0)
(-0.266966 0.0451963 0)
(-0.265042 0.0585783 0)
(-0.262402 0.0727164 0)
(-0.258921 0.0876436 0)
(-0.254448 0.10334 0)
(-0.248807 0.119716 0)
(-0.2418 0.136599 0)
(-0.233214 0.153707 0)
(-0.222827 0.170636 0)
(-0.210432 0.186835 0)
(-0.195854 0.20159 0)
(-0.178989 0.214018 0)
(-0.159843 0.223066 0)
(-0.138586 0.227536 0)
(-0.115604 0.226127 0)
(-0.0915611 0.217512 0)
(-0.0674386 0.200442 0)
(-0.0445263 0.173882 0)
(-0.024356 0.137149 0)
(-0.00897852 0.0900328 0)
(-0.00139839 0.0329518 0)
(-0.00114858 -0.0272315 0)
(-0.00746412 -0.0740131 0)
(-0.0204224 -0.112565 0)
(-0.0376834 -0.142836 0)
(-0.0576899 -0.165171 0)
(-0.0792791 -0.180196 0)
(-0.101434 -0.188734 0)
(-0.123336 -0.191713 0)
(-0.144376 -0.190094 0)
(-0.164136 -0.184806 0)
(-0.182357 -0.176709 0)
(-0.198903 -0.166561 0)
(-0.213738 -0.155012 0)
(-0.226892 -0.142596 0)
(-0.238443 -0.129739 0)
(-0.248497 -0.116765 0)
(-0.257174 -0.103909 0)
(-0.264599 -0.0913286 0)
(-0.270892 -0.0791136 0)
(-0.276166 -0.0672999 0)
(-0.280521 -0.0558785 0)
(-0.284043 -0.044804 0)
(-0.286802 -0.0340029 0)
(-0.288851 -0.0233805 0)
(-0.290227 -0.0128269 0)
(-0.290948 -0.00222266 0)
(-0.291016 0.0085559 0)
(-0.29041 0.019631 0)
(-0.289093 0.0311176 0)
(-0.287007 0.0431172 0)
(-0.284073 0.05571 0)
(-0.280191 0.0689463 0)
(-0.27524 0.0828362 0)
(-0.26908 0.0973381 0)
(-0.261555 0.112345 0)
(-0.252498 0.127669 0)
(-0.241736 0.143027 0)
(-0.229109 0.158026 0)
(-0.214483 0.172146 0)
(-0.197774 0.184735 0)
(-0.178979 0.195004 0)
(-0.158212 0.202042 0)
(-0.135745 0.204833 0)
(-0.112045 0.202307 0)
(-0.0878162 0.193406 0)
(-0.0640214 0.177166 0)
(-0.0418569 0.152823 0)
(-0.022683 0.119911 0)
(-0.00828078 0.0783483 0)
(-0.00127003 0.0285411 0)
(-0.00107172 -0.0235261 0)
(-0.00703569 -0.0641191 0)
(-0.0193785 -0.0978098 0)
(-0.0359922 -0.12454 0)
(-0.0554856 -0.144563 0)
(-0.0768074 -0.158355 0)
(-0.0990095 -0.166556 0)
(-0.121299 -0.169908 0)
(-0.143058 -0.169189 0)
(-0.163832 -0.165168 0)
(-0.183309 -0.158567 0)
(-0.201294 -0.150036 0)
(-0.217688 -0.140139 0)
(-0.232463 -0.129351 0)
(-0.245645 -0.118056 0)
(-0.257294 -0.106553 0)
(-0.267494 -0.0950625 0)
(-0.276339 -0.0837382 0)
(-0.283926 -0.0726732 0)
(-0.290349 -0.061911 0)
(-0.295696 -0.0514536 0)
(-0.300041 -0.0412693 0)
(-0.303448 -0.0312997 0)
(-0.305963 -0.0214666 0)
(-0.307617 -0.0116772 0)
(-0.308424 -0.00182989 0)
(-0.30838 0.00818032 0)
(-0.307463 0.0184567 0)
(-0.305632 0.0290949 0)
(-0.302826 0.0401767 0)
(-0.298968 0.0517626 0)
(-0.293962 0.0638841 0)
(-0.287695 0.0765342 0)
(-0.280042 0.0896569 0)
(-0.270871 0.103136 0)
(-0.260046 0.116782 0)
(-0.24744 0.130322 0)
(-0.232949 0.143387 0)
(-0.216506 0.155503 0)
(-0.198105 0.166089 0)
(-0.177828 0.174458 0)
(-0.155874 0.179833 0)
(-0.132587 0.181368 0)
(-0.108487 0.178195 0)
(-0.0842941 0.169475 0)
(-0.0609354 0.154469 0)
(-0.0395161 0.132616 0)
(-0.0212482 0.103604 0)
(-0.00769305 0.067428 0)
(-0.00116407 0.0244651 0)
(-0.00100971 -0.0200225 0)
(-0.00668485 -0.0546945 0)
(-0.0185123 -0.0836373 0)
(-0.0345656 -0.106794 0)
(-0.0535858 -0.124349 0)
(-0.0746138 -0.136665 0)
(-0.0967632 -0.144243 0)
(-0.11927 -0.147666 0)
(-0.141518 -0.147562 0)
(-0.163031 -0.144557 0)
(-0.18346 -0.139249 0)
(-0.202564 -0.132185 0)
(-0.220196 -0.123846 0)
(-0.236279 -0.114642 0)
(-0.250795 -0.10491 0)
(-0.263763 -0.0949181 0)
(-0.275235 -0.0848668 0)
(-0.285275 -0.0748987 0)
(-0.293958 -0.0651047 0)
(-0.30136 -0.0555312 0)
(-0.307553 -0.0461877 0)
(-0.312602 -0.0370532 0)
(-0.316559 -0.0280826 0)
(-0.319466 -0.0192125 0)
(-0.321348 -0.0103663 0)
(-0.322212 -0.00145961 0)
(-0.322052 0.00759496 0)
(-0.320843 0.0168826 0)
(-0.31854 0.0264809 0)
(-0.315085 0.036454 0)
(-0.310403 0.046846 0)
(-0.304403 0.0576736 0)
(-0.296985 0.068918 0)
(-0.288041 0.080516 0)
(-0.277463 0.0923505 0)
(-0.265146 0.104241 0)
(-0.251008 0.115933 0)
(-0.234994 0.127094 0)
(-0.217098 0.137304 0)
(-0.197379 0.146059 0)
(-0.175987 0.152774 0)
(-0.153186 0.1568 0)
(-0.129371 0.157444 0)
(-0.105095 0.154011 0)
(-0.0810747 0.145842 0)
(-0.0581986 0.132377 0)
(-0.0374866 0.113204 0)
(-0.0200257 0.0881197 0)
(-0.00719948 0.0571624 0)
(-0.00107657 0.0206704 0)
(-0.000959836 -0.0166836 0)
(-0.00639925 -0.0456586 0)
(-0.0177995 -0.069958 0)
(-0.0333763 -0.0895297 0)
(-0.051975 -0.104509 0)
(-0.0727113 -0.115171 0)
(-0.094752 -0.1219 0)
(-0.117362 -0.125154 0)
(-0.139932 -0.125429 0)
(-0.161973 -0.123228 0)
(-0.18311 -0.119036 0)
(-0.20307 -0.113302 0)
(-0.221667 -0.106426 0)
(-0.238786 -0.0987543 0)
(-0.254371 -0.0905734 0)
(-0.268409 -0.0821141 0)
(-0.28092 -0.0735528 0)
(-0.291944 -0.0650168 0)
(-0.301534 -0.0565897 0)
(-0.309749 -0.0483171 0)
(-0.316648 -0.0402127 0)
(-0.322282 -0.0322636 0)
(-0.326697 -0.0244358 0)
(-0.329926 -0.016679 0)
(-0.331988 -0.0089318 0)
(-0.332887 -0.00112566 0)
(-0.332612 0.00681019 0)
(-0.331136 0.0149442 0)
(-0.328415 0.0233378 0)
(-0.324391 0.0320399 0)
(-0.318993 0.041081 0)
(-0.312139 0.0504674 0)
(-0.303741 0.0601737 0)
(-0.293707 0.0701357 0)
(-0.281953 0.0802426 0)
(-0.268408 0.0903297 0)
(-0.253023 0.100172 0)
(-0.235791 0.109478 0)
(-0.216755 0.117889 0)
(-0.19603 0.12498 0)
(-0.173818 0.130265 0)
(-0.15043 0.133215 0)
(-0.126299 0.133275 0)
(-0.101992 0.129895 0)
(-0.0782187 0.122568 0)
(-0.0558251 0.110871 0)
(-0.035757 0.0945084 0)
(-0.0189979 0.0733488 0)
(-0.00678931 0.0474519 0)
(-0.00100483 0.0171106 0)
(-0.000920262 -0.0134778 0)
(-0.00617043 -0.0369403 0)
(-0.0172236 -0.0566889 0)
(-0.0324055 -0.072679 0)
(-0.0506424 -0.0850082 0)
(-0.0711099 -0.0938822 0)
(-0.0930185 -0.0995918 0)
(-0.115659 -0.102487 0)
(-0.138431 -0.102953 0)
(-0.16084 -0.10138 0)
(-0.182494 -0.0981533 0)
(-0.203095 -0.0936295 0)
(-0.222429 -0.0881312 0)
(-0.24035 -0.0819388 0)
(-0.256772 -0.0752881 0)
(-0.271656 -0.0683703 0)
(-0.284994 -0.0613335 0)
(-0.296806 -0.054286 0)
(-0.307126 -0.0473006 0)
(-0.315998 -0.0404189 0)
(-0.323466 -0.0336558 0)
(-0.329574 -0.0270043 0)
(-0.334357 -0.0204393 0)
(-0.337842 -0.0139225 0)
(-0.340043 -0.0074059 0)
(-0.34096 -0.000835679 0)
(-0.340578 0.00584361 0)
(-0.338869 0.0126853 0)
(-0.335789 0.0197363 0)
(-0.331283 0.0270327 0)
(-0.325285 0.0345948 0)
(-0.31772 0.0424221 0)
(-0.308511 0.050487 0)
(-0.297585 0.0587299 0)
(-0.284879 0.0670524 0)
(-0.270347 0.0753122 0)
(-0.253975 0.0833181 0)
(-0.235793 0.0908272 0)
(-0.215886 0.0975438 0)
(-0.19441 0.103122 0)
(-0.171609 0.107174 0)
(-0.147829 0.109278 0)
(-0.123526 0.109003 0)
(-0.0992755 0.105926 0)
(-0.0757732 0.0996647 0)
(-0.053827 0.0899055 0)
(-0.0343204 0.0764388 0)
(-0.0181533 0.0591832 0)
(-0.00645526 0.0382038 0)
(-0.000947039 0.013744 0)
(-0.000889744 -0.0103772 0)
(-0.00599264 -0.0284752 0)
(-0.0167733 -0.0437513 0)
(-0.0316403 -0.0561699 0)
(-0.0495813 -0.0657995 0)
(-0.0698178 -0.0727888 0)
(-0.0915952 -0.0773501 0)
(-0.114226 -0.0797419 0)
(-0.137119 -0.0802491 0)
(-0.159777 -0.0791661 0)
(-0.181797 -0.0767818 0)
(-0.202864 -0.0733685 0)
(-0.222742 -0.0691729 0)
(-0.241264 -0.0644119 0)
(-0.25832 -0.0592688 0)
(-0.273847 -0.0538937 0)
(-0.287821 -0.0484037 0)
(-0.30024 -0.0428856 0)
(-0.311126 -0.0373987 0)
(-0.320508 -0.0319779 0)
(-0.328419 -0.0266371 0)
(-0.334895 -0.021373 0)
(-0.339963 -0.016168 0)
(-0.343644 -0.010994 0)
(-0.345948 -0.00581513 0)
(-0.34687 -0.000591262 0)
(-0.346395 0.00471918 0)
(-0.344493 0.0101558 0)
(-0.34112 0.015753 0)
(-0.336225 0.0215362 0)
(-0.329744 0.0275181 0)
(-0.321612 0.0336946 0)
(-0.311762 0.0400403 0)
(-0.300134 0.0465042 0)
(-0.286685 0.0530051 0)
(-0.271391 0.0594278 0)
(-0.254266 0.0656197 0)
(-0.235368 0.0713893 0)
(-0.214815 0.0765061 0)
(-0.192797 0.080703 0)
(-0.169587 0.0836832 0)
(-0.145556 0.0851294 0)
(-0.121174 0.0847181 0)
(-0.0970199 0.0821377 0)
(-0.073775 0.0771093 0)
(-0.0522149 0.0694097 0)
(-0.0331729 0.0588941 0)
(-0.0174841 0.0455142 0)
(-0.00619243 0.0293299 0)
(-0.000901957 0.0105323 0)
(-0.000867454 -0.00735643 0)
(-0.00586206 -0.0202033 0)
(-0.0164409 -0.0310694 0)
(-0.0310722 -0.0399285 0)
(-0.0487876 -0.0468262 0)
(-0.0688421 -0.0518627 0)
(-0.0905067 -0.0551829 0)
(-0.113111 -0.0569639 0)
(-0.136071 -0.0574024 0)
(-0.15889 -0.0567028 0)
(-0.181158 -0.0550666 0)
(-0.202547 -0.052685 0)
(-0.222808 -0.0497323 0)
(-0.241756 -0.0463621 0)
(-0.259265 -0.0427056 0)
(-0.275257 -0.0388704 0)
(-0.28969 -0.0349412 0)
(-0.302552 -0.0309813 0)
(-0.31385 -0.0270343 0)
(-0.323604 -0.0231265 0)
(-0.33184 -0.0192691 0)
(-0.338584 -0.015461 0)
(-0.34386 -0.0116905 0)
(-0.347682 -0.0079386 0)
(-0.350057 -0.00418055 0)
(-0.350979 -0.000388515 0)
(-0.35043 0.00346624 0)
(-0.348379 0.00741098 0)
(-0.344784 0.011469 0)
(-0.339593 0.0156571 0)
(-0.332751 0.0199825 0)
(-0.324195 0.0244405 0)
(-0.313868 0.0290106 0)
(-0.301723 0.033654 0)
(-0.287728 0.0383102 0)
(-0.27188 0.0428946 0)
(-0.254211 0.0472963 0)
(-0.234804 0.0513774 0)
(-0.213798 0.054973 0)
(-0.191407 0.0578937 0)
(-0.167926 0.0599306 0)
(-0.143741 0.0608621 0)
(-0.119334 0.0604644 0)
(-0.0952813 0.0585235 0)
(-0.0722524 0.0548502 0)
(-0.0509977 0.0492956 0)
(-0.0323128 0.0417654 0)
(-0.0169855 0.0322327 0)
(-0.0059976 0.0207448 0)
(-0.000868752 0.00743931 0)
(-0.000852855 -0.00439166 0)
(-0.00577621 -0.0120678 0)
(-0.0162216 -0.0185691 0)
(-0.0306959 -0.0238796 0)
(-0.0482592 -0.0280253 0)
(-0.0681883 -0.0310642 0)
(-0.0897713 -0.0330804 0)
(-0.112349 -0.0341775 0)
(-0.135343 -0.0344706 0)
(-0.158257 -0.0340801 0)
(-0.180677 -0.0331251 0)
(-0.202269 -0.0317188 0)
(-0.222772 -0.0299649 0)
(-0.241993 -0.0279554 0)
(-0.259794 -0.0257687 0)
(-0.276086 -0.0234696 0)
(-0.290817 -0.0211093 0)
(-0.303967 -0.0187263 0)
(-0.315534 -0.0163473 0)
(-0.325532 -0.0139886 0)
(-0.33398 -0.0116574 0)
(-0.340899 -0.00935342 0)
(-0.34631 -0.00707024 0)
(-0.350224 -0.00479671 0)
(-0.352644 -0.00251841 0)
(-0.353564 -0.000218985 0)
(-0.352962 0.00211842 0)
(-0.35081 0.00450971 0)
(-0.347065 0.00696838 0)
(-0.341677 0.00950388 0)
(-0.334593 0.0121199 0)
(-0.325755 0.0148128 0)
(-0.315113 0.0175694 0)
(-0.302627 0.0203653 0)
(-0.288275 0.0231635 0)
(-0.272066 0.0259122 0)
(-0.254046 0.0285442 0)
(-0.234311 0.0309762 0)
(-0.213018 0.0331094 0)
(-0.190395 0.0348307 0)
(-0.166751 0.0360161 0)
(-0.142481 0.0365347 0)
(-0.118072 0.036255 0)
(-0.0941004 0.0350521 0)
(-0.071226 0.0328165 0)
(-0.0501821 0.0294627 0)
(-0.0317394 0.0249378 0)
(-0.0166544 0.0192286 0)
(-0.0058687 0.0123651 0)
(-0.000846883 0.00443027 0)
(-0.00084563 -0.00146014 0)
(-0.00573362 -0.00401344 0)
(-0.0161126 -0.00617739 0)
(-0.0305084 -0.00794668 0)
(-0.0479952 -0.0093297 0)
(-0.0678604 -0.0103454 0)
(-0.0894005 -0.0110215 0)
(-0.111963 -0.0113918 0)
(-0.134971 -0.0114946 0)
(-0.157929 -0.0113693 0)
(-0.180421 -0.0110554 0)
(-0.20211 -0.0105904 0)
(-0.222731 -0.0100088 0)
(-0.242084 -0.00934113 0)