/*--------------------------------*- C++ -*----------------------------------*\
  =========                 |
  \\      /  F ield         | OpenFOAM: The Open Source CFD Toolbox
   \\    /   O peration     | Website:  https://openfoam.org
    \\  /    A nd           | Version:  7
     \\/     M anipulation  |
\*---------------------------------------------------------------------------*/
FoamFile
{
    version     2.0;
    format      ascii;
    class       surfaceScalarField;
    location    "0.0324";
    object      phi;
}
// * * * * * * * * * * * * * * * * * * * * * * * * * * * * * * * * * * * * * //

dimensions      [0 3 -1 0 0 0 0];

internalField   nonuniform List<scalar> 
4900
(
-5.55606e-06
5.55605e-06
-1.01618e-05
4.60574e-06
-1.29488e-05
2.78702e-06
-1.46675e-05
1.7187e-06
-1.57678e-05
1.10023e-06
-1.65037e-05
7.35933e-07
-1.70208e-05
5.17142e-07
-1.74012e-05
3.80372e-07
-1.76915e-05
2.90299e-07
-1.79194e-05
2.27879e-07
-1.81021e-05
1.82675e-07
-1.82508e-05
1.48718e-07
-1.83732e-05
1.22421e-07
-1.84747e-05
1.01523e-07
-1.85593e-05
8.45373e-08
-1.86297e-05
7.04452e-08
-1.86882e-05
5.85275e-08
-1.87365e-05
4.82614e-08
-1.87757e-05
3.92565e-08
-1.8807e-05
3.12138e-08
-1.88309e-05
2.38989e-08
-1.8848e-05
1.71228e-08
-1.88587e-05
1.07283e-08
-1.88633e-05
4.58115e-09
-1.88619e-05
-1.43916e-09
-1.88544e-05
-7.44249e-09
-1.88409e-05
-1.35375e-08
-1.8821e-05
-1.98333e-08
-1.87946e-05
-2.64463e-08
-1.87611e-05
-3.35061e-08
-1.87199e-05
-4.11633e-08
-1.86703e-05
-4.9599e-08
-1.86113e-05
-5.90386e-08
-1.85415e-05
-6.97706e-08
-1.84593e-05
-8.21743e-08
-1.83626e-05
-9.67618e-08
-1.82483e-05
-1.14243e-07
-1.81127e-05
-1.3563e-07
-1.79503e-05
-1.62418e-07
-1.77534e-05
-1.96892e-07
-1.75107e-05
-2.42705e-07
-1.72048e-05
-3.05939e-07
-1.68076e-05
-3.97162e-07
-1.62722e-05
-5.3539e-07
-1.55171e-05
-7.55062e-07
-1.44013e-05
-1.1158e-06
-1.26855e-05
-1.71588e-06
-9.94825e-06
-2.73721e-06
-5.45319e-06
-4.49506e-06
-5.45319e-06
-1.1954e-08
5.568e-06
-2.12913e-06
6.72292e-06
-4.85284e-06
5.51073e-06
-7.26468e-06
4.13054e-06
-9.19573e-06
3.03129e-06
-1.0699e-05
2.23918e-06
-1.1868e-05
1.68613e-06
-1.27859e-05
1.29835e-06
-1.35165e-05
1.02087e-06
-1.41058e-05
8.17211e-07
-1.4587e-05
6.63807e-07
-1.49836e-05
5.45372e-07
-1.5313e-05
4.51836e-07
-1.55879e-05
3.76408e-07
-1.58178e-05
3.14396e-07
-1.60098e-05
2.62475e-07
-1.61695e-05
2.18236e-07
-1.63012e-05
1.7989e-07
-1.6408e-05
1.4608e-07
-1.64925e-05
1.15755e-07
-1.65567e-05
8.80801e-08
-1.6602e-05
6.2377e-08
-1.66293e-05
3.80778e-08
-1.66394e-05
1.46926e-08
-1.66326e-05
-8.21538e-09
-1.6609e-05
-3.10532e-08
-1.65684e-05
-5.42141e-08
-1.65101e-05
-7.80969e-08
-1.64334e-05
-1.03124e-07
-1.63372e-05
-1.29764e-07
-1.62198e-05
-1.58552e-07
-1.60792e-05
-1.90132e-07
-1.5913e-05
-2.25289e-07
-1.57177e-05
-2.6502e-07
-1.54893e-05
-3.10614e-07
-1.52223e-05
-3.63778e-07
-1.49097e-05
-4.26824e-07
-1.45424e-05
-5.02951e-07
-1.41081e-05
-5.96687e-07
-1.35904e-05
-7.14591e-07
-1.29667e-05
-8.66376e-07
-1.2206e-05
-1.06669e-06
-1.12652e-05
-1.33791e-06
-1.00865e-05
-1.71416e-06
-8.59569e-06
-2.24583e-06
-6.71296e-06
-2.99853e-06
-4.39897e-06
-4.02987e-06
-1.82253e-06
-5.31364e-06
1.22779e-07
-6.44037e-06
-5.33042e-06
1.03356e-06
4.53445e-06
5.52102e-07
7.20437e-06
-9.79855e-07
7.04269e-06
-2.86503e-06
6.01572e-06
-4.70998e-06
4.87623e-06
-6.35457e-06
3.88378e-06
-7.75981e-06
3.09137e-06
-8.93915e-06
2.47768e-06
-9.92332e-06
2.00504e-06
-1.07449e-05
1.63875e-06
-1.14325e-05
1.35146e-06
-1.201e-05
1.12283e-06
-1.24962e-05
9.38044e-07
-1.29061e-05
7.86332e-07
-1.32515e-05
6.59817e-07
-1.35417e-05
5.52671e-07
-1.3784e-05
4.60522e-07
-1.39841e-05
3.80034e-07
-1.41467e-05
3.08625e-07
-1.42752e-05
2.44254e-07
-1.43724e-05
1.85276e-07
-1.44403e-05
1.30339e-07
-1.44806e-05
7.8299e-08
-1.4494e-05
2.81624e-08
-1.44813e-05
-2.09615e-08
-1.44424e-05
-6.99026e-08
-1.43772e-05
-1.19463e-07
-1.42848e-05
-1.70453e-07
-1.41642e-05
-2.23723e-07
-1.40138e-05
-2.80204e-07
-1.38314e-05
-3.40956e-07
-1.36143e-05
-4.07224e-07
-1.33591e-05
-4.80512e-07
-1.30614e-05
-5.62687e-07
-1.27159e-05
-6.56115e-07
-1.23158e-05
-7.63852e-07
-1.18527e-05
-8.89912e-07
-1.13161e-05
-1.03964e-06
-1.06925e-05
-1.22027e-06
-9.96544e-06
-1.44163e-06
-9.11463e-06
-1.71718e-06
-8.11609e-06
-2.06523e-06
-6.94393e-06
-2.51008e-06
-5.57614e-06
-3.08195e-06
-4.00932e-06
-3.81265e-06
-2.29032e-06
-4.71753e-06
-5.76759e-07
-5.74343e-06
7.63398e-07
-6.6538e-06
1.08626e-06
-6.76324e-06
-4.24415e-06
9.08456e-07
3.62599e-06
1.23715e-06
6.87568e-06
6.62599e-07
7.61724e-06
-4.89593e-07
7.16791e-06
-1.89093e-06
6.27757e-06
-3.3237e-06
5.31654e-06
-4.67146e-06
4.43913e-06
-5.88498e-06
3.6912e-06
-6.9522e-06
3.07226e-06
-7.87897e-06
2.56552e-06
-8.67838e-06
2.15086e-06
-9.36531e-06
1.80976e-06
-9.95404e-06
1.52677e-06
-1.04573e-05
1.28955e-06
-1.08858e-05
1.08837e-06
-1.12488e-05
9.15656e-07
-1.15537e-05
7.65441e-07
-1.18067e-05
6.3303e-07
-1.20128e-05
5.14672e-07
-1.21758e-05
4.07337e-07
-1.22991e-05
3.08535e-07
-1.23849e-05
2.16181e-07
-1.24351e-05
1.28493e-07
-1.24509e-05
4.39074e-08
-1.24329e-05
-3.89854e-08
-1.23813e-05
-1.21501e-07
-1.22958e-05
-2.0491e-07
-1.21758e-05
-2.90485e-07
-1.20199e-05
-3.79552e-07
-1.18266e-05
-4.73546e-07
-1.15935e-05
-5.74069e-07
-1.13178e-05
-6.82969e-07
-1.09958e-05
-8.02437e-07
-1.06234e-05
-9.35124e-07
-1.01952e-05
-1.0843e-06
-9.70501e-06
-1.25405e-06
-9.14539e-06
-1.44954e-06
-8.5077e-06
-1.67733e-06
-7.78217e-06
-1.94579e-06
-6.95832e-06
-2.26548e-06
-6.02607e-06
-2.64943e-06
-4.97826e-06
-3.11304e-06
-3.81576e-06
-3.67258e-06
-2.55708e-06
-4.34063e-06
-1.25516e-06
-5.11457e-06
-2.24539e-08
-5.95024e-06
9.42561e-07
-6.70844e-06
1.34781e-06
-7.05905e-06
9.16062e-07
-6.33148e-06
-3.32809e-06
6.74877e-07
2.95111e-06
1.25544e-06
6.29512e-06
1.24914e-06
7.62354e-06
6.96246e-07
7.7208e-06
-2.1637e-07
7.19019e-06
-1.30698e-06
6.40715e-06
-2.44396e-06
5.57612e-06
-3.5466e-06
4.79383e-06
-4.57205e-06
4.09772e-06
-5.50165e-06
3.49512e-06
-6.33071e-06
2.97993e-06
-7.06203e-06
2.54108e-06
-7.70188e-06
2.16662e-06
-8.25781e-06
1.84548e-06
-8.73744e-06
1.568e-06
-9.14787e-06
1.32609e-06
-9.49544e-06
1.11301e-06
-9.78563e-06
9.23216e-07
-1.00231e-05
7.5211e-07
-1.02116e-05
5.95868e-07
-1.03543e-05
4.5127e-07
-1.04537e-05
3.1557e-07
-1.05116e-05
1.8638e-07
-1.05293e-05
6.15836e-08
-1.05075e-05
-6.07444e-08
-1.04466e-05
-1.82402e-07
-1.03464e-05
-3.05123e-07
-1.02063e-05
-4.30633e-07
-1.00251e-05
-5.60709e-07
-9.80141e-06
-6.97239e-07
-9.53318e-06
-8.42297e-07
-9.21793e-06
-9.98218e-07
-8.85267e-06
-1.1677e-06
-8.43389e-06
-1.3539e-06
-7.95759e-06
-1.5606e-06
-7.41931e-06
-1.79233e-06
-6.81433e-06
-2.05451e-06
-6.138e-06
-2.35367e-06
-5.38634e-06
-2.69745e-06
-4.55731e-06
-3.0945e-06
-3.65285e-06
-3.55389e-06
-2.68238e-06
-4.0835e-06
-1.66848e-06
-4.68648e-06
-6.55149e-07
-5.35396e-06
2.8135e-07
-6.05107e-06
1.02295e-06
-6.69185e-06
1.41292e-06
-7.09841e-06
1.29832e-06
-6.94444e-06
6.66387e-07
-5.69955e-06
-2.6617e-06
4.84326e-07
2.46679e-06
1.09075e-06
5.6887e-06
1.37263e-06
7.34166e-06
1.22881e-06
7.86462e-06
7.2619e-07
7.69281e-06
-1.74478e-08
7.15079e-06
-8.90744e-07
6.44941e-06
-1.80927e-06
5.71235e-06
-2.7162e-06
5.00465e-06
-3.57701e-06
4.35593e-06
-4.37291e-06
3.77583e-06
-5.09538e-06
3.26354e-06
-5.74214e-06
2.81339e-06
-6.31456e-06
2.41789e-06
-6.81584e-06
2.06928e-06
-7.25001e-06
1.76026e-06
-7.62129e-06
1.48429e-06
-7.93371e-06
1.23564e-06
-8.19096e-06
1.00936e-06
-8.39624e-06
8.01152e-07
-8.55228e-06
6.07311e-07
-8.6613e-06
4.24587e-07
-8.72503e-06
2.50105e-07
-8.74472e-06
8.12795e-08
-8.72121e-06
-8.42583e-08
-8.65488e-06
-2.48731e-07
-8.54573e-06
-4.14274e-07
-8.39336e-06
-5.82998e-07
-8.19703e-06
-7.57046e-07
-7.95561e-06
-9.38656e-07
-7.66768e-06
-1.13023e-06
-7.33151e-06
-1.33439e-06
-6.94514e-06
-1.55407e-06
-6.50644e-06
-1.7926e-06
-6.01329e-06
-2.05376e-06
-5.46377e-06
-2.34184e-06
-4.85659e-06
-2.66169e-06
-4.19168e-06
-3.01858e-06
-3.47117e-06
-3.41796e-06
-2.70091e-06
-3.86477e-06
-1.89268e-06
-4.36212e-06
-1.06748e-06
-4.90871e-06
-2.59689e-07
-5.49427e-06
4.7806e-07
-6.09171e-06
1.07134e-06
-6.64435e-06
1.42641e-06
-7.04691e-06
1.4488e-06
-7.12081e-06
1.09395e-06
-6.58959e-06
4.70449e-07
-5.07606e-06
-2.19126e-06
3.52597e-07
2.11419e-06
9.07695e-07
5.1336e-06
1.3131e-06
6.93625e-06
1.42055e-06
7.75717e-06
1.22155e-06
7.89182e-06
7.75229e-07
7.59711e-06
1.59873e-07
7.06477e-06
-5.52003e-07
6.42423e-06
-1.30317e-06
5.75581e-06
-2.05256e-06
5.10533e-06
-2.77289e-06
4.49616e-06
-3.44729e-06
3.93794e-06
-4.0663e-06
3.43239e-06
-4.62538e-06
2.97698e-06
-5.12319e-06
2.56709e-06
-5.56029e-06
2.19735e-06
-5.9383e-06
1.8623e-06
-6.25937e-06
1.55671e-06
-6.5258e-06
1.27579e-06
-6.73984e-06
1.01519e-06
-6.90353e-06
7.71001e-07
-7.01864e-06
5.39698e-07
-7.08663e-06
3.18096e-07
-7.10864e-06
1.03282e-07
-7.08545e-06
-1.07441e-07
-7.01757e-06
-3.16612e-07
-6.90518e-06
-5.26666e-07
-6.74819e-06
-7.39991e-07
-6.54626e-06
-9.58971e-07
-6.29887e-06
-1.18605e-06
-6.00534e-06
-1.42376e-06
-5.66493e-06
-1.6748e-06
-5.27694e-06
-1.94206e-06
-4.8409e-06
-2.22864e-06
-4.35679e-06
-2.53787e-06
-3.82537e-06
-2.87326e-06
-3.24874e-06
-3.23832e-06
-2.63102e-06
-3.6363e-06
-1.9794e-06
-4.06958e-06
-1.30558e-06
-4.5386e-06
-6.27567e-07
-5.04013e-06
2.80596e-08
-5.56433e-06
6.23927e-07
-6.09014e-06
1.11054e-06
-6.57832e-06
1.42796e-06
-6.96177e-06
1.51446e-06
-7.13342e-06
1.32812e-06
-6.93447e-06
8.88096e-07
-6.14956e-06
3.37221e-07
-4.52518e-06
-1.85403e-06
2.65692e-07
1.8485e-06
7.51418e-07
4.64787e-06
1.19366e-06
6.49402e-06
1.44327e-06
7.50755e-06
1.45293e-06
7.88216e-06
1.23916e-06
7.81088e-06
8.48554e-07
7.45537e-06
3.35284e-07
6.9375e-06
-2.50907e-07
6.342e-06
-8.69521e-07
5.72394e-06
-1.49007e-06
5.1167e-06
-2.09091e-06
4.53879e-06
-2.65754e-06
3.99902e-06
-3.18076e-06
3.5002e-06
-3.6552e-06
3.04153e-06
-4.07813e-06
2.62028e-06
-4.44854e-06
2.23271e-06
-4.76654e-06
1.87471e-06
-5.03287e-06
1.54212e-06
-5.2486e-06
1.23092e-06
-5.41491e-06
9.37314e-07
-5.53298e-06
6.57768e-07
-5.60388e-06
3.88989e-07
-5.6285e-06
1.2791e-07
-5.6076e-06
-1.28344e-07
-5.54172e-06
-3.82494e-07
-5.43124e-06
-6.37145e-07
-5.27641e-06
-8.94823e-07
-5.07736e-06
-1.15801e-06
-4.83422e-06
-1.42919e-06
-4.54712e-06
-1.71085e-06
-4.21639e-06
-2.00553e-06
-3.84265e-06
-2.3158e-06
-3.42707e-06
-2.64423e-06
-2.97161e-06
-2.99333e-06
-2.47946e-06
-3.3654e-06
-1.95555e-06
-3.76223e-06
-1.40724e-06
-4.18462e-06
-8.45198e-07
-4.63161e-06
-2.84515e-07
-5.09928e-06
2.54133e-07
-5.57878e-06
7.43385e-07
-6.05359e-06
1.14874e-06
-6.49549e-06
1.42969e-06
-6.85927e-06
1.54417e-06
-7.07625e-06
1.4587e-06
-7.04794e-06
1.16699e-06
-6.64276e-06
7.18212e-07
-5.70078e-06
2.49802e-07
-4.05677e-06
-1.60423e-06
2.07692e-07
1.64081e-06
6.2739e-07
4.22817e-06
1.0646e-06
6.0568e-06
1.38724e-06
7.18491e-06
1.5326e-06
7.7368e-06
1.49053e-06
7.85295e-06
1.28245e-06
7.66345e-06
9.44228e-07
7.27572e-06
5.14757e-07
6.77147e-06
2.96899e-08
6.20901e-06
-4.81258e-07
5.62765e-06
-9.94861e-07
5.05239e-06
-1.49383e-06
4.49799e-06
-1.96584e-06
3.9722e-06
-2.40246e-06
3.47815e-06
-2.79819e-06
3.01602e-06
-3.14969e-06
2.58421e-06
-3.45511e-06
2.18013e-06
-3.71362e-06
1.80063e-06
-3.92506e-06
1.44236e-06
-4.08969e-06
1.10195e-06
-4.20801e-06
7.76087e-07
-4.28061e-06
4.61588e-07
-4.30812e-06
1.55417e-07
-4.29115e-06
-1.45317e-07
-4.23028e-06
-4.43365e-07
-4.12607e-06
-7.41356e-07
-3.97907e-06
-1.04182e-06
-3.78991e-06
-1.34718e-06
-3.55931e-06
-1.65979e-06
-3.28823e-06
-1.98194e-06
-2.97797e-06
-2.31578e-06
-2.63039e-06
-2.66338e-06
-2.24809e-06
-3.02653e-06
-1.83471e-06
-3.40671e-06
-1.39534e-06
-3.80477e-06
-9.36957e-07
-4.22061e-06
-4.69017e-07
-4.65256e-06
-4.06629e-09
-5.09657e-06
4.41579e-07
-5.54492e-06
8.47302e-07
-5.9845e-06
1.18806e-06
-6.39434e-06
1.43515e-06
-6.74259e-06
1.55869e-06
-6.98281e-06
1.53283e-06
-7.05038e-06
1.34496e-06
-6.86008e-06
1.00961e-06
-6.3074e-06
5.85709e-07
-5.27688e-06
1.91534e-07
-3.6626e-06
-1.4127e-06
1.67642e-07
1.47316e-06
5.30511e-07
3.8653e-06
9.44261e-07
5.64305e-06
1.29812e-06
6.83105e-06
1.52705e-06
7.50787e-06
1.60622e-06
7.77378e-06
1.53937e-06
7.73031e-06
1.3469e-06
7.46819e-06
1.05655e-06
7.06182e-06
6.97204e-07
6.56836e-06
2.9532e-07
6.02953e-06
-1.26619e-07
5.47433e-06
-5.50523e-07
4.9219e-06
-9.62423e-07
4.3841e-06
-1.3519e-06
3.86763e-06
-1.71143e-06
3.37555e-06
-2.03576e-06
2.90855e-06
-2.32138e-06
2.46575e-06
-2.56604e-06
2.04529e-06
-2.76843e-06
1.64475e-06
-2.92788e-06
1.2614e-06
-3.04419e-06
8.92396e-07
-3.11745e-06
5.34849e-07
-3.14797e-06
1.85934e-07
-3.13619e-06
-1.57091e-07
-3.0827e-06
-4.9686e-07
-2.98817e-06
-8.35883e-07
-2.85344e-06
-1.17654e-06
-2.67953e-06
-1.52109e-06
-2.46773e-06
-1.87159e-06
-2.2197e-06
-2.22997e-06
-1.93759e-06
-2.59789e-06
-1.62425e-06
-2.97671e-06
-1.28342e-06
-3.36736e-06
-9.20011e-07
-3.77012e-06
-5.40396e-07
-4.18439e-06
-1.5281e-07
-4.60819e-06
2.32282e-07
-5.03765e-06
6.01806e-07
-5.46609e-06
9.3981e-07
-5.88293e-06
1.22747e-06
-6.27216e-06
1.44363e-06
-6.6105e-06
1.56621e-06
-6.86518e-06
1.57519e-06
-6.99179e-06
1.45744e-06
-6.93263e-06
1.21411e-06
-6.61675e-06
8.70036e-07
-5.96333e-06
4.83456e-07
-4.8903e-06
1.51349e-07
-3.33049e-06
-1.26135e-06
1.38833e-07
1.33433e-06
4.5427e-07
3.54987e-06
8.37623e-07
5.2597e-06
1.19813e-06
6.47054e-06
1.47472e-06
7.23128e-06
1.63594e-06
7.61256e-06
1.67415e-06
7.6921e-06
1.59797e-06
7.54437e-06
1.4253e-06
7.23449e-06
1.17789e-06
6.81577e-06
8.77786e-07
6.32963e-06
5.45228e-07
5.80689e-06
1.97651e-07
5.26947e-06
-1.5059e-07
4.73234e-06
-4.8809e-07
4.20513e-06
-8.06052e-07
3.69351e-06
-1.09787e-06
3.20037e-06
-1.35873e-06
2.72661e-06
-1.58522e-06
2.27177e-06
-1.775e-06
1.83453e-06
-1.92657e-06
1.41298e-06
-2.03908e-06
1.0049e-06
-2.11211e-06
6.07881e-07
-2.14564e-06
2.19463e-07
-2.13993e-06
-1.62805e-07
-2.09549e-06
-5.41296e-07
-2.0131e-06
-9.18277e-07
-1.89378e-06
-1.29586e-06
-1.73889e-06
-1.67598e-06
-1.55015e-06
-2.06033e-06
-1.32978e-06
-2.45035e-06
-1.08058e-06
-2.84709e-06
-8.06155e-07
-3.25114e-06
-5.11027e-07
-3.66249e-06
-2.00901e-07
-4.08025e-06
1.17112e-07
-4.5024e-06
4.34254e-07
-4.92533e-06
7.399e-07
-5.3433e-06
1.02143e-06
-5.74762e-06
1.26427e-06
-6.12577e-06
1.45226e-06
-6.46016e-06
1.56859e-06
-6.72682e-06
1.59743e-06
-6.89402e-06
1.52681e-06
-6.92117e-06
1.35269e-06
-6.75851e-06
1.08436e-06
-6.34842e-06
7.50452e-07
-5.62943e-06
4.03873e-07
-4.54372e-06
1.22535e-07
-3.04915e-06
-1.13881e-06
1.17239e-07
1.21709e-06
3.93179e-07
3.27393e-06
7.44531e-07
4.90835e-06
1.09751e-06
6.11756e-06
1.39752e-06
6.93127e-06
1.61132e-06
7.39876e-06
1.72469e-06
7.57873e-06
1.73794e-06
7.53112e-06
1.66099e-06
7.31144e-06
1.50908e-06
6.96768e-06
1.29956e-06
6.53916e-06
1.04965e-06
6.05679e-06
7.752e-07
5.54392e-06
4.90009e-07
5.01754e-06
2.05637e-07
4.4895e-06
-6.85312e-08
3.96768e-06
-3.25078e-07
3.45692e-06
-5.58285e-07
2.95981e-06
-7.63853e-07
2.47734e-06
-9.38641e-07
2.00932e-06
-1.08045e-06
1.55479e-06
-1.18781e-06
1.11227e-06
-1.25989e-06
6.79956e-07
-1.29631e-06
2.55883e-07
-1.29713e-06
-1.61983e-07
-1.26278e-06
-5.75645e-07
-1.19405e-06
-9.87007e-07
-1.0921e-06
-1.39781e-06
-9.58495e-07
-1.80958e-06
-7.95275e-07
-2.22355e-06
-6.05033e-07
-2.64059e-06
-3.91031e-07
-3.06109e-06
-1.57319e-07
-3.48485e-06
9.11093e-08
-3.91092e-06
3.48162e-07
-4.3373e-06
6.06498e-07
-4.76074e-06
8.57395e-07
-5.17623e-06
1.09069e-06
-5.57659e-06
1.29482e-06
-5.95175e-06
1.45712e-06
-6.28807e-06
1.56438e-06
-6.56741e-06
1.60387e-06
-6.76631e-06
1.56507e-06
-6.85523e-06
1.44209e-06
-6.79819e-06
1.23685e-06
-6.55327e-06
9.62875e-07
-6.07445e-06
6.48858e-07
-5.31541e-06
3.40856e-07
-4.23572e-06
1.01064e-07
-2.80936e-06
-1.03775e-06
1.00417e-07
1.11668e-06
3.4312e-07
3.03122e-06
6.63148e-07
4.58832e-06
1.00051e-06
5.7802e-06
1.30767e-06
6.62412e-06
1.55232e-06
7.15411e-06
1.71695e-06
7.41409e-06
1.79639e-06
7.45168e-06
1.79455e-06
7.31329e-06
1.72117e-06
7.04105e-06
1.58916e-06
6.67117e-06
1.41253e-06
6.23342e-06
1.20502e-06
5.75143e-06
9.79254e-07
5.2433e-06
7.46331e-07
4.72242e-06
5.15654e-07
4.19835e-06
2.94977e-07
3.67759e-06
9.05317e-08
3.16426e-06
-9.27967e-08
2.66067e-06
-2.51278e-07
2.1678e-06
-3.82157e-07
1.68567e-06
-4.83499e-07
1.21361e-06
-5.54052e-07
7.5051e-07
-5.93152e-07
2.94983e-07
-6.00642e-07
-1.54493e-07
-5.76832e-07
-5.99455e-07
-5.22476e-07
-1.04136e-06
-4.38781e-07
-1.48151e-06
-3.27431e-07
-1.92093e-06
-1.90638e-07
-2.36035e-06
-3.12104e-08
-2.80002e-06
1.4736e-07
-3.23966e-06
3.40804e-07
-3.6783e-06
5.43967e-07
-4.11408e-06
7.50716e-07
-4.54405e-06
9.53857e-07
-4.96388e-06
1.14511e-06
-5.36749e-06
1.31516e-06
-5.74664e-06
1.45385e-06
-6.09044e-06
1.55054e-06
-6.38477e-06
1.59485e-06
-6.61171e-06
1.57761e-06
-6.74908e-06
1.49247e-06
-6.77008e-06
1.33779e-06
-6.64352e-06
1.11913e-06
-6.3346e-06
8.51637e-07
-5.80695e-06
5.62163e-07
-5.02594e-06
2.89889e-07
-3.96345e-06
8.4479e-08
-2.60395e-06
-9.5327e-07
8.68512e-08
1.02982e-06
3.01118e-07
2.81696e-06
5.91328e-07
4.29811e-06
9.0853e-07
5.46299e-06
1.2119e-06
6.32075e-06
1.47147e-06
6.89454e-06
1.66859e-06
7.21697e-06
1.79476e-06
7.3255e-06
1.8496e-06
7.25845e-06
1.8385e-06
7.05216e-06
1.77049e-06
6.73918e-06
1.65649e-06
6.34743e-06
1.50794e-06
5.89998e-06
1.33597e-06
5.41527e-06
1.15078e-06
4.90761e-06
9.61369e-07
4.38776e-06
7.7544e-07
3.86352e-06
5.99397e-07
3.3403e-06
4.38434e-07
2.82163e-06
2.96654e-07
2.30958e-06
1.77197e-07
1.80512e-06
8.23666e-08
1.30844e-06
1.37337e-08
8.19143e-07
-2.77693e-08
3.36486e-07
-4.17833e-08
-1.40479e-07
-2.84762e-08
-6.12762e-07
1.14782e-08
-1.08132e-06
7.69022e-08
-1.54693e-06
1.66096e-07
-2.01013e-06
2.76801e-07
-2.47105e-06
4.06151e-07
-2.92937e-06
5.50608e-07
-3.38412e-06
7.05902e-07
-3.83359e-06
8.66963e-07
-4.27514e-06
1.02788e-06
-4.70497e-06
1.18188e-06
-5.11788e-06
1.32138e-06
-5.50699e-06
1.43813e-06
-5.86338e-06
1.52344e-06
-6.17575e-06
1.56869e-06
-6.43001e-06
1.56594e-06
-6.60896e-06
1.50895e-06
-6.69208e-06
1.39442e-06
-6.65555e-06
1.22355e-06
-6.47264e-06
1.00377e-06
-6.11482e-06
7.50323e-07
-5.55351e-06
4.87339e-07
-4.76295e-06
2.47713e-07
-3.72382e-06
7.12375e-08
-2.42748e-06
-8.82033e-07
7.5568e-08
9.54257e-07
2.6505e-07
2.62747e-06
5.27116e-07
4.03604e-06
8.21633e-07
5.16848e-06
1.11382e-06
6.02856e-06
1.37664e-06
6.63172e-06
1.59164e-06
7.00197e-06
1.74857e-06
7.16857e-06
1.84415e-06
7.16287e-06
1.88047e-06
7.01583e-06
1.86339e-06
6.75626e-06
1.80102e-06
6.4098e-06
1.70261e-06
5.99839e-06
1.5776e-06
5.54027e-06
1.43508e-06
5.05013e-06
1.28336e-06
4.53949e-06
1.12978e-06
4.0171e-06
9.80643e-07
3.48944e-06
8.41214e-07
2.96106e-06
7.15769e-07
2.43502e-06
6.07678e-07
1.91321e-06
5.19491e-07
1.39663e-06
4.53021e-07
8.85612e-07
4.09422e-07
3.80085e-07
3.89239e-07
-1.20297e-07
3.9246e-07
-6.15983e-07
4.18529e-07
-1.10739e-06
4.66361e-07
-1.59476e-06
5.34326e-07
-2.07809e-06
6.20233e-07
-2.55696e-06
7.21291e-07
-3.03042e-06
8.34073e-07
-3.4969e-06
9.54481e-07
-3.954e-06
1.07772e-06
-4.39838e-06
1.19827e-06
-4.82553e-06
1.30999e-06
-5.22959e-06
1.40611e-06
-5.60311e-06
1.4795e-06
-5.93678e-06
1.52295e-06
-6.2192e-06
1.52958e-06
-6.43665e-06
1.49354e-06
-6.57292e-06
1.4108e-06
-6.60935e-06
1.28022e-06
-6.52496e-06
1.10469e-06
-6.29712e-06
8.92391e-07
-5.90252e-06
6.57714e-07
-5.31883e-06
4.21778e-07
-4.52702e-06
2.11987e-07
-3.51403e-06
6.03385e-08
-2.27583e-06
-8.21694e-07
6.59217e-08
8.88335e-07
2.33389e-07
2.46001e-06
4.68877e-07
3.80056e-06
7.39341e-07
4.89801e-06
1.01529e-06
5.75261e-06
1.27278e-06
6.37424e-06
1.49434e-06
6.78041e-06
1.66906e-06
6.99385e-06
1.79185e-06
7.04008e-06
1.86244e-06
6.94524e-06
1.88417e-06
6.73454e-06
1.86278e-06
6.43119e-06
1.80547e-06
6.0557e-06
1.72007e-06
5.62568e-06
1.6144e-06
5.1558e-06
1.49592e-06
4.65797e-06
1.37141e-06
4.14161e-06
1.24687e-06
3.61398e-06
1.12743e-06
3.0805e-06
1.01737e-06
2.54508e-06
9.20148e-07
2.01044e-06
8.38446e-07
1.47833e-06
7.74244e-07
9.49815e-07
7.28862e-07
4.25467e-07
7.03015e-07
-9.44501e-08
6.96844e-07
-6.09812e-07
7.09943e-07
-1.12048e-06
7.41368e-07
-1.62619e-06
7.89632e-07
-2.12636e-06
8.52701e-07
-2.62003e-06
9.27968e-07
-3.10569e-06
1.01224e-06
-3.58117e-06
1.10172e-06
-4.04348e-06
1.19202e-06
-4.48867e-06
1.27817e-06
-4.91167e-06
1.35468e-06
-5.3061e-06
1.41571e-06
-5.66413e-06
1.45521e-06
-5.97628e-06
1.46729e-06
-6.23128e-06
1.4466e-06
-6.41596e-06
1.38892e-06
-6.51524e-06
1.29185e-06
-6.51227e-06
1.15564e-06
-6.38876e-06
9.84085e-07
-6.12557e-06
7.85298e-07
-5.70373e-06
5.72343e-07
-5.10588e-06
3.63358e-07
-4.31803e-06
1.81016e-07
-3.33169e-06
5.11098e-08
-2.14592e-06
-7.70584e-07
5.74712e-08
8.30864e-07
2.05034e-07
2.31244e-06
4.15305e-07
3.59029e-06
6.61e-07
4.65232e-06
9.17216e-07
5.4964e-06
1.16303e-06
6.12843e-06
1.3824e-06
6.56103e-06
1.56447e-06
6.81179e-06
1.70317e-06
6.90138e-06
1.79663e-06
6.85178e-06
1.84626e-06
6.68491e-06
1.8559e-06
6.42154e-06
1.83097e-06
6.08063e-06
1.77773e-06
5.67891e-06
1.7028e-06
5.23073e-06
1.61267e-06
4.7481e-06
1.51345e-06
4.24083e-06
1.41067e-06
3.71676e-06
1.30919e-06
3.18198e-06
1.21315e-06
2.64113e-06
1.12596e-06
2.09762e-06
1.05037e-06
1.55392e-06
9.8842e-07
1.01176e-06
9.41563e-07
4.72324e-07
9.10647e-07
-6.35339e-08
8.95966e-07
-5.95131e-07
8.97279e-07
-1.1218e-06
9.13819e-07
-1.64273e-06
9.44299e-07
-2.15684e-06
9.86911e-07
-2.66264e-06
1.03932e-06
-3.1581e-06
1.09864e-06
-3.6405e-06
1.1615e-06
-4.10634e-06
1.22397e-06
-4.55115e-06
1.2817e-06
-4.9694e-06
1.32993e-06
-5.35434e-06
1.36369e-06
-5.6979e-06
1.37797e-06
-5.99056e-06
1.36802e-06
-6.22133e-06
1.32973e-06
-6.37767e-06
1.26013e-06
-6.44564e-06
1.15795e-06
-6.41009e-06
1.02426e-06
-6.25507e-06
8.63125e-07
-5.96443e-06
6.82144e-07
-5.52275e-06
4.92793e-07
-4.91653e-06
3.10392e-07
-4.13563e-06
1.53564e-07
-3.17486e-06
4.30871e-08
-2.03544e-06
-7.27497e-07
4.99072e-08
7.80957e-07
1.79177e-07
2.18317e-06
3.65369e-07
3.40409e-06
5.8595e-07
4.43174e-06
8.19983e-07
5.26237e-06
1.0494e-06
5.89901e-06
1.25981e-06
6.35062e-06
1.44086e-06
6.63074e-06
1.58614e-06
6.7561e-06
1.69275e-06
6.74517e-06
1.76074e-06
6.61692e-06
1.79242e-06
6.38986e-06
1.7917e-06
6.08135e-06
1.7635e-06
5.70711e-06
1.71324e-06
5.28099e-06
1.64646e-06
4.81488e-06
1.56851e-06
4.31878e-06
1.48438e-06
3.80089e-06
1.39855e-06
3.26782e-06
1.3149e-06
2.72478e-06
1.23672e-06
2.1758e-06
1.1667e-06
1.62395e-06
1.10691e-06
1.07155e-06
1.05887e-06
5.20369e-07
1.02353e-06
-2.81921e-08
1.00133e-06
-5.72929e-07
9.92191e-07
-1.11266e-06
9.95561e-07
-1.6461e-06
1.01038e-06
-2.17166e-06
1.03513e-06
-2.68738e-06
1.06778e-06
-3.19075e-06
1.10587e-06
-3.67858e-06
1.14643e-06
-4.1469e-06
1.18611e-06
-4.59083e-06
1.22117e-06
-5.00446e-06
1.2476e-06
-5.38077e-06
1.26125e-06
-5.71155e-06
1.25803e-06
-5.98734e-06
1.23415e-06
-6.19745e-06
1.18649e-06
-6.33001e-06
1.11299e-06
-6.37214e-06
1.01309e-06
-6.3102e-06
8.88256e-07
-6.13023e-06
7.42412e-07
-5.81859e-06
5.8233e-07
-5.36267e-06
4.17808e-07
-4.75201e-06
2.61557e-07
-3.97938e-06
1.28716e-07
-3.04202e-06
3.59416e-08
-1.94267e-06
-6.91556e-07
4.30079e-08
7.37949e-07
1.5522e-07
2.07096e-06
3.18268e-07
3.24105e-06
5.13595e-07
4.23641e-06
7.23714e-07
5.05225e-06
9.33205e-07
5.68952e-06
1.12941e-06
6.15441e-06
1.30281e-06
6.45734e-06
1.44702e-06
6.61189e-06
1.55863e-06
6.63356e-06
1.63675e-06
6.5388e-06
1.68253e-06
6.34408e-06
1.69866e-06
6.06522e-06
1.68889e-06
5.71689e-06
1.65755e-06
5.31233e-06
1.60926e-06
4.86317e-06
1.5486e-06
4.37943e-06
1.47997e-06
3.86952e-06
1.40737e-06
3.34041e-06
1.33439e-06
2.79776e-06
1.26408e-06
2.2461e-06
1.19902e-06
1.68901e-06
1.14124e-06
1.12933e-06
1.09228e-06
5.69332e-07
1.05317e-06
1.0917e-08
1.02448e-06
-5.44234e-07
1.0063e-06
-1.09448e-06
9.98278e-07
-1.63808e-06
9.99634e-07
-2.17302e-06
1.00914e-06
-2.69689e-06
1.02515e-06
-3.20676e-06
1.04559e-06
-3.69903e-06
1.06803e-06
-4.16934e-06
1.08966e-06
-4.61245e-06
1.10737e-06
-5.02217e-06
1.11785e-06
-5.39125e-06
1.11772e-06
-5.71142e-06
1.10368e-06
-5.9733e-06
1.07277e-06
-6.16653e-06
1.0226e-06
-6.27984e-06
9.51733e-07
-6.30127e-06
8.60022e-07
-6.21848e-06
7.48977e-07
-6.01919e-06
6.22112e-07
-5.69172e-06
4.85192e-07
-5.22575e-06
3.46323e-07
-4.61314e-06
2.15818e-07
-3.84887e-06
1.05789e-07
-2.93199e-06
2.94356e-08
-1.86632e-06
-6.6212e-07
3.66107e-08
7.01338e-07
1.32717e-07
1.97486e-06
2.73376e-07
3.10039e-06
4.43422e-07
4.06636e-06
6.28397e-07
4.86727e-06
8.15324e-07
5.5026e-06
9.93283e-07
5.97645e-06
1.15376e-06
6.29687e-06
1.29074e-06
6.4749e-06
1.40062e-06
6.52368e-06
1.48192e-06
6.4575e-06
1.53496e-06
6.29104e-06
1.56148e-06
6.0387e-06
1.56421e-06
5.71416e-06
1.54654e-06
5.33e-06
1.51222e-06
4.89749e-06
1.4651e-06
4.42655e-06
1.40892e-06
3.9257e-06
1.34721e-06
3.40212e-06
1.28316e-06
2.86181e-06
1.21959e-06
2.30968e-06
1.15886e-06
1.74974e-06
1.10293e-06
1.18526e-06
1.05331e-06
6.18951e-07
1.01108e-06
5.31418e-08
9.76919e-07
-5.10071e-07
9.51079e-07
-1.06864e-06
9.33428e-07
-1.62043e-06
9.23445e-07
-2.16303e-06
9.20235e-07
-2.69368e-06
9.22535e-07
-3.20906e-06
9.28728e-07
-3.70522e-06
9.3687e-07
-4.17748e-06
9.44719e-07
-4.6203e-06
9.49794e-07
-5.02724e-06
9.49452e-07
-5.39091e-06
9.40994e-07
-5.70296e-06
9.21818e-07
-5.95412e-06
8.89602e-07
-6.13432e-06
8.42532e-07
-6.23277e-06
7.79562e-07
-6.2383e-06
7.00696e-07
-6.13962e-06
6.07266e-07
-5.92576e-06
5.02183e-07
-5.58664e-06
3.901e-07
-5.11367e-06
2.77461e-07
-4.5005e-06
1.72371e-07
-3.74378e-06
8.42701e-08
-2.84389e-06
2.3394e-08
-1.80544e-06
-6.38726e-07
3.05941e-08
6.70744e-07
1.11326e-07
1.89412e-06
2.30202e-07
2.98151e-06
3.75001e-07
3.92157e-06
5.33959e-07
4.70831e-06
6.96353e-07
5.3402e-06
8.5297e-07
5.81983e-06
9.96416e-07
6.15342e-06
1.12124e-06
6.35008e-06
1.22391e-06
6.42101e-06
1.30266e-06
6.37876e-06
1.35723e-06
6.23647e-06
1.3886e-06
6.00732e-06
1.3987e-06
5.70406e-06
1.39008e-06
5.33861e-06
1.3657e-06
4.92187e-06
1.3287e-06
4.46356e-06
1.2822e-06
3.9722e-06
1.22921e-06
3.45511e-06
1.17251e-06
2.91851e-06
1.1146e-06
2.3676e-06
1.05762e-06
1.80671e-06
1.00339e-06
1.23948e-06
9.53379e-07
6.68967e-07
9.08672e-07
9.78486e-08
8.70024e-07
-4.71423e-07
8.37845e-07
-1.03646e-06
8.1221e-07
-1.59479e-06
7.92872e-07
-2.1437e-06
7.79267e-07
-2.68007e-06
7.70525e-07
-3.20031e-06
7.65482e-07
-3.70018e-06
7.62699e-07
-4.1747e-06
7.60495e-07
-4.6181e-06
7.56984e-07
-5.02373e-06
7.50143e-07
-5.38407e-06
7.37898e-07
-5.69071e-06
7.18241e-07
-5.93447e-06
6.89375e-07
-6.10545e-06
6.49888e-07
-6.19328e-06
5.98957e-07
-6.18737e-06
5.36558e-07
-6.07722e-06
4.63678e-07
-5.85288e-06
3.82496e-07
-5.50546e-06
2.96499e-07
-5.02767e-06
2.1051e-07
-4.41451e-06
1.30585e-07
-3.66386e-06
6.37663e-08
-2.77707e-06
1.76859e-08
-1.75936e-06
-6.2104e-07
2.48651e-08
6.45879e-07
9.07815e-08
1.82821e-06
1.88355e-07
2.88394e-06
3.07974e-07
3.80195e-06
4.40302e-07
4.57598e-06
5.76712e-07
5.20379e-06
7.09652e-07
5.68689e-06
8.32906e-07
6.03017e-06
9.41727e-07
6.24126e-06
1.03285e-06
6.32989e-06
1.10442e-06
6.30719e-06
1.15582e-06
6.18507e-06
1.18748e-06
5.97566e-06
1.20065e-06
5.6909e-06
1.19718e-06
5.34209e-06
1.1793e-06
4.93974e-06
1.14949e-06
4.49337e-06
1.11027e-06
4.01142e-06
1.06413e-06
3.50126e-06
1.0134e-06
2.96924e-06
9.60225e-07
2.42077e-06
9.06519e-07
1.86042e-06
8.53918e-07
1.29208e-06
8.03787e-07
7.19099e-07
7.57211e-07
1.44424e-07
7.15002e-07
-4.29214e-07
6.77699e-07
-9.9916e-07
6.45576e-07
-1.56267e-06
6.18651e-07
-2.11677e-06
5.96691e-07
-2.65811e-06
5.79216e-07
-3.18284e-06
5.65513e-07
-3.68648e-06
5.54647e-07
-4.16383e-06
5.45477e-07
-4.60893e-06
5.36693e-07
-5.01494e-06
5.26853e-07
-5.37423e-06
5.1445e-07
-5.67831e-06
4.9799e-07
-5.91801e-06
4.76102e-07
-6.08356e-06
4.4766e-07
-6.16484e-06
4.11933e-07
-6.15164e-06
3.68743e-07
-6.03403e-06
3.18612e-07
-5.80275e-06
2.62906e-07
-5.44975e-06
2.03917e-07
-4.96868e-06
1.44892e-07
-4.35548e-06
8.99621e-08
-3.60893e-06
4.39736e-08
-2.73108e-06
1.2211e-08
-1.7276e-06
-6.08829e-07
1.93502e-08
6.26529e-07
7.08735e-08
1.77668e-06
1.47518e-07
2.80729e-06
2.42036e-07
3.70743e-06
3.47319e-07
4.4707e-06
4.56703e-07
5.09441e-06
5.6425e-07
5.57934e-06
6.64952e-07
5.92947e-06
7.54854e-07
6.15136e-06
8.31105e-07
6.25364e-06
8.91914e-07
6.24638e-06
9.36468e-07
6.14051e-06
9.64792e-07
5.94734e-06
9.77599e-07
5.67809e-06
9.76124e-07
5.34356e-06
9.61974e-07
4.95389e-06
9.36985e-07
4.51836e-06
9.03104e-07
4.0453e-06
8.62288e-07
3.54207e-06
8.16433e-07
3.01509e-06
7.67316e-07
2.46988e-06
7.16555e-07
1.91118e-06
6.65588e-07
1.34305e-06
6.15659e-07
7.69027e-07
5.67813e-07
1.9227e-07
5.22895e-07
-3.84296e-07
4.81555e-07
-9.57819e-07
4.44249e-07
-1.52537e-06
4.11249e-07
-2.08377e-06
3.82642e-07
-2.62951e-06
3.58332e-07
-3.15853e-06
3.3805e-07
-3.66619e-06
3.21352e-07
-4.14714e-06
3.0763e-07
-4.59521e-06
2.96124e-07
-5.00344e-06
2.85943e-07
-5.36405e-06
2.76104e-07
-5.66847e-06
2.65571e-07
-5.90748e-06
2.53327e-07
-6.07132e-06
2.38452e-07
-6.14997e-06
2.2022e-07
-6.13341e-06
1.98205e-07
-6.01201e-06
1.72395e-07
-5.77694e-06
1.43287e-07
-5.42064e-06
1.11969e-07
-4.93736e-06
8.01431e-08
-4.32366e-06
5.01073e-08
-3.57889e-06
2.46522e-08
-2.70562e-06
6.89069e-09
-1.70984e-06
-6.01938e-07
1.39895e-08
6.12539e-07
5.1427e-08
1.73925e-06
1.07425e-07
2.7513e-06
1.76923e-07
3.63793e-06
2.54895e-07
4.39273e-06
3.36545e-07
5.01276e-06
4.17501e-07
5.49839e-06
4.93975e-07
5.85299e-06
5.62867e-07
6.08246e-06
6.21826e-07
6.19468e-06
6.6925e-07
6.19895e-06
7.04244e-07
6.10552e-06
7.26547e-07
5.92504e-06
7.36436e-07
5.6682e-06
7.34617e-07
5.34538e-06
7.22121e-07
4.96639e-06
7.00198e-07
4.54028e-06
6.70233e-07
4.07526e-06
6.3367e-07
3.57864e-06
5.91947e-07
3.05682e-06
5.46456e-07
2.51537e-06
4.98508e-07
1.95913e-06
4.49313e-07
1.39224e-06
3.99965e-07
8.18375e-07
3.51441e-07
2.40794e-07
3.04596e-07
-3.37451e-07
2.60167e-07
-9.1339e-07
2.18775e-07
-1.48397e-06
1.80928e-07
-2.04592e-06
1.47019e-07
-2.5956e-06
1.17328e-07
-3.12884e-06
9.20163e-08
-3.64088e-06
7.11238e-08
-4.12624e-06
5.45605e-08
-4.57864e-06
4.21039e-08
-4.99098e-06
3.33959e-08
-5.35534e-06
2.79477e-08
-5.66302e-06
2.51509e-08
-5.90468e-06
2.43014e-08
-6.07047e-06
2.4635e-08
-6.1503e-06
2.53778e-08
-6.13415e-06
2.58088e-08
-6.01244e-06
2.53324e-08
-5.77646e-06
2.35526e-08
-5.41886e-06
2.03406e-08
-4.93415e-06
1.58828e-08
-4.3192e-06
1.06975e-08
-3.57371e-06
5.60736e-09
-2.70053e-06
1.66169e-09
-1.70589e-06