/*--------------------------------*- C++ -*----------------------------------*\
  =========                 |
  \\      /  F ield         | OpenFOAM: The Open Source CFD Toolbox
   \\    /   O peration     | Website:  https://openfoam.org
    \\  /    A nd           | Version:  7
     \\/     M anipulation  |
\*---------------------------------------------------------------------------*/
FoamFile
{
    version     2.0;
    format      ascii;
    class       volVectorField;
    location    "0.0324";
    object      U;
}
// * * * * * * * * * * * * * * * * * * * * * * * * * * * * * * * * * * * * * //

dimensions      [0 1 -1 0 0 0 0];

internalField   nonuniform List<vector> 
2500
(
(-0.293818 0.153738 0)
(-0.397975 0.128733 0)
(-0.577998 0.07379 0)
(-0.696232 0.0408589 0)
(-0.765122 0.0233673 0)
(-0.80933 0.0141055 0)
(-0.839765 0.0091133 0)
(-0.86168 0.00630015 0)
(-0.878113 0.00460711 0)
(-0.890851 0.00351413 0)
(-0.900972 0.002763 0)
(-0.909159 0.00221972 0)
(-0.915867 0.00181049 0)
(-0.921415 0.00149201 0)
(-0.926029 0.00123736 0)
(-0.929876 0.00102891 0)
(-0.933078 0.000854567 0)
(-0.935732 0.000705796 0)
(-0.937907 0.000576337 0)
(-0.939659 0.000461487 0)
(-0.94103 0.000357604 0)
(-0.94205 0.000261792 0)
(-0.942742 0.00017167 0)
(-0.943123 8.52186e-05 0)
(-0.943201 6.53582e-07 0)
(-0.942979 -8.36993e-05 0)
(-0.942456 -0.000169428 0)
(-0.941625 -0.000258162 0)
(-0.940473 -0.000351646 0)
(-0.93898 -0.000451841 0)
(-0.937121 -0.000561045 0)
(-0.934862 -0.000682058 0)
(-0.93216 -0.000818418 0)
(-0.928956 -0.000974728 0)
(-0.92518 -0.00115717 0)
(-0.920735 -0.00137429 0)
(-0.915498 -0.0016383 0)
(-0.909302 -0.00196733 0)
(-0.901921 -0.00238956 0)
(-0.893038 -0.00295104 0)
(-0.882195 -0.00373145 0)
(-0.8687 -0.00487624 0)
(-0.851463 -0.00666409 0)
(-0.828676 -0.00964596 0)
(-0.797323 -0.0149086 0)
(-0.752253 -0.0245049 0)
(-0.682724 -0.0421677 0)
(-0.565057 -0.0746449 0)
(-0.389367 -0.128152 0)
(-0.290217 -0.152381 0)
(-0.00517219 0.302943 0)
(-0.0270546 0.307338 0)
(-0.17121 0.217711 0)
(-0.307873 0.146425 0)
(-0.416494 0.0989884 0)
(-0.50135 0.0686738 0)
(-0.567295 0.0493762 0)
(-0.618745 0.0367973 0)
(-0.659391 0.0282825 0)
(-0.69197 0.0222834 0)
(-0.718425 0.0178976 0)
(-0.740145 0.0145853 0)
(-0.75813 0.0120123 0)
(-0.773112 0.00996386 0)
(-0.785635 0.00829674 0)
(-0.796109 0.00691235 0)
(-0.804846 0.00574071 0)
(-0.812086 0.00473081 0)
(-0.818013 0.00384449 0)
(-0.822771 0.00305253 0)
(-0.826469 0.00233197 0)
(-0.82919 0.00166428 0)
(-0.830996 0.00103407 0)
(-0.831926 0.000428133 0)
(-0.832007 -0.000165278 0)
(-0.831249 -0.000757078 0)
(-0.829646 -0.00135783 0)
(-0.82718 -0.00197828 0)
(-0.823819 -0.00262985 0)
(-0.819512 -0.00332528 0)
(-0.814192 -0.00407931 0)
(-0.807771 -0.00490972 0)
(-0.800136 -0.00583858 0)
(-0.791142 -0.00689409 0)
(-0.780605 -0.00811333 0)
(-0.76829 -0.00954619 0)
(-0.753893 -0.0112616 0)
(-0.737016 -0.0133573 0)
(-0.717137 -0.0159762 0)
(-0.693552 -0.0193335 0)
(-0.665307 -0.023765 0)
(-0.631089 -0.0298106 0)
(-0.589071 -0.0383649 0)
(-0.536724 -0.0509371 0)
(-0.470724 -0.0700508 0)
(-0.387221 -0.0996469 0)
(-0.282033 -0.145136 0)
(-0.151693 -0.212702 0)
(-0.0165367 -0.298288 0)
(-0.00100921 -0.294725 0)
(0.032117 0.264072 0)
(0.0564591 0.362223 0)
(-0.0033104 0.324666 0)
(-0.0951901 0.26003 0)
(-0.191049 0.200195 0)
(-0.279207 0.153009 0)
(-0.355561 0.117948 0)
(-0.419916 0.0922572 0)
(-0.473643 0.0733004 0)
(-0.518438 0.0590882 0)
(-0.55587 0.0482246 0)
(-0.587255 0.039751 0)
(-0.613651 0.0330096 0)
(-0.635899 0.027544 0)
(-0.65466 0.023032 0)
(-0.670453 0.0192423 0)
(-0.683688 0.016005 0)
(-0.694688 0.0131932 0)
(-0.703707 0.0107099 0)
(-0.710946 0.00847951 0)
(-0.716559 0.00644195 0)
(-0.720667 0.00454805 0)
(-0.723357 0.00275662 0)
(-0.72469 0.00103206 0)
(-0.724704 -0.000657473 0)
(-0.723415 -0.00234156 0)
(-0.720819 -0.00404887 0)
(-0.71689 -0.00580841 0)
(-0.711583 -0.00765086 0)
(-0.704829 -0.00961006 0)
(-0.696537 -0.0117248 0)
(-0.686586 -0.0140413 0)
(-0.674825 -0.0166158 0)
(-0.66106 -0.0195193 0)
(-0.645052 -0.022843 0)
(-0.626502 -0.0267068 0)
(-0.605034 -0.0312716 0)
(-0.580177 -0.0367571 0)
(-0.551341 -0.0434687 0)
(-0.517785 -0.051839 0)
(-0.478589 -0.0624877 0)
(-0.432634 -0.0763098 0)
(-0.378633 -0.0945909 0)
(-0.315275 -0.11913 0)
(-0.241681 -0.152251 0)
(-0.158543 -0.196263 0)
(-0.070185 -0.251311 0)
(0.0120703 -0.310045 0)
(0.0619206 -0.34341 0)
(0.0330068 -0.250018 0)
(0.0271705 0.205206 0)
(0.0639013 0.35753 0)
(0.0556028 0.375052 0)
(0.00880983 0.337604 0)
(-0.0581121 0.284686 0)
(-0.130851 0.233583 0)
(-0.201273 0.190054 0)
(-0.265624 0.15479 0)
(-0.322658 0.126734 0)
(-0.372388 0.104469 0)
(-0.415375 0.0866969 0)
(-0.45236 0.0723663 0)
(-0.484092 0.0606676 0)
(-0.511251 0.0509884 0)
(-0.534427 0.0428678 0)
(-0.554117 0.0359572 0)
(-0.570733 0.0299908 0)
(-0.584615 0.0247631 0)
(-0.596037 0.0201134 0)
(-0.605222 0.0159134 0)
(-0.612348 0.0120593 0)
(-0.61755 0.00846503 0)
(-0.620933 0.00505767 0)
(-0.62257 0.00177359 0)
(-0.622508 -0.00144442 0)
(-0.620768 -0.0046496 0)
(-0.617348 -0.00789344 0)
(-0.612223 -0.0112278 0)
(-0.605344 -0.0147069 0)
(-0.596639 -0.0183901 0)
(-0.586008 -0.0223442 0)
(-0.573325 -0.0266475 0)
(-0.558431 -0.0313937 0)
(-0.541129 -0.0366982 0)
(-0.521181 -0.0427058 0)
(-0.498303 -0.0496011 0)
(-0.472152 -0.0576232 0)
(-0.442328 -0.0670846 0)
(-0.408366 -0.0783973 0)
(-0.369751 -0.0921048 0)
(-0.32595 -0.10892 0)
(-0.276488 -0.129754 0)
(-0.221127 -0.155712 0)
(-0.160206 -0.187959 0)
(-0.0952653 -0.227278 0)
(-0.0301083 -0.272828 0)
(0.0276067 -0.319227 0)
(0.0648643 -0.350869 0)
(0.0656695 -0.332144 0)
(0.0268487 -0.19007 0)
(0.0184854 0.163335 0)
(0.0533058 0.331037 0)
(0.0691029 0.386007 0)
(0.0539839 0.378297 0)
(0.0150863 0.342244 0)
(-0.0368919 0.297429 0)
(-0.0938149 0.253414 0)
(-0.150506 0.21404 0)
(-0.204052 0.180311 0)
(-0.253053 0.151974 0)
(-0.297023 0.128324 0)
(-0.335974 0.108571 0)
(-0.370168 0.0919874 0)
(-0.39997 0.0779533 0)
(-0.42577 0.0659615 0)
(-0.44794 0.0556029 0)
(-0.466819 0.0465491 0)
(-0.482702 0.0385359 0)
(-0.495842 0.0313498 0)
(-0.506449 0.0248159 0)
(-0.514697 0.0187892 0)
(-0.520724 0.0131473 0)
(-0.524637 0.00778512 0)
(-0.526513 0.00260995 0)
(-0.526405 -0.0024621 0)
(-0.524338 -0.00750928 0)
(-0.520315 -0.0126071 0)
(-0.514316 -0.0178311 0)
(-0.506299 -0.0232595 0)
(-0.496199 -0.0289764 0)
(-0.483928 -0.0350752 0)
(-0.469374 -0.0416625 0)
(-0.4524 -0.0488634 0)
(-0.432844 -0.0568274 0)
(-0.410518 -0.0657362 0)
(-0.385208 -0.0758134 0)
(-0.356683 -0.0873356 0)
(-0.324701 -0.100645 0)
(-0.289038 -0.116164 0)
(-0.249522 -0.134399 0)
(-0.206121 -0.155937 0)
(-0.159064 -0.181397 0)
(-0.109072 -0.211289 0)
(-0.0576985 -0.245697 0)
(-0.00781709 -0.283585 0)
(0.0358034 -0.321435 0)
(0.0659779 -0.350785 0)
(0.0735497 -0.354432 0)
(0.0532021 -0.302013 0)
(0.0179002 -0.148514 0)
(0.0119931 0.134423 0)
(0.0410691 0.299745 0)
(0.0659719 0.376538 0)
(0.0698568 0.393527 0)
(0.0524797 0.376369 0)
(0.0198724 0.342894 0)
(-0.0217326 0.303876 0)
(-0.0673669 0.265105 0)
(-0.113537 0.229293 0)
(-0.158039 0.197422 0)
(-0.199612 0.16959 0)
(-0.237631 0.145483 0)
(-0.271863 0.124639 0)
(-0.302313 0.10657 0)
(-0.32911 0.0908211 0)
(-0.352446 0.076993 0)
(-0.372532 0.0647419 0)
(-0.389577 0.0537772 0)
(-0.403777 0.0438536 0)
(-0.415304 0.0347637 0)
(-0.424307 0.026331 0)
(-0.430909 0.0184028 0)
(-0.43521 0.0108459 0)
(-0.437282 0.00354123 0)
(-0.43718 -0.00361974 0)
(-0.434931 -0.0107386 0)
(-0.430547 -0.0179131 0)
(-0.424016 -0.0252403 0)
(-0.415309 -0.0328194 0)
(-0.404381 -0.0407554 0)
(-0.391166 -0.0491621 0)
(-0.375586 -0.0581664 0)
(-0.357547 -0.0679124 0)
(-0.336946 -0.0785671 0)
(-0.313674 -0.0903253 0)
(-0.287627 -0.103415 0)
(-0.258718 -0.118105 0)
(-0.226903 -0.1347 0)
(-0.192221 -0.153542 0)
(-0.154847 -0.174987 0)
(-0.115192 -0.199351 0)
(-0.0740295 -0.226801 0)
(-0.0326901 -0.257139 0)
(0.00670249 -0.289399 0)
(0.0409929 -0.321148 0)
(0.0658959 -0.347365 0)
(0.0762377 -0.358819 0)
(0.0672665 -0.340205 0)
(0.0401696 -0.269192 0)
(0.0114463 -0.120234 0)
(0.00791375 0.113752 0)
(0.0313511 0.2701 0)
(0.0581381 0.357926 0)
(0.0721492 0.392867 0)
(0.0694684 0.392684 0)
(0.0524186 0.371919 0)
(0.0249389 0.340825 0)
(-0.00902972 0.305931 0)
(-0.0461961 0.271017 0)
(-0.0841169 0.238054 0)
(-0.121121 0.207906 0)
(-0.156143 0.180807 0)
(-0.188559 0.156653 0)
(-0.218044 0.135185 0)
(-0.24447 0.116081 0)
(-0.267828 0.0990127 0)
(-0.288181 0.0836708 0)
(-0.305631 0.0697736 0)
(-0.32029 0.0570709 0)
(-0.332276 0.0453417 0)
(-0.341696 0.0343915 0)
(-0.348646 0.024048 0)
(-0.353208 0.0141574 0)
(-0.355446 0.00458002 0)
(-0.355408 -0.00481232 0)
(-0.353127 -0.0141403 0)
(-0.34862 -0.0235196 0)
(-0.341888 -0.0330642 0)
(-0.33292 -0.042889 0)
(-0.321694 -0.0531131 0)
(-0.30818 -0.0638621 0)
(-0.29234 -0.0752721 0)
(-0.274137 -0.0874921 0)
(-0.253539 -0.100687 0)
(-0.230531 -0.11504 0)
(-0.205125 -0.130752 0)
(-0.177387 -0.148038 0)
(-0.14746 -0.16712 0)
(-0.115613 -0.188199 0)
(-0.0822993 -0.211412 0)
(-0.0482362 -0.236753 0)
(-0.0145111 -0.263924 0)
(0.0173002 -0.292099 0)
(0.0450262 -0.319542 0)
(0.0658808 -0.343035 0)
(0.0766704 -0.357111 0)
(0.0743673 -0.353198 0)
(0.0574749 -0.319041 0)
(0.0301232 -0.239354 0)
(0.00745408 -0.100319 0)
(0.00547099 0.098495 0)
(0.0243618 0.243925 0)
(0.0499704 0.336004 0)
(0.068695 0.382909 0)
(0.0753118 0.39642 0)
(0.0697537 0.387655 0)
(0.054 0.365502 0)
(0.0307585 0.336354 0)
(0.00271946 0.304447 0)
(-0.0278312 0.272385 0)
(-0.0591239 0.241636 0)
(-0.089875 0.21293 0)
(-0.119203 0.186543 0)
(-0.146535 0.162479 0)
(-0.171524 0.140603 0)
(-0.19398 0.120703 0)
(-0.213818 0.102543 0)
(-0.231022 0.0858844 0)
(-0.245619 0.0704975 0)
(-0.257656 0.0561684 0)
(-0.267193 0.0427008 0)
(-0.274288 0.0299149 0)
(-0.279 0.0176462 0)
(-0.281378 0.0057428 0)
(-0.281463 -0.00593647 0)
(-0.279288 -0.017525 0)
(-0.274875 -0.0291504 0)
(-0.26824 -0.0409374 0)
(-0.259391 -0.0530095 0)
(-0.248335 -0.0654918 0)
(-0.235076 -0.0785124 0)
(-0.219624 -0.0922045 0)
(-0.202001 -0.106708 0)
(-0.182249 -0.122167 0)
(-0.160441 -0.138733 0)
(-0.136702 -0.156554 0)
(-0.111226 -0.175765 0)
(-0.0843113 -0.196471 0)
(-0.0563964 -0.218706 0)
(-0.0281118 -0.242378 0)
(-0.000337221 -0.267171 0)
(0.0257368 -0.292398 0)
(0.0485613 -0.316783 0)
(0.0662293 -0.338147 0)
(0.0765954 -0.353011 0)
(0.0776146 -0.356158 0)
(0.0679571 -0.340305 0)
(0.0480862 -0.296206 0)
(0.0229805 -0.213798 0)
(0.00507795 -0.0858601 0)
(0.00398896 0.0868121 0)
(0.0194178 0.221306 0)
(0.0427932 0.31366 0)
(0.06319 0.367953 0)
(0.0753104 0.391799 0)
(0.0777717 0.393376 0)
(0.0711394 0.379953 0)
(0.0570094 0.357309 0)
(0.0373535 0.329672 0)
(0.014088 0.299939 0)
(-0.0111355 0.269976 0)
(-0.0369951 0.240901 0)
(-0.0624883 0.213322 0)
(-0.0868877 0.187511 0)
(-0.109687 0.163528 0)
(-0.130548 0.141307 0)
(-0.14926 0.120714 0)
(-0.165699 0.101575 0)
(-0.179802 0.0837052 0)
(-0.19155 0.0669157 0)
(-0.200947 0.0510242 0)
(-0.208014 0.0358566 0)
(-0.212779 0.0212483 0)
(-0.215274 0.00704457 0)
(-0.21553 -0.00690083 0)
(-0.213576 -0.0207266 0)
(-0.209442 -0.0345654 0)
(-0.203155 -0.0485453 0)
(-0.194743 -0.0627911 0)
(-0.184238 -0.0774253 0)
(-0.171682 -0.0925693 0)
(-0.157129 -0.108343 0)
(-0.140656 -0.124863 0)
(-0.122371 -0.142243 0)
(-0.102425 -0.160584 0)
(-0.0810328 -0.179965 0)
(-0.0584889 -0.200429 0)
(-0.0351968 -0.221954 0)
(-0.0116984 -0.244409 0)
(0.011292 -0.267492 0)
(0.0328558 -0.290638 0)
(0.0518484 -0.312881 0)
(0.0669081 -0.332681 0)
(0.076524 -0.3477 0)
(0.0792187 -0.354558 0)
(0.0739015 -0.348638 0)
(0.0603877 -0.324071 0)
(0.0401328 -0.27412 0)
(0.0179538 -0.192298 0)
(0.0036388 -0.0749875 0)
(0.00305113 0.0775359 0)
(0.015867 0.201809 0)
(0.0368222 0.292225 0)
(0.0572736 0.350647 0)
(0.0723871 0.381916 0)
(0.0801837 0.391905 0)
(0.0803219 0.386351 0)
(0.0735287 0.370211 0)
(0.0611014 0.347421 0)
(0.0445146 0.320911 0)
(0.0251818 0.292744 0)
(0.00433751 0.2643 0)
(-0.0170043 0.236446 0)
(-0.0380477 0.209685 0)
(-0.0581908 0.184268 0)
(-0.0769931 0.160279 0)
(-0.0941425 0.137695 0)
(-0.109426 0.116428 0)
(-0.122704 0.0963498 0)
(-0.133892 0.0773143 0)
(-0.142943 0.059166 0)
(-0.149837 0.0417485 0)
(-0.154574 0.0249078 0)
(-0.157163 0.00849524 0)
(-0.157625 -0.0076319 0)
(-0.155986 -0.0236101 0)
(-0.152276 -0.0395695 0)
(-0.146533 -0.0556346 0)
(-0.138803 -0.0719238 0)
(-0.129142 -0.0885497 0)
(-0.117622 -0.105618 0)
(-0.104338 -0.123228 0)
(-0.0894114 -0.141464 0)
(-0.0730042 -0.160397 0)
(-0.0553289 -0.18007 0)
(-0.0366636 -0.200491 0)
(-0.017369 -0.221604 0)
(0.00209224 -0.243269 0)
(0.0211358 -0.265208 0)
(0.0390378 -0.286954 0)
(0.0549262 -0.30776 0)
(0.06779 -0.326498 0)
(0.0765227 -0.341525 0)
(0.080024 -0.350539 0)
(0.0773917 -0.350465 0)
(0.068231 -0.337401 0)
(0.0530408 -0.306771 0)
(0.0336625 -0.25376 0)
(0.0143569 -0.174239 0)
(0.00272903 -0.0665281 0)
(0.00242549 0.0699472 0)
(0.0132444 0.184924 0)
(0.0319198 0.272235 0)
(0.0516067 0.332554 0)
(0.0681059 0.368917 0)
(0.0792686 0.38548 0)
(0.0842327 0.386664 0)
(0.0831082 0.376579 0)
(0.0766338 0.358726 0)
(0.0658564 0.33589 0)
(0.0519054 0.310176 0)
(0.035856 0.283104 0)
(0.0186571 0.255719 0)
(0.00110376 0.228705 0)
(-0.0161632 0.202479 0)
(-0.0326436 0.177263 0)
(-0.0479577 0.15315 0)
(-0.0618246 0.130139 0)
(-0.0740429 0.108173 0)
(-0.0844725 0.0871562 0)
(-0.0930206 0.0669712 0)
(-0.0996302 0.0474891 0)
(-0.104271 0.0285761 0)
(-0.106933 0.010098 0)
(-0.107624 -0.00807652 0)
(-0.106362 -0.0260743 0)
(-0.10318 -0.0440163 0)
(-0.0981225 -0.0620164 0)
(-0.0912482 -0.0801802 0)
(-0.0826331 -0.0986037 0)
(-0.0723743 -0.117371 0)
(-0.0605956 -0.136552 0)
(-0.0474551 -0.156196 0)
(-0.0331532 -0.176326 0)
(-0.017943 -0.196925 0)
(-0.00214188 -0.217928 0)
(0.0138563 -0.239191 0)
(0.0295691 -0.260468 0)
(0.0444162 -0.281369 0)
(0.0577154 -0.301303 0)
(0.0686912 -0.319418 0)
(0.0765034 -0.334515 0)
(0.080309 -0.344962 0)
(0.0793702 -0.348622 0)
(0.0732288 -0.342804 0)
(0.0619515 -0.324315 0)
(0.0463924 -0.289651 0)
(0.0284424 -0.235414 0)
(0.011713 -0.158997 0)
(0.00212364 -0.0597582 0)
(0.00198502 0.0635958 0)
(0.0112436 0.170204 0)
(0.027873 0.253851 0)
(0.0464058 0.31458 0)
(0.0632789 0.354258 0)
(0.0764023 0.375795 0)
(0.0846575 0.382546 0)
(0.0877509 0.377844 0)
(0.0859951 0.364703 0)
(0.0800668 0.345664 0)
(0.0708143 0.322764 0)
(0.0591225 0.297564 0)
(0.0458301 0.27121 0)
(0.0316826 0.244514 0)
(0.0173148 0.218021 0)
(0.00324825 0.192078 0)
(-0.0101 0.16688 0)
(-0.022405 0.142516 0)
(-0.0334197 0.119 0)
(-0.042961 0.0962939 0)
(-0.050898 0.0743254 0)
(-0.0571413 0.0530004 0)
(-0.0616345 0.0322125 0)
(-0.0643486 0.0118496 0)
(-0.0652764 -0.00820178 0)
(-0.0644306 -0.0280523 0)
(-0.0618414 -0.0478074 0)
(-0.0575574 -0.0675648 0)
(-0.0516461 -0.0874117 0)
(-0.0441968 -0.107422 0)
(-0.0353241 -0.127655 0)
(-0.0251729 -0.148146 0)
(-0.0139242 -0.168906 0)
(-0.00180232 -0.18991 0)
(0.0109176 -0.211084 0)
(0.0239014 -0.232294 0)
(0.0367488 -0.253322 0)
(0.0489878 -0.273838 0)
(0.0600736 -0.293368 0)
(0.0693955 -0.311247 0)
(0.0762963 -0.326572 0)
(0.0801114 -0.338145 0)
(0.0802347 -0.344424 0)
(0.07622 -0.343492 0)
(0.0679255 -0.333063 0)
(0.0556963 -0.310569 0)
(0.0405312 -0.273365 0)
(0.0242024 -0.219065 0)
(0.00970986 -0.146047 0)
(0.00169957 -0.0542216 0)
(0.00165914 0.0581896 0)
(0.00966629 0.15729 0)
(0.0244845 0.237071 0)
(0.0416967 0.297242 0)
(0.0583113 0.338913 0)
(0.0724051 0.364104 0)
(0.0827714 0.375335 0)
(0.0888747 0.375264 0)
(0.0907237 0.366431 0)
(0.0886979 0.35109 0)
(0.0833932 0.331137 0)
(0.0755034 0.308101 0)
(0.0657358 0.283169 0)
(0.0547569 0.257229 0)
(0.043163 0.230919 0)
(0.0314673 0.204682 0)
(0.0200975 0.178806 0)
(0.00940124 0.153461 0)
(-0.000345854 0.128731 0)
(-0.0089307 0.104636 0)
(-0.0161933 0.0811531 0)
(-0.0220182 0.0582271 0)
(-0.0263271 0.0357848 0)
(-0.0290732 0.0137412 0)
(-0.0302368 -0.00799325 0)
(-0.029822 -0.0295081 0)
(-0.0278556 -0.0508883 0)
(-0.0243864 -0.0722107 0)
(-0.0194861 -0.09354 0)
(-0.0132514 -0.114925 0)
(-0.00580694 -0.136395 0)
(0.00269101 -0.157953 0)
(0.0120496 -0.179568 0)
(0.0220346 -0.201169 0)
(0.0323648 -0.222632 0)
(0.0427077 -0.243764 0)
(0.0526766 -0.264284 0)
(0.06183 -0.283802 0)
(0.0696776 -0.301788 0)
(0.0756934 -0.317541 0)
(0.0793412 -0.330152 0)
(0.0801166 -0.338473 0)
(0.0776101 -0.341093 0)
(0.0715943 -0.336332 0)
(0.0621369 -0.322284 0)
(0.0497311 -0.296914 0)
(0.0353938 -0.258236 0)
(0.0207088 -0.204586 0)
(0.00814503 -0.13498 0)
(0.00138815 -0.0496205 0)
(0.00140733 0.053533 0)
(0.00838361 0.145906 0)
(0.0215949 0.221828 0)
(0.0374322 0.280831 0)
(0.0533929 0.323537 0)
(0.0677614 0.35133 0)
(0.0793433 0.366087 0)
(0.0874765 0.369906 0)
(0.0919661 0.364894 0)
(0.0929659 0.353008 0)
(0.0908613 0.335971 0)
(0.08617 0.315231 0)
(0.079465 0.291965 0)
(0.0713194 0.267093 0)
(0.0622711 0.241316 0)
(0.0528027 0.215148 0)
(0.0433322 0.188949 0)
(0.0342114 0.162962 0)
(0.0257291 0.137334 0)
(0.0181161 0.112143 0)
(0.0115519 0.0874143 0)
(0.00617107 0.0631355 0)
(0.00206928 0.0392688 0)
(-0.00069187 0.0157603 0)
(-0.00208076 -0.00745202 0)
(-0.00209304 -0.0304326 0)
(-0.000749901 -0.0532423 0)
(0.00190249 -0.0759337 0)
(0.00579252 -0.0985463 0)
(0.0108218 -0.121102 0)
(0.0168628 -0.143598 0)
(0.0237564 -0.166004 0)
(0.031308 -0.188251 0)
(0.0392849 -0.210227 0)
(0.0474128 -0.231761 0)
(0.0553746 -0.252611 0)
(0.0628105 -0.272451 0)
(0.069322 -0.290847 0)
(0.0744816 -0.307242 0)
(0.0778495 -0.320923 0)
(0.0790015 -0.331009 0)
(0.0775695 -0.336428 0)
(0.0732971 -0.335916 0)
(0.066111 -0.328029 0)
(0.0562068 -0.311197 0)
(0.044138 -0.283816 0)
(0.0308694 -0.244406 0)
(0.017777 -0.191818 0)
(0.00688582 -0.125481 0)
(0.00114963 -0.0457543 0)
(0.00120531 0.0494907 0)
(0.00731011 0.135845 0)
(0.019082 0.208035 0)
(0.0335434 0.265512 0)
(0.0486017 0.308571 0)
(0.0627549 0.338147 0)
(0.0748768 0.355625 0)
(0.0842564 0.36265 0)
(0.0905729 0.360952 0)
(0.0938178 0.352204 0)
(0.0942092 0.337942 0)
(0.092113 0.319506 0)
(0.0879761 0.298027 0)
(0.0822748 0.274428 0)
(0.0754784 0.24944 0)
(0.0680251 0.223625 0)
(0.0603079 0.197401 0)
(0.0526685 0.171067 0)
(0.0453956 0.144829 0)
(0.0387267 0.118815 0)
(0.0328519 0.0930994 0)
(0.0279182 0.0677108 0)
(0.0240337 0.0426486 0)
(0.0212717 0.017892 0)
(0.019674 -0.00659143 0)
(0.0192537 -0.0308385 0)
(0.0199963 -0.0548835 0)
(0.0218607 -0.0787529 0)
(0.0247794 -0.102459 0)
(0.0286572 -0.125996 0)
(0.0333698 -0.14933 0)
(0.0387625 -0.172399 0)
(0.0446474 -0.195098 0)
(0.0508024 -0.217277 0)
(0.0569696 -0.238726 0)
(0.0628566 -0.259166 0)
(0.0681388 -0.278237 0)
(0.0724661 -0.29548 0)
(0.0754752 -0.310324 0)
(0.0768071 -0.322071 0)
(0.0761347 -0.329882 0)
(0.0731991 -0.332779 0)
(0.0678573 -0.329643 0)
(0.0601378 -0.319247 0)
(0.0503037 -0.300306 0)
(0.0389131 -0.271565 0)
(0.0268425 -0.231928 0)
(0.0152665 -0.18061 0)
(0.00584336 -0.117315 0)
(0.000960014 -0.0424842 0)
(0.00103787 0.0459668 0)
(0.00638788 0.126946 0)
(0.0168542 0.19561 0)
(0.029962 0.251372 0)
(0.0439605 0.294314 0)
(0.0575506 0.325047 0)
(0.0697027 0.344587 0)
(0.0797078 0.354215 0)
(0.0871761 0.355339 0)
(0.0919891 0.349379 0)
(0.0942381 0.337683 0)
(0.094164 0.321471 0)
(0.0921019 0.301809 0)
(0.0884359 0.279595 0)
(0.0835636 0.25557 0)
(0.0778713 0.230321 0)
(0.0717172 0.204308 0)
(0.0654221 0.177876 0)
(0.0592643 0.151277 0)
(0.053479 0.124688 0)
(0.0482591 0.0982238 0)
(0.0437572 0.0719545 0)
(0.0400894 0.045916 0)
(0.0373375 0.0201205 0)
(0.0355516 -0.00543367 0)
(0.034753 -0.0307546 0)
(0.0349347 -0.0558493 0)
(0.036063 -0.0807171 0)
(0.0380772 -0.105343 0)
(0.0408893 -0.129693 0)
(0.0443837 -0.153704 0)
(0.0484156 -0.177283 0)
(0.0528104 -0.200293 0)
(0.0573631 -0.222552 0)
(0.061839 -0.243818 0)
(0.065976 -0.263784 0)
(0.0694885 -0.282065 0)
(0.0720763 -0.29819 0)
(0.0734363 -0.311589 0)
(0.0732814 -0.321589 0)
(0.0713644 -0.327408 0)
(0.0675103 -0.328157 0)
(0.0616551 -0.32286 0)
(0.0538883 -0.310478 0)
(0.0444991 -0.289965 0)
(0.0340151 -0.260344 0)
(0.0232095 -0.220805 0)
(0.0130714 -0.170829 0)
(0.00495676 -0.110305 0)
(0.000804116 -0.0397121 0)
(0.000895093 0.0428919 0)
(0.00557676 0.119089 0)
(0.014843 0.184478 0)
(0.0266273 0.238459 0)
(0.0394653 0.280972 0)
(0.0522435 0.312396 0)
(0.0640406 0.333467 0)
(0.0741812 0.34518 0)
(0.0822479 0.348674 0)
(0.0880528 0.345147 0)
(0.0915955 0.335772 0)
(0.0930183 0.321646 0)
(0.0925618 0.303759 0)
(0.0905263 0.28297 0)
(0.0872401 0.260008 0)
(0.0830349 0.235474 0)
(0.0782287 0.209852 0)
(0.073114 0.183522 0)
(0.0679516 0.156773 0)
(0.0629667 0.129822 0)
(0.0583481 0.102822 0)
(0.0542491 0.0758811 0)
(0.050789 0.0490689 0)
(0.0480549 0.0224301 0)
(0.0461036 -0.00400683 0)
(0.0449636 -0.0302216 0)
(0.0446358 -0.0561937 0)
(0.045095 -0.0818958 0)
(0.0462898 -0.107286 0)
(0.0481429 -0.132303 0)
(0.0505507 -0.156858 0)
(0.053383 -0.180827 0)
(0.0564829 -0.204048 0)
(0.0596675 -0.226308 0)
(0.0627291 -0.247342 0)
(0.0654386 -0.266819 0)
(0.0675508 -0.284342 0)
(0.0688129 -0.299433 0)
(0.0689767 -0.311535 0)
(0.0678155 -0.320004 0)
(0.0651456 -0.324117 0)
(0.0608534 -0.323074 0)
(0.0549259 -0.316024 0)
(0.0474837 -0.302091 0)
(0.0388129 -0.280425 0)
(0.0293906 -0.250266 0)
(0.0198829 -0.211024 0)
(0.0111122 -0.162368 0)
(0.00418332 -0.104317 0)
(0.000671956 -0.0373675 0)
(0.000770274 0.040215 0)
(0.00484834 0.112183 0)
(0.012997 0.174577 0)
(0.0234888 0.226797 0)
(0.0351014 0.268689 0)
(0.0468877 0.300464 0)
(0.0580378 0.322648 0)
(0.0679287 0.336009 0)
(0.0761438 0.34147 0)
(0.0824572 0.340034 0)
(0.0868059 0.332721 0)
(0.0892574 0.320508 0)
(0.0899752 0.304304 0)
(0.0891869 0.28492 0)
(0.0871565 0.263064 0)
(0.0841622 0.239335 0)
(0.0804795 0.214231 0)
(0.0763688 0.188155 0)
(0.0720677 0.161426 0)
(0.0677861 0.134293 0)
(0.0637036 0.106942 0)
(0.0599693 0.0795141 0)
(0.0567019 0.0521105 0)
(0.0539909 0.024806 0)
(0.0518978 -0.00234236 0)
(0.050457 -0.0292869 0)
(0.0496777 -0.0559811 0)
(0.0495437 -0.0823716 0)
(0.0500147 -0.108392 0)
(0.051026 -0.133955 0)
(0.052489 -0.158946 0)
(0.0542911 -0.183217 0)
(0.0562964 -0.20658 0)
(0.0583467 -0.228801 0)
(0.0602635 -0.249592 0)
(0.0618517 -0.268609 0)
(0.0629051 -0.285444 0)
(0.0632149 -0.29962 0)
(0.0625806 -0.310596 0)
(0.0608252 -0.317762 0)
(0.0578133 -0.320449 0)
(0.0534737 -0.31794 0)
(0.0478229 -0.309491 0)
(0.0409899 -0.294364 0)
(0.0332392 -0.271865 0)
(0.0249862 -0.241406 0)
(0.0167913 -0.202561 0)
(0.00932898 -0.155141 0)
(0.0034925 -0.0992515 0)
(0.000556741 -0.0353994 0)
(0.000658729 0.0378978 0)
(0.00418206 0.106157 0)
(0.0112776 0.165855 0)
(0.0205058 0.216397 0)
(0.0308505 0.257566 0)
(0.0415142 0.289453 0)
(0.0517954 0.312425 0)
(0.0611346 0.327074 0)
(0.0691352 0.334147 0)
(0.0755567 0.334487 0)
(0.080297 0.328974 0)
(0.0833692 0.31848 0)
(0.0848761 0.303832 0)
(0.0849838 0.285791 0)
(0.0838995 0.265035 0)
(0.0818509 0.242153 0)
(0.0790711 0.217647 0)
(0.0757866 0.191935 0)
(0.0722085 0.165357 0)
(0.0685276 0.138186 0)
(0.0649103 0.110639 0)
(0.0614978 0.082883 0)
(0.0584048 0.0550474 0)
(0.0557205 0.0272343 0)
(0.0535089 -0.000473092 0)
(0.0518098 -0.0280018 0)
(0.0506396 -0.0552809 0)
(0.0499919 -0.0822334 0)
(0.0498379 -0.108769 0)
(0.0501273 -0.134779 0)
(0.0507882 -0.160124 0)
(0.0517276 -0.184636 0)
(0.0528325 -0.208105 0)
(0.0539708 -0.230277 0)
(0.054994 -0.250849 0)
(0.0557405 -0.269464 0)
(0.056041 -0.285708 0)
(0.0557261 -0.299112 0)
(0.0546359 -0.309148 0)
(0.0526331 -0.31524 0)
(0.0496179 -0.316768 0)
(0.0455458 -0.313085 0)
(0.0404464 -0.30354 0)
(0.0344414 -0.287506 0)
(0.0277608 -0.264416 0)
(0.0207533 -0.233811 0)
(0.0138775 -0.195395 0)
(0.00767636 -0.14908 0)
(0.00286208 -0.0950353 0)
(0.000453713 -0.0337706 0)
(0.0005571 0.0359117 0)
(0.00356284 0.100958 0)
(0.00965561 0.158269 0)
(0.0176453 0.207262 0)
(0.0266947 0.247675 0)
(0.03614 0.279513 0)
(0.045384 0.303027 0)
(0.0539358 0.318669 0)
(0.0614319 0.327048 0)
(0.0676343 0.328874 0)
(0.07242 0.32491 0)
(0.0757649 0.315931 0)
(0.0777254 0.302691 0)
(0.0784176 0.285898 0)
(0.0779989 0.266198 0)
(0.0766515 0.244165 0)
(0.0745676 0.220296 0)
(0.0719395 0.195018 0)
(0.0689504 0.168686 0)
(0.0657692 0.141591 0)
(0.0625464 0.113972 0)
(0.0594119 0.0860198 0)
(0.056474 0.0578878 0)
(0.0538192 0.0297018 0)
(0.0515124 0.00156804 0)
(0.0495971 -0.026418 0)
(0.0480963 -0.0541636 0)
(0.0470132 -0.0815705 0)
(0.0463312 -0.108528 0)
(0.0460149 -0.134906 0)
(0.04601 -0.160547 0)
(0.0462445 -0.185263 0)
(0.0466289 -0.208825 0)
(0.047058 -0.230964 0)
(0.047413 -0.251364 0)
(0.0475646 -0.269659 0)
(0.0473776 -0.285432 0)
(0.0467176 -0.298218 0)
(0.0454589 -0.307506 0)
(0.043495 -0.312747 0)
(0.040751 -0.313364 0)
(0.0371974 -0.30877 0)
(0.0328642 -0.298387 0)
(0.0278548 -0.281677 0)
(0.0223569 -0.258172 0)
(0.0166498 -0.227517 0)
(0.011096 -0.189508 0)
(0.00611972 -0.144135 0)
(0.00227561 -0.0916133 0)
(0.000359455 -0.0324539 0)
(0.000462919 0.0342349 0)
(0.00297933 0.0965441 0)
(0.00810848 0.151786 0)
(0.014881 0.19939 0)
(0.0226175 0.239067 0)
(0.0307747 0.270759 0)
(0.0388542 0.294629 0)
(0.0464364 0.311026 0)
(0.0531991 0.320449 0)
(0.0589192 0.3235 0)
(0.0634666 0.320844 0)
(0.0667941 0.313175 0)
(0.0689239 0.301181 0)
(0.069932 0.285519 0)
(0.069934 0.266802 0)
(0.0690707 0.245585 0)
(0.0674968 0.22236 0)
(0.0653707 0.197552 0)
(0.0628474 0.171527 0)
(0.0600725 0.144591 0)
(0.0571781 0.116997 0)
(0.054281 0.0889555 0)
(0.0514808 0.0606399 0)
(0.048859 0.0321958 0)
(0.0464795 0.00374884 0)
(0.0443886 -0.0245861 0)
(0.042615 -0.0526975 0)
(0.0411708 -0.0804689 0)
(0.0400516 -0.107772 0)
(0.039237 -0.134459 0)
(0.0386909 -0.160355 0)
(0.0383625 -0.185257 0)
(0.0381862 -0.20892 0)
(0.0380837 -0.231063 0)
(0.0379651 -0.251358 0)
(0.0377317 -0.269431 0)
(0.03728 -0.284864 0)
(0.0365063 -0.297195 0)
(0.0353134 -0.305928 0)
(0.0336188 -0.310534 0)
(0.0313641 -0.310471 0)
(0.0285253 -0.305199 0)
(0.0251242 -0.294197 0)
(0.0212379 -0.276997 0)
(0.017007 -0.253206 0)
(0.0126408 -0.222546 0)
(0.00841047 -0.184885 0)
(0.00463245 -0.140268 0)
(0.00172071 -0.0889456 0)
(0.000271455 -0.0314297 0)
(0.00037432 0.0328509 0)
(0.00242283 0.0928831 0)
(0.00661862 0.14638 0)
(0.0121917 0.19278 0)
(0.0186044 0.231778 0)
(0.025423 0.263273 0)
(0.0322434 0.287365 0)
(0.0387172 0.304324 0)
(0.0445691 0.314566 0)
(0.0495995 0.318607 0)
(0.0536819 0.317035 0)
(0.0567568 0.310474 0)
(0.0588222 0.299554 0)
(0.059923 0.284889 0)
(0.0601392 0.26706 0)
(0.0595757 0.246602 0)
(0.0583521 0.223997 0)
(0.0565949 0.199668 0)
(0.0544306 0.173984 0)
(0.0519807 0.147261 0)
(0.0493579 0.119764 0)
(0.046664 0.0917172 0)
(0.0439877 0.0633098 0)
(0.0414042 0.0347029 0)
(0.0389748 0.00603816 0)
(0.0367469 -0.0225539 0)
(0.0347541 -0.0509463 0)
(0.0330168 -0.0790078 0)
(0.031542 -0.106595 0)
(0.0303243 -0.133546 0)
(0.0293458 -0.159674 0)
(0.0285766 -0.184759 0)
(0.0279752 -0.208548 0)
(0.0274895 -0.230745 0)
(0.0270577 -0.251014 0)
(0.0266104 -0.268976 0)
(0.0260729 -0.284208 0)
(0.0253692 -0.296253 0)
(0.0244262 -0.30462 0)
(0.0231798 -0.308799 0)
(0.0215816 -0.308271 0)
(0.0196069 -0.30253 0)
(0.0172627 -0.291099 0)
(0.0145944 -0.273558 0)
(0.011693 -0.249572 0)
(0.00869768 -0.218917 0)
(0.00579232 -0.181514 0)
(0.00319381 -0.137452 0)
(0.00118792 -0.0870038 0)
(0.000187819 -0.0306843 0)
(0.00028985 0.0317473 0)
(0.00188648 0.0899511 0)
(0.00517191 0.142028 0)
(0.00956 0.187427 0)
(0.0146424 0.225833 0)
(0.0200873 0.257117 0)
(0.0255796 0.281334 0)
(0.0308423 0.2987 0)
(0.0356501 0.309567 0)
(0.0398328 0.314387 0)
(0.0432753 0.313687 0)
(0.0459139 0.308036 0)
(0.0477308 0.298015 0)
(0.0487464 0.284202 0)
(0.0490115 0.26715 0)
(0.048599 0.247373 0)
(0.0475966 0.225341 0)
(0.0461003 0.201474 0)
(0.0442086 0.176142 0)
(0.0420189 0.149664 0)
(0.0396234 0.122314 0)
(0.0371074 0.0943257 0)
(0.0345476 0.0658996 0)
(0.0320111 0.0372084 0)
(0.029555 0.00840582 0)
(0.0272267 -0.0203658 0)
(0.0250635 -0.0489678 0)
(0.0230929 -0.0772573 0)
(0.021333 -0.10508 0)
(0.0197929 -0.132263 0)
(0.0184722 -0.158608 0)
(0.0173618 -0.183887 0)
(0.0164438 -0.207834 0)
(0.0156917 -0.230147 0)
(0.0150711 -0.25048 0)
(0.0145404 -0.268447 0)
(0.0140524 -0.283624 0)
(0.0135558 -0.29555 0)
(0.0129985 -0.303739 0)
(0.012331 -0.30769 0)
(0.0115107 -0.306899 0)
(0.0105077 -0.30088 0)
(0.00930951 -0.289184 0)
(0.00792718 -0.271426 0)
(0.00639963 -0.247307 0)
(0.00479688 -0.216643 0)
(0.00321846 -0.179391 0)
(0.00178738 -0.135668 0)
(0.000669786 -0.0857684 0)
(0.000107079 -0.030208 0)
(0.000208333 0.0309151 0)
(0.00136464 0.0877298 0)
(0.00375662 0.138714 0)
(0.00697098 0.183328 0)
(0.0107202 0.221249 0)
(0.0147677 0.252334 0)
(0.0188845 0.276609 0)
(0.0228638 0.294254 0)
(0.0265322 0.305576 0)
(0.0297533 0.310982 0)
(0.0324283 0.310955 0)
(0.0344957 0.306019 0)
(0.0359276 0.296722 0)
(0.0367259 0.283608 0)
(0.0369165 0.267208 0)
(0.036544 0.248017 0)
(0.0356667 0.226496 0)
(0.0343517 0.203056 0)
(0.0326704 0.178066 0)
(0.0306955 0.151846 0)
(0.0284982 0.124675 0)
(0.0261466 0.0967929 0)
(0.0237037 0.068406 0)
(0.0212273 0.0396952 0)
(0.0187692 0.0108222 0)
(0.0163751 -0.0180627 0)
(0.0140849 -0.0468128 0)
(0.0119325 -0.0752778 0)
(0.00994591 -0.103296 0)
(0.0081478 -0.130686 0)
(0.00655501 -0.157243 0)
(0.00517862 -0.182731 0)
(0.00402371 -0.206878 0)
(0.0030891 -0.229373 0)
(0.00236702 -0.249864 0)
(0.00184299 -0.267958 0)
(0.00149574 -0.283225 0)
(0.00129766 -0.2952 0)
(0.0012156 -0.303396 0)
(0.00121235 -0.307311 0)
(0.00124877 -0.306448 0)
(0.00128665 -0.300328 0)
(0.00129216 -0.288518 0)
(0.00123955 -0.270647 0)
(0.00111493 -0.246439 0)
(0.000919346 -0.215734 0)
(0.000670078 -0.17851 0)
(0.000399793 -0.134906 0)
(0.000160301 -0.0852271 0)
(2.80506e-05 -0.0299948 0)
(0.00012877 0.0303479 0)
(0.000852491 0.0862067 0)
(0.00236254 0.136427 0)
(0.00441137 0.180477 0)
(0.0068266 0.218035 0)
(0.00946304 0.248952 0)
(0.0121748 0.273238 0)
(0.0148249 0.291053 0)
(0.0172928 0.302678 0)
(0.019478 0.308491 0)
(0.021302 0.308945 0)
(0.0227093 0.304536 0)
(0.0236665 0.295785 0)
(0.0241603 0.283213 0)
(0.0241954 0.267332 0)
(0.023791 0.248622 0)
(0.0229779 0.227533 0)
(0.0217952 0.20447 0)
(0.020288 0.179798 0)
(0.0185043 0.153836 0)
(0.0164939 0.126862 0)
(0.0143065 0.09912 0)
(0.0119907 0.0708186 0)
(0.00959352 0.0421426 0)