/*--------------------------------*- C++ -*----------------------------------*\
  =========                 |
  \\      /  F ield         | OpenFOAM: The Open Source CFD Toolbox
   \\    /   O peration     | Website:  https://openfoam.org
    \\  /    A nd           | Version:  7
     \\/     M anipulation  |
\*---------------------------------------------------------------------------*/
FoamFile
{
    version     2.0;
    format      ascii;
    class       surfaceScalarField;
    location    "0.0156";
    object      phi;
}
// * * * * * * * * * * * * * * * * * * * * * * * * * * * * * * * * * * * * * //

dimensions      [0 3 -1 0 0 0 0];

internalField   nonuniform List<scalar> 
4900
(
7.66347e-10
-7.74018e-10
1.10089e-09
-3.34522e-10
2.94155e-10
8.06718e-10
-1.7598e-09
2.0539e-09
-4.98525e-09
3.22544e-09
-9.21577e-09
4.23054e-09
-1.42591e-08
5.04334e-09
-1.99242e-08
5.66512e-09
-2.60319e-08
6.10766e-09
-3.24187e-08
6.38675e-09
-3.8938e-08
6.51937e-09
-4.54605e-08
6.52241e-09
-5.18724e-08
6.41198e-09
-5.80755e-08
6.20302e-09
-6.39846e-08
5.90916e-09
-6.95273e-08
5.54265e-09
-7.46417e-08
5.11437e-09
-7.92756e-08
4.63392e-09
-8.33853e-08
4.1097e-09
-8.69344e-08
3.54908e-09
-8.98929e-08
2.95855e-09
-9.22367e-08
2.34385e-09
-9.39469e-08
1.71016e-09
-9.50092e-08
1.06228e-09
-9.54139e-08
4.04729e-10
-9.51559e-08
-2.58024e-10
-9.42344e-08
-9.21475e-10
-9.26535e-08
-1.58091e-09
-9.04222e-08
-2.23127e-09
-8.75552e-08
-2.86702e-09
-8.40732e-08
-3.48199e-09
-8.00039e-08
-4.06928e-09
-7.53827e-08
-4.62114e-09
-7.02539e-08
-5.12881e-09
-6.46715e-08
-5.58249e-09
-5.87002e-08
-5.97124e-09
-5.24172e-08
-6.28297e-09
-4.59128e-08
-6.50444e-09
-3.92915e-08
-6.6213e-09
-3.26732e-08
-6.6183e-09
-2.61937e-08
-6.47944e-09
-2.00053e-08
-6.18843e-09
-1.4276e-08
-5.72934e-09
-9.18796e-09
-5.088e-09
-4.9333e-09
-4.25467e-09
-1.7028e-09
-3.23051e-09
3.41258e-10
-2.04406e-09
1.12913e-09
-7.87882e-10
7.77322e-10
3.51788e-10
7.77305e-10
3.41207e-10
-1.11521e-09
-9.19253e-10
9.2594e-10
-4.70162e-09
4.58918e-09
-1.12762e-08
8.62851e-09
-2.05297e-08
1.24789e-08
-3.21623e-08
1.58631e-08
-4.57808e-08
1.86618e-08
-6.09595e-08
2.08439e-08
-7.72754e-08
2.24235e-08
-9.43261e-08
2.34375e-08
-1.1174e-07
2.39336e-08
-1.29182e-07
2.3964e-08
-1.46351e-07
2.3581e-08
-1.62983e-07
2.28353e-08
-1.78848e-07
2.17742e-08
-1.93747e-07
2.04413e-08
-2.07508e-07
1.88758e-08
-2.19987e-07
1.71128e-08
-2.31061e-07
1.51836e-08
-2.40628e-07
1.31158e-08
-2.48603e-07
1.0934e-08
-2.54919e-07
8.66008e-09
-2.59523e-07
6.31408e-09
-2.62376e-07
3.91447e-09
-2.6345e-07
1.47886e-09
-2.62732e-07
-9.75518e-10
-2.60222e-07
-3.43121e-09
-2.55933e-07
-5.87005e-09
-2.49892e-07
-8.27269e-09
-2.42141e-07
-1.0618e-08
-2.3274e-07
-1.28828e-08
-2.21768e-07
-1.50411e-08
-2.09325e-07
-1.7064e-08
-1.95535e-07
-1.89192e-08
-1.80547e-07
-2.05708e-08
-1.64539e-07
-2.19792e-08
-1.47721e-07
-2.31011e-08
-1.30335e-07
-2.38896e-08
-1.12662e-07
-2.42952e-08
-9.50138e-08
-2.42662e-08
-7.77426e-08
-2.37506e-08
-6.12324e-08
-2.26985e-08
-4.5896e-08
-2.10658e-08
-3.21633e-08
-1.88207e-08
-2.04622e-08
-1.59558e-08
-1.1183e-08
-1.25096e-08
-4.6176e-09
-8.60953e-09
-8.65065e-10
-4.54045e-09
3.61826e-10
-8.75138e-10
1.13912e-09
-7.72306e-10
-3.42922e-10
-4.52823e-09
4.6818e-09
-1.19913e-08
1.20523e-08
-2.33437e-08
1.9981e-08
-3.84181e-08
2.75533e-08
-5.68228e-08
3.42678e-08
-7.80387e-08
3.98776e-08
-1.01488e-07
4.42933e-08
-1.26581e-07
4.75163e-08
-1.52743e-07
4.95999e-08
-1.79436e-07
5.06259e-08
-2.06161e-07
5.06896e-08
-2.32472e-07
4.98916e-08
-2.57968e-07
4.83315e-08
-2.82298e-07
4.61045e-08
-3.05156e-07
4.32995e-08
-3.26278e-07
3.99978e-08
-3.45439e-07
3.62729e-08
-3.62446e-07
3.21907e-08
-3.7714e-07
2.781e-08
-3.89389e-07
2.31835e-08
-3.99088e-07
1.83585e-08
-4.06152e-07
1.33783e-08
-4.10521e-07
8.2831e-09
-4.12153e-07
3.11126e-09
-4.11029e-07
-2.09962e-09
-4.07149e-07
-7.31159e-09
-4.00533e-07
-1.24852e-08
-3.91228e-07
-1.75786e-08
-3.79299e-07
-2.25464e-08
-3.64843e-07
-2.73386e-08
-3.47984e-07
-3.19e-08
-3.28879e-07
-3.61693e-08
-3.0772e-07
-4.00783e-08
-2.84739e-07
-4.35518e-08
-2.60211e-07
-4.65075e-08
-2.34456e-07
-4.8856e-08
-2.07843e-07
-5.05022e-08
-1.80792e-07
-5.13463e-08
-1.53771e-07
-5.12869e-08
-1.27297e-07
-5.02244e-08
-1.01929e-07
-4.80674e-08
-7.8253e-08
-4.47415e-08
-5.687e-08
-4.02036e-08
-3.83608e-08
-3.4465e-08
-2.32409e-08
-2.76296e-08
-1.18912e-08
-1.99593e-08
-4.46153e-09
-1.19701e-08
-7.47642e-10
-4.58904e-09
3.91475e-10
-1.99657e-09
1.65371e-09
-8.54153e-09
1.12267e-08
-1.9921e-08
2.34318e-08
-3.61115e-08
3.61715e-08
-5.68165e-08
4.82584e-08
-8.15403e-08
5.89916e-08
-1.0966e-07
6.79968e-08
-1.40484e-07
7.51173e-08
-1.73301e-07
8.03336e-08
-2.07412e-07
8.37105e-08
-2.42149e-07
8.5363e-08
-2.76893e-07
8.54337e-08
-3.11079e-07
8.40774e-08
-3.44199e-07
8.14513e-08
-3.75802e-07
7.77083e-08
-4.05496e-07
7.29928e-08
-4.32936e-07
6.74384e-08
-4.5783e-07
6.1167e-08
-4.79928e-07
5.42888e-08
-4.99021e-07
4.69028e-08
-5.14936e-07
3.90981e-08
-5.27532e-07
3.09553e-08
-5.36702e-07
2.25484e-08
-5.42366e-07
1.39463e-08
-5.44469e-07
5.21485e-09
-5.42987e-07
-3.58148e-09
-5.37921e-07
-1.23775e-08
-5.29301e-07
-2.11059e-08
-5.17185e-07
-2.96949e-08
-5.01664e-07
-3.80673e-08
-4.82864e-07
-4.61384e-08
-4.60949e-07
-5.38151e-08
-4.36124e-07
-6.09941e-08
-4.08641e-07
-6.75615e-08
-3.788e-07
-7.33923e-08
-3.46957e-07
-7.83503e-08
-3.13524e-07
-8.22892e-08
-2.78972e-07
-8.50544e-08
-2.43832e-07
-8.64859e-08
-2.08695e-07
-8.64238e-08
-1.74205e-07
-8.47148e-08
-1.4105e-07
-8.12227e-08
-1.09947e-07
-7.58441e-08
-8.16202e-08
-6.85304e-08
-5.67642e-08
-5.93209e-08
-3.59987e-08
-4.83952e-08
-1.98069e-08
-3.61511e-08
-8.46477e-09
-2.33122e-08
-1.96891e-09
-1.10849e-08
-1.57744e-09
-3.16808e-09
4.82184e-09
-1.24677e-08
2.05264e-08
-2.77289e-08
3.86929e-08
-4.86481e-08
5.70907e-08
-7.47486e-08
7.43588e-08
-1.05405e-07
8.96484e-08
-1.39889e-07
1.0248e-07
-1.77409e-07
1.12638e-07
-2.17157e-07
1.20081e-07
-2.58332e-07
1.24886e-07
-3.0017e-07
1.27201e-07
-3.41955e-07
1.27218e-07
-3.83028e-07
1.25151e-07
-4.22797e-07
1.2122e-07
-4.6073e-07
1.15642e-07
-4.96362e-07
1.08625e-07
-5.29286e-07
1.00362e-07
-5.59152e-07
9.10327e-08
-5.85661e-07
8.07978e-08
-6.08563e-07
6.98042e-08
-6.27649e-07
5.81846e-08
-6.42753e-07
4.60592e-08
-6.53744e-07
3.3539e-08
-6.60525e-07
2.07273e-08
-6.63033e-07
7.72323e-09
-6.61238e-07
-5.37609e-09
-6.55143e-07
-1.84727e-08
-6.44784e-07
-3.14654e-08
-6.30232e-07
-4.42468e-08
-6.11598e-07
-5.67014e-08
-5.89033e-07
-6.8703e-08
-5.62735e-07
-8.01132e-08
-5.3295e-07
-9.07793e-08
-4.99978e-07
-1.00533e-07
-4.64178e-07
-1.09192e-07
-4.25971e-07
-1.16557e-07
-3.85843e-07
-1.22417e-07
-3.44349e-07
-1.26548e-07
-3.02111e-07
-1.28725e-07
-2.59813e-07
-1.28722e-07
-2.182e-07
-1.26328e-07
-1.78062e-07
-1.2136e-07
-1.4022e-07
-1.13687e-07
-1.05496e-07
-1.03255e-07
-7.46849e-08
-9.01315e-08
-4.85139e-08
-7.45662e-08
-2.75933e-08
-5.70716e-08
-1.23766e-08
-3.85289e-08
-3.13507e-09
-2.03264e-08
-4.7125e-09
-4.21941e-09
9.04124e-09
-1.61025e-08
3.24095e-08
-3.50603e-08
5.76507e-08
-6.04937e-08
8.25241e-08
-9.17188e-08
1.05584e-07
-1.2796e-07
1.2589e-07
-1.68372e-07
1.42892e-07
-2.12066e-07
1.56331e-07
-2.58142e-07
1.66157e-07
-3.05716e-07
1.7246e-07
-3.53941e-07
1.75426e-07
-4.02022e-07
1.753e-07
-4.49228e-07
1.72357e-07
-4.94894e-07
1.66886e-07
-5.38426e-07
1.59173e-07
-5.79297e-07
1.49496e-07
-6.1705e-07
1.38115e-07
-6.51287e-07
1.2527e-07
-6.8167e-07
1.11181e-07
-7.07914e-07
9.6048e-08
-7.29783e-07
8.0053e-08
-7.47085e-07
6.33613e-08
-7.59671e-07
4.61256e-08
-7.67433e-07
2.8489e-08
-7.70298e-07
1.05884e-08
-7.68232e-07
-7.44181e-09
-7.61239e-07
-2.54663e-08
-7.49359e-07
-4.3345e-08
-7.32676e-07
-6.093e-08
-7.11315e-07
-7.80623e-08
-6.8545e-07
-9.45686e-08
-6.55304e-07
-1.10259e-07
-6.21158e-07
-1.24925e-07
-5.83352e-07
-1.38339e-07
-5.42293e-07
-1.50252e-07
-4.98455e-07
-1.60395e-07
-4.52386e-07
-1.68485e-07
-4.04708e-07
-1.74226e-07
-3.56115e-07
-1.77318e-07
-3.07371e-07
-1.77465e-07
-2.59303e-07
-1.74396e-07
-2.12786e-07
-1.67877e-07
-1.68728e-07
-1.57745e-07
-1.28043e-07
-1.43939e-07
-9.16281e-08
-1.26547e-07
-6.03249e-08
-1.05869e-07
-3.48934e-08
-8.25031e-08
-1.59909e-08
-5.74314e-08
-4.17881e-09
-3.21385e-08
-8.89129e-09
-5.14321e-09
1.41844e-08
-1.93905e-08
4.66569e-08
-4.17981e-08
8.00583e-08
-7.14858e-08
1.12212e-07
-1.07555e-07
1.41654e-07
-1.49069e-07
1.67404e-07
-1.95053e-07
1.88876e-07
-2.44516e-07
2.05794e-07
-2.96469e-07
2.18109e-07
-3.49947e-07
2.25938e-07
-4.04031e-07
2.2951e-07
-4.57859e-07
2.29127e-07
-5.10634e-07
2.25132e-07
-5.61633e-07
2.17886e-07
-6.10211e-07
2.07751e-07
-6.55791e-07
1.95077e-07
-6.97874e-07
1.80197e-07
-7.36023e-07
1.63419e-07
-7.69868e-07
1.45026e-07
-7.99095e-07
1.25275e-07
-8.23445e-07
1.04403e-07
-8.42709e-07
8.26247e-08
-8.56721e-07
6.01381e-08
-8.65362e-07
3.713e-08
-8.68553e-07
1.37789e-08
-8.66255e-07
-9.73973e-09
-8.58472e-07
-3.32494e-08
-8.45249e-07
-5.65675e-08
-8.26677e-07
-7.95016e-08
-8.02895e-07
-1.01845e-07
-7.74092e-07
-1.23372e-07
-7.40515e-07
-1.43837e-07
-7.0247e-07
-1.6297e-07
-6.60331e-07
-1.80478e-07
-6.14542e-07
-1.9604e-07
-5.65624e-07
-2.09313e-07
-5.14174e-07
-2.19936e-07
-4.60869e-07
-2.27531e-07
-4.06468e-07
-2.31719e-07
-3.518e-07
-2.32133e-07
-2.97764e-07
-2.28432e-07
-2.45312e-07
-2.20329e-07
-1.95435e-07
-2.07622e-07
-1.49141e-07
-1.90233e-07
-1.07431e-07
-1.68257e-07
-7.12747e-08
-1.42026e-07
-4.15928e-08
-1.12185e-07
-1.92535e-08
-7.97707e-08
-5.09307e-09
-4.62989e-08
-1.39843e-08
-5.95564e-09
2.01401e-08
-2.23538e-08
6.3055e-08
-4.79615e-08
1.05666e-07
-8.16455e-08
1.45896e-07
-1.22299e-07
1.82307e-07
-1.68817e-07
2.13922e-07
-2.20091e-07
2.4015e-07
-2.75018e-07
2.60722e-07
-3.32518e-07
2.75609e-07
-3.91547e-07
2.84967e-07
-4.51114e-07
2.89077e-07
-5.10293e-07
2.88307e-07
-5.68234e-07
2.83072e-07
-6.24162e-07
2.73814e-07
-6.77385e-07
2.60973e-07
-7.27287e-07
2.4498e-07
-7.73333e-07
2.26242e-07
-8.15055e-07
2.05142e-07
-8.52057e-07
1.82027e-07
-8.84002e-07
1.57221e-07
-9.10613e-07
1.31014e-07
-9.31664e-07
1.03676e-07
-9.46979e-07
7.54532e-08
-9.56429e-07
4.65795e-08
-9.59928e-07
1.72778e-08
-9.57434e-07
-1.22329e-08
-9.48952e-07
-4.1732e-08
-9.34528e-07
-7.09914e-08
-9.14259e-07
-9.97707e-08
-8.88291e-07
-1.27812e-07
-8.56829e-07
-1.54834e-07
-8.20134e-07
-1.80532e-07
-7.78535e-07
-2.04569e-07
-7.32431e-07
-2.26581e-07
-6.823e-07
-2.46171e-07
-6.28697e-07
-2.62916e-07
-5.72264e-07
-2.76369e-07
-5.13727e-07
-2.86068e-07
-4.53898e-07
-2.91549e-07
-3.93668e-07
-2.92363e-07
-3.34003e-07
-2.88096e-07
-2.75932e-07
-2.784e-07
-2.20528e-07
-2.63026e-07
-1.68896e-07
-2.41864e-07
-1.2215e-07
-2.15003e-07
-8.13939e-08
-1.82782e-07
-4.77164e-08
-1.45862e-07
-2.21891e-08
-1.05298e-07
-5.89476e-09
-6.25932e-08
-1.98791e-08
-6.68012e-09
2.68202e-08
-2.50488e-08
8.14237e-08
-5.36402e-08
1.34257e-07
-9.10976e-08
1.83353e-07
-1.36118e-07
2.27328e-07
-1.87429e-07
2.65233e-07
-2.43784e-07
2.96505e-07
-3.03962e-07
3.209e-07
-3.66787e-07
3.38434e-07
-4.3113e-07
3.49311e-07
-4.95932e-07
3.53879e-07
-5.60204e-07
3.52579e-07
-6.23042e-07
3.4591e-07
-6.83626e-07
3.34398e-07
-7.41222e-07
3.18569e-07
-7.95181e-07
2.98939e-07
-8.44937e-07
2.75998e-07
-8.89997e-07
2.50202e-07
-9.29943e-07
2.21973e-07
-9.64421e-07
1.91699e-07
-9.93138e-07
1.59731e-07
-1.01586e-06
1.26395e-07
-1.03239e-06
9.19887e-08
-1.04261e-06
5.67943e-08
-1.04641e-06
2.10813e-08
-1.04376e-06
-1.48855e-08
-1.03465e-06
-5.08394e-08
-1.01914e-06
-8.65049e-08
-9.97317e-07
-1.21591e-07
-9.69343e-07
-1.55786e-07
-9.35425e-07
-1.88752e-07
-8.95841e-07
-2.20117e-07
-8.50934e-07
-2.49476e-07
-8.01125e-07
-2.7639e-07
-7.46916e-07
-3.0038e-07
-6.88896e-07
-3.20937e-07
-6.27742e-07
-3.37522e-07
-5.64227e-07
-3.49583e-07
-4.99211e-07
-3.56564e-07
-4.33647e-07
-3.57927e-07
-3.68568e-07
-3.53176e-07
-3.05077e-07
-3.41891e-07
-2.44339e-07
-3.23764e-07
-1.87559e-07
-2.98644e-07
-1.3597e-07
-2.66591e-07
-9.08203e-08
-2.27932e-07
-5.33614e-08
-1.83321e-07
-2.48581e-08
-1.33801e-07
-6.60839e-09
-8.08429e-08
-2.64875e-08
-7.34128e-09
3.41615e-08
-2.75456e-08
1.01628e-07
-5.89568e-08
1.65669e-07
-1.00022e-07
2.24418e-07
-1.49254e-07
2.7656e-07
-2.05217e-07
3.21196e-07
-2.66521e-07
3.57809e-07
-3.31826e-07
3.86206e-07
-3.9985e-07
4.06457e-07
-4.69379e-07
4.1884e-07
-5.39278e-07
4.23777e-07
-6.08497e-07
4.21798e-07
-6.76079e-07
4.13492e-07
-7.41159e-07
3.99477e-07
-8.02966e-07
3.80376e-07
-8.6082e-07
3.56793e-07
-9.14128e-07
3.29306e-07
-9.62379e-07
2.98452e-07
-1.00513e-06
2.64729e-07
-1.04203e-06
2.28593e-07
-1.07276e-06
1.90459e-07
-1.09707e-06
1.5071e-07
-1.11478e-06
1.09698e-07
-1.12574e-06
6.77544e-08
-1.12986e-06
2.51974e-08
-1.12708e-06
-1.76618e-08
-1.11741e-06
-6.05092e-08
-1.10089e-06
-1.0302e-07
-1.07763e-06
-1.44853e-07
-1.04778e-06
-1.85639e-07
-1.01155e-06
-2.24979e-07
-9.69235e-07
-2.62434e-07
-9.21183e-07
-2.97529e-07
-8.67834e-07
-3.29739e-07
-8.0971e-07
-3.58503e-07
-7.47429e-07
-3.83218e-07
-6.81703e-07
-4.03248e-07
-6.13344e-07
-4.17942e-07
-5.43266e-07
-4.26643e-07
-4.72478e-07
-4.28715e-07
-4.02084e-07
-4.2357e-07
-3.33269e-07
-4.10705e-07
-2.67292e-07
-3.89741e-07
-2.05468e-07
-3.60468e-07
-1.49157e-07
-3.22903e-07
-9.97483e-08
-2.7734e-07
-5.86597e-08
-2.2441e-07
-2.73348e-08
-1.65126e-07
-7.25983e-09
-1.00918e-07
-3.37473e-08
-7.96281e-09
4.21243e-08
-2.99177e-08
1.23583e-07
-6.40477e-08
1.99799e-07
-1.08623e-07
2.68994e-07
-1.61986e-07
3.29922e-07
-2.22537e-07
3.81747e-07
-2.88743e-07
4.24015e-07
-3.59137e-07
4.566e-07
-4.32329e-07
4.79649e-07
-5.0701e-07
4.93521e-07
-5.81969e-07
4.98736e-07
-6.5609e-07
4.95919e-07
-7.28361e-07
4.85764e-07
-7.97875e-07
4.68991e-07
-8.63823e-07
4.46324e-07
-9.25498e-07
4.18468e-07
-9.82283e-07
3.86091e-07
-1.03365e-06
3.49819e-07
-1.07915e-06
3.10226e-07
-1.1184e-06
2.67843e-07
-1.15109e-06
2.23149e-07
-1.17696e-06
1.76587e-07
-1.19583e-06
1.28563e-07
-1.20754e-06
7.94608e-08
-1.21198e-06
2.96451e-08
-1.20912e-06
-2.0525e-08
-1.19894e-06
-7.06879e-08
-1.18149e-06
-1.2047e-07
-1.15687e-06
-1.69475e-07
-1.12523e-06
-2.1728e-07
-1.08679e-06
-2.6342e-07
-1.04183e-06
-3.07389e-07
-9.90731e-07
-3.48631e-07
-9.33929e-07
-3.86541e-07
-8.7197e-07
-4.20463e-07
-8.05492e-07
-4.49695e-07
-7.35242e-07
-4.73498e-07
-6.62073e-07
-4.91111e-07
-5.86949e-07
-5.01767e-07
-5.10943e-07
-5.04721e-07
-4.35231e-07
-4.99282e-07
-3.61087e-07
-4.84849e-07
-2.89871e-07
-4.60957e-07
-2.23015e-07
-4.27324e-07
-1.62012e-07
-3.83907e-07
-1.084e-07
-3.30952e-07
-6.37573e-08
-2.69052e-07
-2.96973e-08
-1.99186e-07
-7.87405e-09
-1.22741e-07
-4.16214e-08
-8.56678e-09
5.06911e-08
-3.22376e-08
1.47254e-07
-6.90521e-08
2.36613e-07
-1.17118e-07
3.1706e-07
-1.74609e-07
3.87413e-07
-2.39769e-07
4.46907e-07
-3.10916e-07
4.95162e-07
-3.86451e-07
5.32134e-07
-4.64867e-07
5.58065e-07
-5.44759e-07
5.73413e-07
-6.24829e-07
5.78807e-07
-7.03895e-07
5.74986e-07
-7.80889e-07
5.62757e-07
-8.54855e-07
5.42957e-07
-9.24954e-07
5.16423e-07
-9.90448e-07
4.83963e-07
-1.0507e-06
4.46346e-07
-1.10517e-06
4.04289e-07
-1.1534e-06
3.58451e-07
-1.19499e-06
3.09437e-07
-1.22964e-06
2.57794e-07
-1.25708e-06
2.04025e-07
-1.27711e-06
1.48594e-07
-1.28958e-06
9.19318e-08
-1.29438e-06
3.44533e-08
-1.29147e-06
-2.3436e-08
-1.28083e-06
-8.13275e-08
-1.26251e-06
-1.38798e-07
-1.23658e-06
-1.95399e-07
-1.20321e-06
-2.50649e-07
-1.16261e-06
-3.04018e-07
-1.11507e-06
-3.54929e-07
-1.06096e-06
-4.02745e-07
-1.00073e-06
-4.46771e-07
-9.34941e-07
-4.86253e-07
-8.64254e-07
-5.20383e-07
-7.89445e-07
-5.48308e-07
-7.11409e-07
-5.69147e-07
-6.31164e-07
-5.82012e-07
-5.49847e-07
-5.86038e-07
-4.68716e-07
-5.80413e-07
-3.89139e-07
-5.64426e-07
-3.12586e-07
-5.3751e-07
-2.40614e-07
-4.99296e-07
-1.74858e-07
-4.49663e-07
-1.17008e-07
-3.88802e-07
-6.88042e-08
-3.17256e-07
-3.20232e-08
-2.35967e-07
-8.47448e-09
-1.4629e-07
-5.00959e-08
-9.17356e-09
5.98647e-08
-3.45745e-08
1.72655e-07
-7.41071e-08
2.76146e-07
-1.25721e-07
3.68674e-07
-1.87425e-07
4.49117e-07
-2.57302e-07
5.16784e-07
-3.33516e-07
5.71376e-07
-4.1433e-07
6.12949e-07
-4.98115e-07
6.4185e-07
-5.8336e-07
6.58658e-07
-6.68678e-07
6.64125e-07
-7.52811e-07
6.59119e-07
-8.34634e-07
6.44579e-07
-9.13146e-07
6.21469e-07
-9.8747e-07
5.90746e-07
-1.05684e-06
5.53337e-07
-1.12062e-06
5.10117e-07
-1.17823e-06
4.619e-07
-1.22921e-06
4.09434e-07
-1.27317e-06
3.534e-07
-1.3098e-06
2.94419e-07
-1.33882e-06
2.33052e-07
-1.36005e-06
1.69818e-07
-1.37332e-06
1.05201e-07
-1.37852e-06
3.96601e-08
-1.37561e-06
-2.63527e-08
-1.36455e-06
-9.23829e-08
-1.34539e-06
-1.57959e-07
-1.31821e-06
-2.22581e-07
-1.28315e-06
-2.85707e-07
-1.24042e-06
-3.46745e-07
-1.19031e-06
-4.0504e-07
-1.13318e-06
-4.59873e-07
-1.0695e-06
-5.10454e-07
-9.9983e-07
-5.55924e-07
-9.24854e-07
-5.95359e-07
-8.45378e-07
-6.27783e-07
-7.62341e-07
-6.52184e-07
-6.76814e-07
-6.67539e-07
-5.90006e-07
-6.72845e-07
-5.03261e-07
-6.67158e-07
-4.18051e-07
-6.49637e-07
-3.35964e-07
-6.19597e-07
-2.58695e-07
-5.76565e-07
-1.88026e-07
-5.20333e-07
-1.25809e-07
-4.51018e-07
-7.39496e-08
-3.69116e-07
-3.43875e-08
-2.75529e-07
-9.08291e-09
-1.71594e-07
-5.91788e-08
-9.802e-09
6.96667e-08
-3.69948e-08
1.99848e-07
-7.93457e-08
3.18497e-07
-1.34644e-07
4.23972e-07
-2.00732e-07
5.15205e-07
-2.75522e-07
5.91574e-07
-3.57019e-07
6.52874e-07
-4.4334e-07
6.99269e-07
-5.32722e-07
7.31232e-07
-6.23543e-07
7.49478e-07
-7.14318e-07
7.549e-07
-8.03714e-07
7.48515e-07
-8.9054e-07
7.31405e-07
-9.73748e-07
7.04678e-07
-1.05243e-06
6.69426e-07
-1.12579e-06
6.26701e-07
-1.19317e-06
5.77495e-07
-1.254e-06
5.22727e-07
-1.3078e-06
4.63238e-07
-1.35419e-06
3.99789e-07
-1.39284e-06
3.33072e-07
-1.4235e-06
2.63713e-07
-1.44597e-06
1.92283e-07
-1.46008e-06
1.19314e-07
-1.46573e-06
4.53124e-08
-1.46286e-06
-2.92277e-08
-1.45143e-06
-1.03808e-07
-1.43148e-06
-1.77911e-07
-1.40308e-06
-2.50985e-07
-1.36636e-06
-3.22431e-07
-1.32151e-06
-3.9159e-07
-1.26882e-06
-4.57733e-07
-1.20864e-06
-5.20051e-07
-1.14144e-06
-5.77654e-07
-1.06779e-06
-6.29571e-07
-9.88397e-07
-6.74754e-07
-9.04089e-07
-7.12091e-07
-8.15846e-07
-7.40426e-07
-7.24802e-07
-7.58584e-07
-6.32239e-07
-7.65408e-07
-5.39596e-07
-7.59801e-07
-4.48456e-07
-7.40777e-07
-3.6054e-07
-7.07513e-07
-2.77689e-07
-6.59415e-07
-2.01847e-07
-5.96174e-07
-1.35038e-07
-5.17828e-07
-7.93401e-08
-4.24814e-07
-3.68625e-08
-3.18007e-07
-9.71983e-09
-1.98737e-07
-6.88986e-08
-1.04698e-08
8.01366e-08
-3.95618e-08
2.2894e-07
-8.48973e-08
3.63832e-07
-1.44097e-07
4.83172e-07
-2.14824e-07
5.85932e-07
-2.94813e-07
6.71563e-07
-3.81899e-07
7.39959e-07
-4.74038e-07
7.91408e-07
-5.69328e-07
8.26523e-07
-6.66023e-07
8.46173e-07
-7.62537e-07
8.51414e-07
-8.5745e-07
8.43429e-07
-9.49509e-07
8.23464e-07
-1.03762e-06
7.92784e-07
-1.12082e-06
7.52633e-07
-1.19832e-06
7.04201e-07
-1.26943e-06
6.48605e-07
-1.33358e-06
5.86875e-07
-1.39029e-06
5.19951e-07
-1.43918e-06
4.48679e-07
-1.47993e-06
3.73822e-07
-1.51229e-06
2.96069e-07
-1.53605e-06
2.16044e-07
-1.55106e-06
1.34327e-07
-1.55722e-06
5.14649e-08
-1.55444e-06
-3.20079e-08
-1.54269e-06
-1.15553e-07
-1.52199e-06
-1.98609e-07
-1.4924e-06
-2.80576e-07
-1.45403e-06
-3.60799e-07
-1.40707e-06
-4.38552e-07
-1.35178e-06
-5.13029e-07
-1.2885e-06
-5.8333e-07
-1.21769e-06
-6.48459e-07
-1.13994e-06
-7.07324e-07
-1.05595e-06
-7.58741e-07
-9.66595e-07
-8.0145e-07
-8.72886e-07
-8.34134e-07
-7.7602e-07
-8.5545e-07
-6.77362e-07
-8.64066e-07
-5.7845e-07
-8.58713e-07
-4.80993e-07
-8.38234e-07
-3.86853e-07
-8.01653e-07
-2.98035e-07
-7.48234e-07
-2.16657e-07
-6.77552e-07
-1.4493e-07
-5.89555e-07
-8.51206e-08
-4.84623e-07
-3.9519e-08
-3.63608e-07
-1.04048e-08
-2.27851e-07
-7.93034e-08
-1.1194e-08
9.13306e-08
-4.2337e-08
2.60083e-07
-9.08884e-08
4.12384e-07
-1.54284e-07
5.46568e-07
-2.29994e-07
6.61642e-07
-3.15558e-07
7.57127e-07
-4.08624e-07
8.33025e-07
-5.06978e-07
8.89762e-07
-6.08563e-07
9.28109e-07
-7.11502e-07
9.49111e-07
-8.14096e-07
9.54009e-07
-9.14839e-07
9.44171e-07
-1.01241e-06
9.21031e-07
-1.10565e-06
8.86029e-07
-1.19359e-06
8.40575e-07
-1.2754e-06
7.86011e-07
-1.35039e-06
7.23591e-07
-1.41798e-06
6.54464e-07
-1.4777e-06
5.79673e-07
-1.52917e-06
5.00154e-07
-1.57209e-06
4.16743e-07
-1.60621e-06
3.30189e-07
-1.63134e-06
2.41168e-07
-1.64732e-06
1.50304e-07
-1.65403e-06
5.81799e-08
-1.65141e-06
-3.46327e-08
-1.6394e-06
-1.2756e-07
-1.61801e-06
-2.20002e-07
-1.58727e-06
-3.11313e-07
-1.54728e-06
-4.00785e-07
-1.49821e-06
-4.87627e-07
-1.44028e-06
-5.70953e-07
-1.37384e-06
-6.49769e-07
-1.29933e-06
-7.22968e-07
-1.21733e-06
-7.89328e-07
-1.12855e-06
-8.47518e-07
-1.03389e-06
-8.96113e-07
-9.34406e-07
-9.33618e-07
-8.31356e-07
-9.585e-07
-7.26191e-07
-9.69231e-07
-6.20561e-07
-9.64343e-07
-5.16307e-07
-9.42488e-07
-4.1545e-07
-9.02509e-07
-3.20174e-07
-8.4351e-07
-2.32793e-07
-7.64933e-07
-1.55722e-07
-6.66626e-07
-9.14365e-08
-5.48909e-07
-4.24272e-08
-4.12618e-07
-1.11572e-08
-2.59121e-07
-9.04605e-08
-1.19913e-08
1.03322e-07
-4.53814e-08
2.93473e-07
-9.74449e-08
4.64447e-07
-1.65411e-07
6.14534e-07
-2.46532e-07
7.42763e-07
-3.38134e-07
8.48729e-07
-4.3766e-07
9.32551e-07
-5.42706e-07
9.94808e-07
-6.51049e-07
1.03645e-06
-7.60664e-07
1.05873e-06
-8.69737e-07
1.06308e-06
-9.76664e-07
1.0511e-06
-1.08005e-06
1.02442e-06
-1.1787e-06
9.84679e-07
-1.2716e-06
9.33476e-07
-1.35791e-06
8.72317e-07
-1.43692e-06
8.02605e-07
-1.50808e-06
7.25618e-07
-1.57091e-06
6.42508e-07
-1.62506e-06
5.54302e-07
-1.67023e-06
4.6191e-07
-1.70618e-06
3.66142e-07
-1.73274e-06
2.67722e-07
-1.74974e-06
1.67311e-07
-1.75709e-06
6.55258e-08
-1.75469e-06
-3.70329e-08
-1.74249e-06
-1.39761e-07
-1.72046e-06
-2.42026e-07
-1.68863e-06
-3.43142e-07
-1.64707e-06
-4.42351e-07
-1.5959e-06
-5.38798e-07
-1.53533e-06
-6.31518e-07
-1.46568e-06
-7.1942e-07
-1.38737e-06
-8.0128e-07
-1.30096e-06
-8.75736e-07
-1.20718e-06
-9.41297e-07
-1.10694e-06
-9.96358e-07
-1.00133e-06
-1.03922e-06
-8.91688e-07
-1.06815e-06
-7.79544e-07
-1.08138e-06
-6.66668e-07
-1.07722e-06
-5.55051e-07
-1.05411e-06
-4.46887e-07
-1.01067e-06
-3.4456e-07
-9.45838e-07
-2.50601e-07
-8.58892e-07
-1.67656e-07
-7.4957e-07
-9.84358e-08
-6.18129e-07
-4.56583e-08
-4.65395e-07
-1.19962e-08
-2.92783e-07
-1.02457e-07
-1.28785e-08
1.162e-07
-4.87568e-08
3.29351e-07
-1.04695e-07
5.20385e-07
-1.77684e-07
6.87523e-07
-2.64733e-07
8.29812e-07
-3.62926e-07
9.46922e-07
-4.69476e-07
1.0391e-06
-5.8177e-07
1.1071e-06
-6.974e-07
1.15208e-06
-8.14182e-07
1.17551e-06
-9.30176e-07
1.17907e-06
-1.04368e-06
1.1646e-06
-1.15322e-06
1.13396e-06
-1.25755e-06
1.08902e-06
-1.35564e-06
1.03157e-06
-1.44663e-06
9.63305e-07
-1.52982e-06
8.85796e-07
-1.60466e-06
8.00455e-07
-1.6707e-06
7.08549e-07
-1.7276e-06
6.112e-07
-1.77508e-06
5.09393e-07
-1.81293e-06
4.03994e-07
-1.84098e-06
2.95771e-07
-1.85909e-06
1.85417e-07
-1.86714e-06
7.35762e-08
-1.86504e-06
-3.91297e-08
-1.85273e-06
-1.52075e-07
-1.83015e-06
-2.646e-07
-1.79731e-06
-3.75987e-07
-1.75423e-06
-4.85432e-07
-1.701e-06
-5.92021e-07
-1.63781e-06
-6.94711e-07
-1.56492e-06
-7.92312e-07
-1.48272e-06
-8.83474e-07
-1.39177e-06
-9.66688e-07
-1.29278e-06
-1.04029e-06
-1.18667e-06
-1.10247e-06
-1.07458e-06
-1.15131e-06
-9.57887e-07
-1.18483e-06
-8.38238e-07
-1.20102e-06
-7.17523e-07
-1.19793e-06
-5.97893e-07
-1.17374e-06
-4.81736e-07
-1.12683e-06
-3.71658e-07
-1.05592e-06
-2.70438e-07
-9.60112e-07
-1.80983e-07
-8.39024e-07
-1.06273e-07
-6.9284e-07
-4.92867e-08
-5.22381e-07
-1.29422e-08
-3.29128e-07
-1.15399e-07
-1.38734e-08
1.30074e-07
-5.25273e-08
3.68005e-07
-1.12769e-07
5.80627e-07
-1.91317e-07
7.66071e-07
-2.84899e-07
9.23393e-07
-3.90323e-07
1.05235e-06
-5.04545e-07
1.15332e-06
-6.24716e-07
1.22727e-06
-7.48223e-07
1.27559e-06
-8.72713e-07
1.3e-06
-9.96104e-07
1.30247e-06
-1.11659e-06
1.28509e-06
-1.23263e-06
1.25e-06
-1.34293e-06
1.19932e-06
-1.44643e-06
1.13507e-06
-1.54227e-06
1.05914e-06
-1.62976e-06
9.73288e-07
-1.70837e-06
8.79066e-07
-1.77769e-06
7.77866e-07
-1.83739e-06
6.70903e-07
-1.88724e-06
5.59239e-07
-1.92704e-06
4.43792e-07
-1.95663e-06
3.25368e-07
-1.9759e-06
2.04687e-07
-1.98474e-06
8.2408e-08
-1.98303e-06
-4.0834e-08
-1.9707e-06
-1.64401e-07
-1.94769e-06
-2.87618e-07
-1.91393e-06
-4.09742e-07
-1.86943e-06
-5.29931e-07
-1.81424e-06
-6.47218e-07
-1.74847e-06
-7.60482e-07
-1.67234e-06
-8.68433e-07
-1.58622e-06
-9.69594e-07
-1.49062e-06
-1.0623e-06
-1.38622e-06
-1.14468e-06
-1.27397e-06
-1.21473e-06
-1.15502e-06
-1.27027e-06
-1.03081e-06
-1.30904e-06
-9.03094e-07
-1.32874e-06
-7.73886e-07
-1.32714e-06
-6.45517e-07
-1.30211e-06
-5.20589e-07
-1.25176e-06
-4.01957e-07
-1.17455e-06
-2.92681e-07
-1.06939e-06
-1.9597e-07
-9.35735e-07
-1.15111e-07
-7.73699e-07
-5.33915e-08
-5.841e-07
-1.40168e-08
-3.68503e-07
-1.29416e-07
-1.49945e-08
1.45068e-07
-5.67608e-08
4.09771e-07
-1.21809e-07
6.45675e-07
-2.06535e-07
8.50798e-07
-3.07343e-07
1.0242e-06
-4.20727e-07
1.16573e-06
-5.43348e-07
1.27594e-06
-6.72093e-07
1.35602e-06
-8.04122e-07
1.40762e-06
-9.36894e-07
1.43277e-06
-1.06818e-06
1.43375e-06
-1.19607e-06
1.41297e-06
-1.31894e-06
1.37287e-06
-1.43547e-06
1.31584e-06
-1.54457e-06
1.24417e-06
-1.64539e-06
1.15997e-06
-1.73727e-06
1.06517e-06
-1.81971e-06
9.61505e-07
-1.89233e-06
8.50487e-07
-1.95486e-06
7.33429e-07
-2.00708e-06
6.11464e-07
-2.04885e-06
4.85559e-07
-2.08004e-06
3.56552e-07
-2.10053e-06
2.25176e-07
-2.11022e-06
9.20987e-08
-2.109e-06
-4.20465e-08
-2.09678e-06
-1.76621e-07
-2.07346e-06
-3.10945e-07
-2.03894e-06
-4.44263e-07
-1.99316e-06
-5.75704e-07
-1.93613e-06
-7.04254e-07
-1.86789e-06
-8.28722e-07
-1.7886e-06
-9.47716e-07
-1.69857e-06
-1.05963e-06
-1.59825e-06
-1.16262e-06
-1.48831e-06
-1.25462e-06
-1.36966e-06
-1.33338e-06
-1.2435e-06
-1.39643e-06
-1.11131e-06
-1.44122e-06
-9.74928e-07
-1.46512e-06
-8.36529e-07
-1.46554e-06
-6.98625e-07
-1.44001e-06
-5.6406e-07
-1.38632e-06
-4.35968e-07
-1.30264e-06
-3.17729e-07
-1.18763e-06
-2.12899e-07
-1.04057e-06
-1.25126e-07
-8.61472e-07
-5.80583e-08
-6.51168e-07
-1.52436e-08
-4.11317e-07
-1.44659e-07
-1.62625e-08
1.61331e-07
-6.15305e-08
4.55039e-07
-1.31961e-07
7.16105e-07
-2.23574e-07
9.42411e-07
-3.32394e-07
1.13302e-06
-4.54553e-07
1.28789e-06
-5.86375e-07
1.40777e-06
-7.24452e-07
1.49409e-06
-8.65689e-07
1.54885e-06
-1.00734e-06
1.57442e-06
-1.14703e-06
1.57344e-06
-1.28272e-06
1.54866e-06
-1.41273e-06
1.50288e-06
-1.5357e-06
1.43881e-06
-1.65054e-06
1.35901e-06
-1.75642e-06
1.26585e-06
-1.85272e-06
1.16147e-06
-1.93898e-06
1.04776e-06
-2.01487e-06
9.26385e-07
-2.08019e-06
7.98743e-07
-2.13476e-06
6.66039e-07
-2.17849e-06
5.29283e-07
-2.21127e-06
3.89333e-07
-2.23302e-06
2.46926e-07
-2.24364e-06
1.02723e-07
-2.24303e-06
-4.26579e-08
-2.23106e-06
-1.88592e-07
-2.20759e-06
-3.34411e-07
-2.1725e-06
-4.79358e-07
-2.12566e-06
-6.22549e-07
-2.06698e-06
-7.62931e-07
-1.99645e-06
-8.99249e-07
-1.91415e-06
-1.03001e-06
-1.8203e-06
-1.15348e-06
-1.71528e-06
-1.26763e-06
-1.59972e-06
-1.37018e-06
-1.4745e-06
-1.4586e-06
-1.3408e-06
-1.53013e-06
-1.20017e-06
-1.58185e-06
-1.05454e-06
-1.61076e-06
-9.06223e-07
-1.61386e-06
-7.57938e-07
-1.58829e-06
-6.12789e-07
-1.53147e-06
-4.74231e-07
-1.4412e-06
-3.46008e-07
-1.31585e-06
-2.32077e-07
-1.1545e-06
-1.3651e-07
-9.57039e-07
-6.33815e-08
-7.24297e-07
-1.66489e-08
-4.5805e-07
-1.61308e-07
-1.76997e-08
1.79031e-07
-6.69165e-08
5.04256e-07
-1.43386e-07
7.92575e-07
-2.42686e-07
1.04171e-06
-3.60398e-07
1.25073e-06
-4.92232e-07
1.41972e-06
-6.34129e-07
1.54966e-06
-7.82343e-07
1.64231e-06
-9.33503e-07
1.70001e-06
-1.08464e-06
1.72556e-06
-1.2332e-06
1.722e-06
-1.37706e-06
1.69252e-06
-1.51445e-06
1.64028e-06
-1.64401e-06
1.56837e-06
-1.76465e-06
1.47965e-06
-1.87559e-06
1.37678e-06
-1.97624e-06
1.26212e-06
-2.06623e-06
1.13775e-06
-2.14529e-06
1.00545e-06
-2.21329e-06
8.66739e-07
-2.27012e-06
7.22873e-07
-2.31574e-06
5.749e-07
-2.35009e-06
4.23685e-07
-2.37312e-06
2.69955e-07
-2.38475e-06
1.14347e-07
-2.38485e-06
-4.25512e-08
-2.3733e-06
-2.00148e-07
-2.3499e-06
-3.57804e-07
-2.31448e-06
-5.1478e-07
-2.26684e-06
-6.70192e-07
-2.20681e-06
-8.22964e-07
-2.13427e-06
-9.71786e-07
-2.04921e-06
-1.11508e-06
-1.95173e-06
-1.25095e-06
-1.84215e-06
-1.37722e-06
-1.72099e-06
-1.49134e-06
-1.58908e-06
-1.59051e-06
-1.44761e-06
-1.6716e-06
-1.29815e-06
-1.73131e-06
-1.1427e-06
-1.76621e-06
-9.83732e-07
-1.77283e-06
-8.2418e-07
-1.74785e-06
-6.67437e-07
-1.68821e-06
-5.17313e-07
-1.59132e-06
-3.77972e-07
-1.45519e-06
-2.53835e-07
-1.27863e-06
-1.49473e-07
-1.0614e-06
-6.94649e-08
-8.04305e-07
-1.82619e-08
-5.09253e-07
-1.7957e-07
-1.93315e-08
1.98362e-07
-7.30066e-08
5.57931e-07
-1.5626e-07
8.75828e-07
-2.64143e-07
1.14959e-06
-3.91719e-07
1.37831e-06
-5.34208e-07
1.56221e-06
-6.87113e-07
1.70257e-06
-8.46307e-07
1.8015e-06
-1.00811e-06
1.86181e-06
-1.16931e-06
1.88676e-06
-1.32718e-06
1.87988e-06
-1.47949e-06
1.84483e-06
-1.62444e-06
1.78523e-06
-1.76063e-06
1.70455e-06
-1.88702e-06
1.60604e-06
-2.00288e-06
1.49264e-06
-2.10772e-06
1.36696e-06
-2.20123e-06
1.23126e-06
-2.28325e-06
1.08748e-06
-2.35373e-06
9.37216e-07
-2.41265e-06
7.81794e-07
-2.46003e-06
6.22279e-07
-2.49587e-06
4.5953e-07
-2.52017e-06
2.94247e-07
-2.53284e-06
1.27023e-07
-2.53379e-06
-4.16042e-08
-2.52284e-06
-2.11098e-07
-2.49977e-06
-3.80869e-07
-2.46434e-06
-5.50217e-07
-2.41625e-06
-7.18277e-07
-2.35525e-06
-8.83968e-07
-2.2811e-06
-1.04594e-06
-2.19365e-06
-1.20253e-06
-2.09289e-06
-1.35171e-06
-1.979e-06
-1.49111e-06
-1.8524e-06
-1.61794e-06
-1.71386e-06
-1.72905e-06
-1.56449e-06
-1.82097e-06
-1.40588e-06
-1.88992e-06
-1.24011e-06
-1.93198e-06
-1.06978e-06
-1.94315e-06
-8.98069e-07
-1.91956e-06
-7.28673e-07
-1.85761e-06
-5.65803e-07
-1.75419e-06
-4.14101e-07
-1.60689e-06
-2.78529e-07
-1.4142e-06
-1.64242e-07
-1.17569e-06
-7.64237e-08
-8.92123e-07
-2.01155e-08
-5.65561e-07
-1.99686e-07
-2.11859e-08
2.19548e-07
-7.98979e-08
6.16643e-07
-1.70771e-07
9.66702e-07
-2.88234e-07
1.26706e-06
-4.26739e-07
1.51681e-06
-5.80939e-07
1.71641e-06
-7.4583e-07
1.86746e-06
-9.16858e-07
1.97253e-06
-1.09e-06
2.03495e-06
-1.26178e-06
2.05854e-06
-1.42932e-06
2.04742e-06
-1.59027e-06
2.00578e-06
-1.7428e-06
1.93775e-06
-1.88552e-06
1.84728e-06
-2.01746e-06
1.73799e-06
-2.13797e-06
1.61315e-06
-2.24666e-06
1.47565e-06
-2.34335e-06
1.32795e-06
-2.42799e-06
1.17212e-06
-2.50063e-06
1.00986e-06
-2.56136e-06
8.42527e-07
-2.61029e-06