/*--------------------------------*- C++ -*----------------------------------*\
  =========                 |
  \\      /  F ield         | OpenFOAM: The Open Source CFD Toolbox
   \\    /   O peration     | Website:  https://openfoam.org
    \\  /    A nd           | Version:  7
     \\/     M anipulation  |
\*---------------------------------------------------------------------------*/
FoamFile
{
    version     2.0;
    format      ascii;
    class       volVectorField;
    location    "0.0312";
    object      U;
}
// * * * * * * * * * * * * * * * * * * * * * * * * * * * * * * * * * * * * * //

dimensions      [0 1 -1 0 0 0 0];

internalField   nonuniform List<vector> 
2500
(
(2.54713e-05 -2.56001e-05 0)
(7.29649e-05 -2.83978e-05 0)
(9.10333e-05 -1.09387e-05 0)
(4.98447e-05 1.22845e-05 0)
(-5.90699e-05 3.49003e-05 0)
(-0.000232522 5.55757e-05 0)
(-0.000462513 7.30818e-05 0)
(-0.000740907 8.72519e-05 0)
(-0.00105858 9.82317e-05 0)
(-0.00140636 0.00010623 0)
(-0.00177544 0.000111474 0)
(-0.00215745 0.000114191 0)
(-0.0025446 0.000114603 0)
(-0.00292966 0.000112924 0)
(-0.00330598 0.000109357 0)
(-0.00366755 0.000104097 0)
(-0.00400892 9.73283e-05 0)
(-0.00432522 8.92236e-05 0)
(-0.00461214 7.99478e-05 0)
(-0.00486592 6.96577e-05 0)
(-0.00508329 5.85027e-05 0)
(-0.00526153 4.6627e-05 0)
(-0.00539838 3.41713e-05 0)
(-0.00549211 2.12749e-05 0)
(-0.00554144 8.07752e-06 0)
(-0.00554563 -5.27879e-06 0)
(-0.0055044 -1.86476e-05 0)
(-0.00541803 -3.18764e-05 0)
(-0.00528734 -4.48056e-05 0)
(-0.00511368 -5.72671e-05 0)
(-0.00489903 -6.90839e-05 0)
(-0.00464596 -8.00701e-05 0)
(-0.00435768 -9.00309e-05 0)
(-0.00403808 -9.87642e-05 0)
(-0.00369168 -0.000106062 0)
(-0.00332373 -0.00011171 0)
(-0.0029401 -0.000115495 0)
(-0.00254738 -0.000117201 0)
(-0.00215276 -0.000116617 0)
(-0.00176405 -0.000113536 0)
(-0.00138957 -0.000107758 0)
(-0.00103811 -9.90967e-05 0)
(-0.000718767 -8.73837e-05 0)
(-0.000440796 -7.24879e-05 0)
(-0.000213207 -5.43685e-05 0)
(-4.40191e-05 -3.32792e-05 0)
(5.98956e-05 -1.03001e-05 0)
(9.63011e-05 1.26589e-05 0)
(7.44093e-05 2.92775e-05 0)
(2.54716e-05 2.54155e-05 0)
(2.87216e-05 -7.33644e-05 0)
(5.46903e-05 -5.3876e-05 0)
(-1.31405e-05 4.0064e-05 0)
(-0.000219105 0.000160076 0)
(-0.000578827 0.000282505 0)
(-0.00108935 0.000397063 0)
(-0.00173757 0.000497566 0)
(-0.00250555 0.000581549 0)
(-0.00337255 0.000648311 0)
(-0.0043167 0.000697996 0)
(-0.00531611 0.000731216 0)
(-0.00634948 0.000748847 0)
(-0.00739647 0.000751914 0)
(-0.00843799 0.000741516 0)
(-0.00945632 0.000718785 0)
(-0.0104352 0.000684858 0)
(-0.0113598 0.000640857 0)
(-0.0122169 0.000587878 0)
(-0.0129946 0.00052699 0)
(-0.0136825 0.000459229 0)
(-0.0142718 0.000385603 0)
(-0.0147547 0.000307098 0)
(-0.0151253 0.000224685 0)
(-0.0153787 0.000139332 0)
(-0.0155114 5.20101e-05 0)
(-0.0155215 -3.62952e-05 0)
(-0.0154084 -0.000124573 0)
(-0.0151728 -0.000211778 0)
(-0.0148171 -0.000296827 0)
(-0.0143452 -0.000378592 0)
(-0.0137627 -0.000455897 0)
(-0.0130766 -0.000527523 0)
(-0.0122959 -0.000592211 0)
(-0.0114311 -0.000648671 0)
(-0.0104947 -0.000695596 0)
(-0.00950081 -0.000731676 0)
(-0.00846526 -0.000755624 0)
(-0.00740561 -0.000766194 0)
(-0.00634092 -0.000762221 0)
(-0.00529162 -0.00074265 0)
(-0.00427924 -0.000706595 0)
(-0.00332607 -0.000653403 0)
(-0.00245465 -0.000582777 0)
(-0.00168706 -0.000494968 0)
(-0.00104376 -0.000391148 0)
(-0.000541906 -0.000274239 0)
(-0.000192997 -0.000150584 0)
(1.78638e-06 -3.1523e-05 0)
(6.03125e-05 5.93281e-05 0)
(2.96336e-05 7.44459e-05 0)
(1.22535e-05 -9.27202e-05 0)
(-3.61971e-05 1.29057e-05 0)
(-0.000253185 0.000258034 0)
(-0.000672873 0.00055833 0)
(-0.00130895 0.000867916 0)
(-0.00215771 0.00116058 0)
(-0.00320263 0.00142119 0)
(-0.00441949 0.00164192 0)
(-0.00577962 0.0018193 0)
(-0.00725206 0.00195243 0)
(-0.00880517 0.00204198 0)
(-0.0104076 0.00208962 0)
(-0.0120292 0.00209764 0)
(-0.0136411 0.00206867 0)
(-0.0152166 0.00200558 0)
(-0.0167307 0.00191134 0)
(-0.0181607 0.00178892 0)
(-0.0194863 0.00164132 0)
(-0.020689 0.00147147 0)
(-0.0217528 0.00128226 0)
(-0.0226639 0.00107651 0)
(-0.0234104 0.000857017 0)
(-0.023983 0.000626539 0)
(-0.024374 0.000387825 0)
(-0.0245783 0.000143644 0)
(-0.0245929 -0.000103196 0)
(-0.0244167 -0.000349823 0)
(-0.0240512 -0.000593279 0)
(-0.0235002 -0.000830508 0)
(-0.0227698 -0.00105834 0)
(-0.0218686 -0.0012735 0)
(-0.0208078 -0.0014726 0)
(-0.0196011 -0.00165216 0)
(-0.0182649 -0.00180867 0)
(-0.0168183 -0.00193856 0)
(-0.0152831 -0.00203833 0)
(-0.0136833 -0.00210456 0)
(-0.0120457 -0.00213403 0)
(-0.010399 -0.00212379 0)
(-0.00877367 -0.00207133 0)
(-0.00720182 -0.00197472 0)
(-0.00571609 -0.00183287 0)
(-0.00434904 -0.00164587 0)
(-0.00313195 -0.00141559 0)
(-0.00209315 -0.00114662 0)
(-0.00125573 -0.000847888 0)
(-0.000634356 -0.000535543 0)
(-0.000230361 -0.000236873 0)
(-2.68742e-05 2.02504e-06 0)
(1.40572e-05 9.77048e-05 0)
(-9.73609e-06 -5.48683e-05 0)
(-0.000152987 0.000215356 0)
(-0.000549687 0.000676603 0)
(-0.00121003 0.00121695 0)
(-0.00213859 0.00177001 0)
(-0.003328 0.0022939 0)
(-0.0047575 0.00276294 0)
(-0.00639756 0.0031625 0)
(-0.00821329 0.00348509 0)
(-0.0101668 0.00372792 0)
(-0.0122188 0.00389124 0)
(-0.0143302 0.00397734 0)
(-0.0164628 0.00398984 0)
(-0.0185801 0.00393321 0)
(-0.0206477 0.00381247 0)
(-0.0226336 0.00363294 0)
(-0.0245084 0.0034001 0)
(-0.0262457 0.00311946 0)
(-0.0278216 0.00279651 0)
(-0.0292153 0.00243671 0)
(-0.0304085 0.00204541 0)
(-0.031386 0.00162792 0)
(-0.0321354 0.00118954 0)
(-0.0326469 0.000735522 0)
(-0.0329138 0.000271179 0)
(-0.032932 -0.000198106 0)
(-0.0327005 -0.000666836 0)
(-0.0322212 -0.00112936 0)
(-0.0314991 -0.00157985 0)
(-0.0305421 -0.00201229 0)
(-0.0293617 -0.00242048 0)
(-0.0279723 -0.00279802 0)
(-0.0263921 -0.00313841 0)
(-0.0246422 -0.00343506 0)
(-0.0227474 -0.00368137 0)
(-0.0207358 -0.00387088 0)
(-0.0186384 -0.00399738 0)
(-0.0164894 -0.00405507 0)
(-0.0143255 -0.0040388 0)
(-0.0121855 -0.00394431 0)
(-0.0101097 -0.00376861 0)
(-0.00813899 -0.00351042 0)
(-0.00631369 -0.00317085 0)
(-0.00467223 -0.0027544 0)
(-0.00324914 -0.00227042 0)
(-0.00207273 -0.00173549 0)
(-0.00116166 -0.00117714 0)
(-0.00052049 -0.000638774 0)
(-0.000140822 -0.000187512 0)
(-7.35647e-06 6.53276e-05 0)
(-3.14602e-05 4.87139e-05 0)
(-0.000274753 0.000571253 0)
(-0.000863518 0.00131392 0)
(-0.00177676 0.00214735 0)
(-0.00300553 0.00298917 0)
(-0.00453606 0.00378411 0)
(-0.00634192 0.00449636 0)
(-0.00838798 0.00510421 0)
(-0.0106337 0.0055957 0)
(-0.0130353 0.00596559 0)
(-0.0155472 0.00621336 0)
(-0.0181239 0.0063417 0)
(-0.0207207 0.00635557 0)
(-0.0232947 0.0062614 0)
(-0.0258052 0.00606662 0)
(-0.0282144 0.00577929 0)
(-0.0304874 0.0054078 0)
(-0.0325925 0.00496068 0)
(-0.0345014 0.00444653 0)
(-0.0361889 0.00387391 0)
(-0.0376333 0.0032513 0)
(-0.0388164 0.00258714 0)
(-0.0397231 0.00188981 0)
(-0.040342 0.00116772 0)
(-0.0406647 0.000429322 0)
(-0.0406866 -0.000316792 0)
(-0.0404064 -0.00106187 0)
(-0.0398265 -0.00179691 0)
(-0.0389527 -0.00251269 0)
(-0.0377949 -0.00319965 0)
(-0.0363666 -0.003848 0)
(-0.0346852 -0.0044477 0)
(-0.0327724 -0.00498851 0)
(-0.0306535 -0.00546013 0)
(-0.028358 -0.00585233 0)
(-0.0259192 -0.00615511 0)
(-0.0233741 -0.00635896 0)
(-0.020763 -0.0064551 0)
(-0.0181292 -0.00643589 0)
(-0.0155184 -0.0062952 0)
(-0.0129775 -0.00602902 0)
(-0.0105544 -0.00563614 0)
(-0.00829586 -0.00511913 0)
(-0.00624643 -0.0044857 0)
(-0.00444641 -0.00375061 0)
(-0.00292966 -0.00293848 0)
(-0.00172035 -0.00208786 0)
(-0.000829127 -0.00125635 0)
(-0.000260514 -0.000527711 0)
(-2.88084e-05 -3.11976e-05 0)
(-5.17765e-05 0.000216726 0)
(-0.000393507 0.0010834 0)
(-0.00117529 0.00217608 0)
(-0.00234386 0.00335597 0)
(-0.00387429 0.00452944 0)
(-0.00574427 0.00563067 0)
(-0.00792018 0.00661514 0)
(-0.0103605 0.0074546 0)
(-0.013019 0.00813269 0)
(-0.0158462 0.00864168 0)
(-0.018791 0.00898011 0)
(-0.0218022 0.00915105 0)
(-0.0248297 0.00916077 0)
(-0.0278251 0.00901783 0)
(-0.0307425 0.00873229 0)
(-0.0335391 0.00831521 0)
(-0.0361754 0.00777826 0)
(-0.0386153 0.00713343 0)
(-0.0408266 0.00639285 0)
(-0.0427808 0.00556866 0)
(-0.044453 0.00467295 0)
(-0.0458224 0.00371778 0)
(-0.046872 0.00271516 0)
(-0.0475884 0.00167714 0)
(-0.0479624 0.000615861 0)
(-0.0479886 -0.000456352 0)
(-0.0476654 -0.00152694 0)
(-0.0469956 -0.00258303 0)
(-0.045986 -0.0036114 0)
(-0.0446476 -0.00459842 0)
(-0.0429958 -0.00553012 0)
(-0.0410507 -0.00639221 0)
(-0.0388365 -0.0071702 0)
(-0.0363823 -0.00784952 0)
(-0.0337215 -0.00841575 0)
(-0.0308919 -0.0088549 0)
(-0.0279352 -0.0091537 0)
(-0.0248972 -0.00930009 0)
(-0.0218267 -0.00928365 0)
(-0.0187751 -0.00909626 0)
(-0.0157954 -0.00873287 0)
(-0.0129414 -0.00819241 0)
(-0.0102657 -0.00747913 0)
(-0.00781885 -0.0066041 0)
(-0.00564708 -0.00558753 0)
(-0.00379064 -0.00446164 0)
(-0.00228078 -0.0032748 0)
(-0.00113635 -0.00209616 0)
(-0.000377144 -0.00102168 0)
(-4.86528e-05 -0.000190798 0)
(-7.00586e-05 0.000444731 0)
(-0.000505766 0.00174796 0)
(-0.00147642 0.00326127 0)
(-0.0028975 0.00484204 0)
(-0.00472735 0.00638952 0)
(-0.00693378 0.00783017 0)
(-0.00947477 0.00911259 0)
(-0.0123016 0.010203 0)
(-0.0153617 0.0110813 0)
(-0.0185999 0.0117375 0)
(-0.0219597 0.0121693 0)
(-0.0253848 0.0123803 0)
(-0.0288201 0.0123783 0)
(-0.0322124 0.012174 0)
(-0.0355113 0.0117805 0)
(-0.0386697 0.011212 0)
(-0.0416442 0.0104838 0)
(-0.044395 0.00961173 0)
(-0.0468866 0.00861179 0)
(-0.0490875 0.00750013 0)
(-0.0509705 0.00629285 0)
(-0.0525123 0.00500603 0)
(-0.0536943 0.00365576 0)
(-0.0545017 0.00225816 0)
(-0.0549242 0.000829501 0)
(-0.0549557 -0.000613734 0)
(-0.0545947 -0.00205472 0)
(-0.0538439 -0.00347624 0)
(-0.0527109 -0.0048606 0)
(-0.0512077 -0.00618964 0)
(-0.0493513 -0.00744471 0)
(-0.0471636 -0.00860681 0)
(-0.0446715 -0.00965665 0)
(-0.0419067 -0.0105749 0)
(-0.0389061 -0.0113426 0)
(-0.0357112 -0.0119413 0)
(-0.0323681 -0.0123535 0)
(-0.028927 -0.0125635 0)
(-0.0254417 -0.0125579 0)
(-0.0219687 -0.0123264 0)
(-0.0185665 -0.0118627 0)
(-0.0152944 -0.0111659 0)
(-0.012211 -0.0102416 0)
(-0.00937293 -0.00910426 0)
(-0.00683286 -0.00777895 0)
(-0.00463842 -0.00630468 0)
(-0.00282918 -0.00473798 0)
(-0.00143357 -0.00315701 0)
(-0.00048745 -0.00166606 0)
(-6.64679e-05 -0.000409543 0)
(-8.65106e-05 0.000728897 0)
(-0.000611244 0.00255911 0)
(-0.00176482 0.00456437 0)
(-0.00343348 0.00660154 0)
(-0.00555906 0.00856584 0)
(-0.00809875 0.0103785 0)
(-0.0110013 0.0119832 0)
(-0.0142099 0.0133418 0)
(-0.0176651 0.0144313 0)
(-0.0213058 0.01524 0)
(-0.0250699 0.0157654 0)
(-0.0288962 0.0160118 0)
(-0.0327248 0.0159887 0)
(-0.0364981 0.0157094 0)
(-0.0401617 0.01519 0)
(-0.0436647 0.0144484 0)
(-0.0469603 0.0135038 0)
(-0.0500055 0.0123761 0)
(-0.0527621 0.0110856 0)
(-0.0551961 0.0096527 0)
(-0.057278 0.00809793 0)
(-0.0589829 0.00644174 0)
(-0.0602904 0.00470461 0)
(-0.0611846 0.0029071 0)
(-0.0616543 0.00106995 0)
(-0.061693 -0.000785807 0)
(-0.0612987 -0.00263873 0)
(-0.0604743 -0.00446688 0)
(-0.0592277 -0.00624771 0)
(-0.057572 -0.00795809 0)
(-0.0555251 -0.00957432 0)
(-0.0531106 -0.0110722 0)
(-0.0503573 -0.0124273 0)
(-0.0472994 -0.0136151 0)
(-0.0439766 -0.0146115 0)
(-0.0404336 -0.0153932 0)
(-0.0367202 -0.0159383 0)
(-0.0328907 -0.016227 0)
(-0.0290035 -0.0162424 0)
(-0.0251199 -0.0159719 0)
(-0.0213037 -0.0154075 0)
(-0.0176198 -0.0145482 0)
(-0.0141329 -0.0134009 0)
(-0.010906 -0.0119825 0)
(-0.00799916 -0.0103225 0)
(-0.00546813 -0.00846539 0)
(-0.00336179 -0.00647444 0)
(-0.00171891 -0.00443447 0)
(-0.000591217 -0.00245536 0)
(-8.24771e-05 -0.00068343 0)
(-0.000101558 0.0010656 0)
(-0.000711024 0.0035109 0)
(-0.00204184 0.00607964 0)
(-0.00395324 0.00862989 0)
(-0.0063711 0.0110549 0)
(-0.00924176 0.0132729 0)
(-0.012504 0.0152238 0)
(-0.0160925 0.0168671 0)
(-0.0199404 0.0181775 0)
(-0.0239799 0.0191426 0)
(-0.0281434 0.0197601 0)
(-0.0323644 0.0200355 0)
(-0.0365784 0.0199805 0)
(-0.0407237 0.0196113 0)
(-0.0447421 0.0189475 0)
(-0.0485794 0.0180109 0)
(-0.0521854 0.0168249 0)
(-0.0555148 0.0154138 0)
(-0.0585267 0.0138026 0)
(-0.061185 0.0120162 0)
(-0.0634585 0.0100798 0)
(-0.0653206 0.00801853 0)
(-0.0667497 0.00585759 0)
(-0.0677288 0.00362223 0)
(-0.068246 0.00133796 0)
(-0.068294 -0.000969377 0)
(-0.0678706 -0.00327342 0)
(-0.0669789 -0.00554719 0)
(-0.0656267 -0.00776298 0)
(-0.0638278 -0.00989237 0)
(-0.0616009 -0.0119062 0)
(-0.0589709 -0.0137748 0)
(-0.0559681 -0.0154681 0)
(-0.0526287 -0.0169559 0)
(-0.0489947 -0.0182088 0)
(-0.0451139 -0.019198 0)
(-0.0410393 -0.0198966 0)
(-0.0368291 -0.0202806 0)
(-0.0325458 -0.0203291 0)
(-0.0282556 -0.0200265 0)
(-0.0240277 -0.0193631 0)
(-0.0199327 -0.018337 0)
(-0.0160417 -0.0169557 0)
(-0.012425 -0.0152382 0)
(-0.00915035 -0.0132173 0)
(-0.00628269 -0.0109422 0)
(-0.0038808 -0.00848098 0)
(-0.00199409 -0.00592375 0)
(-0.000689636 -0.0033841 0)
(-9.71073e-05 -0.00100893 0)
(-0.000115632 0.00145202 0)
(-0.0008067 0.00459845 0)
(-0.00231055 0.00780231 0)
(-0.00446126 0.0109235 0)
(-0.00716948 0.0138545 0)
(-0.0103706 0.016512 0)
(-0.0139931 0.018834 0)
(-0.0179626 0.0207783 0)
(-0.022204 0.0223189 0)
(-0.0266429 0.0234433 0)
(-0.0312054 0.0241502 0)
(-0.0358197 0.024447 0)
(-0.0404166 0.0243482 0)
(-0.0449304 0.0238734 0)
(-0.0492992 0.0230459 0)
(-0.0534656 0.0218919 0)
(-0.0573767 0.0204394 0)
(-0.0609847 0.0187175 0)
(-0.0642466 0.016756 0)
(-0.0671247 0.0145846 0)
(-0.0695859 0.0122337 0)
(-0.0716025 0.00973307 0)
(-0.0731517 0.00711294 0)
(-0.0742156 0.0044035 0)
(-0.0747816 0.00163519 0)
(-0.0748417 -0.00116109 0)
(-0.0743936 -0.00395383 0)
(-0.0734398 -0.00671078 0)
(-0.0719886 -0.00939883 0)
(-0.0700536 -0.011984 0)
(-0.0676546 -0.0144313 0)
(-0.0648169 -0.0167052 0)
(-0.0615722 -0.0187697 0)
(-0.0579584 -0.0205887 0)
(-0.0540195 -0.0221265 0)
(-0.0498059 -0.0233489 0)
(-0.0453736 -0.0242234 0)
(-0.0407844 -0.0247208 0)
(-0.0361051 -0.0248162 0)
(-0.0314068 -0.0244902 0)
(-0.0267641 -0.0237308 0)
(-0.0222538 -0.0225345 0)
(-0.0179541 -0.0209088 0)
(-0.0139428 -0.018874 0)
(-0.0102965 -0.0164652 0)
(-0.00708972 -0.0137351 0)
(-0.0043917 -0.0107559 0)
(-0.0022627 -0.0076214 0)
(-0.000784482 -0.00444815 0)
(-0.000110814 -0.00138345 0)
(-0.000129131 0.00188636 0)
(-0.000900027 0.00581863 0)
(-0.00257477 0.00972954 0)
(-0.00496366 0.0134806 0)
(-0.00796261 0.0169645 0)
(-0.0114961 0.0200971 0)
(-0.0154821 0.0228159 0)
(-0.0198364 0.0250781 0)
(-0.0244757 0.026858 0)
(-0.0293179 0.0281441 0)
(-0.0342829 0.0289371 0)
(-0.0392932 0.0292469 0)
(-0.0442749 0.0290914 0)
(-0.049158 0.0284941 0)
(-0.0538771 0.0274829 0)
(-0.0583717 0.0260886 0)
(-0.0625866 0.0243442 0)
(-0.0664715 0.022284 0)
(-0.0699818 0.0199427 0)
(-0.0730779 0.0173556 0)
(-0.0757259 0.0145577 0)
(-0.0778966 0.0115845 0)
(-0.0795663 0.00847084 0)
(-0.0807165 0.0052522 0)
(-0.0813335 0.00196412 0)
(-0.0814092 -0.00135732 0)
(-0.0809405 -0.00467532 0)
(-0.0799297 -0.00795218 0)
(-0.0783848 -0.0111492 0)
(-0.0763197 -0.0142264 0)
(-0.0737542 -0.0171431 0)
(-0.0707143 -0.0198573 0)
(-0.0672325 -0.0223267 0)
(-0.0633481 -0.0245088 0)
(-0.0591068 -0.0263615 0)
(-0.0545612 -0.0278441 0)
(-0.0497703 -0.0289184 0)
(-0.0447995 -0.0295493 0)
(-0.0397197 -0.029707 0)
(-0.0346071 -0.0293678 0)
(-0.029542 -0.0285164 0)
(-0.0246081 -0.0271472 0)
(-0.0198908 -0.0252669 0)
(-0.0154765 -0.0228959 0)
(-0.0114512 -0.020071 0)
(-0.00789956 -0.0168472 0)
(-0.00490185 -0.0133 0)
(-0.00252924 -0.00952635 0)
(-0.00087775 -0.0056454 0)
(-0.000124032 -0.0018055 0)
(-0.000142409 0.00236776 0)
(-0.000992758 0.00717028 0)
(-0.00283862 0.0118609 0)
(-0.00546724 0.0163022 0)
(-0.00876012 0.0203873 0)
(-0.0126307 0.0240321 0)
(-0.0169862 0.0271744 0)
(-0.0217323 0.0297721 0)
(-0.0267768 0.0318006 0)
(-0.0320297 0.0332507 0)
(-0.037404 0.0341257 0)
(-0.0428164 0.0344392 0)
(-0.048188 0.0342132 0)
(-0.0534445 0.0334758 0)
(-0.0585171 0.0322598 0)
(-0.0633423 0.0306016 0)
(-0.0678624 0.0285394 0)
(-0.0720254 0.0261129 0)
(-0.0757848 0.0233626 0)
(-0.0791 0.0203289 0)
(-0.0819356 0.0170524 0)
(-0.0842618 0.0135737 0)
(-0.0860541 0.00993296 0)
(-0.087293 0.0061708 0)
(-0.0879644 0.00232799 0)
(-0.0880594 -0.00155412 0)
(-0.0875745 -0.00543333 0)
(-0.0865115 -0.00926638 0)
(-0.0848781 -0.0130088 0)
(-0.0826878 -0.0166146 0)
(-0.0799604 -0.0200368 0)
(-0.0767221 -0.023227 0)
(-0.0730061 -0.026136 0)
(-0.0688525 -0.0287146 0)
(-0.0643085 -0.0309136 0)
(-0.0594289 -0.0326856 0)
(-0.0542753 -0.0339853 0)
(-0.0489166 -0.0347717 0)
(-0.0434282 -0.0350088 0)
(-0.0378913 -0.0346682 0)
(-0.0323925 -0.03373 0)
(-0.0270225 -0.0321859 0)
(-0.021875 -0.0300405 0)
(-0.0170454 -0.0273137 0)
(-0.0126299 -0.0240429 0)
(-0.00872403 -0.0202848 0)
(-0.00541948 -0.0161173 0)
(-0.00279858 -0.0116405 0)
(-0.000971474 -0.00697609 0)
(-0.00013716 -0.00227467 0)
(-0.000155785 0.00289633 0)
(-0.00108658 0.00865426 0)
(-0.00310623 0.0141986 0)
(-0.00597902 0.0193921 0)
(-0.00957206 0.0241285 0)
(-0.0137876 0.028324 0)
(-0.0185217 0.0319176 0)
(-0.0236696 0.0348688 0)
(-0.0291294 0.0371555 0)
(-0.034803 0.0387715 0)
(-0.0405962 0.039724 0)
(-0.0464195 0.0400311 0)
(-0.0521886 0.0397197 0)
(-0.0578252 0.0388234 0)
(-0.0632567 0.0373808 0)
(-0.068417 0.0354341 0)
(-0.073246 0.0330274 0)
(-0.07769 0.0302065 0)
(-0.0817012 0.0270175 0)
(-0.0852377 0.0235065 0)
(-0.0882635 0.0197197 0)
(-0.0907478 0.015703 0)
(-0.0926655 0.0115021 0)
(-0.0939966 0.00716263 0)
(-0.0947263 0.00273066 0)
(-0.0948451 -0.00174714 0)
(-0.0943488 -0.00622317 0)
(-0.0932386 -0.0106485 0)
(-0.0915215 -0.0149729 0)
(-0.0892107 -0.0191442 0)
(-0.0863254 -0.0231088 0)
(-0.0828919 -0.0268116 0)
(-0.0789434 -0.0301964 0)
(-0.0745207 -0.0332064 0)
(-0.0696723 -0.0357852 0)
(-0.0644547 -0.0378775 0)
(-0.0589321 -0.0394308 0)
(-0.0531768 -0.0403967 0)
(-0.0472686 -0.0407326 0)
(-0.0412944 -0.0404038 0)
(-0.0353471 -0.0393854 0)
(-0.0295251 -0.037665 0)
(-0.023931 -0.0352441 0)
(-0.0186701 -0.0321411 0)
(-0.0138491 -0.0283932 0)
(-0.00957564 -0.0240581 0)
(-0.00595319 -0.0192157 0)
(-0.0030757 -0.0139689 0)
(-0.00106766 -0.00844288 0)
(-0.000150565 -0.00279165 0)
(-0.000169541 0.00347302 0)
(-0.00118308 0.0102735 0)
(-0.00338159 0.0167475 0)
(-0.00650592 0.0227572 0)
(-0.0104085 0.0281965 0)
(-0.01498 0.0329827 0)
(-0.0201048 0.0370565 0)
(-0.0256671 0.0403799 0)
(-0.0315552 0.0429343 0)
(-0.0376621 0.0447177 0)
(-0.0438859 0.0457423 0)
(-0.0501308 0.0460318 0)
(-0.056307 0.0456191 0)
(-0.0623318 0.044544 0)
(-0.0681293 0.0428518 0)
(-0.0736304 0.040591 0)
(-0.0787731 0.0378125 0)
(-0.0835021 0.0345682 0)
(-0.0877685 0.0309104 0)
(-0.0915295 0.0268913 0)
(-0.0947485 0.0225627 0)
(-0.0973942 0.0179758 0)
(-0.0994409 0.0131819 0)
(-0.100868 0.00823172 0)
(-0.101661 0.0031766 0)
(-0.101808 -0.00193158 0)
(-0.101306 -0.0070398 0)
(-0.100154 -0.0120936 0)
(-0.0983582 -0.0170367 0)
(-0.0959317 -0.0218108 0)
(-0.0928927 -0.0263556 0)
(-0.0892671 -0.030609 0)
(-0.0850878 -0.0345072 0)
(-0.0803958 -0.0379857 0)
(-0.0752405 -0.0409798 0)
(-0.0696799 -0.043426 0)
(-0.0637807 -0.0452634 0)
(-0.0576185 -0.0464353 0)
(-0.0512776 -0.0468915 0)
(-0.0448505 -0.04659 0)
(-0.0384372 -0.0454995 0)
(-0.0321442 -0.0436022 0)
(-0.0260836 -0.0408958 0)
(-0.0203712 -0.0373958 0)
(-0.0151258 -0.0331383 0)
(-0.0104671 -0.0281813 0)
(-0.00651165 -0.0226067 0)
(-0.00336556 -0.0165202 0)
(-0.00116823 -0.0100509 0)
(-0.000164586 -0.00335819 0)
(-0.000183933 0.0040996 0)
(-0.00128374 0.0120328 0)
(-0.00366849 0.0195151 0)
(-0.00705458 0.0264073 0)
(-0.011279 0.0326032 0)
(-0.0162205 0.0380213 0)
(-0.021751 0.0426048 0)
(-0.0277431 0.0463193 0)
(-0.0340747 0.0491507 0)
(-0.0406294 0.0511025 0)
(-0.0472974 0.0521929 0)
(-0.0539759 0.0524524 0)
(-0.0605699 0.0519209 0)
(-0.0669919 0.0506458 0)
(-0.0731628 0.0486796 0)
(-0.0790109 0.0460781 0)
(-0.0844723 0.0428993 0)
(-0.0894904 0.039202 0)
(-0.0940154 0.035045 0)
(-0.0980041 0.0304866 0)
(-0.101419 0.0255845 0)
(-0.10423 0.0203956 0)
(-0.106409 0.0149762 0)
(-0.107937 0.00938247 0)
(-0.108797 0.00367068 0)
(-0.108978 -0.00210212 0)
(-0.108475 -0.00787765 0)
(-0.107288 -0.0135959 0)
(-0.10542 -0.0191947 0)
(-0.102884 -0.0246096 0)
(-0.099696 -0.0297734 0)
(-0.0958821 -0.0346166 0)
(-0.0914743 -0.0390677 0)
(-0.0865134 -0.0430538 0)
(-0.0810491 -0.0465012 0)
(-0.0751406 -0.0493375 0)
(-0.0688569 -0.0514924 0)
(-0.0622768 -0.0529 0)
(-0.055489 -0.0535008 0)
(-0.0485919 -0.0532445 0)
(-0.0416928 -0.052092 0)
(-0.0349071 -0.0500188 0)
(-0.0283569 -0.0470173 0)
(-0.0221695 -0.0430992 0)
(-0.0164764 -0.0382985 0)
(-0.0114109 -0.0326729 0)
(-0.00710339 -0.0263057 0)
(-0.00367296 -0.019306 0)
(-0.00127505 -0.0118078 0)
(-0.000179537 -0.00397699 0)
(-0.000199194 0.00477856 0)
(-0.00138993 0.0139387 0)
(-0.0039705 0.0225116 0)
(-0.0076313 0.0303551 0)
(-0.012193 0.0373631 0)
(-0.0175212 0.0434558 0)
(-0.0234751 0.0485793 0)
(-0.0299149 0.0527037 0)
(-0.0367071 0.0558208 0)
(-0.0437256 0.0579406 0)
(-0.0508522 0.059089 0)
(-0.0579771 0.0593044 0)
(-0.0649995 0.0586352 0)
(-0.0718278 0.0571371 0)
(-0.0783792 0.0548709 0)
(-0.0845798 0.0519007 0)
(-0.0903641 0.0482922 0)
(-0.0956746 0.0441115 0)
(-0.100461 0.0394243 0)
(-0.10468 0.0342954 0)
(-0.108294 0.0287884 0)
(-0.111271 0.0229658 0)
(-0.113587 0.0168891 0)
(-0.115219 0.0106195 0)
(-0.116151 0.00421813 0)
(-0.116372 -0.00225296 0)
(-0.115876 -0.00873045 0)
(-0.114659 -0.015149 0)
(-0.112726 -0.0214406 0)
(-0.110087 -0.0275346 0)
(-0.106757 -0.033357 0)
(-0.102761 -0.0388307 0)
(-0.0981283 -0.043876 0)
(-0.0929003 -0.048411 0)
(-0.0871264 -0.0523526 0)
(-0.0808664 -0.0556183 0)
(-0.074191 -0.0581274 0)
(-0.0671822 -0.0598035 0)
(-0.0599332 -0.0605766 0)
(-0.0525482 -0.0603864 0)
(-0.0451422 -0.0591847 0)
(-0.0378398 -0.0569386 0)
(-0.030774 -0.0536336 0)
(-0.0240849 -0.0492766 0)
(-0.0179173 -0.0438982 0)
(-0.0124194 -0.0375552 0)
(-0.0077367 -0.0303321 0)
(-0.00400259 -0.0223417 0)
(-0.00138992 -0.0137234 0)
(-0.000195717 -0.00465173 0)
(-0.000215539 0.0055131 0)
(-0.00150294 0.0159998 0)
(-0.00429097 0.0257492 0)
(-0.00824198 0.0346161 0)
(-0.0131589 0.0424939 0)
(-0.0188935 0.0493048 0)
(-0.0252908 0.0549987 0)
(-0.0321978 0.0595514 0)
(-0.0394691 0.0629617 0)
(-0.0469684 0.0652478 0)
(-0.0545684 0.0664446 0)
(-0.0621522 0.0665999 0)
(-0.0696133 0.0657717 0)
(-0.0768556 0.0640256 0)
(-0.0837933 0.0614317 0)
(-0.0903503 0.0580632 0)
(-0.09646 0.0539942 0)
(-0.102064 0.0492989 0)
(-0.107113 0.0440501 0)
(-0.111562 0.0383194 0)
(-0.115376 0.0321764 0)
(-0.118522 0.025689 0)
(-0.120976 0.0189239 0)
(-0.122716 0.0119471 0)
(-0.123726 0.0048243 0)
(-0.123993 -0.00237781 0)
(-0.123509 -0.00959112 0)
(-0.122271 -0.0167452 0)
(-0.120282 -0.0237666 0)
(-0.117549 -0.0305783 0)
(-0.114086 -0.0370996 0)
(-0.109915 -0.0432456 0)
(-0.105064 -0.0489281 0)
(-0.0995736 -0.0540558 0)
(-0.0934916 -0.0585353 0)
(-0.0868786 -0.062273 0)
(-0.0798064 -0.0651767 0)
(-0.0723597 -0.067158 0)
(-0.0646359 -0.0681351 0)
(-0.0567452 -0.0680358 0)
(-0.0488104 -0.0668008 0)
(-0.0409661 -0.0643873 0)
(-0.0333569 -0.0607725 0)
(-0.0261362 -0.0559564 0)
(-0.0194639 -0.0499654 0)
(-0.0135044 -0.0428544 0)
(-0.00841963 -0.034709 0)
(-0.00435896 -0.0256454 0)
(-0.00151455 -0.0158099 0)
(-0.000213412 -0.00538699 0)
(-0.000233169 0.00630707 0)
(-0.00162398 0.018226 0)
(-0.00463304 0.0292428 0)
(-0.00889211 0.0392083 0)
(-0.0141847 0.0480156 0)
(-0.0203475 0.0555892 0)
(-0.0272102 0.0618838 0)
(-0.0346055 0.0668822 0)
(-0.0423754 0.0705916 0)
(-0.0503724 0.0730401 0)
(-0.0584602 0.0742731 0)
(-0.0665143 0.0743495 0)
(-0.0744225 0.0733387 0)
(-0.0820845 0.0713171 0)
(-0.0894116 0.0683657 0)
(-0.0963262 0.0645675 0)
(-0.102761 0.0600062 0)
(-0.108657 0.0547642 0)
(-0.113966 0.0489223 0)
(-0.118644 0.0425586 0)
(-0.122656 0.0357489 0)
(-0.125971 0.0285666 0)
(-0.128565 0.0210832 0)
(-0.130415 0.0133691 0)
(-0.131506 0.0054945 0)
(-0.131824 -0.00246992 0)
(-0.131361 -0.0104516 0)
(-0.130112 -0.0183755 0)
(-0.128077 -0.0261628 0)
(-0.125262 -0.0337307 0)
(-0.121677 -0.0409915 0)
(-0.117342 -0.0478527 0)
(-0.112283 -0.0542172 0)
(-0.106538 -0.0599836 0)
(-0.100153 -0.0650476 0)
(-0.0931895 -0.0693036 0)
(-0.0857185 -0.0726465 0)
(-0.0778273 -0.0749742 0)
(-0.0696171 -0.0761914 0)
(-0.0612042 -0.0762121 0)
(-0.0527194 -0.0749641 0)
(-0.0443074 -0.0723925 0)
(-0.0361253 -0.0684638 0)
(-0.0283411 -0.06317 0)
(-0.0211309 -0.0565315 0)
(-0.0146771 -0.0486005 0)
(-0.0091599 -0.0394628 0)
(-0.00474645 -0.0292387 0)
(-0.00165061 -0.0180818 0)
(-0.000232899 -0.00618821 0)
(-0.000252273 0.00716491 0)
(-0.00175418 0.0206286 0)
(-0.00499964 0.0330089 0)
(-0.00958682 0.0441519 0)
(-0.0152778 0.0539504 0)
(-0.0218925 0.0623319 0)
(-0.0292441 0.069257 0)
(-0.0371496 0.0747168 0)
(-0.0454375 0.0787288 0)
(-0.0539486 0.0813328 0)
(-0.062537 0.0825867 0)
(-0.0710706 0.0825624 0)
(-0.0794315 0.081342 0)
(-0.0875155 0.0790148 0)
(-0.0952315 0.0756735 0)
(-0.102501 0.0714125 0)
(-0.109256 0.0663255 0)
(-0.115439 0.0605041 0)
(-0.121002 0.054037 0)
(-0.125903 0.0470096 0)
(-0.130109 0.0395036 0)
(-0.133589 0.0315977 0)
(-0.136321 0.0233678 0)
(-0.138283 0.0148885 0)
(-0.139458 0.0062337 0)
(-0.139834 -0.00252221 0)
(-0.139401 -0.0113029 0)
(-0.138151 -0.020029 0)
(-0.136083 -0.0286172 0)
(-0.133199 -0.0369788 0)
(-0.129507 -0.0450196 0)
(-0.125023 -0.0526394 0)
(-0.119771 -0.0597319 0)
(-0.113784 -0.0661854 0)
(-0.107108 -0.0718838 0)
(-0.0997997 -0.0767081 0)
(-0.0919326 -0.0805391 0)
(-0.0835945 -0.0832596 0)
(-0.0748901 -0.0847584 0)
(-0.0659412 -0.0849338 0)
(-0.0568866 -0.083698 0)
(-0.0478817 -0.0809819 0)
(-0.0390968 -0.0767392 0)
(-0.0307155 -0.0709513 0)
(-0.022932 -0.0636311 0)
(-0.0159482 -0.0548266 0)
(-0.00996492 -0.0446236 0)
(-0.00516929 -0.033146 0)
(-0.00179975 -0.0205556 0)
(-0.000254452 -0.00706172 0)
(-0.000273036 0.00809164 0)
(-0.00189464 0.0232208 0)
(-0.00539355 0.0370664 0)
(-0.0103309 0.0494694 0)
(-0.0164449 0.0603225 0)
(-0.0235369 0.0695572 0)
(-0.0314016 0.0771412 0)
(-0.0398395 0.0830759 0)
(-0.048664 0.0873909 0)
(-0.0577039 0.0901398 0)
(-0.066803 0.0913952 0)
(-0.0758218 0.0912442 0)
(-0.0846368 0.0897837 0)
(-0.0931403 0.0871172 0)
(-0.10124 0.0833511 0)
(-0.108855 0.078592 0)
(-0.115921 0.0729446 0)
(-0.12238 0.0665104 0)
(-0.128186 0.0593866 0)
(-0.1333 0.0516655 0)
(-0.13769 0.0434349 0)
(-0.141329 0.0347785 0)
(-0.144194 0.0257764 0)
(-0.146266 0.0165067 0)
(-0.147529 0.00704624 0)
(-0.147968 -0.00252741 0)
(-0.147572 -0.0121348 0)
(-0.146334 -0.0216932 0)
(-0.144248 -0.0311149 0)
(-0.141313 -0.0403062 0)
(-0.137534 -0.0491667 0)
(-0.132922 -0.0575885 0)
(-0.127497 -0.0654561 0)
(-0.121287 -0.0726469 0)
(-0.114336 -0.0790322 0)
(-0.106697 -0.0844789 0)
(-0.0984427 -0.0888518 0)
(-0.0896611 -0.092017 0)
(-0.0804596 -0.093845 0)
(-0.070965 -0.094216 0)
(-0.0613241 -0.0930241 0)
(-0.051703 -0.0901828 0)
(-0.0422861 -0.0856304 0)
(-0.0332737 -0.0793354 0)
(-0.0248797 -0.0713008 0)
(-0.0173277 -0.061569 0)
(-0.0108418 -0.0502243 0)
(-0.0056316 -0.0373945 0)
(-0.00196356 -0.0232498 0)
(-0.000278344 -0.00801467 0)
(-0.000295641 0.00909284 0)
(-0.0020464 0.0260166 0)
(-0.00581744 0.0414355 0)
(-0.0111288 0.0551848 0)
(-0.017692 0.0671577 0)
(-0.0252877 0.0772904 0)
(-0.0336903 0.0855599 0)
(-0.0426818 0.0919794 0)
(-0.0520599 0.0965935 0)
(-0.0616402 0.099472 0)
(-0.0712564 0.100705 0)
(-0.0807612 0.100396 0)
(-0.0900261 0.0986607 0)
(-0.0989404 0.0956176 0)
(-0.10741 0.0913885 0)
(-0.115357 0.0860937 0)
(-0.122716 0.07985 0)
(-0.129433 0.0727692 0)
(-0.135465 0.0649573 0)
(-0.140775 0.0565139 0)
(-0.145336 0.0475327 0)
(-0.149121 0.0381017 0)
(-0.152112 0.0283049 0)
(-0.15429 0.018223 0)
(-0.15564 0.00793545 0)
(-0.156147 -0.0024782 0)
(-0.1558 -0.0129363 0)
(-0.154587 -0.0233532 0)
(-0.152501 -0.0336379 0)
(-0.149537 -0.0436924 0)
(-0.145695 -0.0534105 0)
(-0.140981 -0.0626768 0)
(-0.135409 -0.0713667 0)
(-0.129003 -0.0793465 0)
(-0.121801 -0.0864741 0)
(-0.113854 -0.0926012 0)
(-0.105229 -0.0975751 0)
(-0.0960152 -0.101243 0)
(-0.0863207 -0.103455 0)
(-0.0762769 -0.10407 0)
(-0.0660379 -0.102961 0)
(-0.0557808 -0.10002 0)
(-0.0457045 -0.0951689 0)
(-0.0360276 -0.0883583 0)
(-0.0269851 -0.0795793 0)
(-0.018825 -0.0688661 0)
(-0.0117972 -0.0563007 0)
(-0.00613737 -0.042014 0)
(-0.00214364 -0.0261853 0)
(-0.000304852 -0.00905503 0)
(-0.000320273 0.0101746 0)
(-0.00221052 0.0290316 0)
(-0.00627392 0.0461383 0)
(-0.0119847 0.061324 0)
(-0.0190247 0.0744829 0)
(-0.0271511 0.0855575 0)
(-0.0361159 0.0945357 0)
(-0.0456807 0.101446 0)
(-0.0556265 0.10635 0)
(-0.0657547 0.109336 0)
(-0.0758888 0.110516 0)
(-0.0858739 0.110014 0)
(-0.0955769 0.107963 0)
(-0.104885 0.104502 0)
(-0.113705 0.099768 0)
(-0.121959 0.0938976 0)
(-0.129585 0.0870203 0)
(-0.136534 0.079259 0)
(-0.142766 0.0707288 0)
(-0.148249 0.0615364 0)
(-0.152958 0.0517811 0)
(-0.156874 0.0415551 0)
(-0.159978 0.0309453 0)
(-0.162254 0.0200344 0)
(-0.163689 0.00890318 0)
(-0.164268 -0.00236756 0)
(-0.163978 -0.0136949 0)
(-0.162806 -0.0249918 0)
(-0.160741 -0.0361648 0)
(-0.157774 -0.0471121 0)
(-0.153899 -0.0577227 0)
(-0.149116 -0.0678742 0)
(-0.143433 -0.0774332 0)
(-0.136867 -0.0862543 0)
(-0.129449 -0.094182 0)
(-0.121224 -0.101051 0)
(-0.112256 -0.10669 0)
(-0.102631 -0.110925 0)
(-0.0924572 -0.113584 0)
(-0.0818687 -0.114499 0)
(-0.0710268 -0.113521 0)
(-0.0601192 -0.110517 0)
(-0.0493599 -0.105384 0)
(-0.0389867 -0.0980556 0)
(-0.0292579 -0.0885058 0)
(-0.0204486 -0.0767586 0)
(-0.0128378 -0.0628912 0)
(-0.00669055 -0.047037 0)
(-0.00234159 -0.0293844 0)
(-0.000334264 -0.0101916 0)
(-0.000347131 0.0113437 0)
(-0.00238811 0.0322826 0)
(-0.00676564 0.0511985 0)
(-0.012903 0.0679142 0)
(-0.0204483 0.0823257 0)
(-0.0291324 0.0943838 0)
(-0.0386824 0.10409 0)
(-0.0488377 0.11149 0)
(-0.0593608 0.116668 0)
(-0.0700388 0.119735 0)
(-0.0806843 0.120824 0)
(-0.0911355 0.120084 0)
(-0.101256 0.117672 0)
(-0.110931 0.113745 0)
(-0.120069 0.108462 0)
(-0.128596 0.101974 0)
(-0.136453 0.0944249 0)
(-0.143597 0.0859495 0)
(-0.149994 0.076672 0)
(-0.155617 0.0667066 0)
(-0.160447 0.0561577 0)
(-0.164468 0.0451209 0)
(-0.167666 0.0336851 0)
(-0.170029 0.0219343 0)
(-0.171544 0.00994933 0)
(-0.172197 -0.00218899 0)
(-0.171975 -0.0143979 0)
(-0.170861 -0.0265897 0)
(-0.168841 -0.03867 0)