/*--------------------------------*- C++ -*----------------------------------*\
  =========                 |
  \\      /  F ield         | OpenFOAM: The Open Source CFD Toolbox
   \\    /   O peration     | Website:  https://openfoam.org
    \\  /    A nd           | Version:  7
     \\/     M anipulation  |
\*---------------------------------------------------------------------------*/
FoamFile
{
    version     2.0;
    format      ascii;
    class       volScalarField;
    location    "0.0636";
    object      p;
}
// * * * * * * * * * * * * * * * * * * * * * * * * * * * * * * * * * * * * * //

dimensions      [0 2 -2 0 0 0 0];

internalField   nonuniform List<scalar> 
2500
(
2.11909e-05
6.38535
9.0506
10.1472
10.7409
11.0917
11.3072
11.4491
11.5486
11.6218
11.6777
11.7217
11.7575
11.7875
11.8133
11.8362
11.857
11.8766
11.8952
11.9134
11.9314
11.9495
11.9678
11.9865
12.0057
12.0255
12.0462
12.0678
12.0904
12.1144
12.1399
12.1673
12.1968
12.2291
12.2646
12.3042
12.3488
12.3999
12.4593
12.5295
12.6144
12.7197
12.8548
13.0361
13.2958
13.6976
14.3582
15.5495
18.3308
24.8403
4.86797
7.46784
8.88611
9.77049
10.3752
10.7828
11.059
11.2522
11.3918
11.4957
11.5752
11.6377
11.6881
11.7299
11.7653
11.7961
11.8237
11.8488
11.8723
11.8947
11.9164
11.9378
11.9591
11.9806
12.0024
12.0249
12.0481
12.0724
12.0979
12.1249
12.1538
12.1849
12.2188
12.2561
12.2976
12.3444
12.3977
12.4596
12.5324
12.6197
12.7267
12.861
13.0342
13.2649
13.5833
14.0399
14.7043
15.6611
17.1649
19.8824
7.70298
8.46696
9.21076
9.83514
10.3227
10.686
10.9539
11.1532
11.3035
11.4189
11.5091
11.5811
11.6397
11.6885
11.73
11.7661
11.7982
11.8273
11.8543
11.8798
11.9042
11.9281
11.9517
11.9753
11.9992
12.0236
12.0488
12.0751
12.1027
12.1319
12.1632
12.197
12.234
12.2747
12.3201
12.3715
12.4302
12.4982
12.5783
12.6741
12.7906
12.935
13.1173
13.3519
13.659
14.0664
14.6039
15.2822
16.0803
16.9092
9.11066
9.28844
9.66865
10.0709
10.4216
10.7085
10.9377
11.1189
11.2624
11.3767
11.4687
11.5438
11.606
11.6585
11.7035
11.7429
11.778
11.8099
11.8394
11.8672
11.8937
11.9195
11.945
11.9703
11.9958
12.0218
12.0486
12.0765
12.1057
12.1366
12.1697
12.2055
12.2445
12.2875
12.3354
12.3894
12.4509
12.5219
12.6047
12.7026
12.8198
12.9616
13.1352
13.3492
13.6138
13.9388
14.3295
14.7718
15.1874
15.3961
9.92066
9.90134
10.0786
10.3236
10.5643
10.7803
10.9659
11.1215
11.2505
11.3573
11.4459
11.5201
11.5828
11.6366
11.6833
11.7246
11.7616
11.7954
11.8268
11.8563
11.8845
11.9119
11.9388
11.9656
11.9925
12.0199
12.048
12.0771
12.1077
12.1399
12.1744
12.2116
12.252
12.2965
12.3458
12.4011
12.4638
12.5353
12.6179
12.714
12.8266
12.9595
13.1168
13.3025
13.5196
13.768
14.0405
14.3144
14.5141
14.5073
10.4296
10.3459
10.4163
10.5597
10.7201
10.8775
11.0224
11.1507
11.2619
11.3574
11.4392
11.5094
11.5702
11.6232
11.67
11.7118
11.7497
11.7846
11.817
11.8477
11.8771
11.9056
11.9337
11.9615
11.9895
12.0179
12.0471
12.0772
12.1087
12.142
12.1774
12.2155
12.2567
12.3019
12.3517
12.4071
12.4693
12.5396
12.6196
12.711
12.8158
12.9362
13.0738
13.2296
13.4024
13.5871
13.7726
13.9367
14.0203
13.9383
10.7681
10.6722
10.6893
10.7694
10.8735
10.9851
11.095
11.1975
11.2903
11.373
11.446
11.5104
11.5674
11.618
11.6635
11.7047
11.7425
11.7776
11.8104
11.8417
11.8718
11.901
11.9298
11.9584
11.9872
12.0163
12.0462
12.077
12.1092
12.1431
12.179
12.2175
12.259
12.3041
12.3535
12.4081
12.4687
12.5363
12.6119
12.6969
12.792
12.8983
13.0157
13.1433
13.2778
13.4124
13.536
13.631
13.6552
13.5551
11.008
10.9176
10.9087
10.9502
11.0156
11.093
11.1744
11.2544
11.33
11.3997
11.4632
11.5207
11.5728
11.6201
11.6632
11.703
11.7398
11.7744
11.8071
11.8384
11.8687
11.8983
11.9274
11.9565
11.9857
12.0153
12.0456
12.0769
12.1094
12.1435
12.1796
12.218
12.2592
12.3038
12.3522
12.4052
12.4632
12.5272
12.5976
12.6751
12.7599
12.852
12.9505
13.0533
13.1563
13.2528
13.3336
13.3855
13.3796
13.2822
11.188
11.1073
11.0861
11.1041
11.1432
11.1955
11.2547
11.3159
11.3762
11.4339
11.488
11.5383
11.585
11.6282
11.6684
11.7059
11.7413
11.7748
11.8068
11.8378
11.8678
11.8974
11.9266
11.9558
11.9852
12.015
12.0455
12.0769
12.1095
12.1436
12.1795
12.2175
12.2581
12.3017
12.3486
12.3993
12.4543
12.514
12.5787
12.6485
12.7231
12.802
12.8836
12.9654
13.0434
13.1116
13.1628
13.1878
13.167
13.0779
11.3291
11.2579
11.2311
11.2347
11.2563
11.2904
11.3324
11.3784
11.4257
11.4726
11.5179
11.5613
11.6024
11.6412
11.6781
11.713
11.7464
11.7785
11.8095
11.8396
11.8692
11.8984
11.9274
11.9564
11.9858
12.0155
12.0459
12.0773
12.1097
12.1435
12.179
12.2164
12.256
12.2982
12.3433
12.3915
12.4432
12.4984
12.5572
12.6194
12.6844
12.7513
12.8183
12.8828
12.9412
12.9885
13.0194
13.0276
12.9994
12.9193
11.4435
11.3802
11.3511
11.3459
11.3556
11.3766
11.4056
11.4395
11.476
11.5135
11.551
11.5878
11.6235
11.658
11.6913
11.7235
11.7547
11.785
11.8147
11.8438
11.8725
11.9011
11.9297
11.9584
11.9874
12.0169
12.0471
12.0781
12.1102
12.1435
12.1784
12.2149
12.2534
12.294
12.337
12.3825
12.4306
12.4813
12.5344
12.5895
12.6458
12.702
12.7566
12.807
12.8502
12.8822
12.899
12.8966
12.8651
12.7928
11.5384
11.4815
11.4518
11.4411
11.4427
11.4543
11.4734
11.4978
11.5255
11.5551
11.5856
11.6165
11.6472
11.6775
11.7073
11.7366
11.7655
11.7939
11.822
11.8499
11.8776
11.9054
11.9333
11.9615
11.99
12.0191
12.0489
12.0795
12.111
12.1438
12.1778
12.2133
12.2504
12.2894
12.3302
12.3729
12.4175
12.4638
12.5115
12.56
12.6084
12.6555
12.6997
12.7388
12.7702
12.7908
12.7977
12.7886
12.7558
12.6902
11.6186
11.5666
11.537
11.5229
11.519
11.5238
11.5355
11.5524
11.5729
11.5959
11.6205
11.6461
11.6722
11.6986
11.7251
11.7516
11.7781
11.8045
11.831
11.8575
11.8842
11.911
11.9381
11.9656
11.9936
12.0221
12.0513
12.0814
12.1123
12.1442
12.1774
12.2117
12.2475
12.2846
12.3232
12.3632
12.4044
12.4465
12.4892
12.5317
12.5732
12.6125
12.6481
12.678
12.7002
12.7124
12.7124
12.6989
12.6659
12.6059
11.687
11.6389
11.6097
11.5935
11.5858
11.5856
11.5917
11.6028
11.6175
11.6351
11.6547
11.6757
11.6978
11.7206
11.744
11.7678
11.792
11.8165
11.8412
11.8663
11.8918
11.9176
11.9439
11.9706
11.9979
12.0257
12.0543
12.0837
12.1139
12.145
12.1771
12.2103
12.2446
12.28
12.3164
12.3537
12.3916
12.4299
12.468
12.5053
12.5408
12.5734
12.6018
12.6244
12.6395
12.6453
12.6405
12.6241
12.5915
12.536
11.746
11.7009
11.6722
11.6546
11.6442
11.6404
11.6423
11.6488
11.659
11.6721
11.6874
11.7046
11.7231
11.7427
11.7633
11.7846
11.8066
11.8291
11.8523
11.876
11.9002
11.9249
11.9502
11.9761
12.0027
12.0298
12.0577
12.0864
12.1158
12.146
12.1772
12.2092
12.242
12.2756
12.3099
12.3447
12.3796
12.4144
12.4484
12.481
12.5112
12.5382
12.5607
12.5774
12.587
12.588
12.5797
12.5615
12.5294
12.4778
11.7968
11.754
11.7259
11.7074
11.6952
11.6887
11.6874
11.6904
11.6969
11.7063
11.7182
11.732
11.7475
11.7643
11.7823
11.8014
11.8213
11.8421
11.8637
11.886
11.909
11.9327
11.957
11.9821
12.0078
12.0343
12.0614
12.0893
12.1179
12.1473
12.1774
12.2082
12.2396
12.2716
12.3039
12.3363
12.3685
12.4001
12.4304
12.4589
12.4848
12.507
12.5247
12.5366
12.5418
12.5392
12.5284
12.509
12.4777
12.4292
11.8407
11.7997
11.772
11.753
11.7394
11.731
11.7272
11.7275
11.7311
11.7376
11.7466
11.7576
11.7705
11.7849
11.8007
11.8177
11.8358
11.8549
11.875
11.896
11.9178
11.9405
11.9639
11.9881
12.0131
12.0388
12.0652
12.0923
12.1202
12.1487
12.1778
12.2075
12.2376
12.268
12.2984
12.3287
12.3584
12.3871
12.4143
12.4393
12.4613
12.4796
12.4933
12.5014
12.5032
12.4979
12.4852
12.4651
12.4345
12.3887
11.8784
11.8388
11.8115
11.7921
11.7776
11.7676
11.762
11.7602
11.7615
11.7657
11.7723
11.7811
11.7917
11.804
11.8178
11.8331
11.8495
11.8672
11.886
11.9057
11.9265
11.9482
11.9707
11.9941
12.0183
12.0433
12.069
12.0954
12.1225
12.1502
12.1783
12.2069
12.2358
12.2648
12.2936
12.3219
12.3494
12.3757
12.4001
12.422
12.4409
12.4559
12.4663
12.4714
12.4705
12.4631
12.449
12.4284
12.3986
12.3551
11.9105
11.872
11.845
11.8254
11.8101
11.7991
11.7921
11.7885
11.7881
11.7904
11.7951
11.802
11.8108
11.8214
11.8335
11.8472
11.8623
11.8786
11.8962
11.9149
11.9347
11.9554
11.9772
11.9998
12.0233
12.0476
12.0726
12.0984
12.1247
12.1516
12.179
12.2066
12.2343
12.262
12.2893
12.316
12.3416
12.3657
12.3877
12.4071
12.4233
12.4356
12.4434
12.4461
12.4431
12.4341
12.419
12.3982
12.369
12.3273
11.9374
11.8997
11.873
11.8532
11.8374
11.8256
11.8175
11.8127
11.8109
11.8117
11.8149
11.8202
11.8275
11.8367
11.8475
11.8598
11.8737
11.8889
11.9054
11.9232
11.9421
11.9621
11.9831
12.005
12.0279
12.0515
12.076
12.1011
12.1268
12.153
12.1796
12.2064
12.2331
12.2597
12.2857
12.3109
12.3349
12.3571
12.3772
12.3945
12.4085
12.4187
12.4243
12.4251
12.4204
12.4102
12.3944
12.3734
12.3448
12.3047
11.9594
11.9223
11.8958
11.8759
11.8597
11.8473
11.8384
11.8327
11.8298
11.8295
11.8315
11.8356
11.8417
11.8497
11.8594
11.8707
11.8835
11.8978
11.9135
11.9304
11.9486
11.9679
11.9882
12.0096
12.0319
12.055
12.079
12.1035
12.1287
12.1543
12.1802
12.2062
12.2322
12.2578
12.2827
12.3067
12.3293
12.3501
12.3685
12.3841
12.3964
12.4048
12.4088
12.408
12.4022
12.391
12.3747
12.3536
12.3255
12.2867
11.9767
11.9401
11.9138
11.8938
11.8774
11.8645
11.855
11.8486
11.8449
11.8437
11.8448
11.848
11.8532
11.8603
11.8691
11.8796
11.8916
11.9051
11.9201
11.9364
11.9539
11.9727
11.9925
12.0134
12.0353
12.058
12.0814
12.1056
12.1303
12.1554
12.1807
12.2062
12.2314
12.2563
12.2803
12.3033
12.3249
12.3445
12.3616
12.3759
12.3868
12.3939
12.3966
12.3947
12.3879
12.3761
12.3594
12.3383
12.3107
12.2727
11.9896
11.9533
11.9271
11.9071
11.8905
11.8773
11.8674
11.8605
11.8562
11.8544
11.8549
11.8574
11.862
11.8684
11.8765
11.8864
11.8978
11.9108
11.9252
11.941
11.9581
11.9764
11.9959
12.0164
12.0379
12.0602
12.0834
12.1072
12.1315
12.1562
12.1812
12.2061
12.2309
12.2551
12.2786
12.3008
12.3216
12.3403
12.3565
12.3698
12.3797
12.3858
12.3876
12.3849
12.3775
12.3652
12.3482
12.3271
12.2998
12.2626
11.9982
11.9621
11.936
11.9159
11.8992
11.8858
11.8756
11.8684
11.8638
11.8615
11.8616
11.8637
11.8678
11.8738
11.8815
11.8909
11.902
11.9146
11.9286
11.9441
11.9609
11.9789
11.9981
12.0184
12.0396
12.0618
12.0847
12.1082
12.1323
12.1568
12.1815
12.2061
12.2305
12.2544
12.2774
12.2992
12.3194
12.3375
12.3531
12.3658
12.375
12.3805
12.3817
12.3785
12.3706
12.358
12.3409
12.3198
12.2927
12.256
12.0024
11.9664
11.9403
11.9202
11.9035
11.89
11.8797
11.8723
11.8675
11.8651
11.8649
11.8669
11.8707
11.8765
11.884
11.8932
11.9041
11.9165
11.9304
11.9457
11.9623
11.9802
11.9993
12.0194
12.0405
12.0625
12.0853
12.1088
12.1328
12.1571
12.1816
12.2061
12.2304
12.254
12.2768
12.2984
12.3183
12.3361
12.3514
12.3638
12.3727
12.3778
12.3788
12.3753
12.3672
12.3544
12.3373
12.3162
12.2892
12.2527
12.0024
11.9664
11.9403
11.9202
11.9035
11.89
11.8797
11.8723
11.8675
11.8651
11.865
11.8669
11.8707
11.8765
11.884
11.8932
11.9041
11.9165
11.9304
11.9457
11.9623
11.9802
11.9993
12.0194
12.0405
12.0625
12.0853
12.1088
12.1328
12.1571
12.1816
12.2061
12.2304
12.254
12.2768
12.2984
12.3183
12.3361
12.3514
12.3638
12.3727
12.3778
12.3788
12.3753
12.3672
12.3544
12.3373
12.3162
12.2892
12.2527
11.9982
11.9621
11.936
11.9159
11.8992
11.8858
11.8756
11.8684
11.8638
11.8615
11.8616
11.8637
11.8678
11.8738
11.8815
11.8909
11.902
11.9146
11.9287
11.9441
11.9609
11.9789
11.9981
12.0184
12.0396
12.0618
12.0847
12.1082
12.1323
12.1568
12.1815
12.2061
12.2305
12.2544
12.2774
12.2992
12.3194
12.3375
12.3531
12.3658
12.375
12.3805
12.3817
12.3785
12.3706
12.358
12.3409
12.3198
12.2927
12.256
11.9896
11.9533
11.9271
11.9071
11.8905
11.8773
11.8674
11.8605
11.8562
11.8544
11.8549
11.8574
11.862
11.8684
11.8765
11.8864
11.8978
11.9108
11.9252
11.941
11.9581
11.9764
11.9959
12.0164
12.0379
12.0602
12.0834
12.1072
12.1315
12.1562
12.1812
12.2061
12.2309
12.2551
12.2786
12.3008
12.3216
12.3403
12.3565
12.3698
12.3797
12.3858
12.3876
12.3849
12.3775
12.3652
12.3482
12.3271
12.2998
12.2626
11.9767
11.9401
11.9138
11.8938
11.8774
11.8645
11.855
11.8486
11.8449
11.8437
11.8448
11.848
11.8532
11.8603
11.8691
11.8796
11.8916
11.9051
11.9201
11.9364
11.9539
11.9727
11.9925
12.0134
12.0353
12.058
12.0814
12.1056
12.1303
12.1554
12.1807
12.2062
12.2314
12.2563
12.2803
12.3034
12.3249
12.3445
12.3616
12.3759
12.3868
12.3939
12.3966
12.3947
12.3879
12.3761
12.3594
12.3383
12.3107
12.2727
11.9594
11.9223
11.8958
11.8759
11.8598
11.8473
11.8384
11.8327
11.8298
11.8295
11.8315
11.8356
11.8417
11.8497
11.8594
11.8707
11.8835
11.8978
11.9135
11.9304
11.9486
11.9679
11.9882
12.0096
12.0319
12.055
12.079
12.1035
12.1287
12.1543
12.1802
12.2062
12.2322
12.2578
12.2827
12.3067
12.3293
12.3501
12.3685
12.3841
12.3964
12.4048
12.4088
12.408
12.4022
12.391
12.3747
12.3536
12.3255
12.2867
11.9374
11.8997
11.873
11.8532
11.8374
11.8256
11.8175
11.8127
11.8109
11.8117
11.8149
11.8202
11.8275
11.8367
11.8475
11.8598
11.8737
11.8889
11.9054
11.9232
11.9421
11.9621
11.9831
12.005
12.0279
12.0515
12.076
12.1011
12.1268
12.153
12.1796
12.2064
12.2331
12.2597
12.2857
12.3109
12.3349
12.3571
12.3772
12.3945
12.4085
12.4187
12.4243
12.4251
12.4204
12.4102
12.3944
12.3734
12.3448
12.3047
11.9105
11.872
11.845
11.8254
11.8101
11.7991
11.7921
11.7885
11.7881
11.7904
11.7951
11.802
11.8108
11.8214
11.8335
11.8472
11.8623
11.8786
11.8962
11.9149
11.9347
11.9554
11.9772
11.9998
12.0233
12.0476
12.0726
12.0984
12.1247
12.1516
12.179
12.2066
12.2343
12.262
12.2893
12.316
12.3416
12.3657
12.3877
12.4071
12.4233
12.4356
12.4434
12.4461
12.4431
12.4341
12.419
12.3982
12.369
12.3273
11.8784
11.8388
11.8115
11.7921
11.7776
11.7677
11.762
11.7602
11.7615
11.7657
11.7723
11.7811
11.7917
11.804
11.8178
11.8331
11.8495
11.8672
11.886
11.9057
11.9265
11.9482
11.9707
11.9941
12.0183
12.0433
12.069
12.0954
12.1225
12.1502
12.1783
12.2069
12.2358
12.2648
12.2936
12.3219
12.3494
12.3757
12.4001
12.422
12.4409
12.4559
12.4663
12.4714
12.4705
12.4631
12.449
12.4284
12.3986
12.3551
11.8407
11.7997
11.7721
11.753
11.7394
11.731
11.7272
11.7275
11.7311
11.7376
11.7466
11.7576
11.7705
11.7849
11.8007
11.8177
11.8358
11.8549
11.875
11.896
11.9178
11.9405
11.9639
11.9881
12.0131
12.0388
12.0652
12.0924
12.1202
12.1487
12.1778
12.2075
12.2376
12.268
12.2984
12.3287
12.3584
12.3871
12.4143
12.4393
12.4613
12.4796
12.4933
12.5014
12.5032
12.4979
12.4852
12.4651
12.4345
12.3887
11.7968
11.754
11.7259
11.7074
11.6952
11.6887
11.6874
11.6904
11.6969
11.7064
11.7182
11.732
11.7475
11.7643
11.7823
11.8014
11.8213
11.8421
11.8637
11.886
11.909
11.9327
11.957
11.9821
12.0078
12.0343
12.0614
12.0893
12.1179
12.1473
12.1774
12.2082
12.2396
12.2716
12.3039
12.3363
12.3685
12.4001
12.4304
12.4589
12.4848
12.507
12.5247
12.5366
12.5418
12.5392
12.5284
12.509
12.4777
12.4292
11.746
11.7009
11.6722
11.6546
11.6442
11.6404
11.6423
11.6488
11.659
11.6721
11.6874
11.7046
11.7231
11.7427
11.7633
11.7846
11.8066
11.8291
11.8523
11.876
11.9002
11.9249
11.9502
11.9761
12.0027
12.0298
12.0577
12.0864
12.1158
12.146
12.1772
12.2092
12.242
12.2756
12.3099
12.3447
12.3796
12.4144
12.4484
12.481
12.5113
12.5382
12.5607
12.5774
12.587
12.588
12.5797
12.5615
12.5294
12.4778
11.687
11.639
11.6097
11.5935
11.5858
11.5856
11.5917
11.6028
11.6176
11.6351
11.6547
11.6757
11.6978
11.7206
11.744
11.7678
11.792
11.8165
11.8412
11.8663
11.8918
11.9176
11.9439
11.9706
11.9979
12.0257
12.0543
12.0837
12.1139
12.145
12.1772
12.2103
12.2446
12.28
12.3164
12.3537
12.3917
12.4299
12.468
12.5053
12.5408
12.5734
12.6018
12.6244
12.6395
12.6453
12.6405
12.6241
12.5915
12.536
11.6186
11.5666
11.537
11.5229
11.5191
11.5238
11.5355
11.5524
11.5729
11.5959
11.6205
11.6461
11.6722
11.6986
11.7251
11.7516
11.7781
11.8045
11.831
11.8575
11.8842
11.911
11.9381
11.9656
11.9936
12.0221
12.0513
12.0814
12.1123
12.1442
12.1774
12.2117
12.2475
12.2846
12.3232
12.3632
12.4044
12.4465
12.4892
12.5317
12.5733
12.6125
12.6481
12.678
12.7002
12.7124
12.7125
12.6989
12.6659
12.6059
11.5384
11.4815
11.4518
11.4411
11.4428
11.4543
11.4735
11.4978
11.5255
11.5551
11.5856
11.6165
11.6472
11.6775
11.7073
11.7366
11.7655
11.7939
11.822
11.8499
11.8776
11.9054
11.9333
11.9615
11.9901
12.0191
12.0489
12.0795
12.1111
12.1438
12.1778
12.2133
12.2505
12.2894
12.3302
12.3729
12.4175
12.4638
12.5115
12.56
12.6084
12.6555
12.6997
12.7388
12.7702
12.7908
12.7977
12.7886
12.7558
12.6902
11.4435
11.3802
11.3512
11.3459
11.3556
11.3766
11.4056
11.4395
11.476
11.5135
11.551
11.5878
11.6235
11.658
11.6913
11.7235
11.7547
11.785
11.8147
11.8438
11.8725
11.9011
11.9297
11.9584
11.9874
12.0169
12.0471
12.0781
12.1102
12.1435
12.1784
12.2149
12.2534
12.294
12.337
12.3825
12.4306
12.4813
12.5344
12.5895
12.6458
12.702
12.7566
12.807
12.8502
12.8822
12.899
12.8966
12.8651
12.7929
11.3291
11.2579
11.2311
11.2347
11.2563
11.2904
11.3324
11.3784
11.4257
11.4726
11.5179
11.5613
11.6024
11.6412
11.6781
11.713
11.7464
11.7785
11.8095
11.8396
11.8692
11.8984
11.9274
11.9564
11.9858
12.0155
12.0459
12.0773
12.1097
12.1435
12.179
12.2164
12.256
12.2982
12.3433
12.3915
12.4432
12.4984
12.5572
12.6194
12.6844
12.7513
12.8183
12.8828
12.9412
12.9885
13.0194
13.0276
12.9994
12.9193
11.188
11.1073
11.0861
11.1041
11.1432
11.1955
11.2547
11.3159
11.3762
11.4339
11.488
11.5383
11.585
11.6282
11.6684
11.7059
11.7413
11.7748
11.8068
11.8378
11.8678
11.8974
11.9266
11.9558
11.9852
12.015
12.0455
12.0769
12.1095
12.1436
12.1795
12.2175
12.2581
12.3017
12.3486
12.3993
12.4544
12.514
12.5787
12.6485
12.7231
12.802
12.8836
12.9654
13.0434
13.1116
13.1628
13.1878
13.167
13.0779
11.008
10.9176
10.9087
10.9502
11.0156
11.093
11.1744
11.2544
11.33
11.3997
11.4632
11.5207
11.5728
11.6201
11.6633
11.703
11.7398
11.7744
11.8071
11.8384
11.8687
11.8983
11.9274
11.9565
11.9857
12.0153
12.0456
12.0769
12.1094
12.1435
12.1796
12.218
12.2593
12.3038
12.3522
12.4052
12.4632
12.5272
12.5976
12.6751
12.7599
12.852
12.9505
13.0533
13.1563
13.2528
13.3336
13.3855
13.3796
13.2822
10.7681
10.6722
10.6893
10.7695
10.8735
10.9851
11.095
11.1975
11.2903
11.373
11.446
11.5104
11.5674
11.618
11.6635
11.7047
11.7425
11.7776
11.8105
11.8417
11.8718
11.901
11.9298
11.9584
11.9872
12.0163
12.0462
12.0771
12.1092
12.1431
12.179
12.2175
12.259
12.3041
12.3535
12.4081
12.4687
12.5363
12.6119
12.6969
12.7921
12.8983
13.0158
13.1433
13.2778
13.4124
13.536
13.631
13.6552
13.5551
10.4296
10.3459
10.4163
10.5597
10.7201
10.8775
11.0224
11.1507
11.2619
11.3574
11.4392
11.5094
11.5702
11.6232
11.67
11.7118
11.7497
11.7846
11.817
11.8477
11.8771
11.9056
11.9337
11.9615
11.9895
12.0179
12.0471
12.0772
12.1087
12.142
12.1774
12.2155
12.2567
12.3019
12.3517
12.4071
12.4693
12.5396
12.6196
12.711
12.8158
12.9362
13.0738
13.2296
13.4024
13.5871
13.7726
13.9367
14.0203
13.9383
9.92067
9.90135
10.0786
10.3236
10.5643
10.7803
10.9659
11.1215
11.2505
11.3573
11.4459
11.5201
11.5828
11.6366
11.6833
11.7246
11.7617
11.7954
11.8268
11.8563
11.8845
11.9119
11.9388
11.9656
11.9925
12.0199
12.048
12.0771
12.1077
12.1399
12.1744
12.2116
12.252
12.2965
12.3458
12.4011
12.4638
12.5353
12.6179
12.714
12.8266
12.9595
13.1168
13.3025
13.5196
13.768
14.0405
14.3144
14.5141
14.5073
9.11067
9.28844
9.66865
10.071
10.4216
10.7085
10.9377
11.119
11.2624
11.3767
11.4687
11.5438
11.606
11.6585
11.7035
11.7429
11.778
11.8099
11.8394
11.8672
11.8937
11.9196
11.945
11.9703
11.9958
12.0218
12.0486
12.0765
12.1057
12.1366
12.1697
12.2055
12.2445
12.2875
12.3354
12.3894
12.4509
12.5219
12.6047
12.7026
12.8198
12.9616
13.1352
13.3492
13.6138
13.9388
14.3295
14.7718
15.1874
15.3961
7.70299
8.46697
9.21077
9.83514
10.3227
10.686
10.9539
11.1532
11.3035
11.4189
11.5091
11.5811
11.6397
11.6885
11.73
11.7661
11.7982
11.8273
11.8543
11.8798
11.9042
11.9281
11.9517
11.9753
11.9992
12.0236
12.0488
12.0751
12.1027
12.1319
12.1632
12.197
12.234
12.2747
12.3201
12.3715
12.4302
12.4982
12.5783
12.6741
12.7906
12.935
13.1173
13.3519
13.659
14.0664
14.6039
15.2822
16.0803
16.9093
4.86799
7.46785
8.88612
9.7705
10.3752
10.7828
11.059
11.2522
11.3918
11.4957
11.5752
11.6377
11.6881
11.7299
11.7653
11.7961
11.8237
11.8488
11.8723
11.8947
11.9164
11.9378
11.9591
11.9806
12.0024
12.0249
12.0481
12.0724
12.0979
12.1249
12.1538
12.1849
12.2188
12.2561
12.2976
12.3444
12.3977
12.4596
12.5324
12.6197
12.7267
12.861
13.0342
13.2649
13.5833
14.0399
14.7043
15.6611
17.1649
19.8824
4.81645e-05
6.38536
9.05061
10.1472
10.7409
11.0917
11.3073
11.4491
11.5486
11.6218
11.6777
11.7217
11.7575
11.7875
11.8133
11.8362
11.857
11.8766
11.8952
11.9134
11.9314
11.9495
11.9678
11.9865
12.0057
12.0255
12.0462
12.0678
12.0904
12.1144
12.1399
12.1673
12.1968
12.2291
12.2646
12.3042
12.3488
12.3999
12.4593
12.5295
12.6144
12.7197
12.8548
13.0362
13.2958
13.6976
14.3582
15.5495
18.3308
24.8403
)
;

boundaryField
{
    movingWallTop
    {
        type            zeroGradient;
    }
    movingWallBottom
    {
        type            zeroGradient;
    }
    fixedWalls
    {
        type            zeroGradient;
    }
    frontAndBack
    {
        type            empty;
    }
}


// ************************************************************************* //
