/*--------------------------------*- C++ -*----------------------------------*\
  =========                 |
  \\      /  F ield         | OpenFOAM: The Open Source CFD Toolbox
   \\    /   O peration     | Website:  https://openfoam.org
    \\  /    A nd           | Version:  7
     \\/     M anipulation  |
\*---------------------------------------------------------------------------*/
FoamFile
{
    version     2.0;
    format      ascii;
    class       volScalarField;
    location    "0.071";
    object      p;
}
// * * * * * * * * * * * * * * * * * * * * * * * * * * * * * * * * * * * * * //

dimensions      [0 2 -2 0 0 0 0];

internalField   nonuniform List<scalar> 
2500
(
2.41363e-05
6.38536
9.05063
10.1472
10.741
11.0918
11.3074
11.4492
11.5487
11.6219
11.6778
11.7218
11.7576
11.7875
11.8133
11.8361
11.857
11.8764
11.895
11.9131
11.9311
11.9491
11.9673
11.986
12.0051
12.0249
12.0455
12.0671
12.0897
12.1137
12.1392
12.1665
12.196
12.2283
12.2638
12.3034
12.348
12.3991
12.4585
12.5288
12.6137
12.719
12.8541
13.0355
13.2951
13.6969
14.3576
15.5489
18.3302
24.8397
4.86797
7.46784
8.88612
9.77053
10.3753
10.7829
11.0591
11.2523
11.3919
11.4958
11.5753
11.6378
11.6882
11.7299
11.7652
11.796
11.8235
11.8486
11.8721
11.8944
11.9161
11.9374
11.9587
11.9801
12.0019
12.0243
12.0475
12.0717
12.0972
12.1242
12.153
12.1841
12.218
12.2553
12.2968
12.3436
12.397
12.4588
12.5316
12.619
12.726
12.8603
13.0336
13.2642
13.5827
14.0393
14.7037
15.6605
17.1644
19.8818
7.70295
8.46694
9.21076
9.83515
10.3227
10.6861
10.954
11.1533
11.3036
11.4189
11.5091
11.5811
11.6397
11.6885
11.73
11.766
11.798
11.8271
11.8541
11.8795
11.9039
11.9277
11.9512
11.9748
11.9986
12.023
12.0482
12.0744
12.102
12.1312
12.1625
12.1963
12.2332
12.274
12.3194
12.3707
12.4294
12.4975
12.5776
12.6734
12.7899
12.9343
13.1166
13.3512
13.6584
14.0658
14.6033
15.2816
16.0798
16.9087
9.1106
9.28839
9.66862
10.0709
10.4216
10.7085
10.9377
11.119
11.2624
11.3767
11.4687
11.5438
11.606
11.6584
11.7034
11.7428
11.7778
11.8097
11.8391
11.8669
11.8934
11.9191
11.9445
11.9698
11.9953
12.0213
12.048
12.0758
12.105
12.136
12.1691
12.2048
12.2438
12.2868
12.3347
12.3887
12.4502
12.5212
12.604
12.7019
12.8191
12.961
13.1346
13.3486
13.6132
13.9382
14.3289
14.7713
15.1869
15.3955
9.92057
9.90127
10.0786
10.3236
10.5643
10.7803
10.9659
11.1215
11.2505
11.3573
11.4459
11.52
11.5828
11.6365
11.6832
11.7244
11.7614
11.7952
11.8265
11.856
11.8842
11.9115
11.9384
11.9651
11.9919
12.0193
12.0474
12.0765
12.107
12.1393
12.1737
12.2109
12.2513
12.2958
12.3451
12.4004
12.4631
12.5346
12.6172
12.7133
12.826
12.9589
13.1162
13.3019
13.519
13.7675
14.0399
14.3139
14.5136
14.5067
10.4295
10.3458
10.4162
10.5596
10.7201
10.8775
11.0224
11.1507
11.2619
11.3573
11.4391
11.5094
11.5701
11.6231
11.6699
11.7117
11.7495
11.7843
11.8167
11.8474
11.8767
11.9052
11.9332
11.961
11.989
12.0173
12.0465
12.0766
12.1081
12.1413
12.1767
12.2148
12.256
12.3012
12.351
12.4064
12.4686
12.5389
12.6189
12.7103
12.8152
12.9356
13.0732
13.229
13.4018
13.5865
13.772
13.9362
14.0198
13.9378
10.768
10.6721
10.6892
10.7694
10.8734
10.9851
11.095
11.1975
11.2903
11.3729
11.4459
11.5103
11.5672
11.6179
11.6633
11.7045
11.7423
11.7773
11.8101
11.8413
11.8714
11.9006
11.9293
11.9579
11.9866
12.0157
12.0456
12.0764
12.1086
12.1424
12.1783
12.2168
12.2583
12.3034
12.3529
12.4074
12.468
12.5356
12.6113
12.6962
12.7914
12.8977
13.0151
13.1427
13.2772
13.4118
13.5355
13.6305
13.6546
13.5546
11.0078
10.9174
10.9086
10.9501
11.0155
11.0929
11.1743
11.2544
11.3299
11.3996
11.4631
11.5206
11.5727
11.6199
11.663
11.7027
11.7395
11.774
11.8067
11.838
11.8682
11.8978
11.9269
11.9559
11.9851
12.0147
12.045
12.0762
12.1087
12.1428
12.1789
12.2173
12.2586
12.3031
12.3516
12.4045
12.4626
12.5265
12.5969
12.6744
12.7593
12.8514
12.9499
13.0527
13.1557
13.2523
13.333
13.3849
13.3791
13.2817
11.1878
11.1072
11.086
11.1039
11.1431
11.1954
11.2546
11.3158
11.3761
11.4338
11.4879
11.5382
11.5848
11.628
11.6682
11.7057
11.741
11.7745
11.8065
11.8373
11.8674
11.8969
11.9261
11.9553
11.9846
12.0144
12.0448
12.0762
12.1088
12.1429
12.1788
12.2169
12.2574
12.301
12.3479
12.3987
12.4537
12.5134
12.5781
12.6478
12.7225
12.8014
12.883
12.9648
13.0428
13.111
13.1622
13.1873
13.1664
13.0774
11.3289
11.2578
11.2309
11.2346
11.2561
11.2903
11.3323
11.3783
11.4256
11.4724
11.5178
11.5611
11.6022
11.641
11.6778
11.7128
11.7461
11.7781
11.8091
11.8392
11.8687
11.8979
11.9269
11.9559
11.9852
12.0149
12.0453
12.0766
12.109
12.1429
12.1783
12.2157
12.2554
12.2976
12.3426
12.3909
12.4425
12.4977
12.5565
12.6188
12.6838
12.7507
12.8176
12.8822
12.9406
12.9879
13.0188
13.0271
12.9989
12.9188
11.4433
11.3801
11.351
11.3458
11.3555
11.3765
11.4055
11.4394
11.4759
11.5134
11.5509
11.5876
11.6233
11.6578
11.6911
11.7232
11.7544
11.7846
11.8142
11.8433
11.8721
11.9006
11.9291
11.9578
11.9868
12.0163
12.0465
12.0775
12.1095
12.1429
12.1777
12.2142
12.2527
12.2933
12.3363
12.3818
12.43
12.4807
12.5338
12.5888
12.6451
12.7014
12.756
12.8064
12.8496
12.8816
12.8984
12.896
12.8645
12.7923
11.5382
11.4814
11.4516
11.441
11.4426
11.4542
11.4733
11.4977
11.5253
11.5549
11.5854
11.6163
11.6469
11.6772
11.707
11.7363
11.7651
11.7935
11.8216
11.8494
11.8771
11.9049
11.9328
11.9609
11.9895
12.0185
12.0483
12.0788
12.1104
12.1431
12.1771
12.2126
12.2498
12.2887
12.3295
12.3722
12.4168
12.4632
12.5109
12.5593
12.6078
12.6549
12.6991
12.7382
12.7695
12.7902
12.7972
12.788
12.7552
12.6897
11.6184
11.5665
11.5369
11.5228
11.5189
11.5237
11.5354
11.5522
11.5727
11.5957
11.6203
11.6459
11.672
11.6984
11.7248
11.7513
11.7777
11.8041
11.8306
11.857
11.8837
11.9105
11.9376
11.965
11.993
12.0215
12.0507
12.0807
12.1116
12.1436
12.1767
12.2111
12.2468
12.284
12.3225
12.3625
12.4037
12.4459
12.4885
12.5311
12.5726
12.6119
12.6474
12.6774
12.6996
12.7118
12.7118
12.6984
12.6653
12.6053
11.6869
11.6388
11.6096
11.5934
11.5857
11.5855
11.5916
11.6027
11.6174
11.6349
11.6545
11.6755
11.6976
11.7203
11.7437
11.7675
11.7916
11.8161
11.8408
11.8659
11.8913
11.9171
11.9433
11.97
11.9973
12.0251
12.0537
12.083
12.1132
12.1443
12.1765
12.2097
12.244
12.2793
12.3157
12.353
12.391
12.4293
12.4674
12.5046
12.5401
12.5728
12.6011
12.6237
12.6389
12.6447
12.6399
12.6235
12.5909
12.5354
11.7459
11.7008
11.6721
11.6545
11.6442
11.6403
11.6422
11.6487
11.6589
11.6719
11.6873
11.7044
11.7228
11.7424
11.763
11.7842
11.8062
11.8287
11.8518
11.8755
11.8997
11.9244
11.9497
11.9756
12.0021
12.0292
12.0571
12.0857
12.1151
12.1454
12.1765
12.2085
12.2413
12.275
12.3092
12.344
12.379
12.4137
12.4477
12.4803
12.5106
12.5376
12.5601
12.5768
12.5863
12.5874
12.579
12.5609
12.5288
12.4772
11.7968
11.754
11.7258
11.7074
11.6951
11.6886
11.6873
11.6903
11.6968
11.7062
11.718
11.7318
11.7472
11.764
11.782
11.801
11.8209
11.8417
11.8632
11.8855
11.9085
11.9321
11.9565
11.9815
12.0072
12.0336
12.0608
12.0887
12.1173
12.1466
12.1767
12.2075
12.239
12.2709
12.3032
12.3357
12.3679
12.3994
12.4298
12.4583
12.4841
12.5064
12.524
12.536
12.5412
12.5386
12.5277
12.5084
12.477
12.4286
11.8407
11.7997
11.772
11.753
11.7394
11.7309
11.7271
11.7274
11.731
11.7375
11.7464
11.7575
11.7703
11.7846
11.8004
11.8173
11.8354
11.8545
11.8746
11.8956
11.9174
11.94
11.9634
11.9876
12.0125
12.0382
12.0646
12.0917
12.1195
12.148
12.1772
12.2068
12.2369
12.2673
12.2978
12.3281
12.3578
12.3865
12.4137
12.4387
12.4607
12.479
12.4927
12.5008
12.5026
12.4973
12.4845
12.4644
12.4338
12.3881
11.8785
11.8389
11.8116
11.7921
11.7776
11.7676
11.762
11.7601
11.7614
11.7656
11.7722
11.7809
11.7915
11.8038
11.8176
11.8328
11.8492
11.8668
11.8856
11.9053
11.926
11.9477
11.9702
11.9936
12.0177
12.0427
12.0684
12.0948
12.1219
12.1495
12.1777
12.2063
12.2352
12.2641
12.2929
12.3213
12.3488
12.375
12.3995
12.4214
12.4403
12.4553
12.4657
12.4708
12.4699
12.4625
12.4484
12.4278
12.3979
12.3544
11.9106
11.872
11.8451
11.8254
11.8101
11.7991
11.792
11.7885
11.788
11.7903
11.795
11.8018
11.8106
11.8211
11.8333
11.8469
11.8619
11.8783
11.8958
11.9145
11.9342
11.9549
11.9767
11.9993
12.0227
12.047
12.072
12.0978
12.1241
12.151
12.1783
12.206
12.2337
12.2614
12.2887
12.3154
12.341
12.365
12.3871
12.4065
12.4227
12.435
12.4428
12.4454
12.4425
12.4334
12.4183
12.3975
12.3683
12.3266
11.9375
11.8998
11.8731
11.8532
11.8374
11.8256
11.8175
11.8127
11.8108
11.8116
11.8148
11.8201
11.8274
11.8364
11.8472
11.8596
11.8734
11.8886
11.905
11.9228
11.9416
11.9616
11.9826
12.0045
12.0273
12.051
12.0754
12.1005
12.1262
12.1524
12.179
12.2057
12.2325
12.2591
12.2851
12.3103
12.3343
12.3565
12.3766
12.3939
12.4079
12.418
12.4237
12.4244
12.4198
12.4096
12.3937
12.3727
12.3441
12.304
11.9596
11.9224
11.896
11.876
11.8598
11.8474
11.8384
11.8327
11.8297
11.8294
11.8314
11.8355
11.8416
11.8495
11.8591
11.8704
11.8832
11.8975
11.9131
11.93
11.9481
11.9674
11.9877
12.0091
12.0314
12.0545
12.0784
12.103
12.1281
12.1537
12.1796
12.2056
12.2316
12.2572
12.2821
12.3061
12.3287
12.3495
12.3679
12.3836
12.3958
12.4042
12.4082
12.4074
12.4015
12.3904
12.374
12.3529
12.3248
12.2859
11.977
11.9403
11.914
11.8939
11.8775
11.8646
11.8551
11.8486
11.8449
11.8437
11.8447
11.8479
11.8531
11.8601
11.8689
11.8793
11.8913
11.9048
11.9197
11.936
11.9535
11.9722
11.992
12.0129
12.0347
12.0574
12.0809
12.105
12.1297
12.1548
12.1802
12.2056
12.2308
12.2557
12.2798
12.3028
12.3243
12.3439
12.3611
12.3753
12.3862
12.3933
12.396
12.3941
12.3873
12.3754
12.3587
12.3376
12.3099
12.272
11.9899
11.9535
11.9273
11.9072
11.8906
11.8774
11.8675
11.8605
11.8562
11.8544
11.8548
11.8573
11.8618
11.8682
11.8763
11.8861
11.8975
11.9104
11.9248
11.9406
11.9577
11.9759
11.9954
12.0159
12.0373
12.0597
12.0828
12.1066
12.1309
12.1557
12.1806
12.2056
12.2303
12.2546
12.278
12.3003
12.321
12.3397
12.3559
12.3692
12.3791
12.3852
12.387
12.3843
12.3768
12.3645
12.3476
12.3264
12.299
12.2618
11.9984
11.9623
11.9361
11.916
11.8993
11.8859
11.8757
11.8684
11.8637
11.8615
11.8615
11.8636
11.8677
11.8736
11.8813
11.8907
11.9017
11.9143
11.9283
11.9437
11.9605
11.9785
11.9976
12.0179
12.0391
12.0612
12.0841
12.1077
12.1318
12.1562
12.1809
12.2056
12.23
12.2538
12.2768
12.2986
12.3188
12.3369
12.3525
12.3652
12.3745
12.3799
12.3811
12.3778
12.3699
12.3573
12.3402
12.3191
12.2919
12.2552
12.0027
11.9666
11.9405
11.9204
11.9036
11.8901
11.8798
11.8723
11.8675
11.8651
11.8649
11.8668
11.8706
11.8763
11.8838
11.893
11.9038
11.9162
11.93
11.9453
11.9619
11.9798
11.9988
12.0189
12.04
12.062
12.0848
12.1082
12.1322
12.1565
12.1811
12.2056
12.2298
12.2535
12.2762
12.2978
12.3177
12.3355
12.3509
12.3632
12.3721
12.3772
12.3782
12.3746
12.3665
12.3538
12.3366
12.3155
12.2884
12.2519
12.0027
11.9666
11.9405
11.9204
11.9036
11.8901
11.8798
11.8723
11.8675
11.8651
11.8649
11.8668
11.8706
11.8763
11.8838
11.893
11.9038
11.9162
11.93
11.9453
11.9619
11.9798
11.9988
12.0189
12.04
12.062
12.0848
12.1082
12.1322
12.1565
12.1811
12.2056
12.2298
12.2535
12.2762
12.2978
12.3177
12.3355
12.3509
12.3632
12.3721
12.3772
12.3782
12.3746
12.3665
12.3538
12.3366
12.3155
12.2884
12.2519
11.9984
11.9623
11.9361
11.916
11.8993
11.8859
11.8757
11.8684
11.8637
11.8615
11.8615
11.8636
11.8677
11.8736
11.8813
11.8907
11.9017
11.9143
11.9283
11.9437
11.9605
11.9785
11.9976
12.0179
12.0391
12.0612
12.0841
12.1077
12.1318
12.1562
12.1809
12.2056
12.23
12.2538
12.2768
12.2986
12.3188
12.3369
12.3525
12.3652
12.3745
12.3799
12.3811
12.3778
12.3699
12.3573
12.3402
12.3191
12.2919
12.2552
11.9899
11.9535
11.9273
11.9072
11.8906
11.8774
11.8675
11.8605
11.8562
11.8544
11.8548
11.8573
11.8618
11.8682
11.8763
11.8861
11.8975
11.9104
11.9248
11.9406
11.9577
11.9759
11.9954
12.0159
12.0373
12.0597
12.0828
12.1066
12.1309
12.1557
12.1806
12.2056
12.2303
12.2546
12.278
12.3003
12.321
12.3397
12.3559
12.3692
12.3792
12.3852
12.387
12.3843
12.3768
12.3645
12.3476
12.3264
12.299
12.2618
11.977
11.9403
11.914
11.8939
11.8775
11.8646
11.8551
11.8486
11.8449
11.8437
11.8447
11.8479
11.8531
11.8601
11.8689
11.8793
11.8913
11.9048
11.9197
11.936
11.9535
11.9722
11.992
12.0129
12.0347
12.0574
12.0809
12.105
12.1297
12.1548
12.1802
12.2056
12.2308
12.2557
12.2798
12.3028
12.3243
12.3439
12.3611
12.3753
12.3862
12.3933
12.396
12.3941
12.3873
12.3754
12.3587
12.3376
12.3099
12.272
11.9596
11.9224
11.896
11.876
11.8598
11.8474
11.8384
11.8327
11.8297
11.8294
11.8314
11.8355
11.8416
11.8495
11.8591
11.8704
11.8832
11.8975
11.9131
11.93
11.9481
11.9674
11.9877
12.0091
12.0314
12.0545
12.0784
12.103
12.1281
12.1537
12.1796
12.2056
12.2316
12.2572
12.2821
12.3061
12.3287
12.3495
12.3679
12.3836
12.3958
12.4042
12.4082
12.4074
12.4015
12.3904
12.374
12.3529
12.3248
12.2859
11.9375
11.8998
11.8731
11.8532
11.8374
11.8256
11.8175
11.8127
11.8108
11.8116
11.8148
11.8201
11.8274
11.8364
11.8472
11.8596
11.8734
11.8886
11.905
11.9228
11.9416
11.9616
11.9826
12.0045
12.0273
12.051
12.0754
12.1005
12.1262
12.1524
12.179
12.2057
12.2325
12.2591
12.2851
12.3103
12.3343
12.3565
12.3766
12.3939
12.4079
12.418
12.4237
12.4244
12.4198
12.4096
12.3937
12.3727
12.3441
12.304
11.9106
11.872
11.8451
11.8254
11.8101
11.7991
11.792
11.7885
11.788
11.7903
11.795
11.8018
11.8106
11.8211
11.8333
11.8469
11.8619
11.8783
11.8958
11.9145
11.9342
11.9549
11.9767
11.9993
12.0227
12.047
12.072
12.0978
12.1241
12.151
12.1783
12.206
12.2337
12.2614
12.2887
12.3154
12.341
12.365
12.3871
12.4065
12.4227
12.435
12.4428
12.4455
12.4425
12.4334
12.4183
12.3975
12.3683
12.3266
11.8785
11.8389
11.8116
11.7921
11.7776
11.7676
11.762
11.7601
11.7614
11.7656
11.7722
11.7809
11.7915
11.8038
11.8176
11.8328
11.8492
11.8668
11.8856
11.9053
11.926
11.9477
11.9702
11.9936
12.0178
12.0427
12.0684
12.0948
12.1219
12.1495
12.1777
12.2063
12.2352
12.2641
12.2929
12.3213
12.3488
12.375
12.3995
12.4214
12.4403
12.4553
12.4657
12.4708
12.4699
12.4625
12.4484
12.4278
12.3979
12.3544
11.8407
11.7997
11.772
11.753
11.7394
11.7309
11.7271
11.7274
11.731
11.7375
11.7464
11.7575
11.7703
11.7846
11.8004
11.8173
11.8354
11.8545
11.8746
11.8956
11.9174
11.94
11.9634
11.9876
12.0125
12.0382
12.0646
12.0917
12.1196
12.148
12.1772
12.2068
12.2369
12.2673
12.2978
12.3281
12.3578
12.3865
12.4137
12.4387
12.4607
12.479
12.4927
12.5008
12.5026
12.4973
12.4845
12.4644
12.4338
12.3881
11.7968
11.754
11.7258
11.7074
11.6951
11.6886
11.6873
11.6903
11.6968
11.7062
11.718
11.7318
11.7473
11.764
11.782
11.801
11.821
11.8417
11.8632
11.8855
11.9085
11.9321
11.9565
11.9815
12.0072
12.0336
12.0608
12.0887
12.1173
12.1466
12.1767
12.2075
12.239
12.2709
12.3032
12.3357
12.3679
12.3994
12.4298
12.4583
12.4841
12.5064
12.524
12.536
12.5412
12.5386
12.5277
12.5084
12.477
12.4286
11.7459
11.7008
11.6721
11.6545
11.6442
11.6403
11.6422
11.6487
11.6589
11.6719
11.6873
11.7044
11.7228
11.7425
11.763
11.7842
11.8062
11.8287
11.8518
11.8755
11.8997
11.9244
11.9497
11.9756
12.0021
12.0292
12.0571
12.0857
12.1151
12.1454
12.1765
12.2085
12.2413
12.275
12.3092
12.344
12.379
12.4137
12.4477
12.4803
12.5106
12.5376
12.5601
12.5768
12.5863
12.5874
12.5791
12.5609
12.5288
12.4772
11.6869
11.6388
11.6096
11.5935
11.5857
11.5855
11.5916
11.6027
11.6174
11.6349
11.6545
11.6755
11.6976
11.7204
11.7437
11.7675
11.7916
11.8161
11.8408
11.8659
11.8913
11.9171
11.9433
11.97
11.9973
12.0251
12.0537
12.083
12.1132
12.1444
12.1765
12.2097
12.244
12.2793
12.3157
12.353
12.391
12.4293
12.4674
12.5046
12.5401
12.5728
12.6011
12.6238
12.6389
12.6447
12.6399
12.6235
12.5909
12.5354
11.6184
11.5665
11.5369
11.5228
11.5189
11.5237
11.5354
11.5522
11.5727
11.5957
11.6203
11.6459
11.672
11.6984
11.7248
11.7513
11.7777
11.8041
11.8306
11.857
11.8837
11.9105
11.9376
11.9651
11.993
12.0215
12.0507
12.0807
12.1116
12.1436
12.1767
12.2111
12.2468
12.284
12.3225
12.3625
12.4037
12.4459
12.4886
12.5311
12.5726
12.6119
12.6474
12.6774
12.6996
12.7118
12.7119
12.6984
12.6653
12.6053
11.5382
11.4814
11.4516
11.441
11.4426
11.4542
11.4733
11.4977
11.5253
11.5549
11.5854
11.6163
11.6469
11.6772
11.707
11.7363
11.7651
11.7935
11.8216
11.8494
11.8771
11.9049
11.9328
11.9609
11.9895
12.0185
12.0483
12.0788
12.1104
12.1431
12.1771
12.2126
12.2498
12.2887
12.3295
12.3722
12.4168
12.4632
12.5109
12.5593
12.6078
12.6549
12.6991
12.7382
12.7695
12.7902
12.7972
12.788
12.7552
12.6897
11.4433
11.3801
11.351
11.3458
11.3555
11.3765
11.4055
11.4394
11.4759
11.5134
11.5509
11.5876
11.6233
11.6578
11.6911
11.7232
11.7544
11.7846
11.8142
11.8433
11.8721
11.9006
11.9291
11.9578
11.9868
12.0163
12.0465
12.0775
12.1095
12.1429
12.1777
12.2142
12.2527
12.2933
12.3363
12.3818
12.43
12.4807
12.5338
12.5888
12.6451
12.7014
12.756
12.8064
12.8496
12.8816
12.8984
12.896
12.8645
12.7923
11.3289
11.2578
11.2309
11.2346
11.2561
11.2903
11.3323
11.3783
11.4256
11.4724
11.5178
11.5611
11.6022
11.641
11.6778
11.7128
11.7461
11.7781
11.8091
11.8392
11.8687
11.8979
11.9269
11.9559
11.9852
12.0149
12.0453
12.0766
12.109
12.1429
12.1783
12.2157
12.2554
12.2976
12.3426
12.3909
12.4425
12.4977
12.5565
12.6188
12.6838
12.7507
12.8176
12.8822
12.9406
12.9879
13.0188
13.0271
12.9989
12.9188
11.1878
11.1072
11.086
11.1039
11.1431
11.1954
11.2546
11.3158
11.3761
11.4338
11.4879
11.5382
11.5848
11.628
11.6682
11.7057
11.741
11.7745
11.8065
11.8373
11.8674
11.8969
11.9261
11.9553
11.9846
12.0144
12.0449
12.0762
12.1088
12.1429
12.1788
12.2169
12.2575
12.301
12.3479
12.3987
12.4537
12.5134
12.5781
12.6478
12.7225
12.8014
12.883
12.9648
13.0428
13.111
13.1622
13.1873
13.1664
13.0774
11.0078
10.9175
10.9086
10.9501
11.0155
11.0929
11.1743
11.2544
11.3299
11.3996
11.4631
11.5206
11.5727
11.6199
11.663
11.7027
11.7395
11.774
11.8067
11.838
11.8682
11.8978
11.9269
11.9559
11.9851
12.0147
12.045
12.0762
12.1087
12.1428
12.1789
12.2173
12.2586
12.3031
12.3516
12.4045
12.4626
12.5265
12.5969
12.6744
12.7593
12.8514
12.9499
13.0527
13.1557
13.2523
13.333
13.3849
13.3791
13.2817
10.768
10.6721
10.6892
10.7694
10.8734
10.9851
11.095
11.1975
11.2903
11.3729
11.4459
11.5103
11.5672
11.6179
11.6633
11.7045
11.7423
11.7773
11.8101
11.8413
11.8714
11.9006
11.9293
11.9579
11.9866
12.0158
12.0456
12.0764
12.1086
12.1424
12.1783
12.2168
12.2583
12.3034
12.3529
12.4074
12.468
12.5356
12.6113
12.6962
12.7914
12.8977
13.0151
13.1427
13.2772
13.4118
13.5355
13.6305
13.6546
13.5546
10.4295
10.3458
10.4162
10.5596
10.7201
10.8775
11.0224
11.1507
11.2619
11.3573
11.4391
11.5094
11.5701
11.6231
11.6699
11.7117
11.7495
11.7843
11.8167
11.8474
11.8767
11.9052
11.9332
11.961
11.989
12.0174
12.0465
12.0766
12.1081
12.1413
12.1767
12.2148
12.256
12.3012
12.351
12.4064
12.4686
12.5389
12.6189
12.7103
12.8152
12.9356
13.0732
13.229
13.4018
13.5865
13.772
13.9362
14.0198
13.9378
9.92057
9.90127
10.0786
10.3236
10.5643
10.7803
10.9659
11.1215
11.2506
11.3573
11.4459
11.52
11.5828
11.6365
11.6832
11.7244
11.7614
11.7952
11.8265
11.856
11.8842
11.9115
11.9384
11.9651
11.9919
12.0193
12.0474
12.0765
12.107
12.1393
12.1737
12.2109
12.2513
12.2958
12.3451
12.4004
12.4631
12.5346
12.6172
12.7133
12.826
12.9589
13.1162
13.3019
13.519
13.7675
14.0399
14.3139
14.5136
14.5067
9.1106
9.2884
9.66863
10.0709
10.4216
10.7085
10.9377
11.119
11.2625
11.3767
11.4687
11.5438
11.606
11.6584
11.7034
11.7428
11.7778
11.8097
11.8391
11.8669
11.8934
11.9191
11.9445
11.9698
11.9953
12.0213
12.048
12.0758
12.105
12.136
12.1691
12.2048
12.2438
12.2868
12.3347
12.3887
12.4502
12.5212
12.604
12.7019
12.8191
12.961
13.1346
13.3486
13.6132
13.9382
14.3289
14.7713
15.1869
15.3955
7.70296
8.46694
9.21076
9.83516
10.3228
10.6861
10.954
11.1533
11.3036
11.4189
11.5091
11.5811
11.6397
11.6885
11.73
11.766
11.7981
11.8271
11.8541
11.8795
11.9039
11.9277
11.9512
11.9748
11.9986
12.023
12.0482
12.0744
12.102
12.1312
12.1625
12.1963
12.2332
12.274
12.3194
12.3707
12.4294
12.4975
12.5776
12.6734
12.7899
12.9343
13.1166
13.3512
13.6584
14.0658
14.6033
15.2816
16.0798
16.9087
4.86797
7.46785
8.88613
9.77053
10.3753
10.7829
11.0591
11.2523
11.3919
11.4958
11.5753
11.6378
11.6882
11.7299
11.7652
11.796
11.8235
11.8486
11.8721
11.8944
11.9161
11.9374
11.9587
11.9801
12.0019
12.0243
12.0475
12.0717
12.0972
12.1242
12.153
12.1842
12.218
12.2553
12.2968
12.3436
12.397
12.4588
12.5316
12.619
12.726
12.8603
13.0336
13.2642
13.5827
14.0393
14.7037
15.6605
17.1644
19.8818
4.00867e-05
6.38536
9.05063
10.1472
10.741
11.0918
11.3074
11.4492
11.5487
11.6219
11.6778
11.7219
11.7576
11.7875
11.8133
11.8361
11.857
11.8764
11.895
11.9132
11.9311
11.9491
11.9673
11.986
12.0051
12.0249
12.0455
12.0671
12.0897
12.1137
12.1392
12.1665
12.196
12.2283
12.2638
12.3034
12.348
12.3991
12.4585
12.5288
12.6137
12.719
12.8541
13.0355
13.2951
13.6969
14.3576
15.5489
18.3302
24.8397
)
;

boundaryField
{
    movingWallTop
    {
        type            zeroGradient;
    }
    movingWallBottom
    {
        type            zeroGradient;
    }
    fixedWalls
    {
        type            zeroGradient;
    }
    frontAndBack
    {
        type            empty;
    }
}


// ************************************************************************* //
