/*--------------------------------*- C++ -*----------------------------------*\
  =========                 |
  \\      /  F ield         | OpenFOAM: The Open Source CFD Toolbox
   \\    /   O peration     | Website:  https://openfoam.org
    \\  /    A nd           | Version:  7
     \\/     M anipulation  |
\*---------------------------------------------------------------------------*/
FoamFile
{
    version     2.0;
    format      ascii;
    class       volScalarField;
    location    "0.033";
    object      p;
}
// * * * * * * * * * * * * * * * * * * * * * * * * * * * * * * * * * * * * * //

dimensions      [0 2 -2 0 0 0 0];

internalField   nonuniform List<scalar> 
2500
(
8.93663e-06
-6.51152
-9.29585
-10.4906
-11.1547
-11.5597
-11.822
-12.0053
-12.1417
-12.2475
-12.3321
-12.4011
-12.4584
-12.5065
-12.5472
-12.582
-12.6119
-12.6376
-12.6598
-12.6791
-12.6959
-12.7106
-12.7234
-12.7349
-12.7451
-12.7544
-12.763
-12.7713
-12.7795
-12.788
-12.797
-12.8069
-12.8183
-12.8316
-12.8474
-12.8666
-12.8901
-12.9191
-12.9555
-13.0014
-13.0605
-13.1381
-13.2428
-13.3904
-13.6118
-13.9682
-14.5667
-15.6666
-18.3333
-24.7181
-4.95589
-7.67544
-9.18158
-10.1409
-10.8078
-11.2668
-11.5873
-11.8195
-11.9938
-12.1285
-12.2351
-12.3214
-12.3923
-12.4514
-12.5013
-12.5437
-12.5801
-12.6114
-12.6387
-12.6625
-12.6834
-12.7019
-12.7184
-12.7333
-12.7469
-12.7596
-12.7718
-12.7836
-12.7956
-12.808
-12.8214
-12.8361
-12.8527
-12.872
-12.8947
-12.9219
-12.9549
-12.9955
-13.046
-13.1099
-13.1919
-13.2993
-13.4432
-13.6411
-13.9223
-14.3346
-14.9433
-15.8307
-17.2503
-19.8494
-7.92616
-8.75799
-9.55839
-10.2388
-10.7783
-11.1875
-11.4963
-11.7321
-11.9152
-12.0599
-12.176
-12.2708
-12.3492
-12.4148
-12.4703
-12.5176
-12.5583
-12.5935
-12.6243
-12.6513
-12.6752
-12.6964
-12.7156
-12.7331
-12.7493
-12.7646
-12.7793
-12.7938
-12.8086
-12.8239
-12.8404
-12.8585
-12.8789
-12.9023
-12.9297
-12.9622
-13.0012
-13.0487
-13.1072
-13.1802
-13.2725
-13.3909
-13.545
-13.7485
-14.0209
-14.3886
-14.8799
-15.5071
-16.2523
-17.0157
-9.43654
-9.64905
-10.0674
-10.5118
-10.9042
-11.2307
-11.4965
-11.7115
-11.8856
-12.0276
-12.1443
-12.2412
-12.3225
-12.3911
-12.4496
-12.4999
-12.5434
-12.5813
-12.6145
-12.6438
-12.6699
-12.6933
-12.7146
-12.7341
-12.7523
-12.7695
-12.7863
-12.8029
-12.8198
-12.8374
-12.8562
-12.8769
-12.8999
-12.9262
-12.9567
-12.9924
-13.0349
-13.0859
-13.1479
-13.2239
-13.3178
-13.4349
-13.582
-13.7674
-14.001
-14.2921
-14.6466
-15.0517
-15.4335
-15.6112
-10.323
-10.3213
-10.5243
-10.8005
-11.0747
-11.3242
-11.5423
-11.7286
-11.8861
-12.0189
-12.1311
-12.2261
-12.3071
-12.3764
-12.4362
-12.488
-12.5331
-12.5727
-12.6076
-12.6387
-12.6665
-12.6916
-12.7145
-12.7357
-12.7555
-12.7744
-12.7928
-12.8111
-12.8298
-12.8492
-12.8699
-12.8924
-12.9174
-12.9457
-12.9781
-13.0158
-13.06
-13.1123
-13.1747
-13.2497
-13.3403
-13.4499
-13.5825
-13.7424
-13.9325
-14.1529
-14.3975
-14.6456
-14.8248
-14.806
-10.8904
-10.8147
-10.9024
-11.0692
-11.2565
-11.4423
-11.6159
-11.772
-11.9095
-12.0295
-12.1336
-12.2238
-12.3021
-12.3701
-12.4295
-12.4815
-12.5273
-12.5677
-12.6037
-12.6358
-12.6648
-12.6911
-12.7152
-12.7376
-12.7587
-12.7789
-12.7986
-12.8182
-12.8381
-12.8588
-12.8808
-12.9046
-12.9309
-12.9603
-12.9936
-13.0319
-13.0762
-13.1278
-13.1884
-13.2596
-13.3434
-13.442
-13.557
-13.6897
-13.8393
-14.0014
-14.166
-14.3128
-14.3856
-14.3033
-11.273
-11.1803
-11.2094
-11.3076
-11.4334
-11.5692
-11.7043
-11.832
-11.9491
-12.0547
-12.1488
-12.2323
-12.3061
-12.3713
-12.429
-12.48
-12.5254
-12.5659
-12.6022
-12.6348
-12.6644
-12.6915
-12.7164
-12.7396
-12.7616
-12.7827
-12.8032
-12.8237
-12.8445
-12.8661
-12.8888
-12.9133
-12.94
-12.9697
-13.0031
-13.0408
-13.084
-13.1334
-13.1904
-13.256
-13.3313
-13.4172
-13.5142
-13.6214
-13.7363
-13.853
-13.9615
-14.0456
-14.0658
-13.9724
-11.5465
-11.4574
-11.4572
-11.5129
-11.5963
-11.6943
-11.798
-11.9007
-11.9986
-12.0898
-12.1733
-12.249
-12.3172
-12.3785
-12.4335
-12.4828
-12.527
-12.5668
-12.6028
-12.6354
-12.6651
-12.6925
-12.7178
-12.7414
-12.7639
-12.7855
-12.8066
-12.8275
-12.8488
-12.8707
-12.8937
-12.9183
-12.945
-12.9743
-13.0069
-13.0433
-13.0844
-13.1307
-13.183
-13.2421
-13.3082
-13.3816
-13.4616
-13.5467
-13.6336
-13.7163
-13.7867
-13.8326
-13.8276
-13.741
-11.7524
-11.6725
-11.658
-11.6876
-11.7419
-11.8121
-11.8909
-11.9726
-12.0535
-12.1311
-12.204
-12.2716
-12.3337
-12.3904
-12.442
-12.4888
-12.5313
-12.5699
-12.605
-12.6371
-12.6666
-12.6938
-12.7191
-12.7428
-12.7654
-12.7872
-12.8084
-12.8295
-12.8509
-12.8728
-12.8957
-12.9199
-12.9461
-12.9745
-13.0057
-13.0402
-13.0785
-13.1211
-13.1684
-13.2206
-13.2777
-13.3394
-13.4046
-13.4714
-13.5363
-13.5944
-13.639
-13.662
-13.6456
-13.57
-11.9136
-11.8435
-11.8224
-11.8359
-11.8705
-11.9202
-11.9797
-12.0442
-12.1103
-12.1757
-12.2386
-12.2983
-12.3541
-12.4059
-12.4536
-12.4975
-12.5378
-12.5747
-12.6086
-12.6397
-12.6685
-12.6952
-12.7202
-12.7437
-12.7661
-12.7877
-12.8088
-12.8297
-12.8508
-12.8723
-12.8947
-12.9183
-12.9435
-12.9707
-13.0001
-13.0323
-13.0676
-13.1062
-13.1483
-13.1938
-13.2426
-13.294
-13.3466
-13.3985
-13.4467
-13.4871
-13.5147
-13.524
-13.503
-13.4383
-12.0437
-11.9822
-11.9586
-11.9621
-11.9833
-12.0181
-12.0627
-12.1133
-12.167
-12.2216
-12.2755
-12.3275
-12.3771
-12.4239
-12.4676
-12.5082
-12.5459
-12.5808
-12.613
-12.6429
-12.6707
-12.6966
-12.7209
-12.7439
-12.7658
-12.787
-12.8076
-12.8281
-12.8487
-12.8696
-12.8912
-12.9138
-12.9378
-12.9634
-12.9909
-13.0205
-13.0526
-13.0872
-13.1243
-13.1637
-13.205
-13.2474
-13.2897
-13.3298
-13.3655
-13.3932
-13.4095
-13.4108
-13.3886
-13.3334
-12.1508
-12.0969
-12.0727
-12.0701
-12.0822
-12.1062
-12.1394
-12.1789
-12.2222
-12.2674
-12.3131
-12.3582
-12.4018
-12.4436
-12.4832
-12.5204
-12.5553
-12.5878
-12.6182
-12.6466
-12.673
-12.6979
-12.7213
-12.7434
-12.7647
-12.7851
-12.8051
-12.8249
-12.8447
-12.8647
-12.8854
-12.9068
-12.9293
-12.9532
-12.9786
-13.0056
-13.0345
-13.0653
-13.0977
-13.1316
-13.1664
-13.2013
-13.2351
-13.2661
-13.2923
-13.3111
-13.32
-13.3167
-13.2949
-13.2478
-12.2406
-12.1931
-12.1694
-12.1632
-12.1691
-12.1852
-12.2097
-12.2403
-12.275
-12.3123
-12.3507
-12.3894
-12.4275
-12.4644
-12.4999
-12.5336
-12.5656
-12.5957
-12.624
-12.6505
-12.6755
-12.699
-12.7212
-12.7424
-12.7627
-12.7823
-12.8014
-12.8202
-12.8391
-12.8581
-12.8776
-12.8977
-12.9186
-12.9407
-12.9639
-12.9884
-13.0142
-13.0414
-13.0696
-13.0986
-13.1278
-13.1564
-13.1834
-13.2073
-13.2266
-13.2391
-13.2432
-13.2373
-13.2169
-13.1765
-12.3168
-12.2748
-12.2523
-12.244
-12.2456
-12.2561
-12.2739
-12.2974
-12.3251
-12.3556
-12.3877
-12.4206
-12.4535
-12.4859
-12.5174
-12.5477
-12.5766
-12.6041
-12.6301
-12.6547
-12.678
-12.7
-12.7209
-12.7409
-12.76
-12.7785
-12.7966
-12.8144
-12.8321
-12.8499
-12.8681
-12.8868
-12.9061
-12.9263
-12.9473
-12.9694
-12.9924
-13.0162
-13.0407
-13.0654
-13.0899
-13.1134
-13.1349
-13.1534
-13.1675
-13.1757
-13.1767
-13.1696
-13.1509
-13.1161
-12.3822
-12.345
-12.3239
-12.3146
-12.3134
-12.3197
-12.3324
-12.3504
-12.3723
-12.397
-12.4237
-12.4514
-12.4796
-12.5077
-12.5354
-12.5622
-12.5881
-12.613
-12.6367
-12.6592
-12.6806
-12.701
-12.7204
-12.739
-12.7568
-12.7741
-12.7909
-12.8075
-12.824
-12.8406
-12.8574
-12.8746
-12.8922
-12.9105
-12.9295
-12.9492
-12.9695
-12.9904
-13.0115
-13.0326
-13.0531
-13.0724
-13.0896
-13.104
-13.1143
-13.1194
-13.1186
-13.1111
-13.0942
-13.0643
-12.4388
-12.4058
-12.3865
-12.3767
-12.3737
-12.377
-12.3859
-12.3994
-12.4166
-12.4365
-12.4584
-12.4816
-12.5055
-12.5296
-12.5536
-12.5772
-12.6001
-12.6223
-12.6436
-12.6639
-12.6834
-12.702
-12.7198
-12.7369
-12.7533
-12.7692
-12.7847
-12.8
-12.8152
-12.8304
-12.8457
-12.8613
-12.8773
-12.8938
-12.9108
-12.9282
-12.9461
-12.9643
-12.9825
-13.0004
-13.0176
-13.0335
-13.0474
-13.0585
-13.0661
-13.0692
-13.0673
-13.0599
-13.0449
-13.0193
-12.4882
-12.4591
-12.4415
-12.4318
-12.4277
-12.4289
-12.4349
-12.4449
-12.4581
-12.474
-12.4918
-12.511
-12.531
-12.5515
-12.572
-12.5924
-12.6125
-12.632
-12.6508
-12.669
-12.6864
-12.7032
-12.7192
-12.7347
-12.7496
-12.7641
-12.7782
-12.7921
-12.8058
-12.8195
-12.8334
-12.8474
-12.8618
-12.8765
-12.8915
-12.9069
-12.9225
-12.9383
-12.9539
-12.9691
-12.9835
-12.9966
-13.0079
-13.0166
-13.0222
-13.024
-13.0215
-13.0146
-13.0015
-12.9798
-12.5317
-12.5062
-12.4903
-12.4811
-12.4764
-12.4761
-12.4799
-12.4871
-12.4972
-12.5096
-12.5239
-12.5395
-12.556
-12.5732
-12.5905
-12.6079
-12.6251
-12.642
-12.6585
-12.6744
-12.6898
-12.7046
-12.7189
-12.7326
-12.7459
-12.7589
-12.7715
-12.7839
-12.7961
-12.8084
-12.8207
-12.8332
-12.8458
-12.8588
-12.872
-12.8854
-12.8989
-12.9125
-12.9259
-12.9388
-12.9509
-12.9617
-12.9708
-12.9777
-12.9819
-12.9828
-12.9803
-12.9741
-12.9629
-12.9447
-12.5703
-12.5482
-12.5341
-12.5254
-12.5206
-12.5193
-12.5214
-12.5265
-12.534
-12.5436
-12.5548
-12.5672
-12.5806
-12.5947
-12.6091
-12.6236
-12.6381
-12.6525
-12.6665
-12.6802
-12.6935
-12.7064
-12.7188
-12.7308
-12.7425
-12.7538
-12.7648
-12.7757
-12.7864
-12.7971
-12.8079
-12.8187
-12.8297
-12.841
-12.8524
-12.8639
-12.8756
-12.8872
-12.8985
-12.9094
-12.9195
-12.9284
-12.9358
-12.9414
-12.9446
-12.9451
-12.9427
-12.9374
-12.9281
-12.9131
-12.6049
-12.5859
-12.5736
-12.5658
-12.561
-12.5591
-12.5601
-12.5634
-12.5688
-12.5759
-12.5845
-12.5942
-12.6048
-12.616
-12.6276
-12.6395
-12.6515
-12.6633
-12.6751
-12.6866
-12.6978
-12.7087
-12.7192
-12.7294
-12.7393
-12.749
-12.7584
-12.7677
-12.7768
-12.7859
-12.7951
-12.8043
-12.8137
-12.8232
-12.8329
-12.8427
-12.8525
-12.8623
-12.8718
-12.8809
-12.8892
-12.8966
-12.9027
-12.9072
-12.9097
-12.91
-12.9081
-12.9037
-12.8962
-12.8843
-12.6361
-12.6202
-12.6097
-12.6028
-12.5983
-12.5962
-12.5962
-12.5982
-12.6018
-12.6069
-12.6132
-12.6205
-12.6285
-12.6372
-12.6463
-12.6556
-12.6651
-12.6746
-12.6841
-12.6934
-12.7026
-12.7115
-12.7201
-12.7285
-12.7367
-12.7446
-12.7524
-12.76
-12.7675
-12.775
-12.7826
-12.7901
-12.7979
-12.8057
-12.8136
-12.8217
-12.8298
-12.8378
-12.8457
-12.8531
-12.86
-12.866
-12.871
-12.8747
-12.8768
-12.8771
-12.8757
-12.8724
-12.8667
-12.8577
-12.6647
-12.6517
-12.6429
-12.6371
-12.6331
-12.6308
-12.6303
-12.6312
-12.6334
-12.6368
-12.6411
-12.6462
-12.6519
-12.6582
-12.6649
-12.6719
-12.6791
-12.6864
-12.6936
-12.7009
-12.708
-12.7149
-12.7217
-12.7282
-12.7346
-12.7408
-12.7469
-12.7528
-12.7587
-12.7645
-12.7704
-12.7763
-12.7823
-12.7884
-12.7947
-12.8011
-12.8075
-12.8138
-12.8201
-12.826
-12.8315
-12.8364
-12.8404
-12.8435
-12.8453
-12.8458
-12.845
-12.8428
-12.839
-12.8327
-12.6912
-12.681
-12.6741
-12.6693
-12.6658
-12.6637
-12.6627
-12.6628
-12.6638
-12.6657
-12.6682
-12.6714
-12.6751
-12.6792
-12.6837
-12.6885
-12.6935
-12.6986
-12.7038
-12.7089
-12.714
-12.719
-12.7239
-12.7286
-12.7332
-12.7376
-12.742
-12.7462
-12.7504
-12.7545
-12.7586
-12.7629
-12.7672
-12.7716
-12.7761
-12.7808
-12.7855
-12.7902
-12.7949
-12.7995
-12.8037
-12.8075
-12.8107
-12.8132
-12.8148
-12.8156
-12.8155
-12.8145
-12.8124
-12.8089
-12.7161
-12.7086
-12.7035
-12.6999
-12.6971
-12.6951
-12.6939
-12.6933
-12.6933
-12.6938
-12.6948
-12.6963
-12.6981
-12.7002
-12.7027
-12.7054
-12.7083
-12.7113
-12.7144
-12.7176
-12.7207
-12.7238
-12.7268
-12.7297
-12.7325
-12.7352
-12.7378
-12.7402
-12.7427
-12.7451
-12.7475
-12.7499
-12.7525
-12.7551
-12.7579
-12.7608
-12.7638
-12.767
-12.7701
-12.7732
-12.7762
-12.779
-12.7814
-12.7834
-12.785
-12.7861
-12.7867
-12.7868
-12.7865
-12.7858
-12.7398
-12.7351
-12.7318
-12.7293
-12.7272
-12.7255
-12.7241
-12.723
-12.7221
-12.7215
-12.7211
-12.7209
-12.721
-12.7213
-12.7218
-12.7225
-12.7235
-12.7245
-12.7257
-12.7269
-12.7281
-12.7294
-12.7305
-12.7316
-12.7326
-12.7335
-12.7343
-12.735
-12.7357
-12.7363
-12.7369
-12.7375
-12.7382
-12.7391
-12.74
-12.7412
-12.7424
-12.7439
-12.7455
-12.7471
-12.7489
-12.7506
-12.7523
-12.7539
-12.7553
-12.7567
-12.7581
-12.7594
-12.7609
-12.7629
-12.7629
-12.7609
-12.7594
-12.7581
-12.7568
-12.7554
-12.7539
-12.7523
-12.7506
-12.7489
-12.7472
-12.7455
-12.7439
-12.7425
-12.7412
-12.74
-12.7391
-12.7382
-12.7375
-12.7369
-12.7363
-12.7357
-12.735
-12.7343
-12.7335
-12.7326
-12.7316
-12.7305
-12.7294
-12.7281
-12.7269
-12.7257
-12.7245
-12.7234
-12.7225
-12.7218
-12.7213
-12.721
-12.7209
-12.7211
-12.7215
-12.7221
-12.723
-12.7241
-12.7255
-12.7272
-12.7293
-12.7318
-12.7351
-12.7398
-12.7858
-12.7866
-12.7868
-12.7867
-12.7861
-12.785
-12.7834
-12.7814
-12.779
-12.7762
-12.7732
-12.7701
-12.767
-12.7638
-12.7608
-12.7579
-12.7551
-12.7525
-12.7499
-12.7475
-12.7451
-12.7427
-12.7402
-12.7378
-12.7352
-12.7325
-12.7297
-12.7268
-12.7238
-12.7207
-12.7176
-12.7144
-12.7113
-12.7083
-12.7054
-12.7027
-12.7002
-12.6981
-12.6962
-12.6948
-12.6938
-12.6933
-12.6933
-12.6939
-12.6951
-12.6971
-12.6998
-12.7035
-12.7086
-12.716
-12.809
-12.8124
-12.8145
-12.8155
-12.8156
-12.8148
-12.8132
-12.8107
-12.8075
-12.8037
-12.7995
-12.7949
-12.7903
-12.7855
-12.7808
-12.7761
-12.7716
-12.7672
-12.7629
-12.7586
-12.7545
-12.7504
-12.7462
-12.742
-12.7376
-12.7332
-12.7286
-12.7239
-12.719
-12.714
-12.7089
-12.7037
-12.6986
-12.6935
-12.6885
-12.6837
-12.6792
-12.6751
-12.6714
-12.6682
-12.6656
-12.6638
-12.6628
-12.6627
-12.6637
-12.6658
-12.6693
-12.674
-12.6809
-12.6911
-12.8328
-12.839
-12.8428
-12.845
-12.8458
-12.8453
-12.8435
-12.8404
-12.8364
-12.8315
-12.826
-12.8201
-12.8139
-12.8075
-12.8011
-12.7947
-12.7885
-12.7823
-12.7763
-12.7704
-12.7645
-12.7587
-12.7528
-12.7469
-12.7408
-12.7346
-12.7282
-12.7217
-12.7149
-12.7079
-12.7008
-12.6936
-12.6864
-12.6791
-12.6719
-12.6649
-12.6582
-12.6519
-12.6462
-12.641
-12.6367
-12.6334
-12.6312
-12.6303
-12.6308
-12.633
-12.6371
-12.6429
-12.6516
-12.6647
-12.8577
-12.8667
-12.8724
-12.8757
-12.8771
-12.8768
-12.8747
-12.871
-12.866
-12.86
-12.8531
-12.8457
-12.8378
-12.8298
-12.8217
-12.8136
-12.8057
-12.7979
-12.7902
-12.7826
-12.775
-12.7675
-12.76
-12.7524
-12.7446
-12.7367
-12.7285
-12.7201
-12.7115
-12.7026
-12.6934
-12.6841
-12.6746
-12.6651
-12.6556
-12.6462
-12.6372
-12.6285
-12.6205
-12.6132
-12.6069
-12.6018
-12.5982
-12.5962
-12.5961
-12.5983
-12.6028
-12.6096
-12.6201
-12.6361
-12.8843
-12.8962
-12.9038
-12.9081
-12.91
-12.9097
-12.9072
-12.9027
-12.8966
-12.8892
-12.8809
-12.8718
-12.8623
-12.8525
-12.8427
-12.8329
-12.8232
-12.8137
-12.8043
-12.7951
-12.7859
-12.7768
-12.7677
-12.7584
-12.749
-12.7393
-12.7294
-12.7192
-12.7086
-12.6978
-12.6866
-12.6751
-12.6633
-12.6514
-12.6395
-12.6276
-12.616
-12.6048
-12.5942
-12.5845
-12.5759
-12.5688
-12.5634
-12.56
-12.5591
-12.561
-12.5657
-12.5736
-12.5859
-12.6048
-12.9131
-12.9281
-12.9374
-12.9427
-12.9451
-12.9446
-12.9414
-12.9359
-12.9284
-12.9195
-12.9094
-12.8985
-12.8872
-12.8756
-12.8639
-12.8524
-12.841
-12.8297
-12.8187
-12.8079
-12.7971
-12.7864
-12.7757
-12.7648
-12.7538
-12.7425
-12.7308
-12.7188
-12.7064
-12.6935
-12.6802
-12.6665
-12.6525
-12.6381
-12.6236
-12.6091
-12.5947
-12.5806
-12.5672
-12.5548
-12.5435
-12.534
-12.5265
-12.5214
-12.5193
-12.5205
-12.5254
-12.534
-12.5481
-12.5703
-12.9447
-12.9629
-12.9741
-12.9803
-12.9828
-12.9819
-12.9777
-12.9708
-12.9617
-12.9509
-12.9388
-12.9259
-12.9125
-12.8989
-12.8854
-12.872
-12.8588
-12.8458
-12.8332
-12.8207
-12.8084
-12.7961
-12.7839
-12.7715
-12.7588
-12.7459
-12.7326
-12.7189
-12.7046
-12.6898
-12.6744
-12.6585
-12.642
-12.6251
-12.6079
-12.5905
-12.5731
-12.556
-12.5395
-12.5239
-12.5096
-12.4972
-12.4871
-12.4798
-12.4761
-12.4764
-12.481
-12.4903
-12.5062
-12.5317
-12.9798
-13.0016
-13.0147
-13.0215
-13.024
-13.0222
-13.0166
-13.0079
-12.9966
-12.9835
-12.9691
-12.9539
-12.9383
-12.9225
-12.9069
-12.8915
-12.8765
-12.8618
-12.8474
-12.8334
-12.8195
-12.8058
-12.792
-12.7782
-12.7641
-12.7496
-12.7347
-12.7192
-12.7032
-12.6864
-12.669
-12.6508
-12.6319
-12.6124
-12.5924
-12.572
-12.5514
-12.531
-12.5109
-12.4918
-12.474
-12.4581
-12.4448
-12.4348
-12.4289
-12.4277
-12.4318
-12.4415
-12.4591
-12.4882
-13.0193
-13.0449
-13.0599
-13.0673
-13.0692
-13.0661
-13.0585
-13.0474
-13.0335
-13.0176
-13.0004
-12.9825
-12.9643
-12.9461
-12.9282
-12.9108
-12.8938
-12.8773
-12.8613
-12.8457
-12.8304
-12.8152
-12.8
-12.7847
-12.7692
-12.7533
-12.7368
-12.7198
-12.702
-12.6834
-12.6639
-12.6435
-12.6223
-12.6001
-12.5772
-12.5536
-12.5296
-12.5055
-12.4816
-12.4584
-12.4365
-12.4165
-12.3994
-12.3859
-12.377
-12.3737
-12.3767
-12.3864
-12.4058
-12.4387
-13.0643
-13.0942
-13.1111
-13.1186
-13.1195
-13.1143
-13.104
-13.0897
-13.0724
-13.0531
-13.0326
-13.0115
-12.9904
-12.9695
-12.9492
-12.9295
-12.9105
-12.8922
-12.8746
-12.8574
-12.8406
-12.824
-12.8075
-12.7909
-12.7741
-12.7568
-12.739
-12.7204
-12.701
-12.6806
-12.6592
-12.6366
-12.613
-12.5881
-12.5622
-12.5353
-12.5077
-12.4796
-12.4514
-12.4236
-12.397
-12.3722
-12.3503
-12.3324
-12.3196
-12.3134
-12.3145
-12.3239
-12.3449
-12.3821
-13.1161
-13.1509
-13.1696
-13.1767
-13.1757
-13.1675
-13.1534
-13.1349
-13.1134
-13.0899
-13.0654
-13.0407
-13.0162
-12.9924
-12.9694
-12.9473
-12.9263
-12.9061
-12.8868
-12.8681
-12.8499
-12.8321
-12.8143
-12.7966
-12.7785
-12.76
-12.7409
-12.7209
-12.7
-12.678
-12.6547
-12.6301
-12.6041
-12.5766
-12.5476
-12.5174
-12.4859
-12.4535
-12.4206
-12.3877
-12.3555
-12.3251
-12.2974
-12.2738
-12.256
-12.2456
-12.244
-12.2523
-12.2747
-12.3168
-13.1765
-13.2169
-13.2373
-13.2432
-13.2391
-13.2266
-13.2073
-13.1834
-13.1564
-13.1278
-13.0986
-13.0696
-13.0414
-13.0142
-12.9884
-12.9639
-12.9406
-12.9186
-12.8977
-12.8776
-12.8581
-12.839
-12.8202
-12.8013
-12.7822
-12.7627
-12.7424
-12.7212
-12.699
-12.6755
-12.6505
-12.6239
-12.5956
-12.5656
-12.5336
-12.4999
-12.4644
-12.4274
-12.3894
-12.3507
-12.3122
-12.275
-12.2402
-12.2097
-12.1852
-12.169
-12.1632
-12.1694
-12.193
-12.2406
-13.2478
-13.2949
-13.3167
-13.32
-13.3111
-13.2923
-13.2661
-13.2351
-13.2013
-13.1664
-13.1316
-13.0977
-13.0653
-13.0345
-13.0056
-12.9786
-12.9532
-12.9293
-12.9068
-12.8854
-12.8647
-12.8447
-12.8249
-12.8051
-12.7851
-12.7646
-12.7434
-12.7212
-12.6979
-12.673
-12.6465
-12.6182
-12.5878
-12.5552
-12.5204
-12.4831
-12.4436
-12.4018
-12.3581
-12.3131
-12.2674
-12.2222
-12.1788
-12.1394
-12.1062
-12.0822
-12.0701
-12.0727
-12.0969
-12.1508
-13.3334
-13.3886
-13.4108
-13.4095
-13.3932
-13.3655
-13.3298
-13.2897
-13.2474
-13.205
-13.1637
-13.1243
-13.0872
-13.0526
-13.0205
-12.9909
-12.9634
-12.9378
-12.9138
-12.8912
-12.8696
-12.8486
-12.8281
-12.8076
-12.787
-12.7658
-12.7439
-12.7209
-12.6966
-12.6707
-12.6429
-12.613
-12.5807
-12.5459
-12.5082
-12.4675
-12.4238
-12.3771
-12.3275
-12.2754
-12.2216
-12.167
-12.1133
-12.0627
-12.0181
-11.9833
-11.9621
-11.9585
-11.9822
-12.0436
-13.4383
-13.503
-13.524
-13.5147
-13.4871
-13.4467
-13.3985
-13.3466
-13.294
-13.2426
-13.1938
-13.1483
-13.1062
-13.0676
-13.0323
-13.0001
-12.9707
-12.9435
-12.9183
-12.8947
-12.8723
-12.8508
-12.8297
-12.8088
-12.7877
-12.7661
-12.7437
-12.7201
-12.6952
-12.6685
-12.6397
-12.6085
-12.5747
-12.5378
-12.4975
-12.4536
-12.4058
-12.3541
-12.2983
-12.2386
-12.1756
-12.1103
-12.0441
-11.9796
-11.9202
-11.8704
-11.8358
-11.8224
-11.8434
-11.9136
-13.5701
-13.6456
-13.662
-13.639
-13.5944
-13.5363
-13.4714
-13.4046
-13.3394
-13.2777
-13.2206
-13.1684
-13.1211
-13.0785
-13.0402
-13.0057
-12.9745
-12.9461
-12.9199
-12.8956
-12.8728
-12.8508
-12.8295
-12.8084
-12.7872
-12.7654
-12.7428
-12.7191
-12.6938
-12.6666
-12.6371
-12.605
-12.5699
-12.5313
-12.4888
-12.442
-12.3904
-12.3337
-12.2716
-12.204
-12.131
-12.0534
-11.9726
-11.8908
-11.812
-11.7419
-11.6876
-11.658
-11.6724
-11.7523
-13.741
-13.8276
-13.8326
-13.7867
-13.7163
-13.6336
-13.5467
-13.4616
-13.3816
-13.3082
-13.2421
-13.183
-13.1307
-13.0844
-13.0433
-13.0069
-12.9743
-12.945
-12.9183
-12.8937
-12.8707
-12.8488
-12.8275
-12.8065
-12.7855
-12.7639
-12.7414
-12.7177
-12.6924
-12.6651
-12.6354
-12.6028
-12.5668
-12.527
-12.4827
-12.4334
-12.3785
-12.3172
-12.2489
-12.1732
-12.0897
-11.9986
-11.9007
-11.7979
-11.6943
-11.5962
-11.5129
-11.4571
-11.4573
-11.5464
-13.9724
-14.0658
-14.0456
-13.9615
-13.853
-13.7363
-13.6214
-13.5142
-13.4172
-13.3313
-13.256
-13.1904
-13.1334
-13.0839
-13.0408
-13.003
-12.9697
-12.94
-12.9133
-12.8888
-12.866
-12.8445
-12.8237
-12.8032
-12.7826
-12.7616
-12.7396
-12.7164
-12.6914
-12.6644
-12.6348
-12.6022
-12.5659
-12.5254
-12.48
-12.4289
-12.3713
-12.3061
-12.2323
-12.1488
-12.0546
-11.9491
-11.8319
-11.7043
-11.5692
-11.4334
-11.3075
-11.2093
-11.1803
-11.273
-14.3033
-14.3856
-14.3128
-14.166
-14.0014
-13.8393
-13.6897
-13.557
-13.4419
-13.3434
-13.2596
-13.1884
-13.1278
-13.0762
-13.0319
-12.9936
-12.9603
-12.9309
-12.9046
-12.8808
-12.8588
-12.8381
-12.8182
-12.7986
-12.7789
-12.7587
-12.7376
-12.7152
-12.691
-12.6647
-12.6358
-12.6036
-12.5677
-12.5272
-12.4815
-12.4295
-12.3701
-12.302
-12.2238
-12.1336
-12.0295
-11.9095
-11.7719
-11.6158
-11.4423
-11.2565
-11.0692
-10.9024
-10.8146
-10.8903
-14.806
-14.8248
-14.6456
-14.3975
-14.1529
-13.9325
-13.7424
-13.5825
-13.4499
-13.3403
-13.2497
-13.1747
-13.1123
-13.06
-13.0158
-12.9781
-12.9457
-12.9174
-12.8924
-12.8699
-12.8492
-12.8298
-12.8111
-12.7928
-12.7744
-12.7555
-12.7356
-12.7145
-12.6916
-12.6665
-12.6387
-12.6076
-12.5727
-12.5331
-12.4879
-12.4361
-12.3764
-12.307
-12.2261
-12.131
-12.0189
-11.8861
-11.7286
-11.5423
-11.3242
-11.0746
-10.8005
-10.5243
-10.3212
-10.3229
-15.6112
-15.4335
-15.0517
-14.6466
-14.2921
-14.001
-13.7674
-13.582
-13.4349
-13.3178
-13.2238
-13.1479
-13.0859
-13.0349
-12.9924
-12.9567
-12.9262
-12.8999
-12.8769
-12.8562
-12.8374
-12.8198
-12.8029
-12.7863
-12.7695
-12.7522
-12.734
-12.7145
-12.6933
-12.6699
-12.6438
-12.6144
-12.5812
-12.5434
-12.4999
-12.4496
-12.3911
-12.3224
-12.2412
-12.1443
-12.0275
-11.8856
-11.7114
-11.4964
-11.2306
-10.9042
-10.5118
-10.0674
-9.64899
-9.43648
-17.0157
-16.2523
-15.5071
-14.8799
-14.3886
-14.0209
-13.7485
-13.545
-13.3909
-13.2725
-13.1802
-13.1072
-13.0486
-13.0012
-12.9622
-12.9297
-12.9023
-12.8789
-12.8585
-12.8404
-12.8239
-12.8086
-12.7938
-12.7793
-12.7646
-12.7493
-12.7331
-12.7156
-12.6964
-12.6751
-12.6513
-12.6243
-12.5935
-12.5583
-12.5176
-12.4702
-12.4147
-12.3491
-12.2708
-12.176
-12.0598
-11.9152
-11.7321
-11.4962
-11.1875
-10.7782
-10.2387
-9.55832
-8.75792
-7.92609
-19.8494
-17.2503
-15.8306
-14.9433
-14.3346
-13.9223
-13.6411
-13.4432
-13.2993
-13.1919
-13.1099
-13.046
-12.9955
-12.9549
-12.9219
-12.8947
-12.872
-12.8527
-12.8361
-12.8213
-12.808
-12.7956
-12.7836
-12.7717
-12.7596
-12.7469
-12.7332
-12.7183
-12.7018
-12.6833
-12.6624
-12.6386
-12.6114
-12.58
-12.5437
-12.5013
-12.4514
-12.3923
-12.3214
-12.2351
-12.1284
-11.9938
-11.8195
-11.5873
-11.2667
-10.8077
-10.1408
-9.18151
-7.67536
-4.9558
-24.7181
-18.3333
-15.6666
-14.5667
-13.9682
-13.6118
-13.3904
-13.2428
-13.1381
-13.0605
-13.0014
-12.9554
-12.9191
-12.8901
-12.8666
-12.8474
-12.8316
-12.8183
-12.8069
-12.797
-12.7879
-12.7795
-12.7713
-12.763
-12.7544
-12.745
-12.7348
-12.7234
-12.7105
-12.6959
-12.6791
-12.6598
-12.6375
-12.6118
-12.582
-12.5472
-12.5065
-12.4584
-12.4011
-12.3321
-12.2475
-12.1417
-12.0053
-11.8219
-11.5597
-11.1547
-10.4905
-9.29578
-6.51143
0.000110031
)
;

boundaryField
{
    movingWallTop
    {
        type            zeroGradient;
    }
    movingWallBottom
    {
        type            zeroGradient;
    }
    fixedWalls
    {
        type            zeroGradient;
    }
    frontAndBack
    {
        type            empty;
    }
}


// ************************************************************************* //
