/*--------------------------------*- C++ -*----------------------------------*\
  =========                 |
  \\      /  F ield         | OpenFOAM: The Open Source CFD Toolbox
   \\    /   O peration     | Website:  https://openfoam.org
    \\  /    A nd           | Version:  7
     \\/     M anipulation  |
\*---------------------------------------------------------------------------*/
FoamFile
{
    version     2.0;
    format      ascii;
    class       surfaceScalarField;
    location    "0.046";
    object      phi;
}
// * * * * * * * * * * * * * * * * * * * * * * * * * * * * * * * * * * * * * //

dimensions      [0 3 -1 0 0 0 0];

internalField   nonuniform List<scalar> 
4900
(
5.45475e-06
-5.45473e-06
9.95335e-06
-4.4986e-06
1.26941e-05
-2.74079e-06
1.44123e-05
-1.71814e-06
1.55282e-05
-1.11596e-06
1.6281e-05
-7.52779e-07
1.68116e-05
-5.30593e-07
1.72016e-05
-3.89976e-07
1.74982e-05
-2.96612e-07
1.77297e-05
-2.31556e-07
1.7914e-05
-1.84282e-07
1.80627e-05
-1.4872e-07
1.8184e-05
-1.2122e-07
1.82835e-05
-9.9481e-08
1.83654e-05
-8.19862e-08
1.84331e-05
-6.76954e-08
1.8489e-05
-5.58672e-08
1.8535e-05
-4.59562e-08
1.85725e-05
-3.75489e-08
1.86028e-05
-3.03228e-08
1.86268e-05
-2.40197e-08
1.86453e-05
-1.84272e-08
1.86586e-05
-1.33653e-08
1.86673e-05
-8.67683e-09
1.86715e-05
-4.22058e-09
1.86714e-05
1.40557e-10
1.86669e-05
4.52559e-09
1.86578e-05
9.07468e-09
1.86439e-05
1.3921e-08
1.86247e-05
1.92158e-08
1.85995e-05
2.51306e-08
1.85677e-05
3.1868e-08
1.8528e-05
3.96751e-08
1.84791e-05
4.88623e-08
1.84193e-05
5.98311e-08
1.83462e-05
7.31151e-08
1.82567e-05
8.94441e-08
1.81469e-05
1.09847e-07
1.80111e-05
1.35822e-07
1.78414e-05
1.69645e-07
1.76265e-05
2.14918e-07
1.73489e-05
2.77631e-07
1.69806e-05
3.68247e-07
1.64748e-05
5.0585e-07
1.5749e-05
7.2581e-07
1.46573e-05
1.09167e-06
1.29451e-05
1.71219e-06
1.0162e-05
2.78308e-06
5.5573e-06
4.60473e-06
5.5573e-06
-1.19181e-07
-5.33555e-06
1.83195e-06
-6.44973e-06
4.41333e-06
-5.32216e-06
6.72909e-06
-4.0339e-06
8.60888e-06
-2.99575e-06
1.00912e-05
-2.23506e-06
1.12556e-05
-1.69508e-06
1.21765e-05
-1.3108e-06
1.29121e-05
-1.03227e-06
1.35062e-05
-8.25636e-07
1.39906e-05
-6.68706e-07
1.43888e-05
-5.46909e-07
1.47182e-05
-4.50557e-07
1.49917e-05
-3.73066e-07
1.52196e-05
-3.09848e-07
1.54095e-05
-2.57621e-07
1.55676e-05
-2.13973e-07
1.56988e-05
-1.77087e-07
1.58068e-05
-1.4556e-07
1.58947e-05
-1.18277e-07
1.5965e-05
-9.43378e-08
1.60196e-05
-7.29893e-08
1.60598e-05
-5.35881e-08
1.60867e-05
-3.55671e-08
1.61009e-05
-1.84108e-08
1.61027e-05
-1.63453e-09
1.6092e-05
1.52352e-08
1.60684e-05
3.26776e-08
1.60311e-05
5.11968e-08
1.5979e-05
7.13441e-08
1.59104e-05
9.3744e-08
1.58231e-05
1.19128e-07
1.57144e-05
1.4838e-07
1.55807e-05
1.82598e-07
1.54173e-05
2.23182e-07
1.52185e-05
2.71965e-07
1.49765e-05
3.31399e-07
1.46815e-05
4.04854e-07
1.43202e-05
4.9707e-07
1.3875e-05
6.14889e-07
1.33215e-05
7.68445e-07
1.2626e-05
9.73096e-07
1.17417e-05
1.25251e-06
1.06043e-05
1.64328e-06
9.12961e-06
2.20052e-06
7.22313e-06
2.99815e-06
4.83088e-06
4.10444e-06
2.12079e-06
5.49316e-06
1.0707e-08
6.71481e-06
5.568e-06
-1.0824e-06
-4.25315e-06
-7.54172e-07
-6.77796e-06
5.89068e-07
-6.6654e-06
2.30075e-06
-5.74558e-06
4.01117e-06
-4.70617e-06
5.56168e-06
-3.78557e-06
6.90509e-06
-3.03849e-06
8.045e-06
-2.45071e-06
9.00402e-06
-1.99128e-06
9.80892e-06
-1.63054e-06
1.04848e-05
-1.34457e-06
1.10531e-05
-1.11526e-06
1.15318e-05
-9.29243e-07
1.19354e-05
-7.76646e-07
1.22757e-05
-6.50155e-07
1.25624e-05
-5.44272e-07
1.28032e-05
-4.54794e-07
1.30045e-05
-3.78453e-07
1.31716e-05
-3.12655e-07
1.33087e-05
-2.553e-07
1.3419e-05
-2.0465e-07
1.35052e-05
-1.59233e-07
1.35694e-05
-1.17772e-07
1.3613e-05
-7.91282e-08
1.36368e-05
-4.22544e-08
1.36413e-05
-6.1611e-09
1.36264e-05
3.01254e-08
1.35915e-05
6.75882e-08
1.35355e-05
1.07264e-07
1.34565e-05
1.50278e-07
1.33524e-05
1.979e-07
1.32199e-05
2.51597e-07
1.30552e-05
3.13123e-07
1.28531e-05
3.84622e-07
1.26075e-05
4.68777e-07
1.23105e-05
5.6902e-07
1.19521e-05
6.89822e-07
1.15198e-05
8.37111e-07
1.0998e-05
1.01887e-06
1.03669e-05
1.24599e-06
9.60194e-06
1.53342e-06
8.67336e-06
1.90167e-06
7.5476e-06
2.37827e-06
6.19275e-06
2.99814e-06
4.59405e-06
3.79922e-06
2.78916e-06
4.80305e-06
9.36724e-07
5.95687e-06
-5.71185e-07
7.00107e-06
-1.03827e-06
7.1819e-06
4.52973e-06
-9.13104e-07
-3.34004e-06
-1.34191e-06
-6.34916e-06
-9.37773e-07
-7.06954e-06
1.94216e-08
-6.70278e-06
1.23584e-06
-5.92259e-06
2.51207e-06
-5.0618e-06
3.73536e-06
-4.26178e-06
4.85304e-06
-3.56839e-06
5.84732e-06
-2.98556e-06
6.7184e-06
-2.50162e-06
7.47475e-06
-2.10091e-06
8.12791e-06
-1.76842e-06
8.6899e-06
-1.49124e-06
9.17208e-06
-1.25882e-06
9.5846e-06
-1.06268e-06
9.93635e-06
-8.96018e-07
1.02349e-05
-7.53397e-07
1.04869e-05
-6.30392e-07
1.06976e-05
-5.23376e-07
1.08716e-05
-4.29323e-07
1.10127e-05
-3.45669e-07
1.11236e-05
-2.70194e-07
1.12068e-05
-2.00936e-07
1.12638e-05
-1.36118e-07
1.12956e-05
-7.40926e-08
1.13027e-05
-1.32814e-08
1.1285e-05
4.78705e-08
1.12416e-05
1.1094e-07
1.11713e-05
1.77585e-07
1.1072e-05
2.49595e-07
1.09409e-05
3.28968e-07
1.07745e-05
4.17987e-07
1.05683e-05
5.19333e-07
1.03167e-05
6.36219e-07
1.00129e-05
7.72572e-07
9.64868e-06
9.33264e-07
9.21408e-06
1.12442e-06
8.69736e-06
1.35383e-06
8.08486e-06
1.63137e-06
7.36122e-06
1.96963e-06
6.51037e-06
2.38427e-06
5.51796e-06
2.89408e-06
4.37672e-06
3.5195e-06
3.09715e-06
4.27771e-06
1.72676e-06
5.16961e-06
3.80379e-07
6.14943e-06
-7.26339e-07
7.06359e-06
-1.26652e-06
7.54125e-06
-9.1607e-07
6.83145e-06
3.61366e-06
-6.64942e-07
-2.6751e-06
-1.29793e-06
-5.71616e-06
-1.41971e-06
-6.94776e-06
-1.04543e-06
-7.07705e-06
-3.29556e-07
-6.63847e-06
5.70391e-07
-5.96174e-06
1.53622e-06
-5.2276e-06
2.49208e-06
-4.52426e-06
3.39485e-06
-3.88833e-06
4.22318e-06
-3.32995e-06
4.96912e-06
-2.84686e-06
5.6324e-06
-2.4317e-06
6.21681e-06
-2.07565e-06
6.7281e-06
-1.77011e-06
7.17267e-06
-1.50725e-06
7.55695e-06
-1.28029e-06
7.88694e-06
-1.08339e-06
8.16812e-06
-9.11567e-07
8.40528e-06
-7.60541e-07
8.60258e-06
-6.2662e-07
8.76348e-06
-5.0657e-07
8.89081e-06
-3.97523e-07
8.98676e-06
-2.96887e-07
9.05292e-06
-2.02274e-07
9.09026e-06
-1.11434e-07
9.09917e-06
-2.21938e-08
9.07944e-06
6.75982e-08
9.03025e-06
1.60133e-07
8.95013e-06
2.57701e-07
8.83697e-06
3.62763e-07
8.6879e-06
4.7803e-07
8.49934e-06
6.06555e-07
8.26682e-06
7.51848e-07
7.98502e-06
9.18016e-07
7.64767e-06
1.10993e-06
7.24753e-06
1.33341e-06
6.7765e-06
1.59545e-06
6.22586e-06
1.90447e-06
5.58685e-06
2.27038e-06
4.85187e-06
2.70461e-06
4.01668e-06
3.21946e-06
3.08435e-06
3.82641e-06
2.07182e-06
4.53203e-06
1.02006e-06
5.32947e-06
7.74586e-09
6.18192e-06
-8.36095e-07
6.99327e-06
-1.33151e-06
7.559e-06
-1.29394e-06
7.50368e-06
-6.85221e-07
6.22273e-06
2.92844e-06
-4.71038e-07
-2.20406e-06
-1.10067e-06
-5.08654e-06
-1.47018e-06
-6.57825e-06
-1.47293e-06
-7.0743e-06
-1.15464e-06
-6.95676e-06
-6.10238e-07
-6.50615e-06
6.66644e-08
-5.90451e-06
8.02275e-07
-5.25987e-06
1.54503e-06
-4.63108e-06
2.26194e-06
-4.04686e-06
2.93367e-06
-3.51859e-06
3.55026e-06
-3.04828e-06
4.10777e-06
-2.63317e-06
4.60603e-06
-2.26836e-06
5.04703e-06
-1.94825e-06
5.43392e-06
-1.66718e-06
5.77035e-06
-1.41982e-06
6.06006e-06
-1.20128e-06
6.30662e-06
-1.00711e-06
6.51329e-06
-8.33291e-07
6.68291e-06
-6.76184e-07
6.81783e-06
-5.32449e-07
6.91994e-06
-3.98992e-07
6.99057e-06
-2.72906e-07
7.03054e-06
-1.51408e-07
7.04013e-06
-3.17829e-08
7.01905e-06
8.86774e-08
6.96645e-06
2.12731e-07
6.8809e-06
3.43254e-07
6.76036e-06
4.83305e-07
6.60218e-06
6.36212e-07
6.40308e-06
8.05649e-07
6.15918e-06
9.95746e-07
5.86601e-06
1.21119e-06
5.51861e-06
1.45733e-06
5.11172e-06
1.74029e-06
4.64016e-06
2.06702e-06
4.09941e-06
2.44521e-06
3.48671e-06
2.88308e-06
2.80271e-06
3.3886e-06
2.05422e-06
3.96796e-06
1.2581e-06
4.62253e-06
4.46781e-07
5.34335e-06
-3.25243e-07
6.10149e-06
-9.7588e-07
6.83256e-06
-1.3963e-06
7.41369e-06
-1.47149e-06
7.6342e-06
-1.13711e-06
7.16929e-06
-4.9682e-07
5.58245e-06
2.43162e-06
-3.40152e-07
-1.86391e-06
-9.0305e-07
-4.52364e-06
-1.3664e-06
-6.1149e-06
-1.58871e-06
-6.85199e-06
-1.55149e-06
-6.99398e-06
-1.29669e-06
-6.76094e-06
-8.85577e-07
-6.31562e-06
-3.77147e-07
-5.7683e-06
1.80405e-07
-5.18863e-06
7.51311e-07
-4.61776e-06
1.31083e-06
-4.07811e-06
1.84294e-06
-3.58038e-06
2.33802e-06
-3.12825e-06
2.79097e-06
-2.72132e-06
3.19974e-06
-2.35702e-06
3.56422e-06
-2.03166e-06
3.8855e-06
-1.74111e-06
4.16535e-06
-1.48113e-06
4.40581e-06
-1.24756e-06
4.60895e-06
-1.03644e-06
4.77673e-06
-8.43965e-07
4.91085e-06
-6.66562e-07
5.01266e-06
-5.00805e-07
5.08316e-06
-3.43403e-07
5.1229e-06
-1.91152e-07
5.13201e-06
-4.08889e-08
5.11013e-06
1.10557e-07
5.05644e-06
2.66421e-07
4.96963e-06
4.30058e-07
4.84793e-06
6.05004e-07
4.68911e-06
7.9504e-07
4.4905e-06
1.00426e-06
4.24912e-06
1.23712e-06
3.96179e-06
1.49852e-06
3.62533e-06
1.7938e-06
3.23692e-06
2.1287e-06
2.79467e-06
2.50926e-06
2.29846e-06
2.94143e-06
1.75113e-06
3.43041e-06
1.16032e-06
3.97942e-06
5.40834e-07
4.58744e-06
-8.22638e-08
5.24563e-06
-6.70372e-07
5.93146e-06
-1.16888e-06
6.6e-06
-1.50815e-06
7.17183e-06
-1.61274e-06
7.51827e-06
-1.42647e-06
7.44793e-06
-9.60788e-07
6.70361e-06
-3.66857e-07
4.98852e-06
2.06476e-06
-2.55284e-07
-1.60863e-06
-7.42247e-07
-4.03668e-06
-1.22398e-06
-5.63316e-06
-1.5637e-06
-6.51227e-06
-1.71229e-06
-6.8454e-06
-1.67556e-06
-6.79767e-06
-1.4861e-06
-6.50509e-06
-1.18468e-06
-6.06972e-06
-8.1021e-07
-5.5631e-06
-3.9534e-07
-5.03263e-06
3.46159e-08
-4.50807e-06
4.61147e-07
-4.00692e-06
8.71398e-07
-3.5385e-06
1.25692e-06
-3.10684e-06
1.61255e-06
-2.71264e-06
1.93545e-06
-2.35456e-06
2.22442e-06
-2.03007e-06
2.47929e-06
-1.736e-06
2.70056e-06
-1.46884e-06
2.88908e-06
-1.22495e-06
3.04579e-06
-1.00068e-06
3.17163e-06
-7.92401e-07
3.26737e-06
-5.96553e-07
3.33358e-06
-4.09611e-07
3.37052e-06
-2.2809e-07
3.37813e-06
-4.85031e-08
3.35603e-06
1.32663e-07
3.30345e-06
3.18996e-07
3.21932e-06
5.14191e-07
3.10222e-06
7.22101e-07
2.95049e-06
9.46771e-07
2.76228e-06
1.19247e-06
2.5357e-06
1.4637e-06
2.26903e-06
1.76519e-06
1.96102e-06
2.10181e-06
1.61134e-06
2.47837e-06
1.22124e-06
2.89936e-06
7.94361e-07
3.3683e-06
3.37996e-07
3.88678e-06
-1.3546e-07
4.45287e-06
-6.06734e-07
5.05872e-06
-1.04791e-06
5.68681e-06
-1.4213e-06
6.30485e-06
-1.68015e-06
6.85886e-06
-1.77346e-06
7.26513e-06
-1.65783e-06
7.40264e-06
-1.31997e-06
7.11007e-06
-8.10403e-07
6.19405e-06
-2.81445e-07
4.45956e-06
1.78331e-06
-1.99728e-07
-1.4089e-06
-6.195e-07
-3.6169e-06
-1.08682e-06
-5.16584e-06
-1.48328e-06
-6.11581e-06
-1.74933e-06
-6.57935e-06
-1.8694e-06
-6.6776e-06
-1.85469e-06
-6.51979e-06
-1.72934e-06
-6.19507e-06
-1.52129e-06
-5.77115e-06
-1.25708e-06
-5.29684e-06
-9.59473e-07
-4.80568e-06
-6.46717e-07
-4.31967e-06
-3.32736e-07
-3.85248e-06
-2.77112e-08
-3.41187e-06
2.61214e-07
-3.00157e-06
5.29252e-07
-2.6226e-06
7.73374e-07
-2.2742e-06
9.91818e-07
-1.95444e-06
1.1837e-06
-1.66072e-06
1.34869e-06
-1.38994e-06
1.48681e-06
-1.13879e-06
1.59821e-06
-9.03806e-07
1.68309e-06
-6.81434e-07
1.74156e-06
-4.68083e-07
1.7736e-06
-2.60124e-07
1.77898e-06
-5.38886e-08
1.7573e-06
1.54346e-07
1.70792e-06
3.68376e-07
1.63002e-06
5.92087e-07
1.52265e-06
8.29474e-07
1.38478e-06
1.08465e-06
1.21542e-06
1.36182e-06
1.01386e-06
1.66527e-06
7.79816e-07
1.99923e-06
5.13879e-07
2.36774e-06
2.17916e-07
2.77434e-06
-1.04276e-07
3.22156e-06
-4.46196e-07
3.71022e-06
-7.97682e-07
4.23826e-06
-1.14386e-06
4.79906e-06
-1.46419e-06
5.37904e-06
-1.73187e-06
5.95448e-06
-1.91439e-06
6.48737e-06
-1.9762e-06
6.92067e-06
-1.8849e-06
7.17383e-06
-1.62255e-06
7.14029e-06
-1.20278e-06
6.6903e-06
-6.91694e-07
5.68297e-06
-2.24762e-07
3.99263e-06
1.55855e-06
-1.62388e-07
-1.24651e-06
-5.27571e-07
-3.25172e-06
-9.68752e-07
-4.72466e-06
-1.388e-06
-5.69656e-06
-1.72572e-06
-6.24162e-06
-1.95541e-06
-6.44791e-06
-2.07393e-06
-6.40127e-06
-2.09223e-06
-6.17677e-06
-2.02798e-06
-5.83541e-06
-1.90074e-06
-5.42408e-06
-1.72912e-06
-4.97729e-06
-1.52935e-06
-4.51944e-06
-1.3148e-06
-4.06703e-06
-1.09603e-06
-3.63064e-06
-8.81081e-07
-3.21651e-06
-6.75908e-07
-2.82777e-06
-4.84763e-07
-2.46534e-06
-3.10603e-07
-2.12861e-06
-1.5541e-07
-1.81591e-06
-2.04731e-08
-1.52488e-06
9.33924e-08
-1.25266e-06
1.85671e-07
-9.96085e-07
2.56011e-07
-7.51775e-07
3.04128e-07
-5.162e-07
3.29729e-07
-2.85725e-07
3.32473e-07
-5.66325e-08
3.11948e-07
1.74872e-07
2.67674e-07
4.12649e-07
1.99137e-07
6.60623e-07
1.05845e-07
9.22766e-07
-1.25772e-08
1.20307e-06
-1.56244e-07
1.50549e-06
-3.24819e-07
1.83385e-06
-5.17251e-07
2.19166e-06
-7.31432e-07
2.58192e-06
-9.63761e-07
3.00666e-06
-1.20862e-06
3.46641e-06
-1.45774e-06
3.95935e-06
-1.6996e-06
4.48012e-06
-1.91883e-06
5.01829e-06
-2.09595e-06
5.55616e-06
-2.20774e-06
6.06627e-06
-2.22882e-06
6.50845e-06
-2.13509e-06
6.82694e-06
-1.90989e-06
6.94864e-06
-1.55326e-06
6.78366e-06
-1.09369e-06
6.23073e-06
-5.99812e-07
5.18909e-06
-1.85933e-07
3.57875e-06
1.37262e-06
-1.36539e-07
-1.10997e-06
-4.58823e-07
-2.92944e-06
-8.71838e-07
-4.31165e-06
-1.29586e-06
-5.27254e-06
-1.67587e-06
-5.86162e-06
-1.98085e-06
-6.14293e-06
-2.19894e-06
-6.18318e-06
-2.33144e-06
-6.04427e-06
-2.38751e-06
-5.77934e-06
-2.38008e-06
-5.43151e-06
-2.3231e-06
-5.03428e-06
-2.22986e-06
-4.61268e-06
-2.11215e-06
-4.18474e-06
-1.97993e-06
-3.76287e-06
-1.84127e-06
-3.35517e-06
-1.70256e-06
-2.96648e-06
-1.56872e-06
-2.59918e-06
-1.44345e-06
-2.25387e-06
-1.32951e-06
-1.92985e-06
-1.22891e-06
-1.62548e-06
-1.14312e-06
-1.33846e-06
-1.07318e-06
-1.06602e-06
-1.01991e-06
-8.05049e-07
-9.83908e-07
-5.52199e-07
-9.65687e-07
-3.03947e-07
-9.65674e-07
-5.66453e-08
-9.84245e-07
1.93443e-07
-1.02171e-06
4.50114e-07
-1.07827e-06
7.17188e-07
-1.15398e-06
9.98469e-07
-1.24858e-06
1.29768e-06
-1.36145e-06
1.61835e-06
-1.49131e-06
1.96371e-06
-1.63606e-06
2.33642e-06
-1.79245e-06
2.73831e-06
-1.95569e-06
3.1699e-06
-2.1191e-06
3.62982e-06
-2.27369e-06
4.11393e-06
-2.40782e-06
4.61425e-06
-2.50707e-06
5.11754e-06
-2.55454e-06
5.60363e-06
-2.53176e-06
6.0435e-06
-2.42079e-06
6.39747e-06
-2.20768e-06
6.61384e-06
-1.88783e-06
6.62879e-06
-1.47286e-06
6.36869e-06
-9.98127e-07
5.75599e-06
-5.28469e-07
4.71943e-06
-1.58314e-07
3.20859e-06
1.21431e-06
-1.18148e-07
-9.91822e-07
-4.0712e-07
-2.64047e-06
-7.93999e-07
-3.92477e-06
-1.2139e-06
-4.85264e-06
-1.61784e-06
-5.45768e-06
-1.97402e-06
-5.78675e-06
-2.26567e-06
-5.89153e-06
-2.48754e-06
-5.8224e-06
-2.64221e-06
-5.62466e-06
-2.7369e-06
-5.33682e-06
-2.78106e-06
-4.99011e-06
-2.78478e-06
-4.60897e-06
-2.75771e-06
-4.2118e-06
-2.70856e-06
-3.81202e-06
-2.64482e-06
-3.41891e-06
-2.57275e-06
-3.03855e-06
-2.49744e-06
-2.6745e-06
-2.42294e-06
-2.32836e-06
-2.35246e-06
-2.00033e-06
-2.28846e-06
-1.68947e-06
-2.23286e-06
-1.39406e-06
-2.18712e-06
-1.11176e-06
-2.15236e-06
-8.39809e-07
-2.12944e-06
-5.75122e-07
-2.119e-06
-3.14384e-07
-2.12153e-06
-5.41196e-08
-2.13733e-06
2.09243e-07
-2.16654e-06
4.79321e-07
-2.20907e-06
7.59719e-07
-2.26455e-06
1.05395e-06
-2.33223e-06
1.36536e-06
-2.41083e-06
1.69695e-06
-2.49838e-06
2.05126e-06
-2.59202e-06
2.43005e-06
-2.68774e-06
2.83403e-06
-2.78014e-06
3.2623e-06
-2.86216e-06
3.71185e-06
-2.92492e-06
4.17669e-06
-2.95761e-06
4.64694e-06
-2.94772e-06
5.10765e-06
-2.88164e-06
5.53755e-06
-2.74596e-06
5.90782e-06
-2.52954e-06
6.18105e-06
-2.22671e-06
6.311e-06
-1.84144e-06
6.24352e-06
-1.3922e-06
5.91945e-06
-9.16328e-07
5.28012e-06
-4.72376e-07
4.27548e-06
-1.37939e-07
2.87415e-06
1.07637e-06
-1.04757e-07
-8.87066e-07
-3.6793e-07
-2.37729e-06
-7.32096e-07
-3.5606e-06
-1.144e-06
-4.44074e-06
-1.5607e-06
-5.04098e-06
-1.95146e-06
-5.39599e-06
-2.29717e-06
-5.54582e-06
-2.58835e-06
-5.53121e-06
-2.82274e-06
-5.39027e-06
-3.00294e-06
-5.15663e-06
-3.13444e-06
-4.85861e-06
-3.22418e-06
-4.51922e-06
-3.27953e-06
-4.15646e-06
-3.3076e-06
-3.78395e-06
-3.31489e-06
-3.41162e-06
-3.30713e-06
-3.04631e-06
-3.2892e-06
-2.69243e-06
-3.26516e-06
-2.3524e-06
-3.23838e-06
-2.02711e-06
-3.21155e-06
-1.7163e-06
-3.18684e-06
-1.41877e-06
-3.16595e-06
-1.13265e-06
-3.1502e-06
-8.55555e-07
-3.14061e-06
-5.84715e-07
-3.1379e-06
-3.17092e-07
-3.14255e-06
-4.94667e-08
-3.1548e-06
2.21485e-07
-3.17459e-06
4.99116e-07
-3.20159e-06
7.86723e-07
-3.2351e-06
1.08745e-06
-3.27392e-06
1.40418e-06
-3.31633e-06
1.73936e-06
-3.35987e-06
2.0948e-06
-3.40122e-06
2.4714e-06
-3.43602e-06
2.86883e-06
-3.45873e-06
3.28501e-06
-3.46248e-06
3.71561e-06
-3.43911e-06
4.15332e-06
-3.37926e-06
4.58709e-06
-3.27282e-06
5.00121e-06
-3.10973e-06
5.37447e-06
-2.88132e-06
5.6794e-06
-2.58224e-06
5.88197e-06
-2.21314e-06
5.9419e-06
-1.78376e-06
5.81414e-06
-1.3161e-06
5.45179e-06
-8.46804e-07
4.81083e-06
-4.2759e-07
3.85627e-06
-1.22414e-07
2.56898e-06
9.53954e-07
-9.48233e-08
-7.92243e-07
-3.37986e-07
-2.13413e-06
-6.83074e-07
-3.21551e-06
-1.08578e-06
-4.03803e-06
-1.50857e-06
-4.61819e-06
-1.92262e-06
-4.98194e-06
-2.308e-06
-5.16044e-06
-2.65268e-06
-5.18653e-06
-2.95098e-06
-5.09197e-06
-3.2019e-06
-4.9057e-06
-3.40763e-06
-4.65289e-06
-3.57228e-06
-4.35457e-06
-3.70094e-06
-4.02779e-06
-3.79905e-06
-3.68584e-06
-3.8719e-06
-3.33877e-06
-3.92441e-06
-2.9938e-06
-3.96099e-06
-2.65585e-06
-3.98547e-06
-2.32791e-06
-4.00112e-06
-2.01147e-06
-4.01066e-06
-1.70676e-06
-4.01634e-06
-1.41309e-06
-4.01997e-06
-1.12903e-06
-4.02296e-06
-8.52568e-07
-4.02638e-06
-5.81295e-07
-4.03098e-06
-3.1249e-07
-4.0372e-06
-4.32413e-08
-4.04519e-06
2.29467e-07
-4.05473e-06
5.0866e-07
-4.06528e-06
7.9727e-07
-4.07585e-06
1.09803e-06
-4.08498e-06
1.41332e-06
-4.09064e-06
1.74501e-06
-4.09009e-06
2.09425e-06
-4.07983e-06
2.46115e-06
-4.0555e-06
2.8445e-06
-4.01178e-06
3.24129e-06
-3.94245e-06
3.64627e-06
-3.84046e-06
4.05133e-06
-3.69824e-06
4.44488e-06
-3.50826e-06
4.81123e-06
-3.26387e-06
5.13007e-06
-2.96055e-06
5.37608e-06
-2.59765e-06
5.51907e-06
-2.18042e-06
5.52467e-06
-1.7222e-06
5.35592e-06
-1.24644e-06
4.97602e-06
-7.87723e-07
4.35211e-06
-3.9129e-07
3.45983e-06
-1.10266e-07
2.28795e-06
8.43688e-07
-8.73483e-08
-7.04894e-07
-3.14946e-07
-1.90653e-06
-6.44309e-07
-2.88615e-06
-1.03797e-06
-3.64437e-06
-1.46299e-06
-4.19318e-06
-1.8927e-06
-4.55223e-06
-2.30724e-06
-4.7459e-06
-2.69313e-06
-4.80064e-06
-3.04237e-06
-4.74273e-06
-3.35128e-06
-4.5968e-06
-3.61935e-06
-4.38481e-06
-3.84826e-06
-4.12566e-06
-4.04105e-06
-3.83501e-06
-4.20145e-06
-3.52544e-06
-4.33351e-06
-3.20672e-06
-4.44119e-06
-2.88611e-06
-4.52827e-06
-2.56877e-06
-4.59815e-06
-2.25804e-06
-4.65383e-06
-1.95578e-06
-4.69792e-06
-1.66267e-06
-4.7326e-06
-1.37842e-06
-4.75964e-06
-1.10198e-06
-4.78048e-06
-8.31734e-07
-4.79616e-06
-5.65616e-07
-4.8074e-06
-3.01252e-07
-4.81457e-06
-3.60662e-08
-4.81771e-06
2.32611e-07
-4.8165e-06
5.07441e-07
-4.81019e-06
7.90964e-07
-4.79764e-06
1.08548e-06
-4.7772e-06
1.39287e-06
-4.74667e-06
1.71449e-06
-4.70327e-06
2.05084e-06
-4.64354e-06
2.40142e-06
-4.56337e-06
2.76432e-06
-4.45798e-06
3.1359e-06
-4.32202e-06
3.51032e-06
-4.14983e-06
3.87914e-06
-3.93576e-06
4.2308e-06
-3.67476e-06
4.55024e-06
-3.36328e-06
4.81858e-06
-3.00031e-06
5.01311e-06
-2.5888e-06
5.10757e-06
-2.13722e-06
5.07309e-06
-1.66102e-06
4.87972e-06
-1.18375e-06
4.49875e-06
-7.37404e-07
3.90577e-06
-3.61487e-07
3.08392e-06
-1.00559e-07
2.02702e-06
7.43129e-07
-8.1662e-08
-6.23232e-07
-2.97117e-07
-1.69108e-06
-6.13669e-07
-2.5696e-06
-9.99074e-07
-3.25896e-06
-1.42418e-06
-3.76807e-06
-1.86441e-06
-4.11199e-06
-2.30044e-06
-4.30988e-06
-2.71807e-06
-4.383e-06
-3.10778e-06
-4.35303e-06
-3.46391e-06
-4.24067e-06
-3.78384e-06
-4.06488e-06
-4.06722e-06
-3.84227e-06
-4.31527e-06
-3.58696e-06
-4.53018e-06
-3.31052e-06
-4.71473e-06
-3.02217e-06
-4.87193e-06
-2.72892e-06
-5.00478e-06
-2.43592e-06
-5.11617e-06
-2.14665e-06
-5.20874e-06
-1.86321e-06
-5.28482e-06
-1.58659e-06
-5.34643e-06
-1.3168e-06
-5.39525e-06
-1.05316e-06
-5.43261e-06
-7.94379e-07
-5.45949e-06
-5.38738e-07
-5.47653e-06
-2.84208e-07
-5.48403e-06
-2.85642e-08
-5.48192e-06
2.30503e-07
-5.46976e-06
4.9528e-07
-5.44671e-06
7.67908e-07
-5.41149e-06
1.05026e-06
-5.36239e-06
1.34378e-06
-5.2972e-06
1.6493e-06
-5.21322e-06
1.96686e-06
-5.10723e-06
2.29544e-06
-4.97556e-06
2.63265e-06
-4.81414e-06
2.97448e-06
-4.61869e-06
3.31487e-06
-4.385e-06
3.64544e-06
-4.10928e-06
3.95509e-06
-3.78883e-06
4.22979e-06
-3.42274e-06
4.45249e-06
-3.01283e-06
4.60321e-06
-2.56479e-06
4.65953e-06
-2.08922e-06
4.59752e-06
-1.60261e-06
4.39311e-06
-1.12793e-06
4.02407e-06
-6.9446e-07
3.4723e-06
-3.36777e-07
2.72623e-06
-9.26813e-08
1.78293e-06
6.50448e-07
-7.7303e-08
-5.45929e-07
-2.83265e-07
-1.48512e-06
-5.89466e-07
-2.2634e-06
-9.6765e-07
-2.88078e-06
-1.39173e-06
-3.34399e-06
-1.83904e-06
-3.66468e-06
-2.29095e-06
-3.85796e-06
-2.73304e-06
-3.94092e-06
-3.15479e-06
-3.93127e-06
-3.54914e-06
-3.84633e-06
-3.91185e-06
-3.70218e-06
-4.2409e-06
-3.51321e-06
-4.53597e-06
-3.29189e-06
-4.79788e-06
-3.04862e-06
-5.02822e-06
-2.79183e-06
-5.22904e-06
-2.5281e-06
-5.40259e-06
-2.26236e-06
-5.55118e-06
-1.99806e-06
-5.67698e-06
-1.73741e-06
-5.78203e-06
-1.48154e-06
-5.86808e-06
-1.23075e-06
-5.93664e-06
-9.84599e-07
-5.98891e-06
-7.42116e-07
-6.02574e-06
-5.019e-07
-6.0477e-06
-2.62255e-07
-6.05496e-06
-2.13016e-08
-6.04737e-06
2.22915e-07
-6.0244e-06
4.72312e-07
-5.98514e-06
7.28648e-07
-5.92828e-06
9.93399e-07
-5.85211e-06
1.2676e-06
-5.75452e-06
1.5517e-06
-5.633e-06
1.84534e-06
-5.48471e-06
2.14714e-06
-5.30653e-06
2.45447e-06
-5.09523e-06
2.76317e-06
-4.84762e-06
3.06727e-06
-4.56093e-06
3.35875e-06
-4.23315e-06
3.6273e-06
-3.86359e-06
3.86024e-06
-3.45358e-06
4.04248e-06
-3.00719e-06
4.15682e-06
-2.53207e-06
4.1844e-06
-2.04017e-06
4.10562e-06
-1.54839e-06
3.90133e-06
-1.07869e-06
3.55437e-06
-6.57804e-07
3.05141e-06
-3.16165e-07
2.38459e-06
-8.62222e-08
1.55299e-06
5.64226e-07
-7.39463e-08
-4.71983e-07
-2.72485e-07
-1.28658e-06
-5.7038e-07
-1.9655e-06
-9.42427e-07
-2.50873e-06
-1.365e-06
-2.92142e-06
-1.81705e-06
-3.21263e-06
-2.28074e-06
-3.39427e-06
-2.74166e-06
-3.48e-06
-3.18871e-06
-3.48423e-06
-3.6138e-06
-3.42123e-06
-4.01148e-06
-3.30449e-06
-4.37843e-06
-3.14627e-06
-4.713e-06
-2.95732e-06
-5.01484e-06
-2.74678e-06
-5.28448e-06
-2.52219e-06
-5.52308e-06
-2.2895e-06
-5.73216e-06
-2.05328e-06
-5.91341e-06
-1.81681e-06
-6.06856e-06
-1.58225e-06
-6.19926e-06
-1.35084e-06
-6.307e-06
-1.12301e-06
-6.39306e-06
-8.98541e-07
-6.45846e-06
-6.76719e-07
-6.50393e-06
-4.56431e-07
-6.52989e-06
-2.36291e-07
-6.53645e-06
-1.47455e-08
-6.52335e-06
2.09819e-07
-6.49001e-06
4.38972e-07
-6.43548e-06
6.7412e-07
-6.35847e-06
9.16388e-07
-6.25734e-06
1.16648e-06
-6.13015e-06
1.42451e-06
-5.97468e-06
1.68987e-06
-5.78853e-06
1.96099e-06
-5.56921e-06
2.23515e-06
-5.31432e-06
2.50829e-06
-5.0218e-06
2.77474e-06
-4.69018e-06
3.02713e-06
-4.31905e-06
3.25617e-06
-3.90947e-06
3.45066e-06
-3.46458e-06
3.59759e-06
-2.99015e-06
3.68239e-06
-2.49524e-06
3.68949e-06
-1.99263e-06
3.60301e-06
-1.49916e-06
3.40786e-06
-1.03568e-06
3.0909e-06
-6.26607e-07
2.64233e-06
-2.98943e-07
2.05693e-06
-8.09002e-08
1.33494e-06
4.83325e-07
-7.13592e-08
-4.00624e-07
-2.64106e-07
-1.09383e-06
-5.55389e-07
-1.67422e-06
-9.22336e-07
-2.14178e-06
-1.34326e-06
-2.5005e-06
-1.79849e-06
-2.7574e-06
-2.27094e-06
-2.92182e-06
-2.74632e-06
-3.00461e-06
-3.21322e-06
-3.01733e-06
-3.66286e-06
-2.97159e-06
-4.08885e-06
-2.8785e-06
-4.48684e-06
-2.74828e-06
-4.85415e-06
-2.59002e-06
-5.18939e-06
-2.41154e-06
-5.4922e-06
-2.21937e-06
-5.76293e-06
-2.01877e-06
-6.00242e-06
-1.8138e-06
-6.21179e-06
-1.60744e-06
-6.3923e-06
-1.40175e-06
-6.54523e-06
-1.19791e-06
-6.67177e-06
-9.96462e-07
-6.77298e-06
-7.97336e-07
-6.84967e-06
-6.00024e-07
-6.90244e-06
-4.03665e-07
-6.93157e-06
-2.07153e-07
-6.93708e-06
-9.23618e-09
-6.91865e-06
1.91386e-07
-6.87564e-06
3.95964e-07
-6.80711e-06
6.05592e-07
-6.71182e-06
8.21097e-07
-6.58826e-06
1.04291e-06
-6.43468e-06
1.27094e-06
-6.24921e-06
1.50441e-06
-6.02992e-06
1.7417e-06
-5.77495e-06
1.98019e-06
-5.48274e-06
2.21607e-06
-5.15223e-06
2.44423e-06
-4.78317e-06
2.65807e-06
-4.37651e-06
2.8495e-06
-3.93476e-06
3.00891e-06
-3.4625e-06
3.12533e-06
-2.96681e-06
3.18671e-06
-2.45769e-06
3.18038e-06
-1.94838e-06
3.0937e-06
-1.45544e-06
2.91491e-06
-9.98596e-07
2.63405e-06
-6.0025e-07
2.24399e-06
-2.84606e-07
1.74129e-06
-7.65197e-08
1.12686e-06
4.06806e-07
-6.93733e-08
-3.3125e-07
-2.57631e-07
-9.05573e-07
-5.43708e-07
-1.38814e-06
-9.06506e-07
-1.77899e-06
-1.32586e-06
-2.08115e-06
-1.78321e-06
-2.30005e-06
-2.26214e-06
-2.4429e-06
-2.74857e-06
-2.51817e-06
-3.23092e-06
-2.53499e-06
-3.69993e-06
-2.50258e-06
-4.14853e-06
-2.4299e-06
-4.57158e-06
-2.32523e-06
-4.96554e-06
-2.19606e-06
-5.32822e-06
-2.04886e-06
-5.65848e-06
-1.88911e-06
-5.95597e-06
-1.72128e-06
-6.22091e-06
-1.54885e-06
-6.45392e-06
-1.37443e-06
-6.65583e-06
-1.19984e-06
-6.82756e-06
-1.02619e-06
-6.97001e-06
-8.54008e-07
-7.084e-06
-6.83348e-07
-7.17017e-06
-5.13859e-07
-7.22894e-06
-3.44891e-07
-7.2605e-06
-1.7559e-07
-7.26477e-06
-4.97244e-09
-7.24136e-06
1.67978e-07
-7.18962e-06
3.44229e-07
-7.10864e-06
5.24607e-07
-6.99724e-06
7.09694e-07
-6.85405e-06
8.99726e-07
-6.67758e-06
1.09447e-06
-6.46629e-06
1.29311e-06
-6.2187e-06
1.49411e-06
-5.93357e-06
1.69506e-06
-5.6101e-06
1.8926e-06
-5.24813e-06
2.08226e-06
-4.84847e-06
2.25841e-06
-4.41319e-06
2.41422e-06
-3.946e-06
2.54172e-06
-3.4526e-06
2.63192e-06
-2.94101e-06
2.67512e-06
-2.4219e-06
2.66126e-06
-1.90868e-06
2.58049e-06
-1.41754e-06
2.42377e-06
-9.67171e-07
2.18368e-06
-5.78275e-07
1.85509e-06
-2.72795e-07
1.43581e-06
-7.29433e-08
9.27006e-07
3.33862e-07
-6.78666e-08
-2.63384e-07
-2.52693e-07
-7.20746e-07
-5.3474e-07
-1.10609e-06
-8.94245e-07
-1.41948e-06
-1.31221e-06
-1.66319e-06
-1.77097e-06
-1.84128e-06
-2.25465e-06
-1.95921e-06
-2.74943e-06
-2.02339e-06
-3.24361e-06
-2.04081e-06
-3.72764e-06
-2.01856e-06
-4.19395e-06
-1.96358e-06
-4.63679e-06
-1.88239e-06
-5.05197e-06
-1.78087e-06
-5.43665e-06
-1.66418e-06
-5.78904e-06
-1.53673e-06
-6.10821e-06
-1.40211e-06
-6.39389e-06
-1.26318e-06
-6.64622e-06
-1.1221e-06
-6.86567e-06
-9.80395e-07
-7.05282e-06
-8.39031e-07
-7.20833e-06
-6.985e-07
-7.33278e-06
-5.58895e-07
-7.42665e-06
-4.19991e-07
-7.49022e-06
-2.8132e-07
-7.52357e-06
-1.42239e-07
-7.52653e-06
-2.01023e-09
-7.49869e-06
1.40134e-07
-7.43938e-06
2.84916e-07
-7.3477e-06
4.32933e-07
-7.22259e-06
5.8458e-07
-7.06282e-06
7.39957e-07
-6.86712e-06
8.98778e-07
-6.63429e-06
1.06027e-06
-6.36326e-06
1.22308e-06
-6.05336e-06
1.38516e-06
-5.70443e-06
1.54367e-06
-5.31709e-06
1.69493e-06
-4.89303e-06
1.83435e-06
-4.43524e-06
1.95643e-06
-3.94836e-06
2.05484e-06
-3.43894e-06
2.1225e-06
-2.9157e-06
2.15188e-06
-2.38971e-06
2.13528e-06
-1.87445e-06
2.06522e-06
-1.38569e-06
1.93501e-06
-9.41214e-07
1.73921e-06
-5.60351e-07
1.47423e-06
-2.6325e-07
1.13871e-06
-7.00745e-08
7.33831e-07
2.63788e-07
-6.67505e-08
-1.96633e-07
-2.4902e-07
-5.38476e-07
-5.28036e-07
-8.27079e-07
-8.85018e-07
-1.0625e-06
-1.30184e-06
-1.24637e-06
-1.76151e-06
-1.38161e-06
-2.24862e-06
-1.4721e-06
-2.74954e-06
-1.52248e-06
-3.25255e-06
-1.5378e-06
-3.74789e-06
-1.52322e-06
-4.22764e-06
-1.48383e-06
-4.68561e-06
-1.42442e-06
-5.11712e-06
-1.34936e-06
-5.5188e-06
-1.2625e-06
-5.88839e-06
-1.16714e-06
-6.2245e-06
-1.066e-06
-6.52641e-06
-9.61265e-07
-6.79392e-06
-8.54587e-07
-7.02717e-06
-7.47151e-07
-7.22647e-06
-6.39722e-07
-7.39227e-06
-5.32709e-07
-7.52494e-06
-4.26218e-07
-7.62482e-06
-3.2011e-07
-7.69208e-06
-2.14064e-07
-7.72669e-06
-1.07627e-07
-7.72843e-06
-2.71184e-10
-7.69684e-06
1.08547e-07
-7.63127e-06
2.19339e-07
-7.53085e-06
3.32514e-07
-7.39459e-06
4.48323e-07
-7.22142e-06
5.66789e-07
-7.01028e-06
6.87637e-07
-6.76023e-06
8.10221e-07
-6.47059e-06
9.33447e-07
-6.14114e-06
1.0557e-06
-5.77227e-06
1.1748e-06
-5.36523e-06
1.28789e-06
-4.9224e-06
1.39152e-06
-4.44749e-06
1.48152e-06
-3.94584e-06
1.55319e-06
-3.42463e-06
1.6013e-06
-2.89308e-06
1.62033e-06
-2.36251e-06
1.6047e-06
-1.84636e-06
1.54907e-06
-1.36003e-06
1.44868e-06
-9.20583e-07
1.29976e-06
-5.46243e-07
1.09989e-06
-2.55791e-07
8.48253e-07
-6.78452e-08
5.45885e-07
1.95943e-07
-6.59623e-08
-1.30671e-07
-2.46419e-07
-3.5802e-07
-5.23269e-07
-5.50228e-07
-8.78424e-07
-7.07345e-07
-1.29437e-06
-8.30428e-07
-1.75463e-06
-9.21347e-07
-2.2441e-06
-9.82625e-07
-2.74933e-06
-1.01726e-06
-3.2586e-06
-1.02852e-06
-3.76202e-06
-1.0198e-06
-4.25144e-06
-9.9441e-07
-4.72035e-06
-9.55513e-07
-5.16372e-06
-9.05992e-07
-5.57782e-06
-8.48405e-07
-5.96e-06
-7.84952e-07
-6.30855e-06
-7.17458e-07
-6.62242e-06
-6.47389e-07
-6.90114e-06
-5.75867e-07
-7.14459e-06
-5.03701e-07
-7.35289e-06
-4.3142e-07
-7.52629e-06
-3.59314e-07
-7.66504e-06
-2.87471e-07
-7.76933e-06
-2.15814e-07
-7.83925e-06
-1.44144e-07
-7.87471e-06
-7.21722e-08
-7.87542e-06
4.39226e-10
-7.84091e-06
7.40385e-08
-7.77052e-06
1.48949e-07
-7.66343e-06
2.25426e-07
-7.51872e-06
3.03615e-07
-7.33544e-06
3.83504e-07
-7.11269e-06
4.64882e-07
-6.84975e-06
5.47286e-07
-6.54625e-06
6.2995e-07
-6.20231e-06
7.11765e-07
-5.81875e-06
7.91233e-07
-5.3973e-06
8.66442e-07
-4.94083e-06
9.35048e-07
-4.4536e-06
9.94292e-07
-3.94145e-06
1.04104e-06
-3.412e-06
1.07185e-06
-2.87479e-06
1.08312e-06
-2.34129e-06
1.07121e-06
-1.82489e-06
1.03267e-06
-1.34069e-06
9.6448e-07
-9.05181e-07
8.64251e-07
-5.35785e-07
7.30489e-07
-2.50291e-07
5.6276e-07
-6.62086e-08
3.61803e-07
1.29734e-07
-6.5459e-08
-6.52123e-08
-2.44754e-07
-1.78725e-07
-5.20211e-07
-2.74771e-07
-8.74178e-07
-3.53378e-07
-1.28954e-06
-4.15065e-07
-1.75014e-06
-4.60749e-07
-2.2411e-06
-4.91667e-07
-2.74906e-06
-5.09292e-07
-3.26235e-06
-5.15237e-07
-3.77097e-06
-5.1117e-07
-4.26665e-06
-4.98737e-07
-4.74266e-06
-4.79501e-07
-5.19375e-06
-4.54898e-07
-5.61595e-06
-4.26204e-07
-6.00639e-06
-3.94516e-07
-6.3631e-06
-3.60751e-07
-6.68484e-06
-3.25646e-07
-6.97094e-06
-2.89766e-07
-7.22112e-06
-2.53522e-07
-7.43536e-06
-2.17184e-07
-7.61377e-06
-1.80903e-07
-7.75651e-06
-1.44728e-07
-7.8637e-06
-1.08625e-07
-7.93534e-06
-7.2498e-08
-7.97131e-06
-3.62079e-08
-7.97128e-06
4.1024e-10
-7.93477e-06
3.75261e-08
-7.86111e-06
7.52963e-08
-7.74953e-06
1.13842e-07
-7.59914e-06
1.5323e-07
-7.40909e-06
1.93447e-07
-7.17858e-06
2.34378e-07
-6.90708e-06
2.7578e-07
-6.59439e-06
3.17263e-07
-6.24088e-06
3.58259e-07
-5.84766e-06