/*--------------------------------*- C++ -*----------------------------------*\
  =========                 |
  \\      /  F ield         | OpenFOAM: The Open Source CFD Toolbox
   \\    /   O peration     | Website:  https://openfoam.org
    \\  /    A nd           | Version:  7
     \\/     M anipulation  |
\*---------------------------------------------------------------------------*/
FoamFile
{
    version     2.0;
    format      ascii;
    class       volVectorField;
    location    "0.046";
    object      U;
}
// * * * * * * * * * * * * * * * * * * * * * * * * * * * * * * * * * * * * * //

dimensions      [0 1 -1 0 0 0 0];

internalField   nonuniform List<vector> 
2500
(
(0.290248 -0.152409 0)
(0.389525 -0.12823 0)
(0.565406 -0.0747302 0)
(0.683232 -0.0422305 0)
(0.752827 -0.02453 0)
(0.797847 -0.0148901 0)
(0.829024 -0.00958333 0)
(0.851509 -0.00656043 0)
(0.86833 -0.00473661 0)
(0.881309 -0.00356192 0)
(0.891555 -0.00275811 0)
(0.899776 -0.00217974 0)
(0.90645 -0.00174692 0)
(0.911913 -0.0014132 0)
(0.916408 -0.00114992 0)
(0.920118 -0.000938408 0)
(0.923182 -0.000765855 0)
(0.925708 -0.000623126 0)
(0.92778 -0.000503459 0)
(0.929465 -0.000401686 0)
(0.930814 -0.000313738 0)
(0.931868 -0.000236317 0)
(0.932657 -0.000166667 0)
(0.933204 -0.000102413 0)
(0.933525 -4.14433e-05 0)
(0.933626 1.8202e-05 0)
(0.933511 7.85763e-05 0)
(0.933173 0.000141479 0)
(0.932603 0.000208948 0)
(0.93178 0.000283245 0)
(0.93068 0.000366953 0)
(0.929266 0.000463151 0)
(0.927491 0.000575643 0)
(0.925296 0.000709282 0)
(0.922601 0.000870461 0)
(0.919308 0.00106786 0)
(0.915283 0.00131368 0)
(0.910353 0.00162568 0)
(0.904283 0.00203093 0)
(0.896747 0.00257288 0)
(0.887279 0.00332554 0)
(0.875184 0.00442323 0)
(0.859374 0.00612458 0)
(0.838048 0.00895033 0)
(0.808152 0.0139604 0)
(0.764417 0.0232467 0)
(0.695908 0.0407716 0)
(0.57794 0.0737468 0)
(0.398046 0.128744 0)
(0.293867 0.153784 0)
(0.00108163 -0.29488 0)
(0.0168462 -0.298603 0)
(0.152308 -0.213012 0)
(0.282842 -0.145323 0)
(0.388014 -0.0996398 0)
(0.471239 -0.0698158 0)
(0.53667 -0.0504661 0)
(0.588158 -0.037668 0)
(0.629044 -0.0289097 0)
(0.661887 -0.0226895 0)
(0.68855 -0.018117 0)
(0.71039 -0.0146541 0)
(0.728407 -0.0119651 0)
(0.743349 -0.00983384 0)
(0.755782 -0.00811543 0)
(0.766146 -0.00670956 0)
(0.774783 -0.00554438 0)
(0.781963 -0.00456684 0)
(0.7879 -0.00373664 0)
(0.792767 -0.00302231 0)
(0.796698 -0.00239864 0)
(0.7998 -0.00184483 0)
(0.802155 -0.00134328 0)
(0.803823 -0.000878595 0)
(0.804844 -0.000436879 0)
(0.805242 -5.12752e-06 0)
(0.805021 0.000429421 0)
(0.804171 0.000879465 0)
(0.80266 0.00135849 0)
(0.800442 0.0018813 0)
(0.797445 0.00246473 0)
(0.793578 0.00312865 0)
(0.788716 0.00389726 0)
(0.782703 0.00480094 0)
(0.775337 0.00587894 0)
(0.76636 0.00718334 0)
(0.75544 0.00878515 0)
(0.742147 0.0107841 0)
(0.725914 0.0133245 0)
(0.705983 0.0166225 0)
(0.681327 0.0210139 0)
(0.650529 0.0270405 0)
(0.611612 0.0356073 0)
(0.561803 0.0482663 0)
(0.497372 0.0676766 0)
(0.413855 0.0981414 0)
(0.306351 0.145772 0)
(0.170532 0.217297 0)
(0.0269029 0.307193 0)
(0.00518479 0.303006 0)
(-0.0329199 -0.250375 0)
(-0.061591 -0.34403 0)
(-0.0114901 -0.310586 0)
(0.0708243 -0.251526 0)
(0.158937 -0.195995 0)
(0.241461 -0.151417 0)
(0.314039 -0.117705 0)
(0.375977 -0.0925931 0)
(0.428175 -0.0737884 0)
(0.471982 -0.0595124 0)
(0.508738 -0.048492 0)
(0.539618 -0.0398394 0)
(0.565608 -0.0329366 0)
(0.587511 -0.0273502 0)
(0.605982 -0.0227705 0)
(0.621553 -0.0189723 0)
(0.634656 -0.0157877 0)
(0.645642 -0.013089 0)
(0.654797 -0.0107767 0)
(0.662354 -0.00877164 0)
(0.668502 -0.00700904 0)
(0.673387 -0.00543478 0)
(0.677127 -0.00400237 0)
(0.679806 -0.00267068 0)
(0.681484 -0.00140225 0)
(0.682191 -0.000161751 0)
(0.681936 0.00108526 0)
(0.680701 0.00237377 0)
(0.678444 0.00374057 0)
(0.675093 0.00522581 0)
(0.670548 0.00687489 0)
(0.664675 0.00874083 0)
(0.657298 0.0108875 0)
(0.648196 0.0133939 0)
(0.637089 0.0163602 0)
(0.623628 0.0199168 0)
(0.607372 0.0242365 0)
(0.587768 0.0295543 0)
(0.564122 0.0361958 0)
(0.535553 0.0446214 0)
(0.50096 0.0554935 0)
(0.458981 0.0697763 0)
(0.407998 0.0888727 0)
(0.346257 0.114781 0)
(0.272326 0.150146 0)
(0.186335 0.197731 0)
(0.0923146 0.258073 0)
(0.00187675 0.323319 0)
(-0.0569202 0.361549 0)
(-0.0321684 0.263989 0)
(-0.026769 -0.190609 0)
(-0.0654181 -0.332993 0)
(-0.0645321 -0.351485 0)
(-0.0274711 -0.319226 0)
(0.0296574 -0.27196 0)
(0.0937735 -0.225408 0)
(0.157187 -0.185046 0)
(0.216098 -0.151785 0)
(0.268989 -0.124895 0)
(0.315569 -0.103248 0)
(0.356137 -0.0857644 0)
(0.391236 -0.0715455 0)
(0.421477 -0.0598846 0)
(0.447455 -0.0502374 0)
(0.469709 -0.0421864 0)
(0.488717 -0.0354098 0)
(0.504891 -0.0296569 0)
(0.518583 -0.0247295 0)
(0.530089 -0.0204683 0)
(0.539658 -0.0167432 0)
(0.547494 -0.0134453 0)
(0.553762 -0.0104819 0)
(0.558591 -0.00777172 0)
(0.562079 -0.00524227 0)
(0.564291 -0.00282648 0)
(0.565263 -0.000460696 0)
(0.565002 0.00191757 0)
(0.563488 0.0043718 0)
(0.560666 0.00696865 0)
(0.556454 0.00978051 0)
(0.550732 0.0128885 0)
(0.543345 0.0163864 0)
(0.53409 0.0203852 0)
(0.522719 0.0250199 0)
(0.508924 0.0304581 0)
(0.492332 0.0369116 0)
(0.472489 0.0446529 0)
(0.448857 0.0540374 0)
(0.420799 0.065533 0)
(0.387582 0.0797601 0)
(0.348403 0.0975375 0)
(0.302458 0.119927 0)
(0.24912 0.148237 0)
(0.188301 0.183903 0)
(0.121165 0.227996 0)
(0.0513825 0.279834 0)
(-0.0130012 0.33368 0)
(-0.0577683 0.372236 0)
(-0.0646591 0.355946 0)
(-0.027283 0.204812 0)
(-0.017845 -0.149168 0)
(-0.053099 -0.302925 0)
(-0.0736187 -0.35486 0)
(-0.0665952 -0.350217 0)
(-0.0374429 -0.319535 0)
(0.00462615 -0.280176 0)
(0.0524046 -0.240725 0)
(0.101132 -0.204799 0)
(0.147968 -0.17351 0)
(0.191412 -0.146831 0)
(0.230815 -0.124287 0)
(0.266022 -0.105282 0)
(0.297157 -0.0892401 0)
(0.324476 -0.0756536 0)
(0.348295 -0.0640943 0)
(0.368941 -0.0542069 0)
(0.386729 -0.0456981 0)
(0.401946 -0.0383247 0)
(0.41485 -0.0318834 0)
(0.425665 -0.0262022 0)
(0.434582 -0.0211336 0)
(0.441757 -0.0165484 0)
(0.447316 -0.0123316 0)
(0.451353 -0.00837837 0)
(0.453932 -0.00459063 0)
(0.455087 -0.000874378 0)
(0.454823 0.00286323 0)
(0.453113 0.00671663 0)
(0.449902 0.0107848 0)
(0.4451 0.0151744 0)
(0.438584 0.0200039 0)
(0.430192 0.0254079 0)
(0.419724 0.0315434 0)
(0.406936 0.0385964 0)
(0.391539 0.0467916 0)
(0.373194 0.0564041 0)
(0.351517 0.0677732 0)
(0.326082 0.0813193 0)
(0.296441 0.097562 0)
(0.262167 0.117133 0)
(0.222929 0.140776 0)
(0.178637 0.169297 0)
(0.129695 0.20342 0)
(0.0774125 0.243418 0)
(0.024593 0.288316 0)
(-0.0236799 0.334288 0)
(-0.0593786 0.371789 0)
(-0.0719269 0.381224 0)
(-0.0543146 0.328196 0)
(-0.0186409 0.162487 0)
(-0.0114242 -0.120913 0)
(-0.0402601 -0.269935 0)
(-0.0678483 -0.340103 0)
(-0.0777982 -0.357247 0)
(-0.0689957 -0.343922 0)
(-0.0462323 -0.315621 0)
(-0.0146896 -0.281733 0)
(0.0213673 -0.247406 0)
(0.0588262 -0.21517 0)
(0.095626 -0.186063 0)
(0.130514 -0.160336 0)
(0.162803 -0.13785 0)
(0.192178 -0.118306 0)
(0.218561 -0.101349 0)
(0.242011 -0.0866296 0)
(0.262666 -0.0738254 0)
(0.280704 -0.0626469 0)
(0.296313 -0.0528393 0)
(0.309678 -0.0441788 0)
(0.320972 -0.036468 0)
(0.330347 -0.0295316 0)
(0.337935 -0.0232118 0)
(0.34384 -0.0173647 0)
(0.348146 -0.0118562 0)
(0.350904 -0.00655957 0)
(0.352143 -0.00135152 0)
(0.351863 0.00389028 0)
(0.350034 0.00929043 0)
(0.346602 0.0149791 0)
(0.341478 0.0210955 0)
(0.334546 0.0277923 0)
(0.325658 0.0352398 0)
(0.314634 0.0436324 0)
(0.301265 0.0531941 0)
(0.285313 0.0641867 0)
(0.26652 0.0769171 0)
(0.244619 0.0917454 0)
(0.219358 0.109089 0)
(0.190538 0.129421 0)
(0.158083 0.153247 0)
(0.122138 0.181053 0)
(0.0832394 0.213175 0)
(0.0425477 0.249546 0)
(0.00215977 0.289211 0)
(-0.0345566 0.32949 0)
(-0.0627547 0.364628 0)
(-0.0763265 0.383855 0)
(-0.0693708 0.369335 0)
(-0.0422867 0.295344 0)
(-0.0121801 0.133 0)
(-0.00746956 -0.100914 0)
(-0.0304376 -0.239652 0)
(-0.0586516 -0.318002 0)
(-0.0770192 -0.350114 0)
(-0.0814509 -0.351533 0)
(-0.0734619 -0.334738 0)
(-0.056069 -0.308484 0)
(-0.0324298 -0.278389 0)
(-0.00527386 -0.247791 0)
(0.0233007 -0.218513 0)
(0.0518052 -0.191445 0)
(0.0792488 -0.166923 0)
(0.105016 -0.144974 0)
(0.128759 -0.125464 0)
(0.150314 -0.10818 0)
(0.169639 -0.0928839 0)
(0.186765 -0.079331 0)
(0.20177 -0.0672873 0)
(0.214752 -0.0565328 0)
(0.225818 -0.0468635 0)
(0.235068 -0.0380902 0)
(0.242597 -0.0300371 0)
(0.24848 -0.0225391 0)
(0.252779 -0.0154393 0)
(0.25553 -0.00858648 0)
(0.256753 -0.00183232 0)
(0.256441 0.00497153 0)
(0.254564 0.0119763 0)
(0.251071 0.0193392 0)
(0.245883 0.0272271 0)
(0.238899 0.0358198 0)
(0.229998 0.0453143 0)
(0.219037 0.0559292 0)
(0.205858 0.0679085 0)
(0.190301 0.0815258 0)
(0.172209 0.0970854 0)
(0.151457 0.114921 0)
(0.127983 0.135385 0)
(0.101835 0.158824 0)
(0.0732518 0.185527 0)
(0.0427606 0.215627 0)
(0.0113189 0.248924 0)
(-0.0195189 0.284592 0)
(-0.0474366 0.320699 0)
(-0.0692826 0.353503 0)
(-0.0812593 0.376517 0)
(-0.0795716 0.379498 0)
(-0.0620356 0.347893 0)
(-0.0327434 0.263875 0)
(-0.00812505 0.111656 0)
(-0.00513364 -0.086247 0)
(-0.0235405 -0.213338 0)
(-0.0499209 -0.293772 0)
(-0.0718191 -0.335135 0)
(-0.084259 -0.347786 0)
(-0.0867704 -0.341221 0)
(-0.0806492 -0.32293 0)
(-0.0678845 -0.298305 0)
(-0.0505491 -0.270958 0)
(-0.0304628 -0.243171 0)
(-0.00907654 -0.216295 0)
(0.0125252 -0.191062 0)
(0.0335732 -0.167811 0)
(0.0535496 -0.14664 0)
(0.0721264 -0.127501 0)
(0.0891136 -0.110268 0)
(0.104418 -0.0947709 0)
(0.118012 -0.08082 0)
(0.129907 -0.0682206 0)
(0.14014 -0.0567792 0)
(0.148759 -0.0463068 0)
(0.155812 -0.0366206 0)
(0.161343 -0.0275438 0)
(0.165387 -0.018904 0)
(0.167964 -0.0105323 0)
(0.169081 -0.00226069 0)
(0.168726 0.00607947 0)
(0.16687 0.0146604 0)
(0.163467 0.0236604 0)
(0.158456 0.0332661 0)
(0.151757 0.0436756 0)
(0.143281 0.0551011 0)
(0.132934 0.0677702 0)
(0.120622 0.0819278 0)
(0.106265 0.0978339 0)
(0.0898196 0.115759 0)
(0.0712977 0.135972 0)
(0.0508095 0.158715 0)
(0.0286126 0.184161 0)
(0.00517888 0.212342 0)
(-0.0187219 0.243026 0)
(-0.0419295 0.275525 0)
(-0.0628089 0.308419 0)
(-0.0792199 0.339155 0)
(-0.0886276 0.363544 0)
(-0.0884854 0.375234 0)
(-0.0769733 0.365355 0)
(-0.0543073 0.322773 0)
(-0.0259035 0.235642 0)
(-0.00570164 0.0956471 0)
(-0.0037365 -0.0750344 0)
(-0.0187759 -0.190741 0)
(-0.0426761 -0.269786 0)
(-0.0655588 -0.316186 0)
(-0.0825672 -0.336748 0)
(-0.0922099 -0.338485 0)
(-0.094611 -0.327492 0)
(-0.0907822 -0.308577 0)
(-0.082109 -0.285268 0)
(-0.0699989 -0.260019 0)
(-0.0557023 -0.234451 0)
(-0.0402469 -0.209581 0)
(-0.0244317 -0.186 0)
(-0.0088512 -0.164015 0)
(0.00606995 -0.143741 0)
(0.0200413 -0.125171 0)
(0.0328742 -0.108224 0)
(0.0444542 -0.0927714 0)
(0.0547194 -0.0786571 0)
(0.0636429 -0.0657117 0)
(0.0712193 -0.0537587 0)
(0.077455 -0.0426186 0)
(0.0823601 -0.0321116 0)
(0.0859432 -0.0220581 0)
(0.0882073 -0.0122785 0)
(0.0891466 -0.00259207 0)
(0.0887455 0.00718369 0)
(0.0869778 0.0172351 0)
(0.0838069 0.0277538 0)
(0.0791876 0.0389381 0)
(0.0730689 0.0509942 0)
(0.0653991 0.0641369 0)
(0.0561329 0.0785888 0)
(0.0452417 0.0945775 0)
(0.0327286 0.112329 0)
(0.0186481 0.132056 0)
(0.00313341 0.153936 0)
(-0.0135687 0.178079 0)
(-0.0310539 0.204471 0)
(-0.0487093 0.232889 0)
(-0.0656597 0.262778 0)
(-0.0807231 0.293078 0)
(-0.0924002 0.321981 0)
(-0.0989376 0.346651 0)
(-0.0985348 0.362914 0)
(-0.0897723 0.365034 0)
(-0.0722568 0.345759 0)
(-0.0475289 0.296895 0)
(-0.0210921 0.210758 0)
(-0.00423587 0.0831422 0)
(-0.00287019 -0.0660958 0)
(-0.0154548 -0.171221 0)
(-0.0369576 -0.246984 0)
(-0.0596069 -0.29549 0)
(-0.0790573 -0.321211 0)
(-0.0933994 -0.329253 0)
(-0.102044 -0.32444 0)
(-0.105281 -0.310871 0)
(-0.103898 -0.291787 0)
(-0.0988736 -0.269608 0)
(-0.0911871 -0.246066 0)
(-0.0817202 -0.222343 0)
(-0.0712153 -0.199212 0)
(-0.0602682 -0.177143 0)
(-0.0493398 -0.156393 0)
(-0.0387745 -0.13707 0)
(-0.0288226 -0.119181 0)
(-0.01966 -0.102662 0)
(-0.0114063 -0.087406 0)
(-0.00414037 -0.0732759 0)
(0.00208765 -0.060116 0)
(0.00724638 -0.0477589 0)
(0.0113156 -0.0360298 0)
(0.0142805 -0.0247492 0)
(0.0161272 -0.0137339 0)
(0.0168404 -0.00279753 0)
(0.0164013 0.00824939 0)
(0.0147875 0.0196 0)
(0.0119736 0.0314514 0)
(0.0079334 0.0440048 0)
(0.0026439 0.0574648 0)
(-0.00390918 0.0720379 0)
(-0.0117231 0.0879287 0)
(-0.0207667 0.105334 0)
(-0.0309659 0.12443 0)
(-0.0421837 0.145359 0)
(-0.0541966 0.168196 0)
(-0.0666656 0.192913 0)
(-0.0791034 0.21932 0)
(-0.0908432 0.246975 0)
(-0.101014 0.275078 0)
(-0.108538 0.302319 0)
(-0.112171 0.326705 0)
(-0.110618 0.345377 0)
(-0.102768 0.354457 0)
(-0.0880839 0.349031 0)
(-0.0670906 0.32338 0)
(-0.0419335 0.271607 0)
(-0.0176644 0.188803 0)
(-0.00331266 0.0729813 0)
(-0.00230959 -0.0587014 0)
(-0.0130992 -0.154132 0)
(-0.032528 -0.225619 0)
(-0.0544313 -0.274249 0)
(-0.0750654 -0.302986 0)
(-0.0924377 -0.315537 0)
(-0.105571 -0.315663 0)
(-0.114265 -0.306769 0)
(-0.118839 -0.291712 0)
(-0.119886 -0.272757 0)
(-0.118106 -0.251623 0)
(-0.114195 -0.229565 0)
(-0.108787 -0.20746 0)
(-0.102428 -0.185894 0)
(-0.0955667 -0.165236 0)
(-0.0885631 -0.145688 0)
(-0.0816964 -0.127338 0)
(-0.0751792 -0.110186 0)
(-0.06917 -0.0941746 0)
(-0.0637854 -0.0792036 0)
(-0.0591101 -0.0651433 0)
(-0.0552055 -0.0518446 0)
(-0.0521168 -0.0391439 0)
(-0.0498782 -0.0268681 0)
(-0.048517 -0.0148369 0)
(-0.0480562 -0.00286489 0)
(-0.0485159 0.00923776 0)
(-0.0499136 0.021664 0)
(-0.0522626 0.034609 0)
(-0.0555703 0.0482688 0)
(-0.0598331 0.0628379 0)
(-0.0650311 0.0785053 0)
(-0.0711192 0.0954483 0)
(-0.0780167 0.113823 0)
(-0.0855935 0.13375 0)
(-0.0936533 0.155292 0)
(-0.101915 0.178427 0)
(-0.10999 0.202998 0)
(-0.117368 0.228666 0)
(-0.123395 0.254824 0)
(-0.127282 0.280505 0)
(-0.128128 0.304276 0)
(-0.124988 0.324112 0)
(-0.117011 0.337303 0)
(-0.103659 0.340416 0)
(-0.085024 0.329381 0)
(-0.062163 0.299789 0)
(-0.0373999 0.247457 0)
(-0.015162 0.169275 0)
(-0.00270116 0.0644483 0)
(-0.00193165 -0.0523891 0)
(-0.0113959 -0.138934 0)
(-0.0291146 -0.205646 0)
(-0.0501152 -0.253073 0)
(-0.0712165 -0.283212 0)
(-0.0905083 -0.298765 0)
(-0.106835 -0.302645 0)
(-0.119685 -0.297636 0)
(-0.129034 -0.286193 0)
(-0.135162 -0.270363 0)
(-0.138511 -0.251773 0)
(-0.139585 -0.231673 0)
(-0.138887 -0.210987 0)
(-0.136881 -0.190368 0)
(-0.133974 -0.17026 0)
(-0.130509 -0.150942 0)
(-0.126768 -0.132565 0)
(-0.122978 -0.115188 0)
(-0.119319 -0.0987988 0)
(-0.11593 -0.0833346 0)
(-0.112919 -0.0686946 0)
(-0.11037 -0.0547509 0)
(-0.108345 -0.0413559 0)
(-0.106894 -0.0283478 0)
(-0.106053 -0.0155547 0)
(-0.105851 -0.00279748 0)
(-0.106306 0.0101078 0)
(-0.107431 0.0233478 0)
(-0.109227 0.0371093 0)
(-0.111684 0.0515765 0)
(-0.114775 0.066927 0)
(-0.118452 0.0833258 0)
(-0.122635 0.100917 0)
(-0.127206 0.119811 0)
(-0.131997 0.140072 0)
(-0.136776 0.161686 0)
(-0.141234 0.184542 0)
(-0.144974 0.208378 0)
(-0.147504 0.23274 0)
(-0.148236 0.25691 0)
(-0.146505 0.279836 0)
(-0.141617 0.300055 0)
(-0.132925 0.315623 0)
(-0.119963 0.32408 0)
(-0.102632 0.322482 0)
(-0.0814412 0.307535 0)
(-0.0577156 0.275891 0)
(-0.033729 0.224603 0)
(-0.013284 0.151726 0)
(-0.00227533 0.057093 0)
(-0.00166775 -0.0468553 0)
(-0.0101425 -0.125197 0)
(-0.0264824 -0.186905 0)
(-0.046592 -0.232245 0)
(-0.0677701 -0.262589 0)
(-0.0882574 -0.279924 0)
(-0.106843 -0.286507 0)
(-0.122836 -0.284592 0)
(-0.13597 -0.276254 0)
(-0.146282 -0.263297 0)
(-0.153996 -0.247214 0)
(-0.159437 -0.229199 0)
(-0.162974 -0.210171 0)
(-0.164975 -0.190812 0)
(-0.165783 -0.171611 0)
(-0.165705 -0.152896 0)
(-0.165008 -0.134869 0)
(-0.163913 -0.117635 0)
(-0.162605 -0.101223 0)
(-0.161235 -0.0856026 0)
(-0.159922 -0.0707026 0)
(-0.158764 -0.0564178 0)
(-0.157833 -0.042619 0)
(-0.157189 -0.0291595 0)
(-0.156874 -0.0158796 0)
(-0.156918 -0.00261131 0)
(-0.15734 0.0108188 0)
(-0.158143 0.0245858 0)
(-0.159319 0.0388632 0)
(-0.160843 0.0538184 0)
(-0.162669 0.0696072 0)
(-0.164725 0.0863666 0)
(-0.166909 0.104205 0)
(-0.169078 0.123189 0)
(-0.171043 0.143324 0)
(-0.172556 0.164535 0)
(-0.17331 0.186633 0)
(-0.172927 0.209279 0)
(-0.170967 0.231941 0)
(-0.166936 0.253841 0)
(-0.160316 0.273907 0)
(-0.150619 0.290717 0)
(-0.137466 0.302479 0)
(-0.120704 0.307028 0)
(-0.100552 0.301893 0)
(-0.0777744 0.284453 0)
(-0.0537967 0.252187 0)
(-0.0307361 0.203033 0)
(-0.0118369 0.135791 0)
(-0.00196535 0.0506205 0)
(-0.00147822 -0.041894 0)
(-0.00920605 -0.112592 0)
(-0.024446 -0.169209 0)
(-0.0437488 -0.211871 0)
(-0.0648045 -0.241538 0)
(-0.0860221 -0.25969 0)
(-0.106205 -0.268079 0)
(-0.124565 -0.268524 0)
(-0.140679 -0.262761 0)
(-0.1544 -0.25235 0)
(-0.165776 -0.238629 0)
(-0.174977 -0.222704 0)
(-0.182244 -0.205456 0)
(-0.187846 -0.187564 0)
(-0.192056 -0.169533 0)
(-0.195132 -0.151719 0)
(-0.197308 -0.134359 0)
(-0.198791 -0.117591 0)
(-0.199757 -0.101477 0)
(-0.200356 -0.0860175 0)
(-0.200711 -0.0711658 0)
(-0.200924 -0.0568398 0)
(-0.201074 -0.04293 0)
(-0.201223 -0.0293064 0)
(-0.201416 -0.0158249 0)
(-0.201683 -0.00233151 0)
(-0.202039 0.0113328 0)
(-0.202482 0.025328 0)
(-0.202993 0.0398105 0)
(-0.203536 0.0549275 0)
(-0.20405 0.0708108 0)
(-0.204449 0.087568 0)
(-0.204615 0.105272 0)
(-0.204393 0.123948 0)
(-0.203587 0.143554 0)
(-0.201957 0.163959 0)
(-0.199213 0.18492 0)
(-0.19502 0.206045 0)
(-0.189009 0.22676 0)
(-0.180793 0.246272 0)
(-0.170005 0.263534 0)
(-0.156348 0.27722 0)
(-0.139668 0.285721 0)
(-0.120054 0.287174 0)
(-0.0979435 0.279544 0)
(-0.0742431 0.260764 0)
(-0.0503789 0.228949 0)
(-0.0282731 0.18266 0)
(-0.0106961 0.121181 0)
(-0.00173138 0.0448302 0)
(-0.00133913 -0.0373605 0)
(-0.00849791 -0.100864 0)
(-0.0228646 -0.152382 0)
(-0.0414686 -0.191965 0)
(-0.0623122 -0.220305 0)
(-0.083965 -0.238518 0)
(-0.105278 -0.247971 0)
(-0.125422 -0.250127 0)
(-0.143872 -0.246429 0)
(-0.16035 -0.23821 0)
(-0.174766 -0.226646 0)
(-0.18716 -0.212738 0)
(-0.197659 -0.197307 0)
(-0.20644 -0.181005 0)
(-0.213701 -0.164329 0)
(-0.219647 -0.147647 0)
(-0.224471 -0.131213 0)
(-0.228355 -0.115188 0)
(-0.231459 -0.0996586 0)
(-0.233924 -0.0846487 0)
(-0.235868 -0.0701347 0)
(-0.237392 -0.0560553 0)
(-0.238573 -0.0423201 0)
(-0.239475 -0.0288172 0)
(-0.240141 -0.0154191 0)
(-0.240599 -0.0019884 0)
(-0.240859 0.0116174 0)
(-0.240914 0.0255406 0)
(-0.240737 0.0399184 0)
(-0.240283 0.0548764 0)
(-0.239481 0.0705214 0)
(-0.238238 0.0869328 0)
(-0.236428 0.104151 0)
(-0.233896 0.122165 0)
(-0.230453 0.140893 0)
(-0.225877 0.160166 0)
(-0.219911 0.179702 0)
(-0.212278 0.199083 0)
(-0.202688 0.217723 0)
(-0.190866 0.234847 0)
(-0.176585 0.249471 0)
(-0.159714 0.260389 0)
(-0.140284 0.266193 0)
(-0.118562 0.265306 0)
(-0.0951272 0.25607 0)
(-0.0709523 0.236871 0)
(-0.0474114 0.206305 0)
(-0.0262277 0.163374 0)
(-0.00977971 0.107669 0)
(-0.00154971 0.0395798 0)
(-0.00123539 -0.0331508 0)
(-0.00795731 -0.0898202 0)
(-0.0216324 -0.136263 0)
(-0.0396471 -0.172497 0)
(-0.0602497 -0.199032 0)
(-0.0821525 -0.216717 0)
(-0.104268 -0.226626 0)
(-0.125757 -0.229937 0)
(-0.146034 -0.22784 0)
(-0.164731 -0.221463 0)
(-0.181649 -0.211825 0)
(-0.196726 -0.199816 0)
(-0.20999 -0.186181 0)
(-0.221532 -0.171526 0)
(-0.231482 -0.15633 0)
(-0.239988 -0.140953 0)
(-0.247202 -0.125653 0)
(-0.253274 -0.110605 0)
(-0.258342 -0.0959095 0)
(-0.262531 -0.0816091 0)
(-0.265951 -0.0676987 0)
(-0.268693 -0.0541353 0)
(-0.270833 -0.0408468 0)
(-0.272428 -0.0277387 0)
(-0.273521 -0.0147011 0)
(-0.274133 -0.00161391 0)
(-0.274271 0.0116474 0)
(-0.273922 0.0252064 0)
(-0.273054 0.0391803 0)
(-0.271616 0.0536728 0)
(-0.269532 0.0687669 0)
(-0.266705 0.084516 0)
(-0.263012 0.100933 0)
(-0.258306 0.117976 0)
(-0.252412 0.135538 0)
(-0.245136 0.153421 0)
(-0.236267 0.171326 0)
(-0.225589 0.188828 0)
(-0.212894 0.205354 0)
(-0.198014 0.220175 0)
(-0.180846 0.232388 0)
(-0.161402 0.240924 0)
(-0.139855 0.244572 0)
(-0.116598 0.242016 0)
(-0.0922992 0.231921 0)
(-0.0679482 0.213031 0)
(-0.0448414 0.184306 0)
(-0.024517 0.145057 0)
(-0.00903319 0.095075 0)
(-0.00140566 0.0347645 0)
(-0.0011571 -0.0291884 0)
(-0.00754182 -0.0793104 0)
(-0.0206699 -0.120719 0)
(-0.0381963 -0.153419 0)
(-0.0585617 -0.177791 0)
(-0.0806 -0.194493 0)
(-0.103287 -0.204368 0)
(-0.125793 -0.208365 0)
(-0.147498 -0.207461 0)
(-0.16797 -0.2026 0)
(-0.186935 -0.194655 0)
(-0.204243 -0.184403 0)
(-0.219842 -0.172505 0)
(-0.233751 -0.159516 0)
(-0.246033 -0.145876 0)
(-0.256785 -0.131929 0)
(-0.266116 -0.117929 0)
(-0.274141 -0.10405 0)
(-0.280975 -0.090403 0)
(-0.286722 -0.0770412 0)
(-0.291479 -0.0639741 0)
(-0.295328 -0.051174 0)
(-0.298336 -0.038585 0)
(-0.300555 -0.0261296 0)
(-0.30202 -0.0137149 0)
(-0.30275 -0.00123834 0)
(-0.302746 0.0114065 0)
(-0.301991 0.0243245 0)
(-0.300449 0.0376129 0)
(-0.298064 0.0513549 0)
(-0.294762 0.0656117 0)
(-0.290447 0.0804144 0)
(-0.285002 0.0957533 0)
(-0.278293 0.111566 0)
(-0.270171 0.127726 0)
(-0.260474 0.144025 0)
(-0.249038 0.160159 0)
(-0.235711 0.175714 0)
(-0.220366 0.190153 0)
(-0.20293 0.202804 0)
(-0.183409 0.212863 0)
(-0.161928 0.2194 0)
(-0.13877 0.221389 0)
(-0.114416 0.217748 0)
(-0.0895828 0.207407 0)
(-0.0652481 0.189398 0)
(-0.0426226 0.162951 0)
(-0.0230802 0.127597 0)
(-0.00841932 0.0832504 0)
(-0.00128978 0.0303046 0)
(-0.00109756 -0.0254163 0)
(-0.00722123 -0.0692182 0)
(-0.0199177 -0.105637 0)
(-0.0370448 -0.134674 0)
(-0.0571932 -0.15662 0)
(-0.0792976 -0.171985 0)
(-0.102393 -0.181434 0)
(-0.125669 -0.185729 0)
(-0.148487 -0.185666 0)
(-0.170375 -0.18203 0)
(-0.190998 -0.175557 0)
(-0.210144 -0.166912 0)
(-0.227694 -0.156676 0)
(-0.243602 -0.145338 0)
(-0.257878 -0.133298 0)
(-0.270567 -0.120872 0)
(-0.281739 -0.108299 0)
(-0.291475 -0.0957478 0)
(-0.299864 -0.0833299 0)
(-0.306991 -0.0711057 0)
(-0.312934 -0.059094 0)
(-0.317765 -0.0472798 0)
(-0.32154 -0.035621 0)
(-0.324305 -0.0240554 0)
(-0.326087 -0.0125062 0)
(-0.326901 -0.00088795 0)
(-0.326743 0.0108884 0)
(-0.325591 0.0229095 0)
(-0.323408 0.0352542 0)
(-0.320138 0.0479868 0)
(-0.315707 0.06115 0)
(-0.310024 0.0747568 0)
(-0.302986 0.0887811 0)
(-0.294476 0.103148 0)
(-0.28437 0.117721 0)
(-0.272542 0.132291 0)
(-0.258879 0.146567 0)
(-0.243288 0.160159 0)
(-0.225716 0.172577 0)
(-0.206173 0.18322 0)
(-0.184756 0.191388 0)
(-0.161683 0.196286 0)
(-0.137315 0.197058 0)
(-0.112193 0.192826 0)
(-0.0870568 0.18274 0)
(-0.062856 0.166058 0)
(-0.0407174 0.142212 0)
(-0.0218732 0.110887 0)
(-0.00791236 0.0720736 0)
(-0.00119578 0.026137 0)
(-0.00105214 -0.0217908 0)
(-0.00697377 -0.0594523 0)
(-0.0193312 -0.0909254 0)
(-0.0361358 -0.11621 0)
(-0.0560947 -0.135532 0)
(-0.0782245 -0.149286 0)
(-0.101613 -0.157998 0)
(-0.12547 -0.162273 0)
(-0.149153 -0.162757 0)
(-0.172161 -0.160091 0)
(-0.194118 -0.154889 0)
(-0.214761 -0.14771 0)
(-0.233918 -0.13905 0)
(-0.251492 -0.129334 0)
(-0.267443 -0.118913 0)
(-0.281774 -0.108071 0)
(-0.294517 -0.0970223 0)
(-0.305723 -0.0859263 0)
(-0.315454 -0.074889 0)
(-0.323774 -0.0639724 0)
(-0.330747 -0.053201 0)
(-0.336429 -0.042569 0)
(-0.340867 -0.032046 0)
(-0.344098 -0.0215833 0)
(-0.346144 -0.0111189 0)
(-0.347012 -0.000583153 0)
(-0.346695 0.0100966 0)
(-0.345168 0.0209902 0)
(-0.342394 0.0321599 0)
(-0.338315 0.0436537 0)
(-0.332864 0.055499 0)
(-0.325958 0.0676954 0)
(-0.317505 0.0802066 0)
(-0.30741 0.0929514 0)
(-0.295574 0.105794 0)
(-0.281911 0.118537 0)
(-0.266352 0.130907 0)
(-0.248858 0.142553 0)
(-0.229444 0.15304 0)
(-0.208191 0.161847 0)
(-0.185269 0.168374 0)
(-0.160965 0.171958 0)
(-0.135701 0.171897 0)
(-0.110055 0.167485 0)
(-0.0847731 0.158058 0)
(-0.0607705 0.143047 0)
(-0.0390964 0.122039 0)
(-0.0208642 0.0948256 0)
(-0.00749433 0.0614407 0)
(-0.00111942 0.0222105 0)
(-0.00101755 -0.0182782 0)
(-0.00678361 -0.0499403 0)
(-0.0188769 -0.076506 0)
(-0.0354247 -0.0979769 0)
(-0.0552238 -0.114526 0)
(-0.0773563 -0.12646 0)
(-0.100955 -0.134189 0)
(-0.12525 -0.13819 0)
(-0.1496 -0.138977 0)
(-0.173485 -0.137067 0)
(-0.196502 -0.132959 0)
(-0.218347 -0.127114 0)
(-0.238807 -0.119947 0)
(-0.257744 -0.111815 0)
(-0.275076 -0.103018 0)
(-0.29077 -0.0938005 0)
(-0.304825 -0.0843516 0)
(-0.317264 -0.0748124 0)
(-0.328126 -0.0652801 0)
(-0.337455 -0.0558137 0)
(-0.345299 -0.0464403 0)
(-0.351701 -0.0371602 0)
(-0.356698 -0.0279523 0)
(-0.360317 -0.0187794 0)
(-0.362575 -0.00959298 0)
(-0.363473 -0.000337498 0)
(-0.363001 0.0090446 0)
(-0.361132 0.0186083 0)
(-0.357827 0.0284011 0)
(-0.353033 0.0384575 0)
(-0.346686 0.0487933 0)
(-0.338714 0.0593993 0)
(-0.329039 0.0702345 0)
(-0.317583 0.0812184 0)
(-0.304278 0.0922241 0)
(-0.289069 0.10307 0)
(-0.271929 0.113516 0)
(-0.252871 0.123254 0)
(-0.231962 0.131911 0)
(-0.209343 0.139046 0)
(-0.185243 0.144162 0)
(-0.160003 0.146717 0)
(-0.134086 0.146146 0)
(-0.108094 0.141893 0)
(-0.0827675 0.133444 0)
(-0.0589886 0.12037 0)
(-0.0377375 0.102373 0)
(-0.0200301 0.0793183 0)
(-0.00715254 0.0512606 0)
(-0.00105774 0.0184819 0)
(-0.000991479 -0.0148518 0)
(-0.00663919 -0.040624 0)
(-0.0185296 -0.0623153 0)
(-0.034877 -0.0799284 0)
(-0.054546 -0.0935952 0)
(-0.0766701 -0.103549 0)
(-0.100418 -0.110104 0)
(-0.125039 -0.113629 0)
(-0.149896 -0.114523 0)
(-0.174459 -0.113191 0)
(-0.1983 -0.110029 0)
(-0.221091 -0.105406 0)
(-0.242585 -0.0996548 0)
(-0.26261 -0.0930668 0)
(-0.281053 -0.0858889 0)
(-0.297849 -0.0783232 0)
(-0.31297 -0.0705291 0)
(-0.326416 -0.0626264 0)
(-0.338204 -0.0546993 0)
(-0.348361 -0.0468006 0)
(-0.356919 -0.0389565 0)
(-0.363912 -0.031171 0)
(-0.369365 -0.0234302 0)
(-0.373298 -0.0157066 0)
(-0.375722 -0.00796318 0)
(-0.376633 -0.000157296 0)
(-0.376018 0.00775531 0)
(-0.373848 0.0158164 0)
(-0.370086 0.0240611 0)
(-0.364681 0.0325132 0)
(-0.357574 0.0411802 0)
(-0.348703 0.0500485 0)
(-0.338004 0.0590771 0)
(-0.325418 0.0681924 0)
(-0.3109 0.077282 0)
(-0.294426 0.0861897 0)
(-0.276005 0.0947103 0)
(-0.255692 0.102587 0)
(-0.233598 0.109512 0)
(-0.209913 0.115128 0)
(-0.184911 0.119033 0)
(-0.158971 0.120799 0)
(-0.132588 0.119985 0)
(-0.106375 0.116162 0)
(-0.081065 0.108942 0)
(-0.0575071 0.0980075 0)
(-0.0366243 0.0831465 0)
(-0.0193543 0.0642742 0)
(-0.00687805 0.0414521 0)
(-0.00100868 0.0149136 0)
(-0.000972262 -0.0114902 0)
(-0.00653215 -0.0314557 0)
(-0.0182709 -0.0482994 0)
(-0.0344666 -0.0620246 0)
(-0.0540341 -0.0727284 0)
(-0.0761455 -0.0805827 0)
(-0.0999976 -0.0858194 0)
(-0.124858 -0.088712 0)
(-0.15009 -0.0895585 0)
(-0.175159 -0.0886642 0)
(-0.199625 -0.086328 0)
(-0.223136 -0.0828312 0)
(-0.245422 -0.0784297 0)
(-0.266287 -0.0733487 0)
(-0.285591 -0.0677805 0)
(-0.303246 -0.061884 0)
(-0.319202 -0.0557852 0)
(-0.333437 -0.0495801 0)
(-0.345953 -0.0433368 0)
(-0.356762 -0.0370993 0)
(-0.365884 -0.0308904 0)
(-0.373341 -0.0247156 0)
(-0.379152 -0.0185663 0)
(-0.383329 -0.0124229 0)
(-0.385877 -0.00625855 0)
(-0.38679 -4.1823e-05 0)
(-0.386051 0.00625977 0)
(-0.383631 0.0126766 0)
(-0.379492 0.0192334 0)
(-0.373588 0.0259458 0)
(-0.365866 0.0328162 0)
(-0.356271 0.0398299 0)
(-0.344751 0.0469506 0)
(-0.331264 0.054116 0)
(-0.315786 0.0612338 0)
(-0.298318 0.0681773 0)
(-0.278898 0.0747829 0)
(-0.257614 0.080848 0)
(-0.234614 0.0861317 0)
(-0.210122 0.0903573 0)
(-0.18445 0.0932192 0)
(-0.158003 0.0943923 0)
(-0.131296 0.0935466 0)
(-0.104948 0.0903653 0)
(-0.079684 0.0845655 0)
(-0.0563238 0.075921 0)
(-0.0357452 0.0642845 0)
(-0.0188251 0.0496053 0)
(-0.00666457 0.0319402 0)
(-0.000970825 0.0114722 0)
(-0.000958739 -0.00817565 0)
(-0.00645652 -0.0223955 0)
(-0.0180875 -0.0344122 0)
(-0.0341743 -0.0442288 0)
(-0.0536673 -0.0519122 0)
(-0.0757663 -0.0575804 0)
(-0.0996889 -0.0613925 0)
(-0.124715 -0.0635374 0)
(-0.150213 -0.0642216 0)
(-0.175643 -0.0636575 0)
(-0.200556 -0.0620543 0)
(-0.224586 -0.0596097 0)
(-0.247447 -0.0565047 0)
(-0.268923 -0.0528993 0)
(-0.288857 -0.0489309 0)
(-0.307142 -0.0447137 0)
(-0.323711 -0.0403388 0)
(-0.338529 -0.0358761 0)
(-0.351583 -0.0313758 0)
(-0.362874 -0.0268706 0)
(-0.372413 -0.0223783 0)
(-0.380214 -0.017904 0)
(-0.386288 -0.0134427 0)
(-0.390643 -0.00898167 0)
(-0.39328 -0.00450252 0)
(-0.394188 1.60538e-05 0)
(-0.393351 0.00459621 0)
(-0.390737 0.00925839 0)
(-0.386311 0.0140189 0)
(-0.380028 0.0188872 0)
(-0.37184 0.0238632 0)
(-0.361699 0.0289342 0)
(-0.349563 0.0340718 0)
(-0.335404 0.0392288 0)
(-0.319212 0.0443367 0)
(-0.301009 0.0493024 0)
(-0.280855 0.0540068 0)
(-0.258863 0.0583039 0)
(-0.235208 0.0620213 0)
(-0.21014 0.0649625 0)
(-0.183994 0.0669122 0)
(-0.157197 0.0676432 0)
(-0.130274 0.0669269 0)
(-0.103849 0.0645456 0)
(-0.0786375 0.0603073 0)
(-0.0554373 0.0540607 0)
(-0.0350921 0.0457101 0)
(-0.0184343 0.0352264 0)
(-0.00650773 0.0226549 0)
(-0.000943174 0.0081271 0)
(-0.000950126 -0.00489305 0)
(-0.0064082 -0.0134088 0)
(-0.01797 -0.020613 0)
(-0.0339865 -0.0265079 0)
(-0.0534307 -0.0311326 0)
(-0.0755202 -0.034556 0)
(-0.0994863 -0.0368712 0)
(-0.124617 -0.0381891 0)
(-0.150284 -0.038631 0)
(-0.175946 -0.0383221 0)
(-0.201147 -0.0373862 0)
(-0.225514 -0.0359407 0)
(-0.248749 -0.0340934 0)
(-0.270624 -0.03194 0)
(-0.290969 -0.0295628 0)
(-0.309667 -0.0270306 0)
(-0.32664 -0.0243985 0)
(-0.341842 -0.021709 0)
(-0.35525 -0.0189927 0)
(-0.36686 -0.0162698 0)
(-0.376674 -0.0135516 0)
(-0.384701 -0.0108416 0)
(-0.390948 -0.00813737 0)
(-0.395419 -0.00543155 0)
(-0.398112 -0.00271363 0)
(-0.399016 2.87675e-05 0)
(-0.398109 0.00280847 0)
(-0.395364 0.00563725 0)
(-0.390743 0.00852432 0)
(-0.384205 0.0114747 0)
(-0.375704 0.0144875 0)
(-0.365199 0.0175543 0)
(-0.352653 0.020657 0)
(-0.338047 0.0237663 0)
(-0.321383 0.0268399 0)
(-0.302695 0.0298211 0)
(-0.28206 0.0326375 0)
(-0.259606 0.0352012 0)
(-0.235526 0.0374085 0)
(-0.210087 0.0391421 0)
(-0.183639 0.040274 0)
(-0.156622 0.04067 0)
(-0.129569 0.0401958 0)
(-0.103104 0.0387242 0)
(-0.0779349 0.0361438 0)
(-0.0548467 0.032368 0)
(-0.0346593 0.0273428 0)
(-0.0181765 0.0210537 0)
(-0.00640464 0.0135296 0)
(-0.000925071 0.00484957 0)
(-0.000945935 -0.00162895 0)
(-0.00638466 -0.00446482 0)
(-0.0179127 -0.00686524 0)
(-0.0338947 -0.00883097 0)
(-0.0533147 -0.0103749 0)
(-0.0753991 -0.0115197 0)
(-0.0993859 -0.0122961 0)
(-0.124567 -0.0127405 0)
(-0.150317 -0.0128929 0)
(-0.176092 -0.0127949 0)
(-0.201435 -0.0124873 0)
(-0.225967 -0.012009 0)
(-0.249386 -0.0113959 0)
(-0.271457 -0.0106798 0)
(-0.292007 -0.00988806 0)