/*--------------------------------*- C++ -*----------------------------------*\
  =========                 |
  \\      /  F ield         | OpenFOAM: The Open Source CFD Toolbox
   \\    /   O peration     | Website:  https://openfoam.org
    \\  /    A nd           | Version:  7
     \\/     M anipulation  |
\*---------------------------------------------------------------------------*/
FoamFile
{
    version     2.0;
    format      ascii;
    class       volScalarField;
    location    "0.0522";
    object      p;
}
// * * * * * * * * * * * * * * * * * * * * * * * * * * * * * * * * * * * * * //

dimensions      [0 2 -2 0 0 0 0];

internalField   nonuniform List<scalar> 
2500
(
-6.9424e-06
-0.000520225
-0.00211571
-0.00446843
-0.0072258
-0.0100817
-0.012807
-0.0152218
-0.0171907
-0.0186151
-0.0194263
-0.0195804
-0.0190539
-0.0178405
-0.0159482
-0.0133977
-0.0102201
-0.00645533
-0.00215163
0.00263617
0.00784728
0.0134158
0.0192715
0.0253403
0.0315452
0.037807
0.0440448
0.0501768
0.0561218
0.0617993
0.0671311
0.0720425
0.0764635
0.0803303
0.0835867
0.086186
0.0880926
0.0892841
0.0897531
0.0895099
0.0885847
0.0870306
0.0849274
0.082386
0.079554
0.076621
0.0738249
0.0714633
0.0699079
0.0694421
0.000502648
-5.96364e-06
-0.00130033
-0.00316996
-0.00533737
-0.00759054
-0.00974843
-0.0116612
-0.0132103
-0.0143057
-0.0148818
-0.014894
-0.0143163
-0.0131382
-0.0113628
-0.00900497
-0.00608957
-0.00265037
0.00127118
0.00562696
0.0103631
0.0154206
0.0207364
0.0262438
0.0318731
0.0375526
0.0432091
0.0487691
0.0541592
0.0593073
0.0641437
0.0686019
0.0726205
0.0761438
0.0791237
0.0815212
0.0833075
0.0844664
0.0849957
0.0849089
0.084238
0.0830349
0.0813742
0.0793561
0.0771084
0.0747894
0.072587
0.0707145
0.0694379
0.0689764
0.00209476
0.00129085
-1.5362e-05
-0.00170382
-0.00360269
-0.00554643
-0.0073895
-0.00900867
-0.0103031
-0.0111934
-0.0116204
-0.0115425
-0.0109342
-0.00978403
-0.00809291
-0.00587254
-0.00314414
6.2679e-05
0.00371101
0.00775749
0.0121532
0.0168443
0.021773
0.0268779
0.032095
0.037358
0.0425997
0.0477522
0.052748
0.057521
0.0620072
0.0661462
0.0698822
0.073165
0.0759516
0.0782077
0.0799087
0.0810414
0.0816058
0.0816162
0.0811031
0.0801148
0.0787187
0.0770029
0.0750767
0.0730711
0.071137
0.0694417
0.0681581
0.0674255
0.00447833
0.0031718
0.00165076
-6.5376e-05
-0.00189871
-0.00371849
-0.0054075
-0.00686669
-0.00801285
-0.00877892
-0.0091137
-0.00898085
-0.00835765
-0.00723361
-0.00560925
-0.00349495
-0.000909795
0.00211936
0.00555877
0.00936861
0.0135037
0.0179144
0.0225469
0.0273441
0.0322464
0.0371922
0.0421185
0.046962
0.0516597
0.05615
0.0603734
0.0642736
0.0677988
0.0709026
0.0735454
0.0756955
0.0773306
0.0784389
0.0790203
0.0790882
0.0786699
0.0778081
0.0765619
0.0750069
0.0732347
0.0713524
0.0694831
0.0677606
0.0662711
0.0650483
0.00732235
0.00539343
0.00354829
0.00169054
-0.000190048
-0.00199073
-0.00361828
-0.00499589
-0.00605743
-0.00674833
-0.00702639
-0.00686144
-0.00623471
-0.00513786
-0.00357218
-0.00154769
0.000917697
0.00379901
0.00706491
0.0106784
0.0145974
0.0187756
0.0231627
0.0277054
0.0323478
0.037032
0.041699
0.0462892
0.0507434
0.0550035
0.0590136
0.0627206
0.0660758
0.0690354
0.071562
0.0736258
0.0752053
0.0762889
0.0768755
0.0769761
0.076614
0.0758257
0.0746612
0.0731837
0.0714685
0.069601
0.0676812
0.0658168
0.0640098
0.0621801
0.0103668
0.00776809
0.00553058
0.00345047
0.00143753
-0.000426767
-0.00206859
-0.00343062
-0.00446233
-0.00512114
-0.00537394
-0.00519722
-0.00457684
-0.00350742
-0.00199187
-4.06859e-05
0.00232861
0.00509212
0.00822018
0.0116779
0.0154256
0.0194197
0.023613
0.0279549
0.0323928
0.0368718
0.0413361
0.0457291
0.0499946
0.0540773
0.0579237
0.0614834
0.0647095
0.06756
0.0699988
0.0719965
0.0735317
0.0745919
0.0751743
0.0752865
0.0749471
0.0741863
0.073045
0.0715752
0.0698372
0.0678979
0.0658392
0.0637492
0.0615532
0.0590666
0.013418
0.0101379
0.00746856
0.00510995
0.00290149
0.00090958
-0.000806962
-0.0022073
-0.00325467
-0.00391752
-0.00417146
-0.00399971
-0.0033931
-0.00234975
-0.000874745
0.00102022
0.00331736
0.00599319
0.00901902
0.0123614
0.0159825
0.0198409
0.0238913
0.0280859
0.0323743
0.0367042
0.041022
0.0452736
0.0494049
0.0533625
0.057095
0.0605531
0.0636912
0.066468
0.0688477
0.0708008
0.0723048
0.0733455
0.0739175
0.0740248
0.0736809
0.0729094
0.0717432
0.0702237
0.0683986
0.0663197
0.0640554
0.0616803
0.0590527
0.0558949
0.0163262
0.0123709
0.00924968
0.00657635
0.00412865
0.00196295
0.000126773
-0.00135271
-0.00245063
-0.00314525
-0.00342032
-0.0032656
-0.00267695
-0.00165623
-0.000211164
0.00164493
0.00389342
0.00651069
0.0094685
0.0127342
0.0162714
0.0200398
0.0239962
0.0280942
0.0322855
0.0365195
0.0407445
0.0449078
0.0489569
0.0528398
0.0565057
0.0599064
0.0629964
0.0657345
0.0680842
0.0700149
0.0715026
0.0725307
0.0730905
0.0731821
0.0728139
0.0720031
0.070775
0.0691622
0.0672016
0.064933
0.0624153
0.0597151
0.0566321
0.0528058
0.018975
0.0143575
0.0107755
0.00776471
0.0050482
0.00267616
0.000687887
-0.00090066
-0.00207472
-0.00282124
-0.00313136
-0.003001
-0.00243099
-0.00142705
2.54635e-07
0.0018356
0.00405914
0.00664668
0.00956988
0.0127966
0.0162909
0.0200138
0.0239229
0.0279734
0.032118
0.0363075
0.0404912
0.0446176
0.048635
0.0524918
0.0561377
0.0595244
0.062606
0.0653405
0.0676901
0.0696225
0.0711113
0.072137
0.0726875
0.0727583
0.072353
0.0714826
0.0701658
0.0684274
0.0662957
0.063801
0.0609961
0.0579437
0.0543921
0.0499059
0.0212721
0.0160057
0.0119595
0.00859692
0.00559177
0.00299084
0.000827649
-0.000891038
-0.00215903
-0.00297086
-0.00332436
-0.00322118
-0.00266693
-0.00167119
-0.000247543
0.00158649
0.00380951
0.00639636
0.00931828
0.012543
0.016035
0.0197557
0.0236635
0.0277142
0.0318614
0.0360565
0.0402496
0.0443896
0.0484248
0.0523039
0.0559761
0.0593924
0.0625059
0.0652731
0.0676542
0.0696146
0.071125
0.0721626
0.0727112
0.0727619
0.0723132
0.0713707
0.0699467
0.0680598
0.0657311
0.0629838
0.0598673
0.0564436
0.0524149
0.0472766
0.0231414
0.017236
0.012724
0.00900057
0.00569357
0.00284857
0.000495139
-0.00136755
-0.00274062
-0.00362525
-0.00402531
-0.00394781
-0.00340289
-0.00240395
-0.000967643
0.000886106
0.00313412
0.00575002
0.00870423
0.0119641
0.0154941
0.0192555
0.0232073
0.0273054
0.0315037
0.0357541
0.0400066
0.0442101
0.0483128
0.0522626
0.0560078
0.0594981
0.0626851
0.0655229
0.0679696
0.0699872
0.0715433
0.072611
0.0731701
0.0732069
0.0727148
0.0716943
0.0701522
0.0681016
0.0655578
0.0625388
0.0590926
0.055283
0.0507697
0.0449824
0.0245167
0.0179774
0.0129979
0.00890727
0.0052896
0.00219072
-0.000362453
-0.00237713
-0.00386079
-0.0048205
-0.00526563
-0.00520817
-0.00466265
-0.0036462
-0.00217859
-0.000282255
0.00201766
0.00469329
0.00771403
0.0110465
0.0146547
0.0184999
0.0225406
0.0267331
0.031031
0.0353861
0.0397481
0.0440654
0.0482853
0.0523548
0.0562208
0.0598311
0.0631349
0.0660838
0.0686327
0.0707402
0.0723698
0.0734905
0.0740773
0.0741119
0.0735825
0.0724845
0.0708198
0.0685966
0.0658259
0.0625214
0.0587315
0.0545237
0.0495171
0.0430772
0.0253374
0.0181638
0.0127138
0.00825087
0.00431657
0.000957877
-0.00180002
-0.00396988
-0.00556482
-0.00659727
-0.00708169
-0.0070348
-0.00647534
-0.00542413
-0.00390409
-0.00194027
0.000440067
0.00320738
0.00632978
0.00977299
0.0135002
0.0174723
0.0216474
0.0259812
0.0304273
0.0349367
0.0394586
0.0439406
0.0483286
0.0525681
0.0566042
0.0603822
0.0638486
0.0669519
0.0696431
0.0718769
0.0736123
0.0748136
0.0754507
0.0755002
0.0749453
0.0737762
0.0719903
0.0695913
0.0665865
0.0629866
0.0588417
0.054224
0.0487127
0.0416095
0.025545
0.0177314
0.0118058
0.00696583
0.00271072
-0.000910882
-0.0038749
-0.00619912
-0.00790188
-0.00900059
-0.00951457
-0.00946507
-0.00887497
-0.00776878
-0.0061726
-0.00411421
-0.00162311
0.00126931
0.00452971
0.00812265
0.0120105
0.0161532
0.0205084
0.0250313
0.0296746
0.0343887
0.0391218
0.0438201
0.0484283
0.0528898
0.0571472
0.0611431
0.0648209
0.0681251
0.0710027
0.0734035
0.0752817
0.0765963
0.0773117
0.077399
0.0768361
0.0756081
0.0737076
0.0711345
0.0678928
0.0639908
0.0594808
0.0544411
0.0484107
0.0406258
0.0250806
0.016616
0.0102075
0.00498567
0.000406678
-0.00347875
-0.00664734
-0.00912168
-0.0109251
-0.0120798
-0.0126098
-0.0125409
-0.0119001
-0.0107157
-0.00901699
-0.00683458
-0.00420038
-0.00114772
0.00228842
0.0060713
0.0101622
0.0145202
0.0191021
0.0238623
0.0287527
0.0337227
0.0387193
0.0436873
0.0485693
0.0533067
0.0578392
0.0621063
0.0660475
0.0696031
0.0727153
0.0753288
0.077392
0.0788581
0.0796856
0.0798396
0.0792921
0.0780229
0.0760199
0.073279
0.0698011
0.0655925
0.0607085
0.0552339
0.0486663
0.040174
0.0238829
0.0147516
0.00785062
0.0022416
-0.00266359
-0.00681201
-0.0101811
-0.0127982
-0.0146915
-0.0158882
-0.0164172
-0.0163086
-0.0155937
-0.0143047
-0.0124742
-0.0101358
-0.00732394
-0.00407404
-0.000422807
0.00359157
0.00792918
0.0125481
0.0174042
0.022451
0.0276394
0.0329177
0.0382315
0.0435239
0.0487355
0.053805
0.0586692
0.063264
0.0675245
0.0713864
0.0747863
0.0776633
0.0799595
0.0816215
0.0826011
0.0828568
0.0823544
0.0810677
0.0789795
0.0760817
0.072372
0.0678546
0.0625883
0.0566648
0.0495383
0.0403058
0.0218864
0.0120684
0.00466325
-0.00133879
-0.00657187
-0.0109809
-0.014544
-0.0172934
-0.0192627
-0.0204839
-0.0209908
-0.0208185
-0.0200026
-0.0185793
-0.0165848
-0.0140557
-0.0110293
-0.00754303
-0.00363557
0.000653417
0.00528275
0.0102094
0.0153884
0.0207722
0.0263106
0.0319508
0.037637
0.0433104
0.0489095
0.0543701
0.0596258
0.0646083
0.0692482
0.073476
0.0772222
0.0804194
0.0830028
0.0849116
0.0860903
0.0864897
0.0860686
0.0847944
0.0826441
0.0796051
0.0756715
0.0708454
0.0651891
0.0588018
0.0510913
0.0410789
0.0190203
0.00849148
0.000568637
-0.00583271
-0.0113947
-0.0160603
-0.0198085
-0.0226769
-0.0247045
-0.0259288
-0.026389
-0.026125
-0.0251775
-0.0235866
-0.0213925
-0.0186353
-0.0153546
-0.0115907
-0.00738384
-0.00277544
0.00219209
0.00747469
0.0130263
0.0187985
0.0247403
0.0307975
0.0369129
0.0430259
0.0490727
0.0549861
0.0606962
0.0661306
0.0712147
0.0758732
0.0800301
0.0836107
0.0865425
0.0887564
0.0901884
0.0907811
0.0904851
0.0892603
0.0870772
0.083918
0.0797725
0.0746404
0.0685874
0.0617203
0.0533974
0.042559
0.0152072
0.00393991
-0.00451604
-0.0113233
-0.0172146
-0.0221309
-0.0260526
-0.0290232
-0.0310878
-0.0322898
-0.0326741
-0.0322864
-0.0311723
-0.0293768
-0.026944
-0.0239176
-0.0203404
-0.0162548
-0.0117033
-0.00672884
-0.00137507
0.00431294
0.0102883
0.0165017
0.0229013
0.029432
0.036035
0.0426481
0.0492052
0.0556361
0.0618673
0.0678217
0.0734197
0.0785793
0.0832176
0.0872519
0.0906008
0.093186
0.0949341
0.0957781
0.0956591
0.0945284
0.0923489
0.0890965
0.0847559
0.0793236
0.0728685
0.0655052
0.0565386
0.0448219
0.0103621
-0.0016749
-0.0106809
-0.0179008
-0.0241206
-0.0292797
-0.0333604
-0.0364127
-0.0384886
-0.0396381
-0.0399127
-0.0393643
-0.0380442
-0.0360024
-0.0332878
-0.0299477
-0.0260282
-0.0215743
-0.0166305
-0.0112414
-0.00545164
0.00069268
0.00714402
0.0138526
0.0207657
0.0278274
0.0349781
0.0421537
0.049286
0.056302
0.0631245
0.0696716
0.0758581
0.0815954
0.0867926
0.0913583
0.0952015
0.0982333
0.10037
0.101532
0.101652
0.100669
0.0985372
0.0952255
0.0907122
0.0849894
0.0781287
0.0702527
0.0606083
0.0479551
0.00439121
-0.00845017
-0.0180248
-0.0256639
-0.03221
-0.0376014
-0.0418228
-0.0449318
-0.0469883
-0.0480497
-0.0481751
-0.0474235
-0.0458525
-0.043518
-0.0404737
-0.0367713
-0.0324602
-0.0275882
-0.0222019
-0.0163472
-0.0100701
-0.00341718
0.00356361
0.0108221
0.0183055
0.0259572
0.0337167
0.041519
0.0492936
0.0569651
0.0644525
0.0716694
0.0785245
0.0849221
0.0907631
0.0959462
0.10037
0.103933
0.10654
0.1081
0.108529
0.107758
0.105729
0.1024
0.0977429
0.091744
0.084477
0.0760723
0.0657138
0.05206
-0.0028089
-0.0164931
-0.0266562
-0.0347208
-0.0415891
-0.047199
-0.0515384
-0.0546738
-0.0566739
-0.0576052
-0.0575354
-0.0565315
-0.0546585
-0.0519788
-0.0485517
-0.0444335
-0.0396774
-0.0343341
-0.0284522
-0.022079
-0.0152613
-0.00804608
-0.000481354
0.00738288
0.0154939
0.0237951
0.0322259
0.0407202
0.0492062
0.0576061
0.0658354
0.0738033
0.0814124
0.0885596
0.0951368
0.101032
0.106132
0.110324
0.113495
0.115541
0.116365
0.115881
0.114019
0.110726
0.105962
0.0997079
0.0920377
0.0830893
0.0719784
0.057254
-0.0113528
-0.0259224
-0.0366955
-0.045191
-0.0523751
-0.0581855
-0.0626146
-0.0657391
-0.0676386
-0.0683899
-0.0680708
-0.0667576
-0.064524
-0.0614398
-0.0575706
-0.0529778
-0.0477186
-0.0418468
-0.035413
-0.0284659
-0.0210526
-0.0132202
-0.00501625
0.00350996
0.0123064
0.0213173
0.0304821
0.0397347
0.0490026
0.0582059
0.0672572
0.0760614
0.0845151
0.0925075
0.0999213
0.106633
0.112517
0.117444
0.121287
0.123924
0.12524
0.125134
0.123517
0.120323
0.1155
0.109018
0.100952
0.0914472
0.0795439
0.0636728
-0.0213673
-0.0368701
-0.0482762
-0.0572071
-0.064697
-0.0706846
-0.0751681
-0.0782364
-0.0799817
-0.0804935
-0.0798612
-0.0781725
-0.0755108
-0.0719545
-0.0675764
-0.0624437
-0.056618
-0.0501562
-0.0431109
-0.0355318
-0.0274663
-0.0189607
-0.0100616
-0.000817046
0.00872256
0.0185029
0.0284646
0.0385422
0.048663
0.0587462
0.0687021
0.0784314
0.0878253
0.0967654
0.105124
0.112767
0.119552
0.125336
0.129972
0.133319
0.135243
0.135618
0.134341
0.131324
0.126501
0.11983
0.111382
0.101311
0.0885737
0.0714736
-0.0329937
-0.0494834
-0.0615478
-0.070917
-0.0786986
-0.0848332
-0.0893267
-0.0922827
-0.0938089
-0.0940095
-0.0929884
-0.0908463
-0.0876782
-0.0835726
-0.0786104
-0.0728652
-0.0664033
-0.0592851
-0.0515649
-0.0432932
-0.0345169
-0.0252812
-0.0156311
-0.00561207
0.00472771
0.0153364
0.026157
0.0371256
0.0481706
0.059211
0.0701555
0.0809019
0.091336
0.101332
0.110753
0.11945
0.127268
0.134043
0.139611
0.143805
0.146468
0.147451
0.146624
0.143881
0.139132
0.13232
0.123514
0.11287
0.0992564
0.0808376
-0.0463897
-0.0639282
-0.0766784
-0.0864867
-0.0945401
-0.100783
-0.10523
-0.108005
-0.109232
-0.109035
-0.107535
-0.104848
-0.101082
-0.0963382
-0.0907064
-0.0842674
-0.0770929
-0.0692462
-0.0607838
-0.0517559
-0.0422088
-0.0321858
-0.0217288
-0.0108803
0.000315202
0.0118096
0.0235492
0.0354733
0.0475124
0.0595868
0.0716049
0.0834622
0.0950403
0.106206
0.116813
0.1267
0.135694
0.143612
0.150266
0.155465
0.159021
0.160758
0.160517
0.158162
0.153581
0.146693
0.137561
0.126343
0.11181
0.0919748
-0.0617328
-0.0803921
-0.0938587
-0.104104
-0.112402
-0.118701
-0.123032
-0.125539
-0.12637
-0.12567
-0.123582
-0.120241
-0.115771
-0.110286
-0.103888
-0.096664
-0.0886923
-0.0800393
-0.0707627
-0.0609126
-0.0505334
-0.0396654
-0.0283468
-0.0166156
-0.00451121
0.00792326
0.0206392
0.0335804
0.0466813
0.0598649
0.0730408
0.0861039
0.0989324
0.111388
0.123313
0.134534
0.144861
0.15409
0.162005
0.168387
0.173016
0.17568
0.176184
0.17436
0.170061
0.16318
0.153768
0.141983
0.126487
0.105128
-0.0792242
-0.0990899
-0.113307
-0.123984
-0.132488
-0.138778
-0.142902
-0.145032
-0.145346
-0.144016
-0.14121
-0.137085
-0.131785
-0.125441
-0.118164
-0.110053
-0.101191
-0.091647
-0.08148
-0.0707389
-0.0594653
-0.0476954
-0.0354623
-0.0227977
-0.00973478
0.00369023
0.0174354
0.0314512
0.0456776
0.0600422
0.0744581
0.0888209
0.103008
0.116875
0.130257
0.142968
0.154799
0.165523
0.174897
0.182667
0.188576
0.19237
0.193812
0.192689
0.188816
0.182049
0.17242
0.160085
0.143582
0.12058
-0.0990944
-0.12027
-0.135277
-0.146372
-0.155031
-0.161226
-0.165028
-0.166645
-0.166291
-0.164173
-0.16049
-0.155427
-0.149151
-0.141808
-0.133527
-0.124414
-0.114558
-0.104031
-0.0928931
-0.0811901
-0.0689595
-0.056232
-0.0430339
-0.0293894
-0.0153232
-0.000862751
0.0139589
0.0291005
0.0445103
0.0601229
0.0758567
0.091611
0.107263
0.122668
0.137651
0.152016
0.165536
0.177959
0.189012
0.198404
0.205833
0.210997
0.213606
0.213395
0.210125
0.203608
0.193848
0.180991
0.163438
0.13866
-0.121611
-0.144222
-0.160063
-0.171556
-0.180299
-0.186284
-0.189615
-0.190547
-0.189338
-0.186239
-0.181488
-0.175302
-0.167874
-0.159374
-0.149943
-0.139699
-0.128736
-0.117128
-0.104934
-0.0921967
-0.0789471
-0.065209
-0.0509998
-0.036334
-0.021226
-0.00569234
0.010245
0.0265561
0.0431995
0.0601195
0.077243
0.0944756
0.111698
0.128765
0.145498
0.16169
0.177096
0.191442
0.204421
0.215699
0.224926
0.231743
0.235795
0.236751
0.234308
0.228215
0.218437
0.205104
0.186459
0.159753
-0.147088
-0.171291
-0.188017
-0.199875
-0.208604
-0.214228
-0.216896
-0.216921
-0.214623
-0.210305
-0.204252
-0.196722
-0.18794
-0.178097
-0.167352
-0.155832
-0.143638
-0.130845
-0.117507
-0.103661
-0.0893329
-0.0745348
-0.0592739
-0.0435527
-0.0273727
-0.0107371
0.00634571
0.0238595
0.0417765
0.0600539
0.0786299
0.0974201
0.116313
0.135165
0.153798
0.171996
0.1895
0.206012
0.22119
0.234657
0.246004
0.254805
0.260631
0.263067
0.261729
0.256283
0.246642
0.232901
0.213125
0.184315
-0.175901
-0.201892
-0.21956
-0.231729
-0.240311
-0.245371
-0.247124
-0.245961
-0.242279
-0.236448
-0.228812
-0.219674
-0.209297
-0.197899
-0.185654
-0.172701
-0.159142
-0.145052
-0.13048
-0.115455
-0.0999911
-0.0840899
-0.0677444
-0.0509427
-0.0336708
-0.015916
0.00232987
0.0210673
0.0402852
0.0599572
0.080037
0.100454
0.121107
0.141863
0.162545
0.182933
0.202759
0.221699
0.23938
0.255375
0.269214
0.280392
0.288391
0.292694
0.292809
0.288299
0.278997
0.26495
0.244005
0.212887
-0.208509
-0.236534
-0.255206
-0.267604
-0.27585
-0.280075
-0.280583
-0.277871
-0.272434
-0.264727
-0.255165
-0.244108
-0.231858
-0.218661
-0.204709
-0.190148
-0.175082
-0.159581
-0.143685
-0.127413
-0.110764
-0.0937251
-0.0762724
-0.0583767
-0.0400058
-0.0211282
-0.00171616
0.0182507
0.0387815
0.05987
0.0814896
0.103588
0.126082
0.14885
0.171725
0.19449
0.216867
0.238518
0.259035
0.277943
0.294703
0.308723
0.319375
0.326021
0.32803
0.32483
0.316141
0.301933
0.279792
0.246118
-0.245476
-0.27585
-0.295592
-0.30809
-0.315734
-0.318755
-0.317584
-0.312858
-0.305199
-0.295169
-0.283269
-0.269924
-0.255479
-0.24021
-0.224323
-0.207968
-0.191247
-0.17422
-0.156915
-0.139335
-0.121461
-0.103261
-0.0846915
-0.0657029
-0.0462416
-0.026254
-0.00568996
0.0154943
0.0373315
0.0598397
0.0830167
0.106834
0.131232
0.156107
0.181311
0.206634
0.231802
0.256462
0.280179
0.302431
0.322607
0.340016
0.353904
0.363483
0.367948
0.366546
0.358839
0.344679
0.321327
0.2848
-0.287517
-0.320642
-0.341516
-0.353914
-0.360577
-0.361892
-0.358466
-0.351125
-0.340656
-0.327756
-0.313024
-0.296959
-0.279953
-0.262307
-0.244238
-0.225896
-0.207371
-0.188709
-0.169918
-0.150981
-0.131857
-0.112489
-0.0928103
-0.0727476
-0.0522229
-0.0311577
-0.00947601
0.0128926
0.0360084
0.0599174
0.0846472
0.110199
0.136542
0.163602
0.191255
0.219311
0.247507
0.275488
0.3028
0.328877
0.353036
0.37448
0.392312
0.405557
0.413197
0.414235
0.408015
0.394206
0.369653
0.329905
-0.335557
-0.371949
-0.393996
-0.40598
-0.411119
-0.410034
-0.403587
-0.392856
-0.37884
-0.362399
-0.344251
-0.324968
-0.304991
-0.284638
-0.26413
-0.243604
-0.223133
-0.202738
-0.182402
-0.162078
-0.141696
-0.121174
-0.100415
-0.0793193
-0.0577802
-0.035692
-0.0129505
0.0105456
0.0348873
0.0601531
0.0864044
0.113679
0.141983
0.17128
0.201481
0.232429
0.263884
0.295505
0.326831
0.357265
0.386055
0.412296
0.434928
0.45276
0.464499
0.468832
0.464796
0.451784
0.426083
0.382653
-0.390808
-0.431133
-0.454349
-0.465422
-0.468248
-0.463802
-0.45331
-0.43819
-0.419708
-0.398917
-0.376665
-0.353603
-0.330204
-0.306798
-0.283591
-0.260696
-0.238154
-0.215952
-0.194034
-0.172318
-0.1507
-0.129063
-0.107279
-0.0852153
-0.0627363
-0.0397056
-0.0159886
0.00855148
0.0340385
0.0605874
0.088299
0.117253
0.147501
0.179054
0.211872
0.245845
0.280775
0.316353
0.352132
0.387501
0.421657
0.453586
0.482057
0.505626
0.522664
0.531443
0.530565
0.519012
0.492297
0.444604
-0.454912
-0.500026
-0.5243
-0.533673
-0.533025
-0.52388
-0.507977
-0.487183
-0.463095
-0.436988
-0.409845
-0.38238
-0.355086
-0.328277
-0.302127
-0.276703
-0.251997
-0.227946
-0.204446
-0.181369
-0.158569
-0.135889
-0.113166
-0.0902311
-0.0669154
-0.0430496
-0.0184754
0.00699712
0.0335186
0.0612442
0.0903191
0.120872
0.153007
0.186795
0.222258
0.259352
0.297942
0.337778
0.378454
0.419377
0.459716
0.498371
0.533934
0.564684
0.588583
0.603366
0.607033
0.597936
0.570489
0.517792
-0.530142
-0.58114
-0.606142
-0.612545
-0.606707
-0.59099
-0.567853
-0.539743
-0.508654
-0.476101
-0.443183
-0.410653
-0.378988
-0.348452
-0.319152
-0.291085
-0.264171
-0.23828
-0.213245
-0.188883
-0.164998
-0.141388
-0.117848
-0.0941726
-0.0701539
-0.0455842
-0.0203233
0.00594762
0.0333597
0.0621191
0.0924209
0.124448
0.158367
0.194318
0.232401
0.272657
0.315044
0.3594
0.405403
0.452518
0.499935
0.546502
0.590661
0.630397
0.663197
0.686113
0.696317
0.691213
0.663589
0.604956
-0.619749
-0.677992
-0.702956
-0.704326
-0.690739
-0.665825
-0.63303
-0.595533
-0.555771
-0.515482
-0.47584
-0.43758
-0.401102
-0.36657
-0.333985
-0.303235
-0.274142
-0.246488
-0.220029
-0.194515
-0.169693
-0.14531
-0.121117
-0.096871
-0.0723292
-0.0472538
-0.0214165
0.0054449
0.0335592
0.0631685
0.0945162
0.127844
0.163386
0.201365
0.241973
0.285361
0.331606
0.380678
0.432388
0.486323
0.541761
0.59757
0.652099
0.703064
0.747427
0.781402
0.80104
0.802337
0.775608
0.709897
-0.728564
-0.795627
-0.818913
-0.811867
-0.786698
-0.748915
-0.703279
-0.653828
-0.603441
-0.554009
-0.506683
-0.46208
-0.420441
-0.381756
-0.34586
-0.312493
-0.281349
-0.252096
-0.224401
-0.197936
-0.172382
-0.147435
-0.1228
-0.0981925
-0.0733348
-0.0479544
-0.0217805
0.00546637
0.034064
0.0642978
0.0964622
0.13086
0.167801
0.207596
0.250548
0.296938
0.346997
0.400873
0.458573
0.519889
0.584287
0.650773
0.717716
0.782651
0.842028
0.891088
0.924417
0.935948
0.912173
0.838116
-0.864077
-0.941434
-0.959671
-0.938626
-0.896126
-0.840385
-0.777796
-0.713303
-0.650116
-0.590104
-0.534223
-0.482815
-0.435836
-0.393011
-0.353941
-0.318169
-0.285225
-0.254647
-0.225995
-0.198856
-0.172843
-0.147597
-0.122777
-0.0980588
-0.0731323
-0.0476926
-0.0214364
0.00594461
0.0347655
0.0653539
0.0980542
0.133231
0.171271
0.212581
0.257587
0.306721
0.360402
0.419006
0.482812
0.551918
0.62612
0.704733
0.786352
0.868526
0.947329
1.01699
1.07029
1.09824
1.08138
0.997967
-1.03852
-1.12645
-1.13284
-1.08857
-1.02017
-0.939522
-0.854825
-0.771748
-0.693509
-0.621625
-0.556561
-0.498166
-0.445946
-0.399246
-0.357357
-0.319575
-0.285236
-0.253731
-0.224503
-0.197051
-0.17092
-0.145695
-0.120995
-0.0964596
-0.0717491
-0.0465313
-0.0204767
0.00674982
0.0354944
0.0661219
0.099023
0.134621
0.173377
0.215798
0.262439
0.313897
0.370813
0.433838
0.503603
0.580636
0.665237
0.757282
0.855903
0.959046
1.06277
1.16049
1.24301
1.29741
1.29514
1.20286
-1.27313
-1.36737
-1.34827
-1.26563
-1.15878
-1.04403
-0.931076
-0.825678
-0.730375
-0.645751
-0.57136
-0.506254
-0.449296
-0.399325
-0.355246
-0.31607
-0.280917
-0.249019
-0.219705
-0.192386
-0.166543
-0.141715
-0.117484
-0.0934614
-0.0692846
-0.0446011
-0.0190616
0.00768883
0.0360205
0.066328
0.0990403
0.134632
0.173634
0.216646
0.264351
0.317523
0.377035
0.443862
0.519058
0.60371
0.698833
0.805177
0.922886
1.05092
1.18608
1.32167
1.44686
1.54397
1.57124
1.47575
-1.60687
-1.68954
-1.61755
-1.47201
-1.30892
-1.14861
-1.00079
-0.869775
-0.75621
-0.658871
-0.575822
-0.50497
-0.444327
-0.392117
-0.346809
-0.307103
-0.271903
-0.24029
-0.211484
-0.184824
-0.159739
-0.135731
-0.112356
-0.0892084
-0.0659108
-0.0420994
-0.0174148
0.00850977
0.0360587
0.0656459
0.0977277
0.132817
0.171502
0.214462
0.262495
0.316541
0.377711
0.447316
0.526888
0.618185
0.723147
0.843771
0.981812
1.13819
1.31177
1.49741
1.68421
1.85012
1.93636
1.85828
-2.11177
-2.13064
-1.9521
-1.70511
-1.46193
-1.24316
-1.0547
-0.896443
-0.765156
-0.656645
-0.566827
-0.492121
-0.429533
-0.376617
-0.331397
-0.292283
-0.257987
-0.227465
-0.199856
-0.174449
-0.15064
-0.127911
-0.105807
-0.0839182
-0.0618639
-0.0392805
-0.0158084
0.00891922
0.0352895
0.0637225
0.0946867
0.128717
0.166435
0.208579
0.256033
0.309874
0.371421
0.442302
0.524531
0.620589
0.7335
0.866857
1.02472
1.21119
1.42926
1.6786
1.95231
2.22779
2.42964
2.42599
-2.91863
-2.74083
-2.35959
-1.95542
-1.60234
-1.31273
-1.08078
-0.896847
-0.751108
-0.635042
-0.541824
-0.466175
-0.404066
-0.352425
-0.308903
-0.271687
-0.239361
-0.210805
-0.185123
-0.161582
-0.139573
-0.118582
-0.0981591
-0.0779042
-0.057448
-0.0364387
-0.0145288
0.00863716
0.0334354
0.0602771
0.0896251
0.122013
0.158073
0.198562
0.244413
0.296783
0.357135
0.427343
0.509825
0.607739
0.725221
0.867676
1.04208
1.25711
1.52278
1.84897
2.24091
2.68466
3.10205
3.31309
-4.3242
-3.56052
-2.8158
-2.1896
-1.6996
-1.33349
-1.06271
-0.860713
-0.707969
-0.590676
-0.499118
-0.426457
-0.367846
-0.319799
-0.279765
-0.245841
-0.216582
-0.19087
-0.167824
-0.146735
-0.127021
-0.108191
-0.0898246
-0.0715453
-0.053009
-0.0338879
-0.0138589
0.00740941
0.030269
0.0551063
0.0823588
0.112535
0.146243
0.18422
0.227387
0.276906
0.334282
0.40149
0.48118
0.576965
0.69386
0.838938
1.02225
1.25804
1.56651
1.97534
2.51432
3.19405
3.99366
4.82435
-7.15834
-4.55888
-3.1397
-2.25339
-1.64606
-1.23539
-0.95603
-0.759826
-0.617469
-0.511302
-0.43016
-0.366753
-0.316197
-0.275118
-0.24112
-0.212453
-0.187806
-0.166178
-0.146782
-0.128993
-0.112297
-0.0962628
-0.0805207
-0.0647418
-0.0486244
-0.0318816
-0.0142293
0.00462231
0.0249831
0.0471934
0.0716398
0.0987728
0.129132
0.163376
0.202331
0.247049
0.298904
0.359732
0.432041
0.519353
0.62676
0.761854
0.936263
1.16834
1.48845
1.94686
2.61304
3.57157
5.07691
7.79564
-12.0267
-5.64166
-2.97542
-1.87668
-1.27984
-0.925404
-0.706066
-0.560544
-0.457668
-0.381665
-0.3237
-0.27837
-0.242169
-0.212703
-0.188265
-0.1676
-0.149756
-0.133997
-0.119742
-0.10652
-0.0939423
-0.0816819
-0.0694539
-0.0570041
-0.044098
-0.0305112
-0.0160225
-0.000402734
0.0165907
0.0352244
0.0557999
0.0786671
0.104242
0.133029
0.165654
0.202908
0.245815
0.295727
0.354479
0.424647
0.509979
0.616218
0.752685
0.935788
1.19749
1.60163
2.26471
3.45832
6.24159
12.7523
)
;

boundaryField
{
    movingWall
    {
        type            zeroGradient;
    }
    fixedWalls
    {
        type            zeroGradient;
    }
    frontAndBack
    {
        type            empty;
    }
}


// ************************************************************************* //
