/*--------------------------------*- C++ -*----------------------------------*\
  =========                 |
  \\      /  F ield         | OpenFOAM: The Open Source CFD Toolbox
   \\    /   O peration     | Website:  https://openfoam.org
    \\  /    A nd           | Version:  7
     \\/     M anipulation  |
\*---------------------------------------------------------------------------*/
FoamFile
{
    version     2.0;
    format      ascii;
    class       volScalarField;
    location    "0.0046";
    object      p;
}
// * * * * * * * * * * * * * * * * * * * * * * * * * * * * * * * * * * * * * //

dimensions      [0 2 -2 0 0 0 0];

internalField   nonuniform List<scalar> 
2500
(
2.13573e-07
-0.000996122
-0.00240549
-0.00372031
-0.00465875
-0.00503969
-0.00477384
-0.00382989
-0.00220906
6.96818e-05
0.00297825
0.00648434
0.0105538
0.0151517
0.0202422
0.025789
0.0317546
0.0381001
0.0447857
0.0517701
0.0590106
0.0664635
0.0740843
0.0818273
0.0896464
0.0974949
0.105326
0.113093
0.120749
0.128247
0.135542
0.142589
0.149344
0.155764
0.161807
0.167433
0.172602
0.177275
0.181417
0.184989
0.187957
0.190287
0.191951
0.192929
0.193221
0.19286
0.191935
0.190633
0.189237
0.188247
0.000970878
-2.69947e-05
-0.00107857
-0.00197729
-0.00255229
-0.00266131
-0.00221909
-0.00118347
0.000460303
0.00270897
0.00554766
0.00895419
0.0129018
0.0173605
0.0222983
0.027681
0.0334729
0.0396366
0.0461332
0.0529224
0.0599626
0.067211
0.0746237
0.0821561
0.0897631
0.0973988
0.105017
0.112573
0.120019
0.127311
0.134404
0.141254
0.147817
0.154052
0.159918
0.165377
0.170389
0.174921
0.178938
0.182408
0.185305
0.187603
0.189289
0.190358
0.190827
0.190738
0.190178
0.189291
0.188249
0.187258
0.00234998
0.000993555
-6.27752e-05
-0.000825534
-0.00124818
-0.00122571
-0.000687353
0.000405005
0.00206887
0.00430661
0.00710936
0.0104603
0.0143369
0.0187128
0.0235581
0.0288406
0.0345259
0.0405777
0.0469579
0.0536268
0.0605436
0.067666
0.0749507
0.0823538
0.0898304
0.0973355
0.104824
0.112249
0.119568
0.126733
0.133702
0.140431
0.146877
0.152999
0.158758
0.164115
0.169035
0.173483
0.177428
0.180842
0.183702
0.185989
0.187694
0.18882
0.189384
0.189425
0.189016
0.188263
0.187212
0.185857
0.00366318
0.00187343
0.00065886
-0.00011833
-0.000509309
-0.00044029
0.000142234
0.00126622
0.00294546
0.0051824
0.00796992
0.0112935
0.015133
0.0194639
0.0242581
0.0294846
0.03511
0.0410987
0.0474133
0.0540145
0.0608619
0.0679136
0.0751267
0.0824574
0.0898614
0.0972937
0.104709
0.112063
0.11931
0.126405
0.133305
0.139967
0.146349
0.152409
0.158109
0.163411
0.168281
0.172684
0.176593
0.179981
0.182825
0.185112
0.186832
0.187989
0.188596
0.188683
0.188303
0.187532
0.186319
0.184526
0.0046445
0.00245163
0.00104796
0.000202371
-0.000208083
-0.000132864
0.000466531
0.00160759
0.00329874
0.00554046
0.00832548
0.0116401
0.0154651
0.0197772
0.0245494
0.0297513
0.0353503
0.0413112
0.047597
0.0541688
0.0609862
0.0680076
0.0751902
0.0824905
0.089864
0.097266
0.104651
0.111975
0.119193
0.126259
0.133131
0.139765
0.14612
0.152155
0.15783
0.16311
0.16796
0.172347
0.176244
0.179624
0.182467
0.184759
0.186492
0.187665
0.188289
0.18838
0.187978
0.187136
0.185731
0.183533
0.00511937
0.00258899
0.0010013
6.41798e-05
-0.000393652
-0.000336904
0.000261598
0.00141037
0.00311241
0.00536538
0.00816079
0.0114846
0.0153179
0.0196376
0.0244172
0.0296267
0.0352337
0.0412033
0.0474985
0.0540804
0.0609088
0.0679419
0.0751369
0.08245
0.0898368
0.0972525
0.104652
0.11199
0.119221
0.126301
0.133187
0.139834
0.146201
0.152248
0.157935
0.163227
0.168087
0.172486
0.176393
0.179785
0.182641
0.184946
0.186691
0.187872
0.188494
0.188565
0.188114
0.187179
0.185588
0.18305
0.00499869
0.0021971
0.000443454
-0.000591696
-0.00111003
-0.00108497
-0.000497037
0.00065536
0.00237047
0.00464298
0.00746266
0.0108145
0.0146791
0.0190333
0.0238503
0.0291003
0.0347506
0.0407661
0.0471098
0.0537426
0.0606239
0.0677118
0.074963
0.0823336
0.0897787
0.0972533
0.104712
0.112109
0.119398
0.126536
0.133478
0.14018
0.1466
0.152698
0.158433
0.16377
0.168673
0.17311
0.177053
0.180477
0.18336
0.185687
0.187446
0.188632
0.189243
0.189282
0.188769
0.187733
0.185974
0.183164
0.00424322
0.00122367
-0.000675112
-0.00180531
-0.00238722
-0.00239835
-0.00182384
-0.000667046
0.0010665
0.0033688
0.00622773
0.009627
0.0135464
0.017962
0.0228466
0.0281698
0.0338987
0.0399976
0.0464291
0.0531537
0.0601301
0.067316
0.0746676
0.0821405
0.0896892
0.0972681
0.104831
0.112332
0.119725
0.126965
0.134006
0.140804
0.147318
0.153505
0.159325
0.164741
0.169718
0.174222
0.178226
0.181702
0.184628
0.186988
0.188768
0.189959
0.190557
0.190559
0.189981
0.188849
0.186943
0.183914
0.00283787
-0.000363663
-0.00239041
-0.00360953
-0.00425309
-0.0042997
-0.00373685
-0.00257116
-0.000811025
0.00153328
0.00444783
0.00791491
0.0119132
0.0164177
0.0214004
0.0268303
0.0326734
0.0388937
0.0454527
0.0523103
0.0594246
0.0667523
0.074249
0.0818694
0.0895675
0.0972966
0.10501
0.112661
0.120202
0.127588
0.134772
0.14171
0.148358
0.154673
0.160615
0.166145
0.171227
0.175828
0.179917
0.183466
0.186454
0.188859
0.190669
0.191871
0.192458
0.192424
0.191783
0.19056
0.188526
0.185313
0.000777002
-0.00258692
-0.00473063
-0.00603302
-0.00673463
-0.00681334
-0.00625749
-0.00507576
-0.0032786
-0.000878197
0.00210986
0.00566635
0.00976857
0.0143905
0.0195028
0.0250734
0.0310674
0.0374476
0.0441747
0.0512075
0.058503
0.0660171
0.0737043
0.0815184
0.0894123
0.0973385
0.105249
0.113096
0.120832
0.12841
0.135781
0.142901
0.149725
0.156208
0.16231
0.16799
0.173211
0.177937
0.182138
0.185784
0.188851
0.191317
0.193167
0.194388
0.194969
0.194903
0.194203
0.192896
0.190743
0.187367
-0.00194387
-0.00546415
-0.00772018
-0.00910226
-0.00985837
-0.00996471
-0.00940949
-0.00820267
-0.00635624
-0.00388395
-0.000802993
0.00286589
0.0070985
0.0118673
0.0171418
0.0228884
0.0290709
0.0356508
0.0425875
0.0498386
0.0573598
0.0651058
0.07303
0.0810849
0.0892222
0.0973932
0.105549
0.11364
0.121618
0.129433
0.137038
0.144384
0.151427
0.15812
0.16442
0.170287
0.17568
0.180563
0.184903
0.18867
0.191837
0.194381
0.196285
0.197534
0.198116
0.198022
0.197268
0.195879
0.193612
0.190078
-0.00533264
-0.00901365
-0.011383
-0.0128437
-0.0136517
-0.013781
-0.0132191
-0.0119768
-0.0100674
-0.00750585
-0.00431104
-0.00050529
0.00388557
0.0088324
0.0143029
0.020262
0.026672
0.0334926
0.0406818
0.0481955
0.0559883
0.064013
0.0722218
0.0805658
0.0889953
0.0974601
0.10591
0.114294
0.122561
0.130662
0.138547
0.146166
0.153472
0.160417
0.166957
0.173048
0.17865
0.183723
0.188232
0.192145
0.195434
0.198075
0.200047
0.201335
0.201926
0.20181
0.201003
0.199535
0.197152
0.193455
-0.00940286
-0.0132567
-0.015745
-0.0172859
-0.0181444
-0.0182921
-0.0177157
-0.0164266
-0.014439
-0.0117694
-0.0084382
-0.00446945
0.000109178
0.00526668
0.0109689
0.0171787
0.0238566
0.0309606
0.0384466
0.0462689
0.0543802
0.062732
0.0712745
0.0799573
0.0887291
0.0975381
0.106332
0.115059
0.123667
0.132103
0.140316
0.148256
0.155871
0.163113
0.169935
0.176291
0.182138
0.187435
0.192145
0.196232
0.199668
0.202425
0.204482
0.205821
0.206429
0.206296
0.205438
0.203888
0.201384
0.197511
-0.0141745
-0.0182188
-0.0208355
-0.0224604
-0.0233692
-0.0235313
-0.0229322
-0.0215839
-0.0195018
-0.0167039
-0.0132121
-0.00905237
-0.00425455
0.00114821
0.00711957
0.0136203
0.0206085
0.0280402
0.0358692
0.0440477
0.0525266
0.0612552
0.0701821
0.079255
0.0884209
0.0976261
0.106817
0.115939
0.124938
0.133761
0.142353
0.150662
0.158634
0.16622
0.173369
0.180032
0.186165
0.191723
0.196667
0.200959
0.204567
0.207462
0.209621
0.211024
0.211658
0.211512
0.210603
0.208968
0.206333
0.202266
-0.0196742
-0.0239311
-0.0266885
-0.028403
-0.0293632
-0.0295359
-0.0289056
-0.0274851
-0.0252909
-0.0223426
-0.018664
-0.0142834
-0.00923282
-0.003548
0.00273224
0.0095661
0.0169092
0.0247151
0.0329353
0.0415197
0.0504168
0.0595741
0.068938
0.0784541
0.0880676
0.0977229
0.107364
0.116935
0.12638
0.135642
0.144666
0.153396
0.161776
0.169754
0.177277
0.184293
0.190754
0.196613
0.201826
0.206355
0.210164
0.213221
0.215501
0.216983
0.217652
0.217496
0.216536
0.214809
0.21203
0.207746
-0.0259352
-0.0304302
-0.0333433
-0.0351548
-0.0361683
-0.0363481
-0.0356778
-0.0341709
-0.0318455
-0.0287229
-0.0248294
-0.0201955
-0.0148563
-0.00885008
-0.00221874
0.00499307
0.0127382
0.0209672
0.029629
0.038671
0.0480394
0.0576791
0.0675345
0.077549
0.0876656
0.0978268
0.107974
0.11805
0.127996
0.137754
0.147264
0.156469
0.165311
0.173733
0.18168
0.189096
0.195931
0.202133
0.207656
0.212457
0.216496
0.219741
0.222162
0.223738
0.224452
0.224291
0.223277
0.22145
0.218512
0.213985
-0.032997
-0.037759
-0.0408449
-0.0427623
-0.043832
-0.0440157
-0.0432958
-0.0416873
-0.0392098
-0.0358871
-0.0317479
-0.0268259
-0.0211591
-0.0147894
-0.00776178
-0.00012437
0.00807243
0.0167762
0.0259327
0.0354867
0.0453815
0.0555598
0.0659633
0.0765334
0.0872108
0.0979357
0.108648
0.119287
0.129792
0.140103
0.150157
0.159894
0.169254
0.178175
0.186599
0.194467
0.201724
0.208315
0.21419
0.219301
0.223605
0.227066
0.229652
0.231339
0.232106
0.231944
0.230873
0.228938
0.225822
0.221022
-0.0409059
-0.045967
-0.0492452
-0.0512789
-0.0524083
-0.0525925
-0.0518129
-0.0500859
-0.0474337
-0.0438824
-0.039464
-0.0342157
-0.0281793
-0.0214005
-0.0139282
-0.0058143
0.00288716
0.0121202
0.0218274
0.0319502
0.0424293
0.0532046
0.0642153
0.0754004
0.0866983
0.0980471
0.109384
0.120647
0.131772
0.142696
0.153355
0.163685
0.173621
0.1831
0.192058
0.200434
0.208166
0.215196
0.221469
0.226932
0.231538
0.235246
0.238021
0.239837
0.240671
0.24051
0.239378
0.237324
0.234011
0.228904
-0.0497145
-0.0551107
-0.0586031
-0.0607651
-0.0619585
-0.0621395
-0.0612889
-0.059425
-0.0565726
-0.0527613
-0.0480268
-0.0424106
-0.0359587
-0.0287214
-0.0207522
-0.0121072
-0.00284462
0.00697561
0.0172925
0.0280441
0.039168
0.0506012
0.0622805
0.0741424
0.086123
0.098158
0.110183
0.122132
0.133941
0.145542
0.156869
0.167854
0.17843
0.188529
0.198083
0.207026
0.215291
0.222814
0.229535
0.235396
0.240345
0.244336
0.247329
0.249293
0.250206
0.250051
0.248855
0.246668
0.243135
0.237684
-0.0594831
-0.0652543
-0.0689859
-0.0712896
-0.0725518
-0.0727257
-0.0717913
-0.0697696
-0.0666888
-0.0625824
-0.0574908
-0.0514606
-0.044543
-0.0367934
-0.0282706
-0.0190357
-0.0091516
0.00131745
0.0123064
0.0237498
0.0355819
0.0477368
0.0601486
0.0727513
0.0854789
0.0982648
0.111042
0.123744
0.136301
0.148646
0.160708
0.172416
0.183699
0.194485
0.2047
0.214274
0.223134
0.231211
0.238436
0.244747
0.250085
0.254397
0.257639
0.259776
0.260782
0.260638
0.259372
0.257039
0.253259
0.247423
-0.070279
-0.0764708
-0.0804696
-0.0829302
-0.0842666
-0.0844287
-0.0833961
-0.0811929
-0.0778515
-0.0734106
-0.0679162
-0.0614207
-0.0539817
-0.0456609
-0.0365229
-0.0266345
-0.016064
-0.00488048
0.00684674
0.0190483
0.0316549
0.0445979
0.0578085
0.0712186
0.0847597
0.0983634
0.111961
0.125482
0.138858
0.152015
0.164882
0.177384
0.189445
0.200988
0.211937
0.222212
0.231736
0.240431
0.248224
0.255042
0.26082
0.265498
0.269026
0.271363
0.272477
0.27235
0.271008
0.268513
0.264458
0.258189
-0.0821785
-0.0888426
-0.0931404
-0.0957754
-0.0971919
-0.0973366
-0.0961888
-0.0937766
-0.090138
-0.0853177
-0.0793686
-0.0723506
-0.0643286
-0.0553714
-0.0455508
-0.03494
-0.0236133
-0.0116451
0.000890465
0.01392
0.0273707
0.0411708
0.0552491
0.0695351
0.0839585
0.098449
0.112936
0.127348
0.141612
0.155654
0.1694
0.18277
0.195685
0.208063
0.219821
0.230874
0.241137
0.250525
0.258954
0.266345
0.272622
0.277717
0.281572
0.284139
0.285382
0.285277
0.283854
0.281179
0.276813
0.270057
-0.0952668
-0.102463
-0.107096
-0.109925
-0.111429
-0.111549
-0.110266
-0.107612
-0.103634
-0.0983829
-0.0919204
-0.0843151
-0.075641
-0.0659754
-0.0553982
-0.04399
-0.0318318
-0.0190039
-0.00558557
0.00834545
0.0227129
0.0374419
0.052459
0.0676916
0.0830679
0.0985159
0.113964
0.129338
0.144565
0.159568
0.174268
0.188585
0.202435
0.21573
0.22838
0.240295
0.25138
0.261542
0.270686
0.278723
0.285566
0.291138
0.295368
0.298203
0.299597
0.299523
0.298012
0.295135
0.290421
0.283114
-0.10964
-0.117437
-0.122449
-0.125495
-0.127091
-0.127178
-0.125735
-0.122803
-0.118435
-0.112693
-0.10565
-0.0973841
-0.0879803
-0.077526
-0.0661105
-0.053823
-0.040752
-0.0269842
-0.0126042
0.00230559
0.0176654
0.0333977
0.0494267
0.0656784
0.0820796
0.0985575
0.115039
0.131451
0.147716
0.163757
0.179493
0.19484
0.20971
0.224009
0.237643
0.250511
0.26251
0.273536
0.283485
0.292252
0.299739
0.305855
0.310519
0.313664
0.315237
0.315205
0.313599
0.310495
0.305386
0.297457
-0.125406
-0.133885
-0.139326
-0.142614
-0.144311
-0.144352
-0.14272
-0.139464
-0.134647
-0.128346
-0.120643
-0.111633
-0.101411
-0.0900785
-0.0777345
-0.0644781
-0.0504061
-0.0356124
-0.0201873
-0.00421768
0.0122132
0.0290252
0.0461411
0.0634856
0.080985
0.0985662
0.116156
0.13368
0.151061
0.168221
0.185077
0.20154
0.217521
0.232919
0.247634
0.261555
0.274571
0.286564
0.297417
0.307012
0.315233
0.321974
0.327138
0.330646
0.332433
0.332456
0.330747
0.32739
0.321833
0.313193
-0.142687
-0.151945
-0.157874
-0.161434
-0.163239
-0.163219
-0.16136
-0.157724
-0.152389
-0.145445
-0.136993
-0.127141
-0.116002
-0.10369
-0.0903168
-0.0759932
-0.0608249
-0.0449133
-0.0283547
-0.0112405
0.00634283
0.0243131
0.042592
0.0611038
0.0797751
0.0985331
0.117305
0.136018
0.154594
0.172955
0.191016
0.208688
0.225875
0.242474
0.258375
0.27346
0.287606
0.300682
0.312554
0.323088
0.332149
0.33961
0.345358
0.349292
0.351335
0.351432
0.349612
0.345969
0.3399
0.330447
-0.161621
-0.171776
-0.178262
-0.182129
-0.184048
-0.183946
-0.181815
-0.177731
-0.171792
-0.164107
-0.154798
-0.143993
-0.131822
-0.118417
-0.103903
-0.0884045
-0.0720364
-0.0549084
-0.0371231
-0.018776
4.3485e-05
0.0192519
0.0387705
0.0585242
0.0784406
0.0984486
0.118477
0.138455
0.158305
0.17795
0.197305
0.21628
0.234774
0.252681
0.269883
0.286254
0.301656
0.315945
0.328969
0.340571
0.350596
0.358893
0.365322
0.369763
0.372115
0.372311
0.370375
0.366406
0.359749
0.349357
-0.182367
-0.193561
-0.20069
-0.204904
-0.206941
-0.206728
-0.204264
-0.199649
-0.193002
-0.184459
-0.174167
-0.162277
-0.148944
-0.134316
-0.118537
-0.101744
-0.0840642
-0.0656149
-0.0465047
-0.0268334
-0.00669211
0.0138349
0.0346697
0.0557388
0.0769723
0.098302
0.11966
0.140977
0.16218
0.183193
0.203932
0.224305
0.244213
0.263542
0.28217
0.299958
0.316758
0.332408
0.346734
0.359558
0.370694
0.379964
0.387197
0.392242
0.394974
0.395302
0.393245
0.388908
0.381569
0.370082
-0.205108
-0.217519
-0.225393
-0.229999
-0.232156
-0.23179
-0.228918
-0.223663
-0.216181
-0.206637
-0.195211
-0.182085
-0.167437
-0.15144
-0.134257
-0.116039
-0.0969261
-0.0770436
-0.056506
-0.0354162
-0.0138666
0.00805921
0.0302853
0.0527413
0.0753612
0.0980811
0.120838
0.143566
0.166199
0.188662
0.210874
0.232747
0.254176
0.275049
0.295234
0.314586
0.332941
0.350118
0.365922
0.380144
0.392569
0.402979
0.411166
0.416941
0.420143
0.420651
0.418472
0.413716
0.405582
0.392808
-0.230058
-0.243906
-0.252652
-0.257702
-0.259973
-0.259398
-0.256014
-0.249985
-0.241508
-0.23079
-0.21805
-0.203507
-0.187369
-0.169837
-0.151094
-0.131308
-0.110631
-0.0891969
-0.0671253
-0.0445211
-0.0214767
0.00192663
0.0256164
0.0495272
0.0735986
0.0977728
0.121993
0.146202
0.170336
0.194329
0.218104
0.241574
0.264638
0.287181
0.309066
0.330139
0.350222
0.369116
0.386599
0.40243
0.416354
0.428109
0.437438
0.444103
0.447894
0.44865
0.446356
0.441123
0.432054
0.417748
-0.257471
-0.273035
-0.282808
-0.288358
-0.290727
-0.28986
-0.285829
-0.278852
-0.26918
-0.257075
-0.242806
-0.226632
-0.208803
-0.189546
-0.169069
-0.147558
-0.125176
-0.102066
-0.0783507
-0.0541355
-0.029511
-0.00455462
0.020667
0.0460951
0.071677
0.0973635
0.123106
0.148856
0.17456
0.200158
0.22558
0.250745
0.275557
0.299899
0.323635
0.3466
0.368605
0.389429
0.408823
0.426508
0.442185
0.455536
0.466244
0.474006
0.478547
0.479647
0.477259
0.471485
0.461308
0.44516
-0.287654
-0.305294
-0.31628
-0.322388
-0.324819
-0.323542
-0.318683
-0.310532
-0.299414
-0.28566
-0.269599
-0.251545
-0.231788
-0.210592
-0.188188
-0.16478
-0.140544
-0.115628
-0.0901571
-0.0642352
-0.0379487
-0.0113684
0.0154468
0.0424474
0.0695909
0.0968388
0.124154
0.151499
0.17883
0.2061
0.233249
0.260203
0.286874
0.313149
0.338891
0.363931
0.388068
0.411063
0.432634
0.452465
0.4702
0.485457
0.497844
0.506971
0.512478
0.514063
0.511625
0.505245
0.493749
0.475358
-0.320992
-0.341166
-0.353594
-0.360314
-0.362736
-0.360879
-0.354944
-0.345324
-0.332441
-0.316713
-0.298546
-0.278315
-0.25636
-0.232981
-0.208436
-0.182946
-0.156698
-0.129842
-0.102503
-0.0747819
-0.0467565
-0.0184888
0.00997305
0.0385917
0.0673373
0.0961848
0.125111
0.154092
0.183099
0.212098
0.241043
0.269874
0.29851
0.326849
0.354757
0.382066
0.408565
0.433996
0.458051
0.480366
0.500527
0.518074
0.532519
0.543365
0.550134
0.552409
0.550006
0.542961
0.529887
0.508737
-0.357978
-0.381275
-0.395417
-0.402785
-0.405074
-0.402385
-0.395038
-0.383562
-0.368507
-0.350404
-0.32975
-0.306993
-0.282527
-0.256691
-0.22977
-0.202
-0.173574
-0.144643
-0.115328
-0.0857199
-0.0558872
-0.0258786
0.00427187
0.0345417
0.0649168
0.0953883
0.12595
0.156594
0.187311
0.218083
0.248881
0.279662
0.310362
0.340891
0.371125
0.400902
0.430007
0.458169
0.485053
0.510249
0.533278
0.553588
0.570575
0.583605
0.592043
0.59531
0.593093
0.585347
0.570387
0.545811
-0.399267
-0.426441
-0.44261
-0.450619
-0.45256
-0.448674
-0.43945
-0.425607
-0.407864
-0.386889
-0.36329
-0.337596
-0.310261
-0.281664
-0.252112
-0.221852
-0.191079
-0.15994
-0.128546
-0.0969732
-0.0652759
-0.0334859
-0.00161948
0.0303193
0.0623352
0.0944386
0.126643
0.158961
0.191403
0.223972
0.256663
0.289453
0.3223
0.355133
0.387848
0.420292
0.452259
0.483471
0.51357
0.542107
0.568529
0.592186
0.612333
0.628161
0.638829
0.643532
0.641762
0.63333
0.616131
0.587276
-0.445754
-0.477757
-0.496296
-0.504853
-0.50609
-0.500469
-0.488729
-0.471845
-0.450754
-0.426294
-0.399199
-0.370091
-0.339483
-0.307789
-0.275334
-0.242369
-0.209082
-0.175608
-0.142042
-0.108441
-0.0748372
-0.0412422
-0.00765008
0.0259571
0.059606
0.0933294
0.127163
0.161143
0.195305
0.229676
0.264276
0.299111
0.334167
0.369401
0.404734
0.440039
0.475126
0.509724
0.543465
0.575863
0.606302
0.634018
0.658107
0.677545
0.691219
0.698013
0.697127
0.68813
0.66831
0.634097
-0.498693
-0.536713
-0.557959
-0.566815
-0.566762
-0.558617
-0.543477
-0.522664
-0.497386
-0.468688
-0.437445
-0.404373
-0.37004
-0.334887
-0.299246
-0.26336
-0.2274
-0.19148
-0.155666
-0.119992
-0.0844611
-0.0490587
-0.0137527
0.0215003
0.0567523
0.0920611
0.127488
0.163095
0.198945
0.235094
0.271594
0.308482
0.345779
0.383482
0.421548
0.459888
0.498344
0.53667
0.574507
0.611351
0.646529
0.679167
0.708186
0.732301
0.750053
0.759899
0.760612
0.751365
0.728557
0.68765
-0.559882
-0.605362
-0.629572
-0.638195
-0.635912
-0.624088
-0.604331
-0.578418
-0.547896
-0.514043
-0.477886
-0.440228
-0.40168
-0.36269
-0.32358
-0.284569
-0.245796
-0.207338
-0.169228
-0.131461
-0.0940088
-0.0568227
-0.0198404
0.0170107
0.0538105
0.0906446
0.127602
0.164774
0.202252
0.240125
0.27848
0.317393
0.356929
0.397129
0.438005
0.479519
0.521567
0.563954
0.606355
0.648278
0.689017
0.727607
0.762784
0.792969
0.816269
0.830572
0.834032
0.825193
0.799137
0.749926
-0.631926
-0.686564
-0.713775
-0.721151
-0.715142
-0.697954
-0.671909
-0.639366
-0.602278
-0.562173
-0.520222
-0.477294
-0.434012
-0.390808
-0.347965
-0.305652
-0.263959
-0.22291
-0.182488
-0.142645
-0.103309
-0.0643944
-0.0258032
0.0125693
0.0508337
0.0891051
0.127502
0.166146
0.20516
0.244669
0.284798
0.325667
0.367391
0.410069
0.453778
0.498553
0.544371
0.591114
0.638533
0.686193
0.733402
0.779139
0.82198
0.860028
0.890875
0.91167
0.91969
0.912497
0.883216
0.823838
-0.718649
-0.784344
-0.814108
-0.818401
-0.806317
-0.781324
-0.746712
-0.705563
-0.660282
-0.612641
-0.563916
-0.514995
-0.466467
-0.418701
-0.371903
-0.326164
-0.281495
-0.237852
-0.195154
-0.153295
-0.112155
-0.071604
-0.0315057
0.00827968
0.0478949
0.0874857
0.127201
0.167193
0.207618
0.248637
0.290417
0.333126
0.376935
0.422011
0.468509
0.51656
0.566246
0.617572
0.670414
0.724454
0.77909
0.833321
0.88562
0.9338
0.974877
1.00508
1.02048
1.01714
0.985248
0.913678
-0.825741
-0.904419
-0.935305
-0.93331
-0.911499
-0.875193
-0.828944
-0.776683
-0.72126
-0.664631
-0.608095
-0.552471
-0.498238
-0.445637
-0.394747
-0.34554
-0.297921
-0.251753
-0.206877
-0.163119
-0.120304
-0.0782518
-0.0367865
0.00426837
0.0450884
0.0858501
0.126732
0.167916
0.209593
0.25196
0.295224
0.339606
0.385337
0.432659
0.481822
0.533068
0.586619
0.642645
0.70121
0.7622
0.825206
0.889373
0.953201
1.01431
1.06914
1.11286
1.13995
1.14426
1.11154
1.02583
-0.961846
-1.05499
-1.08366
-1.0699
-1.03274
-0.980147
-0.918212
-0.851746
-0.783945
-0.716787
-0.651433
-0.588498
-0.528235
-0.470669
-0.415687
-0.363096
-0.312661
-0.264133
-0.217257
-0.171786
-0.127481
-0.0841127
-0.0414626
0.000681818
0.0425278
0.0842809
0.126147
0.168339
0.211075
0.254589
0.299129
0.344966
0.392394
0.441736
0.493342
0.547589
0.604865
0.665553
0.729975
0.798325
0.870533
0.946075
1.0237
1.10105
1.17416
1.23709
1.28235
1.30067
1.27111
1.16997
-1.14056
-1.24796
-1.26743
-1.23266
-1.17165
-1.09585
-1.01305
-0.928743
-0.846169
-0.767014
-0.692032
-0.62142
-0.55505
-0.492621
-0.433752
-0.378035
-0.325066
-0.27446
-0.225861
-0.17894
-0.133396
-0.0889492
-0.04534
-0.002323
0.0403378
0.0828734
0.125515
0.1685
0.212074
0.256501
0.302068
0.349093
0.397931
0.448986
0.502714
0.559637
0.620334
0.685441
0.755616
0.831473
0.913461
1.00164
1.09535
1.19268
1.28965
1.37946
1.45249
1.49529
1.47698
1.36122
-1.38445
-1.50078
-1.49696
-1.42593
-1.32844
-1.22016
-1.1102
-1.00412
-0.904542
-0.812303
-0.727337
-0.64913
-0.576978
-0.51013
-0.447859
-0.389499
-0.334452
-0.282192
-0.232256
-0.184235
-0.137769
-0.0925332
-0.0482334
-0.00459564
0.0386394
0.0817233
0.124907
0.168447
0.212611
0.257689
0.303999
0.3519
0.401804
0.454184
0.509608
0.568738
0.632359
0.701393
0.776893
0.860013
0.951909
1.05356
1.16536
1.28651
1.41387
1.54053
1.65518
1.73933
1.74807
1.62454
-1.73347
-1.83917
-1.78399
-1.65191
-1.49999
-1.34753
-1.20354
-1.07214
-0.954119
-0.848602
-0.754134
-0.669132
-0.592106
-0.521738
-0.456901
-0.396646
-0.340179
-0.286836
-0.236058
-0.187369
-0.140362
-0.0946759
-0.0499915
-0.00601496
0.0375288
0.0809052
0.124378
0.168215
0.212701
0.258142
0.304881
0.353307
0.403874
0.457122
0.513704
0.57442
0.640252
0.712415
0.792395
0.881976
0.983196
1.09832
1.22939
1.37767
1.54224
1.71793
1.8934
2.04568
2.11215
2.00353
-2.25977
-2.30049
-2.13948
-1.90746
-1.67693
-1.46709
-1.28303
-1.12445
-0.988352
-0.870976
-0.768793
-0.678798
-0.598548
-0.526099
-0.459915
-0.398785
-0.341746
-0.288026
-0.236999
-0.188144
-0.141025
-0.0952635
-0.0505277
-0.00651563
0.0370542
0.0804521
0.123946
0.16781
0.212334
0.257833
0.30466
0.353224
0.404004
0.457583
0.514681
0.5762
0.643291
0.717431
0.800524
0.895009
1.00397
1.13118
1.28104
1.45807
1.66568
1.90375
2.1653
2.42687
2.60904
2.57534
-3.09266
-2.93347
-2.56966
-2.18149
-1.84239
-1.56246
-1.33533
-1.15113
-1.00026
-0.874684
-0.768188
-0.676116
-0.595039
-0.522435
-0.456437
-0.395649
-0.33901
-0.285695
-0.235055
-0.186561
-0.139774
-0.0943192
-0.0498686
-0.00612486
0.0371888
0.0803383
0.123587
0.167207
0.211482
0.256727
0.303292
0.351588
0.4021
0.455424
0.512309
0.573713
0.64089
0.715504
0.799794
0.896786
1.01057
1.14666
1.31228
1.51654
1.77003
2.08317
2.46166
2.89101
3.28989
3.47457
-4.5249
-3.77604
-3.04795
-2.43868
-1.96365
-1.60831
-1.34309
-1.14118
-0.983258
-0.856021
-0.750387
-0.660203
-0.581288
-0.510772
-0.44665
-0.387489
-0.332236
-0.280099
-0.230462
-0.18283
-0.136794
-0.0920047
-0.0481545
-0.00496407
0.0378278
0.0804734
0.123224
0.166337
0.210086
0.25477
0.300727
0.348345
0.398094
0.450548
0.506433
0.566694
0.632592
0.705843
0.788836
0.884954
0.999048
1.13814
1.3124
1.53642
1.83098
2.22452
2.74778
3.4121
4.19502
5.00346
-7.38119
-4.7928
-3.39101
-2.52408
-1.93436
-1.5369
-1.26496
-1.06995
-0.922751
-0.806268
-0.710083
-0.627726
-0.555114
-0.489615
-0.429475
-0.373487
-0.320788
-0.270732
-0.222817
-0.176637
-0.13185
-0.0881574
-0.0452928
-0.00300994
0.0389248
0.0807392
0.122662
0.164927
0.207783
0.251502
0.296387
0.342785
0.391109
0.441864
0.495683
0.553388
0.616081
0.685286
0.763169
0.852905
0.959264
1.08959
1.25541
1.4752
1.77975
2.22011
2.86701
3.80674
5.29435
7.99597
-12.2597
-5.88663
-3.24229
-2.16956
-1.59678
-1.26082
-1.05259
-0.910298
-0.803092
-0.716017
-0.641293
-0.574639
-0.513611
-0.456757
-0.403166
-0.352226
-0.303494
-0.256622
-0.211319
-0.167331
-0.124425
-0.0823885
-0.0410161
-0.000112391
0.0405141
0.0810539
0.121699
0.162649
0.204113
0.246316
0.289504
0.333952
0.379975
0.427943
0.478301
0.531608
0.588586
0.650218
0.717896
0.793687
0.880799
0.984447
1.11351
1.28415
1.5284
1.91059
2.54844
3.71576
6.47553
12.9694
)
;

boundaryField
{
    movingWall
    {
        type            zeroGradient;
    }
    fixedWalls
    {
        type            zeroGradient;
    }
    frontAndBack
    {
        type            empty;
    }
}


// ************************************************************************* //
