/*--------------------------------*- C++ -*----------------------------------*\
  =========                 |
  \\      /  F ield         | OpenFOAM: The Open Source CFD Toolbox
   \\    /   O peration     | Website:  https://openfoam.org
    \\  /    A nd           | Version:  7
     \\/     M anipulation  |
\*---------------------------------------------------------------------------*/
FoamFile
{
    version     2.0;
    format      ascii;
    class       surfaceScalarField;
    location    "0.0498";
    object      phi;
}
// * * * * * * * * * * * * * * * * * * * * * * * * * * * * * * * * * * * * * //

dimensions      [0 3 -1 0 0 0 0];

internalField   nonuniform List<scalar> 
4900
(
1.0554e-09
-1.05021e-09
2.10236e-09
-1.04697e-09
2.08873e-09
1.36377e-11
6.7341e-10
1.41533e-09
-2.21894e-09
2.89236e-09
-6.50311e-09
4.28415e-09
-1.20217e-08
5.51856e-09
-1.8586e-08
6.56424e-09
-2.59964e-08
7.41042e-09
-3.4053e-08
8.05666e-09
-4.25612e-08
8.50814e-09
-5.13344e-08
8.77326e-09
-6.01968e-08
8.86232e-09
-6.89835e-08
8.78677e-09
-7.75422e-08
8.55863e-09
-8.57325e-08
8.19028e-09
-9.34267e-08
7.69421e-09
-1.0051e-07
7.08296e-09
-1.06879e-07
6.36901e-09
-1.12444e-07
5.56483e-09
-1.17126e-07
4.68287e-09
-1.20862e-07
3.73564e-09
-1.23598e-07
2.73574e-09
-1.25294e-07
1.696e-09
-1.25923e-07
6.29488e-10
-1.25473e-07
-4.50377e-10
-1.23943e-07
-1.52977e-09
-1.21349e-07
-2.59443e-09
-1.17719e-07
-3.62964e-09
-1.13099e-07
-4.62025e-09
-1.07548e-07
-5.55073e-09
-1.01143e-07
-6.40525e-09
-9.3975e-08
-7.1678e-09
-8.61526e-08
-7.82238e-09
-7.77994e-08
-8.35316e-09
-6.90546e-08
-8.74477e-09
-6.00721e-08
-8.98256e-09
-5.10192e-08
-9.05287e-09
-4.20757e-08
-8.9435e-09
-3.34317e-08
-8.64403e-09
-2.52852e-08
-8.14645e-09
-1.78393e-08
-7.44594e-09
-1.12972e-08
-6.54212e-09
-5.8558e-09
-5.44136e-09
-1.69444e-09
-4.16136e-09
1.04703e-09
-2.74147e-09
2.30815e-09
-1.26112e-09
2.17456e-09
1.33553e-10
1.05361e-09
1.12086e-09
1.05353e-09
1.06072e-09
-2.11095e-09
1.08266e-09
-1.0689e-09
-1.42564e-09
2.52194e-09
-7.18139e-09
7.17108e-09
-1.63743e-08
1.20852e-08
-2.88897e-08
1.67997e-08
-4.4426e-08
2.10549e-08
-6.25752e-08
2.47134e-08
-8.28739e-08
2.77091e-08
-1.04835e-07
3.0018e-08
-1.27969e-07
3.16421e-08
-1.51796e-07
3.25999e-08
-1.75853e-07
3.292e-08
-1.99705e-07
3.26382e-08
-2.2294e-07
3.17942e-08
-2.45181e-07
3.04308e-08
-2.66079e-07
2.85921e-08
-2.85319e-07
2.63235e-08
-3.02621e-07
2.36707e-08
-3.17736e-07
2.068e-08
-3.30451e-07
1.7398e-08
-3.40587e-07
1.38718e-08
-3.48001e-07
1.01491e-08
-3.52583e-07
6.27838e-09
-3.54263e-07
2.30916e-09
-3.53005e-07
-1.70781e-09
-3.48815e-07
-5.72041e-09
-3.41734e-07
-9.67506e-09
-3.31847e-07
-1.35167e-08
-3.19279e-07
-1.71889e-08
-3.04195e-07
-2.06341e-08
-2.86806e-07
-2.37939e-08
-2.67364e-07
-2.66099e-08
-2.46163e-07
-2.90238e-08
-2.23537e-07
-3.09787e-08
-1.99862e-07
-3.24198e-08
-1.75549e-07
-3.32958e-08
-1.51042e-07
-3.356e-08
-1.26814e-07
-3.31721e-08
-1.03357e-07
-3.21003e-08
-8.11802e-08
-3.03235e-08
-6.07906e-08
-2.78356e-08
-4.26823e-08
-2.46504e-08
-2.73125e-08
-2.08112e-08
-1.50681e-08
-1.64058e-08
-6.2157e-09
-1.15939e-08
-8.22237e-10
-6.65455e-09
1.3783e-09
-2.06688e-09
1.13171e-09
1.3676e-09
2.18519e-09
4.62251e-11
-2.15717e-09
-2.41555e-09
1.39289e-09
-8.83958e-09
8.94597e-09
-1.99403e-08
1.82718e-08
-3.59208e-08
2.80657e-08
-5.66276e-08
3.75064e-08
-8.16616e-08
4.60889e-08
-1.10467e-07
5.3519e-08
-1.42396e-07
5.96375e-08
-1.76749e-07
6.43717e-08
-2.12813e-07
6.77061e-08
-2.49877e-07
6.96635e-08
-2.87249e-07
7.02922e-08
-3.24269e-07
6.96582e-08
-3.60314e-07
6.78387e-08
-3.94802e-07
6.49193e-08
-4.272e-07
6.09904e-08
-4.57023e-07
5.61459e-08
-4.83834e-07
5.04823e-08
-5.07252e-07
4.40974e-08
-5.26944e-07
3.70905e-08
-5.42635e-07
2.95625e-08
-5.54102e-07
2.16157e-08
-5.61177e-07
1.33543e-08
-5.63753e-07
4.88472e-09
-5.61777e-07
-3.68394e-09
-5.55257e-07
-1.224e-08
-5.44264e-07
-2.06686e-08
-5.28928e-07
-2.88525e-08
-5.09445e-07
-3.66715e-08
-4.86076e-07
-4.40036e-08
-4.59144e-07
-5.07256e-08
-4.2904e-07
-5.67144e-08
-3.96215e-07
-6.18484e-08
-3.61185e-07
-6.60092e-08
-3.2452e-07
-6.90841e-08
-2.86848e-07
-7.09685e-08
-2.48838e-07
-7.15693e-08
-2.11202e-07
-7.08082e-08
-1.74676e-07
-6.86268e-08
-1.40007e-07
-6.49925e-08
-1.07936e-07
-5.99063e-08
-7.91715e-08
-5.3415e-08
-5.43542e-08
-4.56286e-08
-3.40124e-08
-3.67476e-08
-1.84981e-08
-2.71082e-08
-7.89989e-09
-1.72528e-08
-1.93468e-09
-8.03215e-09
1.95061e-10
-7.62077e-10
2.38024e-09
-1.3165e-09
-8.40666e-10
-6.98978e-09
7.06619e-09
-1.80939e-08
2.00502e-08
-3.51607e-08
3.53385e-08
-5.82883e-08
5.11933e-08
-8.723e-08
6.64482e-08
-1.21484e-07
8.03429e-08
-1.60371e-07
9.24056e-08
-2.03095e-07
1.02362e-07
-2.48794e-07
1.10071e-07
-2.96578e-07
1.1549e-07
-3.45551e-07
1.18636e-07
-3.94836e-07
1.19578e-07
-4.43591e-07
1.18413e-07
-4.91014e-07
1.15262e-07
-5.36358e-07
1.10263e-07
-5.78929e-07
1.03562e-07
-6.18099e-07
9.53158e-08
-6.53302e-07
8.56845e-08
-6.84037e-07
7.48327e-08
-7.09874e-07
6.29281e-08
-7.30453e-07
5.01414e-08
-7.45484e-07
3.66465e-08
-7.54751e-07
2.26207e-08
-7.58111e-07
8.24504e-09
-7.555e-07
-6.2952e-09
-7.4693e-07
-2.08102e-08
-7.32493e-07
-3.51054e-08
-7.12363e-07
-4.89822e-08
-6.86797e-07
-6.22377e-08
-6.56134e-07
-7.46668e-08
-6.20797e-07
-8.60625e-08
-5.81292e-07
-9.6219e-08
-5.38207e-07
-1.04934e-07
-4.92205e-07
-1.12011e-07
-4.44025e-07
-1.17265e-07
-3.94468e-07
-1.20525e-07
-3.44394e-07
-1.21643e-07
-2.94708e-07
-1.20495e-07
-2.4634e-07
-1.16995e-07
-2.00231e-07
-1.11101e-07
-1.57307e-07
-1.02831e-07
-1.18442e-07
-9.22795e-08
-8.44263e-08
-7.96446e-08
-5.59084e-08
-6.52655e-08
-3.33373e-08
-4.96792e-08
-1.68845e-08
-3.37057e-08
-6.35958e-09
-1.85571e-08
-1.13017e-09
-5.99147e-09
1.25007e-09
-2.77426e-09
1.93358e-09
-1.19493e-08
1.62412e-08
-2.81053e-08
3.62062e-08
-5.14786e-08
5.87118e-08
-8.19691e-08
8.16837e-08
-1.19183e-07
1.03662e-07
-1.62491e-07
1.23651e-07
-2.11087e-07
1.41002e-07
-2.64046e-07
1.5532e-07
-3.20366e-07
1.66391e-07
-3.79007e-07
1.74131e-07
-4.38924e-07
1.78554e-07
-4.99088e-07
1.79742e-07
-5.58502e-07
1.77827e-07
-6.1622e-07
1.7298e-07
-6.71352e-07
1.65394e-07
-7.23074e-07
1.55284e-07
-7.70635e-07
1.42876e-07
-8.13357e-07
1.28406e-07
-8.50643e-07
1.12119e-07
-8.81977e-07
9.42621e-08
-9.06926e-07
7.50911e-08
-9.25145e-07
5.48654e-08
-9.36374e-07
3.38498e-08
-9.40445e-07
1.23153e-08
-9.37278e-07
-9.46138e-09
-9.26892e-07
-3.11965e-08
-9.09397e-07
-5.26002e-08
-8.85003e-07
-7.33763e-08
-8.54017e-07
-9.32236e-08
-8.16847e-07
-1.11837e-07
-7.73998e-07
-1.28911e-07
-7.26075e-07
-1.44142e-07
-6.73777e-07
-1.57231e-07
-6.17896e-07
-1.67892e-07
-5.59306e-07
-1.75855e-07
-4.98958e-07
-1.80873e-07
-4.37869e-07
-1.82732e-07
-3.77101e-07
-1.81262e-07
-3.17751e-07
-1.76346e-07
-2.60917e-07
-1.67934e-07
-2.07681e-07
-1.56068e-07
-1.59062e-07
-1.40898e-07
-1.15984e-07
-1.22722e-07
-7.92225e-08
-1.02027e-07
-4.93497e-08
-7.9552e-08
-2.66762e-08
-5.63793e-08
-1.11955e-08
-3.40378e-08
-2.54575e-09
-1.46412e-08
-1.29568e-09
-4.20609e-09
6.13968e-09
-1.69407e-08
2.89758e-08
-3.82768e-08
5.75424e-08
-6.80977e-08
8.85327e-08
-1.06049e-07
1.19635e-07
-1.51543e-07
1.49157e-07
-2.03796e-07
1.75904e-07
-2.61864e-07
1.99069e-07
-3.24687e-07
2.18144e-07
-3.91134e-07
2.32838e-07
-4.60037e-07
2.43033e-07
-5.30216e-07
2.48733e-07
-6.00513e-07
2.50038e-07
-6.69802e-07
2.47117e-07
-7.37014e-07
2.40191e-07
-8.01139e-07
2.29519e-07
-8.61242e-07
2.15388e-07
-9.1647e-07
1.98103e-07
-9.6605e-07
1.77987e-07
-1.0093e-06
1.55373e-07
-1.04564e-06
1.30601e-07
-1.07457e-06
1.04022e-07
-1.0957e-06
7.59925e-08
-1.10873e-06
4.68784e-08
-1.11347e-06
1.70523e-08
-1.10982e-06
-1.31043e-08
-1.09782e-06
-4.32009e-08
-1.07758e-06
-7.28388e-08
-1.04935e-06
-1.01611e-07
-1.01346e-06
-1.29104e-07
-9.70401e-07
-1.54901e-07
-9.20729e-07
-1.78583e-07
-8.65136e-07
-1.99735e-07
-8.04416e-07
-2.17952e-07
-7.39465e-07
-2.32843e-07
-6.71275e-07
-2.44045e-07
-6.00923e-07
-2.51225e-07
-5.29556e-07
-2.54099e-07
-4.58377e-07
-2.52442e-07
-3.88619e-07
-2.46103e-07
-3.21525e-07
-2.35028e-07
-2.58314e-07
-2.19279e-07
-2.00145e-07
-1.99067e-07
-1.48079e-07
-1.74789e-07
-1.03031e-07
-1.47075e-07
-6.57288e-08
-1.16854e-07
-3.66679e-08
-8.54402e-08
-1.60827e-08
-5.4623e-08
-3.94233e-09
-2.67816e-08
-5.23801e-09
-5.57019e-09
1.17099e-08
-2.18071e-08
4.52127e-08
-4.83108e-08
8.40461e-08
-8.45966e-08
1.24818e-07
-1.30024e-07
1.65062e-07
-1.83784e-07
2.02916e-07
-2.44906e-07
2.37026e-07
-3.12292e-07
2.66455e-07
-3.84744e-07
2.90595e-07
-4.60998e-07
3.09093e-07
-5.39762e-07
3.21797e-07
-6.19738e-07
3.28709e-07
-6.9965e-07
3.2995e-07
-7.78261e-07
3.25728e-07
-8.54392e-07
3.16323e-07
-9.26934e-07
3.02062e-07
-9.94858e-07
2.83312e-07
-1.05722e-06
2.60466e-07
-1.11317e-06
2.33941e-07
-1.16197e-06
2.04165e-07
-1.20295e-06
1.71584e-07
-1.23558e-06
1.3665e-07
-1.25942e-06
9.98302e-08
-1.27414e-06
6.15985e-08
-1.27952e-06
2.24409e-08
-1.27548e-06
-1.71459e-08
-1.26203e-06
-5.66539e-08
-1.2393e-06
-9.55643e-08
-1.20757e-06
-1.33348e-07
-1.1672e-06
-1.69469e-07
-1.11872e-06
-2.03385e-07
-1.06275e-06
-2.34554e-07
-1.00004e-06
-2.62438e-07
-9.31483e-07
-2.86514e-07
-8.58048e-07
-3.06278e-07
-7.80831e-07
-3.21261e-07
-7.01017e-07
-3.31039e-07
-6.19869e-07
-3.35247e-07
-5.38712e-07
-3.33599e-07
-4.58909e-07
-3.25907e-07
-3.81832e-07
-3.12104e-07
-3.08837e-07
-2.92274e-07
-2.41223e-07
-2.66681e-07
-1.80198e-07
-2.35814e-07
-1.26839e-07
-2.00434e-07
-8.20548e-08
-1.61638e-07
-4.65603e-08
-1.20935e-07
-2.0862e-08
-8.03213e-08
-5.27603e-09
-4.23676e-08
-1.0514e-08
-6.86038e-09
1.85703e-08
-2.64994e-08
6.48517e-08
-5.80933e-08
1.1564e-07
-1.00798e-07
1.67523e-07
-1.53674e-07
2.17939e-07
-2.15669e-07
2.64911e-07
-2.8561e-07
3.06967e-07
-3.62224e-07
3.4307e-07
-4.44163e-07
3.72534e-07
-5.30029e-07
3.94959e-07
-6.18404e-07
4.10172e-07
-7.07875e-07
4.18181e-07
-7.97058e-07
4.19132e-07
-8.84614e-07
4.13285e-07
-9.69271e-07
4.00979e-07
-1.04983e-06
3.8262e-07
-1.12518e-06
3.5866e-07
-1.1943e-06
3.29589e-07
-1.25628e-06
2.95921e-07
-1.31031e-06
2.58193e-07
-1.35568e-06
2.16958e-07
-1.39181e-06
1.72783e-07
-1.41823e-06
1.26249e-07
-1.43458e-06
7.79488e-08
-1.44063e-06
2.84903e-08
-1.43627e-06
-2.15066e-08
-1.42152e-06
-7.14073e-08
-1.39652e-06
-1.20564e-07
-1.36155e-06
-1.68317e-07
-1.31702e-06
-2.13997e-07
-1.26348e-06
-2.56927e-07
-1.2016e-06
-2.96431e-07
-1.1322e-06
-3.3184e-07
-1.05621e-06
-3.62502e-07
-9.74702e-07
-3.87789e-07
-8.88846e-07
-4.07117e-07
-7.99925e-07
-4.1996e-07
-7.09308e-07
-4.25864e-07
-6.18432e-07
-4.24474e-07
-5.28782e-07
-4.15557e-07
-4.4186e-07
-3.99026e-07
-3.5916e-07
-3.74974e-07
-2.8213e-07
-3.43711e-07
-2.1214e-07
-3.05805e-07
-1.50445e-07
-2.62128e-07
-9.81623e-08
-2.13921e-07
-5.6245e-08
-1.62852e-07
-2.54858e-08
-1.11081e-07
-6.53988e-09
-6.13135e-08
-1.70539e-08
-8.08611e-09
2.66564e-08
-3.10239e-08
8.77894e-08
-6.76139e-08
1.5223e-07
-1.16669e-07
2.16578e-07
-1.76954e-07
2.78224e-07
-2.47157e-07
3.35114e-07
-3.25889e-07
3.85699e-07
-4.1169e-07
4.2887e-07
-5.03047e-07
4.63891e-07
-5.98422e-07
4.90333e-07
-6.96267e-07
5.08018e-07
-7.95056e-07
5.16969e-07
-8.93298e-07
5.17375e-07
-9.89562e-07
5.09549e-07
-1.08249e-06
4.93903e-07
-1.17079e-06
4.70927e-07
-1.2533e-06
4.41168e-07
-1.32893e-06
4.05216e-07
-1.3967e-06
3.63694e-07
-1.45576e-06
3.17251e-07
-1.50536e-06
2.66556e-07
-1.54487e-06
2.12296e-07
-1.5738e-06
1.55173e-07
-1.59176e-06
9.59066e-08
-1.5985e-06
3.52309e-08
-1.5939e-06
-2.61031e-08
-1.57798e-06
-8.73276e-08
-1.55088e-06
-1.47659e-07
-1.5129e-06
-2.06297e-07
-1.46447e-06
-2.62433e-07
-1.40615e-06
-3.15248e-07
-1.33865e-06
-3.63922e-07
-1.26285e-06
-4.07645e-07
-1.17973e-06
-4.45624e-07
-1.09042e-06
-4.77101e-07
-9.96167e-07
-5.01365e-07
-8.98351e-07
-5.17776e-07
-7.98434e-07
-5.25781e-07
-6.97962e-07
-5.24946e-07
-5.9854e-07
-5.14979e-07
-5.01804e-07
-4.95762e-07
-4.09392e-07
-4.67386e-07
-3.22911e-07
-4.30192e-07
-2.43909e-07
-3.84807e-07
-1.7384e-07
-3.32198e-07
-1.14042e-07
-2.73719e-07
-6.57237e-08
-2.1117e-07
-2.99652e-08
-1.46839e-07
-7.74435e-09
-8.35343e-08
-2.47982e-08
-9.26254e-09
3.5919e-08
-3.54135e-08
1.1394e-07
-7.69178e-08
1.93734e-07
-1.32266e-07
2.71926e-07
-1.99927e-07
3.45885e-07
-2.78328e-07
4.13516e-07
-3.65852e-07
4.73222e-07
-4.60838e-07
5.23856e-07
-5.61602e-07
5.64655e-07
-6.66451e-07
5.95183e-07
-7.73709e-07
6.15275e-07
-8.81729e-07
6.24989e-07
-9.88919e-07
6.24565e-07
-1.09375e-06
6.14384e-07
-1.19479e-06
5.94942e-07
-1.29069e-06
5.66821e-07
-1.38019e-06
5.30669e-07
-1.46216e-06
4.87187e-07
-1.53558e-06
4.37112e-07
-1.59954e-06
3.81212e-07
-1.65326e-06
3.20278e-07
-1.69609e-06
2.55122e-07
-1.72749e-06
1.86573e-07
-1.74706e-06
1.15481e-07
-1.75454e-06
4.27119e-08
-1.7498e-06
-3.08469e-08
-1.73284e-06
-1.04289e-07
-1.70381e-06
-1.7669e-07
-1.663e-06
-2.47104e-07
-1.61086e-06
-3.14574e-07
-1.54797e-06
-3.78132e-07
-1.47509e-06
-4.36807e-07
-1.39309e-06
-4.89638e-07
-1.30304e-06
-5.35684e-07
-1.2061e-06
-5.74041e-07
-1.1036e-06
-6.03863e-07
-9.96993e-07
-6.24382e-07
-8.8784e-07
-6.34935e-07
-7.77793e-07
-6.34993e-07
-6.68581e-07
-6.24191e-07
-5.61977e-07
-6.02366e-07
-4.59773e-07
-5.6959e-07
-3.6375e-07
-5.26215e-07
-2.75646e-07
-4.72911e-07
-1.97129e-07
-4.10714e-07
-1.29777e-07
-3.41072e-07
-7.50587e-08
-2.65888e-07
-3.43413e-08
-1.87556e-07
-8.90677e-09
-1.08969e-07
-3.3705e-08
-1.04063e-08
4.63253e-08
-3.97127e-08
1.43247e-07
-8.60776e-08
2.40099e-07
-1.47685e-07
3.33534e-07
-2.22716e-07
4.20915e-07
-3.09332e-07
5.00133e-07
-4.05679e-07
5.6957e-07
-5.09888e-07
6.28065e-07
-6.20091e-07
6.74858e-07
-7.34436e-07
7.09528e-07
-8.51107e-07
7.31945e-07
-9.68339e-07
7.42221e-07
-1.08443e-06
7.4066e-07
-1.19778e-06
7.27729e-07
-1.30685e-06
7.04017e-07
-1.41024e-06
6.70209e-07
-1.50664e-06
6.27067e-07
-1.59486e-06
5.75407e-07
-1.67384e-06
5.16089e-07
-1.74263e-06
4.50005e-07
-1.80042e-06
3.78073e-07
-1.84654e-06
3.01235e-07
-1.88042e-06
2.20452e-07
-1.90164e-06
1.36705e-07
-1.90993e-06
5.09984e-08
-1.90513e-06
-3.56427e-08
-1.88725e-06
-1.2217e-07
-1.85643e-06
-2.07511e-07
-1.81296e-06
-2.90574e-07
-1.75729e-06
-3.70245e-07
-1.69002e-06
-4.45402e-07
-1.61191e-06
-5.14915e-07
-1.52389e-06
-5.77662e-07
-1.42703e-06
-6.32544e-07
-1.32257e-06
-6.78501e-07
-1.21189e-06
-7.14538e-07
-1.09653e-06
-7.39747e-07
-9.78125e-07
-7.53337e-07
-8.58451e-07
-7.54667e-07
-7.39358e-07
-7.43285e-07
-6.22764e-07
-7.18959e-07
-5.10628e-07
-6.81727e-07
-4.04915e-07
-6.31928e-07
-3.0757e-07
-5.70256e-07
-2.2049e-07
-4.97794e-07
-1.45502e-07
-4.1606e-07
-8.43445e-08
-3.27046e-07
-3.86688e-08
-2.33232e-07
-1.00466e-08
-1.37591e-07
-4.37517e-08
-1.15336e-08
5.78589e-08
-4.39692e-08
1.75682e-07
-9.51775e-08
2.91308e-07
-1.63048e-07
4.01404e-07
-2.45475e-07
5.03343e-07
-3.40356e-07
5.95014e-07
-4.45591e-07
6.74805e-07
-5.59095e-07
7.41569e-07
-6.78806e-07
7.94569e-07
-8.02708e-07
8.33429e-07
-9.28837e-07
8.58075e-07
-1.05531e-06
8.68689e-07
-1.18031e-06
8.65666e-07
-1.30215e-06
8.49569e-07
-1.41923e-06
8.21096e-07
-1.53007e-06
7.81049e-07
-1.63331e-06
7.30311e-07
-1.72773e-06
6.69825e-07
-1.81222e-06
6.00579e-07
-1.88581e-06
5.23595e-07
-1.94766e-06
4.39924e-07
-1.99707e-06
3.50639e-07
-2.03345e-06
2.56836e-07
-2.05638e-06
1.59632e-07
-2.06555e-06
6.01692e-08
-2.0608e-06
-4.03869e-08
-2.04213e-06
-1.40843e-07
-2.00966e-06
-2.3998e-07
-1.96368e-06
-3.36551e-07
-1.90464e-06
-4.29286e-07
-1.83315e-06
-5.169e-07
-1.74996e-06
-5.98098e-07
-1.65604e-06
-6.71589e-07
-1.55247e-06
-7.36105e-07
-1.44056e-06
-7.90418e-07
-1.32173e-06
-8.33368e-07
-1.19759e-06
-8.6389e-07
-1.06987e-06
-8.8105e-07
-9.40464e-07
-8.84076e-07
-8.11345e-07
-8.72403e-07
-6.84588e-07
-8.45716e-07
-5.62326e-07
-8.03989e-07
-4.46724e-07
-7.47531e-07
-3.39947e-07
-6.77033e-07
-2.44136e-07
-5.93605e-07
-1.61378e-07
-4.98818e-07
-9.36904e-08
-3.94733e-07
-4.30078e-08
-2.83915e-07
-1.11836e-08
-1.69415e-07
-5.49353e-08
-1.26596e-08
7.05186e-08
-4.82298e-08
2.11252e-07
-1.04303e-07
3.47381e-07
-1.7848e-07
4.75581e-07
-2.6837e-07
5.93233e-07
-3.716e-07
6.98244e-07
-4.85821e-07
7.89026e-07
-6.08721e-07
8.64469e-07
-7.3804e-07
9.23889e-07
-8.71586e-07
9.66974e-07
-1.00725e-06
9.93735e-07
-1.143e-06
1.00445e-06
-1.27695e-06
9.99615e-07
-1.4073e-06
9.79916e-07
-1.53238e-06
9.46175e-07
-1.65065e-06
8.99323e-07
-1.76072e-06
8.40376e-07
-1.8613e-06
7.70412e-07
-1.95128e-06
6.90556e-07
-2.02965e-06
6.01966e-07
-2.09556e-06
5.05828e-07
-2.14827e-06
4.03351e-07
-2.1872e-06
2.95766e-07
-2.21189e-06
1.84327e-07
-2.22204e-06
7.03139e-08
-2.21746e-06
-4.49665e-08
-2.19813e-06
-1.60177e-07
-2.16416e-06
-2.73947e-07
-2.11583e-06
-3.84877e-07
-2.05358e-06
-4.91536e-07
-1.97801e-06
-5.92471e-07
-1.88989e-06
-6.86215e-07
-1.79018e-06
-7.71301e-07
-1.68001e-06
-8.4628e-07
-1.56068e-06
-9.09741e-07
-1.4337e-06
-9.60346e-07
-1.30074e-06
-9.96855e-07
-1.16362e-06
-1.01817e-06
-1.02434e-06
-1.02336e-06
-8.85017e-07
-1.01173e-06
-7.47881e-07
-9.82852e-07
-6.15255e-07
-9.36615e-07
-4.89514e-07
-8.73271e-07
-3.73062e-07
-7.93485e-07
-2.68295e-07
-6.98371e-07
-1.77577e-07
-5.89536e-07
-1.0321e-07
-4.691e-07
-4.74188e-08
-3.39706e-07
-1.23367e-08
-2.04497e-07
-6.7272e-08
-1.37979e-08
8.43165e-08
-5.25386e-08
2.49993e-07
-1.13537e-07
4.0838e-07
-1.94105e-07
5.56148e-07
-2.91563e-07
6.90691e-07
-4.03262e-07
8.09943e-07
-5.26596e-07
9.1236e-07
-6.59021e-07
9.96893e-07
-7.98068e-07
1.06294e-06
-9.41363e-07
1.11027e-06
-1.08664e-06
1.13901e-06
-1.23175e-06
1.14956e-06
-1.37468e-06
1.14255e-06
-1.51356e-06
1.11879e-06
-1.64663e-06
1.07925e-06
-1.77232e-06
1.02501e-06
-1.88918e-06
9.57235e-07
-1.99591e-06
8.77141e-07
-2.09135e-06
7.85997e-07
-2.17449e-06
6.85105e-07
-2.24445e-06
5.75788e-07
-2.3005e-06
4.59394e-07
-2.34202e-06
3.37288e-07
-2.36855e-06
2.10862e-07
-2.37977e-06
8.15306e-08
-2.37548e-06
-4.92588e-08
-2.35563e-06
-1.80025e-07
-2.32032e-06
-3.09251e-07
-2.26982e-06
-4.3538e-07
-2.20454e-06
-5.56819e-07
-2.12506e-06
-6.71945e-07
-2.03217e-06
-7.79113e-07
-1.9268e-06
-8.76668e-07
-1.81011e-06
-9.62971e-07
-1.68343e-06
-1.03642e-06
-1.54831e-06
-1.09547e-06
-1.40648e-06
-1.13869e-06
-1.25986e-06
-1.16479e-06
-1.11055e-06
-1.17267e-06
-9.6082e-07
-1.16146e-06
-8.13061e-07
-1.13061e-06
-6.69795e-07
-1.07988e-06
-5.33625e-07
-1.00944e-06
-4.07204e-07
-9.19906e-07
-2.93202e-07
-8.12373e-07
-1.94272e-07
-6.88465e-07
-1.13017e-07
-5.50355e-07
-5.19607e-08
-4.00763e-07
-1.35235e-08
-2.42934e-07
-8.07955e-08
-1.49605e-08
9.9277e-08
-5.69357e-08
2.91968e-07
-1.22957e-07
4.74401e-07
-2.10038e-07
6.43229e-07
-3.15206e-07
7.95859e-07
-4.35527e-07
9.30264e-07
-5.68129e-07
1.04496e-06
-7.10225e-07
1.13899e-06
-8.59133e-07
1.21184e-06
-1.01229e-06
1.26343e-06
-1.16727e-06
1.29399e-06
-1.32179e-06
1.30408e-06
-1.47374e-06
1.29449e-06
-1.62114e-06
1.26619e-06
-1.7622e-06
1.22031e-06
-1.89527e-06
1.15809e-06
-2.01888e-06
1.08085e-06
-2.13171e-06
9.89965e-07
-2.23257e-06
8.86862e-07
-2.32045e-06
7.72983e-07
-2.39446e-06
6.49794e-07
-2.45384e-06
5.18781e-07
-2.498e-06
3.81444e-07
-2.52645e-06
2.39308e-07
-2.53884e-06
9.39219e-08
-2.53496e-06
-5.31312e-08
-2.51476e-06
-2.0023e-07
-2.4783e-06
-3.45711e-07
-2.42582e-06
-4.87864e-07
-2.3577e-06
-6.24934e-07
-2.27452e-06
-7.55123e-07
-2.17703e-06
-8.76603e-07
-2.06618e-06
-9.87527e-07
-1.9431e-06
-1.08605e-06
-1.80916e-06
-1.17036e-06
-1.66593e-06
-1.23869e-06
-1.51521e-06
-1.28941e-06
-1.359e-06
-1.321e-06
-1.19951e-06
-1.33215e-06
-1.03916e-06
-1.32182e-06
-8.80519e-07
-1.28925e-06
-7.26313e-07
-1.23409e-06
-5.79384e-07
-1.15637e-06
-4.42653e-07
-1.05664e-06
-3.19082e-07
-9.35944e-07
-2.11631e-07
-7.95916e-07
-1.23221e-07
-6.38765e-07
-5.66897e-08
-4.67294e-07
-1.47608e-08
-2.84863e-07
-9.55563e-08
-1.61582e-08
1.15435e-07
-6.14573e-08
3.37267e-07
-1.32631e-07
5.45575e-07
-2.26385e-07
7.36982e-07
-3.39439e-07
9.08912e-07
-4.68562e-07
1.05939e-06
-6.10607e-07
1.18701e-06
-7.62535e-07
1.29092e-06
-9.21437e-07
1.37075e-06
-1.08456e-06
1.42655e-06
-1.24931e-06
1.45874e-06
-1.41328e-06
1.46805e-06
-1.57424e-06
1.45545e-06
-1.73014e-06
1.42209e-06
-1.87913e-06
1.36929e-06
-2.01951e-06
1.29847e-06
-2.14979e-06
1.21113e-06
-2.26863e-06
1.1088e-06
-2.37484e-06
9.93073e-07
-2.4674e-06
8.65539e-07
-2.54541e-06
7.27809e-07
-2.60814e-06
5.81506e-07
-2.65496e-06
4.28262e-07
-2.68538e-06
2.69731e-07
-2.69905e-06
1.07592e-07
-2.69574e-06
-5.64417e-08
-2.67536e-06
-2.20614e-07
-2.63795e-06
-3.83121e-07
-2.58371e-06
-5.421e-07
-2.51301e-06
-6.95636e-07
-2.42637e-06
-8.41757e-07
-2.32453e-06
-9.78448e-07
-2.2084e-06
-1.10366e-06
-2.07911e-06
-1.21533e-06
-1.93804e-06
-1.31143e-06
-1.78679e-06
-1.38995e-06
-1.62719e-06
-1.449e-06
-1.46134e-06
-1.48685e-06
-1.29155e-06
-1.50193e-06
-1.12039e-06
-1.49298e-06
-9.50602e-07
-1.45904e-06
-7.85139e-07
-1.39955e-06
-6.27095e-07
-1.31441e-06
-4.79675e-07
-1.20406e-06
-3.46151e-07
-1.06947e-06
-2.29814e-07
-9.12252e-07
-1.33925e-07
-7.34655e-07
-6.1659e-08
-5.3956e-07
-1.60641e-08
-3.30458e-07
-1.1162e-07
-1.74006e-08
1.32836e-07
-6.61359e-08
3.86003e-07
-1.42623e-07
6.22063e-07
-2.43241e-07
8.376e-07
-3.64385e-07
1.03006e-06
-5.02515e-07
1.19752e-06
-6.54191e-07
1.33868e-06
-8.1611e-07
1.45284e-06
-9.85133e-07
1.53977e-06
-1.1583e-06
1.59972e-06
-1.33287e-06
1.63331e-06
-1.50628e-06
1.64147e-06
-1.67621e-06
1.62538e-06
-1.84053e-06
1.58641e-06
-1.99733e-06
1.52609e-06
-2.14489e-06
1.44604e-06
-2.2817e-06
1.34794e-06
-2.40641e-06
1.23351e-06
-2.51784e-06
1.1045e-06
-2.61496e-06
9.62664e-07
-2.69691e-06
8.09754e-07
-2.76293e-06
6.47526e-07
-2.81241e-06
4.77742e-07
-2.84486e-06
3.02181e-07
-2.85991e-06
1.22642e-07
-2.85731e-06
-5.90399e-08
-2.83694e-06
-2.40981e-07
-2.79882e-06
-4.21241e-07
-2.74311e-06
-5.97815e-07
-2.67011e-06
-7.6863e-07
-2.58033e-06
-9.31541e-07
-2.47443e-06
-1.08434e-06
-2.35331e-06
-1.22478e-06
-2.21808e-06
-1.35056e-06
-2.0701e-06
-1.45941e-06
-1.91097e-06
-1.54908e-06
-1.74258e-06
-1.61739e-06
-1.56709e-06
-1.66234e-06
-1.38692e-06
-1.6821e-06
-1.20478e-06
-1.67513e-06
-1.0236e-06
-1.64021e-06
-8.46567e-07
-1.57658e-06
-6.77034e-07
-1.48395e-06
-5.18513e-07
-1.36258e-06
-3.7461e-07
-1.21337e-06
-2.48972e-07
-1.03789e-06
-1.45227e-07
-8.384e-07
-6.69186e-08
-6.17868e-07
-1.74481e-08
-3.79929e-07
-1.29068e-07
-1.86962e-08
1.51532e-07
-7.10006e-08
4.38307e-07
-1.52989e-07
7.04052e-07
-2.6069e-07
9.45301e-07
-3.90153e-07
1.15952e-06
-5.37508e-07
1.34487e-06
-6.99009e-07
1.50018e-06
-8.71074e-07
1.6249e-06
-1.05032e-06
1.71902e-06
-1.23359e-06
1.78299e-06
-1.41796e-06
1.81768e-06
-1.60075e-06
1.82426e-06
-1.77953e-06
1.80415e-06
-1.95211e-06
1.75899e-06
-2.11653e-06
1.69052e-06
-2.27106e-06
1.60057e-06
-2.41417e-06
1.49105e-06
-2.54453e-06
1.36387e-06
-2.66097e-06
1.22094e-06
-2.76248e-06
1.06418e-06
-2.84822e-06
8.95489e-07
-2.91744e-06
7.16751e-07
-2.96955e-06
5.29853e-07
-3.00406e-06
3.36686e-07
-3.02058e-06
1.39163e-07
-3.01885e-06
-6.07695e-08
-2.99872e-06
-2.61111e-07
-2.96016e-06
-4.59797e-07
-2.90329e-06
-6.54688e-07
-2.82836e-06
-8.43557e-07
-2.73581e-06
-1.02409e-06
-2.62626e-06
-1.1939e-06
-2.50054e-06
-1.3505e-06
-2.35971e-06
-1.49139e-06
-2.20512e-06
-1.614e-06
-2.03837e-06
-1.71583e-06
-1.86137e-06
-1.7944e-06
-1.67632e-06
-1.84739e-06
-1.48576e-06
-1.87266e-06
-1.29253e-06
-1.86836e-06
-1.09975e-06
-1.83299e-06
-9.10841e-07
-1.76549e-06
-7.29443e-07
-1.66535e-06
-5.59389e-07
-1.53263e-06
-4.04645e-07
-1.36812e-06
-2.69246e-07
-1.17329e-06
-1.5722e-07
-9.50426e-07
-7.2516e-08
-7.02573e-07
-1.89265e-08
-4.33518e-07
-1.47995e-07
-2.00529e-08
1.71585e-07
-7.60783e-08
4.94332e-07
-1.6378e-07
7.91753e-07
-2.78807e-07
1.06033e-06
-4.16837e-07
1.29755e-06
-5.73646e-07
1.50168e-06
-7.45159e-07
1.6717e-06
-9.27505e-07
1.80725e-06
-1.11705e-06
1.90856e-06
-1.31041e-06
1.97636e-06
-1.50451e-06
2.01178e-06
-1.69654e-06
2.01628e-06
-1.88396e-06
1.99158e-06
-2.06454e-06
1.93957e-06
-2.23628e-06
1.86226e-06
-2.39746e-06
1.76174e-06
-2.54654e-06
1.64013e-06
-2.68222e-06
1.49955e-06
-2.80337e-06
1.34209e-06
-2.90901e-06
1.16982e-06
-2.99833e-06
9.84801e-07
-3.0706e-06
7.8903e-07
-3.12526e-06
5.84512e-07
-3.16182e-06
3.73242e-07
-3.17989e-06
1.57232e-07
-3.17919e-06
-6.14706e-08
-3.15953e-06
-2.80765e-07
-3.12086e-06
-4.98475e-07
-3.06321e-06
-7.12337e-07
-2.98678e-06
-9.19983e-07
-2.89194e-06
-1.11894e-06
-2.77922e-06
-1.30662e-06
-2.64939e-06
-1.48033e-06
-2.50345e-06
-1.63732e-06
-2.3427e-06
-1.77476e-06
-2.1687e-06
-1.88983e-06
-1.98337e-06
-1.97973e-06
-1.78896e-06
-2.04179e-06
-1.58809e-06
-2.07353e-06
-1.38373e-06
-2.07272e-06
-1.1792e-06
-2.03752e-06
-9.78152e-07
-1.96654e-06
-7.84524e-07
-1.85897e-06
-6.02498e-07
-1.71466e-06
-4.36427e-07
-1.53419e-06
-2.90768e-07
-1.31895e-06
-1.69992e-07
-1.0712e-06
-7.84967e-08
-7.94068e-07
-2.05127e-08
-4.91502e-07
-1.68508e-07
-2.14782e-08
1.93063e-07
-8.13941e-08
5.54248e-07
-1.75043e-07
8.85402e-07
-2.9766e-07
1.18294e-06
-4.44518e-07
1.44441e-06
-6.1101e-07
1.66817e-06
-7.92711e-07
1.8534e-06
-9.85439e-07
1.99997e-06
-1.18529e-06
2.10841e-06
-1.38868e-06
2.17975e-06
-1.59235e-06
2.21544e-06
-1.79336e-06
2.21729e-06
-1.98911e-06
2.18733e-06
-2.1773e-06
2.12776e-06
-2.35595e-06
2.0409e-06
-2.52331e-06
1.92911e-06
-2.67791e-06
1.79473e-06
-2.81846e-06
1.64011e-06
-2.9439e-06
1.46752e-06
-3.0533e-06
1.27922e-06
-3.14588e-06
1.07738e-06
-3.22098e-06
8.6413e-07
-3.27804e-06
6.41575e-07
-3.3166e-06
4.11801e-07
-3.33627e-06
1.76905e-07
-3.33676e-06
-6.09847e-08
-3.31784e-06
-2.99682e-07
-3.2794e-06
-5.36918e-07
-3.22142e-06
-7.70318e-07
-3.14401e-06
-9.97387e-07
-3.04745e-06
-1.2155e-06
-2.93219e-06
-1.42188e-06
-2.79889e-06
-1.61363e-06
-2.64846e-06
-1.78774e-06
-2.48213e-06
-1.9411e-06
-2.30141e-06
-2.07055e-06
-2.1082e-06
-2.17294e-06
-1.90476e-06
-2.24523e-06
-1.69379e-06
-2.2845e-06
-1.47838e-06
-2.28814e-06
-1.26202e-06
-2.25387e-06
-1.04863e-06
-2.17994e-06
-8.4244e-07
-2.06516e-06
-6.48007e-07
-1.90909e-06
-4.70107e-07
-1.71209e-06
-3.1366e-07
-1.47539e-06
-1.83627e-07
-1.20123e-06
-8.49048e-08
-8.92791e-07
-2.22199e-08
-5.54187e-07
-1.90728e-07
-2.29796e-08
2.16043e-07
-8.69731e-08
6.18242e-07
-1.86825e-07
9.85254e-07
-3.17314e-07
1.31343e-06
-4.7327e-07
1.60037e-06
-6.49669e-07
1.84457e-06
-8.41707e-07
2.04544e-06
-1.04487e-06
2.20314e-06
-1.25499e-06
2.31853e-06
-1.46824e-06
2.393e-06
-1.6812e-06
2.4284e-06
-1.89082e-06
2.42691e-06
-2.09443e-06
2.39094e-06
-2.28971e-06
2.32304e-06
-2.47466e-06
2.22586e-06
-2.6476e-06
2.10204e-06
-2.80709e-06
1.95421e-06
-2.95192e-06
1.78493e-06
-3.08108e-06
1.59669e-06
-3.19373e-06
1.39187e-06
-3.28915e-06
1.1728e-06
-3.36674e-06
9.41722e-07
-3.42599e-06
7.00822e-07
-3.46645e-06
4.52263e-07
-3.48775e-06
1.98206e-07
-3.48958e-06
-5.91589e-08
-3.47168e-06
-3.17582e-07
-3.43388e-06
-5.7472e-07
-3.37608e-06
-8.28113e-07
-3.29832e-06
-1.07515e-06
-3.20074e-06
-1.31307e-06
-3.08369e-06
-1.53893e-06
-2.9477e-06
-1.74962e-06
-2.79359e-06
-1.94186e-06
-2.62245e-06
-2.11224e-06
-2.43572e-06
-2.25727e-06
-2.23525e-06
-2.37341e-06
-2.0233e-06
-2.45718e-06
-1.8026e-06
-2.50521e-06
-1.57634e-06
-2.5144e-06
-1.3482e-06
-2.48201e-06
-1.12234e-06
-2.40581e-06
-9.03305e-07
-2.28419e-06
-6.96057e-07
-2.11634e-06
-5.05825e-07
-1.90232e-06
-3.38039e-07
-1.64318e-06
-1.98205e-07
-1.34107e-06
-9.17838e-08
-9.99212e-07
-2.40612e-08
-6.2191e-07
-2.14789e-07
-2.45651e-08
2.40608e-07
-9.28419e-08
6.86519e-07
-1.99174e-07
1.09159e-06
-3.37833e-07
1.45209e-06
-5.03162e-07
1.76569e-06
-6.89677e-07
2.03109e-06
-8.92166e-07
2.24793e-06
-1.10576e-06
2.41674e-06
-1.326e-06
2.53876e-06
-1.54883e-06
2.61583e-06
-1.77067e-06
2.65024e-06
-1.98837e-06
2.64461e-06
-2.19921e-06
2.60177e-06
-2.40085e-06
2.52468e-06
-2.59134e-06
2.41635e-06
-2.76905e-06
2.27975e-06
-2.93262e-06
2.11778e-06
-3.08094e-06
1.93325e-06
-3.2131e-06
1.72885e-06
-3.32835e-06
1.50712e-06
-3.42605e-06
1.27051e-06
-3.5057e-06
1.02136e-06
-3.56681e-06
7.61941e-07
-3.60901e-06
4.94459e-07
-3.63192e-06
2.21119e-07
-3.63523e-06
-5.58528e-08
-3.61864e-06
-3.34167e-07
-3.58193e-06
-6.11435e-07
-3.52491e-06
-8.8513e-07
-3.44751e-06
-1.15256e-06
-3.34975e-06
-1.41083e-06
-3.23182e-06
-1.65686e-06
-3.09413e-06
-1.88731e-06
-2.93732e-06
-2.09866e-06
-2.76236e-06
-2.28721e-06
-2.57056e-06
-2.44907e-06
-2.36368e-06
-2.58029e-06
-2.14394e-06
-2.67692e-06
-1.91407e-06
-2.73508e-06
-1.67735e-06
-2.75112e-06
-1.43761e-06
-2.72174e-06
-1.19926e-06
-2.64416e-06
-9.67189e-07
-2.51626e-06
-7.46759e-07
-2.33677e-06
-5.43704e-07
-2.10537e-06
-3.64015e-07
-1.82287e-06
-2.13807e-07
-1.49128e-06
-9.91778e-08
-1.11384e-06
-2.60501e-08
-6.95038e-07
-2.40839e-07
-2.62438e-08
2.66851e-07
-9.90301e-08
7.59305e-07
-2.12142e-07
1.2047e-06
-3.59288e-07
1.59924e-06
-5.34264e-07
1.94067e-06
-7.31084e-07
2.22791e-06
-9.44087e-07
2.46093e-06
-1.16803e-06
2.64068e-06
-1.39813e-06
2.76886e-06
-1.63013e-06
2.84783e-06
-1.86027e-06
2.88039e-06
-2.08533e-06
2.86967e-06
-2.30255e-06
2.81899e-06
-2.50962e-06
2.73176e-06
-2.70465e-06
2.61138e-06
-2.8861e-06
2.4612e-06
-3.05273e-06
2.28441e-06
-3.20355e-06
2.08408e-06
-3.33778e-06
1.86308e-06
-3.45479e-06
1.62413e-06
-3.55407e-06
1.36979e-06
-3.63518e-06
1.10248e-06
-3.69776e-06
8.24513e-07
-3.74144e-06
5.3814e-07
-3.76589e-06
2.45576e-07
-3.7708e-06
-5.09462e-08
-3.75584e-06
-3.49129e-07
-3.72071e-06
-6.46565e-07
-3.66514e-06
-9.40697e-07
-3.58893e-06
-1.22877e-06
-3.49196e-06
-1.5078e-06
-3.37426e-06
-1.77456e-06
-3.23603e-06
-2.02553e-06
-3.07776e-06
-2.25694e-06
-2.9002e-06
-2.46476e-06
-2.70452e-06
-2.64474e-06
-2.49234e-06
-2.79248e-06
-2.26578e-06
-2.90348e-06
-2.02754e-06
-2.97331e-06
-1.78096e-06
-2.9977e-06
-1.53001e-06
-2.97269e-06
-1.27931e-06
-2.89486e-06
-1.03411e-06
-2.76147e-06
-8.00196e-07
-2.57068e-06
-5.83854e-07
-2.32171e-06
-3.91693e-07
-2.01503e-06
-2.30514e-07
-1.65246e-06
-1.07133e-07
-1.23722e-06
-2.82012e-08
-7.73969e-07
-2.6904e-07
-2.80265e-08
2.94878e-07
-1.05573e-07
8.36852e-07
-2.25793e-07
1.32492e-06
-3.81759e-07
1.7552e-06
-5.66657e-07
2.12557e-06
-7.73939e-07
2.43519e-06
-9.97456e-07
2.68445e-06
-1.23155e-06
2.87477e-06
-1.47113e-06
3.00845e-06
-1.71171e-06
3.0884e-06
-1.94937e-06
3.11806e-06
-2.18084e-06
3.10113e-06
-2.40335e-06
3.04149e-06
-2.61466e-06
2.94307e-06
-2.81297e-06
2.8097e-06
-2.99688e-06
2.64511e-06
-3.1653e-06
2.45283e-06
-3.31739e-06
2.23617e-06
-3.45255e-06
1.99823e-06
-3.57029e-06
1.74187e-06
-3.67024e-06
1.46974e-06