/*--------------------------------*- C++ -*----------------------------------*\
  =========                 |
  \\      /  F ield         | OpenFOAM: The Open Source CFD Toolbox
   \\    /   O peration     | Website:  https://openfoam.org
    \\  /    A nd           | Version:  7
     \\/     M anipulation  |
\*---------------------------------------------------------------------------*/
FoamFile
{
    version     2.0;
    format      ascii;
    class       volVectorField;
    location    "0.0574";
    object      U;
}
// * * * * * * * * * * * * * * * * * * * * * * * * * * * * * * * * * * * * * //

dimensions      [0 1 -1 0 0 0 0];

internalField   nonuniform List<vector> 
2500
(
(2.96572e-05 -2.96539e-05 0)
(8.98917e-05 -3.6262e-05 0)
(0.00012359 -1.85365e-05 0)
(9.18507e-05 7.55957e-06 0)
(-1.7132e-05 3.42453e-05 0)
(-0.000201812 5.8765e-05 0)
(-0.000455173 7.99984e-05 0)
(-0.000768101 9.76192e-05 0)
(-0.00113047 0.000111648 0)
(-0.00153187 0.000122234 0)
(-0.00196204 0.000129579 0)
(-0.00241106 0.000133896 0)
(-0.00286951 0.000135408 0)
(-0.00332852 0.000134332 0)
(-0.00377982 0.000130884 0)
(-0.00421577 0.000125273 0)
(-0.00462937 0.000117703 0)
(-0.00501426 0.000108373 0)
(-0.00536474 9.74766e-05 0)
(-0.00567574 8.52046e-05 0)
(-0.00594284 7.17451e-05 0)
(-0.00616228 5.7286e-05 0)
(-0.00633096 4.20164e-05 0)
(-0.00644644 2.61282e-05 0)
(-0.00650695 9.81805e-06 0)
(-0.00651144 -6.71174e-06 0)
(-0.00645958 -2.32516e-05 0)
(-0.00635176 -3.95841e-05 0)
(-0.00618915 -5.54833e-05 0)
(-0.00597371 -7.07153e-05 0)
(-0.0057082 -8.50384e-05 0)
(-0.00539621 -9.82047e-05 0)
(-0.00504217 -0.000109962 0)
(-0.00465133 -0.000120056 0)
(-0.00422978 -0.000128231 0)
(-0.00378443 -0.000134239 0)
(-0.00332295 -0.000137835 0)
(-0.00285375 -0.000138787 0)
(-0.00238589 -0.000136876 0)
(-0.00192901 -0.000131901 0)
(-0.00149322 -0.000123683 0)
(-0.00108895 -0.000112074 0)
(-0.000726763 -9.69635e-05 0)
(-0.000417055 -7.83164e-05 0)
(-0.000169602 -5.62535e-05 0)
(7.17777e-06 -3.12782e-05 0)
(0.000107481 -4.68211e-06 0)
(0.000130842 2.05543e-05 0)
(9.10757e-05 3.72267e-05 0)
(2.92343e-05 2.91748e-05 0)
(3.65542e-05 -9.00255e-05 0)
(8.21217e-05 -8.12898e-05 0)
(3.28567e-05 1.83156e-05 0)
(-0.000170637 0.000153834 0)
(-0.00055192 0.000296993 0)
(-0.00111128 0.000433434 0)
(-0.00183698 0.000555662 0)
(-0.00271019 0.000660078 0)
(-0.00370803 0.000745196 0)
(-0.00480571 0.000810668 0)
(-0.00597777 0.000856802 0)
(-0.00719894 0.000884292 0)
(-0.00844472 0.000894064 0)
(-0.00969166 0.000887191 0)
(-0.0109177 0.000864829 0)
(-0.0121022 0.000828185 0)
(-0.0132262 0.000778497 0)
(-0.0142723 0.000717014 0)
(-0.015225 0.000644994 0)
(-0.0160702 0.000563701 0)
(-0.016796 0.000474406 0)
(-0.0173919 0.000378392 0)
(-0.0178496 0.000276959 0)
(-0.0181622 0.000171433 0)
(-0.0183252 6.31683e-05 0)
(-0.0183357 -4.6444e-05 0)
(-0.0181928 -0.000155971 0)
(-0.017898 -0.000263938 0)
(-0.0174544 -0.000368825 0)
(-0.0168676 -0.000469075 0)
(-0.0161453 -0.000563094 0)
(-0.0152975 -0.000649267 0)
(-0.0143362 -0.000725971 0)
(-0.0132759 -0.00079159 0)
(-0.012133 -0.000844539 0)
(-0.0109263 -0.00088329 0)
(-0.00967619 -0.0009064 0)
(-0.0084052 -0.000912546 0)
(-0.00713725 -0.000900565 0)
(-0.00589755 -0.0008695 0)
(-0.00471218 -0.000818666 0)
(-0.00360755 -0.000747739 0)
(-0.00260977 -0.000656902 0)
(-0.0017436 -0.000547093 0)
(-0.0010311 -0.000420477 0)
(-0.000489555 -0.00028138 0)
(-0.000128267 -0.000137949 0)
(5.61009e-05 -5.15738e-06 0)
(9.02842e-05 8.92498e-05 0)
(3.75668e-05 9.10777e-05 0)
(1.97389e-05 -0.000125378 0)
(-1.41753e-05 -3.30304e-05 0)
(-0.00022712 0.000232735 0)
(-0.000669208 0.00057402 0)
(-0.0013633 0.000936014 0)
(-0.00230997 0.00128554 0)
(-0.00349413 0.00160306 0)
(-0.00489048 0.00187768 0)
(-0.00646743 0.00210379 0)
(-0.00818982 0.00227903 0)
(-0.0100208 0.00240311 0)
(-0.0119233 0.00247706 0)
(-0.0138606 0.0025028 0)
(-0.0157976 0.00248282 0)
(-0.0177008 0.00241999 0)
(-0.0195387 0.00231744 0)
(-0.0212821 0.00217843 0)
(-0.0229043 0.00200637 0)
(-0.0243812 0.00180472 0)
(-0.0256913 0.001577 0)
(-0.0268158 0.00132678 0)
(-0.0277388 0.00105769 0)
(-0.0284471 0.000773417 0)
(-0.0289304 0.000477718 0)
(-0.0291816 0.000174445 0)
(-0.0291963 -0.000132457 0)
(-0.0289734 -0.000438933 0)
(-0.028515 -0.000740824 0)
(-0.0278264 -0.00103386 0)
(-0.0269163 -0.00131369 0)
(-0.0257966 -0.00157587 0)
(-0.0244828 -0.00181594 0)
(-0.0229937 -0.00202942 0)
(-0.0213514 -0.00221192 0)
(-0.0195814 -0.00235913 0)
(-0.0177122 -0.00246698 0)
(-0.0157751 -0.00253165 0)
(-0.0138041 -0.00254976 0)
(-0.0118353 -0.00251842 0)
(-0.0099065 -0.00243547 0)
(-0.00805635 -0.0022996 0)
(-0.00632366 -0.00211071 0)
(-0.00474614 -0.00187033 0)
(-0.00335896 -0.00158226 0)
(-0.00219266 -0.00125372 0)
(-0.00127045 -0.000897224 0)
(-0.000604323 -0.000533752 0)
(-0.000189879 -0.000197547 0)
(1.0852e-07 5.64031e-05 0)
(2.20209e-05 0.000132404 0)
(-4.77934e-06 -9.77895e-05 0)
(-0.000145965 0.000166544 0)
(-0.000564495 0.000673611 0)
(-0.00128432 0.00129165 0)
(-0.00231859 0.00194046 0)
(-0.00366422 0.00256772 0)
(-0.00530152 0.00314022 0)
(-0.00719934 0.00363789 0)
(-0.0093191 0.0040494 0)
(-0.0116176 0.00436915 0)
(-0.014049 0.00459549 0)
(-0.0165668 0.00472941 0)
(-0.0191249 0.00477374 0)
(-0.0216783 0.00473257 0)
(-0.0241841 0.00461086 0)
(-0.0266018 0.0044142 0)
(-0.0288938 0.00414856 0)
(-0.0310253 0.00382022 0)
(-0.0329651 0.00343567 0)
(-0.0346852 0.00300155 0)
(-0.0361611 0.00252464 0)
(-0.0373719 0.00201184 0)
(-0.0383007 0.00147022 0)
(-0.0389341 0.000906953 0)
(-0.0392626 0.000329423 0)
(-0.0392807 -0.000254829 0)
(-0.0389872 -0.000838062 0)
(-0.0383848 -0.00141235 0)
(-0.0374806 -0.00196957 0)
(-0.0362859 -0.00250147 0)
(-0.0348164 -0.00299968 0)
(-0.0330923 -0.00345579 0)
(-0.031138 -0.00386142 0)
(-0.0289822 -0.00420834 0)
(-0.026658 -0.00448861 0)
(-0.024202 -0.00469473 0)
(-0.0216547 -0.00481978 0)
(-0.0190595 -0.00485772 0)
(-0.0164626 -0.00480357 0)
(-0.0139118 -0.00465379 0)
(-0.0114559 -0.00440665 0)
(-0.00914375 -0.00406281 0)
(-0.00702204 -0.00362605 0)
(-0.00513416 -0.0031045 0)
(-0.0035176 -0.00251225 0)
(-0.00220114 -0.00187214 0)
(-0.00120094 -0.00121983 0)
(-0.000515658 -0.000609447 0)
(-0.000126518 -0.0001217 0)
(-1.35057e-06 0.000113892 0)
(-3.02855e-05 5.20371e-06 0)
(-0.000288444 0.00054374 0)
(-0.000932213 0.00136959 0)
(-0.00195043 0.00232827 0)
(-0.00334083 0.00331932 0)
(-0.00509304 0.00427349 0)
(-0.00718084 0.00514446 0)
(-0.00956662 0.00590264 0)
(-0.0122052 0.00653024 0)
(-0.0150464 0.00701779 0)
(-0.0180369 0.00736166 0)
(-0.0211225 0.00756247 0)
(-0.0242491 0.00762382 0)
(-0.0273637 0.00755146 0)
(-0.0304158 0.00735267 0)
(-0.0333571 0.00703584 0)
(-0.0361429 0.00661012 0)
(-0.038732 0.00608524 0)
(-0.0410868 0.00547134 0)
(-0.0431739 0.00477887 0)
(-0.044964 0.00401854 0)
(-0.0464322 0.00320134 0)
(-0.047558 0.00233847 0)
(-0.0483255 0.00144138 0)
(-0.0487233 0.00052182 0)
(-0.0487451 -0.000408211 0)
(-0.0483892 -0.0013364 0)
(-0.0476591 -0.00225016 0)
(-0.0465631 -0.00313663 0)
(-0.0451151 -0.00398276 0)
(-0.0433338 -0.00477534 0)
(-0.0412434 -0.00550114 0)
(-0.0388731 -0.00614703 0)
(-0.0362571 -0.00670019 0)
(-0.0334347 -0.00714826 0)
(-0.0304495 -0.00747965 0)
(-0.0273495 -0.00768384 0)
(-0.0241861 -0.00775169 0)
(-0.0210137 -0.0076759 0)
(-0.0178886 -0.00745151 0)
(-0.014868 -0.00707656 0)
(-0.0120089 -0.00655288 0)
(-0.00936577 -0.00588722 0)
(-0.00698923 -0.00509282 0)
(-0.00492343 -0.00419153 0)
(-0.00320349 -0.00321702 0)
(-0.0018518 -0.00221933 0)
(-0.000873741 -0.00127051 0)
(-0.000264775 -0.000472301 0)
(-2.59711e-05 2.23121e-05 0)
(-5.44958e-05 0.000184101 0)
(-0.000430284 0.00110598 0)
(-0.00130518 0.002333 0)
(-0.00262996 0.00369718 0)
(-0.00438368 0.00508323 0)
(-0.00654601 0.00640815 0)
(-0.00908221 0.00761411 0)
(-0.0119472 0.00866261 0)
(-0.0150888 0.00952949 0)
(-0.0184501 0.0102012 0)
(-0.0219712 0.0106719 0)
(-0.0255909 0.0109418 0)
(-0.0292484 0.0110151 0)
(-0.0328841 0.0108994 0)
(-0.0364405 0.0106043 0)
(-0.0398634 0.0101415 0)
(-0.0431019 0.00952351 0)
(-0.0461091 0.00876411 0)
(-0.0488424 0.00787759 0)
(-0.0512637 0.00687879 0)
(-0.0533397 0.00578299 0)
(-0.0550419 0.00460589 0)
(-0.0563471 0.00336352 0)
(-0.0572369 0.00207232 0)
(-0.0576987 0.000749115 0)
(-0.057725 -0.000588884 0)
(-0.057314 -0.00192405 0)
(-0.0564696 -0.00323836 0)
(-0.0552014 -0.00451347 0)
(-0.0535251 -0.00573073 0)
(-0.0514621 -0.00687137 0)
(-0.0490398 -0.00791657 0)
(-0.0462913 -0.00884775 0)
(-0.0432557 -0.00964677 0)
(-0.0399773 -0.0102963 0)
(-0.0365056 -0.01078 0)
(-0.032895 -0.0110834 0)
(-0.0292036 -0.0111938 0)
(-0.0254927 -0.0111014 0)
(-0.021826 -0.0107997 0)
(-0.018268 -0.0102867 0)
(-0.0148829 -0.00956544 0)
(-0.0117324 -0.00864604 0)
(-0.0088741 -0.00754711 0)
(-0.00635931 -0.00629834 0)
(-0.00423065 -0.00494385 0)
(-0.0025188 -0.00354667 0)
(-0.00123857 -0.00219399 0)
(-0.000402989 -0.00100355 0)
(-4.94224e-05 -0.000143049 0)
(-7.67809e-05 0.00043583 0)
(-0.000566855 0.0018523 0)
(-0.00167132 0.00356599 0)
(-0.00330322 0.00540211 0)
(-0.00542164 0.00723532 0)
(-0.00799445 0.00897222 0)
(-0.0109768 0.0105456 0)
(-0.014315 0.0119091 0)
(-0.0179493 0.0130331 0)
(-0.0218159 0.0139001 0)
(-0.0258483 0.0145024 0)
(-0.0299792 0.0148396 0)
(-0.0341414 0.0149168 0)
(-0.0382694 0.0147433 0)
(-0.0423002 0.0143318 0)
(-0.046174 0.013697 0)
(-0.0498348 0.0128556 0)
(-0.053231 0.0118255 0)
(-0.0563157 0.0106257 0)
(-0.0590468 0.00927599 0)
(-0.0613876 0.00779664 0)
(-0.0633067 0.00620863 0)
(-0.0647783 0.00453342 0)
(-0.0657824 0.00279301 0)
(-0.0663048 0.0010099 0)
(-0.0663372 -0.000792864 0)
(-0.0658776 -0.0025917 0)
(-0.0649302 -0.00436255 0)
(-0.0635057 -0.00608089 0)
(-0.061621 -0.00772188 0)
(-0.0592998 -0.00926049 0)
(-0.0565721 -0.0106717 0)
(-0.0534743 -0.0119309 0)
(-0.0500494 -0.013014 0)
(-0.0463461 -0.013898 0)
(-0.042419 -0.0145617 0)
(-0.0383275 -0.0149857 0)
(-0.0341358 -0.0151539 0)
(-0.0299114 -0.0150533 0)
(-0.0257244 -0.0146761 0)
(-0.0216462 -0.0140196 0)
(-0.0177475 -0.0130885 0)
(-0.0140975 -0.011896 0)
(-0.010761 -0.0104658 0)
(-0.00779711 -0.00883511 0)
(-0.00525734 -0.00705742 0)
(-0.00318223 -0.00520697 0)
(-0.00159793 -0.00338311 0)
(-0.00053641 -0.00171526 0)
(-7.10266e-05 -0.000379445 0)
(-9.72215e-05 0.000756536 0)
(-0.00069699 0.00277808 0)
(-0.00202616 0.0050655 0)
(-0.00396187 0.00744153 0)
(-0.00644308 0.00977459 0)
(-0.00942485 0.0119639 0)
(-0.0128511 0.0139349 0)
(-0.0166585 0.0156354 0)
(-0.020779 0.0170308 0)
(-0.0251415 0.0181006 0)
(-0.0296728 0.0188356 0)
(-0.0342995 0.0192353 0)
(-0.0389487 0.0193057 0)
(-0.0435494 0.0190586 0)
(-0.0480335 0.0185093 0)
(-0.0523365 0.0176764 0)
(-0.0563981 0.0165809 0)
(-0.0601623 0.0152453 0)
(-0.0635788 0.0136936 0)
(-0.0666021 0.0119509 0)
(-0.0691926 0.0100431 0)
(-0.0713164 0.00799682 0)
(-0.0729457 0.0058394 0)
(-0.0740588 0.00359887 0)
(-0.0746402 0.00130395 0)
(-0.074681 -0.00101602 0)
(-0.0741789 -0.00333098 0)
(-0.0731383 -0.00561029 0)
(-0.0715703 -0.00782276 0)
(-0.0694932 -0.00993677 0)
(-0.0669321 -0.0119205 0)
(-0.0639194 -0.0137423 0)
(-0.0604941 -0.0153707 0)
(-0.0567023 -0.0167753 0)
(-0.0525966 -0.0179271 0)
(-0.0482356 -0.0187991 0)
(-0.0436836 -0.019367 0)
(-0.0390099 -0.0196103 0)
(-0.0342878 -0.0195132 0)
(-0.0295933 -0.0190654 0)
(-0.0250042 -0.018264 0)
(-0.0205984 -0.0171145 0)
(-0.0164521 -0.0156329 0)
(-0.0126383 -0.0138477 0)
(-0.0092247 -0.0118024 0)
(-0.00627276 -0.00955879 0)
(-0.00383419 -0.00720037 0)
(-0.0019475 -0.00483602 0)
(-0.00066385 -0.00260349 0)
(-9.08255e-05 -0.000683197 0)
(-0.000116152 0.00114251 0)
(-0.000821162 0.00387762 0)
(-0.00236936 0.00682645 0)
(-0.0046042 0.00981175 0)
(-0.00744497 0.0126985 0)
(-0.0108335 0.0153808 0)
(-0.0147017 0.0177794 0)
(-0.0189757 0.0198372 0)
(-0.0235787 0.0215164 0)
(-0.0284316 0.0227943 0)
(-0.0334545 0.0236608 0)
(-0.0385676 0.0241158 0)
(-0.0436925 0.024167 0)
(-0.048753 0.0238286 0)
(-0.0536764 0.0231193 0)
(-0.0583938 0.0220618 0)
(-0.0628411 0.0206817 0)
(-0.0669589 0.0190065 0)
(-0.0706934 0.0170657 0)
(-0.0739967 0.01489 0)
(-0.0768265 0.0125112 0)
(-0.0791468 0.00996193 0)
(-0.0809282 0.00727593 0)
(-0.0821474 0.00448761 0)
(-0.0827879 0.00163224 0)
(-0.0828401 -0.00125409 0)
(-0.0823013 -0.00413446 0)
(-0.0811758 -0.00697122 0)
(-0.0794752 -0.00972605 0)
(-0.0772186 -0.0123601 0)
(-0.0744323 -0.0148344 0)
(-0.0711502 -0.0171099 0)
(-0.0674138 -0.0191482 0)
(-0.0632715 -0.0209118 0)
(-0.058779 -0.0223652 0)
(-0.0539989 -0.0234751 0)
(-0.0489996 -0.0242118 0)
(-0.0438551 -0.0245501 0)
(-0.038644 -0.0244704 0)
(-0.0334483 -0.02396 0)
(-0.0283522 -0.0230149 0)
(-0.0234408 -0.021641 0)
(-0.018798 -0.0198563 0)
(-0.0145054 -0.0176934 0)
(-0.0106404 -0.0152011 0)
(-0.0072753 -0.012448 0)
(-0.00447378 -0.00952526 0)
(-0.00228734 -0.00654911 0)
(-0.000785897 -0.00366336 0)
(-0.000109162 -0.00105084 0)
(-0.000133957 0.00159067 0)
(-0.000940533 0.00514558 0)
(-0.00270267 0.00884359 0)
(-0.00523218 0.0125087 0)
(-0.00842939 0.0160041 0)
(-0.0122227 0.0192212 0)
(-0.0165317 0.0220772 0)
(-0.0212713 0.0245125 0)
(-0.0263552 0.0264869 0)
(-0.0316961 0.0279767 0)
(-0.0372068 0.0289719 0)
(-0.0428011 0.0294735 0)
(-0.048395 0.0294914 0)
(-0.0539074 0.0290428 0)
(-0.0592611 0.0281504 0)
(-0.0643834 0.0268414 0)
(-0.0692064 0.0251461 0)
(-0.073668 0.0230979 0)
(-0.0777115 0.0207316 0)
(-0.0812865 0.0180841 0)
(-0.0843488 0.0151935 0)
(-0.0868607 0.0120987 0)
(-0.088791 0.00884006 0)
(-0.0901154 0.0054587 0)
(-0.0908164 0.00199677 0)
(-0.0908835 -0.00150259 0)
(-0.0903136 -0.0049953 0)
(-0.089111 -0.00843637 0)
(-0.0872873 -0.01178 0)
(-0.084862 -0.0149798 0)
(-0.0818622 -0.017989 0)
(-0.0783232 -0.0207609 0)
(-0.0742879 -0.0232496 0)
(-0.0698071 -0.0254102 0)
(-0.064939 -0.0271999 0)
(-0.0597494 -0.0285788 0)
(-0.0543106 -0.0295111 0)
(-0.0487012 -0.0299663 0)
(-0.0430048 -0.0299203 0)
(-0.0373094 -0.0293575 0)
(-0.0317059 -0.0282718 0)
(-0.0262866 -0.026669 0)
(-0.0211441 -0.0245685 0)
(-0.016369 -0.0220054 0)
(-0.0120494 -0.0190331 0)
(-0.00826893 -0.0157256 0)
(-0.00510419 -0.0121802 0)
(-0.00261981 -0.00851905 0)
(-0.000903934 -0.00489066 0)
(-0.000126451 -0.00147959 0)
(-0.000150997 0.00209873 0)
(-0.00105651 0.00657778 0)
(-0.00302881 0.0111126 0)
(-0.00584973 0.0155289 0)
(-0.00940126 0.0196893 0)
(-0.0135984 0.0234838 0)
(-0.0183481 0.026828 0)
(-0.0235537 0.0296608 0)
(-0.0291188 0.0319414 0)
(-0.0349475 0.0336461 0)
(-0.0409448 0.034766 0)
(-0.0470181 0.0353042 0)
(-0.0530777 0.0352735 0)
(-0.0590376 0.0346949 0)
(-0.0648163 0.0335955 0)
(-0.0703373 0.0320074 0)
(-0.0755298 0.0299665 0)
(-0.0803288 0.0275118 0)
(-0.0846753 0.0246845 0)
(-0.0885169 0.0215275 0)
(-0.0918076 0.0180855 0)
(-0.0945082 0.0144043 0)
(-0.0965863 0.0105308 0)
(-0.0980164 0.00651305 0)
(-0.0987802 0.00240043 0)
(-0.0988664 -0.00175673 0)
(-0.0982714 -0.00590692 0)
(-0.096999 -0.00999757 0)
(-0.0950608 -0.0139751 0)
(-0.0924763 -0.0177853 0)
(-0.0892732 -0.0213733 0)
(-0.0854874 -0.0246844 0)
(-0.0811631 -0.0276645 0)
(-0.0763527 -0.0302609 0)
(-0.0711169 -0.032423 0)
(-0.065524 -0.0341037 0)
(-0.0596501 -0.0352603 0)
(-0.0535779 -0.0358562 0)
(-0.0473963 -0.0358625 0)
(-0.0411992 -0.0352593 0)
(-0.0350844 -0.034038 0)
(-0.0291521 -0.032203 0)
(-0.0235038 -0.0297741 0)
(-0.0182403 -0.0267882 0)
(-0.0134605 -0.0233019 0)
(-0.00926083 -0.0193935 0)
(-0.00573078 -0.0151651 0)
(-0.00294843 -0.010744 0)
(-0.00101965 -0.00628264 0)
(-0.000143104 -0.00196763 0)
(-0.000167595 0.00266522 0)
(-0.00117051 0.00817145 0)
(-0.00335088 0.0136309 0)
(-0.00646162 0.0188704 0)
(-0.0103669 0.0237532 0)
(-0.0149684 0.0281688 0)
(-0.02016 0.0320326 0)
(-0.0258334 0.0352833 0)
(-0.0318815 0.0378808 0)
(-0.0381993 0.0398029 0)
(-0.0446841 0.0410428 0)
(-0.0512363 0.0416066 0)
(-0.0577604 0.041511 0)
(-0.0641656 0.0407815 0)
(-0.0703662 0.0394503 0)
(-0.0762823 0.0375551 0)
(-0.0818402 0.0351378 0)
(-0.0869724 0.0322435 0)
(-0.091618 0.0289199 0)
(-0.0957229 0.0252166 0)
(-0.0992396 0.021185 0)
(-0.102128 0.0168776 0)
(-0.104354 0.0123484 0)
(-0.105891 0.00765268 0)
(-0.106721 0.00284686 0)
(-0.106831 -0.00201129 0)
(-0.106217 -0.00686269 0)
(-0.104882 -0.011647 0)
(-0.102838 -0.0163027 0)
(-0.100103 -0.0207674 0)
(-0.0967059 -0.0249779 0)
(-0.0926824 -0.0288711 0)
(-0.0880776 -0.0323845 0)
(-0.0829451 -0.0354566 0)
(-0.0773474 -0.0380288 0)
(-0.0713554 -0.0400458 0)
(-0.0650485 -0.0414575 0)
(-0.0585134 -0.0422203 0)
(-0.0518442 -0.0422993 0)
(-0.0451409 -0.0416697 0)
(-0.0385085 -0.0403192 0)
(-0.0320556 -0.0382498 0)
(-0.0258932 -0.0354804 0)
(-0.0201328 -0.0320488 0)
(-0.0148853 -0.0280133 0)
(-0.0102599 -0.0234558 0)
(-0.00636004 -0.0184822 0)
(-0.00327723 -0.0132243 0)
(-0.00113483 -0.00783843 0)
(-0.000159497 -0.00251411 0)
(-0.000184028 0.00328943 0)
(-0.00128389 0.00992538 0)
(-0.00367198 0.0163973 0)
(-0.00707286 0.0225331 0)
(-0.0113331 0.0281965 0)
(-0.016341 0.0332778 0)
(-0.0219774 0.0376931 0)
(-0.0281216 0.0413824 0)
(-0.0346558 0.0443075 0)
(-0.0414654 0.0464489 0)
(-0.0484395 0.0478032 0)
(-0.0554715 0.0483807 0)
(-0.0624601 0.048203 0)
(-0.0693096 0.0473009 0)
(-0.0759302 0.0457124 0)
(-0.0822389 0.0434816 0)
(-0.0881592 0.0406568 0)
(-0.0936215 0.0372898 0)
(-0.0985633 0.0334351 0)
(-0.102929 0.0291492 0)
(-0.10667 0.0244905 0)
(-0.109745 0.0195185 0)
(-0.11212 0.0142943 0)
(-0.113767 0.00888034 0)
(-0.114666 0.00334029 0)
(-0.114806 -0.00226063 0)
(-0.114179 -0.0078557 0)
(-0.11279 -0.0133767 0)
(-0.110648 -0.0187541 0)
(-0.107772 -0.0239171 0)
(-0.10419 -0.0287939 0)
(-0.099938 -0.0333128 0)
(-0.0950609 -0.0374019 0)
(-0.0896134 -0.0409913 0)
(-0.0836592 -0.0440129 0)
(-0.0772715 -0.0464028 0)
(-0.0705326 -0.0481026 0)
(-0.0635334 -0.0490608 0)
(-0.0563729 -0.0492353 0)
(-0.0491573 -0.0485953 0)
(-0.0419993 -0.0471235 0)
(-0.0350163 -0.0448185 0)
(-0.0283294 -0.0416971 0)
(-0.0220614 -0.0377963 0)
(-0.0163359 -0.0331757 0)
(-0.0112759 -0.0279192 0)
(-0.00699884 -0.0221364 0)
(-0.00361033 -0.0159628 0)
(-0.0012512 -0.0095592 0)
(-0.000175973 -0.00311911 0)
(-0.000200536 0.00397136 0)
(-0.00139789 0.0118399 0)
(-0.00399506 0.0194129 0)
(-0.00768831 0.0265187 0)
(-0.0123066 0.0330219 0)
(-0.0177247 0.0388141 0)
(-0.02381 0.0438131 0)
(-0.0304293 0.0479617 0)
(-0.0374535 0.0512248 0)
(-0.0447582 0.0535868 0)
(-0.0522241 0.0550491 0)
(-0.0597374 0.0556274 0)
(-0.0671907 0.0553493 0)
(-0.0744836 0.0542518 0)
(-0.0815225 0.0523798 0)
(-0.0882211 0.0497842 0)
(-0.0945007 0.0465206 0)
(-0.10029 0.0426478 0)
(-0.105525 0.0382276 0)
(-0.110149 0.0333236 0)
(-0.114113 0.0280013 0)
(-0.117375 0.0223275 0)
(-0.1199 0.0163703 0)
(-0.121659 0.0101993 0)
(-0.122632 0.00388546 0)
(-0.122806 -0.00249859 0)
(-0.122174 -0.00887853 0)
(-0.120738 -0.0151783 0)
(-0.118508 -0.0213202 0)
(-0.115502 -0.0272249 0)
(-0.111745 -0.032812 0)
(-0.107274 -0.0380004 0)
(-0.102134 -0.0427092 0)
(-0.0963788 -0.0468585 0)
(-0.0900741 -0.0503708 0)
(-0.0832946 -0.0531726 0)
(-0.0761251 -0.0551958 0)
(-0.0686603 -0.0563804 0)
(-0.0610044 -0.0566757 0)
(-0.0532699 -0.0560435 0)
(-0.0455773 -0.0544604 0)
(-0.0380533 -0.05192 0)
(-0.0308295 -0.0484356 0)
(-0.0240411 -0.0440424 0)
(-0.0178249 -0.0388 0)
(-0.0123184 -0.0327934 0)
(-0.00765411 -0.0261353 0)
(-0.00395181 -0.018965 0)
(-0.00137043 -0.0114481 0)
(-0.000192839 -0.00378367 0)
(-0.000217322 0.00471162 0)
(-0.00151361 0.0139166 0)
(-0.00432283 0.0226802 0)
(-0.00831253 0.0308307 0)
(-0.0132937 0.0382336 0)
(-0.0191274 0.0447824 0)
(-0.0256671 0.0503977 0)
(-0.0327666 0.0550259 0)
(-0.0402853 0.0586366 0)
(-0.0480888 0.0612196 0)
(-0.0560487 0.0627825 0)
(-0.0640443 0.0633475 0)
(-0.0719621 0.0629494 0)
(-0.0796967 0.0616327 0)
(-0.0871511 0.0594501 0)
(-0.0942361 0.05646 0)
(-0.100871 0.0527258 0)
(-0.106983 0.0483143 0)
(-0.112508 0.0432945 0)
(-0.117387 0.0377377 0)
(-0.121572 0.0317165 0)
(-0.125019 0.0253049 0)
(-0.127694 0.0185782 0)
(-0.129568 0.011613 0)
(-0.130619 0.00448745 0)
(-0.130834 -0.0027185 0)
(-0.130204 -0.00992309 0)
(-0.128732 -0.0170425 0)
(-0.126424 -0.0239908 0)
(-0.123298 -0.0306803 0)
(-0.119378 -0.0370216 0)
(-0.1147 -0.0429242 0)
(-0.109307 -0.0482973 0)
(-0.103254 -0.0530509 0)
(-0.0966064 -0.0570972 0)
(-0.0894403 -0.060352 0)
(-0.0818429 -0.062737 0)
(-0.0739123 -0.0641817 0)
(-0.0657576 -0.0646259 0)
(-0.0574978 -0.0640226 0)
(-0.0492612 -0.0623405 0)
(-0.0411843 -0.0595666 0)
(-0.0334102 -0.0557094 0)
(-0.0260866 -0.0508011 0)
(-0.0193647 -0.0448996 0)
(-0.0133972 -0.0380908 0)
(-0.00833254 -0.0304894 0)
(-0.00430559 -0.022239 0)
(-0.00149407 -0.0135104 0)
(-0.000210374 -0.00450964 0)
(-0.000234561 0.00551139 0)
(-0.00163205 0.0161584 0)
(-0.00465775 0.0262037 0)
(-0.00894965 0.0354746 0)
(-0.0143003 0.0438376 0)
(-0.0205563 0.0511887 0)
(-0.0275569 0.0574524 0)
(-0.0351424 0.06258 0)
(-0.0431604 0.0665471 0)
(-0.0514658 0.0693503 0)
(-0.0599215 0.0710048 0)
(-0.0683991 0.0715409 0)
(-0.0767794 0.0710018 0)
(-0.0849525 0.0694409 0)
(-0.0928177 0.0669193 0)
(-0.100283 0.0635043 0)
(-0.107268 0.0592677 0)
(-0.113696 0.0542844 0)
(-0.119504 0.0486315 0)
(-0.124634 0.042388 0)
(-0.129035 0.0356337 0)
(-0.132666 0.02845 0)
(-0.135491 0.0209191 0)
(-0.137482 0.0131245 0)
(-0.138615 0.00515145 0)
(-0.138877 -0.00291322 0)
(-0.138258 -0.0109804 0)
(-0.136759 -0.0189588 0)
(-0.134385 -0.0267543 0)
(-0.131153 -0.0342709 0)
(-0.127084 -0.0414101 0)
(-0.122212 -0.0480717 0)
(-0.11658 -0.0541549 0)
(-0.110242 -0.0595588 0)
(-0.103262 -0.0641845 0)
(-0.0957174 -0.0679362 0)
(-0.0876971 -0.0707241 0)
(-0.0793025 -0.0724659 0)
(-0.0706472 -0.0730905 0)
(-0.0618566 -0.0725402 0)
(-0.0530673 -0.0707742 0)
(-0.0444257 -0.0677714 0)
(-0.0360866 -0.0635335 0)
(-0.0282116 -0.0580882 0)
(-0.0209668 -0.0514907 0)
(-0.0145214 -0.0438265 0)
(-0.00904054 -0.0352121 0)
(-0.00467538 -0.0257954 0)
(-0.00162359 -0.0157531 0)
(-0.000228833 -0.00529968 0)
(-0.000252408 0.0063723 0)
(-0.00175406 0.0185696 0)
(-0.00500201 0.0299892 0)
(-0.00960341 0.0404571 0)
(-0.0153314 0.0498412 0)
(-0.0220177 0.0580404 0)
(-0.0294865 0.0649839 0)
(-0.0375642 0.0706295 0)
(-0.0460858 0.0749601 0)
(-0.0548954 0.0779808 0)
(-0.0638469 0.079716 0)
(-0.0728046 0.0802056 0)
(-0.0816433 0.0795029 0)
(-0.0902486 0.077671 0)
(-0.098517 0.0747811 0)
(-0.106355 0.07091 0)
(-0.113679 0.0661387 0)
(-0.120415 0.0605509 0)
(-0.126497 0.0542321 0)
(-0.131869 0.047269 0)
(-0.136482 0.0397492 0)
(-0.140292 0.031761 0)
(-0.143265 0.0233934 0)
(-0.145373 0.0147367 0)
(-0.146592 0.00588264 0)
(-0.146907 -0.00307514 0)
(-0.146309 -0.0120406 0)
(-0.144794 -0.0209152 0)
(-0.142369 -0.0295972 0)
(-0.139045 -0.037982 0)
(-0.134844 -0.0459621 0)
(-0.129796 -0.0534278 0)
(-0.123943 -0.0602675 0)
(-0.117335 -0.0663691 0)
(-0.110037 -0.0716217 0)
(-0.102126 -0.075917 0)
(-0.0936917 -0.0791521 0)
(-0.0848381 -0.0812318 0)
(-0.0756833 -0.0820721 0)
(-0.0663586 -0.0816028 0)
(-0.0570091 -0.0797718 0)
(-0.0477913 -0.0765476 0)
(-0.0388726 -0.0719238 0)
(-0.0304288 -0.0659212 0)
(-0.0226422 -0.0585913 0)
(-0.0156996 -0.0500181 0)
(-0.00978418 -0.0403195 0)
(-0.00506469 -0.0296472 0)
(-0.00176037 -0.018185 0)
(-0.000248455 -0.00615719 0)
(-0.000270999 0.00729645 0)
(-0.00188045 0.0211552 0)
(-0.0053576 0.0340438 0)
(-0.0102772 0.0457866 0)
(-0.0163918 0.0562529 0)
(-0.0235173 0.0653453 0)
(-0.031462 0.0729991 0)
(-0.0400377 0.0791794 0)
(-0.0490664 0.0838784 0)
(-0.058381 0.0871116 0)
(-0.0678263 0.0889141 0)
(-0.0772591 0.0893373 0)
(-0.0865486 0.088446 0)
(-0.0955764 0.0863146 0)
(-0.104236 0.0830256 0)
(-0.112433 0.0786662 0)
(-0.120083 0.0733276 0)
(-0.127113 0.0671029 0)
(-0.133457 0.0600862 0)
(-0.139061 0.0523724 0)
(-0.143874 0.0440565 0)
(-0.147857 0.0352337 0)
(-0.150974 0.0259998 0)
(-0.153198 0.0164512 0)
(-0.154506 0.00668586 0)
(-0.154881 -0.00319627 0)
(-0.154312 -0.0130928 0)
(-0.152797 -0.0228981 0)
(-0.150336 -0.0325034 0)
(-0.146939 -0.0417958 0)
(-0.142626 -0.050659 0)
(-0.137424 -0.0589733 0)
(-0.13137 -0.0666164 0)
(-0.124514 -0.0734644 0)
(-0.116918 -0.0793934 0)
(-0.108657 -0.0842818 0)
(-0.0998224 -0.0880121 0)
(-0.0905195 -0.0904746 0)
(-0.08087 -0.0915703 0)
(-0.0710113 -0.0912147 0)
(-0.0610964 -0.0893419 0)
(-0.0512925 -0.0859083 0)
(-0.0417798 -0.0808964 0)
(-0.0327494 -0.0743189 0)
(-0.0244009 -0.0662215 0)
(-0.0169398 -0.0566856 0)
(-0.0105692 -0.0458298 0)
(-0.00547685 -0.0338097 0)
(-0.00190572 -0.0208167 0)
(-0.000269465 -0.00708626 0)
(-0.00029046 0.00828631 0)
(-0.00201195 0.0239213 0)
(-0.00572637 0.038376 0)
(-0.010974 0.0514727 0)
(-0.0174855 0.0630823 0)
(-0.0250597 0.0731122 0)
(-0.0334881 0.0815045 0)
(-0.042567 0.088234 0)
(-0.0521049 0.0933036 0)
(-0.0619231 0.0967409 0)
(-0.071857 0.0985941 0)
(-0.0817562 0.0989279 0)
(-0.0914845 0.0978202 0)
(-0.10092 0.0953587 0)
(-0.109954 0.091638 0)
(-0.118492 0.0867573 0)
(-0.12645 0.0808186 0)
(-0.133754 0.0739249 0)
(-0.140343 0.0661796 0)
(-0.146161 0.0576857 0)
(-0.151162 0.0485456 0)
(-0.155307 0.0388613 0)
(-0.158562 0.0287348 0)
(-0.160899 0.0182683 0)
(-0.162297 0.00756537 0)
(-0.162738 -0.0032684 0)
(-0.16221 -0.0141248 0)
(-0.160707 -0.024892 0)
(-0.158229 -0.0354542 0)
(-0.154782 -0.0456911 0)
(-0.150382 -0.0554775 0)
(-0.145051 -0.0646841 0)
(-0.138824 -0.0731775 0)
(-0.131747 -0.0808215 0)
(-0.123878 -0.0874786 0)
(-0.115291 -0.0930124 0)
(-0.106076 -0.0972898 0)
(-0.0963393 -0.100184 0)
(-0.0862054 -0.101581 0)
(-0.0758172 -0.101377 0)
(-0.0653352 -0.0994911 0)
(-0.0549377 -0.0958647 0)
(-0.044818 -0.0904672 0)
(-0.0351834 -0.0833006 0)
(-0.0262519 -0.0744028 0)
(-0.0182496 -0.0638511 0)
(-0.0114009 -0.0517638 0)
(-0.00591506 -0.0383005 0)
(-0.0020609 -0.0236603 0)
(-0.000292083 -0.00809165 0)
(-0.000310912 0.00934472 0)
(-0.00214926 0.0268749 0)
(-0.00611005 0.0429953 0)
(-0.0116967 0.057526 0)
(-0.0186164 0.0703398 0)
(-0.0266492 0.0813497 0)
(-0.0355688 0.0905066 0)
(-0.0451549 0.0977962 0)
(-0.0552018 0.103235 0)
(-0.065519 0.106864 0)
(-0.0759324 0.108747 0)
(-0.0862844 0.108965 0)
(-0.0964341 0.10761 0)
(-0.106257 0.104785 0)
(-0.115642 0.100598 0)
(-0.124496 0.0951617 0)
(-0.132735 0.0885897 0)
(-0.140289 0.0809958 0)
(-0.147098 0.0724926 0)
(-0.153109 0.0631916 0)
(-0.158279 0.0532023 0)
(-0.16257 0.0426334 0)
(-0.165952 0.0315922 0)
(-0.168398 0.0201864 0)
(-0.169886 0.00852448 0)
(-0.170398 -0.00328327 0)
(-0.169921 -0.0151235 0)
(-0.168448 -0.0268791 0)
(-0.165974 -0.0384279 0)
(-0.162502 -0.0496426 0)
(-0.158044 -0.0603898 0)
(-0.152618 -0.0705306 0)
(-0.146252 -0.0799205 0)
(-0.138987 -0.0884106 0)
(-0.130879 -0.0958492 0)
(-0.121997 -0.102084 0)
(-0.112429 -0.106964 0)
(-0.102282 -0.110345 0)
(-0.0916802 -0.112093 0)
(-0.0807727 -0.112085 0)
(-0.069727 -0.110222 0)
(-0.0587318 -0.106426 0)
(-0.0479945 -0.100651 0)
(-0.0377391 -0.0928856 0)
(-0.0282033 -0.0831575 0)
(-0.0196358 -0.071538 0)
(-0.0122846 -0.0581441 0)
(-0.00638241 -0.0431388 0)
(-0.00222716 -0.0267295 0)
(-0.00031653 -0.00917878 0)
(-0.00033248 0.0104749 0)
(-0.00229309 0.0300238 0)
(-0.00651042 0.0479123 0)
(-0.0124483 0.0639579 0)
(-0.0197879 0.0780361 0)
(-0.0282894 0.0900665 0)
(-0.0377069 0.100011 0)
(-0.0478026 0.107867 0)
(-0.0583555 0.113668 0)
(-0.0691632 0.117472 0)
(-0.0800418 0.11936 0)
(-0.0908271 0.11943 0)
(-0.101374 0.117792 0)
(-0.111555 0.114567 0)
(-0.121261 0.109877 0)
(-0.130397 0.10385 0)
(-0.138885 0.0966119 0)
(-0.146655 0.0882873 0)
(-0.153652 0.0789991 0)
(-0.159828 0.0688668 0)
(-0.165142 0.0580073 0)
(-0.16956 0.0465349 0)
(-0.173054 0.0345624 0)
(-0.175599 0.0222017 0)
(-0.177175 0.00956519 0)
(-0.177763 -0.00323279 0)
(-0.177349 -0.0160749 0)
(-0.175922 -0.0288395 0)
(-0.173476 -0.0413993 0)
(-0.17001 -0.0536205 0)
(-0.165529 -0.0653623 0)
(-0.160045 -0.0764765 0)
(-0.153581 -0.0868076 0)
(-0.146173 -0.0961939 0)
(-0.137868 -0.104469 0)
(-0.128731 -0.111462 0)
(-0.118847 -0.117006 0)
(-0.10832 -0.120934 0)
(-0.0972769 -0.12309 0)
(-0.0858679 -0.12333 0)
(-0.0742681 -0.121532 0)
(-0.0626763 -0.117598 0)
(-0.051314 -0.111461 0)
(-0.040423 -0.103092 0)
(-0.0302624 -0.0925084 0)
(-0.021105 -0.0797714 0)
(-0.0132252 -0.0649954 0)
(-0.00688197 -0.0483462 0)
(-0.00240575 -0.0300397 0)
(-0.000343028 -0.0103537 0)
(-0.000355302 0.0116804 0)
(-0.00244423 0.0333767 0)
(-0.00692937 0.0531386 0)
(-0.0132316 0.0707809 0)
(-0.0210038 0.0861824 0)
(-0.0299839 0.0992708 0)
(-0.039905 0.11002 0)
(-0.05051 0.118445 0)
(-0.0615623 0.124595 0)
(-0.0728468 0.12855 0)
(-0.0841702 0.130411 0)
(-0.0953619 0.130297 0)
(-0.106273 0.128338 0)
(-0.116776 0.124672 0)
(-0.126761 0.11944 0)
(-0.136138 0.112785 0)
(-0.14483 0.104847 0)
(-0.152775 0.0957631 0)
(-0.15992 0.085665 0)
(-0.166224 0.074681 0)
(-0.171649 0.0629348 0)
(-0.176168 0.0505459 0)
(-0.179755 0.0376315 0)
(-0.182386 0.024307 0)
(-0.184044 0.0106877 0)
(-0.184711 -0.00310934 0)
(-0.184371 -0.0169639 0)
(-0.183011 -0.0307511 0)
(-0.180621 -0.0443394 0)
(-0.177195 -0.05759 0)
(-0.172731 -0.0703551 0)
(-0.167235 -0.0824781 0)
(-0.160724 -0.0937927 0)
(-0.153223 -0.104124 0)
(-0.144773 -0.113291 0)
(-0.135434 -0.121104 0)
(-0.125282 -0.127375 0)
(-0.114418 -0.131916 0)
(-0.102969 -0.134545 0)
(-0.0910854 -0.135094 0)
(-0.0789491 -0.133414 0)
(-0.0667682 -0.129381 0)
(-0.0547785 -0.122905 0)
(-0.0432402 -0.113938 0)
(-0.0324353 -0.102478 0)
(-0.0226633 -0.088577 0)
(-0.0142276 -0.0723438 0)
(-0.00741684 -0.0539457 0)
(-0.00259798 -0.0336074 0)
(-0.000371819 -0.0116232 0)
(-0.000379537 0.0129652 0)
(-0.00260357 0.0369432 0)
(-0.00736906 0.0586871 0)
(-0.01405 0.0780084 0)
(-0.022268 0.09479 0)
(-0.0317364 0.10897 0)
(-0.0421649 0.120537 0)
(-0.0532761 0.129525 0)
(-0.0648165 0.136005 0)
(-0.0765579 0.14008 0)
(-0.088298 0.141875 0)
(-0.0998602 0.141532 0)
(-0.111094 0.139206 0)
(-0.12187 0.135055 0)
(-0.132084 0.12924 0)
(-0.141647 0.121919 0)
(-0.15049 0.113249 0)
(-0.158556 0.103377 0)
(-0.1658 0.0924475 0)
(-0.172185 0.0805958 0)
(-0.177682 0.0679518 0)
(-0.182267 0.05464 0)
(-0.18592 0.0407806 0)
(-0.188621 0.0264916 0)
(-0.190353 0.0118899 0)
(-0.1911 -0.00290616 0)
(-0.190845 -0.0177749 0)
(-0.189572 -0.0325894 0)
(-0.187268 -0.0472157 0)
(-0.18392 -0.0615108 0)
(-0.179521 -0.0753215 0)
(-0.174068 -0.0884833 0)
(-0.167568 -0.10082 0)
(-0.160037 -0.112144 0)
(-0.151508 -0.122258 0)
(-0.142029 -0.130954 0)