/*--------------------------------*- C++ -*----------------------------------*\
  =========                 |
  \\      /  F ield         | OpenFOAM: The Open Source CFD Toolbox
   \\    /   O peration     | Website:  https://openfoam.org
    \\  /    A nd           | Version:  7
     \\/     M anipulation  |
\*---------------------------------------------------------------------------*/
FoamFile
{
    version     2.0;
    format      ascii;
    class       volVectorField;
    location    "0.0112";
    object      U;
}
// * * * * * * * * * * * * * * * * * * * * * * * * * * * * * * * * * * * * * //

dimensions      [0 1 -1 0 0 0 0];

internalField   nonuniform List<vector> 
2500
(
(0.290358 -0.152511 0)
(0.389825 -0.128342 0)
(0.565748 -0.0747584 0)
(0.683349 -0.0421517 0)
(0.752428 -0.0243494 0)
(0.796668 -0.0146255 0)
(0.826854 -0.00925633 0)
(0.848193 -0.006192 0)
(0.863765 -0.00434545 0)
(0.875442 -0.00316377 0)
(0.884374 -0.00236567 0)
(0.891305 -0.00180286 0)
(0.89674 -0.00139292 0)
(0.901036 -0.00108719 0)
(0.904454 -0.000855144 0)
(0.907185 -0.000676584 0)
(0.909375 -0.000537527 0)
(0.911133 -0.000427959 0)
(0.912545 -0.000340515 0)
(0.913674 -0.000269665 0)
(0.914571 -0.000211186 0)
(0.915271 -0.000161787 0)
(0.915802 -0.000118849 0)
(0.916184 -8.02227e-05 0)
(0.91643 -4.40691e-05 0)
(0.916544 -8.72927e-06 0)
(0.91653 2.73934e-05 0)
(0.916381 6.59554e-05 0)
(0.916087 0.000108767 0)
(0.915631 0.00015793 0)
(0.914987 0.00021599 0)
(0.914123 0.000286114 0)
(0.91299 0.000372339 0)
(0.911529 0.000479914 0)
(0.90966 0.000615787 0)
(0.907278 0.000789354 0)
(0.904246 0.00101366 0)
(0.900378 0.00130745 0)
(0.895429 0.00169881 0)
(0.889054 0.00223226 0)
(0.880769 0.00298289 0)
(0.869855 0.00408603 0)
(0.855198 0.0058014 0)
(0.834966 0.00865094 0)
(0.806071 0.0136962 0)
(0.763205 0.0230314 0)
(0.69539 0.0406215 0)
(0.577893 0.0736816 0)
(0.398208 0.128779 0)
(0.293967 0.153877 0)
(0.00119494 -0.295175 0)
(0.0170429 -0.298794 0)
(0.152177 -0.212778 0)
(0.281804 -0.144567 0)
(0.385448 -0.098371 0)
(0.466563 -0.0681043 0)
(0.529395 -0.0484055 0)
(0.577901 -0.0353579 0)
(0.615539 -0.0264458 0)
(0.644978 -0.0201578 0)
(0.668184 -0.0155914 0)
(0.686599 -0.0121954 0)
(0.701298 -0.00962172 0)
(0.713085 -0.00764202 0)
(0.722573 -0.006101 0)
(0.730232 -0.00488928 0)
(0.736426 -0.00392757 0)
(0.741437 -0.00315697 0)
(0.745485 -0.00253286 0)
(0.748741 -0.00202086 0)
(0.751337 -0.00159405 0)
(0.753374 -0.00123102 0)
(0.754928 -0.000914347 0)
(0.756053 -0.000629455 0)
(0.756785 -0.000363707 0)
(0.757143 -0.000105593 0)
(0.75713 0.000155993 0)
(0.756736 0.000432432 0)
(0.755933 0.000736089 0)
(0.754674 0.00108109 0)
(0.752893 0.00148424 0)
(0.750499 0.00196611 0)
(0.747371 0.00255246 0)
(0.743348 0.00327621 0)
(0.738223 0.00418011 0)
(0.731727 0.0053207 0)
(0.723511 0.00677435 0)
(0.713117 0.00864678 0)
(0.699944 0.0110889 0)
(0.683193 0.0143236 0)
(0.661783 0.0186936 0)
(0.634236 0.0247475 0)
(0.598504 0.033397 0)
(0.551736 0.0462008 0)
(0.490113 0.0658258 0)
(0.409078 0.0965831 0)
(0.30363 0.144589 0)
(0.16935 0.216571 0)
(0.0266589 0.30697 0)
(0.00521726 0.303151 0)
(-0.0328837 -0.250732 0)
(-0.0617926 -0.3439 0)
(-0.0126156 -0.309406 0)
(0.0679938 -0.249102 0)
(0.153594 -0.192339 0)
(0.232845 -0.146675 0)
(0.301497 -0.112083 0)
(0.358989 -0.0863221 0)
(0.406364 -0.0670977 0)
(0.445119 -0.0526162 0)
(0.476729 -0.0415801 0)
(0.502492 -0.0330728 0)
(0.523497 -0.0264467 0)
(0.540636 -0.0212393 0)
(0.554631 -0.0171145 0)
(0.566063 -0.0138235 0)
(0.575401 -0.0111786 0)
(0.583019 -0.00903617 0)
(0.589217 -0.0072846 0)
(0.594232 -0.00583602 0)
(0.598251 -0.00462034 0)
(0.601418 -0.00358082 0)
(0.603843 -0.00267064 0)
(0.605605 -0.0018501 0)
(0.606757 -0.00108442 0)
(0.607329 -0.00034167 0)
(0.607326 0.000409041 0)
(0.606732 0.00119932 0)
(0.605506 0.00206335 0)
(0.603583 0.00303988 0)
(0.600864 0.00417449 0)
(0.597219 0.00552237 0)
(0.592473 0.0071518 0)
(0.5864 0.00914873 0)
(0.578711 0.0116229 0)
(0.569037 0.0147166 0)
(0.556912 0.0186173 0)
(0.541744 0.023576 0)
(0.522784 0.029936 0)
(0.499091 0.0381761 0)
(0.469484 0.0489774 0)
(0.43251 0.0633221 0)
(0.386447 0.0826308 0)
(0.329426 0.108918 0)
(0.259888 0.144847 0)
(0.177828 0.193195 0)
(0.0871368 0.2545 0)
(-0.000696307 0.320895 0)
(-0.0577439 0.360374 0)
(-0.0322595 0.263879 0)
(-0.0268356 -0.19077 0)
(-0.0661078 -0.331998 0)
(-0.0668058 -0.348614 0)
(-0.0322533 -0.314231 0)
(0.0214586 -0.264883 0)
(0.0813112 -0.216474 0)
(0.139739 -0.174587 0)
(0.193076 -0.140182 0)
(0.239962 -0.112535 0)
(0.280265 -0.0904983 0)
(0.314438 -0.0729574 0)
(0.343165 -0.058969 0)
(0.367179 -0.0477776 0)
(0.38718 -0.0387903 0)
(0.403792 -0.0315439 0)
(0.417557 -0.0256754 0)
(0.428935 -0.0208987 0)
(0.438312 -0.0169867 0)
(0.446005 -0.0137575 0)
(0.452273 -0.0110645 0)
(0.457324 -0.00878815 0)
(0.461323 -0.00682989 0)
(0.464394 -0.00510702 0)
(0.466632 -0.0035485 0)
(0.468097 -0.00209127 0)
(0.468825 -0.00067699 0)
(0.468822 0.000751033 0)
(0.468067 0.00225086 0)
(0.466514 0.00388502 0)
(0.464081 0.00572388 0)
(0.460656 0.00784941 0)
(0.456083 0.0103597 0)
(0.450163 0.0133742 0)
(0.442639 0.0170409 0)
(0.43319 0.0215449 0)
(0.421418 0.0271203 0)
(0.406837 0.0340658 0)
(0.388857 0.0427665 0)
(0.366777 0.0537228 0)
(0.339784 0.0675883 0)
(0.306979 0.0852156 0)
(0.267444 0.107699 0)
(0.220424 0.13638 0)
(0.16569 0.172721 0)
(0.104251 0.217819 0)
(0.0396079 0.271022 0)
(-0.0203594 0.326583 0)
(-0.0615862 0.36718 0)
(-0.0660068 0.35314 0)
(-0.0274879 0.204138 0)
(-0.0180065 -0.148864 0)
(-0.0542485 -0.300503 0)
(-0.0769676 -0.349584 0)
(-0.0731744 -0.34185 0)
(-0.0481954 -0.308185 0)
(-0.0111609 -0.26616 0)
(0.030845 -0.224506 0)
(0.0732022 -0.18691 0)
(0.113226 -0.1545 0)
(0.149577 -0.127228 0)
(0.18176 -0.104575 0)
(0.209769 -0.0858858 0)
(0.233854 -0.0705186 0)
(0.254387 -0.0578977 0)
(0.271776 -0.0475295 0)
(0.286422 -0.0389992 0)
(0.298697 -0.0319611 0)
(0.308929 -0.0261285 0)
(0.317405 -0.0212641 0)
(0.324365 -0.0171702 0)
(0.330009 -0.013682 0)
(0.334499 -0.0106606 0)
(0.337958 -0.00798735 0)
(0.340482 -0.00555847 0)
(0.342132 -0.00328078 0)
(0.342942 -0.00106721 0)
(0.34292 0.00116734 0)
(0.342042 0.00351009 0)
(0.340257 0.00605461 0)
(0.337481 0.0089054 0)
(0.333595 0.0121829 0)
(0.32844 0.016029 0)
(0.321815 0.020614 0)
(0.313467 0.0261441 0)
(0.303088 0.0328713 0)
(0.290314 0.0411043 0)
(0.274718 0.0512225 0)
(0.255817 0.0636918 0)
(0.23309 0.0790803 0)
(0.206018 0.0980711 0)
(0.174161 0.121458 0)
(0.137301 0.150098 0)
(0.0956972 0.184762 0)
(0.0504974 0.225767 0)
(0.00433845 0.272175 0)
(-0.0378983 0.32019 0)
(-0.0683735 0.360274 0)
(-0.0766777 0.37279 0)
(-0.0560387 0.32321 0)
(-0.018917 0.161008 0)
(-0.011661 -0.119911 0)
(-0.0417781 -0.265604 0)
(-0.0720555 -0.331817 0)
(-0.0857893 -0.344861 0)
(-0.0817108 -0.327636 0)
(-0.0645058 -0.295875 0)
(-0.0392291 -0.259122 0)
(-0.0100056 -0.222611 0)
(0.0202011 -0.188896 0)
(0.0494812 -0.158994 0)
(0.076731 -0.133105 0)
(0.101404 -0.111022 0)
(0.123313 -0.0923603 0)
(0.142492 -0.0766825 0)
(0.159096 -0.063555 0)
(0.173342 -0.0525769 0)
(0.185468 -0.0433905 0)
(0.195709 -0.0356831 0)
(0.204284 -0.0291845 0)
(0.211389 -0.0236621 0)
(0.21719 -0.0189163 0)
(0.221827 -0.0147747 0)
(0.225412 -0.0110871 0)
(0.228026 -0.00771968 0)
(0.229728 -0.00455061 0)
(0.230546 -0.00146477 0)
(0.230486 0.00165098 0)
(0.229522 0.00491273 0)
(0.227605 0.00844452 0)
(0.224653 0.0123837 0)
(0.220555 0.0168866 0)
(0.215163 0.0221347 0)
(0.208295 0.0283412 0)
(0.19973 0.0357586 0)
(0.189212 0.0446859 0)
(0.17645 0.0554769 0)
(0.161131 0.0685466 0)
(0.142942 0.0843742 0)
(0.121604 0.103499 0)
(0.096942 0.126498 0)
(0.0689851 0.153925 0)
(0.0381327 0.186185 0)
(0.00539035 0.223275 0)
(-0.0273164 0.264302 0)
(-0.0568044 0.306636 0)
(-0.078432 0.344553 0)
(-0.0862928 0.367307 0)
(-0.0746724 0.357012 0)
(-0.0442264 0.287814 0)
(-0.0124929 0.130554 0)
(-0.00775646 -0.0990434 0)
(-0.032199 -0.23306 0)
(-0.0634168 -0.306275 0)
(-0.0859029 -0.333266 0)
(-0.0953608 -0.329901 0)
(-0.0931778 -0.308895 0)
(-0.0822383 -0.279163 0)
(-0.0655639 -0.246412 0)
(-0.0457471 -0.214005 0)
(-0.024748 -0.183749 0)
(-0.00392044 -0.156476 0)
(0.0158734 -0.132443 0)
(0.0341367 -0.111582 0)
(0.050628 -0.0936575 0)
(0.0652757 -0.0783596 0)
(0.0781137 -0.0653544 0)
(0.0892375 -0.0543144 0)
(0.0987728 -0.0449339 0)
(0.106856 -0.0369349 0)
(0.113619 -0.0300687 0)
(0.119184 -0.0241148 0)
(0.123656 -0.0188778 0)
(0.127122 -0.0141829 0)
(0.129648 -0.0098722 0)
(0.131278 -0.0057991 0)
(0.132036 -0.00182381 0)
(0.131922 0.00219198 0)
(0.130913 0.00639028 0)
(0.128962 0.0109222 0)
(0.125998 0.0159536 0)
(0.121925 0.0216704 0)
(0.116619 0.028285 0)
(0.109934 0.0360412 0)
(0.101701 0.04522 0)
(0.0917346 0.0561432 0)
(0.0798454 0.0691751 0)
(0.0658591 0.0847195 0)
(0.0496479 0.103208 0)
(0.0311794 0.125071 0)
(0.0105896 0.150688 0)
(-0.0117139 0.18028 0)
(-0.034913 0.213736 0)
(-0.0576115 0.25031 0)
(-0.0776675 0.288148 0)
(-0.0921189 0.323571 0)
(-0.0973706 0.350138 0)
(-0.08983 0.357626 0)
(-0.0675045 0.331438 0)
(-0.0347466 0.253626 0)
(-0.00844678 0.108171 0)
(-0.00544439 -0.0834134 0)
(-0.0254093 -0.204291 0)
(-0.0549119 -0.278385 0)
(-0.0810217 -0.313632 0)
(-0.0985208 -0.320672 0)
(-0.106796 -0.309215 0)
(-0.107008 -0.286902 0)
(-0.101018 -0.259205 0)
(-0.0907733 -0.229767 0)
(-0.0779745 -0.200847 0)
(-0.0639547 -0.173736 0)
(-0.0496861 -0.149078 0)
(-0.0358334 -0.127109 0)
(-0.0228194 -0.107813 0)
(-0.0108878 -0.0910317 0)
(-0.000156519 -0.0765301 0)
(0.00934163 -0.0640419 0)
(0.0176272 -0.0532945 0)
(0.0247517 -0.0440245 0)
(0.0307812 -0.0359851 0)
(0.0357856 -0.0289493 0)
(0.0398308 -0.0227097 0)
(0.0429737 -0.0170764 0)
(0.0452586 -0.0118741 0)
(0.0467155 -0.00693753 0)
(0.0473584 -0.00210735 0)
(0.0471839 0.00277517 0)
(0.0461711 0.00787307 0)
(0.0442809 0.013359 0)
(0.0414561 0.0194204 0)
(0.0376219 0.0262647 0)
(0.0326881 0.0341238 0)
(0.0265526 0.0432575 0)
(0.0191077 0.0539564 0)
(0.0102502 0.0665398 0)
(-0.000101788 0.0813512 0)
(-0.0119848 0.0987445 0)
(-0.0253545 0.119058 0)
(-0.0400359 0.142568 0)
(-0.0556573 0.169412 0)
(-0.0715679 0.199468 0)
(-0.0867443 0.232153 0)
(-0.0997058 0.266149 0)
(-0.108482 0.298991 0)
(-0.11072 0.326569 0)
(-0.104066 0.342583 0)
(-0.086891 0.338184 0)
(-0.0595925 0.302202 0)
(-0.0278354 0.222683 0)
(-0.00600946 0.0911282 0)
(-0.00404661 -0.0712155 0)
(-0.0206211 -0.179212 0)
(-0.0475676 -0.250745 0)
(-0.074514 -0.290095 0)
(-0.096348 -0.304298 0)
(-0.111429 -0.300547 0)
(-0.119749 -0.285066 0)
(-0.122202 -0.262735 0)
(-0.120065 -0.237105 0)
(-0.114644 -0.210601 0)
(-0.107091 -0.184783 0)
(-0.098342 -0.160572 0)
(-0.0891077 -0.13845 0)
(-0.0799019 -0.118601 0)
(-0.0710763 -0.101019 0)
(-0.0628572 -0.0855795 0)
(-0.0553781 -0.0720936 0)
(-0.0487071 -0.0603396 0)
(-0.0428681 -0.0500848 0)
(-0.0378572 -0.0410991 0)
(-0.0336552 -0.0331613 0)
(-0.030236 -0.0260631 0)
(-0.0275737 -0.0196084 0)
(-0.0256463 -0.0136122 0)
(-0.0244398 -0.00789745 0)
(-0.0239495 -0.0022911 0)
(-0.0241818 0.00337997 0)
(-0.0251547 0.00929369 0)
(-0.0268978 0.0156375 0)
(-0.0294514 0.0226126 0)
(-0.0328646 0.0304381 0)
(-0.0371916 0.0393537 0)
(-0.0424862 0.0496211 0)
(-0.0487932 0.0615222 0)
(-0.0561351 0.0753531 0)
(-0.0644943 0.0914119 0)
(-0.0737874 0.109976 0)
(-0.0838317 0.131267 0)
(-0.0943028 0.15539 0)
(-0.104684 0.182246 0)
(-0.114212 0.211409 0)
(-0.121834 0.241939 0)
(-0.126195 0.272146 0)
(-0.125697 0.299295 0)
(-0.118707 0.319299 0)
(-0.103978 0.32648 0)
(-0.0812857 0.31361 0)
(-0.0523314 0.272462 0)
(-0.0228411 0.19526 0)
(-0.00451179 0.07766 0)
(-0.00315875 -0.0613359 0)
(-0.017161 -0.157336 0)
(-0.0414577 -0.224505 0)
(-0.0678023 -0.265124 0)
(-0.0915999 -0.283838 0)
(-0.110796 -0.285892 0)
(-0.12468 -0.276212 0)
(-0.133437 -0.258956 0)
(-0.137765 -0.237373 0)
(-0.13856 -0.213853 0)
(-0.136727 -0.190058 0)
(-0.133075 -0.167073 0)
(-0.128276 -0.145555 0)
(-0.122863 -0.125847 0)
(-0.117235 -0.108077 0)
(-0.111685 -0.0922272 0)
(-0.106415 -0.07819 0)
(-0.101558 -0.0658022 0)
(-0.0971986 -0.0548719 0)
(-0.0933859 -0.0451957 0)
(-0.0901447 -0.0365684 0)
(-0.0874852 -0.0287893 0)
(-0.0854099 -0.0216645 0)
(-0.0839185 -0.0150066 0)
(-0.0830118 -0.00863328 0)
(-0.0826936 -0.00236451 0)
(-0.0829726 0.00398099 0)
(-0.083863 0.0105895 0)
(-0.0853837 0.0176559 0)
(-0.0875568 0.0253872 0)
(-0.0904051 0.0340047 0)
(-0.093947 0.0437452 0)
(-0.0981898 0.0548592 0)
(-0.10312 0.0676058 0)
(-0.108689 0.0822423 0)
(-0.114797 0.0990065 0)
(-0.121269 0.118087 0)
(-0.127824 0.139583 0)
(-0.134052 0.163435 0)
(-0.139372 0.189346 0)
(-0.143016 0.216655 0)
(-0.144022 0.244189 0)
(-0.141271 0.270083 0)
(-0.133605 0.291591 0)
(-0.120054 0.304926 0)
(-0.100227 0.305235 0)
(-0.0747891 0.286823 0)
(-0.0460162 0.243764 0)
(-0.019144 0.171071 0)
(-0.00354346 0.0666572 0)
(-0.0025601 -0.0531004 0)
(-0.0145721 -0.138152 0)
(-0.0363947 -0.200104 0)
(-0.0614384 -0.240139 0)
(-0.0857331 -0.261338 0)
(-0.107156 -0.267507 0)
(-0.124623 -0.26248 0)
(-0.137849 -0.249699 0)
(-0.147082 -0.232019 0)
(-0.152859 -0.211667 0)
(-0.155822 -0.190289 0)
(-0.156618 -0.169037 0)
(-0.155831 -0.148671 0)
(-0.153959 -0.129648 0)
(-0.151407 -0.112199 0)
(-0.148491 -0.0964015 0)
(-0.145454 -0.0822215 0)
(-0.142471 -0.0695553 0)
(-0.139671 -0.0582559 0)
(-0.137141 -0.048152 0)
(-0.134942 -0.039061 0)
(-0.133115 -0.0307969 0)
(-0.131685 -0.0231742 0)
(-0.130672 -0.0160096 0)
(-0.130088 -0.0091218 0)
(-0.129945 -0.00232977 0)
(-0.130253 0.00454977 0)
(-0.131021 0.0117049 0)
(-0.132258 0.0193313 0)
(-0.133967 0.027634 0)
(-0.136147 0.0368282 0)
(-0.138783 0.0471385 0)
(-0.141842 0.0587945 0)
(-0.145261 0.0720226 0)
(-0.148935 0.0870325 0)
(-0.152704 0.103995 0)
(-0.156329 0.12301 0)
(-0.159479 0.14406 0)
(-0.161706 0.166952 0)
(-0.162435 0.191232 0)
(-0.160964 0.216089 0)
(-0.156486 0.240233 0)
(-0.148163 0.261779 0)
(-0.135252 0.278133 0)
(-0.117327 0.285956 0)
(-0.0945909 0.281239 0)
(-0.0682056 0.259594 0)
(-0.040591 0.216811 0)
(-0.0163114 0.149716 0)
(-0.00287809 0.0574414 0)
(-0.00213226 -0.0460898 0)
(-0.0125654 -0.121225 0)
(-0.0321645 -0.177645 0)
(-0.0556055 -0.215926 0)
(-0.0795181 -0.23813 0)
(-0.101883 -0.247021 0)
(-0.121462 -0.245554 0)
(-0.13768 -0.236531 0)
(-0.150466 -0.222392 0)
(-0.160061 -0.205136 0)
(-0.166876 -0.186317 0)
(-0.171386 -0.167079 0)
(-0.174063 -0.148224 0)
(-0.175343 -0.130278 0)
(-0.175602 -0.113549 0)
(-0.175154 -0.0981828 0)
(-0.174253 -0.0842118 0)
(-0.173098 -0.0715863 0)
(-0.171843 -0.0602028 0)
(-0.170602 -0.0499245 0)
(-0.169462 -0.0405947 0)
(-0.168486 -0.0320462 0)
(-0.167719 -0.024107 0)
(-0.167194 -0.0166032 0)
(-0.166935 -0.00935958 0)
(-0.166958 -0.00219941 0)
(-0.167272 0.00505699 0)
(-0.167883 0.0125938 0)
(-0.168788 0.0206013 0)
(-0.169976 0.029276 0)
(-0.171423 0.0388206 0)
(-0.173087 0.0494404 0)
(-0.174901 0.0613376 0)
(-0.176766 0.0747006 0)
(-0.178536 0.089688 0)
(-0.180012 0.106405 0)
(-0.180923 0.124869 0)
(-0.180919 0.144969 0)
(-0.179561 0.166405 0)
(-0.176324 0.188622 0)
(-0.170612 0.210729 0)
(-0.161803 0.231417 0)
(-0.149327 0.248883 0)
(-0.132798 0.260787 0)
(-0.112193 0.264276 0)
(-0.0880939 0.256113 0)
(-0.0618925 0.232968 0)
(-0.0359208 0.191872 0)
(-0.0140667 0.130817 0)
(-0.0023937 0.0495865 0)
(-0.00181101 -0.040031 0)
(-0.0109621 -0.106202 0)
(-0.0285916 -0.157077 0)
(-0.0503416 -0.192898 0)
(-0.0733681 -0.215057 0)
(-0.0958318 -0.225569 0)
(-0.116466 -0.226705 0)
(-0.134539 -0.220718 0)
(-0.149766 -0.209659 0)
(-0.162167 -0.195275 0)
(-0.171955 -0.178979 0)
(-0.17945 -0.161862 0)
(-0.185009 -0.144724 0)
(-0.188987 -0.128116 0)
(-0.191716 -0.112393 0)
(-0.193486 -0.0977541 0)
(-0.194545 -0.0842802 0)
(-0.195095 -0.0719678 0)
(-0.195302 -0.0607534 0)
(-0.195298 -0.0505333 0)
(-0.195183 -0.0411775 0)
(-0.195036 -0.0325403 0)
(-0.194915 -0.0244661 0)
(-0.194864 -0.0167939 0)
(-0.194913 -0.00935896 0)
(-0.195081 -0.00199321 0)
(-0.195378 0.00547487 0)
(-0.195804 0.0132208 0)
(-0.196346 0.0214243 0)
(-0.196982 0.0302687 0)
(-0.197667 0.039939 0)
(-0.19834 0.050617 0)
(-0.19891 0.0624741 0)
(-0.199251 0.075659 0)
(-0.199194 0.090281 0)
(-0.198521 0.106385 0)
(-0.196953 0.123922 0)
(-0.194149 0.142707 0)
(-0.18971 0.162368 0)
(-0.183185 0.182297 0)
(-0.174103 0.201585 0)
(-0.162024 0.218969 0)
(-0.146617 0.232796 0)
(-0.12777 0.241017 0)
(-0.105746 0.241251 0)
(-0.0813406 0.230927 0)
(-0.0560062 0.207538 0)
(-0.0318799 0.168997 0)
(-0.0122385 0.114048 0)
(-0.00202406 0.0428101 0)
(-0.00156063 -0.0347353 0)
(-0.00965165 -0.0927997 0)
(-0.0255474 -0.138284 0)
(-0.0456336 -0.171244 0)
(-0.0675099 -0.192631 0)
(-0.0895379 -0.203921 0)
(-0.110494 -0.206859 0)
(-0.129581 -0.203245 0)
(-0.146375 -0.194779 0)
(-0.160742 -0.18296 0)
(-0.17274 -0.169045 0)
(-0.182552 -0.154035 0)
(-0.190428 -0.138695 0)
(-0.196643 -0.123577 0)
(-0.201472 -0.109055 0)
(-0.20517 -0.0953588 0)
(-0.207964 -0.0826066 0)
(-0.21005 -0.0708308 0)
(-0.211594 -0.0600016 0)
(-0.212732 -0.0500452 0)
(-0.213572 -0.0408576 0)
(-0.2142 -0.0323149 0)
(-0.214685 -0.0242797 0)
(-0.215074 -0.0166064 0)
(-0.215402 -0.00914342 0)
(-0.21569 -0.00173479 0)
(-0.215947 0.00577929 0)
(-0.216167 0.013562 0)
(-0.216332 0.0217789 0)
(-0.216405 0.0305967 0)
(-0.216333 0.0401795 0)
(-0.216036 0.0506837 0)
(-0.215409 0.0622489 0)
(-0.214312 0.0749862 0)
(-0.212566 0.0889602 0)
(-0.209951 0.104167 0)
(-0.206198 0.120503 0)
(-0.200997 0.137733 0)
(-0.194002 0.155449 0)
(-0.184852 0.173026 0)
(-0.1732 0.189582 0)
(-0.15877 0.203944 0)
(-0.141425 0.214642 0)
(-0.12126 0.219925 0)
(-0.098718 0.217838 0)
(-0.0746982 0.206357 0)
(-0.0506144 0.183608 0)
(-0.0283713 0.148123 0)
(-0.0107207 0.0991301 0)
(-0.00173219 0.0369132 0)
(-0.00136046 -0.0300651 0)
(-0.00856445 -0.0807855 0)
(-0.0229409 -0.121118 0)
(-0.0414541 -0.151019 0)
(-0.0620702 -0.171143 0)
(-0.0833462 -0.182579 0)
(-0.104138 -0.186669 0)
(-0.123634 -0.184847 0)
(-0.141337 -0.178507 0)
(-0.157003 -0.16892 0)
(-0.170574 -0.157178 0)
(-0.182124 -0.144182 0)
(-0.191808 -0.130639 0)
(-0.199824 -0.117077 0)
(-0.206388 -0.103871 0)
(-0.211713 -0.0912666 0)
(-0.216001 -0.0794032 0)
(-0.219431 -0.06834 0)
(-0.222159 -0.0580742 0)
(-0.224319 -0.0485577 0)
(-0.22602 -0.0397101 0)
(-0.227352 -0.0314283 0)
(-0.228384 -0.0235938 0)
(-0.229168 -0.0160776 0)
(-0.22974 -0.00874309 0)
(-0.230121 -0.00144863 0)
(-0.230318 0.00595138 0)
(-0.230321 0.0136052 0)
(-0.230106 0.021662 0)
(-0.229628 0.0302695 0)
(-0.228826 0.03957 0)
(-0.227611 0.0496938 0)
(-0.22587 0.0607509 0)
(-0.223459 0.0728178 0)
(-0.2202 0.085922 0)
(-0.215882 0.10002 0)
(-0.210262 0.114973 0)
(-0.203071 0.130517 0)
(-0.194026 0.146231 0)
(-0.182854 0.161504 0)
(-0.169325 0.175513 0)
(-0.1533 0.187203 0)
(-0.134794 0.195293 0)
(-0.114045 0.198313 0)
(-0.0916029 0.194677 0)
(-0.0683943 0.182806 0)
(-0.0457445 0.161299 0)
(-0.0253242 0.129126 0)
(-0.00944642 0.0858248 0)
(-0.00149663 0.0317464 0)
(-0.00119797 -0.025914 0)
(-0.00765539 -0.0699628 0)
(-0.0207078 -0.105419 0)
(-0.0377738 -0.13219 0)
(-0.0571195 -0.150729 0)
(-0.0774791 -0.161846 0)
(-0.0978018 -0.166574 0)
(-0.117295 -0.166052 0)
(-0.135426 -0.161417 0)
(-0.151881 -0.15373 0)
(-0.166519 -0.14393 0)
(-0.179326 -0.132808 0)
(-0.190377 -0.121001 0)
(-0.199803 -0.109002 0)
(-0.207763 -0.0971692 0)
(-0.21443 -0.0857486 0)
(-0.219972 -0.074892 0)
(-0.224547 -0.0646752 0)
(-0.228297 -0.0551155 0)
(-0.231349 -0.0461857 0)
(-0.233807 -0.0378259 0)
(-0.235758 -0.0299525 0)
(-0.237271 -0.0224649 0)
(-0.238399 -0.0152512 0)
(-0.239176 -0.00819077 0)
(-0.239624 -0.00115751 0)
(-0.239745 0.00597851 0)
(-0.239527 0.0133492 0)
(-0.238942 0.0210859 0)
(-0.237942 0.029317 0)
(-0.236457 0.0381625 0)
(-0.234397 0.0477284 0)
(-0.231648 0.0580975 0)
(-0.228068 0.0693174 0)
(-0.223489 0.081386 0)
(-0.217721 0.0942324 0)
(-0.210549 0.107696 0)
(-0.201753 0.121502 0)
(-0.191114 0.135238 0)
(-0.178442 0.148331 0)
(-0.163607 0.160034 0)
(-0.146583 0.169418 0)
(-0.127496 0.175391 0)
(-0.106679 0.176734 0)
(-0.0847338 0.172174 0)
(-0.0625707 0.160482 0)
(-0.0414034 0.140615 0)
(-0.0226868 0.11185 0)
(-0.00837196 0.0739203 0)
(-0.00130422 0.0271915 0)
(-0.00106512 -0.0221961 0)
(-0.00689396 -0.0601608 0)
(-0.018801 -0.091024 0)
(-0.0345645 -0.114674 0)
(-0.0526939 -0.131428 0)
(-0.0720787 -0.141888 0)
(-0.0917616 -0.146854 0)
(-0.110987 -0.147226 0)
(-0.129212 -0.143925 0)
(-0.146082 -0.137832 0)
(-0.161395 -0.129738 0)
(-0.175074 -0.120329 0)
(-0.187129 -0.110166 0)
(-0.19763 -0.0996942 0)
(-0.206688 -0.0892472 0)
(-0.214434 -0.0790612 0)
(-0.221004 -0.0692892 0)
(-0.226533 -0.0600165 0)
(-0.231147 -0.0512738 0)
(-0.234957 -0.0430502 0)
(-0.238063 -0.0353028 0)
(-0.240546 -0.0279651 0)
(-0.242472 -0.0209538 0)
(-0.243891 -0.0141731 0)
(-0.244836 -0.0075188 0)
(-0.245326 -0.000880736 0)
(-0.245361 0.0058547 0)
(-0.244928 0.0128024 0)
(-0.243994 0.0200759 0)
(-0.242509 0.027784 0)
(-0.240403 0.0360261 0)
(-0.237586 0.0448858 0)
(-0.233947 0.0544225 0)
(-0.229353 0.0646608 0)
(-0.223652 0.0755769 0)
(-0.216676 0.0870829 0)
(-0.208248 0.0990093 0)
(-0.198192 0.111086 0)
(-0.186352 0.122924 0)
(-0.172611 0.134002 0)
(-0.156924 0.143659 0)
(-0.13935 0.151094 0)
(-0.120094 0.15539 0)
(-0.0995493 0.155549 0)
(-0.0783325 0.150556 0)
(-0.057312 0.139461 0)
(-0.0375864 0.121485 0)
(-0.0204194 0.0961211 0)
(-0.00746707 0.0632263 0)
(-0.00114638 0.0231505 0)
(-0.000956464 -0.0188398 0)
(-0.00625844 -0.0512284 0)
(-0.0171849 -0.0777725 0)
(-0.0317993 -0.0983581 0)
(-0.0488078 -0.113207 0)
(-0.0672315 -0.12277 0)
(-0.0862014 -0.127666 0)
(-0.105005 -0.128603 0)
(-0.123107 -0.126324 0)
(-0.140128 -0.121549 0)
(-0.15583 -0.11494 0)
(-0.170084 -0.107078 0)
(-0.18285 -0.0984487 0)
(-0.19415 -0.0894449 0)
(-0.204052 -0.0803675 0)
(-0.212647 -0.0714351 0)
(-0.220043 -0.062795 0)
(-0.22635 -0.0545347 0)
(-0.231676 -0.0466931 0)
(-0.236119 -0.0392707 0)
(-0.239768 -0.0322383 0)
(-0.242698 -0.0255444 0)
(-0.244969 -0.019121 0)
(-0.246628 -0.012888 0)
(-0.247706 -0.00675675 0)
(-0.248217 -0.000633077 0)
(-0.248163 0.00558037 0)
(-0.247525 0.0119817 0)
(-0.24627 0.0186669 0)
(-0.244349 0.0257263 0)
(-0.241692 0.0332404 0)
(-0.238213 0.0412733 0)
(-0.233806 0.0498655 0)
(-0.228353 0.0590238 0)
(-0.221718 0.0687107 0)
(-0.213761 0.0788304 0)
(-0.204338 0.0892148 0)
(-0.19332 0.0996096 0)
(-0.180605 0.109661 0)
(-0.166138 0.118907 0)
(-0.149942 0.126775 0)
(-0.13214 0.13259 0)
(-0.112992 0.13559 0)
(-0.0929213 0.134969 0)
(-0.0725405 0.129924 0)
(-0.052664 0.119724 0)
(-0.0342802 0.103786 0)
(-0.0184895 0.0817572 0)
(-0.00670955 0.0535692 0)
(-0.00101715 0.0195398 0)
(-0.000868088 -0.0157834 0)
(-0.00573255 -0.04303 0)
(-0.0158308 -0.065507 0)
(-0.029452 -0.0831077 0)
(-0.0454601 -0.0959881 0)
(-0.0629859 -0.104487 0)
(-0.0812386 -0.109079 0)
(-0.099551 -0.110321 0)
(-0.117401 -0.108804 0)
(-0.134401 -0.10511 0)
(-0.150288 -0.0997848 0)
(-0.164897 -0.093311 0)
(-0.178149 -0.0861017 0)
(-0.190027 -0.0784943 0)
(-0.200561 -0.0707523 0)
(-0.209811 -0.0630716 0)
(-0.217857 -0.0555878 0)
(-0.224786 -0.0483854 0)
(-0.230687 -0.0415066 0)
(-0.235646 -0.0349594 0)
(-0.23974 -0.0287252 0)
(-0.243037 -0.0227649 0)
(-0.24559 -0.0170241 0)
(-0.247443 -0.011437 0)
(-0.248622 -0.00593009 0)
(-0.249141 -0.000424361 0)
(-0.248996 0.00516178 0)
(-0.248171 0.0109102 0)
(-0.246631 0.0169004 0)
(-0.244326 0.0232059 0)
(-0.241192 0.0298902 0)
(-0.237147 0.0370011 0)
(-0.232094 0.0445641 0)
(-0.225929 0.0525743 0)
(-0.218535 0.0609865 0)
(-0.209798 0.0697047 0)
(-0.199607 0.0785711 0)
(-0.187873 0.0873551 0)
(-0.174542 0.0957448 0)
(-0.159611 0.103342 0)
(-0.143153 0.109662 0)
(-0.12534 0.114144 0)
(-0.106466 0.11617 0)
(-0.0869685 0.115094 0)
(-0.067442 0.110287 0)
(-0.0486443 0.101189 0)
(-0.0314654 0.0873684 0)
(-0.0168692 0.0685759 0)
(-0.00608203 0.0447898 0)
(-0.000912115 0.0162867 0)
(-0.00079704 -0.0129729 0)
(-0.00530354 -0.0354423 0)
(-0.0147148 -0.054076 0)
(-0.0274975 -0.0687807 0)
(-0.0426402 -0.079666 0)
(-0.0593635 -0.0869849 0)
(-0.0769435 -0.0910991 0)
(-0.094755 -0.0924408 0)
(-0.112294 -0.0914742 0)
(-0.129172 -0.0886633 0)
(-0.145108 -0.0844464 0)
(-0.159916 -0.0792183 0)
(-0.173486 -0.07332 0)
(-0.18577 -0.0670341 0)
(-0.196768 -0.0605845 0)
(-0.206512 -0.0541405 0)
(-0.215058 -0.047822 0)
(-0.222472 -0.041706 0)
(-0.228829 -0.0358341 0)
(-0.234199 -0.0302186 0)
(-0.23865 -0.0248484 0)
(-0.242241 -0.0196948 0)
(-0.24502 -0.014715 0)
(-0.247025 -0.00985657 0)
(-0.24828 -0.00505955 0)
(-0.248795 -0.000259554 0)
(-0.248565 0.00461013 0)
(-0.247574 0.0096162 0)
(-0.245786 0.0148227 0)
(-0.243155 0.0202881 0)
(-0.239618 0.0260612 0)
(-0.235101 0.0321767 0)
(-0.229519 0.0386491 0)
(-0.222777 0.0454662 0)
(-0.214781 0.0525811 0)
(-0.205437 0.0599038 0)
(-0.194668 0.0672927 0)
(-0.182417 0.0745469 0)
(-0.168669 0.0814004 0)
(-0.153463 0.0875194 0)
(-0.136911 0.0925049 0)
(-0.119219 0.0959021 0)
(-0.100701 0.0972167 0)
(-0.0817974 0.0959415 0)
(-0.0630797 0.0915898 0)
(-0.0452517 0.083737 0)
(-0.0291186 0.0720642 0)
(-0.0155331 0.0563983 0)
(-0.00557029 0.0367416 0)
(-0.000827852 0.0133269 0)
(-0.000741032 -0.0103609 0)
(-0.00496113 -0.0283527 0)
(-0.0138167 -0.0433352 0)
(-0.0259116 -0.0552308 0)
(-0.0403316 -0.064116 0)
(-0.0563684 -0.0701773 0)
(-0.0733535 -0.073686 0)
(-0.0906983 -0.0749703 0)
(-0.107917 -0.0743869 0)
(-0.124624 -0.0722958 0)
(-0.140532 -0.0690406 0)
(-0.155435 -0.0649341 0)
(-0.169202 -0.060249 0)
(-0.181762 -0.0552137 0)
(-0.19309 -0.0500115 0)
(-0.203197 -0.0447827 0)
(-0.212119 -0.0396283 0)
(-0.219904 -0.0346151 0)
(-0.226612 -0.0297808 0)
(-0.232301 -0.025139 0)
(-0.237031 -0.020684 0)
(-0.240851 -0.0163952 0)
(-0.243806 -0.01224 0)
(-0.245928 -0.00817767 0)
(-0.247237 -0.00416104 0)
(-0.247741 -0.000139209 0)
(-0.247436 0.00394061 0)
(-0.246303 0.008131 0)
(-0.244308 0.0124821 0)
(-0.241407 0.0170387 0)
(-0.237542 0.0218375 0)
(-0.232644 0.0269026 0)
(-0.226638 0.0322411 0)
(-0.219443 0.0378376 0)
(-0.210981 0.0436481 0)
(-0.201179 0.0495932 0)
(-0.189985 0.0555523 0)
(-0.177371 0.061358 0)
(-0.163354 0.066792 0)
(-0.148003 0.0715845 0)
(-0.131461 0.0754176 0)
(-0.113954 0.0779331 0)
(-0.0958112 0.0787467 0)
(-0.0774665 0.0774692 0)
(-0.059468 0.0737322 0)
(-0.0424723 0.0672195 0)
(-0.0272144 0.057699 0)
(-0.0144584 0.0450511 0)
(-0.00516241 0.0292899 0)
(-0.000761619 0.0106033 0)
(-0.000698271 -0.00790454 0)
(-0.00469704 -0.0216578 0)
(-0.0131194 -0.033147 0)
(-0.0246725 -0.0423115 0)
(-0.0385152 -0.0492037 0)
(-0.0539941 -0.0539569 0)
(-0.0704842 -0.0567677 0)
(-0.087427 -0.0578768 0)
(-0.104353 -0.0575475 0)
(-0.120883 -0.0560481 0)
(-0.136723 -0.0536363 0)
(-0.151657 -0.0505488 0)
(-0.165539 -0.0469937 0)
(-0.17828 -0.0431465 0)
(-0.189837 -0.0391494 0)
(-0.200203 -0.0351125 0)
(-0.209397 -0.031116 0)
(-0.217456 -0.0272139 0)
(-0.224425 -0.0234377 0)
(-0.230354 -0.0198001 0)
(-0.235294 -0.0162989 0)
(-0.239287 -0.0129198 0)
(-0.242374 -0.009639 0)
(-0.244581 -0.00642621 0)
(-0.245928 -0.00324606 0)
(-0.24642 -6.01269e-05 0)
(-0.246051 0.00317143 0)
(-0.244802 0.00648816 0)
(-0.242642 0.00992747 0)
(-0.239528 0.0135225 0)
(-0.235405 0.0172993 0)
(-0.230212 0.0212742 0)
(-0.223881 0.0254496 0)
(-0.216343 0.0298102 0)
(-0.207532 0.0343183 0)
(-0.197396 0.0389091 0)
(-0.1859 0.043486 0)
(-0.173041 0.0479171 0)
(-0.158858 0.052033 0)
(-0.143445 0.0556264 0)
(-0.126965 0.0584556 0)
(-0.10966 0.060251 0)
(-0.0918624 0.0607264 0)
(-0.0740019 0.0595946 0)
(-0.056604 0.0565869 0)
(-0.0402859 0.0514755 0)
(-0.0257275 0.0440964 0)
(-0.013625 0.034369 0)
(-0.0048484 0.0223104 0)
(-0.000711218 0.00806472 0)
(-0.000667378 -0.00556516 0)
(-0.00450471 -0.0152617 0)
(-0.012609 -0.0233805 0)
(-0.0237611 -0.0298784 0)
(-0.0371724 -0.0347894 0)
(-0.052229 -0.0382026 0)
(-0.0683382 -0.0402516 0)
(-0.0849646 -0.0411003 0)
(-0.101652 -0.0409298 0)
(-0.118026 -0.0399255 0)
(-0.133791 -0.0382665 0)
(-0.148724 -0.0361181 0)
(-0.162668 -0.0336268 0)
(-0.175521 -0.0309166 0)
(-0.187228 -0.0280889 0)
(-0.19777 -0.0252225 0)
(-0.207153 -0.0223757 0)
(-0.215403 -0.019588 0)
(-0.222557 -0.016883 0)
(-0.228656 -0.0142711 0)
(-0.233745 -0.0117517 0)
(-0.237862 -0.00931536 0)
(-0.241041 -0.00694629 0)
(-0.243309 -0.00462345 0)
(-0.244681 -0.0023223 0)
(-0.245161 -1.60956e-05 0)
(-0.244742 0.00232294 0)
(-0.243406 0.00472229 0)
(-0.241122 0.00720781 0)
(-0.237849 0.00980208 0)
(-0.233537 0.0125226 0)
(-0.228128 0.0153795 0)
(-0.221562 0.0183729 0)
(-0.213778 0.0214902 0)
(-0.204722 0.0247025 0)
(-0.194353 0.0279621 0)
(-0.182654 0.0311985 0)
(-0.169637 0.0343169 0)
(-0.155358 0.0371967 0)
(-0.13993 0.0396913 0)
(-0.123526 0.0416312 0)
(-0.106401 0.0428288 0)
(-0.0888881 0.0430865 0)
(-0.0714102 0.0422071 0)
(-0.0544752 0.0400082 0)
(-0.0386705 0.036336 0)
(-0.024635 0.0310817 0)
(-0.0130159 0.024194 0)
(-0.00462016 0.0156878 0)
(-0.00067492 0.00566483 0)
(-0.000647339 -0.00330716 0)
(-0.00437923 -0.00907466 0)
(-0.0122748 -0.0139109 0)
(-0.0231623 -0.01779 0)
(-0.036287 -0.0207312 0)
(-0.0510607 -0.0227856 0)
(-0.066912 -0.0240307 0)
(-0.0833208 -0.0245619 0)
(-0.0998406 -0.0244849 0)
(-0.116101 -0.0239086 0)
(-0.131804 -0.0229385 0)
(-0.146724 -0.0216722 0)
(-0.160698 -0.0201967 0)
(-0.173616 -0.0185859 0)
(-0.185414 -0.0169005 0)
(-0.196064 -0.0151879 0)
(-0.205565 -0.0134833 0)
(-0.213936 -0.0118108 0)
(-0.221207 -0.010185 0)
(-0.227415 -0.00861267 0)
(-0.232599 -0.00709377 0)
(-0.236795 -0.00562315 0)
(-0.240035 -0.0041916 0)
(-0.242341 -0.00278685 0)
(-0.243727 -0.00139445 0)
(-0.244198 1.35727e-06 0)
(-0.243745 0.00141694 0)
(-0.242351 0.00286849 0)
(-0.239984 0.00437115 0)
(-0.236607 0.00593804 0)
(-0.23217 0.00757915 0)
(-0.226621 0.00929999 0)
(-0.219902 0.0111 0)
(-0.211959 0.0129709 0)
(-0.202747 0.0148948 0)
(-0.192233 0.0168422 0)
(-0.180408 0.0187704 0)
(-0.167298 0.0206225 0)
(-0.15297 0.022326 0)
(-0.137545 0.0237939 0)
(-0.121207 0.0249257 0)
(-0.104214 0.0256108 0)
(-0.0869022 0.0257333 0)
(-0.069688 0.0251782 0)
(-0.0530668 0.0238396 0)
(-0.0376061 0.0216288 0)
(-0.0239179 0.0184836 0)
(-0.0126175 0.0143755 0)
(-0.0044715 0.0093146 0)
(-0.000651437 0.0033612 0)
(-0.000637485 -0.00109709 0)
(-0.0043173 -0.0030112 0)
(-0.0121095 -0.00461742 0)
(-0.0228656 -0.00590716 0)
(-0.0358474 -0.00688657 0)
(-0.0504793 -0.00757241 0)