/*--------------------------------*- C++ -*----------------------------------*\
  =========                 |
  \\      /  F ield         | OpenFOAM: The Open Source CFD Toolbox
   \\    /   O peration     | Website:  https://openfoam.org
    \\  /    A nd           | Version:  7
     \\/     M anipulation  |
\*---------------------------------------------------------------------------*/
FoamFile
{
    version     2.0;
    format      ascii;
    class       volScalarField;
    location    "0.034";
    object      p;
}
// * * * * * * * * * * * * * * * * * * * * * * * * * * * * * * * * * * * * * //

dimensions      [0 2 -2 0 0 0 0];

internalField   nonuniform List<scalar> 
2500
(
-4.57518e-06
-0.000525529
-0.00198272
-0.00407299
-0.00648302
-0.00891122
-0.0111756
-0.0131178
-0.0146216
-0.0156048
-0.0160119
-0.0158093
-0.0149811
-0.0135263
-0.0114566
-0.00879395
-0.00556927
-0.00182102
0.00240591
0.00706112
0.0120895
0.017432
0.0230262
0.0288068
0.0347062
0.040655
0.0465826
0.0524177
0.0580892
0.0635268
0.0686616
0.0734275
0.077762
0.0816073
0.0849119
0.0876316
0.0897315
0.0911873
0.0919876
0.0921357
0.091652
0.0905771
0.0889749
0.0869369
0.0845885
0.0820948
0.0796595
0.077564
0.07613
0.0756504
0.000494142
-1.83856e-05
-0.00119897
-0.00284235
-0.00471342
-0.00661402
-0.00838572
-0.00989749
-0.0110473
-0.011759
-0.0119782
-0.0116699
-0.0108148
-0.00940762
-0.0074548
-0.00497285
-0.0019869
0.00147044
0.00536012
0.00963761
0.0142537
0.019155
0.0242851
0.0295844
0.0349911
0.040442
0.0458724
0.0512174
0.0564122
0.0613933
0.0660985
0.0704686
0.0744482
0.0779866
0.0810391
0.0835686
0.0855464
0.0869544
0.0877863
0.0880494
0.0877668
0.0869794
0.0857482
0.0841572
0.0823161
0.0803624
0.0784612
0.0768083
0.0756468
0.0751705
0.00193925
0.00115264
-3.38685e-05
-0.00151604
-0.00314679
-0.00477611
-0.00627498
-0.00753569
-0.0084711
-0.00901361
-0.00911369
-0.00873797
-0.00786719
-0.0064945
-0.00462391
-0.00226886
0.000549009
0.00380089
0.00745174
0.0114611
0.015784
0.0203714
0.025171
0.0301275
0.0351838
0.0402807
0.0453584
0.0503563
0.0552146
0.0598741
0.0642777
0.068371
0.0721032
0.0754284
0.0783065
0.0807045
0.0825977
0.0839711
0.0848207
0.0851554
0.0849977
0.0843862
0.0833765
0.0820431
0.0804801
0.0788014
0.077141
0.0756509
0.0744847
0.0737367
0.00404513
0.00280207
0.00142397
-8.27143e-05
-0.00165556
-0.00317719
-0.00454377
-0.00566876
-0.00648023
-0.00692076
-0.00694748
-0.00653095
-0.00565384
-0.0043097
-0.0025019
-0.000242401
0.00244923
0.00554666
0.00901766
0.0128248
0.0169263
0.0212764
0.0258261
0.0305236
0.0353153
0.0401455
0.0449579
0.0496956
0.0543021
0.0587221
0.0629019
0.0667905
0.0703406
0.0735094
0.0762598
0.0785614
0.0803915
0.0817366
0.0825934
0.0829699
0.0828868
0.0823783
0.0814933
0.0802957
0.0788644
0.0772924
0.0756887
0.0741736
0.0728165
0.0716289
0.00651692
0.00471487
0.00304837
0.00141672
-0.000198046
-0.00170435
-0.00301961
-0.00407675
-0.00481856
-0.00519828
-0.00518044
-0.0047406
-0.00386445
-0.00254706
-0.000792167
0.00138879
0.00397742
0.00694912
0.0102737
0.0139162
0.0178374
0.0219941
0.0263403
0.0308271
0.0354038
0.0400177
0.0446154
0.0491431
0.0535473
0.0577753
0.0617764
0.0655023
0.0689081
0.0719534
0.074603
0.076828
0.0786068
0.0799264
0.0807827
0.0811823
0.0811426
0.0806929
0.0798746
0.0787412
0.077357
0.0757961
0.0741469
0.0725052
0.0708625
0.06913
0.00911045
0.00671997
0.00470853
0.00288152
0.00115006
-0.000413373
-0.00174327
-0.00278953
-0.00350842
-0.00386335
-0.00382648
-0.0033788
-0.00250973
-0.00121663
0.000495589
0.00261522
0.0051243
0.00799923
0.0112113
0.0147271
0.0185095
0.0225175
0.0267073
0.0310324
0.0354444
0.0398932
0.0443276
0.0486963
0.0529479
0.057032
0.0609
0.0645053
0.067805
0.0707598
0.0733358
0.0755046
0.0772448
0.0785427
0.0793929
0.0797996
0.0797764
0.0793472
0.0785459
0.0774164
0.0760101
0.0743848
0.0726127
0.0707718
0.068785
0.0664715
0.0116633
0.00867913
0.00629055
0.00421965
0.00231635
0.000639931
-0.000757127
-0.00183895
-0.00257363
-0.00293389
-0.00289921
-0.00245617
-0.00159825
-0.000325652
0.00135499
0.00343102
0.00588431
0.00869159
0.0118249
0.0152521
0.0189373
0.0228413
0.0269218
0.0311342
0.0354319
0.0397667
0.0440892
0.0483496
0.0524985
0.0564868
0.0602671
0.0637943
0.0670261
0.0699239
0.072454
0.0745878
0.0763033
0.0775853
0.0784266
0.0788281
0.0787994
0.078359
0.0775338
0.0763589
0.0748748
0.0731261
0.0711731
0.0690819
0.0667166
0.0638156
0.0140465
0.0104782
0.00769677
0.00535083
0.00323761
0.00140792
-9.53575e-05
-0.00124796
-0.00202804
-0.00241661
-0.00239998
-0.00197014
-0.00112477
0.000132816
0.0017938
0.00384417
0.00626506
0.00903304
0.0121204
0.0154957
0.0191238
0.0229665
0.0269829
0.0311297
0.0353614
0.0396312
0.043891
0.0480922
0.0521861
0.0561249
0.0598616
0.0633517
0.0665529
0.0694266
0.0719386
0.0740594
0.0757654
0.0770398
0.0778725
0.0782612
0.0782113
0.0777358
0.0768554
0.0755975
0.0739937
0.072078
0.0699027
0.0675271
0.064765
0.0612838
0.0161631
0.0120242
0.00884301
0.00620221
0.00385299
0.00184133
0.000203422
-0.00104584
-0.00189305
-0.00232648
-0.00233858
-0.00192653
-0.00109217
0.000157936
0.00181253
0.00385587
0.00626798
0.00902481
0.0120985
0.0154577
0.0190677
0.0228909
0.0268872
0.0310139
0.0352265
0.039479
0.0437239
0.0479134
0.0519992
0.0559337
0.0596701
0.0631635
0.0663714
0.0692543
0.0717766
0.0739076
0.0756217
0.0768994
0.0777277
0.0781007
0.0780195
0.0774922
0.0765337
0.0751649
0.0734101
0.0712956
0.0688684
0.0661851
0.0630158
0.0589646
0.0179386
0.0132406
0.00965605
0.0067071
0.0041037
0.00188968
9.67708e-05
-0.00126759
-0.00219705
-0.00268617
-0.00273296
-0.00233944
-0.00151149
-0.000258989
0.0014042
0.00346035
0.00588804
0.00866225
0.0117546
0.0151333
0.0187638
0.0226087
0.0266281
0.0307797
0.0350195
0.0393015
0.0435789
0.0478037
0.0519277
0.0559029
0.0596822
0.0632199
0.0664722
0.0693985
0.0719613
0.0741278
0.0758698
0.077165
0.077997
0.0783561
0.0782391
0.0776494
0.0765969
0.0750971
0.0731684
0.0708312
0.0681302
0.0651218
0.0615378
0.0569239
0.0193128
0.0140621
0.0100709
0.00680395
0.0039332
0.00150226
-0.000459878
-0.0019518
-0.00297308
-0.00352372
-0.00360681
-0.00322885
-0.00239963
-0.00113236
0.000556384
0.00264668
0.0051154
0.00793626
0.0110799
0.0145141
0.0182038
0.0221114
0.0261969
0.0304181
0.0347308
0.0390892
0.0434461
0.0477531
0.0519618
0.0560232
0.0598892
0.0635129
0.0668488
0.0698542
0.0724896
0.0747193
0.0765123
0.0778427
0.0786905
0.0790421
0.07889
0.0782331
0.0770768
0.075432
0.0733126
0.0707348
0.0677427
0.0643949
0.0603878
0.055212
0.0202345
0.0144308
0.0100278
0.0064345
0.00328624
0.00062787
-0.00151312
-0.00314029
-0.00425827
-0.00487192
-0.00498892
-0.00462001
-0.00377879
-0.00248178
-0.000748384
0.00139913
0.0039357
0.00683351
0.010062
0.0135881
0.0173759
0.0213875
0.0255823
0.0299178
0.0343496
0.0388311
0.0433148
0.0477516
0.0520919
0.0562857
0.0602834
0.0640362
0.0674966
0.0706193
0.0733619
0.0756856
0.0775558
0.078943
0.0798231
0.0801782
0.0799966
0.0792729
0.0780082
0.0762097
0.0738875
0.071055
0.0677571
0.0640564
0.0596153
0.0538703
0.0206566
0.0142927
0.0094702
0.00554201
0.00210767
-0.000785921
-0.00311195
-0.0048782
-0.00609384
-0.00676809
-0.00691295
-0.00654322
-0.00567623
-0.00433185
-0.0025324
-0.000302665
0.00233018
0.00533656
0.0086845
0.0123396
0.0162653
0.0204226
0.0247704
0.0292655
0.0338626
0.0385148
0.0431733
0.047788
0.0523081
0.0566819
0.0608579
0.0647849
0.0684129
0.0716936
0.0745811
0.077033
0.0790107
0.0804805
0.0814138
0.0817882
0.0815875
0.0808022
0.0794293
0.0774727
0.0749394
0.0718406
0.0682233
0.0641554
0.0592655
0.0529354
0.0205333
0.0135951
0.00834186
0.00406954
0.000341211
-0.0027936
-0.00530821
-0.00721426
-0.00852507
-0.00925402
-0.00941725
-0.00903356
-0.00812402
-0.00671191
-0.00482258
-0.00248349
0.000275868
0.00342397
0.00692717
0.0107497
0.0148538
0.0191994
0.0237446
0.0284452
0.0332551
0.038126
0.0430083
0.0478505
0.0525999
0.057203
0.0616059
0.0657547
0.0695963
0.0730789
0.0761527
0.078771
0.0808907
0.0824733
0.0834855
0.0838998
0.0836955
0.0828585
0.0813821
0.0792666
0.0765167
0.0731419
0.0691921
0.0647411
0.0593831
0.052443
0.0198175
0.0122839
0.00658537
0.00195837
-0.00207177
-0.00545256
-0.00815722
-0.0102011
-0.0116015
-0.012376
-0.0125448
-0.0121308
-0.0111589
-0.00965585
-0.00765026
-0.00517242
-0.00225429
0.00107043
0.00476628
0.0087959
0.0131201
0.0176978
0.0224857
0.0274387
0.0325095
0.0376487
0.0428051
0.0479257
0.0529557
0.0578396
0.0625205
0.0669416
0.0710461
0.0747781
0.0780836
0.080911
0.083212
0.0849429
0.0860648
0.086545
0.0863575
0.0854836
0.0839124
0.081641
0.0786716
0.0750124
0.0707166
0.0658647
0.0600146
0.0524308
0.0184584
0.0103021
0.00414014
-0.000853542
-0.00519348
-0.00882411
-0.0117185
-0.0138957
-0.0153773
-0.0161849
-0.0163433
-0.0158794
-0.0148221
-0.013202
-0.011051
-0.00840254
-0.0052912
-0.00175301
0.00217455
0.0064524
0.0110398
0.0158944
0.0209716
0.0262251
0.0316063
0.0370645
0.0425469
0.0479986
0.0533628
0.0585813
0.0635942
0.0683413
0.0727617
0.0767951
0.0803823
0.0834665
0.0859935
0.0879135
0.0891817
0.0897594
0.0896147
0.0887237
0.087071
0.0846503
0.081461
0.0775102
0.0728544
0.0675817
0.0612104
0.0529409
0.0164
0.0075876
0.000940895
-0.00443296
-0.00909093
-0.0129744
-0.0160563
-0.01836
-0.0199113
-0.0207366
-0.0208651
-0.0203282
-0.0191592
-0.0173928
-0.0150644
-0.0122108
-0.00886936
-0.00507872
-0.000878488
0.00369041
0.00858565
0.0137633
0.0191777
0.024781
0.0305235
0.036353
0.0422149
0.0480525
0.0538067
0.0594164
0.0648185
0.069949
0.0747425
0.0791337
0.083058
0.0864521
0.0892558
0.0914122
0.0928696
0.0935826
0.0935127
0.09263
0.0909141
0.0883546
0.0849479
0.0806993
0.0756695
0.0699536
0.0630278
0.054022
0.0135794
0.00407203
-0.0030839
-0.00885273
-0.0138371
-0.0179754
-0.0212409
-0.0236615
-0.0252681
-0.026092
-0.0261674
-0.0255309
-0.0242204
-0.0222749
-0.0197339
-0.0166376
-0.0130266
-0.00894218
-0.00442624
0.000478354
0.0057276
0.0112761
0.0170769
0.0230808
0.0292369
0.0354914
0.0417883
0.0480686
0.054271
0.0603315
0.0661835
0.0717587
0.0769871
0.0817979
0.0861201
0.0898839
0.0930215
0.0954684
0.0971652
0.0980584
0.0981021
0.0972596
0.0955042
0.0928208
0.0892023
0.0846517
0.0792334
0.0730504
0.0655321
0.0557317
0.00992535
-0.000320963
-0.00801339
-0.0141931
-0.019512
-0.023906
-0.0273488
-0.0298738
-0.0315176
-0.0323172
-0.0323125
-0.0315456
-0.0300597
-0.0278985
-0.0251062
-0.0217265
-0.0178036
-0.0133815
-0.00850458
-0.0032177
0.00243345
0.00840207
0.0146398
0.0210966
0.0277199
0.0344549
0.0412439
0.048026
0.0547375
0.0613113
0.0676775
0.0737632
0.0794932
0.0847909
0.0895784
0.0937782
0.0973145
0.100114
0.102108
0.103235
0.103439
0.102675
0.100911
0.0981238
0.094303
0.0894485
0.0836278
0.0769522
0.0687995
0.0581384
0.00535714
-0.00567709
-0.0139357
-0.0205429
-0.026204
-0.0308527
-0.034464
-0.0370775
-0.0387364
-0.0394843
-0.0393677
-0.0384349
-0.0367352
-0.0343177
-0.0312311
-0.0275238
-0.0232433
-0.0184369
-0.0131512
-0.0074334
-0.00133064
0.00510889
0.0118357
0.0187987
0.0259445
0.0332168
0.0405568
0.0479018
0.0551857
0.0623387
0.069287
0.0759533
0.0822571
0.088115
0.0934419
0.0981519
0.10216
0.105383
0.107742
0.109164
0.109584
0.108947
0.107211
0.104347
0.100339
0.0951815
0.0889459
0.0817513
0.0729184
0.0613235
-0.000217151
-0.0120928
-0.0209497
-0.0280013
-0.0340112
-0.0389114
-0.0426788
-0.0453604
-0.0470074
-0.047671
-0.0474052
-0.0462658
-0.0443086
-0.0415889
-0.0381609
-0.0340775
-0.0293903
-0.0241496
-0.018405
-0.0122052
-0.00559934
0.00136344
0.00863275
0.0161567
0.0238811
0.0317491
0.0397005
0.0476714
0.0555935
0.0633943
0.0709966
0.0783183
0.0852732
0.0917712
0.0977191
0.103022
0.107584
0.111311
0.114112
0.115902
0.116604
0.116152
0.114491
0.111586
0.107411
0.101956
0.0952945
0.0875542
0.0779922
0.0653831
-0.00690178
-0.0196771
-0.029166
-0.0366789
-0.0430426
-0.0481877
-0.0520946
-0.0548188
-0.0564209
-0.0569612
-0.0565026
-0.0551092
-0.0528447
-0.0497713
-0.0459493
-0.0414367
-0.0362894
-0.0305613
-0.0243043
-0.0175695
-0.010407
-0.00286715
0.00499919
0.0131397
0.0215
0.0300229
0.0386475
0.0473088
0.0559371
0.0644573
0.0727888
0.0808452
0.0885344
0.095759
0.102417
0.108404
0.113613
0.117935
0.121268
0.123512
0.124574
0.124375
0.122849
0.119946
0.115632
0.109891
0.102796
0.0944842
0.0841416
0.0704309
-0.014815
-0.0285527
-0.0387093
-0.0466997
-0.0534196
-0.0587993
-0.0628232
-0.0655578
-0.0670747
-0.0674448
-0.0667417
-0.0650393
-0.0624104
-0.058925
-0.0546503
-0.04965
-0.0439848
-0.0377119
-0.0308862
-0.0235606
-0.0157862
-0.00761411
0.000904811
0.00971836
0.0187724
0.02801
0.0373702
0.0467878
0.0561918
0.0655054
0.0746448
0.0835194
0.0920315
0.100076
0.107543
0.114315
0.120273
0.125296
0.129263
0.132058
0.133574
0.133711
0.13239
0.129546
0.125132
0.119123
0.111593
0.102684
0.0915069
0.0766006
-0.0240907
-0.0388587
-0.0497203
-0.0582032
-0.0652782
-0.0708763
-0.0749878
-0.0776922
-0.0790742
-0.0792178
-0.078209
-0.0761333
-0.0730739
-0.0691102
-0.0643168
-0.0587641
-0.0525176
-0.0456385
-0.0381843
-0.0302094
-0.0217661
-0.0129053
-0.0036775
0.0058658
0.0156715
0.0256837
0.0358423
0.0460824
0.0563328
0.0665154
0.0765441
0.0863247
0.0957535
0.104719
0.1131
0.120768
0.127592
0.133432
0.138151
0.141613
0.14369
0.144265
0.143235
0.14052
0.136058
0.129808
0.121846
0.112319
0.100252
0.0840486
-0.0348805
-0.0507524
-0.0623577
-0.0713463
-0.0787706
-0.0845638
-0.0887244
-0.0913472
-0.0925331
-0.0923819
-0.0909943
-0.0884697
-0.0849033
-0.0803851
-0.0749988
-0.0688216
-0.0619244
-0.0543726
-0.0462262
-0.0375411
-0.0283698
-0.0187628
-0.00876966
0.00155995
0.0121748
0.0230208
0.0340399
0.0451684
0.0563361
0.0674644
0.0784661
0.0892433
0.0996879
0.10968
0.119091
0.127778
0.135595
0.142385
0.14799
0.152252
0.15502
0.15615
0.155518
0.153021
0.148575
0.142126
0.133743
0.12358
0.110566
0.0929578
-0.0473562
-0.0644126
-0.076802
-0.0863064
-0.094068
-0.100024
-0.104183
-0.106659
-0.107573
-0.107044
-0.10519
-0.102127
-0.0979643
-0.0928043
-0.0867405
-0.0798581
-0.0722341
-0.0639376
-0.0550313
-0.045572
-0.0356121
-0.0252009
-0.0143859
-0.00321424
0.00826586
0.0200035
0.0319436
0.0440253
0.0561802
0.068331
0.08039
0.0922574
0.103821
0.114954
0.125517
0.135356
0.144308
0.152196
0.158841
0.164057
0.167665
0.169493
0.169388
0.167217
0.162874
0.15628
0.147499
0.136688
0.122671
0.103541
-0.0617131
-0.0800431
-0.0932587
-0.103285
-0.111363
-0.117437
-0.121528
-0.123776
-0.124325
-0.123316
-0.12089
-0.117182
-0.112318
-0.106415
-0.0995776
-0.0918997
-0.0834645
-0.0743454
-0.064607
-0.0543068
-0.0434963
-0.0322225
-0.02053
-0.00846206
0.00393728
0.0166217
0.0295407
0.0426376
0.0558477
0.0690964
0.0822969
0.0953491
0.108137
0.120529
0.132376
0.143512
0.153755
0.162908
0.170765
0.177113
0.181737
0.184433
0.18501
0.183303
0.17917
0.172507
0.163365
0.151902
0.136824
0.116048
-0.0781734
-0.0978775
-0.111963
-0.122513
-0.130876
-0.137006
-0.140944
-0.142859
-0.142925
-0.141311
-0.138185
-0.133705
-0.128017
-0.121254
-0.113533
-0.104958
-0.095619
-0.0855925
-0.0749454
-0.0637348
-0.0520104
-0.039816
-0.0271919
-0.0141761
-0.00080683
0.0128758
0.0268275
0.0409977
0.0553272
0.069746
0.0841706
0.0985019
0.112623
0.126397
0.139667
0.152254
0.163959
0.174562
0.183828
0.19151
0.197357
0.201122
0.20257
0.201493
0.197708
0.191076
0.181628
0.16952
0.153325
0.130767
-0.0969927
-0.118186
-0.133188
-0.144254
-0.152855
-0.158959
-0.162633
-0.164082
-0.163518
-0.161146
-0.157165
-0.151761
-0.145104
-0.137344
-0.128614
-0.119028
-0.108681
-0.0976558
-0.0860187
-0.0738258
-0.0611238
-0.047952
-0.0343446
-0.020333
-0.00594772
0.00877916
0.0238117
0.0391075
0.0546153
0.0702718
0.085999
0.101701
0.117263
0.132545
0.147383
0.161587
0.174939
0.187196
0.198092
0.207343
0.214653
0.219725
0.222272
0.222032
0.218771
0.2123
0.202625
0.189892
0.172527
0.148039
-0.118466
-0.141282
-0.157251
-0.168816
-0.177587
-0.183553
-0.186817
-0.187631
-0.186253
-0.182933
-0.177909
-0.171399
-0.163601
-0.154687
-0.144804
-0.134078
-0.122611
-0.110488
-0.0977746
-0.0845257
-0.0707828
-0.0565789
-0.0419405
-0.0268902
-0.011449
0.0043613
0.0205154
0.0369815
0.0537186
0.0706732
0.0877757
0.104937
0.122045
0.138961
0.155516
0.171511
0.18671
0.200846
0.213621
0.224707
0.233759
0.240422
0.244344
0.245197
0.242679
0.236541
0.226747
0.213429
0.194843
0.16826
-0.142938
-0.167537
-0.184525
-0.196557
-0.205402
-0.211082
-0.213746
-0.213707
-0.211284
-0.206782
-0.200484
-0.19265
-0.183509
-0.173257
-0.162058
-0.150048
-0.137337
-0.12401
-0.110132
-0.0957523
-0.0809067
-0.0656197
-0.0499079
-0.0337829
-0.0172539
-0.000329878
0.0169768
0.034648
0.0526558
0.0709595
0.0895013
0.108202
0.126957
0.145632
0.164056
0.182022
0.199282
0.215543
0.230473
0.243699
0.254818
0.263407
0.269037
0.271298
0.269801
0.264217
0.254456
0.240618
0.220764
0.1919
-0.170816
-0.197393
-0.215455
-0.2279
-0.236686
-0.241878
-0.243693
-0.242522
-0.238763
-0.232786
-0.224935
-0.215517
-0.204796
-0.192994
-0.180294
-0.166842
-0.152752
-0.138108
-0.122974
-0.10739
-0.091384
-0.0749685
-0.0581483
-0.0409216
-0.0232828
-0.00522589
0.0132529
0.0321515
0.0514588
0.0711502
0.0911837
0.111494
0.131989
0.152541
0.172985
0.19311
0.212656
0.231308
0.248699
0.26441
0.277972
0.288884
0.296626
0.300683
0.300561
0.295821
0.286296
0.272035
0.250874
0.219517
-0.202592
-0.231386
-0.25058
-0.263353
-0.271888
-0.276322
-0.276958
-0.274296
-0.268832
-0.261022
-0.251279
-0.239966
-0.227387
-0.213794
-0.199385
-0.184317
-0.168704
-0.152629
-0.136147
-0.119289
-0.102069
-0.084488
-0.0665344
-0.04819
-0.0294322
-0.0102366
0.00941926
0.029553
0.0501734
0.071276
0.0928387
0.114815
0.13713
0.159671
0.182281
0.204753
0.226819
0.248147
0.268339
0.286922
0.303363
0.317068
0.327409
0.333745
0.335442
0.331924
0.322911
0.308375
0.285877
0.251779
-0.238864
-0.270176
-0.29056
-0.303526
-0.311542
-0.314846
-0.31387
-0.309255
-0.301621
-0.291533
-0.279489
-0.265913
-0.251156
-0.235497
-0.219151
-0.202279
-0.184994
-0.16737
-0.149452
-0.131256
-0.112781
-0.0940081
-0.074909
-0.0554454
-0.0355744
-0.0152506
0.00557056
0.0269294
0.0488583
0.0713772
0.0944883
0.11817
0.14237
0.166997
0.19191
0.216913
0.24174
0.266047
0.289407
0.311301
0.331121
0.348175
0.361706
0.370918
0.375005
0.373203
0.365076
0.350478
0.326632
0.289495
-0.280379
-0.314592
-0.336214
-0.349164
-0.356278
-0.357948
-0.354784
-0.347616
-0.337227
-0.324315
-0.309476
-0.293208
-0.275907
-0.257877
-0.239346
-0.220473
-0.201364
-0.18208
-0.162646
-0.143061
-0.123301
-0.103327
-0.0830865
-0.0625197
-0.0415597
-0.0201371
0.00181771
0.0243712
0.047583
0.0715015
0.0961584
0.121562
0.147691
0.174482
0.201822
0.229532
0.25736
0.284962
0.311889
0.33758
0.361354
0.382411
0.399847
0.412681
0.419885
0.420453
0.413726
0.399377
0.374198
0.33366
-0.328088
-0.365694
-0.38858
-0.401191
-0.406852
-0.406191
-0.400072
-0.389576
-0.375698
-0.359292
-0.341074
-0.321616
-0.301358
-0.280625
-0.259648
-0.238577
-0.217499
-0.196453
-0.17544
-0.154431
-0.133377
-0.112211
-0.0908559
-0.0692233
-0.0472203
-0.0247505
-0.00171615
0.0219782
0.0464231
0.0716994
0.0978736
0.124991
0.153066
0.182075
0.211941
0.24252
0.273584
0.304801
0.335719
0.365744
0.394127
0.419956
0.442165
0.459551
0.47081
0.474616
0.469998
0.456353
0.429905
0.385516
-0.38323
-0.424864
-0.448989
-0.460752
-0.464164
-0.460208
-0.45011
-0.435286
-0.416997
-0.396289
-0.374004
-0.35079
-0.327124
-0.303339
-0.279653
-0.256194
-0.233018
-0.210131
-0.187499
-0.165059
-0.142727
-0.120407
-0.0979872
-0.0753514
-0.0523766
-0.0289363
-0.00490232
0.0198529
0.0454538
0.0720179
0.0996509
0.128441
0.158448
0.189697
0.222161
0.255743
0.290259
0.325412
0.360762
0.395703
0.429434
0.460936
0.488966
0.512068
0.528595
0.536803
0.535285
0.52302
0.495451
0.446645
-0.447464
-0.493946
-0.519178
-0.529289
-0.529283
-0.520689
-0.505243
-0.484805
-0.460965
-0.434987
-0.407843
-0.380248
-0.352695
-0.325504
-0.298861
-0.272848
-0.247477
-0.222705
-0.198449
-0.174605
-0.151047
-0.127641
-0.10424
-0.0806934
-0.0568467
-0.0325411
-0.00761548
0.0180918
0.0447416
0.0724912
0.101491
0.131876
0.163763
0.197234
0.232326
0.269008
0.307164
0.346552
0.38678
0.427259
0.46716
0.505377
0.540492
0.570765
0.594137
0.608322
0.611307
0.601439
0.573049
0.519108
-0.523073
-0.575457
-0.601442
-0.608618
-0.603469
-0.588358
-0.565737
-0.538041
-0.507252
-0.474868
-0.441979
-0.409335
-0.377413
-0.346485
-0.316673
-0.287989
-0.260375
-0.233722
-0.207888
-0.182712
-0.158022
-0.133638
-0.109374
-0.0850442
-0.060458
-0.0354232
-0.00974503
0.0167738
0.0443325
0.0731307
0.103366
0.135228
0.168895
0.204519
0.242217
0.282045
0.323976
0.367864
0.413399
0.460055
0.507022
0.553145
0.596853
0.636113
0.668385
0.690694
0.700193
0.694279
0.665647
0.605663
-0.61331
-0.672913
-0.698858
-0.701021
-0.688161
-0.663903
-0.631679
-0.594649
-0.555232
-0.515147
-0.475557
-0.43719
-0.400452
-0.365515
-0.332392
-0.300993
-0.271161
-0.242701
-0.215396
-0.18902
-0.163342
-0.138134
-0.113169
-0.0882194
-0.063061
-0.0374669
-0.011208
0.0159487
0.044241
0.0739121
0.105209
0.138382
0.173675
0.211324
0.251537
0.294482
0.340253
0.388837
0.440058
0.493515
0.54849
0.603849
0.657928
0.708424
0.752268
0.785644
0.804576
0.805047
0.777269
0.710136
-0.72299
-0.791344
-0.815584
-0.809338
-0.784924
-0.747841
-0.702825
-0.653887
-0.603882
-0.55468
-0.50742
-0.462713
-0.420803
-0.381692
-0.34523
-0.311179
-0.279254
-0.24915
-0.22056
-0.193181
-0.16672
-0.140896
-0.115434
-0.0900709
-0.0645448
-0.0385959
-0.0119623
0.0156234
0.0444371
0.0747649
0.106905
0.141167
0.17787
0.217339
0.259893
0.305829
0.355398
0.408765
0.465955
0.526771
0.590689
0.656713
0.723206
0.78768
0.846558
0.895039
0.927681
0.938394
0.91356
0.838047
-0.85958
-0.938114
-0.957255
-0.937005
-0.895281
-0.840274
-0.778345
-0.714402
-0.651626
-0.591862
-0.536051
-0.484533
-0.437268
-0.393993
-0.354326
-0.317833
-0.284066
-0.252592
-0.222995
-0.19489
-0.167917
-0.141737
-0.116033
-0.0905027
-0.0648508
-0.0387869
-0.0120189
0.0157521
0.0448367
0.0755617
0.108274
0.143345
0.18117
0.222169
0.266782
0.315458
0.368637
0.426714
0.489985
0.558566
0.632263
0.710397
0.791556
0.873275
0.951597
1.02071
1.07336
1.10052
1.08263
0.997766
-1.03528
-1.12422
-1.13144
-1.08796
-1.02034
-0.940458
-0.85645
-0.77395
-0.696141
-0.624512
-0.559517
-0.501001
-0.448477
-0.401301
-0.358784
-0.320244
-0.285043
-0.252597
-0.222376
-0.193906
-0.166758
-0.140542
-0.114897
-0.0894863
-0.0639864
-0.0380804
-0.0114511
0.0162271
0.0452945
0.076114
0.109077
0.144612
0.183189
0.225325
0.271588
0.322596
0.379004
0.441487
0.510694
0.587171
0.671237
0.762772
0.860914
0.963596
1.06685
1.16405
1.24597
1.29964
1.29639
1.20271
-1.27124
-1.36632
-1.34797
-1.26608
-1.16002
-1.04605
-0.933808
-0.829004
-0.734139
-0.649773
-0.575445
-0.510207
-0.452927
-0.402457
-0.357724
-0.317757
-0.281705
-0.248823
-0.218469
-0.190079
-0.163162
-0.13728
-0.112038
-0.087071
-0.0620325
-0.036587
-0.0103985
0.0168775
0.0456043
0.0761726
0.109011
0.144598
0.18347
0.226237
0.273595
0.326333
0.385343
0.451619
0.526236
0.610302
0.704851
0.810646
0.92784
1.05539
1.19007
1.32517
1.44981
1.54626
1.57262
1.47585
-1.60637
-1.68967
-1.61834
-1.47353
-1.31123
-1.1517
-1.0046
-0.874199
-0.761079
-0.663999
-0.581011
-0.510019
-0.449043
-0.396319
-0.350335
-0.309812
-0.273679
-0.241042
-0.211149
-0.183365
-0.157144
-0.132015
-0.107556
-0.0833854
-0.0591437
-0.0344851
-0.00906456
0.0174729
0.0455031
0.0754346
0.107722
0.142879
0.181499
0.22427
0.272
0.325643
0.386328
0.455383
0.534363
0.625045
0.729391
0.849416
0.986891
1.14274
1.31581
1.50097
1.68724
1.85256
1.93801
1.85881
-2.1126
-2.1319
-1.95392
-1.70764
-1.46523
-1.24727
-1.05954
-0.9019
-0.77107
-0.662829
-0.57308
-0.49824
-0.435318
-0.381883
-0.335975
-0.296022
-0.260764
-0.229178
-0.200434
-0.173844
-0.148832
-0.124906
-0.101636
-0.0786343
-0.0555413
-0.0320121
-0.00770331
0.0177389
0.0446913
0.073567
0.104831
0.139016
0.17675
0.218773
0.265983
0.319466
0.380557
0.450902
0.532533
0.627953
0.740208
0.872912
1.03014
1.21602
1.43353
1.68236
1.95555
2.2305
2.43168
2.4271
-2.92062
-2.74305
-2.3623
-1.95884
-1.60649
-1.31772
-1.08653
-0.903246
-0.757993
-0.642227
-0.549106
-0.473345
-0.410918
-0.358764
-0.314548
-0.276478
-0.24316
-0.2135
-0.186628
-0.161838
-0.13855
-0.116275
-0.0945907
-0.0731201
-0.0515167
-0.0294489
-0.00658704
0.0174094
0.0429045
0.0703008
0.100055
0.1327
0.168866
0.209318
0.254993
0.307061
0.366998
0.436692
0.518582
0.615844
0.732635
0.874383
1.04809
1.26244
1.52747
1.85308
2.24449
2.68772
3.10455
3.3149
-4.32707
-3.56348
-2.81919
-2.19367
-1.70448
-1.33922
-1.06925
-0.867964
-0.715767
-0.598832
-0.507422
-0.43469
-0.375791
-0.327246
-0.286518
-0.251723
-0.22144
-0.194576
-0.170276
-0.147861
-0.126777
-0.106563
-0.0868242
-0.0672112
-0.047404
-0.0270971
-0.00598687
0.016241
0.0399245
0.0654393
0.0932153
0.123757
0.157672
0.1957
0.238768
0.288047
0.345054
0.411779
0.490888
0.586012
0.702188
0.84651
1.02905
1.26408
1.57182
1.97997
2.51834
3.19754
3.99667
4.82687
-7.16169
-4.56223
-3.14349
-2.25791
-1.65148
-1.24178
-0.96335
-0.767972
-0.626278
-0.520571
-0.439663
-0.376251
-0.325448
-0.283889
-0.249191
-0.219624
-0.193902
-0.17105
-0.15031
-0.131088
-0.1129
-0.0953475
-0.0780892
-0.0608252
-0.0432808
-0.0251935
-0.00630171
0.0136655
0.0350015
0.0580338
0.0831392
0.110762
0.14144
0.175834
0.214772
0.259317
0.310852
0.371226
0.442963
0.529604
0.63626
0.770543
0.944104
1.17532
1.49459
1.95219
2.61763
3.57554
5.08038
7.79878
-12.03
-5.64503
-2.9793
-1.88144
-1.2857
-0.932467
-0.714298
-0.569825
-0.467812
-0.392437
-0.334836
-0.289593
-0.253198
-0.223267
-0.198107
-0.176486
-0.157479
-0.140381
-0.124642
-0.109825
-0.0955768
-0.0816043
-0.0676562
-0.0535105
-0.0389629
-0.0238172
-0.0078773
0.00906331
0.027228
0.0468677
0.0682719
0.0917825
0.117811
0.146862
0.179563
0.216714
0.259347
0.308828
0.367008
0.436478
0.521008
0.626359
0.761875
0.943986
1.20468
1.60783
2.26997
3.46275
6.24539
12.7558
)
;

boundaryField
{
    movingWall
    {
        type            zeroGradient;
    }
    fixedWalls
    {
        type            zeroGradient;
    }
    frontAndBack
    {
        type            empty;
    }
}


// ************************************************************************* //
