/*--------------------------------*- C++ -*----------------------------------*\
  =========                 |
  \\      /  F ield         | OpenFOAM: The Open Source CFD Toolbox
   \\    /   O peration     | Website:  https://openfoam.org
    \\  /    A nd           | Version:  7
     \\/     M anipulation  |
\*---------------------------------------------------------------------------*/
FoamFile
{
    version     2.0;
    format      ascii;
    class       surfaceScalarField;
    location    "0.034";
    object      phi;
}
// * * * * * * * * * * * * * * * * * * * * * * * * * * * * * * * * * * * * * //

dimensions      [0 3 -1 0 0 0 0];

internalField   nonuniform List<scalar> 
4900
(
9.3891e-10
-9.36325e-10
1.778e-09
-8.39016e-10
1.59816e-09
1.79812e-10
1.10537e-10
1.48761e-09
-2.70614e-09
2.81671e-09
-6.76701e-09
4.06087e-09
-1.19157e-08
5.14865e-09
-1.79722e-08
6.05647e-09
-2.47512e-08
6.77905e-09
-3.20703e-08
7.31912e-09
-3.97541e-08
7.68374e-09
-4.76365e-08
7.88243e-09
-5.55626e-08
7.92607e-09
-6.33889e-08
7.82625e-09
-7.09836e-08
7.5948e-09
-7.82273e-08
7.2436e-09
-8.50117e-08
6.7844e-09
-9.12404e-08
6.22872e-09
-9.68282e-08
5.58779e-09
-1.01701e-07
4.8726e-09
-1.05795e-07
4.09385e-09
-1.09057e-07
3.2621e-09
-1.11445e-07
2.38779e-09
-1.12926e-07
1.48137e-09
-1.13479e-07
5.53381e-10
-1.13094e-07
-3.85439e-10
-1.1177e-07
-1.32407e-09
-1.09519e-07
-2.25113e-09
-1.06364e-07
-3.15479e-09
-1.02341e-07
-4.02278e-09
-9.74987e-08
-4.84236e-09
-9.18984e-08
-5.60032e-09
-8.56153e-08
-6.28313e-09
-7.87383e-08
-6.87696e-09
-7.13705e-08
-7.36786e-09
-6.36285e-08
-7.74196e-09
-5.56429e-08
-7.98564e-09
-4.7557e-08
-8.08586e-09
-3.95266e-08
-8.0304e-09
-3.17184e-08
-7.80827e-09
-2.43082e-08
-7.41019e-09
-1.74789e-08
-6.82924e-09
-1.14169e-08
-6.06198e-09
-6.30664e-09
-5.1103e-09
-2.32142e-09
-3.98522e-09
3.94503e-10
-2.71593e-09
1.76463e-09
-1.37013e-09
1.84462e-09
-7.99688e-11
9.43561e-10
9.01115e-10
9.43617e-10
8.53061e-10
-1.78931e-09
6.00407e-10
-5.86402e-10
-2.05454e-09
2.83472e-09
-7.69097e-09
7.12405e-09
-1.64413e-08
1.15671e-08
-2.8151e-08
1.57705e-08
-4.25179e-08
1.95155e-08
-5.91528e-08
2.26914e-08
-7.76247e-08
2.52509e-08
-9.74885e-08
2.71828e-08
-1.18302e-07
2.84975e-08
-1.39639e-07
2.92187e-08
-1.61091e-07
2.93783e-08
-1.82278e-07
2.90132e-08
-2.02846e-07
2.81631e-08
-2.22472e-07
2.68691e-08
-2.4086e-07
2.5173e-08
-2.57748e-07
2.31164e-08
-2.72901e-07
2.07405e-08
-2.86114e-07
1.8086e-08
-2.97213e-07
1.51931e-08
-3.06053e-07
1.21015e-08
-3.12516e-07
8.85066e-09
-3.16515e-07
5.48025e-09
-3.17992e-07
2.03026e-09
-3.16918e-07
-1.45861e-09
-3.13298e-07
-4.94467e-09
-3.07164e-07
-8.38498e-09
-2.98583e-07
-1.17352e-08
-2.87657e-07
-1.49495e-08
-2.74519e-07
-1.79805e-08
-2.59339e-07
-2.07795e-08
-2.42326e-07
-2.32969e-08
-2.2372e-07
-2.54824e-08
-2.03803e-07
-2.72856e-08
-1.82887e-07
-2.8657e-08
-1.61324e-07
-2.95488e-08
-1.39494e-07
-2.99159e-08
-1.17807e-07
-2.97176e-08
-9.66962e-08
-2.89192e-08
-7.66122e-08
-2.74942e-08
-5.80136e-08
-2.54278e-08
-4.13539e-08
-2.27216e-08
-2.70626e-08
-1.94017e-08
-1.55158e-08
-1.5532e-08
-6.99191e-09
-1.12399e-08
-1.60214e-09
-6.75994e-09
8.22885e-10
-2.5051e-09
9.13306e-10
8.10553e-10
1.85695e-09
-1.29814e-10
-1.65952e-09
-2.73789e-09
2.02166e-09
-9.05613e-09
9.15299e-09
-1.96481e-08
1.7716e-08
-3.46362e-08
2.65551e-08
-5.38265e-08
3.49609e-08
-7.68173e-08
4.25063e-08
-1.03078e-07
4.89523e-08
-1.32006e-07
5.41786e-08
-1.62963e-07
5.814e-08
-1.95306e-07
6.08401e-08
-2.28401e-07
6.23141e-08
-2.61641e-07
6.26181e-08
-2.94449e-07
6.18216e-08
-3.26288e-07
6.00023e-08
-3.56662e-07
5.72431e-08
-3.85119e-07
5.36296e-08
-4.11251e-07
4.92482e-08
-4.34696e-07
4.41855e-08
-4.55137e-07
3.85276e-08
-4.72304e-07
3.236e-08
-4.8597e-07
2.57677e-08
-4.95955e-07
1.88356e-08
-5.02124e-07
1.16491e-08
-5.04388e-07
4.29402e-09
-5.02705e-07
-3.1419e-09
-4.9708e-07
-1.05691e-08
-4.8757e-07
-1.78956e-08
-4.74278e-07
-2.50266e-08
-4.57363e-07
-3.18643e-08
-4.37036e-07
-3.83083e-08
-4.1356e-07
-4.42556e-08
-3.87255e-07
-4.96018e-08
-3.58496e-07
-5.42414e-08
-3.27711e-07
-5.80699e-08
-2.95383e-07
-6.09851e-08
-2.62043e-07
-6.28893e-08
-2.28266e-07
-6.36921e-08
-1.9467e-07
-6.33138e-08
-1.619e-07
-6.16893e-08
-1.30621e-07
-5.87732e-08
-1.01501e-07
-5.45479e-08
-7.51894e-08
-4.90333e-08
-5.22878e-08
-4.23032e-08
-3.33097e-08
-3.45101e-08
-1.86236e-08
-2.59259e-08
-8.37505e-09
-1.70085e-08
-2.38635e-09
-8.49377e-09
-2.87848e-11
-1.54708e-09
1.82817e-09
-1.39261e-09
-2.66935e-10
-6.95442e-09
7.58351e-09
-1.75467e-08
1.97453e-08
-3.35613e-08
3.37306e-08
-5.50142e-08
4.8008e-08
-8.16225e-08
6.15692e-08
-1.12887e-07
7.37708e-08
-1.48162e-07
8.42271e-08
-1.8671e-07
9.27262e-08
-2.27744e-07
9.91747e-08
-2.70464e-07
1.0356e-07
-3.14073e-07
1.05923e-07
-3.578e-07
1.06345e-07
-4.00911e-07
1.04932e-07
-4.42715e-07
1.01807e-07
-4.82573e-07
9.71014e-08
-5.199e-07
9.09565e-08
-5.54167e-07
8.35148e-08
-5.84902e-07
7.49207e-08
-6.11693e-07
6.53188e-08
-6.34187e-07
5.48535e-08
-6.52088e-07
4.36688e-08
-6.65161e-07
3.1909e-08
-6.73231e-07
1.9719e-08
-6.76183e-07
7.24548e-09
-6.73962e-07
-5.36259e-09
-6.66578e-07
-1.79529e-08
-6.54105e-07
-3.03691e-08
-6.36681e-07
-4.24506e-08
-6.14512e-07
-5.40324e-08
-5.87876e-07
-6.49451e-08
-5.57116e-07
-7.50158e-08
-5.22648e-07
-8.40695e-08
-4.84958e-07
-9.19308e-08
-4.44602e-07
-9.84261e-08
-4.022e-07
-1.03387e-07
-3.58434e-07
-1.06655e-07
-3.14043e-07
-1.08084e-07
-2.69808e-07
-1.07548e-07
-2.26549e-07
-1.04949e-07
-1.851e-07
-1.00222e-07
-1.46293e-07
-9.33544e-08
-1.10932e-07
-8.43951e-08
-7.97517e-08
-7.34831e-08
-5.33814e-08
-6.08804e-08
-3.22827e-08
-4.70247e-08
-1.66828e-08
-3.26083e-08
-6.49648e-09
-1.86801e-08
-1.24994e-09
-6.79365e-09
5.78231e-10
-2.70893e-09
2.442e-09
-1.14332e-08
1.63078e-08
-2.65699e-08
3.48819e-08
-4.82378e-08
5.53984e-08
-7.62698e-08
7.604e-08
-1.10248e-07
9.55478e-08
-1.49558e-07
1.13081e-07
-1.93439e-07
1.28108e-07
-2.41035e-07
1.40322e-07
-2.91435e-07
1.49575e-07
-3.43707e-07
1.55831e-07
-3.96922e-07
1.59138e-07
-4.50175e-07
1.59598e-07
-5.02599e-07
1.57357e-07
-5.53379e-07
1.52587e-07
-6.01756e-07
1.45478e-07
-6.47031e-07
1.36231e-07
-6.88573e-07
1.25057e-07
-7.2582e-07
1.12168e-07
-7.58278e-07
9.77763e-08
-7.85522e-07
8.20974e-08
-8.07199e-07
6.53458e-08
-8.23027e-07
4.77369e-08
-8.32795e-07
2.94875e-08
-8.36367e-07
1.08169e-08
-8.33677e-07
-8.05184e-09
-8.24739e-07
-2.68911e-08
-8.09641e-07
-4.54676e-08
-7.88549e-07
-6.35419e-08
-7.61713e-07
-8.08682e-08
-7.29463e-07
-9.71952e-08
-6.92212e-07
-1.12267e-07
-6.50457e-07
-1.25825e-07
-6.04778e-07
-1.3761e-07
-5.55834e-07
-1.4737e-07
-5.04364e-07
-1.54857e-07
-4.51176e-07
-1.59843e-07
-3.97141e-07
-1.62119e-07
-3.43181e-07
-1.61508e-07
-2.90256e-07
-1.57873e-07
-2.39342e-07
-1.51136e-07
-1.91409e-07
-1.41288e-07
-1.47388e-07
-1.28416e-07
-1.08138e-07
-1.12733e-07
-7.44028e-08
-9.4616e-08
-4.67569e-08
-7.46706e-08
-2.55572e-08
-5.38081e-08
-1.08906e-08
-3.33467e-08
-2.54184e-09
-1.51424e-08
-1.96361e-09
-3.98492e-09
6.42694e-09
-1.58771e-08
2.81999e-08
-3.56175e-08
5.46224e-08
-6.30042e-08
8.27852e-08
-9.76398e-08
1.10676e-07
-1.38934e-07
1.36842e-07
-1.86131e-07
1.60278e-07
-2.38348e-07
1.80324e-07
-2.9461e-07
1.96585e-07
-3.53892e-07
2.08857e-07
-4.15144e-07
2.17084e-07
-4.77324e-07
2.21317e-07
-5.39412e-07
2.21687e-07
-6.00432e-07
2.18377e-07
-6.59461e-07
2.11615e-07
-7.15638e-07
2.01654e-07
-7.68172e-07
1.88765e-07
-8.16345e-07
1.73231e-07
-8.59517e-07
1.55339e-07
-8.97124e-07
1.35384e-07
-9.28683e-07
1.13657e-07
-9.53792e-07
9.04542e-08
-9.72127e-07
6.60722e-08
-9.83449e-07
4.08096e-08
-9.87601e-07
1.49687e-08
-9.84509e-07
-1.11432e-08
-9.74188e-07
-3.72125e-08
-9.56738e-07
-6.2918e-08
-9.32349e-07
-8.79304e-08
-9.01305e-07
-1.11912e-07
-8.63981e-07
-1.34519e-07
-8.20847e-07
-1.55401e-07
-7.72469e-07
-1.74203e-07
-7.19503e-07
-1.90576e-07
-6.627e-07
-2.04173e-07
-6.02894e-07
-2.14663e-07
-5.41002e-07
-2.21736e-07
-4.78007e-07
-2.25114e-07
-4.14952e-07
-2.24563e-07
-3.52917e-07
-2.19909e-07
-2.93001e-07
-2.11051e-07
-2.36299e-07
-1.97991e-07
-1.83863e-07
-1.80852e-07
-1.36675e-07
-1.5992e-07
-9.5604e-08
-1.35687e-07
-6.13649e-08
-1.0891e-07
-3.44818e-08
-8.06912e-08
-1.52616e-08
-5.25669e-08
-3.79294e-09
-2.66111e-08
-5.75656e-09
-5.18499e-09
1.16119e-08
-2.01616e-08
4.31766e-08
-4.44526e-08
7.89134e-08
-7.75281e-08
1.15861e-07
-1.18736e-07
1.51884e-07
-1.67287e-07
1.85393e-07
-2.22264e-07
2.15254e-07
-2.82643e-07
2.40704e-07
-3.47328e-07
2.6127e-07
-4.15177e-07
2.76706e-07
-4.85033e-07
2.8694e-07
-5.55747e-07
2.92031e-07
-6.26198e-07
2.92138e-07
-6.95313e-07
2.87492e-07
-7.62076e-07
2.78379e-07
-8.25542e-07
2.6512e-07
-8.84838e-07
2.48062e-07
-9.39175e-07
2.27567e-07
-9.87844e-07
2.04009e-07
-1.03023e-06
1.77765e-07
-1.06579e-06
1.49216e-07
-1.09408e-06
1.18747e-07
-1.11475e-06
8.67418e-08
-1.12753e-06
5.35902e-08
-1.13225e-06
1.96858e-08
-1.12882e-06
-1.45712e-08
-1.11726e-06
-4.87722e-08
-1.09768e-06
-8.24995e-08
-1.07028e-06
-1.15325e-07
-1.03538e-06
-1.4681e-07
-9.93397e-07
-1.76507e-07
-9.44836e-07
-2.03961e-07
-8.90323e-07
-2.28716e-07
-8.30581e-07
-2.50317e-07
-7.66436e-07
-2.68318e-07
-6.98807e-07
-2.82292e-07
-6.287e-07
-2.91842e-07
-5.57201e-07
-2.96613e-07
-4.85456e-07
-2.96308e-07
-4.14656e-07
-2.90708e-07
-3.46018e-07
-2.7969e-07
-2.80752e-07
-2.63257e-07
-2.20037e-07
-2.41567e-07
-1.64985e-07
-2.14973e-07
-1.16605e-07
-1.84066e-07
-7.57769e-08
-1.49738e-07
-4.32193e-08
-1.13249e-07
-1.94837e-08
-7.63025e-08
-4.97043e-09
-4.11244e-08
-1.0727e-08
-6.30902e-09
1.79209e-08
-2.42589e-08
6.11265e-08
-5.30037e-08
1.07658e-07
-9.16971e-08
1.54554e-07
-1.39425e-07
1.99612e-07
-1.95182e-07
2.4115e-07
-2.5787e-07
2.77942e-07
-3.26314e-07
3.09148e-07
-3.99284e-07
3.3424e-07
-4.75519e-07
3.52941e-07
-5.53751e-07
3.65172e-07
-6.32731e-07
3.7101e-07
-7.11243e-07
3.7065e-07
-7.88127e-07
3.64375e-07
-8.62284e-07
3.52536e-07
-9.32693e-07
3.35529e-07
-9.98412e-07
3.13781e-07
-1.05859e-06
2.87745e-07
-1.11246e-06
2.57881e-07
-1.15936e-06
2.24662e-07
-1.1987e-06
1.88562e-07
-1.23002e-06
1.50059e-07
-1.25291e-06
1.09635e-07
-1.2671e-06
6.77767e-08
-1.27239e-06
2.49753e-08
-1.26869e-06
-1.82691e-08
-1.25601e-06
-6.1446e-08
-1.23448e-06
-1.04034e-07
-1.20431e-06
-1.45497e-07
-1.16583e-06
-1.85289e-07
-1.11948e-06
-2.22851e-07
-1.06583e-06
-2.57617e-07
-1.00553e-06
-2.89015e-07
-9.39368e-07
-3.16479e-07
-8.68231e-07
-3.39455e-07
-7.93112e-07
-3.57412e-07
-7.15099e-07
-3.69855e-07
-6.35369e-07
-3.76344e-07
-5.55164e-07
-3.76513e-07
-4.75785e-07
-3.70087e-07
-3.98558e-07
-3.56917e-07
-3.24816e-07
-3.36998e-07
-2.55869e-07
-3.10514e-07
-1.92972e-07
-2.77871e-07
-1.37293e-07
-2.39745e-07
-8.98928e-08
-1.97138e-07
-5.17042e-08
-1.51437e-07
-2.35313e-08
-1.04475e-07
-6.07448e-09
-5.85812e-08
-1.68015e-08
-7.37042e-09
2.52914e-08
-2.81903e-08
8.19464e-08
-6.12917e-08
1.4076e-07
-1.05531e-07
1.98794e-07
-1.59733e-07
2.53814e-07
-2.22667e-07
3.04084e-07
-2.93043e-07
3.48318e-07
-3.69519e-07
3.85624e-07
-4.50722e-07
4.15442e-07
-5.35263e-07
4.37482e-07
-6.21763e-07
4.51672e-07
-7.08869e-07
4.58117e-07
-7.95276e-07
4.57057e-07
-8.79739e-07
4.48838e-07
-9.61086e-07
4.33882e-07
-1.03822e-06
4.12668e-07
-1.11016e-06
3.85713e-07
-1.17597e-06
3.5356e-07
-1.23486e-06
3.1677e-07
-1.28611e-06
2.75911e-07
-1.32911e-06
2.31559e-07
-1.36334e-06
1.84292e-07
-1.3884e-06
1.34694e-07
-1.40398e-06
8.33529e-08
-1.40986e-06
3.08639e-08
-1.40597e-06
-2.21676e-08
-1.39229e-06
-7.51239e-08
-1.36895e-06
-1.27373e-07
-1.33618e-06
-1.78268e-07
-1.29432e-06
-2.27145e-07
-1.24384e-06
-2.73328e-07
-1.18533e-06
-3.1613e-07
-1.11949e-06
-3.5486e-07
-1.04713e-06
-3.8883e-07
-9.69223e-07
-4.17367e-07
-8.86809e-07
-4.39826e-07
-8.01056e-07
-4.55608e-07
-7.13223e-07
-4.64177e-07
-6.24652e-07
-4.65084e-07
-5.36745e-07
-4.57994e-07
-4.50946e-07
-4.42715e-07
-3.68718e-07
-4.19227e-07
-2.91508e-07
-3.87723e-07
-2.20729e-07
-3.4865e-07
-1.57725e-07
-3.02749e-07
-1.03753e-07
-2.5111e-07
-5.99687e-08
-1.95221e-07
-2.74304e-08
-1.37014e-07
-7.11956e-09
-7.88921e-08
-2.39211e-08
-8.38706e-09
3.36784e-08
-3.19999e-08
1.05559e-07
-6.93867e-08
1.78146e-07
-1.19126e-07
2.48533e-07
-1.79785e-07
3.14473e-07
-2.49903e-07
3.74203e-07
-3.27989e-07
4.26403e-07
-4.12524e-07
4.70159e-07
-5.01979e-07
5.04898e-07
-5.94832e-07
5.30335e-07
-6.89584e-07
5.46424e-07
-7.8478e-07
5.53313e-07
-8.79022e-07
5.51299e-07
-9.70984e-07
5.408e-07
-1.05942e-06
5.22321e-07
-1.14319e-06
4.96431e-07
-1.22122e-06
4.63744e-07
-1.29256e-06
4.24904e-07
-1.35636e-06
3.80573e-07
-1.41188e-06
3.31426e-07
-1.45846e-06
2.78141e-07
-1.49557e-06
2.21404e-07
-1.52278e-06
1.61903e-07
-1.53976e-06
1.00333e-07
-1.54629e-06
3.73961e-08
-1.54227e-06
-2.61928e-08
-1.52769e-06
-8.97047e-08
-1.50267e-06
-1.52393e-07
-1.46744e-06
-2.13493e-07
-1.42237e-06
-2.72221e-07
-1.36792e-06
-3.27774e-07
-1.30471e-06
-3.79341e-07
-1.23347e-06
-4.26099e-07
-1.15507e-06
-4.67231e-07
-1.0705e-06
-5.01938e-07
-9.80876e-07
-5.2945e-07
-8.87435e-07
-5.49049e-07
-7.91518e-07
-5.60094e-07
-6.9456e-07
-5.62042e-07
-5.98073e-07
-5.54482e-07
-5.03623e-07
-5.37165e-07
-4.12808e-07
-5.10042e-07
-3.27231e-07
-4.73301e-07
-2.48472e-07
-4.27409e-07
-1.78066e-07
-3.73155e-07
-1.17479e-07
-3.11697e-07
-6.8099e-08
-2.44602e-07
-3.12329e-08
-1.7388e-07
-8.12548e-09
-1.02e-07
-3.20465e-08
-9.37778e-09
4.30562e-08
-3.57419e-08
1.31923e-07
-7.73833e-08
2.19788e-07
-1.32617e-07
3.03766e-07
-1.99759e-07
3.81615e-07
-2.77116e-07
4.5156e-07
-3.62986e-07
5.12273e-07
-4.55663e-07
5.62837e-07
-5.53455e-07
6.0269e-07
-6.54695e-07
6.31575e-07
-7.57762e-07
6.4949e-07
-8.6109e-07
6.56641e-07
-9.63189e-07
6.53399e-07
-1.06265e-06
6.40265e-07
-1.15817e-06
6.17839e-07
-1.24853e-06
5.8679e-07
-1.33263e-06
5.47839e-07
-1.40946e-06
5.01736e-07
-1.47814e-06
4.49254e-07
-1.53789e-06
3.91176e-07
-1.58804e-06
3.28292e-07
-1.62803e-06
2.61395e-07
-1.65741e-06
1.91281e-07
-1.67583e-06
1.18756e-07
-1.68307e-06
4.46321e-08
-1.679e-06
-3.02648e-08
-1.66361e-06
-1.05091e-07
-1.63702e-06
-1.78983e-07
-1.59946e-06
-2.51053e-07
-1.55129e-06
-3.20392e-07
-1.49299e-06
-3.8607e-07
-1.4252e-06
-4.47137e-07
-1.34866e-06
-5.02637e-07
-1.26428e-06
-5.51615e-07
-1.17308e-06
-5.9313e-07
-1.07626e-06
-6.26278e-07
-9.75094e-07
-6.50211e-07
-8.71021e-07
-6.64167e-07
-7.65569e-07
-6.67494e-07
-6.60362e-07
-6.59688e-07
-5.57097e-07
-6.4043e-07
-4.57518e-07
-6.09621e-07
-3.63393e-07
-5.67425e-07
-2.76489e-07
-5.14313e-07
-1.98542e-07
-4.51102e-07
-1.31241e-07
-3.78998e-07
-7.62091e-08
-2.99633e-07
-3.5002e-08
-2.15087e-07
-9.11368e-09
-1.27888e-07
-4.11602e-08
-1.0361e-08
5.34172e-08
-3.94731e-08
1.61036e-07
-8.5386e-08
2.65701e-07
-1.46161e-07
3.64541e-07
-2.19864e-07
4.55318e-07
-3.04566e-07
5.36261e-07
-3.98346e-07
6.06053e-07
-4.99305e-07
6.63795e-07
-6.05575e-07
7.0896e-07
-7.15339e-07
7.41339e-07
-8.26843e-07
7.60994e-07
-9.38409e-07
7.68207e-07
-1.04845e-06
7.63441e-07
-1.15548e-06
7.47298e-07
-1.25813e-06
7.20482e-07
-1.35511e-06
6.83777e-07
-1.44529e-06
6.38018e-07
-1.52763e-06
5.84071e-07
-1.6012e-06
5.22825e-07
-1.6652e-06
4.55178e-07
-1.71894e-06
3.82033e-07
-1.76184e-06
3.04295e-07
-1.79343e-06
2.22873e-07
-1.81336e-06
1.38682e-07
-1.82137e-06
5.26458e-08
-1.81734e-06
-3.4296e-08
-1.80125e-06
-1.21184e-07
-1.77319e-06
-2.07035e-07
-1.73341e-06
-2.90839e-07
-1.68224e-06
-3.71556e-07
-1.62019e-06
-4.4812e-07
-1.54789e-06
-5.19443e-07
-1.4661e-06
-5.84424e-07
-1.37576e-06
-6.41958e-07
-1.27793e-06
-6.90956e-07
-1.17385e-06
-7.30364e-07
-1.06487e-06
-7.59191e-07
-9.52498e-07
-7.76535e-07
-8.38374e-07
-7.81618e-07
-7.24235e-07
-7.73827e-07
-6.11917e-07
-7.52748e-07
-5.03323e-07
-7.18215e-07
-4.004e-07
-6.70348e-07
-3.05113e-07
-6.096e-07
-2.19416e-07
-5.36799e-07
-1.45231e-07
-4.53183e-07
-8.44261e-08
-3.60438e-07
-3.88054e-08
-2.60708e-07
-1.01055e-08
-1.56588e-07
-5.12658e-08
-1.13539e-08
6.47711e-08
-4.32495e-08
1.92931e-07
-9.35011e-08
3.15952e-07
-1.59919e-07
4.30959e-07
-2.40317e-07
5.35717e-07
-3.32526e-07
6.2847e-07
-4.34399e-07
7.07926e-07
-5.43831e-07
7.73227e-07
-6.58773e-07
8.23902e-07
-7.77245e-07
8.59812e-07
-8.97357e-07
8.81105e-07
-1.01731e-06
8.88163e-07
-1.13543e-06
8.81558e-07
-1.25014e-06
8.62007e-07
-1.36e-06
8.3034e-07
-1.46368e-06
7.87462e-07
-1.56e-06
7.34336e-07
-1.64788e-06
6.71953e-07
-1.72638e-06
6.01325e-07
-1.79468e-06
5.2347e-07
-1.85205e-06
4.39407e-07
-1.89791e-06
3.50157e-07
-1.93178e-06
2.56741e-07
-1.95328e-06
1.60184e-07
-1.96216e-06
6.15233e-08
-1.95827e-06
-3.819e-08
-1.94157e-06
-1.3788e-07
-1.91216e-06
-2.36444e-07
-1.87025e-06
-3.32745e-07
-1.8162e-06
-4.25613e-07
-1.75048e-06
-5.13841e-07
-1.67372e-06
-5.96197e-07
-1.58672e-06
-6.71425e-07
-1.49041e-06
-7.38264e-07
-1.38591e-06
-7.95461e-07
-1.27447e-06
-8.41801e-07
-1.15754e-06
-8.76128e-07
-1.03669e-06
-8.97385e-07
-9.13658e-07
-9.04647e-07
-7.90317e-07
-8.97168e-07
-6.68646e-07
-8.74419e-07
-5.50719e-07
-8.36142e-07
-4.38676e-07
-7.82391e-07
-3.34695e-07
-7.13581e-07
-2.40965e-07
-6.3053e-07
-1.59652e-07
-5.34496e-07
-9.28815e-08
-4.27209e-07
-4.27114e-08
-3.10878e-07
-1.11217e-08
-1.88177e-07
-6.23875e-08
-1.23726e-08
7.71436e-08
-4.71245e-08
2.27683e-07
-1.01832e-07
3.7066e-07
-1.7405e-07
5.03177e-07
-2.61336e-07
6.23003e-07
-3.61269e-07
7.28403e-07
-4.71469e-07
8.18126e-07
-5.89615e-07
8.91373e-07
-7.13465e-07
9.47752e-07
-8.40872e-07
9.87219e-07
-9.69799e-07
1.01003e-06
-1.09833e-06
1.01669e-06
-1.22468e-06
1.00791e-06
-1.3472e-06
9.84528e-07
-1.46438e-06
9.47521e-07
-1.57485e-06
8.97934e-07
-1.67738e-06
8.36866e-07
-1.77087e-06
7.65444e-07
-1.85436e-06
6.8481e-07
-1.92699e-06
5.96105e-07
-1.98806e-06
5.00472e-07
-2.03695e-06
3.99045e-07
-2.07316e-06
2.92958e-07
-2.09633e-06
1.83348e-07
-2.10616e-06
7.13602e-08
-2.10251e-06
-4.1841e-08
-2.08533e-06
-1.55066e-07
-2.05468e-06
-2.67093e-07
-2.01076e-06
-3.76658e-07
-1.95392e-06
-4.82458e-07
-1.88462e-06
-5.83146e-07
-1.80348e-06
-6.77335e-07
-1.71129e-06
-7.6361e-07
-1.60901e-06
-8.40542e-07
-1.49777e-06
-9.06702e-07
-1.37888e-06
-9.60694e-07
-1.25383e-06
-1.00118e-06
-1.12428e-06
-1.02693e-06
-9.92076e-07
-1.03685e-06
-8.59217e-07
-1.03003e-06
-7.27841e-07
-1.0058e-06
-6.00202e-07
-9.63781e-07
-4.7865e-07
-9.03943e-07
-3.65594e-07
-8.26638e-07
-2.63469e-07
-7.32654e-07
-1.74709e-07
-6.23256e-07
-1.01706e-07
-5.00211e-07
-4.67867e-08
-3.65798e-07
-1.21819e-08
-2.22782e-07
-7.45694e-08
-1.34317e-08
9.05753e-08
-5.11483e-08
2.654e-07
-1.10477e-07
4.29989e-07
-1.88708e-07
5.81407e-07
-2.83128e-07
7.17424e-07
-3.91057e-07
8.36332e-07
-5.09866e-07
9.36935e-07
-6.37009e-07
1.01852e-06
-7.70041e-07
1.08078e-06
-9.06637e-07
1.12382e-06
-1.04461e-06
1.148e-06
-1.18192e-06
1.154e-06
-1.31667e-06
1.14266e-06
-1.44714e-06
1.115e-06
-1.57176e-06
1.07214e-06
-1.68911e-06
1.01528e-06
-1.79792e-06
9.45678e-07
-1.89708e-06
8.64601e-07
-1.98559e-06
7.73328e-07
-2.06262e-06
6.73133e-07
-2.12743e-06
5.6528e-07
-2.1794e-06
4.51019e-07
-2.21804e-06
3.31598e-07
-2.24296e-06
2.0826e-07
-2.25386e-06
8.22589e-08
-2.25056e-06
-4.51331e-08
-2.23301e-06
-1.72615e-07
-2.20126e-06
-2.98848e-07
-2.15547e-06
-4.22445e-07
-2.09596e-06
-5.41968e-07
-2.02318e-06
-6.55925e-07
-1.93774e-06
-7.62774e-07
-1.84042e-06
-8.60931e-07
-1.73218e-06
-9.48786e-07
-1.61416e-06
-1.02472e-06
-1.48771e-06
-1.08715e-06
-1.35437e-06
-1.13452e-06
-1.21589e-06
-1.16541e-06
-1.07423e-06
-1.17851e-06
-9.31508e-07
-1.17275e-06
-7.90032e-07
-1.14727e-06
-6.52253e-07
-1.10156e-06
-5.20743e-07
-1.03545e-06
-3.98159e-07
-9.49222e-07
-2.87207e-07
-8.43606e-07
-1.90603e-07
-7.1986e-07
-1.11029e-07
-5.79785e-07
-5.1096e-08
-4.25731e-07
-1.33048e-08
-2.60573e-07
-8.78743e-08
-1.45448e-08
1.0512e-07
-5.53675e-08
3.06222e-07
-1.19529e-07
4.9415e-07
-2.04035e-07
6.65913e-07
-3.05889e-07
8.19278e-07
-4.22134e-07
9.52576e-07
-5.49878e-07
1.06468e-06
-6.86337e-07
1.15497e-06
-8.2885e-07
1.2233e-06
-9.74908e-07
1.26987e-06
-1.12217e-06
1.29526e-06
-1.26845e-06
1.30029e-06
-1.41177e-06
1.28599e-06
-1.55033e-06
1.25355e-06
-1.68248e-06
1.20429e-06
-1.80677e-06
1.13957e-06
-1.92191e-06
1.06082e-06
-2.02677e-06
9.69459e-07
-2.12035e-06
8.6691e-07
-2.2018e-06
7.54584e-07
-2.27039e-06
6.33867e-07
-2.3255e-06
5.0613e-07
-2.36663e-06
3.72727e-07
-2.39337e-06
2.35007e-07
-2.40544e-06
9.43259e-08
-2.40263e-06
-4.79408e-08
-2.38486e-06
-1.90386e-07
-2.35215e-06
-3.31558e-07
-2.30465e-06
-4.69949e-07
-2.24263e-06
-6.03987e-07
-2.16652e-06
-7.32036e-07
-2.0769e-06
-8.52394e-07
-1.97453e-06
-9.633e-07
-1.86036e-06
-1.06295e-06
-1.73555e-06
-1.14954e-06
-1.60146e-06
-1.22123e-06
-1.45969e-06
-1.27629e-06
-1.31207e-06
-1.31302e-06
-1.16066e-06
-1.32993e-06
-1.00771e-06
-1.32569e-06
-8.55713e-07
-1.29927e-06
-7.07325e-07
-1.24995e-06
-5.65355e-07
-1.17742e-06
-4.32729e-07
-1.08185e-06
-3.12446e-07
-9.63889e-07
-2.07528e-07
-8.24778e-07
-1.20973e-07
-6.6634e-07
-5.57012e-08
-4.91002e-07
-1.45083e-08
-3.01766e-07
-1.02383e-07
-1.57242e-08
1.20844e-07
-5.9825e-08
3.50323e-07
-1.29071e-07
5.63396e-07
-2.20164e-07
7.57005e-07
-3.29799e-07
9.28914e-07
-4.54722e-07
1.0775e-06
-5.91763e-07
1.20172e-06
-7.37881e-07
1.30109e-06
-8.90191e-07
1.37561e-06
-1.04599e-06
1.42567e-06
-1.20276e-06
1.45204e-06
-1.35821e-06
1.45574e-06
-1.51024e-06
1.43802e-06
-1.65697e-06
1.40028e-06
-1.79671e-06
1.34403e-06
-1.92798e-06
1.27084e-06
-2.04946e-06
1.1823e-06
-2.16001e-06
1.08001e-06
-2.25864e-06
9.65543e-07
-2.34451e-06
8.40449e-07
-2.41688e-06
7.06241e-07
-2.47515e-06
5.64402e-07
-2.51882e-06
4.16394e-07
-2.54748e-06
2.63665e-07
-2.56082e-06
1.07667e-07
-2.55863e-06
-5.01296e-08
-2.5408e-06
-2.08218e-07
-2.50731e-06
-3.65041e-07
-2.45829e-06
-5.18974e-07
-2.39396e-06
-6.68317e-07
-2.31471e-06
-8.11288e-07
-2.22108e-06
-9.46021e-07
-2.1138e-06
-1.07058e-06
-1.99381e-06
-1.18295e-06
-1.86224e-06
-1.2811e-06
-1.72049e-06
-1.36298e-06
-1.57019e-06
-1.42658e-06
-1.41324e-06
-1.46997e-06
-1.2518e-06
-1.49138e-06
-1.08827e-06
-1.48922e-06
-9.25325e-07
-1.46222e-06
-7.65831e-07
-1.40944e-06
-6.12858e-07
-1.3304e-06
-4.69622e-07
-1.22508e-06
-3.3944e-07
-1.09407e-06
-2.2567e-07
-9.38548e-07
-1.31656e-07
-7.60354e-07
-6.06618e-08
-5.61996e-07
-1.58093e-08
-3.46619e-07
-1.18192e-07
-1.69815e-08
1.37826e-07
-6.45608e-08
3.97902e-07
-1.39184e-07
6.38019e-07
-2.37216e-07
8.55037e-07
-3.55021e-07
1.04672e-06
-4.8902e-07
1.2115e-06
-6.35745e-07
1.34845e-06
-7.91881e-07
1.45723e-06
-9.54303e-07
1.53803e-06
-1.1201e-06
1.59147e-06
-1.2866e-06
1.61853e-06
-1.45136e-06
1.6205e-06
-1.6122e-06
1.59885e-06
-1.76714e-06
1.55522e-06
-1.91447e-06
1.49136e-06
-2.05268e-06
1.40904e-06
-2.18043e-06
1.31006e-06
-2.29661e-06
1.19618e-06
-2.40022e-06
1.06916e-06
-2.49044e-06
9.30668e-07
-2.56656e-06
7.82358e-07
-2.62798e-06
6.25822e-07
-2.6742e-06
4.62621e-07
-2.70483e-06
2.94295e-07
-2.71955e-06
1.22383e-07
-2.71812e-06
-5.15577e-08
-2.70041e-06
-2.25932e-07
-2.66637e-06
-3.99084e-07
-2.61606e-06
-5.69282e-07
-2.54967e-06
-7.34703e-07
-2.46754e-06
-8.93422e-07
-2.37015e-06
-1.04341e-06
-2.25818e-06
-1.18254e-06
-2.13254e-06
-1.3086e-06
-1.99434e-06
-1.4193e-06
-1.84498e-06
-1.51235e-06
-1.68611e-06
-1.58545e-06
-1.5197e-06
-1.63639e-06
-1.348e-06
-1.66308e-06
-1.17357e-06
-1.66365e-06
-9.99243e-07
-1.63654e-06
-8.28137e-07
-1.58055e-06
-6.63591e-07
-1.49494e-06
-5.09134e-07
-1.37954e-06
-3.68428e-07
-1.23478e-06
-2.45206e-07
-1.06177e-06
-1.43192e-07
-8.62368e-07
-6.60349e-08
-6.39154e-07
-1.72243e-08
-3.95429e-07
-1.35416e-07
-1.83273e-08
1.56153e-07
-6.96117e-08
4.49187e-07
-1.49939e-07
7.18346e-07
-2.55302e-07
9.60401e-07
-3.817e-07
1.17312e-06
-5.25201e-07
1.355e-06
-6.82012e-07
1.50526e-06
-8.48525e-07
1.62374e-06
-1.02136e-06
1.71087e-06
-1.1974e-06
1.7675e-06
-1.37378e-06
1.79492e-06
-1.54795e-06
1.79466e-06
-1.7176e-06
1.7685e-06
-1.88073e-06
1.71835e-06
-2.03556e-06
1.6462e-06
-2.18058e-06
1.55406e-06
-2.31447e-06
1.44395e-06
-2.43611e-06
1.31782e-06
-2.54455e-06
1.1776e-06
-2.63899e-06
1.02511e-06
-2.71874e-06
8.62113e-07
-2.78324e-06
6.90322e-07
-2.83201e-06
5.11386e-07
-2.86464e-06
3.26929e-07
-2.88082e-06
1.38564e-07
-2.8803e-06
-5.20785e-08
-2.86291e-06
-2.43325e-07
-2.82856e-06
-4.33436e-07
-2.77726e-06
-6.20582e-07
-2.70913e-06
-8.02824e-07
-2.62445e-06
-9.78102e-07
-2.52364e-06
-1.14422e-06
-2.40731e-06
-1.29887e-06
-2.2763e-06
-1.43961e-06
-2.1317e-06
-1.5639e-06
-1.97487e-06
-1.66918e-06
-1.8075e-06
-1.75282e-06
-1.63158e-06
-1.8123e-06
-1.44947e-06
-1.84519e-06
-1.26385e-06
-1.84927e-06
-1.07776e-06
-1.82263e-06
-8.94551e-07
-1.76376e-06
-7.1785e-07
-1.67164e-06
-5.5153e-07
-1.54586e-06
-3.99634e-07
-1.38667e-06
-2.66302e-07
-1.1951e-06
-1.5569e-07
-9.7298e-07
-7.18753e-08
-7.22968e-07
-1.87691e-08
-4.48535e-07
-1.54185e-07
-1.97719e-08
1.75925e-07
-7.50127e-08
5.04428e-07
-1.61403e-07
8.04737e-07
-2.74524e-07
1.07352e-06
-4.09965e-07
1.30856e-06
-5.63411e-07
1.50845e-06
-7.30713e-07
1.67256e-06
-9.07949e-07
1.80098e-06
-1.09147e-06
1.89438e-06
-1.27792e-06
1.95396e-06
-1.46428e-06
1.98128e-06
-1.64786e-06
1.97824e-06
-1.82626e-06
1.94691e-06
-1.99742e-06
1.88951e-06
-2.15956e-06
1.80833e-06
-2.31115e-06
1.70565e-06
-2.45091e-06
1.5837e-06
-2.57774e-06
1.44466e-06
-2.69075e-06
1.29061e-06
-2.78918e-06
1.12353e-06
-2.87238e-06
9.45314e-07
-2.93982e-06
7.57764e-07
-2.99105e-06
5.62616e-07
-3.02568e-06
3.61563e-07
-3.0434e-06
1.5628e-07
-3.04393e-06
-5.15441e-08
-3.02708e-06
-2.60175e-07
-2.99272e-06
-4.67805e-07
-2.94078e-06
-6.7252e-07
-2.87132e-06
-8.72279e-07
-2.78453e-06
-1.06489e-06
-2.68074e-06
-1.24801e-06
-2.56049e-06
-1.41912e-06
-2.42453e-06
-1.57557e-06
-2.27388e-06
-1.71455e-06
-2.10988e-06
-1.83318e-06
-1.93419e-06
-1.92851e-06
-1.74885e-06
-1.99765e-06
-1.55627e-06
-2.03777e-06
-1.35927e-06
-2.04626e-06
-1.16109e-06
-2.02081e-06
-9.65311e-07
-1.95954e-06
-7.75885e-07
-1.86107e-06
-5.97047e-07
-1.7247e-06
-4.33258e-07
-1.55046e-06
-2.89114e-07
-1.33925e-06
-1.69251e-07
-1.09284e-06
-7.82364e-08
-8.13983e-07
-2.04593e-08
-5.06312e-07
-1.74645e-07
-2.1325e-08
1.9725e-07
-8.07971e-08
5.639e-07
-1.7364e-07
8.9758e-07
-2.94972e-07
1.19485e-06
-4.39929e-07
1.45352e-06
-6.03771e-07
1.67229e-06
-7.81959e-07
1.85075e-06
-9.70229e-07
1.98925e-06
-1.16464e-06
2.0888e-06
-1.36162e-06
2.15094e-06
-1.55796e-06
2.17762e-06
-1.75083e-06
2.17111e-06
-1.93778e-06
2.13386e-06
-2.1167e-06
2.06843e-06
-2.28579e-06
1.97743e-06
-2.44357e-06
1.86343e-06
-2.58878e-06
1.72891e-06
-2.72041e-06
1.57628e-06
-2.8376e-06
1.4078e-06
-2.93966e-06
1.22559e-06
-3.02601e-06
1.03166e-06
-3.09616e-06
8.27922e-07
-3.14972e-06
6.16166e-07
-3.1863e-06
3.98145e-07
-3.20559e-06
1.75576e-07
-3.20733e-06
-4.981e-08
-3.19126e-06
-2.7624e-07
-3.15721e-06
-5.01855e-07
-3.10506e-06
-7.24676e-07
-3.03476e-06
-9.42575e-07
-2.94641e-06
-1.15325e-06
-2.84023e-06
-1.35419e-06
-2.71664e-06
-1.54271e-06
-2.57631e-06
-1.71591e-06
-2.42015e-06
-1.87071e-06
-2.24943e-06
-2.00389e-06
-2.06579e-06
-2.11216e-06
-1.87124e-06
-2.19219e-06
-1.66828e-06
-2.24073e-06
-1.45984e-06
-2.2547e-06
-1.24932e-06
-2.23133e-06
-1.04058e-06
-2.16828e-06
-8.37891e-07
-2.06376e-06
-6.45886e-07
-1.9167e-06
-4.69484e-07
-1.72687e-06
-3.13788e-07
-1.49494e-06
-1.83976e-07
-1.22265e-06
-8.51701e-08
-9.12789e-07
-2.23104e-08
-5.69172e-07
-1.96955e-07
-2.29967e-08
2.20247e-07
-8.6998e-08
6.27901e-07
-1.86712e-07
9.97294e-07
-3.16732e-07
1.32487e-06
-4.71692e-07
1.60847e-06
-6.46374e-07
1.84697e-06
-8.35816e-07
2.04019e-06
-1.03538e-06
2.18881e-06
-1.24083e-06
2.29424e-06
-1.44833e-06
2.35844e-06
-1.65452e-06
2.3838e-06
-1.85643e-06
2.37302e-06
-2.05156e-06
2.32898e-06
-2.23778e-06
2.25464e-06
-2.41331e-06
2.15296e-06
-2.5767e-06
2.02682e-06
-2.72679e-06
1.879e-06
-2.86262e-06
1.71212e-06
-2.98344e-06
1.52862e-06
-3.08864e-06
1.33079e-06
-3.17772e-06
1.12074e-06
-3.25026e-06
9.00462e-07
-3.3059e-06
6.71807e-07
-3.34431e-06
4.3656e-07
-3.3652e-06
1.96462e-07
-3.36827e-06
-4.67414e-08
-3.35325e-06
-2.91258e-07
-3.3199e-06
-5.35202e-07
-3.26802e-06
-7.76553e-07
-3.19748e-06
-1.01312e-06
-3.10824e-06
-1.24249e-06
-3.00041e-06
-1.46203e-06
-2.87426e-06
-1.66886e-06
-2.73031e-06
-1.85985e-06
-2.56938e-06
-2.03164e-06
-2.39262e-06
-2.18066e-06
-2.20157e-06
-2.30321e-06
-1.99826e-06
-2.3955e-06
-1.78519e-06
-2.45381e-06
-1.56538e-06
-2.47451e-06
-1.34242e-06
-2.45429e-06
-1.12043e-06
-2.39028e-06
-9.04001e-07
-2.28018e-06
-6.9821e-07
-2.12249e-06
-5.08473e-07
-1.9166e-06
-3.40461e-07
-1.66295e-06
-1.9996e-07
-1.36316e-06
-9.2728e-08
-1.02002e-06
-2.43379e-08
-6.37562e-07
-2.21293e-07
-2.47973e-08
2.45044e-07
-9.36495e-08
6.96753e-07
-2.00679e-07
1.10432e-06
-3.39889e-07
1.46408e-06
-5.05342e-07
1.77393e-06
-6.91295e-07
2.03292e-06
-8.92313e-07
2.24121e-06
-1.10336e-06
2.39986e-06
-1.31987e-06
2.51075e-06
-1.53777e-06
2.57634e-06
-1.7535e-06
2.59954e-06
-1.96402e-06
2.58355e-06
-2.16677e-06
2.53173e-06
-2.35961e-06
2.44749e-06
-2.54083e-06
2.33418e-06
-2.70907e-06
2.19505e-06
-2.86323e-06
2.03316e-06
-3.00249e-06
1.85138e-06
-3.1262e-06
1.65233e-06
-3.23387e-06
1.43846e-06
-3.3251e-06
1.21197e-06
-3.39956e-06
9.74924e-07
-3.45696e-06
7.29207e-07
-3.49702e-06
4.76618e-07
-3.51946e-06
2.18898e-07
-3.52398e-06
-4.22196e-08
-3.51028e-06
-3.04952e-07
-3.47807e-06
-5.67416e-07
-3.42705e-06
-8.27575e-07
-3.35697e-06
-1.08319e-06
-3.26767e-06
-1.33179e-06
-3.15908e-06
-1.57061e-06
-3.03133e-06
-1.79661e-06
-2.88477e-06
-2.00641e-06
-2.72004e-06
-2.19637e-06
-2.53814e-06
-2.36255e-06
-2.34053e-06
-2.50083e-06
-2.12912e-06
-2.60691e-06
-1.90643e-06
-2.67649e-06
-1.67556e-06
-2.70538e-06
-1.44024e-06
-2.68962e-06
-1.20482e-06
-2.62569e-06
-9.74281e-07
-2.51072e-06
-7.5414e-07
-2.34264e-06
-5.50365e-07
-2.12038e-06
-3.69258e-07
-1.84406e-06
-2.17297e-07
-1.51512e-06
-1.00962e-07
-1.13636e-06
-2.6558e-08
-7.11966e-07
-2.47851e-07
-2.67385e-08
2.71783e-07
-1.00789e-07
7.70803e-07
-2.15606e-07
1.21914e-06
-3.64525e-07
1.613e-06
-5.40963e-07
1.95037e-06
-7.38586e-07
2.23054e-06
-9.51439e-07
2.45406e-06
-1.17405e-06
2.62248e-06
-1.40151e-06
2.73821e-06
-1.6295e-06
2.80433e-06
-1.85429e-06
2.82433e-06
-2.07275e-06
2.80201e-06
-2.2823e-06
2.74128e-06
-2.48085e-06
2.64604e-06
-2.66677e-06
2.5201e-06
-2.8388e-06
2.36708e-06
-2.99599e-06
2.19036e-06
-3.13766e-06
1.99305e-06
-3.26331e-06
1.77798e-06
-3.37259e-06
1.54773e-06
-3.46522e-06
1.30461e-06
-3.54099e-06
1.0507e-06