/*--------------------------------*- C++ -*----------------------------------*\
  =========                 |
  \\      /  F ield         | OpenFOAM: The Open Source CFD Toolbox
   \\    /   O peration     | Website:  https://openfoam.org
    \\  /    A nd           | Version:  7
     \\/     M anipulation  |
\*---------------------------------------------------------------------------*/
FoamFile
{
    version     2.0;
    format      ascii;
    class       volScalarField;
    location    "0.0414";
    object      p;
}
// * * * * * * * * * * * * * * * * * * * * * * * * * * * * * * * * * * * * * //

dimensions      [0 2 -2 0 0 0 0];

internalField   nonuniform List<scalar> 
2500
(
7.39892e-07
-6.51185
-9.29676
-10.4923
-11.1572
-11.5631
-11.8263
-12.0105
-12.1478
-12.2544
-12.3397
-12.4093
-12.4672
-12.5157
-12.5567
-12.5917
-12.6215
-12.6471
-12.669
-12.6879
-12.7041
-12.718
-12.73
-12.7404
-12.7495
-12.7576
-12.765
-12.772
-12.779
-12.7861
-12.794
-12.8028
-12.8132
-12.8256
-12.8408
-12.8595
-12.8827
-12.9117
-12.9482
-12.9946
-13.0544
-13.1327
-13.2385
-13.3871
-13.6097
-13.9671
-14.5665
-15.6671
-18.3341
-24.7189
-4.95566
-7.67552
-9.1821
-10.142
-10.8096
-11.2693
-11.5905
-11.8235
-11.9986
-12.134
-12.2414
-12.3282
-12.3997
-12.4593
-12.5095
-12.5522
-12.5886
-12.62
-12.647
-12.6705
-12.6909
-12.7088
-12.7246
-12.7387
-12.7514
-12.7632
-12.7742
-12.785
-12.7958
-12.8072
-12.8195
-12.8332
-12.849
-12.8675
-12.8896
-12.9163
-12.949
-12.9895
-13.0402
-13.1044
-13.1869
-13.295
-13.4397
-13.6385
-13.9205
-14.3337
-14.9432
-15.8311
-17.251
-19.8501
-7.92541
-8.75767
-9.55852
-10.2394
-10.7794
-11.1893
-11.4987
-11.7352
-11.9191
-12.0644
-12.1812
-12.2766
-12.3556
-12.4217
-12.4775
-12.5252
-12.566
-12.6014
-12.632
-12.6588
-12.6824
-12.7032
-12.7218
-12.7386
-12.754
-12.7684
-12.7822
-12.7958
-12.8095
-12.8239
-12.8394
-12.8566
-12.8762
-12.8989
-12.9257
-12.9577
-12.9964
-13.0438
-13.1023
-13.1756
-13.2683
-13.3873
-13.5421
-13.7464
-14.0196
-14.3881
-14.8801
-15.5078
-16.2533
-17.0167
-9.43519
-9.6483
-10.0672
-10.5121
-10.9049
-11.2319
-11.4983
-11.7139
-11.8887
-12.0313
-12.1487
-12.2463
-12.3281
-12.3972
-12.4562
-12.5068
-12.5506
-12.5886
-12.6218
-12.651
-12.6769
-12.6999
-12.7207
-12.7397
-12.7572
-12.7737
-12.7896
-12.8054
-12.8214
-12.8381
-12.856
-12.8758
-12.8981
-12.9237
-12.9536
-12.9889
-13.031
-13.082
-13.144
-13.2201
-13.3144
-13.432
-13.5797
-13.7659
-14.0002
-14.2922
-14.6473
-15.053
-15.435
-15.6128
-10.321
-10.3201
-10.5238
-10.8005
-11.0751
-11.3251
-11.5437
-11.7306
-11.8887
-12.0221
-12.1348
-12.2305
-12.312
-12.3819
-12.4422
-12.4944
-12.5398
-12.5796
-12.6147
-12.6457
-12.6734
-12.6982
-12.7208
-12.7415
-12.7607
-12.779
-12.7967
-12.8142
-12.832
-12.8506
-12.8704
-12.8922
-12.9165
-12.9441
-12.9759
-13.0131
-13.057
-13.1092
-13.1716
-13.2468
-13.3377
-13.4478
-13.581
-13.7416
-13.9325
-14.1536
-14.3989
-14.6475
-14.8271
-14.8085
-10.8879
-10.8132
-10.9017
-11.069
-11.2568
-11.443
-11.617
-11.7736
-11.9117
-12.0323
-12.1369
-12.2277
-12.3066
-12.3752
-12.4351
-12.4876
-12.5337
-12.5744
-12.6105
-12.6427
-12.6717
-12.6978
-12.7217
-12.7437
-12.7643
-12.7839
-12.803
-12.8218
-12.841
-12.861
-12.8822
-12.9052
-12.9307
-12.9595
-12.9923
-13.0301
-13.0741
-13.1256
-13.1862
-13.2576
-13.3417
-13.4407
-13.5564
-13.6898
-13.8401
-14.0029
-14.1683
-14.3157
-14.3889
-14.307
-11.2702
-11.1786
-11.2085
-11.3073
-11.4336
-11.5699
-11.7054
-11.8336
-11.9512
-12.0573
-12.152
-12.236
-12.3104
-12.3761
-12.4343
-12.4859
-12.5317
-12.5725
-12.609
-12.6418
-12.6714
-12.6984
-12.7231
-12.746
-12.7676
-12.7882
-12.8082
-12.828
-12.8481
-12.8689
-12.8909
-12.9147
-12.9407
-12.9698
-13.0026
-13.04
-13.0828
-13.1322
-13.1892
-13.2549
-13.3306
-13.417
-13.5145
-13.6224
-13.7381
-13.8555
-13.9648
-14.0495
-14.0703
-13.9773
-11.5434
-11.4555
-11.4562
-11.5127
-11.5966
-11.6951
-11.7992
-11.9024
-12.0008
-12.0924
-12.1764
-12.2526
-12.3214
-12.3833
-12.4388
-12.4886
-12.5333
-12.5735
-12.6097
-12.6425
-12.6723
-12.6996
-12.7248
-12.7482
-12.7703
-12.7915
-12.8121
-12.8324
-12.853
-12.8743
-12.8966
-12.9205
-12.9466
-12.9753
-13.0074
-13.0434
-13.0842
-13.1304
-13.1828
-13.242
-13.3085
-13.3823
-13.463
-13.5488
-13.6364
-13.7199
-13.7909
-13.8375
-13.8332
-13.7473
-11.7492
-11.6706
-11.6572
-11.6875
-11.7424
-11.8131
-11.8923
-11.9745
-12.0558
-12.1338
-12.2072
-12.2754
-12.338
-12.3953
-12.4474
-12.4947
-12.5377
-12.5767
-12.6122
-12.6445
-12.6741
-12.7013
-12.7265
-12.7501
-12.7724
-12.7937
-12.8145
-12.8351
-12.8558
-12.8771
-12.8993
-12.923
-12.9485
-12.9764
-13.0071
-13.0413
-13.0793
-13.1218
-13.1691
-13.2215
-13.279
-13.3412
-13.407
-13.4745
-13.5401
-13.5989
-13.6444
-13.6681
-13.6524
-13.5777
-11.9105
-11.8417
-11.8217
-11.8359
-11.8712
-11.9215
-11.9814
-12.0464
-12.1129
-12.1787
-12.2422
-12.3023
-12.3587
-12.411
-12.4593
-12.5037
-12.5444
-12.5817
-12.6159
-12.6474
-12.6763
-12.7031
-12.728
-12.7514
-12.7735
-12.7948
-12.8155
-12.8359
-12.8564
-12.8774
-12.8992
-12.9222
-12.9468
-12.9735
-13.0025
-13.0344
-13.0694
-13.1079
-13.1501
-13.1959
-13.245
-13.2968
-13.3501
-13.4026
-13.4516
-13.4927
-13.521
-13.5311
-13.5108
-13.4472
-12.0408
-11.9808
-11.9581
-11.9625
-11.9843
-12.0198
-12.0649
-12.1159
-12.17
-12.2251
-12.2794
-12.3319
-12.382
-12.4293
-12.4735
-12.5147
-12.5528
-12.5881
-12.6207
-12.6509
-12.6789
-12.7049
-12.7292
-12.7521
-12.7738
-12.7947
-12.8149
-12.8349
-12.855
-12.8754
-12.8965
-12.9185
-12.942
-12.9671
-12.9942
-13.0235
-13.0554
-13.0899
-13.1271
-13.1668
-13.2085
-13.2513
-13.2941
-13.335
-13.3713
-13.3998
-13.4169
-13.4189
-13.3975
-13.3435
-12.1483
-12.0958
-12.0726
-12.0709
-12.0836
-12.1083
-12.142
-12.1819
-12.2257
-12.2713
-12.3175
-12.363
-12.4071
-12.4494
-12.4895
-12.5272
-12.5625
-12.5955
-12.6263
-12.6549
-12.6816
-12.7066
-12.73
-12.7521
-12.7731
-12.7934
-12.813
-12.8324
-12.8517
-12.8713
-12.8914
-12.9123
-12.9344
-12.9578
-12.9828
-13.0096
-13.0383
-13.069
-13.1016
-13.1357
-13.1708
-13.2061
-13.2405
-13.2721
-13.299
-13.3185
-13.3282
-13.3257
-13.3048
-13.2589
-12.2387
-12.1924
-12.1698
-12.1644
-12.1709
-12.1877
-12.2127
-12.2438
-12.279
-12.3167
-12.3556
-12.3947
-12.4332
-12.4707
-12.5066
-12.5409
-12.5732
-12.6038
-12.6324
-12.6593
-12.6845
-12.7081
-12.7304
-12.7515
-12.7717
-12.791
-12.8098
-12.8283
-12.8467
-12.8653
-12.8843
-12.9039
-12.9245
-12.9461
-12.969
-12.9932
-13.0189
-13.046
-13.0744
-13.1036
-13.1331
-13.1622
-13.1897
-13.2142
-13.2341
-13.2473
-13.2522
-13.2471
-13.2276
-13.1884
-12.3155
-12.2747
-12.2532
-12.2457
-12.248
-12.259
-12.2774
-12.3014
-12.3295
-12.3605
-12.393
-12.4264
-12.4598
-12.4926
-12.5246
-12.5553
-12.5847
-12.6126
-12.639
-12.6639
-12.6874
-12.7096
-12.7305
-12.7504
-12.7695
-12.7878
-12.8056
-12.823
-12.8404
-12.8578
-12.8755
-12.8938
-12.9127
-12.9325
-12.9533
-12.9751
-12.9979
-13.0218
-13.0463
-13.0713
-13.096
-13.1199
-13.142
-13.161
-13.1757
-13.1846
-13.1864
-13.18
-13.1622
-13.1288
-12.3816
-12.3456
-12.3254
-12.3168
-12.3163
-12.3232
-12.3364
-12.3548
-12.3772
-12.4024
-12.4295
-12.4577
-12.4863
-12.5149
-12.543
-12.5703
-12.5966
-12.6218
-12.6459
-12.6687
-12.6904
-12.7109
-12.7304
-12.749
-12.7667
-12.7838
-12.8004
-12.8167
-12.8329
-12.8491
-12.8655
-12.8822
-12.8995
-12.9175
-12.9362
-12.9557
-12.9759
-12.9967
-13.0179
-13.0392
-13.06
-13.0796
-13.0974
-13.1122
-13.1231
-13.1289
-13.1288
-13.122
-13.1061
-13.0775
-12.4391
-12.4072
-12.3886
-12.3795
-12.3771
-12.381
-12.3904
-12.4044
-12.422
-12.4423
-12.4647
-12.4883
-12.5126
-12.5372
-12.5616
-12.5856
-12.609
-12.6315
-12.6531
-12.6738
-12.6935
-12.7123
-12.7302
-12.7472
-12.7636
-12.7794
-12.7947
-12.8097
-12.8246
-12.8394
-12.8544
-12.8696
-12.8853
-12.9014
-12.9181
-12.9354
-12.9532
-12.9713
-12.9896
-13.0077
-13.0251
-13.0413
-13.0556
-13.0673
-13.0754
-13.0791
-13.0779
-13.0713
-13.0572
-13.0329
-12.4894
-12.4613
-12.4443
-12.4352
-12.4317
-12.4334
-12.4399
-12.4503
-12.464
-12.4803
-12.4985
-12.5181
-12.5385
-12.5594
-12.5804
-12.6012
-12.6217
-12.6415
-12.6607
-12.6792
-12.6969
-12.7138
-12.7299
-12.7454
-12.7603
-12.7746
-12.7885
-12.8022
-12.8156
-12.8291
-12.8426
-12.8563
-12.8703
-12.8847
-12.8995
-12.9147
-12.9302
-12.9459
-12.9616
-12.977
-12.9916
-13.005
-13.0166
-13.0257
-13.0318
-13.0342
-13.0324
-13.0263
-13.0141
-12.9936
-12.5339
-12.5092
-12.4939
-12.4852
-12.481
-12.4812
-12.4854
-12.493
-12.5035
-12.5164
-12.531
-12.547
-12.564
-12.5815
-12.5993
-12.6171
-12.6347
-12.6519
-12.6687
-12.6849
-12.7005
-12.7155
-12.7298
-12.7436
-12.7569
-12.7697
-12.7822
-12.7944
-12.8064
-12.8183
-12.8303
-12.8425
-12.8549
-12.8675
-12.8805
-12.8937
-12.9072
-12.9207
-12.9341
-12.9471
-12.9593
-12.9704
-12.9798
-12.9871
-12.9918
-12.9933
-12.9913
-12.9859
-12.9755
-12.9584
-12.5735
-12.552
-12.5384
-12.5302
-12.5258
-12.5249
-12.5274
-12.5329
-12.5408
-12.5507
-12.5623
-12.5751
-12.5889
-12.6033
-12.6181
-12.633
-12.6479
-12.6626
-12.677
-12.691
-12.7045
-12.7175
-12.73
-12.7421
-12.7537
-12.7649
-12.7758
-12.7865
-12.797
-12.8074
-12.8179
-12.8285
-12.8392
-12.8502
-12.8613
-12.8727
-12.8842
-12.8957
-12.9071
-12.918
-12.9283
-12.9374
-12.9451
-12.951
-12.9546
-12.9556
-12.9538
-12.9492
-12.9406
-12.9267
-12.6091
-12.5906
-12.5787
-12.5712
-12.5668
-12.5653
-12.5666
-12.5702
-12.5759
-12.5834
-12.5923
-12.6024
-12.6134
-12.6249
-12.6369
-12.6492
-12.6615
-12.6737
-12.6857
-12.6975
-12.7089
-12.7199
-12.7306
-12.7409
-12.7508
-12.7604
-12.7697
-12.7787
-12.7877
-12.7966
-12.8055
-12.8144
-12.8235
-12.8328
-12.8422
-12.8518
-12.8615
-12.8712
-12.8807
-12.8898
-12.8983
-12.9058
-12.9121
-12.9169
-12.9198
-12.9205
-12.9191
-12.9153
-12.9086
-12.8977
-12.6414
-12.6258
-12.6155
-12.6089
-12.6047
-12.6028
-12.6032
-12.6054
-12.6094
-12.6148
-12.6214
-12.629
-12.6374
-12.6464
-12.6558
-12.6655
-12.6753
-12.6851
-12.6949
-12.7045
-12.7138
-12.7229
-12.7317
-12.7401
-12.7483
-12.7562
-12.7638
-12.7713
-12.7786
-12.7859
-12.7932
-12.8005
-12.808
-12.8156
-12.8233
-12.8311
-12.8391
-12.847
-12.8548
-12.8622
-12.8692
-12.8753
-12.8805
-12.8844
-12.8868
-12.8875
-12.8865
-12.8838
-12.8788
-12.8707
-12.671
-12.6582
-12.6496
-12.6439
-12.6401
-12.638
-12.6377
-12.6388
-12.6413
-12.6449
-12.6495
-12.6549
-12.661
-12.6676
-12.6746
-12.682
-12.6894
-12.697
-12.7046
-12.712
-12.7193
-12.7264
-12.7333
-12.74
-12.7464
-12.7525
-12.7585
-12.7643
-12.77
-12.7756
-12.7812
-12.7869
-12.7927
-12.7986
-12.8046
-12.8107
-12.817
-12.8232
-12.8294
-12.8353
-12.8408
-12.8457
-12.8499
-12.8531
-12.8552
-12.856
-12.8556
-12.8539
-12.8506
-12.8452
-12.6985
-12.6883
-12.6815
-12.6768
-12.6734
-12.6714
-12.6706
-12.6708
-12.672
-12.6741
-12.6769
-12.6803
-12.6843
-12.6887
-12.6936
-12.6986
-12.7039
-12.7093
-12.7147
-12.7201
-12.7255
-12.7306
-12.7356
-12.7404
-12.745
-12.7495
-12.7537
-12.7578
-12.7618
-12.7657
-12.7697
-12.7736
-12.7777
-12.7819
-12.7862
-12.7906
-12.7951
-12.7997
-12.8043
-12.8087
-12.8129
-12.8167
-12.82
-12.8226
-12.8245
-12.8255
-12.8257
-12.8251
-12.8235
-12.8207
-12.7244
-12.7168
-12.7117
-12.708
-12.7052
-12.7033
-12.7021
-12.7017
-12.7018
-12.7025
-12.7037
-12.7054
-12.7074
-12.7098
-12.7126
-12.7156
-12.7188
-12.7221
-12.7255
-12.7289
-12.7322
-12.7355
-12.7386
-12.7416
-12.7444
-12.7471
-12.7496
-12.752
-12.7542
-12.7564
-12.7586
-12.7608
-12.7631
-12.7655
-12.768
-12.7707
-12.7735
-12.7765
-12.7795
-12.7825
-12.7854
-12.7881
-12.7906
-12.7927
-12.7944
-12.7956
-12.7965
-12.7969
-12.797
-12.7969
-12.7491
-12.7441
-12.7406
-12.738
-12.7359
-12.7341
-12.7328
-12.7317
-12.7309
-12.7304
-12.7301
-12.7301
-12.7304
-12.731
-12.7318
-12.7328
-12.734
-12.7353
-12.7367
-12.7382
-12.7396
-12.741
-12.7423
-12.7435
-12.7446
-12.7454
-12.7462
-12.7468
-12.7473
-12.7477
-12.7481
-12.7485
-12.749
-12.7495
-12.7503
-12.7511
-12.7522
-12.7534
-12.7548
-12.7563
-12.7579
-12.7596
-12.7612
-12.7628
-12.7644
-12.7659
-12.7674
-12.7689
-12.7707
-12.7731
-12.7731
-12.7707
-12.7689
-12.7674
-12.7659
-12.7644
-12.7628
-12.7612
-12.7596
-12.7579
-12.7563
-12.7548
-12.7534
-12.7522
-12.7511
-12.7502
-12.7495
-12.749
-12.7485
-12.7481
-12.7477
-12.7473
-12.7468
-12.7462
-12.7454
-12.7446
-12.7435
-12.7423
-12.741
-12.7396
-12.7382
-12.7367
-12.7353
-12.734
-12.7328
-12.7318
-12.731
-12.7304
-12.7302
-12.7301
-12.7304
-12.7309
-12.7317
-12.7328
-12.7342
-12.7359
-12.738
-12.7407
-12.7442
-12.7491
-12.7968
-12.797
-12.7969
-12.7964
-12.7956
-12.7944
-12.7927
-12.7906
-12.7881
-12.7854
-12.7825
-12.7795
-12.7765
-12.7735
-12.7707
-12.768
-12.7655
-12.7631
-12.7608
-12.7586
-12.7564
-12.7542
-12.752
-12.7496
-12.7471
-12.7444
-12.7416
-12.7386
-12.7355
-12.7322
-12.7289
-12.7255
-12.7221
-12.7188
-12.7156
-12.7126
-12.7099
-12.7074
-12.7054
-12.7037
-12.7025
-12.7018
-12.7017
-12.7021
-12.7033
-12.7052
-12.708
-12.7117
-12.7168
-12.7244
-12.8207
-12.8235
-12.8251
-12.8257
-12.8255
-12.8245
-12.8226
-12.82
-12.8167
-12.8129
-12.8087
-12.8043
-12.7997
-12.7951
-12.7906
-12.7862
-12.7819
-12.7777
-12.7736
-12.7697
-12.7657
-12.7618
-12.7578
-12.7537
-12.7495
-12.745
-12.7404
-12.7356
-12.7306
-12.7255
-12.7201
-12.7148
-12.7093
-12.7039
-12.6987
-12.6936
-12.6888
-12.6843
-12.6803
-12.6769
-12.6741
-12.6721
-12.6708
-12.6706
-12.6714
-12.6734
-12.6768
-12.6815
-12.6883
-12.6985
-12.8452
-12.8506
-12.8539
-12.8556
-12.856
-12.8552
-12.8531
-12.8499
-12.8457
-12.8408
-12.8353
-12.8293
-12.8232
-12.817
-12.8107
-12.8046
-12.7986
-12.7927
-12.7869
-12.7812
-12.7756
-12.77
-12.7643
-12.7585
-12.7525
-12.7464
-12.74
-12.7333
-12.7265
-12.7193
-12.712
-12.7046
-12.697
-12.6895
-12.682
-12.6746
-12.6676
-12.661
-12.6549
-12.6495
-12.6449
-12.6413
-12.6389
-12.6377
-12.6381
-12.6401
-12.6439
-12.6496
-12.6582
-12.671
-12.8706
-12.8788
-12.8838
-12.8865
-12.8875
-12.8868
-12.8844
-12.8805
-12.8753
-12.8692
-12.8622
-12.8548
-12.847
-12.8391
-12.8311
-12.8233
-12.8156
-12.808
-12.8005
-12.7932
-12.7859
-12.7786
-12.7713
-12.7638
-12.7562
-12.7483
-12.7401
-12.7317
-12.7229
-12.7138
-12.7045
-12.6949
-12.6851
-12.6753
-12.6655
-12.6558
-12.6464
-12.6374
-12.629
-12.6214
-12.6148
-12.6094
-12.6054
-12.6032
-12.6029
-12.6047
-12.6089
-12.6156
-12.6258
-12.6414
-12.8977
-12.9086
-12.9153
-12.9191
-12.9205
-12.9198
-12.9169
-12.9121
-12.9058
-12.8983
-12.8898
-12.8807
-12.8712
-12.8615
-12.8518
-12.8422
-12.8328
-12.8235
-12.8144
-12.8055
-12.7966
-12.7877
-12.7787
-12.7697
-12.7604
-12.7508
-12.7409
-12.7306
-12.72
-12.7089
-12.6975
-12.6857
-12.6737
-12.6615
-12.6492
-12.637
-12.625
-12.6134
-12.6024
-12.5924
-12.5834
-12.576
-12.5702
-12.5666
-12.5653
-12.5668
-12.5712
-12.5787
-12.5906
-12.6091
-12.9267
-12.9406
-12.9492
-12.9538
-12.9556
-12.9546
-12.951
-12.9451
-12.9374
-12.9283
-12.918
-12.9071
-12.8957
-12.8842
-12.8727
-12.8613
-12.8502
-12.8392
-12.8285
-12.8179
-12.8074
-12.797
-12.7865
-12.7758
-12.7649
-12.7537
-12.7421
-12.73
-12.7175
-12.7045
-12.691
-12.677
-12.6626
-12.6479
-12.633
-12.6181
-12.6033
-12.5889
-12.5751
-12.5623
-12.5507
-12.5408
-12.5329
-12.5275
-12.525
-12.5258
-12.5302
-12.5384
-12.552
-12.5735
-12.9585
-12.9755
-12.9859
-12.9913
-12.9933
-12.9918
-12.9871
-12.9798
-12.9704
-12.9593
-12.9471
-12.9341
-12.9207
-12.9072
-12.8937
-12.8805
-12.8675
-12.8549
-12.8425
-12.8303
-12.8183
-12.8064
-12.7944
-12.7822
-12.7697
-12.7569
-12.7436
-12.7299
-12.7155
-12.7005
-12.6849
-12.6687
-12.6519
-12.6347
-12.6171
-12.5993
-12.5815
-12.564
-12.5471
-12.5311
-12.5164
-12.5036
-12.493
-12.4854
-12.4812
-12.481
-12.4852
-12.4939
-12.5092
-12.5339
-12.9936
-13.0141
-13.0263
-13.0324
-13.0342
-13.0318
-13.0257
-13.0166
-13.005
-12.9916
-12.977
-12.9616
-12.9459
-12.9302
-12.9147
-12.8995
-12.8847
-12.8703
-12.8563
-12.8426
-12.8291
-12.8156
-12.8022
-12.7885
-12.7746
-12.7603
-12.7454
-12.7299
-12.7138
-12.6969
-12.6792
-12.6607
-12.6415
-12.6217
-12.6013
-12.5804
-12.5594
-12.5386
-12.5181
-12.4985
-12.4803
-12.4641
-12.4503
-12.4399
-12.4335
-12.4317
-12.4353
-12.4443
-12.4613
-12.4894
-13.0329
-13.0572
-13.0713
-13.0779
-13.0791
-13.0754
-13.0673
-13.0556
-13.0413
-13.0251
-13.0077
-12.9896
-12.9713
-12.9532
-12.9354
-12.9182
-12.9014
-12.8853
-12.8696
-12.8544
-12.8394
-12.8246
-12.8097
-12.7947
-12.7794
-12.7636
-12.7472
-12.7302
-12.7123
-12.6935
-12.6738
-12.6532
-12.6315
-12.609
-12.5856
-12.5616
-12.5372
-12.5126
-12.4883
-12.4647
-12.4424
-12.422
-12.4044
-12.3904
-12.381
-12.3772
-12.3795
-12.3886
-12.4072
-12.4391
-13.0775
-13.1061
-13.122
-13.1288
-13.1289
-13.1231
-13.1122
-13.0974
-13.0796
-13.06
-13.0392
-13.0179
-12.9967
-12.9759
-12.9557
-12.9362
-12.9175
-12.8995
-12.8822
-12.8655
-12.8491
-12.8329
-12.8167
-12.8005
-12.7838
-12.7667
-12.749
-12.7304
-12.7109
-12.6904
-12.6687
-12.6459
-12.6219
-12.5966
-12.5703
-12.543
-12.5149
-12.4863
-12.4577
-12.4295
-12.4024
-12.3772
-12.3549
-12.3365
-12.3232
-12.3163
-12.3168
-12.3255
-12.3456
-12.3817
-13.1288
-13.1622
-13.18
-13.1864
-13.1846
-13.1757
-13.161
-13.142
-13.1199
-13.096
-13.0713
-13.0463
-13.0218
-12.9979
-12.9751
-12.9533
-12.9325
-12.9127
-12.8938
-12.8756
-12.8578
-12.8404
-12.823
-12.8056
-12.7878
-12.7695
-12.7505
-12.7305
-12.7096
-12.6874
-12.6639
-12.639
-12.6126
-12.5847
-12.5553
-12.5246
-12.4926
-12.4598
-12.4264
-12.3931
-12.3605
-12.3296
-12.3014
-12.2774
-12.2591
-12.248
-12.2457
-12.2532
-12.2748
-12.3155
-13.1884
-13.2276
-13.2471
-13.2522
-13.2474
-13.2341
-13.2142
-13.1897
-13.1622
-13.1331
-13.1036
-13.0744
-13.0461
-13.0189
-12.9932
-12.969
-12.9461
-12.9245
-12.9039
-12.8843
-12.8653
-12.8467
-12.8283
-12.8098
-12.791
-12.7717
-12.7515
-12.7304
-12.7081
-12.6845
-12.6593
-12.6324
-12.6038
-12.5733
-12.5409
-12.5067
-12.4707
-12.4333
-12.3947
-12.3556
-12.3167
-12.279
-12.2438
-12.2128
-12.1878
-12.171
-12.1644
-12.1698
-12.1925
-12.2387
-13.2589
-13.3048
-13.3257
-13.3282
-13.3186
-13.299
-13.2721
-13.2405
-13.2062
-13.1708
-13.1357
-13.1016
-13.069
-13.0383
-13.0096
-12.9828
-12.9578
-12.9344
-12.9123
-12.8914
-12.8713
-12.8517
-12.8324
-12.813
-12.7934
-12.7732
-12.7521
-12.73
-12.7066
-12.6816
-12.6549
-12.6263
-12.5956
-12.5626
-12.5272
-12.4895
-12.4494
-12.4072
-12.363
-12.3175
-12.2714
-12.2257
-12.182
-12.142
-12.1083
-12.0837
-12.0709
-12.0727
-12.0958
-12.1484
-13.3435
-13.3975
-13.4189
-13.4169
-13.3998
-13.3713
-13.335
-13.2941
-13.2513
-13.2085
-13.1668
-13.1271
-13.0899
-13.0554
-13.0235
-12.9942
-12.9671
-12.942
-12.9185
-12.8965
-12.8754
-12.855
-12.835
-12.815
-12.7947
-12.7738
-12.7521
-12.7292
-12.7049
-12.6789
-12.6509
-12.6208
-12.5881
-12.5528
-12.5147
-12.4735
-12.4293
-12.3821
-12.332
-12.2794
-12.2251
-12.1701
-12.116
-12.0649
-12.0198
-11.9844
-11.9625
-11.9582
-11.9808
-12.0408
-13.4472
-13.5108
-13.5311
-13.521
-13.4927
-13.4516
-13.4027
-13.3501
-13.2968
-13.245
-13.1959
-13.1501
-13.1079
-13.0694
-13.0344
-13.0025
-12.9735
-12.9468
-12.9222
-12.8992
-12.8774
-12.8564
-12.8359
-12.8155
-12.7948
-12.7736
-12.7514
-12.728
-12.7031
-12.6763
-12.6474
-12.616
-12.5817
-12.5444
-12.5037
-12.4593
-12.411
-12.3587
-12.3024
-12.2422
-12.1788
-12.113
-12.0464
-11.9815
-11.9215
-11.8713
-11.836
-11.8218
-11.8418
-11.9106
-13.5777
-13.6524
-13.6681
-13.6444
-13.599
-13.5401
-13.4745
-13.407
-13.3412
-13.2791
-13.2215
-13.1691
-13.1218
-13.0794
-13.0413
-13.0071
-12.9764
-12.9485
-12.923
-12.8993
-12.8771
-12.8558
-12.8351
-12.8145
-12.7937
-12.7724
-12.7501
-12.7265
-12.7013
-12.6741
-12.6445
-12.6122
-12.5767
-12.5377
-12.4948
-12.4474
-12.3953
-12.3381
-12.2754
-12.2073
-12.1339
-12.0558
-11.9745
-11.8923
-11.8131
-11.7425
-11.6875
-11.6572
-11.6707
-11.7492
-13.7473
-13.8332
-13.8376
-13.7909
-13.7199
-13.6364
-13.5488
-13.463
-13.3823
-13.3085
-13.242
-13.1828
-13.1304
-13.0842
-13.0434
-13.0074
-12.9753
-12.9466
-12.9206
-12.8966
-12.8743
-12.853
-12.8324
-12.8121
-12.7915
-12.7704
-12.7483
-12.7248
-12.6997
-12.6724
-12.6425
-12.6097
-12.5735
-12.5333
-12.4886
-12.4388
-12.3833
-12.3215
-12.2527
-12.1764
-12.0924
-12.0008
-11.9024
-11.7992
-11.6952
-11.5966
-11.5127
-11.4563
-11.4556
-11.5434
-13.9773
-14.0703
-14.0495
-13.9648
-13.8555
-13.7381
-13.6225
-13.5145
-13.417
-13.3306
-13.2549
-13.1892
-13.1322
-13.0828
-13.04
-13.0026
-12.9698
-12.9408
-12.9147
-12.8909
-12.8689
-12.8481
-12.828
-12.8082
-12.7882
-12.7676
-12.7461
-12.7231
-12.6984
-12.6715
-12.6418
-12.6091
-12.5726
-12.5317
-12.4859
-12.4344
-12.3762
-12.3104
-12.236
-12.152
-12.0573
-11.9512
-11.8336
-11.7055
-11.57
-11.4337
-11.3074
-11.2085
-11.1787
-11.2702
-14.307
-14.389
-14.3157
-14.1683
-14.0029
-13.8401
-13.6898
-13.5564
-13.4407
-13.3417
-13.2576
-13.1862
-13.1256
-13.0741
-13.0301
-12.9923
-12.9595
-12.9308
-12.9052
-12.8822
-12.861
-12.841
-12.8219
-12.803
-12.7839
-12.7643
-12.7437
-12.7217
-12.6978
-12.6717
-12.6428
-12.6106
-12.5744
-12.5337
-12.4876
-12.4351
-12.3752
-12.3066
-12.2278
-12.137
-12.0323
-11.9118
-11.7737
-11.6171
-11.4431
-11.2568
-11.0691
-10.9017
-10.8133
-10.888
-14.8085
-14.8271
-14.6476
-14.3989
-14.1536
-13.9325
-13.7416
-13.5811
-13.4478
-13.3377
-13.2468
-13.1717
-13.1092
-13.057
-13.0131
-12.9759
-12.9441
-12.9165
-12.8922
-12.8704
-12.8506
-12.832
-12.8142
-12.7967
-12.779
-12.7607
-12.7415
-12.7208
-12.6983
-12.6734
-12.6457
-12.6147
-12.5797
-12.5399
-12.4944
-12.4422
-12.382
-12.3121
-12.2305
-12.1349
-12.0221
-11.8887
-11.7306
-11.5438
-11.3252
-11.0752
-10.8006
-10.5239
-10.3202
-10.3211
-15.6128
-15.435
-15.053
-14.6473
-14.2922
-14.0003
-13.7659
-13.5797
-13.432
-13.3144
-13.2201
-13.144
-13.082
-13.0311
-12.9889
-12.9536
-12.9237
-12.8981
-12.8758
-12.856
-12.8381
-12.8214
-12.8054
-12.7896
-12.7737
-12.7572
-12.7397
-12.7207
-12.7
-12.6769
-12.651
-12.6218
-12.5886
-12.5506
-12.5069
-12.4562
-12.3973
-12.3281
-12.2463
-12.1488
-12.0314
-11.8888
-11.714
-11.4984
-11.232
-10.905
-10.5121
-10.0673
-9.6484
-9.43529
-17.0167
-16.2533
-15.5078
-14.8801
-14.3881
-14.0196
-13.7464
-13.5421
-13.3873
-13.2683
-13.1756
-13.1024
-13.0438
-12.9964
-12.9577
-12.9257
-12.8989
-12.8762
-12.8567
-12.8394
-12.8239
-12.8095
-12.7958
-12.7822
-12.7684
-12.754
-12.7386
-12.7218
-12.7032
-12.6824
-12.6588
-12.6321
-12.6014
-12.5661
-12.5252
-12.4776
-12.4217
-12.3556
-12.2767
-12.1813
-12.0644
-11.9191
-11.7353
-11.4988
-11.1894
-10.7795
-10.2395
-9.55861
-8.75778
-7.92552
-19.8501
-17.251
-15.8311
-14.9433
-14.3337
-13.9205
-13.6385
-13.4397
-13.295
-13.1869
-13.1044
-13.0402
-12.9895
-12.9491
-12.9163
-12.8896
-12.8675
-12.849
-12.8332
-12.8195
-12.8072
-12.7959
-12.785
-12.7742
-12.7632
-12.7515
-12.7387
-12.7247
-12.7089
-12.691
-12.6705
-12.647
-12.62
-12.5886
-12.5522
-12.5096
-12.4594
-12.3998
-12.3283
-12.2414
-12.1341
-11.9987
-11.8236
-11.5906
-11.2694
-10.8096
-10.1421
-9.18221
-7.67563
-4.95578
-24.7189
-18.3341
-15.6671
-14.5666
-13.9672
-13.6097
-13.3871
-13.2385
-13.1328
-13.0544
-12.9947
-12.9483
-12.9117
-12.8827
-12.8595
-12.8408
-12.8257
-12.8132
-12.8028
-12.794
-12.7862
-12.779
-12.772
-12.765
-12.7576
-12.7495
-12.7404
-12.73
-12.718
-12.7041
-12.6879
-12.6691
-12.6471
-12.6216
-12.5917
-12.5568
-12.5157
-12.4672
-12.4094
-12.3397
-12.2544
-12.1478
-12.0106
-11.8263
-11.5632
-11.1573
-10.4924
-9.29687
-6.51198
-0.000145586
)
;

boundaryField
{
    movingWallTop
    {
        type            zeroGradient;
    }
    movingWallBottom
    {
        type            zeroGradient;
    }
    fixedWalls
    {
        type            zeroGradient;
    }
    frontAndBack
    {
        type            empty;
    }
}


// ************************************************************************* //
