/*--------------------------------*- C++ -*----------------------------------*\
  =========                 |
  \\      /  F ield         | OpenFOAM: The Open Source CFD Toolbox
   \\    /   O peration     | Website:  https://openfoam.org
    \\  /    A nd           | Version:  7
     \\/     M anipulation  |
\*---------------------------------------------------------------------------*/
FoamFile
{
    version     2.0;
    format      ascii;
    class       surfaceScalarField;
    location    "0.0276";
    object      phi;
}
// * * * * * * * * * * * * * * * * * * * * * * * * * * * * * * * * * * * * * //

dimensions      [0 3 -1 0 0 0 0];

internalField   nonuniform List<scalar> 
4900
(
5.4553e-06
-5.45532e-06
9.95448e-06
-4.49918e-06
1.26952e-05
-2.74075e-06
1.44125e-05
-1.71728e-06
1.55268e-05
-1.1143e-06
1.62772e-05
-7.50355e-07
1.68047e-05
-5.27527e-07
1.71911e-05
-3.86418e-07
1.74838e-05
-2.92702e-07
1.77112e-05
-2.27427e-07
1.78913e-05
-1.80051e-07
1.80358e-05
-1.44493e-07
1.81529e-05
-1.17087e-07
1.82484e-05
-9.5517e-08
1.83266e-05
-7.82558e-08
1.83909e-05
-6.42509e-08
1.84437e-05
-5.2751e-08
1.84869e-05
-4.32015e-08
1.8522e-05
-3.5181e-08
1.85504e-05
-2.83604e-08
1.85729e-05
-2.24753e-08
1.85902e-05
-1.73081e-08
1.86029e-05
-1.2674e-08
1.86113e-05
-8.41172e-09
1.86156e-05
-4.37553e-09
1.86161e-05
-4.29794e-10
1.86125e-05
3.55982e-09
1.86048e-05
7.72533e-09
1.85926e-05
1.22086e-08
1.85754e-05
1.71638e-08
1.85526e-05
2.27663e-08
1.85234e-05
2.92222e-08
1.84866e-05
3.67821e-08
1.84409e-05
4.57598e-08
1.83843e-05
5.65599e-08
1.83146e-05
6.97187e-08
1.82286e-05
8.59685e-08
1.81223e-05
1.0634e-07
1.799e-05
1.32333e-07
1.78237e-05
1.66224e-07
1.76121e-05
2.11616e-07
1.73376e-05
2.74501e-07
1.69723e-05
3.65345e-07
1.6469e-05
5.03235e-07
1.57455e-05
7.23551e-07
1.46556e-05
1.08985e-06
1.29447e-05
1.71089e-06
1.01624e-05
2.7824e-06
5.55766e-06
4.60469e-06
5.55766e-06
-1.18593e-07
-5.33673e-06
1.83259e-06
-6.45036e-06
4.41263e-06
-5.32079e-06
6.7253e-06
-4.02994e-06
8.60023e-06
-2.98923e-06
1.00759e-05
-2.22605e-06
1.12323e-05
-1.68391e-06
1.21438e-05
-1.29792e-06
1.28692e-05
-1.01812e-06
1.34524e-05
-8.1066e-07
1.39257e-05
-6.53305e-07
1.43127e-05
-5.31448e-07
1.46309e-05
-4.35359e-07
1.48938e-05
-3.58411e-07
1.51115e-05
-2.95978e-07
1.5292e-05
-2.44736e-07
1.54415e-05
-2.02239e-07
1.5565e-05
-1.66638e-07
1.56663e-05
-1.36501e-07
1.57486e-05
-1.10689e-07
1.58144e-05
-8.82767e-08
1.58656e-05
-6.84926e-08
1.59036e-05
-5.06746e-08
1.59294e-05
-3.42392e-08
1.59437e-05
-1.86555e-08
1.59467e-05
-3.42414e-09
1.59383e-05
1.19425e-08
1.59181e-05
2.79373e-08
1.58852e-05
4.50784e-08
1.58385e-05
6.3931e-08
1.57761e-05
8.51337e-08
1.56959e-05
1.09432e-07
1.55949e-05
1.37722e-07
1.54696e-05
1.71115e-07
1.53151e-05
2.11025e-07
1.51255e-05
2.59292e-07
1.48931e-05
3.18381e-07
1.46078e-05
3.91667e-07
1.42562e-05
4.83896e-07
1.38206e-05
6.01918e-07
1.32763e-05
7.55871e-07
1.25897e-05
9.61118e-07
1.17137e-05
1.24133e-06
1.05838e-05
1.63314e-06
9.11569e-06
2.19165e-06
7.21472e-06
2.99083e-06
4.82669e-06
4.09892e-06
2.11938e-06
5.4897e-06
1.06032e-08
6.71347e-06
5.56827e-06
-1.08237e-06
-4.25436e-06
-7.55377e-07
-6.77735e-06
5.84579e-07
-6.66075e-06
2.29046e-06
-5.73583e-06
3.993e-06
-4.69177e-06
5.53318e-06
-3.76623e-06
6.8642e-06
-3.01493e-06
7.99004e-06
-2.42376e-06
8.9337e-06
-1.96177e-06
9.72234e-06
-1.59931e-06
1.03814e-05
-1.31241e-06
1.09329e-05
-1.08291e-06
1.13949e-05
-8.97351e-07
1.17823e-05
-7.45799e-07
1.21072e-05
-6.20858e-07
1.23794e-05
-5.16953e-07
1.2607e-05
-4.29813e-07
1.27964e-05
-3.56104e-07
1.29531e-05
-2.93176e-07
1.30813e-05
-2.38873e-07
1.31844e-05
-1.91412e-07
1.32652e-05
-1.49275e-07
1.33257e-05
-1.11148e-07
1.33673e-05
-7.58545e-08
1.33909e-05
-4.23147e-08
1.3397e-05
-9.50625e-09
1.33854e-05
2.35738e-08
1.33554e-05
5.79406e-08
1.33058e-05
9.46597e-08
1.32349e-05
1.34888e-07
1.31401e-05
1.79923e-07
1.30182e-05
2.31264e-07
1.28653e-05
2.90692e-07
1.2676e-05
3.60378e-07
1.2444e-05
4.43032e-07
1.21612e-05
5.42108e-07
1.18175e-05
6.62098e-07
1.14002e-05
8.08948e-07
1.08934e-05
9.90657e-07
1.02772e-05
1.21812e-06
9.52677e-06
1.50632e-06
8.61213e-06
1.87575e-06
7.49949e-06
2.35398e-06
6.15668e-06
2.97595e-06
4.56869e-06
3.77963e-06
2.7729e-06
4.78663e-06
9.27704e-07
5.94411e-06
-5.75044e-07
6.99245e-06
-1.03917e-06
7.1776e-06
4.52909e-06
-9.13814e-07
-3.34055e-06
-1.34551e-06
-6.34566e-06
-9.46768e-07
-7.05949e-06
2.59146e-09
-6.68519e-06
1.20748e-06
-5.89666e-06
2.46989e-06
-5.02864e-06
3.67717e-06
-4.2222e-06
4.77692e-06
-3.52351e-06
5.75177e-06
-2.93662e-06
6.60237e-06
-2.44991e-06
7.33763e-06
-2.04767e-06
7.96952e-06
-1.7148e-06
8.51047e-06
-1.4383e-06
8.97219e-06
-1.20751e-06
9.36516e-06
-1.01383e-06
9.69855e-06
-8.50344e-07
9.98024e-06
-7.11505e-07
1.02169e-05
-5.92787e-07
1.04142e-05
-4.90467e-07
1.05768e-05
-4.01435e-07
1.07084e-05
-3.23047e-07
1.08121e-05
-2.53009e-07
1.08903e-05
-1.89295e-07
1.09445e-05
-1.30067e-07
1.09758e-05
-7.36186e-08
1.09846e-05
-1.83173e-08
1.09707e-05
3.74438e-08
1.09334e-05
9.52952e-08
1.08711e-05
1.56944e-07
1.07818e-05
2.24234e-07
1.06625e-05
2.99211e-07
1.05095e-05
3.84209e-07
1.03183e-05
4.81957e-07
1.00829e-05
5.95716e-07
9.7965e-06
7.29456e-07
9.45052e-06
8.88089e-07
9.03484e-06
1.07778e-06
8.53746e-06
1.30633e-06
7.94444e-06
1.58367e-06
7.24017e-06
1.9224e-06
6.40829e-06
2.3382e-06
5.43416e-06
2.84988e-06
4.31022e-06
3.47792e-06
3.04664e-06
4.23952e-06
1.69066e-06
5.13562e-06
3.56609e-07
6.12068e-06
-7.4005e-07
7.04077e-06
-1.27276e-06
7.52516e-06
-9.17665e-07
6.8225e-06
3.61143e-06
-6.66467e-07
-2.67408e-06
-1.30408e-06
-5.70805e-06
-1.43363e-06
-6.92993e-06
-1.0704e-06
-7.04842e-06
-3.68165e-07
-6.59889e-06
5.15264e-07
-5.91207e-06
1.46215e-06
-5.16909e-06
2.39709e-06
-4.45844e-06
3.27736e-06
-3.8169e-06
4.08211e-06
-3.25465e-06
4.80383e-06
-2.76939e-06
5.44271e-06
-2.35367e-06
6.00297e-06
-1.99856e-06
6.49074e-06
-1.69529e-06
6.91282e-06
-1.4359e-06
7.27592e-06
-1.21344e-06
7.58635e-06
-1.02194e-06
7.84982e-06
-8.56256e-07
8.07134e-06
-7.11989e-07
8.25523e-06
-5.85319e-07
8.40508e-06
-4.72899e-07
8.52383e-06
-3.71757e-07
8.61373e-06
-2.79203e-07
8.67643e-06
-1.92759e-07
8.7129e-06
-1.1009e-07
8.72352e-06
-2.89413e-08
8.70805e-06
5.29177e-08
8.66559e-06
1.37755e-07
8.59459e-06
2.27939e-07
8.49282e-06
3.26005e-07
8.35729e-06
4.3474e-07
8.18423e-06
5.5727e-07
7.96901e-06
6.97178e-07
7.70609e-06
8.5864e-07
7.38896e-06
1.04659e-06
7.01014e-06
1.26691e-06
6.56127e-06
1.52665e-06
6.03333e-06
1.83427e-06
5.41728e-06
2.19973e-06
4.70519e-06
2.63449e-06
3.89249e-06
3.15089e-06
2.98192e-06
3.76045e-06
1.99006e-06
4.46978e-06
9.57476e-07
5.27211e-06
-3.76067e-08
6.1307e-06
-8.66214e-07
6.94928e-06
-1.34914e-06
7.5237e-06
-1.30216e-06
7.47817e-06
-6.87435e-07
6.20778e-06
2.92399e-06
-4.73291e-07
-2.20079e-06
-1.10911e-06
-5.07223e-06
-1.48843e-06
-6.55062e-06
-1.5043e-06
-7.03255e-06
-1.20209e-06
-6.9011e-06
-6.76476e-07
-6.43769e-06
-2.07094e-08
-5.82486e-06
6.91831e-07
-5.17098e-06
1.41002e-06
-4.53508e-06
2.10131e-06
-3.94594e-06
2.74684e-06
-3.41492e-06
3.33707e-06
-2.94391e-06
3.86853e-06
-2.53002e-06
4.34142e-06
-2.16818e-06
4.75812e-06
-1.8526e-06
5.12211e-06
-1.57744e-06
5.43735e-06
-1.33718e-06
5.70784e-06
-1.12674e-06
5.93737e-06
-9.41521e-07
6.12939e-06
-7.77335e-07
6.28688e-06
-6.3039e-07
6.41233e-06
-4.97209e-07
6.5077e-06
-3.7457e-07
6.57438e-06
-2.59443e-07
6.61322e-06
-1.4893e-07
6.62448e-06
-4.02041e-08
6.60785e-06
6.95489e-08
6.56241e-06
1.83194e-07
6.48664e-06
3.03709e-07
6.37839e-06
4.34259e-07
6.23486e-06
5.78271e-07
6.05261e-06
7.39523e-07
5.82754e-06
9.2224e-07
5.55498e-06
1.1312e-06
5.22972e-06
1.37185e-06
4.84623e-06
1.65039e-06
4.39904e-06
1.97384e-06
3.88334e-06
2.34997e-06
3.29601e-06
2.78705e-06
2.63739e-06
3.29311e-06
1.91391e-06
3.87438e-06
1.14206e-06
4.5323e-06
3.53857e-07
5.25798e-06
-3.96602e-07
6.02256e-06
-1.02763e-06
6.76173e-06
-1.43098e-06
7.35264e-06
-1.49198e-06
7.5847e-06
-1.14675e-06
7.13294e-06
-4.99449e-07
5.56048e-06
2.42454e-06
-3.42982e-07
-1.85781e-06
-9.13332e-07
-4.50188e-06
-1.38808e-06
-6.07587e-06
-1.62522e-06
-6.79541e-06
-1.60577e-06
-6.92054e-06
-1.37134e-06
-6.67212e-06
-9.82765e-07
-6.21343e-06
-4.98651e-07
-5.6551e-06
3.32322e-08
-5.06697e-06
5.77547e-07
-4.49026e-06
1.10998e-06
-3.94736e-06
1.61493e-06
-3.44886e-06
2.0832e-06
-2.99829e-06
2.51008e-06
-2.59506e-06
2.89386e-06
-2.23638e-06
3.23478e-06
-1.91836e-06
3.53424e-06
-1.63664e-06
3.79426e-06
-1.38676e-06
4.01711e-06
-1.16437e-06
4.20507e-06
-9.65299e-07
4.36026e-06
-7.85575e-07
4.48448e-06
-6.21439e-07
4.57922e-06
-4.69308e-07
4.64552e-06
-3.25737e-07
4.68396e-06
-1.87375e-07
4.69468e-06
-5.09191e-08
4.67729e-06
8.69397e-08
4.63091e-06
2.29571e-07
4.55416e-06
3.80463e-07
4.44513e-06
5.43283e-07
4.30146e-06
7.21943e-07
4.12032e-06
9.20663e-07
3.89853e-06
1.14403e-06
3.63267e-06
1.39706e-06
3.31931e-06
1.68521e-06
2.95539e-06
2.01432e-06
2.5387e-06
2.39053e-06
2.06879e-06
2.81988e-06
1.54818e-06
3.30766e-06
9.84134e-07
3.85715e-06
3.91087e-07
4.46742e-06
-2.06308e-07
5.1297e-06
-7.69874e-07
5.82155e-06
-1.24545e-06
6.49814e-06
-1.56386e-06
7.08013e-06
-1.65015e-06
7.43894e-06
-1.44864e-06
7.38319e-06
-9.71266e-07
6.65556e-06
-3.69723e-07
4.95894e-06
2.05482e-06
-2.58513e-07
-1.59929e-06
-7.53785e-07
-4.0066e-06
-1.24797e-06
-5.58168e-06
-1.60357e-06
-6.43981e-06
-1.7709e-06
-6.75322e-06
-1.75529e-06
-6.68773e-06
-1.58891e-06
-6.37982e-06
-1.31212e-06
-5.93189e-06
-9.63428e-07
-5.41566e-06
-5.75089e-07
-4.8786e-06
-1.72025e-07
-4.35042e-06
2.27636e-07
-3.84852e-06
6.11416e-07
-3.38207e-06
9.71226e-07
-2.95487e-06
1.30223e-06
-2.56739e-06
1.60192e-06
-2.21805e-06
1.86937e-06
-1.90408e-06
2.10467e-06
-1.62206e-06
2.30855e-06
-1.36825e-06
2.48204e-06
-1.13879e-06
2.62626e-06
-9.29796e-07
2.74228e-06
-7.37453e-07
2.83097e-06
-5.57995e-07
2.89295e-06
-3.87719e-07
2.92853e-06
-2.2296e-07
2.93768e-06
-6.00634e-08
2.91996e-06
1.04652e-07
2.8746e-06
2.74937e-07
2.80041e-06
4.54651e-07
2.69589e-06
6.47805e-07
2.55923e-06
8.58603e-07
2.38842e-06
1.09147e-06
2.18138e-06
1.35107e-06
1.93618e-06
1.64226e-06
1.65133e-06
1.97006e-06
1.32622e-06
2.33943e-06
9.61798e-07
2.75495e-06
5.61408e-07
3.22027e-06
1.31988e-07
3.73708e-06
-3.1443e-07
4.30357e-06
-7.58963e-07
4.91195e-06
-1.17411e-06
5.54485e-06
-1.52261e-06
6.17005e-06
-1.75819e-06
6.73372e-06
-1.8303e-06
7.15224e-06
-1.69607e-06
7.3047e-06
-1.34266e-06
7.02978e-06
-8.21138e-07
6.13404e-06
-2.84381e-07
4.42218e-06
1.77044e-06
-2.0316e-07
-1.39613e-06
-6.31645e-07
-3.57812e-06
-1.11184e-06
-5.10149e-06
-1.52451e-06
-6.02714e-06
-1.80943e-06
-6.4683e-06
-1.95051e-06
-6.54664e-06
-1.9585e-06
-6.37183e-06
-1.85714e-06
-6.03325e-06
-1.67398e-06
-5.59882e-06
-1.43523e-06
-5.11735e-06
-1.16329e-06
-4.62236e-06
-8.76087e-07
-4.13573e-06
-5.87209e-07
-3.67094e-06
-3.06525e-07
-3.23555e-06
-4.08788e-08
-2.83303e-06
2.05222e-07
-2.46415e-06
4.29008e-07
-2.12787e-06
6.28953e-07
-1.82201e-06
8.04379e-07
-1.54368e-06
9.55147e-07
-1.28956e-06
1.08142e-06
-1.05607e-06
1.1835e-06
-8.39531e-07
1.26167e-06
-6.36161e-07
1.31611e-06
-4.42158e-07
1.34684e-06
-2.53689e-07
1.35366e-06
-6.68862e-08
1.33614e-06
1.22168e-07
1.29362e-06
3.17459e-07
1.22521e-06
5.23065e-07
1.12984e-06
7.43168e-07
1.00638e-06
9.82064e-07
8.53704e-07
1.24415e-06
6.7089e-07
1.53388e-06
4.57482e-07
1.85567e-06
2.13823e-07
2.21372e-06
-5.8467e-08
2.61172e-06
-3.55874e-07
3.05236e-06
-6.72203e-07
3.5366e-06
-9.97623e-07
4.0625e-06
-1.31762e-06
4.62357e-06
-1.61203e-06
5.20636e-06
-1.85446e-06
5.78728e-06
-2.01284e-06
6.32843e-06
-2.05207e-06
6.77294e-06
-1.94019e-06
7.04037e-06
-1.65975e-06
7.02426e-06
-1.22487e-06
6.5949e-06
-7.02147e-07
5.61132e-06
-2.27618e-07
3.94765e-06
1.54282e-06
-1.65828e-07
-1.23031e-06
-5.39661e-07
-3.20429e-06
-9.93499e-07
-4.64765e-06
-1.4285e-06
-5.59214e-06
-1.78438e-06
-6.11242e-06
-2.03405e-06
-6.29697e-06
-2.17395e-06
-6.23193e-06
-2.21463e-06
-5.99258e-06
-2.17342e-06
-5.64002e-06
-2.06959e-06
-5.22118e-06
-1.92145e-06
-4.7705e-06
-1.74495e-06
-4.31223e-06
-1.55318e-06
-3.86271e-06
-1.35645e-06
-3.43228e-06
-1.16255e-06
-3.02693e-06
-9.77192e-07
-2.64951e-06
-8.04407e-07
-2.30065e-06
-6.46948e-07
-1.97947e-06
-5.06612e-07
-1.68401e-06
-3.84526e-07
-1.41164e-06
-2.81362e-07
-1.15924e-06
-1.97519e-07
-9.23374e-07
-1.33254e-07
-7.00426e-07
-8.87828e-08
-4.86629e-07
-6.43526e-08
-2.78119e-07
-6.02851e-08
-7.09537e-08
-7.69973e-08
1.3888e-07
-1.14998e-07
3.5546e-07
-1.74857e-07
5.82925e-07
-2.57149e-07
8.25459e-07
-3.62351e-07
1.08727e-06
-4.90711e-07
1.37251e-06
-6.42048e-07
1.68522e-06
-8.15494e-07
2.02912e-06
-1.00914e-06
2.40737e-06
-1.21963e-06
2.82221e-06
-1.4416e-06
3.27432e-06
-1.66706e-06
3.76206e-06
-1.88481e-06
4.28025e-06
-2.07979e-06
4.81856e-06
-2.23291e-06
5.35947e-06
-2.32131e-06
5.87568e-06
-2.32002e-06
6.32715e-06
-2.20537e-06
6.65829e-06
-1.96112e-06
6.79612e-06
-1.58774e-06
6.65087e-06
-1.11416e-06
6.12132e-06
-6.09496e-07
5.10665e-06
-1.88575e-07
3.52673e-06
1.35425e-06
-1.39798e-07
-1.09051e-06
-4.70213e-07
-2.87387e-06
-8.95024e-07
-4.22284e-06
-1.33359e-06
-5.15357e-06
-1.73018e-06
-5.71583e-06
-2.05324e-06
-5.97391e-06
-2.29046e-06
-5.9947e-06
-2.44281e-06
-5.84023e-06
-2.51916e-06
-5.56368e-06
-2.53217e-06
-5.20816e-06
-2.49557e-06
-4.8071e-06
-2.42243e-06
-4.38538e-06
-2.32433e-06
-3.96081e-06
-2.21102e-06
-3.54559e-06
-2.09038e-06
-3.14757e-06
-1.96862e-06
-2.77128e-06
-1.85046e-06
-2.41881e-06
-1.73946e-06
-2.09047e-06
-1.63821e-06
-1.78526e-06
-1.54858e-06
-1.50127e-06
-1.47192e-06
-1.2359e-06
-1.40919e-06
-9.86104e-07
-1.3611e-06
-7.48518e-07
-1.3282e-06
-5.1953e-07
-1.31095e-06
-2.9537e-07
-1.30976e-06
-7.21456e-08
-1.325e-06
1.5412e-07
-1.357e-06
3.87462e-07
-1.40601e-06
6.31937e-07
-1.47214e-06
8.91583e-07
-1.55523e-06
1.17036e-06
-1.65474e-06
1.47202e-06
-1.76955e-06
1.80003e-06
-1.89771e-06
2.15727e-06
-2.03613e-06
2.54579e-06
-2.18024e-06
2.96632e-06
-2.32358e-06
3.41766e-06
-2.45741e-06
3.89589e-06
-2.57036e-06
4.3932e-06
-2.64833e-06
4.89652e-06
-2.67471e-06
5.38586e-06
-2.6314e-06
5.83237e-06
-2.50079e-06
6.19654e-06
-2.26932e-06
6.42682e-06
-1.93276e-06
6.45956e-06
-1.5031e-06
6.22121e-06
-1.01608e-06
5.6343e-06
-5.36962e-07
4.62753e-06
-1.6063e-07
3.1504e-06
1.19362e-06
-1.21056e-07
-9.69451e-07
-4.1722e-07
-2.57771e-06
-8.14432e-07
-3.82562e-06
-1.24694e-06
-4.72106e-06
-1.66511e-06
-5.29767e-06
-2.03661e-06
-5.60241e-06
-2.34431e-06
-5.68701e-06
-2.58265e-06
-5.60188e-06
-2.75398e-06
-5.39235e-06
-2.86532e-06
-5.09683e-06
-2.92596e-06
-4.74646e-06
-2.94582e-06
-4.36551e-06
-2.93443e-06
-3.9722e-06
-2.90034e-06
-3.57968e-06
-2.85091e-06
-3.19699e-06
-2.79227e-06
-2.82992e-06
-2.72938e-06
-2.4817e-06
-2.66617e-06
-2.15368e-06
-2.60572e-06
-1.84571e-06
-2.5504e-06
-1.55659e-06
-2.50202e-06
-1.28427e-06
-2.46197e-06
-1.02615e-06
-2.4313e-06
-7.79192e-07
-2.4108e-06
-5.40027e-07
-2.40109e-06
-3.05079e-07
-2.40262e-06
-7.06149e-08
-2.4157e-06
1.67196e-07
-2.44046e-06
4.12226e-07
-2.47686e-06
6.68333e-07
-2.52456e-06
9.39286e-07
-2.58288e-06
1.22867e-06
-2.65062e-06
1.53976e-06
-2.72591e-06
1.87532e-06
-2.80602e-06
2.23738e-06
-2.88707e-06
2.62685e-06
-2.96384e-06
3.04308e-06
-3.02945e-06
3.48328e-06
-3.07522e-06
3.94166e-06
-3.09057e-06
4.40855e-06
-3.06324e-06
4.86919e-06
-2.9799e-06
5.30252e-06
-2.82741e-06
5.67988e-06
-2.59493e-06
5.96406e-06
-2.27709e-06
6.10898e-06
-1.87816e-06
6.06063e-06
-1.41692e-06
5.75997e-06
-9.31011e-07
5.14839e-06
-4.79324e-07
4.17585e-06
-1.39833e-07
2.81091e-06
1.05378e-06
-1.07165e-07
-8.62286e-07
-3.76219e-07
-2.30865e-06
-7.48731e-07
-3.45311e-06
-1.17068e-06
-4.29911e-06
-1.59853e-06
-4.86982e-06
-2.00113e-06
-5.19981e-06
-2.35904e-06
-5.3291e-06
-2.66256e-06
-5.29836e-06
-2.90925e-06
-5.14565e-06
-3.10158e-06
-4.90449e-06
-3.24496e-06
-4.60308e-06
-3.34624e-06
-4.26423e-06
-3.4127e-06
-3.90574e-06
-3.45138e-06
-3.541e-06
-3.46871e-06
-3.17966e-06
-3.47035e-06
-2.82828e-06
-3.46108e-06
-2.49097e-06
-3.44492e-06
-2.16984e-06
-3.42512e-06
-1.86551e-06
-3.40434e-06
-1.57737e-06
-3.38466e-06
-1.30395e-06
-3.36772e-06
-1.04309e-06
-3.35481e-06
-7.92107e-07
-3.34688e-06
-5.47957e-07
-3.34463e-06
-3.07327e-07
-3.34852e-06
-6.67268e-08
-3.35876e-06
1.77437e-07
-3.37532e-06
4.28784e-07
-3.39786e-06
6.90878e-07
-3.42571e-06
9.67133e-07
-3.45773e-06
1.26069e-06
-3.49222e-06
1.57426e-06
-3.52682e-06
1.90992e-06
-3.55828e-06
2.26884e-06
-3.58235e-06
2.65091e-06
-3.5936e-06
3.05433e-06
-3.5853e-06
3.47498e-06
-3.54945e-06
3.90581e-06
-3.47686e-06
4.33596e-06
-3.35761e-06
4.74994e-06
-3.18183e-06
5.12675e-06
-2.94107e-06
5.43912e-06
-2.63021e-06
5.6532e-06
-2.2501e-06
5.72888e-06
-1.81071e-06
5.62124e-06
-1.33426e-06
5.28351e-06
-8.57605e-07
4.67174e-06
-4.32709e-07
3.75095e-06
-1.23813e-07
2.50201e-06
9.29972e-07
-9.66104e-08
-7.65676e-07
-3.44038e-07
-2.06123e-06
-6.95042e-07
-3.10211e-06
-1.10469e-06
-3.88946e-06
-1.53498e-06
-4.43953e-06
-1.95676e-06
-4.77803e-06
-2.34988e-06
-4.93598e-06
-2.70214e-06
-4.9461e-06
-3.00777e-06
-4.84002e-06
-3.26574e-06
-4.64653e-06
-3.4782e-06
-4.39063e-06
-3.64924e-06
-4.09319e-06
-3.78395e-06
-3.77103e-06
-3.88776e-06
-3.4372e-06
-3.96594e-06
-3.10147e-06
-4.02341e-06
-2.77082e-06
-4.06454e-06
-2.44984e-06
-4.09314e-06
-2.14124e-06
-4.11245e-06
-1.8462e-06
-4.12516e-06
-1.56467e-06
-4.13347e-06
-1.29564e-06
-4.13916e-06
-1.0374e-06
-4.14362e-06
-7.87651e-07
-4.14788e-06
-5.43696e-07
-4.15267e-06
-3.02538e-07
-4.1584e-06
-6.09879e-08
-4.16521e-06
1.84244e-07
-4.17288e-06
4.36456e-07
-4.18086e-06
6.98856e-07
-4.18817e-06
9.74447e-07
-4.19337e-06
1.26589e-06
-4.19444e-06
1.57533e-06
-4.18869e-06
1.90417e-06
-4.17266e-06
2.25281e-06
-4.14203e-06
2.62029e-06
-4.09158e-06
3.00387e-06
-4.01514e-06
3.39855e-06
-3.90577e-06
3.79644e-06
-3.75602e-06
4.1862e-06
-3.55845e-06
4.55237e-06
-3.30654e-06
4.87484e-06
-2.99592e-06
5.1285e-06
-2.62606e-06
5.28334e-06
-2.20234e-06
5.30515e-06
-1.73822e-06
5.15712e-06
-1.25726e-06
4.80256e-06
-7.94184e-07
4.20867e-06
-3.9437e-07
3.35114e-06
-1.11115e-07
2.21875e-06
8.18857e-07
-8.84221e-08
-6.77254e-07
-3.18435e-07
-1.83121e-06
-6.50949e-07
-2.7696e-06
-1.04805e-06
-3.49237e-06
-1.47647e-06
-4.01111e-06
-1.90934e-06
-4.34516e-06
-2.32666e-06
-4.51866e-06
-2.71492e-06
-4.55785e-06
-3.06609e-06
-4.48885e-06
-3.37652e-06
-4.33609e-06
-3.64576e-06
-4.12139e-06
-3.87555e-06
-3.86341e-06
-4.06897e-06
-3.57761e-06
-4.22984e-06
-3.27633e-06
-4.36222e-06
-2.96909e-06
-4.47016e-06
-2.66288e-06
-4.55742e-06
-2.36257e-06
-4.62746e-06
-2.07121e-06
-4.68329e-06
-1.79037e-06
-4.7275e-06
-1.52045e-06
-4.76228e-06
-1.26086e-06
-4.78941e-06
-1.01027e-06
-4.81028e-06
-7.66775e-07
-4.82595e-06
-5.28027e-07
-4.83711e-06
-2.91378e-07
-4.84412e-06
-5.39754e-08
-4.847e-06
1.87123e-07
-4.8454e-06
4.34854e-07
-4.83858e-06
6.92034e-07
-4.82536e-06
9.61232e-07
-4.8041e-06
1.24462e-06
-4.77259e-06
1.54381e-06
-4.72803e-06
1.85961e-06
-4.66698e-06
2.19176e-06
-4.58533e-06
2.53864e-06
-4.47832e-06
2.89686e-06
-4.34062e-06
3.26085e-06
-4.16658e-06
3.62241e-06
-3.9506e-06
3.97022e-06
-3.68768e-06
4.28945e-06
-3.37429e-06
4.56144e-06
-3.00946e-06
4.76367e-06
-2.5962e-06
4.87008e-06
-2.14298e-06
4.85194e-06
-1.66529e-06
4.67943e-06
-1.1867e-06
4.32397e-06
-7.39222e-07
3.76119e-06
-3.62391e-07
2.9743e-06
-1.00823e-07
1.95719e-06
7.18034e-07
-8.19615e-08
-5.95292e-07
-2.97827e-07
-1.61535e-06
-6.1454e-07
-2.45288e-06
-9.99606e-07
-3.1073e-06
-1.42371e-06
-3.587e-06
-1.86223e-06
-3.90665e-06
-2.29579e-06
-4.08509e-06
-2.71027e-06
-4.14336e-06
-3.09622e-06
-4.1029e-06
-3.4481e-06
-3.98422e-06
-3.76341e-06
-3.80607e-06
-4.04194e-06
-3.58488e-06
-4.28502e-06
-3.33452e-06
-4.49498e-06
-3.06637e-06
-4.67471e-06
-2.78936e-06
-4.8273e-06
-2.51029e-06
-4.95587e-06
-2.234e-06
-5.06336e-06
-1.96372e-06
-5.15246e-06
-1.70128e-06
-5.22555e-06
-1.44736e-06
-5.28469e-06
-1.20173e-06
-5.33156e-06
-9.63399e-07
-5.36751e-06
-7.30824e-07
-5.39353e-06
-5.0201e-07
-5.41025e-06
-2.74657e-07
-5.41795e-06
-4.62737e-08
-5.41655e-06
1.8572e-07
-5.40557e-06
4.23879e-07
-5.38416e-06
6.70616e-07
-5.351e-06
9.28072e-07
-5.30434e-06
1.19796e-06
-5.24193e-06
1.48141e-06
-5.16103e-06
1.77871e-06
-5.05839e-06
2.08912e-06
-4.93027e-06
2.41052e-06
-4.77258e-06
2.73917e-06
-4.58099e-06
3.06926e-06
-4.35124e-06
3.39265e-06
-4.07951e-06
3.69849e-06
-3.76304e-06
3.97298e-06
-3.40087e-06
4.19928e-06
-2.99479e-06
4.35759e-06
-2.5504e-06
4.42569e-06
-2.07825e-06
4.37978e-06
-1.59474e-06
4.19592e-06
-1.12275e-06
3.85198e-06
-6.91486e-07
3.32992e-06
-3.35437e-07
2.61825e-06
-9.23449e-08
1.71409e-06
6.25689e-07
-7.67986e-08
-5.18494e-07
-2.81089e-07
-1.41106e-06
-5.84351e-07
-2.14962e-06
-9.58291e-07
-2.73336e-06
-1.37684e-06
-3.16845e-06
-1.81741e-06
-3.46608e-06
-2.26148e-06
-3.64102e-06
-2.69479e-06
-3.71006e-06
-3.107e-06
-3.69068e-06
-3.49124e-06
-3.59998e-06
-3.84348e-06
-3.45384e-06
-4.1619e-06
-3.26645e-06
-4.44637e-06
-3.05005e-06
-4.6979e-06
-2.81484e-06
-4.91825e-06
-2.56901e-06
-5.10963e-06
-2.31891e-06
-5.27443e-06
-2.0692e-06
-5.41506e-06
-1.82309e-06
-5.5338e-06
-1.58253e-06
-5.63276e-06
-1.3484e-06
-5.71378e-06
-1.12071e-06
-5.77839e-06
-8.98788e-07
-5.82782e-06
-6.8139e-07
-5.86297e-06
-4.66862e-07
-5.88438e-06
-2.53251e-07
-5.89223e-06
-3.84214e-08
-5.88635e-06
1.79838e-07
-5.86617e-06
4.03702e-07
-5.83074e-06
6.35189e-07
-5.77871e-06
8.76035e-07
-5.70829e-06
1.12755e-06
-5.6173e-06
1.39042e-06
-5.50316e-06
1.66458e-06
-5.36294e-06
1.9489e-06
-5.19343e-06
2.24101e-06
-4.99127e-06
2.53701e-06
-4.7532e-06
2.83118e-06
-4.4763e-06
3.11575e-06
-4.15846e-06
3.38064e-06
-3.79885e-06
3.61338e-06
-3.39867e-06
3.79909e-06
-2.96183e-06
3.92075e-06
-2.49581e-06
3.95967e-06
-2.01242e-06
3.89639e-06
-1.52834e-06
3.71185e-06
-1.06537e-06
3.38901e-06
-6.50036e-07
2.91458e-06
-3.12585e-07
2.2808e-06
-8.52869e-08
1.4868e-06
5.40402e-07
-7.26388e-08
-4.45855e-07
-2.67426e-07
-1.21627e-06
-5.59287e-07
-1.85776e-06
-9.23196e-07
-2.36945e-06
-1.33572e-06
-2.75592e-06
-1.77605e-06
-3.02576e-06
-2.22658e-06
-3.19048e-06
-2.67316e-06
-3.26347e-06
-3.10497e-06
-3.25888e-06
-3.5142e-06
-3.19075e-06
-3.89567e-06
-3.07237e-06
-4.24633e-06
-2.91579e-06
-4.5648e-06
-2.73158e-06
-4.85096e-06
-2.52867e-06
-5.1056e-06
-2.31438e-06
-5.33005e-06
-2.09445e-06
-5.52603e-06
-1.87322e-06
-5.69539e-06
-1.65373e-06
-5.84e-06
-1.43792e-06
-5.96162e-06
-1.22677e-06
-6.06185e-06
-1.02049e-06
-6.14202e-06
-8.18613e-07
-6.20322e-06
-6.20189e-07
-6.24622e-06
-4.23869e-07
-6.27144e-06
-2.28026e-07
-6.27899e-06
-3.08721e-08
-6.2686e-06
1.69448e-07
-6.23964e-06
3.74742e-07
-6.19111e-06
5.86661e-07
-6.12165e-06
8.06573e-07
-6.02953e-06
1.03543e-06
-5.91271e-06
1.2736e-06
-5.76885e-06
1.52072e-06
-5.59542e-06
1.77546e-06
-5.38978e-06
2.03537e-06
-5.14937e-06
2.2966e-06
-4.87195e-06
2.55376e-06
-4.55587e-06
2.79968e-06
-4.20051e-06
3.02529e-06
-3.80673e-06
3.2196e-06
-3.37743e-06
3.36979e-06
-2.91816e-06
3.46147e-06
-2.43768e-06
3.4792e-06
-1.94854e-06
3.40724e-06
-1.46727e-06
3.23058e-06
-1.01445e-06
2.93619e-06
-6.14184e-07
2.51432e-06
-2.9319e-07
1.95981e-06
-7.93851e-08
1.27299e-06
4.61017e-07
-6.92788e-08
-3.76576e-07
-2.56271e-07
-1.02928e-06
-5.38541e-07
-1.57549e-06
-8.93604e-07
-2.01439e-06
-1.30015e-06
-2.34938e-06
-1.73887e-06
-2.58703e-06
-2.19306e-06
-2.7363e-06
-2.64879e-06
-2.80774e-06
-3.09501e-06
-2.81266e-06
-3.52331e-06
-2.76246e-06
-3.92763e-06
-2.66804e-06
-4.30397e-06
-2.53945e-06
-4.64996e-06
-2.38559e-06
-4.96453e-06
-2.21411e-06
-5.24758e-06
-2.03133e-06
-5.49972e-06
-1.84231e-06
-5.72201e-06
-1.65093e-06
-5.91579e-06
-1.45996e-06
-6.08248e-06
-1.27123e-06
-6.22352e-06
-1.08573e-06
-6.34022e-06
-9.03782e-07
-6.43373e-06
-7.25101e-07
-6.50496e-06
-5.48966e-07
-6.55452e-06
-3.74302e-07
-6.58276e-06
-1.99792e-07
-6.58966e-06
-2.39679e-08
-6.5749e-06
1.54687e-07
-6.5378e-06
3.3764e-07
-6.47735e-06
5.26206e-07
-6.39221e-06
7.21435e-07
-6.28076e-06
9.23984e-07
-6.14115e-06
1.13399e-06
-5.97132e-06
1.35089e-06
-5.76917e-06
1.57331e-06
-5.53266e-06
1.79885e-06
-5.25999e-06
2.02394e-06
-4.94988e-06
2.24365e-06
-4.60182e-06
2.45162e-06
-4.21648e-06
2.63994e-06
-3.79608e-06
2.7992e-06
-3.34489e-06
2.9186e-06
-2.86965e-06
2.98623e-06
-2.38002e-06
2.98957e-06
-1.88887e-06
2.91609e-06
-1.41238e-06
2.7541e-06
-9.69901e-07
2.49371e-06
-5.83441e-07
2.12786e-06
-2.76808e-07
1.65318e-06
-7.44598e-08
1.07064e-06
3.86557e-07
-6.6577e-08
-3.09999e-07
-2.47223e-07
-8.48632e-07
-5.21525e-07
-1.30119e-06
-8.68968e-07
-1.66694e-06
-1.26992e-06
-1.94843e-06
-1.70635e-06
-2.1506e-06
-2.16231e-06
-2.28034e-06
-2.6242e-06
-2.34585e-06
-3.08085e-06
-2.356e-06
-3.52348e-06
-2.31984e-06
-3.9454e-06
-2.24611e-06
-4.34188e-06
-2.14297e-06
-4.70976e-06
-2.01772e-06
-5.04718e-06
-1.87668e-06
-5.35334e-06
-1.72517e-06
-5.62817e-06
-1.56748e-06
-5.87219e-06
-1.40692e-06
-6.08623e-06
-1.24592e-06
-6.27133e-06
-1.08612e-06
-6.42861e-06
-9.2846e-07
-6.55911e-06
-7.73282e-07
-6.66376e-06
-6.20447e-07
-6.7433e-06
-4.69422e-07
-6.79823e-06
-3.19377e-07
-6.82876e-06
-1.69267e-07
-6.8348e-06
-1.79261e-08
-6.81596e-06
1.35852e-07
-6.77155e-06
2.93225e-07
-6.70055e-06
4.55211e-07
-6.60171e-06
6.22588e-07
-6.47351e-06
7.95788e-07
-6.3143e-06
9.74779e-07
-6.12236e-06
1.15894e-06
-5.89598e-06
1.34694e-06
-5.6337e-06
1.53657e-06
-5.33444e-06
1.72467e-06
-4.99774e-06
1.90695e-06
-4.62409e-06
2.07797e-06
-4.21522e-06
2.23107e-06
-3.77447e-06
2.35845e-06
-3.30714e-06
2.45127e-06
-2.82087e-06
2.49996e-06
-2.32586e-06
2.49456e-06
-1.83509e-06
2.42532e-06
-1.36429e-06
2.28329e-06
-9.31673e-07
2.06109e-06
-5.5747e-07
1.75365e-06
-2.63134e-07
1.35884e-06
-7.03879e-08
8.77898e-07
3.16169e-07
-6.44351e-08
-2.45564e-07
-2.40001e-07
-6.73066e-07
-5.07821e-07
-1.03337e-06
-8.48892e-07
-1.32587e-06
-1.2449e-06
-1.55242e-06
-1.67882e-06
-1.71668e-06
-2.13536e-06
-1.8238e-06
-2.60125e-06
-1.87996e-06
-3.06532e-06
-1.89193e-06
-3.51851e-06
-1.86665e-06
-3.95373e-06
-1.81089e-06
-4.36567e-06
-1.73104e-06
-4.75056e-06
-1.63282e-06
-5.10595e-06
-1.5213e-06
-5.43042e-06
-1.4007e-06
-5.72338e-06
-1.27451e-06
-5.98485e-06
-1.14545e-06
-6.21525e-06
-1.01552e-06
-6.41528e-06
-8.86096e-07
-6.58573e-06
-7.58001e-07
-6.72744e-06
-6.31575e-07
-6.84113e-06
-5.0676e-07
-6.92737e-06
-3.83179e-07
-6.98654e-06
-2.60211e-07
-7.01874e-06
-1.37062e-07
-7.02383e-06
-1.28374e-08
-7.00136e-06
1.13386e-07
-6.95063e-06
2.42488e-07
-6.87064e-06
3.75226e-07
-6.76021e-06
5.12156e-07
-6.61796e-06
6.53543e-07
-6.44245e-06
7.99269e-07
-6.23224e-06
9.48728e-07
-5.98603e-06
1.10073e-06
-5.70285e-06
1.25339e-06
-5.38223e-06
1.40405e-06
-5.02446e-06
1.54918e-06
-4.63083e-06
1.68434e-06
-4.20393e-06
1.80418e-06
-3.74797e-06
1.90249e-06
-3.26904e-06
1.97234e-06
-2.77538e-06
2.0063e-06
-2.27755e-06
1.99674e-06
-1.78851e-06
1.93628e-06
-1.3235e-06
1.81828e-06
-8.99755e-07
1.63735e-06
-5.36046e-07
1.38995e-06
-2.5196e-07
1.07475e-06
-6.70857e-08
6.93024e-07
2.49084e-07
-6.27853e-08
-1.82779e-07
-2.34408e-07
-5.01443e-07
-4.97136e-07
-7.70638e-07
-8.33094e-07
-9.89915e-07
-1.22497e-06
-1.16055e-06
-1.65651e-06
-1.28513e-06
-2.11298e-06
-1.36733e-06
-2.58137e-06
-1.41157e-06
-3.05056e-06
-1.42274e-06
-3.51133e-06
-1.40588e-06
-3.95629e-06
-1.36593e-06
-4.37974e-06
-1.30759e-06
-4.77744e-06
-1.23512e-06
-5.14648e-06
-1.15226e-06
-5.48496e-06
-1.06221e-06
-5.79188e-06
-9.67598e-07
-6.06685e-06
-8.70479e-07
-6.30996e-06
-7.72404e-07
-6.52161e-06
-6.74445e-07
-6.70236e-06
-5.77253e-07
-6.85282e-06
-4.81121e-07
-6.97354e-06
-3.86038e-07
-7.06497e-06
-2.91751e-07
-7.12736e-06
-1.97821e-07
-7.16074e-06
-1.03677e-07
-7.16491e-06
-8.67309e-09
-7.13938e-06
8.78573e-08
-7.08343e-06
1.86544e-07
-6.99613e-06
2.87922e-07
-6.87634e-06
3.92366e-07
-6.72282e-06
5.00027e-07
-6.53431e-06
6.1076e-07
-6.30963e-06
7.24046e-07
-6.04782e-06
8.38924e-07
-5.74834e-06
9.53909e-07
-5.41122e-06
1.06693e-06
-5.03734e-06
1.1753e-06
-4.62863e-06
1.27563e-06
-4.18836e-06
1.36391e-06
-3.72138e-06
1.43551e-06
-3.23435e-06
1.48532e-06
-2.73594e-06
1.50789e-06
-2.23692e-06
1.49771e-06
-1.75013e-06
1.4495e-06
-1.2904e-06
1.35854e-06
-8.7416e-07
1.22111e-06
-5.19024e-07
1.03481e-06
-2.43144e-07
7.98875e-07
-6.44962e-08
5.14375e-07
1.84587e-07
-6.15817e-08
-1.21197e-07
-2.30312e-07
-3.32713e-07
-4.89269e-07
-5.11681e-07
-8.21384e-07
-6.578e-07
-1.21006e-06
-7.71875e-07
-1.63962e-06
-8.55565e-07
-2.09573e-06
-9.11221e-07
-2.5656e-06
-9.41703e-07
-3.03817e-06
-9.50172e-07
-3.50414e-06
-9.39914e-07
-3.9559e-06
-9.14172e-07
-4.38747e-06
-8.76022e-07
-4.79431e-06
-8.28278e-07
-5.17314e-06
-7.73427e-07
-5.52176e-06
-7.13598e-07
-5.83881e-06
-6.50545e-07
-6.12363e-06
-5.85661e-07
-6.37604e-06
-5.19993e-07
-6.59621e-06
-4.54272e-07
-6.78451e-06
-3.88954e-07
-6.94139e-06
-3.24248e-07
-7.06726e-06
-2.60164e-07
-7.16246e-06
-1.96547e-07
-7.22717e-06
-1.33118e-07
-7.26134e-06
-6.95088e-08
-7.26471e-06
-5.3003e-09
-7.23679e-06
5.99382e-08
-7.17686e-06
1.26612e-07
-7.084e-06
1.9506e-07
-6.95714e-06
2.65514e-07
-6.79517e-06
3.38049e-07
-6.59695e-06
4.12541e-07
-6.36152e-06
4.88615e-07
-6.08819e-06
5.65596e-07
-5.77674e-06
6.4246e-07
-5.4276e-06
7.17799e-07
-5.04209e-06
7.89784e-07
-4.62262e-06
8.56153e-07
-4.17293e-06
9.14223e-07
-3.69836e-06
9.6093e-07
-3.20594e-06
9.92901e-07
-2.70463e-06
1.00658e-06
-2.20531e-06
9.98384e-07
-1.72071e-06
9.64904e-07
-1.26531e-06
9.03138e-07
-8.54921e-07
8.10728e-07
-5.06315e-07
6.86204e-07
-2.36597e-07
5.29157e-07
-6.25813e-08
3.40359e-07
1.22006e-07
-6.07942e-08
-6.04028e-08
-2.27624e-07
-1.65883e-07
-4.84089e-07
-2.55217e-07
-8.13636e-07
-3.28253e-07
-1.20013e-06
-3.85382e-07
-1.62828e-06
-4.27411e-07
-2.08401e-06
-4.55491e-07
-2.55469e-06
-4.71023e-07
-3.0293e-06
-4.75561e-07
-3.49849e-06
-4.70726e-07
-3.95454e-06
-4.5812e-07
-4.3913e-06
-4.39269e-07
-4.804e-06
-4.1557e-07
-5.18917e-06
-3.88264e-07
-5.54435e-06
-3.58413e-07
-5.868e-06
-3.26898e-07
-6.15924e-06
-2.94417e-07
-6.41774e-06
-2.615e-07
-6.64349e-06
-2.28519e-07
-6.83674e-06
-1.95704e-07
-6.99782e-06
-1.63168e-07
-7.12707e-06
-1.30918e-07
-7.22473e-06
-9.88836e-08
-7.29092e-06
-6.69272e-08
-7.32556e-06
-3.48689e-08
-7.32836e-06
-2.50337e-09
-7.2988e-06
3.03808e-08
-7.23617e-06
6.39818e-08
-7.13957e-06
9.84639e-08
-7.00799e-06
1.33936e-07
-6.84038e-06
1.7043e-07
-6.63571e-06
2.07874e-07