/*--------------------------------*- C++ -*----------------------------------*\
  =========                 |
  \\      /  F ield         | OpenFOAM: The Open Source CFD Toolbox
   \\    /   O peration     | Website:  https://openfoam.org
    \\  /    A nd           | Version:  7
     \\/     M anipulation  |
\*---------------------------------------------------------------------------*/
FoamFile
{
    version     2.0;
    format      ascii;
    class       volVectorField;
    location    "0.0538";
    object      U;
}
// * * * * * * * * * * * * * * * * * * * * * * * * * * * * * * * * * * * * * //

dimensions      [0 1 -1 0 0 0 0];

internalField   nonuniform List<vector> 
2500
(
(-0.2938 0.153722 0)
(-0.397936 0.128721 0)
(-0.577974 0.0737923 0)
(-0.696265 0.0408749 0)
(-0.76525 0.0233947 0)
(-0.809585 0.0141421 0)
(-0.840174 0.00915732 0)
(-0.862266 0.00635025 0)
(-0.878893 0.00466213 0)
(-0.89184 0.00357305 0)
(-0.90218 0.00282489 0)
(-0.910593 0.00228365 0)
(-0.917531 0.00187552 0)
(-0.923309 0.0015572 0)
(-0.928149 0.00130172 0)
(-0.932215 0.00109141 0)
(-0.935627 0.000914204 0)
(-0.938475 0.000761539 0)
(-0.940829 0.00062718 0)
(-0.942739 0.000506459 0)
(-0.944244 0.000395794 0)
(-0.945372 0.000292363 0)
(-0.946145 0.000193885 0)
(-0.946575 9.84552e-05 0)
(-0.94667 4.42382e-06 0)
(-0.946432 -8.9737e-05 0)
(-0.94586 -0.000185445 0)
(-0.944945 -0.000284148 0)
(-0.943677 -0.000387402 0)
(-0.942036 -0.000496964 0)
(-0.94 -0.000614923 0)
(-0.937537 -0.000743865 0)
(-0.934607 -0.000887111 0)
(-0.931157 -0.00104905 0)
(-0.927118 -0.00123565 0)
(-0.922402 -0.00145526 0)
(-0.916889 -0.0017199 0)
(-0.910421 -0.00204753 0)
(-0.902776 -0.00246618 0)
(-0.893646 -0.00302182 0)
(-0.882577 -0.00379404 0)
(-0.868887 -0.00492833 0)
(-0.851491 -0.0067035 0)
(-0.828586 -0.00967083 0)
(-0.797159 -0.0149177 0)
(-0.752062 -0.0244981 0)
(-0.68255 -0.042147 0)
(-0.564933 -0.0746152 0)
(-0.38931 -0.128124 0)
(-0.290205 -0.15237 0)
(-0.00516061 0.302907 0)
(-0.0270642 0.307344 0)
(-0.171335 0.217793 0)
(-0.308214 0.146583 0)
(-0.417144 0.0992138 0)
(-0.502391 0.0689564 0)
(-0.568796 0.0497062 0)
(-0.620764 0.037166 0)
(-0.661975 0.0286819 0)
(-0.695153 0.0227061 0)
(-0.722234 0.0183366 0)
(-0.744595 0.0150339 0)
(-0.763226 0.0124638 0)
(-0.778849 0.0104114 0)
(-0.792 0.00873349 0)
(-0.803078 0.00733153 0)
(-0.812386 0.00613555 0)
(-0.820154 0.00509469 0)
(-0.826559 0.00417106 0)
(-0.831734 0.00333578 0)
(-0.835783 0.00256638 0)
(-0.838781 0.00184492 0)
(-0.840782 0.00115674 0)
(-0.841824 0.00048945 0)
(-0.841928 -0.00016776 0)
(-0.841101 -0.000824782 0)
(-0.83934 -0.00149107 0)
(-0.836626 -0.00217618 0)
(-0.832927 -0.00289031 0)
(-0.8282 -0.00364492 0)
(-0.822383 -0.00445345 0)
(-0.815396 -0.00533237 0)
(-0.807134 -0.00630246 0)
(-0.797465 -0.0073907 0)
(-0.786217 -0.00863298 0)
(-0.773168 -0.0100781 0)
(-0.75803 -0.0117941 0)
(-0.740422 -0.013878 0)
(-0.719838 -0.0164721 0)
(-0.69559 -0.0197916 0)
(-0.666743 -0.0241722 0)
(-0.631997 -0.0301549 0)
(-0.58954 -0.0386356 0)
(-0.536854 -0.0511261 0)
(-0.470622 -0.070154 0)
(-0.386992 -0.0996662 0)
(-0.281777 -0.145083 0)
(-0.151488 -0.2126 0)
(-0.0164296 -0.298179 0)
(-0.00098312 -0.294668 0)
(0.0321104 0.264057 0)
(0.0563589 0.362349 0)
(-0.00366224 0.324988 0)
(-0.0959422 0.260548 0)
(-0.192338 0.200891 0)
(-0.281154 0.153859 0)
(-0.358269 0.118927 0)
(-0.423472 0.0933403 0)
(-0.478113 0.0744658 0)
(-0.523875 0.0603148 0)
(-0.562308 0.049492 0)
(-0.594712 0.0410396 0)
(-0.622131 0.0342998 0)
(-0.645391 0.0288163 0)
(-0.665135 0.0242673 0)
(-0.68187 0.0204213 0)
(-0.69599 0.0171089 0)
(-0.707804 0.0142038 0)
(-0.717554 0.0116099 0)
(-0.725427 0.00925275 0)
(-0.731567 0.00707374 0)
(-0.736084 0.00502548 0)
(-0.739057 0.00306889 0)
(-0.74054 0.00117075 0)
(-0.740568 -0.000698162 0)
(-0.739153 -0.00256451 0)
(-0.73629 -0.00445388 0)
(-0.731957 -0.00639202 0)
(-0.726113 -0.00840623 0)
(-0.718697 -0.0105269 0)
(-0.709627 -0.0127893 0)
(-0.698795 -0.0152361 0)
(-0.686063 -0.0179204 0)
(-0.671257 -0.0209098 0)
(-0.654155 -0.0242926 0)
(-0.63448 -0.0281862 0)
(-0.611878 -0.0327492 0)
(-0.585902 -0.0381997 0)
(-0.555987 -0.0448424 0)
(-0.521415 -0.0531098 0)
(-0.481288 -0.063623 0)
(-0.434512 -0.0772796 0)
(-0.379816 -0.09537 0)
(-0.315902 -0.1197 0)
(-0.241901 -0.152605 0)
(-0.158504 -0.196408 0)
(-0.0700224 -0.251275 0)
(0.0122421 -0.309881 0)
(0.0620255 -0.343204 0)
(0.033036 -0.249892 0)
(0.0271444 0.205264 0)
(0.0637047 0.357895 0)
(0.0550126 0.375783 0)
(0.00762935 0.338696 0)
(-0.0600575 0.286105 0)
(-0.133715 0.235285 0)
(-0.205188 0.191994 0)
(-0.270697 0.156922 0)
(-0.328973 0.129017 0)
(-0.380008 0.106861 0)
(-0.424339 0.0891591 0)
(-0.462688 0.0748604 0)
(-0.495782 0.0631557 0)
(-0.524281 0.0534334 0)
(-0.548756 0.0452327 0)
(-0.569684 0.0382058 0)
(-0.587458 0.0320877 0)
(-0.602401 0.0266743 0)
(-0.614769 0.0218067 0)
(-0.624772 0.0173591 0)
(-0.63257 0.0132306 0)
(-0.638289 0.00933868 0)
(-0.642023 0.00561448 0)
(-0.643837 0.00199893 0)
(-0.643774 -0.00156008 0)
(-0.641851 -0.00511035 0)
(-0.638067 -0.00869754 0)
(-0.632402 -0.0123674 0)
(-0.624813 -0.0161679 0)
(-0.615237 -0.020152 0)
(-0.603589 -0.0243801 0)
(-0.589758 -0.0289242 0)
(-0.573603 -0.0338721 0)
(-0.554952 -0.0393333 0)
(-0.53359 -0.0454476 0)
(-0.509258 -0.0523952 0)
(-0.481643 -0.0604116 0)
(-0.450372 -0.069807 0)
(-0.415012 -0.0809922 0)
(-0.375076 -0.0945117 0)
(-0.330058 -0.111081 0)
(-0.27951 -0.131618 0)
(-0.223213 -0.157236 0)
(-0.161522 -0.189113 0)
(-0.0959869 -0.22805 0)
(-0.030412 -0.273232 0)
(0.0275569 -0.319308 0)
(0.0649259 -0.350711 0)
(0.0657357 -0.331879 0)
(0.0268725 -0.18989 0)
(0.0184439 0.163515 0)
(0.0530233 0.331756 0)
(0.0682916 0.387313 0)
(0.0524038 0.380167 0)
(0.0125281 0.344624 0)
(-0.0406128 0.300249 0)
(-0.0988529 0.256601 0)
(-0.156987 0.217526 0)
(-0.212074 0.184026 0)
(-0.262686 0.155852 0)
(-0.30831 0.132303 0)
(-0.348932 0.11259 0)
(-0.38479 0.0959841 0)
(-0.416223 0.081869 0)
(-0.443598 0.0697377 0)
(-0.467265 0.0591822 0)
(-0.487538 0.0498761 0)
(-0.504694 0.0415577 0)
(-0.518965 0.0340165 0)
(-0.530544 0.0270817 0)
(-0.539588 0.0206132 0)
(-0.546223 0.0144945 0)
(-0.550543 0.00862688 0)
(-0.552618 0.00292496 0)
(-0.552495 -0.0026871 0)
(-0.550197 -0.00827897 0)
(-0.545729 -0.013917 0)
(-0.539077 -0.0196674 0)
(-0.530206 -0.0255985 0)
(-0.519064 -0.0317846 0)
(-0.505579 -0.0383094 0)
(-0.489658 -0.0452701 0)
(-0.471187 -0.0527824 0)
(-0.450028 -0.0609877 0)
(-0.426023 -0.0700602 0)
(-0.398989 -0.080217 0)
(-0.368725 -0.0917299 0)
(-0.335023 -0.104938 0)
(-0.297691 -0.120263 0)
(-0.256591 -0.138214 0)
(-0.21172 -0.159382 0)
(-0.163335 -0.184395 0)
(-0.11218 -0.213778 0)
(-0.0598259 -0.247635 0)
(-0.00915622 -0.284955 0)
(0.0350579 -0.322254 0)
(0.06564 -0.351114 0)
(0.0734518 -0.354382 0)
(0.0532062 -0.301759 0)
(0.0179127 -0.148307 0)
(0.01194 0.134767 0)
(0.0407156 0.30092 0)
(0.0649719 0.378567 0)
(0.0679316 0.396362 0)
(0.0493886 0.379926 0)
(0.0154028 0.347074 0)
(-0.0277546 0.308574 0)
(-0.0750831 0.270221 0)
(-0.123059 0.234726 0)
(-0.169443 0.203078 0)
(-0.212942 0.175376 0)
(-0.252901 0.151311 0)
(-0.28906 0.130421 0)
(-0.321394 0.11222 0)
(-0.350006 0.0962567 0)
(-0.37506 0.0821322 0)
(-0.396744 0.0695063 0)
(-0.415244 0.0580923 0)
(-0.430733 0.0476498 0)
(-0.443365 0.0379776 0)
(-0.45327 0.028906 0)
(-0.460558 0.020291 0)
(-0.465315 0.0120087 0)
(-0.467608 0.00395048 0)
(-0.467483 -0.00398072 0)
(-0.464969 -0.0118743 0)
(-0.460078 -0.0198153 0)
(-0.452806 -0.0278875 0)
(-0.443133 -0.0361765 0)
(-0.431029 -0.0447737 0)
(-0.416445 -0.0537796 0)
(-0.399325 -0.0633078 0)
(-0.379601 -0.0734906 0)
(-0.357197 -0.0844833 0)
(-0.332035 -0.0964709 0)
(-0.304044 -0.109674 0)
(-0.273172 -0.124353 0)
(-0.239411 -0.140811 0)
(-0.202833 -0.159391 0)
(-0.16365 -0.18045 0)
(-0.122302 -0.204312 0)
(-0.0795927 -0.231158 0)
(-0.0368778 -0.260808 0)
(0.00370042 -0.292323 0)
(0.0389744 -0.323304 0)
(0.0646542 -0.348771 0)
(0.07557 -0.359547 0)
(0.066983 -0.340387 0)
(0.0401003 -0.269035 0)
(0.0114453 -0.120038 0)
(0.00785217 0.114293 0)
(0.0309426 0.271816 0)
(0.0569878 0.360804 0)
(0.0699447 0.396825 0)
(0.0659418 0.397605 0)
(0.0473354 0.377667 0)
(0.0181064 0.347262 0)
(-0.0177705 0.312917 0)
(-0.0569678 0.278417 0)
(-0.0969989 0.245738 0)
(-0.13616 0.215751 0)
(-0.173352 0.188691 0)
(-0.207918 0.16446 0)
(-0.239502 0.142798 0)
(-0.267945 0.123389 0)
(-0.29321 0.105908 0)
(-0.315334 0.0900503 0)
(-0.334392 0.0755389 0)
(-0.350476 0.0621309 0)
(-0.363679 0.0496139 0)
(-0.374093 0.0378032 0)
(-0.381798 0.0265376 0)
(-0.386863 0.0156761 0)
(-0.389345 0.005093 0)
(-0.389287 -0.00532485 0)
(-0.38672 -0.015682 0)
(-0.381665 -0.0260774 0)
(-0.37413 -0.0366078 0)
(-0.364116 -0.0473703 0)
(-0.351616 -0.0584665 0)
(-0.336619 -0.0700049 0)
(-0.319111 -0.0821047 0)
(-0.299081 -0.0948996 0)
(-0.276528 -0.10854 0)
(-0.251467 -0.123197 0)
(-0.223947 -0.139062 0)
(-0.194068 -0.156343 0)
(-0.162011 -0.175256 0)
(-0.128081 -0.196005 0)
(-0.092766 -0.218731 0)
(-0.0568163 -0.243437 0)
(-0.0213495 -0.269845 0)
(0.0120329 -0.297151 0)
(0.0411389 -0.32365 0)
(0.0631674 -0.346166 0)
(0.0749163 -0.359281 0)
(0.0733565 -0.354483 0)
(0.0569975 -0.319587 0)
(0.0299773 -0.239391 0)
(0.00743916 -0.100175 0)
(0.00540366 0.0992572 0)
(0.0239136 0.246247 0)
(0.0487093 0.339828 0)
(0.0662816 0.388116 0)
(0.0714564 0.402854 0)
(0.0642029 0.395143 0)
(0.0465425 0.373862 0)
(0.0212231 0.345405 0)
(-0.00902401 0.314018 0)
(-0.0418701 0.282307 0)
(-0.0755074 0.251749 0)
(-0.108615 0.223077 0)
(-0.140275 0.196573 0)
(-0.169882 0.172245 0)
(-0.197054 0.149962 0)
(-0.221572 0.12952 0)
(-0.243323 0.110686 0)
(-0.262264 0.0932317 0)
(-0.278396 0.0769351 0)
(-0.291747 0.0615939 0)
(-0.302357 0.0470244 0)
(-0.31027 0.0330615 0)
(-0.31553 0.0195566 0)
(-0.31818 0.00637567 0)
(-0.318256 -0.00660357 0)
(-0.31579 -0.0194943 0)
(-0.310809 -0.0324034 0)
(-0.303335 -0.0454337 0)
(-0.293391 -0.0586873 0)
(-0.280997 -0.0722674 0)
(-0.26618 -0.086281 0)
(-0.248973 -0.100841 0)
(-0.229425 -0.116069 0)
(-0.207609 -0.132092 0)
(-0.183631 -0.149046 0)
(-0.157651 -0.167067 0)
(-0.1299 -0.186285 0)
(-0.100712 -0.206797 0)
(-0.0705636 -0.228641 0)
(-0.0401196 -0.25173 0)
(-0.0102936 -0.275761 0)
(0.0176931 -0.300069 0)
(0.0422646 -0.323404 0)
(0.0614913 -0.343625 0)
(0.07321 -0.3573 0)
(0.0753627 -0.359266 0)
(0.0666123 -0.342306 0)
(0.0474203 -0.297251 0)
(0.0227608 -0.214123 0)
(0.00504983 -0.0858082 0)
(0.00391827 0.0878118 0)
(0.0189445 0.224279 0)
(0.0414594 0.318502 0)
(0.060637 0.374502 0)
(0.0712321 0.399858 0)
(0.0718999 0.402728 0)
(0.0632489 0.390375 0)
(0.0469182 0.368578 0)
(0.0249235 0.341573 0)
(-0.00077512 0.312263 0)
(-0.0284842 0.282522 0)
(-0.0568419 0.253474 0)
(-0.0848071 0.225735 0)
(-0.111616 0.199581 0)
(-0.136728 0.175082 0)
(-0.159773 0.152178 0)
(-0.18051 0.130742 0)
(-0.198787 0.110613 0)
(-0.214517 0.091615 0)
(-0.227658 0.0735751 0)
(-0.238196 0.0563262 0)
(-0.246136 0.039712 0)
(-0.251494 0.023588 0)
(-0.254294 0.00782076 0)
(-0.254562 -0.00771286 0)
(-0.252328 -0.0231273 0)
(-0.247625 -0.03853 0)
(-0.240488 -0.0540232 0)
(-0.230959 -0.0697057 0)
(-0.219087 -0.0856746 0)
(-0.204932 -0.102026 0)
(-0.188575 -0.118856 0)
(-0.170119 -0.13626 0)
(-0.149702 -0.154331 0)
(-0.12751 -0.173152 0)
(-0.103792 -0.192792 0)
(-0.0788774 -0.213283 0)
(-0.0532075 -0.234598 0)
(-0.0273603 -0.256609 0)
(-0.00208541 -0.279023 0)
(0.0216647 -0.301287 0)
(0.0427144 -0.322462 0)
(0.0596735 -0.341039 0)
(0.0710067 -0.354719 0)
(0.0752153 -0.360175 0)
(0.0711908 -0.352847 0)
(0.0587348 -0.326939 0)
(0.0392934 -0.27579 0)
(0.0176666 -0.193002 0)
(0.00359885 -0.0750651 0)
(0.00297915 0.0787822 0)
(0.0153817 0.20546 0)
(0.0354512 0.298127 0)
(0.0546467 0.358595 0)
(0.0681876 0.39167 0)
(0.0741336 0.403206 0)
(0.0721861 0.39893 0)
(0.0631165 0.383802 0)
(0.0482675 0.361763 0)
(0.0291585 0.335752 0)
(0.0072467 0.307841 0)
(-0.0161912 0.279417 0)
(-0.0401009 0.251357 0)
(-0.0636484 0.224173 0)
(-0.0861958 0.198124 0)
(-0.107269 0.173304 0)
(-0.126526 0.149702 0)
(-0.143724 0.12724 0)
(-0.158699 0.105808 0)
(-0.171343 0.0852744 0)
(-0.181592 0.0655039 0)
(-0.189409 0.0463611 0)
(-0.194781 0.0277159 0)
(-0.197712 0.00944498 0)
(-0.198216 -0.00856734 0)
(-0.196319 -0.026429 0)
(-0.192058 -0.0442408 0)
(-0.185477 -0.0620972 0)
(-0.176635 -0.0800865 0)
(-0.165605 -0.0982917 0)
(-0.15248 -0.11679 0)
(-0.137376 -0.135652 0)
(-0.120445 -0.154939 0)
(-0.101877 -0.174699 0)
(-0.081918 -0.194956 0)
(-0.0608791 -0.215702 0)
(-0.0391566 -0.236873 0)
(-0.017249 -0.258322 0)
(0.00422339 -0.279777 0)
(0.0245019 -0.300777 0)
(0.0426808 -0.320595 0)
(0.0577172 -0.338126 0)
(0.0684752 -0.351762 0)
(0.0738276 -0.359249 0)
(0.0728477 -0.35756 0)
(0.0651183 -0.342859 0)
(0.051118 -0.310639 0)
(0.0326715 -0.256168 0)
(0.0140111 -0.175403 0)
(0.00267898 -0.0667683 0)
(0.00235399 0.0714429 0)
(0.0127589 0.189264 0)
(0.0305442 0.279216 0)
(0.0489666 0.341927 0)
(0.0638803 0.3804 0)
(0.0731747 0.398769 0)
(0.0760293 0.401448 0)
(0.0725991 0.392547 0)
(0.0636676 0.375571 0)
(0.0503271 0.353315 0)
(0.0337515 0.327894 0)
(0.0150591 0.300838 0)
(-0.00475959 0.273203 0)
(-0.0248703 0.245684 0)
(-0.0445953 0.218708 0)
(-0.0634 0.192512 0)
(-0.0808731 0.1672 0)
(-0.0967052 0.142788 0)
(-0.110669 0.119237 0)
(-0.122602 0.0964699 0)
(-0.132392 0.0743934 0)
(-0.139966 0.0529031 0)
(-0.145283 0.0318926 0)
(-0.148326 0.0112572 0)
(-0.149095 -0.00910346 0)
(-0.147611 -0.0292836 0)
(-0.143911 -0.0493704 0)
(-0.138047 -0.0694439 0)
(-0.130089 -0.0895755 0)
(-0.120131 -0.109828 0)
(-0.108288 -0.130253 0)
(-0.094708 -0.150889 0)
(-0.0795747 -0.171758 0)
(-0.0631175 -0.192858 0)
(-0.0456206 -0.214152 0)
(-0.0274342 -0.235556 0)
(-0.00898614 -0.256919 0)
(0.00920642 -0.277987 0)
(0.0265282 -0.298375 0)
(0.0422627 -0.317501 0)
(0.0556009 -0.334531 0)
(0.0656705 -0.348294 0)
(0.0715977 -0.357196 0)
(0.0726157 -0.359144 0)
(0.0682385 -0.351504 0)
(0.0585057 -0.331144 0)
(0.0442459 -0.294636 0)
(0.027326 -0.238657 0)
(0.011319 -0.16069 0)
(0.00206542 -0.0601891 0)
(0.0019155 0.0653379 0)
(0.0107681 0.175227 0)
(0.0265217 0.261906 0)
(0.0438075 0.325374 0)
(0.0591142 0.367466 0)
(0.0703882 0.391073 0)
(0.0765515 0.39954 0)
(0.0773536 0.396198 0)
(0.0731512 0.384065 0)
(0.0646656 0.365693 0)
(0.0527893 0.343128 0)
(0.0384507 0.317943 0)
(0.0225301 0.291298 0)
(0.00581305 0.264017 0)
(-0.0110286 0.23666 0)
(-0.0274383 0.209587 0)
(-0.0429672 0.18301 0)
(-0.0572615 0.157039 0)
(-0.0700482 0.131707 0)
(-0.0811219 0.106999 0)
(-0.0903325 0.0828704 0)
(-0.0975752 0.0592547 0)
(-0.102782 0.0360769 0)
(-0.105915 0.0132581 0)
(-0.106964 -0.00927988 0)
(-0.105941 -0.0316112 0)
(-0.102881 -0.0538038 0)
(-0.0978381 -0.0759171 0)
(-0.0908929 -0.0980007 0)
(-0.0821494 -0.120092 0)
(-0.0717409 -0.142212 0)
(-0.0598341 -0.164365 0)
(-0.0466348 -0.18653 0)
(-0.0323945 -0.208654 0)
(-0.0174181 -0.230642 0)
(-0.00207066 -0.25234 0)
(0.0132148 -0.27352 0)
(0.027933 -0.293846 0)
(0.0415056 -0.312847 0)
(0.0532881 -0.329868 0)
(0.0625904 -0.344026 0)
(0.0687152 -0.354151 0)
(0.0710247 -0.35874 0)
(0.0690416 -0.355922 0)
(0.0625934 -0.343466 0)
(0.0519941 -0.31887 0)
(0.0382118 -0.279558 0)
(0.0229891 -0.223223 0)
(0.00927883 -0.148325 0)
(0.00163513 -0.0548653 0)
(0.00159288 0.0601704 0)
(0.00920974 0.162978 0)
(0.023183 0.246173 0)
(0.0391892 0.309424 0)
(0.0542855 0.353812 0)
(0.0665827 0.381336 0)
(0.0749123 0.394502 0)
(0.0787797 0.39597 0)
(0.0782357 0.38828 0)
(0.0737025 0.373695 0)
(0.0658193 0.354125 0)
(0.0553226 0.33111 0)
(0.0429607 0.305851 0)
(0.0294399 0.279251 0)
(0.0153937 0.251966 0)
(0.00136979 0.224455 0)
(-0.0121721 0.197027 0)
(-0.0248554 0.169872 0)
(-0.0363791 0.143099 0)
(-0.0465075 0.116756 0)
(-0.0550617 0.0908485 0)
(-0.061911 0.0653541 0)
(-0.0669652 0.0402342 0)
(-0.0701696 0.0154412 0)
(-0.0715 -0.00907583 0)
(-0.0709601 -0.0333658 0)
(-0.0685797 -0.0574723 0)
(-0.0644147 -0.0814304 0)
(-0.0585473 -0.105263 0)
(-0.0510882 -0.128979 0)
(-0.0421791 -0.152568 0)
(-0.0319967 -0.175995 0)
(-0.0207569 -0.199199 0)
(-0.00871941 -0.222076 0)
(0.00380695 -0.244479 0)
(0.0164604 -0.266194 0)
(0.0288234 -0.286929 0)
(0.0404229 -0.306287 0)
(0.0507362 -0.323742 0)
(0.0592047 -0.338601 0)
(0.0652595 -0.349976 0)
(0.0683636 -0.356749 0)
(0.0680748 -0.357544 0)
(0.0641329 -0.350731 0)
(0.0565725 -0.33446 0)
(0.0458524 -0.306756 0)
(0.0329545 -0.265704 0)
(0.0194278 -0.209715 0)
(0.00768816 -0.137882 0)
(0.00131942 -0.0504934 0)
(0.00134537 0.0557405 0)
(0.00795371 0.152229 0)
(0.0203655 0.231931 0)
(0.0350584 0.294345 0)
(0.0495747 0.340061 0)
(0.0622299 0.370443 0)
(0.0718646 0.387353 0)
(0.0778545 0.392888 0)
(0.080044 0.389156 0)
(0.0786275 0.378123 0)
(0.0740312 0.36152 0)
(0.066814 0.340812 0)
(0.0575887 0.317189 0)
(0.0469671 0.291591 0)
(0.0355238 0.264735 0)
(0.0237752 0.237157 0)
(0.012171 0.209239 0)
(0.00109141 0.181249 0)
(-0.00914955 0.153361 0)
(-0.0182989 0.125684 0)
(-0.0261584 0.0982757 0)
(-0.0325782 0.0711597 0)
(-0.0374509 0.0443369 0)
(-0.0407066 0.0177941 0)
(-0.0423091 -0.00848825 0)
(-0.0422531 -0.0345304 0)
(-0.0405621 -0.0603482 0)
(-0.0372883 -0.0859488 0)
(-0.0325127 -0.111327 0)
(-0.0263462 -0.13646 0)
(-0.0189318 -0.161304 0)
(-0.0104474 -0.185788 0)
(-0.00110848 -0.209809 0)
(0.00882876 -0.23322 0)
(0.0190646 -0.255825 0)
(0.0292547 -0.277362 0)
(0.0390103 -0.297489 0)
(0.0479033 -0.315767 0)
(0.0554753 -0.331639 0)
(0.0612551 -0.344403 0)
(0.0647864 -0.353198 0)
(0.0656684 -0.356981 0)
(0.0636117 -0.354523 0)
(0.058509 -0.344429 0)
(0.0505206 -0.325182 0)
(0.040163 -0.295241 0)
(0.0283627 -0.253191 0)
(0.0164574 -0.197955 0)
(0.00641404 -0.129035 0)
(0.00107845 -0.0468668 0)
(0.00114853 0.0519093 0)
(0.00691334 0.14276 0)
(0.0179437 0.219078 0)
(0.0313404 0.280278 0)
(0.0450509 0.326628 0)
(0.0576007 0.359039 0)
(0.0678952 0.378883 0)
(0.0752575 0.387799 0)
(0.0794026 0.387517 0)
(0.0803591 0.379718 0)
(0.0783837 0.365947 0)
(0.0738805 0.347561 0)
(0.0673346 0.325705 0)
(0.0592593 0.301322 0)
(0.0501591 0.275162 0)
(0.0405053 0.247812 0)
(0.0307214 0.219714 0)
(0.021177 0.191195 0)
(0.0121854 0.162492 0)
(0.00400609 0.133767 0)
(-0.00315253 0.105129 0)
(-0.00912839 0.0766479 0)
(-0.0138016 0.0483638 0)
(-0.0170904 0.0203005 0)
(-0.0189479 -0.00752845 0)
(-0.0193594 -0.0351121 0)
(-0.0183411 -0.0624365 0)
(-0.0159387 -0.0894794 0)
(-0.0122279 -0.116205 0)
(-0.00731482 -0.14256 0)
(-0.00133741 -0.168467 0)
(0.00553293 -0.19382 0)
(0.0130895 -0.218477 0)
(0.021089 -0.242252 0)
(0.0292504 -0.264908 0)
(0.0372561 -0.286145 0)
(0.0447551 -0.305584 0)
(0.0513696 -0.32276 0)
(0.0567068 -0.337102 0)
(0.0603778 -0.347921 0)
(0.0620242 -0.3544 0)
(0.061355 -0.355584 0)
(0.0581937 -0.350393 0)
(0.0525342 -0.337645 0)
(0.0446031 -0.316108 0)
(0.0349194 -0.284586 0)
(0.0243192 -0.242046 0)
(0.0139359 -0.18777 0)
(0.00536705 -0.121533 0)
(0.000888052 -0.0438413 0)
(0.000986971 0.0485781 0)
(0.00602964 0.134405 0)
(0.0158229 0.207517 0)
(0.0279608 0.267294 0)
(0.0407276 0.31379 0)
(0.0528476 0.347591 0)
(0.0633186 0.369698 0)
(0.0714615 0.381386 0)
(0.0769184 0.384061 0)
(0.0796042 0.379148 0)
(0.0796451 0.368005 0)
(0.0773173 0.351867 0)
(0.0729915 0.331816 0)
(0.0670865 0.308771 0)
(0.0600333 0.283493 0)
(0.0522496 0.256598 0)
(0.0441232 0.22857 0)
(0.0360015 0.199787 0)
(0.0281869 0.170534 0)
(0.0209357 0.141024 0)
(0.0144587 0.111411 0)
(0.00892359 0.0818099 0)
(0.00445817 0.0522999 0)
(0.00115282 0.0229412 0)
(-0.000936627 -0.00621857 0)
(-0.00178675 -0.0351367 0)
(-0.00140504 -0.0637686 0)
(0.000171071 -0.0920619 0)
(0.00287443 -0.119951 0)
(0.00660796 -0.147351 0)
(0.011244 -0.174152 0)
(0.0166235 -0.200216 0)
(0.0225551 -0.225367 0)
(0.0288152 -0.249384 0)
(0.0351483 -0.271996 0)
(0.0412696 -0.292871 0)
(0.0468694 -0.311608 0)
(0.0516216 -0.327725 0)
(0.0551961 -0.340654 0)
(0.0572769 -0.349728 0)
(0.0575868 -0.354183 0)
(0.0559195 -0.353157 0)
(0.0521776 -0.345707 0)
(0.0464159 -0.33084 0)
(0.0388862 -0.30756 0)
(0.0300762 -0.274945 0)
(0.0207172 -0.232248 0)
(0.0117557 -0.17901 0)
(0.00448546 -0.115185 0)
(0.0007329 -0.0413134 0)
(0.000850649 0.0456748 0)
(0.00526145 0.127035 0)
(0.0139317 0.197162 0)
(0.0248539 0.255424 0)
(0.0365926 0.301732 0)
(0.0480536 0.33644 0)
(0.0583384 0.360269 0)
(0.066797 0.374202 0)
(0.0730394 0.379378 0)
(0.0769068 0.376996 0)
(0.0784299 0.368239 0)
(0.0777827 0.354219 0)
(0.0752381 0.33594 0)
(0.0711285 0.314284 0)
(0.0658131 0.290003 0)
(0.0596532 0.263725 0)
(0.0529944 0.235964 0)
(0.0461549 0.207133 0)
(0.0394183 0.177559 0)
(0.0330301 0.147497 0)
(0.0271967 0.117143 0)
(0.0220861 0.0866493 0)
(0.0178292 0.0561353 0)
(0.0145219 0.0256958 0)
(0.0122272 -0.00458847 0)
(0.0109765 -0.0346435 0)
(0.0107712 -0.0643943 0)
(0.0115838 -0.0937591 0)
(0.0133579 -0.122643 0)
(0.0160089 -0.150931 0)
(0.0194232 -0.178484 0)
(0.0234585 -0.205133 0)
(0.0279439 -0.230671 0)
(0.0326801 -0.254848 0)
(0.037441 -0.277366 0)
(0.0419777 -0.29787 0)
(0.0460231 -0.31594 0)
(0.0493009 -0.331092 0)
(0.0515377 -0.342763 0)
(0.0524799 -0.350318 0)
(0.0519154 -0.353048 0)
(0.0497 -0.350179 0)
(0.0457883 -0.340892 0)
(0.0402662 -0.324354 0)
(0.0333826 -0.299761 0)
(0.0255746 -0.266407 0)
(0.0174656 -0.223759 0)
(0.00983508 -0.171547 0)
(0.00372567 -0.109846 0)
(0.000602833 -0.0392082 0)
(0.000732722 0.0431465 0)
(0.00457945 0.120553 0)
(0.0122164 0.187941 0)
(0.0219643 0.244678 0)
(0.0326234 0.290581 0)
(0.0432617 0.325838 0)
(0.0530869 0.350954 0)
(0.0614969 0.366686 0)
(0.0680975 0.373954 0)
(0.0726876 0.373761 0)
(0.0752307 0.367133 0)
(0.0758221 0.355062 0)
(0.074654 0.338473 0)
(0.0719827 0.318199 0)
(0.0681004 0.294971 0)
(0.0633127 0.269419 0)
(0.0579206 0.24207 0)
(0.0522085 0.213365 0)
(0.0464355 0.18366 0)
(0.0408309 0.153246 0)
(0.0355912 0.122356 0)
(0.0308796 0.0911782 0)
(0.0268266 0.0598646 0)
(0.0235306 0.0285435 0)
(0.0210594 -0.00267292 0)
(0.0194516 -0.0336807 0)
(0.0187176 -0.064376 0)
(0.0188403 -0.094649 0)
(0.0197759 -0.124376 0)
(0.0214543 -0.153417 0)
(0.0237791 -0.181603 0)
(0.0266279 -0.208739 0)
(0.0298531 -0.23459 0)
(0.0332827 -0.258883 0)
(0.0367226 -0.281296 0)
(0.0399603 -0.301456 0)
(0.0427704 -0.318935 0)
(0.0449231 -0.333244 0)
(0.0461948 -0.343837 0)
(0.0463838 -0.35011 0)
(0.045328 -0.351406 0)
(0.042927 -0.347032 0)
(0.0391661 -0.336275 0)
(0.0341405 -0.318434 0)
(0.0280781 -0.292862 0)
(0.0213547 -0.25902 0)
(0.0144885 -0.216537 0)
(0.00811155 -0.165279 0)
(0.00305615 -0.105404 0)
(0.000490878 -0.0374702 0)
(0.000628403 0.0409535 0)
(0.00396232 0.114884 0)
(0.0106359 0.179793 0)
(0.0192465 0.235057 0)
(0.0287943 0.280427 0)
(0.038492 0.31597 0)
(0.047651 0.342033 0)
(0.0557273 0.359192 0)
(0.0623419 0.368188 0)
(0.0672742 0.369865 0)
(0.0704441 0.365107 0)
(0.0718882 0.354798 0)
(0.0717338 0.339782 0)
(0.0701725 0.320839 0)
(0.0674362 0.298674 0)
(0.0637773 0.273906 0)
(0.0594523 0.24707 0)
(0.0547094 0.21862 0)
(0.0497801 0.188938 0)
(0.0448732 0.158342 0)
(0.040171 0.127095 0)
(0.0358284 0.0954144 0)
(0.0319717 0.0634847 0)
(0.028699 0.0314632 0)
(0.0260813 -0.000509473 0)
(0.024163 -0.0323017 0)
(0.0229627 -0.0637832 0)
(0.0224744 -0.0948178 0)
(0.0226678 -0.125257 0)
(0.0234885 -0.154935 0)
(0.0248593 -0.183659 0)
(0.0266795 -0.211208 0)
(0.0288269 -0.237327 0)
(0.0311583 -0.26172 0)
(0.0335122 -0.284046 0)
(0.0357125 -0.30392 0)
(0.0375733 -0.320906 0)
(0.0389066 -0.334519 0)
(0.0395324 -0.344227 0)
(0.0392906 -0.349454 0)
(0.0380567 -0.349593 0)
(0.0357591 -0.344018 0)
(0.0323977 -0.332106 0)
(0.0280618 -0.313264 0)
(0.0229463 -0.286969 0)
(0.0173611 -0.252811 0)
(0.0117244 -0.210541 0)
(0.00653722 -0.160123 0)
(0.00245369 -0.101778 0)
(0.000392102 -0.0360587 0)
(0.000534244 0.0390659 0)
(0.00339425 0.109971 0)
(0.0091589 0.172671 0)
(0.0166635 0.226555 0)
(0.0250808 0.27133 0)
(0.033752 0.306976 0)
(0.042088 0.333718 0)
(0.0496081 0.351996 0)
(0.0559614 0.362407 0)
(0.0609248 0.36566 0)
(0.0643924 0.36252 0)
(0.0663591 0.353774 0)
(0.0669017 0.340191 0)
(0.0661576 0.322498 0)
(0.064306 0.301368 0)
(0.0615503 0.277404 0)
(0.0581037 0.251139 0)
(0.0541781 0.223038 0)
(0.0499751 0.193497 0)
(0.0456803 0.162856 0)
(0.041459 0.131402 0)
(0.0374543 0.0993779 0)
(0.0337855 0.0669942 0)
(0.0305483 0.034434 0)
(0.0278144 0.00186309 0)
(0.0256329 -0.0305622 0)
(0.0240301 -0.0626878 0)
(0.0230106 -0.0943545 0)
(0.0225577 -0.125391 0)
(0.0226341 -0.155609 0)
(0.023182 -0.184795 0)
(0.0241241 -0.212708 0)
(0.0253641 -0.239071 0)
(0.0267885 -0.263571 0)
(0.0282683 -0.285853 0)
(0.0296622 -0.30552 0)
(0.0308215 -0.322131 0)
(0.031596 -0.335206 0)
(0.0318422 -0.344224 0)
(0.0314339 -0.348636 0)
(0.0302736 -0.347876 0)
(0.028307 -0.341374 0)
(0.0255366 -0.328577 0)
(0.0220352 -0.30898 0)
(0.0179572 -0.282156 0)
(0.0135453 -0.247793 0)
(0.00912299 -0.205733 0)
(0.005075 -0.156016 0)
(0.00190089 -0.0989016 0)
(0.000302928 -0.0349434 0)
(0.000447695 0.0374611 0)
(0.00286326 0.105768 0)
(0.00776103 0.166537 0)
(0.0141854 0.219166 0)
(0.0214601 0.263334 0)
(0.0290423 0.298958 0)
(0.0364364 0.326176 0)
(0.0432279 0.345318 0)
(0.0491019 0.356872 0)
(0.0538451 0.361435 0)
(0.0573398 0.359674 0)
(0.0595531 0.35229 0)
(0.0605231 0.339984 0)
(0.0603432 0.323436 0)
(0.0591469 0.303283 0)
(0.0570933 0.28011 0)
(0.054355 0.254443 0)
(0.0511078 0.226749 0)
(0.0475228 0.197436 0)
(0.0437608 0.166858 0)
(0.0399677 0.135321 0)
(0.0362724 0.103088 0)
(0.0327849 0.0703909 0)
(0.0295959 0.0374344 0)
(0.0267766 0.00440579 0)
(0.0243789 -0.0285176 0)
(0.0224359 -0.0611612 0)
(0.0209623 -0.093346 0)
(0.0199549 -0.124881 0)
(0.0193933 -0.15556 0)
(0.0192399 -0.18515 0)
(0.0194407 -0.213392 0)
(0.0199261 -0.239993 0)
(0.0206118 -0.264626 0)
(0.0214006 -0.286922 0)
(0.0221849 -0.306476 0)
(0.0228504 -0.322842 0)
(0.0232806 -0.335542 0)
(0.0233635 -0.344067 0)
(0.0229996 -0.347887 0)
(0.0221108 -0.346467 0)
(0.0206509 -0.339282 0)
(0.0186165 -0.325833 0)
(0.0160567 -0.305683 0)
(0.0130815 -0.278475 0)
(0.00986566 -0.243972 0)
(0.00664397 -0.202086 0)
(0.00369588 -0.152907 0)
(0.00138448 -0.0967292 0)
(0.000220694 -0.034102 0)
(0.000366825 0.036122 0)
(0.00236011 0.102244 0)
(0.00642298 0.16136 0)
(0.0117875 0.212882 0)
(0.0179123 0.25647 0)
(0.0243595 0.291996 0)
(0.0307225 0.319532 0)
(0.0366529 0.33933 0)
(0.0418775 0.35179 0)
(0.0462016 0.357422 0)
(0.049506 0.356813 0)
(0.0517408 0.350592 0)
(0.0529157 0.339401 0)
(0.0530886 0.323875 0)
(0.0523538 0.304619 0)
(0.0508308 0.282196 0)
(0.0486543 0.257125 0)
(0.0459654 0.22987 0)
(0.0429047 0.200844 0)
(0.039607 0.170411 0)
(0.0361974 0.13889 0)
(0.0327887 0.106561 0)
(0.0294796 0.0736707 0)
(0.0263539 0.0404422 0)
(0.0234803 0.00707994 0)
(0.0209123 -0.0262218 0)
(0.0186884 -0.0592716 0)
(0.0168327 -0.0918741 0)
(0.015355 -0.123823 0)
(0.0142514 -0.154895 0)
(0.0135043 -0.184844 0)
(0.013083 -0.213395 0)
(0.0129442 -0.240243 0)
(0.0130327 -0.265047 0)
(0.013282 -0.287428 0)
(0.0136169 -0.306971 0)
(0.0139549 -0.323229 0)
(0.0142104 -0.335721 0)
(0.0142985 -0.343944 0)
(0.0141411 -0.347385 0)
(0.0136734 -0.345528 0)
(0.0128514 -0.33788 0)
(0.0116598 -0.323982 0)
(0.0101191 -0.303444 0)
(0.00829224 -0.275962 0)
(0.00628723 -0.241352 0)
(0.00425452 -0.199574 0)
(0.00237693 -0.150761 0)
(0.000894169 -0.0952257 0)
(0.000143379 -0.0335185 0)
(0.000290118 0.0350361 0)
(0.00187742 0.0993721 0)
(0.00512911 0.157119 0)
(0.00944925 0.207698 0)
(0.0144194 0.25076 0)
(0.0196985 0.286145 0)
(0.0249641 0.313882 0)
(0.0299339 0.334163 0)
(0.0343799 0.347323 0)
(0.0381317 0.353806 0)
(0.0410767 0.354135 0)
(0.0431561 0.34888 0)
(0.0443593 0.338637 0)
(0.0447156 0.323998 0)
(0.0442861 0.305541 0)
(0.0431549 0.283809 0)
(0.0414216 0.259309 0)
(0.0391939 0.232499 0)
(0.0365824 0.203795 0)
(0.0336954 0.173566 0)
(0.0306361 0.142139 0)
(0.0274995 0.109806 0)
(0.0243715 0.0768256 0)
(0.0213274 0.0434335 0)
(0.0184315 0.00984724 0)
(0.0157375 -0.023726 0)
(0.0132881 -0.057082 0)
(0.0111157 -0.0900131 0)
(0.00924221 -0.122301 0)
(0.00767952 -0.15371 0)
(0.00642964 -0.183982 0)
(0.00548479 -0.212833 0)
(0.00482749 -0.239944 0)
(0.0044308 -0.264965 0)
(0.0042586 -0.287508 0)
(0.0042663 -0.30715 0)
(0.004402 -0.323437 0)
(0.00460817 -0.335887 0)
(0.00482429 -0.343999 0)
(0.00499014 -0.347263 0)
(0.0050501 -0.345178 0)
(0.00495813 -0.337268 0)
(0.00468318 -0.3231 0)
(0.00421447 -0.302314 0)
(0.00356624 -0.274641 0)
(0.00278079 -0.239932 0)
(0.00192782 -0.198182 0)
(0.00109971 -0.14955 0)
(0.000421782 -0.0943662 0)
(6.94021e-05 -0.0331814 0)
(0.000216345 0.0341942 0)
(0.00140911 0.0971347 0)
(0.00386625 0.153796 0)
(0.00715297 0.20361 0)
(0.0109651 0.246219 0)
(0.0150523 0.281449 0)
(0.0191731 0.309296 0)
(0.0231106 0.329915 0)
(0.0266836 0.343593 0)
(0.0297508 0.350726 0)
(0.0322112 0.351789 0)
(0.0340036 0.347309 0)
(0.0351029 0.337842 0)
(0.0355157 0.323948 0)
(0.0352743 0.306179 0)
(0.0344311 0.285061 0)
(0.0330528 0.261086 0)
(0.0312155 0.23471 0)
(0.0289999 0.206343 0)
(0.0264878 0.176358 0)
(0.0237596 0.145086 0)
(0.0208915 0.112825 0)
(0.0179548 0.0798427 0)
(0.0150148 0.0463821 0)
(0.0121302 0.0126696 0)
(0.00935311 -0.0210787 0)
(0.00672925 -0.0546501 0)
(0.00429788 -0.0878286 0)
(0.00209204 -0.120387 0)
(0.000138692 -0.152083 0)
(-0.0015414 -0.18265 0)
(-0.00293378 -0.211794 0)
(-0.00403059 -0.23919 0)
(-0.00483101 -0.264479 0)
(-0.00534168 -0.287264 0)
(-0.0055771 -0.307116 0)
(-0.00555985 -0.323572 0)
(-0.00532052 -0.336144 0)
(-0.00489715 -0.344327 0)
(-0.00433403 -0.347611 0)
(-0.00367983 -0.345497 0)
(-0.002985 -0.337512 0)
(-0.00229845 -0.323238 0)
(-0.00166392 -0.302326 0)
(-0.00111623 -0.274526 0)
(-0.000678156 -0.239711 0)
(-0.000358347 -0.197896 0)
(-0.000150969 -0.149256 0)
(-3.93458e-05 -0.0941341 0)
(-2.51357e-06 -0.0330834 0)
(0.000144453 0.03359 0)
(0.000949884 0.0955196 0)
(0.00262282 0.151381 0)
(0.00488262 0.200613 0)
(0.00753393 0.24286 0)
(0.0104131 0.277936 0)
(0.0133572 0.305824 0)
(0.0162142 0.326653 0)
(0.0188512 0.340683 0)
(0.0211581 0.348279 0)
(0.0230496 0.349882 0)
(0.0244663 0.345989 0)
(0.025373 0.337125 0)
(0.0257573 0.323827 0)
(0.0256264 0.306625 0)
(0.0250035 0.286031 0)
(0.0239247 0.262524 0)
(0.0224352 0.236552 0)
(0.0205865 0.208522 0)
(0.0184338 0.178806 0)
(0.0160337 0.147735 0)
(0.0134428 0.11561 0)