/*--------------------------------*- C++ -*----------------------------------*\
  =========                 |
  \\      /  F ield         | OpenFOAM: The Open Source CFD Toolbox
   \\    /   O peration     | Website:  https://openfoam.org
    \\  /    A nd           | Version:  7
     \\/     M anipulation  |
\*---------------------------------------------------------------------------*/
FoamFile
{
    version     2.0;
    format      ascii;
    class       volVectorField;
    location    "0.0352";
    object      U;
}
// * * * * * * * * * * * * * * * * * * * * * * * * * * * * * * * * * * * * * //

dimensions      [0 1 -1 0 0 0 0];

internalField   nonuniform List<vector> 
2500
(
(2.62259e-05 -2.63026e-05 0)
(7.64244e-05 -3.00643e-05 0)
(9.84185e-05 -1.27962e-05 0)
(6.02892e-05 1.08181e-05 0)
(-4.70626e-05 3.42663e-05 0)
(-0.00022093 5.56625e-05 0)
(-0.000453905 7.39156e-05 0)
(-0.000737618 8.88206e-05 0)
(-0.00106281 0.000100479 0)
(-0.00142013 0.000109076 0)
(-0.0018005 0.000114827 0)
(-0.00219526 0.00011795 0)
(-0.00259627 0.000118664 0)
(-0.00299596 0.000117179 0)
(-0.00338736 0.0001137 0)
(-0.00376405 0.000108423 0)
(-0.00412027 0.000101533 0)
(-0.00445079 9.32093e-05 0)
(-0.00475099 8.36227e-05 0)
(-0.00501679 7.29368e-05 0)
(-0.00524468 6.13101e-05 0)
(-0.00543166 4.88967e-05 0)
(-0.00557531 3.58487e-05 0)
(-0.0056737 2.23179e-05 0)
(-0.00572545 8.45738e-06 0)
(-0.00572974 -5.57639e-06 0)
(-0.00568629 -1.9622e-05 0)
(-0.0055954 -3.35116e-05 0)
(-0.00545795 -4.70699e-05 0)
(-0.00527547 -6.01133e-05 0)
(-0.00505009 -7.24498e-05 0)
(-0.00478464 -8.38792e-05 0)
(-0.00448261 -9.41936e-05 0)
(-0.00414819 -0.000103179 0)
(-0.00378628 -0.000110618 0)
(-0.00340249 -0.00011629 0)
(-0.00300312 -0.000119974 0)
(-0.00259513 -0.000121453 0)
(-0.00218615 -0.000120518 0)
(-0.00178436 -0.000116965 0)
(-0.00139847 -0.000110604 0)
(-0.00103759 -0.000101261 0)
(-0.000711082 -8.87875e-05 0)
(-0.000428376 -7.30816e-05 0)
(-0.000198572 -5.41505e-05 0)
(-2.9758e-05 -3.22964e-05 0)
(7.1691e-05 -8.55121e-06 0)
(0.000104213 1.47901e-05 0)
(7.7924e-05 3.1052e-05 0)
(2.61625e-05 2.61031e-05 0)
(3.04404e-05 -7.67626e-05 0)
(6.13005e-05 -6.03869e-05 0)
(-5.71014e-07 3.366e-05 0)
(-0.000202849 0.000156023 0)
(-0.000563049 0.000282335 0)
(-0.00107919 0.00040112 0)
(-0.00173881 0.000506046 0)
(-0.00252402 0.00059438 0)
(-0.0034138 0.000665202 0)
(-0.00438584 0.00071851 0)
(-0.0054176 0.000754817 0)
(-0.00648702 0.00077493 0)
(-0.00757291 0.000779826 0)
(-0.00865529 0.000770579 0)
(-0.00971549 0.00074831 0)
(-0.0107363 0.000714158 0)
(-0.0117019 0.000669261 0)
(-0.0125982 0.000614742 0)
(-0.0134125 0.000551706 0)
(-0.0141335 0.000481239 0)
(-0.0147516 0.000404407 0)
(-0.0152586 0.000322264 0)
(-0.0156478 0.000235858 0)
(-0.0159139 0.000146238 0)
(-0.0160532 5.4467e-05 0)
(-0.0160635 -3.83742e-05 0)
(-0.0159442 -0.000131175 0)
(-0.0156961 -0.00022279 0)
(-0.0153219 -0.000312033 0)
(-0.0148258 -0.000397675 0)
(-0.0142138 -0.000478444 0)
(-0.0134938 -0.000553031 0)
(-0.0126753 -0.000620094 0)
(-0.0117699 -0.000678272 0)
(-0.0107908 -0.000726198 0)
(-0.00975331 -0.000762521 0)
(-0.00867425 -0.000785926 0)
(-0.00757227 -0.000795164 0)
(-0.00646748 -0.000789084 0)
(-0.00538134 -0.000766673 0)
(-0.00433632 -0.000727112 0)
(-0.00335551 -0.00066985 0)
(-0.00246213 -0.000594726 0)
(-0.00167864 -0.000502181 0)
(-0.00102567 -0.000393646 0)
(-0.000520168 -0.000272365 0)
(-0.00017282 -0.000144977 0)
(1.63721e-05 -2.38313e-05 0)
(6.7584e-05 6.6531e-05 0)
(3.14423e-05 7.79644e-05 0)
(1.42062e-05 -0.000100133 0)
(-2.95608e-05 3.62522e-07 0)
(-0.000242276 0.000247387 0)
(-0.000661708 0.00055428 0)
(-0.00130395 0.000873497 0)
(-0.00216655 0.00117728 0)
(-0.0032337 0.00144955 0)
(-0.00448126 0.00168177 0)
(-0.00588021 0.00186992 0)
(-0.00739895 0.00201269 0)
(-0.00900487 0.00211047 0)
(-0.0106655 0.00216472 0)
(-0.0123494 0.00217758 0)
(-0.0140265 0.00215159 0)
(-0.0156684 0.00208959 0)
(-0.0172488 0.00199452 0)
(-0.0187436 0.00186943 0)
(-0.020131 0.00171735 0)
(-0.0213912 0.00154134 0)
(-0.022507 0.00134441 0)
(-0.0234633 0.00112955 0)
(-0.0242475 0.00089975 0)
(-0.0248491 0.000657974 0)
(-0.02526 0.00040721 0)
(-0.0254746 0.000150478 0)
(-0.0254894 -0.000109146 0)
(-0.0253036 -0.000368512 0)
(-0.0249186 -0.000624381 0)
(-0.0243386 -0.000873411 0)
(-0.0235702 -0.00111216 0)
(-0.0226229 -0.00133708 0)
(-0.0215089 -0.00154453 0)
(-0.020243 -0.00173084 0)
(-0.018843 -0.00189226 0)
(-0.0173294 -0.00202509 0)
(-0.0157254 -0.00212571 0)
(-0.0140569 -0.00219065 0)
(-0.0123521 -0.00221668 0)
(-0.0106413 -0.0022009 0)
(-0.00895661 -0.00214092 0)
(-0.00733147 -0.00203502 0)
(-0.00579973 -0.0018824 0)
(-0.00439493 -0.00168354 0)
(-0.00314893 -0.00144082 0)
(-0.00209028 -0.00115947 0)
(-0.00124178 -0.0008493 0)
(-0.000617142 -0.000527506 0)
(-0.000216124 -0.000222942 0)
(-1.89344e-05 1.66375e-05 0)
(1.62851e-05 0.000105649 0)
(-8.14162e-06 -6.55281e-05 0)
(-0.000148577 0.000198937 0)
(-0.000545182 0.000665639 0)
(-0.00121164 0.00121896 0)
(-0.0021549 0.00178979 0)
(-0.00336892 0.00233406 0)
(-0.0048336 0.00282441 0)
(-0.00651944 0.00324495 0)
(-0.00839109 0.00358722 0)
(-0.0104098 0.00384768 0)
(-0.0125351 0.00402603 0)
(-0.0147264 0.00412414 0)
(-0.0169439 0.00414537 0)
(-0.0191493 0.00409398 0)
(-0.0213064 0.00397493 0)
(-0.0233814 0.0037935 0)
(-0.025343 0.00355524 0)
(-0.0271629 0.00326578 0)
(-0.0288156 0.00293084 0)
(-0.0302785 0.00255608 0)
(-0.031532 0.00214721 0)
(-0.0325595 0.00170988 0)
(-0.0333476 0.00124978 0)
(-0.0338856 0.000772631 0)
(-0.0341661 0.000284219 0)
(-0.0341847 -0.000209566 0)
(-0.0339404 -0.000702701 0)
(-0.0334352 -0.001189 0)
(-0.0326746 -0.0016621 0)
(-0.0316673 -0.00211547 0)
(-0.0304257 -0.0025424 0)
(-0.0289657 -0.00293604 0)
(-0.0273068 -0.00328946 0)
(-0.0254718 -0.00359571 0)
(-0.0234875 -0.00384792 0)
(-0.0213838 -0.00403941 0)
(-0.019194 -0.00416387 0)
(-0.0169542 -0.0042155 0)
(-0.0147033 -0.00418926 0)
(-0.0124819 -0.00408114 0)
(-0.0103321 -0.00388855 0)
(-0.00829634 -0.00361074 0)
(-0.00641625 -0.00324956 0)
(-0.00473102 -0.00281042 0)
(-0.00327553 -0.00230386 0)
(-0.00207779 -0.00174793 0)
(-0.00115551 -0.00117199 0)
(-0.000511579 -0.00062173 0)
(-0.000134722 -0.000166971 0)
(-5.48125e-06 7.74017e-05 0)
(-3.06581e-05 3.62275e-05 0)
(-0.000274188 0.000555105 0)
(-0.0008688 0.00130914 0)
(-0.00179669 0.00216412 0)
(-0.00305093 0.00303403 0)
(-0.00461895 0.00386063 0)
(-0.00647482 0.00460578 0)
(-0.00858328 0.00524591 0)
(-0.0109032 0.00576761 0)
(-0.0133895 0.00616452 0)
(-0.0159955 0.00643526 0)
(-0.0186737 0.00658188 0)
(-0.0213775 0.00660885 0)
(-0.024062 0.00652233 0)
(-0.0266843 0.0063296 0)
(-0.0292044 0.00603866 0)
(-0.031585 0.005658 0)
(-0.0337923 0.00519637 0)
(-0.035796 0.00466266 0)
(-0.0375689 0.00406583 0)
(-0.0390876 0.00341485 0)
(-0.0403323 0.00271872 0)
(-0.0412866 0.00198649 0)
(-0.0419381 0.00122726 0)
(-0.0422777 0.000450257 0)
(-0.0423002 -0.000335139 0)
(-0.0420044 -0.00111934 0)
(-0.0413928 -0.0018925 0)
(-0.0404719 -0.00264455 0)
(-0.0392524 -0.00336512 0)
(-0.0377491 -0.00404362 0)
(-0.0359809 -0.00466929 0)
(-0.0339712 -0.00523124 0)
(-0.0317473 -0.00571862 0)
(-0.0293411 -0.00612074 0)
(-0.0267882 -0.0064273 0)
(-0.0241279 -0.00662862 0)
(-0.0214032 -0.00671593 0)
(-0.0186597 -0.00668179 0)
(-0.0159454 -0.00652045 0)
(-0.0133094 -0.00622852 0)
(-0.0108014 -0.00580563 0)
(-0.00846973 -0.00525548 0)
(-0.00635993 -0.00458717 0)
(-0.00451281 -0.00381722 0)
(-0.00296213 -0.00297238 0)
(-0.00173122 -0.00209381 0)
(-0.000829132 -0.00124221 0)
(-0.000257761 -0.000505048 0)
(-2.75563e-05 -1.62506e-05 0)
(-5.16876e-05 0.000204411 0)
(-0.000397355 0.00107289 0)
(-0.0011925 0.00218566 0)
(-0.00238599 0.00339813 0)
(-0.00395447 0.0046122 0)
(-0.00587659 0.00575834 0)
(-0.00811896 0.00678903 0)
(-0.0106397 0.00767361 0)
(-0.0133917 0.00839377 0)
(-0.0163241 0.00894027 0)
(-0.0193842 0.00931043 0)
(-0.0225188 0.00950643 0)
(-0.0256754 0.00953389 0)
(-0.0288034 0.00940092 0)
(-0.0318543 0.00911735 0)
(-0.0347828 0.0086942 0)
(-0.0375468 0.00814326 0)
(-0.0401078 0.00747681 0)
(-0.0424311 0.0067074 0)
(-0.0444861 0.00584774 0)
(-0.0462459 0.00491063 0)
(-0.047688 0.00390894 0)
(-0.0487937 0.0028556 0)
(-0.0495486 0.00176368 0)
(-0.0499426 0.0006464 0)
(-0.0499697 -0.000482764 0)
(-0.0496285 -0.00161007 0)
(-0.0489218 -0.00272144 0)
(-0.0478571 -0.00380244 0)
(-0.0464464 -0.0048383 0)
(-0.0447067 -0.00581391 0)
(-0.0426594 -0.00671397 0)
(-0.0403312 -0.00752305 0)
(-0.0377532 -0.00822579 0)
(-0.0349613 -0.00880716 0)
(-0.0319961 -0.00925272 0)
(-0.0289021 -0.00954899 0)
(-0.0257279 -0.00968391 0)
(-0.022525 -0.00964733 0)
(-0.0193475 -0.0094317 0)
(-0.016251 -0.0090328 0)
(-0.0132912 -0.00845077 0)
(-0.0105227 -0.00769136 0)
(-0.00799718 -0.00676759 0)
(-0.00576179 -0.00570198 0)
(-0.00385684 -0.0045296 0)
(-0.002313 -0.00330215 0)
(-0.00114772 -0.00209276 0)
(-0.000378592 -0.00100197 0)
(-4.80963e-05 -0.000174971 0)
(-7.07514e-05 0.000435282 0)
(-0.000514547 0.0017495 0)
(-0.00150704 0.00329474 0)
(-0.00296457 0.00492176 0)
(-0.00484646 0.00652458 0)
(-0.00712109 0.0080253 0)
(-0.00974633 0.00936889 0)
(-0.0126728 0.0105186 0)
(-0.0158468 0.0114519 0)
(-0.0192114 0.0121569 0)
(-0.0227084 0.0126298 0)
(-0.026279 0.012873 0)
(-0.0298656 0.0128933 0)
(-0.0334125 0.0127011 0)
(-0.0368664 0.0123088 0)
(-0.0401774 0.0117309 0)
(-0.0432992 0.0109828 0)
(-0.0461894 0.0100805 0)
(-0.0488098 0.0090408 0)
(-0.0511265 0.00788048 0)
(-0.0531099 0.0066166 0)
(-0.054735 0.00526636 0)
(-0.0559814 0.00384706 0)
(-0.0568331 0.00237617 0)
(-0.0572787 0.000871425 0)
(-0.0573118 -0.000649162 0)
(-0.0569305 -0.00216719 0)
(-0.056138 -0.00366383 0)
(-0.0549424 -0.00511979 0)
(-0.053357 -0.00651536 0)
(-0.0514004 -0.00783041 0)
(-0.0490961 -0.00904455 0)
(-0.0464734 -0.0101373 0)
(-0.0435665 -0.0110883 0)
(-0.0404151 -0.0118776 0)
(-0.0370637 -0.0124863 0)
(-0.0335613 -0.0128966 0)
(-0.0299614 -0.0130929 0)
(-0.0263208 -0.013062 0)
(-0.0226991 -0.0127944 0)
(-0.0191574 -0.0122849 0)
(-0.0157577 -0.011534 0)
(-0.0125605 -0.0105494 0)
(-0.00962409 -0.00934797 0)
(-0.00700227 -0.00795769 0)
(-0.00474309 -0.00642107 0)
(-0.00288588 -0.00479875 0)
(-0.00145802 -0.00317362 0)
(-0.000493699 -0.00165544 0)
(-6.66831e-05 -0.000395266 0)
(-8.80413e-05 0.000724991 0)
(-0.000625317 0.00257967 0)
(-0.00180986 0.00463218 0)
(-0.00352741 0.00673211 0)
(-0.00572004 0.00876884 0)
(-0.00834509 0.0106587 0)
(-0.0113507 0.012341 0)
(-0.0146792 0.0137743 0)
(-0.0182695 0.0149327 0)
(-0.0220585 0.0158022 0)
(-0.0259822 0.0163784 0)
(-0.0299765 0.0166641 0)
(-0.0339788 0.0166678 0)
(-0.0379287 0.016402 0)
(-0.0417686 0.0158826 0)
(-0.0454448 0.0151273 0)
(-0.048907 0.0141555 0)
(-0.0521096 0.0129877 0)
(-0.0550114 0.0116447 0)
(-0.0575757 0.010148 0)
(-0.0597707 0.00851939 0)
(-0.0615693 0.00678061 0)
(-0.0629494 0.00495373 0)
(-0.0638936 0.00306106 0)
(-0.0643898 0.00112516 0)
(-0.0644307 -0.000830959 0)
(-0.0640142 -0.00278386 0)
(-0.0631437 -0.00470954 0)
(-0.0618277 -0.00658345 0)
(-0.0600803 -0.00838046 0)
(-0.0579214 -0.010075 0)
(-0.0553764 -0.0116411 0)
(-0.0524766 -0.0130528 0)
(-0.0492588 -0.0142843 0)
(-0.0457658 -0.0153103 0)
(-0.0420454 -0.0161069 0)
(-0.0381509 -0.0166516 0)
(-0.03414 -0.0169248 0)
(-0.0300743 -0.0169101 0)
(-0.0260186 -0.0165955 0)
(-0.0220397 -0.0159746 0)
(-0.0182052 -0.0150481 0)
(-0.0145824 -0.0138252 0)
(-0.0112362 -0.012326 0)
(-0.00822816 -0.0105834 0)
(-0.00561483 -0.00864606 0)
(-0.00344528 -0.00658195 0)
(-0.00175764 -0.00448147 0)
(-0.000602674 -0.00246067 0)
(-8.35116e-05 -0.000673314 0)
(-0.000103952 0.00107002 0)
(-0.000730602 0.00355786 0)
(-0.00210195 0.00619288 0)
(-0.00407529 0.00882541 0)
(-0.00657595 0.0113424 0)
(-0.00954988 0.0136565 0)
(-0.0129349 0.0157031 0)
(-0.0166642 0.0174376 0)
(-0.020669 0.0188316 0)
(-0.0248793 0.01987 0)
(-0.0292251 0.0205481 0)
(-0.0336368 0.0208699 0)
(-0.0380471 0.0208458 0)
(-0.042391 0.0204912 0)
(-0.046607 0.0198252 0)
(-0.0506376 0.0188696 0)
(-0.0544295 0.0176479 0)
(-0.057934 0.0161852 0)
(-0.0611072 0.0145071 0)
(-0.0639102 0.01264 0)
(-0.0663092 0.0106104 0)
(-0.0682754 0.00844518 0)
(-0.0697851 0.00617148 0)
(-0.0708201 0.00381667 0)
(-0.071367 0.00140852 0)
(-0.0714182 -0.0010247 0)
(-0.0709712 -0.00345418 0)
(-0.0700292 -0.00585041 0)
(-0.0686011 -0.00818321 0)
(-0.0667017 -0.0104217 0)
(-0.0643516 -0.0125345 0)
(-0.0615776 -0.0144896 0)
(-0.0584128 -0.0162551 0)
(-0.0548961 -0.0177994 0)
(-0.0510729 -0.0190913 0)
(-0.0469942 -0.0201015 0)
(-0.0427167 -0.0208024 0)
(-0.0383022 -0.0211699 0)
(-0.0338169 -0.0211839 0)
(-0.0293307 -0.0208294 0)
(-0.0249161 -0.0200986 0)
(-0.0206469 -0.0189915 0)
(-0.016597 -0.0175187 0)
(-0.012839 -0.0157024 0)
(-0.00944263 -0.0135796 0)
(-0.00647406 -0.0112041 0)
(-0.00399273 -0.00864961 0)
(-0.00204796 -0.0060123 0)
(-0.000706574 -0.00341269 0)
(-9.89883e-05 -0.00100574 0)
(-0.000118899 0.00146766 0)
(-0.000831894 0.00467943 0)
(-0.00238609 0.00797248 0)
(-0.00461215 0.0111986 0)
(-0.00741935 0.0142436 0)
(-0.0107421 0.0170182 0)
(-0.0145075 0.0194554 0)
(-0.0186391 0.0215086 0)
(-0.0230596 0.0231481 0)
(-0.027692 0.0243585 0)
(-0.0324596 0.0251361 0)
(-0.0372875 0.0254863 0)
(-0.0421032 0.0254222 0)
(-0.0468375 0.0249623 0)
(-0.0514251 0.0241295 0)
(-0.0558049 0.02295 0)
(-0.0599207 0.0214521 0)
(-0.0637213 0.0196655 0)
(-0.0671604 0.0176211 0)
(-0.0701973 0.0153502 0)
(-0.0727963 0.0128847 0)
(-0.0749272 0.0102567 0)
(-0.0765651 0.00749856 0)
(-0.0776907 0.00464305 0)
(-0.07829 0.00172336 0)
(-0.0783545 -0.00122676 0)
(-0.0778814 -0.00417283 0)
(-0.0768738 -0.00707962 0)
(-0.0753406 -0.00991101 0)
(-0.0732968 -0.0126301 0)
(-0.0707637 -0.0151992 0)
(-0.0677692 -0.0175801 0)
(-0.0643475 -0.0197345 0)
(-0.0605395 -0.0216244 0)
(-0.0563927 -0.0232125 0)
(-0.0519608 -0.0244633 0)
(-0.0473039 -0.0253439 0)
(-0.0424876 -0.0258249 0)
(-0.0375827 -0.0258819 0)
(-0.0326642 -0.0254966 0)
(-0.0278104 -0.0246587 0)
(-0.0231017 -0.0233674 0)
(-0.0186193 -0.0216333 0)
(-0.014444 -0.0194805 0)
(-0.0106547 -0.0169488 0)
(-0.00732761 -0.0140961 0)
(-0.00453324 -0.0110007 0)
(-0.00233228 -0.00776328 0)
(-0.000807084 -0.00450774 0)
(-0.000113559 -0.00139006 0)
(-0.000133269 0.0019161 0)
(-0.000930862 0.00594136 0)
(-0.00266584 0.00996834 0)
(-0.00514362 0.0138502 0)
(-0.00825787 0.0174726 0)
(-0.0119315 0.0207452 0)
(-0.0160806 0.0236001 0)
(-0.0206184 0.0259899 0)
(-0.0254591 0.0278848 0)
(-0.0305175 0.0292702 0)
(-0.0357104 0.0301438 0)
(-0.040957 0.0305137 0)
(-0.0461797 0.0303961 0)
(-0.0513049 0.0298133 0)
(-0.0562635 0.0287929 0)
(-0.0609913 0.0273655 0)
(-0.0654293 0.0255645 0)
(-0.0695239 0.0234251 0)
(-0.0732269 0.0209833 0)
(-0.0764958 0.018276 0)
(-0.0792935 0.0153404 0)
(-0.0815886 0.0122142 0)
(-0.0833551 0.00893516 0)
(-0.0845728 0.00554163 0)
(-0.0852269 0.00207236 0)
(-0.0853083 -0.00143322 0)
(-0.0848138 -0.00493482 0)
(-0.0837459 -0.00839125 0)
(-0.0821136 -0.0117603 0)
(-0.0799318 -0.0149986 0)
(-0.0772222 -0.0180621 0)
(-0.0740131 -0.0209059 0)
(-0.0703399 -0.023485 0)
(-0.0662449 -0.0257544 0)
(-0.0617773 -0.0276703 0)
(-0.0569936 -0.0291905 0)
(-0.0519567 -0.0302758 0)
(-0.0467362 -0.0308914 0)
(-0.0414072 -0.0310075 0)
(-0.0360502 -0.030602 0)
(-0.0307495 -0.0296614 0)
(-0.0255925 -0.0281828 0)
(-0.0206686 -0.0261765 0)
(-0.0160671 -0.0236671 0)
(-0.0118769 -0.0206966 0)
(-0.00818513 -0.0173258 0)
(-0.00507371 -0.0136367 0)
(-0.0026149 -0.0097337 0)
(-0.000906126 -0.00574394 0)
(-0.000127649 -0.00182485 0)
(-0.00014741 0.00241452 0)
(-0.00102918 0.00734248 0)
(-0.00294509 0.01218 0)
(-0.00567601 0.0167812 0)
(-0.00910037 0.0210319 0)
(-0.0131295 0.0248416 0)
(-0.0176681 0.0281423 0)
(-0.0226188 0.0308872 0)
(-0.0278865 0.0330474 0)
(-0.0333779 0.0346101 0)
(-0.0390025 0.0355758 0)
(-0.0446733 0.0359558 0)
(-0.0503075 0.0357703 0)
(-0.0558271 0.0350463 0)
(-0.0611593 0.0338161 0)
(-0.0662369 0.0321161 0)
(-0.0709981 0.0299849 0)
(-0.0753872 0.0274633 0)
(-0.0793545 0.0245931 0)
(-0.0828558 0.0214169 0)
(-0.0858529 0.0179776 0)
(-0.0883134 0.0143185 0)
(-0.0902104 0.0104829 0)
(-0.0915228 0.00651494 0)
(-0.092235 0.00245894 0)
(-0.0923375 -0.00163982 0)
(-0.0918263 -0.00573518 0)
(-0.0907035 -0.00977982 0)
(-0.0889776 -0.0137252 0)
(-0.0866633 -0.0175215 0)
(-0.0837824 -0.0211179 0)
(-0.0803635 -0.0244624 0)
(-0.0764423 -0.0275029 0)
(-0.0720624 -0.0301872 0)
(-0.0672747 -0.032464 0)
(-0.0621377 -0.0342842 0)
(-0.0567173 -0.0356016 0)
(-0.0510868 -0.0363747 0)
(-0.045326 -0.0365681 0)
(-0.0395207 -0.0361546 0)
(-0.0337618 -0.0351166 0)
(-0.0281444 -0.0334486 0)
(-0.0227661 -0.0311589 0)
(-0.0177261 -0.0282723 0)
(-0.0131238 -0.0248315 0)
(-0.00905774 -0.0208997 0)
(-0.00562196 -0.0165618 0)
(-0.00290046 -0.0119257 0)
(-0.00100567 -0.00712164 0)
(-0.000141655 -0.00230974 0)
(-0.000161627 0.00296296 0)
(-0.00112845 0.00888354 0)
(-0.00322771 0.0146095 0)
(-0.00621586 0.0199952 0)
(-0.0099561 0.0249266 0)
(-0.014348 0.0293138 0)
(-0.0192845 0.0330896 0)
(-0.0246575 0.0362085 0)
(-0.0303617 0.038644 0)
(-0.0362952 0.0403863 0)
(-0.0423601 0.0414393 0)
(-0.048463 0.0418189 0)
(-0.0545155 0.0415501 0)
(-0.0604353 0.0406654 0)
(-0.0661457 0.0392028 0)
(-0.0715765 0.0372044 0)
(-0.0766637 0.0347151 0)
(-0.0813497 0.0317817 0)
(-0.085583 0.028452 0)
(-0.0893186 0.0247746 0)
(-0.0925171 0.0207981 0)
(-0.0951452 0.0165718 0)
(-0.0971754 0.0121446 0)
(-0.0985858 0.00756639 0)
(-0.0993603 0.00288719 0)
(-0.0994885 -0.00184191 0)
(-0.0989657 -0.00656877 0)
(-0.0977935 -0.0112399 0)
(-0.0959797 -0.0158004 0)
(-0.0935384 -0.0201937 0)
(-0.0904911 -0.024362 0)
(-0.0868662 -0.0282461 0)
(-0.0826999 -0.0317861 0)
(-0.0780363 -0.0349222 0)
(-0.0729275 -0.0375952 0)
(-0.0674341 -0.0397481 0)
(-0.0616249 -0.0413269 0)
(-0.0555765 -0.0422829 0)
(-0.0493736 -0.0425739 0)
(-0.0431077 -0.0421664 0)
(-0.0368765 -0.0410379 0)
(-0.0307832 -0.0391788 0)
(-0.0249346 -0.0365949 0)
(-0.0194402 -0.0333096 0)
(-0.0144108 -0.0293659 0)
(-0.00995724 -0.0248281 0)
(-0.00618615 -0.0197839 0)
(-0.00319374 -0.0143444 0)
(-0.00110765 -0.00864356 0)
(-0.000155933 -0.00284544 0)
(-0.000176193 0.00356227 0)
(-0.00123017 0.0105672 0)
(-0.0035174 0.0172613 0)
(-0.00676953 0.0234984 0)
(-0.0108342 0.0291646 0)
(-0.015599 0.034171 0)
(-0.0209445 0.0384519 0)
(-0.0267512 0.0419644 0)
(-0.0329036 0.0446853 0)
(-0.0392905 0.0466087 0)
(-0.0458062 0.0477437 0)
(-0.0523505 0.0481114 0)
(-0.0588296 0.0477427 0)
(-0.0651564 0.0466766 0)
(-0.0712506 0.0449575 0)
(-0.0770392 0.0426342 0)
(-0.082456 0.0397582 0)
(-0.0874417 0.0363828 0)
(-0.0919437 0.0325622 0)
(-0.0959158 0.0283511 0)
(-0.0993181 0.0238044 0)
(-0.102117 0.0189769 0)
(-0.104283 0.0139237 0)
(-0.105796 0.00869999 0)
(-0.106637 0.00336171 0)
(-0.106796 -0.00203433 0)
(-0.106267 -0.00743006 0)
(-0.105052 -0.0127658 0)
(-0.103156 -0.0179803 0)
(-0.100593 -0.0230101 0)
(-0.0973849 -0.0277901 0)
(-0.0935583 -0.0322536 0)
(-0.0891497 -0.0363329 0)
(-0.0842034 -0.0399597 0)
(-0.0787725 -0.0430663 0)
(-0.0729192 -0.045587 0)
(-0.0667147 -0.0474594 0)
(-0.0602395 -0.0486262 0)
(-0.0535827 -0.0490373 0)
(-0.0468418 -0.048652 0)
(-0.0401219 -0.0474414 0)
(-0.0335345 -0.0453908 0)
(-0.0271966 -0.0425021 0)
(-0.0212286 -0.0387963 0)
(-0.0157536 -0.0343155 0)
(-0.0108955 -0.0291249 0)
(-0.00677445 -0.0233143 0)
(-0.00349944 -0.0169981 0)
(-0.00121391 -0.0103147 0)
(-0.000170815 -0.00343364 0)
(-0.000191349 0.00421408 0)
(-0.00133571 0.0123978 0)
(-0.00381767 0.0201423 0)
(-0.0073431 0.0272998 0)
(-0.0117435 0.0337567 0)
(-0.0168938 0.0394251 0)
(-0.0226618 0.0442419 0)
(-0.0289161 0.0481677 0)
(-0.0355301 0.0511835 0)
(-0.0423833 0.0532892 0)
(-0.0493614 0.0544995 0)
(-0.0563574 0.0548424 0)
(-0.0632717 0.0543561 0)
(-0.0700127 0.0530866 0)
(-0.0764965 0.0510858 0)
(-0.0826474 0.0484099 0)
(-0.0883973 0.0451177 0)
(-0.0936854 0.0412695 0)
(-0.0984581 0.0369262 0)
(-0.102669 0.032149 0)
(-0.106277 0.0269991 0)
(-0.109249 0.0215371 0)
(-0.111555 0.0158238 0)
(-0.113173 0.00992008 0)
(-0.114086 0.00388752 0)
(-0.114281 -0.00221146 0)
(-0.113753 -0.00831296 0)
(-0.112501 -0.0143513 0)
(-0.11053 -0.0202585 0)
(-0.107853 -0.0259646 0)
(-0.10449 -0.031397 0)
(-0.100467 -0.0364813 0)
(-0.0958198 -0.0411411 0)
(-0.0905928 -0.0452995 0)
(-0.0848394 -0.0488795 0)
(-0.0786231 -0.051806 0)
(-0.0720173 -0.0540068 0)
(-0.0651059 -0.0554152 0)
(-0.0579828 -0.0559719 0)
(-0.0507515 -0.0556275 0)
(-0.0435247 -0.0543454 0)
(-0.0364231 -0.0521044 0)
(-0.0295741 -0.0489011 0)
(-0.0231102 -0.0447529 0)
(-0.0171675 -0.0397001 0)
(-0.0118843 -0.033808 0)
(-0.00739488 -0.027168 0)
(-0.0038221 -0.0198983 0)
(-0.00132624 -0.0121425 0)
(-0.000186604 -0.00407699 0)
(-0.000207311 0.00492069 0)
(-0.00144634 0.0143815 0)
(-0.00413175 0.0232617 0)
(-0.00794222 0.031411 0)
(-0.0126921 0.0387161 0)
(-0.018243 0.0450905 0)
(-0.0244494 0.0504744 0)
(-0.0311668 0.0548328 0)
(-0.0382574 0.0581526 0)
(-0.0455904 0.0604402 0)
(-0.0530431 0.061718 0)
(-0.0605011 0.0620218 0)
(-0.0678592 0.0613982 0)
(-0.0750209 0.0599016 0)
(-0.0818993 0.0575924 0)
(-0.0884159 0.0545351 0)
(-0.094501 0.0507963 0)
(-0.100093 0.0464438 0)
(-0.105138 0.0415458 0)
(-0.109588 0.0361702 0)
(-0.113403 0.0303843 0)
(-0.11655 0.0242549 0)
(-0.118998 0.0178483 0)
(-0.120726 0.011231 0)
(-0.121715 0.00446988 0)
(-0.121953 -0.00236718 0)
(-0.121431 -0.00921064 0)
(-0.12015 -0.0159889 0)
(-0.118113 -0.0226277 0)
(-0.11533 -0.0290502 0)
(-0.11182 -0.0351763 0)
(-0.107607 -0.0409236 0)
(-0.102728 -0.046207 0)
(-0.097224 -0.0509401 0)
(-0.0911496 -0.0550361 0)
(-0.0845688 -0.0584092 0)
(-0.0775569 -0.0609767 0)
(-0.0702011 -0.0626609 0)
(-0.0625995 -0.0633919 0)
(-0.0548622 -0.0631103 0)
(-0.0471096 -0.0617701 0)
(-0.0394719 -0.0593417 0)
(-0.0320879 -0.0558153 0)
(-0.025103 -0.0512031 0)
(-0.0186675 -0.0455427 0)
(-0.0129348 -0.0388985 0)
(-0.00805513 -0.0313635 0)
(-0.00416611 -0.0230596 0)
(-0.00144631 -0.0141364 0)
(-0.000203584 -0.00477904 0)
(-0.000224276 0.00568505 0)
(-0.00156321 0.016526 0)
(-0.00446265 0.0266306 0)
(-0.00857213 0.035846 0)
(-0.0136877 0.0440584 0)
(-0.0196566 0.0511837 0)
(-0.0263188 0.0571659 0)
(-0.0335163 0.0619758 0)
(-0.0410992 0.0656073 0)
(-0.0489261 0.0680751 0)
(-0.0568653 0.0694104 0)
(-0.0647949 0.0696587 0)
(-0.0726039 0.0688761 0)
(-0.0801915 0.0671268 0)
(-0.0874673 0.0644809 0)
(-0.094351 0.0610118 0)
(-0.100771 0.0567949 0)
(-0.106666 0.0519061 0)
(-0.111982 0.0464212 0)
(-0.11667 0.0404149 0)
(-0.120693 0.033961 0)
(-0.124014 0.0271322 0)
(-0.126607 0.0200002 0)
(-0.128447 0.0126369 0)
(-0.129516 0.00511416 0)
(-0.129802 -0.00249488 0)
(-0.129296 -0.0101154 0)
(-0.127994 -0.0176701 0)
(-0.1259 -0.0250788 0)
(-0.123021 -0.0322576 0)
(-0.119375 -0.0391193 0)
(-0.114983 -0.045573 0)
(-0.10988 -0.0515246 0)
(-0.104106 -0.0568777 0)
(-0.097715 -0.0615349 0)
(-0.090771 -0.0653988 0)
(-0.0833508 -0.0683747 0)
(-0.0755441 -0.0703728 0)
(-0.0674536 -0.071311 0)
(-0.0591953 -0.0711178 0)
(-0.0508979 -0.0697361 0)
(-0.0427016 -0.0671264 0)
(-0.0347572 -0.0632703 0)
(-0.0272239 -0.0581737 0)
(-0.0202674 -0.0518697 0)
(-0.0140579 -0.0444213 0)
(-0.00876259 -0.0359225 0)
(-0.00453564 -0.0264994 0)
(-0.00157574 -0.0163082 0)
(-0.000222024 -0.00554419 0)
(-0.000242423 0.00651066 0)
(-0.0016874 0.0188402 0)
(-0.00481311 0.0302624 0)
(-0.0092376 0.0406207 0)
(-0.014737 0.0498015 0)
(-0.021143 0.057723 0)
(-0.02828 0.0643344 0)
(-0.0359757 0.0696134 0)
(-0.0440669 0.0735627 0)
(-0.0524013 0.0762065 0)
(-0.0608377 0.077587 0)
(-0.0692468 0.0777606 0)
(-0.0775117 0.0767949 0)
(-0.0855274 0.0747651 0)
(-0.0932007 0.071752 0)
(-0.100449 0.0678393 0)
(-0.107202 0.0631117 0)
(-0.113396 0.0576541 0)
(-0.118977 0.05155 0)
(-0.1239 0.0448812 0)
(-0.128126 0.0377281 0)
(-0.131621 0.030169 0)
(-0.134357 0.0222811 0)
(-0.136311 0.014141 0)
(-0.137466 0.00582554 0)
(-0.137806 -0.00258757 0)
(-0.137322 -0.0110186 0)
(-0.136011 -0.0193849 0)
(-0.133871 -0.0276006 0)
(-0.13091 -0.0355753 0)
(-0.12714 -0.0432143 0)
(-0.122583 -0.0504184 0)
(-0.117268 -0.0570843 0)
(-0.111235 -0.0631049 0)
(-0.104536 -0.0683712 0)
(-0.0972346 -0.0727735 0)
(-0.0894075 -0.0762038 0)
(-0.0811468 -0.0785583 0)
(-0.0725595 -0.0797409 0)
(-0.0637674 -0.0796663 0)
(-0.0549073 -0.0782641 0)
(-0.04613 -0.0754828 0)
(-0.037599 -0.0712933 0)
(-0.0294883 -0.0656934 0)
(-0.0219803 -0.0587104 0)
(-0.0152636 -0.0504044 0)
(-0.00952427 -0.0408703 0)
(-0.00493471 -0.0302381 0)
(-0.00171606 -0.0186715 0)
(-0.000242185 -0.00637766 0)
(-0.00026192 0.00740159 0)
(-0.00181989 0.0213345 0)
(-0.00518568 0.0341721 0)
(-0.00994304 0.0457533 0)
(-0.0158463 0.0559649 0)
(-0.02271 0.0647283 0)
(-0.0303419 0.0719988 0)
(-0.0385537 0.0777628 0)
(-0.0471688 0.0820332 0)
(-0.056023 0.084846 0)
(-0.0649653 0.0862561 0)
(-0.0738591 0.0863329 0)
(-0.0825815 0.0851568 0)
(-0.0910236 0.0828159 0)
(-0.09909 0.079403 0)
(-0.106697 0.075013 0)
(-0.113774 0.0697412 0)
(-0.120258 0.0636816 0)
(-0.126097 0.056926 0)
(-0.131247 0.0495638 0)
(-0.135669 0.0416815 0)
(-0.139332 0.0333631 0)
(-0.142209 0.0246908 0)
(-0.144277 0.0157457 0)
(-0.145519 0.0066088 0)
(-0.14592 -0.00263794 0)
(-0.145468 -0.0119105 0)
(-0.144158 -0.0211215 0)
(-0.141987 -0.0301796 0)
(-0.138959 -0.0389884 0)
(-0.135084 -0.047446 0)
(-0.130379 -0.0554449 0)
(-0.12487 -0.062872 0)
(-0.118595 -0.0696095 0)
(-0.111602 -0.0755358 0)
(-0.103953 -0.0805278 0)
(-0.0957255 -0.0844626 0)
(-0.0870128 -0.087221 0)
(-0.0779249 -0.0886907 0)
(-0.0685893 -0.0887703 0)
(-0.059151 -0.0873738 0)
(-0.0497716 -0.0844351 0)
(-0.0406279 -0.0799124 0)
(-0.0319099 -0.0737928 0)
(-0.0238182 -0.0660962 0)
(-0.0165615 -0.0568786 0)
(-0.0103468 -0.0462348 0)
(-0.00536714 -0.0342986 0)
(-0.00186878 -0.021242 0)
(-0.000264319 -0.00728547 0)
(-0.000282929 0.00836237 0)
(-0.00196163 0.0240206 0)
(-0.00558275 0.0383762 0)
(-0.0106925 0.0512635 0)
(-0.017021 0.0625696 0)
(-0.0243642 0.0722203 0)
(-0.0325113 0.0801784 0)
(-0.0412571 0.0864405 0)
(-0.0504103 0.0910321 0)
(-0.0597942 0.0940032 0)
(-0.0692481 0.0954232 0)
(-0.0786275 0.0953769 0)
(-0.0878042 0.0939595 0)
(-0.0966659 0.0912737 0)
(-0.105115 0.0874258 0)
(-0.113069 0.0825232 0)
(-0.120456 0.0766723 0)
(-0.127215 0.0699773 0)
(-0.133298 0.0625387 0)
(-0.13866 0.0544531 0)
(-0.143268 0.0458134 0)
(-0.14709 0.0367091 0)
(-0.150102 0.0272268 0)
(-0.152283 0.0174516 0)
(-0.153613 0.00746797 0)
(-0.15408 -0.00263853 0)
(-0.153669 -0.0127802 0)
(-0.152374 -0.0228659 0)
(-0.150188 -0.0327993 0)
(-0.147113 -0.0424784 0)
(-0.143154 -0.0517946 0)
(-0.138324 -0.0606321 0)
(-0.132645 -0.0688681 0)
(-0.12615 -0.0763733 0)
(-0.118884 -0.0830132 0)
(-0.110906 -0.0886498 0)
(-0.102292 -0.093144 0)
(-0.0931353 -0.0963592 0)
(-0.0835488 -0.0981647 0)
(-0.0736651 -0.0984405 0)
(-0.0636369 -0.0970823 0)
(-0.0536367 -0.0940064 0)
(-0.0438556 -0.0891555 0)
(-0.0345004 -0.0825036 0)
(-0.0257918 -0.0740607 0)
(-0.0179603 -0.0638772 0)
(-0.0112366 -0.0520465 0)
(-0.00583664 -0.0387063 0)
(-0.00203534 -0.0240372 0)
(-0.000288677 -0.00827437 0)
(-0.000305608 0.00939803 0)
(-0.00211354 0.0269112 0)
(-0.00600659 0.0428928 0)
(-0.0114896 0.0571724 0)
(-0.0182662 0.0696379 0)
(-0.0261112 0.0802204 0)
(-0.0347937 0.0888921 0)
(-0.0440902 0.095662 0)
(-0.0537934 0.100571 0)
(-0.0637137 0.103684 0)
(-0.0736802 0.10509 0)
(-0.0835409 0.104889 0)
(-0.0931625 0.103195 0)
(-0.10243 0.100127 0)
(-0.111245 0.095806 0)
(-0.119525 0.0903532 0)
(-0.127201 0.0838876 0)
(-0.134214 0.0765236 0)
(-0.140518 0.068371 0)
(-0.146074 0.0595339 0)
(-0.15085 0.0501113 0)
(-0.154818 0.0401976 0)
(-0.157955 0.0298834 0)
(-0.160242 0.0192571 0)
(-0.161661 0.00840594 0)
(-0.162198 -0.00258193 0)
(-0.161839 -0.0136161 0)
(-0.160573 -0.0246021 0)
(-0.158392 -0.0354399 0)
(-0.155294 -0.0460226 0)
(-0.151278 -0.056235 0)
(-0.146352 -0.0659536 0)
(-0.140534 -0.0750459 0)
(-0.13385 -0.0833708 0)
(-0.12634 -0.0907801 0)
(-0.118059 -0.0971199 0)
(-0.10908 -0.102233 0)
(-0.0994963 -0.105964 0)
(-0.0894209 -0.108161 0)
(-0.078991 -0.108683 0)
(-0.0683666 -0.107403 0)
(-0.0577314 -0.104217 0)
(-0.0472906 -0.0990493 0)
(-0.0372696 -0.0918573 0)
(-0.0279104 -0.0826385 0)
(-0.0194681 -0.0714354 0)
(-0.0121995 -0.0583387 0)
(-0.00634679 -0.0434892 0)
(-0.0022172 -0.0270765 0)
(-0.000315515 -0.0093519 0)
(-0.000330121 0.0105141 0)
(-0.00227653 0.0300201 0)
(-0.00645944 0.0477414 0)
(-0.0123381 0.0635025 0)
(-0.0195864 0.0771926 0)
(-0.0279558 0.0887499 0)
(-0.0371931 0.0981578 0)
(-0.0470547 0.10544 0)
(-0.0573165 0.110656 0)
(-0.0677752 0.11389 0)
(-0.0782495 0.11525 0)
(-0.08858 0.114859 0)
(-0.0986293 0.112849 0)
(-0.10828 0.109356 0)
(-0.117435 0.104521 0)
(-0.126012 0.0984785 0)
(-0.133946 0.0913613 0)
(-0.141183 0.0832951 0)
(-0.14768 0.074399 0)
(-0.153402 0.0647845 0)
(-0.158321 0.0545566 0)
(-0.162414 0.0438142 0)
(-0.165662 0.032651 0)
(-0.168046 0.0211579 0)
(-0.169551 0.00942401 0)
(-0.170162 -0.00246107 0)
(-0.169864 -0.0144052 0)
(-0.168644 -0.0263119 0)
(-0.166491 -0.0380782 0)
(-0.163397 -0.049593 0)
(-0.159357 -0.0607359 0)
(-0.154373 -0.0713757 0)
(-0.148454 -0.0813706 0)
(-0.14162 -0.0905676 0)
(-0.133906 -0.098804 0)
(-0.125359 -0.105909 0)
(-0.116049 -0.111707 0)
(-0.106064 -0.116019 0)
(-0.0955197 -0.11867 0)
(-0.0845543 -0.119495 0)
(-0.0733351 -0.118342 0)
(-0.0620561 -0.115083 0)
(-0.0509378 -0.109618 0)
(-0.0402247 -0.101885 0)
(-0.0301821 -0.0918647 0)
(-0.0210922 -0.0795899 0)
(-0.0132413 -0.0651464 0)
(-0.00690115 -0.0486771 0)
(-0.0024158 -0.0303808 0)
(-0.000345095 -0.0105263 0)
(-0.000356645 0.0117165 0)
(-0.00245157 0.0333622 0)
(-0.00694362 0.0529428 0)
(-0.0132416 0.0702772 0)
(-0.0209859 0.0852571 0)
(-0.029902 0.0978294 0)
(-0.039712 0.107991 0)
(-0.0501503 0.115786 0)
(-0.0609746 0.121291 0)
(-0.0719674 0.124617 0)
(-0.082937 0.125894 0)
(-0.0937173 0.125269 0)
(-0.104167 0.122896 0)
(-0.114169 0.118933 0)
(-0.123626 0.113538 0)
(-0.132461 0.106864 0)
(-0.140612 0.099058 0)
(-0.14803 0.090257 0)
(-0.15468 0.0805897 0)
(-0.160532 0.0701752 0)
(-0.165563 0.059124 0)
(-0.169755 0.0475386 0)
(-0.173092 0.0355153 0)
(-0.17556 0.0231463 0)
(-0.177144 0.0105214 0)
(-0.177831 -0.00226953 0)
(-0.177604 -0.0151339 0)
(-0.176448 -0.0279745 0)
(-0.174348 -0.0406867 0)
(-0.171292 -0.0531566 0)
(-0.167267 -0.0652591 0)