/*--------------------------------*- C++ -*----------------------------------*\
  =========                 |
  \\      /  F ield         | OpenFOAM: The Open Source CFD Toolbox
   \\    /   O peration     | Website:  https://openfoam.org
    \\  /    A nd           | Version:  7
     \\/     M anipulation  |
\*---------------------------------------------------------------------------*/
FoamFile
{
    version     2.0;
    format      ascii;
    class       volVectorField;
    location    "0.017";
    object      U;
}
// * * * * * * * * * * * * * * * * * * * * * * * * * * * * * * * * * * * * * //

dimensions      [0 1 -1 0 0 0 0];

internalField   nonuniform List<vector> 
2500
(
(-0.293867 0.153783 0)
(-0.398071 0.12876 0)
(-0.57803 0.0737745 0)
(-0.696084 0.0408048 0)
(-0.764687 0.0232819 0)
(-0.808521 0.0139954 0)
(-0.83851 0.00898383 0)
(-0.859925 0.00615578 0)
(-0.875817 0.00445168 0)
(-0.887984 0.00335108 0)
(-0.897517 0.00259552 0)
(-0.905109 0.0020508 0)
(-0.911227 0.00164295 0)
(-0.916197 0.00132852 0)
(-0.920255 0.00108037 0)
(-0.923576 0.000880663 0)
(-0.926291 0.000717102 0)
(-0.928499 0.000580908 0)
(-0.930279 0.000465602 0)
(-0.93169 0.000366266 0)
(-0.932778 0.000279064 0)
(-0.933577 0.00020092 0)
(-0.934114 0.000129291 0)
(-0.934404 6.20041e-05 0)
(-0.93446 -2.87178e-06 0)
(-0.934287 -6.71563e-05 0)
(-0.933881 -0.000132602 0)
(-0.933237 -0.000201022 0)
(-0.93234 -0.000274373 0)
(-0.93117 -0.000354866 0)
(-0.929697 -0.000445095 0)
(-0.927886 -0.000548204 0)
(-0.925685 -0.000668124 0)
(-0.923033 -0.000809904 0)
(-0.919849 -0.000980212 0)
(-0.916029 -0.00118812 0)
(-0.911438 -0.00144639 0)
(-0.905896 -0.00177374 0)
(-0.899165 -0.00219889 0)
(-0.89091 -0.00276844 0)
(-0.880658 -0.00356254 0)
(-0.8677 -0.00472704 0)
(-0.850928 -0.00654077 0)
(-0.828518 -0.00955454 0)
(-0.797438 -0.0148544 0)
(-0.752529 -0.0244911 0)
(-0.683047 -0.0421925 0)
(-0.565324 -0.0747012 0)
(-0.389512 -0.128218 0)
(-0.290254 -0.152415 0)
(-0.00519798 0.30303 0)
(-0.0269946 0.307287 0)
(-0.170782 0.21744 0)
(-0.306801 0.145943 0)
(-0.414524 0.0983224 0)
(-0.498266 0.0678567 0)
(-0.562916 0.0484383 0)
(-0.612931 0.0357666 0)
(-0.652036 0.0271845 0)
(-0.683002 0.0211415 0)
(-0.707806 0.0167338 0)
(-0.727865 0.0134203 0)
(-0.744206 0.0108653 0)
(-0.75759 0.00885274 0)
(-0.768583 0.00723796 0)
(-0.777617 0.0059208 0)
(-0.785023 0.0048297 0)
(-0.79106 0.00391203 0)
(-0.795926 0.00312808 0)
(-0.799777 0.00244713 0)
(-0.802735 0.00184481 0)
(-0.804889 0.00130129 0)
(-0.806309 0.000799958 0)
(-0.807039 0.000326445 0)
(-0.80711 -0.000132137 0)
(-0.806533 -0.000587857 0)
(-0.805302 -0.00105252 0)
(-0.803398 -0.00153821 0)
(-0.800782 -0.00205791 0)
(-0.7974 -0.00262606 0)
(-0.793175 -0.00325941 0)
(-0.788007 -0.00397794 0)
(-0.781768 -0.0048062 0)
(-0.774295 -0.00577509 0)
(-0.765381 -0.00692453 0)
(-0.754766 -0.00830742 0)
(-0.742116 -0.00999566 0)
(-0.727001 -0.0120899 0)
(-0.708861 -0.0147357 0)
(-0.686954 -0.0181505 0)
(-0.660287 -0.0226715 0)
(-0.627503 -0.0288393 0)
(-0.586738 -0.0375473 0)
(-0.535428 -0.0503018 0)
(-0.47022 -0.06962 0)
(-0.387244 -0.0994304 0)
(-0.282329 -0.145117 0)
(-0.152032 -0.212846 0)
(-0.0167528 -0.298509 0)
(-0.00107127 -0.294868 0)
(0.0321447 0.264078 0)
(0.0567788 0.361797 0)
(-0.00224634 0.323681 0)
(-0.0929739 0.258501 0)
(-0.187317 0.198187 0)
(-0.273643 0.150601 0)
(-0.347905 0.115217 0)
(-0.409962 0.0892776 0)
(-0.461239 0.0701429 0)
(-0.503486 0.0558187 0)
(-0.538317 0.0449049 0)
(-0.567096 0.0364392 0)
(-0.590924 0.02976 0)
(-0.610683 0.0244067 0)
(-0.627068 0.020053 0)
(-0.640634 0.016463 0)
(-0.651819 0.0134623 0)
(-0.660973 0.0109193 0)
(-0.668372 0.00873269 0)
(-0.674237 0.00682258 0)
(-0.678738 0.00512474 0)
(-0.682007 0.00358621 0)
(-0.684142 0.00216222 0)
(-0.685211 0.000813714 0)
(-0.685256 -0.000494532 0)
(-0.684294 -0.00179555 0)
(-0.682319 -0.00312164 0)
(-0.679301 -0.00450579 0)
(-0.675187 -0.00598304 0)
(-0.669897 -0.00759215 0)
(-0.663325 -0.00937743 0)
(-0.65533 -0.011391 0)
(-0.645734 -0.013696 0)
(-0.634319 -0.0163703 0)
(-0.620808 -0.0195127 0)
(-0.604862 -0.0232506 0)
(-0.586063 -0.0277522 0)
(-0.56389 -0.033244 0)
(-0.537699 -0.0400376 0)
(-0.506695 -0.0485698 0)
(-0.469899 -0.0594626 0)
(-0.426138 -0.0736101 0)
(-0.374072 -0.0922931 0)
(-0.312344 -0.1173 0)
(-0.24004 -0.150936 0)
(-0.157827 -0.195482 0)
(-0.0700511 -0.251013 0)
(0.0119324 -0.310159 0)
(0.0617664 -0.343753 0)
(0.0329509 -0.250289 0)
(0.0272524 0.204986 0)
(0.06448 0.356403 0)
(0.0572968 0.372894 0)
(0.0121464 0.334462 0)
(-0.0526767 0.280675 0)
(-0.122925 0.228841 0)
(-0.190532 0.184723 0)
(-0.251814 0.149008 0)
(-0.305596 0.120633 0)
(-0.351955 0.0981718 0)
(-0.391516 0.0803206 0)
(-0.425078 0.0660211 0)
(-0.453447 0.0544561 0)
(-0.477354 0.0450055 0)
(-0.497436 0.0372001 0)
(-0.514232 0.0306829 0)
(-0.528193 0.0251791 0)
(-0.539692 0.0204746 0)
(-0.549032 0.0163998 0)
(-0.55646 0.0128185 0)
(-0.562172 0.00961878 0)
(-0.566322 0.00670726 0)
(-0.569024 0.0040039 0)
(-0.570359 0.00143833 0)
(-0.570379 -0.00105334 0)
(-0.569105 -0.00353112 0)
(-0.56653 -0.00605363 0)
(-0.562624 -0.00868035 0)
(-0.557324 -0.011474 0)
(-0.550543 -0.0145031 0)
(-0.542159 -0.0178447 0)
(-0.532019 -0.0215883 0)
(-0.519931 -0.0258398 0)
(-0.505661 -0.0307272 0)
(-0.488927 -0.0364084 0)
(-0.469392 -0.0430813 0)
(-0.44666 -0.0509973 0)
(-0.420268 -0.0604805 0)
(-0.389688 -0.0719518 0)
(-0.354338 -0.0859612 0)
(-0.313617 -0.103223 0)
(-0.266986 -0.124646 0)
(-0.214147 -0.151322 0)
(-0.155389 -0.184395 0)
(-0.0922147 -0.224614 0)
(-0.028383 -0.271088 0)
(0.0283968 -0.318362 0)
(0.0650786 -0.350732 0)
(0.0656519 -0.332465 0)
(0.0268171 -0.190409 0)
(0.0186061 0.162761 0)
(0.0540976 0.328913 0)
(0.0713375 0.382263 0)
(0.0582869 0.373036 0)
(0.0219916 0.335648 0)
(-0.0269294 0.289712 0)
(-0.0804208 0.244794 0)
(-0.133387 0.204734 0)
(-0.183 0.170523 0)
(-0.227939 0.141898 0)
(-0.26779 0.118146 0)
(-0.302636 0.0984637 0)
(-0.332806 0.0821118 0)
(-0.358724 0.0684588 0)
(-0.380835 0.0569842 0)
(-0.399564 0.0472652 0)
(-0.415291 0.0389594 0)
(-0.428353 0.0317888 0)
(-0.439034 0.0255259 0)
(-0.447574 0.0199827 0)
(-0.454169 0.0150015 0)
(-0.458974 0.0104481 0)
(-0.462109 0.00620575 0)
(-0.46366 0.00217087 0)
(-0.463681 -0.00175132 0)
(-0.462198 -0.00565008 0)
(-0.459207 -0.00961242 0)
(-0.454679 -0.0137261 0)
(-0.448555 -0.0180826 0)
(-0.44075 -0.0227807 0)
(-0.431148 -0.0279294 0)
(-0.419604 -0.0336526 0)
(-0.405943 -0.0400936 0)
(-0.389957 -0.0474209 0)
(-0.371405 -0.0558358 0)
(-0.350016 -0.0655807 0)
(-0.325494 -0.0769501 0)
(-0.29753 -0.0903021 0)
(-0.265827 -0.10607 0)
(-0.230141 -0.124769 0)
(-0.190364 -0.146986 0)
(-0.146659 -0.17333 0)
(-0.0996827 -0.204294 0)
(-0.0509365 -0.239927 0)
(-0.00325355 -0.279142 0)
(0.0386266 -0.318349 0)
(0.0675022 -0.349014 0)
(0.0741934 -0.353767 0)
(0.0533587 -0.302113 0)
(0.0179021 -0.14883 0)
(0.0121399 0.133395 0)
(0.0420177 0.296388 0)
(0.068618 0.370869 0)
(0.0749048 0.385727 0)
(0.0605243 0.366704 0)
(0.0314199 0.331665 0)
(-0.00626415 0.291393 0)
(-0.0476537 0.251672 0)
(-0.0893525 0.2152 0)
(-0.129243 0.182947 0)
(-0.166148 0.154994 0)
(-0.19952 0.131011 0)
(-0.229204 0.11052 0)
(-0.255269 0.0930157 0)
(-0.277908 0.0780244 0)
(-0.297368 0.0651264 0)
(-0.313911 0.0539584 0)
(-0.327789 0.0442096 0)
(-0.339235 0.0356152 0)
(-0.348451 0.0279488 0)
(-0.355611 0.0210155 0)
(-0.360858 0.0146453 0)
(-0.364304 0.0086885 0)
(-0.36603 0.00300989 0)
(-0.366092 -0.00251487 0)
(-0.364517 -0.00800335 0)
(-0.361306 -0.0135699 0)
(-0.356436 -0.0193291 0)
(-0.349858 -0.0253992 0)
(-0.341501 -0.0319052 0)
(-0.33127 -0.0389833 0)
(-0.319047 -0.0467836 0)
(-0.304694 -0.0554755 0)
(-0.288058 -0.0652512 0)
(-0.268973 -0.0763315 0)
(-0.24727 -0.0889697 0)
(-0.222794 -0.103455 0)
(-0.195429 -0.120115 0)
(-0.165136 -0.139305 0)
(-0.132016 -0.161386 0)
(-0.0964032 -0.186673 0)
(-0.0590021 -0.215321 0)
(-0.0210789 -0.247102 0)
(0.0152958 -0.281005 0)
(0.0470075 -0.314533 0)
(0.0697979 -0.342573 0)
(0.078496 -0.355789 0)
(0.0683387 -0.338715 0)
(0.0405014 -0.268853 0)
(0.0114821 -0.120431 0)
(0.00807596 0.112203 0)
(0.0323994 0.265343 0)
(0.0610539 0.350085 0)
(0.0776932 0.382218 0)
(0.07828 0.379589 0)
(0.0650453 0.356776 0)
(0.0418302 0.324046 0)
(0.0124741 0.287915 0)
(-0.0198339 0.252149 0)
(-0.0527459 0.218702 0)
(-0.0846819 0.188417 0)
(-0.114663 0.161507 0)
(-0.142146 0.137846 0)
(-0.166878 0.11715 0)
(-0.188798 0.0990718 0)
(-0.20796 0.0832582 0)
(-0.22448 0.0693722 0)
(-0.238505 0.0571059 0)
(-0.250188 0.0461824 0)
(-0.259678 0.0363556 0)
(-0.267111 0.0274063 0)
(-0.272602 0.0191389 0)
(-0.276245 0.011377 0)
(-0.278113 0.00395943 0)
(-0.278257 -0.00326361 0)
(-0.276704 -0.0104343 0)
(-0.273461 -0.0176906 0)
(-0.268515 -0.02517 0)
(-0.261832 -0.0330122 0)
(-0.253361 -0.0413627 0)
(-0.243038 -0.0503761 0)
(-0.230785 -0.0602184 0)
(-0.216515 -0.0710701 0)
(-0.200144 -0.0831284 0)
(-0.181593 -0.0966081 0)
(-0.160811 -0.111741 0)
(-0.13779 -0.128769 0)
(-0.1126 -0.147937 0)
(-0.0854345 -0.16946 0)
(-0.0566679 -0.193483 0)
(-0.0269443 -0.219994 0)
(0.00271908 -0.248677 0)
(0.030809 -0.278668 0)
(0.0552074 -0.308174 0)
(0.0731702 -0.3339 0)
(0.0815339 -0.350274 0)
(0.0772855 -0.348598 0)
(0.0589307 -0.316454 0)
(0.0306111 -0.238375 0)
(0.00751948 -0.100308 0)
(0.0056392 0.0963891 0)
(0.0254558 0.237668 0)
(0.0530174 0.325842 0)
(0.0744872 0.369223 0)
(0.0845156 0.379671 0)
(0.0829425 0.368346 0)
(0.0716465 0.344145 0)
(0.0532297 0.313453 0)
(0.030278 0.28049 0)
(0.00497636 0.247834 0)
(-0.0210019 0.216932 0)
(-0.0464641 0.188485 0)
(-0.0706134 0.162738 0)
(-0.0929553 0.139669 0)
(-0.113213 0.119106 0)
(-0.131261 0.100807 0)
(-0.147071 0.084501 0)
(-0.160676 0.0699157 0)
(-0.172143 0.0567879 0)
(-0.181556 0.0448714 0)
(-0.189 0.0339384 0)
(-0.194557 0.0237794 0)
(-0.198296 0.0142009 0)
(-0.200275 0.00502317 0)
(-0.200536 -0.00392256 0)
(-0.199107 -0.0127973 0)
(-0.195999 -0.0217571 0)
(-0.191209 -0.0309561 0)
(-0.184723 -0.0405491 0)
(-0.176516 -0.0506943 0)
(-0.166556 -0.061555 0)
(-0.15481 -0.0733012 0)
(-0.141249 -0.0861105 0)
(-0.125858 -0.100167 0)
(-0.10865 -0.115657 0)
(-0.0896803 -0.132765 0)
(-0.0690738 -0.151659 0)
(-0.0470536 -0.172466 0)
(-0.0239831 -0.195239 0)
(-0.000417583 -0.219888 0)
(0.0228356 -0.24609 0)
(0.0446535 -0.273133 0)
(0.0635484 -0.299696 0)
(0.0776662 -0.323533 0)
(0.0849054 -0.341078 0)
(0.0832557 -0.346998 0)
(0.0714122 -0.333873 0)
(0.0498539 -0.292293 0)
(0.0235946 -0.212004 0)
(0.00516683 -0.0855633 0)
(0.00415525 0.0841394 0)
(0.0205097 0.213516 0)
(0.0458443 0.301125 0)
(0.0689994 0.351157 0)
(0.0845526 0.371306 0)
(0.0910316 0.369791 0)
(0.0889024 0.353892 0)
(0.0796566 0.329381 0)
(0.0651614 0.300468 0)
(0.0472309 0.270024 0)
(0.027418 0.239885 0)
(0.00695093 0.211135 0)
(-0.0132552 0.184347 0)
(-0.0325536 0.159755 0)
(-0.0505116 0.13738 0)
(-0.0668579 0.117117 0)
(-0.0814386 0.0987877 0)
(-0.0941812 0.0821787 0)
(-0.105067 0.067063 0)
(-0.114111 0.0532129 0)
(-0.121346 0.0404072 0)
(-0.126815 0.0284349 0)
(-0.130559 0.017096 0)
(-0.132618 0.00620117 0)
(-0.133023 -0.00442986 0)
(-0.131798 -0.0149698 0)
(-0.12896 -0.0255861 0)
(-0.124517 -0.0364426 0)
(-0.118473 -0.0477019 0)
(-0.110828 -0.0595263 0)
(-0.101586 -0.0720786 0)
(-0.0907557 -0.0855219 0)
(-0.078364 -0.100018 0)
(-0.0644619 -0.115723 0)
(-0.0491399 -0.132782 0)
(-0.032545 -0.151314 0)
(-0.0149025 -0.171395 0)
(0.00345636 -0.19303 0)
(0.0220626 -0.216105 0)
(0.0402742 -0.240322 0)
(0.0572415 -0.265101 0)
(0.0718852 -0.289447 0)
(0.0829025 -0.311769 0)
(0.0888353 -0.329655 0)
(0.0882517 -0.339628 0)
(0.0801007 -0.336949 0)
(0.0642311 -0.315607 0)
(0.0421266 -0.2687 0)
(0.0186586 -0.189557 0)
(0.00374424 -0.0743478 0)
(0.00320902 0.0743096 0)
(0.0169157 0.192514 0)
(0.0397666 0.27735 0)
(0.0628957 0.330779 0)
(0.0813519 0.357715 0)
(0.0930729 0.364075 0)
(0.0976234 0.355607 0)
(0.095631 0.337266 0)
(0.0882921 0.312968 0)
(0.0769808 0.285615 0)
(0.0630126 0.257238 0)
(0.0475282 0.229175 0)
(0.0314533 0.202254 0)
(0.0155019 0.176932 0)
(0.000201025 0.153414 0)
(-0.014076 0.131736 0)
(-0.0270769 0.111826 0)
(-0.0386404 0.0935452 0)
(-0.0486716 0.0767185 0)
(-0.0571219 0.0611516 0)
(-0.0639738 0.0466434 0)
(-0.0692292 0.0329933 0)
(-0.0729013 0.0200048 0)
(-0.0750086 0.00748799 0)
(-0.0755712 -0.00474064 0)
(-0.074609 -0.0168581 0)
(-0.0721407 -0.029036 0)
(-0.0681848 -0.041441 0)
(-0.0627614 -0.0542357 0)
(-0.0558952 -0.067579 0)
(-0.0476202 -0.0816247 0)
(-0.0379857 -0.0965201 0)
(-0.0270645 -0.112402 0)
(-0.0149626 -0.129388 0)
(-0.00183216 -0.147573 0)
(0.012113 -0.167003 0)
(0.0265794 -0.187663 0)
(0.0411734 -0.209438 0)
(0.0553801 -0.232069 0)
(0.0685439 -0.255088 0)
(0.0798585 -0.277734 0)
(0.0883748 -0.298842 0)
(0.0930435 -0.316712 0)
(0.0928164 -0.328965 0)
(0.0868385 -0.33242 0)
(0.074759 -0.323054 0)
(0.0571174 -0.296144 0)
(0.0357934 -0.246715 0)
(0.0151166 -0.17046 0)
(0.00284426 -0.0655074 0)
(0.0025699 0.0662 0)
(0.0142166 0.174201 0)
(0.0346657 0.255131 0)
(0.0568701 0.309747 0)
(0.0765259 0.341157 0)
(0.0914103 0.353558 0)
(0.100576 0.35139 0)
(0.104043 0.338763 0)
(0.102455 0.319159 0)
(0.0967624 0.295335 0)
(0.0880016 0.26936 0)
(0.0771556 0.242711 0)
(0.0650861 0.216384 0)
(0.0525069 0.191015 0)
(0.0399841 0.166963 0)
(0.0279502 0.144398 0)
(0.0167249 0.123354 0)
(0.00653618 0.103775 0)
(-0.00245912 0.0855459 0)
(-0.0101583 0.0685162 0)
(-0.0164981 0.0525156 0)
(-0.0214439 0.0373635 0)
(-0.0249807 0.0228766 0)
(-0.0271067 0.00887231 0)
(-0.0278297 -0.00482814 0)
(-0.0271637 -0.0183989 0)
(-0.0251288 -0.0320087 0)
(-0.0217509 -0.0458203 0)
(-0.0170639 -0.0599899 0)
(-0.0111125 -0.0746658 0)
(-0.00395652 -0.0899864 0)
(0.00432306 -0.106076 0)
(0.0136168 -0.12304 0)
(0.0237776 -0.140955 0)
(0.03461 -0.159858 0)
(0.045858 -0.179728 0)
(0.0571913 -0.200461 0)
(0.0681928 -0.22184 0)
(0.0783471 -0.24349 0)
(0.0870364 -0.264821 0)
(0.0935471 -0.28496 0)
(0.097098 -0.30267 0)
(0.0969011 -0.316259 0)
(0.0922699 -0.323504 0)
(0.0827948 -0.32161 0)
(0.0685897 -0.307258 0)
(0.050555 -0.276801 0)
(0.0306265 -0.226684 0)
(0.0124943 -0.154134 0)
(0.00224258 -0.0583371 0)
(0.00211221 0.0593752 0)
(0.0121138 0.158171 0)
(0.0303489 0.23469 0)
(0.0511751 0.289047 0)
(0.070941 0.323178 0)
(0.0874937 0.340039 0)
(0.0996417 0.343008 0)
(0.107011 0.335422 0)
(0.109829 0.320278 0)
(0.108684 0.300093 0)
(0.104337 0.276864 0)
(0.0975844 0.252105 0)
(0.0891818 0.226913 0)
(0.0797956 0.202042 0)
(0.0699868 0.177976 0)
(0.0602102 0.154999 0)
(0.0508228 0.133243 0)
(0.042097 0.112731 0)
(0.0342347 0.0934144 0)
(0.0273809 0.0751918 0)
(0.0216364 0.0579301 0)
(0.0170676 0.0414768 0)
(0.0137146 0.0256686 0)
(0.0115979 0.0103379 0)
(0.0107222 -0.0046827 0)
(0.0110797 -0.019558 0)
(0.012651 -0.0344477 0)
(0.0154051 -0.0495048 0)
(0.0192981 -0.0648731 0)
(0.0242704 -0.0806856 0)
(0.0302427 -0.0970597 0)
(0.037111 -0.114093 0)
(0.0447401 -0.131856 0)
(0.0529562 -0.150383 0)
(0.0615384 -0.169655 0)
(0.07021 -0.189588 0)
(0.0786303 -0.210004 0)
(0.0863879 -0.230604 0)
(0.092999 -0.250926 0)
(0.0979127 -0.270306 0)
(0.10053 -0.287819 0)
(0.100242 -0.302225 0)
(0.0964965 -0.311917 0)
(0.0888967 -0.314892 0)
(0.0773504 -0.308758 0)
(0.0622521 -0.290821 0)
(0.0446503 -0.258295 0)
(0.0263667 -0.208645 0)
(0.0104842 -0.140094 0)
(0.00181715 -0.0523972 0)
(0.00176666 0.0535543 0)
(0.0104167 0.144096 0)
(0.0266391 0.216072 0)
(0.0458739 0.269257 0)
(0.0650589 0.304829 0)
(0.0822216 0.324859 0)
(0.0960952 0.331892 0)
(0.106076 0.328598 0)
(0.1121 0.317507 0)
(0.114466 0.300846 0)
(0.113692 0.280475 0)
(0.11039 0.257878 0)
(0.105189 0.234183 0)
(0.098679 0.210217 0)
(0.0913862 0.186554 0)
(0.0837582 0.163566 0)
(0.0761641 0.14147 0)
(0.0688993 0.120365 0)
(0.0621942 0.100263 0)
(0.0562236 0.0811155 0)
(0.0511166 0.0628298 0)
(0.0469648 0.0452861 0)
(0.0438292 0.028347 0)
(0.0417467 0.0118654 0)
(0.0407335 -0.0043093 0)
(0.0407885 -0.0203271 0)
(0.0418944 -0.0363336 0)
(0.0440179 -0.052467 0)
(0.047109 -0.0688549 0)
(0.0510981 -0.0856103 0)
(0.0558935 -0.102827 0)
(0.0613768 -0.120574 0)
(0.0673976 -0.138887 0)
(0.0737685 -0.157756 0)
(0.0802585 -0.177116 0)
(0.0865883 -0.196825 0)
(0.0924261 -0.216646 0)
(0.0973866 -0.236218 0)
(0.101036 -0.255027 0)
(0.102903 -0.272367 0)
(0.102508 -0.287308 0)
(0.0993971 -0.298657 0)
(0.093213 -0.304935 0)
(0.0837776 -0.304378 0)
(0.0712079 -0.29497 0)
(0.0560475 -0.274553 0)
(0.0393646 -0.241004 0)
(0.0227946 -0.192517 0)
(0.00888978 -0.127961 0)
(0.00150049 -0.0474035 0)
(0.00149388 0.0485486 0)
(0.00900384 0.131722 0)
(0.023397 0.199243 0)
(0.0409555 0.250712 0)
(0.0591255 0.286817 0)
(0.0761561 0.308998 0)
(0.0908069 0.319164 0)
(0.102361 0.319432 0)
(0.110563 0.311903 0)
(0.115499 0.298514 0)
(0.117483 0.280952 0)
(0.116961 0.260619 0)
(0.114433 0.238633 0)
(0.110403 0.215851 0)
(0.10534 0.192902 0)
(0.0996653 0.170225 0)
(0.0937393 0.148104 0)
(0.0878629 0.126703 0)
(0.0822799 0.106092 0)
(0.0771829 0.0862703 0)
(0.0727197 0.0671897 0)
(0.0690001 0.0487648 0)
(0.0661015 0.0308871 0)
(0.0640738 0.013434 0)
(0.0629436 -0.00372423 0)
(0.0627161 -0.0207187 0)
(0.0633775 -0.0376771 0)
(0.0648947 -0.0547194 0)
(0.0672149 -0.0719535 0)
(0.0702642 -0.0894706 0)
(0.0739444 -0.107339 0)
(0.0781306 -0.125599 0)
(0.082667 -0.14425 0)
(0.0873633 -0.163247 0)
(0.0919911 -0.182479 0)
(0.0962816 -0.201761 0)
(0.0999252 -0.220809 0)
(0.102575 -0.239222 0)
(0.103855 -0.256453 0)
(0.103377 -0.27179 0)
(0.100769 -0.284326 0)
(0.0957107 -0.292945 0)
(0.0879959 -0.296313 0)
(0.0775995 -0.292899 0)
(0.0647658 -0.281025 0)
(0.0500987 -0.258968 0)
(0.0346147 -0.225114 0)
(0.0197414 -0.178177 0)
(0.00758475 -0.117449 0)
(0.00125406 -0.0431655 0)
(0.00127066 0.0442263 0)
(0.00779648 0.120849 0)
(0.0205187 0.184136 0)
(0.0363851 0.233602 0)
(0.0532715 0.269615 0)
(0.0696545 0.293169 0)
(0.0843764 0.305692 0)
(0.0966854 0.308851 0)
(0.106212 0.304379 0)
(0.112894 0.293935 0)
(0.116888 0.279022 0)
(0.118498 0.260935 0)
(0.118104 0.240748 0)
(0.11612 0.219315 0)
(0.112952 0.197295 0)
(0.10898 0.17517 0)
(0.104542 0.153275 0)
(0.0999298 0.131826 0)
(0.0953886 0.110945 0)
(0.0911177 0.0906766 0)
(0.0872752 0.0710131 0)
(0.0839821 0.0519047 0)
(0.081327 0.0332735 0)
(0.0793699 0.0150234 0)
(0.0781453 -0.00295156 0)
(0.0776651 -0.0207611 0)
(0.0779193 -0.0385124 0)
(0.0788772 -0.0563049 0)
(0.0804868 -0.074225 0)
(0.0826736 -0.0923407 0)
(0.0853391 -0.110695 0)
(0.0883585 -0.129299 0)
(0.0915784 -0.148122 0)
(0.0948143 -0.167083 0)
(0.0978496 -0.186038 0)
(0.100435 -0.204764 0)
(0.102292 -0.222945 0)
(0.103116 -0.240155 0)
(0.102592 -0.255838 0)
(0.100409 -0.26929 0)
(0.0962862 -0.279652 0)
(0.0900128 -0.285894 0)
(0.0814924 -0.286834 0)
(0.0708005 -0.281154 0)
(0.0582483 -0.267464 0)
(0.0444433 -0.244391 0)
(0.0303131 -0.210708 0)
(0.0170827 -0.165499 0)
(0.0064866 -0.108338 0)
(0.00105499 -0.0395511 0)
(0.00108271 0.0404916 0)
(0.00674264 0.111322 0)
(0.0179289 0.170673 0)
(0.0321248 0.218024 0)
(0.0475669 0.253536 0)
(0.0629484 0.277884 0)
(0.0772218 0.292135 0)
(0.0896512 0.2976 0)
(0.0998119 0.2957 0)
(0.107542 0.287844 0)
(0.112885 0.275355 0)
(0.116027 0.259409 0)
(0.117248 0.241016 0)
(0.116875 0.221007 0)
(0.115248 0.200046 0)
(0.112699 0.178638 0)
(0.109535 0.157156 0)
(0.10603 0.135858 0)
(0.102419 0.114905 0)
(0.0988989 0.0943844 0)
(0.0956311 0.0743258 0)
(0.0927416 0.0547132 0)
(0.0903254 0.0354994 0)
(0.0884489 0.0166155 0)
(0.0871532 -0.00201971 0)
(0.0864554 -0.020493 0)
(0.0863503 -0.0388897 0)
(0.086811 -0.0572875 0)
(0.0877887 -0.0757508 0)
(0.0892125 -0.0943241 0)
(0.090988 -0.113026 0)
(0.0929959 -0.13184 0)
(0.0950912 -0.150708 0)
(0.0971019 -0.169521 0)
(0.0988292 -0.188104 0)
(0.100049 -0.206208 0)
(0.100517 -0.223496 0)
(0.0999749 -0.239529 0)
(0.0981623 -0.253753 0)
(0.0948359 -0.265492 0)
(0.0897931 -0.273938 0)
(0.0829033 -0.278158 0)
(0.0741475 -0.277106 0)
(0.0636609 -0.269657 0)
(0.0517793 -0.254661 0)
(0.0390789 -0.231022 0)
(0.0263824 -0.197806 0)
(0.0147273 -0.154364 0)
(0.0055402 -0.100461 0)
(0.000889143 -0.0364655 0)
(0.000920841 0.0372723 0)
(0.00580709 0.103014 0)
(0.0155727 0.158773 0)
(0.0281397 0.204021 0)
(0.0420483 0.238781 0)
(0.0561896 0.263505 0)
(0.0696378 0.278989 0)
(0.0817035 0.286264 0)
(0.091947 0.286492 0)
(0.10015 0.280867 0)
(0.106273 0.270542 0)
(0.110417 0.256576 0)
(0.112774 0.239904 0)
(0.113595 0.22132 0)
(0.113159 0.201474 0)
(0.111747 0.180885 0)
(0.109629 0.159946 0)
(0.107054 0.138944 0)
(0.104242 0.118077 0)
(0.10138 0.0974647 0)
(0.0986249 0.0771707 0)
(0.0961032 0.0572106 0)
(0.0939118 0.0375661 0)
(0.0921208 0.0181954 0)
(0.0907753 -0.000958428 0)
(0.089897 -0.0199587 0)
(0.0894856 -0.0388686 0)
(0.089519 -0.0577441 0)
(0.0899541 -0.0766276 0)
(0.0907259 -0.0955413 0)
(0.0917477 -0.11448 0)
(0.0929102 -0.133404 0)
(0.0940809 -0.15223 0)
(0.0951047 -0.170824 0)
(0.0958047 -0.188988 0)
(0.0959852 -0.206456 0)
(0.0954366 -0.222875 0)
(0.0939434 -0.237805 0)
(0.0912966 -0.250704 0)
(0.0873094 -0.260927 0)
(0.0818395 -0.267724 0)
(0.0748155 -0.270253 0)
(0.0662673 -0.267594 0)
(0.0563598 -0.258786 0)
(0.0454245 -0.242875 0)
(0.0339859 -0.218985 0)
(0.0227576 -0.186402 0)
(0.0126084 -0.144671 0)
(0.00470771 -0.0936861 0)
(0.000747363 -0.033839 0)
(0.000778929 0.0345124 0)
(0.00496527 0.0958233 0)
(0.0134097 0.148358 0)
(0.0243999 0.191598 0)
(0.0367331 0.225476 0)
(0.0494784 0.250286 0)
(0.0618327 0.26662 0)
(0.0731711 0.275292 0)
(0.0830665 0.277256 0)
(0.0912737 0.273521 0)
(0.0977031 0.265091 0)
(0.102389 0.252912 0)
(0.105457 0.237841 0)
(0.107092 0.220625 0)
(0.107516 0.201897 0)
(0.106962 0.182169 0)
(0.105662 0.16185 0)
(0.103836 0.141246 0)
(0.101682 0.12058 0)
(0.0993742 0.100002 0)
(0.0970603 0.0796027 0)
(0.0948618 0.0594264 0)
(0.0928741 0.0394817 0)
(0.0911682 0.0197518 0)
(0.0897913 0.0002036 0)
(0.0887689 -0.019204 0)
(0.0881049 -0.0385124 0)
(0.0877833 -0.0577569 0)
(0.0877674 -0.0769587 0)
(0.0880009 -0.096119 0)
(0.0884072 -0.115212 0)
(0.0888895 -0.134175 0)
(0.0893314 -0.152905 0)
(0.0895971 -0.171247 0)
(0.0895337 -0.188987 0)
(0.0889744 -0.205843 0)
(0.0877437 -0.221458 0)
(0.0856658 -0.235393 0)
(0.082575 -0.247123 0)
(0.0783309 -0.256039 0)
(0.0728367 -0.261448 0)
(0.0660608 -0.262588 0)
(0.0580611 -0.258652 0)
(0.0490095 -0.248814 0)
(0.0392144 -0.232281 0)
(0.0291375 -0.208347 0)
(0.0193851 -0.176468 0)
(0.0106758 -0.136328 0)
(0.00396238 -0.0879122 0)
(0.000623496 -0.0316188 0)
(0.000652677 0.032167 0)
(0.00419935 0.0896627 0)
(0.0114089 0.139355 0)
(0.0208793 0.18074 0)
(0.0316268 0.213695 0)
(0.0428792 0.238399 0)
(0.0539522 0.255295 0)
(0.064295 0.26503 0)
(0.0735112 0.26839 0)
(0.0813516 0.266232 0)
(0.0876978 0.259429 0)
(0.0925394 0.248825 0)
(0.0959497 0.235204 0)
(0.0980616 0.219263 0)
(0.0990452 0.201607 0)
(0.0990903 0.18274 0)
(0.0983911 0.163073 0)
(0.0971362 0.142925 0)
(0.0955003 0.122539 0)
(0.09364 0.102087 0)
(0.0916907 0.0816834 0)
(0.0897658 0.0613968 0)
(0.087956 0.0412596 0)
(0.0863304 0.0212779 0)
(0.084937 0.00144047 0)
(0.0838035 -0.0182729 0)
(0.0829383 -0.0378837 0)
(0.0823311 -0.0574074 0)
(0.0819532 -0.0768463 0)
(0.0817579 -0.0961823 0)
(0.0816805 -0.11537 0)
(0.081639 -0.13433 0)
(0.0815343 -0.15294 0)
(0.0812519 -0.171028 0)
(0.0806634 -0.188368 0)
(0.0796305 -0.204669 0)
(0.0780097 -0.21957 0)
(0.0756601 -0.23264 0)
(0.0724529 -0.243372 0)
(0.0682838 -0.251191 0)
(0.0630887 -0.255457 0)
(0.0568607 -0.255479 0)
(0.049669 -0.250543 0)
(0.0416767 -0.239938 0)
(0.0331572 -0.222997 0)
(0.0245038 -0.199149 0)
(0.0162201 -0.167974 0)
(0.00889114 -0.129261 0)
(0.00328455 -0.0830579 0)
(0.000513207 -0.0297645 0)
(0.000538935 0.0301997 0)
(0.00349578 0.0844595 0)
(0.00954567 0.131694 0)
(0.0175539 0.171417 0)
(0.0267258 0.20347 0)
(0.0364302 0.227955 0)
(0.0460956 0.245203 0)
(0.055249 0.255734 0)
(0.0635364 0.2602 0)
(0.0707207 0.259336 0)
(0.0766717 0.253905 0)
(0.0813513 0.244662 0)
(0.0847948 0.23232 0)
(0.0870926 0.217532 0)
(0.0883725 0.200869 0)
(0.0887841 0.182825 0)
(0.0884861 0.163805 0)
(0.0876365 0.144138 0)
(0.0863852 0.124077 0)
(0.084869 0.103812 0)
(0.0832084 0.0834771 0)
(0.081506 0.0631612 0)
(0.0798456 0.042917 0)
(0.0782924 0.0227706 0)
(0.0768933 0.00273015 0)
(0.0756777 -0.0172058 0)
(0.0746575 -0.0370407 0)
(0.0738284 -0.0567726 0)
(0.07317 -0.0763864 0)
(0.0726461 -0.0958474 0)
(0.072205 -0.115094 0)
(0.0717805 -0.13403 0)
(0.0712922 -0.15252 0)
(0.0706469 -0.170378 0)
(0.0697409 -0.187368 0)
(0.068463 -0.203192 0)
(0.0666992 -0.21749 0)
(0.064339 -0.229838 0)
(0.0612838 -0.239749 0)
(0.0574571 -0.246677 0)
(0.0528166 -0.250026 0)
(0.0473684 -0.249169 0)
(0.0411805 -0.243468 0)
(0.0343963 -0.232301 0)
(0.0272462 -0.215102 0)
(0.0200533 -0.191405 0)
(0.0132238 -0.160884 0)
(0.00722344 -0.123404 0)
(0.00265916 -0.0790587 0)
(0.000413289 -0.0282445 0)
(0.000435263 0.0285806 0)
(0.00284366 0.0801515 0)
(0.00779908 0.125311 0)
(0.0144009 0.163591 0)
(0.0220194 0.194814 0)
(0.0301497 0.219024 0)
(0.0383261 0.236475 0)
(0.046154 0.247589 0)
(0.0533288 0.252919 0)
(0.0596364 0.253098 0)
(0.0649483 0.248799 0)
(0.0692112 0.240704 0)
(0.0724343 0.229464 0)
(0.0746755 0.215687 0)
(0.0760271 0.199916 0)
(0.0766038 0.182627 0)
(0.0765316 0.164221 0)
(0.0759391 0.145027 0)
(0.0749509 0.125307 0)
(0.0736831 0.105264 0)
(0.0722396 0.0850466 0)
(0.0707103 0.0647597 0)
(0.0691704 0.0444731 0)
(0.0676795 0.02423 0)
(0.0662822 0.00405489 0)
(0.0650082 -0.0160375 0)
(0.0638728 -0.0360351 0)
(0.0628774 -0.0559207 0)
(0.0620097 -0.0756647 0)
(0.0612446 -0.0952182 0)
(0.0605442 -0.114506 0)
(0.0598583 -0.133418 0)
(0.0591256 -0.151807 0)
(0.0582744 -0.169479 0)
(0.057225 -0.186186 0)
(0.0558917 -0.201629 0)
(0.0541874 -0.215448 0)
(0.0520279 -0.227226 0)
(0.0493392 -0.236492 0)
(0.0460653 -0.242726 0)
(0.0421777 -0.245369 0)
(0.0376859 -0.243843 0)
(0.0326478 -0.237571 0)
(0.0271796 -0.226003 0)
(0.0214638 -0.208649 0)
(0.0157529 -0.185122 0)
(0.0103614 -0.155167 0)
(0.00564679 -0.118706 0)
(0.00207403 -0.0758638 0)
(0.000321247 -0.0270346 0)
(0.000339667 0.027285 0)
(0.00223371 0.076686 0)
(0.00615026 0.120148 0)
(0.0113971 0.157222 0)
(0.0174909 0.187718 0)
(0.0240404 0.211644 0)
(0.0306789 0.229198 0)
(0.0370892 0.240731 0)
(0.04302 0.246718 0)
(0.0482878 0.247717 0)
(0.0527747 0.244331 0)
(0.0564227 0.237177 0)
(0.0592242 0.226857 0)
(0.0612128 0.21394 0)
(0.0624519 0.198942 0)
(0.063026 0.182321 0)
(0.0630313 0.164471 0)
(0.0625687 0.145719 0)
(0.0617382 0.126333 0)
(0.0606346 0.106524 0)
(0.0593442 0.08645 0)
(0.0579434 0.0662304 0)
(0.0564968 0.0459477 0)
(0.0550575 0.0256586 0)
(0.0536665 0.00540117 0)
(0.0523531 -0.0147968 0)
(0.051135 -0.0349103 0)
(0.0500191 -0.05491 0)
(0.0490014 -0.0747543 0)
(0.0480677 -0.0943826 0)
(0.0471939 -0.113708 0)
(0.0463463 -0.132613 0)
(0.0454827 -0.150937 0)
(0.0445526 -0.168479 0)
(0.0434992 -0.184987 0)
(0.0422613 -0.200156 0)
(0.0407758 -0.213628 0)
(0.0389818 -0.224992 0)
(0.0368252 -0.233788 0)
(0.0342649 -0.239516 0)
(0.0312798 -0.241647 0)
(0.0278761 -0.239639 0)
(0.0240951 -0.232961 0)
(0.0200207 -0.221115 0)
(0.0157844 -0.203672 0)
(0.0115686 -0.180299 0)
(0.0076005 -0.150796 0)
(0.00413838 -0.115125 0)
(0.00151887 -0.0734344 0)
(0.000235029 -0.0261164 0)
(0.000250421 0.0262929 0)
(0.00165759 0.0740195 0)
(0.00458142 0.116156 0)
(0.0085187 0.152271 0)
(0.013118 0.182168 0)
(0.0180921 0.205833 0)
(0.0231668 0.223425 0)
(0.0281008 0.235248 0)
(0.0326977 0.241721 0)
(0.0368095 0.243343 0)
(0.0403358 0.240665 0)
(0.0432208 0.234255 0)
(0.0454477 0.224675 0)
(0.047032 0.21246 0)
(0.0480142 0.198104 0)
(0.0484524 0.182049 0)
(0.048416 0.164679 0)
(0.0479802 0.14632 0)
(0.0472209 0.127242 0)
(0.0462118 0.107658 0)
(0.0450213 0.087738 0)
(0.0437109 0.0676072 0)
(0.0423344 0.047359 0)
(0.0409368 0.0270601 0)
(0.0395547 0.00675912 0)
(0.0382162 -0.0135063 0)
(0.0369408 -0.0337014 0)
(0.0357404 -0.0537874 0)
(0.0346189 -0.0737138 0)
(0.0335731 -0.0934112 0)
(0.0325925 -0.112785 0)
(0.03166 -0.131708 0)
(0.030752 -0.150015 0)
(0.0298391 -0.167496 0)
(0.0288868 -0.183896 0)
(0.0278569 -0.198907 0)
(0.0267085 -0.212169 0)
(0.0254014 -0.223277 0)
(0.0238981 -0.231776 0)
(0.0221686 -0.237181 0)
(0.0201943 -0.23898 0)
(0.0179734 -0.236659 0)
(0.0155264 -0.229715 0)
(0.012901 -0.217691 0)
(0.0101762 -0.200194 0)
(0.00746479 -0.176935 0)
(0.00491014 -0.14775 0)
(0.0026774 -0.112631 0)
(0.000984538 -0.0717421 0)
(0.000152864 -0.0254765 0)
(0.000165967 0.0255886 0)
(0.00110747 0.0721167 0)
(0.00307511 0.113293 0)
(0.00574059 0.148701 0)
(0.00887396 0.178143 0)
(0.0122842 0.201594 0)
(0.0157853 0.219189 0)
(0.0192092 0.2312 0)
(0.0224155 0.23801 0)
(0.0252943 0.240079 0)
(0.027767 0.23792 0)
(0.0297853 0.232065 0)
(0.0313284 0.223046 0)
(0.0323989 0.211374 0)
(0.0330182 0.197522 0)
(0.0332219 0.18192 0)
(0.0330551 0.164943 0)
(0.0325685 0.146914 0)
(0.0318152 0.128102 0)
(0.0308478 0.108723 0)
(0.0297166 0.088951 0)
(0.0284681 0.0689174 0)
(0.0271438 0.0487219 0)
(0.0257804 0.0284382 0)
(0.0244091 0.00812168 0)
(0.023056 -0.012183 0)
(0.021742 -0.0324348 0)
(0.0204832 -0.0525884 0)
(0.0192912 -0.0725873 0)
(0.0181734 -0.0923566 0)
(0.0171329 -0.111796 0)
(0.0161687 -0.130773 0)
(0.0152759 -0.149117 0)
(0.0144458 -0.166615 0)
(0.0136656 -0.183005 0)
(0.0129191 -0.197978 0)
(0.0121871 -0.211173 0)
(0.0114478 -0.222182 0)
(0.0106787 -0.230556 0)
(0.00985781 -0.235813 0)
(0.00896654 -0.237452 0)
(0.00799216 -0.234971 0)
(0.00693131 -0.227888 0)
(0.00579333 -0.215764 0)
(0.00460346 -0.198234 0)
(0.00340526 -0.175031 0)
(0.00226016 -0.146017 0)
(0.00124419 -0.111203 0)
(0.000462599 -0.0707685 0)
(7.31533e-05 -0.0251061 0)
(8.48341e-05 0.0251605 0)
(0.00057576 0.0709511 0)
(0.00161389 0.111527 0)
(0.00303651 0.146482 0)
(0.00472808 0.175623 0)
(0.00658877 0.198921 0)
(0.00851678 0.216501 0)
(0.0104159 0.228618 0)
(0.0122013 0.235636 0)
(0.0138027 0.237992 0)
(0.015166 0.236174 0)
(0.0162538 0.230694 0)
(0.0170445 0.222061 0)
(0.0175313 0.21077 0)
(0.0177196 0.197281 0)
(0.0176247 0.182012 0)
(0.0172694 0.165332 0)
(0.0166814 0.14756 0)
(0.0158916 0.128962 0)
(0.014932 0.109757 0)
(0.0138344 0.0901178 0)
(0.0126298 0.0701801 0)
(0.0113475 0.0500466 0)
(0.0100148 0.0297947 0)
(0.00865688 0.0094834 0)
(0.00729716 -0.0108392 0)