/*--------------------------------*- C++ -*----------------------------------*\
  =========                 |
  \\      /  F ield         | OpenFOAM: The Open Source CFD Toolbox
   \\    /   O peration     | Website:  https://openfoam.org
    \\  /    A nd           | Version:  7
     \\/     M anipulation  |
\*---------------------------------------------------------------------------*/
FoamFile
{
    version     2.0;
    format      ascii;
    class       volVectorField;
    location    "0.0126";
    object      U;
}
// * * * * * * * * * * * * * * * * * * * * * * * * * * * * * * * * * * * * * //

dimensions      [0 1 -1 0 0 0 0];

internalField   nonuniform List<vector> 
2500
(
(0.290338 -0.152493 0)
(0.389776 -0.128325 0)
(0.565705 -0.0747589 0)
(0.683362 -0.0421719 0)
(0.752549 -0.0243871 0)
(0.79694 -0.0146766 0)
(0.827309 -0.00931633 0)
(0.848852 -0.00625681 0)
(0.864638 -0.00441161 0)
(0.876531 -0.00322854 0)
(0.885673 -0.00242701 0)
(0.892802 -0.00185935 0)
(0.898421 -0.0014437 0)
(0.902883 -0.00113184 0)
(0.906448 -0.000893614 0)
(0.909307 -0.000709103 0)
(0.911606 -0.000564514 0)
(0.913457 -0.000449948 0)
(0.914945 -0.000358091 0)
(0.916137 -0.000283416 0)
(0.917084 -0.000221654 0)
(0.917823 -0.000169445 0)
(0.918384 -0.000124078 0)
(0.918786 -8.32961e-05 0)
(0.919043 -4.51477e-05 0)
(0.919162 -7.85837e-06 0)
(0.919144 3.02825e-05 0)
(0.918984 7.10417e-05 0)
(0.91867 0.000116331 0)
(0.918183 0.000168345 0)
(0.917499 0.000229696 0)
(0.91658 0.000303601 0)
(0.91538 0.000394111 0)
(0.913836 0.000506447 0)
(0.911866 0.000647479 0)
(0.909366 0.000826471 0)
(0.906197 0.00105628 0)
(0.902175 0.00135538 0)
(0.897054 0.00175159 0)
(0.890493 0.00228909 0)
(0.882009 0.0030426 0)
(0.87089 0.00414712 0)
(0.856025 0.00586202 0)
(0.83559 0.00870889 0)
(0.806504 0.0137489 0)
(0.763467 0.0230758 0)
(0.695513 0.040654 0)
(0.577917 0.0736979 0)
(0.398183 0.128776 0)
(0.293949 0.15386 0)
(0.00117765 -0.295128 0)
(0.0170261 -0.298779 0)
(0.152247 -0.212847 0)
(0.282069 -0.144731 0)
(0.386015 -0.0986227 0)
(0.467528 -0.0684264 0)
(0.530831 -0.0487779 0)
(0.579862 -0.0357606 0)
(0.618052 -0.0268608 0)
(0.648053 -0.0205698 0)
(0.67181 -0.0159881 0)
(0.690754 -0.0125676 0)
(0.705946 -0.0099631 0)
(0.718187 -0.00794887 0)
(0.728083 -0.00637176 0)
(0.736102 -0.00512414 0)
(0.74261 -0.00412799 0)
(0.747889 -0.0033253 0)
(0.752164 -0.00267194 0)
(0.755608 -0.00213372 0)
(0.758358 -0.00168363 0)
(0.760517 -0.00129994 0)
(0.762165 -0.000964785 0)
(0.763358 -0.00066303 0)
(0.764134 -0.000381406 0)
(0.764512 -0.000107732 0)
(0.764496 0.000169769 0)
(0.764075 0.000463135 0)
(0.763218 0.000785342 0)
(0.761877 0.00115106 0)
(0.759983 0.00157749 0)
(0.757441 0.00208549 0)
(0.754125 0.00270087 0)
(0.749873 0.00345636 0)
(0.744473 0.00439421 0)
(0.737654 0.00557014 0)
(0.729065 0.00705933 0)
(0.718251 0.00896601 0)
(0.704614 0.0114393 0)
(0.687359 0.0147 0)
(0.665413 0.0190888 0)
(0.63731 0.0251521 0)
(0.601016 0.0337994 0)
(0.553696 0.0465876 0)
(0.49155 0.0661815 0)
(0.410042 0.0968905 0)
(0.304193 0.14483 0)
(0.169605 0.216726 0)
(0.026719 0.307026 0)
(0.00521392 0.303129 0)
(-0.0328846 -0.250687 0)
(-0.0617296 -0.343971 0)
(-0.0123534 -0.309679 0)
(0.068596 -0.249599 0)
(0.154674 -0.193044 0)
(0.234524 -0.147552 0)
(0.303874 -0.113087 0)
(0.362133 -0.0874062 0)
(0.410318 -0.0682182 0)
(0.449896 -0.0537344 0)
(0.48232 -0.0426643 0)
(0.508868 -0.0340982 0)
(0.530613 -0.0273956 0)
(0.548436 -0.0221004 0)
(0.563051 -0.0178821 0)
(0.575038 -0.0144965 0)
(0.584864 -0.0117595 0)
(0.592905 -0.00952997 0)
(0.599464 -0.00769783 0)
(0.604782 -0.0061759 0)
(0.609051 -0.00489405 0)
(0.61242 -0.00379494 0)
(0.615001 -0.00283067 0)
(0.61688 -0.0019602 0)
(0.618109 -0.00114714 0)
(0.61872 -0.000357851 0)
(0.618718 0.0004403 0)
(0.618087 0.00128064 0)
(0.616782 0.00219895 0)
(0.614735 0.00323536 0)
(0.611843 0.00443654 0)
(0.60797 0.00585835 0)
(0.602936 0.00756919 0)
(0.596511 0.00965444 0)
(0.588401 0.0122225 0)
(0.578235 0.0154134 0)
(0.565544 0.0194114 0)
(0.549738 0.0244638 0)
(0.530074 0.0309088 0)
(0.505617 0.0392202 0)
(0.4752 0.0500732 0)
(0.437384 0.0644445 0)
(0.390469 0.0837491 0)
(0.332609 0.109997 0)
(0.262273 0.145846 0)
(0.179481 0.19407 0)
(0.0881591 0.255206 0)
(-0.000178204 0.321389 0)
(-0.0575725 0.360627 0)
(-0.0322386 0.263915 0)
(-0.0268173 -0.190776 0)
(-0.0659576 -0.332253 0)
(-0.0663442 -0.349224 0)
(-0.0313183 -0.315216 0)
(0.0230165 -0.266216 0)
(0.0836245 -0.218098 0)
(0.142915 -0.17643 0)
(0.197192 -0.142166 0)
(0.245065 -0.114587 0)
(0.286374 -0.0925515 0)
(0.321543 -0.0749559 0)
(0.351235 -0.0608683 0)
(0.376165 -0.0495449 0)
(0.397017 -0.040404 0)
(0.414408 -0.0329919 0)
(0.428874 -0.026954 0)
(0.440875 -0.0220106 0)
(0.450796 -0.0179394 0)
(0.458957 -0.0145613 0)
(0.465623 -0.0117314 0)
(0.471005 -0.00933013 0)
(0.475273 -0.00725818 0)
(0.478557 -0.0054311 0)
(0.480954 -0.00377552 0)
(0.482528 -0.00222565 0)
(0.483313 -0.00072014 0)
(0.483318 0.000800784 0)
(0.48252 0.00239823 0)
(0.480868 0.00413756 0)
(0.478279 0.00609161 0)
(0.474633 0.00834424 0)
(0.46977 0.0109946 0)
(0.463483 0.0141625 0)
(0.455511 0.0179947 0)
(0.445528 0.0226738 0)
(0.433132 0.0284297 0)
(0.417836 0.0355557 0)
(0.399053 0.0444295 0)
(0.376086 0.0555429 0)
(0.348135 0.0695402 0)
(0.314313 0.0872638 0)
(0.273722 0.109798 0)
(0.225632 0.138475 0)
(0.169843 0.174747 0)
(0.107393 0.219705 0)
(0.0418206 0.272691 0)
(-0.0189605 0.327955 0)
(-0.0608506 0.368181 0)
(-0.0657421 0.353714 0)
(-0.0274461 0.204289 0)
(-0.0179725 -0.148967 0)
(-0.0540252 -0.301035 0)
(-0.0763399 -0.350642 0)
(-0.0719692 -0.343446 0)
(-0.0462623 -0.310273 0)
(-0.00836867 -0.26866 0)
(0.034602 -0.227319 0)
(0.0780015 -0.189928 0)
(0.119115 -0.15762 0)
(0.156575 -0.130354 0)
(0.189859 -0.107626 0)
(0.218937 -0.0887959 0)
(0.244042 -0.0732381 0)
(0.265528 -0.0603928 0)
(0.283795 -0.0497804 0)
(0.299237 -0.0409981 0)
(0.312223 -0.0337099 0)
(0.323082 -0.0276365 0)
(0.332102 -0.0225448 0)
(0.339528 -0.01824 0)
(0.345564 -0.0145577 0)
(0.350375 -0.011358 0)
(0.35409 -0.0085198 0)
(0.356807 -0.0059362 0)
(0.35859 -0.00351002 0)
(0.359475 -0.00114981 0)
(0.359467 0.00123405 0)
(0.358543 0.00373326 0)
(0.356647 0.00644556 0)
(0.35369 0.00947906 0)
(0.349549 0.0129569 0)
(0.344059 0.0170227 0)
(0.337012 0.0218468 0)
(0.328148 0.0276336 0)
(0.317157 0.0346313 0)
(0.303669 0.0431423 0)
(0.287256 0.0535376 0)
(0.26744 0.066272 0)
(0.243708 0.0819012 0)
(0.215549 0.101094 0)
(0.182541 0.124629 0)
(0.144487 0.153349 0)
(0.101674 0.188009 0)
(0.0552787 0.228914 0)
(0.00797389 0.275115 0)
(-0.035321 0.32281 0)
(-0.0667278 0.362453 0)
(-0.0757992 0.374417 0)
(-0.0557153 0.324196 0)
(-0.0188638 0.161314 0)
(-0.0116165 -0.120145 0)
(-0.0415061 -0.266482 0)
(-0.0713192 -0.333405 0)
(-0.0844133 -0.347149 0)
(-0.0795509 -0.330557 0)
(-0.0614394 -0.299324 0)
(-0.0351582 -0.262973 0)
(-0.00485865 -0.226729 0)
(0.0264685 -0.193148 0)
(0.0568869 -0.163258 0)
(0.085268 -0.137275 0)
(0.111043 -0.11501 0)
(0.134006 -0.0961004 0)
(0.154177 -0.0801279 0)
(0.171699 -0.066677 0)
(0.186783 -0.0553629 0)
(0.199663 -0.0458406 0)
(0.210574 -0.037807 0)
(0.219735 -0.0309984 0)
(0.227344 -0.0251859 0)
(0.233572 -0.020171 0)
(0.238563 -0.0157801 0)
(0.24243 -0.0118601 0)
(0.245261 -0.00827321 0)
(0.247112 -0.00489238 0)
(0.248016 -0.00159683 0)
(0.247975 0.00173253 0)
(0.246964 0.00521768 0)
(0.244928 0.00898815 0)
(0.241782 0.013186 0)
(0.237409 0.0179712 0)
(0.231655 0.0235271 0)
(0.224333 0.030067 0)
(0.215215 0.0378406 0)
(0.20404 0.0471419 0)
(0.190516 0.058316 0)
(0.17433 0.0717662 0)
(0.155171 0.0879575 0)
(0.13277 0.107412 0)
(0.106962 0.130686 0)
(0.0777943 0.158316 0)
(0.0456887 0.190686 0)
(0.0116776 0.227773 0)
(-0.0222816 0.268667 0)
(-0.0529699 0.310724 0)
(-0.0757068 0.34821 0)
(-0.0845461 0.370373 0)
(-0.073735 0.359334 0)
(-0.0438794 0.28926 0)
(-0.0124357 0.131039 0)
(-0.00770723 -0.0994289 0)
(-0.0319065 -0.23432 0)
(-0.0626392 -0.308433 0)
(-0.084471 -0.33628 0)
(-0.0931419 -0.333678 0)
(-0.0900622 -0.313306 0)
(-0.0781398 -0.284057 0)
(-0.0604197 -0.251627 0)
(-0.0395182 -0.219384 0)
(-0.0174185 -0.189145 0)
(0.00450387 -0.161761 0)
(0.0253671 -0.137509 0)
(0.0446573 -0.116347 0)
(0.0621195 -0.0980626 0)
(0.0776713 -0.0823669 0)
(0.0913395 -0.0689454 0)
(0.103215 -0.0574866 0)
(0.113423 -0.0476966 0)
(0.122097 -0.0393057 0)
(0.129374 -0.0320701 0)
(0.135377 -0.0257709 0)
(0.140213 -0.0202115 0)
(0.143973 -0.0152141 0)
(0.146724 -0.0106157 0)
(0.148512 -0.00626378 0)
(0.14936 -0.00201153 0)
(0.149268 0.00228655 0)
(0.148212 0.00677967 0)
(0.14614 0.0116256 0)
(0.142977 0.0169959 0)
(0.138622 0.0230808 0)
(0.132947 0.0300949 0)
(0.125799 0.0382818 0)
(0.117004 0.0479189 0)
(0.106373 0.0593212 0)
(0.093716 0.0728422 0)
(0.078859 0.088871 0)
(0.0616785 0.107821 0)
(0.0421503 0.130101 0)
(0.0204231 0.156067 0)
(-0.00307835 0.185915 0)
(-0.0275139 0.219508 0)
(-0.0514605 0.256077 0)
(-0.0727456 0.293747 0)
(-0.0883722 0.328821 0)
(-0.0947082 0.354845 0)
(-0.0881231 0.361589 0)
(-0.0665879 0.334464 0)
(-0.0344077 0.255541 0)
(-0.00839134 0.108838 0)
(-0.0053957 -0.0839534 0)
(-0.0251236 -0.205937 0)
(-0.0541591 -0.281109 0)
(-0.0796467 -0.317357 0)
(-0.0964071 -0.325275 0)
(-0.10385 -0.314544 0)
(-0.103156 -0.292781 0)
(-0.0962077 -0.265453 0)
(-0.0849726 -0.236205 0)
(-0.0711691 -0.207307 0)
(-0.0561485 -0.180069 0)
(-0.0408996 -0.155162 0)
(-0.0261015 -0.132847 0)
(-0.0121892 -0.113133 0)
(0.000583822 -0.0958881 0)
(0.0120928 -0.0808983 0)
(0.0223001 -0.0679158 0)
(0.0312237 -0.0566823 0)
(0.0389141 -0.046944 0)
(0.0454378 -0.0384601 0)
(0.0508659 -0.0310058 0)
(0.0552657 -0.0243728 0)
(0.0586957 -0.0183679 0)
(0.0612015 -0.0128101 0)
(0.0628138 -0.00752739 0)
(0.063546 -0.00235242 0)
(0.063394 0.00288182 0)
(0.0623346 0.00834663 0)
(0.0603256 0.0142223 0)
(0.0573059 0.0207029 0)
(0.0531966 0.0280005 0)
(0.0479027 0.0363493 0)
(0.0413178 0.0460086 0)
(0.0333303 0.0572644 0)
(0.0238347 0.0704277 0)
(0.0127484 0.0858289 0)
(3.68516e-05 0.103804 0)
(-0.0142507 0.12467 0)
(-0.0299306 0.148678 0)
(-0.0466189 0.175937 0)
(-0.0636479 0.206294 0)
(-0.0799734 0.239139 0)
(-0.0940899 0.273124 0)
(-0.103998 0.305761 0)
(-0.107314 0.332918 0)
(-0.101651 0.34828 0)
(-0.0853458 0.342993 0)
(-0.0587648 0.305891 0)
(-0.0275307 0.225038 0)
(-0.00596024 0.0919649 0)
(-0.00400283 -0.0718999 0)
(-0.0203653 -0.181215 0)
(-0.0468963 -0.253989 0)
(-0.0732941 -0.294466 0)
(-0.0944823 -0.309646 0)
(-0.108841 -0.306696 0)
(-0.116381 -0.291822 0)
(-0.118011 -0.269898 0)
(-0.115025 -0.244479 0)
(-0.108742 -0.218003 0)
(-0.10033 -0.192048 0)
(-0.0907351 -0.167564 0)
(-0.0806814 -0.145059 0)
(-0.0706925 -0.124746 0)
(-0.0611283 -0.106645 0)
(-0.0522217 -0.0906571 0)
(-0.0441112 -0.0766127 0)
(-0.0368679 -0.064306 0)
(-0.0305177 -0.0535156 0)
(-0.0250575 -0.0440182 0)
(-0.0204679 -0.0355956 0)
(-0.0167226 -0.0280386 0)
(-0.013795 -0.0211476 0)
(-0.0116632 -0.0147319 0)
(-0.0103129 -0.00860679 0)
(-0.00974022 -0.00259064 0)
(-0.00995286 0.00349881 0)
(-0.0109708 0.00984859 0)
(-0.0128263 0.0166545 0)
(-0.0155627 0.0241248 0)
(-0.0192327 0.0324838 0)
(-0.0238939 0.0419733 0)
(-0.0296033 0.0528539 0)
(-0.0364081 0.065402 0)
(-0.0443319 0.0799037 0)
(-0.0533565 0.0966421 0)
(-0.0633956 0.115875 0)
(-0.0742611 0.137797 0)
(-0.0856198 0.162485 0)
(-0.0969429 0.189811 0)
(-0.107452 0.219312 0)
(-0.116076 0.250015 0)
(-0.121437 0.2802 0)
(-0.121914 0.307105 0)
(-0.115845 0.326618 0)
(-0.101956 0.333047 0)
(-0.0799976 0.319158 0)
(-0.0516447 0.276727 0)
(-0.0225902 0.197996 0)
(-0.00447194 0.0786426 0)
(-0.00312299 -0.0621437 0)
(-0.0169523 -0.159644 0)
(-0.0409112 -0.228191 0)
(-0.0668126 -0.270039 0)
(-0.0900921 -0.289808 0)
(-0.108713 -0.292723 0)
(-0.121977 -0.283694 0)
(-0.130083 -0.266875 0)
(-0.133739 -0.245521 0)
(-0.133852 -0.222033 0)
(-0.131335 -0.198096 0)
(-0.127006 -0.174822 0)
(-0.121548 -0.152895 0)
(-0.115499 -0.132689 0)
(-0.109267 -0.114359 0)
(-0.103149 -0.097914 0)
(-0.0973526 -0.0832674 0)
(-0.0920148 -0.0702732 0)
(-0.0872226 -0.0587518 0)
(-0.0830264 -0.0485075 0)
(-0.0794523 -0.0393384 0)
(-0.0765113 -0.0310436 0)
(-0.0742063 -0.0234255 0)
(-0.0725376 -0.0162908 0)
(-0.0715067 -0.00944916 0)
(-0.0711183 -0.00271153 0)
(-0.0713828 0.00411308 0)
(-0.0723158 0.0112205 0)
(-0.0739385 0.0188145 0)
(-0.0762753 0.0271094 0)
(-0.0793514 0.0363316 0)
(-0.0831874 0.04672 0)
(-0.0877924 0.0585231 0)
(-0.0931537 0.0719938 0)
(-0.0992229 0.0873779 0)
(-0.105898 0.104896 0)
(-0.112999 0.124715 0)
(-0.120242 0.146904 0)
(-0.127206 0.171376 0)
(-0.133301 0.197795 0)
(-0.137744 0.225464 0)
(-0.139557 0.253177 0)
(-0.137604 0.279033 0)
(-0.130707 0.300256 0)
(-0.117877 0.313036 0)
(-0.0987 0.312507 0)
(-0.0738232 0.292964 0)
(-0.0455055 0.248489 0)
(-0.0189596 0.174108 0)
(-0.00351487 0.0677533 0)
(-0.00253422 -0.0540032 0)
(-0.0144211 -0.140695 0)
(-0.0360006 -0.204128 0)
(-0.0607275 -0.245468 0)
(-0.0846548 -0.267779 0)
(-0.105672 -0.274852 0)
(-0.122705 -0.270507 0)
(-0.135475 -0.258185 0)
(-0.144237 -0.240747 0)
(-0.149533 -0.220434 0)
(-0.152011 -0.198914 0)
(-0.152322 -0.177365 0)
(-0.151056 -0.156576 0)
(-0.148718 -0.137032 0)
(-0.145717 -0.118997 0)
(-0.142375 -0.102572 0)
(-0.138937 -0.0877471 0)
(-0.135584 -0.0744353 0)
(-0.132447 -0.062503 0)
(-0.129615 -0.0517873 0)
(-0.127153 -0.0421095 0)
(-0.125101 -0.0332834 0)
(-0.123488 -0.0251202 0)
(-0.122333 -0.0174306 0)
(-0.121651 -0.0100253 0)
(-0.121454 -0.00271393 0)
(-0.121754 0.00469672 0)
(-0.122562 0.0124046 0)
(-0.123886 0.0206142 0)
(-0.125734 0.0295379 0)
(-0.128103 0.039396 0)
(-0.130981 0.0504147 0)
(-0.134335 0.0628209 0)
(-0.138101 0.0768338 0)
(-0.142173 0.0926503 0)
(-0.146387 0.110422 0)
(-0.150502 0.130226 0)
(-0.154177 0.152014 0)
(-0.15696 0.175559 0)
(-0.158265 0.200371 0)
(-0.157378 0.225599 0)
(-0.153482 0.249916 0)
(-0.145725 0.271401 0)
(-0.133349 0.287432 0)
(-0.115915 0.294646 0)
(-0.0936138 0.289017 0)
(-0.0675964 0.266156 0)
(-0.0402739 0.221858 0)
(-0.0161994 0.152961 0)
(-0.0028615 0.0586139 0)
(-0.00211693 -0.0470555 0)
(-0.0124767 -0.123923 0)
(-0.0319351 -0.181889 0)
(-0.0551957 -0.221523 0)
(-0.0789025 -0.244873 0)
(-0.101044 -0.254692 0)
(-0.120384 -0.253926 0)
(-0.136353 -0.245376 0)
(-0.148878 -0.231491 0)
(-0.158205 -0.214283 0)
(-0.164744 -0.195325 0)
(-0.168972 -0.17579 0)
(-0.171364 -0.156508 0)
(-0.17236 -0.138035 0)
(-0.172338 -0.120706 0)
(-0.171616 -0.104697 0)
(-0.170453 -0.0900597 0)
(-0.16905 -0.0767645 0)
(-0.167565 -0.0647211 0)
(-0.166116 -0.0538013 0)
(-0.164791 -0.0438526 0)
(-0.163657 -0.0347083 0)
(-0.16276 -0.0261931 0)
(-0.162136 -0.0181272 0)
(-0.161808 -0.0103275 0)
(-0.161795 -0.00260816 0)
(-0.162109 0.00522049 0)
(-0.162755 0.0133524 0)
(-0.163731 0.0219864 0)
(-0.165027 0.0313265 0)
(-0.166618 0.0415797 0)
(-0.168464 0.0529525 0)
(-0.170494 0.0656437 0)
(-0.172609 0.0798336 0)
(-0.17466 0.0956668 0)
(-0.176444 0.113229 0)
(-0.177685 0.132511 0)
(-0.178028 0.153372 0)
(-0.177027 0.175477 0)
(-0.174149 0.198231 0)
(-0.16879 0.220706 0)
(-0.16032 0.241553 0)
(-0.148162 0.258933 0)
(-0.13192 0.270479 0)
(-0.111567 0.273313 0)
(-0.0876794 0.264187 0)
(-0.0616464 0.239768 0)
(-0.0357997 0.197093 0)
(-0.0140272 0.134171 0)
(-0.00238887 0.0507971 0)
(-0.00180597 -0.0410266 0)
(-0.0109351 -0.108972 0)
(-0.028526 -0.161421 0)
(-0.050232 -0.198612 0)
(-0.0732144 -0.221928 0)
(-0.0956353 -0.233375 0)
(-0.116227 -0.235219 0)
(-0.134256 -0.229713 0)
(-0.149434 -0.218915 0)
(-0.161778 -0.204587 0)
(-0.1715 -0.188162 0)
(-0.178917 -0.170756 0)
(-0.184386 -0.153197 0)
(-0.188264 -0.136066 0)
(-0.190884 -0.119746 0)
(-0.192538 -0.104461 0)
(-0.193477 -0.0903158 0)
(-0.193908 -0.0773249 0)
(-0.193999 -0.0654385 0)
(-0.193885 -0.0545615 0)
(-0.19367 -0.0445688 0)
(-0.193436 -0.035315 0)
(-0.193243 -0.0266419 0)
(-0.193137 -0.0183829 0)
(-0.19315 -0.0103655 0)
(-0.193303 -0.00241291 0)
(-0.193607 0.00565608 0)
(-0.194061 0.0140263 0)
(-0.194655 0.022886 0)
(-0.195364 0.0324252 0)
(-0.196143 0.0428328 0)
(-0.19693 0.054291 0)
(-0.197631 0.0669672 0)
(-0.198116 0.0810014 0)
(-0.198215 0.0964879 0)
(-0.197704 0.113452 0)
(-0.196299 0.131816 0)
(-0.193655 0.151365 0)
(-0.189367 0.171692 0)
(-0.182978 0.192149 0)
(-0.174014 0.211788 0)
(-0.16203 0.229309 0)
(-0.146691 0.243023 0)
(-0.127887 0.250855 0)
(-0.105878 0.250403 0)
(-0.0814652 0.239085 0)
(-0.0561057 0.214394 0)
(-0.031944 0.17425 0)
(-0.0122668 0.117414 0)
(-0.00202994 0.0440221 0)
(-0.00156489 -0.0357296 0)
(-0.00968142 -0.0955625 0)
(-0.0256342 -0.142611 0)
(-0.0458048 -0.17693 0)
(-0.0677897 -0.199462 0)
(-0.0899464 -0.211678 0)
(-0.111046 -0.215318 0)
(-0.130283 -0.212185 0)
(-0.14723 -0.203984 0)
(-0.161742 -0.19223 0)
(-0.173874 -0.178198 0)
(-0.183805 -0.162914 0)
(-0.19178 -0.147169 0)
(-0.198075 -0.131543 0)
(-0.202963 -0.116437 0)
(-0.2067 -0.102107 0)
(-0.209517 -0.0886931 0)
(-0.211612 -0.0762446 0)
(-0.213154 -0.0647456 0)
(-0.214281 -0.0541314 0)
(-0.215107 -0.0443027 0)
(-0.215721 -0.0351363 0)
(-0.216193 -0.0264926 0)
(-0.216573 -0.0182207 0)
(-0.216898 -0.010162 0)
(-0.217191 -0.00215191 0)
(-0.217461 0.00597828 0)
(-0.217702 0.0144006 0)
(-0.217896 0.0232885 0)
(-0.218005 0.0328146 0)
(-0.217973 0.0431465 0)
(-0.217718 0.0544402 0)
(-0.217133 0.0668309 0)
(-0.216072 0.0804199 0)
(-0.214353 0.0952567 0)
(-0.211751 0.111316 0)
(-0.207994 0.128469 0)
(-0.202766 0.146448 0)
(-0.195719 0.164809 0)
(-0.186487 0.18289 0)
(-0.174724 0.199771 0)
(-0.160154 0.214243 0)
(-0.142641 0.224803 0)
(-0.122287 0.229674 0)
(-0.0995396 0.226883 0)
(-0.0753101 0.214399 0)
(-0.0510241 0.190348 0)
(-0.0286001 0.153274 0)
(-0.0108084 0.102422 0)
(-0.00174722 0.0380933 0)
(-0.00137259 -0.0310302 0)
(-0.00864355 -0.0834692 0)
(-0.0231616 -0.125321 0)
(-0.0418737 -0.156541 0)
(-0.0627355 -0.177777 0)
(-0.0842951 -0.190113 0)
(-0.105399 -0.194889 0)
(-0.125223 -0.193539 0)
(-0.143262 -0.187466 0)
(-0.159259 -0.177952 0)
(-0.17315 -0.166109 0)
(-0.185001 -0.152859 0)
(-0.19496 -0.138933 0)
(-0.203223 -0.124889 0)
(-0.210005 -0.111125 0)
(-0.215518 -0.0979106 0)
(-0.219965 -0.0854072 0)
(-0.223526 -0.0736905 0)
(-0.226363 -0.062771 0)
(-0.22861 -0.0526094 0)
(-0.230381 -0.04313 0)
(-0.231769 -0.0342309 0)
(-0.232846 -0.0257915 0)
(-0.233665 -0.0176781 0)
(-0.234266 -0.00974768 0)
(-0.234671 -0.00185072 0)
(-0.234885 0.00616671 0)
(-0.2349 0.014461 0)
(-0.234689 0.0231884 0)
(-0.234208 0.0325019 0)
(-0.23339 0.0425464 0)
(-0.232146 0.0534514 0)
(-0.230356 0.0653217 0)
(-0.227872 0.0782238 0)
(-0.224514 0.0921698 0)
(-0.220065 0.107095 0)
(-0.214279 0.122836 0)
(-0.206882 0.139096 0)
(-0.197592 0.15542 0)
(-0.186134 0.171163 0)
(-0.172281 0.185464 0)
(-0.155899 0.197234 0)
(-0.13701 0.205163 0)
(-0.115863 0.207757 0)
(-0.0930196 0.203415 0)
(-0.0694232 0.190552 0)
(-0.046417 0.167772 0)
(-0.0256909 0.134058 0)
(-0.00958311 0.0889656 0)
(-0.00151891 0.0328667 0)
(-0.00121633 -0.0268267 0)
(-0.0077749 -0.072506 0)
(-0.0210398 -0.109406 0)
(-0.0384019 -0.137432 0)
(-0.0581109 -0.157031 0)
(-0.0788881 -0.169007 0)
(-0.0996689 -0.174393 0)
(-0.119647 -0.174327 0)
(-0.138275 -0.169955 0)
(-0.155226 -0.162348 0)
(-0.170349 -0.152463 0)
(-0.18362 -0.14111 0)
(-0.195106 -0.128952 0)
(-0.204932 -0.116503 0)
(-0.213255 -0.104146 0)
(-0.220245 -0.0921511 0)
(-0.226071 -0.0806879 0)
(-0.230893 -0.069849 0)
(-0.234854 -0.0596641 0)
(-0.238084 -0.0501145 0)
(-0.240691 -0.041145 0)
(-0.242764 -0.0326733 0)
(-0.244377 -0.0245974 0)
(-0.245582 -0.0168009 0)
(-0.246417 -0.00915749 0)
(-0.246904 -0.00153403 0)
(-0.247045 0.00620697 0)
(-0.246829 0.0142046 0)
(-0.246223 0.0225967 0)
(-0.245179 0.0315158 0)
(-0.243623 0.0410842 0)
(-0.241462 0.0514061 0)
(-0.238576 0.0625588 0)
(-0.23482 0.0745799 0)
(-0.230021 0.0874519 0)
(-0.223985 0.101084 0)
(-0.216495 0.11529 0)
(-0.207328 0.129766 0)
(-0.196267 0.144067 0)
(-0.183124 0.157586 0)
(-0.167776 0.169543 0)
(-0.150204 0.178978 0)
(-0.130546 0.184771 0)
(-0.10915 0.185684 0)
(-0.086637 0.18043 0)
(-0.0639367 0.16778 0)
(-0.0422857 0.146695 0)
(-0.0231618 0.116466 0)
(-0.0085462 0.0768485 0)
(-0.00133176 0.0282298 0)
(-0.00108809 -0.0230381 0)
(-0.00704465 -0.062514 0)
(-0.0192207 -0.0947193 0)
(-0.0353589 -0.119539 0)
(-0.0539479 -0.137282 0)
(-0.0738613 -0.148548 0)
(-0.094125 -0.154132 0)
(-0.113966 -0.154937 0)
(-0.132826 -0.151891 0)
(-0.150333 -0.145882 0)
(-0.166275 -0.13772 0)
(-0.18056 -0.128107 0)
(-0.193188 -0.117625 0)
(-0.204224 -0.106743 0)
(-0.213774 -0.0958149 0)
(-0.221965 -0.0850976 0)
(-0.228932 -0.0747625 0)
(-0.23481 -0.0649095 0)
(-0.239728 -0.0555813 0)
(-0.2438 -0.0467746 0)
(-0.247126 -0.0384513 0)
(-0.249792 -0.0305464 0)
(-0.251866 -0.0229752 0)
(-0.2534 -0.0156384 0)
(-0.254428 -0.00842662 0)
(-0.25497 -0.0012235 0)
(-0.255026 0.00609124 0)
(-0.254582 0.0136388 0)
(-0.253602 0.0215382 0)
(-0.252033 0.0299019 0)
(-0.249803 0.0388303 0)
(-0.246816 0.0484053 0)
(-0.242958 0.0586805 0)
(-0.23809 0.0696705 0)
(-0.232057 0.0813366 0)
(-0.224687 0.0935719 0)
(-0.215803 0.106183 0)
(-0.205229 0.118872 0)
(-0.192811 0.131221 0)
(-0.178438 0.142677 0)
(-0.162073 0.152548 0)
(-0.143788 0.160006 0)
(-0.123804 0.164111 0)
(-0.102532 0.163846 0)
(-0.0806109 0.158188 0)
(-0.058934 0.146186 0)
(-0.038625 0.127069 0)
(-0.0209733 0.100346 0)
(-0.0076677 0.0658952 0)
(-0.0011773 0.0240909 0)
(-0.000982551 -0.0195975 0)
(-0.00643163 -0.0533538 0)
(-0.0176696 -0.0811169 0)
(-0.0327191 -0.102767 0)
(-0.0502626 -0.11852 0)
(-0.0693031 -0.128823 0)
(-0.0889525 -0.134288 0)
(-0.108479 -0.135628 0)
(-0.127328 -0.13359 0)
(-0.145105 -0.128902 0)
(-0.161554 -0.12224 0)
(-0.176533 -0.114201 0)
(-0.189992 -0.10529 0)
(-0.201942 -0.0959193 0)
(-0.212446 -0.086409 0)
(-0.221591 -0.0769961 0)
(-0.229482 -0.0678443 0)
(-0.23623 -0.0590546 0)
(-0.241941 -0.0506764 0)
(-0.246719 -0.0427178 0)
(-0.250651 -0.0351538 0)
(-0.253818 -0.0279345 0)
(-0.25628 -0.0209908 0)
(-0.258086 -0.0142397 0)
(-0.259268 -0.00758807 0)
(-0.259843 -0.000936452 0)
(-0.259807 0.00581829 0)
(-0.259145 0.0127797 0)
(-0.257819 0.0200482 0)
(-0.255776 0.0277172 0)
(-0.252944 0.0358677 0)
(-0.249231 0.0445615 0)
(-0.244528 0.0538333 0)
(-0.238712 0.0636806 0)
(-0.231645 0.0740516 0)
(-0.223183 0.0848327 0)
(-0.213183 0.0958341 0)
(-0.201519 0.106776 0)
(-0.188091 0.117279 0)
(-0.172856 0.126852 0)
(-0.155845 0.134896 0)
(-0.137199 0.14071 0)
(-0.117195 0.143514 0)
(-0.0962795 0.142487 0)
(-0.0750896 0.13682 0)
(-0.0544663 0.125781 0)
(-0.0354259 0.1088 0)
(-0.0190956 0.0855365 0)
(-0.00692654 0.0559463 0)
(-0.00104981 0.0203718 0)
(-0.000896038 -0.0164476 0)
(-0.00592071 -0.0449003 0)
(-0.0163604 -0.0684568 0)
(-0.0304609 -0.0870038 0)
(-0.0470602 -0.10069 0)
(-0.06527 -0.10985 0)
(-0.0842785 -0.114955 0)
(-0.103398 -0.116562 0)
(-0.122085 -0.115266 0)
(-0.139935 -0.111659 0)
(-0.156666 -0.106294 0)
(-0.172098 -0.0996712 0)
(-0.18614 -0.0922185 0)
(-0.198765 -0.0842906 0)
(-0.209994 -0.0761683 0)
(-0.219883 -0.0680633 0)
(-0.228507 -0.0601258 0)
(-0.235953 -0.0524521 0)
(-0.24231 -0.0450939 0)
(-0.247665 -0.0380659 0)
(-0.252098 -0.0313535 0)
(-0.255676 -0.024919 0)
(-0.258458 -0.0187074 0)
(-0.260485 -0.0126505 0)
(-0.261786 -0.00667087 0)
(-0.262374 -0.000685163 0)
(-0.262246 0.0053931 0)
(-0.261382 0.0116503 0)
(-0.259746 0.0181697 0)
(-0.257285 0.0250269 0)
(-0.253928 0.0322855 0)
(-0.249592 0.039991 0)
(-0.244175 0.0481634 0)
(-0.237568 0.0567887 0)
(-0.229654 0.0658091 0)
(-0.220315 0.0751123 0)
(-0.209444 0.0845209 0)
(-0.196955 0.0937822 0)
(-0.182801 0.10256 0)
(-0.166988 0.110433 0)
(-0.149606 0.116892 0)
(-0.130843 0.121356 0)
(-0.111015 0.12319 0)
(-0.0905834 0.121737 0)
(-0.0701703 0.116363 0)
(-0.0505616 0.106511 0)
(-0.0326761 0.0917588 0)
(-0.0175046 0.0718736 0)
(-0.00630707 0.0468549 0)
(-0.000945206 0.0170047 0)
(-0.000825886 -0.0135379 0)
(-0.0055006 -0.0370394 0)
(-0.015273 -0.0566009 0)
(-0.0285651 -0.0721217 0)
(-0.044339 -0.0837046 0)
(-0.061795 -0.0915975 0)
(-0.0801876 -0.0961593 0)
(-0.0988693 -0.0978219 0)
(-0.117315 -0.0970529 0)
(-0.135115 -0.0943225 0)
(-0.151973 -0.0900785 0)
(-0.167682 -0.0847279 0)
(-0.18212 -0.0786251 0)
(-0.195228 -0.0720672 0)
(-0.206996 -0.0652929 0)
(-0.217451 -0.0584849 0)
(-0.226644 -0.0517756 0)
(-0.23464 -0.0452524 0)
(-0.241511 -0.0389649 0)
(-0.247329 -0.0329312 0)
(-0.252164 -0.0271439 0)
(-0.256074 -0.0215755 0)
(-0.259111 -0.0161831 0)
(-0.261312 -0.0109119 0)
(-0.262703 -0.00569914 0)
(-0.263292 -0.000476696 0)
(-0.263075 0.00482611 0)
(-0.262031 0.0102796 0)
(-0.260125 0.0159509 0)
(-0.257304 0.0218999 0)
(-0.253504 0.0281752 0)
(-0.248645 0.0348092 0)
(-0.242639 0.0418112 0)
(-0.235388 0.0491609 0)
(-0.226796 0.0568002 0)
(-0.216771 0.0646249 0)
(-0.205235 0.0724765 0)
(-0.19214 0.0801349 0)
(-0.177479 0.0873137 0)
(-0.161303 0.0936584 0)
(-0.143741 0.0987505 0)
(-0.125018 0.102118 0)
(-0.105473 0.103253 0)
(-0.0855713 0.101639 0)
(-0.0659132 0.0967877 0)
(-0.0472318 0.0882771 0)
(-0.0303611 0.0757983 0)
(-0.0161804 0.0591934 0)
(-0.0057971 0.0384848 0)
(-0.000860425 0.013929 0)
(-0.0007701 -0.0108237 0)
(-0.00516263 -0.0296657 0)
(-0.0143911 -0.0454156 0)
(-0.0270147 -0.0579884 0)
(-0.0420925 -0.0674545 0)
(-0.0588958 -0.0739953 0)
(-0.0767337 -0.0778794 0)
(-0.0949949 -0.0794347 0)
(-0.113171 -0.0790202 0)
(-0.130857 -0.0770009 0)
(-0.147743 -0.0737282 0)
(-0.163607 -0.0695244 0)
(-0.178303 -0.0646735 0)
(-0.191748 -0.0594156 0)
(-0.203906 -0.0539461 0)
(-0.214782 -0.0484166 0)
(-0.224405 -0.0429382 0)
(-0.232823 -0.0375864 0)
(-0.240091 -0.0324055 0)
(-0.246271 -0.0274141 0)
(-0.25142 -0.0226095 0)
(-0.25559 -0.0179722 0)
(-0.258827 -0.0134696 0)
(-0.261162 -0.00905932 0)
(-0.262616 -0.0046918 0)
(-0.263198 -0.000313201 0)
(-0.2629 0.00413238 0)
(-0.261702 0.00870039 0)
(-0.259569 0.0134432 0)
(-0.25645 0.0184067 0)
(-0.252286 0.0236272 0)
(-0.247004 0.0291266 0)
(-0.240524 0.0349075 0)
(-0.232764 0.0409475 0)
(-0.223644 0.047193 0)
(-0.213095 0.0535528 0)
(-0.201065 0.0598922 0)
(-0.187537 0.0660276 0)
(-0.172537 0.0717242 0)
(-0.156148 0.0766953 0)
(-0.138531 0.080607 0)
(-0.119935 0.0830872 0)
(-0.100712 0.0837413 0)
(-0.0813258 0.0821736 0)
(-0.0623521 0.0780141 0)
(-0.0444773 0.0709503 0)
(-0.0284652 0.060759 0)
(-0.0151055 0.0473345 0)
(-0.00538682 0.0307085 0)
(-0.000793105 0.0110903 0)
(-0.00072716 -0.00826405 0)
(-0.00490002 -0.022681 0)
(-0.0137014 -0.0347714 0)
(-0.0257944 -0.0444681 0)
(-0.0403117 -0.051818 0)
(-0.0565792 -0.0569502 0)
(-0.0739494 -0.0600588 0)
(-0.0918406 -0.061384 0)
(-0.109761 -0.0611907 0)
(-0.127308 -0.0597511 0)
(-0.144169 -0.0573287 0)
(-0.160109 -0.0541678 0)
(-0.174966 -0.0504848 0)
(-0.188637 -0.0464648 0)
(-0.201069 -0.0422591 0)
(-0.212248 -0.0379867 0)
(-0.222186 -0.0337358 0)
(-0.230916 -0.0295671 0)
(-0.238482 -0.0255174 0)
(-0.244933 -0.0216034 0)
(-0.25032 -0.0178251 0)
(-0.254686 -0.0141694 0)
(-0.258072 -0.0106124 0)
(-0.260506 -0.00712256 0)
(-0.262006 -0.00366282 0)
(-0.262576 -0.000192485 0)
(-0.26221 0.00333062 0)
(-0.260886 0.00694819 0)
(-0.25857 0.0106992 0)
(-0.255215 0.0146176 0)
(-0.250764 0.0187291 0)
(-0.245151 0.0230478 0)
(-0.238306 0.0275726 0)
(-0.230158 0.0322826 0)
(-0.220642 0.0371324 0)
(-0.209706 0.0420477 0)
(-0.197322 0.0469208 0)
(-0.183496 0.0516073 0)
(-0.168277 0.0559247 0)
(-0.151776 0.0596526 0)
(-0.134175 0.062537 0)
(-0.115739 0.0642979 0)
(-0.096827 0.0646411 0)
(-0.0778966 0.063275 0)
(-0.0595025 0.0599302 0)
(-0.0422917 0.0543823 0)
(-0.0269723 0.0464749 0)
(-0.014265 0.036139 0)
(-0.00506826 0.0234064 0)
(-0.000741392 0.00843903 0)
(-0.000695919 -0.00582139 0)
(-0.00470756 -0.0159929 0)
(-0.0131935 -0.0245431 0)
(-0.0248913 -0.0314238 0)
(-0.0389868 -0.0366647 0)
(-0.0548456 -0.0403519 0)
(-0.0718523 -0.0426166 0)
(-0.0894482 -0.0436226 0)
(-0.107154 -0.0435518 0)
(-0.124573 -0.0425924 0)
(-0.141387 -0.0409276 0)
(-0.157357 -0.038728 0)
(-0.172307 -0.0361461 0)
(-0.186124 -0.0333127 0)
(-0.198739 -0.0303357 0)
(-0.210124 -0.0273005 0)
(-0.220281 -0.0242707 0)
(-0.229231 -0.0212909 0)
(-0.237008 -0.0183886 0)
(-0.243652 -0.0155768 0)
(-0.249208 -0.0128568 0)
(-0.253715 -0.0102199 0)
(-0.257207 -0.00765034 0)
(-0.25971 -0.00512622 0)
(-0.26124 -0.00262179 0)
(-0.261798 -0.000108747 0)
(-0.261379 0.00244231 0)
(-0.259959 0.00506035 0)
(-0.257505 0.00777231 0)
(-0.253974 0.0106012 0)
(-0.249311 0.0135642 0)
(-0.243456 0.0166698 0)
(-0.236346 0.0199156 0)
(-0.227919 0.0232846 0)
(-0.218121 0.0267426 0)
(-0.206916 0.0302348 0)
(-0.19429 0.0336828 0)
(-0.180267 0.0369829 0)
(-0.164916 0.0400048 0)
(-0.148364 0.0425929 0)
(-0.130809 0.0445689 0)
(-0.112525 0.0457378 0)
(-0.0938759 0.0458966 0)
(-0.0753112 0.0448453 0)
(-0.0573687 0.0424009 0)
(-0.0406654 0.0384129 0)
(-0.0258677 0.032778 0)
(-0.0136462 0.0254536 0)
(-0.00483501 0.0164657 0)
(-0.000703847 0.00592937 0)
(-0.000675545 -0.00346056 0)
(-0.00458138 -0.0095132 0)
(-0.0128593 -0.014609 0)
(-0.0242953 -0.0187188 0)
(-0.0381091 -0.0218591 0)
(-0.0536926 -0.0240791 0)
(-0.0704515 -0.0254549 0)
(-0.0878423 -0.0260816 0)
(-0.105395 -0.0260656 0)
(-0.122716 -0.0255171 0)
(-0.139488 -0.0245442 0)
(-0.155464 -0.0232478 0)
(-0.170465 -0.0217183 0)
(-0.184366 -0.0200337 0)
(-0.197093 -0.0182587 0)
(-0.208607 -0.0164444 0)
(-0.218901 -0.0146296 0)
(-0.22799 -0.0128412 0)
(-0.235901 -0.0110962 0)
(-0.24267 -0.00940302 0)
(-0.248335 -0.0077627 0)
(-0.252931 -0.00617059 0)
(-0.256491 -0.00461745 0)
(-0.259038 -0.00309057 0)
(-0.260585 -0.00157478 0)
(-0.261135 -5.33906e-05 0)
(-0.260678 0.00149092 0)
(-0.259193 0.00307519 0)
(-0.256649 0.00471521 0)
(-0.253001 0.00642433 0)
(-0.248199 0.00821228 0)
(-0.242185 0.0100836 0)
(-0.234902 0.0120361 0)
(-0.226295 0.0140589 0)
(-0.216318 0.0161307 0)
(-0.204942 0.018218 0)
(-0.192167 0.0202732 0)
(-0.178026 0.0222338 0)
(-0.162602 0.0240218 0)
(-0.146031 0.0255447 0)
(-0.128522 0.0266967 0)
(-0.110355 0.0273629 0)
(-0.0918935 0.0274243 0)
(-0.0735832 0.0267642 0)
(-0.0559492 0.0252765 0)
(-0.039588 0.0228745 0)
(-0.0251387 0.0194997 0)
(-0.0132394 0.0151289 0)
(-0.00468224 0.00977904 0)
(-0.000679406 0.00351867 0)
(-0.000665493 -0.00114816 0)
(-0.00451893 -0.00315734 0)
(-0.0126936 -0.00485017 0)
(-0.0239991 -0.00621698 0)
(-0.0376721 -0.00726296 0)
(-0.0531171 -0.0080042 0)