/*--------------------------------*- C++ -*----------------------------------*\
  =========                 |
  \\      /  F ield         | OpenFOAM: The Open Source CFD Toolbox
   \\    /   O peration     | Website:  https://openfoam.org
    \\  /    A nd           | Version:  7
     \\/     M anipulation  |
\*---------------------------------------------------------------------------*/
FoamFile
{
    version     2.0;
    format      ascii;
    class       volScalarField;
    location    "0.0156";
    object      p;
}
// * * * * * * * * * * * * * * * * * * * * * * * * * * * * * * * * * * * * * //

dimensions      [0 2 -2 0 0 0 0];

internalField   nonuniform List<scalar> 
2500
(
1.09569e-06
-6.50952
-9.29036
-10.4806
-11.1398
-11.5397
-11.7969
-11.9755
-12.1075
-12.2094
-12.2906
-12.3569
-12.4122
-12.459
-12.4993
-12.5344
-12.5654
-12.593
-12.618
-12.6407
-12.6616
-12.681
-12.6992
-12.7165
-12.733
-12.749
-12.7646
-12.78
-12.7953
-12.8109
-12.8268
-12.8434
-12.8609
-12.8797
-12.9004
-12.9235
-12.9499
-12.9807
-13.0177
-13.0631
-13.1203
-13.1948
-13.2955
-13.4381
-13.654
-14.0048
-14.598
-15.6937
-18.3579
-24.7425
-4.95784
-7.6754
-9.17881
-10.1348
-10.7978
-11.2527
-11.5689
-11.7969
-11.9672
-12.0982
-12.2016
-12.2851
-12.3538
-12.4114
-12.4604
-12.5026
-12.5395
-12.5721
-12.6013
-12.6278
-12.652
-12.6744
-12.6954
-12.7153
-12.7343
-12.7528
-12.771
-12.7891
-12.8074
-12.8261
-12.8456
-12.8662
-12.8884
-12.9127
-12.9398
-12.9706
-13.0064
-13.0488
-13.1002
-13.1638
-13.2445
-13.3497
-13.4904
-13.6844
-13.9611
-14.3689
-14.9734
-15.8572
-17.2747
-19.8738
-7.93153
-8.76049
-9.55824
-10.2358
-10.7721
-11.1779
-11.4829
-11.715
-11.8944
-12.0355
-12.1485
-12.2404
-12.3164
-12.3802
-12.4345
-12.4812
-12.5219
-12.5579
-12.59
-12.6191
-12.6456
-12.6702
-12.6931
-12.7149
-12.7359
-12.7563
-12.7764
-12.7965
-12.8169
-12.838
-12.8601
-12.8837
-12.9092
-12.9373
-12.9688
-13.0047
-13.0464
-13.0958
-13.1553
-13.2283
-13.3197
-13.4363
-13.5878
-13.788
-14.0566
-14.4202
-14.9077
-15.5317
-16.2748
-17.0377
-9.44561
-9.65425
-10.0695
-10.5112
-10.9008
-11.2243
-11.4868
-11.6985
-11.8692
-12.0078
-12.1214
-12.2155
-12.2942
-12.3608
-12.4177
-12.467
-12.5101
-12.5483
-12.5824
-12.6132
-12.6414
-12.6675
-12.692
-12.7153
-12.7377
-12.7595
-12.7811
-12.8028
-12.8249
-12.8478
-12.8719
-12.8976
-12.9255
-12.9562
-12.9906
-13.0297
-13.0749
-13.1278
-13.1909
-13.267
-13.3603
-13.4758
-13.6205
-13.8029
-14.0329
-14.3202
-14.6712
-15.0731
-15.4525
-15.6291
-10.3355
-10.3287
-10.5282
-10.8016
-11.073
-11.32
-11.5352
-11.7186
-11.873
-12.0027
-12.1117
-12.2039
-12.2823
-12.3494
-12.4073
-12.4578
-12.5023
-12.5417
-12.5771
-12.6092
-12.6386
-12.6659
-12.6916
-12.716
-12.7395
-12.7625
-12.7853
-12.8082
-12.8317
-12.856
-12.8815
-12.9088
-12.9384
-12.9709
-13.0071
-13.048
-13.0948
-13.149
-13.2126
-13.2879
-13.3778
-13.486
-13.6164
-13.7733
-13.96
-14.1767
-14.4178
-14.6627
-14.8393
-14.8185
-10.9057
-10.8239
-10.9075
-11.0712
-11.2558
-11.4392
-11.6102
-11.7636
-11.8984
-12.0155
-12.1167
-12.2041
-12.2798
-12.3455
-12.4029
-12.4534
-12.4981
-12.538
-12.5741
-12.6068
-12.637
-12.6651
-12.6915
-12.7167
-12.741
-12.7649
-12.7885
-12.8124
-12.8368
-12.862
-12.8885
-12.9168
-12.9473
-12.9807
-13.0176
-13.059
-13.1058
-13.1593
-13.221
-13.2925
-13.3757
-13.4728
-13.5857
-13.7156
-13.8619
-14.0203
-14.1814
-14.325
-14.3949
-14.3098
-11.2901
-11.1907
-11.2151
-11.31
-11.433
-11.5663
-11.699
-11.8243
-11.9389
-12.0418
-12.1332
-12.214
-12.2852
-12.3481
-12.4037
-12.4531
-12.4972
-12.537
-12.573
-12.606
-12.6364
-12.6648
-12.6917
-12.7173
-12.7421
-12.7664
-12.7906
-12.815
-12.8399
-12.8656
-12.8926
-12.9212
-12.952
-12.9855
-13.0222
-13.0629
-13.1084
-13.1596
-13.2176
-13.2834
-13.3581
-13.4426
-13.5374
-13.6419
-13.7536
-13.8667
-13.9718
-14.0526
-14.0696
-13.9726
-11.5641
-11.468
-11.4629
-11.5151
-11.5955
-11.691
-11.7923
-11.8928
-11.9884
-12.0771
-12.158
-12.2312
-12.297
-12.3559
-12.4088
-12.4563
-12.4992
-12.5381
-12.5736
-12.6062
-12.6365
-12.6649
-12.6918
-12.7176
-12.7425
-12.767
-12.7914
-12.8159
-12.8409
-12.8667
-12.8937
-12.9222
-12.9526
-12.9855
-13.0212
-13.0604
-13.1036
-13.1515
-13.2047
-13.2639
-13.3294
-13.4013
-13.4793
-13.5617
-13.6454
-13.7248
-13.7918
-13.8344
-13.826
-13.7351
-11.7696
-11.6827
-11.6632
-11.6891
-11.7403
-11.8078
-11.8843
-11.9638
-12.0425
-12.1178
-12.1884
-12.2536
-12.3134
-12.3678
-12.4173
-12.4624
-12.5034
-12.5409
-12.5755
-12.6074
-12.6372
-12.6652
-12.6918
-12.7174
-12.7422
-12.7665
-12.7907
-12.8151
-12.8398
-12.8654
-12.8919
-12.9198
-12.9494
-12.9811
-13.0153
-13.0523
-13.0926
-13.1366
-13.1846
-13.2368
-13.2933
-13.3536
-13.4167
-13.4809
-13.5429
-13.5978
-13.6392
-13.6589
-13.6388
-13.5586
-11.9294
-11.8525
-11.8265
-11.8362
-11.8677
-11.9147
-11.9718
-12.0342
-12.0982
-12.1614
-12.2222
-12.2796
-12.3332
-12.3828
-12.4286
-12.4707
-12.5095
-12.5453
-12.5784
-12.6093
-12.6382
-12.6655
-12.6916
-12.7167
-12.741
-12.7649
-12.7887
-12.8126
-12.8368
-12.8617
-12.8874
-12.9144
-12.9428
-12.9729
-13.0051
-13.0395
-13.0766
-13.1164
-13.1591
-13.2046
-13.2527
-13.3027
-13.3534
-13.4029
-13.4484
-13.4857
-13.5102
-13.5163
-13.4915
-13.4219
-12.0571
-11.9894
-11.9611
-11.961
-11.979
-12.0112
-12.0534
-12.1019
-12.1535
-12.2061
-12.2578
-12.3078
-12.3553
-12.4
-12.4418
-12.4808
-12.517
-12.5507
-12.5822
-12.6117
-12.6395
-12.6659
-12.6911
-12.7154
-12.7391
-12.7623
-12.7854
-12.8085
-12.832
-12.8559
-12.8806
-12.9063
-12.9332
-12.9615
-12.9914
-13.0231
-13.0568
-13.0924
-13.13
-13.1693
-13.2099
-13.2511
-13.2915
-13.3294
-13.3625
-13.3874
-13.4008
-13.399
-13.373
-13.3129
-12.1612
-12.1016
-12.0732
-12.0672
-12.0763
-12.0977
-12.1286
-12.1659
-12.2073
-12.2505
-12.2943
-12.3373
-12.379
-12.4189
-12.4567
-12.4923
-12.5258
-12.5572
-12.5868
-12.6147
-12.6411
-12.6663
-12.6904
-12.7138
-12.7365
-12.7588
-12.781
-12.8031
-12.8255
-12.8483
-12.8718
-12.896
-12.9212
-12.9475
-12.975
-13.0039
-13.0342
-13.0659
-13.0987
-13.1324
-13.1666
-13.2002
-13.2323
-13.2613
-13.2852
-13.3014
-13.3076
-13.3012
-13.2758
-13.2238
-12.2473
-12.1949
-12.1676
-12.1583
-12.1613
-12.175
-12.1973
-12.2258
-12.2586
-12.294
-12.3307
-12.3675
-12.4037
-12.4389
-12.4727
-12.5049
-12.5355
-12.5645
-12.592
-12.6181
-12.643
-12.6667
-12.6896
-12.7117
-12.7333
-12.7546
-12.7756
-12.7966
-12.8178
-12.8393
-12.8613
-12.8839
-12.9073
-12.9315
-12.9566
-12.9827
-13.0098
-13.0377
-13.0663
-13.0951
-13.1236
-13.1512
-13.1766
-13.1987
-13.2158
-13.226
-13.2275
-13.2187
-13.1949
-13.1497
-12.3195
-12.2735
-12.2479
-12.2368
-12.236
-12.2441
-12.2599
-12.2815
-12.3074
-12.3361
-12.3665
-12.3977
-12.4289
-12.4596
-12.4896
-12.5184
-12.5461
-12.5726
-12.5979
-12.622
-12.6451
-12.6673
-12.6887
-12.7095
-12.7298
-12.7498
-12.7695
-12.7893
-12.8091
-12.8292
-12.8496
-12.8705
-12.8919
-12.914
-12.9368
-12.9603
-12.9843
-13.0088
-13.0335
-13.058
-13.0819
-13.1044
-13.1246
-13.1414
-13.1535
-13.1595
-13.1582
-13.1484
-13.1264
-13.0873
-12.3807
-12.3404
-12.3168
-12.3051
-12.3018
-12.306
-12.3169
-12.3331
-12.3533
-12.3764
-12.4014
-12.4276
-12.4543
-12.4809
-12.5071
-12.5327
-12.5574
-12.5813
-12.6043
-12.6264
-12.6476
-12.6681
-12.6879
-12.7072
-12.7261
-12.7446
-12.763
-12.7813
-12.7997
-12.8182
-12.837
-12.8561
-12.8756
-12.8957
-12.9161
-12.937
-12.9583
-12.9797
-13.001
-13.0218
-13.0418
-13.0601
-13.0762
-13.089
-13.0975
-13.1007
-13.0977
-13.0877
-13.0678
-13.034
-12.433
-12.3978
-12.3765
-12.3649
-12.3601
-12.3616
-12.3689
-12.3808
-12.3964
-12.4149
-12.4353
-12.4571
-12.4796
-12.5024
-12.5251
-12.5475
-12.5694
-12.5907
-12.6113
-12.6312
-12.6505
-12.6692
-12.6873
-12.705
-12.7223
-12.7393
-12.7562
-12.773
-12.7898
-12.8067
-12.8238
-12.8411
-12.8588
-12.8767
-12.895
-12.9135
-12.9321
-12.9507
-12.9691
-12.9868
-13.0034
-13.0185
-13.0312
-13.041
-13.047
-13.0483
-13.0444
-13.0348
-13.0171
-12.9879
-12.4783
-12.4478
-12.4287
-12.4176
-12.4121
-12.4119
-12.4164
-12.4251
-12.437
-12.4515
-12.4681
-12.4859
-12.5047
-12.524
-12.5434
-12.5628
-12.5819
-12.6006
-12.6189
-12.6366
-12.6539
-12.6707
-12.687
-12.703
-12.7186
-12.7341
-12.7493
-12.7645
-12.7797
-12.7949
-12.8103
-12.8258
-12.8416
-12.8575
-12.8737
-12.8899
-12.9062
-12.9223
-12.938
-12.953
-12.9669
-12.9793
-12.9895
-12.997
-13.0011
-13.0013
-12.997
-12.9881
-12.9726
-12.9476
-12.5178
-12.4916
-12.4748
-12.4646
-12.4589
-12.4575
-12.4601
-12.4662
-12.4752
-12.4865
-12.4996
-12.5141
-12.5296
-12.5456
-12.562
-12.5785
-12.5949
-12.6111
-12.627
-12.6426
-12.6578
-12.6726
-12.6871
-12.7013
-12.7152
-12.729
-12.7425
-12.7561
-12.7696
-12.7831
-12.7967
-12.8104
-12.8243
-12.8383
-12.8525
-12.8666
-12.8807
-12.8945
-12.9079
-12.9206
-12.9322
-12.9423
-12.9505
-12.9563
-12.9592
-12.9587
-12.9545
-12.9465
-12.9331
-12.9119
-12.5528
-12.5306
-12.516
-12.5068
-12.5012
-12.4992
-12.5004
-12.5046
-12.5111
-12.5198
-12.5301
-12.5416
-12.5541
-12.5672
-12.5808
-12.5946
-12.6084
-12.6221
-12.6357
-12.6491
-12.6622
-12.675
-12.6876
-12.7
-12.7121
-12.7241
-12.736
-12.7478
-12.7596
-12.7714
-12.7832
-12.7952
-12.8072
-12.8193
-12.8315
-12.8437
-12.8557
-12.8675
-12.8788
-12.8895
-12.8991
-12.9074
-12.914
-12.9186
-12.9206
-12.9198
-12.9159
-12.909
-12.8976
-12.88
-12.5841
-12.5655
-12.5532
-12.5452
-12.54
-12.5376
-12.5379
-12.5406
-12.5452
-12.5516
-12.5595
-12.5684
-12.5783
-12.5888
-12.5997
-12.6109
-12.6222
-12.6336
-12.6449
-12.6561
-12.6672
-12.678
-12.6887
-12.6992
-12.7095
-12.7197
-12.7298
-12.7399
-12.7499
-12.7599
-12.77
-12.7801
-12.7904
-12.8006
-12.8109
-12.8212
-12.8313
-12.8412
-12.8507
-12.8595
-12.8675
-12.8743
-12.8797
-12.8832
-12.8847
-12.8839
-12.8805
-12.8747
-12.8654
-12.8511
-12.6125
-12.5974
-12.5872
-12.5804
-12.5758
-12.5734
-12.573
-12.5745
-12.5777
-12.5822
-12.588
-12.5947
-12.6021
-12.6102
-12.6187
-12.6275
-12.6365
-12.6456
-12.6547
-12.6638
-12.6727
-12.6816
-12.6903
-12.6989
-12.7074
-12.7158
-12.7241
-12.7324
-12.7406
-12.7488
-12.7571
-12.7655
-12.7739
-12.7823
-12.7908
-12.7992
-12.8076
-12.8157
-12.8234
-12.8307
-12.8372
-12.8427
-12.847
-12.8499
-12.851
-12.8503
-12.8476
-12.843
-12.8357
-12.8245
-12.6386
-12.6268
-12.6187
-12.6131
-12.6092
-12.6069
-12.6062
-12.6069
-12.6088
-12.6118
-12.6157
-12.6204
-12.6257
-12.6316
-12.6378
-12.6444
-12.6511
-12.658
-12.665
-12.6719
-12.6789
-12.6857
-12.6925
-12.6992
-12.7058
-12.7124
-12.7189
-12.7253
-12.7318
-12.7382
-12.7447
-12.7512
-12.7578
-12.7644
-12.7711
-12.7777
-12.7843
-12.7908
-12.7969
-12.8027
-12.8079
-12.8123
-12.8157
-12.818
-12.819
-12.8186
-12.8167
-12.8133
-12.8079
-12.7996
-12.6631
-12.6543
-12.6483
-12.644
-12.6409
-12.6389
-12.6379
-12.6379
-12.6388
-12.6405
-12.6428
-12.6457
-12.6491
-12.6529
-12.6571
-12.6615
-12.6662
-12.6709
-12.6758
-12.6807
-12.6856
-12.6905
-12.6954
-12.7002
-12.7049
-12.7096
-12.7142
-12.7188
-12.7234
-12.7281
-12.7327
-12.7374
-12.7422
-12.747
-12.7519
-12.7568
-12.7616
-12.7664
-12.7711
-12.7754
-12.7793
-12.7828
-12.7855
-12.7874
-12.7883
-12.7882
-12.7871
-12.7849
-12.7814
-12.7761
-12.6864
-12.6805
-12.6764
-12.6735
-12.6712
-12.6695
-12.6685
-12.668
-12.6681
-12.6686
-12.6695
-12.6707
-12.6724
-12.6743
-12.6765
-12.6789
-12.6815
-12.6843
-12.6871
-12.69
-12.693
-12.6959
-12.6988
-12.7017
-12.7046
-12.7074
-12.7102
-12.7129
-12.7157
-12.7184
-12.7212
-12.7241
-12.727
-12.73
-12.7331
-12.7362
-12.7394
-12.7425
-12.7457
-12.7486
-12.7514
-12.7539
-12.7559
-12.7574
-12.7584
-12.7587
-12.7584
-12.7576
-12.7559
-12.7534
-12.7089
-12.7059
-12.7037
-12.7021
-12.7006
-12.6994
-12.6984
-12.6975
-12.6968
-12.6963
-12.6959
-12.6957
-12.6956
-12.6958
-12.6961
-12.6966
-12.6973
-12.6981
-12.6989
-12.6999
-12.7009
-12.7019
-12.7029
-12.7039
-12.7049
-12.7058
-12.7067
-12.7076
-12.7085
-12.7094
-12.7103
-12.7113
-12.7123
-12.7134
-12.7147
-12.716
-12.7174
-12.719
-12.7206
-12.7222
-12.7238
-12.7253
-12.7267
-12.7279
-12.7289
-12.7297
-12.7302
-12.7306
-12.7309
-12.7311
-12.7311
-12.7309
-12.7306
-12.7302
-12.7297
-12.7289
-12.7279
-12.7267
-12.7253
-12.7238
-12.7222
-12.7206
-12.719
-12.7174
-12.716
-12.7147
-12.7134
-12.7123
-12.7113
-12.7103
-12.7094
-12.7085
-12.7076
-12.7067
-12.7058
-12.7049
-12.7039
-12.7029
-12.7019
-12.7009
-12.6999
-12.6989
-12.6981
-12.6973
-12.6966
-12.6961
-12.6958
-12.6956
-12.6957
-12.6959
-12.6963
-12.6968
-12.6975
-12.6984
-12.6994
-12.7006
-12.7021
-12.7037
-12.7059
-12.7089
-12.7534
-12.7559
-12.7576
-12.7584
-12.7587
-12.7584
-12.7574
-12.7559
-12.7539
-12.7514
-12.7486
-12.7457
-12.7425
-12.7394
-12.7362
-12.7331
-12.73
-12.727
-12.7241
-12.7212
-12.7184
-12.7157
-12.7129
-12.7102
-12.7074
-12.7046
-12.7017
-12.6988
-12.6959
-12.693
-12.69
-12.6871
-12.6843
-12.6815
-12.6789
-12.6765
-12.6743
-12.6724
-12.6707
-12.6695
-12.6686
-12.6681
-12.668
-12.6685
-12.6695
-12.6712
-12.6735
-12.6764
-12.6805
-12.6864
-12.7761
-12.7814
-12.7849
-12.7871
-12.7882
-12.7883
-12.7874
-12.7855
-12.7828
-12.7793
-12.7754
-12.7711
-12.7664
-12.7616
-12.7568
-12.7519
-12.747
-12.7422
-12.7374
-12.7327
-12.7281
-12.7234
-12.7188
-12.7142
-12.7096
-12.7049
-12.7002
-12.6954
-12.6905
-12.6856
-12.6807
-12.6758
-12.6709
-12.6662
-12.6615
-12.6571
-12.6529
-12.6491
-12.6457
-12.6428
-12.6405
-12.6388
-12.6379
-12.6379
-12.6389
-12.6409
-12.644
-12.6483
-12.6543
-12.6631
-12.7996
-12.8079
-12.8133
-12.8167
-12.8186
-12.819
-12.818
-12.8157
-12.8123
-12.8079
-12.8027
-12.7969
-12.7908
-12.7843
-12.7777
-12.7711
-12.7644
-12.7578
-12.7512
-12.7447
-12.7382
-12.7318
-12.7253
-12.7189
-12.7124
-12.7058
-12.6992
-12.6925
-12.6857
-12.6789
-12.672
-12.665
-12.658
-12.6511
-12.6444
-12.6378
-12.6316
-12.6257
-12.6204
-12.6157
-12.6118
-12.6088
-12.6069
-12.6062
-12.6069
-12.6092
-12.6131
-12.6187
-12.6268
-12.6386
-12.8245
-12.8357
-12.843
-12.8476
-12.8503
-12.851
-12.8499
-12.847
-12.8427
-12.8372
-12.8307
-12.8234
-12.8157
-12.8076
-12.7992
-12.7908
-12.7823
-12.7739
-12.7655
-12.7571
-12.7488
-12.7406
-12.7324
-12.7241
-12.7158
-12.7074
-12.6989
-12.6903
-12.6816
-12.6727
-12.6638
-12.6547
-12.6456
-12.6365
-12.6275
-12.6187
-12.6102
-12.6021
-12.5947
-12.588
-12.5822
-12.5777
-12.5745
-12.573
-12.5734
-12.5758
-12.5804
-12.5872
-12.5974
-12.6125
-12.8511
-12.8654
-12.8747
-12.8805
-12.8839
-12.8847
-12.8832
-12.8797
-12.8743
-12.8675
-12.8595
-12.8507
-12.8412
-12.8313
-12.8212
-12.8109
-12.8006
-12.7904
-12.7801
-12.77
-12.7599
-12.7499
-12.7399
-12.7298
-12.7197
-12.7095
-12.6992
-12.6887
-12.678
-12.6672
-12.6561
-12.6449
-12.6336
-12.6222
-12.6109
-12.5997
-12.5888
-12.5783
-12.5684
-12.5595
-12.5517
-12.5452
-12.5406
-12.5379
-12.5376
-12.54
-12.5452
-12.5532
-12.5655
-12.5841
-12.88
-12.8976
-12.909
-12.9159
-12.9198
-12.9206
-12.9186
-12.914
-12.9074
-12.8991
-12.8895
-12.8788
-12.8675
-12.8557
-12.8437
-12.8315
-12.8193
-12.8072
-12.7952
-12.7832
-12.7714
-12.7596
-12.7478
-12.736
-12.7241
-12.7121
-12.7
-12.6876
-12.675
-12.6622
-12.6491
-12.6357
-12.6221
-12.6084
-12.5946
-12.5808
-12.5672
-12.5541
-12.5416
-12.5301
-12.5198
-12.5111
-12.5046
-12.5004
-12.4992
-12.5012
-12.5068
-12.516
-12.5306
-12.5528
-12.9119
-12.9331
-12.9465
-12.9545
-12.9587
-12.9592
-12.9563
-12.9505
-12.9423
-12.9322
-12.9206
-12.9079
-12.8945
-12.8807
-12.8666
-12.8525
-12.8383
-12.8243
-12.8104
-12.7967
-12.7831
-12.7696
-12.7561
-12.7425
-12.729
-12.7152
-12.7013
-12.6871
-12.6726
-12.6578
-12.6426
-12.627
-12.6111
-12.5949
-12.5785
-12.562
-12.5456
-12.5296
-12.5141
-12.4996
-12.4865
-12.4752
-12.4662
-12.4601
-12.4575
-12.4589
-12.4646
-12.4748
-12.4916
-12.5178
-12.9476
-12.9726
-12.9881
-12.997
-13.0013
-13.0011
-12.997
-12.9895
-12.9793
-12.9669
-12.953
-12.938
-12.9223
-12.9062
-12.8899
-12.8737
-12.8575
-12.8416
-12.8258
-12.8103
-12.7949
-12.7797
-12.7645
-12.7493
-12.7341
-12.7186
-12.703
-12.687
-12.6707
-12.6539
-12.6366
-12.6189
-12.6006
-12.5819
-12.5628
-12.5434
-12.524
-12.5047
-12.4859
-12.4681
-12.4515
-12.437
-12.4251
-12.4164
-12.4119
-12.4121
-12.4176
-12.4287
-12.4478
-12.4783
-12.9879
-13.0171
-13.0348
-13.0444
-13.0483
-13.047
-13.041
-13.0312
-13.0185
-13.0034
-12.9868
-12.9691
-12.9507
-12.9321
-12.9135
-12.895
-12.8767
-12.8588
-12.8411
-12.8238
-12.8067
-12.7898
-12.773
-12.7562
-12.7393
-12.7223
-12.705
-12.6873
-12.6692
-12.6505
-12.6312
-12.6113
-12.5907
-12.5694
-12.5475
-12.5251
-12.5024
-12.4796
-12.4571
-12.4353
-12.4149
-12.3964
-12.3808
-12.3689
-12.3616
-12.3601
-12.3649
-12.3765
-12.3978
-12.433
-13.034
-13.0678
-13.0877
-13.0977
-13.1007
-13.0975
-13.089
-13.0762
-13.0601
-13.0418
-13.0218
-13.001
-12.9797
-12.9583
-12.937
-12.9161
-12.8957
-12.8756
-12.8561
-12.837
-12.8182
-12.7997
-12.7813
-12.763
-12.7446
-12.7261
-12.7072
-12.6879
-12.6681
-12.6476
-12.6264
-12.6043
-12.5813
-12.5574
-12.5327
-12.5071
-12.4809
-12.4543
-12.4276
-12.4014
-12.3764
-12.3533
-12.3331
-12.3169
-12.306
-12.3018
-12.3051
-12.3168
-12.3404
-12.3807
-13.0873
-13.1264
-13.1484
-13.1582
-13.1595
-13.1535
-13.1414
-13.1246
-13.1044
-13.0819
-13.0581
-13.0335
-13.0088
-12.9843
-12.9603
-12.9368
-12.914
-12.8919
-12.8705
-12.8496
-12.8292
-12.8091
-12.7893
-12.7695
-12.7498
-12.7298
-12.7095
-12.6887
-12.6673
-12.6451
-12.622
-12.5979
-12.5726
-12.5461
-12.5184
-12.4896
-12.4596
-12.4289
-12.3977
-12.3665
-12.3361
-12.3074
-12.2815
-12.2599
-12.2441
-12.236
-12.2368
-12.2479
-12.2735
-12.3195
-13.1497
-13.1949
-13.2187
-13.2275
-13.226
-13.2158
-13.1987
-13.1766
-13.1512
-13.1236
-13.0951
-13.0663
-13.0377
-13.0098
-12.9827
-12.9566
-12.9315
-12.9073
-12.8839
-12.8613
-12.8393
-12.8178
-12.7966
-12.7756
-12.7546
-12.7333
-12.7117
-12.6896
-12.6667
-12.643
-12.6181
-12.592
-12.5645
-12.5355
-12.5049
-12.4727
-12.4389
-12.4037
-12.3675
-12.3307
-12.294
-12.2586
-12.2258
-12.1973
-12.175
-12.1613
-12.1583
-12.1676
-12.1949
-12.2473
-13.2238
-13.2758
-13.3012
-13.3076
-13.3014
-13.2852
-13.2613
-13.2323
-13.2002
-13.1666
-13.1324
-13.0987
-13.0659
-13.0342
-13.0039
-12.975
-12.9475
-12.9212
-12.896
-12.8718
-12.8483
-12.8255
-12.8031
-12.781
-12.7588
-12.7365
-12.7138
-12.6904
-12.6663
-12.6411
-12.6147
-12.5868
-12.5572
-12.5258
-12.4923
-12.4567
-12.4189
-12.379
-12.3373
-12.2943
-12.2505
-12.2073
-12.1659
-12.1286
-12.0977
-12.0763
-12.0672
-12.0732
-12.1016
-12.1612
-13.3129
-13.373
-13.399
-13.4008
-13.3874
-13.3625
-13.3294
-13.2915
-13.2511
-13.2099
-13.1693
-13.13
-13.0924
-13.0568
-13.0231
-12.9914
-12.9615
-12.9332
-12.9063
-12.8806
-12.8559
-12.832
-12.8085
-12.7854
-12.7623
-12.7391
-12.7154
-12.6911
-12.6659
-12.6395
-12.6117
-12.5822
-12.5507
-12.517
-12.4808
-12.4418
-12.4
-12.3553
-12.3078
-12.2578
-12.2061
-12.1535
-12.1019
-12.0534
-12.0112
-11.979
-11.961
-11.9611
-11.9894
-12.0571
-13.4219
-13.4915
-13.5163
-13.5102
-13.4857
-13.4484
-13.4029
-13.3534
-13.3027
-13.2527
-13.2046
-13.1591
-13.1164
-13.0766
-13.0395
-13.0051
-12.9729
-12.9428
-12.9144
-12.8874
-12.8617
-12.8368
-12.8126
-12.7887
-12.7649
-12.741
-12.7167
-12.6916
-12.6655
-12.6382
-12.6093
-12.5784
-12.5453
-12.5095
-12.4707
-12.4286
-12.3828
-12.3332
-12.2796
-12.2222
-12.1614
-12.0982
-12.0342
-11.9718
-11.9147
-11.8677
-11.8362
-11.8265
-11.8525
-11.9294
-13.5586
-13.6388
-13.6589
-13.6392
-13.5978
-13.5429
-13.4809
-13.4167
-13.3536
-13.2933
-13.2368
-13.1846
-13.1366
-13.0926
-13.0523
-13.0153
-12.9811
-12.9494
-12.9198
-12.8919
-12.8654
-12.8398
-12.8151
-12.7907
-12.7665
-12.7422
-12.7174
-12.6918
-12.6652
-12.6372
-12.6074
-12.5755
-12.5409
-12.5034
-12.4624
-12.4173
-12.3678
-12.3134
-12.2536
-12.1884
-12.1178
-12.0425
-11.9638
-11.8843
-11.8078
-11.7403
-11.6891
-11.6632
-11.6827
-11.7696
-13.7351
-13.826
-13.8344
-13.7918
-13.7248
-13.6454
-13.5617
-13.4793
-13.4013
-13.3294
-13.2639
-13.2047
-13.1515
-13.1036
-13.0604
-13.0212
-12.9855
-12.9526
-12.9222
-12.8937
-12.8667
-12.8409
-12.8159
-12.7914
-12.767
-12.7425
-12.7176
-12.6918
-12.6649
-12.6365
-12.6062
-12.5736
-12.5381
-12.4992
-12.4563
-12.4088
-12.3559
-12.297
-12.2312
-12.158
-12.0771
-11.9884
-11.8928
-11.7923
-11.691
-11.5955
-11.5151
-11.4629
-11.468
-11.5641
-13.9726
-14.0696
-14.0526
-13.9718
-13.8667
-13.7536
-13.6419
-13.5374
-13.4426
-13.3581
-13.2834
-13.2176
-13.1596
-13.1084
-13.0629
-13.0222
-12.9855
-12.952
-12.9212
-12.8926
-12.8656
-12.8399
-12.815
-12.7906
-12.7664
-12.7421
-12.7173
-12.6917
-12.6648
-12.6364
-12.606
-12.573
-12.537
-12.4972
-12.4531
-12.4037
-12.3481
-12.2852
-12.214
-12.1332
-12.0418
-11.9389
-11.8243
-11.699
-11.5663
-11.433
-11.31
-11.2151
-11.1907
-11.2901
-14.3098
-14.3949
-14.325
-14.1814
-14.0203
-13.8619
-13.7156
-13.5857
-13.4728
-13.3757
-13.2925
-13.221
-13.1593
-13.1058
-13.059
-13.0176
-12.9807
-12.9473
-12.9168
-12.8885
-12.862
-12.8368
-12.8124
-12.7886
-12.7649
-12.741
-12.7167
-12.6915
-12.6651
-12.637
-12.6068
-12.5741
-12.538
-12.4981
-12.4534
-12.4029
-12.3455
-12.2798
-12.2041
-12.1167
-12.0155
-11.8984
-11.7636
-11.6102
-11.4392
-11.2558
-11.0712
-10.9075
-10.8239
-10.9057
-14.8185
-14.8393
-14.6627
-14.4178
-14.1767
-13.96
-13.7733
-13.6164
-13.486
-13.3778
-13.2879
-13.2126
-13.149
-13.0948
-13.048
-13.0071
-12.9709
-12.9384
-12.9088
-12.8815
-12.856
-12.8317
-12.8082
-12.7853
-12.7625
-12.7395
-12.716
-12.6916
-12.6659
-12.6386
-12.6092
-12.5771
-12.5417
-12.5023
-12.4578
-12.4073
-12.3494
-12.2823
-12.2039
-12.1117
-12.0027
-11.873
-11.7186
-11.5352
-11.32
-11.073
-10.8016
-10.5282
-10.3287
-10.3355
-15.6291
-15.4525
-15.0731
-14.6712
-14.3202
-14.0329
-13.8029
-13.6205
-13.4758
-13.3603
-13.267
-13.1909
-13.1278
-13.0749
-13.0297
-12.9906
-12.9562
-12.9255
-12.8976
-12.8719
-12.8478
-12.8249
-12.8028
-12.7811
-12.7595
-12.7377
-12.7153
-12.692
-12.6675
-12.6414
-12.6132
-12.5824
-12.5483
-12.5101
-12.467
-12.4177
-12.3608
-12.2942
-12.2155
-12.1214
-12.0078
-11.8692
-11.6985
-11.4868
-11.2243
-10.9008
-10.5112
-10.0695
-9.65425
-9.44561
-17.0377
-16.2748
-15.5317
-14.9077
-14.4202
-14.0566
-13.788
-13.5878
-13.4363
-13.3197
-13.2283
-13.1553
-13.0958
-13.0464
-13.0047
-12.9688
-12.9373
-12.9092
-12.8837
-12.8601
-12.838
-12.8169
-12.7965
-12.7764
-12.7563
-12.7359
-12.7149
-12.6931
-12.6702
-12.6456
-12.6191
-12.59
-12.5579
-12.5219
-12.4812
-12.4345
-12.3802
-12.3164
-12.2404
-12.1485
-12.0355
-11.8944
-11.715
-11.4829
-11.1779
-10.7721
-10.2358
-9.55823
-8.76049
-7.93153
-19.8738
-17.2747
-15.8572
-14.9734
-14.3689
-13.9611
-13.6844
-13.4904
-13.3497
-13.2445
-13.1638
-13.1002
-13.0488
-13.0064
-12.9706
-12.9398
-12.9127
-12.8884
-12.8662
-12.8456
-12.8261
-12.8074
-12.7891
-12.771
-12.7528
-12.7343
-12.7153
-12.6954
-12.6744
-12.652
-12.6278
-12.6013
-12.5721
-12.5395
-12.5026
-12.4604
-12.4114
-12.3538
-12.2851
-12.2016
-12.0982
-11.9672
-11.7969
-11.5689
-11.2527
-10.7978
-10.1348
-9.1788
-7.67539
-4.95784
-24.7425
-18.3579
-15.6937
-14.598
-14.0048
-13.654
-13.4381
-13.2955
-13.1948
-13.1203
-13.0631
-13.0177
-12.9807
-12.9499
-12.9235
-12.9004
-12.8797
-12.8609
-12.8434
-12.8268
-12.8109
-12.7953
-12.78
-12.7646
-12.749
-12.733
-12.7165
-12.6992
-12.681
-12.6616
-12.6407
-12.618
-12.593
-12.5654
-12.5344
-12.4993
-12.459
-12.4122
-12.3569
-12.2906
-12.2093
-12.1075
-11.9755
-11.7969
-11.5396
-11.1398
-10.4806
-9.29035
-6.50951
9.57522e-06
)
;

boundaryField
{
    movingWallTop
    {
        type            zeroGradient;
    }
    movingWallBottom
    {
        type            zeroGradient;
    }
    fixedWalls
    {
        type            zeroGradient;
    }
    frontAndBack
    {
        type            empty;
    }
}


// ************************************************************************* //
