/*--------------------------------*- C++ -*----------------------------------*\
  =========                 |
  \\      /  F ield         | OpenFOAM: The Open Source CFD Toolbox
   \\    /   O peration     | Website:  https://openfoam.org
    \\  /    A nd           | Version:  7
     \\/     M anipulation  |
\*---------------------------------------------------------------------------*/
FoamFile
{
    version     2.0;
    format      ascii;
    class       surfaceScalarField;
    location    "0.0156";
    object      phi;
}
// * * * * * * * * * * * * * * * * * * * * * * * * * * * * * * * * * * * * * //

dimensions      [0 3 -1 0 0 0 0];

internalField   nonuniform List<scalar> 
4900
(
-5.55772e-06
5.55772e-06
-1.01633e-05
4.60562e-06
-1.29474e-05
2.78402e-06
-1.46603e-05
1.71295e-06
-1.57525e-05
1.09217e-06
-1.64785e-05
7.25991e-07
-1.69842e-05
5.05717e-07
-1.7352e-05
3.67819e-07
-1.76289e-05
2.76942e-07
-1.7843e-05
2.14013e-07
-1.80115e-05
1.68575e-07
-1.81462e-05
1.34638e-07
-1.82548e-05
1.08598e-07
-1.83429e-05
8.81725e-08
-1.84148e-05
7.18539e-08
-1.84734e-05
5.8602e-08
-1.85211e-05
4.76759e-08
-1.85596e-05
3.85311e-08
-1.85904e-05
3.07574e-08
-1.86144e-05
2.40374e-08
-1.86325e-05
1.81205e-08
-1.86453e-05
1.2803e-08
-1.86532e-05
7.91534e-09
-1.86566e-05
3.31168e-09
-1.86554e-05
-1.13892e-09
-1.86499e-05
-5.55723e-09
-1.86398e-05
-1.00631e-08
-1.8625e-05
-1.47786e-08
-1.86052e-05
-1.98353e-08
-1.85798e-05
-2.53812e-08
-1.85482e-05
-3.1588e-08
-1.85095e-05
-3.86621e-08
-1.84627e-05
-4.68579e-08
-1.84062e-05
-5.64963e-08
-1.83382e-05
-6.79924e-08
-1.82563e-05
-8.18964e-08
-1.81573e-05
-9.89577e-08
-1.80371e-05
-1.20228e-07
-1.78899e-05
-1.4724e-07
-1.77076e-05
-1.82314e-07
-1.74784e-05
-2.29128e-07
-1.71847e-05
-2.9378e-07
-1.67978e-05
-3.86837e-07
-1.62705e-05
-5.27287e-07
-1.5521e-05
-7.49502e-07
-1.44081e-05
-1.11296e-06
-1.26924e-05
-1.71569e-06
-9.95318e-06
-2.7392e-06
-5.45509e-06
-4.49809e-06
-5.45509e-06
-1.15565e-08
5.56928e-06
-2.12303e-06
6.71709e-06
-4.83443e-06
5.49542e-06
-7.22755e-06
4.10607e-06
-9.13424e-06
2.99885e-06
-1.06084e-05
2.20015e-06
-1.17445e-05
1.64183e-06
-1.26267e-05
1.25005e-06
-1.33196e-05
9.69754e-07
-1.38699e-05
7.64381e-07
-1.43116e-05
6.10284e-07
-1.46691e-05
4.9211e-07
-1.49602e-05
3.99714e-07
-1.51983e-05
3.26231e-07
-1.53933e-05
2.66886e-07
-1.5553e-05
2.18273e-07
-1.56832e-05
1.77901e-07
-1.57886e-05
1.43899e-07
-1.58727e-05
1.14838e-07
-1.59382e-05
8.95942e-08
-1.59874e-05
6.72721e-08
-1.60217e-05
4.71362e-08
-1.60423e-05
2.85687e-08
-1.60501e-05
1.10339e-08
-1.60453e-05
-5.94871e-09
-1.6028e-05
-2.28296e-08
-1.5998e-05
-4.00485e-08
-1.59547e-05
-5.80563e-08
-1.58972e-05
-7.73348e-08
-1.58242e-05
-9.84207e-08
-1.57338e-05
-1.21932e-07
-1.56239e-05
-1.48603e-07
-1.54914e-05
-1.79325e-07
-1.53327e-05
-2.15209e-07
-1.5143e-05
-2.57669e-07
-1.49164e-05
-3.08542e-07
-1.46451e-05
-3.7027e-07
-1.43191e-05
-4.46182e-07
-1.39255e-05
-5.4092e-07
-1.34466e-05
-6.61138e-07
-1.28591e-05
-8.16612e-07
-1.21309e-05
-1.02201e-06
-1.12181e-05
-1.29965e-06
-1.00619e-05
-1.68351e-06
-8.58769e-06
-2.2237e-06
-6.71532e-06
-2.98533e-06
-4.40579e-06
-4.02521e-06
-1.82894e-06
-5.31605e-06
1.19712e-07
-6.44674e-06
-5.33538e-06
1.03749e-06
4.53179e-06
5.69132e-07
7.18545e-06
-9.39902e-07
7.00446e-06
-2.79287e-06
5.95904e-06
-4.59745e-06
4.80343e-06
-6.19484e-06
3.79754e-06
-7.54737e-06
2.99437e-06
-8.66986e-06
2.37254e-06
-9.59433e-06
1.89422e-06
-1.03545e-05
1.52458e-06
-1.09804e-05
1.23611e-06
-1.14966e-05
1.00833e-06
-1.19231e-05
8.26252e-07
-1.22758e-05
6.78952e-07
-1.25673e-05
5.58379e-07
-1.28076e-05
4.58529e-07
-1.30045e-05
3.74853e-07
-1.31645e-05
3.03848e-07
-1.32924e-05
2.42768e-07
-1.33922e-05
1.89421e-07
-1.3467e-05
1.42028e-07
-1.3519e-05
9.9113e-08
-1.35498e-05
5.94203e-08
-1.35606e-05
2.18541e-08
-1.3552e-05
-1.45749e-08
-1.35241e-05
-5.07949e-08
-1.34764e-05
-8.77127e-08
-1.34082e-05
-1.26252e-07
-1.33181e-05
-1.67394e-07
-1.32043e-05
-2.12219e-07
-1.30643e-05
-2.61956e-07
-1.28949e-05
-3.18043e-07
-1.2692e-05
-3.822e-07
-1.24507e-05
-4.56527e-07
-1.21647e-05
-5.4364e-07
-1.18264e-05
-6.46851e-07
-1.14262e-05
-7.70425e-07
-1.09525e-05
-9.1995e-07
-1.03905e-05
-1.10285e-06
-9.72254e-06
-1.32914e-06
-8.92681e-06
-1.61234e-06
-7.97805e-06
-1.97077e-06
-6.84917e-06
-2.42853e-06
-5.51715e-06
-3.01553e-06
-3.97789e-06
-3.76296e-06
-2.27795e-06
-4.68527e-06
-5.75488e-07
-5.72768e-06
7.60548e-07
-6.65209e-06
1.08413e-06
-6.77032e-06
-4.25126e-06
9.15494e-07
3.61629e-06
1.26483e-06
6.83612e-06
7.23587e-07
7.5457e-06
-3.83715e-07
7.06634e-06
-1.72991e-06
6.14962e-06
-3.09913e-06
5.16675e-06
-4.37651e-06
4.27175e-06
-5.51457e-06
3.5106e-06
-6.50291e-06
2.88256e-06
-7.34894e-06
2.37062e-06
-8.06722e-06
1.95438e-06
-8.67399e-06
1.6151e-06
-9.18482e-06
1.33708e-06
-9.61353e-06
1.10766e-06
-9.97201e-06
9.16861e-07
-1.02703e-05
7.56786e-07
-1.05166e-05
6.21185e-07
-1.07178e-05
5.05071e-07
-1.08795e-05
4.04421e-07
-1.1006e-05
3.15947e-07
-1.11009e-05
2.36925e-07
-1.11668e-05
1.65059e-07
-1.12058e-05
9.83722e-08
-1.12191e-05
3.5121e-08
-1.12074e-05
-2.62788e-08
-1.11708e-05
-8.7316e-08
-1.11091e-05
-1.49443e-07
-1.10212e-05
-2.14133e-07
-1.09057e-05
-2.82932e-07
-1.07604e-05
-3.57527e-07
-1.05825e-05
-4.39802e-07
-1.03686e-05
-5.31925e-07
-1.01144e-05
-6.36434e-07
-9.81459e-06
-7.56357e-07
-9.46287e-06
-8.95354e-07
-9.05181e-06
-1.05791e-06
-8.57265e-06
-1.24959e-06
-8.01531e-06
-1.47729e-06
-7.36847e-06
-1.74969e-06
-6.62007e-06
-2.07754e-06
-5.75844e-06
-2.47397e-06
-4.77491e-06
-2.95429e-06
-3.66899e-06
-3.53445e-06
-2.45808e-06
-4.22644e-06
-1.19439e-06
-5.02665e-06
9.84669e-09
-5.8895e-06
9.56179e-07
-6.67401e-06
1.35117e-06
-7.04707e-06
9.15823e-07
-6.33498e-06
-3.33543e-06
6.84687e-07
2.93161e-06
1.29206e-06
6.22874e-06
1.3279e-06
7.50986e-06
8.30809e-07
7.56344e-06
-1.43004e-08
6.99473e-06
-1.02732e-06
6.17978e-06
-2.07898e-06
5.32341e-06
-3.09055e-06
4.52217e-06
-4.02112e-06
3.81313e-06
-4.85384e-06
3.20333e-06
-5.58576e-06
2.68631e-06
-6.2213e-06
2.25064e-06
-6.76823e-06
1.884e-06
-7.23543e-06
1.57487e-06
-7.63176e-06
1.31319e-06
-7.96539e-06
1.09042e-06
-8.24359e-06
8.99379e-07
-8.47261e-06
7.34099e-07
-8.65777e-06
5.89574e-07
-8.80342e-06
4.61599e-07
-8.9131e-06
3.46601e-07
-8.98955e-06
2.41511e-07
-9.03482e-06
1.43645e-07
-9.05031e-06
5.06089e-08
-9.0368e-06
-3.97892e-08
-8.9945e-06
-1.29615e-07
-8.92306e-06
-2.2088e-07
-8.82158e-06
-3.1561e-07
-8.6886e-06
-4.15914e-07
-8.52208e-06
-5.24051e-07
-8.31937e-06
-6.42508e-07
-8.07722e-06
-7.74078e-07
-7.7917e-06
-9.21953e-07
-7.45823e-06
-1.08983e-06
-7.07156e-06
-1.28202e-06
-6.62588e-06
-1.5036e-06
-6.11493e-06
-1.76053e-06
-5.53244e-06
-2.05979e-06
-4.87275e-06
-2.40938e-06
-4.13207e-06
-2.81822e-06
-3.31064e-06
-3.2954e-06
-2.41631e-06
-3.84863e-06
-1.4702e-06
-4.48056e-06
-5.15168e-07
-5.18146e-06
3.73321e-07
-5.91514e-06
1.0776e-06
-6.59378e-06
1.44063e-06
-7.03704e-06
1.30893e-06
-6.91537e-06
6.68398e-07
-5.69445e-06
-2.66704e-06
4.96044e-07
2.43556e-06
1.13398e-06
5.5908e-06
1.46478e-06
7.17906e-06
1.38518e-06
7.64304e-06
9.59971e-07
7.41994e-06
3.0457e-07
6.83518e-06
-4.71947e-07
6.09992e-06
-1.28728e-06
5.33751e-06
-2.08684e-06
4.61269e-06
-2.83817e-06
3.95466e-06
-3.52444e-06
3.37257e-06
-4.13891e-06
2.86512e-06
-4.68101e-06
2.4261e-06
-5.1536e-06
2.04745e-06
-5.56124e-06
1.72084e-06
-5.90917e-06
1.43835e-06
-6.20264e-06
1.19285e-06
-6.44657e-06
9.7803e-07
-6.64537e-06
7.88373e-07
-6.80284e-06
6.19068e-07
-6.92215e-06
4.65911e-07
-7.00585e-06
3.25206e-07
-7.05587e-06
1.93663e-07
-7.07356e-06
6.83063e-08
-7.05974e-06
-5.36109e-08
-7.01467e-06
-1.74686e-07
-6.93811e-06
-2.97445e-07
-6.8293e-06
-4.24415e-07
-6.68702e-06
-5.58192e-07
-6.50956e-06
-7.01517e-07
-6.29472e-06
-8.57342e-07
-6.0399e-06
-1.0289e-06
-5.74208e-06
-1.21978e-06
-5.39793e-06
-1.43398e-06
-5.00396e-06
-1.67598e-06
-4.55678e-06
-1.95078e-06
-4.05345e-06
-2.26385e-06
-3.4922e-06
-2.62104e-06
-2.87338e-06
-3.02821e-06
-2.20105e-06
-3.49055e-06
-1.48528e-06
-4.01117e-06
-7.45428e-07
-4.58848e-06
-1.44688e-08
-5.21152e-06
6.5615e-07
-5.85208e-06
1.19284e-06
-6.45183e-06
1.50234e-06
-6.90328e-06
1.49024e-06
-7.02495e-06
1.1117e-06
-6.53682e-06
4.74684e-07
-5.05744e-06
-2.19235e-06
3.65454e-07
2.07011e-06
9.5504e-07
5.00122e-06
1.41376e-06
6.72034e-06
1.59096e-06
7.46584e-06
1.47578e-06
7.53512e-06
1.12493e-06
7.18602e-06
6.14348e-07
6.61051e-06
1.40696e-08
5.93779e-06
-6.20992e-07
5.24775e-06
-1.25203e-06
4.58569e-06
-1.85384e-06
3.97438e-06
-2.41153e-06
3.42281e-06
-2.91744e-06
2.93201e-06
-3.36868e-06
2.49869e-06
-3.76537e-06
2.11752e-06
-4.10935e-06
1.78233e-06
-4.40338e-06
1.48688e-06
-4.65056e-06
1.22521e-06
-4.85398e-06
9.91793e-07
-5.01651e-06
7.81598e-07
-5.14068e-06
5.90077e-07
-5.22859e-06
4.1312e-07
-5.28192e-06
2.46991e-07
-5.30187e-06
8.82601e-08
-5.28922e-06
-6.62695e-08
-5.24427e-06
-2.19635e-07
-5.16693e-06
-3.74785e-07
-5.05669e-06
-5.34648e-07
-4.91269e-06
-7.02196e-07
-4.7337e-06
-8.80509e-07
-4.51821e-06
-1.07283e-06
-4.26451e-06
-1.2826e-06
-3.97078e-06
-1.51351e-06
-3.63524e-06
-1.76952e-06
-3.25645e-06
-2.05477e-06
-2.83362e-06
-2.37361e-06
-2.36718e-06
-2.7303e-06
-1.85949e-06
-3.12872e-06
-1.31599e-06
-3.57171e-06
-7.46564e-07
-4.05997e-06
-1.67539e-07
-4.5902e-06
3.96099e-07
-5.15212e-06
9.0838e-07
-5.72381e-06
1.32097e-06
-6.26468e-06
1.57485e-06
-6.70571e-06
1.60891e-06
-6.93733e-06
1.38155e-06
-6.79759e-06
9.12093e-07
-6.06737e-06
3.4338e-07
-4.48872e-06
-1.84897e-06
2.78991e-07
1.79112e-06
8.00499e-07
4.47971e-06
1.29805e-06
6.22279e-06
1.62002e-06
7.14387e-06
1.71666e-06
7.43849e-06
1.60206e-06
7.30062e-06
1.32036e-06
6.89221e-06
9.23243e-07
6.3349e-06
4.58028e-07
5.71297e-06
-3.71277e-08
5.08085e-06
-5.33941e-07
4.4712e-06
-1.01285e-06
3.90172e-06
-1.46124e-06
3.38039e-06
-1.87163e-06
2.90909e-06
-2.24022e-06
2.48611e-06
-2.56564e-06
2.10774e-06
-2.84806e-06
1.76931e-06
-3.0886e-06
1.46575e-06
-3.28882e-06
1.19202e-06
-3.45047e-06
9.43243e-07
-3.57523e-06
7.14837e-07
-3.66463e-06
5.02519e-07
-3.71994e-06
3.02305e-07
-3.74215e-06
1.10473e-07
-3.73194e-06
-7.64868e-08
-3.68965e-06
-2.61925e-07
-3.61534e-06
-4.49089e-07
-3.50881e-06
-6.41184e-07
-3.36959e-06
-8.41418e-07
-3.19705e-06
-1.05305e-06
-2.99046e-06
-1.27942e-06
-2.7491e-06
-1.52396e-06
-2.47242e-06
-1.79019e-06
-2.16025e-06
-2.08168e-06
-1.81312e-06
-2.40191e-06
-1.43263e-06
-2.7541e-06
-1.02205e-06
-3.14088e-06
-5.87015e-07
-3.56376e-06
-1.36451e-07
-4.02228e-06
3.16279e-07
-4.5127e-06
7.52144e-07
-5.02606e-06
1.14531e-06
-5.54529e-06
1.46265e-06
-6.04114e-06
1.66482e-06
-6.46684e-06
1.71071e-06
-6.7516e-06
1.5676e-06
-6.79422e-06
1.22982e-06
-6.45982e-06
7.471e-07
-5.58464e-06
2.5745e-07
-3.99907e-06
-1.59152e-06
2.20825e-07
1.57029e-06
6.76065e-07
4.02447e-06
1.16836e-06
5.7305e-06
1.56319e-06
6.74903e-06
1.79552e-06
7.20616e-06
1.85284e-06
7.24331e-06
1.75415e-06
6.99089e-06
1.53289e-06
6.55616e-06
1.22552e-06
6.02034e-06
8.65316e-07
5.44105e-06
4.7975e-07
4.85677e-06
8.99272e-08
4.29155e-06
-2.88821e-07
3.75914e-06
-6.45951e-07
3.26622e-06
-9.74635e-07
2.81479e-06
-1.2708e-06
2.40391e-06
-1.53232e-06
2.03083e-06
-1.75839e-06
1.69182e-06
-1.94906e-06
1.38269e-06
-2.10487e-06
1.09905e-06
-2.2266e-06
8.36563e-07
-2.3151e-06
5.91021e-07
-2.37119e-06
3.58396e-07
-2.39557e-06
1.34848e-07
-2.38877e-06
-8.32864e-08
-2.35116e-06
-2.99529e-07
-2.28296e-06
-5.17292e-07
-2.18423e-06
-7.39914e-07
-2.05495e-06
-9.70694e-07
-1.89509e-06
-1.21291e-06
-1.70469e-06
-1.46982e-06
-1.484e-06
-1.74465e-06
-1.23367e-06
-2.04053e-06
-9.54963e-07
-2.36038e-06
-6.50096e-07
-2.70677e-06
-3.22601e-07
-3.08159e-06
2.21633e-08
-3.48564e-06
3.76418e-07
-3.91802e-06
7.29287e-07
-4.37515e-06
1.0661e-06
-4.84951e-06
1.3678e-06
-5.32776e-06
1.61081e-06
-5.7883e-06
1.76776e-06
-6.19808e-06
1.8099e-06
-6.50899e-06
1.71242e-06
-6.65412e-06
1.46362e-06
-6.54542e-06
1.07885e-06
-6.07505e-06
6.17936e-07
-5.12373e-06
2.00189e-07
-3.58133e-06
-1.39133e-06
1.80101e-07
1.39019e-06
5.76944e-07
3.62763e-06
1.04358e-06
5.26386e-06
1.46701e-06
6.32561e-06
1.78003e-06
6.89313e-06
1.95565e-06
7.06769e-06
1.99534e-06
6.95121e-06
1.91717e-06
6.63433e-06
1.74655e-06
6.19096e-06
1.51003e-06
5.67757e-06
1.23185e-06
5.13495e-06
9.32371e-07
4.59103e-06
6.27707e-07
4.06381e-06
3.30025e-07
3.5639e-06
4.81132e-08
3.09671e-06
-2.11953e-07
2.66397e-06
-4.46185e-07
2.26506e-06
-6.5214e-07
1.89778e-06
-8.28473e-07
1.55902e-06
-9.74585e-07
1.24516e-06
-1.09036e-06
9.52342e-07
-1.17598e-06
6.76641e-07
-1.23177e-06
4.14179e-07
-1.25809e-06
1.61174e-07
-1.25534e-06
-8.60392e-08
-1.22386e-06
-3.31006e-07
-1.16399e-06
-5.77162e-07
-1.07606e-06
-8.27846e-07
-9.60449e-07
-1.08631e-06
-8.17665e-07
-1.35569e-06
-6.48448e-07
-1.63904e-06
-4.53905e-07
-1.93919e-06
-2.35697e-07
-2.25874e-06
3.74069e-09
-2.59982e-06
2.60912e-07
-2.96395e-06
5.30928e-07
-3.35161e-06
8.07113e-07
-3.76183e-06
1.08059e-06
-4.19149e-06
1.33986e-06
-4.63442e-06
1.57053e-06
-5.08018e-06
1.75526e-06
-5.51249e-06
1.87425e-06
-5.9073e-06
1.90674e-06
-6.23057e-06
1.83382e-06
-6.43607e-06
1.64344e-06
-6.46374e-06
1.33777e-06
-6.23974e-06
9.42653e-07
-5.67993e-06
5.17462e-07
-4.69854e-06
1.60537e-07
-3.2244e-06
-1.2308e-06
1.50212e-07
1.23998e-06
4.96975e-07
3.28087e-06
9.29388e-07
4.83145e-06
1.35476e-06
5.90023e-06
1.71014e-06
6.53775e-06
1.96215e-06
6.81568e-06
2.10113e-06
6.81223e-06
2.13357e-06
6.60188e-06
2.07518e-06
6.24936e-06
1.94551e-06
5.80724e-06
1.76445e-06
5.316e-06
1.55019e-06
4.80529e-06
1.31821e-06
4.29578e-06
1.08108e-06
3.80104e-06
8.48565e-07
3.32922e-06
6.28007e-07
2.88453e-06
4.24733e-07
2.46833e-06
2.42464e-07
2.08005e-06
8.37003e-08
1.71778e-06
-4.99744e-08
1.37884e-06
-1.57633e-07
1.06e-06
-2.38807e-07
7.57815e-07
-2.93344e-07
4.68716e-07
-3.21302e-07
1.89131e-07
-3.22881e-07
-8.44599e-08
-2.98394e-07
-3.55492e-07
-2.48258e-07
-6.27298e-07
-1.73016e-07
-9.03088e-07
-7.33851e-08
-1.18594e-06
4.96722e-08
-1.47875e-06
1.94844e-07
-1.78421e-06
3.6034e-07
-2.10469e-06
5.43723e-07
-2.44212e-06
7.41711e-07
-2.79781e-06
9.49949e-07
-3.17218e-06
1.16275e-06
-3.5644e-06
1.37281e-06
-3.97189e-06
1.57101e-06
-4.38969e-06
1.7462e-06
-4.80961e-06
1.88526e-06
-5.21924e-06
1.97342e-06
-5.60065e-06
1.99516e-06
-5.92904e-06
1.9359e-06
-6.17131e-06
1.7848e-06
-6.28497e-06
1.5389e-06
-6.21785e-06
1.20859e-06
-5.90943e-06
8.2364e-07
-5.29498e-06
4.38232e-07
-4.31313e-06
1.31829e-07
-2.918e-06
-1.09897e-06
1.27239e-07
1.11274e-06
4.31034e-07
2.97707e-06
8.26354e-07
4.43613e-06
1.23786e-06
5.48873e-06
1.60942e-06
6.16619e-06
1.90619e-06
6.51891e-06
2.1122e-06
6.60622e-06
2.22588e-06
6.4882e-06
2.25519e-06
6.22005e-06
2.21336e-06
5.84907e-06
2.11571e-06
5.41365e-06
1.97752e-06
4.94349e-06
1.81274e-06
4.46056e-06
1.63344e-06
3.98034e-06
1.44956e-06
3.5131e-06
1.26906e-06
3.06504e-06
1.09805e-06
2.63934e-06
9.41161e-07
2.23694e-06
8.01752e-07
1.85719e-06
6.82198e-07
1.49839e-06
5.84111e-07
1.15809e-06
5.08516e-07
8.3341e-07
4.55997e-07
5.21235e-07
4.26802e-07
2.18326e-07
4.20911e-07
-7.85692e-08
4.38078e-07
-3.72659e-07
4.7784e-07
-6.67059e-07
5.39501e-07
-9.64749e-07
6.22095e-07
-1.26853e-06
7.24313e-07
-1.58097e-06
8.44422e-07
-1.90432e-06
9.80139e-07
-2.2404e-06
1.1285e-06
-2.59048e-06
1.2857e-06
-2.95501e-06
1.4469e-06
-3.33339e-06
1.60611e-06
-3.72361e-06
1.75596e-06
-4.12174e-06
1.88768e-06
-4.5214e-06
1.99108e-06
-4.91302e-06
2.05484e-06
-5.283e-06
2.06704e-06
-5.61285e-06
2.01619e-06
-5.87819e-06
1.89295e-06
-6.04807e-06
1.69253e-06
-6.08455e-06
1.41797e-06
-5.94329e-06
1.08391e-06
-5.57537e-06
7.20234e-07
-4.93131e-06
3.74368e-07
-3.96726e-06
1.10112e-07
-2.65374e-06
-9.88855e-07
1.08842e-07
1.0039e-06
3.75365e-07
2.71055e-06
7.33383e-07
4.07811e-06
1.12177e-06
5.10034e-06
1.49184e-06
5.79613e-06
1.81001e-06
6.20074e-06
2.05736e-06
6.35887e-06
2.22716e-06
6.31841e-06
2.32158e-06
6.12562e-06
2.3486e-06
5.82205e-06
2.31929e-06
5.44296e-06
2.24585e-06
5.01694e-06
2.14024e-06
4.56617e-06
2.01342e-06
4.10715e-06
1.87494e-06
3.65157e-06
1.73279e-06
3.20719e-06
1.59345e-06
2.77868e-06
1.46205e-06
2.36834e-06
1.34252e-06
1.97672e-06
1.23782e-06
1.60309e-06
1.15008e-06
1.24582e-06
1.08079e-06
9.02707e-07
1.03088e-06
5.71142e-07
1.00088e-06
2.48326e-07
9.90944e-07
-6.86329e-08
1.00091e-06
-3.82622e-07
1.0303e-06
-6.96452e-07
1.07834e-06
-1.01279e-06
1.14389e-06
-1.33408e-06
1.22543e-06
-1.66251e-06
1.32094e-06
-1.99983e-06
1.42784e-06
-2.34731e-06
1.54288e-06
-2.70552e-06
1.66201e-06
-3.07413e-06
1.78025e-06
-3.45164e-06
1.89166e-06
-3.83501e-06
1.9892e-06
-4.21929e-06
2.06484e-06
-4.59705e-06
2.1097e-06
-4.95787e-06
2.11438e-06
-5.28768e-06
2.06969e-06
-5.56816e-06
1.96766e-06
-5.77616e-06
1.80302e-06
-5.88343e-06
1.57526e-06
-5.85679e-06
1.29098e-06
-5.65902e-06
9.66507e-07
-5.25089e-06
6.29875e-07
-4.59468e-06
3.2163e-07
-3.65902e-06
9.30142e-08
-2.42513e-06
-8.95841e-07
9.36014e-08
9.10296e-07
3.27342e-07
2.47681e-06
6.49046e-07
3.7564e-06
1.00907e-06
4.74032e-06
1.36581e-06
5.43938e-06
1.68842e-06
5.87813e-06
1.95717e-06
6.09012e-06
2.16232e-06
6.11326e-06
2.30206e-06
5.98588e-06
2.38026e-06
5.74385e-06
2.40432e-06
5.41889e-06
2.38354e-06
5.03772e-06
2.32774e-06
4.62197e-06
2.24647e-06
4.18842e-06
2.14847e-06
3.74958e-06
2.04136e-06
3.31429e-06
1.93163e-06
2.88842e-06
1.82456e-06
2.47541e-06
1.72441e-06
2.07687e-06
1.63449e-06
1.69301e-06
1.55729e-06
1.32302e-06
1.49464e-06
9.65365e-07
1.44775e-06
6.18028e-07
1.41738e-06
2.78697e-07
1.40384e-06
-5.50919e-08
1.40705e-06
-3.85839e-07
1.42659e-06
-7.15986e-07
1.46163e-06
-1.04783e-06
1.51096e-06
-1.38342e-06
1.57295e-06
-1.72449e-06
1.64544e-06
-2.07232e-06
1.72573e-06
-2.4276e-06
1.81047e-06
-2.79026e-06
1.8956e-06
-3.15926e-06
1.97627e-06
-3.53231e-06
2.04684e-06
-3.90558e-06
2.10088e-06
-4.27332e-06
2.13129e-06
-4.62746e-06
2.13056e-06
-4.95715e-06
2.09122e-06
-5.24834e-06
2.00645e-06
-5.48339e-06
1.87109e-06
-5.6408e-06
1.68293e-06
-5.69526e-06
1.44422e-06
-5.61808e-06
1.16345e-06
-5.37825e-06
8.56976e-07
-4.94442e-06
5.50109e-07
-4.28781e-06
2.77054e-07
-3.38596e-06
7.90828e-08
-2.22716e-06
-8.16758e-07
8.06302e-08
8.29666e-07
2.85154e-07
2.27228e-06
5.7204e-07
3.46952e-06
9.00887e-07
4.41147e-06
1.23654e-06
5.10373e-06
1.55142e-06
5.56325e-06
1.82635e-06
5.81518e-06
2.05018e-06
5.88944e-06
2.2185e-06
5.81756e-06
2.33215e-06
5.6302e-06
2.39562e-06
5.35542e-06
2.41559e-06
5.01775e-06
2.39985e-06
4.63771e-06
2.35642e-06
4.23185e-06
2.293e-06
3.813e-06
2.2166e-06
3.39069e-06
2.13339e-06
2.97163e-06
2.04859e-06
2.56021e-06
1.96652e-06
2.15894e-06
1.89065e-06
1.76888e-06
1.82369e-06
1.38998e-06
1.76768e-06
1.02138e-06
1.72404e-06
6.61667e-07
1.69369e-06
3.09042e-07
1.67709e-06
-3.8492e-08
1.67426e-06
-3.83008e-07
1.68482e-06
-7.26539e-07
1.70796e-06
-1.07097e-06
1.74249e-06
-1.41795e-06
1.78673e-06
-1.76874e-06
1.83854e-06
-2.12413e-06
1.89523e-06
-2.48429e-06
1.95351e-06
-2.84855e-06
2.00949e-06
-3.21524e-06
2.05863e-06
-3.58145e-06
2.09577e-06
-3.94271e-06
2.1152e-06
-4.29275e-06
2.11085e-06
-4.62311e-06
2.07656e-06
-4.92286e-06
2.00652e-06
-5.17831e-06
1.89593e-06
-5.3728e-06
1.74179e-06
-5.48666e-06
1.54397e-06
-5.49744e-06
1.30638e-06
-5.38049e-06
1.03823e-06
-5.1101e-06
7.54982e-07
-4.66117e-06
4.78891e-07
-4.01172e-06
2.38584e-07
-3.14565e-06
6.74012e-08
-2.05597e-06
-7.49357e-07
6.93575e-08
7.60308e-07
2.47551e-07
2.09409e-06
5.01308e-07
3.21576e-06
7.97713e-07
4.11506e-06
1.10727e-06
4.79418e-06
1.40583e-06
5.26469e-06
1.67556e-06
5.54545e-06
1.90493e-06
5.66007e-06
2.08805e-06
5.63443e-06
2.22369e-06
5.49456e-06
2.31405e-06
5.26506e-06
2.36368e-06
4.96812e-06
2.3785e-06
4.62289e-06
2.36506e-06
4.2453e-06
2.32992e-06
3.84814e-06
2.27933e-06
3.44128e-06
2.21894e-06
3.03202e-06
2.15371e-06
2.62544e-06
2.08785e-06
2.2248e-06
2.02483e-06
1.8319e-06
1.96742e-06
1.44738e-06
1.91777e-06
1.07103e-06
1.87744e-06
7.02001e-07
1.84745e-06
3.39025e-07
1.82838e-06
-1.94201e-08
1.82034e-06
-3.74963e-07
1.82301e-06
-7.29212e-07
1.83567e-06
-1.08364e-06
1.85717e-06
-1.43945e-06
1.88592e-06
-1.79748e-06
1.91983e-06
-2.15805e-06
1.95636e-06
-2.52081e-06
1.99242e-06
-2.88461e-06
2.0244e-06
-3.24723e-06
2.04819e-06
-3.60524e-06
2.0592e-06
-3.95373e-06
2.05251e-06
-4.28606e-06
2.02304e-06
-4.59364e-06
1.96586e-06
-4.86568e-06
1.8766e-06
-5.08904e-06
1.752e-06
-5.2482e-06
1.59065e-06
-5.3253e-06
1.39376e-06
-5.30055e-06
1.16609e-06
-5.15283e-06
9.16768e-07
-4.86077e-06
6.59871e-07
-4.40428e-06
4.14609e-07
-3.76646e-06
2.04781e-07
-2.93583e-06
5.73721e-08
-1.90856e-06
-6.91985e-07
5.94029e-08
7.00905e-07
2.13652e-07
1.93984e-06
4.36014e-07
2.9934e-06
6.99683e-07
3.85139e-06
9.80074e-07
4.51379e-06
1.25639e-06
4.98837e-06
1.51253e-06
5.28931e-06
1.7373e-06
5.4353e-06
1.92417e-06
5.44757e-06
2.07053e-06
5.34819e-06
2.17696e-06
5.15864e-06
2.24629e-06
4.89879e-06
2.28286e-06
4.58632e-06
2.29184e-06
4.23632e-06
2.2787e-06
3.86128e-06
2.24883e-06
3.47115e-06
2.20727e-06
3.07357e-06
2.15858e-06
2.67413e-06
2.1067e-06
2.27667e-06
2.05499e-06
1.88361e-06
2.00617e-06
1.4962e-06
1.96239e-06
1.11481e-06
1.92527e-06
7.39127e-07
1.8959e-06
3.68391e-07
1.87493e-06
1.54925e-09
1.86256e-06
-3.62591e-07
1.85856e-06
-7.25217e-07
1.86231e-06
-1.08738e-06
1.87275e-06
-1.44989e-06
1.88842e-06
-1.81314e-06
1.90741e-06
-2.17704e-06
1.92738e-06
-2.54078e-06
1.94553e-06
-2.90275e-06
1.95861e-06
-3.26031e-06
1.96301e-06
-3.60963e-06
1.95476e-06
-3.94547e-06
1.92969e-06
-4.261e-06
1.88367e-06
-4.54761e-06
1.8128e-06
-4.79481e-06
1.7139e-06
-4.99014e-06
1.58487e-06
-5.11918e-06
1.42539e-06
-5.16582e-06
1.23743e-06
-5.1126e-06
1.02601e-06
-4.94141e-06
7.99688e-07
-4.63444e-06
5.70909e-07
-4.1755e-06
3.56002e-07
-3.55155e-06
1.7462e-07
-2.75444e-06
4.85924e-08
-1.78254e-06
-6.43393e-07
5.05026e-08
6.50403e-07
1.82823e-07
1.80752e-06
3.75492e-07
2.80073e-06
6.0675e-07
3.62014e-06
8.56258e-07
4.26428e-06
1.10635e-06
4.73828e-06
1.34284e-06
5.05282e-06
1.55536e-06
5.22278e-06
1.73723e-06
5.26569e-06
1.88515e-06
5.20028e-06
1.99852e-06
5.04526e-06
2.07891e-06
4.81841e-06
2.12934e-06
4.53588e-06
2.15378e-06
4.21187e-06
2.15668e-06
3.85838e-06
2.14256e-06
3.48527e-06
2.11581e-06
3.10032e-06
2.0805e-06
2.70945e-06
2.04022e-06
2.31695e-06
1.99809e-06
1.92574e-06
1.9567e-06
1.53759e-06
1.91814e-06
1.15337e-06
1.884e-06
7.73263e-07
1.85542e-06
3.96976e-07
1.83308e-06
2.38924e-08
1.81725e-06
-3.46762e-07
1.8078e-06
-7.15773e-07
1.80422e-06
-1.08381e-06
1.8056e-06
-1.45127e-06
1.81065e-06
-1.81819e-06
1.81767e-06
-2.18406e-06
1.82459e-06
-2.5477e-06
1.82896e-06
-2.90712e-06
1.82796e-06
-3.25931e-06
1.81846e-06
-3.60014e-06
1.79713e-06
-3.92414e-06
1.76053e-06
-4.2244e-06
1.70533e-06
-4.49241e-06
1.62854e-06
-4.71802e-06
1.52785e-06
-4.88945e-06
1.40205e-06
-4.99338e-06
1.25145e-06
-5.01522e-06
1.07839e-06
-4.93954e-06
8.87725e-07
-4.75074e-06
6.87135e-07
-4.43386e-06
4.87365e-07
-3.97573e-06
3.02074e-07
-3.36626e-06
1.47349e-07
-2.59972e-06
4.07789e-08
-1.67597e-06
-6.02614e-07
4.24644e-08
6.07939e-07
1.54579e-07
1.69541e-06
3.19189e-07
2.63612e-06
5.18739e-07
3.42059e-06
7.36572e-07
4.04645e-06
9.57899e-07
4.51695e-06
1.1705e-06
4.84022e-06
1.36506e-06
5.02822e-06
1.53522e-06
5.09553e-06
1.67735e-06
5.05815e-06
1.79018e-06
4.93243e-06
1.87431e-06
4.73427e-06
1.93176e-06
4.47844e-06
1.96547e-06
4.17816e-06
1.97896e-06
3.8449e-06
1.97595e-06
3.48828e-06
1.96017e-06
3.1161e-06
1.93513e-06
2.73449e-06
1.90403e-06
2.34805e-06
1.86969e-06
1.96009e-06
1.83449e-06
1.57279e-06
1.8004e-06
1.18746e-06
1.76893e-06
8.04727e-07
1.74121e-06
4.247e-07
1.71794e-06
4.7164e-08
1.69945e-06
-3.28274e-07
1.68571e-06
-7.02033e-07
1.67633e-06
-1.07442e-06
1.67055e-06
-1.4455e-06
1.6673e-06
-1.81494e-06
1.66513e-06
-2.18189e-06
1.66228e-06
-2.54485e-06
1.65666e-06
-2.9015e-06
1.64591e-06
-3.24855e-06
1.6274e-06
-3.58164e-06
1.59841e-06
-3.89514e-06
1.55614e-06
-4.18213e-06
1.49796e-06
-4.43423e-06
1.42162e-06
-4.64168e-06
1.32549e-06
-4.79332e-06
1.20891e-06
-4.8768e-06
1.07256e-06
-4.87887e-06
9.18807e-07
-4.78579e-06
7.52047e-07
-4.58398e-06
5.78947e-07
-4.26075e-06
4.08526e-07
-3.80531e-06
2.52007e-07
-3.20974e-06
1.2239e-07
-2.4701e-06
3.37235e-08
-1.5873e-06
-5.6889e-07
3.51406e-08
5.72798e-07
1.28533e-07
1.60201e-06
2.6661e-07
2.49804e-06
4.35373e-07
3.25182e-06
6.21361e-07
3.86046e-06
8.12412e-07
4.3259e-06
9.9823e-07
4.6544e-06
1.17072e-06
4.85573e-06
1.32408e-06
4.94217e-06
1.45472e-06
4.92751e-06
1.56098e-06
4.82617e-06
1.64284e-06
4.65242e-06
1.70153e-06
4.41976e-06
1.73916e-06
4.14052e-06
1.75844e-06
3.82562e-06
1.76237e-06
3.48435e-06
1.75401e-06
3.12446e-06
1.73633e-06
2.75217e-06
1.7121e-06
2.37228e-06
1.68379e-06
1.9884e-06
1.65353e-06
1.60304e-06
1.62311e-06
1.21788e-06
1.59394e-06
8.33898e-07
1.56708e-06
4.51563e-07
1.54323e-06
7.10081e-08
1.52279e-06
-3.07825e-07
1.50578e-06
-6.85031e-07
1.49197e-06
-1.0606e-06
1.48077e-06
-1.4343e-06
1.47132e-06
-1.80549e-06
1.46246e-06
-2.17303e-06
1.45275e-06
-2.53514e-06
1.44049e-06
-2.88924e-06
1.42375e-06
-3.23182e-06
1.40044e-06
-3.55833e-06
1.36836e-06
-3.86306e-06
1.32531e-06
-4.13908e-06
1.26925e-06
-4.37818e-06
1.19851e-06
-4.57093e-06
1.11193e-06
-4.70674e-06
1.00922e-06
-4.77409e-06
8.91165e-07
-4.76081e-06
7.59922e-07
-4.65455e-06
6.19267e-07
-4.44332e-06
4.74741e-07
-4.11623e-06
3.33687e-07
-3.66425e-06
2.051e-07
-3.08115e-06
9.928e-08
-2.36428e-06
2.72648e-08
-1.51529e-06
-5.41625e-07
2.84101e-08
5.44388e-07
1.04351e-07
1.52607e-06
2.17291e-07
2.3851e-06
3.56275e-07
3.11284e-06
5.1065e-07
3.70608e-06
6.70641e-07
4.16591e-06
8.27805e-07
4.49724e-06
9.75331e-07
4.70821e-06
1.10816e-06
4.80934e-06
1.22294e-06
4.81273e-06
1.31792e-06
4.73119e-06
1.39267e-06
4.57767e-06
1.44785e-06
4.36457e-06
1.48493e-06
4.10344e-06
1.50592e-06
3.80463e-06
1.51315e-06
3.47712e-06
1.50908e-06
3.12853e-06
1.49616e-06
2.76509e-06
1.47668e-06
2.39176e-06
1.45277e-06
2.01231e-06
1.42626e-06
1.62955e-06
1.39873e-06
1.24542e-06
1.37144e-06
8.61186e-07
1.34537e-06
4.77627e-07
1.32122e-06
9.51604e-08
1.29939e-06
-2.8599e-07
1.28e-06
-6.65646e-07
1.26294e-06
-1.04354e-06
1.24781e-06
-1.41916e-06
1.23397e-06
-1.79165e-06
1.22056e-06
-2.15962e-06
1.20647e-06
-2.52106e-06
1.1904e-06
-2.87317e-06
1.17085e-06
-3.21227e-06
1.14621e-06
-3.53368e-06
1.11478e-06
-3.83163e-06
1.0749e-06
-4.0992e-06
1.02503e-06
-4.32831e-06
9.63927e-07
-4.50983e-06
8.90788e-07
-4.6336e-06
8.05477e-07
-4.68878e-06
7.08719e-07
-4.66405e-06
6.02305e-07
-4.54813e-06
4.89266e-07
-4.33028e-06
3.73971e-07
-4.00093e-06
2.62142e-07
-3.55242e-06
1.60727e-07
-2.97974e-06
7.76263e-08
-2.28118e-06
2.12707e-08
-1.45893e-06
-5.20355e-07
2.21674e-08
5.2222e-07
8.17297e-08
1.46651e-06
1.70768e-07
2.29607e-06
2.8098e-07
3.00263e-06
4.04203e-07
3.58286e-06
5.3284e-07
4.03727e-06
6.60217e-07
4.36986e-06
7.80823e-07
4.5876e-06
8.90439e-07
4.69973e-06
9.86148e-07
4.71702e-06
1.06625e-06
4.65109e-06
1.13013e-06
4.51379e-06
1.17805e-06
4.31665e-06
1.21096e-06
4.07054e-06
1.23029e-06
3.78529e-06
1.23779e-06
3.46962e-06
1.23536e-06
3.13096e-06
1.22494e-06
2.77552e-06
1.20838e-06
2.40832e-06
1.18741e-06
2.03329e-06
1.16357e-06
1.65339e-06
1.13819e-06
1.27079e-06
1.11238e-06
8.86994e-07
1.08702e-06
5.02993e-07
1.06274e-06
1.19439e-07
1.03997e-06
-2.63219e-07
1.01891e-06
-6.44589e-07
9.99566e-07
-1.02419e-06
9.81725e-07
-1.40132e-06
9.6499e-07
-1.77492e-06
9.48775e-07
-2.14341e-06
9.32321e-07
-2.5046e-06
9.14704e-07
-2.85555e-06
8.94868e-07
-3.19243e-06
8.71649e-07
-3.51047e-06
8.4383e-07
-3.80381e-06
8.10201e-07
-4.06557e-06
7.69651e-07
-4.28776e-06
7.21272e-07
-4.46145e-06
6.64487e-07
-4.57682e-06
5.99198e-07
-4.62349e-06
5.25936e-07
-4.59079e-06
4.46008e-07
-4.46821e-06
3.61622e-07
-4.2459e-06
2.75956e-07
-3.91527e-06
1.93167e-07
-3.46964e-06
1.18297e-07
-2.90487e-06
5.70786e-08
-2.21996e-06
1.56269e-08
-1.41748e-06
-5.04728e-07
1.63162e-08
5.05904e-07
6.03794e-08
1.42245e-06
1.2657e-07
2.22988e-06
2.08938e-07
2.92026e-06
3.01567e-07
3.49023e-06
3.98869e-07
3.93997e-06
4.95846e-07
4.27288e-06
5.88286e-07
4.49516e-06
6.72871e-07
4.61514e-06
7.47215e-07
4.64267e-06
8.09828e-07
4.58848e-06
8.60025e-07
4.46359e-06
8.97812e-07
4.27887e-06
9.2374e-07
4.04461e-06
9.38767e-07
3.77027e-06
9.44127e-07
3.46426e-06
9.41206e-07
3.13388e-06
9.31449e-07
2.78528e-06
9.16279e-07
2.42349e-06
8.97042e-07
2.05252e-06
8.74961e-07
1.67547e-06
8.51115e-07
1.29464e-06
8.26424e-07
9.11685e-07
8.01639e-07
5.27778e-07
7.77347e-07
1.43731e-07
7.53973e-07
-2.39845e-07
7.31783e-07
-6.224e-07
7.10896e-07
-1.00331e-06
6.91286e-07
-1.38171e-06
6.72786e-07
-1.75642e-06
6.551e-07
-2.12572e-06
6.37806e-07
-2.48731e-06
6.20364e-07
-2.83811e-06
6.02135e-07
-3.1742e-06
5.82392e-07
-3.49072e-06
5.6036e-07
-3.78178e-06
5.35247e-07
-4.04045e-06
5.06303e-07
-4.25882e-06
4.72889e-07
-4.42803e-06
4.34564e-07
-4.53849e-06
3.91176e-07
-4.5801e-06
3.42972e-07
-4.54258e-06
2.90698e-07
-4.41593e-06
2.35687e-07
-4.19088e-06
1.79916e-07
-3.8595e-06
1.26022e-07
-3.41574e-06
7.72456e-08
-2.85609e-06
3.73122e-08
-2.18003e-06
1.02303e-08
-1.3904e-06
-4.94497e-07
1.07646e-08
4.9514e-07
4.00156e-08
1.3932e-06
8.42063e-08
2.18569e-06
1.39527e-07
2.86494e-06
2.02123e-07
3.42764e-06
2.68281e-07
3.87381e-06
3.34606e-07
4.20656e-06
3.98162e-07
4.4316e-06
4.56565e-07
4.55674e-06
5.08026e-07
4.59121e-06
5.5135e-07
4.54515e-06
5.85896e-07
4.42904e-06
6.11507e-07
4.25326e-06
6.28427e-07
4.02769e-06
6.37212e-07
3.76148e-06
6.38638e-07
3.46283e-06
6.33622e-07
3.1389e-06
6.23147e-07
2.79575e-06
6.08213e-07
2.43842e-06
5.89782e-07
2.07095e-06
5.68757e-07
1.6965e-06
5.45953e-07
1.31744e-06
5.22088e-07
9.3555e-07
4.9778e-07
5.52086e-07
4.73542e-07
1.67969e-07
4.4979e-07
-2.16093e-07
4.26844e-07
-5.99454e-07
4.04935e-07
-9.81396e-07
3.84207e-07
-1.36099e-06
3.64729e-07
-1.73694e-06
3.46486e-07
-2.10748e-06
3.29393e-07
-2.47021e-06
3.13288e-07
-2.822e-06
2.97939e-07
-3.15886e-06
2.83047e-07
-3.47583e-06
2.68255e-07
-3.76699e-06
2.53162e-07
-4.02536e-06
2.37343e-07
-4.243e-06
2.20383e-07
-4.41107e-06
2.01918e-07
-4.52003e-06
1.81688e-07
-4.55987e-06
1.59595e-07
-4.52049e-06
1.35773e-07
-4.39211e-06
1.1065e-07
-4.16576e-06
8.49938e-08
-3.83384e-06
5.99472e-08
-3.39069e-06
3.70156e-08
-2.83316e-06
1.80176e-08
-2.16103e-06
4.9845e-09
-1.37736e-06
-4.89513e-07
5.42323e-09
4.89716e-07
2.03535e-08
1.37827e-06