/*--------------------------------*- C++ -*----------------------------------*\
  =========                 |
  \\      /  F ield         | OpenFOAM: The Open Source CFD Toolbox
   \\    /   O peration     | Website:  https://openfoam.org
    \\  /    A nd           | Version:  7
     \\/     M anipulation  |
\*---------------------------------------------------------------------------*/
FoamFile
{
    version     2.0;
    format      ascii;
    class       volScalarField;
    location    "0.0012";
    object      p;
}
// * * * * * * * * * * * * * * * * * * * * * * * * * * * * * * * * * * * * * //

dimensions      [0 2 -2 0 0 0 0];

internalField   nonuniform List<scalar> 
2500
(
7.5131e-07
-6.40811
-9.09827
-10.2254
-10.8566
-11.2603
-11.5445
-11.7648
-11.9471
-12.1037
-12.2413
-12.3643
-12.4756
-12.5774
-12.6713
-12.7587
-12.8406
-12.918
-12.9917
-13.0622
-13.1303
-13.1964
-13.2609
-13.3244
-13.3874
-13.4501
-13.5131
-13.5768
-13.6416
-13.7079
-13.7763
-13.8473
-13.9215
-13.9995
-14.0821
-14.1702
-14.2648
-14.3672
-14.479
-14.6022
-14.7394
-14.8945
-15.0733
-15.2867
-15.5585
-15.9395
-16.526
-17.5717
-20.1516
-26.4441
-5.06287
-7.68003
-9.11558
-10.0259
-10.6607
-11.1073
-11.4333
-11.685
-11.8887
-12.0598
-12.2074
-12.3374
-12.4539
-12.5596
-12.6566
-12.7464
-12.8305
-12.9096
-12.9848
-13.0567
-13.1259
-13.1931
-13.2587
-13.3232
-13.3871
-13.4509
-13.5148
-13.5795
-13.6454
-13.7129
-13.7826
-13.8549
-13.9307
-14.0106
-14.0954
-14.1862
-14.2842
-14.3909
-14.5085
-14.6396
-14.788
-14.9593
-15.1622
-15.4106
-15.7288
-16.1585
-16.7593
-17.6118
-18.9672
-21.4794
-8.09815
-8.82859
-9.57062
-10.2115
-10.7228
-11.1176
-11.4256
-11.6726
-11.8763
-12.0487
-12.1979
-12.3294
-12.4471
-12.5538
-12.6517
-12.7423
-12.827
-12.9067
-12.9824
-13.0547
-13.1244
-13.1919
-13.2579
-13.3227
-13.387
-13.451
-13.5153
-13.5804
-13.6466
-13.7145
-13.7845
-13.8574
-13.9337
-14.0141
-14.0996
-14.1912
-14.2901
-14.398
-14.517
-14.6497
-14.8
-14.9731
-15.1766
-15.4213
-15.7229
-16.1034
-16.5873
-17.186
-17.8788
-18.5592
-9.62403
-9.75391
-10.1215
-10.5339
-10.9047
-11.2198
-11.4846
-11.708
-11.8985
-12.0633
-12.2079
-12.3365
-12.4524
-12.5578
-12.6548
-12.7448
-12.8289
-12.9082
-12.9835
-13.0556
-13.125
-13.1923
-13.2581
-13.3228
-13.3868
-13.4507
-13.5148
-13.5796
-13.6456
-13.7132
-13.783
-13.8555
-13.9314
-14.0113
-14.0962
-14.1869
-14.2848
-14.3912
-14.5079
-14.6374
-14.7827
-14.9475
-15.1368
-15.3568
-15.6145
-15.9161
-16.2645
-16.6471
-16.9861
-17.098
-10.5002
-10.4397
-10.6054
-10.8583
-11.1173
-11.3596
-11.5782
-11.7722
-11.9438
-12.0963
-12.2326
-12.3555
-12.4673
-12.5697
-12.6644
-12.7525
-12.8352
-12.9133
-12.9876
-13.0588
-13.1274
-13.1941
-13.2591
-13.3232
-13.3866
-13.4499
-13.5134
-13.5775
-13.6428
-13.7096
-13.7786
-13.8501
-13.9248
-14.0033
-14.0865
-14.1752
-14.2704
-14.3733
-14.4854
-14.6084
-14.7443
-14.8956
-15.0648
-15.2543
-15.4651
-15.6952
-15.9374
-16.171
-16.3219
-16.2586
-11.0454
-10.9379
-11.0033
-11.1553
-11.3337
-11.5162
-11.6922
-11.8563
-12.007
-12.1445
-12.2701
-12.3852
-12.4911
-12.589
-12.6802
-12.7655
-12.8459
-12.9221
-12.9947
-13.0644
-13.1317
-13.1972
-13.2611
-13.3241
-13.3865
-13.4487
-13.5111
-13.5742
-13.6383
-13.7038
-13.7713
-13.8412
-13.9141
-13.9905
-14.0711
-14.1566
-14.2478
-14.3457
-14.4513
-14.5657
-14.6901
-14.8256
-14.9729
-15.1318
-15.3004
-15.4731
-15.6397
-15.7803
-15.8389
-15.7345
-11.4079
-11.3063
-11.3263
-11.4178
-11.5404
-11.6768
-11.8164
-11.9528
-12.0825
-12.2043
-12.318
-12.424
-12.5227
-12.6151
-12.7017
-12.7834
-12.8607
-12.9343
-13.0046
-13.0724
-13.1379
-13.2016
-13.2641
-13.3255
-13.3865
-13.4472
-13.5082
-13.5697
-13.6322
-13.696
-13.7616
-13.8293
-13.8998
-13.9733
-14.0506
-14.1321
-14.2185
-14.3103
-14.4083
-14.513
-14.6249
-14.7441
-14.8702
-15.0015
-15.1349
-15.2638
-15.3786
-15.4635
-15.4808
-15.3832
-11.6706
-11.5884
-11.5896
-11.6455
-11.7306
-11.8326
-11.9429
-12.0552
-12.1656
-12.2721
-12.3736
-12.4698
-12.5608
-12.6469
-12.7283
-12.8056
-12.8792
-12.9496
-13.0173
-13.0825
-13.1458
-13.2074
-13.2679
-13.3275
-13.3866
-13.4455
-13.5046
-13.5642
-13.6247
-13.6863
-13.7496
-13.8147
-13.8822
-13.9524
-14.0258
-14.1027
-14.1836
-14.2688
-14.3587
-14.4534
-14.5528
-14.6565
-14.7634
-14.8713
-14.9764
-15.073
-15.153
-15.2052
-15.2055
-15.1266
-11.8765
-11.8132
-11.8073
-11.8424
-11.9026
-11.9796
-12.0668
-12.1589
-12.2523
-12.3446
-12.4344
-12.5209
-12.6039
-12.6832
-12.759
-12.8315
-12.901
-12.9678
-13.0322
-13.0946
-13.1552
-13.2145
-13.2726
-13.33
-13.3869
-13.4436
-13.5005
-13.5579
-13.616
-13.6751
-13.7356
-13.7978
-13.862
-13.9284
-13.9975
-14.0694
-14.1445
-14.2228
-14.3045
-14.3893
-14.477
-14.5666
-14.6568
-14.7452
-14.8285
-14.9016
-14.9584
-14.9914
-14.9853
-14.9243
-12.0472
-11.9987
-11.9908
-12.0137
-12.0572
-12.1161
-12.1855
-12.2611
-12.3398
-12.4194
-12.4983
-12.5755
-12.6505
-12.7231
-12.7931
-12.8605
-12.9256
-12.9884
-13.0493
-13.1084
-13.1661
-13.2226
-13.2781
-13.3329
-13.3874
-13.4416
-13.496
-13.5508
-13.6062
-13.6625
-13.72
-13.7789
-13.8394
-13.9019
-13.9664
-14.0331
-14.1022
-14.1736
-14.2473
-14.3229
-14.3997
-14.4769
-14.5528
-14.6255
-14.6918
-14.7479
-14.7892
-14.8108
-14.8029
-14.756
-12.1942
-12.1566
-12.1487
-12.1642
-12.1965
-12.2422
-12.2978
-12.3601
-12.4264
-12.4948
-12.5638
-12.6323
-12.6997
-12.7655
-12.8296
-12.8919
-12.9523
-13.011
-13.0681
-13.1238
-13.1782
-13.2317
-13.2843
-13.3363
-13.388
-13.4395
-13.4911
-13.5431
-13.5956
-13.6488
-13.703
-13.7584
-13.8151
-13.8733
-13.9331
-13.9946
-14.0577
-14.1225
-14.1885
-14.2554
-14.3225
-14.3888
-14.4529
-14.5128
-14.5661
-14.6097
-14.6405
-14.6551
-14.6474
-14.6109
-12.3238
-12.2942
-12.287
-12.2979
-12.3224
-12.3584
-12.4034
-12.4549
-12.5109
-12.5696
-12.6297
-12.6902
-12.7503
-12.8097
-12.868
-12.9251
-12.9808
-13.0352
-13.0884
-13.1404
-13.1914
-13.2416
-13.2911
-13.3401
-13.3888
-13.4373
-13.486
-13.5349
-13.5842
-13.6342
-13.6849
-13.7366
-13.7893
-13.8431
-13.8982
-13.9545
-14.0118
-14.0701
-14.1291
-14.1881
-14.2465
-14.3034
-14.3575
-14.4071
-14.4503
-14.4848
-14.5082
-14.5186
-14.5115
-14.4827
-12.4401
-12.4164
-12.4101
-12.4181
-12.4371
-12.4658
-12.5024
-12.5453
-12.5925
-12.6429
-12.6951
-12.7483
-12.8018
-12.855
-12.9077
-12.9596
-13.0106
-13.0607
-13.1098
-13.158
-13.2054
-13.2522
-13.2984
-13.3441
-13.3897
-13.4351
-13.4806
-13.5262
-13.5723
-13.6188
-13.6659
-13.7137
-13.7624
-13.8119
-13.8622
-13.9134
-13.9652
-14.0174
-14.0697
-14.1216
-14.1724
-14.2212
-14.2669
-14.3082
-14.3435
-14.3711
-14.3893
-14.3969
-14.3907
-14.3675
-12.5459
-12.5266
-12.5212
-12.5271
-12.5421
-12.5653
-12.5954
-12.6312
-12.6712
-12.7143
-12.7596
-12.8061
-12.8534
-12.9009
-12.9482
-12.9951
-13.0414
-13.0871
-13.1321
-13.1764
-13.2201
-13.2633
-13.3061
-13.3485
-13.3907
-13.4328
-13.475
-13.5173
-13.5598
-13.6028
-13.6462
-13.6902
-13.7347
-13.7798
-13.8255
-13.8717
-13.9181
-13.9647
-14.0109
-14.0563
-14.1003
-14.1422
-14.1809
-14.2154
-14.2445
-14.2668
-14.2813
-14.287
-14.2816
-14.2627
-12.6431
-12.6272
-12.6226
-12.6271
-12.6391
-12.658
-12.6829
-12.7128
-12.7467
-12.7836
-12.8227
-12.8633
-12.9048
-12.9469
-12.989
-13.0311
-13.0728
-13.1142
-13.1551
-13.1955
-13.2354
-13.275
-13.3142
-13.3531
-13.3919
-13.4305
-13.4692
-13.5081
-13.5471
-13.5864
-13.626
-13.6661
-13.7065
-13.7473
-13.7884
-13.8298
-13.8712
-13.9124
-13.953
-13.9926
-14.0307
-14.0665
-14.0993
-14.1282
-14.1523
-14.1705
-14.1821
-14.1865
-14.1819
-14.1663
-12.7332
-12.72
-12.7161
-12.7196
-12.7294
-12.7448
-12.7655
-12.7905
-12.8191
-12.8506
-12.8843
-12.9195
-12.9558
-12.9927
-13.03
-13.0674
-13.1047
-13.1417
-13.1785
-13.215
-13.2511
-13.2869
-13.3225
-13.3579
-13.3931
-13.4283
-13.4634
-13.4987
-13.5341
-13.5697
-13.6055
-13.6416
-13.6779
-13.7145
-13.7512
-13.788
-13.8246
-13.8607
-13.8962
-13.9306
-13.9633
-13.9939
-14.0217
-14.046
-14.066
-14.0809
-14.0903
-14.0938
-14.0898
-14.0769
-12.8174
-12.8065
-12.8031
-12.806
-12.8139
-12.8266
-12.8437
-12.8646
-12.8888
-12.9155
-12.9443
-12.9746
-13.0061
-13.0383
-13.0709
-13.1038
-13.1368
-13.1696
-13.2023
-13.2348
-13.2671
-13.2992
-13.3311
-13.3628
-13.3944
-13.426
-13.4576
-13.4892
-13.5209
-13.5528
-13.5848
-13.6169
-13.6492
-13.6816
-13.714
-13.7464
-13.7784
-13.8099
-13.8406
-13.8702
-13.8982
-13.9242
-13.9477
-13.968
-13.9846
-13.9969
-14.0046
-14.0073
-14.004
-13.9932
-12.8968
-12.8878
-12.8849
-12.8872
-12.8936
-12.904
-12.9182
-12.9356
-12.9558
-12.9784
-13.0028
-13.0286
-13.0556
-13.0833
-13.1116
-13.1402
-13.1689
-13.1977
-13.2264
-13.2549
-13.2834
-13.3117
-13.3398
-13.3679
-13.3959
-13.4238
-13.4517
-13.4796
-13.5076
-13.5357
-13.5639
-13.5921
-13.6205
-13.6488
-13.677
-13.7051
-13.7328
-13.7599
-13.7863
-13.8115
-13.8353
-13.8572
-13.8768
-13.8937
-13.9075
-13.9176
-13.9239
-13.926
-13.9232
-13.9143
-12.9721
-12.9647
-12.9623
-12.9641
-12.9693
-12.9779
-12.9895
-13.0038
-13.0206
-13.0394
-13.0598
-13.0816
-13.1044
-13.1279
-13.152
-13.1764
-13.201
-13.2258
-13.2505
-13.2752
-13.2998
-13.3243
-13.3487
-13.3731
-13.3974
-13.4216
-13.4458
-13.4701
-13.4943
-13.5186
-13.543
-13.5674
-13.5918
-13.6161
-13.6403
-13.6642
-13.6878
-13.7108
-13.7331
-13.7543
-13.7742
-13.7924
-13.8087
-13.8227
-13.834
-13.8422
-13.8473
-13.849
-13.8467
-13.8394
-13.0441
-13.0381
-13.0362
-13.0376
-13.0418
-13.0486
-13.058
-13.0697
-13.0834
-13.0987
-13.1155
-13.1335
-13.1524
-13.1719
-13.192
-13.2125
-13.2331
-13.2539
-13.2747
-13.2956
-13.3163
-13.3371
-13.3577
-13.3784
-13.3989
-13.4194
-13.44
-13.4605
-13.481
-13.5015
-13.5221
-13.5426
-13.5631
-13.5835
-13.6038
-13.6238
-13.6434
-13.6625
-13.6809
-13.6984
-13.7148
-13.7297
-13.743
-13.7543
-13.7634
-13.7701
-13.7741
-13.7755
-13.7736
-13.7677
-13.1135
-13.1087
-13.1072
-13.1083
-13.1115
-13.1169
-13.1243
-13.1336
-13.1444
-13.1567
-13.1701
-13.1845
-13.1997
-13.2155
-13.2317
-13.2483
-13.2651
-13.282
-13.299
-13.316
-13.333
-13.3499
-13.3668
-13.3837
-13.4005
-13.4173
-13.4341
-13.4509
-13.4677
-13.4845
-13.5012
-13.518
-13.5346
-13.5512
-13.5676
-13.5838
-13.5996
-13.615
-13.6298
-13.6438
-13.6568
-13.6687
-13.6792
-13.6881
-13.6953
-13.7006
-13.7037
-13.7048
-13.7033
-13.6986
-13.1807
-13.1771
-13.1759
-13.1767
-13.1792
-13.1833
-13.1889
-13.1959
-13.2041
-13.2135
-13.2237
-13.2348
-13.2464
-13.2586
-13.2711
-13.2839
-13.2969
-13.31
-13.3232
-13.3364
-13.3496
-13.3628
-13.376
-13.3891
-13.4022
-13.4153
-13.4283
-13.4414
-13.4544
-13.4674
-13.4804
-13.4934
-13.5063
-13.5191
-13.5317
-13.5442
-13.5563
-13.5681
-13.5794
-13.5901
-13.6
-13.609
-13.617
-13.6237
-13.6292
-13.6331
-13.6355
-13.6363
-13.6351
-13.6316
-13.2463
-13.2437
-13.2429
-13.2435
-13.2452
-13.2481
-13.252
-13.2569
-13.2627
-13.2693
-13.2766
-13.2844
-13.2927
-13.3013
-13.3103
-13.3194
-13.3287
-13.338
-13.3474
-13.3569
-13.3663
-13.3758
-13.3852
-13.3946
-13.4039
-13.4133
-13.4226
-13.4319
-13.4412
-13.4505
-13.4597
-13.4689
-13.4781
-13.4871
-13.4961
-13.5049
-13.5134
-13.5217
-13.5297
-13.5372
-13.5441
-13.5504
-13.556
-13.5607
-13.5645
-13.5672
-13.5689
-13.5694
-13.5686
-13.5661
-13.3107
-13.3092
-13.3087
-13.3091
-13.3101
-13.3118
-13.3141
-13.3171
-13.3206
-13.3246
-13.3289
-13.3336
-13.3386
-13.3438
-13.3492
-13.3547
-13.3603
-13.366
-13.3717
-13.3774
-13.3831
-13.3888
-13.3944
-13.4001
-13.4057
-13.4113
-13.4169
-13.4225
-13.428
-13.4335
-13.439
-13.4445
-13.4499
-13.4553
-13.4606
-13.4658
-13.4709
-13.4757
-13.4804
-13.4848
-13.4889
-13.4926
-13.4958
-13.4986
-13.5008
-13.5024
-13.5034
-13.5037
-13.5032
-13.5017
-13.3745
-13.374
-13.3738
-13.3739
-13.3743
-13.3749
-13.3757
-13.3768
-13.378
-13.3794
-13.3809
-13.3826
-13.3843
-13.3862
-13.3881
-13.39
-13.392
-13.3939
-13.3959
-13.3979
-13.3998
-13.4018
-13.4037
-13.4056
-13.4075
-13.4094
-13.4112
-13.4131
-13.4149
-13.4167
-13.4184
-13.4202
-13.4219
-13.4236
-13.4253
-13.4269
-13.4285
-13.43
-13.4314
-13.4328
-13.4341
-13.4352
-13.4362
-13.4371
-13.4377
-13.4382
-13.4385
-13.4386
-13.4385
-13.438
-13.4381
-13.4385
-13.4387
-13.4386
-13.4383
-13.4378
-13.4371
-13.4362
-13.4352
-13.4341
-13.4328
-13.4314
-13.43
-13.4285
-13.4269
-13.4253
-13.4236
-13.4219
-13.4202
-13.4184
-13.4167
-13.4149
-13.4131
-13.4112
-13.4094
-13.4075
-13.4056
-13.4037
-13.4018
-13.3999
-13.3979
-13.3959
-13.3939
-13.392
-13.39
-13.3881
-13.3862
-13.3843
-13.3826
-13.3809
-13.3794
-13.378
-13.3767
-13.3757
-13.3749
-13.3743
-13.3739
-13.3738
-13.374
-13.3745
-13.5018
-13.5032
-13.5037
-13.5034
-13.5024
-13.5008
-13.4986
-13.4959
-13.4926
-13.4889
-13.4848
-13.4804
-13.4757
-13.4709
-13.4658
-13.4606
-13.4553
-13.4499
-13.4445
-13.439
-13.4335
-13.428
-13.4225
-13.4169
-13.4113
-13.4057
-13.4001
-13.3944
-13.3888
-13.3831
-13.3774
-13.3717
-13.366
-13.3603
-13.3547
-13.3492
-13.3438
-13.3386
-13.3336
-13.3289
-13.3245
-13.3206
-13.3171
-13.3141
-13.3118
-13.3101
-13.309
-13.3087
-13.3092
-13.3107
-13.5662
-13.5686
-13.5694
-13.5689
-13.5672
-13.5645
-13.5607
-13.556
-13.5504
-13.5441
-13.5372
-13.5297
-13.5217
-13.5134
-13.5049
-13.4961
-13.4871
-13.4781
-13.4689
-13.4597
-13.4505
-13.4412
-13.4319
-13.4226
-13.4133
-13.4039
-13.3946
-13.3852
-13.3758
-13.3663
-13.3569
-13.3474
-13.338
-13.3287
-13.3194
-13.3103
-13.3013
-13.2927
-13.2844
-13.2766
-13.2693
-13.2627
-13.2569
-13.252
-13.248
-13.2452
-13.2434
-13.2429
-13.2437
-13.2462
-13.6316
-13.6351
-13.6363
-13.6355
-13.6331
-13.6292
-13.6238
-13.617
-13.609
-13.6
-13.5901
-13.5794
-13.5681
-13.5563
-13.5442
-13.5317
-13.5191
-13.5063
-13.4934
-13.4804
-13.4674
-13.4544
-13.4414
-13.4283
-13.4153
-13.4022
-13.3891
-13.376
-13.3628
-13.3496
-13.3364
-13.3232
-13.31
-13.2969
-13.2839
-13.2711
-13.2586
-13.2464
-13.2348
-13.2237
-13.2134
-13.2041
-13.1958
-13.1888
-13.1832
-13.1791
-13.1767
-13.1759
-13.177
-13.1807
-13.6986
-13.7033
-13.7048
-13.7038
-13.7006
-13.6953
-13.6882
-13.6792
-13.6687
-13.6568
-13.6438
-13.6298
-13.615
-13.5996
-13.5838
-13.5676
-13.5512
-13.5346
-13.518
-13.5012
-13.4845
-13.4677
-13.4509
-13.4341
-13.4173
-13.4005
-13.3837
-13.3668
-13.3499
-13.3329
-13.316
-13.299
-13.282
-13.2651
-13.2483
-13.2317
-13.2155
-13.1997
-13.1845
-13.1701
-13.1567
-13.1444
-13.1335
-13.1243
-13.1169
-13.1115
-13.1082
-13.1072
-13.1087
-13.1135
-13.7677
-13.7736
-13.7755
-13.7742
-13.7701
-13.7634
-13.7543
-13.743
-13.7297
-13.7148
-13.6984
-13.6809
-13.6625
-13.6434
-13.6238
-13.6038
-13.5835
-13.5631
-13.5426
-13.5221
-13.5015
-13.481
-13.4605
-13.4399
-13.4194
-13.3989
-13.3783
-13.3577
-13.3371
-13.3163
-13.2955
-13.2747
-13.2539
-13.2331
-13.2124
-13.192
-13.1719
-13.1524
-13.1335
-13.1155
-13.0987
-13.0833
-13.0697
-13.058
-13.0486
-13.0417
-13.0376
-13.0362
-13.0381
-13.0441
-13.8394
-13.8467
-13.8491
-13.8473
-13.8423
-13.834
-13.8227
-13.8087
-13.7924
-13.7742
-13.7543
-13.7331
-13.7108
-13.6878
-13.6642
-13.6403
-13.6161
-13.5917
-13.5674
-13.543
-13.5186
-13.4943
-13.47
-13.4458
-13.4216
-13.3973
-13.3731
-13.3487
-13.3243
-13.2998
-13.2752
-13.2505
-13.2258
-13.201
-13.1764
-13.152
-13.1279
-13.1043
-13.0816
-13.0598
-13.0393
-13.0206
-13.0038
-12.9894
-12.9778
-12.9693
-12.9641
-12.9623
-12.9647
-12.9721
-13.9144
-13.9233
-13.9261
-13.9239
-13.9177
-13.9075
-13.8938
-13.8768
-13.8572
-13.8353
-13.8115
-13.7863
-13.7599
-13.7328
-13.7051
-13.677
-13.6488
-13.6205
-13.5921
-13.5639
-13.5357
-13.5076
-13.4796
-13.4517
-13.4238
-13.3959
-13.3679
-13.3398
-13.3117
-13.2834
-13.2549
-13.2263
-13.1976
-13.1689
-13.1402
-13.1116
-13.0833
-13.0556
-13.0286
-13.0027
-12.9783
-12.9558
-12.9356
-12.9182
-12.904
-12.8936
-12.8871
-12.8849
-12.8877
-12.8968
-13.9933
-14.004
-14.0073
-14.0046
-13.997
-13.9846
-13.968
-13.9477
-13.9243
-13.8982
-13.8702
-13.8406
-13.8099
-13.7784
-13.7464
-13.714
-13.6816
-13.6492
-13.6169
-13.5848
-13.5527
-13.5209
-13.4892
-13.4576
-13.426
-13.3944
-13.3628
-13.3311
-13.2992
-13.2671
-13.2348
-13.2023
-13.1696
-13.1367
-13.1038
-13.0709
-13.0382
-13.006
-12.9746
-12.9443
-12.9155
-12.8887
-12.8646
-12.8437
-12.8266
-12.8138
-12.806
-12.8031
-12.8065
-12.8174
-14.0769
-14.0899
-14.0938
-14.0904
-14.081
-14.066
-14.046
-14.0217
-13.9939
-13.9633
-13.9306
-13.8962
-13.8607
-13.8245
-13.788
-13.7512
-13.7145
-13.6779
-13.6416
-13.6055
-13.5697
-13.5341
-13.4987
-13.4634
-13.4283
-13.3931
-13.3579
-13.3225
-13.2869
-13.2511
-13.215
-13.1785
-13.1417
-13.1047
-13.0674
-13.03
-12.9927
-12.9558
-12.9195
-12.8842
-12.8506
-12.8191
-12.7905
-12.7655
-12.7448
-12.7293
-12.7196
-12.7161
-12.72
-12.7332
-14.1663
-14.182
-14.1866
-14.1822
-14.1706
-14.1523
-14.1283
-14.0993
-14.0665
-14.0307
-13.9926
-13.953
-13.9124
-13.8712
-13.8298
-13.7884
-13.7473
-13.7065
-13.666
-13.626
-13.5864
-13.5471
-13.5081
-13.4692
-13.4305
-13.3918
-13.3531
-13.3141
-13.2749
-13.2354
-13.1954
-13.155
-13.1142
-13.0728
-13.0311
-12.989
-12.9468
-12.9048
-12.8633
-12.8226
-12.7835
-12.7466
-12.7128
-12.6829
-12.658
-12.6391
-12.6271
-12.6226
-12.6272
-12.6431
-14.2627
-14.2817
-14.287
-14.2813
-14.2669
-14.2445
-14.2155
-14.1809
-14.1422
-14.1003
-14.0563
-14.0109
-13.9647
-13.9181
-13.8717
-13.8255
-13.7798
-13.7347
-13.6902
-13.6462
-13.6028
-13.5598
-13.5173
-13.475
-13.4328
-13.3907
-13.3485
-13.3061
-13.2633
-13.2201
-13.1764
-13.1321
-13.0871
-13.0414
-12.995
-12.9481
-12.9008
-12.8534
-12.8061
-12.7595
-12.7143
-12.6712
-12.6311
-12.5954
-12.5653
-12.5421
-12.5271
-12.5212
-12.5266
-12.5459
-14.3675
-14.3907
-14.3969
-14.3893
-14.3711
-14.3435
-14.3082
-14.2669
-14.2212
-14.1723
-14.1215
-14.0697
-14.0174
-13.9651
-13.9133
-13.8622
-13.8119
-13.7624
-13.7137
-13.6659
-13.6188
-13.5722
-13.5262
-13.4805
-13.4351
-13.3897
-13.3441
-13.2983
-13.2521
-13.2054
-13.158
-13.1097
-13.0606
-13.0106
-12.9596
-12.9077
-12.855
-12.8017
-12.7483
-12.6951
-12.6429
-12.5925
-12.5453
-12.5024
-12.4658
-12.4371
-12.4181
-12.4102
-12.4164
-12.4402
-14.4827
-14.5115
-14.5186
-14.5082
-14.4848
-14.4503
-14.4071
-14.3575
-14.3034
-14.2465
-14.1881
-14.129
-14.0701
-14.0118
-13.9545
-13.8982
-13.8431
-13.7893
-13.7365
-13.6849
-13.6341
-13.5842
-13.5348
-13.486
-13.4373
-13.3887
-13.34
-13.291
-13.2415
-13.1914
-13.1404
-13.0883
-13.0352
-12.9808
-12.9251
-12.868
-12.8097
-12.7503
-12.6901
-12.6297
-12.5696
-12.5109
-12.4549
-12.4034
-12.3584
-12.3225
-12.298
-12.2871
-12.2942
-12.3238
-14.6109
-14.6474
-14.6551
-14.6405
-14.6097
-14.5661
-14.5128
-14.4529
-14.3888
-14.3225
-14.2554
-14.1885
-14.1224
-14.0577
-13.9946
-13.9331
-13.8733
-13.8151
-13.7584
-13.703
-13.6488
-13.5956
-13.5431
-13.4911
-13.4395
-13.388
-13.3363
-13.2843
-13.2316
-13.1782
-13.1238
-13.0681
-13.011
-12.9523
-12.8919
-12.8296
-12.7655
-12.6997
-12.6323
-12.5638
-12.4948
-12.4264
-12.3601
-12.2978
-12.2422
-12.1965
-12.1643
-12.1488
-12.1567
-12.1942
-14.756
-14.8029
-14.8108
-14.7892
-14.7479
-14.6918
-14.6255
-14.5528
-14.4769
-14.3997
-14.3228
-14.2473
-14.1736
-14.1022
-14.0331
-13.9663
-13.9018
-13.8394
-13.7789
-13.72
-13.6625
-13.6062
-13.5508
-13.496
-13.4416
-13.3873
-13.3329
-13.2781
-13.2226
-13.1661
-13.1084
-13.0493
-12.9884
-12.9255
-12.8605
-12.793
-12.7231
-12.6505
-12.5755
-12.4983
-12.4194
-12.3399
-12.2612
-12.1855
-12.1162
-12.0573
-12.0138
-11.9909
-11.9988
-12.0473
-14.9243
-14.9853
-14.9914
-14.9584
-14.9016
-14.8285
-14.7452
-14.6568
-14.5666
-14.477
-14.3893
-14.3044
-14.2228
-14.1445
-14.0694
-13.9975
-13.9284
-13.8619
-13.7978
-13.7356
-13.6751
-13.6159
-13.5578
-13.5005
-13.4436
-13.3869
-13.33
-13.2726
-13.2144
-13.1552
-13.0946
-13.0322
-12.9678
-12.901
-12.8315
-12.759
-12.6832
-12.6039
-12.5209
-12.4344
-12.3446
-12.2523
-12.159
-12.0669
-11.9797
-11.9026
-11.8425
-11.8074
-11.8133
-11.8766
-15.1266
-15.2055
-15.2052
-15.153
-15.073
-14.9764
-14.8713
-14.7634
-14.6565
-14.5528
-14.4534
-14.3587
-14.2688
-14.1836
-14.1027
-14.0258
-13.9524
-13.8822
-13.8147
-13.7495
-13.6863
-13.6246
-13.5642
-13.5046
-13.4455
-13.3866
-13.3275
-13.2679
-13.2074
-13.1457
-13.0825
-13.0172
-12.9496
-12.8792
-12.8056
-12.7283
-12.6468
-12.5608
-12.4698
-12.3736
-12.2721
-12.1656
-12.0552
-11.943
-11.8327
-11.7307
-11.6456
-11.5897
-11.5885
-11.6707
-15.3832
-15.4808
-15.4635
-15.3786
-15.2638
-15.1349
-15.0015
-14.8701
-14.7441
-14.6249
-14.513
-14.4083
-14.3103
-14.2184
-14.1321
-14.0506
-13.9733
-13.8997
-13.8293
-13.7615
-13.6959
-13.6321
-13.5696
-13.5081
-13.4472
-13.3864
-13.3255
-13.264
-13.2016
-13.1378
-13.0723
-13.0046
-12.9342
-12.8607
-12.7834
-12.7017
-12.6151
-12.5227
-12.424
-12.3181
-12.2044
-12.0826
-11.9528
-11.8165
-11.6769
-11.5405
-11.4179
-11.3264
-11.3064
-11.408
-15.7344
-15.8389
-15.7803
-15.6397
-15.4731
-15.3004
-15.1318
-14.9729
-14.8256
-14.6901
-14.5657
-14.4513
-14.3457
-14.2478
-14.1566
-14.0711
-13.9905
-13.9141
-13.8412
-13.7713
-13.7038
-13.6382
-13.5741
-13.5111
-13.4487
-13.3865
-13.3241
-13.2611
-13.1971
-13.1317
-13.0644
-12.9947
-12.922
-12.8458
-12.7655
-12.6802
-12.589
-12.4911
-12.3852
-12.2702
-12.1446
-12.007
-11.8564
-11.6923
-11.5163
-11.3338
-11.1554
-11.0034
-10.938
-11.0455
-16.2586
-16.3219
-16.171
-15.9374
-15.6952
-15.465
-15.2542
-15.0648
-14.8956
-14.7443
-14.6084
-14.4853
-14.3732
-14.2703
-14.1752
-14.0865
-14.0033
-13.9247
-13.85
-13.7785
-13.7096
-13.6427
-13.5775
-13.5133
-13.4498
-13.3866
-13.3232
-13.2591
-13.194
-13.1274
-13.0588
-12.9876
-12.9133
-12.8352
-12.7525
-12.6644
-12.5697
-12.4673
-12.3555
-12.2327
-12.0963
-11.9439
-11.7723
-11.5782
-11.3597
-11.1174
-10.8584
-10.6055
-10.4398
-10.5003
-17.098
-16.9861
-16.6471
-16.2645
-15.9161
-15.6144
-15.3568
-15.1368
-14.9474
-14.7827
-14.6374
-14.5079
-14.3911
-14.2847
-14.1869
-14.0961
-14.0113
-13.9313
-13.8555
-13.783
-13.7132
-13.6456
-13.5796
-13.5148
-13.4506
-13.3868
-13.3227
-13.258
-13.1923
-13.125
-13.0555
-12.9835
-12.9082
-12.8289
-12.7447
-12.6548
-12.5578
-12.4524
-12.3366
-12.2079
-12.0633
-11.8985
-11.7081
-11.4847
-11.2199
-10.9048
-10.534
-10.1216
-9.75402
-9.62414
-18.5592
-17.8788
-17.186
-16.5873
-16.1034
-15.7229
-15.4213
-15.1766
-14.9731
-14.8
-14.6497
-14.5169
-14.398
-14.2901
-14.1911
-14.0995
-14.0141
-13.9336
-13.8573
-13.7845
-13.7144
-13.6465
-13.5803
-13.5153
-13.451
-13.3869
-13.3227
-13.2578
-13.1919
-13.1243
-13.0547
-12.9823
-12.9067
-12.827
-12.7423
-12.6517
-12.5538
-12.4471
-12.3294
-12.1979
-12.0488
-11.8764
-11.6727
-11.4257
-11.1177
-10.7229
-10.2116
-9.57073
-8.8287
-8.09826
-21.4794
-18.9672
-17.6117
-16.7593
-16.1585
-15.7288
-15.4106
-15.1622
-14.9593
-14.788
-14.6396
-14.5085
-14.3909
-14.2842
-14.1862
-14.0954
-14.0105
-13.9307
-13.8549
-13.7825
-13.7128
-13.6453
-13.5795
-13.5148
-13.4508
-13.3871
-13.3232
-13.2587
-13.1931
-13.1259
-13.0566
-12.9847
-12.9096
-12.8304
-12.7464
-12.6566
-12.5596
-12.4539
-12.3374
-12.2074
-12.0599
-11.8888
-11.685
-11.4334
-11.1074
-10.6608
-10.026
-9.11568
-7.68014
-5.06297
-26.4441
-20.1516
-17.5717
-16.526
-15.9395
-15.5585
-15.2867
-15.0733
-14.8945
-14.7394
-14.6022
-14.479
-14.3672
-14.2648
-14.1701
-14.0821
-13.9995
-13.9215
-13.8473
-13.7763
-13.7079
-13.6416
-13.5768
-13.5131
-13.4501
-13.3873
-13.3244
-13.2609
-13.1963
-13.1303
-13.0622
-12.9917
-12.918
-12.8406
-12.7586
-12.6713
-12.5774
-12.4756
-12.3643
-12.2414
-12.1038
-11.9472
-11.7649
-11.5446
-11.2604
-10.8567
-10.2255
-9.09838
-6.40821
-9.42572e-05
)
;

boundaryField
{
    movingWallTop
    {
        type            zeroGradient;
    }
    movingWallBottom
    {
        type            zeroGradient;
    }
    fixedWalls
    {
        type            zeroGradient;
    }
    frontAndBack
    {
        type            empty;
    }
}


// ************************************************************************* //
