/*--------------------------------*- C++ -*----------------------------------*\
  =========                 |
  \\      /  F ield         | OpenFOAM: The Open Source CFD Toolbox
   \\    /   O peration     | Website:  https://openfoam.org
    \\  /    A nd           | Version:  7
     \\/     M anipulation  |
\*---------------------------------------------------------------------------*/
FoamFile
{
    version     2.0;
    format      ascii;
    class       volVectorField;
    location    "0.0012";
    object      U;
}
// * * * * * * * * * * * * * * * * * * * * * * * * * * * * * * * * * * * * * //

dimensions      [0 1 -1 0 0 0 0];

internalField   nonuniform List<vector> 
2500
(
(-0.294574 0.154428 0)
(-0.394694 0.126148 0)
(-0.562409 0.068879 0)
(-0.66485 0.0353453 0)
(-0.717625 0.0182536 0)
(-0.747137 0.00979445 0)
(-0.765003 0.00565111 0)
(-0.776511 0.00357252 0)
(-0.784433 0.00246061 0)
(-0.790219 0.00181081 0)
(-0.794637 0.00139537 0)
(-0.798118 0.00110876 0)
(-0.800922 0.000899193 0)
(-0.803216 0.000739137 0)
(-0.805112 0.000612747 0)
(-0.806689 0.000510163 0)
(-0.808003 0.00042486 0)
(-0.809097 0.000352337 0)
(-0.810001 0.000289392 0)
(-0.810738 0.000233651 0)
(-0.811327 0.000183295 0)
(-0.811779 0.000136904 0)
(-0.812105 9.33398e-05 0)
(-0.812311 5.16459e-05 0)
(-0.812401 1.09706e-05 0)
(-0.812378 -2.94718e-05 0)
(-0.812239 -7.04762e-05 0)
(-0.811984 -0.00011283 0)
(-0.811606 -0.000157402 0)
(-0.811099 -0.000205203 0)
(-0.810452 -0.000257451 0)
(-0.80965 -0.000315646 0)
(-0.808675 -0.000381703 0)
(-0.8075 -0.000458143 0)
(-0.806093 -0.000548391 0)
(-0.80441 -0.000657227 0)
(-0.802388 -0.000791565 0)
(-0.799945 -0.000961909 0)
(-0.796962 -0.0011853 0)
(-0.793261 -0.00149167 0)
(-0.788567 -0.00193815 0)
(-0.782426 -0.00264192 0)
(-0.774026 -0.00385457 0)
(-0.761851 -0.00612364 0)
(-0.743057 -0.0106036 0)
(-0.712303 -0.0195556 0)
(-0.65791 -0.0371113 0)
(-0.554191 -0.0705614 0)
(-0.388278 -0.12652 0)
(-0.291378 -0.153473 0)
(-0.00299518 0.299248 0)
(-0.0103493 0.289647 0)
(-0.12449 0.190407 0)
(-0.224224 0.115678 0)
(-0.294698 0.0692415 0)
(-0.343504 0.0422258 0)
(-0.377303 0.0269337 0)
(-0.401067 0.0181867 0)
(-0.41829 0.0129784 0)
(-0.431204 0.00970043 0)
(-0.441182 0.00751396 0)
(-0.449085 0.00597567 0)
(-0.455467 0.00484341 0)
(-0.460693 0.00397814 0)
(-0.465017 0.00329575 0)
(-0.468615 0.00274279 0)
(-0.471616 0.00228364 0)
(-0.474115 0.00189375 0)
(-0.476181 0.00155559 0)
(-0.477867 0.00125627 0)
(-0.479214 0.000985988 0)
(-0.48025 0.000737118 0)
(-0.480998 0.000503499 0)
(-0.481473 0.000279948 0)
(-0.481683 6.18888e-05 0)
(-0.481633 -0.00015491 0)
(-0.481322 -0.00037461 0)
(-0.480744 -0.000601503 0)
(-0.479887 -0.0008403 0)
(-0.478736 -0.00109644 0)
(-0.477265 -0.00137644 0)
(-0.475443 -0.0016884 0)
(-0.473226 -0.00204275 0)
(-0.470558 -0.00245324 0)
(-0.467361 -0.00293863 0)
(-0.463537 -0.00352515 0)
(-0.458947 -0.00425072 0)
(-0.453402 -0.00517225 0)
(-0.446636 -0.00637906 0)
(-0.438262 -0.00801841 0)
(-0.427701 -0.010346 0)
(-0.414063 -0.013826 0)
(-0.395944 -0.019325 0)
(-0.37111 -0.0284726 0)
(-0.336154 -0.0442329 0)
(-0.286341 -0.0715176 0)
(-0.215392 -0.117317 0)
(-0.116446 -0.189611 0)
(-0.00505182 -0.285104 0)
(9.19352e-05 -0.293405 0)
(0.0357952 0.248647 0)
(0.0785452 0.316353 0)
(0.0545744 0.25805 0)
(0.0074795 0.184565 0)
(-0.0404141 0.125401 0)
(-0.0813856 0.0845065 0)
(-0.113944 0.0580536 0)
(-0.139155 0.0412144 0)
(-0.158681 0.0303376 0)
(-0.173981 0.0230889 0)
(-0.186153 0.0180703 0)
(-0.195983 0.0144577 0)
(-0.204026 0.0117621 0)
(-0.210675 0.00968502 0)
(-0.216214 0.00803832 0)
(-0.220848 0.00669909 0)
(-0.224728 0.00558418 0)
(-0.227969 0.00463555 0)
(-0.230657 0.00381151 0)
(-0.232856 0.00308121 0)
(-0.234617 0.0024212 0)
(-0.235976 0.00181311 0)
(-0.23696 0.00124207 0)
(-0.237589 0.00069555 0)
(-0.237875 0.000162507 0)
(-0.237822 -0.000367309 0)
(-0.23743 -0.000903908 0)
(-0.236691 -0.00145767 0)
(-0.235593 -0.00203997 0)
(-0.234113 -0.00266383 0)
(-0.232223 -0.00334488 0)
(-0.229883 -0.00410247 0)
(-0.22704 -0.0049614 0)
(-0.223626 -0.00595434 0)
(-0.219549 -0.00712546 0)
(-0.21469 -0.00853612 0)
(-0.208891 -0.010274 0)
(-0.201938 -0.012468 0)
(-0.193539 -0.0153145 0)
(-0.183292 -0.0191223 0)
(-0.170636 -0.0243926 0)
(-0.15479 -0.0319582 0)
(-0.134686 -0.0432058 0)
(-0.108954 -0.0604037 0)
(-0.0761149 -0.0870043 0)
(-0.0353733 -0.127392 0)
(0.0115531 -0.184698 0)
(0.056837 -0.254505 0)
(0.0784729 -0.308366 0)
(0.0356051 -0.240366 0)
(0.0303841 0.178046 0)
(0.0828198 0.283101 0)
(0.105897 0.267763 0)
(0.100481 0.214316 0)
(0.080323 0.159639 0)
(0.0560129 0.116041 0)
(0.0327449 0.0846145 0)
(0.0123778 0.062799 0)
(-0.00479386 0.0477091 0)
(-0.0190736 0.0371105 0)
(-0.0309236 0.0294803 0)
(-0.040788 0.0238309 0)
(-0.049039 0.0195292 0)
(-0.0559728 0.0161658 0)
(-0.0618196 0.0134705 0)
(-0.0667573 0.0112608 0)
(-0.0709232 0.0094098 0)
(-0.0744234 0.00782721 0)
(-0.0773402 0.00644722 0)
(-0.0797374 0.00522056 0)
(-0.0816639 0.00410943 0)
(-0.083157 0.00308399 0)
(-0.0842443 0.00211992 0)
(-0.0849451 0.00119664 0)
(-0.0852719 0.000295959 0)
(-0.0852301 -0.000598999 0)
(-0.0848193 -0.00150475 0)
(-0.0840325 -0.00243836 0)
(-0.0828563 -0.00341845 0)
(-0.08127 -0.00446627 0)
(-0.0792446 -0.00560709 0)
(-0.0767414 -0.00687203 0)
(-0.0737096 -0.0083006 0)
(-0.0700837 -0.0099443 0)
(-0.0657798 -0.0118719 0)
(-0.0606898 -0.0141773 0)
(-0.054675 -0.0169921 0)
(-0.0475574 -0.0205045 0)
(-0.0391087 -0.0249908 0)
(-0.0290402 -0.0308653 0)
(-0.0169971 -0.0387606 0)
(-0.00256799 -0.0496484 0)
(0.014646 -0.0649983 0)
(0.0348445 -0.0869164 0)
(0.057594 -0.118034 0)
(0.0809283 -0.160507 0)
(0.099744 -0.212829 0)
(0.103851 -0.262793 0)
(0.0802347 -0.27507 0)
(0.0292998 -0.171619 0)
(0.0202624 0.128066 0)
(0.0651754 0.235199 0)
(0.103043 0.246315 0)
(0.119506 0.214429 0)
(0.119117 0.171816 0)
(0.109762 0.132974 0)
(0.096801 0.102113 0)
(0.0831889 0.0789543 0)
(0.0703409 0.0618887 0)
(0.0588047 0.0492771 0)
(0.0486938 0.0398255 0)
(0.0399338 0.0326061 0)
(0.0323848 0.0269755 0)
(0.0258958 0.022491 0)
(0.020328 0.0188454 0)
(0.0155618 0.0158227 0)
(0.0114971 0.0132679 0)
(0.00805238 0.011068 0)
(0.00516144 0.0091387 0)
(0.00277146 0.00741593 0)
(0.000840722 0.00584983 0)
(-0.000663147 0.00440061 0)
(-0.00176451 0.0030355 0)
(-0.00248075 0.00172658 0)
(-0.002823 0.000449077 0)
(-0.00279659 -0.00082008 0)
(-0.00240125 -0.00210345 0)
(-0.00163121 -0.00342432 0)
(-0.000474914 -0.00480789 0)
(0.00108542 -0.00628278 0)
(0.00307448 -0.00788266 0)
(0.00552486 -0.0096486 0)
(0.00847826 -0.0116321 0)
(0.0119872 -0.0138991 0)
(0.0161167 -0.0165364 0)
(0.0209466 -0.0196599 0)
(0.0265732 -0.0234274 0)
(0.0331102 -0.0280579 0)
(0.0406861 -0.0338596 0)
(0.0494348 -0.0412716 0)
(0.0594695 -0.0509232 0)
(0.070825 -0.063706 0)
(0.0833327 -0.0808395 0)
(0.0963824 -0.103823 0)
(0.108518 -0.134046 0)
(0.116844 -0.171523 0)
(0.116271 -0.211924 0)
(0.0994434 -0.241191 0)
(0.0623564 -0.228576 0)
(0.0193115 -0.123788 0)
(0.0124663 0.0950612 0)
(0.0461378 0.191377 0)
(0.0833059 0.215524 0)
(0.107412 0.20019 0)
(0.117617 0.170116 0)
(0.118325 0.138697 0)
(0.11357 0.111355 0)
(0.106159 0.0893175 0)
(0.0978189 0.0720978 0)
(0.0895014 0.0587421 0)
(0.0816765 0.0483301 0)
(0.0745432 0.0401194 0)
(0.0681587 0.0335494 0)
(0.0625098 0.0282078 0)
(0.057553 0.0237928 0)
(0.0532343 0.0200825 0)
(0.0494994 0.0169119 0)
(0.0462984 0.0141572 0)
(0.0435873 0.0117237 0)
(0.041329 0.00953787 0)
(0.039493 0.00754148 0)
(0.0380548 0.00568737 0)
(0.0369953 0.00393628 0)
(0.0363007 0.00225441 0)
(0.0359621 0.000611549 0)
(0.035975 -0.0010205 0)
(0.0363393 -0.00266935 0)
(0.0370593 -0.0043634 0)
(0.0381439 -0.00613322 0)
(0.0396064 -0.00801315 0)
(0.0414654 -0.0100432 0)
(0.0437446 -0.0122716 0)
(0.0464732 -0.0147575 0)
(0.0496867 -0.017576 0)
(0.0534258 -0.0208229 0)
(0.0577366 -0.0246237 0)
(0.0626672 -0.0291436 0)
(0.0682627 -0.0346038 0)
(0.0745539 -0.0413019 0)
(0.0815358 -0.0496396 0)
(0.0891276 -0.0601547 0)
(0.0971015 -0.0735464 0)
(0.104959 -0.0906602 0)
(0.111737 -0.112334 0)
(0.115743 -0.13891 0)
(0.114311 -0.169042 0)
(0.103696 -0.197379 0)
(0.0799005 -0.211039 0)
(0.0439749 -0.186436 0)
(0.0118509 -0.0923382 0)
(0.00756994 0.0734548 0)
(0.0315606 0.156669 0)
(0.062691 0.185717 0)
(0.0869381 0.181217 0)
(0.101284 0.161339 0)
(0.107561 0.137273 0)
(0.108287 0.114438 0)
(0.105613 0.0947844 0)
(0.1011 0.0785764 0)
(0.0957658 0.0654249 0)
(0.0902245 0.0547777 0)
(0.0848259 0.0461133 0)
(0.079757 0.0389973 0)
(0.0751081 0.0330856 0)
(0.0709143 0.0281111 0)
(0.0671802 0.0238679 0)
(0.0638946 0.0201969 0)
(0.0610393 0.0169744 0)
(0.058594 0.0141033 0)
(0.0565385 0.0115063 0)
(0.0548548 0.009121 0)
(0.0535273 0.00689599 0)
(0.0525436 0.00478777 0)
(0.0518941 0.00275849 0)
(0.0515726 0.000774076 0)
(0.0515756 -0.00119748 0)
(0.051903 -0.00318751 0)
(0.0525575 -0.00522815 0)
(0.0535448 -0.00735375 0)
(0.0548735 -0.00960251 0)
(0.0565552 -0.0120184 0)
(0.058604 -0.0146533 0)
(0.061036 -0.0175704 0)
(0.0638687 -0.0208472 0)
(0.067119 -0.0245812 0)
(0.0708004 -0.0288957 0)
(0.0749176 -0.0339482 0)
(0.0794573 -0.0399408 0)
(0.0843734 -0.0471329 0)
(0.0895621 -0.0558542 0)
(0.0948214 -0.0665144 0)
(0.0997883 -0.0795942 0)
(0.103845 -0.0955854 0)
(0.105997 -0.1148 0)
(0.104751 -0.136897 0)
(0.0980997 -0.159911 0)
(0.0837469 -0.178574 0)
(0.060091 -0.182136 0)
(0.0301311 -0.153172 0)
(0.00722033 -0.0717459 0)
(0.00473688 0.0592196 0)
(0.0217061 0.130629 0)
(0.0462098 0.160336 0)
(0.0676311 0.162255 0)
(0.082546 0.149784 0)
(0.0912964 0.1319 0)
(0.0952202 0.113459 0)
(0.095761 0.0966027 0)
(0.0941372 0.0820002 0)
(0.0912476 0.0696468 0)
(0.0877063 0.059284 0)
(0.0839135 0.050592 0)
(0.080121 0.0432675 0)
(0.0764819 0.0370485 0)
(0.0730855 0.0317178 0)
(0.0699808 0.027099 0)
(0.0671919 0.0230497 0)
(0.0647281 0.019455 0)
(0.0625899 0.0162221 0)
(0.0607733 0.013275 0)
(0.0592724 0.0105509 0)
(0.0580805 0.00799716 0)
(0.0571918 0.00556836 0)
(0.0566012 0.00322457 0)
(0.0563052 0.000929452 0)
(0.0563018 -0.0013513 0)
(0.0565907 -0.00365136 0)
(0.057173 -0.00600507 0)
(0.0580514 -0.00844894 0)
(0.0592298 -0.0110231 0)
(0.060713 -0.0137729 0)
(0.0625059 -0.0167515 0)
(0.0646125 -0.0200214 0)
(0.0670339 -0.0236583 0)
(0.0697664 -0.0277544 0)
(0.0727963 -0.0324229 0)
(0.0760942 -0.0378031 0)
(0.0796043 -0.0440659 0)
(0.08323 -0.0514193 0)
(0.0868102 -0.0601107 0)
(0.0900871 -0.0704209 0)
(0.0926601 -0.0826371 0)
(0.0939274 -0.0969764 0)
(0.0930256 -0.113399 0)
(0.088807 -0.131211 0)
(0.0799394 -0.148307 0)
(0.0652223 -0.159989 0)
(0.044412 -0.157603 0)
(0.020821 -0.12819 0)
(0.00454809 -0.0581247 0)
(0.00312945 0.0495515 0)
(0.0153399 0.1113 0)
(0.0342788 0.139781 0)
(0.0522224 0.145228 0)
(0.066083 0.137823 0)
(0.0754873 0.124729 0)
(0.0810107 0.11009 0)
(0.0835306 0.0959513 0)
(0.0839125 0.083145 0)
(0.0828711 0.0718906 0)
(0.0809449 0.0621329 0)
(0.0785199 0.0537107 0)
(0.0758637 0.0464353 0)
(0.0731575 0.040124 0)
(0.0705214 0.034613 0)
(0.0680332 0.0297612 0)
(0.0657421 0.0254487 0)
(0.0636783 0.0215754 0)
(0.0618593 0.0180569 0)
(0.0602947 0.0148227 0)
(0.0589892 0.0118129 0)
(0.0579441 0.00897575 0)
(0.0571597 0.0062664 0)
(0.056635 0.00364451 0)
(0.0563693 0.00107305 0)
(0.0563619 -0.00148318 0)
(0.0566123 -0.00405874 0)
(0.0571203 -0.00668883 0)
(0.0578858 -0.0094105 0)
(0.0589086 -0.012264 0)
(0.0601874 -0.0152943 0)
(0.0617189 -0.0185527 0)
(0.0634967 -0.0220986 0)
(0.0655089 -0.0260018 0)
(0.067735 -0.0303452 0)
(0.0701417 -0.0352266 0)
(0.0726756 -0.0407618 0)
(0.0752549 -0.0470861 0)
(0.0777554 -0.0543543 0)
(0.0799932 -0.0627362 0)
(0.0817011 -0.0724025 0)
(0.0825 -0.0834914 0)
(0.0818699 -0.0960327 0)
(0.0791318 -0.109787 0)
(0.0734772 -0.123927 0)
(0.0641035 -0.136459 0)
(0.0505072 -0.143373 0)
(0.0330845 -0.137724 0)
(0.0148 -0.109579 0)
(0.00302704 -0.0488166 0)
(0.00219738 0.0426881 0)
(0.0112368 0.0967866 0)
(0.0259278 0.123384 0)
(0.0406706 0.130626 0)
(0.0529178 0.12658 0)
(0.0620307 0.117042 0)
(0.0681504 0.105493 0)
(0.0717599 0.0937635 0)
(0.0734347 0.0827057 0)
(0.0737056 0.072647 0)
(0.0730091 0.0636574 0)
(0.0716837 0.0556878 0)
(0.0699824 0.0486391 0)
(0.0680895 0.0423964 0)
(0.066137 0.0368454 0)
(0.0642177 0.03188 0)
(0.0623963 0.0274054 0)
(0.0607171 0.023338 0)
(0.05921 0.0196055 0)
(0.0578951 0.0161448 0)
(0.0567854 0.0129012 0)
(0.055889 0.00982628 0)
(0.0552112 0.00687712 0)
(0.0547548 0.00401461 0)
(0.0545214 0.00120238 0)
(0.0545113 -0.00159435 0)
(0.0547242 -0.0044098 0)
(0.0551588 -0.00727872 0)
(0.0558125 -0.0102374 0)
(0.0566815 -0.0133247 0)
(0.0577595 -0.0165834 0)
(0.0590367 -0.0200612 0)
(0.0604986 -0.0238123 0)
(0.0621234 -0.0278983 0)
(0.0638788 -0.03239 0)
(0.0657184 -0.0373679 0)
(0.067575 -0.0429232 0)
(0.0693537 -0.0491562 0)
(0.0709213 -0.0561734 0)
(0.0720941 -0.0640793 0)
(0.0726233 -0.07296 0)
(0.0721802 -0.0828499 0)
(0.0703469 -0.0936657 0)
(0.0666227 -0.105075 0)
(0.0604727 -0.116243 0)
(0.0514586 -0.125389 0)
(0.0394707 -0.129137 0)
(0.0251368 -0.12183 0)
(0.0109007 -0.0955411 0)
(0.00213898 -0.0421677 0)
(0.00162907 0.037595 0)
(0.00852709 0.0856605 0)
(0.0200753 0.11028 0)
(0.0321503 0.118331 0)
(0.0427245 0.11648 0)
(0.0511181 0.10953 0)
(0.057251 0.100408 0)
(0.0613559 0.0907107 0)
(0.0637948 0.0812349 0)
(0.0649431 0.0723439 0)
(0.0651369 0.0641753 0)
(0.0646555 0.0567521 0)
(0.0637217 0.0500398 0)
(0.0625075 0.0439764 0)
(0.0611434 0.0384895 0)
(0.059727 0.0335048 0)
(0.0583301 0.0289512 0)
(0.0570051 0.0247628 0)
(0.0557899 0.0208795 0)
(0.0547118 0.0172478 0)
(0.0537898 0.0138191 0)
(0.0530374 0.0105499 0)
(0.0524637 0.00740054 0)
(0.0520746 0.00433423 0)
(0.0518735 0.00131644 0)
(0.0518617 -0.00168612 0)
(0.052039 -0.00470629 0)
(0.052403 -0.00777729 0)
(0.0529495 -0.0109335 0)
(0.0536717 -0.0142114 0)
(0.0545594 -0.0176502 0)
(0.0555982 -0.0212928 0)
(0.0567676 -0.0251868 0)
(0.058039 -0.0293844 0)
(0.059373 -0.0339438 0)
(0.060716 -0.038928 0)
(0.0619947 -0.0444046 0)
(0.0631113 -0.050443 0)
(0.0639358 -0.0571095 0)
(0.0642986 -0.0644581 0)
(0.0639827 -0.0725147 0)
(0.0627188 -0.0812478 0)
(0.060187 -0.0905144 0)
(0.0560344 -0.0999545 0)
(0.0499258 -0.10879 0)
(0.0416528 -0.11547 0)
(0.0313052 -0.117141 0)
(0.0195406 -0.109091 0)
(0.00830904 -0.0847331 0)
(0.001593 -0.0372086 0)
(0.00125931 0.0336723 0)
(0.00666727 0.0769388 0)
(0.0158901 0.099712 0)
(0.0258199 0.108032 0)
(0.0348597 0.107609 0)
(0.0423838 0.102528 0)
(0.0482155 0.0952824 0)
(0.052439 0.0872489 0)
(0.0552694 0.0791446 0)
(0.0569628 0.0713268 0)
(0.0577683 0.0639624 0)
(0.0579072 0.0571164 0)
(0.0575663 0.0507972 0)
(0.0568976 0.044982 0)
(0.0560222 0.0396311 0)
(0.0550348 0.0346971 0)
(0.0540083 0.0301299 0)
(0.0529984 0.02588 0)
(0.0520471 0.0219 0)
(0.0511859 0.0181458 0)
(0.050438 0.014576 0)
(0.0498202 0.0111526 0)
(0.0493447 0.0078401 0)
(0.0490194 0.00460494 0)
(0.0488493 0.00141524 0)
(0.0488364 -0.00175996 0)
(0.0489805 -0.00495128 0)
(0.0492787 -0.00818958 0)
(0.0497253 -0.0115066 0)
(0.0503115 -0.0149353 0)
(0.0510244 -0.018511 0)
(0.0518463 -0.0222708 0)
(0.052753 -0.0262551 0)
(0.0537121 -0.0305066 0)
(0.0546809 -0.0350709 0)
(0.0556029 -0.0399951 0)
(0.0564049 -0.045326 0)
(0.0569928 -0.0511073 0)
(0.0572471 -0.0573736 0)
(0.057019 -0.0641426 0)
(0.0561276 -0.0714004 0)
(0.0543607 -0.0790777 0)
(0.0514818 -0.087007 0)
(0.0472507 -0.0948373 0)
(0.041469 -0.101871 0)
(0.0340644 -0.106765 0)
(0.0252126 -0.107079 0)
(0.0155169 -0.0987888 0)
(0.00651849 -0.0762298 0)
(0.00123505 -0.033375 0)
(0.00100259 0.0305643 0)
(0.005335 0.0699644 0)
(0.01281 0.0910961 0)
(0.021028 0.0993984 0)
(0.0287283 0.0999046 0)
(0.0353699 0.0961755 0)
(0.0407465 0.0903681 0)
(0.0448598 0.0836754 0)
(0.047829 0.0767293 0)
(0.0498229 0.0698615 0)
(0.0510213 0.063245 0)
(0.0515943 0.0569657 0)
(0.0516932 0.0510585 0)
(0.0514474 0.0455275 0)
(0.0509643 0.0403577 0)
(0.0503312 0.0355228 0)
(0.0496179 0.0309906 0)
(0.0488798 0.0267261 0)
(0.04816 0.0226936 0)
(0.0474918 0.018858 0)
(0.0469005 0.0151855 0)
(0.0464051 0.0116437 0)
(0.0460194 0.00820165 0)
(0.0457529 0.0048298 0)
(0.0456116 0.00149943 0)
(0.0455981 -0.00181752 0)
(0.0457121 -0.00514885 0)
(0.0459504 -0.0085225 0)
(0.0463063 -0.0119669 0)
(0.0467698 -0.0155114 0)
(0.0473263 -0.0191862 0)
(0.0479564 -0.0230232 0)
(0.0486339 -0.027055 0)
(0.0493252 -0.0313155 0)
(0.0499865 -0.0358386 0)
(0.0505627 -0.0406574 0)
(0.0509841 -0.0458015 0)
(0.0511644 -0.051294 0)
(0.0509983 -0.0571466 0)
(0.05036 -0.0633518 0)
(0.0491033 -0.0698715 0)
(0.0470656 -0.0766182 0)
(0.0440766 -0.0834206 0)
(0.0399781 -0.0899544 0)
(0.0346608 -0.0956038 0)
(0.0281277 -0.0992029 0)
(0.0205804 -0.0986317 0)
(0.0125403 -0.0903684 0)
(0.00522844 -0.0694103 0)
(0.000985059 -0.0303296 0)
(0.000814145 0.0280512 0)
(0.00434118 0.0642974 0)
(0.0104727 0.084001 0)
(0.0173159 0.0921422 0)
(0.0238683 0.0932534 0)
(0.0296756 0.0905058 0)
(0.0345348 0.0857997 0)
(0.0384055 0.0801778 0)
(0.0413466 0.0741938 0)
(0.0434661 0.0681465 0)
(0.0448904 0.0622021 0)
(0.0457476 0.056454 0)
(0.0461574 0.050952 0)
(0.0462265 0.0457173 0)
(0.0460473 0.0407524 0)
(0.0456974 0.0360474 0)
(0.0452412 0.0315843 0)
(0.0447308 0.0273402 0)
(0.0442083 0.0232898 0)
(0.043707 0.0194066 0)
(0.0432528 0.0156636 0)
(0.0428656 0.0120343 0)
(0.0425599 0.00849263 0)
(0.0423462 0.00501293 0)
(0.042231 0.0015701 0)
(0.0422171 -0.00186062 0)
(0.0423045 -0.00530386 0)
(0.0424895 -0.00878426 0)
(0.0427653 -0.0123267 0)
(0.0431209 -0.0159564 0)
(0.0435413 -0.019699 0)
(0.0440063 -0.0235803 0)
(0.0444894 -0.0276263 0)
(0.0449572 -0.0318623 0)
(0.0453676 -0.0363125 0)
(0.0456686 -0.0409977 0)
(0.0457966 -0.0459339 0)
(0.0456752 -0.051129 0)
(0.0452143 -0.0565782 0)
(0.0443104 -0.0622579 0)
(0.042848 -0.0681169 0)
(0.0407051 -0.0740619 0)
(0.0377619 -0.0799293 0)
(0.0339174 -0.0854274 0)
(0.0291182 -0.0900156 0)
(0.0234059 -0.0926715 0)
(0.0169774 -0.0915212 0)
(0.0102711 -0.0834202 0)
(0.00426163 -0.0638571 0)
(0.000800787 -0.0278627 0)
(0.000669523 0.0259905 0)
(0.00357287 0.059638 0)
(0.008646 0.0781121 0)
(0.0143708 0.0860271 0)
(0.0199427 0.0875322 0)
(0.0249859 0.0855026 0)
(0.0293151 0.0816409 0)
(0.0328715 0.0768701 0)
(0.0356776 0.0716769 0)
(0.0377997 0.0663264 0)
(0.0393254 0.0609718 0)
(0.0403491 0.0557063 0)
(0.0409637 0.0505862 0)
(0.0412557 0.0456431 0)
(0.0413024 0.0408913 0)
(0.041171 0.0363326 0)
(0.0409186 0.0319602 0)
(0.0405933 0.0277613 0)
(0.0402343 0.0237191 0)
(0.0398734 0.0198148 0)
(0.0395361 0.0160279 0)
(0.0392419 0.0123372 0)
(0.0390058 0.00872145 0)
(0.0388382 0.00515904 0)
(0.0387459 0.00162861 0)
(0.0387319 -0.00189118 0)
(0.0387963 -0.00542159 0)
(0.0389353 -0.00898383 0)
(0.0391419 -0.0125991 0)
(0.0394052 -0.0162885 0)
(0.0397102 -0.020073 0)
(0.0400368 -0.023973 0)
(0.0403596 -0.0280083 0)
(0.0406467 -0.0321967 0)
(0.0408589 -0.0365537 0)
(0.0409488 -0.0410909 0)
(0.0408602 -0.0458134 0)
(0.040527 -0.050718 0)
(0.039874 -0.0557889 0)
(0.0388176 -0.0609932 0)
(0.0372685 -0.0662741 0)
(0.0351365 -0.0715393 0)
(0.0323389 -0.0766385 0)
(0.0288136 -0.0813128 0)
(0.0245412 -0.0850859 0)
(0.0195796 -0.0870502 0)
(0.0141083 -0.0855216 0)
(0.00849082 -0.0776441 0)
(0.00351145 -0.059284 0)
(0.000658965 -0.0258375 0)
(0.000554543 0.0242859 0)
(0.00296024 0.0557775 0)
(0.00717905 0.0731992 0)
(0.011979 0.0808666 0)
(0.0167097 0.0826273 0)
(0.0210622 0.0811266 0)
(0.0248741 0.0779144 0)
(0.0280816 0.0738188 0)
(0.030686 0.0692708 0)
(0.0327263 0.0645048 0)
(0.0342617 0.0596589 0)
(0.0353611 0.0548216 0)
(0.0360954 0.0500507 0)
(0.0365335 0.0453833 0)
(0.0367389 0.0408412 0)
(0.0367684 0.0364345 0)
(0.0366718 0.0321647 0)
(0.0364918 0.0280267 0)
(0.0362639 0.0240114 0)
(0.0360178 0.0201061 0)
(0.0357773 0.0162961 0)
(0.0355611 0.0125654 0)
(0.0353838 0.00889689 0)
(0.0352554 0.00527317 0)
(0.0351828 0.00167646 0)
(0.0351689 -0.00191114 0)
(0.0352138 -0.0055075 0)
(0.035314 -0.00913041 0)
(0.0354626 -0.0127974 0)
(0.035649 -0.0165258 0)
(0.0358588 -0.0203319 0)
(0.036073 -0.0242315 0)
(0.0362677 -0.0282383 0)
(0.0364137 -0.0323643 0)
(0.0364754 -0.0366179 0)
(0.0364108 -0.0410028 0)
(0.0361712 -0.0455166 0)
(0.0357009 -0.0501479 0)
(0.0349382 -0.0548743 0)
(0.0338167 -0.059658 0)
(0.0322681 -0.0644412 0)
(0.0302268 -0.0691369 0)
(0.0276368 -0.0736094 0)
(0.0244618 -0.0776297 0)
(0.0207018 -0.080775 0)
(0.0164192 -0.0822284 0)
(0.0117709 -0.0804538 0)
(0.0070565 -0.0728198 0)
(0.00291151 -0.0554907 0)
(0.000545985 -0.0241611 0)
(0.00046044 0.02287 0)
(0.00245833 0.052567 0)
(0.00597132 0.0690926 0)
(0.0099932 0.076515 0)
(0.0139955 0.0784401 0)
(0.0177253 0.0773318 0)
(0.0210441 0.0746206 0)
(0.0238899 0.0710598 0)
(0.0262528 0.0670354 0)
(0.0281539 0.0627548 0)
(0.0296327 0.0583416 0)
(0.0307386 0.0538771 0)
(0.0315253 0.049418 0)
(0.0320466 0.0450036 0)
(0.0323541 0.0406599 0)
(0.0324949 0.0364026 0)
(0.0325114 0.0322393 0)
(0.0324406 0.0281712 0)
(0.0323141 0.0241948 0)
(0.0321586 0.0203028 0)
(0.0319959 0.0164856 0)
(0.0318432 0.0127315 0)
(0.0317141 0.0090277 0)
(0.0316183 0.00536036 0)
(0.0315621 0.00171519 0)
(0.0315485 -0.00192237 0)
(0.0315775 -0.00556696 0)
(0.0316458 -0.00923307 0)
(0.031747 -0.0129348 0)
(0.0318712 -0.0166857 0)
(0.032005 -0.0204983 0)
(0.0321309 -0.0243836 0)
(0.0322272 -0.0283509 0)
(0.0322676 -0.0324067 0)
(0.0322209 -0.0365537 0)
(0.0320506 -0.04079 0)
(0.0317153 -0.0451073 0)
(0.031169 -0.0494891 0)
(0.0303617 -0.0539089 0)
(0.0292414 -0.0583272 0)
(0.0277566 -0.0626879 0)
(0.0258601 -0.0669108 0)
(0.0235147 -0.0708748 0)
(0.0207008 -0.0743768 0)
(0.0174288 -0.0770371 0)
(0.0137587 -0.0781107 0)
(0.00982465 -0.0761777 0)
(0.00587231 -0.0687841 0)
(0.00241876 -0.0523337 0)
(0.000453368 -0.0227678 0)
(0.000381474 0.0216939 0)
(0.00203698 0.049898 0)
(0.00495381 0.0656655 0)
(0.00830913 0.0728588 0)
(0.0116733 0.0748879 0)
(0.0148402 0.0740724 0)
(0.0176937 0.0717484 0)
(0.0201775 0.0686106 0)
(0.0222763 0.0650087 0)
(0.0240001 0.0611276 0)
(0.0253746 0.0570775 0)
(0.026435 0.0529325 0)
(0.0272213 0.0487461 0)
(0.0277753 0.0445578 0)
(0.028138 0.0403959 0)
(0.0283479 0.0362797 0)
(0.0284406 0.0322211 0)
(0.0284473 0.0282258 0)
(0.0283956 0.0242949 0)
(0.0283087 0.0204256 0)
(0.0282061 0.0166125 0)
(0.0281034 0.0128478 0)
(0.0280127 0.00912229 0)
(0.027943 0.00542549 0)
(0.0279001 0.00174634 0)
(0.0278869 -0.00192666 0)
(0.0279033 -0.00560511 0)
(0.0279463 -0.00930044 0)
(0.0280101 -0.0130236 0)
(0.0280857 -0.0167847 0)
(0.028161 -0.0205928 0)
(0.0282205 -0.0244552 0)
(0.0282448 -0.0283769 0)
(0.028211 -0.0323601 0)
(0.0280921 -0.0364033 0)
(0.0278573 -0.0405 0)
(0.0274721 -0.044638 0)
(0.0268988 -0.0487974 0)
(0.0260977 -0.0529499 0)
(0.0250285 -0.0570559 0)
(0.0236529 -0.0610624 0)
(0.0219372 -0.0648966 0)
(0.0198573 -0.0684504 0)
(0.0174039 -0.0715423 0)
(0.0145922 -0.0738274 0)
(0.0114768 -0.0746173 0)
(0.00816991 -0.0725838 0)
(0.00487212 -0.065415 0)
(0.00200417 -0.0497085 0)
(0.000375523 -0.0216105 0)
(0.000313685 0.0207219 0)
(0.00167518 0.0476905 0)
(0.00407774 0.0628225 0)
(0.00685166 0.0698097 0)
(0.00964928 0.0719031 0)
(0.0123038 0.0713066 0)
(0.0147194 0.0692817 0)
(0.0168473 0.0664772 0)
(0.0186703 0.0632138 0)
(0.020192 0.0596583 0)
(0.0214285 0.055909 0)
(0.0224047 0.052033 0)
(0.0231499 0.0480804 0)
(0.0236963 0.0440895 0)
(0.024076 0.0400896 0)
(0.0243201 0.0361021 0)
(0.0244575 0.0321418 0)
(0.0245144 0.0282178 0)
(0.024514 0.0243347 0)
(0.0244763 0.0204934 0)
(0.0244181 0.0166918 0)
(0.024353 0.0129255 0)
(0.0242918 0.00918845 0)
(0.0242424 0.00547315 0)
(0.0242099 0.00177137 0)
(0.0241971 -0.0019256 0)
(0.0242037 -0.00562662 0)
(0.0242274 -0.00934037 0)
(0.0242627 -0.013075 0)
(0.0243021 -0.0168376 0)
(0.0243346 -0.0206342 0)
(0.0243469 -0.0244687 0)
(0.0243223 -0.0283431 0)
(0.0242412 -0.0322558 0)
(0.024081 -0.0362021 0)
(0.0238159 -0.0401722 0)
(0.0234178 -0.0441511 0)
(0.0228565 -0.0481171 0)
(0.0221008 -0.052041 0)
(0.02112 -0.0558845 0)
(0.0198856 -0.0595982 0)
(0.0183742 -0.063116 0)
(0.0165704 -0.0663413 0)
(0.0144711 -0.0691102 0)
(0.0120929 -0.0711053 0)
(0.0094831 -0.0716829 0)
(0.00673439 -0.0695872 0)
(0.00400895 -0.0626203 0)
(0.00164744 -0.0475375 0)
(0.000308591 -0.0206542 0)
(0.000254224 0.0199271 0)
(0.0013578 0.0458846 0)
(0.00330758 0.0604913 0)
(0.00556516 0.0672994 0)
(0.00785242 0.0694311 0)
(0.0100362 0.0689982 0)
(0.012039 0.0672034 0)
(0.0138198 0.0646593 0)
(0.0153622 0.0616644 0)
(0.0166659 0.0583706 0)
(0.0177407 0.0548665 0)
(0.018604 0.051213 0)
(0.0192772 0.0474564 0)
(0.0197845 0.0436337 0)
(0.0201506 0.039774 0)
(0.0204001 0.0359 0)
(0.0205562 0.0320283 0)
(0.0206402 0.0281706 0)
(0.0206712 0.0243341 0)
(0.0206659 0.0205225 0)
(0.0206383 0.0167366 0)
(0.0206 0.0129747 0)
(0.0205603 0.00923326 0)
(0.020526 0.00550753 0)
(0.0205014 0.0017917 0)
(0.0204889 -0.00192054 0)
(0.0204885 -0.00563564 0)
(0.0204979 -0.00935987 0)
(0.0205128 -0.0130989 0)
(0.0205265 -0.0168574 0)
(0.0205299 -0.0206386 0)
(0.0205116 -0.024444 0)
(0.0204577 -0.0282725 0)
(0.020352 -0.0321203 0)
(0.0201758 -0.0359796 0)
(0.0199083 -0.0398386 0)
(0.019527 -0.0436804 0)
(0.0190082 -0.0474823 0)
(0.0183279 -0.0512152 0)
(0.0174628 -0.0548423 0)
(0.0163924 -0.0583177 0)
(0.0151002 -0.0615817 0)
(0.0135768 -0.0645469 0)
(0.0118227 -0.0670634 0)
(0.00985361 -0.0688356 0)
(0.00770923 -0.0692545 0)
(0.00546438 -0.0671218 0)
(0.00324848 -0.0603303 0)
(0.00133389 -0.0457626 0)
(0.000249796 -0.019873 0)
(0.000200987 0.0192896 0)
(0.0010736 0.0444354 0)
(0.00261674 0.0586174 0)
(0.0044074 0.065275 0)
(0.00622798 0.0674284 0)
(0.00797455 0.0671167 0)
(0.0095861 0.0654968 0)
(0.0110294 0.0631535 0)
(0.01229 0.060368 0)
(0.0133658 0.0572805 0)
(0.0142626 0.053972 0)
(0.0149922 0.0504979 0)
(0.01557 0.0469014 0)
(0.0160138 0.0432177 0)
(0.0163423 0.0394755 0)
(0.0165744 0.0356979 0)
(0.016728 0.0319029 0)
(0.0168202 0.0281039 0)
(0.016866 0.02431 0)
(0.0168788 0.0205272 0)
(0.0168702 0.0167583 0)
(0.0168496 0.013004 0)
(0.0168246 0.00926288 0)
(0.0168008 0.00553229 0)
(0.0167819 0.00180851 0)
(0.0167697 -0.00191271 0)
(0.0167644 -0.00563582 0)
(0.0167641 -0.00936505 0)
(0.0167653 -0.013104 0)
(0.0167623 -0.0168553 0)
(0.016748 -0.02062 0)
(0.0167129 -0.0243975 0)
(0.016646 -0.0281845 0)
(0.0165342 -0.0319751 0)
(0.0163626 -0.0357597 0)
(0.016115 -0.0395249 0)
(0.0157739 -0.0432525 0)
(0.0153211 -0.0469194 0)
(0.0147385 -0.0504969 0)
(0.0140092 -0.05395 0)
(0.0131182 -0.0572362 0)
(0.0120545 -0.0603005 0)
(0.0108124 -0.0630634 0)
(0.00939412 -0.0653857 0)
(0.00781336 -0.0669888 0)
(0.00610204 -0.0672903 0)
(0.00431893 -0.0651366 0)
(0.00256486 -0.058492 0)
(0.00105255 -0.0443404 0)
(0.000197067 -0.0192474 0)
(0.000152361 0.0187945 0)
(0.000813917 0.0433096 0)
(0.00198464 0.0571596 0)
(0.00334539 0.0636964 0)
(0.00473255 0.0658612 0)
(0.00606811 0.0656375 0)
(0.00730603 0.0641474 0)
(0.00842069 0.061955 0)
(0.00940042 0.059328 0)
(0.0102425 0.0563984 0)
(0.0109501 0.0532408 0)
(0.0115312 0.0499066 0)
(0.0119964 0.0464359 0)
(0.0123584 0.0428626 0)
(0.0126308 0.0392146 0)
(0.0128276 0.0355154 0)
(0.0129622 0.0317835 0)
(0.0130473 0.0280336 0)
(0.0130945 0.0242762 0)
(0.0131142 0.0205189 0)
(0.0131151 0.0167663 0)
(0.0131046 0.0130207 0)
(0.0130886 0.00928241 0)
(0.0130716 0.00555047 0)
(0.0130564 0.00182283 0)
(0.0130446 -0.00190313 0)
(0.0130362 -0.00563021 0)
(0.0130298 -0.00936101 0)
(0.0130226 -0.0130975 0)
(0.0130105 -0.0168406 0)
(0.0129877 -0.0205898 0)
(0.0129471 -0.0243428 0)
(0.0128801 -0.0280946 0)
(0.0127768 -0.0318378 0)
(0.012626 -0.0355615 0)
(0.0124155 -0.039251 0)
(0.0121324 -0.0428876 0)
(0.0117632 -0.046448 0)
(0.011295 -0.0499041 0)
(0.0107156 -0.0532226 0)
(0.0100147 -0.0563634 0)
(0.00918501 -0.0592759 0)
(0.00822331 -0.061886 0)
(0.00713221 -0.0640633 0)
(0.00592274 -0.0655411 0)
(0.00461929 -0.0657575 0)
(0.00326594 -0.0635927 0)
(0.00193803 -0.0570659 0)
(0.000794956 -0.0432386 0)
(0.000148812 -0.0187628 0)
(0.00010705 0.0184309 0)
(0.000571856 0.0424827 0)
(0.00139481 0.0560877 0)
(0.00235252 0.0625335 0)
(0.00333069 0.0647037 0)
(0.00427492 0.0645413 0)
(0.00515289 0.0631433 0)
(0.00594643 0.0610587 0)
(0.0066469 0.0585461 0)
(0.00725183 0.055731 0)
(0.00776297 0.0526837 0)
(0.00818517 0.0494524 0)
(0.00852547 0.046075 0)
(0.00879235 0.0425841 0)
(0.0089951 0.0390071 0)
(0.00914326 0.0353674 0)
(0.00924623 0.031684 0)
(0.00931287 0.0279722 0)
(0.00935135 0.0242437 0)
(0.00936895 0.0205071 0)
(0.00937198 0.0167683 0)
(0.00936573 0.0130307 0)
(0.00935442 0.00929607 0)
(0.00934122 0.00556462 0)
(0.00932828 0.00183556 0)
(0.0093167 -0.00189251 0)
(0.00930653 -0.00562116 0)
(0.00929684 -0.00935176 0)
(0.00928565 -0.013085 0)
(0.00927 -0.0168207 0)
(0.00924585 -0.0205571 0)
(0.00920817 -0.0242904 0)
(0.00915098 -0.0280149 0)
(0.00906732 -0.0317218 0)
(0.00894943 -0.0353993 0)
(0.00878887 -0.0390321 0)
(0.00857673 -0.042601 0)
(0.00830397 -0.0460827 0)
(0.00796179 -0.0494498 0)
(0.00754216 -0.0526702 0)
(0.00703841 -0.0557058 0)
(0.00644593 -0.0585091 0)
(0.00576302 -0.0610102 0)
(0.00499195 -0.0630844 0)
(0.00414071 -0.0644741 0)
(0.00322635 -0.0646316 0)
(0.0022794 -0.0624615 0)
(0.0013519 -0.0560226 0)
(0.000554359 -0.0424333 0)
(0.000103758 -0.0184089 0)
(6.39718e-05 0.0181912 0)
(0.000341688 0.0419374 0)
(0.000833576 0.0553803 0)
(0.00140654 0.061765 0)
(0.00199253 0.0639374 0)
(0.00255911 0.0638139 0)
(0.00308693 0.0624753 0)
(0.00356496 0.0604606 0)
(0.00398784 0.0580225 0)
(0.00435385 0.0552825 0)
(0.00466381 0.0523078 0)
(0.00492037 0.0491445 0)
(0.00512757 0.0458293 0)
(0.00529032 0.0423935 0)
(0.00541404 0.0388643 0)
(0.00550439 0.0352648 0)
(0.00556694 0.0316145 0)
(0.005607 0.0279289 0)
(0.00562948 0.0242205 0)
(0.00563876 0.0204986 0)
(0.00563867 0.0167698 0)
(0.00563242 0.0130385 0)
(0.00562258 0.00930708 0)
(0.00561109 0.00557671 0)
(0.00559928 0.00184741 0)
(0.00558787 -0.00188138 0)
(0.00557691 -0.00561042 0)
(0.00556588 -0.00934027 0)
(0.00555365 -0.0130708 0)
(0.00553847 -0.016801 0)
(0.00551798 -0.0205283 0)
(0.00548923 -0.0242483 0)
(0.00544872 -0.0279542 0)
(0.00539239 -0.0316368 0)
(0.00531573 -0.0352835 0)
(0.00521383 -0.0388788 0)
(0.00508157 -0.0424032 0)
(0.00491377 -0.0458335 0)
(0.00470541 -0.0491427 0)
(0.00445196 -0.0522995 0)
(0.00414972 -0.0552673 0)