/*--------------------------------*- C++ -*----------------------------------*\
  =========                 |
  \\      /  F ield         | OpenFOAM: The Open Source CFD Toolbox
   \\    /   O peration     | Website:  https://openfoam.org
    \\  /    A nd           | Version:  7
     \\/     M anipulation  |
\*---------------------------------------------------------------------------*/
FoamFile
{
    version     2.0;
    format      ascii;
    class       volScalarField;
    location    "0.0242";
    object      p;
}
// * * * * * * * * * * * * * * * * * * * * * * * * * * * * * * * * * * * * * //

dimensions      [0 2 -2 0 0 0 0];

internalField   nonuniform List<scalar> 
2500
(
4.35191e-07
-0.000544299
-0.00193217
-0.00385061
-0.005981
-0.00807221
-0.00994303
-0.0114565
-0.0125149
-0.0130516
-0.0130247
-0.0124113
-0.0112049
-0.00941148
-0.00704789
-0.00413942
-0.000718635
0.00317592
0.00750095
0.012209
0.0172492
0.0225679
0.028109
0.0338143
0.0396243
0.045478
0.0513133
0.057068
0.0626795
0.0680859
0.073226
0.0780405
0.0824722
0.0864677
0.089978
0.0929594
0.0953755
0.0971985
0.0984108
0.0990071
0.0989969
0.0984072
0.0972858
0.0957063
0.0937738
0.0916321
0.0894656
0.0875321
0.0861497
0.0856215
0.000546048
5.27934e-06
-0.00111965
-0.00259796
-0.00423533
-0.00584486
-0.00727832
-0.00841975
-0.00918131
-0.00949947
-0.0093312
-0.00865079
-0.00744707
-0.00572094
-0.00348353
-0.000754531
0.00243919
0.00606462
0.0100838
0.0144544
0.0191304
0.0240629
0.0292003
0.0344892
0.0398741
0.0452985
0.0507051
0.0560361
0.0612339
0.0662415
0.0710032
0.0754649
0.0795757
0.0832879
0.0865587
0.0893509
0.0916343
0.0933871
0.0945976
0.0952656
0.0954046
0.0950439
0.0942314
0.0930361
0.0915519
0.0899
0.0882317
0.0867338
0.0856186
0.0850933
0.00193793
0.00112836
-1.40133e-06
-0.00133574
-0.00275436
-0.00411897
-0.00531147
-0.00623635
-0.00681809
-0.00699974
-0.00674127
-0.00601752
-0.00481617
-0.00313593
-0.000985013
0.00162017
0.00465626
0.00809388
0.0118987
0.016032
0.0204513
0.0251111
0.0299632
0.0349575
0.040042
0.0451634
0.0502677
0.0553007
0.0602082
0.064937
0.0694348
0.0736518
0.0775408
0.0810583
0.0841654
0.086829
0.0890226
0.0907279
0.0919362
0.0926493
0.0928817
0.0926617
0.0920338
0.09106
0.0898209
0.0884172
0.0869709
0.0856231
0.0845028
0.0837132
0.00388085
0.00262224
0.00131867
-3.84739e-05
-0.0014048
-0.00267321
-0.0037497
-0.00455814
-0.00503626
-0.00513568
-0.00482165
-0.00407177
-0.00287466
-0.00122878
0.000858754
0.00337331
0.0062936
0.00959274
0.0132389
0.017196
0.0214243
0.0258808
0.0305202
0.0352948
0.0401554
0.0450512
0.0499311
0.0547434
0.0594366
0.0639602
0.068265
0.0723037
0.0760319
0.079409
0.0823987
0.0849703
0.0870997
0.0887702
0.0899741
0.0907136
0.0910018
0.0908645
0.0903405
0.0894831
0.0883598
0.087052
0.0856579
0.084288
0.0829926
0.0817665
0.00608349
0.00430547
0.00273784
0.0012678
-0.000135855
-0.00139061
-0.00242253
-0.0031732
-0.00359353
-0.00364426
-0.00329678
-0.00253254
-0.00134224
0.000274792
0.0023115
0.00475411
0.00758272
0.010772
0.0142921
0.0181089
0.0221849
0.0264793
0.0309488
0.0355482
0.0402304
0.0449469
0.0496486
0.0542862
0.0588105
0.063173
0.0673268
0.0712267
0.0748305
0.0780993
0.0809989
0.0835
0.0855796
0.087222
0.0884194
0.0891729
0.0894936
0.0894032
0.0889347
0.0881322
0.0870505
0.0857534
0.0843198
0.0828359
0.0812775
0.079538
0.0083253
0.00601246
0.00413396
0.00248982
0.000983166
-0.000321566
-0.00136633
-0.0021081
-0.00250978
-0.00254102
-0.00217949
-0.00141107
-0.000229377
0.00136467
0.00336336
0.00575292
0.00851404
0.0116224
0.0150494
0.0187625
0.0227256
0.0268997
0.0312433
0.0357129
0.0402632
0.0448474
0.0494184
0.0539283
0.0583298
0.062576
0.0666215
0.0704226
0.0739384
0.0771315
0.0799683
0.0824206
0.0844656
0.0860873
0.087277
0.0880343
0.0883673
0.0882934
0.0878392
0.0870405
0.0859404
0.0845881
0.0830471
0.0813864
0.0795179
0.0772502
0.0104546
0.00761416
0.00540194
0.00354334
0.00188654
0.000483787
-0.000618823
-0.00139105
-0.00180617
-0.0018419
-0.00148215
-0.000717328
0.000455651
0.00203364
0.0040077
0.0063635
0.00908166
0.0121383
0.0155053
0.0191513
0.0230411
0.0271371
0.031399
0.0357846
0.0402498
0.0447493
0.049237
0.0536666
0.0579916
0.0621663
0.0661463
0.0698888
0.0733535
0.0765035
0.0793056
0.0817313
0.0837576
0.0853674
0.0865507
0.0873045
0.0876338
0.0875513
0.0870778
0.0862416
0.085076
0.083618
0.0819202
0.0800405
0.0778375
0.0750473
0.0123582
0.00900876
0.00645448
0.00435694
0.00251848
0.000983809
-0.000209512
-0.00104153
-0.00149422
-0.00155235
-0.00120559
-0.000448963
0.000717232
0.00228739
0.00425085
0.00659222
0.00929155
0.0123248
0.0156643
0.0192787
0.0231338
0.0271925
0.0314155
0.0357613
0.0401867
0.0446474
0.0490981
0.053493
0.0577864
0.0619333
0.0658894
0.0696124
0.0730621
0.0762012
0.0789962
0.081418
0.0834424
0.085051
0.0862315
0.0869782
0.0872926
0.0871832
0.0866653
0.0857606
0.0844944
0.0828945
0.0810061
0.0788808
0.0763331
0.0730377
0.013954
0.0101156
0.00721786
0.00486677
0.00282583
0.00113565
-0.000171924
-0.00108485
-0.00159231
-0.0016852
-0.00135841
-0.000611234
0.000552594
0.00212481
0.00409277
0.00643962
0.00914447
0.0121828
0.0155265
0.0191445
0.0230026
0.0270641
0.03129
0.0356394
0.0400695
0.0445364
0.0489952
0.0534003
0.0577063
0.0618682
0.0658416
0.0695838
0.0730542
0.0762148
0.0790311
0.0814726
0.0835136
0.0851336
0.0863177
0.0870575
0.0873509
0.0872022
0.0866219
0.0856261
0.0842338
0.0824661
0.0803637
0.0779756
0.0750798
0.0712972
0.0151814
0.0108701
0.00762943
0.00501545
0.00275771
0.000895506
-0.00054284
-0.0015514
-0.00212522
-0.00226041
-0.0019565
-0.00121676
-4.82983e-05
0.00153787
0.00352688
0.00590018
0.00863562
0.0117077
0.0150879
0.0187444
0.0226432
0.0267473
0.0310178
0.0354137
0.0398926
0.0444103
0.048922
0.053382
0.0577446
0.0619643
0.0659962
0.0697968
0.0733243
0.0765396
0.0794066
0.0818931
0.0839711
0.0856177
0.0868153
0.0875522
0.0878228
0.0876276
0.0869727
0.0858698
0.084333
0.0823785
0.0800449
0.077382
0.0741357
0.0698794
0.0159938
0.0112189
0.0076347
0.00475066
0.00226567
0.000219635
-0.00136093
-0.00247487
-0.00312196
-0.00330277
-0.00302093
-0.00228347
-0.00110073
0.000513425
0.0025418
0.00496392
0.00775606
0.0108915
0.0143407
0.0180713
0.0220486
0.0262352
0.0305919
0.0350775
0.0396491
0.0442624
0.0488719
0.0534317
0.0578951
0.0622159
0.0663482
0.0702471
0.0738693
0.077174
0.080123
0.0826817
0.0848197
0.086511
0.0877351
0.0884769
0.0887272
0.0884828
0.0877463
0.0865254
0.0848306
0.0826748
0.0800967
0.0771484
0.0735475
0.068823
0.016353
0.011116
0.00718455
0.00402344
0.00130264
-0.000936045
-0.00266672
-0.00389193
-0.00461536
-0.00484143
-0.0045775
-0.0038341
-0.00262481
-0.000966309
0.0011217
0.0036166
0.00649288
0.00972234
0.0132741
0.0171149
0.0212091
0.0255186
0.0300036
0.0346223
0.039331
0.0440849
0.0488378
0.0535427
0.058152
0.0626182
0.0668938
0.0709323
0.0746885
0.0781191
0.0811834
0.0838442
0.0860678
0.0878252
0.0890924
0.0898506
0.0900872
0.0897953
0.0889741
0.0876283
0.0857656
0.083397
0.0805623
0.0773177
0.0733543
0.068158
0.0162252
0.010519
0.0062327
0.0027864
-0.000178303
-0.00261681
-0.00450302
-0.00584242
-0.00664209
-0.00690984
-0.00665653
-0.00589608
-0.00464527
-0.0029237
-0.000753688
0.00183982
0.00482926
0.00818471
0.0118738
0.0158619
0.0201122
0.0245858
0.0292418
0.0340376
0.0389286
0.0438689
0.0488114
0.0537079
0.0585093
0.0631664
0.06763
0.0718513
0.0757826
0.0793781
0.082594
0.0853896
0.0877279
0.0895762
0.0909066
0.0916968
0.0919301
0.0915961
0.0906909
0.0892166
0.0871787
0.0845869
0.0814836
0.07793
0.0735911
0.0679095
0.0155777
0.00938681
0.00473351
0.000991913
-0.00222526
-0.00487002
-0.00691548
-0.00836968
-0.00924275
-0.00954573
-0.00929285
-0.00850141
-0.00719142
-0.00538554
-0.00310887
-0.000388903
0.00274454
0.00625956
0.010122
0.0142958
0.0187427
0.0234225
0.0282932
0.033311
0.0384304
0.0436041
0.0487837
0.0539194
0.0589606
0.063856
0.0685541
0.0730036
0.077154
0.0809561
0.0843628
0.0873296
0.0898154
0.0917833
0.0932013
0.0940427
0.0942871
0.0939203
0.0929352
0.0913313
0.0891127
0.0862881
0.0829031
0.0790252
0.0742922
0.0681016
0.0143766
0.00767716
0.00263989
-0.0014096
-0.00488883
-0.00774605
-0.00995327
-0.0115209
-0.0124622
-0.0127913
-0.0125258
-0.0116866
-0.010297
-0.00838295
-0.00597254
-0.00309604
0.000214266
0.00392425
0.0079978
0.012397
0.0170822
0.0220116
0.0271419
0.032428
0.037823
0.0432783
0.0487439
0.0541682
0.0594987
0.0646818
0.0696634
0.0743893
0.0788057
0.0828597
0.0865002
0.0896784
0.0923486
0.0944692
0.0960034
0.09692
0.0971939
0.0968072
0.0957494
0.0940176
0.091614
0.0885471
0.0848659
0.0806451
0.0754934
0.0687598
0.0125846
0.00534456
-9.85997e-05
-0.00447125
-0.00822343
-0.0112994
-0.0136699
-0.015348
-0.01635
-0.0166934
-0.0163995
-0.0154927
-0.0140002
-0.0119514
-0.00937752
-0.00631196
-0.00278971
0.00115266
0.00547686
0.010143
0.0151096
0.0203334
0.0257696
0.0313715
0.0370908
0.0428774
0.0486795
0.0544437
0.0601151
0.0656378
0.0709547
0.0760083
0.0807411
0.0850961
0.0890177
0.092452
0.0953483
0.0976596
0.0993437
0.100364
0.100691
0.100301
0.0991812
0.0973254
0.094734
0.091415
0.0874216
0.0828355
0.0772343
0.0699138
0.0101592
0.00233842
-0.00353737
-0.00825119
-0.0122885
-0.0155896
-0.0181241
-0.0199079
-0.0209607
-0.0213039
-0.0209627
-0.0199657
-0.0183439
-0.0161306
-0.0133607
-0.0100709
-0.00629917
-0.00208476
0.00253163
0.00750799
0.0128009
0.0183655
0.0241553
0.030122
0.0362159
0.0423851
0.0485761
0.0547335
0.0607999
0.0667167
0.0724238
0.0778599
0.0829636
0.0876732
0.0919277
0.0956681
0.0988376
0.101383
0.103256
0.104414
0.104822
0.104451
0.103284
0.101311
0.0985301
0.0949493
0.0906256
0.0856487
0.0795608
0.0715992
0.00705075
-0.00139859
-0.00773847
-0.0128141
-0.0171501
-0.0206827
-0.0233808
-0.0252637
-0.026355
-0.0266804
-0.0262698
-0.0251562
-0.0233753
-0.0209645
-0.0179629
-0.0144108
-0.0103493
-0.00582082
-0.000868495
0.00446334
0.0101293
0.0160826
0.0222753
0.0286575
0.0351778
0.0417828
0.048417
0.055023
0.061541
0.0679095
0.0740651
0.0799425
0.0854758
0.0905983
0.0952433
0.0993455
0.102841
0.105671
0.107779
0.109115
0.109638
0.109313
0.108117
0.106036
0.103067
0.0992149
0.0945416
0.0891446
0.0825269
0.0738596
0.00320111
-0.00593225
-0.0127722
-0.0182327
-0.022882
-0.0266523
-0.0295121
-0.031485
-0.0325995
-0.0328862
-0.0323802
-0.03112
-0.0291463
-0.0265015
-0.0232289
-0.0193731
-0.0149787
-0.0100913
-0.00475696
0.000977737
0.00706527
0.0134572
0.0201037
0.0269535
0.0339537
0.0410493
0.048183
0.0552954
0.0623243
0.0692052
0.075871
0.0822527
0.0882793
0.0938784
0.0989773
0.103504
0.107386
0.110557
0.112953
0.114515
0.115194
0.114948
0.113747
0.111573
0.108418
0.104287
0.099243
0.0933937
0.0861966
0.0767493
-0.00145823
-0.0113385
-0.0187189
-0.0245895
-0.0295671
-0.0335805
-0.0365984
-0.0386495
-0.0397681
-0.039991
-0.0393594
-0.0379181
-0.0357135
-0.0327937
-0.029207
-0.0250024
-0.0202287
-0.0149348
-0.00916967
-0.00298248
0.0035772
0.0104591
0.017612
0.0249832
0.0325184
0.0401611
0.0478526
0.0555313
0.0631329
0.07059
0.0778319
0.0847852
0.0913738
0.0975193
0.103142
0.108162
0.112499
0.116077
0.118822
0.120666
0.12155
0.121424
0.120249
0.118002
0.114669
0.11025
0.104815
0.0984784
0.090647
0.080335
-0.00700788
-0.0177053
-0.0256706
-0.0319782
-0.0372994
-0.0415598
-0.0447292
-0.0468428
-0.0479422
-0.0480713
-0.0472788
-0.0456165
-0.0431379
-0.0398972
-0.0359487
-0.0313463
-0.0261431
-0.0203918
-0.0141444
-0.00745274
-0.000368343
0.00705687
0.0147702
0.0227179
0.0308445
0.0390924
0.0474016
0.0557088
0.0639476
0.0720478
0.0799352
0.0875321
0.0947569
0.101525
0.107749
0.11334
0.118209
0.122268
0.125434
0.127626
0.128774
0.128818
0.127709
0.125414
0.121914
0.117204
0.111357
0.104496
0.0959698
0.0846984
-0.0135424
-0.0251346
-0.033733
-0.0405058
-0.0461851
-0.0506942
-0.0540049
-0.0561606
-0.0572117
-0.0572109
-0.0562156
-0.0542864
-0.0514845
-0.0478716
-0.0435083
-0.0384542
-0.0327674
-0.0265042
-0.0197202
-0.0124695
-0.00480578
0.00321763
0.011547
0.0201275
0.0289031
0.0378156
0.0468039
0.0558036
0.0647463
0.0735595
0.0821657
0.0904827
0.0984237
0.105897
0.112807
0.119056
0.124544
0.12917
0.132839
0.135457
0.13694
0.137215
0.13622
0.133912
0.130264
0.125264
0.118986
0.111562
0.102275
0.0899389
-0.0211725
-0.0337444
-0.0430276
-0.0502942
-0.0563446
-0.0611006
-0.0645375
-0.0667087
-0.0676753
-0.0675009
-0.0662536
-0.0640038
-0.0608223
-0.0567791
-0.051942
-0.0463771
-0.0401476
-0.0333143
-0.0259358
-0.0180691
-0.0097694
-0.00109133
0.00791062
0.0171814
0.0266646
0.0363018
0.0460317
0.0557891
0.0655044
0.0751031
0.0845049
0.0936233
0.102366
0.110634
0.118324
0.125327
0.131531
0.136823
0.141091
0.144227
0.146129
0.146708
0.145889
0.143615
0.139845
0.13456
0.127835
0.11981
0.109692
0.0961766
-0.0300272
-0.0436715
-0.0536942
-0.0614832
-0.067915
-0.0729112
-0.0764522
-0.0786041
-0.0794414
-0.0790405
-0.0774824
-0.0748493
-0.0712232
-0.0666834
-0.0613065
-0.0551654
-0.0483291
-0.0408629
-0.0328288
-0.0242862
-0.015292
-0.00590139
0.00383075
0.0138496
0.0240992
0.0345216
0.045056
0.0556373
0.0661953
0.0766542
0.0869313
0.0969366
0.106572
0.115733
0.124305
0.132169
0.139199
0.145268
0.150246
0.154006
0.156428
0.157402
0.156836
0.154654
0.150802
0.145247
0.138064
0.129399
0.118376
0.103556
-0.0402569
-0.055074
-0.0658939
-0.0742325
-0.081052
-0.0862749
-0.0898892
-0.0919767
-0.0926283
-0.0919363
-0.089997
-0.0869069
-0.0827606
-0.0776489
-0.0716578
-0.0648679
-0.0573546
-0.0491879
-0.0404332
-0.0311522
-0.0214028
-0.0112407
-0.000720336
0.0101045
0.021179
0.0324469
0.0438484
0.0553197
0.066791
0.0781862
0.0894208
0.100402
0.111027
0.121184
0.130749
0.139592
0.147572
0.154545
0.16036
0.16487
0.167932
0.169412
0.169194
0.167181
0.163299
0.1575
0.149855
0.140516
0.12851
0.112251
-0.0520362
-0.068135
-0.0798122
-0.0887256
-0.0959328
-0.10136
-0.105005
-0.10697
-0.107365
-0.106303
-0.103897
-0.100263
-0.0955086
-0.0897383
-0.0830486
-0.0755291
-0.0672617
-0.0583214
-0.0487772
-0.0386922
-0.0281254
-0.017132
-0.00576525
0.00592284
0.0178799
0.0300521
0.0423822
0.0548086
0.0672634
0.0796711
0.0919471
0.103996
0.115712
0.126976
0.137655
0.147606
0.156674
0.164693
0.171493
0.1769
0.180744
0.182863
0.183111
0.181366
0.177526
0.171523
0.163422
0.153378
0.140312
0.122466
-0.0655679
-0.0830671
-0.0956638
-0.105173
-0.11276
-0.118355
-0.121974
-0.12374
-0.12379
-0.12226
-0.119287
-0.115004
-0.109539
-0.10301
-0.0955259
-0.0871862
-0.0780799
-0.0682871
-0.0578797
-0.0469225
-0.0354744
-0.0235896
-0.0113189
0.00128845
0.0141837
0.0273167
0.0406344
0.0540789
0.0675855
0.0810812
0.0944825
0.107694
0.120605
0.133092
0.145015
0.156216
0.166523
0.175751
0.183704
0.19018
0.194975
0.197894
0.198755
0.1974
0.193698
0.187552
0.179014
0.168243
0.154035
0.134447
-0.0810877
-0.100117
-0.113697
-0.123817
-0.131763
-0.137477
-0.140991
-0.142461
-0.142054
-0.139936
-0.13627
-0.131215
-0.124918
-0.117514
-0.109127
-0.0998656
-0.0898268
-0.0790958
-0.0677472
-0.0558467
-0.0434523
-0.030616
-0.0173853
-0.00380508
0.0100808
0.0242277
0.0385883
0.0531101
0.0677337
0.0823904
0.0969995
0.111467
0.125681
0.139514
0.152817
0.16542
0.177136
0.187755
0.197053
0.204796
0.210742
0.214655
0.216308
0.215502
0.212064
0.205859
0.196923
0.185412
0.169981
0.148482
-0.0988699
-0.119572
-0.134201
-0.14494
-0.153209
-0.158967
-0.162273
-0.16332
-0.162316
-0.159461
-0.154952
-0.148975
-0.141703
-0.13329
-0.123875
-0.113578
-0.102503
-0.0907416
-0.0783692
-0.0654517
-0.0520453
-0.0381985
-0.023954
-0.00935085
0.00557387
0.0207828
0.0362361
0.0518891
0.0676896
0.0835756
0.0994719
0.115288
0.130913
0.146217
0.161044
0.175214
0.188522
0.200734
0.211597
0.220837
0.22817
0.233309
0.235976
0.235917
0.232904
0.226759
0.217487
0.205237
0.188507
0.164915
-0.119235
-0.14177
-0.157515
-0.168866
-0.177402
-0.183102
-0.186061
-0.186523
-0.184743
-0.180966
-0.175429
-0.168353
-0.159937
-0.150359
-0.139773
-0.128312
-0.116089
-0.103196
-0.0897129
-0.075703
-0.0612191
-0.0463048
-0.0309964
-0.0153251
0.000680717
0.0169929
0.0335816
0.0504122
0.0674424
0.0846194
0.101877
0.119129
0.136272
0.153173
0.169675
0.185586
0.200685
0.214715
0.227389
0.238392
0.247389
0.254034
0.257985
0.25892
0.256545
0.250617
0.241105
0.228139
0.210035
0.184153
-0.142559
-0.16711
-0.184037
-0.195979
-0.204694
-0.210195
-0.212624
-0.21229
-0.209508
-0.204579
-0.19779
-0.189399
-0.179641
-0.168717
-0.156798
-0.144031
-0.130534
-0.116404
-0.101718
-0.0865394
-0.0709141
-0.0548789
-0.0384614
-0.0216833
-0.00456197
0.0128862
0.0306437
0.0486885
0.0669914
0.0855121
0.104195
0.122967
0.141728
0.160353
0.178681
0.196516
0.213621
0.229716
0.244478
0.257548
0.268533
0.277018
0.282584
0.284824
0.283358
0.277861
0.268245
0.254612
0.235067
0.20668
-0.169289
-0.196066
-0.214241
-0.226728
-0.235494
-0.240601
-0.242257
-0.240853
-0.236784
-0.230419
-0.222103
-0.212142
-0.200807
-0.188327
-0.174893
-0.160659
-0.145753
-0.130272
-0.114292
-0.0978681
-0.0810405
-0.0638362
-0.0462719
-0.0283569
-0.0100954
0.00851059
0.0274586
0.0467425
0.066349
0.0862539
0.106417
0.126779
0.147254
0.167723
0.18803
0.207978
0.227315
0.245742
0.262903
0.278387
0.291739
0.302463
0.310046
0.313979
0.31377
0.308986
0.299461
0.285246
0.264202
0.233071
-0.199957
-0.229211
-0.248698
-0.261648
-0.27028
-0.274725
-0.275286
-0.27246
-0.266742
-0.258586
-0.248408
-0.236572
-0.223386
-0.20911
-0.193953
-0.17808
-0.16162
-0.144671
-0.127302
-0.10956
-0.0914746
-0.0730608
-0.0543214
-0.0352506
-0.0158365
0.00393603
0.0240825
0.0446155
0.0655415
0.086856
0.108539
0.13055
0.15282
0.175246
0.197682
0.219931
0.241739
0.262788
0.282688
0.30098
0.317137
0.330574
0.340666
0.346775
0.34827
0.344575
0.335411
0.320752
0.298167
0.26402
-0.23521
-0.267243
-0.288101
-0.301381
-0.309612
-0.31303
-0.312065
-0.30736
-0.299533
-0.289149
-0.276705
-0.262628
-0.247274
-0.23093
-0.213821
-0.19612
-0.177956
-0.159419
-0.14057
-0.121444
-0.102055
-0.0824023
-0.0624721
-0.0422404
-0.0216762
-0.000744391
0.0205916
0.0423666
0.0646101
0.0873418
0.110566
0.134267
0.1584
0.182882
0.207585
0.232324
0.256847
0.280824
0.303837
0.325379
0.34485
0.361561
0.374759
0.38365
0.387422
0.385312
0.376882
0.36199
0.337841
0.300367
-0.275845
-0.311034
-0.333304
-0.346703
-0.354149
-0.356037
-0.352976
-0.345796
-0.335282
-0.322127
-0.306929
-0.290186
-0.272299
-0.253582
-0.234273
-0.214546
-0.194524
-0.174284
-0.153872
-0.133306
-0.11258
-0.0916748
-0.0705545
-0.049174
-0.0274802
-0.00541504
0.0170823
0.040072
0.0636104
0.0877453
0.112511
0.137922
0.163963
0.190582
0.217678
0.245086
0.272568
0.299792
0.326323
0.351609
0.374975
0.395625
0.412655
0.42508
0.431867
0.432002
0.424826
0.410011
0.384312
0.34314
-0.322864
-0.361681
-0.385379
-0.398566
-0.404674
-0.404336
-0.398414
-0.387991
-0.374058
-0.357469
-0.338934
-0.319028
-0.298197
-0.276775
-0.255004
-0.23305
-0.211021
-0.188974
-0.166931
-0.144887
-0.122811
-0.100658
-0.0783691
-0.0558729
-0.0330914
-0.0099404
0.0136679
0.0378223
0.0626091
0.0881088
0.11439
0.141504
0.169474
0.198287
0.227879
0.25812
0.288798
0.319596
0.350073
0.379646
0.407572
0.432941
0.454681
0.471586
0.482337
0.485598
0.480393
0.46612
0.43894
0.393622
-0.377555
-0.420605
-0.445689
-0.458144
-0.462113
-0.458583
-0.448778
-0.434115
-0.415847
-0.395016
-0.37246
-0.348826
-0.324598
-0.300118
-0.275618
-0.251245
-0.227075
-0.203137
-0.17942
-0.155884
-0.132471
-0.109103
-0.0856917
-0.062138
-0.0383353
-0.0141706
0.0104735
0.0357168
0.0616795
0.0884779
0.11622
0.145
0.174888
0.205919
0.238081
0.271292
0.305386
0.34008
0.37495
0.4094
0.442633
0.473631
0.501145
0.523707
0.539654
0.547222
0.544997
0.531954
0.503453
0.453434
-0.441621
-0.489685
-0.515995
-0.526903
-0.527555
-0.519489
-0.504433
-0.484245
-0.460503
-0.434463
-0.407093
-0.379104
-0.350996
-0.323101
-0.29562
-0.268657
-0.242245
-0.216366
-0.190965
-0.165961
-0.141256
-0.116737
-0.0922808
-0.0677573
-0.0430283
-0.0179499
0.00762708
0.033856
0.0608926
0.0888929
0.118009
0.148383
0.180139
0.213374
0.248139
0.284421
0.322119
0.361014
0.400725
0.440676
0.480046
0.517726
0.55229
0.581983
0.604722
0.618195
0.620374
0.6096
0.580098
0.524682
-0.517381
-0.571461
-0.598614
-0.606673
-0.602276
-0.58779
-0.565654
-0.538297
-0.507682
-0.475296
-0.442221
-0.409205
-0.376731
-0.345084
-0.314404
-0.284727
-0.25602
-0.2282
-0.201155
-0.174751
-0.148843
-0.123276
-0.0978901
-0.0725182
-0.0469895
-0.0211278
0.00524949
0.0323304
0.0603079
0.0893798
0.119745
0.151601
0.185133
0.220508
0.257857
0.297257
0.338699
0.382058
0.427042
0.473137
0.519543
0.565103
0.608238
0.646893
0.6785
0.700049
0.708671
0.70175
0.671855
0.61017
-0.60811
-0.669464
-0.696633
-0.699745
-0.68772
-0.664177
-0.632533
-0.595926
-0.556755
-0.516722
-0.47698
-0.438255
-0.40096
-0.365283
-0.331256
-0.298816
-0.267833
-0.238142
-0.209556
-0.181879
-0.154909
-0.128444
-0.102283
-0.0762218
-0.0500539
-0.0235723
0.00344068
0.0312083
0.0599603
0.0899373
0.121388
0.154567
0.189729
0.227121
0.266971
0.309464
0.354716
0.402737
0.453372
0.506236
0.56062
0.615394
0.668883
0.718762
0.761929
0.794524
0.812539
0.811936
0.782783
0.713766
-0.718632
-0.788723
-0.814205
-0.808956
-0.785448
-0.749164
-0.704813
-0.656377
-0.606682
-0.557577
-0.51019
-0.465129
-0.42265
-0.38277
-0.345362
-0.310217
-0.27708
-0.245678
-0.215734
-0.186978
-0.159147
-0.131987
-0.105252
-0.0787005
-0.0520919
-0.025185
0.00226778
0.0305227
0.0598475
0.0905245
0.122852
0.157145
0.193731
0.232947
0.27513
0.320597
0.369622
0.422393
0.47896
0.539146
0.602441
0.667855
0.733743
0.797597
0.855799
0.903503
0.935219
0.94483
0.918552
0.841033
-0.856399
-0.936587
-0.956949
-0.937725
-0.896963
-0.842831
-0.781643
-0.718269
-0.655855
-0.596221
-0.540296
-0.488421
-0.440566
-0.396488
-0.35583
-0.318187
-0.283145
-0.250303
-0.219278
-0.189719
-0.161294
-0.133696
-0.106636
-0.0798339
-0.053018
-0.0259167
0.0017462
0.030257
0.0599174
0.091049
0.123998
0.159139
0.196874
0.237637
0.281883
0.330083
0.382698
0.44015
0.502762
0.570671
0.643706
0.721197
0.80173
0.882822
0.960479
1.02883
1.08058
1.10665
1.0873
1.00038
-1.03357
-1.12402
-1.1324
-1.08995
-1.02334
-0.944395
-0.861193
-0.779315
-0.701905
-0.630427
-0.565321
-0.506436
-0.453297
-0.405282
-0.361727
-0.321983
-0.285445
-0.251561
-0.219838
-0.189834
-0.161151
-0.133431
-0.10634
-0.0795671
-0.0528121
-0.0257784
0.00183417
0.0303371
0.0600605
0.0913605
0.124626
0.160288
0.198821
0.240754
0.286671
0.337207
0.393042
0.454877
0.523389
0.599152
0.682507
0.773353
0.870835
0.972872
1.07546
1.17194
1.253
1.30562
1.30095
1.20524
-1.27124
-1.3676
-1.35033
-1.26948
-1.16445
-1.05146
-0.940073
-0.835929
-0.741489
-0.657284
-0.582843
-0.517221
-0.459301
-0.407957
-0.362142
-0.32092
-0.283471
-0.249086
-0.217155
-0.187151
-0.158613
-0.131136
-0.104352
-0.0779226
-0.051527
-0.0248506
0.00242398
0.0306259
0.0601064
0.0912481
0.124475
0.160265
0.19916
0.241779
0.288828
0.341118
0.399561
0.465177
0.539069
0.622376
0.716159
0.821206
0.937684
1.06455
1.19856
1.33295
1.45678
1.55226
1.5773
1.47861
-1.6082
-1.69252
-1.62216
-1.47837
-1.31712
-1.15861
-1.0124
-0.882684
-0.770006
-0.673095
-0.589992
-0.518607
-0.456972
-0.403347
-0.356247
-0.314423
-0.276839
-0.242635
-0.211092
-0.18161
-0.153679
-0.126855
-0.100749
-0.0750048
-0.0492907
-0.023283
0.00334331
0.0309259
0.0598271
0.0904452
0.123228
0.158689
0.19742
0.240117
0.287601
0.340839
0.400981
0.46938
0.547617
0.6375
0.741023
0.860228
0.996912
1.15201
1.32436
1.50881
1.69432
1.85876
1.94302
1.8621
-2.11626
-2.13628
-1.95917
-1.7139
-1.47252
-1.25562
-1.06882
-0.911883
-0.781517
-0.673463
-0.583611
-0.508381
-0.444797
-0.390447
-0.343396
-0.302106
-0.265346
-0.232129
-0.20166
-0.173285
-0.146463
-0.120733
-0.0956977
-0.0709975
-0.0463006
-0.0212865
0.00436631
0.0309928
0.058954
0.0886508
0.120539
0.15515
0.193106
0.235156
0.282202
0.335346
0.39594
0.46565
0.546536
0.64113
0.752508
0.884316
1.04067
1.22569
1.44239
1.69049
1.96292
2.23706
2.4372
2.4312
-2.92594
-2.74883
-2.36884
-1.96648
-1.61494
-1.32736
-1.09715
-0.91462
-0.769875
-0.654338
-0.561149
-0.485025
-0.421949
-0.368879
-0.323506
-0.284065
-0.249196
-0.21784
-0.189161
-0.162489
-0.13728
-0.113079
-0.0894949
-0.0661836
-0.0428268
-0.0191196
0.0052439
0.0305833
0.0572449
0.0856169
0.116146
0.149356
0.185877
0.226473
0.272088
0.323903
0.383407
0.452508
0.533668
0.63009
0.74596
0.886741
1.05946
1.27285
1.53696
1.86172
2.25233
2.69478
3.11074
3.32001
-4.3337
-3.57033
-2.82673
-2.20221
-1.7141
-1.35001
-1.08107
-0.880619
-0.729014
-0.612384
-0.520973
-0.447929
-0.388413
-0.338964
-0.297067
-0.260869
-0.22898
-0.200344
-0.174144
-0.149735
-0.126603
-0.104321
-0.0825304
-0.0609149
-0.0391855
-0.0170652
0.00572325
0.0294712
0.0544967
0.0811588
0.109874
0.141139
0.175554
0.21386
0.256985
0.30611
0.362762
0.428948
0.507356
0.601639
0.716863
0.860154
1.04161
1.27556
1.58224
1.98939
2.52685
3.20525
4.00362
4.83303
-7.16909
-4.56972
-3.15166
-2.26716
-1.66199
-1.25358
-0.97636
-0.781993
-0.641048
-0.535783
-0.454981
-0.391334
-0.339958
-0.297506
-0.261619
-0.230597
-0.203189
-0.178457
-0.155687
-0.13432
-0.113914
-0.0941103
-0.0746048
-0.0551335
-0.0354557
-0.0153402
0.00544576
0.0271475
0.0500359
0.0744193
0.100659
0.129188
0.160535
0.195358
0.234486
0.278986
0.330254
0.39015
0.461217
0.547018
0.65269
0.785875
0.958255
1.18825
1.50628
1.96268
2.62702
3.58398
5.08805
7.8059
-12.0375
-5.65265
-2.98771
-1.89116
-1.29698
-0.945383
-0.728756
-0.585604
-0.484607
-0.409889
-0.352556
-0.307181
-0.270264
-0.239437
-0.213038
-0.189867
-0.169041
-0.149896
-0.131927
-0.114742
-0.0980322
-0.0815475
-0.0650787
-0.0484435
-0.0314751
-0.0140124
0.00410902
0.0230663
0.0430572
0.0643101
0.0870958
0.111741
0.138647
0.168311
0.20136
0.238595
0.281055
0.330119
0.387654
0.456271
0.539764
0.643921
0.778117
0.958815
1.21804
1.61971
2.28043
3.47194
6.2536
12.7634
)
;

boundaryField
{
    movingWall
    {
        type            zeroGradient;
    }
    fixedWalls
    {
        type            zeroGradient;
    }
    frontAndBack
    {
        type            empty;
    }
}


// ************************************************************************* //
