/*--------------------------------*- C++ -*----------------------------------*\
  =========                 |
  \\      /  F ield         | OpenFOAM: The Open Source CFD Toolbox
   \\    /   O peration     | Website:  https://openfoam.org
    \\  /    A nd           | Version:  7
     \\/     M anipulation  |
\*---------------------------------------------------------------------------*/
FoamFile
{
    version     2.0;
    format      ascii;
    class       volVectorField;
    location    "0.0542";
    object      U;
}
// * * * * * * * * * * * * * * * * * * * * * * * * * * * * * * * * * * * * * //

dimensions      [0 1 -1 0 0 0 0];

internalField   nonuniform List<vector> 
2500
(
(-0.2938 0.153722 0)
(-0.397936 0.12872 0)
(-0.577974 0.0737923 0)
(-0.696265 0.040875 0)
(-0.765251 0.0233949 0)
(-0.809587 0.0141424 0)
(-0.840178 0.00915773 0)
(-0.862271 0.00635071 0)
(-0.8789 0.00466264 0)
(-0.891849 0.0035736 0)
(-0.902191 0.00282546 0)
(-0.910606 0.00228425 0)
(-0.917546 0.00187613 0)
(-0.923326 0.00155781 0)
(-0.928169 0.00130232 0)
(-0.932237 0.00109201 0)
(-0.93565 0.000914777 0)
(-0.938501 0.000762078 0)
(-0.940856 0.000627676 0)
(-0.942768 0.000506904 0)
(-0.944274 0.000396178 0)
(-0.945404 0.000292677 0)
(-0.946177 0.00019412 0)
(-0.946607 9.86038e-05 0)
(-0.946703 4.48171e-06 0)
(-0.946465 -8.97734e-05 0)
(-0.945892 -0.000185578 0)
(-0.944977 -0.000284379 0)
(-0.943707 -0.000387729 0)
(-0.942066 -0.000497385 0)
(-0.940028 -0.000615431 0)
(-0.937563 -0.000744453 0)
(-0.934631 -0.000887768 0)
(-0.931178 -0.00104976 0)
(-0.927137 -0.00123641 0)
(-0.922418 -0.00145604 0)
(-0.916903 -0.00172069 0)
(-0.910431 -0.00204831 0)
(-0.902785 -0.00246693 0)
(-0.893652 -0.0030225 0)
(-0.882581 -0.00379464 0)
(-0.868889 -0.00492884 0)
(-0.851491 -0.00670388 0)
(-0.828585 -0.00967106 0)
(-0.797158 -0.0149178 0)
(-0.75206 -0.024498 0)
(-0.682548 -0.0421468 0)
(-0.564931 -0.0746149 0)
(-0.389309 -0.128123 0)
(-0.290205 -0.15237 0)
(-0.00516055 0.302906 0)
(-0.0270643 0.307344 0)
(-0.171337 0.217793 0)
(-0.308217 0.146585 0)
(-0.417149 0.0992158 0)
(-0.5024 0.068959 0)
(-0.568809 0.0497093 0)
(-0.620782 0.0371694 0)
(-0.661999 0.0286856 0)
(-0.695183 0.02271 0)
(-0.722269 0.0183407 0)
(-0.744636 0.0150381 0)
(-0.763273 0.012468 0)
(-0.778902 0.0104156 0)
(-0.792059 0.00873763 0)
(-0.803143 0.00733552 0)
(-0.812456 0.00613934 0)
(-0.82023 0.00509822 0)
(-0.826639 0.00417425 0)
(-0.831819 0.00333858 0)
(-0.835871 0.00256873 0)
(-0.838871 0.00184678 0)
(-0.840874 0.00115804 0)
(-0.841918 0.000490174 0)
(-0.842022 -0.000167646 0)
(-0.841195 -0.000825296 0)
(-0.839432 -0.00149222 0)
(-0.836716 -0.00217797 0)
(-0.833014 -0.00289271 0)
(-0.828283 -0.0036479 0)
(-0.822462 -0.00445698 0)
(-0.815469 -0.00533638 0)
(-0.807201 -0.00630689 0)
(-0.797526 -0.00739546 0)
(-0.786271 -0.00863798 0)
(-0.773215 -0.0100833 0)
(-0.75807 -0.0117993 0)
(-0.740455 -0.0138831 0)
(-0.719863 -0.0164769 0)
(-0.69561 -0.019796 0)
(-0.666756 -0.0241762 0)
(-0.632005 -0.0301582 0)
(-0.589544 -0.0386382 0)
(-0.536855 -0.0511279 0)
(-0.470621 -0.0701549 0)
(-0.38699 -0.0996663 0)
(-0.281774 -0.145082 0)
(-0.151486 -0.212599 0)
(-0.0164285 -0.298177 0)
(-0.000982865 -0.294668 0)
(0.0321103 0.264057 0)
(0.056358 0.36235 0)
(-0.00366543 0.324991 0)
(-0.095949 0.260553 0)
(-0.19235 0.200897 0)
(-0.281171 0.153867 0)
(-0.358294 0.118936 0)
(-0.423505 0.0933503 0)
(-0.478155 0.0744766 0)
(-0.523925 0.0603262 0)
(-0.562368 0.0495039 0)
(-0.594781 0.0410516 0)
(-0.62221 0.0343119 0)
(-0.645479 0.0288283 0)
(-0.665233 0.024279 0)
(-0.681977 0.0204325 0)
(-0.696105 0.0171195 0)
(-0.707927 0.0142136 0)
(-0.717684 0.0116187 0)
(-0.725563 0.00926039 0)
(-0.731709 0.00708008 0)
(-0.73623 0.00503039 0)
(-0.739206 0.00307224 0)
(-0.740691 0.00117244 0)
(-0.740719 -0.000698181 0)
(-0.739303 -0.00256629 0)
(-0.736438 -0.00445743 0)
(-0.732102 -0.00639731 0)
(-0.726253 -0.00841321 0)
(-0.71883 -0.0105355 0)
(-0.709753 -0.0127993 0)
(-0.698912 -0.0152475 0)
(-0.686171 -0.0179328 0)
(-0.671355 -0.0209231 0)
(-0.654243 -0.0243065 0)
(-0.634556 -0.0282005 0)
(-0.611943 -0.0327635 0)
(-0.585957 -0.0382136 0)
(-0.556031 -0.0448557 0)
(-0.521449 -0.0531221 0)
(-0.481314 -0.063634 0)
(-0.43453 -0.077289 0)
(-0.379827 -0.0953775 0)
(-0.315908 -0.119706 0)
(-0.241903 -0.152608 0)
(-0.158503 -0.196409 0)
(-0.0700206 -0.251274 0)
(0.0122439 -0.309879 0)
(0.0620266 -0.343201 0)
(0.0330363 -0.249891 0)
(0.0271442 0.205265 0)
(0.0637029 0.357898 0)
(0.0550071 0.37579 0)
(0.00761847 0.338706 0)
(-0.0600754 0.286119 0)
(-0.133742 0.235301 0)
(-0.205224 0.192012 0)
(-0.270744 0.156942 0)
(-0.329032 0.129038 0)
(-0.380079 0.106884 0)
(-0.424423 0.0891822 0)
(-0.462784 0.0748838 0)
(-0.495891 0.0631792 0)
(-0.524404 0.0534565 0)
(-0.548891 0.0452552 0)
(-0.56983 0.0382273 0)
(-0.587616 0.0321079 0)
(-0.602568 0.0266928 0)
(-0.614946 0.0218232 0)
(-0.624957 0.0173734 0)
(-0.632762 0.0132423 0)
(-0.638486 0.00934767 0)
(-0.642224 0.00562047 0)
(-0.64404 0.00200178 0)
(-0.643977 -0.00156051 0)
(-0.642052 -0.00511411 0)
(-0.638266 -0.00870464 0)
(-0.632596 -0.0123778 0)
(-0.625 -0.0161815 0)
(-0.615416 -0.0201685 0)
(-0.603758 -0.0243994 0)
(-0.589916 -0.0289459 0)
(-0.57375 -0.0338957 0)
(-0.555085 -0.0393586 0)
(-0.53371 -0.045474 0)
(-0.509364 -0.0524222 0)
(-0.481734 -0.0604386 0)
(-0.45045 -0.0698333 0)
(-0.415076 -0.0810173 0)
(-0.375128 -0.094535 0)
(-0.330098 -0.111102 0)
(-0.279538 -0.131636 0)
(-0.223233 -0.15725 0)
(-0.161534 -0.189124 0)
(-0.0959936 -0.228057 0)
(-0.0304147 -0.273236 0)
(0.0275566 -0.319308 0)
(0.0649266 -0.350709 0)
(0.0657364 -0.331876 0)
(0.0268728 -0.189888 0)
(0.0184435 0.163517 0)
(0.0530207 0.331763 0)
(0.0682841 0.387325 0)
(0.0523891 0.380185 0)
(0.0125043 0.344646 0)
(-0.0406475 0.300275 0)
(-0.0988998 0.25663 0)
(-0.157047 0.217559 0)
(-0.212149 0.184061 0)
(-0.262776 0.155889 0)
(-0.308416 0.132341 0)
(-0.349054 0.112627 0)
(-0.384927 0.0960219 0)
(-0.416376 0.0819062 0)
(-0.443766 0.0697737 0)
(-0.467447 0.0592165 0)
(-0.487735 0.0499082 0)
(-0.504903 0.041587 0)
(-0.519185 0.0340426 0)
(-0.530773 0.0271042 0)
(-0.539825 0.0206316 0)
(-0.546466 0.0145084 0)
(-0.55079 0.00863599 0)
(-0.552868 0.00292905 0)
(-0.552745 -0.0026882 0)
(-0.550445 -0.00828533 0)
(-0.545974 -0.0139287 0)
(-0.539315 -0.0196841 0)
(-0.530437 -0.0256202 0)
(-0.519285 -0.031811 0)
(-0.505788 -0.03834 0)
(-0.489854 -0.0453044 0)
(-0.471369 -0.0528199 0)
(-0.450195 -0.0610277 0)
(-0.426174 -0.0701018 0)
(-0.399123 -0.0802595 0)
(-0.368841 -0.0917724 0)
(-0.335123 -0.10498 0)
(-0.297775 -0.120303 0)
(-0.25666 -0.138251 0)
(-0.211774 -0.159415 0)
(-0.163376 -0.184424 0)
(-0.11221 -0.213802 0)
(-0.0598463 -0.247653 0)
(-0.009169 -0.284968 0)
(0.0350509 -0.322262 0)
(0.0656369 -0.351117 0)
(0.0734509 -0.354382 0)
(0.0532063 -0.301756 0)
(0.0179129 -0.148305 0)
(0.0119395 0.134771 0)
(0.0407123 0.300931 0)
(0.0649626 0.378586 0)
(0.0679135 0.396388 0)
(0.0493595 0.379959 0)
(0.0153608 0.347113 0)
(-0.027811 0.308618 0)
(-0.0751555 0.270269 0)
(-0.123149 0.234777 0)
(-0.16955 0.203131 0)
(-0.213068 0.175431 0)
(-0.253046 0.151366 0)
(-0.289223 0.130476 0)
(-0.321575 0.112274 0)
(-0.350204 0.0963086 0)
(-0.375275 0.0821816 0)
(-0.396975 0.0695524 0)
(-0.415489 0.0581343 0)
(-0.430991 0.0476871 0)
(-0.443633 0.0380095 0)
(-0.453548 0.0289319 0)
(-0.460842 0.0203105 0)
(-0.465605 0.0120213 0)
(-0.4679 0.00395591 0)
(-0.467775 -0.00398269 0)
(-0.465259 -0.0118838 0)
(-0.460364 -0.0198323 0)
(-0.453084 -0.0279117 0)
(-0.443403 -0.0362078 0)
(-0.431287 -0.0448115 0)
(-0.416691 -0.0538233 0)
(-0.399556 -0.0633568 0)
(-0.379816 -0.073544 0)
(-0.357394 -0.0845401 0)
(-0.332214 -0.0965302 0)
(-0.304204 -0.109734 0)
(-0.273314 -0.124413 0)
(-0.239534 -0.140871 0)
(-0.202937 -0.159448 0)
(-0.163736 -0.180503 0)
(-0.122371 -0.20436 0)
(-0.0796471 -0.2312 0)
(-0.0369187 -0.260844 0)
(0.00367119 -0.292351 0)
(0.0389548 -0.323325 0)
(0.0646422 -0.348785 0)
(0.0755636 -0.359553 0)
(0.0669803 -0.340389 0)
(0.0400996 -0.269034 0)
(0.0114453 -0.120036 0)
(0.0078516 0.114298 0)
(0.0309387 0.271832 0)
(0.056977 0.36083 0)
(0.0699238 0.396862 0)
(0.0659083 0.397651 0)
(0.0472869 0.377721 0)
(0.0180422 0.347323 0)
(-0.0178529 0.312982 0)
(-0.0570704 0.278486 0)
(-0.0971216 0.245811 0)
(-0.136303 0.215825 0)
(-0.173516 0.188766 0)
(-0.208103 0.164534 0)
(-0.239707 0.142871 0)
(-0.268169 0.123459 0)
(-0.293453 0.105975 0)
(-0.315595 0.0901121 0)
(-0.334668 0.0755952 0)
(-0.350766 0.0621807 0)
(-0.363981 0.0496564 0)
(-0.374405 0.0378376 0)
(-0.382118 0.0265634 0)
(-0.387188 0.0156926 0)
(-0.389673 0.00509991 0)
(-0.389615 -0.00532782 0)
(-0.387047 -0.015695 0)
(-0.381986 -0.0261003 0)
(-0.374444 -0.0366403 0)
(-0.36442 -0.0474121 0)
(-0.351908 -0.0585169 0)
(-0.336897 -0.0700632 0)
(-0.319373 -0.0821699 0)
(-0.299325 -0.0949706 0)
(-0.276753 -0.108616 0)
(-0.251673 -0.123276 0)
(-0.224132 -0.139142 0)
(-0.194232 -0.156423 0)
(-0.162155 -0.175335 0)
(-0.128204 -0.196081 0)
(-0.0928691 -0.218802 0)
(-0.0569009 -0.243503 0)
(-0.0214169 -0.269902 0)
(0.011981 -0.2972 0)
(0.0411006 -0.32369 0)
(0.0631407 -0.346196 0)
(0.074899 -0.359301 0)
(0.0733466 -0.354496 0)
(0.0569929 -0.319592 0)
(0.0299759 -0.239391 0)
(0.00743902 -0.100174 0)
(0.00540303 0.0992643 0)
(0.0239093 0.246268 0)
(0.0486973 0.339864 0)
(0.0662585 0.388165 0)
(0.0714195 0.402915 0)
(0.0641497 0.395213 0)
(0.0464714 0.373941 0)
(0.0211321 0.34549 0)
(-0.00913661 0.314108 0)
(-0.0420048 0.282401 0)
(-0.0756647 0.251845 0)
(-0.108795 0.223174 0)
(-0.140478 0.196668 0)
(-0.170106 0.172339 0)
(-0.1973 0.150052 0)
(-0.221838 0.129605 0)
(-0.243608 0.110766 0)
(-0.262566 0.0933036 0)
(-0.278714 0.0769986 0)
(-0.292078 0.061648 0)
(-0.302698 0.0470682 0)
(-0.310619 0.0330941 0)
(-0.315886 0.0195774 0)
(-0.318539 0.00638423 0)
(-0.318615 -0.00660755 0)
(-0.316147 -0.019511 0)
(-0.311161 -0.0324325 0)
(-0.303679 -0.0454751 0)
(-0.293725 -0.0587404 0)
(-0.281318 -0.0723313 0)
(-0.266486 -0.0863549 0)
(-0.249262 -0.100924 0)
(-0.229696 -0.116159 0)
(-0.207859 -0.132188 0)
(-0.183861 -0.149146 0)
(-0.157859 -0.167169 0)
(-0.130085 -0.186387 0)
(-0.100875 -0.206898 0)
(-0.0707042 -0.228738 0)
(-0.0402389 -0.251821 0)
(-0.0103926 -0.275845 0)
(0.0176131 -0.300144 0)
(0.0422019 -0.323469 0)
(0.0614442 -0.343679 0)
(0.0731763 -0.357342 0)
(0.0753404 -0.359296 0)
(0.066599 -0.342326 0)
(0.0474137 -0.297261 0)
(0.0227586 -0.214126 0)
(0.00504956 -0.0858076 0)
(0.00391759 0.0878212 0)
(0.01894 0.224307 0)
(0.0414465 0.318547 0)
(0.0606124 0.374563 0)
(0.0711927 0.399934 0)
(0.0718433 0.402816 0)
(0.0631728 0.390474 0)
(0.0468207 0.368684 0)
(0.0248033 0.341685 0)
(-0.000918977 0.31238 0)
(-0.0286523 0.282641 0)
(-0.0570342 0.253594 0)
(-0.0850235 0.225853 0)
(-0.111856 0.199697 0)
(-0.136991 0.175193 0)
(-0.160057 0.152283 0)
(-0.180814 0.13084 0)
(-0.199109 0.110701 0)
(-0.214856 0.0916932 0)
(-0.228011 0.0736416 0)
(-0.238561 0.0563799 0)
(-0.24651 0.039752 0)
(-0.251874 0.0236135 0)
(-0.254677 0.00783124 0)
(-0.254946 -0.00771775 0)
(-0.25271 -0.0231476 0)
(-0.248002 -0.0385656 0)
(-0.240857 -0.0540737 0)
(-0.231317 -0.0697705 0)
(-0.219432 -0.0857527 0)
(-0.205262 -0.102116 0)
(-0.188887 -0.118957 0)
(-0.170412 -0.13637 0)
(-0.149974 -0.154448 0)
(-0.12776 -0.173274 0)
(-0.104019 -0.192917 0)
(-0.079081 -0.213408 0)
(-0.0533875 -0.234722 0)
(-0.027517 -0.256728 0)
(-0.00221937 -0.279136 0)
(0.0215526 -0.301392 0)
(0.0426228 -0.322556 0)
(0.0596009 -0.341121 0)
(0.0709513 -0.354788 0)
(0.0751751 -0.36023 0)
(0.0711636 -0.352888 0)
(0.0587183 -0.326966 0)
(0.039285 -0.275806 0)
(0.0176637 -0.193009 0)
(0.00359845 -0.0750657 0)
(0.00297846 0.078794 0)
(0.015377 0.205494 0)
(0.0354379 0.298183 0)
(0.0546211 0.35867 0)
(0.0681466 0.391762 0)
(0.0740746 0.403313 0)
(0.0721067 0.39905 0)
(0.0630149 0.383931 0)
(0.0481421 0.3619 0)
(0.0290084 0.335894 0)
(0.0070713 0.307985 0)
(-0.0163921 0.279562 0)
(-0.040327 0.251501 0)
(-0.0638992 0.224313 0)
(-0.0864704 0.198258 0)
(-0.107566 0.173431 0)
(-0.126844 0.149819 0)
(-0.144061 0.127347 0)
(-0.159053 0.105902 0)
(-0.171712 0.0853541 0)
(-0.181973 0.0655682 0)
(-0.1898 0.0464091 0)
(-0.195179 0.0277466 0)
(-0.198113 0.00945768 0)
(-0.198618 -0.00857293 0)
(-0.196719 -0.026453 0)
(-0.192453 -0.044283 0)
(-0.185864 -0.062157 0)
(-0.177012 -0.0801631 0)
(-0.165969 -0.0983841 0)
(-0.152828 -0.116897 0)
(-0.137707 -0.135772 0)
(-0.120756 -0.155069 0)
(-0.102167 -0.174837 0)
(-0.0821849 -0.1951 0)
(-0.0611225 -0.21585 0)
(-0.0393759 -0.237022 0)
(-0.0174439 -0.25847 0)
(0.00405282 -0.27992 0)
(0.0243552 -0.300913 0)
(0.0425571 -0.320721 0)
(0.0576153 -0.33824 0)
(0.0683938 -0.351863 0)
(0.0737649 -0.359335 0)
(0.0728017 -0.35763 0)
(0.0650867 -0.342913 0)
(0.0510985 -0.310677 0)
(0.0326615 -0.256192 0)
(0.0140076 -0.175415 0)
(0.00267848 -0.0667706 0)
(0.00235328 0.0714571 0)
(0.0127541 0.189305 0)
(0.0305306 0.279282 0)
(0.0489405 0.342017 0)
(0.0638386 0.380509 0)
(0.0731145 0.398896 0)
(0.0759484 0.401589 0)
(0.0724953 0.392699 0)
(0.0635395 0.375732 0)
(0.0501736 0.353482 0)
(0.0335721 0.328064 0)
(0.0148535 0.301009 0)
(-0.00499121 0.273372 0)
(-0.0251273 0.245849 0)
(-0.0448768 0.218866 0)
(-0.0637047 0.192661 0)
(-0.0811995 0.167338 0)
(-0.0970513 0.142913 0)
(-0.111033 0.119347 0)
(-0.122981 0.0965633 0)
(-0.132784 0.0744689 0)
(-0.140368 0.0529594 0)
(-0.145692 0.0319288 0)
(-0.148739 0.0112724 0)
(-0.149509 -0.00910947 0)
(-0.148024 -0.0293109 0)
(-0.144319 -0.0494189 0)
(-0.138447 -0.0695129 0)
(-0.130479 -0.089664 0)
(-0.120508 -0.109935 0)
(-0.10865 -0.130376 0)
(-0.0950518 -0.151027 0)
(-0.0798989 -0.171909 0)
(-0.0634203 -0.193018 0)
(-0.0459006 -0.21432 0)
(-0.0276904 -0.235729 0)
(-0.0092178 -0.257092 0)
(0.00899967 -0.27816 0)
(0.0263464 -0.298542 0)
(0.0421055 -0.317661 0)
(0.0554676 -0.334681 0)
(0.0655601 -0.34843 0)
(0.0715089 -0.357317 0)
(0.0725468 -0.359248 0)
(0.0681875 -0.35159 0)
(0.0584705 -0.331212 0)
(0.044224 -0.294685 0)
(0.0273146 -0.238689 0)
(0.011315 -0.160707 0)
(0.00206482 -0.0601933 0)
(0.00191481 0.0653545 0)
(0.0107633 0.175275 0)
(0.0265082 0.261983 0)
(0.0437815 0.325477 0)
(0.0590726 0.367593 0)
(0.0703281 0.39122 0)
(0.0764705 0.399703 0)
(0.0772496 0.396374 0)
(0.0730228 0.384251 0)
(0.0645116 0.365886 0)
(0.0526091 0.343325 0)
(0.038244 0.31814 0)
(0.0222971 0.291493 0)
(0.00555426 0.264207 0)
(-0.0113122 0.236842 0)
(-0.0277455 0.209758 0)
(-0.0432964 0.183169 0)
(-0.0576108 0.157183 0)
(-0.0704156 0.131833 0)
(-0.0815049 0.107107 0)
(-0.0907287 0.0829575 0)
(-0.0979817 0.0593198 0)
(-0.103196 0.0361189 0)
(-0.106334 0.0132763 0)
(-0.107385 -0.00928596 0)
(-0.10636 -0.0316416 0)
(-0.103295 -0.0538582 0)
(-0.0982455 -0.0759949 0)
(-0.0912903 -0.0981008 0)
(-0.0825341 -0.120212 0)
(-0.0721105 -0.142352 0)
(-0.0601862 -0.164522 0)
(-0.0469675 -0.186701 0)
(-0.032706 -0.208837 0)
(-0.0177069 -0.230833 0)
(-0.00233575 -0.252537 0)
(0.0129743 -0.273719 0)
(0.0277176 -0.294043 0)
(0.0413154 -0.313039 0)
(0.053123 -0.330052 0)
(0.0624497 -0.344199 0)
(0.0685981 -0.35431 0)
(0.07093 -0.358883 0)
(0.0689677 -0.356045 0)
(0.0625385 -0.34357 0)
(0.051956 -0.318953 0)
(0.0381879 -0.27962 0)
(0.0229766 -0.223264 0)
(0.00927439 -0.148347 0)
(0.00163447 -0.0548717 0)
(0.0015922 0.0601894 0)
(0.0092051 0.163032 0)
(0.0231698 0.24626 0)
(0.0391638 0.309541 0)
(0.0542447 0.353956 0)
(0.0665237 0.381502 0)
(0.0748327 0.394687 0)
(0.0786775 0.39617 0)
(0.0781092 0.388491 0)
(0.0735507 0.373914 0)
(0.0656415 0.354348 0)
(0.0551184 0.331334 0)
(0.0427302 0.306072 0)
(0.0291837 0.279466 0)
(0.0151126 0.252172 0)
(0.00106513 0.22465 0)
(-0.0124988 0.197207 0)
(-0.0252024 0.170035 0)
(-0.0367442 0.143243 0)
(-0.0468885 0.116879 0)
(-0.055456 0.0909475 0)
(-0.0623159 0.0654283 0)
(-0.067378 0.0402825 0)
(-0.0705874 0.0154627 0)
(-0.0719198 -0.00908157 0)
(-0.0713789 -0.0333989 0)
(-0.0689947 -0.0575324 0)
(-0.064823 -0.0815166 0)
(-0.0589461 -0.105374 0)
(-0.0514748 -0.129114 0)
(-0.0425511 -0.152724 0)
(-0.0323519 -0.17617 0)
(-0.0210931 -0.19939 0)
(-0.00903496 -0.222281 0)
(0.00351363 -0.244693 0)
(0.0161905 -0.266415 0)
(0.0285778 -0.287153 0)
(0.0402023 -0.30651 0)
(0.0505408 -0.323959 0)
(0.0590344 -0.33881 0)
(0.0651139 -0.350174 0)
(0.068242 -0.356931 0)
(0.067976 -0.357708 0)
(0.0640556 -0.350876 0)
(0.0565148 -0.334582 0)
(0.0458121 -0.306855 0)
(0.0329291 -0.265779 0)
(0.0194145 -0.209767 0)
(0.00768341 -0.137912 0)
(0.00131871 -0.0505021 0)
(0.00134473 0.0557618 0)
(0.00794927 0.15229 0)
(0.0203528 0.232029 0)
(0.035034 0.294476 0)
(0.0495354 0.340222 0)
(0.0621729 0.370628 0)
(0.0717877 0.38756 0)
(0.0777557 0.393112 0)
(0.0799216 0.389392 0)
(0.0784803 0.378367 0)
(0.0738586 0.361769 0)
(0.0666155 0.341062 0)
(0.0573645 0.317436 0)
(0.0467177 0.291831 0)
(0.0352498 0.264966 0)
(0.023478 0.237374 0)
(0.0118519 0.20944 0)
(0.000752221 0.181431 0)
(-0.00950681 0.153522 0)
(-0.018672 0.125821 0)
(-0.0265449 0.0983867 0)
(-0.0329755 0.0712434 0)
(-0.0378562 0.0443918 0)
(-0.0411172 0.0178193 0)
(-0.0427221 -0.00849324 0)
(-0.0426656 -0.0345656 0)
(-0.0409713 -0.0604132 0)
(-0.0376914 -0.0860428 0)
(-0.0329069 -0.111448 0)
(-0.026729 -0.136607 0)
(-0.0193008 -0.161475 0)
(-0.0108003 -0.185981 0)
(-0.00144318 -0.21002 0)
(0.00851402 -0.233446 0)
(0.0187714 -0.256062 0)
(0.0289842 -0.277606 0)
(0.0387637 -0.297737 0)
(0.0476812 -0.316015 0)
(0.055278 -0.331882 0)
(0.0610826 -0.344637 0)
(0.0646385 -0.35342 0)
(0.0655445 -0.357186 0)
(0.0635107 -0.35471 0)
(0.0584297 -0.344594 0)
(0.0504612 -0.325323 0)
(0.0401215 -0.295356 0)
(0.0283365 -0.25328 0)
(0.0164436 -0.198017 0)
(0.00640911 -0.129071 0)
(0.0010777 -0.0468781 0)
(0.00114793 0.0519329 0)
(0.00690916 0.142828 0)
(0.0179317 0.219186 0)
(0.0313173 0.280422 0)
(0.0450136 0.326804 0)
(0.0575468 0.359243 0)
(0.0678222 0.379109 0)
(0.0751636 0.388044 0)
(0.0792861 0.387776 0)
(0.080219 0.379987 0)
(0.0782191 0.366222 0)
(0.073691 0.347836 0)
(0.0671203 0.325977 0)
(0.0590205 0.301586 0)
(0.0498965 0.275416 0)
(0.04022 0.248052 0)
(0.0304148 0.219936 0)
(0.0208508 0.191396 0)
(0.0118415 0.162669 0)
(0.00364653 0.133918 0)
(-0.00352537 0.105253 0)
(-0.00951203 0.076741 0)
(-0.0141934 0.0484255 0)
(-0.0174877 0.0203297 0)
(-0.019348 -0.00753224 0)
(-0.0197596 -0.0351489 0)
(-0.0187385 -0.062506 0)
(-0.0163307 -0.0895806 0)
(-0.0126118 -0.116337 0)
(-0.00768816 -0.14272 0)
(-0.0016978 -0.168653 0)
(0.0051877 -0.194029 0)
(0.0127615 -0.218706 0)
(0.0207799 -0.242498 0)
(0.0289618 -0.265167 0)
(0.0369895 -0.286412 0)
(0.0445114 -0.305855 0)
(0.0511495 -0.323031 0)
(0.0565109 -0.337369 0)
(0.0602061 -0.34818 0)
(0.0618766 -0.354646 0)
(0.0612311 -0.355813 0)
(0.0580925 -0.350602 0)
(0.0524545 -0.337831 0)
(0.0445433 -0.316268 0)
(0.0348775 -0.284718 0)
(0.0242926 -0.242148 0)
(0.0139219 -0.187843 0)
(0.00536203 -0.121576 0)
(0.000887294 -0.0438551 0)
(0.00098642 0.0486037 0)
(0.00602578 0.134478 0)
(0.0158118 0.207634 0)
(0.0279394 0.26745 0)
(0.040693 0.313981 0)
(0.0527975 0.347812 0)
(0.0632507 0.369945 0)
(0.071374 0.381653 0)
(0.0768098 0.384343 0)
(0.0794732 0.379441 0)
(0.0794909 0.368304 0)
(0.0771396 0.352167 0)
(0.0727902 0.332112 0)
(0.0668619 0.30906 0)
(0.059786 0.28377 0)
(0.0519806 0.256859 0)
(0.0438337 0.228812 0)
(0.0356931 0.200007 0)
(0.0278613 0.170728 0)
(0.020595 0.141189 0)
(0.0141049 0.111547 0)
(0.00855919 0.0819125 0)
(0.00408555 0.0523684 0)
(0.000774501 0.0229747 0)
(-0.00131804 -0.00622077 0)
(-0.00216864 -0.0351746 0)
(-0.00178481 -0.0638418 0)
(-0.000204015 -0.0921694 0)
(0.00250654 -0.120091 0)
(0.00624966 -0.147522 0)
(0.0108976 -0.174352 0)
(0.0162911 -0.200441 0)
(0.0222387 -0.225614 0)
(0.0285165 -0.249649 0)
(0.034869 -0.272275 0)
(0.0410109 -0.29316 0)
(0.0466324 -0.311902 0)
(0.0514072 -0.32802 0)
(0.0550048 -0.340945 0)
(0.0571089 -0.350011 0)
(0.0574421 -0.354452 0)
(0.0557977 -0.353409 0)
(0.0520779 -0.345938 0)
(0.0463373 -0.331047 0)
(0.0388271 -0.307739 0)
(0.0300347 -0.275094 0)
(0.0206909 -0.232364 0)
(0.0117418 -0.179094 0)
(0.00448047 -0.115235 0)
(0.000732145 -0.0413299 0)
(0.000850154 0.0457023 0)
(0.00525797 0.127114 0)
(0.0139217 0.197287 0)
(0.0248345 0.255591 0)
(0.0365613 0.301936 0)
(0.048008 0.336677 0)
(0.0582766 0.360533 0)
(0.0667171 0.374488 0)
(0.07294 0.379681 0)
(0.0767869 0.377311 0)
(0.0782885 0.36856 0)
(0.0776194 0.354541 0)
(0.0750529 0.336259 0)
(0.0709215 0.314594 0)
(0.0655847 0.290301 0)
(0.0594043 0.264007 0)
(0.0527262 0.236225 0)
(0.0458688 0.207371 0)
(0.0391159 0.177769 0)
(0.0327131 0.147676 0)
(0.0268672 0.117289 0)
(0.0217462 0.0867613 0)
(0.0174811 0.0562109 0)
(0.0141681 0.0257338 0)
(0.01187 -0.00458868 0)
(0.0106184 -0.0346819 0)
(0.0104146 -0.0644706 0)
(0.0112311 -0.0938721 0)
(0.0130114 -0.122791 0)
(0.0156709 -0.151112 0)
(0.0190959 -0.178696 0)
(0.023144 -0.205372 0)
(0.027644 -0.230934 0)
(0.0323964 -0.255131 0)
(0.0371752 -0.277665 0)
(0.0417311 -0.298179 0)
(0.0457967 -0.316256 0)
(0.0490956 -0.331409 0)
(0.0513542 -0.343076 0)
(0.0523185 -0.350623 0)
(0.051776 -0.35334 0)
(0.0495824 -0.350453 0)
(0.0456919 -0.341144 0)
(0.04019 -0.32458 0)
(0.0333253 -0.299958 0)
(0.0255343 -0.266572 0)
(0.01744 -0.22389 0)
(0.00982154 -0.171641 0)
(0.00372081 -0.109902 0)
(0.000602097 -0.0392271 0)
(0.000732291 0.0431757 0)
(0.0045764 0.120636 0)
(0.0122076 0.188073 0)
(0.0219472 0.244856 0)
(0.0325957 0.290799 0)
(0.0432213 0.326089 0)
(0.0530321 0.351235 0)
(0.0614259 0.366991 0)
(0.068009 0.374276 0)
(0.0725804 0.374095 0)
(0.0751041 0.367475 0)
(0.0756756 0.355406 0)
(0.0744874 0.338813 0)
(0.0717961 0.318531 0)
(0.0678942 0.29529 0)
(0.0630876 0.26972 0)
(0.0576776 0.24235 0)
(0.0519488 0.213618 0)
(0.0461605 0.183885 0)
(0.0405422 0.153439 0)
(0.0352906 0.122514 0)
(0.0305691 0.0912993 0)
(0.0265081 0.059947 0)
(0.0232063 0.0285862 0)
(0.0207316 -0.0026708 0)
(0.0191224 -0.0337191 0)
(0.0183893 -0.0644546 0)
(0.018515 -0.0947666 0)
(0.0194559 -0.124532 0)
(0.0211416 -0.153607 0)
(0.0234758 -0.181826 0)
(0.0263359 -0.208991 0)
(0.0295741 -0.234868 0)
(0.0330184 -0.259183 0)
(0.0364744 -0.281613 0)
(0.0397296 -0.301785 0)
(0.0425583 -0.319271 0)
(0.0447303 -0.333582 0)
(0.0460222 -0.344172 0)
(0.0462316 -0.350437 0)
(0.0451964 -0.35172 0)
(0.0428158 -0.347327 0)
(0.0390747 -0.336547 0)
(0.0340682 -0.318679 0)
(0.0280235 -0.293076 0)
(0.0213163 -0.2592 0)
(0.0144641 -0.216681 0)
(0.00809863 -0.165383 0)
(0.00305151 -0.105468 0)
(0.000490175 -0.0374916 0)
(0.000628041 0.0409841 0)
(0.00395974 0.114971 0)
(0.0106284 0.179932 0)
(0.0192319 0.235243 0)
(0.0287707 0.280655 0)
(0.0384574 0.316234 0)
(0.0476038 0.342328 0)
(0.055666 0.359512 0)
(0.0622654 0.368528 0)
(0.0671813 0.370217 0)
(0.0703341 0.365467 0)
(0.0717605 0.35516 0)
(0.0715882 0.340141 0)
(0.070009 0.32119 0)
(0.0672551 0.299011 0)
(0.0635791 0.274225 0)
(0.0592378 0.247366 0)
(0.0544797 0.218889 0)
(0.0495364 0.189177 0)
(0.0446168 0.158547 0)
(0.0399036 0.127263 0)
(0.0355516 0.0955442 0)
(0.0316873 0.063574 0)
(0.0284089 0.0315106 0)
(0.0257875 -0.000504728 0)
(0.0238674 -0.0323397 0)
(0.0226674 -0.0638634 0)
(0.0221813 -0.0949392 0)
(0.0223789 -0.125418 0)
(0.0232058 -0.155133 0)
(0.0245844 -0.183891 0)
(0.0264144 -0.211472 0)
(0.0285731 -0.237618 0)
(0.0309173 -0.262034 0)
(0.0332855 -0.284379 0)
(0.0355013 -0.304266 0)
(0.0373786 -0.32126 0)
(0.0387295 -0.334876 0)
(0.0393733 -0.344581 0)
(0.0391501 -0.3498 0)
(0.0379349 -0.349926 0)
(0.035656 -0.344333 0)
(0.0323129 -0.332397 0)
(0.0279945 -0.313527 0)
(0.0228955 -0.2872 0)
(0.0173253 -0.253006 0)
(0.0117016 -0.210696 0)
(0.00652515 -0.160237 0)
(0.00244936 -0.101847 0)
(0.000391446 -0.0360824 0)
(0.000533954 0.0390977 0)
(0.00339217 0.110061 0)
(0.00915285 0.172816 0)
(0.0166517 0.226749 0)
(0.0250615 0.271568 0)
(0.0337237 0.307251 0)
(0.0420492 0.334025 0)
(0.0495575 0.352329 0)
(0.055898 0.362761 0)
(0.0608475 0.366028 0)
(0.0643004 0.362897 0)
(0.066252 0.354153 0)
(0.0667791 0.340567 0)
(0.0660195 0.322865 0)
(0.0641525 0.301721 0)
(0.0613817 0.277738 0)
(0.0579208 0.25145 0)
(0.0539816 0.223321 0)
(0.049766 0.193749 0)
(0.0454598 0.163072 0)
(0.0412284 0.13158 0)
(0.0372151 0.099516 0)
(0.0335392 0.0670899 0)
(0.0302964 0.034486 0)
(0.0275588 0.0018707 0)
(0.0253752 -0.0305992 0)
(0.023772 -0.0627689 0)
(0.0227539 -0.0944786 0)
(0.0223041 -0.125557 0)
(0.0223853 -0.155814 0)
(0.0229397 -0.185036 0)
(0.0238897 -0.212981 0)
(0.0251393 -0.239373 0)
(0.0265746 -0.263897 0)
(0.0280665 -0.286199 0)
(0.0294738 -0.305881 0)
(0.0306474 -0.322501 0)
(0.0314371 -0.335579 0)
(0.0316993 -0.344595 0)
(0.0313073 -0.349 0)
(0.0301637 -0.348227 0)
(0.0282138 -0.341706 0)
(0.0254597 -0.328885 0)
(0.0219741 -0.30926 0)
(0.017911 -0.282402 0)
(0.0135127 -0.248001 0)
(0.00910221 -0.2059 0)
(0.00506398 -0.156138 0)
(0.00189693 -0.0989771 0)
(0.000302328 -0.0349692 0)
(0.000447483 0.0374938 0)
(0.00286171 0.105862 0)
(0.0077565 0.166686 0)
(0.0141764 0.219365 0)
(0.0214455 0.263579 0)
(0.0290206 0.299242 0)
(0.0364066 0.326493 0)
(0.0431887 0.345663 0)
(0.0490523 0.357238 0)
(0.0537844 0.361816 0)
(0.0572671 0.360064 0)
(0.0594679 0.352683 0)
(0.0604251 0.340374 0)
(0.0602323 0.323818 0)
(0.059023 0.30365 0)
(0.0569567 0.280458 0)
(0.0542061 0.254767 0)
(0.0509471 0.227044 0)
(0.0473512 0.197699 0)
(0.0435792 0.167085 0)
(0.0397771 0.135508 0)
(0.036074 0.103234 0)
(0.03258 0.0704927 0)
(0.0293858 0.037491 0)
(0.0265627 0.00441643 0)
(0.0241626 -0.0285531 0)
(0.0222187 -0.0612425 0)
(0.0207456 -0.0934718 0)
(0.0197403 -0.12505 0)
(0.0191822 -0.155769 0)
(0.0190336 -0.185397 0)
(0.0192407 -0.213673 0)
(0.0197336 -0.240304 0)
(0.0204281 -0.264963 0)
(0.0212268 -0.28728 0)
(0.0220221 -0.306849 0)
(0.0226995 -0.323226 0)
(0.0231425 -0.33593 0)
(0.0232389 -0.344453 0)
(0.022889 -0.348266 0)
(0.0220144 -0.346834 0)
(0.0205689 -0.339629 0)
(0.0185487 -0.326157 0)
(0.0160028 -0.305977 0)
(0.0130406 -0.278734 0)
(0.00983672 -0.244192 0)
(0.00662553 -0.202263 0)
(0.00368609 -0.153038 0)
(0.00138096 -0.0968099 0)
(0.00022016 -0.0341298 0)
(0.000366694 0.0361553 0)
(0.00235912 0.102339 0)
(0.00642005 0.161512 0)
(0.0117816 0.213086 0)
(0.0179025 0.25672 0)
(0.0243449 0.292286 0)
(0.030702 0.319857 0)
(0.0366256 0.339683 0)
(0.0418426 0.352166 0)
(0.0461583 0.357814 0)
(0.0494537 0.357214 0)
(0.0516789 0.350996 0)
(0.0528438 0.339803 0)
(0.0530063 0.324268 0)
(0.0522612 0.304998 0)
(0.0507279 0.282556 0)
(0.0485414 0.25746 0)
(0.0458428 0.230176 0)
(0.0427729 0.201117 0)
(0.0394668 0.170647 0)
(0.0360495 0.139085 0)
(0.032634 0.106713 0)
(0.029319 0.0737781 0)
(0.0261885 0.0405032 0)
(0.0233111 0.00709373 0)
(0.0207405 -0.0262554 0)
(0.0185152 -0.0593523 0)
(0.0166592 -0.0920007 0)
(0.0151825 -0.123994 0)
(0.0140809 -0.155108 0)
(0.0133371 -0.185095 0)
(0.0129202 -0.213682 0)
(0.0127869 -0.240562 0)
(0.0128819 -0.265392 0)
(0.0131388 -0.287795 0)
(0.0134822 -0.307355 0)
(0.0138296 -0.323624 0)
(0.0140952 -0.336121 0)
(0.0141941 -0.344343 0)
(0.0140481 -0.347777 0)
(0.0135921 -0.345908 0)
(0.012782 -0.33824 0)
(0.0116022 -0.324318 0)
(0.0100732 -0.30375 0)
(0.00825729 -0.276233 0)
(0.00626244 -0.241582 0)
(0.00423868 -0.199761 0)
(0.00236851 -0.150898 0)
(0.000891132 -0.0953109 0)
(0.000142918 -0.0335479 0)
(0.000290072 0.0350698 0)
(0.00187702 0.0994683 0)
(0.00512782 0.157273 0)
(0.00944652 0.207905 0)
(0.0144147 0.251013 0)
(0.019691 0.28644 0)
(0.0249532 0.314212 0)
(0.029919 0.334522 0)
(0.0343601 0.347705 0)
(0.0381065 0.354205 0)
(0.0410453 0.354544 0)
(0.0431181 0.349293 0)
(0.0443142 0.339047 0)
(0.0446631 0.3244 0)
(0.044226 0.305929 0)
(0.0430871 0.284178 0)
(0.0413461 0.259652 0)
(0.0391109 0.232813 0)
(0.0364922 0.204075 0)
(0.0335984 0.173809 0)
(0.0305328 0.142341 0)
(0.0273905 0.109964 0)
(0.0242574 0.0769382 0)
(0.0212089 0.0434987 0)
(0.0183094 0.00986423 0)
(0.0156126 -0.0237574 0)
(0.0131613 -0.0571616 0)
(0.0109878 -0.0901396 0)
(0.00911417 -0.122472 0)
(0.00755219 -0.153924 0)
(0.00630391 -0.184237 0)
(0.00536156 -0.213124 0)
(0.00470765 -0.240267 0)
(0.00431521 -0.265316 0)
(0.00414811 -0.287881 0)
(0.00416172 -0.307541 0)
(0.00430409 -0.32384 0)
(0.00451765 -0.336296 0)
(0.00474177 -0.344407 0)
(0.00491616 -0.347665 0)
(0.00498507 -0.345568 0)
(0.00490231 -0.337639 0)
(0.00463666 -0.323447 0)
(0.00417714 -0.30263 0)
(0.00353773 -0.274921 0)
(0.00276049 -0.240171 0)
(0.00191481 -0.198376 0)
(0.00109277 -0.149693 0)
(0.000419273 -0.0944552 0)
(6.90198e-05 -0.0332123 0)
(0.000216386 0.0342279 0)
(0.00140929 0.0972312 0)
(0.00386663 0.153951 0)
(0.00715345 0.203817 0)
(0.0109655 0.246474 0)
(0.0150522 0.281746 0)
(0.0191721 0.309629 0)
(0.0231082 0.330277 0)
(0.0266793 0.343978 0)
(0.0297439 0.351129 0)
(0.0322012 0.352202 0)
(0.0339901 0.347727 0)
(0.0350854 0.338258 0)
(0.0354937 0.324357 0)
(0.0352475 0.306574 0)
(0.0343992 0.285436 0)
(0.0330158 0.261437 0)
(0.0311732 0.23503 0)
(0.0289524 0.206629 0)
(0.0264353 0.176606 0)
(0.0237022 0.145293 0)
(0.0208296 0.112988 0)
(0.0178887 0.0799596 0)
(0.0149449 0.0464511 0)
(0.0120569 0.0126898 0)
(0.00927689 -0.0211076 0)
(0.00665065 -0.0547279 0)
(0.00421745 -0.087954 0)
(0.00201036 -0.120559 0)
(5.6353e-05 -0.152298 0)
(-0.00162379 -0.182905 0)
(-0.00301558 -0.212087 0)
(-0.00411115 -0.239516 0)
(-0.00490969 -0.264833 0)
(-0.0054178 -0.287642 0)
(-0.00565 -0.307512 0)
(-0.00562888 -0.323981 0)
(-0.00538507 -0.336559 0)
(-0.00495662 -0.344743 0)
(-0.00438789 -0.348021 0)
(-0.00372765 -0.345894 0)
(-0.00302642 -0.337892 0)
(-0.00233327 -0.323593 0)
(-0.00169208 -0.30265 0)
(-0.00113788 -0.274814 0)
(-0.000693683 -0.239958 0)
(-0.000368358 -0.198096 0)
(-0.000156338 -0.149404 0)
(-4.12968e-05 -0.0942262 0)
(-2.81397e-06 -0.0331154 0)
(0.000144582 0.0336235 0)
(0.000950666 0.0956154 0)
(0.00262488 0.151535 0)
(0.00488632 0.20082 0)
(0.00753941 0.243113 0)
(0.0104204 0.278232 0)
(0.0133661 0.306156 0)
(0.0162244 0.327015 0)
(0.0188623 0.34107 0)
(0.0211697 0.348683 0)
(0.0230612 0.350297 0)
(0.0244774 0.346409 0)
(0.0253831 0.337543 0)
(0.025766 0.324238 0)
(0.0256331 0.307023 0)
(0.025008 0.286409 0)
(0.0239265 0.262878 0)
(0.0224341 0.236876 0)
(0.0205824 0.208813 0)
(0.0184264 0.179059 0)
(0.016023 0.147947 0)
(0.0134288 0.115778 0)