/*--------------------------------*- C++ -*----------------------------------*\
  =========                 |
  \\      /  F ield         | OpenFOAM: The Open Source CFD Toolbox
   \\    /   O peration     | Website:  https://openfoam.org
    \\  /    A nd           | Version:  7
     \\/     M anipulation  |
\*---------------------------------------------------------------------------*/
FoamFile
{
    version     2.0;
    format      ascii;
    class       volVectorField;
    location    "0.0146";
    object      U;
}
// * * * * * * * * * * * * * * * * * * * * * * * * * * * * * * * * * * * * * //

dimensions      [0 1 -1 0 0 0 0];

internalField   nonuniform List<vector> 
2500
(
(2.30595e-05 -2.30599e-05 0)
(5.50439e-05 -1.84129e-05 0)
(4.32927e-05 2.39707e-06 0)
(-3.11345e-05 2.50013e-05 0)
(-0.00016793 4.56037e-05 0)
(-0.000358713 6.25427e-05 0)
(-0.000594119 7.56523e-05 0)
(-0.000864244 8.52611e-05 0)
(-0.00115965 9.17909e-05 0)
(-0.00147175 9.56523e-05 0)
(-0.00179286 9.72203e-05 0)
(-0.00211621 9.68294e-05 0)
(-0.00243591 9.47734e-05 0)
(-0.00274686 9.13093e-05 0)
(-0.00304469 8.66594e-05 0)
(-0.00332567 8.10156e-05 0)
(-0.00358666 7.45418e-05 0)
(-0.00382501 6.73776e-05 0)
(-0.00403849 5.9641e-05 0)
(-0.00422526 5.14322e-05 0)
(-0.00438381 4.28371e-05 0)
(-0.0045129 3.39302e-05 0)
(-0.00461154 2.47772e-05 0)
(-0.00467898 1.54379e-05 0)
(-0.00471467 5.96866e-06 0)
(-0.00471827 -3.57529e-06 0)
(-0.00468964 -1.31379e-05 0)
(-0.00462886 -2.26603e-05 0)
(-0.0045362 -3.20781e-05 0)
(-0.00441221 -4.13203e-05 0)
(-0.00425767 -5.03063e-05 0)
(-0.00407368 -5.89442e-05 0)
(-0.00386169 -6.71279e-05 0)
(-0.00362351 -7.47357e-05 0)
(-0.0033614 -8.16273e-05 0)
(-0.00307812 -8.76415e-05 0)
(-0.00277699 -9.25943e-05 0)
(-0.00246197 -9.62768e-05 0)
(-0.00213767 -9.84536e-05 0)
(-0.0018095 -9.88605e-05 0)
(-0.00148365 -9.72031e-05 0)
(-0.0011672 -9.3155e-05 0)
(-0.00086806 -8.63573e-05 0)
(-0.000595038 -7.64241e-05 0)
(-0.000357679 -6.29667e-05 0)
(-0.000165909 -4.56991e-05 0)
(-2.90502e-05 -2.48299e-05 0)
(4.48373e-05 -2.02366e-06 0)
(5.57916e-05 1.87535e-05 0)
(2.32368e-05 2.31914e-05 0)
(1.87039e-05 -5.51541e-05 0)
(7.58397e-06 -6.87104e-06 0)
(-0.000119061 9.8274e-05 0)
(-0.00038436 0.000213932 0)
(-0.000788731 0.000322598 0)
(-0.0013194 0.000416069 0)
(-0.00195749 0.000491631 0)
(-0.00268157 0.000549186 0)
(-0.00346993 0.000589748 0)
(-0.0043018 0.000614788 0)
(-0.00515796 0.000625938 0)
(-0.00602103 0.000624837 0)
(-0.00687553 0.000613053 0)
(-0.00770786 0.000592039 0)
(-0.0085062 0.000563112 0)
(-0.00926036 0.000527451 0)
(-0.00996166 0.000486093 0)
(-0.0106027 0.000439947 0)
(-0.0111773 0.000389801 0)
(-0.0116803 0.000336342 0)
(-0.0121073 0.000280169 0)
(-0.012455 0.000221809 0)
(-0.0127205 0.000161736 0)
(-0.0129017 0.000100384 0)
(-0.0129972 3.81642e-05 0)
(-0.0130059 -2.45203e-05 0)
(-0.0129276 -8.72637e-05 0)
(-0.0127626 -0.000149642 0)
(-0.0125117 -0.0002112 0)
(-0.0121765 -0.000271437 0)
(-0.0117593 -0.000329798 0)
(-0.0112632 -0.000385654 0)
(-0.0106924 -0.000438296 0)
(-0.010052 -0.000486918 0)
(-0.00934831 -0.000530609 0)
(-0.00858892 -0.000568341 0)
(-0.00778296 -0.000598967 0)
(-0.00694113 -0.000621219 0)
(-0.00607587 -0.000633711 0)
(-0.00520146 -0.000634957 0)
(-0.00433408 -0.000623391 0)
(-0.00349181 -0.000597419 0)
(-0.00269443 -0.000555497 0)
(-0.00196318 -0.000496284 0)
(-0.00132002 -0.000418938 0)
(-0.000786421 -0.000323761 0)
(-0.000381096 -0.000213677 0)
(-0.000116319 -9.70497e-05 0)
(9.05039e-06 8.25141e-06 0)
(1.90828e-05 5.5873e-05 0)
(-1.36909e-06 -4.44122e-05 0)
(-9.55363e-05 0.000119071 0)
(-0.000378969 0.000382032 0)
(-0.000858414 0.000667145 0)
(-0.00152919 0.000937684 0)
(-0.00237551 0.0011748 0)
(-0.00337285 0.00137014 0)
(-0.00449252 0.00152145 0)
(-0.00570464 0.00162971 0)
(-0.00697992 0.00169759 0)
(-0.00829066 0.0017286 0)
(-0.00961137 0.00172657 0)
(-0.010919 0.00169534 0)
(-0.0121932 0.00163862 0)
(-0.0134159 0.00155985 0)
(-0.0145715 0.00146217 0)
(-0.0156466 0.0013484 0)
(-0.0166297 0.00122103 0)
(-0.0175113 0.00108227 0)
(-0.018283 0.000934048 0)
(-0.0189384 0.000778063 0)
(-0.0194718 0.000615829 0)
(-0.0198789 0.000448714 0)
(-0.0201566 0.000277977 0)
(-0.0203023 0.000104812 0)
(-0.0203147 -6.96127e-05 0)
(-0.0201935 -0.00024412 0)
(-0.0199389 -0.000417486 0)
(-0.0195525 -0.000588401 0)
(-0.0190368 -0.00075544 0)
(-0.0183956 -0.00091702 0)
(-0.0176338 -0.00107138 0)
(-0.0167578 -0.00121652 0)
(-0.0157758 -0.00135021 0)
(-0.0146974 -0.00146993 0)
(-0.0135346 -0.00157291 0)
(-0.0123014 -0.00165603 0)
(-0.011014 -0.00171593 0)
(-0.00969128 -0.00174902 0)
(-0.00835469 -0.00175149 0)
(-0.00702819 -0.00171952 0)
(-0.00573822 -0.00164939 0)
(-0.00451328 -0.00153783 0)
(-0.00338329 -0.00138248 0)
(-0.00237849 -0.00118277 0)
(-0.00152766 -0.000941461 0)
(-0.000855042 -0.000667399 0)
(-0.000375846 -0.000379927 0)
(-9.3818e-05 -0.000116275 0)
(-9.31507e-07 4.59824e-05 0)
(-2.32745e-05 2.75686e-05 0)
(-0.000209804 0.00038244 0)
(-0.000663626 0.000861077 0)
(-0.00136427 0.00136535 0)
(-0.00229662 0.00184252 0)
(-0.00344031 0.00226302 0)
(-0.0047659 0.00261216 0)
(-0.00623917 0.00288467 0)
(-0.00782436 0.00308094 0)
(-0.00948599 0.00320462 0)
(-0.0111901 0.00326115 0)
(-0.012905 0.00325688 0)
(-0.014602 0.0031984 0)
(-0.016255 0.00309224 0)
(-0.0178411 0.00294457 0)
(-0.0193403 0.00276111 0)
(-0.0207353 0.00254705 0)
(-0.0220111 0.00230706 0)
(-0.0231552 0.00204525 0)
(-0.0241569 0.0017653 0)
(-0.0250074 0.00147045 0)
(-0.0256996 0.00116361 0)
(-0.0262277 0.000847414 0)
(-0.0265875 0.000524301 0)
(-0.0267759 0.000196586 0)
(-0.0267911 -0.000133469 0)
(-0.0266325 -0.000463584 0)
(-0.0263009 -0.000791393 0)
(-0.0257981 -0.00111438 0)
(-0.0251276 -0.00142979 0)
(-0.0242943 -0.00173463 0)
(-0.0233049 -0.00202553 0)
(-0.0221677 -0.00229872 0)
(-0.0208933 -0.00255 0)
(-0.0194945 -0.00277468 0)
(-0.0179866 -0.00296759 0)
(-0.0163877 -0.00312303 0)
(-0.0147187 -0.0032349 0)
(-0.0130036 -0.00329673 0)
(-0.0112694 -0.00330186 0)
(-0.00954611 -0.00324371 0)
(-0.00786659 -0.00311617 0)
(-0.00626573 -0.00291416 0)
(-0.00477977 -0.00263461 0)
(-0.00344494 -0.00227786 0)
(-0.00229553 -0.00185001 0)
(-0.00136071 -0.00136664 0)
(-0.000660167 -0.000858161 0)
(-0.000207916 -0.000378077 0)
(-2.28206e-05 -2.49928e-05 0)
(-4.33849e-05 0.000161105 0)
(-0.000319484 0.000786255 0)
(-0.000941499 0.00153539 0)
(-0.0018589 0.00230026 0)
(-0.00304299 0.00301744 0)
(-0.00446696 0.00364897 0)
(-0.00609593 0.00417457 0)
(-0.00789064 0.00458607 0)
(-0.00981046 0.00488307 0)
(-0.0118151 0.00507006 0)
(-0.0138657 0.00515443 0)
(-0.0159259 0.00514513 0)
(-0.0179622 0.00505176 0)
(-0.0199445 0.00488399 0)
(-0.0218459 0.00465113 0)
(-0.0236426 0.00436189 0)
(-0.0253142 0.00402427 0)
(-0.0268429 0.00364551 0)
(-0.0282136 0.00323207 0)
(-0.0294137 0.00278973 0)
(-0.0304325 0.00232364 0)
(-0.0312615 0.00183843 0)
(-0.0318939 0.00133832 0)
(-0.0323244 0.00082721 0)
(-0.0325494 0.000308821 0)
(-0.0325668 -0.000213213 0)
(-0.0323759 -0.00073523 0)
(-0.0319776 -0.00125344 0)
(-0.0313743 -0.00176381 0)
(-0.0305701 -0.00226199 0)
(-0.029571 -0.00274317 0)
(-0.028385 -0.00320204 0)
(-0.0270221 -0.00363267 0)
(-0.0254951 -0.00402848 0)
(-0.0238192 -0.00438215 0)
(-0.0220125 -0.00468566 0)
(-0.0200966 -0.00493028 0)
(-0.018096 -0.00510669 0)
(-0.0160388 -0.00520517 0)
(-0.0139565 -0.00521584 0)
(-0.011884 -0.00512913 0)
(-0.00985885 -0.00493641 0)
(-0.00792101 -0.00463087 0)
(-0.0061117 -0.00420889 0)
(-0.00447207 -0.00367192 0)
(-0.0030415 -0.00302938 0)
(-0.00185459 -0.00230286 0)
(-0.000937347 -0.00153158 0)
(-0.000317218 -0.00078009 0)
(-4.28379e-05 -0.00015736 0)
(-6.04965e-05 0.000349834 0)
(-0.000418478 0.00132307 0)
(-0.00119884 0.00239778 0)
(-0.00232198 0.00346337 0)
(-0.00374459 0.00445071 0)
(-0.00543215 0.00531638 0)
(-0.00734357 0.00603609 0)
(-0.00943437 0.00659947 0)
(-0.0116594 0.00700565 0)
(-0.0139741 0.00726006 0)
(-0.0163356 0.00737212 0)
(-0.0187038 0.00735355 0)
(-0.0210414 0.00721714 0)
(-0.0233148 0.00697595 0)
(-0.0254939 0.00664271 0)
(-0.0275522 0.00622946 0)
(-0.0294664 0.00574733 0)
(-0.0312165 0.00520648 0)
(-0.0327856 0.00461603 0)
(-0.034159 0.00398418 0)
(-0.0353248 0.00331828 0)
(-0.0362733 0.00262496 0)
(-0.0369966 0.00191026 0)
(-0.0374888 0.00117983 0)
(-0.0377458 0.000439018 0)
(-0.0377653 -0.000306937 0)
(-0.0375463 -0.00105276 0)
(-0.03709 -0.00179298 0)
(-0.0363991 -0.00252183 0)
(-0.0354783 -0.00323304 0)
(-0.0343345 -0.00391976 0)
(-0.0329767 -0.00457442 0)
(-0.0314165 -0.00518859 0)
(-0.0296682 -0.00575296 0)
(-0.0277491 -0.00625724 0)
(-0.0256798 -0.00669019 0)
(-0.0234844 -0.00703967 0)
(-0.0211905 -0.00729282 0)
(-0.0188295 -0.00743634 0)
(-0.0164366 -0.00745687 0)
(-0.0140504 -0.00734167 0)
(-0.0117126 -0.00707944 0)
(-0.00946734 -0.00666158 0)
(-0.00736012 -0.00608381 0)
(-0.00543674 -0.00534846 0)
(-0.00374187 -0.0044676 0)
(-0.00231626 -0.00346731 0)
(-0.00119356 -0.00239278 0)
(-0.000415621 -0.00131468 0)
(-5.9803e-05 -0.000344695 0)
(-7.47507e-05 0.000587081 0)
(-0.000505797 0.00198157 0)
(-0.00143176 0.00343573 0)
(-0.00274685 0.00484134 0)
(-0.0043935 0.00612749 0)
(-0.00632882 0.0072481 0)
(-0.00850492 0.00817671 0)
(-0.0108717 0.00890183 0)
(-0.0133795 0.00942275 0)
(-0.0159796 0.00974624 0)
(-0.0186257 0.009884 0)
(-0.0212739 0.00985073 0)
(-0.0238843 0.00966261 0)
(-0.0264201 0.00933635 0)
(-0.0288487 0.00888834 0)
(-0.0311411 0.0083342 0)
(-0.033272 0.00768849 0)
(-0.0352195 0.00696451 0)
(-0.036965 0.00617435 0)
(-0.0384924 0.00532886 0)
(-0.0397888 0.00443782 0)
(-0.0408433 0.0035101 0)
(-0.0416474 0.0025538 0)
(-0.0421946 0.00157645 0)
(-0.0424802 0.000585262 0)
(-0.0425018 -0.000412733 0)
(-0.0422584 -0.00141045 0)
(-0.0417512 -0.00240058 0)
(-0.0409831 -0.00337535 0)
(-0.0399594 -0.00432642 0)
(-0.0386876 -0.00524462 0)
(-0.0371775 -0.00611988 0)
(-0.0354419 -0.00694102 0)
(-0.0334965 -0.0076957 0)
(-0.0313602 -0.00837036 0)
(-0.0290555 -0.00895025 0)
(-0.0266087 -0.00941951 0)
(-0.02405 -0.00976146 0)
(-0.0214136 -0.00995892 0)
(-0.0187375 -0.00999484 0)
(-0.0160639 -0.00985306 0)
(-0.0134378 -0.00951944 0)
(-0.0109073 -0.00898331 0)
(-0.008522 -0.0082394 0)
(-0.00633251 -0.00729031 0)
(-0.00438908 -0.00614973 0)
(-0.00273927 -0.0048465 0)
(-0.00142502 -0.00342902 0)
(-0.000502174 -0.00197033 0)
(-7.38667e-05 -0.000580161 0)
(-8.66981e-05 0.000866532 0)
(-0.000582715 0.00274994 0)
(-0.00164166 0.00463542 0)
(-0.00313495 0.00641968 0)
(-0.0049918 0.00803275 0)
(-0.00716082 0.00942821 0)
(-0.00958695 0.0105792 0)
(-0.0122142 0.0114743 0)
(-0.014988 0.0121138 0)
(-0.0178557 0.0125065 0)
(-0.0207671 0.0126667 0)
(-0.0236756 0.0126125 0)
(-0.0265382 0.0123636 0)
(-0.0293157 0.0119406 0)
(-0.0319732 0.0113639 0)
(-0.0344798 0.010653 0)
(-0.0368083 0.00982597 0)
(-0.0389354 0.00889958 0)
(-0.040841 0.00788906 0)
(-0.0425082 0.00680814 0)
(-0.0439228 0.00566924 0)
(-0.0450734 0.00448361 0)
(-0.0459508 0.00326157 0)
(-0.046548 0.00201274 0)
(-0.0468601 0.000746299 0)
(-0.0468843 -0.000528765 0)
(-0.0466196 -0.00180342 0)
(-0.0460671 -0.00306833 0)
(-0.0452301 -0.00431362 0)
(-0.0441141 -0.00552865 0)
(-0.0427271 -0.00670177 0)
(-0.0410796 -0.00782019 0)
(-0.0391851 -0.00886975 0)
(-0.0370606 -0.00983485 0)
(-0.0347262 -0.0106984 0)
(-0.0322061 -0.0114419 0)
(-0.0295283 -0.0120455 0)
(-0.0267251 -0.0124883 0)
(-0.0238331 -0.0127491 0)
(-0.0208933 -0.0128069 0)
(-0.0179506 -0.0126417 0)
(-0.0150535 -0.0122364 0)
(-0.0122538 -0.0115776 0)
(-0.00960549 -0.0106588 0)
(-0.00716406 -0.00948179 0)
(-0.00498581 -0.00806089 0)
(-0.00312546 -0.00642596 0)
(-0.00163332 -0.00462644 0)
(-0.000578229 -0.00273509 0)
(-8.55931e-05 -0.000857358 0)
(-9.6925e-05 0.00118299 0)
(-0.000651314 0.00361771 0)
(-0.00183243 0.0059843 0)
(-0.00349204 0.00818531 0)
(-0.00554734 0.0101534 0)
(-0.00793865 0.0118437 0)
(-0.0106036 0.0132302 0)
(-0.0134801 0.0143031 0)
(-0.0165083 0.0150644 0)
(-0.0196313 0.0155256 0)
(-0.0227955 0.0157043 0)
(-0.0259509 0.0156221 0)
(-0.029052 0.0153029 0)
(-0.0320572 0.0147716 0)
(-0.0349296 0.0140526 0)
(-0.0376365 0.0131695 0)
(-0.0401494 0.0121443 0)
(-0.0424437 0.0109974 0)
(-0.0444981 0.00974729 0)
(-0.0462949 0.00841083 0)
(-0.0478193 0.0070032 0)
(-0.0490591 0.00553818 0)
(-0.0500046 0.00402845 0)
(-0.0506487 0.00248582 0)
(-0.0509859 0.000921555 0)
(-0.0510134 -0.000653303 0)
(-0.05073 -0.00222766 0)
(-0.0501369 -0.00379006 0)
(-0.0492374 -0.00532838 0)
(-0.0480372 -0.00682954 0)
(-0.0465445 -0.00827929 0)
(-0.0447704 -0.00966192 0)
(-0.0427291 -0.0109601 0)
(-0.0404383 -0.0121548 0)
(-0.0379191 -0.0132251 0)
(-0.0351971 -0.0141485 0)
(-0.0323019 -0.0149008 0)
(-0.0292677 -0.0154569 0)
(-0.0261333 -0.015791 0)
(-0.0229421 -0.0158777 0)
(-0.0197421 -0.0156932 0)
(-0.0165851 -0.0152165 0)
(-0.0135269 -0.0144315 0)
(-0.0106259 -0.0133293 0)
(-0.00794295 -0.0119104 0)
(-0.00554065 -0.0101884 0)
(-0.00348104 -0.00819285 0)
(-0.00182263 -0.00597257 0)
(-0.000645967 -0.0035985 0)
(-9.55867e-05 -0.00117106 0)
(-0.00010596 0.00153257 0)
(-0.000713876 0.00457665 0)
(-0.00200902 0.00747226 0)
(-0.00382598 0.0101278 0)
(-0.00607108 0.0124795 0)
(-0.00867668 0.0144849 0)
(-0.0115731 0.0161207 0)
(-0.0146918 0.017379 0)
(-0.0179676 0.0182653 0)
(-0.021339 0.0187939 0)
(-0.0247487 0.0189866 0)
(-0.0281436 0.0188691 0)
(-0.0314751 0.01847 0)
(-0.0346998 0.0178184 0)
(-0.0377787 0.0169435 0)
(-0.0406776 0.015873 0)
(-0.0433667 0.0146333 0)
(-0.0458202 0.0132484 0)
(-0.0480162 0.0117404 0)
(-0.0499362 0.0101294 0)
(-0.0515648 0.00843348 0)
(-0.0528894 0.00666904 0)
(-0.0539 0.0048512 0)
(-0.0545891 0.00299406 0)
(-0.0549511 0.00111106 0)
(-0.0549828 -0.000784672 0)
(-0.0546832 -0.0026799 0)
(-0.0540531 -0.00456096 0)
(-0.0530959 -0.0064134 0)
(-0.0518174 -0.00822162 0)
(-0.0502259 -0.00996861 0)
(-0.0483328 -0.0116356 0)
(-0.0461528 -0.013202 0)
(-0.043704 -0.014645 0)
(-0.0410086 -0.0159397 0)
(-0.0380931 -0.0170593 0)
(-0.0349885 -0.0179751 0)
(-0.0317308 -0.0186572 0)
(-0.0283609 -0.019075 0)
(-0.0249248 -0.0191984 0)
(-0.0214734 -0.018999 0)
(-0.0180622 -0.0184518 0)
(-0.0147509 -0.017537 0)
(-0.0116029 -0.0162428 0)
(-0.00868469 -0.0145675 0)
(-0.00606538 -0.0125229 0)
(-0.00381442 -0.0101372 0)
(-0.00199817 -0.00745761 0)
(-0.000707781 -0.00455246 0)
(-0.000104394 -0.00151739 0)
(-0.00011426 0.00191266 0)
(-0.000772642 0.00562104 0)
(-0.00217667 0.00909231 0)
(-0.00414549 0.01224 0)
(-0.00657545 0.0150043 0)
(-0.00939123 0.0173462 0)
(-0.0125158 0.0192454 0)
(-0.0158741 0.0206976 0)
(-0.0193953 0.0217119 0)
(-0.0230132 0.022307 0)
(-0.0266662 0.022509 0)
(-0.0302978 0.0223486 0)
(-0.033857 0.0218593 0)
(-0.0372978 0.0210754 0)
(-0.0405796 0.0200306 0)
(-0.0436665 0.0187577 0)
(-0.0465278 0.0172871 0)
(-0.0491366 0.015647 0)
(-0.0514704 0.0138634 0)
(-0.0535102 0.0119595 0)
(-0.0552402 0.00995648 0)
(-0.0566474 0.0078735 0)
(-0.0577217 0.00572818 0)
(-0.0584552 0.00353692 0)
(-0.0588424 0.00131537 0)
(-0.0588797 -0.0009212 0)
(-0.0585658 -0.00315739 0)
(-0.0579017 -0.00537731 0)
(-0.0568906 -0.0075641 0)
(-0.055538 -0.0096996 0)
(-0.0538523 -0.0117639 0)
(-0.0518451 -0.0137351 0)
(-0.0495311 -0.0155891 0)
(-0.0469291 -0.0172991 0)
(-0.0440618 -0.0188362 0)
(-0.0409566 -0.0201687 0)
(-0.0376459 -0.0212632 0)
(-0.0341672 -0.0220846 0)
(-0.0305637 -0.0225972 0)
(-0.0268838 -0.0227655 0)
(-0.0231817 -0.0225561 0)
(-0.0195166 -0.0219392 0)
(-0.0159527 -0.0208909 0)
(-0.0125587 -0.0193956 0)
(-0.0094069 -0.0174485 0)
(-0.00657336 -0.0150589 0)
(-0.0041349 -0.0122528 0)
(-0.00216551 -0.00907509 0)
(-0.000766027 -0.00559156 0)
(-0.000112491 -0.00189383 0)
(-0.000122221 0.0023218 0)
(-0.000829722 0.00674779 0)
(-0.00234057 0.0108408 0)
(-0.0044595 0.0145187 0)
(-0.0070734 0.0177255 0)
(-0.0100995 0.0204259 0)
(-0.0134534 0.0226036 0)
(-0.0170531 0.0242586 0)
(-0.020822 0.0254045 0)
(-0.0246887 0.0260649 0)
(-0.0285873 0.0262714 0)
(-0.0324579 0.0260602 0)
(-0.0362462 0.0254702 0)
(-0.0399042 0.0245411 0)
(-0.0433892 0.0233124 0)
(-0.0466641 0.0218214 0)
(-0.049697 0.0201035 0)
(-0.0524604 0.0181912 0)
(-0.0549311 0.0161142 0)
(-0.0570899 0.0138993 0)
(-0.0589205 0.0115708 0)
(-0.06041 0.00915067 0)
(-0.061548 0.00665908 0)
(-0.0623265 0.00411476 0)
(-0.0627398 0.00153554 0)
(-0.0627842 -0.00106116 0)
(-0.0624582 -0.0036578 0)
(-0.0617625 -0.00623623 0)
(-0.0607 -0.00877721 0)
(-0.0592762 -0.0112599 0)
(-0.0574993 -0.0136615 0)
(-0.0553806 -0.0159569 0)
(-0.0529351 -0.0181181 0)
(-0.0501815 -0.0201145 0)
(-0.0471433 -0.0219124 0)
(-0.0438486 -0.0234754 0)
(-0.0403309 -0.0247646 0)
(-0.0366294 -0.0257396 0)
(-0.0327893 -0.0263586 0)
(-0.028862 -0.0265806 0)
(-0.0249049 -0.0263665 0)
(-0.0209814 -0.0256809 0)
(-0.0171605 -0.024495 0)
(-0.0135165 -0.0227887 0)
(-0.0101281 -0.0205535 0)
(-0.00707852 -0.0177952 0)
(-0.00445204 -0.0145373 0)
(-0.00233017 -0.0108222 0)
(-0.000822929 -0.00671313 0)
(-0.000120287 -0.00229907 0)
(-0.000130182 0.00275963 0)
(-0.000887068 0.00795629 0)
(-0.00250572 0.0127176 0)
(-0.00477679 0.0169645 0)
(-0.00757789 0.0206447 0)
(-0.0108188 0.0237269 0)
(-0.0144075 0.0261991 0)
(-0.018255 0.0280664 0)
(-0.0222784 0.0293476 0)
(-0.0264007 0.0300725 0)
(-0.0305516 0.0302783 0)
(-0.0346671 0.0300077 0)
(-0.03869 0.0293058 0)
(-0.0425698 0.0282184 0)
(-0.0462619 0.0267907 0)
(-0.0497279 0.0250656 0)
(-0.0529349 0.0230835 0)
(-0.0558547 0.0208813 0)
(-0.0584639 0.018493 0)
(-0.0607427 0.015949 0)
(-0.0626751 0.0132767 0)
(-0.0642479 0.0105011 0)
(-0.0654508 0.00764473 0)
(-0.0662756 0.00472872 0)
(-0.0667166 0.00177306 0)
(-0.0667699 -0.00120274 0)
(-0.0664338 -0.00417903 0)
(-0.0657086 -0.00713545 0)
(-0.064597 -0.0100504 0)
(-0.0631039 -0.0129003 0)
(-0.0612373 -0.0156595 0)
(-0.0590082 -0.0182994 0)
(-0.0564314 -0.0207883 0)
(-0.0535258 -0.023091 0)
(-0.0503149 -0.0251693 0)
(-0.0468276 -0.0269813 0)
(-0.0430986 -0.0284826 0)
(-0.0391686 -0.0296264 0)
(-0.0350852 -0.0303647 0)
(-0.0309024 -0.0306501 0)
(-0.0266815 -0.0304369 0)
(-0.0224903 -0.0296838 0)
(-0.0184031 -0.028356 0)
(-0.0145002 -0.0264281 0)
(-0.0108673 -0.0238872 0)
(-0.0075949 -0.0207354 0)
(-0.00477531 -0.0169928 0)
(-0.0024975 -0.0126997 0)
(-0.000880565 -0.0079172 0)
(-0.000128142 -0.00273293 0)
(-0.000138443 0.00322676 0)
(-0.000946489 0.00924839 0)
(-0.00267688 0.0147258 0)
(-0.00510585 0.019582 0)
(-0.00810161 0.023768 0)
(-0.0115662 0.0272563 0)
(-0.0153998 0.03004 0)
(-0.0195059 0.0321296 0)
(-0.0237947 0.0335503 0)
(-0.0281837 0.0343383 0)
(-0.0325973 0.034538 0)
(-0.0369676 0.0341988 0)
(-0.041234 0.033373 0)
(-0.0453434 0.0321132 0)
(-0.0492494 0.0304707 0)
(-0.0529122 0.0284945 0)
(-0.056298 0.0262304 0)
(-0.0593782 0.0237203 0)
(-0.062129 0.0210023 0)
(-0.0645308 0.0181106 0)
(-0.0665673 0.0150761 0)
(-0.0682257 0.0119264 0)
(-0.0694955 0.00868684 0)
(-0.0703687 0.00538062 0)
(-0.0708395 0.00202985 0)
(-0.0709038 -0.00134392 0)
(-0.0705597 -0.00471905 0)
(-0.069807 -0.00807304 0)
(-0.068648 -0.0113819 0)
(-0.067087 -0.0146196 0)
(-0.0651315 -0.0177572 0)
(-0.062792 -0.0207628 0)
(-0.0600828 -0.0236006 0)
(-0.0570226 -0.0262311 0)
(-0.0536353 -0.0286106 0)
(-0.0499501 -0.0306918 0)
(-0.0460026 -0.0324238 0)
(-0.0418353 -0.0337532 0)
(-0.0374979 -0.034625 0)
(-0.0330477 -0.0349845 0)
(-0.0285499 -0.0347788 0)
(-0.0240771 -0.0339595 0)
(-0.0197094 -0.0324853 0)
(-0.0155337 -0.0303247 0)
(-0.0116432 -0.0274596 0)
(-0.00813646 -0.0238877 0)
(-0.00511399 -0.0196259 0)
(-0.00267266 -0.0147121 0)
(-0.000940885 -0.00920643 0)
(-0.000136375 -0.00319629 0)
(-0.000147275 0.00372468 0)
(-0.00100968 0.0106282 0)
(-0.00285857 0.016872 0)
(-0.00545494 0.0223799 0)
(-0.00865699 0.0271056 0)
(-0.0123586 0.0310259 0)
(-0.0164516 0.0341389 0)
(-0.0208314 0.0364615 0)
(-0.025401 0.0380257 0)
(-0.0300715 0.0388752 0)
(-0.0347621 0.0390624 0)
(-0.0394003 0.0386446 0)
(-0.043922 0.0376817 0)
(-0.0482715 0.036234 0)
(-0.0524005 0.0343597 0)
(-0.0562679 0.0321144 0)
(-0.0598391 0.0295496 0)
(-0.0630852 0.0267125 0)
(-0.0659822 0.0236457 0)
(-0.0685107 0.0203874 0)
(-0.0706547 0.0169717 0)
(-0.0724015 0.0134293 0)
(-0.073741 0.00978784 0)
(-0.0746652 0.00607279 0)
(-0.0751683 0.00230822 0)
(-0.0752461 -0.00148249 0)
(-0.0748963 -0.00527577 0)
(-0.0741182 -0.00904714 0)
(-0.0729135 -0.0127704 0)
(-0.0712858 -0.0164168 0)
(-0.0692418 -0.0199546 0)
(-0.0667912 -0.0233482 0)
(-0.0639477 -0.0265576 0)
(-0.0607295 -0.0295386 0)
(-0.0571604 -0.032242 0)
(-0.0532699 -0.0346142 0)
(-0.0490945 -0.0365976 0)
(-0.0446783 -0.0381313 0)
(-0.0400733 -0.0391525 0)
(-0.0353402 -0.0395983 0)
(-0.0305482 -0.0394078 0)
(-0.0257755 -0.0385245 0)
(-0.0211084 -0.0368995 0)
(-0.0166411 -0.0344945 0)
(-0.0124748 -0.0312854 0)
(-0.00871707 -0.0272652 0)
(-0.00547724 -0.0224474 0)
(-0.00286067 -0.0168677 0)
(-0.00100574 -0.010586 0)
(-0.000145275 -0.00369098 0)
(-0.00015693 0.00425575 0)
(-0.00107827 0.0121021 0)
(-0.00305522 0.0191658 0)
(-0.00583209 0.0253705 0)
(-0.00925624 0.0306723 0)
(-0.0132126 0.0350518 0)
(-0.0175839 0.0385129 0)
(-0.0222569 0.0410793 0)
(-0.0271267 0.0427907 0)
(-0.0320974 0.0436996 0)
(-0.0370824 0.0438669 0)
(-0.0420045 0.043359 0)
(-0.0467961 0.0422445 0)
(-0.0513984 0.0405918 0)
(-0.0557613 0.0384672 0)
(-0.0598425 0.0359333 0)
(-0.0636068 0.0330478 0)
(-0.0670252 0.0298635 0)
(-0.0700738 0.0264279 0)
(-0.0727335 0.0227832 0)
(-0.0749888 0.018967 0)
(-0.0768274 0.0150128 0)
(-0.0782397 0.0109506 0)
(-0.0792179 0.00680801 0)
(-0.0797561 0.0026108 0)
(-0.0798502 -0.00161591 0)
(-0.0794973 -0.00584688 0)
(-0.0786963 -0.0100558 0)
(-0.0774478 -0.0142143 0)
(-0.0757548 -0.0182913 0)
(-0.0736227 -0.0222519 0)
(-0.0710603 -0.026057 0)
(-0.0680803 -0.0296623 0)
(-0.0647002 -0.0330184 0)
(-0.0609432 -0.0360704 0)
(-0.0568389 -0.0387578 0)
(-0.0524245 -0.0410156 0)
(-0.0477457 -0.0427746 0)
(-0.0428567 -0.0439634 0)
(-0.0378217 -0.0445099 0)
(-0.0327147 -0.0443438 0)
(-0.0276194 -0.0433997 0)
(-0.0226292 -0.0416199 0)
(-0.0178464 -0.0389586 0)
(-0.0133812 -0.0353846 0)
(-0.00935063 -0.030886 0)
(-0.00587419 -0.0254724 0)
(-0.00306648 -0.0191783 0)
(-0.00107696 -0.0120634 0)
(-0.000155121 -0.00421981 0)
(-0.00016765 0.00482315 0)
(-0.00115384 0.0136786 0)
(-0.00327116 0.0216202 0)
(-0.0062453 0.0285704 0)
(-0.00991151 0.0344869 0)
(-0.0141449 0.0393547 0)
(-0.0188179 0.0431834 0)
(-0.0238077 0.0460045 0)
(-0.0290009 0.0478664 0)
(-0.0342939 0.0488312 0)
(-0.0395939 0.0489697 0)
(-0.0448186 0.0483584 0)
(-0.0498964 0.0470757 0)
(-0.0547657 0.0451993 0)
(-0.0593747 0.042804 0)
(-0.0636799 0.0399601 0)
(-0.0676457 0.0367324 0)
(-0.0712431 0.0331795 0)
(-0.0744488 0.0293541 0)
(-0.0772443 0.0253025 0)
(-0.0796148 0.0210658 0)
(-0.0815488 0.0166803 0)
(-0.083037 0.0121784 0)
(-0.0840723 0.00758931 0)
(-0.0846488 0.00294059 0)
(-0.0847622 -0.00174129 0)
(-0.0844094 -0.00642963 0)
(-0.0835883 -0.0110965 0)
(-0.0822988 -0.0157118 0)
(-0.0805425 -0.0202419 0)
(-0.0783234 -0.0246491 0)
(-0.0756491 -0.0288906 0)
(-0.0725308 -0.0329178 0)
(-0.0689848 -0.0366758 0)
(-0.0650335 -0.0401034 0)
(-0.0607064 -0.043133 0)
(-0.056041 -0.045691 0)
(-0.0510841 -0.0476993 0)
(-0.0458927 -0.0490767 0)
(-0.0405343 -0.0497406 0)
(-0.0350877 -0.0496105 0)
(-0.0296432 -0.0486103 0)
(-0.0243017 -0.0466728 0)
(-0.0191745 -0.043743 0)
(-0.0143816 -0.0397823 0)
(-0.0100514 -0.034773 0)
(-0.00631414 -0.028721 0)
(-0.00329515 -0.0216593 0)
(-0.00115636 -0.013649 0)
(-0.000166191 -0.00478647 0)
(-0.000179683 0.00543087 0)
(-0.00123801 0.0153685 0)
(-0.00351082 0.0242513 0)
(-0.00670271 0.0319996 0)
(-0.0106351 0.0385726 0)
(-0.015172 0.0439594 0)
(-0.0201745 0.0481761 0)
(-0.0255091 0.0512625 0)
(-0.0310526 0.0532772 0)
(-0.0366933 0.0542929 0)
(-0.0423315 0.0543918 0)
(-0.0478794 0.0536616 0)
(-0.0532614 0.0521917 0)
(-0.0584131 0.0500703 0)
(-0.0632808 0.0473815 0)
(-0.0678203 0.0442044 0)
(-0.0719959 0.0406111 0)
(-0.0757789 0.0366667 0)
(-0.0791469 0.0324292 0)
(-0.0820823 0.0279493 0)
(-0.0845716 0.0232716 0)
(-0.086604 0.0184351 0)
(-0.0881712 0.0134742 0)
(-0.0892666 0.00841988 0)
(-0.0898847 0.00330083 0)
(-0.0900209 -0.00185531 0)
(-0.0896717 -0.00702074 0)
(-0.0888343 -0.0121663 0)
(-0.0875072 -0.0172601 0)
(-0.0856906 -0.0222666 0)
(-0.0833869 -0.0271452 0)
(-0.0806015 -0.0318496 0)
(-0.0773441 -0.0363266 0)
(-0.0736293 -0.0405157 0)
(-0.0694782 -0.0443489 0)
(-0.0649194 -0.0477504 0)
(-0.0599906 -0.050638 0)
(-0.0547396 -0.0529231 0)
(-0.0492255 -0.0545135 0)
(-0.0435197 -0.0553151 0)
(-0.0377062 -0.0552352 0)
(-0.031882 -0.0541861 0)
(-0.0261564 -0.0520891 0)
(-0.0206507 -0.048879 0)
(-0.0154965 -0.044509 0)
(-0.0108341 -0.0389544 0)
(-0.00680681 -0.0322175 0)
(-0.00355193 -0.0243301 0)
(-0.00124585 -0.0153553 0)
(-0.000178771 -0.00539562 0)
(-0.000193285 0.00608373 0)
(-0.00133246 0.0171845 0)
(-0.00377881 0.0270786 0)
(-0.00721273 0.0356827 0)
(-0.0114399 0.0429571 0)
(-0.0163114 0.0488954 0)
(-0.0216755 0.0535208 0)
(-0.0273866 0.0568828 0)
(-0.0333109 0.059051 0)
(-0.0393275 0.0601104 0)
(-0.0453293 0.0601561 0)
(-0.0512227 0.0592886 0)
(-0.0569277 0.0576096 0)
(-0.0623774 0.0552189 0)
(-0.0675164 0.0522114 0)
(-0.0723 0.0486753 0)
(-0.0766928 0.044691 0)
(-0.0806669 0.0403307 0)
(-0.0842013 0.0356576 0)
(-0.0872798 0.0307272 0)
(-0.0898903 0.0255875 0)
(-0.0920235 0.02028 0)
(-0.0936722 0.0148411 0)
(-0.0948305 0.00930286 0)
(-0.0954934 0.003695 0)
(-0.0956563 -0.00195417 0)
(-0.095315 -0.00761617 0)
(-0.0944659 -0.0132609 0)
(-0.0931061 -0.0188554 0)
(-0.0912337 -0.0243621 0)
(-0.0888492 -0.0297381 0)
(-0.0859557 -0.0349333 0)
(-0.0825603 -0.03989 0)
(-0.0786754 -0.0445418 0)
(-0.0743202 -0.0488134 0)
(-0.069522 -0.0526207 0)
(-0.064318 -0.0558709 0)
(-0.0587567 -0.0584645 0)
(-0.0528991 -0.0602968 0)
(-0.0468203 -0.0612602 0)
(-0.0406097 -0.0612486 0)
(-0.0343717 -0.0601606 0)
(-0.028225 -0.0579044 0)
(-0.0223019 -0.0544034 0)
(-0.0167469 -0.0496004 0)
(-0.0117145 -0.0434637 0)
(-0.00736252 -0.0359911 0)
(-0.00384244 -0.0272138 0)
(-0.00134749 -0.0171977 0)
(-0.000193172 -0.00605291 0)
(-0.000208737 0.00678744 0)
(-0.00143901 0.0191421 0)
(-0.00408003 0.0301248 0)
(-0.00778432 0.0396479 0)
(-0.0123392 0.0476724 0)
(-0.017581 0.0541965 0)
(-0.0233433 0.0592517 0)
(-0.0294666 0.0628982 0)
(-0.0358053 0.0652185 0)
(-0.0422285 0.0663116 0)
(-0.0486208 0.0662872 0)
(-0.0548827 0.0652603 0)
(-0.0609298 0.0633467 0)
(-0.0666926 0.0606591 0)
(-0.0721144 0.0573043 0)
(-0.0771505 0.0533808 0)
(-0.0817662 0.0489781 0)
(-0.0859352 0.0441754 0)
(-0.0896383 0.0390422 0)
(-0.0928613 0.0336384 0)
(-0.095594 0.0280154 0)
(-0.097829 0.0222171 0)
(-0.0995606 0.0162813 0)
(-0.100784 0.0102411 0)
(-0.101495 0.00412669 0)
(-0.101688 -0.00203357 0)
(-0.10136 -0.00821098 0)
(-0.100505 -0.0143751 0)
(-0.099119 -0.0204922 0)
(-0.0971976 -0.0265233 0)
(-0.0947385 -0.0324232 0)
(-0.0917421 -0.0381385 0)
(-0.0882124 -0.0436069 0)
(-0.0841589 -0.0487558 0)
(-0.0795979 -0.0535023 0)
(-0.0745548 -0.0577527 0)
(-0.0690654 -0.0614034 0)
(-0.0631785 -0.0643422 0)
(-0.0569566 -0.0664501 0)
(-0.0504783 -0.0676048 0)
(-0.0438386 -0.0676842 0)
(-0.0371497 -0.0665713 0)
(-0.0305408 -0.0641593 0)
(-0.0241564 -0.0603577 0)
(-0.0181558 -0.055098 0)
(-0.0127095 -0.04834 0)
(-0.00799249 -0.0400766 0)
(-0.00417281 -0.0303382 0)
(-0.00146353 -0.0191944 0)
(-0.00020974 -0.00676511 0)
(-0.00022635 0.00754869 0)
(-0.00155965 0.0212591 0)
(-0.00441982 0.0334167 0)
(-0.0084271 0.043928 0)
(-0.0133474 0.052755 0)
(-0.0189999 0.059901 0)
(-0.0252011 0.0654069 0)
(-0.0317761 0.0693452 0)
(-0.0385657 0.0718133 0)
(-0.045428 0.0729262 0)
(-0.0522388 0.0728105 0)
(-0.0588921 0.0715978 0)
(-0.0652995 0.0694197 0)
(-0.0713889 0.0664036 0)
(-0.0771029 0.0626693 0)
(-0.0823974 0.0583271 0)
(-0.0872391 0.0534759 0)
(-0.091604 0.0482029 0)
(-0.0954753 0.0425837 0)
(-0.0988415 0.0366829 0)
(-0.101695 0.0305553 0)
(-0.104031 0.0242467 0)
(-0.105846 0.0177962 0)
(-0.107136 0.0112372 0)
(-0.107897 0.00459951 0)
(-0.108126 -0.00208867 0)
(-0.107816 -0.00879921 0)
(-0.106963 -0.015502 0)
(-0.105559 -0.022163 0)
(-0.103597 -0.0287425 0)
(-0.101073 -0.0351934 0)
(-0.0979821 -0.0414593 0)
(-0.0943255 -0.0474731 0)
(-0.0901084 -0.0531563 0)
(-0.0853436 -0.0584175 0)
(-0.0800533 -0.0631531 0)
(-0.0742714 -0.0672473 0)
(-0.0680457 -0.0705736 0)
(-0.06144 -0.0729972 0)
(-0.0545357 -0.0743786 0)
(-0.0474338 -0.0745776 0)
(-0.0402546 -0.073459 0)
(-0.0331385 -0.0708983 0)
(-0.0262443 -0.066789 0)
(-0.0197474 -0.0610491 0)
(-0.0138374 -0.0536283 0)
(-0.00870903 -0.0445138 0)
(-0.00454986 -0.0337354 0)
(-0.00159649 -0.021367 0)
(-0.000228873 -0.00754017 0)
(-0.000246481 0.00837523 0)
(-0.00169659 0.023556 0)
(-0.00480409 0.0369845 0)
(-0.00915159 0.0485605 0)
(-0.01448 0.0582465 0)
(-0.0205883 0.0660519 0)
(-0.0272735 0.0720285 0)
(-0.0343429 0.0762633 0)
(-0.0416222 0.0788708 0)
(-0.0489572 0.079985 0)
(-0.0562143 0.0797516 0)
(-0.0632811 0.0783212 0)
(-0.0700649 0.0758436 0)
(-0.0764916 0.0724626 0)
(-0.0825039 0.0683128 0)
(-0.088059 0.0635171 0)
(-0.0931259 0.0581848 0)
(-0.0976836 0.0524116 0)
(-0.101719 0.0462797 0)
(-0.105224 0.0398583 0)
(-0.108194 0.033205 0)
(-0.110627 0.0263677 0)
(-0.112523 0.0193858 0)
(-0.113879 0.0122925 0)
(-0.114693 0.00511689 0)
(-0.114961 -0.00211414 0)
(-0.114677 -0.0093737 0)
(-0.113834 -0.0166327 0)
(-0.112423 -0.0238578 0)
(-0.110433 -0.0310091 0)
(-0.107857 -0.038038 0)
(-0.104685 -0.0448856 0)
(-0.100913 -0.0514805 0)
(-0.0965426 -0.0577376 0)
(-0.091581 -0.0635573 0)
(-0.0860462 -0.0688248 0)
(-0.0799689 -0.0734111 0)
(-0.073395 -0.0771738 0)
(-0.0663885 -0.0799604 0)
(-0.0590334 -0.0816114 0)
(-0.0514361 -0.0819658 0)
(-0.0437257 -0.0808671 0)
(-0.0360547 -0.0781702 0)
(-0.0285975 -0.0737495 0)
(-0.0215483 -0.0675069 0)
(-0.0151184 -0.0593799 0)
(-0.00952577 -0.049349 0)
(-0.00498119 -0.0374427 0)
(-0.00174924 -0.0237406 0)
(-0.000251028 -0.00838745 0)
(-0.000269541 0.00927604 0)
(-0.00185233 0.0260566 0)
(-0.00523937 0.0408633 0)
(-0.00996935 0.0535878 0)
(-0.0157537 0.0641932 0)
(-0.0223678 0.0726965 0)
(-0.029586 0.0791622 0)
(-0.0371954 0.0836944 0)
(-0.0450047 0.086428 0)
(-0.0528461 0.0875187 0)
(-0.0605764 0.0871347 0)
(-0.068076 0.0854485 0)
(-0.0752487 0.0826303 0)
(-0.0820193 0.0788427 0)
(-0.0883311 0.0742368 0)
(-0.0941436 0.0689491 0)
(-0.0994295 0.0631006 0)