/*--------------------------------*- C++ -*----------------------------------*\
  =========                 |
  \\      /  F ield         | OpenFOAM: The Open Source CFD Toolbox
   \\    /   O peration     | Website:  https://openfoam.org
    \\  /    A nd           | Version:  7
     \\/     M anipulation  |
\*---------------------------------------------------------------------------*/
FoamFile
{
    version     2.0;
    format      ascii;
    class       volScalarField;
    location    "0.02";
    object      p;
}
// * * * * * * * * * * * * * * * * * * * * * * * * * * * * * * * * * * * * * //

dimensions      [0 2 -2 0 0 0 0];

internalField   nonuniform List<scalar> 
2500
(
-1.25214e-05
-6.51045
-9.29283
-10.485
-11.1463
-11.5483
-11.8076
-11.9881
-12.1218
-12.2252
-12.3076
-12.3748
-12.4307
-12.4778
-12.518
-12.5527
-12.583
-12.6096
-12.6333
-12.6544
-12.6736
-12.691
-12.707
-12.7219
-12.7359
-12.7492
-12.762
-12.7746
-12.7871
-12.7997
-12.8128
-12.8266
-12.8415
-12.8579
-12.8763
-12.8975
-12.9224
-12.9521
-12.9884
-13.0336
-13.0913
-13.1667
-13.2687
-13.4131
-13.6311
-13.9841
-14.5796
-15.6771
-18.3425
-24.7273
-4.95697
-7.67544
-9.18004
-10.1374
-10.8021
-11.2587
-11.5767
-11.8064
-11.9783
-12.1107
-12.2153
-12.2997
-12.3692
-12.4272
-12.4763
-12.5183
-12.5548
-12.5867
-12.6149
-12.6401
-12.6629
-12.6836
-12.7027
-12.7205
-12.7374
-12.7535
-12.7693
-12.7849
-12.8006
-12.8167
-12.8337
-12.8518
-12.8716
-12.8937
-12.9188
-12.9479
-12.9823
-13.0236
-13.0743
-13.1377
-13.2186
-13.3244
-13.4661
-13.6615
-13.9399
-14.3494
-14.9557
-15.841
-17.2595
-19.8588
-7.92918
-8.75942
-9.55833
-10.2371
-10.7748
-11.182
-11.4885
-11.7221
-11.903
-12.0455
-12.1597
-12.2526
-12.3294
-12.3938
-12.4483
-12.4951
-12.5356
-12.5711
-12.6025
-12.6305
-12.6558
-12.6789
-12.7003
-12.7203
-12.7393
-12.7576
-12.7755
-12.7933
-12.8114
-12.8302
-12.8499
-12.8712
-12.8945
-12.9206
-12.9502
-12.9845
-13.0249
-13.0732
-13.132
-13.2047
-13.2961
-13.4132
-13.5655
-13.7668
-14.0368
-14.402
-14.8911
-15.5164
-16.2605
-17.0238
-9.4417
-9.65204
-10.0687
-10.5115
-10.9023
-11.227
-11.4909
-11.7039
-11.876
-12.0159
-12.1307
-12.2258
-12.3053
-12.3726
-12.43
-12.4795
-12.5226
-12.5604
-12.594
-12.624
-12.6512
-12.6761
-12.6992
-12.7208
-12.7415
-12.7614
-12.781
-12.8007
-12.8206
-12.8414
-12.8633
-12.8868
-12.9127
-12.9415
-12.9741
-13.0116
-13.0555
-13.1074
-13.1697
-13.2455
-13.3387
-13.4547
-13.6001
-13.7835
-14.0148
-14.3036
-14.656
-15.0593
-15.4398
-15.617
-10.3302
-10.3256
-10.5266
-10.8012
-11.0738
-11.3218
-11.5382
-11.7227
-11.8784
-12.0093
-12.1195
-12.2128
-12.292
-12.3599
-12.4184
-12.4692
-12.5138
-12.5531
-12.5881
-12.6196
-12.6482
-12.6744
-12.6988
-12.7218
-12.7438
-12.7651
-12.7861
-12.8071
-12.8286
-12.8509
-12.8744
-12.8997
-12.9274
-12.958
-12.9926
-13.032
-13.0775
-13.1307
-13.1936
-13.2685
-13.3584
-13.4669
-13.598
-13.7559
-13.9439
-14.162
-14.4045
-14.6507
-14.8285
-14.8087
-10.8993
-10.8201
-10.9054
-11.0704
-11.2562
-11.4405
-11.6126
-11.7671
-11.903
-12.0212
-12.1235
-12.212
-12.2885
-12.355
-12.4131
-12.464
-12.5089
-12.5488
-12.5846
-12.617
-12.6465
-12.6737
-12.699
-12.723
-12.7459
-12.7682
-12.7903
-12.8124
-12.8349
-12.8583
-12.883
-12.9094
-12.9381
-12.9698
-13.0051
-13.0451
-13.0907
-13.1432
-13.2042
-13.2753
-13.3586
-13.456
-13.5695
-13.7003
-13.8478
-14.0076
-14.1701
-14.315
-14.3862
-14.3025
-11.2831
-11.1865
-11.2128
-11.309
-11.4332
-11.5676
-11.7012
-11.8275
-11.9431
-12.047
-12.1395
-12.2213
-12.2934
-12.357
-12.4133
-12.4632
-12.5076
-12.5475
-12.5834
-12.616
-12.6459
-12.6736
-12.6995
-12.7241
-12.7476
-12.7706
-12.7933
-12.816
-12.8392
-12.8633
-12.8885
-12.9155
-12.9446
-12.9764
-13.0117
-13.0511
-13.0954
-13.1457
-13.2031
-13.2685
-13.3432
-13.4281
-13.5235
-13.6289
-13.7417
-13.8561
-13.9626
-14.0447
-14.0631
-13.9677
-11.5571
-11.4638
-11.4607
-11.5143
-11.5958
-11.6924
-11.7946
-11.896
-11.9925
-12.0822
-12.1641
-12.2382
-12.3048
-12.3646
-12.4181
-12.4661
-12.5094
-12.5484
-12.5839
-12.6163
-12.6462
-12.674
-12.7001
-12.7248
-12.7487
-12.772
-12.7949
-12.818
-12.8415
-12.8657
-12.8911
-12.918
-12.9469
-12.9782
-13.0126
-13.0505
-13.0927
-13.1398
-13.1924
-13.2513
-13.3168
-13.3891
-13.4676
-13.5509
-13.6357
-13.7163
-13.7846
-13.8285
-13.8215
-13.7324
-11.7629
-11.6787
-11.6613
-11.6885
-11.741
-11.8095
-11.8869
-11.9673
-12.0468
-12.123
-12.1945
-12.2606
-12.3212
-12.3764
-12.4265
-12.4721
-12.5135
-12.5512
-12.5858
-12.6176
-12.647
-12.6745
-12.7004
-12.7251
-12.749
-12.7722
-12.7952
-12.8182
-12.8415
-12.8656
-12.8907
-12.9171
-12.9453
-12.9756
-13.0085
-13.0444
-13.0837
-13.127
-13.1745
-13.2265
-13.2829
-13.3436
-13.4073
-13.4723
-13.5353
-13.5912
-13.6338
-13.6548
-13.6362
-13.5579
-11.9235
-11.8491
-11.825
-11.8361
-11.8688
-11.9168
-11.9748
-12.038
-12.1029
-12.1669
-12.2285
-12.2867
-12.341
-12.3914
-12.4378
-12.4804
-12.5196
-12.5556
-12.5888
-12.6196
-12.6482
-12.6751
-12.7006
-12.7249
-12.7484
-12.7713
-12.7939
-12.8166
-12.8395
-12.8631
-12.8875
-12.9131
-12.9401
-12.969
-13
-13.0335
-13.0697
-13.1088
-13.1511
-13.1964
-13.2445
-13.2948
-13.346
-13.3963
-13.4426
-13.4809
-13.5065
-13.5138
-13.4904
-13.4228
-12.0524
-11.9869
-11.9603
-11.9615
-11.9807
-12.0138
-12.0569
-12.1062
-12.1586
-12.2119
-12.2644
-12.3151
-12.3633
-12.4087
-12.4511
-12.4905
-12.5271
-12.5611
-12.5927
-12.6221
-12.6497
-12.6757
-12.7004
-12.724
-12.7469
-12.7692
-12.7913
-12.8133
-12.8356
-12.8583
-12.8818
-12.9062
-12.9319
-12.9591
-12.988
-13.0188
-13.0517
-13.0868
-13.124
-13.1631
-13.2038
-13.2451
-13.286
-13.3246
-13.3584
-13.3843
-13.3987
-13.3979
-13.3732
-13.3149
-12.1579
-12.1002
-12.0732
-12.0684
-12.0785
-12.1008
-12.1325
-12.1706
-12.2127
-12.2567
-12.3011
-12.3449
-12.3872
-12.4277
-12.466
-12.5021
-12.5359
-12.5676
-12.5972
-12.6251
-12.6513
-12.6762
-12.6999
-12.7226
-12.7446
-12.7661
-12.7874
-12.8086
-12.8299
-12.8516
-12.874
-12.8971
-12.9212
-12.9465
-12.9731
-13.0012
-13.0308
-13.0619
-13.0944
-13.128
-13.1622
-13.1961
-13.2286
-13.2581
-13.2826
-13.2997
-13.3067
-13.3013
-13.2772
-13.2268
-12.2456
-12.1947
-12.1685
-12.1602
-12.1642
-12.1787
-12.2017
-12.2309
-12.2644
-12.3005
-12.3377
-12.3751
-12.412
-12.4477
-12.482
-12.5146
-12.5456
-12.5748
-12.6024
-12.6285
-12.6532
-12.6766
-12.6991
-12.7207
-12.7417
-12.7622
-12.7824
-12.8026
-12.8228
-12.8433
-12.8643
-12.8859
-12.9083
-12.9316
-12.956
-12.9814
-13.0079
-13.0353
-13.0636
-13.0923
-13.1208
-13.1486
-13.1744
-13.1969
-13.2146
-13.2255
-13.2277
-13.2199
-13.1971
-13.1534
-12.3195
-12.2746
-12.2498
-12.2395
-12.2394
-12.2483
-12.2647
-12.2869
-12.3134
-12.3427
-12.3737
-12.4054
-12.4372
-12.4684
-12.4988
-12.528
-12.556
-12.5827
-12.608
-12.6322
-12.6552
-12.6771
-12.6982
-12.7185
-12.7383
-12.7576
-12.7766
-12.7955
-12.8145
-12.8337
-12.8533
-12.8733
-12.8939
-12.9152
-12.9373
-12.9601
-12.9836
-13.0077
-13.0322
-13.0566
-13.0805
-13.1031
-13.1236
-13.1409
-13.1535
-13.1601
-13.1594
-13.1504
-13.1293
-13.0914
-12.3824
-12.3427
-12.3197
-12.3086
-12.3058
-12.3107
-12.3221
-12.3388
-12.3596
-12.3832
-12.4088
-12.4354
-12.4625
-12.4896
-12.5162
-12.5421
-12.5671
-12.5911
-12.6142
-12.6363
-12.6574
-12.6777
-12.6972
-12.7161
-12.7345
-12.7524
-12.7702
-12.7878
-12.8054
-12.8231
-12.8411
-12.8595
-12.8783
-12.8976
-12.9175
-12.9379
-12.9587
-12.9797
-13.0008
-13.0216
-13.0416
-13.0601
-13.0764
-13.0895
-13.0985
-13.1022
-13.0997
-13.0904
-13.0713
-13.0384
-12.4363
-12.4014
-12.3804
-12.3691
-12.3648
-12.3668
-12.3745
-12.3868
-12.4029
-12.4218
-12.4427
-12.4648
-12.4877
-12.5109
-12.5339
-12.5566
-12.5787
-12.6001
-12.6208
-12.6407
-12.6599
-12.6784
-12.6963
-12.7136
-12.7305
-12.747
-12.7633
-12.7795
-12.7956
-12.8119
-12.8283
-12.845
-12.862
-12.8794
-12.8971
-12.9152
-12.9334
-12.9518
-12.9699
-12.9876
-13.0043
-13.0194
-13.0324
-13.0425
-13.0489
-13.0506
-13.0471
-13.0381
-13.021
-12.9926
-12.4831
-12.4525
-12.4335
-12.4226
-12.4174
-12.4174
-12.4223
-12.4313
-12.4436
-12.4585
-12.4754
-12.4936
-12.5127
-12.5323
-12.552
-12.5715
-12.5908
-12.6096
-12.6279
-12.6457
-12.6629
-12.6795
-12.6956
-12.7113
-12.7265
-12.7415
-12.7563
-12.771
-12.7856
-12.8002
-12.815
-12.83
-12.8452
-12.8607
-12.8764
-12.8923
-12.9083
-12.9242
-12.9398
-12.9547
-12.9687
-12.9811
-12.9915
-12.9993
-13.0038
-13.0043
-13.0004
-12.992
-12.9769
-12.9525
-12.5239
-12.4973
-12.4805
-12.4702
-12.4646
-12.4634
-12.4663
-12.4726
-12.4818
-12.4934
-12.5068
-12.5216
-12.5373
-12.5536
-12.5702
-12.5868
-12.6034
-12.6196
-12.6356
-12.6511
-12.6662
-12.6809
-12.6952
-12.7091
-12.7227
-12.7361
-12.7493
-12.7624
-12.7754
-12.7884
-12.8016
-12.8148
-12.8283
-12.8419
-12.8557
-12.8695
-12.8834
-12.8971
-12.9104
-12.9231
-12.9347
-12.945
-12.9534
-12.9594
-12.9625
-12.9623
-12.9585
-12.9508
-12.9378
-12.9171
-12.5599
-12.5371
-12.5223
-12.513
-12.5074
-12.5054
-12.5068
-12.5111
-12.5179
-12.5267
-12.5372
-12.5489
-12.5616
-12.5749
-12.5886
-12.6024
-12.6163
-12.6301
-12.6437
-12.6571
-12.6701
-12.6828
-12.6952
-12.7074
-12.7193
-12.7309
-12.7425
-12.7539
-12.7653
-12.7767
-12.7881
-12.7997
-12.8114
-12.8232
-12.8351
-12.847
-12.8589
-12.8706
-12.8819
-12.8926
-12.9023
-12.9108
-12.9175
-12.9223
-12.9245
-12.924
-12.9204
-12.9138
-12.9028
-12.8855
-12.592
-12.5728
-12.5601
-12.5518
-12.5465
-12.5441
-12.5445
-12.5472
-12.552
-12.5585
-12.5664
-12.5755
-12.5854
-12.596
-12.6071
-12.6183
-12.6297
-12.6411
-12.6524
-12.6636
-12.6745
-12.6853
-12.6958
-12.7061
-12.7162
-12.7262
-12.736
-12.7457
-12.7554
-12.7652
-12.7749
-12.7848
-12.7947
-12.8047
-12.8148
-12.8249
-12.835
-12.8448
-12.8543
-12.8632
-12.8713
-12.8782
-12.8837
-12.8875
-12.8892
-12.8886
-12.8855
-12.88
-12.871
-12.857
-12.621
-12.6051
-12.5945
-12.5874
-12.5826
-12.5801
-12.5797
-12.5812
-12.5844
-12.589
-12.5947
-12.6015
-12.609
-12.6171
-12.6257
-12.6345
-12.6435
-12.6526
-12.6617
-12.6707
-12.6796
-12.6883
-12.6969
-12.7054
-12.7137
-12.7219
-12.73
-12.738
-12.746
-12.754
-12.762
-12.7701
-12.7783
-12.7866
-12.795
-12.8033
-12.8116
-12.8197
-12.8275
-12.8348
-12.8414
-12.8471
-12.8516
-12.8546
-12.856
-12.8555
-12.8531
-12.8487
-12.8417
-12.8308
-12.6474
-12.6348
-12.6262
-12.6203
-12.6162
-12.6137
-12.6129
-12.6135
-12.6154
-12.6184
-12.6223
-12.627
-12.6323
-12.6381
-12.6444
-12.6509
-12.6577
-12.6645
-12.6715
-12.6784
-12.6852
-12.692
-12.6987
-12.7053
-12.7118
-12.7182
-12.7245
-12.7307
-12.737
-12.7433
-12.7496
-12.7559
-12.7624
-12.7689
-12.7755
-12.7821
-12.7887
-12.7952
-12.8014
-12.8073
-12.8126
-12.8171
-12.8208
-12.8233
-12.8245
-12.8243
-12.8226
-12.8194
-12.8143
-12.8064
-12.672
-12.6624
-12.6559
-12.6513
-12.6479
-12.6457
-12.6446
-12.6445
-12.6453
-12.6469
-12.6492
-12.652
-12.6554
-12.6591
-12.6633
-12.6677
-12.6723
-12.677
-12.6818
-12.6867
-12.6916
-12.6964
-12.7012
-12.7059
-12.7105
-12.7151
-12.7196
-12.7241
-12.7286
-12.7331
-12.7376
-12.7422
-12.7469
-12.7517
-12.7565
-12.7614
-12.7663
-12.7712
-12.7759
-12.7804
-12.7845
-12.788
-12.7909
-12.793
-12.7941
-12.7943
-12.7934
-12.7915
-12.7883
-12.7833
-12.6952
-12.6886
-12.684
-12.6807
-12.6782
-12.6763
-12.6751
-12.6745
-12.6744
-12.6748
-12.6756
-12.6768
-12.6783
-12.6802
-12.6823
-12.6847
-12.6872
-12.69
-12.6928
-12.6956
-12.6985
-12.7014
-12.7043
-12.7072
-12.71
-12.7127
-12.7154
-12.7181
-12.7208
-12.7235
-12.7262
-12.729
-12.7319
-12.7349
-12.7379
-12.7411
-12.7443
-12.7476
-12.7508
-12.7539
-12.7569
-12.7595
-12.7617
-12.7634
-12.7646
-12.7651
-12.7651
-12.7645
-12.7632
-12.7611
-12.7175
-12.7138
-12.7112
-12.7092
-12.7075
-12.7061
-12.7048
-12.7038
-12.703
-12.7023
-12.7018
-12.7014
-12.7013
-12.7014
-12.7016
-12.7021
-12.7027
-12.7034
-12.7043
-12.7052
-12.7062
-12.7072
-12.7082
-12.7092
-12.7101
-12.7111
-12.7119
-12.7128
-12.7137
-12.7145
-12.7154
-12.7164
-12.7174
-12.7185
-12.7198
-12.7212
-12.7227
-12.7243
-12.7261
-12.7278
-12.7295
-12.7312
-12.7328
-12.7341
-12.7353
-12.7363
-12.7372
-12.7379
-12.7385
-12.7393
-12.7393
-12.7385
-12.7379
-12.7372
-12.7363
-12.7353
-12.7341
-12.7328
-12.7312
-12.7295
-12.7278
-12.7261
-12.7243
-12.7227
-12.7212
-12.7198
-12.7185
-12.7174
-12.7164
-12.7154
-12.7145
-12.7137
-12.7128
-12.7119
-12.7111
-12.7101
-12.7092
-12.7082
-12.7072
-12.7062
-12.7052
-12.7043
-12.7034
-12.7027
-12.7021
-12.7016
-12.7014
-12.7013
-12.7014
-12.7017
-12.7023
-12.7029
-12.7038
-12.7048
-12.7061
-12.7075
-12.7092
-12.7112
-12.7138
-12.7175
-12.7611
-12.7632
-12.7645
-12.7651
-12.7651
-12.7646
-12.7634
-12.7617
-12.7595
-12.7569
-12.7539
-12.7508
-12.7476
-12.7443
-12.7411
-12.7379
-12.7349
-12.7319
-12.729
-12.7262
-12.7235
-12.7208
-12.7181
-12.7154
-12.7127
-12.71
-12.7072
-12.7043
-12.7014
-12.6985
-12.6956
-12.6928
-12.69
-12.6872
-12.6847
-12.6823
-12.6802
-12.6783
-12.6768
-12.6756
-12.6748
-12.6744
-12.6745
-12.6751
-12.6763
-12.6782
-12.6807
-12.684
-12.6886
-12.6952
-12.7833
-12.7883
-12.7915
-12.7934
-12.7943
-12.7941
-12.793
-12.7909
-12.788
-12.7845
-12.7804
-12.7759
-12.7712
-12.7663
-12.7614
-12.7565
-12.7517
-12.7469
-12.7422
-12.7376
-12.7331
-12.7286
-12.7241
-12.7196
-12.7151
-12.7105
-12.7059
-12.7012
-12.6964
-12.6916
-12.6867
-12.6818
-12.677
-12.6723
-12.6677
-12.6633
-12.6591
-12.6554
-12.652
-12.6492
-12.6469
-12.6453
-12.6445
-12.6446
-12.6457
-12.6479
-12.6513
-12.6559
-12.6624
-12.672
-12.8064
-12.8143
-12.8194
-12.8226
-12.8243
-12.8245
-12.8233
-12.8208
-12.8171
-12.8126
-12.8073
-12.8014
-12.7952
-12.7887
-12.7821
-12.7755
-12.7689
-12.7624
-12.7559
-12.7496
-12.7433
-12.737
-12.7307
-12.7245
-12.7182
-12.7118
-12.7053
-12.6987
-12.692
-12.6852
-12.6784
-12.6715
-12.6645
-12.6577
-12.6509
-12.6444
-12.6381
-12.6323
-12.627
-12.6223
-12.6184
-12.6154
-12.6135
-12.6129
-12.6137
-12.6162
-12.6203
-12.6262
-12.6348
-12.6474
-12.8308
-12.8417
-12.8487
-12.8531
-12.8555
-12.856
-12.8546
-12.8516
-12.8471
-12.8414
-12.8348
-12.8275
-12.8197
-12.8116
-12.8033
-12.795
-12.7866
-12.7783
-12.7701
-12.762
-12.754
-12.746
-12.738
-12.73
-12.7219
-12.7137
-12.7054
-12.6969
-12.6883
-12.6796
-12.6707
-12.6617
-12.6526
-12.6435
-12.6345
-12.6256
-12.6171
-12.609
-12.6015
-12.5947
-12.589
-12.5844
-12.5812
-12.5797
-12.58
-12.5826
-12.5873
-12.5945
-12.6051
-12.621
-12.857
-12.871
-12.88
-12.8855
-12.8886
-12.8892
-12.8875
-12.8837
-12.8782
-12.8713
-12.8632
-12.8543
-12.8448
-12.835
-12.825
-12.8148
-12.8047
-12.7947
-12.7848
-12.7749
-12.7652
-12.7554
-12.7457
-12.736
-12.7262
-12.7162
-12.7061
-12.6958
-12.6853
-12.6745
-12.6636
-12.6524
-12.6411
-12.6297
-12.6183
-12.607
-12.596
-12.5854
-12.5755
-12.5664
-12.5585
-12.5519
-12.5472
-12.5444
-12.5441
-12.5465
-12.5518
-12.5601
-12.5728
-12.592
-12.8855
-12.9028
-12.9138
-12.9204
-12.924
-12.9245
-12.9223
-12.9175
-12.9108
-12.9023
-12.8926
-12.8819
-12.8706
-12.8589
-12.847
-12.8351
-12.8232
-12.8114
-12.7997
-12.7881
-12.7767
-12.7653
-12.7539
-12.7425
-12.7309
-12.7193
-12.7074
-12.6952
-12.6828
-12.6701
-12.6571
-12.6437
-12.6301
-12.6163
-12.6024
-12.5886
-12.5749
-12.5616
-12.5489
-12.5372
-12.5267
-12.5179
-12.5111
-12.5068
-12.5054
-12.5074
-12.513
-12.5223
-12.5371
-12.5599
-12.9172
-12.9378
-12.9508
-12.9585
-12.9623
-12.9625
-12.9594
-12.9534
-12.945
-12.9347
-12.9231
-12.9104
-12.8971
-12.8834
-12.8695
-12.8557
-12.8419
-12.8283
-12.8148
-12.8016
-12.7884
-12.7754
-12.7624
-12.7493
-12.7361
-12.7227
-12.7091
-12.6952
-12.6809
-12.6662
-12.6511
-12.6356
-12.6196
-12.6034
-12.5868
-12.5702
-12.5536
-12.5373
-12.5216
-12.5068
-12.4934
-12.4818
-12.4726
-12.4662
-12.4634
-12.4646
-12.4702
-12.4804
-12.4973
-12.5239
-12.9525
-12.9769
-12.992
-13.0004
-13.0043
-13.0038
-12.9993
-12.9915
-12.9811
-12.9687
-12.9547
-12.9398
-12.9242
-12.9083
-12.8923
-12.8764
-12.8607
-12.8452
-12.83
-12.815
-12.8002
-12.7856
-12.7709
-12.7563
-12.7415
-12.7265
-12.7112
-12.6956
-12.6795
-12.6629
-12.6457
-12.6279
-12.6096
-12.5908
-12.5715
-12.552
-12.5323
-12.5127
-12.4936
-12.4753
-12.4585
-12.4436
-12.4313
-12.4223
-12.4174
-12.4173
-12.4226
-12.4335
-12.4525
-12.4831
-12.9926
-13.021
-13.0381
-13.0471
-13.0506
-13.0489
-13.0425
-13.0324
-13.0194
-13.0043
-12.9876
-12.9699
-12.9518
-12.9334
-12.9152
-12.8971
-12.8794
-12.862
-12.845
-12.8283
-12.8119
-12.7956
-12.7795
-12.7633
-12.747
-12.7305
-12.7136
-12.6963
-12.6784
-12.6599
-12.6407
-12.6208
-12.6001
-12.5787
-12.5566
-12.5339
-12.5109
-12.4877
-12.4648
-12.4427
-12.4218
-12.4029
-12.3868
-12.3744
-12.3668
-12.3647
-12.3691
-12.3804
-12.4014
-12.4363
-13.0384
-13.0713
-13.0904
-13.0997
-13.1022
-13.0985
-13.0895
-13.0764
-13.0601
-13.0416
-13.0216
-13.0008
-12.9797
-12.9587
-12.9379
-12.9175
-12.8976
-12.8783
-12.8595
-12.8411
-12.8231
-12.8054
-12.7878
-12.7702
-12.7524
-12.7345
-12.7161
-12.6972
-12.6777
-12.6574
-12.6363
-12.6142
-12.5911
-12.5671
-12.5421
-12.5162
-12.4896
-12.4625
-12.4354
-12.4087
-12.3832
-12.3595
-12.3388
-12.3221
-12.3107
-12.3058
-12.3086
-12.3197
-12.3427
-12.3824
-13.0914
-13.1293
-13.1504
-13.1594
-13.1601
-13.1535
-13.1409
-13.1236
-13.1031
-13.0805
-13.0566
-13.0322
-13.0077
-12.9836
-12.9601
-12.9373
-12.9152
-12.8939
-12.8733
-12.8533
-12.8337
-12.8145
-12.7955
-12.7766
-12.7576
-12.7382
-12.7185
-12.6982
-12.6771
-12.6551
-12.6322
-12.608
-12.5827
-12.556
-12.528
-12.4988
-12.4684
-12.4372
-12.4054
-12.3737
-12.3427
-12.3134
-12.2869
-12.2647
-12.2483
-12.2394
-12.2395
-12.2498
-12.2745
-12.3195
-13.1534
-13.1971
-13.2199
-13.2277
-13.2255
-13.2146
-13.1969
-13.1744
-13.1486
-13.1208
-13.0923
-13.0636
-13.0353
-13.0079
-12.9814
-12.956
-12.9316
-12.9083
-12.8859
-12.8643
-12.8433
-12.8228
-12.8026
-12.7824
-12.7622
-12.7417
-12.7207
-12.6991
-12.6766
-12.6531
-12.6284
-12.6024
-12.5748
-12.5456
-12.5146
-12.482
-12.4477
-12.412
-12.3751
-12.3377
-12.3005
-12.2644
-12.2309
-12.2017
-12.1786
-12.1641
-12.1602
-12.1685
-12.1947
-12.2456
-13.2268
-13.2772
-13.3013
-13.3067
-13.2997
-13.2827
-13.2581
-13.2286
-13.1961
-13.1622
-13.128
-13.0944
-13.0619
-13.0308
-13.0012
-12.9731
-12.9465
-12.9212
-12.8971
-12.874
-12.8516
-12.8299
-12.8086
-12.7874
-12.7661
-12.7446
-12.7226
-12.6999
-12.6762
-12.6513
-12.6251
-12.5972
-12.5675
-12.5359
-12.502
-12.466
-12.4277
-12.3872
-12.3449
-12.3011
-12.2567
-12.2127
-12.1706
-12.1325
-12.1008
-12.0785
-12.0684
-12.0732
-12.1002
-12.1579
-13.3149
-13.3732
-13.3979
-13.3987
-13.3843
-13.3585
-13.3246
-13.286
-13.2451
-13.2038
-13.1631
-13.124
-13.0868
-13.0517
-13.0188
-12.988
-12.9591
-12.9319
-12.9062
-12.8818
-12.8583
-12.8356
-12.8133
-12.7913
-12.7692
-12.7469
-12.724
-12.7004
-12.6757
-12.6497
-12.6221
-12.5927
-12.5611
-12.5271
-12.4905
-12.4511
-12.4087
-12.3633
-12.3151
-12.2644
-12.2119
-12.1586
-12.1062
-12.0569
-12.0138
-11.9806
-11.9614
-11.9603
-11.9869
-12.0524
-13.4228
-13.4904
-13.5138
-13.5065
-13.481
-13.4426
-13.3963
-13.346
-13.2948
-13.2445
-13.1964
-13.1511
-13.1088
-13.0697
-13.0335
-13
-12.969
-12.9401
-12.9131
-12.8875
-12.8631
-12.8395
-12.8166
-12.7939
-12.7713
-12.7483
-12.7249
-12.7006
-12.6751
-12.6482
-12.6196
-12.5888
-12.5556
-12.5196
-12.4804
-12.4378
-12.3914
-12.341
-12.2867
-12.2285
-12.1669
-12.1029
-12.038
-11.9748
-11.9168
-11.8688
-11.8361
-11.825
-11.8491
-11.9235
-13.5579
-13.6362
-13.6548
-13.6338
-13.5912
-13.5353
-13.4723
-13.4073
-13.3436
-13.2829
-13.2265
-13.1745
-13.127
-13.0837
-13.0444
-13.0085
-12.9756
-12.9453
-12.9171
-12.8906
-12.8656
-12.8415
-12.8182
-12.7952
-12.7722
-12.749
-12.7251
-12.7004
-12.6745
-12.647
-12.6176
-12.5858
-12.5512
-12.5135
-12.4721
-12.4265
-12.3764
-12.3212
-12.2606
-12.1945
-12.123
-12.0468
-11.9673
-11.8869
-11.8095
-11.741
-11.6885
-11.6612
-11.6787
-11.7629
-13.7324
-13.8215
-13.8285
-13.7846
-13.7163
-13.6357
-13.5509
-13.4676
-13.3891
-13.3168
-13.2513
-13.1924
-13.1398
-13.0927
-13.0505
-13.0126
-12.9782
-12.9469
-12.918
-12.8911
-12.8657
-12.8415
-12.818
-12.7949
-12.7719
-12.7487
-12.7248
-12.7
-12.6739
-12.6462
-12.6163
-12.5839
-12.5484
-12.5094
-12.4661
-12.4181
-12.3646
-12.3048
-12.2382
-12.1641
-12.0821
-11.9925
-11.896
-11.7946
-11.6923
-11.5958
-11.5142
-11.4607
-11.4638
-11.5571
-13.9677
-14.0631
-14.0447
-13.9626
-13.8561
-13.7417
-13.6289
-13.5235
-13.4281
-13.3432
-13.2685
-13.2031
-13.1457
-13.0954
-13.051
-13.0117
-12.9764
-12.9446
-12.9154
-12.8885
-12.8633
-12.8392
-12.816
-12.7933
-12.7706
-12.7476
-12.7241
-12.6995
-12.6736
-12.6459
-12.616
-12.5834
-12.5474
-12.5076
-12.4632
-12.4133
-12.357
-12.2934
-12.2212
-12.1395
-12.047
-11.943
-11.8274
-11.7012
-11.5675
-11.4332
-11.309
-11.2128
-11.1864
-11.2831
-14.3025
-14.3862
-14.315
-14.1701
-14.0076
-13.8478
-13.7003
-13.5695
-13.456
-13.3586
-13.2753
-13.2042
-13.1432
-13.0907
-13.0451
-13.0051
-12.9698
-12.9381
-12.9094
-12.883
-12.8583
-12.8349
-12.8124
-12.7903
-12.7682
-12.7459
-12.723
-12.699
-12.6737
-12.6465
-12.617
-12.5846
-12.5488
-12.5089
-12.464
-12.4131
-12.355
-12.2885
-12.2119
-12.1235
-12.0212
-11.903
-11.7671
-11.6125
-11.4405
-11.2561
-11.0704
-10.9054
-10.8201
-10.8993
-14.8087
-14.8285
-14.6507
-14.4045
-14.162
-13.9439
-13.7559
-13.598
-13.4669
-13.3584
-13.2685
-13.1936
-13.1307
-13.0775
-13.032
-12.9926
-12.958
-12.9274
-12.8997
-12.8744
-12.8509
-12.8286
-12.8071
-12.7861
-12.7651
-12.7438
-12.7218
-12.6988
-12.6744
-12.6481
-12.6195
-12.5881
-12.553
-12.5137
-12.4692
-12.4184
-12.3599
-12.292
-12.2127
-12.1195
-12.0093
-11.8784
-11.7227
-11.5382
-11.3218
-11.0738
-10.8012
-10.5266
-10.3256
-10.3302
-15.617
-15.4398
-15.0593
-14.656
-14.3036
-14.0148
-13.7835
-13.6001
-13.4547
-13.3387
-13.2455
-13.1697
-13.1074
-13.0555
-13.0116
-12.9741
-12.9415
-12.9127
-12.8868
-12.8633
-12.8414
-12.8206
-12.8007
-12.781
-12.7614
-12.7415
-12.7208
-12.6992
-12.6761
-12.6512
-12.624
-12.5939
-12.5604
-12.5226
-12.4795
-12.43
-12.3726
-12.3053
-12.2258
-12.1307
-12.0159
-11.876
-11.7039
-11.4909
-11.227
-10.9022
-10.5115
-10.0686
-9.65202
-9.44167
-17.0238
-16.2605
-15.5164
-14.8911
-14.402
-14.0368
-13.7668
-13.5655
-13.4132
-13.2961
-13.2047
-13.132
-13.0732
-13.0249
-12.9845
-12.9502
-12.9206
-12.8945
-12.8712
-12.8499
-12.8302
-12.8114
-12.7933
-12.7755
-12.7576
-12.7393
-12.7203
-12.7003
-12.6789
-12.6558
-12.6305
-12.6024
-12.5711
-12.5356
-12.4951
-12.4483
-12.3937
-12.3294
-12.2526
-12.1596
-12.0455
-11.903
-11.7221
-11.4885
-11.1819
-10.7747
-10.237
-9.5583
-8.7594
-7.92915
-19.8588
-17.2595
-15.841
-14.9557
-14.3494
-13.9399
-13.6615
-13.4661
-13.3244
-13.2186
-13.1377
-13.0743
-13.0236
-12.9823
-12.9479
-12.9188
-12.8937
-12.8716
-12.8518
-12.8337
-12.8167
-12.8006
-12.7849
-12.7693
-12.7535
-12.7374
-12.7205
-12.7027
-12.6836
-12.6629
-12.6401
-12.6149
-12.5867
-12.5548
-12.5183
-12.4762
-12.4271
-12.3691
-12.2997
-12.2153
-12.1107
-11.9783
-11.8064
-11.5767
-11.2587
-10.8021
-10.1374
-9.18002
-7.67541
-4.95694
-24.7273
-18.3425
-15.6771
-14.5796
-13.9841
-13.6311
-13.4131
-13.2687
-13.1667
-13.0913
-13.0336
-12.9884
-12.9521
-12.9224
-12.8975
-12.8763
-12.8579
-12.8415
-12.8266
-12.8128
-12.7997
-12.7871
-12.7746
-12.762
-12.7492
-12.7359
-12.7219
-12.707
-12.691
-12.6736
-12.6544
-12.6333
-12.6096
-12.583
-12.5527
-12.518
-12.4778
-12.4307
-12.3748
-12.3076
-12.2252
-12.1218
-11.9881
-11.8076
-11.5483
-11.1463
-10.485
-9.2928
-6.51041
2.46656e-05
)
;

boundaryField
{
    movingWallTop
    {
        type            zeroGradient;
    }
    movingWallBottom
    {
        type            zeroGradient;
    }
    fixedWalls
    {
        type            zeroGradient;
    }
    frontAndBack
    {
        type            empty;
    }
}


// ************************************************************************* //
