/*--------------------------------*- C++ -*----------------------------------*\
  =========                 |
  \\      /  F ield         | OpenFOAM: The Open Source CFD Toolbox
   \\    /   O peration     | Website:  https://openfoam.org
    \\  /    A nd           | Version:  7
     \\/     M anipulation  |
\*---------------------------------------------------------------------------*/
FoamFile
{
    version     2.0;
    format      ascii;
    class       volVectorField;
    location    "0.0518";
    object      U;
}
// * * * * * * * * * * * * * * * * * * * * * * * * * * * * * * * * * * * * * //

dimensions      [0 1 -1 0 0 0 0];

internalField   nonuniform List<vector> 
2500
(
(0.290246 -0.152408 0)
(0.389519 -0.128229 0)
(0.5654 -0.0747294 0)
(0.683227 -0.0422312 0)
(0.752829 -0.0245322 0)
(0.797859 -0.0148936 0)
(0.829049 -0.00958782 0)
(0.85155 -0.00656569 0)
(0.86839 -0.00474239 0)
(0.881389 -0.003568 0)
(0.891655 -0.00276429 0)
(0.899896 -0.00218585 0)
(0.90659 -0.00175282 0)
(0.912072 -0.00141878 0)
(0.916586 -0.0011551 0)
(0.920313 -0.000943096 0)
(0.923393 -0.000770001 0)
(0.925932 -0.000626688 0)
(0.928016 -0.000506406 0)
(0.92971 -0.000404 0)
(0.931067 -0.00031541 0)
(0.932126 -0.000237346 0)
(0.932919 -0.000167061 0)
(0.933467 -0.000102184 0)
(0.933787 -4.06115e-05 0)
(0.933885 1.96129e-05 0)
(0.933765 8.05202e-05 0)
(0.93342 0.000143921 0)
(0.932841 0.000211848 0)
(0.932009 0.000286555 0)
(0.930897 0.000370622 0)
(0.92947 0.000467124 0)
(0.927682 0.00057986 0)
(0.925472 0.000713684 0)
(0.922762 0.000874987 0)
(0.919453 0.00107245 0)
(0.915412 0.00131827 0)
(0.910467 0.00163021 0)
(0.904381 0.00203534 0)
(0.89683 0.00257712 0)
(0.887346 0.00332955 0)
(0.875237 0.00442696 0)
(0.859414 0.00612797 0)
(0.838077 0.00895331 0)
(0.808171 0.0139629 0)
(0.764426 0.0232487 0)
(0.695912 0.0407728 0)
(0.57794 0.0737472 0)
(0.398044 0.128743 0)
(0.293866 0.153783 0)
(0.00107959 -0.294876 0)
(0.0168416 -0.2986 0)
(0.152306 -0.213013 0)
(0.282851 -0.145331 0)
(0.388042 -0.0996557 0)
(0.471295 -0.0698387 0)
(0.536761 -0.0504948 0)
(0.588292 -0.0377011 0)
(0.629226 -0.0289462 0)
(0.662119 -0.022728 0)
(0.688836 -0.0181565 0)
(0.71073 -0.0146935 0)
(0.728801 -0.0120037 0)
(0.743795 -0.00987073 0)
(0.756278 -0.00815003 0)
(0.766689 -0.00674134 0)
(0.775368 -0.00557292 0)
(0.782586 -0.0045918 0)
(0.788556 -0.00375776 0)
(0.79345 -0.00303941 0)
(0.797404 -0.0024116 0)
(0.800522 -0.0018536 0)
(0.802888 -0.00134785 0)
(0.80456 -0.000879012 0)
(0.805581 -0.000433243 0)
(0.805972 2.42173e-06 0)
(0.805739 0.000440682 0)
(0.804871 0.000894215 0)
(0.803339 0.00137647 0)
(0.801094 0.00190222 0)
(0.798068 0.00248827 0)
(0.794167 0.00315445 0)
(0.789268 0.00392495 0)
(0.783215 0.00483013 0)
(0.775808 0.00590923 0)
(0.766787 0.00721431 0)
(0.755824 0.00881641 0)
(0.742487 0.0108152 0)
(0.72621 0.0133551 0)
(0.706236 0.0166521 0)
(0.681538 0.0210422 0)
(0.650701 0.0270671 0)
(0.611747 0.0356318 0)
(0.561904 0.0482882 0)
(0.497443 0.0676955 0)
(0.4139 0.0981567 0)
(0.306376 0.145783 0)
(0.170542 0.217303 0)
(0.0269043 0.307194 0)
(0.00518421 0.303004 0)
(-0.0329209 -0.250369 0)
(-0.0615905 -0.344029 0)
(-0.0114792 -0.310598 0)
(0.0708567 -0.251555 0)
(0.159003 -0.196042 0)
(0.241571 -0.151481 0)
(0.314204 -0.117784 0)
(0.376207 -0.0926838 0)
(0.428476 -0.0738878 0)
(0.47236 -0.0596175 0)
(0.509195 -0.0486001 0)
(0.540157 -0.0399477 0)
(0.566228 -0.0330429 0)
(0.58821 -0.0274524 0)
(0.606757 -0.022867 0)
(0.622398 -0.0190614 0)
(0.635566 -0.0158682 0)
(0.64661 -0.0131599 0)
(0.655817 -0.0108373 0)
(0.663418 -0.00882129 0)
(0.6696 -0.00704735 0)
(0.674512 -0.00546152 0)
(0.678269 -0.00401747 0)
(0.680958 -0.00267423 0)
(0.682635 -0.00139446 0)
(0.683334 -0.000142975 0)
(0.683062 0.00111454 0)
(0.681803 0.00241298 0)
(0.679513 0.00378902 0)
(0.676124 0.00528271 0)
(0.671534 0.00693935 0)
(0.665609 0.00881192 0)
(0.658176 0.0109642 0)
(0.649014 0.0134751 0)
(0.637844 0.0164449 0)
(0.624317 0.0200037 0)
(0.607993 0.0243246 0)
(0.588322 0.0296424 0)
(0.564607 0.0362828 0)
(0.535971 0.0447061 0)
(0.501312 0.0555748 0)
(0.459271 0.0698531 0)
(0.408229 0.0889437 0)
(0.346433 0.114845 0)
(0.272454 0.150202 0)
(0.186421 0.197778 0)
(0.0923652 0.258109 0)
(0.00190103 0.323342 0)
(-0.0569128 0.361558 0)
(-0.0321678 0.263989 0)
(-0.0267687 -0.190604 0)
(-0.0654107 -0.333002 0)
(-0.0645048 -0.351518 0)
(-0.0274099 -0.319289 0)
(0.0297657 -0.272055 0)
(0.0939414 -0.225532 0)
(0.157428 -0.185195 0)
(0.216421 -0.151954 0)
(0.269403 -0.12508 0)
(0.316079 -0.103444 0)
(0.356748 -0.0859653 0)
(0.391949 -0.0717472 0)
(0.422292 -0.0600831 0)
(0.448369 -0.0504288 0)
(0.470718 -0.0423675 0)
(0.489816 -0.0355777 0)
(0.506073 -0.0298092 0)
(0.51984 -0.0248643 0)
(0.531412 -0.0205841 0)
(0.541037 -0.0168388 0)
(0.548919 -0.0135198 0)
(0.555222 -0.0105348 0)
(0.560075 -0.00780289 0)
(0.563575 -0.00525173 0)
(0.565789 -0.00281459 0)
(0.566752 -0.000428033 0)
(0.566471 0.00197018 0)
(0.564926 0.00444331 0)
(0.562065 0.00705781 0)
(0.557804 0.00988588 0)
(0.552026 0.0130085 0)
(0.544574 0.0165192 0)
(0.535248 0.020529 0)
(0.523801 0.0251728 0)
(0.509925 0.0306179 0)
(0.493248 0.0370762 0)
(0.473319 0.0448202 0)
(0.449598 0.0542051 0)
(0.421452 0.0656992 0)
(0.388147 0.0799225 0)
(0.348883 0.0976939 0)
(0.302855 0.120075 0)
(0.249439 0.148375 0)
(0.188548 0.184028 0)
(0.121347 0.228105 0)
(0.0515072 0.279927 0)
(-0.0129252 0.333752 0)
(-0.0577297 0.372285 0)
(-0.0646459 0.355972 0)
(-0.0272811 0.204817 0)
(-0.0178432 -0.149169 0)
(-0.0530844 -0.302951 0)
(-0.0735742 -0.354926 0)
(-0.066505 -0.350326 0)
(-0.0372926 -0.319691 0)
(0.00485003 -0.280374 0)
(0.0527148 -0.240959 0)
(0.101539 -0.205063 0)
(0.14848 -0.173798 0)
(0.192037 -0.147134 0)
(0.231554 -0.124598 0)
(0.266879 -0.105595 0)
(0.298131 -0.0895482 0)
(0.325564 -0.0759511 0)
(0.349493 -0.0643763 0)
(0.370243 -0.0544691 0)
(0.388126 -0.0459367 0)
(0.40343 -0.0385366 0)
(0.41641 -0.0320661 0)
(0.427291 -0.0263539 0)
(0.436261 -0.0212527 0)
(0.443478 -0.0166341 0)
(0.449066 -0.0123835 0)
(0.453118 -0.00839637 0)
(0.455701 -0.00457524 0)
(0.456846 -0.000826441 0)
(0.45656 0.00294252 0)
(0.454817 0.00682571 0)
(0.451561 0.0109218 0)
(0.446704 0.0153371 0)
(0.440122 0.0201899 0)
(0.431656 0.0256146 0)
(0.421106 0.0317677 0)
(0.408229 0.0388354 0)
(0.392738 0.0470422 0)
(0.374295 0.0566629 0)
(0.352515 0.0680368 0)
(0.326976 0.0815844 0)
(0.297231 0.0978252 0)
(0.262854 0.117391 0)
(0.223514 0.141025 0)
(0.179124 0.169534 0)
(0.130089 0.203641 0)
(0.0777187 0.24362 0)
(0.0248215 0.288494 0)
(-0.0235214 0.33444 0)
(-0.0592811 0.371909 0)
(-0.0718763 0.381309 0)
(-0.0542965 0.328244 0)
(-0.0186381 0.1625 0)
(-0.0114211 -0.120923 0)
(-0.040239 -0.269988 0)
(-0.067788 -0.340212 0)
(-0.0776818 -0.357416 0)
(-0.068808 -0.34415 0)
(-0.0459595 -0.315905 0)
(-0.0143195 -0.282065 0)
(0.0218449 -0.247777 0)
(0.0594197 -0.215572 0)
(0.0963412 -0.186486 0)
(0.131355 -0.16077 0)
(0.16377 -0.138286 0)
(0.193272 -0.118735 0)
(0.219778 -0.101764 0)
(0.243346 -0.0870238 0)
(0.264113 -0.0741925 0)
(0.282255 -0.0629817 0)
(0.297958 -0.0531374 0)
(0.311406 -0.0444367 0)
(0.322771 -0.0366828 0)
(0.332205 -0.0297013 0)
(0.339838 -0.023335 0)
(0.345777 -0.0174406 0)
(0.3501 -0.0118849 0)
(0.352863 -0.0065414 0)
(0.354092 -0.00128761 0)
(0.353789 0.00399835 0)
(0.351925 0.00944058 0)
(0.348444 0.0151688 0)
(0.343261 0.0213218 0)
(0.336258 0.0280517 0)
(0.327289 0.0355288 0)
(0.316176 0.043947 0)
(0.30271 0.05353 0)
(0.286655 0.0645395 0)
(0.267753 0.0772822 0)
(0.24574 0.0921182 0)
(0.220365 0.109465 0)
(0.19143 0.129795 0)
(0.158859 0.153615 0)
(0.122801 0.181409 0)
(0.0837932 0.213515 0)
(0.0429968 0.249864 0)
(0.00251089 0.289502 0)
(-0.0342945 0.32975 0)
(-0.0625722 0.364848 0)
(-0.0762124 0.384032 0)
(-0.0693109 0.369463 0)
(-0.042265 0.29542 0)
(-0.0121767 0.133024 0)
(-0.0074654 -0.100936 0)
(-0.0304112 -0.239739 0)
(-0.0585786 -0.318163 0)
(-0.0768815 -0.350351 0)
(-0.0812333 -0.351844 0)
(-0.0731511 -0.335117 0)
(-0.0556535 -0.308923 0)
(-0.0319 -0.278877 0)
(-0.00462244 -0.248315 0)
(0.0240791 -0.219063 0)
(0.0527137 -0.192009 0)
(0.0802883 -0.167489 0)
(0.106185 -0.145532 0)
(0.130055 -0.126003 0)
(0.151733 -0.108693 0)
(0.171172 -0.0933616 0)
(0.188405 -0.0797673 0)
(0.203507 -0.0676765 0)
(0.216575 -0.0568702 0)
(0.227714 -0.0471454 0)
(0.237026 -0.0383138 0)
(0.244602 -0.0302005 0)
(0.25052 -0.0226412 0)
(0.254837 -0.0154799 0)
(0.257594 -0.00856613 0)
(0.258807 -0.00175224 0)
(0.258472 0.00510938 0)
(0.256559 0.0121693 0)
(0.253016 0.0195842 0)
(0.247767 0.0275203 0)
(0.24071 0.0361569 0)
(0.231726 0.0456907 0)
(0.220671 0.0563397 0)
(0.207392 0.0683477 0)
(0.191727 0.0819879 0)
(0.173521 0.0975646 0)
(0.152652 0.115411 0)
(0.129057 0.13588 0)
(0.102788 0.159318 0)
(0.0740827 0.186013 0)
(0.0434716 0.216099 0)
(0.0119135 0.249376 0)
(-0.0190358 0.285017 0)
(-0.047058 0.321089 0)
(-0.0689997 0.353851 0)
(-0.0810618 0.376815 0)
(-0.0794473 0.37974 0)
(-0.06197 0.348071 0)
(-0.0327197 0.263983 0)
(-0.00812132 0.111692 0)
(-0.00512874 -0.0862844 0)
(-0.0235103 -0.213464 0)
(-0.0498391 -0.293991 0)
(-0.0716671 -0.335448 0)
(-0.0840218 -0.348187 0)
(-0.0864354 -0.341702 0)
(-0.080206 -0.323481 0)
(-0.0673247 -0.298912 0)
(-0.0498663 -0.271609 0)
(-0.0296527 -0.243851 0)
(-0.00813675 -0.21699 0)
(0.0135951 -0.191759 0)
(0.0347718 -0.168497 0)
(0.0548735 -0.147304 0)
(0.0735705 -0.128133 0)
(0.0906712 -0.110857 0)
(0.106081 -0.0953094 0)
(0.11977 -0.0813011 0)
(0.13175 -0.0686384 0)
(0.142057 -0.057129 0)
(0.150736 -0.0465851 0)
(0.157837 -0.036825 0)
(0.163401 -0.0276728 0)
(0.167465 -0.0189572 0)
(0.170047 -0.0105101 0)
(0.171155 -0.00216469 0)
(0.170777 0.00624708 0)
(0.168885 0.0148966 0)
(0.165434 0.0239612 0)
(0.160361 0.033627 0)
(0.15359 0.0440916 0)
(0.145031 0.0555663 0)
(0.134591 0.0682785 0)
(0.122178 0.0824725 0)
(0.107713 0.098408 0)
(0.0911536 0.116355 0)
(0.0725132 0.136583 0)
(0.0519035 0.159333 0)
(0.0295835 0.184779 0)
(0.00602663 0.212951 0)
(-0.0179957 0.243618 0)
(-0.0413216 0.276092 0)
(-0.0623144 0.308953 0)
(-0.078832 0.339647 0)
(-0.0883375 0.363985 0)
(-0.0882826 0.375614 0)
(-0.0768453 0.365664 0)
(-0.0542397 0.323002 0)
(-0.025879 0.235784 0)
(-0.0056978 0.0956951 0)
(-0.00373118 -0.0750882 0)
(-0.0187437 -0.190909 0)
(-0.0425899 -0.270068 0)
(-0.0654001 -0.316578 0)
(-0.0823218 -0.337243 0)
(-0.0918663 -0.33907 0)
(-0.09416 -0.328156 0)
(-0.0902167 -0.309304 0)
(-0.0814239 -0.286043 0)
(-0.0691909 -0.260826 0)
(-0.0547699 -0.235275 0)
(-0.0391903 -0.210406 0)
(-0.0232527 -0.186812 0)
(-0.00755305 -0.1648 0)
(0.00748201 -0.144487 0)
(0.0215606 -0.125868 0)
(0.0344931 -0.108862 0)
(0.0461636 -0.0933412 0)
(0.0565092 -0.0791526 0)
(0.0655019 -0.0661273 0)
(0.0731357 -0.0540901 0)
(0.0794162 -0.0428628 0)
(0.0843532 -0.0322668 0)
(0.0879549 -0.0221236 0)
(0.0902241 -0.0122548 0)
(0.0911552 -0.00248077 0)
(0.0907328 0.00738009 0)
(0.0889309 0.0175131 0)
(0.0857133 0.028109 0)
(0.0810356 0.0393651 0)
(0.0748474 0.0514871 0)
(0.0670979 0.064689 0)
(0.0577428 0.0791929 0)
(0.0467545 0.0952258 0)
(0.0341372 0.113013 0)
(0.0199467 0.132767 0)
(0.00431747 0.154666 0)
(-0.0125023 0.178819 0)
(-0.030107 0.205211 0)
(-0.047882 0.233619 0)
(-0.0649506 0.26349 0)
(-0.0801293 0.293761 0)
(-0.0919169 0.322625 0)
(-0.0985582 0.347245 0)
(-0.098251 0.363447 0)
(-0.0895738 0.365494 0)
(-0.0721314 0.346136 0)
(-0.0474625 0.297176 0)
(-0.0210681 0.210933 0)
(-0.00423211 0.0832028 0)
(-0.00286478 -0.0661667 0)
(-0.0154224 -0.171431 0)
(-0.0368716 -0.24733 0)
(-0.0594496 -0.295962 0)
(-0.0788158 -0.321798 0)
(-0.0930635 -0.32994 0)
(-0.101606 -0.325212 0)
(-0.104736 -0.311713 0)
(-0.103241 -0.29268 0)
(-0.0981026 -0.270536 0)
(-0.0903016 -0.24701 0)
(-0.080721 -0.223287 0)
(-0.0701045 -0.200139 0)
(-0.0590493 -0.17804 0)
(-0.0480175 -0.157246 0)
(-0.0373551 -0.137866 0)
(-0.0273131 -0.119909 0)
(-0.0180686 -0.103314 0)
(-0.00974232 -0.0879734 0)
(-0.0024138 -0.0737524 0)
(0.00386607 -0.0604965 0)
(0.00906535 -0.04804 0)
(0.0131634 -0.0362093 0)
(0.016145 -0.0248262 0)
(0.0179964 -0.0137088 0)
(0.0187021 -0.00267194 0)
(0.0182434 0.00847265 0)
(0.0165983 0.0199171 0)
(0.0137416 0.0318573 0)
(0.00964787 0.0444937 0)
(0.00429462 0.05803 0)
(-0.00233167 0.0726717 0)
(-0.0102274 0.0886231 0)
(-0.0193605 0.10608 0)
(-0.0296559 0.125219 0)
(-0.0409754 0.14618 0)
(-0.0530944 0.169039 0)
(-0.0656724 0.193769 0)
(-0.0782212 0.220176 0)
(-0.0900722 0.247822 0)
(-0.100353 0.275903 0)
(-0.107985 0.303112 0)
(-0.111721 0.327454 0)
(-0.110265 0.346068 0)
(-0.102503 0.355078 0)
(-0.0878986 0.349569 0)
(-0.0669734 0.323821 0)
(-0.0418716 0.271938 0)
(-0.017642 0.18901 0)
(-0.00330917 0.073054 0)
(-0.00230439 -0.058789 0)
(-0.0130683 -0.154385 0)
(-0.0324467 -0.226026 0)
(-0.0542835 -0.274796 0)
(-0.0748399 -0.303659 0)
(-0.0921259 -0.31632 0)
(-0.105167 -0.316537 0)
(-0.113765 -0.307716 0)
(-0.118239 -0.292712 0)
(-0.119186 -0.273792 0)
(-0.117306 -0.252675 0)
(-0.113296 -0.230615 0)
(-0.107792 -0.208491 0)
(-0.101339 -0.18689 0)
(-0.0943893 -0.166182 0)
(-0.0873022 -0.146572 0)
(-0.0803584 -0.128147 0)
(-0.0737711 -0.11091 0)
(-0.0676998 -0.0948053 0)
(-0.0622617 -0.0797336 0)
(-0.057542 -0.0655672 0)
(-0.0536028 -0.0521581 0)
(-0.0504895 -0.0393447 0)
(-0.0482366 -0.026955 0)
(-0.0468717 -0.0148103 0)
(-0.0464176 -0.00272644 0)
(-0.0468945 0.00948509 0)
(-0.0483194 0.022016 0)
(-0.0507057 0.0350604 0)
(-0.05406 0.0488132 0)
(-0.0583785 0.0634679 0)
(-0.0636404 0.0792125 0)
(-0.0698 0.0962238 0)
(-0.076776 0.114657 0)
(-0.0844371 0.134632 0)
(-0.0925863 0.156212 0)
(-0.100941 0.179372 0)
(-0.109113 0.203958 0)
(-0.116588 0.229628 0)
(-0.122713 0.255775 0)
(-0.126698 0.281435 0)
(-0.127639 0.305169 0)
(-0.12459 0.324956 0)
(-0.116698 0.338083 0)
(-0.103425 0.341118 0)
(-0.08486 0.329989 0)
(-0.0620594 0.300289 0)
(-0.037345 0.247832 0)
(-0.0151422 0.169512 0)
(-0.00269808 0.0645321 0)
(-0.00192693 -0.0524921 0)
(-0.0113683 -0.139225 0)
(-0.0290422 -0.206108 0)
(-0.0499844 -0.253688 0)
(-0.0710181 -0.283962 0)
(-0.0902359 -0.299631 0)
(-0.106484 -0.303607 0)
(-0.119253 -0.298673 0)
(-0.12852 -0.287286 0)
(-0.134566 -0.27149 0)
(-0.137833 -0.252916 0)
(-0.138826 -0.232813 0)
(-0.138051 -0.212104 0)
(-0.13597 -0.191447 0)
(-0.132992 -0.171285 0)
(-0.12946 -0.151898 0)
(-0.125658 -0.133441 0)
(-0.121813 -0.115972 0)
(-0.118104 -0.0994818 0)
(-0.114673 -0.0839089 0)
(-0.111627 -0.0691541 0)
(-0.10905 -0.0550912 0)
(-0.107006 -0.0415741 0)
(-0.105544 -0.0284427 0)
(-0.1047 -0.0155266 0)
(-0.104503 -0.00264803 0)
(-0.104973 0.0103755 0)
(-0.10612 0.0237293 0)
(-0.107946 0.0375991 0)
(-0.110441 0.0521677 0)
(-0.113578 0.0676118 0)
(-0.117306 0.0840952 0)
(-0.121548 0.101761 0)
(-0.126183 0.12072 0)
(-0.131043 0.141034 0)
(-0.135895 0.16269 0)
(-0.14043 0.185574 0)
(-0.14425 0.209427 0)
(-0.14686 0.233792 0)
(-0.147673 0.257952 0)
(-0.146023 0.280854 0)
(-0.141213 0.301034 0)
(-0.132596 0.316548 0)
(-0.119704 0.324936 0)
(-0.102438 0.323253 0)
(-0.0813057 0.308204 0)
(-0.0576299 0.276441 0)
(-0.0336836 0.225017 0)
(-0.0132675 0.151988 0)
(-0.00227277 0.0571862 0)
(-0.00166375 -0.0469719 0)
(-0.0101194 -0.125521 0)
(-0.0264226 -0.187414 0)
(-0.0464849 -0.232918 0)
(-0.0676091 -0.263403 0)
(-0.0880382 -0.280859 0)
(-0.106563 -0.28754 0)
(-0.122494 -0.285701 0)
(-0.135567 -0.277419 0)
(-0.145818 -0.264497 0)
(-0.153471 -0.248428 0)
(-0.158855 -0.230407 0)
(-0.162336 -0.211354 0)
(-0.164283 -0.191954 0)
(-0.165041 -0.172696 0)
(-0.164917 -0.153908 0)
(-0.164176 -0.135796 0)
(-0.163042 -0.118464 0)
(-0.1617 -0.101945 0)
(-0.1603 -0.0862101 0)
(-0.158963 -0.0711888 0)
(-0.157785 -0.0567781 0)
(-0.156841 -0.0428503 0)
(-0.156189 -0.0292603 0)
(-0.155873 -0.0158501 0)
(-0.155921 -0.00245317 0)
(-0.156353 0.0111024 0)
(-0.157172 0.0249904 0)
(-0.158371 0.0393829 0)
(-0.159922 0.054446 0)
(-0.161781 0.0703345 0)
(-0.163876 0.0871845 0)
(-0.166102 0.105103 0)
(-0.168319 0.124156 0)
(-0.170334 0.144349 0)
(-0.171901 0.165605 0)
(-0.172712 0.187735 0)
(-0.172388 0.210399 0)
(-0.170488 0.233065 0)
(-0.166517 0.254955 0)
(-0.159956 0.274994 0)
(-0.150318 0.291764 0)
(-0.137221 0.303469 0)
(-0.120511 0.307944 0)
(-0.100407 0.302718 0)
(-0.0776732 0.285169 0)
(-0.0537325 0.252777 0)
(-0.0307021 0.203478 0)
(-0.0118245 0.136073 0)
(-0.00196342 0.0507212 0)
(-0.00147515 -0.0420212 0)
(-0.00918879 -0.112942 0)
(-0.024402 -0.169755 0)
(-0.0436711 -0.212587 0)
(-0.0646894 -0.2424 0)
(-0.0858677 -0.260674 0)
(-0.106011 -0.269163 0)
(-0.124332 -0.269685 0)
(-0.140407 -0.263976 0)
(-0.154092 -0.253598 0)
(-0.165432 -0.23989 0)
(-0.1746 -0.223957 0)
(-0.181835 -0.206683 0)
(-0.187408 -0.188747 0)
(-0.191591 -0.170655 0)
(-0.194642 -0.152766 0)
(-0.196795 -0.135317 0)
(-0.198257 -0.118449 0)
(-0.199204 -0.102224 0)
(-0.199788 -0.0866459 0)
(-0.20013 -0.0716688 0)
(-0.200333 -0.0572126 0)
(-0.200476 -0.0431693 0)
(-0.200621 -0.0294107 0)
(-0.200814 -0.0157942 0)
(-0.201084 -0.00216741 0)
(-0.201445 0.0116271 0)
(-0.201897 0.0257479 0)
(-0.202422 0.0403501 0)
(-0.202981 0.0555795 0)
(-0.203514 0.0715667 0)
(-0.203935 0.0884184 0)
(-0.204126 0.106207 0)
(-0.203932 0.124955 0)
(-0.203157 0.144621 0)
(-0.201559 0.165074 0)
(-0.198848 0.186068 0)
(-0.194691 0.207212 0)
(-0.188716 0.227932 0)
(-0.180537 0.247434 0)
(-0.169785 0.264669 0)
(-0.156163 0.278313 0)
(-0.139518 0.286754 0)
(-0.119936 0.288131 0)
(-0.0978547 0.280406 0)
(-0.0741807 0.261512 0)
(-0.0503392 0.229566 0)
(-0.0282519 0.183127 0)
(-0.0106883 0.121477 0)
(-0.00173015 0.0449361 0)
(-0.00133714 -0.0374951 0)
(-0.00848736 -0.101232 0)
(-0.0228388 -0.152951 0)
(-0.0414248 -0.192708 0)
(-0.0622497 -0.221196 0)
(-0.0838846 -0.239532 0)
(-0.105181 -0.249083 0)
(-0.125311 -0.251315 0)
(-0.143748 -0.247669 0)
(-0.160216 -0.239481 0)
(-0.174624 -0.227928 0)
(-0.187012 -0.214011 0)
(-0.197506 -0.198552 0)
(-0.206283 -0.182203 0)
(-0.213542 -0.165466 0)
(-0.219484 -0.148707 0)
(-0.224307 -0.132183 0)
(-0.228189 -0.116056 0)
(-0.231293 -0.100415 0)
(-0.233756 -0.0852848 0)
(-0.2357 -0.0706439 0)
(-0.237223 -0.0564326 0)
(-0.238405 -0.0425622 0)
(-0.239306 -0.0289224 0)
(-0.239973 -0.0153875 0)
(-0.240432 -0.00182146 0)
(-0.240693 0.0119165 0)
(-0.240749 0.0259674 0)
(-0.240575 0.0404669 0)
(-0.240125 0.0555393 0)
(-0.239327 0.0712903 0)
(-0.238089 0.0877981 0)
(-0.236285 0.105102 0)
(-0.23376 0.12319 0)
(-0.230325 0.14198 0)
(-0.225757 0.161302 0)
(-0.219801 0.180873 0)
(-0.212178 0.200274 0)
(-0.202598 0.218919 0)
(-0.190787 0.236033 0)
(-0.176516 0.25063 0)
(-0.159656 0.261506 0)
(-0.140237 0.267248 0)
(-0.118524 0.266283 0)
(-0.0950986 0.256951 0)
(-0.0709318 0.237636 0)
(-0.0473981 0.206936 0)
(-0.0262204 0.163851 0)
(-0.00977689 0.107973 0)
(-0.00154922 0.0396885 0)
(-0.00123459 -0.0332892 0)
(-0.00795413 -0.0901958 0)
(-0.0216265 -0.136842 0)
(-0.0396401 -0.17325 0)
(-0.0602444 -0.19993 0)
(-0.0821522 -0.217736 0)
(-0.104276 -0.227741 0)
(-0.125778 -0.231124 0)
(-0.14607 -0.229078 0)
(-0.164784 -0.222729 0)
(-0.181723 -0.213101 0)
(-0.196821 -0.20108 0)
(-0.210108 -0.187416 0)
(-0.221673 -0.172716 0)
(-0.231645 -0.157457 0)
(-0.240173 -0.142003 0)
(-0.247407 -0.126614 0)
(-0.253497 -0.111465 0)
(-0.258582 -0.0966587 0)
(-0.262785 -0.0822392 0)
(-0.266216 -0.068203 0)
(-0.268968 -0.0545088 0)
(-0.271114 -0.0410862 0)
(-0.272714 -0.0278424 0)
(-0.273808 -0.014669 0)
(-0.274419 -0.00144753 0)
(-0.274553 0.0119451 0)
(-0.274198 0.025631 0)
(-0.273323 0.0397259 0)
(-0.271875 0.0543324 0)
(-0.269779 0.0695322 0)
(-0.266939 0.0853775 0)
(-0.263232 0.10188 0)
(-0.258511 0.118998 0)
(-0.252601 0.136621 0)
(-0.245309 0.154554 0)
(-0.236424 0.172494 0)
(-0.225728 0.190016 0)
(-0.213017 0.206548 0)
(-0.19812 0.221359 0)
(-0.180937 0.233545 0)
(-0.161477 0.242039 0)
(-0.139915 0.245625 0)
(-0.116644 0.242992 0)
(-0.0923335 0.2328 0)
(-0.0679715 0.213796 0)
(-0.0448556 0.184936 0)
(-0.024524 0.145534 0)
(-0.00903551 0.0953782 0)
(-0.00140594 0.0348734 0)
(-0.00115754 -0.0293267 0)
(-0.00754635 -0.0796837 0)
(-0.0206848 -0.121292 0)
(-0.0382279 -0.154162 0)
(-0.0586161 -0.178676 0)
(-0.0806832 -0.195493 0)
(-0.103405 -0.205459 0)
(-0.12595 -0.209525 0)
(-0.147699 -0.208667 0)
(-0.168217 -0.203833 0)
(-0.187231 -0.195896 0)
(-0.204589 -0.185631 0)
(-0.220238 -0.173704 0)
(-0.234196 -0.160669 0)
(-0.246527 -0.146969 0)
(-0.257324 -0.132948 0)
(-0.266697 -0.11886 0)
(-0.274761 -0.104883 0)
(-0.281629 -0.0911286 0)
(-0.287406 -0.0776513 0)
(-0.292187 -0.0644622 0)
(-0.296055 -0.0515354 0)
(-0.299076 -0.0388165 0)
(-0.301302 -0.0262295 0)
(-0.302769 -0.0136831 0)
(-0.303496 -0.00107615 0)
(-0.303484 0.0116962 0)
(-0.302715 0.0247375 0)
(-0.301154 0.0381436 0)
(-0.298746 0.0519965 0)
(-0.295416 0.0663562 0)
(-0.29107 0.0812527 0)
(-0.28559 0.0966752 0)
(-0.278844 0.112561 0)
(-0.270682 0.128781 0)
(-0.260943 0.145128 0)
(-0.249464 0.161296 0)
(-0.236093 0.176872 0)
(-0.220705 0.191316 0)
(-0.203224 0.203958 0)
(-0.18366 0.213991 0)
(-0.162137 0.220487 0)
(-0.138939 0.222416 0)
(-0.114548 0.218699 0)
(-0.0896806 0.208265 0)
(-0.0653156 0.190144 0)
(-0.0426645 0.163566 0)
(-0.0231018 0.128062 0)
(-0.0084268 0.0835465 0)
(-0.00129082 0.030411 0)
(-0.00109926 -0.0255503 0)
(-0.00723352 -0.0695786 0)
(-0.0199536 -0.10619 0)
(-0.0371151 -0.135388 0)
(-0.0573075 -0.157467 0)
(-0.0794645 -0.17294 0)
(-0.10262 -0.182475 0)
(-0.125962 -0.186833 0)
(-0.148852 -0.186813 0)
(-0.170815 -0.183201 0)
(-0.191515 -0.176733 0)
(-0.210739 -0.168076 0)
(-0.228366 -0.157812 0)
(-0.244351 -0.14643 0)
(-0.258699 -0.134332 0)
(-0.271457 -0.121835 0)
(-0.282693 -0.109179 0)
(-0.292487 -0.0965353 0)
(-0.300927 -0.0840156 0)
(-0.308098 -0.0716821 0)
(-0.314078 -0.0595552 0)
(-0.318936 -0.0476211 0)
(-0.322732 -0.0358393 0)
(-0.325507 -0.0241492 0)
(-0.327293 -0.0124754 0)
(-0.328101 -0.000733652 0)
(-0.327929 0.0111635 0)
(-0.326755 0.0233014 0)
(-0.324543 0.0357578 0)
(-0.321236 0.0485956 0)
(-0.316761 0.0618565 0)
(-0.31103 0.0755524 0)
(-0.303937 0.0896563 0)
(-0.295367 0.104092 0)
(-0.285197 0.118723 0)
(-0.273303 0.133339 0)
(-0.259571 0.147648 0)
(-0.243909 0.16126 0)
(-0.226266 0.173683 0)
(-0.206652 0.184317 0)
(-0.185166 0.19246 0)
(-0.162024 0.197318 0)
(-0.137591 0.198035 0)
(-0.112409 0.19373 0)
(-0.0872168 0.183555 0)
(-0.0629669 0.166766 0)
(-0.0407864 0.142796 0)
(-0.0219091 0.111329 0)
(-0.00792488 0.0723553 0)
(-0.00119758 0.0262384 0)
(-0.00105504 -0.0219166 0)
(-0.00699358 -0.0597896 0)
(-0.0193874 -0.091441 0)
(-0.0362436 -0.116875 0)
(-0.0562668 -0.13632 0)
(-0.0784722 -0.150173 0)
(-0.101946 -0.158962 0)
(-0.125895 -0.163295 0)
(-0.149677 -0.163817 0)
(-0.172787 -0.161172 0)
(-0.194848 -0.155974 0)
(-0.215596 -0.148783 0)
(-0.234857 -0.140096 0)
(-0.252531 -0.130339 0)
(-0.268579 -0.119865 0)
(-0.283 -0.108956 0)
(-0.295827 -0.0978318 0)
(-0.30711 -0.0866503 0)
(-0.316908 -0.0755193 0)
(-0.325286 -0.0645021 0)
(-0.332306 -0.0536246 0)
(-0.338025 -0.0428823 0)
(-0.34249 -0.0322463 0)
(-0.345735 -0.021669 0)
(-0.347784 -0.0110898 0)
(-0.348645 -0.00044042 0)
(-0.348309 0.0103505 0)
(-0.346753 0.0213519 0)
(-0.343938 0.0326245 0)
(-0.33981 0.0442153 0)
(-0.3343 0.0561508 0)
(-0.327328 0.0684296 0)
(-0.318801 0.0810143 0)
(-0.308625 0.093823 0)
(-0.296704 0.106719 0)
(-0.28295 0.119504 0)
(-0.267296 0.131905 0)
(-0.249707 0.143569 0)
(-0.230196 0.154061 0)
(-0.208845 0.162859 0)
(-0.185828 0.169364 0)
(-0.161431 0.172911 0)
(-0.136079 0.172799 0)
(-0.11035 0.16832 0)
(-0.0849923 0.15881 0)
(-0.0609225 0.143701 0)
(-0.0391912 0.122579 0)
(-0.0209135 0.0952342 0)
(-0.00751162 0.061701 0)
(-0.00112192 0.0223042 0)
(-0.00102158 -0.0183919 0)
(-0.00681042 -0.0502447 0)
(-0.0189519 -0.0769704 0)
(-0.0355674 -0.0985745 0)
(-0.0554499 -0.115233 0)
(-0.0776794 -0.127255 0)
(-0.101386 -0.135052 0)
(-0.125798 -0.139104 0)
(-0.150271 -0.139924 0)
(-0.174283 -0.138031 0)
(-0.197429 -0.133926 0)
(-0.219403 -0.12807 0)
(-0.239991 -0.120879 0)
(-0.259051 -0.11271 0)
(-0.276502 -0.103865 0)
(-0.292307 -0.0945885 0)
(-0.306464 -0.0850716 0)
(-0.318997 -0.0754562 0)
(-0.329941 -0.0658405 0)
(-0.339341 -0.0562846 0)
(-0.347242 -0.0468168 0)
(-0.353689 -0.0374385 0)
(-0.358717 -0.02813 0)
(-0.362355 -0.0188552 0)
(-0.364616 -0.00956655 0)
(-0.365505 -0.000209848 0)
(-0.365009 0.00927134 0)
(-0.363104 0.018931 0)
(-0.359749 0.0288155 0)
(-0.354894 0.0389585 0)
(-0.348475 0.0493747 0)
(-0.34042 0.0600542 0)
(-0.330652 0.0709551 0)
(-0.319097 0.0819961 0)
(-0.305685 0.0930496 0)
(-0.290364 0.103934 0)
(-0.273107 0.114407 0)
(-0.253929 0.124161 0)
(-0.232899 0.132822 0)
(-0.210159 0.13995 0)
(-0.18594 0.145046 0)
(-0.160584 0.147568 0)
(-0.134558 0.146951 0)
(-0.108462 0.142638 0)
(-0.083041 0.134115 0)
(-0.0591783 0.120954 0)
(-0.037856 0.102855 0)
(-0.0200918 0.0796831 0)
(-0.00717421 0.0514931 0)
(-0.00106089 0.0185656 0)
(-0.000996516 -0.01495 0)
(-0.00667225 -0.0408865 0)
(-0.0186216 -0.0627152 0)
(-0.0350508 -0.0804424 0)
(-0.0548202 -0.0942025 0)
(-0.0770602 -0.104231 0)
(-0.100936 -0.110844 0)
(-0.125696 -0.114411 0)
(-0.150698 -0.115333 0)
(-0.17541 -0.114016 0)
(-0.199403 -0.110856 0)
(-0.222344 -0.106222 0)
(-0.243987 -0.10045 0)
(-0.264155 -0.09383 0)
(-0.282736 -0.0866107 0)
(-0.299661 -0.078995 0)
(-0.314902 -0.0711429 0)
(-0.328455 -0.0631751 0)
(-0.340338 -0.0551768 0)
(-0.350577 -0.0472018 0)
(-0.359202 -0.0392772 0)
(-0.366246 -0.031408 0)
(-0.371736 -0.0235814 0)
(-0.37569 -0.0157708 0)
(-0.378117 -0.00794026 0)
(-0.379017 -4.80713e-05 0)
(-0.378374 0.00794916 0)
(-0.376162 0.0160922 0)
(-0.372341 0.0244153 0)
(-0.366864 0.0329413 0)
(-0.359673 0.0416771 0)
(-0.350705 0.0506082 0)
(-0.339898 0.0596929 0)
(-0.327195 0.068857 0)
(-0.312552 0.0779876 0)
(-0.295946 0.0869277 0)
(-0.277388 0.0954717 0)
(-0.256934 0.103363 0)
(-0.234699 0.110292 0)
(-0.210871 0.115901 0)
(-0.185729 0.119789 0)
(-0.159655 0.121527 0)
(-0.133142 0.120673 0)
(-0.106807 0.116799 0)
(-0.0813864 0.109516 0)
(-0.05773 0.0985067 0)
(-0.0367636 0.0835584 0)
(-0.0194268 0.064586 0)
(-0.00690357 0.0416508 0)
(-0.0010124 0.0149852 0)
(-0.000978147 -0.0115699 0)
(-0.00657049 -0.0316685 0)
(-0.0183771 -0.0486232 0)
(-0.0346667 -0.0624403 0)
(-0.0543489 -0.0732192 0)
(-0.0765922 -0.0811335 0)
(-0.10059 -0.0864164 0)
(-0.125606 -0.0893426 0)
(-0.151002 -0.0902112 0)
(-0.17624 -0.0893281 0)
(-0.200875 -0.086993 0)
(-0.224555 -0.0834878 0)
(-0.247008 -0.0790689 0)
(-0.268033 -0.0739622 0)
(-0.28749 -0.0683607 0)
(-0.305289 -0.0624238 0)
(-0.321378 -0.0562783 0)
(-0.335733 -0.0500208 0)
(-0.348355 -0.0437203 0)
(-0.359255 -0.0374214 0)
(-0.368452 -0.0311479 0)
(-0.375966 -0.0249059 0)
(-0.381817 -0.0186875 0)
(-0.386017 -0.0124743 0)
(-0.38857 -0.00623984 0)
(-0.389469 4.62761e-05 0)
(-0.388699 0.00641593 0)
(-0.386231 0.0128986 0)
(-0.382027 0.0195185 0)
(-0.376043 0.0262904 0)
(-0.368225 0.0332161 0)
(-0.358522 0.0402804 0)
(-0.346881 0.0474464 0)
(-0.333263 0.0546512 0)
(-0.317644 0.0618019 0)
(-0.300027 0.0687716 0)
(-0.280453 0.075396 0)
(-0.259011 0.0814724 0)
(-0.235851 0.0867592 0)
(-0.2112 0.0909797 0)
(-0.18537 0.0938278 0)
(-0.158771 0.0949782 0)
(-0.131919 0.0941007 0)
(-0.105434 0.0908783 0)
(-0.0800453 0.0850278 0)
(-0.0565746 0.0763229 0)
(-0.035902 0.0646162 0)
(-0.0189067 0.0498565 0)
(-0.0066933 0.0321002 0)
(-0.000975018 0.0115299 0)
(-0.000965288 -0.00823446 0)
(-0.00649897 -0.0225522 0)
(-0.0182048 -0.0346505 0)
(-0.0343949 -0.0445346 0)
(-0.0540137 -0.052273 0)
(-0.0762571 -0.0579849 0)
(-0.100339 -0.0618307 0)
(-0.125535 -0.0640001 0)
(-0.151211 -0.0647002 0)
(-0.176824 -0.0641441 0)
(-0.201921 -0.0625415 0)
(-0.226134 -0.0600906 0)
(-0.249175 -0.0569727 0)
(-0.270825 -0.0533484 0)
(-0.290925 -0.0493556 0)
(-0.309365 -0.0451087 0)
(-0.326078 -0.0406996 0)
(-0.341026 -0.0361986 0)
(-0.354194 -0.0316563 0)
(-0.365583 -0.0271062 0)
(-0.375203 -0.0225666 0)
(-0.383065 -0.0180431 0)
(-0.389183 -0.0135313 0)
(-0.393562 -0.00901907 0)
(-0.396203 -0.00448863 0)
(-0.397097 8.08119e-05 0)
(-0.396226 0.00471074 0)
(-0.39356 0.00942117 0)
(-0.389063 0.0142279 0)
(-0.382693 0.0191398 0)
(-0.374401 0.0241564 0)
(-0.364143 0.0292644 0)
(-0.351876 0.0344351 0)
(-0.337574 0.039621 0)
(-0.32123 0.0447531 0)
(-0.302865 0.0497379 0)
(-0.282544 0.0544562 0)
(-0.26038 0.0587615 0)
(-0.236552 0.0624812 0)
(-0.211311 0.0654187 0)
(-0.184994 0.0673583 0)
(-0.158031 0.0680726 0)
(-0.13095 0.067333 0)
(-0.104377 0.0649215 0)
(-0.0790299 0.0606461 0)
(-0.0557096 0.0543553 0)
(-0.0352623 0.0459531 0)
(-0.018523 0.0354105 0)
(-0.00653895 0.0227723 0)
(-0.000947734 0.00816937 0)
(-0.000957129 -0.00492909 0)
(-0.00645348 -0.0135048 0)
(-0.018095 -0.0207589 0)
(-0.0342212 -0.026695 0)
(-0.0537988 -0.0313532 0)
(-0.0760413 -0.0348032 0)
(-0.100176 -0.037139 0)
(-0.125486 -0.0384717 0)
(-0.151341 -0.0389232 0)
(-0.177196 -0.0386191 0)
(-0.202591 -0.0376835 0)
(-0.227151 -0.0362341 0)
(-0.250575 -0.0343789 0)
(-0.272633 -0.0322139 0)
(-0.293153 -0.0298218 0)
(-0.312014 -0.0272715 0)
(-0.329138 -0.0246185 0)
(-0.344475 -0.0219056 0)
(-0.358004 -0.0191637 0)
(-0.369716 -0.0164135 0)
(-0.379615 -0.0136664 0)
(-0.387707 -0.0109264 0)
(-0.394 -0.00819132 0)
(-0.398496 -0.00545427 0)
(-0.401194 -0.00270507 0)
(-0.402082 6.83395e-05 0)
(-0.40114 0.00287841 0)
(-0.398339 0.00573663 0)
(-0.393644 0.00865187 0)
(-0.387014 0.0116289 0)
(-0.378405 0.0146664 0)
(-0.367775 0.0177558 0)
(-0.355091 0.0208787 0)
(-0.340334 0.0240056 0)
(-0.323509 0.027094 0)
(-0.304652 0.0300869 0)
(-0.28384 0.0329118 0)
(-0.261205 0.0354805 0)
(-0.236942 0.0376892 0)
(-0.211321 0.0394205 0)
(-0.184693 0.0405462 0)
(-0.157501 0.0409321 0)
(-0.130282 0.0404436 0)
(-0.10366 0.0389536 0)
(-0.0783485 0.0363506 0)
(-0.0551337 0.0325477 0)
(-0.0348388 0.0274911 0)
(-0.01827 0.021166 0)
(-0.00643756 0.0136012 0)
(-0.000929883 0.00487537 0)
(-0.000953168 -0.00164112 0)
(-0.00643137 -0.0044972 0)
(-0.0180415 -0.00691441 0)
(-0.0341366 -0.008894 0)
(-0.0536939 -0.0104492 0)
(-0.0759357 -0.011603 0)
(-0.100095 -0.0123862 0)
(-0.125462 -0.0128356 0)
(-0.151404 -0.0129913 0)
(-0.177377 -0.0128948 0)
(-0.202919 -0.0125873 0)
(-0.227649 -0.0121077 0)
(-0.251262 -0.0114919 0)
(-0.273521 -0.0107718 0)
(-0.294248 -0.0099751 0)
(-0.313318 -0.00912468 0)