/*--------------------------------*- C++ -*----------------------------------*\
  =========                 |
  \\      /  F ield         | OpenFOAM: The Open Source CFD Toolbox
   \\    /   O peration     | Website:  https://openfoam.org
    \\  /    A nd           | Version:  7
     \\/     M anipulation  |
\*---------------------------------------------------------------------------*/
FoamFile
{
    version     2.0;
    format      ascii;
    class       surfaceScalarField;
    location    "0.0168";
    object      phi;
}
// * * * * * * * * * * * * * * * * * * * * * * * * * * * * * * * * * * * * * //

dimensions      [0 3 -1 0 0 0 0];

internalField   nonuniform List<scalar> 
4900
(
-5.5575e-06
5.55748e-06
-1.01632e-05
4.60568e-06
-1.29477e-05
2.78452e-06
-1.46616e-05
1.71386e-06
-1.5755e-05
1.09342e-06
-1.64825e-05
7.27502e-07
-1.69899e-05
5.07427e-07
-1.73596e-05
3.6967e-07
-1.76385e-05
2.78879e-07
-1.78544e-05
2.15988e-07
-1.8025e-05
1.70544e-07
-1.81616e-05
1.36564e-07
-1.8272e-05
1.10446e-07
-1.83619e-05
8.99156e-08
-1.84354e-05
7.34691e-08
-1.84955e-05
6.00724e-08
-1.85444e-05
4.89893e-08
-1.85841e-05
3.96797e-08
-1.86159e-05
3.17368e-08
-1.86407e-05
2.48459e-08
-1.86595e-05
1.87581e-08
-1.86727e-05
1.32708e-08
-1.8681e-05
8.21466e-09
-1.86844e-05
3.44352e-09
-1.86832e-05
-1.17425e-09
-1.86775e-05
-5.76031e-09
-1.8667e-05
-1.04354e-08
-1.86517e-05
-1.53223e-08
-1.86311e-05
-2.05529e-08
-1.86049e-05
-2.62747e-08
-1.85722e-05
-3.26584e-08
-1.85323e-05
-3.99085e-08
-1.8484e-05
-4.82762e-08
-1.8426e-05
-5.80786e-08
-1.83562e-05
-6.97256e-08
-1.82725e-05
-8.37616e-08
-1.81715e-05
-1.00929e-07
-1.80493e-05
-1.22272e-07
-1.78999e-05
-1.49316e-07
-1.77156e-05
-1.84372e-07
-1.74845e-05
-2.31112e-07
-1.71888e-05
-2.95627e-07
-1.68004e-05
-3.88481e-07
-1.62717e-05
-5.2866e-07
-1.55211e-05
-7.50545e-07
-1.44075e-05
-1.11362e-06
-1.26916e-05
-1.71592e-06
-9.95254e-06
-2.73907e-06
-5.45481e-06
-4.49773e-06
-5.45481e-06
-1.16706e-08
5.56915e-06
-2.12408e-06
6.71809e-06
-4.83742e-06
5.49786e-06
-7.23342e-06
4.10986e-06
-9.14379e-06
3.00379e-06
-1.06223e-05
2.206e-06
-1.17632e-05
1.64838e-06
-1.26507e-05
1.25709e-06
-1.33489e-05
9.77092e-07
-1.39047e-05
7.7184e-07
-1.43519e-05
6.17704e-07
-1.47147e-05
4.9935e-07
-1.50109e-05
4.06652e-07
-1.52537e-05
3.32763e-07
-1.54532e-05
2.7293e-07
-1.56169e-05
2.23767e-07
-1.57507e-05
1.82797e-07
-1.58592e-05
1.48169e-07
-1.59459e-05
1.18462e-07
-1.60136e-05
9.25661e-08
-1.60645e-05
6.95904e-08
-1.61e-05
4.8804e-08
-1.61214e-05
2.95902e-08
-1.61293e-05
1.14131e-08
-1.61243e-05
-6.20959e-09
-1.61063e-05
-2.37309e-08
-1.60752e-05
-4.1593e-08
-1.60302e-05
-6.02479e-08
-1.59706e-05
-8.01778e-08
-1.5895e-05
-1.01917e-07
-1.58016e-05
-1.2608e-07
-1.56881e-05
-1.5339e-07
-1.55516e-05
-1.84731e-07
-1.53885e-05
-2.21197e-07
-1.5194e-05
-2.64184e-07
-1.49623e-05
-3.15508e-07
-1.46856e-05
-3.77589e-07
-1.43542e-05
-4.53729e-07
-1.3955e-05
-5.48545e-07
-1.34707e-05
-6.68667e-07
-1.28779e-05
-8.23849e-07
-1.21448e-05
-1.02874e-06
-1.12276e-05
-1.30566e-06
-1.00677e-05
-1.68859e-06
-8.59058e-06
-2.22766e-06
-6.71616e-06
-2.98805e-06
-4.40552e-06
-4.02656e-06
-1.82834e-06
-5.31624e-06
1.20078e-07
-6.44615e-06
-5.33473e-06
1.03685e-06
4.5323e-06
5.66442e-07
7.1885e-06
-9.4609e-07
7.01039e-06
-2.80391e-06
5.96768e-06
-4.61448e-06
4.81436e-06
-6.21879e-06
3.81031e-06
-7.57895e-06
3.00855e-06
-8.70958e-06
2.38771e-06
-9.64248e-06
1.90999e-06
-1.04112e-05
1.54057e-06
-1.10455e-05
1.25199e-06
-1.15699e-05
1.0238e-06
-1.20043e-05
8.41059e-07
-1.23645e-05
6.9288e-07
-1.26628e-05
5.71254e-07
-1.29092e-05
4.70217e-07
-1.31117e-05
3.85256e-07
-1.32764e-05
3.12901e-07
-1.34084e-05
2.5043e-07
-1.35115e-05
1.95675e-07
-1.35888e-05
1.4687e-07
-1.36425e-05
1.02548e-07
-1.36744e-05
6.14573e-08
-1.36855e-05
2.25019e-08
-1.36764e-05
-1.53098e-08
-1.36472e-05
-5.29098e-08
-1.35976e-05
-9.12082e-08
-1.35267e-05
-1.31131e-07
-1.34332e-05
-1.73657e-07
-1.33153e-05
-2.19862e-07
-1.31704e-05
-2.70964e-07
-1.29954e-05
-3.28383e-07
-1.27863e-05
-3.93816e-07
-1.25382e-05
-4.69333e-07
-1.22449e-05
-5.57512e-07
-1.18987e-05
-6.61623e-07
-1.14904e-05
-7.85885e-07
-1.10083e-05
-9.35837e-07
-1.0438e-05
-1.11886e-06
-9.76178e-06
-1.34491e-06
-8.95814e-06
-1.62749e-06
-8.00202e-06
-1.98487e-06
-6.86651e-06
-2.44117e-06
-5.52879e-06
-3.02631e-06
-3.98489e-06
-3.77157e-06
-2.28138e-06
-4.69155e-06
-5.76782e-07
-5.73117e-06
7.60398e-07
-6.65342e-06
1.08427e-06
-6.77002e-06
-4.25046e-06
9.14405e-07
3.6179e-06
1.26063e-06
6.84227e-06
7.14431e-07
7.55659e-06
-3.99472e-07
7.08158e-06
-1.75372e-06
6.16861e-06
-3.13205e-06
5.18864e-06
-4.41946e-06
4.29596e-06
-5.56814e-06
3.53639e-06
-6.56744e-06
2.90929e-06
-7.42455e-06
2.39767e-06
-8.15378e-06
1.98122e-06
-8.7712e-06
1.64122e-06
-9.2922e-06
1.36205e-06
-9.73046e-06
1.13114e-06
-1.00978e-05
9.3855e-07
-1.0404e-05
7.76459e-07
-1.06574e-05
6.38677e-07
-1.08648e-05
5.2027e-07
-1.10316e-05
4.17258e-07
-1.11623e-05
3.26387e-07
-1.12604e-05
2.44961e-07
-1.13286e-05
1.70697e-07
-1.13687e-05
1.01626e-07
-1.13822e-05
3.60078e-08
-1.13698e-05
-2.77451e-08
-1.13316e-05
-9.11254e-08
-1.12672e-05
-1.5559e-07
-1.11757e-05
-2.22611e-07
-1.10556e-05
-2.93733e-07
-1.09049e-05
-3.7063e-07
-1.07207e-05
-4.55169e-07
-1.04996e-05
-5.49488e-07
-1.02373e-05
-6.56084e-07
-9.9287e-06
-7.77937e-07
-9.56756e-06
-9.18649e-07
-9.14655e-06
-1.08264e-06
-8.65704e-06
-1.27539e-06
-8.08914e-06
-1.50374e-06
-7.43172e-06
-1.77628e-06
-6.67293e-06
-2.1037e-06
-5.80132e-06
-2.4991e-06
-4.80846e-06
-2.97772e-06
-3.69408e-06
-3.55555e-06
-2.4758e-06
-4.24459e-06
-1.20604e-06
-5.04132e-06
2.68916e-09
-5.90028e-06
9.52764e-07
-6.68124e-06
1.34996e-06
-7.05062e-06
9.15637e-07
-6.3357e-06
-3.33483e-06
6.83224e-07
2.93467e-06
1.28667e-06
6.23883e-06
1.31641e-06
7.52685e-06
8.11328e-07
7.58666e-06
-4.33066e-08
7.02324e-06
-1.06734e-06
6.21267e-06
-2.13092e-06
5.35954e-06
-3.15507e-06
4.56055e-06
-4.09859e-06
3.85281e-06
-4.94436e-06
3.24344e-06
-5.68919e-06
2.72605e-06
-6.33727e-06
2.2893e-06
-6.89616e-06
1.92095e-06
-7.37461e-06
1.60958e-06
-7.78131e-06
1.34525e-06
-8.12433e-06
1.11948e-06
-8.41086e-06
9.25205e-07
-8.6471e-06
7.56515e-07
-8.83832e-06
6.08476e-07
-8.98886e-06
4.76932e-07
-9.10225e-06
3.58348e-07
-9.18123e-06
2.49679e-07
-9.22786e-06
1.48256e-07
-9.24354e-06
5.16883e-08
-9.22907e-06
-4.22158e-08
-9.18467e-06
-1.35526e-07
-9.11001e-06
-2.30256e-07
-9.00419e-06
-3.2843e-07
-8.86577e-06
-4.3215e-07
-8.69274e-06
-5.43658e-07
-8.4825e-06
-6.65409e-07
-8.23184e-06
-8.00155e-07
-7.93689e-06
-9.51031e-07
-7.59317e-06
-1.12166e-06
-7.19554e-06
-1.31628e-06
-6.73831e-06
-1.53986e-06
-6.21541e-06
-1.79828e-06
-5.62075e-06
-2.0984e-06
-4.94887e-06
-2.44816e-06
-4.19623e-06
-2.85634e-06
-3.36331e-06
-3.33202e-06
-2.45818e-06
-3.88285e-06
-1.50222e-06
-4.51151e-06
-5.3847e-07
-5.20833e-06
3.57449e-07
-5.93724e-06
1.06785e-06
-6.61068e-06
1.4353e-06
-7.04869e-06
1.30667e-06
-6.92199e-06
6.67873e-07
-5.6969e-06
-2.66695e-06
4.94353e-07
2.44032e-06
1.12781e-06
5.60537e-06
1.45172e-06
7.20294e-06
1.36315e-06
7.67523e-06
9.27192e-07
7.4592e-06
2.59703e-07
6.88016e-06
-5.3e-07
6.14924e-06
-1.35926e-06
5.38981e-06
-2.17316e-06
4.66671e-06
-2.93894e-06
4.00922e-06
-3.63948e-06
3.4266e-06
-4.26784e-06
2.91766e-06
-4.8232e-06
2.47631e-06
-5.30824e-06
2.09462e-06
-5.72738e-06
1.76439e-06
-6.08572e-06
1.47783e-06
-6.38844e-06
1.22792e-06
-6.64037e-06
1.00845e-06
-6.8459e-06
8.13999e-07
-7.00878e-06
6.39816e-07
-7.13218e-06
4.81752e-07
-7.21865e-06
3.36147e-07
-7.27013e-06
1.99732e-07
-7.28798e-06
6.95399e-08
-7.27302e-06
-5.71723e-08
-7.22554e-06
-1.83004e-07
-7.14532e-06
-3.1048e-07
-7.03163e-06
-4.42123e-07
-6.88326e-06
-5.80516e-07
-6.69855e-06
-7.28374e-07
-6.47535e-06
-8.88608e-07
-6.21111e-06
-1.06439e-06
-5.9029e-06
-1.25924e-06
-5.54749e-06
-1.47707e-06
-5.14153e-06
-1.72224e-06
-4.68176e-06
-1.99963e-06
-4.16544e-06
-2.3146e-06
-3.59098e-06
-2.67287e-06
-2.95896e-06
-3.08018e-06
-2.27366e-06
-3.54163e-06
-1.54541e-06
-4.06027e-06
-7.93801e-07
-4.63446e-06
-5.20196e-08
-5.2533e-06
6.28278e-07
-5.88863e-06
1.17336e-06
-6.48232e-06
1.48982e-06
-6.92714e-06
1.48315e-06
-7.04202e-06
1.10851e-06
-6.54735e-06
4.73863e-07
-5.06226e-06
-2.19309e-06
3.63665e-07
2.07666e-06
9.48512e-07
5.02052e-06
1.39997e-06
6.75148e-06
1.56773e-06
7.50747e-06
1.44128e-06
7.58565e-06
1.07771e-06
7.24374e-06
5.5326e-07
6.67368e-06
-6.1665e-08
6.00473e-06
-7.11826e-07
5.31687e-06
-1.35809e-06
4.65549e-06
-1.97499e-06
4.0435e-06
-2.54736e-06
3.49002e-06
-3.0673e-06
2.99625e-06
-3.53173e-06
2.55906e-06
-3.94061e-06
2.17327e-06
-4.29566e-06
1.83287e-06
-4.59952e-06
1.53178e-06
-4.85522e-06
1.26415e-06
-5.0658e-06
1.02458e-06
-5.2341e-06
8.08112e-07
-5.36262e-06
6.10275e-07
-5.45348e-06
4.27004e-07
-5.50834e-06
2.54595e-07
-5.52843e-06
8.96335e-08
-5.51454e-06
-7.10693e-08
-5.46699e-06
-2.30548e-07
-5.38573e-06
-3.91746e-07
-5.27027e-06
-5.57582e-07
-5.11978e-06
-7.31008e-07
-4.93308e-06
-9.15068e-07
-4.70874e-06
-1.11295e-06
-4.4451e-06
-1.32803e-06
-4.14044e-06
-1.5639e-06
-3.79311e-06
-1.8244e-06
-3.40178e-06
-2.11357e-06
-2.96584e-06
-2.43558e-06
-2.48588e-06
-2.79456e-06
-1.96448e-06
-3.19426e-06
-1.40729e-06
-3.63738e-06
-8.24426e-07
-4.1245e-06
-2.32441e-07
-4.65225e-06
3.43453e-07
-5.21036e-06
8.67075e-07
-5.77692e-06
1.28991e-06
-6.31147e-06
1.55277e-06
-6.74518e-06
1.59442e-06
-6.96879e-06
1.37315e-06
-6.82075e-06
9.08204e-07
-6.0824e-06
3.42338e-07
-4.49639e-06
-1.85075e-06
2.77218e-07
1.79944e-06
7.94006e-07
4.50373e-06
1.28431e-06
6.26118e-06
1.59686e-06
7.19492e-06
1.68223e-06
7.50028e-06
1.55487e-06
7.3711e-06
1.25924e-06
6.96932e-06
8.47368e-07
6.4166e-06
3.66906e-07
5.79733e-06
-1.43673e-07
5.16607e-06
-6.55793e-07
4.55562e-06
-1.14963e-06
3.98386e-06
-1.61232e-06
3.45894e-06
-2.0362e-06
2.98294e-06
-2.41728e-06
2.55435e-06
-2.75404e-06
2.16964e-06
-3.04658e-06
1.82431e-06
-3.29589e-06
1.51347e-06
-3.50351e-06
1.23219e-06
-3.67111e-06
9.75718e-07
-3.80038e-06
7.39546e-07
-3.89284e-06
5.19458e-07
-3.94975e-06
3.11511e-07
-3.97213e-06
1.12006e-07
-3.96065e-06
-8.25494e-08
-3.9157e-06
-2.75498e-07
-3.83736e-06
-4.70077e-07
-3.72547e-06
-6.69474e-07
-3.57961e-06
-8.76869e-07
-3.3992e-06
-1.09547e-06
-3.18359e-06
-1.32857e-06
-2.93213e-06
-1.57949e-06
-2.64438e-06
-1.85165e-06
-2.32029e-06
-2.14849e-06
-1.96052e-06
-2.47333e-06
-1.56685e-06
-2.82925e-06
-1.14272e-06
-3.2187e-06
-6.93957e-07
-3.64303e-06
-2.297e-07
-4.10163e-06
2.36471e-07
-4.59067e-06
6.85313e-07
-5.1011e-06
1.09079e-06
-5.61583e-06
1.41956e-06
-6.10569e-06
1.63213e-06
-6.52403e-06
1.68723e-06
-6.80028e-06
1.55201e-06
-6.83357e-06
1.22066e-06
-6.48941e-06
7.42797e-07
-5.60453e-06
2.56276e-07
-4.00987e-06
-1.59447e-06
2.19163e-07
1.58028e-06
6.69944e-07
4.05295e-06
1.15536e-06
5.77576e-06
1.54122e-06
6.80906e-06
1.76278e-06
7.27872e-06
1.80784e-06
7.32605e-06
1.69572e-06
7.08143e-06
1.46017e-06
6.65215e-06
1.13797e-06
6.11953e-06
7.6272e-07
5.54132e-06
3.62158e-07
4.95618e-06
-4.2338e-08
4.38835e-06
-4.352e-07
3.8518e-06
-8.05677e-07
3.35342e-06
-1.14676e-06
2.89543e-06
-1.45424e-06
2.47712e-06
-1.72586e-06
2.09593e-06
-1.96074e-06
1.74834e-06
-2.15884e-06
1.43029e-06
-2.32066e-06
1.13754e-06
-2.44696e-06
8.65847e-07
-2.53858e-06
6.1108e-07
-2.59634e-06
3.69266e-07
-2.62093e-06
1.36601e-07
-2.61293e-06
-9.05555e-08
-2.57272e-06
-3.15708e-07
-2.50055e-06
-5.4225e-07
-2.39652e-06
-7.73496e-07
-2.26069e-06
-1.01271e-06
-2.09306e-06
-1.2631e-06
-1.89376e-06
-1.52786e-06
-1.66314e-06
-1.81011e-06
-1.40194e-06
-2.11285e-06
-1.11156e-06
-2.43887e-06
-7.94348e-07
-2.79054e-06
-4.54006e-07
-3.16959e-06
-9.6062e-08
-3.57664e-06
2.71517e-07
-4.01061e-06
6.37661e-07
-4.46778e-06
9.87498e-07
-4.9405e-06
1.30178e-06
-5.41538e-06
1.55675e-06
-5.8708e-06
1.72484e-06
-6.27378e-06
1.77717e-06
-6.57637e-06
1.68877e-06
-6.71188e-06
1.44781e-06
-6.5926e-06
1.0695e-06
-6.1111e-06
6.1351e-07
-5.14854e-06
1.98973e-07
-3.59534e-06
-1.3955e-06
1.78625e-07
1.40165e-06
5.71467e-07
3.66011e-06
1.03189e-06
5.31533e-06
1.44715e-06
6.3938e-06
1.75032e-06
6.97555e-06
1.91465e-06
7.16172e-06
1.94189e-06
7.05419e-06
1.8504e-06
6.74363e-06
1.66588e-06
6.30405e-06
1.41517e-06
5.79203e-06
1.12278e-06
5.24857e-06
8.09321e-07
4.70181e-06
4.91148e-07
4.16997e-06
1.80632e-07
3.66393e-06
-1.13259e-07
3.18932e-06
-3.84298e-07
2.74816e-06
-6.28374e-07
2.34001e-06
-8.42943e-07
1.96291e-06
-1.02658e-06
1.61394e-06
-1.17865e-06
1.28961e-06
-1.29899e-06
9.86184e-07
-1.38775e-06
6.99846e-07
-1.44526e-06
4.26778e-07
-1.47191e-06
1.63246e-07
-1.46808e-06
-9.43814e-08
-1.43417e-06
-3.49623e-07
-1.37053e-06
-6.05887e-07
-1.27755e-06
-8.66477e-07
-1.15566e-06
-1.13459e-06
-1.00544e-06
-1.41332e-06
-8.27715e-07
-1.70559e-06
-6.2368e-07
-2.01415e-06
-3.95107e-07
-2.34143e-06
-1.44557e-07
-2.68942e-06
1.24335e-07
-3.05943e-06
4.06524e-07
-3.45178e-06
6.9517e-07
-3.86529e-06
9.81219e-07
-4.29665e-06
1.253e-06
-4.73956e-06
1.49594e-06
-5.18344e-06
1.6925e-06
-5.61195e-06
1.82276e-06
-6.00105e-06
1.86576e-06
-6.31679e-06
1.80248e-06
-6.51309e-06
1.62072e-06
-6.53013e-06
1.32253e-06
-6.29441e-06
9.3361e-07
-5.72218e-06
5.13174e-07
-4.72811e-06
1.59358e-07
-3.24152e-06
-1.23614e-06
1.48978e-07
1.25267e-06
4.92341e-07
3.31675e-06
9.19418e-07
4.88825e-06
1.33772e-06
5.9755e-06
1.68448e-06
6.62879e-06
1.92653e-06
6.91967e-06
2.05444e-06
6.92629e-06
2.07493e-06
6.72314e-06
2.00397e-06
6.37501e-06
1.86137e-06
5.93463e-06
1.66728e-06
5.44266e-06
1.44011e-06
4.92898e-06
1.19558e-06
4.41451e-06
9.46438e-07
3.91307e-06
7.02651e-07
3.43311e-06
4.71708e-07
2.9791e-06
2.59061e-07
2.55266e-06
6.85416e-08
2.15343e-06
-9.72713e-08
1.77975e-06
-2.3673e-07
1.42906e-06
-3.48865e-07
1.09832e-06
-4.33183e-07
7.84163e-07
-4.89519e-07
4.83114e-07
-5.17933e-07
1.9166e-07
-5.18641e-07
-9.3673e-08
-4.91981e-07
-3.76282e-07
-4.38407e-07
-6.59461e-07
-3.58509e-07
-9.46375e-07
-2.53062e-07
-1.24004e-06
-1.231e-07
-1.54328e-06
2.99825e-08
-1.85867e-06
2.04298e-07
-2.18846e-06
3.97301e-07
-2.53443e-06
6.05587e-07
-2.8977e-06
8.24663e-07
-3.27851e-06
1.04869e-06
-3.67581e-06
1.27023e-06
-4.08682e-06
1.47998e-06
-4.5064e-06
1.66664e-06
-4.92622e-06
1.81693e-06
-5.33372e-06
1.91592e-06
-5.71094e-06
1.94796e-06
-6.03308e-06
1.89831e-06
-6.26714e-06
1.75603e-06
-6.3708e-06
1.51803e-06
-6.29213e-06
1.19459e-06
-5.97096e-06
8.1533e-07
-5.34292e-06
4.34296e-07
-4.34707e-06
1.30752e-07
-2.93797e-06
-1.10539e-06
1.26279e-07
1.12639e-06
4.2737e-07
3.01566e-06
8.18379e-07
4.49725e-06
1.22409e-06
5.56979e-06
1.58849e-06
6.26439e-06
1.87688e-06
6.63128e-06
2.07347e-06
6.7297e-06
2.17687e-06
6.61973e-06
2.19525e-06
6.35663e-06
2.14206e-06
5.98782e-06
2.03285e-06
5.55188e-06
1.88309e-06
5.07873e-06
1.70698e-06
4.59062e-06
1.51675e-06
4.1033e-06
1.32253e-06
3.62733e-06
1.13242e-06
3.16921e-06
9.52688e-07
2.73239e-06
7.88049e-07
2.31807e-06
6.41961e-07
1.92584e-06
5.1687e-07
1.55415e-06
4.14438e-07
1.20075e-06
3.35724e-07
8.62877e-07
2.8133e-07
5.37508e-07
2.51507e-07
2.21482e-07
2.46227e-07
-8.83925e-08
2.65219e-07
-3.95275e-07
3.07987e-07
-7.02229e-07
3.73789e-07
-1.01218e-06
4.61598e-07
-1.32785e-06
5.70039e-07
-1.65172e-06
6.97292e-07
-1.98593e-06
8.4098e-07
-2.33215e-06
9.98033e-07
-2.69148e-06
1.16452e-06
-3.06419e-06
1.3355e-06
-3.44948e-06
1.50481e-06
-3.84512e-06
1.66495e-06
-4.24697e-06
1.80701e-06
-4.64846e-06
1.92065e-06
-5.03987e-06
1.99442e-06
-5.40749e-06
2.01624e-06
-5.73277e-06
1.97453e-06
-5.99137e-06
1.85981e-06
-6.15242e-06
1.6672e-06
-6.17819e-06
1.39962e-06
-6.02456e-06
1.07162e-06
-5.64296e-06
7.12962e-07
-4.98427e-06
3.70939e-07
-4.00505e-06
1.0918e-07
-2.67622e-06
-9.96212e-07
1.0817e-07
1.01822e-06
3.72728e-07
2.7511e-06
7.27531e-07
4.14244e-06
1.1115e-06
5.18582e-06
1.47599e-06
5.8999e-06
1.78751e-06
6.31975e-06
2.02726e-06
6.48996e-06
2.18861e-06
6.45838e-06
2.27392e-06
6.27131e-06
2.29134e-06
5.9704e-06
2.25213e-06
5.59109e-06
2.16867e-06
5.16219e-06
2.05313e-06
4.70616e-06
1.91664e-06
4.23979e-06
1.7689e-06
3.77506e-06
1.61807e-06
3.32004e-06
1.47076e-06
2.8797e-06
1.33221e-06
2.45662e-06
1.20646e-06
2.05159e-06
1.09652e-06
1.66409e-06
1.00461e-06
1.29267e-06
9.32233e-07
9.35254e-07
8.80368e-07
5.89373e-07
8.49543e-07
2.52307e-07
8.3991e-07
-7.87599e-08
8.51288e-07
-4.06652e-07
8.83176e-07
-7.34117e-07
9.34748e-07
-1.06375e-06
1.00482e-06
-1.39792e-06
1.09178e-06
-1.73869e-06
1.19355e-06
-2.0877e-06
1.30746e-06
-2.44606e-06
1.43014e-06
-2.81416e-06
1.55743e-06
-3.19148e-06
1.68425e-06
-3.5763e-06
1.8045e-06
-3.96537e-06
1.91104e-06
-4.35351e-06
1.9957e-06
-4.73312e-06
2.04946e-06
-5.09362e-06
2.06282e-06
-5.42084e-06
2.02645e-06
-5.69641e-06
1.93229e-06
-5.8972e-06
1.77496e-06
-5.9951e-06
1.55388e-06
-5.9571e-06
1.27556e-06
-5.74624e-06
9.56219e-07
-5.32362e-06
6.23822e-07
-4.65187e-06
3.18796e-07
-3.70003e-06
9.22538e-08
-2.44967e-06
-9.03958e-07
9.32134e-08
9.2501e-07
3.25726e-07
2.51859e-06
6.45314e-07
3.82285e-06
1.0023e-06
4.82884e-06
1.35508e-06
5.54712e-06
1.6728e-06
6.00203e-06
1.9358e-06
6.22696e-06
2.13441e-06
6.25977e-06
2.26694e-06
6.13879e-06
2.33738e-06
5.89996e-06
2.3533e-06
5.57517e-06
2.32414e-06
5.19135e-06
2.25991e-06
4.7704e-06
2.17031e-06
4.32939e-06
2.06424e-06
3.88114e-06
1.94946e-06
3.43481e-06
1.83259e-06
2.99658e-06
1.71904e-06
2.57017e-06
1.61317e-06
2.15747e-06
1.51835e-06
1.7589e-06
1.43717e-06
1.37385e-06
1.37148e-06
1.00095e-06
1.32254e-06
6.38306e-07
1.29113e-06
2.8372e-07
1.27756e-06
-6.51848e-08
1.28174e-06
-4.10832e-07
1.3032e-06
-7.55585e-07
1.34111e-06
-1.10165e-06
1.39419e-06
-1.451e-06
1.46074e-06
-1.80524e-06
1.53854e-06
-2.1655e-06
1.62479e-06
-2.53231e-06
1.71606e-06
-2.90543e-06
1.80816e-06
-3.28359e-06
1.89616e-06
-3.66429e-06
1.97427e-06
-4.04349e-06
2.03597e-06
-4.4152e-06
2.07403e-06
-4.77118e-06
2.08084e-06
-5.10044e-06
2.04881e-06
-5.38881e-06
1.97102e-06
-5.61862e-06
1.84224e-06
-5.76842e-06
1.66016e-06
-5.81302e-06
1.42696e-06
-5.7239e-06
1.15108e-06
-5.47035e-06
8.4879e-07
-5.02133e-06
5.45336e-07
-4.34842e-06
2.74847e-07
-3.42954e-06
7.85018e-08
-2.25333e-06
-8.25456e-07
8.05069e-08
8.44503e-07
2.84497e-07
2.3146e-06
5.7031e-07
3.53704e-06
8.97447e-07
4.5017e-06
1.23067e-06
5.21389e-06
1.54237e-06
5.69033e-06
1.81337e-06
5.95596e-06
2.03252e-06
6.04062e-06
2.1955e-06
5.97581e-06
2.30323e-06
5.79223e-06
2.36031e-06
5.51809e-06
2.37356e-06
5.1781e-06
2.35091e-06
4.79305e-06
2.30051e-06
4.37978e-06
2.23023e-06
3.95142e-06
2.1472e-06
3.51784e-06
2.05772e-06
3.08606e-06
1.96712e-06
2.66076e-06
1.87985e-06
2.24474e-06
1.79945e-06
1.8393e-06
1.7287e-06
1.44459e-06
1.6697e-06
1.05995e-06
1.62393e-06
6.84084e-07
1.59231e-06
3.15334e-07
1.57532e-06
-4.81961e-08
1.57298e-06
-4.08488e-07
1.58488e-06
-7.67482e-07
1.61019e-06
-1.12697e-06
1.64767e-06
-1.48848e-06
1.69559e-06
-1.85315e-06
1.75172e-06
-2.22163e-06
1.81331e-06
-2.5939e-06
1.87698e-06
-2.9691e-06
1.93875e-06
-3.34535e-06
1.99396e-06
-3.71951e-06
2.03735e-06
-4.08688e-06
2.06312e-06
-4.44097e-06
2.06509e-06
-4.77315e-06
2.037e-06
-5.07235e-06
1.97296e-06
-5.32477e-06
1.86807e-06
-5.51373e-06
1.71925e-06
-5.61961e-06
1.52631e-06
-5.62008e-06
1.29312e-06
-5.49071e-06
1.02882e-06
-5.20605e-06
7.48828e-07
-4.74134e-06
4.75356e-07
-4.07495e-06
2.3698e-07
-3.19116e-06
6.69919e-08
-2.08334e-06
-7.58464e-07
6.94679e-08
7.75035e-07
2.47746e-07
2.13632e-06
5.0137e-07
3.28342e-06
7.97267e-07
4.2058e-06
1.10581e-06
4.90535e-06
1.40276e-06
5.39337e-06
1.67023e-06
5.68849e-06
1.89666e-06
5.81419e-06
2.0762e-06
5.79627e-06
2.20765e-06
5.66078e-06
2.2933e-06
5.43244e-06
2.33779e-06
5.13361e-06
2.34716e-06
4.78368e-06
2.32809e-06
4.39886e-06
2.28726e-06
3.99225e-06
2.23105e-06
3.57405e-06
2.16525e-06
3.15186e-06
2.09492e-06
2.7311e-06
2.02437e-06
2.31529e-06
1.95717e-06
1.9065e-06
1.89618e-06
1.50558e-06
1.8436e-06
1.11253e-06
1.80103e-06
7.26652e-07
1.76955e-06
3.46817e-07
1.74973e-06
-2.83771e-08
1.74169e-06
-4.00451e-07
1.74512e-06
-7.70908e-07
1.75926e-06
-1.14111e-06
1.78291e-06
-1.51213e-06
1.81444e-06
-1.88468e-06
1.85172e-06
-2.25891e-06
1.89211e-06
-2.63429e-06
1.93245e-06
-3.00945e-06
1.96906e-06
-3.38196e-06
1.99773e-06
-3.74817e-06
2.01377e-06
-4.10292e-06
2.01218e-06
-4.43938e-06
1.98778e-06
-4.74876e-06
1.93556e-06
-5.02013e-06
1.85107e-06
-5.24027e-06
1.73097e-06
-5.39364e-06
1.5738e-06
-5.46243e-06
1.38071e-06
-5.427e-06
1.15643e-06
-5.26643e-06
9.10018e-07
-4.95964e-06
6.55542e-07
-4.48687e-06
4.12181e-07
-3.83159e-06
2.03715e-07
-2.98269e-06
5.71147e-08
-1.93674e-06
-7.0135e-07
5.97073e-08
7.15328e-07
2.14564e-07
1.98146e-06
4.37592e-07
3.06039e-06
7.01785e-07
3.94161e-06
9.82385e-07
4.62475e-06
1.25846e-06
5.11729e-06
1.51382e-06
5.43314e-06
1.7372e-06
5.5908e-06
1.92205e-06
5.61142e-06
2.0658e-06
5.51704e-06
2.16903e-06
5.32921e-06
2.23468e-06
5.06797e-06
2.26716e-06
4.7512e-06
2.27174e-06
4.39427e-06
2.25402e-06
4.00997e-06
2.21949e-06
3.60857e-06
2.17333e-06
3.19803e-06
2.12019e-06
2.78424e-06
2.06413e-06
2.37135e-06
2.00858e-06
1.96204e-06
1.95637e-06
1.5578e-06
1.90971e-06
1.15919e-06
1.87026e-06
7.66102e-07
1.83917e-06
3.77907e-07
1.8171e-06
-6.31178e-09
1.80427e-06
-3.87622e-07
1.80045e-06
-7.67091e-07
1.805e-06
-1.14565e-06
1.81683e-06
-1.52396e-06
1.83444e-06
-1.90229e-06
1.85587e-06
-2.28034e-06
1.87872e-06
-2.65714e-06
1.90011e-06
-3.03085e-06
1.91675e-06
-3.3986e-06
1.92492e-06
-3.75634e-06
1.92058e-06
-4.09858e-06
1.89948e-06
-4.41829e-06
1.85741e-06
-4.70668e-06
1.7904e-06
-4.95312e-06
1.69519e-06
-5.14506e-06
1.56964e-06
-5.26808e-06
1.41335e-06
-5.30614e-06
1.22826e-06
-5.24191e-06
1.01936e-06
-5.05752e-06
7.95153e-07
-4.73544e-06
5.68092e-07
-4.25981e-06
3.54488e-07
-3.61798e-06
1.73995e-07
-2.8022e-06
4.84581e-08
-1.8112e-06
-6.52891e-07
5.09561e-08
6.64372e-07
1.84293e-07
1.84813e-06
3.78266e-07
2.86642e-06
6.1088e-07
3.709e-06
8.61596e-07
4.37404e-06
1.11258e-06
4.86631e-06
1.34953e-06
5.1962e-06
1.56196e-06
5.37837e-06
1.74316e-06
5.43021e-06
1.8898e-06
5.3704e-06
2.00131e-06
5.2177e-06
2.07929e-06
4.98999e-06
2.12683e-06
4.70366e-06
2.14798e-06
4.37311e-06
2.14729e-06
4.01067e-06
2.12939e-06
3.62647e-06
2.09878e-06
3.22864e-06
2.05961e-06
2.8234e-06
2.01561e-06
2.41536e-06
1.96996e-06
2.00768e-06
1.92536e-06
1.6024e-06
1.88396e-06
1.2006e-06
1.84741e-06
8.02649e-07
1.8169e-06
4.08425e-07
1.79313e-06
1.74558e-08
1.7764e-06
-3.70896e-07
1.7666e-06
-7.57285e-07
1.76318e-06
-1.14224e-06
1.76524e-06
-1.52602e-06
1.77143e-06
-1.90849e-06
1.78005e-06
-2.28895e-06
1.78895e-06
-2.66604e-06
1.79563e-06
-3.03753e-06
1.7972e-06
-3.40018e-06
1.7905e-06
-3.74963e-06
1.77209e-06
-4.08017e-06
1.73848e-06
-4.38468e-06
1.68627e-06
-4.65447e-06
1.6124e-06
-4.87925e-06
1.51451e-06
-5.04717e-06
1.39133e-06
-5.1449e-06
1.24312e-06
-5.15793e-06
1.07219e-06
-5.07098e-06
8.83352e-07
-4.86868e-06
6.84272e-07
-4.53636e-06
4.85679e-07
-4.06121e-06
3.01236e-07
-3.43354e-06
1.47046e-07
-2.64801e-06
4.07336e-08
-1.70489e-06
-6.12158e-07
4.30206e-08
6.21351e-07
1.56444e-07
1.7347e-06
3.22821e-07
2.70004e-06
5.24346e-07
3.50747e-06
7.4414e-07
4.15424e-06
9.67233e-07
4.64321e-06
1.18125e-06
4.98218e-06
1.37676e-06
5.18286e-06
1.54734e-06
5.25964e-06
1.6893e-06
5.22844e-06
1.80136e-06
5.10564e-06
1.88415e-06
4.90721e-06
1.93972e-06
4.64809e-06
1.97109e-06
4.34174e-06
1.98185e-06
3.99991e-06
1.97582e-06
3.6325e-06
1.95682e-06
3.24764e-06
1.92847e-06
2.85176e-06
1.89405e-06
2.44977e-06
1.85649e-06
2.04525e-06
1.81824e-06
1.64064e-06
1.78135e-06
1.23749e-06
1.7474e-06
8.366e-07
1.71755e-06
4.38274e-07
1.69256e-06
4.24505e-08
1.67277e-06
-3.51113e-07
1.65818e-06
-7.42691e-07
1.64838e-06
-1.13244e-06
1.64264e-06
-1.52027e-06
1.63982e-06
-1.90567e-06
1.63848e-06
-2.28761e-06
1.63681e-06
-2.66437e-06
1.63268e-06
-3.03339e-06
1.62366e-06
-3.39116e-06
1.6071e-06
-3.73307e-06
1.58019e-06
-4.05326e-06
1.54009e-06
-4.34459e-06
1.48413e-06
-4.5985e-06
1.40996e-06
-4.80509e-06
1.31593e-06
-4.95314e-06
1.20132e-06
-5.03029e-06
1.06676e-06
-5.02337e-06
9.14591e-07
-4.91882e-06
7.49176e-07
-4.70326e-06
5.77161e-07
-4.36434e-06
4.07556e-07
-3.89161e-06
2.5159e-07
-3.27757e-06
1.22284e-07
-2.5187e-06
3.37307e-08
-1.61634e-06
-5.78427e-07
3.5754e-08
5.85597e-07
1.3063e-07
1.63983e-06
2.70765e-07
2.5599e-06
4.41905e-07
3.33633e-06
6.30365e-07
3.96578e-06
8.23788e-07
4.44979e-06
1.01171e-06
4.79426e-06
1.18592e-06
5.00865e-06
1.34051e-06
5.10505e-06
1.47182e-06
5.09713e-06
1.57817e-06
4.99929e-06
1.65953e-06
4.82584e-06
1.71716e-06
4.59046e-06
1.75323e-06
4.30567e-06
1.7705e-06
3.98263e-06
1.77205e-06
3.63095e-06
1.76102e-06
3.25866e-06
1.74049e-06
2.87229e-06
1.71331e-06
2.47696e-06
1.68203e-06
2.07653e-06
1.64887e-06
1.6738e-06
1.61569e-06
1.27067e-06
1.58397e-06
8.68323e-07
1.55482e-06
4.67427e-07
1.52899e-06
6.82798e-08
1.50689e-06
-3.29016e-07
1.4886e-06
-7.24401e-07
1.47387e-06
-1.11771e-06
1.46212e-06
-1.50852e-06
1.45248e-06
-1.89604e-06
1.44379e-06
-2.27892e-06
1.43456e-06
-2.65514e-06
1.42308e-06
-3.02191e-06
1.40737e-06
-3.37546e-06
1.38531e-06
-3.711e-06
1.35463e-06
-4.02259e-06
1.3131e-06
-4.30306e-06
1.25865e-06
-4.54404e-06
1.18952e-06
-4.73596e-06
1.10454e-06
-4.86815e-06
1.00334e-06
-4.9291e-06
8.86689e-07
-4.90672e-06
7.56696e-07
-4.78882e-06
6.17105e-07
-4.56367e-06
4.73436e-07
-4.22067e-06
3.33018e-07
-3.75119e-06
2.04848e-07
-3.1494e-06
9.92443e-08
-2.4131e-06
2.72883e-08
-1.54438e-06
-5.51139e-07
2.90384e-08
5.56558e-07
1.06528e-07
1.56234e-06
2.21654e-07
2.44478e-06
3.63217e-07
3.19477e-06
5.20341e-07
3.80866e-06
6.83058e-07
4.28707e-06
8.42758e-07
4.63456e-06
9.92492e-07
4.85892e-06
1.12709e-06
4.97045e-06
1.24314e-06
4.98108e-06
1.33883e-06
4.9036e-06
1.41371e-06
4.75096e-06
1.46846e-06
4.53571e-06
1.50458e-06
4.26955e-06
1.52413e-06
3.96309e-06
1.5295e-06
3.62558e-06
1.52323e-06
3.26493e-06
1.50784e-06
2.88768e-06
1.48572e-06
2.49908e-06
1.45906e-06
2.10319e-06
1.42978e-06
1.70307e-06
1.39953e-06
1.30092e-06
1.36965e-06
8.98209e-07
1.34116e-06
4.95916e-07
1.3148e-06
9.46377e-08
1.29102e-06
-3.05234e-07
1.26997e-06
-7.03355e-07
1.25155e-06
-1.09929e-06
1.23538e-06
-1.49235e-06
1.22083e-06
-1.88149e-06
1.20702e-06
-2.2651e-06
1.19283e-06
-2.64096e-06
1.17695e-06
-3.00602e-06
1.15785e-06
-3.35636e-06
1.13388e-06
-3.68704e-06
1.10334e-06
-3.99204e-06
1.0645e-06
-4.26422e-06
1.01579e-06
-4.49534e-06
9.55919e-07
-4.67609e-06
8.8405e-07
-4.79628e-06
7.99997e-07
-4.84505e-06
7.04443e-07
-4.81117e-06
5.99137e-07
-4.68352e-06
4.87071e-07
-4.4516e-06
3.72587e-07
-4.10619e-06
2.61382e-07
-3.63999e-06
1.60398e-07
-3.04842e-06
7.75432e-08
-2.33025e-06
2.1277e-08
-1.48812e-06
-5.29862e-07
2.27737e-08
5.33785e-07
8.38529e-08
1.50126e-06
1.75063e-07
2.35357e-06
2.87872e-07
3.08196e-06
4.13912e-07
3.68262e-06
5.45401e-07
4.15558e-06
6.75502e-07
4.50446e-06
7.98566e-07
4.73585e-06
9.10265e-07
4.85875e-06
1.0076e-06
4.88375e-06
1.08881e-06
4.82239e-06
1.15326e-06
4.68651e-06
1.20119e-06
4.48777e-06
1.23358e-06
4.23716e-06
1.2519e-06
3.94477e-06
1.25795e-06
3.61953e-06
1.25369e-06
3.26919e-06
1.24112e-06
2.90025e-06
1.22218e-06
2.51802e-06
1.19866e-06
2.12671e-06
1.17218e-06
1.72955e-06
1.14414e-06
1.32896e-06
1.11571e-06
9.26641e-07
1.08781e-06
5.2381e-07
1.06115e-06
1.21297e-07
1.03619e-06
-2.80271e-07
1.01317e-06
-6.8033e-07
9.92104e-07
-1.07823e-06
9.72817e-07
-1.47307e-06
9.54921e-07
-1.86359e-06
9.37837e-07
-2.24802e-06
9.20805e-07
-2.62393e-06
9.029e-07
-2.98811e-06
8.8305e-07
-3.33651e-06
8.60077e-07
-3.66406e-06
8.3274e-07
-3.9647e-06
7.99805e-07
-4.23129e-06
7.60126e-07
-4.45566e-06
7.12758e-07
-4.62872e-06
6.57083e-07
-4.74061e-06
5.9296e-07
-4.78092e-06
5.20872e-07
-4.73908e-06
4.4208e-07
-4.60472e-06
3.58744e-07
-4.36827e-06
2.74002e-07
-4.02145e-06
1.91976e-07
-3.55796e-06
1.17683e-07
-2.97412e-06
5.68452e-08
-2.26941e-06
1.5587e-08
-1.44686e-06
-5.14275e-07
1.687e-08
5.16915e-07
6.23389e-08
1.45579e-06
1.30565e-07
2.28534e-06
2.15399e-07
2.99712e-06
3.10738e-07
3.58728e-06
4.10824e-07
4.0555e-06
5.10511e-07
4.40477e-06
6.05452e-07
4.64091e-06
6.92222e-07
4.77198e-06
7.6835e-07
4.80762e-06
8.32282e-07
4.75845e-06
8.83298e-07
4.6355e-06
9.21388e-07
4.44968e-06
9.4711e-07
4.21144e-06
9.61446e-07
3.93043e-06
9.65666e-07
3.61531e-06
9.61207e-07
3.27365e-06
9.49571e-07
2.91189e-06
9.32245e-07
2.53535e-06
9.10639e-07
2.14832e-06
8.86043e-07
1.75415e-06
8.59598e-07
1.3554e-06
8.32283e-07
9.53955e-07
8.04907e-07
5.51186e-07
7.78107e-07
1.48098e-07
7.52352e-07
-2.54516e-07
7.2795e-07
-6.55928e-07
7.05053e-07
-1.05533e-06
6.83664e-07
-1.45168e-06
6.6364e-07
-1.84357e-06
6.44704e-07
-2.22908e-06
6.26446e-07
-2.60567e-06
6.08335e-07
-2.97e-06
5.89732e-07
-3.31791e-06
5.69908e-07
-3.64424e-06
5.48075e-07
-3.94287e-06
5.23425e-07
-4.20664e-06
4.95184e-07
-4.42742e-06
4.62682e-07
-4.59622e-06
4.25437e-07
-4.70337e-06
3.83254e-07
-4.73874e-06
3.3633e-07
-4.69215e-06
2.85353e-07
-4.55375e-06
2.31602e-07
-4.31452e-06
1.76998e-07
-3.96684e-06
1.24124e-07
-3.50509e-06
7.61764e-08
-2.92618e-06
3.6846e-08
-2.23008e-06
1.01208e-08
-1.42013e-06
-5.04154e-07
1.12432e-08
5.05672e-07
4.17277e-08
1.42531e-06
8.77271e-08
2.23934e-06
1.45264e-07
2.93959e-06
2.10326e-07
3.52222e-06
2.79051e-07
3.98677e-06
3.47911e-07
4.33591e-06
4.13849e-07
4.57497e-06
4.74377e-07
4.71145e-06
5.27623e-07
4.75437e-06
5.7233e-07
4.71375e-06
6.07812e-07
4.60002e-06
6.3389e-07
4.4236e-06
6.50805e-07
4.19453e-06
6.59124e-07
3.92211e-06
6.5965e-07
3.61479e-06
6.53335e-07
3.27997e-06
6.41211e-07
2.92401e-06
6.24326e-07
2.55223e-06
6.03701e-07
2.16894e-06
5.80293e-07
1.77756e-06
5.54974e-07
1.38072e-06
5.28519e-07
9.80411e-07
5.01597e-07
5.78108e-07
4.74773e-07
1.74922e-07
4.48508e-07
-2.28251e-07
4.23167e-07
-6.30587e-07
3.9902e-07
-1.03118e-06
3.76251e-07
-1.42891e-06
3.54958e-07
-1.82228e-06
3.35158e-07
-2.20928e-06
3.1679e-07
-2.5873e-06
2.99713e-07
-2.95293e-06
2.83708e-07
-3.3019e-06
2.68487e-07
-3.62902e-06
2.53692e-07
-3.92807e-06
2.38916e-07
-4.19186e-06
2.23718e-07
-4.41222e-06
2.07656e-07
-4.58016e-06
1.90332e-07
-4.68604e-06
1.71437e-07
-4.71985e-06
1.5082e-07
-4.67154e-06
1.28552e-07
-4.53148e-06
1.0499e-07
-4.29095e-06
8.08325e-08
-3.94268e-06
5.71476e-08
-3.4814e-06
3.53715e-08
-2.9044e-06
1.72596e-08
-2.21197e-06
4.78868e-09
-1.40766e-06
-4.99365e-07
5.81156e-09
4.9986e-07
2.17633e-08
1.40935e-06
4.61012e-08
2.215e-06