/*--------------------------------*- C++ -*----------------------------------*\
  =========                 |
  \\      /  F ield         | OpenFOAM: The Open Source CFD Toolbox
   \\    /   O peration     | Website:  https://openfoam.org
    \\  /    A nd           | Version:  7
     \\/     M anipulation  |
\*---------------------------------------------------------------------------*/
FoamFile
{
    version     2.0;
    format      ascii;
    class       surfaceScalarField;
    location    "0.0432";
    object      phi;
}
// * * * * * * * * * * * * * * * * * * * * * * * * * * * * * * * * * * * * * //

dimensions      [0 3 -1 0 0 0 0];

internalField   nonuniform List<scalar> 
4900
(
-5.55571e-06
5.55568e-06
-1.01614e-05
4.60567e-06
-1.29489e-05
2.7875e-06
-1.46686e-05
1.71972e-06
-1.57703e-05
1.10172e-06
-1.65081e-05
7.37806e-07
-1.70275e-05
5.19338e-07
-1.74103e-05
3.82831e-07
-1.77033e-05
2.92966e-07
-1.7934e-05
2.30705e-07
-1.81196e-05
1.85613e-07
-1.82713e-05
1.51721e-07
-1.83967e-05
1.25444e-07
-1.85013e-05
1.0452e-07
-1.85887e-05
8.74614e-08
-1.8662e-05
7.32507e-08
-1.87231e-05
6.1169e-08
-1.87738e-05
5.06945e-08
-1.88153e-05
4.14386e-08
-1.88484e-05
3.3105e-08
-1.88738e-05
2.54625e-08
-1.88922e-05
1.83263e-08
-1.89037e-05
1.15441e-08
-1.89087e-05
4.98701e-09
-1.89072e-05
-1.45926e-09
-1.88993e-05
-7.89765e-09
-1.88849e-05
-1.44297e-08
-1.88638e-05
-2.11567e-08
-1.88356e-05
-2.81869e-08
-1.87999e-05
-3.56417e-08
-1.87563e-05
-4.3663e-08
-1.87038e-05
-5.24235e-08
-1.86417e-05
-6.21399e-08
-1.85686e-05
-7.30925e-08
-1.8483e-05
-8.56528e-08
-1.83826e-05
-1.00326e-07
-1.82648e-05
-1.17814e-07
-1.81257e-05
-1.39126e-07
-1.79599e-05
-1.65751e-07
-1.776e-05
-1.99975e-07
-1.75145e-05
-2.4545e-07
-1.72062e-05
-3.0826e-07
-1.68073e-05
-3.98985e-07
-1.62706e-05
-5.36656e-07
-1.55149e-05
-7.55738e-07
-1.4399e-05
-1.11589e-06
-1.26835e-05
-1.71546e-06
-9.94707e-06
-2.73645e-06
-5.45282e-06
-4.49426e-06
-5.45282e-06
-1.19403e-08
5.56762e-06
-2.13006e-06
6.72379e-06
-4.85597e-06
5.51341e-06
-7.27127e-06
4.13502e-06
-9.20696e-06
3.03741e-06
-1.07159e-05
2.24669e-06
-1.18913e-05
1.6948e-06
-1.28164e-05
1.30796e-06
-1.35547e-05
1.03123e-06
-1.41521e-05
8.28123e-07
-1.46416e-05
6.75088e-07
-1.50467e-05
5.56845e-07
-1.53846e-05
4.63324e-07
-1.56678e-05
3.87736e-07
-1.59057e-05
3.2539e-07
-1.61055e-05
2.72964e-07
-1.62723e-05
2.28052e-07
-1.64105e-05
1.8887e-07
-1.65232e-05
1.5407e-07
-1.66127e-05
1.22612e-07
-1.66809e-05
9.36757e-08
-1.67291e-05
6.65971e-08
-1.67584e-05
4.0828e-08
-1.67693e-05
1.58995e-08
-1.67622e-05
-8.60171e-09
-1.6737e-05
-3.30573e-08
-1.66936e-05
-5.78333e-08
-1.66315e-05
-8.33003e-08
-1.65498e-05
-1.09851e-07
-1.64475e-05
-1.37923e-07
-1.63232e-05
-1.68022e-07
-1.61748e-05
-2.0076e-07
-1.60001e-05
-2.36895e-07
-1.57958e-05
-2.77393e-07
-1.55579e-05
-3.23518e-07
-1.52813e-05
-3.76952e-07
-1.49591e-05
-4.39988e-07
-1.45824e-05
-5.1581e-07
-1.41393e-05
-6.08937e-07
-1.36133e-05
-7.25927e-07
-1.29823e-05
-8.765e-07
-1.22152e-05
-1.07533e-06
-1.12693e-05
-1.34483e-06
-1.00868e-05
-1.71919e-06
-8.59366e-06
-2.24888e-06
-6.70988e-06
-2.99967e-06
-4.396e-06
-4.02935e-06
-1.82049e-06
-5.31195e-06
1.23589e-07
-6.43834e-06
-5.32923e-06
1.0329e-06
4.53473e-06
5.49068e-07
7.20762e-06
-9.87202e-07
7.04968e-06
-2.87858e-06
6.0264e-06
-4.73142e-06
4.89025e-06
-6.3854e-06
3.90067e-06
-7.80126e-06
3.11066e-06
-8.99222e-06
2.49893e-06
-9.9888e-06
2.0278e-06
-1.08233e-05
1.66261e-06
-1.15242e-05
1.37603e-06
-1.21151e-05
1.14773e-06
-1.26147e-05
9.62885e-07
-1.30377e-05
8.10737e-07
-1.33957e-05
6.83415e-07
-1.36978e-05
5.75096e-07
-1.39512e-05
4.81418e-07
-1.41614e-05
3.99064e-07
-1.43328e-05
3.25467e-07
-1.44688e-05
2.58612e-07
-1.4572e-05
1.96888e-07
-1.46444e-05
1.38974e-07
-1.46873e-05
8.37694e-08
-1.47018e-05
3.03261e-08
-1.46882e-05
-2.21964e-08
-1.46466e-05
-7.4574e-08
-1.45769e-05
-1.27552e-07
-1.44783e-05
-1.81879e-07
-1.43498e-05
-2.38345e-07
-1.419e-05
-2.9782e-07
-1.39967e-05
-3.61297e-07
-1.37675e-05
-4.29962e-07
-1.34991e-05
-5.05258e-07
-1.31875e-05
-5.88995e-07
-1.28275e-05
-6.83489e-07
-1.24127e-05
-7.9175e-07
-1.1935e-05
-9.17754e-07
-1.1384e-05
-1.06683e-06
-1.07467e-05
-1.24617e-06
-1.0007e-05
-1.46564e-06
-9.14478e-06
-1.73872e-06
-8.13634e-06
-2.08378e-06
-6.95599e-06
-2.52517e-06
-5.5819e-06
-3.09329e-06
-4.01068e-06
-3.8201e-06
-2.28913e-06
-4.72122e-06
-5.74653e-07
-5.74382e-06
7.65177e-07
-6.65178e-06
1.08706e-06
-6.76022e-06
-4.24217e-06
9.07162e-07
3.62756e-06
1.2319e-06
6.88288e-06
6.50839e-07
7.63074e-06
-5.10278e-07
7.18752e-06
-1.92273e-06
6.3027e-06
-3.36848e-06
5.34643e-06
-4.7308e-06
4.47298e-06
-5.96012e-06
3.72825e-06
-7.0441e-06
3.11178e-06
-7.98829e-06
2.60681e-06
-8.80549e-06
2.19323e-06
-9.51031e-06
1.85255e-06
-1.01168e-05
1.56933e-06
-1.06372e-05
1.33123e-06
-1.10824e-05
1.12855e-06
-1.1461e-05
9.53716e-07
-1.17804e-05
8.0079e-07
-1.20464e-05
6.65102e-07
-1.22639e-05
5.42938e-07
-1.24366e-05
4.31313e-07
-1.25675e-05
3.27789e-07
-1.26589e-05
2.30345e-07
-1.27124e-05
1.37268e-07
-1.27291e-05
4.70738e-08
-1.27097e-05
-4.15636e-08
-1.26544e-05
-1.29868e-07
-1.2563e-05
-2.19015e-07
-1.24347e-05
-3.10177e-07
-1.22685e-05
-4.04578e-07
-1.20627e-05
-5.03548e-07
-1.18154e-05
-6.08588e-07
-1.15239e-05
-7.21447e-07
-1.1185e-05
-8.44217e-07
-1.07945e-05
-9.79461e-07
-1.03476e-05
-1.13037e-06
-9.83844e-06
-1.30095e-06
-9.25987e-06
-1.49633e-06
-8.60366e-06
-1.72303e-06
-7.86044e-06
-1.9894e-06
-7.02006e-06
-2.30602e-06
-6.0728e-06
-2.68598e-06
-5.01181e-06
-3.14477e-06
-3.83818e-06
-3.69881e-06
-2.57058e-06
-4.36088e-06
-1.26202e-06
-5.12866e-06
-2.4874e-08
-5.95836e-06
9.42553e-07
-6.71125e-06
1.3486e-06
-7.05783e-06
9.16568e-07
-6.32819e-06
-3.3256e-06
6.72972e-07
2.95459e-06
1.24818e-06
6.30767e-06
1.23332e-06
7.6456e-06
6.68937e-07
7.7519e-06
-2.57762e-07
7.2294e-06
-1.3647e-06
6.45337e-06
-2.51982e-06
5.6281e-06
-3.64206e-06
4.85049e-06
-4.68822e-06
4.15794e-06
-5.63924e-06
3.55783e-06
-6.49011e-06
3.0441e-06
-7.24327e-06
2.60571e-06
-7.90468e-06
2.23074e-06
-8.48157e-06
1.90811e-06
-8.98124e-06
1.62822e-06
-9.41051e-06
1.38299e-06
-9.77543e-06
1.16571e-06
-1.00812e-05
9.70889e-07
-1.03323e-05
7.93985e-07
-1.05322e-05
6.31245e-07
-1.06839e-05
4.79531e-07
-1.07898e-05
3.3619e-07
-1.08515e-05
1.98939e-07
-1.08702e-05
6.57798e-08
-1.08466e-05
-6.50874e-08
-1.07812e-05
-1.95327e-07
-1.06737e-05
-3.2653e-07
-1.05236e-05
-4.60278e-07
-1.03299e-05
-5.98199e-07
-1.00915e-05
-7.42031e-07
-9.80634e-06
-8.93702e-07
-9.47238e-06
-1.0554e-06
-9.0869e-06
-1.2297e-06
-8.64675e-06
-1.41962e-06
-8.14828e-06
-1.62883e-06
-7.58747e-06
-1.86177e-06
-6.95999e-06
-2.1238e-06
-6.26162e-06
-2.4214e-06
-5.48882e-06
-2.76221e-06
-4.63993e-06
-3.1549e-06
-3.71728e-06
-3.60864e-06
-2.73061e-06
-4.13144e-06
-1.70275e-06
-4.72666e-06
-6.77892e-07
-5.38574e-06
2.67625e-07
-6.07417e-06
1.01577e-06
-6.70651e-06
1.41e-06
-7.10547e-06
1.29765e-06
-6.94548e-06
6.66469e-07
-5.69701e-06
-2.65914e-06
4.81939e-07
2.47265e-06
1.0818e-06
5.70781e-06
1.35334e-06
7.37406e-06
1.19581e-06
7.90944e-06
6.76503e-07
7.7487e-06
-8.63142e-08
7.21618e-06
-9.80966e-07
6.52275e-06
-1.92245e-06
5.79198e-06
-2.85354e-06
5.08902e-06
-3.73928e-06
4.44357e-06
-4.56048e-06
3.8653e-06
-5.30822e-06
3.35345e-06
-5.97988e-06
2.90239e-06
-6.57642e-06
2.50465e-06
-7.10071e-06
2.15252e-06
-7.55646e-06
1.83873e-06
-7.94755e-06
1.55681e-06
-8.27775e-06
1.30109e-06
-8.55047e-06
1.0667e-06
-8.76867e-06
8.4945e-07
-8.93489e-06
6.45745e-07
-9.05116e-06
4.52466e-07
-9.11911e-06
2.66884e-07
-9.1399e-06
8.65749e-08
-9.11433e-06
-9.06593e-08
-9.0428e-06
-2.66858e-07
-8.92536e-06
-4.43967e-07
-8.76174e-06
-6.23901e-07
-8.55133e-06
-8.08604e-07
-8.29325e-06
-1.00011e-06
-7.98631e-06
-1.20064e-06
-7.62911e-06
-1.41261e-06
-7.22001e-06
-1.6388e-06
-6.75728e-06
-1.88235e-06
-6.2392e-06
-2.14691e-06
-5.6643e-06
-2.43667e-06
-5.03173e-06
-2.75637e-06
-4.34187e-06
-3.11126e-06
-3.59731e-06
-3.50677e-06
-2.80432e-06
-3.9479e-06
-1.97507e-06
-4.43788e-06
-1.13091e-06
-4.9756e-06
-3.06498e-07
-5.55108e-06
4.45338e-07
-6.13757e-06
1.05006e-06
-6.6789e-06
1.41392e-06
-7.07037e-06
1.44255e-06
-7.13411e-06
1.0916e-06
-6.59453e-06
4.70025e-07
-5.07543e-06
-2.18911e-06
3.49846e-07
2.12281e-06
8.9742e-07
5.16024e-06
1.29106e-06
6.98042e-06
1.38297e-06
7.81752e-06
1.16512e-06
7.96655e-06
6.97139e-07
7.68416e-06
5.78513e-08
7.16203e-06
-6.79759e-07
6.52959e-06
-1.45797e-06
5.86723e-06
-2.23523e-06
5.22084e-06
-2.98381e-06
4.61387e-06
-3.68638e-06
4.05603e-06
-4.33306e-06
3.54907e-06
-4.91893e-06
3.09052e-06
-5.44225e-06
2.67584e-06
-5.90322e-06
2.2997e-06
-6.30312e-06
1.95671e-06
-6.6438e-06
1.64177e-06
-6.92727e-06
1.35017e-06
-7.15553e-06
1.07771e-06
-7.3304e-06
8.20621e-07
-7.4535e-06
5.75561e-07
-7.52614e-06
3.3953e-07
-7.54939e-06
1.09824e-07
-7.52402e-06
-1.16035e-07
-7.45052e-06
-3.4035e-07
-7.32918e-06
-5.65317e-07
-7.16001e-06
-7.9307e-07
-6.94287e-06
-1.02575e-06
-6.67745e-06
-1.26553e-06
-6.36336e-06
-1.51473e-06
-6.00018e-06
-1.77579e-06
-5.58758e-06
-2.05139e-06
-5.1255e-06
-2.34443e-06
-4.61434e-06
-2.65807e-06
-4.05532e-06
-2.99568e-06
-3.45101e-06
-3.36069e-06
-2.80598e-06
-3.75628e-06
-2.12791e-06
-4.18484e-06
-1.42892e-06
-4.6469e-06
-7.27423e-07
-5.13938e-06
-5.0358e-08
-5.65267e-06
5.64605e-07
-6.16604e-06
1.06774e-06
-6.64071e-06
1.39897e-06
-7.01013e-06
1.4965e-06
-7.1679e-06
1.31843e-06
-6.95603e-06
8.84008e-07
-6.16011e-06
3.36276e-07
-4.5277e-06
-1.85283e-06
2.62687e-07
1.86012e-06
7.40194e-07
4.68273e-06
1.1696e-06
6.55101e-06
1.4023e-06
7.58482e-06
1.39148e-06
7.97737e-06
1.1542e-06
7.92144e-06
7.37609e-07
7.57863e-06
1.96407e-07
7.07079e-06
-4.19118e-07
6.48275e-06
-1.06795e-06
5.86967e-06
-1.71909e-06
5.26501e-06
-2.35043e-06
4.68737e-06
-2.94698e-06
4.14563e-06
-3.49914e-06
3.64268e-06
-4.00111e-06
3.17781e-06
-4.44978e-06
2.74836e-06
-4.84378e-06
2.35072e-06
-5.1829e-06
1.98088e-06
-5.46757e-06
1.63484e-06
-5.69861e-06
1.30875e-06
-5.87699e-06
9.99005e-07
-6.00372e-06
7.02284e-07
-6.07972e-06
4.15533e-07
-6.10584e-06
1.35941e-07
-6.08277e-06
-1.39096e-07
-6.01111e-06
-4.1201e-07
-5.89132e-06
-6.8511e-07
-5.72377e-06
-9.6062e-07
-5.5088e-06
-1.24072e-06
-5.24675e-06
-1.52758e-06
-4.93807e-06
-1.82341e-06
-4.58341e-06
-2.13045e-06
-4.18377e-06
-2.45103e-06
-3.74072e-06
-2.78748e-06
-3.25668e-06
-3.14211e-06
-2.7353e-06
-3.51706e-06
-2.18197e-06
-3.91402e-06
-1.60452e-06
-4.33373e-06
-1.0141e-06
-4.77526e-06
-4.26229e-07
-5.23477e-06
1.38002e-07
-5.70361e-06
6.50865e-07
-6.16553e-06
1.07754e-06
-6.59272e-06
1.37727e-06
-6.94044e-06
1.50778e-06
-7.14064e-06
1.43546e-06
-7.09558e-06
1.15397e-06
-6.67454e-06
7.12446e-07
-5.71859e-06
2.48361e-07
-4.06361e-06
-1.60447e-06
2.04534e-07
1.65559e-06
6.15572e-07
4.27169e-06
1.03926e-06
6.12733e-06
1.34407e-06
7.28001e-06
1.46784e-06
7.8536e-06
1.40098e-06
7.98831e-06
1.16547e-06
7.81413e-06
7.97761e-07
7.4385e-06
3.37303e-07
6.94321e-06
-1.79693e-07
6.38667e-06
-7.22975e-07
5.80829e-06
-1.2688e-06
5.23319e-06
-1.7994e-06
4.67623e-06
-2.30198e-06
4.14525e-06
-2.76767e-06
3.6435e-06
-3.19059e-06
3.17128e-06
-3.567e-06
2.72713e-06
-3.89472e-06
2.3086e-06
-4.17262e-06
1.91274e-06
-4.40029e-06
1.53642e-06
-4.57777e-06
1.17648e-06
-4.70536e-06
8.29879e-07
-4.78355e-06
4.93721e-07
-4.81288e-06
1.65273e-07
-4.79395e-06
-1.58027e-07
-4.72737e-06
-4.78591e-07
-4.61378e-06
-7.98699e-07
-4.45389e-06
-1.12052e-06
-4.24849e-06
-1.44612e-06
-3.99856e-06
-1.7775e-06
-3.70536e-06
-2.11661e-06
-3.37053e-06
-2.46528e-06
-2.9963e-06
-2.82526e-06
-2.58566e-06
-3.19811e-06
-2.14273e-06
-3.58505e-06
-1.67302e-06
-3.98677e-06
-1.18401e-06
-4.40303e-06
-6.85593e-07
-4.83214e-06
-1.9079e-07
-5.27006e-06
2.8364e-07
-5.7092e-06
7.16667e-07
-6.13664e-06
1.08287e-06
-6.53173e-06
1.35321e-06
-6.86306e-06
1.49751e-06
-7.08474e-06
1.48967e-06
-7.1328e-06
1.3169e-06
-6.92282e-06
9.93552e-07
-6.35119e-06
5.78418e-07
-5.30345e-06
1.89647e-07
-3.67484e-06
-1.41483e-06
1.64422e-07
1.49116e-06
5.18427e-07
3.91769e-06
9.18308e-07
5.72745e-06
1.25387e-06
6.94445e-06
1.46061e-06
7.64685e-06
1.51429e-06
7.93463e-06
1.41919e-06
7.90923e-06
1.19631e-06
7.66139e-06
8.7397e-07
7.26555e-06
4.81619e-07
6.77902e-06
4.62884e-08
6.24363e-06
-4.09008e-07
5.68849e-06
-8.65669e-07
5.13289e-06
-1.30924e-06
4.58883e-06
-1.72886e-06
4.06312e-06
-2.11659e-06
3.559e-06
-2.46679e-06
3.07733e-06
-2.77559e-06
2.61741e-06
-3.04045e-06
2.17761e-06
-3.2598e-06
1.75576e-06
-3.43274e-06
1.34942e-06
-3.5589e-06
9.56038e-07
-3.63825e-06
5.73067e-07
-3.67101e-06
1.98039e-07
-3.65763e-06
-1.71409e-07
-3.5987e-06
-5.37518e-07
-3.49501e-06
-9.02393e-07
-3.34752e-06
-1.26801e-06
-3.15744e-06
-1.63619e-06
-2.92631e-06
-2.00864e-06
-2.65607e-06
-2.38685e-06
-2.34922e-06
-2.77214e-06
-2.00896e-06
-3.16552e-06
-1.63945e-06
-3.56762e-06
-1.246e-06
-3.97849e-06
-8.35464e-07
-4.39731e-06
-4.16514e-07
-4.82198e-06
-7.92494e-11
-5.24858e-06
4.00313e-07
-5.67045e-06
7.68273e-07
-6.07716e-06
1.08456e-06
-6.45292e-06
1.32762e-06
-6.77479e-06
1.47504e-06
-7.01048e-06
1.50645e-06
-7.11614e-06
1.40843e-06
-7.03478e-06
1.18187e-06
-6.69625e-06
8.5135e-07
-6.02066e-06
4.74849e-07
-4.92695e-06
1.4908e-07
-3.34907e-06
-1.26575e-06
1.35631e-07
1.35553e-06
4.42213e-07
3.61111e-06
8.1168e-07
5.35798e-06
1.15384e-06
6.6023e-06
1.40814e-06
7.39254e-06
1.5437e-06
7.79907e-06
1.55344e-06
7.8995e-06
1.44655e-06
7.76827e-06
1.24151e-06
7.47059e-06
9.6067e-07
7.05987e-06
6.26629e-07
6.57767e-06
2.60179e-07
6.05494e-06
-1.2072e-07
5.51379e-06
-5.01222e-07
4.96933e-06
-8.69457e-07
4.43136e-06
-1.21621e-06
3.90575e-06
-1.53447e-06
3.3956e-06
-1.81909e-06
2.90202e-06
-2.06634e-06
2.42485e-06
-2.27362e-06
1.96304e-06
-2.43922e-06
1.51502e-06
-2.56208e-06
1.07891e-06
-2.64171e-06
6.52688e-07
-2.67797e-06
2.34308e-07
-2.67113e-06
-1.78252e-07
-2.62173e-06
-5.86921e-07
-2.53062e-06
-9.93506e-07
-2.39896e-06
-1.39966e-06
-2.22831e-06
-1.80685e-06
-2.0206e-06
-2.21634e-06
-1.77834e-06
-2.62911e-06
-1.50466e-06
-3.04581e-06
-1.20351e-06
-3.46668e-06
-8.79792e-07
-3.89134e-06
-5.39633e-07
-4.31865e-06
-1.90571e-07
-4.74637e-06
1.58195e-07
-5.17075e-06
4.95595e-07
-5.58598e-06
8.08565e-07
-5.98342e-06
1.0821e-06
-6.3507e-06
1.29963e-06
-6.67045e-06
1.44393e-06
-6.91909e-06
1.49881e-06
-7.06536e-06
1.45193e-06
-7.06926e-06
1.29891e-06
-6.88176e-06
1.0487e-06
-6.44605e-06
7.29617e-07
-5.70157e-06
3.94193e-07
-4.59153e-06
1.19958e-07
-3.07484e-06
-1.14579e-06
1.14124e-07
1.24141e-06
3.8141e-07
3.34382e-06
7.19154e-07
5.02024e-06
1.0541e-06
6.26735e-06
1.33218e-06
7.11446e-06
1.52068e-06
7.61058e-06
1.60591e-06
7.81426e-06
1.58874e-06
7.78544e-06
1.47967e-06
7.57967e-06
1.2945e-06
7.24503e-06
1.05115e-06
6.82102e-06
7.67401e-07
6.33869e-06
4.59616e-07
5.82158e-06
1.42097e-07
5.28685e-06
-1.73131e-07
4.74659e-06
-4.76254e-07
4.20887e-06
-7.59464e-07
3.67881e-06
-1.01669e-06
3.15925e-06
-1.24333e-06
2.65149e-06
-1.43597e-06
2.15568e-06
-1.59219e-06
1.67124e-06
-1.71037e-06
1.19708e-06
-1.78952e-06
7.31844e-07
-1.82922e-06
2.74006e-07
-1.82949e-06
-1.77978e-07
-1.7908e-06
-6.25614e-07
-1.71401e-06
-1.0703e-06
-1.6004e-06
-1.51327e-06
-1.45172e-06
-1.95553e-06
-1.27023e-06
-2.39783e-06
-1.05878e-06
-2.84055e-06
-8.20941e-07
-3.28365e-06
-5.61095e-07
-3.72652e-06
-2.84603e-07
-4.16783e-06
2.05383e-09
-4.60531e-06
2.91124e-07
-5.03544e-06
5.73465e-07
-5.45309e-06
8.38484e-07
-5.85099e-06
1.0742e-06
-6.21914e-06
1.26751e-06
-6.54401e-06
1.40478e-06
-6.80773e-06
1.4729e-06
-6.98721e-06
1.46094e-06
-7.0534e-06
1.36262e-06
-6.97094e-06
1.17947e-06
-6.69862e-06
9.24632e-07
-6.19121e-06
6.2639e-07
-5.40333e-06
3.30363e-07
-4.2955e-06
9.82541e-08
-2.84273e-06
-1.04753e-06
9.74486e-08
1.14396e-06
3.31864e-07
3.1094e-06
6.38822e-07
4.71328e-06
9.58825e-07
5.94735e-06
1.24481e-06
6.82848e-06
1.46498e-06
7.39041e-06
1.60231e-06
7.67692e-06
1.65218e-06
7.73557e-06
1.61901e-06
7.61283e-06
1.51313e-06
7.35091e-06
1.34798e-06
6.98617e-06
1.13811e-06
6.54856e-06
8.97786e-07
6.0619e-06
6.40125e-07
5.54451e-06
3.76683e-07
5.01003e-06
1.17295e-07
4.46826e-06
-1.29897e-07
3.926e-06
-3.58313e-07
3.38767e-06
-5.6276e-07
2.85594e-06
-7.39245e-07
2.33217e-06
-8.84797e-07
1.81679e-06
-9.97308e-07
1.3096e-06
-1.0754e-06
8.0994e-07
-1.11834e-06
3.16946e-07
-1.12594e-06
-1.70377e-07
-1.09854e-06
-6.53022e-07
-1.03694e-06
-1.13189e-06
-9.42485e-07
-1.60773e-06
-8.17007e-07
-2.08101e-06
-6.62924e-07
-2.55191e-06
-4.83288e-07
-3.02019e-06
-2.8187e-07
-3.48507e-06
-6.32529e-08
-3.94514e-06
1.67069e-07
-4.39815e-06
4.02595e-07
-4.84083e-06
6.35749e-07
-5.26859e-06
8.57852e-07
-5.67519e-06
1.05918e-06
-6.05232e-06
1.22916e-06
-6.38912e-06
1.35675e-06
-6.6716e-06
1.43113e-06
-6.88211e-06
1.44276e-06
-6.99883e-06
1.38483e-06
-6.99548e-06
1.25533e-06
-6.84144e-06
1.05936e-06
-6.50264e-06
8.11653e-07
-5.94351e-06
5.3859e-07
-5.13027e-06
2.78842e-07
-4.03575e-06
8.15116e-08
-2.6454e-06
-9.66023e-07
8.40791e-08
1.05988e-06
2.90569e-07
2.90291e-06
5.68471e-07
4.43538e-06
8.69278e-07
5.64654e-06
1.1526e-06
6.54515e-06
1.38892e-06
7.1541e-06
1.56004e-06
7.5058e-06
1.65797e-06
7.63765e-06
1.68282e-06
7.58798e-06
1.64049e-06
7.39324e-06
1.54056e-06
7.0861e-06
1.39444e-06
6.69468e-06
1.2141e-06
6.24224e-06
1.01113e-06
5.74748e-06
7.962e-07
5.22496e-06
5.7872e-07
4.68574e-06
3.66776e-07
4.13794e-06
1.67116e-07
3.58733e-06
-1.47617e-08
3.03781e-06
-1.74495e-07
2.4919e-06
-3.08728e-07
1.95103e-06
-4.14987e-07
1.41585e-06
-4.91575e-07
8.86528e-07
-5.37481e-07
3.62851e-07
-5.5231e-07
-1.55547e-07
-5.36244e-07
-6.69088e-07
-4.90013e-07
-1.17812e-06
-4.14896e-07
-1.68284e-06
-3.12731e-07
-2.18318e-06
-1.85963e-07
-2.67868e-06
-3.76769e-08
-3.16848e-06
1.28335e-07
-3.65108e-06
3.07517e-07
-4.12432e-06
4.94485e-07
-4.58512e-06
6.82988e-07
-5.02934e-06
8.659e-07
-5.45151e-06
1.03527e-06
-5.84456e-06
1.18244e-06
-6.1995e-06
1.29836e-06
-6.50503e-06
1.37397e-06
-6.74721e-06
1.40095e-06
-6.90909e-06
1.37262e-06
-6.97051e-06
1.28527e-06
-6.90813e-06
1.13968e-06
-6.69584e-06
9.42806e-07
-6.30577e-06
7.09435e-07
-5.71014e-06
4.63174e-07
-4.88401e-06
2.36367e-07
-3.80895e-06
6.81846e-08
-2.47722e-06
-8.97838e-07
7.3033e-08
9.86848e-07
2.55366e-07
2.72058e-06
5.06078e-07
4.18467e-06
7.8542e-07
5.3672e-06
1.05899e-06
6.27158e-06
1.30015e-06
6.91294e-06
1.49087e-06
7.31509e-06
1.62131e-06
7.5072e-06
1.68868e-06
7.52062e-06
1.69554e-06
7.38638e-06
1.64822e-06
7.13342e-06
1.55534e-06
6.78756e-06
1.42661e-06
6.37096e-06
1.27196e-06
5.90213e-06
1.10088e-06
5.39604e-06
9.22108e-07
4.86452e-06
7.4335e-07
4.3167e-06
5.71248e-07
3.75943e-06
4.1136e-07
3.1977e-06
2.68219e-07
2.63504e-06
1.45408e-07
2.07384e-06
4.56461e-08
1.51562e-06
-2.91235e-08
9.61297e-07
-7.76648e-08
4.11393e-07
-9.93886e-08
-1.33824e-07
-9.43107e-08
-6.74166e-07
-6.30268e-08
-1.20941e-06
-6.70471e-09
-1.73916e-06
7.2896e-08
-2.26278e-06
1.73432e-07
-2.77922e-06
2.91919e-07
-3.28696e-06
4.24701e-07
-3.78387e-06
5.67424e-07
-4.26704e-06
7.15005e-07
-4.7327e-06
8.61634e-07
-5.17597e-06
1.00081e-06
-5.59068e-06
1.12545e-06
-5.9692e-06
1.22805e-06
-6.3021e-06
1.30101e-06
-6.57799e-06
1.33707e-06
-6.78328e-06
1.32999e-06
-6.902e-06
1.27532e-06
-6.91584e-06
1.17149e-06
-6.80429e-06
1.02095e-06
-6.5453e-06
8.31389e-07
-6.11622e-06
6.16717e-07
-5.49547e-06
3.9751e-07
-4.6648e-06
2.00578e-07
-3.61201e-06
5.72667e-08
-2.33391e-06
-8.40571e-07
6.36566e-08
9.23191e-07
2.24702e-07
2.55954e-06
4.49947e-07
3.95942e-06
7.06669e-07
5.11048e-06
9.65702e-07
6.01255e-06
1.20343e-06
6.67521e-06
1.40276e-06
7.11576e-06
1.55313e-06
7.35682e-06
1.64989e-06
7.42386e-06
1.69318e-06
7.34308e-06
1.68678e-06
7.13982e-06
1.63691e-06
6.83743e-06
1.55119e-06
6.45669e-06
1.43787e-06
6.01544e-06
1.30522e-06
5.52869e-06
1.16105e-06
5.00868e-06
1.01253e-06
4.46523e-06
8.65954e-07
3.906e-06
7.26756e-07
3.3369e-06
5.99462e-07
2.76234e-06
4.87738e-07
2.18556e-06
3.9444e-07
1.60891e-06
3.21677e-07
1.03406e-06
2.70858e-07
4.62212e-07
2.42748e-07
-1.05714e-07
2.375e-07
-6.68918e-07
2.5468e-07
-1.22659e-06
2.93279e-07
-1.77776e-06
3.51715e-07
-2.32121e-06
4.27814e-07
-2.85532e-06
5.18806e-07
-3.37795e-06
6.21301e-07
-3.88636e-06
7.31277e-07
-4.37702e-06
8.44089e-07
-4.84551e-06
9.5449e-07
-5.28637e-06
1.05671e-06
-5.6929e-06
1.14457e-06
-6.05705e-06
1.2117e-06
-6.36923e-06
1.25184e-06
-6.61814e-06
1.25928e-06
-6.79072e-06
1.22941e-06
-6.87213e-06
1.15942e-06
-6.84585e-06
1.04914e-06
-6.69401e-06
9.01893e-07
-6.39805e-06
7.25324e-07
-5.93965e-06
5.31978e-07
-5.30212e-06
3.39436e-07
-4.47226e-06
1.69762e-07
-3.44234e-06
4.80792e-08
-2.21222e-06
-7.92492e-07
5.55015e-08
8.6769e-07
1.97445e-07
2.41759e-06
3.9871e-07
3.75816e-06
6.32271e-07
4.87692e-06
8.73479e-07
5.77134e-06
1.10168e-06
6.447e-06
1.30115e-06
6.91629e-06
1.46133e-06
7.19665e-06
1.57651e-06
7.30868e-06
1.64519e-06
7.2744e-06
1.66919e-06
7.11582e-06
1.65273e-06
6.85389e-06
1.60164e-06
6.50778e-06
1.5226e-06
6.09449e-06
1.42258e-06
5.62871e-06
1.30846e-06
5.12281e-06
1.18667e-06
4.58701e-06
1.06306e-06
4.02961e-06
9.42758e-07
3.4572e-06
8.30146e-07
2.87495e-06
7.28853e-07
2.28686e-06
6.41773e-07
1.69599e-06
5.71101e-07
1.10473e-06
5.18372e-07
5.1494e-07
4.845e-07
-7.18408e-08
4.69801e-07
-6.54219e-07
4.74023e-07
-1.23081e-06
4.96356e-07
-1.8001e-06
5.35437e-07
-2.36029e-06
5.89348e-07
-2.90923e-06
6.55614e-07
-3.44422e-06
7.31197e-07
-3.96194e-06
8.12509e-07
-4.45833e-06
8.95423e-07
-4.92843e-06
9.75331e-07
-5.36628e-06
1.04722e-06
-5.76479e-06
1.10583e-06
-6.11566e-06
1.14584e-06
-6.40923e-06
1.16217e-06
-6.63446e-06
1.15035e-06
-6.77891e-06
1.10705e-06
-6.82883e-06
1.0306e-06
-6.76939e-06
9.21646e-07
-6.58506e-06
7.838e-07
-6.26021e-06
6.24176e-07
-5.78002e-06
4.53731e-07
-5.13167e-06
2.87221e-07
-4.30575e-06
1.42658e-07
-3.29778e-06
4.01508e-08
-2.10972e-06
-7.52341e-07
4.82518e-08
8.19438e-07
1.72764e-07
2.29308e-06
3.51287e-07
3.57963e-06
5.61473e-07
4.66673e-06
7.82579e-07
5.55023e-06
9.96741e-07
6.23284e-06
1.18981e-06
6.72323e-06
1.35168e-06
7.03478e-06
1.47623e-06
7.18413e-06
1.56088e-06
7.18975e-06
1.60601e-06
7.07069e-06
1.6143e-06
6.84561e-06
1.59e-06
6.53207e-06
1.5384e-06
6.14609e-06
1.46526e-06
5.70184e-06
1.37646e-06
5.2116e-06
1.27767e-06
4.6858e-06
1.17416e-06
4.13312e-06
1.07066e-06
3.5607e-06
9.71307e-07
2.97431e-06
8.79579e-07
2.37858e-06
7.98323e-07
1.77725e-06
7.29754e-07
1.1733e-06
6.75483e-07
5.69211e-07
6.3654e-07
-3.28973e-08
6.13397e-07
-6.31076e-07
6.05989e-07
-1.2234e-06
6.13729e-07
-1.80784e-06
6.35514e-07
-2.38208e-06
6.69728e-07
-2.94344e-06
7.14254e-07
-3.48874e-06
7.66471e-07
-4.01416e-06
8.23278e-07
-4.51514e-06
8.81125e-07
-4.98627e-06
9.36067e-07
-5.42122e-06
9.83859e-07
-5.81259e-06
1.0201e-06
-6.1519e-06
1.04041e-06
-6.42954e-06
1.04071e-06
-6.63476e-06
1.01755e-06
-6.75575e-06
9.68511e-07
-6.77979e-06
8.92659e-07
-6.69354e-06
7.91039e-07
-6.48344e-06
6.67136e-07
-6.1363e-06
5.27244e-07
-5.64013e-06
3.80647e-07
-4.98508e-06
2.39496e-07
-4.1646e-06
1.18328e-07
-3.17661e-06
3.31456e-08
-2.02454e-06
-7.19195e-07
4.16801e-08
7.77758e-07
1.50039e-07
2.18472e-06
3.06825e-07
3.42285e-06
4.93599e-07
4.47995e-06
6.92998e-07
5.35083e-06
8.89744e-07
6.03609e-06
1.07134e-06
6.54163e-06
1.22846e-06
6.87766e-06
1.35496e-06
7.05764e-06
1.44766e-06
7.09705e-06
1.50596e-06
7.01239e-06
1.5313e-06
6.82026e-06
1.5267e-06
6.53668e-06
1.49619e-06
6.1766e-06
1.44444e-06
5.75359e-06
1.37636e-06
5.27969e-06
1.29682e-06
4.76534e-06
1.21048e-06
4.21947e-06
1.12158e-06
3.64959e-06
1.03394e-06
3.06195e-06
9.50802e-07
2.46172e-06
8.74899e-07
1.85315e-06
8.08404e-07
1.2398e-06
7.52954e-07
6.24661e-07
7.09664e-07
1.0392e-08
6.79147e-07
-6.00559e-07
6.61524e-07
-1.20578e-06
6.56441e-07
-1.80275e-06
6.63077e-07
-2.38871e-06
6.80156e-07
-2.96052e-06
7.05951e-07
-3.51454e-06
7.38299e-07
-4.04651e-06
7.74621e-07
-4.55146e-06
8.11965e-07
-5.02362e-06
8.47053e-07
-5.45631e-06
8.76382e-07
-5.84192e-06
8.9634e-07
-6.17186e-06
9.03389e-07
-6.43659e-06
8.94282e-07
-6.62566e-06
8.66345e-07
-6.72781e-06
8.17805e-07
-6.73125e-06
7.48149e-07
-6.62389e-06
6.58496e-07
-6.39379e-06
5.51934e-07
-6.02974e-06
4.33763e-07
-5.52196e-06
3.11589e-07
-4.8629e-06
1.95182e-07
-4.04819e-06
9.60674e-08
-3.07749e-06
2.68192e-08
-1.95529e-06
-6.92376e-07
3.5619e-08
7.42139e-07
1.28804e-07
2.09154e-06
2.64657e-07
3.28699e-06
4.28061e-07
4.31655e-06
6.04614e-07
5.17428e-06
7.81412e-07
5.8593e-06
9.47633e-07
6.3754e-06
1.09489e-06
6.7304e-06
1.21733e-06
6.9352e-06
1.31152e-06
7.00285e-06
1.37623e-06
6.94769e-06
1.41201e-06
6.78448e-06
1.42084e-06
6.52785e-06
1.40572e-06
6.19172e-06
1.37032e-06
5.78899e-06
1.31865e-06
5.33136e-06
1.25481e-06
4.82918e-06
1.1828e-06
4.29148e-06
1.10635e-06
3.72604e-06
1.02887e-06
3.13943e-06
9.53345e-07
2.53725e-06
8.8231e-07
1.92419e-06
8.17849e-07
1.30426e-06
7.61583e-07
6.80927e-07
7.14682e-07
5.72928e-08
6.77875e-07
-5.63751e-07
6.5146e-07
-1.17937e-06
6.3532e-07
-1.78661e-06
6.28928e-07
-2.38232e-06
6.31359e-07
-2.96295e-06
6.41301e-07
-3.52448e-06
6.57067e-07
-4.06228e-06
6.76619e-07
-4.57101e-06
6.97601e-07
-5.0446e-06
7.17395e-07
-5.4761e-06
7.33194e-07
-5.85771e-06
7.42116e-07
-6.18078e-06
7.41345e-07
-6.43582e-06
7.2832e-07
-6.61263e-06
7.00954e-07
-6.70045e-06
6.57901e-07
-6.6882e-06
5.98828e-07
-6.56481e-06
5.24701e-07
-6.31966e-06
4.38022e-07
-5.94306e-06
3.43003e-07
-5.42694e-06
2.45609e-07
-4.76551e-06
1.53427e-07
-3.95601e-06
7.53401e-08
-2.99941e-06
2.09904e-08
-1.90094e-06
-6.71386e-07
2.99427e-08
7.12196e-07
1.087e-07
2.01278e-06
2.24256e-07
3.17144e-06
3.64367e-07
4.17644e-06
5.17256e-07
5.02139e-06
6.72208e-07
5.70434e-06
8.20041e-07
6.22757e-06
9.53421e-07
6.59702e-06
1.06699e-06
6.82163e-06
1.15734e-06
6.9125e-06
1.22286e-06
6.88217e-06
1.26348e-06
6.74387e-06
1.28038e-06
6.51095e-06
1.27569e-06
6.1964e-06
1.2522e-06
5.81248e-06
1.2131e-06
5.37046e-06
1.16173e-06
4.88055e-06
1.10144e-06
4.35177e-06
1.03545e-06
3.79203e-06
9.66708e-07
3.20817e-06
8.97878e-07
2.60608e-06
8.31272e-07
1.99079e-06
7.68832e-07
1.3667e-06
7.12125e-07
7.37634e-07
6.62343e-07
1.07076e-07
6.20306e-07
-5.21715e-07
5.86477e-07
-1.14554e-06
5.60967e-07
-1.7611e-06
5.43542e-07
-2.3649e-06
5.33635e-07
-2.95305e-06
5.30356e-07
-3.5212e-06
5.32501e-07
-4.06442e-06
5.38571e-07
-4.57708e-06
5.46804e-07
-5.05283e-06
5.55214e-07
-5.48451e-06
5.61654e-07
-5.86415e-06
5.63902e-07
-6.18303e-06
5.59772e-07
-6.43169e-06
5.47262e-07
-6.60012e-06
5.24724e-07
-6.67791e-06
4.91065e-07
-6.65454e-06
4.45959e-07
-6.51971e-06
3.90053e-07
-6.26375e-06
3.25147e-07
-5.87816e-06
2.54315e-07
-5.35611e-06
1.8193e-07
-4.69312e-06
1.13563e-07
-3.88764e-06
5.57338e-08
-2.94158e-06
1.55224e-08
-1.86073e-06
-6.55863e-07
2.45549e-08
6.87641e-07
8.94504e-08
1.94788e-06
1.85199e-07
3.07569e-06
3.02101e-07
4.05954e-06
4.30741e-07
4.89275e-06
5.62432e-07
5.57265e-06
6.89588e-07
6.10041e-06
8.05987e-07
6.48062e-06
9.06911e-07
6.72071e-06
9.89159e-07
6.83025e-06
1.05096e-06
6.82036e-06
1.09184e-06
6.70299e-06
1.11235e-06
6.49044e-06
1.11392e-06
6.19483e-06
1.09858e-06
5.82782e-06
1.06875e-06
5.40029e-06
1.02708e-06
4.92222e-06
9.76277e-07
4.40257e-06
9.19006e-07
3.8493e-06
8.57773e-07
3.26941e-06
7.94876e-07
2.66897e-06
7.3236e-07
2.05331e-06
6.7199e-07
1.42707e-06
6.15242e-07
7.94382e-07
5.63297e-07
1.5902e-07
5.17046e-07
-4.75464e-07
4.77093e-07
-1.10558e-06
4.43763e-07
-1.72777e-06
4.1711e-07
-2.33824e-06
3.9692e-07
-2.93286e-06
3.82721e-07
-3.507e-06
3.73789e-07
-4.05549e-06
3.6916e-07
-4.57246e-06
3.67653e-07
-5.05133e-06
3.67889e-07
-5.48475e-06
3.68342e-07
-5.86461e-06
3.67394e-07
-6.18208e-06
3.63414e-07
-6.42771e-06
3.54863e-07
-6.59157e-06
3.40417e-07
-6.66346e-06
3.19114e-07
-6.63324e-06
2.90505e-07
-6.4911e-06
2.54811e-07
-6.22806e-06
2.13052e-07
-5.8364e-06
1.67144e-07
-5.3102e-06
1.19917e-07
-4.6459e-06
7.50559e-08
-3.84278e-06
3.69273e-08
-2.90345e-06
1.03102e-08
-1.83411e-06
-6.45553e-07
1.93792e-08
6.68262e-07
7.08307e-08
1.89643e-06
1.47143e-07
2.99938e-06
2.40913e-07
3.96577e-06
3.44887e-07
4.78878e-06
4.5228e-07
5.46526e-06
5.57054e-07
5.99564e-06
6.5413e-07
6.38355e-06
7.39522e-07
6.63531e-06
8.10376e-07
6.7594e-06
8.64936e-07
6.7658e-06
9.02454e-07
6.66548e-06
9.23045e-07
6.46985e-06
9.27537e-07
6.19034e-06
9.17296e-07
5.83806e-06
8.94071e-07
5.42352e-06
8.59846e-07
4.95644e-06
8.16719e-07
4.4457e-06
7.66796e-07
3.89922e-06
7.12118e-07
3.32408e-06
6.54596e-07
2.72649e-06
5.95978e-07
2.11193e-06
5.3782e-07
1.48523e-06
4.81474e-07
8.50728e-07
4.2808e-07
2.12414e-07
3.78571e-07
-4.25954e-07
3.33671e-07
-1.06068e-06
2.93902e-07
-1.688e-06
2.59588e-07
-2.30393e-06
2.3086e-07
-2.90413e-06
2.07654e-07
-3.4838e-06
1.89718e-07
-4.03755e-06
1.76615e-07
-4.55935e-06
1.67725e-07
-5.04244e-06
1.62261e-07
-5.47928e-06
1.59286e-07
-5.86163e-06
1.57744e-07
-6.18054e-06
1.56504e-07
-6.42647e-06
1.54423e-07
-6.58949e-06
1.50424e-07
-6.65947e-06
1.43588e-07
-6.6264e-06
1.33264e-07
-6.48077e-06
1.19173e-07
-6.21397e-06
1.01512e-07
-5.81874e-06
8.10282e-08
-5.28972e-06
5.90532e-08
-4.62392e-06
3.74795e-08
-3.8212e-06
1.86661e-08
-2.88463e-06
5.27144e-09
-1.82072e-06
-6.40282e-07
1.43535e-08
6.53908e-07
5.26566e-08
1.85813e-06
1.09796e-07
2.94224e-06
1.80494e-07
3.89507e-06
2.59516e-07
4.70975e-06
3.41879e-07
5.3829e-06
4.23052e-07
5.91447e-06
4.99116e-07
6.30748e-06
5.66877e-07
6.56755e-06
6.23923e-07
6.70235e-06
6.68626e-07
6.7211e-06
7.00101e-07
6.634e-06
7.18124e-07
6.45182e-06
7.23035e-07
6.18543e-06
7.15623e-07
5.84547e-06
6.97018e-07
5.44212e-06
6.68581e-07
4.98488e-06
6.31813e-07
4.48246e-06
5.88277e-07
3.94276e-06
5.39532e-07
3.37283e-06
4.87087e-07
2.77894e-06
4.32367e-07
2.16665e-06
3.76688e-07
1.5409e-06
3.21248e-07
9.06168e-07
2.67119e-07
2.66543e-07
2.15246e-07
-3.74082e-07
1.6645e-07
-1.01189e-06
1.21427e-07
-1.64298e-06
8.07545e-08
-2.26326e-06
4.48897e-08
-2.86826e-06
1.4167e-08
-3.45307e-06
-1.12055e-08
-4.01218e-06
-3.11527e-08
-4.53941e-06
-4.57403e-08
-5.02785e-06
-5.51819e-08
-5.46984e-06
-5.98439e-08
-5.85697e-06
-6.02448e-08
-6.18014e-06
-5.70465e-08
-6.42967e-06
-5.10347e-08
-6.5955e-06
-4.30863e-08
-6.66741e-06
-3.41219e-08
-6.63537e-06
-2.50448e-08
-6.48985e-06
-1.66706e-08
-6.22234e-06
-9.65206e-09
-5.82576e-06
-4.41079e-09
-5.29496e-06
-1.08593e-09
-4.62725e-06
4.84852e-10
-3.82277e-06
7.4335e-10
-2.88489e-06
3.3987e-10
-1.82031e-06