/*--------------------------------*- C++ -*----------------------------------*\
  =========                 |
  \\      /  F ield         | OpenFOAM: The Open Source CFD Toolbox
   \\    /   O peration     | Website:  https://openfoam.org
    \\  /    A nd           | Version:  7
     \\/     M anipulation  |
\*---------------------------------------------------------------------------*/
FoamFile
{
    version     2.0;
    format      ascii;
    class       volVectorField;
    location    "0.0432";
    object      U;
}
// * * * * * * * * * * * * * * * * * * * * * * * * * * * * * * * * * * * * * //

dimensions      [0 1 -1 0 0 0 0];

internalField   nonuniform List<vector> 
2500
(
(-0.293807 0.153727 0)
(-0.39795 0.128725 0)
(-0.577983 0.0737916 0)
(-0.696255 0.0408696 0)
(-0.765208 0.0233856 0)
(-0.8095 0.0141299 0)
(-0.840038 0.00914255 0)
(-0.86207 0.00633339 0)
(-0.878631 0.00464357 0)
(-0.891508 0.00355314 0)
(-0.901773 0.00280392 0)
(-0.910109 0.00226193 0)
(-0.916969 0.00185335 0)
(-0.922668 0.0015349 0)
(-0.927431 0.00127961 0)
(-0.931421 0.00106984 0)
(-0.93476 0.000893526 0)
(-0.937541 0.000742108 0)
(-0.939832 0.000609351 0)
(-0.941686 0.000490579 0)
(-0.943144 0.000382193 0)
(-0.944233 0.000281349 0)
(-0.944977 0.000185733 0)
(-0.945388 9.34001e-05 0)
(-0.945476 2.65558e-06 0)
(-0.945242 -8.80805e-05 0)
(-0.944686 -0.000180287 0)
(-0.943799 -0.000275478 0)
(-0.942569 -0.000375278 0)
(-0.940979 -0.000481518 0)
(-0.939004 -0.000596364 0)
(-0.936612 -0.000722481 0)
(-0.933761 -0.000863268 0)
(-0.930396 -0.00102319 0)
(-0.926448 -0.0012083 0)
(-0.921827 -0.00142701 0)
(-0.91641 -0.00169141 0)
(-0.910037 -0.00201954 0)
(-0.902484 -0.00243945 0)
(-0.89344 -0.00299716 0)
(-0.88245 -0.00377228 0)
(-0.868827 -0.00491029 0)
(-0.851486 -0.00668995 0)
(-0.828622 -0.00966241 0)
(-0.79722 -0.0149149 0)
(-0.752131 -0.0245008 0)
(-0.682612 -0.0421546 0)
(-0.564977 -0.0746258 0)
(-0.38933 -0.128134 0)
(-0.290209 -0.152374 0)
(-0.0051648 0.302919 0)
(-0.0270618 0.307343 0)
(-0.171295 0.217766 0)
(-0.308101 0.146531 0)
(-0.416927 0.0991381 0)
(-0.502042 0.0688613 0)
(-0.568291 0.0495949 0)
(-0.620084 0.0370414 0)
(-0.661103 0.0285466 0)
(-0.694078 0.0225626 0)
(-0.720946 0.0181873 0)
(-0.743088 0.0148809 0)
(-0.761497 0.0123094 0)
(-0.776901 0.0102578 0)
(-0.789836 0.00858311 0)
(-0.800705 0.00718662 0)
(-0.809815 0.00599846 0)
(-0.817399 0.00496772 0)
(-0.823636 0.00405646 0)
(-0.828665 0.0032357 0)
(-0.832589 0.00248282 0)
(-0.835487 0.0017797 0)
(-0.837417 0.00111142 0)
(-0.838416 0.000465333 0)
(-0.838509 -0.000169712 0)
(-0.837702 -0.000803966 0)
(-0.835992 -0.00144728 0)
(-0.833361 -0.00210964 0)
(-0.829777 -0.00280168 0)
(-0.825194 -0.00353533 0)
(-0.819548 -0.00432452 0)
(-0.812756 -0.00518619 0)
(-0.804711 -0.00614157 0)
(-0.795277 -0.00721811 0)
(-0.784276 -0.00845212 0)
(-0.771483 -0.00989281 0)
(-0.756603 -0.0116085 0)
(-0.73925 -0.0136965 0)
(-0.718911 -0.0162993 0)
(-0.694894 -0.0196322 0)
(-0.666256 -0.0240307 0)
(-0.631693 -0.0300356 0)
(-0.589388 -0.0385423 0)
(-0.536819 -0.0510616 0)
(-0.470666 -0.0701197 0)
(-0.387078 -0.0996613 0)
(-0.281871 -0.145103 0)
(-0.151562 -0.212637 0)
(-0.0164678 -0.298218 0)
(-0.000992328 -0.294688 0)
(0.0321124 0.264063 0)
(0.056392 0.362308 0)
(-0.00354472 0.32488 0)
(-0.0956897 0.260374 0)
(-0.191904 0.200656 0)
(-0.280497 0.153572 0)
(-0.357354 0.118595 0)
(-0.422269 0.0929731 0)
(-0.476599 0.07407 0)
(-0.522031 0.0598975 0)
(-0.560122 0.0490599 0)
(-0.592177 0.0405992 0)
(-0.619245 0.0338577 0)
(-0.642157 0.0283791 0)
(-0.661562 0.0238413 0)
(-0.677971 0.0200132 0)
(-0.691784 0.0167252 0)
(-0.703314 0.0138509 0)
(-0.712807 0.0112938 0)
(-0.720456 0.00897937 0)
(-0.72641 0.00684836 0)
(-0.730779 0.00485286 0)
(-0.733648 0.00295307 0)
(-0.735074 0.00111496 0)
(-0.735091 -0.000691603 0)
(-0.733715 -0.00249432 0)
(-0.730939 -0.00431987 0)
(-0.726742 -0.00619519 0)
(-0.721081 -0.00814879 0)
(-0.713892 -0.0102123 0)
(-0.705089 -0.0124224 0)
(-0.694562 -0.0148228 0)
(-0.682166 -0.0174679 0)
(-0.667721 -0.0204266 0)
(-0.651 -0.0237882 0)
(-0.631716 -0.027671 0)
(-0.60951 -0.0322344 0)
(-0.583924 -0.037697 0)
(-0.554385 -0.0443639 0)
(-0.520167 -0.0526675 0)
(-0.480364 -0.0632285 0)
(-0.433874 -0.0769435 0)
(-0.379419 -0.0951011 0)
(-0.315697 -0.119505 0)
(-0.241836 -0.152485 0)
(-0.158526 -0.196362 0)
(-0.0700853 -0.251292 0)
(0.0121785 -0.309942 0)
(0.0619874 -0.343278 0)
(0.0330256 -0.249937 0)
(0.027153 0.205246 0)
(0.0637707 0.357773 0)
(0.0552116 0.375537 0)
(0.00802847 0.338328 0)
(-0.0593985 0.285626 0)
(-0.132744 0.234709 0)
(-0.203858 0.191336 0)
(-0.268972 0.156198 0)
(-0.326824 0.12824 0)
(-0.377412 0.106046 0)
(-0.421283 0.088318 0)
(-0.459164 0.0740065 0)
(-0.491789 0.0623017 0)
(-0.519826 0.0525918 0)
(-0.543852 0.0444161 0)
(-0.56435 0.0374266 0)
(-0.581721 0.0313581 0)
(-0.596293 0.0260063 0)
(-0.608329 0.0212116 0)
(-0.618043 0.0168476 0)
(-0.625602 0.0128124 0)
(-0.631135 0.00902241 0)
(-0.63474 0.00540731 0)
(-0.636485 0.00190651 0)
(-0.636415 -0.00153391 0)
(-0.634549 -0.00496365 0)
(-0.630885 -0.00843047 0)
(-0.625402 -0.0119823 0)
(-0.618055 -0.0156694 0)
(-0.608777 -0.019547 0)
(-0.59748 -0.023678 0)
(-0.584046 -0.0281364 0)
(-0.568329 -0.0330123 0)
(-0.550146 -0.0384175 0)
(-0.529277 -0.0444934 0)
(-0.505451 -0.0514219 0)
(-0.478347 -0.0594398 0)
(-0.447581 -0.068858 0)
(-0.412709 -0.0800878 0)
(-0.373235 -0.0936735 0)
(-0.328641 -0.110329 0)
(-0.278471 -0.130971 0)
(-0.2225 -0.156708 0)
(-0.161076 -0.188716 0)
(-0.095747 -0.227787 0)
(-0.0303156 -0.273098 0)
(0.0275673 -0.319287 0)
(0.0649002 -0.350772 0)
(0.0657108 -0.331976 0)
(0.0268638 -0.189954 0)
(0.0184578 0.163455 0)
(0.0531189 0.331514 0)
(0.068567 0.386873 0)
(0.0529413 0.379534 0)
(0.0133994 0.343817 0)
(-0.0393443 0.299292 0)
(-0.0971339 0.255517 0)
(-0.154773 0.216338 0)
(-0.209331 0.182758 0)
(-0.25939 0.154527 0)
(-0.304445 0.130941 0)
(-0.344491 0.111211 0)
(-0.379775 0.0946097 0)
(-0.410644 0.0805188 0)
(-0.437472 0.0684317 0)
(-0.460619 0.05794 0)
(-0.480405 0.048717 0)
(-0.497115 0.0405002 0)
(-0.510988 0.0330783 0)
(-0.522223 0.0262793 0)
(-0.530983 0.0199614 0)
(-0.537398 0.0140062 0)
(-0.541568 0.00831284 0)
(-0.543566 0.00279345 0)
(-0.543439 -0.00263064 0)
(-0.541214 -0.00803215 0)
(-0.536893 -0.0134807 0)
(-0.530462 -0.0190458 0)
(-0.521882 -0.0247995 0)
(-0.511098 -0.0308196 0)
(-0.498032 -0.0371932 0)
(-0.482585 -0.044021 0)
(-0.464634 -0.0514222 0)
(-0.444033 -0.0595411 0)
(-0.420614 -0.0685546 0)
(-0.394181 -0.0786821 0)
(-0.364525 -0.0901973 0)
(-0.331425 -0.103441 0)
(-0.294676 -0.118833 0)
(-0.254131 -0.136884 0)
(-0.209774 -0.158182 0)
(-0.161854 -0.183352 0)
(-0.111105 -0.212915 0)
(-0.0590934 -0.246965 0)
(-0.00869818 -0.284485 0)
(0.0353101 -0.321977 0)
(0.0657517 -0.351009 0)
(0.0734819 -0.354409 0)
(0.0532029 -0.301854 0)
(0.0179079 -0.148382 0)
(0.011958 0.134652 0)
(0.0408361 0.300523 0)
(0.0653136 0.37788 0)
(0.0685903 0.395399 0)
(0.0504474 0.378716 0)
(0.0169347 0.34565 0)
(-0.0256896 0.306972 0)
(-0.0724344 0.268473 0)
(-0.119788 0.232867 0)
(-0.165522 0.201141 0)
(-0.208356 0.173391 0)
(-0.247644 0.149307 0)
(-0.283135 0.128428 0)
(-0.314815 0.110268 0)
(-0.342795 0.0943733 0)
(-0.367249 0.0803457 0)
(-0.388373 0.0678439 0)
(-0.406362 0.0565801 0)
(-0.421396 0.0463125 0)
(-0.433636 0.036838 0)
(-0.443218 0.0279846 0)
(-0.450258 0.0196056 0)
(-0.454847 0.0115738 0)
(-0.457053 0.00377709 0)
(-0.456926 -0.00388574 0)
(-0.454496 -0.0115083 0)
(-0.449773 -0.0191803 0)
(-0.442752 -0.0269901 0)
(-0.43341 -0.0350284 0)
(-0.42171 -0.0433915 0)
(-0.4076 -0.0521845 0)
(-0.391015 -0.0615262 0)
(-0.371877 -0.0715529 0)
(-0.350102 -0.0824244 0)
(-0.325601 -0.0943291 0)
(-0.29829 -0.10749 0)
(-0.268106 -0.122171 0)
(-0.235028 -0.138677 0)
(-0.199115 -0.157348 0)
(-0.160567 -0.178542 0)
(-0.119814 -0.202581 0)
(-0.0776479 -0.229639 0)
(-0.035416 -0.259532 0)
(0.00474617 -0.291309 0)
(0.0396754 -0.32256 0)
(0.0650835 -0.348291 0)
(0.0757992 -0.359304 0)
(0.0670791 -0.340334 0)
(0.040123 -0.269098 0)
(0.0114453 -0.12011 0)
(0.00787321 0.11411 0)
(0.0310828 0.271234 0)
(0.0573833 0.359825 0)
(0.0707035 0.395476 0)
(0.067157 0.395925 0)
(0.0490881 0.375702 0)
(0.0204623 0.34506 0)
(-0.0147542 0.310524 0)
(-0.0532467 0.275879 0)
(-0.0925464 0.243099 0)
(-0.130959 0.213053 0)
(-0.167397 0.185974 0)
(-0.201215 0.161763 0)
(-0.232066 0.140162 0)
(-0.259803 0.120852 0)
(-0.2844 0.103507 0)
(-0.305902 0.0878203 0)
(-0.324393 0.0735152 0)
(-0.339972 0.0603457 0)
(-0.352742 0.0480969 0)
(-0.362799 0.0365808 0)
(-0.37023 0.0256327 0)
(-0.375109 0.015107 0)
(-0.377495 0.00487337 0)
(-0.377434 -0.00518671 0)
(-0.374958 -0.0151835 0)
(-0.370085 -0.0252219 0)
(-0.362822 -0.0354047 0)
(-0.353167 -0.0458358 0)
(-0.341107 -0.0566228 0)
(-0.326624 -0.0678806 0)
(-0.309697 -0.0797345 0)
(-0.290305 -0.0923236 0)
(-0.268435 -0.105804 0)
(-0.244094 -0.120351 0)
(-0.217317 -0.136159 0)
(-0.18819 -0.153439 0)
(-0.156883 -0.17241 0)
(-0.123687 -0.193273 0)
(-0.089077 -0.21617 0)
(-0.0537929 -0.241099 0)
(-0.0189408 -0.267776 0)
(0.013887 -0.295388 0)
(0.0425058 -0.32222 0)
(0.0641201 -0.34508 0)
(0.0755308 -0.358532 0)
(0.0737095 -0.354046 0)
(0.0571634 -0.319408 0)
(0.0300275 -0.239387 0)
(0.0074441 -0.10023 0)
(0.00542684 0.0989985 0)
(0.0240685 0.245456 0)
(0.0491458 0.338522 0)
(0.0671177 0.386335 0)
(0.0727932 0.400651 0)
(0.0661286 0.392576 0)
(0.0491306 0.370992 0)
(0.0245342 0.342296 0)
(-0.00494339 0.310726 0)
(-0.0369894 0.27889 0)
(-0.0698087 0.24826 0)
(-0.102093 0.219571 0)
(-0.132937 0.1931 0)
(-0.161746 0.168856 0)
(-0.188152 0.146705 0)
(-0.211944 0.126442 0)
(-0.233019 0.107834 0)
(-0.251345 0.0906479 0)
(-0.266932 0.0746599 0)
(-0.279813 0.0596643 0)
(-0.290037 0.045473 0)
(-0.297652 0.0319161 0)
(-0.302709 0.0188396 0)
(-0.305253 0.00610328 0)
(-0.305321 -0.00642178 0)
(-0.302947 -0.0188559 0)
(-0.298155 -0.0313134 0)
(-0.290967 -0.0439049 0)
(-0.281399 -0.0567403 0)
(-0.269469 -0.0699307 0)
(-0.255194 -0.0835909 0)
(-0.2386 -0.0978412 0)
(-0.219726 -0.112809 0)
(-0.198635 -0.128629 0)
(-0.175421 -0.145442 0)
(-0.15023 -0.163389 0)
(-0.123282 -0.182601 0)
(-0.0948973 -0.203179 0)
(-0.0655389 -0.225158 0)
(-0.0358598 -0.248451 0)
(-0.00676108 -0.272749 0)
(0.020547 -0.297381 0)
(0.0444982 -0.321086 0)
(0.0631713 -0.34171 0)
(0.0744096 -0.355804 0)
(0.0761597 -0.358186 0)
(0.0670875 -0.341616 0)
(0.047655 -0.296896 0)
(0.0228378 -0.214018 0)
(0.00505956 -0.0858309 0)
(0.00394281 0.0874708 0)
(0.0191093 0.223261 0)
(0.0419245 0.316842 0)
(0.0615279 0.372254 0)
(0.072656 0.397088 0)
(0.073951 0.399511 0)
(0.0660062 0.386787 0)
(0.050446 0.364694 0)
(0.0292709 0.337467 0)
(0.00442543 0.308006 0)
(-0.0224113 0.278182 0)
(-0.0498913 0.249117 0)
(-0.0769868 0.221425 0)
(-0.102947 0.195381 0)
(-0.127242 0.171051 0)
(-0.149515 0.148375 0)
(-0.169533 0.127222 0)
(-0.187156 0.107428 0)
(-0.202306 0.0888142 0)
(-0.214947 0.0712024 0)
(-0.225073 0.0544206 0)
(-0.232695 0.0383065 0)
(-0.237833 0.0227089 0)
(-0.240513 0.00748674 0)
(-0.240766 -0.00749106 0)
(-0.23862 -0.0223476 0)
(-0.234108 -0.0371993 0)
(-0.227261 -0.0521577 0)
(-0.218118 -0.0673309 0)
(-0.206721 -0.0828254 0)
(-0.193125 -0.0987463 0)
(-0.1774 -0.115198 0)
(-0.159641 -0.132285 0)
(-0.139976 -0.150107 0)
(-0.118577 -0.168753 0)
(-0.095682 -0.188296 0)
(-0.071608 -0.208773 0)
(-0.0467823 -0.230158 0)
(-0.0217703 -0.252322 0)
(0.00269135 -0.27497 0)
(0.0256622 -0.297543 0)
(0.0459779 -0.319094 0)
(0.0622587 -0.338102 0)
(0.0729781 -0.352255 0)
(0.0766454 -0.358206 0)
(0.0721586 -0.351375 0)
(0.0593244 -0.32594 0)
(0.0395923 -0.275212 0)
(0.0177686 -0.192763 0)
(0.00361294 -0.0750422 0)
(0.00300437 0.078355 0)
(0.0155521 0.204205 0)
(0.0359331 0.296096 0)
(0.0555706 0.355856 0)
(0.0696652 0.388306 0)
(0.0762631 0.399305 0)
(0.0750504 0.394584 0)
(0.0667833 0.379102 0)
(0.0527884 0.356799 0)
(0.0345695 0.330609 0)
(0.0135685 0.302602 0)
(-0.00895254 0.274163 0)
(-0.0319534 0.246166 0)
(-0.0546136 0.219118 0)
(-0.0763076 0.193278 0)
(-0.0965734 0.168736 0)
(-0.115079 0.145477 0)
(-0.131592 0.123422 0)
(-0.145959 0.102452 0)
(-0.158079 0.0824328 0)
(-0.167893 0.0632221 0)
(-0.175373 0.0446772 0)
(-0.180509 0.02666 0)
(-0.183308 0.00903829 0)
(-0.183786 -0.00831307 0)
(-0.181969 -0.0255121 0)
(-0.177893 -0.0426702 0)
(-0.171599 -0.0598925 0)
(-0.163143 -0.0772782 0)
(-0.152591 -0.0949211 0)
(-0.14003 -0.112909 0)
(-0.125567 -0.131322 0)
(-0.109344 -0.150231 0)
(-0.0915416 -0.169691 0)
(-0.072393 -0.189735 0)
(-0.0521982 -0.210359 0)
(-0.0313407 -0.231504 0)
(-0.0103062 -0.253024 0)
(0.0102981 -0.274645 0)
(0.029726 -0.295905 0)
(0.0470839 -0.316069 0)
(0.0613406 -0.334025 0)
(0.071371 -0.348152 0)
(0.0760577 -0.356178 0)
(0.0744831 -0.35506 0)
(0.0662384 -0.340938 0)
(0.0518095 -0.309281 0)
(0.0330276 -0.255326 0)
(0.0141352 -0.175 0)
(0.00269687 -0.0666874 0)
(0.00237929 0.0709278 0)
(0.012931 0.187766 0)
(0.0310321 0.276803 0)
(0.0499033 0.338685 0)
(0.0653799 0.376425 0)
(0.0753375 0.394166 0)
(0.0789411 0.396322 0)
(0.0763297 0.387007 0)
(0.068271 0.369721 0)
(0.0558413 0.347257 0)
(0.0401989 0.321727 0)
(0.0224469 0.294656 0)
(0.00356111 0.267098 0)
(-0.0156378 0.239744 0)
(-0.0344853 0.213017 0)
(-0.0524588 0.18715 0)
(-0.0691583 0.162244 0)
(-0.0842845 0.13831 0)
(-0.0976194 0.115302 0)
(-0.109009 0.0931385 0)
(-0.118347 0.0717165 0)
(-0.125568 0.050924 0)
(-0.130634 0.0306452 0)
(-0.13353 0.010765 0)
(-0.13426 -0.00882757 0)
(-0.132845 -0.0282385 0)
(-0.12932 -0.047567 0)
(-0.123734 -0.0669052 0)
(-0.116154 -0.0863369 0)
(-0.106668 -0.105937 0)
(-0.0953839 -0.125769 0)
(-0.0824418 -0.145883 0)
(-0.0680163 -0.16631 0)
(-0.0523265 -0.187058 0)
(-0.0356455 -0.208097 0)
(-0.018312 -0.229351 0)
(-0.000741526 -0.250671 0)
(0.0165613 -0.271806 0)
(0.0329936 -0.292369 0)
(0.0478515 -0.311776 0)
(0.0603381 -0.329186 0)
(0.0695929 -0.343418 0)
(0.0747533 -0.352866 0)
(0.0750633 -0.355419 0)
(0.0700472 -0.348425 0)
(0.0597547 -0.328729 0)
(0.0450238 -0.292875 0)
(0.0277304 -0.237514 0)
(0.0114616 -0.160095 0)
(0.00208644 -0.0600395 0)
(0.00194038 0.064735 0)
(0.0109384 0.173485 0)
(0.0270058 0.259111 0)
(0.0447382 0.321625 0)
(0.060606 0.362876 0)
(0.0725423 0.38576 0)
(0.0794545 0.393626 0)
(0.0810767 0.389807 0)
(0.0777501 0.377317 0)
(0.0701801 0.358706 0)
(0.0592433 0.336016 0)
(0.045853 0.310816 0)
(0.0308745 0.284262 0)
(0.0150794 0.257173 0)
(-0.000873645 0.230105 0)
(-0.0164406 0.203414 0)
(-0.0311839 0.177307 0)
(-0.0447601 0.151885 0)
(-0.0569055 0.127178 0)
(-0.0674228 0.103162 0)
(-0.0761689 0.0797833 0)
(-0.0830446 0.0569657 0)
(-0.0879863 0.0346236 0)
(-0.0909599 0.0126666 0)
(-0.0919559 -0.00899584 0)
(-0.0909871 -0.030451 0)
(-0.0880864 -0.05178 0)
(-0.0833074 -0.0730563 0)
(-0.0767254 -0.0943428 0)
(-0.0684394 -0.11569 0)
(-0.0585762 -0.137134 0)
(-0.0472949 -0.158689 0)
(-0.0347925 -0.180346 0)
(-0.021311 -0.202063 0)
(-0.00714442 -0.223752 0)
(0.00735303 -0.245268 0)
(0.0217602 -0.266384 0)
(0.0355837 -0.286769 0)
(0.0482574 -0.305949 0)
(0.0591492 -0.323268 0)
(0.0675808 -0.337834 0)
(0.0728671 -0.348469 0)
(0.0743818 -0.353655 0)
(0.0716594 -0.351504 0)
(0.0645385 -0.339768 0)
(0.053345 -0.315919 0)
(0.0390582 -0.277357 0)
(0.0234318 -0.221747 0)
(0.00943607 -0.147518 0)
(0.00165862 -0.0546384 0)
(0.00161689 0.0594815 0)
(0.00937512 0.160997 0)
(0.0236543 0.243001 0)
(0.040097 0.305176 0)
(0.0557424 0.348613 0)
(0.0686889 0.37532 0)
(0.0777542 0.387807 0)
(0.0824289 0.388733 0)
(0.0827486 0.380639 0)
(0.0791201 0.365782 0)
(0.0721674 0.34607 0)
(0.0626114 0.323038 0)
(0.051186 0.297882 0)
(0.0385832 0.2715 0)
(0.0254234 0.244543 0)
(0.0122418 0.217465 0)
(-0.000513328 0.190567 0)
(-0.0124758 0.164035 0)
(-0.0233537 0.137968 0)
(-0.0329196 0.112404 0)
(-0.0410015 0.0873401 0)
(-0.0474742 0.0627431 0)
(-0.0522521 0.038562 0)
(-0.0552834 0.0147361 0)
(-0.0565457 -0.00879896 0)
(-0.0560431 -0.0321067 0)
(-0.0538046 -0.0552454 0)
(-0.0498836 -0.078265 0)
(-0.0443587 -0.101204 0)
(-0.0373358 -0.124085 0)
(-0.0289505 -0.146913 0)
(-0.0193725 -0.169667 0)
(-0.00880924 -0.192295 0)
(0.0024884 -0.214708 0)
(0.0142216 -0.236765 0)
(0.0260392 -0.258261 0)
(0.0375346 -0.278908 0)
(0.0482462 -0.298313 0)
(0.0576632 -0.315946 0)
(0.0652388 -0.331115 0)
(0.0704161 -0.342922 0)
(0.0726701 -0.35024 0)
(0.0715707 -0.35168 0)
(0.0668699 -0.345595 0)
(0.0586145 -0.330114 0)
(0.0472763 -0.303241 0)
(0.0338503 -0.263036 0)
(0.0198984 -0.207883 0)
(0.00785601 -0.136846 0)
(0.00134467 -0.0501825 0)
(0.00136814 0.054969 0)
(0.00811141 0.150017 0)
(0.0208161 0.228394 0)
(0.0359278 0.289612 0)
(0.050972 0.334272 0)
(0.0642527 0.363745 0)
(0.0745976 0.379897 0)
(0.0813685 0.384827 0)
(0.0843955 0.38064 0)
(0.0838582 0.369301 0)
(0.0801682 0.352537 0)
(0.0738695 0.331808 0)
(0.0655606 0.308299 0)
(0.0558393 0.282942 0)
(0.0452671 0.256452 0)
(0.0343484 0.229355 0)
(0.0235212 0.202028 0)
(0.0131556 0.174729 0)
(0.0035565 0.147624 0)
(-0.00503117 0.120812 0)
(-0.012416 0.0943396 0)
(-0.0184537 0.0682178 0)
(-0.0230414 0.0424342 0)
(-0.0261121 0.0169615 0)
(-0.0276315 -0.00823496 0)
(-0.0275947 -0.033191 0)
(-0.0260247 -0.0579387 0)
(-0.0229715 -0.0825015 0)
(-0.0185128 -0.10689 0)
(-0.0127551 -0.131098 0)
(-0.00583607 -0.155098 0)
(0.00207312 -0.178831 0)
(0.0107646 -0.202209 0)
(0.0199903 -0.225096 0)
(0.02946 -0.247307 0)
(0.0388389 -0.268585 0)
(0.0477489 -0.288597 0)
(0.0557725 -0.306906 0)
(0.0624626 -0.322952 0)
(0.0673596 -0.336033 0)
(0.070019 -0.345279 0)
(0.0700519 -0.349638 0)
(0.0671812 -0.347868 0)
(0.0613123 -0.338558 0)
(0.0526185 -0.320171 0)
(0.0416303 -0.291144 0)
(0.0292884 -0.250039 0)
(0.016945 -0.195752 0)
(0.00658846 -0.127759 0)
(0.00110479 -0.0464677 0)
(0.00116972 0.0510598 0)
(0.00706094 0.14033 0)
(0.0183664 0.215195 0)
(0.0321575 0.275085 0)
(0.0463664 0.320276 0)
(0.059508 0.351688 0)
(0.070476 0.370697 0)
(0.0785807 0.378944 0)
(0.0835238 0.378159 0)
(0.0853205 0.37002 0)
(0.0842132 0.356068 0)
(0.0805922 0.337653 0)
(0.0749287 0.315919 0)
(0.0677226 0.291799 0)
(0.0594658 0.266039 0)
(0.0506174 0.239215 0)
(0.04159 0.211763 0)
(0.0327431 0.184002 0)
(0.0243811 0.156156 0)
(0.0167554 0.128378 0)
(0.0100679 0.100764 0)
(0.004475 0.0733697 0)
(9.23454e-05 0.0462214 0)
(-0.00300145 0.0193272 0)
(-0.00476136 -0.0073155 0)
(-0.00517346 -0.0337128 0)
(-0.00425328 -0.0598682 0)
(-0.00204511 -0.0857767 0)
(0.00137852 -0.11142 0)
(0.00591537 -0.136762 0)
(0.0114322 -0.161742 0)
(0.0177636 -0.186268 0)
(0.0247097 -0.210214 0)
(0.0320349 -0.233406 0)
(0.0394665 -0.255617 0)
(0.0466961 -0.276554 0)
(0.0533822 -0.295848 0)
(0.0591571 -0.313034 0)
(0.0636387 -0.327542 0)
(0.0664493 -0.33868 0)
(0.0672418 -0.345625 0)
(0.0657372 -0.347412 0)
(0.0617712 -0.342949 0)
(0.0553508 -0.331037 0)
(0.046716 -0.310426 0)
(0.0364006 -0.279899 0)
(0.0252556 -0.238401 0)
(0.01443 -0.185189 0)
(0.00554409 -0.120011 0)
(0.000914851 -0.0433514 0)
(0.0010063 0.0476563 0)
(0.006165 0.131771 0)
(0.0162116 0.203312 0)
(0.0287136 0.26167 0)
(0.0419416 0.30691 0)
(0.0546108 0.339627 0)
(0.0657084 0.360826 0)
(0.0745438 0.371784 0)
(0.0807475 0.373907 0)
(0.0842216 0.368618 0)
(0.0850795 0.357272 0)
(0.0835845 0.341099 0)
(0.0800942 0.321174 0)
(0.0750148 0.29841 0)
(0.068765 0.273561 0)
(0.0617511 0.247234 0)
(0.0543502 0.219905 0)
(0.0468999 0.19194 0)
(0.0396941 0.163614 0)
(0.0329812 0.135127 0)
(0.0269656 0.106621 0)
(0.0218095 0.0781944 0)
(0.0176365 0.0499115 0)
(0.0145337 0.0218159 0)
(0.0125551 -0.00606238 0)
(0.0117231 -0.0336987 0)
(0.0120305 -0.061067 0)
(0.0134412 -0.0881335 0)
(0.0158905 -0.114851 0)
(0.0192847 -0.141152 0)
(0.0235003 -0.166947 0)
(0.0283835 -0.19211 0)
(0.033749 -0.216482 0)
(0.0393802 -0.239856 0)
(0.0450289 -0.261971 0)
(0.0504187 -0.282505 0)
(0.0552487 -0.301064 0)
(0.0592022 -0.317168 0)
(0.061959 -0.330251 0)
(0.0632137 -0.339643 0)
(0.0627001 -0.344574 0)
(0.0602236 -0.344173 0)
(0.0556989 -0.337487 0)
(0.0491939 -0.323505 0)
(0.0409743 -0.301214 0)
(0.0315425 -0.269672 0)
(0.0216457 -0.228111 0)
(0.0122463 -0.176049 0)
(0.00466141 -0.113417 0)
(0.000759556 -0.0407325 0)
(0.000867871 0.0446876 0)
(0.00538271 0.124216 0)
(0.0142809 0.192663 0)
(0.0255317 0.249406 0)
(0.0376878 0.294369 0)
(0.0496474 0.327913 0)
(0.0605028 0.350764 0)
(0.0695943 0.363908 0)
(0.0765212 0.368485 0)
(0.0811138 0.365692 0)
(0.0833912 0.356709 0)
(0.0835154 0.342643 0)
(0.0817475 0.324493 0)
(0.078408 0.303132 0)
(0.0738447 0.279306 0)
(0.0684082 0.253633 0)
(0.0624338 0.226617 0)
(0.0562306 0.19866 0)
(0.0500737 0.170077 0)
(0.0442012 0.141108 0)
(0.0388134 0.111937 0)
(0.0340727 0.0826996 0)
(0.0301059 0.0534979 0)
(0.027006 0.0244092 0)
(0.0248336 -0.00450454 0)
(0.0236191 -0.0331882 0)
(0.023364 -0.0615864 0)
(0.0240415 -0.0896371 0)
(0.0255974 -0.117264 0)
(0.0279495 -0.144373 0)
(0.0309882 -0.170842 0)
(0.0345757 -0.196519 0)
(0.038546 -0.221213 0)
(0.0427059 -0.244688 0)
(0.0468363 -0.266659 0)
(0.0506952 -0.286778 0)
(0.0540237 -0.304636 0)
(0.0565541 -0.319749 0)
(0.0580223 -0.331559 0)
(0.0581843 -0.339427 0)
(0.0568387 -0.34264 0)
(0.0538524 -0.340415 0)
(0.049192 -0.331922 0)
(0.0429562 -0.316312 0)
(0.0354079 -0.292768 0)
(0.0269989 -0.260561 0)
(0.0183686 -0.219141 0)
(0.0103126 -0.168214 0)
(0.00389706 -0.107835 0)
(0.000628801 -0.0385377 0)
(0.000747624 0.0421015 0)
(0.00468502 0.11757 0)
(0.0125213 0.183179 0)
(0.0225577 0.238309 0)
(0.0335847 0.282786 0)
(0.044664 0.316804 0)
(0.0549961 0.340878 0)
(0.0639704 0.355767 0)
(0.071184 0.36239 0)
(0.076426 0.361751 0)
(0.0796501 0.354874 0)
(0.0809409 0.342746 0)
(0.0804798 0.326284 0)
(0.0785125 0.306316 0)
(0.0753208 0.283564 0)
(0.0712 0.258647 0)
(0.0664419 0.232084 0)
(0.0613221 0.204301 0)
(0.0560918 0.175644 0)
(0.0509732 0.146388 0)
(0.046157 0.116751 0)
(0.0418011 0.0869024 0)
(0.038032 0.0569786 0)
(0.0349448 0.0270886 0)
(0.0326053 -0.00267535 0)
(0.0310508 -0.0322291 0)
(0.0302913 -0.0614896 0)
(0.0303103 -0.0903673 0)
(0.0310654 -0.118759 0)
(0.0324886 -0.146544 0)
(0.0344867 -0.173574 0)
(0.0369408 -0.19967 0)
(0.0397078 -0.224615 0)
(0.0426207 -0.248149 0)
(0.0454913 -0.269964 0)
(0.0481136 -0.289696 0)
(0.0502691 -0.306926 0)
(0.0517356 -0.321171 0)
(0.0522981 -0.331885 0)
(0.0517639 -0.338464 0)
(0.0499807 -0.340246 0)
(0.0468587 -0.336529 0)
(0.0423947 -0.326592 0)
(0.0366964 -0.30972 0)
(0.0300052 -0.28525 0)
(0.0227118 -0.252625 0)
(0.0153498 -0.211456 0)
(0.00856743 -0.161587 0)
(0.00321983 -0.10316 0)
(0.000515673 -0.0367134 0)
(0.000640802 0.039859 0)
(0.00405083 0.11176 0)
(0.0108926 0.174806 0)
(0.0197477 0.228384 0)
(0.0296089 0.272255 0)
(0.0396842 0.306495 0)
(0.0492794 0.331456 0)
(0.057844 0.34772 0)
(0.0649918 0.35603 0)
(0.0704942 0.357228 0)
(0.0742626 0.352197 0)
(0.0763247 0.341816 0)
(0.0767982 0.326923 0)
(0.0758652 0.308293 0)
(0.0737484 0.28662 0)
(0.070691 0.262513 0)
(0.0669408 0.236496 0)
(0.0627382 0.209011 0)
(0.0583071 0.180426 0)
(0.0538498 0.151044 0)
(0.0495431 0.12111 0)
(0.0455369 0.0908251 0)
(0.0419534 0.0603545 0)
(0.0388879 0.0298359 0)
(0.0364089 -0.000610577 0)
(0.0345593 -0.0308743 0)
(0.0333574 -0.0608462 0)
(0.0327972 -0.0904116 0)
(0.0328492 -0.119443 0)
(0.0334608 -0.147795 0)
(0.0345569 -0.175295 0)
(0.0360399 -0.201741 0)
(0.0377911 -0.226895 0)
(0.0396715 -0.250474 0)
(0.0415244 -0.272154 0)
(0.0431792 -0.291559 0)
(0.0444559 -0.308261 0)
(0.0451736 -0.321781 0)
(0.0451593 -0.33159 0)
(0.0442614 -0.337113 0)
(0.0423644 -0.337737 0)
(0.0394065 -0.33283 0)
(0.0353984 -0.32176 0)
(0.0304414 -0.303922 0)
(0.0247432 -0.278777 0)
(0.0186281 -0.245899 0)
(0.0125294 -0.205022 0)
(0.00696363 -0.156093 0)
(0.00260685 -0.0993127 0)
(0.000415299 -0.0352203 0)
(0.000543985 0.037931 0)
(0.00346455 0.106731 0)
(0.00936398 0.167497 0)
(0.0170659 0.219629 0)
(0.025738 0.262844 0)
(0.0347185 0.297128 0)
(0.0434144 0.322718 0)
(0.0513405 0.340054 0)
(0.0581403 0.34974 0)
(0.0635846 0.352482 0)
(0.0675606 0.349045 0)
(0.0700557 0.340212 0)
(0.0711388 0.326745 0)
(0.0709393 0.309367 0)
(0.0696279 0.28874 0)
(0.0674002 0.265456 0)
(0.0644616 0.240038 0)
(0.0610168 0.212936 0)
(0.0572607 0.184533 0)
(0.0533728 0.155153 0)
(0.0495134 0.125064 0)
(0.0458207 0.0944924 0)
(0.0424104 0.0636278 0)
(0.039375 0.0326332 0)
(0.0367842 0.00165309 0)
(0.0346853 -0.029178 0)
(0.0331038 -0.0597279 0)
(0.032044 -0.0898596 0)
(0.0314899 -0.119424 0)
(0.0314048 -0.148253 0)
(0.0317328 -0.176154 0)
(0.0323987 -0.202905 0)
(0.033309 -0.228248 0)
(0.0343532 -0.251884 0)
(0.0354064 -0.273474 0)
(0.0363316 -0.29263 0)
(0.0369851 -0.308923 0)
(0.0372225 -0.321877 0)
(0.0369068 -0.330976 0)
(0.0359188 -0.335671 0)
(0.0341694 -0.335392 0)
(0.0316129 -0.329564 0)
(0.028262 -0.317627 0)
(0.0242005 -0.299063 0)
(0.0195952 -0.273432 0)
(0.0147019 -0.240406 0)
(0.00985873 -0.199812 0)
(0.00546507 -0.151673 0)
(0.00204107 -0.0962326 0)
(0.000324161 -0.0340295 0)
(0.000454651 0.0362953 0)
(0.00291443 0.102439 0)
(0.00791178 0.161218 0)
(0.0144837 0.212041 0)
(0.0219513 0.254598 0)
(0.0297706 0.288814 0)
(0.0374439 0.314833 0)
(0.0445539 0.332994 0)
(0.0507822 0.343787 0)
(0.0559111 0.347809 0)
(0.0598177 0.345727 0)
(0.0624633 0.338239 0)
(0.0638797 0.326041 0)
(0.0641535 0.309805 0)
(0.0634113 0.29016 0)
(0.0618052 0.26768 0)
(0.0595013 0.24288 0)
(0.056669 0.216213 0)
(0.0534734 0.188071 0)
(0.0500699 0.158791 0)
(0.0465997 0.128662 0)
(0.0431874 0.0979282 0)
(0.0399396 0.0668002 0)
(0.0369439 0.035462 0)
(0.0342693 0.00407898 0)
(0.031966 -0.0271941 0)
(0.0300659 -0.0582054 0)
(0.0285833 -0.0887983 0)
(0.027515 -0.118805 0)
(0.0268408 -0.148039 0)
(0.0265242 -0.17629 0)
(0.0265127 -0.203319 0)
(0.0267383 -0.228851 0)
(0.0271191 -0.252573 0)
(0.0275608 -0.274134 0)
(0.0279593 -0.29314 0)
(0.0282039 -0.309154 0)
(0.028183 -0.321705 0)
(0.0277899 -0.330289 0)
(0.0269311 -0.334377 0)
(0.0255354 -0.333432 0)
(0.0235649 -0.326923 0)
(0.0210249 -0.314347 0)
(0.0179747 -0.295253 0)
(0.0145353 -0.269274 0)
(0.0108942 -0.236158 0)
(0.00729925 -0.195802 0)
(0.00404372 -0.148282 0)
(0.00150959 -0.0938757 0)
(0.000239658 -0.0331198 0)
(0.000370893 0.0349353 0)
(0.00239142 0.0988532 0)
(0.00651734 0.15594 0)
(0.0119777 0.205616 0)
(0.0182311 0.247553 0)
(0.0248402 0.281632 0)
(0.0313982 0.307934 0)
(0.0375559 0.326716 0)
(0.0430385 0.338383 0)
(0.0476485 0.343447 0)
(0.0512635 0.342494 0)
(0.0538293 0.336151 0)
(0.055351 0.325056 0)
(0.0558811 0.309836 0)
(0.0555084 0.291088 0)
(0.0543468 0.269366 0)
(0.0525255 0.245175 0)
(0.0501799 0.218964 0)
(0.0474458 0.191133 0)
(0.0444532 0.162027 0)
(0.0413229 0.131947 0)
(0.0381639 0.101153 0)
(0.0350717 0.0698713 0)
(0.0321273 0.0383033 0)
(0.0293972 0.00663082 0)
(0.0269332 -0.0249749 0)
(0.0247724 -0.0563457 0)
(0.0229381 -0.0873092 0)
(0.0214396 -0.117682 0)
(0.0202728 -0.147263 0)
(0.0194206 -0.175827 0)
(0.0188527 -0.203121 0)
(0.018527 -0.228856 0)
(0.0183894 -0.252708 0)
(0.0183756 -0.274315 0)
(0.0184123 -0.293275 0)
(0.0184201 -0.309149 0)
(0.0183167 -0.321465 0)
(0.0180213 -0.329725 0)
(0.0174609 -0.333418 0)
(0.0165763 -0.332027 0)
(0.0153304 -0.325054 0)
(0.0137156 -0.312036 0)
(0.0117615 -0.292572 0)
(0.00954069 -0.266348 0)
(0.00717266 -0.233166 0)
(0.00481987 -0.192974 0)
(0.00267759 -0.145889 0)
(0.00100247 -0.09221 0)
(0.000159824 -0.0324762 0)
(0.000291224 0.0338388 0)
(0.00188838 0.0959483 0)
(0.00516565 0.151642 0)
(0.00952865 0.20035 0)
(0.0145614 0.241733 0)
(0.0199252 0.275644 0)
(0.0252994 0.302117 0)
(0.0304028 0.321354 0)
(0.0350074 0.333694 0)
(0.0389422 0.339584 0)
(0.0420929 0.339546 0)
(0.0443984 0.334152 0)
(0.0458447 0.32399 0)
(0.0464576 0.309648 0)
(0.0462939 0.291695 0)
(0.0454335 0.270664 0)
(0.0439715 0.247048 0)
(0.0420112 0.221293 0)
(0.0396589 0.193798 0)
(0.0370192 0.164914 0)
(0.0341914 0.134951 0)
(0.0312673 0.104179 0)
(0.0283299 0.0728367 0)
(0.0254519 0.0411363 0)
(0.0226956 0.00927288 0)
(0.0201129 -0.0225696 0)
(0.017745 -0.0542107 0)
(0.0156231 -0.085466 0)
(0.0137683 -0.11614 0)
(0.0121918 -0.146021 0)
(0.0108954 -0.174871 0)
(0.00987109 -0.202426 0)
(0.00910159 -0.228388 0)
(0.00856038 -0.252423 0)
(0.00821212 -0.274159 0)
(0.00801341 -0.293186 0)
(0.00791397 -0.30906 0)
(0.0078585 -0.321308 0)
(0.00778933 -0.329434 0)
(0.00764989 -0.332933 0)
(0.00738907 -0.331302 0)
(0.00696626 -0.324062 0)
(0.00635689 -0.310777 0)
(0.00555774 -0.291077 0)
(0.00459168 -0.264683 0)
(0.00351083 -0.231435 0)
(0.00239553 -0.191315 0)
(0.00134917 -0.144468 0)
(0.000511883 -0.091213 0)
(8.31269e-05 -0.0320881 0)
(0.000214443 0.0329967 0)
(0.00139943 0.0937071 0)
(0.00384423 0.148308 0)
(0.00712016 0.196239 0)
(0.0109281 0.237155 0)
(0.0150219 0.270892 0)
(0.0191637 0.297456 0)
(0.0231396 0.317008 0)
(0.0267705 0.329844 0)
(0.0299159 0.336361 0)
(0.0324752 0.337038 0)
(0.0343863 0.332399 0)
(0.0356226 0.322997 0)
(0.0361885 0.309387 0)
(0.0361136 0.292113 0)
(0.0354472 0.271689 0)
(0.034253 0.248597 0)
(0.0326035 0.223277 0)
(0.0305763 0.196125 0)
(0.02825 0.167494 0)
(0.025702 0.137698 0)
(0.0230058 0.107014 0)
(0.0202302 0.0756866 0)
(0.0174382 0.0439374 0)
(0.0146865 0.0119696 0)
(0.0120256 -0.0200246 0)
(0.00949957 -0.0518563 0)
(0.00714623 -0.0833329 0)
(0.00499747 -0.114251 0)
(0.00307913 -0.144391 0)
(0.00141103 -0.173507 0)
(6.803e-06 -0.201328 0)
(-0.00112638 -0.227546 0)
(-0.00198819 -0.25182 0)
(-0.00258551 -0.273769 0)
(-0.00293281 -0.292978 0)
(-0.00305224 -0.308995 0)
(-0.00297344 -0.321341 0)
(-0.0027329 -0.329518 0)
(-0.00237265 -0.333018 0)
(-0.00193828 -0.331343 0)
(-0.00147619 -0.324021 0)
(-0.00103029 -0.310627 0)
(-0.000638216 -0.290806 0)
(-0.000327658 -0.264299 0)
(-0.000113162 -0.230968 0)
(5.69295e-06 -0.190816 0)
(4.4202e-05 -0.144007 0)
(3.14828e-05 -0.0908699 0)
(8.33696e-06 -0.0319487 0)
(0.000139529 0.032403 0)
(0.000919526 0.0921174 0)
(0.00254216 0.145927 0)
(0.00473755 0.19328 0)
(0.00731786 0.233831 0)
(0.0101255 0.267407 0)
(0.0130031 0.294 0)
(0.0158033 0.313748 0)
(0.0183971 0.326918 0)
(0.0206771 0.333879 0)
(0.0225601 0.335076 0)
(0.0239872 0.331004 0)
(0.0249236 0.322188 0)
(0.0253561 0.309157 0)
(0.0252906 0.292436 0)
(0.0247487 0.272524 0)
(0.0237644 0.249891 0)
(0.0223807 0.224969 0)
(0.0206469 0.198151 0)
(0.0186158 0.169789 0)
(0.0163417 0.140196 0)