/*--------------------------------*- C++ -*----------------------------------*\
  =========                 |
  \\      /  F ield         | OpenFOAM: The Open Source CFD Toolbox
   \\    /   O peration     | Website:  https://openfoam.org
    \\  /    A nd           | Version:  7
     \\/     M anipulation  |
\*---------------------------------------------------------------------------*/
FoamFile
{
    version     2.0;
    format      ascii;
    class       volScalarField;
    location    "0.0572";
    object      p;
}
// * * * * * * * * * * * * * * * * * * * * * * * * * * * * * * * * * * * * * //

dimensions      [0 2 -2 0 0 0 0];

internalField   nonuniform List<scalar> 
2500
(
3.93387e-06
-0.000507284
-0.00213061
-0.00453546
-0.00735926
-0.0102912
-0.0130963
-0.0155907
-0.0176354
-0.0191288
-0.0200004
-0.0202046
-0.0197169
-0.0185303
-0.0166527
-0.0141046
-0.0109174
-0.00713177
-0.00279634
0.00203308
0.0072946
0.0129211
0.0188408
0.0249782
0.0312546
0.0375892
0.0438991
0.0501011
0.0561117
0.061849
0.067233
0.0721876
0.0766414
0.0805294
0.0837946
0.0863895
0.0882784
0.089439
0.0898644
0.0895657
0.0885746
0.086946
0.0847624
0.0821375
0.0792229
0.0762123
0.0733496
0.0709368
0.0693541
0.0688862
0.000524624
1.33533e-05
-0.00130601
-0.00321765
-0.00543917
-0.00775462
-0.00997882
-0.0119584
-0.013572
-0.0147268
-0.0153556
-0.0154126
-0.0148705
-0.0137184
-0.0119588
-0.00960664
-0.00668693
-0.00323382
0.000710689
0.00509779
0.00987267
0.0149754
0.0203415
0.0259031
0.0315891
0.0373263
0.0430401
0.0486554
0.0540972
0.0592921
0.0641688
0.0686597
0.0727022
0.0762397
0.0792234
0.0816136
0.0833817
0.0845115
0.0850011
0.0848653
0.084137
0.08287
0.0811411
0.079053
0.0767367
0.0743541
0.0720972
0.0701826
0.068882
0.0684184
0.00214921
0.00133891
6.58369e-06
-0.0017208
-0.00366819
-0.00566705
-0.00756873
-0.00924717
-0.010599
-0.0115428
-0.0120177
-0.011981
-0.0114064
-0.0102818
-0.00860765
-0.0063956
-0.00366696
-0.000451618
0.00321305
0.00728308
0.0117088
0.0164355
0.0214043
0.0265526
0.0318153
0.037125
0.0424129
0.0476099
0.0526472
0.0574573
0.0619751
0.0661391
0.0698925
0.0731842
0.0759708
0.0782174
0.0798994
0.081004
0.0815313
0.0814966
0.0809315
0.0798859
0.0784291
0.0766513
0.0746645
0.0726025
0.0706195
0.0688858
0.0675783
0.0668402
0.00458992
0.00326488
0.00171373
-4.20472e-05
-0.00192244
-0.00379423
-0.00553771
-0.00705167
-0.0082509
-0.00906662
-0.00944629
-0.00935256
-0.00876195
-0.00766346
-0.00605731
-0.00395374
-0.00137187
0.00166121
0.00511138
0.00893831
0.0130962
0.0175345
0.0221987
0.0270306
0.0319696
0.0369528
0.0419164
0.0467957
0.0515266
0.0560464
0.0602943
0.0642133
0.0677506
0.0708591
0.0734987
0.0756374
0.0772527
0.0783332
0.0788791
0.0789044
0.0784375
0.0775225
0.0762201
0.0746077
0.0727792
0.0708438
0.0689273
0.0671662
0.0656489
0.064412
0.00750527
0.00554415
0.00366196
0.00176147
-0.000167045
-0.00201887
-0.00369884
-0.00512851
-0.00624029
-0.00697825
-0.00729915
-0.00717199
-0.00657734
-0.00550647
-0.00396039
-0.00194901
0.000509733
0.00339067
0.00666218
0.0102868
0.014222
0.0184207
0.0228319
0.0274014
0.0320724
0.0367861
0.0414823
0.0461006
0.0505806
0.0548634
0.0588918
0.0626121
0.0659747
0.0689352
0.0714558
0.0735062
0.0750651
0.0761208
0.0766727
0.0767324
0.076324
0.0754852
0.0742673
0.0727352
0.0709657
0.0690462
0.0670789
0.0651732
0.0633325
0.0614766
0.0106307
0.00798453
0.00570124
0.00357364
0.00151025
-0.000405992
-0.00209981
-0.00351274
-0.00459318
-0.00529757
-0.00559204
-0.00545249
-0.00486423
-0.00382156
-0.00232716
-0.00039148
0.00196795
0.0047271
0.00785604
0.0113195
0.0150775
0.0190857
0.0232962
0.0276579
0.0321172
0.0366186
0.0411051
0.0455194
0.0498043
0.0539036
0.057763
0.0613312
0.0645605
0.0674086
0.0698387
0.0718213
0.0733349
0.0743669
0.0749149
0.0749871
0.0746028
0.0737929
0.0725998
0.0710764
0.0692845
0.0672925
0.065184
0.0630485
0.0608109
0.0582841
0.0137675
0.0104242
0.00769945
0.00528754
0.00302496
0.000979106
-0.000790228
-0.00224148
-0.00333716
-0.00404509
-0.00434032
-0.00420571
-0.0036317
-0.00261616
-0.00116404
0.000713038
0.00299725
0.00566498
0.00868734
0.0120306
0.0156566
0.0195233
0.023585
0.0277932
0.0320967
0.0364426
0.0407766
0.0450436
0.0491887
0.0531578
0.0568985
0.0603609
0.0634987
0.0662702
0.068639
0.0705753
0.0720565
0.0730686
0.0736062
0.0736738
0.0732855
0.0724655
0.0712477
0.0696746
0.0677947
0.065661
0.0633432
0.0609172
0.058239
0.0550267
0.0167619
0.0127278
0.00954138
0.00680841
0.00430218
0.00207972
0.000189136
-0.0013421
-0.00248872
-0.00322862
-0.00354524
-0.00342813
-0.00287292
-0.00188133
-0.00046098
0.00137482
0.00360741
0.00621308
0.0091634
0.0124256
0.0159627
0.0197343
0.0236966
0.0278027
0.0320036
0.0362481
0.0404839
0.0446575
0.0487156
0.0526054
0.0562756
0.059677
0.0627638
0.065494
0.0678308
0.0697432
0.0712071
0.0722059
0.0727311
0.0727829
0.0723702
0.0715108
0.0702307
0.0685632
0.066546
0.0642197
0.0616441
0.0588868
0.055744
0.0518487
0.0194937
0.0147827
0.011126
0.00804919
0.00526943
0.00283734
0.000792507
-0.000849157
-0.00207285
-0.00286536
-0.00321775
-0.00312586
-0.00259042
-0.0016171
-0.000216441
0.00159621
0.00380099
0.0063736
0.0092856
0.0125046
0.0159946
0.0197159
0.0236261
0.0276798
0.0318291
0.0360243
0.0402141
0.0443464
0.0483686
0.0522286
0.0558754
0.0592598
0.0623356
0.0650601
0.0673952
0.069308
0.0707721
0.0717679
0.0722833
0.072314
0.0718638
0.0709442
0.0695744
0.0677798
0.0655891
0.0630331
0.0601654
0.0570496
0.053429
0.04886
0.0218678
0.0164943
0.0123645
0.00892979
0.00585669
0.00319229
0.000970136
-0.000803373
-0.00212226
-0.00298112
-0.00337789
-0.00331429
-0.00279595
-0.00183247
-0.00043745
0.00137152
0.00357301
0.00614181
0.00904904
0.0122623
0.0157459
0.0194609
0.0233655
0.027415
0.0315626
0.0357592
0.0399544
0.0440964
0.0481329
0.052012
0.0556822
0.0590938
0.0621994
0.0649548
0.0673201
0.0692599
0.0707449
0.071752
0.0722651
0.0722752
0.0717811
0.0707885
0.0693104
0.0673654
0.0649751
0.0621628
0.0589785
0.0554851
0.0513787
0.0461447
0.0238056
0.0177809
0.0131773
0.00937602
0.00599669
0.00308493
0.000670112
-0.00124921
-0.00267459
-0.00360747
-0.00405198
-0.00401531
-0.00350775
-0.00254278
-0.00113712
0.000689224
0.00291306
0.00550792
0.00844419
0.0116891
0.015207
0.0189589
0.0229035
0.0269966
0.0311916
0.0354398
0.0396909
0.0438932
0.0479942
0.0519413
0.0556822
0.0591659
0.0623433
0.0651682
0.0675979
0.0695943
0.0711244
0.0721613
0.0726844
0.0726803
0.0721423
0.0710709
0.0694733
0.0673627
0.0647546
0.061667
0.0581484
0.0542632
0.0496641
0.0437694
0.0252386
0.0185695
0.0134914
0.00931794
0.00562409
0.0024555
-0.0001613
-0.00223434
-0.0037717
-0.00478091
-0.00527172
-0.00525643
-0.00474978
-0.00376904
-0.00233408
-0.00046744
0.00180573
0.00445749
0.00745722
0.0107715
0.0143642
0.0181964
0.0222266
0.0264105
0.0307017
0.0350514
0.039409
0.0437224
0.0479382
0.0520029
0.0558628
0.0594649
0.062758
0.0656931
0.0682245
0.0703104
0.0719139
0.0730036
0.0735544
0.0735478
0.072972
0.0718225
0.0701011
0.0678162
0.0649787
0.0616023
0.0577357
0.0534471
0.0483475
0.0417901
0.0261043
0.0187923
0.0132379
0.00868806
0.0046744
0.00124355
-0.00157983
-0.00380952
-0.00545942
-0.00654254
-0.00707385
-0.00707043
-0.00655133
-0.00553755
-0.00405213
-0.00212023
0.000230882
0.00297163
0.00607015
0.00949213
0.0132007
0.0171567
0.021318
0.0256403
0.0300767
0.0345781
0.0390931
0.0435687
0.0479507
0.0521838
0.0562123
0.0599811
0.0634362
0.0665252
0.0691988
0.071411
0.0731204
0.0742909
0.0748923
0.0749007
0.0742993
0.0730782
0.0712347
0.0687727
0.0656991
0.0620246
0.0577993
0.0530961
0.0474859
0.0402565
0.0263424
0.0183839
0.0123495
0.00741968
0.00308287
-0.000612671
-0.00364353
-0.00602869
-0.0077874
-0.00893777
-0.0094997
-0.0094949
-0.00894659
-0.00787948
-0.00631983
-0.0042955
-0.001836
0.0010273
0.00426109
0.00782997
0.0116963
0.01582
0.0201586
0.0246672
0.0292983
0.0340019
0.038726
0.0434162
0.0480168
0.0524706
0.0567196
0.0607059
0.0643721
0.067662
0.0705222
0.0729019
0.0747547
0.0760391
0.0767193
0.0767661
0.0761569
0.0748769
0.0729185
0.0702814
0.0669695
0.0629906
0.0583975
0.0532688
0.0471346
0.0392165
0.0258929
0.0172791
0.010759
0.00544541
0.000783355
-0.00317702
-0.00641321
-0.00894912
-0.0108091
-0.0120162
-0.012595
-0.0125719
-0.0119743
-0.0108305
-0.00917012
-0.00702383
-0.00442348
-0.00140239
0.00200457
0.00576074
0.00982742
0.0141638
0.0187265
0.02347
0.0283459
0.0333035
0.0382893
0.0432477
0.0481211
0.0528499
0.0573736
0.0616309
0.0655607
0.0691026
0.0721981
0.0747913
0.0768301
0.0782672
0.0790605
0.0791749
0.078582
0.0772613
0.0752005
0.0723954
0.0688465
0.0645598
0.0595908
0.0540247
0.0473497
0.0387191
0.0246933
0.0154107
0.00839702
0.00269576
-0.00229277
-0.00651626
-0.009953
-0.0126318
-0.0145819
-0.0158314
-0.0164098
-0.0163479
-0.0156773
-0.0144303
-0.0126399
-0.0103396
-0.00756377
-0.00434776
-0.000728137
0.00325704
0.00756794
0.0121628
0.0169974
0.0220253
0.0271973
0.0324614
0.0377629
0.0430447
0.0482469
0.0533075
0.0581629
0.0627482
0.0669979
0.0708469
0.0742314
0.0770895
0.0793628
0.0809973
0.0819444
0.082162
0.0816155
0.0802784
0.0781333
0.0751718
0.0713912
0.0667954
0.0614431
0.0554268
0.0481908
0.0388167
0.0226774
0.0127085
0.00519135
-0.000902114
-0.00621766
-0.0107009
-0.014331
-0.0171416
-0.0191674
-0.0204414
-0.0209981
-0.0208731
-0.0201025
-0.0187226
-0.0167698
-0.0142807
-0.0112923
-0.00784212
-0.00396857
0.000288855
0.00488915
0.00978947
0.0149448
0.0203077
0.025828
0.0314526
0.0371255
0.0427875
0.0483768
0.0538285
0.0590756
0.0640494
0.0686796
0.0728959
0.0766283
0.0798085
0.082371
0.0842545
0.0854027
0.0857661
0.085303
0.0839802
0.0817747
0.0786733
0.0746698
0.0697659
0.064024
0.0575437
0.0497231
0.0395678
0.019774
0.00909735
0.00106495
-0.00542558
-0.011068
-0.015806
-0.0196196
-0.0225481
-0.0246314
-0.0259082
-0.0264182
-0.026202
-0.0253005
-0.0237542
-0.0216033
-0.0188876
-0.015647
-0.0119212
-0.00775052
-0.00317591
0.00176038
0.00701449
0.0125405
0.0182901
0.0242123
0.0302527
0.0363539
0.0424551
0.0484919
0.0543968
0.0600991
0.0655258
0.0706017
0.0752505
0.0793956
0.0829616
0.0858751
0.0880663
0.0894706
0.0900301
0.0896947
0.0884239
0.086188
0.0829686
0.0787552
0.0735471
0.06741
0.0604511
0.0520191
0.0410385
0.0159057
0.0044962
-0.00406494
-0.0109577
-0.0169261
-0.021912
-0.0258968
-0.0289257
-0.0310447
-0.0322983
-0.0327322
-0.0323924
-0.0313249
-0.0295749
-0.0271866
-0.0242035
-0.020668
-0.0166226
-0.0121094
-0.0071708
-0.00185035
0.00380718
0.00975511
0.0159444
0.022323
0.0288359
0.0354241
0.0420252
0.0485725
0.0549955
0.06122
0.0671682
0.0727597
0.0779119
0.082541
0.0865634
0.089897
0.0924629
0.0941866
0.0950007
0.0948458
0.0936725
0.0914434
0.0881339
0.0837286
0.0782231
0.0716866
0.0642341
0.0551609
0.0433049
0.0109878
-0.00118317
-0.0102881
-0.0175884
-0.0238807
-0.0291056
-0.0332463
-0.0363543
-0.0384828
-0.0396827
-0.0400061
-0.0395055
-0.0382324
-0.036237
-0.033568
-0.0302726
-0.0263966
-0.0219847
-0.0170812
-0.0117299
-0.00597551
0.000136477
0.00655872
0.0132416
0.0201326
0.0271758
0.0343113
0.0414748
0.0485978
0.0556068
0.0624238
0.0689666
0.0751488
0.0808812
0.0860722
0.0906293
0.0944607
0.0974769
0.0995928
0.10073
0.100817
0.0997957
0.0976188
0.0942542
0.0896802
0.0838882
0.0769502
0.068989
0.0592422
0.0464546
0.00492711
-0.00803729
-0.0177027
-0.0254155
-0.0320285
-0.0374808
-0.0417582
-0.0449198
-0.0470264
-0.0481366
-0.0483099
-0.0476056
-0.0460817
-0.0437941
-0.0407965
-0.0371401
-0.0328741
-0.0280459
-0.0227017
-0.0168869
-0.010647
-0.00402814
0.00292197
0.0101535
0.0176137
0.0252462
0.0329902
0.0407806
0.0485465
0.0562121
0.0636957
0.0709102
0.0777636
0.0841593
0.0899973
0.0951756
0.0995914
0.103144
0.105735
0.107273
0.107675
0.10687
0.104801
0.101424
0.0967116
0.0906488
0.0833097
0.0748251
0.0643702
0.050589
-0.0023786
-0.0161723
-0.0264163
-0.0345466
-0.0414749
-0.0471399
-0.0515306
-0.0547146
-0.056762
-0.0577399
-0.0577166
-0.0567592
-0.0549332
-0.0523008
-0.0489212
-0.0448502
-0.0401407
-0.0348429
-0.0290048
-0.0226734
-0.0158947
-0.00871532
-0.0011828
0.0066532
0.0147401
0.0230216
0.0314367
0.0399194
0.0483976
0.0567928
0.0650201
0.0729879
0.080598
0.0877465
0.0943244
0.100219
0.105316
0.1095
0.112661
0.114691
0.115494
0.114982
0.113085
0.10975
0.104937
0.098625
0.0908892
0.0818677
0.0706678
0.0558253
-0.0110424
-0.0257056
-0.0365478
-0.0450998
-0.0523358
-0.0581946
-0.0626695
-0.0658383
-0.0677816
-0.0685769
-0.0683025
-0.0670349
-0.0648479
-0.0618111
-0.0579899
-0.0534453
-0.0482341
-0.0424094
-0.0360213
-0.0291176
-0.0217452
-0.0139503
-0.00577999
0.00271677
0.0114882
0.0204788
0.029628
0.0388695
0.0481303
0.0573304
0.0663817
0.0751883
0.083646
0.0916432
0.0990616
0.105777
0.111662
0.116587
0.120425
0.123052
0.124353
0.124224
0.122579
0.11935
0.114485
0.107953
0.0998299
0.0902598
0.0782765
0.0622987
-0.0211892
-0.0367672
-0.0482292
-0.0572061
-0.0647391
-0.0707675
-0.0752905
-0.0783981
-0.0801832
-0.080736
-0.0801463
-0.0785018
-0.075886
-0.0723771
-0.0680475
-0.0629639
-0.0571874
-0.0507742
-0.0437763
-0.0362424
-0.0282194
-0.0197529
-0.010889
-0.00167508
0.00783873
0.0175983
0.0275443
0.0376113
0.0477261
0.0578077
0.0677656
0.0774999
0.0869009
0.0958493
0.104217
0.111868
0.118659
0.124447
0.129083
0.132427
0.134341
0.134702
0.133403
0.130359
0.125503
0.118789
0.110293
0.100166
0.0873594
0.0701658
-0.0329579
-0.0495024
-0.061608
-0.0710117
-0.0788265
-0.0849937
-0.0895199
-0.0925096
-0.0940712
-0.0943094
-0.0933284
-0.0912287
-0.0881056
-0.0840471
-0.0791336
-0.0734383
-0.0670268
-0.0599586
-0.0522874
-0.0440626
-0.0353306
-0.0261357
-0.0165221
-0.00653497
0.00377816
0.0143657
0.0251706
0.036129
0.0471691
0.0582094
0.0691581
0.0799121
0.0903566
0.100365
0.109798
0.118508
0.126338
0.133123
0.138696
0.142893
0.145554
0.146529
0.14569
0.142927
0.138154
0.13131
0.122465
0.111775
0.0981042
0.079607
-0.0465036
-0.0640747
-0.0768501
-0.0866807
-0.0947567
-0.101023
-0.105496
-0.108298
-0.109556
-0.109393
-0.10793
-0.105283
-0.101561
-0.0968635
-0.0912806
-0.0848921
-0.0777689
-0.0699737
-0.0615617
-0.0525826
-0.0430816
-0.0331009
-0.0226821
-0.0118666
-0.000698687
0.010774
0.022498
0.0344124
0.0464477
0.0585236
0.070548
0.0824157
0.0940074
0.105189
0.115814
0.125718
0.134729
0.142662
0.149328
0.154535
0.158097
0.159835
0.159589
0.157224
0.152627
0.145717
0.136557
0.125305
0.110728
0.0908314
-0.0620006
-0.0806689
-0.0941439
-0.104399
-0.112708
-0.119021
-0.12337
-0.125897
-0.126754
-0.126084
-0.12403
-0.120727
-0.116299
-0.11086
-0.10451
-0.0973371
-0.0894177
-0.0808174
-0.0715929
-0.0617933
-0.0514619
-0.0406381
-0.0293592
-0.0176624
-0.00558648
0.00682576
0.019526
0.0324581
0.0455561
0.0587428
0.0719272
0.0850033
0.0978487
0.110324
0.12227
0.133514
0.143863
0.153112
0.161046
0.167443
0.172085
0.174757
0.175265
0.17344
0.169135
0.162244
0.152815
0.141009
0.125483
0.104081
-0.0796466
-0.0994967
-0.113705
-0.124377
-0.132881
-0.139176
-0.143309
-0.145454
-0.145787
-0.144482
-0.141706
-0.137616
-0.132357
-0.126058
-0.118829
-0.11077
-0.10196
-0.0924706
-0.0823574
-0.0716686
-0.0604447
-0.0487209
-0.036529
-0.0239003
-0.0108669
0.00253526
0.0162646
0.0302716
0.0444961
0.0588654
0.0732918
0.0876704
0.101877
0.115768
0.129176
0.141913
0.153771
0.164521
0.17392
0.181712
0.18764
0.191451
0.192905
0.191791
0.187922
0.181156
0.171523
0.159179
0.142662
0.119637
-0.0996684
-0.120803
-0.135783
-0.14686
-0.155508
-0.161697
-0.1655
-0.167124
-0.166784
-0.164686
-0.161029
-0.155999
-0.14976
-0.142461
-0.134228
-0.125166
-0.115364
-0.104893
-0.0938106
-0.0821618
-0.069983
-0.0573036
-0.0441487
-0.0305415
-0.016506
-0.00206912
0.0127364
0.0278696
0.0432784
0.058897
0.0746434
0.0904159
0.106091
0.121522
0.136536
0.150932
0.164483
0.176938
0.188021
0.197442
0.204897
0.210085
0.212715
0.212521
0.209267
0.202762
0.19301
0.180158
0.162607
0.137826
-0.12233
-0.144875
-0.160672
-0.172133
-0.180853
-0.186822
-0.190145
-0.191076
-0.189875
-0.186791
-0.182062
-0.175904
-0.168513
-0.160055
-0.150671
-0.140479
-0.129571
-0.11802
-0.105883
-0.0932019
-0.0800063
-0.0663183
-0.0521543
-0.0375277
-0.0224518
-0.00694258
0.00897835
0.0252811
0.0419242
0.0588517
0.0759896
0.0932428
0.110491
0.127588
0.144355
0.160582
0.176025
0.190407
0.203421
0.214735
0.223995
0.230842
0.234923
0.235906
0.233488
0.227418
0.217662
0.204349
0.185722
0.159034
-0.147941
-0.172053
-0.188718
-0.200531
-0.209225
-0.214823
-0.217474
-0.217491
-0.215194
-0.210886
-0.20485
-0.197346
-0.188597
-0.178794
-0.168096
-0.156628
-0.14449
-0.131755
-0.118476
-0.10469
-0.0904175
-0.0756721
-0.0604587
-0.0447785
-0.0286322
-0.0120222
0.00504358
0.0225491
0.0404664
0.0587524
0.0773447
0.0961578
0.115079
0.133964
0.152635
0.170872
0.188417
0.20497
0.220188
0.233695
0.245081
0.25392
0.259782
0.262254
0.26095
0.25554
0.245932
0.232225
0.212483
0.183713
-0.176873
-0.202751
-0.22034
-0.232452
-0.240988
-0.246012
-0.24774
-0.246562
-0.242873
-0.237046
-0.229422
-0.220306
-0.20996
-0.1986
-0.186402
-0.173501
-0.159999
-0.145969
-0.131458
-0.116494
-0.10109
-0.0852439
-0.0689485
-0.0521901
-0.0349537
-0.0172259
0.00100227
0.0197313
0.0389501
0.0586317
0.0787293
0.0991712
0.119856
0.140648
0.16137
0.181801
0.201671
0.220657
0.238382
0.254422
0.268305
0.279527
0.287569
0.291915
0.292074
0.28761
0.278354
0.264354
0.24346
0.212402
-0.20958
-0.237471
-0.256051
-0.26838
-0.276568
-0.280748
-0.281222
-0.278487
-0.273037
-0.265327
-0.255773
-0.244734
-0.232512
-0.219352
-0.205446
-0.190937
-0.17593
-0.160491
-0.144659
-0.128451
-0.111864
-0.0948835
-0.0774838
-0.059634
-0.0413008
-0.0224517
-0.00305837
0.0168998
0.0374317
0.0585307
0.0801695
0.102295
0.124823
0.14763
0.170548
0.193359
0.215784
0.237484
0.25805
0.277006
0.293814
0.307883
0.318584
0.32528
0.327342
0.324196
0.315565
0.301416
0.279342
0.245751
-0.246625
-0.276846
-0.296482
-0.308901
-0.316477
-0.319445
-0.318232
-0.313474
-0.305794
-0.295756
-0.283859
-0.270527
-0.256108
-0.240874
-0.225032
-0.208731
-0.19207
-0.175107
-0.15787
-0.140357
-0.122549
-0.104411
-0.0858978
-0.0669581
-0.0475368
-0.0275796
-0.00703542
0.0141395
0.0359779
0.0584973
0.0816947
0.105541
0.129974
0.154891
0.180141
0.205514
0.230732
0.255444
0.279214
0.301517
0.321745
0.339206
0.353148
0.362782
0.367307
0.365968
0.358328
0.34424
0.32097
0.284546
-0.288718
-0.321675
-0.342431
-0.354741
-0.361328
-0.36258
-0.359104
-0.351724
-0.341227
-0.328312
-0.313578
-0.297523
-0.280539
-0.262928
-0.244904
-0.226617
-0.208154
-0.189559
-0.17084
-0.151974
-0.132919
-0.113617
-0.0939985
-0.0739882
-0.0535064
-0.0324737
-0.0108132
0.0115451
0.0346617
0.0585824
0.0833336
0.108916
0.135296
0.162401
0.190102
0.218211
0.24646
0.274496
0.301862
0.327993
0.352207
0.373706
0.391594
0.4049
0.412604
0.413712
0.407569
0.393843
0.369385
0.329759
-0.33678
-0.372993
-0.394914
-0.406802
-0.411858
-0.410702
-0.404196
-0.393419
-0.379369
-0.362907
-0.344751
-0.325475
-0.305517
-0.285198
-0.264736
-0.244267
-0.22386
-0.203537
-0.183275
-0.163027
-0.142719
-0.122267
-0.101573
-0.0805332
-0.0590405
-0.0369872
-0.0142683
0.00921635
0.033558
0.0588353
0.0851087
0.112415
0.140758
0.170101
0.200353
0.231356
0.262868
0.294546
0.325929
0.356418
0.385265
0.411563
0.434253
0.452148
0.463955
0.468364
0.464411
0.451492
0.425899
0.382608
-0.392024
-0.432162
-0.455246
-0.466217
-0.468953
-0.46443
-0.453872
-0.438698
-0.420175
-0.399357
-0.377093
-0.354033
-0.330654
-0.307281
-0.284121
-0.261285
-0.238811
-0.216683
-0.194845
-0.173209
-0.151671
-0.130109
-0.108394
-0.0863912
-0.0639626
-0.0409698
-0.0172763
0.00725051
0.0327361
0.0592958
0.0870294
0.116016
0.146305
0.177906
0.210777
0.244807
0.279796
0.315434
0.351271
0.386698
0.420911
0.452898
0.481428
0.505061
0.522169
0.531027
0.530239
0.518784
0.492188
0.444649
-0.456088
-0.501013
-0.525152
-0.534419
-0.533676
-0.524448
-0.508472
-0.487616
-0.46348
-0.437342
-0.410182
-0.382718
-0.355442
-0.328667
-0.302566
-0.277203
-0.25257
-0.228597
-0.205182
-0.182191
-0.159475
-0.136877
-0.114228
-0.0913588
-0.0680989
-0.0442763
-0.0197212
0.00573368
0.0322509
0.0599858
0.0890821
0.119667
0.151845
0.185683
0.221201
0.258354
0.297005
0.336902
0.37764
0.418621
0.459019
0.497731
0.533354
0.564168
0.588137
0.603
0.606759
0.597766
0.570445
0.517915
-0.531246
-0.582058
-0.606926
-0.613221
-0.607284
-0.591477
-0.56826
-0.540083
-0.508941
-0.476351
-0.443413
-0.410883
-0.379236
-0.348734
-0.319486
-0.291484
-0.264647
-0.23884
-0.213895
-0.189625
-0.16583
-0.142307
-0.118847
-0.0952432
-0.071289
-0.0467784
-0.0215065
0.00472983
0.0321321
0.0608984
0.0912203
0.12328
0.157241
0.193242
0.231382
0.2717
0.31415
0.35857
0.404635
0.451811
0.499287
0.545912
0.59013
0.629929
0.662797
0.685793
0.69609
0.691092
0.6636
0.605142
-0.620752
-0.678817
-0.70365
-0.70491
-0.691222
-0.666213
-0.633333
-0.595763
-0.555943
-0.515613
-0.47595
-0.437688
-0.401228
-0.366734
-0.334203
-0.303523
-0.274512
-0.246947
-0.220584
-0.195168
-0.170442
-0.146151
-0.122045
-0.0978753
-0.0733997
-0.048377
-0.0225674
0.00426907
0.0323732
0.061987
0.093353
0.126711
0.162296
0.200325
0.240992
0.284442
0.330753
0.379891
0.431667
0.485664
0.541162
0.597029
0.651616
0.702641
0.74707
0.781123
0.800852
0.802255
0.77566
0.710129
-0.729436
-0.796335
-0.819496
-0.812342
-0.787069
-0.749188
-0.703463
-0.653934
-0.603484
-0.554009
-0.506661
-0.462057
-0.420438
-0.381793
-0.345955
-0.312663
-0.281604
-0.252447
-0.224854
-0.198492
-0.173042
-0.148194
-0.12365
-0.0991254
-0.074339
-0.049016
-0.0228827
0.00433598
0.0329197
0.0631544
0.0953342
0.129761
0.166742
0.206588
0.249598
0.296052
0.346178
0.400123
0.457891
0.519271
0.583732
0.650276
0.717277
0.78227
0.84171
0.890843
0.924259
0.935894
0.912251
0.838376
-0.864795
-0.942006
-0.960126
-0.938977
-0.896373
-0.84053
-0.777848
-0.713273
-0.650021
-0.589965
-0.534061
-0.482653
-0.435697
-0.392916
-0.353909
-0.318215
-0.285363
-0.254886
-0.226341
-0.199312
-0.173409
-0.148268
-0.123546
-0.0989179
-0.0740694
-0.048694
-0.0224869
0.00485952
0.0336609
0.064245
0.0969561
0.132158
0.170235
0.211595
0.256658
0.305856
0.359606
0.418281
0.482157
0.551332
0.625598
0.704272
0.785948
0.86818
0.947043
1.01677
1.07015
1.0982
1.08147
0.998234
-1.03907
-1.12687
-1.13315
-1.08878
-1.02028
-0.939531
-0.854737
-0.771577
-0.693273
-0.621343
-0.556257
-0.497864
-0.44567
-0.399017
-0.357194
-0.319495
-0.285254
-0.253855
-0.22474
-0.197404
-0.171389
-0.146277
-0.121682
-0.0972443
-0.0726195
-0.0474742
-0.0214773
0.00570666
0.0344243
0.0650408
0.0979465
0.133564
0.172353
0.21482
0.261516
0.313039
0.370023
0.433121
0.502959
0.580063
0.664733
0.756842
0.855524
0.958724
1.0625
1.16029
1.24288
1.29737
1.29523
1.20311
-1.2735
-1.36764
-1.34845
-1.26571
-1.15875
-1.04389
-0.930847
-0.825365
-0.729996
-0.645328
-0.570916
-0.505815
-0.448884
-0.398963
-0.354954
-0.315865
-0.280813
-0.249027
-0.219832
-0.192635
-0.166915
-0.142207
-0.11809
-0.0941731
-0.0700909
-0.0454891
-0.020017
0.0066815
0.0349772
0.0652651
0.0979742
0.133578
0.172607
0.21566
0.263417
0.31665
0.376231
0.443132
0.518403
0.60313
0.698327
0.804741
0.922513
1.05061
1.18582
1.32148
1.44674
1.54393
1.5713
1.47597
-1.60705
-1.68965
-1.61758
-1.47195
-1.30876
-1.14834
-1.00042
-0.869326
-0.755695
-0.658311
-0.575243
-0.504396
-0.443782
-0.391624
-0.346388
-0.306773
-0.271678
-0.240181
-0.2115
-0.184969
-0.160015
-0.136135
-0.112882
-0.0898501
-0.0666572
-0.0429383
-0.0183319
0.00752968
0.0350319
0.0645892
0.096658
0.131751
0.170455
0.213449
0.261528
0.315632
0.376869
0.446547
0.526197
0.617573
0.722614
0.843312
0.981424
1.13786
1.31151
1.49721
1.68407
1.85005
1.93639
1.85844
-2.11179
-2.13061
-1.952
-1.70493
-1.46164
-1.24277
-1.05421
-0.895866
-0.764512
-0.655956
-0.566118
-0.491416
-0.428857
-0.375994
-0.330849
-0.291827
-0.25764
-0.227239
-0.199761
-0.17449
-0.150819
-0.128227
-0.106257
-0.0844941
-0.0625564
-0.0400776
-0.0166965
0.00795562
0.0342667
0.0626577
0.0935973
0.12762
0.165348
0.207517
0.255011
0.308904
0.370515
0.441468
0.523775
0.619915
0.73291
0.866349
1.02429
1.21083
1.42897
1.67838
1.95214
2.22769
2.42962
2.42607
-2.9185
-2.74067
-2.35938
-1.95513
-1.60195
-1.31223
-1.08017
-0.896156
-0.750346
-0.634232
-0.54099
-0.465343
-0.403261
-0.351672
-0.308225
-0.271104
-0.238889
-0.21046
-0.184914
-0.161517
-0.139657
-0.118813
-0.0985357
-0.0784198
-0.0580937
-0.0372031
-0.0153984
0.00767768
0.0324026
0.0591886
0.0884989
0.120868
0.156926
0.197431
0.243313
0.295729
0.35614
0.426417
0.508977
0.606976
0.724545
0.867089
1.04158
1.25669
1.52244
1.8487
2.24071
2.68451
3.10198
3.31309
-4.32396
-3.56028
-2.81551
-2.18922
-1.69912
-1.3329
-1.06201
-0.859919
-0.707097
-0.589748
-0.49816
-0.425495
-0.366908
-0.318912
-0.278952
-0.245124
-0.215981
-0.190402
-0.1675
-0.146565
-0.127009
-0.108341
-0.0901328
-0.0720072
-0.0536164
-0.0346299
-0.014722
0.00644053
0.0292113
0.0539779
0.0811785
0.111323
0.145017
0.182999
0.226188
0.275746
0.333175
0.400451
0.480218
0.576088
0.693075
0.838247
1.02165
1.25754
1.5661
1.97501
2.51406
3.19386
3.99352
4.82427
-7.15805
-4.55859
-3.13936
-2.25296
-1.64551
-1.23472
-0.955241
-0.758926
-0.616476
-0.51024
-0.429057
-0.365639
-0.3151
-0.274069
-0.240146
-0.211578
-0.187054
-0.165566
-0.146327
-0.128705
-0.112183
-0.0963264
-0.0807612
-0.0651548
-0.0492023
-0.0326137
-0.0151021
0.00362462
0.0238781
0.0460004
0.0703787
0.0974644
0.127797
0.162035
0.201003
0.245752
0.297657
0.358548
0.430934
0.518333
0.625836
0.761032
0.935545
1.16773
1.48795
1.94645
2.61271
3.57132
5.07672
7.79549
-12.0264
-5.64137
-2.97507
-1.87623
-1.27925
-0.924661
-0.705172
-0.55951
-0.456516
-0.380423
-0.322399
-0.277045
-0.240855
-0.211434
-0.187074
-0.166515
-0.148804
-0.133201
-0.119119
-0.106084
-0.0937037
-0.0816451
-0.0696196
-0.0573688
-0.0446542
-0.0312481
-0.0169261
-0.00145628
0.0154062
0.0339297
0.0544171
0.0772191
0.102752
0.13152
0.164148
0.201426
0.244377
0.294351
0.353181
0.42344
0.508875
0.615226
0.75181
0.935035
1.19686
1.60112
2.26431
3.45802
6.24137
12.7521
)
;

boundaryField
{
    movingWall
    {
        type            zeroGradient;
    }
    fixedWalls
    {
        type            zeroGradient;
    }
    frontAndBack
    {
        type            empty;
    }
}


// ************************************************************************* //
