/*--------------------------------*- C++ -*----------------------------------*\
  =========                 |
  \\      /  F ield         | OpenFOAM: The Open Source CFD Toolbox
   \\    /   O peration     | Website:  https://openfoam.org
    \\  /    A nd           | Version:  7
     \\/     M anipulation  |
\*---------------------------------------------------------------------------*/
FoamFile
{
    version     2.0;
    format      ascii;
    class       volVectorField;
    location    "0.0572";
    object      U;
}
// * * * * * * * * * * * * * * * * * * * * * * * * * * * * * * * * * * * * * //

dimensions      [0 1 -1 0 0 0 0];

internalField   nonuniform List<vector> 
2500
(
(2.96414e-05 -2.96268e-05 0)
(8.98233e-05 -3.62271e-05 0)
(0.000123458 -1.85164e-05 0)
(9.16971e-05 7.56623e-06 0)
(-1.7246e-05 3.42349e-05 0)
(-0.000201828 5.87362e-05 0)
(-0.000455033 7.99513e-05 0)
(-0.000767753 9.75561e-05 0)
(-0.00112987 0.000111571 0)
(-0.00153098 0.000122147 0)
(-0.00196082 0.000129483 0)
(-0.0024095 0.000133795 0)
(-0.00286759 0.000135304 0)
(-0.00332624 0.000134227 0)
(-0.00377717 0.00013078 0)
(-0.00421277 0.000125172 0)
(-0.00462602 0.000117607 0)
(-0.0050106 0.000108284 0)
(-0.00536078 9.73956e-05 0)
(-0.00567152 8.51335e-05 0)
(-0.00593839 7.16851e-05 0)
(-0.00615765 5.72382e-05 0)
(-0.00632619 4.19816e-05 0)
(-0.00644157 2.61072e-05 0)
(-0.00650203 9.81116e-06 0)
(-0.00650653 -6.70429e-06 0)
(-0.00645472 -2.32298e-05 0)
(-0.006347 -3.95481e-05 0)
(-0.00618454 -5.54338e-05 0)
(-0.00596929 -7.06531e-05 0)
(-0.00570402 -8.49646e-05 0)
(-0.00539231 -9.81207e-05 0)
(-0.00503857 -0.000109869 0)
(-0.00464807 -0.000119956 0)
(-0.00422688 -0.000128127 0)
(-0.00378189 -0.000134132 0)
(-0.00332079 -0.000137727 0)
(-0.00285195 -0.000138681 0)
(-0.00238445 -0.000136774 0)
(-0.00192792 -0.000131806 0)
(-0.00149245 -0.000123599 0)
(-0.00108846 -0.000112002 0)
(-0.00072651 -9.69062e-05 0)
(-0.000416992 -7.82759e-05 0)
(-0.000169677 -5.62311e-05 0)
(7.02441e-06 -3.12744e-05 0)
(0.000107306 -4.6965e-06 0)
(0.0001307 2.0525e-05 0)
(9.0998e-05 3.71916e-05 0)
(2.9214e-05 2.91542e-05 0)
(3.65219e-05 -8.99383e-05 0)
(8.20186e-05 -8.11793e-05 0)
(3.27204e-05 1.83647e-05 0)
(-0.000170703 0.000153792 0)
(-0.00055179 0.000296846 0)
(-0.00111081 0.000433178 0)
(-0.00183604 0.000555302 0)
(-0.00270864 0.000659625 0)
(-0.00370576 0.000744661 0)
(-0.00480262 0.000810068 0)
(-0.00597378 0.000856152 0)
(-0.007194 0.000883606 0)
(-0.00843878 0.000893358 0)
(-0.00968472 0.000886479 0)
(-0.0109097 0.000864125 0)
(-0.0120933 0.000827503 0)
(-0.0132163 0.000777849 0)
(-0.0142616 0.000716412 0)
(-0.0152134 0.000644449 0)
(-0.0160579 0.000563222 0)
(-0.0167831 0.000474003 0)
(-0.0173785 0.000378071 0)
(-0.0178358 0.000276728 0)
(-0.0181482 0.000171294 0)
(-0.018311 6.31253e-05 0)
(-0.0183215 -4.63899e-05 0)
(-0.0181788 -0.00015582 0)
(-0.0178842 -0.000263692 0)
(-0.017441 -0.000368489 0)
(-0.0168548 -0.000468653 0)
(-0.0161332 -0.000562595 0)
(-0.0152861 -0.0006487 0)
(-0.0143257 -0.000725346 0)
(-0.0132662 -0.000790918 0)
(-0.0121244 -0.000843834 0)
(-0.0109186 -0.000882567 0)
(-0.00966956 -0.000905673 0)
(-0.0083996 -0.000911831 0)
(-0.00713265 -0.000899877 0)
(-0.0058939 -0.000868856 0)
(-0.00470941 -0.000818081 0)
(-0.00360558 -0.000747228 0)
(-0.00260848 -0.000656479 0)
(-0.00174287 -0.000546769 0)
(-0.0010308 -0.00042026 0)
(-0.000489547 -0.000281271 0)
(-0.000128413 -0.000137941 0)
(5.59258e-05 -5.2316e-06 0)
(9.01684e-05 8.91344e-05 0)
(3.75316e-05 9.09992e-05 0)
(1.9715e-05 -0.000125237 0)
(-1.42263e-05 -3.28843e-05 0)
(-0.000227105 0.000232726 0)
(-0.000668965 0.000573769 0)
(-0.00136264 0.000935484 0)
(-0.0023087 0.00128473 0)
(-0.00349204 0.00160198 0)
(-0.00488738 0.00187635 0)
(-0.00646317 0.00210225 0)
(-0.00818425 0.00227731 0)
(-0.0100138 0.00240125 0)
(-0.0119148 0.00247511 0)
(-0.0138506 0.0025008 0)
(-0.015786 0.00248081 0)
(-0.0176876 0.002418 0)
(-0.0195239 0.00231551 0)
(-0.0212658 0.0021766 0)
(-0.0228867 0.00200467 0)
(-0.0243623 0.00180318 0)
(-0.0256713 0.00157565 0)
(-0.0267948 0.00132565 0)
(-0.027717 0.00105679 0)
(-0.0284247 0.000772767 0)
(-0.0289077 0.000477331 0)
(-0.0291586 0.000174328 0)
(-0.0291733 -0.000132299 0)
(-0.0289507 -0.000438503 0)
(-0.0284927 -0.000740127 0)
(-0.0278048 -0.00103291 0)
(-0.0268955 -0.0013125 0)
(-0.0257768 -0.00157446 0)
(-0.0244642 -0.00181434 0)
(-0.0229764 -0.00202766 0)
(-0.0213356 -0.00221002 0)
(-0.0195671 -0.00235714 0)
(-0.0176995 -0.00246493 0)
(-0.015764 -0.00252959 0)
(-0.0137946 -0.00254773 0)
(-0.0118274 -0.00251647 0)
(-0.00990003 -0.00243363 0)
(-0.00805128 -0.00229792 0)
(-0.00631986 -0.00210923 0)
(-0.00474346 -0.00186908 0)
(-0.00335721 -0.00158127 0)
(-0.00219166 -0.00125301 0)
(-0.00126999 -0.000896793 0)
(-0.000604208 -0.000533584 0)
(-0.000189931 -0.000197596 0)
(3.1866e-08 5.62277e-05 0)
(2.19905e-05 0.00013226 0)
(-4.78823e-06 -9.76313e-05 0)
(-0.000145924 0.00016662 0)
(-0.000564238 0.000673374 0)
(-0.00128364 0.00129097 0)
(-0.00231723 0.00193928 0)
(-0.00366194 0.00256603 0)
(-0.00529807 0.00313803 0)
(-0.0071945 0.00363527 0)
(-0.00931266 0.00404638 0)
(-0.0116093 0.00436582 0)
(-0.0140389 0.00459191 0)
(-0.0165547 0.00472566 0)
(-0.0191107 0.00476988 0)
(-0.021662 0.00472869 0)
(-0.0241657 0.00460704 0)
(-0.0265814 0.0044105 0)
(-0.0288714 0.00414505 0)
(-0.0310011 0.00381697 0)
(-0.0329392 0.00343273 0)
(-0.0346578 0.00299897 0)
(-0.0361324 0.00252247 0)
(-0.0373423 0.00201012 0)
(-0.0382703 0.00146898 0)
(-0.0389031 0.000906219 0)
(-0.0392313 0.000329206 0)
(-0.0392495 -0.000254522 0)
(-0.0389563 -0.000837235 0)
(-0.0383545 -0.00141101 0)
(-0.0374511 -0.00196775 0)
(-0.0362575 -0.00249919 0)
(-0.0347894 -0.00299699 0)
(-0.0330668 -0.00345273 0)
(-0.0311142 -0.00385804 0)
(-0.0289604 -0.00420471 0)
(-0.0266382 -0.00448481 0)
(-0.0241843 -0.00469081 0)
(-0.0216391 -0.00481584 0)
(-0.019046 -0.00485383 0)
(-0.0164511 -0.00479982 0)
(-0.0139023 -0.00465025 0)
(-0.0114484 -0.0044034 0)
(-0.00913792 -0.00405991 0)
(-0.00701774 -0.00362358 0)
(-0.00513117 -0.00310249 0)
(-0.00351568 -0.00251075 0)
(-0.00220005 -0.00187114 0)
(-0.00120043 -0.00121931 0)
(-0.000515498 -0.000609332 0)
(-0.000126515 -0.000121849 0)
(-1.36655e-06 0.000113715 0)
(-3.02755e-05 5.32217e-06 0)
(-0.000288293 0.000543614 0)
(-0.00093167 0.00136893 0)
(-0.00194923 0.00232691 0)
(-0.00333867 0.00331719 0)
(-0.00508964 0.00427058 0)
(-0.00717591 0.0051408 0)
(-0.0095599 0.00589831 0)
(-0.0121965 0.00652532 0)
(-0.0150354 0.00701237 0)
(-0.0180236 0.00735587 0)
(-0.0211067 0.00755642 0)
(-0.0242307 0.00761763 0)
(-0.0273428 0.00754525 0)
(-0.0303923 0.00734655 0)
(-0.0333311 0.00702993 0)
(-0.0361146 0.00660452 0)
(-0.0387014 0.00608005 0)
(-0.0410542 0.00546665 0)
(-0.0431395 0.00477476 0)
(-0.0449281 0.00401509 0)
(-0.046395 0.00319861 0)
(-0.0475199 0.0023365 0)
(-0.0482867 0.00144022 0)
(-0.0486843 0.000521482 0)
(-0.0487061 -0.000407713 0)
(-0.0483506 -0.00133507 0)
(-0.0476211 -0.00224802 0)
(-0.0465263 -0.00313372 0)
(-0.0450796 -0.00397912 0)
(-0.0432999 -0.00477104 0)
(-0.0412114 -0.00549625 0)
(-0.0388431 -0.00614164 0)
(-0.0362295 -0.0066944 0)
(-0.0334095 -0.00714218 0)
(-0.0304269 -0.0074734 0)
(-0.0273294 -0.00767753 0)
(-0.0241686 -0.00774545 0)
(-0.0209987 -0.00766986 0)
(-0.0178761 -0.00744579 0)
(-0.0148579 -0.00707128 0)
(-0.0120009 -0.00654814 0)
(-0.00935972 -0.00588313 0)
(-0.00698487 -0.00508944 0)
(-0.00492048 -0.00418891 0)
(-0.00320167 -0.00321518 0)
(-0.00185081 -0.00221823 0)
(-0.000873324 -0.00127005 0)
(-0.000264672 -0.000472303 0)
(-2.59694e-05 2.21528e-05 0)
(-5.44665e-05 0.000184119 0)
(-0.000430019 0.0011055 0)
(-0.00130434 0.0023317 0)
(-0.0026282 0.00369489 0)
(-0.00438068 0.00507985 0)
(-0.00654144 0.00640369 0)
(-0.00907575 0.00760861 0)
(-0.0119385 0.00865617 0)
(-0.0150777 0.00952224 0)
(-0.0184364 0.0101933 0)
(-0.0219547 0.0106635 0)
(-0.0255715 0.010933 0)
(-0.029226 0.0110062 0)
(-0.0328587 0.0108904 0)
(-0.0364122 0.0105955 0)
(-0.0398322 0.0101329 0)
(-0.0430679 0.00951542 0)
(-0.0460726 0.00875662 0)
(-0.0488035 0.00787083 0)
(-0.0512228 0.00687287 0)
(-0.053297 0.00577803 0)
(-0.0549978 0.00460196 0)
(-0.0563018 0.0033607 0)
(-0.057191 0.00207066 0)
(-0.0576524 0.000748638 0)
(-0.0576787 -0.000588158 0)
(-0.0572681 -0.00192213 0)
(-0.0564246 -0.00323528 0)
(-0.0551576 -0.00450927 0)
(-0.0534829 -0.00572549 0)
(-0.0514217 -0.00686517 0)
(-0.0490015 -0.00790952 0)
(-0.0462555 -0.00883998 0)
(-0.0432225 -0.00963843 0)
(-0.0399469 -0.0102875 0)
(-0.0364783 -0.010771 0)
(-0.0328706 -0.0110743 0)
(-0.0291822 -0.0111847 0)
(-0.0254743 -0.0110926 0)
(-0.0218105 -0.0107914 0)
(-0.0182553 -0.0102789 0)
(-0.0148727 -0.00955846 0)
(-0.0117245 -0.00863995 0)
(-0.00886831 -0.00754201 0)
(-0.00635528 -0.0062943 0)
(-0.00422806 -0.00494088 0)
(-0.00251731 -0.00354475 0)
(-0.00123787 -0.002193 0)
(-0.000402781 -0.00100327 0)
(-4.94025e-05 -0.000143136 0)
(-7.67328e-05 0.000435686 0)
(-0.000566475 0.00185132 0)
(-0.00167017 0.00356384 0)
(-0.00330091 0.0053986 0)
(-0.0054178 0.00723038 0)
(-0.00798872 0.00896586 0)
(-0.0109689 0.0105378 0)
(-0.0143045 0.0119002 0)
(-0.017936 0.0130231 0)
(-0.0217996 0.0138893 0)
(-0.0258288 0.0144909 0)
(-0.0299563 0.0148276 0)
(-0.0341151 0.0149046 0)
(-0.0382397 0.0147312 0)
(-0.0422672 0.0143198 0)
(-0.0461377 0.0136855 0)
(-0.0497955 0.0128447 0)
(-0.0531889 0.0118154 0)
(-0.0562709 0.0106166 0)
(-0.0589997 0.00926803 0)
(-0.0613385 0.00778996 0)
(-0.063256 0.00620334 0)
(-0.0647264 0.00452963 0)
(-0.0657297 0.00279077 0)
(-0.0662517 0.00100927 0)
(-0.0662842 -0.000791877 0)
(-0.0658251 -0.00258911 0)
(-0.0648786 -0.00435839 0)
(-0.0634554 -0.00607523 0)
(-0.0615725 -0.00771482 0)
(-0.0592534 -0.00925214 0)
(-0.056528 -0.0106622 0)
(-0.053433 -0.0119204 0)
(-0.0500111 -0.0130027 0)
(-0.046311 -0.0138862 0)
(-0.0423871 -0.0145495 0)
(-0.038299 -0.0149734 0)
(-0.0341107 -0.0151416 0)
(-0.0298897 -0.0150414 0)
(-0.025706 -0.0146647 0)
(-0.0216309 -0.014009 0)
(-0.0177352 -0.0130789 0)
(-0.0140879 -0.0118875 0)
(-0.0107538 -0.0104586 0)
(-0.00779199 -0.00882931 0)
(-0.00525396 -0.00705303 0)
(-0.00318024 -0.00520398 0)
(-0.00159696 -0.00338138 0)
(-0.000536097 -0.00171456 0)
(-7.0989e-05 -0.000379403 0)
(-9.71551e-05 0.000756171 0)
(-0.000696502 0.00277645 0)
(-0.00202473 0.00506228 0)
(-0.00395904 0.00743655 0)
(-0.00643843 0.00976778 0)
(-0.00941799 0.0119553 0)
(-0.0128417 0.0139246 0)
(-0.0166462 0.0156236 0)
(-0.0207635 0.0170177 0)
(-0.0251226 0.0180865 0)
(-0.0296504 0.0188207 0)
(-0.0342734 0.0192198 0)
(-0.0389188 0.01929 0)
(-0.0435158 0.0190429 0)
(-0.0479962 0.0184939 0)
(-0.0522957 0.0176616 0)
(-0.0563538 0.0165668 0)
(-0.060115 0.0152323 0)
(-0.0635286 0.0136819 0)
(-0.0665493 0.0119407 0)
(-0.0691377 0.0100345 0)
(-0.0712597 0.00799005 0)
(-0.0728877 0.00583454 0)
(-0.0739999 0.00359602 0)
(-0.0745809 0.00130315 0)
(-0.0746218 -0.00101474 0)
(-0.0741202 -0.00332765 0)
(-0.0730806 -0.00560495 0)
(-0.0715141 -0.00781549 0)
(-0.0694389 -0.00992769 0)
(-0.0668801 -0.0119098 0)
(-0.06387 -0.0137301 0)
(-0.0604477 -0.0153572 0)
(-0.0566592 -0.0167608 0)
(-0.0525569 -0.0179119 0)
(-0.0481995 -0.0187833 0)
(-0.0436512 -0.0193511 0)
(-0.0389813 -0.0195945 0)
(-0.0342629 -0.0194977 0)
(-0.0295721 -0.0190507 0)
(-0.0249865 -0.0182502 0)
(-0.020584 -0.0171019 0)
(-0.0164408 -0.0156217 0)
(-0.0126297 -0.0138381 0)
(-0.00921852 -0.0117945 0)
(-0.00626863 -0.00955271 0)
(-0.0038317 -0.00719605 0)
(-0.00194626 -0.00483335 0)
(-0.000663436 -0.00260223 0)
(-9.07716e-05 -0.000682971 0)
(-0.000116069 0.00114187 0)
(-0.000820573 0.0038752 0)
(-0.00236766 0.00682196 0)
(-0.00460087 0.00980504 0)
(-0.00743956 0.0126895 0)
(-0.0108256 0.0153697 0)
(-0.0146909 0.0177662 0)
(-0.0189617 0.0198222 0)
(-0.0235612 0.0214999 0)
(-0.0284104 0.0227765 0)
(-0.0334294 0.0236421 0)
(-0.0385385 0.0240964 0)
(-0.0436592 0.0241474 0)
(-0.0487157 0.023809 0)
(-0.0536352 0.0231001 0)
(-0.0583488 0.0220434 0)
(-0.0627924 0.0206643 0)
(-0.0669068 0.0189904 0)
(-0.0706383 0.0170512 0)
(-0.0739388 0.0148774 0)
(-0.0767663 0.0125006 0)
(-0.0790848 0.00995355 0)
(-0.0808647 0.00726993 0)
(-0.082083 0.00448409 0)
(-0.0827231 0.00163126 0)
(-0.0827753 -0.0012525 0)
(-0.0822371 -0.00413032 0)
(-0.0811126 -0.0069646 0)
(-0.0794136 -0.00971705 0)
(-0.077159 -0.0123489 0)
(-0.0743752 -0.0148211 0)
(-0.071096 -0.0170948 0)
(-0.0673627 -0.0191315 0)
(-0.0632239 -0.0208939 0)
(-0.0587352 -0.0223462 0)
(-0.053959 -0.0234555 0)
(-0.0489636 -0.024192 0)
(-0.0438232 -0.0245304 0)
(-0.0386162 -0.0244511 0)
(-0.0334245 -0.0239415 0)
(-0.0283323 -0.0229975 0)
(-0.0234245 -0.021625 0)
(-0.0187851 -0.0198421 0)
(-0.0144955 -0.017681 0)
(-0.0106333 -0.0151909 0)
(-0.00727046 -0.01244 0)
(-0.00447083 -0.00951937 0)
(-0.00228585 -0.00654531 0)
(-0.000785391 -0.00366142 0)
(-0.000109093 -0.00105038 0)
(-0.000133859 0.00158971 0)
(-0.000939853 0.00514225 0)
(-0.00270072 0.00883764 0)
(-0.0052284 0.0125 0)
(-0.00842329 0.0159927 0)
(-0.0122138 0.0192072 0)
(-0.0165196 0.0220609 0)
(-0.0212558 0.024494 0)
(-0.0263359 0.0264666 0)
(-0.0316727 0.0279549 0)
(-0.0371792 0.028949 0)
(-0.0427692 0.0294499 0)
(-0.0483588 0.0294675 0)
(-0.0538669 0.029019 0)
(-0.0592163 0.0281272 0)
(-0.0643345 0.026819 0)
(-0.0691537 0.0251251 0)
(-0.0736117 0.0230784 0)
(-0.077652 0.0207141 0)
(-0.0812241 0.0180689 0)
(-0.084284 0.0151807 0)
(-0.0867939 0.0120886 0)
(-0.0887227 0.00883284 0)
(-0.0900461 0.00545447 0)
(-0.0907466 0.00199561 0)
(-0.0908138 -0.00150067 0)
(-0.0902446 -0.00499031 0)
(-0.0890431 -0.00842838 0)
(-0.087221 -0.0117691 0)
(-0.0847978 -0.0149662 0)
(-0.0818007 -0.0179729 0)
(-0.0782647 -0.0207427 0)
(-0.0742327 -0.0232295 0)
(-0.0697555 -0.0253886 0)
(-0.0648915 -0.027177 0)
(-0.059706 -0.0285552 0)
(-0.0542715 -0.0294871 0)
(-0.0486664 -0.0299423 0)
(-0.0429744 -0.0298968 0)
(-0.0372833 -0.0293349 0)
(-0.0316839 -0.0282505 0)
(-0.0262685 -0.0266494 0)
(-0.0211297 -0.0245508 0)
(-0.016358 -0.02199 0)
(-0.0120413 -0.0190202 0)
(-0.00826343 -0.0157153 0)
(-0.00510082 -0.0121725 0)
(-0.00261809 -0.00851394 0)
(-0.000903344 -0.00488791 0)
(-0.000126369 -0.00147886 0)
(-0.000150887 0.0020974 0)
(-0.00105575 0.00657341 0)
(-0.00302664 0.0111051 0)
(-0.00584555 0.015518 0)
(-0.00939455 0.0196752 0)
(-0.0135887 0.0234667 0)
(-0.018335 0.0268082 0)
(-0.0235368 0.0296385 0)
(-0.0290978 0.031917 0)
(-0.0349222 0.0336201 0)
(-0.0409151 0.0347388 0)
(-0.0469839 0.0352762 0)
(-0.0530389 0.0352452 0)
(-0.0589942 0.0346668 0)
(-0.0647685 0.033568 0)
(-0.0702853 0.031981 0)
(-0.0754738 0.0299417 0)
(-0.080269 0.0274889 0)
(-0.0846121 0.0246638 0)
(-0.0884507 0.0215095 0)
(-0.0917388 0.0180705 0)
(-0.0944374 0.0143924 0)
(-0.0965139 0.0105223 0)
(-0.097943 0.00650808 0)
(-0.0987063 0.00239907 0)
(-0.0987926 -0.00175446 0)
(-0.0981982 -0.00590104 0)
(-0.096927 -0.00998816 0)
(-0.0949904 -0.0139623 0)
(-0.0924082 -0.0177693 0)
(-0.0892078 -0.0213544 0)
(-0.0854251 -0.0246629 0)
(-0.0811043 -0.0276408 0)
(-0.0762978 -0.0302353 0)
(-0.0710661 -0.032396 0)
(-0.0654776 -0.0340757 0)
(-0.0596082 -0.0352318 0)
(-0.0535405 -0.0358278 0)
(-0.0473635 -0.0358346 0)
(-0.0411709 -0.0352323 0)
(-0.0350605 -0.0340125 0)
(-0.0291324 -0.0321794 0)
(-0.0234881 -0.0297528 0)
(-0.0182282 -0.0267695 0)
(-0.0134517 -0.0232861 0)
(-0.00925474 -0.0193807 0)
(-0.00572703 -0.0151555 0)
(-0.00294651 -0.0107374 0)
(-0.00101899 -0.00627898 0)
(-0.00014301 -0.00196658 0)
(-0.000167474 0.00266348 0)
(-0.00116968 0.00816595 0)
(-0.00334853 0.0136215 0)
(-0.00645711 0.0188572 0)
(-0.0103597 0.0237362 0)
(-0.014958 0.0281484 0)
(-0.020146 0.032009 0)
(-0.0258153 0.035257 0)
(-0.0318592 0.0378522 0)
(-0.0381725 0.0397724 0)
(-0.0446526 0.0410109 0)
(-0.0512001 0.0415739 0)
(-0.0577194 0.0414781 0)
(-0.0641199 0.0407488 0)
(-0.0703159 0.0394184 0)
(-0.0762276 0.0375245 0)
(-0.0817813 0.035109 0)
(-0.0869097 0.032217 0)
(-0.0915518 0.028896 0)
(-0.0956535 0.0251958 0)
(-0.0991676 0.0211675 0)
(-0.102054 0.0168638 0)
(-0.104278 0.0123386 0)
(-0.105814 0.00764692 0)
(-0.106643 0.00284528 0)
(-0.106754 -0.00200866 0)
(-0.10614 -0.00685589 0)
(-0.104807 -0.0116361 0)
(-0.102764 -0.0162879 0)
(-0.100032 -0.0207489 0)
(-0.0966373 -0.024956 0)
(-0.092617 -0.0288463 0)
(-0.0880158 -0.032357 0)
(-0.0828873 -0.035427 0)
(-0.0772939 -0.0379975 0)
(-0.0713065 -0.0400133 0)
(-0.0650042 -0.0414244 0)
(-0.0584738 -0.0421872 0)
(-0.0518094 -0.0422668 0)
(-0.0451108 -0.0416382 0)
(-0.038483 -0.0402893 0)
(-0.0320346 -0.038222 0)
(-0.0258763 -0.0354552 0)
(-0.0201198 -0.0320265 0)
(-0.0148757 -0.0279944 0)
(-0.0102533 -0.0234403 0)
(-0.00635597 -0.0184704 0)
(-0.00327513 -0.0132161 0)
(-0.0011341 -0.00783377 0)
(-0.000159394 -0.00251269 0)
(-0.000183899 0.00328725 0)
(-0.00128301 0.00991867 0)
(-0.00366948 0.016386 0)
(-0.00706808 0.0225174 0)
(-0.0113255 0.0281766 0)
(-0.01633 0.0332539 0)
(-0.0219626 0.0376656 0)
(-0.0281026 0.0413518 0)
(-0.0346324 0.0442743 0)
(-0.0414373 0.0464137 0)
(-0.0484066 0.0477665 0)
(-0.0554338 0.0483432 0)
(-0.0624175 0.0481652 0)
(-0.0692621 0.0472634 0)
(-0.075878 0.0456759 0)
(-0.0821821 0.0434466 0)
(-0.0880981 0.0406239 0)
(-0.0935565 0.0372595 0)
(-0.0984947 0.0334079 0)
(-0.102857 0.0291255 0)
(-0.106596 0.0244707 0)
(-0.109669 0.0195029 0)
(-0.112042 0.0142831 0)
(-0.113688 0.00887379 0)
(-0.114587 0.00333848 0)
(-0.114726 -0.00225764 0)
(-0.1141 -0.00784796 0)
(-0.112712 -0.0133643 0)
(-0.110572 -0.0187373 0)
(-0.107698 -0.023896 0)
(-0.104119 -0.0287691 0)
(-0.0998703 -0.0332844 0)
(-0.0949969 -0.0373706 0)
(-0.0895534 -0.0409574 0)
(-0.0836036 -0.0439771 0)
(-0.0772206 -0.0463657 0)
(-0.0704864 -0.0480647 0)
(-0.0634921 -0.0490228 0)
(-0.0563365 -0.0491979 0)
(-0.0491258 -0.048559 0)
(-0.0419726 -0.047089 0)
(-0.0349942 -0.0447864 0)
(-0.0283116 -0.0416678 0)
(-0.0220476 -0.0377703 0)
(-0.0163257 -0.0331534 0)
(-0.0112688 -0.0279009 0)
(-0.0069945 -0.0221223 0)
(-0.00360809 -0.0159529 0)
(-0.00125042 -0.00955344 0)
(-0.000175862 -0.00311732 0)
(-0.0002004 0.00396872 0)
(-0.00139697 0.0118319 0)
(-0.00399245 0.0193996 0)
(-0.00768333 0.0265003 0)
(-0.0122987 0.0329988 0)
(-0.0177133 0.0387866 0)
(-0.0237947 0.0437816 0)
(-0.0304097 0.0479268 0)
(-0.0374293 0.051187 0)
(-0.0447293 0.0535468 0)
(-0.0521902 0.0550075 0)
(-0.0596986 0.055585 0)
(-0.067147 0.0553066 0)
(-0.0744349 0.0542095 0)
(-0.081469 0.0523387 0)
(-0.088163 0.0497448 0)
(-0.0944384 0.0464835 0)
(-0.100224 0.0426137 0)
(-0.105455 0.0381969 0)
(-0.110076 0.033297 0)
(-0.114037 0.027979 0)
(-0.117297 0.02231 0)
(-0.11982 0.0163578 0)
(-0.121578 0.0101919 0)
(-0.122551 0.00388343 0)
(-0.122724 -0.00249524 0)
(-0.122093 -0.00886985 0)
(-0.120659 -0.0151644 0)
(-0.118431 -0.0213013 0)
(-0.115426 -0.0272013 0)
(-0.111672 -0.0327841 0)
(-0.107205 -0.0379686 0)
(-0.102068 -0.042674 0)
(-0.0963173 -0.0468204 0)
(-0.0900171 -0.0503305 0)
(-0.0832422 -0.0531307 0)
(-0.0760775 -0.0551531 0)
(-0.0686178 -0.0563374 0)
(-0.0609668 -0.0566333 0)
(-0.0532374 -0.0560024 0)
(-0.0455497 -0.0544212 0)
(-0.0380303 -0.0518833 0)
(-0.030811 -0.048402 0)
(-0.0240267 -0.0440125 0)
(-0.0178143 -0.0387742 0)
(-0.0123111 -0.0327721 0)
(-0.00764956 -0.0261187 0)
(-0.00394946 -0.0189533 0)
(-0.00136961 -0.0114412 0)
(-0.000192721 -0.00378146 0)
(-0.000217181 0.0047085 0)
(-0.00151267 0.0139073 0)
(-0.00432016 0.0226649 0)
(-0.00830742 0.0308097 0)
(-0.0132856 0.0382072 0)
(-0.0191158 0.0447511 0)
(-0.0256515 0.050362 0)
(-0.0327466 0.0549865 0)
(-0.0402608 0.0585941 0)
(-0.0480594 0.0611748 0)
(-0.0560144 0.062736 0)
(-0.064005 0.0633 0)
(-0.0719177 0.0629017 0)
(-0.0796475 0.0615856 0)
(-0.087097 0.0594042 0)
(-0.0941774 0.0564161 0)
(-0.100808 0.0526846 0)
(-0.106916 0.0482763 0)
(-0.112437 0.0432604 0)
(-0.117313 0.037708 0)
(-0.121495 0.0316917 0)
(-0.12494 0.0252853 0)
(-0.127614 0.0185642 0)
(-0.129486 0.0116048 0)
(-0.130537 0.00448517 0)
(-0.130752 -0.00271482 0)
(-0.130123 -0.00991348 0)
(-0.128652 -0.0170271 0)
(-0.126345 -0.0239699 0)
(-0.123221 -0.0306541 0)
(-0.119305 -0.0369906 0)
(-0.114629 -0.0428888 0)
(-0.10924 -0.0482581 0)
(-0.103192 -0.0530086 0)
(-0.0965486 -0.0570523 0)
(-0.0893872 -0.0603054 0)
(-0.0817946 -0.0626893 0)
(-0.073869 -0.0641337 0)
(-0.0657193 -0.0645785 0)
(-0.0574645 -0.0639765 0)
(-0.0492329 -0.0622964 0)
(-0.0411608 -0.0595253 0)
(-0.0333912 -0.0556715 0)
(-0.0260718 -0.0507672 0)
(-0.0193538 -0.0448703 0)
(-0.0133897 -0.0380664 0)
(-0.00832784 -0.0304703 0)
(-0.00430316 -0.0222253 0)
(-0.00149322 -0.0135023 0)
(-0.000210251 -0.00450701 0)
(-0.000234419 0.00550778 0)
(-0.00163109 0.0161478 0)
(-0.00465505 0.0261863 0)
(-0.00894451 0.0354508 0)
(-0.0142921 0.0438079 0)
(-0.0205446 0.0511537 0)
(-0.0275412 0.0574126 0)
(-0.0351224 0.0625362 0)
(-0.0431358 0.0664999 0)
(-0.0514364 0.0693006 0)
(-0.0598871 0.0709532 0)
(-0.0683598 0.0714884 0)
(-0.0767352 0.0709492 0)
(-0.0849033 0.0693889 0)
(-0.0927637 0.0668688 0)
(-0.100225 0.063456 0)
(-0.107205 0.0592224 0)
(-0.113629 0.0542427 0)
(-0.119434 0.0485941 0)
(-0.12456 0.0423554 0)
(-0.128959 0.0356065 0)
(-0.132588 0.0284285 0)
(-0.135411 0.0209037 0)
(-0.1374 0.0131155 0)
(-0.138533 0.00514892 0)
(-0.138795 -0.00290921 0)
(-0.138177 -0.0109699 0)
(-0.136679 -0.0189419 0)
(-0.134307 -0.0267314 0)
(-0.131077 -0.0342422 0)
(-0.127011 -0.041376 0)
(-0.122142 -0.0480328 0)
(-0.116514 -0.0541118 0)
(-0.11018 -0.0595122 0)
(-0.103204 -0.0641351 0)
(-0.0956641 -0.0678848 0)
(-0.0876487 -0.0706715 0)
(-0.0792591 -0.072413 0)
(-0.0706088 -0.073038 0)
(-0.0618232 -0.0724891 0)
(-0.0530388 -0.0707252 0)
(-0.0444019 -0.0677254 0)
(-0.0360674 -0.0634913 0)
(-0.0281966 -0.0580503 0)
(-0.0209557 -0.0514577 0)
(-0.0145138 -0.0437989 0)
(-0.00903577 -0.0351905 0)
(-0.0046729 -0.0257798 0)
(-0.00162273 -0.0157437 0)
(-0.000228708 -0.00529661 0)
(-0.000252267 0.00636821 0)
(-0.00175311 0.0185576 0)
(-0.00499933 0.0299697 0)
(-0.00959831 0.0404306 0)
(-0.0153233 0.0498082 0)
(-0.0220061 0.0580016 0)
(-0.029471 0.06494 0)
(-0.0375445 0.0705812 0)
(-0.0460615 0.0749082 0)
(-0.0548664 0.0779262 0)
(-0.0638131 0.0796595 0)
(-0.0727659 0.0801482 0)
(-0.0815997 0.0794454 0)
(-0.0902002 0.0776143 0)
(-0.0984639 0.074726 0)
(-0.106297 0.0708573 0)
(-0.113617 0.0660892 0)
(-0.120349 0.0605054 0)
(-0.126428 0.0541913 0)
(-0.131797 0.0472335 0)
(-0.136407 0.0397195 0)
(-0.140215 0.0317376 0)
(-0.143187 0.0233766 0)
(-0.145293 0.0147268 0)
(-0.146511 0.00587983 0)
(-0.146827 -0.00307082 0)
(-0.146229 -0.0120293 0)
(-0.144716 -0.0208969 0)
(-0.142292 -0.0295722 0)
(-0.13897 -0.0379508 0)
(-0.134772 -0.0459251 0)
(-0.129727 -0.0533855 0)
(-0.123877 -0.0602206 0)
(-0.117273 -0.0663184 0)
(-0.10998 -0.0715678 0)
(-0.102073 -0.0758609 0)
(-0.0936437 -0.0790946 0)
(-0.084795 -0.0811739 0)
(-0.0756451 -0.0820146 0)
(-0.0663254 -0.0815468 0)
(-0.0569807 -0.079718 0)
(-0.0477676 -0.076497 0)
(-0.0388534 -0.0718771 0)
(-0.0304138 -0.0658792 0)
(-0.0226311 -0.0585547 0)
(-0.0156919 -0.0499874 0)
(-0.0097794 -0.0402952 0)
(-0.0050622 -0.0296296 0)
(-0.0017595 -0.0181744 0)
(-0.000248329 -0.00615367 0)
(-0.000270861 0.00729187 0)
(-0.00187953 0.0211419 0)
(-0.00535499 0.0340222 0)
(-0.0102722 0.0457574 0)
(-0.0163839 0.0562167 0)
(-0.023506 0.0653029 0)
(-0.0314469 0.0729511 0)
(-0.0400185 0.0791268 0)
(-0.0490428 0.083822 0)
(-0.0583529 0.0870523 0)
(-0.0677935 0.0888528 0)
(-0.0772215 0.0892751 0)
(-0.0865063 0.0883836 0)
(-0.0955295 0.0862532 0)
(-0.104185 0.0829659 0)
(-0.112378 0.0786093 0)
(-0.120024 0.0732742 0)
(-0.12705 0.0670538 0)
(-0.133391 0.0600421 0)
(-0.138991 0.052334 0)
(-0.143802 0.0440244 0)
(-0.147782 0.0352084 0)
(-0.150898 0.0259816 0)
(-0.153121 0.0164405 0)
(-0.154428 0.00668277 0)
(-0.154803 -0.00319168 0)
(-0.154235 -0.0130806 0)
(-0.15272 -0.0228785 0)
(-0.150261 -0.0324765 0)
(-0.146867 -0.0417622 0)
(-0.142556 -0.0506191 0)
(-0.137357 -0.0589277 0)
(-0.131306 -0.0665658 0)
(-0.124454 -0.0734096 0)
(-0.116862 -0.0793353 0)
(-0.108606 -0.0842211 0)
(-0.0997756 -0.0879499 0)
(-0.0904774 -0.0904118 0)
(-0.0808327 -0.0915079 0)
(-0.0709788 -0.0911538 0)
(-0.0610686 -0.0892834 0)
(-0.0512692 -0.085853 0)
(-0.041761 -0.0808454 0)
(-0.0327347 -0.0742729 0)
(-0.02439 -0.0661813 0)
(-0.0169323 -0.0566518 0)
(-0.0105644 -0.0458029 0)
(-0.00547439 -0.0337903 0)
(-0.00190485 -0.0208048 0)
(-0.00026934 -0.0070823 0)
(-0.000290327 0.00828126 0)
(-0.00201106 0.0239068 0)
(-0.00572387 0.0383525 0)
(-0.0109692 0.051441 0)
(-0.017478 0.0630431 0)
(-0.0250489 0.0730662 0)
(-0.0334737 0.0814527 0)
(-0.0425487 0.0881772 0)
(-0.0520824 0.0932428 0)
(-0.0618963 0.0966771 0)
(-0.0718258 0.0985282 0)
(-0.0817204 0.098861 0)
(-0.0914442 0.0977533 0)
(-0.100875 0.0952928 0)
(-0.109906 0.0915741 0)
(-0.118439 0.0866963 0)
(-0.126393 0.0807613 0)
(-0.133694 0.0738723 0)
(-0.140279 0.0661324 0)
(-0.146094 0.0576446 0)
(-0.151093 0.0485112 0)
(-0.155236 0.0388342 0)
(-0.158489 0.0287153 0)
(-0.160825 0.0182567 0)
(-0.162223 0.00756199 0)
(-0.162663 -0.00326358 0)
(-0.162136 -0.0141118 0)
(-0.160634 -0.0248711 0)
(-0.158157 -0.0354256 0)
(-0.154713 -0.0456552 0)
(-0.150315 -0.0554349 0)
(-0.144987 -0.0646354 0)
(-0.138763 -0.0731234 0)
(-0.13169 -0.0807628 0)
(-0.123825 -0.0874163 0)
(-0.115242 -0.0929474 0)
(-0.106031 -0.0972231 0)
(-0.0962988 -0.100117 0)
(-0.0861695 -0.101514 0)
(-0.0757858 -0.101311 0)
(-0.0653084 -0.0994279 0)
(-0.0549152 -0.095805 0)
(-0.0447998 -0.090412 0)
(-0.0351692 -0.0832507 0)
(-0.0262413 -0.0743591 0)
(-0.0182422 -0.0638142 0)
(-0.0113963 -0.0517344 0)
(-0.00591266 -0.0382791 0)
(-0.00206006 -0.0236473 0)
(-0.000291961 -0.00808725 0)
(-0.000310787 0.00933923 0)
(-0.00214842 0.0268591 0)
(-0.00610771 0.0429699 0)
(-0.0116923 0.0574918 0)
(-0.0186093 0.0702976 0)
(-0.0266391 0.0813004 0)
(-0.0355553 0.0904511 0)
(-0.0451378 0.0977355 0)
(-0.0551808 0.10317 0)
(-0.065494 0.106796 0)
(-0.0759032 0.108677 0)
(-0.086251 0.108894 0)
(-0.0963965 0.107539 0)
(-0.106215 0.104715 0)
(-0.115597 0.10053 0)
(-0.124446 0.0950968 0)
(-0.132682 0.0885289 0)
(-0.140233 0.0809399 0)
(-0.147038 0.0724425 0)
(-0.153047 0.0631479 0)
(-0.158214 0.0531658 0)
(-0.162504 0.0426045 0)
(-0.165885 0.0315715 0)
(-0.168329 0.0201741 0)
(-0.169816 0.0085208 0)
(-0.170328 -0.00327826 0)
(-0.169852 -0.0151099 0)
(-0.168379 -0.026857 0)
(-0.165907 -0.0383977 0)
(-0.162437 -0.0496046 0)
(-0.157981 -0.0603447 0)
(-0.152557 -0.070479 0)
(-0.146194 -0.0798631 0)
(-0.138933 -0.0883483 0)
(-0.130829 -0.095783 0)
(-0.121951 -0.102015 0)
(-0.112387 -0.106893 0)
(-0.102243 -0.110274 0)
(-0.0916462 -0.112021 0)
(-0.0807429 -0.112015 0)
(-0.0697015 -0.110154 0)
(-0.0587105 -0.106362 0)
(-0.0479772 -0.100592 0)
(-0.0377255 -0.092832 0)
(-0.0281932 -0.0831104 0)
(-0.0196288 -0.0714982 0)
(-0.0122802 -0.0581123 0)
(-0.00638011 -0.0431156 0)
(-0.00222635 -0.0267153 0)
(-0.000316411 -0.00917396 0)
(-0.000332365 0.010469 0)
(-0.00229233 0.0300069 0)
(-0.00650829 0.0478852 0)
(-0.0124442 0.0639214 0)
(-0.0197815 0.0779912 0)
(-0.0282802 0.0900141 0)
(-0.0376947 0.0999516 0)
(-0.047787 0.107803 0)
(-0.0583364 0.113599 0)
(-0.0691403 0.1174 0)
(-0.0800152 0.119285 0)
(-0.0907967 0.119354 0)
(-0.10134 0.117717 0)
(-0.111517 0.114493 0)
(-0.121219 0.109806 0)
(-0.130352 0.103782 0)
(-0.138836 0.0965477 0)
(-0.146604 0.0882283 0)
(-0.153598 0.0789462 0)
(-0.159771 0.0688207 0)
(-0.165083 0.0579687 0)
(-0.169499 0.0465045 0)
(-0.172992 0.0345405 0)
(-0.175536 0.0221886 0)
(-0.177111 0.0095612 0)
(-0.177699 -0.00322763 0)
(-0.177285 -0.0160607 0)
(-0.17586 -0.0288164 0)
(-0.173415 -0.0413675 0)
(-0.169951 -0.0535806 0)
(-0.165471 -0.0653149 0)
(-0.15999 -0.0764222 0)
(-0.153529 -0.0867473 0)
(-0.146123 -0.0961283 0)
(-0.137821 -0.104399 0)
(-0.128688 -0.111389 0)
(-0.118808 -0.116931 0)
(-0.108285 -0.120858 0)
(-0.0972453 -0.123014 0)
(-0.0858402 -0.123256 0)
(-0.0742444 -0.121461 0)
(-0.0626564 -0.11753 0)
(-0.0512978 -0.111398 0)
(-0.0404103 -0.103035 0)
(-0.0302529 -0.0924581 0)
(-0.0210984 -0.0797288 0)
(-0.0132211 -0.0649613 0)
(-0.0068798 -0.0483212 0)
(-0.00240499 -0.0300243 0)
(-0.000342916 -0.0103485 0)
(-0.0003552 0.0116741 0)
(-0.00244356 0.0333587 0)
(-0.00692749 0.05311 0)
(-0.013228 0.0707424 0)
(-0.0209981 0.086135 0)
(-0.0299758 0.0992156 0)
(-0.0398941 0.109958 0)
(-0.0504962 0.118377 0)
(-0.0615454 0.124523 0)
(-0.0728266 0.128475 0)
(-0.0841466 0.130333 0)
(-0.0953349 0.130218 0)
(-0.106243 0.128259 0)
(-0.116742 0.124594 0)
(-0.126724 0.119365 0)
(-0.136098 0.112714 0)
(-0.144787 0.10478 0)
(-0.152729 0.0957014 0)
(-0.159872 0.0856096 0)
(-0.166173 0.0746328 0)
(-0.171597 0.0628944 0)
(-0.176114 0.050514 0)
(-0.179699 0.0376085 0)
(-0.18233 0.0242932 0)
(-0.183988 0.0106834 0)
(-0.184654 -0.00310409 0)
(-0.184315 -0.0169492 0)
(-0.182955 -0.030727 0)
(-0.180566 -0.0443064 0)
(-0.177141 -0.0575484 0)
(-0.172679 -0.0703057 0)
(-0.167185 -0.0824214 0)
(-0.160676 -0.0937297 0)
(-0.153178 -0.104056 0)
(-0.144731 -0.113218 0)
(-0.135395 -0.121028 0)
(-0.125246 -0.127297 0)
(-0.114386 -0.131837 0)
(-0.10294 -0.134466 0)
(-0.0910603 -0.135017 0)
(-0.0789275 -0.133339 0)
(-0.0667501 -0.129309 0)
(-0.0547637 -0.122839 0)
(-0.0432285 -0.113878 0)
(-0.0324266 -0.102425 0)
(-0.0226573 -0.0885319 0)
(-0.0142238 -0.0723075 0)
(-0.00741485 -0.053919 0)
(-0.00259727 -0.033591 0)
(-0.000371715 -0.0116176 0)
(-0.000379451 0.0129587 0)
(-0.002603 0.0369244 0)
(-0.00736747 0.0586571 0)
(-0.014047 0.0779681 0)
(-0.0222632 0.0947406 0)
(-0.0317296 0.108912 0)
(-0.0421558 0.120472 0)
(-0.0532645 0.129454 0)
(-0.0648022 0.13593 0)
(-0.0765408 0.140001 0)
(-0.088278 0.141794 0)
(-0.0998374 0.14145 0)
(-0.111068 0.139124 0)
(-0.121841 0.134974 0)
(-0.132052 0.129161 0)
(-0.141613 0.121845 0)
(-0.150454 0.113179 0)
(-0.158517 0.103313 0)
(-0.165759 0.0923899 0)
(-0.172142 0.0805456 0)
(-0.177637 0.0679098 0)
(-0.182221 0.0546067 0)
(-0.185872 0.0407566 0)
(-0.188573 0.0264771 0)
(-0.190305 0.0118852 0)
(-0.191051 -0.00290088 0)
(-0.190796 -0.0177597 0)
(-0.189524 -0.0325646 0)
(-0.187221 -0.0471816 0)
(-0.183874 -0.0614679 0)
(-0.179476 -0.0752703 0)
(-0.174025 -0.0884247 0)
(-0.167526 -0.100755 0)
(-0.159998 -0.112073 0)
(-0.151471 -0.122182 0)
(-0.141995 -0.130875 0)