/*--------------------------------*- C++ -*----------------------------------*\
  =========                 |
  \\      /  F ield         | OpenFOAM: The Open Source CFD Toolbox
   \\    /   O peration     | Website:  https://openfoam.org
    \\  /    A nd           | Version:  7
     \\/     M anipulation  |
\*---------------------------------------------------------------------------*/
FoamFile
{
    version     2.0;
    format      ascii;
    class       volScalarField;
    location    "0.056";
    object      p;
}
// * * * * * * * * * * * * * * * * * * * * * * * * * * * * * * * * * * * * * //

dimensions      [0 2 -2 0 0 0 0];

internalField   nonuniform List<scalar> 
2500
(
3.08648e-05
6.38534
9.05055
10.147
10.7407
11.0915
11.307
11.4488
11.5483
11.6215
11.6774
11.7215
11.7573
11.7874
11.8132
11.8362
11.8572
11.8768
11.8956
11.9139
11.932
11.9502
11.9686
11.9874
12.0067
12.0267
12.0474
12.0691
12.0918
12.1158
12.1414
12.1688
12.1984
12.2306
12.2662
12.3058
12.3504
12.4015
12.4608
12.531
12.6159
12.7211
12.8562
13.0375
13.2971
13.6988
14.3594
15.5507
18.3319
24.8414
4.86799
7.46785
8.88608
9.77041
10.3751
10.7827
11.0588
11.2519
11.3916
11.4955
11.575
11.6376
11.688
11.7298
11.7653
11.7963
11.8239
11.8492
11.8728
11.8953
11.9171
11.9386
11.96
11.9815
12.0035
12.026
12.0493
12.0736
12.0992
12.1263
12.1552
12.1863
12.2203
12.2576
12.2991
12.3458
12.3992
12.461
12.5338
12.6211
12.7281
12.8623
13.0355
13.2661
13.5845
14.0411
14.7054
15.6622
17.1661
19.8835
7.70304
8.46699
9.21076
9.8351
10.3226
10.6859
10.9538
11.153
11.3034
11.4187
11.509
11.581
11.6397
11.6886
11.7302
11.7663
11.7985
11.8277
11.8548
11.8804
11.9049
11.9289
11.9525
11.9762
12.0002
12.0247
12.05
12.0763
12.104
12.1333
12.1646
12.1984
12.2354
12.2761
12.3216
12.3729
12.4316
12.4996
12.5797
12.6755
12.7919
12.9363
13.1185
13.3531
13.6602
14.0675
14.605
15.2833
16.0814
16.9103
9.11077
9.28852
9.66869
10.0709
10.4216
10.7084
10.9376
11.1188
11.2623
11.3766
11.4686
11.5437
11.606
11.6586
11.7037
11.7432
11.7784
11.8103
11.8399
11.8678
11.8945
11.9204
11.9458
11.9712
11.9969
12.023
12.0498
12.0777
12.107
12.138
12.1711
12.2069
12.2459
12.2889
12.3368
12.3908
12.4523
12.5232
12.606
12.7039
12.821
12.9629
13.1364
13.3504
13.615
13.94
14.3306
14.7729
15.1885
15.3971
9.92085
9.90148
10.0787
10.3237
10.5643
10.7802
10.9659
11.1215
11.2505
11.3572
11.4459
11.5201
11.5829
11.6368
11.6836
11.7249
11.762
11.7959
11.8274
11.857
11.8853
11.9128
11.9397
11.9666
11.9935
12.021
12.0491
12.0783
12.1089
12.1412
12.1757
12.2129
12.2534
12.2978
12.3472
12.4025
12.4651
12.5366
12.6192
12.7152
12.8279
12.9608
13.118
13.3036
13.5207
13.7692
14.0416
14.3155
14.5152
14.5083
10.4299
10.3461
10.4165
10.5598
10.7202
10.8775
11.0224
11.1507
11.2619
11.3574
11.4392
11.5095
11.5704
11.6234
11.6703
11.7122
11.7502
11.7851
11.8176
11.8484
11.8779
11.9065
11.9346
11.9625
11.9906
12.0191
12.0482
12.0784
12.11
12.1433
12.1787
12.2168
12.2581
12.3032
12.353
12.4084
12.4706
12.5409
12.6208
12.7122
12.8171
12.9374
13.075
13.2307
13.4036
13.5882
13.7737
13.9378
14.0213
13.9393
10.7684
10.6724
10.6895
10.7696
10.8736
10.9852
11.0951
11.1976
11.2904
11.373
11.4461
11.5105
11.5676
11.6183
11.6639
11.7052
11.743
11.7781
11.8111
11.8424
11.8726
11.9019
11.9308
11.9595
11.9883
12.0175
12.0474
12.0783
12.1105
12.1444
12.1803
12.2188
12.2603
12.3054
12.3549
12.4094
12.47
12.5375
12.6132
12.6981
12.7933
12.8995
13.0169
13.1445
13.2789
13.4135
13.5371
13.6321
13.6562
13.5561
11.0084
10.9179
10.909
10.9504
11.0157
11.0931
11.1745
11.2545
11.3301
11.3998
11.4634
11.5209
11.5731
11.6204
11.6636
11.7034
11.7404
11.775
11.8078
11.8392
11.8695
11.8992
11.9284
11.9575
11.9868
12.0164
12.0468
12.0781
12.1106
12.1448
12.1809
12.2193
12.2606
12.3051
12.3535
12.4065
12.4645
12.5284
12.5988
12.6763
12.7611
12.8532
12.9517
13.0545
13.1575
13.254
13.3347
13.3865
13.3806
13.2832
11.1884
11.1077
11.0864
11.1043
11.1434
11.1957
11.2548
11.3161
11.3764
11.4341
11.4882
11.5386
11.5853
11.6286
11.6688
11.7065
11.7419
11.7755
11.8076
11.8386
11.8687
11.8983
11.9276
11.9569
11.9863
12.0162
12.0467
12.0781
12.1107
12.1449
12.1808
12.2188
12.2594
12.303
12.3499
12.4006
12.4556
12.5153
12.58
12.6497
12.7244
12.8032
12.8848
12.9666
13.0445
13.1127
13.1639
13.1889
13.168
13.0789
11.3295
11.2583
11.2314
11.2349
11.2565
11.2906
11.3326
11.3786
11.4259
11.4728
11.5182
11.5616
11.6027
11.6417
11.6785
11.7136
11.7471
11.7792
11.8102
11.8405
11.8701
11.8993
11.9284
11.9575
11.9869
12.0167
12.0472
12.0785
12.111
12.1448
12.1803
12.2177
12.2574
12.2995
12.3446
12.3928
12.4444
12.4996
12.5584
12.6206
12.6857
12.7525
12.8194
12.8839
12.9423
12.9897
13.0205
13.0287
13.0005
12.9203
11.4439
11.3806
11.3514
11.3462
11.3559
11.3768
11.4058
11.4397
11.4762
11.5138
11.5513
11.5881
11.6239
11.6585
11.6919
11.7241
11.7553
11.7857
11.8154
11.8446
11.8735
11.9021
11.9307
11.9595
11.9885
12.0181
12.0483
12.0794
12.1115
12.1448
12.1797
12.2162
12.2547
12.2953
12.3383
12.3838
12.4319
12.4826
12.5357
12.5907
12.647
12.7032
12.7578
12.8082
12.8514
12.8833
12.9001
12.8977
12.8661
12.7939
11.5388
11.4818
11.452
11.4414
11.443
11.4545
11.4737
11.498
11.5257
11.5553
11.5859
11.6168
11.6476
11.678
11.7078
11.7372
11.7661
11.7946
11.8228
11.8507
11.8786
11.9064
11.9344
11.9626
11.9912
12.0203
12.0501
12.0807
12.1123
12.1451
12.1791
12.2146
12.2518
12.2907
12.3315
12.3742
12.4188
12.4651
12.5128
12.5612
12.6096
12.6567
12.7009
12.74
12.7713
12.7919
12.7989
12.7897
12.7569
12.6913
11.6189
11.5669
11.5372
11.5231
11.5192
11.524
11.5357
11.5526
11.5731
11.5962
11.6208
11.6465
11.6727
11.6991
11.7257
11.7522
11.7788
11.8053
11.8318
11.8584
11.8851
11.912
11.9392
11.9667
11.9947
12.0233
12.0526
12.0826
12.1136
12.1455
12.1787
12.2131
12.2488
12.2859
12.3245
12.3645
12.4057
12.4478
12.4905
12.533
12.5745
12.6137
12.6493
12.6792
12.7014
12.7135
12.7136
12.7001
12.667
12.607
11.6873
11.6391
11.6099
11.5937
11.586
11.5858
11.5919
11.603
11.6178
11.6354
11.655
11.6761
11.6982
11.7211
11.7446
11.7684
11.7927
11.8172
11.8421
11.8672
11.8927
11.9186
11.9449
11.9717
11.999
12.0269
12.0556
12.0849
12.1152
12.1463
12.1784
12.2116
12.2459
12.2813
12.3177
12.355
12.3929
12.4312
12.4693
12.5065
12.542
12.5746
12.603
12.6256
12.6407
12.6465
12.6416
12.6253
12.5926
12.5372
11.7461
11.701
11.6723
11.6547
11.6444
11.6406
11.6425
11.649
11.6592
11.6724
11.6878
11.7049
11.7235
11.7432
11.7638
11.7852
11.8073
11.8299
11.8531
11.8769
11.9011
11.9259
11.9513
11.9773
12.0038
12.031
12.0589
12.0876
12.117
12.1473
12.1785
12.2104
12.2433
12.2769
12.3112
12.346
12.3809
12.4156
12.4496
12.4822
12.5125
12.5394
12.5619
12.5786
12.5882
12.5892
12.5809
12.5627
12.5306
12.479
11.7969
11.7541
11.726
11.7075
11.6953
11.6888
11.6875
11.6905
11.6971
11.7066
11.7185
11.7324
11.7479
11.7648
11.7829
11.802
11.822
11.8429
11.8645
11.8869
11.9099
11.9337
11.9581
11.9832
12.009
12.0354
12.0626
12.0905
12.1192
12.1486
12.1787
12.2095
12.2409
12.2729
12.3052
12.3376
12.3698
12.4013
12.4317
12.4602
12.486
12.5082
12.5259
12.5378
12.543
12.5405
12.5296
12.5102
12.4789
12.4305
11.8407
11.7997
11.7721
11.753
11.7395
11.731
11.7273
11.7276
11.7313
11.7379
11.7469
11.758
11.7709
11.7854
11.8012
11.8183
11.8365
11.8557
11.8758
11.8969
11.9188
11.9415
11.965
11.9892
12.0142
12.04
12.0664
12.0936
12.1214
12.1499
12.1791
12.2087
12.2388
12.2692
12.2997
12.33
12.3597
12.3884
12.4155
12.4405
12.4625
12.4808
12.4945
12.5026
12.5044
12.4991
12.4864
12.4663
12.4358
12.39
11.8783
11.8387
11.8115
11.7921
11.7776
11.7677
11.7621
11.7603
11.7617
11.7659
11.7726
11.7814
11.7921
11.8045
11.8184
11.8337
11.8502
11.8679
11.8868
11.9066
11.9274
11.9491
11.9718
11.9952
12.0194
12.0444
12.0702
12.0966
12.1237
12.1514
12.1796
12.2082
12.2371
12.266
12.2948
12.3231
12.3507
12.3769
12.4013
12.4232
12.4421
12.4571
12.4675
12.4726
12.4717
12.4643
12.4503
12.4297
12.3999
12.3564
11.9102
11.8718
11.8449
11.8253
11.81
11.7991
11.7921
11.7886
11.7882
11.7906
11.7954
11.8023
11.8112
11.8218
11.8341
11.8478
11.8629
11.8793
11.897
11.9157
11.9356
11.9564
11.9782
12.0009
12.0244
12.0487
12.0738
12.0995
12.1259
12.1528
12.1802
12.2078
12.2356
12.2632
12.2905
12.3172
12.3428
12.3668
12.3889
12.4083
12.4245
12.4368
12.4446
12.4473
12.4443
12.4353
12.4203
12.3994
12.3703
12.3287
11.937
11.8994
11.8728
11.853
11.8373
11.8255
11.8175
11.8127
11.811
11.8118
11.8151
11.8205
11.8279
11.8371
11.8479
11.8604
11.8743
11.8896
11.9062
11.924
11.943
11.963
11.984
12.006
12.0289
12.0526
12.0771
12.1023
12.128
12.1542
12.1808
12.2076
12.2343
12.2609
12.2869
12.3121
12.336
12.3583
12.3784
12.3957
12.4097
12.4198
12.4255
12.4263
12.4217
12.4114
12.3957
12.3747
12.3462
12.3061
11.959
11.922
11.8956
11.8757
11.8596
11.8472
11.8384
11.8327
11.8299
11.8296
11.8317
11.8359
11.8421
11.8501
11.8598
11.8712
11.8841
11.8985
11.9142
11.9312
11.9494
11.9688
11.9892
12.0106
12.0329
12.0561
12.0801
12.1047
12.1298
12.1555
12.1814
12.2074
12.2333
12.2589
12.2839
12.3079
12.3305
12.3512
12.3697
12.3853
12.3976
12.4059
12.41
12.4092
12.4034
12.3923
12.376
12.355
12.3269
12.2881
11.9763
11.9397
11.9135
11.8936
11.8772
11.8644
11.855
11.8486
11.8449
11.8438
11.845
11.8483
11.8535
11.8607
11.8695
11.8801
11.8922
11.9058
11.9208
11.9372
11.9548
11.9736
11.9935
12.0144
12.0363
12.059
12.0825
12.1067
12.1314
12.1565
12.1819
12.2073
12.2326
12.2574
12.2815
12.3045
12.326
12.3456
12.3628
12.3771
12.388
12.395
12.3978
12.3959
12.3891
12.3774
12.3607
12.3397
12.3121
12.2742
11.9891
11.9529
11.9268
11.9068
11.8903
11.8772
11.8673
11.8604
11.8562
11.8545
11.855
11.8576
11.8622
11.8687
11.8769
11.8868
11.8984
11.9114
11.9259
11.9418
11.9589
11.9773
11.9968
12.0173
12.0389
12.0613
12.0844
12.1083
12.1326
12.1574
12.1823
12.2073
12.232
12.2563
12.2797
12.302
12.3227
12.3414
12.3576
12.371
12.3809
12.3869
12.3888
12.3861
12.3787
12.3664
12.3495
12.3285
12.3012
12.2641
11.9976
11.9616
11.9356
11.9156
11.8989
11.8856
11.8755
11.8683
11.8638
11.8616
11.8617
11.8639
11.8681
11.8741
11.8819
11.8914
11.9025
11.9152
11.9293
11.9449
11.9617
11.9798
11.999
12.0193
12.0406
12.0628
12.0857
12.1093
12.1334
12.1579
12.1826
12.2073
12.2317
12.2555
12.2785
12.3003
12.3205
12.3386
12.3542
12.3669
12.3762
12.3816
12.3829
12.3797
12.3718
12.3593
12.3422
12.3212
12.2941
12.2575
12.0018
11.9659
11.94
11.9199
11.9032
11.8898
11.8796
11.8722
11.8675
11.8652
11.8651
11.8671
11.871
11.8768
11.8844
11.8937
11.9046
11.9171
11.9311
11.9464
11.9631
11.9811
12.0002
12.0204
12.0415
12.0636
12.0864
12.1099
12.1339
12.1582
12.1828
12.2073
12.2315
12.2551
12.2779
12.2995
12.3194
12.3372
12.3525
12.3649
12.3738
12.379
12.3799
12.3765
12.3684
12.3557
12.3386
12.3176
12.2906
12.2542
12.0018
11.9659
11.94
11.9199
11.9032
11.8898
11.8796
11.8722
11.8675
11.8652
11.8651
11.8671
11.871
11.8768
11.8844
11.8937
11.9046
11.9171
11.9311
11.9464
11.9631
11.9811
12.0002
12.0204
12.0415
12.0636
12.0864
12.1099
12.1339
12.1582
12.1828
12.2073
12.2315
12.2551
12.2779
12.2995
12.3194
12.3372
12.3525
12.3649
12.3738
12.379
12.3799
12.3765
12.3684
12.3557
12.3386
12.3176
12.2906
12.2542
11.9976
11.9616
11.9356
11.9156
11.8989
11.8856
11.8755
11.8683
11.8638
11.8616
11.8617
11.8639
11.8681
11.8741
11.8819
11.8914
11.9025
11.9152
11.9293
11.9449
11.9617
11.9798
11.999
12.0193
12.0406
12.0628
12.0857
12.1093
12.1334
12.1579
12.1826
12.2073
12.2317
12.2555
12.2785
12.3003
12.3205
12.3386
12.3542
12.3669
12.3762
12.3816
12.3829
12.3797
12.3718
12.3593
12.3422
12.3212
12.2941
12.2575
11.9891
11.9529
11.9268
11.9068
11.8903
11.8772
11.8673
11.8604
11.8562
11.8545
11.855
11.8576
11.8622
11.8687
11.8769
11.8868
11.8984
11.9114
11.9259
11.9418
11.9589
11.9773
11.9968
12.0173
12.0389
12.0613
12.0844
12.1083
12.1326
12.1574
12.1823
12.2073
12.232
12.2563
12.2797
12.302
12.3227
12.3414
12.3576
12.371
12.3809
12.3869
12.3888
12.3861
12.3787
12.3664
12.3495
12.3285
12.3012
12.2641
11.9763
11.9397
11.9135
11.8936
11.8772
11.8644
11.855
11.8486
11.8449
11.8438
11.845
11.8483
11.8535
11.8607
11.8695
11.8801
11.8922
11.9058
11.9208
11.9372
11.9548
11.9736
11.9935
12.0144
12.0363
12.059
12.0825
12.1067
12.1314
12.1565
12.1819
12.2073
12.2326
12.2574
12.2815
12.3045
12.326
12.3456
12.3628
12.3771
12.388
12.395
12.3978
12.3959
12.3891
12.3774
12.3607
12.3397
12.3121
12.2742
11.959
11.922
11.8956
11.8757
11.8596
11.8472
11.8384
11.8327
11.8299
11.8296
11.8317
11.8359
11.8421
11.8501
11.8598
11.8712
11.8841
11.8985
11.9142
11.9312
11.9494
11.9688
11.9892
12.0106
12.0329
12.0561
12.0801
12.1047
12.1298
12.1555
12.1814
12.2074
12.2333
12.2589
12.2839
12.3079
12.3305
12.3512
12.3697
12.3853
12.3976
12.4059
12.41
12.4092
12.4034
12.3923
12.376
12.355
12.3269
12.2881
11.937
11.8994
11.8728
11.853
11.8373
11.8255
11.8175
11.8127
11.811
11.8118
11.8151
11.8205
11.8279
11.8371
11.8479
11.8604
11.8743
11.8896
11.9062
11.924
11.943
11.963
11.984
12.006
12.0289
12.0526
12.0771
12.1023
12.128
12.1542
12.1808
12.2075
12.2343
12.2609
12.2869
12.3121
12.336
12.3583
12.3784
12.3957
12.4097
12.4198
12.4255
12.4263
12.4217
12.4114
12.3957
12.3747
12.3462
12.3061
11.9102
11.8718
11.8449
11.8253
11.81
11.7991
11.7921
11.7886
11.7882
11.7906
11.7954
11.8023
11.8112
11.8218
11.8341
11.8478
11.8629
11.8793
11.897
11.9157
11.9356
11.9564
11.9782
12.0009
12.0244
12.0487
12.0738
12.0995
12.1259
12.1528
12.1802
12.2078
12.2356
12.2632
12.2905
12.3172
12.3428
12.3668
12.3889
12.4083
12.4245
12.4368
12.4446
12.4473
12.4443
12.4353
12.4203
12.3994
12.3703
12.3287
11.8783
11.8387
11.8115
11.7921
11.7776
11.7677
11.7621
11.7603
11.7617
11.7659
11.7726
11.7814
11.7921
11.8045
11.8184
11.8337
11.8502
11.8679
11.8868
11.9066
11.9274
11.9491
11.9718
11.9952
12.0194
12.0444
12.0702
12.0966
12.1237
12.1514
12.1796
12.2082
12.2371
12.266
12.2948
12.3231
12.3507
12.3769
12.4013
12.4232
12.4421
12.4571
12.4675
12.4726
12.4717
12.4643
12.4503
12.4297
12.3999
12.3564
11.8407
11.7997
11.7721
11.753
11.7395
11.731
11.7273
11.7276
11.7313
11.7379
11.7469
11.758
11.7709
11.7854
11.8012
11.8183
11.8365
11.8557
11.8758
11.8969
11.9188
11.9415
11.965
11.9892
12.0142
12.04
12.0664
12.0936
12.1214
12.1499
12.1791
12.2087
12.2388
12.2692
12.2997
12.33
12.3597
12.3884
12.4155
12.4405
12.4625
12.4808
12.4945
12.5026
12.5044
12.4991
12.4864
12.4663
12.4358
12.39
11.7969
11.7541
11.726
11.7075
11.6953
11.6888
11.6875
11.6905
11.6971
11.7066
11.7185
11.7324
11.7479
11.7648
11.7829
11.802
11.822
11.8429
11.8645
11.8869
11.9099
11.9337
11.9581
11.9832
12.009
12.0354
12.0626
12.0905
12.1192
12.1486
12.1787
12.2095
12.2409
12.2729
12.3052
12.3376
12.3698
12.4013
12.4317
12.4602
12.486
12.5082
12.5259
12.5378
12.543
12.5405
12.5296
12.5102
12.4789
12.4305
11.7461
11.701
11.6723
11.6547
11.6444
11.6406
11.6425
11.649
11.6592
11.6724
11.6878
11.7049
11.7235
11.7432
11.7638
11.7852
11.8073
11.8299
11.8531
11.8769
11.9011
11.9259
11.9513
11.9773
12.0038
12.031
12.0589
12.0876
12.117
12.1473
12.1785
12.2104
12.2433
12.2769
12.3112
12.3459
12.3809
12.4156
12.4496
12.4822
12.5125
12.5394
12.5619
12.5786
12.5882
12.5892
12.5809
12.5627
12.5306
12.479
11.6873
11.6392
11.6099
11.5937
11.586
11.5858
11.5919
11.603
11.6178
11.6354
11.655
11.6761
11.6982
11.7211
11.7446
11.7684
11.7927
11.8172
11.8421
11.8672
11.8927
11.9186
11.9449
11.9717
11.999
12.0269
12.0556
12.0849
12.1152
12.1463
12.1784
12.2116
12.2459
12.2813
12.3177
12.355
12.3929
12.4312
12.4693
12.5065
12.542
12.5746
12.603
12.6256
12.6407
12.6465
12.6416
12.6253
12.5926
12.5371
11.6189
11.5669
11.5372
11.5232
11.5193
11.524
11.5357
11.5526
11.5731
11.5962
11.6208
11.6465
11.6727
11.6991
11.7257
11.7522
11.7788
11.8053
11.8318
11.8584
11.8851
11.912
11.9392
11.9667
11.9947
12.0233
12.0526
12.0826
12.1136
12.1455
12.1787
12.2131
12.2488
12.2859
12.3245
12.3645
12.4056
12.4478
12.4905
12.533
12.5745
12.6137
12.6493
12.6792
12.7014
12.7135
12.7136
12.7001
12.667
12.607
11.5388
11.4818
11.452
11.4414
11.443
11.4545
11.4737
11.498
11.5257
11.5553
11.5859
11.6168
11.6476
11.678
11.7079
11.7372
11.7661
11.7946
11.8228
11.8507
11.8786
11.9064
11.9344
11.9626
11.9912
12.0203
12.0501
12.0807
12.1123
12.1451
12.1791
12.2146
12.2518
12.2907
12.3315
12.3742
12.4188
12.4651
12.5128
12.5612
12.6096
12.6567
12.7009
12.74
12.7713
12.7919
12.7989
12.7897
12.7569
12.6913
11.4439
11.3806
11.3514
11.3462
11.3559
11.3768
11.4058
11.4397
11.4763
11.5138
11.5513
11.5881
11.6239
11.6585
11.6919
11.7241
11.7554
11.7857
11.8154
11.8446
11.8735
11.9021
11.9307
11.9595
11.9885
12.0181
12.0483
12.0794
12.1115
12.1448
12.1797
12.2162
12.2547
12.2953
12.3383
12.3838
12.4319
12.4826
12.5357
12.5907
12.647
12.7032
12.7578
12.8082
12.8514
12.8833
12.9001
12.8977
12.8661
12.7939
11.3295
11.2583
11.2314
11.2349
11.2565
11.2906
11.3326
11.3786
11.4259
11.4728
11.5182
11.5616
11.6027
11.6417
11.6785
11.7136
11.7471
11.7792
11.8102
11.8405
11.8701
11.8993
11.9284
11.9575
11.9869
12.0167
12.0472
12.0785
12.111
12.1448
12.1803
12.2177
12.2574
12.2995
12.3446
12.3928
12.4444
12.4996
12.5584
12.6206
12.6856
12.7525
12.8194
12.8839
12.9423
12.9896
13.0205
13.0287
13.0005
12.9203
11.1884
11.1077
11.0864
11.1043
11.1434
11.1957
11.2548
11.3161
11.3764
11.4341
11.4882
11.5386
11.5853
11.6286
11.6688
11.7065
11.7419
11.7755
11.8076
11.8386
11.8687
11.8983
11.9276
11.9569
11.9863
12.0162
12.0467
12.0781
12.1107
12.1449
12.1808
12.2188
12.2594
12.303
12.3499
12.4006
12.4556
12.5153
12.58
12.6497
12.7243
12.8032
12.8848
12.9665
13.0445
13.1127
13.1639
13.1889
13.168
13.0789
11.0084
10.9179
10.909
10.9504
11.0157
11.0931
11.1745
11.2545
11.3301
11.3998
11.4634
11.5209
11.5731
11.6204
11.6636
11.7034
11.7404
11.775
11.8078
11.8392
11.8695
11.8992
11.9284
11.9575
11.9868
12.0164
12.0468
12.0781
12.1106
12.1448
12.1809
12.2193
12.2606
12.3051
12.3535
12.4065
12.4645
12.5284
12.5988
12.6763
12.7611
12.8532
12.9517
13.0545
13.1575
13.254
13.3347
13.3865
13.3806
13.2832
10.7685
10.6724
10.6895
10.7696
10.8736
10.9852
11.0951
11.1976
11.2904
11.373
11.4461
11.5105
11.5676
11.6183
11.6639
11.7052
11.743
11.7781
11.8111
11.8424
11.8726
11.9019
11.9308
11.9595
11.9883
12.0175
12.0474
12.0783
12.1105
12.1444
12.1803
12.2188
12.2603
12.3054
12.3548
12.4094
12.47
12.5375
12.6132
12.6981
12.7933
12.8995
13.0169
13.1445
13.2789
13.4135
13.5371
13.6321
13.6562
13.5561
10.4299
10.3461
10.4165
10.5598
10.7202
10.8775
11.0224
11.1507
11.2619
11.3574
11.4392
11.5095
11.5704
11.6235
11.6703
11.7122
11.7502
11.7851
11.8176
11.8484
11.8779
11.9065
11.9346
11.9625
11.9906
12.0191
12.0482
12.0784
12.11
12.1433
12.1787
12.2168
12.2581
12.3032
12.353
12.4084
12.4706
12.5409
12.6208
12.7122
12.8171
12.9374
13.075
13.2307
13.4035
13.5882
13.7737
13.9378
14.0213
13.9393
9.92085
9.90149
10.0787
10.3237
10.5643
10.7803
10.9659
11.1215
11.2505
11.3572
11.4459
11.5201
11.5829
11.6368
11.6836
11.7249
11.7621
11.7959
11.8274
11.857
11.8853
11.9128
11.9397
11.9666
11.9935
12.021
12.0491
12.0783
12.1089
12.1412
12.1757
12.2129
12.2534
12.2978
12.3472
12.4025
12.4651
12.5366
12.6192
12.7152
12.8279
12.9608
13.118
13.3036
13.5207
13.7692
14.0416
14.3155
14.5151
14.5083
9.11078
9.28853
9.6687
10.071
10.4216
10.7084
10.9376
11.1189
11.2623
11.3766
11.4686
11.5438
11.606
11.6586
11.7037
11.7432
11.7784
11.8103
11.8399
11.8678
11.8945
11.9204
11.9458
11.9712
11.9969
12.0229
12.0498
12.0777
12.107
12.138
12.1711
12.2069
12.2459
12.2889
12.3368
12.3908
12.4523
12.5232
12.606
12.7039
12.821
12.9629
13.1364
13.3504
13.6149
13.9399
14.3306
14.7729
15.1885
15.3971
7.70304
8.467
9.21077
9.8351
10.3226
10.6859
10.9538
11.153
11.3034
11.4187
11.509
11.581
11.6397
11.6886
11.7302
11.7663
11.7985
11.8277
11.8548
11.8804
11.9049
11.9289
11.9525
11.9762
12.0002
12.0247
12.05
12.0763
12.104
12.1333
12.1646
12.1984
12.2354
12.2761
12.3216
12.3729
12.4316
12.4996
12.5797
12.6755
12.7919
12.9363
13.1185
13.3531
13.6602
14.0675
14.605
15.2833
16.0814
16.9103
4.868
7.46786
8.88609
9.77042
10.3751
10.7827
11.0588
11.2519
11.3916
11.4955
11.575
11.6376
11.688
11.7298
11.7653
11.7963
11.8239
11.8492
11.8728
11.8953
11.9171
11.9386
11.96
11.9815
12.0035
12.026
12.0493
12.0736
12.0992
12.1263
12.1552
12.1863
12.2203
12.2576
12.2991
12.3458
12.3992
12.461
12.5338
12.6211
12.7281
12.8623
13.0355
13.2661
13.5845
14.0411
14.7054
15.6622
17.1661
19.8835
5.0627e-05
6.38535
9.05056
10.1471
10.7408
11.0915
11.307
11.4488
11.5483
11.6215
11.6774
11.7215
11.7573
11.7874
11.8133
11.8362
11.8572
11.8768
11.8956
11.9139
11.932
11.9502
11.9686
11.9874
12.0067
12.0267
12.0474
12.0691
12.0918
12.1158
12.1414
12.1688
12.1984
12.2306
12.2662
12.3057
12.3504
12.4015
12.4608
12.531
12.6159
12.7211
12.8562
13.0375
13.297
13.6988
14.3594
15.5507
18.3319
24.8414
)
;

boundaryField
{
    movingWallTop
    {
        type            zeroGradient;
    }
    movingWallBottom
    {
        type            zeroGradient;
    }
    fixedWalls
    {
        type            zeroGradient;
    }
    frontAndBack
    {
        type            empty;
    }
}


// ************************************************************************* //
