/*--------------------------------*- C++ -*----------------------------------*\
  =========                 |
  \\      /  F ield         | OpenFOAM: The Open Source CFD Toolbox
   \\    /   O peration     | Website:  https://openfoam.org
    \\  /    A nd           | Version:  7
     \\/     M anipulation  |
\*---------------------------------------------------------------------------*/
FoamFile
{
    version     2.0;
    format      ascii;
    class       volScalarField;
    location    "0.0078";
    object      p;
}
// * * * * * * * * * * * * * * * * * * * * * * * * * * * * * * * * * * * * * //

dimensions      [0 2 -2 0 0 0 0];

internalField   nonuniform List<scalar> 
2500
(
4.73133e-07
6.38012
9.03454
10.1174
10.6977
11.0374
11.2454
11.3838
11.4842
11.5625
11.6272
11.6833
11.7339
11.7809
11.8253
11.8681
11.9096
11.9502
11.9902
12.0296
12.0686
12.1074
12.1459
12.1842
12.2226
12.2609
12.2994
12.3381
12.3772
12.4167
12.457
12.498
12.5403
12.5839
12.6295
12.6776
12.7291
12.7851
12.8473
12.918
13.0011
13.1022
13.2307
13.4032
13.652
14.0414
14.6889
15.8671
18.6374
25.1396
4.8721
7.46723
8.87676
9.75073
10.3455
10.7451
11.0163
11.2078
11.3494
11.4587
11.5467
11.6205
11.6846
11.7418
11.7943
11.8433
11.8897
11.9342
11.9773
12.0193
12.0605
12.1011
12.1412
12.181
12.2206
12.2603
12.3
12.3401
12.3806
12.4218
12.464
12.5073
12.5523
12.5994
12.6493
12.7029
12.7614
12.8266
12.9008
12.9876
13.092
13.2217
13.3886
13.6113
13.9205
14.3672
15.0215
15.969
17.4644
20.1745
7.71807
8.47527
9.21052
9.82566
10.3047
10.6615
10.9257
11.1243
11.2773
11.3983
11.4969
11.5798
11.6514
11.7148
11.7723
11.8254
11.8752
11.9225
11.9678
12.0117
12.0544
12.0963
12.1376
12.1784
12.2191
12.2597
12.3004
12.3414
12.383
12.4253
12.4687
12.5136
12.5604
12.6097
12.6623
12.7192
12.7819
12.8522
12.9327
13.0272
13.1406
13.2802
13.4564
13.6838
13.983
14.3821
14.9115
15.5821
16.3722
17.1911
9.14008
9.30859
9.67952
10.0729
10.4154
10.6964
10.9224
11.1036
11.25
11.37
11.4704
11.556
11.6308
11.6973
11.7575
11.813
11.8649
11.914
11.9609
12.006
12.0499
12.0928
12.1349
12.1765
12.2179
12.2592
12.3005
12.3423
12.3845
12.4277
12.4719
12.5178
12.5657
12.6163
12.6704
12.7291
12.7937
12.8661
12.9487
13.0448
13.1587
13.2959
13.4638
13.6714
13.9291
14.247
14.6309
15.0658
15.4723
15.6684
9.96507
9.9339
10.1013
10.3376
10.5707
10.7812
10.9641
11.1198
11.2518
11.3643
11.461
11.5455
11.6202
11.6874
11.7487
11.8053
11.8583
11.9084
11.9562
12.0022
12.0468
12.0903
12.1331
12.1753
12.2171
12.2589
12.3007
12.3429
12.3857
12.4293
12.4742
12.5206
12.5691
12.6204
12.6751
12.7344
12.7995
12.872
12.954
13.0481
13.1575
13.286
13.4382
13.6183
13.8296
14.0718
14.3379
14.6046
14.7941
14.772
10.4873
10.3899
10.4501
10.5852
10.7387
10.8912
11.0337
11.1623
11.2766
11.3777
11.4674
11.5475
11.6198
11.6857
11.7463
11.8027
11.8558
11.9061
11.9541
12.0005
12.0454
12.0892
12.1323
12.1748
12.2169
12.2589
12.3011
12.3435
12.3865
12.4304
12.4755
12.5221
12.5708
12.6221
12.6768
12.7357
12.7999
12.8709
12.9501
13.0396
13.1414
13.2579
13.3911
13.5421
13.7098
13.889
14.0683
14.225
14.2977
14.1991
10.8358
10.7253
10.7324
10.805
10.9029
11.0105
11.1185
11.2217
11.3176
11.4058
11.4865
11.5604
11.6284
11.6914
11.7501
11.8052
11.8574
11.9072
11.9549
12.001
12.0459
12.0897
12.1327
12.1752
12.2174
12.2594
12.3016
12.3441
12.3871
12.431
12.476
12.5224
12.5708
12.6217
12.6756
12.7333
12.7958
12.8641
12.9388
13.0221
13.1147
13.2177
13.3313
13.4548
13.5847
13.7141
13.8318
13.9192
13.9324
13.8157
11.0817
10.977
10.9588
10.9937
11.0539
11.1281
11.2084
11.2896
11.3686
11.4439
11.5149
11.5817
11.6444
11.7035
11.7593
11.8123
11.8629
11.9115
11.9583
12.0038
12.0481
12.0915
12.1343
12.1765
12.2185
12.2604
12.3024
12.3447
12.3875
12.4311
12.4758
12.5218
12.5695
12.6195
12.6721
12.7281
12.788
12.8525
12.9224
12.9985
13.0812
13.1706
13.2659
13.365
13.4639
13.5557
13.6306
13.6753
13.6591
13.5463
11.2638
11.17
11.1404
11.1528
11.1881
11.2383
11.2972
11.3603
11.4244
11.4878
11.5495
11.6089
11.6658
11.7204
11.7728
11.8231
11.8716
11.9185
11.9641
12.0085
12.052
12.0948
12.137
12.1788
12.2203
12.2618
12.3035
12.3454
12.3878
12.4309
12.475
12.5203
12.5671
12.6158
12.6668
12.7205
12.7773
12.8378
12.9022
12.971
13.0439
13.1205
13.1993
13.278
13.3523
13.4163
13.4622
13.4807
13.4508
13.3485
11.4032
11.3207
11.287
11.2864
11.3053
11.3384
11.3812
11.4298
11.4815
11.5344
11.5874
11.6397
11.6909
11.7408
11.7895
11.8367
11.8828
11.9278
11.9717
12.0149
12.0573
12.0991
12.1406
12.1817
12.2227
12.2637
12.3047
12.3461
12.388
12.4304
12.4737
12.518
12.5636
12.6108
12.6598
12.711
12.7645
12.8207
12.8796
12.9411
13.0048
13.0698
13.1346
13.1965
13.2518
13.2955
13.3219
13.3248
13.2893
13.1988
11.5126
11.4405
11.4062
11.3982
11.4065
11.4277
11.4585
11.4958
11.5373
11.5812
11.6265
11.6723
11.7181
11.7635
11.8083
11.8524
11.8959
11.9387
11.9809
12.0225
12.0637
12.1044
12.1449
12.1852
12.2255
12.2657
12.3062
12.3468
12.3879
12.4296
12.4719
12.5151
12.5593
12.6048
12.6517
12.7001
12.7502
12.8021
12.8555
12.9102
12.9656
13.0205
13.0733
13.1217
13.1625
13.1917
13.2052
13.1989
13.1623
13.0829
11.6
11.537
11.504
11.4919
11.4935
11.5064
11.5284
11.5569
11.5901
11.6266
11.6653
11.7053
11.746
11.7871
11.8283
11.8693
11.9102
11.9507
11.991
12.031
12.0708
12.1104
12.1498
12.1892
12.2286
12.268
12.3076
12.3475
12.3877
12.4284
12.4697
12.5116
12.5544
12.598
12.6426
12.6883
12.735
12.7826
12.8308
12.8793
12.9272
12.9735
13.0166
13.0543
13.0842
13.103
13.1081
13.0966
13.061
12.9917
11.6707
11.6156
11.5846
11.5707
11.568
11.5752
11.5907
11.6125
11.6392
11.6696
11.7026
11.7375
11.7738
11.8109
11.8486
11.8867
11.925
11.9633
12.0017
12.04
12.0784
12.1167
12.155
12.1934
12.2318
12.2704
12.3091
12.3481
12.3873
12.427
12.4671
12.5077
12.5488
12.5905
12.6329
12.6758
12.7192
12.7628
12.8063
12.8492
12.8907
12.9296
12.9647
12.9941
13.0158
13.0274
13.027
13.013
12.9794
12.9189
11.7285
11.6801
11.6516
11.6369
11.6317
11.635
11.6457
11.6625
11.684
11.7093
11.7376
11.7682
11.8005
11.8341
11.8687
11.904
11.9398
11.976
12.0125
12.0493
12.0861
12.1232
12.1603
12.1976
12.2351
12.2727
12.3105
12.3485
12.3868
12.4253
12.4642
12.5033
12.5429
12.5827
12.6228
12.6631
12.7033
12.7432
12.7825
12.8204
12.8563
12.8892
12.9179
12.9409
12.9565
12.9631
12.9593
12.9441
12.9132
12.8603
11.7762
11.7336
11.7074
11.6927
11.686
11.6867
11.694
11.7068
11.7243
11.7456
11.77
11.7969
11.8258
11.8562
11.888
11.9208
11.9543
11.9885
12.0232
12.0584
12.0938
12.1296
12.1656
12.2018
12.2382
12.2749
12.3117
12.3487
12.386
12.4234
12.461
12.4988
12.5367
12.5747
12.6126
12.6504
12.6877
12.7243
12.7597
12.7934
12.8247
12.8526
12.8761
12.8941
12.9053
12.9084
12.9025
12.8873
12.859
12.8126
11.8158
11.7779
11.754
11.7398
11.7323
11.7312
11.736
11.7459
11.7602
11.7782
11.7994
11.8232
11.8491
11.8769
11.9061
11.9366
11.9681
12.0005
12.0335
12.0672
12.1013
12.1358
12.1707
12.2058
12.2413
12.2769
12.3128
12.3488
12.385
12.4214
12.4577
12.4942
12.5305
12.5667
12.6026
12.6381
12.6728
12.7064
12.7384
12.7685
12.7958
12.8197
12.8392
12.8534
12.8613
12.8621
12.8551
12.8401
12.8144
12.7735
11.8488
11.8149
11.793
11.7793
11.7715
11.7692
11.7722
11.7799
11.7918
11.8072
11.8257
11.8469
11.8704
11.8958
11.9229
11.9513
11.981
12.0117
12.0432
12.0754
12.1083
12.1416
12.1754
12.2096
12.2441
12.2788
12.3137
12.3488
12.384
12.4192
12.4544
12.4896
12.5245
12.559
12.5931
12.6264
12.6587
12.6897
12.7189
12.7459
12.77
12.7905
12.8069
12.8182
12.8238
12.8229
12.8153
12.801
12.7776
12.7413
11.8762
11.8456
11.8255
11.8125
11.8045
11.8015
11.8033
11.8093
11.8192
11.8325
11.8489
11.868
11.8894
11.9128
11.938
11.9647
11.9927
12.0219
12.0521
12.083
12.1147
12.147
12.1798
12.213
12.2466
12.2804
12.3145
12.3487
12.3829
12.4171
12.4512
12.4851
12.5187
12.5517
12.5841
12.6155
12.6458
12.6745
12.7013
12.7257
12.7471
12.7651
12.7789
12.7881
12.7919
12.79
12.7822
12.7687
12.7472
12.7148
11.8989
11.8711
11.8524
11.8401
11.8322
11.8287
11.8295
11.8343
11.8427
11.8544
11.869
11.8863
11.906
11.9277
11.9513
11.9766
12.0032
12.0311
12.06
12.0899
12.1205
12.1519
12.1837
12.2161
12.2488
12.2819
12.3151
12.3484
12.3818
12.4151
12.4482
12.481
12.5133
12.545
12.5759
12.6057
12.6342
12.661
12.6857
12.708
12.7273
12.7431
12.7551
12.7626
12.7652
12.7627
12.7549
12.742
12.7223
12.6929
11.9176
11.8919
11.8744
11.8627
11.8549
11.8511
11.8513
11.8551
11.8624
11.8728
11.8861
11.902
11.9202
11.9406
11.9629
11.9869
12.0123
12.0391
12.067
12.0958
12.1256
12.1561
12.1872
12.2188
12.2508
12.2831
12.3156
12.3481
12.3807
12.4132
12.4454
12.4772
12.5085
12.539
12.5687
12.5971
12.624
12.6492
12.6723
12.6928
12.7104
12.7246
12.7351
12.7414
12.7432
12.7402
12.7325
12.7203
12.702
12.6751
11.9326
11.9085
11.8921
11.8809
11.8733
11.8693
11.869
11.8721
11.8785
11.888
11.9002
11.915
11.9321
11.9514
11.9726
11.9955
12.02
12.0458
12.0728
12.1009
12.1299
12.1597
12.1901
12.221
12.2524
12.284
12.3159
12.3478
12.3798
12.4115
12.4429
12.4739
12.5043
12.5339
12.5624
12.5897
12.6155
12.6393
12.661
12.6802
12.6965
12.7094
12.7188
12.7242
12.7253
12.7221
12.7145
12.7029
12.6858
12.6608
11.9443
11.9215
11.9059
11.895
11.8875
11.8835
11.8829
11.8855
11.8913
11.9
11.9114
11.9253
11.9416
11.96
11.9803
12.0024
12.0261
12.0512
12.0776
12.105
12.1334
12.1625
12.1924
12.2228
12.2537
12.2848
12.3162
12.3476
12.3789
12.4101
12.4409
12.4712
12.5009
12.5297
12.5574
12.5838
12.6085
12.6314
12.652
12.6702
12.6854
12.6974
12.7059
12.7107
12.7114
12.708
12.7006
12.6895
12.6732
12.6497
11.9529
11.931
11.9159
11.9054
11.898
11.8939
11.8931
11.8954
11.9007
11.9089
11.9197
11.933
11.9487
11.9664
11.9862
12.0077
12.0308
12.0553
12.0811
12.1081
12.136
12.1647
12.1942
12.2242
12.2546
12.2854
12.3163
12.3473
12.3783
12.409
12.4393
12.4692
12.4983
12.5265
12.5535
12.5792
12.6033
12.6254
12.6453
12.6627
12.6772
12.6885
12.6965
12.7007
12.7012
12.6977
12.6904
12.6796
12.6641
12.6416
11.9585
11.9372
11.9225
11.9122
11.9049
11.9008
11.8998
11.9019
11.907
11.9148
11.9252
11.9381
11.9534
11.9707
11.9901
12.0112
12.0339
12.0581
12.0835
12.1102
12.1378
12.1662
12.1954
12.2251
12.2553
12.2858
12.3164
12.3472
12.3778
12.4082
12.4383
12.4678
12.4965
12.5243
12.5509
12.5762
12.5998
12.6214
12.6408
12.6577
12.6717
12.6826
12.6902
12.6942
12.6945
12.6909
12.6838
12.6732
12.658
12.6362
11.9613
11.9403
11.9258
11.9156
11.9084
11.9042
11.9032
11.9052
11.9101
11.9177
11.928
11.9407
11.9557
11.9729
11.992
12.0129
12.0355
12.0595
12.0848
12.1112
12.1386
12.1669
12.1959
12.2255
12.2556
12.2859
12.3165
12.3471
12.3776
12.4079
12.4377
12.467
12.4956
12.5232
12.5496
12.5746
12.598
12.6194
12.6385
12.6552
12.669
12.6797
12.6871
12.6909
12.6911
12.6876
12.6805
12.67
12.6551
12.6336
11.9613
11.9403
11.9258
11.9156
11.9084
11.9042
11.9032
11.9052
11.9101
11.9177
11.928
11.9407
11.9557
11.9729
11.992
12.0129
12.0355
12.0595
12.0848
12.1112
12.1386
12.1669
12.1959
12.2255
12.2556
12.2859
12.3165
12.3471
12.3776
12.4079
12.4377
12.467
12.4956
12.5232
12.5496
12.5746
12.598
12.6194
12.6385
12.6552
12.669
12.6797
12.6871
12.6909
12.6911
12.6876
12.6805
12.67
12.6551
12.6336
11.9585
11.9372
11.9225
11.9122
11.9049
11.9008
11.8998
11.9019
11.907
11.9148
11.9252
11.9381
11.9534
11.9707
11.9901
12.0112
12.0339
12.0581
12.0836
12.1102
12.1378
12.1662
12.1954
12.2251
12.2553
12.2858
12.3164
12.3472
12.3778
12.4082
12.4383
12.4678
12.4965
12.5243
12.5509
12.5762
12.5998
12.6214
12.6408
12.6576
12.6717
12.6826
12.6902
12.6942
12.6945
12.6909
12.6838
12.6732
12.658
12.6362
11.9529
11.931
11.9159
11.9054
11.898
11.8939
11.8931
11.8954
11.9007
11.9089
11.9197
11.933
11.9487
11.9664
11.9862
12.0077
12.0308
12.0553
12.0811
12.1081
12.136
12.1647
12.1942
12.2242
12.2546
12.2854
12.3163
12.3473
12.3783
12.409
12.4393
12.4692
12.4983
12.5265
12.5535
12.5792
12.6033
12.6254
12.6453
12.6626
12.6772
12.6885
12.6965
12.7007
12.7012
12.6977
12.6904
12.6796
12.6641
12.6416
11.9443
11.9215
11.9059
11.895
11.8875
11.8835
11.8829
11.8855
11.8913
11.9
11.9114
11.9253
11.9416
11.96
11.9803
12.0024
12.0261
12.0512
12.0776
12.105
12.1334
12.1625
12.1924
12.2228
12.2537
12.2848
12.3162
12.3476
12.3789
12.4101
12.4409
12.4712
12.5009
12.5297
12.5574
12.5837
12.6085
12.6314
12.652
12.6702
12.6854
12.6974
12.7059
12.7107
12.7114
12.708
12.7006
12.6895
12.6732
12.6497
11.9326
11.9085
11.8921
11.8809
11.8733
11.8693
11.869
11.8721
11.8785
11.888
11.9002
11.915
11.9321
11.9514
11.9726
11.9955
12.02
12.0458
12.0728
12.1009
12.1299
12.1597
12.1901
12.221
12.2524
12.284
12.3159
12.3478
12.3798
12.4115
12.4429
12.4739
12.5043
12.5339
12.5624
12.5897
12.6155
12.6393
12.661
12.6802
12.6965
12.7094
12.7188
12.7242
12.7253
12.7221
12.7145
12.7029
12.6858
12.6608
11.9176
11.8919
11.8744
11.8627
11.8549
11.8511
11.8513
11.8551
11.8624
11.8728
11.8861
11.902
11.9202
11.9406
11.9629
11.9869
12.0123
12.0391
12.067
12.0958
12.1256
12.1561
12.1872
12.2188
12.2508
12.2831
12.3156
12.3481
12.3807
12.4132
12.4454
12.4772
12.5085
12.539
12.5686
12.5971
12.624
12.6492
12.6723
12.6928
12.7104
12.7246
12.7351
12.7414
12.7431
12.7402
12.7325
12.7203
12.702
12.6751
11.8989
11.8711
11.8524
11.8401
11.8322
11.8287
11.8295
11.8343
11.8427
11.8544
11.869
11.8863
11.906
11.9277
11.9513
11.9766
12.0032
12.0311
12.06
12.0899
12.1205
12.1519
12.1837
12.2161
12.2488
12.2819
12.3151
12.3484
12.3818
12.4151
12.4482
12.481
12.5133
12.545
12.5759
12.6057
12.6342
12.661
12.6857
12.708
12.7273
12.7431
12.7551
12.7626
12.7652
12.7627
12.7548
12.742
12.7223
12.6929
11.8762
11.8456
11.8255
11.8125
11.8045
11.8015
11.8033
11.8093
11.8192
11.8325
11.8489
11.868
11.8894
11.9128
11.938
11.9647
11.9927
12.0219
12.0521
12.083
12.1147
12.147
12.1798
12.213
12.2466
12.2804
12.3145
12.3487
12.3829
12.4171
12.4512
12.4851
12.5187
12.5517
12.5841
12.6155
12.6458
12.6745
12.7013
12.7256
12.7471
12.7651
12.7789
12.7881
12.7919
12.79
12.7822
12.7686
12.7472
12.7148
11.8487
11.8149
11.793
11.7793
11.7715
11.7692
11.7722
11.7799
11.7918
11.8072
11.8257
11.8469
11.8704
11.8958
11.9229
11.9513
11.981
12.0117
12.0432
12.0754
12.1083
12.1416
12.1754
12.2096
12.2441
12.2788
12.3137
12.3488
12.384
12.4192
12.4544
12.4896
12.5245
12.559
12.5931
12.6264
12.6587
12.6897
12.7189
12.7458
12.7699
12.7905
12.8069
12.8182
12.8238
12.8229
12.8153
12.801
12.7776
12.7413
11.8158
11.7779
11.754
11.7398
11.7323
11.7312
11.736
11.7459
11.7602
11.7782
11.7994
11.8232
11.8491
11.8769
11.9061
11.9366
11.9681
12.0005
12.0335
12.0672
12.1013
12.1358
12.1707
12.2058
12.2413
12.2769
12.3128
12.3488
12.385
12.4214
12.4577
12.4942
12.5305
12.5667
12.6026
12.6381
12.6727
12.7063
12.7384
12.7685
12.7958
12.8197
12.8392
12.8534
12.8613
12.8621
12.855
12.8401
12.8143
12.7735
11.7762
11.7335
11.7074
11.6927
11.686
11.6867
11.694
11.7068
11.7243
11.7456
11.77
11.7969
11.8258
11.8562
11.888
11.9208
11.9543
11.9885
12.0232
12.0584
12.0938
12.1296
12.1656
12.2018
12.2382
12.2749
12.3117
12.3487
12.386
12.4234
12.461
12.4988
12.5367
12.5747
12.6126
12.6504
12.6877
12.7243
12.7597
12.7934
12.8246
12.8526
12.8761
12.8941
12.9053
12.9084
12.9025
12.8873
12.8589
12.8126
11.7285
11.6801
11.6516
11.6369
11.6317
11.635
11.6457
11.6625
11.684
11.7093
11.7376
11.7682
11.8005
11.8341
11.8687
11.904
11.9398
11.976
12.0125
12.0493
12.0861
12.1232
12.1603
12.1976
12.2351
12.2727
12.3105
12.3485
12.3868
12.4253
12.4642
12.5033
12.5429
12.5827
12.6228
12.663
12.7033
12.7432
12.7824
12.8204
12.8563
12.8892
12.9179
12.9409
12.9565
12.9631
12.9592
12.9441
12.9132
12.8603
11.6707
11.6156
11.5846
11.5707
11.568
11.5752
11.5907
11.6125
11.6392
11.6696
11.7026
11.7375
11.7738
11.8109
11.8486
11.8867
11.925
11.9633
12.0017
12.04
12.0784
12.1167
12.155
12.1934
12.2318
12.2704
12.3091
12.3481
12.3873
12.427
12.4671
12.5077
12.5488
12.5905
12.6329
12.6758
12.7192
12.7628
12.8063
12.8492
12.8906
12.9296
12.9647
12.9941
13.0158
13.0274
13.027
13.013
12.9794
12.9189
11.6
11.537
11.504
11.4919
11.4935
11.5064
11.5284
11.5569
11.5901
11.6267
11.6653
11.7053
11.746
11.7871
11.8283
11.8693
11.9102
11.9507
11.991
12.031
12.0708
12.1104
12.1498
12.1892
12.2286
12.268
12.3076
12.3475
12.3877
12.4284
12.4697
12.5116
12.5543
12.598
12.6426
12.6883
12.735
12.7826
12.8308
12.8793
12.9272
12.9735
13.0165
13.0543
13.0841
13.103
13.108
13.0966
13.061
12.9916
11.5126
11.4405
11.4062
11.3982
11.4065
11.4277
11.4585
11.4958
11.5373
11.5812
11.6265
11.6723
11.7181
11.7635
11.8083
11.8524
11.8959
11.9387
11.9809
12.0225
12.0637
12.1044
12.1449
12.1853
12.2255
12.2658
12.3062
12.3469
12.3879
12.4296
12.4719
12.5151
12.5593
12.6048
12.6517
12.7001
12.7502
12.8021
12.8555
12.9102
12.9655
13.0205
13.0733
13.1217
13.1625
13.1917
13.2052
13.1989
13.1622
13.0829
11.4032
11.3207
11.287
11.2864
11.3053
11.3384
11.3812
11.4298
11.4815
11.5344
11.5874
11.6397
11.6909
11.7409
11.7895
11.8368
11.8828
11.9278
11.9718
12.0149
12.0573
12.0992
12.1406
12.1817
12.2227
12.2637
12.3048
12.3461
12.388
12.4304
12.4737
12.518
12.5636
12.6108
12.6598
12.711
12.7645
12.8207
12.8796
12.9411
13.0048
13.0698
13.1345
13.1964
13.2518
13.2955
13.3219
13.3248
13.2893
13.1988
11.2638
11.17
11.1404
11.1528
11.1881
11.2383
11.2972
11.3603
11.4244
11.4878
11.5495
11.6089
11.6658
11.7204
11.7728
11.8231
11.8716
11.9185
11.9641
12.0085
12.052
12.0948
12.137
12.1788
12.2203
12.2618
12.3035
12.3454
12.3878
12.4309
12.475
12.5203
12.5671
12.6158
12.6668
12.7204
12.7773
12.8378
12.9022
12.971
13.0439
13.1204
13.1993
13.278
13.3523
13.4162
13.4622
13.4807
13.4508
13.3485
11.0817
10.977
10.9588
10.9937
11.0539
11.1281
11.2084
11.2896
11.3686
11.4439
11.5149
11.5817
11.6444
11.7035
11.7593
11.8123
11.8629
11.9115
11.9583
12.0038
12.0481
12.0915
12.1343
12.1766
12.2185
12.2604
12.3024
12.3447
12.3875
12.4311
12.4758
12.5218
12.5695
12.6195
12.6721
12.7281
12.788
12.8525
12.9224
12.9985
13.0812
13.1706
13.2658
13.365
13.4639
13.5557
13.6306
13.6753
13.6591
13.5463
10.8358
10.7253
10.7324
10.805
10.9029
11.0105
11.1185
11.2217
11.3176
11.4058
11.4865
11.5604
11.6284
11.6914
11.7501
11.8053
11.8574
11.9072
11.9549
12.001
12.0459
12.0897
12.1327
12.1752
12.2174
12.2594
12.3016
12.3441
12.3871
12.431
12.476
12.5224
12.5708
12.6217
12.6756
12.7333
12.7958
12.864
12.9388
13.0221
13.1147
13.2177
13.3313
13.4547
13.5847
13.7141
13.8317
13.9192
13.9324
13.8157
10.4873
10.3899
10.4501
10.5852
10.7387
10.8912
11.0337
11.1623
11.2766
11.3777
11.4674
11.5475
11.6198
11.6857
11.7463
11.8028
11.8558
11.9061
11.9542
12.0005
12.0454
12.0893
12.1323
12.1748
12.2169
12.2589
12.3011
12.3435
12.3865
12.4304
12.4755
12.5221
12.5708
12.6221
12.6768
12.7357
12.7999
12.8709
12.9501
13.0395
13.1414
13.2579
13.3911
13.5421
13.7098
13.889
14.0683
14.2249
14.2977
14.1991
9.96507
9.93389
10.1013
10.3376
10.5707
10.7812
10.9641
11.1198
11.2518
11.3643
11.4611
11.5455
11.6203
11.6874
11.7487
11.8053
11.8583
11.9084
11.9562
12.0022
12.0468
12.0903
12.1331
12.1753
12.2171
12.2589
12.3007
12.3429
12.3857
12.4293
12.4742
12.5206
12.5691
12.6204
12.6751
12.7344
12.7995
12.872
12.954
13.048
13.1574
13.286
13.4382
13.6183
13.8296
14.0718
14.3379
14.6046
14.7941
14.772
9.14008
9.30859
9.67952
10.0729
10.4154
10.6964
10.9224
11.1036
11.25
11.37
11.4704
11.556
11.6308
11.6973
11.7575
11.8131
11.8649
11.914
11.9609
12.006
12.0499
12.0928
12.1349
12.1766
12.2179
12.2592
12.3005
12.3423
12.3845
12.4277
12.4719
12.5178
12.5657
12.6163
12.6704
12.7291
12.7937
12.8661
12.9487
13.0448
13.1586
13.2959
13.4638
13.6714
13.9291
14.247
14.6309
15.0658
15.4723
15.6684
7.71807
8.47527
9.21052
9.82566
10.3047
10.6615
10.9257
11.1243
11.2773
11.3983
11.4969
11.5798
11.6514
11.7148
11.7724
11.8254
11.8752
11.9225
11.9678
12.0117
12.0544
12.0963
12.1376
12.1785
12.2191
12.2597
12.3004
12.3414
12.383
12.4253
12.4687
12.5136
12.5604
12.6097
12.6623
12.7192
12.7819
12.8522
12.9327
13.0272
13.1406
13.2802
13.4564
13.6838
13.983
14.3821
14.9115
15.582
16.3721
17.191
4.87209
7.46723
8.87675
9.75073
10.3455
10.7451
11.0163
11.2078
11.3494
11.4587
11.5467
11.6205
11.6846
11.7418
11.7943
11.8433
11.8897
11.9342
11.9773
12.0193
12.0605
12.1011
12.1412
12.181
12.2206
12.2603
12.3
12.3401
12.3806
12.4218
12.464
12.5073
12.5523
12.5994
12.6493
12.7029
12.7614
12.8266
12.9008
12.9876
13.092
13.2217
13.3886
13.6113
13.9205
14.3672
15.0215
15.969
17.4644
20.1745
-1.58564e-06
6.38012
9.03454
10.1174
10.6977
11.0374
11.2454
11.3838
11.4842
11.5625
11.6272
11.6833
11.7339
11.7809
11.8253
11.8681
11.9096
11.9503
11.9902
12.0296
12.0687
12.1074
12.1459
12.1842
12.2226
12.2609
12.2994
12.3381
12.3772
12.4167
12.457
12.498
12.5403
12.5839
12.6295
12.6776
12.7291
12.7851
12.8472
12.918
13.0011
13.1022
13.2307
13.4032
13.6519
14.0414
14.6888
15.8671
18.6374
25.1395
)
;

boundaryField
{
    movingWallTop
    {
        type            zeroGradient;
    }
    movingWallBottom
    {
        type            zeroGradient;
    }
    fixedWalls
    {
        type            zeroGradient;
    }
    frontAndBack
    {
        type            empty;
    }
}


// ************************************************************************* //
