/*--------------------------------*- C++ -*----------------------------------*\
  =========                 |
  \\      /  F ield         | OpenFOAM: The Open Source CFD Toolbox
   \\    /   O peration     | Website:  https://openfoam.org
    \\  /    A nd           | Version:  7
     \\/     M anipulation  |
\*---------------------------------------------------------------------------*/
FoamFile
{
    version     2.0;
    format      ascii;
    class       surfaceScalarField;
    location    "0.0752";
    object      phi;
}
// * * * * * * * * * * * * * * * * * * * * * * * * * * * * * * * * * * * * * //

dimensions      [0 3 -1 0 0 0 0];

internalField   nonuniform List<scalar> 
4900
(
5.45461e-06
-5.45462e-06
9.95309e-06
-4.49848e-06
1.26939e-05
-2.7408e-06
1.44122e-05
-1.71833e-06
1.55285e-05
-1.11633e-06
1.62819e-05
-7.53313e-07
1.68131e-05
-5.31264e-07
1.72039e-05
-3.90753e-07
1.75013e-05
-2.97463e-07
1.77338e-05
-2.32454e-07
1.7919e-05
-1.85198e-07
1.80686e-05
-1.49633e-07
1.81907e-05
-1.22108e-07
1.82911e-05
-1.00327e-07
1.83738e-05
-8.27765e-08
1.84423e-05
-6.84176e-08
1.84988e-05
-5.65118e-08
1.85453e-05
-4.65158e-08
1.85833e-05
-3.80179e-08
1.8614e-05
-3.06975e-08
1.86383e-05
-2.42979e-08
1.86569e-05
-1.8608e-08
1.86703e-05
-1.34491e-08
1.8679e-05
-8.66539e-09
1.86831e-05
-4.11641e-09
1.86828e-05
3.31794e-10
1.8678e-05
4.80226e-09
1.86686e-05
9.42928e-09
1.86542e-05
1.43474e-08
1.86345e-05
1.97068e-08
1.86088e-05
2.56786e-08
1.85764e-05
3.24647e-08
1.85361e-05
4.03118e-08
1.84865e-05
4.953e-08
1.8426e-05
6.05205e-08
1.83522e-05
7.3817e-08
1.8262e-05
9.01493e-08
1.81515e-05
1.10546e-07
1.8015e-05
1.36507e-07
1.78447e-05
1.70307e-07
1.76291e-05
2.15548e-07
1.73509e-05
2.7822e-07
1.69821e-05
3.68787e-07
1.64758e-05
5.06331e-07
1.57496e-05
7.2622e-07
1.46576e-05
1.092e-06
1.29452e-05
1.71242e-06
1.0162e-05
2.7832e-06
5.55723e-06
4.60473e-06
5.55723e-06
-1.19319e-07
-5.3353e-06
1.83181e-06
-6.44961e-06
4.41348e-06
-5.32247e-06
6.72991e-06
-4.03476e-06
8.61078e-06
-2.99719e-06
1.00945e-05
-2.23704e-06
1.12608e-05
-1.69752e-06
1.21836e-05
-1.31361e-06
1.29215e-05
-1.03534e-06
1.35179e-05
-8.28886e-07
1.40048e-05
-6.72038e-07
1.44054e-05
-5.50242e-07
1.47371e-05
-4.53817e-07
1.50129e-05
-3.76191e-07
1.5243e-05
-3.12783e-07
1.54349e-05
-2.60321e-07
1.55947e-05
-2.164e-07
1.57274e-05
-1.79212e-07
1.58368e-05
-1.47359e-07
1.59258e-05
-1.19734e-07
1.5997e-05
-9.54424e-08
1.60521e-05
-7.3736e-08
1.60926e-05
-5.39766e-08
1.61196e-05
-3.56017e-08
1.61335e-05
-1.81e-08
1.61349e-05
-9.92099e-10
1.61235e-05
1.61953e-08
1.6099e-05
3.39344e-08
1.60606e-05
5.27278e-08
1.60072e-05
7.31239e-08
1.59371e-05
9.57448e-08
1.58482e-05
1.2132e-07
1.57378e-05
1.50731e-07
1.56023e-05
1.85075e-07
1.5437e-05
2.25752e-07
1.52363e-05
2.74593e-07
1.49924e-05
3.34052e-07
1.46954e-05
4.07497e-07
1.43323e-05
4.99669e-07
1.38852e-05
6.17411e-07
1.33298e-05
7.70858e-07
1.26327e-05
9.75367e-07
1.17469e-05
1.2546e-06
1.06081e-05
1.64516e-06
9.13212e-06
2.20215e-06
7.22463e-06
2.99949e-06
4.83162e-06
4.10544e-06
2.12103e-06
5.49378e-06
1.072e-08
6.71504e-06
5.56795e-06
-1.08241e-06
-4.25289e-06
-7.5391e-07
-6.77811e-06
5.90047e-07
-6.66643e-06
2.30298e-06
-5.74769e-06
4.01515e-06
-4.70936e-06
5.56792e-06
-3.78981e-06
6.91403e-06
-3.04363e-06
8.057e-06
-2.45658e-06
9.01936e-06
-1.9977e-06
9.82778e-06
-1.63731e-06
1.05073e-05
-1.35152e-06
1.10792e-05
-1.12223e-06
1.15615e-05
-9.36079e-07
1.19685e-05
-7.83218e-07
1.23121e-05
-6.56351e-07
1.26018e-05
-5.49993e-07
1.28453e-05
-4.5996e-07
1.30491e-05
-3.82998e-07
1.32183e-05
-3.16528e-07
1.3357e-05
-2.58463e-07
1.34687e-05
-2.07078e-07
1.35558e-05
-1.60911e-07
1.36206e-05
-1.18697e-07
1.36643e-05
-7.93055e-08
1.36879e-05
-4.16998e-08
1.36918e-05
-4.89924e-09
1.36759e-05
3.20635e-08
1.36397e-05
7.01626e-08
1.3582e-05
1.10428e-07
1.35011e-05
1.53981e-07
1.33948e-05
2.02083e-07
1.32599e-05
2.56199e-07
1.30925e-05
3.18078e-07
1.28878e-05
3.89861e-07
1.26393e-05
4.74229e-07
1.23393e-05
5.74614e-07
1.19778e-05
6.95484e-07
1.15426e-05
8.4277e-07
1.10178e-05
1.02446e-06
1.03838e-05
1.25143e-06
9.61597e-06
1.53864e-06
8.68473e-06
1.9066e-06
7.55649e-06
2.38284e-06
6.19938e-06
3.00227e-06
4.5987e-06
3.80283e-06
2.79212e-06
4.80608e-06
9.38354e-07
5.9592e-06
-5.70494e-07
7.00263e-06
-1.03811e-06
7.18266e-06
4.52983e-06
-9.12949e-07
-3.33994e-06
-1.34112e-06
-6.34994e-06
-9.35781e-07
-7.07176e-06
2.32033e-08
-6.70668e-06
1.24207e-06
-5.92823e-06
2.5213e-06
-5.06903e-06
3.74808e-06
-4.27041e-06
4.86966e-06
-3.57817e-06
5.86816e-06
-2.9962e-06
6.74368e-06
-2.51283e-06
7.50458e-06
-2.11242e-06
8.16231e-06
-1.77996e-06
8.72881e-06
-1.50258e-06
9.21534e-06
-1.26975e-06
9.63199e-06
-1.073e-06
9.98757e-06
-9.05579e-07
1.02897e-05
-7.62058e-07
1.05447e-05
-6.38042e-07
1.07581e-05
-5.29925e-07
1.09344e-05
-4.34705e-07
1.10771e-05
-3.49836e-07
1.11893e-05
-2.73118e-07
1.12732e-05
-2.02607e-07
1.13305e-05
-1.36544e-07
1.13621e-05
-7.3294e-08
1.13685e-05
-1.12957e-08
1.13495e-05
5.09933e-08
1.13046e-05
1.15137e-07
1.12322e-05
1.82782e-07
1.11305e-05
2.55708e-07
1.09967e-05
3.35902e-07
1.08272e-05
4.25641e-07
1.06177e-05
5.27599e-07
1.03626e-05
6.44983e-07
1.00551e-05
7.81716e-07
9.68703e-06
9.42671e-07
9.24854e-06
1.13397e-06
8.72792e-06
1.36339e-06
8.11153e-06
1.64084e-06
7.38408e-06
1.97888e-06
6.52954e-06
2.39318e-06
5.53361e-06
2.90253e-06
4.38909e-06
3.52737e-06
3.1065e-06
4.28485e-06
1.73346e-06
5.17588e-06
3.84746e-07
6.15478e-06
-7.23834e-07
7.06778e-06
-1.26538e-06
7.54418e-06
-9.15782e-07
6.83306e-06
3.61405e-06
-6.64609e-07
-2.67534e-06
-1.29659e-06
-5.71796e-06
-1.41666e-06
-6.95169e-06
-1.03999e-06
-7.08334e-06
-3.21104e-07
-6.64712e-06
5.82456e-07
-5.97259e-06
1.55241e-06
-5.24036e-06
2.51284e-06
-4.53859e-06
3.42049e-06
-3.90385e-06
4.25393e-06
-3.34627e-06
5.0051e-06
-2.86359e-06
5.67363e-06
-2.44848e-06
6.26321e-06
-2.09216e-06
6.77949e-06
-1.78603e-06
7.22882e-06
-1.52233e-06
7.61752e-06
-1.29428e-06
7.95156e-06
-1.09609e-06
8.23633e-06
-9.22819e-07
8.47662e-06
-7.70209e-07
8.67651e-06
-6.346e-07
8.83947e-06
-5.12791e-07
8.96829e-06
-4.01938e-07
9.06516e-06
-2.99476e-07
9.13165e-06
-2.03042e-07
9.16877e-06
-1.10408e-07
9.1769e-06
-1.94251e-08
9.15585e-06
7.20412e-08
9.10482e-06
1.66162e-07
9.0224e-06
2.65211e-07
8.90647e-06
3.71634e-07
8.75424e-06
4.88127e-07
8.56215e-06
6.17732e-07
8.3258e-06
7.63949e-07
8.03991e-06
9.30877e-07
7.69825e-06
1.12338e-06
7.29364e-06
1.34727e-06
6.81806e-06
1.60956e-06
6.26281e-06
1.91864e-06
5.61922e-06
2.28444e-06
4.87972e-06
2.71838e-06
4.04014e-06
3.23276e-06
3.1036e-06
3.83907e-06
2.08711e-06
4.54386e-06
1.03169e-06
5.34028e-06
1.60356e-08
6.19153e-06
-8.30555e-07
7.00137e-06
-1.32826e-06
7.56549e-06
-1.29243e-06
7.50835e-06
-6.84817e-07
6.22544e-06
2.92923e-06
-4.70546e-07
-2.20479e-06
-1.09882e-06
-5.08969e-06
-1.46618e-06
-6.58432e-06
-1.46606e-06
-7.08347e-06
-1.14424e-06
-6.96894e-06
-5.95723e-07
-6.52111e-06
8.57976e-08
-5.92189e-06
8.26438e-07
-5.27923e-06
1.57454e-06
-4.65194e-06
2.297e-06
-4.06873e-06
2.97439e-06
-3.54099e-06
3.59665e-06
-3.07074e-06
4.15974e-06
-2.65525e-06
4.66339e-06
-2.28969e-06
5.10952e-06
-1.96845e-06
5.5012e-06
-1.68596e-06
5.842e-06
-1.4369e-06
6.13562e-06
-1.21644e-06
6.38558e-06
-1.02017e-06
6.5951e-06
-8.44112e-07
6.76697e-06
-6.84661e-07
6.90354e-06
-5.38514e-07
7.00668e-06
-4.02614e-07
7.07772e-06
-2.74086e-07
7.11749e-06
-1.50178e-07
7.12627e-06
-2.82043e-08
7.1038e-06
9.45166e-08
7.04924e-06
2.20718e-07
6.9612e-06
3.5325e-07
6.83768e-06
4.95154e-07
6.67607e-06
6.49736e-07
6.47315e-06
8.20656e-07
6.22507e-06
1.01203e-06
5.92742e-06
1.22853e-06
5.57529e-06
1.4755e-06
5.1635e-06
1.75906e-06
4.68691e-06
2.08615e-06
4.14107e-06
2.46447e-06
3.52328e-06
2.90223e-06
2.83426e-06
3.4074e-06
2.08087e-06
3.98616e-06
1.28004e-06
4.63989e-06
4.6428e-07
5.35962e-06
-3.1185e-07
6.11641e-06
-9.6616e-07
6.84585e-06
-1.38983e-06
7.42504e-06
-1.46769e-06
7.64335e-06
-1.13532e-06
7.17598e-06
-4.96334e-07
5.58646e-06
2.4329e-06
-3.39531e-07
-1.86526e-06
-9.00791e-07
-4.52843e-06
-1.36164e-06
-6.12348e-06
-1.5807e-06
-6.86441e-06
-1.53956e-06
-7.01007e-06
-1.2803e-06
-6.78037e-06
-8.6425e-07
-6.33793e-06
-3.50509e-07
-5.79297e-06
2.12633e-07
-5.21509e-06
7.89312e-07
-4.64541e-06
1.35469e-06
-4.10637e-06
1.89264e-06
-3.60869e-06
2.39347e-06
-3.15608e-06
2.85197e-06
-2.74819e-06
3.26601e-06
-2.3825e-06
3.63542e-06
-2.05536e-06
3.96121e-06
-1.7627e-06
4.2451e-06
-1.50032e-06
4.48906e-06
-1.26413e-06
4.69515e-06
-1.0502e-06
4.86528e-06
-8.54788e-07
5.00112e-06
-6.74354e-07
5.10402e-06
-5.0552e-07
5.17497e-06
-3.45036e-07
5.21453e-06
-1.89737e-07
5.22283e-06
-3.64989e-08
5.19953e-06
1.17817e-07
5.14383e-06
2.76412e-07
5.05447e-06
4.42612e-07
4.9297e-06
6.19927e-07
4.76732e-06
8.12112e-07
4.56474e-06
1.02324e-06
4.31901e-06
1.25776e-06
4.027e-06
1.52054e-06
3.6856e-06
1.81691e-06
3.29205e-06
2.15261e-06
2.84453e-06
2.53368e-06
2.34295e-06
2.96605e-06
1.79025e-06
3.45493e-06
1.19411e-06
4.00353e-06
5.69428e-07
4.61084e-06
-5.8675e-08
5.26799e-06
-6.5152e-07
5.95246e-06
-1.15442e-06
6.61931e-06
-1.49765e-06
7.18908e-06
-1.6057e-06
7.53309e-06
-1.42231e-06
7.45996e-06
-9.58828e-07
6.71249e-06
-3.66322e-07
4.99396e-06
2.06658e-06
-2.54573e-07
-1.61069e-06
-7.39705e-07
-4.0433e-06
-1.2187e-06
-5.64449e-06
-1.55492e-06
-6.52819e-06
-1.69938e-06
-6.86561e-06
-1.65801e-06
-6.82174e-06
-1.46347e-06
-6.53247e-06
-1.15666e-06
-6.09978e-06
-7.7657e-07
-5.59518e-06
-3.55928e-07
-5.06605e-06
7.98549e-08
-4.54215e-06
5.1218e-07
-4.04102e-06
9.28109e-07
-3.57201e-06
1.31911e-06
-3.13919e-06
1.67994e-06
-2.74333e-06
2.0077e-06
-2.38312e-06
2.30111e-06
-2.05611e-06
2.55997e-06
-1.75918e-06
2.78471e-06
-1.48887e-06
2.97613e-06
-1.24162e-06
3.13517e-06
-1.01383e-06
3.26272e-06
-8.0191e-07
3.35956e-06
-6.0236e-07
3.42623e-06
-4.11705e-07
3.463e-06
-2.26506e-07
3.46983e-06
-4.33224e-08
3.44632e-06
1.41319e-07
3.39177e-06
3.30966e-07
3.3051e-06
5.29278e-07
3.18495e-06
7.40076e-07
3.02969e-06
9.67375e-07
2.83751e-06
1.21542e-06
2.60658e-06
1.48869e-06
2.33523e-06
1.79189e-06
2.02227e-06
2.12987e-06
1.66743e-06
2.50746e-06
1.272e-06
2.92911e-06
8.39705e-07
3.39834e-06
3.77901e-07
3.91674e-06
-1.00951e-07
4.48238e-06
-5.77504e-07
5.08739e-06
-1.02377e-06
5.71426e-06
-1.40198e-06
6.33067e-06
-1.66532e-06
6.88264e-06
-1.76268e-06
7.28644e-06
-1.6506e-06
7.42101e-06
-1.31568e-06
7.12505e-06
-8.0838e-07
6.20519e-06
-2.80893e-07
4.46647e-06
1.78568e-06
-1.9897e-07
-1.41172e-06
-6.16813e-07
-3.62546e-06
-1.08128e-06
-5.18002e-06
-1.47416e-06
-6.13531e-06
-1.73604e-06
-6.60374e-06
-1.85148e-06
-6.7063e-06
-1.83177e-06
-6.55217e-06
-1.70116e-06
-6.23039e-06
-1.48766e-06
-5.80868e-06
-1.21789e-06
-5.33581e-06
-9.1471e-07
-4.84533e-06
-5.96432e-07
-4.35929e-06
-2.77058e-07
-3.89138e-06
3.31598e-08
-3.44941e-06
3.2701e-07
-3.03718e-06
5.99642e-07
-2.65575e-06
8.47969e-07
-2.30444e-06
1.07018e-06
-1.98139e-06
1.26534e-06
-1.68403e-06
1.43309e-06
-1.40937e-06
1.57341e-06
-1.15415e-06
1.68644e-06
-9.14944e-07
1.77236e-06
-6.8828e-07
1.83128e-06
-4.70618e-07
1.86315e-06
-2.58383e-07
1.86779e-06
-4.79586e-08
1.84478e-06
1.6433e-07
1.79351e-06
3.82231e-07
1.7132e-06
6.09591e-07
1.60291e-06
8.50366e-07
1.46165e-06
1.10863e-06
1.2885e-06
1.38857e-06
1.08276e-06
1.69443e-06
8.44212e-07
2.03043e-06
5.73498e-07
2.40058e-06
2.72542e-07
2.80841e-06
-5.4803e-08
3.25645e-06
-4.01971e-07
3.74551e-06
-7.58738e-07
4.2735e-06
-1.11017e-06
4.83381e-06
-1.43563e-06
5.41286e-06
-1.70827e-06
5.9869e-06
-1.8955e-06
6.51791e-06
-1.96169e-06
6.94883e-06
-1.87435e-06
7.19909e-06
-1.61546e-06
7.16212e-06
-1.19858e-06
6.70816e-06
-6.8971e-07
5.69632e-06
-2.2422e-07
4.00098e-06
1.56146e-06
-1.61624e-07
-1.25009e-06
-5.24885e-07
-3.2622e-06
-9.63255e-07
-4.74165e-06
-1.379e-06
-5.71956e-06
-1.7127e-06
-6.27004e-06
-1.93796e-06
-6.48105e-06
-2.05176e-06
-6.43837e-06
-2.06513e-06
-6.21703e-06
-1.99581e-06
-5.878e-06
-1.86345e-06
-5.46817e-06
-1.68672e-06
-5.02207e-06
-1.4819e-06
-4.56411e-06
-1.26244e-06
-4.11084e-06
-1.03896e-06
-3.6729e-06
-8.19553e-07
-3.25658e-06
-6.10224e-07
-2.86508e-06
-4.15278e-07
-2.49938e-06
-2.37715e-07
-2.15895e-06
-7.95593e-08
-1.84219e-06
5.78685e-08
-1.5468e-06
1.73726e-07
-1.27e-06
2.67477e-07
-1.00869e-06
3.38755e-07
-7.59558e-07
3.87268e-07
-5.1913e-07
4.12721e-07
-2.83836e-07
4.14779e-07
-5.00162e-08
3.93039e-07
1.86069e-07
3.47042e-07
4.28229e-07
2.76292e-07
6.80341e-07
1.80326e-07
9.46332e-07
5.88012e-08
1.23016e-06
-8.83603e-08
1.53573e-06
-2.60782e-07
1.86685e-06
-4.57367e-07
2.22702e-06
-6.7596e-07
2.61918e-06
-9.12909e-07
3.04536e-06
-1.16254e-06
3.50608e-06
-1.41653e-06
3.9995e-06
-1.6633e-06
4.52027e-06
-1.88741e-06
5.05792e-06
-2.06932e-06
5.59476e-06
-2.18573e-06
6.10331e-06
-2.21119e-06
6.54337e-06
-2.12154e-06
6.85918e-06
-1.90004e-06
6.97759e-06
-1.54664e-06
6.80872e-06
-1.08977e-06
6.25128e-06
-5.97958e-07
5.20451e-06
-1.85427e-07
3.58845e-06
1.37604e-06
-1.35812e-07
-1.11428e-06
-4.5628e-07
-2.94173e-06
-8.66662e-07
-4.33126e-06
-1.28744e-06
-5.29879e-06
-1.66375e-06
-5.89373e-06
-1.96471e-06
-6.18008e-06
-2.17855e-06
-6.22453e-06
-2.30665e-06
-6.08893e-06
-2.35825e-06
-5.8264e-06
-2.34633e-06
-5.48009e-06
-2.28488e-06
-5.08351e-06
-2.18727e-06
-4.66172e-06
-2.06533e-06
-4.23278e-06
-1.92905e-06
-3.80918e-06
-1.78656e-06
-3.39907e-06
-1.64429e-06
-3.00735e-06
-1.50719e-06
-2.63648e-06
-1.37902e-06
-2.28712e-06
-1.26255e-06
-1.95866e-06
-1.15982e-06
-1.64953e-06
-1.07232e-06
-1.3575e-06
-1.00113e-06
-1.07988e-06
-9.47059e-07
-8.1363e-07
-9.10728e-07
-5.55461e-07
-8.92643e-07
-3.01922e-07
-8.93231e-07
-4.94277e-08
-9.1286e-07
2.05698e-07
-9.51826e-07
4.67195e-07
-1.01032e-06
7.38832e-07
-1.08835e-06
1.02437e-06
-1.18566e-06
1.32747e-06
-1.30158e-06
1.65165e-06
-1.43481e-06
2.00008e-06
-1.5832e-06
2.37541e-06
-1.74346e-06
2.77943e-06
-1.91076e-06
3.21266e-06
-2.07837e-06
3.6737e-06
-2.23726e-06
4.15839e-06
-2.37572e-06
4.65873e-06
-2.47929e-06
5.16149e-06
-2.53098e-06
5.64646e-06
-2.51229e-06
6.08462e-06
-2.4052e-06
6.43627e-06
-2.19569e-06
6.64968e-06
-1.87911e-06
6.66101e-06
-1.467e-06
6.39662e-06
-9.94653e-07
5.77893e-06
-5.26827e-07
4.73669e-06
-1.57867e-07
3.21949e-06
1.21817e-06
-1.17495e-07
-9.96785e-07
-4.04852e-07
-2.65437e-06
-7.89409e-07
-3.94671e-06
-1.20648e-06
-4.88172e-06
-1.60723e-06
-5.49297e-06
-1.95997e-06
-5.82734e-06
-2.24804e-06
-5.93647e-06
-2.46624e-06
-5.87072e-06
-2.61721e-06
-5.67543e-06
-2.70822e-06
-5.38909e-06
-2.74876e-06
-5.04297e-06
-2.74894e-06
-4.66154e-06
-2.71847e-06
-4.26326e-06
-2.66607e-06
-3.86158e-06
-2.59928e-06
-3.46586e-06
-2.52437e-06
-3.08226e-06
-2.44647e-06
-2.71438e-06
-2.36967e-06
-2.36392e-06
-2.29718e-06
-2.03115e-06
-2.2315e-06
-1.71521e-06
-2.17456e-06
-1.41445e-06
-2.12783e-06
-1.12661e-06
-2.09244e-06
-8.49015e-07
-2.06927e-06
-5.78638e-07
-2.05895e-06
-3.12237e-07
-2.06197e-06
-4.6408e-08
-2.07863e-06
2.22359e-07
-2.10906e-06
4.97623e-07
-2.15316e-06
7.82929e-07
-2.21054e-06
1.08174e-06
-2.28042e-06
1.39735e-06
-2.36151e-06
1.73274e-06
-2.45181e-06
2.09038e-06
-2.54842e-06
2.47202e-06
-2.64732e-06
2.87833e-06
-2.74305e-06
3.3084e-06
-2.82854e-06
3.75918e-06
-2.89484e-06
4.22468e-06
-2.9311e-06
4.69499e-06
-2.92476e-06
5.15515e-06
-2.86218e-06
5.58388e-06
-2.72987e-06
5.95232e-06
-2.51665e-06
6.22306e-06
-2.2168e-06
6.34982e-06
-1.83423e-06
6.27844e-06
-1.38735e-06
5.94974e-06
-9.13452e-07
5.30503e-06
-4.71017e-07
4.29425e-06
-1.37568e-07
2.88604e-06
1.0806e-06
-1.04211e-07
-8.92574e-07
-3.66052e-07
-2.39253e-06
-7.28329e-07
-3.58443e-06
-1.13796e-06
-4.47209e-06
-1.55213e-06
-5.0788e-06
-1.94021e-06
-5.43926e-06
-2.28317e-06
-5.59351e-06
-2.57158e-06
-5.58231e-06
-2.80321e-06
-5.4438e-06
-2.9807e-06
-5.21161e-06
-3.10956e-06
-4.91411e-06
-3.19675e-06
-4.57434e-06
-3.24967e-06
-4.21034e-06
-3.27543e-06
-3.83581e-06
-3.28057e-06
-3.46073e-06
-3.27081e-06
-3.09201e-06
-3.25106e-06
-2.73412e-06
-3.22542e-06
-2.38957e-06
-3.19723e-06
-2.05934e-06
-3.16923e-06
-1.74321e-06
-3.14358e-06
-1.4401e-06
-3.122e-06
-1.14819e-06
-3.10582e-06
-8.65191e-07
-3.09606e-06
-5.88397e-07
-3.09345e-06
-3.14847e-07
-3.09847e-06
-4.13897e-08
-3.11134e-06
2.35232e-07
-3.13202e-06
5.18306e-07
-3.16017e-06
8.11073e-07
-3.19505e-06
1.11663e-06
-3.23549e-06
1.43779e-06
-3.27972e-06
1.77697e-06
-3.32527e-06
2.13593e-06
-3.36881e-06
2.51556e-06
-3.40595e-06
2.91547e-06
-3.43112e-06
3.33357e-06
-3.43744e-06
3.7655e-06
-3.41669e-06
4.20394e-06
-3.35949e-06
4.6378e-06
-3.2557e-06
5.05136e-06
-3.09521e-06
5.42339e-06
-2.86931e-06
5.72642e-06
-2.57262e-06
5.92636e-06
-2.20574e-06
5.98294e-06
-1.77837e-06
5.85107e-06
-1.31247e-06
5.48384e-06
-8.44649e-07
4.83721e-06
-4.26569e-07
3.87617e-06
-1.22134e-07
2.5816e-06
9.58466e-07
-9.44137e-08
-7.9816e-07
-3.36598e-07
-2.15035e-06
-6.80327e-07
-3.2407e-06
-1.08144e-06
-4.07098e-06
-1.5025e-06
-4.65774e-06
-1.91477e-06
-5.02698e-06
-2.29838e-06
-5.20991e-06
-2.64132e-06
-5.23937e-06
-2.93793e-06
-5.14718e-06
-3.18724e-06
-4.96229e-06
-3.39145e-06
-4.70991e-06
-3.55465e-06
-4.41113e-06
-3.68197e-06
-4.08303e-06
-3.77881e-06
-3.73897e-06
-3.8505e-06
-3.38905e-06
-3.90194e-06
-3.04057e-06
-3.93755e-06
-2.69851e-06
-3.96118e-06
-2.36595e-06
-3.97609e-06
-2.04443e-06
-3.98501e-06
-1.73429e-06
-3.9902e-06
-1.43491e-06
-3.99346e-06
-1.14493e-06
-3.99623e-06
-8.62423e-07
-3.99958e-06
-5.85053e-07
-4.00425e-06
-3.10176e-07
-4.01069e-06
-3.49473e-08
-4.01904e-06
2.43579e-07
-4.02909e-06
5.28363e-07
-4.0403e-06
8.22278e-07
-4.05167e-06
1.128e-06
-4.06174e-06
1.44786e-06
-4.06846e-06
1.78369e-06
-4.0691e-06
2.13657e-06
-4.06014e-06
2.5066e-06
-4.0372e-06
2.89253e-06
-3.99496e-06
3.29133e-06
-3.92717e-06
3.69771e-06
-3.82676e-06
4.10353e-06
-3.68616e-06
4.49719e-06
-3.49778e-06
4.86299e-06
-3.25497e-06
5.18058e-06
-2.95319e-06
5.42463e-06
-2.59175e-06
5.56492e-06
-2.17587e-06
5.56707e-06
-1.71888e-06
5.39409e-06
-1.2442e-06
5.00915e-06
-7.86383e-07
4.3794e-06
-3.90652e-07
3.48044e-06
-1.10089e-07
2.30104e-06
8.48377e-07
-8.70961e-08
-7.11064e-07
-3.14123e-07
-1.92332e-06
-6.42738e-07
-2.91209e-06
-1.03558e-06
-3.67814e-06
-1.45977e-06
-4.23355e-06
-1.88871e-06
-4.59804e-06
-2.30256e-06
-4.79606e-06
-2.68786e-06
-4.85408e-06
-3.0366e-06
-4.79844e-06
-3.3451e-06
-4.65379e-06
-3.61285e-06
-4.44216e-06
-3.84151e-06
-4.18247e-06
-4.03411e-06
-3.89044e-06
-4.19437e-06
-3.57871e-06
-4.32631e-06
-3.2571e-06
-4.43391e-06
-2.93296e-06
-4.52092e-06
-2.6115e-06
-4.59075e-06
-2.29612e-06
-4.64639e-06
-1.98878e-06
-4.69045e-06
-1.69023e-06
-4.7251e-06
-1.40026e-06
-4.75214e-06
-1.11789e-06
-4.77297e-06
-8.4159e-07
-4.78866e-06
-5.69361e-07
-4.79993e-06
-2.98906e-07
-4.80716e-06
-2.77198e-08
-4.81038e-06
2.46799e-07
-4.80927e-06
5.27249e-07
-4.8031e-06
8.16109e-07
-4.79072e-06
1.11562e-06
-4.77048e-06
1.42763e-06
-4.7402e-06
1.75341e-06
-4.69709e-06
2.09345e-06
-4.63769e-06
2.44721e-06
-4.55788e-06
2.81272e-06
-4.45288e-06
3.18633e-06
-4.31736e-06
3.56218e-06
-4.14562e-06
3.93179e-06
-3.93202e-06
4.28359e-06
-3.6715e-06
4.60248e-06
-3.36049e-06
4.86957e-06
-2.99798e-06
5.06212e-06
-2.58692e-06
5.15386e-06
-2.13576e-06
5.1159e-06
-1.65993e-06
4.91826e-06
-1.183e-06
4.53222e-06
-7.36945e-07
3.93334e-06
-3.61261e-07
3.10476e-06
-1.00493e-07
2.04027e-06
7.47883e-07
-8.15822e-08
-6.29482e-07
-2.96913e-07
-1.70799e-06
-6.13382e-07
-2.59562e-06
-9.98805e-07
-3.29271e-06
-1.42406e-06
-3.80829e-06
-1.86461e-06
-4.15749e-06
-2.3011e-06
-4.35956e-06
-2.71936e-06
-4.43582e-06
-3.10982e-06
-4.40798e-06
-3.4668e-06
-4.29681e-06
-3.78767e-06
-4.12129e-06
-4.07205e-06
-3.89809e-06
-4.32111e-06
-3.64138e-06
-4.53704e-06
-3.36278e-06
-4.72257e-06
-3.07157e-06
-4.88069e-06
-2.77484e-06
-5.01441e-06
-2.47778e-06
-5.12658e-06
-2.18395e-06
-5.21982e-06
-1.89554e-06
-5.29647e-06
-1.61358e-06
-5.35854e-06
-1.33819e-06
-5.4077e-06
-1.06874e-06
-5.44528e-06
-8.04015e-07
-5.47226e-06
-5.42381e-07
-5.48929e-06
-2.81875e-07
-5.49666e-06
-2.0342e-08
-5.49433e-06
2.44463e-07
-5.48184e-06
5.14763e-07
-5.45837e-06
7.92641e-07
-5.42267e-06
1.07991e-06
-5.37301e-06
1.37797e-06
-5.30721e-06
1.68761e-06
-5.22257e-06
2.00881e-06
-5.11589e-06
2.34052e-06
-4.9835e-06
2.68033e-06
-4.82135e-06
3.02418e-06
-4.62516e-06
3.366e-06
-4.39072e-06
3.69735e-06
-4.11428e-06
4.00714e-06
-3.79312e-06
4.28132e-06
-3.42634e-06
4.50279e-06
-3.01578e-06
4.65156e-06
-2.56712e-06
4.7052e-06
-2.09098e-06
4.63976e-06
-1.60386e-06
4.43114e-06
-1.12874e-06
4.0571e-06
-6.94919e-07
3.49952e-06
-3.3698e-07
2.74682e-06
-9.27308e-08
1.79603e-06
6.55153e-07
-7.74036e-08
-5.52079e-07
-2.83708e-07
-1.50168e-06
-5.9052e-07
-2.28881e-06
-9.69595e-07
-2.91364e-06
-1.39484e-06
-3.38304e-06
-1.84358e-06
-3.70876e-06
-2.29716e-06
-3.90598e-06
-2.74111e-06
-3.99187e-06
-3.16489e-06
-3.9842e-06
-3.56139e-06
-3.90032e-06
-3.92632e-06
-3.75636e-06
-4.25762e-06
-3.56678e-06
-4.55493e-06
-3.34407e-06
-4.81901e-06
-3.0987e-06
-5.05143e-06
-2.83915e-06
-5.2542e-06
-2.57207e-06
-5.42954e-06
-2.30243e-06
-5.57973e-06
-2.03377e-06
-5.70693e-06
-1.76834e-06
-5.81315e-06
-1.50737e-06
-5.90014e-06
-1.2512e-06
-5.96938e-06
-9.99487e-07
-6.02208e-06
-7.51317e-07
-6.0591e-06
-5.0536e-07
-6.08099e-06
-2.59988e-07
-6.08795e-06
-1.3387e-08
-6.07982e-06
2.36334e-07
-6.05609e-06
4.91032e-07
-6.01586e-06
7.5241e-07
-5.95783e-06
1.02189e-06
-5.88033e-06
1.30046e-06
-5.78125e-06
1.58852e-06
-5.65811e-06
1.88567e-06
-5.50809e-06
2.1905e-06
-5.32809e-06
2.50034e-06
-5.11491e-06
2.81099e-06
-4.86538e-06
3.11647e-06
-4.57674e-06
3.40871e-06
-4.24701e-06
3.67741e-06
-3.87553e-06
3.90984e-06
-3.46366e-06
4.09091e-06
-3.01547e-06
4.20338e-06
-2.53865e-06
4.22838e-06
-2.04519e-06
4.1463e-06
-1.55199e-06
3.93795e-06
-1.08108e-06
3.58619e-06
-6.59189e-07
3.07763e-06
-3.168e-07
2.40443e-06
-8.63872e-08
1.56561e-06
5.68765e-07
-7.42284e-08
-4.7785e-07
-2.73579e-07
-1.30233e-06
-5.72782e-07
-1.9896e-06
-9.46596e-07
-2.53982e-06
-1.37134e-06
-2.95829e-06
-1.82594e-06
-3.25416e-06
-2.29249e-06
-3.43943e-06
-2.75652e-06
-3.52785e-06
-3.20685e-06
-3.53386e-06
-3.63537e-06
-3.4718e-06
-4.03653e-06
-3.3552e-06
-4.40696e-06
-3.19635e-06
-4.74497e-06
-3.00607e-06
-5.05012e-06
-2.79355e-06
-5.32291e-06
-2.56636e-06
-5.56446e-06
-2.33052e-06
-5.77623e-06
-2.09066e-06
-5.95989e-06
-1.85011e-06
-6.11714e-06
-1.61109e-06
-6.24959e-06
-1.37492e-06
-6.35872e-06
-1.14207e-06
-6.4458e-06
-9.12408e-07
-6.51184e-06
-6.85278e-07
-6.55757e-06
-4.59631e-07
-6.58341e-06
-2.34143e-07
-6.58948e-06
-7.32265e-09
-6.57553e-06
2.22386e-07
-6.54099e-06
4.56495e-07
-6.48494e-06
6.9636e-07
-6.4061e-06
9.43055e-07
-6.30288e-06
1.19724e-06
-6.17334e-06
1.45898e-06
-6.0153e-06
1.72764e-06
-5.8264e-06
2.0016e-06
-5.60417e-06
2.27812e-06
-5.34627e-06
2.55309e-06
-5.05065e-06
2.82084e-06
-4.71589e-06
3.07396e-06
-4.34162e-06
3.30314e-06
-3.92893e-06
3.49716e-06
-3.481e-06
3.64298e-06
-3.00366e-06
3.72604e-06
-2.506e-06
3.73072e-06
-2.00084e-06
3.64114e-06
-1.50508e-06
3.44219e-06
-1.03961e-06
3.12072e-06
-6.28899e-07
2.66692e-06
-3.00001e-07
2.07553e-06
-8.11781e-08
1.34679e-06
4.87587e-07
-7.1817e-08
-4.06033e-07
-2.65831e-07
-1.10832e-06
-5.59097e-07
-1.69634e-06
-9.28658e-07
-2.17026e-06
-1.35274e-06
-2.53421e-06
-1.81159e-06
-2.79531e-06
-2.28803e-06
-2.96299e-06
-2.76772e-06
-3.04817e-06
-3.23912e-06
-3.06246e-06
-3.69339e-06
-3.01752e-06
-4.12407e-06
-2.92452e-06
-4.52673e-06
-2.7937e-06
-4.8986e-06
-2.63421e-06
-5.23824e-06
-2.45391e-06
-5.54522e-06
-2.25937e-06
-5.81984e-06
-2.05591e-06
-6.06288e-06
-1.84762e-06
-6.27541e-06
-1.63757e-06
-6.45867e-06
-1.42784e-06
-6.6139e-06
-1.21969e-06
-6.74227e-06
-1.0137e-06
-6.84481e-06
-8.09869e-07
-6.92233e-06
-6.0775e-07
-6.97543e-06
-4.06537e-07
-7.00439e-06
-2.05181e-07
-7.00923e-06
-2.48362e-09
-6.98964e-06
2.02801e-07
-6.94502e-06
4.11873e-07
-6.87444e-06
6.25781e-07
-6.77669e-06
8.45305e-07
-6.65029e-06
1.07084e-06
-6.49355e-06
1.30224e-06
-6.30461e-06
1.5387e-06
-6.08159e-06
1.77858e-06
-5.82268e-06
2.01921e-06
-5.52637e-06
2.25678e-06
-5.19164e-06
2.48612e-06
-4.81831e-06
2.70063e-06
-4.40735e-06
2.89218e-06
-3.96136e-06
3.05116e-06
-3.48496e-06
3.16658e-06
-2.98529e-06
3.22637e-06
-2.47242e-06
3.21784e-06
-1.95963e-06
3.12835e-06
-1.46355e-06
2.94611e-06
-1.00399e-06
2.66115e-06
-6.03401e-07
2.26633e-06
-2.86066e-07
1.7582e-06
-7.69045e-08
1.13763e-06
4.10683e-07
-6.9995e-08
-3.36038e-07
-2.59944e-07
-9.18371e-07
-5.48633e-07
-1.40765e-06
-9.14832e-07
-1.80406e-06
-1.33825e-06
-2.11079e-06
-1.80022e-06
-2.33334e-06
-2.28421e-06
-2.47901e-06
-2.77604e-06
-2.55633e-06
-3.26401e-06
-2.57449e-06
-3.73878e-06
-2.54276e-06
-4.19318e-06
-2.47011e-06
-4.62197e-06
-2.3649e-06
-5.02155e-06
-2.23463e-06
-5.38962e-06
-2.08583e-06
-5.72498e-06
-1.92401e-06
-6.02722e-06
-1.75367e-06
-6.29649e-06
-1.57835e-06
-6.53337e-06
-1.4007e-06
-6.73862e-06
-1.22258e-06
-6.91315e-06
-1.04516e-06
-7.05782e-06
-8.69023e-07
-7.17343e-06
-6.94262e-07
-7.2606e-06
-5.20579e-07
-7.31976e-06
-3.47377e-07
-7.3511e-06
-1.73848e-07
-7.35452e-06
9.42647e-10
-7.32968e-06
1.77963e-07
-7.27595e-06
3.58141e-07
-7.19243e-06
5.42258e-07
-7.07798e-06
7.30858e-07
-6.93129e-06
9.24139e-07
-6.75088e-06
1.12184e-06
-6.53528e-06
1.3231e-06
-6.28306e-06
1.52636e-06
-5.99305e-06
1.72919e-06
-5.66447e-06
1.9282e-06
-5.29726e-06
2.1189e-06
-4.89227e-06
2.29564e-06
-4.45165e-06
2.45157e-06
-3.97918e-06
2.57869e-06
-3.48061e-06
2.66802e-06
-2.96407e-06
2.70982e-06
-2.44027e-06
2.69404e-06
-1.92271e-06
2.6108e-06
-1.42767e-06
2.45107e-06
-9.73906e-07
2.20739e-06
-5.82215e-07
1.87464e-06
-2.74621e-07
1.4506e-06
-7.3426e-08
9.36433e-07
3.37257e-07
-6.86343e-08
-2.67404e-07
-2.55529e-07
-7.31476e-07
-5.40749e-07
-1.12243e-06
-9.04358e-07
-1.44046e-06
-1.3272e-06
-1.68795e-06
-1.79147e-06
-1.86907e-06
-2.28115e-06
-1.98932e-06
-2.7823e-06
-2.05519e-06
-3.2831e-06
-2.07369e-06
-3.77388e-06
-2.05198e-06
-4.24697e-06
-1.99702e-06
-4.69651e-06
-1.91536e-06
-5.11823e-06
-1.81292e-06
-5.50918e-06
-1.69489e-06
-5.86749e-06
-1.5657e-06
-6.19217e-06
-1.42899e-06
-6.48287e-06
-1.28766e-06
-6.73968e-06
-1.14389e-06
-6.96299e-06
-9.9926e-07
-7.15339e-06
-8.54769e-07
-7.31146e-06
-7.10951e-07
-7.43778e-06
-5.67941e-07
-7.5328e-06
-4.25556e-07
-7.59681e-06
-2.83368e-07
-7.62988e-06
-1.40777e-07
-7.63186e-06
2.91714e-09
-7.60234e-06
1.48443e-07
-7.54068e-06
2.96488e-07
-7.44604e-06
4.47613e-07
-7.31736e-06
6.0218e-07
-7.15348e-06
7.6026e-07
-6.95318e-06
9.21538e-07
-6.7153e-06
1.08522e-06
-6.43885e-06
1.24991e-06
-6.12321e-06
1.41355e-06
-5.76829e-06
1.57329e-06
-5.3748e-06
1.72542e-06
-4.94449e-06
1.86532e-06
-4.48043e-06
1.9875e-06
-3.98734e-06
2.0856e-06
-3.47185e-06
2.15253e-06
-2.94279e-06
2.18076e-06
-2.4113e-06
2.16255e-06
-1.89094e-06
2.09044e-06
-1.39759e-06
1.95771e-06
-9.49133e-07
1.75894e-06
-5.64986e-07
1.49049e-06
-2.654e-07
1.15102e-06
-7.06433e-08
7.41676e-07
2.66613e-07
-6.76415e-08
-1.99762e-07
-2.52299e-07
-5.46818e-07
-5.34961e-07
-8.39765e-07
-8.96639e-07
-1.07878e-06
-1.31902e-06
-1.26558e-06
-1.78495e-06
-1.40313e-06
-2.27886e-06
-1.49541e-06
-2.78696e-06
-1.54708e-06
-3.29743e-06
-1.56322e-06
-3.80035e-06
-1.54905e-06
-4.28771e-06
-1.50966e-06
-4.75318e-06
-1.44989e-06
-5.192e-06
-1.3741e-06
-5.60069e-06
-1.2862e-06
-5.97689e-06
-1.18949e-06
-6.31913e-06
-1.08674e-06
-6.62664e-06
-9.80148e-07
-6.89914e-06
-8.71396e-07
-7.1367e-06
-7.617e-07
-7.33961e-06
-6.51858e-07
-7.50825e-06
-5.42308e-07
-7.643e-06
-4.33189e-07
-7.74416e-06
-3.24395e-07
-7.8119e-06
-2.15635e-07
-7.84619e-06
-1.06488e-07
-7.84681e-06
3.54199e-09
-7.81334e-06
1.14972e-07
-7.74513e-06
2.28283e-07
-7.64138e-06
3.43859e-07
-7.50112e-06
4.61924e-07
-7.32334e-06
5.82479e-07
-7.10703e-06
7.05226e-07
-6.85131e-06
8.29498e-07
-6.55559e-06
9.54182e-07
-6.21968e-06
1.07765e-06
-5.84409e-06
1.19769e-06
-5.43013e-06
1.31146e-06
-4.98026e-06
1.41546e-06
-4.4983e-06
1.50554e-06
-3.98967e-06
1.57697e-06
-3.46165e-06
1.62451e-06
-2.92354e-06
1.64265e-06
-2.38678e-06
1.62578e-06
-1.8649e-06
1.56856e-06
-1.37342e-06
1.46623e-06
-9.29492e-07
1.31501e-06
-5.51459e-07
1.11246e-06
-2.58212e-07
8.57771e-07
-6.8486e-08
5.5195e-07
1.98127e-07
-6.69495e-08
-1.32813e-07
-2.50043e-07
-3.63725e-07
-5.30909e-07
-5.58899e-07
-8.91222e-07
-7.18464e-07
-1.31326e-06
-8.43536e-07
-1.78036e-06
-9.36035e-07
-2.27725e-06
-9.98523e-07
-2.79031e-06
-1.03403e-06
-3.30768e-06
-1.04585e-06
-3.81934e-06
-1.03739e-06
-4.31701e-06
-1.012e-06
-4.79405e-06
-9.72845e-07
-5.24532e-06
-9.2283e-07
-5.66699e-06
-8.6453e-07
-6.05632e-06
-8.00161e-07
-6.4115e-06
-7.31567e-07
-6.73141e-06
-6.60232e-07
-7.01551e-06
-5.87298e-07
-7.26362e-06
-5.13594e-07
-7.4758e-06
-4.3967e-07
-7.65227e-06
-3.65839e-07
-7.79326e-06
-2.92208e-07
-7.89893e-06
-2.18724e-07
-7.96935e-06
-1.45207e-07
-8.00445e-06
-7.13917e-08
-8.00395e-06
3.03981e-09
-7.96739e-06
7.84166e-08
-7.89415e-06
1.55042e-07
-7.78345e-06
2.33153e-07
-7.6344e-06
3.12878e-07
-7.44611e-06
3.9419e-07
-7.21775e-06
4.76861e-07
-6.94866e-06
5.60414e-07
-6.63855e-06
6.44072e-07
-6.28761e-06
7.26712e-07
-5.89675e-06
8.06826e-07
-5.46778e-06
8.82491e-07
-5.00368e-06
9.51356e-07
-4.50879e-06
1.01065e-06
-3.98905e-06
1.05723e-06
-3.4522e-06
1.08766e-06
-2.90787e-06
1.09832e-06
-2.36765e-06
1.08556e-06
-1.84503e-06
1.04595e-06
-1.35523e-06
9.76433e-07
-9.14859e-07
8.74635e-07
-5.41451e-07
7.39052e-07
-2.52922e-07
5.69242e-07
-6.69052e-08
3.65933e-07
1.31222e-07
-6.65122e-08
-6.63005e-08
-2.48615e-07
-1.81622e-07
-5.28341e-07
-2.79173e-07
-8.87784e-07
-3.5902e-07
-1.30961e-06
-4.21715e-07
-1.77744e-06
-4.68197e-07
-2.27624e-06
-4.99726e-07
-2.79248e-06
-5.1779e-07
-3.31431e-06
-5.24016e-07
-3.83162e-06
-5.20082e-07
-4.33597e-06
-5.07645e-07
-4.82054e-06
-4.88277e-07
-5.27995e-06
-4.63423e-07
-5.71011e-06
-4.34366e-07
-6.10806e-06
-4.02213e-07
-6.47174e-06
-3.6789e-07
-6.79982e-06
-3.32144e-07
-7.09157e-06
-2.95549e-07
-7.34664e-06
-2.58527e-07
-7.56495e-06
-2.21357e-07
-7.74659e-06
-1.84203e-07
-7.89167e-06
-1.47122e-07
-8.0003e-06
-1.10094e-07
-8.07248e-06
-7.30327e-08
-8.10806e-06
-3.58094e-08
-8.10675e-06
1.73004e-09
-8.06808e-06
3.97456e-08
-7.99142e-06
7.83837e-08
-7.87603e-06
1.17757e-07
-7.72107e-06
1.57923e-07
-7.52574e-06
1.9886e-07
-7.28932e-06
2.40445e-07
-7.01134e-06
2.8243e-07
-6.69168e-06
3.24415e-07
-6.3308e-06
3.65829e-07