/*--------------------------------*- C++ -*----------------------------------*\
  =========                 |
  \\      /  F ield         | OpenFOAM: The Open Source CFD Toolbox
   \\    /   O peration     | Website:  https://openfoam.org
    \\  /    A nd           | Version:  7
     \\/     M anipulation  |
\*---------------------------------------------------------------------------*/
FoamFile
{
    version     2.0;
    format      ascii;
    class       surfaceScalarField;
    location    "0.0122";
    object      phi;
}
// * * * * * * * * * * * * * * * * * * * * * * * * * * * * * * * * * * * * * //

dimensions      [0 3 -1 0 0 0 0];

internalField   nonuniform List<scalar> 
4900
(
7.34502e-10
-7.34487e-10
8.82673e-10
-1.48183e-10
-1.7428e-10
1.05696e-09
-2.48799e-09
2.31372e-09
-5.94064e-09
3.45265e-09
-1.0335e-08
4.39433e-09
-1.54604e-08
5.12544e-09
-2.11176e-08
5.65717e-09
-2.71264e-08
6.00882e-09
-3.33283e-08
6.20192e-09
-3.95861e-08
6.25775e-09
-4.57823e-08
6.19619e-09
-5.18175e-08
6.03521e-09
-5.76082e-08
5.79069e-09
-6.30845e-08
5.47638e-09
-6.81886e-08
5.10404e-09
-7.28722e-08
4.68362e-09
-7.70957e-08
4.22345e-09
-8.08262e-08
3.73051e-09
-8.40369e-08
3.21068e-09
-8.67058e-08
2.66894e-09
-8.88154e-08
2.10959e-09
-9.03518e-08
1.53643e-09
-9.13048e-08
9.52935e-10
-9.16671e-08
3.6237e-10
-9.1435e-08
-2.32072e-10
-9.06079e-08
-8.27168e-10
-8.91883e-08
-1.41956e-09
-8.71827e-08
-2.00565e-09
-8.46012e-08
-2.58147e-09
-8.14586e-08
-3.14257e-09
-7.77748e-08
-3.68386e-09
-7.35753e-08
-4.19948e-09
-6.88927e-08
-4.68257e-09
-6.37676e-08
-5.12512e-09
-5.82498e-08
-5.51773e-09
-5.24004e-08
-5.84947e-09
-4.62927e-08
-6.10769e-09
-4.00148e-08
-6.27791e-09
-3.3671e-08
-6.34377e-09
-2.73839e-08
-6.28712e-09
-2.12957e-08
-6.08824e-09
-1.55693e-08
-5.72639e-09
-1.03883e-08
-5.18099e-09
-5.95427e-09
-4.43404e-09
-2.47836e-09
-3.47591e-09
-1.56585e-10
-2.32179e-09
8.97737e-10
-1.05433e-09
7.40486e-10
1.5726e-10
7.40484e-10
1.57426e-10
-8.9192e-10
-1.49367e-09
1.5029e-09
-5.78491e-09
5.34817e-09
-1.28669e-08
9.39574e-09
-2.25348e-08
1.31206e-08
-3.44243e-08
1.62838e-08
-4.80999e-08
1.88011e-08
-6.31147e-08
2.0672e-08
-7.90417e-08
2.19358e-08
-9.54893e-08
2.26495e-08
-1.12108e-07
2.28763e-08
-1.28591e-07
2.26796e-08
-1.44675e-07
2.2119e-08
-1.60133e-07
2.1249e-08
-1.74775e-07
2.0118e-08
-1.88439e-07
1.87683e-08
-2.00992e-07
1.72361e-08
-2.12321e-07
1.55523e-08
-2.22333e-07
1.37432e-08
-2.30954e-07
1.18311e-08
-2.3812e-07
9.83505e-09
-2.43782e-07
7.77177e-09
-2.47902e-07
5.65598e-09
-2.5045e-07
3.5012e-09
-2.51408e-07
1.32011e-09
-2.50765e-07
-8.74898e-10
-2.48521e-07
-3.07135e-09
-2.44684e-07
-5.25629e-09
-2.39274e-07
-7.41586e-09
-2.3232e-07
-9.53489e-09
-2.23866e-07
-1.15964e-08
-2.13969e-07
-1.35811e-08
-2.02702e-07
-1.54669e-08
-1.90156e-07
-1.72281e-08
-1.76446e-07
-1.8835e-08
-1.61711e-07
-2.02532e-08
-1.46117e-07
-2.14431e-08
-1.29865e-07
-2.23595e-08
-1.13192e-07
-2.29517e-08
-9.63717e-08
-2.31638e-08
-7.97235e-08
-2.29353e-08
-6.36081e-08
-2.22037e-08
-4.84268e-08
-2.09076e-08
-3.46146e-08
-1.89932e-08
-2.26233e-08
-1.64254e-08
-1.28893e-08
-1.32099e-08
-5.77398e-09
-9.43709e-09
-1.4761e-09
-5.35218e-09
1.67312e-10
-1.48615e-09
9.07806e-10
-1.02543e-09
1.33521e-10
-5.29515e-09
5.77262e-09
-1.33659e-08
1.34189e-08
-2.52828e-08
2.13126e-08
-4.07657e-08
2.86035e-08
-5.93392e-08
3.48573e-08
-8.04291e-08
3.9891e-08
-1.03429e-07
4.36724e-08
-1.27746e-07
4.62523e-08
-1.52821e-07
4.77242e-08
-1.78146e-07
4.82014e-08
-2.03269e-07
4.78029e-08
-2.27795e-07
4.66447e-08
-2.51381e-07
4.48351e-08
-2.73735e-07
4.2472e-08
-2.94609e-07
3.96423e-08
-3.13794e-07
3.64215e-08
-3.31116e-07
3.28745e-08
-3.4643e-07
2.90573e-08
-3.59617e-07
2.50175e-08
-3.70578e-07
2.07965e-08
-3.79237e-07
1.64302e-08
-3.85532e-07
1.19509e-08
-3.89419e-07
7.38804e-09
-3.90868e-07
2.76926e-09
-3.89864e-07
-1.8784e-09
-3.86408e-07
-6.52779e-09
-3.80513e-07
-1.11508e-08
-3.72212e-07
-1.57173e-08
-3.61552e-07
-2.01945e-08
-3.48603e-07
-2.45459e-08
-3.33454e-07
-2.87302e-08
-3.16221e-07
-3.26999e-08
-2.97048e-07
-3.64007e-08
-2.76113e-07
-3.977e-08
-2.5363e-07
-4.27357e-08
-2.29858e-07
-4.52159e-08
-2.05099e-07
-4.7118e-08
-1.79711e-07
-4.83396e-08
-1.54106e-07
-4.87693e-08
-1.28751e-07
-4.82901e-08
-1.0417e-07
-4.67846e-08
-8.09346e-08
-4.4143e-08
-5.965e-08
-4.02779e-08
-4.09284e-08
-3.51469e-08
-2.53459e-08
-2.87925e-08
-1.33742e-08
-2.14088e-08
-5.28468e-09
-1.34417e-08
-1.01872e-09
-5.7521e-09
-1.10885e-10
-2.26444e-09
2.39794e-09
-9.33643e-09
1.28446e-08
-2.12955e-08
2.5378e-08
-3.79635e-08
3.79806e-08
-5.89201e-08
4.95601e-08
-8.35778e-08
5.95149e-08
-1.11253e-07
6.75667e-08
-1.41227e-07
7.36464e-08
-1.72786e-07
7.78112e-08
-2.05252e-07
8.01903e-08
-2.38001e-07
8.09499e-08
-2.70469e-07
8.0271e-08
-3.02159e-07
7.83343e-08
-3.32635e-07
7.53118e-08
-3.61525e-07
7.13616e-08
-3.88508e-07
6.66249e-08
-4.13313e-07
6.12265e-08
-4.35713e-07
5.52746e-08
-4.55518e-07
4.88628e-08
-4.72573e-07
4.20719e-08
-4.86748e-07
3.49719e-08
-4.97942e-07
2.76244e-08
-5.06076e-07
2.00846e-08
-5.11091e-07
1.24031e-08
-5.12949e-07
4.62729e-09
-5.11631e-07
-3.19631e-09
-5.07138e-07
-1.10211e-08
-4.9949e-07
-1.8799e-08
-4.88728e-07
-2.64786e-08
-4.74919e-07
-3.40039e-08
-4.58152e-07
-4.13127e-08
-4.38547e-07
-4.8335e-08
-4.16256e-07
-5.49909e-08
-3.91468e-07
-6.1189e-08
-3.64413e-07
-6.68249e-08
-3.3537e-07
-7.17791e-08
-3.04669e-07
-7.59168e-08
-2.72699e-07
-7.90874e-08
-2.39913e-07
-8.11258e-08
-2.06827e-07
-8.18555e-08
-1.74023e-07
-8.1094e-08
-1.42145e-07
-7.86628e-08
-1.11886e-07
-7.44014e-08
-8.39737e-08
-6.81905e-08
-5.91346e-08
-5.9986e-08
-3.80543e-08
-4.98728e-08
-2.1316e-08
-3.8147e-08
-9.32984e-09
-2.54278e-08
-2.2573e-09
-1.28246e-08
-2.36816e-09
-3.41376e-09
5.81168e-09
-1.31647e-08
2.25955e-08
-2.8869e-08
4.10823e-08
-5.00586e-08
5.91702e-08
-7.61288e-08
7.56302e-08
-1.06362e-07
8.97479e-08
-1.39969e-07
1.01174e-07
-1.76136e-07
1.09813e-07
-2.14055e-07
1.15731e-07
-2.52959e-07
1.19094e-07
-2.92133e-07
1.20124e-07
-3.3093e-07
1.19068e-07
-3.68774e-07
1.16178e-07
-4.05156e-07
1.11694e-07
-4.39638e-07
1.05844e-07
-4.71842e-07
9.88287e-08
-5.01447e-07
9.08309e-08
-5.28181e-07
8.20086e-08
-5.51818e-07
7.24998e-08
-5.7217e-07
6.24243e-08
-5.89085e-07
5.18865e-08
-6.02439e-07
4.09786e-08
-6.12137e-07
2.97833e-08
-6.18111e-07
1.83767e-08
-6.20314e-07
6.83022e-09
-6.18724e-07
-4.78623e-09
-6.13343e-07
-1.64027e-08
-6.04195e-07
-2.79468e-08
-5.91332e-07
-3.93415e-08
-5.74832e-07
-5.05032e-08
-5.54806e-07
-6.13389e-08
-5.31397e-07
-7.17444e-08
-5.04786e-07
-8.16013e-08
-4.75201e-07
-9.07747e-08
-4.42915e-07
-9.9111e-08
-4.08258e-07
-1.06436e-07
-3.7162e-07
-1.12554e-07
-3.33459e-07
-1.17249e-07
-2.943e-07
-1.20285e-07
-2.54743e-07
-1.21413e-07
-2.15455e-07
-1.20381e-07
-1.77173e-07
-1.16945e-07
-1.40683e-07
-1.10891e-07
-1.06807e-07
-1.02067e-07
-7.63678e-08
-9.04249e-08
-5.01576e-08
-7.60831e-08
-2.88891e-08
-5.94154e-08
-1.31552e-08
-4.11617e-08
-3.4053e-09
-2.25745e-08
-5.77345e-09
-4.4129e-09
1.02246e-08
-1.66075e-08
3.47901e-08
-3.57858e-08
6.02605e-08
-6.11851e-08
8.45695e-08
-9.19958e-08
1.06441e-07
-1.27354e-07
1.25106e-07
-1.6636e-07
1.40181e-07
-2.08107e-07
1.5156e-07
-2.51708e-07
1.59331e-07
-2.96317e-07
1.63703e-07
-3.4115e-07
1.64958e-07
-3.85494e-07
1.63412e-07
-4.28707e-07
1.59391e-07
-4.70227e-07
1.53214e-07
-5.09561e-07
1.45178e-07
-5.46286e-07
1.35554e-07
-5.8004e-07
1.24585e-07
-6.10516e-07
1.12485e-07
-6.37459e-07
9.94422e-08
-6.60654e-07
8.56198e-08
-6.79929e-07
7.11611e-08
-6.95143e-07
5.61931e-08
-7.0619e-07
4.08297e-08
-7.12989e-07
2.51758e-08
-7.15489e-07
9.33063e-09
-7.13666e-07
-6.60954e-09
-7.07521e-07
-2.2548e-08
-6.97083e-07
-3.83847e-08
-6.82411e-07
-5.40137e-08
-6.63594e-07
-6.93195e-08
-6.40758e-07
-8.41748e-08
-6.14066e-07
-9.84363e-08
-5.83725e-07
-1.11942e-07
-5.49991e-07
-1.24509e-07
-5.13174e-07
-1.35928e-07
-4.73644e-07
-1.45965e-07
-4.31841e-07
-1.54357e-07
-3.88274e-07
-1.60816e-07
-3.43529e-07
-1.6503e-07
-2.98269e-07
-1.66673e-07
-2.53233e-07
-1.65417e-07
-2.09231e-07
-1.60948e-07
-1.67125e-07
-1.52996e-07
-1.27822e-07
-1.41371e-07
-9.22371e-08
-1.26009e-07
-6.12747e-08
-1.07045e-07
-3.5793e-08
-8.48972e-08
-1.65879e-08
-6.03668e-08
-4.4003e-09
-3.47621e-08
-1.01738e-08
-5.26493e-09
1.54895e-08
-1.96368e-08
4.9162e-08
-4.19766e-08
8.26004e-08
-7.12493e-08
1.13842e-07
-1.06439e-07
1.41631e-07
-1.46527e-07
1.65194e-07
-1.90496e-07
1.8415e-07
-2.37344e-07
1.98408e-07
-2.86106e-07
2.08093e-07
-3.35868e-07
2.13465e-07
-3.85783e-07
2.14873e-07
-4.35081e-07
2.1271e-07
-4.83072e-07
2.07382e-07
-5.29145e-07
1.99287e-07
-5.72766e-07
1.88799e-07
-6.13475e-07
1.76262e-07
-6.50877e-07
1.61987e-07
-6.84638e-07
1.46246e-07
-7.14478e-07
1.29282e-07
-7.40163e-07
1.11305e-07
-7.61503e-07
9.25015e-08
-7.78346e-07
7.30358e-08
-7.90573e-07
5.30564e-08
-7.98097e-07
3.27e-08
-8.00862e-07
1.20956e-08
-7.98841e-07
-8.63103e-09
-7.92034e-07
-2.93541e-08
-7.80476e-07
-4.99434e-08
-7.64229e-07
-7.02609e-08
-7.43391e-07
-9.01567e-08
-7.18101e-07
-1.09465e-07
-6.88536e-07
-1.28001e-07
-6.54922e-07
-1.45556e-07
-6.1754e-07
-1.61891e-07
-5.76728e-07
-1.76741e-07
-5.3289e-07
-1.89803e-07
-4.86503e-07
-2.00745e-07
-4.3812e-07
-2.09199e-07
-3.88376e-07
-2.14774e-07
-3.37988e-07
-2.17061e-07
-2.87754e-07
-2.15651e-07
-2.38547e-07
-2.10155e-07
-1.91302e-07
-2.00241e-07
-1.47006e-07
-1.85667e-07
-1.06671e-07
-1.66344e-07
-7.13188e-08
-1.42398e-07
-4.19623e-08
-1.14254e-07
-1.96016e-08
-8.27275e-08
-5.24602e-09
-4.91177e-08
-1.54198e-08
-5.99364e-09
2.14831e-08
-2.22967e-08
6.54651e-08
-4.75005e-08
1.07804e-07
-8.03304e-08
1.46672e-07
-1.19575e-07
1.80875e-07
-1.64059e-07
2.09679e-07
-2.12643e-07
2.32733e-07
-2.64226e-07
2.49992e-07
-3.17763e-07
2.61629e-07
-3.72272e-07
2.67973e-07
-4.26849e-07
2.6945e-07
-4.80673e-07
2.66534e-07
-5.33009e-07
2.59718e-07
-5.83207e-07
2.49485e-07
-6.30699e-07
2.36291e-07
-6.74995e-07
2.20558e-07
-7.15673e-07
2.02665e-07
-7.52378e-07
1.82951e-07
-7.8481e-07
1.61714e-07
-8.12721e-07
1.39216e-07
-8.35907e-07
1.15687e-07
-8.54205e-07
9.13339e-08
-8.67489e-07
6.63403e-08
-8.75666e-07
4.08771e-08
-8.78676e-07
1.51053e-08
-8.76488e-07
-1.08184e-08
-8.69105e-07
-3.6737e-08
-8.5656e-07
-6.24882e-08
-8.38921e-07
-8.79e-08
-8.16292e-07
-1.12786e-07
-7.88819e-07
-1.36939e-07
-7.56691e-07
-1.60129e-07
-7.2015e-07
-1.82097e-07
-6.79494e-07
-2.02548e-07
-6.35083e-07
-2.21151e-07
-5.8735e-07
-2.37537e-07
-5.36802e-07
-2.51293e-07
-4.84029e-07
-2.61972e-07
-4.29708e-07
-2.69095e-07
-3.74603e-07
-2.72166e-07
-3.19566e-07
-2.70687e-07
-2.65531e-07
-2.6419e-07
-2.13506e-07
-2.52266e-07
-1.64557e-07
-2.34616e-07
-1.198e-07
-2.11102e-07
-8.03788e-08
-1.81819e-07
-4.74621e-08
-1.4717e-07
-2.22435e-08
-1.07946e-07
-5.96735e-09
-6.53939e-08
-2.13871e-08
-6.62764e-09
2.81108e-08
-2.46603e-08
8.34977e-08
-5.24781e-08
1.35622e-07
-8.86006e-08
1.82795e-07
-1.31635e-07
2.23909e-07
-1.80254e-07
2.58298e-07
-2.33192e-07
2.85671e-07
-2.89247e-07
3.06047e-07
-3.47288e-07
3.1967e-07
-4.06266e-07
3.26952e-07
-4.65219e-07
3.28403e-07
-5.23277e-07
3.24592e-07
-5.79663e-07
3.16104e-07
-6.33693e-07
3.03514e-07
-6.84768e-07
2.87366e-07
-7.32373e-07
2.68163e-07
-7.76067e-07
2.46359e-07
-8.15475e-07
2.22359e-07
-8.50284e-07
1.96523e-07
-8.80232e-07
1.69165e-07
-9.05108e-07
1.40563e-07
-9.2474e-07
1.10966e-07
-9.38997e-07
8.05965e-08
-9.47779e-07
4.966e-08
-9.51025e-07
1.83509e-08
-9.48702e-07
-1.31419e-08
-9.4081e-07
-4.4629e-08
-9.27383e-07
-7.59148e-08
-9.08491e-07
-1.06792e-07
-8.84242e-07
-1.37035e-07
-8.54787e-07
-1.66394e-07
-8.20323e-07
-1.94593e-07
-7.81102e-07
-2.21317e-07
-7.37437e-07
-2.46213e-07
-6.89705e-07
-2.68883e-07
-6.38361e-07
-2.88881e-07
-5.83939e-07
-3.05715e-07
-5.27062e-07
-3.18849e-07
-4.68443e-07
-3.27713e-07
-4.08894e-07
-3.31715e-07
-3.49318e-07
-3.30264e-07
-2.90711e-07
-3.22797e-07
-2.34153e-07
-3.08824e-07
-1.808e-07
-2.87968e-07
-1.31871e-07
-2.60031e-07
-8.86376e-08
-2.25052e-07
-5.24198e-08
-1.83388e-07
-2.45903e-08
-1.35776e-07
-6.59393e-09
-8.33903e-08
-2.7981e-08
-7.19503e-09
3.53058e-08
-2.68096e-08
1.03112e-07
-5.70557e-08
1.65868e-07
-9.62752e-08
2.22014e-07
-1.42909e-07
2.70543e-07
-1.95483e-07
3.10871e-07
-2.52604e-07
3.42793e-07
-3.12966e-07
3.66408e-07
-3.75348e-07
3.82053e-07
-4.3863e-07
3.90233e-07
-5.01789e-07
3.91562e-07
-5.63906e-07
3.86709e-07
-6.24165e-07
3.76363e-07
-6.81846e-07
3.61196e-07
-7.36326e-07
3.41846e-07
-7.87067e-07
3.18904e-07
-8.3361e-07
2.92901e-07
-8.75566e-07
2.64316e-07
-9.12612e-07
2.33568e-07
-9.44477e-07
2.0103e-07
-9.70942e-07
1.67029e-07
-9.91831e-07
1.31855e-07
-1.00701e-06
9.57729e-08
-1.01637e-06
5.9023e-08
-1.01985e-06
2.18338e-08
-1.01742e-06
-1.55732e-08
-1.00908e-06
-5.29755e-08
-9.94847e-07
-9.01437e-08
-9.74805e-07
-1.26834e-07
-9.49059e-07
-1.62781e-07
-9.17762e-07
-1.97692e-07
-8.81116e-07
-2.31239e-07
-8.39381e-07
-2.63052e-07
-7.92879e-07
-2.92716e-07
-7.42002e-07
-3.1976e-07
-6.87222e-07
-3.4366e-07
-6.29098e-07
-3.63839e-07
-5.68282e-07
-3.79665e-07
-5.05525e-07
-3.9047e-07
-4.41683e-07
-3.95558e-07
-3.77713e-07
-3.94233e-07
-3.14677e-07
-3.85833e-07
-2.53733e-07
-3.69768e-07
-1.96128e-07
-3.45573e-07
-1.43191e-07
-3.12968e-07
-9.6322e-08
-2.71921e-07
-5.69887e-08
-2.22721e-07
-2.67274e-08
-1.66037e-07
-7.15489e-09
-1.02963e-07
-3.51359e-08
-7.72171e-09
4.30275e-08
-2.88261e-08
1.24217e-07
-6.13854e-08
1.98427e-07
-1.03585e-07
2.64214e-07
-1.53711e-07
3.20669e-07
-2.10146e-07
3.67307e-07
-2.71372e-07
4.04019e-07
-3.3597e-07
4.31006e-07
-4.0263e-07
4.48713e-07
-4.70152e-07
4.57756e-07
-5.37451e-07
4.58861e-07
-6.03557e-07
4.52815e-07
-6.67612e-07
4.40417e-07
-7.28864e-07
4.22448e-07
-7.86663e-07
3.99646e-07
-8.40452e-07
3.72693e-07
-8.89758e-07
3.42207e-07
-9.3418e-07
3.08738e-07
-9.73387e-07
2.72775e-07
-1.0071e-06
2.34745e-07
-1.0351e-06
1.95029e-07
-1.05721e-06
1.53961e-07
-1.07328e-06
1.11845e-07
-1.08322e-06
6.8959e-08
-1.08695e-06
2.55641e-08
-1.08444e-06
-1.80849e-08
-1.07568e-06
-6.17328e-08
-1.06071e-06
-1.05116e-07
-1.03959e-06
-1.47954e-07
-1.01243e-06
-1.89941e-07
-9.79378e-07
-2.3074e-07
-9.40646e-07
-2.6997e-07
-8.96494e-07
-3.07205e-07
-8.47249e-07
-3.4196e-07
-7.93317e-07
-3.73693e-07
-7.35183e-07
-4.01794e-07
-6.73429e-07
-4.25592e-07
-6.08737e-07
-4.44358e-07
-5.41894e-07
-4.57313e-07
-4.73802e-07
-4.63649e-07
-4.05478e-07
-4.62558e-07
-3.38051e-07
-4.5326e-07
-2.72764e-07
-4.35055e-07
-2.10963e-07
-4.07375e-07
-1.54089e-07
-3.69841e-07
-1.03674e-07
-3.22336e-07
-6.13278e-08
-2.65067e-07
-2.87394e-08
-1.98625e-07
-7.67707e-09
-1.24025e-07
-4.2813e-08
-8.23089e-09
5.12584e-08
-3.07865e-08
1.46772e-07
-6.56156e-08
2.33256e-07
-1.10759e-07
3.09358e-07
-1.64357e-07
3.74266e-07
-2.24651e-07
4.27601e-07
-2.89993e-07
4.69361e-07
-3.58852e-07
4.99865e-07
-4.29818e-07
5.19679e-07
-5.01611e-07
5.29548e-07
-5.73078e-07
5.30328e-07
-6.43193e-07
5.2293e-07
-7.11054e-07
5.08279e-07
-7.75879e-07
4.87272e-07
-8.36991e-07
4.60758e-07
-8.93815e-07
4.29517e-07
-9.45863e-07
3.94255e-07
-9.92729e-07
3.55604e-07
-1.03407e-06
3.14119e-07
-1.06962e-06
2.70291e-07
-1.09914e-06
2.24549e-07
-1.12245e-06
1.77275e-07
-1.13942e-06
1.28813e-07
-1.14994e-06
7.94763e-08
-1.15393e-06
2.95599e-08
-1.15137e-06
-2.06495e-08
-1.14224e-06
-7.08646e-08
-1.12657e-06
-1.20788e-07
-1.10442e-06
-1.70104e-07
-1.07589e-06
-2.18465e-07
-1.04114e-06
-2.65488e-07
-1.00037e-06
-3.1074e-07
-9.53845e-07
-3.53734e-07
-9.01889e-07
-3.93916e-07
-8.44919e-07
-4.30663e-07
-7.83435e-07
-4.63277e-07
-7.1804e-07
-4.90987e-07
-6.49444e-07
-5.12954e-07
-5.78473e-07
-5.28283e-07
-5.06079e-07
-5.36043e-07
-4.33339e-07
-5.35297e-07
-3.61462e-07
-5.25138e-07
-2.91776e-07
-5.0474e-07
-2.25735e-07
-4.73416e-07
-1.649e-07
-4.30676e-07
-1.10935e-07
-3.76302e-07
-6.55923e-08
-3.1041e-07
-3.07064e-08
-2.33511e-07
-8.18451e-09
-1.46547e-07
-5.09975e-08
-8.74317e-09
6.00015e-08
-3.27616e-08
1.70791e-07
-6.98863e-08
2.70381e-07
-1.1802e-07
3.57491e-07
-1.75156e-07
4.31403e-07
-2.39396e-07
4.9184e-07
-3.08957e-07
5.38922e-07
-3.8219e-07
5.73098e-07
-4.57581e-07
5.95071e-07
-5.33762e-07
6.05729e-07
-6.09506e-07
6.06072e-07
-6.8373e-07
5.97154e-07
-7.55487e-07
5.80036e-07
-8.23958e-07
5.55743e-07
-8.88442e-07
5.25242e-07
-9.48347e-07
4.89421e-07
-1.00317e-06
4.49083e-07
-1.05251e-06
4.0494e-07
-1.09601e-06
3.57623e-07
-1.1334e-06
3.07682e-07
-1.16446e-06
2.55603e-07
-1.189e-06
2.01813e-07
-1.20688e-06
1.46694e-07
-1.218e-06
9.05959e-08
-1.22228e-06
3.3846e-08
-1.21969e-06
-2.32385e-08
-1.21022e-06
-8.03398e-08
-1.19388e-06
-1.37128e-07
-1.17073e-06
-1.93252e-07
-1.14087e-06
-2.48324e-07
-1.10444e-06
-3.01915e-07
-1.06164e-06
-3.53539e-07
-1.01273e-06
-4.02644e-07
-9.58047e-07
-4.48604e-07
-8.98e-07
-4.90711e-07
-8.33105e-07
-5.28172e-07
-7.63985e-07
-5.60108e-07
-6.91379e-07
-5.85561e-07
-6.16154e-07
-6.03508e-07
-5.39316e-07
-6.12881e-07
-4.6201e-07
-6.12603e-07
-3.85525e-07
-6.01623e-07
-3.11289e-07
-5.78976e-07
-2.40868e-07
-5.43837e-07
-1.75951e-07
-4.95594e-07
-1.18338e-07
-4.33914e-07
-6.99295e-08
-3.58819e-07
-3.27025e-08
-2.70738e-07
-8.69863e-09
-1.70551e-07
-5.96961e-08
-9.27689e-09
6.92784e-08
-3.48162e-08
1.9633e-07
-7.43287e-08
3.09893e-07
-1.25576e-07
4.08738e-07
-1.86403e-07
4.9223e-07
-2.54763e-07
5.602e-07
-3.28735e-07
6.12895e-07
-4.06543e-07
6.50906e-07
-4.86562e-07
6.7509e-07
-5.67328e-07
6.86495e-07
-6.47536e-07
6.8628e-07
-7.26041e-07
6.75659e-07
-8.01845e-07
6.5584e-07
-8.74096e-07
6.27993e-07
-9.42066e-07
5.93213e-07
-1.00515e-06
5.52502e-07
-1.06283e-06
5.06767e-07
-1.1147e-06
4.5681e-07
-1.16042e-06
4.03337e-07
-1.1997e-06
3.46964e-07
-1.23232e-06
2.88229e-07
-1.25812e-06
2.27608e-07
-1.27695e-06
1.6552e-07
-1.2887e-06
1.0235e-07
-1.29331e-06
3.84539e-08
-1.29072e-06
-2.58211e-08
-1.28094e-06
-9.01291e-08
-1.26395e-06
-1.5411e-07
-1.23983e-06
-2.17378e-07
-1.20864e-06
-2.79508e-07
-1.17054e-06
-3.40023e-07
-1.12569e-06
-3.98383e-07
-1.07436e-06
-4.5397e-07
-1.01689e-06
-5.06082e-07
-9.53675e-07
-5.53922e-07
-8.85255e-07
-5.96592e-07
-8.12265e-07
-6.33097e-07
-7.35477e-07
-6.6235e-07
-6.55799e-07
-6.83185e-07
-5.74295e-07
-6.94385e-07
-4.92184e-07
-6.94714e-07
-4.10843e-07
-6.82964e-07
-3.31811e-07
-6.58009e-07
-2.56773e-07
-6.18875e-07
-1.87555e-07
-5.64811e-07
-1.26107e-07
-4.95362e-07
-7.44784e-08
-4.10448e-07
-3.4796e-08
-3.1042e-07
-9.23863e-09
-1.96108e-07
-6.89348e-08
-9.84862e-09
7.9127e-08
-3.701e-08
2.23492e-07
-7.90652e-08
3.51949e-07
-1.33625e-07
4.63299e-07
-1.98379e-07
5.56983e-07
-2.71121e-07
6.32942e-07
-3.49783e-07
6.91557e-07
-4.3245e-07
7.33573e-07
-5.17379e-07
7.60019e-07
-6.03001e-07
7.72117e-07
-6.87929e-07
7.71207e-07
-7.70947e-07
7.58676e-07
-8.51008e-07
7.35902e-07
-9.27221e-07
7.04206e-07
-9.98834e-07
6.64826e-07
-1.06522e-06
6.18893e-07
-1.12588e-06
5.67421e-07
-1.18037e-06
5.11307e-07
-1.22838e-06
4.51339e-07
-1.26961e-06
3.88199e-07
-1.30387e-06
3.22483e-07
-1.33097e-06
2.54708e-07
-1.35078e-06
1.85335e-07
-1.36321e-06
1.14777e-07
-1.36817e-06
4.34206e-08
-1.36563e-06
-2.83631e-08
-1.35556e-06
-1.00202e-07
-1.33796e-06
-1.71709e-07
-1.31287e-06
-2.42467e-07
-1.28037e-06
-3.12013e-07
-1.24056e-06
-3.79824e-07
-1.19364e-06
-4.45305e-07
-1.13984e-06
-5.07772e-07
-1.07948e-06
-5.6644e-07
-1.01299e-06
-6.20417e-07
-9.40886e-07
-6.68694e-07
-8.63835e-07
-7.10149e-07
-7.82633e-07
-7.43551e-07
-6.98238e-07
-7.6758e-07
-6.11773e-07
-7.80851e-07
-5.24536e-07
-7.81951e-07
-4.38007e-07
-7.69493e-07
-3.53837e-07
-7.42178e-07
-2.7385e-07
-6.98862e-07
-2.00021e-07
-6.3864e-07
-1.34456e-07
-5.60926e-07
-7.93707e-08
-4.65534e-07
-3.70508e-08
-3.5274e-07
-9.82209e-09
-2.23337e-07
-7.87569e-08
-1.04737e-08
8.96007e-08
-3.93995e-08
2.52417e-07
-8.42126e-08
3.96762e-07
-1.42359e-07
5.21445e-07
-2.11356e-07
6.25979e-07
-2.88826e-07
7.10413e-07
-3.72539e-07
7.75269e-07
-4.60431e-07
8.21465e-07
-5.50627e-07
8.50215e-07
-6.41447e-07
8.62937e-07
-7.31409e-07
8.61169e-07
-8.19227e-07
8.46495e-07
-9.038e-07
8.20474e-07
-9.84197e-07
7.84603e-07
-1.05964e-06
7.40273e-07
-1.1295e-06
6.88752e-07
-1.19326e-06
6.31175e-07
-1.25049e-06
5.6854e-07
-1.30087e-06
5.01719e-07
-1.34413e-06
4.31464e-07
-1.38008e-06
3.58426e-07
-1.40854e-06
2.83169e-07
-1.42939e-06
2.06187e-07
-1.44254e-06
1.27923e-07
-1.4479e-06
4.87883e-08
-1.44544e-06
-3.08256e-08
-1.43512e-06
-1.10525e-07
-1.41693e-06
-1.89899e-07
-1.3909e-06
-2.68501e-07
-1.35707e-06
-3.45835e-07
-1.31556e-06
-4.21334e-07
-1.26652e-06
-4.94345e-07
-1.21018e-06
-5.64117e-07
-1.14684e-06
-6.29779e-07
-1.07692e-06
-6.90337e-07
-1.00095e-06
-7.44663e-07
-9.19605e-07
-7.91494e-07
-8.33713e-07
-8.29443e-07
-7.44278e-07
-8.57016e-07
-6.52489e-07
-8.7264e-07
-5.59733e-07
-8.74707e-07
-4.67595e-07
-8.61631e-07
-3.77859e-07
-8.31914e-07
-2.92496e-07
-7.84225e-07
-2.13647e-07
-7.1749e-07
-1.43595e-07
-6.30978e-07
-8.47344e-08
-5.24394e-07
-3.95282e-08
-3.97947e-07
-1.04656e-08
-2.524e-07
-8.92226e-08
-1.11669e-08
1.00768e-07
-4.20393e-08
2.8329e-07
-8.9885e-08
4.44607e-07
-1.51965e-07
5.83525e-07
-2.25601e-07
6.99616e-07
-3.0823e-07
7.93041e-07
-3.97438e-07
8.64477e-07
-4.90998e-07
9.15025e-07
-5.86889e-07
9.46106e-07
-6.83308e-07
9.59356e-07
-7.78675e-07
9.56537e-07
-8.71626e-07
9.39445e-07
-9.61002e-07
9.0985e-07
-1.04583e-06
8.69436e-07
-1.12533e-06
8.19765e-07
-1.19883e-06
7.62257e-07
-1.26583e-06
6.98174e-07
-1.32592e-06
6.28626e-07
-1.37877e-06
5.54571e-07
-1.42414e-06
4.76835e-07
-1.46184e-06
3.96125e-07
-1.49172e-06
3.13046e-07
-1.51366e-06
2.28128e-07
-1.52757e-06
1.41838e-07
-1.53339e-06
5.46039e-08
-1.53105e-06
-3.31638e-08
-1.52052e-06
-1.21056e-07
-1.50177e-06
-2.08642e-07
-1.47482e-06
-2.95454e-07
-1.43969e-06
-3.80963e-07
-1.39647e-06
-4.64559e-07
-1.34528e-06
-5.45537e-07
-1.28632e-06
-6.23073e-07
-1.21989e-06
-6.96207e-07
-1.14639e-06
-7.63837e-07
-1.06635e-06
-8.24703e-07
-9.80456e-07
-8.77391e-07
-8.8956e-07
-9.20339e-07
-7.94714e-07
-9.51861e-07
-6.9718e-07
-9.70174e-07
-5.98437e-07
-9.7345e-07
-5.00191e-07
-9.59877e-07
-4.0437e-07
-9.27735e-07
-3.1311e-07
-8.75484e-07
-2.28738e-07
-8.01862e-07
-1.53735e-07
-7.05981e-07
-9.06975e-08
-5.87432e-07
-4.22893e-08
-4.46355e-07
-1.11856e-08
-2.83503e-07
-1.00408e-07
-1.19431e-08
1.12711e-07
-4.49844e-08
3.16331e-07
-9.61974e-08
4.9582e-07
-1.6263e-07
6.49957e-07
-2.41386e-07
7.78372e-07
-3.29685e-07
8.81341e-07
-4.24914e-07
9.59706e-07
-5.24659e-07
1.01477e-06
-6.26741e-07
1.04819e-06
-7.29221e-07
1.06184e-06
-8.30411e-07
1.05773e-06
-9.28863e-07
1.0379e-06
-1.02336e-06
1.00435e-06
-1.1129e-06
9.58972e-07
-1.19666e-06
9.03524e-07
-1.27398e-06
8.39586e-07
-1.34437e-06
7.68562e-07
-1.40742e-06
6.91677e-07
-1.46284e-06
6.09985e-07
-1.51039e-06
5.24385e-07
-1.5499e-06
4.35639e-07
-1.58125e-06
3.44395e-07
-1.60433e-06
2.51209e-07
-1.61906e-06
1.5657e-07
-1.62538e-06
6.09183e-08
-1.62322e-06
-3.53257e-08
-1.61253e-06
-1.31743e-07
-1.59328e-06
-2.27892e-07
-1.56545e-06
-3.23285e-07
-1.52905e-06
-4.17367e-07
-1.48411e-06
-5.09492e-07
-1.43075e-06
-5.98899e-07
-1.36913e-06
-6.84692e-07
-1.29952e-06
-7.65821e-07
-1.22229e-06
-8.41064e-07
-1.13797e-06
-9.09022e-07
-1.04725e-06
-9.68113e-07
-9.51007e-07
-1.01658e-06
-8.50342e-07
-1.05253e-06
-7.46587e-07
-1.07393e-06
-6.41325e-07
-1.07871e-06
-5.36392e-07
-1.06481e-06
-4.33877e-07
-1.03025e-06
-3.36104e-07
-9.73258e-07
-2.45607e-07
-8.92359e-07
-1.65093e-07
-7.86495e-07
-9.73926e-08
-6.55133e-07
-4.53972e-08
-4.9835e-07
-1.19987e-08
-3.16902e-07
-1.12407e-07
-1.28176e-08
1.25528e-07
-4.82925e-08
3.51806e-07
-1.0327e-07
5.50798e-07
-1.74552e-07
7.21239e-07
-2.58989e-07
8.6281e-07
-3.53558e-07
9.7591e-07
-4.55414e-07
1.06156e-06
-5.61938e-07
1.12129e-06
-6.70769e-07
1.15702e-06
-7.79822e-07
1.17089e-06
-8.87291e-07
1.1652e-06
-9.9164e-07
1.14225e-06
-1.09159e-06
1.1043e-06
-1.18611e-06
1.05349e-06
-1.27435e-06
9.91769e-07
-1.35568e-06
9.20911e-07
-1.42959e-06
8.42468e-07
-1.4957e-06
7.57792e-07
-1.55375e-06
6.68034e-07
-1.60354e-06
5.7417e-07
-1.64491e-06
4.77015e-07
-1.67777e-06
3.77256e-07
-1.70204e-06
2.75473e-07
-1.71763e-06
1.72167e-07
-1.7245e-06
6.77853e-08
-1.72258e-06
-3.72507e-08
-1.7118e-06
-1.42521e-07
-1.69211e-06
-2.47579e-07
-1.66347e-06
-3.51928e-07
-1.62584e-06
-4.54993e-07
-1.57924e-06
-5.56094e-07
-1.52372e-06
-6.54419e-07
-1.45941e-06
-7.49001e-07
-1.38654e-06
-8.38693e-07
-1.30545e-06
-9.2215e-07
-1.21666e-06
-9.97819e-07
-1.12083e-06
-1.06393e-06
-1.01889e-06
-1.11853e-06
-9.11967e-07
-1.15945e-06
-8.01473e-07
-1.18442e-06
-6.89098e-07
-1.19109e-06
-5.76824e-07
-1.17708e-06
-4.66918e-07
-1.14016e-06
-3.61915e-07
-1.07826e-06
-2.64589e-07
-9.89685e-07
-1.77906e-07
-8.73179e-07
-1.04962e-07
-7.28076e-07
-4.89199e-08
-5.54393e-07
-1.29233e-08
-3.52898e-07
-1.2533e-07
-1.38076e-08
1.39336e-07
-5.20264e-08
3.90025e-07
-1.11234e-07
6.10006e-07
-1.87942e-07
7.97947e-07
-2.78713e-07
9.5358e-07
-3.80238e-07
1.07743e-06
-4.89409e-07
1.17073e-06
-6.03375e-07
1.23526e-06
-7.19575e-07
1.27322e-06
-8.35759e-07
1.28707e-06
-9.49992e-07
1.27943e-06
-1.06065e-06
1.25291e-06
-1.1664e-06
1.21005e-06
-1.26616e-06
1.15325e-06
-1.35909e-06
1.08471e-06
-1.44456e-06
1.00638e-06
-1.52209e-06
9.19998e-07
-1.59134e-06
8.2704e-07
-1.65207e-06
7.28763e-07
-1.70412e-06
6.26218e-07
-1.74738e-06
5.20276e-07
-1.78178e-06
4.11654e-07
-1.80726e-06
3.00951e-07
-1.82376e-06
1.88672e-07
-1.83124e-06
7.52609e-08
-1.82962e-06
-3.88689e-08
-1.81883e-06
-1.53306e-07
-1.7988e-06
-2.67612e-07
-1.76944e-06
-3.81289e-07
-1.73068e-06
-4.93749e-07
-1.68249e-06
-6.04287e-07
-1.62486e-06
-7.12044e-07
-1.55788e-06
-8.15983e-07
-1.48172e-06
-9.14856e-07
-1.39668e-06
-1.00719e-06
-1.30323e-06
-1.09126e-06
-1.20206e-06
-1.16511e-06
-1.09406e-06
-1.22652e-06
-9.80421e-07
-1.27309e-06
-8.62632e-07
-1.30221e-06
-7.42498e-07
-1.31122e-06
-6.22156e-07
-1.29743e-06
-5.04072e-07
-1.25824e-06
-3.91022e-07
-1.19131e-06
-2.86053e-07
-1.09465e-06
-1.9243e-07
-9.66801e-07
-1.13566e-07
-8.06941e-07
-5.29334e-08
-6.15025e-07
-1.39797e-08
-3.91852e-07
-1.3931e-07
-1.49322e-08
1.54268e-07
-5.62565e-08
4.31349e-07
-1.20233e-07
6.73983e-07
-2.03036e-07
8.8075e-07
-3.00885e-07
1.05143e-06
-4.10144e-07
1.18669e-06
-5.27404e-07
1.28799e-06
-6.49548e-07
1.3574e-06
-7.73788e-07
1.39746e-06
-8.97696e-07
1.41098e-06
-1.0192e-06
1.40093e-06
-1.13658e-06
1.37029e-06
-1.24845e-06
1.32191e-06
-1.3537e-06
1.2585e-06
-1.45149e-06
1.1825e-06
-1.54122e-06
1.0961e-06
-1.62243e-06
1.00121e-06
-1.69484e-06
8.99445e-07
-1.75825e-06
7.92173e-07
-1.81255e-06
6.80522e-07
-1.85768e-06
5.65411e-07
-1.89362e-06
4.47587e-07
-1.92032e-06
3.27656e-07
-1.93777e-06
2.06117e-07
-1.94591e-06
8.34008e-08
-1.94468e-06
-4.01006e-08
-1.93398e-06
-1.63998e-07
-1.91373e-06
-2.87871e-07
-1.88378e-06
-4.11233e-07
-1.84403e-06
-5.33497e-07
-1.79438e-06
-6.5394e-07
-1.73476e-06
-7.71662e-07
-1.66519e-06
-8.85559e-07
-1.58576e-06
-9.94284e-07
-1.49673e-06
-1.09622e-06
-1.39851e-06
-1.18948e-06
-1.29175e-06
-1.27187e-06
-1.17736e-06
-1.34091e-06
-1.05656e-06
-1.39389e-06
-9.309e-07
-1.42787e-06
-8.02314e-07
-1.43981e-06
-6.73108e-07
-1.42663e-06
-5.45971e-07
-1.38538e-06
-4.23951e-07
-1.31333e-06
-3.10409e-07
-1.2082e-06
-2.08959e-07
-1.06825e-06
-1.23382e-07
-8.92518e-07
-5.75248e-08
-6.80882e-07
-1.51918e-08
-4.34185e-07
-1.54502e-07
-1.62137e-08
1.70482e-07
-6.10635e-08
4.76199e-07
-1.30433e-07
7.43353e-07
-2.20096e-07
9.70412e-07
-3.25871e-07
1.1572e-06
-4.4374e-07
1.30456e-06
-5.69948e-07
1.4142e-06
-7.0107e-07
1.48853e-06
-8.34071e-07
1.53046e-06
-9.66322e-07
1.54323e-06
-1.09561e-06
1.53022e-06
-1.22011e-06
1.49479e-06
-1.33839e-06
1.44019e-06
-1.44933e-06
1.36944e-06
-1.5521e-06
1.28528e-06
-1.64613e-06
1.19013e-06
-1.73102e-06
1.0861e-06
-1.80655e-06
9.74971e-07
-1.87258e-06
8.58207e-07
-1.92908e-06
7.37017e-07
-1.97603e-06
6.12365e-07
-2.01346e-06
4.85016e-07
-2.04138e-06
3.55573e-07
-2.05978e-06
2.2452e-07
-2.06864e-06
9.22585e-08
-2.06788e-06
-4.08557e-08
-2.05741e-06
-1.7447e-07
-2.03709e-06
-3.08197e-07
-2.00674e-06
-4.41579e-07
-1.9662e-06
-5.74041e-07
-1.91528e-06
-7.04852e-07
-1.85386e-06
-8.33085e-07
-1.78185e-06
-9.57571e-07
-1.69927e-06
-1.07687e-06
-1.60628e-06
-1.18921e-06
-1.50323e-06
-1.29253e-06
-1.39073e-06
-1.38437e-06
-1.26966e-06
-1.46198e-06
-1.14126e-06
-1.52229e-06
-1.00715e-06
-1.56198e-06
-8.69392e-07
-1.57757e-06
-7.30467e-07
-1.56556e-06
-5.93314e-07
-1.52253e-06
-4.6129e-07
-1.44536e-06
-3.38119e-07
-1.33137e-06
-2.27823e-07
-1.17855e-06
-1.34619e-07
-9.85722e-07
-6.27954e-08
-7.52705e-07
-1.65874e-08
-4.80393e-07
-1.71089e-07
-1.76784e-08
1.8816e-07
-6.65409e-08
5.25062e-07
-1.42023e-07
8.18835e-07
-2.3942e-07
1.06781e-06
-3.5408e-07
1.27186e-06
-4.81539e-07
1.43202e-06
-6.17635e-07
1.5503e-06
-7.58602e-07
1.62949e-06
-9.01119e-07
1.67298e-06
-1.04234e-06
1.68446e-06
-1.1799e-06
1.66778e-06
-1.31189e-06
1.62678e-06
-1.43683e-06
1.56512e-06
-1.55358e-06
1.48619e-06
-1.66137e-06
1.39306e-06
-1.75967e-06
1.28843e-06
-1.84815e-06
1.17459e-06
-1.92668e-06
1.0535e-06
-1.9952e-06
9.26732e-07
-2.05376e-06
7.95573e-07
-2.10242e-06
6.61022e-07
-2.14125e-06
5.23852e-07
-2.17033e-06
3.84655e-07
-2.18969e-06
2.43879e-07
-2.19932e-06
1.01881e-07
-2.19914e-06
-4.1035e-08
-2.18903e-06
-1.84572e-07
-2.16884e-06
-3.28395e-07
-2.13833e-06
-4.7209e-07
-2.09726e-06
-6.15112e-07
-2.04537e-06
-7.56741e-07
-1.98242e-06
-8.96031e-07
-1.90823e-06
-1.03176e-06
-1.82271e-06
-1.16239e-06
-1.72591e-06
-1.28601e-06
-1.61809e-06
-1.40035e-06
-1.49977e-06
-1.50269e-06
-1.3718e-06
-1.58995e-06
-1.23542e-06
-1.65867e-06
-1.0923e-06
-1.70509e-06
-9.44627e-07
-1.72524e-06
-7.95081e-07
-1.7151e-06
-6.46869e-07
-1.67074e-06
-5.03697e-07
-1.58853e-06
-3.69709e-07
-1.46535e-06
-2.49405e-07
-1.29885e-06
-1.47516e-07
-1.08761e-06
-6.88639e-08
-8.31358e-07
-1.81996e-08
-5.31058e-07
-1.89289e-07
-1.93573e-08
2.07518e-07
-7.27981e-08
5.78502e-07
-1.5522e-07
9.01256e-07
-2.61349e-07
1.17394e-06
-3.85974e-07
1.39649e-06
-5.24105e-07
1.57015e-06
-6.71116e-07
1.69731e-06
-8.22843e-07
1.78122e-06
-9.75653e-07
1.82579e-06
-1.12647e-06
1.83527e-06
-1.27276e-06
1.81407e-06
-1.41253e-06
1.76656e-06
-1.54427e-06
1.69686e-06
-1.66687e-06
1.6088e-06
-1.77961e-06
1.5058e-06
-1.88202e-06
1.39084e-06
-1.97391e-06
1.26647e-06
-2.0552e-06
1.1348e-06
-2.12598e-06
9.97512e-07
-2.18638e-06
8.55966e-07
-2.23654e-06
7.11188e-07