/*--------------------------------*- C++ -*----------------------------------*\
  =========                 |
  \\      /  F ield         | OpenFOAM: The Open Source CFD Toolbox
   \\    /   O peration     | Website:  https://openfoam.org
    \\  /    A nd           | Version:  7
     \\/     M anipulation  |
\*---------------------------------------------------------------------------*/
FoamFile
{
    version     2.0;
    format      ascii;
    class       volScalarField;
    location    "0.0762";
    object      p;
}
// * * * * * * * * * * * * * * * * * * * * * * * * * * * * * * * * * * * * * //

dimensions      [0 2 -2 0 0 0 0];

internalField   nonuniform List<scalar> 
2500
(
8.3459e-06
-6.51221
-9.29785
-10.4943
-11.1605
-11.5675
-11.8319
-12.0174
-12.1559
-12.2637
-12.35
-12.4207
-12.4793
-12.5286
-12.5701
-12.6054
-12.6354
-12.6609
-12.6825
-12.7008
-12.7162
-12.7292
-12.74
-12.749
-12.7566
-12.7631
-12.7687
-12.7739
-12.779
-12.7844
-12.7905
-12.7978
-12.8067
-12.818
-12.8322
-12.8502
-12.873
-12.902
-12.9388
-12.9859
-13.0466
-13.1262
-13.2334
-13.3836
-13.6079
-13.9669
-14.5676
-15.6692
-18.3366
-24.7214
-4.95525
-7.67548
-9.18265
-10.1433
-10.8118
-11.2725
-11.5948
-11.8289
-12.005
-12.1415
-12.2499
-12.3377
-12.41
-12.4703
-12.5211
-12.5642
-12.6008
-12.6322
-12.6592
-12.6823
-12.7022
-12.7193
-12.7342
-12.7472
-12.7586
-12.769
-12.7785
-12.7878
-12.7971
-12.8068
-12.8176
-12.8299
-12.8444
-12.8618
-12.8831
-12.9091
-12.9415
-12.9819
-13.0328
-13.0974
-13.1807
-13.2898
-13.4357
-13.6358
-13.9192
-14.3338
-14.9444
-15.8332
-17.2535
-19.8524
-7.92423
-8.75707
-9.55848
-10.24
-10.7808
-11.1915
-11.5018
-11.7393
-11.9242
-12.0705
-12.1883
-12.2846
-12.3644
-12.4313
-12.4878
-12.5359
-12.5771
-12.6126
-12.6433
-12.6699
-12.693
-12.7133
-12.7312
-12.747
-12.7614
-12.7746
-12.7871
-12.7993
-12.8117
-12.8247
-12.8388
-12.8548
-12.8731
-12.8948
-12.9207
-12.9521
-12.9904
-13.0377
-13.0964
-13.17
-13.2634
-13.3832
-13.539
-13.7445
-14.019
-14.3886
-14.8817
-15.5102
-16.2561
-17.0194
-9.43313
-9.64705
-10.0666
-10.5121
-10.9057
-11.2334
-11.5006
-11.7171
-11.8928
-12.0363
-12.1547
-12.2531
-12.3358
-12.4058
-12.4654
-12.5166
-12.5608
-12.5991
-12.6324
-12.6616
-12.6872
-12.7099
-12.7301
-12.7483
-12.7649
-12.7804
-12.7952
-12.8097
-12.8244
-12.8398
-12.8565
-12.8751
-12.8963
-12.9209
-12.95
-12.9846
-13.0264
-13.0771
-13.1392
-13.2157
-13.3105
-13.4289
-13.5776
-13.7649
-14.0004
-14.2935
-14.6496
-15.0561
-15.4386
-15.6164
-10.318
-10.3182
-10.5228
-10.8001
-11.0754
-11.3261
-11.5454
-11.733
-11.8919
-12.0262
-12.1399
-12.2364
-12.3188
-12.3896
-12.4506
-12.5034
-12.5494
-12.5896
-12.6249
-12.656
-12.6836
-12.7081
-12.7302
-12.7503
-12.7688
-12.7862
-12.8029
-12.8193
-12.836
-12.8534
-12.872
-12.8927
-12.9159
-12.9425
-12.9736
-13.0102
-13.0537
-13.1056
-13.1681
-13.2436
-13.335
-13.4458
-13.58
-13.7417
-13.9337
-14.1559
-14.4023
-14.6517
-14.8319
-14.8135
-10.8841
-10.8108
-10.9003
-11.0684
-11.2568
-11.4437
-11.6183
-11.7756
-11.9145
-12.0358
-12.1414
-12.2331
-12.3128
-12.3822
-12.4429
-12.4961
-12.5428
-12.584
-12.6205
-12.6529
-12.6819
-12.7078
-12.7314
-12.7529
-12.7729
-12.7918
-12.8099
-12.8278
-12.8459
-12.8648
-12.8849
-12.9069
-12.9314
-12.9592
-12.9912
-13.0285
-13.0721
-13.1234
-13.184
-13.2556
-13.3403
-13.44
-13.5566
-13.6911
-13.8426
-14.0065
-14.1729
-14.3212
-14.3951
-14.3137
-11.2658
-11.1758
-11.2069
-11.3066
-11.4336
-11.5705
-11.7066
-11.8354
-11.9537
-12.0606
-12.1561
-12.241
-12.3162
-12.3828
-12.4418
-12.4942
-12.5407
-12.582
-12.619
-12.652
-12.6818
-12.7087
-12.7332
-12.7558
-12.7768
-12.7967
-12.8159
-12.8349
-12.854
-12.8738
-12.8947
-12.9175
-12.9426
-12.9708
-13.0029
-13.0396
-13.0821
-13.1313
-13.1883
-13.2543
-13.3305
-13.4177
-13.5161
-13.6251
-13.7419
-13.8605
-13.9709
-14.0565
-14.0781
-13.9859
-11.5386
-11.4525
-11.4546
-11.5119
-11.5966
-11.6959
-11.8006
-11.9043
-12.0034
-12.0957
-12.1805
-12.2575
-12.3272
-12.3899
-12.4462
-12.4968
-12.5422
-12.5831
-12.6198
-12.653
-12.683
-12.7104
-12.7354
-12.7586
-12.7803
-12.8008
-12.8207
-12.8403
-12.86
-12.8802
-12.9016
-12.9246
-12.9497
-12.9776
-13.0089
-13.0444
-13.0848
-13.1309
-13.1833
-13.2429
-13.3099
-13.3845
-13.4661
-13.553
-13.6417
-13.7264
-13.7985
-13.8462
-13.8428
-13.7579
-11.7442
-11.6676
-11.6555
-11.6869
-11.7427
-11.8141
-11.894
-11.9768
-12.0587
-12.1374
-12.2116
-12.2805
-12.344
-12.4021
-12.455
-12.5032
-12.5469
-12.5865
-12.6225
-12.6553
-12.6852
-12.7125
-12.7377
-12.7611
-12.7831
-12.8039
-12.8241
-12.8439
-12.8638
-12.8842
-12.9055
-12.9282
-12.9529
-12.98
-13.0101
-13.0437
-13.0814
-13.1238
-13.1712
-13.2239
-13.282
-13.3449
-13.4117
-13.4802
-13.547
-13.607
-13.6535
-13.6783
-13.6637
-13.5903
-11.9056
-11.8388
-11.8203
-11.8356
-11.8719
-11.9229
-11.9836
-12.0492
-12.1164
-12.1828
-12.247
-12.3078
-12.365
-12.4181
-12.4672
-12.5124
-12.5539
-12.592
-12.6268
-12.6587
-12.688
-12.7149
-12.7399
-12.7632
-12.785
-12.8059
-12.826
-12.8457
-12.8655
-12.8856
-12.9066
-12.9287
-12.9525
-12.9784
-13.0068
-13.0382
-13.073
-13.1114
-13.1537
-13.1998
-13.2495
-13.3021
-13.3563
-13.4099
-13.46
-13.5022
-13.5317
-13.5429
-13.5239
-13.4618
-12.0361
-11.9781
-11.957
-11.9626
-11.9855
-12.0218
-12.0676
-12.1193
-12.1741
-12.2297
-12.2847
-12.338
-12.3889
-12.437
-12.482
-12.524
-12.5629
-12.5989
-12.6321
-12.6628
-12.6912
-12.7174
-12.7418
-12.7646
-12.7862
-12.8066
-12.8264
-12.8458
-12.8651
-12.8848
-12.905
-12.9263
-12.949
-12.9734
-12.9999
-13.0288
-13.0604
-13.0949
-13.1322
-13.1723
-13.2145
-13.2581
-13.3018
-13.3437
-13.3811
-13.4107
-13.429
-13.4322
-13.4122
-13.3599
-12.1441
-12.0936
-12.072
-12.0715
-12.0853
-12.1109
-12.1454
-12.186
-12.2304
-12.2767
-12.3236
-12.3698
-12.4147
-12.4577
-12.4986
-12.5371
-12.5733
-12.607
-12.6384
-12.6675
-12.6946
-12.7199
-12.7434
-12.7655
-12.7864
-12.8063
-12.8255
-12.8443
-12.8629
-12.8818
-12.9012
-12.9213
-12.9427
-12.9654
-12.9899
-13.0163
-13.0448
-13.0755
-13.1082
-13.1426
-13.1783
-13.2144
-13.2496
-13.2822
-13.3101
-13.3308
-13.3417
-13.3404
-13.3209
-13.2769
-12.2351
-12.1909
-12.1698
-12.1657
-12.1733
-12.191
-12.2168
-12.2486
-12.2845
-12.3228
-12.3624
-12.4023
-12.4415
-12.4797
-12.5165
-12.5515
-12.5847
-12.6159
-12.6452
-12.6726
-12.6982
-12.7222
-12.7447
-12.7658
-12.7858
-12.8049
-12.8233
-12.8413
-12.8591
-12.877
-12.8953
-12.9142
-12.9341
-12.9551
-12.9774
-13.0013
-13.0268
-13.0539
-13.0824
-13.1119
-13.142
-13.1717
-13.2
-13.2255
-13.2464
-13.2608
-13.2668
-13.263
-13.245
-13.2078
-12.3128
-12.274
-12.2539
-12.2476
-12.251
-12.263
-12.2822
-12.307
-12.3358
-12.3674
-12.4007
-12.4347
-12.4689
-12.5025
-12.5352
-12.5667
-12.5968
-12.6254
-12.6525
-12.678
-12.7019
-12.7244
-12.7456
-12.7655
-12.7845
-12.8026
-12.82
-12.837
-12.8538
-12.8706
-12.8877
-12.9052
-12.9235
-12.9428
-12.9631
-12.9845
-13.0072
-13.0309
-13.0556
-13.0809
-13.1061
-13.1307
-13.1535
-13.1734
-13.1891
-13.1991
-13.202
-13.1969
-13.1807
-13.1493
-12.38
-12.3458
-12.327
-12.3196
-12.3201
-12.3279
-12.3421
-12.3612
-12.3843
-12.4102
-12.4379
-12.4668
-12.4962
-12.5255
-12.5544
-12.5825
-12.6095
-12.6355
-12.6602
-12.6836
-12.7057
-12.7265
-12.7462
-12.7649
-12.7826
-12.7995
-12.8158
-12.8317
-12.8473
-12.8629
-12.8787
-12.8948
-12.9115
-12.9289
-12.9472
-12.9663
-12.9863
-13.0071
-13.0284
-13.05
-13.0712
-13.0914
-13.1098
-13.1255
-13.1373
-13.1442
-13.1452
-13.1397
-13.1253
-13.0989
-12.4387
-12.4085
-12.3912
-12.3832
-12.3818
-12.3866
-12.3968
-12.4116
-12.4299
-12.4509
-12.4739
-12.4983
-12.5233
-12.5486
-12.5738
-12.5986
-12.6227
-12.6459
-12.6682
-12.6894
-12.7095
-12.7287
-12.7468
-12.7639
-12.7803
-12.7959
-12.8109
-12.8255
-12.8399
-12.8542
-12.8686
-12.8833
-12.8984
-12.914
-12.9303
-12.9472
-12.9648
-12.9828
-13.0012
-13.0195
-13.0373
-13.054
-13.0689
-13.0813
-13.0903
-13.095
-13.0949
-13.0895
-13.077
-13.0548
-12.4903
-12.4637
-12.4479
-12.4399
-12.4373
-12.4399
-12.4471
-12.4583
-12.4727
-12.4897
-12.5086
-12.5288
-12.55
-12.5716
-12.5934
-12.6149
-12.6361
-12.6566
-12.6764
-12.6954
-12.7136
-12.7308
-12.7472
-12.7628
-12.7777
-12.7919
-12.8056
-12.8188
-12.8319
-12.8448
-12.8577
-12.8709
-12.8844
-12.8983
-12.9126
-12.9275
-12.9428
-12.9584
-12.9741
-12.9896
-13.0045
-13.0184
-13.0305
-13.0403
-13.0472
-13.0505
-13.0498
-13.0448
-13.0341
-13.0156
-12.5362
-12.5129
-12.4986
-12.4908
-12.4875
-12.4885
-12.4934
-12.5018
-12.513
-12.5265
-12.5418
-12.5585
-12.5761
-12.5944
-12.6129
-12.6314
-12.6497
-12.6676
-12.685
-12.7018
-12.7178
-12.7332
-12.7478
-12.7617
-12.775
-12.7877
-12.7999
-12.8118
-12.8234
-12.8349
-12.8464
-12.858
-12.8698
-12.882
-12.8945
-12.9074
-12.9206
-12.934
-12.9473
-12.9604
-12.9729
-12.9843
-12.9943
-13.0021
-13.0075
-13.0098
-13.0089
-13.0045
-12.9956
-12.9805
-12.5774
-12.557
-12.5443
-12.5369
-12.5332
-12.5331
-12.5363
-12.5424
-12.5509
-12.5615
-12.5737
-12.5873
-12.6017
-12.6169
-12.6324
-12.648
-12.6636
-12.6789
-12.6939
-12.7084
-12.7224
-12.7358
-12.7486
-12.7608
-12.7724
-12.7835
-12.7942
-12.8046
-12.8147
-12.8247
-12.8347
-12.8447
-12.8549
-12.8654
-12.8761
-12.8871
-12.8984
-12.9097
-12.921
-12.9319
-12.9423
-12.9518
-12.9599
-12.9662
-12.9705
-12.9723
-12.9714
-12.9677
-12.9605
-12.9484
-12.6146
-12.597
-12.5858
-12.579
-12.5752
-12.5744
-12.5762
-12.5805
-12.5868
-12.5949
-12.6044
-12.6152
-12.6268
-12.639
-12.6517
-12.6647
-12.6776
-12.6905
-12.7031
-12.7154
-12.7273
-12.7387
-12.7497
-12.7601
-12.77
-12.7795
-12.7887
-12.7975
-12.806
-12.8145
-12.8229
-12.8313
-12.8399
-12.8487
-12.8577
-12.8669
-12.8762
-12.8857
-12.895
-12.9041
-12.9127
-12.9204
-12.927
-12.9322
-12.9356
-12.9371
-12.9364
-12.9336
-12.9281
-12.9188
-12.6486
-12.6336
-12.6239
-12.6178
-12.6141
-12.6128
-12.6136
-12.6164
-12.6209
-12.6268
-12.634
-12.6423
-12.6513
-12.661
-12.6711
-12.6814
-12.6919
-12.7024
-12.7127
-12.7229
-12.7327
-12.7421
-12.7512
-12.7598
-12.768
-12.7758
-12.7833
-12.7905
-12.7975
-12.8044
-12.8112
-12.818
-12.8249
-12.832
-12.8393
-12.8467
-12.8543
-12.8619
-12.8695
-12.8768
-12.8838
-12.89
-12.8954
-12.8996
-12.9025
-12.9038
-12.9035
-12.9016
-12.8976
-12.891
-12.6799
-12.6674
-12.6593
-12.6539
-12.6505
-12.6488
-12.6489
-12.6505
-12.6534
-12.6576
-12.6627
-12.6687
-12.6754
-12.6826
-12.6903
-12.6983
-12.7064
-12.7146
-12.7228
-12.7307
-12.7385
-12.746
-12.7531
-12.76
-12.7664
-12.7725
-12.7784
-12.7839
-12.7893
-12.7945
-12.7996
-12.8048
-12.8101
-12.8154
-12.821
-12.8266
-12.8325
-12.8384
-12.8443
-12.85
-12.8555
-12.8604
-12.8647
-12.8681
-12.8706
-12.8719
-12.872
-12.871
-12.8686
-12.8645
-12.7091
-12.699
-12.6924
-12.6879
-12.6848
-12.683
-12.6825
-12.6831
-12.6847
-12.6872
-12.6905
-12.6945
-12.6991
-12.7041
-12.7095
-12.7153
-12.7212
-12.7272
-12.7332
-12.7391
-12.7449
-12.7504
-12.7557
-12.7607
-12.7654
-12.7698
-12.7739
-12.7777
-12.7814
-12.785
-12.7884
-12.7919
-12.7954
-12.799
-12.8028
-12.8068
-12.8109
-12.8151
-12.8193
-12.8235
-12.8276
-12.8313
-12.8346
-12.8374
-12.8395
-12.8409
-12.8415
-12.8414
-12.8406
-12.8389
-12.7366
-12.729
-12.7238
-12.7202
-12.7175
-12.7157
-12.7148
-12.7146
-12.715
-12.7161
-12.7177
-12.7199
-12.7225
-12.7255
-12.7288
-12.7324
-12.7362
-12.7401
-12.7441
-12.748
-12.7518
-12.7554
-12.7588
-12.762
-12.7649
-12.7676
-12.77
-12.7721
-12.7741
-12.7759
-12.7776
-12.7793
-12.7811
-12.7829
-12.7849
-12.7871
-12.7894
-12.7919
-12.7945
-12.7972
-12.7999
-12.8025
-12.8049
-12.807
-12.8088
-12.8103
-12.8115
-12.8123
-12.813
-12.8137
-12.7629
-12.7576
-12.754
-12.7512
-12.749
-12.7473
-12.746
-12.7451
-12.7446
-12.7444
-12.7445
-12.7449
-12.7457
-12.7468
-12.7481
-12.7497
-12.7515
-12.7534
-12.7554
-12.7573
-12.7593
-12.761
-12.7626
-12.764
-12.7652
-12.766
-12.7667
-12.7671
-12.7673
-12.7673
-12.7672
-12.7671
-12.767
-12.767
-12.7672
-12.7675
-12.768
-12.7688
-12.7698
-12.7709
-12.7722
-12.7736
-12.7751
-12.7767
-12.7782
-12.7798
-12.7815
-12.7833
-12.7855
-12.7885
-12.7885
-12.7855
-12.7833
-12.7815
-12.7799
-12.7782
-12.7767
-12.7751
-12.7736
-12.7722
-12.7709
-12.7698
-12.7688
-12.768
-12.7675
-12.7672
-12.7671
-12.767
-12.7671
-12.7672
-12.7673
-12.7673
-12.7671
-12.7667
-12.766
-12.7652
-12.764
-12.7626
-12.761
-12.7592
-12.7573
-12.7554
-12.7534
-12.7515
-12.7497
-12.7481
-12.7467
-12.7457
-12.7449
-12.7445
-12.7444
-12.7446
-12.7451
-12.746
-12.7473
-12.749
-12.7512
-12.7539
-12.7576
-12.7629
-12.8137
-12.813
-12.8123
-12.8115
-12.8103
-12.8088
-12.807
-12.8049
-12.8025
-12.7999
-12.7972
-12.7945
-12.7919
-12.7894
-12.7871
-12.7849
-12.7829
-12.7811
-12.7793
-12.7776
-12.7759
-12.7741
-12.7721
-12.77
-12.7676
-12.7649
-12.762
-12.7588
-12.7554
-12.7518
-12.748
-12.744
-12.7401
-12.7362
-12.7324
-12.7288
-12.7255
-12.7225
-12.7199
-12.7177
-12.7161
-12.715
-12.7146
-12.7148
-12.7157
-12.7175
-12.7201
-12.7238
-12.729
-12.7366
-12.8389
-12.8406
-12.8414
-12.8415
-12.8409
-12.8395
-12.8374
-12.8346
-12.8313
-12.8276
-12.8235
-12.8193
-12.8151
-12.8109
-12.8068
-12.8028
-12.7991
-12.7954
-12.7919
-12.7884
-12.785
-12.7814
-12.7777
-12.7739
-12.7698
-12.7654
-12.7607
-12.7557
-12.7504
-12.7449
-12.7391
-12.7332
-12.7272
-12.7212
-12.7153
-12.7095
-12.7041
-12.6991
-12.6945
-12.6905
-12.6872
-12.6847
-12.6831
-12.6825
-12.683
-12.6848
-12.6879
-12.6924
-12.699
-12.709
-12.8645
-12.8686
-12.871
-12.872
-12.8719
-12.8706
-12.8682
-12.8647
-12.8604
-12.8555
-12.85
-12.8443
-12.8384
-12.8325
-12.8266
-12.821
-12.8154
-12.8101
-12.8048
-12.7996
-12.7945
-12.7893
-12.7839
-12.7783
-12.7725
-12.7664
-12.76
-12.7531
-12.746
-12.7385
-12.7307
-12.7227
-12.7146
-12.7064
-12.6983
-12.6903
-12.6826
-12.6754
-12.6687
-12.6627
-12.6576
-12.6534
-12.6505
-12.6489
-12.6488
-12.6505
-12.6539
-12.6592
-12.6674
-12.6798
-12.891
-12.8976
-12.9016
-12.9035
-12.9038
-12.9025
-12.8996
-12.8954
-12.89
-12.8838
-12.8768
-12.8695
-12.8619
-12.8543
-12.8467
-12.8393
-12.832
-12.8249
-12.818
-12.8112
-12.8044
-12.7975
-12.7905
-12.7833
-12.7758
-12.768
-12.7598
-12.7512
-12.7421
-12.7327
-12.7229
-12.7127
-12.7024
-12.6919
-12.6814
-12.671
-12.6609
-12.6513
-12.6423
-12.634
-12.6268
-12.6209
-12.6164
-12.6136
-12.6128
-12.6141
-12.6178
-12.6239
-12.6336
-12.6485
-12.9188
-12.9281
-12.9336
-12.9364
-12.9371
-12.9356
-12.9322
-12.927
-12.9204
-12.9127
-12.9041
-12.895
-12.8857
-12.8762
-12.8669
-12.8577
-12.8487
-12.8399
-12.8313
-12.8229
-12.8145
-12.806
-12.7975
-12.7886
-12.7795
-12.77
-12.7601
-12.7497
-12.7387
-12.7273
-12.7154
-12.7031
-12.6905
-12.6776
-12.6647
-12.6517
-12.639
-12.6268
-12.6151
-12.6044
-12.5949
-12.5868
-12.5805
-12.5762
-12.5744
-12.5752
-12.579
-12.5858
-12.597
-12.6146
-12.9484
-12.9605
-12.9677
-12.9714
-12.9723
-12.9705
-12.9662
-12.9599
-12.9518
-12.9423
-12.9319
-12.921
-12.9097
-12.8984
-12.8871
-12.8761
-12.8654
-12.8549
-12.8447
-12.8347
-12.8247
-12.8147
-12.8046
-12.7942
-12.7835
-12.7724
-12.7608
-12.7486
-12.7358
-12.7224
-12.7084
-12.6939
-12.6789
-12.6636
-12.648
-12.6323
-12.6168
-12.6017
-12.5873
-12.5737
-12.5615
-12.5509
-12.5424
-12.5363
-12.5331
-12.5332
-12.5369
-12.5443
-12.557
-12.5774
-12.9805
-12.9956
-13.0045
-13.0089
-13.0099
-13.0075
-13.0021
-12.9943
-12.9843
-12.9729
-12.9604
-12.9473
-12.934
-12.9206
-12.9074
-12.8945
-12.882
-12.8698
-12.858
-12.8464
-12.8349
-12.8234
-12.8118
-12.7999
-12.7877
-12.775
-12.7617
-12.7478
-12.7332
-12.7178
-12.7018
-12.685
-12.6676
-12.6497
-12.6314
-12.6129
-12.5944
-12.5761
-12.5585
-12.5418
-12.5265
-12.513
-12.5018
-12.4934
-12.4885
-12.4875
-12.4908
-12.4986
-12.5129
-12.5362
-13.0157
-13.0341
-13.0448
-13.0498
-13.0505
-13.0472
-13.0403
-13.0305
-13.0184
-13.0045
-12.9896
-12.9741
-12.9584
-12.9428
-12.9275
-12.9126
-12.8983
-12.8844
-12.8709
-12.8577
-12.8448
-12.8319
-12.8188
-12.8055
-12.7919
-12.7777
-12.7628
-12.7472
-12.7308
-12.7136
-12.6954
-12.6764
-12.6566
-12.636
-12.6149
-12.5933
-12.5716
-12.55
-12.5288
-12.5085
-12.4896
-12.4727
-12.4583
-12.4471
-12.4399
-12.4373
-12.4399
-12.4479
-12.4637
-12.4903
-13.0548
-13.077
-13.0895
-13.0949
-13.095
-13.0903
-13.0813
-13.0689
-13.054
-13.0373
-13.0195
-13.0012
-12.9828
-12.9648
-12.9472
-12.9303
-12.914
-12.8984
-12.8833
-12.8686
-12.8542
-12.8399
-12.8255
-12.8109
-12.7959
-12.7802
-12.7639
-12.7468
-12.7286
-12.7095
-12.6894
-12.6681
-12.6459
-12.6226
-12.5986
-12.5738
-12.5486
-12.5233
-12.4982
-12.4739
-12.4509
-12.4299
-12.4115
-12.3968
-12.3866
-12.3818
-12.3832
-12.3912
-12.4084
-12.4386
-13.0989
-13.1253
-13.1397
-13.1452
-13.1442
-13.1373
-13.1255
-13.1098
-13.0914
-13.0712
-13.05
-13.0284
-13.0071
-12.9863
-12.9663
-12.9472
-12.9289
-12.9115
-12.8948
-12.8787
-12.8629
-12.8473
-12.8316
-12.8158
-12.7995
-12.7826
-12.7649
-12.7462
-12.7265
-12.7057
-12.6835
-12.6601
-12.6355
-12.6095
-12.5824
-12.5544
-12.5255
-12.4962
-12.4668
-12.4379
-12.4101
-12.3843
-12.3612
-12.342
-12.3279
-12.3201
-12.3196
-12.327
-12.3458
-12.38
-13.1493
-13.1807
-13.1969
-13.202
-13.1991
-13.1891
-13.1734
-13.1535
-13.1307
-13.1061
-13.0809
-13.0556
-13.0309
-13.0072
-12.9845
-12.963
-12.9428
-12.9235
-12.9052
-12.8877
-12.8706
-12.8538
-12.837
-12.82
-12.8025
-12.7845
-12.7655
-12.7456
-12.7244
-12.7019
-12.6779
-12.6525
-12.6254
-12.5968
-12.5667
-12.5352
-12.5025
-12.4688
-12.4347
-12.4007
-12.3674
-12.3358
-12.307
-12.2822
-12.263
-12.251
-12.2476
-12.2539
-12.274
-12.3128
-13.2078
-13.245
-13.263
-13.2668
-13.2608
-13.2464
-13.2255
-13.2
-13.1717
-13.142
-13.1119
-13.0824
-13.0539
-13.0268
-13.0013
-12.9774
-12.9551
-12.934
-12.9142
-12.8953
-12.877
-12.8591
-12.8412
-12.8233
-12.8049
-12.7858
-12.7658
-12.7446
-12.7222
-12.6982
-12.6726
-12.6452
-12.6159
-12.5847
-12.5515
-12.5165
-12.4797
-12.4415
-12.4022
-12.3624
-12.3228
-12.2844
-12.2486
-12.2168
-12.191
-12.1733
-12.1656
-12.1698
-12.1909
-12.2351
-13.2769
-13.3209
-13.3404
-13.3417
-13.3308
-13.3101
-13.2822
-13.2495
-13.2144
-13.1783
-13.1426
-13.1082
-13.0755
-13.0448
-13.0163
-12.9899
-12.9654
-12.9427
-12.9213
-12.9012
-12.8818
-12.8629
-12.8443
-12.8255
-12.8063
-12.7864
-12.7655
-12.7434
-12.7199
-12.6946
-12.6675
-12.6383
-12.607
-12.5732
-12.5371
-12.4986
-12.4577
-12.4147
-12.3698
-12.3235
-12.2767
-12.2304
-12.186
-12.1453
-12.1108
-12.0853
-12.0715
-12.072
-12.0936
-12.1441
-13.3599
-13.4122
-13.4322
-13.429
-13.4107
-13.3811
-13.3437
-13.3018
-13.2581
-13.2145
-13.1722
-13.1322
-13.0949
-13.0604
-13.0288
-12.9999
-12.9734
-12.949
-12.9263
-12.905
-12.8848
-12.8651
-12.8458
-12.8264
-12.8066
-12.7861
-12.7646
-12.7418
-12.7174
-12.6912
-12.6628
-12.6321
-12.5989
-12.5629
-12.5239
-12.482
-12.4369
-12.3889
-12.338
-12.2847
-12.2297
-12.174
-12.1193
-12.0676
-12.0217
-11.9854
-11.9625
-11.957
-11.9781
-12.0361
-13.4618
-13.5239
-13.5429
-13.5317
-13.5022
-13.4599
-13.4099
-13.3562
-13.3021
-13.2495
-13.1998
-13.1537
-13.1114
-13.0729
-13.0382
-13.0068
-12.9784
-12.9525
-12.9287
-12.9066
-12.8856
-12.8655
-12.8457
-12.826
-12.8059
-12.785
-12.7632
-12.7399
-12.7149
-12.688
-12.6587
-12.6268
-12.5919
-12.5539
-12.5124
-12.4672
-12.4181
-12.3649
-12.3078
-12.2469
-12.1828
-12.1163
-12.0491
-11.9835
-11.9229
-11.8718
-11.8356
-11.8202
-11.8388
-11.9055
-13.5903
-13.6637
-13.6783
-13.6535
-13.607
-13.547
-13.4802
-13.4117
-13.3449
-13.282
-13.2239
-13.1712
-13.1238
-13.0814
-13.0437
-13.01
-12.98
-12.9529
-12.9282
-12.9055
-12.8842
-12.8638
-12.8439
-12.8241
-12.8039
-12.7831
-12.7611
-12.7377
-12.7125
-12.6852
-12.6553
-12.6225
-12.5865
-12.5468
-12.5031
-12.455
-12.402
-12.3439
-12.2805
-12.2115
-12.1374
-12.0587
-11.9767
-11.8939
-11.8141
-11.7427
-11.6868
-11.6555
-11.6675
-11.7441
-13.7579
-13.8428
-13.8462
-13.7985
-13.7264
-13.6417
-13.553
-13.4661
-13.3845
-13.3099
-13.2428
-13.1833
-13.1309
-13.0848
-13.0444
-13.0089
-12.9776
-12.9497
-12.9246
-12.9016
-12.8802
-12.8599
-12.8403
-12.8207
-12.8008
-12.7803
-12.7586
-12.7354
-12.7103
-12.683
-12.653
-12.6198
-12.583
-12.5422
-12.4968
-12.4462
-12.3899
-12.3272
-12.2575
-12.1804
-12.0957
-12.0034
-11.9043
-11.8005
-11.6958
-11.5966
-11.5119
-11.4545
-11.4525
-11.5385
-13.9859
-14.0781
-14.0565
-13.9709
-13.8605
-13.7419
-13.6251
-13.5161
-13.4176
-13.3305
-13.2543
-13.1883
-13.1313
-13.0821
-13.0396
-13.0029
-12.9708
-12.9426
-12.9175
-12.8947
-12.8738
-12.854
-12.8349
-12.8159
-12.7967
-12.7768
-12.7558
-12.7332
-12.7087
-12.6818
-12.652
-12.6189
-12.582
-12.5406
-12.4941
-12.4418
-12.3828
-12.3162
-12.2409
-12.156
-12.0605
-11.9537
-11.8354
-11.7066
-11.5705
-11.4336
-11.3065
-11.2068
-11.1758
-11.2657
-14.3137
-14.3951
-14.3212
-14.1729
-14.0065
-13.8426
-13.6911
-13.5566
-13.44
-13.3403
-13.2556
-13.184
-13.1234
-13.072
-13.0285
-12.9912
-12.9592
-12.9314
-12.9068
-12.8849
-12.8648
-12.8459
-12.8278
-12.8099
-12.7918
-12.7729
-12.7529
-12.7314
-12.7078
-12.6818
-12.6529
-12.6205
-12.584
-12.5428
-12.4961
-12.4429
-12.3822
-12.3127
-12.233
-12.1413
-12.0358
-11.9144
-11.7756
-11.6183
-11.4437
-11.2567
-11.0683
-10.9002
-10.8108
-10.8841
-14.8135
-14.8318
-14.6517
-14.4023
-14.1559
-13.9337
-13.7416
-13.58
-13.4458
-13.335
-13.2436
-13.1681
-13.1056
-13.0536
-13.0102
-12.9736
-12.9425
-12.9159
-12.8926
-12.872
-12.8534
-12.836
-12.8193
-12.8029
-12.7862
-12.7688
-12.7503
-12.7302
-12.7081
-12.6835
-12.656
-12.6249
-12.5896
-12.5494
-12.5034
-12.4505
-12.3895
-12.3188
-12.2364
-12.1398
-12.0262
-11.8919
-11.733
-11.5453
-11.326
-11.0753
-10.8001
-10.5227
-10.3182
-10.318
-15.6164
-15.4386
-15.0561
-14.6496
-14.2935
-14.0004
-13.7649
-13.5776
-13.4289
-13.3105
-13.2157
-13.1392
-13.0771
-13.0264
-12.9846
-12.95
-12.9209
-12.8963
-12.8751
-12.8565
-12.8398
-12.8244
-12.8097
-12.7951
-12.7804
-12.7649
-12.7482
-12.7301
-12.7099
-12.6872
-12.6616
-12.6324
-12.5991
-12.5608
-12.5166
-12.4654
-12.4057
-12.3358
-12.2531
-12.1546
-12.0363
-11.8927
-11.717
-11.5005
-11.2334
-10.9056
-10.5121
-10.0666
-9.64698
-9.43306
-17.0194
-16.2561
-15.5102
-14.8817
-14.3886
-14.019
-13.7445
-13.539
-13.3832
-13.2633
-13.17
-13.0964
-13.0377
-12.9904
-12.9521
-12.9207
-12.8948
-12.8731
-12.8547
-12.8388
-12.8247
-12.8117
-12.7993
-12.7871
-12.7746
-12.7614
-12.747
-12.7311
-12.7133
-12.693
-12.6698
-12.6433
-12.6126
-12.5771
-12.5359
-12.4878
-12.4312
-12.3644
-12.2846
-12.1883
-12.0704
-11.9241
-11.7393
-11.5018
-11.1915
-10.7807
-10.2399
-9.55842
-8.757
-7.92416
-19.8524
-17.2535
-15.8331
-14.9444
-14.3337
-13.9192
-13.6358
-13.4357
-13.2898
-13.1807
-13.0974
-13.0328
-12.9819
-12.9415
-12.9091
-12.883
-12.8618
-12.8444
-12.8299
-12.8176
-12.8068
-12.797
-12.7878
-12.7785
-12.7689
-12.7586
-12.7471
-12.7342
-12.7193
-12.7022
-12.6823
-12.6591
-12.6322
-12.6008
-12.5641
-12.5211
-12.4703
-12.41
-12.3377
-12.2498
-12.1414
-12.005
-11.8288
-11.5947
-11.2724
-10.8117
-10.1432
-9.18258
-7.67541
-4.95517
-24.7214
-18.3366
-15.6691
-14.5676
-13.9669
-13.6079
-13.3836
-13.2334
-13.1262
-13.0465
-12.9858
-12.9388
-12.902
-12.873
-12.8502
-12.8321
-12.8179
-12.8067
-12.7978
-12.7905
-12.7844
-12.779
-12.7739
-12.7687
-12.7631
-12.7566
-12.749
-12.74
-12.7292
-12.7162
-12.7008
-12.6825
-12.6608
-12.6354
-12.6054
-12.5701
-12.5285
-12.4793
-12.4206
-12.35
-12.2636
-12.1558
-12.0174
-11.8319
-11.5675
-11.1604
-10.4943
-9.29778
-6.51214
9.18707e-05
)
;

boundaryField
{
    movingWallTop
    {
        type            zeroGradient;
    }
    movingWallBottom
    {
        type            zeroGradient;
    }
    fixedWalls
    {
        type            zeroGradient;
    }
    frontAndBack
    {
        type            empty;
    }
}


// ************************************************************************* //
