/*--------------------------------*- C++ -*----------------------------------*\
  =========                 |
  \\      /  F ield         | OpenFOAM: The Open Source CFD Toolbox
   \\    /   O peration     | Website:  https://openfoam.org
    \\  /    A nd           | Version:  7
     \\/     M anipulation  |
\*---------------------------------------------------------------------------*/
FoamFile
{
    version     2.0;
    format      ascii;
    class       surfaceScalarField;
    location    "0.0762";
    object      phi;
}
// * * * * * * * * * * * * * * * * * * * * * * * * * * * * * * * * * * * * * //

dimensions      [0 3 -1 0 0 0 0];

internalField   nonuniform List<scalar> 
4900
(
-5.55534e-06
5.55534e-06
-1.01609e-05
4.60559e-06
-1.29489e-05
2.78793e-06
-1.46695e-05
1.72067e-06
-1.57727e-05
1.10313e-06
-1.65123e-05
7.39602e-07
-1.70337e-05
5.21453e-07
-1.74189e-05
3.85207e-07
-1.77145e-05
2.95553e-07
-1.79479e-05
2.33457e-07
-1.81364e-05
1.88487e-07
-1.82911e-05
1.54674e-07
-1.84195e-05
1.28433e-07
-1.8527e-05
1.07502e-07
-1.86174e-05
9.03934e-08
-1.86935e-05
7.60871e-08
-1.87574e-05
6.38643e-08
-1.88106e-05
5.32033e-08
-1.88543e-05
4.37161e-08
-1.88894e-05
3.51082e-08
-1.89166e-05
2.71508e-08
-1.89362e-05
1.96623e-08
-1.89487e-05
1.24953e-08
-1.89542e-05
5.52595e-09
-1.89529e-05
-1.35387e-09
-1.89446e-05
-8.23967e-09
-1.89294e-05
-1.52255e-08
-1.8907e-05
-2.24041e-08
-1.88771e-05
-2.98748e-08
-1.88394e-05
-3.77496e-08
-1.87932e-05
-4.61608e-08
-1.8738e-05
-5.52713e-08
-1.86727e-05
-6.52883e-08
-1.85962e-05
-7.64828e-08
-1.8507e-05
-8.92174e-08
-1.8403e-05
-1.03989e-07
-1.82815e-05
-1.21493e-07
-1.81388e-05
-1.42732e-07
-1.79696e-05
-1.69191e-07
-1.77664e-05
-2.03154e-07
-1.75181e-05
-2.48273e-07
-1.72075e-05
-3.1064e-07
-1.68067e-05
-4.00841e-07
-1.62687e-05
-5.37926e-07
-1.55123e-05
-7.56388e-07
-1.43964e-05
-1.11593e-06
-1.26814e-05
-1.71498e-06
-9.94582e-06
-2.73561e-06
-5.45242e-06
-4.4934e-06
-5.45242e-06
-1.18919e-08
5.56723e-06
-2.13087e-06
6.72456e-06
-4.85886e-06
5.51593e-06
-7.27749e-06
4.1393e-06
-9.21764e-06
3.04328e-06
-1.0732e-05
2.25393e-06
-1.19137e-05
1.7032e-06
-1.28458e-05
1.3173e-06
-1.35916e-05
1.04132e-06
-1.41969e-05
8.38796e-07
-1.46946e-05
6.86169e-07
-1.51081e-05
5.68167e-07
-1.54544e-05
4.74723e-07
-1.57459e-05
3.99046e-07
-1.5992e-05
3.36444e-07
-1.61995e-05
2.83593e-07
-1.63737e-05
2.38086e-07
-1.65186e-05
1.98143e-07
-1.66374e-05
1.6242e-07
-1.67321e-05
1.29884e-07
-1.68047e-05
9.9726e-08
-1.68563e-05
7.12961e-08
-1.68879e-05
4.40633e-08
-1.69e-05
1.75797e-08
-1.68928e-05
-8.54461e-09
-1.68663e-05
-3.46645e-08
-1.68204e-05
-6.11172e-08
-1.67546e-05
-8.8242e-08
-1.66681e-05
-1.16399e-07
-1.65598e-05
-1.45992e-07
-1.64285e-05
-1.77493e-07
-1.62723e-05
-2.11479e-07
-1.60889e-05
-2.48674e-07
-1.58754e-05
-2.90014e-07
-1.56279e-05
-3.3673e-07
-1.53414e-05
-3.90481e-07
-1.50093e-05
-4.53535e-07
-1.4623e-05
-5.2906e-07
-1.41706e-05
-6.21565e-07
-1.36362e-05
-7.37607e-07
-1.29975e-05
-8.86915e-07
-1.2224e-05
-1.08419e-06
-1.1273e-05
-1.35188e-06
-1.00866e-05
-1.72426e-06
-8.59112e-06
-2.25189e-06
-6.70638e-06
-3.00068e-06
-4.39273e-06
-4.02863e-06
-1.81828e-06
-5.31005e-06
1.24454e-07
-6.43614e-06
-5.32797e-06
1.0323e-06
4.53494e-06
5.46207e-07
7.21065e-06
-9.94201e-07
7.05634e-06
-2.89156e-06
6.03666e-06
-4.75207e-06
4.90378e-06
-6.41518e-06
3.91704e-06
-7.8414e-06
3.12943e-06
-9.04376e-06
2.51965e-06
-1.00525e-05
2.05008e-06
-1.08998e-05
1.68605e-06
-1.16139e-05
1.40027e-06
-1.22181e-05
1.17239e-06
-1.2731e-05
9.87614e-07
-1.31671e-05
8.35175e-07
-1.35379e-05
7.072e-07
-1.38521e-05
5.97869e-07
-1.41169e-05
5.02821e-07
-1.43375e-05
4.18746e-07
-1.45181e-05
3.43091e-07
-1.46621e-05
2.73858e-07
-1.47719e-05
2.09461e-07
-1.48492e-05
1.48613e-07
-1.48954e-05
9.02491e-08
-1.49112e-05
3.34676e-08
-1.48973e-05
-2.25213e-08
-1.48535e-05
-7.84368e-08
-1.47797e-05
-1.34963e-07
-1.46751e-05
-1.92783e-07
-1.45389e-05
-2.52619e-07
-1.43696e-05
-3.15271e-07
-1.41654e-05
-3.81662e-07
-1.3924e-05
-4.52907e-07
-1.36423e-05
-5.30382e-07
-1.33165e-05
-6.15834e-07
-1.29417e-05
-7.1152e-07
-1.25118e-05
-8.20399e-07
-1.20189e-05
-9.46407e-07
-1.14531e-05
-1.09484e-06
-1.08018e-05
-1.27289e-06
-1.0049e-05
-1.49041e-06
-9.17502e-06
-1.76091e-06
-8.15639e-06
-2.10282e-06
-6.96766e-06
-2.54061e-06
-5.58714e-06
-3.10478e-06
-4.01151e-06
-3.82752e-06
-2.28747e-06
-4.72471e-06
-5.72184e-07
-5.74391e-06
7.67171e-07
-6.64941e-06
1.08793e-06
-6.75689e-06
-4.24004e-06
9.05931e-07
3.62901e-06
1.22686e-06
6.88972e-06
6.39472e-07
7.64372e-06
-5.30346e-07
7.20648e-06
-1.95366e-06
6.32709e-06
-3.41215e-06
5.37554e-06
-4.78878e-06
4.50605e-06
-6.03368e-06
3.76456e-06
-7.13423e-06
3.15062e-06
-8.0957e-06
2.64752e-06
-8.9306e-06
2.23517e-06
-9.65329e-06
1.89508e-06
-1.02775e-05
1.61184e-06
-1.08154e-05
1.3731e-06
-1.12774e-05
1.16917e-06
-1.1672e-05
9.92465e-07
-1.20063e-05
8.37075e-07
-1.22858e-05
6.98339e-07
-1.25153e-05
5.72568e-07
-1.26983e-05
4.5681e-07
-1.28375e-05
3.48674e-07
-1.29351e-05
2.46193e-07
-1.29925e-05
1.47723e-07
-1.30109e-05
5.18547e-08
-1.29908e-05
-4.26503e-08
-1.29323e-05
-1.36921e-07
-1.28352e-05
-2.3203e-07
-1.2699e-05
-3.29041e-07
-1.25225e-05
-4.29067e-07
-1.23045e-05
-5.33322e-07
-1.2043e-05
-6.43193e-07
-1.17356e-05
-7.60314e-07
-1.13793e-05
-8.86672e-07
-1.09704e-05
-1.02473e-06
-1.05043e-05
-1.17757e-06
-9.97557e-06
-1.34915e-06
-9.37745e-06
-1.54452e-06
-8.70212e-06
-1.77017e-06
-7.94059e-06
-2.03442e-06
-7.08312e-06
-2.34787e-06
-6.12035e-06
-2.72369e-06
-5.04573e-06
-3.17744e-06
-3.86062e-06
-3.72571e-06
-2.58387e-06
-4.38152e-06
-1.26854e-06
-5.14285e-06
-2.69238e-08
-5.96633e-06
9.42863e-07
-6.7137e-06
1.34959e-06
-7.05613e-06
9.1715e-07
-6.32446e-06
-3.32289e-06
6.71127e-07
2.95788e-06
1.2411e-06
6.31974e-06
1.21785e-06
7.66698e-06
6.42159e-07
7.78217e-06
-2.98434e-07
7.26769e-06
-1.42151e-06
6.49861e-06
-2.59462e-06
5.67916e-06
-3.73635e-06
4.90629e-06
-4.80312e-06
4.2174e-06
-5.77554e-06
3.61994e-06
-6.64826e-06
3.10788e-06
-7.42339e-06
2.67021e-06
-8.10657e-06
2.29502e-06
-8.70472e-06
1.97125e-06
-9.22484e-06
1.68929e-06
-9.67346e-06
1.44108e-06
-1.00563e-05
1.21995e-06
-1.03784e-05
1.02041e-06
-1.06438e-05
8.37973e-07
-1.08559e-05
6.68941e-07
-1.10175e-05
5.10244e-07
-1.11306e-05
3.59315e-07
-1.11969e-05
2.13974e-07
-1.12174e-05
7.23354e-08
-1.11927e-05
-6.72698e-08
-1.11233e-05
-2.06365e-07
-1.10089e-05
-3.46393e-07
-1.08492e-05
-4.88775e-07
-1.06433e-05
-6.34976e-07
-1.039e-05
-7.86569e-07
-1.00879e-05
-9.45317e-07
-9.73497e-06
-1.11325e-06
-9.32887e-06
-1.29278e-06
-8.8668e-06
-1.48679e-06
-8.34554e-06
-1.69884e-06
-7.76146e-06
-1.93323e-06
-7.11072e-06
-2.19527e-06
-6.38951e-06
-2.49138e-06
-5.59475e-06
-2.82918e-06
-4.72523e-06
-3.21739e-06
-3.78365e-06
-3.66526e-06
-2.78014e-06
-4.18095e-06
-1.73779e-06
-4.76806e-06
-7.00983e-07
-5.41833e-06
2.53848e-07
-6.09768e-06
1.00871e-06
-6.7212e-06
1.40725e-06
-7.11223e-06
1.29713e-06
-6.94601e-06
6.66613e-07
-5.69394e-06
-2.65628e-06
4.79597e-07
2.47828e-06
1.07297e-06
5.72637e-06
1.33427e-06
7.40568e-06
1.1631e-06
7.95334e-06
6.2717e-07
7.80362e-06
-1.5483e-07
7.28061e-06
-1.0708e-06
6.59513e-06
-2.03528e-06
5.87077e-06
-2.99062e-06
5.17273e-06
-3.90146e-06
4.53078e-06
-4.74821e-06
3.95463e-06
-5.52157e-06
3.44357e-06
-6.21853e-06
2.99198e-06
-6.83972e-06
2.59243e-06
-7.38765e-06
2.23722e-06
-7.86569e-06
1.91912e-06
-8.27741e-06
1.63167e-06
-8.62626e-06
1.36926e-06
-8.91537e-06
1.12708e-06
-9.14746e-06
9.0103e-07
-9.32482e-06
6.87602e-07
-9.44931e-06
4.83804e-07
-9.52238e-06
2.87046e-07
-9.54511e-06
9.50636e-08
-9.51821e-06
-9.41652e-08
-9.44209e-06
-2.82489e-07
-9.31683e-06
-4.71649e-07
-9.14226e-06
-6.63348e-07
-8.91793e-06
-8.59312e-07
-8.64314e-06
-1.06136e-06
-8.31698e-06
-1.27147e-06
-7.93834e-06
-1.49189e-06
-7.50596e-06
-1.72516e-06
-7.0185e-06
-1.97425e-06
-6.47467e-06
-2.24267e-06
-5.87346e-06
-2.53444e-06
-5.2145e-06
-2.85423e-06
-4.49866e-06
-3.20722e-06
-3.72899e-06
-3.59884e-06
-2.91223e-06
-4.03416e-06
-2.06099e-06
-4.5165e-06
-1.19697e-06
-5.04498e-06
-3.55145e-07
-5.60989e-06
4.11438e-07
-6.18491e-06
1.02812e-06
-6.71436e-06
1.40113e-06
-7.09421e-06
1.43623e-06
-7.14733e-06
1.08928e-06
-6.59907e-06
4.69631e-07
-5.07429e-06
-2.18665e-06
3.47112e-07
2.13117e-06
8.8717e-07
5.18631e-06
1.26901e-06
7.02383e-06
1.34531e-06
7.87704e-06
1.1085e-06
8.04043e-06
6.187e-07
7.77042e-06
-4.47655e-08
7.2586e-06
-8.08412e-07
6.63442e-06
-1.61403e-06
5.97836e-06
-2.41962e-06
5.33637e-06
-3.19696e-06
4.73197e-06
-3.92832e-06
4.17493e-06
-4.60338e-06
3.66705e-06
-5.21684e-06
3.20589e-06
-5.76655e-06
2.78693e-06
-6.25235e-06
2.40492e-06
-6.67519e-06
2.0545e-06
-7.03656e-06
1.73064e-06
-7.3382e-06
1.42872e-06
-7.58181e-06
1.14464e-06
-7.76899e-06
8.74788e-07
-7.90115e-06
6.15963e-07
-7.97946e-06
3.65356e-07
-8.00487e-06
1.20467e-07
-7.97808e-06
-1.20953e-07
-7.8996e-06
-3.60963e-07
-7.76975e-06
-6.01499e-07
-7.58868e-06
-8.44425e-07
-7.35639e-06
-1.0916e-06
-7.07281e-06
-1.34494e-06
-6.73782e-06
-1.60646e-06
-6.35133e-06
-1.87837e-06
-5.9134e-06
-2.16308e-06
-5.42438e-06
-2.46328e-06
-4.88512e-06
-2.78192e-06
-4.29734e-06
-3.12222e-06
-3.66407e-06
-3.48749e-06
-2.99043e-06
-3.88086e-06
-2.28456e-06
-4.30471e-06
-1.55906e-06
-4.75966e-06
-8.32793e-07
-5.24277e-06
-1.33082e-07
-5.74469e-06
5.02072e-07
-6.24504e-06
1.02269e-06
-6.70553e-06
1.36853e-06
-7.0602e-06
1.4777e-06
-7.20338e-06
1.30833e-06
-6.97796e-06
8.79787e-07
-6.17053e-06
3.35317e-07
-4.52982e-06
-1.85133e-06
2.5966e-07
1.87151e-06
7.28853e-07
4.71712e-06
1.14524e-06
6.60744e-06
1.36076e-06
7.66153e-06
1.32909e-06
8.07209e-06
1.06786e-06
8.03165e-06
6.24738e-07
7.70172e-06
5.49807e-08
7.20417e-06
-5.90581e-07
6.62392e-06
-1.27042e-06
6.0162e-06
-1.95302e-06
5.41458e-06
-2.61581e-06
4.83771e-06
-3.24334e-06
4.29458e-06
-3.82555e-06
3.78809e-06
-4.35624e-06
3.31763e-06
-4.8319e-06
2.88058e-06
-5.25079e-06
2.4734e-06
-5.61235e-06
2.09219e-06
-5.9167e-06
1.73307e-06
-6.16438e-06
1.39232e-06
-6.35611e-06
1.06652e-06
-6.49269e-06
7.52541e-07
-6.5749e-06
4.47566e-07
-6.60347e-06
1.49038e-07
-6.57906e-06
-1.45365e-07
-6.50224e-06
-4.37777e-07
-6.37356e-06
-7.30186e-07
-6.19349e-06
-1.02449e-06
-5.96256e-06
-1.32253e-06
-5.68135e-06
-1.62615e-06
-5.35059e-06
-1.93722e-06
-4.97128e-06
-2.25769e-06
-4.54481e-06
-2.58956e-06
-4.07317e-06
-2.93491e-06
-3.55926e-06
-3.29584e-06
-3.00719e-06
-3.67429e-06
-2.42288e-06
-4.0718e-06
-1.81466e-06
-4.48908e-06
-1.19418e-06
-4.9252e-06
-5.77437e-07
-5.3764e-06
1.40179e-08
-5.83422e-06
5.52056e-07
-6.28272e-06
1.0015e-06
-6.69449e-06
1.3213e-06
-7.02533e-06
1.46896e-06
-7.20786e-06
1.41072e-06
-7.14514e-06
1.14014e-06
-6.70738e-06
7.0635e-07
-5.73673e-06
2.4685e-07
-4.07032e-06
-1.60448e-06
2.01307e-07
1.6702e-06
6.03464e-07
4.31496e-06
1.01325e-06
6.19766e-06
1.29971e-06
7.37507e-06
1.40124e-06
7.97056e-06
1.3088e-06
8.12409e-06
1.04497e-06
7.96554e-06
6.46768e-07
7.60238e-06
1.54221e-07
7.11646e-06
-3.95893e-07
6.56632e-06
-9.72782e-07
5.99147e-06
-1.55218e-06
5.41712e-06
-2.11583e-06
4.85822e-06
-2.65046e-06
4.32272e-06
-3.14676e-06
3.81393e-06
-3.59843e-06
3.33224e-06
-4.00134e-06
2.87631e-06
-4.35296e-06
2.44381e-06
-4.65182e-06
2.03193e-06
-4.89722e-06
1.63772e-06
-5.08896e-06
1.25826e-06
-5.22715e-06
8.90728e-07
-5.3121e-06
5.32518e-07
-5.34427e-06
1.81205e-07
-5.32419e-06
-1.65441e-07
-5.2525e-06
-5.09471e-07
-5.12989e-06
-8.5279e-07
-4.95721e-06
-1.19718e-06
-4.73542e-06
-1.54431e-06
-4.46576e-06
-1.89581e-06
-4.14977e-06
-2.25322e-06
-3.78944e-06
-2.61802e-06
-3.38738e-06
-2.99162e-06
-2.94703e-06
-3.37526e-06
-2.47294e-06
-3.76992e-06
-1.97116e-06
-4.17608e-06
-1.44962e-06
-4.59334e-06
-9.18743e-07
-5.01996e-06
-3.92048e-07
-5.45189e-06
1.13224e-07
-5.88167e-06
5.75582e-07
-6.29658e-06
9.69181e-07
-6.67632e-06
1.26461e-06
-6.98992e-06
1.43134e-06
-7.19207e-06
1.44302e-06
-7.21953e-06
1.28659e-06
-6.98872e-06
9.76231e-07
-6.39701e-06
5.70573e-07
-5.33108e-06
1.87625e-07
-3.68737e-06
-1.41686e-06
1.6108e-07
1.50912e-06
5.05854e-07
3.97018e-06
8.91274e-07
5.81224e-06
1.20773e-06
7.05861e-06
1.39131e-06
7.78698e-06
1.41833e-06
8.09706e-06
1.29369e-06
8.09019e-06
1.03896e-06
7.8571e-06
6.8309e-07
7.47234e-06
2.56104e-07
6.9933e-06
-2.1439e-07
6.46196e-06
-7.04828e-07
5.90755e-06
-1.19609e-06
5.34948e-06
-1.67322e-06
4.79985e-06
-2.12488e-06
4.2656e-06
-2.54271e-06
3.75007e-06
-2.92066e-06
3.25426e-06
-3.2545e-06
2.77765e-06
-3.54136e-06
2.31878e-06
-3.77935e-06
1.87572e-06
-3.96736e-06
1.44626e-06
-4.10478e-06
1.02816e-06
-4.19145e-06
6.1919e-07
-4.2275e-06
2.17252e-07
-4.21331e-06
-1.79629e-07
-4.1495e-06
-5.73281e-07
-4.03692e-06
-9.65375e-07
-3.87666e-06
-1.35744e-06
-3.67012e-06
-1.75085e-06
-3.41906e-06
-2.14686e-06
-3.12574e-06
-2.54654e-06
-2.79298e-06
-2.95078e-06
-2.42438e-06
-3.36022e-06
-2.02451e-06
-3.77514e-06
-1.59915e-06
-4.19529e-06
-1.1556e-06
-4.61962e-06
-7.03057e-07
-5.04589e-06
-2.52931e-07
-5.47008e-06
1.80752e-07
-5.88557e-06
5.81117e-07
-6.28203e-06
9.28462e-07
-6.64392e-06
1.20079e-06
-6.94865e-06
1.37529e-06
-7.16441e-06
1.4312e-06
-7.24798e-06
1.35478e-06
-7.14311e-06
1.14658e-06
-6.78053e-06
8.30909e-07
-6.08134e-06
4.65446e-07
-4.96561e-06
1.46609e-07
-3.36854e-06
-1.27025e-06
1.32248e-07
1.37687e-06
4.29455e-07
3.67298e-06
7.84209e-07
5.45748e-06
1.10691e-06
6.73592e-06
1.33759e-06
7.5563e-06
1.44594e-06
7.98872e-06
1.42547e-06
8.11066e-06
1.28599e-06
7.99658e-06
1.04659e-06
7.71174e-06
7.30203e-07
7.30969e-06
3.60043e-07
6.83212e-06
-4.25374e-08
6.31013e-06
-4.59033e-07
5.76598e-06
-8.74081e-07
5.2149e-06
-1.27533e-06
4.66685e-06
-1.65311e-06
4.12785e-06
-2.00002e-06
3.60117e-06
-2.31051e-06
3.08814e-06
-2.58053e-06
2.5888e-06
-2.80717e-06
2.10237e-06
-2.98849e-06
1.62758e-06
-3.12323e-06
1.1629e-06
-3.21072e-06
7.06683e-07
-3.25077e-06
2.57297e-07
-3.24356e-06
-1.86835e-07
-3.18967e-06
-6.27173e-07
-3.09001e-06
-1.06503e-06
-2.94588e-06
-1.50157e-06
-2.75899e-06
-1.93775e-06
-2.53153e-06
-2.37432e-06
-2.26629e-06
-2.81178e-06
-1.96672e-06
-3.25035e-06
-1.63713e-06
-3.6898e-06
-1.28287e-06
-4.1294e-06
-9.10475e-07
-4.56768e-06
-5.27952e-07
-5.00214e-06
-1.44978e-07
-5.42887e-06
2.26891e-07
-5.84195e-06
5.74106e-07
-6.23279e-06
8.8118e-07
-6.58911e-06
1.13108e-06
-6.89382e-06
1.30611e-06
-7.12369e-06
1.38968e-06
-7.24797e-06
1.369e-06
-7.22731e-06
1.23932e-06
-7.01343e-06
1.0092e-06
-6.5504e-06
7.06532e-07
-5.77868e-06
3.83474e-07
-4.64256e-06
1.17108e-07
-3.10217e-06
-1.15314e-06
1.10768e-07
1.26611e-06
3.68722e-07
3.41502e-06
6.9179e-07
5.13442e-06
1.0073e-06
6.4204e-06
1.26175e-06
7.30185e-06
1.42298e-06
7.82748e-06
1.4779e-06
8.05573e-06
1.42798e-06
8.0465e-06
1.28431e-06
7.85542e-06
1.06331e-06
7.53068e-06
7.83482e-07
7.11194e-06
4.63198e-07
6.63042e-06
1.19374e-07
6.1098e-06
-2.33162e-07
5.56744e-06
-5.81895e-07
5.01558e-06
-9.16552e-07
4.46251e-06
-1.22891e-06
3.91353e-06
-1.51251e-06
3.37174e-06
-1.76241e-06
2.8387e-06
-1.97492e-06
2.31488e-06
-2.14737e-06
1.80002e-06
-2.27793e-06
1.29345e-06
-2.36546e-06
7.94223e-07
-2.40946e-06
3.01289e-07
-2.40989e-06
-1.86401e-07
-2.36723e-06
-6.69829e-07
-2.28242e-06
-1.14985e-06
-2.15686e-06
-1.62714e-06
-1.99245e-06
-2.10215e-06
-1.7917e-06
-2.57507e-06
-1.55771e-06
-3.04577e-06
-1.29437e-06
-3.51368e-06
-1.00643e-06
-3.97774e-06
-6.9962e-07
-4.43621e-06
-3.8085e-07
-4.88645e-06
-5.83124e-08
-5.32468e-06
2.58392e-07
-5.74557e-06
5.58201e-07
-6.14176e-06
8.28658e-07
-6.50325e-06
1.05619e-06
-6.81664e-06
1.22669e-06
-7.06432e-06
1.32658e-06
-7.22358e-06
1.34448e-06
-7.26587e-06
1.27365e-06
-7.15648e-06
1.11519e-06
-6.85497e-06
8.8177e-07
-6.31698e-06
6.01202e-07
-5.49811e-06
3.18599e-07
-4.35995e-06
9.51055e-08
-2.87868e-06
-1.05803e-06
9.41803e-08
1.17193e-06
3.19477e-07
3.18973e-06
6.12063e-07
4.84183e-06
9.12997e-07
6.11947e-06
1.17576e-06
7.03909e-06
1.36909e-06
7.63415e-06
1.47654e-06
7.94828e-06
1.49405e-06
8.029e-06
1.42664e-06
7.92283e-06
1.28522e-06
7.6721e-06
1.08383e-06
7.31333e-06
8.3761e-07
6.87664e-06
5.61361e-07
6.38605e-06
2.68736e-07
5.86006e-06
-2.82129e-08
5.31253e-06
-3.19193e-07
4.75349e-06
-5.95641e-07
4.18998e-06
-8.50596e-07
3.6267e-06
-1.07853e-06
3.06664e-06
-1.27516e-06
2.5115e-06
-1.43726e-06
1.96213e-06
-1.56254e-06
1.41873e-06
-1.64947e-06
8.81153e-07
-1.69722e-06
3.49034e-07
-1.70555e-06
-1.78069e-07
-1.67481e-06
-7.00571e-07
-1.60587e-06
-1.21878e-06
-1.50018e-06
-1.73283e-06
-1.35973e-06
-2.2426e-06
-1.18715e-06
-2.74766e-06
-9.85739e-07
-3.24718e-06
-7.59568e-07
-3.73985e-06
-5.13551e-07
-4.22376e-06
-2.53549e-07
-4.69621e-06
1.3546e-08
-5.15354e-06
2.79737e-07
-5.59087e-06
5.3591e-07
-6.00174e-06
7.71889e-07
-6.37774e-06
9.76641e-07
-6.708e-06
1.13866e-06
-6.97866e-06
1.24666e-06
-7.17232e-06
1.29062e-06
-7.26753e-06
1.26326e-06
-7.23852e-06
1.1621e-06
-7.05532e-06
9.91724e-07
-6.6846e-06
7.66374e-07
-6.09163e-06
5.11877e-07
-5.24361e-06
2.66319e-07
-4.1144e-06
7.81462e-08
-2.6905e-06
-9.79888e-07
8.09526e-08
1.09097e-06
2.7869e-07
2.99199e-06
5.42768e-07
4.57775e-06
8.25197e-07
5.83704e-06
1.0861e-06
6.77819e-06
1.29645e-06
7.4238e-06
1.43861e-06
7.80612e-06
1.50511e-06
7.9625e-06
1.49662e-06
7.93131e-06
1.41964e-06
7.74909e-06
1.28428e-06
7.44869e-06
1.10255e-06
7.05838e-06
8.86945e-07
6.60165e-06
6.4959e-07
6.09742e-06
4.0163e-07
5.56049e-06
1.52946e-07
5.00218e-06
-8.79653e-08
4.43089e-06
-3.13977e-07
3.85271e-06
-5.1926e-07
3.27192e-06
-6.99163e-07
2.69141e-06
-8.50087e-07
2.11305e-06
-9.69365e-07
1.53801e-06
-1.05515e-06
9.66942e-07
-1.10635e-06
4.00226e-07
-1.1225e-06
-1.61914e-07
-1.1038e-06
-7.19272e-07
-1.05103e-06
-1.27156e-06
-9.65558e-07
-1.8183e-06
-8.49383e-07
-2.35877e-06
-7.05132e-07
-2.89191e-06
-5.36125e-07
-3.41619e-06
-3.46424e-07
-3.92956e-06
-1.40895e-07
-4.42929e-06
7.47411e-08
-4.91185e-06
2.93865e-07
-5.37267e-06
5.0896e-07
-5.80597e-06
7.11657e-07
-6.20444e-06
8.92884e-07
-6.55897e-06
1.04313e-06
-6.85824e-06
1.1529e-06
-7.08843e-06
1.21339e-06
-7.23281e-06
1.21746e-06
-7.27161e-06
1.16092e-06
-7.18197e-06
1.04401e-06
-6.93841e-06
8.73202e-07
-6.51379e-06
6.62703e-07
-5.88113e-06
4.3553e-07
-5.01644e-06
2.23375e-07
-3.90224e-06
6.4685e-08
-2.53181e-06
-9.15203e-07
7.00964e-08
1.02088e-06
2.44182e-07
2.8179e-06
4.81838e-07
4.3401e-06
7.43787e-07
5.57509e-06
9.96095e-07
6.52588e-06
1.21258e-06
7.20731e-06
1.3757e-06
7.643e-06
1.47615e-06
7.86206e-06
1.51161e-06
7.89585e-06
1.48522e-06
7.77548e-06
1.40384e-06
7.53007e-06
1.27663e-06
7.18559e-06
1.11383e-06
6.76445e-06
9.25868e-07
6.28538e-06
7.22727e-07
5.76363e-06
5.13576e-07
5.21133e-06
3.0654e-07
4.63792e-06
1.08629e-07
4.05062e-06
-7.42733e-08
3.45482e-06
-2.37351e-07
2.85448e-06
-3.76783e-07
2.25248e-06
-4.89658e-07
1.65088e-06
-5.73889e-07
1.05117e-06
-6.28143e-07
4.5448e-07
-6.51779e-07
-1.38278e-07
-6.44811e-07
-7.26241e-07
-6.07875e-07
-1.30849e-06
-5.42228e-07
-1.88394e-06
-4.4975e-07
-2.45125e-06
-3.32965e-07
-3.00869e-06
-1.95067e-07
-3.55408e-06
-3.99537e-08
-4.08467e-06
1.27738e-07
-4.59698e-06
3.02616e-07
-5.08672e-06
4.78532e-07
-5.54858e-06
6.48625e-07
-5.97606e-06
8.05419e-07
-6.36123e-06
9.41014e-07
-6.69456e-06
1.04739e-06
-6.96462e-06
1.11685e-06
-7.15789e-06
1.14269e-06
-7.25865e-06
1.11999e-06
-7.24891e-06
1.04668e-06
-7.10867e-06
9.24705e-07
-6.81644e-06
7.61205e-07
-6.35029e-06
5.69496e-07
-5.68942e-06
3.69523e-07
-4.81646e-06
1.87403e-07
-3.72012e-06
5.3713e-08
-2.39812e-06
-8.6149e-07
6.09524e-08
9.59924e-07
2.14379e-07
2.66448e-06
4.27533e-07
4.12694e-06
6.68112e-07
5.33451e-06
9.07359e-07
6.28664e-06
1.12208e-06
6.99259e-06
1.29561e-06
7.46947e-06
1.41786e-06
7.73981e-06
1.48463e-06
7.82907e-06
1.49659e-06
7.76353e-06
1.458e-06
7.56865e-06
1.37559e-06
7.268e-06
1.25749e-06
6.88255e-06
1.11243e-06
6.43044e-06
9.49128e-07
5.92693e-06
7.75847e-07
5.38461e-06
6.00128e-07
4.81364e-06
4.28644e-07
4.22211e-06
2.67135e-07
3.61633e-06
1.20403e-07
3.00122e-06
-7.65229e-09
2.38054e-06
-1.13986e-07
1.75722e-06
-1.96349e-07
1.13354e-06
-2.53231e-07
5.11362e-07
-2.83814e-07
-1.07695e-07
-2.87932e-07
-7.22122e-07
-2.66051e-07
-1.33037e-06
-2.19253e-07
-1.93074e-06
-1.49233e-07
-2.52127e-06
-5.83127e-08
-3.09961e-06
5.05518e-08
-3.66295e-06
1.73751e-07
-4.20787e-06
3.07014e-07
-4.73025e-06
4.45414e-07
-5.22512e-06
5.83401e-07
-5.68657e-06
7.14868e-07
-6.10753e-06
8.33288e-07
-6.47965e-06
9.31914e-07
-6.79319e-06
1.00409e-06
-7.03679e-06
1.04368e-06
-7.19748e-06
1.04564e-06
-7.2606e-06
1.00669e-06
-7.20996e-06
9.26173e-07
-7.02815e-06
8.06887e-07
-6.69715e-06
6.55915e-07
-6.19931e-06
4.85202e-07
-5.51871e-06
3.11674e-07
-4.64294e-06
1.56678e-07
-3.56513e-06
4.45477e-08
-2.28599e-06
-8.16942e-07
5.30674e-08
9.06857e-07
1.8813e-07
2.52941e-06
3.78448e-07
3.93663e-06
5.9735e-07
5.11561e-06
8.20545e-07
6.06344e-06
1.02774e-06
6.78539e-06
1.20359e-06
7.29363e-06
1.33792e-06
7.60548e-06
1.42548e-06
7.74151e-06
1.4652e-06
7.72381e-06
1.45934e-06
7.57451e-06
1.41262e-06
7.31472e-06
1.33131e-06
6.96386e-06
1.22254e-06
6.5392e-06
1.09374e-06
6.05573e-06
9.52173e-07
5.52618e-06
8.04657e-07
4.96116e-06
6.57377e-07
4.36939e-06
5.15772e-07
3.75793e-06
3.84489e-07
3.1325e-06
2.6738e-07
2.49765e-06
1.67521e-07
1.85708e-06
8.72495e-08
1.21381e-06
2.81995e-08
5.70412e-07
-8.65785e-09
-7.08379e-08
-2.29855e-08
-7.07794e-07
-1.50559e-08
-1.3383e-06
1.42632e-08
-1.96006e-06
6.3515e-08
-2.57052e-06
1.30655e-07
-3.16675e-06
2.13049e-07
-3.74534e-06
3.07469e-07
-4.30229e-06
4.10105e-07
-4.83288e-06
5.16587e-07
-5.33161e-06
6.22032e-07
-5.79202e-06
7.21133e-07
-6.20663e-06
8.08302e-07
-6.56682e-06
8.77874e-07
-6.86276e-06
9.244e-07
-7.08332e-06
9.43027e-07
-7.21611e-06
9.29987e-07
-7.24756e-06
8.83164e-07
-7.16314e-06
8.02726e-07
-6.94771e-06
6.91764e-07
-6.58619e-06
5.56834e-07
-6.06438e-06
4.08287e-07
-5.37016e-06
2.60221e-07
-4.49487e-06
1.29923e-07
-3.43483e-06
3.67123e-08
-2.19278e-06
-7.8023e-07
4.61209e-08
8.60736e-07
1.64587e-07
2.41095e-06
3.33459e-07
3.76775e-06
5.30683e-07
4.91839e-06
7.35802e-07
5.85832e-06
9.31255e-07
6.58994e-06
1.10321e-06
7.12167e-06
1.2419e-06
7.46678e-06
1.34157e-06
7.64184e-06
1.40003e-06
7.66535e-06
1.41808e-06
7.55646e-06
1.3988e-06
7.33401e-06
1.34687e-06
7.01579e-06
1.26799e-06
6.61808e-06
1.16832e-06
6.15539e-06
1.05414e-06
5.64037e-06
9.31443e-07
5.08385e-06
8.05841e-07
4.49499e-06
6.82352e-07
3.88142e-06
5.65354e-07
3.2495e-06
4.58549e-07
2.60445e-06
3.64959e-07
1.95067e-06
2.86935e-07
1.29183e-06
2.26188e-07
6.31159e-07
1.8381e-07
-2.84598e-08
1.603e-07
-6.84285e-07
1.55586e-07
-1.33359e-06
1.69038e-07
-1.97351e-06
1.99479e-07
-2.60096e-06
2.45191e-07
-3.21246e-06
3.0392e-07
-3.80407e-06
3.72887e-07
-4.37125e-06
4.48804e-07
-4.9088e-06
5.27907e-07
-5.41071e-06
6.06015e-07
-5.87012e-06
6.78621e-07
-6.27923e-06
7.41034e-07
-6.62924e-06
7.88569e-07
-6.91029e-06
8.16808e-07
-7.11156e-06
8.21935e-07
-7.22124e-06
8.0113e-07
-7.22676e-06
7.53034e-07
-7.11504e-06
6.78228e-07
-6.8729e-06
5.79692e-07
-6.48765e-06
4.63174e-07
-5.94787e-06
3.3736e-07
-5.24435e-06
2.13753e-07
-4.37126e-06
1.06179e-07
-3.32725e-06
2.98647e-08
-2.11647e-06
-7.50365e-07
3.98812e-08
8.20855e-07
1.43113e-07
2.30772e-06
2.9168e-07
3.61919e-06
4.67366e-07
4.7427e-06
6.5303e-07
5.67266e-06
8.33624e-07
6.40934e-06
9.96909e-07
6.95839e-06
1.13383e-06
7.32987e-06
1.23854e-06
7.53713e-06
1.30819e-06
7.59569e-06
1.34254e-06
7.52211e-06
1.34339e-06
7.33315e-06
1.31413e-06
7.04506e-06
1.25917e-06
6.67305e-06
1.18352e-06
6.23103e-06
1.09246e-06
5.73143e-06
9.91185e-07
5.18513e-06
8.84635e-07
4.60154e-06
7.77344e-07
3.98871e-06
6.73337e-07
3.3535e-06
5.76084e-07
2.70171e-06
4.88475e-07
2.03828e-06
4.12818e-07
1.36749e-06
3.50848e-07
6.93128e-07
3.03749e-07
1.86398e-08
2.72164e-07
-6.527e-07
2.56218e-07
-1.31764e-06
2.55532e-07
-1.97283e-06
2.69231e-07
-2.61466e-06
2.95957e-07
-3.23919e-06
3.33876e-07
-3.84199e-06
3.80696e-07
-4.41807e-06
4.33685e-07
-4.96179e-06
4.89712e-07
-5.46674e-06
5.453e-07
-5.92571e-06
5.96722e-07
-6.33066e-06
6.40118e-07
-6.67263e-06
6.71674e-07
-6.94185e-06
6.87842e-07
-7.12773e-06
6.85617e-07
-7.21901e-06
6.62859e-07
-7.204e-06
6.18656e-07
-7.07084e-06
5.5369e-07
-6.80794e-06
4.70567e-07
-6.40453e-06
3.74062e-07
-5.85136e-06
2.71206e-07
-5.14149e-06
1.71144e-07
-4.2712e-06
8.47167e-08
-3.24083e-06
2.37534e-08
-2.05551e-06
-7.26612e-07
3.41767e-08
7.86678e-07
1.23224e-07
2.21867e-06
2.52405e-07
3.49e-06
4.06749e-07
4.58836e-06
5.72005e-07
5.5074e-06
7.3543e-07
6.24592e-06
8.86384e-07
6.80743e-06
1.01669e-06
7.19956e-06
1.12072e-06
7.4331e-06
1.19532e-06
7.52109e-06
1.23954e-06
7.4779e-06
1.25423e-06
7.31846e-06
1.24171e-06
7.05758e-06
1.20529e-06
6.70946e-06
1.14897e-06
6.28736e-06
1.07705e-06
5.80335e-06
9.9393e-07
5.26824e-06
9.0388e-07
4.69159e-06
8.10888e-07
4.08171e-06
7.18567e-07
3.44582e-06
6.30091e-07
2.79018e-06
5.48158e-07
2.12021e-06
4.74976e-07
1.44067e-06
4.12264e-07
7.55841e-07
3.61259e-07
6.9645e-08
3.22729e-07
-6.14171e-07
2.96989e-07
-1.2919e-06
2.83908e-07
-1.95975e-06
2.82926e-07
-2.61368e-06
2.93059e-07
-3.24932e-06
3.12917e-07
-3.86185e-06
3.40714e-07
-4.44587e-06
3.7429e-07
-4.99536e-06
4.11151e-07
-5.5036e-06
4.48514e-07
-5.96308e-06
4.83392e-07
-6.36553e-06
5.12692e-07
-6.70193e-06
5.33366e-07
-6.96252e-06
5.42589e-07
-7.13695e-06
5.37982e-07
-7.21441e-06
5.1787e-07
-7.18389e-06
4.81557e-07
-7.03453e-06
4.29602e-07
-6.75598e-06
3.64061e-07
-6.33899e-06
2.88652e-07
-5.77595e-06
2.08797e-07
-5.06164e-06
1.31492e-07
-4.19389e-06
6.49745e-08
-3.17431e-06
1.81898e-08
-2.00872e-06
-7.08422e-07
2.88779e-08
7.578e-07
1.04547e-07
2.143e-06
2.1507e-07
3.37948e-06
3.48275e-07
4.45515e-06
4.9246e-07
5.36322e-06
6.36996e-07
6.10138e-06
7.72811e-07
6.67162e-06
8.92708e-07
7.07967e-06
9.91495e-07
7.33431e-06
1.06596e-06
7.44662e-06
1.11472e-06
7.42914e-06
1.13794e-06
7.29524e-06
1.13708e-06
7.05844e-06
1.11453e-06
6.73201e-06
1.07335e-06
6.32853e-06
1.017e-06
5.8597e-06
9.49089e-07
5.33616e-06
8.73194e-07
4.76748e-06
7.92742e-07
4.16216e-06
7.10894e-07
3.52767e-06
6.30478e-07
2.8706e-06
5.53952e-07
2.19674e-06
4.83376e-07
1.51125e-06
4.20411e-07
8.18806e-07
3.66316e-07
1.2374e-07
3.2196e-07
-5.69815e-07
2.87828e-07
-1.25777e-06
2.64033e-07
-1.93595e-06
2.50327e-07
-2.59997e-06
2.46107e-07
-3.2451e-06
2.50432e-07
-3.86617e-06
2.62028e-07
-4.45747e-06
2.79313e-07
-5.01265e-06
3.00419e-07
-5.5247e-06
3.23241e-07
-5.9859e-06
3.45488e-07
-6.38778e-06
3.64772e-07
-6.72122e-06
3.78719e-07
-6.97647e-06
3.85106e-07
-7.14334e-06
3.82037e-07
-7.21134e-06
3.68133e-07
-7.16999e-06
3.42744e-07
-7.00914e-06
3.06153e-07
-6.71939e-06
2.59754e-07
-6.29259e-06
2.06166e-07
-5.72236e-06
1.49264e-07
-5.00474e-06
9.40713e-08
-4.1387e-06
4.65137e-08
-3.12675e-06
1.30297e-08
-1.97524e-06
-6.95392e-07
2.3884e-08
7.33916e-07
8.67859e-08
2.0801e-06
1.79216e-07
3.28705e-06
2.91463e-07
4.34291e-06
4.1411e-07
5.24057e-06
5.3848e-07
5.97701e-06
6.57025e-07
6.55308e-06
7.63584e-07
6.97311e-06
8.53536e-07
7.24436e-06
9.23808e-07
7.37635e-06
9.72792e-07
7.38016e-06
1.00018e-06
7.26785e-06
1.00675e-06
7.05187e-06
9.94133e-07
6.74463e-06
9.64579e-07
6.35809e-06
9.20739e-07
5.90354e-06
8.65475e-07
5.39142e-06
8.01705e-07
4.83125e-06
7.32273e-07
4.23159e-06
6.5986e-07
3.60008e-06
5.86915e-07
2.94354e-06
5.15613e-07
2.26804e-06
4.47827e-07
1.57903e-06
3.85122e-07
8.81511e-07
3.28748e-07
1.80114e-07
2.79644e-07
-5.2071e-07
2.38447e-07
-1.21657e-06
2.05499e-07
-1.903e-06
1.80855e-07
-2.57533e-06
1.64289e-07
-3.22854e-06
1.55304e-07
-3.85719e-06
1.5314e-07
-4.4553e-06
1.5678e-07
-5.01629e-06
1.64978e-07
-5.5329e-06
1.76276e-07
-5.99719e-06
1.89047e-07
-6.40055e-06
2.01553e-07
-6.73372e-06
2.12021e-07
-6.98694e-06
2.18739e-07
-7.15005e-06
2.20181e-07
-7.21278e-06
2.15147e-07
-7.16495e-06
2.02913e-07
-6.9969e-06
1.83381e-07
-6.69986e-06
1.57213e-07
-6.26642e-06
1.2592e-07
-5.69107e-06
9.18842e-08
-4.9707e-06
5.82956e-08
-4.10511e-06
2.89865e-08
-3.09744e-06
8.16075e-09
-1.95441e-06
-6.87231e-07
1.91146e-08
7.14802e-07
6.97009e-08
2.02951e-06
1.44459e-07
3.21229e-06
2.35894e-07
4.25147e-06
3.3667e-07
5.1398e-06
4.39936e-07
5.87374e-06
5.39614e-07
6.4534e-06
6.30616e-07
6.88211e-06
7.08981e-07
7.166e-06
7.71912e-07
7.31342e-06
8.17746e-07
7.33432e-06
8.45851e-07
7.23974e-06
8.56489e-07
7.04124e-06
8.50643e-07
6.75048e-06
8.29853e-07
6.37888e-06
7.96039e-07
5.93735e-06
7.51362e-07
5.4361e-06
6.98084e-07
4.88453e-06
6.3847e-07
4.2912e-06
5.74703e-07
3.66385e-06
5.08825e-07
3.00942e-06
4.42696e-07
2.33417e-06
3.77969e-07
1.64376e-06
3.16075e-07
9.43404e-07
2.58223e-07
2.37966e-07
2.05397e-07
-4.67884e-07
1.5836e-07
-1.16954e-06
1.17663e-07
-1.86231e-06
8.36502e-08
-2.54132e-06
5.646e-08
-3.20135e-06
3.60312e-08
-3.83676e-06
2.21045e-08
-4.44138e-06
1.42252e-08
-5.00841e-06
1.17477e-08
-5.53042e-06
1.38452e-08
-5.99929e-06
1.95262e-08
-6.40623e-06
2.76619e-08
-6.74186e-06
3.70272e-08
-6.9963e-06
4.63579e-08
-7.15939e-06
5.44251e-08
-7.22085e-06
6.01253e-08
-7.17065e-06
6.25828e-08
-6.99936e-06
6.12561e-08
-6.69853e-06
5.60356e-08
-6.2612e-06
4.73195e-08
-5.68236e-06
3.60482e-08
-4.95943e-06
2.36823e-08
-4.09275e-06
1.21116e-08
-3.08587e-06
3.49314e-09
-1.94579e-06
-6.83738e-07
1.45028e-08
7.00299e-07
5.3089e-08
1.99093e-06
1.1047e-07
3.15491e-06
1.81191e-07
4.18075e-06
2.59855e-07
5.06113e-06
3.41339e-07
5.79226e-06
4.20995e-07
6.37374e-06
4.94822e-07
6.80828e-06
5.59579e-07
7.10124e-06
6.12845e-07
7.26015e-06
6.53015e-07
7.29415e-06
6.79259e-07
7.2135e-06
6.91435e-07
7.02906e-06
6.89984e-07
6.75193e-06
6.75813e-07
6.39305e-06
6.50175e-07
5.96299e-06
6.14563e-07
5.47171e-06
5.70605e-07
4.92849e-06
5.19985e-07
4.34182e-06
4.64379e-07
3.71946e-06
4.05399e-07
3.0684e-06
3.44564e-07
2.395e-06
2.83274e-07
1.70505e-06
2.22799e-07
1.00388e-06
1.64272e-07
2.96493e-07
1.08691e-07
-4.12303e-07
5.6923e-08
-1.11777e-06
9.70397e-09
-1.81509e-06
-3.23546e-08
-2.49926e-06
-6.87655e-08
-3.16494e-06
-9.91679e-08
-3.80636e-06
-1.23331e-07
-4.41721e-06
-1.41162e-07
-4.99058e-06
-1.52716e-07
-5.51887e-06
-1.58202e-07
-5.99381e-06
-1.57997e-07
-6.40644e-06
-1.52642e-07
-6.74721e-06
-1.42843e-07
-7.0061e-06
-1.29454e-07
-7.17277e-06
-1.13448e-07
-7.23685e-06
-9.58746e-08
-7.18823e-06
-7.78045e-08
-7.01743e-06
-6.02584e-08
-6.71608e-06
-4.41359e-08
-6.27732e-06
-3.01467e-08
-5.69634e-06
-1.87578e-08
-4.97082e-06