/*--------------------------------*- C++ -*----------------------------------*\
  =========                 |
  \\      /  F ield         | OpenFOAM: The Open Source CFD Toolbox
   \\    /   O peration     | Website:  https://openfoam.org
    \\  /    A nd           | Version:  7
     \\/     M anipulation  |
\*---------------------------------------------------------------------------*/
FoamFile
{
    version     2.0;
    format      ascii;
    class       surfaceScalarField;
    location    "0.0776";
    object      phi;
}
// * * * * * * * * * * * * * * * * * * * * * * * * * * * * * * * * * * * * * //

dimensions      [0 3 -1 0 0 0 0];

internalField   nonuniform List<scalar> 
4900
(
-5.55535e-06
5.55533e-06
-1.01609e-05
4.60558e-06
-1.29489e-05
2.78794e-06
-1.46696e-05
1.72069e-06
-1.57727e-05
1.10315e-06
-1.65123e-05
7.39628e-07
-1.70338e-05
5.21484e-07
-1.74191e-05
3.85242e-07
-1.77146e-05
2.95591e-07
-1.79481e-05
2.33498e-07
-1.81367e-05
1.88529e-07
-1.82914e-05
1.54718e-07
-1.84199e-05
1.28478e-07
-1.85274e-05
1.07547e-07
-1.86179e-05
9.04375e-08
-1.8694e-05
7.613e-08
-1.87579e-05
6.39054e-08
-1.88111e-05
5.32417e-08
-1.88549e-05
4.37512e-08
-1.889e-05
3.51393e-08
-1.89172e-05
2.71773e-08
-1.89369e-05
1.96837e-08
-1.89494e-05
1.25109e-08
-1.89549e-05
5.53541e-09
-1.89536e-05
-1.35096e-09
-1.89453e-05
-8.24354e-09
-1.89301e-05
-1.52363e-08
-1.89077e-05
-2.24218e-08
-1.88778e-05
-2.98993e-08
-1.884e-05
-3.77806e-08
-1.87938e-05
-4.61979e-08
-1.87385e-05
-5.53139e-08
-1.86731e-05
-6.53358e-08
-1.85966e-05
-7.65341e-08
-1.85073e-05
-8.92716e-08
-1.84033e-05
-1.04045e-07
-1.82817e-05
-1.21549e-07
-1.8139e-05
-1.42787e-07
-1.79697e-05
-1.69244e-07
-1.77665e-05
-2.03203e-07
-1.75182e-05
-2.48317e-07
-1.72075e-05
-3.10677e-07
-1.68066e-05
-4.0087e-07
-1.62687e-05
-5.37946e-07
-1.55123e-05
-7.56399e-07
-1.43964e-05
-1.11593e-06
-1.26814e-05
-1.71497e-06
-9.9458e-06
-2.7356e-06
-5.45242e-06
-4.49339e-06
-5.45242e-06
-1.18952e-08
5.56722e-06
-2.13088e-06
6.72457e-06
-4.85891e-06
5.51596e-06
-7.27758e-06
4.13936e-06
-9.2178e-06
3.04336e-06
-1.07322e-05
2.25404e-06
-1.1914e-05
1.70332e-06
-1.28462e-05
1.31744e-06
-1.35921e-05
1.04147e-06
-1.41976e-05
8.38954e-07
-1.46954e-05
6.86334e-07
-1.5109e-05
5.68337e-07
-1.54554e-05
4.74894e-07
-1.57471e-05
3.99216e-07
-1.59933e-05
3.36611e-07
-1.62009e-05
2.83754e-07
-1.63752e-05
2.38239e-07
-1.65203e-05
1.98285e-07
-1.66391e-05
1.62549e-07
-1.67339e-05
1.29998e-07
-1.68066e-05
9.98212e-08
-1.68583e-05
7.13714e-08
-1.68899e-05
4.41168e-08
-1.69019e-05
1.76098e-08
-1.68947e-05
-8.53898e-09
-1.68683e-05
-3.46841e-08
-1.68224e-05
-6.11624e-08
-1.67565e-05
-8.83127e-08
-1.66699e-05
-1.16495e-07
-1.65616e-05
-1.46111e-07
-1.64301e-05
-1.77634e-07
-1.62738e-05
-2.1164e-07
-1.60903e-05
-2.48852e-07
-1.58766e-05
-2.90205e-07
-1.5629e-05
-3.36931e-07
-1.53423e-05
-3.90687e-07
-1.50101e-05
-4.53742e-07
-1.46236e-05
-5.29263e-07
-1.41711e-05
-6.21759e-07
-1.36365e-05
-7.37787e-07
-1.29978e-05
-8.87076e-07
-1.22241e-05
-1.08433e-06
-1.1273e-05
-1.35199e-06
-1.00866e-05
-1.72434e-06
-8.59109e-06
-2.25193e-06
-6.70633e-06
-3.00069e-06
-4.39268e-06
-4.02862e-06
-1.81825e-06
-5.31002e-06
1.24467e-07
-6.4361e-06
-5.32795e-06
1.03229e-06
4.53494e-06
5.46163e-07
7.21069e-06
-9.94306e-07
7.05643e-06
-2.89175e-06
6.03681e-06
-4.75237e-06
4.90398e-06
-6.41562e-06
3.91729e-06
-7.842e-06
3.1297e-06
-9.04452e-06
2.51996e-06
-1.00535e-05
2.05041e-06
-1.09009e-05
1.6864e-06
-1.16152e-05
1.40063e-06
-1.22196e-05
1.17276e-06
-1.27327e-05
9.87985e-07
-1.3169e-05
8.35543e-07
-1.354e-05
7.07559e-07
-1.38544e-05
5.98214e-07
-1.41194e-05
5.03147e-07
-1.43401e-05
4.19047e-07
-1.45209e-05
3.43363e-07
-1.4665e-05
2.74096e-07
-1.47749e-05
2.09659e-07
-1.48523e-05
1.48767e-07
-1.48985e-05
9.03565e-08
-1.49144e-05
3.35249e-08
-1.49004e-05
-2.25163e-08
-1.48566e-05
-7.84856e-08
-1.47827e-05
-1.35066e-07
-1.46781e-05
-1.9294e-07
-1.45418e-05
-2.52828e-07
-1.43724e-05
-3.15529e-07
-1.4168e-05
-3.81966e-07
-1.39264e-05
-4.53251e-07
-1.36445e-05
-5.30761e-07
-1.33185e-05
-6.16241e-07
-1.29435e-05
-7.11946e-07
-1.25133e-05
-8.20836e-07
-1.20202e-05
-9.46845e-07
-1.14542e-05
-1.09527e-06
-1.08027e-05
-1.2733e-06
-1.00497e-05
-1.49079e-06
-9.17549e-06
-1.76125e-06
-8.1567e-06
-2.10311e-06
-6.96785e-06
-2.54085e-06
-5.58723e-06
-3.10496e-06
-4.01152e-06
-3.82764e-06
-2.28744e-06
-4.72477e-06
-5.72147e-07
-5.74392e-06
7.67201e-07
-6.64937e-06
1.08794e-06
-6.75684e-06
-4.24001e-06
9.05912e-07
3.62902e-06
1.22678e-06
6.88982e-06
6.39303e-07
7.64391e-06
-5.30645e-07
7.20676e-06
-1.95412e-06
6.32746e-06
-3.4128e-06
5.37597e-06
-4.78964e-06
4.50654e-06
-6.03478e-06
3.7651e-06
-7.13557e-06
3.1512e-06
-8.0973e-06
2.64813e-06
-8.93247e-06
2.23579e-06
-9.65543e-06
1.89572e-06
-1.02799e-05
1.61248e-06
-1.08181e-05
1.37373e-06
-1.12803e-05
1.16978e-06
-1.16752e-05
9.93053e-07
-1.20096e-05
8.37628e-07
-1.22894e-05
6.98849e-07
-1.25191e-05
5.73026e-07
-1.27022e-05
4.57207e-07
-1.28416e-05
3.49003e-07
-1.29392e-05
2.46448e-07
-1.29968e-05
1.47897e-07
-1.30152e-05
5.19432e-08
-1.29951e-05
-4.26505e-08
-1.29365e-05
-1.37012e-07
-1.28394e-05
-2.32212e-07
-1.2703e-05
-3.29313e-07
-1.25264e-05
-4.29425e-07
-1.23082e-05
-5.33763e-07
-1.20464e-05
-6.43709e-07
-1.17388e-05
-7.60897e-07
-1.13822e-05
-8.87312e-07
-1.09731e-05
-1.02541e-06
-1.05067e-05
-1.17829e-06
-9.97768e-06
-1.34989e-06
-9.37927e-06
-1.54526e-06
-8.70365e-06
-1.77089e-06
-7.94183e-06
-2.03511e-06
-7.0841e-06
-2.34852e-06
-6.12109e-06
-2.72427e-06
-5.04625e-06
-3.17795e-06
-3.86097e-06
-3.72613e-06
-2.58408e-06
-4.38185e-06
-1.26864e-06
-5.14307e-06
-2.69574e-08
-5.96645e-06
9.42867e-07
-6.71374e-06
1.3496e-06
-7.05611e-06
9.17159e-07
-6.3244e-06
-3.32285e-06
6.71099e-07
2.95792e-06
1.241e-06
6.31992e-06
1.21762e-06
7.66729e-06
6.4176e-07
7.78262e-06
-2.99041e-07
7.26826e-06
-1.42236e-06
6.49929e-06
-2.59573e-06
5.67992e-06
-3.73775e-06
4.90712e-06
-4.80484e-06
4.21828e-06
-5.77758e-06
3.62087e-06
-6.65062e-06
3.10884e-06
-7.42608e-06
2.67118e-06
-8.10959e-06
2.29598e-06
-8.70806e-06
1.9722e-06
-9.2285e-06
1.69021e-06
-9.67741e-06
1.44196e-06
-1.00606e-05
1.22077e-06
-1.03829e-05
1.02117e-06
-1.06485e-05
8.38653e-07
-1.08608e-05
6.69528e-07
-1.10225e-05
5.10728e-07
-1.11358e-05
3.59686e-07
-1.12021e-05
2.14224e-07
-1.12226e-05
7.24581e-08
-1.1198e-05
-6.72792e-08
-1.11285e-05
-2.06509e-07
-1.1014e-05
-3.46672e-07
-1.08542e-05
-4.89187e-07
-1.06481e-05
-6.35515e-07
-1.03946e-05
-7.8723e-07
-1.00922e-05
-9.46088e-07
-9.73901e-06
-1.11412e-06
-9.33259e-06
-1.29373e-06
-8.87019e-06
-1.48781e-06
-8.34858e-06
-1.6999e-06
-7.76415e-06
-1.93432e-06
-7.11305e-06
-2.19636e-06
-6.39148e-06
-2.49245e-06
-5.59639e-06
-2.83021e-06
-4.72655e-06
-3.21836e-06
-3.78469e-06
-3.66613e-06
-2.78091e-06
-4.18172e-06
-1.73834e-06
-4.76871e-06
-7.01345e-07
-5.41884e-06
2.53631e-07
-6.09805e-06
1.0086e-06
-6.72143e-06
1.4072e-06
-7.11234e-06
1.29712e-06
-6.94602e-06
6.66615e-07
-5.69389e-06
-2.65624e-06
4.79562e-07
2.47836e-06
1.07284e-06
5.72664e-06
1.33399e-06
7.40615e-06
1.16261e-06
7.95399e-06
6.26433e-07
7.80443e-06
-1.55855e-07
7.28157e-06
-1.07214e-06
6.59621e-06
-2.03697e-06
5.87195e-06
-2.99268e-06
5.17399e-06
-3.90389e-06
4.53209e-06
-4.75103e-06
3.95597e-06
-5.52477e-06
3.44492e-06
-6.22212e-06
2.99333e-06
-6.84368e-06
2.59376e-06
-7.39197e-06
2.23851e-06
-7.87035e-06
1.92034e-06
-8.28238e-06
1.63281e-06
-8.63152e-06
1.37031e-06
-8.92089e-06
1.12802e-06
-9.15319e-06
9.01833e-07
-9.33073e-06
6.88262e-07
-9.45535e-06
4.84307e-07
-9.5285e-06
2.87382e-07
-9.55127e-06
9.52236e-08
-9.52436e-06
-9.41868e-08
-9.44818e-06
-2.82695e-07
-9.32281e-06
-4.7204e-07
-9.14808e-06
-6.63919e-07
-8.92354e-06
-8.60057e-07
-8.6485e-06
-1.06227e-06
-8.32205e-06
-1.27253e-06
-7.94309e-06
-1.49308e-06
-7.51036e-06
-1.72646e-06
-7.02253e-06
-1.97565e-06
-6.4783e-06
-2.24412e-06
-5.87669e-06
-2.53593e-06
-5.21733e-06
-2.85573e-06
-4.50109e-06
-3.20869e-06
-3.73104e-06
-3.60026e-06
-2.91391e-06
-4.03548e-06
-2.06233e-06
-4.51771e-06
-1.198e-06
-5.04605e-06
-3.55904e-07
-5.6108e-06
4.10909e-07
-6.18565e-06
1.02778e-06
-6.71492e-06
1.40093e-06
-7.09458e-06
1.43613e-06
-7.14754e-06
1.08924e-06
-6.59914e-06
4.69625e-07
-5.07428e-06
-2.18661e-06
3.47071e-07
2.13129e-06
8.87016e-07
5.1867e-06
1.26868e-06
7.02448e-06
1.34475e-06
7.87793e-06
1.10765e-06
8.04153e-06
6.17522e-07
7.7717e-06
-4.63065e-08
7.26004e-06
-8.10345e-07
6.63598e-06
-1.61638e-06
5.98002e-06
-2.42239e-06
5.3381e-06
-3.20017e-06
4.73375e-06
-3.93196e-06
4.17672e-06
-4.60746e-06
3.66883e-06
-5.22133e-06
3.20763e-06
-5.77144e-06
2.78862e-06
-6.25762e-06
2.40652e-06
-6.68081e-06
2.056e-06
-7.04251e-06
1.732e-06
-7.34442e-06
1.42993e-06
-7.58827e-06
1.14569e-06
-7.77565e-06
8.75641e-07
-7.90796e-06
6.16611e-07
-7.98636e-06
3.65785e-07
-8.0118e-06
1.20667e-07
-7.985e-06
-1.20988e-07
-7.90646e-06
-3.61237e-07
-7.77649e-06
-6.02011e-07
-7.59524e-06
-8.4517e-07
-7.36272e-06
-1.09257e-06
-7.07887e-06
-1.34612e-06
-6.74357e-06
-1.60784e-06
-6.35673e-06
-1.87991e-06
-5.91842e-06
-2.16477e-06
-5.42899e-06
-2.46508e-06
-4.8893e-06
-2.78381e-06
-4.30108e-06
-3.12416e-06
-3.66737e-06
-3.48943e-06
-2.99329e-06
-3.88277e-06
-2.28699e-06
-4.30656e-06
-1.56108e-06
-4.76139e-06
-8.34431e-07
-5.24436e-06
-1.3437e-07
-5.74611e-06
5.01098e-07
-6.24627e-06
1.02199e-06
-6.70654e-06
1.36805e-06
-7.06098e-06
1.47741e-06
-7.20394e-06
1.30817e-06
-6.9783e-06
8.79721e-07
-6.17069e-06
3.35302e-07
-4.52986e-06
-1.85131e-06
2.59615e-07
1.87168e-06
7.28682e-07
4.71763e-06
1.14488e-06
6.60828e-06
1.36013e-06
7.66267e-06
1.32815e-06
8.07351e-06
1.06656e-06
8.0333e-06
6.23037e-07
7.70356e-06
5.28477e-08
7.20617e-06
-5.93168e-07
6.62604e-06
-1.27347e-06
6.0184e-06
-1.95655e-06
5.41683e-06
-2.61982e-06
4.83998e-06
-3.24782e-06
4.29683e-06
-3.83048e-06
3.7903e-06
-4.36161e-06
3.31975e-06
-4.83768e-06
2.88259e-06
-5.25696e-06
2.47528e-06
-5.61887e-06
2.09391e-06
-5.92352e-06
1.73459e-06
-6.17146e-06
1.39362e-06
-6.3634e-06
1.06758e-06
-6.50014e-06
7.53347e-07
-6.58245e-06
4.48098e-07
-6.61107e-06
1.49284e-07
-6.58664e-06
-1.45413e-07
-6.50976e-06
-4.38121e-07
-6.38094e-06
-7.30826e-07
-6.20069e-06
-1.02542e-06
-5.96953e-06
-1.32374e-06
-5.68803e-06
-1.62762e-06
-5.35694e-06
-1.93893e-06
-4.97725e-06
-2.2596e-06
-4.55037e-06
-2.59165e-06
-4.0783e-06
-2.93715e-06
-3.56393e-06
-3.29818e-06
-3.0114e-06
-3.67669e-06
-2.42661e-06
-4.07422e-06
-1.81792e-06
-4.49146e-06
-1.19697e-06
-4.9275e-06
-5.79787e-07
-5.37858e-06
1.20892e-08
-5.83624e-06
5.50517e-07
-6.28454e-06
1.00032e-06
-6.69607e-06
1.32043e-06
-7.02665e-06
1.46836e-06
-7.20891e-06
1.41034e-06
-7.14592e-06
1.13993e-06
-6.70789e-06
7.06255e-07
-5.73702e-06
2.46826e-07
-4.07043e-06
-1.60448e-06
2.01259e-07
1.67042e-06
6.03281e-07
4.3156e-06
1.01286e-06
6.19871e-06
1.29904e-06
7.37649e-06
1.40023e-06
7.97231e-06
1.30741e-06
8.12612e-06
1.04315e-06
7.96782e-06
6.44483e-07
7.60484e-06
1.51449e-07
7.11907e-06
-3.99168e-07
6.56902e-06
-9.76568e-07
5.99423e-06
-1.55648e-06
5.41989e-06
-2.12063e-06
4.86098e-06
-2.65575e-06
4.32542e-06
-3.15252e-06
3.81652e-06
-3.60463e-06
3.3347e-06
-4.00795e-06
2.8786e-06
-4.35993e-06
2.44589e-06
-4.65911e-06
2.03377e-06
-4.9048e-06
1.6393e-06
-5.09676e-06
1.25955e-06
-5.23512e-06
8.91703e-07
-5.32018e-06
5.33161e-07
-5.3524e-06
1.81502e-07
-5.33231e-06
-1.65497e-07
-5.26055e-06
-5.09886e-07
-5.13781e-06
-8.5356e-07
-4.96494e-06
-1.19829e-06
-4.74291e-06
-1.54576e-06
-4.47295e-06
-1.89757e-06
-4.15662e-06
-2.25526e-06
-3.7959e-06
-2.62032e-06
-3.39341e-06
-2.99413e-06
-2.95261e-06
-3.37795e-06
-2.47805e-06
-3.77274e-06
-1.97577e-06
-4.17897e-06
-1.45373e-06
-4.59626e-06
-9.22361e-07
-5.02284e-06
-3.95174e-07
-5.45469e-06
1.10574e-07
-5.88433e-06
5.73386e-07
-6.29905e-06
9.6741e-07
-6.67856e-06
1.26322e-06
-6.99188e-06
1.43031e-06
-7.19374e-06
1.44229e-06
-7.22089e-06
1.28612e-06
-6.98975e-06
9.7596e-07
-6.39773e-06
5.7045e-07
-5.33151e-06
1.87594e-07
-3.68757e-06
-1.41689e-06
1.61029e-07
1.50939e-06
5.05663e-07
3.97097e-06
8.90863e-07
5.81351e-06
1.20703e-06
7.06033e-06
1.39025e-06
7.78909e-06
1.41687e-06
8.09951e-06
1.29178e-06
8.09291e-06
1.03657e-06
7.86005e-06
6.80187e-07
7.47545e-06
2.52674e-07
6.99653e-06
-2.18356e-07
6.46526e-06
-7.0933e-07
5.91087e-06
-1.20112e-06
5.35276e-06
-1.67876e-06
4.80306e-06
-2.13092e-06
4.26868e-06
-2.54921e-06
3.75299e-06
-2.92759e-06
3.25698e-06
-3.26182e-06
2.78012e-06
-3.54901e-06
2.32097e-06
-3.78729e-06
1.87759e-06
-3.97553e-06
1.44779e-06
-4.11314e-06
1.02931e-06
-4.19993e-06
6.19951e-07
-4.23604e-06
2.17607e-07
-4.22184e-06
-1.79691e-07
-4.15797e-06
-5.73763e-07
-4.04525e-06
-9.66274e-07
-3.8848e-06
-1.35874e-06
-3.67801e-06
-1.75255e-06
-3.42666e-06
-2.14892e-06
-3.13299e-06
-2.54894e-06
-2.79984e-06
-2.95347e-06
-2.43081e-06
-3.36317e-06
-2.03047e-06
-3.77829e-06
-1.60462e-06
-4.19859e-06
-1.16057e-06
-4.62302e-06
-7.07504e-07
-5.04932e-06
-2.56858e-07
-5.47348e-06
1.77338e-07
-5.88889e-06
5.78205e-07
-6.28519e-06
9.26031e-07
-6.64688e-06
1.19881e-06
-6.95135e-06
1.37373e-06
-7.1668e-06
1.43003e-06
-7.25003e-06
1.35394e-06
-7.1448e-06
1.14603e-06
-6.78184e-06
8.30589e-07
-6.08229e-06
4.65299e-07
-4.96622e-06
1.4657e-07
-3.36884e-06
-1.27032e-06
1.32196e-07
1.37719e-06
4.2926e-07
3.67391e-06
7.8379e-07
5.45898e-06
1.10619e-06
6.73793e-06
1.33651e-06
7.55876e-06
1.44444e-06
7.99158e-06
1.42351e-06
8.11384e-06
1.28354e-06
8.00002e-06
1.04361e-06
7.71538e-06
7.26683e-07
7.31346e-06
3.55971e-07
6.83597e-06
-4.71625e-08
6.314e-06
-4.64203e-07
5.7698e-06
-8.79781e-07
5.21864e-06
-1.28154e-06
4.67044e-06
-1.6598e-06
4.13125e-06
-2.00715e-06
3.60433e-06
-2.31804e-06
3.09101e-06
-2.5884e-06
2.59133e-06
-2.81535e-06
2.10454e-06
-2.99691e-06
1.62935e-06
-3.13184e-06
1.16424e-06
-3.21946e-06
7.07572e-07
-3.25957e-06
2.57717e-07
-3.25237e-06
-1.86896e-07
-3.19841e-06
-6.27718e-07
-3.09863e-06
-1.06606e-06
-2.95431e-06
-1.50306e-06
-2.76718e-06
-1.93969e-06
-2.53942e-06
-2.37668e-06
-2.27383e-06
-2.81453e-06
-1.97387e-06
-3.25344e-06
-1.64385e-06
-3.69318e-06
-1.28912e-06
-4.13302e-06
-9.16227e-07
-4.57148e-06
-5.33189e-07
-5.00606e-06
-1.49688e-07
-5.43282e-06
2.22713e-07
-5.84589e-06
5.70457e-07
-6.23663e-06
8.78051e-07
-6.59279e-06
1.12845e-06
-6.89728e-06
1.30397e-06
-7.12686e-06
1.38797e-06
-7.25081e-06
1.36771e-06
-7.22977e-06
1.23839e-06
-7.01548e-06
1.00858e-06
-6.55203e-06
7.0617e-07
-5.77988e-06
3.83307e-07
-4.64336e-06
1.17064e-07
-3.1026e-06
-1.15326e-06
1.10716e-07
1.26648e-06
3.68527e-07
3.4161e-06
6.9137e-07
5.13614e-06
1.00658e-06
6.42271e-06
1.26067e-06
7.30468e-06
1.42148e-06
7.83076e-06
1.47594e-06
8.05938e-06
1.42552e-06
8.05045e-06
1.28131e-06
7.85959e-06
1.05976e-06
7.53501e-06
7.79376e-07
7.11635e-06
4.5853e-07
6.63485e-06
1.14153e-07
6.11418e-06
-2.38923e-07
5.57171e-06
-5.88171e-07
5.01969e-06
-9.23315e-07
4.46639e-06
-1.23612e-06
3.91713e-06
-1.52013e-06
3.37502e-06
-1.7704e-06
2.8416e-06
-1.98322e-06
2.31736e-06
-2.15591e-06
1.80205e-06
-2.28667e-06
1.29499e-06
-2.37434e-06
7.95245e-07
-2.4184e-06
3.0178e-07
-2.41884e-06
-1.86454e-07
-2.37613e-06
-6.70429e-07
-2.2912e-06
-1.15099e-06
-2.16546e-06
-1.62881e-06
-2.00082e-06
-2.10433e-06
-1.79977e-06
-2.57773e-06
-1.56544e-06
-3.04886e-06
-1.30171e-06
-3.51716e-06
-1.01333e-06
-3.98156e-06
-7.0606e-07
-4.4403e-06
-3.86797e-07
-4.89074e-06
-6.37429e-08
-5.32911e-06
2.53492e-07
-5.75006e-06
5.53839e-07
-6.14623e-06
8.24834e-07
-6.50763e-06
1.0529e-06
-6.82085e-06
1.22391e-06
-7.06829e-06
1.32429e-06
-7.22724e-06
1.34266e-06
-7.26917e-06
1.27226e-06
-7.15937e-06
1.11419e-06
-6.8574e-06
8.81099e-07
-6.31894e-06
6.00808e-07
-5.49959e-06
3.18415e-07
-4.36096e-06
9.50562e-08
-2.87924e-06
-1.0582e-06
9.41299e-08
1.17235e-06
3.19286e-07
3.19094e-06
6.1165e-07
4.84377e-06
9.1229e-07
6.12207e-06
1.17469e-06
7.04228e-06
1.36761e-06
7.63784e-06
1.4746e-06
7.95239e-06
1.49161e-06
8.03344e-06
1.42367e-06
7.92752e-06
1.28171e-06
7.67698e-06
1.07976e-06
7.3183e-06
8.32979e-07
6.88163e-06
5.56175e-07
6.39099e-06
2.63011e-07
5.86488e-06
-3.44553e-08
5.31715e-06
-3.25924e-07
4.75786e-06
-6.02824e-07
4.19403e-06
-8.58191e-07
3.63038e-06
-1.08649e-06
3.0699e-06
-1.28343e-06
2.5143e-06
-1.4458e-06
1.96441e-06
-1.57127e-06
1.42047e-06
-1.65834e-06
8.82316e-07
-1.70617e-06
3.49603e-07
-1.71451e-06
-1.78107e-07
-1.68372e-06
-7.01219e-07
-1.61468e-06
-1.22003e-06
-1.50882e-06
-1.73467e-06
-1.36814e-06
-2.245e-06
-1.19528e-06
-2.75059e-06
-9.93533e-07
-3.2506e-06
-7.66983e-07
-3.74371e-06
-5.20544e-07
-4.228e-06
-2.60084e-07
-4.70076e-06
7.49737e-09
-5.15833e-06
2.74199e-07
-5.59581e-06
5.30899e-07
-6.00676e-06
7.67415e-07
-6.38275e-06
9.72706e-07
-6.71292e-06
1.13526e-06
-6.9834e-06
1.24378e-06
-7.17681e-06
1.28824e-06
-7.2717e-06
1.26137e-06
-7.2423e-06
1.16064e-06
-7.05864e-06
9.90667e-07
-6.68743e-06
7.65666e-07
-6.09394e-06
5.11459e-07
-5.24538e-06
2.66123e-07
-4.11563e-06
7.80935e-08
-2.69121e-06
-9.80106e-07
8.09041e-08
1.09144e-06
2.78505e-07
2.99334e-06
5.42369e-07
4.57991e-06
8.24513e-07
5.83993e-06
1.08506e-06
6.78173e-06
1.29502e-06
7.42789e-06
1.43673e-06
7.81068e-06
1.50274e-06
7.96743e-06
1.49374e-06
7.93653e-06
1.41622e-06
7.7545e-06
1.28031e-06
7.4542e-06
1.09803e-06
7.06392e-06
8.81879e-07
6.60713e-06
6.43992e-07
6.10276e-06
3.95521e-07
5.56562e-06
1.46353e-07
5.00703e-06
-9.50068e-08
4.43539e-06
-3.21428e-07
3.8568e-06
-5.27074e-07
3.27554e-06
-7.0729e-07
2.69451e-06
-8.58474e-07
2.11559e-06
-9.77955e-07
1.53995e-06
-1.06389e-06
9.68249e-07
-1.11516e-06
4.00878e-07
-1.13134e-06
-1.61929e-07
-1.1126e-06
-7.19958e-07
-1.05973e-06
-1.27291e-06
-9.74104e-07
-1.8203e-06
-8.57714e-07
-2.36139e-06
-7.13195e-07
-2.89511e-06
-5.43869e-07
-3.41993e-06
-3.53803e-07
-3.93378e-06
-1.47867e-07
-4.43393e-06
6.8212e-08
-4.91683e-06
2.8781e-07
-5.37792e-06
5.03403e-07
-5.8114e-06
7.06617e-07
-6.20997e-06
8.88372e-07
-6.5645e-06
1.03915e-06
-6.86369e-06
1.14945e-06
-7.0937e-06
1.21046e-06
-7.23783e-06
1.21504e-06
-7.27628e-06
1.15897e-06
-7.18623e-06
1.04252e-06
-6.94219e-06
8.72114e-07
-6.51703e-06
6.61973e-07
-5.8838e-06
4.35098e-07
-5.01851e-06
2.23171e-07
-3.9037e-06
6.46302e-08
-2.53267e-06
-9.15476e-07
7.00505e-08
1.02139e-06
2.44007e-07
2.81938e-06
4.81459e-07
4.34246e-06
7.43137e-07
5.57825e-06
9.95113e-07
6.52975e-06
1.21122e-06
7.21178e-06
1.37391e-06
7.64799e-06
1.47388e-06
7.86746e-06
1.50885e-06
7.90156e-06
1.48194e-06
7.78141e-06
1.40003e-06
7.53611e-06
1.27229e-06
7.19166e-06
1.10896e-06
6.77046e-06
9.20483e-07
6.29124e-06
7.16845e-07
5.76926e-06
5.07222e-07
5.21665e-06
2.99748e-07
4.64287e-06
1.01436e-07
4.05512e-06
-8.18231e-08
3.4588e-06
-2.4521e-07
2.8579e-06
-3.849e-07
2.25528e-06
-4.97979e-07
1.65303e-06
-5.82357e-07
1.05263e-06
-6.367e-07
4.55221e-07
-6.60367e-07
-1.38263e-07
-6.53369e-07
-7.26956e-07
-6.16346e-07
-1.30993e-06
-5.50556e-07
-1.88609e-06
-4.57879e-07
-2.45407e-06
-3.40842e-07
-3.01215e-06
-2.02643e-07
-3.55813e-06
-4.71842e-08
-4.08924e-06
1.20894e-07
-4.60201e-06
2.96196e-07
-5.09214e-06
4.72566e-07
-5.55429e-06
6.43139e-07
-5.98198e-06
8.00432e-07
-6.36727e-06
9.3654e-07
-6.70061e-06
1.04343e-06
-6.97059e-06
1.11342e-06
-7.16369e-06
1.13976e-06
-7.26418e-06
1.11756e-06
-7.25408e-06
1.04473e-06
-7.1134e-06
9.23202e-07
-6.82066e-06
7.60108e-07
-6.35393e-06
5.68758e-07
-5.69245e-06
3.69085e-07
-4.81884e-06
1.87197e-07
-3.72181e-06
5.36573e-08
-2.39913e-06
-8.61819e-07
6.09098e-08
9.60484e-07
2.14216e-07
2.66608e-06
4.27181e-07
4.12949e-06
6.67505e-07
5.33793e-06
9.06442e-07
6.29081e-06
1.1208e-06
6.99742e-06
1.29393e-06
7.47486e-06
1.41573e-06
7.74565e-06
1.48204e-06
7.83525e-06
1.49351e-06
7.76994e-06
1.45442e-06
7.5752e-06
1.3715e-06
7.27458e-06
1.25289e-06
6.88907e-06
1.10734e-06
6.43679e-06
9.43563e-07
5.93304e-06
7.69829e-07
5.39039e-06
5.93687e-07
4.81901e-06
4.21816e-07
4.22699e-06
2.59961e-07
3.62066e-06
1.12928e-07
3.00493e-06
-1.53796e-08
2.38359e-06
-1.21915e-07
1.75956e-06
-2.04426e-07
1.13514e-06
-2.614e-07
5.12196e-07
-2.9202e-07
-1.07643e-07
-2.96119e-07
-7.22856e-07
-2.74165e-07
-1.33188e-06
-2.27237e-07
-1.93301e-06
-1.57037e-07
-2.52427e-06
-6.58846e-08
-3.1033e-06
4.32586e-08
-3.66727e-06
1.6678e-07
-4.21276e-06
3.00406e-07
-4.73564e-06
4.39204e-07
-5.23093e-06
5.7762e-07
-5.69271e-06
7.09543e-07
-6.1139e-06
8.28438e-07
-6.48616e-06
9.27554e-07
-6.79973e-06
1.00023e-06
-7.04326e-06
1.04032e-06
-7.20378e-06
1.04277e-06
-7.26663e-06
1.00431e-06
-7.21561e-06
9.24255e-07
-7.03334e-06
8.05404e-07
-6.70181e-06
6.54831e-07
-6.20336e-06
4.84471e-07
-5.52209e-06
3.1124e-07
-4.6456e-06
1.56474e-07
-3.56705e-06
4.44924e-08
-2.28715e-06
-8.17326e-07
5.30286e-08
9.07455e-07
1.87982e-07
2.53112e-06
3.78126e-07
3.93935e-06
5.96796e-07
5.11926e-06
8.19706e-07
6.0679e-06
1.02657e-06
6.79056e-06
1.20205e-06
7.29939e-06
1.33598e-06
7.61172e-06
1.4231e-06
7.74813e-06
1.46236e-06
7.73068e-06
1.45604e-06
7.58152e-06
1.40884e-06
7.32178e-06
1.32706e-06
6.97085e-06
1.21783e-06
6.54602e-06
1.08858e-06
6.06229e-06
9.46579e-07
5.53238e-06
7.98663e-07
4.96692e-06
6.51016e-07
4.37463e-06
5.09081e-07
3.76259e-06
3.7751e-07
3.1365e-06
2.60157e-07
2.50095e-06
1.60102e-07
1.85962e-06
7.96836e-08
1.21556e-06
2.05385e-08
5.71341e-07
-1.6362e-08
-7.07428e-08
-3.06804e-08
-7.08538e-07
-2.26897e-08
-1.33987e-06
6.74134e-09
-1.96245e-06
5.61545e-08
-2.57368e-06
1.23503e-07
-3.17065e-06
2.0615e-07
-3.74992e-06
3.00865e-07
-4.30748e-06
4.03836e-07
-4.83861e-06
5.10686e-07
-5.33778e-06
6.16529e-07
-5.79855e-06
7.16054e-07
-6.21342e-06
8.03668e-07
-6.57378e-06
8.73701e-07
-6.86976e-06
9.20696e-07
-7.09026e-06
9.39798e-07
-7.22288e-06
9.27229e-07
-7.25406e-06
8.80866e-07
-7.16925e-06
8.00873e-07
-6.95335e-06
6.90329e-07
-6.59126e-06
5.55784e-07
-6.06882e-06
4.07578e-07
-5.37388e-06
2.59799e-07
-4.49782e-06
1.29724e-07
-3.43697e-06
3.66585e-08
-2.19408e-06
-7.80668e-07
4.60866e-08
8.61368e-07
1.64456e-07
2.41275e-06
3.33174e-07
3.77063e-06
5.3019e-07
4.92224e-06
7.35055e-07
5.86304e-06
9.3021e-07
6.5954e-06
1.10183e-06
7.12777e-06
1.24015e-06
7.4734e-06
1.33943e-06
7.64885e-06
1.39748e-06
7.67263e-06
1.4151e-06
7.5639e-06
1.39538e-06
7.3415e-06
1.34302e-06
7.02321e-06
1.26371e-06
6.62533e-06
1.16363e-06
6.16236e-06
1.04905e-06
5.64697e-06
9.25984e-07
5.08999e-06
8.00039e-07
4.50058e-06
6.7624e-07
3.88639e-06
5.58971e-07
3.25377e-06
4.51935e-07
2.60798e-06
3.58157e-07
1.9534e-06
2.7999e-07
1.29372e-06
2.19147e-07
6.32184e-07
1.76721e-07
-2.83167e-08
1.53212e-07
-6.85028e-07
1.48545e-07
-1.33521e-06
1.62091e-07
-1.97599e-06
1.92672e-07
-2.60426e-06
2.38567e-07
-3.21654e-06
2.97522e-07
-3.80887e-06
3.66753e-07
-4.37671e-06
4.42971e-07
-4.91483e-06
5.22407e-07
-5.41722e-06
6.00877e-07
-5.87702e-06
6.73871e-07
-6.28642e-06
7.36693e-07
-6.6366e-06
7.84652e-07
-6.91772e-06
8.13326e-07
-7.11893e-06
8.18892e-07
-7.22845e-06
7.98527e-07
-7.23369e-06
7.50862e-07
-7.12159e-06
6.76472e-07
-6.87896e-06
5.78331e-07
-6.49312e-06
4.62177e-07
-5.95266e-06
3.36686e-07
-5.24839e-06
2.13352e-07
-4.37449e-06
1.0599e-07
-3.32961e-06
2.98135e-08
-2.11791e-06
-7.50854e-07
3.98519e-08
8.21516e-07
1.43e-07
2.3096e-06
2.91435e-07
3.6222e-06
4.66941e-07
4.74673e-06
6.52384e-07
5.6776e-06
8.32719e-07
6.41507e-06
9.95711e-07
6.96478e-06
1.13231e-06
7.3368e-06
1.23667e-06
7.54449e-06
1.30596e-06
7.60334e-06
1.33993e-06
7.52994e-06
1.34039e-06
7.34103e-06
1.31074e-06
7.05286e-06
1.25539e-06
6.68068e-06
1.17938e-06
6.23838e-06
1.08796e-06
5.73839e-06
9.8634e-07
5.1916e-06
8.79477e-07
4.60744e-06
7.71901e-07
3.99397e-06
6.67644e-07
3.35803e-06
5.70176e-07
2.70545e-06
4.8239e-07
2.04118e-06
4.06596e-07
1.36952e-06
3.44532e-07
6.94248e-07
2.97381e-07
1.88351e-08
2.65786e-07
-6.53434e-07
2.49874e-07
-1.3193e-06
2.49264e-07
-1.97538e-06
2.6308e-07
-2.61808e-06
2.89962e-07
-3.24343e-06
3.28076e-07
-3.84699e-06
3.75126e-07
-4.42376e-06
4.28379e-07
-4.96808e-06
4.847e-07
-5.47354e-06
5.4061e-07
-5.93293e-06
5.92377e-07
-6.33819e-06
6.36139e-07
-6.68036e-06
6.68077e-07
-6.94966e-06
6.84639e-07
-7.13549e-06
6.82812e-07
-7.22662e-06
6.60455e-07
-7.21133e-06
6.16647e-07
-7.07778e-06
5.52064e-07
-6.81438e-06
4.69304e-07
-6.41036e-06
3.73135e-07
-5.85649e-06
2.70579e-07
-5.14584e-06
1.7077e-07
-4.27468e-06
8.45402e-08
-3.24338e-06
2.37056e-08
-2.05707e-06
-7.27148e-07
3.41529e-08
7.87363e-07
1.23132e-07
2.22063e-06
2.52204e-07
3.49313e-06
4.064e-07
4.59254e-06
5.71472e-07
5.51252e-06
7.34679e-07
6.25186e-06
8.85386e-07
6.81407e-06
1.01541e-06
7.20677e-06
1.11915e-06
7.44075e-06
1.19344e-06
7.52905e-06
1.23733e-06
7.48605e-06
1.25169e-06
7.32667e-06
1.23883e-06
7.06573e-06
1.20208e-06
6.71743e-06
1.14542e-06
6.29504e-06
1.07319e-06
5.81063e-06
9.89768e-07
5.27502e-06
8.99439e-07
4.69777e-06
8.06192e-07
4.08721e-06
7.13646e-07
3.45058e-06
6.24974e-07
2.79412e-06
5.42878e-07
2.12328e-06
4.69568e-07
1.44283e-06
4.06764e-07
7.57052e-07
3.55704e-07
6.98952e-08
3.17157e-07
-6.14887e-07
2.91436e-07
-1.29358e-06
2.78412e-07
-1.96236e-06
2.77522e-07
-2.61719e-06
2.87784e-07
-3.25369e-06
3.07803e-07
-3.867e-06
3.35793e-07
-4.45175e-06
3.69593e-07
-5.00188e-06
4.06705e-07
-5.51065e-06
4.44345e-07
-5.97057e-06
4.79521e-07
-6.37336e-06
5.0914e-07
-6.70998e-06
5.30148e-07
-6.97066e-06
5.39716e-07
-7.14506e-06
5.35462e-07
-7.22237e-06
5.15705e-07
-7.19158e-06
4.79744e-07
-7.04182e-06
4.28132e-07
-6.76276e-06
3.62917e-07
-6.34515e-06
2.87811e-07
-5.78139e-06
2.08227e-07
-5.06625e-06
1.31152e-07
-4.19761e-06
6.48139e-08
-3.17704e-06
1.81463e-08
-2.01041e-06
-7.09002e-07
2.88598e-08
7.58504e-07
1.04477e-07
2.14501e-06
2.14916e-07
3.38269e-06
3.48006e-07
4.45945e-06
4.92046e-07
5.36848e-06
6.3641e-07
6.1075e-06
7.72028e-07
6.67846e-06
8.91704e-07
7.0871e-06
9.90251e-07
7.34221e-06
1.06446e-06
7.45484e-06
1.11295e-06
7.43756e-06
1.13589e-06
7.30372e-06
1.13474e-06
7.06687e-06
1.11191e-06
6.74026e-06
1.07046e-06
6.33649e-06
1.01384e-06
5.86724e-06
9.45671e-07
5.34319e-06
8.69535e-07
4.77391e-06
7.88862e-07
4.16789e-06
7.06815e-07
3.53263e-06
6.26226e-07
2.87471e-06
5.49553e-07
2.19995e-06
4.7886e-07
1.51352e-06
4.15807e-07
8.20105e-07
3.61656e-07
1.24046e-07
3.17275e-07
-5.70505e-07
2.83149e-07
-1.25945e-06
2.59391e-07
-1.9386e-06
2.45752e-07
-2.60355e-06
2.41631e-07
-3.24956e-06
2.46082e-07
-3.87146e-06
2.57832e-07
-4.4635e-06
2.75297e-07
-5.01934e-06
2.96609e-07
-5.53196e-06
3.19658e-07
-5.99362e-06
3.42153e-07
-6.39586e-06
3.61703e-07
-6.72953e-06
3.7593e-07
-6.98489e-06
3.8261e-07
-7.15174e-06
3.79842e-07
-7.2196e-06
3.66243e-07
-7.17798e-06
3.41157e-07
-7.01673e-06
3.04863e-07
-6.72647e-06
2.58748e-07
-6.29903e-06
2.05425e-07
-5.72807e-06
1.48762e-07
-5.00959e-06
9.37711e-08
-4.14262e-06
4.63716e-08
-3.12964e-06
1.29912e-08
-1.97703e-06
-6.96011e-07
2.3872e-08
7.34632e-07
8.67389e-08
2.08214e-06
1.79111e-07
3.29032e-06
2.91278e-07
4.34728e-06
4.13822e-07
5.24594e-06
5.38069e-07
5.98325e-06
6.56468e-07
6.56006e-06
7.62864e-07
6.9807e-06
8.52634e-07
7.25244e-06
9.2271e-07
7.38476e-06
9.71485e-07
7.38879e-06
9.98655e-07
7.27655e-06
1.005e-06
7.06053e-06
9.9216e-07
6.75311e-06
9.62382e-07
6.36627e-06
9.18323e-07
5.9113e-06
8.62849e-07
5.39867e-06
7.98879e-07
4.83788e-06
7.29263e-07
4.2375e-06
6.56683e-07
3.60521e-06
5.83589e-07
2.9478e-06
5.12159e-07
2.27138e-06
4.44269e-07
1.58141e-06
3.81483e-07
8.82891e-07
3.25051e-07
1.80478e-07
2.75914e-07
-5.21369e-07
2.3471e-07
-1.21825e-06
2.0178e-07
-1.90567e-06
1.77178e-07
-2.57895e-06
1.60679e-07
-3.23307e-06
1.51784e-07
-3.86256e-06
1.49732e-07
-4.46145e-06
1.53508e-07
-5.02312e-06
1.61862e-07
-5.54032e-06
1.73334e-07
-6.0051e-06
1.86299e-07
-6.40882e-06
1.99015e-07
-6.74224e-06
2.09706e-07
-6.99558e-06
2.16659e-07
-7.1587e-06
2.18345e-07
-7.22129e-06
2.1356e-07
-7.17319e-06
2.01576e-07
-7.00475e-06
1.82291e-07
-6.70718e-06
1.56361e-07
-6.2731e-06
1.25291e-07
-5.697e-06
9.14559e-08
-4.97576e-06
5.80394e-08
-4.1092e-06
2.8865e-08
-3.10047e-06
8.12779e-09
-1.95629e-06
-6.87883e-07
1.9109e-08
7.15523e-07
6.96778e-08
2.03157e-06
1.44405e-07
3.21559e-06
2.35796e-07
4.25589e-06
3.36513e-07
5.14522e-06
4.39705e-07
5.88006e-06
5.39293e-07
6.46047e-06
6.3019e-07
6.8898e-06
7.08435e-07
7.17419e-06
7.71233e-07
7.32197e-06
8.16922e-07
7.3431e-06
8.44873e-07
7.2486e-06
8.5535e-07
7.05005e-06
8.49339e-07
6.75912e-06
8.28381e-07
6.38722e-06
7.94403e-07
5.94528e-06
7.49565e-07
5.44351e-06
6.96132e-07
4.89131e-06
6.36373e-07
4.29726e-06
5.72472e-07
3.66911e-06
5.06473e-07
3.0138e-06
4.40237e-07
2.33762e-06
3.75419e-07
1.64623e-06
3.13452e-07
9.44859e-07
2.55543e-07
2.38386e-07
2.02678e-07
-4.68504e-07
1.55621e-07
-1.17119e-06
1.14922e-07
-1.86497e-06
8.09259e-08
-2.54495e-06
5.37702e-08
-3.20591e-06
3.3394e-08
-3.84219e-06
1.95375e-08
-4.44759e-06
1.17457e-08
-5.01533e-06
9.37244e-09
-5.53795e-06
1.15904e-08
-6.00731e-06
1.74071e-08
-6.41464e-06
2.56929e-08
-6.75053e-06
3.52211e-08
-7.00511e-06
4.4726e-08
-7.1682e-06
5.29764e-08
-7.22954e-06
5.88663e-08
-7.17908e-06
6.15168e-08
-7.0074e-06
6.03825e-08
-6.70605e-06
5.53495e-08
-6.26807e-06
4.68107e-08
-5.68846e-06
3.57007e-08
-4.96465e-06
2.34737e-08
-4.09697e-06
1.20124e-08
-3.08901e-06
3.46616e-09
-1.94774e-06
-6.84416e-07
1.45037e-08
7.01019e-07
5.30906e-08
1.99299e-06
1.10469e-07
3.15821e-06
1.81183e-07
4.18518e-06
2.59833e-07
5.06657e-06
3.41293e-07
5.7986e-06
4.20915e-07
6.38085e-06
4.94697e-07
6.81602e-06
5.59397e-07
7.10949e-06
6.12595e-07
7.26877e-06
6.52686e-07
7.303e-06
6.78842e-07
7.22245e-06
6.90921e-07
7.03797e-06
6.89367e-07
6.76067e-06
6.75089e-07
6.4015e-06
6.49342e-07
5.97103e-06
6.1362e-07
5.47923e-06
5.69554e-07
4.93537e-06
5.18831e-07
4.34799e-06
4.63126e-07
3.72481e-06
4.04054e-07
3.07287e-06
3.43135e-07
2.39853e-06
2.8177e-07
1.70759e-06
2.2123e-07
1.0054e-06
1.62648e-07
2.96968e-07
1.07024e-07
-4.12879e-07
5.52226e-08
-1.11939e-06
7.98232e-09
-1.81773e-06
-3.40857e-08
-2.50288e-06
-7.04944e-08
-3.1695e-06
-1.00882e-07
-3.8118e-06
-1.25019e-07
-4.42345e-06
-1.42811e-07
-4.99753e-06
-1.54313e-07
-5.52644e-06
-1.59736e-07
-6.00189e-06
-1.59455e-07
-6.41492e-06
-1.54011e-07
-6.75597e-06
-1.44113e-07
-7.01501e-06
-1.30613e-07
-7.1817e-06
-1.14487e-07
-7.24566e-06
-9.6787e-08
-7.19678e-06
-7.85841e-08
-7.0256e-06
-6.09028e-08
-6.72373e-06
-4.46461e-08
-6.28433e-06
-3.05278e-08
-5.70257e-06
-1.90199e-08