/*--------------------------------*- C++ -*----------------------------------*\
  =========                 |
  \\      /  F ield         | OpenFOAM: The Open Source CFD Toolbox
   \\    /   O peration     | Website:  https://openfoam.org
    \\  /    A nd           | Version:  7
     \\/     M anipulation  |
\*---------------------------------------------------------------------------*/
FoamFile
{
    version     2.0;
    format      ascii;
    class       volVectorField;
    location    "0.0182";
    object      U;
}
// * * * * * * * * * * * * * * * * * * * * * * * * * * * * * * * * * * * * * //

dimensions      [0 1 -1 0 0 0 0];

internalField   nonuniform List<vector> 
2500
(
(-0.293859 0.153777 0)
(-0.398057 0.128757 0)
(-0.578028 0.0737777 0)
(-0.696111 0.0408137 0)
(-0.764759 0.0232955 0)
(-0.808649 0.0140125 0)
(-0.838706 0.00900356 0)
(-0.860196 0.00617746 0)
(-0.876166 0.00447467 0)
(-0.888417 0.0033748 0)
(-0.898033 0.00261946 0)
(-0.905709 0.00207449 0)
(-0.911908 0.00166597 0)
(-0.916956 0.0013505 0)
(-0.921088 0.00110101 0)
(-0.924477 0.000899714 0)
(-0.927254 0.00073437 0)
(-0.929518 0.00059625 0)
(-0.931347 0.000478919 0)
(-0.932799 0.000377495 0)
(-0.93392 0.000288166 0)
(-0.934745 0.00020787 0)
(-0.935299 0.000134074 0)
(-0.9356 6.46035e-05 0)
(-0.935658 -2.47504e-06 0)
(-0.935479 -6.89881e-05 0)
(-0.93506 -0.000136694 0)
(-0.934394 -0.000207409 0)
(-0.933468 -0.000283091 0)
(-0.93226 -0.00036594 0)
(-0.930743 -0.000458531 0)
(-0.928878 -0.000563981 0)
(-0.926617 -0.000686178 0)
(-0.923897 -0.000830115 0)
(-0.920638 -0.00100239 0)
(-0.916738 -0.001212 0)
(-0.912063 -0.00147162 0)
(-0.906434 -0.00179985 0)
(-0.899613 -0.00222531 0)
(-0.89127 -0.00279451 0)
(-0.880932 -0.00358746 0)
(-0.867894 -0.00474991 0)
(-0.85105 -0.00656062 0)
(-0.828579 -0.00957034 0)
(-0.797452 -0.0148652 0)
(-0.75251 -0.0244961 0)
(-0.683013 -0.0421917 0)
(-0.56529 -0.074695 0)
(-0.389492 -0.128209 0)
(-0.290248 -0.15241 0)
(-0.00519451 0.303019 0)
(-0.027006 0.307298 0)
(-0.170852 0.217484 0)
(-0.30697 0.146018 0)
(-0.41483 0.0984245 0)
(-0.498739 0.0679802 0)
(-0.563582 0.0485783 0)
(-0.613807 0.0359185 0)
(-0.653136 0.0273442 0)
(-0.684333 0.0213053 0)
(-0.70937 0.0168982 0)
(-0.72966 0.0135821 0)
(-0.746226 0.0110218 0)
(-0.759825 0.00900153 0)
(-0.77102 0.00737702 0)
(-0.780241 0.00604848 0)
(-0.787818 0.00494472 0)
(-0.794005 0.00401343 0)
(-0.799001 0.00321518 0)
(-0.802963 0.00251947 0)
(-0.806008 0.00190211 0)
(-0.80823 0.00134338 0)
(-0.809694 0.000826736 0)
(-0.810447 0.000337848 0)
(-0.810519 -0.00013617 0)
(-0.80992 -0.000607393 0)
(-0.808646 -0.00108763 0)
(-0.806676 -0.00158895 0)
(-0.803974 -0.00212428 0)
(-0.800483 -0.002708 0)
(-0.796127 -0.00335668 0)
(-0.790808 -0.0040901 0)
(-0.784398 -0.00493251 0)
(-0.776736 -0.00591449 0)
(-0.767618 -0.00707554 0)
(-0.756784 -0.00846805 0)
(-0.743904 -0.0101634 0)
(-0.728552 -0.0122618 0)
(-0.710173 -0.0149081 0)
(-0.688031 -0.0183193 0)
(-0.661136 -0.022832 0)
(-0.62814 -0.0289867 0)
(-0.587184 -0.0376765 0)
(-0.535708 -0.0504076 0)
(-0.470367 -0.0696982 0)
(-0.387295 -0.0994779 0)
(-0.282322 -0.145135 0)
(-0.152002 -0.212837 0)
(-0.0167273 -0.298483 0)
(-0.00106275 -0.294848 0)
(0.0321399 0.264081 0)
(0.056728 0.361868 0)
(-0.00241133 0.323835 0)
(-0.0933129 0.258735 0)
(-0.187883 0.19849 0)
(-0.274479 0.15096 0)
(-0.349047 0.11562 0)
(-0.411437 0.0897125 0)
(-0.463065 0.0705981 0)
(-0.505673 0.0562839 0)
(-0.540868 0.0453705 0)
(-0.570006 0.0368966 0)
(-0.594184 0.0302014 0)
(-0.614275 0.0248255 0)
(-0.630973 0.0204436 0)
(-0.644828 0.0168208 0)
(-0.656274 0.0137837 0)
(-0.665659 0.0112017 0)
(-0.673258 0.00897403 0)
(-0.679289 0.0070216 0)
(-0.683924 0.00528061 0)
(-0.687292 0.00369847 0)
(-0.689491 0.00223061 0)
(-0.69059 0.000838112 0)
(-0.690631 -0.000514195 0)
(-0.68963 -0.00185931 0)
(-0.687582 -0.00322949 0)
(-0.684457 -0.00465763 0)
(-0.680202 -0.00617862 0)
(-0.674739 -0.0078309 0)
(-0.66796 -0.00965833 0)
(-0.659728 -0.0117125 0)
(-0.649867 -0.0140556 0)
(-0.638158 -0.0167647 0)
(-0.624331 -0.0199375 0)
(-0.60805 -0.0237001 0)
(-0.5889 -0.0282194 0)
(-0.566368 -0.0337206 0)
(-0.539816 -0.0405138 0)
(-0.508455 -0.0490348 0)
(-0.471317 -0.0599045 0)
(-0.427234 -0.0740165 0)
(-0.374877 -0.0926514 0)
(-0.312894 -0.117598 0)
(-0.240381 -0.151165 0)
(-0.158009 -0.195634 0)
(-0.0701235 -0.251094 0)
(0.011923 -0.310172 0)
(0.0617776 -0.343721 0)
(0.0329573 -0.250255 0)
(0.0272395 0.205024 0)
(0.0643917 0.356581 0)
(0.0570416 0.373225 0)
(0.0116482 0.334936 0)
(-0.0534828 0.281273 0)
(-0.124093 0.229542 0)
(-0.192106 0.185503 0)
(-0.253826 0.149845 0)
(-0.308067 0.121505 0)
(-0.354898 0.0990613 0)
(-0.394932 0.081209 0)
(-0.428962 0.0668924 0)
(-0.457784 0.0552957 0)
(-0.482122 0.0458011 0)
(-0.502609 0.0379411 0)
(-0.519777 0.0313607 0)
(-0.534075 0.0257869 0)
(-0.545871 0.0210072 0)
(-0.555467 0.0168536 0)
(-0.563108 0.0131909 0)
(-0.56899 0.00990832 0)
(-0.573263 0.00691298 0)
(-0.576045 0.00412537 0)
(-0.577414 0.00147541 0)
(-0.577423 -0.00110062 0)
(-0.576093 -0.00366261 0)
(-0.573419 -0.00626902 0)
(-0.569368 -0.00897911 0)
(-0.563882 -0.0118552 0)
(-0.556871 -0.0149652 0)
(-0.548217 -0.0183854 0)
(-0.537769 -0.0222041 0)
(-0.525336 -0.0265256 0)
(-0.510689 -0.0314763 0)
(-0.493548 -0.0372123 0)
(-0.473584 -0.043929 0)
(-0.450405 -0.0518758 0)
(-0.423557 -0.0613742 0)
(-0.392519 -0.0728431 0)
(-0.356718 -0.0868305 0)
(-0.315562 -0.10405 0)
(-0.268522 -0.125408 0)
(-0.21531 -0.151998 0)
(-0.156223 -0.184966 0)
(-0.0927707 -0.225064 0)
(-0.0287234 -0.271408 0)
(0.028219 -0.318551 0)
(0.0650121 -0.350805 0)
(0.0656399 -0.332453 0)
(0.0268189 -0.190372 0)
(0.0185878 0.162853 0)
(0.0539801 0.329239 0)
(0.0710092 0.382827 0)
(0.057659 0.37382 0)
(0.0209893 0.336621 0)
(-0.0283679 0.29084 0)
(-0.0823447 0.246041 0)
(-0.135834 0.206067 0)
(-0.185994 0.17191 0)
(-0.231493 0.14331 0)
(-0.271905 0.119554 0)
(-0.307304 0.0998425 0)
(-0.338009 0.0834391 0)
(-0.364437 0.0697152 0)
(-0.387026 0.0581533 0)
(-0.406194 0.0483333 0)
(-0.422318 0.0399159 0)
(-0.435729 0.0326256 0)
(-0.446711 0.0262372 0)
(-0.455501 0.0205644 0)
(-0.462292 0.015451 0)
(-0.467241 0.0107641 0)
(-0.470466 0.00638765 0)
(-0.472053 0.00221857 0)
(-0.472057 -0.00183754 0)
(-0.470504 -0.00586967 0)
(-0.467391 -0.0099645 0)
(-0.462689 -0.0142093 0)
(-0.456341 -0.018695 0)
(-0.448262 -0.0235192 0)
(-0.438339 -0.0287897 0)
(-0.426431 -0.0346286 0)
(-0.412365 -0.0411769 0)
(-0.395936 -0.0486006 0)
(-0.376909 -0.0570979 0)
(-0.35502 -0.0669082 0)
(-0.32998 -0.0783225 0)
(-0.301487 -0.0916956 0)
(-0.269254 -0.107458 0)
(-0.233046 -0.126122 0)
(-0.192766 -0.148273 0)
(-0.148586 -0.17452 0)
(-0.101174 -0.205356 0)
(-0.0520389 -0.240834 0)
(-0.00402189 -0.279872 0)
(0.038131 -0.31889 0)
(0.0672189 -0.34936 0)
(0.0740628 -0.35394 0)
(0.0533202 -0.302152 0)
(0.0178987 -0.148805 0)
(0.0121184 0.133554 0)
(0.0418807 0.296893 0)
(0.068239 0.37171 0)
(0.074186 0.386873 0)
(0.0593842 0.368112 0)
(0.0297905 0.333287 0)
(-0.00843696 0.293181 0)
(-0.0504104 0.253578 0)
(-0.0927196 0.217179 0)
(-0.133234 0.184957 0)
(-0.170764 0.156996 0)
(-0.204753 0.132971 0)
(-0.235032 0.112405 0)
(-0.261665 0.0947985 0)
(-0.284836 0.0796821 0)
(-0.304785 0.0666399 0)
(-0.321769 0.0553126 0)
(-0.336036 0.0453928 0)
(-0.347816 0.0366191 0)
(-0.357309 0.0287676 0)
(-0.364687 0.0216454 0)
(-0.370092 0.0150846 0)
(-0.373635 0.00893621 0)
(-0.3754 0.00306612 0)
(-0.37544 -0.00264943 0)
(-0.373783 -0.00832749 0)
(-0.370433 -0.0140819 0)
(-0.365366 -0.0200264 0)
(-0.358536 -0.0262782 0)
(-0.349874 -0.0329611 0)
(-0.339286 -0.0402089 0)
(-0.326658 -0.0481698 0)
(-0.311857 -0.0570096 0)
(-0.294733 -0.0669175 0)
(-0.275126 -0.0781099 0)
(-0.252875 -0.0908362 0)
(-0.227832 -0.105382 0)
(-0.19989 -0.122068 0)
(-0.169019 -0.141248 0)
(-0.13533 -0.163281 0)
(-0.0991673 -0.188478 0)
(-0.061246 -0.216994 0)
(-0.0228419 -0.248604 0)
(0.013966 -0.2823 0)
(0.046056 -0.315592 0)
(0.069164 -0.34338 0)
(0.0781168 -0.35634 0)
(0.0681506 -0.339029 0)
(0.0404389 -0.268973 0)
(0.0114738 -0.120432 0)
(0.00805286 0.112436 0)
(0.0322524 0.266045 0)
(0.0606481 0.351231 0)
(0.0769254 0.383761 0)
(0.0770648 0.381472 0)
(0.0633107 0.358937 0)
(0.0395187 0.326421 0)
(0.00954269 0.290442 0)
(-0.0234137 0.254771 0)
(-0.0569888 0.221362 0)
(-0.0895899 0.191066 0)
(-0.120227 0.164097 0)
(-0.148344 0.140337 0)
(-0.173681 0.119505 0)
(-0.196168 0.101261 0)
(-0.215852 0.0852563 0)
(-0.232842 0.071159 0)
(-0.247282 0.0586659 0)
(-0.259322 0.0475043 0)
(-0.269108 0.0374317 0)
(-0.276773 0.0282317 0)
(-0.282432 0.0197109 0)
(-0.286179 0.0116946 0)
(-0.288087 0.00402293 0)
(-0.288206 -0.00345297 0)
(-0.286565 -0.0108744 0)
(-0.283172 -0.0183786 0)
(-0.278015 -0.0261017 0)
(-0.271063 -0.0341822 0)
(-0.262267 -0.0427636 0)
(-0.251565 -0.0519978 0)
(-0.238882 -0.0620477 0)
(-0.224139 -0.0730899 0)
(-0.207253 -0.0853173 0)
(-0.188154 -0.0989397 0)
(-0.166797 -0.114183 0)
(-0.143182 -0.131286 0)
(-0.117389 -0.150486 0)
(-0.0896194 -0.171995 0)
(-0.0602581 -0.195956 0)
(-0.029959 -0.222352 0)
(0.000250615 -0.250868 0)
(0.0288486 -0.280645 0)
(0.0537086 -0.309893 0)
(0.0720796 -0.335326 0)
(0.0807926 -0.351386 0)
(0.0768308 -0.34939 0)
(0.0586975 -0.316943 0)
(0.0305297 -0.238602 0)
(0.00750752 -0.100345 0)
(0.0056161 0.0966992 0)
(0.0253077 0.238576 0)
(0.0526073 0.327303 0)
(0.073711 0.371177 0)
(0.0832865 0.382046 0)
(0.0811871 0.371064 0)
(0.0693051 0.347129 0)
(0.0502577 0.316627 0)
(0.0266449 0.28378 0)
(0.000665962 0.251173 0)
(-0.0259929 0.220254 0)
(-0.0521268 0.191734 0)
(-0.076928 0.165863 0)
(-0.0998919 0.142623 0)
(-0.120734 0.121852 0)
(-0.139319 0.103313 0)
(-0.155615 0.0867416 0)
(-0.16965 0.0718713 0)
(-0.181487 0.0584439 0)
(-0.191206 0.0462179 0)
(-0.198892 0.0349691 0)
(-0.204623 0.0244907 0)
(-0.20847 0.0145917 0)
(-0.21049 0.00509403 0)
(-0.210727 -0.00416975 0)
(-0.209207 -0.0133594 0)
(-0.205945 -0.0226297 0)
(-0.200939 -0.0321334 0)
(-0.194177 -0.0420233 0)
(-0.185636 -0.052455 0)
(-0.175288 -0.0635886 0)
(-0.163104 -0.0755904 0)
(-0.149059 -0.088633 0)
(-0.133145 -0.102895 0)
(-0.115381 -0.118558 0)
(-0.0958289 -0.135801 0)
(-0.074622 -0.154783 0)
(-0.0519921 -0.175627 0)
(-0.0283117 -0.198381 0)
(-0.00414546 -0.222953 0)
(0.0196897 -0.249017 0)
(0.0420619 -0.275861 0)
(0.0614746 -0.302167 0)
(0.0760663 -0.325698 0)
(0.0837286 -0.342895 0)
(0.0824457 -0.34844 0)
(0.070908 -0.334932 0)
(0.0495909 -0.29298 0)
(0.0235006 -0.212356 0)
(0.00515242 -0.085647 0)
(0.0041334 0.084525 0)
(0.0203679 0.214627 0)
(0.0454501 0.302898 0)
(0.0682513 0.353518 0)
(0.0833656 0.374169 0)
(0.0893325 0.373063 0)
(0.0866315 0.357483 0)
(0.076768 0.3332 0)
(0.0616232 0.304428 0)
(0.0430247 0.274043 0)
(0.0225386 0.243885 0)
(0.00140531 0.215049 0)
(-0.0194491 0.188111 0)
(-0.0393678 0.163316 0)
(-0.0579093 0.140691 0)
(-0.0747948 0.120139 0)
(-0.0898641 0.101491 0)
(-0.103039 0.084538 0)
(-0.114298 0.0690607 0)
(-0.123652 0.0548365 0)
(-0.131132 0.0416487 0)
(-0.136779 0.02929 0)
(-0.140635 0.0175632 0)
(-0.142738 0.00628122 0)
(-0.14312 -0.00473429 0)
(-0.141808 -0.0156544 0)
(-0.138818 -0.0266448 0)
(-0.13416 -0.0378675 0)
(-0.127842 -0.0494825 0)
(-0.119866 -0.0616491 0)
(-0.110239 -0.0745263 0)
(-0.0989751 -0.0882725 0)
(-0.0861057 -0.103044 0)
(-0.0716876 -0.118991 0)
(-0.0558177 -0.136252 0)
(-0.0386501 -0.154939 0)
(-0.020418 -0.175122 0)
(-0.00146095 -0.1968 0)
(0.0177434 -0.219852 0)
(0.0365441 -0.243977 0)
(0.0540829 -0.268595 0)
(0.0692719 -0.292711 0)
(0.0808008 -0.314738 0)
(0.0872042 -0.332271 0)
(0.0870438 -0.341844 0)
(0.079263 -0.338733 0)
(0.0637055 -0.316945 0)
(0.0418499 -0.269598 0)
(0.0185588 -0.190045 0)
(0.00372867 -0.0744823 0)
(0.00318941 0.0747655 0)
(0.0167865 0.193814 0)
(0.039405 0.279418 0)
(0.0622065 0.333525 0)
(0.0802543 0.361041 0)
(0.0914963 0.367877 0)
(0.0955093 0.359781 0)
(0.0929334 0.341707 0)
(0.0849777 0.317576 0)
(0.0730292 0.290295 0)
(0.0584159 0.2619 0)
(0.0422904 0.233739 0)
(0.0255892 0.206647 0)
(0.00903626 0.18109 0)
(-0.00683244 0.157283 0)
(-0.0216361 0.13527 0)
(-0.0351158 0.114988 0)
(-0.0471049 0.0963064 0)
(-0.0575042 0.0790574 0)
(-0.0662619 0.063053 0)
(-0.073358 0.0480975 0)
(-0.0787929 0.0339945 0)
(-0.0825789 0.0205514 0)
(-0.0847343 0.00758083 0)
(-0.0852797 -0.00509816 0)
(-0.0842359 -0.0176604 0)
(-0.0816232 -0.0302753 0)
(-0.077462 -0.0431071 0)
(-0.071775 -0.0563154 0)
(-0.0645901 -0.0700553 0)
(-0.055945 -0.0844764 0)
(-0.0458933 -0.0997204 0)
(-0.0345129 -0.115918 0)
(-0.0219154 -0.133181 0)
(-0.00825948 -0.151595 0)
(0.00623417 -0.1712 0)
(0.0212647 -0.191974 0)
(0.0364304 -0.213796 0)
(0.0512083 -0.236399 0)
(0.0649348 -0.259314 0)
(0.0767956 -0.281777 0)
(0.085834 -0.302627 0)
(0.0909937 -0.320165 0)
(0.0912198 -0.332023 0)
(0.0856515 -0.33503 0)
(0.0739324 -0.325178 0)
(0.0565966 -0.297762 0)
(0.0355182 -0.247827 0)
(0.0150169 -0.171087 0)
(0.00282866 -0.0656942 0)
(0.00255322 0.0667182 0)
(0.0141046 0.175671 0)
(0.0343495 0.257463 0)
(0.0562637 0.312843 0)
(0.075555 0.344906 0)
(0.0900088 0.357847 0)
(0.0986882 0.356102 0)
(0.101623 0.343782 0)
(0.0994683 0.324373 0)
(0.0931878 0.300636 0)
(0.0838276 0.274647 0)
(0.0723824 0.247892 0)
(0.0597245 0.221377 0)
(0.0465773 0.195745 0)
(0.0335156 0.171369 0)
(0.0209796 0.148426 0)
(0.00929544 0.126962 0)
(-0.00130316 0.106928 0)
(-0.0106549 0.0882191 0)
(-0.0186535 0.0706914 0)
(-0.0252332 0.0541808 0)
(-0.0303573 0.038512 0)
(-0.0340099 0.0235058 0)
(-0.0361889 0.00898333 0)
(-0.0369022 -0.00523128 0)
(-0.0361649 -0.0193094 0)
(-0.0339984 -0.0334171 0)
(-0.0304308 -0.0477139 0)
(-0.0254984 -0.0623527 0)
(-0.0192491 -0.0774774 0)
(-0.0117466 -0.0932213 0)
(-0.00307613 -0.109703 0)
(0.00664784 -0.127021 0)
(0.0172727 -0.145245 0)
(0.0285967 -0.164403 0)
(0.0403573 -0.184466 0)
(0.0522172 -0.205324 0)
(0.0637519 -0.226752 0)
(0.0744387 -0.24837 0)
(0.0836523 -0.269584 0)
(0.090672 -0.289522 0)
(0.0947098 -0.306947 0)
(0.0949713 -0.320171 0)
(0.0907643 -0.326982 0)
(0.0816736 -0.324596 0)
(0.0678077 -0.309707 0)
(0.0500616 -0.278689 0)
(0.0303656 -0.228002 0)
(0.0124 -0.154896 0)
(0.00222788 -0.0585746 0)
(0.00209893 0.0599457 0)
(0.0120222 0.159786 0)
(0.030087 0.237251 0)
(0.0506684 0.292446 0)
(0.0701233 0.327299 0)
(0.086305 0.344759 0)
(0.0980296 0.348201 0)
(0.104931 0.340961 0)
(0.107248 0.326041 0)
(0.105577 0.30596 0)
(0.10069 0.282724 0)
(0.0933939 0.257857 0)
(0.0844536 0.232463 0)
(0.0745446 0.207307 0)
(0.0642366 0.182886 0)
(0.0539919 0.159494 0)
(0.0441741 0.137274 0)
(0.0350611 0.116259 0)
(0.0268597 0.0964094 0)
(0.0197188 0.0776326 0)
(0.0137418 0.0598025 0)
(0.00899738 0.0427723 0)
(0.00552695 0.026384 0)
(0.00335147 0.0104742 0)
(0.00247571 -0.00512108 0)
(0.00289102 -0.0205631 0)
(0.00457673 -0.0360083 0)
(0.00749993 -0.051606 0)
(0.0116142 -0.067496 0)
(0.0168567 -0.0838062 0)
(0.0231446 -0.100649 0)
(0.0303696 -0.118115 0)
(0.0383917 -0.136267 0)
(0.0470317 -0.155131 0)
(0.0560629 -0.174682 0)
(0.0652024 -0.194825 0)
(0.0741029 -0.215375 0)
(0.0823464 -0.236026 0)
(0.0894422 -0.256313 0)
(0.094833 -0.275565 0)
(0.0979134 -0.292858 0)
(0.0980684 -0.306954 0)
(0.0947395 -0.316253 0)
(0.0875258 -0.318759 0)
(0.0763296 -0.312091 0)
(0.0615405 -0.293572 0)
(0.0442018 -0.260433 0)
(0.0261301 -0.210155 0)
(0.010399 -0.14098 0)
(0.00180404 -0.0526815 0)
(0.00175698 0.0541659 0)
(0.0103471 0.145828 0)
(0.0264365 0.21882 0)
(0.0454764 0.272907 0)
(0.0644101 0.309261 0)
(0.0812683 0.329942 0)
(0.0947896 0.337495 0)
(0.104377 0.334587 0)
(0.109972 0.323748 0)
(0.111885 0.307212 0)
(0.110641 0.286846 0)
(0.10686 0.264141 0)
(0.10118 0.240236 0)
(0.0942017 0.215969 0)
(0.0864574 0.191927 0)
(0.0784025 0.168493 0)
(0.0704125 0.145896 0)
(0.0627887 0.124245 0)
(0.0557661 0.103563 0)
(0.0495238 0.0838106 0)
(0.0441939 0.0649032 0)
(0.0398703 0.0467277 0)
(0.0366158 0.0291525 0)
(0.034468 0.0120353 0)
(0.0334433 -0.00477012 0)
(0.0335401 -0.0214098 0)
(0.0347399 -0.0380254 0)
(0.0370078 -0.0547508 0)
(0.0402913 -0.0717091 0)
(0.044518 -0.0890077 0)
(0.0495926 -0.106734 0)
(0.0553927 -0.124951 0)
(0.0617633 -0.143684 0)
(0.068512 -0.162918 0)
(0.0754023 -0.182577 0)
(0.0821493 -0.202511 0)
(0.088415 -0.222474 0)
(0.0938081 -0.2421 0)
(0.0978887 -0.260868 0)
(0.10018 -0.278071 0)
(0.100196 -0.292776 0)
(0.0974782 -0.303793 0)
(0.091664 -0.309651 0)
(0.0825707 -0.308592 0)
(0.0703108 -0.298615 0)
(0.0554235 -0.277575 0)
(0.0389726 -0.243365 0)
(0.0225887 -0.194198 0)
(0.00881624 -0.128959 0)
(0.00148939 -0.0477288 0)
(0.00148781 0.0491897 0)
(0.00895664 0.13354 0)
(0.0232548 0.202132 0)
(0.0406702 0.254557 0)
(0.0586506 0.291494 0)
(0.0754462 0.314374 0)
(0.0898195 0.325102 0)
(0.101058 0.325792 0)
(0.10891 0.318546 0)
(0.113469 0.305305 0)
(0.115058 0.287762 0)
(0.114127 0.267327 0)
(0.111187 0.245129 0)
(0.106747 0.222036 0)
(0.101286 0.198691 0)
(0.0952298 0.175543 0)
(0.0889467 0.15289 0)
(0.0827428 0.130907 0)
(0.0768669 0.109676 0)
(0.0715157 0.0892059 0)
(0.0668406 0.0694568 0)
(0.0629539 0.0503511 0)
(0.0599349 0.0317869 0)
(0.0578347 0.0136471 0)
(0.0566803 -0.00419282 0)
(0.0564767 -0.0218595 0)
(0.0572092 -0.0394759 0)
(0.0588433 -0.0571573 0)
(0.0613241 -0.0750063 0)
(0.0645748 -0.093108 0)
(0.0684942 -0.111524 0)
(0.0729536 -0.130286 0)
(0.0777931 -0.149388 0)
(0.0828175 -0.168773 0)
(0.0877935 -0.188323 0)
(0.0924471 -0.207843 0)
(0.0964633 -0.227041 0)
(0.0994896 -0.245509 0)
(0.101145 -0.262695 0)
(0.101036 -0.277885 0)
(0.098784 -0.29017 0)
(0.0940666 -0.298437 0)
(0.0866718 -0.30136 0)
(0.0765708 -0.297417 0)
(0.0640038 -0.284942 0)
(0.049571 -0.262225 0)
(0.034285 -0.227669 0)
(0.0195695 -0.180005 0)
(0.00752408 -0.118541 0)
(0.00124515 -0.0435252 0)
(0.001268 0.0448853 0)
(0.00777076 0.122724 0)
(0.0204351 0.187121 0)
(0.0362089 0.237584 0)
(0.0529664 0.274471 0)
(0.0691832 0.298765 0)
(0.0837018 0.311888 0)
(0.0957724 0.315505 0)
(0.105029 0.311346 0)
(0.111413 0.301074 0)
(0.115087 0.286197 0)
(0.116361 0.268019 0)
(0.115622 0.247623 0)
(0.11329 0.225876 0)
(0.109778 0.203448 0)
(0.105473 0.180835 0)
(0.100719 0.158385 0)
(0.0958126 0.136326 0)
(0.0910046 0.114792 0)
(0.0864984 0.0938378 0)
(0.0824557 0.0734657 0)
(0.0790005 0.0536339 0)
(0.0762235 0.034272 0)
(0.0741862 0.0152902 0)
(0.072924 -0.00341199 0)
(0.0724486 -0.0219388 0)
(0.0727498 -0.0403921 0)
(0.0737954 -0.0588661 0)
(0.0755318 -0.0774411 0)
(0.0778822 -0.0961787 0)
(0.0807451 -0.115115 0)
(0.0839925 -0.134251 0)
(0.087467 -0.15355 0)
(0.09098 -0.172921 0)
(0.0943104 -0.19221 0)
(0.0972043 -0.211185 0)
(0.0993777 -0.229523 0)
(0.100522 -0.246789 0)
(0.100318 -0.262423 0)
(0.0984476 -0.27572 0)
(0.094628 -0.285817 0)
(0.0886433 -0.291691 0)
(0.0803933 -0.292165 0)
(0.0699503 -0.28593 0)
(0.0576218 -0.27161 0)
(0.0440122 -0.247845 0)
(0.030046 -0.213424 0)
(0.0169449 -0.167448 0)
(0.00643878 -0.109507 0)
(0.00104825 -0.0399383 0)
(0.00108311 0.0411578 0)
(0.00673651 0.113224 0)
(0.0178991 0.173712 0)
(0.0320493 0.22209 0)
(0.0474194 0.258508 0)
(0.0626994 0.28363 0)
(0.0768401 0.298515 0)
(0.0891052 0.30447 0)
(0.0990715 0.302912 0)
(0.10658 0.295254 0)
(0.111677 0.282821 0)
(0.114554 0.266799 0)
(0.115496 0.248205 0)
(0.114836 0.227884 0)
(0.11292 0.206511 0)
(0.110086 0.184605 0)
(0.106647 0.162553 0)
(0.102881 0.140623 0)
(0.0990294 0.118991 0)
(0.0952934 0.0977556 0)
(0.0918375 0.0769552 0)
(0.088791 0.0565836 0)
(0.0862513 0.0366013 0)
(0.0842869 0.0169467 0)
(0.0829396 -0.0024554 0)
(0.0822273 -0.0216855 0)
(0.0821444 -0.0408232 0)
(0.0826632 -0.05994 0)
(0.0837337 -0.0790939 0)
(0.0852828 -0.0983224 0)
(0.0872138 -0.117636 0)
(0.0894045 -0.13701 0)
(0.0917064 -0.156378 0)
(0.0939438 -0.175619 0)
(0.0959142 -0.194551 0)
(0.0973893 -0.212914 0)
(0.0981202 -0.230364 0)
(0.0978441 -0.246455 0)
(0.0962971 -0.260627 0)
(0.0932315 -0.272202 0)
(0.0884406 -0.280373 0)
(0.0817906 -0.284209 0)
(0.0732587 -0.282673 0)
(0.0629773 -0.274648 0)
(0.0512792 -0.258997 0)
(0.0387378 -0.234638 0)
(0.0261734 -0.200654 0)
(0.0146211 -0.156411 0)
(0.00550422 -0.10169 0)
(0.00088437 -0.0368738 0)
(0.000923849 0.0379363 0)
(0.00581793 0.10492 0)
(0.0155899 0.161828 0)
(0.0281528 0.208121 0)
(0.0420401 0.24381 0)
(0.0561381 0.269336 0)
(0.0695173 0.285482 0)
(0.0814864 0.293276 0)
(0.0916051 0.293875 0)
(0.0996557 0.288474 0)
(0.105602 0.278228 0)
(0.109547 0.264204 0)
(0.111688 0.247345 0)
(0.112281 0.228456 0)
(0.111608 0.208201 0)
(0.109957 0.18711 0)
(0.107603 0.165591 0)
(0.104801 0.143945 0)
(0.101774 0.12238 0)
(0.0987139 0.10103 0)
(0.0957825 0.0799685 0)
(0.0931088 0.0592203 0)
(0.0907924 0.0387761 0)
(0.0889056 0.0186017 0)
(0.087495 -0.00135274 0)
(0.086583 -0.021144 0)
(0.0861695 -0.0408287 0)
(0.086232 -0.0604561 0)
(0.0867263 -0.0800618 0)
(0.0875861 -0.0996601 0)
(0.0887227 -0.119238 0)
(0.0900243 -0.138746 0)
(0.0913556 -0.158092 0)
(0.0925582 -0.177132 0)
(0.093452 -0.195659 0)
(0.0938375 -0.213395 0)
(0.0935014 -0.229982 0)
(0.0922247 -0.244971 0)
(0.0897943 -0.257816 0)
(0.08602 -0.267869 0)
(0.0807561 -0.274381 0)
(0.0739278 -0.276514 0)
(0.0655622 -0.273354 0)
(0.0558212 -0.263951 0)
(0.045034 -0.247364 0)
(0.0337226 -0.22273 0)
(0.0225985 -0.189353 0)
(0.0125291 -0.146793 0)
(0.00468177 -0.0949615 0)
(0.000744231 -0.0342625 0)
(0.000784012 0.0351661 0)
(0.00498991 0.0977102 0)
(0.0134655 0.151396 0)
(0.0244865 0.19569 0)
(0.0368414 0.230513 0)
(0.049593 0.256144 0)
(0.0619334 0.273166 0)
(0.0732341 0.282383 0)
(0.083066 0.284745 0)
(0.0911834 0.28126 0)
(0.0974975 0.272933 0)
(0.102045 0.260716 0)
(0.104953 0.245475 0)
(0.106412 0.227968 0)
(0.106647 0.208837 0)
(0.105897 0.188611 0)
(0.104399 0.16771 0)
(0.102376 0.146454 0)
(0.100031 0.125079 0)
(0.0975429 0.103747 0)
(0.0950636 0.0825606 0)
(0.0927178 0.0615738 0)
(0.0906037 0.0408044 0)
(0.0887946 0.0202438 0)
(0.0873396 -0.000133181 0)
(0.0862651 -0.0203606 0)
(0.0855758 -0.0404728 0)
(0.0852555 -0.0604977 0)
(0.0852672 -0.0804492 0)
(0.0855534 -0.10032 0)
(0.0860361 -0.120076 0)
(0.0866166 -0.139645 0)
(0.0871761 -0.158914 0)
(0.0875763 -0.177718 0)
(0.0876615 -0.195833 0)
(0.0872617 -0.212967 0)
(0.0861985 -0.228755 0)
(0.0842924 -0.242752 0)
(0.0813748 -0.254427 0)
(0.0773021 -0.263168 0)
(0.0719742 -0.268284 0)
(0.0653567 -0.269018 0)
(0.0575047 -0.264568 0)
(0.0485875 -0.254119 0)
(0.0389113 -0.236892 0)
(0.0289357 -0.212195 0)
(0.0192654 -0.1795 0)
(0.0106176 -0.138508 0)
(0.00394415 -0.0892215 0)
(0.000621594 -0.0320529 0)
(0.000659263 0.0328044 0)
(0.00423437 0.0915139 0)
(0.0114943 0.142348 0)
(0.0210227 0.184789 0)
(0.0318261 0.218696 0)
(0.043125 0.244237 0)
(0.0542291 0.26184 0)
(0.064583 0.272144 0)
(0.0737869 0.275927 0)
(0.0815901 0.274044 0)
(0.0878736 0.267369 0)
(0.0926281 0.256751 0)
(0.0959287 0.24298 0)
(0.0979111 0.226764 0)
(0.0987491 0.208718 0)
(0.0986363 0.189361 0)
(0.0977713 0.169115 0)
(0.0963469 0.148314 0)
(0.0945423 0.127214 0)
(0.0925182 0.105998 0)
(0.090414 0.0847939 0)
(0.0883462 0.0636802 0)
(0.0864087 0.0426992 0)
(0.0846732 0.0218655 0)
(0.0831896 0.00117639 0)
(0.0819871 -0.0193808 0)
(0.0810751 -0.0398198 0)
(0.0804437 -0.0601484 0)
(0.080064 -0.0803607 0)
(0.0798888 -0.10043 0)
(0.0798526 -0.120302 0)
(0.0798719 -0.139888 0)
(0.0798461 -0.159054 0)
(0.0796584 -0.17762 0)
(0.0791783 -0.195347 0)
(0.0782649 -0.211935 0)
(0.0767721 -0.227016 0)
(0.0745563 -0.240151 0)
(0.0714857 -0.250829 0)
(0.0674533 -0.258471 0)
(0.0623921 -0.262438 0)
(0.0562926 -0.262046 0)
(0.0492212 -0.256586 0)
(0.0413388 -0.245357 0)
(0.0329163 -0.227706 0)
(0.0243452 -0.203077 0)
(0.0161275 -0.171068 0)
(0.00884718 -0.131485 0)
(0.00327144 -0.0843922 0)
(0.00051208 -0.0302058 0)
(0.00054645 0.0308163 0)
(0.00353768 0.0862625 0)
(0.00965136 0.134623 0)
(0.0177371 0.175396 0)
(0.02699 0.208405 0)
(0.0367709 0.233736 0)
(0.0465019 0.251706 0)
(0.0557043 0.262826 0)
(0.0640201 0.267739 0)
(0.0712094 0.267174 0)
(0.0771409 0.261896 0)
(0.0817761 0.252663 0)
(0.0851515 0.240194 0)
(0.0873593 0.225149 0)
(0.0885302 0.208114 0)
(0.088817 0.189591 0)
(0.0883823 0.17 0)
(0.0873878 0.149684 0)
(0.0859876 0.128908 0)
(0.0843223 0.107876 0)
(0.0825162 0.0867329 0)
(0.0806752 0.0655791 0)
(0.0788863 0.0444772 0)
(0.0772173 0.0234627 0)
(0.0757174 0.00255254 0)
(0.0744176 -0.0182466 0)
(0.0733313 -0.03893 0)
(0.0724549 -0.0594873 0)
(0.0717683 -0.0798953 0)
(0.0712354 -0.10011 0)
(0.0708041 -0.12006 0)
(0.0704073 -0.13964 0)
(0.0699635 -0.158702 0)
(0.0693781 -0.177052 0)
(0.0685456 -0.194442 0)
(0.067353 -0.210564 0)
(0.0656841 -0.225049 0)
(0.0634261 -0.237468 0)
(0.060478 -0.247326 0)
(0.0567606 -0.254077 0)
(0.0522293 -0.257125 0)
(0.0468873 -0.255848 0)
(0.0408001 -0.249614 0)
(0.0341088 -0.237813 0)
(0.0270413 -0.219893 0)
(0.0199187 -0.195401 0)
(0.0131456 -0.16403 0)
(0.00718675 -0.125664 0)
(0.00264848 -0.0804126 0)
(0.000412479 -0.0286911 0)
(0.000443168 0.0291738 0)
(0.00288912 0.0818985 0)
(0.00791607 0.128163 0)
(0.0146074 0.167482 0)
(0.0223231 0.199658 0)
(0.0305503 0.22472 0)
(0.0388161 0.242906 0)
(0.0467204 0.254626 0)
(0.0539535 0.260423 0)
(0.0602982 0.260924 0)
(0.0656238 0.256804 0)
(0.069876 0.248742 0)
(0.0730643 0.237398 0)
(0.0752478 0.223386 0)
(0.0765209 0.207262 0)
(0.0770008 0.18951 0)
(0.0768167 0.170545 0)
(0.0761006 0.150709 0)
(0.0749809 0.13028 0)
(0.0735772 0.10947 0)
(0.0719969 0.0884412 0)
(0.0703334 0.0673102 0)
(0.0686647 0.0461569 0)
(0.0670534 0.0250342 0)
(0.0655463 0.00397576 0)
(0.0641751 -0.0169951 0)
(0.0629568 -0.0378576 0)
(0.0618939 -0.0585861 0)
(0.060975 -0.079142 0)
(0.0601754 -0.0994669 0)
(0.0594572 -0.119475 0)
(0.0587702 -0.139048 0)
(0.0580523 -0.158026 0)
(0.0572313 -0.176203 0)
(0.056226 -0.193324 0)
(0.0549497 -0.209076 0)
(0.0533132 -0.223091 0)
(0.0512308 -0.234947 0)
(0.0486263 -0.244165 0)
(0.0454414 -0.250224 0)
(0.0416453 -0.252566 0)
(0.0372447 -0.250617 0)
(0.0322952 -0.243807 0)
(0.0269103 -0.231597 0)
(0.0212698 -0.213511 0)
(0.0156241 -0.189177 0)
(0.0102857 -0.158359 0)
(0.00561072 -0.120998 0)
(0.00206325 -0.0772355 0)
(0.000320322 -0.027486 0)
(0.000347477 0.0278539 0)
(0.00227973 0.0783734 0)
(0.00627043 0.122916 0)
(0.011612 0.161015 0)
(0.0178109 0.192458 0)
(0.0244685 0.217239 0)
(0.0312108 0.235536 0)
(0.0377147 0.247688 0)
(0.0437239 0.254161 0)
(0.0490511 0.255505 0)
(0.0535758 0.252319 0)
(0.0572382 0.245223 0)
(0.0600307 0.234823 0)
(0.0619869 0.221694 0)
(0.063172 0.206362 0)
(0.0636723 0.189296 0)
(0.0635866 0.170901 0)
(0.0630188 0.15152 0)
(0.0620721 0.131432 0)
(0.0608445 0.11086 0)
(0.0594257 0.0899769 0)
(0.0578951 0.0689113 0)
(0.0563204 0.0477571 0)
(0.0547574 0.0265809 0)
(0.0532496 0.00543049 0)
(0.0518284 -0.0156575 0)
(0.0505134 -0.0366492 0)
(0.0493129 -0.0575061 0)
(0.0482243 -0.0781774 0)
(0.0472343 -0.0985929 0)
(0.0463193 -0.118656 0)
(0.045446 -0.138236 0)
(0.0445722 -0.157165 0)
(0.0436472 -0.175227 0)
(0.0426137 -0.192162 0)
(0.0414094 -0.207652 0)
(0.0399704 -0.221332 0)
(0.0382341 -0.232782 0)
(0.0361448 -0.241538 0)
(0.0336594 -0.247097 0)
(0.0307544 -0.248929 0)
(0.0274335 -0.246498 0)
(0.0237354 -0.239279 0)
(0.0197411 -0.226786 0)
(0.0155791 -0.208603 0)
(0.0114294 -0.184413 0)
(0.00751659 -0.154034 0)
(0.00409706 -0.11745 0)
(0.00150576 -0.074825 0)
(0.000233612 -0.0265733 0)
(0.000257731 0.0268381 0)
(0.00170162 0.0756475 0)
(0.00469784 0.11884 0)
(0.00872905 0.155962 0)
(0.0134346 0.186799 0)
(0.0185199 0.211318 0)
(0.0237044 0.229659 0)
(0.0287407 0.242113 0)
(0.0334274 0.249086 0)
(0.0376124 0.251073 0)
(0.0411923 0.248617 0)
(0.0441095 0.242288 0)
(0.046346 0.23265 0)
(0.0479174 0.220246 0)
(0.0488649 0.205577 0)
(0.049248 0.189096 0)
(0.0491382 0.171199 0)
(0.0486131 0.152224 0)
(0.0477513 0.132454 0)
(0.0466294 0.112116 0)
(0.0453186 0.0913907 0)
(0.0438836 0.0704155 0)
(0.0423808 0.0492945 0)
(0.040858 0.0281048 0)
(0.0393542 0.0069046 0)
(0.0378997 -0.0142591 0)
(0.0365163 -0.0353426 0)
(0.0352174 -0.0562975 0)
(0.0340088 -0.0770639 0)
(0.0328884 -0.0975625 0)
(0.031847 -0.117688 0)
(0.0308681 -0.137302 0)
(0.0299289 -0.156228 0)
(0.0290003 -0.174246 0)
(0.0280478 -0.191087 0)
(0.0270328 -0.206433 0)
(0.025914 -0.219917 0)
(0.02465 -0.231122 0)
(0.023202 -0.239592 0)
(0.0215382 -0.244834 0)
(0.0196377 -0.246341 0)
(0.0174963 -0.243598 0)
(0.0151317 -0.236114 0)
(0.0125883 -0.223439 0)
(0.00994198 -0.205197 0)
(0.00730231 -0.181112 0)
(0.0048095 -0.15104 0)
(0.00262609 -0.114993 0)
(0.000967286 -0.0731555 0)
(0.000150651 -0.0259407 0)
(0.000172463 0.0261118 0)
(0.00114752 0.0736887 0)
(0.00318237 0.115896 0)
(0.00593635 0.152294 0)
(0.00917132 0.182666 0)
(0.0126899 0.206967 0)
(0.0162999 0.225315 0)
(0.0198278 0.237965 0)
(0.0231282 0.24529 0)
(0.026087 0.24774 0)
(0.0286227 0.245823 0)
(0.0306847 0.24007 0)
(0.0322508 0.231015 0)
(0.0333229 0.219175 0)
(0.0339228 0.205031 0)
(0.0340868 0.189023 0)
(0.0338617 0.171536 0)
(0.0332999 0.152907 0)
(0.0324569 0.133416 0)
(0.0313876 0.113293 0)
(0.0301448 0.0927227 0)
(0.0287777 0.0718492 0)
(0.0273305 0.0507827 0)
(0.0258422 0.0296074 0)
(0.0243467 0.00838859 0)
(0.0228722 -0.0128198 0)
(0.0214419 -0.0339672 0)
(0.0200739 -0.054999 0)
(0.0187818 -0.0758488 0)
(0.0175745 -0.0964315 0)
(0.0164567 -0.116636 0)
(0.0154289 -0.136319 0)
(0.0144874 -0.155298 0)
(0.0136241 -0.173347 0)
(0.012827 -0.190195 0)
(0.0120802 -0.205519 0)
(0.0113641 -0.21895 0)
(0.0106567 -0.230071 0)
(0.00993414 -0.238427 0)
(0.00917313 -0.243533 0)
(0.00835287 -0.244888 0)
(0.00745812 -0.241992 0)
(0.00648252 -0.234371 0)
(0.00543199 -0.221596 0)
(0.00432809 -0.203315 0)
(0.00321051 -0.179278 0)
(0.00213686 -0.149367 0)
(0.0011796 -0.113611 0)
(0.000439955 -0.0722107 0)
(6.99317e-05 -0.0255804 0)
(9.03059e-05 0.0256642 0)
(0.000610471 0.0724727 0)
(0.00170826 0.114055 0)
(0.00321068 0.149984 0)
(0.00499535 0.180044 0)
(0.00695696 0.204188 0)
(0.00898826 0.222521 0)
(0.0109879 0.235285 0)
(0.0128666 0.242827 0)
(0.0145502 0.245578 0)
(0.0159812 0.24402 0)
(0.0171197 0.23866 0)
(0.0179427 0.230012 0)
(0.0184423 0.218574 0)
(0.0186237 0.204813 0)
(0.0185025 0.189157 0)
(0.0181025 0.171986 0)
(0.0174528 0.153629 0)
(0.0165858 0.134367 0)
(0.0155356 0.114428 0)
(0.0143361 0.0940006 0)
(0.0130205 0.0732299 0)
(0.0116204 0.0522299 0)
(0.0101655 0.0310885 0)
(0.00868334 0.00987447 0)