/*--------------------------------*- C++ -*----------------------------------*\
  =========                 |
  \\      /  F ield         | OpenFOAM: The Open Source CFD Toolbox
   \\    /   O peration     | Website:  https://openfoam.org
    \\  /    A nd           | Version:  7
     \\/     M anipulation  |
\*---------------------------------------------------------------------------*/
FoamFile
{
    version     2.0;
    format      ascii;
    class       volScalarField;
    location    "0.0224";
    object      p;
}
// * * * * * * * * * * * * * * * * * * * * * * * * * * * * * * * * * * * * * //

dimensions      [0 2 -2 0 0 0 0];

internalField   nonuniform List<scalar> 
2500
(
-2.14371e-05
6.38465
9.04819
10.1423
10.7335
11.0819
11.2955
11.4359
11.5349
11.6082
11.665
11.7107
11.7487
11.7816
11.8108
11.8375
11.8625
11.8865
11.9098
11.9328
11.9556
11.9785
12.0015
12.0248
12.0485
12.0726
12.0972
12.1224
12.1484
12.1754
12.2035
12.2331
12.2644
12.298
12.3344
12.3745
12.4192
12.47
12.5287
12.5978
12.6814
12.785
12.9182
13.0975
13.355
13.7546
14.413
15.6023
18.3821
24.8907
4.86832
7.46766
8.8845
9.76699
10.3697
10.7755
11.0503
11.2426
11.3819
11.4862
11.5668
11.631
11.6836
11.7281
11.7667
11.8011
11.8325
11.8618
11.8896
11.9164
11.9425
11.9682
11.9938
12.0195
12.0454
12.0716
12.0984
12.1259
12.1543
12.1839
12.2151
12.2481
12.2835
12.3219
12.3641
12.4111
12.4644
12.5258
12.5979
12.6842
12.7899
12.9227
13.0943
13.3232
13.6398
14.0946
14.7573
15.7127
17.2153
19.9319
7.705
8.46813
9.21053
9.83318
10.319
10.6808
10.9476
11.1462
11.2965
11.4124
11.5038
11.5775
11.6384
11.6898
11.7344
11.774
11.8097
11.8427
11.8737
11.9033
11.9319
11.9598
11.9874
12.0148
12.0424
12.0703
12.0987
12.1279
12.1582
12.1897
12.223
12.2584
12.2966
12.3382
12.3842
12.4356
12.4942
12.5617
12.641
12.7358
12.8511
12.9941
13.1749
13.4079
13.7135
14.1194
14.6556
15.3327
16.1296
16.9572
9.11517
9.29164
9.67027
10.0708
10.4199
10.7053
10.9335
11.1143
11.2578
11.3727
11.466
11.5428
11.6073
11.6624
11.7105
11.7532
11.7918
11.8274
11.8608
11.8924
11.9229
11.9525
11.9817
12.0106
12.0395
12.0688
12.0985
12.129
12.1606
12.1936
12.2285
12.2656
12.3057
12.3493
12.3976
12.4516
12.5129
12.5832
12.6653
12.7622
12.8781
13.0187
13.1909
13.4036
13.6669
13.9906
14.3801
14.8213
15.2356
15.4425
9.92807
9.90688
10.0824
10.3257
10.5647
10.7793
10.964
11.1193
11.2484
11.3558
11.4457
11.5217
11.5867
11.6431
11.6927
11.7372
11.7777
11.8151
11.8501
11.8833
11.9152
11.9462
11.9766
12.0068
12.0368
12.0672
12.098
12.1296
12.1623
12.1964
12.2324
12.2707
12.312
12.357
12.4066
12.4618
12.5241
12.595
12.6768
12.7719
12.8834
13.0152
13.1712
13.3557
13.5718
13.819
14.0904
14.3632
14.5613
14.5522
10.4399
10.3538
10.4223
10.5639
10.7228
10.8789
11.0229
11.1508
11.2622
11.3585
11.4415
11.5136
11.5765
11.6321
11.6818
11.7268
11.768
11.8063
11.8422
11.8765
11.9094
11.9413
11.9727
12.0037
12.0346
12.0658
12.0974
12.1298
12.1633
12.1982
12.2349
12.274
12.316
12.3615
12.4114
12.4667
12.5285
12.5981
12.6773
12.7678
12.8716
12.9909
13.1274
13.2822
13.4541
13.6377
13.8221
13.985
14.0668
13.9821
10.781
10.6822
10.6972
10.7757
10.8782
10.9887
11.0978
11.2001
11.2931
11.3765
11.4508
11.517
11.5761
11.6293
11.6776
11.7219
11.7629
11.8012
11.8375
11.8722
11.9056
11.9381
11.97
12.0016
12.0331
12.0648
12.097
12.1299
12.1639
12.1992
12.2363
12.2757
12.3177
12.3632
12.4126
12.467
12.5271
12.5941
12.669
12.753
12.8473
12.9526
13.0691
13.1958
13.3294
13.4629
13.5855
13.6791
13.7013
13.5984
11.0228
10.9293
10.9183
10.9582
11.0222
11.0985
11.1793
11.2592
11.335
11.4056
11.4704
11.5297
11.5839
11.6336
11.6795
11.7222
11.7622
11.7999
11.8359
11.8705
11.9039
11.9366
11.9687
12.0006
12.0324
12.0645
12.0969
12.1301
12.1643
12.1997
12.2369
12.2761
12.3178
12.3626
12.411
12.4637
12.5213
12.5846
12.6543
12.731
12.815
12.9063
13.004
13.1059
13.2081
13.3036
13.3832
13.4336
13.4258
13.3254
11.204
11.1202
11.0969
11.1133
11.1513
11.2027
11.2614
11.3226
11.3833
11.4418
11.4973
11.5494
11.5982
11.6438
11.6867
11.7271
11.7655
11.8021
11.8373
11.8713
11.9045
11.937
11.969
12.0009
12.0327
12.0648
12.0973
12.1305
12.1646
12.2
12.2369
12.2756
12.3166
12.3604
12.4072
12.4577
12.5123
12.5715
12.6355
12.7045
12.7784
12.8565
12.9373
13.0183
13.0955
13.1627
13.2127
13.2363
13.2135
13.1215
11.3456
11.2713
11.2424
11.2447
11.2652
11.2987
11.3404
11.3866
11.4345
11.4823
11.5291
11.5742
11.6174
11.6587
11.6982
11.736
11.7723
11.8073
11.8414
11.8745
11.907
11.939
11.9708
12.0024
12.034
12.0659
12.0983
12.1313
12.1651
12.2001
12.2365
12.2746
12.3146
12.357
12.402
12.45
12.5012
12.5559
12.6141
12.6756
12.74
12.8061
12.8724
12.9361
12.9937
13.0401
13.0698
13.0767
13.0467
12.9638
11.4596
11.3934
11.3625
11.3561
11.365
11.3856
11.4145
11.4488
11.486
11.5247
11.5636
11.6023
11.6401
11.677
11.713
11.7479
11.7819
11.8152
11.8477
11.8798
11.9114
11.9427
11.9738
12.005
12.0362
12.0678
12.0998
12.1324
12.1659
12.2003
12.236
12.2731
12.312
12.3528
12.3957
12.441
12.4887
12.539
12.5915
12.6459
12.7016
12.7572
12.8111
12.8608
12.9032
12.9344
12.9501
12.9465
12.9133
12.8388
11.5533
11.4938
11.4625
11.451
11.4521
11.4635
11.4828
11.5077
11.5363
11.5671
11.5993
11.6321
11.6649
11.6977
11.7301
11.7621
11.7938
11.8251
11.856
11.8867
11.9172
11.9476
11.9781
12.0086
12.0393
12.0703
12.1019
12.134
12.1668
12.2006
12.2354
12.2715
12.309
12.3481
12.3889
12.4314
12.4756
12.5215
12.5687
12.6166
12.6644
12.711
12.7545
12.793
12.8237
12.8436
12.8497
12.8395
12.8054
12.7379
11.6314
11.5774
11.5466
11.532
11.5278
11.5327
11.5448
11.5624
11.5841
11.6085
11.6348
11.6624
11.6908
11.7196
11.7487
11.7779
11.8072
11.8364
11.8657
11.8949
11.9243
11.9537
11.9832
12.013
12.043
12.0735
12.1044
12.1358
12.168
12.201
12.2349
12.2698
12.3059
12.3432
12.3817
12.4215
12.4624
12.5042
12.5464
12.5884
12.6294
12.6681
12.7031
12.7326
12.7543
12.7658
12.7653
12.751
12.7171
12.6557
11.6973
11.6477
11.6178
11.6013
11.5936
11.5938
11.6006
11.6126
11.6286
11.6478
11.6692
11.6923
11.7167
11.742
11.768
11.7945
11.8215
11.8487
11.8763
11.9041
11.9321
11.9604
11.989
12.018
12.0473
12.077
12.1072
12.138
12.1694
12.2015
12.2344
12.2681
12.3027
12.3382
12.3746
12.4117
12.4494
12.4873
12.525
12.5618
12.5968
12.629
12.657
12.6792
12.694
12.6994
12.6943
12.6775
12.6443
12.5881
11.753
11.7072
11.6782
11.6607
11.6507
11.6475
11.6503
11.658
11.6696
11.6844
11.7018
11.7211
11.742
11.7642
11.7874
11.8114
11.8361
11.8615
11.8873
11.9137
11.9405
11.9677
11.9953
12.0233
12.0518
12.0808
12.1103
12.1403
12.1708
12.202
12.2339
12.2664
12.2996
12.3333
12.3676
12.4022
12.4369
12.4714
12.505
12.5372
12.5671
12.5938
12.616
12.6325
12.6419
12.6429
12.6345
12.6162
12.5841
12.5323
11.8003
11.7576
11.7296
11.7116
11.7
11.6944
11.6942
11.6986
11.7068
11.7181
11.732
11.7482
11.7661
11.7855
11.8062
11.8279
11.8507
11.8742
11.8985
11.9234
11.949
11.9751
12.0017
12.0289
12.0565
12.0847
12.1134
12.1426
12.1724
12.2026
12.2335
12.2648
12.2965
12.3286
12.3609
12.3932
12.4252
12.4565
12.4865
12.5147
12.5403
12.5623
12.5799
12.5918
12.5971
12.5948
12.5842
12.5651
12.5342
12.4862
11.8405
11.8002
11.7733
11.7551
11.7425
11.7352
11.7327
11.7346
11.74
11.7485
11.7597
11.7731
11.7884
11.8055
11.824
11.8437
11.8646
11.8865
11.9094
11.933
11.9573
11.9824
12.0081
12.0344
12.0612
12.0886
12.1165
12.145
12.1739
12.2033
12.2331
12.2632
12.2936
12.3241
12.3546
12.3848
12.4143
12.4428
12.4697
12.4945
12.5164
12.5347
12.5484
12.5568
12.5589
12.5541
12.542
12.5226
12.4929
12.4482
11.8743
11.8362
11.8102
11.792
11.7787
11.7702
11.7661
11.766
11.7693
11.7755
11.7844
11.7956
11.8089
11.8239
11.8404
11.8585
11.8777
11.8982
11.9196
11.9421
11.9653
11.9894
12.0142
12.0396
12.0657
12.0923
12.1195
12.1472
12.1753
12.2038
12.2327
12.2617
12.2909
12.32
12.3488
12.377
12.4044
12.4305
12.4547
12.4766
12.4954
12.5106
12.5212
12.5268
12.5265
12.5199
12.5068
12.4873
12.4588
12.4169
11.9026
11.8663
11.8411
11.823
11.8093
11.8
11.7947
11.793
11.7946
11.7991
11.8062
11.8156
11.827
11.8403
11.8553
11.8718
11.8897
11.9088
11.9291
11.9504
11.9727
11.9959
12.0198
12.0445
12.0698
12.0958
12.1223
12.1492
12.1766
12.2043
12.2323
12.2604
12.2884
12.3162
12.3435
12.3701
12.3956
12.4196
12.4415
12.461
12.4773
12.4899
12.4981
12.5015
12.4994
12.4914
12.4776
12.4583
12.4308
12.3914
11.926
11.8912
11.8667
11.8488
11.8348
11.8248
11.8186
11.8159
11.8162
11.8193
11.8249
11.8328
11.8428
11.8547
11.8683
11.8836
11.9002
11.9183
11.9375
11.9579
11.9793
12.0017
12.0249
12.0489
12.0736
12.0989
12.1247
12.1511
12.1778
12.2048
12.2319
12.2591
12.2862
12.3128
12.3389
12.3641
12.388
12.4102
12.4302
12.4477
12.4619
12.4725
12.4788
12.4804
12.4769
12.4681
12.4539
12.4347
12.4082
12.3709
11.9449
11.9113
11.8874
11.8696
11.8555
11.8451
11.8383
11.8346
11.834
11.836
11.8405
11.8472
11.8561
11.8668
11.8794
11.8935
11.9092
11.9263
11.9447
11.9643
11.985
12.0067
12.0293
12.0526
12.0768
12.1015
12.1268
12.1526
12.1788
12.2051
12.2316
12.2581
12.2842
12.31
12.335
12.3589
12.3815
12.4023
12.4208
12.4366
12.4493
12.4582
12.4631
12.4634
12.4589
12.4493
12.4349
12.4159
12.3903
12.3546
11.9595
11.9269
11.9035
11.8859
11.8717
11.8611
11.8537
11.8495
11.8481
11.8493
11.8529
11.8588
11.8667
11.8766
11.8883
11.9017
11.9166
11.9329
11.9507
11.9696
11.9897
12.0108
12.0328
12.0557
12.0794
12.1037
12.1286
12.1539
12.1795
12.2054
12.2313
12.2572
12.2827
12.3076
12.3318
12.3548
12.3763
12.3959
12.4133
12.4279
12.4392
12.447
12.4507
12.45
12.4448
12.4348
12.4202
12.4014
12.3765
12.3422
11.9703
11.9384
11.9154
11.8979
11.8837
11.8728
11.8652
11.8605
11.8586
11.8593
11.8623
11.8675
11.8748
11.884
11.8951
11.9078
11.9221
11.938
11.9552
11.9736
11.9932
12.0139
12.0356
12.0581
12.0814
12.1054
12.1299
12.1548
12.1801
12.2056
12.2311
12.2565
12.2814
12.3058
12.3293
12.3516
12.3724
12.3912
12.4076
12.4213
12.4318
12.4386
12.4416
12.4402
12.4344
12.4241
12.4094
12.3908
12.3665
12.3332
11.9774
11.946
11.9232
11.9058
11.8916
11.8806
11.8728
11.8678
11.8656
11.8659
11.8685
11.8733
11.8802
11.889
11.8996
11.9119
11.9259
11.9413
11.9582
11.9763
11.9956
12.016
12.0374
12.0597
12.0828
12.1065
12.1308
12.1555
12.1805
12.2057
12.2309
12.256
12.2806
12.3046
12.3277
12.3495
12.3697
12.388
12.4039
12.4169
12.4268
12.4331
12.4355
12.4337
12.4276
12.4171
12.4024
12.384
12.3599
12.3273
11.981
11.9497
11.9271
11.9098
11.8955
11.8845
11.8766
11.8715
11.8691
11.8692
11.8716
11.8762
11.8828
11.8914
11.9019
11.914
11.9278
11.943
11.9597
11.9777
11.9968
12.0171
12.0384
12.0605
12.0834
12.107
12.1312
12.1558
12.1807
12.2058
12.2309
12.2557
12.2802
12.304
12.3268
12.3484
12.3684
12.3864
12.402
12.4148
12.4244
12.4304
12.4325
12.4305
12.4243
12.4137
12.3989
12.3806
12.3567
12.3245
11.981
11.9497
11.9271
11.9098
11.8955
11.8845
11.8766
11.8715
11.8691
11.8692
11.8716
11.8762
11.8828
11.8914
11.9019
11.914
11.9278
11.943
11.9597
11.9777
11.9968
12.0171
12.0384
12.0605
12.0834
12.107
12.1312
12.1558
12.1807
12.2058
12.2309
12.2557
12.2802
12.304
12.3268
12.3484
12.3684
12.3864
12.402
12.4148
12.4244
12.4304
12.4325
12.4305
12.4243
12.4137
12.3989
12.3806
12.3567
12.3245
11.9774
11.946
11.9232
11.9058
11.8916
11.8806
11.8728
11.8678
11.8656
11.8659
11.8685
11.8733
11.8802
11.889
11.8996
11.9119
11.9259
11.9413
11.9582
11.9763
11.9956
12.016
12.0374
12.0597
12.0828
12.1065
12.1308
12.1555
12.1805
12.2057
12.2309
12.256
12.2806
12.3046
12.3277
12.3495
12.3697
12.388
12.4039
12.4169
12.4268
12.4331
12.4355
12.4337
12.4276
12.4171
12.4024
12.384
12.3599
12.3273
11.9703
11.9384
11.9154
11.8979
11.8837
11.8728
11.8652
11.8605
11.8586
11.8592
11.8623
11.8675
11.8748
11.884
11.8951
11.9078
11.9221
11.938
11.9552
11.9736
11.9932
12.0139
12.0356
12.0581
12.0814
12.1054
12.1299
12.1548
12.1801
12.2056
12.2311
12.2565
12.2814
12.3058
12.3293
12.3516
12.3724
12.3912
12.4076
12.4213
12.4318
12.4386
12.4415
12.4402
12.4344
12.4241
12.4094
12.3908
12.3665
12.3332
11.9595
11.9269
11.9035
11.8859
11.8717
11.861
11.8537
11.8495
11.8481
11.8493
11.8529
11.8588
11.8667
11.8766
11.8883
11.9017
11.9166
11.9329
11.9506
11.9696
11.9897
12.0108
12.0328
12.0557
12.0794
12.1037
12.1286
12.1539
12.1795
12.2054
12.2313
12.2572
12.2827
12.3076
12.3318
12.3548
12.3763
12.3959
12.4133
12.4279
12.4392
12.447
12.4507
12.45
12.4448
12.4348
12.4202
12.4014
12.3765
12.3422
11.9448
11.9113
11.8874
11.8696
11.8555
11.8451
11.8382
11.8346
11.834
11.836
11.8405
11.8472
11.8561
11.8668
11.8794
11.8935
11.9092
11.9263
11.9447
11.9643
11.985
12.0067
12.0292
12.0526
12.0768
12.1015
12.1268
12.1526
12.1788
12.2051
12.2316
12.2581
12.2842
12.31
12.335
12.3589
12.3815
12.4023
12.4208
12.4366
12.4493
12.4582
12.4631
12.4634
12.4589
12.4493
12.4349
12.4159
12.3903
12.3546
11.926
11.8912
11.8667
11.8488
11.8348
11.8248
11.8186
11.8158
11.8162
11.8193
11.8249
11.8328
11.8428
11.8547
11.8683
11.8835
11.9002
11.9183
11.9375
11.9579
11.9793
12.0017
12.0249
12.0489
12.0735
12.0989
12.1247
12.1511
12.1778
12.2048
12.2319
12.2591
12.2862
12.3128
12.3389
12.3641
12.388
12.4102
12.4302
12.4477
12.4619
12.4725
12.4788
12.4804
12.4769
12.4681
12.4539
12.4347
12.4082
12.3709
11.9026
11.8663
11.8411
11.823
11.8093
11.7999
11.7947
11.793
11.7946
11.7991
11.8062
11.8156
11.827
11.8403
11.8553
11.8718
11.8897
11.9088
11.9291
11.9504
11.9727
11.9959
12.0198
12.0445
12.0698
12.0958
12.1223
12.1492
12.1766
12.2043
12.2323
12.2604
12.2884
12.3162
12.3435
12.3701
12.3956
12.4196
12.4415
12.461
12.4773
12.4899
12.4981
12.5015
12.4994
12.4914
12.4776
12.4582
12.4308
12.3914
11.8743
11.8362
11.8102
11.792
11.7787
11.7702
11.7661
11.766
11.7692
11.7755
11.7844
11.7956
11.8088
11.8238
11.8404
11.8585
11.8777
11.8982
11.9196
11.942
11.9653
11.9894
12.0142
12.0396
12.0657
12.0923
12.1195
12.1472
12.1753
12.2038
12.2327
12.2617
12.2909
12.32
12.3488
12.377
12.4044
12.4305
12.4547
12.4766
12.4954
12.5106
12.5212
12.5268
12.5265
12.5199
12.5068
12.4873
12.4588
12.4169
11.8404
11.8002
11.7733
11.7551
11.7424
11.7351
11.7327
11.7345
11.74
11.7485
11.7597
11.7731
11.7884
11.8055
11.824
11.8437
11.8646
11.8865
11.9093
11.933
11.9573
11.9824
12.0081
12.0343
12.0612
12.0886
12.1165
12.145
12.1739
12.2033
12.233
12.2632
12.2936
12.3241
12.3546
12.3848
12.4143
12.4428
12.4697
12.4945
12.5164
12.5347
12.5484
12.5568
12.5589
12.5541
12.542
12.5226
12.4929
12.4482
11.8003
11.7575
11.7296
11.7116
11.7
11.6944
11.6942
11.6986
11.7068
11.7181
11.732
11.7481
11.766
11.7855
11.8061
11.8279
11.8506
11.8742
11.8985
11.9234
11.949
11.9751
12.0017
12.0289
12.0565
12.0847
12.1134
12.1426
12.1724
12.2026
12.2334
12.2648
12.2965
12.3286
12.3609
12.3932
12.4252
12.4564
12.4865
12.5147
12.5403
12.5623
12.5799
12.5918
12.5971
12.5948
12.5842
12.5651
12.5342
12.4862
11.753
11.7072
11.6782
11.6607
11.6507
11.6475
11.6503
11.658
11.6696
11.6844
11.7018
11.7211
11.742
11.7642
11.7873
11.8114
11.8361
11.8615
11.8873
11.9137
11.9405
11.9677
11.9953
12.0233
12.0518
12.0808
12.1103
12.1403
12.1708
12.202
12.2339
12.2664
12.2996
12.3333
12.3676
12.4022
12.4369
12.4713
12.505
12.5372
12.5671
12.5938
12.616
12.6325
12.6419
12.6428
12.6344
12.6162
12.5841
12.5323
11.6973
11.6477
11.6178
11.6013
11.5936
11.5938
11.6006
11.6126
11.6286
11.6478
11.6692
11.6923
11.7167
11.742
11.768
11.7945
11.8215
11.8487
11.8763
11.9041
11.9321
11.9604
11.989
12.018
12.0473
12.077
12.1072
12.138
12.1694
12.2015
12.2343
12.2681
12.3027
12.3382
12.3746
12.4117
12.4494
12.4873
12.525
12.5618
12.5968
12.629
12.657
12.6792
12.694
12.6994
12.6942
12.6775
12.6443
12.5881
11.6314
11.5774
11.5466
11.532
11.5278
11.5326
11.5448
11.5624
11.584
11.6085
11.6348
11.6624
11.6908
11.7196
11.7487
11.7779
11.8072
11.8364
11.8657
11.8949
11.9242
11.9537
11.9832
12.013
12.043
12.0734
12.1043
12.1358
12.168
12.201
12.2349
12.2698
12.3059
12.3432
12.3817
12.4215
12.4624
12.5041
12.5463
12.5884
12.6294
12.6681
12.7031
12.7326
12.7542
12.7658
12.7653
12.751
12.7171
12.6557
11.5533
11.4938
11.4625
11.451
11.4521
11.4635
11.4828
11.5077
11.5363
11.5671
11.5993
11.632
11.6649
11.6977
11.7301
11.7621
11.7938
11.825
11.856
11.8867
11.9172
11.9476
11.978
12.0086
12.0393
12.0703
12.1018
12.134
12.1668
12.2006
12.2354
12.2715
12.309
12.3481
12.3888
12.4314
12.4756
12.5215
12.5687
12.6166
12.6644
12.7109
12.7545
12.793
12.8237
12.8435
12.8497
12.8395
12.8054
12.7379
11.4596
11.3934
11.3625
11.3561
11.365
11.3856
11.4145
11.4488
11.486
11.5247
11.5636
11.6022
11.6401
11.677
11.7129
11.7479
11.7819
11.8152
11.8477
11.8798
11.9114
11.9427
11.9738
12.005
12.0362
12.0678
12.0998
12.1324
12.1658
12.2003
12.236
12.2731
12.312
12.3528
12.3957
12.441
12.4887
12.5389
12.5915
12.6459
12.7015
12.7572
12.8111
12.8608
12.9032
12.9343
12.9501
12.9465
12.9133
12.8388
11.3456
11.2713
11.2424
11.2447
11.2652
11.2986
11.3404
11.3866
11.4344
11.4823
11.5291
11.5742
11.6174
11.6587
11.6982
11.736
11.7723
11.8073
11.8413
11.8745
11.907
11.939
11.9707
12.0023
12.034
12.0659
12.0983
12.1313
12.1651
12.2001
12.2365
12.2745
12.3146
12.357
12.402
12.4499
12.5012
12.5559
12.6141
12.6756
12.7399
12.8061
12.8723
12.9361
12.9937
13.0401
13.0698
13.0767
13.0466
12.9638
11.204
11.1202
11.0968
11.1133
11.1512
11.2026
11.2613
11.3226
11.3833
11.4418
11.4973
11.5494
11.5982
11.6438
11.6867
11.7271
11.7655
11.8021
11.8373
11.8713
11.9044
11.9369
11.969
12.0009
12.0327
12.0648
12.0973
12.1305
12.1646
12.2
12.2368
12.2756
12.3166
12.3604
12.4072
12.4577
12.5123
12.5715
12.6355
12.7045
12.7784
12.8565
12.9373
13.0183
13.0954
13.1627
13.2127
13.2363
13.2135
13.1215
11.0228
10.9293
10.9183
10.9582
11.0221
11.0985
11.1793
11.2591
11.335
11.4055
11.4704
11.5296
11.5839
11.6336
11.6795
11.7222
11.7622
11.7999
11.8359
11.8704
11.9039
11.9366
11.9687
12.0006
12.0324
12.0644
12.0969
12.1301
12.1642
12.1997
12.2369
12.2761
12.3178
12.3626
12.411
12.4637
12.5213
12.5846
12.6543
12.731
12.815
12.9063
13.004
13.1059
13.208
13.3036
13.3832
13.4336
13.4257
13.3254
10.7809
10.6822
10.6972
10.7757
10.8782
10.9887
11.0978
11.2
11.2931
11.3765
11.4508
11.517
11.5761
11.6293
11.6776
11.7219
11.7629
11.8012
11.8375
11.8721
11.9055
11.9381
11.97
12.0016
12.0331
12.0648
12.097
12.1299
12.1639
12.1992
12.2363
12.2756
12.3177
12.3631
12.4126
12.467
12.5271
12.5941
12.669
12.753
12.8473
12.9526
13.0691
13.1958
13.3294
13.4629
13.5855
13.6791
13.7013
13.5983
10.4399
10.3538
10.4222
10.5639
10.7227
10.8789
11.0229
11.1508
11.2622
11.3584
11.4415
11.5136
11.5765
11.6321
11.6818
11.7268
11.768
11.8063
11.8422
11.8765
11.9094
11.9413
11.9726
12.0037
12.0346
12.0658
12.0974
12.1298
12.1633
12.1982
12.2349
12.274
12.316
12.3615
12.4114
12.4667
12.5285
12.5981
12.6773
12.7677
12.8716
12.9909
13.1274
13.2822
13.4541
13.6377
13.8221
13.985
14.0668
13.9821
9.92801
9.90683
10.0823
10.3256
10.5647
10.7793
10.964
11.1192
11.2484
11.3558
11.4457
11.5217
11.5866
11.643
11.6927
11.7372
11.7777
11.8151
11.8501
11.8833
11.9152
11.9462
11.9766
12.0067
12.0368
12.0672
12.098
12.1296
12.1623
12.1964
12.2324
12.2707
12.312
12.357
12.4066
12.4618
12.5241
12.595
12.6768
12.7719
12.8834
13.0151
13.1712
13.3557
13.5718
13.819
14.0904
14.3632
14.5613
14.5522
9.11512
9.29158
9.67022
10.0708
10.4199
10.7053
10.9334
11.1143
11.2578
11.3727
11.4659
11.5428
11.6073
11.6624
11.7105
11.7532
11.7918
11.8274
11.8608
11.8924
11.9229
11.9525
11.9817
12.0106
12.0395
12.0687
12.0985
12.129
12.1606
12.1936
12.2285
12.2656
12.3056
12.3493
12.3976
12.4516
12.5128
12.5832
12.6653
12.7621
12.8781
13.0187
13.1909
13.4036
13.6668
13.9906
14.3801
14.8213
15.2356
15.4425
7.70493
8.46807
9.21047
9.83312
10.319
10.6808
10.9475
11.1462
11.2965
11.4124
11.5038
11.5775
11.6383
11.6898
11.7344
11.7739
11.8097
11.8427
11.8737
11.9033
11.9318
11.9598
11.9874
12.0148
12.0424
12.0703
12.0987
12.1279
12.1581
12.1897
12.223
12.2584
12.2966
12.3382
12.3841
12.4356
12.4941
12.5617
12.641
12.7358
12.8511
12.994
13.1749
13.4079
13.7135
14.1194
14.6555
15.3326
16.1296
16.9572
4.86823
7.46758
8.88444
9.76693
10.3697
10.7755
11.0503
11.2425
11.3819
11.4862
11.5668
11.6309
11.6836
11.7281
11.7667
11.8011
11.8325
11.8618
11.8896
11.9164
11.9425
11.9682
11.9938
12.0195
12.0453
12.0716
12.0984
12.1259
12.1543
12.1839
12.215
12.2481
12.2834
12.3218
12.364
12.4111
12.4644
12.5258
12.5979
12.6842
12.7899
12.9227
13.0943
13.3232
13.6398
14.0946
14.7573
15.7127
17.2153
19.9319
-0.000129028
6.38457
9.04812
10.1423
10.7335
11.0819
11.2954
11.4359
11.5348
11.6082
11.665
11.7106
11.7487
11.7815
11.8108
11.8375
11.8625
11.8865
11.9098
11.9328
11.9556
11.9785
12.0015
12.0248
12.0485
12.0726
12.0972
12.1224
12.1484
12.1754
12.2035
12.233
12.2644
12.298
12.3344
12.3745
12.4192
12.47
12.5287
12.5978
12.6813
12.785
12.9182
13.0975
13.3549
13.7545
14.413
15.6023
18.3821
24.8907
)
;

boundaryField
{
    movingWallTop
    {
        type            zeroGradient;
    }
    movingWallBottom
    {
        type            zeroGradient;
    }
    fixedWalls
    {
        type            zeroGradient;
    }
    frontAndBack
    {
        type            empty;
    }
}


// ************************************************************************* //
