/*--------------------------------*- C++ -*----------------------------------*\
  =========                 |
  \\      /  F ield         | OpenFOAM: The Open Source CFD Toolbox
   \\    /   O peration     | Website:  https://openfoam.org
    \\  /    A nd           | Version:  7
     \\/     M anipulation  |
\*---------------------------------------------------------------------------*/
FoamFile
{
    version     2.0;
    format      ascii;
    class       volScalarField;
    location    "0.0188";
    object      p;
}
// * * * * * * * * * * * * * * * * * * * * * * * * * * * * * * * * * * * * * //

dimensions      [0 2 -2 0 0 0 0];

internalField   nonuniform List<scalar> 
2500
(
-2.05455e-05
-6.51026
-9.2923
-10.4841
-11.1449
-11.5464
-11.8052
-11.9853
-12.1186
-12.2216
-12.3037
-12.3707
-12.4264
-12.4734
-12.5136
-12.5484
-12.5788
-12.6056
-12.6295
-12.651
-12.6706
-12.6885
-12.705
-12.7204
-12.735
-12.749
-12.7624
-12.7757
-12.7888
-12.8021
-12.8159
-12.8303
-12.8458
-12.8627
-12.8816
-12.9032
-12.9284
-12.9584
-12.9948
-13.04
-13.0975
-13.1726
-13.2743
-13.4183
-13.6358
-13.9883
-14.5832
-15.6803
-18.3455
-24.7302
-4.95718
-7.67545
-9.17979
-10.1369
-10.8012
-11.2574
-11.575
-11.8043
-11.9758
-12.1078
-12.2121
-12.2963
-12.3656
-12.4235
-12.4725
-12.5146
-12.5511
-12.5832
-12.6116
-12.6371
-12.6601
-12.6813
-12.7008
-12.7191
-12.7365
-12.7532
-12.7695
-12.7856
-12.8019
-12.8187
-12.8362
-12.8549
-12.8753
-12.8979
-12.9234
-12.9529
-12.9875
-13.0291
-13.0799
-13.1433
-13.2241
-13.3297
-13.4711
-13.6662
-13.9442
-14.3533
-14.9592
-15.8442
-17.2625
-19.8617
-7.92971
-8.75968
-9.55832
-10.2368
-10.7742
-11.1811
-11.4873
-11.7205
-11.9011
-12.0432
-12.1571
-12.2498
-12.3264
-12.3906
-12.445
-12.4917
-12.5323
-12.5679
-12.5994
-12.6277
-12.6532
-12.6767
-12.6984
-12.7188
-12.7383
-12.757
-12.7755
-12.7938
-12.8125
-12.8318
-12.8521
-12.8739
-12.8977
-12.9242
-12.9542
-12.9889
-13.0295
-13.078
-13.137
-13.2097
-13.3011
-13.418
-13.5701
-13.7712
-14.0408
-14.4056
-14.8944
-15.5194
-16.2632
-17.0265
-9.44258
-9.65255
-10.0689
-10.5114
-10.9019
-11.2264
-11.49
-11.7027
-11.8744
-12.0141
-12.1286
-12.2234
-12.3027
-12.3698
-12.4271
-12.4765
-12.5196
-12.5575
-12.5911
-12.6213
-12.6487
-12.6739
-12.6973
-12.7193
-12.7404
-12.7608
-12.7808
-12.8009
-12.8214
-12.8426
-12.865
-12.8891
-12.9154
-12.9446
-12.9776
-13.0155
-13.0596
-13.1118
-13.1742
-13.2501
-13.3433
-13.4591
-13.6043
-13.7875
-14.0184
-14.3068
-14.659
-15.0619
-15.4422
-15.6193
-10.3314
-10.3263
-10.527
-10.8013
-11.0736
-11.3214
-11.5375
-11.7218
-11.8772
-12.0078
-12.1177
-12.2107
-12.2897
-12.3574
-12.4158
-12.4665
-12.511
-12.5503
-12.5854
-12.617
-12.6457
-12.6722
-12.6969
-12.7202
-12.7426
-12.7643
-12.7857
-12.8072
-12.8291
-12.8518
-12.8758
-12.9016
-12.9297
-12.9607
-12.9956
-13.0354
-13.0812
-13.1346
-13.1976
-13.2726
-13.3625
-13.4708
-13.6018
-13.7594
-13.9471
-14.1648
-14.407
-14.6529
-14.8304
-14.8105
-10.9008
-10.821
-10.9059
-11.0706
-11.2561
-11.4402
-11.612
-11.7663
-11.902
-12.0199
-12.1219
-12.2101
-12.2865
-12.3528
-12.4106
-12.4614
-12.5063
-12.5462
-12.582
-12.6144
-12.6441
-12.6715
-12.6971
-12.7213
-12.7446
-12.7672
-12.7896
-12.8121
-12.8351
-12.8589
-12.884
-12.9108
-12.94
-12.972
-13.0077
-13.048
-13.0939
-13.1466
-13.2077
-13.2789
-13.3621
-13.4594
-13.5728
-13.7033
-13.8505
-14.01
-14.1722
-14.3168
-14.3877
-14.3037
-11.2847
-11.1874
-11.2134
-11.3093
-11.4332
-11.5673
-11.7007
-11.8267
-11.9421
-12.0458
-12.138
-12.2196
-12.2915
-12.3549
-12.411
-12.4608
-12.5051
-12.5449
-12.5808
-12.6135
-12.6435
-12.6713
-12.6975
-12.7222
-12.7461
-12.7694
-12.7924
-12.8155
-12.8391
-12.8635
-12.8892
-12.9165
-12.946
-12.9782
-13.0138
-13.0535
-13.0981
-13.1486
-13.2061
-13.2716
-13.3462
-13.431
-13.5262
-13.6314
-13.7439
-13.8581
-13.9642
-14.046
-14.0641
-13.9683
-11.5587
-11.4648
-11.4612
-11.5145
-11.5958
-11.692
-11.7941
-11.8953
-11.9916
-12.081
-12.1627
-12.2366
-12.303
-12.3625
-12.4159
-12.4638
-12.5069
-12.5459
-12.5813
-12.6138
-12.6437
-12.6716
-12.6979
-12.7229
-12.747
-12.7705
-12.7938
-12.8172
-12.841
-12.8656
-12.8914
-12.9187
-12.9479
-12.9796
-13.0143
-13.0525
-13.0949
-13.1422
-13.1949
-13.2538
-13.3193
-13.3915
-13.4699
-13.5529
-13.6375
-13.7178
-13.7857
-13.8293
-13.822
-13.7325
-11.7645
-11.6797
-11.6617
-11.6887
-11.7408
-11.8091
-11.8863
-11.9665
-12.0458
-12.1218
-12.193
-12.2589
-12.3193
-12.3743
-12.4243
-12.4697
-12.511
-12.5487
-12.5832
-12.615
-12.6445
-12.6721
-12.6982
-12.7231
-12.7471
-12.7706
-12.7938
-12.8171
-12.8408
-12.8652
-12.8906
-12.9174
-12.9459
-12.9766
-13.0097
-13.0459
-13.0855
-13.1289
-13.1764
-13.2285
-13.2849
-13.3454
-13.409
-13.4738
-13.5365
-13.5922
-13.6345
-13.6552
-13.6362
-13.5575
-11.9249
-11.8499
-11.8254
-11.8362
-11.8685
-11.9163
-11.9741
-12.0371
-12.1018
-12.1656
-12.227
-12.285
-12.3392
-12.3893
-12.4355
-12.478
-12.5171
-12.553
-12.5862
-12.6169
-12.6457
-12.6726
-12.6982
-12.7227
-12.7463
-12.7695
-12.7924
-12.8153
-12.8386
-12.8624
-12.8871
-12.9131
-12.9404
-12.9696
-13.0009
-13.0346
-13.0709
-13.1102
-13.1526
-13.1979
-13.246
-13.2962
-13.3472
-13.3973
-13.4434
-13.4815
-13.5068
-13.5138
-13.4901
-13.422
-12.0536
-11.9875
-11.9605
-11.9614
-11.9803
-12.0132
-12.0561
-12.1052
-12.1574
-12.2105
-12.2628
-12.3134
-12.3614
-12.4066
-12.4488
-12.4881
-12.5246
-12.5585
-12.59
-12.6195
-12.6471
-12.6731
-12.6979
-12.7217
-12.7447
-12.7673
-12.7896
-12.8119
-12.8344
-12.8574
-12.8812
-12.9059
-12.9319
-12.9593
-12.9885
-13.0195
-13.0525
-13.0877
-13.125
-13.1641
-13.2047
-13.246
-13.2868
-13.3252
-13.3588
-13.3844
-13.3985
-13.3975
-13.3725
-13.3138
-12.1588
-12.1006
-12.0733
-12.0681
-12.078
-12.1001
-12.1316
-12.1695
-12.2114
-12.2552
-12.2994
-12.343
-12.3852
-12.4255
-12.4637
-12.4996
-12.5333
-12.5649
-12.5946
-12.6224
-12.6487
-12.6736
-12.6974
-12.7202
-12.7424
-12.7641
-12.7855
-12.8069
-12.8285
-12.8505
-12.8731
-12.8965
-12.9208
-12.9463
-12.9732
-13.0014
-13.0312
-13.0624
-13.095
-13.1286
-13.1627
-13.1965
-13.2289
-13.2583
-13.2827
-13.2995
-13.3063
-13.3006
-13.2762
-13.2254
-12.2462
-12.1949
-12.1684
-12.1598
-12.1635
-12.1778
-12.2006
-12.2297
-12.263
-12.2989
-12.336
-12.3732
-12.4099
-12.4455
-12.4797
-12.5122
-12.543
-12.5721
-12.5997
-12.6257
-12.6505
-12.674
-12.6965
-12.7183
-12.7394
-12.76
-12.7805
-12.8008
-12.8213
-12.842
-12.8632
-12.8851
-12.9077
-12.9312
-12.9557
-12.9813
-13.0079
-13.0355
-13.0638
-13.0925
-13.121
-13.1487
-13.1743
-13.1968
-13.2143
-13.2249
-13.227
-13.2189
-13.1958
-13.1518
-12.3197
-12.2744
-12.2494
-12.2389
-12.2386
-12.2473
-12.2635
-12.2856
-12.3119
-12.341
-12.3719
-12.4035
-12.4351
-12.4662
-12.4964
-12.5256
-12.5534
-12.58
-12.6054
-12.6295
-12.6525
-12.6745
-12.6956
-12.716
-12.7359
-12.7553
-12.7746
-12.7937
-12.8129
-12.8323
-12.852
-12.8722
-12.893
-12.9145
-12.9368
-12.9597
-12.9834
-13.0075
-13.032
-13.0565
-13.0803
-13.1029
-13.1233
-13.1404
-13.1529
-13.1593
-13.1584
-13.1492
-13.1279
-13.0897
-12.3821
-12.3422
-12.319
-12.3078
-12.3048
-12.3095
-12.3208
-12.3374
-12.358
-12.3815
-12.4069
-12.4334
-12.4604
-12.4873
-12.5138
-12.5396
-12.5645
-12.5885
-12.6115
-12.6336
-12.6547
-12.6751
-12.6946
-12.7136
-12.7321
-12.7502
-12.7681
-12.7858
-12.8036
-12.8216
-12.8397
-12.8583
-12.8773
-12.8968
-12.9168
-12.9372
-12.9581
-12.9793
-13.0004
-13.0212
-13.0411
-13.0596
-13.0758
-13.0888
-13.0977
-13.1012
-13.0985
-13.089
-13.0697
-13.0366
-12.4357
-12.4006
-12.3794
-12.3681
-12.3636
-12.3655
-12.373
-12.3853
-12.4012
-12.42
-12.4407
-12.4628
-12.4856
-12.5086
-12.5316
-12.5542
-12.5762
-12.5976
-12.6182
-12.6382
-12.6573
-12.6759
-12.6938
-12.7112
-12.7281
-12.7448
-12.7612
-12.7775
-12.7938
-12.8102
-12.8268
-12.8436
-12.8608
-12.8783
-12.8962
-12.9143
-12.9327
-12.9511
-12.9693
-12.9869
-13.0036
-13.0187
-13.0316
-13.0416
-13.0478
-13.0494
-13.0458
-13.0366
-13.0193
-12.9906
-12.482
-12.4514
-12.4323
-12.4214
-12.416
-12.416
-12.4208
-12.4297
-12.4419
-12.4567
-12.4734
-12.4915
-12.5106
-12.53
-12.5497
-12.5692
-12.5884
-12.6072
-12.6254
-12.6432
-12.6603
-12.677
-12.6931
-12.7089
-12.7242
-12.7393
-12.7542
-12.769
-12.7837
-12.7985
-12.8135
-12.8286
-12.8439
-12.8595
-12.8753
-12.8913
-12.9073
-12.9232
-12.9389
-12.9538
-12.9677
-12.9801
-12.9905
-12.9982
-13.0025
-13.0029
-12.9989
-12.9903
-12.9751
-12.9505
-12.5225
-12.496
-12.4791
-12.4688
-12.4631
-12.4619
-12.4646
-12.4709
-12.48
-12.4915
-12.5049
-12.5196
-12.5352
-12.5514
-12.5679
-12.5845
-12.601
-12.6173
-12.6332
-12.6487
-12.6638
-12.6785
-12.6928
-12.7068
-12.7205
-12.734
-12.7472
-12.7604
-12.7735
-12.7867
-12.7999
-12.8133
-12.8269
-12.8406
-12.8544
-12.8684
-12.8823
-12.896
-12.9093
-12.922
-12.9336
-12.9438
-12.9521
-12.9581
-12.9611
-12.9608
-12.9569
-12.9491
-12.9359
-12.9151
-12.5582
-12.5355
-12.5208
-12.5114
-12.5058
-12.5038
-12.5051
-12.5093
-12.516
-12.5248
-12.5352
-12.5469
-12.5595
-12.5727
-12.5864
-12.6002
-12.6141
-12.6278
-12.6414
-12.6547
-12.6678
-12.6805
-12.693
-12.7052
-12.7171
-12.7289
-12.7405
-12.752
-12.7635
-12.7749
-12.7865
-12.7981
-12.8099
-12.8218
-12.8338
-12.8458
-12.8577
-12.8694
-12.8807
-12.8913
-12.901
-12.9094
-12.9162
-12.9208
-12.923
-12.9224
-12.9187
-12.912
-12.9008
-12.8834
-12.5901
-12.571
-12.5583
-12.5501
-12.5448
-12.5424
-12.5427
-12.5454
-12.5501
-12.5566
-12.5645
-12.5735
-12.5834
-12.594
-12.6049
-12.6162
-12.6275
-12.6389
-12.6502
-12.6614
-12.6723
-12.6831
-12.6936
-12.704
-12.7141
-12.7241
-12.734
-12.7438
-12.7536
-12.7634
-12.7733
-12.7832
-12.7932
-12.8033
-12.8134
-12.8236
-12.8336
-12.8435
-12.853
-12.8618
-12.8699
-12.8768
-12.8822
-12.8859
-12.8876
-12.8869
-12.8837
-12.8781
-12.8689
-12.8548
-12.6189
-12.6031
-12.5926
-12.5855
-12.5807
-12.5782
-12.5778
-12.5794
-12.5825
-12.5871
-12.5928
-12.5995
-12.607
-12.6151
-12.6236
-12.6324
-12.6414
-12.6505
-12.6596
-12.6686
-12.6775
-12.6862
-12.6949
-12.7034
-12.7117
-12.7199
-12.7281
-12.7361
-12.7442
-12.7523
-12.7604
-12.7685
-12.7768
-12.7851
-12.7935
-12.8018
-12.8101
-12.8183
-12.8261
-12.8333
-12.8399
-12.8455
-12.85
-12.853
-12.8543
-12.8537
-12.8512
-12.8467
-12.8396
-12.8285
-12.6452
-12.6327
-12.6242
-12.6184
-12.6143
-12.6119
-12.611
-12.6117
-12.6135
-12.6165
-12.6204
-12.625
-12.6303
-12.6362
-12.6424
-12.6489
-12.6557
-12.6625
-12.6695
-12.6764
-12.6832
-12.69
-12.6967
-12.7033
-12.7099
-12.7163
-12.7226
-12.7289
-12.7352
-12.7415
-12.7479
-12.7543
-12.7608
-12.7673
-12.774
-12.7806
-12.7872
-12.7937
-12.7999
-12.8057
-12.811
-12.8155
-12.8191
-12.8215
-12.8227
-12.8224
-12.8206
-12.8174
-12.8121
-12.8041
-12.6697
-12.6602
-12.6538
-12.6492
-12.6459
-12.6437
-12.6427
-12.6426
-12.6434
-12.645
-12.6473
-12.6501
-12.6535
-12.6572
-12.6614
-12.6658
-12.6703
-12.6751
-12.6799
-12.6848
-12.6896
-12.6945
-12.6993
-12.704
-12.7087
-12.7133
-12.7178
-12.7223
-12.7268
-12.7314
-12.7359
-12.7406
-12.7453
-12.75
-12.7549
-12.7598
-12.7647
-12.7696
-12.7743
-12.7787
-12.7828
-12.7863
-12.7891
-12.7912
-12.7923
-12.7923
-12.7914
-12.7894
-12.7861
-12.781
-12.6928
-12.6864
-12.6819
-12.6787
-12.6762
-12.6743
-12.6732
-12.6726
-12.6725
-12.6729
-12.6737
-12.6749
-12.6765
-12.6784
-12.6805
-12.6829
-12.6854
-12.6881
-12.6909
-12.6938
-12.6967
-12.6996
-12.7025
-12.7053
-12.7082
-12.7109
-12.7136
-12.7164
-12.719
-12.7218
-12.7245
-12.7273
-12.7302
-12.7332
-12.7363
-12.7395
-12.7427
-12.7459
-12.7491
-12.7522
-12.7551
-12.7577
-12.7599
-12.7615
-12.7626
-12.7631
-12.763
-12.7623
-12.761
-12.7587
-12.715
-12.7116
-12.7091
-12.7071
-12.7055
-12.7041
-12.7029
-12.7019
-12.7011
-12.7004
-12.6999
-12.6996
-12.6995
-12.6996
-12.6999
-12.7003
-12.7009
-12.7017
-12.7025
-12.7034
-12.7044
-12.7054
-12.7064
-12.7074
-12.7084
-12.7093
-12.7102
-12.711
-12.7119
-12.7128
-12.7137
-12.7146
-12.7157
-12.7168
-12.7181
-12.7195
-12.721
-12.7226
-12.7243
-12.726
-12.7277
-12.7294
-12.7309
-12.7322
-12.7334
-12.7343
-12.7351
-12.7357
-12.7363
-12.7369
-12.7369
-12.7363
-12.7357
-12.7351
-12.7343
-12.7334
-12.7322
-12.7309
-12.7294
-12.7277
-12.726
-12.7243
-12.7226
-12.721
-12.7195
-12.7181
-12.7168
-12.7157
-12.7146
-12.7137
-12.7128
-12.7119
-12.711
-12.7102
-12.7093
-12.7084
-12.7074
-12.7064
-12.7054
-12.7044
-12.7034
-12.7025
-12.7017
-12.7009
-12.7003
-12.6999
-12.6996
-12.6995
-12.6996
-12.6999
-12.7004
-12.7011
-12.7019
-12.7029
-12.7041
-12.7055
-12.7071
-12.7091
-12.7116
-12.715
-12.7587
-12.761
-12.7623
-12.763
-12.7631
-12.7626
-12.7615
-12.7599
-12.7577
-12.7551
-12.7522
-12.7491
-12.7459
-12.7427
-12.7395
-12.7363
-12.7332
-12.7302
-12.7273
-12.7245
-12.7218
-12.719
-12.7164
-12.7136
-12.7109
-12.7082
-12.7053
-12.7025
-12.6996
-12.6967
-12.6938
-12.6909
-12.6881
-12.6854
-12.6829
-12.6805
-12.6784
-12.6765
-12.6749
-12.6737
-12.6729
-12.6725
-12.6726
-12.6732
-12.6743
-12.6762
-12.6787
-12.6819
-12.6864
-12.6928
-12.781
-12.7861
-12.7894
-12.7914
-12.7923
-12.7923
-12.7912
-12.7891
-12.7863
-12.7828
-12.7787
-12.7743
-12.7696
-12.7647
-12.7598
-12.7549
-12.75
-12.7453
-12.7406
-12.7359
-12.7314
-12.7268
-12.7223
-12.7178
-12.7133
-12.7087
-12.704
-12.6993
-12.6945
-12.6896
-12.6848
-12.6799
-12.6751
-12.6703
-12.6658
-12.6614
-12.6572
-12.6535
-12.6501
-12.6473
-12.645
-12.6434
-12.6426
-12.6427
-12.6437
-12.6459
-12.6492
-12.6538
-12.6602
-12.6696
-12.8041
-12.8121
-12.8174
-12.8206
-12.8224
-12.8227
-12.8215
-12.8191
-12.8155
-12.811
-12.8057
-12.7999
-12.7937
-12.7872
-12.7806
-12.774
-12.7673
-12.7608
-12.7543
-12.7479
-12.7415
-12.7352
-12.7289
-12.7226
-12.7163
-12.7099
-12.7033
-12.6967
-12.69
-12.6832
-12.6764
-12.6695
-12.6625
-12.6557
-12.6489
-12.6424
-12.6362
-12.6303
-12.625
-12.6204
-12.6165
-12.6135
-12.6117
-12.611
-12.6119
-12.6143
-12.6184
-12.6242
-12.6327
-12.6452
-12.8285
-12.8396
-12.8467
-12.8512
-12.8537
-12.8543
-12.853
-12.85
-12.8456
-12.8399
-12.8333
-12.8261
-12.8183
-12.8101
-12.8018
-12.7935
-12.7851
-12.7768
-12.7685
-12.7604
-12.7523
-12.7442
-12.7361
-12.7281
-12.7199
-12.7117
-12.7034
-12.6949
-12.6862
-12.6775
-12.6686
-12.6596
-12.6505
-12.6414
-12.6324
-12.6236
-12.6151
-12.607
-12.5995
-12.5928
-12.5871
-12.5825
-12.5793
-12.5778
-12.5782
-12.5807
-12.5855
-12.5926
-12.6031
-12.6189
-12.8548
-12.8689
-12.8781
-12.8837
-12.8869
-12.8876
-12.8859
-12.8822
-12.8768
-12.8699
-12.8618
-12.853
-12.8435
-12.8336
-12.8236
-12.8134
-12.8033
-12.7932
-12.7832
-12.7733
-12.7634
-12.7536
-12.7438
-12.734
-12.7241
-12.7141
-12.704
-12.6936
-12.6831
-12.6723
-12.6614
-12.6502
-12.6389
-12.6275
-12.6162
-12.6049
-12.594
-12.5834
-12.5735
-12.5645
-12.5566
-12.5501
-12.5454
-12.5427
-12.5424
-12.5448
-12.5501
-12.5583
-12.571
-12.5901
-12.8834
-12.9008
-12.912
-12.9187
-12.9224
-12.923
-12.9208
-12.9162
-12.9094
-12.901
-12.8913
-12.8807
-12.8694
-12.8577
-12.8458
-12.8338
-12.8218
-12.8099
-12.7981
-12.7865
-12.7749
-12.7635
-12.752
-12.7405
-12.7289
-12.7171
-12.7052
-12.693
-12.6805
-12.6678
-12.6547
-12.6414
-12.6278
-12.6141
-12.6002
-12.5864
-12.5727
-12.5595
-12.5469
-12.5352
-12.5248
-12.516
-12.5093
-12.5051
-12.5038
-12.5058
-12.5114
-12.5208
-12.5355
-12.5582
-12.9151
-12.9359
-12.9491
-12.9569
-12.9608
-12.9611
-12.9581
-12.9521
-12.9438
-12.9336
-12.922
-12.9093
-12.896
-12.8823
-12.8684
-12.8544
-12.8406
-12.8269
-12.8133
-12.7999
-12.7867
-12.7735
-12.7604
-12.7472
-12.734
-12.7205
-12.7068
-12.6928
-12.6785
-12.6638
-12.6487
-12.6332
-12.6172
-12.601
-12.5845
-12.5679
-12.5514
-12.5352
-12.5196
-12.5049
-12.4915
-12.48
-12.4709
-12.4646
-12.4618
-12.4631
-12.4688
-12.4791
-12.496
-12.5225
-12.9505
-12.9751
-12.9903
-12.9989
-13.0029
-13.0025
-12.9982
-12.9905
-12.9801
-12.9677
-12.9538
-12.9389
-12.9232
-12.9073
-12.8913
-12.8753
-12.8595
-12.8439
-12.8286
-12.8135
-12.7985
-12.7837
-12.769
-12.7542
-12.7393
-12.7242
-12.7089
-12.6931
-12.677
-12.6603
-12.6432
-12.6254
-12.6072
-12.5884
-12.5692
-12.5497
-12.53
-12.5106
-12.4915
-12.4734
-12.4566
-12.4418
-12.4296
-12.4208
-12.416
-12.416
-12.4214
-12.4323
-12.4514
-12.482
-12.9906
-13.0193
-13.0366
-13.0458
-13.0494
-13.0478
-13.0416
-13.0316
-13.0187
-13.0036
-12.9869
-12.9693
-12.9511
-12.9327
-12.9143
-12.8962
-12.8783
-12.8608
-12.8436
-12.8268
-12.8102
-12.7938
-12.7775
-12.7612
-12.7448
-12.7281
-12.7112
-12.6938
-12.6759
-12.6573
-12.6381
-12.6182
-12.5976
-12.5762
-12.5542
-12.5316
-12.5086
-12.4856
-12.4628
-12.4407
-12.42
-12.4012
-12.3853
-12.373
-12.3655
-12.3636
-12.3681
-12.3794
-12.4006
-12.4357
-13.0366
-13.0697
-13.089
-13.0985
-13.1012
-13.0977
-13.0888
-13.0758
-13.0596
-13.0411
-13.0212
-13.0004
-12.9793
-12.9581
-12.9372
-12.9168
-12.8968
-12.8773
-12.8583
-12.8397
-12.8216
-12.8036
-12.7858
-12.7681
-12.7502
-12.7321
-12.7136
-12.6946
-12.6751
-12.6547
-12.6336
-12.6115
-12.5885
-12.5645
-12.5396
-12.5138
-12.4873
-12.4604
-12.4334
-12.4069
-12.3814
-12.3579
-12.3373
-12.3208
-12.3095
-12.3048
-12.3077
-12.319
-12.3422
-12.3821
-13.0897
-13.1279
-13.1492
-13.1584
-13.1593
-13.1529
-13.1404
-13.1233
-13.1029
-13.0803
-13.0565
-13.032
-13.0075
-12.9834
-12.9597
-12.9368
-12.9145
-12.893
-12.8722
-12.852
-12.8323
-12.8129
-12.7937
-12.7746
-12.7553
-12.7359
-12.716
-12.6956
-12.6745
-12.6525
-12.6295
-12.6054
-12.58
-12.5534
-12.5256
-12.4964
-12.4662
-12.4351
-12.4035
-12.3719
-12.341
-12.3119
-12.2856
-12.2635
-12.2472
-12.2386
-12.2389
-12.2493
-12.2744
-12.3197
-13.1518
-13.1958
-13.2189
-13.227
-13.2249
-13.2143
-13.1968
-13.1743
-13.1487
-13.121
-13.0925
-13.0638
-13.0355
-13.0079
-12.9813
-12.9557
-12.9312
-12.9077
-12.8851
-12.8632
-12.842
-12.8213
-12.8008
-12.7805
-12.76
-12.7394
-12.7183
-12.6965
-12.674
-12.6505
-12.6257
-12.5997
-12.5721
-12.543
-12.5122
-12.4796
-12.4455
-12.4099
-12.3732
-12.336
-12.2989
-12.263
-12.2297
-12.2006
-12.1778
-12.1635
-12.1597
-12.1683
-12.1949
-12.2462
-13.2254
-13.2762
-13.3006
-13.3063
-13.2995
-13.2827
-13.2583
-13.2289
-13.1965
-13.1627
-13.1286
-13.095
-13.0624
-13.0312
-13.0014
-12.9732
-12.9463
-12.9208
-12.8965
-12.8731
-12.8505
-12.8285
-12.8069
-12.7855
-12.7641
-12.7424
-12.7202
-12.6974
-12.6736
-12.6487
-12.6224
-12.5946
-12.5649
-12.5333
-12.4996
-12.4637
-12.4255
-12.3852
-12.343
-12.2994
-12.2552
-12.2114
-12.1695
-12.1316
-12.1001
-12.078
-12.0681
-12.0732
-12.1006
-12.1588
-13.3138
-13.3725
-13.3975
-13.3985
-13.3844
-13.3588
-13.3252
-13.2868
-13.246
-13.2047
-13.1641
-13.125
-13.0877
-13.0525
-13.0195
-12.9885
-12.9593
-12.9319
-12.9059
-12.8812
-12.8574
-12.8344
-12.8119
-12.7896
-12.7673
-12.7447
-12.7217
-12.6979
-12.6731
-12.6471
-12.6194
-12.59
-12.5585
-12.5246
-12.4881
-12.4488
-12.4066
-12.3614
-12.3134
-12.2628
-12.2105
-12.1574
-12.1052
-12.0561
-12.0132
-11.9803
-11.9614
-11.9605
-11.9875
-12.0535
-13.422
-13.4901
-13.5138
-13.5068
-13.4815
-13.4434
-13.3973
-13.3472
-13.2962
-13.246
-13.1979
-13.1526
-13.1102
-13.0709
-13.0346
-13.0009
-12.9696
-12.9404
-12.9131
-12.8871
-12.8624
-12.8386
-12.8153
-12.7924
-12.7695
-12.7463
-12.7227
-12.6982
-12.6726
-12.6456
-12.6169
-12.5862
-12.553
-12.5171
-12.478
-12.4355
-12.3893
-12.3391
-12.285
-12.227
-12.1656
-12.1018
-12.0371
-11.9741
-11.9163
-11.8685
-11.8362
-11.8254
-11.8499
-11.9249
-13.5575
-13.6362
-13.6552
-13.6345
-13.5922
-13.5365
-13.4738
-13.409
-13.3454
-13.2849
-13.2285
-13.1764
-13.1288
-13.0855
-13.0459
-13.0097
-12.9766
-12.9459
-12.9174
-12.8906
-12.8652
-12.8408
-12.8171
-12.7938
-12.7706
-12.7471
-12.7231
-12.6982
-12.6721
-12.6445
-12.615
-12.5832
-12.5487
-12.511
-12.4697
-12.4243
-12.3743
-12.3193
-12.2589
-12.193
-12.1218
-12.0458
-11.9665
-11.8863
-11.8091
-11.7408
-11.6887
-11.6617
-11.6797
-11.7645
-13.7325
-13.822
-13.8293
-13.7857
-13.7178
-13.6375
-13.5529
-13.4699
-13.3915
-13.3193
-13.2538
-13.1949
-13.1422
-13.0949
-13.0525
-13.0143
-12.9796
-12.9479
-12.9187
-12.8914
-12.8656
-12.841
-12.8172
-12.7938
-12.7705
-12.747
-12.7229
-12.6979
-12.6716
-12.6437
-12.6138
-12.5813
-12.5459
-12.5069
-12.4638
-12.4159
-12.3625
-12.303
-12.2365
-12.1627
-12.081
-11.9916
-11.8952
-11.7941
-11.692
-11.5957
-11.5145
-11.4612
-11.4648
-11.5587
-13.9683
-14.0641
-14.046
-13.9642
-13.8581
-13.7439
-13.6314
-13.5262
-13.431
-13.3462
-13.2716
-13.2061
-13.1486
-13.0981
-13.0535
-13.0138
-12.9782
-12.946
-12.9165
-12.8892
-12.8635
-12.8391
-12.8155
-12.7924
-12.7694
-12.7461
-12.7222
-12.6974
-12.6713
-12.6435
-12.6135
-12.5808
-12.5449
-12.5051
-12.4608
-12.411
-12.3549
-12.2915
-12.2196
-12.138
-12.0458
-11.9421
-11.8267
-11.7007
-11.5673
-11.4332
-11.3092
-11.2133
-11.1874
-11.2847
-14.3037
-14.3877
-14.3168
-14.1722
-14.01
-13.8505
-13.7033
-13.5728
-13.4594
-13.3621
-13.2789
-13.2077
-13.1466
-13.0939
-13.048
-13.0077
-12.972
-12.94
-12.9108
-12.884
-12.8589
-12.8351
-12.8121
-12.7896
-12.7672
-12.7446
-12.7213
-12.6971
-12.6715
-12.6441
-12.6144
-12.582
-12.5462
-12.5063
-12.4614
-12.4106
-12.3528
-12.2865
-12.2101
-12.1219
-12.0199
-11.9019
-11.7663
-11.612
-11.4402
-11.2561
-11.0706
-10.9059
-10.821
-10.9007
-14.8105
-14.8304
-14.6529
-14.407
-14.1648
-13.9471
-13.7594
-13.6018
-13.4708
-13.3625
-13.2726
-13.1976
-13.1346
-13.0812
-13.0354
-12.9956
-12.9607
-12.9297
-12.9016
-12.8758
-12.8518
-12.8291
-12.8071
-12.7857
-12.7642
-12.7426
-12.7202
-12.6969
-12.6722
-12.6457
-12.617
-12.5854
-12.5503
-12.511
-12.4665
-12.4158
-12.3574
-12.2897
-12.2107
-12.1177
-12.0078
-11.8772
-11.7218
-11.5375
-11.3214
-11.0736
-10.8013
-10.527
-10.3263
-10.3314
-15.6193
-15.4422
-15.0619
-14.659
-14.3068
-14.0184
-13.7875
-13.6043
-13.4591
-13.3433
-13.2501
-13.1742
-13.1118
-13.0596
-13.0155
-12.9776
-12.9446
-12.9154
-12.8891
-12.865
-12.8426
-12.8214
-12.8009
-12.7808
-12.7607
-12.7404
-12.7193
-12.6973
-12.6739
-12.6487
-12.6213
-12.5911
-12.5575
-12.5196
-12.4765
-12.4271
-12.3698
-12.3027
-12.2234
-12.1285
-12.014
-11.8744
-11.7026
-11.49
-11.2264
-10.9019
-10.5114
-10.0689
-9.65253
-9.44256
-17.0265
-16.2632
-15.5194
-14.8944
-14.4056
-14.0408
-13.7712
-13.5701
-13.418
-13.3011
-13.2097
-13.137
-13.078
-13.0295
-12.9889
-12.9542
-12.9242
-12.8977
-12.8739
-12.8521
-12.8318
-12.8125
-12.7938
-12.7754
-12.757
-12.7383
-12.7188
-12.6984
-12.6767
-12.6532
-12.6277
-12.5994
-12.5679
-12.5323
-12.4917
-12.445
-12.3906
-12.3264
-12.2498
-12.1571
-12.0432
-11.9011
-11.7205
-11.4873
-11.181
-10.7742
-10.2368
-9.5583
-8.75965
-7.92969
-19.8617
-17.2625
-15.8442
-14.9592
-14.3533
-13.9442
-13.6662
-13.4711
-13.3297
-13.2241
-13.1433
-13.0799
-13.0291
-12.9875
-12.9529
-12.9234
-12.8979
-12.8753
-12.8549
-12.8362
-12.8187
-12.8019
-12.7856
-12.7695
-12.7532
-12.7365
-12.7191
-12.7008
-12.6813
-12.6601
-12.6371
-12.6116
-12.5832
-12.5511
-12.5146
-12.4725
-12.4235
-12.3656
-12.2963
-12.2121
-12.1078
-11.9758
-11.8043
-11.5749
-11.2574
-10.8012
-10.1368
-9.17976
-7.67542
-4.95715
-24.7302
-18.3455
-15.6803
-14.5832
-13.9883
-13.6358
-13.4183
-13.2743
-13.1726
-13.0975
-13.04
-12.9948
-12.9584
-12.9284
-12.9032
-12.8816
-12.8627
-12.8458
-12.8303
-12.8159
-12.8021
-12.7888
-12.7756
-12.7624
-12.749
-12.735
-12.7204
-12.705
-12.6884
-12.6706
-12.651
-12.6295
-12.6056
-12.5787
-12.5483
-12.5136
-12.4734
-12.4264
-12.3707
-12.3037
-12.2216
-12.1186
-11.9853
-11.8052
-11.5464
-11.1449
-10.4841
-9.29227
-6.51023
7.09979e-06
)
;

boundaryField
{
    movingWallTop
    {
        type            zeroGradient;
    }
    movingWallBottom
    {
        type            zeroGradient;
    }
    fixedWalls
    {
        type            zeroGradient;
    }
    frontAndBack
    {
        type            empty;
    }
}


// ************************************************************************* //
