/*--------------------------------*- C++ -*----------------------------------*\
  =========                 |
  \\      /  F ield         | OpenFOAM: The Open Source CFD Toolbox
   \\    /   O peration     | Website:  https://openfoam.org
    \\  /    A nd           | Version:  7
     \\/     M anipulation  |
\*---------------------------------------------------------------------------*/
FoamFile
{
    version     2.0;
    format      ascii;
    class       surfaceScalarField;
    location    "0.059";
    object      phi;
}
// * * * * * * * * * * * * * * * * * * * * * * * * * * * * * * * * * * * * * //

dimensions      [0 3 -1 0 0 0 0];

internalField   nonuniform List<scalar> 
4900
(
5.45464e-06
-5.45465e-06
9.95316e-06
-4.49851e-06
1.26939e-05
-2.74079e-06
1.44122e-05
-1.71828e-06
1.55285e-05
-1.11623e-06
1.62816e-05
-7.53171e-07
1.68127e-05
-5.31086e-07
1.72033e-05
-3.90548e-07
1.75005e-05
-2.97239e-07
1.77327e-05
-2.32219e-07
1.79177e-05
-1.84959e-07
1.80671e-05
-1.49395e-07
1.81889e-05
-1.21878e-07
1.82891e-05
-1.00108e-07
1.83716e-05
-8.25728e-08
1.84399e-05
-6.82324e-08
1.84962e-05
-5.63476e-08
1.85426e-05
-4.63743e-08
1.85805e-05
-3.79006e-08
1.86111e-05
-3.06051e-08
1.86353e-05
-2.4231e-08
1.86539e-05
-1.85667e-08
1.86673e-05
-1.34331e-08
1.8676e-05
-8.67415e-09
1.86801e-05
-4.1491e-09
1.86799e-05
2.76785e-10
1.86751e-05
4.72551e-09
1.86658e-05
9.33286e-09
1.86516e-05
1.42331e-08
1.8632e-05
1.95765e-08
1.86065e-05
2.55343e-08
1.85742e-05
3.23087e-08
1.8534e-05
4.01464e-08
1.84847e-05
4.93574e-08
1.84243e-05
6.03432e-08
1.83507e-05
7.36373e-08
1.82607e-05
8.99695e-08
1.81503e-05
1.10368e-07
1.8014e-05
1.36334e-07
1.78439e-05
1.7014e-07
1.76285e-05
2.15389e-07
1.73504e-05
2.78072e-07
1.69817e-05
3.68652e-07
1.64755e-05
5.0621e-07
1.57494e-05
7.26117e-07
1.46575e-05
1.09192e-06
1.29451e-05
1.71236e-06
1.0162e-05
2.78317e-06
5.55724e-06
4.60473e-06
5.55724e-06
-1.19284e-07
-5.33537e-06
1.83184e-06
-6.44964e-06
4.41344e-06
-5.32239e-06
6.72969e-06
-4.03453e-06
8.61027e-06
-2.99681e-06
1.00936e-05
-2.23652e-06
1.12594e-05
-1.69687e-06
1.21817e-05
-1.31287e-06
1.2919e-05
-1.03454e-06
1.35148e-05
-8.28034e-07
1.4001e-05
-6.71167e-07
1.4401e-05
-5.49374e-07
1.47321e-05
-4.52971e-07
1.50074e-05
-3.75382e-07
1.52368e-05
-3.12027e-07
1.54282e-05
-2.59628e-07
1.55877e-05
-2.15781e-07
1.572e-05
-1.78674e-07
1.5829e-05
-1.46908e-07
1.59177e-05
-1.19374e-07
1.59887e-05
-9.51752e-08
1.60437e-05
-7.35628e-08
1.60841e-05
-5.3897e-08
1.61111e-05
-3.56141e-08
1.61251e-05
-1.82016e-08
1.61266e-05
-1.17866e-09
1.61154e-05
1.59277e-08
1.60911e-05
3.35918e-08
1.6053e-05
5.23164e-08
1.6e-05
7.26508e-08
1.59303e-05
9.52174e-08
1.58419e-05
1.20746e-07
1.57319e-05
1.5012e-07
1.55968e-05
1.84435e-07
1.54321e-05
2.25091e-07
1.52318e-05
2.7392e-07
1.49884e-05
3.33375e-07
1.46919e-05
4.06825e-07
1.43292e-05
4.9901e-07
1.38826e-05
6.16773e-07
1.33277e-05
7.70249e-07
1.2631e-05
9.74795e-07
1.17456e-05
1.25407e-06
1.06071e-05
1.64469e-06
9.13149e-06
2.20174e-06
7.22426e-06
2.99916e-06
4.83143e-06
4.10519e-06
2.12097e-06
5.49363e-06
1.07171e-08
6.71498e-06
5.56796e-06
-1.08241e-06
-4.25296e-06
-7.53982e-07
-6.77807e-06
5.89783e-07
-6.66615e-06
2.30238e-06
-5.74713e-06
4.01408e-06
-4.70851e-06
5.56626e-06
-3.78869e-06
6.91165e-06
-3.04227e-06
8.05382e-06
-2.45504e-06
9.0153e-06
-1.99601e-06
9.8228e-06
-1.63554e-06
1.05013e-05
-1.3497e-06
1.10724e-05
-1.12042e-06
1.15537e-05
-9.34303e-07
1.19598e-05
-7.81518e-07
1.23026e-05
-6.54754e-07
1.25915e-05
-5.48525e-07
1.28343e-05
-4.58642e-07
1.30375e-05
-3.81847e-07
1.32062e-05
-3.15556e-07
1.33445e-05
-2.5768e-07
1.34558e-05
-2.06488e-07
1.35427e-05
-1.60519e-07
1.36073e-05
-1.18502e-07
1.3651e-05
-7.93043e-08
1.36747e-05
-4.18878e-08
1.36788e-05
-5.2687e-09
1.36632e-05
3.15215e-08
1.36273e-05
6.94596e-08
1.35701e-05
1.09577e-07
1.34897e-05
1.52996e-07
1.3384e-05
2.0098e-07
1.32497e-05
2.54994e-07
1.30831e-05
3.16789e-07
1.2879e-05
3.88505e-07
1.26312e-05
4.72825e-07
1.2332e-05
5.73179e-07
1.19713e-05
6.94038e-07
1.15368e-05
8.41329e-07
1.10128e-05
1.02304e-06
1.03795e-05
1.25005e-06
9.61244e-06
1.53733e-06
8.68187e-06
1.90536e-06
7.55426e-06
2.38169e-06
6.19772e-06
3.00123e-06
4.59754e-06
3.80192e-06
2.79138e-06
4.80532e-06
9.37946e-07
5.95862e-06
-5.70667e-07
7.00224e-06
-1.03815e-06
7.18247e-06
4.52981e-06
-9.12991e-07
-3.33997e-06
-1.34133e-06
-6.34973e-06
-9.36314e-07
-7.07116e-06
2.21943e-08
-6.70564e-06
1.24042e-06
-5.92674e-06
2.51885e-06
-5.06712e-06
3.74471e-06
-4.26813e-06
4.86526e-06
-3.57559e-06
5.86265e-06
-2.9934e-06
6.73701e-06
-2.50989e-06
7.49672e-06
-2.10941e-06
8.15326e-06
-1.77695e-06
8.7186e-06
-1.49964e-06
9.204e-06
-1.26692e-06
9.61958e-06
-1.07034e-06
9.97419e-06
-9.03127e-07
1.02754e-05
-7.59849e-07
1.05296e-05
-6.36104e-07
1.07424e-05
-5.28281e-07
1.09181e-05
-4.33371e-07
1.10604e-05
-3.48823e-07
1.11723e-05
-2.72431e-07
1.12561e-05
-2.02247e-07
1.13133e-05
-1.36508e-07
1.13449e-05
-7.35746e-08
1.13516e-05
-1.18811e-08
1.1333e-05
5.01177e-08
1.12884e-05
1.1399e-07
1.12166e-05
1.81383e-07
1.11155e-05
2.54081e-07
1.09825e-05
3.34072e-07
1.08138e-05
4.23636e-07
1.06052e-05
5.25447e-07
1.03509e-05
6.42714e-07
1.00444e-05
7.7936e-07
9.67733e-06
9.40257e-07
9.23983e-06
1.13153e-06
8.72021e-06
1.36096e-06
8.10481e-06
1.63844e-06
7.37832e-06
1.97654e-06
6.52472e-06
2.39093e-06
5.52968e-06
2.9004e-06
4.38598e-06
3.52539e-06
3.10415e-06
4.28305e-06
1.73178e-06
5.1743e-06
3.8365e-07
6.15344e-06
-7.24463e-07
7.06673e-06
-1.26567e-06
7.54345e-06
-9.15854e-07
6.83266e-06
3.61395e-06
-6.64698e-07
-2.67527e-06
-1.29695e-06
-5.71748e-06
-1.41747e-06
-6.95064e-06
-1.04144e-06
-7.08167e-06
-3.23347e-07
-6.64483e-06
5.79259e-07
-5.96972e-06
1.54813e-06
-5.237e-06
2.50735e-06
-4.53482e-06
3.41372e-06
-3.89977e-06
4.24583e-06
-3.342e-06
4.99564e-06
-2.85922e-06
5.66279e-06
-2.44411e-06
6.25103e-06
-2.08788e-06
6.76603e-06
-1.78191e-06
7.21413e-06
-1.51844e-06
7.60169e-06
-1.29069e-06
7.9347e-06
-1.09285e-06
8.21856e-06
-9.19968e-07
8.45806e-06
-7.67781e-07
8.65731e-06
-6.3262e-07
8.81976e-06
-5.11275e-07
8.94823e-06
-4.00897e-07
9.0449e-06
-2.98912e-07
9.11134e-06
-2.02951e-07
9.14855e-06
-1.10781e-07
9.15691e-06
-2.02462e-08
9.13624e-06
7.07928e-08
9.08571e-06
1.64511e-07
9.00391e-06
2.63188e-07
8.88872e-06
3.69272e-07
8.73733e-06
4.85462e-07
8.54616e-06
6.14803e-07
8.31081e-06
7.60798e-07
8.02598e-06
9.27546e-07
7.68543e-06
1.11991e-06
7.28197e-06
1.34371e-06
6.80755e-06
1.60595e-06
6.25348e-06
1.91503e-06
5.61105e-06
2.28087e-06
4.8727e-06
2.71489e-06
4.03423e-06
3.2294e-06
3.09876e-06
3.83587e-06
2.08327e-06
4.54088e-06
1.02876e-06
5.33756e-06
1.39426e-08
6.18912e-06
-8.31949e-07
6.99934e-06
-1.32908e-06
7.56386e-06
-1.29281e-06
7.50718e-06
-6.84919e-07
6.22476e-06
2.92903e-06
-4.70677e-07
-2.20459e-06
-1.09931e-06
-5.08885e-06
-1.46724e-06
-6.5827e-06
-1.46788e-06
-7.08103e-06
-1.147e-06
-6.96571e-06
-5.99565e-07
-6.51716e-06
8.07397e-08
-5.9173e-06
8.20058e-07
-5.27414e-06
1.56676e-06
-4.64647e-06
2.28776e-06
-4.063e-06
2.96368e-06
-3.53514e-06
3.58446e-06
-3.06489e-06
4.1461e-06
-2.64952e-06
4.64836e-06
-2.28417e-06
5.09317e-06
-1.96325e-06
5.48362e-06
-1.68114e-06
5.82331e-06
-1.43255e-06
6.11594e-06
-1.2126e-06
6.36505e-06
-1.01689e-06
6.57385e-06
-8.41425e-07
6.74517e-06
-6.82593e-07
6.88135e-06
-5.3708e-07
6.98426e-06
-4.01819e-07
7.05524e-06
-2.73926e-07
7.0951e-06
-1.50641e-07
7.10412e-06
-2.92707e-08
7.08204e-06
9.2873e-08
7.02802e-06
2.1853e-07
6.94065e-06
3.50556e-07
6.81793e-06
4.91998e-07
6.65722e-06
6.46165e-07
6.4553e-06
8.16723e-07
6.20831e-06
1.00779e-06
5.91182e-06
1.22404e-06
5.56092e-06
1.47082e-06
5.15039e-06
1.75424e-06
4.67508e-06
2.08126e-06
4.13055e-06
2.45956e-06
3.51405e-06
2.89737e-06
2.8263e-06
3.40263e-06
2.07415e-06
3.98155e-06
1.27451e-06
4.63551e-06
4.59874e-07
5.35552e-06
-3.15221e-07
6.11265e-06
-9.68603e-07
6.8425e-06
-1.39145e-06
7.42219e-06
-1.46864e-06
7.64105e-06
-1.13577e-06
7.1743e-06
-4.96457e-07
5.58545e-06
2.43258e-06
-3.39696e-07
-1.8649e-06
-9.01391e-07
-4.52715e-06
-1.3629e-06
-6.1212e-06
-1.58282e-06
-6.86111e-06
-1.54272e-06
-7.00581e-06
-1.28463e-06
-6.77524e-06
-8.69883e-07
-6.33205e-06
-3.57537e-07
-5.78648e-06
2.0414e-07
-5.20815e-06
7.79309e-07
-4.63817e-06
1.34316e-06
-4.09899e-06
1.87959e-06
-3.60132e-06
2.37893e-06
-3.14886e-06
2.836e-06
-2.74124e-06
3.24868e-06
-2.37593e-06
3.61682e-06
-2.04928e-06
3.94147e-06
-1.75719e-06
4.22433e-06
-1.49546e-06
4.46741e-06
-1.25997e-06
4.67277e-06
-1.04678e-06
4.84232e-06
-8.52146e-07
4.97775e-06
-6.72509e-07
5.08041e-06
-5.04479e-07
5.15128e-06
-3.44796e-07
5.19093e-06
-1.90286e-07
5.19947e-06
-3.78122e-08
5.17657e-06
1.15771e-07
5.12143e-06
2.73673e-07
5.03275e-06
4.39228e-07
4.9088e-06
6.15951e-07
4.74736e-06
8.07604e-07
4.54582e-06
1.01826e-06
4.30123e-06
1.25238e-06
4.01044e-06
1.51483e-06
3.67031e-06
1.81095e-06
3.27808e-06
2.14647e-06
2.83191e-06
2.52743e-06
2.3317e-06
2.95977e-06
1.78037e-06
3.4487e-06
1.18558e-06
3.99742e-06
5.62214e-07
4.60492e-06
-6.46225e-08
5.26235e-06
-6.5627e-07
5.94717e-06
-1.15806e-06
6.61445e-06
-1.5003e-06
7.18474e-06
-1.60748e-06
7.52936e-06
-1.42336e-06
7.45694e-06
-9.59322e-07
6.71026e-06
-3.66457e-07
4.99259e-06
2.06612e-06
-2.54762e-07
-1.61014e-06
-7.40378e-07
-4.04154e-06
-1.2201e-06
-5.64148e-06
-1.55724e-06
-6.52397e-06
-1.70279e-06
-6.86026e-06
-1.66264e-06
-6.81539e-06
-1.46944e-06
-6.52525e-06
-1.16405e-06
-6.09188e-06
-7.85431e-07
-5.58677e-06
-3.66298e-07
-5.05731e-06
6.79663e-08
-4.53326e-06
4.98785e-07
-4.03214e-06
9.13241e-07
-3.56331e-06
1.30283e-06
-3.13083e-06
1.66232e-06
-2.73542e-06
1.98883e-06
-2.3758e-06
2.28111e-06
-2.04947e-06
2.53896e-06
-1.7533e-06
2.76283e-06
-1.48384e-06
2.95353e-06
-1.23748e-06
3.11199e-06
-1.01061e-06
3.23914e-06
-7.99656e-07
3.33574e-06
-6.01073e-07
3.40232e-06
-4.11384e-07
3.43917e-06
-2.27136e-07
3.44624e-06
-4.48767e-08
3.42313e-06
1.38877e-07
3.36912e-06
3.27683e-07
3.28314e-06
5.2521e-07
3.1638e-06
7.35286e-07
3.00948e-06
9.61933e-07
2.81834e-06
1.2094e-06
2.58854e-06
1.48218e-06
2.3184e-06
1.78497e-06
2.00672e-06
2.12263e-06
1.65321e-06
2.49999e-06
1.25914e-06
2.9215e-06
8.2823e-07
3.39068e-06
3.67812e-07
3.90912e-06
-1.09669e-07
4.4749e-06
-5.84884e-07
5.08014e-06
-1.02986e-06
5.70733e-06
-1.40686e-06
6.32416e-06
-1.66906e-06
6.87665e-06
-1.76539e-06
7.28107e-06
-1.65242e-06
7.41639e-06
-1.31676e-06
7.12128e-06
-8.0889e-07
6.20239e-06
-2.81032e-07
4.46473e-06
1.78509e-06
-1.9917e-07
-1.41097e-06
-6.17524e-07
-3.62318e-06
-1.08275e-06
-5.17625e-06
-1.47657e-06
-6.13014e-06
-1.73955e-06
-6.59729e-06
-1.85621e-06
-6.69873e-06
-1.83782e-06
-6.54364e-06
-1.70859e-06
-6.22111e-06
-1.49651e-06
-5.79884e-06
-1.2282e-06
-5.32562e-06
-9.26469e-07
-4.83499e-06
-6.09627e-07
-4.34898e-06
-2.9165e-07
-3.88129e-06
1.72257e-08
-3.43971e-06
3.09809e-07
-3.02801e-06
5.81264e-07
-2.64725e-06
8.28519e-07
-2.29672e-06
1.04978e-06
-1.97456e-06
1.24411e-06
-1.67818e-06
1.41118e-06
-1.40455e-06
1.55096e-06
-1.1504e-06
1.6636e-06
-9.12302e-07
1.74929e-06
-6.8676e-07
1.80812e-06
-4.70218e-07
1.84008e-06
-2.59089e-07
1.84494e-06
-4.97414e-08
1.82231e-06
1.61511e-07
1.77156e-06
3.7843e-07
1.6919e-06
6.04871e-07
1.58239e-06
8.44798e-07
1.44202e-06
1.1023e-06
1.26987e-06
1.38156e-06
1.06521e-06
1.68683e-06
8.27836e-07
2.02234e-06
5.58355e-07
2.39211e-06
2.58683e-07
2.79966e-06
-6.73417e-08
3.24752e-06
-4.13169e-07
3.7365e-06
-7.6859e-07
4.26454e-06
-1.11869e-06
4.82499e-06
-1.44285e-06
5.4043e-06
-1.71423e-06
5.97871e-06
-1.90027e-06
6.5102e-06
-1.96535e-06
6.94173e-06
-1.87701e-06
7.19273e-06
-1.61725e-06
7.15663e-06
-1.19964e-06
6.70367e-06
-6.9021e-07
5.69296e-06
-2.24357e-07
3.99888e-06
1.56073e-06
-1.61826e-07
-1.24914e-06
-5.25595e-07
-3.25941e-06
-9.64707e-07
-4.73714e-06
-1.38138e-06
-5.71347e-06
-1.71614e-06
-6.26253e-06
-1.94256e-06
-6.4723e-06
-2.05761e-06
-6.4286e-06
-2.07227e-06
-6.20645e-06
-2.00428e-06
-5.86683e-06
-1.87325e-06
-5.45664e-06
-1.69785e-06
-5.01039e-06
-1.49435e-06
-4.55249e-06
-1.27616e-06
-4.09948e-06
-1.05389e-06
-3.66197e-06
-8.35635e-07
-3.24626e-06
-6.2737e-07
-2.85552e-06
-4.33393e-07
-2.4907e-06
-2.56691e-07
-2.15126e-06
-9.92793e-08
-1.83559e-06
3.75297e-08
-1.54136e-06
1.529e-07
-1.26577e-06
2.463e-07
-1.0057e-06
3.17368e-07
-7.57827e-07
3.6581e-07
-5.18661e-07
3.91334e-07
-2.84613e-07
3.93601e-07
-5.20081e-08
3.72206e-07
1.82907e-07
3.26681e-07
4.23955e-07
2.56528e-07
6.75023e-07
1.61275e-07
9.40052e-07
4.05696e-08
1.223e-06
-1.05676e-07
1.5278e-06
-2.77094e-07
1.85825e-06
-4.72603e-07
2.21785e-06
-6.90057e-07
2.60957e-06
-9.25818e-07
3.03542e-06
-1.17422e-06
3.49593e-06
-1.42697e-06
3.98926e-06
-1.67249e-06
4.51006e-06
-1.89536e-06
5.04786e-06
-2.07605e-06
5.58498e-06
-2.19129e-06
6.09395e-06
-2.21565e-06
6.53455e-06
-2.12496e-06
6.85105e-06
-1.90253e-06
6.9703e-06
-1.54831e-06
6.80241e-06
-1.09076e-06
6.24611e-06
-5.98426e-07
5.20063e-06
-1.85555e-07
3.58601e-06
1.37518e-06
-1.36004e-07
-1.11314e-06
-4.56951e-07
-2.93847e-06
-8.68029e-07
-4.32606e-06
-1.28966e-06
-5.29184e-06
-1.66695e-06
-5.88524e-06
-1.96897e-06
-6.17028e-06
-2.18392e-06
-6.21364e-06
-2.31318e-06
-6.07719e-06
-2.36595e-06
-5.81407e-06
-2.3552e-06
-5.46739e-06
-2.29492e-06
-5.07067e-06
-2.19844e-06
-4.64896e-06
-2.07759e-06
-4.22032e-06
-1.94236e-06
-3.79721e-06
-1.80085e-06
-3.38777e-06
-1.6595e-06
-2.99688e-06
-1.52323e-06
-2.62697e-06
-1.39579e-06
-2.2787e-06
-1.27995e-06
-1.95142e-06
-1.17776e-06
-1.64355e-06
-1.09067e-06
-1.35285e-06
-1.01978e-06
-1.07659e-06
-9.65888e-07
-8.1172e-07
-9.29616e-07
-5.54934e-07
-9.11467e-07
-3.02761e-07
-9.11874e-07
-5.1602e-08
-9.31203e-07
2.02236e-07
-9.69757e-07
4.62508e-07
-1.02773e-06
7.32996e-07
-1.10514e-06
1.01746e-06
-1.20174e-06
1.3196e-06
-1.31686e-06
1.64292e-06
-1.44921e-06
1.9906e-06
-1.59666e-06
2.3653e-06
-1.75591e-06
2.76882e-06
-1.92217e-06
3.20168e-06
-2.08871e-06
3.66246e-06
-2.24649e-06
4.14704e-06
-2.38385e-06
4.64741e-06
-2.48632e-06
5.15033e-06
-2.53694e-06
5.63561e-06
-2.51722e-06
6.07422e-06
-2.40914e-06
6.42647e-06
-2.19872e-06
6.64064e-06
-1.88131e-06
6.65289e-06
-1.46848e-06
6.38958e-06
-9.9553e-07
5.77316e-06
-5.27242e-07
4.73234e-06
-1.5798e-07
3.21675e-06
1.2172e-06
-1.17667e-07
-9.95468e-07
-4.0545e-07
-2.65068e-06
-7.9062e-07
-3.94089e-06
-1.20844e-06
-4.87402e-06
-1.61003e-06
-5.48365e-06
-1.96367e-06
-5.81664e-06
-2.25268e-06
-5.92464e-06
-2.47184e-06
-5.85803e-06
-2.62379e-06
-5.66212e-06
-2.71575e-06
-5.37542e-06
-2.75723e-06
-5.02919e-06
-2.75833e-06
-4.64786e-06
-2.72874e-06
-4.24991e-06
-2.67718e-06
-3.84877e-06
-2.61118e-06
-3.45378e-06
-2.537e-06
-3.07106e-06
-2.45976e-06
-2.70421e-06
-2.38354e-06
-2.35492e-06
-2.31155e-06
-2.02341e-06
-2.24629e-06
-1.70882e-06
-2.18967e-06
-1.40947e-06
-2.14318e-06
-1.12309e-06
-2.10793e-06
-8.46965e-07
-2.0848e-06
-5.78067e-07
-2.07443e-06
-3.1313e-07
-2.0773e-06
-4.87316e-08
-2.09372e-06
2.18655e-07
-2.12381e-06
4.92602e-07
-2.16749e-06
7.76671e-07
-2.22436e-06
1.07434e-06
-2.29366e-06
1.3889e-06
-2.3741e-06
1.72335e-06
-2.46368e-06
2.08018e-06
-2.55953e-06
2.46114e-06
-2.6576e-06
2.8669e-06
-2.75248e-06
3.29655e-06
-2.83708e-06
3.74706e-06
-2.90247e-06
4.21243e-06
-2.93782e-06
4.68276e-06
-2.93058e-06
5.14309e-06
-2.86711e-06
5.57214e-06
-2.73394e-06
5.94106e-06
-2.51992e-06
6.21244e-06
-2.21931e-06
6.34003e-06
-1.83606e-06
6.26964e-06
-1.38858e-06
5.9421e-06
-9.14179e-07
5.29876e-06
-4.71361e-07
4.28953e-06
-1.37662e-07
2.88305e-06
1.07953e-06
-1.04355e-07
-8.91113e-07
-3.66547e-07
-2.38849e-06
-7.29321e-07
-3.57812e-06
-1.13955e-06
-4.46379e-06
-1.55439e-06
-5.06881e-06
-1.94317e-06
-5.42785e-06
-2.28685e-06
-5.58096e-06
-2.57599e-06
-5.56889e-06
-2.80834e-06
-5.42977e-06
-2.98653e-06
-5.19723e-06
-3.11608e-06
-4.89964e-06
-3.20394e-06
-4.56e-06
-3.25748e-06
-4.19637e-06
-3.28384e-06
-3.82241e-06
-3.28953e-06
-3.44809e-06
-3.28028e-06
-3.0803e-06
-3.261e-06
-2.7235e-06
-3.23576e-06
-2.38016e-06
-3.20793e-06
-2.05124e-06
-3.18021e-06
-1.73653e-06
-3.15479e-06
-1.43489e-06
-3.13337e-06
-1.14451e-06
-3.11729e-06
-8.63046e-07
-3.10756e-06
-5.87799e-07
-3.10491e-06
-3.15781e-07
-3.10982e-06
-4.38231e-08
-3.12251e-06
2.3135e-07
-3.14295e-06
5.13042e-07
-3.17079e-06
8.04508e-07
-3.2053e-06
1.10885e-06
-3.24532e-06
1.42892e-06
-3.28907e-06
1.76711e-06
-3.3341e-06
2.12522e-06
-3.37707e-06
2.50412e-06
-3.41361e-06
2.90343e-06
-3.43814e-06
3.32109e-06
-3.4438e-06
3.75272e-06
-3.42238e-06
4.19101e-06
-3.36451e-06
4.62489e-06
-3.26004e-06
5.03863e-06
-3.0989e-06
5.41099e-06
-2.87236e-06
5.71452e-06
-2.57506e-06
5.91515e-06
-2.20762e-06
5.97258e-06
-1.77973e-06
5.84176e-06
-1.31339e-06
5.47576e-06
-8.45195e-07
4.83056e-06
-4.26828e-07
3.87116e-06
-1.22205e-07
2.57842e-06
9.57329e-07
-9.45215e-08
-7.96591e-07
-3.36963e-07
-2.14605e-06
-6.8105e-07
-3.23403e-06
-1.08258e-06
-4.06226e-06
-1.50409e-06
-4.6473e-06
-1.91683e-06
-5.01511e-06
-2.3009e-06
-5.19689e-06
-2.6443e-06
-5.2255e-06
-2.94135e-06
-5.13271e-06
-3.19109e-06
-4.9475e-06
-3.39568e-06
-4.69504e-06
-3.55927e-06
-4.39642e-06
-3.68693e-06
-4.06871e-06
-3.7841e-06
-3.72524e-06
-3.85608e-06
-3.37611e-06
-3.9078e-06
-3.02858e-06
-3.94366e-06
-2.68764e-06
-3.9675e-06
-2.35632e-06
-3.98259e-06
-2.03615e-06
-3.99166e-06
-1.72745e-06
-3.99697e-06
-1.42958e-06
-4.00032e-06
-1.14115e-06
-4.00314e-06
-8.6023e-07
-4.00649e-06
-5.84444e-07
-4.01114e-06
-3.11136e-07
-4.01752e-06
-3.74449e-08
-4.02576e-06
2.39595e-07
-4.03568e-06
5.22959e-07
-4.04671e-06
8.15537e-07
-4.05787e-06
1.12002e-06
-4.06769e-06
1.43874e-06
-4.07413e-06
1.77355e-06
-4.07446e-06
2.12554e-06
-4.06517e-06
2.49482e-06
-4.04187e-06
2.88014e-06
-3.99925e-06
3.27847e-06
-3.93106e-06
3.68453e-06
-3.83025e-06
4.0902e-06
-3.68923e-06
4.48387e-06
-3.50045e-06
4.84984e-06
-3.25723e-06
5.16778e-06
-2.95506e-06
5.41234e-06
-2.59325e-06
5.55334e-06
-2.17702e-06
5.55636e-06
-1.71973e-06
5.38446e-06
-1.24477e-06
5.0008e-06
-7.86724e-07
4.37252e-06
-3.90814e-07
3.47525e-06
-1.10134e-07
2.29774e-06
8.47195e-07
-8.71623e-08
-7.09429e-07
-3.14339e-07
-1.91887e-06
-6.4315e-07
-2.90522e-06
-1.0362e-06
-3.66921e-06
-1.46061e-06
-4.22289e-06
-1.88976e-06
-4.58597e-06
-2.30378e-06
-4.78286e-06
-2.68924e-06
-4.84005e-06
-3.03811e-06
-4.78384e-06
-3.34671e-06
-4.63889e-06
-3.61455e-06
-4.42721e-06
-3.84327e-06
-4.1677e-06
-4.03591e-06
-3.87607e-06
-4.19621e-06
-3.56495e-06
-4.32818e-06
-3.24414e-06
-4.4358e-06
-2.92096e-06
-4.52283e-06
-2.60061e-06
-4.59267e-06
-2.28648e-06
-4.64832e-06
-1.9805e-06
-4.69239e-06
-1.68339e-06
-4.72704e-06
-1.39493e-06
-4.75408e-06
-1.11412e-06
-4.77491e-06
-8.39397e-07
-4.7906e-06
-5.68757e-07
-4.80186e-06
-2.99876e-07
-4.80907e-06
-3.02316e-08
-4.81227e-06
2.42795e-07
-4.81113e-06
5.21818e-07
-4.80493e-06
8.09332e-07
-4.7925e-06
1.10759e-06
-4.77221e-06
1.41845e-06
-4.74187e-06
1.74321e-06
-4.69868e-06
2.08235e-06
-4.6392e-06
2.43534e-06
-4.5593e-06
2.80024e-06
-4.4542e-06
3.17337e-06
-4.31856e-06
3.5489e-06
-4.14671e-06
3.91835e-06
-3.93298e-06
4.27014e-06
-3.67234e-06
4.58921e-06
-3.36121e-06
4.85664e-06
-2.99858e-06
5.04971e-06
-2.58741e-06
5.14216e-06
-2.13614e-06
5.10509e-06
-1.66021e-06
4.90853e-06
-1.18319e-06
4.52378e-06
-7.37063e-07
3.92639e-06
-3.61319e-07
3.0995e-06
-1.0051e-07
2.03694e-06
7.46685e-07
-8.16028e-08
-6.27826e-07
-2.96965e-07
-1.70351e-06
-6.13455e-07
-2.58873e-06
-9.9887e-07
-3.28379e-06
-1.42409e-06
-3.79767e-06
-1.86455e-06
-4.1455e-06
-2.30092e-06
-4.34649e-06
-2.71901e-06
-4.42196e-06
-3.10927e-06
-4.39358e-06
-3.46603e-06
-4.28214e-06
-3.78665e-06
-4.10658e-06
-4.07077e-06
-3.88358e-06
-4.31957e-06
-3.62727e-06
-4.53523e-06
-3.34928e-06
-4.72051e-06
-3.05886e-06
-4.87839e-06
-2.76308e-06
-5.01189e-06
-2.46711e-06
-5.12386e-06
-2.17451e-06
-5.21693e-06
-1.88742e-06
-5.29344e-06
-1.60688e-06
-5.3554e-06
-1.33297e-06
-5.40448e-06
-1.06504e-06
-5.442e-06
-8.01873e-07
-5.46896e-06
-5.41796e-07
-5.486e-06
-2.82835e-07
-5.49342e-06
-2.28147e-08
-5.49115e-06
2.40524e-07
-5.47875e-06
5.09422e-07
-5.4554e-06
7.85976e-07
-5.41982e-06
1.07201e-06
-5.37031e-06
1.36894e-06
-5.30468e-06
1.67757e-06
-5.22021e-06
1.99788e-06
-5.11371e-06
2.32884e-06
-4.9815e-06
2.66803e-06
-4.81954e-06
3.01141e-06
-4.62354e-06
3.3529e-06
-4.38929e-06
3.6841e-06
-4.11303e-06
3.99389e-06
-3.79205e-06
4.26823e-06
-3.42544e-06
4.49003e-06
-3.01505e-06
4.63932e-06
-2.56654e-06
4.69366e-06
-2.09054e-06
4.62909e-06
-1.60355e-06
4.42155e-06
-1.12854e-06
4.04877e-06
-6.94806e-07
3.49266e-06
-3.3693e-07
2.74163e-06
-9.27186e-08
1.79272e-06
6.53966e-07
-7.73765e-08
-5.50449e-07
-2.83589e-07
-1.4973e-06
-5.90238e-07
-2.28208e-06
-9.69076e-07
-2.90496e-06
-1.39402e-06
-3.37274e-06
-1.84237e-06
-3.69715e-06
-2.29551e-06
-3.89335e-06
-2.73898e-06
-3.97849e-06
-3.16223e-06
-3.97033e-06
-3.55816e-06
-3.8862e-06
-3.9225e-06
-3.74223e-06
-4.25323e-06
-3.55285e-06
-4.54995e-06
-3.33055e-06
-4.81347e-06
-3.08576e-06
-5.04535e-06
-2.82698e-06
-5.24762e-06
-2.56081e-06
-5.42251e-06
-2.29222e-06
-5.57229e-06
-2.02473e-06
-5.69914e-06
-1.76057e-06
-5.80506e-06
-1.50096e-06
-5.89182e-06
-1.24621e-06
-5.96091e-06
-9.95957e-07
-6.01351e-06
-7.49272e-07
-6.0505e-06
-5.04807e-07
-6.07242e-06
-2.60915e-07
-6.07947e-06
-1.57654e-08
-6.07149e-06
2.3255e-07
-6.04797e-06
4.85902e-07
-6.008e-06
7.46009e-07
-5.95029e-06
1.0143e-06
-5.87314e-06
1.29179e-06
-5.77445e-06
1.57888e-06
-5.65173e-06
1.87517e-06
-5.50216e-06
2.17927e-06
-5.32264e-06
2.48851e-06
-5.10993e-06
2.7987e-06
-4.86089e-06
3.10387e-06
-4.57275e-06
3.39595e-06
-4.24352e-06
3.66465e-06
-3.87253e-06
3.89724e-06
-3.46112e-06
4.07863e-06
-3.01339e-06
4.19159e-06
-2.53699e-06
4.21726e-06
-2.04393e-06
4.13602e-06
-1.55109e-06
3.92871e-06
-1.08048e-06
3.57816e-06
-6.58842e-07
3.07102e-06
-3.16641e-07
2.39943e-06
-8.63459e-08
1.56243e-06
5.6762e-07
-7.41533e-08
-4.76296e-07
-2.73288e-07
-1.29816e-06
-5.72144e-07
-1.98323e-06
-9.4549e-07
-2.53161e-06
-1.36966e-06
-2.94856e-06
-1.82359e-06
-3.24322e-06
-2.28939e-06
-3.42755e-06
-2.75259e-06
-3.51528e-06
-3.20207e-06
-3.52086e-06
-3.62969e-06
-3.45858e-06
-4.02995e-06
-3.34198e-06
-4.39947e-06
-3.18333e-06
-4.73658e-06
-2.99344e-06
-5.04087e-06
-2.78147e-06
-5.31286e-06
-2.55499e-06
-5.55365e-06
-2.32002e-06
-5.76474e-06
-2.08114e-06
-5.94779e-06
-1.84168e-06
-6.1045e-06
-1.60386e-06
-6.23652e-06
-1.36894e-06
-6.34531e-06
-1.13742e-06
-6.43215e-06
-9.09121e-07
-6.49804e-06
-6.83377e-07
-6.54373e-06
-4.59122e-07
-6.56962e-06
-2.35017e-07
-6.57584e-06
-9.55169e-09
-6.56213e-06
2.18843e-07
-6.52792e-06
4.51694e-07
-6.47228e-06
6.90369e-07
-6.39393e-06
9.35955e-07
-6.29126e-06
1.18912e-06
-6.16234e-06
1.44995e-06
-6.00497e-06
1.7178e-06
-5.81678e-06
1.99107e-06
-5.59531e-06
2.26703e-06
-5.33818e-06
2.54157e-06
-5.04335e-06
2.80904e-06
-4.7094e-06
3.062e-06
-4.33592e-06
3.29117e-06
-3.92402e-06
3.48534e-06
-3.47686e-06
3.63147e-06
-3.00026e-06
3.71499e-06
-2.50329e-06
3.72029e-06
-1.99878e-06
3.63151e-06
-1.50359e-06
3.43352e-06
-1.03862e-06
3.11319e-06
-6.28323e-07
2.66072e-06
-2.99735e-07
2.07084e-06
-8.11083e-08
1.3438e-06
4.86512e-07
-7.16955e-08
-4.04601e-07
-2.65373e-07
-1.10449e-06
-5.58114e-07
-1.69049e-06
-9.26984e-07
-2.16274e-06
-1.35023e-06
-2.52532e-06
-1.80813e-06
-2.78532e-06
-2.28352e-06
-2.95216e-06
-2.76207e-06
-3.03673e-06
-3.23229e-06
-3.05064e-06
-3.68536e-06
-3.00552e-06
-4.11482e-06
-2.91252e-06
-4.51626e-06
-2.78189e-06
-4.88694e-06
-2.62275e-06
-5.22545e-06
-2.44296e-06
-5.53136e-06
-2.24908e-06
-5.80498e-06
-2.04639e-06
-6.04711e-06
-1.83901e-06
-6.25884e-06
-1.62995e-06
-6.44141e-06
-1.42129e-06
-6.59607e-06
-1.21428e-06
-6.72399e-06
-1.00949e-06
-6.82621e-06
-8.06899e-07
-6.90355e-06
-6.06036e-07
-6.95659e-06
-4.06084e-07
-6.98563e-06
-2.05979e-07
-6.99067e-06
-4.50999e-09
-6.97141e-06
1.99583e-07
-6.92724e-06
4.07515e-07
-6.85721e-06
6.20343e-07
-6.76011e-06
8.3886e-07
-6.63446e-06
1.06347e-06
-6.47855e-06
1.29404e-06
-6.29051e-06
1.52977e-06
-6.06846e-06
1.76902e-06
-5.81057e-06
2.00914e-06
-5.51531e-06
2.24632e-06
-5.18166e-06
2.47539e-06
-4.80942e-06
2.68976e-06
-4.39956e-06
2.88131e-06
-3.95464e-06
3.04043e-06
-3.47929e-06
3.15612e-06
-2.98063e-06
3.21632e-06
-2.46871e-06
3.20837e-06
-1.9568e-06
3.1196e-06
-1.46151e-06
2.93823e-06
-1.00263e-06
2.65431e-06
-6.02608e-07
2.26069e-06
-2.85698e-07
1.75393e-06
-7.68076e-08
1.13491e-06
4.09704e-07
-6.98303e-08
-3.3477e-07
-2.59331e-07
-9.14985e-07
-5.47329e-07
-1.40249e-06
-9.12629e-07
-1.79744e-06
-1.33497e-06
-2.10297e-06
-1.79573e-06
-2.32457e-06
-2.27838e-06
-2.46951e-06
-2.7688e-06
-2.54631e-06
-3.2553e-06
-2.56414e-06
-3.72856e-06
-2.53226e-06
-4.18145e-06
-2.45963e-06
-4.60875e-06
-2.35459e-06
-5.00687e-06
-2.22464e-06
-5.37355e-06
-2.07628e-06
-5.7076e-06
-1.91503e-06
-6.00861e-06
-1.74538e-06
-6.27679e-06
-1.57084e-06
-6.51268e-06
-1.39405e-06
-6.7171e-06
-1.21687e-06
-6.89093e-06
-1.04045e-06
-7.03506e-06
-8.65361e-07
-7.15028e-06
-6.91677e-07
-7.23723e-06
-5.19088e-07
-7.29633e-06
-3.46986e-07
-7.32776e-06
-1.7455e-07
-7.33143e-06
-8.3111e-10
-7.307e-06
1.7515e-07
-7.25382e-06
3.54331e-07
-7.17098e-06
5.37504e-07
-7.05734e-06
7.25225e-07
-6.91157e-06
9.17698e-07
-6.7322e-06
1.11467e-06
-6.51772e-06
1.31529e-06
-6.2667e-06
1.518e-06
-5.97795e-06
1.72039e-06
-5.65069e-06
1.91905e-06
-5.28482e-06
2.10952e-06
-4.88119e-06
2.28613e-06
-4.44193e-06
2.44205e-06
-3.9708e-06
2.56929e-06
-3.47354e-06
2.65886e-06
-2.95825e-06
2.70103e-06
-2.43564e-06
2.68575e-06
-1.91918e-06
2.60314e-06
-1.42512e-06
2.44417e-06
-9.72209e-07
2.20141e-06
-5.81222e-07
1.86971e-06
-2.74161e-07
1.44687e-06
-7.33044e-08
9.34055e-07
3.364e-07
-6.8431e-08
-2.6634e-07
-2.54779e-07
-7.28637e-07
-5.39159e-07
-1.11811e-06
-9.01684e-07
-1.43492e-06
-1.32324e-06
-1.68142e-06
-1.78605e-06
-1.86175e-06
-2.27416e-06
-1.9814e-06
-2.77363e-06
-2.04684e-06
-3.2727e-06
-2.06507e-06
-3.76172e-06
-2.04324e-06
-4.23304e-06
-1.9883e-06
-4.68084e-06
-1.90679e-06
-5.10086e-06
-1.80461e-06
-5.49019e-06
-1.68696e-06
-5.84698e-06
-1.55824e-06
-6.17025e-06
-1.4221e-06
-6.45967e-06
-1.28142e-06
-6.71534e-06
-1.13838e-06
-6.93769e-06
-9.94527e-07
-7.12728e-06
-8.50865e-07
-7.28472e-06
-7.07914e-07
-7.4106e-06
-5.65798e-07
-7.50537e-06
-4.24322e-07
-7.56931e-06
-2.83048e-07
-7.60249e-06
-1.41364e-07
-7.60476e-06
1.44027e-09
-7.57572e-06
1.46103e-07
-7.5147e-06
2.93319e-07
-7.42086e-06
4.4366e-07
-7.29313e-06
5.97496e-07
-7.13034e-06
7.54903e-07
-6.93124e-06
9.15575e-07
-6.69467e-06
1.07872e-06
-6.41963e-06
1.24296e-06
-6.10547e-06
1.40623e-06
-5.75209e-06
1.56568e-06
-5.36018e-06
1.71761e-06
-4.93146e-06
1.85741e-06
-4.469e-06
1.97959e-06
-3.97749e-06
2.07778e-06
-3.46354e-06
2.14491e-06
-2.93595e-06
2.17344e-06
-2.40585e-06
2.15565e-06
-1.88678e-06
2.08407e-06
-1.39459e-06
1.95198e-06
-9.47136e-07
1.75396e-06
-5.63818e-07
1.48639e-06
-2.64858e-07
1.14791e-06
-7.04999e-08
7.39697e-07
2.659e-07
-6.74056e-08
-1.98934e-07
-2.51431e-07
-5.44612e-07
-5.33129e-07
-8.36412e-07
-8.93567e-07
-1.07448e-06
-1.31448e-06
-1.26051e-06
-1.77876e-06
-1.39746e-06
-2.27088e-06
-1.48928e-06
-2.7771e-06
-1.54062e-06
-3.28561e-06
-1.55656e-06
-3.78655e-06
-1.5423e-06
-4.27193e-06
-1.50293e-06
-4.73545e-06
-1.44327e-06
-5.17237e-06
-1.36769e-06
-5.57925e-06
-1.28008e-06
-5.95375e-06
-1.18374e-06
-6.29443e-06
-1.08143e-06
-6.60051e-06
-9.75338e-07
-6.87174e-06
-8.67143e-07
-7.10822e-06
-7.58049e-07
-7.31024e-06
-6.48848e-07
-7.47818e-06
-5.39968e-07
-7.61244e-06
-4.31538e-07
-7.71332e-06
-3.23445e-07
-7.78098e-06
-2.15391e-07
-7.8154e-06
-1.06944e-07
-7.81636e-06
2.39929e-09
-7.78342e-06
1.13163e-07
-7.71593e-06
2.25834e-07
-7.61308e-06
3.40804e-07
-7.47389e-06
4.58304e-07
-7.29732e-06
5.78339e-07
-7.08236e-06
7.00618e-07
-6.82812e-06
8.24477e-07
-6.53397e-06
9.48809e-07
-6.19974e-06
1.07199e-06
-5.82587e-06
1.19181e-06
-5.41368e-06
1.30542e-06
-4.96561e-06
1.40934e-06
-4.48545e-06
1.49942e-06
-3.97859e-06
1.57092e-06
-3.4523e-06
1.61862e-06
-2.91585e-06
1.637e-06
-2.38065e-06
1.62045e-06
-1.86022e-06
1.56364e-06
-1.37004e-06
1.4618e-06
-9.27245e-07
1.31116e-06
-5.50143e-07
1.10929e-06
-2.57601e-07
8.55369e-07
-6.83244e-08
5.5042e-07
1.97576e-07
-6.66882e-08
-1.32246e-07
-2.49084e-07
-3.62216e-07
-5.28888e-07
-5.56607e-07
-8.87839e-07
-7.15527e-07
-1.30827e-06
-8.40078e-07
-1.77357e-06
-9.32166e-07
-2.26851e-06
-9.94342e-07
-2.77951e-06
-1.02962e-06
-3.29476e-06
-1.04131e-06
-3.80427e-06
-1.03279e-06
-4.29979e-06
-1.00741e-06
-4.77471e-06
-9.68339e-07
-5.22394e-06
-9.18466e-07
-5.64365e-06
-8.60366e-07
-6.03114e-06
-7.96248e-07
-6.38462e-06
-7.27954e-07
-6.703e-06
-6.56961e-07
-6.98573e-06
-5.84406e-07
-7.23267e-06
-5.11112e-07
-7.4439e-06
-4.37624e-07
-7.61962e-06
-3.64248e-07
-7.76007e-06
-2.91086e-07
-7.86543e-06
-2.18079e-07
-7.93578e-06
-1.45042e-07
-7.97102e-06
-7.17032e-08
-7.97088e-06
2.26064e-09
-7.9349e-06
7.71835e-08
-7.86244e-06
1.53374e-07
-7.75271e-06
2.31073e-07
-7.60482e-06
3.10413e-07
-7.41785e-06
3.91371e-07
-7.19096e-06
4.73723e-07
-6.92347e-06
5.56995e-07
-6.61508e-06
6.40412e-07
-6.26595e-06
7.22855e-07
-5.87696e-06
8.02818e-07
-5.44991e-06
8.7838e-07
-4.98776e-06
9.47191e-07
-4.49482e-06
1.00648e-06
-3.97702e-06
1.05312e-06
-3.44205e-06
1.08365e-06
-2.89952e-06
1.09447e-06
-2.36099e-06
1.08193e-06
-1.83995e-06
1.04259e-06
-1.35156e-06
9.73414e-07
-9.12417e-07
8.72014e-07
-5.40022e-07
7.36891e-07
-2.52258e-07
5.67606e-07
-6.67295e-08
3.64891e-07
1.30847e-07
-6.62335e-08
-6.60125e-08
-2.47593e-07
-1.80856e-07
-5.26191e-07
-2.78009e-07
-8.84188e-07
-3.5753e-07
-1.30431e-06
-4.1996e-07
-1.77024e-06
-4.66235e-07
-2.26697e-06
-4.97606e-07
-2.78104e-06
-5.15559e-07
-3.30063e-06
-5.21716e-07
-3.81567e-06
-5.17752e-07
-4.31776e-06
-5.05322e-07
-4.80011e-06
-4.85996e-07
-5.25736e-06
-4.61213e-07
-5.68547e-06
-4.32257e-07
-6.08148e-06
-4.00233e-07
-6.44337e-06
-3.66062e-07
-6.76985e-06
-3.30489e-07
-7.06017e-06
-2.94086e-07
-7.31401e-06
-2.57271e-07
-7.53131e-06
-2.20323e-07
-7.71216e-06
-1.83399e-07
-7.85669e-06
-1.46556e-07
-7.965e-06
-1.09769e-07
-8.03709e-06
-7.29504e-08
-8.07283e-06
-3.59682e-08
-8.0719e-06
1.33455e-09
-8.03384e-06
3.91203e-08
-7.958e-06
7.75382e-08
-7.84363e-06
1.16703e-07
-7.68989e-06
1.56674e-07
-7.49595e-06
1.97432e-07
-7.26109e-06
2.38855e-07
-6.98479e-06
2.80698e-07
-6.66694e-06
3.22561e-07