/*--------------------------------*- C++ -*----------------------------------*\
  =========                 |
  \\      /  F ield         | OpenFOAM: The Open Source CFD Toolbox
   \\    /   O peration     | Website:  https://openfoam.org
    \\  /    A nd           | Version:  7
     \\/     M anipulation  |
\*---------------------------------------------------------------------------*/
FoamFile
{
    version     2.0;
    format      ascii;
    class       volVectorField;
    location    "0.0278";
    object      U;
}
// * * * * * * * * * * * * * * * * * * * * * * * * * * * * * * * * * * * * * //

dimensions      [0 1 -1 0 0 0 0];

internalField   nonuniform List<vector> 
2500
(
(-0.293827 0.153746 0)
(-0.397992 0.128738 0)
(-0.578007 0.0737883 0)
(-0.696213 0.0408508 0)
(-0.765057 0.0233538 0)
(-0.809203 0.0140878 0)
(-0.839564 0.00909205 0)
(-0.861395 0.00627613 0)
(-0.877736 0.00458089 0)
(-0.890377 0.00348623 0)
(-0.900395 0.0027339 0)
(-0.908476 0.00218989 0)
(-0.915079 0.00178038 0)
(-0.920522 0.0014621 0)
(-0.925033 0.00120812 0)
(-0.92878 0.00100078 0)
(-0.931889 0.000828014 0)
(-0.934456 0.000681252 0)
(-0.936553 0.000554217 0)
(-0.938237 0.000442176 0)
(-0.93955 0.000341454 0)
(-0.940525 0.000249115 0)
(-0.941185 0.000162736 0)
(-0.941547 8.02451e-05 0)
(-0.94162 -1.94269e-07 0)
(-0.941408 -8.03144e-05 0)
(-0.940909 -0.000161767 0)
(-0.940116 -0.000246248 0)
(-0.939016 -0.000335577 0)
(-0.937589 -0.000431788 0)
(-0.935809 -0.00053726 0)
(-0.93364 -0.000654877 0)
(-0.931038 -0.000788262 0)
(-0.927944 -0.000942108 0)
(-0.924282 -0.00112268 0)
(-0.919957 -0.00133862 0)
(-0.914842 -0.00160221 0)
(-0.908767 -0.00193168 0)
(-0.901505 -0.00235526 0)
(-0.892733 -0.00291907 0)
(-0.881992 -0.00370282 0)
(-0.868586 -0.00485198 0)
(-0.851424 -0.00664519 0)
(-0.828695 -0.00963329 0)
(-0.797379 -0.0149029 0)
(-0.752327 -0.0245062 0)
(-0.682796 -0.0421754 0)
(-0.565109 -0.074657 0)
(-0.389393 -0.128164 0)
(-0.290223 -0.152386 0)
(-0.00517723 0.302959 0)
(-0.0270479 0.307333 0)
(-0.171145 0.217669 0)
(-0.307704 0.146348 0)
(-0.416177 0.0988796 0)
(-0.500848 0.0685385 0)
(-0.566574 0.049219 0)
(-0.617779 0.0366226 0)
(-0.658161 0.0280943 0)
(-0.690459 0.0220852 0)
(-0.716623 0.0176929 0)
(-0.738047 0.0143775 0)
(-0.755735 0.0118047 0)
(-0.770424 0.00975963 0)
(-0.782663 0.00809906 0)
(-0.792866 0.00672428 0)
(-0.801348 0.00556522 0)
(-0.808354 0.00457069 0)
(-0.814073 0.00370237 0)
(-0.81865 0.00293081 0)
(-0.822199 0.00223277 0)
(-0.824805 0.00158944 0)
(-0.82653 0.000985118 0)
(-0.827418 0.000406243 0)
(-0.827496 -0.000159312 0)
(-0.826773 -0.000722862 0)
(-0.825246 -0.0012954 0)
(-0.822895 -0.00188812 0)
(-0.819685 -0.00251292 0)
(-0.815565 -0.00318301 0)
(-0.810466 -0.00391368 0)
(-0.804296 -0.00472318 0)
(-0.796937 -0.00563411 0)
(-0.788242 -0.0066752 0)
(-0.778019 -0.00788401 0)
(-0.766029 -0.0093109 0)
(-0.75196 -0.0110252 0)
(-0.735409 -0.0131251 0)
(-0.715845 -0.0157536 0)
(-0.692558 -0.0191263 0)
(-0.664587 -0.0235788 0)
(-0.630611 -0.0296508 0)
(-0.588797 -0.0382364 0)
(-0.536612 -0.050844 0)
(-0.470727 -0.0699954 0)
(-0.387292 -0.0996289 0)
(-0.282128 -0.145151 0)
(-0.151774 -0.212741 0)
(-0.0165813 -0.298334 0)
(-0.0010206 -0.294751 0)
(0.0321207 0.264077 0)
(0.056509 0.362159 0)
(-0.00313912 0.324509 0)
(-0.0948277 0.25978 0)
(-0.190433 0.199862 0)
(-0.27828 0.152605 0)
(-0.354276 0.117485 0)
(-0.418235 0.0917473 0)
(-0.471535 0.0727542 0)
(-0.515882 0.0585163 0)
(-0.552852 0.0476368 0)
(-0.583767 0.0391569 0)
(-0.609696 0.0324186 0)
(-0.631486 0.0269653 0)
(-0.649803 0.0224746 0)
(-0.665174 0.0187146 0)
(-0.678016 0.0155153 0)
(-0.688657 0.0127491 0)
(-0.697358 0.0103185 0)
(-0.704323 0.00814735 0)
(-0.709712 0.00617468 0)
(-0.713649 0.00435051 0)
(-0.716224 0.00263271 0)
(-0.717501 0.000984668 0)
(-0.71752 -0.000626527 0)
(-0.716296 -0.00223159 0)
(-0.713825 -0.00386039 0)
(-0.71008 -0.00554319 0)
(-0.705015 -0.00731198 0)
(-0.698557 -0.00920194 0)
(-0.69061 -0.0112533 0)
(-0.681049 -0.0135134 0)
(-0.669716 -0.0160401 0)
(-0.65641 -0.0189057 0)
(-0.640886 -0.0222025 0)
(-0.622832 -0.0260518 0)
(-0.601867 -0.0306153 0)
(-0.577507 -0.0361135 0)
(-0.549154 -0.0428524 0)
(-0.516054 -0.0512647 0)
(-0.477277 -0.0619698 0)
(-0.431697 -0.0758616 0)
(-0.378018 -0.0942242 0)
(-0.31492 -0.118854 0)
(-0.241522 -0.152069 0)
(-0.158515 -0.196175 0)
(-0.0702271 -0.251306 0)
(0.0120104 -0.310102 0)
(0.0618802 -0.343492 0)
(0.0329949 -0.250071 0)
(0.0271834 0.205175 0)
(0.063996 0.357351 0)
(0.0558843 0.374699 0)
(0.00936961 0.337082 0)
(-0.0571936 0.284013 0)
(-0.129503 0.232779 0)
(-0.199437 0.189142 0)
(-0.26325 0.153792 0)
(-0.31971 0.12567 0)
(-0.36884 0.103359 0)
(-0.411211 0.0855603 0)
(-0.447574 0.0712215 0)
(-0.478688 0.0595324 0)
(-0.505243 0.0498803 0)
(-0.527837 0.0418037 0)
(-0.546975 0.0349534 0)
(-0.56308 0.0290626 0)
(-0.576496 0.0239248 0)
(-0.587507 0.0193782 0)
(-0.596342 0.0152932 0)
(-0.603182 0.0115645 0)
(-0.608169 0.00810432 0)
(-0.611411 0.00483793 0)
(-0.612983 0.00169978 0)
(-0.612935 -0.00136938 0)
(-0.611287 -0.00442497 0)
(-0.608037 -0.00752072 0)
(-0.603158 -0.0107108 0)
(-0.596598 -0.0140521 0)
(-0.588281 -0.0176062 0)
(-0.578101 -0.0214425 0)
(-0.565925 -0.0256418 0)
(-0.551585 -0.0303003 0)
(-0.534877 -0.0355357 0)
(-0.515553 -0.041495 0)
(-0.493316 -0.0483648 0)
(-0.467811 -0.0563858 0)
(-0.438627 -0.0658718 0)
(-0.405286 -0.0772352 0)
(-0.367262 -0.0910198 0)
(-0.324006 -0.107937 0)
(-0.275036 -0.128897 0)
(-0.220102 -0.155001 0)
(-0.159536 -0.187408 0)
(-0.0948754 -0.226894 0)
(-0.0299203 -0.272608 0)
(0.0276655 -0.319155 0)
(0.0648579 -0.35091 0)
(0.0656486 -0.332242 0)
(0.0268397 -0.190144 0)
(0.0185053 0.163246 0)
(0.0534394 0.33069 0)
(0.0694839 0.385385 0)
(0.0547227 0.377412 0)
(0.0162786 0.341123 0)
(-0.0351634 0.296107 0)
(-0.0914799 0.251924 0)
(-0.147508 0.212418 0)
(-0.200349 0.178589 0)
(-0.248616 0.150184 0)
(-0.291834 0.126496 0)
(-0.33003 0.106735 0)
(-0.363476 0.090172 0)
(-0.392548 0.0761859 0)
(-0.417647 0.0642689 0)
(-0.439156 0.0540104 0)
(-0.457423 0.0450807 0)
(-0.472751 0.0372141 0)
(-0.485402 0.030195 0)
(-0.495594 0.0238463 0)
(-0.503507 0.0180205 0)
(-0.509283 0.0125927 0)
(-0.513033 0.00745488 0)
(-0.514839 0.00251121 0)
(-0.514752 -0.00232543 0)
(-0.5128 -0.00713672 0)
(-0.508984 -0.0120017 0)
(-0.503282 -0.0169997 0)
(-0.495648 -0.0222126 0)
(-0.486011 -0.0277284 0)
(-0.474276 -0.0336442 0)
(-0.460324 -0.0400706 0)
(-0.444008 -0.0471363 0)
(-0.425154 -0.0549943 0)
(-0.403564 -0.0638295 0)
(-0.379011 -0.0738683 0)
(-0.351249 -0.0853896 0)
(-0.320025 -0.0987374 0)
(-0.285097 -0.114334 0)
(-0.246283 -0.132686 0)
(-0.203535 -0.154379 0)
(-0.157072 -0.180027 0)
(-0.107603 -0.210137 0)
(-0.0566754 -0.244783 0)
(-0.00715635 -0.28292 0)
(0.0361866 -0.321014 0)
(0.0661651 -0.350587 0)
(0.0736154 -0.35441 0)
(0.0532097 -0.302096 0)
(0.0178965 -0.148594 0)
(0.012018 0.134257 0)
(0.0412335 0.299185 0)
(0.0664345 0.37558 0)
(0.0707445 0.392196 0)
(0.0539011 0.374706 0)
(0.0219207 0.340948 0)
(-0.0189776 0.301696 0)
(-0.0638415 0.26274 0)
(-0.109196 0.22679 0)
(-0.152849 0.194828 0)
(-0.193558 0.166948 0)
(-0.230707 0.142835 0)
(-0.264082 0.122026 0)
(-0.293697 0.104031 0)
(-0.319694 0.0883952 0)
(-0.342276 0.0747157 0)
(-0.361666 0.0626471 0)
(-0.378083 0.0518962 0)
(-0.391731 0.0422149 0)
(-0.40279 0.0333928 0)
(-0.411415 0.0252493 0)
(-0.417736 0.0176285 0)
(-0.421856 0.0103926 0)
(-0.423852 0.00341831 0)
(-0.423776 -0.00340757 0)
(-0.42166 -0.0101915 0)
(-0.417511 -0.0170362 0)
(-0.411316 -0.0240439 0)
(-0.403041 -0.0313193 0)
(-0.392632 -0.0389724 0)
(-0.38002 -0.0471225 0)
(-0.365114 -0.0559015 0)
(-0.347811 -0.0654588 0)
(-0.327996 -0.0759658 0)
(-0.305548 -0.0876216 0)
(-0.280347 -0.100658 0)
(-0.252294 -0.115346 0)
(-0.221329 -0.131993 0)
(-0.187476 -0.150942 0)
(-0.150895 -0.172546 0)
(-0.111984 -0.19712 0)
(-0.0715034 -0.224826 0)
(-0.0307735 -0.255458 0)
(0.00809041 -0.288039 0)
(0.0419387 -0.320124 0)
(0.0664886 -0.346671 0)
(0.0765653 -0.35843 0)
(0.0674121 -0.340067 0)
(0.0402091 -0.269221 0)
(0.0114486 -0.120304 0)
(0.00794221 0.113494 0)
(0.031538 0.269293 0)
(0.0586619 0.356581 0)
(0.0731499 0.391024 0)
(0.0710654 0.390402 0)
(0.054715 0.369262 0)
(0.0280214 0.337861 0)
(-0.00509207 0.302725 0)
(-0.0413528 0.267632 0)
(-0.0783339 0.234551 0)
(-0.11438 0.204346 0)
(-0.148443 0.177245 0)
(-0.179913 0.153145 0)
(-0.208478 0.131783 0)
(-0.234023 0.112835 0)
(-0.256554 0.0959715 0)
(-0.276145 0.0808784 0)
(-0.292906 0.0672712 0)
(-0.306961 0.0548956 0)
(-0.318435 0.0435264 0)
(-0.327443 0.0329642 0)
(-0.334087 0.0230317 0)
(-0.338452 0.0135692 0)
(-0.340605 0.00443152 0)
(-0.340597 -0.00451588 0)
(-0.338458 -0.0134 0)
(-0.334205 -0.0223432 0)
(-0.327835 -0.0314662 0)
(-0.319331 -0.0408908 0)
(-0.308666 -0.0507428 0)
(-0.2958 -0.0611549 0)
(-0.280686 -0.0722696 0)
(-0.263276 -0.0842423 0)
(-0.243525 -0.0972439 0)
(-0.221404 -0.111463 0)
(-0.196911 -0.127104 0)
(-0.170097 -0.144387 0)
(-0.141091 -0.163534 0)
(-0.110145 -0.184746 0)
(-0.0776968 -0.208162 0)
(-0.0444515 -0.233768 0)
(-0.011483 -0.261262 0)
(0.0196438 -0.289809 0)
(0.0467664 -0.317658 0)
(0.067105 -0.341575 0)
(0.0774699 -0.356072 0)
(0.0748344 -0.352553 0)
(0.0576999 -0.318731 0)
(0.0301944 -0.239289 0)
(0.00746228 -0.100362 0)
(0.00550152 0.0981365 0)
(0.0245631 0.242844 0)
(0.0505347 0.334233 0)
(0.069772 0.380506 0)
(0.0770288 0.393461 0)
(0.0722213 0.384223 0)
(0.0573109 0.361681 0)
(0.0349861 0.332229 0)
(0.00791843 0.3001 0)
(-0.0216246 0.267894 0)
(-0.0518911 0.237077 0)
(-0.0816142 0.208376 0)
(-0.109928 0.182063 0)
(-0.136276 0.158141 0)
(-0.160324 0.13647 0)
(-0.181896 0.116835 0)
(-0.200919 0.098997 0)
(-0.21739 0.0827112 0)
(-0.231342 0.0677433 0)
(-0.242833 0.053874 0)
(-0.251929 0.0409006 0)
(-0.258697 0.0286369 0)
(-0.263196 0.0169112 0)
(-0.26548 0.00556434 0)
(-0.265592 -0.00555275 0)
(-0.263562 -0.0165814 0)
(-0.259411 -0.0276577 0)
(-0.253152 -0.0389146 0)
(-0.244787 -0.0504842 0)
(-0.234315 -0.0624999 0)
(-0.221732 -0.0750983 0)
(-0.207039 -0.0884208 0)
(-0.190244 -0.102614 0)
(-0.171377 -0.117832 0)
(-0.150498 -0.134229 0)
(-0.127717 -0.151959 0)
(-0.103213 -0.171162 0)
(-0.077268 -0.191943 0)
(-0.0503063 -0.214339 0)
(-0.022943 -0.238253 0)
(0.00395608 -0.263366 0)
(0.0292131 -0.288982 0)
(0.0512903 -0.313814 0)
(0.0682903 -0.335668 0)
(0.0780749 -0.351046 0)
(0.0786047 -0.354707 0)
(0.0685532 -0.339342 0)
(0.0483846 -0.295673 0)
(0.0230808 -0.2136 0)
(0.00509141 -0.0858593 0)
(0.00402032 0.0863478 0)
(0.0196262 0.219936 0)
(0.0433784 0.31144 0)
(0.0643077 0.36496 0)
(0.077093 0.388126 0)
(0.0803347 0.389125 0)
(0.0745798 0.375229 0)
(0.0614045 0.352214 0)
(0.0427612 0.324308 0)
(0.020547 0.294403 0)
(-0.00360519 0.264361 0)
(-0.0283912 0.235298 0)
(-0.0528256 0.207816 0)
(-0.0761967 0.182184 0)
(-0.098013 0.158458 0)
(-0.117951 0.136568 0)
(-0.135812 0.116372 0)
(-0.151482 0.0976938 0)
(-0.164911 0.0803394 0)
(-0.176087 0.0641144 0)
(-0.185021 0.0488285 0)
(-0.191742 0.0342994 0)
(-0.19628 0.0203541 0)
(-0.19867 0.00682854 0)
(-0.198945 -0.00643273 0)
(-0.197133 -0.0195782 0)
(-0.193261 -0.0327505 0)
(-0.187352 -0.0460877 0)
(-0.179429 -0.0597248 0)
(-0.169517 -0.0737944 0)
(-0.157648 -0.0884278 0)
(-0.143867 -0.103754 0)
(-0.128238 -0.1199 0)
(-0.110857 -0.136986 0)
(-0.0918617 -0.155119 0)
(-0.0714515 -0.174387 0)
(-0.0499067 -0.194836 0)
(-0.0276154 -0.216444 0)
(-0.00510443 -0.239082 0)
(0.0169266 -0.262445 0)
(0.0375729 -0.28596 0)
(0.0557025 -0.308655 0)
(0.0699652 -0.328975 0)
(0.0788603 -0.344566 0)
(0.0809187 -0.352027 0)
(0.0750568 -0.346716 0)
(0.0610957 -0.322736 0)
(0.0404947 -0.273316 0)
(0.018079 -0.191934 0)
(0.00365668 -0.0749287 0)
(0.0030823 0.076964 0)
(0.0160758 0.200145 0)
(0.0374104 0.289545 0)
(0.058399 0.347049 0)
(0.0741842 0.377511 0)
(0.0827704 0.386815 0)
(0.0837979 0.380699 0)
(0.077974 0.364119 0)
(0.0665766 0.34101 0)
(0.0510606 0.314298 0)
(0.0328206 0.286041 0)
(0.0130726 0.257614 0)
(-0.00718672 0.229879 0)
(-0.0271781 0.203336 0)
(-0.046315 0.178229 0)
(-0.064171 0.154637 0)
(-0.080447 0.13253 0)
(-0.0949416 0.111812 0)
(-0.107526 0.0923491 0)
(-0.118123 0.0739854 0)
(-0.126695 0.0565566 0)
(-0.133227 0.0398964 0)
(-0.137722 0.023841 0)
(-0.140194 0.0082308 0)
(-0.140664 -0.00708793 0)
(-0.139155 -0.0222631 0)
(-0.135698 -0.0374365 0)
(-0.130325 -0.0527442 0)
(-0.123077 -0.0683166 0)
(-0.114003 -0.084278 0)
(-0.103166 -0.100746 0)
(-0.0906506 -0.117828 0)
(-0.0765671 -0.135622 0)
(-0.061065 -0.154206 0)
(-0.0443436 -0.173633 0)
(-0.0266667 -0.193914 0)
(-0.00838052 -0.215001 0)
(0.010067 -0.236753 0)
(0.0281059 -0.258894 0)
(0.0450269 -0.280952 0)
(0.0599712 -0.302175 0)
(0.0719407 -0.321422 0)
(0.0798406 -0.337038 0)
(0.0825811 -0.346703 0)
(0.0792696 -0.347318 0)
(0.0695203 -0.334959 0)
(0.0538395 -0.305017 0)
(0.0340759 -0.252646 0)
(0.0145021 -0.17368 0)
(0.00275039 -0.0663995 0)
(0.00245558 0.0692693 0)
(0.0134479 0.182968 0)
(0.0324954 0.269099 0)
(0.0527104 0.328354 0)
(0.0698714 0.363783 0)
(0.081814 0.379551 0)
(0.0876583 0.380081 0)
(0.0874957 0.369486 0)
(0.0820455 0.351262 0)
(0.0723355 0.32819 0)
(0.0594761 0.302373 0)
(0.0445238 0.275322 0)
(0.02841 0.248079 0)
(0.0119129 0.22132 0)
(-0.00434221 0.195456 0)
(-0.0198695 0.170704 0)
(-0.0343022 0.147146 0)
(-0.0473715 0.124775 0)
(-0.058886 0.103523 0)
(-0.0687146 0.0832853 0)
(-0.0767719 0.0639338 0)
(-0.0830065 0.0453282 0)
(-0.0873925 0.0273229 0)
(-0.089923 0.00977147 0)
(-0.0906052 -0.00747027 0)
(-0.0894582 -0.0245422 0)
(-0.086512 -0.0415785 0)
(-0.0818071 -0.0587064 0)
(-0.0753969 -0.0760449 0)
(-0.0673503 -0.0937033 0)
(-0.057756 -0.111778 0)
(-0.0467283 -0.130352 0)
(-0.0344142 -0.149484 0)
(-0.0210022 -0.169209 0)
(-0.00673266 -0.189519 0)
(0.00809053 -0.210353 0)
(0.0230874 -0.231575 0)
(0.0377897 -0.25294 0)
(0.051631 -0.274056 0)
(0.0639428 -0.294331 0)
(0.073963 -0.312903 0)
(0.0808642 -0.328562 0)
(0.0838151 -0.339663 0)
(0.0820891 -0.344048 0)
(0.0752386 -0.339005 0)
(0.0633406 -0.321314 0)
(0.0472592 -0.287442 0)
(0.0288943 -0.233958 0)
(0.0118731 -0.158221 0)
(0.00214753 -0.0595507 0)
(0.00201334 0.062816 0)
(0.011437 0.167965 0)
(0.0284224 0.250272 0)
(0.0474621 0.309794 0)
(0.0649726 0.348411 0)
(0.0788492 0.369044 0)
(0.0879569 0.375051 0)
(0.0919845 0.369766 0)
(0.0912264 0.3562 0)
(0.0863409 0.336892 0)
(0.0781574 0.313872 0)
(0.067543 0.288695 0)
(0.0553186 0.262502 0)
(0.0422133 0.236096 0)
(0.0288461 0.210017 0)
(0.0157244 0.184601 0)
(0.00325202 0.160035 0)
(-0.00825777 0.136399 0)
(-0.0185682 0.113694 0)
(-0.027505 0.091873 0)
(-0.0349447 0.07085 0)
(-0.0408035 0.0505186 0)
(-0.0450295 0.0307589 0)
(-0.0475961 0.0114449 0)
(-0.0484974 -0.00755121 0)
(-0.0477454 -0.0263548 0)
(-0.0453683 -0.0450862 0)
(-0.0414111 -0.0638579 0)
(-0.0359361 -0.082772 0)
(-0.029026 -0.101918 0)
(-0.0207877 -0.121367 0)
(-0.0113569 -0.141169 0)
(-0.000904258 -0.161348 0)
(0.0103571 -0.181889 0)
(0.022164 -0.202728 0)
(0.0341951 -0.223738 0)
(0.0460632 -0.244706 0)
(0.0573096 -0.265306 0)
(0.067403 -0.28506 0)
(0.0757458 -0.303302 0)
(0.0816939 -0.319119 0)
(0.0845952 -0.331303 0)
(0.0838556 -0.338295 0)
(0.0790408 -0.338159 0)
(0.0700203 -0.328587 0)
(0.0571509 -0.306984 0)
(0.0414429 -0.270676 0)
(0.0246799 -0.217246 0)
(0.00987982 -0.145038 0)
(0.0017251 -0.0539287 0)
(0.00168514 0.0573143 0)
(0.0098457 0.154785 0)
(0.0249966 0.233073 0)
(0.0426845 0.291899 0)
(0.0598993 0.332388 0)
(0.0747049 0.356569 0)
(0.0858796 0.366965 0)
(0.0928719 0.366239 0)
(0.0956737 0.356926 0)
(0.0946468 0.341278 0)
(0.0903698 0.321186 0)
(0.0835189 0.298174 0)
(0.0747843 0.273418 0)
(0.0648165 0.247801 0)
(0.0541965 0.221951 0)
(0.0434232 0.196302 0)
(0.0329114 0.171131 0)
(0.0229972 0.146597 0)
(0.0139461 0.122772 0)
(0.00596228 0.0996636 0)
(-0.000801481 0.0772338 0)
(-0.00623551 0.0554144 0)
(-0.0102659 0.0341168 0)
(-0.0128485 0.0132406 0)
(-0.0139648 -0.00731988 0)
(-0.0136188 -0.0276702 0)
(-0.0118355 -0.0479118 0)
(-0.00866025 -0.0681378 0)
(-0.00416038 -0.0884292 0)
(0.00157348 -0.108851 0)
(0.008424 -0.129447 0)
(0.0162432 -0.150236 0)
(0.0248478 -0.171199 0)
(0.0340137 -0.192279 0)
(0.0434713 -0.21336 0)
(0.0528996 -0.234257 0)
(0.0619242 -0.254696 0)
(0.0701163 -0.274288 0)
(0.0769982 -0.292504 0)
(0.0820565 -0.308637 0)
(0.0847677 -0.32177 0)
(0.0846397 -0.330744 0)
(0.0812754 -0.33413 0)
(0.0744594 -0.330232 0)
(0.0642717 -0.31712 0)
(0.0512182 -0.29273 0)
(0.0363287 -0.255051 0)
(0.0211997 -0.20239 0)
(0.00832015 -0.133728 0)
(0.0014145 -0.0492385 0)
(0.00143058 0.0525703 0)
(0.00854599 0.143157 0)
(0.0220608 0.217441 0)
(0.0383343 0.274971 0)
(0.0548478 0.316379 0)
(0.0698746 0.343059 0)
(0.0822072 0.356894 0)
(0.0911693 0.359986 0)
(0.0965507 0.35444 0)
(0.0984894 0.342209 0)
(0.0973545 0.325012 0)
(0.0936472 0.304291 0)
(0.0879245 0.281213 0)
(0.0807439 0.256691 0)
(0.0726286 0.231416 0)
(0.0640474 0.20589 0)
(0.0554058 0.180464 0)
(0.0470442 0.155366 0)
(0.0392413 0.130731 0)
(0.0322194 0.106622 0)
(0.0261506 0.0830492 0)
(0.0211639 0.0599842 0)
(0.0173504 0.037373 0)
(0.0147688 0.0151448 0)
(0.0134494 -0.00678004 0)
(0.0133963 -0.0284835 0)
(0.0145898 -0.0500442 0)
(0.0169864 -0.0715325 0)
(0.0205186 -0.0930056 0)
(0.0250931 -0.114502 0)
(0.030589 -0.136037 0)
(0.0368546 -0.157594 0)
(0.043704 -0.17912 0)
(0.0509139 -0.200515 0)
(0.0582203 -0.221617 0)
(0.0653168 -0.242196 0)
(0.0718549 -0.26193 0)
(0.0774479 -0.280388 0)
(0.0816802 -0.297011 0)
(0.0841242 -0.311084 0)
(0.0843678 -0.321716 0)
(0.082055 -0.327825 0)
(0.0769419 -0.328129 0)
(0.0689677 -0.321166 0)
(0.0583407 -0.305343 0)
(0.0456278 -0.279031 0)
(0.0318077 -0.240723 0)
(0.0182704 -0.18924 0)
(0.00706194 -0.123983 0)
(0.00117613 -0.0452818 0)
(0.00122553 0.0484501 0)
(0.00745325 0.132875 0)
(0.0194953 0.203298 0)
(0.034347 0.259181 0)
(0.0499027 0.300835 0)
(0.064651 0.329202 0)
(0.0774549 0.345675 0)
(0.0875911 0.351904 0)
(0.0947257 0.349616 0)
(0.0988359 0.340484 0)
(0.100125 0.326038 0)
(0.0989443 0.307612 0)
(0.0957253 0.286329 0)
(0.0909299 0.263102 0)
(0.0850135 0.238652 0)
(0.078401 0.213529 0)
(0.0714734 0.188137 0)
(0.0645614 0.162764 0)
(0.0579439 0.137599 0)
(0.05185 0.112756 0)
(0.0464627 0.0882905 0)
(0.0419231 0.0642156 0)
(0.0383347 0.0405126 0)
(0.0357679 0.0171422 0)
(0.0342626 -0.00594684 0)
(0.0338315 -0.0288103 0)
(0.0344609 -0.0515016 0)
(0.036112 -0.0740664 0)
(0.0387204 -0.096536 0)
(0.0421954 -0.118922 0)
(0.0464186 -0.14121 0)
(0.0512416 -0.163352 0)
(0.0564842 -0.185261 0)
(0.0619326 -0.206798 0)
(0.0673384 -0.227766 0)
(0.0724186 -0.247896 0)
(0.0768592 -0.266833 0)
(0.0803209 -0.284121 0)
(0.0824515 -0.299189 0)
(0.0829035 -0.311334 0)
(0.0813615 -0.319711 0)
(0.0775787 -0.323328 0)
(0.0714243 -0.321052 0)
(0.0629393 -0.311636 0)
(0.0524004 -0.293774 0)
(0.0403792 -0.266186 0)
(0.0277671 -0.227749 0)
(0.015753 -0.177652 0)
(0.00601699 -0.115572 0)
(0.000986081 -0.0419216 0)
(0.0010549 0.0448587 0)
(0.00651032 0.123783 0)
(0.0172103 0.190564 0)
(0.030658 0.244625 0)
(0.0450925 0.286063 0)
(0.0592075 0.315499 0)
(0.0719647 0.333956 0)
(0.082645 0.34272 0)
(0.0908475 0.343201 0)
(0.0964416 0.336817 0)
(0.0995055 0.32491 0)
(0.100267 0.308697 0)
(0.0990472 0.289232 0)
(0.0962172 0.267407 0)
(0.0921615 0.243949 0)
(0.087254 0.219434 0)
(0.0818415 0.194306 0)
(0.0762342 0.168898 0)
(0.0707013 0.143444 0)
(0.0654694 0.118105 0)
(0.0607244 0.0929771 0)
(0.0566132 0.0681129 0)
(0.0532473 0.0435287 0)
(0.050705 0.0192173 0)
(0.0490345 -0.00484341 0)
(0.048256 -0.0286816 0)
(0.0483631 -0.0523247 0)
(0.0493232 -0.0757922 0)
(0.0510783 -0.0990895 0)
(0.0535443 -0.122201 0)
(0.0566099 -0.145084 0)
(0.060136 -0.167661 0)
(0.0639547 -0.189814 0)
(0.0678681 -0.211372 0)
(0.0716499 -0.232107 0)
(0.0750463 -0.251721 0)
(0.0777814 -0.269837 0)
(0.0795648 -0.285986 0)
(0.0801039 -0.2996 0)
(0.0791221 -0.310001 0)
(0.0763837 -0.316399 0)
(0.0717253 -0.317894 0)
(0.0650949 -0.313495 0)
(0.0565949 -0.302145 0)
(0.0465278 -0.282776 0)
(0.0354354 -0.254387 0)
(0.0241059 -0.216144 0)
(0.0135432 -0.167501 0)
(0.00512503 -0.108321 0)
(0.000829305 -0.0390616 0)
(0.000908856 0.0417273 0)
(0.00567773 0.115763 0)
(0.0151393 0.179168 0)
(0.0272103 0.231354 0)
(0.040419 0.272275 0)
(0.053647 0.302321 0)
(0.0659666 0.322238 0)
(0.0766944 0.333024 0)
(0.0854043 0.335823 0)
(0.091898 0.331831 0)
(0.0961645 0.322217 0)
(0.0983342 0.308075 0)
(0.098636 0.290383 0)
(0.097358 0.269992 0)
(0.0948166 0.247619 0)
(0.0913323 0.223851 0)
(0.0872123 0.199159 0)
(0.0827393 0.173906 0)
(0.0781651 0.148365 0)
(0.0737067 0.122734 0)
(0.0695463 0.0971474 0)
(0.0658314 0.0716932 0)
(0.0626763 0.0464212 0)
(0.0601648 0.0213552 0)
(0.0583511 -0.0034979 0)
(0.0572622 -0.0281389 0)
(0.056899 -0.0525691 0)
(0.0572368 -0.0767822 0)
(0.0582262 -0.100758 0)
(0.0597925 -0.124455 0)
(0.0618358 -0.147803 0)
(0.0642304 -0.170699 0)
(0.066825 -0.192995 0)
(0.0694428 -0.214496 0)
(0.0718831 -0.234948 0)
(0.0739244 -0.254032 0)
(0.07533 -0.271356 0)
(0.0758558 -0.286448 0)
(0.0752633 -0.298751 0)
(0.0733358 -0.307619 0)
(0.0699004 -0.312319 0)
(0.0648547 -0.312044 0)
(0.0581976 -0.305925 0)
(0.0500623 -0.29307 0)
(0.0407483 -0.272607 0)
(0.0307471 -0.243755 0)
(0.0207395 -0.205899 0)
(0.0115631 -0.158683 0)
(0.004344 -0.102103 0)
(0.000695934 -0.0366325 0)
(0.000780787 0.0390048 0)
(0.00492762 0.108724 0)
(0.0132325 0.169049 0)
(0.0239565 0.219394 0)
(0.0358725 0.259617 0)
(0.0480309 0.289943 0)
(0.0596174 0.310908 0)
(0.0700035 0.323284 0)
(0.0787659 0.328 0)
(0.0856707 0.32606 0)
(0.0906461 0.318478 0)
(0.0937499 0.306229 0)
(0.0951353 0.290212 0)
(0.0950194 0.27123 0)
(0.0936556 0.249977 0)
(0.0913119 0.22704 0)
(0.088254 0.202901 0)
(0.0847332 0.177946 0)
(0.0809784 0.152478 0)
(0.077192 0.126724 0)
(0.0735469 0.100853 0)
(0.0701865 0.0749833 0)
(0.0672246 0.0491955 0)
(0.064747 0.0235426 0)
(0.0628121 -0.00194097 0)
(0.0614528 -0.0272298 0)
(0.0606771 -0.0522998 0)
(0.060469 -0.0771201 0)
(0.0607891 -0.101646 0)
(0.0615745 -0.125812 0)
(0.0627394 -0.149523 0)
(0.0641745 -0.172652 0)
(0.0657485 -0.195028 0)
(0.067308 -0.216432 0)
(0.0686806 -0.236591 0)
(0.0696775 -0.255171 0)
(0.0701 -0.271772 0)
(0.0697471 -0.285924 0)
(0.0684271 -0.297085 0)
(0.0659721 -0.304642 0)
(0.0622572 -0.307921 0)
(0.0572215 -0.306194 0)
(0.0508933 -0.298704 0)
(0.0434141 -0.284695 0)
(0.0350612 -0.263454 0)
(0.0262645 -0.23437 0)
(0.0175991 -0.196996 0)
(0.00975419 -0.151118 0)
(0.00364392 -0.0968184 0)
(0.000579275 -0.0345843 0)
(0.000666076 0.0366532 0)
(0.00423995 0.102596 0)
(0.0114528 0.160157 0)
(0.0208584 0.208757 0)
(0.0314388 0.248193 0)
(0.0423959 0.278569 0)
(0.0530261 0.300264 0)
(0.0627665 0.313876 0)
(0.0712161 0.320157 0)
(0.0781286 0.319953 0)
(0.083395 0.31414 0)
(0.0870209 0.303588 0)
(0.0891004 0.289116 0)
(0.0897908 0.271474 0)
(0.0892901 0.251328 0)
(0.087817 0.229255 0)
(0.0855958 0.205739 0)
(0.0828446 0.181183 0)
(0.0797666 0.155907 0)
(0.0765453 0.130166 0)
(0.0733408 0.104153 0)
(0.0702885 0.0780158 0)
(0.0674984 0.0518609 0)
(0.0650555 0.0257676 0)
(0.0630208 -0.000203943 0)
(0.0614317 -0.0260043 0)
(0.060303 -0.0515858 0)
(0.0596277 -0.0768949 0)
(0.0593772 -0.101864 0)
(0.059502 -0.126406 0)
(0.0599319 -0.150404 0)
(0.0605764 -0.173709 0)
(0.0613257 -0.19613 0)
(0.0620517 -0.21743 0)
(0.0626105 -0.23732 0)
(0.062846 -0.255454 0)
(0.0625951 -0.271429 0)
(0.0616954 -0.284779 0)
(0.0599947 -0.29498 0)
(0.0573641 -0.301452 0)
(0.0537134 -0.303571 0)
(0.0490082 -0.300681 0)
(0.0432892 -0.292118 0)
(0.03669 -0.277236 0)
(0.0294535 -0.255452 0)
(0.0219423 -0.226286 0)
(0.0146295 -0.189419 0)
(0.00807235 -0.14474 0)
(0.00300304 -0.092397 0)
(0.000474649 -0.0328806 0)
(0.000561418 0.0346435 0)
(0.00359999 0.0973235 0)
(0.00977196 0.152447 0)
(0.0178852 0.199446 0)
(0.0271034 0.238074 0)
(0.036764 0.26835 0)
(0.0462698 0.290536 0)
(0.0551287 0.305094 0)
(0.062975 0.312639 0)
(0.0695669 0.313882 0)
(0.0747767 0.309587 0)
(0.0785746 0.300525 0)
(0.0810102 0.287444 0)
(0.0821924 0.271042 0)
(0.0822711 0.251952 0)
(0.0814205 0.230736 0)
(0.0798253 0.207875 0)
(0.07767 0.183777 0)
(0.0751308 0.158778 0)
(0.0723699 0.13315 0)
(0.0695314 0.10711 0)
(0.06674 0.0808259 0)
(0.064099 0.0544285 0)
(0.0616907 0.02802 0)
(0.0595765 0.00168257 0)
(0.0577971 -0.0245124 0)
(0.0563737 -0.0504963 0)
(0.0553078 -0.0761949 0)
(0.0545824 -0.101521 0)
(0.0541619 -0.126368 0)
(0.0539929 -0.150599 0)
(0.0540047 -0.174048 0)
(0.05411 -0.196505 0)
(0.0542064 -0.217719 0)
(0.0541786 -0.237388 0)
(0.0539017 -0.255159 0)
(0.0532457 -0.270624 0)
(0.0520819 -0.283326 0)
(0.0502915 -0.292756 0)
(0.0477757 -0.298363 0)
(0.0444682 -0.299567 0)
(0.0403489 -0.295771 0)
(0.0354584 -0.286386 0)
(0.0299113 -0.270858 0)
(0.023908 -0.248701 0)
(0.0177411 -0.219541 0)
(0.011787 -0.183152 0)
(0.0064839 -0.139502 0)
(0.00240528 -0.0887851 0)
(0.000378701 -0.0314946 0)
(0.000464378 0.0329534 0)
(0.00299665 0.0928653 0)
(0.00816829 0.145886 0)
(0.0150122 0.191458 0)
(0.0228523 0.22931 0)
(0.0311484 0.259398 0)
(0.0394042 0.281898 0)
(0.0472008 0.297171 0)
(0.0542157 0.30572 0)
(0.0602243 0.308152 0)
(0.0650938 0.305134 0)
(0.0687732 0.297356 0)
(0.0712795 0.285499 0)
(0.0726836 0.270214 0)
(0.0730946 0.252101 0)
(0.0726471 0.231701 0)
(0.071489 0.209491 0)
(0.0697722 0.185878 0)
(0.0676453 0.161208 0)
(0.0652475 0.135765 0)
(0.0627055 0.109783 0)
(0.0601306 0.0834483 0)
(0.0576176 0.0569101 0)
(0.0552437 0.03029 0)
(0.0530693 0.00368934 0)
(0.0511372 -0.0228019 0)
(0.0494738 -0.049097 0)
(0.0480891 -0.0751042 0)
(0.0469773 -0.100719 0)
(0.0461172 -0.125817 0)
(0.0454726 -0.150248 0)
(0.0449928 -0.173828 0)
(0.0446137 -0.196334 0)
(0.0442583 -0.217501 0)
(0.0438394 -0.237017 0)
(0.0432615 -0.254523 0)
(0.042425 -0.269611 0)
(0.0412311 -0.281827 0)
(0.0395883 -0.290675 0)
(0.0374209 -0.29563 0)
(0.0346781 -0.296146 0)
(0.0313449 -0.291672 0)
(0.0274525 -0.28168 0)
(0.0230889 -0.265684 0)
(0.0184067 -0.243277 0)
(0.0136277 -0.214161 0)
(0.0090365 -0.178182 0)
(0.00496286 -0.135367 0)
(0.00183849 -0.085944 0)
(0.000288959 -0.0304071 0)
(0.000373109 0.031566 0)
(0.00242141 0.0891878 0)
(0.00662467 0.140444 0)
(0.0122192 0.184789 0)
(0.0186727 0.221934 0)
(0.0255565 0.251795 0)
(0.03247 0.274483 0)
(0.0390679 0.290283 0)
(0.0450763 0.299615 0)
(0.050296 0.303004 0)
(0.0545998 0.301039 0)
(0.057926 0.29434 0)
(0.0602697 0.283534 0)
(0.0616718 0.269227 0)
(0.0622077 0.25199 0)
(0.0619772 0.232342 0)
(0.0610945 0.21075 0)
(0.0596804 0.187621 0)
(0.0578558 0.163303 0)
(0.0557367 0.13809 0)
(0.0534306 0.112227 0)
(0.0510342 0.0859138 0)
(0.0486315 0.0593153 0)
(0.0462935 0.0325681 0)
(0.0440776 0.00578882 0)
(0.0420277 -0.0209173 0)
(0.0401743 -0.0474487 0)
(0.0385354 -0.0736991 0)
(0.0371159 -0.09955 0)
(0.0359088 -0.124864 0)
(0.0348952 -0.149476 0)
(0.0340446 -0.17319 0)
(0.0333154 -0.195772 0)
(0.0326564 -0.216946 0)
(0.0320069 -0.236393 0)
(0.0312998 -0.253746 0)
(0.0304631 -0.268596 0)
(0.0294247 -0.280491 0)
(0.0281159 -0.288947 0)
(0.0264786 -0.293454 0)
(0.024471 -0.293492 0)
(0.0220763 -0.288545 0)
(0.0193103 -0.278129 0)
(0.0162285 -0.261811 0)
(0.0129328 -0.239237 0)
(0.00957453 -0.210167 0)
(0.00635004 -0.174502 0)
(0.00348888 -0.132311 0)
(0.00129335 -0.083846 0)
(0.000203549 -0.0296046 0)
(0.000286158 0.0304683 0)
(0.00186745 0.0862653 0)
(0.00512721 0.136098 0)
(0.00948921 0.179433 0)
(0.0145527 0.21597 0)
(0.0199919 0.245598 0)
(0.0254975 0.268387 0)
(0.030797 0.284564 0)
(0.0356684 0.294492 0)
(0.0399438 0.298629 0)
(0.043509 0.297504 0)
(0.0463001 0.291686 0)
(0.0482979 0.281754 0)
(0.0495205 0.268276 0)
(0.0500157 0.251796 0)
(0.0498524 0.232815 0)
(0.0491143 0.211788 0)
(0.0478926 0.189117 0)
(0.0462814 0.165152 0)
(0.0443729 0.140191 0)
(0.0422548 0.114486 0)
(0.0400076 0.0882473 0)
(0.0377037 0.0616506 0)
(0.0354058 0.0348437 0)
(0.0331673 0.00795493 0)
(0.0310317 -0.018899 0)
(0.029033 -0.0456052 0)
(0.0271959 -0.0720463 0)
(0.0255357 -0.0980932 0)
(0.0240591 -0.123598 0)
(0.0227639 -0.148385 0)
(0.0216397 -0.172249 0)
(0.0206676 -0.194947 0)
(0.0198206 -0.216193 0)
(0.0190647 -0.235662 0)
(0.0183593 -0.252981 0)
(0.0176587 -0.267737 0)
(0.0169143 -0.279481 0)
(0.0160776 -0.28773 0)
(0.0151035 -0.291986 0)
(0.0139554 -0.291744 0)
(0.0126099 -0.286511 0)
(0.0110626 -0.275831 0)
(0.00933355 -0.259306 0)
(0.00747178 -0.236621 0)
(0.00555843 -0.207575 0)
(0.00370478 -0.172108 0)
(0.00204563 -0.130316 0)
(0.000762447 -0.0824724 0)
(0.000121002 -0.0290775 0)
(0.000202339 0.0296505 0)
(0.00132912 0.0840783 0)
(0.0036642 0.13283 0)
(0.0068075 0.175382 0)
(0.0104809 0.21143 0)
(0.0144555 0.240848 0)
(0.0185091 0.263678 0)
(0.0224415 0.280112 0)
(0.026084 0.290469 0)
(0.0293042 0.295164 0)
(0.0320059 0.294683 0)
(0.034129 0.289552 0)
(0.0356461 0.280314 0)
(0.0365579 0.26751 0)
(0.036889 0.251658 0)
(0.0366814 0.233243 0)
(0.0359905 0.21271 0)
(0.0348798 0.190454 0)
(0.0334168 0.166823 0)
(0.0316703 0.142117 0)
(0.0297074 0.116592 0)
(0.0275919 0.0904648 0)
(0.0253827 0.063917 0)
(0.0231336 0.0371042 0)
(0.0208924 0.0101626 0)
(0.0187012 -0.0167834 0)
(0.0165961 -0.0436132 0)
(0.0146076 -0.0702022 0)
(0.0127609 -0.0964138 0)
(0.0110756 -0.122093 0)
(0.00956594 -0.147057 0)
(0.00824077 -0.171094 0)
(0.00710334 -0.193954 0)
(0.00615109 -0.215344 0)
(0.00537545 -0.234932 0)
(0.00476172 -0.252341 0)
(0.00428922 -0.267152 0)
(0.00393174 -0.278911 0)
(0.00365846 -0.287137 0)
(0.00343557 -0.291333 0)
(0.00322842 -0.290998 0)
(0.00300445 -0.285652 0)
(0.00273663 -0.274852 0)
(0.0024072 -0.258219 0)
(0.00201134 -0.23546 0)
(0.00156018 -0.206398 0)
(0.00108177 -0.170996 0)
(0.000619676 -0.129371 0)
(0.000239711 -0.0818117 0)
(4.0124e-05 -0.0288202 0)
(0.000120632 0.0291058 0)
(0.000801501 0.0826125 0)
(0.00222522 0.130625 0)
(0.00416052 0.172629 0)
(0.00644608 0.208321 0)
(0.00894554 0.237569 0)
(0.0115214 0.260401 0)
(0.0140444 0.27699 0)
(0.0164004 0.287629 0)
(0.0184944 0.292707 0)
(0.0202522 0.29268 0)
(0.0216209 0.288046 0)
(0.0225691 0.279325 0)
(0.0230842 0.267033 0)
(0.0231706 0.251672 0)
(0.0228465 0.233713 0)
(0.0221407 0.21359 0)
(0.0210901 0.191691 0)
(0.0197367 0.168361 0)
(0.0181255 0.1439 0)
(0.0163027 0.118564 0)
(0.0143145 0.0925718 0)
(0.0122056 0.0661087 0)