/*--------------------------------*- C++ -*----------------------------------*\
  =========                 |
  \\      /  F ield         | OpenFOAM: The Open Source CFD Toolbox
   \\    /   O peration     | Website:  https://openfoam.org
    \\  /    A nd           | Version:  7
     \\/     M anipulation  |
\*---------------------------------------------------------------------------*/
FoamFile
{
    version     2.0;
    format      ascii;
    class       volScalarField;
    location    "0.0522";
    object      p;
}
// * * * * * * * * * * * * * * * * * * * * * * * * * * * * * * * * * * * * * //

dimensions      [0 2 -2 0 0 0 0];

internalField   nonuniform List<scalar> 
2500
(
2.27959e-05
6.38533
9.05051
10.147
10.7406
11.0913
11.3068
11.4485
11.548
11.6212
11.6772
11.7213
11.7572
11.7873
11.8132
11.8363
11.8573
11.8771
11.8959
11.9143
11.9325
11.9508
11.9693
11.9882
12.0076
12.0276
12.0484
12.0701
12.0929
12.117
12.1426
12.17
12.1997
12.2319
12.2675
12.3071
12.3517
12.4027
12.4621
12.5323
12.6171
12.7223
12.8573
13.0386
13.2981
13.6999
14.3604
15.5516
18.3329
24.8424
4.86799
7.46785
8.88605
9.77036
10.375
10.7825
11.0587
11.2518
11.3914
11.4953
11.5749
11.6375
11.688
11.7298
11.7654
11.7964
11.8241
11.8494
11.8731
11.8957
11.9176
11.9392
11.9607
11.9823
12.0043
12.0269
12.0503
12.0747
12.1003
12.1274
12.1563
12.1875
12.2215
12.2588
12.3003
12.3471
12.4004
12.4622
12.535
12.6223
12.7292
12.8635
13.0366
13.2672
13.5856
14.0421
14.7064
15.6632
17.167
19.8844
7.70308
8.46702
9.21076
9.83507
10.3226
10.6858
10.9537
11.1529
11.3032
11.4186
11.5089
11.581
11.6397
11.6886
11.7303
11.7665
11.7988
11.828
11.8552
11.8808
11.9055
11.9295
11.9533
11.977
12.0011
12.0256
12.051
12.0773
12.105
12.1344
12.1657
12.1996
12.2366
12.2773
12.3228
12.3741
12.4327
12.5008
12.5808
12.6766
12.793
12.9373
13.1196
13.3541
13.6612
14.0685
14.606
15.2843
16.0823
16.9112
9.11086
9.28859
9.66873
10.071
10.4216
10.7084
10.9375
11.1188
11.2622
11.3765
11.4686
11.5438
11.6061
11.6587
11.7039
11.7434
11.7787
11.8107
11.8404
11.8683
11.895
11.921
11.9466
11.972
11.9977
12.0239
12.0508
12.0787
12.108
12.139
12.1722
12.208
12.247
12.29
12.338
12.3919
12.4534
12.5244
12.6071
12.705
12.8221
12.9639
13.1374
13.3514
13.6159
13.9409
14.3315
14.7738
15.1894
15.398
9.921
9.9016
10.0788
10.3237
10.5643
10.7802
10.9658
11.1214
11.2505
11.3572
11.4459
11.5202
11.583
11.6369
11.6838
11.7252
11.7624
11.7963
11.8278
11.8575
11.8859
11.9134
11.9405
11.9674
11.9944
12.0219
12.0501
12.0793
12.11
12.1423
12.1768
12.214
12.2545
12.299
12.3483
12.4036
12.4662
12.5377
12.6203
12.7163
12.8289
12.9618
13.119
13.3046
13.5217
13.7701
14.0425
14.3164
14.516
14.5091
10.4301
10.3463
10.4166
10.5599
10.7202
10.8776
11.0224
11.1507
11.2619
11.3574
11.4393
11.5096
11.5705
11.6236
11.6706
11.7125
11.7506
11.7855
11.8182
11.849
11.8785
11.9072
11.9354
11.9634
11.9915
12.02
12.0492
12.0794
12.111
12.1444
12.1798
12.2179
12.2592
12.3043
12.3541
12.4095
12.4717
12.542
12.6219
12.7133
12.8181
12.9384
13.0759
13.2317
13.4045
13.5892
13.7746
13.9387
14.0222
13.9401
10.7687
10.6726
10.6896
10.7697
10.8737
10.9853
11.0952
11.1977
11.2905
11.3731
11.4462
11.5107
11.5678
11.6186
11.6642
11.7055
11.7434
11.7786
11.8117
11.8431
11.8733
11.9027
11.9316
11.9603
11.9891
12.0184
12.0484
12.0793
12.1115
12.1454
12.1814
12.2199
12.2614
12.3065
12.3559
12.4105
12.471
12.5386
12.6142
12.6991
12.7943
12.9005
13.0179
13.1455
13.2799
13.4144
13.538
13.633
13.6571
13.5569
11.0087
10.9181
10.9092
10.9506
11.0159
11.0932
11.1746
11.2546
11.3302
11.4
11.4635
11.5211
11.5733
11.6207
11.664
11.7038
11.7408
11.7755
11.8084
11.8398
11.8702
11.8999
11.9292
11.9584
11.9877
12.0174
12.0478
12.0791
12.1117
12.1458
12.182
12.2204
12.2616
12.3062
12.3546
12.4075
12.4656
12.5295
12.5999
12.6773
12.7621
12.8542
12.9527
13.0554
13.1584
13.2549
13.3356
13.3874
13.3815
13.284
11.1887
11.1079
11.0866
11.1045
11.1436
11.1958
11.255
11.3162
11.3765
11.4342
11.4884
11.5388
11.5856
11.6289
11.6692
11.7069
11.7424
11.776
11.8082
11.8392
11.8694
11.8991
11.9285
11.9577
11.9872
12.0171
12.0477
12.0791
12.1118
12.1459
12.1818
12.2199
12.2605
12.3041
12.351
12.4017
12.4567
12.5164
12.581
12.6507
12.7254
12.8042
12.8857
12.9675
13.0455
13.1137
13.1648
13.1898
13.1689
13.0797
11.3299
11.2585
11.2316
11.2351
11.2567
11.2907
11.3327
11.3788
11.4261
11.473
11.5184
11.5618
11.603
11.642
11.679
11.7141
11.7476
11.7798
11.8109
11.8412
11.8708
11.9001
11.9293
11.9584
11.9878
12.0177
12.0482
12.0795
12.112
12.1459
12.1814
12.2188
12.2584
12.3006
12.3457
12.3939
12.4455
12.5007
12.5595
12.6216
12.6867
12.7535
12.8204
12.8849
12.9433
12.9906
13.0214
13.0296
13.0013
12.9211
11.4442
11.3808
11.3517
11.3464
11.356
11.377
11.406
11.4399
11.4765
11.514
11.5516
11.5884
11.6242
11.6589
11.6923
11.7246
11.7559
11.7863
11.8161
11.8453
11.8742
11.9029
11.9316
11.9604
11.9895
12.0191
12.0493
12.0804
12.1125
12.1459
12.1808
12.2173
12.2558
12.2964
12.3394
12.3849
12.433
12.4836
12.5367
12.5917
12.648
12.7042
12.7588
12.8092
12.8523
12.8843
12.901
12.8986
12.867
12.7947
11.5391
11.4821
11.4523
11.4416
11.4432
11.4547
11.4739
11.4982
11.5259
11.5556
11.5862
11.6171
11.6479
11.6784
11.7083
11.7377
11.7667
11.7952
11.8235
11.8515
11.8793
11.9072
11.9353
11.9635
11.9922
12.0213
12.0511
12.0818
12.1134
12.1461
12.1802
12.2157
12.2528
12.2918
12.3326
12.3753
12.4198
12.4661
12.5138
12.5623
12.6107
12.6578
12.7019
12.741
12.7723
12.7929
12.7998
12.7906
12.7578
12.6922
11.6191
11.5671
11.5374
11.5233
11.5194
11.5242
11.5359
11.5528
11.5734
11.5964
11.6211
11.6468
11.673
11.6995
11.7262
11.7528
11.7794
11.8059
11.8325
11.8591
11.8859
11.9129
11.9401
11.9677
11.9957
12.0243
12.0536
12.0837
12.1146
12.1466
12.1797
12.2141
12.2499
12.287
12.3256
12.3655
12.4067
12.4488
12.4915
12.534
12.5755
12.6148
12.6503
12.6802
12.7024
12.7145
12.7146
12.701
12.668
12.6079
11.6875
11.6393
11.6101
11.5939
11.5862
11.586
11.5921
11.6032
11.618
11.6357
11.6553
11.6764
11.6986
11.7216
11.7451
11.769
11.7933
11.8179
11.8428
11.868
11.8935
11.9195
11.9458
11.9726
12
12.0279
12.0566
12.086
12.1162
12.1474
12.1795
12.2127
12.247
12.2824
12.3188
12.356
12.394
12.4322
12.4703
12.5076
12.543
12.5756
12.604
12.6266
12.6416
12.6474
12.6426
12.6263
12.5936
12.5381
11.7463
11.7011
11.6724
11.6549
11.6445
11.6407
11.6426
11.6492
11.6594
11.6726
11.6881
11.7053
11.7239
11.7437
11.7643
11.7858
11.8079
11.8306
11.8538
11.8776
11.9019
11.9268
11.9522
11.9782
12.0048
12.032
12.06
12.0886
12.1181
12.1484
12.1795
12.2115
12.2444
12.278
12.3123
12.347
12.3819
12.4167
12.4507
12.4832
12.5135
12.5404
12.5629
12.5796
12.5892
12.5902
12.5818
12.5637
12.5316
12.48
11.797
11.7542
11.726
11.7076
11.6954
11.6889
11.6877
11.6907
11.6973
11.7069
11.7188
11.7327
11.7483
11.7652
11.7834
11.8025
11.8226
11.8435
11.8652
11.8876
11.9107
11.9345
11.959
11.9841
12.0099
12.0364
12.0636
12.0915
12.1202
12.1496
12.1797
12.2105
12.242
12.2739
12.3062
12.3386
12.3708
12.4023
12.4327
12.4612
12.487
12.5092
12.5269
12.5388
12.544
12.5415
12.5306
12.5112
12.4799
12.4315
11.8407
11.7997
11.7721
11.7531
11.7395
11.7311
11.7274
11.7277
11.7315
11.7381
11.7472
11.7583
11.7713
11.7858
11.8017
11.8188
11.837
11.8563
11.8765
11.8976
11.9196
11.9423
11.9658
11.9901
12.0152
12.0409
12.0674
12.0946
12.1224
12.151
12.1801
12.2098
12.2399
12.2703
12.3007
12.331
12.3607
12.3894
12.4165
12.4415
12.4635
12.4818
12.4955
12.5036
12.5054
12.5001
12.4874
12.4673
12.4368
12.3911
11.8782
11.8387
11.8115
11.7921
11.7776
11.7677
11.7622
11.7604
11.7618
11.7661
11.7728
11.7817
11.7924
11.8049
11.8188
11.8342
11.8508
11.8686
11.8874
11.9073
11.9282
11.95
11.9726
11.9961
12.0203
12.0454
12.0711
12.0976
12.1247
12.1524
12.1806
12.2092
12.2381
12.267
12.2958
12.3242
12.3517
12.3779
12.4023
12.4242
12.4431
12.4581
12.4685
12.4736
12.4727
12.4653
12.4513
12.4308
12.401
12.3575
11.9101
11.8717
11.8448
11.8252
11.81
11.7991
11.7921
11.7887
11.7884
11.7908
11.7956
11.8026
11.8115
11.8222
11.8345
11.8483
11.8635
11.8799
11.8976
11.9164
11.9363
11.9572
11.979
12.0017
12.0253
12.0496
12.0747
12.1005
12.1269
12.1538
12.1812
12.2088
12.2366
12.2642
12.2915
12.3182
12.3438
12.3678
12.3899
12.4093
12.4255
12.4378
12.4456
12.4483
12.4453
12.4363
12.4213
12.4005
12.3714
12.3298
11.9368
11.8993
11.8727
11.8529
11.8372
11.8255
11.8175
11.8128
11.8111
11.812
11.8153
11.8208
11.8282
11.8374
11.8484
11.8609
11.8748
11.8902
11.9068
11.9247
11.9437
11.9638
11.9849
12.0069
12.0298
12.0536
12.0781
12.1032
12.129
12.1552
12.1818
12.2085
12.2353
12.2619
12.2879
12.3131
12.337
12.3593
12.3793
12.3967
12.4107
12.4208
12.4265
12.4272
12.4227
12.4125
12.3967
12.3758
12.3473
12.3073
11.9587
11.9218
11.8954
11.8756
11.8595
11.8472
11.8384
11.8327
11.8299
11.8297
11.8318
11.8361
11.8423
11.8504
11.8602
11.8717
11.8846
11.899
11.9148
11.9319
11.9501
11.9695
11.99
12.0114
12.0338
12.057
12.081
12.1056
12.1308
12.1564
12.1823
12.2084
12.2343
12.2599
12.2848
12.3088
12.3314
12.3522
12.3706
12.3862
12.3985
12.4069
12.4109
12.4102
12.4044
12.3933
12.3771
12.3561
12.3281
12.2893
11.9759
11.9395
11.9133
11.8934
11.8771
11.8643
11.8549
11.8486
11.845
11.8439
11.8451
11.8485
11.8538
11.861
11.8699
11.8805
11.8927
11.9063
11.9214
11.9378
11.9555
11.9743
11.9943
12.0152
12.0371
12.0599
12.0834
12.1076
12.1323
12.1575
12.1828
12.2083
12.2335
12.2583
12.2824
12.3054
12.3269
12.3465
12.3637
12.378
12.3889
12.396
12.3988
12.3969
12.3902
12.3784
12.3618
12.3408
12.3132
12.2755
11.9887
11.9526
11.9266
11.9066
11.8901
11.8771
11.8673
11.8604
11.8563
11.8546
11.8552
11.8578
11.8625
11.869
11.8773
11.8873
11.8988
11.9119
11.9265
11.9424
11.9596
11.978
11.9976
12.0181
12.0397
12.0621
12.0853
12.1092
12.1335
12.1583
12.1832
12.2082
12.233
12.2572
12.2806
12.3029
12.3236
12.3423
12.3586
12.3719
12.3818
12.3879
12.3898
12.3871
12.3797
12.3675
12.3506
12.3296
12.3024
12.2653
11.9972
11.9613
11.9353
11.9154
11.8988
11.8855
11.8755
11.8683
11.8638
11.8617
11.8619
11.8641
11.8683
11.8744
11.8823
11.8918
11.903
11.9157
11.9299
11.9455
11.9624
11.9805
11.9998
12.0201
12.0415
12.0636
12.0866
12.1102
12.1344
12.1589
12.1835
12.2082
12.2326
12.2564
12.2794
12.3012
12.3214
12.3395
12.3551
12.3678
12.3771
12.3826
12.3838
12.3806
12.3728
12.3603
12.3433
12.3223
12.2953
12.2587
12.0014
11.9656
11.9397
11.9197
11.9031
11.8897
11.8795
11.8722
11.8675
11.8653
11.8652
11.8672
11.8712
11.8771
11.8848
11.8941
11.9051
11.9176
11.9317
11.9471
11.9638
11.9818
12.0009
12.0211
12.0423
12.0644
12.0873
12.1108
12.1348
12.1591
12.1837
12.2082
12.2324
12.2561
12.2788
12.3004
12.3203
12.3381
12.3534
12.3658
12.3748
12.3799
12.3809
12.3774
12.3694
12.3568
12.3397
12.3187
12.2918
12.2555
12.0014
11.9656
11.9397
11.9197
11.9031
11.8897
11.8795
11.8722
11.8675
11.8653
11.8652
11.8672
11.8712
11.8771
11.8848
11.8941
11.9051
11.9176
11.9317
11.9471
11.9638
11.9818
12.0009
12.0211
12.0423
12.0644
12.0873
12.1108
12.1348
12.1591
12.1837
12.2082
12.2324
12.2561
12.2788
12.3004
12.3203
12.3381
12.3534
12.3658
12.3748
12.3799
12.3809
12.3774
12.3694
12.3568
12.3397
12.3187
12.2918
12.2555
11.9972
11.9613
11.9353
11.9154
11.8988
11.8855
11.8755
11.8683
11.8638
11.8617
11.8619
11.8641
11.8683
11.8744
11.8823
11.8918
11.903
11.9157
11.9299
11.9455
11.9624
11.9805
11.9998
12.0201
12.0415
12.0637
12.0866
12.1102
12.1344
12.1589
12.1835
12.2082
12.2326
12.2564
12.2794
12.3012
12.3214
12.3395
12.3551
12.3678
12.3771
12.3826
12.3838
12.3806
12.3728
12.3603
12.3433
12.3223
12.2953
12.2587
11.9887
11.9526
11.9266
11.9066
11.8901
11.8771
11.8673
11.8604
11.8563
11.8546
11.8552
11.8578
11.8625
11.869
11.8773
11.8873
11.8989
11.9119
11.9265
11.9424
11.9596
11.978
11.9976
12.0182
12.0397
12.0621
12.0853
12.1092
12.1335
12.1583
12.1832
12.2082
12.233
12.2572
12.2806
12.3029
12.3236
12.3423
12.3586
12.3719
12.3818
12.3879
12.3898
12.3871
12.3797
12.3675
12.3506
12.3296
12.3024
12.2653
11.9759
11.9395
11.9133
11.8934
11.8771
11.8643
11.8549
11.8486
11.845
11.8439
11.8451
11.8485
11.8538
11.861
11.8699
11.8805
11.8927
11.9064
11.9214
11.9378
11.9555
11.9743
11.9943
12.0152
12.0371
12.0599
12.0834
12.1076
12.1323
12.1575
12.1828
12.2083
12.2335
12.2584
12.2824
12.3054
12.3269
12.3465
12.3637
12.378
12.3889
12.396
12.3988
12.3969
12.3902
12.3784
12.3618
12.3408
12.3132
12.2755
11.9587
11.9218
11.8954
11.8756
11.8595
11.8472
11.8384
11.8327
11.8299
11.8297
11.8318
11.8361
11.8423
11.8504
11.8602
11.8717
11.8846
11.8991
11.9148
11.9319
11.9501
11.9695
11.99
12.0114
12.0338
12.057
12.081
12.1056
12.1308
12.1564
12.1823
12.2084
12.2343
12.2599
12.2849
12.3088
12.3314
12.3522
12.3706
12.3862
12.3985
12.4069
12.4109
12.4102
12.4044
12.3933
12.3771
12.3561
12.3281
12.2893
11.9368
11.8993
11.8727
11.853
11.8373
11.8255
11.8175
11.8128
11.8111
11.812
11.8153
11.8208
11.8282
11.8374
11.8484
11.8609
11.8748
11.8902
11.9068
11.9247
11.9437
11.9638
11.9849
12.0069
12.0298
12.0536
12.0781
12.1032
12.129
12.1552
12.1818
12.2085
12.2353
12.2619
12.2879
12.3131
12.337
12.3593
12.3793
12.3967
12.4107
12.4208
12.4265
12.4273
12.4227
12.4125
12.3967
12.3758
12.3473
12.3073
11.9101
11.8717
11.8448
11.8252
11.81
11.7991
11.7921
11.7887
11.7884
11.7908
11.7956
11.8026
11.8115
11.8222
11.8345
11.8483
11.8635
11.88
11.8976
11.9164
11.9363
11.9572
11.979
12.0017
12.0253
12.0496
12.0747
12.1005
12.1269
12.1538
12.1812
12.2088
12.2366
12.2642
12.2915
12.3182
12.3438
12.3678
12.3899
12.4093
12.4255
12.4378
12.4456
12.4483
12.4453
12.4363
12.4213
12.4005
12.3714
12.3298
11.8782
11.8387
11.8115
11.7921
11.7776
11.7677
11.7622
11.7604
11.7618
11.7661
11.7728
11.7817
11.7924
11.8049
11.8188
11.8342
11.8508
11.8686
11.8874
11.9073
11.9282
11.95
11.9726
11.9961
12.0204
12.0454
12.0712
12.0976
12.1247
12.1524
12.1806
12.2092
12.2381
12.267
12.2958
12.3242
12.3517
12.3779
12.4023
12.4242
12.4431
12.4581
12.4685
12.4736
12.4727
12.4654
12.4513
12.4308
12.401
12.3575
11.8407
11.7998
11.7721
11.7531
11.7396
11.7311
11.7274
11.7278
11.7315
11.7381
11.7472
11.7583
11.7713
11.7858
11.8017
11.8188
11.837
11.8563
11.8765
11.8976
11.9196
11.9423
11.9659
11.9901
12.0152
12.0409
12.0674
12.0946
12.1224
12.151
12.1801
12.2098
12.2399
12.2703
12.3007
12.331
12.3607
12.3894
12.4166
12.4415
12.4636
12.4818
12.4955
12.5036
12.5054
12.5001
12.4874
12.4673
12.4368
12.3911
11.797
11.7542
11.7261
11.7076
11.6954
11.689
11.6877
11.6907
11.6973
11.7069
11.7188
11.7327
11.7483
11.7652
11.7834
11.8025
11.8226
11.8435
11.8652
11.8876
11.9107
11.9345
11.959
11.9841
12.0099
12.0364
12.0636
12.0915
12.1202
12.1496
12.1797
12.2105
12.242
12.2739
12.3062
12.3386
12.3708
12.4024
12.4327
12.4612
12.487
12.5092
12.5269
12.5388
12.544
12.5415
12.5306
12.5112
12.4799
12.4315
11.7463
11.7011
11.6725
11.6549
11.6445
11.6407
11.6427
11.6492
11.6595
11.6726
11.6881
11.7053
11.7239
11.7437
11.7643
11.7858
11.8079
11.8306
11.8538
11.8776
11.9019
11.9268
11.9522
11.9782
12.0048
12.032
12.06
12.0886
12.1181
12.1484
12.1795
12.2115
12.2444
12.278
12.3123
12.347
12.382
12.4167
12.4507
12.4832
12.5135
12.5405
12.5629
12.5796
12.5892
12.5902
12.5818
12.5637
12.5316
12.48
11.6875
11.6394
11.6101
11.5939
11.5862
11.586
11.5921
11.6032
11.618
11.6357
11.6553
11.6764
11.6986
11.7216
11.7451
11.769
11.7933
11.8179
11.8428
11.868
11.8936
11.9195
11.9458
11.9726
12
12.0279
12.0566
12.086
12.1162
12.1474
12.1795
12.2127
12.247
12.2824
12.3188
12.356
12.394
12.4323
12.4703
12.5076
12.543
12.5756
12.604
12.6266
12.6416
12.6474
12.6426
12.6263
12.5936
12.5381
11.6192
11.5671
11.5374
11.5234
11.5194
11.5242
11.5359
11.5528
11.5734
11.5964
11.6211
11.6468
11.6731
11.6996
11.7262
11.7528
11.7794
11.8059
11.8325
11.8592
11.8859
11.9129
11.9401
11.9677
11.9957
12.0243
12.0536
12.0837
12.1146
12.1466
12.1798
12.2141
12.2499
12.287
12.3256
12.3655
12.4067
12.4489
12.4915
12.534
12.5755
12.6148
12.6503
12.6802
12.7024
12.7145
12.7146
12.701
12.668
12.6079
11.5391
11.4821
11.4523
11.4416
11.4432
11.4547
11.4739
11.4982
11.5259
11.5556
11.5862
11.6172
11.648
11.6784
11.7083
11.7378
11.7667
11.7953
11.8235
11.8515
11.8794
11.9073
11.9353
11.9635
11.9922
12.0213
12.0512
12.0818
12.1134
12.1461
12.1802
12.2157
12.2529
12.2918
12.3326
12.3753
12.4199
12.4661
12.5138
12.5623
12.6107
12.6578
12.7019
12.741
12.7723
12.7929
12.7998
12.7906
12.7578
12.6922
11.4442
11.3808
11.3517
11.3464
11.3561
11.3771
11.406
11.4399
11.4765
11.514
11.5516
11.5884
11.6242
11.6589
11.6923
11.7246
11.7559
11.7864
11.8161
11.8454
11.8742
11.9029
11.9316
11.9604
11.9895
12.0191
12.0493
12.0804
12.1125
12.1459
12.1808
12.2173
12.2558
12.2964
12.3394
12.3849
12.433
12.4837
12.5367
12.5918
12.648
12.7043
12.7588
12.8092
12.8523
12.8843
12.901
12.8986
12.867
12.7947
11.3299
11.2585
11.2316
11.2352
11.2567
11.2908
11.3327
11.3788
11.4261
11.473
11.5184
11.5618
11.603
11.642
11.679
11.7141
11.7476
11.7798
11.8109
11.8412
11.8709
11.9002
11.9293
11.9584
11.9878
12.0177
12.0482
12.0795
12.112
12.1459
12.1814
12.2188
12.2584
12.3006
12.3457
12.3939
12.4455
12.5007
12.5595
12.6216
12.6867
12.7535
12.8204
12.8849
12.9433
12.9906
13.0214
13.0296
13.0013
12.9211
11.1887
11.1079
11.0866
11.1045
11.1436
11.1959
11.255
11.3162
11.3766
11.4342
11.4884
11.5389
11.5856
11.6289
11.6692
11.7069
11.7424
11.776
11.8082
11.8392
11.8695
11.8991
11.9285
11.9578
11.9872
12.0171
12.0477
12.0791
12.1118
12.1459
12.1819
12.2199
12.2605
12.3041
12.351
12.4017
12.4567
12.5164
12.581
12.6507
12.7254
12.8042
12.8857
12.9675
13.0455
13.1137
13.1648
13.1898
13.1689
13.0797
11.0087
10.9181
10.9092
10.9506
11.0159
11.0932
11.1747
11.2547
11.3302
11.4
11.4635
11.5212
11.5733
11.6207
11.664
11.7038
11.7408
11.7755
11.8084
11.8398
11.8702
11.8999
11.9292
11.9584
11.9877
12.0174
12.0478
12.0791
12.1117
12.1459
12.182
12.2204
12.2617
12.3062
12.3546
12.4075
12.4656
12.5295
12.5999
12.6773
12.7621
12.8542
12.9527
13.0554
13.1584
13.2549
13.3356
13.3874
13.3815
13.284
10.7687
10.6727
10.6896
10.7698
10.8737
10.9853
11.0952
11.1977
11.2905
11.3732
11.4462
11.5107
11.5678
11.6186
11.6642
11.7055
11.7435
11.7786
11.8117
11.8431
11.8733
11.9027
11.9316
11.9603
11.9892
12.0184
12.0484
12.0793
12.1115
12.1454
12.1814
12.2199
12.2614
12.3065
12.3559
12.4105
12.471
12.5386
12.6142
12.6991
12.7943
12.9005
13.0179
13.1455
13.2799
13.4144
13.538
13.633
13.6571
13.5569
10.4301
10.3463
10.4166
10.5599
10.7203
10.8776
11.0225
11.1507
11.2619
11.3575
11.4393
11.5097
11.5705
11.6237
11.6706
11.7125
11.7506
11.7856
11.8182
11.849
11.8786
11.9072
11.9354
11.9634
11.9915
12.02
12.0492
12.0795
12.1111
12.1444
12.1798
12.2179
12.2592
12.3043
12.3541
12.4095
12.4717
12.542
12.6219
12.7133
12.8181
12.9384
13.076
13.2317
13.4045
13.5892
13.7746
13.9387
14.0222
13.9401
9.92103
9.90163
10.0788
10.3237
10.5644
10.7803
10.9659
11.1215
11.2505
11.3572
11.4459
11.5202
11.583
11.6369
11.6838
11.7252
11.7624
11.7964
11.8279
11.8575
11.8859
11.9135
11.9405
11.9674
11.9944
12.0219
12.0501
12.0794
12.11
12.1423
12.1768
12.214
12.2545
12.299
12.3483
12.4036
12.4662
12.5377
12.6203
12.7163
12.8289
12.9618
13.119
13.3046
13.5217
13.7701
14.0425
14.3164
14.516
14.5091
9.1109
9.28862
9.66876
10.071
10.4216
10.7084
10.9375
11.1188
11.2623
11.3766
11.4686
11.5438
11.6061
11.6587
11.7039
11.7434
11.7787
11.8107
11.8404
11.8683
11.8951
11.921
11.9466
11.9721
11.9977
12.0239
12.0508
12.0787
12.108
12.1391
12.1722
12.208
12.247
12.2901
12.338
12.3919
12.4534
12.5244
12.6072
12.705
12.8221
12.9639
13.1374
13.3514
13.6159
13.9409
14.3315
14.7738
15.1894
15.398
7.70312
8.46706
9.2108
9.8351
10.3226
10.6859
10.9537
11.1529
11.3033
11.4187
11.5089
11.581
11.6397
11.6886
11.7303
11.7665
11.7988
11.8281
11.8552
11.8809
11.9055
11.9295
11.9533
11.977
12.0011
12.0256
12.051
12.0774
12.105
12.1344
12.1657
12.1996
12.2366
12.2773
12.3228
12.3741
12.4328
12.5008
12.5809
12.6766
12.793
12.9373
13.1196
13.3541
13.6612
14.0685
14.606
15.2843
16.0823
16.9112
4.86804
7.46789
8.88609
9.77039
10.375
10.7826
11.0587
11.2518
11.3914
11.4953
11.5749
11.6375
11.688
11.7298
11.7654
11.7964
11.8241
11.8495
11.8732
11.8957
11.9176
11.9392
11.9607
11.9823
12.0043
12.0269
12.0503
12.0747
12.1003
12.1274
12.1564
12.1875
12.2215
12.2588
12.3003
12.3471
12.4004
12.4622
12.535
12.6223
12.7292
12.8635
13.0366
13.2672
13.5856
14.0421
14.7064
15.6632
17.167
19.8844
8.42665e-05
6.38537
9.05055
10.147
10.7407
11.0914
11.3068
11.4485
11.548
11.6213
11.6772
11.7213
11.7572
11.7873
11.8132
11.8363
11.8574
11.8771
11.8959
11.9143
11.9326
11.9508
11.9693
11.9882
12.0076
12.0276
12.0484
12.0701
12.0929
12.117
12.1426
12.1701
12.1997
12.2319
12.2675
12.3071
12.3517
12.4028
12.4621
12.5323
12.6171
12.7223
12.8573
13.0386
13.2981
13.6999
14.3604
15.5516
18.3329
24.8424
)
;

boundaryField
{
    movingWallTop
    {
        type            zeroGradient;
    }
    movingWallBottom
    {
        type            zeroGradient;
    }
    fixedWalls
    {
        type            zeroGradient;
    }
    frontAndBack
    {
        type            empty;
    }
}


// ************************************************************************* //
