/*--------------------------------*- C++ -*----------------------------------*\
  =========                 |
  \\      /  F ield         | OpenFOAM: The Open Source CFD Toolbox
   \\    /   O peration     | Website:  https://openfoam.org
    \\  /    A nd           | Version:  7
     \\/     M anipulation  |
\*---------------------------------------------------------------------------*/
FoamFile
{
    version     2.0;
    format      ascii;
    class       volScalarField;
    location    "0.025";
    object      p;
}
// * * * * * * * * * * * * * * * * * * * * * * * * * * * * * * * * * * * * * //

dimensions      [0 2 -2 0 0 0 0];

internalField   nonuniform List<scalar> 
2500
(
3.92104e-07
-0.000539638
-0.00192993
-0.00386243
-0.0060169
-0.00813909
-0.010047
-0.0116017
-0.012704
-0.0132856
-0.0133032
-0.0127328
-0.0115668
-0.00981063
-0.0074804
-0.00460108
-0.001205
0.00266936
0.00697859
0.011675
0.0167074
0.0220215
0.0275607
0.0332662
0.0390776
0.0449332
0.0507702
0.0565254
0.0621355
0.0675378
0.0726704
0.0774732
0.0818889
0.0858635
0.0893477
0.092298
0.0946782
0.0964609
0.0976291
0.0981784
0.0981197
0.0974811
0.0963121
0.0946882
0.0927162
0.0905425
0.0883513
0.0864047
0.0850199
0.0844977
0.000540761
3.47884e-06
-0.00112009
-0.00261381
-0.00427223
-0.00590865
-0.00737417
-0.00855148
-0.00935143
-0.00970924
-0.00958078
-0.00893938
-0.007773
-0.00608189
-0.00387664
-0.00117658
0.00199162
0.00559504
0.00959565
0.013951
0.0186148
0.0235376
0.0286676
0.0339505
0.0393306
0.0447506
0.0501524
0.0554778
0.0606684
0.0656666
0.070416
0.0748623
0.078954
0.0826433
0.0858872
0.0886485
0.0908973
0.0926123
0.0937822
0.0944077
0.0945033
0.0940994
0.0932453
0.0920114
0.090493
0.0888131
0.0871236
0.0856121
0.0844947
0.0839755
0.00193602
0.00113042
-1.17947e-06
-0.00134779
-0.00278525
-0.00417435
-0.005396
-0.00635356
-0.00697041
-0.00718855
-0.006967
-0.00627978
-0.00511385
-0.00346733
-0.00134797
0.00122817
0.00423793
0.00765204
0.0114361
0.0155514
0.0199551
0.0246014
0.0294419
0.0344259
0.0395008
0.044613
0.0497079
0.0547307
0.0596267
0.0643421
0.0688243
0.0730229
0.0768905
0.0803835
0.0834629
0.0860955
0.0882553
0.0899242
0.091094
0.0917673
0.0919593
0.0916997
0.0910337
0.0900245
0.0887543
0.0873249
0.0858591
0.0844991
0.0833766
0.0825931
0.00389271
0.00263861
0.00133057
-3.88914e-05
-0.00142354
-0.00271541
-0.00381957
-0.00465889
-0.00517019
-0.0053042
-0.00502535
-0.00431052
-0.0031477
-0.00153487
0.000521302
0.00300647
0.00589957
0.0091738
0.0127974
0.016734
0.0209439
0.0253838
0.0300081
0.0347687
0.0396159
0.0444988
0.0493654
0.0541638
0.058842
0.063349
0.0676353
0.0716532
0.0753582
0.0787093
0.0816704
0.0842108
0.0863065
0.0879414
0.089108
0.0898092
0.090059
0.0898839
0.0893237
0.0884329
0.0872799
0.0859472
0.0845341
0.0831518
0.0818526
0.0806338
0.00611999
0.00434314
0.00276874
0.00128518
-0.000137322
-0.00141545
-0.00247447
-0.00325513
-0.00370752
-0.00379168
-0.00347831
-0.00274824
-0.00159161
-7.34281e-06
0.00199788
0.00441057
0.007211
0.010374
0.0138696
0.0176637
0.0217187
0.0259936
0.0304448
0.0350269
0.0396923
0.0443923
0.0490774
0.0536978
0.0582039
0.062547
0.0666797
0.0705566
0.0741353
0.0773768
0.0802468
0.0827162
0.0847621
0.0863691
0.0875298
0.0882459
0.0885293
0.0884022
0.0878986
0.0870635
0.0859526
0.0846306
0.0831773
0.0816799
0.0801157
0.0783795
0.00839438
0.00607833
0.00419003
0.00253035
0.0010035
-0.000325341
-0.00139746
-0.00216909
-0.0026025
-0.0026667
-0.00233882
-0.00160421
-0.000456037
0.00110515
0.00307196
0.00543086
0.00816268
0.0112433
0.014644
0.0183322
0.0222719
0.0264238
0.0307463
0.0351956
0.039726
0.0442906
0.0488419
0.0533316
0.0577121
0.0619363
0.0659583
0.0697344
0.0732234
0.0763878
0.0791941
0.0816139
0.0836248
0.0852111
0.0863643
0.0870846
0.0873805
0.0872702
0.0867811
0.0859498
0.0848201
0.083442
0.0818799
0.0802037
0.0783265
0.0760584
0.0105641
0.00771458
0.00548861
0.00361171
0.00193261
0.000504268
-0.000626657
-0.00142935
-0.0018765
-0.00194535
-0.00161934
-0.000888461
0.000250734
0.00179543
0.00373693
0.00606114
0.0087488
0.0117761
0.0151151
0.0187342
0.0225984
0.0266697
0.0309079
0.0352704
0.0397129
0.04419
0.0486553
0.053062
0.0573635
0.0615138
0.0654683
0.0691839
0.0726202
0.0757402
0.0785106
0.0809031
0.0828946
0.0844686
0.0856151
0.0863316
0.0866236
0.0865044
0.0859955
0.0851258
0.0839292
0.0824438
0.0807226
0.0788246
0.076609
0.0738129
0.0125144
0.0091491
0.00657636
0.0044571
0.00259359
0.00103119
-0.000192026
-0.00105567
-0.00154128
-0.0016332
-0.00132076
-0.000598636
0.000533157
0.00206928
0.00399928
0.00630794
0.00897546
0.0119779
0.0152875
0.0188731
0.0227004
0.0267322
0.0309289
0.0352491
0.0396495
0.0440852
0.048511
0.0528806
0.0571483
0.0612687
0.0651974
0.0688917
0.0723114
0.0754192
0.0781815
0.0805691
0.082558
0.0841299
0.0852729
0.0859817
0.0862581
0.0861111
0.0855566
0.0846169
0.0833178
0.081688
0.0797732
0.0776259
0.0750608
0.0717527
0.014162
0.0103002
0.00737866
0.00500187
0.00293258
0.001212
-0.000127569
-0.00107378
-0.0016155
-0.0017433
-0.0014518
-0.000740048
0.000388448
0.00192563
0.00385901
0.00617189
0.00884349
0.0118494
0.0151615
0.0187487
0.022577
0.0266093
0.0308068
0.0351283
0.039531
0.0439707
0.0484022
0.05278
0.0570582
0.0611917
0.0651359
0.0688479
0.0722869
0.0754148
0.0781972
0.0806035
0.0826081
0.0841905
0.0853362
0.0860371
0.0862913
0.0861036
0.085485
0.0844521
0.0830245
0.0812237
0.0790912
0.0766768
0.073758
0.0699551
0.0154451
0.0111022
0.00783194
0.00518783
0.00289801
0.00100231
-0.000470571
-0.00151449
-0.00212428
-0.00229585
-0.00202854
-0.00132546
-0.000193527
0.00135637
0.00330949
0.00564742
0.00834809
0.0113861
0.0147329
0.0183568
0.0222237
0.0262966
0.0305365
0.0349025
0.0393518
0.0438402
0.0483226
0.0527533
0.0570862
0.0612758
0.0652769
0.0690457
0.0725406
0.075722
0.078554
0.0810042
0.0830447
0.0846527
0.0858107
0.0865074
0.0867374
0.0865014
0.0858061
0.0846636
0.0830883
0.0810971
0.0787293
0.076035
0.0727596
0.0684746
0.0163159
0.0115008
0.00788079
0.00496182
0.00244068
0.000357715
-0.00126025
-0.00241193
-0.00309702
-0.00331597
-0.00307233
-0.00237298
-0.00122821
0.000348244
0.00233927
0.00472448
0.00748023
0.0105799
0.0139939
0.01769
0.0216335
0.0257869
0.0301111
0.0345647
0.0391047
0.0436867
0.0482651
0.0527937
0.0572259
0.061515
0.065615
0.0694809
0.0730692
0.0763388
0.0792517
0.081773
0.0838724
0.0855239
0.0867072
0.0874073
0.0876153
0.0873281
0.0865487
0.0852853
0.0835486
0.0813521
0.0787349
0.0757499
0.0721132
0.0673509
0.0167351
0.0114489
0.00747515
0.00427404
0.00151276
-0.000766527
-0.0025377
-0.00380327
-0.00456697
-0.00483317
-0.00460923
-0.00390563
-0.00273591
-0.00111671
0.000932331
0.00338867
0.00622685
0.00941875
0.0129335
0.016738
0.0207964
0.0250708
0.0295213
0.034106
0.0387814
0.0435022
0.0482222
0.0528944
0.0574709
0.061904
0.0661461
0.0701504
0.0738715
0.077266
0.0802932
0.0829156
0.0850996
0.086816
0.088041
0.088756
0.0889483
0.0886115
0.0877447
0.0863532
0.0844449
0.0820311
0.0791522
0.0758651
0.0718587
0.0666149
0.0166676
0.010903
0.00656776
0.00307623
6.65543e-05
-0.00241638
-0.00434633
-0.00572889
-0.00657124
-0.00688128
-0.00666991
-0.0059511
-0.00474163
-0.0030611
-0.000931785
0.0016214
0.00457095
0.007887
0.0115372
0.015487
0.0196997
0.0241363
0.028756
0.033516
0.0383718
0.0432774
0.0481856
0.0530478
0.0578151
0.0624379
0.0668667
0.0710528
0.0749481
0.0785066
0.0816844
0.0844408
0.0867384
0.0885446
0.0898316
0.0905768
0.0907639
0.0903827
0.0894292
0.0879058
0.0858183
0.0831767
0.0800237
0.0764216
0.0720322
0.0662929
0.0160795
0.00982098
0.00511199
0.00131989
-0.00194681
-0.00463989
-0.00673241
-0.00823263
-0.0091509
-0.00949842
-0.00928957
-0.00854172
-0.00727496
-0.00551196
-0.00327784
-0.000600062
0.00249161
0.00596533
0.00978701
0.0139206
0.0183279
0.0229689
0.0278015
0.0327818
0.0378643
0.0430017
0.0481455
0.0532457
0.0582515
0.0631115
0.0677739
0.0721873
0.0763009
0.0800654
0.0834333
0.0863599
0.0888042
0.090729
0.0921022
0.0928973
0.0930936
0.0926771
0.0916409
0.0899845
0.0877123
0.084833
0.0813929
0.0774601
0.0726687
0.0664099
0.0149358
0.00815938
0.00305973
-0.00104546
-0.00457874
-0.00748815
-0.00974572
-0.0113623
-0.0123513
-0.0127272
-0.0125079
-0.0117143
-0.01037
-0.00850074
-0.00613482
-0.00330246
-3.58849e-05
0.00363082
0.00766164
0.0120187
0.0166624
0.0215511
0.0266415
0.0318884
0.0372449
0.0426625
0.0480909
0.0534785
0.0587725
0.0639193
0.0688645
0.0735536
0.0779326
0.0819485
0.0855496
0.0886871
0.0913151
0.0933918
0.0948801
0.0957489
0.095973
0.0955345
0.0944228
0.0926351
0.0901738
0.0870474
0.0833055
0.0790233
0.0738052
0.0669927
0.0131979
0.00587163
0.000359563
-0.00407385
-0.00788444
-0.0110163
-0.0134404
-0.0151702
-0.0162224
-0.016615
-0.0163694
-0.0155104
-0.0140652
-0.0120632
-0.00953584
-0.00651647
-0.00304
0.000857052
0.00513647
0.00975848
0.0146817
0.0198629
0.0252573
0.0308184
0.0364977
0.0422451
0.0480088
0.0537352
0.0593694
0.064855
0.0701349
0.0751513
0.0798463
0.0841629
0.0880448
0.0914381
0.0942918
0.0965585
0.0981959
0.0991673
0.0994426
0.0989992
0.0978228
0.0959079
0.0932549
0.0898717
0.0858119
0.081158
0.0754823
0.0680718
0.0108218
0.00290601
-0.00304496
-0.00782432
-0.0119242
-0.0152847
-0.0178758
-0.019714
-0.0208195
-0.0212141
-0.0209234
-0.0199761
-0.0184037
-0.0162393
-0.0135181
-0.0102766
-0.00655282
-0.00238587
0.00218362
0.00711377
0.0123613
0.0178813
0.0236275
0.0295518
0.0356041
0.0417329
0.0478844
0.054003
0.0600314
0.0659106
0.0715803
0.0769791
0.0820449
0.0867159
0.0909309
0.0946303
0.097757
0.100258
0.102084
0.103192
0.103547
0.103121
0.101895
0.0998594
0.0970135
0.0933639
0.0889685
0.0839175
0.0777471
0.0696844
0.00775665
-0.00079603
-0.00721689
-0.0123624
-0.0167647
-0.02036
-0.0231174
-0.0250571
-0.0262034
-0.0265824
-0.0262243
-0.0251626
-0.0234332
-0.0210735
-0.0181228
-0.0146212
-0.0106099
-0.00613108
-0.00122788
0.00405558
0.00967402
0.0155809
0.0217282
0.0280662
0.0345435
0.0411067
0.0477004
0.0542668
0.0607463
0.0670768
0.0731948
0.0790349
0.0845306
0.0896148
0.0942206
0.0982821
0.101736
0.104521
0.106581
0.107867
0.108337
0.107955
0.106698
0.104553
0.101515
0.09759
0.0928398
0.0873628
0.0806547
0.0718756
0.00394277
-0.00530144
-0.0122276
-0.0177618
-0.0224806
-0.0263163
-0.0292379
-0.0312698
-0.0324413
-0.0327836
-0.0323322
-0.0311259
-0.0292058
-0.0266143
-0.0233949
-0.0195918
-0.01525
-0.0104147
-0.00513178
0.000552269
0.00659013
0.0129335
0.0195327
0.0263367
0.0332924
0.040345
0.0474372
0.0545094
0.0614992
0.0683419
0.0749704
0.081315
0.0873044
0.092866
0.0979264
0.102413
0.106254
0.10938
0.111729
0.113241
0.113866
0.113563
0.1123
0.11006
0.106834
0.102625
0.0975003
0.0915653
0.0842706
0.074701
-0.000689753
-0.0106873
-0.0181582
-0.0241058
-0.0291555
-0.0332365
-0.0363181
-0.03843
-0.0396074
-0.0398877
-0.0393127
-0.0379273
-0.0357784
-0.0329141
-0.0293829
-0.0252336
-0.0205149
-0.0152755
-0.0095643
-0.00343014
0.00307758
0.00990883
0.0170125
0.0243361
0.0318253
0.0394238
0.0470728
0.0547107
0.062273
0.0696919
0.0768967
0.0838135
0.0903657
0.0964748
0.10206
0.107041
0.111338
0.114873
0.117572
0.119367
0.120198
0.120014
0.118776
0.116461
0.113055
0.108556
0.103036
0.0966089
0.0886732
0.078229
-0.00622292
-0.0170428
-0.0251019
-0.0314887
-0.0368838
-0.0412134
-0.044448
-0.0466238
-0.0477834
-0.0479715
-0.0472373
-0.0456329
-0.0432121
-0.0400293
-0.0361387
-0.031594
-0.0264484
-0.0207543
-0.0145635
-0.00792733
-0.000897312
0.00647496
0.014137
0.0220353
0.0301144
0.0383169
0.0465827
0.0548486
0.0630478
0.0711101
0.0789609
0.0865221
0.0937118
0.100445
0.106633
0.112187
0.117017
0.121036
0.124157
0.126301
0.127397
0.127384
0.126212
0.123849
0.120274
0.115483
0.109548
0.102592
0.0939555
0.0825433
-0.0127527
-0.0244708
-0.0331649
-0.0400182
-0.0457723
-0.0503515
-0.0537282
-0.0559471
-0.0570595
-0.057119
-0.0561836
-0.0543141
-0.0515722
-0.0480194
-0.0437165
-0.0387228
-0.0330963
-0.0268931
-0.0201683
-0.0129759
-0.00536911
0.00259895
0.0108748
0.019404
0.0281306
0.0369964
0.0459404
0.0548983
0.0638014
0.072577
0.0811474
0.0894299
0.0973373
0.104777
0.111654
0.117868
0.123319
0.127908
0.131534
0.134107
0.13554
0.135758
0.134702
0.132327
0.128603
0.12352
0.117152
0.109631
0.100229
0.0877449
-0.0203909
-0.0330903
-0.0424696
-0.0498167
-0.055942
-0.060768
-0.0642709
-0.0665056
-0.0675343
-0.0674213
-0.0662352
-0.0640469
-0.0609274
-0.0569466
-0.0521725
-0.0466707
-0.0405044
-0.033734
-0.0264177
-0.0186121
-0.0103721
-0.00175198
0.00719419
0.0164116
0.025844
0.0354333
0.045118
0.0548331
0.0645089
0.0740705
0.0834374
0.0925228
0.101234
0.109471
0.11713
0.124101
0.130272
0.135528
0.139757
0.14285
0.144705
0.145231
0.144352
0.142012
0.138168
0.132801
0.125985
0.11786
0.107625
0.0939559
-0.0292678
-0.0430385
-0.0531562
-0.0610244
-0.0675298
-0.072595
-0.0762014
-0.0784166
-0.0793161
-0.0789773
-0.0774816
-0.0749116
-0.0713494
-0.0668745
-0.0615631
-0.0554881
-0.048718
-0.0413177
-0.033349
-0.0248706
-0.015939
-0.00660905
0.00306481
0.0130281
0.0232251
0.0335982
0.0440866
0.0546251
0.0651436
0.0755661
0.0858094
0.0957832
0.105389
0.114521
0.123065
0.130901
0.137902
0.143939
0.148881
0.152603
0.154981
0.155906
0.155283
0.153038
0.149114
0.143478
0.136205
0.127441
0.116299
0.101323
-0.0395344
-0.0544742
-0.065386
-0.0738009
-0.0806915
-0.0859813
-0.0896595
-0.0918095
-0.0925231
-0.0918935
-0.0900174
-0.0869918
-0.0829114
-0.0778669
-0.071944
-0.0652232
-0.0577792
-0.0496817
-0.0409957
-0.0317821
-0.0220985
-0.0120001
-0.00154061
0.00922628
0.0202463
0.0314633
0.0428178
0.0542459
0.0656778
0.0770372
0.0882394
0.0991911
0.109789
0.11992
0.129461
0.138279
0.146234
0.153179
0.158964
0.16344
0.166463
0.167898
0.167628
0.165556
0.161606
0.155729
0.147996
0.13856
0.126437
0.11002
-0.0513658
-0.0675806
-0.0793443
-0.0883295
-0.0956039
-0.101095
-0.104801
-0.106827
-0.107283
-0.106283
-0.103942
-0.100373
-0.0956867
-0.0899859
-0.0833672
-0.0759197
-0.067725
-0.0588574
-0.0493852
-0.0393712
-0.0288736
-0.017947
-0.00664404
0.0049836
0.016884
0.0290037
0.0412856
0.0536683
0.0660838
0.0784564
0.0907014
0.102723
0.114414
0.125656
0.136314
0.146245
0.155292
0.163289
0.170064
0.175443
0.179254
0.181334
0.181535
0.179736
0.175833
0.169757
0.161573
0.151436
0.138255
0.120256
-0.0649647
-0.0825698
-0.0952454
-0.10482
-0.112469
-0.118124
-0.121801
-0.123626
-0.123736
-0.122267
-0.119358
-0.115142
-0.109746
-0.103289
-0.0958786
-0.0876141
-0.0785839
-0.0688673
-0.0585357
-0.0476532
-0.0362778
-0.0244631
-0.0122594
0.000284702
0.0131209
0.0261996
0.0394679
0.052868
0.0663354
0.0797968
0.0931684
0.106354
0.119244
0.131712
0.143618
0.154804
0.165096
0.174308
0.182242
0.188696
0.193464
0.19635
0.197171
0.19577
0.192011
0.185799
0.177184
0.166327
0.15201
0.132274
-0.0805662
-0.0996877
-0.113337
-0.123515
-0.131516
-0.137284
-0.140851
-0.142377
-0.142028
-0.139971
-0.136369
-0.131381
-0.125155
-0.117825
-0.109514
-0.100331
-0.090372
-0.079721
-0.0684521
-0.0566302
-0.0443123
-0.0315498
-0.0183895
-0.00487548
0.00894888
0.0230395
0.0373492
0.0518258
0.0664101
0.0810331
0.095614
0.110058
0.124254
0.138071
0.151362
0.163955
0.175661
0.186269
0.195556
0.203284
0.209211
0.213098
0.21472
0.213875
0.210389
0.204126
0.195122
0.183533
0.168003
0.146367
-0.0984432
-0.119221
-0.133906
-0.144693
-0.153009
-0.158815
-0.162169
-0.163268
-0.162319
-0.159523
-0.155078
-0.149169
-0.141969
-0.133632
-0.124296
-0.11408
-0.103089
-0.0914109
-0.0791222
-0.0662874
-0.0529617
-0.0391926
-0.0250221
-0.0104884
0.00437198
0.0195223
0.0349231
0.05053
0.0662909
0.0821438
0.0980132
0.113808
0.129417
0.14471
0.159529
0.173695
0.186998
0.199207
0.210065
0.219298
0.22662
0.231742
0.234387
0.234298
0.231247
0.225054
0.215725
0.203408
0.186591
0.162877
-0.118914
-0.141504
-0.157291
-0.168679
-0.177252
-0.182992
-0.185993
-0.186502
-0.184774
-0.181054
-0.17558
-0.168571
-0.160229
-0.150728
-0.140224
-0.128848
-0.116711
-0.103907
-0.0905114
-0.0765884
-0.0621896
-0.0473572
-0.0321266
-0.0165284
-0.000589996
0.0156611
0.0321954
0.0489787
0.0659689
0.0831132
0.100345
0.117578
0.134708
0.151602
0.1681
0.184012
0.199113
0.213147
0.225823
0.236827
0.245821
0.252459
0.256398
0.257313
0.254912
0.248948
0.239391
0.22637
0.208195
0.18221
-0.142353
-0.166934
-0.183886
-0.195852
-0.204594
-0.210125
-0.21259
-0.212297
-0.209563
-0.204689
-0.197961
-0.189638
-0.179954
-0.169109
-0.157274
-0.144595
-0.131188
-0.11715
-0.102557
-0.0874697
-0.071934
-0.0559852
-0.0396499
-0.0229486
-0.00589813
0.0114861
0.0291871
0.0471832
0.0654455
0.0839337
0.102592
0.121347
0.140098
0.158719
0.177049
0.19489
0.212003
0.228107
0.24288
0.255959
0.26695
0.275438
0.281002
0.283234
0.281753
0.276233
0.266587
0.252915
0.233316
0.20485
-0.169201
-0.195983
-0.214164
-0.226661
-0.235442
-0.240569
-0.242253
-0.240885
-0.236859
-0.230545
-0.222288
-0.212394
-0.201133
-0.188734
-0.175385
-0.161243
-0.146431
-0.131047
-0.115163
-0.098836
-0.0821029
-0.0649898
-0.0475122
-0.0296783
-0.0114913
0.00704766
0.0259368
0.0451703
0.0647353
0.0846077
0.104748
0.125094
0.145561
0.16603
0.186344
0.206302
0.225654
0.244097
0.261275
0.276777
0.290143
0.30088
0.308472
0.312408
0.312198
0.307406
0.297866
0.283631
0.262554
0.23137
-0.199988
-0.229217
-0.248691
-0.261636
-0.27027
-0.274726
-0.275306
-0.272508
-0.266827
-0.258719
-0.248597
-0.236826
-0.223715
-0.20952
-0.194451
-0.178673
-0.162311
-0.145463
-0.128195
-0.110555
-0.0925697
-0.0742524
-0.0556046
-0.0366194
-0.0172839
0.00241812
0.0225028
0.0429836
0.063867
0.0851488
0.106809
0.128807
0.151072
0.173501
0.195946
0.218211
0.24004
0.261111
0.281036
0.299353
0.315534
0.328993
0.339104
0.345229
0.346736
0.343048
0.333886
0.319226
0.29663
0.262462
-0.235355
-0.267334
-0.288157
-0.301416
-0.309636
-0.313053
-0.312099
-0.307413
-0.299618
-0.289276
-0.276885
-0.262872
-0.247592
-0.23133
-0.214312
-0.196708
-0.178647
-0.160215
-0.141473
-0.122454
-0.103171
-0.0836201
-0.0637869
-0.0436458
-0.0231646
-0.00230716
0.018964
0.0406845
0.0628839
0.0855824
0.108784
0.132473
0.156603
0.181091
0.205808
0.230568
0.255116
0.279122
0.302167
0.323741
0.343244
0.359986
0.373214
0.382131
0.385928
0.383841
0.375432
0.360558
0.336423
0.298961
-0.276093
-0.311197
-0.333412
-0.346775
-0.354196
-0.356071
-0.35301
-0.345842
-0.335353
-0.322234
-0.307085
-0.290403
-0.272589
-0.253956
-0.23474
-0.215114
-0.195198
-0.175069
-0.15477
-0.134316
-0.113703
-0.092905
-0.0718875
-0.050603
-0.0289971
-0.00701049
0.0154186
0.0383511
0.0618436
0.0859445
0.110688
0.136087
0.162128
0.188756
0.215869
0.243303
0.270815
0.298074
0.324642
0.349967
0.373372
0.394062
0.41113
0.423594
0.430418
0.430591
0.423453
0.408676
0.383018
0.341893
-0.323198
-0.361901
-0.385524
-0.398659
-0.404729
-0.404366
-0.398433
-0.388013
-0.374097
-0.357538
-0.339048
-0.319201
-0.298442
-0.277104
-0.255428
-0.233579
-0.21166
-0.18973
-0.167806
-0.145881
-0.123924
-0.101885
-0.0797052
-0.0573109
-0.0346226
-0.0115548
0.0119814
0.0360754
0.0608144
0.0862789
0.112538
0.139641
0.167612
0.196437
0.22605
0.25632
0.287033
0.31787
0.348391
0.378009
0.40598
0.431395
0.453183
0.470135
0.480935
0.484248
0.479099
0.464884
0.43777
0.392535
-0.377953
-0.420862
-0.445851
-0.458241
-0.462157
-0.458591
-0.448764
-0.434093
-0.415834
-0.395027
-0.372511
-0.348934
-0.324777
-0.300382
-0.27598
-0.251715
-0.227662
-0.203846
-0.180254
-0.156845
-0.133557
-0.11031
-0.0870146
-0.0635692
-0.0398655
-0.0157892
0.0087783
0.0339579
0.05987
0.0866316
0.114351
0.143121
0.173011
0.204056
0.236242
0.269486
0.30362
0.338358
0.373276
0.407776
0.44106
0.47211
0.499678
0.522296
0.538301
0.545934
0.543779
0.530814
0.502404
0.452504
-0.442053
-0.489952
-0.516152
-0.52698
-0.527569
-0.519453
-0.504364
-0.484158
-0.460416
-0.434394
-0.407059
-0.379124
-0.351087
-0.323279
-0.295898
-0.269048
-0.242758
-0.217007
-0.191739
-0.166869
-0.142297
-0.117907
-0.093574
-0.0691657
-0.0445422
-0.0195579
0.00593763
0.0320986
0.0590816
0.087043
0.116135
0.146499
0.178259
0.21151
0.246301
0.282619
0.320361
0.359305
0.399069
0.439075
0.478501
0.516237
0.55086
0.580614
0.60342
0.616967
0.61923
0.608549
0.579163
0.523899
-0.517812
-0.571711
-0.598741
-0.606708
-0.602235
-0.587688
-0.565508
-0.538122
-0.507498
-0.475123
-0.442079
-0.409114
-0.376711
-0.345153
-0.314578
-0.285019
-0.25644
-0.228756
-0.20185
-0.175589
-0.149822
-0.124392
-0.0991374
-0.0738884
-0.0484723
-0.0227108
0.00357944
0.0305875
0.0585075
0.0875377
0.117877
0.149722
0.183258
0.21865
0.256029
0.295468
0.336958
0.38037
0.425411
0.471565
0.518031
0.563652
0.606849
0.645569
0.677248
0.698879
0.707595
0.700782
0.671022
0.609519
-0.608503
-0.669664
-0.696701
-0.699712
-0.6876
-0.663985
-0.632284
-0.59564
-0.556451
-0.516423
-0.476708
-0.438033
-0.40081
-0.365224
-0.331306
-0.29899
-0.268142
-0.238594
-0.210157
-0.18263
-0.15581
-0.129491
-0.10347
-0.0775396
-0.0514927
-0.0251176
0.00180244
0.0294913
0.0581805
0.0881121
0.119534
0.152701
0.187866
0.225277
0.265157
0.307692
0.352996
0.401074
0.451771
0.504697
0.559146
0.613983
0.667538
0.717485
0.760727
0.793408
0.811523
0.811038
0.782036
0.713226
-0.718946
-0.788842
-0.814186
-0.808829
-0.785224
-0.748857
-0.704439
-0.655956
-0.606236
-0.55713
-0.509767
-0.464757
-0.42235
-0.382565
-0.345272
-0.310257
-0.277262
-0.246011
-0.216224
-0.187628
-0.159956
-0.132951
-0.106365
-0.0799534
-0.0534737
-0.0266823
0.000669544
0.0288393
0.0580958
0.0887223
0.121017
0.155295
0.191883
0.231117
0.273332
0.318843
0.367922
0.420755
0.477387
0.537641
0.601004
0.666486
0.732442
0.796365
0.854643
0.902434
0.934253
0.943987
0.917871
0.840578
-0.856594
-0.936592
-0.956816
-0.937479
-0.896613
-0.842388
-0.781123
-0.717694
-0.655248
-0.595609
-0.539707
-0.487882
-0.440103
-0.396124
-0.355586
-0.318079
-0.283188
-0.250504
-0.219646
-0.190255
-0.161999
-0.134567
-0.107665
-0.0810124
-0.0543347
-0.0273582
0.000194911
0.0286125
0.0581974
0.0892721
0.122183
0.157305
0.195039
0.235818
0.280096
0.328341
0.381012
0.438529
0.501211
0.569193
0.642301
0.719863
0.800467
0.88163
0.959363
1.0278
1.07965
1.10584
1.08666
0.999974
-1.03361
-1.12388
-1.13213
-1.08956
-1.02285
-0.943797
-0.860509
-0.778569
-0.701123
-0.629637
-0.564554
-0.505721
-0.45266
-0.404749
-0.361319
-0.321719
-0.285338
-0.251622
-0.220074
-0.190249
-0.161744
-0.134199
-0.107277
-0.0806645
-0.0540583
-0.0271599
0.000332903
0.028733
0.058372
0.0896068
0.122827
0.158463
0.19699
0.238936
0.284882
0.335463
0.391356
0.453259
0.521844
0.597685
0.681119
0.772043
0.869599
0.971709
1.07438
1.17093
1.25209
1.30484
1.30033
1.20486
-1.27109
-1.3673
-1.3499
-1.26893
-1.16379
-1.05069
-0.939215
-0.835004
-0.740525
-0.656311
-0.581892
-0.516324
-0.458486
-0.40725
-0.361566
-0.320494
-0.283209
-0.249001
-0.217254
-0.187438
-0.159089
-0.131797
-0.105193
-0.0789356
-0.0527005
-0.026171
0.000972061
0.0290599
0.0584449
0.089511
0.122683
0.158439
0.197321
0.239946
0.287021
0.339352
0.397852
0.463537
0.537508
0.620897
0.714765
0.819897
0.936456
1.0634
1.19749
1.33196
1.45589
1.55148
1.57667
1.4782
-1.60785
-1.69205
-1.62157
-1.47766
-1.3163
-1.15767
-1.01137
-0.881578
-0.768858
-0.671937
-0.588858
-0.517528
-0.455977
-0.402464
-0.355498
-0.31383
-0.276418
-0.242398
-0.211048
-0.181764
-0.154032
-0.127406
-0.101492
-0.0759327
-0.0503922
-0.0245449
0.00193641
0.0293915
0.0581841
0.088714
0.12143
0.156845
0.195553
0.238249
0.28575
0.339026
0.399222
0.467689
0.546006
0.635977
0.739591
0.858889
0.995664
1.15085
1.32328
1.50781
1.69342
1.85796
1.94236
1.86164
-2.1157
-2.13563
-1.95841
-1.71303
-1.47153
-1.25452
-1.06761
-0.910602
-0.780192
-0.672126
-0.582296
-0.50712
-0.443622
-0.389385
-0.342473
-0.301343
-0.264761
-0.231737
-0.20147
-0.173304
-0.146693
-0.121173
-0.0963437
-0.0718423
-0.047334
-0.0224956
0.00299674
0.0294801
0.0573174
0.0869109
0.118718
0.153269
0.19119
0.233226
0.280281
0.333455
0.394097
0.463873
0.544839
0.639523
0.750999
0.882909
1.03936
1.22448
1.44128
1.68946
1.96198
2.23622
2.43648
2.43065
-2.92519
-2.74801
-2.36794
-1.96543
-1.61383
-1.32611
-1.09578
-0.913174
-0.76838
-0.652826
-0.559656
-0.483584
-0.420592
-0.367637
-0.322405
-0.283129
-0.248445
-0.217289
-0.188822
-0.16237
-0.137385
-0.113408
-0.090046
-0.0669496
-0.0437983
-0.0202841
0.00390125
0.0290797
0.0555998
0.0838511
0.114282
0.147417
0.183887
0.224456
0.270068
0.321902
0.381447
0.450609
0.531846
0.628359
0.744332
0.885222
1.05806
1.27156
1.53578
1.86063
2.25134
2.69388
3.10994
3.31934
-4.33279
-3.56939
-2.8257
-2.20107
-1.71284
-1.34861
-1.07956
-0.879021
-0.727357
-0.610702
-0.519302
-0.446305
-0.386871
-0.337536
-0.295783
-0.259754
-0.228057
-0.199631
-0.173653
-0.149478
-0.126584
-0.104543
-0.0829909
-0.0616085
-0.0401034
-0.0181957
0.00439491
0.0279622
0.0528264
0.0793485
0.107947
0.139119
0.173466
0.21173
0.254837
0.30397
0.360653
0.426893
0.505373
0.599748
0.715077
0.858484
1.04007
1.27414
1.58094
1.98821
2.52578
3.20427
4.00274
4.83224
-7.16809
-4.5687
-3.15056
-2.26594
-1.66061
-1.25206
-0.974707
-0.780232
-0.63921
-0.533905
-0.453103
-0.389494
-0.338197
-0.295859
-0.260118
-0.229273
-0.202066
-0.177557
-0.155025
-0.133909
-0.113762
-0.0942188
-0.0749737
-0.0557584
-0.0363284
-0.0164493
0.00411476
0.0256119
0.0483154
0.0725358
0.0986361
0.127051
0.15831
0.193073
0.232168
0.276662
0.327949
0.38789
0.459026
0.544917
0.650697
0.784005
0.95652
1.18665
1.50483
1.96137
2.62584
3.58291
5.08708
7.80499
-12.0365
-5.65161
-2.98658
-1.88987
-1.29551
-0.943726
-0.726926
-0.583631
-0.482527
-0.407746
-0.350395
-0.30505
-0.268207
-0.237496
-0.211251
-0.188269
-0.16766
-0.148758
-0.13105
-0.114141
-0.0977173
-0.0815231
-0.0653451
-0.0489971
-0.0323083
-0.0151139
0.00275387
0.0214751
0.0412503
0.0623105
0.0849285
0.109433
0.136227
0.165808
0.198804
0.236016
0.278484
0.327584
0.385183
0.453889
0.537495
0.641785
0.77613
0.956991
1.21639
1.61823
2.27912
3.47078
6.25256
12.7625
)
;

boundaryField
{
    movingWall
    {
        type            zeroGradient;
    }
    fixedWalls
    {
        type            zeroGradient;
    }
    frontAndBack
    {
        type            empty;
    }
}


// ************************************************************************* //
