/*--------------------------------*- C++ -*----------------------------------*\
  =========                 |
  \\      /  F ield         | OpenFOAM: The Open Source CFD Toolbox
   \\    /   O peration     | Website:  https://openfoam.org
    \\  /    A nd           | Version:  7
     \\/     M anipulation  |
\*---------------------------------------------------------------------------*/
FoamFile
{
    version     2.0;
    format      ascii;
    class       surfaceScalarField;
    location    "0.025";
    object      phi;
}
// * * * * * * * * * * * * * * * * * * * * * * * * * * * * * * * * * * * * * //

dimensions      [0 3 -1 0 0 0 0];

internalField   nonuniform List<scalar> 
4900
(
8.59448e-10
-8.59617e-10
1.50728e-09
-6.47809e-10
1.11603e-09
3.91237e-10
-5.33356e-10
1.6494e-09
-3.43356e-09
2.90018e-09
-7.4695e-09
4.03591e-09
-1.24769e-08
5.00736e-09
-1.82765e-08
5.79966e-09
-2.46893e-08
6.41282e-09
-3.15428e-08
6.85355e-09
-3.86748e-08
7.1319e-09
-4.59344e-08
7.25959e-09
-5.31834e-08
7.24902e-09
-6.02961e-08
7.11271e-09
-6.71591e-08
6.863e-09
-7.36709e-08
6.51187e-09
-7.97417e-08
6.07076e-09
-8.52922e-08
5.55054e-09
-9.02537e-08
4.96146e-09
-9.45669e-08
4.31319e-09
-9.81818e-08
3.61489e-09
-1.01057e-07
2.87529e-09
-1.0316e-07
2.10276e-09
-1.04465e-07
1.30548e-09
-1.04957e-07
4.91535e-10
-1.04626e-07
-3.30919e-10
-1.03472e-07
-1.15356e-09
-1.01505e-07
-1.96774e-09
-9.87402e-08
-2.76441e-09
-9.52061e-08
-3.53402e-09
-9.09397e-08
-4.26643e-09
-8.59888e-08
-4.95091e-09
-8.04127e-08
-5.57609e-09
-7.42826e-08
-6.13008e-09
-6.76822e-08
-6.60046e-09
-6.07078e-08
-6.97442e-09
-5.34688e-08
-7.23893e-09
-4.60879e-08
-7.38094e-09
-3.87003e-08
-7.38758e-09
-3.14538e-08
-7.24651e-09
-2.45075e-08
-6.9463e-09
-1.80305e-08
-6.477e-09
-1.21995e-08
-5.83105e-09
-7.19451e-09
-5.00497e-09
-3.19201e-09
-4.00251e-09
-3.49202e-10
-2.84283e-09
1.23166e-09
-1.58087e-09
1.55638e-09
-3.24708e-10
8.65681e-10
6.90705e-10
8.65678e-10
6.60154e-10
-1.51976e-09
5.04932e-11
-3.81939e-11
-2.92554e-09
3.36729e-09
-8.76225e-09
7.4861e-09
-1.74984e-08
1.16364e-08
-2.89366e-08
1.54741e-08
-4.27499e-08
1.88206e-08
-5.85451e-08
2.15948e-08
-7.59026e-08
2.37704e-08
-9.44007e-08
2.53517e-08
-1.1363e-07
2.6361e-08
-1.33201e-07
2.68308e-08
-1.52751e-07
2.67991e-08
-1.71946e-07
2.63071e-08
-1.90479e-07
2.53966e-08
-2.08077e-07
2.41095e-08
-2.24493e-07
2.24866e-08
-2.39509e-07
2.05673e-08
-2.52937e-07
1.83893e-08
-2.64613e-07
1.59885e-08
-2.74397e-07
1.33991e-08
-2.82176e-07
1.06543e-08
-2.87859e-07
7.78568e-09
-2.91378e-07
4.82451e-09
-2.92688e-07
1.80165e-09
-2.91767e-07
-1.25182e-09
-2.88616e-07
-4.3042e-09
-2.83261e-07
-7.32274e-09
-2.75752e-07
-1.02733e-08
-2.66166e-07
-1.31199e-08
-2.54608e-07
-1.58249e-08
-2.4121e-07
-1.83484e-08
-2.26138e-07
-2.06488e-08
-2.09585e-07
-2.26825e-08
-1.91781e-07
-2.44045e-08
-1.72987e-07
-2.57691e-08
-1.53495e-07
-2.67301e-08
-1.33634e-07
-2.72422e-08
-1.1376e-07
-2.72617e-08
-9.42581e-08
-2.67485e-08
-7.55366e-08
-2.56678e-08
-5.80206e-08
-2.3993e-08
-4.21411e-08
-2.17105e-08
-2.83198e-08
-1.88264e-08
-1.6943e-08
-1.53793e-08
-8.32178e-09
-1.14641e-08
-2.62939e-09
-7.27324e-09
2.09422e-10
-3.1635e-09
7.00386e-10
1.9974e-10
1.56607e-09
-3.48157e-10
-1.17161e-09
-3.28369e-09
2.89736e-09
-9.86605e-09
9.9496e-09
-2.04924e-08
1.81124e-08
-3.51905e-08
2.63346e-08
-5.37067e-08
3.39903e-08
-7.56093e-08
4.07232e-08
-1.00363e-07
4.6349e-08
-1.27383e-07
5.07899e-08
-1.56065e-07
5.40333e-08
-1.85812e-07
5.6108e-08
-2.16049e-07
5.70683e-08
-2.46234e-07
5.69841e-08
-2.75861e-07
5.5934e-08
-3.04466e-07
5.40013e-08
-3.31627e-07
5.12706e-08
-3.56966e-07
4.78258e-08
-3.80147e-07
4.37488e-08
-4.00877e-07
3.91186e-08
-4.189e-07
3.40116e-08
-4.34001e-07
2.85008e-08
-4.46004e-07
2.26568e-08
-4.54766e-07
1.65481e-08
-4.60184e-07
1.02418e-08
-4.62187e-07
3.80472e-09
-4.60742e-07
-2.69613e-09
-4.55854e-07
-9.19238e-09
-4.47563e-07
-1.56135e-08
-4.3595e-07
-2.18863e-08
-4.21136e-07
-2.79341e-08
-4.03284e-07
-3.36765e-08
-3.82604e-07
-3.90292e-08
-3.59348e-07
-4.39043e-08
-3.3382e-07
-4.82104e-08
-3.06371e-07
-5.18541e-08
-2.77399e-07
-5.47406e-08
-2.47354e-07
-5.67755e-08
-2.16729e-07
-5.78672e-08
-1.86061e-07
-5.79294e-08
-1.55924e-07
-5.68852e-08
-1.26921e-07
-5.46713e-08
-9.96686e-08
-5.12452e-08
-7.47843e-08
-4.65948e-08
-5.28574e-08
-4.07532e-08
-3.44143e-08
-3.38223e-08
-1.98666e-08
-2.60118e-08
-9.43727e-09
-1.77026e-08
-3.06089e-09
-9.53987e-09
-2.77162e-10
-2.58399e-09
1.28892e-09
-1.57024e-09
3.9865e-10
-7.34287e-09
8.66998e-09
-1.79735e-08
2.05802e-08
-3.37007e-08
3.38396e-08
-5.44353e-08
4.70691e-08
-7.98309e-08
5.93859e-08
-1.09359e-07
7.02508e-08
-1.42371e-07
7.93619e-08
-1.78156e-07
8.65747e-08
-2.15972e-07
9.18488e-08
-2.55077e-07
9.52129e-08
-2.9475e-07
9.67414e-08
-3.34304e-07
9.65382e-08
-3.73095e-07
9.4725e-08
-4.10528e-07
9.14342e-08
-4.46059e-07
8.68021e-08
-4.792e-07
8.09662e-08
-5.09513e-07
7.40621e-08
-5.36616e-07
6.62216e-08
-5.60177e-07
5.75727e-08
-5.79915e-07
4.82388e-08
-5.95598e-07
3.83397e-08
-6.07041e-07
2.79917e-08
-6.14109e-07
1.73094e-08
-6.16711e-07
6.40658e-09
-6.14805e-07
-4.60227e-09
-6.08396e-07
-1.56006e-08
-5.97541e-07
-2.64686e-08
-5.82346e-07
-3.70817e-08
-5.6297e-07
-4.73102e-08
-5.39628e-07
-5.70184e-08
-5.12592e-07
-6.60646e-08
-4.82195e-07
-7.43014e-08
-4.48829e-07
-8.15767e-08
-4.12948e-07
-8.77353e-08
-3.75067e-07
-9.26209e-08
-3.35763e-07
-9.60796e-08
-2.95667e-07
-9.79633e-08
-2.55462e-07
-9.8135e-08
-2.15871e-07
-9.64757e-08
-1.7765e-07
-9.2892e-08
-1.41567e-07
-8.73282e-08
-1.08381e-07
-7.97817e-08
-7.88081e-08
-7.03257e-08
-5.34882e-08
-5.91422e-08
-3.29273e-08
-4.65727e-08
-1.74353e-08
-3.31946e-08
-7.05236e-09
-1.99228e-08
-1.47967e-09
-8.15666e-09
-1.90743e-10
-2.80608e-09
3.20471e-09
-1.15311e-08
1.7395e-08
-2.63736e-08
3.54227e-08
-4.73078e-08
5.47738e-08
-7.40674e-08
7.38288e-08
-1.06176e-07
9.1495e-08
-1.42996e-07
1.0707e-07
-1.83772e-07
1.20138e-07
-2.27683e-07
1.30486e-07
-2.73874e-07
1.38039e-07
-3.21485e-07
1.42824e-07
-3.69678e-07
1.44934e-07
-4.17648e-07
1.44508e-07
-4.64637e-07
1.41714e-07
-5.09943e-07
1.3674e-07
-5.5292e-07
1.2978e-07
-5.92987e-07
1.21033e-07
-6.29623e-07
1.10698e-07
-6.6237e-07
9.89686e-08
-6.90831e-07
8.60335e-08
-7.14669e-07
7.20764e-08
-7.33605e-07
5.72756e-08
-7.47418e-07
4.18051e-08
-7.55945e-07
2.58364e-08
-7.59079e-07
9.53998e-09
-7.56768e-07
-6.91262e-09
-7.49022e-07
-2.33469e-08
-7.35907e-07
-3.95835e-08
-7.17552e-07
-5.54367e-08
-6.94149e-07
-7.07131e-08
-6.65956e-07
-8.5211e-08
-6.33301e-07
-9.87204e-08
-5.96579e-07
-1.11024e-07
-5.56259e-07
-1.21897e-07
-5.12882e-07
-1.31112e-07
-4.6706e-07
-1.38443e-07
-4.19475e-07
-1.43665e-07
-3.70872e-07
-1.46567e-07
-3.22052e-07
-1.46955e-07
-2.73864e-07
-1.44664e-07
-2.27187e-07
-1.39569e-07
-1.8291e-07
-1.31605e-07
-1.41911e-07
-1.20781e-07
-1.05019e-07
-1.07218e-07
-7.29796e-08
-9.11813e-08
-4.64081e-08
-7.31442e-08
-2.57394e-08
-5.38633e-08
-1.11834e-08
-3.44788e-08
-2.69546e-09
-1.66446e-08
-2.88619e-09
-3.97462e-09
7.17932e-09
-1.55928e-08
2.90132e-08
-3.46199e-08
5.44498e-08
-6.07271e-08
8.0881e-08
-9.3432e-08
1.06534e-07
-1.32098e-07
1.30161e-07
-1.75957e-07
1.50929e-07
-2.24144e-07
1.68325e-07
-2.7573e-07
1.82072e-07
-3.29757e-07
1.92066e-07
-3.85265e-07
1.98332e-07
-4.41314e-07
2.00983e-07
-4.97e-07
2.00194e-07
-5.51472e-07
1.96186e-07
-6.03935e-07
1.89203e-07
-6.53662e-07
1.79507e-07
-6.99992e-07
1.67363e-07
-7.42333e-07
1.5304e-07
-7.80166e-07
1.36801e-07
-8.13037e-07
1.18905e-07
-8.40563e-07
9.96023e-08
-8.62426e-07
7.91384e-08
-8.78374e-07
5.7753e-08
-8.8822e-07
3.56823e-08
-8.91841e-07
1.31615e-08
-8.89181e-07
-9.57256e-09
-8.80249e-07
-3.22793e-08
-8.65121e-07
-5.47116e-08
-8.43944e-07
-7.66138e-08
-8.16937e-07
-9.77201e-08
-7.84394e-07
-1.17754e-07
-7.46686e-07
-1.36428e-07
-7.04266e-07
-1.53444e-07
-6.57664e-07
-1.68499e-07
-6.07494e-07
-1.81282e-07
-5.54449e-07
-1.91487e-07
-4.99299e-07
-1.98815e-07
-4.42885e-07
-2.02981e-07
-3.8611e-07
-2.0373e-07
-3.29926e-07
-2.00848e-07
-2.75319e-07
-1.94176e-07
-2.23287e-07
-1.83636e-07
-1.74816e-07
-1.69253e-07
-1.30843e-07
-1.5119e-07
-9.22293e-08
-1.29795e-07
-5.97171e-08
-1.05656e-07
-3.38988e-08
-7.96816e-08
-1.51929e-08
-5.31847e-08
-3.84687e-09
-2.79905e-08
-6.73307e-09
-5.05028e-09
1.22296e-08
-1.94312e-08
4.33941e-08
-4.25224e-08
7.75411e-08
-7.36924e-08
1.12051e-07
-1.12225e-07
1.45066e-07
-1.57302e-07
1.75238e-07
-2.08009e-07
2.01636e-07
-2.63357e-07
2.23673e-07
-3.22308e-07
2.41023e-07
-3.83804e-07
2.53562e-07
-4.46788e-07
2.61316e-07
-5.10229e-07
2.64424e-07
-5.73139e-07
2.63104e-07
-6.34582e-07
2.57629e-07
-6.93689e-07
2.4831e-07
-7.49658e-07
2.35476e-07
-8.01764e-07
2.19469e-07
-8.49356e-07
2.00632e-07
-8.91861e-07
1.79306e-07
-9.28781e-07
1.55825e-07
-9.59692e-07
1.30513e-07
-9.84243e-07
1.03689e-07
-1.00216e-06
7.56659e-08
-1.01322e-06
4.67504e-08
-1.01731e-06
1.72493e-08
-1.01436e-06
-1.25289e-08
-1.00436e-06
-4.22708e-08
-9.87421e-07
-7.16543e-08
-9.63688e-07
-1.00347e-07
-9.33405e-07
-1.28003e-07
-8.96894e-07
-1.54264e-07
-8.54565e-07
-1.78757e-07
-8.06913e-07
-2.01096e-07
-7.54524e-07
-2.20889e-07
-6.9807e-07
-2.37736e-07
-6.38314e-07
-2.51243e-07
-5.76103e-07
-2.61026e-07
-5.12359e-07
-2.66725e-07
-4.48073e-07
-2.68015e-07
-3.84294e-07
-2.64627e-07
-3.22103e-07
-2.56366e-07
-2.62603e-07
-2.43136e-07
-2.06885e-07
-2.24971e-07
-1.56002e-07
-2.02073e-07
-1.10941e-07
-1.74856e-07
-7.25916e-08
-1.44006e-07
-4.17236e-08
-1.1055e-07
-1.89821e-08
-7.59262e-08
-4.90526e-09
-4.20674e-08
-1.16383e-08
-6.03861e-09
1.82682e-08
-2.30368e-08
6.03922e-08
-5.00435e-08
1.04548e-07
-8.61418e-08
1.48149e-07
-1.30379e-07
1.89304e-07
-1.81743e-07
2.26602e-07
-2.3916e-07
2.59053e-07
-3.01504e-07
2.86018e-07
-3.67623e-07
3.07142e-07
-4.36352e-07
3.22291e-07
-5.06542e-07
3.31506e-07
-5.77075e-07
3.34957e-07
-6.46882e-07
3.32911e-07
-7.14953e-07
3.25701e-07
-7.80351e-07
3.13707e-07
-8.42212e-07
2.97337e-07
-8.99756e-07
2.77012e-07
-9.5228e-07
2.53157e-07
-9.99168e-07
2.26194e-07
-1.03988e-06
1.96539e-07
-1.07397e-06
1.64596e-07
-1.10104e-06
1.30764e-07
-1.12081e-06
9.54311e-08
-1.13304e-06
5.89823e-08
-1.13759e-06
2.18007e-08
-1.13439e-06
-1.57285e-08
-1.12345e-06
-5.32135e-08
-1.10485e-06
-9.02521e-08
-1.07877e-06
-1.26429e-07
-1.04546e-06
-1.61313e-07
-1.00527e-06
-1.94455e-07
-9.58631e-07
-2.25392e-07
-9.06084e-07
-2.53643e-07
-8.48255e-07
-2.78718e-07
-7.85869e-07
-3.00122e-07
-7.19747e-07
-3.17364e-07
-6.50803e-07
-3.2997e-07
-5.80034e-07
-3.37494e-07
-5.08514e-07
-3.39535e-07
-4.37378e-07
-3.35764e-07
-3.67804e-07
-3.25939e-07
-3.00999e-07
-3.09942e-07
-2.38164e-07
-2.87806e-07
-1.80478e-07
-2.59759e-07
-1.29067e-07
-2.26267e-07
-8.49811e-08
-1.88092e-07
-4.91819e-08
-1.46349e-07
-2.25434e-08
-1.02565e-07
-5.87651e-09
-5.87343e-08
-1.75148e-08
-6.95635e-09
2.52246e-08
-2.64435e-08
7.98794e-08
-5.72296e-08
1.35334e-07
-9.8135e-08
1.89055e-07
-1.47976e-07
2.39144e-07
-2.0554e-07
2.84166e-07
-2.69583e-07
3.23096e-07
-3.38836e-07
3.55271e-07
-4.12018e-07
3.80324e-07
-4.87857e-07
3.9813e-07
-5.65106e-07
4.08755e-07
-6.4256e-07
4.12411e-07
-7.19072e-07
4.09423e-07
-7.93564e-07
4.00193e-07
-8.65037e-07
3.85179e-07
-9.3257e-07
3.64871e-07
-9.95335e-07
3.39777e-07
-1.05259e-06
3.10409e-07
-1.10367e-06
2.77277e-07
-1.14801e-06
2.40882e-07
-1.18513e-06
2.01717e-07
-1.21463e-06
1.6026e-07
-1.23618e-06
1.16984e-07
-1.24955e-06
7.23528e-08
-1.25458e-06
2.68305e-08
-1.25119e-06
-1.91165e-08
-1.23939e-06
-6.50142e-08
-1.21927e-06
-1.10376e-07
-1.191e-06
-1.54699e-07
-1.15485e-06
-1.97461e-07
-1.11119e-06
-2.38119e-07
-1.06047e-06
-2.76111e-07
-1.00326e-06
-3.10854e-07
-9.40219e-07
-3.41757e-07
-8.72123e-07
-3.68218e-07
-7.99844e-07
-3.89643e-07
-7.24356e-07
-4.05459e-07
-6.46725e-07
-4.15124e-07
-5.68104e-07
-4.18156e-07
-4.89717e-07
-4.14152e-07
-4.12839e-07
-4.02817e-07
-3.38785e-07
-3.83997e-07
-2.68877e-07
-3.57714e-07
-2.04428e-07
-3.24207e-07
-1.46716e-07
-2.8398e-07
-9.69633e-08
-2.37845e-07
-5.63304e-08
-1.86982e-07
-2.59155e-08
-1.3298e-07
-6.77874e-09
-7.7871e-08
-2.42936e-08
-7.82368e-09
3.30483e-08
-2.97051e-08
1.01761e-07
-6.41712e-08
1.698e-07
-1.09801e-07
2.34684e-07
-1.65186e-07
2.94529e-07
-2.28914e-07
3.47894e-07
-2.99562e-07
3.93745e-07
-3.75708e-07
4.31416e-07
-4.55935e-07
4.60551e-07
-5.38854e-07
4.8105e-07
-6.23117e-07
4.93018e-07
-7.0743e-07
4.96724e-07
-7.90569e-07
4.92562e-07
-8.71388e-07
4.81012e-07
-9.48828e-07
4.62619e-07
-1.02192e-06
4.37963e-07
-1.08979e-06
4.07646e-07
-1.15165e-06
3.72274e-07
-1.20683e-06
3.32449e-07
-1.25471e-06
2.88766e-07
-1.2948e-06
2.41804e-07
-1.32667e-06
1.9213e-07
-1.34998e-06
1.40301e-07
-1.3645e-06
8.68652e-08
-1.37004e-06
3.23699e-08
-1.36652e-06
-2.26349e-08
-1.35394e-06
-7.75897e-08
-1.3324e-06
-1.3192e-07
-1.30206e-06
-1.85033e-07
-1.26322e-06
-2.36309e-07
-1.21623e-06
-2.85109e-07
-1.16157e-06
-3.30764e-07
-1.09984e-06
-3.72586e-07
-1.03173e-06
-4.0987e-07
-9.58041e-07
-4.41905e-07
-8.79702e-07
-4.67983e-07
-7.97741e-07
-4.87419e-07
-7.13294e-07
-4.99571e-07
-6.27591e-07
-5.03859e-07
-5.41944e-07
-4.99798e-07
-4.57735e-07
-4.87026e-07
-3.76391e-07
-4.65341e-07
-2.99367e-07
-4.34738e-07
-2.2812e-07
-3.95454e-07
-1.64093e-07
-3.48007e-07
-1.0869e-07
-2.93247e-07
-6.32736e-08
-2.32399e-07
-2.91586e-08
-1.67095e-07
-7.63399e-09
-9.93956e-08
-3.19276e-08
-8.66141e-09
4.17097e-08
-3.28839e-08
1.25983e-07
-7.09808e-08
2.07897e-07
-1.21306e-07
2.8501e-07
-1.82235e-07
3.55458e-07
-2.52152e-07
4.1781e-07
-3.2945e-07
4.71044e-07
-4.12545e-07
5.1451e-07
-4.99877e-07
5.47883e-07
-5.89931e-07
5.71104e-07
-6.81253e-07
5.84339e-07
-7.72455e-07
5.87926e-07
-8.62234e-07
5.82341e-07
-9.49377e-07
5.68156e-07
-1.03277e-06
5.4601e-07
-1.11139e-06
5.16586e-07
-1.18433e-06
4.80585e-07
-1.25077e-06
4.38714e-07
-1.31e-06
3.91676e-07
-1.36139e-06
3.4016e-07
-1.40442e-06
2.84838e-07
-1.43866e-06
2.26367e-07
-1.46375e-06
1.65392e-07
-1.47943e-06
1.02547e-07
-1.48553e-06
3.84645e-08
-1.48194e-06
-2.62206e-08
-1.46867e-06
-9.08616e-08
-1.4458e-06
-1.54794e-07
-1.4135e-06
-2.17331e-07
-1.37205e-06
-2.77756e-07
-1.32184e-06
-3.35324e-07
-1.26334e-06
-3.89259e-07
-1.19717e-06
-4.38758e-07
-1.12404e-06
-4.82999e-07
-1.0448e-06
-5.21147e-07
-9.60408e-07
-5.52374e-07
-8.71953e-07
-5.75874e-07
-7.80637e-07
-5.90887e-07
-6.87769e-07
-5.96727e-07
-5.94758e-07
-5.92809e-07
-5.03093e-07
-5.78691e-07
-4.14327e-07
-5.54107e-07
-3.30056e-07
-5.19009e-07
-2.51896e-07
-4.73613e-07
-1.81465e-07
-4.18439e-07
-1.20358e-07
-3.54354e-07
-7.01407e-08
-2.82615e-07
-3.2343e-08
-2.04892e-07
-8.46525e-09
-1.23273e-07
-4.03928e-08
-9.48973e-09
5.11994e-08
-3.60443e-08
1.52538e-07
-7.77799e-08
2.49633e-07
-1.32837e-07
3.40067e-07
-1.99375e-07
4.21996e-07
-2.75573e-07
4.94009e-07
-3.59639e-07
5.55109e-07
-4.49812e-07
6.04683e-07
-5.44383e-07
6.42454e-07
-6.41704e-07
6.68426e-07
-7.40206e-07
6.8284e-07
-8.38404e-07
6.86124e-07
-9.34913e-07
6.7885e-07
-1.02845e-06
6.61695e-07
-1.11785e-06
6.35407e-07
-1.20204e-06
6.00779e-07
-1.28008e-06
5.58622e-07
-1.35112e-06
5.09752e-07
-1.41441e-06
4.54975e-07
-1.46934e-06
3.95081e-07
-1.51534e-06
3.30839e-07
-1.55197e-06
2.63e-07
-1.57887e-06
1.92296e-07
-1.59577e-06
1.19448e-07
-1.60248e-06
4.51739e-08
-1.5989e-06
-2.98044e-08
-1.58501e-06
-1.04753e-07
-1.56089e-06
-1.78916e-07
-1.52671e-06
-2.51512e-07
-1.48274e-06
-3.21723e-07
-1.42937e-06
-3.88697e-07
-1.36708e-06
-4.51544e-07
-1.2965e-06
-5.09341e-07
-1.21836e-06
-5.61138e-07
-1.13353e-06
-6.05972e-07
-1.04303e-06
-6.42879e-07
-9.47982e-07
-6.70921e-07
-8.49663e-07
-6.89207e-07
-7.49465e-07
-6.96924e-07
-6.48896e-07
-6.93378e-07
-5.49562e-07
-6.78025e-07
-4.53152e-07
-6.50517e-07
-3.61415e-07
-6.10746e-07
-2.7614e-07
-5.58889e-07
-1.9913e-07
-4.95449e-07
-1.32182e-07
-4.21301e-07
-7.70727e-08
-3.37725e-07
-3.55425e-08
-2.46423e-07
-9.29525e-09
-1.49521e-07
-4.96881e-08
-1.03278e-08
6.15272e-08
-3.92502e-08
1.8146e-07
-8.46925e-08
2.95075e-07
-1.44584e-07
3.99958e-07
-2.16869e-07
4.94281e-07
-2.99518e-07
5.76657e-07
-3.90538e-07
6.4613e-07
-4.87992e-07
7.02137e-07
-5.90008e-07
7.4447e-07
-6.94798e-07
7.73216e-07
-8.00669e-07
7.88711e-07
-9.06035e-07
7.91491e-07
-1.00943e-06
7.82242e-07
-1.10949e-06
7.61761e-07
-1.20501e-06
7.30921e-07
-1.29486e-06
6.90634e-07
-1.37807e-06
6.41833e-07
-1.45377e-06
5.85449e-07
-1.5212e-06
5.22401e-07
-1.5797e-06
4.53582e-07
-1.62872e-06
3.79861e-07
-1.6678e-06
3.02084e-07
-1.69658e-06
2.21071e-07
-1.71476e-06
1.37632e-07
-1.72216e-06
5.25699e-08
-1.71865e-06
-3.33091e-08
-1.70422e-06
-1.19183e-07
-1.67893e-06
-2.04207e-07
-1.64295e-06
-2.875e-07
-1.59652e-06
-3.68145e-07
-1.54004e-06
-4.45179e-07
-1.47399e-06
-5.17592e-07
-1.399e-06
-5.84335e-07
-1.31581e-06
-6.44324e-07
-1.22533e-06
-6.96453e-07
-1.1286e-06
-7.39613e-07
-1.0268e-06
-7.72718e-07
-9.21281e-07
-7.94729e-07
-8.13514e-07
-8.04692e-07
-7.05114e-07
-8.01777e-07
-5.97816e-07
-7.85323e-07
-4.93454e-07
-7.54879e-07
-3.93944e-07
-7.10256e-07
-3.01259e-07
-6.51573e-07
-2.17405e-07
-5.79303e-07
-1.44393e-07
-4.94314e-07
-8.42158e-08
-3.97902e-07
-3.88314e-08
-2.91807e-07
-1.0146e-08
-1.78206e-07
-5.98341e-08
-1.11938e-08
7.2721e-08
-4.25636e-08
2.1283e-07
-9.18413e-08
3.44352e-07
-1.56741e-07
4.64857e-07
-2.34985e-07
5.72525e-07
-3.24326e-07
6.65998e-07
-4.22565e-07
7.44369e-07
-5.27572e-07
8.07145e-07
-6.37306e-07
8.54203e-07
-7.49827e-07
8.85737e-07
-8.63316e-07
9.022e-07
-9.76077e-07
9.04253e-07
-1.08655e-06
8.92718e-07
-1.19332e-06
8.68531e-07
-1.29511e-06
8.32702e-07
-1.39075e-06
7.86279e-07
-1.47924e-06
7.30326e-07
-1.5597e-06
6.65901e-07
-1.63133e-06
5.94036e-07
-1.69349e-06
5.15737e-07
-1.7456e-06
4.31975e-07
-1.7872e-06
3.43689e-07
-1.81793e-06
2.51793e-07
-1.83747e-06
1.57179e-07
-1.84564e-06
6.07355e-08
-1.8423e-06
-3.66485e-08
-1.82742e-06
-1.34066e-07
-1.80104e-06
-2.30581e-07
-1.76332e-06
-3.2522e-07
-1.71451e-06
-4.1696e-07
-1.65496e-06
-5.04726e-07
-1.58517e-06
-5.87386e-07
-1.50574e-06
-6.63757e-07
-1.41746e-06
-7.32612e-07
-1.32122e-06
-7.92691e-07
-1.2181e-06
-8.42727e-07
-1.10935e-06
-8.81467e-07
-9.96377e-07
-9.07706e-07
-8.80741e-07
-9.20327e-07
-7.64172e-07
-9.18347e-07
-6.48538e-07
-9.00957e-07
-5.35832e-07
-8.67584e-07
-4.28153e-07
-8.17935e-07
-3.27674e-07
-7.52052e-07
-2.36617e-07
-6.7036e-07
-1.57223e-07
-5.73708e-07
-9.17169e-08
-4.63408e-07
-4.22835e-08
-3.4124e-07
-1.10389e-08
-2.09451e-07
-7.0873e-08
-1.21048e-08
8.48258e-08
-4.60445e-08
2.4677e-07
-9.9346e-08
3.97654e-07
-1.69497e-07
5.35008e-07
-2.53987e-07
6.57015e-07
-3.50337e-07
7.62349e-07
-4.56129e-07
8.50161e-07
-5.6903e-07
9.20046e-07
-6.86816e-07
9.71989e-07
-8.07388e-07
1.00631e-06
-9.2879e-07
1.0236e-06
-1.04922e-06
1.02468e-06
-1.16701e-06
1.01052e-06
-1.28069e-06
9.82211e-07
-1.38892e-06
9.40927e-07
-1.4905e-06
8.87863e-07
-1.5844e-06
8.24228e-07
-1.66972e-06
7.51212e-07
-1.74565e-06
6.69973e-07
-1.81155e-06
5.8163e-07
-1.86683e-06
4.8726e-07
-1.91104e-06
3.87898e-07
-1.94379e-06
2.84544e-07
-1.96479e-06
1.78177e-07
-1.97382e-06
6.97629e-08
-1.97074e-06
-3.97269e-08
-1.9555e-06
-1.49304e-07
-1.92813e-06
-2.57946e-07
-1.88877e-06
-3.64586e-07
-1.83763e-06
-4.68097e-07
-1.77507e-06
-5.67289e-07
-1.70155e-06
-6.60907e-07
-1.61768e-06
-7.47625e-07
-1.52423e-06
-8.26065e-07
-1.42212e-06
-8.94801e-07
-1.31245e-06
-9.52391e-07
-1.19652e-06
-9.97396e-07
-1.0758e-06
-1.02843e-06
-9.51953e-07
-1.04418e-06
-8.26816e-07
-1.04348e-06
-7.02406e-07
-1.02537e-06
-5.80889e-07
-9.89102e-07
-4.64558e-07
-9.34266e-07
-3.55806e-07
-8.60804e-07
-2.57093e-07
-7.69073e-07
-1.70906e-07
-6.59895e-07
-9.97228e-08
-5.34591e-07
-4.59715e-08
-3.94992e-07
-1.19946e-08
-2.43428e-07
-8.28676e-08
-1.30772e-08
9.79029e-08
-4.97502e-08
2.83443e-07
-1.07322e-07
4.55226e-07
-1.83037e-07
6.10723e-07
-2.74131e-07
7.4811e-07
-3.7788e-07
8.66097e-07
-4.91628e-07
9.63909e-07
-6.12825e-07
1.04124e-06
-7.39052e-07
1.09822e-06
-8.6804e-07
1.1353e-06
-9.97689e-07
1.15325e-06
-1.12607e-06
1.15306e-06
-1.25145e-06
1.1359e-06
-1.37226e-06
1.10302e-06
-1.48712e-06
1.05578e-06
-1.59479e-06
9.95539e-07
-1.69423e-06
9.23663e-07
-1.7845e-06
8.41487e-07
-1.86483e-06
7.50301e-07
-1.93454e-06
6.51343e-07
-1.99308e-06
5.45795e-07
-2.03997e-06
4.34787e-07
-2.07483e-06
3.19408e-07
-2.09737e-06
2.00715e-07
-2.10736e-06
7.97514e-08
-2.10465e-06
-4.24379e-08
-2.08917e-06
-1.64787e-07
-2.06092e-06
-2.86191e-07
-2.02002e-06
-4.05491e-07
-1.96665e-06
-5.21462e-07
-1.90114e-06
-6.32799e-07
-1.82393e-06
-7.38114e-07
-1.73562e-06
-8.3594e-07
-1.63695e-06
-9.24732e-07
-1.52886e-06
-1.00289e-06
-1.41248e-06
-1.06877e-06
-1.28913e-06
-1.12075e-06
-1.16036e-06
-1.1572e-06
-1.02791e-06
-1.17662e-06
-8.93763e-07
-1.17763e-06
-7.60081e-07
-1.15905e-06
-6.29213e-07
-1.11997e-06
-5.03668e-07
-1.05981e-06
-3.86077e-07
-9.78395e-07
-2.7916e-07
-8.75991e-07
-1.85676e-07
-7.53379e-07
-1.08379e-07
-6.11888e-07
-4.99673e-08
-4.53403e-07
-1.30332e-08
-2.80362e-07
-9.59008e-08
-1.41266e-08
1.12029e-07
-5.37364e-08
3.23053e-07
-1.15883e-07
5.17372e-07
-1.97538e-07
6.92378e-07
-2.95667e-07
8.46238e-07
-4.07272e-07
9.77702e-07
-5.29442e-07
1.08608e-06
-6.59392e-07
1.17119e-06
-7.94494e-07
1.23332e-06
-9.32297e-07
1.2731e-06
-1.07055e-06
1.2915e-06
-1.20721e-06
1.28972e-06
-1.34043e-06
1.26912e-06
-1.46859e-06
1.23118e-06
-1.59024e-06
1.17744e-06
-1.70415e-06
1.10944e-06
-1.80922e-06
1.02874e-06
-1.90455e-06
9.36812e-07
-1.98934e-06
8.35091e-07
-2.06293e-06
7.24938e-07
-2.12478e-06
6.07641e-07
-2.17442e-06
4.84426e-07
-2.21147e-06
3.56463e-07
-2.23564e-06
2.24885e-07
-2.2467e-06
9.08044e-08
-2.24447e-06
-4.46651e-08
-2.22887e-06
-1.80387e-07
-2.19988e-06
-3.15182e-07
-2.15756e-06
-4.47806e-07
-2.10209e-06
-5.76935e-07
-2.03374e-06
-7.0115e-07
-1.95292e-06
-8.18933e-07
-1.86019e-06
-9.28665e-07
-1.75629e-06
-1.02863e-06
-1.64215e-06
-1.11703e-06
-1.51889e-06
-1.19203e-06
-1.38789e-06
-1.25175e-06
-1.25075e-06
-1.29434e-06
-1.10932e-06
-1.31806e-06
-9.6569e-07
-1.32126e-06
-8.22192e-07
-1.30255e-06
-6.81375e-07
-1.26079e-06
-5.45979e-07
-1.19521e-06
-4.18899e-07
-1.10547e-06
-3.03139e-07
-9.91751e-07
-2.01762e-07
-8.54757e-07
-1.17829e-07
-6.9582e-07
-5.43418e-08
-5.16891e-07
-1.41748e-08
-3.20528e-07
-1.10076e-07
-1.52682e-08
1.27298e-07
-5.80567e-08
3.65841e-07
-1.25135e-07
5.8445e-07
-2.13173e-07
7.80417e-07
-3.1883e-07
9.51895e-07
-4.38812e-07
1.09768e-06
-5.69926e-07
1.21719e-06
-7.09132e-07
1.3104e-06
-8.53576e-07
1.37776e-06
-1.00061e-06
1.42014e-06
-1.14784e-06
1.43873e-06
-1.29307e-06
1.43496e-06
-1.43439e-06
1.41044e-06
-1.57009e-06
1.36688e-06
-1.69869e-06
1.30604e-06
-1.81892e-06
1.22968e-06
-1.92971e-06
1.13953e-06
-2.03013e-06
1.03723e-06
-2.11941e-06
9.24375e-07
-2.19692e-06
8.02442e-07
-2.26211e-06
6.72831e-07
-2.31454e-06
5.36856e-07
-2.35385e-06
3.95768e-07
-2.37973e-06
2.50767e-07
-2.39195e-06
1.03026e-07
-2.39033e-06
-4.62826e-08
-2.37476e-06
-1.95961e-07
-2.34518e-06
-3.44761e-07
-2.30162e-06
-4.91362e-07
-2.24421e-06
-6.34348e-07
-2.17317e-06
-7.7219e-07
-2.08887e-06
-9.03237e-07
-1.99182e-06
-1.02571e-06
-1.88272e-06
-1.13772e-06
-1.76249e-06
-1.23727e-06
-1.63226e-06
-1.32226e-06
-1.49341e-06
-1.39059e-06
-1.34762e-06
-1.44014e-06
-1.19681e-06
-1.46886e-06
-1.04321e-06
-1.47486e-06
-8.89327e-07
-1.45643e-06
-7.37916e-07
-1.4122e-06
-5.9197e-07
-1.34115e-06
-4.54673e-07
-1.24277e-06
-3.29346e-07
-1.11708e-06
-2.19391e-07
-9.64712e-07
-1.28217e-07
-7.86995e-07
-5.91656e-08
-5.85942e-07
-1.54393e-08
-3.64255e-07
-1.25515e-07
-1.6517e-08
1.43815e-07
-6.27633e-08
4.12087e-07
-1.35183e-07
6.5687e-07
-2.30106e-07
8.7534e-07
-3.43847e-07
1.06564e-06
-4.72781e-07
1.22662e-06
-6.13408e-07
1.35782e-06
-7.62407e-07
1.4594e-06
-9.1668e-07
1.53203e-06
-1.07338e-06
1.57684e-06
-1.22993e-06
1.59527e-06
-1.38402e-06
1.58905e-06
-1.53364e-06
1.56006e-06
-1.67703e-06
1.51026e-06
-1.81267e-06
1.44168e-06
-1.93928e-06
1.35629e-06
-2.05578e-06
1.25603e-06
-2.16128e-06
1.14273e-06
-2.25503e-06
1.01813e-06
-2.33642e-06
8.83832e-07
-2.40494e-06
7.4135e-07
-2.46017e-06
5.92085e-07
-2.50176e-06
4.37358e-07
-2.52942e-06
2.78426e-07
-2.54291e-06
1.16514e-07
-2.54204e-06
-4.71567e-08
-2.52666e-06
-2.11341e-07
-2.49668e-06
-3.74734e-07
-2.4521e-06
-5.35948e-07
-2.39296e-06
-6.93481e-07
-2.31945e-06
-8.45701e-07
-2.23186e-06
-9.90825e-07
-2.13066e-06
-1.12692e-06
-2.01649e-06
-1.2519e-06
-1.89021e-06
-1.36354e-06
-1.75296e-06
-1.45951e-06
-1.60614e-06
-1.53742e-06
-1.45144e-06
-1.59484e-06
-1.2909e-06
-1.62941e-06
-1.12686e-06
-1.63889e-06
-9.62013e-07
-1.62128e-06
-7.99334e-07
-1.57488e-06
-6.42091e-07
-1.4984e-06
-4.93784e-07
-1.39108e-06
-3.5809e-07
-1.25277e-06
-2.38789e-07
-1.08401e-06
-1.39683e-07
-8.861e-07
-6.45092e-08
-6.61116e-07
-1.68466e-08
-4.11917e-07
-1.42362e-07
-1.78874e-08
1.61702e-07
-6.79075e-08
4.62108e-07
-1.4613e-07
7.35093e-07
-2.48495e-07
9.77705e-07
-3.70931e-07
1.18807e-06
-5.09442e-07
1.36513e-06
-6.60185e-07
1.50856e-06
-8.19532e-07
1.61875e-06
-9.84122e-07
1.69662e-06
-1.15089e-06
1.7436e-06
-1.31708e-06
1.76147e-06
-1.48027e-06
1.75224e-06
-1.63834e-06
1.71813e-06
-1.78949e-06
1.66141e-06
-1.93217e-06
1.58436e-06
-2.06512e-06
1.48923e-06
-2.18726e-06
1.37818e-06
-2.29775e-06
1.25321e-06
-2.39586e-06
1.11624e-06
-2.48104e-06
9.69009e-07
-2.55281e-06
8.13122e-07
-2.61079e-06
6.50066e-07
-2.65466e-06
4.81223e-07
-2.68413e-06
3.079e-07
-2.69897e-06
1.31359e-07
-2.69898e-06
-4.71484e-08
-2.68398e-06
-2.2634e-07
-2.65385e-06
-4.04871e-07
-2.6085e-06
-5.81297e-07
-2.54793e-06
-7.54046e-07
-2.47225e-06
-9.21385e-07
-2.38167e-06
-1.08141e-06
-2.27657e-06
-1.23202e-06
-2.15753e-06
-1.37093e-06
-2.02537e-06
-1.4957e-06
-1.88117e-06
-1.60371e-06
-1.72632e-06
-1.69227e-06
-1.56256e-06
-1.7586e-06
-1.39199e-06
-1.79998e-06
-1.21709e-06
-1.8138e-06
-1.04071e-06
-1.79766e-06
-8.66077e-07
-1.74951e-06
-6.96758e-07
-1.66771e-06
-5.36598e-07
-1.55124e-06
-3.89666e-07
-1.3997e-06
-2.60172e-07
-1.21351e-06
-1.52368e-07
-9.93905e-07
-7.04431e-08
-7.4304e-07
-1.84168e-08
-4.63944e-07
-1.60778e-07
-1.93941e-08
1.81096e-07
-7.35399e-08
5.16253e-07
-1.58074e-07
8.19627e-07
-2.68492e-07
1.08812e-06
-4.00281e-07
1.31986e-06
-5.4903e-07
1.51388e-06
-7.10513e-07
1.67005e-06
-8.80767e-07
1.789e-06
-1.05614e-06
1.872e-06
-1.23335e-06
1.92081e-06
-1.40944e-06
1.93756e-06
-1.58188e-06
1.92468e-06
-1.74846e-06
1.88471e-06
-1.90734e-06
1.82028e-06
-2.05696e-06
1.73399e-06
-2.19608e-06
1.62835e-06
-2.32368e-06
1.50577e-06
-2.43893e-06
1.36847e-06
-2.54119e-06
1.21851e-06
-2.62996e-06
1.05778e-06
-2.70483e-06
8.87983e-07
-2.76544e-06
7.10681e-07
-2.81152e-06
5.27304e-07
-2.84281e-06
3.39193e-07
-2.85909e-06
1.47629e-07
-2.86012e-06
-4.61171e-08
-2.84571e-06
-2.40749e-07
-2.81568e-06
-4.34899e-07
-2.76989e-06
-6.27084e-07
-2.70827e-06
-8.15672e-07
-2.63081e-06
-9.98846e-07
-2.53763e-06
-1.17458e-06
-2.42903e-06
-1.34062e-06
-2.30548e-06
-1.49448e-06
-2.16772e-06
-1.63347e-06
-2.01676e-06
-1.75467e-06
-1.85398e-06
-1.85505e-06
-1.68111e-06
-1.93147e-06
-1.50031e-06
-1.98077e-06
-1.31418e-06
-1.99992e-06
-1.12576e-06
-1.98608e-06
-9.38524e-07
-1.93674e-06
-7.56343e-07
-1.8499e-06
-5.83451e-07
-1.72413e-06
-4.24357e-07
-1.5588e-06
-2.83755e-07
-1.35411e-06
-1.66411e-07
-1.11125e-06
-7.7038e-08
-8.32413e-07
-2.01705e-08
-5.20811e-07
-1.80949e-07
-2.10521e-08
2.02148e-07
-7.97111e-08
5.74912e-07
-1.71114e-07
9.1103e-07
-2.90242e-07
1.20725e-06
-4.32084e-07
1.4617e-06
-5.91757e-07
1.67355e-06
-7.6461e-07
1.8429e-06
-9.46309e-07
1.9707e-06
-1.1329e-06
2.05859e-06
-1.32083e-06
2.10874e-06
-1.507e-06
2.12373e-06
-1.68873e-06
2.10641e-06
-1.86374e-06
2.05973e-06
-2.03018e-06
1.98671e-06
-2.1865e-06
1.89031e-06
-2.33148e-06
1.77334e-06
-2.46418e-06
1.63846e-06
-2.58385e-06
1.48813e-06
-2.68992e-06
1.32458e-06
-2.78197e-06
1.14983e-06
-2.85965e-06
9.65666e-07
-2.92269e-06
7.73724e-07
-2.97086e-06
5.75469e-07
-3.00392e-06
3.72256e-07
-3.02166e-06
1.6537e-07
-3.02385e-06
-4.39261e-08
-3.01026e-06
-2.5434e-07
-2.98066e-06
-4.64501e-07
-2.93483e-06
-6.72911e-07
-2.87261e-06
-8.77897e-07
-2.79388e-06
-1.07757e-06
-2.69866e-06
-1.2698e-06
-2.58709e-06
-1.45218e-06
-2.45955e-06
-1.62203e-06
-2.31664e-06
-1.77637e-06
-2.15931e-06
-1.91201e-06
-1.98884e-06
-2.02552e-06
-1.80697e-06
-2.11333e-06
-1.6159e-06
-2.17185e-06
-1.41831e-06
-2.19751e-06
-1.21742e-06
-2.18697e-06
-1.01697e-06
-2.1372e-06
-8.21161e-07
-2.0457e-06
-6.34647e-07
-1.91064e-06
-4.62427e-07
-1.73102e-06
-3.09743e-07
-1.50679e-06
-1.81948e-07
-1.23904e-06
-8.43651e-08
-9.29996e-07
-2.21286e-08
-5.83048e-07
-2.03077e-07
-2.28765e-08
2.25025e-07
-8.64723e-08
6.38508e-07
-1.85344e-07
1.0099e-06
-3.13884e-07
1.33579e-06
-4.6651e-07
1.61433e-06
-6.37805e-07
1.84485e-06
-8.22643e-07
2.02774e-06
-1.01628e-06
2.16434e-06
-1.21443e-06
2.25673e-06
-1.41329e-06
2.3076e-06
-1.60957e-06
2.32001e-06
-1.80047e-06
2.29731e-06
-1.98368e-06
2.24294e-06
-2.15732e-06
2.16035e-06
-2.31989e-06
2.05288e-06
-2.47025e-06
1.9237e-06
-2.60752e-06
1.77574e-06
-2.73107e-06
1.61169e-06
-2.84044e-06
1.43396e-06
-2.9353e-06
1.24469e-06
-3.01541e-06
1.04577e-06
-3.08056e-06
8.38877e-07
-3.13059e-06
6.25497e-07
-3.16531e-06
4.06978e-07
-3.18453e-06
1.84585e-07
-3.188e-06
-4.04488e-08
-3.17548e-06
-2.66864e-07
-3.14667e-06
-4.93313e-07
-3.10127e-06
-7.18307e-07
-3.03901e-06
-9.40155e-07
-2.95967e-06
-1.15692e-06
-2.86309e-06
-1.36638e-06
-2.74929e-06
-1.56598e-06
-2.61846e-06
-1.75285e-06
-2.47109e-06
-1.92374e-06
-2.30797e-06
-2.07513e-06
-2.1303e-06
-2.20318e-06
-1.93976e-06
-2.30388e-06
-1.73854e-06
-2.37307e-06
-1.52942e-06
-2.40663e-06
-1.31578e-06
-2.40061e-06
-1.1016e-06
-2.35138e-06
-8.91456e-07
-2.25585e-06
-6.90448e-07
-2.11165e-06
-5.0412e-07
-1.91735e-06
-3.38333e-07
-1.67258e-06
-1.99117e-07
-1.37826e-06
-9.24964e-08
-1.03662e-06
-2.43127e-08
-6.51232e-07
-2.2739e-07
-2.48835e-08
2.49908e-07
-9.38763e-08
7.07501e-07
-2.00863e-07
1.11689e-06
-3.39556e-07
1.47448e-06
-5.03718e-07
1.77849e-06
-6.87327e-07
2.02846e-06
-8.84726e-07
2.22514e-06
-1.09072e-06
2.37033e-06
-1.30067e-06
2.46668e-06
-1.5105e-06
2.51743e-06
-1.71675e-06
2.52626e-06
-1.91652e-06
2.49708e-06
-2.10746e-06
2.43388e-06
-2.28772e-06
2.34061e-06
-2.45587e-06
2.22103e-06
-2.61087e-06
2.0787e-06
-2.75197e-06
1.91684e-06
-2.87866e-06
1.73838e-06
-2.99062e-06
1.54592e-06
-3.08765e-06
1.34171e-06
-3.16962e-06