/*--------------------------------*- C++ -*----------------------------------*\
  =========                 |
  \\      /  F ield         | OpenFOAM: The Open Source CFD Toolbox
   \\    /   O peration     | Website:  https://openfoam.org
    \\  /    A nd           | Version:  7
     \\/     M anipulation  |
\*---------------------------------------------------------------------------*/
FoamFile
{
    version     2.0;
    format      ascii;
    class       volVectorField;
    location    "0.025";
    object      U;
}
// * * * * * * * * * * * * * * * * * * * * * * * * * * * * * * * * * * * * * //

dimensions      [0 1 -1 0 0 0 0];

internalField   nonuniform List<vector> 
2500
(
(2.45614e-05 -2.44401e-05 0)
(6.74077e-05 -2.53521e-05 0)
(7.75104e-05 -7.31754e-06 0)
(2.81903e-05 1.52864e-05 0)
(-8.60177e-05 3.72047e-05 0)
(-0.000260919 5.65566e-05 0)
(-0.000488786 7.26504e-05 0)
(-0.00076088 8.54528e-05 0)
(-0.00106813 9.5152e-05 0)
(-0.00140167 0.000101993 0)
(-0.00175309 0.000106232 0)
(-0.00211454 0.000108117 0)
(-0.00247879 0.000107884 0)
(-0.00283923 0.000105755 0)
(-0.00318988 0.00010194 0)
(-0.00352538 9.66311e-05 0)
(-0.00384095 9.00087e-05 0)
(-0.00413235 8.22391e-05 0)
(-0.00439591 7.34758e-05 0)
(-0.00462843 6.38609e-05 0)
(-0.00482717 5.35273e-05 0)
(-0.00498987 4.25998e-05 0)
(-0.00511466 3.11969e-05 0)
(-0.00520011 1.94335e-05 0)
(-0.00524518 7.42316e-06 0)
(-0.00524925 -4.71962e-06 0)
(-0.00521208 -1.68773e-05 0)
(-0.00513389 -2.89272e-05 0)
(-0.00501531 -4.07397e-05 0)
(-0.00485747 -5.21765e-05 0)
(-0.00466195 -6.30894e-05 0)
(-0.00443088 -7.33195e-05 0)
(-0.00416693 -8.2697e-05 0)
(-0.00387336 -9.10412e-05 0)
(-0.00355404 -9.81615e-05 0)
(-0.00321346 -0.000103858 0)
(-0.00285677 -0.000107924 0)
(-0.00248977 -0.000110144 0)
(-0.00211893 -0.000110303 0)
(-0.00175132 -0.000108179 0)
(-0.00139463 -0.000103551 0)
(-0.00105711 -9.62003e-05 0)
(-0.000747443 -8.59152e-05 0)
(-0.000474637 -7.25061e-05 0)
(-0.000247713 -5.58518e-05 0)
(-7.5111e-05 -3.60666e-05 0)
(3.58083e-05 -1.39561e-05 0)
(8.14692e-05 8.61842e-06 0)
(6.8483e-05 2.61287e-05 0)
(2.45135e-05 2.44628e-05 0)
(2.58233e-05 -6.75208e-05 0)
(4.21798e-05 -4.12239e-05 0)
(-3.96856e-05 5.40243e-05 0)
(-0.000257806 0.000171068 0)
(-0.000623046 0.000288399 0)
(-0.0011305 0.00039582 0)
(-0.00176608 0.000488472 0)
(-0.00251113 0.000564542 0)
(-0.00334499 0.000623724 0)
(-0.00424637 0.000666464 0)
(-0.00519437 0.000693602 0)
(-0.00616892 0.000706184 0)
(-0.00715118 0.000705355 0)
(-0.00812367 0.000692294 0)
(-0.0090704 0.000668176 0)
(-0.00997685 0.000634151 0)
(-0.01083 0.000591323 0)
(-0.0116183 0.000540747 0)
(-0.0123316 0.00048342 0)
(-0.012961 0.000420289 0)
(-0.013499 0.000352251 0)
(-0.0139394 0.000280162 0)
(-0.0142769 0.000204847 0)
(-0.0145076 0.00012711 0)
(-0.0146287 4.77481e-05 0)
(-0.0146386 -3.24353e-05 0)
(-0.0145366 -0.000112621 0)
(-0.0143235 -0.00019196 0)
(-0.0140012 -0.000269564 0)
(-0.0135727 -0.000344496 0)
(-0.0130426 -0.000415766 0)
(-0.0124169 -0.000482326 0)
(-0.011703 -0.000543072 0)
(-0.0109097 -0.000596846 0)
(-0.0100479 -0.000642445 0)
(-0.00912952 -0.000678633 0)
(-0.00816861 -0.000704156 0)
(-0.00718065 -0.000717763 0)
(-0.00618278 -0.000718231 0)
(-0.00519359 -0.000704402 0)
(-0.00423298 -0.000675222 0)
(-0.0033219 -0.000629813 0)
(-0.00248191 -0.000567573 0)
(-0.00173458 -0.000488359 0)
(-0.00110046 -0.000392832 0)
(-0.000597619 -0.000283205 0)
(-0.00023919 -0.00016479 0)
(-2.89438e-05 -4.80278e-05 0)
(4.6161e-05 4.5277e-05 0)
(2.64393e-05 6.84996e-05 0)
(8.54104e-06 -7.89077e-05 0)
(-5.04701e-05 3.96249e-05 0)
(-0.000280667 0.000285121 0)
(-0.000708999 0.000576913 0)
(-0.0013437 0.000871949 0)
(-0.00217832 0.00114611 0)
(-0.00319476 0.00138632 0)
(-0.00436807 0.00158628 0)
(-0.00566971 0.00174363 0)
(-0.0070696 0.00185832 0)
(-0.0085375 0.00193169 0)
(-0.010044 0.00196591 0)
(-0.011561 0.00196362 0)
(-0.0130622 0.00192771 0)
(-0.0145235 0.00186119 0)
(-0.0159225 0.00176706 0)
(-0.0172394 0.00164829 0)
(-0.0184563 0.00150773 0)
(-0.0195575 0.00134815 0)
(-0.0205292 0.00117217 0)
(-0.0213597 0.000982327 0)
(-0.0220393 0.000781033 0)
(-0.0225599 0.000570641 0)
(-0.0229154 0.000353447 0)
(-0.0231016 0.000131733 0)
(-0.0231157 -9.22076e-05 0)
(-0.0229571 -0.000316035 0)
(-0.0226269 -0.000537335 0)
(-0.0221281 -0.000753592 0)
(-0.0214656 -0.000962169 0)
(-0.0206467 -0.00116029 0)
(-0.0196806 -0.00134505 0)
(-0.0185787 -0.00151338 0)
(-0.0173551 -0.00166212 0)
(-0.0160261 -0.00178799 0)
(-0.0146103 -0.00188767 0)
(-0.0131291 -0.00195782 0)
(-0.011606 -0.00199518 0)
(-0.0100669 -0.00199664 0)
(-0.00853958 -0.00195935 0)
(-0.00705359 -0.00188093 0)
(-0.00563962 -0.00175963 0)
(-0.00432881 -0.00159471 0)
(-0.00315167 -0.00138697 0)
(-0.00213662 -0.00113963 0)
(-0.00130788 -0.000859951 0)
(-0.000682316 -0.000561939 0)
(-0.000264674 -0.000270443 0)
(-4.39121e-05 -2.87434e-05 0)
(9.83904e-06 8.27315e-05 0)
(-1.30109e-05 -3.2841e-05 0)
(-0.000164762 0.000254547 0)
(-0.000569337 0.000712466 0)
(-0.00122915 0.00123501 0)
(-0.00214361 0.00176026 0)
(-0.00330229 0.00225001 0)
(-0.00468272 0.00268174 0)
(-0.0062547 0.00304332 0)
(-0.00798367 0.00332929 0)
(-0.00983285 0.00353842 0)
(-0.0117649 0.0036722 0)
(-0.0137431 0.00373387 0)
(-0.015732 0.00372774 0)
(-0.0176982 0.00365878 0)
(-0.0196109 0.0035323 0)
(-0.0214414 0.00335372 0)
(-0.0231639 0.00312846 0)
(-0.0247553 0.00286183 0)
(-0.0261951 0.00255898 0)
(-0.0274655 0.00222489 0)
(-0.0285511 0.00186433 0)
(-0.0294392 0.00148194 0)
(-0.0301194 0.00108221 0)
(-0.0305835 0.000669544 0)
(-0.0308261 0.000248332 0)
(-0.0308437 -0.00017702 0)
(-0.0306355 -0.000602021 0)
(-0.0302029 -0.00102205 0)
(-0.02955 -0.0014323 0)
(-0.0286834 -0.00182775 0)
(-0.0276124 -0.00220314 0)
(-0.0263493 -0.00255298 0)
(-0.024909 -0.00287153 0)
(-0.0233097 -0.00315285 0)
(-0.0215725 -0.00339087 0)
(-0.0197217 -0.00357946 0)
(-0.0177846 -0.00371252 0)
(-0.0157915 -0.00378419 0)
(-0.0137753 -0.00378897 0)
(-0.0117712 -0.003722 0)
(-0.00981654 -0.00357939 0)
(-0.0079495 -0.00335866 0)
(-0.0062086 -0.00305936 0)
(-0.00463117 -0.00268404 0)
(-0.0032517 -0.00223968 0)
(-0.0020996 -0.00173998 0)
(-0.0011959 -0.00120903 0)
(-0.000548927 -0.00068627 0)
(-0.000156232 -0.000234308 0)
(-1.13675e-05 4.08697e-05 0)
(-3.40433e-05 7.65799e-05 0)
(-0.000281562 0.000616561 0)
(-0.000868768 0.00134863 0)
(-0.00176784 0.0021513 0)
(-0.00296502 0.00294839 0)
(-0.00444359 0.00368984 0)
(-0.00617554 0.00434426 0)
(-0.00812529 0.00489354 0)
(-0.0102529 0.00532868 0)
(-0.0125161 0.00564685 0)
(-0.0148717 0.00584941 0)
(-0.017277 0.00594056 0)
(-0.0196908 0.00592634 0)
(-0.0220738 0.00581397 0)
(-0.0243895 0.00561136 0)
(-0.0266042 0.00532673 0)
(-0.0286872 0.00496841 0)
(-0.0306108 0.00454461 0)
(-0.0323507 0.0040634 0)
(-0.0338854 0.00353259 0)
(-0.0351967 0.00295974 0)
(-0.0362691 0.00235219 0)
(-0.0370902 0.00171711 0)
(-0.0376504 0.00106152 0)
(-0.0379429 0.000392424 0)
(-0.0379637 -0.000283134 0)
(-0.0377118 -0.000957991 0)
(-0.0371891 -0.00162478 0)
(-0.0364004 -0.00227586 0)
(-0.0353536 -0.00290328 0)
(-0.0340601 -0.00349872 0)
(-0.0325345 -0.00405351 0)
(-0.0307946 -0.00455865 0)
(-0.0288623 -0.00500487 0)
(-0.0267628 -0.00538271 0)
(-0.0245248 -0.0056827 0)
(-0.0221808 -0.00589551 0)
(-0.0197665 -0.00601222 0)
(-0.0173207 -0.00602466 0)
(-0.0148848 -0.00592575 0)
(-0.0125022 -0.00571007 0)
(-0.0102173 -0.00537455 0)
(-0.0080748 -0.00491938 0)
(-0.00611765 -0.00434936 0)
(-0.00438584 -0.00367573 0)
(-0.00291411 -0.00291895 0)
(-0.00172888 -0.0021127 0)
(-0.00084449 -0.001309 0)
(-0.00027123 -0.000585335 0)
(-3.20109e-05 -6.34945e-05 0)
(-5.31507e-05 0.000246882 0)
(-0.000393156 0.00112617 0)
(-0.00116117 0.00219629 0)
(-0.00229842 0.0033282 0)
(-0.00377591 0.00443614 0)
(-0.00556876 0.00546092 0)
(-0.00764213 0.00636371 0)
(-0.00995453 0.00712102 0)
(-0.0124606 0.00772043 0)
(-0.0151129 0.00815748 0)
(-0.0178631 0.00843333 0)
(-0.0206635 0.00855311 0)
(-0.0234678 0.00852467 0)
(-0.026232 0.00835764 0)
(-0.0289148 0.00806277 0)
(-0.0314782 0.00765139 0)
(-0.0338874 0.00713507 0)
(-0.0361111 0.00652535 0)
(-0.0381215 0.0058336 0)
(-0.0398942 0.0050709 0)
(-0.0414085 0.00424803 0)
(-0.0426468 0.00337549 0)
(-0.0435947 0.00246352 0)
(-0.0442415 0.00152223 0)
(-0.0445793 0.000561676 0)
(-0.0446036 -0.000408033 0)
(-0.0443133 -0.00137661 0)
(-0.0437104 -0.00233349 0)
(-0.0428005 -0.00326773 0)
(-0.0415927 -0.00416795 0)
(-0.0400998 -0.00502231 0)
(-0.0383385 -0.00581846 0)
(-0.0363292 -0.00654364 0)
(-0.0340965 -0.00718474 0)
(-0.0316691 -0.00772847 0)
(-0.0290797 -0.00816153 0)
(-0.0263648 -0.00847096 0)
(-0.0235649 -0.00864447 0)
(-0.0207236 -0.00867089 0)
(-0.0178876 -0.00854079 0)
(-0.0151054 -0.00824714 0)
(-0.0124271 -0.00778634 0)
(-0.00990253 -0.00715933 0)
(-0.00758014 -0.00637325 0)
(-0.00550542 -0.00544357 0)
(-0.00371911 -0.00439703 0)
(-0.00225434 -0.00327565 0)
(-0.00113336 -0.00214141 0)
(-0.000381204 -0.00108221 0)
(-5.07866e-05 -0.000227934 0)
(-7.00373e-05 0.000473327 0)
(-0.000496945 0.00177771 0)
(-0.00143936 0.0032509 0)
(-0.00280911 0.0047617 0)
(-0.00456145 0.00621864 0)
(-0.00666222 0.00755623 0)
(-0.00906874 0.00872997 0)
(-0.0117328 0.00971199 0)
(-0.0146034 0.010487 0)
(-0.0176278 0.0110493 0)
(-0.0207528 0.0113999 0)
(-0.023926 0.0115451 0)
(-0.0270968 0.0114947 0)
(-0.0302169 0.0112608 0)
(-0.033241 0.0108574 0)
(-0.0361274 0.0102991 0)
(-0.0388378 0.00960107 0)
(-0.0413379 0.0087785 0)
(-0.043597 0.00784641 0)
(-0.0455883 0.0068195 0)
(-0.0472889 0.00571214 0)
(-0.0486793 0.00453833 0)
(-0.0497439 0.00331179 0)
(-0.0504706 0.00204605 0)
(-0.0508507 0.000754568 0)
(-0.0508793 -0.000549094 0)
(-0.050555 -0.00185116 0)
(-0.0498802 -0.00313747 0)
(-0.0488608 -0.00439341 0)
(-0.0475069 -0.00560379 0)
(-0.0458325 -0.00675278 0)
(-0.0438559 -0.00782398 0)
(-0.0415997 -0.00880043 0)
(-0.0390908 -0.00966476 0)
(-0.0363608 -0.0103994 0)
(-0.0334456 -0.0109868 0)
(-0.0303854 -0.0114102 0)
(-0.0272246 -0.0116533 0)
(-0.0240112 -0.0117019 0)
(-0.0207963 -0.0115438 0)
(-0.0176334 -0.0111705 0)
(-0.0145775 -0.0105774 0)
(-0.0116836 -0.00976633 0)
(-0.00900576 -0.00874641 0)
(-0.00659542 -0.00753689 0)
(-0.00450005 -0.00616991 0)
(-0.00276057 -0.0046942 0)
(-0.00140828 -0.00317915 0)
(-0.000483405 -0.00171929 0)
(-6.73205e-05 -0.000447554 0)
(-8.50003e-05 0.000751295 0)
(-0.000593067 0.00256373 0)
(-0.0017022 0.00450507 0)
(-0.00329722 0.00644501 0)
(-0.00531808 0.00828934 0)
(-0.00772077 0.00996864 0)
(-0.010454 0.0114345 0)
(-0.0134624 0.012656 0)
(-0.0166885 0.0136157 0)
(-0.0200741 0.0143072 0)
(-0.0235613 0.0147319 0)
(-0.027093 0.0148975 0)
(-0.0306144 0.0148158 0)
(-0.0340735 0.0145021 0)
(-0.0374214 0.0139736 0)
(-0.0406131 0.0132484 0)
(-0.0436075 0.0123458 0)
(-0.0463674 0.0112847 0)
(-0.0488599 0.0100842 0)
(-0.0510561 0.00876297 0)
(-0.0529312 0.00733917 0)
(-0.0544644 0.00583064 0)
(-0.0556386 0.00425486 0)
(-0.0564408 0.00262908 0)
(-0.0568618 0.000970479 0)
(-0.0568959 -0.000703658 0)
(-0.0565418 -0.00237575 0)
(-0.0558017 -0.00402777 0)
(-0.054682 -0.00564108 0)
(-0.0531935 -0.00719633 0)
(-0.0513511 -0.0086734 0)
(-0.0491744 -0.0100514 0)
(-0.0466877 -0.0113089 0)
(-0.0439199 -0.0124238 0)
(-0.0409049 -0.013374 0)
(-0.0376814 -0.0141372 0)
(-0.0342929 -0.0146923 0)
(-0.0307872 -0.0150191 0)
(-0.0272162 -0.0150996 0)
(-0.0236353 -0.014919 0)
(-0.0201027 -0.0144663 0)
(-0.0166782 -0.0137365 0)
(-0.0134223 -0.0127313 0)
(-0.0103948 -0.0114616 0)
(-0.00765376 -0.00994968 0)
(-0.00525411 -0.00823193 0)
(-0.00324531 -0.00636224 0)
(-0.00166826 -0.0044152 0)
(-0.000578004 -0.00248934 0)
(-8.19063e-05 -0.000717818 0)
(-9.84879e-05 0.00107676 0)
(-0.000682839 0.00347713 0)
(-0.00195169 0.0059513 0)
(-0.00376535 0.00837136 0)
(-0.00604918 0.0106423 0)
(-0.00874918 0.0126926 0)
(-0.0118051 0.0144717 0)
(-0.0151535 0.0159466 0)
(-0.0187303 0.0170991 0)
(-0.0224716 0.0179224 0)
(-0.0263141 0.0184191 0)
(-0.0301964 0.0185986 0)
(-0.0340594 0.0184755 0)
(-0.0378475 0.0180681 0)
(-0.0415085 0.0173973 0)
(-0.0449946 0.0164854 0)
(-0.0482618 0.0153556 0)
(-0.0512709 0.0140311 0)
(-0.0539869 0.0125353 0)
(-0.0563791 0.010891 0)
(-0.0584212 0.00912055 0)
(-0.0600911 0.00724586 0)
(-0.0613708 0.00528837 0)
(-0.0622464 0.00326929 0)
(-0.0627078 0.00120973 0)
(-0.0627493 -0.00086904 0)
(-0.062369 -0.00294543 0)
(-0.0615692 -0.00499726 0)
(-0.0603566 -0.00700164 0)
(-0.0587423 -0.00893478 0)
(-0.0567419 -0.010772 0)
(-0.0543759 -0.0124876 0)
(-0.05167 -0.0140552 0)
(-0.0486549 -0.0154478 0)
(-0.0453663 -0.0166381 0)
(-0.0418454 -0.0175991 0)
(-0.0381385 -0.0183047 0)
(-0.0342967 -0.0187304 0)
(-0.0303756 -0.0188541 0)
(-0.0264348 -0.0186577 0)
(-0.022537 -0.018128 0)
(-0.0187472 -0.0172582 0)
(-0.0151317 -0.0160499 0)
(-0.0117565 -0.0145151 0)
(-0.00868683 -0.012678 0)
(-0.00598576 -0.0105785 0)
(-0.00371181 -0.00827395 0)
(-0.00191568 -0.00584271 0)
(-0.000666441 -0.00338556 0)
(-9.50143e-05 -0.00103475 0)
(-0.000110947 0.00144665 0)
(-0.000768025 0.00451217 0)
(-0.00219142 0.00758348 0)
(-0.00421893 0.0105354 0)
(-0.00676216 0.0132733 0)
(-0.00975717 0.015725 0)
(-0.0131344 0.0178389 0)
(-0.016822 0.0195813 0)
(-0.0207489 0.0209341 0)
(-0.0248446 0.0218912 0)
(-0.0290407 0.0224569 0)
(-0.0332708 0.022643 0)
(-0.0374719 0.0224672 0)
(-0.0415846 0.0219515 0)
(-0.0455537 0.0211209 0)
(-0.0493285 0.020002 0)
(-0.0528629 0.0186223 0)
(-0.0561154 0.01701 0)
(-0.0590493 0.0151925 0)
(-0.0616326 0.0131974 0)
(-0.0638376 0.0110513 0)
(-0.0656412 0.00878035 0)
(-0.0670245 0.0064102 0)
(-0.0679729 0.00396617 0)
(-0.0684757 0.0014735 0)
(-0.0685268 -0.00104244 0)
(-0.0681239 -0.00355582 0)
(-0.0672692 -0.00604017 0)
(-0.0659695 -0.0084681 0)
(-0.0642359 -0.0108112 0)
(-0.0620846 -0.0130398 0)
(-0.059537 -0.0151234 0)
(-0.0566194 -0.0170302 0)
(-0.0533639 -0.0187278 0)
(-0.0498081 -0.0201836 0)
(-0.0459953 -0.0213652 0)
(-0.0419743 -0.0222413 0)
(-0.0377994 -0.0227822 0)
(-0.0335297 -0.0229618 0)
(-0.0292292 -0.0227579 0)
(-0.0249653 -0.0221542 0)
(-0.0208084 -0.0211421 0)
(-0.016831 -0.0197222 0)
(-0.013106 -0.0179065 0)
(-0.0097064 -0.0157209 0)
(-0.00670387 -0.0132071 0)
(-0.00416643 -0.0104254 0)
(-0.00215458 -0.00745649 0)
(-0.000750655 -0.00440272 0)
(-0.000107121 -0.0013954 0)
(-0.00012279 0.00185896 0)
(-0.000850519 0.00566509 0)
(-0.00242563 0.00939778 0)
(-0.00466489 0.0129343 0)
(-0.00746676 0.0161808 0)
(-0.0107574 0.0190654 0)
(-0.0144578 0.0215366 0)
(-0.0184873 0.0235612 0)
(-0.0227672 0.0251219 0)
(-0.0272204 0.0262145 0)
(-0.0317726 0.0268455 0)
(-0.0363524 0.02703 0)
(-0.0408927 0.0267895 0)
(-0.0453303 0.0261502 0)
(-0.0496069 0.0251414 0)
(-0.0536693 0.0237948 0)
(-0.0574691 0.0221426 0)
(-0.0609631 0.0202177 0)
(-0.0641131 0.0180527 0)
(-0.0668857 0.0156794 0)
(-0.0692524 0.0131293 0)
(-0.071189 0.0104329 0)
(-0.0726761 0.00762011 0)
(-0.0736981 0.00472056 0)
(-0.0742442 0.0017637 0)
(-0.0743076 -0.00122085 0)
(-0.0738856 -0.00420296 0)
(-0.0729804 -0.00715168 0)
(-0.0715982 -0.010035 0)
(-0.0697505 -0.0128196 0)
(-0.0674536 -0.015471 0)
(-0.0647291 -0.017953 0)
(-0.0616041 -0.0202284 0)
(-0.0581119 -0.0222592 0)
(-0.0542914 -0.0240069 0)
(-0.0501878 -0.0254332 0)
(-0.0458524 -0.0265009 0)
(-0.0413424 -0.0271752 0)
(-0.0367209 -0.0274245 0)
(-0.0320558 -0.0272224 0)
(-0.0274199 -0.026549 0)
(-0.0228895 -0.0253927 0)
(-0.0185435 -0.0237524 0)
(-0.0144624 -0.0216397 0)
(-0.0107275 -0.0190808 0)
(-0.00741988 -0.0161187 0)
(-0.00461719 -0.0128156 0)
(-0.0023898 -0.00925407 0)
(-0.000832752 -0.00553784 0)
(-0.000118671 -0.00179797 0)
(-0.000134385 0.00231271 0)
(-0.000932204 0.00693432 0)
(-0.00265885 0.0113931 0)
(-0.00511085 0.015568 0)
(-0.00817387 0.0193662 0)
(-0.0117642 0.0227167 0)
(-0.015793 0.0255688 0)
(-0.0201707 0.0278909 0)
(-0.0248103 0.0296674 0)
(-0.0296278 0.0308968 0)
(-0.0345424 0.0315891 0)
(-0.0394778 0.0317633 0)
(-0.0443622 0.0314452 0)
(-0.0491287 0.030666 0)
(-0.053716 0.0294601 0)
(-0.0580683 0.0278643 0)
(-0.0621352 0.0259163 0)
(-0.0658719 0.0236541 0)
(-0.0692388 0.0211153 0)
(-0.0722017 0.0183369 0)
(-0.0747309 0.0153548 0)
(-0.0768018 0.0122041 0)
(-0.0783942 0.00891938 0)
(-0.0794921 0.00553443 0)
(-0.0800842 0.002083 0)
(-0.080163 -0.00140098 0)
(-0.0797258 -0.00488299 0)
(-0.0787739 -0.00832756 0)
(-0.0773136 -0.0116979 0)
(-0.0753558 -0.0149558 0)
(-0.0729169 -0.0180614 0)
(-0.0700186 -0.0209729 0)
(-0.0666885 -0.0236474 0)
(-0.0629604 -0.0260407 0)
(-0.0588746 -0.0281079 0)
(-0.054478 -0.0298045 0)
(-0.0498242 -0.0310868 0)
(-0.0449734 -0.031914 0)
(-0.0399924 -0.0322486 0)
(-0.0349538 -0.032059 0)
(-0.0299356 -0.0313208 0)
(-0.0250206 -0.0300188 0)
(-0.0202948 -0.0281494 0)
(-0.015847 -0.0257226 0)
(-0.0117673 -0.0227641 0)
(-0.00814666 -0.0193178 0)
(-0.00507297 -0.0154471 0)
(-0.00262654 -0.0112362 0)
(-0.000914863 -0.0067904 0)
(-0.000130073 -0.00224183 0)
(-0.000146064 0.00280791 0)
(-0.0010149 0.00832052 0)
(-0.00289561 0.0135713 0)
(-0.00556462 0.0184399 0)
(-0.00889487 0.0228346 0)
(-0.0127927 0.0266854 0)
(-0.017159 0.0299432 0)
(-0.0218947 0.0325786 0)
(-0.0269043 0.0345791 0)
(-0.0320962 0.0359467 0)
(-0.0373832 0.0366958 0)
(-0.0426832 0.0368499 0)
(-0.0479198 0.0364405 0)
(-0.0530224 0.0355042 0)
(-0.0579264 0.0340812 0)
(-0.0625736 0.0322141 0)
(-0.0669118 0.0299464 0)
(-0.0708947 0.0273215 0)
(-0.0744815 0.0243826 0)
(-0.0776372 0.0211716 0)
(-0.0803316 0.0177296 0)
(-0.0825394 0.0140963 0)
(-0.0842399 0.0103105 0)
(-0.0854169 0.00641067 0)
(-0.0860583 0.00243468 0)
(-0.0861564 -0.00157919 0)
(-0.0857078 -0.00559205 0)
(-0.0847134 -0.00956386 0)
(-0.0831788 -0.0134531 0)
(-0.0811145 -0.0172163 0)
(-0.0785365 -0.0208083 0)
(-0.0754664 -0.0241815 0)
(-0.0719318 -0.0272867 0)
(-0.0679671 -0.0300732 0)
(-0.0636134 -0.0324894 0)
(-0.0589191 -0.0344838 0)
(-0.0539401 -0.0360057 0)
(-0.0487395 -0.0370072 0)
(-0.043388 -0.0374444 0)
(-0.037963 -0.0372795 0)
(-0.0325482 -0.0364825 0)
(-0.0272333 -0.0350338 0)
(-0.0221122 -0.0329262 0)
(-0.0172824 -0.0301674 0)
(-0.0128438 -0.0267819 0)
(-0.00889779 -0.0228134 0)
(-0.00554304 -0.0183265 0)
(-0.00287011 -0.0134071 0)
(-0.000999086 -0.00816254 0)
(-0.000141701 -0.00272747 0)
(-0.000158127 0.00334551 0)
(-0.00110034 0.00982659 0)
(-0.00314035 0.0159374 0)
(-0.00603403 0.0215571 0)
(-0.00964124 0.0265948 0)
(-0.0138579 0.0309817 0)
(-0.0185745 0.034671 0)
(-0.0236818 0.0376363 0)
(-0.0290752 0.0398691 0)
(-0.034655 0.0413759 0)
(-0.0403272 0.0421764 0)
(-0.0460038 0.0423001 0)
(-0.0516034 0.0417845 0)
(-0.0570514 0.0406727 0)
(-0.0622803 0.0390115 0)
(-0.0672295 0.0368499 0)
(-0.0718448 0.0342375 0)
(-0.0760788 0.031224 0)
(-0.0798899 0.027858 0)
(-0.0832422 0.024187 0)
(-0.0861053 0.020257 0)
(-0.0884535 0.0161125 0)
(-0.0902659 0.011797 0)
(-0.0915257 0.00735294 0)
(-0.0922205 0.00282265 0)
(-0.0923422 -0.00175141 0)
(-0.0918866 -0.00632599 0)
(-0.0908539 -0.0108566 0)
(-0.0892491 -0.0152968 0)
(-0.0870819 -0.0195981 0)
(-0.0843676 -0.0237095 0)
(-0.0811272 -0.0275777 0)
(-0.0773882 -0.0311468 0)
(-0.073185 -0.0343593 0)
(-0.0685594 -0.037156 0)
(-0.0635612 -0.0394779 0)
(-0.0582482 -0.0412666 0)
(-0.0526865 -0.0424663 0)
(-0.0469506 -0.0430254 0)
(-0.041123 -0.0428991 0)
(-0.0352938 -0.0420507 0)
(-0.0295598 -0.0404551 0)
(-0.0240235 -0.0381005 0)
(-0.0187919 -0.0349911 0)
(-0.0139757 -0.0311496 0)
(-0.00968721 -0.0266191 0)
(-0.00603678 -0.0214648 0)
(-0.00312579 -0.0157747 0)
(-0.00108746 -0.00965898 0)
(-0.000153903 -0.00325647 0)
(-0.000170854 0.00392735 0)
(-0.00119017 0.0114576 0)
(-0.00339737 0.0184992 0)
(-0.0065267 0.02493 0)
(-0.0104243 0.0306591 0)
(-0.0149751 0.0356196 0)
(-0.0200583 0.0397672 0)
(-0.0255542 0.0430794 0)
(-0.0313484 0.0455525 0)
(-0.0373327 0.047199 0)
(-0.0434056 0.0480447 0)
(-0.0494728 0.0481262 0)
(-0.055448 0.0474883 0)
(-0.0612526 0.0461813 0)
(-0.066816 0.0442595 0)
(-0.0720751 0.0417788 0)
(-0.0769744 0.0387958 0)
(-0.0814652 0.0353667 0)
(-0.0855054 0.0315462 0)
(-0.0890589 0.0273872 0)
(-0.0920948 0.022941 0)
(-0.0945874 0.0182569 0)
(-0.0965155 0.0133828 0)
(-0.0978624 0.00836544 0)
(-0.0986152 0.0032513 0)
(-0.0987651 -0.00191309 0)
(-0.0983073 -0.00708028 0)
(-0.0972413 -0.0122013 0)
(-0.0955708 -0.017225 0)
(-0.0933048 -0.0220978 0)
(-0.0904572 -0.026763 0)
(-0.0870484 -0.0311609 0)
(-0.0831052 -0.0352289 0)
(-0.0786616 -0.0389021 0)
(-0.0737599 -0.0421133 0)
(-0.0684507 -0.0447952 0)
(-0.0627937 -0.0468806 0)
(-0.0568579 -0.0483049 0)
(-0.0507217 -0.0490081 0)
(-0.0444729 -0.0489365 0)
(-0.0382082 -0.048046 0)
(-0.0320322 -0.0463044 0)
(-0.0260567 -0.0436943 0)
(-0.0203992 -0.0402154 0)
(-0.0151817 -0.0358877 0)
(-0.0105289 -0.030753 0)
(-0.00656359 -0.0248772 0)
(-0.00339884 -0.0183505 0)
(-0.00118199 -0.0112871 0)
(-0.000167009 -0.00383144 0)
(-0.000184502 0.0045561 0)
(-0.00128597 0.0132207 0)
(-0.00367083 0.0212676 0)
(-0.00705006 0.0285723 0)
(-0.011255 0.0350439 0)
(-0.0161589 0.0406168 0)
(-0.0216288 0.0452503 0)
(-0.0275336 0.0489266 0)
(-0.0337485 0.0516477 0)
(-0.0401562 0.0534333 0)
(-0.0466472 0.0543167 0)
(-0.053121 0.0543427 0)
(-0.0594857 0.0535645 0)
(-0.0656589 0.0520408 0)
(-0.0715667 0.0498341 0)
(-0.0771441 0.0470084 0)
(-0.0823342 0.0436278 0)
(-0.0870876 0.0397552 0)
(-0.0913618 0.0354518 0)
(-0.0951204 0.0307765 0)
(-0.098333 0.0257856 0)
(-0.100974 0.0205334 0)
(-0.103022 0.0150721 0)
(-0.10446 0.00945272 0)
(-0.105276 0.00372545 0)
(-0.105459 -0.00205918 0)
(-0.105005 -0.00784974 0)
(-0.103911 -0.013593 0)
(-0.10218 -0.0192332 0)
(-0.0998201 -0.0247116 0)
(-0.0968435 -0.0299658 0)
(-0.0932692 -0.0349298 0)
(-0.0891228 -0.0395337 0)
(-0.0844378 -0.0437046 0)
(-0.0792561 -0.0473671 0)
(-0.0736291 -0.0504443 0)
(-0.0676178 -0.0528596 0)
(-0.0612942 -0.0545385 0)
(-0.0547404 -0.0554106 0)
(-0.0480498 -0.0554129 0)
(-0.0413259 -0.0544918 0)
(-0.0346818 -0.052607 0)
(-0.0282394 -0.0497337 0)
(-0.0221274 -0.0458664 0)
(-0.0164805 -0.0410211 0)
(-0.0114368 -0.035238 0)
(-0.0071328 -0.0285833 0)
(-0.00369443 -0.02115 0)
(-0.00128462 -0.0130568 0)
(-0.000181339 -0.00445605 0)
(-0.00019932 0.00523521 0)
(-0.00138926 0.0151251 0)
(-0.00396473 0.0242566 0)
(-0.00761128 0.0325016 0)
(-0.0121441 0.0397688 0)
(-0.0174234 0.0459946 0)
(-0.0233034 0.0511422 0)
(-0.0296403 0.0551993 0)
(-0.0362984 0.0581753 0)
(-0.0431503 0.0600979 0)
(-0.0500786 0.0610097 0)
(-0.0569756 0.0609649 0)
(-0.0637443 0.0600263 0)
(-0.0702979 0.0582624 0)
(-0.0765599 0.0557449 0)
(-0.0824634 0.0525464 0)
(-0.0879504 0.0487394 0)
(-0.092971 0.0443944 0)
(-0.0974828 0.0395791 0)
(-0.10145 0.0343586 0)
(-0.104842 0.0287945 0)
(-0.107635 0.0229459 0)
(-0.109806 0.0168693 0)
(-0.11134 0.0106194 0)
(-0.112223 0.00425021 0)
(-0.112445 -0.00218413 0)
(-0.112 -0.0086285 0)
(-0.110885 -0.0150257 0)
(-0.109101 -0.0213156 0)
(-0.106654 -0.0274343 0)
(-0.103554 -0.0333139 0)
(-0.0998185 -0.0388816 0)
(-0.0954718 -0.0440604 0)
(-0.0905459 -0.0487688 0)
(-0.085082 -0.0529222 0)
(-0.0791314 -0.0564336 0)
(-0.0727566 -0.0592157 0)
(-0.0660316 -0.0611826 0)
(-0.0590426 -0.0622526 0)
(-0.0518885 -0.0623513 0)
(-0.0446798 -0.0614144 0)
(-0.0375389 -0.0593913 0)
(-0.0305984 -0.0562489 0)
(-0.0239995 -0.0519746 0)
(-0.0178906 -0.0465796 0)
(-0.0124248 -0.0401016 0)
(-0.00775365 -0.0326071 0)
(-0.00401772 -0.0241919 0)
(-0.0013973 -0.0149807 0)
(-0.000197206 -0.00513493 0)
(-0.000215547 0.00596893 0)
(-0.0015015 0.0171819 0)
(-0.00428294 0.0274825 0)
(-0.00821727 0.0367381 0)
(-0.0131016 0.0448569 0)
(-0.0187821 0.0517775 0)
(-0.0250985 0.0574676 0)
(-0.0318935 0.0619218 0)
(-0.0390191 0.065158 0)
(-0.0463377 0.0672137 0)
(-0.0537229 0.0681421 0)
(-0.06106 0.0680086 0)
(-0.0682464 0.0668869 0)
(-0.0751915 0.0648566 0)
(-0.0818161 0.0619998 0)
(-0.0880517 0.058399 0)
(-0.0938397 0.0541355 0)
(-0.0991303 0.0492877 0)
(-0.103882 0.0439309 0)
(-0.108059 0.038136 0)
(-0.111632 0.0319703 0)
(-0.114578 0.0254973 0)
(-0.116875 0.0187777 0)
(-0.118508 0.0118697 0)
(-0.119463 0.00483081 0)
(-0.11973 -0.00228185 0)
(-0.119301 -0.00940976 0)
(-0.118173 -0.0164921 0)
(-0.116344 -0.0234647 0)
(-0.113817 -0.0302588 0)
(-0.110602 -0.0368009 0)
(-0.106713 -0.0430116 0)
(-0.102172 -0.0488062 0)
(-0.0970083 -0.0540944 0)
(-0.0912625 -0.0587816 0)
(-0.0849852 -0.0627698 0)
(-0.0782393 -0.0659596 0)
(-0.0711008 -0.0682526 0)
(-0.0636597 -0.069554 0)
(-0.0560201 -0.069776 0)
(-0.0483002 -0.0688417 0)
(-0.0406319 -0.0666888 0)
(-0.0331594 -0.0632735 0)
(-0.0260375 -0.0585746 0)
(-0.0194299 -0.0525973 0)
(-0.0135063 -0.0453759 0)
(-0.00843531 -0.0369768 0)
(-0.00437381 -0.027499 0)
(-0.00152193 -0.0170738 0)
(-0.00021492 -0.00587374 0)
(-0.000233417 0.00676224 0)
(-0.00162413 0.0194042 0)
(-0.00462925 0.0309646 0)
(-0.00887472 0.0413057 0)
(-0.0141376 0.0503347 0)
(-0.0202479 0.057993 0)
(-0.0270296 0.0642538 0)
(-0.0343105 0.0691201 0)
(-0.0419295 0.0726198 0)
(-0.0497376 0.074802 0)
(-0.0575992 0.0757322 0)
(-0.0653923 0.0754886 0)
(-0.0730088 0.0741581 0)
(-0.0803543 0.0718323 0)
(-0.0873473 0.0686052 0)
(-0.0939182 0.0645701 0)
(-0.100008 0.0598181 0)
(-0.105569 0.0544364 0)
(-0.110558 0.0485076 0)
(-0.114944 0.0421091 0)
(-0.118697 0.0353136 0)
(-0.121796 0.0281891 0)
(-0.12422 0.0207999 0)
(-0.125955 0.0132076 0)
(-0.126986 0.00547239 0)
(-0.127303 -0.00234582 0)
(-0.126899 -0.0101858 0)
(-0.125765 -0.0179835 0)
(-0.123901 -0.0256711 0)
(-0.121307 -0.0331756 0)
(-0.117988 -0.0404178 0)
(-0.113956 -0.0473119 0)
(-0.109229 -0.0537651 0)
(-0.103835 -0.0596781 0)
(-0.0978116 -0.0649453 0)
(-0.0912079 -0.0694569 0)
(-0.0840867 -0.0731002 0)
(-0.0765255 -0.0757623 0)
(-0.0686172 -0.0773336 0)
(-0.0604714 -0.0777111 0)
(-0.0522139 -0.076803 0)
(-0.0439866 -0.0745326 0)
(-0.0359463 -0.0708437 0)
(-0.0282626 -0.0657046 0)
(-0.0211159 -0.0591125 0)
(-0.0146947 -0.0510974 0)
(-0.00918681 -0.0417248 0)
(-0.00476778 -0.0310973 0)
(-0.00166047 -0.0193536 0)
(-0.000234799 -0.00667912 0)
(-0.000253166 0.00762087 0)
(-0.00175857 0.0218068 0)
(-0.00500732 0.0347247 0)
(-0.00959011 0.0462307 0)
(-0.0152612 0.0562313 0)
(-0.0218327 0.0646711 0)
(-0.0291107 0.0715305 0)
(-0.0369068 0.0768219 0)
(-0.0450455 0.0805854 0)
(-0.0533657 0.0828837 0)
(-0.061722 0.083797 0)
(-0.0699849 0.0834183 0)
(-0.078041 0.0818491 0)
(-0.0857923 0.0791952 0)
(-0.0931555 0.0755638 0)
(-0.100061 0.0710601 0)
(-0.10645 0.065786 0)
(-0.112275 0.0598379 0)
(-0.117498 0.0533062 0)
(-0.122087 0.046275 0)
(-0.126016 0.0388223 0)
(-0.129264 0.0310203 0)
(-0.131814 0.0229366 0)
(-0.13365 0.0146357 0)
(-0.134761 0.00617972 0)
(-0.135135 -0.0023692 0)
(-0.134762 -0.0109477 0)
(-0.133635 -0.0194893 0)
(-0.131748 -0.0279232 0)
(-0.1291 -0.0361721 0)
(-0.125692 -0.0441519 0)
(-0.121531 -0.0517704 0)
(-0.116633 -0.0589267 0)
(-0.111021 -0.0655118 0)
(-0.10473 -0.0714088 0)
(-0.0978052 -0.0764947 0)
(-0.0903095 -0.0806422 0)
(-0.0823205 -0.0837223 0)
(-0.0739338 -0.0856083 0)
(-0.0652636 -0.0861797 0)
(-0.0564436 -0.085327 0)
(-0.0476261 -0.0829569 0)
(-0.038981 -0.078998 0)
(-0.0306944 -0.0734056 0)
(-0.0229654 -0.0661671 0)
(-0.016003 -0.0573064 0)
(-0.0100171 -0.0468877 0)
(-0.0052047 -0.0350167 0)
(-0.00181484 -0.0218404 0)
(-0.000257165 -0.0075587 0)
(-0.000275031 0.00855126 0)
(-0.00190622 0.0244065 0)
(-0.0054208 0.0387872 0)
(-0.0103697 0.0515425 0)
(-0.0164813 0.0625786 0)
(-0.0235475 0.0718443 0)
(-0.0313545 0.0793284 0)
(-0.0396957 0.0850551 0)
(-0.0483799 0.089079 0)
(-0.0572333 0.0914788 0)
(-0.0661 0.0923516 0)
(-0.074843 0.0918077 0)
(-0.0833437 0.0899655 0)
(-0.0915012 0.0869469 0)
(-0.0992312 0.0828737 0)
(-0.106464 0.0778645 0)
(-0.113143 0.0720327 0)
(-0.119223 0.0654847 0)
(-0.124668 0.0583191 0)
(-0.12945 0.0506268 0)
(-0.133545 0.0424907 0)
(-0.136936 0.0339871 0)
(-0.139607 0.0251865 0)
(-0.141544 0.0161551 0)
(-0.142736 0.00695687 0)
(-0.143171 -0.00234494 0)
(-0.142839 -0.0116856 0)
(-0.14173 -0.0209971 0)
(-0.139836 -0.030206 0)
(-0.137151 -0.039232 0)
(-0.133673 -0.0479861 0)
(-0.129405 -0.05637 0)
(-0.124356 -0.0642749 0)
(-0.118545 -0.0715817 0)
(-0.112001 -0.0781615 0)
(-0.104768 -0.0838772 0)
(-0.0969055 -0.088585 0)
(-0.0884899 -0.0921383 0)
(-0.0796187 -0.0943908 0)
(-0.0704105 -0.0952017 0)
(-0.0610063 -0.094441 0)
(-0.0515689 -0.0919957 0)
(-0.0422827 -0.0877759 0)
(-0.0333511 -0.0817209 0)
(-0.0249939 -0.073806 0)
(-0.0174436 -0.0640472 0)
(-0.010935 -0.0525057 0)
(-0.00568965 -0.0392902 0)
(-0.00198702 -0.0245567 0)
(-0.000282354 -0.00852115 0)
(-0.000299259 0.0095606 0)
(-0.00206851 0.0272218 0)
(-0.00587328 0.0431786 0)
(-0.0112196 0.0572728 0)
(-0.0178065 0.0694106 0)
(-0.0254026 0.0795463 0)
(-0.033772 0.0876791 0)
(-0.0426878 0.0938476 0)
(-0.0519418 0.0981233 0)
(-0.0613464 0.100604 0)
(-0.0707351 0.101407 0)
(-0.0799633 0.100662 0)
(-0.0889077 0.0985074 0)
(-0.0974652 0.0950828 0)
(-0.105551 0.0905265 0)
(-0.113097 0.084972 0)
(-0.12005 0.0785452 0)
(-0.126367 0.0713631 0)
(-0.132016 0.0635329 0)
(-0.136974 0.055152 0)
(-0.141221 0.0463084 0)
(-0.144742 0.0370818 0)
(-0.147525 0.0275447 0)
(-0.149559 0.0177649 0)
(-0.150832 0.00780681 0)
(-0.151333 -0.00226604 0)
(-0.151051 -0.0123886 0)
(-0.149974 -0.0224921 0)
(-0.14809 -0.0325017 0)
(-0.145391 -0.0423346 0)
(-0.141868 -0.051898 0)
(-0.137518 -0.0610875 0)
(-0.132345 -0.0697868 0)
(-0.126362 -0.0778665 0)
(-0.119591 -0.0851852 0)
(-0.112071 -0.0915904 0)
(-0.103857 -0.0969207 0)
(-0.0950245 -0.101009 0)
(-0.0856705 -0.103688 0)
(-0.0759171 -0.104792 0)
(-0.065912 -0.104169 0)
(-0.0558289 -0.101681 0)
(-0.0458669 -0.0972164 0)
(-0.0362484 -0.0906951 0)
(-0.027216 -0.0820769 0)
(-0.0190286 -0.0713671 0)
(-0.011949 -0.0586226 0)
(-0.0062277 -0.0439545 0)
(-0.00217903 -0.0275277 0)
(-0.000310713 -0.00957617 0)
(-0.000326106 0.0106568 0)
(-0.00224691 0.0302729 0)
(-0.00636841 0.0479279 0)
(-0.0121458 0.0634557 0)
(-0.0192446 0.0767632 0)
(-0.027407 0.087812 0)
(-0.0363721 0.096614 0)
(-0.0458906 0.103225 0)
(-0.0557359 0.107738 0)
(-0.0657053 0.110272 0)
(-0.0756217 0.110969 0)
(-0.0853331 0.10998 0)
(-0.0947121 0.107467 0)
(-0.103654 0.10359 0)
(-0.112076 0.0985056 0)
(-0.119912 0.0923631 0)
(-0.127112 0.0853023 0)
(-0.133639 0.0774514 0)
(-0.139467 0.0689265 0)
(-0.144576 0.0598315 0)
(-0.148953 0.050259 0)
(-0.152586 0.0402914 0)
(-0.155468 0.0300029 0)
(-0.157589 0.0194614 0)
(-0.15894 0.0087309 0)