/*--------------------------------*- C++ -*----------------------------------*\
  =========                 |
  \\      /  F ield         | OpenFOAM: The Open Source CFD Toolbox
   \\    /   O peration     | Website:  https://openfoam.org
    \\  /    A nd           | Version:  7
     \\/     M anipulation  |
\*---------------------------------------------------------------------------*/
FoamFile
{
    version     2.0;
    format      ascii;
    class       volScalarField;
    location    "0.0356";
    object      p;
}
// * * * * * * * * * * * * * * * * * * * * * * * * * * * * * * * * * * * * * //

dimensions      [0 2 -2 0 0 0 0];

internalField   nonuniform List<scalar> 
2500
(
-1.49328e-05
6.38513
9.04991
10.1458
10.7388
11.089
11.3039
11.4454
11.5447
11.618
11.6741
11.7186
11.7551
11.7859
11.8126
11.8366
11.8587
11.8795
11.8995
11.9191
11.9385
11.9579
11.9775
11.9975
12.018
12.039
12.0607
12.0833
12.1069
12.1316
12.1578
12.1857
12.2156
12.2482
12.2838
12.3235
12.3681
12.419
12.4781
12.548
12.6325
12.7373
12.8719
13.0526
13.3117
13.7129
14.373
15.5638
18.3447
24.854
4.86804
7.46777
8.88564
9.7695
10.3737
10.7808
11.0566
11.2495
11.389
11.493
11.5729
11.6358
11.6869
11.7294
11.7657
11.7976
11.8263
11.8526
11.8773
11.901
11.924
11.9466
11.9691
11.9917
12.0147
12.0382
12.0624
12.0875
12.1138
12.1415
12.1709
12.2025
12.2367
12.2743
12.3159
12.3627
12.4159
12.4776
12.5502
12.6372
12.7438
12.8776
13.0504
13.2806
13.5986
14.0547
14.7186
15.6751
17.1786
19.8959
7.70352
8.46727
9.21068
9.83457
10.3217
10.6846
10.9521
11.1512
11.3015
11.4171
11.5076
11.5801
11.6394
11.6889
11.7313
11.7684
11.8015
11.8318
11.8599
11.8865
11.9122
11.9372
11.9619
11.9866
12.0115
12.0369
12.0629
12.09
12.1183
12.1481
12.1799
12.2141
12.2513
12.2922
12.3377
12.389
12.4476
12.5155
12.5953
12.6908
12.807
12.9509
13.1328
13.367
13.6737
14.0807
14.6179
15.2959
16.0938
16.9224
9.1119
9.28932
9.66909
10.0709
10.4212
10.7076
10.9365
11.1176
11.2611
11.3756
11.4679
11.5435
11.6064
11.6596
11.7055
11.7459
11.782
11.815
11.8455
11.8744
11.9021
11.929
11.9554
11.9818
12.0082
12.0351
12.0627
12.0913
12.1211
12.1526
12.1861
12.2222
12.2614
12.3045
12.3525
12.4064
12.4678
12.5386
12.6211
12.7187
12.8356
12.977
13.1503
13.3639
13.6282
13.9529
14.3432
14.7853
15.2006
15.4088
9.92273
9.90289
10.0797
10.3242
10.5644
10.78
10.9654
11.1209
11.2499
11.3568
11.4458
11.5205
11.5839
11.6384
11.686
11.7282
11.7663
11.8011
11.8335
11.864
11.8933
11.9217
11.9496
11.9773
12.0051
12.0332
12.0621
12.0918
12.1229
12.1557
12.1905
12.228
12.2686
12.3131
12.3625
12.4177
12.4802
12.5515
12.6339
12.7297
12.842
12.9746
13.1315
13.3169
13.5337
13.7819
14.0541
14.3277
14.527
14.5196
10.4325
10.3482
10.418
10.5608
10.7208
10.8779
11.0225
11.1507
11.2619
11.3576
11.4398
11.5106
11.572
11.6258
11.6734
11.7161
11.755
11.7908
11.8242
11.8559
11.8863
11.9158
11.9448
11.9735
12.0023
12.0314
12.0612
12.092
12.124
12.1576
12.1934
12.2316
12.273
12.3182
12.368
12.4234
12.4854
12.5555
12.6352
12.7264
12.8309
12.951
13.0883
13.2438
13.4164
13.6008
13.786
13.9498
14.033
13.9503
10.7718
10.675
10.6915
10.7712
10.8748
10.9861
11.0958
11.1982
11.2911
11.3739
11.4473
11.5122
11.5698
11.6212
11.6675
11.7096
11.7483
11.7843
11.8182
11.8504
11.8814
11.9116
11.9412
11.9707
12.0002
12.03
12.0605
12.0919
12.1245
12.1587
12.1949
12.2335
12.2751
12.3203
12.3697
12.4241
12.4846
12.5519
12.6274
12.7121
12.807
12.913
13.0302
13.1575
13.2918
13.4261
13.5495
13.6441
13.6678
13.567
11.0122
10.9209
10.9114
10.9525
11.0174
11.0945
11.1758
11.2557
11.3314
11.4013
11.4652
11.5232
11.5759
11.6239
11.6679
11.7084
11.7462
11.7817
11.8153
11.8475
11.8787
11.9092
11.9392
11.969
11.9989
12.0291
12.06
12.0918
12.1247
12.1591
12.1954
12.234
12.2753
12.3199
12.3683
12.4211
12.479
12.5427
12.6129
12.6902
12.7748
12.8667
12.965
13.0675
13.1703
13.2666
13.347
13.3985
13.3922
13.294
11.1925
11.111
11.0891
11.1067
11.1455
11.1975
11.2565
11.3178
11.3782
11.4361
11.4906
11.5414
11.5887
11.6326
11.6736
11.712
11.7482
11.7826
11.8155
11.8473
11.8783
11.9086
11.9387
11.9686
11.9986
12.029
12.06
12.0919
12.1249
12.1592
12.1954
12.2335
12.2742
12.3177
12.3646
12.4152
12.4701
12.5296
12.5941
12.6636
12.7381
12.8167
12.8981
12.9797
13.0575
13.1254
13.1763
13.201
13.1796
13.0898
11.3338
11.2617
11.2343
11.2375
11.2588
11.2927
11.3346
11.3807
11.4281
11.4753
11.5211
11.5649
11.6066
11.6462
11.6838
11.7196
11.7538
11.7867
11.8186
11.8496
11.88
11.9099
11.9397
11.9695
11.9994
12.0297
12.0606
12.0924
12.1252
12.1593
12.1949
12.2324
12.2721
12.3143
12.3593
12.4074
12.4589
12.514
12.5726
12.6346
12.6994
12.7661
12.8329
12.8972
12.9554
13.0025
13.033
13.0409
13.0122
12.9314
11.4481
11.384
11.3544
11.3488
11.3583
11.3791
11.4081
11.4421
11.4788
11.5166
11.5545
11.5918
11.6282
11.6634
11.6975
11.7305
11.7625
11.7936
11.8241
11.854
11.8836
11.9129
11.9422
11.9716
12.0012
12.0313
12.0619
12.0933
12.1257
12.1593
12.1943
12.231
12.2695
12.3101
12.353
12.3984
12.4464
12.497
12.5499
12.6048
12.6608
12.7169
12.7713
12.8216
12.8645
12.8963
12.9128
12.9101
12.8781
12.8053
11.5427
11.485
11.4548
11.4439
11.4453
11.4569
11.476
11.5005
11.5285
11.5584
11.5894
11.6208
11.6522
11.6832
11.7138
11.7439
11.7735
11.8028
11.8317
11.8604
11.8889
11.9174
11.946
11.9749
12.004
12.0336
12.0638
12.0948
12.1266
12.1596
12.1938
12.2294
12.2666
12.3055
12.3462
12.3888
12.4333
12.4795
12.527
12.5753
12.6236
12.6705
12.7145
12.7534
12.7846
12.805
12.8118
12.8023
12.7692
12.7031
11.6223
11.5697
11.5397
11.5254
11.5215
11.5262
11.5381
11.5551
11.576
11.5994
11.6245
11.6507
11.6775
11.7046
11.7318
11.7591
11.7864
11.8136
11.8409
11.8682
11.8956
11.9232
11.951
11.9791
12.0076
12.0366
12.0663
12.0966
12.1279
12.16
12.1933
12.2278
12.2636
12.3007
12.3392
12.3791
12.4202
12.4622
12.5047
12.5471
12.5884
12.6275
12.6629
12.6927
12.7148
12.7268
12.7267
12.713
12.6797
12.6193
11.69
11.6414
11.612
11.5957
11.588
11.5879
11.5942
11.6055
11.6206
11.6386
11.6587
11.6804
11.7031
11.7267
11.7508
11.7754
11.8004
11.8257
11.8513
11.8771
11.9033
11.9298
11.9567
11.9841
12.0119
12.0402
12.0692
12.0989
12.1294
12.1608
12.193
12.2263
12.2606
12.296
12.3323
12.3695
12.4074
12.4455
12.4835
12.5206
12.5559
12.5884
12.6167
12.6392
12.6542
12.6599
12.6549
12.6385
12.6056
12.55
11.7479
11.7026
11.6738
11.6562
11.646
11.6423
11.6445
11.6513
11.6619
11.6755
11.6914
11.7092
11.7284
11.7488
11.7701
11.7922
11.815
11.8384
11.8623
11.8867
11.9117
11.9371
11.9631
11.9896
12.0166
12.0443
12.0725
12.1015
12.1312
12.1617
12.1929
12.225
12.2579
12.2915
12.3257
12.3604
12.3952
12.4299
12.4637
12.4962
12.5264
12.5532
12.5756
12.5923
12.6018
12.6028
12.5944
12.5762
12.5441
12.4924
11.7978
11.7549
11.7268
11.7085
11.6964
11.6902
11.6892
11.6926
11.6996
11.7096
11.722
11.7365
11.7527
11.7703
11.7891
11.8089
11.8297
11.8513
11.8736
11.8967
11.9204
11.9448
11.9698
11.9954
12.0216
12.0485
12.0761
12.1043
12.1332
12.1627
12.193
12.2239
12.2553
12.2873
12.3195
12.3519
12.384
12.4154
12.4457
12.474
12.4998
12.522
12.5395
12.5515
12.5567
12.5542
12.5433
12.5241
12.4928
12.4445
11.8405
11.7997
11.7722
11.7534
11.7401
11.732
11.7286
11.7293
11.7335
11.7406
11.7502
11.7619
11.7755
11.7907
11.8073
11.8251
11.844
11.8639
11.8848
11.9066
11.9291
11.9524
11.9765
12.0013
12.0267
12.0529
12.0797
12.1071
12.1352
12.1639
12.1932
12.2229
12.253
12.2834
12.3138
12.344
12.3737
12.4023
12.4294
12.4542
12.4762
12.4945
12.5081
12.5163
12.5182
12.513
12.5004
12.4805
12.4501
12.4046
11.8771
11.8379
11.811
11.7919
11.7777
11.7682
11.763
11.7616
11.7635
11.7683
11.7756
11.7851
11.7965
11.8096
11.8242
11.8403
11.8576
11.876
11.8956
11.9161
11.9376
11.9599
11.9831
12.007
12.0317
12.0571
12.0832
12.11
12.1373
12.1651
12.1934
12.2221
12.251
12.28
12.3087
12.337
12.3644
12.3906
12.4149
12.4368
12.4556
12.4706
12.4811
12.4863
12.4856
12.4783
12.4645
12.4442
12.4147
12.3716
11.908
11.8701
11.8437
11.8245
11.8096
11.7991
11.7926
11.7896
11.7898
11.7927
11.7981
11.8057
11.8153
11.8267
11.8397
11.8542
11.87
11.8872
11.9055
11.925
11.9455
11.9669
11.9893
12.0125
12.0365
12.0612
12.0866
12.1126
12.1392
12.1663
12.1938
12.2215
12.2492
12.2769
12.3042
12.3308
12.3563
12.3803
12.4023
12.4217
12.4379
12.4503
12.4581
12.461
12.4582
12.4494
12.4347
12.4142
12.3855
12.3444
11.9338
11.8969
11.8709
11.8516
11.8364
11.8251
11.8175
11.8133
11.8121
11.8136
11.8175
11.8236
11.8317
11.8417
11.8533
11.8665
11.8812
11.8972
11.9145
11.933
11.9527
11.9733
11.9949
12.0174
12.0408
12.0649
12.0897
12.1151
12.1411
12.1674
12.1941
12.221
12.2477
12.2743
12.3003
12.3254
12.3493
12.3715
12.3916
12.4089
12.4229
12.4331
12.439
12.4399
12.4356
12.4257
12.4103
12.3898
12.3617
12.3223
11.9548
11.9188
11.8931
11.8738
11.8582
11.8464
11.8381
11.833
11.8307
11.8311
11.8338
11.8387
11.8456
11.8544
11.8649
11.8771
11.8908
11.9059
11.9223
11.94
11.9589
11.9789
11.9998
12.0218
12.0446
12.0681
12.0924
12.1173
12.1427
12.1684
12.1945
12.2205
12.2465
12.2721
12.297
12.3209
12.3435
12.3642
12.3827
12.3983
12.4107
12.4192
12.4234
12.4229
12.4174
12.4066
12.3908
12.3703
12.3428
12.3048
11.9714
11.9359
11.9105
11.8912
11.8754
11.8632
11.8543
11.8485
11.8455
11.845
11.8469
11.8509
11.8569
11.8648
11.8744
11.8857
11.8986
11.913
11.9287
11.9458
11.964
11.9835
12.0039
12.0254
12.0477
12.0708
12.0946
12.1191
12.144
12.1693
12.1947
12.2202
12.2455
12.2703
12.2944
12.3173
12.3388
12.3584
12.3756
12.3899
12.4009
12.4081
12.4111
12.4095
12.4031
12.3918
12.3757
12.3552
12.3282
12.2913
11.9836
11.9486
11.9234
11.9041
11.8882
11.8757
11.8664
11.8602
11.8566
11.8555
11.8567
11.86
11.8654
11.8726
11.8816
11.8923
11.9046
11.9184
11.9336
11.9502
11.968
11.987
12.0071
12.0281
12.0501
12.0729
12.0964
12.1205
12.145
12.1699
12.195
12.22
12.2448
12.269
12.2924
12.3146
12.3353
12.354
12.3703
12.3837
12.3937
12.4
12.4021
12.3997
12.3927
12.3809
12.3646
12.3442
12.3176
12.2814
11.9917
11.957
11.9319
11.9126
11.8966
11.8839
11.8745
11.8679
11.864
11.8625
11.8633
11.8662
11.8711
11.8779
11.8865
11.8968
11.9087
11.9221
11.937
11.9532
11.9707
11.9894
12.0092
12.03
12.0517
12.0743
12.0976
12.1214
12.1457
12.1704
12.1951
12.2199
12.2443
12.2681
12.2911
12.3128
12.333
12.3511
12.3668
12.3796
12.389
12.3946
12.3961
12.3933
12.3858
12.3738
12.3573
12.337
12.3106
12.275
11.9958
11.9612
11.9361
11.9168
11.9008
11.8881
11.8785
11.8717
11.8676
11.866
11.8665
11.8692
11.8739
11.8805
11.8889
11.899
11.9107
11.9239
11.9386
11.9547
11.9721
11.9906
12.0103
12.031
12.0526
12.075
12.0982
12.1219
12.1461
12.1706
12.1952
12.2198
12.244
12.2677
12.2904
12.3119
12.3318
12.3497
12.365
12.3775
12.3866
12.3919
12.3932
12.3901
12.3825
12.3703
12.3538
12.3334
12.3072
12.2718
11.9958
11.9612
11.9361
11.9168
11.9008
11.8881
11.8785
11.8717
11.8676
11.866
11.8665
11.8692
11.8739
11.8805
11.8889
11.899
11.9107
11.9239
11.9386
11.9547
11.9721
11.9906
12.0103
12.031
12.0526
12.075
12.0982
12.1219
12.1461
12.1706
12.1952
12.2198
12.244
12.2677
12.2904
12.3119
12.3318
12.3497
12.365
12.3775
12.3866
12.3919
12.3932
12.3901
12.3825
12.3703
12.3538
12.3334
12.3072
12.2718
11.9917
11.957
11.9319
11.9126
11.8966
11.8839
11.8745
11.8679
11.864
11.8625
11.8633
11.8662
11.8711
11.8779
11.8865
11.8968
11.9087
11.9221
11.937
11.9532
11.9707
11.9894
12.0092
12.03
12.0517
12.0743
12.0976
12.1214
12.1457
12.1704
12.1951
12.2199
12.2443
12.2681
12.2911
12.3128
12.333
12.3511
12.3668
12.3796
12.389
12.3946
12.3961
12.3933
12.3858
12.3738
12.3573
12.337
12.3106
12.275
11.9836
11.9486
11.9234
11.9041
11.8882
11.8757
11.8664
11.8602
11.8566
11.8555
11.8567
11.86
11.8654
11.8726
11.8816
11.8923
11.9046
11.9184
11.9336
11.9502
11.968
11.987
12.0071
12.0281
12.0501
12.0729
12.0964
12.1205
12.145
12.1699
12.195
12.22
12.2448
12.269
12.2924
12.3146
12.3353
12.354
12.3703
12.3837
12.3937
12.4
12.4021
12.3997
12.3927
12.3809
12.3646
12.3442
12.3176
12.2814
11.9714
11.9359
11.9105
11.8912
11.8754
11.8632
11.8543
11.8485
11.8455
11.845
11.8469
11.8509
11.8569
11.8648
11.8744
11.8857
11.8986
11.913
11.9287
11.9458
11.964
11.9835
12.0039
12.0254
12.0477
12.0708
12.0946
12.1191
12.144
12.1693
12.1947
12.2202
12.2455
12.2703
12.2944
12.3173
12.3388
12.3584
12.3756
12.3899
12.4009
12.4081
12.4111
12.4095
12.4031
12.3918
12.3757
12.3552
12.3282
12.2913
11.9548
11.9188
11.8931
11.8738
11.8582
11.8464
11.8381
11.833
11.8307
11.8311
11.8338
11.8387
11.8456
11.8544
11.8649
11.8771
11.8908
11.9059
11.9223
11.94
11.9589
11.9789
11.9998
12.0218
12.0446
12.0681
12.0924
12.1173
12.1427
12.1684
12.1945
12.2205
12.2465
12.2721
12.297
12.3209
12.3435
12.3642
12.3827
12.3983
12.4107
12.4192
12.4234
12.4229
12.4174
12.4066
12.3908
12.3703
12.3428
12.3048
11.9338
11.8969
11.8709
11.8516
11.8364
11.8251
11.8175
11.8133
11.8121
11.8136
11.8175
11.8236
11.8317
11.8417
11.8533
11.8665
11.8812
11.8972
11.9145
11.933
11.9527
11.9733
11.9949
12.0174
12.0408
12.0649
12.0897
12.1151
12.1411
12.1674
12.1941
12.221
12.2477
12.2743
12.3003
12.3254
12.3493
12.3715
12.3916
12.4089
12.4229
12.4331
12.439
12.4399
12.4356
12.4257
12.4103
12.3898
12.3617
12.3223
11.908
11.8701
11.8437
11.8245
11.8096
11.7991
11.7926
11.7896
11.7898
11.7927
11.7981
11.8057
11.8153
11.8267
11.8397
11.8542
11.87
11.8872
11.9056
11.925
11.9455
11.9669
11.9893
12.0125
12.0365
12.0612
12.0866
12.1126
12.1392
12.1663
12.1938
12.2215
12.2492
12.2769
12.3042
12.3308
12.3563
12.3803
12.4023
12.4217
12.4379
12.4503
12.4581
12.461
12.4582
12.4494
12.4347
12.4142
12.3855
12.3444
11.8771
11.8379
11.811
11.7919
11.7777
11.7682
11.763
11.7616
11.7635
11.7683
11.7756
11.7851
11.7965
11.8096
11.8242
11.8403
11.8576
11.876
11.8956
11.9161
11.9376
11.9599
11.9831
12.007
12.0317
12.0571
12.0832
12.11
12.1373
12.1651
12.1934
12.2221
12.251
12.28
12.3087
12.337
12.3644
12.3906
12.4149
12.4368
12.4556
12.4706
12.4811
12.4863
12.4856
12.4783
12.4645
12.4442
12.4147
12.3716
11.8405
11.7997
11.7722
11.7534
11.7401
11.732
11.7286
11.7293
11.7335
11.7406
11.7502
11.7619
11.7755
11.7907
11.8073
11.8251
11.844
11.8639
11.8848
11.9066
11.9291
11.9524
11.9765
12.0013
12.0267
12.0529
12.0797
12.1071
12.1352
12.1639
12.1932
12.2229
12.253
12.2834
12.3138
12.344
12.3737
12.4023
12.4294
12.4542
12.4762
12.4945
12.5081
12.5163
12.5182
12.513
12.5004
12.4805
12.4501
12.4046
11.7978
11.7549
11.7268
11.7085
11.6964
11.6902
11.6892
11.6926
11.6996
11.7096
11.722
11.7365
11.7527
11.7703
11.7891
11.8089
11.8297
11.8513
11.8736
11.8967
11.9204
11.9448
11.9698
11.9954
12.0216
12.0485
12.0761
12.1043
12.1332
12.1627
12.193
12.2239
12.2553
12.2873
12.3195
12.3519
12.384
12.4154
12.4457
12.474
12.4998
12.522
12.5395
12.5515
12.5567
12.5542
12.5433
12.5241
12.4928
12.4445
11.7479
11.7026
11.6738
11.6563
11.646
11.6423
11.6445
11.6513
11.6619
11.6755
11.6914
11.7092
11.7284
11.7488
11.7701
11.7922
11.815
11.8384
11.8623
11.8867
11.9117
11.9371
11.9631
11.9896
12.0166
12.0443
12.0725
12.1015
12.1312
12.1617
12.1929
12.225
12.2579
12.2915
12.3257
12.3604
12.3953
12.4299
12.4637
12.4962
12.5264
12.5532
12.5756
12.5923
12.6018
12.6028
12.5944
12.5762
12.5441
12.4924
11.69
11.6414
11.612
11.5957
11.588
11.5879
11.5942
11.6055
11.6206
11.6386
11.6587
11.6804
11.7031
11.7267
11.7508
11.7754
11.8004
11.8257
11.8513
11.8771
11.9033
11.9298
11.9567
11.9841
12.0119
12.0402
12.0692
12.0989
12.1294
12.1608
12.193
12.2263
12.2606
12.296
12.3323
12.3695
12.4074
12.4455
12.4835
12.5206
12.5559
12.5884
12.6167
12.6392
12.6542
12.6599
12.6549
12.6385
12.6056
12.55
11.6223
11.5697
11.5397
11.5255
11.5215
11.5262
11.5381
11.5552
11.576
11.5994
11.6245
11.6507
11.6775
11.7046
11.7318
11.7591
11.7864
11.8136
11.8409
11.8682
11.8956
11.9232
11.951
11.9791
12.0076
12.0366
12.0663
12.0966
12.1279
12.16
12.1933
12.2278
12.2636
12.3007
12.3392
12.3791
12.4202
12.4622
12.5047
12.5471
12.5884
12.6275
12.6629
12.6927
12.7148
12.7268
12.7267
12.713
12.6797
12.6193
11.5427
11.485
11.4548
11.4439
11.4454
11.4569
11.476
11.5005
11.5285
11.5584
11.5895
11.6209
11.6522
11.6832
11.7138
11.7439
11.7735
11.8028
11.8317
11.8604
11.8889
11.9174
11.946
11.9749
12.004
12.0336
12.0638
12.0948
12.1266
12.1596
12.1938
12.2294
12.2666
12.3055
12.3462
12.3888
12.4333
12.4795
12.527
12.5753
12.6236
12.6705
12.7145
12.7534
12.7846
12.805
12.8118
12.8023
12.7692
12.7031
11.4481
11.384
11.3544
11.3488
11.3583
11.3791
11.4081
11.4421
11.4788
11.5166
11.5546
11.5919
11.6282
11.6634
11.6975
11.7305
11.7625
11.7936
11.8241
11.854
11.8836
11.913
11.9422
11.9716
12.0012
12.0313
12.0619
12.0933
12.1257
12.1593
12.1943
12.231
12.2695
12.3101
12.353
12.3984
12.4464
12.497
12.5499
12.6048
12.6608
12.7169
12.7713
12.8216
12.8645
12.8963
12.9128
12.9101
12.8781
12.8053
11.3338
11.2617
11.2343
11.2375
11.2588
11.2927
11.3346
11.3807
11.4281
11.4753
11.5211
11.5649
11.6066
11.6462
11.6838
11.7196
11.7538
11.7867
11.8186
11.8496
11.88
11.9099
11.9397
11.9695
11.9994
12.0297
12.0606
12.0924
12.1252
12.1593
12.1949
12.2324
12.2721
12.3143
12.3593
12.4074
12.4589
12.514
12.5726
12.6346
12.6994
12.7661
12.8329
12.8972
12.9554
13.0025
13.033
13.0409
13.0122
12.9314
11.1926
11.111
11.0891
11.1067
11.1455
11.1975
11.2565
11.3178
11.3782
11.4361
11.4906
11.5415
11.5887
11.6326
11.6736
11.712
11.7482
11.7826
11.8155
11.8473
11.8783
11.9086
11.9387
11.9686
11.9986
12.029
12.06
12.0919
12.1249
12.1592
12.1954
12.2336
12.2742
12.3177
12.3646
12.4152
12.4701
12.5296
12.5941
12.6636
12.7381
12.8167
12.8981
12.9797
13.0575
13.1254
13.1763
13.201
13.1796
13.0898
11.0122
10.9209
10.9114
10.9525
11.0174
11.0945
11.1758
11.2557
11.3314
11.4013
11.4652
11.5232
11.5759
11.6239
11.6679
11.7084
11.7462
11.7817
11.8153
11.8476
11.8787
11.9092
11.9392
11.969
11.9989
12.0292
12.06
12.0918
12.1247
12.1591
12.1954
12.234
12.2753
12.3199
12.3683
12.4211
12.479
12.5427
12.6129
12.6902
12.7748
12.8667
12.965
13.0675
13.1703
13.2666
13.347
13.3985
13.3922
13.294
10.7718
10.675
10.6915
10.7712
10.8748
10.9861
11.0958
11.1982
11.2911
11.3739
11.4473
11.5122
11.5698
11.6213
11.6675
11.7096
11.7483
11.7843
11.8182
11.8504
11.8814
11.9116
11.9412
11.9707
12.0002
12.03
12.0605
12.0919
12.1245
12.1587
12.1949
12.2335
12.2751
12.3203
12.3697
12.4241
12.4846
12.5519
12.6274
12.7121
12.807
12.913
13.0302
13.1575
13.2918
13.4261
13.5495
13.6441
13.6678
13.567
10.4325
10.3482
10.418
10.5609
10.7208
10.8779
11.0225
11.1507
11.262
11.3577
11.4398
11.5106
11.572
11.6258
11.6734
11.7161
11.755
11.7908
11.8242
11.8559
11.8863
11.9158
11.9448
11.9735
12.0023
12.0314
12.0612
12.092
12.124
12.1576
12.1934
12.2316
12.273
12.3182
12.368
12.4234
12.4854
12.5555
12.6352
12.7264
12.8309
12.951
13.0883
13.2438
13.4164
13.6008
13.786
13.9498
14.033
13.9503
9.92275
9.90291
10.0797
10.3242
10.5644
10.78
10.9654
11.1209
11.2499
11.3569
11.4459
11.5205
11.5839
11.6384
11.686
11.7282
11.7663
11.8011
11.8335
11.8641
11.8933
11.9217
11.9496
11.9773
12.0051
12.0332
12.0621
12.0919
12.1229
12.1557
12.1905
12.228
12.2686
12.3131
12.3625
12.4177
12.4802
12.5516
12.6339
12.7297
12.842
12.9746
13.1315
13.3169
13.5337
13.7819
14.0541
14.3277
14.527
14.5196
9.11193
9.28934
9.66911
10.0709
10.4212
10.7076
10.9365
11.1176
11.2611
11.3756
11.4679
11.5435
11.6064
11.6596
11.7055
11.7459
11.782
11.815
11.8456
11.8744
11.9021
11.929
11.9554
11.9818
12.0082
12.0351
12.0627
12.0913
12.1211
12.1526
12.1861
12.2222
12.2614
12.3045
12.3525
12.4064
12.4678
12.5386
12.6211
12.7187
12.8356
12.9771
13.1503
13.3639
13.6282
13.9529
14.3432
14.7853
15.2006
15.4088
7.70355
8.46729
9.2107
9.83459
10.3217
10.6846
10.9522
11.1512
11.3016
11.4171
11.5076
11.5801
11.6394
11.6889
11.7313
11.7684
11.8016
11.8318
11.8599
11.8866
11.9122
11.9372
11.9619
11.9866
12.0115
12.0369
12.063
12.09
12.1183
12.1481
12.1799
12.2141
12.2513
12.2922
12.3377
12.389
12.4476
12.5155
12.5954
12.6908
12.807
12.9509
13.1329
13.367
13.6737
14.0807
14.6179
15.2959
16.0938
16.9224
4.86807
7.4678
8.88567
9.76952
10.3737
10.7808
11.0566
11.2495
11.389
11.493
11.5729
11.6358
11.6869
11.7294
11.7658
11.7976
11.8263
11.8526
11.8774
11.901
11.924
11.9466
11.9691
11.9917
12.0147
12.0382
12.0624
12.0875
12.1138
12.1415
12.1709
12.2025
12.2367
12.2743
12.3159
12.3627
12.4159
12.4776
12.5502
12.6372
12.7438
12.8777
13.0504
13.2806
13.5986
14.0547
14.7186
15.6751
17.1786
19.8959
1.89156e-05
6.38516
9.04994
10.1458
10.7389
11.089
11.304
11.4454
11.5447
11.618
11.6741
11.7186
11.7551
11.7859
11.8126
11.8366
11.8587
11.8795
11.8995
11.9191
11.9385
11.9579
11.9775
11.9975
12.018
12.039
12.0607
12.0833
12.1069
12.1316
12.1578
12.1857
12.2156
12.2482
12.2838
12.3235
12.3681
12.419
12.4781
12.548
12.6325
12.7373
12.8719
13.0526
13.3117
13.7129
14.373
15.5638
18.3447
24.854
)
;

boundaryField
{
    movingWallTop
    {
        type            zeroGradient;
    }
    movingWallBottom
    {
        type            zeroGradient;
    }
    fixedWalls
    {
        type            zeroGradient;
    }
    frontAndBack
    {
        type            empty;
    }
}


// ************************************************************************* //
