/*--------------------------------*- C++ -*----------------------------------*\
  =========                 |
  \\      /  F ield         | OpenFOAM: The Open Source CFD Toolbox
   \\    /   O peration     | Website:  https://openfoam.org
    \\  /    A nd           | Version:  7
     \\/     M anipulation  |
\*---------------------------------------------------------------------------*/
FoamFile
{
    version     2.0;
    format      ascii;
    class       volScalarField;
    location    "0.01";
    object      p;
}
// * * * * * * * * * * * * * * * * * * * * * * * * * * * * * * * * * * * * * //

dimensions      [0 2 -2 0 0 0 0];

internalField   nonuniform List<scalar> 
2500
(
-2.68594e-05
-6.50684
-9.28343
-10.4685
-11.1223
-11.517
-11.7696
-11.9441
-12.0728
-12.1723
-12.252
-12.3176
-12.373
-12.4208
-12.4626
-12.5
-12.5337
-12.5646
-12.5932
-12.6199
-12.6451
-12.6692
-12.6922
-12.7146
-12.7364
-12.7579
-12.7791
-12.8004
-12.8218
-12.8436
-12.8658
-12.8887
-12.9125
-12.9376
-12.9641
-12.9928
-13.0242
-13.0594
-13.0999
-13.1476
-13.206
-13.2804
-13.3795
-13.5192
-13.7309
-14.0766
-14.6644
-15.755
-18.4156
-24.7987
-4.96057
-7.67538
-9.17553
-10.1277
-10.7867
-11.2373
-11.5496
-11.774
-11.9411
-12.0695
-12.1711
-12.2534
-12.3218
-12.3796
-12.4295
-12.4732
-12.5122
-12.5474
-12.5796
-12.6094
-12.6373
-12.6637
-12.689
-12.7135
-12.7373
-12.7608
-12.7841
-12.8076
-12.8314
-12.8557
-12.8809
-12.9072
-12.9351
-12.9649
-12.9973
-13.0331
-13.0734
-13.1197
-13.1742
-13.24
-13.322
-13.4273
-13.567
-13.7589
-14.0325
-14.4365
-15.0368
-15.9167
-17.3312
-19.9291
-7.93829
-8.76348
-9.5581
-10.2325
-10.7655
-11.1677
-11.4693
-11.698
-11.8744
-12.013
-12.1239
-12.2144
-12.2895
-12.3531
-12.4078
-12.4555
-12.4978
-12.5358
-12.5704
-12.6023
-12.6321
-12.6602
-12.6871
-12.713
-12.7383
-12.7633
-12.7882
-12.8132
-12.8387
-12.865
-12.8923
-12.9211
-12.9518
-12.985
-13.0213
-13.0618
-13.1077
-13.1607
-13.2231
-13.2984
-13.3911
-13.508
-13.6588
-13.8574
-14.1234
-14.4838
-14.9677
-15.5881
-16.3283
-17.0894
-9.45626
-9.66011
-10.0718
-10.5105
-10.8972
-11.2177
-11.4772
-11.6858
-11.8537
-11.9898
-12.1012
-12.1936
-12.2712
-12.3372
-12.3943
-12.4442
-12.4884
-12.5281
-12.5643
-12.5976
-12.6287
-12.658
-12.686
-12.713
-12.7394
-12.7654
-12.7915
-12.8177
-12.8445
-12.8722
-12.9011
-12.9317
-12.9644
-12.9998
-13.0387
-13.0821
-13.1311
-13.1875
-13.2534
-13.3317
-13.4262
-13.5422
-13.6865
-13.8674
-14.0951
-14.3796
-14.7267
-15.1254
-15.5017
-15.6756
-10.3494
-10.3367
-10.5322
-10.8026
-11.0714
-11.3156
-11.5282
-11.7088
-11.8607
-11.9879
-12.0949
-12.1853
-12.2624
-12.3287
-12.3864
-12.4372
-12.4824
-12.5231
-12.5603
-12.5945
-12.6264
-12.6566
-12.6853
-12.7132
-12.7403
-12.7672
-12.7941
-12.8212
-12.849
-12.8777
-12.9077
-12.9395
-12.9735
-13.0104
-13.0508
-13.0957
-13.1461
-13.2036
-13.2698
-13.3471
-13.4384
-13.547
-13.677
-13.8326
-14.0171
-14.231
-14.4687
-14.7103
-14.8836
-14.8593
-10.9216
-10.8333
-10.9125
-11.0731
-11.2551
-11.436
-11.6046
-11.7557
-11.8881
-12.003
-12.1021
-12.1878
-12.2621
-12.327
-12.3839
-12.4345
-12.4797
-12.5207
-12.5581
-12.5927
-12.6251
-12.6557
-12.685
-12.7133
-12.7409
-12.7683
-12.7957
-12.8234
-12.8518
-12.8811
-12.9117
-12.9442
-12.9788
-13.0162
-13.0571
-13.1021
-13.1523
-13.2088
-13.2729
-13.3463
-13.4308
-13.5283
-13.6408
-13.7694
-13.9136
-14.0695
-14.2275
-14.3679
-14.4343
-14.345
-11.3065
-11.2004
-11.2204
-11.3121
-11.4325
-11.5635
-11.694
-11.8172
-11.9296
-12.0305
-12.1201
-12.1992
-12.2692
-12.3311
-12.3861
-12.4355
-12.48
-12.5205
-12.5577
-12.5923
-12.6246
-12.6553
-12.6847
-12.7132
-12.741
-12.7686
-12.7962
-12.8241
-12.8526
-12.8821
-12.9129
-12.9454
-12.98
-13.0172
-13.0575
-13.1016
-13.1502
-13.2041
-13.2644
-13.3319
-13.4077
-13.4926
-13.587
-13.6903
-13.8001
-13.9109
-14.0132
-14.091
-14.1045
-14.0029
-11.5797
-11.4773
-11.4679
-11.517
-11.5948
-11.688
-11.7873
-11.8859
-11.9796
-12.0664
-12.1457
-12.2174
-12.2819
-12.3399
-12.3922
-12.4396
-12.4827
-12.5222
-12.5588
-12.5928
-12.6248
-12.6553
-12.6845
-12.7128
-12.7405
-12.7679
-12.7954
-12.8232
-12.8516
-12.8808
-12.9113
-12.9433
-12.9772
-13.0135
-13.0525
-13.0948
-13.1408
-13.1912
-13.2465
-13.3072
-13.3736
-13.4459
-13.5235
-13.605
-13.6871
-13.7644
-13.8289
-13.8688
-13.857
-13.7615
-11.7832
-11.6907
-11.6674
-11.6903
-11.7391
-11.8045
-11.879
-11.9568
-12.0338
-12.1074
-12.1765
-12.2404
-12.299
-12.3526
-12.4016
-12.4464
-12.4876
-12.5257
-12.5611
-12.5943
-12.6256
-12.6554
-12.6841
-12.712
-12.7393
-12.7664
-12.7934
-12.8207
-12.8486
-12.8772
-12.907
-12.9381
-12.9709
-13.0057
-13.0428
-13.0827
-13.1255
-13.1717
-13.2216
-13.2752
-13.3326
-13.3932
-13.4561
-13.5195
-13.5801
-13.6333
-13.6725
-13.6899
-13.6668
-13.5822
-11.94
-11.8586
-11.8294
-11.8365
-11.8657
-11.9108
-11.9662
-12.027
-12.0894
-12.1512
-12.2106
-12.2668
-12.3193
-12.3682
-12.4135
-12.4554
-12.4943
-12.5306
-12.5645
-12.5965
-12.6268
-12.6558
-12.6837
-12.7109
-12.7375
-12.7639
-12.7903
-12.8168
-12.8439
-12.8716
-12.9003
-12.9301
-12.9614
-12.9944
-13.0292
-13.0663
-13.1056
-13.1474
-13.1918
-13.2386
-13.2875
-13.3378
-13.3884
-13.4373
-13.4817
-13.5176
-13.5403
-13.5444
-13.517
-13.4437
-12.0642
-11.9931
-11.9623
-11.9601
-11.9763
-12.0068
-12.0475
-12.0945
-12.1448
-12.196
-12.2466
-12.2955
-12.3421
-12.3861
-12.4275
-12.4663
-12.5027
-12.5368
-12.569
-12.5995
-12.6285
-12.6564
-12.6833
-12.7095
-12.7352
-12.7607
-12.7861
-12.8117
-12.8377
-12.8642
-12.8916
-12.9199
-12.9494
-12.9802
-13.0126
-13.0466
-13.0823
-13.1198
-13.1589
-13.1994
-13.2407
-13.2822
-13.3226
-13.3602
-13.3924
-13.4163
-13.4283
-13.4248
-13.3967
-13.3335
-12.1645
-12.1028
-12.0726
-12.0651
-12.0727
-12.0928
-12.1223
-12.1585
-12.1986
-12.2408
-12.2834
-12.3256
-12.3665
-12.4058
-12.4432
-12.4787
-12.5123
-12.5442
-12.5744
-12.6032
-12.6307
-12.6572
-12.6829
-12.7079
-12.7325
-12.7569
-12.7811
-12.8055
-12.8302
-12.8554
-12.8812
-12.9078
-12.9353
-12.9639
-12.9936
-13.0246
-13.0567
-13.09
-13.1242
-13.159
-13.1939
-13.2279
-13.2601
-13.2889
-13.3122
-13.3277
-13.3328
-13.3252
-13.2982
-13.244
-12.2468
-12.1935
-12.1652
-12.1549
-12.157
-12.1696
-12.1908
-12.2184
-12.2502
-12.2847
-12.3204
-12.3565
-12.3921
-12.4268
-12.4603
-12.4925
-12.5232
-12.5526
-12.5807
-12.6075
-12.6334
-12.6584
-12.6826
-12.7063
-12.7296
-12.7526
-12.7756
-12.7986
-12.8218
-12.8455
-12.8696
-12.8943
-12.9197
-12.946
-12.9731
-13.001
-13.0297
-13.0591
-13.0889
-13.1187
-13.1479
-13.1759
-13.2015
-13.2235
-13.2403
-13.25
-13.2508
-13.2412
-13.2163
-13.1698
-12.3154
-12.2696
-12.2437
-12.2323
-12.2308
-12.2383
-12.2534
-12.2742
-12.2993
-12.3273
-12.3571
-12.3876
-12.4184
-12.4488
-12.4785
-12.5073
-12.5351
-12.5619
-12.5877
-12.6126
-12.6366
-12.6599
-12.6826
-12.7047
-12.7265
-12.7481
-12.7696
-12.7911
-12.8128
-12.8347
-12.857
-12.8798
-12.9031
-12.927
-12.9515
-12.9766
-13.002
-13.0278
-13.0536
-13.079
-13.1036
-13.1265
-13.1469
-13.1638
-13.1758
-13.1815
-13.1798
-13.1696
-13.147
-13.1072
-12.3735
-12.3342
-12.3111
-12.2995
-12.296
-12.3
-12.3104
-12.3261
-12.3458
-12.3684
-12.3929
-12.4187
-12.4449
-12.4713
-12.4974
-12.523
-12.5479
-12.5721
-12.5956
-12.6183
-12.6404
-12.6619
-12.6828
-12.7033
-12.7235
-12.7435
-12.7634
-12.7833
-12.8033
-12.8234
-12.8439
-12.8647
-12.8859
-12.9075
-12.9294
-12.9517
-12.9742
-12.9967
-13.019
-13.0406
-13.0611
-13.0799
-13.0963
-13.1092
-13.1178
-13.1209
-13.1177
-13.1076
-13.0876
-13.0537
-12.4233
-12.39
-12.3696
-12.3585
-12.3539
-12.3555
-12.3626
-12.3743
-12.3896
-12.4077
-12.4278
-12.4493
-12.4716
-12.4942
-12.5169
-12.5394
-12.5615
-12.5831
-12.6042
-12.6247
-12.6448
-12.6643
-12.6834
-12.7022
-12.7206
-12.7389
-12.7571
-12.7753
-12.7935
-12.8119
-12.8304
-12.8492
-12.8683
-12.8876
-12.9071
-12.9268
-12.9465
-12.9661
-12.9852
-13.0036
-13.0208
-13.0362
-13.0493
-13.0593
-13.0654
-13.0668
-13.0629
-13.0534
-13.0359
-13.0072
-12.4668
-12.4387
-12.421
-12.4107
-12.4057
-12.4057
-12.4104
-12.419
-12.4309
-12.4453
-12.4616
-12.4794
-12.4981
-12.5174
-12.5368
-12.5563
-12.5757
-12.5947
-12.6134
-12.6317
-12.6497
-12.6672
-12.6844
-12.7013
-12.718
-12.7345
-12.751
-12.7673
-12.7838
-12.8003
-12.8169
-12.8336
-12.8506
-12.8677
-12.8849
-12.9021
-12.9193
-12.9362
-12.9525
-12.9681
-12.9824
-12.9951
-13.0056
-13.0134
-13.0177
-13.0181
-13.014
-13.0054
-12.9903
-12.9662
-12.5053
-12.4818
-12.4667
-12.4575
-12.4525
-12.4516
-12.4545
-12.4608
-12.4698
-12.4812
-12.4943
-12.5089
-12.5244
-12.5405
-12.557
-12.5737
-12.5904
-12.6069
-12.6233
-12.6393
-12.6551
-12.6706
-12.6859
-12.7009
-12.7157
-12.7304
-12.745
-12.7595
-12.7741
-12.7887
-12.8033
-12.8181
-12.833
-12.8479
-12.8629
-12.8779
-12.8926
-12.9071
-12.921
-12.9341
-12.946
-12.9565
-12.9649
-12.9709
-12.974
-12.9738
-12.9699
-12.9622
-12.9494
-12.9294
-12.54
-12.5206
-12.5078
-12.4998
-12.4951
-12.4937
-12.4954
-12.4998
-12.5067
-12.5155
-12.5259
-12.5376
-12.5503
-12.5636
-12.5774
-12.5914
-12.6055
-12.6196
-12.6336
-12.6474
-12.6611
-12.6745
-12.6878
-12.7009
-12.7138
-12.7266
-12.7393
-12.7519
-12.7646
-12.7773
-12.79
-12.8028
-12.8156
-12.8285
-12.8413
-12.8541
-12.8666
-12.8789
-12.8906
-12.9015
-12.9114
-12.9199
-12.9267
-12.9314
-12.9337
-12.9331
-12.9296
-12.923
-12.9124
-12.8959
-12.5717
-12.556
-12.5454
-12.5386
-12.5344
-12.5327
-12.5336
-12.5367
-12.5417
-12.5484
-12.5565
-12.5657
-12.5758
-12.5866
-12.5978
-12.6093
-12.621
-12.6327
-12.6444
-12.6561
-12.6676
-12.6789
-12.6902
-12.7013
-12.7122
-12.7231
-12.7339
-12.7447
-12.7554
-12.7661
-12.7769
-12.7877
-12.7985
-12.8093
-12.8201
-12.8308
-12.8413
-12.8515
-12.8612
-12.8702
-12.8783
-12.8852
-12.8907
-12.8944
-12.896
-12.8954
-12.8924
-12.8869
-12.8783
-12.865
-12.6012
-12.5887
-12.5802
-12.5746
-12.571
-12.5693
-12.5696
-12.5716
-12.5752
-12.5801
-12.5862
-12.5932
-12.601
-12.6094
-12.6183
-12.6274
-12.6368
-12.6462
-12.6557
-12.6651
-12.6745
-12.6838
-12.693
-12.7021
-12.7111
-12.72
-12.7289
-12.7377
-12.7465
-12.7553
-12.7641
-12.7729
-12.7818
-12.7906
-12.7994
-12.8081
-12.8166
-12.8249
-12.8327
-12.84
-12.8465
-12.852
-12.8564
-12.8593
-12.8606
-12.86
-12.8576
-12.8532
-12.8464
-12.8361
-12.629
-12.6194
-12.6129
-12.6084
-12.6054
-12.6039
-12.6038
-12.605
-12.6074
-12.6108
-12.6151
-12.6202
-12.6259
-12.6321
-12.6388
-12.6457
-12.6528
-12.66
-12.6673
-12.6746
-12.6819
-12.6891
-12.6963
-12.7034
-12.7104
-12.7174
-12.7243
-12.7311
-12.738
-12.7448
-12.7516
-12.7585
-12.7654
-12.7722
-12.7791
-12.7858
-12.7925
-12.7989
-12.805
-12.8107
-12.8158
-12.8201
-12.8235
-12.8258
-12.8268
-12.8264
-12.8246
-12.8214
-12.8163
-12.8087
-12.6555
-12.6487
-12.644
-12.6406
-12.6383
-12.637
-12.6366
-12.6372
-12.6385
-12.6406
-12.6434
-12.6467
-12.6505
-12.6548
-12.6593
-12.6641
-12.6691
-12.6741
-12.6793
-12.6845
-12.6897
-12.6949
-12.7
-12.7051
-12.7101
-12.7151
-12.72
-12.7249
-12.7298
-12.7347
-12.7395
-12.7444
-12.7493
-12.7542
-12.7591
-12.764
-12.7688
-12.7735
-12.778
-12.7821
-12.7859
-12.7891
-12.7917
-12.7934
-12.7943
-12.7942
-12.793
-12.7909
-12.7875
-12.7823
-12.6813
-12.6769
-12.6739
-12.6717
-12.6701
-12.669
-12.6685
-12.6685
-12.669
-12.6699
-12.6713
-12.673
-12.675
-12.6773
-12.6799
-12.6826
-12.6856
-12.6886
-12.6917
-12.6948
-12.6979
-12.7011
-12.7042
-12.7072
-12.7103
-12.7133
-12.7162
-12.7191
-12.722
-12.7249
-12.7278
-12.7307
-12.7337
-12.7366
-12.7396
-12.7426
-12.7456
-12.7485
-12.7514
-12.7541
-12.7566
-12.7588
-12.7606
-12.7619
-12.7626
-12.7628
-12.7623
-12.7613
-12.7595
-12.7568
-12.7065
-12.7046
-12.7032
-12.7021
-12.7011
-12.7004
-12.6998
-12.6993
-12.699
-12.6989
-12.6989
-12.6991
-12.6994
-12.6999
-12.7006
-12.7014
-12.7023
-12.7033
-12.7043
-12.7054
-12.7065
-12.7076
-12.7087
-12.7098
-12.7108
-12.7118
-12.7128
-12.7137
-12.7146
-12.7155
-12.7164
-12.7174
-12.7183
-12.7193
-12.7204
-12.7215
-12.7227
-12.7239
-12.7252
-12.7264
-12.7277
-12.7289
-12.7299
-12.7308
-12.7315
-12.7319
-12.7322
-12.7322
-12.732
-12.7316
-12.7316
-12.732
-12.7322
-12.7321
-12.7319
-12.7315
-12.7308
-12.7299
-12.7288
-12.7277
-12.7264
-12.7251
-12.7239
-12.7226
-12.7215
-12.7204
-12.7193
-12.7183
-12.7174
-12.7164
-12.7155
-12.7146
-12.7137
-12.7128
-12.7118
-12.7108
-12.7098
-12.7087
-12.7077
-12.7065
-12.7054
-12.7043
-12.7033
-12.7023
-12.7014
-12.7006
-12.6999
-12.6994
-12.6991
-12.6989
-12.6989
-12.699
-12.6993
-12.6998
-12.7004
-12.7012
-12.7021
-12.7032
-12.7046
-12.7065
-12.7567
-12.7595
-12.7613
-12.7623
-12.7628
-12.7626
-12.7619
-12.7606
-12.7588
-12.7566
-12.7541
-12.7514
-12.7485
-12.7456
-12.7426
-12.7396
-12.7366
-12.7336
-12.7307
-12.7278
-12.7249
-12.722
-12.7191
-12.7162
-12.7133
-12.7103
-12.7072
-12.7042
-12.7011
-12.6979
-12.6948
-12.6917
-12.6886
-12.6856
-12.6827
-12.6799
-12.6773
-12.675
-12.673
-12.6713
-12.6699
-12.669
-12.6685
-12.6685
-12.669
-12.6701
-12.6717
-12.6739
-12.677
-12.6813
-12.7823
-12.7875
-12.7909
-12.793
-12.7941
-12.7943
-12.7934
-12.7917
-12.7891
-12.7859
-12.7821
-12.778
-12.7735
-12.7688
-12.764
-12.7591
-12.7542
-12.7493
-12.7444
-12.7395
-12.7347
-12.7298
-12.7249
-12.72
-12.7151
-12.7101
-12.7051
-12.7
-12.6949
-12.6897
-12.6845
-12.6793
-12.6742
-12.6691
-12.6641
-12.6593
-12.6548
-12.6506
-12.6467
-12.6434
-12.6407
-12.6386
-12.6372
-12.6367
-12.637
-12.6383
-12.6407
-12.644
-12.6487
-12.6556
-12.8087
-12.8163
-12.8214
-12.8246
-12.8264
-12.8268
-12.8258
-12.8235
-12.8201
-12.8158
-12.8107
-12.805
-12.7989
-12.7925
-12.7858
-12.7791
-12.7722
-12.7654
-12.7585
-12.7516
-12.7448
-12.738
-12.7311
-12.7243
-12.7174
-12.7104
-12.7034
-12.6963
-12.6891
-12.6819
-12.6746
-12.6673
-12.66
-12.6528
-12.6457
-12.6388
-12.6322
-12.6259
-12.6202
-12.6151
-12.6108
-12.6074
-12.605
-12.6038
-12.6039
-12.6055
-12.6085
-12.6129
-12.6195
-12.629
-12.8361
-12.8464
-12.8532
-12.8575
-12.86
-12.8605
-12.8593
-12.8564
-12.852
-12.8465
-12.84
-12.8327
-12.8249
-12.8166
-12.8081
-12.7994
-12.7906
-12.7817
-12.7729
-12.7641
-12.7553
-12.7465
-12.7377
-12.7289
-12.72
-12.7111
-12.7021
-12.693
-12.6838
-12.6745
-12.6651
-12.6557
-12.6462
-12.6368
-12.6274
-12.6183
-12.6095
-12.6011
-12.5933
-12.5862
-12.5801
-12.5752
-12.5716
-12.5696
-12.5693
-12.571
-12.5746
-12.5803
-12.5887
-12.6012
-12.865
-12.8782
-12.8869
-12.8923
-12.8954
-12.896
-12.8943
-12.8906
-12.8852
-12.8783
-12.8702
-12.8612
-12.8515
-12.8413
-12.8308
-12.8201
-12.8093
-12.7985
-12.7877
-12.7769
-12.7661
-12.7554
-12.7447
-12.7339
-12.7231
-12.7122
-12.7013
-12.6902
-12.6789
-12.6676
-12.6561
-12.6444
-12.6327
-12.621
-12.6093
-12.5978
-12.5866
-12.5759
-12.5658
-12.5565
-12.5484
-12.5417
-12.5367
-12.5336
-12.5328
-12.5344
-12.5386
-12.5455
-12.556
-12.5718
-12.8959
-12.9124
-12.923
-12.9296
-12.9331
-12.9337
-12.9314
-12.9267
-12.9199
-12.9114
-12.9015
-12.8906
-12.8789
-12.8666
-12.8541
-12.8413
-12.8285
-12.8156
-12.8028
-12.79
-12.7773
-12.7646
-12.752
-12.7393
-12.7266
-12.7138
-12.7009
-12.6878
-12.6745
-12.6611
-12.6475
-12.6336
-12.6196
-12.6055
-12.5914
-12.5774
-12.5636
-12.5503
-12.5377
-12.526
-12.5155
-12.5067
-12.4999
-12.4954
-12.4937
-12.4951
-12.4998
-12.5079
-12.5206
-12.5401
-12.9293
-12.9494
-12.9622
-12.9699
-12.9738
-12.974
-12.9709
-12.9649
-12.9565
-12.946
-12.9341
-12.921
-12.9071
-12.8926
-12.8779
-12.8629
-12.8479
-12.833
-12.8181
-12.8034
-12.7887
-12.7741
-12.7595
-12.745
-12.7304
-12.7157
-12.7009
-12.6859
-12.6706
-12.6551
-12.6393
-12.6233
-12.6069
-12.5904
-12.5737
-12.5571
-12.5405
-12.5244
-12.5089
-12.4944
-12.4812
-12.4698
-12.4608
-12.4545
-12.4516
-12.4525
-12.4575
-12.4667
-12.4818
-12.5054
-12.9661
-12.9903
-13.0054
-13.014
-13.018
-13.0177
-13.0134
-13.0056
-12.9951
-12.9824
-12.9681
-12.9525
-12.9362
-12.9193
-12.9021
-12.8849
-12.8677
-12.8506
-12.8336
-12.8169
-12.8003
-12.7838
-12.7674
-12.751
-12.7346
-12.718
-12.7013
-12.6844
-12.6672
-12.6497
-12.6318
-12.6134
-12.5948
-12.5757
-12.5564
-12.5369
-12.5174
-12.4981
-12.4794
-12.4617
-12.4453
-12.4309
-12.419
-12.4104
-12.4058
-12.4057
-12.4107
-12.421
-12.4387
-12.4669
-13.0072
-13.0359
-13.0534
-13.0629
-13.0668
-13.0654
-13.0593
-13.0493
-13.0362
-13.0208
-13.0036
-12.9852
-12.9661
-12.9465
-12.9268
-12.9071
-12.8876
-12.8683
-12.8492
-12.8304
-12.8119
-12.7935
-12.7753
-12.7571
-12.7389
-12.7207
-12.7022
-12.6834
-12.6643
-12.6448
-12.6248
-12.6042
-12.5831
-12.5615
-12.5394
-12.5169
-12.4943
-12.4716
-12.4493
-12.4279
-12.4077
-12.3896
-12.3743
-12.3626
-12.3555
-12.3539
-12.3585
-12.3696
-12.39
-12.4234
-13.0537
-13.0876
-13.1076
-13.1177
-13.1209
-13.1178
-13.1092
-13.0963
-13.0799
-13.0611
-13.0406
-13.019
-12.9967
-12.9742
-12.9517
-12.9294
-12.9075
-12.8859
-12.8647
-12.8439
-12.8234
-12.8033
-12.7833
-12.7634
-12.7435
-12.7235
-12.7033
-12.6828
-12.6619
-12.6404
-12.6184
-12.5956
-12.5722
-12.548
-12.523
-12.4974
-12.4713
-12.445
-12.4187
-12.393
-12.3684
-12.3458
-12.3261
-12.3105
-12.3
-12.2961
-12.2995
-12.3111
-12.3343
-12.3735
-13.1072
-13.147
-13.1696
-13.1798
-13.1815
-13.1758
-13.1638
-13.1469
-13.1265
-13.1036
-13.079
-13.0536
-13.0278
-13.0021
-12.9766
-12.9515
-12.927
-12.9031
-12.8798
-12.857
-12.8347
-12.8128
-12.7911
-12.7696
-12.7481
-12.7265
-12.7047
-12.6826
-12.6599
-12.6366
-12.6126
-12.5878
-12.562
-12.5352
-12.5073
-12.4785
-12.4488
-12.4184
-12.3877
-12.3571
-12.3274
-12.2994
-12.2743
-12.2534
-12.2384
-12.2309
-12.2323
-12.2438
-12.2696
-12.3155
-13.1698
-13.2163
-13.2412
-13.2508
-13.25
-13.2403
-13.2235
-13.2015
-13.1759
-13.1479
-13.1187
-13.0889
-13.0591
-13.0297
-13.001
-12.9731
-12.946
-12.9198
-12.8943
-12.8696
-12.8455
-12.8218
-12.7986
-12.7756
-12.7526
-12.7296
-12.7063
-12.6826
-12.6584
-12.6334
-12.6076
-12.5807
-12.5526
-12.5232
-12.4925
-12.4604
-12.4269
-12.3921
-12.3565
-12.3205
-12.2847
-12.2503
-12.2184
-12.1909
-12.1697
-12.157
-12.155
-12.1652
-12.1935
-12.2468
-13.244
-13.2982
-13.3252
-13.3328
-13.3277
-13.3122
-13.2889
-13.2601
-13.2279
-13.1939
-13.159
-13.1242
-13.09
-13.0567
-13.0246
-12.9936
-12.9639
-12.9353
-12.9078
-12.8812
-12.8554
-12.8302
-12.8055
-12.7811
-12.7569
-12.7325
-12.7079
-12.6829
-12.6572
-12.6307
-12.6032
-12.5744
-12.5442
-12.5124
-12.4788
-12.4433
-12.4059
-12.3666
-12.3256
-12.2835
-12.2408
-12.1986
-12.1585
-12.1224
-12.0928
-12.0728
-12.0652
-12.0727
-12.1028
-12.1645
-13.3335
-13.3967
-13.4248
-13.4283
-13.4163
-13.3924
-13.3602
-13.3226
-13.2822
-13.2407
-13.1994
-13.1589
-13.1198
-13.0823
-13.0466
-13.0126
-12.9802
-12.9494
-12.9199
-12.8916
-12.8642
-12.8377
-12.8117
-12.7861
-12.7607
-12.7352
-12.7095
-12.6833
-12.6564
-12.6285
-12.5995
-12.569
-12.5368
-12.5027
-12.4663
-12.4276
-12.3862
-12.3421
-12.2955
-12.2466
-12.196
-12.1448
-12.0946
-12.0475
-12.0068
-11.9764
-11.9602
-11.9624
-11.9932
-12.0642
-13.4437
-13.517
-13.5444
-13.5403
-13.5176
-13.4817
-13.4373
-13.3884
-13.3378
-13.2875
-13.2386
-13.1918
-13.1474
-13.1056
-13.0663
-13.0292
-12.9944
-12.9614
-12.9301
-12.9003
-12.8716
-12.8439
-12.8169
-12.7903
-12.7639
-12.7375
-12.7109
-12.6837
-12.6558
-12.6268
-12.5965
-12.5646
-12.5306
-12.4944
-12.4555
-12.4135
-12.3682
-12.3194
-12.2668
-12.2106
-12.1512
-12.0895
-12.027
-11.9663
-11.9109
-11.8658
-11.8366
-11.8294
-11.8586
-11.9401
-13.5822
-13.6668
-13.6899
-13.6725
-13.6333
-13.5801
-13.5195
-13.4561
-13.3932
-13.3326
-13.2752
-13.2216
-13.1718
-13.1255
-13.0827
-13.0428
-13.0057
-12.9709
-12.9381
-12.907
-12.8772
-12.8486
-12.8207
-12.7934
-12.7664
-12.7393
-12.712
-12.6841
-12.6555
-12.6256
-12.5943
-12.5611
-12.5257
-12.4877
-12.4464
-12.4016
-12.3526
-12.299
-12.2404
-12.1765
-12.1075
-12.0338
-11.9569
-11.8791
-11.8045
-11.7391
-11.6903
-11.6674
-11.6907
-11.7832
-13.7615
-13.857
-13.8688
-13.8289
-13.7644
-13.6871
-13.605
-13.5235
-13.4459
-13.3736
-13.3072
-13.2465
-13.1912
-13.1408
-13.0948
-13.0525
-13.0135
-12.9772
-12.9433
-12.9113
-12.8808
-12.8516
-12.8232
-12.7954
-12.768
-12.7405
-12.7128
-12.6845
-12.6553
-12.6249
-12.5928
-12.5588
-12.5223
-12.4828
-12.4396
-12.3923
-12.34
-12.2819
-12.2174
-12.1457
-12.0665
-11.9796
-11.8859
-11.7874
-11.6881
-11.5948
-11.517
-11.468
-11.4773
-11.5798
-14.0029
-14.1045
-14.091
-14.0132
-13.9109
-13.8001
-13.6903
-13.587
-13.4926
-13.4077
-13.3319
-13.2644
-13.2041
-13.1502
-13.1016
-13.0575
-13.0172
-12.98
-12.9454
-12.9129
-12.8821
-12.8526
-12.8241
-12.7962
-12.7686
-12.741
-12.7132
-12.6847
-12.6553
-12.6247
-12.5923
-12.5577
-12.5205
-12.48
-12.4355
-12.3862
-12.3311
-12.2692
-12.1993
-12.1201
-12.0306
-11.9297
-11.8172
-11.6941
-11.5636
-11.4326
-11.3122
-11.2205
-11.2005
-11.3065
-14.345
-14.4343
-14.3679
-14.2275
-14.0695
-13.9136
-13.7694
-13.6408
-13.5283
-13.4308
-13.3463
-13.2729
-13.2088
-13.1523
-13.1021
-13.0571
-13.0162
-12.9788
-12.9442
-12.9118
-12.8811
-12.8518
-12.8234
-12.7957
-12.7683
-12.741
-12.7133
-12.685
-12.6557
-12.6251
-12.5928
-12.5582
-12.5207
-12.4798
-12.4345
-12.384
-12.327
-12.2622
-12.1879
-12.1022
-12.003
-11.8882
-11.7557
-11.6047
-11.4361
-11.2552
-11.0732
-10.9125
-10.8333
-10.9216
-14.8593
-14.8836
-14.7103
-14.4687
-14.231
-14.0171
-13.8326
-13.677
-13.547
-13.4384
-13.3471
-13.2698
-13.2036
-13.1461
-13.0957
-13.0508
-13.0104
-12.9735
-12.9395
-12.9077
-12.8777
-12.849
-12.8212
-12.7941
-12.7672
-12.7404
-12.7132
-12.6854
-12.6566
-12.6264
-12.5945
-12.5603
-12.5232
-12.4825
-12.4373
-12.3865
-12.3288
-12.2624
-12.1853
-12.0949
-11.988
-11.8607
-11.7089
-11.5283
-11.3157
-11.0714
-10.8027
-10.5322
-10.3368
-10.3495
-15.6756
-15.5017
-15.1254
-14.7267
-14.3796
-14.0951
-13.8674
-13.6865
-13.5423
-13.4262
-13.3317
-13.2534
-13.1875
-13.1311
-13.0821
-13.0387
-12.9998
-12.9644
-12.9317
-12.9011
-12.8722
-12.8445
-12.8177
-12.7915
-12.7655
-12.7394
-12.713
-12.686
-12.658
-12.6287
-12.5977
-12.5643
-12.5282
-12.4884
-12.4442
-12.3943
-12.3373
-12.2712
-12.1936
-12.1012
-11.9898
-11.8537
-11.6858
-11.4772
-11.2177
-10.8973
-10.5106
-10.0719
-9.66019
-9.45634
-17.0894
-16.3283
-15.5881
-14.9677
-14.4838
-14.1234
-13.8574
-13.6588
-13.508
-13.3911
-13.2984
-13.2231
-13.1607
-13.1077
-13.0618
-13.0213
-12.985
-12.9518
-12.9211
-12.8923
-12.865
-12.8387
-12.8132
-12.7882
-12.7633
-12.7383
-12.713
-12.6871
-12.6603
-12.6321
-12.6023
-12.5704
-12.5358
-12.4978
-12.4555
-12.4078
-12.3532
-12.2896
-12.2144
-12.1239
-12.013
-11.8745
-11.6981
-11.4693
-11.1678
-10.7656
-10.2326
-9.55818
-8.76357
-7.93839
-19.9291
-17.3312
-15.9167
-15.0368
-14.4365
-14.0325
-13.7589
-13.567
-13.4273
-13.322
-13.2401
-13.1742
-13.1197
-13.0734
-13.0331
-12.9973
-12.9649
-12.9351
-12.9072
-12.8809
-12.8557
-12.8314
-12.8076
-12.7842
-12.7608
-12.7373
-12.7135
-12.689
-12.6638
-12.6373
-12.6094
-12.5796
-12.5474
-12.5122
-12.4733
-12.4295
-12.3796
-12.3218
-12.2535
-12.1711
-12.0696
-11.9412
-11.774
-11.5496
-11.2374
-10.7867
-10.1278
-9.17562
-7.67548
-4.96068
-24.7987
-18.4156
-15.755
-14.6644
-14.0766
-13.7309
-13.5192
-13.3795
-13.2804
-13.206
-13.1476
-13.0999
-13.0595
-13.0243
-12.9928
-12.9642
-12.9376
-12.9125
-12.8887
-12.8658
-12.8436
-12.8219
-12.8004
-12.7792
-12.7579
-12.7364
-12.7146
-12.6923
-12.6692
-12.6452
-12.6199
-12.5932
-12.5646
-12.5338
-12.5
-12.4627
-12.4208
-12.3731
-12.3176
-12.252
-12.1724
-12.0729
-11.9442
-11.7697
-11.5171
-11.1224
-10.4686
-9.28352
-6.50694
-0.000162213
)
;

boundaryField
{
    movingWallTop
    {
        type            zeroGradient;
    }
    movingWallBottom
    {
        type            zeroGradient;
    }
    fixedWalls
    {
        type            zeroGradient;
    }
    frontAndBack
    {
        type            empty;
    }
}


// ************************************************************************* //
