/*--------------------------------*- C++ -*----------------------------------*\
  =========                 |
  \\      /  F ield         | OpenFOAM: The Open Source CFD Toolbox
   \\    /   O peration     | Website:  https://openfoam.org
    \\  /    A nd           | Version:  7
     \\/     M anipulation  |
\*---------------------------------------------------------------------------*/
FoamFile
{
    version     2.0;
    format      ascii;
    class       volVectorField;
    location    "0.058";
    object      U;
}
// * * * * * * * * * * * * * * * * * * * * * * * * * * * * * * * * * * * * * //

dimensions      [0 1 -1 0 0 0 0];

internalField   nonuniform List<vector> 
2500
(
(2.96681e-05 -2.97711e-05 0)
(9.00365e-05 -3.63839e-05 0)
(0.000123945 -1.86034e-05 0)
(9.22816e-05 7.53551e-06 0)
(-1.6818e-05 3.4276e-05 0)
(-0.000201791 5.88517e-05 0)
(-0.000455613 8.01371e-05 0)
(-0.000769153 9.7804e-05 0)
(-0.00113227 0.000111872 0)
(-0.00153452 0.000122491 0)
(-0.00196564 0.000129859 0)
(-0.00241567 0.000134194 0)
(-0.00287518 0.000135715 0)
(-0.00333526 0.000134643 0)
(-0.00378763 0.000131191 0)
(-0.00422463 0.000125571 0)
(-0.00463924 0.000117987 0)
(-0.00502509 0.000108637 0)
(-0.00537643 9.77156e-05 0)
(-0.00568821 8.54145e-05 0)
(-0.00595598 7.19222e-05 0)
(-0.00617597 5.7427e-05 0)
(-0.00634507 4.21187e-05 0)
(-0.00646082 2.61899e-05 0)
(-0.00652147 9.83779e-06 0)
(-0.00652596 -6.73471e-06 0)
(-0.00647393 -2.33173e-05 0)
(-0.00636581 -3.96915e-05 0)
(-0.00620276 -5.56308e-05 0)
(-0.00598675 -7.09003e-05 0)
(-0.00572054 -8.52578e-05 0)
(-0.00540774 -9.84546e-05 0)
(-0.00505279 -0.000110238 0)
(-0.00466097 -0.000120352 0)
(-0.00423838 -0.000128542 0)
(-0.00379194 -0.000134558 0)
(-0.00332936 -0.000138155 0)
(-0.00285905 -0.0001391 0)
(-0.00239012 -0.000137176 0)
(-0.00193223 -0.00013218 0)
(-0.00149551 -0.000123934 0)
(-0.00109041 -0.000112289 0)
(-0.000727518 -9.7136e-05 0)
(-0.000417247 -7.84397e-05 0)
(-0.000169391 -5.63222e-05 0)
(7.62357e-06 -3.129e-05 0)
(0.000107992 -4.63908e-06 0)
(0.000131265 2.06412e-05 0)
(9.13077e-05 3.73302e-05 0)
(2.92956e-05 2.92355e-05 0)
(3.66324e-05 -9.03432e-05 0)
(8.23974e-05 -8.16444e-05 0)
(3.32368e-05 1.81576e-05 0)
(-0.000170459 0.000153948 0)
(-0.000552326 0.000297426 0)
(-0.00111269 0.000434191 0)
(-0.00183981 0.000556725 0)
(-0.00271481 0.000661417 0)
(-0.00371478 0.000746771 0)
(-0.00481488 0.000812438 0)
(-0.00598958 0.000858723 0)
(-0.00721357 0.000886317 0)
(-0.00846227 0.00089615 0)
(-0.00971219 0.000889294 0)
(-0.0109412 0.000866907 0)
(-0.0121286 0.0008302 0)
(-0.0132554 0.00078041 0)
(-0.0143041 0.000718791 0)
(-0.0152591 0.000646602 0)
(-0.0161065 0.000565112 0)
(-0.0168341 0.000475594 0)
(-0.0174316 0.000379336 0)
(-0.0178903 0.000277642 0)
(-0.0182038 0.000171841 0)
(-0.0183671 6.32931e-05 0)
(-0.0183776 -4.66064e-05 0)
(-0.0182343 -0.00015642 0)
(-0.0179386 -0.000264666 0)
(-0.0174938 -0.000369821 0)
(-0.0169054 -0.000470321 0)
(-0.0161812 -0.000564569 0)
(-0.0153311 -0.000650945 0)
(-0.0143674 -0.000727821 0)
(-0.0133043 -0.000793576 0)
(-0.0121586 -0.000846623 0)
(-0.0109489 -0.000885429 0)
(-0.00969576 -0.00090855 0)
(-0.00842176 -0.000914661 0)
(-0.00715086 -0.000902598 0)
(-0.00590836 -0.000871404 0)
(-0.00472038 -0.000820395 0)
(-0.00361341 -0.00074925 0)
(-0.0026136 -0.000658156 0)
(-0.00174576 -0.000548057 0)
(-0.00103199 -0.000421128 0)
(-0.00048959 -0.00028171 0)
(-0.000127845 -0.000137974 0)
(5.66148e-05 -4.93898e-06 0)
(9.0627e-05 8.95899e-05 0)
(3.76719e-05 9.13088e-05 0)
(1.98053e-05 -0.000125836 0)
(-1.4038e-05 -3.34808e-05 0)
(-0.000227185 0.000232756 0)
(-0.000669947 0.000574758 0)
(-0.00136527 0.000937573 0)
(-0.00231377 0.00128794 0)
(-0.00350034 0.00160626 0)
(-0.00489966 0.00188161 0)
(-0.00648006 0.00210835 0)
(-0.00820632 0.00228411 0)
(-0.0100415 0.00240858 0)
(-0.0119484 0.00248282 0)
(-0.0138904 0.00250872 0)
(-0.0158321 0.00248878 0)
(-0.0177399 0.00242588 0)
(-0.0195823 0.00232313 0)
(-0.02133 0.00218384 0)
(-0.0229563 0.00201139 0)
(-0.024437 0.00180926 0)
(-0.0257504 0.00158098 0)
(-0.0268778 0.00133013 0)
(-0.0278031 0.00106035 0)
(-0.0285132 0.000775332 0)
(-0.0289977 0.000478857 0)
(-0.0292494 0.000174784 0)
(-0.029264 -0.000132927 0)
(-0.0290405 -0.000440208 0)
(-0.0285808 -0.000742884 0)
(-0.0278903 -0.00103667 0)
(-0.0269776 -0.0013172 0)
(-0.025855 -0.00158003 0)
(-0.0245377 -0.00182067 0)
(-0.0230447 -0.00203464 0)
(-0.0213982 -0.00221752 0)
(-0.0196238 -0.00236501 0)
(-0.0177499 -0.00247301 0)
(-0.015808 -0.00253772 0)
(-0.0138323 -0.00255574 0)
(-0.0118589 -0.00252419 0)
(-0.00992563 -0.00244089 0)
(-0.00807135 -0.00230455 0)
(-0.0063349 -0.00211509 0)
(-0.00475409 -0.00187402 0)
(-0.00336414 -0.00158519 0)
(-0.00219564 -0.00125583 0)
(-0.00127182 -0.000898508 0)
(-0.000604669 -0.000534254 0)
(-0.000189732 -0.000197408 0)
(3.33863e-07 5.69171e-05 0)
(2.21108e-05 0.000132827 0)
(-4.75385e-06 -9.82821e-05 0)
(-0.000146091 0.000166305 0)
(-0.00056527 0.000674306 0)
(-0.00128638 0.00129365 0)
(-0.00232264 0.00194395 0)
(-0.003671 0.00257272 0)
(-0.00531175 0.00314666 0)
(-0.00721371 0.00364566 0)
(-0.0093382 0.00405831 0)
(-0.0116419 0.00437901 0)
(-0.014079 0.00460608 0)
(-0.0166028 0.00474051 0)
(-0.019167 0.00478512 0)
(-0.0217266 0.00474401 0)
(-0.0242385 0.00462214 0)
(-0.0266623 0.00442511 0)
(-0.02896 0.00415891 0)
(-0.0310969 0.00382982 0)
(-0.0330416 0.00344434 0)
(-0.034766 0.00300915 0)
(-0.0362457 0.00253102 0)
(-0.0374596 0.0020169 0)
(-0.0383907 0.00147386 0)
(-0.0390256 0.000909113 0)
(-0.0393548 0.000330054 0)
(-0.0393729 -0.000255744 0)
(-0.0390785 -0.000840513 0)
(-0.0384744 -0.0014163 0)
(-0.0375676 -0.00197496 0)
(-0.0363696 -0.0025082 0)
(-0.0348962 -0.00300764 0)
(-0.0331675 -0.00346484 0)
(-0.0312081 -0.00387138 0)
(-0.0290468 -0.00421904 0)
(-0.0267166 -0.00449985 0)
(-0.0242545 -0.00470628 0)
(-0.0217009 -0.00483142 0)
(-0.0190995 -0.0048692 0)
(-0.0164963 -0.00481467 0)
(-0.0139396 -0.00466427 0)
(-0.0114783 -0.00441628 0)
(-0.009161 -0.00407137 0)
(-0.00703477 -0.00363338 0)
(-0.00514301 -0.00311044 0)
(-0.00352327 -0.00251672 0)
(-0.00220437 -0.0018751 0)
(-0.00120245 -0.00122138 0)
(-0.000516135 -0.000609799 0)
(-0.00012653 -0.00012127 0)
(-1.30358e-06 0.000114408 0)
(-3.03155e-05 4.8348e-06 0)
(-0.000288893 0.000544101 0)
(-0.000933831 0.00137153 0)
(-0.00195402 0.00233227 0)
(-0.00334724 0.0033256 0)
(-0.00510313 0.00428208 0)
(-0.00719544 0.00515525 0)
(-0.00958651 0.00591544 0)
(-0.0122311 0.00654479 0)
(-0.0150788 0.00703378 0)
(-0.0180763 0.00737876 0)
(-0.0211693 0.00758034 0)
(-0.0243034 0.0076421 0)
(-0.0274256 0.0075698 0)
(-0.0304851 0.00737074 0)
(-0.0334338 0.0070533 0)
(-0.0362266 0.00662666 0)
(-0.0388222 0.00610057 0)
(-0.0411829 0.00548518 0)
(-0.0432753 0.00479098 0)
(-0.04507 0.00402872 0)
(-0.0465419 0.0032094 0)
(-0.0476705 0.00234426 0)
(-0.0484398 0.00144481 0)
(-0.0488386 0.000522804 0)
(-0.0488602 -0.000409691 0)
(-0.0485032 -0.00134033 0)
(-0.047771 -0.00225648 0)
(-0.046672 -0.00314524 0)
(-0.04522 -0.00399351 0)
(-0.0434339 -0.00478805 0)
(-0.041338 -0.00551558 0)
(-0.0389614 -0.00616295 0)
(-0.0363387 -0.00671728 0)
(-0.0335091 -0.00716621 0)
(-0.0305165 -0.00749813 0)
(-0.0274088 -0.00770247 0)
(-0.0242377 -0.00777011 0)
(-0.0210578 -0.00769374 0)
(-0.0179254 -0.00746841 0)
(-0.014898 -0.00709217 0)
(-0.0120325 -0.00656687 0)
(-0.00938365 -0.00589933 0)
(-0.00700213 -0.00510281 0)
(-0.00493215 -0.00419926 0)
(-0.00320888 -0.00322246 0)
(-0.00185471 -0.00222259 0)
(-0.000874981 -0.00127187 0)
(-0.00026508 -0.000472311 0)
(-2.59765e-05 2.27733e-05 0)
(-5.45851e-05 0.000184031 0)
(-0.000431076 0.00110737 0)
(-0.00130769 0.00233682 0)
(-0.00263517 0.00370397 0)
(-0.00439257 0.00509322 0)
(-0.00655955 0.00642135 0)
(-0.00910132 0.00763036 0)
(-0.0119727 0.00868163 0)
(-0.0151214 0.00955091 0)
(-0.0184905 0.0102246 0)
(-0.0220199 0.0106969 0)
(-0.0256483 0.0109678 0)
(-0.0293146 0.0110416 0)
(-0.0329591 0.0109259 0)
(-0.0365242 0.0106304 0)
(-0.0399556 0.0101667 0)
(-0.0432022 0.00954736 0)
(-0.046217 0.0087862 0)
(-0.0489572 0.00789753 0)
(-0.0513846 0.00689623 0)
(-0.0534658 0.00579763 0)
(-0.0551723 0.00461747 0)
(-0.0564807 0.00337184 0)
(-0.0573727 0.00207722 0)
(-0.0578355 0.000750504 0)
(-0.0578616 -0.000591041 0)
(-0.0574493 -0.00192973 0)
(-0.0566024 -0.00324748 0)
(-0.0553308 -0.00452587 0)
(-0.0536499 -0.00574622 0)
(-0.0515813 -0.00688967 0)
(-0.0491526 -0.00793737 0)
(-0.0463969 -0.00887068 0)
(-0.0433535 -0.00967142 0)
(-0.0400668 -0.0103222 0)
(-0.0365865 -0.0108067 0)
(-0.032967 -0.0111103 0)
(-0.0292666 -0.0112205 0)
(-0.0255469 -0.0111273 0)
(-0.0218717 -0.0108244 0)
(-0.0183056 -0.0103095 0)
(-0.0149129 -0.00958607 0)
(-0.0117555 -0.00866406 0)
(-0.0088912 -0.00756221 0)
(-0.00637123 -0.00631031 0)
(-0.00423833 -0.00495262 0)
(-0.00252319 -0.00355237 0)
(-0.00124063 -0.00219694 0)
(-0.000403607 -0.0010044 0)
(-4.94818e-05 -0.000142807 0)
(-7.69277e-05 0.00043624 0)
(-0.000567984 0.00185518 0)
(-0.00167472 0.00357234 0)
(-0.00331005 0.00541248 0)
(-0.00543301 0.00724994 0)
(-0.00801142 0.00899104 0)
(-0.0110004 0.0105683 0)
(-0.0143461 0.0119355 0)
(-0.0179887 0.0130626 0)
(-0.0218642 0.0139321 0)
(-0.0259061 0.0145364 0)
(-0.0300467 0.0148749 0)
(-0.0342189 0.0149527 0)
(-0.0383569 0.0147793 0)
(-0.0423975 0.0143671 0)
(-0.0462808 0.013731 0)
(-0.0499507 0.0128878 0)
(-0.0533554 0.0118553 0)
(-0.0564478 0.0106526 0)
(-0.0591857 0.00929946 0)
(-0.0615324 0.00781632 0)
(-0.0634563 0.00622419 0)
(-0.0649315 0.00454458 0)
(-0.065938 0.00279957 0)
(-0.0664614 0.00101173 0)
(-0.0664937 -0.000795798 0)
(-0.0660326 -0.00259937 0)
(-0.0650825 -0.00437484 0)
(-0.0636541 -0.00609761 0)
(-0.0617643 -0.00774274 0)
(-0.0594368 -0.00928514 0)
(-0.0567019 -0.0106997 0)
(-0.0535962 -0.0119618 0)
(-0.0501625 -0.0130472 0)
(-0.0464499 -0.013933 0)
(-0.042513 -0.0145977 0)
(-0.0384116 -0.0150222 0)
(-0.0342098 -0.01519 0)
(-0.0299754 -0.0150885 0)
(-0.0257788 -0.0147096 0)
(-0.0216912 -0.0140509 0)
(-0.0177839 -0.0131169 0)
(-0.0141259 -0.011921 0)
(-0.0107823 -0.010487 0)
(-0.00781224 -0.00885227 0)
(-0.00526732 -0.00707039 0)
(-0.00318813 -0.00521585 0)
(-0.00160081 -0.00338825 0)
(-0.000537338 -0.00171735 0)
(-7.11382e-05 -0.000379587 0)
(-9.74208e-05 0.000757598 0)
(-0.000698439 0.00278288 0)
(-0.00203042 0.00507502 0)
(-0.00397026 0.00745628 0)
(-0.00645683 0.00979472 0)
(-0.00944513 0.0119893 0)
(-0.012879 0.0139653 0)
(-0.0166949 0.0156702 0)
(-0.0208248 0.0170694 0)
(-0.0251973 0.0181424 0)
(-0.0297392 0.0188798 0)
(-0.0343767 0.019281 0)
(-0.0390369 0.0193522 0)
(-0.0436486 0.019105 0)
(-0.0481436 0.0185548 0)
(-0.0524571 0.0177202 0)
(-0.0565285 0.0166223 0)
(-0.0603021 0.0152835 0)
(-0.0637269 0.0137281 0)
(-0.0667577 0.0119811 0)
(-0.0693545 0.0100684 0)
(-0.0714836 0.00801676 0)
(-0.0731168 0.00585368 0)
(-0.0742324 0.00360726 0)
(-0.074815 0.00130627 0)
(-0.0748557 -0.00101981 0)
(-0.074352 -0.00334085 0)
(-0.0733083 -0.00562609 0)
(-0.0717361 -0.00784422 0)
(-0.0696534 -0.00996355 0)
(-0.0670856 -0.0119522 0)
(-0.064065 -0.0137782 0)
(-0.060631 -0.0154104 0)
(-0.0568297 -0.016818 0)
(-0.0527137 -0.017972 0)
(-0.048342 -0.0188455 0)
(-0.043779 -0.019414 0)
(-0.0390943 -0.0196571 0)
(-0.0343611 -0.0195588 0)
(-0.0296558 -0.019109 0)
(-0.0250564 -0.0183048 0)
(-0.0206409 -0.0171518 0)
(-0.0164856 -0.015666 0)
(-0.0126636 -0.0138761 0)
(-0.00924293 -0.0118257 0)
(-0.00628497 -0.0095768 0)
(-0.00384153 -0.00721316 0)
(-0.00195117 -0.00484394 0)
(-0.000665072 -0.00260722 0)
(-9.09854e-05 -0.00068388 0)
(-0.000116399 0.00114439 0)
(-0.000822906 0.00388475 0)
(-0.00237441 0.00683973 0)
(-0.00461404 0.00983161 0)
(-0.00746096 0.012725 0)
(-0.0108569 0.0154138 0)
(-0.0147336 0.0178183 0)
(-0.0190171 0.0198815 0)
(-0.0236304 0.0215653 0)
(-0.0284944 0.0228469 0)
(-0.0335288 0.0237162 0)
(-0.0386537 0.024173 0)
(-0.0437905 0.024225 0)
(-0.0488629 0.0238863 0)
(-0.053798 0.0231759 0)
(-0.0585268 0.0221163 0)
(-0.0629847 0.0207331 0)
(-0.0671124 0.019054 0)
(-0.070856 0.0171085 0)
(-0.0741673 0.0149273 0)
(-0.0770039 0.0125424 0)
(-0.0793298 0.00998659 0)
(-0.0811154 0.00729359 0)
(-0.0823373 0.00449795 0)
(-0.0829791 0.00163508 0)
(-0.0830311 -0.00125882 0)
(-0.0824906 -0.00414671 0)
(-0.0813619 -0.0069908 0)
(-0.0796567 -0.00975265 0)
(-0.0773941 -0.0123933 0)
(-0.0746006 -0.0148737 0)
(-0.0713102 -0.0171545 0)
(-0.0675643 -0.0191974 0)
(-0.0634117 -0.0209648 0)
(-0.0589083 -0.022421 0)
(-0.0541167 -0.0235327 0)
(-0.0491055 -0.0242703 0)
(-0.043949 -0.0246084 0)
(-0.0387259 -0.0245274 0)
(-0.0335185 -0.0240147 0)
(-0.0284111 -0.0230663 0)
(-0.0234889 -0.0216881 0)
(-0.0188362 -0.0198985 0)
(-0.0145346 -0.0177299 0)
(-0.0106616 -0.0152314 0)
(-0.00728961 -0.0124719 0)
(-0.00448248 -0.00954266 0)
(-0.00229174 -0.00656036 0)
(-0.000787392 -0.00366912 0)
(-0.000109365 -0.00105221 0)
(-0.000134246 0.00159351 0)
(-0.000942543 0.00515543 0)
(-0.00270843 0.0088612 0)
(-0.00524334 0.0125343 0)
(-0.00844741 0.0160377 0)
(-0.0122489 0.0192625 0)
(-0.0165672 0.0221256 0)
(-0.0213172 0.0245672 0)
(-0.0264123 0.0265469 0)
(-0.0317651 0.028041 0)
(-0.0372882 0.0290394 0)
(-0.0428952 0.029543 0)
(-0.0485018 0.0295617 0)
(-0.0540269 0.0291128 0)
(-0.0593931 0.0282189 0)
(-0.0645273 0.0269072 0)
(-0.0693617 0.0252082 0)
(-0.0738338 0.0231551 0)
(-0.0778869 0.0207831 0)
(-0.0814703 0.0181291 0)
(-0.0845399 0.0152311 0)
(-0.0870576 0.0121284 0)
(-0.0889923 0.0088613 0)
(-0.0903196 0.00547113 0)
(-0.091022 0.00200016 0)
(-0.0910889 -0.00150832 0)
(-0.0905172 -0.00501007 0)
(-0.0893112 -0.00845996 0)
(-0.0874827 -0.011812 0)
(-0.085051 -0.0150197 0)
(-0.0820437 -0.0180362 0)
(-0.0784958 -0.0208147 0)
(-0.0744506 -0.023309 0)
(-0.0699588 -0.0254742 0)
(-0.0650792 -0.0272674 0)
(-0.0598774 -0.0286486 0)
(-0.054426 -0.029582 0)
(-0.0488037 -0.030037 0)
(-0.0430946 -0.0299896 0)
(-0.0373866 -0.0294242 0)
(-0.0317709 -0.0283347 0)
(-0.02634 -0.026727 0)
(-0.0211866 -0.0246206 0)
(-0.0164017 -0.0220508 0)
(-0.0120732 -0.0190712 0)
(-0.00828515 -0.0157561 0)
(-0.00511413 -0.0122029 0)
(-0.00262488 -0.00853416 0)
(-0.000905674 -0.0048988 0)
(-0.000126693 -0.00148179 0)
(-0.000151324 0.00210266 0)
(-0.00105875 0.00659067 0)
(-0.00303521 0.0111351 0)
(-0.00586206 0.015561 0)
(-0.00942107 0.0197308 0)
(-0.0136271 0.0235343 0)
(-0.0183868 0.0268867 0)
(-0.0236036 0.0297267 0)
(-0.0291807 0.0320134 0)
(-0.0350219 0.033723 0)
(-0.0410324 0.0348465 0)
(-0.0471191 0.0353868 0)
(-0.0531922 0.035357 0)
(-0.0591654 0.0347778 0)
(-0.0649571 0.0336765 0)
(-0.0704908 0.0320851 0)
(-0.0756951 0.0300397 0)
(-0.0805051 0.0275793 0)
(-0.0848616 0.0247452 0)
(-0.088712 0.0215805 0)
(-0.0920102 0.0181299 0)
(-0.094717 0.0144392 0)
(-0.0967997 0.0105557 0)
(-0.0982328 0.00652767 0)
(-0.098998 0.00240441 0)
(-0.099084 -0.00176349 0)
(-0.0984871 -0.00592433 0)
(-0.0972112 -0.0100254 0)
(-0.095268 -0.0140129 0)
(-0.0926769 -0.0178324 0)
(-0.0894659 -0.021429 0)
(-0.0856709 -0.0247478 0)
(-0.0813362 -0.0277346 0)
(-0.0765145 -0.0303364 0)
(-0.0712665 -0.0325027 0)
(-0.0656608 -0.0341862 0)
(-0.0597737 -0.0353442 0)
(-0.053688 -0.0359401 0)
(-0.0474929 -0.0359449 0)
(-0.0412825 -0.0353387 0)
(-0.0351547 -0.0341131 0)
(-0.0292101 -0.0322726 0)
(-0.0235502 -0.029837 0)
(-0.018276 -0.0268434 0)
(-0.0134868 -0.0233486 0)
(-0.00927876 -0.0194312 0)
(-0.00574183 -0.0151937 0)
(-0.0029541 -0.0107634 0)
(-0.00102161 -0.00629347 0)
(-0.000143379 -0.00197077 0)
(-0.000167953 0.00267035 0)
(-0.00117295 0.00818768 0)
(-0.00335781 0.0136585 0)
(-0.00647493 0.0189095 0)
(-0.0103882 0.0238032 0)
(-0.0149992 0.0282291 0)
(-0.0202015 0.0321021 0)
(-0.0258866 0.0353611 0)
(-0.0319473 0.0379654 0)
(-0.0382784 0.039893 0)
(-0.0447769 0.0411368 0)
(-0.051343 0.041703 0)
(-0.0578812 0.0416082 0)
(-0.0643002 0.0408779 0)
(-0.0705143 0.0395444 0)
(-0.0764435 0.0376454 0)
(-0.0820137 0.0352227 0)
(-0.0871572 0.0323218 0)
(-0.0918131 0.0289902 0)
(-0.0959271 0.0252779 0)
(-0.0994516 0.0212362 0)
(-0.102346 0.016918 0)
(-0.104577 0.0123773 0)
(-0.106117 0.00766956 0)
(-0.106948 0.00285144 0)
(-0.107058 -0.00201911 0)
(-0.106442 -0.00688281 0)
(-0.105104 -0.0116791 0)
(-0.103054 -0.0163464 0)
(-0.100313 -0.0208218 0)
(-0.0969078 -0.0250423 0)
(-0.0928748 -0.0289445 0)
(-0.0882593 -0.0324656 0)
(-0.0831151 -0.0355441 0)
(-0.0775048 -0.0381212 0)
(-0.0714996 -0.0401416 0)
(-0.0651789 -0.041555 0)
(-0.0586299 -0.042318 0)
(-0.0519466 -0.0423954 0)
(-0.0452294 -0.0417626 0)
(-0.0385834 -0.0404073 0)
(-0.0321176 -0.0383317 0)
(-0.0259429 -0.0355548 0)
(-0.0201712 -0.0321144 0)
(-0.0149135 -0.0280693 0)
(-0.0102793 -0.0235014 0)
(-0.00637203 -0.0185172 0)
(-0.0032834 -0.0132485 0)
(-0.00113697 -0.00785224 0)
(-0.000159801 -0.00251829 0)
(-0.000184411 0.00329585 0)
(-0.00128649 0.00994519 0)
(-0.00367933 0.0164306 0)
(-0.00708695 0.0225796 0)
(-0.0113556 0.0282555 0)
(-0.0163735 0.0333484 0)
(-0.022021 0.0377741 0)
(-0.0281774 0.0414726 0)
(-0.0347246 0.0444053 0)
(-0.041548 0.0465527 0)
(-0.0485362 0.0479113 0)
(-0.0555827 0.0484913 0)
(-0.0625858 0.0483144 0)
(-0.0694494 0.0474112 0)
(-0.0760839 0.04582 0)
(-0.0824059 0.0435846 0)
(-0.0883387 0.0407537 0)
(-0.0938127 0.037379 0)
(-0.098765 0.0335152 0)
(-0.10314 0.0292191 0)
(-0.106889 0.0245489 0)
(-0.109971 0.0195645 0)
(-0.11235 0.0143272 0)
(-0.114001 0.00889957 0)
(-0.114901 0.00334552 0)
(-0.11504 -0.00226951 0)
(-0.114412 -0.00787858 0)
(-0.113019 -0.0134133 0)
(-0.110872 -0.0188038 0)
(-0.107989 -0.0239791 0)
(-0.104399 -0.0288673 0)
(-0.100137 -0.0333963 0)
(-0.0952492 -0.0374944 0)
(-0.0897897 -0.041091 0)
(-0.0838227 -0.0441184 0)
(-0.0774215 -0.0465123 0)
(-0.0706685 -0.0482142 0)
(-0.0636549 -0.0491727 0)
(-0.0564799 -0.0493456 0)
(-0.04925 -0.0487022 0)
(-0.042078 -0.0472252 0)
(-0.0350815 -0.0449133 0)
(-0.0283818 -0.0417834 0)
(-0.022102 -0.0378729 0)
(-0.0163658 -0.0332415 0)
(-0.0112965 -0.0279732 0)
(-0.00701162 -0.0221781 0)
(-0.00361692 -0.0159921 0)
(-0.0012535 -0.0095762 0)
(-0.000176301 -0.00312443 0)
(-0.000200938 0.00397914 0)
(-0.00140061 0.0118634 0)
(-0.00400273 0.019452 0)
(-0.00770298 0.0265729 0)
(-0.01233 0.0330903 0)
(-0.0177583 0.0388954 0)
(-0.0238551 0.0439061 0)
(-0.0304869 0.0480648 0)
(-0.0375245 0.0513362 0)
(-0.0448433 0.0537047 0)
(-0.0523236 0.0551717 0)
(-0.0598516 0.0557526 0)
(-0.0673196 0.0554751 0)
(-0.0746269 0.0543763 0)
(-0.0816799 0.0525011 0)
(-0.088392 0.0499003 0)
(-0.0946843 0.0466296 0)
(-0.100485 0.0427482 0)
(-0.105731 0.0383177 0)
(-0.110365 0.0334021 0)
(-0.114337 0.028067 0)
(-0.117605 0.0223792 0)
(-0.120134 0.0164073 0)
(-0.121897 0.0102209 0)
(-0.122872 0.00389137 0)
(-0.123045 -0.00250852 0)
(-0.122412 -0.00890418 0)
(-0.120972 -0.0152193 0)
(-0.118737 -0.0213759 0)
(-0.115724 -0.0272945 0)
(-0.111959 -0.0328944 0)
(-0.107478 -0.0380944 0)
(-0.102326 -0.0428132 0)
(-0.0965595 -0.0469708 0)
(-0.0902419 -0.0504896 0)
(-0.0834486 -0.053296 0)
(-0.0762648 -0.0553219 0)
(-0.0687854 -0.0565069 0)
(-0.0611148 -0.0568006 0)
(-0.0533657 -0.0561649 0)
(-0.0456587 -0.0545761 0)
(-0.0381208 -0.0520282 0)
(-0.030884 -0.0485344 0)
(-0.0240834 -0.0441305 0)
(-0.0178562 -0.0388759 0)
(-0.01234 -0.0328562 0)
(-0.00766749 -0.0261842 0)
(-0.00395873 -0.0189997 0)
(-0.00137284 -0.0114685 0)
(-0.000193185 -0.00379019 0)
(-0.000217735 0.00472082 0)
(-0.0015164 0.013944 0)
(-0.00433069 0.0227254 0)
(-0.00832754 0.0308929 0)
(-0.0133176 0.0383116 0)
(-0.0191617 0.0448747 0)
(-0.0257131 0.0505028 0)
(-0.0328253 0.055142 0)
(-0.0403576 0.0587618 0)
(-0.0481751 0.0613519 0)
(-0.0561497 0.0629197 0)
(-0.06416 0.0634875 0)
(-0.0720925 0.0630899 0)
(-0.0798417 0.0617716 0)
(-0.0873101 0.0595851 0)
(-0.0944086 0.0565892 0)
(-0.101056 0.0528472 0)
(-0.10718 0.0484259 0)
(-0.112715 0.0433947 0)
(-0.117604 0.0378249 0)
(-0.121797 0.0317894 0)
(-0.125251 0.0253623 0)
(-0.127931 0.0186193 0)
(-0.129808 0.011637 0)
(-0.130861 0.00449406 0)
(-0.131075 -0.00272946 0)
(-0.130444 -0.00995148 0)
(-0.128968 -0.0170879 0)
(-0.126655 -0.0240526 0)
(-0.123521 -0.0307575 0)
(-0.119593 -0.0371131 0)
(-0.114905 -0.0430285 0)
(-0.109502 -0.0484128 0)
(-0.103437 -0.0531758 0)
(-0.0967764 -0.0572294 0)
(-0.0895965 -0.0604895 0)
(-0.0819848 -0.0628775 0)
(-0.0740395 -0.064323 0)
(-0.06587 -0.0647657 0)
(-0.0575954 -0.0641585 0)
(-0.0493443 -0.0624703 0)
(-0.0412534 -0.0596883 0)
(-0.0334659 -0.0558211 0)
(-0.02613 -0.0509009 0)
(-0.0193968 -0.0449861 0)
(-0.0134194 -0.0381627 0)
(-0.00834634 -0.0305458 0)
(-0.00431274 -0.0222792 0)
(-0.00149657 -0.0135343 0)
(-0.000210733 -0.00451742 0)
(-0.000234981 0.00552202 0)
(-0.00163486 0.0161899 0)
(-0.00466568 0.0262551 0)
(-0.00896477 0.0355447 0)
(-0.0143243 0.0439252 0)
(-0.0205908 0.0512921 0)
(-0.027603 0.0575698 0)
(-0.0352013 0.0627094 0)
(-0.0432328 0.0666862 0)
(-0.0515522 0.069497 0)
(-0.0600224 0.0711566 0)
(-0.0685147 0.0716956 0)
(-0.0769096 0.071157 0)
(-0.0850971 0.069594 0)
(-0.0929762 0.0670682 0)
(-0.100455 0.0636466 0)
(-0.107452 0.0594013 0)
(-0.113892 0.0544072 0)
(-0.119711 0.0487417 0)
(-0.12485 0.0424839 0)
(-0.129259 0.0357139 0)
(-0.132897 0.0285132 0)
(-0.135727 0.0209643 0)
(-0.13772 0.013151 0)
(-0.138855 0.00515881 0)
(-0.139117 -0.00292515 0)
(-0.138497 -0.0110115 0)
(-0.136994 -0.0190085 0)
(-0.134615 -0.0268221 0)
(-0.131376 -0.0343556 0)
(-0.127299 -0.0415105 0)
(-0.122417 -0.0481863 0)
(-0.116775 -0.0542818 0)
(-0.110425 -0.0596961 0)
(-0.103432 -0.06433 0)
(-0.0958738 -0.0680877 0)
(-0.0878394 -0.0708791 0)
(-0.0794302 -0.0726219 0)
(-0.0707602 -0.0732451 0)
(-0.0619548 -0.0726908 0)
(-0.053151 -0.0709184 0)
(-0.0444954 -0.0679068 0)
(-0.036143 -0.0636581 0)
(-0.0282555 -0.0581999 0)
(-0.0209993 -0.0515878 0)
(-0.0145439 -0.0439076 0)
(-0.00905457 -0.0352761 0)
(-0.00468266 -0.0258413 0)
(-0.00162614 -0.0157806 0)
(-0.0002292 -0.00530875 0)
(-0.000252826 0.00638439 0)
(-0.00175686 0.018605 0)
(-0.00500987 0.0300467 0)
(-0.00961839 0.0405353 0)
(-0.0153552 0.0499384 0)
(-0.0220518 0.0581548 0)
(-0.0295321 0.0651135 0)
(-0.0376223 0.0707719 0)
(-0.0461571 0.0751129 0)
(-0.0549806 0.0781417 0)
(-0.0639463 0.0798823 0)
(-0.0729184 0.0803749 0)
(-0.0817713 0.0796724 0)
(-0.0903908 0.0778383 0)
(-0.0986728 0.0749436 0)
(-0.106524 0.0710652 0)
(-0.11386 0.0662843 0)
(-0.120607 0.0606847 0)
(-0.1267 0.0543521 0)
(-0.132081 0.0473735 0)
(-0.136701 0.0398366 0)
(-0.140518 0.0318298 0)
(-0.143496 0.0234427 0)
(-0.145607 0.0147656 0)
(-0.146828 0.00589078 0)
(-0.147143 -0.00308797 0)
(-0.146543 -0.0120743 0)
(-0.145025 -0.0209692 0)
(-0.142595 -0.0296707 0)
(-0.139265 -0.038074 0)
(-0.135056 -0.0460713 0)
(-0.129999 -0.0535524 0)
(-0.124134 -0.0604056 0)
(-0.117515 -0.0665187 0)
(-0.110205 -0.0717803 0)
(-0.102281 -0.0760822 0)
(-0.0938324 -0.0793213 0)
(-0.0849646 -0.0814024 0)
(-0.0757952 -0.0822413 0)
(-0.0664562 -0.081768 0)
(-0.0570923 -0.0799302 0)
(-0.0478606 -0.0766968 0)
(-0.0389287 -0.0720613 0)
(-0.0304726 -0.0660448 0)
(-0.0226747 -0.0586992 0)
(-0.0157221 -0.0501085 0)
(-0.00979824 -0.040391 0)
(-0.00507199 -0.0296989 0)
(-0.00176293 -0.0182162 0)
(-0.000248825 -0.00616756 0)
(-0.000271408 0.00730996 0)
(-0.00188318 0.0211945 0)
(-0.00536527 0.0341073 0)
(-0.0102918 0.0458727 0)
(-0.016415 0.0563596 0)
(-0.0235504 0.0654705 0)
(-0.0315063 0.0731404 0)
(-0.0400941 0.0793345 0)
(-0.0491356 0.0840447 0)
(-0.0584637 0.0872863 0)
(-0.0679227 0.0890945 0)
(-0.0773693 0.0895207 0)
(-0.0866726 0.0886295 0)
(-0.095714 0.0864956 0)
(-0.104387 0.0832012 0)
(-0.112597 0.0788339 0)
(-0.120259 0.0734849 0)
(-0.127299 0.0672474 0)
(-0.133654 0.0602158 0)
(-0.139266 0.0524852 0)
(-0.144087 0.0441508 0)
(-0.148076 0.0353081 0)
(-0.151198 0.026053 0)
(-0.153425 0.0164825 0)
(-0.154734 0.00669481 0)
(-0.155109 -0.00320991 0)
(-0.154539 -0.0131288 0)
(-0.15302 -0.0229561 0)
(-0.150554 -0.0325825 0)
(-0.147152 -0.0418948 0)
(-0.142832 -0.0507765 0)
(-0.13762 -0.0591075 0)
(-0.131556 -0.0667653 0)
(-0.124689 -0.0736257 0)
(-0.117081 -0.0795647 0)
(-0.108808 -0.0844604 0)
(-0.0999597 -0.0881952 0)
(-0.090643 -0.0906593 0)
(-0.0809795 -0.0917538 0)
(-0.0711068 -0.0913941 0)
(-0.061178 -0.0895143 0)
(-0.0513606 -0.0860708 0)
(-0.041835 -0.0810465 0)
(-0.0327925 -0.0744543 0)
(-0.0244329 -0.06634 0)
(-0.016962 -0.0567852 0)
(-0.0105831 -0.0459089 0)
(-0.00548407 -0.0338672 0)
(-0.00190825 -0.0208515 0)
(-0.000269832 -0.00709793 0)
(-0.000290851 0.00830119 0)
(-0.00201456 0.0239644 0)
(-0.00573369 0.0384454 0)
(-0.0109879 0.0515664 0)
(-0.0175076 0.0631981 0)
(-0.0250913 0.0732477 0)
(-0.0335304 0.0816573 0)
(-0.0426208 0.0884013 0)
(-0.0521708 0.0934827 0)
(-0.0620018 0.0969289 0)
(-0.0719488 0.098788 0)
(-0.0818611 0.0991248 0)
(-0.0916025 0.0980172 0)
(-0.101051 0.0955528 0)
(-0.110098 0.0918263 0)
(-0.118648 0.086937 0)
(-0.126617 0.0809871 0)
(-0.133932 0.0740797 0)
(-0.14053 0.0663184 0)
(-0.146356 0.0578065 0)
(-0.151364 0.0486466 0)
(-0.155515 0.038941 0)
(-0.158774 0.0287919 0)
(-0.161115 0.018302 0)
(-0.162514 0.00757516 0)
(-0.162955 -0.00328274 0)
(-0.162426 -0.0141631 0)
(-0.16092 -0.0249537 0)
(-0.158437 -0.0355385 0)
(-0.154985 -0.0457967 0)
(-0.150578 -0.055603 0)
(-0.145239 -0.0648275 0)
(-0.139003 -0.0733367 0)
(-0.131915 -0.0809941 0)
(-0.124035 -0.087662 0)
(-0.115436 -0.0932038 0)
(-0.106208 -0.0974862 0)
(-0.0964581 -0.100383 0)
(-0.0863109 -0.101778 0)
(-0.0759092 -0.10157 0)
(-0.065414 -0.0996768 0)
(-0.0550035 -0.0960402 0)
(-0.0448714 -0.0906297 0)
(-0.0352252 -0.0834474 0)
(-0.026283 -0.0745315 0)
(-0.0182712 -0.0639596 0)
(-0.0114144 -0.0518503 0)
(-0.00592209 -0.0383635 0)
(-0.00206337 -0.0236987 0)
(-0.000292443 -0.00810461 0)
(-0.000311279 0.0093609 0)
(-0.0021517 0.0269215 0)
(-0.0061169 0.0430702 0)
(-0.0117098 0.0576268 0)
(-0.018637 0.0704642 0)
(-0.0266787 0.081495 0)
(-0.0356082 0.0906701 0)
(-0.0452051 0.097975 0)
(-0.0552633 0.103426 0)
(-0.0655925 0.107064 0)
(-0.076018 0.108954 0)
(-0.0863823 0.109175 0)
(-0.0965442 0.107819 0)
(-0.106379 0.104991 0)
(-0.115776 0.100798 0)
(-0.124641 0.0953526 0)
(-0.132891 0.0887687 0)
(-0.140455 0.0811602 0)
(-0.147272 0.0726401 0)
(-0.153291 0.0633199 0)
(-0.158468 0.0533097 0)
(-0.162765 0.0427181 0)
(-0.166151 0.031653 0)
(-0.1686 0.0202225 0)
(-0.170089 0.00853515 0)
(-0.170601 -0.00329818 0)
(-0.170124 -0.0151639 0)
(-0.168647 -0.0269443 0)
(-0.166169 -0.038517 0)
(-0.162693 -0.0497544 0)
(-0.158228 -0.0605227 0)
(-0.152794 -0.0706825 0)
(-0.146419 -0.0800893 0)
(-0.139145 -0.0885937 0)
(-0.131027 -0.0960439 0)
(-0.122134 -0.102287 0)
(-0.112554 -0.107173 0)
(-0.102394 -0.110557 0)
(-0.09178 -0.112303 0)
(-0.0808599 -0.112291 0)
(-0.0698018 -0.11042 0)
(-0.0587944 -0.106614 0)
(-0.0480453 -0.100825 0)
(-0.0377788 -0.0930433 0)
(-0.028233 -0.0832961 0)
(-0.0196564 -0.0716552 0)
(-0.0122975 -0.0582378 0)
(-0.00638914 -0.0432073 0)
(-0.00222953 -0.0267714 0)
(-0.000316875 -0.00919298 0)
(-0.000332815 0.0104923 0)
(-0.00229532 0.0300736 0)
(-0.00651666 0.0479922 0)
(-0.0124601 0.0640653 0)
(-0.0198067 0.0781684 0)
(-0.0283162 0.0902208 0)
(-0.0377428 0.100184 0)
(-0.0478482 0.108057 0)
(-0.0584115 0.11387 0)
(-0.06923 0.117684 0)
(-0.0801197 0.119578 0)
(-0.0909163 0.119651 0)
(-0.101474 0.118014 0)
(-0.111666 0.114785 0)
(-0.121383 0.110089 0)
(-0.13053 0.104052 0)
(-0.139027 0.0968007 0)
(-0.146806 0.0884607 0)
(-0.153811 0.0791546 0)
(-0.159994 0.0690022 0)
(-0.165314 0.0581206 0)
(-0.169738 0.0466244 0)
(-0.173236 0.0346268 0)
(-0.175784 0.0222399 0)
(-0.177361 0.00957676 0)
(-0.177949 -0.00324813 0)
(-0.177534 -0.016117 0)
(-0.176105 -0.0289077 0)
(-0.173656 -0.0414927 0)
(-0.170185 -0.0537378 0)
(-0.165698 -0.0655019 0)
(-0.160207 -0.0766362 0)
(-0.153736 -0.0869852 0)
(-0.146318 -0.0963867 0)
(-0.138004 -0.104674 0)
(-0.128857 -0.111677 0)
(-0.118962 -0.117226 0)
(-0.108424 -0.121157 0)
(-0.0973694 -0.123312 0)
(-0.0859489 -0.123548 0)
(-0.0743376 -0.121743 0)
(-0.0627346 -0.117797 0)
(-0.0513614 -0.111646 0)
(-0.0404602 -0.10326 0)
(-0.0302901 -0.0926563 0)
(-0.0211243 -0.0798967 0)
(-0.0132373 -0.0650958 0)
(-0.0068883 -0.0484197 0)
(-0.00240799 -0.0300848 0)
(-0.000343355 -0.0103691 0)
(-0.000355597 0.0116988 0)
(-0.00244619 0.0334295 0)
(-0.00693486 0.0532231 0)
(-0.013242 0.0708943 0)
(-0.0210203 0.0863217 0)
(-0.0300076 0.0994332 0)
(-0.0399365 0.110202 0)
(-0.0505502 0.118644 0)
(-0.0616117 0.124808 0)
(-0.0729057 0.128773 0)
(-0.084239 0.13064 0)
(-0.0954406 0.130529 0)
(-0.106362 0.128569 0)
(-0.116874 0.1249 0)
(-0.126869 0.119661 0)
(-0.136255 0.112996 0)
(-0.144956 0.105045 0)
(-0.152909 0.0959447 0)
(-0.160061 0.0858279 0)
(-0.166371 0.0748228 0)
(-0.171802 0.0630534 0)
(-0.176326 0.0506398 0)
(-0.179916 0.0376991 0)
(-0.18255 0.0243473 0)
(-0.18421 0.0107002 0)
(-0.184877 -0.00312495 0)
(-0.184536 -0.0170075 0)
(-0.183174 -0.0308219 0)
(-0.180781 -0.0444366 0)
(-0.177351 -0.0577122 0)
(-0.172882 -0.0705006 0)
(-0.167381 -0.0826447 0)
(-0.160862 -0.0939781 0)
(-0.153353 -0.104326 0)
(-0.144896 -0.113505 0)
(-0.135547 -0.121328 0)
(-0.125386 -0.127606 0)
(-0.114512 -0.13215 0)
(-0.103052 -0.134779 0)
(-0.0911589 -0.135324 0)
(-0.0790123 -0.133635 0)
(-0.0668213 -0.129591 0)
(-0.0548217 -0.1231 0)
(-0.0432741 -0.114115 0)
(-0.0324607 -0.102634 0)
(-0.022681 -0.0887098 0)
(-0.0142388 -0.0724504 0)
(-0.00742267 -0.054024 0)
(-0.00260004 -0.0336555 0)
(-0.000372122 -0.0116397 0)
(-0.000379786 0.0129846 0)
(-0.00260522 0.0369985 0)
(-0.00737368 0.0587755 0)
(-0.0140588 0.0781268 0)
(-0.0222819 0.0949355 0)
(-0.0317564 0.109139 0)
(-0.0421916 0.120727 0)
(-0.0533101 0.129732 0)
(-0.0648583 0.136226 0)
(-0.0766078 0.140311 0)
(-0.0883562 0.142113 0)
(-0.099927 0.141774 0)
(-0.111169 0.139447 0)
(-0.121954 0.135292 0)
(-0.132176 0.129469 0)
(-0.141747 0.122138 0)
(-0.150598 0.113454 0)
(-0.15867 0.103566 0)
(-0.16592 0.0926168 0)
(-0.172311 0.0807433 0)
(-0.177813 0.0680753 0)
(-0.182402 0.0547377 0)
(-0.186058 0.0408512 0)
(-0.188762 0.0265339 0)
(-0.190495 0.0119033 0)
(-0.191243 -0.00292187 0)
(-0.190987 -0.0178195 0)
(-0.189713 -0.0326624 0)
(-0.187406 -0.0473161 0)
(-0.184055 -0.0616371 0)
(-0.179652 -0.075472 0)
(-0.174194 -0.0886559 0)
(-0.167688 -0.101012 0)
(-0.160151 -0.112353 0)
(-0.151614 -0.12248 0)
(-0.142128 -0.131187 0)