/*--------------------------------*- C++ -*----------------------------------*\
  =========                 |
  \\      /  F ield         | OpenFOAM: The Open Source CFD Toolbox
   \\    /   O peration     | Website:  https://openfoam.org
    \\  /    A nd           | Version:  7
     \\/     M anipulation  |
\*---------------------------------------------------------------------------*/
FoamFile
{
    version     2.0;
    format      ascii;
    class       volVectorField;
    location    "0.044";
    object      U;
}
// * * * * * * * * * * * * * * * * * * * * * * * * * * * * * * * * * * * * * //

dimensions      [0 1 -1 0 0 0 0];

internalField   nonuniform List<vector> 
2500
(
(2.78755e-05 -2.77745e-05 0)
(8.30506e-05 -3.30872e-05 0)
(0.000111223 -1.58592e-05 0)
(7.71285e-05 8.82205e-06 0)
(-2.96694e-05 3.38146e-05 0)
(-0.000207205 5.66746e-05 0)
(-0.000448488 7.63572e-05 0)
(-0.000744806 9.25962e-05 0)
(-0.00108655 0.000105442 0)
(-0.0014639 0.000115056 0)
(-0.00186725 0.000121639 0)
(-0.00228734 0.000125405 0)
(-0.00271543 0.000126568 0)
(-0.00314329 0.000125342 0)
(-0.00356333 0.000121932 0)
(-0.00396852 0.000116541 0)
(-0.00435247 0.000109362 0)
(-0.00470938 0.000100583 0)
(-0.00503408 9.03854e-05 0)
(-0.00532198 7.89459e-05 0)
(-0.0055691 6.64379e-05 0)
(-0.00577206 5.30328e-05 0)
(-0.00592807 3.89018e-05 0)
(-0.00603494 2.42172e-05 0)
(-0.0060911 9.15445e-06 0)
(-0.0060956 -6.10615e-06 0)
(-0.00604813 -2.13782e-05 0)
(-0.00594903 -3.64683e-05 0)
(-0.00579933 -5.11749e-05 0)
(-0.00560078 -6.52884e-05 0)
(-0.00535585 -7.85914e-05 0)
(-0.00506773 -9.08592e-05 0)
(-0.00474039 -0.000101861 0)
(-0.00437859 -0.000111364 0)
(-0.00398781 -0.00011913 0)
(-0.00357432 -0.000124926 0)
(-0.00314512 -0.00012852 0)
(-0.0027079 -0.00012969 0)
(-0.00227099 -0.000128221 0)
(-0.00184331 -0.000123915 0)
(-0.00143423 -0.000116591 0)
(-0.0010535 -0.00010609 0)
(-0.000711048 -9.22886e-05 0)
(-0.000416723 -7.51247e-05 0)
(-0.000179893 -5.46705e-05 0)
(-8.74002e-06 -3.13346e-05 0)
(9.07866e-05 -6.26968e-06 0)
(0.000117783 1.78453e-05 0)
(8.42767e-05 3.41272e-05 0)
(2.75328e-05 2.74758e-05 0)
(3.35794e-05 -8.31194e-05 0)
(7.2295e-05 -7.11462e-05 0)
(1.82674e-05 2.46056e-05 0)
(-0.000181881 0.000152631 0)
(-0.000548933 0.000286733 0)
(-0.00108224 0.000413833 0)
(-0.00176997 0.000527087 0)
(-0.00259396 0.000623315 0)
(-0.00353246 0.000701281 0)
(-0.00456208 0.000760781 0)
(-0.00565894 0.000802197 0)
(-0.00679949 0.000826258 0)
(-0.00796095 0.000833894 0)
(-0.00912166 0.00082616 0)
(-0.0102613 0.000804182 0)
(-0.0113609 0.000769121 0)
(-0.0124031 0.000722154 0)
(-0.0133722 0.000664463 0)
(-0.0142539 0.000597224 0)
(-0.0150356 0.000521609 0)
(-0.0157066 0.000438786 0)
(-0.0162573 0.000349924 0)
(-0.0166803 0.0002562 0)
(-0.0169696 0.000158804 0)
(-0.0171208 5.89492e-05 0)
(-0.0171315 -4.21241e-05 0)
(-0.017001 -0.000143139 0)
(-0.0167302 -0.00024278 0)
(-0.0163223 -0.000339689 0)
(-0.015782 -0.000432469 0)
(-0.0151163 -0.000519682 0)
(-0.0143341 -0.000599864 0)
(-0.0134461 -0.00067153 0)
(-0.0124655 -0.000733191 0)
(-0.0114071 -0.000783374 0)
(-0.0102879 -0.000820643 0)
(-0.00912668 -0.000843624 0)
(-0.00794385 -0.000851041 0)
(-0.0067615 -0.000841747 0)
(-0.00560291 -0.000814774 0)
(-0.00449232 -0.000769388 0)
(-0.00345441 -0.000705172 0)
(-0.00251371 -0.000622164 0)
(-0.00169373 -0.000521082 0)
(-0.00101563 -0.000403756 0)
(-0.000496333 -0.000273997 0)
(-0.000145604 -0.000139193 0)
(3.84508e-05 -1.30326e-05 0)
(7.93935e-05 7.84545e-05 0)
(3.44174e-05 8.42579e-05 0)
(1.74275e-05 -0.000112837 0)
(-2.01481e-05 -1.83546e-05 0)
(-0.000230254 0.000235726 0)
(-0.000656497 0.000557678 0)
(-0.00131891 0.000896582 0)
(-0.00221684 0.00122198 0)
(-0.00333512 0.00151608 0)
(-0.00464934 0.00176913 0)
(-0.00612943 0.00197624 0)
(-0.00774224 0.00213552 0)
(-0.00945325 0.00224695 0)
(-0.0112278 0.00231173 0)
(-0.013032 0.00233183 0)
(-0.0148332 0.00230973 0)
(-0.0166005 0.00224822 0)
(-0.0183052 0.00215032 0)
(-0.0199204 0.00201917 0)
(-0.021422 0.00185795 0)
(-0.0227881 0.00166992 0)
(-0.023999 0.00145833 0)
(-0.025038 0.00122647 0)
(-0.0258906 0.000977628 0)
(-0.026545 0.000715152 0)
(-0.0269921 0.000442421 0)
(-0.0272251 0.000162879 0)
(-0.0272405 -0.000119951 0)
(-0.027037 -0.000402452 0)
(-0.0266164 -0.000680912 0)
(-0.0259836 -0.000951512 0)
(-0.0251462 -0.00121034 0)
(-0.0241149 -0.00145339 0)
(-0.0229035 -0.00167662 0)
(-0.0215289 -0.00187592 0)
(-0.0200111 -0.00204724 0)
(-0.0183732 -0.00218658 0)
(-0.0166409 -0.0022901 0)
(-0.014843 -0.00235418 0)
(-0.0130104 -0.00237552 0)
(-0.0111765 -0.00235128 0)
(-0.00937613 -0.00227921 0)
(-0.00764523 -0.00215785 0)
(-0.00602003 -0.0019868 0)
(-0.00453602 -0.00176712 0)
(-0.00322653 -0.00150198 0)
(-0.00212088 -0.00119767 0)
(-0.00124181 -0.000865397 0)
(-0.000601872 -0.000524277 0)
(-0.000198488 -0.000205827 0)
(-8.0776e-06 3.87354e-05 0)
(1.9167e-05 0.000119294 0)
(-5.97762e-06 -8.26131e-05 0)
(-0.00014475 0.000177817 0)
(-0.000548129 0.00066072 0)
(-0.00123522 0.0012428 0)
(-0.00221654 0.00184971 0)
(-0.00348785 0.00243334 0)
(-0.00502961 0.00296341 0)
(-0.00681183 0.00342188 0)
(-0.00879784 0.00379876 0)
(-0.0109469 0.00408939 0)
(-0.0132161 0.00429267 0)
(-0.0155621 0.00440993 0)
(-0.0179421 0.00444418 0)
(-0.0203144 0.00439952 0)
(-0.0226396 0.00428082 0)
(-0.0248806 0.00409347 0)
(-0.0270028 0.00384317 0)
(-0.0289748 0.00353586 0)
(-0.0307681 0.0031776 0)
(-0.0323573 0.00277453 0)
(-0.0337204 0.00233289 0)
(-0.0348386 0.00185896 0)
(-0.0356965 0.00135912 0)
(-0.0362822 0.000839847 0)
(-0.0365871 0.000307728 0)
(-0.0366064 -0.000230492 0)
(-0.0363386 -0.000767905 0)
(-0.0357864 -0.00129743 0)
(-0.0349558 -0.0018118 0)
(-0.0338571 -0.00230361 0)
(-0.0325042 -0.00276528 0)
(-0.0309152 -0.00318917 0)
(-0.0291121 -0.00356763 0)
(-0.0271209 -0.00389307 0)
(-0.0249712 -0.00415808 0)
(-0.0226966 -0.00435559 0)
(-0.0203339 -0.00447903 0)
(-0.0179228 -0.00452251 0)
(-0.0155059 -0.00448109 0)
(-0.0131275 -0.00435105 0)
(-0.0108328 -0.00413032 0)
(-0.0086673 -0.00381896 0)
(-0.00667507 -0.00341988 0)
(-0.00489718 -0.00293995 0)
(-0.00336954 -0.00239162 0)
(-0.00212027 -0.00179539 0)
(-0.00116596 -0.00118383 0)
(-0.000507095 -0.00060681 0)
(-0.000128316 -0.000139381 0)
(-3.10631e-06 9.6973e-05 0)
(-2.99352e-05 1.8228e-05 0)
(-0.000278133 0.000540711 0)
(-0.000891976 0.00132464 0)
(-0.00185774 0.00222623 0)
(-0.00317132 0.00315251 0)
(-0.00482164 0.00403986 0)
(-0.00678298 0.00484601 0)
(-0.0090193 0.00554432 0)
(-0.0114877 0.00611905 0)
(-0.0141409 0.00656212 0)
(-0.0169291 0.0068709 0)
(-0.0198017 0.00704656 0)
(-0.0227084 0.00709301 0)
(-0.0256003 0.00701606 0)
(-0.0284309 0.0068229 0)
(-0.0311559 0.00652163 0)
(-0.0337344 0.006121 0)
(-0.0361288 0.00563019 0)
(-0.0383051 0.00505867 0)
(-0.040233 0.00441612 0)
(-0.041886 0.00371239 0)
(-0.0432417 0.00295746 0)
(-0.0442816 0.00216146 0)
(-0.0449913 0.00133471 0)
(-0.0453608 0.0004877 0)
(-0.0453841 -0.000368825 0)
(-0.0450597 -0.00122388 0)
(-0.0443906 -0.00206621 0)
(-0.0433844 -0.00288431 0)
(-0.0420531 -0.00366644 0)
(-0.0404136 -0.00440066 0)
(-0.0384876 -0.00507496 0)
(-0.0363013 -0.0056773 0)
(-0.0338857 -0.00619586 0)
(-0.0312762 -0.00661912 0)
(-0.0285126 -0.00693617 0)
(-0.0256386 -0.00713694 0)
(-0.0227014 -0.00721256 0)
(-0.0197509 -0.00715574 0)
(-0.0168393 -0.00696122 0)
(-0.0140198 -0.00662645 0)
(-0.0113454 -0.00615231 0)
(-0.00886739 -0.00554416 0)
(-0.00663371 -0.00481335 0)
(-0.00468655 -0.00397919 0)
(-0.00306003 -0.00307204 0)
(-0.00177668 -0.00213754 0)
(-0.000843351 -0.00124206 0)
(-0.000258246 -0.000479995 0)
(-2.62721e-05 5.7491e-06 0)
(-5.24659e-05 0.000189902 0)
(-0.000410114 0.00107612 0)
(-0.00123903 0.00223781 0)
(-0.00249004 0.00351917 0)
(-0.00414162 0.00481377 0)
(-0.00617332 0.00604541 0)
(-0.00855151 0.00716137 0)
(-0.0112331 0.00812694 0)
(-0.0141687 0.00892073 0)
(-0.0173047 0.00953111 0)
(-0.0205851 0.00995371 0)
(-0.023953 0.0101894 0)
(-0.0273516 0.010243 0)
(-0.030726 0.0101221 0)
(-0.0340234 0.00983644 0)
(-0.0371938 0.00939707 0)
(-0.0401908 0.00881617 0)
(-0.0429716 0.00810662 0)
(-0.0454976 0.00728181 0)
(-0.0477342 0.00635546 0)
(-0.0496513 0.00534162 0)
(-0.0512232 0.00425456 0)
(-0.052429 0.00310879 0)
(-0.0532521 0.00191908 0)
(-0.0536812 0.000700514 0)
(-0.0537093 -0.00053153 0)
(-0.053335 -0.00176131 0)
(-0.0525614 -0.00297271 0)
(-0.0513972 -0.0041493 0)
(-0.0498562 -0.0052743 0)
(-0.0479575 -0.00633073 0)
(-0.0457258 -0.0073015 0)
(-0.043191 -0.00816957 0)
(-0.0403881 -0.00891821 0)
(-0.0373574 -0.00953121 0)
(-0.0341441 -0.00999329 0)
(-0.0307975 -0.0102904 0)
(-0.0273711 -0.0104104 0)
(-0.0239213 -0.0103434 0)
(-0.020507 -0.0100825 0)
(-0.0171882 -0.00962462 0)
(-0.0140247 -0.00897172 0)
(-0.0110746 -0.00813185 0)
(-0.00839226 -0.00712105 0)
(-0.00602667 -0.00596563 0)
(-0.004019 -0.00470534 0)
(-0.00239955 -0.00339768 0)
(-0.00118409 -0.00212281 0)
(-0.000387322 -0.000989756 0)
(-4.81641e-05 -0.000154565 0)
(-7.30793e-05 0.000429153 0)
(-0.000536695 0.0017825 0)
(-0.0015787 0.00340146 0)
(-0.00311495 0.00512437 0)
(-0.00510533 0.00683574 0)
(-0.00751845 0.00844994 0)
(-0.0103112 0.00990571 0)
(-0.0134325 0.0111614 0)
(-0.0168259 0.0121907 0)
(-0.0204312 0.0129785 0)
(-0.0241865 0.013519 0)
(-0.0280287 0.0138129 0)
(-0.0318956 0.0138659 0)
(-0.0357266 0.0136876 0)
(-0.0394637 0.0132905 0)
(-0.0430519 0.0126888 0)
(-0.0464401 0.0118986 0)
(-0.0495811 0.0109368 0)
(-0.0524324 0.00982103 0)
(-0.0549558 0.00856964 0)
(-0.0571181 0.0072013 0)
(-0.0588909 0.00573506 0)
(-0.060251 0.00419033 0)
(-0.0611804 0.0025869 0)
(-0.061666 0.000944936 0)
(-0.0617006 -0.000714968 0)
(-0.0612822 -0.00237175 0)
(-0.0604143 -0.00400388 0)
(-0.0591063 -0.00558938 0)
(-0.0573735 -0.00710589 0)
(-0.0552369 -0.00853078 0)
(-0.0527233 -0.0098413 0)
(-0.0498658 -0.0110148 0)
(-0.046703 -0.0120292 0)
(-0.0432791 -0.0128629 0)
(-0.0396438 -0.0134959 0)
(-0.0358514 -0.0139098 0)
(-0.0319608 -0.0140886 0)
(-0.0280342 -0.0140197 0)
(-0.0241365 -0.0136942 0)
(-0.0203339 -0.0131087 0)
(-0.0166926 -0.0122659 0)
(-0.0132775 -0.0111766 0)
(-0.0101499 -0.00986118 0)
(-0.00736597 -0.00835259 0)
(-0.00497528 -0.00669905 0)
(-0.00301738 -0.00496819 0)
(-0.00151861 -0.00325123 0)
(-0.000511409 -0.00166772 0)
(-6.82118e-05 -0.000381011 0)
(-9.19242e-05 0.000732217 0)
(-0.000657091 0.00265521 0)
(-0.0019075 0.00481241 0)
(-0.00372583 0.00704015 0)
(-0.00605335 0.00921739 0)
(-0.00884673 0.0112518 0)
(-0.0120525 0.0130756 0)
(-0.0156103 0.0146419 0)
(-0.0194562 0.0159198 0)
(-0.0235231 0.0168921 0)
(-0.0277427 0.0175515 0)
(-0.0320462 0.0178989 0)
(-0.0363662 0.0179413 0)
(-0.0406369 0.0176906 0)
(-0.0447955 0.0171621 0)
(-0.0487827 0.0163738 0)
(-0.0525432 0.0153457 0)
(-0.0560262 0.0140992 0)
(-0.0591857 0.0126567 0)
(-0.0619806 0.0110414 0)
(-0.0643749 0.00927693 0)
(-0.0663381 0.0073877 0)
(-0.067845 0.00539839 0)
(-0.068876 0.0033342 0)
(-0.0694171 0.00122086 0)
(-0.0694603 -0.000915375 0)
(-0.0690032 -0.00304766 0)
(-0.0680496 -0.00514858 0)
(-0.0666094 -0.00719014 0)
(-0.0646988 -0.0091439 0)
(-0.0623403 -0.0109811 0)
(-0.0595629 -0.0126727 0)
(-0.0564018 -0.0141902 0)
(-0.0528986 -0.0155052 0)
(-0.0491009 -0.0165908 0)
(-0.0450624 -0.0174214 0)
(-0.0408418 -0.0179738 0)
(-0.0365026 -0.0182281 0)
(-0.0321126 -0.0181682 0)
(-0.027742 -0.0177833 0)
(-0.0234633 -0.0170689 0)
(-0.0193493 -0.0160285 0)
(-0.0154714 -0.0146749 0)
(-0.0118987 -0.0130328 0)
(-0.00869549 -0.0111406 0)
(-0.00592056 -0.009054 0)
(-0.00362396 -0.00684891 0)
(-0.00184358 -0.00462518 0)
(-0.000629706 -0.00250984 0)
(-8.65259e-05 -0.000669981 0)
(-0.000109365 0.00109561 0)
(-0.00077201 0.00368896 0)
(-0.00222577 0.00646603 0)
(-0.00432226 0.00926337 0)
(-0.00698456 0.0119568 0)
(-0.010157 0.0144496 0)
(-0.013775 0.0166695 0)
(-0.0177684 0.0185654 0)
(-0.0220648 0.0201038 0)
(-0.0265898 0.0212654 0)
(-0.0312685 0.0220426 0)
(-0.0360265 0.0224368 0)
(-0.0407908 0.0224569 0)
(-0.045491 0.0221172 0)
(-0.0500598 0.0214366 0)
(-0.054434 0.0204369 0)
(-0.0585547 0.0191425 0)
(-0.0623678 0.0175796 0)
(-0.0658242 0.0157756 0)
(-0.0688805 0.013759 0)
(-0.0714983 0.011559 0)
(-0.0736451 0.0092053 0)
(-0.0752943 0.00672836 0)
(-0.0764248 0.00415916 0)
(-0.0770217 0.00152932 0)
(-0.0770762 -0.00112889 0)
(-0.0765856 -0.00378247 0)
(-0.0755536 -0.00639771 0)
(-0.0739906 -0.00894023 0)
(-0.0719134 -0.0113751 0)
(-0.0693455 -0.0136668 0)
(-0.0663174 -0.0157801 0)
(-0.0628664 -0.0176794 0)
(-0.0590364 -0.0193303 0)
(-0.0548781 -0.0206994 0)
(-0.0504482 -0.0217554 0)
(-0.0458097 -0.0224699 0)
(-0.0410305 -0.0228182 0)
(-0.0361833 -0.0227807 0)
(-0.031344 -0.0223439 0)
(-0.026591 -0.0215019 0)
(-0.0220039 -0.0202582 0)
(-0.0176617 -0.0186274 0)
(-0.0136412 -0.0166373 0)
(-0.010016 -0.0143312 0)
(-0.00685508 -0.0117707 0)
(-0.00421964 -0.00903857 0)
(-0.00215972 -0.00624138 0)
(-0.000743028 -0.00351154 0)
(-0.000103476 -0.00101819 0)
(-0.000125801 0.00151655 0)
(-0.000882773 0.00487909 0)
(-0.00253575 0.00835802 0)
(-0.00490719 0.011791 0)
(-0.0079026 0.0150524 0)
(-0.0114539 0.0180428 0)
(-0.0154847 0.0206871 0)
(-0.0199147 0.0229318 0)
(-0.0246622 0.0247414 0)
(-0.0296453 0.0260961 0)
(-0.034782 0.0269885 0)
(-0.039992 0.0274215 0)
(-0.0451969 0.0274061 0)
(-0.0503216 0.0269599 0)
(-0.0552946 0.0261054 0)
(-0.060049 0.0248689 0)
(-0.0645227 0.0232797 0)
(-0.0686586 0.021369 0)
(-0.0724053 0.0191696 0)
(-0.0757169 0.0167156 0)
(-0.0785532 0.0140418 0)
(-0.0808801 0.0111839 0)
(-0.0826695 0.00817815 0)
(-0.0838992 0.00506172 0)
(-0.0845534 0.00187232 0)
(-0.0846226 -0.00135144 0)
(-0.0841036 -0.00457016 0)
(-0.083 -0.00774353 0)
(-0.0813221 -0.0108304 0)
(-0.0790872 -0.0137891 0)
(-0.0763197 -0.0165771 0)
(-0.0730509 -0.019152 0)
(-0.0693197 -0.0214714 0)
(-0.0651721 -0.0234938 0)
(-0.0606612 -0.0251792 0)
(-0.0558468 -0.02649 0)
(-0.0507954 -0.0273918 0)
(-0.0455792 -0.0278548 0)
(-0.0402757 -0.0278551 0)
(-0.0349666 -0.0273758 0)
(-0.0297366 -0.0264092 0)
(-0.0246721 -0.0249581 0)
(-0.0198602 -0.0230378 0)
(-0.0153866 -0.0206785 0)
(-0.0113347 -0.0179273 0)
(-0.00778421 -0.0148506 0)
(-0.00480851 -0.0115366 0)
(-0.00246986 -0.00809722 0)
(-0.000852901 -0.00466917 0)
(-0.00011949 -0.00142315 0)
(-0.000141603 0.00199312 0)
(-0.000990906 0.0062223 0)
(-0.0028406 0.0104854 0)
(-0.00548536 0.0146212 0)
(-0.0088137 0.0185038 0)
(-0.012745 0.0220323 0)
(-0.0171911 0.0251303 0)
(-0.0220605 0.027743 0)
(-0.0272623 0.0298346 0)
(-0.0327061 0.0313854 0)
(-0.0383029 0.0323895 0)
(-0.0439658 0.0328519 0)
(-0.0496111 0.0327867 0)
(-0.055159 0.0322152 0)
(-0.0605341 0.0311643 0)
(-0.0656658 0.0296652 0)
(-0.070489 0.0277523 0)
(-0.0749442 0.0254624 0)
(-0.0789776 0.022834 0)
(-0.0825414 0.0199071 0)
(-0.0855939 0.0167224 0)
(-0.0880996 0.0133217 0)
(-0.0900291 0.00974757 0)
(-0.0913592 0.00604319 0)
(-0.0920733 0.00225274 0)
(-0.092161 -0.00157868 0)
(-0.0916188 -0.00540502 0)
(-0.0904498 -0.00917916 0)
(-0.0886642 -0.012853 0)
(-0.0862794 -0.0163776 0)
(-0.08332 -0.0197033 0)
(-0.0798182 -0.0227801 0)
(-0.075814 -0.0255583 0)
(-0.071355 -0.027989 0)
(-0.0664962 -0.030025 0)
(-0.0613003 -0.0316215 0)
(-0.0558371 -0.0327378 0)
(-0.0501831 -0.0333382 0)
(-0.0444204 -0.0333936 0)
(-0.0386365 -0.0328833 0)
(-0.0329227 -0.0317966 0)
(-0.0273732 -0.0301347 0)
(-0.0220832 -0.027913 0)
(-0.0171482 -0.025163 0)
(-0.012662 -0.0219343 0)
(-0.00871631 -0.0182971 0)
(-0.00539664 -0.0143442 0)
(-0.00277786 -0.0101919 0)
(-0.000961119 -0.00598076 0)
(-0.000134984 -0.00188335 0)
(-0.000157103 0.0025243 0)
(-0.00109795 0.00771695 0)
(-0.00314374 0.0128469 0)
(-0.00606226 0.0177541 0)
(-0.00972535 0.0223124 0)
(-0.0140399 0.0264209 0)
(-0.0189054 0.0300027 0)
(-0.0242193 0.0330031 0)
(-0.0298805 0.0353872 0)
(-0.0357899 0.0371369 0)
(-0.0418509 0.0382483 0)
(-0.0479702 0.0387299 0)
(-0.0540583 0.0385995 0)
(-0.0600309 0.0378831 0)
(-0.0658084 0.0366124 0)
(-0.071317 0.0348241 0)
(-0.0764888 0.0325583 0)
(-0.0812619 0.0298577 0)
(-0.0855807 0.026767 0)
(-0.0893958 0.0233321 0)
(-0.092664 0.0196002 0)
(-0.0953487 0.0156191 0)
(-0.0974195 0.0114379 0)
(-0.0988523 0.007106 0)
(-0.0996295 0.00267419 0)
(-0.0997403 -0.00180586 0)
(-0.0991803 -0.00628131 0)
(-0.0979522 -0.0106981 0)
(-0.0960657 -0.0150009 0)
(-0.0935379 -0.0191334 0)
(-0.0903937 -0.0230383 0)
(-0.0866654 -0.026658 0)
(-0.0823938 -0.0299348 0)
(-0.0776275 -0.0328118 0)
(-0.0724236 -0.0352341 0)
(-0.066847 -0.0371493 0)
(-0.0609707 -0.0385093 0)
(-0.0548751 -0.0392719 0)
(-0.0486474 -0.0394019 0)
(-0.0423809 -0.0388738 0)
(-0.0361738 -0.0376728 0)
(-0.0301284 -0.0357978 0)
(-0.0243492 -0.0332629 0)
(-0.0189416 -0.0300998 0)
(-0.014011 -0.02636 0)
(-0.00966129 -0.0221164 0)
(-0.00599112 -0.0174653 0)
(-0.00308803 -0.0125272 0)
(-0.00106954 -0.00744635 0)
(-0.00015034 -0.00239831 0)
(-0.000172592 0.00310984 0)
(-0.00120536 0.00936308 0)
(-0.00344863 0.0154436 0)
(-0.00664356 0.0211918 0)
(-0.0106454 0.0264819 0)
(-0.0153485 0.0312133 0)
(-0.0206398 0.0353098 0)
(-0.0264049 0.0387182 0)
(-0.0325324 0.0414054 0)
(-0.0389141 0.043356 0)
(-0.0454452 0.0445699 0)
(-0.0520259 0.0450595 0)
(-0.0585609 0.0448476 0)
(-0.064961 0.0439654 0)
(-0.0711428 0.0424506 0)
(-0.0770294 0.0403458 0)
(-0.0825501 0.0376974 0)
(-0.0876412 0.0345545 0)
(-0.0922453 0.030968 0)
(-0.0963116 0.0269906 0)
(-0.0997961 0.0226755 0)
(-0.102661 0.0180773 0)
(-0.104875 0.0132512 0)
(-0.106413 0.00825335 0)
(-0.107258 0.00314088 0)
(-0.107397 -0.00202783 0)
(-0.106825 -0.00719308 0)
(-0.105544 -0.0122937 0)
(-0.103564 -0.0172672 0)
(-0.1009 -0.0220496 0)
(-0.0975777 -0.0265758 0)
(-0.0936291 -0.03078 0)
(-0.0890952 -0.0345963 0)
(-0.0840254 -0.0379594 0)
(-0.0784781 -0.0408057 0)
(-0.0725204 -0.0430746 0)
(-0.0662283 -0.0447099 0)
(-0.0596859 -0.0456618 0)
(-0.0529855 -0.0458881 0)
(-0.0462265 -0.0453571 0)
(-0.0395145 -0.0440493 0)
(-0.03296 -0.0419597 0)
(-0.0266775 -0.0391 0)
(-0.0207834 -0.0355013 0)
(-0.0153951 -0.0312155 0)
(-0.0106297 -0.0263175 0)
(-0.00659935 -0.0209067 0)
(-0.00340476 -0.0151075 0)
(-0.00117997 -0.00906817 0)
(-0.000165905 -0.00296853 0)
(-0.000188321 0.0037503 0)
(-0.00131448 0.0111624 0)
(-0.00375853 0.0182786 0)
(-0.00723475 0.0249389 0)
(-0.0115817 0.0310179 0)
(-0.0166807 0.0364162 0)
(-0.0224059 0.0410592 0)
(-0.0286307 0.0448959 0)
(-0.035233 0.0478966 0)
(-0.0420947 0.0500499 0)
(-0.0491031 0.0513603 0)
(-0.056151 0.0518457 0)
(-0.0631377 0.0515349 0)
(-0.0699688 0.0504652 0)
(-0.0765573 0.0486809 0)
(-0.0828232 0.0462315 0)
(-0.0886937 0.0431702 0)
(-0.0941029 0.039553 0)
(-0.0989924 0.0354375 0)
(-0.10331 0.0308831 0)
(-0.107012 0.0259496 0)
(-0.110058 0.0206982 0)
(-0.112418 0.0151905 0)
(-0.114065 0.00948899 0)
(-0.114981 0.00365753 0)
(-0.115153 -0.00223895 0)
(-0.114576 -0.00813392 0)
(-0.113249 -0.0139592 0)
(-0.111183 -0.0196449 0)
(-0.108391 -0.0251192 0)
(-0.104898 -0.0303092 0)
(-0.100736 -0.0351405 0)
(-0.0959454 -0.0395386 0)
(-0.0905761 -0.043429 0)
(-0.0846875 -0.0467392 0)
(-0.0783484 -0.0493992 0)
(-0.0716375 -0.051344 0)
(-0.0646427 -0.0525148 0)
(-0.0574612 -0.0528616 0)
(-0.0501986 -0.0523451 0)
(-0.0429682 -0.0509396 0)
(-0.0358896 -0.0486351 0)
(-0.0290875 -0.0454397 0)
(-0.0226903 -0.0413824 0)
(-0.0168282 -0.0365147 0)
(-0.0116322 -0.0309127 0)
(-0.00722875 -0.0246785 0)
(-0.00373237 -0.0179401 0)
(-0.00129415 -0.0108506 0)
(-0.000181995 -0.00359547 0)
(-0.000204508 0.00444685 0)
(-0.00142653 0.0131182 0)
(-0.00407646 0.0213569 0)
(-0.00784101 0.0290019 0)
(-0.0125415 0.0359285 0)
(-0.0180459 0.0420385 0)
(-0.0242149 0.0472599 0)
(-0.0309094 0.0515454 0)
(-0.0379958 0.0548695 0)
(-0.0453462 0.0572263 0)
(-0.0528392 0.0586264 0)
(-0.0603605 0.0590942 0)
(-0.0678033 0.0586655 0)
(-0.0750686 0.0573853 0)
(-0.0820657 0.0553052 0)
(-0.0887117 0.0524822 0)
(-0.0949318 0.0489772 0)
(-0.100659 0.0448533 0)
(-0.105833 0.0401755 0)
(-0.110402 0.03501 0)
(-0.11432 0.0294235 0)
(-0.117549 0.0234835 0)
(-0.120057 0.0172583 0)
(-0.121816 0.0108168 0)
(-0.122808 0.00422921 0)
(-0.12302 -0.00243308 0)
(-0.122443 -0.00909678 0)
(-0.12108 -0.0156867 0)
(-0.118935 -0.0221257 0)
(-0.116024 -0.0283341 0)
(-0.11237 -0.0342308 0)
(-0.108002 -0.0397328 0)
(-0.102962 -0.0447563 0)
(-0.0972986 -0.0492174 0)
(-0.091072 -0.0530335 0)
(-0.0843524 -0.0561247 0)
(-0.0772206 -0.0584158 0)
(-0.0697683 -0.0598383 0)
(-0.0620974 -0.0603324 0)
(-0.0543199 -0.0598504 0)
(-0.0465569 -0.0583587 0)
(-0.0389377 -0.0558406 0)
(-0.031598 -0.0522995 0)
(-0.0246787 -0.0477609 0)
(-0.0183237 -0.0422748 0)
(-0.0126791 -0.0359176 0)
(-0.0078865 -0.0287937 0)
(-0.00407499 -0.0210351 0)
(-0.00141371 -0.0128001 0)
(-0.000198895 -0.00428147 0)
(-0.000221346 0.00520133 0)
(-0.00154258 0.0152352 0)
(-0.00440518 0.0246855 0)
(-0.00846705 0.0333898 0)
(-0.0135315 0.0412236 0)
(-0.0194526 0.0480908 0)
(-0.0260768 0.0539228 0)
(-0.033252 0.0586769 0)
(-0.0408326 0.0623335 0)
(-0.0486805 0.0648935 0)
(-0.0566653 0.0663748 0)
(-0.0646653 0.0668099 0)
(-0.0725677 0.0662431 0)
(-0.0802691 0.0647278 0)
(-0.0876751 0.0623241 0)
(-0.0947003 0.0590977 0)
(-0.101268 0.0551173 0)
(-0.10731 0.0504542 0)
(-0.112767 0.0451809 0)
(-0.117585 0.0393706 0)
(-0.121719 0.0330971 0)
(-0.125131 0.0264345 0)
(-0.127787 0.0194573 0)
(-0.129661 0.0122407 0)
(-0.130734 0.00486116 0)
(-0.130991 -0.0026036 0)
(-0.130423 -0.0100738 0)
(-0.129031 -0.0174675 0)
(-0.126819 -0.0247002 0)
(-0.123799 -0.0316847 0)
(-0.119994 -0.0383313 0)
(-0.115432 -0.0445482 0)
(-0.110151 -0.0502421 0)
(-0.104202 -0.055319 0)
(-0.0976433 -0.0596855 0)
(-0.0905462 -0.0632508 0)
(-0.0829936 -0.0659283 0)
(-0.0750802 -0.0676383 0)
(-0.0669128 -0.0683102 0)
(-0.0586096 -0.0678859 0)
(-0.0503 -0.0663221 0)
(-0.042123 -0.0635943 0)
(-0.0342262 -0.059699 0)
(-0.0267638 -0.054657 0)
(-0.0198945 -0.0485156 0)
(-0.0137804 -0.0413508 0)
(-0.00857946 -0.0332687 0)
(-0.00443656 -0.0244052 0)
(-0.00154019 -0.0149251 0)
(-0.000216871 -0.0050297 0)
(-0.000239001 0.00601606 0)
(-0.00166363 0.0175193 0)
(-0.00474717 0.0282732 0)
(-0.00911714 0.0381131 0)
(-0.0145578 0.0469149 0)
(-0.0209083 0.0545852 0)
(-0.0280004 0.0610595 0)
(-0.0356679 0.0663013 0)
(-0.043753 0.0702981 0)
(-0.0521066 0.0730591 0)
(-0.0605892 0.0746113 0)
(-0.0690717 0.0749968 0)
(-0.0774355 0.0742695 0)
(-0.0855724 0.0724927 0)
(-0.0933849 0.0697364 0)
(-0.100786 0.0660754 0)
(-0.107697 0.0615875 0)
(-0.114049 0.0563524 0)
(-0.119783 0.0504504 0)
(-0.124846 0.0439625 0)
(-0.129193 0.0369691 0)
(-0.132785 0.029551 0)
(-0.135589 0.0217889 0)
(-0.13758 0.013764 0)
(-0.138738 0.00555862 0)
(-0.139046 -0.00274344 0)
(-0.138496 -0.0110563 0)
(-0.137085 -0.0192914 0)
(-0.134817 -0.0273572 0)
(-0.131702 -0.0351589 0)
(-0.127759 -0.0425986 0)
(-0.123016 -0.0495754 0)
(-0.117508 -0.0559859 0)
(-0.111285 -0.0617254 0)
(-0.104403 -0.0666893 0)
(-0.0969352 -0.0707745 0)
(-0.088965 -0.0738821 0)
(-0.0805899 -0.0759193 0)
(-0.071921 -0.0768033 0)
(-0.063083 -0.0764635 0)
(-0.0542135 -0.0748456 0)
(-0.0454617 -0.0719147 0)
(-0.0369877 -0.0676591 0)
(-0.0289596 -0.062093 0)
(-0.0215524 -0.0552596 0)
(-0.0149453 -0.0472337 0)
(-0.00931411 -0.0381224 0)
(-0.00482082 -0.0280661 0)
(-0.00167504 -0.0172361 0)
(-0.00023617 -0.0058441 0)
(-0.000257627 0.00689388 0)
(-0.00179056 0.0199778 0)
(-0.00510467 0.0321303 0)
(-0.00979512 0.043184 0)
(-0.0156257 0.0530157 0)
(-0.0224196 0.0615349 0)
(-0.0299929 0.0686826 0)
(-0.0381647 0.0744296 0)
(-0.0467639 0.0787723 0)
(-0.0556303 0.0817299 0)
(-0.0646151 0.0833401 0)
(-0.0735815 0.0836563 0)
(-0.0824051 0.0827439 0)
(-0.0909736 0.0806773 0)
(-0.0991866 0.0775374 0)
(-0.106955 0.0734095 0)
(-0.114201 0.0683811 0)
(-0.120855 0.062541 0)
(-0.126858 0.0559779 0)
(-0.132157 0.0487802 0)
(-0.13671 0.0410356 0)
(-0.140477 0.032831 0)
(-0.143428 0.0242532 0)
(-0.145537 0.0153891 0)
(-0.146782 0.00632656 0)
(-0.147147 -0.00284516 0)
(-0.146624 -0.0120344 0)
(-0.145206 -0.0211464 0)
(-0.142896 -0.030083 0)
(-0.139702 -0.0387422 0)
(-0.135639 -0.0470176 0)
(-0.130731 -0.0547992 0)
(-0.125014 -0.0619734 0)
(-0.118532 -0.0684242 0)
(-0.111342 -0.0740348 0)
(-0.103515 -0.078689 0)
(-0.0951346 -0.0822739 0)
(-0.0863013 -0.0846825 0)
(-0.0771298 -0.0858173 0)
(-0.0677507 -0.0855937 0)
(-0.0583099 -0.0839438 0)
(-0.0489673 -0.0808205 0)
(-0.0398958 -0.0762015 0)
(-0.0312788 -0.0700926 0)
(-0.0233085 -0.0625316 0)
(-0.0161826 -0.0535903 0)
(-0.0100966 -0.0433768 0)
(-0.00523129 -0.0320354 0)
(-0.00181963 -0.0197452 0)
(-0.000257026 -0.00672935 0)
(-0.000277361 0.00783805 0)
(-0.00192416 0.0226188 0)
(-0.00547973 0.0362684 0)
(-0.0105044 0.0486165 0)
(-0.0167399 0.0595405 0)
(-0.0239922 0.068954 0)
(-0.0320604 0.0768048 0)
(-0.0407478 0.0830724 0)
(-0.0498697 0.0877639 0)
(-0.0592541 0.0909105 0)
(-0.0687425 0.0925627 0)
(-0.0781907 0.0927869 0)
(-0.0874686 0.0916617 0)
(-0.0964601 0.0892744 0)
(-0.105063 0.0857181 0)
(-0.113186 0.0810896 0)
(-0.120753 0.0754872 0)
(-0.127694 0.0690091 0)
(-0.133952 0.0617529 0)
(-0.139476 0.0538148 0)
(-0.144224 0.0452893 0)
(-0.148159 0.0362697 0)
(-0.151252 0.0268483 0)
(-0.153476 0.0171173 0)
(-0.15481 0.0071694 0)
(-0.15524 -0.00290103 0)
(-0.154752 -0.0129972 0)
(-0.153341 -0.0230189 0)
(-0.151006 -0.0328616 0)
(-0.14775 -0.0424164 0)
(-0.143588 -0.0515689 0)
(-0.13854 -0.0601998 0)
(-0.132635 -0.0681853 0)
(-0.125917 -0.0753976 0)
(-0.118439 -0.0817066 0)
(-0.110269 -0.0869821 0)
(-0.101493 -0.0910957 0)
(-0.0922103 -0.0939244 0)
(-0.0825398 -0.0953542 0)
(-0.0726174 -0.0952838 0)
(-0.0625971 -0.0936294 0)
(-0.0526498 -0.0903293 0)
(-0.0429616 -0.0853479 0)
(-0.0337324 -0.0786807 0)
(-0.0251724 -0.0703578 0)
(-0.0175002 -0.0604468 0)
(-0.0109326 -0.0490559 0)
(-0.00567133 -0.0363333 0)
(-0.0019753 -0.0224662 0)
(-0.000279669 -0.00769082 0)
(-0.000298336 0.00885225 0)
(-0.00206522 0.0254515 0)
(-0.00587428 0.0407005 0)
(-0.0112482 0.0544253 0)
(-0.0179047 0.0665047 0)
(-0.0256308 0.0768571 0)
(-0.0342075 0.0854385 0)
(-0.043421 0.092239 0)
(-0.0530722 0.0972788 0)
(-0.0629767 0.100603 0)
(-0.0729664 0.102277 0)
(-0.0828896 0.102382 0)
(-0.0926109 0.101013 0)
(-0.102011 0.0982715 0)
(-0.110986 0.0942638 0)
(-0.119446 0.0890996 0)
(-0.127313 0.0828888 0)
(-0.134521 0.07574 0)
(-0.141014 0.0677599 0)
(-0.146744 0.0590524 0)
(-0.151672 0.049719 0)
(-0.155763 0.0398589 0)
(-0.158989 0.0295696 0)
(-0.161324 0.0189478 0)
(-0.162749 0.0080907 0)
(-0.163247 -0.00290327 0)
(-0.162806 -0.0139328 0)
(-0.161416 -0.0248929 0)
(-0.159074 -0.0356737 0)
(-0.155781 -0.0461594 0)
(-0.151546 -0.0562283 0)
(-0.146384 -0.0657521 0)
(-0.140321 -0.0745962 0)
(-0.133395 -0.082621 0)
(-0.125656 -0.0896824 0)
(-0.11717 -0.0956348 0)
(-0.108019 -0.100333 0)
(-0.0983032 -0.103636 0)
(-0.0881439 -0.10541 0)
(-0.0776817 -0.105537 0)
(-0.0670784 -0.103912 0)
(-0.0565155 -0.100457 0)
(-0.0461936 -0.0951193 0)
(-0.0363293 -0.0878823 0)
(-0.0271531 -0.0787658 0)
(-0.0189057 -0.0678316 0)
(-0.0118276 -0.0551864 0)
(-0.00614419 -0.0409822 0)
(-0.00214333 -0.0254147 0)
(-0.000304324 -0.00873458 0)
(-0.000320685 0.00994053 0)
(-0.00221449 0.0284862 0)
(-0.00629015 0.0454407 0)
(-0.0120296 0.0606266 0)
(-0.0191238 0.0739244 0)
(-0.0273395 0.0852587 0)
(-0.0364374 0.0945953 0)
(-0.0461859 0.101937 0)
(-0.0563701 0.10732 0)
(-0.0667931 0.110805 0)
(-0.0772768 0.112476 0)
(-0.0876622 0.112431 0)
(-0.0978093 0.110783 0)
(-0.107596 0.10765 0)
(-0.116919 0.103153 0)
(-0.125687 0.0974161 0)
(-0.133826 0.0905621 0)
(-0.141273 0.0827103 0)
(-0.147974 0.0739767 0)
(-0.153887 0.0644733 0)
(-0.158973 0.0543083 0)
(-0.163202 0.0435862 0)
(-0.166548 0.0324091 0)
(-0.168987 0.0208778 0)
(-0.170501 0.00909273 0)
(-0.171073 -0.00284421 0)
(-0.170688 -0.0148283 0)
(-0.169336 -0.0267506 0)
(-0.167009 -0.0384965 0)
(-0.163705 -0.0499447 0)
(-0.159428 -0.0609662 0)
(-0.154187 -0.0714241 0)
(-0.148003 -0.0811735 0)
(-0.140907 -0.0900622 0)
(-0.132944 -0.0979317 0)
(-0.124175 -0.10462 0)
(-0.114679 -0.109963 0)
(-0.104556 -0.1138 0)
(-0.0939258 -0.115976 0)
(-0.0829347 -0.11635 0)
(-0.0717509 -0.114796 0)
(-0.0605668 -0.111215 0)
(-0.0495973 -0.105535 0)
(-0.039077 -0.0977219 0)
(-0.0292581 -0.0877837 0)
(-0.0204057 -0.075774 0)
(-0.0127867 -0.0617966 0)
(-0.00665303 -0.0460063 0)
(-0.00232501 -0.0286078 0)
(-0.000331224 -0.00986736 0)
(-0.000344549 0.0111074 0)
(-0.00237275 0.0317337 0)
(-0.00672927 0.0505042 0)
(-0.0128514 0.0672373 0)
(-0.020401 0.0818161 0)
(-0.0291218 0.0941728 0)
(-0.0387526 0.104285 0)
(-0.0490424 0.112172 0)
(-0.0597596 0.117886 0)
(-0.0706943 0.12151 0)
(-0.0816583 0.123146 0)
(-0.0924858 0.122915 0)
(-0.103033 0.120948 0)
(-0.113176 0.117381 0)
(-0.122812 0.112354 0)
(-0.131852 0.106007 0)
(-0.140226 0.0984746 0)
(-0.147874 0.0898882 0)
(-0.154748 0.0803737 0)
(-0.160809 0.0700509 0)
(-0.166025 0.0590344 0)
(-0.170369 0.0474337 0)
(-0.173817 0.0353547 0)
(-0.176349 0.0229012 0)
(-0.177947 0.010176 0)
(-0.178595 -0.00271658 0)
(-0.178277 -0.0156697 0)
(-0.176981 -0.0285714 0)
(-0.174695 -0.0413037 0)
(-0.171412 -0.0537405 0)
(-0.16713 -0.0657465 0)
(-0.161852 -0.0771767 0)
(-0.155592 -0.0878761 0)
(-0.148373 -0.0976797 0)
(-0.140232 -0.106414 0)
(-0.131226 -0.1139 0)
(-0.121427 -0.119953 0)
(-0.110931 -0.124389 0)
(-0.0998594 -0.127032 0)
(-0.0883595 -0.127712 0)
(-0.0766058 -0.12628 0)
(-0.0648011 -0.122611 0)
(-0.0531748 -0.11661 0)
(-0.0419806 -0.108222 0)
(-0.0314938 -0.0974396 0)
(-0.0220065 -0.0843047 0)
(-0.0138151 -0.0689165 0)
(-0.00720101 -0.0514318 0)
(-0.00252167 -0.032064 0)
(-0.000360609 -0.0110966 0)
(-0.000370085 0.0123576 0)
(-0.00254089 0.0352062 0)
(-0.00719371 0.0559072 0)
(-0.0137169 0.0742751 0)
(-0.0217398 0.0901964 0)
(-0.0309808 0.103613 0)
(-0.0411546 0.114516 0)
(-0.0519886 0.122944 0)
(-0.0632341 0.128972 0)
(-0.0746673 0.132704 0)
(-0.0860902 0.134267 0)
(-0.0973306 0.133806 0)
(-0.108242 0.131474 0)
(-0.1187 0.127428 0)
(-0.128603 0.121828 0)
(-0.137867 0.11483 0)
(-0.146427 0.106584 0)
(-0.154228 0.0972325 0)
(-0.16123 0.0869121 0)
(-0.167398 0.0757503 0)
(-0.172706 0.0638675 0)
(-0.177133 0.0513775 0)
(-0.180659 0.0383893 0)
(-0.183268 0.0250084 0)
(-0.184944 0.011339 0)
(-0.185669 -0.00251389 0)
(-0.185429 -0.0164422 0)
(-0.184208 -0.0303327 0)
(-0.181991 -0.0440651 0)
(-0.178766 -0.0575097 0)
(-0.174522 -0.0705262 0)
(-0.169257 -0.0829622 0)