/*--------------------------------*- C++ -*----------------------------------*\
  =========                 |
  \\      /  F ield         | OpenFOAM: The Open Source CFD Toolbox
   \\    /   O peration     | Website:  https://openfoam.org
    \\  /    A nd           | Version:  7
     \\/     M anipulation  |
\*---------------------------------------------------------------------------*/
FoamFile
{
    version     2.0;
    format      ascii;
    class       volScalarField;
    location    "0.0592";
    object      p;
}
// * * * * * * * * * * * * * * * * * * * * * * * * * * * * * * * * * * * * * //

dimensions      [0 2 -2 0 0 0 0];

internalField   nonuniform List<scalar> 
2500
(
2.96516e-05
6.38535
9.05059
10.1471
10.7408
11.0916
11.3071
11.4489
11.5484
11.6216
11.6775
11.7216
11.7574
11.7874
11.8133
11.8362
11.8571
11.8767
11.8954
11.9137
11.9317
11.9499
11.9682
11.9869
12.0062
12.0261
12.0468
12.0684
12.0911
12.1151
12.1407
12.168
12.1976
12.2299
12.2654
12.305
12.3496
12.4007
12.46
12.5303
12.6151
12.7204
12.8555
13.0368
13.2964
13.6982
14.3588
15.5501
18.3314
24.8409
4.86799
7.46785
8.8861
9.77046
10.3752
10.7828
11.0589
11.2521
11.3917
11.4956
11.5751
11.6377
11.6881
11.7299
11.7653
11.7962
11.8238
11.849
11.8726
11.895
11.9168
11.9382
11.9595
11.9811
12.003
12.0255
12.0487
12.073
12.0985
12.1256
12.1545
12.1856
12.2195
12.2568
12.2984
12.3451
12.3985
12.4603
12.5331
12.6204
12.7274
12.8617
13.0349
13.2655
13.5839
14.0405
14.7048
15.6617
17.1655
19.883
7.70302
8.46698
9.21077
9.83513
10.3227
10.686
10.9539
11.1531
11.3035
11.4188
11.509
11.581
11.6397
11.6886
11.7301
11.7662
11.7984
11.8275
11.8546
11.8801
11.9046
11.9285
11.9521
11.9758
11.9997
12.0242
12.0494
12.0757
12.1033
12.1326
12.1639
12.1977
12.2347
12.2754
12.3209
12.3722
12.4309
12.4989
12.579
12.6748
12.7913
12.9356
13.1179
13.3525
13.6596
14.0669
14.6045
15.2828
16.0809
16.9098
9.11072
9.28849
9.66868
10.071
10.4216
10.7085
10.9376
11.1189
11.2624
11.3766
11.4687
11.5438
11.606
11.6585
11.7036
11.743
11.7782
11.8101
11.8397
11.8675
11.8941
11.92
11.9454
11.9708
11.9963
12.0224
12.0492
12.0771
12.1063
12.1373
12.1704
12.2062
12.2452
12.2882
12.3361
12.3901
12.4516
12.5225
12.6054
12.7033
12.8204
12.9622
13.1358
13.3498
13.6144
13.9394
14.33
14.7724
15.188
15.3966
9.92076
9.90142
10.0787
10.3236
10.5643
10.7803
10.9659
11.1215
11.2505
11.3573
11.4459
11.5201
11.5829
11.6367
11.6835
11.7248
11.7619
11.7957
11.8271
11.8567
11.8849
11.9123
11.9393
11.9661
11.993
12.0204
12.0485
12.0777
12.1083
12.1406
12.1751
12.2122
12.2527
12.2972
12.3465
12.4018
12.4644
12.536
12.6185
12.7146
12.8273
12.9601
13.1174
13.303
13.5202
13.7686
14.041
14.315
14.5146
14.5078
10.4298
10.346
10.4164
10.5597
10.7201
10.8775
11.0224
11.1507
11.2619
11.3574
11.4392
11.5095
11.5703
11.6233
11.6702
11.712
11.75
11.7848
11.8173
11.8481
11.8775
11.9061
11.9341
11.962
11.9901
12.0185
12.0477
12.0778
12.1094
12.1426
12.1781
12.2161
12.2574
12.3025
12.3523
12.4078
12.47
12.5402
12.6202
12.7116
12.8164
12.9368
13.0744
13.2302
13.403
13.5877
13.7731
13.9372
14.0208
13.9388
10.7683
10.6723
10.6894
10.7695
10.8735
10.9852
11.0951
11.1976
11.2904
11.373
11.446
11.5105
11.5675
11.6182
11.6637
11.705
11.7428
11.7779
11.8108
11.8421
11.8722
11.9015
11.9303
11.9589
11.9877
12.0169
12.0468
12.0777
12.1099
12.1437
12.1797
12.2181
12.2596
12.3047
12.3542
12.4087
12.4693
12.5369
12.6126
12.6975
12.7926
12.8989
13.0163
13.1439
13.2784
13.4129
13.5366
13.6316
13.6557
13.5556
11.0082
10.9178
10.9088
10.9504
11.0157
11.093
11.1745
11.2545
11.33
11.3998
11.4633
11.5209
11.573
11.6203
11.6635
11.7032
11.7401
11.7747
11.8074
11.8388
11.8691
11.8987
11.9279
11.957
11.9862
12.0159
12.0462
12.0775
12.11
12.1441
12.1802
12.2187
12.2599
12.3045
12.3529
12.4058
12.4639
12.5278
12.5982
12.6757
12.7605
12.8526
12.9511
13.0539
13.1569
13.2534
13.3341
13.386
13.3801
13.2827
11.1882
11.1075
11.0862
11.1042
11.1433
11.1956
11.2548
11.316
11.3763
11.434
11.4881
11.5385
11.5852
11.6284
11.6686
11.7062
11.7416
11.7751
11.8072
11.8382
11.8683
11.8979
11.9271
11.9563
11.9857
12.0156
12.0461
12.0775
12.1101
12.1442
12.1801
12.2182
12.2588
12.3023
12.3492
12.4
12.455
12.5147
12.5793
12.6491
12.7237
12.8026
12.8842
12.966
13.0439
13.1122
13.1633
13.1884
13.1675
13.0784
11.3293
11.2581
11.2312
11.2348
11.2564
11.2905
11.3325
11.3785
11.4258
11.4727
11.5181
11.5614
11.6025
11.6415
11.6783
11.7133
11.7468
11.7789
11.8099
11.8401
11.8696
11.8989
11.9279
11.957
11.9863
12.0161
12.0466
12.0779
12.1103
12.1442
12.1796
12.217
12.2567
12.2989
12.3439
12.3922
12.4438
12.499
12.5578
12.62
12.685
12.7519
12.8188
12.8833
12.9417
12.9891
13.0199
13.0281
12.9999
12.9198
11.4437
11.3804
11.3513
11.3461
11.3558
11.3768
11.4057
11.4396
11.4761
11.5137
11.5512
11.588
11.6237
11.6583
11.6916
11.7238
11.755
11.7854
11.8151
11.8442
11.873
11.9016
11.9302
11.9589
11.988
12.0175
12.0477
12.0787
12.1108
12.1442
12.179
12.2156
12.254
12.2947
12.3376
12.3832
12.4313
12.482
12.535
12.5901
12.6464
12.7026
12.7572
12.8076
12.8508
12.8827
12.8995
12.8971
12.8656
12.7933
11.5386
11.4817
11.4519
11.4412
11.4429
11.4544
11.4736
11.4979
11.5256
11.5552
11.5858
11.6167
11.6474
11.6777
11.7076
11.7369
11.7658
11.7943
11.8224
11.8503
11.8781
11.9059
11.9339
11.9621
11.9906
12.0197
12.0495
12.0801
12.1117
12.1444
12.1784
12.214
12.2511
12.29
12.3308
12.3735
12.4181
12.4644
12.5121
12.5606
12.609
12.6561
12.7003
12.7394
12.7707
12.7913
12.7983
12.7891
12.7563
12.6908
11.6187
11.5668
11.5371
11.5231
11.5192
11.5239
11.5356
11.5525
11.573
11.596
11.6207
11.6463
11.6725
11.6989
11.7254
11.7519
11.7784
11.8049
11.8314
11.858
11.8846
11.9115
11.9387
11.9662
11.9942
12.0227
12.052
12.082
12.1129
12.1449
12.178
12.2124
12.2481
12.2853
12.3239
12.3638
12.405
12.4472
12.4898
12.5324
12.5739
12.6131
12.6487
12.6786
12.7008
12.7129
12.713
12.6995
12.6665
12.6064
11.6872
11.6391
11.6098
11.5936
11.5859
11.5857
11.5919
11.6029
11.6177
11.6353
11.6549
11.6759
11.698
11.7209
11.7443
11.7681
11.7923
11.8169
11.8417
11.8668
11.8923
11.9181
11.9444
11.9712
11.9984
12.0264
12.0549
12.0843
12.1145
12.1457
12.1778
12.211
12.2453
12.2806
12.317
12.3543
12.3923
12.4306
12.4687
12.5059
12.5414
12.574
12.6024
12.625
12.6401
12.6459
12.641
12.6247
12.592
12.5366
11.746
11.7009
11.6723
11.6547
11.6443
11.6405
11.6424
11.6489
11.6591
11.6722
11.6876
11.7048
11.7233
11.743
11.7636
11.7849
11.8069
11.8295
11.8527
11.8764
11.9007
11.9254
11.9508
11.9767
12.0033
12.0304
12.0583
12.087
12.1164
12.1467
12.1778
12.2098
12.2426
12.2763
12.3105
12.3453
12.3803
12.415
12.449
12.4816
12.5119
12.5388
12.5613
12.578
12.5875
12.5886
12.5803
12.5621
12.53
12.4784
11.7969
11.7541
11.7259
11.7075
11.6952
11.6888
11.6875
11.6905
11.697
11.7065
11.7184
11.7322
11.7477
11.7646
11.7826
11.8017
11.8217
11.8425
11.8641
11.8864
11.9095
11.9332
11.9576
11.9826
12.0084
12.0348
12.062
12.0899
12.1185
12.1479
12.178
12.2088
12.2403
12.2722
12.3045
12.3369
12.3691
12.4007
12.4311
12.4595
12.4854
12.5076
12.5252
12.5372
12.5424
12.5398
12.529
12.5096
12.4783
12.4298
11.8407
11.7997
11.7721
11.753
11.7395
11.731
11.7273
11.7275
11.7312
11.7378
11.7468
11.7578
11.7707
11.7851
11.8009
11.818
11.8361
11.8553
11.8754
11.8965
11.9183
11.941
11.9645
11.9887
12.0137
12.0394
12.0658
12.093
12.1208
12.1493
12.1784
12.2081
12.2382
12.2686
12.2991
12.3293
12.359
12.3878
12.4149
12.4399
12.4619
12.4802
12.4939
12.502
12.5038
12.4985
12.4858
12.4657
12.4351
12.3893
11.8783
11.8388
11.8115
11.7921
11.7776
11.7677
11.7621
11.7602
11.7616
11.7658
11.7725
11.7812
11.7919
11.8043
11.8181
11.8334
11.8499
11.8676
11.8864
11.9062
11.927
11.9487
11.9712
11.9947
12.0189
12.0439
12.0696
12.096
12.1231
12.1508
12.179
12.2076
12.2364
12.2654
12.2942
12.3225
12.35
12.3763
12.4007
12.4226
12.4415
12.4565
12.4669
12.472
12.4711
12.4637
12.4496
12.4291
12.3992
12.3557
11.9104
11.8719
11.845
11.8253
11.8101
11.7991
11.7921
11.7886
11.7882
11.7905
11.7952
11.8021
11.811
11.8216
11.8338
11.8475
11.8626
11.879
11.8966
11.9153
11.9351
11.9559
11.9777
12.0003
12.0238
12.0482
12.0732
12.099
12.1253
12.1522
12.1796
12.2072
12.2349
12.2626
12.2899
12.3166
12.3422
12.3662
12.3883
12.4077
12.4239
12.4362
12.444
12.4467
12.4437
12.4347
12.4196
12.3988
12.3696
12.328
11.9372
11.8996
11.8729
11.8531
11.8374
11.8255
11.8175
11.8127
11.8109
11.8118
11.815
11.8204
11.8277
11.8369
11.8477
11.8601
11.874
11.8893
11.9058
11.9236
11.9425
11.9625
11.9836
12.0055
12.0284
12.0521
12.0766
12.1017
12.1274
12.1536
12.1802
12.207
12.2337
12.2603
12.2863
12.3115
12.3354
12.3577
12.3778
12.3951
12.4091
12.4192
12.4249
12.4256
12.421
12.4108
12.395
12.3741
12.3455
12.3054
11.9592
11.9221
11.8957
11.8758
11.8597
11.8473
11.8384
11.8327
11.8298
11.8295
11.8316
11.8357
11.8419
11.8499
11.8596
11.871
11.8838
11.8982
11.9138
11.9308
11.949
11.9683
11.9887
12.0101
12.0324
12.0556
12.0795
12.1041
12.1293
12.1549
12.1808
12.2068
12.2328
12.2583
12.2833
12.3073
12.3299
12.3506
12.3691
12.3847
12.397
12.4054
12.4094
12.4086
12.4028
12.3916
12.3753
12.3543
12.3262
12.2874
11.9765
11.9399
11.9137
11.8937
11.8773
11.8645
11.855
11.8486
11.8449
11.8438
11.8449
11.8482
11.8534
11.8605
11.8693
11.8798
11.8919
11.9055
11.9205
11.9368
11.9544
11.9731
11.993
12.0139
12.0358
12.0585
12.082
12.1061
12.1308
12.156
12.1813
12.2067
12.232
12.2568
12.2809
12.3039
12.3254
12.345
12.3622
12.3765
12.3874
12.3944
12.3972
12.3953
12.3885
12.3767
12.3601
12.339
12.3113
12.2735
11.9894
11.9531
11.927
11.907
11.8904
11.8772
11.8674
11.8605
11.8562
11.8545
11.8549
11.8575
11.8621
11.8685
11.8767
11.8866
11.8981
11.9111
11.9256
11.9414
11.9585
11.9768
11.9963
12.0169
12.0384
12.0607
12.0839
12.1077
12.1321
12.1568
12.1817
12.2067
12.2315
12.2557
12.2791
12.3014
12.3221
12.3408
12.3571
12.3704
12.3803
12.3864
12.3882
12.3855
12.3781
12.3658
12.3489
12.3278
12.3005
12.2633
11.9979
11.9618
11.9358
11.9157
11.899
11.8857
11.8756
11.8684
11.8638
11.8616
11.8617
11.8638
11.868
11.8739
11.8817
11.8912
11.9023
11.9149
11.929
11.9445
11.9613
11.9794
11.9986
12.0189
12.0401
12.0623
12.0852
12.1088
12.1329
12.1574
12.182
12.2067
12.2311
12.2549
12.2779
12.2997
12.3199
12.338
12.3537
12.3663
12.3756
12.381
12.3823
12.3791
12.3712
12.3586
12.3416
12.3205
12.2934
12.2567
12.0021
11.9662
11.9402
11.9201
11.9034
11.8899
11.8797
11.8723
11.8675
11.8652
11.865
11.867
11.8709
11.8767
11.8842
11.8935
11.9044
11.9168
11.9307
11.9461
11.9627
11.9806
11.9997
12.0199
12.041
12.0631
12.0859
12.1093
12.1333
12.1577
12.1822
12.2067
12.2309
12.2546
12.2774
12.2989
12.3188
12.3366
12.352
12.3643
12.3733
12.3784
12.3793
12.3759
12.3678
12.3551
12.3379
12.3169
12.2899
12.2534
12.0021
11.9662
11.9402
11.9201
11.9034
11.8899
11.8797
11.8723
11.8675
11.8652
11.865
11.867
11.8709
11.8767
11.8842
11.8935
11.9044
11.9168
11.9307
11.9461
11.9627
11.9806
11.9997
12.0199
12.041
12.0631
12.0859
12.1093
12.1333
12.1577
12.1822
12.2067
12.2309
12.2546
12.2774
12.2989
12.3188
12.3366
12.352
12.3643
12.3733
12.3784
12.3793
12.3759
12.3678
12.3551
12.3379
12.3169
12.2899
12.2534
11.9979
11.9618
11.9358
11.9157
11.899
11.8857
11.8756
11.8684
11.8638
11.8616
11.8617
11.8638
11.868
11.8739
11.8817
11.8912
11.9023
11.9149
11.929
11.9445
11.9613
11.9794
11.9986
12.0189
12.0401
12.0623
12.0852
12.1088
12.1329
12.1574
12.182
12.2067
12.2311
12.2549
12.2779
12.2997
12.3199
12.338
12.3537
12.3663
12.3756
12.381
12.3823
12.3791
12.3712
12.3586
12.3416
12.3205
12.2934
12.2567
11.9894
11.9531
11.927
11.907
11.8904
11.8772
11.8674
11.8605
11.8562
11.8545
11.855
11.8575
11.8621
11.8685
11.8767
11.8866
11.8981
11.9111
11.9256
11.9414
11.9585
11.9768
11.9963
12.0169
12.0384
12.0607
12.0839
12.1077
12.1321
12.1568
12.1817
12.2067
12.2315
12.2557
12.2791
12.3014
12.3221
12.3408
12.3571
12.3704
12.3803
12.3864
12.3882
12.3855
12.3781
12.3658
12.3489
12.3278
12.3005
12.2633
11.9765
11.9399
11.9137
11.8937
11.8773
11.8645
11.855
11.8486
11.8449
11.8438
11.8449
11.8482
11.8534
11.8605
11.8693
11.8798
11.8919
11.9055
11.9205
11.9368
11.9544
11.9731
11.993
12.0139
12.0358
12.0585
12.082
12.1061
12.1308
12.156
12.1813
12.2067
12.232
12.2568
12.2809
12.3039
12.3254
12.345
12.3622
12.3765
12.3874
12.3944
12.3972
12.3953
12.3885
12.3767
12.3601
12.339
12.3113
12.2735
11.9592
11.9221
11.8957
11.8758
11.8597
11.8473
11.8384
11.8327
11.8298
11.8295
11.8316
11.8358
11.8419
11.8499
11.8596
11.871
11.8838
11.8982
11.9138
11.9308
11.949
11.9683
11.9887
12.0101
12.0324
12.0556
12.0795
12.1041
12.1293
12.1549
12.1808
12.2068
12.2328
12.2583
12.2833
12.3073
12.3299
12.3506
12.3691
12.3847
12.397
12.4054
12.4094
12.4086
12.4028
12.3916
12.3753
12.3543
12.3262
12.2874
11.9372
11.8996
11.8729
11.8531
11.8374
11.8256
11.8175
11.8127
11.8109
11.8118
11.815
11.8204
11.8277
11.8369
11.8477
11.8601
11.874
11.8893
11.9058
11.9236
11.9425
11.9625
11.9836
12.0055
12.0284
12.0521
12.0766
12.1017
12.1274
12.1536
12.1802
12.207
12.2337
12.2603
12.2863
12.3115
12.3355
12.3577
12.3778
12.3951
12.4091
12.4192
12.4249
12.4256
12.421
12.4108
12.395
12.3741
12.3455
12.3054
11.9104
11.8719
11.845
11.8253
11.8101
11.7991
11.7921
11.7886
11.7882
11.7905
11.7953
11.8021
11.811
11.8216
11.8338
11.8475
11.8626
11.879
11.8966
11.9153
11.9351
11.9559
11.9777
12.0003
12.0239
12.0482
12.0732
12.099
12.1253
12.1522
12.1796
12.2072
12.2349
12.2626
12.2899
12.3166
12.3422
12.3662
12.3883
12.4077
12.4239
12.4362
12.444
12.4467
12.4437
12.4347
12.4196
12.3988
12.3696
12.328
11.8783
11.8388
11.8115
11.7921
11.7776
11.7677
11.7621
11.7602
11.7616
11.7658
11.7725
11.7812
11.7919
11.8043
11.8181
11.8334
11.8499
11.8676
11.8864
11.9062
11.927
11.9487
11.9713
11.9947
12.0189
12.0439
12.0696
12.096
12.1231
12.1508
12.179
12.2076
12.2364
12.2654
12.2942
12.3225
12.35
12.3763
12.4007
12.4226
12.4415
12.4565
12.4669
12.472
12.4711
12.4637
12.4496
12.4291
12.3992
12.3557
11.8407
11.7997
11.7721
11.753
11.7395
11.731
11.7273
11.7275
11.7312
11.7378
11.7468
11.7578
11.7707
11.7851
11.8009
11.818
11.8361
11.8553
11.8754
11.8965
11.9183
11.941
11.9645
11.9887
12.0137
12.0394
12.0658
12.093
12.1208
12.1493
12.1784
12.2081
12.2382
12.2686
12.2991
12.3293
12.359
12.3878
12.4149
12.4399
12.4619
12.4802
12.4939
12.502
12.5038
12.4985
12.4858
12.4657
12.4351
12.3894
11.7969
11.7541
11.7259
11.7075
11.6952
11.6888
11.6875
11.6905
11.697
11.7065
11.7184
11.7322
11.7477
11.7646
11.7826
11.8017
11.8217
11.8425
11.8641
11.8864
11.9095
11.9332
11.9576
11.9826
12.0084
12.0348
12.062
12.0899
12.1185
12.1479
12.178
12.2088
12.2403
12.2722
12.3045
12.3369
12.3691
12.4007
12.4311
12.4595
12.4854
12.5076
12.5252
12.5372
12.5424
12.5398
12.529
12.5096
12.4783
12.4298
11.746
11.7009
11.6723
11.6547
11.6443
11.6405
11.6424
11.6489
11.6591
11.6722
11.6876
11.7048
11.7233
11.743
11.7636
11.7849
11.8069
11.8295
11.8527
11.8764
11.9007
11.9255
11.9508
11.9767
12.0033
12.0304
12.0583
12.087
12.1164
12.1467
12.1778
12.2098
12.2426
12.2763
12.3106
12.3453
12.3803
12.415
12.449
12.4816
12.5119
12.5388
12.5613
12.578
12.5876
12.5886
12.5803
12.5621
12.53
12.4784
11.6872
11.6391
11.6099
11.5936
11.5859
11.5857
11.5919
11.6029
11.6177
11.6353
11.6549
11.6759
11.698
11.7209
11.7443
11.7681
11.7923
11.8169
11.8417
11.8668
11.8923
11.9181
11.9444
11.9712
11.9984
12.0264
12.0549
12.0843
12.1145
12.1457
12.1778
12.211
12.2453
12.2806
12.317
12.3543
12.3923
12.4306
12.4687
12.5059
12.5414
12.574
12.6024
12.625
12.6401
12.6459
12.641
12.6247
12.592
12.5366
11.6187
11.5668
11.5371
11.5231
11.5192
11.5239
11.5356
11.5525
11.573
11.596
11.6207
11.6463
11.6725
11.6989
11.7254
11.7519
11.7784
11.8049
11.8314
11.858
11.8846
11.9115
11.9387
11.9662
11.9942
12.0227
12.052
12.082
12.1129
12.1449
12.178
12.2124
12.2481
12.2853
12.3239
12.3638
12.405
12.4472
12.4898
12.5324
12.5739
12.6131
12.6487
12.6786
12.7008
12.7129
12.713
12.6995
12.6665
12.6064
11.5386
11.4817
11.4519
11.4413
11.4429
11.4544
11.4736
11.4979
11.5256
11.5552
11.5858
11.6167
11.6474
11.6777
11.7076
11.7369
11.7658
11.7943
11.8224
11.8503
11.8781
11.9059
11.9339
11.9621
11.9906
12.0197
12.0495
12.0801
12.1117
12.1444
12.1784
12.214
12.2511
12.29
12.3308
12.3735
12.4181
12.4644
12.5121
12.5606
12.609
12.6561
12.7003
12.7394
12.7707
12.7913
12.7983
12.7892
12.7563
12.6908
11.4437
11.3804
11.3513
11.3461
11.3558
11.3768
11.4057
11.4396
11.4761
11.5137
11.5512
11.588
11.6237
11.6583
11.6916
11.7238
11.755
11.7854
11.8151
11.8442
11.873
11.9016
11.9302
11.9589
11.988
12.0175
12.0477
12.0787
12.1108
12.1442
12.179
12.2156
12.254
12.2947
12.3377
12.3832
12.4313
12.482
12.535
12.5901
12.6464
12.7026
12.7572
12.8076
12.8508
12.8827
12.8995
12.8972
12.8656
12.7934
11.3293
11.2581
11.2312
11.2348
11.2564
11.2905
11.3325
11.3785
11.4258
11.4727
11.5181
11.5614
11.6025
11.6415
11.6783
11.7133
11.7468
11.7789
11.8099
11.8401
11.8697
11.8989
11.9279
11.957
11.9863
12.0161
12.0466
12.0779
12.1103
12.1442
12.1796
12.2171
12.2567
12.2989
12.344
12.3922
12.4438
12.499
12.5578
12.62
12.685
12.7519
12.8188
12.8834
12.9417
12.9891
13.0199
13.0282
12.9999
12.9198
11.1882
11.1075
11.0862
11.1042
11.1433
11.1956
11.2548
11.316
11.3763
11.434
11.4881
11.5385
11.5852
11.6284
11.6686
11.7062
11.7416
11.7751
11.8072
11.8382
11.8683
11.8979
11.9271
11.9563
11.9857
12.0156
12.0461
12.0775
12.1101
12.1442
12.1801
12.2182
12.2588
12.3023
12.3492
12.4
12.455
12.5147
12.5793
12.6491
12.7237
12.8026
12.8842
12.966
13.0439
13.1122
13.1633
13.1884
13.1675
13.0784
11.0082
10.9178
10.9089
10.9504
11.0157
11.093
11.1745
11.2545
11.33
11.3998
11.4633
11.5209
11.573
11.6203
11.6635
11.7032
11.7401
11.7747
11.8075
11.8388
11.8691
11.8987
11.9279
11.957
11.9862
12.0159
12.0462
12.0775
12.11
12.1442
12.1802
12.2187
12.2599
12.3045
12.3529
12.4058
12.4639
12.5278
12.5982
12.6757
12.7605
12.8526
12.9511
13.0539
13.1569
13.2534
13.3341
13.386
13.3801
13.2827
10.7683
10.6723
10.6894
10.7695
10.8735
10.9852
11.0951
11.1976
11.2904
11.373
11.446
11.5105
11.5675
11.6182
11.6637
11.705
11.7428
11.7779
11.8108
11.8421
11.8722
11.9015
11.9303
11.959
11.9877
12.0169
12.0468
12.0777
12.1099
12.1437
12.1797
12.2181
12.2596
12.3047
12.3542
12.4088
12.4693
12.5369
12.6126
12.6975
12.7927
12.8989
13.0163
13.1439
13.2784
13.4129
13.5366
13.6316
13.6557
13.5556
10.4298
10.346
10.4164
10.5597
10.7201
10.8775
11.0224
11.1507
11.2619
11.3574
11.4392
11.5095
11.5703
11.6234
11.6702
11.712
11.75
11.7848
11.8173
11.8481
11.8775
11.9061
11.9342
11.962
11.9901
12.0185
12.0477
12.0778
12.1094
12.1427
12.1781
12.2161
12.2574
12.3025
12.3523
12.4078
12.47
12.5403
12.6202
12.7116
12.8164
12.9368
13.0744
13.2302
13.403
13.5877
13.7731
13.9372
14.0208
13.9388
9.92077
9.90143
10.0787
10.3236
10.5643
10.7803
10.9659
11.1215
11.2505
11.3573
11.4459
11.5201
11.5829
11.6367
11.6835
11.7248
11.7619
11.7957
11.8271
11.8567
11.8849
11.9123
11.9393
11.9661
11.993
12.0204
12.0486
12.0777
12.1083
12.1406
12.1751
12.2123
12.2527
12.2972
12.3465
12.4018
12.4644
12.536
12.6185
12.7146
12.8273
12.9601
13.1174
13.303
13.5202
13.7686
14.041
14.315
14.5146
14.5078
9.11073
9.28849
9.66869
10.071
10.4216
10.7085
10.9376
11.1189
11.2624
11.3766
11.4687
11.5438
11.606
11.6585
11.7036
11.743
11.7782
11.8101
11.8397
11.8675
11.8941
11.92
11.9454
11.9708
11.9963
12.0224
12.0492
12.0771
12.1063
12.1373
12.1704
12.2062
12.2452
12.2882
12.3361
12.3901
12.4516
12.5226
12.6054
12.7033
12.8204
12.9622
13.1358
13.3498
13.6144
13.9394
14.33
14.7724
15.188
15.3966
7.70303
8.46699
9.21078
9.83513
10.3227
10.686
10.9539
11.1531
11.3035
11.4188
11.509
11.581
11.6397
11.6886
11.7301
11.7662
11.7984
11.8275
11.8546
11.8801
11.9046
11.9285
11.9521
11.9758
11.9997
12.0242
12.0494
12.0757
12.1033
12.1326
12.1639
12.1977
12.2347
12.2754
12.3209
12.3722
12.4309
12.4989
12.579
12.6748
12.7913
12.9356
13.1179
13.3525
13.6596
14.0669
14.6045
15.2828
16.0809
16.9098
4.868
7.46786
8.88611
9.77047
10.3752
10.7828
11.0589
11.2521
11.3917
11.4956
11.5751
11.6377
11.6881
11.7299
11.7653
11.7962
11.8238
11.849
11.8726
11.895
11.9168
11.9382
11.9595
11.9811
12.003
12.0255
12.0487
12.073
12.0985
12.1256
12.1545
12.1856
12.2195
12.2568
12.2984
12.3451
12.3985
12.4603
12.5331
12.6204
12.7274
12.8617
13.0349
13.2655
13.5839
14.0405
14.7049
15.6617
17.1655
19.883
5.82214e-05
6.38537
9.0506
10.1471
10.7408
11.0916
11.3071
11.4489
11.5484
11.6216
11.6775
11.7216
11.7574
11.7874
11.8133
11.8362
11.8571
11.8767
11.8954
11.9137
11.9317
11.9499
11.9682
11.9869
12.0062
12.0261
12.0468
12.0684
12.0911
12.1151
12.1407
12.168
12.1976
12.2299
12.2654
12.305
12.3496
12.4007
12.46
12.5303
12.6151
12.7204
12.8555
13.0368
13.2964
13.6982
14.3588
15.5501
18.3314
24.8409
)
;

boundaryField
{
    movingWallTop
    {
        type            zeroGradient;
    }
    movingWallBottom
    {
        type            zeroGradient;
    }
    fixedWalls
    {
        type            zeroGradient;
    }
    frontAndBack
    {
        type            empty;
    }
}


// ************************************************************************* //
