/*--------------------------------*- C++ -*----------------------------------*\
  =========                 |
  \\      /  F ield         | OpenFOAM: The Open Source CFD Toolbox
   \\    /   O peration     | Website:  https://openfoam.org
    \\  /    A nd           | Version:  7
     \\/     M anipulation  |
\*---------------------------------------------------------------------------*/
FoamFile
{
    version     2.0;
    format      ascii;
    class       surfaceScalarField;
    location    "0.0592";
    object      phi;
}
// * * * * * * * * * * * * * * * * * * * * * * * * * * * * * * * * * * * * * //

dimensions      [0 3 -1 0 0 0 0];

internalField   nonuniform List<scalar> 
4900
(
5.45464e-06
-5.45465e-06
9.95315e-06
-4.49852e-06
1.26939e-05
-2.74079e-06
1.44122e-05
-1.71828e-06
1.55285e-05
-1.11623e-06
1.62816e-05
-7.53174e-07
1.68127e-05
-5.3109e-07
1.72033e-05
-3.90553e-07
1.75005e-05
-2.97244e-07
1.77327e-05
-2.32224e-07
1.79177e-05
-1.84964e-07
1.80671e-05
-1.494e-07
1.8189e-05
-1.21883e-07
1.82891e-05
-1.00113e-07
1.83717e-05
-8.25773e-08
1.84399e-05
-6.82365e-08
1.84963e-05
-5.63512e-08
1.85426e-05
-4.63775e-08
1.85805e-05
-3.79032e-08
1.86112e-05
-3.06072e-08
1.86354e-05
-2.42325e-08
1.8654e-05
-1.85676e-08
1.86674e-05
-1.34336e-08
1.86761e-05
-8.67404e-09
1.86802e-05
-4.14846e-09
1.86799e-05
2.77921e-10
1.86752e-05
4.72712e-09
1.86659e-05
9.3349e-09
1.86516e-05
1.42355e-08
1.86321e-05
1.95792e-08
1.86065e-05
2.55374e-08
1.85742e-05
3.23121e-08
1.85341e-05
4.01499e-08
1.84847e-05
4.93612e-08
1.84243e-05
6.03471e-08
1.83507e-05
7.36412e-08
1.82607e-05
8.99734e-08
1.81504e-05
1.10372e-07
1.8014e-05
1.36338e-07
1.78439e-05
1.70144e-07
1.76285e-05
2.15393e-07
1.73504e-05
2.78075e-07
1.69818e-05
3.68655e-07
1.64755e-05
5.06213e-07
1.57494e-05
7.2612e-07
1.46575e-05
1.09192e-06
1.29451e-05
1.71236e-06
1.0162e-05
2.78317e-06
5.55724e-06
4.60473e-06
5.55724e-06
-1.19286e-07
-5.33537e-06
1.83184e-06
-6.44964e-06
4.41343e-06
-5.32239e-06
6.72969e-06
-4.03454e-06
8.61028e-06
-2.99682e-06
1.00936e-05
-2.23653e-06
1.12594e-05
-1.69689e-06
1.21818e-05
-1.31288e-06
1.29191e-05
-1.03455e-06
1.35149e-05
-8.28053e-07
1.40011e-05
-6.71186e-07
1.44011e-05
-5.49393e-07
1.47322e-05
-4.52989e-07
1.50075e-05
-3.754e-07
1.5237e-05
-3.12043e-07
1.54284e-05
-2.59643e-07
1.55878e-05
-2.15795e-07
1.57201e-05
-1.78686e-07
1.58291e-05
-1.46918e-07
1.59179e-05
-1.19382e-07
1.59889e-05
-9.51813e-08
1.60439e-05
-7.35668e-08
1.60843e-05
-5.3899e-08
1.61113e-05
-3.56141e-08
1.61253e-05
-1.81996e-08
1.61268e-05
-1.17485e-09
1.61156e-05
1.59333e-08
1.60913e-05
3.3599e-08
1.60532e-05
5.23252e-08
1.60001e-05
7.26609e-08
1.59304e-05
9.52288e-08
1.5842e-05
1.20759e-07
1.5732e-05
1.50133e-07
1.55969e-05
1.84449e-07
1.54322e-05
2.25105e-07
1.52319e-05
2.73934e-07
1.49885e-05
3.3339e-07
1.4692e-05
4.06839e-07
1.43293e-05
4.99024e-07
1.38827e-05
6.16787e-07
1.33278e-05
7.70263e-07
1.26311e-05
9.74808e-07
1.17456e-05
1.25409e-06
1.06071e-05
1.6447e-06
9.13151e-06
2.20175e-06
7.22427e-06
2.99917e-06
4.83143e-06
4.10519e-06
2.12097e-06
5.49363e-06
1.07173e-08
6.71498e-06
5.56796e-06
-1.08241e-06
-4.25296e-06
-7.53982e-07
-6.77807e-06
5.89788e-07
-6.66616e-06
2.30239e-06
-5.74714e-06
4.01411e-06
-4.70853e-06
5.56629e-06
-3.78871e-06
6.91171e-06
-3.0423e-06
8.05389e-06
-2.45507e-06
9.01539e-06
-1.99605e-06
9.82291e-06
-1.63557e-06
1.05015e-05
-1.34974e-06
1.10725e-05
-1.12045e-06
1.15539e-05
-9.34342e-07
1.196e-05
-7.81555e-07
1.23028e-05
-6.54789e-07
1.25917e-05
-5.48558e-07
1.28346e-05
-4.58672e-07
1.30378e-05
-3.81873e-07
1.32064e-05
-3.15578e-07
1.33447e-05
-2.57697e-07
1.34561e-05
-2.06502e-07
1.3543e-05
-1.60528e-07
1.36076e-05
-1.18506e-07
1.36513e-05
-7.93049e-08
1.3675e-05
-4.18842e-08
1.36791e-05
-5.26114e-09
1.36635e-05
3.15329e-08
1.36276e-05
6.94746e-08
1.35703e-05
1.09595e-07
1.349e-05
1.53017e-07
1.33842e-05
2.01004e-07
1.32499e-05
2.5502e-07
1.30833e-05
3.16817e-07
1.28792e-05
3.88535e-07
1.26314e-05
4.72856e-07
1.23322e-05
5.73211e-07
1.19715e-05
6.9407e-07
1.15369e-05
8.41361e-07
1.10129e-05
1.02307e-06
1.03796e-05
1.25008e-06
9.61252e-06
1.53735e-06
8.68194e-06
1.90539e-06
7.55431e-06
2.38171e-06
6.19776e-06
3.00125e-06
4.59756e-06
3.80195e-06
2.79139e-06
4.80533e-06
9.37955e-07
5.95863e-06
-5.70663e-07
7.00225e-06
-1.03815e-06
7.18247e-06
4.52981e-06
-9.1299e-07
-3.33997e-06
-1.34132e-06
-6.34973e-06
-9.36303e-07
-7.07118e-06
2.22155e-08
-6.70566e-06
1.24045e-06
-5.92677e-06
2.5189e-06
-5.06716e-06
3.74478e-06
-4.26818e-06
4.86536e-06
-3.57565e-06
5.86277e-06
-2.99346e-06
6.73716e-06
-2.50996e-06
7.49689e-06
-2.10948e-06
8.15346e-06
-1.77702e-06
8.71882e-06
-1.4997e-06
9.20425e-06
-1.26698e-06
9.61986e-06
-1.0704e-06
9.97448e-06
-9.03181e-07
1.02757e-05
-7.59898e-07
1.053e-05
-6.36147e-07
1.07427e-05
-5.28318e-07
1.09184e-05
-4.33401e-07
1.10608e-05
-3.48846e-07
1.11727e-05
-2.72447e-07
1.12564e-05
-2.02256e-07
1.13136e-05
-1.3651e-07
1.13453e-05
-7.35693e-08
1.13519e-05
-1.18692e-08
1.13333e-05
5.01361e-08
1.12888e-05
1.14014e-07
1.1217e-05
1.81413e-07
1.11159e-05
2.54116e-07
1.09828e-05
3.34112e-07
1.08141e-05
4.2368e-07
1.06054e-05
5.25494e-07
1.03512e-05
6.42763e-07
1.00446e-05
7.79412e-07
9.67754e-06
9.4031e-07
9.24003e-06
1.13159e-06
8.72038e-06
1.36101e-06
8.10496e-06
1.63849e-06
7.37845e-06
1.97659e-06
6.52482e-06
2.39098e-06
5.52976e-06
2.90045e-06
4.38605e-06
3.52543e-06
3.10421e-06
4.28309e-06
1.73181e-06
5.17434e-06
3.83675e-07
6.15347e-06
-7.24448e-07
7.06675e-06
-1.26566e-06
7.54346e-06
-9.15853e-07
6.83266e-06
3.61395e-06
-6.64696e-07
-2.67527e-06
-1.29694e-06
-5.71749e-06
-1.41745e-06
-6.95066e-06
-1.04141e-06
-7.08171e-06
-3.23299e-07
-6.64488e-06
5.79328e-07
-5.96979e-06
1.54822e-06
-5.23707e-06
2.50747e-06
-4.5349e-06
3.41387e-06
-3.89986e-06
4.246e-06
-3.34209e-06
4.99584e-06
-2.85932e-06
5.66303e-06
-2.44421e-06
6.2513e-06
-2.08797e-06
6.76632e-06
-1.782e-06
7.21445e-06
-1.51853e-06
7.60204e-06
-1.29077e-06
7.93507e-06
-1.09293e-06
8.21895e-06
-9.20031e-07
8.45847e-06
-7.67835e-07
8.65773e-06
-6.32665e-07
8.8202e-06
-5.1131e-07
8.94867e-06
-4.00921e-07
9.04534e-06
-2.98926e-07
9.11179e-06
-2.02955e-07
9.14899e-06
-1.10775e-07
9.15735e-06
-2.02294e-08
9.13667e-06
7.0819e-08
9.08614e-06
1.64546e-07
9.00432e-06
2.63231e-07
8.88911e-06
3.69323e-07
8.7377e-06
4.8552e-07
8.54652e-06
6.14867e-07
8.31114e-06
7.60867e-07
8.02629e-06
9.27619e-07
7.68571e-06
1.11999e-06
7.28223e-06
1.34379e-06
6.80778e-06
1.60603e-06
6.25369e-06
1.91511e-06
5.61124e-06
2.28094e-06
4.87286e-06
2.71497e-06
4.03436e-06
3.22948e-06
3.09887e-06
3.83595e-06
2.08335e-06
4.54094e-06
1.02883e-06
5.33762e-06
1.39897e-08
6.18918e-06
-8.31918e-07
6.99938e-06
-1.32906e-06
7.5639e-06
-1.2928e-06
7.5072e-06
-6.84916e-07
6.22478e-06
2.92904e-06
-4.70674e-07
-2.2046e-06
-1.0993e-06
-5.08887e-06
-1.46722e-06
-6.58274e-06
-1.46784e-06
-7.08109e-06
-1.14694e-06
-6.96578e-06
-5.99481e-07
-6.51724e-06
8.085e-08
-5.9174e-06
8.20197e-07
-5.27425e-06
1.56692e-06
-4.64659e-06
2.28796e-06
-4.06313e-06
2.96392e-06
-3.53527e-06
3.58473e-06
-3.06502e-06
4.1464e-06
-2.64965e-06
4.64869e-06
-2.28429e-06
5.09353e-06
-1.96336e-06
5.484e-06
-1.68125e-06
5.82372e-06
-1.43264e-06
6.11637e-06
-1.21268e-06
6.3655e-06
-1.01696e-06
6.57432e-06
-8.41486e-07
6.74565e-06
-6.8264e-07
6.88184e-06
-5.37113e-07
6.98476e-06
-4.01838e-07
7.05573e-06
-2.73931e-07
7.09559e-06
-1.50633e-07
7.10461e-06
-2.92489e-08
7.08252e-06
9.29076e-08
7.02849e-06
2.18576e-07
6.94111e-06
3.50614e-07
6.81837e-06
4.92066e-07
6.65764e-06
6.46243e-07
6.4557e-06
8.16809e-07
6.20869e-06
1.00788e-06
5.91217e-06
1.22414e-06
5.56124e-06
1.47092e-06
5.15068e-06
1.75435e-06
4.67535e-06
2.08136e-06
4.13078e-06
2.45967e-06
3.51425e-06
2.89747e-06
2.82648e-06
3.40274e-06
2.0743e-06
3.98166e-06
1.27464e-06
4.63561e-06
4.59972e-07
5.35561e-06
-3.15145e-07
6.11274e-06
-9.68548e-07
6.84258e-06
-1.39142e-06
7.42225e-06
-1.46862e-06
7.6411e-06
-1.13576e-06
7.17434e-06
-4.96454e-07
5.58548e-06
2.43258e-06
-3.39692e-07
-1.86491e-06
-9.01378e-07
-4.52718e-06
-1.36287e-06
-6.12125e-06
-1.58277e-06
-6.86118e-06
-1.54265e-06
-7.00591e-06
-1.28454e-06
-6.77535e-06
-8.6976e-07
-6.33218e-06
-3.57384e-07
-5.78662e-06
2.04325e-07
-5.2083e-06
7.79528e-07
-4.63833e-06
1.34341e-06
-4.09915e-06
1.87988e-06
-3.60148e-06
2.37924e-06
-3.14901e-06
2.83635e-06
-2.7414e-06
3.24906e-06
-2.37608e-06
3.61723e-06
-2.04942e-06
3.9419e-06
-1.75731e-06
4.22479e-06
-1.49557e-06
4.46789e-06
-1.26006e-06
4.67326e-06
-1.04686e-06
4.84283e-06
-8.52206e-07
4.97826e-06
-6.72551e-07
5.08093e-06
-5.04504e-07
5.1518e-06
-3.44804e-07
5.19145e-06
-1.90276e-07
5.19998e-06
-3.77854e-08
5.17708e-06
1.15814e-07
5.12192e-06
2.73731e-07
5.03323e-06
4.39301e-07
4.90926e-06
6.16037e-07
4.7478e-06
8.07702e-07
4.54624e-06
1.01837e-06
4.30162e-06
1.2525e-06
4.0108e-06
1.51496e-06
3.67065e-06
1.81108e-06
3.27839e-06
2.14661e-06
2.83219e-06
2.52757e-06
2.33195e-06
2.95991e-06
1.78059e-06
3.44884e-06
1.18577e-06
3.99755e-06
5.62376e-07
4.60505e-06
-6.44892e-08
5.26247e-06
-6.56164e-07
5.94728e-06
-1.15798e-06
6.61456e-06
-1.50024e-06
7.18483e-06
-1.60744e-06
7.52945e-06
-1.42334e-06
7.457e-06
-9.59311e-07
6.71031e-06
-3.66454e-07
4.99262e-06
2.06613e-06
-2.54758e-07
-1.61015e-06
-7.40364e-07
-4.04158e-06
-1.22007e-06
-5.64154e-06
-1.55719e-06
-6.52406e-06
-1.70272e-06
-6.86038e-06
-1.66254e-06
-6.81553e-06
-1.46931e-06
-6.52541e-06
-1.16389e-06
-6.09205e-06
-7.85237e-07
-5.58695e-06
-3.66071e-07
-5.0575e-06
6.82264e-08
-4.53345e-06
4.99078e-07
-4.03234e-06
9.13567e-07
-3.5635e-06
1.30319e-06
-3.13101e-06
1.66271e-06
-2.7356e-06
1.98925e-06
-2.37596e-06
2.28155e-06
-2.04962e-06
2.53942e-06
-1.75344e-06
2.76331e-06
-1.48395e-06
2.95402e-06
-1.23757e-06
3.11251e-06
-1.01069e-06
3.23966e-06
-7.99707e-07
3.33626e-06
-6.01104e-07
3.40285e-06
-4.11394e-07
3.4397e-06
-2.27125e-07
3.44676e-06
-4.4845e-08
3.42364e-06
1.38929e-07
3.36962e-06
3.27753e-07
3.28363e-06
5.25298e-07
3.16427e-06
7.3539e-07
3.00992e-06
9.62052e-07
2.81876e-06
1.20953e-06
2.58894e-06
1.48232e-06
2.31878e-06
1.78512e-06
2.00707e-06
2.12279e-06
1.65352e-06
2.50015e-06
1.25943e-06
2.92166e-06
8.28486e-07
3.39085e-06
3.68037e-07
3.90929e-06
-1.09474e-07
4.47506e-06
-5.84719e-07
5.0803e-06
-1.02973e-06
5.70748e-06
-1.40675e-06
6.3243e-06
-1.66898e-06
6.87678e-06
-1.76533e-06
7.28119e-06
-1.65238e-06
7.41649e-06
-1.31674e-06
7.12136e-06
-8.08879e-07
6.20245e-06
-2.81029e-07
4.46477e-06
1.7851e-06
-1.99166e-07
-1.41098e-06
-6.17509e-07
-3.62323e-06
-1.08272e-06
-5.17634e-06
-1.47652e-06
-6.13026e-06
-1.73947e-06
-6.59743e-06
-1.85611e-06
-6.69889e-06
-1.83769e-06
-6.54383e-06
-1.70842e-06
-6.22131e-06
-1.49632e-06
-5.79906e-06
-1.22797e-06
-5.32584e-06
-9.26212e-07
-4.83521e-06
-6.09338e-07
-4.34921e-06
-2.91331e-07
-3.88151e-06
1.7575e-08
-3.43992e-06
3.10186e-07
-3.02821e-06
5.81667e-07
-2.64744e-06
8.28946e-07
-2.2969e-06
1.05022e-06
-1.97471e-06
1.24458e-06
-1.67831e-06
1.41166e-06
-1.40465e-06
1.55145e-06
-1.15048e-06
1.66411e-06
-9.12363e-07
1.7498e-06
-6.86796e-07
1.80863e-06
-4.7023e-07
1.84059e-06
-2.59077e-07
1.84545e-06
-4.97051e-08
1.8228e-06
1.61571e-07
1.77205e-06
3.78511e-07
1.69237e-06
6.04972e-07
1.58284e-06
8.44919e-07
1.44246e-06
1.10244e-06
1.27028e-06
1.38171e-06
1.0656e-06
1.687e-06
8.282e-07
2.02252e-06
5.58692e-07
2.3923e-06
2.58992e-07
2.79985e-06
-6.70619e-08
3.24772e-06
-4.12919e-07
3.7367e-06
-7.6837e-07
4.26474e-06
-1.1185e-06
4.82519e-06
-1.44269e-06
5.40449e-06
-1.71409e-06
5.97889e-06
-1.90016e-06
6.51037e-06
-1.96527e-06
6.94189e-06
-1.87695e-06
7.19287e-06
-1.61721e-06
7.15675e-06
-1.19961e-06
6.70377e-06
-6.90199e-07
5.69304e-06
-2.24354e-07
3.99893e-06
1.56075e-06
-1.61822e-07
-1.24916e-06
-5.2558e-07
-3.25948e-06
-9.64676e-07
-4.73724e-06
-1.38133e-06
-5.71361e-06
-1.71606e-06
-6.26269e-06
-1.94246e-06
-6.47249e-06
-2.05748e-06
-6.42881e-06
-2.07211e-06
-6.20668e-06
-2.00409e-06
-5.86708e-06
-1.87304e-06
-5.45689e-06
-1.69761e-06
-5.01064e-06
-1.49408e-06
-4.55274e-06
-1.27586e-06
-4.09973e-06
-1.05357e-06
-3.66222e-06
-8.35282e-07
-3.24649e-06
-6.26994e-07
-2.85573e-06
-4.32995e-07
-2.49089e-06
-2.56274e-07
-2.15143e-06
-9.88453e-08
-1.83573e-06
3.79776e-08
-1.54148e-06
1.53359e-07
-1.26586e-06
2.46768e-07
-1.00577e-06
3.1784e-07
-7.57868e-07
3.66284e-07
-5.18674e-07
3.91807e-07
-2.84599e-07
3.9407e-07
-5.19674e-08
3.72667e-07
1.82973e-07
3.27132e-07
4.24046e-07
2.56967e-07
6.75138e-07
1.61698e-07
9.40188e-07
4.09746e-08
1.22316e-06
-1.05291e-07
1.52798e-06
-2.76732e-07
1.85844e-06
-4.72264e-07
2.21805e-06
-6.89743e-07
2.60978e-06
-9.2553e-07
3.03564e-06
-1.17396e-06
3.49615e-06
-1.42674e-06
3.98948e-06
-1.67229e-06
4.51028e-06
-1.89518e-06
5.04809e-06
-2.0759e-06
5.5852e-06
-2.19117e-06
6.09416e-06
-2.21555e-06
6.53475e-06
-2.12489e-06
6.85123e-06
-1.90248e-06
6.97046e-06
-1.54828e-06
6.80255e-06
-1.09073e-06
6.24623e-06
-5.98415e-07
5.20072e-06
-1.85552e-07
3.58606e-06
1.3752e-06
-1.36e-07
-1.11316e-06
-4.56937e-07
-2.93854e-06
-8.67999e-07
-4.32618e-06
-1.28961e-06
-5.29199e-06
-1.66688e-06
-5.88543e-06
-1.96888e-06
-6.1705e-06
-2.18381e-06
-6.21388e-06
-2.31304e-06
-6.07745e-06
-2.36578e-06
-5.81434e-06
-2.355e-06
-5.46767e-06
-2.2947e-06
-5.07095e-06
-2.19819e-06
-4.64924e-06
-2.07732e-06
-4.2206e-06
-1.94207e-06
-3.79747e-06
-1.80054e-06
-3.38802e-06
-1.65916e-06
-2.99711e-06
-1.52288e-06
-2.62718e-06
-1.39542e-06
-2.27889e-06
-1.27957e-06
-1.95158e-06
-1.17736e-06
-1.64369e-06
-1.09027e-06
-1.35296e-06
-1.01937e-06
-1.07667e-06
-9.65472e-07
-8.11765e-07
-9.29198e-07
-5.54949e-07
-9.11051e-07
-3.02746e-07
-9.11461e-07
-5.15576e-08
-9.30797e-07
2.02309e-07
-9.69359e-07
4.62608e-07
-1.02734e-06
7.33121e-07
-1.10477e-06
1.01761e-06
-1.20138e-06
1.31977e-06
-1.31652e-06
1.64311e-06
-1.44889e-06
1.99081e-06
-1.59636e-06
2.36552e-06
-1.75563e-06
2.76906e-06
-1.92191e-06
3.20192e-06
-2.08848e-06
3.66271e-06
-2.24629e-06
4.14729e-06
-2.38367e-06
4.64766e-06
-2.48616e-06
5.15058e-06
-2.53681e-06
5.63585e-06
-2.51711e-06
6.07445e-06
-2.40905e-06
6.42669e-06
-2.19866e-06
6.64084e-06
-1.88126e-06
6.65307e-06
-1.46845e-06
6.38974e-06
-9.95511e-07
5.77329e-06
-5.27232e-07
4.73244e-06
-1.57977e-07
3.21681e-06
1.21722e-06
-1.17664e-07
-9.95497e-07
-4.05437e-07
-2.65077e-06
-7.90593e-07
-3.94102e-06
-1.20839e-06
-4.87419e-06
-1.60997e-06
-5.48385e-06
-1.96359e-06
-5.81687e-06
-2.25258e-06
-5.9249e-06
-2.47172e-06
-5.85831e-06
-2.62364e-06
-5.66242e-06
-2.71559e-06
-5.37572e-06
-2.75705e-06
-5.02949e-06
-2.75813e-06
-4.64816e-06
-2.72852e-06
-4.25021e-06
-2.67694e-06
-3.84905e-06
-2.61091e-06
-3.45404e-06
-2.53672e-06
-3.0713e-06
-2.45946e-06
-2.70443e-06
-2.38323e-06
-2.35512e-06
-2.31123e-06
-2.02358e-06
-2.24596e-06
-1.70896e-06
-2.18934e-06
-1.40958e-06
-2.14284e-06
-1.12317e-06
-2.10759e-06
-8.47014e-07
-2.08445e-06
-5.78084e-07
-2.07409e-06
-3.13115e-07
-2.07696e-06
-4.86841e-08
-2.09338e-06
2.18733e-07
-2.12348e-06
4.92709e-07
-2.16717e-06
7.76806e-07
-2.22405e-06
1.0745e-06
-2.29337e-06
1.38909e-06
-2.37382e-06
1.72356e-06
-2.46342e-06
2.08041e-06
-2.55928e-06
2.46138e-06
-2.65737e-06
2.86715e-06
-2.75227e-06
3.29682e-06
-2.83689e-06
3.74733e-06
-2.9023e-06
4.2127e-06
-2.93767e-06
4.68303e-06
-2.93045e-06
5.14336e-06
-2.867e-06
5.5724e-06
-2.73385e-06
5.94131e-06
-2.51984e-06
6.21268e-06
-2.21925e-06
6.34025e-06
-1.83602e-06
6.26984e-06
-1.38855e-06
5.94228e-06
-9.14163e-07
5.2989e-06
-4.71353e-07
4.28963e-06
-1.37659e-07
2.88311e-06
1.07956e-06
-1.04352e-07
-8.91145e-07
-3.66536e-07
-2.38858e-06
-7.293e-07
-3.57826e-06
-1.13952e-06
-4.46398e-06
-1.55434e-06
-5.06903e-06
-1.94311e-06
-5.4281e-06
-2.28677e-06
-5.58124e-06
-2.57589e-06
-5.56919e-06
-2.80823e-06
-5.43008e-06
-2.98641e-06
-5.19755e-06
-3.11594e-06
-4.89996e-06
-3.20378e-06
-4.56032e-06
-3.25731e-06
-4.19668e-06
-3.28365e-06
-3.82271e-06
-3.28933e-06
-3.44837e-06
-3.28008e-06
-3.08056e-06
-3.26078e-06
-2.72373e-06
-3.23553e-06
-2.38037e-06
-3.20769e-06
-2.05142e-06
-3.17997e-06
-1.73668e-06
-3.15454e-06
-1.43501e-06
-3.13312e-06
-1.14459e-06
-3.11704e-06
-8.63097e-07
-3.1073e-06
-5.87816e-07
-3.10465e-06
-3.15765e-07
-3.10957e-06
-4.37733e-08
-3.12226e-06
2.31432e-07
-3.14271e-06
5.13155e-07
-3.17055e-06
8.0465e-07
-3.20508e-06
1.10902e-06
-3.2451e-06
1.42911e-06
-3.28886e-06
1.76732e-06
-3.33391e-06
2.12545e-06
-3.37689e-06
2.50437e-06
-3.41344e-06
2.9037e-06
-3.43799e-06
3.32136e-06
-3.44366e-06
3.753e-06
-3.42226e-06
4.1913e-06
-3.3644e-06
4.62517e-06
-3.25995e-06
5.03891e-06
-3.09881e-06
5.41127e-06
-2.87229e-06
5.71478e-06
-2.575e-06
5.9154e-06
-2.20757e-06
5.97282e-06
-1.7797e-06
5.84197e-06
-1.31337e-06
5.47594e-06
-8.45183e-07
4.83071e-06
-4.26822e-07
3.87127e-06
-1.22204e-07
2.5785e-06
9.57355e-07
-9.45192e-08
-7.96626e-07
-3.36955e-07
-2.14615e-06
-6.81034e-07
-3.23418e-06
-1.08255e-06
-4.06246e-06
-1.50406e-06
-4.64753e-06
-1.91679e-06
-5.01537e-06
-2.30085e-06
-5.19718e-06
-2.64423e-06
-5.2258e-06
-2.94128e-06
-5.13303e-06
-3.191e-06
-4.94782e-06
-3.39559e-06
-4.69537e-06
-3.55916e-06
-4.39675e-06
-3.68682e-06
-4.06902e-06
-3.78398e-06
-3.72554e-06
-3.85596e-06
-3.37639e-06
-3.90767e-06
-3.02885e-06
-3.94352e-06
-2.68788e-06
-3.96736e-06
-2.35653e-06
-3.98244e-06
-2.03634e-06
-3.99152e-06
-1.72761e-06
-3.99682e-06
-1.4297e-06
-4.00017e-06
-1.14124e-06
-4.00299e-06
-8.60282e-07
-4.00634e-06
-5.84462e-07
-4.01099e-06
-3.11119e-07
-4.01737e-06
-3.73938e-08
-4.02561e-06
2.39679e-07
-4.03553e-06
5.23075e-07
-4.04657e-06
8.15682e-07
-4.05773e-06
1.12019e-06
-4.06756e-06
1.43894e-06
-4.07401e-06
1.77377e-06
-4.07434e-06
2.12578e-06
-4.06506e-06
2.49508e-06
-4.04177e-06
2.88041e-06
-3.99915e-06
3.27875e-06
-3.93098e-06
3.68482e-06
-3.83017e-06
4.0905e-06
-3.68916e-06
4.48417e-06
-3.50039e-06
4.85014e-06
-3.25718e-06
5.16806e-06
-2.95502e-06
5.41262e-06
-2.59321e-06
5.55359e-06
-2.177e-06
5.5566e-06
-1.71971e-06
5.38467e-06
-1.24475e-06
5.00099e-06
-7.86716e-07
4.37267e-06
-3.9081e-07
3.47537e-06
-1.10133e-07
2.29782e-06
8.47222e-07
-8.71609e-08
-7.09465e-07
-3.14334e-07
-1.91897e-06
-6.43141e-07
-2.90537e-06
-1.03619e-06
-3.66941e-06
-1.4606e-06
-4.22312e-06
-1.88973e-06
-4.58623e-06
-2.30376e-06
-4.78315e-06
-2.68921e-06
-4.84035e-06
-3.03807e-06
-4.78416e-06
-3.34668e-06
-4.63922e-06
-3.61451e-06
-4.42753e-06
-3.84323e-06
-4.16802e-06
-4.03587e-06
-3.87638e-06
-4.19617e-06
-3.56525e-06
-4.32814e-06
-3.24442e-06
-4.43576e-06
-2.92123e-06
-4.52279e-06
-2.60085e-06
-4.59262e-06
-2.28669e-06
-4.64828e-06
-1.98068e-06
-4.69234e-06
-1.68354e-06
-4.727e-06
-1.39505e-06
-4.75404e-06
-1.1142e-06
-4.77487e-06
-8.39449e-07
-4.79056e-06
-5.68774e-07
-4.80182e-06
-2.99858e-07
-4.80903e-06
-3.01802e-08
-4.81223e-06
2.4288e-07
-4.81109e-06
5.21934e-07
-4.80489e-06
8.09478e-07
-4.79246e-06
1.10776e-06
-4.77217e-06
1.41865e-06
-4.74183e-06
1.74343e-06
-4.69864e-06
2.0826e-06
-4.63916e-06
2.4356e-06
-4.55926e-06
2.80051e-06
-4.45417e-06
3.17366e-06
-4.31854e-06
3.54919e-06
-4.14668e-06
3.91864e-06
-3.93296e-06
4.27044e-06
-3.67232e-06
4.5895e-06
-3.3612e-06
4.85693e-06
-2.99857e-06
5.04999e-06
-2.5874e-06
5.14242e-06
-2.13613e-06
5.10533e-06
-1.6602e-06
4.90875e-06
-1.18319e-06
4.52397e-06
-7.37061e-07
3.92655e-06
-3.61318e-07
3.09962e-06
-1.0051e-07
2.03701e-06
7.46712e-07
-8.16024e-08
-6.27863e-07
-2.96964e-07
-1.70361e-06
-6.13453e-07
-2.58889e-06
-9.98869e-07
-3.28399e-06
-1.42408e-06
-3.79791e-06
-1.86455e-06
-4.14577e-06
-2.30092e-06
-4.34678e-06
-2.71902e-06
-4.42226e-06
-3.10928e-06
-4.3939e-06
-3.46604e-06
-4.28246e-06
-3.78667e-06
-4.1069e-06
-4.0708e-06
-3.8839e-06
-4.3196e-06
-3.62758e-06
-4.53527e-06
-3.34958e-06
-4.72055e-06
-3.05914e-06
-4.87844e-06
-2.76334e-06
-5.01194e-06
-2.46735e-06
-5.12392e-06
-2.17472e-06
-5.217e-06
-1.88761e-06
-5.29351e-06
-1.60703e-06
-5.35547e-06
-1.33309e-06
-5.40455e-06
-1.06513e-06
-5.44207e-06
-8.01924e-07
-5.46903e-06
-5.41813e-07
-5.48608e-06
-2.82817e-07
-5.49349e-06
-2.27641e-08
-5.49122e-06
2.40608e-07
-5.47882e-06
5.09536e-07
-5.45546e-06
7.8612e-07
-5.41989e-06
1.07219e-06
-5.37037e-06
1.36914e-06
-5.30473e-06
1.67779e-06
-5.22026e-06
1.99812e-06
-5.11375e-06
2.32909e-06
-4.98155e-06
2.6683e-06
-4.81958e-06
3.01169e-06
-4.62358e-06
3.35319e-06
-4.38932e-06
3.68439e-06
-4.11306e-06
3.99418e-06
-3.79208e-06
4.26852e-06
-3.42546e-06
4.49032e-06
-3.01506e-06
4.63959e-06
-2.56655e-06
4.69391e-06
-2.09055e-06
4.62933e-06
-1.60356e-06
4.42176e-06
-1.12855e-06
4.04896e-06
-6.94808e-07
3.49281e-06
-3.36931e-07
2.74175e-06
-9.27189e-08
1.7928e-06
6.53993e-07
-7.73771e-08
-5.50485e-07
-2.83592e-07
-1.4974e-06
-5.90245e-07
-2.28223e-06
-9.69088e-07
-2.90515e-06
-1.39403e-06
-3.37296e-06
-1.8424e-06
-3.6974e-06
-2.29555e-06
-3.89363e-06
-2.73902e-06
-3.97879e-06
-3.16228e-06
-3.97064e-06
-3.55823e-06
-3.88651e-06
-3.92259e-06
-3.74254e-06
-4.25332e-06
-3.55316e-06
-4.55006e-06
-3.33085e-06
-4.81359e-06
-3.08605e-06
-5.04548e-06
-2.82724e-06
-5.24776e-06
-2.56106e-06
-5.42266e-06
-2.29245e-06
-5.57245e-06
-2.02493e-06
-5.69931e-06
-1.76075e-06
-5.80524e-06
-1.5011e-06
-5.89201e-06
-1.24632e-06
-5.96109e-06
-9.96038e-07
-6.0137e-06
-7.49321e-07
-6.05069e-06
-5.04823e-07
-6.0726e-06
-2.60899e-07
-6.07965e-06
-1.57167e-08
-6.07167e-06
2.3263e-07
-6.04815e-06
4.86012e-07
-6.00818e-06
7.46147e-07
-5.95046e-06
1.01447e-06
-5.8733e-06
1.29198e-06
-5.7746e-06
1.57909e-06
-5.65187e-06
1.8754e-06
-5.50229e-06
2.17951e-06
-5.32276e-06
2.48877e-06
-5.11004e-06
2.79897e-06
-4.86099e-06
3.10414e-06
-4.57284e-06
3.39624e-06
-4.24359e-06
3.66493e-06
-3.8726e-06
3.89752e-06
-3.46118e-06
4.0789e-06
-3.01344e-06
4.19185e-06
-2.53703e-06
4.21751e-06
-2.04396e-06
4.13625e-06
-1.55111e-06
3.92891e-06
-1.08049e-06
3.57834e-06
-6.5885e-07
3.07117e-06
-3.16644e-07
2.39954e-06
-8.63468e-08
1.5625e-06
5.67646e-07
-7.4155e-08
-4.7633e-07
-2.73295e-07
-1.29826e-06
-5.72158e-07
-1.98337e-06
-9.45515e-07
-2.53179e-06
-1.3697e-06
-2.94878e-06
-1.82364e-06
-3.24346e-06
-2.28945e-06
-3.42781e-06
-2.75268e-06
-3.51556e-06
-3.20217e-06
-3.52114e-06
-3.62981e-06
-3.45887e-06
-4.03009e-06
-3.34227e-06
-4.39963e-06
-3.18362e-06
-4.73676e-06
-2.99371e-06
-5.04108e-06
-2.78174e-06
-5.31308e-06
-2.55524e-06
-5.55389e-06
-2.32025e-06
-5.76499e-06
-2.08135e-06
-5.94805e-06
-1.84187e-06
-6.10478e-06
-1.60402e-06
-6.23681e-06
-1.36908e-06
-6.3456e-06
-1.13752e-06
-6.43245e-06
-9.09197e-07
-6.49834e-06
-6.83423e-07
-6.54403e-06
-4.59137e-07
-6.56993e-06
-2.35001e-07
-6.57614e-06
-9.50599e-09
-6.56243e-06
2.18918e-07
-6.52821e-06
4.51797e-07
-6.47256e-06
6.90499e-07
-6.3942e-06
9.36109e-07
-6.29152e-06
1.1893e-06
-6.16258e-06
1.45015e-06
-6.0052e-06
1.71802e-06
-5.81699e-06
1.99131e-06
-5.5955e-06
2.26727e-06
-5.33836e-06
2.54183e-06
-5.04351e-06
2.8093e-06
-4.70954e-06
3.06227e-06
-4.33605e-06
3.29144e-06
-3.92413e-06
3.4856e-06
-3.47695e-06
3.63172e-06
-3.00034e-06
3.71523e-06
-2.50335e-06
3.72052e-06
-1.99882e-06
3.63172e-06
-1.50363e-06
3.43371e-06
-1.03865e-06
3.11336e-06
-6.28335e-07
2.66086e-06
-2.99741e-07
2.07095e-06
-8.11098e-08
1.34387e-06
4.86536e-07
-7.16982e-08
-4.04632e-07
-2.65383e-07
-1.10457e-06
-5.58136e-07
-1.69062e-06
-9.27021e-07
-2.16291e-06
-1.35029e-06
-2.52551e-06
-1.8082e-06
-2.78554e-06
-2.28362e-06
-2.9524e-06
-2.7622e-06
-3.03698e-06
-3.23244e-06
-3.0509e-06
-3.68553e-06
-3.00578e-06
-4.11502e-06
-2.91278e-06
-4.51649e-06
-2.78215e-06
-4.8872e-06
-2.623e-06
-5.22573e-06
-2.44321e-06
-5.53166e-06
-2.24931e-06
-5.8053e-06
-2.0466e-06
-6.04745e-06
-1.8392e-06
-6.2592e-06
-1.63012e-06
-6.44179e-06
-1.42143e-06
-6.59646e-06
-1.21441e-06
-6.72439e-06
-1.00959e-06
-6.82662e-06
-8.06968e-07
-6.90397e-06
-6.06077e-07
-6.95701e-06
-4.06097e-07
-6.98605e-06
-2.05965e-07
-6.99108e-06
-4.46843e-09
-6.97182e-06
1.99651e-07
-6.92763e-06
4.07608e-07
-6.85759e-06
6.20461e-07
-6.76048e-06
8.39e-07
-6.63481e-06
1.06363e-06
-6.47888e-06
1.29422e-06
-6.29083e-06
1.52996e-06
-6.06875e-06
1.76923e-06
-5.81084e-06
2.00936e-06
-5.51556e-06
2.24655e-06
-5.18189e-06
2.47563e-06
-4.80962e-06
2.69e-06
-4.39973e-06
2.88155e-06
-3.95479e-06
3.04066e-06
-3.47942e-06
3.15635e-06
-2.98074e-06
3.21655e-06
-2.46879e-06
3.20858e-06
-1.95686e-06
3.11979e-06
-1.46155e-06
2.93841e-06
-1.00266e-06
2.65447e-06
-6.02625e-07
2.26082e-06
-2.85707e-07
1.75403e-06
-7.68097e-08
1.13497e-06
4.09726e-07
-6.98339e-08
-3.34798e-07
-2.59345e-07
-9.15059e-07
-5.47358e-07
-1.4026e-06
-9.12678e-07
-1.79759e-06
-1.33504e-06
-2.10315e-06
-1.79583e-06
-2.32476e-06
-2.27851e-06
-2.46972e-06
-2.76896e-06
-2.54653e-06
-3.25549e-06
-2.56437e-06
-3.72878e-06
-2.53249e-06
-4.18171e-06
-2.45986e-06
-4.60904e-06
-2.35482e-06
-5.00719e-06
-2.22485e-06
-5.3739e-06
-2.07649e-06
-5.70798e-06
-1.91523e-06
-6.00902e-06
-1.74556e-06
-6.27722e-06
-1.571e-06
-6.51313e-06
-1.3942e-06
-6.71757e-06
-1.217e-06
-6.89142e-06
-1.04056e-06
-7.03556e-06
-8.65444e-07
-7.15079e-06
-6.91736e-07
-7.23774e-06
-5.19124e-07
-7.29684e-06
-3.46998e-07
-7.32827e-06
-1.74537e-07
-7.33194e-06
-7.94715e-10
-7.3075e-06
1.75209e-07
-7.25431e-06
3.54412e-07
-7.17145e-06
5.37607e-07
-7.0578e-06
7.25347e-07
-6.91201e-06
9.17838e-07
-6.73262e-06
1.11482e-06
-6.51811e-06
1.31546e-06
-6.26707e-06
1.51818e-06
-5.97828e-06
1.72058e-06
-5.65099e-06
1.91925e-06
-5.28509e-06
2.10973e-06
-4.88144e-06
2.28634e-06
-4.44215e-06
2.44226e-06
-3.97098e-06
2.5695e-06
-3.4737e-06
2.65906e-06
-2.95838e-06
2.70123e-06
-2.43574e-06
2.68593e-06
-1.91926e-06
2.60331e-06
-1.42517e-06
2.44433e-06
-9.72247e-07
2.20154e-06
-5.81244e-07
1.86982e-06
-2.74171e-07
1.44695e-06
-7.33071e-08
9.34108e-07
3.36419e-07
-6.84354e-08
-2.66363e-07
-2.54795e-07
-7.287e-07
-5.39194e-07
-1.1182e-06
-9.01743e-07
-1.43504e-06
-1.32332e-06
-1.68157e-06
-1.78617e-06
-1.86191e-06
-2.27431e-06
-1.98157e-06
-2.77382e-06
-2.04702e-06
-3.27293e-06
-2.06526e-06
-3.76198e-06
-2.04343e-06
-4.23335e-06
-1.9885e-06
-4.68118e-06
-1.90698e-06
-5.10125e-06
-1.80479e-06
-5.49061e-06
-1.68713e-06
-5.84743e-06
-1.55841e-06
-6.17073e-06
-1.42226e-06
-6.46018e-06
-1.28156e-06
-6.71588e-06
-1.1385e-06
-6.93824e-06
-9.94633e-07
-7.12785e-06
-8.50953e-07
-7.28531e-06
-7.07983e-07
-7.4112e-06
-5.65848e-07
-7.50597e-06
-4.24352e-07
-7.56991e-06
-2.83057e-07
-7.6031e-06
-1.41354e-07
-7.60536e-06
1.47055e-09
-7.5763e-06
1.46152e-07
-7.51528e-06
2.93386e-07
-7.42142e-06
4.43745e-07
-7.29367e-06
5.97598e-07
-7.13085e-06
7.5502e-07
-6.93173e-06
9.15705e-07
-6.69513e-06
1.07886e-06
-6.42006e-06
1.24311e-06
-6.10587e-06
1.40639e-06
-5.75245e-06
1.56584e-06
-5.36051e-06
1.71778e-06
-4.93175e-06
1.85759e-06
-4.46925e-06
1.97977e-06
-3.97771e-06
2.07795e-06
-3.46373e-06
2.14508e-06
-2.9361e-06
2.17361e-06
-2.40597e-06
2.1558e-06
-1.88687e-06
2.08421e-06
-1.39465e-06
1.95211e-06
-9.47181e-07
1.75407e-06
-5.63844e-07
1.48648e-06
-2.6487e-07
1.14798e-06
-7.05031e-08
7.39741e-07
2.65916e-07
-6.74108e-08
-1.98952e-07
-2.5145e-07
-5.4466e-07
-5.33169e-07
-8.36485e-07
-8.93634e-07
-1.07457e-06
-1.31458e-06
-1.26062e-06
-1.7789e-06
-1.39759e-06
-2.27106e-06
-1.48942e-06
-2.77732e-06
-1.54077e-06
-3.28587e-06
-1.55671e-06
-3.78686e-06
-1.54245e-06
-4.27227e-06
-1.50308e-06
-4.73584e-06
-1.44341e-06
-5.1728e-06
-1.36783e-06
-5.57972e-06
-1.28021e-06
-5.95426e-06
-1.18387e-06
-6.29497e-06
-1.08155e-06
-6.60108e-06
-9.75445e-07
-6.87234e-06
-8.67237e-07
-7.10885e-06
-7.58131e-07
-7.31088e-06
-6.48916e-07
-7.47885e-06
-5.40021e-07
-7.61312e-06
-4.31576e-07
-7.714e-06
-3.23468e-07
-7.78166e-06
-2.15398e-07
-7.81608e-06
-1.06936e-07
-7.81703e-06
2.42271e-09
-7.78408e-06
1.13201e-07
-7.71658e-06
2.25887e-07
-7.6137e-06
3.4087e-07
-7.47449e-06
4.58383e-07
-7.2979e-06
5.7843e-07
-7.08291e-06
7.00719e-07
-6.82864e-06
8.24587e-07
-6.53445e-06
9.48927e-07
-6.20018e-06
1.07211e-06
-5.82627e-06
1.19194e-06
-5.41405e-06
1.30556e-06
-4.96594e-06
1.40948e-06
-4.48573e-06
1.49956e-06
-3.97884e-06
1.57106e-06
-3.45251e-06
1.61875e-06
-2.91602e-06
1.63712e-06
-2.38079e-06
1.62057e-06
-1.86033e-06
1.56375e-06
-1.37012e-06
1.4619e-06
-9.27296e-07
1.31125e-06
-5.50172e-07
1.10936e-06
-2.57615e-07
8.55423e-07
-6.8328e-08
5.50454e-07
1.97588e-07
-6.66939e-08
-1.32258e-07
-2.49105e-07
-3.62249e-07
-5.28933e-07
-5.56657e-07
-8.87914e-07
-7.15592e-07
-1.30838e-06
-8.40154e-07
-1.77372e-06
-9.32251e-07
-2.2687e-06
-9.94433e-07
-2.77975e-06
-1.02972e-06
-3.29505e-06
-1.04141e-06
-3.8046e-06
-1.03289e-06
-4.30016e-06
-1.00751e-06
-4.77514e-06
-9.68438e-07
-5.22441e-06
-9.18562e-07
-5.64416e-06
-8.60457e-07
-6.0317e-06
-7.96334e-07
-6.38521e-06
-7.28034e-07
-6.70362e-06
-6.57034e-07
-6.98639e-06
-5.8447e-07
-7.23335e-06
-5.11167e-07
-7.4446e-06
-4.3767e-07
-7.62034e-06
-3.64284e-07
-7.7608e-06
-2.91112e-07
-7.86617e-06
-2.18095e-07
-7.93652e-06
-1.45047e-07
-7.97176e-06
-7.16976e-08
-7.97161e-06
2.27661e-09
-7.93562e-06
7.72095e-08
-7.86315e-06
1.5341e-07
-7.75339e-06
2.31118e-07
-7.60548e-06
3.10466e-07
-7.41848e-06
3.91432e-07
-7.19155e-06
4.73791e-07
-6.92403e-06
5.5707e-07
-6.6156e-06
6.40492e-07
-6.26643e-06
7.2294e-07
-5.8774e-06
8.02907e-07
-5.45031e-06
8.78471e-07
-4.98812e-06
9.47283e-07
-4.49513e-06
1.00658e-06
-3.97729e-06
1.05321e-06
-3.44227e-06
1.08374e-06
-2.8997e-06
1.09455e-06
-2.36114e-06
1.08201e-06
-1.84006e-06
1.04267e-06
-1.35165e-06
9.73482e-07
-9.12472e-07
8.72072e-07
-5.40054e-07
7.36939e-07
-2.52273e-07
5.67643e-07
-6.67334e-08
3.64914e-07
1.30855e-07
-6.62395e-08
-6.6019e-08
-2.47616e-07
-1.80873e-07
-5.26238e-07
-2.78035e-07
-8.84267e-07
-3.57563e-07
-1.30442e-06
-4.19999e-07
-1.7704e-06
-4.66278e-07
-2.26718e-06
-4.97653e-07
-2.78129e-06
-5.15608e-07
-3.30093e-06
-5.21766e-07
-3.81602e-06
-5.17804e-07
-4.31816e-06
-5.05373e-07
-4.80055e-06
-4.86046e-07
-5.25785e-06
-4.61262e-07
-5.68601e-06
-4.32304e-07
-6.08207e-06
-4.00276e-07
-6.444e-06
-3.66103e-07
-6.77051e-06
-3.30526e-07
-7.06086e-06
-2.94119e-07
-7.31473e-06
-2.57299e-07
-7.53205e-06
-2.20346e-07
-7.71292e-06
-1.83417e-07
-7.85746e-06
-1.46569e-07
-7.96578e-06
-1.09777e-07
-8.03787e-06
-7.29529e-08
-8.0736e-06
-3.59653e-08
-8.07267e-06
1.34266e-09
-8.03459e-06
3.91335e-08
-7.95874e-06
7.75563e-08
-7.84435e-06
1.16726e-07
-7.69058e-06
1.56701e-07
-7.49661e-06
1.97463e-07
-7.26171e-06
2.3889e-07
-6.98538e-06
2.80736e-07
-6.66749e-06
3.22602e-07