/*--------------------------------*- C++ -*----------------------------------*\
  =========                 |
  \\      /  F ield         | OpenFOAM: The Open Source CFD Toolbox
   \\    /   O peration     | Website:  https://openfoam.org
    \\  /    A nd           | Version:  7
     \\/     M anipulation  |
\*---------------------------------------------------------------------------*/
FoamFile
{
    version     2.0;
    format      ascii;
    class       surfaceScalarField;
    location    "0.005";
    object      phi;
}
// * * * * * * * * * * * * * * * * * * * * * * * * * * * * * * * * * * * * * //

dimensions      [0 3 -1 0 0 0 0];

internalField   nonuniform List<scalar> 
4900
(
5.36448e-10
-5.36667e-10
-1.10688e-10
6.47156e-10
-2.22606e-09
2.11538e-09
-5.61805e-09
3.39199e-09
-9.96205e-09
4.344e-09
-1.49458e-08
4.98379e-09
-2.03088e-08
5.36298e-09
-2.58485e-08
5.53964e-09
-3.1414e-08
5.56552e-09
-3.68959e-08
5.48195e-09
-4.22158e-08
5.3199e-09
-4.73172e-08
5.10133e-09
-5.21583e-08
4.84117e-09
-5.67075e-08
4.54921e-09
-6.09393e-08
4.2318e-09
-6.48324e-08
3.89309e-09
-6.83684e-08
3.53595e-09
-7.1531e-08
3.16262e-09
-7.4306e-08
2.77499e-09
-7.66808e-08
2.37484e-09
-7.86448e-08
1.96393e-09
-8.01888e-08
1.54403e-09
-8.13057e-08
1.11694e-09
-8.19902e-08
6.84495e-10
-8.22388e-08
2.48544e-10
-8.20498e-08
-1.8904e-10
-8.14234e-08
-6.26373e-10
-8.03619e-08
-1.06154e-09
-7.88692e-08
-1.49264e-09
-7.69514e-08
-1.91776e-09
-7.46165e-08
-2.33499e-09
-7.18741e-08
-2.7424e-09
-6.8736e-08
-3.13807e-09
-6.52159e-08
-3.52004e-09
-6.13298e-08
-3.88618e-09
-5.70957e-08
-4.23403e-09
-5.25353e-08
-4.56043e-09
-4.76744e-08
-4.86092e-09
-4.25456e-08
-5.12883e-09
-3.71916e-08
-5.35399e-09
-3.16705e-08
-5.52115e-09
-2.60624e-08
-5.60801e-09
-2.04791e-08
-5.58334e-09
-1.50735e-08
-5.40563e-09
-1.00503e-08
-5.02318e-09
-5.67219e-09
-4.37806e-09
-2.25315e-09
-3.41905e-09
-1.19074e-10
-2.13408e-09
5.37687e-10
-6.56768e-10
5.37656e-10
-6.40517e-10
1.03865e-10
-3.99993e-09
4.00657e-09
-1.04211e-08
8.53663e-09
-1.95238e-08
1.24947e-08
-3.07382e-08
1.55585e-08
-4.34562e-08
1.77018e-08
-5.71223e-08
1.9029e-08
-7.12722e-08
1.96896e-08
-8.55389e-08
1.98322e-08
-9.96418e-08
1.95848e-08
-1.1337e-07
1.90485e-08
-1.26568e-07
1.82986e-08
-1.39115e-07
1.73887e-08
-1.50921e-07
1.63553e-08
-1.61913e-07
1.52235e-08
-1.7203e-07
1.401e-08
-1.81221e-07
1.2727e-08
-1.89442e-07
1.13836e-08
-1.96655e-07
9.98752e-09
-2.02825e-07
8.54581e-09
-2.07927e-07
7.06512e-09
-2.11935e-07
5.55209e-09
-2.14831e-07
4.01331e-09
-2.16602e-07
2.45544e-09
-2.17239e-07
8.8517e-10
-2.16737e-07
-6.90727e-10
-2.15098e-07
-2.26547e-09
-2.12327e-07
-3.83221e-09
-2.08436e-07
-5.38405e-09
-2.0344e-07
-6.91406e-09
-1.97359e-07
-8.41527e-09
-1.90221e-07
-9.8806e-09
-1.82056e-07
-1.13028e-08
-1.72902e-07
-1.26743e-08
-1.62802e-07
-1.39866e-08
-1.51806e-07
-1.52298e-08
-1.39976e-07
-1.63908e-08
-1.27385e-07
-1.74517e-08
-1.14127e-07
-1.83868e-08
-1.00323e-07
-1.9158e-08
-8.61329e-08
-1.97109e-08
-7.17718e-08
-1.99692e-08
-5.75244e-08
-1.98307e-08
-4.37628e-08
-1.91672e-08
-3.09558e-08
-1.78301e-08
-1.96635e-08
-1.56705e-08
-1.04977e-08
-1.25848e-08
-4.03112e-09
-8.60066e-09
-6.45875e-10
-4.04206e-09
-1.08184e-10
-2.09449e-09
2.19837e-09
-8.51896e-09
1.04311e-08
-1.90418e-08
1.90595e-08
-3.31091e-08
2.6562e-08
-4.99824e-08
3.24318e-08
-6.88858e-08
3.66051e-08
-8.90963e-08
3.92395e-08
-1.09992e-07
4.05851e-08
-1.31065e-07
4.09049e-08
-1.51915e-07
4.0435e-08
-1.72234e-07
3.93683e-08
-1.91788e-07
3.78527e-08
-2.10396e-07
3.59962e-08
-2.27916e-07
3.3875e-08
-2.44234e-07
3.15419e-08
-2.59258e-07
2.90339e-08
-2.72908e-07
2.63776e-08
-2.85118e-07
2.35935e-08
-2.9583e-07
2.06988e-08
-3.04993e-07
1.77087e-08
-3.12565e-07
1.46375e-08
-3.18512e-07
1.14993e-08
-3.22807e-07
8.30797e-09
-3.25429e-07
5.07735e-09
-3.26365e-07
1.82138e-09
-3.2561e-07
-1.44595e-09
-3.23165e-07
-4.71055e-09
-3.19039e-07
-7.95824e-09
-3.13248e-07
-1.11748e-08
-3.05816e-07
-1.43457e-08
-2.96775e-07
-1.74564e-08
-2.86164e-07
-2.0492e-08
-2.74029e-07
-2.34371e-08
-2.60428e-07
-2.62752e-08
-2.45427e-07
-2.89879e-08
-2.29104e-07
-3.1553e-08
-2.11553e-07
-3.39421e-08
-1.92888e-07
-3.61165e-08
-1.73254e-07
-3.80211e-08
-1.52834e-07
-3.95777e-08
-1.31869e-07
-4.06763e-08
-1.10671e-07
-4.1167e-08
-8.96459e-08
-4.08555e-08
-6.93083e-08
-3.95048e-08
-5.02864e-08
-3.6852e-08
-3.33087e-08
-3.26481e-08
-1.91561e-08
-2.67374e-08
-8.57058e-09
-1.91862e-08
-2.10825e-09
-1.05044e-08
-2.21641e-09
-3.37887e-09
5.57727e-09
-1.25476e-08
1.95998e-08
-2.67189e-08
3.32308e-08
-4.50459e-08
4.48891e-08
-6.66162e-08
5.40021e-08
-9.05257e-08
6.05146e-08
-1.15944e-07
6.46575e-08
-1.4215e-07
6.67916e-08
-1.68549e-07
6.73041e-08
-1.94664e-07
6.65496e-08
-2.2012e-07
6.48239e-08
-2.44625e-07
6.23582e-08
-2.67953e-07
5.93245e-08
-2.89925e-07
5.58465e-08
-3.10395e-07
5.20116e-08
-3.29243e-07
4.78822e-08
-3.46369e-07
4.35039e-08
-3.61688e-07
3.89119e-08
-3.75125e-07
3.41358e-08
-3.86617e-07
2.92015e-08
-3.96113e-07
2.41333e-08
-4.03569e-07
1.89546e-08
-4.08949e-07
1.36887e-08
-4.12231e-07
8.3585e-09
-4.13396e-07
2.98694e-09
-4.12439e-07
-2.40292e-09
-4.09362e-07
-7.78791e-09
-4.04175e-07
-1.31447e-08
-3.969e-07
-1.84497e-08
-3.87567e-07
-2.36792e-08
-3.76214e-07
-2.88089e-08
-3.62892e-07
-3.3814e-08
-3.47661e-07
-3.86684e-08
-3.30592e-07
-4.33443e-08
-3.11769e-07
-4.78102e-08
-2.91294e-07
-5.20282e-08
-2.69286e-07
-5.59501e-08
-2.45892e-07
-5.95105e-08
-2.21294e-07
-6.26189e-08
-1.95724e-07
-6.51481e-08
-1.69477e-07
-6.69232e-08
-1.42934e-07
-6.77099e-08
-1.16579e-07
-6.72103e-08
-9.10156e-08
-6.50685e-08
-6.697e-08
-6.08976e-08
-4.52798e-08
-5.43383e-08
-2.68543e-08
-4.51629e-08
-1.26101e-08
-3.34305e-08
-3.39594e-09
-1.97185e-08
-5.61237e-09
-4.3785e-09
9.95579e-09
-1.58257e-08
3.1047e-08
-3.3068e-08
5.04731e-08
-5.49574e-08
6.67785e-08
-8.03977e-08
7.94423e-08
-1.08367e-07
8.84836e-08
-1.37949e-07
9.42398e-08
-1.68358e-07
9.72004e-08
-1.9894e-07
9.78862e-08
-2.29168e-07
9.67775e-08
-2.58623e-07
9.42795e-08
-2.86978e-07
9.07125e-08
-3.13971e-07
8.63178e-08
-3.39396e-07
8.12715e-08
-3.63084e-07
7.57e-08
-3.84897e-07
6.96945e-08
-4.04715e-07
6.33226e-08
-4.22441e-07
5.66373e-08
-4.37987e-07
4.96823e-08
-4.51282e-07
4.24966e-08
-4.62265e-07
3.5116e-08
-4.70886e-07
2.75752e-08
-4.77105e-07
1.99079e-08
-4.80894e-07
1.21477e-08
-4.82235e-07
4.32799e-09
-4.8112e-07
-3.51783e-09
-4.77552e-07
-1.13562e-08
-4.71543e-07
-1.91532e-08
-4.63118e-07
-2.68748e-08
-4.52311e-07
-3.44862e-08
-4.39168e-07
-4.19521e-08
-4.23746e-07
-4.92359e-08
-4.06115e-07
-5.62996e-08
-3.86358e-07
-6.31015e-08
-3.64574e-07
-6.95947e-08
-3.40879e-07
-7.57231e-08
-3.15414e-07
-8.14152e-08
-2.88348e-07
-8.65757e-08
-2.59893e-07
-9.10738e-08
-2.30313e-07
-9.47288e-08
-1.99941e-07
-9.72949e-08
-1.69203e-07
-9.8448e-08
-1.38633e-07
-9.778e-08
-1.08893e-07
-9.48087e-08
-8.0777e-08
-8.90137e-08
-5.52074e-08
-7.99079e-08
-3.32121e-08
-6.71581e-08
-1.58916e-08
-5.0751e-08
-4.39609e-09
-3.1214e-08
-1.00085e-08
-5.11974e-09
1.50755e-08
-1.83732e-08
4.43005e-08
-3.81156e-08
7.02155e-08
-6.29306e-08
9.15936e-08
-9.15444e-08
1.08056e-07
-1.2282e-07
1.19759e-07
-1.55765e-07
1.27185e-07
-1.89538e-07
1.30974e-07
-2.23445e-07
1.31793e-07
-2.56923e-07
1.30256e-07
-2.89526e-07
1.26882e-07
-3.20898e-07
1.22085e-07
-3.50758e-07
1.16178e-07
-3.78879e-07
1.09393e-07
-4.05077e-07
1.01898e-07
-4.29197e-07
9.38147e-08
-4.51111e-07
8.52359e-08
-4.70707e-07
7.62334e-08
-4.87891e-07
6.68672e-08
-5.02585e-07
5.71905e-08
-5.14722e-07
4.72522e-08
-5.24245e-07
3.70991e-08
-5.31115e-07
2.67769e-08
-5.35298e-07
1.63307e-08
-5.36775e-07
5.80519e-09
-5.35538e-07
-4.75489e-09
-5.31589e-07
-1.53046e-08
-5.24944e-07
-2.57986e-08
-5.15627e-07
-3.61912e-08
-5.03678e-07
-4.64358e-08
-4.89145e-07
-5.64848e-08
-4.72092e-07
-6.62889e-08
-4.52596e-07
-7.5796e-08
-4.30747e-07
-8.49498e-08
-4.06656e-07
-9.36861e-08
-3.80451e-07
-1.01928e-07
-3.52286e-07
-1.0958e-07
-3.22348e-07
-1.16513e-07
-2.90868e-07
-1.22554e-07
-2.58132e-07
-1.27465e-07
-2.24499e-07
-1.30927e-07
-1.90426e-07
-1.32521e-07
-1.56481e-07
-1.31725e-07
-1.23369e-07
-1.27922e-07
-9.19373e-08
-1.20445e-07
-6.31872e-08
-1.08658e-07
-3.82616e-08
-9.20838e-08
-1.84385e-08
-7.05741e-08
-5.13634e-09
-4.45162e-08
-1.51448e-08
-5.66282e-09
2.07384e-08
-2.03247e-08
5.89624e-08
-4.20792e-08
9.19701e-08
-6.92898e-08
1.18804e-07
-1.00522e-07
1.39288e-07
-1.34528e-07
1.53765e-07
-1.70242e-07
1.62899e-07
-2.06772e-07
1.67504e-07
-2.43388e-07
1.68408e-07
-2.795e-07
1.66368e-07
-3.1464e-07
1.62022e-07
-3.48436e-07
1.5588e-07
-3.8059e-07
1.48332e-07
-4.10863e-07
1.39666e-07
-4.39058e-07
1.30093e-07
-4.65012e-07
1.19769e-07
-4.88586e-07
1.0881e-07
-5.09664e-07
9.7311e-08
-5.28145e-07
8.5348e-08
-5.43944e-07
7.29898e-08
-5.56991e-07
6.02993e-08
-5.67229e-07
4.73365e-08
-5.74611e-07
3.41595e-08
-5.79106e-07
2.08256e-08
-5.80693e-07
7.39152e-09
-5.79361e-07
-6.08597e-09
-5.75116e-07
-1.95501e-08
-5.67971e-07
-3.29434e-08
-5.57954e-07
-4.62081e-08
-5.45105e-07
-5.92848e-08
-5.29477e-07
-7.21131e-08
-5.11136e-07
-8.46297e-08
-4.90164e-07
-9.67681e-08
-4.66658e-07
-1.08456e-07
-4.40734e-07
-1.1961e-07
-4.1253e-07
-1.30133e-07
-3.8221e-07
-1.399e-07
-3.49972e-07
-1.48751e-07
-3.1606e-07
-1.56466e-07
-2.80776e-07
-1.62749e-07
-2.44499e-07
-1.67204e-07
-2.07706e-07
-1.69315e-07
-1.70992e-07
-1.68438e-07
-1.35099e-07
-1.63815e-07
-1.00928e-07
-1.54617e-07
-6.95517e-08
-1.40034e-07
-4.22256e-08
-1.1941e-07
-2.03882e-08
-9.24114e-08
-5.67802e-09
-5.92264e-08
-2.08228e-08
-6.07052e-09
2.68089e-08
-2.18472e-08
7.4739e-08
-4.52443e-08
1.15367e-07
-7.44511e-08
1.48011e-07
-1.07893e-07
1.72731e-07
-1.4422e-07
1.90091e-07
-1.82291e-07
2.0097e-07
-2.21165e-07
2.06378e-07
-2.60076e-07
2.07319e-07
-2.98411e-07
2.04703e-07
-3.35684e-07
1.99295e-07
-3.71508e-07
1.91705e-07
-4.05575e-07
1.82399e-07
-4.37635e-07
1.71726e-07
-4.67484e-07
1.59942e-07
-4.94952e-07
1.47236e-07
-5.19894e-07
1.33753e-07
-5.42189e-07
1.19606e-07
-5.61733e-07
1.04892e-07
-5.78439e-07
8.9695e-08
-5.92232e-07
7.40925e-08
-6.03054e-07
5.81582e-08
-6.10857e-07
4.19633e-08
-6.15609e-07
2.55775e-08
-6.17288e-07
9.0702e-09
-6.15884e-07
-7.48988e-09
-6.11401e-07
-2.40336e-08
-6.03853e-07
-4.04913e-08
-5.93268e-07
-5.67924e-08
-5.79689e-07
-7.28647e-08
-5.63168e-07
-8.8634e-08
-5.43774e-07
-1.04023e-07
-5.21593e-07
-1.1895e-07
-4.96724e-07
-1.33325e-07
-4.69288e-07
-1.47046e-07
-4.39429e-07
-1.59992e-07
-4.07317e-07
-1.72012e-07
-3.73159e-07
-1.82909e-07
-3.37209e-07
-1.92416e-07
-2.9978e-07
-2.00178e-07
-2.61265e-07
-2.05719e-07
-2.22161e-07
-2.0842e-07
-1.83088e-07
-2.0751e-07
-1.44824e-07
-2.02079e-07
-1.08319e-07
-1.91121e-07
-7.47232e-08
-1.7363e-07
-4.53938e-08
-1.48739e-07
-2.19103e-08
-1.15895e-07
-6.08473e-09
-7.5052e-08
-2.69075e-08
-6.39675e-09
3.32057e-08
-2.30982e-08
9.14405e-08
-4.78923e-08
1.40161e-07
-7.88299e-08
1.78949e-07
-1.14215e-07
2.08116e-07
-1.52601e-07
2.28477e-07
-1.92775e-07
2.41144e-07
-2.33743e-07
2.47346e-07
-2.74705e-07
2.48281e-07
-3.15023e-07
2.45021e-07
-3.54191e-07
2.38463e-07
-3.9181e-07
2.29324e-07
-4.27563e-07
2.18152e-07
-4.61193e-07
2.05356e-07
-4.92489e-07
1.91238e-07
-5.21277e-07
1.76024e-07
-5.47409e-07
1.59885e-07
-5.7076e-07
1.42957e-07
-5.91224e-07
1.25356e-07
-6.08712e-07
1.07183e-07
-6.23149e-07
8.85299e-08
-6.34476e-07
6.94848e-08
-6.42644e-07
5.01319e-08
-6.47621e-07
3.0554e-08
-6.49383e-07
1.08325e-08
-6.47922e-07
-8.95125e-09
-6.43239e-07
-2.8716e-08
-6.35351e-07
-4.83796e-08
-6.24285e-07
-6.78587e-08
-6.10081e-07
-8.70681e-08
-5.92795e-07
-1.0592e-07
-5.72497e-07
-1.24322e-07
-5.49271e-07
-1.42176e-07
-5.2322e-07
-1.59375e-07
-4.94467e-07
-1.75798e-07
-4.6316e-07
-1.913e-07
-4.29473e-07
-2.05699e-07
-3.9362e-07
-2.18762e-07
-3.55861e-07
-2.30175e-07
-3.16521e-07
-2.39518e-07
-2.76007e-07
-2.46233e-07
-2.34831e-07
-2.49595e-07
-1.93644e-07
-2.48698e-07
-1.53257e-07
-2.42466e-07
-1.14676e-07
-2.29702e-07
-7.91218e-08
-2.09184e-07
-4.80509e-08
-1.7981e-07
-2.31639e-08
-1.40782e-07
-6.41086e-09
-9.1805e-08
-3.33184e-08
-6.6836e-09
3.98893e-08
-2.42095e-08
1.08966e-07
-5.02677e-08
1.66219e-07
-8.27935e-08
2.11474e-07
-1.19983e-07
2.45306e-07
-1.60297e-07
2.68791e-07
-2.02453e-07
2.833e-07
-2.45403e-07
2.90296e-07
-2.88307e-07
2.91185e-07
-3.30499e-07
2.87213e-07
-3.71456e-07
2.79421e-07
-4.10767e-07
2.68634e-07
-4.48102e-07
2.55487e-07
-4.83199e-07
2.40453e-07
-5.15843e-07
2.23882e-07
-5.45856e-07
2.06037e-07
-5.73089e-07
1.87117e-07
-5.97413e-07
1.67282e-07
-6.18724e-07
1.46667e-07
-6.36931e-07
1.2539e-07
-6.5196e-07
1.03559e-07
-6.6375e-07
8.12751e-08
-6.72255e-07
5.86367e-08
-6.7744e-07
3.57391e-08
-6.79284e-07
1.26759e-08
-6.77776e-07
-1.04594e-08
-6.72918e-07
-3.35735e-08
-6.64726e-07
-5.65719e-08
-6.53226e-07
-7.93588e-08
-6.38458e-07
-1.01836e-07
-6.20477e-07
-1.23901e-07
-5.99351e-07
-1.45447e-07
-5.75167e-07
-1.66361e-07
-5.48026e-07
-1.86516e-07
-5.18053e-07
-2.05771e-07
-4.85397e-07
-2.23956e-07
-4.50237e-07
-2.40859e-07
-4.1279e-07
-2.56208e-07
-3.73325e-07
-2.6964e-07
-3.32175e-07
-2.80668e-07
-2.89762e-07
-2.88647e-07
-2.46619e-07
-2.92738e-07
-2.03424e-07
-2.91893e-07
-1.6103e-07
-2.8486e-07
-1.20496e-07
-2.70236e-07
-8.31178e-08
-2.46563e-07
-5.04431e-08
-2.12485e-07
-2.42816e-08
-1.66943e-07
-6.6988e-09
-1.09388e-07
-4.00173e-08
-6.96218e-09
4.68514e-08
-2.52839e-08
1.27288e-07
-5.25671e-08
1.93503e-07
-8.66427e-08
2.4555e-07
-1.25606e-07
2.84268e-07
-1.67828e-07
3.11013e-07
-2.11954e-07
3.27426e-07
-2.5688e-07
3.35222e-07
-3.01724e-07
3.36029e-07
-3.45789e-07
3.31279e-07
-3.88533e-07
3.22164e-07
-4.29527e-07
3.09628e-07
-4.68433e-07
2.94394e-07
-5.04983e-07
2.77003e-07
-5.38958e-07
2.57857e-07
-5.70175e-07
2.37255e-07
-5.98486e-07
2.15427e-07
-6.23762e-07
1.92558e-07
-6.45899e-07
1.68803e-07
-6.64805e-07
1.44297e-07
-6.80409e-07
1.19162e-07
-6.9265e-07
9.35165e-08
-7.01483e-07
6.74696e-08
-7.06874e-07
4.11297e-08
-7.088e-07
1.46024e-08
-7.07253e-07
-1.20071e-08
-7.02232e-07
-3.85938e-08
-6.93753e-07
-6.50514e-08
-6.8184e-07
-9.12717e-08
-6.66532e-07
-1.17144e-07
-6.47882e-07
-1.42551e-07
-6.25957e-07
-1.67373e-07
-6.0084e-07
-1.91478e-07
-5.72634e-07
-2.14722e-07
-5.41464e-07
-2.36942e-07
-5.07478e-07
-2.57941e-07
-4.70859e-07
-2.77479e-07
-4.31827e-07
-2.9524e-07
-3.90659e-07
-3.10808e-07
-3.47698e-07
-3.23629e-07
-3.03382e-07
-3.32963e-07
-2.58267e-07
-3.37853e-07
-2.13062e-07
-3.37097e-07
-1.68665e-07
-3.29258e-07
-1.26192e-07
-3.12708e-07
-8.70138e-08
-2.85741e-07
-5.27682e-08
-2.4673e-07
-2.53667e-08
-1.94345e-07
-6.97973e-09
-1.27775e-07
-4.6997e-08
-7.25454e-09
5.4106e-08
-2.63976e-08
1.46431e-07
-5.49408e-08
2.22046e-07
-9.06119e-08
2.81221e-07
-1.31406e-07
3.25062e-07
-1.75604e-07
3.55212e-07
-2.21777e-07
3.73598e-07
-2.68759e-07
3.82204e-07
-3.15624e-07
3.82893e-07
-3.61642e-07
3.77297e-07
-4.06244e-07
3.66766e-07
-4.48987e-07
3.52371e-07
-4.89523e-07
3.3493e-07
-5.27575e-07
3.15055e-07
-5.62919e-07
2.93201e-07
-5.95375e-07
2.6971e-07
-6.24789e-07
2.44842e-07
-6.51038e-07
2.18807e-07
-6.74015e-07
1.9178e-07
-6.93633e-07
1.63915e-07
-7.09821e-07
1.3535e-07
-7.2252e-07
1.06216e-07
-7.31688e-07
7.66368e-08
-7.37289e-07
4.67314e-08
-7.39304e-07
1.66173e-08
-7.37722e-07
-1.35894e-08
-7.32543e-07
-4.37725e-08
-7.2378e-07
-7.38146e-08
-7.11456e-07
-1.03596e-07
-6.95607e-07
-1.32992e-07
-6.76283e-07
-1.61875e-07
-6.53549e-07
-1.90107e-07
-6.27486e-07
-2.17541e-07
-5.98194e-07
-2.44014e-07
-5.65795e-07
-2.6934e-07
-5.3044e-07
-2.93297e-07
-4.92311e-07
-3.15607e-07
-4.51635e-07
-3.35916e-07
-4.08693e-07
-3.5375e-07
-3.63844e-07
-3.68479e-07
-3.1754e-07
-3.79267e-07
-2.70364e-07
-3.85028e-07
-2.23061e-07
-3.844e-07
-1.76576e-07
-3.75743e-07
-1.32089e-07
-3.57196e-07
-9.10457e-08
-3.26784e-07
-5.5177e-08
-2.82599e-07
-2.64957e-08
-2.23026e-07
-7.2757e-09
-1.46995e-07
-5.42726e-08
-7.57593e-09
6.16819e-08
-2.76059e-08
1.66461e-07
-5.75004e-08
2.5194e-07
-9.48787e-08
3.18599e-07
-1.37631e-07
3.67814e-07
-1.83944e-07
4.01526e-07
-2.32308e-07
4.21962e-07
-2.81494e-07
4.31391e-07
-3.30525e-07
4.31924e-07
-3.78633e-07
4.25405e-07
-4.25224e-07
4.13357e-07
-4.69835e-07
3.96982e-07
-5.12106e-07
3.77201e-07
-5.51753e-07
3.54702e-07
-5.8855e-07
3.29998e-07
-6.22312e-07
3.03472e-07
-6.52889e-07
2.75419e-07
-6.80158e-07
2.46075e-07
-7.04015e-07
2.15637e-07
-7.24377e-07
1.84277e-07
-7.41175e-07
1.52148e-07
-7.54353e-07
1.19395e-07
-7.6387e-07
8.61538e-08
-7.69694e-07
5.25555e-08
-7.71805e-07
1.87279e-08
-7.70192e-07
-1.52028e-08
-7.64854e-07
-4.91103e-08
-7.55802e-07
-8.28667e-08
-7.43056e-07
-1.16341e-07
-7.2665e-07
-1.49398e-07
-7.06629e-07
-1.81896e-07
-6.83053e-07
-2.13683e-07
-6.56e-07
-2.44594e-07
-6.25567e-07
-2.74447e-07
-5.91874e-07
-3.03034e-07
-5.55069e-07
-3.30102e-07
-5.15336e-07
-3.5534e-07
-4.72907e-07
-3.78345e-07
-4.2807e-07
-3.98586e-07
-3.81195e-07
-4.15353e-07
-3.32758e-07
-4.27704e-07
-2.83369e-07
-4.34418e-07
-2.33812e-07
-4.33957e-07
-1.85085e-07
-4.2447e-07
-1.38435e-07
-4.03845e-07
-9.53923e-08
-3.69827e-07
-5.7782e-08
-3.2021e-07
-2.7724e-08
-2.53084e-07
-7.60198e-09
-1.67117e-07
-6.18747e-08
-7.93694e-09
6.96188e-08
-2.89486e-08
1.87473e-07
-6.03289e-08
2.83321e-07
-9.95771e-08
3.57848e-07
-1.44469e-07
4.12706e-07
-1.93092e-07
4.50149e-07
-2.43848e-07
4.72718e-07
-2.95437e-07
4.8298e-07
-3.46826e-07
4.83314e-07
-3.97209e-07
4.75788e-07
-4.45959e-07
4.62107e-07
-4.92595e-07
4.43617e-07
-5.36741e-07
4.21348e-07
-5.78108e-07
3.96069e-07
-6.16464e-07
3.68354e-07
-6.51626e-07
3.38634e-07
-6.83445e-07
3.07238e-07
-7.118e-07
2.7443e-07
-7.36592e-07
2.4043e-07
-7.57742e-07
2.05426e-07
-7.75185e-07
1.69591e-07
-7.8887e-07
1.3308e-07
-7.98757e-07
9.60413e-08
-8.04818e-07
5.86166e-08
-8.07033e-07
2.0943e-08
-8.05392e-07
-1.68442e-08
-7.99892e-07
-5.46099e-08
-7.90542e-07
-9.22171e-08
-7.77358e-07
-1.29525e-07
-7.60369e-07
-1.66388e-07
-7.39615e-07
-2.0265e-07
-7.15152e-07
-2.38146e-07
-6.8705e-07
-2.72695e-07
-6.55402e-07
-3.06095e-07
-6.20325e-07
-3.38111e-07
-5.81963e-07
-3.68463e-07
-5.40502e-07
-3.96801e-07
-4.96176e-07
-4.22672e-07
-4.49283e-07
-4.4548e-07
-4.00206e-07
-4.6443e-07
-3.49444e-07
-4.78467e-07
-2.97638e-07
-4.86223e-07
-2.45618e-07
-4.85976e-07
-1.9444e-07
-4.75649e-07
-1.45424e-07
-4.52861e-07
-1.00189e-07
-4.15062e-07
-6.06668e-08
-3.59732e-07
-2.9092e-08
-2.84659e-07
-7.96924e-09
-1.88239e-07
-6.98439e-08
-8.34528e-09
7.79641e-08
-3.04558e-08
2.09583e-07
-6.34898e-08
3.16355e-07
-1.04812e-07
3.9917e-07
-1.52071e-07
4.59966e-07
-2.03243e-07
5.0132e-07
-2.56634e-07
5.26109e-07
-3.10867e-07
5.37212e-07
-3.64848e-07
5.37294e-07
-4.17723e-07
5.28663e-07
-4.68835e-07
5.13219e-07
-5.17678e-07
4.9246e-07
-5.63864e-07
4.67534e-07
-6.07094e-07
4.39299e-07
-6.47135e-07
4.08395e-07
-6.83803e-07
3.75302e-07
-7.16953e-07
3.40388e-07
-7.46468e-07
3.03946e-07
-7.72256e-07
2.66218e-07
-7.94244e-07
2.27414e-07
-8.12371e-07
1.87718e-07
-8.26593e-07
1.47302e-07
-8.36874e-07
1.06323e-07
-8.43189e-07
6.4931e-08
-8.45518e-07
2.32725e-08
-8.43852e-07
-1.85102e-08
-8.38187e-07
-6.02747e-08
-8.28528e-07
-1.01876e-07
-8.14887e-07
-1.43166e-07
-7.97287e-07
-1.83988e-07
-7.75761e-07
-2.24176e-07
-7.50357e-07
-2.6355e-07
-7.21139e-07
-3.01913e-07
-6.88193e-07
-3.39041e-07
-6.51629e-07
-3.74676e-07
-6.11588e-07
-4.08504e-07
-5.68254e-07
-4.40134e-07
-5.21865e-07
-4.69061e-07
-4.72727e-07
-4.94618e-07
-4.2124e-07
-5.15917e-07
-3.67924e-07
-5.31782e-07
-3.1346e-07
-5.40687e-07
-2.58725e-07
-5.40711e-07
-2.0484e-07
-5.29535e-07
-1.53206e-07
-5.04495e-07
-1.05543e-07
-4.62725e-07
-6.38962e-08
-4.01379e-07
-3.063e-08
-3.17925e-07
-8.38529e-09
-2.10484e-07
-7.82292e-08
-8.80716e-09
8.67713e-08
-3.21521e-08
2.32928e-07
-6.70359e-08
3.51238e-07
-1.1067e-07
4.42803e-07
-1.60562e-07
5.09859e-07
-2.14562e-07
5.5532e-07
-2.7087e-07
5.82416e-07
-3.28022e-07
5.94365e-07
-3.84858e-07
5.9413e-07
-4.40472e-07
5.84278e-07
-4.9417e-07
5.66917e-07
-5.45423e-07
5.43712e-07
-5.93827e-07
5.15938e-07
-6.39076e-07
4.84548e-07
-6.80935e-07
4.50254e-07
-7.19222e-07
4.13589e-07
-7.53796e-07
3.74963e-07
-7.8455e-07
3.34699e-07
-8.11397e-07
2.93065e-07
-8.34271e-07
2.50288e-07
-8.53123e-07
2.0657e-07
-8.67913e-07
1.62091e-07
-8.7861e-07
1.1702e-07
-8.85194e-07
7.15148e-08
-8.87648e-07
2.57265e-08
-8.85962e-07
-2.01966e-08
-8.8013e-07
-6.61067e-08
-8.70153e-07
-1.11854e-07
-8.56037e-07
-1.57282e-07
-8.37799e-07
-2.02227e-07
-8.15462e-07
-2.46512e-07
-7.89066e-07
-2.89946e-07
-7.58664e-07
-3.32315e-07
-7.24332e-07
-3.73373e-07
-6.86173e-07
-4.12835e-07
-6.44322e-07
-4.50355e-07
-5.9896e-07
-4.85496e-07
-5.50326e-07
-5.17695e-07
-4.98736e-07
-5.46209e-07
-4.44604e-07
-5.70048e-07
-3.8848e-07
-5.87906e-07
-3.31083e-07
-5.98085e-07
-2.73344e-07
-5.9845e-07
-2.16456e-07
-5.86423e-07
-1.61913e-07
-5.59038e-07
-1.11544e-07
-5.13094e-07
-6.75247e-08
-4.45398e-07
-3.23634e-08
-3.53087e-07
-8.85647e-09
-2.33991e-07
-8.70856e-08
-9.32833e-09
9.60996e-08
-3.40601e-08
2.5766e-07
-7.10156e-08
3.88194e-07
-1.17232e-07
4.8902e-07
-1.70057e-07
5.62684e-07
-2.272e-07
6.12463e-07
-2.86741e-07
6.41958e-07
-3.47121e-07
6.54745e-07
-4.07102e-07
6.54112e-07
-4.65725e-07
6.429e-07
-5.22253e-07
6.23445e-07
-5.76132e-07
5.97591e-07
-6.26943e-07
5.66749e-07
-6.74372e-07
5.31978e-07
-7.18185e-07
4.94066e-07
-7.58203e-07
4.53608e-07
-7.94295e-07
4.11054e-07
-8.2636e-07
3.66764e-07
-8.54324e-07
3.21029e-07
-8.78132e-07
2.74096e-07
-8.97744e-07
2.26181e-07
-9.13128e-07
1.77476e-07
-9.24263e-07
1.28155e-07
-9.31131e-07
7.83832e-08
-9.3372e-07
2.83152e-08
-9.32019e-07
-2.18977e-08
-9.2602e-07
-7.21051e-08
-9.1572e-07
-1.22154e-07
-9.01118e-07
-1.71883e-07
-8.8222e-07
-2.21125e-07
-8.5904e-07
-2.69692e-07
-8.31605e-07
-3.17382e-07
-7.99955e-07
-3.63965e-07
-7.64154e-07
-4.09174e-07
-7.24292e-07
-4.52697e-07
-6.80498e-07
-4.94149e-07
-6.32947e-07
-5.33047e-07
-5.81877e-07
-5.68765e-07
-5.27612e-07
-6.00474e-07
-4.70584e-07
-6.27076e-07
-4.11371e-07
-6.47119e-07
-3.50735e-07
-6.58721e-07
-2.8967e-07
-6.59516e-07
-2.29447e-07
-6.46645e-07
-1.71665e-07
-6.1682e-07
-1.18277e-07
-5.66482e-07
-7.16028e-08
-4.92072e-07
-3.43157e-08
-3.90374e-07
-9.38878e-09
-2.58918e-07
-9.64744e-08
-9.91483e-09
1.06014e-07
-3.62031e-08
2.83948e-07
-7.54785e-08
4.27469e-07
-1.2458e-07
5.38121e-07
-1.80674e-07
6.18778e-07
-2.4131e-07
6.73099e-07
-3.04435e-07
7.05083e-07
-3.68381e-07
7.1869e-07
-4.31825e-07
7.17556e-07
-4.93745e-07
7.0482e-07
-5.53362e-07
6.83062e-07
-6.10094e-07
6.54322e-07
-6.63505e-07
6.2016e-07
-7.13278e-07
5.8175e-07
-7.59178e-07
5.39967e-07
-8.01036e-07
4.95466e-07
-8.3873e-07
4.48748e-07
-8.72173e-07
4.00207e-07
-9.01305e-07
3.50161e-07
-9.26085e-07
2.98876e-07
-9.46484e-07
2.46581e-07
-9.62485e-07
1.93476e-07
-9.74073e-07
1.39744e-07
-9.81239e-07
8.5549e-08
-9.83973e-07
3.10489e-08
-9.82265e-07
-2.36058e-08
-9.76105e-07
-7.82651e-08
-9.65483e-07
-1.32776e-07
-9.50389e-07
-1.86977e-07
-9.30819e-07
-2.40695e-07
-9.06773e-07
-2.93739e-07
-8.78261e-07
-3.45894e-07
-8.45309e-07
-3.96917e-07
-8.07963e-07
-4.4652e-07
-7.66299e-07
-4.9436e-07
-7.20433e-07
-5.40015e-07
-6.7053e-07
-5.82949e-07
-6.16829e-07
-6.22466e-07
-5.59657e-07
-6.57646e-07
-4.99464e-07
-6.87269e-07
-4.36859e-07
-7.09724e-07
-3.72652e-07
-7.22928e-07
-3.07904e-07
-7.24264e-07
-2.43979e-07
-7.1057e-07
-1.82589e-07
-6.7821e-07
-1.25828e-07
-6.23243e-07
-7.61831e-08
-5.41717e-07
-3.65117e-08
-4.30045e-07
-9.98861e-09
-2.85441e-07
-1.06463e-07
-1.05736e-08
1.16588e-07
-3.86072e-08
3.11982e-07
-8.04795e-08
4.69342e-07
-1.32804e-07
5.90445e-07
-1.92541e-07
6.78515e-07
-2.57059e-07
7.37618e-07
-3.24155e-07
7.72178e-07
-3.92035e-07
7.86571e-07
-4.59285e-07
7.84806e-07
-5.24812e-07
7.70347e-07
-5.8779e-07
7.46041e-07
-6.47607e-07
7.14139e-07
-7.03814e-07
6.76368e-07
-7.56089e-07
6.34025e-07
-8.04204e-07
5.88081e-07
-8.48e-07
5.39261e-07
-8.8737e-07
4.88118e-07
-9.22245e-07
4.35082e-07
-9.52583e-07
3.80499e-07
-9.7836e-07
3.24654e-07
-9.99567e-07
2.67787e-07
-1.0162e-06
2.10107e-07
-1.02825e-06
1.51796e-07
-1.03572e-06
9.3022e-08
-1.03861e-06
3.39374e-08
-1.03691e-06
-2.53106e-08
-1.03059e-06
-8.45765e-08
-1.01966e-06
-1.43711e-07
-1.00408e-06
-2.02555e-07
-9.83839e-07
-2.60937e-07
-9.58917e-07
-3.1866e-07
-9.29307e-07
-3.75505e-07
-8.95012e-07
-4.31211e-07
-8.5606e-07
-4.85472e-07
-8.12505e-07
-5.37915e-07
-7.64445e-07
-5.88075e-07
-7.12035e-07
-6.3536e-07
-6.55504e-07
-6.78997e-07
-5.95185e-07
-7.17965e-07
-5.31545e-07
-7.50909e-07
-4.65224e-07
-7.76044e-07
-3.97085e-07
-7.91067e-07
-3.28265e-07
-7.93084e-07
-2.60229e-07
-7.78606e-07
-1.94821e-07
-7.43618e-07
-1.34295e-07
-6.83769e-07
-8.13241e-08
-5.94688e-07
-3.8979e-08
-4.7239e-07
-1.06632e-08
-3.13757e-07
-1.17126e-07
-1.13127e-08
1.27901e-07
-4.13029e-08
3.41972e-07
-8.60822e-08
5.14121e-07
-1.42007e-07
6.4637e-07
-2.05805e-07
7.42313e-07
-2.74637e-07
8.0645e-07
-3.46128e-07
8.43669e-07
-4.18347e-07
8.5879e-07
-4.89772e-07
8.56231e-07
-5.59234e-07
8.39809e-07
-6.25856e-07
8.12663e-07
-6.88995e-07
7.77278e-07
-7.48191e-07
7.35563e-07
-8.0312e-07
6.88955e-07
-8.53564e-07
6.38525e-07
-8.9938e-07
5.85078e-07
-9.40483e-07
5.29221e-07
-9.76826e-07
4.71425e-07
-1.00839e-06
4.12064e-07
-1.03518e-06
3.5144e-07
-1.0572e-06
2.89804e-07
-1.07446e-06
2.27369e-07
-1.08698e-06
1.64316e-07
-1.09476e-06
1.00807e-07
-1.09781e-06
3.69896e-08
-1.09613e-06
-2.69992e-08
-1.08968e-06
-9.10227e-08
-1.07845e-06
-1.5494e-07
-1.06241e-06
-2.186e-07
-1.04151e-06
-2.81834e-07
-1.01572e-06
-3.44448e-07
-9.8501e-07
-4.06216e-07
-9.49354e-07
-4.66866e-07
-9.08753e-07
-5.26073e-07
-8.63236e-07
-5.83432e-07
-8.12876e-07
-6.38435e-07
-7.5781e-07
-6.90427e-07
-6.98256e-07
-7.38551e-07
-6.34547e-07
-7.81674e-07
-5.67165e-07
-8.18291e-07
-4.96784e-07
-8.46425e-07
-4.24323e-07
-8.63528e-07
-3.51003e-07
-8.66404e-07
-2.78406e-07
-8.51203e-07
-2.08523e-07
-8.13501e-07
-1.43789e-07
-7.48502e-07
-8.70947e-08
-6.51382e-07
-4.17504e-08
-5.17734e-07
-1.14214e-08
-3.44086e-07
-1.28548e-07
-1.21423e-08
1.40043e-07
-4.43272e-08
3.74157e-07
-9.23632e-08
5.62157e-07
-1.52314e-07
7.06321e-07
-2.2064e-07
8.10638e-07
-2.94267e-07
8.80078e-07
-3.70623e-07
9.20025e-07
-4.4762e-07
9.35787e-07
-5.23617e-07
9.32228e-07
-5.97361e-07
9.13552e-07
-6.67919e-07
8.83221e-07
-7.34618e-07
8.43978e-07
-7.96988e-07
7.97933e-07
-8.54709e-07
7.46676e-07
-9.07579e-07
6.91395e-07
-9.55478e-07
6.32977e-07
-9.98348e-07
5.72091e-07
-1.03617e-06
5.0925e-07
-1.06896e-06
4.44855e-07
-1.09675e-06
3.79226e-07
-1.11957e-06
3.1262e-07
-1.13745e-06
2.45251e-07
-1.15043e-06
1.77295e-07
-1.15853e-06
1.08904e-07
-1.16175e-06
4.02133e-08
-1.16009e-06
-2.86548e-08
-1.15354e-06
-9.75784e-08
-1.14205e-06
-1.66431e-07
-1.12557e-06
-2.35075e-07
-1.10405e-06
-3.03351e-07
-1.07743e-06
-3.71069e-07
-1.04564e-06
-4.38004e-07
-1.00864e-06
-5.03876e-07
-9.6637e-07
-5.68339e-07
-9.18843e-07
-6.30959e-07
-8.66098e-07
-6.9118e-07
-8.08243e-07
-7.48282e-07
-7.45481e-07
-8.01313e-07
-6.78139e-07
-8.49016e-07
-6.0671e-07
-8.89719e-07
-5.31904e-07
-9.21232e-07
-4.54699e-07
-9.40732e-07
-3.76412e-07
-9.44691e-07
-2.98753e-07
-9.28863e-07
-2.23882e-07
-8.88372e-07
-1.54446e-07
-8.17939e-07
-9.35775e-08
-7.12251e-07
-4.48656e-08
-5.66446e-07
-1.22737e-08
-3.76678e-07
-1.40821e-07
-1.30746e-08
1.53118e-07
-4.77252e-08
4.08808e-07
-9.94154e-08
6.13847e-07
-1.63875e-07
7.70781e-07
-2.37255e-07
8.84018e-07
-3.16215e-07
9.59038e-07
-3.97957e-07
1.00177e-06
-4.80213e-07
1.01804e-06
-5.6121e-07
1.01323e-06
-6.396e-07
9.91942e-07
-7.14392e-07
9.58014e-07
-7.84886e-07
9.14471e-07
-8.50602e-07
8.63649e-07
-9.11233e-07
8.07307e-07
-9.666e-07
7.46762e-07
-1.01662e-06
6.82993e-07
-1.06126e-06
6.16733e-07
-1.10055e-06
5.48541e-07
-1.13454e-06
4.78844e-07
-1.16329e-06
4.07976e-07
-1.18687e-06
3.362e-07
-1.20534e-06
2.63724e-07
-1.21876e-06
1.90714e-07
-1.22716e-06
1.17306e-07
-1.23056e-06
4.36146e-08
-1.22896e-06
-3.02567e-08
-1.22233e-06
-1.04209e-07
-1.21062e-06
-1.78138e-07
-1.19377e-06
-2.51924e-07
-1.1717e-06
-3.25425e-07
-1.14431e-06
-3.98462e-07
-1.1115e-06
-4.70814e-07
-1.07317e-06
-5.42198e-07
-1.02926e-06
-6.12251e-07
-9.79711e-07
-6.8051e-07
-9.24523e-07
-7.46368e-07
-8.63772e-07
-8.09033e-07
-7.97632e-07
-8.67453e-07
-7.26418e-07
-9.20229e-07
-6.50632e-07
-9.65506e-07
-5.71014e-07
-1.00085e-06
-4.88611e-07
-1.02313e-06
-4.04842e-07
-1.02846e-06
-3.21563e-07
-1.01214e-06
-2.4113e-07
-9.68805e-07
-1.66428e-07
-8.92641e-07
-1.00874e-07
-7.77805e-07
-4.83735e-08
-6.18946e-07
-1.32335e-08
-4.11818e-07
-1.54055e-07
-1.41248e-08
1.67242e-07
-5.15525e-08
4.46236e-07
-1.07353e-07
6.69648e-07
-1.76872e-07
8.40299e-07
-2.55907e-07
9.63053e-07
-3.40805e-07
1.04394e-06
-4.28511e-07
1.08947e-06
-5.16555e-07
1.10609e-06
-6.0301e-07
1.09968e-06
-6.86427e-07
1.07536e-06
-7.65756e-07
1.03734e-06
-8.40266e-07
9.88982e-07
-9.09481e-07
9.32863e-07
-9.73112e-07
8.70939e-07
-1.03101e-06
8.04665e-07
-1.08314e-06
7.35121e-07
-1.12952e-06
6.63113e-07
-1.17022e-06
5.89243e-07
-1.20535e-06
5.13965e-07
-1.23499e-06
4.37625e-07
-1.25928e-06
3.60483e-07
-1.27829e-06
2.82737e-07
-1.29211e-06
2.04536e-07
-1.3008e-06
1.25994e-07
-1.30438e-06
4.71974e-08
-1.30286e-06
-3.17796e-08
-1.2962e-06
-1.10868e-07
-1.28434e-06
-1.89994e-07
-1.2672e-06
-2.69065e-07
-1.24467e-06
-3.47963e-07
-1.2166e-06
-4.26529e-07
-1.18286e-06
-5.04552e-07
-1.14331e-06
-5.8175e-07
-1.09781e-06
-6.57749e-07
-1.04627e-06
-7.32056e-07
-9.88618e-07
-8.04016e-07
-9.24893e-07
-8.72758e-07
-8.55229e-07
-9.37117e-07
-7.79918e-07
-9.95541e-07
-6.9946e-07
-1.04596e-06
-6.14628e-07
-1.08568e-06
-5.26536e-07
-1.11123e-06
-4.36717e-07
-1.11828e-06
-3.47196e-07
-1.10166e-06
-2.60549e-07
-1.05545e-06
-1.79938e-07
-9.73252e-07
-1.09108e-07
-8.48635e-07
-5.23346e-08
-6.7572e-07
-1.43171e-08
-4.49835e-07
-1.68372e-07
-1.53119e-08
1.82554e-07
-5.58789e-08
4.86803e-07
-1.16319e-07
7.30088e-07
-1.91533e-07
9.15514e-07
-2.76908e-07
1.04843e-06
-3.68432e-07
1.13546e-06
-4.6275e-07
1.18379e-06
-5.57159e-07
1.2005e-06
-6.49564e-07
1.19209e-06
-7.38405e-07
1.1642e-06
-8.22567e-07
1.1215e-06
-9.01299e-07
1.06771e-06
-9.74134e-07
1.0057e-06
-1.04082e-06
9.37621e-07
-1.10125e-06
8.65094e-07
-1.15544e-06
7.89311e-07
-1.20347e-06
7.11148e-07
-1.24548e-06
6.31256e-07
-1.28163e-06
5.50111e-07
-1.31207e-06
4.68065e-07
-1.33696e-06
3.85372e-07
-1.35644e-06