/*--------------------------------*- C++ -*----------------------------------*\
  =========                 |
  \\      /  F ield         | OpenFOAM: The Open Source CFD Toolbox
   \\    /   O peration     | Website:  https://openfoam.org
    \\  /    A nd           | Version:  7
     \\/     M anipulation  |
\*---------------------------------------------------------------------------*/
FoamFile
{
    version     2.0;
    format      ascii;
    class       surfaceScalarField;
    location    "0.0388";
    object      phi;
}
// * * * * * * * * * * * * * * * * * * * * * * * * * * * * * * * * * * * * * //

dimensions      [0 3 -1 0 0 0 0];

internalField   nonuniform List<scalar> 
4900
(
5.45486e-06
-5.45486e-06
9.95359e-06
-4.49873e-06
1.26944e-05
-2.74078e-06
1.44123e-05
-1.71796e-06
1.55279e-05
-1.1156e-06
1.62802e-05
-7.52258e-07
1.68101e-05
-5.29935e-07
1.71993e-05
-3.89212e-07
1.74951e-05
-2.95772e-07
1.77258e-05
-2.30669e-07
1.79092e-05
-1.83373e-07
1.8057e-05
-1.47812e-07
1.81773e-05
-1.20333e-07
1.82759e-05
-9.86314e-08
1.83571e-05
-8.11884e-08
1.84241e-05
-6.69611e-08
1.84793e-05
-5.5206e-08
1.85247e-05
-4.53757e-08
1.85617e-05
-3.70548e-08
1.85916e-05
-2.99193e-08
1.86153e-05
-2.37096e-08
1.86336e-05
-1.82119e-08
1.86468e-05
-1.3245e-08
1.86555e-05
-8.65043e-09
1.86597e-05
-4.28464e-09
1.86598e-05
-2.25102e-11
1.86555e-05
4.28602e-09
1.86467e-05
8.75178e-09
1.86332e-05
1.35219e-08
1.86145e-05
1.8747e-08
1.85899e-05
2.45992e-08
1.85586e-05
3.12818e-08
1.85195e-05
3.90424e-08
1.84713e-05
4.81919e-08
1.84122e-05
5.91322e-08
1.83398e-05
7.23972e-08
1.82511e-05
8.87168e-08
1.8142e-05
1.0912e-07
1.80069e-05
1.35106e-07
1.78379e-05
1.68949e-07
1.76237e-05
2.14251e-07
1.73467e-05
2.77004e-07
1.6979e-05
3.67671e-07
1.64737e-05
5.05336e-07
1.57483e-05
7.2537e-07
1.4657e-05
1.09131e-06
1.2945e-05
1.71193e-06
1.01621e-05
2.78295e-06
5.55737e-06
4.60472e-06
5.55737e-06
-1.19055e-07
-5.3358e-06
1.83209e-06
-6.44987e-06
4.41319e-06
-5.32188e-06
6.72829e-06
-4.03306e-06
8.60704e-06
-2.99435e-06
1.00879e-05
-2.23312e-06
1.12506e-05
-1.69268e-06
1.21695e-05
-1.30803e-06
1.29029e-05
-1.02923e-06
1.34947e-05
-8.2242e-07
1.39767e-05
-6.65399e-07
1.43725e-05
-5.43591e-07
1.46994e-05
-4.47297e-07
1.49707e-05
-3.69927e-07
1.51964e-05
-3.06884e-07
1.53844e-05
-2.54876e-07
1.55406e-05
-2.11485e-07
1.56701e-05
-1.74886e-07
1.57768e-05
-1.43668e-07
1.58636e-05
-1.16715e-07
1.5933e-05
-9.3116e-08
1.59869e-05
-7.2116e-08
1.60267e-05
-5.30662e-08
1.60534e-05
-3.53954e-08
1.60677e-05
-1.85841e-08
1.60699e-05
-2.14542e-09
1.60597e-05
1.44022e-08
1.60369e-05
3.15368e-08
1.60007e-05
4.97673e-08
1.59498e-05
6.96484e-08
1.58826e-05
9.18074e-08
1.57969e-05
1.16978e-07
1.56899e-05
1.46047e-07
1.5558e-05
1.80114e-07
1.53965e-05
2.20582e-07
1.51996e-05
2.69282e-07
1.49597e-05
3.2867e-07
1.46667e-05
4.02115e-07
1.43074e-05
4.94357e-07
1.38641e-05
6.1224e-07
1.33125e-05
7.65897e-07
1.26188e-05
9.70687e-07
1.17362e-05
1.25028e-06
1.06003e-05
1.64128e-06
9.12686e-06
2.19878e-06
7.22147e-06
2.9967e-06
4.83006e-06
4.10334e-06
2.12052e-06
5.49249e-06
1.06896e-08
6.71455e-06
5.56806e-06
-1.08239e-06
-4.25341e-06
-7.54428e-07
-6.77784e-06
5.88113e-07
-6.66442e-06
2.29858e-06
-5.74353e-06
4.00728e-06
-4.70306e-06
5.55557e-06
-3.78142e-06
6.89633e-06
-3.03343e-06
8.03322e-06
-2.44493e-06
8.98894e-06
-1.98495e-06
9.79035e-06
-1.62383e-06
1.04626e-05
-1.33766e-06
1.10273e-05
-1.10832e-06
1.15025e-05
-9.22406e-07
1.19026e-05
-7.70042e-07
1.22396e-05
-6.43897e-07
1.25232e-05
-5.38454e-07
1.27612e-05
-4.49498e-07
1.296e-05
-3.73744e-07
1.31249e-05
-3.08587e-07
1.32601e-05
-2.51914e-07
1.3369e-05
-2.01975e-07
1.34542e-05
-1.57289e-07
1.35177e-05
-1.16568e-07
1.35609e-05
-7.86634e-08
1.35849e-05
-4.25209e-08
1.35899e-05
-7.14218e-09
1.35758e-05
2.8454e-08
1.35421e-05
6.52584e-08
1.34876e-05
1.04314e-07
1.34105e-05
1.46755e-07
1.33084e-05
1.93854e-07
1.31783e-05
2.47087e-07
1.30161e-05
3.0821e-07
1.28169e-05
3.79374e-07
1.25742e-05
4.63264e-07
1.22802e-05
5.63316e-07
1.19248e-05
6.84002e-07
1.14957e-05
8.31252e-07
1.0977e-05
1.01305e-06
1.0349e-05
1.24029e-06
9.58694e-06
1.52792e-06
8.66118e-06
1.89644e-06
7.53806e-06
2.3734e-06
6.1856e-06
2.99374e-06
4.58901e-06
3.79537e-06
2.78594e-06
4.79977e-06
9.34952e-07
5.95433e-06
-5.71939e-07
6.99938e-06
-1.03845e-06
7.18106e-06
4.52961e-06
-9.13257e-07
-3.34015e-06
-1.34268e-06
-6.34841e-06
-9.39719e-07
-7.06738e-06
1.57328e-08
-6.69898e-06
1.22974e-06
-5.91706e-06
2.50302e-06
-5.05469e-06
3.72287e-06
-4.25328e-06
4.8367e-06
-3.55876e-06
5.82681e-06
-2.97505e-06
6.69349e-06
-2.49052e-06
7.44531e-06
-2.08948e-06
8.09391e-06
-1.75691e-06
8.65139e-06
-1.47989e-06
9.12919e-06
-1.24784e-06
9.53754e-06
-1.05224e-06
9.88538e-06
-8.86294e-07
1.01804e-05
-7.44517e-07
1.04291e-05
-6.2247e-07
1.0637e-05
-5.16503e-07
1.08087e-05
-4.23572e-07
1.09478e-05
-3.41092e-07
1.10573e-05
-2.66827e-07
1.11396e-05
-1.98798e-07
1.11961e-05
-1.35215e-07
1.1228e-05
-7.44116e-08
1.12357e-05
-1.47988e-08
1.12189e-05
4.51924e-08
1.1177e-05
1.07152e-07
1.11086e-05
1.72749e-07
1.10116e-05
2.43785e-07
1.08832e-05
3.22268e-07
1.07198e-05
4.10491e-07
1.05168e-05
5.11143e-07
1.02688e-05
6.27447e-07
9.96869e-06
7.63332e-07
9.60833e-06
9.2368e-07
9.17771e-06
1.11462e-06
8.66503e-06
1.34393e-06
8.05656e-06
1.62152e-06
7.3369e-06
1.95994e-06
6.48992e-06
2.37489e-06
5.50122e-06
2.88514e-06
4.36348e-06
3.51114e-06
3.08711e-06
4.27011e-06
1.71947e-06
5.16301e-06
3.75672e-07
6.14356e-06
-7.29036e-07
7.05904e-06
-1.26774e-06
7.53808e-06
-9.16381e-07
6.8297e-06
3.61323e-06
-6.65269e-07
-2.67489e-06
-1.29925e-06
-5.71443e-06
-1.4227e-06
-6.94394e-06
-1.05077e-06
-7.07091e-06
-3.37849e-07
-6.62998e-06
5.58544e-07
-5.95109e-06
1.5203e-06
-5.21504e-06
2.47166e-06
-4.51012e-06
3.36959e-06
-3.87298e-06
4.19285e-06
-3.31378e-06
4.9336e-06
-2.83022e-06
5.59163e-06
-2.41495e-06
6.17087e-06
-2.05913e-06
6.67712e-06
-1.75409e-06
7.11689e-06
-1.49201e-06
7.49666e-06
-1.26606e-06
7.82251e-06
-1.07037e-06
8.09995e-06
-8.99915e-07
8.33385e-06
-7.504e-07
8.52838e-06
-6.18098e-07
8.68703e-06
-4.9975e-07
8.81267e-06
-3.92462e-07
8.90749e-06
-2.93618e-07
8.97308e-06
-2.00808e-07
9.01043e-06
-1.11758e-07
9.01991e-06
-2.42783e-08
9.0013e-06
6.38055e-08
8.95375e-06
1.54702e-07
8.87578e-06
2.50719e-07
8.76522e-06
3.54336e-07
8.61921e-06
4.68278e-07
8.43409e-06
5.95613e-07
8.20537e-06
7.39864e-07
7.92767e-06
9.05148e-07
7.59466e-06
1.09634e-06
7.19905e-06
1.31928e-06
6.7327e-06
1.58098e-06
6.18681e-06
1.88982e-06
5.55257e-06
2.25576e-06
4.8223e-06
2.69021e-06
3.99172e-06
3.20547e-06
3.06383e-06
3.81304e-06
2.0555e-06
4.51947e-06
1.00769e-06
5.31792e-06
-8.27683e-10
6.17153e-06
-8.41961e-07
6.98469e-06
-1.33498e-06
7.55206e-06
-1.29555e-06
7.49866e-06
-6.85654e-07
6.2198e-06
2.92758e-06
-4.71522e-07
-2.20336e-06
-1.10248e-06
-5.08347e-06
-1.4741e-06
-6.57231e-06
-1.47968e-06
-7.06534e-06
-1.16485e-06
-6.9448e-06
-6.24502e-07
-6.49144e-06
4.78465e-08
-5.88739e-06
7.78487e-07
-5.24076e-06
1.51595e-06
-4.61045e-06
2.22735e-06
-4.02517e-06
2.89344e-06
-3.49632e-06
3.50437e-06
-3.02588e-06
4.05629e-06
-2.61105e-06
4.54911e-06
-2.24692e-06
4.98492e-06
-1.92782e-06
5.36693e-06
-1.64807e-06
5.69887e-06
-1.4023e-06
5.98453e-06
-1.18557e-06
6.22754e-06
-9.93404e-07
6.43118e-06
-8.21741e-07
6.59833e-06
-6.66901e-07
6.73138e-06
-5.25515e-07
6.83222e-06
-3.94456e-07
6.9022e-06
-2.70788e-07
6.94214e-06
-1.51698e-07
6.95231e-06
-3.44434e-08
6.9324e-06
8.3711e-08
6.88155e-06
2.05549e-07
6.7983e-06
3.33969e-07
6.68059e-06
4.72055e-07
6.52571e-06
6.23154e-07
6.33036e-06
7.90962e-07
6.0906e-06
9.79625e-07
5.8019e-06
1.19384e-06
5.45926e-06
1.43899e-06
5.05736e-06
1.72119e-06
4.59095e-06
2.04739e-06
4.05545e-06
2.42532e-06
3.44802e-06
2.86319e-06
2.76927e-06
3.36896e-06
2.02591e-06
3.94883e-06
1.23475e-06
4.6042e-06
4.28128e-07
5.32609e-06
-3.3955e-07
6.08559e-06
-9.86366e-07
6.81834e-06
-1.40323e-06
7.40156e-06
-1.47557e-06
7.6244e-06
-1.13902e-06
7.16211e-06
-4.97342e-07
5.57812e-06
2.43023e-06
-3.40762e-07
-1.8626e-06
-9.05267e-07
-4.51896e-06
-1.37107e-06
-6.10651e-06
-1.59659e-06
-6.83982e-06
-1.56321e-06
-6.97819e-06
-1.31281e-06
-6.74184e-06
-9.06561e-07
-6.29363e-06
-4.0338e-07
-5.74394e-06
1.48634e-07
-5.16246e-06
7.13807e-07
-4.59034e-06
1.26749e-06
-4.05001e-06
1.79375e-06
-3.55214e-06
2.28307e-06
-3.10037e-06
2.73044e-06
-2.69428e-06
3.13386e-06
-2.33124e-06
3.49332e-06
-2.00753e-06
3.80998e-06
-1.71896e-06
4.08564e-06
-1.46124e-06
4.32242e-06
-1.23018e-06
4.52243e-06
-1.02175e-06
4.68765e-06
-8.32122e-07
4.8198e-06
-6.57672e-07
4.92028e-06
-4.94937e-07
4.99008e-06
-3.40586e-07
5.02976e-06
-1.91379e-07
5.03944e-06
-4.41192e-08
5.01875e-06
1.044e-07
4.96685e-06
2.57446e-07
4.88242e-06
4.18404e-07
4.76363e-06
5.90839e-07
4.60823e-06
7.78559e-07
4.41351e-06
9.85682e-07
4.17644e-06
1.21669e-06
3.89378e-06
1.47651e-06
3.56229e-06
1.77048e-06
3.1791e-06
2.10437e-06
2.74227e-06
2.48423e-06
2.25158e-06
2.91601e-06
1.70982e-06
3.40494e-06
1.12455e-06
3.95423e-06
5.10506e-07
4.56287e-06
-1.0733e-07
5.22204e-06
-6.9044e-07
5.9092e-06
-1.18431e-06
6.57947e-06
-1.51939e-06
7.15342e-06
-1.62026e-06
7.50243e-06
-1.43092e-06
7.43505e-06
-9.62886e-07
6.69408e-06
-3.6743e-07
4.98267e-06
2.0628e-06
-2.55982e-07
-1.60662e-06
-7.44743e-07
-4.0302e-06
-1.22918e-06
-5.62207e-06
-1.57233e-06
-6.49666e-06
-1.72498e-06
-6.82554e-06
-1.69283e-06
-6.77399e-06
-1.50836e-06
-6.4781e-06
-1.21227e-06
-6.04003e-06
-8.43379e-07
-5.53135e-06
-4.34242e-07
-4.99948e-06
-1.00913e-08
-4.47416e-06
4.10648e-07
-3.97288e-06
8.15203e-07
-3.50492e-06
1.19521e-06
-3.07428e-06
1.54556e-06
-2.6816e-06
1.86351e-06
-2.32548e-06
2.14791e-06
-2.00336e-06
2.39865e-06
-1.71199e-06
2.61629e-06
-1.44781e-06
2.80169e-06
-1.20715e-06
2.95586e-06
-9.86293e-07
3.07975e-06
-7.81566e-07
3.17417e-06
-5.89353e-07
3.23967e-06
-4.06089e-07
3.27654e-06
-2.28242e-07
3.2847e-06
-5.22853e-08
3.26376e-06
1.25337e-07
3.21296e-06
3.0825e-07
3.13118e-06
5.00189e-07
3.01697e-06
7.05041e-07
2.86865e-06
9.26883e-07
2.68431e-06
1.17002e-06
2.46203e-06
1.43897e-06
2.20004e-06
1.7385e-06
1.89702e-06
2.07349e-06
1.5526e-06
2.44879e-06
1.16794e-06
2.86889e-06
7.46637e-07
3.33731e-06
2.95904e-07
3.85568e-06
-1.71937e-07
4.42207e-06
-6.3769e-07
5.02863e-06
-1.07352e-06
5.65787e-06
-1.44182e-06
6.2775e-06
-1.69594e-06
6.83359e-06
-1.78495e-06
7.24243e-06
-1.66555e-06
7.38303e-06
-1.32454e-06
7.09404e-06
-8.12565e-07
6.1821e-06
-2.82036e-07
4.45214e-06
1.78077e-06
-2.00473e-07
-1.40615e-06
-6.22138e-07
-3.60854e-06
-1.09226e-06
-5.15196e-06
-1.49224e-06
-6.09668e-06
-1.76239e-06
-6.55539e-06
-1.88703e-06
-6.64935e-06
-1.87725e-06
-6.48788e-06
-1.75711e-06
-6.16018e-06
-1.55445e-06
-5.73401e-06
-1.29576e-06
-5.25817e-06
-1.00371e-06
-4.76621e-06
-6.96473e-07
-4.28011e-06
-3.87906e-07
-3.81349e-06
-8.81178e-08
-3.37407e-06
1.95814e-07
-2.96553e-06
4.59164e-07
-2.58883e-06
6.98962e-07
-2.24315e-06
9.13499e-07
-1.92652e-06
1.10193e-06
-1.63625e-06
1.26398e-06
-1.3692e-06
1.39969e-06
-1.122e-06
1.50924e-06
-8.91123e-07
1.59286e-06
-6.72967e-07
1.65066e-06
-4.63886e-07
1.68262e-06
-2.60201e-07
1.68852e-06
-5.81929e-08
1.66795e-06
1.45909e-07
1.62026e-06
3.55944e-07
1.5446e-06
5.75844e-07
1.44e-06
8.09645e-07
1.30538e-06
1.0615e-06
1.13975e-06
1.33565e-06
9.42319e-07
1.63641e-06
7.12779e-07
1.96804e-06
4.51655e-07
2.33462e-06
1.60764e-07
2.73968e-06
-1.56161e-07
3.18581e-06
-4.92681e-07
3.67383e-06
-8.38703e-07
4.2017e-06
-1.17943e-06
4.7628e-06
-1.49439e-06
5.34358e-06
-1.75686e-06
5.92034e-06
-1.93443e-06
6.45507e-06
-1.99162e-06
6.89078e-06
-1.89613e-06
7.14694e-06
-1.6301e-06
7.11699e-06
-1.20725e-06
6.6712e-06
-6.93811e-07
5.66866e-06
-2.2534e-07
3.98367e-06
1.55543e-06
-1.63138e-07
-1.24301e-06
-5.30208e-07
-3.24147e-06
-9.74151e-07
-4.70801e-06
-1.39683e-06
-5.67399e-06
-1.73852e-06
-6.21371e-06
-1.97257e-06
-6.4153e-06
-2.09575e-06
-6.36469e-06
-2.11893e-06
-6.137e-06
-2.05969e-06
-5.79324e-06
-1.93754e-06
-5.38032e-06
-1.77102e-06
-4.93273e-06
-1.57629e-06
-4.47484e-06
-1.36667e-06
-4.02311e-06
-1.15265e-06
-3.58809e-06
-9.4223e-07
-3.17595e-06
-7.41299e-07
-2.78976e-06
-5.54066e-07
-2.43039e-06
-3.83439e-07
-2.09715e-06
-2.31362e-07
-1.78832e-06
-9.90879e-08
-1.50147e-06
1.25979e-08
-1.23369e-06
1.03205e-07
-9.81729e-07
1.72399e-07
-7.42161e-07
2.19908e-07
-5.11395e-07
2.45445e-07
-2.85738e-07
2.48669e-07
-6.14169e-08
2.29161e-07
1.65416e-07
1.86432e-07
3.98673e-07
1.19949e-07
6.42328e-07
2.91954e-08
9.00399e-07
-8.62297e-08
1.17692e-06
-2.26476e-07
1.4759e-06
-3.91244e-07
1.80118e-06
-5.79527e-07
2.15633e-06
-7.89262e-07
2.54435e-06
-1.0169e-06
2.96732e-06
-1.25688e-06
3.42579e-06
-1.50099e-06
3.91795e-06
-1.73778e-06
4.43849e-06
-1.95194e-06
4.97696e-06
-2.12406e-06
5.5157e-06
-2.23101e-06
6.02729e-06
-2.24748e-06
6.47154e-06
-2.14945e-06
6.79276e-06
-1.92035e-06
6.91784e-06
-1.56029e-06
6.75693e-06
-1.09786e-06
6.20877e-06
-6.01785e-07
5.17258e-06
-1.86471e-07
3.56835e-06
1.36896e-06
-1.37254e-07
-1.10575e-06
-4.6132e-07
-2.9174e-06
-8.76922e-07
-4.29241e-06
-1.30413e-06
-5.24678e-06
-1.68777e-06
-5.83006e-06
-1.99672e-06
-6.10636e-06
-2.219e-06
-6.14241e-06
-2.35585e-06
-6.00016e-06
-2.41635e-06
-5.73274e-06
-2.41338e-06
-5.38328e-06
-2.36084e-06
-4.98527e-06
-2.27198e-06
-4.56371e-06
-2.15853e-06
-4.13656e-06
-2.0304e-06
-3.71622e-06
-1.89562e-06
-3.31072e-06
-1.76055e-06
-2.92484e-06
-1.63006e-06
-2.56088e-06
-1.50782e-06
-2.21939e-06
-1.39655e-06
-1.8996e-06
-1.29823e-06
-1.5998e-06
-1.21429e-06
-1.31762e-06
-1.14579e-06
-1.05023e-06
-1.09349e-06
-7.94458e-07
-1.05801e-06
-5.46879e-07
-1.03983e-06
-3.03913e-07
-1.0394e-06
-6.18532e-08
-1.05708e-06
1.83097e-07
-1.09319e-06
4.34791e-07
-1.14797e-06
6.97102e-07
-1.22146e-06
9.73887e-07
-1.31345e-06
1.26891e-06
-1.42332e-06
1.58577e-06
-1.54985e-06
1.92771e-06
-1.69097e-06
2.29744e-06
-1.84345e-06
2.69683e-06
-2.00257e-06
3.12644e-06
-2.16169e-06
3.58491e-06
-2.31186e-06
4.06813e-06
-2.44152e-06
4.56814e-06
-2.5363e-06
5.07174e-06
-2.57936e-06
5.55877e-06
-2.55231e-06
6.00023e-06
-2.43726e-06
6.35649e-06
-2.22036e-06
6.57586e-06
-1.89706e-06
6.59454e-06
-1.47907e-06
6.33894e-06
-1.00181e-06
5.73151e-06
-5.30212e-07
4.70098e-06
-1.5879e-07
3.19693e-06
1.21017e-06
-1.18789e-07
-9.86966e-07
-4.09348e-07
-2.62684e-06
-7.98505e-07
-3.90325e-06
-1.22119e-06
-4.8241e-06
-1.62827e-06
-5.42298e-06
-1.98782e-06
-5.7468e-06
-2.28301e-06
-5.84723e-06
-2.50851e-06
-5.77466e-06
-2.66685e-06
-5.5744e-06
-2.76519e-06
-5.28494e-06
-2.81297e-06
-4.9375e-06
-2.82021e-06
-4.55646e-06
-2.79657e-06
-4.16021e-06
-2.75069e-06
-3.7621e-06
-2.69006e-06
-3.37136e-06
-2.62088e-06
-2.99401e-06
-2.54823e-06
-2.63353e-06
-2.47614e-06
-2.29148e-06
-2.40777e-06
-1.96796e-06
-2.34558e-06
-1.66199e-06
-2.29145e-06
-1.37175e-06
-2.24684e-06
-1.09484e-06
-2.21285e-06
-8.28448e-07
-2.19033e-06
-5.69402e-07
-2.17992e-06
-3.14325e-07
-2.18209e-06
-5.96794e-08
-2.19717e-06
1.9817e-07
-2.22528e-06
4.62901e-07
-2.26635e-06
7.38176e-07
-2.32003e-06
1.02757e-06
-2.38558e-06
1.33446e-06
-2.46174e-06
1.66193e-06
-2.54656e-06
2.01253e-06
-2.63722e-06
2.3881e-06
-2.72975e-06
2.78935e-06
-2.81876e-06
3.21546e-06
-2.89726e-06
3.66341e-06
-2.95639e-06
4.12726e-06
-2.98539e-06
4.59715e-06
-2.97181e-06
5.05816e-06
-2.9021e-06
5.48906e-06
-2.7629e-06
5.86103e-06
-2.54312e-06
6.13671e-06
-2.23716e-06
6.26989e-06
-1.84906e-06
6.20644e-06
-1.39732e-06
5.88721e-06
-9.1937e-07
5.25356e-06
-4.73816e-07
4.25543e-06
-1.38331e-07
2.86145e-06
1.07184e-06
-1.05292e-07
-8.81674e-07
-3.69772e-07
-2.36236e-06
-7.35794e-07
-3.53723e-06
-1.14993e-06
-4.40996e-06
-1.56911e-06
-5.00381e-06
-1.9625e-06
-5.35341e-06
-2.31092e-06
-5.49881e-06
-2.60485e-06
-5.48073e-06
-2.84197e-06
-5.33728e-06
-3.02486e-06
-5.10206e-06
-3.15899e-06
-4.80337e-06
-3.25128e-06
-4.46417e-06
-3.30907e-06
-4.10242e-06
-3.33947e-06
-3.7317e-06
-3.34896e-06
-3.36187e-06
-3.34324e-06
-2.99973e-06
-3.32717e-06
-2.6496e-06
-3.30482e-06
-2.31383e-06
-3.27952e-06
-1.99327e-06
-3.25396e-06
-1.68755e-06
-3.23028e-06
-1.39543e-06
-3.21017e-06
-1.11495e-06
-3.19496e-06
-8.4366e-07
-3.18564e-06
-5.78722e-07
-3.18293e-06
-3.17028e-07
-3.18732e-06
-5.52908e-08
-3.19903e-06
2.09878e-07
-3.21803e-06
4.81895e-07
-3.24397e-06
7.64118e-07
-3.27615e-06
1.05975e-06
-3.31342e-06
1.37173e-06
-3.35405e-06
1.70255e-06
-3.39559e-06
2.05408e-06
-3.43475e-06
2.42726e-06
-3.46719e-06
2.8218e-06
-3.4874e-06
3.23566e-06
-3.48854e-06
3.66455e-06
-3.46248e-06
4.10119e-06
-3.3999e-06
4.53456e-06
-3.29072e-06
4.94899e-06
-3.12494e-06
5.32327e-06
-2.8939e-06
5.62999e-06
-2.59234e-06
5.83514e-06
-2.22092e-06
5.89847e-06
-1.78943e-06
5.77495e-06
-1.31991e-06
5.4177e-06
-8.49075e-07
4.78272e-06
-4.28667e-07
3.83502e-06
-1.22708e-07
2.55549e-06
9.49128e-07
-9.5225e-08
-7.86449e-07
-3.39347e-07
-2.11824e-06
-6.85768e-07
-3.19081e-06
-1.09004e-06
-4.00569e-06
-1.51452e-06
-4.57933e-06
-1.93032e-06
-4.93761e-06
-2.31745e-06
-5.11168e-06
-2.66385e-06
-5.13434e-06
-2.96381e-06
-5.03732e-06
-3.21632e-06
-4.84954e-06
-3.42357e-06
-4.59612e-06
-3.58966e-06
-4.29808e-06
-3.71969e-06
-3.97239e-06
-3.81907e-06
-3.63232e-06
-3.89311e-06
-3.28784e-06
-3.94672e-06
-2.94612e-06
-3.9843e-06
-2.61202e-06
-4.00968e-06
-2.28845e-06
-4.02611e-06
-1.97683e-06
-4.03632e-06
-1.67734e-06
-4.04255e-06
-1.3892e-06
-4.04659e-06
-1.11091e-06
-4.04985e-06
-8.40395e-07
-4.05341e-06
-5.75167e-07
-4.058e-06
-3.12438e-07
-4.06406e-06
-4.92272e-08
-4.07173e-06
2.17546e-07
-4.0808e-06
4.90973e-07
-4.09073e-06
7.74048e-07
-4.10054e-06
1.06956e-06
-4.10877e-06
1.37996e-06
-4.11337e-06
1.70716e-06
-4.11165e-06
2.05235e-06
-4.1001e-06
2.41571e-06
-4.07436e-06
2.79606e-06
-4.02915e-06
3.19045e-06
-3.95825e-06
3.59365e-06
-3.85464e-06
3.99758e-06
-3.71078e-06
4.3907e-06
-3.51914e-06
4.75735e-06
-3.27311e-06
5.07724e-06
-2.96821e-06
5.32509e-06
-2.6038e-06
5.47074e-06
-2.18517e-06
5.47983e-06
-1.72567e-06
5.31546e-06
-1.24879e-06
4.94081e-06
-7.89123e-07
4.32306e-06
-3.91958e-07
3.43785e-06
-1.1045e-07
2.27398e-06
8.38678e-07
-8.75954e-08
-6.98853e-07
-3.15751e-07
-1.89009e-06
-6.45847e-07
-2.86072e-06
-1.04031e-06
-3.61122e-06
-1.46613e-06
-4.1535e-06
-1.8966e-06
-4.50714e-06
-2.31182e-06
-4.69646e-06
-2.6983e-06
-4.74786e-06
-3.04803e-06
-4.68759e-06
-3.35733e-06
-4.54023e-06
-3.62572e-06
-4.32773e-06
-3.85489e-06
-4.06891e-06
-4.04787e-06
-3.77941e-06
-4.20842e-06
-3.47176e-06
-4.34059e-06
-3.15567e-06
-4.44837e-06
-2.83834e-06
-4.53552e-06
-2.52487e-06
-4.60546e-06
-2.21852e-06
-4.66119e-06
-1.9211e-06
-4.70532e-06
-1.63321e-06
-4.74003e-06
-1.35449e-06
-4.7671e-06
-1.08384e-06
-4.78794e-06
-8.19552e-07
-4.80362e-06
-5.59494e-07
-4.81483e-06
-3.01224e-07
-4.82196e-06
-4.20981e-08
-4.82503e-06
2.20619e-07
-4.82371e-06
4.89654e-07
-4.81727e-06
7.67609e-07
-4.80456e-06
1.05684e-06
-4.78391e-06
1.35931e-06
-4.75314e-06
1.67638e-06
-4.70945e-06
2.00866e-06
-4.6494e-06
2.35566e-06
-4.56886e-06
2.71553e-06
-4.46307e-06
3.08466e-06
-4.32669e-06
3.45727e-06
-4.15404e-06
3.82494e-06
-3.9395e-06
4.17616e-06
-3.67803e-06
4.49588e-06
-3.36607e-06
4.76528e-06
-3.00263e-06
4.96166e-06
-2.59069e-06
5.05879e-06
-2.13869e-06
5.02784e-06
-1.66211e-06
4.83887e-06
-1.1845e-06
4.4632e-06
-7.37865e-07
3.87642e-06
-3.61715e-07
3.0617e-06
-1.00625e-07
2.01289e-06
7.38053e-07
-8.17399e-08
-6.17114e-07
-2.97315e-07
-1.67451e-06
-6.13946e-07
-2.54408e-06
-9.99332e-07
-3.22584e-06
-1.42428e-06
-3.72856e-06
-1.86421e-06
-4.06721e-06
-2.29976e-06
-4.2609e-06
-2.71678e-06
-4.33084e-06
-3.10574e-06
-4.29863e-06
-3.46101e-06
-4.18496e-06
-3.78e-06
-4.00873e-06
-4.0624e-06
-3.78652e-06
-4.30942e-06
-3.53238e-06
-4.52332e-06
-3.25787e-06
-4.70688e-06
-2.97211e-06
-4.86313e-06
-2.6821e-06
-4.9951e-06
-2.39289e-06
-5.10569e-06
-2.10792e-06
-5.19755e-06
-1.82924e-06
-5.27303e-06
-1.55773e-06
-5.33415e-06
-1.29337e-06
-5.38259e-06
-1.0354e-06
-5.41969e-06
-7.82459e-07
-5.44642e-06
-5.32761e-07
-5.46343e-06
-2.8421e-07
-5.47101e-06
-3.4516e-08
-5.46909e-06
2.18697e-07
-5.45722e-06
4.77777e-07
-5.43454e-06
7.4493e-07
-5.39978e-06
1.02208e-06
-5.35121e-06
1.31074e-06
-5.28662e-06
1.61179e-06
-5.20329e-06
1.92533e-06
-5.098e-06
2.25037e-06
-4.96705e-06
2.58458e-06
-4.80638e-06
2.92399e-06
-4.6117e-06
3.26259e-06
-4.37877e-06
3.59201e-06
-4.10383e-06
3.90121e-06
-3.78413e-06
4.17619e-06
-3.41878e-06
4.39993e-06
-3.00959e-06
4.55246e-06
-2.56222e-06
4.61143e-06
-2.08727e-06
4.55289e-06
-1.60123e-06
4.35283e-06
-1.12703e-06
3.989e-06
-6.93945e-07
3.44334e-06
-3.36548e-07
2.70431e-06
-9.26252e-08
1.76897e-06
6.45428e-07
-7.72039e-08
-5.3991e-07
-2.82828e-07
-1.46889e-06
-5.88427e-07
-2.23849e-06
-9.65734e-07
-2.84853e-06
-1.38866e-06
-3.30563e-06
-1.83456e-06
-3.62132e-06
-2.28483e-06
-3.81063e-06
-2.72507e-06
-3.8906e-06
-3.14481e-06
-3.87889e-06
-3.53702e-06
-3.79275e-06
-3.89751e-06
-3.64824e-06
-4.22432e-06
-3.45971e-06
-4.51715e-06
-3.23956e-06
-4.77686e-06
-2.99815e-06
-5.00509e-06
-2.74388e-06
-5.20392e-06
-2.48326e-06
-5.37565e-06
-2.22117e-06
-5.52257e-06
-1.961e-06
-5.64692e-06
-1.70489e-06
-5.75071e-06
-1.45393e-06
-5.83575e-06
-1.20834e-06
-5.90354e-06
-9.67615e-07
-5.95527e-06
-7.30725e-07
-5.99183e-06
-4.96204e-07
-6.01375e-06
-2.6229e-07
-6.02123e-06
-2.70407e-08
-6.01409e-06
2.1156e-07
-5.9918e-06
4.55489e-07
-5.95344e-06
7.06567e-07
-5.89768e-06
9.66323e-07
-5.82279e-06
1.23586e-06
-5.72665e-06
1.51565e-06
-5.60673e-06
1.80541e-06
-5.46017e-06
2.10381e-06
-5.28383e-06
2.40824e-06
-5.07444e-06
2.7146e-06
-4.82882e-06
3.01696e-06
-4.54414e-06
3.30733e-06
-4.21838e-06
3.57545e-06
-3.85084e-06
3.80865e-06
-3.4428e-06
3.99189e-06
-2.99832e-06
4.10798e-06
-2.52499e-06
4.1381e-06
-2.03477e-06
4.06267e-06
-1.5445e-06
3.86255e-06
-1.07612e-06
3.52062e-06
-6.56306e-07
3.02353e-06
-3.15476e-07
2.36348e-06
-8.60433e-08
1.53953e-06
5.59384e-07
-7.36694e-08
-4.6624e-07
-2.7141e-07
-1.27115e-06
-5.6802e-07
-1.94188e-06
-9.3833e-07
-2.47822e-06
-1.35875e-06
-2.88521e-06
-1.8083e-06
-3.17177e-06
-2.26917e-06
-3.34976e-06
-2.72702e-06
-3.43275e-06
-3.1708e-06
-3.43511e-06
-3.5925e-06
-3.37106e-06
-3.98671e-06
-3.25403e-06
-4.35017e-06
-3.09625e-06
-4.6813e-06
-2.90843e-06
-4.9798e-06
-2.69966e-06
-5.24624e-06
-2.47743e-06
-5.48184e-06
-2.24766e-06
-5.68816e-06
-2.01486e-06
-5.86691e-06
-1.78224e-06
-6.01987e-06
-1.55193e-06
-6.1487e-06
-1.3251e-06
-6.25492e-06
-1.10212e-06
-6.33982e-06
-8.82715e-07
-6.40443e-06
-6.66114e-07
-6.44949e-06
-4.51142e-07
-6.47543e-06
-2.36353e-07
-6.48233e-06
-2.01373e-08
-6.46995e-06
1.99179e-07
-6.43768e-06
4.2322e-07
-6.38456e-06
6.53449e-07
-6.30928e-06
8.91043e-07
-6.21018e-06
1.13675e-06
-6.08529e-06
1.39076e-06
-5.93236e-06
1.65248e-06
-5.74896e-06
1.9204e-06
-5.53256e-06
2.19185e-06
-5.28075e-06
2.46279e-06
-4.9914e-06
2.72761e-06
-4.66302e-06
2.97896e-06
-4.29515e-06
3.20758e-06
-3.88882e-06
3.40232e-06
-3.44711e-06
3.55018e-06
-2.97576e-06
3.63663e-06
-2.48376e-06
3.64611e-06
-1.98386e-06
3.56277e-06
-1.49283e-06
3.37152e-06
-1.03147e-06
3.05926e-06
-6.24148e-07
2.61621e-06
-2.97806e-07
2.03714e-06
-8.06015e-08
1.32233e-06
4.78783e-07
-7.09102e-08
-3.9533e-07
-2.62414e-07
-1.07964e-06
-5.5175e-07
-1.65254e-06
-9.16129e-07
-2.11384e-06
-1.33394e-06
-2.46739e-06
-1.78561e-06
-2.72011e-06
-2.25411e-06
-2.88125e-06
-2.72526e-06
-2.96161e-06
-3.18769e-06
-2.97268e-06
-3.63273e-06
-2.92602e-06
-4.05405e-06
-2.83271e-06
-4.44738e-06
-2.70292e-06
-4.8101e-06
-2.5457e-06
-5.14091e-06
-2.36885e-06
-5.4395e-06
-2.17884e-06
-5.70627e-06
-1.98089e-06
-5.94211e-06
-1.77902e-06
-6.14819e-06
-1.57616e-06
-6.32581e-06
-1.37431e-06
-6.47628e-06
-1.17463e-06
-6.60083e-06
-9.77568e-07
-6.70052e-06
-7.83029e-07
-6.77619e-06
-5.90444e-07
-6.82843e-06
-3.989e-07
-6.85755e-06
-2.07236e-07
-6.86354e-06
-1.41489e-08
-6.84607e-06
1.81715e-07
-6.80451e-06
3.81657e-07
-6.73788e-06
5.86823e-07
-6.64493e-06
7.98085e-07
-6.5241e-06
1.01593e-06
-6.37363e-06
1.24029e-06
-6.1916e-06
1.47045e-06
-5.97603e-06
1.70484e-06
-5.72504e-06
1.94085e-06
-5.43699e-06
2.17474e-06
-5.11079e-06
2.40141e-06
-4.74615e-06
2.61431e-06
-4.34392e-06
2.80536e-06
-3.90659e-06
2.96499e-06
-3.43867e-06
3.08225e-06
-2.94717e-06
3.14513e-06
-2.44203e-06
3.14096e-06
-1.9364e-06
3.05714e-06
-1.44678e-06
2.88191e-06
-9.92837e-07
2.60532e-06
-5.9688e-07
2.22025e-06
-2.83045e-07
1.7233e-06
-7.61077e-08
1.11539e-06
4.02675e-07
-6.87641e-08
-3.26566e-07
-2.55365e-07
-8.93041e-07
-5.38878e-07
-1.36903e-06
-8.98336e-07
-1.75438e-06
-1.31369e-06
-2.05204e-06
-1.76649e-06
-2.2673e-06
-2.24043e-06
-2.40732e-06
-2.72154e-06
-2.4805e-06
-3.19831e-06
-2.4959e-06
-3.66161e-06
-2.46273e-06
-4.10444e-06
-2.38987e-06
-4.52174e-06
-2.28561e-06
-4.91008e-06
-2.15737e-06
-5.26733e-06
-2.01161e-06
-5.59241e-06
-1.85376e-06
-5.88506e-06
-1.68825e-06
-6.14555e-06
-1.51853e-06
-6.37455e-06
-1.34716e-06
-6.57294e-06
-1.17592e-06
-6.74168e-06
-1.00589e-06
-6.8817e-06
-8.37544e-07
-6.99384e-06
-6.70886e-07
-7.07877e-06
-5.0552e-07
-7.13691e-06
-3.40754e-07
-7.16846e-06
-1.75683e-07
-7.17333e-06
-9.28196e-09
-7.15113e-06
1.59514e-07
-7.10119e-06
3.31717e-07
-7.02256e-06
5.08195e-07
-6.91405e-06
6.89574e-07
-6.77426e-06
8.76131e-07
-6.60164e-06
1.06767e-06
-6.39461e-06
1.26342e-06
-6.15164e-06
1.46187e-06
-5.87145e-06
1.66066e-06
-5.55316e-06
1.85645e-06
-5.19656e-06
2.04481e-06
-4.80238e-06
2.22013e-06
-4.37263e-06
2.37561e-06
-3.91094e-06
2.5033e-06
-3.42294e-06
2.59425e-06
-2.91656e-06
2.63876e-06
-2.40239e-06
2.62679e-06
-1.89376e-06
2.54851e-06
-1.40676e-06
2.39491e-06
-9.59991e-07
2.15855e-06
-5.74071e-07
1.83433e-06
-2.70844e-07
1.42007e-06
-7.24278e-08
9.16974e-07
3.30247e-07
-6.71146e-08
-2.59451e-07
-2.49914e-07
-7.10242e-07
-5.28849e-07
-1.09009e-06
-8.84326e-07
-1.39891e-06
-1.29749e-06
-1.63887e-06
-1.75083e-06
-1.81396e-06
-2.2286e-06
-1.92955e-06
-2.71709e-06
-1.99201e-06
-3.20472e-06
-2.00827e-06
-3.68204e-06
-1.9854e-06
-4.14161e-06
-1.93031e-06
-4.57775e-06
-1.84947e-06
-4.98638e-06
-1.74874e-06
-5.36474e-06
-1.63325e-06
-5.71112e-06
-1.50737e-06
-6.02468e-06
-1.37469e-06
-6.3052e-06
-1.23801e-06
-6.55289e-06
-1.09947e-06
-6.76826e-06
-9.60555e-07
-6.95195e-06
-8.22195e-07
-7.10465e-06
-6.84846e-07
-7.22697e-06
-5.48562e-07
-7.31941e-06
-4.13083e-07
-7.38226e-06
-2.77899e-07
-7.41561e-06
-1.42333e-07
-7.41929e-06
-5.60503e-09
-7.39287e-06
1.33088e-07
-7.33565e-06
2.74506e-07
-7.24674e-06
4.19282e-07
-7.12501e-06
5.67846e-07
-6.96921e-06
7.20333e-07
-6.77803e-06
8.7649e-07
-6.55019e-06
1.03558e-06
-6.28459e-06
1.19627e-06
-5.98047e-06
1.35654e-06
-5.63761e-06
1.5136e-06
-5.25658e-06
1.66377e-06
-4.83895e-06
1.8025e-06
-4.38765e-06
1.92431e-06
-3.90722e-06
2.02287e-06
-3.40414e-06
2.09116e-06
-2.88701e-06
2.12163e-06
-2.36682e-06
2.1066e-06
-1.85694e-06
2.03862e-06
-1.37303e-06
1.911e-06
-9.32784e-07
1.71831e-06
-5.55413e-07
1.45696e-06
-2.60957e-07
1.12562e-06
-6.94678e-08
7.25484e-07
2.6078e-07
-6.58782e-08
-1.93573e-07
-2.45809e-07
-5.3031e-07
-5.21251e-07
-8.1465e-07
-8.73624e-07
-1.04653e-06
-1.28498e-06
-1.22752e-06
-1.7385e-06
-1.36044e-06
-2.21892e-06
-1.44914e-06
-2.71273e-06
-1.4982e-06
-3.20836e-06
-1.51264e-06
-3.69617e-06
-1.49759e-06
-4.16836e-06
-1.45813e-06
-4.61883e-06
-1.399e-06
-5.04301e-06
-1.32455e-06
-5.43764e-06
-1.23862e-06
-5.80053e-06
-1.14449e-06
-6.13037e-06
-1.04485e-06
-6.42653e-06
-9.4185e-07
-6.68887e-06
-8.37132e-07
-6.91757e-06
-7.31849e-07
-7.11303e-06
-6.26739e-07
-7.2757e-06
-5.22181e-07
-7.406e-06
-4.18253e-07
-7.5043e-06
-3.14788e-07
-7.57077e-06
-2.11434e-07
-7.60539e-06
-1.07709e-07
-7.60794e-06
-3.05649e-09
-7.57795e-06
1.03098e-07
-7.51473e-06
2.11291e-07
-7.41742e-06
3.21963e-07
-7.28496e-06
4.3539e-07
-7.11625e-06
5.51623e-07
-6.91017e-06
6.70412e-07
-6.66573e-06
7.91136e-07
-6.38218e-06
9.12724e-07
-6.05923e-06
1.03359e-06
-5.69718e-06
1.15155e-06
-5.29722e-06
1.26381e-06
-4.86162e-06
1.3669e-06
-4.394e-06
1.45669e-06
-3.89961e-06
1.52848e-06
-3.38553e-06
1.57707e-06
-2.86085e-06
1.59695e-06
-2.33679e-06
1.58254e-06
-1.82668e-06
1.52852e-06
-1.34581e-06
1.43013e-06
-9.11109e-07
1.28361e-06
-5.40691e-07
1.08654e-06
-2.53213e-07
8.38138e-07
-6.71625e-08
5.39434e-07
1.93617e-07
-6.4996e-08
-1.28577e-07
-2.4287e-07
-3.52436e-07
-5.15785e-07
-5.41735e-07
-8.65878e-07
-6.96442e-07
-1.27584e-06
-8.17558e-07
-1.72937e-06
-9.06904e-07
-2.21154e-06
-9.66966e-07
-2.70903e-06
-1.00071e-06
-3.21029e-06
-1.01138e-06
-3.70554e-06
-1.00235e-06
-4.18675e-06
-9.76908e-07
-4.64754e-06
-9.38206e-07
-5.08299e-06
-8.89109e-07
-5.48945e-06
-8.3216e-07
-5.86439e-06
-7.69543e-07
-6.20617e-06
-7.03068e-07
-6.51384e-06
-6.34185e-07
-6.78697e-06
-5.63997e-07
-7.02552e-06
-4.93295e-07
-7.22967e-06
-4.22592e-07
-7.3997e-06
-3.52156e-07
-7.53589e-06
-2.82057e-07
-7.63848e-06
-2.12198e-07
-7.70756e-06
-1.4236e-07
-7.74303e-06
-7.22332e-08
-7.74463e-06
-1.46134e-09
-7.71185e-06
7.03247e-08
-7.64403e-06
1.43467e-07
-7.54031e-06
2.1824e-07
-7.39972e-06
2.94807e-07
-7.22128e-06
3.73176e-07
-7.00402e-06
4.53152e-07
-6.74717e-06
5.34288e-07
-6.45028e-06
6.15837e-07
-6.11339e-06
6.96703e-07
-5.73725e-06
7.75404e-07
-5.32347e-06
8.5004e-07
-4.87486e-06
9.18282e-07
-4.39555e-06
9.77381e-07
-3.89128e-06
1.02421e-06
-3.36956e-06
1.05535e-06
-2.8398e-06
1.06719e-06
-2.31337e-06
1.05612e-06
-1.80353e-06
1.01867e-06
-1.32525e-06
9.51845e-07
-8.94896e-07
8.53251e-07
-5.29758e-07
7.21402e-07
-2.47491e-07
5.55872e-07
-6.54669e-08
3.57409e-07
1.2815e-07
-6.44283e-08
-6.41488e-08
-2.40974e-07
-1.7589e-07
-5.12248e-07
-2.70461e-07
-8.60843e-07
-3.47846e-07
-1.26986e-06
-4.08538e-07
-1.72334e-06
-4.53427e-07
-2.20658e-06
-4.83731e-07
-2.70638e-06
-5.00907e-07
-3.2112e-06
-5.06555e-07
-3.71122e-06
-5.02332e-07
-4.19825e-06
-4.89875e-07
-4.66572e-06
-4.7074e-07
-5.10847e-06
-4.46352e-07
-5.52265e-06
-4.17981e-07
-5.90548e-06
-3.86718e-07
-6.25508e-06
-3.53469e-07
-6.5703e-06
-3.18964e-07
-6.85053e-06
-2.8376e-07
-7.09557e-06
-2.48258e-07
-7.30544e-06
-2.12719e-07
-7.48032e-06
-1.77283e-07
-7.62038e-06
-1.41991e-07
-7.72578e-06
-1.06797e-07
-7.79655e-06
-7.15974e-08
-7.83254e-06
-3.62413e-08
-7.83344e-06
-5.54282e-10
-7.79876e-06
3.56437e-08
-7.72781e-06
7.25187e-08
-7.61978e-06
1.10202e-07
-7.47374e-06
1.48769e-07
-7.28878e-06
1.88216e-07
-7.06406e-06
2.28437e-07
-6.79897e-06
2.69198e-07