/*--------------------------------*- C++ -*----------------------------------*\
  =========                 |
  \\      /  F ield         | OpenFOAM: The Open Source CFD Toolbox
   \\    /   O peration     | Website:  https://openfoam.org
    \\  /    A nd           | Version:  7
     \\/     M anipulation  |
\*---------------------------------------------------------------------------*/
FoamFile
{
    version     2.0;
    format      ascii;
    class       surfaceScalarField;
    location    "0.0576";
    object      phi;
}
// * * * * * * * * * * * * * * * * * * * * * * * * * * * * * * * * * * * * * //

dimensions      [0 3 -1 0 0 0 0];

internalField   nonuniform List<scalar> 
4900
(
5.45465e-06
-5.45465e-06
9.95317e-06
-4.49852e-06
1.2694e-05
-2.74079e-06
1.44122e-05
-1.71827e-06
1.55284e-05
-1.11622e-06
1.62816e-05
-7.53148e-07
1.68126e-05
-5.31057e-07
1.72032e-05
-3.90515e-07
1.75004e-05
-2.97203e-07
1.77325e-05
-2.3218e-07
1.79175e-05
-1.84919e-07
1.80668e-05
-1.49356e-07
1.81887e-05
-1.2184e-07
1.82887e-05
-1.00072e-07
1.83713e-05
-8.25393e-08
1.84395e-05
-6.82018e-08
1.84958e-05
-5.63203e-08
1.85421e-05
-4.63508e-08
1.858e-05
-3.78809e-08
1.86106e-05
-3.05895e-08
1.86348e-05
-2.42195e-08
1.86534e-05
-1.85594e-08
1.86668e-05
-1.343e-08
1.86755e-05
-8.67507e-09
1.86797e-05
-4.15397e-09
1.86794e-05
2.68246e-10
1.86747e-05
4.71334e-09
1.86654e-05
9.31741e-09
1.86511e-05
1.42146e-08
1.86316e-05
1.95553e-08
1.86061e-05
2.55108e-08
1.85738e-05
3.22832e-08
1.85337e-05
4.01192e-08
1.84843e-05
4.93291e-08
1.8424e-05
6.0314e-08
1.83504e-05
7.36076e-08
1.82605e-05
8.99397e-08
1.81501e-05
1.10339e-07
1.80138e-05
1.36305e-07
1.78437e-05
1.70112e-07
1.76284e-05
2.15363e-07
1.73503e-05
2.78047e-07
1.69817e-05
3.68629e-07
1.64755e-05
5.0619e-07
1.57494e-05
7.261e-07
1.46575e-05
1.09191e-06
1.29451e-05
1.71235e-06
1.0162e-05
2.78316e-06
5.55725e-06
4.60473e-06
5.55725e-06
-1.19275e-07
-5.33538e-06
1.83185e-06
-6.44964e-06
4.41343e-06
-5.32237e-06
6.72965e-06
-4.03449e-06
8.61019e-06
-2.99675e-06
1.00935e-05
-2.23643e-06
1.12592e-05
-1.69677e-06
1.21814e-05
-1.31275e-06
1.29186e-05
-1.0344e-06
1.35143e-05
-8.27895e-07
1.40004e-05
-6.71026e-07
1.44003e-05
-5.49232e-07
1.47313e-05
-4.52832e-07
1.50065e-05
-3.75249e-07
1.52358e-05
-3.11902e-07
1.54272e-05
-2.59514e-07
1.55865e-05
-2.15679e-07
1.57187e-05
-1.78585e-07
1.58277e-05
-1.46832e-07
1.59164e-05
-1.19314e-07
1.59873e-05
-9.51297e-08
1.60423e-05
-7.35326e-08
1.60828e-05
-5.3882e-08
1.61097e-05
-3.56142e-08
1.61238e-05
-1.82163e-08
1.61252e-05
-1.20737e-09
1.61141e-05
1.58856e-08
1.60898e-05
3.35372e-08
1.60518e-05
5.22504e-08
1.59988e-05
7.25744e-08
1.59292e-05
9.51319e-08
1.58408e-05
1.20653e-07
1.57309e-05
1.5002e-07
1.55959e-05
1.8433e-07
1.54312e-05
2.24982e-07
1.5231e-05
2.73809e-07
1.49877e-05
3.33263e-07
1.46913e-05
4.06714e-07
1.43287e-05
4.98901e-07
1.38822e-05
6.16668e-07
1.33274e-05
7.70148e-07
1.26307e-05
9.747e-07
1.17454e-05
1.25399e-06
1.0607e-05
1.64461e-06
9.13139e-06
2.20167e-06
7.22419e-06
2.9991e-06
4.8314e-06
4.10514e-06
2.12096e-06
5.4936e-06
1.07165e-08
6.71497e-06
5.56796e-06
-1.08241e-06
-4.25297e-06
-7.53993e-07
-6.77806e-06
5.89741e-07
-6.6661e-06
2.30228e-06
-5.74704e-06
4.01391e-06
-4.70837e-06
5.56599e-06
-3.7885e-06
6.91127e-06
-3.04205e-06
8.05331e-06
-2.45479e-06
9.01464e-06
-1.99574e-06
9.82199e-06
-1.63525e-06
1.05004e-05
-1.34941e-06
1.10713e-05
-1.12012e-06
1.15524e-05
-9.34014e-07
1.19584e-05
-7.81239e-07
1.2301e-05
-6.54492e-07
1.25898e-05
-5.48284e-07
1.28325e-05
-4.58425e-07
1.30356e-05
-3.81656e-07
1.32042e-05
-3.15394e-07
1.33424e-05
-2.57548e-07
1.34537e-05
-2.06388e-07
1.35406e-05
-1.60451e-07
1.36052e-05
-1.18466e-07
1.36488e-05
-7.93e-08
1.36725e-05
-4.19144e-08
1.36767e-05
-5.32528e-09
1.36611e-05
3.14364e-08
1.36253e-05
6.93478e-08
1.35681e-05
1.09441e-07
1.34878e-05
1.52837e-07
1.33822e-05
2.00801e-07
1.3248e-05
2.54798e-07
1.30815e-05
3.16578e-07
1.28775e-05
3.88283e-07
1.26299e-05
4.72595e-07
1.23308e-05
5.72943e-07
1.19702e-05
6.93799e-07
1.15359e-05
8.41091e-07
1.1012e-05
1.0228e-06
1.03788e-05
1.24982e-06
9.61185e-06
1.53711e-06
8.68139e-06
1.90515e-06
7.55388e-06
2.3815e-06
6.19744e-06
3.00106e-06
4.59734e-06
3.80177e-06
2.79125e-06
4.80519e-06
9.37876e-07
5.95852e-06
-5.70696e-07
7.00217e-06
-1.03816e-06
7.18244e-06
4.5298e-06
-9.12998e-07
-3.33997e-06
-1.34136e-06
-6.34969e-06
-9.36401e-07
-7.07107e-06
2.20293e-08
-6.70547e-06
1.24015e-06
-5.92649e-06
2.51845e-06
-5.06681e-06
3.74416e-06
-4.26776e-06
4.86454e-06
-3.57517e-06
5.86176e-06
-2.99295e-06
6.73592e-06
-2.50941e-06
7.49544e-06
-2.10892e-06
8.15179e-06
-1.77646e-06
8.71693e-06
-1.49916e-06
9.20215e-06
-1.26646e-06
9.61756e-06
-1.0699e-06
9.972e-06
-9.02723e-07
1.02731e-05
-7.59484e-07
1.05272e-05
-6.35782e-07
1.07398e-05
-5.28007e-07
1.09154e-05
-4.33147e-07
1.10577e-05
-3.4865e-07
1.11695e-05
-2.72312e-07
1.12532e-05
-2.02182e-07
1.13104e-05
-1.36495e-07
1.13421e-05
-7.36137e-08
1.13488e-05
-1.19705e-08
1.13302e-05
4.99804e-08
1.12858e-05
1.13807e-07
1.12141e-05
1.81159e-07
1.11131e-05
2.53818e-07
1.09801e-05
3.33776e-07
1.08116e-05
4.2331e-07
1.06031e-05
5.25095e-07
1.0349e-05
6.42342e-07
1.00426e-05
7.78973e-07
9.67571e-06
9.3986e-07
9.23838e-06
1.13113e-06
8.71892e-06
1.36056e-06
8.10368e-06
1.63804e-06
7.37736e-06
1.97615e-06
6.52391e-06
2.39056e-06
5.52901e-06
2.90005e-06
4.38545e-06
3.52506e-06
3.10376e-06
4.28275e-06
1.73149e-06
5.17404e-06
3.83465e-07
6.15322e-06
-7.2457e-07
7.06655e-06
-1.26572e-06
7.54332e-06
-9.15867e-07
6.83259e-06
3.61394e-06
-6.64713e-07
-2.67526e-06
-1.29701e-06
-5.7174e-06
-1.41761e-06
-6.95047e-06
-1.04168e-06
-7.0814e-06
-3.23714e-07
-6.64445e-06
5.78736e-07
-5.96926e-06
1.54743e-06
-5.23645e-06
2.50646e-06
-4.5342e-06
3.41262e-06
-3.89911e-06
4.2445e-06
-3.3413e-06
4.99409e-06
-2.85851e-06
5.66103e-06
-2.4434e-06
6.24905e-06
-2.08718e-06
6.76383e-06
-1.78124e-06
7.21173e-06
-1.5178e-06
7.59911e-06
-1.2901e-06
7.93194e-06
-1.09232e-06
8.21565e-06
-9.19495e-07
8.45502e-06
-7.67376e-07
8.65416e-06
-6.32288e-07
8.81653e-06
-5.11018e-07
8.94493e-06
-4.00716e-07
9.04156e-06
-2.9881e-07
9.10799e-06
-2.02926e-07
9.14521e-06
-1.10833e-07
9.15361e-06
-2.0371e-08
9.133e-06
7.05973e-08
9.08255e-06
1.64249e-07
9.00085e-06
2.62864e-07
8.88578e-06
3.68891e-07
8.73452e-06
4.8503e-07
8.54351e-06
6.14326e-07
8.30832e-06
7.60283e-07
8.02366e-06
9.27e-07
7.68329e-06
1.11934e-06
7.28003e-06
1.34313e-06
6.8058e-06
1.60536e-06
6.25192e-06
1.91443e-06
5.60969e-06
2.28027e-06
4.87153e-06
2.71431e-06
4.03324e-06
3.22884e-06
3.09794e-06
3.83534e-06
2.08262e-06
4.54038e-06
1.02827e-06
5.3371e-06
1.35895e-08
6.18872e-06
-8.32185e-07
6.99899e-06
-1.32922e-06
7.56359e-06
-1.29287e-06
7.50698e-06
-6.84936e-07
6.22465e-06
2.929e-06
-4.70698e-07
-2.20456e-06
-1.09939e-06
-5.08871e-06
-1.46742e-06
-6.58244e-06
-1.46818e-06
-7.08063e-06
-1.14745e-06
-6.96518e-06
-6.00193e-07
-6.51651e-06
7.99129e-08
-5.91656e-06
8.19016e-07
-5.27331e-06
1.56548e-06
-4.64558e-06
2.28626e-06
-4.06207e-06
2.96193e-06
-3.53419e-06
3.58247e-06
-3.06394e-06
4.14388e-06
-2.64858e-06
4.64591e-06
-2.28327e-06
5.0905e-06
-1.96239e-06
5.48074e-06
-1.68035e-06
5.82025e-06
-1.43182e-06
6.11272e-06
-1.21196e-06
6.36168e-06
-1.01634e-06
6.57037e-06
-8.40974e-07
6.74159e-06
-6.82242e-07
6.87771e-06
-5.36832e-07
6.98057e-06
-4.01675e-07
7.05153e-06
-2.73886e-07
7.0914e-06
-1.50704e-07
7.10046e-06
-2.94326e-08
7.07844e-06
9.26157e-08
7.02451e-06
2.18182e-07
6.93725e-06
3.50124e-07
6.81465e-06
4.91488e-07
6.6541e-06
6.45586e-07
6.45234e-06
8.16082e-07
6.20553e-06
1.00709e-06
5.90923e-06
1.2233e-06
5.55852e-06
1.47005e-06
5.1482e-06
1.75345e-06
4.67311e-06
2.08045e-06
4.12879e-06
2.45875e-06
3.5125e-06
2.89656e-06
2.82497e-06
3.40184e-06
2.07302e-06
3.98079e-06
1.27359e-06
4.63478e-06
4.59132e-07
5.35483e-06
-3.15789e-07
6.11202e-06
-9.69016e-07
6.84194e-06
-1.39173e-06
7.4217e-06
-1.46881e-06
7.64066e-06
-1.13584e-06
7.17402e-06
-4.96477e-07
5.58528e-06
2.43252e-06
-3.39723e-07
-1.86484e-06
-9.01489e-07
-4.52694e-06
-1.36311e-06
-6.12082e-06
-1.58317e-06
-6.86057e-06
-1.54324e-06
-7.00512e-06
-1.28534e-06
-6.7744e-06
-8.70804e-07
-6.33109e-06
-3.58686e-07
-5.78543e-06
2.02752e-07
-5.20702e-06
7.77675e-07
-4.63699e-06
1.34128e-06
-4.09779e-06
1.87746e-06
-3.60012e-06
2.37655e-06
-3.14767e-06
2.83338e-06
-2.7401e-06
3.24584e-06
-2.37485e-06
3.61378e-06
-2.04828e-06
3.93823e-06
-1.75628e-06
4.22092e-06
-1.49465e-06
4.46386e-06
-1.25928e-06
4.66909e-06
-1.04621e-06
4.83855e-06
-8.51698e-07
4.9739e-06
-6.7219e-07
5.07652e-06
-5.04291e-07
5.14737e-06
-3.4474e-07
5.18703e-06
-1.90359e-07
5.19561e-06
-3.80111e-08
5.17277e-06
1.1545e-07
5.11772e-06
2.73238e-07
5.02916e-06
4.38685e-07
4.90534e-06
6.15309e-07
4.74405e-06
8.06873e-07
4.54268e-06
1.01745e-06
4.29827e-06
1.2515e-06
4.00768e-06
1.5139e-06
3.66776e-06
1.80997e-06
3.27575e-06
2.14546e-06
2.8298e-06
2.5264e-06
2.32982e-06
2.95873e-06
1.77871e-06
3.44767e-06
1.18415e-06
3.9964e-06
5.61005e-07
4.60394e-06
-6.5621e-08
5.26141e-06
-6.57069e-07
5.94628e-06
-1.15868e-06
6.61363e-06
-1.50074e-06
7.18401e-06
-1.60777e-06
7.52874e-06
-1.42354e-06
7.45643e-06
-9.59405e-07
6.70988e-06
-3.6648e-07
4.99236e-06
2.06604e-06
-2.54793e-07
-1.61005e-06
-7.40489e-07
-4.04125e-06
-1.22033e-06
-5.64098e-06
-1.55762e-06
-6.52327e-06
-1.70335e-06
-6.85939e-06
-1.6634e-06
-6.81435e-06
-1.47042e-06
-6.52408e-06
-1.16526e-06
-6.09059e-06
-7.8688e-07
-5.5854e-06
-3.67993e-07
-5.05588e-06
6.60222e-08
-4.5318e-06
4.96594e-07
-4.03069e-06
9.10809e-07
-3.56189e-06
1.30016e-06
-3.12946e-06
1.65943e-06
-2.73412e-06
1.98574e-06
-2.37459e-06
2.27783e-06
-2.04837e-06
2.53551e-06
-1.75233e-06
2.75923e-06
-1.483e-06
2.94981e-06
-1.23679e-06
3.10818e-06
-1.01007e-06
3.23526e-06
-7.99266e-07
3.33181e-06
-6.00841e-07
3.39838e-06
-4.11311e-07
3.43524e-06
-2.27219e-07
3.44234e-06
-4.51119e-08
3.4193e-06
1.38495e-07
3.36537e-06
3.27161e-07
3.2795e-06
5.24557e-07
3.1603e-06
7.34513e-07
3.00612e-06
9.6105e-07
2.81515e-06
1.20842e-06
2.58554e-06
1.48111e-06
2.3156e-06
1.78383e-06
2.00413e-06
2.12144e-06
1.65083e-06
2.49876e-06
1.25699e-06
2.92024e-06
8.26313e-07
3.38941e-06
3.66124e-07
3.90786e-06
-1.11128e-07
4.47366e-06
-5.86121e-07
5.07893e-06
-1.03089e-06
5.70617e-06
-1.40767e-06
6.32307e-06
-1.66969e-06
6.87565e-06
-1.76585e-06
7.28017e-06
-1.65273e-06
7.41561e-06
-1.31695e-06
7.12064e-06
-8.08976e-07
6.20191e-06
-2.81056e-07
4.46444e-06
1.78499e-06
-1.99203e-07
-1.41084e-06
-6.17641e-07
-3.62281e-06
-1.08299e-06
-5.17564e-06
-1.47697e-06
-6.1293e-06
-1.74012e-06
-6.59623e-06
-1.85698e-06
-6.69749e-06
-1.83881e-06
-6.54225e-06
-1.7098e-06
-6.21959e-06
-1.49796e-06
-5.79724e-06
-1.22989e-06
-5.32395e-06
-9.28393e-07
-4.8333e-06
-6.11786e-07
-4.3473e-06
-2.9404e-07
-3.87964e-06
1.46155e-08
-3.43811e-06
3.0699e-07
-3.0265e-06
5.7825e-07
-2.64585e-06
8.25327e-07
-2.29545e-06
1.04642e-06
-1.97343e-06
1.24062e-06
-1.6772e-06
1.40757e-06
-1.40373e-06
1.54726e-06
-1.14976e-06
1.65984e-06
-9.11845e-07
1.74548e-06
-6.86486e-07
1.8043e-06
-4.70128e-07
1.83626e-06
-2.59181e-07
1.84116e-06
-5.0011e-08
1.81859e-06
1.6107e-07
1.76792e-06
3.77826e-07
1.68837e-06
6.04113e-07
1.57898e-06
8.43899e-07
1.43876e-06
1.10127e-06
1.26677e-06
1.38041e-06
1.06229e-06
1.68559e-06
8.25109e-07
2.02102e-06
5.55831e-07
2.39072e-06
2.56371e-07
2.79822e-06
-6.94346e-08
3.24605e-06
-4.1504e-07
3.73502e-06
-7.70238e-07
4.26305e-06
-1.12011e-06
4.82353e-06
-1.44406e-06
5.40287e-06
-1.71523e-06
5.97734e-06
-1.90107e-06
6.50891e-06
-1.96597e-06
6.94054e-06
-1.87746e-06
7.19166e-06
-1.61755e-06
7.1557e-06
-1.19981e-06
6.70291e-06
-6.90295e-07
5.69239e-06
-2.2438e-07
3.99852e-06
1.56061e-06
-1.6186e-07
-1.24898e-06
-5.25712e-07
-3.25896e-06
-9.64946e-07
-4.7364e-06
-1.38177e-06
-5.71247e-06
-1.7167e-06
-6.2613e-06
-1.94332e-06
-6.47087e-06
-2.05857e-06
-6.427e-06
-2.07343e-06
-6.20473e-06
-2.00566e-06
-5.86501e-06
-1.87486e-06
-5.45476e-06
-1.69968e-06
-5.00848e-06
-1.49639e-06
-4.55059e-06
-1.27841e-06
-4.09761e-06
-1.05634e-06
-3.66018e-06
-8.38273e-07
-3.24457e-06
-6.30184e-07
-2.85394e-06
-4.36368e-07
-2.48926e-06
-2.5981e-07
-2.14998e-06
-1.02522e-07
-1.83448e-06
3.41821e-08
-1.54044e-06
1.4947e-07
-1.26505e-06
2.42809e-07
-1.00518e-06
3.13839e-07
-7.57516e-07
3.62267e-07
-5.18556e-07
3.878e-07
-2.84714e-07
3.90098e-07
-5.23092e-08
3.68756e-07
1.82412e-07
3.23308e-07
4.23275e-07
2.53251e-07
6.7417e-07
1.58113e-07
9.39037e-07
3.75411e-08
1.22184e-06
-1.08554e-07
1.52651e-06
-2.79809e-07
1.85684e-06
-4.7514e-07
2.21635e-06
-6.92406e-07
2.60799e-06
-9.27971e-07
3.03378e-06
-1.17617e-06
3.49425e-06
-1.42872e-06
3.98756e-06
-1.67403e-06
4.50836e-06
-1.89669e-06
5.04619e-06
-2.07718e-06
5.58336e-06
-2.19222e-06
6.09239e-06
-2.21639e-06
6.53308e-06
-2.12554e-06
6.84969e-06
-1.90295e-06
6.96907e-06
-1.5486e-06
6.80135e-06
-1.09092e-06
6.24524e-06
-5.98505e-07
5.19998e-06
-1.85576e-07
3.58559e-06
1.37503e-06
-1.36036e-07
-1.11295e-06
-4.57062e-07
-2.93793e-06
-8.68253e-07
-4.32521e-06
-1.29003e-06
-5.2907e-06
-1.66747e-06
-5.88385e-06
-1.96967e-06
-6.16868e-06
-2.1848e-06
-6.21186e-06
-2.31425e-06
-6.07528e-06
-2.36721e-06
-5.81205e-06
-2.35665e-06
-5.46531e-06
-2.29656e-06
-5.06857e-06
-2.20027e-06
-4.64688e-06
-2.0796e-06
-4.21828e-06
-1.94454e-06
-3.79524e-06
-1.8032e-06
-3.38591e-06
-1.66199e-06
-2.99515e-06
-1.52586e-06
-2.62539e-06
-1.39855e-06
-2.2773e-06
-1.28282e-06
-1.95021e-06
-1.18071e-06
-1.64255e-06
-1.0937e-06
-1.35206e-06
-1.02286e-06
-1.07602e-06
-9.68997e-07
-8.11376e-07
-9.32736e-07
-5.54817e-07
-9.1458e-07
-3.0287e-07
-9.14958e-07
-5.19307e-08
-9.34241e-07
2.01695e-07
-9.72729e-07
4.61763e-07
-1.03062e-06
7.32058e-07
-1.10793e-06
1.01635e-06
-1.20441e-06
1.31832e-06
-1.3194e-06
1.64149e-06
-1.4516e-06
1.98905e-06
-1.5989e-06
2.36364e-06
-1.75799e-06
2.76708e-06
-1.92407e-06
3.19986e-06
-2.09043e-06
3.66061e-06
-2.24804e-06
4.14516e-06
-2.38521e-06
4.64554e-06
-2.4875e-06
5.14848e-06
-2.53794e-06
5.63381e-06
-2.51804e-06
6.07249e-06
-2.4098e-06
6.42484e-06
-2.19923e-06
6.63912e-06
-1.88169e-06
6.65153e-06
-1.46873e-06
6.3884e-06
-9.95678e-07
5.77218e-06
-5.27312e-07
4.73161e-06
-1.57999e-07
3.21628e-06
1.21703e-06
-1.17696e-07
-9.95251e-07
-4.05549e-07
-2.65008e-06
-7.90818e-07
-3.93994e-06
-1.20876e-06
-4.87276e-06
-1.61049e-06
-5.48212e-06
-1.96428e-06
-5.81489e-06
-2.25344e-06
-5.92271e-06
-2.47276e-06
-5.85596e-06
-2.62486e-06
-5.65995e-06
-2.71698e-06
-5.37319e-06
-2.75862e-06
-5.02693e-06
-2.75987e-06
-4.64562e-06
-2.73043e-06
-4.24773e-06
-2.67901e-06
-3.84666e-06
-2.61313e-06
-3.45179e-06
-2.53907e-06
-3.06921e-06
-2.46194e-06
-2.70252e-06
-2.38582e-06
-2.35342e-06
-2.31392e-06
-2.02211e-06
-2.24872e-06
-1.70774e-06
-2.19216e-06
-1.40862e-06
-2.14571e-06
-1.12248e-06
-2.11049e-06
-8.46597e-07
-2.08736e-06
-5.77941e-07
-2.07699e-06
-3.13246e-07
-2.07984e-06
-4.90829e-08
-2.09622e-06
2.18075e-07
-2.12626e-06
4.91803e-07
-2.16986e-06
7.75665e-07
-2.22666e-06
1.07314e-06
-2.29586e-06
1.38753e-06
-2.37619e-06
1.72182e-06
-2.46566e-06
2.07852e-06
-2.56137e-06
2.45936e-06
-2.65931e-06
2.86502e-06
-2.75405e-06
3.2946e-06
-2.8385e-06
3.74506e-06
-2.90374e-06
4.21041e-06
-2.93894e-06
4.68073e-06
-2.93155e-06
5.14109e-06
-2.86793e-06
5.57019e-06
-2.73463e-06
5.93918e-06
-2.52046e-06
6.21067e-06
-2.21973e-06
6.33839e-06
-1.83636e-06
6.26816e-06
-1.38878e-06
5.94082e-06
-9.14302e-07
5.2977e-06
-4.71419e-07
4.28873e-06
-1.37677e-07
2.88254e-06
1.07935e-06
-1.04379e-07
-8.90872e-07
-3.66628e-07
-2.38783e-06
-7.29484e-07
-3.57708e-06
-1.13981e-06
-4.46244e-06
-1.55476e-06
-5.06718e-06
-1.94366e-06
-5.42598e-06
-2.28745e-06
-5.57891e-06
-2.57671e-06
-5.5667e-06
-2.80918e-06
-5.42748e-06
-2.98749e-06
-5.19488e-06
-3.11715e-06
-4.89727e-06
-3.20512e-06
-4.55766e-06
-3.25877e-06
-4.19408e-06
-3.28522e-06
-3.82021e-06
-3.291e-06
-3.446e-06
-3.28184e-06
-3.07837e-06
-3.26263e-06
-2.72173e-06
-3.23746e-06
-2.37859e-06
-3.20969e-06
-2.04989e-06
-3.18202e-06
-1.73541e-06
-3.15664e-06
-1.434e-06
-3.13525e-06
-1.14387e-06
-3.11919e-06
-8.6266e-07
-3.10946e-06
-5.87667e-07
-3.10681e-06
-3.15902e-07
-3.1117e-06
-4.41911e-08
-3.12436e-06
2.30742e-07
-3.14477e-06
5.12204e-07
-3.17255e-06
8.03453e-07
-3.20701e-06
1.1076e-06
-3.24695e-06
1.42747e-06
-3.29063e-06
1.7655e-06
-3.33557e-06
2.12346e-06
-3.37845e-06
2.50224e-06
-3.41489e-06
2.90145e-06
-3.43932e-06
3.31903e-06
-3.44486e-06
3.75061e-06
-3.42333e-06
4.18888e-06
-3.36535e-06
4.62275e-06
-3.26077e-06
5.03651e-06
-3.09951e-06
5.40893e-06
-2.87286e-06
5.71254e-06
-2.57547e-06
5.91327e-06
-2.20793e-06
5.97085e-06
-1.77996e-06
5.84019e-06
-1.31354e-06
5.4744e-06
-8.45287e-07
4.82944e-06
-4.26871e-07
3.87031e-06
-1.22217e-07
2.57789e-06
9.57137e-07
-9.45392e-08
-7.96333e-07
-3.37023e-07
-2.14534e-06
-6.81168e-07
-3.23294e-06
-1.08277e-06
-4.06084e-06
-1.50435e-06
-4.64559e-06
-1.91717e-06
-5.01317e-06
-2.30132e-06
-5.19476e-06
-2.64479e-06
-5.22323e-06
-2.94191e-06
-5.13035e-06
-3.19172e-06
-4.94508e-06
-3.39638e-06
-4.69261e-06
-3.56002e-06
-4.39401e-06
-3.68775e-06
-4.06636e-06
-3.78497e-06
-3.72298e-06
-3.857e-06
-3.37397e-06
-3.90876e-06
-3.0266e-06
-3.94466e-06
-2.68583e-06
-3.96854e-06
-2.35471e-06
-3.98366e-06
-2.03477e-06
-3.99276e-06
-1.7263e-06
-3.99809e-06
-1.42868e-06
-4.00146e-06
-1.1405e-06
-4.00428e-06
-8.59835e-07
-4.00764e-06
-5.8431e-07
-4.01228e-06
-3.11261e-07
-4.01865e-06
-3.78229e-08
-4.02688e-06
2.3897e-07
-4.03677e-06
5.22099e-07
-4.04777e-06
8.14453e-07
-4.0589e-06
1.11872e-06
-4.06868e-06
1.43726e-06
-4.07508e-06
1.77189e-06
-4.07536e-06
2.12374e-06
-4.06601e-06
2.49289e-06
-4.04265e-06
2.8781e-06
-3.99997e-06
3.27635e-06
-3.93171e-06
3.68236e-06
-3.83083e-06
4.08799e-06
-3.68974e-06
4.48166e-06
-3.5009e-06
4.84766e-06
-3.25761e-06
5.16565e-06
-2.95537e-06
5.4103e-06
-2.5935e-06
5.5514e-06
-2.17722e-06
5.55457e-06
-1.71987e-06
5.38284e-06
-1.24486e-06
4.9994e-06
-7.86781e-07
4.37136e-06
-3.90841e-07
3.47437e-06
-1.10142e-07
2.29719e-06
8.46995e-07
-8.71732e-08
-7.0916e-07
-3.14374e-07
-1.91814e-06
-6.43217e-07
-2.9041e-06
-1.03631e-06
-3.66775e-06
-1.46075e-06
-4.22115e-06
-1.88993e-06
-4.58399e-06
-2.30399e-06
-4.78071e-06
-2.68946e-06
-4.83775e-06
-3.03836e-06
-4.78146e-06
-3.34698e-06
-4.63646e-06
-3.61483e-06
-4.42476e-06
-3.84356e-06
-4.16527e-06
-4.03621e-06
-3.87371e-06
-4.19652e-06
-3.56268e-06
-4.32849e-06
-3.242e-06
-4.43612e-06
-2.91898e-06
-4.52315e-06
-2.5988e-06
-4.59299e-06
-2.28487e-06
-4.64864e-06
-1.97911e-06
-4.69271e-06
-1.68224e-06
-4.72737e-06
-1.39402e-06
-4.7544e-06
-1.11346e-06
-4.77524e-06
-8.39003e-07
-4.79092e-06
-5.68623e-07
-4.80218e-06
-3.00001e-07
-4.80939e-06
-3.0612e-08
-4.81259e-06
2.42167e-07
-4.81144e-06
5.20953e-07
-4.80523e-06
8.08242e-07
-4.7928e-06
1.10629e-06
-4.7725e-06
1.41696e-06
-4.74215e-06
1.74154e-06
-4.69895e-06
2.08053e-06
-4.63945e-06
2.43339e-06
-4.55953e-06
2.79818e-06
-4.45442e-06
3.17123e-06
-4.31876e-06
3.5467e-06
-4.14689e-06
3.91612e-06
-3.93314e-06
4.26792e-06
-3.67248e-06
4.587e-06
-3.36133e-06
4.85449e-06
-2.99868e-06
5.04765e-06
-2.58749e-06
5.14021e-06
-2.1362e-06
5.10328e-06
-1.66026e-06
4.9069e-06
-1.18322e-06
4.52236e-06
-7.37083e-07
3.92522e-06
-3.61329e-07
3.09862e-06
-1.00513e-07
2.03637e-06
7.46482e-07
-8.16062e-08
-6.27554e-07
-2.96973e-07
-1.70278e-06
-6.13466e-07
-2.5876e-06
-9.98881e-07
-3.28233e-06
-1.42409e-06
-3.79594e-06
-1.86454e-06
-4.14354e-06
-2.30089e-06
-4.34436e-06
-2.71895e-06
-4.41969e-06
-3.10918e-06
-4.39123e-06
-3.4659e-06
-4.27974e-06
-3.78649e-06
-4.10417e-06
-4.07056e-06
-3.8812e-06
-4.31932e-06
-3.62495e-06
-4.53494e-06
-3.34706e-06
-4.72018e-06
-3.05676e-06
-4.87802e-06
-2.76113e-06
-5.01148e-06
-2.46534e-06
-5.12342e-06
-2.17294e-06
-5.21646e-06
-1.88607e-06
-5.29295e-06
-1.60575e-06
-5.35489e-06
-1.33208e-06
-5.40395e-06
-1.0644e-06
-5.44147e-06
-8.01487e-07
-5.46842e-06
-5.41666e-07
-5.48546e-06
-2.82959e-07
-5.49289e-06
-2.31895e-08
-5.49063e-06
2.39907e-07
-5.47824e-06
5.08571e-07
-5.45491e-06
7.84904e-07
-5.41935e-06
1.07074e-06
-5.36987e-06
1.36747e-06
-5.30426e-06
1.67593e-06
-5.21981e-06
1.99609e-06
-5.11334e-06
2.32692e-06
-4.98117e-06
2.666e-06
-4.81924e-06
3.0093e-06
-4.62327e-06
3.35074e-06
-4.38905e-06
3.6819e-06
-4.11282e-06
3.99169e-06
-3.79187e-06
4.26605e-06
-3.42529e-06
4.48791e-06
-3.01492e-06
4.63728e-06
-2.56644e-06
4.69173e-06
-2.09047e-06
4.6273e-06
-1.6035e-06
4.41994e-06
-1.12851e-06
4.04737e-06
-6.94786e-07
3.4915e-06
-3.36921e-07
2.74075e-06
-9.27165e-08
1.79217e-06
6.53765e-07
-7.7372e-08
-5.50182e-07
-2.8357e-07
-1.49658e-06
-5.90192e-07
-2.28098e-06
-9.68991e-07
-2.90353e-06
-1.39388e-06
-3.37105e-06
-1.84218e-06
-3.69525e-06
-2.29524e-06
-3.89129e-06
-2.73863e-06
-3.97631e-06
-3.16179e-06
-3.96807e-06
-3.55763e-06
-3.8839e-06
-3.92188e-06
-3.73992e-06
-4.25251e-06
-3.55057e-06
-4.54914e-06
-3.32833e-06
-4.81256e-06
-3.08364e-06
-5.04436e-06
-2.82497e-06
-5.24654e-06
-2.55894e-06
-5.42136e-06
-2.29053e-06
-5.57107e-06
-2.02322e-06
-5.69786e-06
-1.75927e-06
-5.80374e-06
-1.49988e-06
-5.89046e-06
-1.24536e-06
-5.95951e-06
-9.95346e-07
-6.0121e-06
-7.48904e-07
-6.04908e-06
-5.04684e-07
-6.071e-06
-2.61036e-07
-6.07807e-06
-1.61261e-08
-6.07011e-06
2.31956e-07
-6.04663e-06
4.85084e-07
-6.0067e-06
7.44978e-07
-5.94904e-06
1.01308e-06
-5.87195e-06
1.29038e-06
-5.77332e-06
1.5773e-06
-5.65067e-06
1.87345e-06
-5.50117e-06
2.17742e-06
-5.32173e-06
2.48656e-06
-5.1091e-06
2.79667e-06
-4.86015e-06
3.10178e-06
-4.57208e-06
3.39384e-06
-4.24293e-06
3.66253e-06
-3.87202e-06
3.89515e-06
-3.4607e-06
4.07659e-06
-3.01304e-06
4.18962e-06
-2.53672e-06
4.2154e-06
-2.04372e-06
4.1343e-06
-1.55094e-06
3.92716e-06
-1.08038e-06
3.57681e-06
-6.58783e-07
3.0699e-06
-3.16614e-07
2.39858e-06
-8.63388e-08
1.56189e-06
5.67426e-07
-7.41409e-08
-4.76041e-07
-2.7324e-07
-1.29748e-06
-5.7204e-07
-1.98218e-06
-9.45309e-07
-2.53026e-06
-1.36939e-06
-2.94697e-06
-1.8232e-06
-3.24143e-06
-2.28888e-06
-3.42561e-06
-2.75195e-06
-3.51323e-06
-3.20129e-06
-3.51873e-06
-3.62876e-06
-3.45642e-06
-4.02887e-06
-3.33981e-06
-4.39824e-06
-3.1812e-06
-4.73521e-06
-2.99136e-06
-5.03936e-06
-2.77948e-06
-5.31121e-06
-2.55312e-06
-5.55188e-06
-2.31828e-06
-5.76285e-06
-2.07956e-06
-5.9458e-06
-1.84027e-06
-6.10243e-06
-1.60264e-06
-6.23437e-06
-1.36794e-06
-6.34311e-06
-1.13663e-06
-6.4299e-06
-9.08552e-07
-6.49577e-06
-6.83035e-07
-6.54144e-06
-4.59009e-07
-6.56735e-06
-2.35131e-07
-6.57359e-06
-9.88997e-09
-6.55992e-06
2.18287e-07
-6.52576e-06
4.50928e-07
-6.47019e-06
6.89405e-07
-6.39192e-06
9.34805e-07
-6.28933e-06
1.1878e-06
-6.16051e-06
1.44848e-06
-6.00325e-06
1.71619e-06
-5.81518e-06
1.98934e-06
-5.59383e-06
2.2652e-06
-5.33683e-06
2.53967e-06
-5.04213e-06
2.80708e-06
-4.70831e-06
3.06002e-06
-4.33497e-06
3.28919e-06
-3.9232e-06
3.48338e-06
-3.47617e-06
3.62955e-06
-2.99969e-06
3.71314e-06
-2.50284e-06
3.71855e-06
-1.99843e-06
3.6299e-06
-1.50334e-06
3.43207e-06
-1.03846e-06
3.11193e-06
-6.28225e-07
2.65967e-06
-2.9969e-07
2.07005e-06
-8.10963e-08
1.3433e-06
4.8633e-07
-7.16755e-08
-4.04365e-07
-2.65298e-07
-1.10386e-06
-5.57953e-07
-1.68953e-06
-9.26709e-07
-2.16151e-06
-1.34982e-06
-2.52386e-06
-1.80756e-06
-2.78369e-06
-2.28278e-06
-2.95039e-06
-2.76115e-06
-3.03486e-06
-3.23118e-06
-3.0487e-06
-3.68404e-06
-3.00356e-06
-4.1133e-06
-2.91056e-06
-4.51454e-06
-2.77995e-06
-4.88503e-06
-2.62087e-06
-5.22335e-06
-2.44116e-06
-5.52909e-06
-2.24738e-06
-5.80254e-06
-2.04482e-06
-6.04452e-06
-1.83758e-06
-6.25612e-06
-1.62868e-06
-6.43857e-06
-1.42019e-06
-6.59314e-06
-1.21337e-06
-6.72099e-06
-1.00878e-06
-6.82315e-06
-8.06385e-07
-6.90046e-06
-6.05727e-07
-6.95349e-06
-4.05982e-07
-6.98253e-06
-2.06084e-07
-6.98761e-06
-4.8177e-09
-6.9684e-06
1.99078e-07
-6.92429e-06
4.0682e-07
-6.85435e-06
6.19468e-07
-6.75736e-06
8.37816e-07
-6.63183e-06
1.06227e-06
-6.47606e-06
1.2927e-06
-6.28817e-06
1.5283e-06
-6.06627e-06
1.76745e-06
-5.80855e-06
2.00748e-06
-5.51347e-06
2.24459e-06
-5.18e-06
2.47361e-06
-4.80794e-06
2.68796e-06
-4.39826e-06
2.87951e-06
-3.95352e-06
3.03864e-06
-3.47834e-06
3.15438e-06
-2.97985e-06
3.21465e-06
-2.46808e-06
3.20678e-06
-1.95632e-06
3.11813e-06
-1.46116e-06
2.93691e-06
-1.0024e-06
2.65316e-06
-6.02473e-07
2.25974e-06
-2.85636e-07
1.75321e-06
-7.67911e-08
1.13445e-06
4.09539e-07
-6.98031e-08
-3.34562e-07
-2.59231e-07
-9.14429e-07
-5.47115e-07
-1.40164e-06
-9.12268e-07
-1.79635e-06
-1.33444e-06
-2.10169e-06
-1.79499e-06
-2.32313e-06
-2.27743e-06
-2.46796e-06
-2.76761e-06
-2.54468e-06
-3.25387e-06
-2.56245e-06
-3.72689e-06
-2.53054e-06
-4.17953e-06
-2.45791e-06
-4.60658e-06
-2.3529e-06
-5.00446e-06
-2.22299e-06
-5.37092e-06
-2.07471e-06
-5.70475e-06
-1.91355e-06
-6.00556e-06
-1.744e-06
-6.27355e-06
-1.56959e-06
-6.50928e-06
-1.39294e-06
-6.71356e-06
-1.21592e-06
-6.88727e-06
-1.03966e-06
-7.03131e-06
-8.64737e-07
-7.14647e-06
-6.91229e-07
-7.23338e-06
-5.1882e-07
-7.29246e-06
-3.46899e-07
-7.3239e-06
-1.74642e-07
-7.32762e-06
-1.1007e-09
-7.30325e-06
1.74708e-07
-7.25015e-06
3.53723e-07
-7.16742e-06
5.36739e-07
-7.05392e-06
7.24312e-07
-6.9083e-06
9.16649e-07
-6.7291e-06
1.1135e-06
-6.5148e-06
1.31401e-06
-6.26398e-06
1.51663e-06
-5.97543e-06
1.71894e-06
-5.64839e-06
1.91754e-06
-5.28274e-06
2.10797e-06
-4.87934e-06
2.28456e-06
-4.4403e-06
2.44048e-06
-3.96939e-06
2.56773e-06
-3.47235e-06
2.65734e-06
-2.95727e-06
2.69957e-06
-2.43486e-06
2.68437e-06
-1.91858e-06
2.60186e-06
-1.42468e-06
2.44302e-06
-9.71922e-07
2.2004e-06
-5.81054e-07
1.86888e-06
-2.74083e-07
1.44624e-06
-7.32837e-08
9.33653e-07
3.36255e-07
-6.83974e-08
-2.66165e-07
-2.54655e-07
-7.28171e-07
-5.38898e-07
-1.1174e-06
-9.01245e-07
-1.43401e-06
-1.32259e-06
-1.68035e-06
-1.78517e-06
-1.86055e-06
-2.27302e-06
-1.98011e-06
-2.77222e-06
-2.04548e-06
-3.271e-06
-2.06367e-06
-3.75973e-06
-2.04181e-06
-4.23076e-06
-1.98688e-06
-4.67828e-06
-1.90538e-06
-5.09802e-06
-1.80325e-06
-5.48708e-06
-1.68565e-06
-5.84362e-06
-1.55701e-06
-6.16666e-06
-1.42096e-06
-6.45586e-06
-1.28039e-06
-6.71135e-06
-1.13746e-06
-6.93353e-06
-9.93734e-07
-7.12298e-06
-8.50207e-07
-7.28032e-06
-7.07397e-07
-7.40612e-06
-5.65427e-07
-7.50084e-06
-4.241e-07
-7.56477e-06
-2.82976e-07
-7.59797e-06
-1.41441e-07
-7.60028e-06
1.21585e-09
-7.57131e-06
1.45735e-07
-7.5104e-06
2.92813e-07
-7.41669e-06
4.43024e-07
-7.28911e-06
5.96737e-07
-7.12649e-06
7.54031e-07
-6.9276e-06
9.14601e-07
-6.69124e-06
1.07765e-06
-6.41643e-06
1.24182e-06
-6.10252e-06
1.40502e-06
-5.74939e-06
1.56442e-06
-5.35774e-06
1.71632e-06
-4.92929e-06
1.8561e-06
-4.46709e-06
1.97828e-06
-3.97584e-06
2.07648e-06
-3.46215e-06
2.14365e-06
-2.9348e-06
2.17223e-06
-2.40493e-06
2.1545e-06
-1.88608e-06
2.083e-06
-1.39408e-06
1.95102e-06
-9.46799e-07
1.75312e-06
-5.6362e-07
1.4857e-06
-2.64766e-07
1.14739e-06
-7.04755e-08
7.39362e-07
2.6578e-07
-6.73667e-08
-1.98798e-07
-2.51289e-07
-5.44249e-07
-5.32828e-07
-8.35861e-07
-8.93063e-07
-1.07377e-06
-1.31373e-06
-1.25968e-06
-1.77775e-06
-1.39654e-06
-2.26958e-06
-1.48828e-06
-2.77549e-06
-1.53957e-06
-3.28368e-06
-1.55547e-06
-3.7843e-06
-1.54119e-06
-4.26935e-06
-1.50183e-06
-4.73255e-06
-1.44218e-06
-5.16916e-06
-1.36664e-06
-5.57574e-06
-1.27907e-06
-5.94996e-06
-1.18279e-06
-6.29037e-06
-1.08055e-06
-6.59622e-06
-9.7454e-07
-6.86724e-06
-8.66434e-07
-7.10354e-06
-7.57438e-07
-7.30541e-06
-6.4834e-07
-7.47323e-06
-5.39569e-07
-7.60741e-06
-4.31252e-07
-7.70824e-06
-3.23274e-07
-7.77588e-06
-2.15335e-07
-7.81031e-06
-1.07004e-07
-7.81132e-06
2.22563e-09
-7.77847e-06
1.12878e-07
-7.7111e-06
2.25443e-07
-7.60839e-06
3.40312e-07
-7.46937e-06
4.57718e-07
-7.293e-06
5.77665e-07
-7.07827e-06
6.99865e-07
-6.82427e-06
8.23654e-07
-6.53038e-06
9.47926e-07
-6.19641e-06
1.07105e-06
-5.82283e-06
1.19083e-06
-5.41094e-06
1.30443e-06
-4.96317e-06
1.40833e-06
-4.4833e-06
1.49841e-06
-3.97673e-06
1.56992e-06
-3.45073e-06
1.61764e-06
-2.91456e-06
1.63606e-06
-2.37962e-06
1.61956e-06
-1.85943e-06
1.56281e-06
-1.36947e-06
1.46106e-06
-9.26866e-07
1.31051e-06
-5.4992e-07
1.10875e-06
-2.57498e-07
8.54964e-07
-6.82969e-08
5.50161e-07
1.97483e-07
-6.66451e-08
-1.32153e-07
-2.48926e-07
-3.61968e-07
-5.28557e-07
-5.56231e-07
-8.87284e-07
-7.15045e-07
-1.30745e-06
-8.39512e-07
-1.77246e-06
-9.31533e-07
-2.26708e-06
-9.93658e-07
-2.77774e-06
-1.0289e-06
-3.29265e-06
-1.04057e-06
-3.8018e-06
-1.03204e-06
-4.29697e-06
-1.00666e-06
-4.77155e-06
-9.676e-07
-5.22044e-06
-9.17749e-07
-5.63983e-06
-8.5968e-07
-6.02702e-06
-7.95602e-07
-6.38021e-06
-7.27356e-07
-6.69833e-06
-6.56418e-07
-6.98084e-06
-5.83924e-07
-7.22759e-06
-5.10696e-07
-7.43865e-06
-4.37279e-07
-7.61424e-06
-3.63977e-07
-7.7546e-06
-2.90892e-07
-7.85991e-06
-2.17963e-07
-7.93024e-06
-1.45005e-07
-7.9655e-06
-7.17444e-08
-7.96542e-06
2.14221e-09
-7.92953e-06
7.69898e-08
-7.85719e-06
1.53108e-07
-7.74762e-06
2.30738e-07
-7.59991e-06
3.10013e-07
-7.41316e-06
3.90911e-07
-7.18651e-06
4.7321e-07
-6.91929e-06
5.56434e-07
-6.61117e-06
6.3981e-07
-6.26234e-06
7.2222e-07
-5.87366e-06
8.02157e-07
-5.44693e-06
8.777e-07
-4.9851e-06
9.46501e-07
-4.49249e-06
1.00579e-06
-3.975e-06
1.05243e-06
-3.44034e-06
1.08298e-06
-2.89811e-06
1.09383e-06
-2.35988e-06
1.08132e-06
-1.83909e-06
1.04203e-06
-1.35095e-06
9.72908e-07
-9.12005e-07
8.71573e-07
-5.3978e-07
7.36527e-07
-2.52146e-07
5.6733e-07
-6.66995e-08
3.64715e-07
1.30783e-07
-6.61875e-08
-6.59652e-08
-2.47425e-07
-1.8073e-07
-5.25838e-07
-2.77818e-07
-8.83598e-07
-3.57285e-07
-1.30344e-06
-4.19673e-07
-1.76906e-06
-4.65914e-07
-2.26545e-06
-4.9726e-07
-2.77917e-06
-5.15194e-07
-3.29839e-06
-5.2134e-07
-3.81306e-06
-5.17371e-07
-4.31478e-06
-5.04942e-07
-4.79676e-06
-4.85621e-07
-5.25366e-06
-4.6085e-07
-5.68143e-06
-4.3191e-07
-6.07713e-06
-3.99906e-07
-6.43872e-06
-3.65759e-07
-6.76493e-06
-3.30214e-07
-7.05501e-06
-2.93842e-07
-7.30864e-06
-2.57061e-07
-7.52578e-06
-2.20148e-07
-7.70649e-06
-1.83261e-07
-7.85092e-06
-1.46457e-07
-7.95918e-06
-1.0971e-07
-8.03125e-06
-7.29317e-08
-8.06701e-06
-3.59891e-08
-8.06614e-06
1.27446e-09
-8.02817e-06
3.90221e-08
-7.95247e-06
7.74033e-08
-7.83826e-06
1.16533e-07
-7.68472e-06
1.56471e-07
-7.49101e-06
1.97199e-07
-7.25639e-06
2.38596e-07
-6.98037e-06
2.80414e-07
-6.66282e-06
3.22257e-07
-6.30415e-06
3.63554e-07