/*--------------------------------*- C++ -*----------------------------------*\
  =========                 |
  \\      /  F ield         | OpenFOAM: The Open Source CFD Toolbox
   \\    /   O peration     | Website:  https://openfoam.org
    \\  /    A nd           | Version:  7
     \\/     M anipulation  |
\*---------------------------------------------------------------------------*/
FoamFile
{
    version     2.0;
    format      ascii;
    class       volVectorField;
    location    "0.0656";
    object      U;
}
// * * * * * * * * * * * * * * * * * * * * * * * * * * * * * * * * * * * * * //

dimensions      [0 1 -1 0 0 0 0];

internalField   nonuniform List<vector> 
2500
(
(0.290245 -0.152406 0)
(0.389515 -0.128227 0)
(0.565394 -0.0747286 0)
(0.683224 -0.0422319 0)
(0.752831 -0.0245343 0)
(0.797871 -0.014897 0)
(0.829075 -0.00959229 0)
(0.851592 -0.00657093 0)
(0.86845 -0.00474815 0)
(0.881468 -0.00357404 0)
(0.891754 -0.00277041 0)
(0.900016 -0.00219189 0)
(0.90673 -0.00175865 0)
(0.912231 -0.00142428 0)
(0.916763 -0.00116017 0)
(0.920507 -0.00094767 0)
(0.923601 -0.000774022 0)
(0.926154 -0.000630114 0)
(0.928249 -0.00050921 0)
(0.929953 -0.000406165 0)
(0.931316 -0.00031693 0)
(0.93238 -0.000238223 0)
(0.933176 -0.000167304 0)
(0.933725 -0.000101813 0)
(0.934043 -3.96439e-05 0)
(0.934138 2.11527e-05 0)
(0.934012 8.25704e-05 0)
(0.933661 0.000146445 0)
(0.933073 0.000214806 0)
(0.93223 0.000289898 0)
(0.931107 0.000374296 0)
(0.929667 0.000471073 0)
(0.927865 0.000584027 0)
(0.925641 0.000718008 0)
(0.922916 0.000879408 0)
(0.919591 0.00107691 0)
(0.915535 0.0013227 0)
(0.910574 0.00163457 0)
(0.904474 0.00203957 0)
(0.896907 0.00258116 0)
(0.88741 0.00333337 0)
(0.875288 0.00443049 0)
(0.859453 0.00613118 0)
(0.838104 0.00895612 0)
(0.808188 0.0139653 0)
(0.764436 0.0232505 0)
(0.695915 0.0407739 0)
(0.577939 0.0737475 0)
(0.398041 0.128743 0)
(0.293865 0.153782 0)
(0.0010779 -0.294872 0)
(0.0168378 -0.298596 0)
(0.152304 -0.213015 0)
(0.28286 -0.14534 0)
(0.38807 -0.0996716 0)
(0.471351 -0.0698614 0)
(0.536853 -0.0505233 0)
(0.588426 -0.0377342 0)
(0.629407 -0.0289824 0)
(0.662352 -0.0227663 0)
(0.689121 -0.0181956 0)
(0.71107 -0.0147325 0)
(0.729194 -0.0120417 0)
(0.744239 -0.00990702 0)
(0.756771 -0.00818395 0)
(0.767227 -0.00677237 0)
(0.775947 -0.00560064 0)
(0.783202 -0.00461587 0)
(0.789204 -0.00377794 0)
(0.794125 -0.00305553 0)
(0.798099 -0.00242355 0)
(0.801232 -0.00186135 0)
(0.803607 -0.00135142 0)
(0.805283 -0.000878477 0)
(0.806301 -0.000428714 0)
(0.806685 1.07849e-05 0)
(0.806439 0.000452641 0)
(0.805553 0.000909532 0)
(0.803998 0.00139487 0)
(0.801727 0.00192339 0)
(0.79867 0.00251188 0)
(0.794734 0.00318014 0)
(0.789799 0.00395235 0)
(0.783708 0.00485885 0)
(0.776259 0.00593887 0)
(0.767197 0.00724449 0)
(0.756191 0.00884672 0)
(0.742811 0.0108453 0)
(0.726492 0.0133845 0)
(0.706477 0.0166806 0)
(0.681739 0.0210693 0)
(0.650864 0.0270925 0)
(0.611874 0.0356551 0)
(0.562 0.048309 0)
(0.49751 0.0677133 0)
(0.413943 0.0981711 0)
(0.306399 0.145794 0)
(0.170551 0.217309 0)
(0.0269055 0.307195 0)
(0.00518365 0.303002 0)
(-0.0329218 -0.250363 0)
(-0.0615895 -0.344027 0)
(-0.0114679 -0.31061 0)
(0.0708896 -0.251585 0)
(0.159069 -0.196089 0)
(0.241682 -0.151545 0)
(0.31437 -0.117862 0)
(0.376437 -0.0927741 0)
(0.428777 -0.0739866 0)
(0.472737 -0.0597218 0)
(0.509652 -0.0487071 0)
(0.540694 -0.0400549 0)
(0.566844 -0.0331478 0)
(0.588904 -0.027553 0)
(0.607525 -0.0229615 0)
(0.623236 -0.0191484 0)
(0.636467 -0.0159464 0)
(0.647568 -0.0132284 0)
(0.656824 -0.0108953 0)
(0.664466 -0.00886821 0)
(0.670681 -0.00708286 0)
(0.675618 -0.00548545 0)
(0.679391 -0.00402981 0)
(0.682086 -0.00267512 0)
(0.683761 -0.00138419 0)
(0.68445 -0.000121946 0)
(0.68416 0.00114579 0)
(0.682874 0.0024538 0)
(0.680552 0.00383867 0)
(0.677122 0.00534036 0)
(0.672486 0.0070041 0)
(0.666511 0.00888278 0)
(0.659022 0.0110401 0)
(0.649801 0.0135551 0)
(0.638569 0.0165278 0)
(0.624977 0.0200885 0)
(0.608587 0.0244101 0)
(0.58885 0.0297276 0)
(0.565069 0.0363665 0)
(0.536368 0.0447874 0)
(0.501647 0.0556526 0)
(0.459546 0.0699263 0)
(0.408447 0.0890114 0)
(0.3466 0.114906 0)
(0.272575 0.150255 0)
(0.186502 0.197821 0)
(0.0924129 0.258142 0)
(0.00192389 0.323363 0)
(-0.056906 0.361567 0)
(-0.0321672 0.263989 0)
(-0.0267682 -0.190599 0)
(-0.0654031 -0.33301 0)
(-0.0644771 -0.351551 0)
(-0.0273483 -0.319352 0)
(0.0298743 -0.272149 0)
(0.0941096 -0.225655 0)
(0.157668 -0.185343 0)
(0.216743 -0.152123 0)
(0.269815 -0.125264 0)
(0.316588 -0.103638 0)
(0.357356 -0.0861644 0)
(0.392658 -0.0719468 0)
(0.423102 -0.0602789 0)
(0.449277 -0.0506171 0)
(0.47172 -0.042545 0)
(0.490906 -0.0357416 0)
(0.507244 -0.0299572 0)
(0.521083 -0.0249945 0)
(0.532718 -0.020695 0)
(0.542397 -0.0169292 0)
(0.550321 -0.0135891 0)
(0.556656 -0.0105825 0)
(0.561531 -0.00782886 0)
(0.565041 -0.0052562 0)
(0.567254 -0.00279801 0)
(0.568205 -0.000391115 0)
(0.567903 0.00202649 0)
(0.566326 0.00451787 0)
(0.563424 0.00714927 0)
(0.559114 0.00999273 0)
(0.553278 0.0131291 0)
(0.545761 0.0166517 0)
(0.536365 0.0206715 0)
(0.524842 0.0253233 0)
(0.510886 0.0307745 0)
(0.494126 0.0372367 0)
(0.474112 0.0449826 0)
(0.450307 0.0543674 0)
(0.422074 0.0658593 0)
(0.388686 0.0800784 0)
(0.349339 0.0978436 0)
(0.303233 0.120216 0)
(0.249742 0.148506 0)
(0.188782 0.184147 0)
(0.121519 0.228209 0)
(0.051625 0.280014 0)
(-0.0128533 0.33382 0)
(-0.0576933 0.372331 0)
(-0.0646334 0.355996 0)
(-0.0272793 0.204822 0)
(-0.0178413 -0.149169 0)
(-0.0530696 -0.302978 0)
(-0.0735294 -0.354991 0)
(-0.0664146 -0.350436 0)
(-0.0371422 -0.319846 0)
(0.0050739 -0.28057 0)
(0.0530247 -0.241192 0)
(0.101945 -0.205326 0)
(0.148992 -0.174083 0)
(0.192659 -0.147435 0)
(0.232291 -0.124907 0)
(0.267732 -0.105904 0)
(0.299098 -0.089852 0)
(0.326644 -0.0762438 0)
(0.350681 -0.0646528 0)
(0.371532 -0.0547251 0)
(0.389508 -0.0461685 0)
(0.404896 -0.0387412 0)
(0.41795 -0.0322411 0)
(0.428894 -0.0264974 0)
(0.437914 -0.0213636 0)
(0.445169 -0.0167115 0)
(0.450783 -0.0124272 0)
(0.454848 -0.00840655 0)
(0.457431 -0.00455252 0)
(0.458564 -0.000771836 0)
(0.458254 0.00302763 0)
(0.456475 0.0069396 0)
(0.453173 0.0110624 0)
(0.448259 0.0155022 0)
(0.441611 0.0203769 0)
(0.43307 0.0258207 0)
(0.422439 0.0319901 0)
(0.409474 0.039071 0)
(0.39389 0.0472878 0)
(0.37535 0.0569154 0)
(0.353472 0.0682929 0)
(0.327832 0.081841 0)
(0.297986 0.098079 0)
(0.263509 0.117639 0)
(0.224071 0.141264 0)
(0.179587 0.16976 0)
(0.130463 0.203852 0)
(0.0780095 0.243813 0)
(0.0250378 0.288664 0)
(-0.0233718 0.334583 0)
(-0.0591887 0.372023 0)
(-0.0718282 0.38139 0)
(-0.0542794 0.32829 0)
(-0.0186355 0.162513 0)
(-0.011418 -0.120933 0)
(-0.0402177 -0.270041 0)
(-0.0677276 -0.34032 0)
(-0.0775652 -0.357584 0)
(-0.0686203 -0.344378 0)
(-0.0456871 -0.316188 0)
(-0.0139501 -0.282395 0)
(0.0223214 -0.248147 0)
(0.0600111 -0.215972 0)
(0.0970534 -0.186906 0)
(0.132191 -0.1612 0)
(0.164732 -0.138717 0)
(0.194358 -0.119159 0)
(0.220985 -0.102172 0)
(0.24467 -0.0874103 0)
(0.265546 -0.0745509 0)
(0.283789 -0.0633069 0)
(0.299583 -0.0534252 0)
(0.313111 -0.0446836 0)
(0.324544 -0.0368863 0)
(0.334034 -0.0298594 0)
(0.341709 -0.0234466 0)
(0.347676 -0.0175051 0)
(0.352014 -0.0119025 0)
(0.354778 -0.00651293 0)
(0.355996 -0.00121432 0)
(0.355667 0.00411461 0)
(0.353765 0.0095975 0)
(0.350234 0.0153636 0)
(0.344989 0.0215514 0)
(0.337915 0.0283126 0)
(0.328866 0.0358172 0)
(0.317664 0.0442588 0)
(0.304102 0.0538611 0)
(0.287945 0.0648854 0)
(0.268938 0.0776387 0)
(0.246815 0.0924806 0)
(0.221329 0.109829 0)
(0.192282 0.130156 0)
(0.1596 0.153968 0)
(0.123434 0.18175 0)
(0.0843205 0.21384 0)
(0.043424 0.250168 0)
(0.00284456 0.28978 0)
(-0.0340458 0.329996 0)
(-0.0623992 0.365058 0)
(-0.0761042 0.384201 0)
(-0.0692541 0.369585 0)
(-0.0422446 0.295493 0)
(-0.0121735 0.133046 0)
(-0.00746123 -0.100959 0)
(-0.0303846 -0.239826 0)
(-0.0585057 -0.318323 0)
(-0.076744 -0.350588 0)
(-0.0810161 -0.352155 0)
(-0.0728409 -0.335496 0)
(-0.055239 -0.30936 0)
(-0.0313719 -0.279362 0)
(-0.0039735 -0.248837 0)
(0.024854 -0.219609 0)
(0.0536173 -0.192567 0)
(0.0813215 -0.168048 0)
(0.107347 -0.146081 0)
(0.131341 -0.126533 0)
(0.153138 -0.109195 0)
(0.17269 -0.0938278 0)
(0.190027 -0.0801911 0)
(0.205223 -0.0680522 0)
(0.218374 -0.0571934 0)
(0.229583 -0.0474125 0)
(0.238953 -0.0385224 0)
(0.246573 -0.0303488 0)
(0.25252 -0.0227285 0)
(0.256853 -0.0155062 0)
(0.259612 -0.00853234 0)
(0.260814 -0.00165994 0)
(0.260453 0.00525792 0)
(0.258501 0.0123712 0)
(0.254907 0.019836 0)
(0.249594 0.0278179 0)
(0.242464 0.036496 0)
(0.233395 0.0460663 0)
(0.222249 0.0567467 0)
(0.20887 0.0687807 0)
(0.193098 0.0824412 0)
(0.174782 0.0980325 0)
(0.153798 0.115888 0)
(0.130086 0.136359 0)
(0.103698 0.159794 0)
(0.0748761 0.186481 0)
(0.0441498 0.216551 0)
(0.01248 0.249807 0)
(-0.0185759 0.285421 0)
(-0.0466979 0.32146 0)
(-0.068731 0.354182 0)
(-0.0808743 0.377099 0)
(-0.0793293 0.379969 0)
(-0.0619078 0.348239 0)
(-0.0326972 0.264085 0)
(-0.00811779 0.111725 0)
(-0.00512383 -0.0863217 0)
(-0.0234801 -0.213589 0)
(-0.0497574 -0.29421 0)
(-0.0715153 -0.33576 0)
(-0.083785 -0.348588 0)
(-0.0861013 -0.342183 0)
(-0.079764 -0.32403 0)
(-0.0667668 -0.299517 0)
(-0.0491864 -0.272255 0)
(-0.0288466 -0.244525 0)
(-0.00720225 -0.217678 0)
(0.0146582 -0.192447 0)
(0.0359616 -0.169174 0)
(0.0561865 -0.147957 0)
(0.0750013 -0.128751 0)
(0.0922129 -0.111432 0)
(0.107725 -0.0958323 0)
(0.121507 -0.0817654 0)
(0.133568 -0.0690385 0)
(0.143945 -0.0574605 0)
(0.152681 -0.0468448 0)
(0.159825 -0.0370107 0)
(0.16542 -0.0277834 0)
(0.169499 -0.0189927 0)
(0.172084 -0.0104714 0)
(0.17318 -0.00205358 0)
(0.172777 0.0064279 0)
(0.170847 0.0151437 0)
(0.167345 0.0242704 0)
(0.162209 0.0339935 0)
(0.155364 0.0445099 0)
(0.146723 0.0560306 0)
(0.136191 0.0687825 0)
(0.123677 0.0830095 0)
(0.109107 0.0989712 0)
(0.0924353 0.116938 0)
(0.0736793 0.137177 0)
(0.0529516 0.159931 0)
(0.0305124 0.185374 0)
(0.00683676 0.213537 0)
(-0.0173026 0.244186 0)
(-0.0407421 0.276635 0)
(-0.0618434 0.309463 0)
(-0.0784628 0.340116 0)
(-0.0880617 0.364404 0)
(-0.0880899 0.375974 0)
(-0.0767237 0.365957 0)
(-0.0541754 0.323219 0)
(-0.0258557 0.235918 0)
(-0.00569416 0.0957404 0)
(-0.00372586 -0.075142 0)
(-0.0187115 -0.191076 0)
(-0.0425039 -0.27035 0)
(-0.0652417 -0.316969 0)
(-0.082077 -0.337736 0)
(-0.0915237 -0.339654 0)
(-0.0937105 -0.328817 0)
(-0.0896535 -0.310027 0)
(-0.080742 -0.286813 0)
(-0.0683872 -0.261627 0)
(-0.0538431 -0.23609 0)
(-0.0381407 -0.21122 0)
(-0.0220825 -0.187611 0)
(-0.00626625 -0.165571 0)
(0.00888037 -0.145217 0)
(0.023064 -0.126547 0)
(0.0360932 -0.10948 0)
(0.0478513 -0.093891 0)
(0.058274 -0.079627 0)
(0.0673326 -0.0665211 0)
(0.0750203 -0.0543992 0)
(0.0813422 -0.0430847 0)
(0.0863077 -0.0324001 0)
(0.0899248 -0.0221681 0)
(0.0921961 -0.0122114 0)
(0.0931161 -0.00235156 0)
(0.0926698 0.00759212 0)
(0.0908314 0.017804 0)
(0.0875655 0.0284739 0)
(0.0828281 0.0397986 0)
(0.0765698 0.0519828 0)
(0.0687406 0.0652401 0)
(0.059297 0.0797919 0)
(0.0482127 0.0958649 0)
(0.035493 0.113684 0)
(0.0211948 0.133462 0)
(0.00545391 0.155376 0)
(-0.0114802 0.179536 0)
(-0.0292005 0.205925 0)
(-0.047091 0.234323 0)
(-0.0642735 0.264173 0)
(-0.0795628 0.294414 0)
(-0.0914563 0.32324 0)
(-0.098197 0.347812 0)
(-0.0979809 0.363954 0)
(-0.089385 0.365932 0)
(-0.0720121 0.346494 0)
(-0.0473994 0.297442 0)
(-0.0210452 0.211099 0)
(-0.00422855 0.0832602 0)
(-0.00285937 -0.0662375 0)
(-0.0153901 -0.171642 0)
(-0.0367858 -0.247675 0)
(-0.0592928 -0.296432 0)
(-0.078575 -0.322382 0)
(-0.0927288 -0.330625 0)
(-0.10117 -0.325982 0)
(-0.104192 -0.31255 0)
(-0.102587 -0.293567 0)
(-0.0973359 -0.271455 0)
(-0.0894217 -0.247944 0)
(-0.0797288 -0.224219 0)
(-0.0690024 -0.201053 0)
(-0.0578411 -0.178921 0)
(-0.0467083 -0.15808 0)
(-0.0359509 -0.138643 0)
(-0.0258215 -0.120617 0)
(-0.0164979 -0.103943 0)
(-0.00810196 -0.0885166 0)
(-0.000713901 -0.0742037 0)
(0.0056147 -0.0608515 0)
(0.0108514 -0.0482955 0)
(0.0149752 -0.0363636 0)
(0.0179706 -0.024879 0)
(0.0198238 -0.0136611 0)
(0.0205193 -0.00252585 0)
(0.0200388 0.00871381 0)
(0.0183603 0.0202489 0)
(0.0154594 0.0322745 0)
(0.0113111 0.04499 0)
(0.00589348 0.0585982 0)
(-0.00080607 0.0733042 0)
(-0.00878311 0.0893115 0)
(-0.0180047 0.106815 0)
(-0.0283946 0.125992 0)
(-0.0398136 0.146981 0)
(-0.052036 0.169859 0)
(-0.0647201 0.194597 0)
(-0.0773762 0.221003 0)
(-0.0893347 0.248637 0)
(-0.0997216 0.276696 0)
(-0.107456 0.303871 0)
(-0.111291 0.328169 0)
(-0.109927 0.346728 0)
(-0.102251 0.35567 0)
(-0.0877223 0.35008 0)
(-0.066862 0.32424 0)
(-0.0418126 0.272252 0)
(-0.0176207 0.189207 0)
(-0.00330585 0.0731229 0)
(-0.00229919 -0.0588765 0)
(-0.0130376 -0.154637 0)
(-0.0323656 -0.226432 0)
(-0.0541362 -0.275342 0)
(-0.074615 -0.30433 0)
(-0.0918152 -0.317099 0)
(-0.104765 -0.317406 0)
(-0.113266 -0.308657 0)
(-0.117642 -0.293705 0)
(-0.11849 -0.274818 0)
(-0.116511 -0.253716 0)
(-0.112404 -0.231651 0)
(-0.106804 -0.209506 0)
(-0.10026 -0.187869 0)
(-0.0932236 -0.167109 0)
(-0.0860552 -0.147433 0)
(-0.0790365 -0.128932 0)
(-0.0723816 -0.111609 0)
(-0.0662508 -0.095409 0)
(-0.0607618 -0.0802356 0)
(-0.0560006 -0.0659624 0)
(-0.0520294 -0.0524432 0)
(-0.0488942 -0.0395175 0)
(-0.0466297 -0.0270151 0)
(-0.0452634 -0.0147586 0)
(-0.0448183 -0.0025652 0)
(-0.0453142 0.0097523 0)
(-0.0467681 0.0223845 0)
(-0.0491929 0.0355242 0)
(-0.0525948 0.0493656 0)
(-0.0569693 0.0641011 0)
(-0.0622951 0.0799182 0)
(-0.0685259 0.0969926 0)
(-0.0755793 0.115479 0)
(-0.0833233 0.135497 0)
(-0.0915599 0.15711 0)
(-0.100006 0.180292 0)
(-0.108271 0.204888 0)
(-0.115841 0.230557 0)
(-0.122061 0.256692 0)
(-0.126139 0.282327 0)
(-0.127171 0.306025 0)
(-0.12421 0.325762 0)
(-0.1164 0.338827 0)
(-0.103202 0.341786 0)
(-0.0847039 0.330568 0)
(-0.0619607 0.300764 0)
(-0.0372928 0.248189 0)
(-0.0151233 0.169736 0)
(-0.00269515 0.0646114 0)
(-0.00192222 -0.052595 0)
(-0.0113407 -0.139516 0)
(-0.02897 -0.206569 0)
(-0.049854 -0.254302 0)
(-0.0708205 -0.28471 0)
(-0.0899645 -0.300493 0)
(-0.106135 -0.304564 0)
(-0.118824 -0.299704 0)
(-0.128009 -0.28837 0)
(-0.133973 -0.272608 0)
(-0.137159 -0.254046 0)
(-0.138074 -0.233937 0)
(-0.137222 -0.213205 0)
(-0.135068 -0.192506 0)
(-0.13202 -0.172288 0)
(-0.128424 -0.152831 0)
(-0.124562 -0.13429 0)
(-0.120663 -0.116728 0)
(-0.116907 -0.100135 0)
(-0.113436 -0.0844527 0)
(-0.110357 -0.0695826 0)
(-0.107755 -0.0554005 0)
(-0.105694 -0.041762 0)
(-0.104223 -0.0285086 0)
(-0.103378 -0.0154713 0)
(-0.103189 -0.0024739 0)
(-0.103674 0.0106648 0)
(-0.104844 0.0241287 0)
(-0.106702 0.0381023 0)
(-0.109235 0.0527676 0)
(-0.112418 0.0683001 0)
(-0.116198 0.0848627 0)
(-0.120498 0.102598 0)
(-0.125196 0.121616 0)
(-0.130124 0.141977 0)
(-0.135048 0.16367 0)
(-0.139658 0.186579 0)
(-0.143554 0.210444 0)
(-0.146243 0.234809 0)
(-0.147134 0.258956 0)
(-0.145561 0.281832 0)
(-0.140827 0.301972 0)
(-0.132282 0.317432 0)
(-0.119458 0.325753 0)
(-0.102254 0.323986 0)
(-0.0811766 0.308839 0)
(-0.0575482 0.276963 0)
(-0.0336403 0.225411 0)
(-0.0132519 0.152236 0)
(-0.00227034 0.0572745 0)
(-0.00165977 -0.0470882 0)
(-0.0100964 -0.125845 0)
(-0.026363 -0.187922 0)
(-0.0463783 -0.233589 0)
(-0.0674488 -0.264215 0)
(-0.0878199 -0.281789 0)
(-0.106285 -0.288568 0)
(-0.122154 -0.286804 0)
(-0.135166 -0.278576 0)
(-0.145356 -0.265685 0)
(-0.152951 -0.249628 0)
(-0.158277 -0.231599 0)
(-0.161703 -0.21252 0)
(-0.163598 -0.193075 0)
(-0.164307 -0.173756 0)
(-0.164137 -0.154894 0)
(-0.163354 -0.136694 0)
(-0.162183 -0.119264 0)
(-0.160808 -0.102636 0)
(-0.15938 -0.0867852 0)
(-0.15802 -0.0716422 0)
(-0.156824 -0.0571055 0)
(-0.155869 -0.0430493 0)
(-0.155211 -0.0293302 0)
(-0.154894 -0.0157918 0)
(-0.154948 -0.00226892 0)
(-0.155391 0.0114088 0)
(-0.156228 0.0254137 0)
(-0.157449 0.0399166 0)
(-0.159029 0.0550827 0)
(-0.160921 0.0710656 0)
(-0.163053 0.0880002 0)
(-0.165322 0.105993 0)
(-0.167585 0.125109 0)
(-0.16965 0.145354 0)
(-0.171271 0.166649 0)
(-0.172136 0.188806 0)
(-0.17187 0.211484 0)
(-0.170027 0.23415 0)
(-0.166115 0.256027 0)
(-0.159612 0.276039 0)
(-0.150029 0.292767 0)
(-0.136986 0.304415 0)
(-0.120327 0.308818 0)
(-0.100269 0.303504 0)
(-0.0775765 0.285851 0)
(-0.0536713 0.253337 0)
(-0.0306696 0.2039 0)
(-0.0118128 0.13634 0)
(-0.00196158 0.0508167 0)
(-0.00147209 -0.0421482 0)
(-0.00917158 -0.113291 0)
(-0.0243581 -0.1703 0)
(-0.0435937 -0.213301 0)
(-0.0645748 -0.243259 0)
(-0.0857141 -0.261655 0)
(-0.105818 -0.270241 0)
(-0.1241 -0.270838 0)
(-0.140137 -0.265182 0)
(-0.153785 -0.254835 0)
(-0.165091 -0.241136 0)
(-0.174227 -0.225194 0)
(-0.181431 -0.20789 0)
(-0.186975 -0.189907 0)
(-0.191132 -0.171753 0)
(-0.194158 -0.153786 0)
(-0.196289 -0.136246 0)
(-0.19773 -0.119276 0)
(-0.198661 -0.102939 0)
(-0.199229 -0.0872407 0)
(-0.19956 -0.0721377 0)
(-0.199754 -0.0575513 0)
(-0.19989 -0.0433752 0)
(-0.200032 -0.0294829 0)
(-0.200225 -0.0157335 0)
(-0.200498 -0.0019763 0)
(-0.200867 0.0119449 0)
(-0.201329 0.0261872 0)
(-0.201866 0.0409042 0)
(-0.202441 0.0562407 0)
(-0.202994 0.0723263 0)
(-0.203437 0.0892664 0)
(-0.203653 0.107132 0)
(-0.203486 0.125947 0)
(-0.202741 0.145667 0)
(-0.201174 0.166162 0)
(-0.198497 0.187185 0)
(-0.194374 0.208344 0)
(-0.188434 0.229065 0)
(-0.180291 0.248553 0)
(-0.169574 0.26576 0)
(-0.155986 0.279361 0)
(-0.139374 0.287743 0)
(-0.119822 0.289045 0)
(-0.0977697 0.281228 0)
(-0.0741209 0.262225 0)
(-0.0503012 0.230152 0)
(-0.0282316 0.183569 0)
(-0.0106809 0.121758 0)
(-0.00172897 0.0450366 0)
(-0.00133517 -0.0376295 0)
(-0.00847687 -0.101599 0)
(-0.0228131 -0.15352 0)
(-0.0413811 -0.19345 0)
(-0.0621876 -0.222084 0)
(-0.0838046 -0.240541 0)
(-0.105085 -0.250189 0)
(-0.1252 -0.252494 0)
(-0.143626 -0.2489 0)
(-0.160084 -0.240741 0)
(-0.174484 -0.229195 0)
(-0.186865 -0.215266 0)
(-0.197355 -0.199777 0)
(-0.206128 -0.18338 0)
(-0.213384 -0.166577 0)
(-0.219325 -0.149739 0)
(-0.224146 -0.133123 0)
(-0.228027 -0.116893 0)
(-0.231129 -0.101138 0)
(-0.233593 -0.0858867 0)
(-0.235536 -0.0711184 0)
(-0.237058 -0.0567752 0)
(-0.23824 -0.0427704 0)
(-0.239142 -0.0289952 0)
(-0.239809 -0.0153256 0)
(-0.240268 -0.00162715 0)
(-0.240531 0.0122394 0)
(-0.240589 0.0264137 0)
(-0.240418 0.0410301 0)
(-0.239971 0.0562116 0)
(-0.239178 0.0720628 0)
(-0.237944 0.088661 0)
(-0.236146 0.106045 0)
(-0.233628 0.1242 0)
(-0.230201 0.143046 0)
(-0.225641 0.162411 0)
(-0.219694 0.182012 0)
(-0.21208 0.201428 0)
(-0.202511 0.220075 0)
(-0.19071 0.237176 0)
(-0.17645 0.251744 0)
(-0.1596 0.262576 0)
(-0.140191 0.268258 0)
(-0.118488 0.267216 0)
(-0.0950708 0.257791 0)
(-0.070912 0.238365 0)
(-0.0473851 0.207536 0)
(-0.0262133 0.164304 0)
(-0.00977417 0.10826 0)
(-0.00154875 0.0397916 0)
(-0.00123379 -0.0334273 0)
(-0.00795098 -0.0905706 0)
(-0.0216207 -0.13742 0)
(-0.0396333 -0.174001 0)
(-0.0602393 -0.200826 0)
(-0.0821522 -0.218751 0)
(-0.104285 -0.228849 0)
(-0.125798 -0.232304 0)
(-0.146106 -0.230306 0)
(-0.164838 -0.223984 0)
(-0.181797 -0.214361 0)
(-0.196917 -0.202328 0)
(-0.210226 -0.188632 0)
(-0.221813 -0.173883 0)
(-0.231808 -0.15856 0)
(-0.240356 -0.143027 0)
(-0.247611 -0.127546 0)
(-0.253719 -0.112294 0)
(-0.258819 -0.0973749 0)
(-0.263036 -0.0828352 0)
(-0.266479 -0.0686727 0)
(-0.269239 -0.0548479 0)
(-0.271391 -0.041292 0)
(-0.272994 -0.027914 0)
(-0.274089 -0.0146069 0)
(-0.274698 -0.00125403 0)
(-0.274828 0.0122663 0)
(-0.274467 0.0260749 0)
(-0.273583 0.0402861 0)
(-0.272125 0.0550012 0)
(-0.270018 0.0703009 0)
(-0.267165 0.0862364 0)
(-0.263444 0.102818 0)
(-0.258707 0.120005 0)
(-0.252782 0.137684 0)
(-0.245474 0.155659 0)
(-0.236572 0.17363 0)
(-0.225861 0.191168 0)
(-0.213134 0.207702 0)
(-0.198221 0.222499 0)
(-0.181022 0.234657 0)
(-0.161548 0.243107 0)
(-0.139972 0.246633 0)
(-0.116688 0.243923 0)
(-0.0923657 0.233639 0)
(-0.0679933 0.214523 0)
(-0.0448688 0.185535 0)
(-0.0245306 0.145987 0)
(-0.00903767 0.0956662 0)
(-0.0014062 0.0349767 0)
(-0.00115798 -0.0294646 0)
(-0.00755089 -0.0800561 0)
(-0.0206998 -0.121865 0)
(-0.0382594 -0.154902 0)
(-0.0586705 -0.179557 0)
(-0.0807664 -0.196488 0)
(-0.103522 -0.206545 0)
(-0.126107 -0.210677 0)
(-0.147899 -0.209865 0)
(-0.168464 -0.205055 0)
(-0.187525 -0.197122 0)
(-0.204933 -0.186843 0)
(-0.220632 -0.174884 0)
(-0.234639 -0.161801 0)
(-0.247017 -0.148037 0)
(-0.257859 -0.133939 0)
(-0.267273 -0.119762 0)
(-0.275374 -0.105686 0)
(-0.282275 -0.0918221 0)
(-0.28808 -0.0782283 0)
(-0.292884 -0.0649168 0)
(-0.296769 -0.0518634 0)
(-0.299802 -0.0390154 0)
(-0.302035 -0.0262982 0)
(-0.303503 -0.0136221 0)
(-0.304225 -0.000887672 0)
(-0.304203 0.0120087 0)
(-0.303419 0.0251692 0)
(-0.301839 0.0386883 0)
(-0.299407 0.0526469 0)
(-0.296049 0.067104 0)
(-0.291671 0.0820884 0)
(-0.286157 0.0975886 0)
(-0.279374 0.113541 0)
(-0.271173 0.129816 0)
(-0.261393 0.146205 0)
(-0.249873 0.162403 0)
(-0.236459 0.177994 0)
(-0.221028 0.192441 0)
(-0.203505 0.205069 0)
(-0.183899 0.215075 0)
(-0.162336 0.221528 0)
(-0.1391 0.223399 0)
(-0.114673 0.219607 0)
(-0.0897733 0.209082 0)
(-0.0653796 0.190853 0)
(-0.0427042 0.164151 0)
(-0.0231222 0.128504 0)
(-0.00843386 0.0838277 0)
(-0.00129181 0.030512 0)
(-0.00110095 -0.025684 0)
(-0.0072458 -0.0699383 0)
(-0.0199895 -0.10674 0)
(-0.0371853 -0.136099 0)
(-0.0574215 -0.158312 0)
(-0.0796311 -0.173892 0)
(-0.102847 -0.18351 0)
(-0.126255 -0.187931 0)
(-0.149216 -0.187952 0)
(-0.171253 -0.184361 0)
(-0.19203 -0.177896 0)
(-0.211331 -0.169225 0)
(-0.229035 -0.158929 0)
(-0.245093 -0.147501 0)
(-0.259513 -0.135343 0)
(-0.272338 -0.122773 0)
(-0.283636 -0.110032 0)
(-0.293487 -0.0972938 0)
(-0.301976 -0.0846709 0)
(-0.309188 -0.0722272 0)
(-0.315203 -0.0599845 0)
(-0.320087 -0.0479306 0)
(-0.3239 -0.0360267 0)
(-0.326685 -0.0242135 0)
(-0.328472 -0.0124169 0)
(-0.329273 -0.000554497 0)
(-0.329085 0.0114601 0)
(-0.327888 0.023711 0)
(-0.325645 0.0362745 0)
(-0.322301 0.0492127 0)
(-0.317782 0.062566 0)
(-0.312001 0.0763455 0)
(-0.304854 0.0905233 0)
(-0.296225 0.105022 0)
(-0.285993 0.119705 0)
(-0.274034 0.134362 0)
(-0.260234 0.148699 0)
(-0.244504 0.162326 0)
(-0.226791 0.174751 0)
(-0.207109 0.185373 0)
(-0.185555 0.19349 0)
(-0.162349 0.198308 0)
(-0.137854 0.198969 0)
(-0.112613 0.194593 0)
(-0.0873688 0.184332 0)
(-0.0630721 0.167441 0)
(-0.040852 0.143352 0)
(-0.021943 0.111749 0)
(-0.00793674 0.0726228 0)
(-0.00119928 0.0263346 0)
(-0.00105794 -0.022042 0)
(-0.00701336 -0.0601262 0)
(-0.0194435 -0.0919552 0)
(-0.0363512 -0.117538 0)
(-0.0564386 -0.137104 0)
(-0.0787194 -0.151056 0)
(-0.102277 -0.159922 0)
(-0.126319 -0.16431 0)
(-0.150198 -0.164869 0)
(-0.173409 -0.162243 0)
(-0.195574 -0.157046 0)
(-0.216425 -0.149841 0)
(-0.235788 -0.141125 0)
(-0.253562 -0.131325 0)
(-0.269704 -0.120794 0)
(-0.284214 -0.109819 0)
(-0.297123 -0.0986161 0)
(-0.308479 -0.0873474 0)
(-0.318342 -0.0761215 0)
(-0.326775 -0.0650029 0)
(-0.33384 -0.054019 0)
(-0.339594 -0.0431665 0)
(-0.344081 -0.0324181 0)
(-0.347339 -0.0217274 0)
(-0.349389 -0.0110354 0)
(-0.350239 -0.000274843 0)
(-0.349881 0.0106243 0)
(-0.348294 0.0217297 0)
(-0.345438 0.0331012 0)
(-0.34126 0.0447845 0)
(-0.335691 0.0568053 0)
(-0.328652 0.0691613 0)
(-0.320052 0.0818143 0)
(-0.309796 0.0946817 0)
(-0.29779 0.107627 0)
(-0.283948 0.120449 0)
(-0.268203 0.132875 0)
(-0.25052 0.144554 0)
(-0.230915 0.155048 0)
(-0.209471 0.163835 0)
(-0.186361 0.170316 0)
(-0.161876 0.173826 0)
(-0.136439 0.173662 0)
(-0.110631 0.169118 0)
(-0.0852007 0.159528 0)
(-0.0610669 0.144324 0)
(-0.0392813 0.123092 0)
(-0.0209603 0.0956226 0)
(-0.00752802 0.0619483 0)
(-0.0011243 0.0223932 0)
(-0.00102561 -0.0185054 0)
(-0.00683719 -0.0505484 0)
(-0.0190269 -0.0774335 0)
(-0.0357098 -0.0991704 0)
(-0.0556755 -0.115938 0)
(-0.0780015 -0.128047 0)
(-0.101815 -0.135911 0)
(-0.126343 -0.140011 0)
(-0.150938 -0.140863 0)
(-0.175077 -0.138987 0)
(-0.198351 -0.134882 0)
(-0.220453 -0.129013 0)
(-0.241166 -0.121795 0)
(-0.260348 -0.113587 0)
(-0.277914 -0.104692 0)
(-0.293827 -0.0953555 0)
(-0.308085 -0.0857691 0)
(-0.320708 -0.0760761 0)
(-0.33173 -0.0663758 0)
(-0.341197 -0.0567297 0)
(-0.349153 -0.0471672 0)
(-0.355642 -0.0376909 0)
(-0.360698 -0.0282824 0)
(-0.36435 -0.0189067 0)
(-0.366612 -0.00951761 0)
(-0.367488 -6.19903e-05 0)
(-0.366966 0.00951563 0)
(-0.365021 0.019268 0)
(-0.361616 0.0292407 0)
(-0.356699 0.0394661 0)
(-0.350206 0.0499585 0)
(-0.342068 0.060707 0)
(-0.33221 0.0716688 0)
(-0.320556 0.0827623 0)
(-0.307039 0.093859 0)
(-0.291607 0.104777 0)
(-0.274237 0.115273 0)
(-0.254942 0.12504 0)
(-0.233795 0.133703 0)
(-0.210939 0.140821 0)
(-0.186605 0.145895 0)
(-0.161139 0.148384 0)
(-0.135007 0.147722 0)
(-0.108812 0.14335 0)
(-0.0833011 0.134756 0)
(-0.0593585 0.121511 0)
(-0.0379685 0.103314 0)
(-0.0201503 0.08003 0)
(-0.00719477 0.051714 0)
(-0.00106388 0.0186451 0)
(-0.00100154 -0.015048 0)
(-0.00670525 -0.0411483 0)
(-0.0187133 -0.063114 0)
(-0.0352243 -0.0809548 0)
(-0.0550937 -0.0948076 0)
(-0.0774492 -0.10491 0)
(-0.101453 -0.11158 0)
(-0.12635 -0.115188 0)
(-0.151496 -0.116136 0)
(-0.176356 -0.114832 0)
(-0.200499 -0.111672 0)
(-0.223589 -0.107027 0)
(-0.245378 -0.101232 0)
(-0.265688 -0.0945785 0)
(-0.284403 -0.0873163 0)
(-0.301454 -0.0796489 0)
(-0.31681 -0.0717374 0)
(-0.330468 -0.0637034 0)
(-0.342443 -0.0556329 0)
(-0.352759 -0.0475809 0)
(-0.361447 -0.0395755 0)
(-0.368539 -0.0316228 0)
(-0.374061 -0.0237109 0)
(-0.378031 -0.0158143 0)
(-0.380459 -0.00789806 0)
(-0.381343 7.85789e-05 0)
(-0.38067 0.00815805 0)
(-0.378412 0.0163803 0)
(-0.374532 0.0247785 0)
(-0.368982 0.0333751 0)
(-0.361705 0.0421759 0)
(-0.352641 0.0511659 0)
(-0.341727 0.0603029 0)
(-0.328908 0.0695119 0)
(-0.314142 0.0786795 0)
(-0.297407 0.0876483 0)
(-0.278715 0.0962124 0)
(-0.258125 0.104114 0)
(-0.235752 0.111045 0)
(-0.211787 0.116645 0)
(-0.186511 0.120515 0)
(-0.160306 0.122225 0)
(-0.13367 0.121332 0)
(-0.107219 0.117408 0)
(-0.0816921 0.110063 0)
(-0.057942 0.0989822 0)
(-0.036896 0.0839503 0)
(-0.0194957 0.0648826 0)
(-0.00692779 0.0418397 0)
(-0.00101593 0.0150532 0)
(-0.000984021 -0.0116495 0)
(-0.00660874 -0.0318808 0)
(-0.0184831 -0.0489462 0)
(-0.0348664 -0.0628548 0)
(-0.0546628 -0.0737082 0)
(-0.0770376 -0.0816818 0)
(-0.10118 -0.0870101 0)
(-0.126352 -0.0899691 0)
(-0.15191 -0.0908586 0)
(-0.177314 -0.0899856 0)
(-0.202117 -0.0876503 0)
(-0.225964 -0.0841353 0)
(-0.248581 -0.0796976 0)
(-0.269764 -0.0745639 0)
(-0.289372 -0.0689278 0)
(-0.307311 -0.0629492 0)
(-0.323529 -0.0567559 0)
(-0.338 -0.0504451 0)
(-0.350724 -0.0440866 0)
(-0.36171 -0.0377259 0)
(-0.370977 -0.0313874 0)
(-0.378545 -0.0250782 0)
(-0.384431 -0.0187913 0)
(-0.388649 -0.0125089 0)
(-0.391202 -0.00620559 0)
(-0.392084 0.000148481 0)
(-0.391279 0.00658421 0)
(-0.38876 0.0131306 0)
(-0.38449 0.0198109 0)
(-0.378424 0.0266396 0)
(-0.37051 0.0336177 0)
(-0.360698 0.0407294 0)
(-0.348937 0.0479374 0)
(-0.335189 0.0551784 0)
(-0.319431 0.062359 0)
(-0.30167 0.0693518 0)
(-0.281945 0.0759924 0)
(-0.26035 0.0820776 0)
(-0.237036 0.0873656 0)
(-0.212231 0.0915795 0)
(-0.186249 0.0944128 0)
(-0.159504 0.0955401 0)
(-0.132512 0.094631 0)
(-0.105897 0.0913683 0)
(-0.0803892 0.0854687 0)
(-0.056813 0.0767058 0)
(-0.036051 0.0649318 0)
(-0.0189842 0.0500953 0)
(-0.00672058 0.0322524 0)
(-0.000978997 0.0115846 0)
(-0.000971823 -0.00829308 0)
(-0.00654134 -0.0227085 0)
(-0.0183219 -0.0348882 0)
(-0.034615 -0.0448394 0)
(-0.0543593 -0.0526324 0)
(-0.0767465 -0.0583876 0)
(-0.100987 -0.0622665 0)
(-0.126352 -0.0644597 0)
(-0.152204 -0.0651749 0)
(-0.177998 -0.064626 0)
(-0.203277 -0.0630231 0)
(-0.227672 -0.0605648 0)
(-0.25089 -0.0574331 0)
(-0.272711 -0.0537889 0)
(-0.292973 -0.0497706 0)
(-0.311565 -0.0454932 0)
(-0.328417 -0.0410491 0)
(-0.34349 -0.036509 0)
(-0.356768 -0.0319243 0)
(-0.368251 -0.0273289 0)
(-0.377946 -0.0227417 0)
(-0.385866 -0.018169 0)
(-0.392022 -0.0136071 0)
(-0.39642 -0.00904427 0)
(-0.399062 -0.00446339 0)
(-0.399937 0.000155732 0)
(-0.399028 0.0048341 0)
(-0.396306 0.00959115 0)
(-0.391737 0.0144422 0)
(-0.385278 0.0193957 0)
(-0.376882 0.0244506 0)
(-0.366506 0.0295934 0)
(-0.354109 0.034795 0)
(-0.339666 0.0400074 0)
(-0.323171 0.0451613 0)
(-0.304649 0.0501632 0)
(-0.284165 0.0548933 0)
(-0.261835 0.0592051 0)
(-0.237838 0.0629257 0)
(-0.21243 0.0658583 0)
(-0.185949 0.067787 0)
(-0.158827 0.0684845 0)
(-0.131595 0.0677216 0)
(-0.10488 0.0652807 0)
(-0.0794034 0.0609693 0)
(-0.0559687 0.0546359 0)
(-0.0354241 0.0461844 0)
(-0.0186072 0.0355855 0)
(-0.00656861 0.0228838 0)
(-0.000952063 0.00820953 0)
(-0.000964117 -0.00496501 0)
(-0.00649866 -0.0136005 0)
(-0.0182196 -0.0209044 0)
(-0.0344553 -0.0268815 0)
(-0.054166 -0.0315729 0)
(-0.0765609 -0.0350494 0)
(-0.100863 -0.0374053 0)
(-0.126352 -0.0387524 0)
(-0.152393 -0.0392131 0)
(-0.178439 -0.0389133 0)
(-0.204027 -0.0379774 0)
(-0.228777 -0.0365234 0)
(-0.252387 -0.0346597 0)
(-0.274625 -0.0324825 0)
(-0.295315 -0.0300748 0)
(-0.314336 -0.0275059 0)
(-0.331606 -0.0248315 0)
(-0.347075 -0.0220948 0)
(-0.360719 -0.019327 0)
(-0.372529 -0.0165491 0)
(-0.382507 -0.013773 0)
(-0.390659 -0.0110031 0)
(-0.396992 -0.00823743 0)
(-0.401509 -0.00546953 0)
(-0.404207 -0.00268958 0)
(-0.405075 0.000114139 0)
(-0.404093 0.00295376 0)
(-0.401234 0.00584041 0)
(-0.396463 0.0087827 0)
(-0.389739 0.011785 0)
(-0.38102 0.014846 0)
(-0.370266 0.0179566 0)
(-0.357444 0.0210984 0)
(-0.342539 0.0242414 0)
(-0.325556 0.0273432 0)
(-0.306532 0.0303465 0)
(-0.285549 0.0331786 0)
(-0.262738 0.0357512 0)
(-0.238298 0.0379605 0)
(-0.2125 0.0396888 0)
(-0.185699 0.0408079 0)
(-0.15834 0.0411835 0)
(-0.130961 0.0406808 0)
(-0.10419 0.0391727 0)
(-0.0787422 0.0365478 0)
(-0.0554068 0.0327189 0)
(-0.0350094 0.0276322 0)
(-0.0183589 0.0212728 0)
(-0.00646884 0.0136692 0)
(-0.00093445 0.00489987 0)
(-0.000960388 -0.00165322 0)
(-0.00647799 -0.00452945 0)
(-0.0181701 -0.00696342 0)
(-0.0343778 -0.00895681 0)
(-0.0540721 -0.0105232 0)
(-0.0764706 -0.0116858 0)
(-0.100803 -0.0124758 0)
(-0.126352 -0.01293 0)
(-0.152486 -0.0130888 0)
(-0.178655 -0.0129937 0)
(-0.204394 -0.0126861 0)
(-0.229319 -0.0122049 0)
(-0.253123 -0.0115863 0)
(-0.275566 -0.0108621 0)
(-0.296469 -0.0100601 0)
(-0.315702 -0.00920343 0)