/*--------------------------------*- C++ -*----------------------------------*\
  =========                 |
  \\      /  F ield         | OpenFOAM: The Open Source CFD Toolbox
   \\    /   O peration     | Website:  https://openfoam.org
    \\  /    A nd           | Version:  7
     \\/     M anipulation  |
\*---------------------------------------------------------------------------*/
FoamFile
{
    version     2.0;
    format      ascii;
    class       volScalarField;
    location    "0.0422";
    object      p;
}
// * * * * * * * * * * * * * * * * * * * * * * * * * * * * * * * * * * * * * //

dimensions      [0 2 -2 0 0 0 0];

internalField   nonuniform List<scalar> 
2500
(
-2.19276e-05
6.3852
9.05021
10.1464
10.7398
11.0903
11.3055
11.4471
11.5466
11.6198
11.6758
11.7201
11.7563
11.7866
11.8129
11.8364
11.8579
11.8781
11.8974
11.9163
11.935
11.9538
11.9728
11.9921
12.0119
12.0324
12.0536
12.0756
12.0988
12.1231
12.149
12.1766
12.2063
12.2387
12.2743
12.3139
12.3585
12.4095
12.4687
12.5388
12.6234
12.7285
12.8633
13.0444
13.3037
13.7053
14.3656
15.5567
18.3378
24.8472
4.86797
7.46777
8.88583
9.76994
10.3744
10.7817
11.0577
11.2507
11.3903
11.4943
11.574
11.6367
11.6875
11.7296
11.7655
11.7969
11.825
11.8508
11.8749
11.8979
11.9203
11.9423
11.9642
11.9863
12.0087
12.0316
12.0554
12.08
12.1059
12.1333
12.1624
12.1938
12.2278
12.2652
12.3068
12.3535
12.4069
12.4686
12.5413
12.6285
12.7353
12.8693
13.0423
13.2727
13.5909
14.0473
14.7115
15.6681
17.1718
19.8892
7.70322
8.46708
9.21068
9.83481
10.3221
10.6852
10.953
11.1521
11.3025
11.4179
11.5083
11.5805
11.6395
11.6887
11.7307
11.7673
11.7999
11.8296
11.8572
11.8832
11.9083
11.9327
11.9569
11.981
12.0054
12.0303
12.056
12.0826
12.1106
12.1401
12.1716
12.2056
12.2427
12.2835
12.329
12.3803
12.4389
12.5069
12.5869
12.6825
12.7988
12.943
13.1251
13.3595
13.6664
14.0736
14.6109
15.2891
16.0871
16.9158
9.11126
9.28885
9.66883
10.0709
10.4213
10.708
10.937
11.1182
11.2617
11.3761
11.4682
11.5436
11.6062
11.659
11.7045
11.7444
11.78
11.8125
11.8425
11.8709
11.898
11.9243
11.9503
11.9761
12.0021
12.0286
12.0558
12.084
12.1135
12.1447
12.178
12.2139
12.253
12.2961
12.344
12.3979
12.4594
12.5302
12.6129
12.7107
12.8277
12.9693
13.1427
13.3566
13.621
13.9459
14.3364
14.7786
15.194
15.4025
9.92168
9.9021
10.0791
10.3238
10.5643
10.7801
10.9656
11.1211
11.2502
11.357
11.4458
11.5203
11.5834
11.6375
11.6847
11.7264
11.764
11.7983
11.8302
11.8602
11.889
11.9169
11.9443
11.9715
11.9989
12.0266
12.0551
12.0846
12.1154
12.1479
12.1825
12.2198
12.2604
12.3048
12.3542
12.4095
12.472
12.5435
12.6259
12.7218
12.8343
12.9671
13.1242
13.3097
13.5266
13.7751
14.0473
14.3211
14.5206
14.5134
10.4311
10.347
10.4171
10.5602
10.7204
10.8777
11.0224
11.1506
11.2619
11.3575
11.4395
11.51
11.5711
11.6245
11.6717
11.714
11.7524
11.7877
11.8207
11.8519
11.8818
11.9108
11.9393
11.9676
11.996
12.0248
12.0542
12.0847
12.1164
12.1499
12.1854
12.2236
12.2649
12.3101
12.3599
12.4153
12.4774
12.5476
12.6274
12.7187
12.8234
12.9436
13.0811
13.2367
13.4094
13.594
13.7793
13.9433
14.0267
13.9443
10.7699
10.6736
10.6904
10.7703
10.8741
10.9856
11.0954
11.1978
11.2907
11.3734
11.4466
11.5113
11.5686
11.6197
11.6655
11.7072
11.7455
11.781
11.8144
11.8461
11.8767
11.9064
11.9356
11.9646
11.9937
12.0232
12.0534
12.0845
12.1169
12.1509
12.187
12.2255
12.2671
12.3122
12.3616
12.4161
12.4766
12.5441
12.6197
12.7045
12.7995
12.9056
13.023
13.1505
13.2848
13.4192
13.5428
13.6376
13.6615
13.5611
11.0101
10.9193
10.9101
10.9513
11.0165
11.0937
11.1751
11.255
11.3306
11.4005
11.4642
11.522
11.5744
11.622
11.6656
11.7057
11.743
11.7781
11.8113
11.843
11.8738
11.9038
11.9334
11.9628
11.9924
12.0223
12.0529
12.0844
12.1171
12.1514
12.1876
12.2261
12.2673
12.3119
12.3603
12.4131
12.4711
12.535
12.6053
12.6826
12.7674
12.8594
12.9578
13.0604
13.1633
13.2597
13.3403
13.392
13.3859
13.2881
11.1903
11.1092
11.0876
11.1053
11.1443
11.1965
11.2556
11.3168
11.3772
11.435
11.4893
11.5399
11.5868
11.6304
11.671
11.709
11.7448
11.7787
11.8112
11.8426
11.8731
11.9031
11.9327
11.9623
11.992
12.0221
12.0528
12.0844
12.1172
12.1515
12.1875
12.2256
12.2662
12.3097
12.3566
12.4073
12.4622
12.5218
12.5864
12.6561
12.7306
12.8094
12.8908
12.9726
13.0504
13.1185
13.1695
13.1944
13.1733
13.0839
11.3315
11.2598
11.2327
11.2361
11.2575
11.2915
11.3335
11.3795
11.4269
11.4739
11.5195
11.5631
11.6045
11.6437
11.6809
11.7163
11.7502
11.7827
11.8141
11.8447
11.8747
11.9042
11.9336
11.963
11.9927
12.0227
12.0534
12.0849
12.1175
12.1514
12.187
12.2245
12.2641
12.3063
12.3513
12.3995
12.4511
12.5062
12.5649
12.627
12.6919
12.7587
12.8256
12.89
12.9483
12.9955
13.0262
13.0343
13.0058
12.9253
11.4458
11.3821
11.3527
11.3474
11.3569
11.3779
11.4068
11.4408
11.4774
11.5151
11.5528
11.5898
11.6259
11.6607
11.6944
11.727
11.7586
11.7894
11.8194
11.849
11.8781
11.9071
11.936
11.9651
11.9944
12.0242
12.0546
12.0858
12.118
12.1515
12.1864
12.223
12.2615
12.3021
12.345
12.3905
12.4385
12.4891
12.5422
12.5971
12.6533
12.7095
12.764
12.8143
12.8574
12.8892
12.9059
12.9034
12.8716
12.7991
11.5406
11.4832
11.4533
11.4425
11.444
11.4556
11.4747
11.4991
11.5269
11.5567
11.5875
11.6187
11.6497
11.6804
11.7106
11.7403
11.7695
11.7984
11.8269
11.8552
11.8833
11.9115
11.9398
11.9682
11.9971
12.0264
12.0564
12.0872
12.1189
12.1517
12.1858
12.2214
12.2585
12.2975
12.3382
12.3809
12.4254
12.4717
12.5193
12.5676
12.616
12.663
12.7071
12.7461
12.7774
12.7979
12.8047
12.7955
12.7625
12.6967
11.6204
11.5681
11.5383
11.5242
11.5202
11.525
11.5368
11.5537
11.5744
11.5976
11.6225
11.6484
11.6749
11.7016
11.7285
11.7554
11.7823
11.8091
11.836
11.8629
11.89
11.9172
11.9446
11.9724
12.0007
12.0294
12.0589
12.0891
12.1201
12.1522
12.1854
12.2198
12.2556
12.2927
12.3312
12.3711
12.4123
12.4544
12.4969
12.5394
12.5808
12.62
12.6555
12.6854
12.7075
12.7196
12.7196
12.706
12.6728
12.6126
11.6885
11.6402
11.6108
11.5946
11.5869
11.5867
11.5929
11.6041
11.6191
11.6368
11.6567
11.678
11.7005
11.7237
11.7474
11.7717
11.7962
11.8211
11.8463
11.8718
11.8976
11.9238
11.9504
11.9774
12.0049
12.0331
12.0618
12.0914
12.1217
12.1529
12.1851
12.2184
12.2527
12.288
12.3244
12.3616
12.3995
12.4377
12.4758
12.5129
12.5484
12.5809
12.6092
12.6318
12.6468
12.6526
12.6477
12.6313
12.5985
12.543
11.7469
11.7017
11.673
11.6554
11.6451
11.6413
11.6433
11.65
11.6604
11.6738
11.6894
11.7069
11.7258
11.7458
11.7667
11.7884
11.8108
11.8338
11.8573
11.8814
11.906
11.9311
11.9567
11.9829
12.0097
12.0371
12.0652
12.094
12.1235
12.1539
12.1851
12.2171
12.25
12.2836
12.3178
12.3526
12.3874
12.4221
12.4561
12.4886
12.5188
12.5457
12.5682
12.5848
12.5944
12.5954
12.587
12.5688
12.5368
12.4851
11.7972
11.7544
11.7263
11.7079
11.6958
11.6894
11.6882
11.6914
11.6982
11.7079
11.7201
11.7343
11.7501
11.7673
11.7857
11.8052
11.8255
11.8467
11.8687
11.8914
11.9148
11.9388
11.9635
11.9888
12.0148
12.0415
12.0688
12.0968
12.1256
12.1551
12.1852
12.2161
12.2475
12.2795
12.3117
12.3441
12.3762
12.4077
12.4381
12.4665
12.4923
12.5145
12.5321
12.544
12.5492
12.5467
12.5358
12.5165
12.4852
12.4368
11.8405
11.7997
11.7721
11.7532
11.7397
11.7314
11.7279
11.7283
11.7323
11.7391
11.7484
11.7598
11.773
11.7878
11.804
11.8214
11.8399
11.8595
11.88
11.9013
11.9235
11.9465
11.9703
11.9948
12.02
12.0459
12.0725
12.0998
12.1278
12.1563
12.1855
12.2152
12.2453
12.2757
12.3062
12.3364
12.3661
12.3947
12.4218
12.4468
12.4688
12.4871
12.5007
12.5089
12.5107
12.5054
12.4928
12.4728
12.4423
12.3966
11.8776
11.8383
11.8112
11.7919
11.7776
11.7678
11.7625
11.7608
11.7625
11.767
11.7739
11.7831
11.7941
11.8068
11.8211
11.8367
11.8536
11.8717
11.8908
11.911
11.9321
11.9541
11.977
12.0006
12.0251
12.0503
12.0762
12.1027
12.1299
12.1577
12.1859
12.2146
12.2434
12.2724
12.3012
12.3295
12.3569
12.3831
12.4075
12.4294
12.4483
12.4633
12.4737
12.4788
12.478
12.4707
12.4567
12.4363
12.4066
12.3633
11.9091
11.8709
11.8443
11.8248
11.8098
11.799
11.7922
11.789
11.7889
11.7915
11.7966
11.8038
11.813
11.824
11.8366
11.8507
11.8662
11.883
11.9009
11.92
11.9401
11.9612
11.9833
12.0062
12.0299
12.0545
12.0797
12.1056
12.132
12.159
12.1864
12.2141
12.2418
12.2695
12.2968
12.3234
12.3489
12.373
12.395
12.4144
12.4306
12.4429
12.4508
12.4535
12.4506
12.4417
12.4268
12.4062
12.3772
12.3358
11.9355
11.8982
11.8719
11.8523
11.8368
11.8252
11.8174
11.8129
11.8114
11.8126
11.8162
11.8219
11.8296
11.8392
11.8504
11.8632
11.8775
11.8931
11.91
11.9282
11.9474
11.9677
11.989
12.0113
12.0344
12.0583
12.0829
12.1082
12.134
12.1603
12.1869
12.2137
12.2405
12.267
12.293
12.3182
12.3421
12.3643
12.3844
12.4017
12.4157
12.4259
12.4316
12.4325
12.428
12.4179
12.4023
12.3816
12.3533
12.3135
11.957
11.9204
11.8943
11.8747
11.8589
11.8468
11.8382
11.8327
11.8302
11.8302
11.8326
11.8371
11.8437
11.852
11.8622
11.8739
11.8872
11.9019
11.9179
11.9352
11.9538
11.9734
11.9941
12.0157
12.0383
12.0616
12.0857
12.1105
12.1357
12.1614
12.1874
12.2134
12.2394
12.2649
12.2899
12.3138
12.3364
12.3571
12.3756
12.3912
12.4035
12.412
12.4161
12.4154
12.4097
12.3988
12.3827
12.3619
12.3342
12.2957
11.9739
11.9379
11.912
11.8924
11.8763
11.8638
11.8546
11.8485
11.8451
11.8443
11.8458
11.8494
11.855
11.8625
11.8718
11.8827
11.8951
11.9091
11.9244
11.9411
11.959
11.9781
11.9983
12.0194
12.0415
12.0644
12.0881
12.1124
12.1372
12.1624
12.1878
12.2132
12.2385
12.2633
12.2874
12.3104
12.3318
12.3514
12.3686
12.3829
12.3939
12.401
12.4039
12.4021
12.3955
12.3839
12.3675
12.3467
12.3194
12.282
11.9865
11.9508
11.9251
11.9055
11.8892
11.8764
11.8668
11.8602
11.8563
11.8549
11.8557
11.8587
11.8636
11.8705
11.8791
11.8893
11.9012
11.9146
11.9294
11.9456
11.9631
11.9817
12.0015
12.0223
12.044
12.0666
12.0899
12.1139
12.1383
12.1631
12.1881
12.2131
12.2378
12.2621
12.2855
12.3077
12.3284
12.3471
12.3634
12.3767
12.3867
12.3929
12.3948
12.3923
12.3851
12.373
12.3564
12.3356
12.3086
12.272
11.9948
11.9594
11.9338
11.9141
11.8978
11.8848
11.8749
11.868
11.8638
11.8619
11.8624
11.8649
11.8694
11.8758
11.884
11.8938
11.9053
11.9183
11.9328
11.9487
11.9658
11.9842
12.0037
12.0242
12.0457
12.0681
12.0912
12.1149
12.1391
12.1636
12.1883
12.213
12.2374
12.2613
12.2842
12.306
12.3262
12.3443
12.3599
12.3727
12.382
12.3875
12.3889
12.3858
12.3782
12.3659
12.3491
12.3284
12.3016
12.2654
11.9989
11.9636
11.9381
11.9184
11.902
11.8889
11.879
11.8719
11.8675
11.8655
11.8657
11.868
11.8723
11.8785
11.8864
11.8961
11.9074
11.9202
11.9345
11.9502
11.9672
11.9854
12.0048
12.0252
12.0466
12.0688
12.0918
12.1154
12.1395
12.1639
12.1885
12.213
12.2372
12.2609
12.2836
12.3052
12.325
12.3429
12.3582
12.3706
12.3796
12.3849
12.3859
12.3826
12.3748
12.3623
12.3455
12.3248
12.2981
12.2622
11.9989
11.9636
11.9381
11.9184
11.902
11.8889
11.879
11.8719
11.8675
11.8655
11.8657
11.868
11.8723
11.8785
11.8864
11.8961
11.9074
11.9202
11.9345
11.9502
11.9672
11.9854
12.0048
12.0252
12.0466
12.0688
12.0918
12.1154
12.1395
12.1639
12.1885
12.213
12.2372
12.2609
12.2836
12.3052
12.325
12.3429
12.3582
12.3706
12.3796
12.3849
12.3859
12.3826
12.3748
12.3623
12.3455
12.3248
12.2981
12.2622
11.9948
11.9594
11.9338
11.9141
11.8978
11.8848
11.8749
11.868
11.8638
11.8619
11.8624
11.8649
11.8694
11.8758
11.884
11.8938
11.9053
11.9183
11.9328
11.9487
11.9658
11.9842
12.0037
12.0242
12.0457
12.0681
12.0912
12.1149
12.1391
12.1636
12.1883
12.213
12.2374
12.2613
12.2842
12.306
12.3262
12.3443
12.3599
12.3727
12.382
12.3875
12.3889
12.3858
12.3782
12.3659
12.3491
12.3284
12.3016
12.2654
11.9865
11.9508
11.9251
11.9055
11.8892
11.8764
11.8668
11.8602
11.8563
11.8549
11.8557
11.8587
11.8636
11.8705
11.8791
11.8893
11.9012
11.9146
11.9294
11.9456
11.9631
11.9817
12.0015
12.0223
12.044
12.0666
12.0899
12.1139
12.1383
12.1631
12.1881
12.2131
12.2378
12.2621
12.2855
12.3077
12.3284
12.3471
12.3634
12.3767
12.3867
12.3929
12.3948
12.3923
12.3851
12.373
12.3564
12.3356
12.3086
12.272
11.9739
11.9379
11.912
11.8924
11.8763
11.8638
11.8546
11.8485
11.8451
11.8443
11.8458
11.8494
11.855
11.8625
11.8718
11.8827
11.8951
11.9091
11.9244
11.9411
11.959
11.9781
11.9983
12.0194
12.0415
12.0644
12.0881
12.1124
12.1372
12.1624
12.1878
12.2132
12.2385
12.2633
12.2874
12.3104
12.3318
12.3514
12.3686
12.3829
12.3939
12.401
12.4039
12.4021
12.3955
12.3839
12.3675
12.3467
12.3194
12.282
11.957
11.9204
11.8944
11.8747
11.8589
11.8468
11.8382
11.8328
11.8302
11.8302
11.8326
11.8371
11.8437
11.852
11.8622
11.8739
11.8872
11.9019
11.9179
11.9352
11.9538
11.9734
11.9941
12.0157
12.0383
12.0616
12.0857
12.1105
12.1357
12.1614
12.1874
12.2134
12.2394
12.2649
12.2899
12.3138
12.3364
12.3571
12.3756
12.3912
12.4035
12.412
12.4161
12.4154
12.4097
12.3988
12.3827
12.3619
12.3342
12.2957
11.9355
11.8982
11.8719
11.8523
11.8368
11.8252
11.8174
11.813
11.8114
11.8126
11.8162
11.8219
11.8296
11.8392
11.8504
11.8632
11.8775
11.8931
11.91
11.9282
11.9474
11.9677
11.989
12.0113
12.0344
12.0583
12.0829
12.1082
12.134
12.1603
12.1869
12.2137
12.2405
12.267
12.293
12.3182
12.3421
12.3643
12.3844
12.4017
12.4157
12.4259
12.4316
12.4325
12.428
12.4179
12.4023
12.3816
12.3533
12.3135
11.9091
11.8709
11.8443
11.8248
11.8098
11.799
11.7922
11.789
11.7889
11.7915
11.7966
11.8038
11.813
11.824
11.8366
11.8507
11.8662
11.883
11.9009
11.92
11.9401
11.9612
11.9833
12.0062
12.0299
12.0545
12.0797
12.1056
12.132
12.159
12.1864
12.2141
12.2418
12.2695
12.2968
12.3234
12.3489
12.373
12.395
12.4144
12.4306
12.4429
12.4508
12.4535
12.4506
12.4417
12.4268
12.4062
12.3772
12.3358
11.8776
11.8383
11.8112
11.7919
11.7776
11.7678
11.7625
11.7608
11.7625
11.767
11.7739
11.7831
11.7941
11.8068
11.8211
11.8367
11.8536
11.8717
11.8908
11.911
11.9321
11.9541
11.977
12.0006
12.0251
12.0503
12.0762
12.1027
12.1299
12.1577
12.1859
12.2146
12.2434
12.2724
12.3012
12.3295
12.3569
12.3831
12.4075
12.4294
12.4483
12.4633
12.4737
12.4788
12.478
12.4707
12.4567
12.4363
12.4066
12.3633
11.8405
11.7997
11.7721
11.7532
11.7397
11.7314
11.7279
11.7283
11.7323
11.7391
11.7484
11.7598
11.773
11.7878
11.804
11.8214
11.8399
11.8595
11.88
11.9013
11.9235
11.9465
11.9703
11.9948
12.02
12.0459
12.0725
12.0998
12.1278
12.1563
12.1855
12.2152
12.2453
12.2757
12.3062
12.3364
12.3661
12.3947
12.4218
12.4468
12.4688
12.4871
12.5007
12.5089
12.5107
12.5054
12.4928
12.4728
12.4423
12.3966
11.7972
11.7544
11.7263
11.7079
11.6958
11.6894
11.6882
11.6914
11.6982
11.7079
11.7201
11.7343
11.7501
11.7673
11.7857
11.8052
11.8255
11.8467
11.8687
11.8914
11.9148
11.9388
11.9635
11.9888
12.0148
12.0415
12.0688
12.0968
12.1256
12.1551
12.1852
12.2161
12.2475
12.2795
12.3117
12.3441
12.3762
12.4077
12.4381
12.4665
12.4923
12.5145
12.5321
12.544
12.5492
12.5467
12.5358
12.5165
12.4852
12.4368
11.7469
11.7017
11.673
11.6554
11.6451
11.6413
11.6433
11.65
11.6604
11.6738
11.6894
11.7069
11.7258
11.7458
11.7667
11.7884
11.8108
11.8338
11.8574
11.8814
11.906
11.9311
11.9567
11.9829
12.0097
12.0371
12.0652
12.094
12.1235
12.1539
12.1851
12.2171
12.25
12.2836
12.3178
12.3526
12.3874
12.4221
12.4561
12.4886
12.5188
12.5457
12.5682
12.5848
12.5944
12.5954
12.587
12.5688
12.5368
12.4851
11.6885
11.6402
11.6108
11.5946
11.5869
11.5867
11.5929
11.6041
11.6191
11.6369
11.6567
11.6781
11.7005
11.7237
11.7474
11.7717
11.7962
11.8211
11.8463
11.8718
11.8976
11.9238
11.9504
11.9774
12.0049
12.0331
12.0618
12.0914
12.1217
12.1529
12.1851
12.2184
12.2527
12.288
12.3244
12.3616
12.3995
12.4377
12.4758
12.5129
12.5484
12.5809
12.6092
12.6318
12.6468
12.6526
12.6477
12.6313
12.5985
12.543
11.6204
11.5681
11.5383
11.5242
11.5202
11.525
11.5368
11.5537
11.5744
11.5976
11.6225
11.6484
11.6749
11.7016
11.7285
11.7554
11.7823
11.8091
11.836
11.8629
11.89
11.9172
11.9446
11.9724
12.0007
12.0294
12.0589
12.0891
12.1201
12.1522
12.1854
12.2198
12.2556
12.2927
12.3312
12.3711
12.4123
12.4544
12.4969
12.5394
12.5808
12.62
12.6555
12.6854
12.7075
12.7196
12.7196
12.706
12.6728
12.6126
11.5406
11.4833
11.4533
11.4425
11.444
11.4556
11.4747
11.4991
11.5269
11.5567
11.5875
11.6187
11.6497
11.6804
11.7106
11.7403
11.7695
11.7984
11.8269
11.8552
11.8833
11.9115
11.9398
11.9682
11.9971
12.0264
12.0564
12.0872
12.1189
12.1517
12.1858
12.2214
12.2585
12.2975
12.3382
12.3809
12.4254
12.4717
12.5193
12.5676
12.616
12.663
12.7071
12.7461
12.7774
12.7979
12.8047
12.7955
12.7625
12.6967
11.4458
11.3821
11.3527
11.3474
11.3569
11.3779
11.4068
11.4408
11.4774
11.5151
11.5528
11.5898
11.6259
11.6607
11.6944
11.727
11.7586
11.7894
11.8194
11.849
11.8781
11.9071
11.936
11.9651
11.9944
12.0242
12.0546
12.0858
12.118
12.1515
12.1864
12.223
12.2615
12.3021
12.345
12.3905
12.4385
12.4891
12.5422
12.5971
12.6533
12.7095
12.764
12.8143
12.8574
12.8892
12.9059
12.9034
12.8716
12.7991
11.3315
11.2598
11.2327
11.2361
11.2575
11.2915
11.3335
11.3795
11.4269
11.4739
11.5195
11.5631
11.6045
11.6437
11.6809
11.7163
11.7502
11.7827
11.8141
11.8447
11.8747
11.9042
11.9336
11.963
11.9927
12.0227
12.0534
12.0849
12.1175
12.1514
12.187
12.2245
12.2641
12.3063
12.3513
12.3995
12.4511
12.5062
12.5649
12.627
12.6919
12.7587
12.8256
12.89
12.9483
12.9955
13.0262
13.0343
13.0058
12.9253
11.1903
11.1092
11.0876
11.1054
11.1443
11.1965
11.2556
11.3168
11.3772
11.435
11.4893
11.5399
11.5869
11.6304
11.671
11.709
11.7448
11.7787
11.8112
11.8426
11.8731
11.9031
11.9327
11.9623
11.992
12.0221
12.0528
12.0844
12.1172
12.1515
12.1875
12.2256
12.2662
12.3097
12.3566
12.4073
12.4622
12.5218
12.5864
12.6561
12.7306
12.8094
12.8908
12.9725
13.0504
13.1185
13.1695
13.1944
13.1733
13.0839
11.0101
10.9193
10.9101
10.9514
11.0165
11.0937
11.1751
11.2551
11.3307
11.4005
11.4642
11.522
11.5744
11.622
11.6656
11.7057
11.743
11.7781
11.8113
11.843
11.8738
11.9038
11.9334
11.9628
11.9924
12.0223
12.0529
12.0844
12.1171
12.1514
12.1876
12.2261
12.2673
12.3119
12.3603
12.4131
12.4711
12.535
12.6053
12.6826
12.7674
12.8594
12.9578
13.0604
13.1633
13.2597
13.3403
13.392
13.3859
13.2881
10.77
10.6736
10.6904
10.7703
10.8741
10.9856
11.0954
11.1978
11.2907
11.3734
11.4466
11.5113
11.5686
11.6197
11.6656
11.7072
11.7455
11.781
11.8144
11.8461
11.8767
11.9064
11.9356
11.9646
11.9937
12.0232
12.0534
12.0845
12.1169
12.1509
12.187
12.2255
12.2671
12.3122
12.3616
12.4161
12.4766
12.5441
12.6197
12.7045
12.7995
12.9056
13.023
13.1505
13.2848
13.4192
13.5428
13.6376
13.6615
13.5611
10.4311
10.347
10.4171
10.5602
10.7204
10.8777
11.0224
11.1507
11.2619
11.3575
11.4395
11.51
11.5711
11.6245
11.6717
11.714
11.7524
11.7877
11.8207
11.8519
11.8818
11.9108
11.9393
11.9676
11.996
12.0248
12.0542
12.0847
12.1164
12.1499
12.1854
12.2236
12.2649
12.3101
12.3599
12.4153
12.4774
12.5476
12.6274
12.7187
12.8234
12.9436
13.0811
13.2367
13.4094
13.594
13.7793
13.9433
14.0267
13.9443
9.92169
9.90211
10.0791
10.3239
10.5643
10.7801
10.9656
11.1212
11.2502
11.357
11.4458
11.5203
11.5834
11.6375
11.6847
11.7264
11.764
11.7983
11.8302
11.8602
11.889
11.9169
11.9443
11.9715
11.9989
12.0266
12.0551
12.0846
12.1154
12.1479
12.1825
12.2198
12.2604
12.3048
12.3542
12.4095
12.472
12.5435
12.6259
12.7218
12.8343
12.9671
13.1242
13.3097
13.5266
13.7751
14.0473
14.3211
14.5206
14.5134
9.11127
9.28886
9.66884
10.0709
10.4214
10.708
10.937
11.1182
11.2617
11.3761
11.4683
11.5436
11.6062
11.659
11.7045
11.7444
11.78
11.8125
11.8425
11.8709
11.898
11.9243
11.9503
11.9761
12.0021
12.0286
12.0558
12.084
12.1135
12.1447
12.178
12.2139
12.253
12.2961
12.344
12.3979
12.4594
12.5302
12.6129
12.7107
12.8277
12.9693
13.1427
13.3566
13.621
13.9459
14.3364
14.7786
15.194
15.4025
7.70324
8.46709
9.21069
9.83482
10.3221
10.6853
10.953
11.1522
11.3025
11.4179
11.5083
11.5805
11.6395
11.6887
11.7307
11.7673
11.7999
11.8296
11.8572
11.8832
11.9083
11.9327
11.9569
11.981
12.0054
12.0303
12.056
12.0826
12.1106
12.1401
12.1716
12.2056
12.2427
12.2835
12.329
12.3803
12.4389
12.5069
12.5869
12.6825
12.7988
12.943
13.1251
13.3595
13.6664
14.0736
14.6109
15.2891
16.0871
16.9158
4.86799
7.46779
8.88585
9.76995
10.3744
10.7818
11.0577
11.2507
11.3903
11.4943
11.574
11.6367
11.6875
11.7296
11.7655
11.7969
11.825
11.8508
11.8749
11.8979
11.9203
11.9423
11.9642
11.9863
12.0087
12.0316
12.0554
12.08
12.1059
12.1333
12.1624
12.1938
12.2278
12.2652
12.3068
12.3535
12.4069
12.4686
12.5413
12.6285
12.7353
12.8693
13.0423
13.2727
13.5909
14.0473
14.7115
15.6681
17.1718
19.8892
-9.29335e-06
6.38522
9.05023
10.1464
10.7398
11.0903
11.3055
11.4471
11.5466
11.6198
11.6758
11.7201
11.7563
11.7866
11.8129
11.8364
11.8579
11.8781
11.8974
11.9163
11.935
11.9538
11.9728
11.9921
12.0119
12.0324
12.0536
12.0756
12.0988
12.1231
12.149
12.1766
12.2063
12.2387
12.2743
12.3139
12.3585
12.4095
12.4687
12.5388
12.6234
12.7285
12.8633
13.0444
13.3037
13.7053
14.3656
15.5567
18.3378
24.8472
)
;

boundaryField
{
    movingWallTop
    {
        type            zeroGradient;
    }
    movingWallBottom
    {
        type            zeroGradient;
    }
    fixedWalls
    {
        type            zeroGradient;
    }
    frontAndBack
    {
        type            empty;
    }
}


// ************************************************************************* //
