/*--------------------------------*- C++ -*----------------------------------*\
  =========                 |
  \\      /  F ield         | OpenFOAM: The Open Source CFD Toolbox
   \\    /   O peration     | Website:  https://openfoam.org
    \\  /    A nd           | Version:  7
     \\/     M anipulation  |
\*---------------------------------------------------------------------------*/
FoamFile
{
    version     2.0;
    format      ascii;
    class       volScalarField;
    location    "0.0442";
    object      p;
}
// * * * * * * * * * * * * * * * * * * * * * * * * * * * * * * * * * * * * * //

dimensions      [0 2 -2 0 0 0 0];

internalField   nonuniform List<scalar> 
2500
(
3.29958e-05
-6.51185
-9.29686
-10.4925
-11.1577
-11.5637
-11.8271
-12.0115
-12.149
-12.2558
-12.3412
-12.4111
-12.469
-12.5177
-12.5588
-12.5938
-12.6236
-12.6492
-12.6711
-12.6898
-12.7058
-12.7196
-12.7314
-12.7416
-12.7504
-12.7582
-12.7653
-12.7721
-12.7787
-12.7856
-12.7931
-12.8017
-12.8118
-12.8241
-12.8391
-12.8577
-12.8808
-12.9098
-12.9464
-12.9929
-13.0528
-13.1314
-13.2373
-13.3863
-13.6091
-13.9668
-14.5664
-15.6671
-18.3342
-24.719
-4.95552
-7.67543
-9.1821
-10.1421
-10.8098
-11.2697
-11.5911
-11.8243
-11.9995
-12.1351
-12.2426
-12.3297
-12.4013
-12.461
-12.5113
-12.554
-12.5904
-12.6218
-12.6488
-12.6722
-12.6926
-12.7103
-12.726
-12.7399
-12.7524
-12.7638
-12.7747
-12.7852
-12.7958
-12.8068
-12.8189
-12.8324
-12.8479
-12.8663
-12.8882
-12.9148
-12.9475
-12.988
-13.0387
-13.1029
-13.1856
-13.2938
-13.4387
-13.6377
-13.92
-14.3334
-14.9431
-15.8312
-17.2511
-19.8502
-7.92512
-8.75748
-9.55841
-10.2394
-10.7795
-11.1895
-11.4991
-11.7358
-11.9198
-12.0653
-12.1823
-12.2778
-12.3569
-12.4231
-12.4791
-12.5268
-12.5677
-12.603
-12.6337
-12.6604
-12.6839
-12.7046
-12.7231
-12.7397
-12.755
-12.7692
-12.7827
-12.7961
-12.8096
-12.8237
-12.839
-12.856
-12.8754
-12.8979
-12.9246
-12.9565
-12.9951
-13.0425
-13.1011
-13.1744
-13.2672
-13.3863
-13.5413
-13.7458
-14.0192
-14.3879
-14.8801
-15.5079
-16.2534
-17.0168
-9.43474
-9.64799
-10.067
-10.512
-10.9049
-11.2321
-11.4986
-11.7143
-11.8892
-12.032
-12.1496
-12.2472
-12.3292
-12.3985
-12.4575
-12.5083
-12.5521
-12.5901
-12.6233
-12.6525
-12.6784
-12.7013
-12.722
-12.7408
-12.7582
-12.7745
-12.7903
-12.8058
-12.8216
-12.8381
-12.8558
-12.8754
-12.8975
-12.923
-12.9527
-12.9879
-13.03
-13.0809
-13.1429
-13.2191
-13.3134
-13.4312
-13.5791
-13.7654
-14
-14.2921
-14.6474
-15.0532
-15.4353
-15.6131
-10.3204
-10.3197
-10.5235
-10.8003
-11.075
-11.3251
-11.5439
-11.7308
-11.8891
-12.0226
-12.1355
-12.2313
-12.313
-12.383
-12.4434
-12.4957
-12.5412
-12.5811
-12.6162
-12.6472
-12.6748
-12.6996
-12.7221
-12.7427
-12.7618
-12.7799
-12.7974
-12.8148
-12.8324
-12.8508
-12.8704
-12.892
-12.9161
-12.9435
-12.9753
-13.0124
-13.0562
-13.1083
-13.1708
-13.246
-13.337
-13.4472
-13.5806
-13.7413
-13.9324
-14.1537
-14.3992
-14.6479
-14.8276
-14.809
-10.8871
-10.8127
-10.9013
-11.0688
-11.2566
-11.443
-11.6171
-11.7738
-11.912
-12.0327
-12.1375
-12.2285
-12.3075
-12.3762
-12.4362
-12.4888
-12.535
-12.5758
-12.612
-12.6442
-12.6731
-12.6992
-12.723
-12.745
-12.7655
-12.7849
-12.8038
-12.8226
-12.8416
-12.8613
-12.8823
-12.9052
-12.9306
-12.9592
-12.9918
-13.0296
-13.0735
-13.125
-13.1855
-13.257
-13.3412
-13.4403
-13.5561
-13.6897
-13.8402
-14.0032
-14.1687
-14.3162
-14.3897
-14.3078
-11.2693
-11.178
-11.2081
-11.307
-11.4335
-11.5699
-11.7055
-11.8337
-11.9514
-12.0577
-12.1525
-12.2367
-12.3112
-12.3771
-12.4354
-12.4871
-12.533
-12.5739
-12.6105
-12.6433
-12.6729
-12.6998
-12.7245
-12.7474
-12.7689
-12.7893
-12.8092
-12.8289
-12.8488
-12.8694
-12.8913
-12.9148
-12.9408
-12.9697
-13.0024
-13.0397
-13.0824
-13.1317
-13.1887
-13.2545
-13.3303
-13.4168
-13.5145
-13.6226
-13.7384
-13.856
-13.9655
-14.0503
-14.0712
-13.9784
-11.5424
-11.4549
-11.4558
-11.5124
-11.5964
-11.6951
-11.7993
-11.9025
-12.001
-12.0928
-12.1769
-12.2533
-12.3222
-12.3842
-12.4398
-12.4897
-12.5346
-12.5749
-12.6112
-12.644
-12.6739
-12.7012
-12.7263
-12.7497
-12.7717
-12.7928
-12.8132
-12.8335
-12.8539
-12.875
-12.8972
-12.9209
-12.9468
-12.9754
-13.0074
-13.0433
-13.084
-13.1302
-13.1826
-13.2418
-13.3084
-13.3824
-13.4632
-13.5492
-13.6369
-13.7206
-13.7919
-13.8386
-13.8345
-13.7487
-11.7482
-11.67
-11.6567
-11.6872
-11.7423
-11.8131
-11.8924
-11.9747
-12.0561
-12.1343
-12.2078
-12.2761
-12.3389
-12.3962
-12.4485
-12.4959
-12.539
-12.5781
-12.6137
-12.646
-12.6757
-12.7029
-12.7281
-12.7516
-12.7739
-12.7951
-12.8158
-12.8363
-12.8568
-12.878
-12.9001
-12.9236
-12.9489
-12.9767
-13.0073
-13.0414
-13.0794
-13.1219
-13.1692
-13.2216
-13.2792
-13.3416
-13.4075
-13.4751
-13.541
-13.6
-13.6456
-13.6694
-13.6539
-13.5794
-11.9096
-11.8411
-11.8213
-11.8357
-11.8712
-11.9216
-11.9816
-12.0467
-12.1134
-12.1793
-12.2428
-12.3031
-12.3595
-12.412
-12.4604
-12.5049
-12.5458
-12.5832
-12.6175
-12.649
-12.678
-12.7048
-12.7297
-12.7531
-12.7752
-12.7963
-12.8169
-12.8372
-12.8576
-12.8785
-12.9001
-12.923
-12.9475
-12.974
-13.0029
-13.0347
-13.0697
-13.1082
-13.1504
-13.1962
-13.2455
-13.2974
-13.3508
-13.4035
-13.4526
-13.4939
-13.5225
-13.5327
-13.5127
-13.4493
-12.0399
-11.9802
-11.9578
-11.9623
-11.9844
-12.02
-12.0652
-12.1163
-12.1706
-12.2257
-12.2801
-12.3328
-12.383
-12.4304
-12.4747
-12.516
-12.5543
-12.5897
-12.6224
-12.6526
-12.6807
-12.7067
-12.731
-12.7539
-12.7756
-12.7963
-12.8165
-12.8365
-12.8564
-12.8766
-12.8976
-12.9195
-12.9428
-12.9678
-12.9948
-13.0241
-13.056
-13.0905
-13.1277
-13.1674
-13.2092
-13.2522
-13.2951
-13.3361
-13.3726
-13.4012
-13.4185
-13.4208
-13.3996
-13.3458
-12.1475
-12.0953
-12.0724
-12.0708
-12.0838
-12.1086
-12.1424
-12.1824
-12.2263
-12.2721
-12.3183
-12.3639
-12.4082
-12.4506
-12.4908
-12.5286
-12.5641
-12.5972
-12.628
-12.6568
-12.6835
-12.7085
-12.7319
-12.754
-12.775
-12.7952
-12.8148
-12.834
-12.8532
-12.8727
-12.8927
-12.9135
-12.9354
-12.9587
-12.9837
-13.0104
-13.0391
-13.0698
-13.1024
-13.1365
-13.1718
-13.2072
-13.2417
-13.2735
-13.3005
-13.3203
-13.3301
-13.3277
-13.3071
-13.2615
-12.2379
-12.192
-12.1697
-12.1645
-12.1712
-12.1881
-12.2132
-12.2444
-12.2797
-12.3175
-12.3565
-12.3958
-12.4344
-12.472
-12.508
-12.5424
-12.5749
-12.6055
-12.6343
-12.6612
-12.6865
-12.7102
-12.7325
-12.7536
-12.7737
-12.793
-12.8117
-12.8301
-12.8484
-12.8669
-12.8858
-12.9053
-12.9257
-12.9473
-12.9701
-12.9943
-13.0199
-13.047
-13.0754
-13.1047
-13.1343
-13.1635
-13.1911
-13.2158
-13.2358
-13.2492
-13.2543
-13.2494
-13.2301
-13.1913
-12.3149
-12.2745
-12.2532
-12.2458
-12.2483
-12.2595
-12.278
-12.3022
-12.3304
-12.3614
-12.3941
-12.4276
-12.4611
-12.494
-12.5261
-12.557
-12.5864
-12.6144
-12.6409
-12.6659
-12.6895
-12.7117
-12.7327
-12.7526
-12.7716
-12.7899
-12.8076
-12.825
-12.8423
-12.8596
-12.8772
-12.8954
-12.9142
-12.9339
-12.9546
-12.9763
-12.9992
-13.023
-13.0476
-13.0725
-13.0974
-13.1214
-13.1436
-13.1628
-13.1776
-13.1867
-13.1886
-13.1825
-13.1649
-13.1318
-12.3812
-12.3455
-12.3255
-12.3171
-12.3167
-12.3238
-12.3372
-12.3557
-12.3782
-12.4035
-12.4307
-12.459
-12.4877
-12.5164
-12.5446
-12.572
-12.5985
-12.6238
-12.648
-12.6709
-12.6926
-12.7132
-12.7327
-12.7513
-12.769
-12.7861
-12.8026
-12.8189
-12.8349
-12.851
-12.8673
-12.884
-12.9012
-12.9191
-12.9377
-12.9571
-12.9773
-12.9981
-13.0194
-13.0407
-13.0615
-13.0813
-13.0991
-13.1141
-13.1251
-13.1311
-13.1311
-13.1246
-13.1089
-13.0807
-12.4389
-12.4072
-12.3889
-12.38
-12.3777
-12.3818
-12.3913
-12.4054
-12.4231
-12.4435
-12.466
-12.4897
-12.5142
-12.5388
-12.5634
-12.5875
-12.611
-12.6336
-12.6553
-12.6761
-12.6958
-12.7147
-12.7326
-12.7496
-12.766
-12.7817
-12.797
-12.812
-12.8267
-12.8415
-12.8564
-12.8715
-12.8871
-12.9032
-12.9198
-12.937
-12.9548
-12.9729
-12.9912
-13.0093
-13.0268
-13.0431
-13.0575
-13.0693
-13.0775
-13.0814
-13.0803
-13.0739
-13.0601
-13.0361
-12.4894
-12.4615
-12.4448
-12.4358
-12.4325
-12.4343
-12.4409
-12.4514
-12.4653
-12.4816
-12.5
-12.5196
-12.5402
-12.5612
-12.5823
-12.6032
-12.6238
-12.6437
-12.663
-12.6815
-12.6993
-12.7162
-12.7324
-12.7479
-12.7628
-12.7771
-12.791
-12.8045
-12.8179
-12.8313
-12.8447
-12.8583
-12.8723
-12.8866
-12.9013
-12.9165
-12.932
-12.9477
-12.9634
-12.9787
-12.9934
-13.0069
-13.0185
-13.0278
-13.034
-13.0366
-13.0349
-13.029
-13.017
-12.9968
-12.5341
-12.5096
-12.4945
-12.4859
-12.4819
-12.4822
-12.4865
-12.4943
-12.5049
-12.5178
-12.5326
-12.5487
-12.5657
-12.5833
-12.6012
-12.6191
-12.6368
-12.6542
-12.671
-12.6873
-12.703
-12.718
-12.7324
-12.7462
-12.7595
-12.7723
-12.7847
-12.7968
-12.8088
-12.8207
-12.8326
-12.8447
-12.857
-12.8695
-12.8824
-12.8956
-12.909
-12.9225
-12.9359
-12.949
-12.9613
-12.9724
-12.9819
-12.9893
-12.994
-12.9957
-12.9939
-12.9886
-12.9785
-12.9617
-12.574
-12.5527
-12.5392
-12.5311
-12.5268
-12.5261
-12.5287
-12.5342
-12.5422
-12.5522
-12.5639
-12.5769
-12.5908
-12.6053
-12.6202
-12.6352
-12.6502
-12.665
-12.6794
-12.6935
-12.7071
-12.7201
-12.7327
-12.7448
-12.7564
-12.7676
-12.7785
-12.7891
-12.7995
-12.8099
-12.8203
-12.8308
-12.8414
-12.8523
-12.8634
-12.8747
-12.8862
-12.8977
-12.9091
-12.92
-12.9303
-12.9395
-12.9472
-12.9532
-12.9569
-12.958
-12.9564
-12.9519
-12.9436
-12.93
-12.6099
-12.5915
-12.5797
-12.5723
-12.568
-12.5666
-12.5679
-12.5717
-12.5775
-12.5851
-12.5941
-12.6043
-12.6153
-12.627
-12.6391
-12.6514
-12.6638
-12.6761
-12.6882
-12.7001
-12.7115
-12.7226
-12.7333
-12.7436
-12.7535
-12.7631
-12.7724
-12.7814
-12.7903
-12.7991
-12.8079
-12.8168
-12.8258
-12.835
-12.8444
-12.854
-12.8636
-12.8732
-12.8827
-12.8918
-12.9003
-12.9079
-12.9143
-12.9191
-12.9221
-12.923
-12.9216
-12.9181
-12.9115
-12.9008
-12.6424
-12.6269
-12.6167
-12.6102
-12.6061
-12.6043
-12.6047
-12.607
-12.611
-12.6165
-12.6232
-12.6309
-12.6394
-12.6485
-12.658
-12.6678
-12.6777
-12.6876
-12.6975
-12.7071
-12.7165
-12.7257
-12.7345
-12.7429
-12.7511
-12.759
-12.7666
-12.774
-12.7813
-12.7885
-12.7957
-12.803
-12.8104
-12.8179
-12.8256
-12.8334
-12.8412
-12.8491
-12.8569
-12.8643
-12.8713
-12.8774
-12.8826
-12.8866
-12.8891
-12.8899
-12.889
-12.8864
-12.8816
-12.8737
-12.6723
-12.6595
-12.651
-12.6454
-12.6416
-12.6396
-12.6393
-12.6405
-12.6431
-12.6467
-12.6514
-12.6569
-12.6631
-12.6698
-12.6769
-12.6843
-12.6919
-12.6995
-12.7072
-12.7147
-12.7221
-12.7292
-12.7362
-12.7428
-12.7492
-12.7554
-12.7613
-12.7671
-12.7727
-12.7783
-12.7838
-12.7894
-12.7951
-12.8009
-12.8069
-12.813
-12.8192
-12.8254
-12.8315
-12.8374
-12.8429
-12.8478
-12.852
-12.8553
-12.8574
-12.8583
-12.858
-12.8564
-12.8533
-12.8481
-12.7001
-12.6899
-12.6831
-12.6784
-12.6751
-12.6731
-12.6723
-12.6726
-12.6739
-12.676
-12.6789
-12.6824
-12.6864
-12.691
-12.6959
-12.701
-12.7064
-12.7119
-12.7174
-12.7229
-12.7282
-12.7334
-12.7385
-12.7433
-12.7479
-12.7524
-12.7566
-12.7606
-12.7646
-12.7685
-12.7723
-12.7762
-12.7802
-12.7843
-12.7885
-12.7929
-12.7974
-12.8019
-12.8064
-12.8109
-12.815
-12.8188
-12.8221
-12.8248
-12.8267
-12.8278
-12.828
-12.8275
-12.826
-12.8234
-12.7262
-12.7186
-12.7134
-12.7098
-12.707
-12.7051
-12.704
-12.7035
-12.7037
-12.7045
-12.7057
-12.7075
-12.7096
-12.7121
-12.7149
-12.718
-12.7212
-12.7246
-12.7281
-12.7316
-12.735
-12.7383
-12.7415
-12.7445
-12.7473
-12.75
-12.7525
-12.7548
-12.757
-12.7592
-12.7613
-12.7635
-12.7657
-12.768
-12.7704
-12.7731
-12.7758
-12.7787
-12.7816
-12.7846
-12.7875
-12.7902
-12.7926
-12.7948
-12.7965
-12.7978
-12.7987
-12.7992
-12.7994
-12.7994
-12.7512
-12.7461
-12.7426
-12.74
-12.7378
-12.7361
-12.7347
-12.7337
-12.7329
-12.7324
-12.7322
-12.7323
-12.7326
-12.7332
-12.7341
-12.7352
-12.7365
-12.7379
-12.7394
-12.7409
-12.7424
-12.7439
-12.7452
-12.7464
-12.7475
-12.7484
-12.7491
-12.7497
-12.7501
-12.7505
-12.7508
-12.7512
-12.7515
-12.752
-12.7527
-12.7535
-12.7544
-12.7556
-12.757
-12.7584
-12.76
-12.7616
-12.7632
-12.7648
-12.7664
-12.7679
-12.7695
-12.771
-12.7729
-12.7754
-12.7754
-12.7729
-12.771
-12.7695
-12.7679
-12.7664
-12.7649
-12.7633
-12.7616
-12.76
-12.7584
-12.757
-12.7556
-12.7545
-12.7535
-12.7527
-12.752
-12.7515
-12.7512
-12.7508
-12.7505
-12.7501
-12.7497
-12.7491
-12.7484
-12.7475
-12.7464
-12.7452
-12.7439
-12.7424
-12.7409
-12.7394
-12.7379
-12.7365
-12.7352
-12.7341
-12.7332
-12.7326
-12.7323
-12.7322
-12.7324
-12.7329
-12.7336
-12.7347
-12.7361
-12.7378
-12.74
-12.7426
-12.7461
-12.7512
-12.7994
-12.7994
-12.7992
-12.7987
-12.7978
-12.7965
-12.7948
-12.7926
-12.7902
-12.7875
-12.7846
-12.7816
-12.7787
-12.7758
-12.7731
-12.7704
-12.768
-12.7657
-12.7635
-12.7613
-12.7592
-12.757
-12.7548
-12.7525
-12.75
-12.7473
-12.7445
-12.7415
-12.7383
-12.735
-12.7316
-12.7281
-12.7246
-12.7212
-12.718
-12.7149
-12.7121
-12.7096
-12.7075
-12.7057
-12.7045
-12.7037
-12.7035
-12.704
-12.7051
-12.707
-12.7098
-12.7134
-12.7186
-12.7262
-12.8234
-12.826
-12.8275
-12.828
-12.8278
-12.8267
-12.8248
-12.8221
-12.8188
-12.815
-12.8109
-12.8064
-12.8019
-12.7974
-12.7929
-12.7885
-12.7843
-12.7802
-12.7762
-12.7723
-12.7685
-12.7646
-12.7606
-12.7566
-12.7524
-12.7479
-12.7433
-12.7385
-12.7334
-12.7282
-12.7228
-12.7174
-12.7119
-12.7064
-12.701
-12.6958
-12.691
-12.6864
-12.6824
-12.6789
-12.676
-12.6739
-12.6726
-12.6723
-12.6731
-12.6751
-12.6784
-12.6831
-12.6899
-12.7001
-12.8481
-12.8533
-12.8564
-12.858
-12.8583
-12.8574
-12.8553
-12.852
-12.8478
-12.8429
-12.8374
-12.8315
-12.8254
-12.8192
-12.813
-12.8069
-12.8009
-12.7951
-12.7894
-12.7838
-12.7783
-12.7727
-12.7671
-12.7613
-12.7554
-12.7492
-12.7428
-12.7362
-12.7292
-12.7221
-12.7147
-12.7072
-12.6995
-12.6919
-12.6843
-12.6769
-12.6698
-12.6631
-12.6569
-12.6514
-12.6467
-12.6431
-12.6405
-12.6393
-12.6396
-12.6416
-12.6454
-12.651
-12.6595
-12.6723
-12.8737
-12.8816
-12.8864
-12.889
-12.8899
-12.8891
-12.8866
-12.8826
-12.8775
-12.8713
-12.8643
-12.8569
-12.8491
-12.8412
-12.8334
-12.8256
-12.8179
-12.8104
-12.803
-12.7957
-12.7885
-12.7813
-12.774
-12.7666
-12.759
-12.7511
-12.7429
-12.7345
-12.7257
-12.7165
-12.7071
-12.6975
-12.6876
-12.6777
-12.6678
-12.658
-12.6485
-12.6394
-12.6309
-12.6232
-12.6165
-12.611
-12.607
-12.6047
-12.6043
-12.6061
-12.6102
-12.6167
-12.6269
-12.6424
-12.9008
-12.9115
-12.9181
-12.9216
-12.923
-12.9221
-12.9191
-12.9143
-12.9079
-12.9003
-12.8918
-12.8827
-12.8732
-12.8636
-12.854
-12.8444
-12.835
-12.8258
-12.8168
-12.8079
-12.7991
-12.7903
-12.7814
-12.7724
-12.7631
-12.7535
-12.7436
-12.7333
-12.7226
-12.7115
-12.7001
-12.6882
-12.6761
-12.6638
-12.6514
-12.6391
-12.627
-12.6153
-12.6042
-12.5941
-12.5851
-12.5775
-12.5717
-12.5679
-12.5666
-12.568
-12.5723
-12.5797
-12.5915
-12.6098
-12.93
-12.9436
-12.9519
-12.9564
-12.958
-12.9569
-12.9532
-12.9473
-12.9395
-12.9303
-12.92
-12.9091
-12.8977
-12.8862
-12.8747
-12.8634
-12.8523
-12.8414
-12.8308
-12.8203
-12.8099
-12.7995
-12.7891
-12.7785
-12.7676
-12.7564
-12.7448
-12.7327
-12.7201
-12.7071
-12.6935
-12.6794
-12.665
-12.6502
-12.6352
-12.6202
-12.6053
-12.5908
-12.5769
-12.5639
-12.5522
-12.5422
-12.5342
-12.5287
-12.5261
-12.5268
-12.5311
-12.5392
-12.5527
-12.574
-12.9617
-12.9785
-12.9886
-12.9939
-12.9957
-12.994
-12.9893
-12.9819
-12.9724
-12.9613
-12.949
-12.936
-12.9226
-12.909
-12.8956
-12.8824
-12.8695
-12.857
-12.8447
-12.8326
-12.8207
-12.8088
-12.7968
-12.7847
-12.7723
-12.7595
-12.7462
-12.7324
-12.718
-12.703
-12.6873
-12.671
-12.6542
-12.6368
-12.6191
-12.6012
-12.5833
-12.5657
-12.5487
-12.5326
-12.5178
-12.5049
-12.4943
-12.4865
-12.4822
-12.4819
-12.4859
-12.4945
-12.5096
-12.5341
-12.9969
-13.017
-13.029
-13.035
-13.0366
-13.034
-13.0278
-13.0186
-13.0069
-12.9934
-12.9787
-12.9634
-12.9477
-12.932
-12.9165
-12.9013
-12.8866
-12.8723
-12.8583
-12.8447
-12.8313
-12.8179
-12.8045
-12.791
-12.7771
-12.7628
-12.7479
-12.7324
-12.7162
-12.6993
-12.6815
-12.663
-12.6437
-12.6237
-12.6032
-12.5823
-12.5612
-12.5402
-12.5196
-12.4999
-12.4816
-12.4652
-12.4514
-12.4409
-12.4343
-12.4325
-12.4358
-12.4447
-12.4615
-12.4894
-13.0361
-13.0601
-13.0739
-13.0803
-13.0814
-13.0775
-13.0693
-13.0575
-13.0431
-13.0268
-13.0093
-12.9912
-12.9729
-12.9548
-12.937
-12.9198
-12.9032
-12.8871
-12.8715
-12.8564
-12.8415
-12.8267
-12.812
-12.797
-12.7817
-12.766
-12.7496
-12.7326
-12.7147
-12.6958
-12.6761
-12.6553
-12.6336
-12.611
-12.5875
-12.5634
-12.5388
-12.5141
-12.4897
-12.466
-12.4435
-12.4231
-12.4054
-12.3913
-12.3818
-12.3777
-12.3799
-12.3889
-12.4072
-12.4389
-13.0807
-13.1089
-13.1246
-13.1311
-13.1311
-13.1251
-13.1141
-13.0991
-13.0813
-13.0615
-13.0407
-13.0194
-12.9981
-12.9773
-12.9571
-12.9377
-12.9191
-12.9012
-12.884
-12.8673
-12.851
-12.8349
-12.8189
-12.8026
-12.7861
-12.769
-12.7513
-12.7327
-12.7132
-12.6926
-12.6709
-12.648
-12.6238
-12.5985
-12.572
-12.5446
-12.5164
-12.4877
-12.459
-12.4307
-12.4035
-12.3782
-12.3557
-12.3372
-12.3238
-12.3167
-12.3171
-12.3255
-12.3454
-12.3812
-13.1318
-13.1649
-13.1825
-13.1886
-13.1867
-13.1776
-13.1628
-13.1436
-13.1214
-13.0974
-13.0725
-13.0476
-13.023
-12.9992
-12.9763
-12.9546
-12.9339
-12.9142
-12.8954
-12.8772
-12.8596
-12.8423
-12.825
-12.8076
-12.7899
-12.7716
-12.7526
-12.7327
-12.7117
-12.6895
-12.6659
-12.6409
-12.6144
-12.5864
-12.5569
-12.5261
-12.494
-12.461
-12.4276
-12.3941
-12.3614
-12.3304
-12.3021
-12.278
-12.2595
-12.2483
-12.2458
-12.2531
-12.2744
-12.3149
-13.1913
-13.2301
-13.2494
-13.2543
-13.2492
-13.2358
-13.2158
-13.1911
-13.1635
-13.1343
-13.1047
-13.0754
-13.047
-13.0199
-12.9943
-12.9701
-12.9473
-12.9257
-12.9053
-12.8858
-12.8669
-12.8484
-12.8301
-12.8117
-12.793
-12.7737
-12.7536
-12.7325
-12.7102
-12.6865
-12.6612
-12.6343
-12.6055
-12.5749
-12.5424
-12.508
-12.472
-12.4344
-12.3957
-12.3565
-12.3175
-12.2797
-12.2444
-12.2132
-12.1881
-12.1712
-12.1644
-12.1696
-12.192
-12.2379
-13.2615
-13.3071
-13.3277
-13.3301
-13.3203
-13.3005
-13.2735
-13.2417
-13.2072
-13.1718
-13.1365
-13.1024
-13.0698
-13.0391
-13.0104
-12.9837
-12.9587
-12.9354
-12.9135
-12.8927
-12.8727
-12.8532
-12.834
-12.8148
-12.7952
-12.775
-12.754
-12.7319
-12.7085
-12.6835
-12.6568
-12.628
-12.5972
-12.5641
-12.5286
-12.4908
-12.4506
-12.4082
-12.3639
-12.3183
-12.2721
-12.2263
-12.1824
-12.1424
-12.1085
-12.0838
-12.0708
-12.0724
-12.0953
-12.1475
-13.3458
-13.3996
-13.4208
-13.4185
-13.4012
-13.3726
-13.3361
-13.2951
-13.2522
-13.2092
-13.1674
-13.1277
-13.0905
-13.056
-13.0241
-12.9948
-12.9678
-12.9428
-12.9195
-12.8976
-12.8766
-12.8564
-12.8364
-12.8165
-12.7963
-12.7756
-12.7539
-12.731
-12.7067
-12.6807
-12.6526
-12.6224
-12.5897
-12.5543
-12.516
-12.4747
-12.4304
-12.383
-12.3328
-12.2801
-12.2257
-12.1705
-12.1163
-12.0651
-12.0199
-11.9844
-11.9623
-11.9578
-11.9802
-12.0399
-13.4493
-13.5127
-13.5327
-13.5225
-13.4939
-13.4526
-13.4035
-13.3508
-13.2974
-13.2455
-13.1962
-13.1504
-13.1082
-13.0697
-13.0347
-13.0029
-12.974
-12.9475
-12.923
-12.9001
-12.8785
-12.8576
-12.8372
-12.8169
-12.7963
-12.7752
-12.7531
-12.7297
-12.7048
-12.678
-12.649
-12.6175
-12.5832
-12.5458
-12.5049
-12.4604
-12.412
-12.3595
-12.3031
-12.2428
-12.1792
-12.1133
-12.0467
-11.9816
-11.9216
-11.8712
-11.8357
-11.8213
-11.8411
-11.9095
-13.5794
-13.6539
-13.6694
-13.6456
-13.6
-13.541
-13.4751
-13.4075
-13.3416
-13.2792
-13.2216
-13.1692
-13.1219
-13.0794
-13.0414
-13.0073
-12.9767
-12.9489
-12.9236
-12.9001
-12.878
-12.8568
-12.8363
-12.8158
-12.7951
-12.7739
-12.7516
-12.7281
-12.7029
-12.6757
-12.646
-12.6136
-12.5781
-12.539
-12.4959
-12.4485
-12.3962
-12.3388
-12.2761
-12.2078
-12.1342
-12.0561
-11.9747
-11.8924
-11.8131
-11.7423
-11.6872
-11.6567
-11.67
-11.7482
-13.7487
-13.8345
-13.8386
-13.7919
-13.7206
-13.6369
-13.5492
-13.4632
-13.3824
-13.3084
-13.2418
-13.1826
-13.1302
-13.084
-13.0433
-13.0074
-12.9754
-12.9468
-12.9209
-12.8972
-12.875
-12.8539
-12.8334
-12.8132
-12.7928
-12.7717
-12.7497
-12.7263
-12.7012
-12.6739
-12.644
-12.6112
-12.5748
-12.5346
-12.4897
-12.4398
-12.3842
-12.3222
-12.2533
-12.1769
-12.0928
-12.001
-11.9025
-11.7992
-11.6951
-11.5964
-11.5124
-11.4558
-11.4549
-11.5424
-13.9784
-14.0712
-14.0503
-13.9655
-13.856
-13.7384
-13.6226
-13.5145
-13.4168
-13.3303
-13.2545
-13.1887
-13.1317
-13.0824
-13.0397
-13.0024
-12.9697
-12.9408
-12.9148
-12.8913
-12.8694
-12.8488
-12.8288
-12.8092
-12.7893
-12.7688
-12.7474
-12.7245
-12.6998
-12.6729
-12.6433
-12.6105
-12.5739
-12.533
-12.4871
-12.4354
-12.3771
-12.3112
-12.2366
-12.1525
-12.0576
-11.9514
-11.8337
-11.7055
-11.5699
-11.4335
-11.307
-11.2081
-11.178
-11.2693
-14.3078
-14.3897
-14.3163
-14.1687
-14.0032
-13.8402
-13.6897
-13.5561
-13.4403
-13.3412
-13.257
-13.1855
-13.125
-13.0735
-13.0296
-12.9918
-12.9592
-12.9306
-12.9052
-12.8823
-12.8613
-12.8416
-12.8226
-12.8038
-12.7849
-12.7655
-12.745
-12.723
-12.6992
-12.6731
-12.6442
-12.612
-12.5758
-12.535
-12.4888
-12.4362
-12.3762
-12.3074
-12.2285
-12.1375
-12.0327
-11.912
-11.7738
-11.6171
-11.443
-11.2566
-11.0687
-10.9013
-10.8127
-10.8871
-14.809
-14.8276
-14.6479
-14.3992
-14.1537
-13.9324
-13.7413
-13.5806
-13.4472
-13.337
-13.246
-13.1708
-13.1083
-13.0562
-13.0124
-12.9753
-12.9435
-12.9161
-12.892
-12.8704
-12.8508
-12.8324
-12.8148
-12.7974
-12.7799
-12.7618
-12.7427
-12.7221
-12.6996
-12.6748
-12.6472
-12.6162
-12.5811
-12.5412
-12.4957
-12.4434
-12.383
-12.313
-12.2313
-12.1355
-12.0226
-11.889
-11.7308
-11.5438
-11.3251
-11.075
-10.8003
-10.5235
-10.3197
-10.3204
-15.6131
-15.4353
-15.0532
-14.6474
-14.2921
-14
-13.7654
-13.5791
-13.4312
-13.3134
-13.2191
-13.1429
-13.0809
-13.03
-12.9879
-12.9527
-12.923
-12.8975
-12.8754
-12.8558
-12.8381
-12.8216
-12.8058
-12.7903
-12.7745
-12.7582
-12.7408
-12.722
-12.7013
-12.6783
-12.6525
-12.6233
-12.5901
-12.552
-12.5082
-12.4575
-12.3985
-12.3292
-12.2472
-12.1495
-12.032
-11.8892
-11.7143
-11.4985
-11.232
-10.9049
-10.5119
-10.067
-9.64796
-9.43472
-17.0168
-16.2534
-15.5079
-14.8801
-14.3879
-14.0192
-13.7458
-13.5413
-13.3863
-13.2672
-13.1744
-13.1011
-13.0425
-12.9951
-12.9565
-12.9246
-12.8979
-12.8754
-12.856
-12.839
-12.8237
-12.8096
-12.7961
-12.7827
-12.7692
-12.755
-12.7397
-12.7231
-12.7046
-12.6839
-12.6604
-12.6337
-12.603
-12.5677
-12.5267
-12.479
-12.4231
-12.3569
-12.2778
-12.1822
-12.0652
-11.9197
-11.7358
-11.4991
-11.1895
-10.7795
-10.2393
-9.55838
-8.75745
-7.92509
-19.8502
-17.2511
-15.8312
-14.9431
-14.3334
-13.92
-13.6377
-13.4387
-13.2938
-13.1856
-13.1029
-13.0387
-12.988
-12.9475
-12.9148
-12.8882
-12.8663
-12.8479
-12.8324
-12.8189
-12.8068
-12.7958
-12.7852
-12.7746
-12.7638
-12.7524
-12.7398
-12.726
-12.7103
-12.6926
-12.6722
-12.6488
-12.6218
-12.5904
-12.5539
-12.5112
-12.461
-12.4013
-12.3296
-12.2426
-12.1351
-11.9995
-11.8243
-11.5911
-11.2697
-10.8098
-10.1421
-9.18207
-7.6754
-4.95548
-24.719
-18.3342
-15.6671
-14.5664
-13.9668
-13.6091
-13.3863
-13.2373
-13.1314
-13.0528
-12.9929
-12.9464
-12.9098
-12.8808
-12.8577
-12.8391
-12.8241
-12.8118
-12.8017
-12.7931
-12.7856
-12.7787
-12.7721
-12.7653
-12.7582
-12.7504
-12.7415
-12.7314
-12.7196
-12.7058
-12.6898
-12.671
-12.6492
-12.6236
-12.5938
-12.5588
-12.5176
-12.469
-12.4111
-12.3412
-12.2558
-12.149
-12.0115
-11.8271
-11.5637
-11.1576
-10.4925
-9.29683
-6.51181
9.24346e-05
)
;

boundaryField
{
    movingWallTop
    {
        type            zeroGradient;
    }
    movingWallBottom
    {
        type            zeroGradient;
    }
    fixedWalls
    {
        type            zeroGradient;
    }
    frontAndBack
    {
        type            empty;
    }
}


// ************************************************************************* //
