/*--------------------------------*- C++ -*----------------------------------*\
  =========                 |
  \\      /  F ield         | OpenFOAM: The Open Source CFD Toolbox
   \\    /   O peration     | Website:  https://openfoam.org
    \\  /    A nd           | Version:  7
     \\/     M anipulation  |
\*---------------------------------------------------------------------------*/
FoamFile
{
    version     2.0;
    format      ascii;
    class       volScalarField;
    location    "0.0038";
    object      p;
}
// * * * * * * * * * * * * * * * * * * * * * * * * * * * * * * * * * * * * * //

dimensions      [0 2 -2 0 0 0 0];

internalField   nonuniform List<scalar> 
2500
(
8.76235e-08
6.36727
9.00406
10.07
10.6386
10.9737
11.1843
11.3319
11.4465
11.5427
11.6275
11.705
11.7772
11.8455
11.9106
11.9731
12.0336
12.0922
12.1494
12.2053
12.2602
12.3143
12.3677
12.4208
12.4735
12.5262
12.5789
12.6318
12.6851
12.739
12.7938
12.8496
12.9068
12.9657
13.0267
13.0903
13.1573
13.2285
13.3052
13.3894
13.4839
13.5936
13.7272
13.9003
14.1446
14.5242
15.1571
16.3176
19.0699
25.5571
4.88406
7.46675
8.86281
9.72514
10.3122
10.7096
10.984
11.1837
11.3374
11.4617
11.5668
11.6588
11.7416
11.8176
11.8885
11.9555
12.0193
12.0807
12.1401
12.1978
12.2543
12.3097
12.3644
12.4185
12.4723
12.526
12.5797
12.6336
12.6881
12.7432
12.7993
12.8568
12.9159
12.9771
13.0411
13.1086
13.1806
13.2585
13.3445
13.4414
13.5539
13.689
13.8581
14.0794
14.3836
14.8217
15.465
16.4001
17.8822
20.5771
7.74814
8.49018
9.21294
9.81835
10.2913
10.6469
10.9145
11.1207
11.2845
11.4188
11.5326
11.6316
11.72
11.8003
11.8747
11.9443
12.0103
12.0734
12.1342
12.1931
12.2506
12.3069
12.3623
12.4171
12.4716
12.5258
12.5802
12.6348
12.6899
12.7458
12.8028
12.8612
12.9214
12.9841
13.0498
13.1194
13.1941
13.2756
13.366
13.4686
13.5881
13.7312
13.9081
14.1333
14.4274
14.8191
15.3395
16.0002
16.7781
17.5785
9.18749
9.33931
9.69778
10.0824
10.4197
10.6999
10.9292
11.1174
11.2736
11.4058
11.5198
11.6201
11.71
11.792
11.8677
11.9386
12.0056
12.0696
12.1311
12.1906
12.2486
12.3053
12.3612
12.4164
12.4712
12.5258
12.5805
12.6355
12.691
12.7473
12.8047
12.8636
12.9244
12.9877
13.0542
13.1246
13.2003
13.2828
13.3741
13.4772
13.5959
13.7358
13.9039
14.1092
14.3625
14.6743
15.0505
15.4766
15.8702
16.0463
10.0255
9.9773
10.1334
10.3625
10.5915
10.8017
10.9878
11.1499
11.291
11.4144
11.5236
11.6213
11.7099
11.7912
11.8667
11.9376
12.0046
12.0687
12.1303
12.19
12.2482
12.3051
12.3611
12.4164
12.4713
12.5261
12.5809
12.636
12.6916
12.748
12.8056
12.8646
12.9256
12.9889
13.0554
13.1258
13.2012
13.2829
13.3728
13.4731
13.5869
13.7178
13.8702
14.0485
14.2562
14.4934
14.7531
15.0118
15.189
15.1467
10.5541
10.4417
10.4928
10.6226
10.7735
10.9264
11.0723
11.2071
11.3297
11.4408
11.5418
11.6341
11.719
11.7979
11.8717
11.9413
12.0076
12.071
12.1322
12.1915
12.2494
12.3061
12.3619
12.4171
12.472
12.5266
12.5813
12.6363
12.6918
12.7481
12.8055
12.8643
12.9249
12.9878
13.0536
13.1231
13.1971
13.2767
13.3633
13.4587
13.5647
13.6836
13.8173
13.9672
14.1323
14.3075
14.4815
14.6314
14.6935
14.5776
10.903
10.7814
10.7821
10.8515
10.9484
11.0574
11.1693
11.2786
11.3825
11.4801
11.5712
11.6563
11.736
11.811
11.882
11.9495
12.0141
12.0763
12.1365
12.1951
12.2523
12.3084
12.3638
12.4186
12.4731
12.5274
12.5818
12.6364
12.6916
12.7475
12.8044
12.8626
12.9225
12.9845
13.0491
13.1169
13.1886
13.265
13.3471
13.436
13.5328
13.6383
13.753
13.876
14.0043
14.1309
14.2446
14.3269
14.3323
14.2033
11.1452
11.0341
11.0125
11.0462
11.1071
11.1839
11.2687
11.3562
11.4429
11.5271
11.608
11.6853
11.759
11.8294
11.8967
11.9614
12.0238
12.0842
12.143
12.2004
12.2566
12.3119
12.3666
12.4208
12.4747
12.5284
12.5823
12.6364
12.691
12.7462
12.8024
12.8597
12.9185
12.9792
13.042
13.1076
13.1763
13.2488
13.3256
13.4073
13.4943
13.5865
13.6833
13.7828
13.8811
13.9713
14.0439
14.0855
14.0649
13.9458
11.3214
11.2259
11.1959
11.2092
11.2466
11.3004
11.3645
11.4341
11.506
11.578
11.6491
11.7185
11.786
11.8513
11.9147
11.9761
12.0359
12.0942
12.1512
12.2071
12.2621
12.3164
12.3701
12.4235
12.4766
12.5296
12.5827
12.6361
12.6899
12.7443
12.7995
12.8556
12.9131
12.972
13.0328
13.0957
13.161
13.2291
13.3002
13.3745
13.4518
13.5316
13.6126
13.6924
13.7672
13.8309
13.8763
13.894
13.8633
13.7605
11.4547
11.3747
11.3431
11.345
11.3674
11.4051
11.4536
11.509
11.5684
11.6298
11.692
11.754
11.8153
11.8756
11.9348
11.9928
12.0498
12.1057
12.1607
12.215
12.2685
12.3216
12.3742
12.4265
12.4787
12.5309
12.5831
12.6356
12.6884
12.7417
12.7957
12.8506
12.9064
12.9634
13.0218
13.0817
13.1434
13.2069
13.2723
13.3393
13.4075
13.4761
13.5436
13.6075
13.6643
13.7093
13.7369
13.7412
13.7081
13.6219
11.5591
11.4925
11.4624
11.4583
11.4712
11.4977
11.5346
11.5789
11.6281
11.6805
11.7348
11.7901
11.8456
11.9011
11.9562
12.0108
12.0648
12.1183
12.1712
12.2236
12.2756
12.3273
12.3787
12.4299
12.481
12.5321
12.5834
12.6348
12.6865
12.7386
12.7913
12.8446
12.8986
12.9535
13.0093
13.0662
13.1241
13.1831
13.2428
13.3031
13.3631
13.422
13.4781
13.5294
13.5727
13.6045
13.6208
13.6179
13.586
13.5146
11.6431
11.5877
11.5602
11.5532
11.5601
11.5789
11.6073
11.643
11.684
11.7289
11.7764
11.8256
11.8759
11.9269
11.978
12.0293
12.0804
12.1314
12.1822
12.2327
12.2831
12.3333
12.3833
12.4333
12.4833
12.5333
12.5834
12.6337
12.6843
12.7351
12.7863
12.8379
12.8901
12.9427
12.9959
13.0497
13.1039
13.1584
13.213
13.267
13.3198
13.3704
13.4173
13.4587
13.4921
13.5147
13.5238
13.5172
13.4882
13.4291
11.7123
11.6659
11.6414
11.6331
11.6363
11.6497
11.6719
11.7009
11.7354
11.774
11.8158
11.8598
11.9054
11.9522
11.9998
12.0478
12.0962
12.1447
12.1934
12.242
12.2907
12.3394
12.3881
12.4368
12.4856
12.5344
12.5834
12.6325
12.6817
12.7312
12.7808
12.8308
12.881
12.9314
12.982
13.0327
13.0834
13.1338
13.1835
13.232
13.2786
13.3222
13.3617
13.3954
13.4214
13.4376
13.4424
13.4342
13.4083
13.3591
11.7704
11.7311
11.7093
11.7007
11.7016
11.7114
11.7289
11.7529
11.7821
11.8156
11.8525
11.892
11.9335
11.9766
12.0208
12.0659
12.1117
12.1579
12.2045
12.2513
12.2984
12.3455
12.3929
12.4403
12.4878
12.5355
12.5832
12.631
12.679
12.727
12.7752
12.8234
12.8716
12.9198
12.9679
13.0158
13.0631
13.1097
13.1551
13.1987
13.24
13.2779
13.3114
13.3392
13.3598
13.3716
13.3736
13.365
13.3422
13.3007
11.8197
11.7859
11.7666
11.7581
11.7577
11.7648
11.7789
11.799
11.8241
11.8535
11.8863
11.9219
11.9599
11.9996
12.0409
12.0833
12.1266
12.1707
12.2153
12.2604
12.3058
12.3515
12.3975
12.4436
12.4899
12.5363
12.5829
12.6295
12.6761
12.7227
12.7694
12.8159
12.8623
12.9084
12.9541
12.9992
13.0435
13.0866
13.1282
13.1677
13.2045
13.2377
13.2664
13.2896
13.3062
13.3151
13.3154
13.3068
13.2867
13.2513
11.8619
11.8324
11.8151
11.807
11.8057
11.8111
11.8226
11.8397
11.8615
11.8875
11.9169
11.9493
11.9842
12.0211
12.0597
12.0996
12.1407
12.1828
12.2256
12.269
12.3129
12.3572
12.4019
12.4468
12.4919
12.5371
12.5824
12.6278
12.6732
12.7185
12.7636
12.8086
12.8531
12.8973
12.9408
12.9834
13.0249
13.0651
13.1033
13.1392
13.1722
13.2016
13.2266
13.2463
13.2599
13.2667
13.266
13.2578
13.2398
13.2091
11.898
11.8718
11.8562
11.8485
11.8467
11.8508
11.8605
11.8752
11.8945
11.9177
11.9443
11.974
12.0062
12.0406
12.0769
12.1147
12.1538
12.1941
12.2352
12.2771
12.3196
12.3626
12.406
12.4497
12.4936
12.5378
12.582
12.6262
12.6703
12.7143
12.7581
12.8015
12.8444
12.8867
12.9282
12.9686
13.0077
13.0452
13.0806
13.1135
13.1434
13.1696
13.1916
13.2086
13.2201
13.2253
13.224
13.2163
13.2002
13.1731
11.9288
11.9052
11.8909
11.8837
11.8816
11.8848
11.8931
11.906
11.9232
11.9442
11.9686
11.9959
12.026
12.0582
12.0925
12.1284
12.1658
12.2044
12.244
12.2845
12.3257
12.3675
12.4097
12.4524
12.4953
12.5383
12.5815
12.6246
12.6676
12.7104
12.7529
12.7949
12.8364
12.877
12.9167
12.9551
12.9921
13.0272
13.0602
13.0906
13.1179
13.1417
13.1613
13.1762
13.186
13.1902
13.1886
13.1813
13.1666
13.1423
11.9549
11.9332
11.9201
11.9132
11.911
11.9135
11.9207
11.9323
11.9478
11.967
11.9896
12.0151
12.0433
12.0737
12.1063
12.1406
12.1764
12.2136
12.2519
12.2911
12.3312
12.3719
12.4131
12.4547
12.4967
12.5388
12.581
12.6231
12.6651
12.7068
12.7482
12.7889
12.829
12.8682
12.9063
12.943
12.9782
13.0114
13.0423
13.0706
13.0959
13.1176
13.1353
13.1487
13.1572
13.1606
13.1588
13.1519
13.1385
13.1163
11.9766
11.9565
11.9442
11.9377
11.9354
11.9375
11.9438
11.9543
11.9686
11.9864
12.0075
12.0315
12.0581
12.0871
12.1182
12.1511
12.1857
12.2216
12.2588
12.297
12.336
12.3757
12.4161
12.4568
12.4979
12.5391
12.5805
12.6217
12.6628
12.7036
12.7439
12.7836
12.8225
12.8605
12.8972
12.9325
12.9661
12.9977
13.027
13.0535
13.0771
13.0972
13.1135
13.1256
13.1332
13.1361
13.1342
13.1276
13.1151
13.0946
11.9944
11.9754
11.9638
11.9575
11.9552
11.9569
11.9627
11.9724
11.9857
12.0024
12.0223
12.0451
12.0705
12.0983
12.1282
12.16
12.1935
12.2284
12.2646
12.3019
12.3401
12.379
12.4186
12.4586
12.4989
12.5394
12.58
12.6206
12.6609
12.7008
12.7403
12.7791
12.817
12.8539
12.8895
12.9236
12.9559
12.9862
13.0141
13.0394
13.0616
13.0805
13.0956
13.1068
13.1138
13.1162
13.1143
13.108
13.0962
13.0769
12.0083
11.9902
11.9791
11.973
11.9707
11.9722
11.9775
11.9866
11.9992
12.0151
12.034
12.0559
12.0804
12.1072
12.1362
12.1671
12.1998
12.2339
12.2693
12.3059
12.3434
12.3817
12.4206
12.46
12.4997
12.5397
12.5797
12.6196
12.6592
12.6986
12.7373
12.7753
12.8125
12.8485
12.8832
12.9164
12.9477
12.977
13.0039
13.0281
13.0493
13.0672
13.0815
13.092
13.0985
13.1007
13.0987
13.0926
13.0813
13.0629
12.0186
12.0012
11.9904
11.9845
11.9821
11.9834
11.9885
11.9971
12.0092
12.0245
12.0428
12.064
12.0878
12.1139
12.1423
12.1725
12.2045
12.238
12.2729
12.3089
12.3459
12.3837
12.4221
12.461
12.5003
12.5398
12.5794
12.6188
12.658
12.6968
12.735
12.7725
12.8091
12.8445
12.8785
12.911
12.9416
12.9701
12.9962
13.0196
13.0401
13.0573
13.0711
13.0811
13.0872
13.0892
13.0872
13.0813
13.0704
13.0526
12.0254
12.0084
11.9978
11.992
11.9896
11.9909
11.9958
12.0041
12.0158
12.0307
12.0487
12.0694
12.0927
12.1184
12.1463
12.1761
12.2077
12.2408
12.2753
12.3109
12.3476
12.385
12.4231
12.4618
12.5007
12.5399
12.5792
12.6183
12.6572
12.6956
12.7335
12.7706
12.8068
12.8417
12.8754
12.9073
12.9375
12.9655
12.9911
13.014
13.034
13.0508
13.0642
13.0739
13.0797
13.0816
13.0796
13.0738
13.0631
13.0458
12.0288
12.012
12.0015
11.9957
11.9934
11.9946
11.9994
12.0076
12.0191
12.0339
12.0516
12.0721
12.0952
12.1207
12.1483
12.1779
12.2093
12.2422
12.2765
12.3119
12.3484
12.3857
12.4237
12.4621
12.5009
12.54
12.5791
12.618
12.6567
12.695
12.7327
12.7697
12.8056
12.8404
12.8738
12.9055
12.9354
12.9631
12.9885
13.0112
13.031
13.0476
13.0607
13.0703
13.076
13.0779
13.0758
13.0701
13.0596
13.0425
12.0288
12.012
12.0015
11.9957
11.9934
11.9946
11.9994
12.0076
12.0191
12.0339
12.0516
12.0721
12.0952
12.1207
12.1483
12.1779
12.2093
12.2422
12.2765
12.3119
12.3484
12.3857
12.4237
12.4621
12.5009
12.54
12.5791
12.618
12.6567
12.695
12.7327
12.7697
12.8056
12.8404
12.8738
12.9055
12.9354
12.9631
12.9885
13.0112
13.031
13.0476
13.0607
13.0703
13.076
13.0779
13.0758
13.0701
13.0596
13.0425
12.0254
12.0084
11.9979
11.992
11.9896
11.9909
11.9958
12.0041
12.0158
12.0307
12.0487
12.0694
12.0927
12.1184
12.1463
12.1761
12.2077
12.2408
12.2753
12.3109
12.3476
12.385
12.4231
12.4618
12.5007
12.5399
12.5792
12.6183
12.6572
12.6956
12.7335
12.7706
12.8068
12.8417
12.8753
12.9073
12.9375
12.9655
12.9911
13.014
13.034
13.0508
13.0642
13.0739
13.0797
13.0816
13.0796
13.0738
13.0631
13.0458
12.0186
12.0012
11.9904
11.9845
11.9821
11.9835
11.9885
11.9971
12.0092
12.0245
12.0428
12.064
12.0878
12.1139
12.1423
12.1725
12.2045
12.238
12.2729
12.3089
12.3459
12.3837
12.4221
12.4611
12.5003
12.5398
12.5794
12.6188
12.658
12.6968
12.735
12.7725
12.8091
12.8445
12.8785
12.911
12.9416
12.9701
12.9962
13.0196
13.0401
13.0573
13.0711
13.0811
13.0872
13.0892
13.0872
13.0813
13.0704
13.0526
12.0083
11.9902
11.9791
11.973
11.9707
11.9722
11.9775
11.9866
11.9992
12.0151
12.0341
12.0559
12.0804
12.1072
12.1362
12.1671
12.1998
12.2339
12.2693
12.3059
12.3434
12.3817
12.4206
12.46
12.4997
12.5397
12.5797
12.6196
12.6592
12.6985
12.7373
12.7753
12.8125
12.8485
12.8832
12.9164
12.9477
12.977
13.0039
13.0281
13.0493
13.0672
13.0815
13.092
13.0985
13.1007
13.0986
13.0926
13.0813
13.0629
11.9944
11.9754
11.9638
11.9575
11.9552
11.9569
11.9627
11.9724
11.9857
12.0024
12.0223
12.0451
12.0705
12.0983
12.1282
12.16
12.1935
12.2284
12.2646
12.3019
12.3401
12.379
12.4186
12.4586
12.4989
12.5394
12.58
12.6206
12.6609
12.7008
12.7403
12.7791
12.817
12.8539
12.8895
12.9236
12.9559
12.9862
13.0141
13.0394
13.0616
13.0804
13.0956
13.1068
13.1137
13.1162
13.1142
13.108
13.0961
13.0768
11.9767
11.9565
11.9443
11.9377
11.9354
11.9375
11.9439
11.9543
11.9686
11.9864
12.0075
12.0315
12.0581
12.0871
12.1182
12.1511
12.1857
12.2216
12.2588
12.297
12.336
12.3757
12.4161
12.4568
12.4979
12.5391
12.5805
12.6217
12.6628
12.7036
12.7439
12.7836
12.8225
12.8604
12.8972
12.9325
12.9661
12.9977
13.0269
13.0535
13.0771
13.0972
13.1135
13.1256
13.1332
13.1361
13.1342
13.1276
13.1151
13.0945
11.9549
11.9333
11.9201
11.9132
11.911
11.9136
11.9207
11.9323
11.9478
11.9671
11.9896
12.0151
12.0433
12.0738
12.1063
12.1406
12.1764
12.2136
12.2519
12.2911
12.3312
12.3719
12.4131
12.4547
12.4967
12.5388
12.581
12.6231
12.6651
12.7068
12.7481
12.7889
12.829
12.8682
12.9063
12.943
12.9782
13.0114
13.0423
13.0706
13.0958
13.1175
13.1353
13.1486
13.1572
13.1606
13.1588
13.1519
13.1384
13.1163
11.9288
11.9052
11.891
11.8837
11.8816
11.8848
11.8931
11.906
11.9232
11.9442
11.9686
11.996
12.026
12.0582
12.0925
12.1284
12.1658
12.2044
12.244
12.2845
12.3257
12.3675
12.4097
12.4524
12.4953
12.5383
12.5815
12.6246
12.6676
12.7104
12.7529
12.7949
12.8363
12.877
12.9167
12.9551
12.9921
13.0272
13.0602
13.0906
13.1179
13.1416
13.1612
13.1762
13.186
13.1902
13.1885
13.1812
13.1666
13.1423
11.898
11.8718
11.8562
11.8485
11.8467
11.8508
11.8605
11.8752
11.8945
11.9177
11.9444
11.974
12.0062
12.0407
12.0769
12.1147
12.1539
12.1941
12.2352
12.2771
12.3196
12.3626
12.406
12.4497
12.4937
12.5378
12.582
12.6262
12.6703
12.7143
12.7581
12.8015
12.8444
12.8867
12.9282
12.9686
13.0077
13.0452
13.0806
13.1135
13.1434
13.1696
13.1916
13.2086
13.22
13.2253
13.224
13.2162
13.2001
13.173
11.8619
11.8324
11.8151
11.807
11.8057
11.8111
11.8226
11.8397
11.8615
11.8875
11.9169
11.9493
11.9842
12.0211
12.0597
12.0996
12.1407
12.1828
12.2256
12.269
12.3129
12.3572
12.4019
12.4468
12.4919
12.5371
12.5824
12.6278
12.6732
12.7185
12.7636
12.8085
12.8531
12.8973
12.9407
12.9834
13.0249
13.065
13.1033
13.1392
13.1722
13.2016
13.2265
13.2463
13.2599
13.2666
13.2659
13.2577
13.2398
13.2091
11.8198
11.7859
11.7666
11.7581
11.7577
11.7649
11.779
11.799
11.8241
11.8535
11.8863
11.9219
11.9599
11.9997
12.0409
12.0833
12.1266
12.1707
12.2153
12.2604
12.3058
12.3515
12.3975
12.4436
12.4899
12.5363
12.5829
12.6295
12.6761
12.7227
12.7694
12.8159
12.8623
12.9084
12.9541
12.9992
13.0435
13.0866
13.1282
13.1677
13.2044
13.2377
13.2664
13.2896
13.3062
13.315
13.3154
13.3068
13.2866
13.2513
11.7704
11.7311
11.7094
11.7007
11.7017
11.7114
11.7289
11.7529
11.7821
11.8156
11.8525
11.892
11.9335
11.9766
12.0208
12.066
12.1117
12.1579
12.2045
12.2513
12.2984
12.3456
12.3929
12.4403
12.4878
12.5355
12.5832
12.631
12.679
12.727
12.7751
12.8234
12.8716
12.9198
12.9679
13.0157
13.0631
13.1097
13.155
13.1987
13.24
13.2779
13.3114
13.3391
13.3597
13.3716
13.3736
13.3649
13.3421
13.3007
11.7123
11.6659
11.6414
11.6331
11.6363
11.6498
11.6719
11.7009
11.7354
11.7741
11.8158
11.8598
11.9054
11.9522
11.9998
12.0478
12.0962
12.1447
12.1934
12.2421
12.2907
12.3394
12.3881
12.4368
12.4856
12.5344
12.5834
12.6325
12.6817
12.7312
12.7808
12.8308
12.8809
12.9314
12.982
13.0327
13.0834
13.1337
13.1835
13.232
13.2785
13.3222
13.3617
13.3953
13.4213
13.4376
13.4423
13.4341
13.4083
13.359
11.6431
11.5877
11.5603
11.5532
11.5601
11.5789
11.6073
11.643
11.684
11.7289
11.7764
11.8256
11.876
11.9269
11.9781
12.0293
12.0805
12.1314
12.1822
12.2327
12.2831
12.3333
12.3834
12.4333
12.4833
12.5333
12.5834
12.6337
12.6843
12.7351
12.7863
12.8379
12.89
12.9427
12.9959
13.0497
13.1039
13.1584
13.2129
13.267
13.3198
13.3704
13.4173
13.4586
13.492
13.5146
13.5238
13.5172
13.4882
13.429
11.5591
11.4925
11.4624
11.4583
11.4712
11.4977
11.5346
11.5789
11.6281
11.6806
11.7349
11.7901
11.8457
11.9011
11.9562
12.0108
12.0648
12.1183
12.1712
12.2236
12.2756
12.3273
12.3787
12.4299
12.481
12.5321
12.5834
12.6348
12.6865
12.7386
12.7913
12.8446
12.8986
12.9535
13.0093
13.0662
13.1241
13.183
13.2428
13.303
13.3631
13.422
13.4781
13.5293
13.5727
13.6045
13.6208
13.6178
13.586
13.5145
11.4548
11.3747
11.3431
11.345
11.3674
11.4051
11.4536
11.509
11.5684
11.6299
11.692
11.754
11.8153
11.8756
11.9348
11.9929
12.0498
12.1057
12.1608
12.215
12.2686
12.3216
12.3742
12.4265
12.4787
12.5309
12.5831
12.6356
12.6884
12.7417
12.7957
12.8505
12.9064
12.9634
13.0218
13.0817
13.1434
13.2069
13.2722
13.3393
13.4075
13.4761
13.5435
13.6074
13.6643
13.7092
13.7368
13.7411
13.708
13.6218
11.3214
11.2259
11.1959
11.2092
11.2467
11.3005
11.3645
11.4341
11.506
11.5781
11.6491
11.7186
11.786
11.8513
11.9147
11.9762
12.0359
12.0942
12.1512
12.2071
12.2621
12.3164
12.3701
12.4235
12.4766
12.5296
12.5827
12.6361
12.6899
12.7443
12.7994
12.8556
12.9131
12.972
13.0328
13.0957
13.161
13.2291
13.3002
13.3745
13.4518
13.5315
13.6125
13.6924
13.7671
13.8309
13.8762
13.894
13.8632
13.7604
11.1452
11.0341
11.0125
11.0462
11.1071
11.1839
11.2688
11.3562
11.4429
11.5272
11.608
11.6853
11.759
11.8294
11.8967
11.9614
12.0238
12.0842
12.143
12.2004
12.2566
12.312
12.3666
12.4208
12.4747
12.5284
12.5823
12.6364
12.691
12.7462
12.8024
12.8597
12.9185
12.9792
13.042
13.1076
13.1763
13.2488
13.3256
13.4073
13.4942
13.5864
13.6833
13.7828
13.881
13.9712
14.0438
14.0854
14.0649
13.9457
10.903
10.7814
10.7821
10.8515
10.9484
11.0574
11.1694
11.2787
11.3825
11.4801
11.5712
11.6563
11.7361
11.8111
11.882
11.9495
12.0142
12.0763
12.1365
12.1951
12.2523
12.3085
12.3638
12.4186
12.4731
12.5274
12.5818
12.6364
12.6916
12.7475
12.8044
12.8626
12.9225
12.9845
13.0491
13.1169
13.1885
13.2649
13.3471
13.436
13.5327
13.6383
13.7529
13.876
14.0042
14.1308
14.2445
14.3268
14.3322
14.2033
10.5541
10.4418
10.4929
10.6226
10.7735
10.9264
11.0724
11.2071
11.3297
11.4409
11.5418
11.6341
11.719
11.7979
11.8717
11.9413
12.0076
12.071
12.1322
12.1916
12.2494
12.3061
12.362
12.4172
12.472
12.5266
12.5813
12.6363
12.6918
12.7481
12.8055
12.8643
12.9249
12.9878
13.0536
13.1231
13.197
13.2766
13.3633
13.4586
13.5647
13.6835
13.8173
13.9671
14.1322
14.3074
14.4815
14.6313
14.6934
14.5775
10.0255
9.97732
10.1335
10.3625
10.5915
10.8017
10.9878
11.15
11.291
11.4145
11.5236
11.6213
11.7099
11.7912
11.8667
11.9376
12.0047
12.0687
12.1304
12.19
12.2482
12.3051
12.3611
12.4164
12.4713
12.5261
12.5809
12.636
12.6916
12.748
12.8056
12.8646
12.9255
12.9889
13.0554
13.1258
13.2011
13.2829
13.3727
13.4731
13.5869
13.7178
13.8701
14.0484
14.2562
14.4934
14.7531
15.0117
15.1889
15.1467
9.1875
9.33932
9.69779
10.0824
10.4198
10.6999
10.9292
11.1174
11.2737
11.4058
11.5198
11.6201
11.7101
11.792
11.8678
11.9386
12.0056
12.0696
12.1311
12.1906
12.2486
12.3054
12.3612
12.4164
12.4712
12.5258
12.5805
12.6355
12.691
12.7473
12.8047
12.8636
12.9244
12.9877
13.0541
13.1246
13.2003
13.2827
13.374
13.4771
13.5959
13.7358
13.9038
14.1092
14.3625
14.6743
15.0504
15.4765
15.8702
16.0463
7.74815
8.49019
9.21295
9.81837
10.2914
10.6469
10.9145
11.1207
11.2845
11.4189
11.5326
11.6316
11.72
11.8004
11.8747
11.9444
12.0104
12.0734
12.1342
12.1931
12.2506
12.3069
12.3623
12.4171
12.4716
12.5258
12.5802
12.6348
12.6899
12.7458
12.8028
12.8612
12.9214
12.9841
13.0498
13.1194
13.1941
13.2755
13.3659
13.4685
13.588
13.7312
13.9081
14.1332
14.4273
14.8191
15.3394
16.0001
16.7781
17.5784
4.88407
7.46676
8.86282
9.72516
10.3123
10.7096
10.984
11.1837
11.3374
11.4617
11.5668
11.6588
11.7416
11.8176
11.8885
11.9555
12.0194
12.0807
12.1401
12.1978
12.2543
12.3097
12.3644
12.4185
12.4723
12.526
12.5797
12.6336
12.6881
12.7432
12.7993
12.8568
12.9159
12.9771
13.0411
13.1086
13.1805
13.2585
13.3444
13.4413
13.5538
13.689
13.858
14.0793
14.3835
14.8217
15.4649
16.4
17.8822
20.577
7.35036e-06
6.36728
9.00407
10.07
10.6386
10.9737
11.1843
11.3319
11.4466
11.5427
11.6276
11.705
11.7772
11.8455
11.9106
11.9732
12.0336
12.0922
12.1494
12.2053
12.2602
12.3143
12.3677
12.4208
12.4735
12.5262
12.5789
12.6318
12.6851
12.739
12.7938
12.8496
12.9068
12.9656
13.0266
13.0903
13.1573
13.2285
13.3052
13.3893
13.4838
13.5936
13.7271
13.9002
14.1445
14.5242
15.157
16.3175
19.0698
25.5571
)
;

boundaryField
{
    movingWallTop
    {
        type            zeroGradient;
    }
    movingWallBottom
    {
        type            zeroGradient;
    }
    fixedWalls
    {
        type            zeroGradient;
    }
    frontAndBack
    {
        type            empty;
    }
}


// ************************************************************************* //
