/*--------------------------------*- C++ -*----------------------------------*\
  =========                 |
  \\      /  F ield         | OpenFOAM: The Open Source CFD Toolbox
   \\    /   O peration     | Website:  https://openfoam.org
    \\  /    A nd           | Version:  7
     \\/     M anipulation  |
\*---------------------------------------------------------------------------*/
FoamFile
{
    version     2.0;
    format      ascii;
    class       volVectorField;
    location    "0.0236";
    object      U;
}
// * * * * * * * * * * * * * * * * * * * * * * * * * * * * * * * * * * * * * //

dimensions      [0 1 -1 0 0 0 0];

internalField   nonuniform List<vector> 
2500
(
(0.290273 -0.152432 0)
(0.389598 -0.128259 0)
(0.565504 -0.0747428 0)
(0.683297 -0.0422195 0)
(0.752793 -0.0244956 0)
(0.79765 -0.0148347 0)
(0.82861 -0.00951117 0)
(0.850834 -0.00647592 0)
(0.867363 -0.00464383 0)
(0.880028 -0.00346447 0)
(0.889948 -0.00265908 0)
(0.89784 -0.00208172 0)
(0.904189 -0.00165204 0)
(0.909338 -0.00132319 0)
(0.913535 -0.00106615 0)
(0.916967 -0.000861932 0)
(0.919778 -0.000697479 0)
(0.922076 -0.000563432 0)
(0.92395 -0.000452849 0)
(0.925466 -0.000360415 0)
(0.926678 -0.000281939 0)
(0.927626 -0.000214024 0)
(0.928342 -0.000153833 0)
(0.928849 -9.89171e-05 0)
(0.92916 -4.70902e-05 0)
(0.929284 3.67674e-06 0)
(0.929222 5.53379e-05 0)
(0.928968 0.000109899 0)
(0.928509 0.000169457 0)
(0.927826 0.000236326 0)
(0.926891 0.000313161 0)
(0.925665 0.000403122 0)
(0.924101 0.000510097 0)
(0.922135 0.000639028 0)
(0.919686 0.000796391 0)
(0.916651 0.000990949 0)
(0.912894 0.00123496 0)
(0.908239 0.00154626 0)
(0.902445 0.00195194 0)
(0.895184 0.0024955 0)
(0.885984 0.00325099 0)
(0.874147 0.00435274 0)
(0.858581 0.00605949 0)
(0.837479 0.0088921 0)
(0.807782 0.0139108 0)
(0.764213 0.023208 0)
(0.695834 0.0407465 0)
(0.577948 0.0737385 0)
(0.398085 0.128754 0)
(0.293888 0.153803 0)
(0.00111058 -0.294953 0)
(0.0169116 -0.298668 0)
(0.152331 -0.21299 0)
(0.282697 -0.145184 0)
(0.387557 -0.0993825 0)
(0.470329 -0.069448 0)
(0.535181 -0.0500052 0)
(0.585985 -0.0371342 0)
(0.626104 -0.0283235 0)
(0.658123 -0.0220702 0)
(0.683927 -0.0174822 0)
(0.704895 -0.0140192 0)
(0.722046 -0.0113437 0)
(0.736143 -0.0092373 0)
(0.747769 -0.00755322 0)
(0.757375 -0.00618945 0)
(0.765312 -0.00507259 0)
(0.771859 -0.00414822 0)
(0.777239 -0.00337487 0)
(0.781626 -0.00272006 0)
(0.78516 -0.00215772 0)
(0.78795 -0.00166631 0)
(0.79008 -0.0012276 0)
(0.79161 -0.000825649 0)
(0.792582 -0.00044605 0)
(0.793016 -7.53351e-05 0)
(0.792916 0.00029959 0)
(0.79227 0.00069199 0)
(0.791044 0.00111583 0)
(0.789187 0.00158639 0)
(0.786625 0.00212105 0)
(0.783258 0.00274024 0)
(0.778959 0.00346872 0)
(0.773563 0.00433748 0)
(0.766862 0.00538633 0)
(0.758588 0.00666791 0)
(0.748402 0.00825374 0)
(0.735863 0.010244 0)
(0.720393 0.0127833 0)
(0.701225 0.0160882 0)
(0.677319 0.0204949 0)
(0.647247 0.0265455 0)
(0.609018 0.0351455 0)
(0.559848 0.0478476 0)
(0.495991 0.0673121 0)
(0.412968 0.0978439 0)
(0.305862 0.145555 0)
(0.170332 0.217172 0)
(0.0268704 0.307165 0)
(0.00519464 0.303042 0)
(-0.0329053 -0.250477 0)
(-0.0616053 -0.344055 0)
(-0.011674 -0.310389 0)
(0.070292 -0.251047 0)
(0.157869 -0.195231 0)
(0.239673 -0.15038 0)
(0.311359 -0.116433 0)
(0.372261 -0.0911333 0)
(0.423307 -0.0721888 0)
(0.465879 -0.0578207 0)
(0.501349 -0.046753 0)
(0.53092 -0.0380935 0)
(0.555604 -0.0312199 0)
(0.576231 -0.0256939 0)
(0.593476 -0.0212013 0)
(0.60789 -0.0175123 0)
(0.61992 -0.0144552 0)
(0.629931 -0.0118985 0)
(0.638219 -0.00973981 0)
(0.645027 -0.00789687 0)
(0.650547 -0.0063026 0)
(0.654934 -0.00490074 0)
(0.658306 -0.00364295 0)
(0.660751 -0.00248647 0)
(0.662327 -0.00139235 0)
(0.663065 -0.000323876 0)
(0.662973 0.000754782 0)
(0.662029 0.00187993 0)
(0.660187 0.00308974 0)
(0.657371 0.00442582 0)
(0.653474 0.00593509 0)
(0.648355 0.00767218 0)
(0.641828 0.00970258 0)
(0.633664 0.0121069 0)
(0.623571 0.0149871 0)
(0.611187 0.0184749 0)
(0.596058 0.0227447 0)
(0.577617 0.0280329 0)
(0.555153 0.034666 0)
(0.527769 0.0431057 0)
(0.494346 0.0540153 0)
(0.453504 0.0683601 0)
(0.403605 0.0875444 0)
(0.342878 0.113568 0)
(0.269867 0.149078 0)
(0.184681 0.196841 0)
(0.0913263 0.257392 0)
(0.00139752 0.322874 0)
(-0.0570671 0.361349 0)
(-0.0321824 0.263985 0)
(-0.0267765 -0.190685 0)
(-0.0655415 -0.332858 0)
(-0.0649792 -0.350947 0)
(-0.0284652 -0.318202 0)
(0.0279049 -0.270438 0)
(0.0910583 -0.22342 0)
(0.15331 -0.182651 0)
(0.210894 -0.149058 0)
(0.262327 -0.121919 0)
(0.307351 -0.100103 0)
(0.346301 -0.0825288 0)
(0.379753 -0.0682918 0)
(0.408351 -0.0566778 0)
(0.432718 -0.0471349 0)
(0.453422 -0.0392376 0)
(0.470961 -0.0326568 0)
(0.485769 -0.0271347 0)
(0.498213 -0.0224667 0)
(0.508605 -0.0184877 0)
(0.517205 -0.0150623 0)
(0.524225 -0.0120772 0)
(0.529837 -0.00943545 0)
(0.534176 -0.00705253 0)
(0.537342 -0.00485255 0)
(0.539402 -0.00276559 0)
(0.540392 -0.00072524 0)
(0.540317 0.00133365 0)
(0.539153 0.0034772 0)
(0.536842 0.00577476 0)
(0.533295 0.00830152 0)
(0.528386 0.0111416 0)
(0.521948 0.0143916 0)
(0.513771 0.0181658 0)
(0.503592 0.0226023 0)
(0.491091 0.0278716 0)
(0.475876 0.0341888 0)
(0.457481 0.041829 0)
(0.435345 0.05115 0)
(0.408813 0.0626224 0)
(0.377131 0.0768684 0)
(0.339473 0.0947088 0)
(0.295013 0.117207 0)
(0.243099 0.145676 0)
(0.183617 0.18155 0)
(0.117707 0.225905 0)
(0.0490062 0.278068 0)
(-0.0144674 0.332291 0)
(-0.0585174 0.371273 0)
(-0.0649176 0.355434 0)
(-0.0273205 0.204704 0)
(-0.0178753 -0.149156 0)
(-0.053337 -0.302493 0)
(-0.0743401 -0.353802 0)
(-0.0680498 -0.348443 0)
(-0.039862 -0.317033 0)
(0.00102429 -0.276999 0)
(0.0474186 -0.236957 0)
(0.0945916 -0.200546 0)
(0.139736 -0.168888 0)
(0.181388 -0.141957 0)
(0.218932 -0.119275 0)
(0.252251 -0.100238 0)
(0.281502 -0.0842625 0)
(0.306974 -0.070829 0)
(0.329011 -0.0594987 0)
(0.347966 -0.0499058 0)
(0.364176 -0.0417465 0)
(0.377948 -0.0347682 0)
(0.389557 -0.0287589 0)
(0.399241 -0.0235388 0)
(0.4072 -0.0189532 0)
(0.413601 -0.0148669 0)
(0.418575 -0.011159 0)
(0.42222 -0.00771969 0)
(0.424604 -0.00444627 0)
(0.42576 -0.00124029 0)
(0.425693 0.00199538 0)
(0.424372 0.00535943 0)
(0.421738 0.00895514 0)
(0.417693 0.0128937 0)
(0.412107 0.0172981 0)
(0.404808 0.0223079 0)
(0.395584 0.0280848 0)
(0.384178 0.0348197 0)
(0.370283 0.0427424 0)
(0.353543 0.0521325 0)
(0.333555 0.0633336 0)
(0.309872 0.0767705 0)
(0.282024 0.0929663 0)
(0.249558 0.112557 0)
(0.212117 0.136287 0)
(0.169584 0.164969 0)
(0.122337 0.199328 0)
(0.0716515 0.239643 0)
(0.0203083 0.284942 0)
(-0.026655 0.331403 0)
(-0.0612438 0.369481 0)
(-0.0729007 0.379571 0)
(-0.0546624 0.327247 0)
(-0.0186949 0.162222 0)
(-0.0114749 -0.120752 0)
(-0.0406013 -0.269077 0)
(-0.068816 -0.338355 0)
(-0.0796649 -0.354533 0)
(-0.0720018 -0.340248 0)
(-0.0505975 -0.311061 0)
(-0.0206092 -0.276396 0)
(0.0137285 -0.241431 0)
(0.0493364 -0.208706 0)
(0.0841878 -0.179265 0)
(0.117065 -0.153352 0)
(0.147317 -0.130824 0)
(0.174663 -0.111367 0)
(0.199055 -0.0946156 0)
(0.220583 -0.0802065 0)
(0.239413 -0.0678027 0)
(0.255744 -0.0571019 0)
(0.269787 -0.0478366 0)
(0.281745 -0.0397713 0)
(0.291805 -0.0326981 0)
(0.300133 -0.0264319 0)
(0.306869 -0.0208062 0)
(0.312127 -0.0156693 0)
(0.315993 -0.0108799 0)
(0.318525 -0.00630458 0)
(0.319751 -0.0018137 0)
(0.31967 0.00272117 0)
(0.318251 0.00743076 0)
(0.315433 0.0124514 0)
(0.311124 0.0179288 0)
(0.305196 0.0240219 0)
(0.297493 0.0309081 0)
(0.287821 0.0387885 0)
(0.275956 0.0478941 0)
(0.261645 0.0584934 0)
(0.24461 0.0709003 0)
(0.224562 0.0854809 0)
(0.201228 0.102659 0)
(0.174384 0.122912 0)
(0.143926 0.146752 0)
(0.109972 0.174669 0)
(0.0730286 0.207004 0)
(0.0342238 0.243694 0)
(-0.0043786 0.283793 0)
(-0.039444 0.324625 0)
(-0.0661676 0.360434 0)
(-0.0784783 0.380463 0)
(-0.0705049 0.366856 0)
(-0.0426966 0.293863 0)
(-0.0122447 0.132537 0)
(-0.00753643 -0.100552 0)
(-0.0308609 -0.238258 0)
(-0.0598146 -0.315423 0)
(-0.0792105 -0.346306 0)
(-0.0849117 -0.346534 0)
(-0.0784049 -0.328646 0)
(-0.0626772 -0.301442 0)
(-0.040855 -0.270565 0)
(-0.0156357 -0.239367 0)
(0.0109154 -0.209679 0)
(0.0373428 -0.182385 0)
(0.0626888 -0.157812 0)
(0.0863699 -0.135976 0)
(0.108069 -0.116726 0)
(0.127652 -0.0998367 0)
(0.145101 -0.0850501 0)
(0.160472 -0.072107 0)
(0.173865 -0.0607575 0)
(0.185395 -0.0507673 0)
(0.195184 -0.0419189 0)
(0.203349 -0.0340109 0)
(0.209991 -0.0268563 0)
(0.215198 -0.0202798 0)
(0.219033 -0.0141151 0)
(0.221541 -0.0082022 0)
(0.22274 -0.00238442 0)
(0.222625 0.00349472 0)
(0.221164 0.00959457 0)
(0.2183 0.0160806 0)
(0.213949 0.0231279 0)
(0.208003 0.0309251 0)
(0.200327 0.0396781 0)
(0.190768 0.0496145 0)
(0.179154 0.0609874 0)
(0.165305 0.0740793 0)
(0.149048 0.0892036 0)
(0.130234 0.106702 0)
(0.108778 0.126935 0)
(0.0847033 0.150257 0)
(0.0582202 0.176963 0)
(0.0298266 0.207194 0)
(0.000448373 0.240756 0)
(-0.0283942 0.27683 0)
(-0.0544203 0.313492 0)
(-0.0745158 0.347008 0)
(-0.0849238 0.370894 0)
(-0.0818884 0.374913 0)
(-0.0632617 0.344499 0)
(-0.0331883 0.261798 0)
(-0.00819522 0.110969 0)
(-0.00521163 -0.0856473 0)
(-0.0240195 -0.211327 0)
(-0.0512142 -0.290261 0)
(-0.074222 -0.330129 0)
(-0.0880066 -0.341362 0)
(-0.0920621 -0.333513 0)
(-0.0876509 -0.314112 0)
(-0.0767301 -0.288576 0)
(-0.0613414 -0.260534 0)
(-0.0432742 -0.232271 0)
(-0.0239492 -0.205136 0)
(-0.00442101 -0.179851 0)
(0.0145702 -0.156742 0)
(0.0325346 -0.13589 0)
(0.0491705 -0.117229 0)
(0.0643127 -0.100615 0)
(0.0778905 -0.0858584 0)
(0.0898956 -0.0727525 0)
(0.100359 -0.0610853 0)
(0.109332 -0.0506473 0)
(0.116876 -0.0412348 0)
(0.12305 -0.0326517 0)
(0.127908 -0.0247084 0)
(0.131489 -0.0172211 0)
(0.133819 -0.0100099 0)
(0.134907 -0.00289649 0)
(0.134742 0.00429803 0)
(0.133293 0.0117561 0)
(0.130512 0.019666 0)
(0.126329 0.0282252 0)
(0.120658 0.0376425 0)
(0.113402 0.048141 0)
(0.104451 0.0599598 0)
(0.0936995 0.0733551 0)
(0.0810507 0.0885981 0)
(0.0664405 0.10597 0)
(0.049861 0.125751 0)
(0.0313991 0.148193 0)
(0.0112864 0.173479 0)
(-0.0100329 0.20165 0)
(-0.0318192 0.23248 0)
(-0.0529445 0.265295 0)
(-0.0718084 0.298681 0)
(-0.086307 0.330096 0)
(-0.0939439 0.35536 0)
(-0.0922126 0.368126 0)
(-0.0793329 0.359528 0)
(-0.0555579 0.318424 0)
(-0.0263574 0.232942 0)
(-0.00577301 0.094725 0)
(-0.00382031 -0.0741746 0)
(-0.0192818 -0.188066 0)
(-0.0440276 -0.265288 0)
(-0.0680468 -0.309931 0)
(-0.0864134 -0.328862 0)
(-0.0975956 -0.32914 0)
(-0.101681 -0.316896 0)
(-0.0996498 -0.296962 0)
(-0.0928574 -0.272879 0)
(-0.082684 -0.247104 0)
(-0.0703535 -0.221256 0)
(-0.0568673 -0.196339 0)
(-0.0429995 -0.172933 0)
(-0.0293201 -0.151325 0)
(-0.0162305 -0.131611 0)
(-0.00399923 -0.113765 0)
(0.00720506 -0.0976849 0)
(0.0172865 -0.0832212 0)
(0.0261997 -0.0701995 0)
(0.0339322 -0.0584322 0)
(0.0404915 -0.0477257 0)
(0.0458943 -0.037885 0)
(0.0501595 -0.0287156 0)
(0.0533023 -0.0200245 0)
(0.0553303 -0.0116189 0)
(0.0562407 -0.00330587 0)
(0.0560189 0.00510935 0)
(0.0546374 0.0138253 0)
(0.0520569 0.0230457 0)
(0.0482271 0.0329815 0)
(0.0430902 0.043852 0)
(0.0365853 0.055885 0)
(0.028656 0.0693168 0)
(0.0192604 0.0843884 0)
(0.0083858 0.101339 0)
(-0.00393096 0.120396 0)
(-0.0175768 0.141749 0)
(-0.0323274 0.165519 0)
(-0.0478031 0.191705 0)
(-0.0634181 0.220096 0)
(-0.0783264 0.250149 0)
(-0.0913779 0.280811 0)
(-0.101107 0.310291 0)
(-0.105796 0.335761 0)
(-0.103681 0.353058 0)
(-0.0933817 0.356455 0)
(-0.0745428 0.338702 0)
(-0.0487408 0.291597 0)
(-0.0215316 0.207438 0)
(-0.00430467 0.081987 0)
(-0.00295461 -0.0649692 0)
(-0.0159587 -0.167871 0)
(-0.0382936 -0.241496 0)
(-0.0620496 -0.287996 0)
(-0.082808 -0.311891 0)
(-0.0986162 -0.318321 0)
(-0.108848 -0.312139 0)
(-0.113763 -0.297464 0)
(-0.11412 -0.277545 0)
(-0.110875 -0.254806 0)
(-0.104984 -0.230972 0)
(-0.0973072 -0.207216 0)
(-0.0885662 -0.184294 0)
(-0.0793368 -0.16266 0)
(-0.0700603 -0.142549 0)
(-0.0610631 -0.124048 0)
(-0.052578 -0.107141 0)
(-0.0447651 -0.091744 0)
(-0.0377296 -0.0777279 0)
(-0.0315373 -0.0649361 0)
(-0.0262269 -0.0531942 0)
(-0.0218202 -0.0423173 0)
(-0.0183292 -0.0321143 0)
(-0.0157625 -0.02239 0)
(-0.014129 -0.0129467 0)
(-0.0134411 -0.00358379 0)
(-0.0137163 0.00590236 0)
(-0.0149775 0.0157188 0)
(-0.0172524 0.026077 0)
(-0.020571 0.0371924 0)
(-0.0249624 0.0492848 0)
(-0.0304487 0.0625758 0)
(-0.037037 0.0772858 0)
(-0.0447083 0.0936269 0)
(-0.0534022 0.111792 0)
(-0.0629981 0.131938 0)
(-0.0732909 0.154155 0)
(-0.083962 0.178431 0)
(-0.0945474 0.204588 0)
(-0.104405 0.232199 0)
(-0.112692 0.260479 0)
(-0.11836 0.288129 0)
(-0.120196 0.313171 0)
(-0.116939 0.332757 0)
(-0.107511 0.343023 0)
(-0.0914102 0.339062 0)
(-0.0691973 0.31516 0)
(-0.0430501 0.265414 0)
(-0.0180689 0.184898 0)
(-0.00337571 0.0716062 0)
(-0.0023898 -0.0573161 0)
(-0.0135735 -0.150135 0)
(-0.0337775 -0.219187 0)
(-0.0567024 -0.265586 0)
(-0.0785315 -0.292327 0)
(-0.0972295 -0.303139 0)
(-0.111784 -0.301803 0)
(-0.121965 -0.291737 0)
(-0.128067 -0.275803 0)
(-0.130666 -0.256268 0)
(-0.130442 -0.234842 0)
(-0.128073 -0.212769 0)
(-0.124179 -0.190911 0)
(-0.119289 -0.169834 0)
(-0.113839 -0.149886 0)
(-0.108172 -0.131248 0)
(-0.102554 -0.113982 0)
(-0.0971863 -0.0980681 0)
(-0.0922145 -0.0834255 0)
(-0.0877443 -0.069933 0)
(-0.083851 -0.0574409 0)
(-0.0805873 -0.0457809 0)
(-0.0779915 -0.0347718 0)
(-0.0760918 -0.0242233 0)
(-0.0749112 -0.013939 0)
(-0.0744696 -0.00371743 0)
(-0.0747856 0.00664673 0)
(-0.0758765 0.0173621 0)
(-0.0777573 0.0286399 0)
(-0.0804382 0.0406923 0)
(-0.0839207 0.0537306 0)
(-0.0881911 0.0679609 0)
(-0.0932126 0.0835781 0)
(-0.0989148 0.100756 0)
(-0.105179 0.119633 0)
(-0.111824 0.14029 0)
(-0.118583 0.162721 0)
(-0.125088 0.186788 0)
(-0.130846 0.212166 0)
(-0.135229 0.238265 0)
(-0.137469 0.264135 0)
(-0.136693 0.288357 0)
(-0.131984 0.30892 0)
(-0.122519 0.323131 0)
(-0.107791 0.327566 0)
(-0.0879216 0.318166 0)
(-0.0639981 0.290526 0)
(-0.0383722 0.240459 0)
(-0.0155139 0.164845 0)
(-0.00275585 0.0628764 0)
(-0.00200338 -0.0507671 0)
(-0.0118158 -0.134348 0)
(-0.030213 -0.198364 0)
(-0.0520987 -0.243369 0)
(-0.074224 -0.271371 0)
(-0.0946389 -0.285087 0)
(-0.112155 -0.287438 0)
(-0.126237 -0.281214 0)
(-0.13684 -0.268872 0)
(-0.144228 -0.252454 0)
(-0.14883 -0.233581 0)
(-0.151139 -0.21349 0)
(-0.151647 -0.193086 0)
(-0.150806 -0.173006 0)
(-0.149014 -0.15367 0)
(-0.146603 -0.135334 0)
(-0.143847 -0.118127 0)
(-0.140963 -0.102084 0)
(-0.13812 -0.0871692 0)
(-0.135452 -0.0732987 0)
(-0.133057 -0.0603502 0)
(-0.131013 -0.0481757 0)
(-0.129377 -0.0366088 0)
(-0.128191 -0.0254694 0)
(-0.127491 -0.0145681 0)
(-0.1273 -0.00370862 0)
(-0.127637 0.00730994 0)
(-0.128512 0.0186912 0)
(-0.129929 0.0306395 0)
(-0.131879 0.0433567 0)
(-0.134338 0.0570387 0)
(-0.137263 0.0718692 0)
(-0.140581 0.0880115 0)
(-0.144182 0.105596 0)
(-0.147907 0.124705 0)
(-0.151535 0.145347 0)
(-0.154772 0.167427 0)
(-0.157234 0.190705 0)
(-0.158446 0.214743 0)
(-0.157838 0.238842 0)
(-0.154768 0.261968 0)
(-0.148561 0.282674 0)
(-0.138595 0.299031 0)
(-0.124425 0.308597 0)
(-0.105978 0.308438 0)
(-0.0837879 0.295269 0)
(-0.0592018 0.265748 0)
(-0.0345165 0.216928 0)
(-0.0135689 0.146854 0)
(-0.00231957 0.0553554 0)
(-0.0017274 -0.045031 0)
(-0.0104865 -0.120114 0)
(-0.0273736 -0.178912 0)
(-0.0481872 -0.221679 0)
(-0.0701674 -0.249783 0)
(-0.0915205 -0.265213 0)
(-0.111009 -0.270226 0)
(-0.127921 -0.267075 0)
(-0.141978 -0.257832 0)
(-0.153204 -0.244295 0)
(-0.161816 -0.227945 0)
(-0.168134 -0.209964 0)
(-0.172519 -0.191252 0)
(-0.175335 -0.172473 0)
(-0.176919 -0.154093 0)
(-0.177574 -0.136417 0)
(-0.177558 -0.119624 0)
(-0.17709 -0.103796 0)
(-0.176347 -0.0889367 0)
(-0.175475 -0.074996 0)
(-0.174589 -0.0618794 0)
(-0.17378 -0.0494614 0)
(-0.173118 -0.037593 0)
(-0.172657 -0.0261085 0)
(-0.172437 -0.01483 0)
(-0.172486 -0.00357109 0)
(-0.172818 0.00785938 0)
(-0.17344 0.0196547 0)
(-0.174342 0.0320069 0)
(-0.175499 0.0451021 0)
(-0.176868 0.0591159 0)
(-0.17838 0.0742053 0)
(-0.179938 0.0904993 0)
(-0.181403 0.108085 0)
(-0.182593 0.12699 0)
(-0.18327 0.14716 0)
(-0.183135 0.168427 0)
(-0.181822 0.190472 0)
(-0.178903 0.212783 0)
(-0.173897 0.234603 0)
(-0.166302 0.254877 0)
(-0.155647 0.272204 0)
(-0.141569 0.284806 0)
(-0.123932 0.290532 0)
(-0.102973 0.286928 0)
(-0.0794726 0.271377 0)
(-0.0548729 0.241368 0)
(-0.0313071 0.194835 0)
(-0.0120439 0.130577 0)
(-0.0019976 0.048755 0)
(-0.00152292 -0.0399117 0)
(-0.00945695 -0.107126 0)
(-0.0250845 -0.160679 0)
(-0.0448734 -0.200665 0)
(-0.0664676 -0.22803 0)
(-0.088249 -0.244243 0)
(-0.109001 -0.251049 0)
(-0.127923 -0.25026 0)
(-0.144582 -0.243603 0)
(-0.158828 -0.232628 0)
(-0.170706 -0.218663 0)
(-0.180385 -0.202796 0)
(-0.188106 -0.185893 0)
(-0.194137 -0.168612 0)
(-0.198752 -0.151435 0)
(-0.202206 -0.134698 0)
(-0.204733 -0.118613 0)
(-0.206537 -0.103296 0)
(-0.207793 -0.0887845 0)
(-0.208649 -0.0750571 0)
(-0.209224 -0.0620457 0)
(-0.209617 -0.0496472 0)
(-0.209905 -0.0377318 0)
(-0.210147 -0.0261503 0)
(-0.210386 -0.0147396 0)
(-0.210651 -0.00332718 0)
(-0.210953 0.0082647 0)
(-0.211291 0.0202148 0)
(-0.211646 0.0326987 0)
(-0.21198 0.0458834 0)
(-0.212234 0.0599211 0)
(-0.212322 0.0749404 0)
(-0.212128 0.0910361 0)
(-0.211502 0.108255 0)
(-0.210251 0.126577 0)
(-0.208138 0.145895 0)
(-0.204879 0.165986 0)
(-0.200148 0.186481 0)
(-0.193581 0.206828 0)
(-0.1848 0.226254 0)
(-0.173449 0.243732 0)
(-0.159238 0.257955 0)
(-0.142025 0.267329 0)
(-0.121908 0.270009 0)
(-0.0993353 0.263969 0)
(-0.0752211 0.247153 0)
(-0.0510007 0.217681 0)
(-0.0286046 0.174117 0)
(-0.0108171 0.115741 0)
(-0.00175056 0.0428792 0)
(-0.00136679 -0.0352723 0)
(-0.00864296 -0.0951512 0)
(-0.0232165 -0.143517 0)
(-0.0420614 -0.180377 0)
(-0.0631484 -0.206397 0)
(-0.0850295 -0.222674 0)
(-0.106545 -0.230559 0)
(-0.126858 -0.231503 0)
(-0.145444 -0.226937 0)
(-0.162026 -0.218181 0)
(-0.176517 -0.206397 0)
(-0.188964 -0.192571 0)
(-0.199496 -0.177506 0)
(-0.208297 -0.161832 0)
(-0.215568 -0.146028 0)
(-0.221517 -0.130439 0)
(-0.226343 -0.115295 0)
(-0.230227 -0.100737 0)
(-0.233332 -0.0868266 0)
(-0.235798 -0.0735667 0)
(-0.237744 -0.0609122 0)
(-0.23927 -0.0487812 0)
(-0.240453 -0.0370632 0)
(-0.241354 -0.025627 0)
(-0.242017 -0.0143261 0)
(-0.242467 -0.00300422 0)
(-0.242713 0.00849985 0)
(-0.242747 0.0203477 0)
(-0.242542 0.0326959 0)
(-0.24205 0.0456902 0)
(-0.2412 0.0594584 0)
(-0.239897 0.0741013 0)
(-0.238017 0.0896817 0)
(-0.235405 0.10621 0)
(-0.231871 0.12363 0)
(-0.227193 0.141793 0)
(-0.221117 0.160442 0)
(-0.213368 0.17918 0)
(-0.203657 0.197444 0)
(-0.191712 0.214481 0)
(-0.177309 0.229324 0)
(-0.16032 0.24079 0)
(-0.140778 0.247484 0)
(-0.118952 0.247845 0)
(-0.095423 0.240228 0)
(-0.0711643 0.223026 0)
(-0.0475505 0.19484 0)
(-0.0263053 0.154676 0)
(-0.00981013 0.102127 0)
(-0.00155523 0.037589 0)
(-0.00124469 -0.0310143 0)
(-0.00798836 -0.0840095 0)
(-0.0216759 -0.127286 0)
(-0.0396685 -0.160809 0)
(-0.0601995 -0.185052 0)
(-0.0819739 -0.20084 0)
(-0.103902 -0.209225 0)
(-0.125149 -0.211367 0)
(-0.145133 -0.208442 0)
(-0.163494 -0.201562 0)
(-0.180045 -0.191732 0)
(-0.194732 -0.179823 0)
(-0.207595 -0.166565 0)
(-0.218735 -0.152545 0)
(-0.22829 -0.138218 0)
(-0.236417 -0.123926 0)
(-0.243274 -0.109906 0)
(-0.249017 -0.0963093 0)
(-0.25379 -0.0832154 0)
(-0.25772 -0.0706459 0)
(-0.260919 -0.0585748 0)
(-0.263482 -0.0469393 0)
(-0.265485 -0.0356477 0)
(-0.266987 -0.0245866 0)
(-0.268026 -0.0136273 0)
(-0.268627 -0.00263127 0)
(-0.268795 0.0085447 0)
(-0.268514 0.0200433 0)
(-0.267752 0.0320011 0)
(-0.266454 0.0445419 0)
(-0.264544 0.0577696 0)
(-0.261921 0.0717591 0)
(-0.25846 0.0865453 0)
(-0.254009 0.10211 0)
(-0.248394 0.118367 0)
(-0.241414 0.135145 0)
(-0.232857 0.152166 0)
(-0.222502 0.169027 0)
(-0.210139 0.185179 0)
(-0.195595 0.199913 0)
(-0.178765 0.212346 0)
(-0.159653 0.221429 0)
(-0.138429 0.225965 0)
(-0.115481 0.224653 0)
(-0.0914685 0.216169 0)
(-0.0673739 0.199264 0)
(-0.0444857 0.172905 0)
(-0.0243349 0.136405 0)
(-0.00897115 0.0895584 0)
(-0.00139734 0.0327812 0)
(-0.00114749 -0.0270642 0)
(-0.00745531 -0.0735588 0)
(-0.0203955 -0.111864 0)
(-0.0376291 -0.141925 0)
(-0.0575994 -0.164083 0)
(-0.0791441 -0.178964 0)
(-0.101247 -0.187386 0)
(-0.12309 -0.190277 0)
(-0.144067 -0.188597 0)
(-0.16376 -0.183273 0)
(-0.181911 -0.175164 0)
(-0.198386 -0.165026 0)
(-0.21315 -0.153507 0)
(-0.226234 -0.141141 0)
(-0.237717 -0.12835 0)
(-0.247707 -0.115458 0)
(-0.256325 -0.102697 0)
(-0.263694 -0.0902236 0)
(-0.269938 -0.0781259 0)
(-0.275168 -0.0664384 0)
(-0.279486 -0.0551506 0)
(-0.282976 -0.044216 0)
(-0.285711 -0.03356 0)
(-0.287742 -0.0230869 0)
(-0.289108 -0.0126858 0)
(-0.289825 -0.00223624 0)
(-0.289896 0.00838623 0)
(-0.2893 0.0193049 0)
(-0.288 0.0306361 0)
(-0.285938 0.0424825 0)
(-0.283034 0.0549259 0)
(-0.279189 0.0680181 0)
(-0.27428 0.0817714 0)
(-0.268169 0.0961461 0)
(-0.260698 0.111037 0)
(-0.251699 0.12626 0)
(-0.241 0.141534 0)
(-0.22844 0.156466 0)
(-0.213883 0.170542 0)
(-0.197245 0.18311 0)
(-0.178522 0.193386 0)
(-0.157827 0.200457 0)
(-0.135429 0.203312 0)
(-0.111796 0.200882 0)
(-0.08763 0.192108 0)
(-0.0638913 0.176028 0)
(-0.0417752 0.151878 0)
(-0.0226404 0.119193 0)
(-0.00826578 0.0778899 0)
(-0.00126785 0.0283762 0)
(-0.00106921 -0.0233655 0)
(-0.00701802 -0.0636844 0)
(-0.0193276 -0.097141 0)
(-0.0358934 -0.123673 0)
(-0.0553261 -0.14353 0)
(-0.0765757 -0.157185 0)
(-0.0986957 -0.165279 0)
(-0.120895 -0.16855 0)
(-0.142557 -0.167775 0)
(-0.163231 -0.163721 0)
(-0.182604 -0.15711 0)
(-0.200485 -0.148588 0)
(-0.216775 -0.138721 0)
(-0.231449 -0.12798 0)
(-0.244533 -0.116748 0)
(-0.25609 -0.105322 0)
(-0.266203 -0.0939211 0)
(-0.274967 -0.0826976 0)
(-0.282482 -0.0717431 0)
(-0.288842 -0.0610997 0)
(-0.294134 -0.0507681 0)
(-0.298434 -0.0407156 0)
(-0.301805 -0.0308828 0)
(-0.304294 -0.0211904 0)
(-0.305933 -0.0115448 0)
(-0.306735 -0.00184365 0)
(-0.306697 0.00801916 0)
(-0.305795 0.0181478 0)
(-0.30399 0.0286392 0)
(-0.30122 0.0395761 0)
(-0.297408 0.0510207 0)
(-0.292457 0.0630061 0)
(-0.286255 0.0755271 0)
(-0.278677 0.0885295 0)
(-0.269587 0.101899 0)
(-0.258851 0.11545 0)
(-0.246341 0.12891 0)
(-0.23195 0.141913 0)
(-0.215611 0.153988 0)
(-0.197318 0.164555 0)
(-0.177149 0.17293 0)
(-0.155302 0.178337 0)
(-0.132119 0.179933 0)
(-0.10812 0.17685 0)
(-0.0840189 0.168251 0)
(-0.0607434 0.153396 0)
(-0.0393956 0.131726 0)
(-0.0211852 0.102927 0)
(-0.00767086 0.0669961 0)
(-0.00116084 0.0243098 0)
(-0.00100587 -0.0198731 0)
(-0.00665884 -0.0542911 0)
(-0.0184387 -0.0830177 0)
(-0.0344248 -0.105992 0)
(-0.0533611 -0.123394 0)
(-0.0742909 -0.135587 0)
(-0.0963299 -0.143067 0)
(-0.118717 -0.146417 0)
(-0.140838 -0.146263 0)
(-0.162219 -0.143229 0)
(-0.182512 -0.137912 0)
(-0.201481 -0.130858 0)
(-0.218978 -0.122546 0)
(-0.23493 -0.113385 0)
(-0.24932 -0.103712 0)
(-0.262169 -0.0937902 0)
(-0.273529 -0.0838212 0)
(-0.283466 -0.0739455 0)
(-0.292056 -0.0642526 0)
(-0.299376 -0.054788 0)
(-0.305498 -0.0455597 0)
(-0.310489 -0.036546 0)
(-0.314401 -0.0277008 0)
(-0.317275 -0.0189598 0)
(-0.319136 -0.0102457 0)
(-0.319995 -0.00147313 0)
(-0.319842 0.00744605 0)
(-0.318653 0.016598 0)
(-0.316385 0.0260613 0)
(-0.312978 0.0359013 0)
(-0.308356 0.0461635 0)
(-0.30243 0.056866 0)
(-0.295098 0.0679918 0)
(-0.286252 0.0794794 0)
(-0.275781 0.0912137 0)
(-0.263583 0.103016 0)
(-0.24957 0.114635 0)
(-0.233689 0.12574 0)
(-0.21593 0.135912 0)
(-0.196352 0.14465 0)
(-0.175103 0.151371 0)
(-0.152441 0.155427 0)
(-0.128763 0.156127 0)
(-0.104617 0.152777 0)
(-0.0807175 0.14472 0)
(-0.0579495 0.131393 0)
(-0.0373304 0.112388 0)
(-0.0199441 0.0874996 0)
(-0.00717072 0.0567668 0)
(-0.00107237 0.0205282 0)
(-0.000954801 -0.0165496 0)
(-0.00636568 -0.0452973 0)
(-0.0177054 -0.0694039 0)
(-0.0331973 -0.0888132 0)
(-0.051691 -0.103658 0)
(-0.0723054 -0.11421 0)
(-0.09421 -0.120853 0)
(-0.116673 -0.124043 0)
(-0.139087 -0.124275 0)
(-0.160967 -0.122049 0)
(-0.181941 -0.117849 0)
(-0.201737 -0.112125 0)
(-0.220172 -0.105274 0)
(-0.237134 -0.0976403 0)
(-0.252567 -0.0895109 0)
(-0.266462 -0.0811143 0)
(-0.278838 -0.072626 0)
(-0.289738 -0.0641719 0)
(-0.299217 -0.0558345 0)
(-0.307333 -0.0476583 0)
(-0.314147 -0.0396562 0)
(-0.319711 -0.0318142 0)
(-0.324071 -0.0240976 0)
(-0.327261 -0.0164554 0)
(-0.329299 -0.00882544 0)
(-0.330191 -0.00113843 0)
(-0.329925 0.00667714 0)
(-0.328475 0.0146906 0)
(-0.325796 0.0229642 0)
(-0.321831 0.031548 0)
(-0.316507 0.0404737 0)
(-0.309744 0.049749 0)
(-0.30145 0.0593499 0)
(-0.291536 0.0692138 0)
(-0.279914 0.0792318 0)
(-0.266512 0.0892411 0)
(-0.251281 0.0990184 0)
(-0.23421 0.108274 0)
(-0.215342 0.116652 0)
(-0.194788 0.123728 0)
(-0.172749 0.129019 0)
(-0.149531 0.131996 0)
(-0.125565 0.132106 0)
(-0.101416 0.1288 0)
(-0.0777882 0.121572 0)
(-0.0555251 0.109999 0)
(-0.0355689 0.093785 0)
(-0.0188998 0.0727993 0)
(-0.00675473 0.0471014 0)
(-0.000999786 0.0169846 0)
(-0.000914186 -0.0133629 0)
(-0.00613028 -0.0366307 0)
(-0.0171116 -0.0562146 0)
(-0.0321932 -0.0720663 0)
(-0.0503067 -0.084281 0)
(-0.0706314 -0.0930623 0)
(-0.0923814 -0.0986992 0)
(-0.114851 -0.101541 0)
(-0.137444 -0.101969 0)
(-0.159667 -0.100376 0)
(-0.181133 -0.0971436 0)
(-0.201545 -0.0926282 0)
(-0.220693 -0.0871511 0)
(-0.238433 -0.0809918 0)
(-0.254681 -0.074385 0)
(-0.2694 -0.0675206 0)
(-0.282584 -0.0605458 0)
(-0.294254 -0.0535679 0)
(-0.304447 -0.0466588 0)
(-0.313205 -0.0398591 0)
(-0.320577 -0.0331829 0)
(-0.326604 -0.0266224 0)
(-0.331324 -0.0201521 0)
(-0.334764 -0.0137328 0)
(-0.336938 -0.00731595 0)
(-0.337847 -0.00084715 0)
(-0.337476 0.00572973 0)
(-0.335797 0.0124687 0)
(-0.332767 0.0194176 0)
(-0.328329 0.0266132 0)
(-0.322418 0.0340771 0)
(-0.314957 0.0418096 0)
(-0.30587 0.0497848 0)
(-0.295082 0.0579443 0)
(-0.282528 0.0661912 0)
(-0.268163 0.0743848 0)
(-0.251969 0.0823356 0)
(-0.233974 0.0898023 0)
(-0.21426 0.0964908 0)
(-0.192982 0.102057 0)
(-0.17038 0.106113 0)
(-0.146797 0.108241 0)
(-0.122684 0.108009 0)
(-0.0986145 0.104996 0)
(-0.0752796 0.0988183 0)
(-0.0534833 0.0891643 0)
(-0.034105 0.0758242 0)
(-0.018041 0.0587164 0)
(-0.00641571 0.0379061 0)
(-0.000941278 0.0136371 0)
(-0.00088281 -0.0102845 0)
(-0.00594705 -0.0282255 0)
(-0.0166464 -0.0433691 0)
(-0.0314003 -0.0556765 0)
(-0.0492027 -0.0652144 0)
(-0.0692792 -0.0721295 0)
(-0.0908793 -0.0766328 0)
(-0.11332 -0.0789816 0)
(-0.136012 -0.0794596 0)
(-0.158464 -0.0783604 0)
(-0.180275 -0.0759719 0)
(-0.201134 -0.0725655 0)
(-0.220806 -0.0683872 0)
(-0.239127 -0.0636528 0)
(-0.255991 -0.058545 0)
(-0.271336 -0.0532127 0)
(-0.285139 -0.0477724 0)
(-0.297403 -0.0423102 0)
(-0.308147 -0.0368844 0)
(-0.317404 -0.0315293 0)
(-0.325208 -0.0262582 0)
(-0.331595 -0.0210671 0)
(-0.336593 -0.015938 0)
(-0.340225 -0.0108421 0)
(-0.342499 -0.00574336 0)
(-0.343413 -0.000600876 0)
(-0.34295 0.00462737 0)
(-0.341082 0.00998157 0)
(-0.337765 0.0154967 0)
(-0.332945 0.021199 0)
(-0.326561 0.027102 0)
(-0.318546 0.0332026 0)
(-0.308831 0.0394763 0)
(-0.297358 0.0458732 0)
(-0.284078 0.0523135 0)
(-0.268969 0.0586831 0)
(-0.252042 0.0648309 0)
(-0.233352 0.0705667 0)
(-0.213015 0.075661 0)
(-0.191217 0.0798483 0)
(-0.168228 0.0828327 0)
(-0.144414 0.0842979 0)
(-0.120243 0.0839213 0)
(-0.0962894 0.0813917 0)
(-0.0732298 0.0764309 0)
(-0.0518354 0.0688157 0)
(-0.0329352 0.0584017 0)
(-0.0173602 0.0451404 0)
(-0.00614883 0.0290915 0)
(-0.000895616 0.0104467 0)
(-0.000859862 -0.00728836 0)
(-0.00581228 -0.0200202 0)
(-0.0163025 -0.0307892 0)
(-0.0308109 -0.039567 0)
(-0.0483759 -0.0463976 0)
(-0.0682571 -0.0513801 0)
(-0.0897301 -0.054658 0)
(-0.112129 -0.0564077 0)
(-0.134873 -0.0568252 0)
(-0.15747 -0.0561138 0)
(-0.179513 -0.0544747 0)
(-0.200678 -0.0520983 0)
(-0.220717 -0.0491583 0)
(-0.23945 -0.0458077 0)
(-0.256753 -0.0421769 0)
(-0.272549 -0.0383731 0)
(-0.2868 -0.0344802 0)
(-0.299494 -0.030561 0)
(-0.31064 -0.0266587 0)
(-0.32026 -0.0227989 0)
(-0.328381 -0.0189924 0)
(-0.33503 -0.0152376 0)
(-0.340231 -0.0115226 0)
(-0.344 -0.00782785 0)
(-0.346344 -0.00412831 0)
(-0.347257 -0.000395775 0)
(-0.346721 0.00339888 0)
(-0.344707 0.00728334 0)
(-0.341171 0.0112814 0)
(-0.336064 0.0154103 0)
(-0.329325 0.0196781 0)
(-0.320895 0.0240805 0)
(-0.310715 0.028598 0)
(-0.298736 0.0331924 0)
(-0.284925 0.0378043 0)
(-0.269276 0.04235 0)
(-0.251821 0.0467195 0)
(-0.232637 0.0507759 0)
(-0.211863 0.0543552 0)
(-0.189709 0.0572689 0)
(-0.166466 0.059309 0)
(-0.142516 0.0602546 0)
(-0.118335 0.0598822 0)
(-0.0944978 0.0579786 0)
(-0.0716678 0.0543548 0)
(-0.0505909 0.0488619 0)
(-0.032058 0.0414059 0)
(-0.0168527 0.0319598 0)
(-0.00595093 0.0205709 0)
(-0.000861972 0.00737685 0)
(-0.000844818 -0.00435009 0)
(-0.00572359 -0.011956 0)
(-0.0160755 -0.018398 0)
(-0.0304202 -0.023659 0)
(-0.0478251 -0.0277639 0)
(-0.0675719 -0.0307699 0)
(-0.0889534 -0.0327605 0)
(-0.111316 -0.0338385 0)
(-0.134083 -0.0341189 0)
(-0.156764 -0.0337213 0)
(-0.178949 -0.0327645 0)
(-0.200305 -0.0313614 0)
(-0.220577 -0.0296154 0)
(-0.239572 -0.0276178 0)
(-0.257157 -0.0254468 0)
(-0.273244 -0.0231668 0)
(-0.287785 -0.0208286 0)
(-0.300759 -0.0184705 0)
(-0.312168 -0.0161186 0)
(-0.322025 -0.0137891 0)
(-0.330352 -0.0114889 0)
(-0.337173 -0.00921744 0)
(-0.342505 -0.00696804 0)
(-0.346364 -0.00472933 0)
(-0.348751 -0.00248667 0)
(-0.349661 -0.000223499 0)
(-0.349075 0.00207728 0)
(-0.346961 0.00443184 0)
(-0.343279 0.00685396 0)
(-0.337978 0.00935342 0)
(-0.331003 0.0119343 0)
(-0.322298 0.0145933 0)
(-0.31181 0.0173178 0)
(-0.299498 0.020084 0)
(-0.285339 0.0228552 0)
(-0.269339 0.0255803 0)
(-0.251543 0.0281927 0)
(-0.232043 0.0306097 0)
(-0.210993 0.032733 0)
(-0.188618 0.0344501 0)
(-0.165223 0.0356375 0)
(-0.141199 0.0361646 0)
(-0.117027 0.0359004 0)
(-0.0932811 0.0347203 0)
(-0.0706148 0.0325148 0)
(-0.0497569 0.0291986 0)
(-0.0314732 0.024719 0)
(-0.0165158 0.0190625 0)
(-0.00581997 0.0122592 0)
(-0.000839809 0.00439227 0)
(-0.000837369 -0.00144616 0)
(-0.00567957 -0.00397585 0)
(-0.0159626 -0.0061199 0)
(-0.0302255 -0.00787254 0)
(-0.0475498 -0.00924185 0)
(-0.0672281 -0.0102465 0)
(-0.0885619 -0.010914 0)
(-0.110903 -0.011278 0)
(-0.133679 -0.0113764 0)
(-0.156399 -0.0112488 0)
(-0.17865 -0.0109343 0)
(-0.200098 -0.0104704 0)