/*--------------------------------*- C++ -*----------------------------------*\
  =========                 |
  \\      /  F ield         | OpenFOAM: The Open Source CFD Toolbox
   \\    /   O peration     | Website:  https://openfoam.org
    \\  /    A nd           | Version:  7
     \\/     M anipulation  |
\*---------------------------------------------------------------------------*/
FoamFile
{
    version     2.0;
    format      ascii;
    class       volVectorField;
    location    "0.0694";
    object      U;
}
// * * * * * * * * * * * * * * * * * * * * * * * * * * * * * * * * * * * * * //

dimensions      [0 1 -1 0 0 0 0];

internalField   nonuniform List<vector> 
2500
(
(3.06636e-05 -3.07715e-05 0)
(9.35197e-05 -3.78659e-05 0)
(0.000129867 -1.95739e-05 0)
(9.87444e-05 7.25053e-06 0)
(-1.24669e-05 3.48411e-05 0)
(-0.000202163 6.02729e-05 0)
(-0.000463228 8.23446e-05 0)
(-0.000786288 0.000100695 0)
(-0.00116089 0.000115334 0)
(-0.00157627 0.000126409 0)
(-0.00202179 0.00013412 0)
(-0.00248716 0.000138689 0)
(-0.00296259 0.000140342 0)
(-0.00343885 0.000139301 0)
(-0.00390731 0.000135788 0)
(-0.00436002 0.000130018 0)
(-0.00478967 0.000122203 0)
(-0.0051896 0.000112546 0)
(-0.00555384 0.000101249 0)
(-0.00587709 8.8511e-05 0)
(-0.00615471 7.45269e-05 0)
(-0.00638275 5.94935e-05 0)
(-0.00655796 4.36092e-05 0)
(-0.00667778 2.70761e-05 0)
(-0.00674036 1.01011e-05 0)
(-0.00674461 -7.10252e-06 0)
(-0.00669017 -2.43138e-05 0)
(-0.00657748 -4.13033e-05 0)
(-0.00640779 -5.7833e-05 0)
(-0.00618315 -7.36568e-05 0)
(-0.0059065 -8.85215e-05 0)
(-0.00558162 -0.000102168 0)
(-0.00521315 -0.000114332 0)
(-0.00480664 -0.00012475 0)
(-0.00436845 -0.000133158 0)
(-0.00390583 -0.000139297 0)
(-0.00342679 -0.000142918 0)
(-0.0029401 -0.000143781 0)
(-0.00245522 -0.000141666 0)
(-0.00198215 -0.000136368 0)
(-0.0015314 -0.00012771 0)
(-0.00111376 -0.000115543 0)
(-0.000740136 -9.97635e-05 0)
(-0.00042125 -8.03435e-05 0)
(-0.00016713 -5.74236e-05 0)
(1.36314e-05 -3.15494e-05 0)
(0.000115226 -4.0743e-06 0)
(0.000137379 2.1889e-05 0)
(9.47253e-05 3.88557e-05 0)
(3.02152e-05 3.01555e-05 0)
(3.81694e-05 -9.38662e-05 0)
(8.69657e-05 -8.61297e-05 0)
(3.88238e-05 1.63331e-05 0)
(-0.00016856 0.000156279 0)
(-0.000559982 0.000304587 0)
(-0.0011362 0.000446229 0)
(-0.00188532 0.000573336 0)
(-0.00278799 0.000682102 0)
(-0.00382061 0.000770926 0)
(-0.00495754 0.00083941 0)
(-0.00617238 0.000887836 0)
(-0.00743892 0.000916899 0)
(-0.00873166 0.000927538 0)
(-0.0100262 0.000920844 0)
(-0.0112996 0.000898004 0)
(-0.0125303 0.00086026 0)
(-0.0136985 0.000808883 0)
(-0.014786 0.000745168 0)
(-0.0157765 0.000670418 0)
(-0.0166554 0.000585948 0)
(-0.01741 0.000493087 0)
(-0.0180295 0.000393175 0)
(-0.018505 0.000287579 0)
(-0.0188295 0.00017769 0)
(-0.018998 6.49359e-05 0)
(-0.0190077 -4.92171e-05 0)
(-0.0188576 -0.000163259 0)
(-0.0185493 -0.000275634 0)
(-0.0180861 -0.000384744 0)
(-0.017474 -0.000488951 0)
(-0.0167211 -0.000586586 0)
(-0.0158378 -0.00067596 0)
(-0.0148369 -0.000755378 0)
(-0.0137335 -0.000823161 0)
(-0.012545 -0.000877667 0)
(-0.0112908 -0.000917319 0)
(-0.00999245 -0.000940636 0)
(-0.00867335 -0.000946268 0)
(-0.00735844 -0.000933035 0)
(-0.00607392 -0.00089998 0)
(-0.00484686 -0.000846433 0)
(-0.00370461 -0.000772106 0)
(-0.00267413 -0.000677238 0)
(-0.00178092 -0.000562863 0)
(-0.00104763 -0.000431295 0)
(-0.000491811 -0.000287102 0)
(-0.000122672 -0.000138805 0)
(6.3673e-05 -2.03275e-06 0)
(9.55116e-05 9.4459e-05 0)
(3.92029e-05 9.47298e-05 0)
(2.09103e-05 -0.000131787 0)
(-1.20605e-05 -3.90719e-05 0)
(-0.000228895 0.000234468 0)
(-0.000682626 0.000587407 0)
(-0.00139745 0.000962664 0)
(-0.00237444 0.00132564 0)
(-0.00359831 0.0016559 0)
(-0.00504308 0.00194198 0)
(-0.00667616 0.00217795 0)
(-0.00846118 0.00236124 0)
(-0.01036 0.00249147 0)
(-0.012334 0.00256963 0)
(-0.0143452 0.00259765 0)
(-0.0163569 0.00257806 0)
(-0.0183342 0.00251379 0)
(-0.0202443 0.00240805 0)
(-0.0220567 0.00226422 0)
(-0.0237435 0.0020858 0)
(-0.0252794 0.0018764 0)
(-0.0266419 0.00163967 0)
(-0.0278113 0.00137935 0)
(-0.0287709 0.00109923 0)
(-0.0295069 0.000803188 0)
(-0.0300085 0.000495168 0)
(-0.0302682 0.000179229 0)
(-0.0302814 -0.000140471 0)
(-0.0300472 -0.00045966 0)
(-0.0295676 -0.000773953 0)
(-0.0288484 -0.00107886 0)
(-0.0278987 -0.00136981 0)
(-0.0267312 -0.00164215 0)
(-0.0253622 -0.0018912 0)
(-0.0238113 -0.00211231 0)
(-0.022102 -0.0023009 0)
(-0.0202607 -0.00245252 0)
(-0.0183175 -0.00256295 0)
(-0.016305 -0.0026283 0)
(-0.0142587 -0.0026451 0)
(-0.0122162 -0.00261045 0)
(-0.0102168 -0.00252218 0)
(-0.00830062 -0.00237907 0)
(-0.0065078 -0.00218112 0)
(-0.00487734 -0.00193006 0)
(-0.00344541 -0.00162998 0)
(-0.00224335 -0.00128853 0)
(-0.00129477 -0.000918859 0)
(-0.000611522 -0.000542881 0)
(-0.000188487 -0.000196273 0)
(3.31784e-06 6.39809e-05 0)
(2.33847e-05 0.00013895 0)
(-4.39633e-06 -0.000104781 0)
(-0.00014836 0.000164373 0)
(-0.000578033 0.000687003 0)
(-0.00131939 0.00132642 0)
(-0.00238669 0.00199916 0)
(-0.00377722 0.00265064 0)
(-0.00547097 0.00324615 0)
(-0.00743593 0.00376462 0)
(-0.00963228 0.00419407 0)
(-0.0120153 0.00452852 0)
(-0.0145376 0.00476606 0)
(-0.0171509 0.00490761 0)
(-0.0198071 0.00495597 0)
(-0.0224595 0.00491528 0)
(-0.0250633 0.00479063 0)
(-0.0275764 0.00458771 0)
(-0.0299594 0.00431271 0)
(-0.0321759 0.00397211 0)
(-0.0341933 0.00357264 0)
(-0.0359823 0.00312122 0)
(-0.0375171 0.00262493 0)
(-0.0387759 0.00209101 0)
(-0.0397409 0.00152685 0)
(-0.0403981 0.000940018 0)
(-0.0407376 0.000338279 0)
(-0.0407537 -0.000270417 0)
(-0.0404451 -0.000877914 0)
(-0.0398147 -0.00147586 0)
(-0.0388701 -0.00205573 0)
(-0.0376233 -0.00260883 0)
(-0.0360909 -0.00312641 0)
(-0.034294 -0.00359965 0)
(-0.0322585 -0.00401984 0)
(-0.0300145 -0.00437843 0)
(-0.0275964 -0.00466718 0)
(-0.0250429 -0.00487836 0)
(-0.022396 -0.0050049 0)
(-0.0197012 -0.00504062 0)
(-0.0170065 -0.00498053 0)
(-0.0143616 -0.0048211 0)
(-0.0118173 -0.00456076 0)
(-0.00942389 -0.00420041 0)
(-0.00722974 -0.00374422 0)
(-0.00527952 -0.00320088 0)
(-0.00361166 -0.00258529 0)
(-0.00225548 -0.00192139 0)
(-0.00122708 -0.00124642 0)
(-0.000524423 -0.000616708 0)
(-0.000127183 -0.000115985 0)
(-6.96356e-07 0.000121704 0)
(-3.08443e-05 4.04162e-07 0)
(-0.000296146 0.000551884 0)
(-0.000959453 0.00140399 0)
(-0.0020103 0.00239622 0)
(-0.00344701 0.00342399 0)
(-0.00525932 0.00441508 0)
(-0.00742046 0.00532106 0)
(-0.00989174 0.00611091 0)
(-0.0126265 0.00676585 0)
(-0.0155729 0.00727575 0)
(-0.0186757 0.00763665 0)
(-0.0218786 0.00784893 0)
(-0.0251253 0.00791615 0)
(-0.0283608 0.00784412 0)
(-0.0315322 0.00764026 0)
(-0.0345895 0.00731316 0)
(-0.0374858 0.00687226 0)
(-0.0401779 0.00632762 0)
(-0.0426267 0.00568976 0)
(-0.0447971 0.00496956 0)
(-0.0466584 0.00417823 0)
(-0.0481845 0.00332726 0)
(-0.0493539 0.0024284 0)
(-0.05015 0.00149371 0)
(-0.0505609 0.000535548 0)
(-0.05058 -0.000433438 0)
(-0.0502056 -0.00140028 0)
(-0.0494415 -0.00235172 0)
(-0.0482967 -0.00327424 0)
(-0.0467855 -0.00415412 0)
(-0.044928 -0.00497753 0)
(-0.0427495 -0.00573065 0)
(-0.0402808 -0.00639979 0)
(-0.0375578 -0.00697162 0)
(-0.0346216 -0.00743337 0)
(-0.031518 -0.00777308 0)
(-0.0282969 -0.00797998 0)
(-0.0250121 -0.00804477 0)
(-0.0217201 -0.00796011 0)
(-0.0184794 -0.00772112 0)
(-0.0153496 -0.00732608 0)
(-0.0123893 -0.00677724 0)
(-0.009655 -0.00608196 0)
(-0.00719876 -0.00525435 0)
(-0.00506587 -0.00431748 0)
(-0.00329216 -0.00330662 0)
(-0.00190016 -0.00227403 0)
(-0.000894709 -0.00129468 0)
(-0.000270156 -0.000474189 0)
(-2.61609e-05 2.89776e-05 0)
(-5.60121e-05 0.0001844 0)
(-0.000443491 0.00113146 0)
(-0.00134674 0.0023985 0)
(-0.00271572 0.00381082 0)
(-0.00452939 0.00524835 0)
(-0.00676714 0.00662452 0)
(-0.00939337 0.00787889 0)
(-0.0123616 0.00897106 0)
(-0.0156181 0.00987559 0)
(-0.019104 0.010578 0)
(-0.0227572 0.011072 0)
(-0.0265142 0.0113574 0)
(-0.0303118 0.0114384 0)
(-0.0340879 0.0113224 0)
(-0.0377829 0.0110194 0)
(-0.04134 0.0105413 0)
(-0.0447061 0.00990118 0)
(-0.0478322 0.00911304 0)
(-0.0506738 0.00819181 0)
(-0.053191 0.00715293 0)
(-0.0553489 0.00601238 0)
(-0.0571176 0.00478659 0)
(-0.0584728 0.00349239 0)
(-0.0593954 0.00214708 0)
(-0.059872 0.000768357 0)
(-0.059895 -0.000625638 0)
(-0.0594625 -0.00201634 0)
(-0.0585789 -0.00338478 0)
(-0.0572543 -0.00471167 0)
(-0.0555052 -0.00597743 0)
(-0.0533543 -0.00716239 0)
(-0.0508305 -0.0082469 0)
(-0.0479685 -0.0092116 0)
(-0.0448094 -0.0100376 0)
(-0.0413996 -0.0107071 0)
(-0.037791 -0.0112032 0)
(-0.0340401 -0.011511 0)
(-0.0302076 -0.0116177 0)
(-0.0263574 -0.0115134 0)
(-0.0225556 -0.0111919 0)
(-0.018869 -0.0106513 0)
(-0.015364 -0.00989536 0)
(-0.0121044 -0.00893509 0)
(-0.00914954 -0.00779028 0)
(-0.00655199 -0.00649223 0)
(-0.00435534 -0.00508717 0)
(-0.00259063 -0.00364092 0)
(-0.00127245 -0.0022442 0)
(-0.000413319 -0.00101932 0)
(-5.04703e-05 -0.000140134 0)
(-7.92082e-05 0.00044411 0)
(-0.000585427 0.00190224 0)
(-0.00172698 0.00367284 0)
(-0.00341458 0.00557407 0)
(-0.0056064 0.00747535 0)
(-0.00826961 0.00927926 0)
(-0.0113582 0.0109155 0)
(-0.0148166 0.0123356 0)
(-0.0185835 0.0135082 0)
(-0.0225927 0.0144147 0)
(-0.0267754 0.0150467 0)
(-0.0310617 0.0154034 0)
(-0.0353819 0.0154897 0)
(-0.039668 0.015315 0)
(-0.0438542 0.014892 0)
(-0.0478783 0.0142361 0)
(-0.0516819 0.0133643 0)
(-0.0552109 0.0122951 0)
(-0.0584164 0.0110483 0)
(-0.0612543 0.00964441 0)
(-0.0636862 0.00810468 0)
(-0.0656792 0.00645107 0)
(-0.0672064 0.0047061 0)
(-0.0682467 0.0028929 0)
(-0.0687854 0.00103517 0)
(-0.0688139 -0.00084283 0)
(-0.0683303 -0.00271627 0)
(-0.0673391 -0.00455981 0)
(-0.0658516 -0.00634769 0)
(-0.0638858 -0.00805384 0)
(-0.0614667 -0.00965204 0)
(-0.0586257 -0.0111162 0)
(-0.0554014 -0.0124206 0)
(-0.0518386 -0.0135403 0)
(-0.0479885 -0.0144515 0)
(-0.0439079 -0.0151324 0)
(-0.0396591 -0.0155632 0)
(-0.0353088 -0.0157273 0)
(-0.0309273 -0.015612 0)
(-0.0265873 -0.0152094 0)
(-0.0223626 -0.0145176 0)
(-0.0183267 -0.0135418 0)
(-0.0145507 -0.0122964 0)
(-0.0111014 -0.0108067 0)
(-0.00803957 -0.00911182 0)
(-0.00541781 -0.00726787 0)
(-0.00327739 -0.00535237 0)
(-0.00164461 -0.0034687 0)
(-0.00055159 -0.00175134 0)
(-7.28948e-05 -0.000382885 0)
(-0.000100482 0.000775521 0)
(-0.000720589 0.00285933 0)
(-0.00209517 0.00522366 0)
(-0.00409756 0.00768407 0)
(-0.00666502 0.0101035 0)
(-0.00975141 0.0123768 0)
(-0.0132991 0.0144262 0)
(-0.0172427 0.0161967 0)
(-0.021512 0.017652 0)
(-0.0260336 0.0187704 0)
(-0.0307318 0.0195415 0)
(-0.0355303 0.0199644 0)
(-0.0403536 0.0200451 0)
(-0.0451279 0.0197951 0)
(-0.0497824 0.0192302 0)
(-0.0542497 0.0183693 0)
(-0.0584671 0.0172341 0)
(-0.0623762 0.0158478 0)
(-0.0659241 0.0142354 0)
(-0.0690636 0.012423 0)
(-0.0717531 0.0104375 0)
(-0.0739571 0.00830697 0)
(-0.0756467 0.00606005 0)
(-0.076799 0.00372621 0)
(-0.077398 0.00133567 0)
(-0.0774345 -0.00108066 0)
(-0.0769061 -0.00349114 0)
(-0.0758177 -0.00586353 0)
(-0.0741812 -0.00816504 0)
(-0.0720159 -0.0103625 0)
(-0.0693482 -0.0124227 0)
(-0.0662123 -0.0143124 0)
(-0.0626491 -0.015999 0)
(-0.058707 -0.0174509 0)
(-0.054441 -0.0186382 0)
(-0.0499122 -0.019533 0)
(-0.0451879 -0.0201105 0)
(-0.0403401 -0.02035 0)
(-0.0354449 -0.0202355 0)
(-0.0305812 -0.019757 0)
(-0.0258296 -0.0189123 0)
(-0.0212705 -0.0177077 0)
(-0.0169825 -0.0161607 0)
(-0.0130407 -0.0143016 0)
(-0.00951472 -0.0121763 0)
(-0.00646744 -0.00984941 0)
(-0.00395162 -0.00740824 0)
(-0.00200633 -0.0049661 0)
(-0.000683582 -0.00266611 0)
(-9.34426e-05 -0.000695454 0)
(-0.000120157 0.00117471 0)
(-0.000849333 0.00399656 0)
(-0.00245061 0.00704524 0)
(-0.00476229 0.0101364 0)
(-0.00770121 0.0131294 0)
(-0.0112075 0.0159139 0)
(-0.0152111 0.0184069 0)
(-0.0196358 0.0205488 0)
(-0.0244024 0.0222995 0)
(-0.0294293 0.0236349 0)
(-0.0346338 0.0245438 0)
(-0.0399331 0.0250255 0)
(-0.0452461 0.0250876 0)
(-0.0504937 0.0247441 0)
(-0.0556003 0.0240143 0)
(-0.0604942 0.0229211 0)
(-0.0651084 0.021491 0)
(-0.0693812 0.0197525 0)
(-0.0732564 0.017736 0)
(-0.0766837 0.0154736 0)
(-0.0796191 0.0129984 0)
(-0.082025 0.0103448 0)
(-0.0838705 0.00754807 0)
(-0.0851314 0.00464434 0)
(-0.0857906 0.00167077 0)
(-0.0858381 -0.00133463 0)
(-0.0852712 -0.00433301 0)
(-0.0840947 -0.00728477 0)
(-0.082321 -0.0101496 0)
(-0.0799702 -0.0128869 0)
(-0.0770701 -0.0154558 0)
(-0.0736564 -0.0178155 0)
(-0.0697725 -0.0199261 0)
(-0.0654693 -0.0217488 0)
(-0.0608051 -0.0232467 0)
(-0.055845 -0.0243858 0)
(-0.0506604 -0.0251357 0)
(-0.0453282 -0.0254708 0)
(-0.03993 -0.0253714 0)
(-0.0345509 -0.0248252 0)
(-0.0292778 -0.0238288 0)
(-0.0241985 -0.0223893 0)
(-0.0193997 -0.0205264 0)
(-0.0149652 -0.0182746 0)
(-0.0109746 -0.0156856 0)
(-0.00750169 -0.0128311 0)
(-0.0046118 -0.00980629 0)
(-0.00235735 -0.00673226 0)
(-0.000809774 -0.00375835 0)
(-0.000112444 -0.00107417 0)
(-0.00013861 0.00163832 0)
(-0.00097275 0.005308 0)
(-0.00279481 0.0091315 0)
(-0.00541027 0.0129259 0)
(-0.00871627 0.0165489 0)
(-0.0126391 0.0198873 0)
(-0.0170959 0.0228546 0)
(-0.0219991 0.0253882 0)
(-0.0272596 0.0274457 0)
(-0.0327874 0.0290019 0)
(-0.0384924 0.0300456 0)
(-0.0442854 0.030577 0)
(-0.0500793 0.030606 0)
(-0.0557903 0.0301496 0)
(-0.0613379 0.0292309 0)
(-0.0666467 0.0278777 0)
(-0.071646 0.0261213 0)
(-0.0762709 0.023996 0)
(-0.0804625 0.0215381 0)
(-0.084168 0.0187859 0)
(-0.0873414 0.015779 0)
(-0.0899432 0.0125585 0)
(-0.0919408 0.00916659 0)
(-0.093309 0.00564644 0)
(-0.0940295 0.00204244 0)
(-0.0940917 -0.00160001 0)
(-0.0934924 -0.00523451 0)
(-0.0922361 -0.00881375 0)
(-0.0903356 -0.0122896 0)
(-0.0878113 -0.0156135 0)
(-0.0846919 -0.0187366 0)
(-0.0810145 -0.0216101 0)
(-0.076824 -0.0241862 0)
(-0.0721736 -0.0264185 0)
(-0.0671243 -0.0282628 0)
(-0.0617445 -0.029678 0)
(-0.0561095 -0.0306277 0)
(-0.0503009 -0.0310807 0)
(-0.0444054 -0.0310132 0)
(-0.0385142 -0.0304096 0)
(-0.032721 -0.0292649 0)
(-0.0271212 -0.027586 0)
(-0.0218099 -0.0253942 0)
(-0.0168805 -0.0227269 0)
(-0.0124232 -0.0196404 0)
(-0.00852383 -0.0162123 0)
(-0.00526068 -0.0125442 0)
(-0.00269981 -0.00876311 0)
(-0.000931486 -0.00502331 0)
(-0.000130313 -0.00151604 0)
(-0.000156203 0.00216378 0)
(-0.00109219 0.00678872 0)
(-0.00313032 0.0114771 0)
(-0.00604502 0.0160479 0)
(-0.00971452 0.0203585 0)
(-0.0140513 0.0242942 0)
(-0.0189594 0.027767 0)
(-0.0243395 0.0307126 0)
(-0.0300922 0.033088 0)
(-0.0361186 0.0348678 0)
(-0.0423208 0.036042 0)
(-0.048603 0.0366128 0)
(-0.0548725 0.0365928 0)
(-0.0610401 0.036003 0)
(-0.0670214 0.0348709 0)
(-0.0727369 0.0332294 0)
(-0.078113 0.0311155 0)
(-0.0830819 0.0285692 0)
(-0.0875823 0.0256333 0)
(-0.0915595 0.0223527 0)
(-0.0949655 0.0187737 0)
(-0.0977593 0.0149444 0)
(-0.0999073 0.010914 0)
(-0.101383 0.00673315 0)
(-0.102167 0.00245355 0)
(-0.102248 -0.00187173 0)
(-0.101623 -0.00618852 0)
(-0.100295 -0.0104415 0)
(-0.0982769 -0.0145745 0)
(-0.0955898 -0.0185307 0)
(-0.0922627 -0.0222527 0)
(-0.0883332 -0.0256836 0)
(-0.0838477 -0.0287672 0)
(-0.078861 -0.0314487 0)
(-0.0734364 -0.033676 0)
(-0.0676453 -0.0354009 0)
(-0.0615664 -0.0365796 0)
(-0.0552857 -0.0371751 0)
(-0.0488952 -0.0371584 0)
(-0.0424919 -0.0365099 0)
(-0.0361769 -0.035222 0)
(-0.0300532 -0.0333006 0)
(-0.0242254 -0.0307672 0)
(-0.0187967 -0.0276614 0)
(-0.0138689 -0.024043 0)
(-0.00954055 -0.0199939 0)
(-0.00590334 -0.0156207 0)
(-0.00303709 -0.0110559 0)
(-0.00105037 -0.0064576 0)
(-0.000147459 -0.00201896 0)
(-0.000173254 0.0027493 0)
(-0.00120904 0.00843517 0)
(-0.00346008 0.0140782 0)
(-0.00667105 0.019499 0)
(-0.0107018 0.0245555 0)
(-0.0154511 0.029133 0)
(-0.0208098 0.0331428 0)
(-0.0266664 0.036521 0)
(-0.0329109 0.039225 0)
(-0.0394349 0.0412307 0)
(-0.0461328 0.0425302 0)
(-0.0529018 0.0431289 0)
(-0.0596432 0.0430433 0)
(-0.066263 0.0422987 0)
(-0.0726726 0.040928 0)
(-0.0787892 0.0389696 0)
(-0.084536 0.0364665 0)
(-0.0898429 0.0334655 0)
(-0.0946466 0.0300158 0)
(-0.0988906 0.0261692 0)
(-0.102526 0.021979 0)
(-0.105509 0.0175005 0)
(-0.107807 0.0127902 0)
(-0.109391 0.00790617 0)
(-0.110242 0.00290773 0)
(-0.110347 -0.00214431 0)
(-0.109702 -0.00718783 0)
(-0.10831 -0.0121594 0)
(-0.106184 -0.0169945 0)
(-0.103345 -0.0216278 0)
(-0.0998207 -0.0259933 0)
(-0.09565 -0.0300252 0)
(-0.0908798 -0.0336586 0)
(-0.0855662 -0.03683 0)
(-0.0797744 -0.0394788 0)
(-0.0735782 -0.0415483 0)
(-0.0670597 -0.0429875 0)
(-0.060309 -0.0437522 0)
(-0.0534234 -0.0438072 0)
(-0.0465059 -0.0431283 0)
(-0.0396648 -0.0417039 0)
(-0.0330119 -0.0395378 0)
(-0.0266611 -0.0366508 0)
(-0.0207267 -0.0330834 0)
(-0.0153226 -0.0288974 0)
(-0.0105604 -0.0241783 0)
(-0.00654603 -0.019037 0)
(-0.00337312 -0.01361 0)
(-0.00116819 -0.00805967 0)
(-0.000164259 -0.0025818 0)
(-0.000190038 0.00339385 0)
(-0.00132462 0.0102453 0)
(-0.00378709 0.0169324 0)
(-0.00729311 0.0232774 0)
(-0.0116845 0.029139 0)
(-0.0168464 0.0344032 0)
(-0.0226562 0.0389823 0)
(-0.0289901 0.0428137 0)
(-0.0357268 0.0458567 0)
(-0.0427487 0.0480899 0)
(-0.0499416 0.049509 0)
(-0.0571958 0.0501233 0)
(-0.0644066 0.0499542 0)
(-0.0714753 0.0490326 0)
(-0.078309 0.0473973 0)
(-0.0848218 0.045093 0)
(-0.0909342 0.0421694 0)
(-0.0965742 0.03868 0)
(-0.101677 0.0346812 0)
(-0.106184 0.0302318 0)
(-0.110045 0.0253926 0)
(-0.113217 0.020226 0)
(-0.115665 0.014796 0)
(-0.117359 0.00916804 0)
(-0.11828 0.00340926 0)
(-0.118414 -0.0024118 0)
(-0.117757 -0.00822498 0)
(-0.11631 -0.0139587 0)
(-0.114086 -0.0195399 0)
(-0.111104 -0.0248945 0)
(-0.107394 -0.0299477 0)
(-0.102992 -0.0346246 0)
(-0.0979477 -0.038851 0)
(-0.0923163 -0.0425542 0)
(-0.0861648 -0.0456643 0)
(-0.0795692 -0.0481158 0)
(-0.0726146 -0.0498489 0)
(-0.0653951 -0.0508117 0)
(-0.0580129 -0.0509618 0)
(-0.0505776 -0.0502688 0)
(-0.0432049 -0.0487163 0)
(-0.0360154 -0.0463046 0)
(-0.0291334 -0.0430525 0)
(-0.0226848 -0.0390001 0)
(-0.0167959 -0.0342102 0)
(-0.0115928 -0.0287709 0)
(-0.00719549 -0.0227963 0)
(-0.00371197 -0.0164272 0)
(-0.00128665 -0.00982995 0)
(-0.000181057 -0.00320439 0)
(-0.000206792 0.00409708 0)
(-0.00144013 0.0122184 0)
(-0.00411421 0.0200394 0)
(-0.00791588 0.0273832 0)
(-0.012669 0.0341094 0)
(-0.0182451 0.0401057 0)
(-0.0245078 0.0452865 0)
(-0.0313206 0.0495917 0)
(-0.038551 0.0529838 0)
(-0.0460714 0.0554457 0)
(-0.0537591 0.0569774 0)
(-0.0614971 0.0575941 0)
(-0.0691751 0.0573229 0)
(-0.0766892 0.0562013 0)
(-0.0839428 0.0542746 0)
(-0.090847 0.0515949 0)
(-0.09732 0.0482191 0)
(-0.103288 0.044208 0)
(-0.108684 0.0396254 0)
(-0.113451 0.0345376 0)
(-0.117535 0.0290126 0)
(-0.120895 0.0231204 0)
(-0.123492 0.0169325 0)
(-0.1253 0.0105217 0)
(-0.126295 0.00396288 0)
(-0.126464 -0.00266771 0)
(-0.125801 -0.00929195 0)
(-0.124309 -0.01583 0)
(-0.121997 -0.0222003 0)
(-0.118884 -0.02832 0)
(-0.114999 -0.0341051 0)
(-0.110379 -0.0394714 0)
(-0.10507 -0.0443348 0)
(-0.0991308 -0.0486129 0)
(-0.0926279 -0.0522261 0)
(-0.085639 -0.0550988 0)
(-0.0782521 -0.0571618 0)
(-0.0705649 -0.0583541 0)
(-0.0626847 -0.058625 0)
(-0.0547273 -0.0579366 0)
(-0.0468165 -0.0562663 0)
(-0.039082 -0.0536095 0)
(-0.0316589 -0.0499817 0)
(-0.0246854 -0.045421 0)
(-0.0183013 -0.0399905 0)
(-0.0126472 -0.0337794 0)
(-0.00785851 -0.0269049 0)
(-0.00405766 -0.0195117 0)
(-0.00140742 -0.0117709 0)
(-0.000198161 -0.00388746 0)
(-0.000223717 0.00485925 0)
(-0.00155667 0.0143553 0)
(-0.00444406 0.0234004 0)
(-0.00854374 0.0318179 0)
(-0.0136615 0.0394689 0)
(-0.0196547 0.0462431 0)
(-0.0263732 0.0520578 0)
(-0.0336674 0.0568569 0)
(-0.0413933 0.0606076 0)
(-0.0494129 0.0632982 0)
(-0.0575949 0.0649349 0)
(-0.0658151 0.0655394 0)
(-0.073957 0.0651464 0)
(-0.0819122 0.0638005 0)
(-0.0895806 0.0615552 0)
(-0.0968702 0.0584702 0)
(-0.103697 0.0546104 0)
(-0.109987 0.0500445 0)
(-0.115672 0.044844 0)
(-0.120693 0.0390829 0)
(-0.124997 0.0328369 0)
(-0.128542 0.0261833 0)
(-0.13129 0.019201 0)
(-0.133212 0.0119704 0)
(-0.134285 0.00457371 0)
(-0.134496 -0.00290508 0)
(-0.133836 -0.01038 0)
(-0.132308 -0.0177631 0)
(-0.129919 -0.0249645 0)
(-0.126688 -0.0318922 0)
(-0.122642 -0.0384532 0)
(-0.117816 -0.0445535 0)
(-0.112256 -0.0500989 0)
(-0.106021 -0.0549966 0)
(-0.0991763 -0.0591563 0)
(-0.091802 -0.0624918 0)
(-0.083988 -0.0649233 0)
(-0.0758354 -0.0663794 0)
(-0.0674564 -0.0667996 0)
(-0.0589733 -0.0661373 0)
(-0.0505176 -0.0643619 0)
(-0.042229 -0.0614624 0)
(-0.0342537 -0.0574494 0)
(-0.0267429 -0.0523579 0)
(-0.0198507 -0.0462496 0)
(-0.0137332 -0.0392144 0)
(-0.00854173 -0.0313719 0)
(-0.00441407 -0.0228705 0)
(-0.00153204 -0.0138869 0)
(-0.00021585 -0.0046326 0)
(-0.000240985 0.00568116 0)
(-0.00167518 0.0166579 0)
(-0.00477903 0.0270182 0)
(-0.00918071 0.0365851 0)
(-0.0146674 0.0452211 0)
(-0.0210821 0.0528188 0)
(-0.0282603 0.0592994 0)
(-0.036039 0.0646117 0)
(-0.044262 0.0687294 0)
(-0.0527811 0.0716474 0)
(-0.0614561 0.0733798 0)
(-0.0701554 0.0739564 0)
(-0.0787567 0.0734202 0)
(-0.087147 0.0718249 0)
(-0.0952227 0.0692327 0)
(-0.10289 0.0657119 0)
(-0.110063 0.0613363 0)
(-0.116666 0.0561827 0)
(-0.122632 0.050331 0)
(-0.1279 0.043863 0)
(-0.13242 0.0368621 0)
(-0.136147 0.0294131 0)
(-0.139044 0.0216021 0)
(-0.141081 0.0135169 0)
(-0.142237 0.00524698 0)
(-0.142495 -0.00311641 0)
(-0.141848 -0.0114796 0)
(-0.140295 -0.0197468 0)
(-0.137843 -0.0278196 0)
(-0.134508 -0.0355974 0)
(-0.130316 -0.0429778 0)
(-0.1253 -0.0498568 0)
(-0.119505 -0.0561298 0)
(-0.112988 -0.0616931 0)
(-0.105815 -0.0664448 0)
(-0.0980657 -0.0702872 0)
(-0.0898323 -0.0731286 0)
(-0.0812189 -0.0748859 0)
(-0.0723422 -0.0754874 0)
(-0.0633306 -0.0748757 0)
(-0.054324 -0.073011 0)
(-0.045472 -0.0698737 0)
(-0.0369326 -0.065468 0)
(-0.0288707 -0.0598243 0)
(-0.0214556 -0.0530015 0)
(-0.0148598 -0.0450893 0)
(-0.00925148 -0.0362089 0)
(-0.0047849 -0.0265131 0)
(-0.00166197 -0.0161841 0)
(-0.00023438 -0.00544217 0)
(-0.000258747 0.00656408 0)
(-0.00179653 0.0191293 0)
(-0.00512129 0.0308971 0)
(-0.00983043 0.0416896 0)
(-0.0156918 0.0513712 0)
(-0.0225335 0.0598374 0)
(-0.030176 0.0670148 0)
(-0.0384422 0.0728586 0)
(-0.0471639 0.0773499 0)
(-0.0561818 0.0804924 0)
(-0.0653469 0.0823092 0)
(-0.0745202 0.0828401 0)
(-0.0835738 0.082138 0)
(-0.0923902 0.0802667 0)
(-0.100863 0.0772981 0)
(-0.108896 0.0733106 0)
(-0.116404 0.068387 0)
(-0.123309 0.0626134 0)
(-0.129545 0.0560781 0)
(-0.135052 0.048871 0)
(-0.139779 0.0410833 0)
(-0.143682 0.0328071 0)
(-0.146726 0.0241357 0)
(-0.14888 0.0151638 0)
(-0.150121 0.00598788 0)
(-0.150434 -0.00329375 0)
(-0.149809 -0.0125802 0)
(-0.148243 -0.0217681 0)
(-0.145743 -0.0307509 0)
(-0.142322 -0.0394194 0)
(-0.138002 -0.0476618 0)
(-0.132815 -0.0553641 0)
(-0.126804 -0.062411 0)
(-0.120023 -0.0686871 0)
(-0.112539 -0.0740784 0)
(-0.104429 -0.0784743 0)
(-0.0957882 -0.0817702 0)
(-0.0867218 -0.0838697 0)
(-0.0773512 -0.0846882 0)
(-0.0678109 -0.0841557 0)
(-0.0582487 -0.0822209 0)
(-0.0488247 -0.0788541 0)
(-0.0397092 -0.0740509 0)
(-0.0310814 -0.0678352 0)
(-0.0231268 -0.0602621 0)
(-0.0160355 -0.0514196 0)
(-0.00999381 -0.0414303 0)
(-0.00517365 -0.0304511 0)
(-0.0017986 -0.0186708 0)
(-0.000253991 -0.00631927 0)
(-0.000277139 0.00750971 0)
(-0.0019215 0.0217736 0)
(-0.00547278 0.0350426 0)
(-0.0104962 0.0471378 0)
(-0.0167393 0.0579251 0)
(-0.0240143 0.0673044 0)
(-0.032126 0.0752083 0)
(-0.0408828 0.0815997 0)
(-0.0501036 0.0864691 0)
(-0.0596181 0.0898306 0)
(-0.0692682 0.0917183 0)
(-0.0789076 0.0921833 0)
(-0.0884029 0.0912903 0)
(-0.0976329 0.0891144 0)
(-0.106489 0.0857389 0)
(-0.114873 0.0812529 0)
(-0.122699 0.0757493 0)
(-0.129891 0.0693238 0)
(-0.136382 0.0620736 0)
(-0.142114 0.054097 0)
(-0.147038 0.0454927 0)
(-0.15111 0.0363603 0)
(-0.154296 0.0267997 0)
(-0.156565 0.0169125 0)
(-0.157895 0.00680129 0)
(-0.158268 -0.0034288 0)
(-0.157675 -0.0136702 0)
(-0.156111 -0.0238124 0)
(-0.15358 -0.0337411 0)
(-0.150092 -0.0433389 0)
(-0.145666 -0.0524847 0)
(-0.140332 -0.0610543 0)
(-0.134129 -0.0689215 0)
(-0.127108 -0.0759586 0)
(-0.119334 -0.0820389 0)
(-0.110884 -0.0870379 0)
(-0.101851 -0.0908363 0)
(-0.0923443 -0.0933231 0)
(-0.0824876 -0.0943986 0)
(-0.0724214 -0.0939785 0)
(-0.0623015 -0.0919976 0)
(-0.0522983 -0.0884136 0)
(-0.0425951 -0.0832116 0)
(-0.0333862 -0.076407 0)
(-0.0248743 -0.0680492 0)
(-0.0172683 -0.0582234 0)
(-0.0107744 -0.047053 0)
(-0.00558365 -0.0346986 0)
(-0.00194323 -0.0213565 0)
(-0.000274909 -0.00726772 0)
(-0.000296286 0.00852014 0)
(-0.00205083 0.0245959 0)
(-0.00583536 0.0394617 0)
(-0.0111811 0.0529372 0)
(-0.017814 0.0648903 0)
(-0.0255293 0.0752257 0)
(-0.0341152 0.0838836 0)
(-0.043365 0.0908363 0)
(-0.0530838 0.0960854 0)
(-0.0630905 0.0996571 0)
(-0.0732173 0.101599 0)
(-0.0833112 0.101975 0)
(-0.0932333 0.100863 0)
(-0.102859 0.0983524 0)
(-0.112078 0.0945379 0)
(-0.120792 0.0895208 0)
(-0.128916 0.083405 0)
(-0.136373 0.0762964 0)
(-0.1431 0.0683016 0)
(-0.14904 0.0595271 0)
(-0.154146 0.0500794 0)
(-0.158375 0.0400649 0)
(-0.161695 0.0295903 0)
(-0.164076 0.0187629 0)
(-0.165496 0.00769149 0)
(-0.165937 -0.00351302 0)
(-0.165387 -0.014737 0)
(-0.16384 -0.0258632 0)
(-0.161297 -0.0367705 0)
(-0.157765 -0.0473332 0)
(-0.15326 -0.0574216 0)
(-0.147807 -0.0669013 0)
(-0.141441 -0.0756349 0)
(-0.134209 -0.0834823 0)
(-0.126174 -0.0903027 0)
(-0.117409 -0.095957 0)
(-0.108008 -0.10031 0)
(-0.0980788 -0.103233 0)
(-0.0877493 -0.104611 0)
(-0.0771645 -0.104342 0)
(-0.0664882 -0.102344 0)
(-0.0559012 -0.0985609 0)
(-0.0456 -0.0929634 0)
(-0.035795 -0.0855565 0)
(-0.0267071 -0.0763819 0)
(-0.0185658 -0.0655208 0)
(-0.0115987 -0.0530959 0)
(-0.00601811 -0.0392719 0)
(-0.00209714 -0.0242527 0)
(-0.000297356 -0.00829199 0)
(-0.000316311 0.00959782 0)
(-0.00218522 0.027602 0)
(-0.00621079 0.0441622 0)
(-0.0118881 0.0590962 0)
(-0.0189197 0.0722744 0)
(-0.0270828 0.0836075 0)
(-0.0361478 0.0930441 0)
(-0.0458915 0.100568 0)
(-0.0561055 0.106195 0)
(-0.0665966 0.109964 0)
(-0.0771881 0.111939 0)
(-0.0877199 0.112199 0)
(-0.0980486 0.110838 0)
(-0.108047 0.107959 0)
(-0.117603 0.103672 0)
(-0.12662 0.0980903 0)
(-0.135013 0.0913302 0)
(-0.142709 0.0835083 0)
(-0.149646 0.0747407 0)
(-0.15577 0.0651425 0)
(-0.161037 0.0548278 0)
(-0.165408 0.0439096 0)
(-0.168851 0.0325005 0)
(-0.171338 0.0207132 0)
(-0.172847 0.00866179 0)
(-0.173361 -0.00353785 0)
(-0.172865 -0.0157667 0)
(-0.171353 -0.0279019 0)
(-0.16882 -0.0398159 0)
(-0.165272 -0.0513756 0)
(-0.160719 -0.0624428 0)
(-0.15518 -0.0728735 0)
(-0.148687 -0.0825188 0)
(-0.141282 -0.0912258 0)
(-0.13302 -0.0988393 0)
(-0.123975 -0.105204 0)
(-0.114235 -0.110167 0)
(-0.10391 -0.113582 0)
(-0.0931271 -0.115313 0)
(-0.0820371 -0.11524 0)
(-0.0708105 -0.113261 0)
(-0.0596385 -0.109302 0)
(-0.0487314 -0.103318 0)
(-0.0383161 -0.0953005 0)
(-0.0286334 -0.0852805 0)
(-0.019935 -0.0733332 0)
(-0.012472 -0.0595802 0)
(-0.00648016 -0.0441891 0)
(-0.00226159 -0.0273723 0)
(-0.000321552 -0.00939722 0)
(-0.00033734 0.0107456 0)
(-0.00232541 0.0307987 0)
(-0.00660091 0.0491532 0)
(-0.0126202 0.0656246 0)
(-0.0200603 0.0800862 0)
(-0.0286788 0.0924557 0)
(-0.0382269 0.102693 0)
(-0.0484642 0.110794 0)
(-0.0591675 0.116791 0)
(-0.0701316 0.12074 0)
(-0.0811706 0.122722 0)
(-0.092118 0.122835 0)
(-0.102826 0.12119 0)
(-0.113166 0.117907 0)
(-0.123026 0.113111 0)
(-0.13231 0.10693 0)
(-0.140936 0.0994935 0)
(-0.148835 0.0909291 0)
(-0.155949 0.0813629 0)
(-0.162228 0.0709187 0)
(-0.16763 0.0597175 0)
(-0.172122 0.0478787 0)
(-0.175672 0.0355201 0)
(-0.178256 0.0227592 0)
(-0.179852 0.00971416 0)
(-0.180443 -0.00349493 0)
(-0.180013 -0.0167448 0)
(-0.178554 -0.0299079 0)
(-0.176057 -0.042851 0)
(-0.172523 -0.0554349 0)
(-0.167958 -0.0675132 0)
(-0.162375 -0.0789328 0)
(-0.155798 -0.0895334 0)
(-0.148263 -0.0991491 0)
(-0.139821 -0.107609 0)
(-0.130538 -0.114742 0)
(-0.120499 -0.120375 0)
(-0.109812 -0.124342 0)
(-0.0986043 -0.126484 0)
(-0.0870297 -0.126659 0)
(-0.0752652 -0.124744 0)
(-0.063512 -0.120641 0)
(-0.0519943 -0.114286 0)
(-0.0409565 -0.105655 0)
(-0.0306607 -0.0947654 0)
(-0.0213825 -0.0816838 0)
(-0.0133993 -0.0665287 0)
(-0.00697291 -0.0494703 0)
(-0.00243785 -0.0307297 0)
(-0.000347726 -0.0105892 0)
(-0.000359516 0.0119666 0)
(-0.00247222 0.0341939 0)
(-0.00700771 0.0544449 0)
(-0.0133804 0.0725328 0)
(-0.0212397 0.0883345 0)
(-0.0303212 0.101776 0)
(-0.0403557 0.11283 0)
(-0.0510838 0.121509 0)
(-0.0622669 0.127862 0)
(-0.0736878 0.131967 0)
(-0.0851511 0.133925 0)
(-0.0964844 0.133855 0)
(-0.107537 0.131887 0)
(-0.118179 0.128159 0)
(-0.1283 0.122816 0)
(-0.137806 0.116 0)
(-0.146621 0.107855 0)
(-0.154679 0.0985208 0)
(-0.161927 0.0881329 0)
(-0.168322 0.0768238 0)
(-0.173827 0.0647216 0)
(-0.178411 0.0519511 0)
(-0.182048 0.0386347 0)
(-0.184715 0.0248934 0)
(-0.186393 0.0108487 0)
(-0.187064 -0.00337641 0)
(-0.186713 -0.0176557 0)
(-0.185326 -0.031858 0)
(-0.182893 -0.045846 0)
(-0.17941 -0.0594748 0)
(-0.174874 -0.0725913 0)
(-0.169294 -0.0850335 0)
(-0.162685 -0.0966303 0)
(-0.155075 -0.107203 0)
(-0.146507 -0.116565 0)
(-0.137039 -0.124526 0)
(-0.126753 -0.130893 0)
(-0.115749 -0.135477 0)
(-0.104155 -0.138096 0)
(-0.0921256 -0.138579 0)
(-0.0798436 -0.13678 0)
(-0.0675194 -0.132574 0)
(-0.0553911 -0.125874 0)
(-0.0437216 -0.116635 0)
(-0.0327954 -0.104857 0)
(-0.0229147 -0.0905965 0)
(-0.0143856 -0.073966 0)
(-0.00749953 -0.0551377 0)
(-0.00262723 -0.0343409 0)
(-0.000376119 -0.0118744 0)
(-0.000383005 0.0132646 0)
(-0.00262659 0.0377963 0)
(-0.00743348 0.0600487 0)
(-0.0141724 0.0798323 0)
(-0.0224623 0.0970286 0)
(-0.0320145 0.111574 0)
(-0.0425369 0.123455 0)
(-0.0537503 0.132706 0)
(-0.0653995 0.139395 0)
(-0.0772546 0.143624 0)
(-0.0891117 0.145519 0)
(-0.100793 0.145221 0)
(-0.112145 0.142885 0)
(-0.123039 0.13867 0)
(-0.133366 0.132738 0)
(-0.14304 0.125251 0)
(-0.151987 0.116366 0)
(-0.160149 0.106235 0)
(-0.167481 0.0950061 0)
(-0.173944 0.0828181 0)
(-0.179509 0.069806 0)
(-0.184151 0.0560996 0)
(-0.187848 0.0418247 0)
(-0.190582 0.0271048 0)
(-0.192333 0.0120633 0)
(-0.193086 -0.00317533 0)
(-0.192823 -0.0184832 0)
(-0.19153 -0.0337272 0)
(-0.189193 -0.0487671 0)
(-0.185799 -0.063454 0)
(-0.181342 -0.0776289 0)
(-0.17582 -0.091122 0)
(-0.16924 -0.103752 0)
(-0.161619 -0.115327 0)
(-0.152992 -0.125645 0)
(-0.143406 -0.134496 0)
(-0.132934 -0.141666 0)
(-0.121672 -0.14694 0)
(-0.109743 -0.150108 0)