/*--------------------------------*- C++ -*----------------------------------*\
  =========                 |
  \\      /  F ield         | OpenFOAM: The Open Source CFD Toolbox
   \\    /   O peration     | Website:  https://openfoam.org
    \\  /    A nd           | Version:  7
     \\/     M anipulation  |
\*---------------------------------------------------------------------------*/
FoamFile
{
    version     2.0;
    format      ascii;
    class       volScalarField;
    location    "0.0024";
    object      p;
}
// * * * * * * * * * * * * * * * * * * * * * * * * * * * * * * * * * * * * * //

dimensions      [0 2 -2 0 0 0 0];

internalField   nonuniform List<scalar> 
2500
(
2.71722e-07
6.34847
8.96584
10.0184
10.5833
10.9245
11.1489
11.3153
11.4514
11.5697
11.6763
11.7744
11.8659
11.9521
12.034
12.1123
12.1875
12.2603
12.331
12.4
12.4677
12.5343
12.6
12.6652
12.73
12.7946
12.8593
12.9243
12.9898
13.056
13.1232
13.1917
13.2619
13.3341
13.409
13.4869
13.5688
13.6556
13.7485
13.8492
13.9604
14.0863
14.2342
14.4184
14.6687
15.0475
15.6717
16.8162
19.5484
26.0155
4.90294
7.46727
8.84907
9.70348
10.2891
10.6918
10.9771
11.1915
11.3622
11.5045
11.6277
11.7375
11.8373
11.9296
12.016
12.0978
12.1758
12.2508
12.3233
12.3938
12.4628
12.5305
12.5973
12.6634
12.7291
12.7946
12.8602
12.9261
12.9925
13.0598
13.1282
13.198
13.2698
13.344
13.4213
13.5023
13.5882
13.6802
13.7803
13.8912
14.017
14.1641
14.343
14.5708
14.8773
15.3129
15.9487
16.8729
18.3403
21.0147
7.78678
8.50916
9.21936
9.81955
10.2915
10.6516
10.9284
11.147
11.3251
11.4748
11.6042
11.7189
11.8225
11.9177
12.0065
12.09
12.1695
12.2457
12.3192
12.3905
12.4602
12.5285
12.5959
12.6625
12.7287
12.7947
12.8607
12.9271
12.994
13.0618
13.1309
13.2015
13.2741
13.3493
13.4278
13.5103
13.5981
13.6925
13.7957
13.9106
14.0413
14.1941
14.3784
14.6079
14.9029
15.2917
15.8057
16.4579
17.2231
18.0012
9.23931
9.3735
9.7213
10.1013
10.4385
10.723
10.9604
11.1593
11.328
11.4735
11.6013
11.7156
11.8194
11.9149
12.004
12.088
12.1678
12.2442
12.318
12.3896
12.4595
12.528
12.5955
12.6623
12.7287
12.7948
12.861
12.9276
12.9947
13.0627
13.1319
13.2028
13.2756
13.3511
13.4298
13.5127
13.6007
13.6953
13.7984
13.9126
14.0414
14.1897
14.3641
14.5731
14.8271
15.1367
15.508
15.927
16.3089
16.465
10.0825
10.0208
10.1697
10.396
10.6261
10.8406
11.0341
11.2058
11.3577
11.493
11.6144
11.7246
11.8258
11.9197
12.0076
12.0907
12.1699
12.2459
12.3194
12.3907
12.4604
12.5288
12.5962
12.6629
12.7291
12.7952
12.8613
12.9277
12.9948
13.0627
13.1318
13.2024
13.2751
13.3502
13.4285
13.5107
13.5978
13.691
13.7919
13.9025
14.0255
14.1641
14.3222
14.5041
14.713
14.949
15.2054
15.4589
15.6271
15.5696
10.6093
10.4898
10.5375
10.6669
10.8202
10.978
11.131
11.2744
11.4069
11.5287
11.6408
11.7444
11.841
11.9314
12.0168
12.0981
12.1758
12.2507
12.3233
12.3939
12.463
12.5308
12.5978
12.6641
12.73
12.7957
12.8615
12.9276
12.9943
13.0618
13.1304
13.2005
13.2725
13.3468
13.4239
13.5047
13.5897
13.6802
13.7771
13.882
13.9966
14.1227
14.262
14.4156
14.5825
14.7577
14.9303
15.0772
15.1344
15.0106
10.9534
10.831
10.8321
10.9034
11.004
11.1185
11.2374
11.355
11.4681
11.5755
11.6769
11.7726
11.8631
11.9491
12.031
12.1095
12.1851
12.2583
12.3294
12.3989
12.467
12.5341
12.6003
12.6659
12.7312
12.7963
12.8616
12.9271
12.9931
13.0599
13.1278
13.197
13.2678
13.3408
13.4162
13.4948
13.577
13.6636
13.7554
13.8532
13.958
14.0704
14.1906
14.3177
14.4485
14.5765
14.6905
14.7724
14.7772
14.648
11.1911
11.0844
11.0662
11.1036
11.1694
11.2522
11.3441
11.4396
11.5351
11.6286
11.7192
11.8065
11.8904
11.9712
12.049
12.1242
12.1972
12.2682
12.3375
12.4055
12.4723
12.5383
12.6035
12.6683
12.7327
12.7971
12.8615
12.9262
12.9914
13.0572
13.124
13.1919
13.2613
13.3325
13.4057
13.4815
13.5602
13.6423
13.7282
13.8183
13.9129
14.0117
14.1141
14.218
14.3197
14.4125
14.4872
14.5308
14.5134
14.4001
11.3653
11.2775
11.2529
11.2712
11.3143
11.3745
11.4458
11.5232
11.6035
11.6845
11.7649
11.8439
11.9211
11.9964
12.0698
12.1414
12.2114
12.2799
12.3472
12.4134
12.4787
12.5433
12.6073
12.671
12.7344
12.7978
12.8612
12.9249
12.989
13.0537
13.1192
13.1856
13.2532
13.3222
13.3929
13.4655
13.5403
13.6174
13.6971
13.7794
13.8639
13.9502
14.0368
14.1214
14.2003
14.2678
14.3168
14.3385
14.3135
14.2204
11.4996
11.4288
11.4037
11.4114
11.4399
11.4842
11.5398
11.6029
11.6705
11.7405
11.8116
11.8828
11.9535
12.0234
12.0923
12.1602
12.227
12.2929
12.3579
12.4222
12.4858
12.5489
12.6116
12.674
12.7362
12.7985
12.8608
12.9233
12.9861
13.0495
13.1134
13.1781
13.2437
13.3104
13.3782
13.4474
13.518
13.5901
13.6636
13.7382
13.8135
13.8885
13.9616
14.0307
14.0923
14.1418
14.1742
14.1838
14.1579
14.083
11.6076
11.5504
11.5272
11.5291
11.5483
11.5814
11.6254
11.6771
11.7343
11.795
11.8579
11.922
11.9867
12.0514
12.1159
12.18
12.2436
12.3068
12.3694
12.4316
12.4934
12.5549
12.6161
12.6771
12.7381
12.7991
12.8601
12.9213
12.9828
13.0446
13.1069
13.1697
13.2332
13.2973
13.3622
13.4279
13.4944
13.5615
13.629
13.6965
13.7634
13.8286
13.8905
13.9472
13.9958
14.0327
14.0545
14.0575
14.0334
13.9733
11.6971
11.6504
11.6297
11.6287
11.6418
11.6671
11.7023
11.7452
11.7939
11.8467
11.9026
11.9604
12.0195
12.0794
12.1397
12.2002
12.2607
12.3211
12.3813
12.4414
12.5013
12.5611
12.6208
12.6804
12.74
12.7996
12.8593
12.9191
12.9791
13.0393
13.0998
13.1607
13.2219
13.2835
13.3454
13.4076
13.47
13.5324
13.5943
13.6554
13.7149
13.7717
13.8245
13.8715
13.9103
13.9385
13.9534
13.953
13.9315
13.8828
11.7729
11.7342
11.7159
11.7133
11.7225
11.7422
11.771
11.807
11.8488
11.8952
11.9449
11.9972
12.0514
12.1068
12.1633
12.2203
12.2778
12.3355
12.3934
12.4514
12.5094
12.5675
12.6256
12.6837
12.7418
12.8
12.8583
12.9167
12.9751
13.0337
13.0924
13.1513
13.2103
13.2693
13.3283
13.3871
13.4457
13.5036
13.5605
13.6159
13.6689
13.7188
13.7641
13.8035
13.8351
13.857
13.8675
13.8654
13.8465
13.8063
11.8379
11.8051
11.789
11.7857
11.7923
11.8081
11.8319
11.8626
11.8989
11.9398
11.9844
12.0319
12.0817
12.1332
12.1861
12.2399
12.2945
12.3497
12.4053
12.4612
12.5174
12.5738
12.6303
12.6869
12.7436
12.8004
12.8572
12.9141
12.971
13.028
13.0849
13.1418
13.1985
13.2551
13.3113
13.367
13.4219
13.4758
13.5282
13.5785
13.6261
13.6701
13.7095
13.7429
13.7691
13.7866
13.7942
13.7912
13.7746
13.7408
11.894
11.8657
11.8513
11.8478
11.8527
11.8655
11.8857
11.9122
11.9441
11.9805
12.0208
12.0642
12.1101
12.1581
12.2077
12.2587
12.3106
12.3634
12.4169
12.4708
12.5252
12.5799
12.6349
12.69
12.7453
12.8006
12.8561
12.9115
12.9669
13.0223
13.0774
13.1324
13.187
13.2412
13.2947
13.3475
13.3992
13.4494
13.4978
13.5438
13.5868
13.626
13.6605
13.6893
13.7114
13.7257
13.7313
13.728
13.7134
13.6842
11.9425
11.9176
11.9047
11.9011
11.9048
11.9155
11.9329
11.9561
11.9844
12.0172
12.0539
12.0938
12.1364
12.1813
12.228
12.2763
12.3258
12.3764
12.4279
12.48
12.5327
12.5858
12.6392
12.6929
12.7468
12.8009
12.8549
12.9089
12.9629
13.0166
13.0701
13.1233
13.1759
13.2279
13.279
13.3291
13.3778
13.4248
13.4697
13.512
13.5512
13.5864
13.617
13.6422
13.6612
13.6731
13.6774
13.674
13.6609
13.6354
11.9844
11.9621
11.9503
11.9468
11.9497
11.9588
11.974
11.9946
12.0201
12.05
12.0836
12.1205
12.1603
12.2024
12.2466
12.2926
12.34
12.3885
12.4381
12.4885
12.5396
12.5913
12.6433
12.6957
12.7483
12.801
12.8538
12.9065
12.959
13.0113
13.0632
13.1147
13.1654
13.2154
13.2643
13.312
13.3581
13.4023
13.4442
13.4834
13.5193
13.5513
13.5788
13.6011
13.6177
13.6278
13.6313
13.6279
13.616
13.5932
12.0203
12
11.9892
11.9858
11.988
11.996
12.0095
12.0281
12.0513
12.0787
12.1099
12.1443
12.1816
12.2215
12.2635
12.3074
12.3528
12.3996
12.4475
12.4964
12.5461
12.5963
12.6471
12.6982
12.7496
12.8011
12.8526
12.9041
12.9554
13.0063
13.0568
13.1067
13.1558
13.2039
13.2509
13.2965
13.3403
13.3821
13.4214
13.4579
13.4911
13.5205
13.5455
13.5656
13.5803
13.5892
13.5919
13.5886
13.5777
13.5571
12.0508
12.032
12.022
12.0187
12.0205
12.0276
12.0398
12.0568
12.0782
12.1036
12.1327
12.1651
12.2004
12.2383
12.2784
12.3205
12.3643
12.4095
12.456
12.5035
12.5518
12.6009
12.6505
12.7005
12.7507
12.8012
12.8516
12.9019
12.952
13.0018
13.051
13.0995
13.1471
13.1936
13.2389
13.2826
13.3245
13.3642
13.4014
13.4357
13.4667
13.4939
13.5169
13.5352
13.5485
13.5564
13.5587
13.5555
13.5454
13.5264
12.0763
12.0587
12.0493
12.046
12.0476
12.054
12.0652
12.0809
12.1009
12.1248
12.1522
12.1829
12.2165
12.2528
12.2913
12.3319
12.3743
12.4181
12.4633
12.5096
12.5569
12.6048
12.6534
12.7024
12.7517
12.8012
12.8507
12.9
12.9491
12.9977
13.0458
13.0931
13.1394
13.1846
13.2284
13.2706
13.3108
13.3488
13.3842
13.4167
13.4459
13.4714
13.4928
13.5098
13.522
13.5291
13.5311
13.528
13.5185
13.5007
12.0971
12.0805
12.0715
12.0683
12.0697
12.0756
12.086
12.1008
12.1196
12.1422
12.1684
12.1977
12.23
12.2649
12.3022
12.3415
12.3827
12.4254
12.4696
12.5149
12.5611
12.6082
12.6559
12.7041
12.7526
12.8012
12.8499
12.8984
12.9466
12.9943
13.0414
13.0877
13.133
13.177
13.2196
13.2604
13.2993
13.3359
13.3699
13.4009
13.4287
13.4528
13.4731
13.489
13.5003
13.5069
13.5086
13.5056
13.4966
13.4798
12.1135
12.0975
12.0889
12.0858
12.087
12.0925
12.1024
12.1164
12.1344
12.1561
12.1812
12.2095
12.2408
12.2746
12.3109
12.3492
12.3895
12.4313
12.4746
12.5191
12.5646
12.611
12.658
12.7054
12.7532
12.8012
12.8492
12.897
12.9445
12.9915
13.0378
13.0833
13.1277
13.1708
13.2124
13.2523
13.2901
13.3255
13.3584
13.3883
13.415
13.4382
13.4574
13.4726
13.4833
13.4895
13.491
13.488
13.4794
13.4633
12.1256
12.1102
12.1018
12.0987
12.0998
12.1051
12.1145
12.128
12.1454
12.1664
12.1908
12.2184
12.2488
12.2819
12.3174
12.3551
12.3946
12.4358
12.4784
12.5223
12.5672
12.613
12.6595
12.7065
12.7537
12.8012
12.8487
12.896
12.9429
12.9894
13.0351
13.0799
13.1237
13.1661
13.207
13.2461
13.2831
13.3178
13.3498
13.3789
13.4048
13.4272
13.4458
13.4604
13.4707
13.4766
13.478
13.4751
13.4667
13.4511
12.1336
12.1185
12.1103
12.1072
12.1082
12.1133
12.1226
12.1357
12.1527
12.1733
12.1972
12.2242
12.2542
12.2868
12.3218
12.3589
12.398
12.4388
12.481
12.5245
12.569
12.6144
12.6605
12.7071
12.7541
12.8012
12.8483
12.8953
12.9418
12.9879
13.0333
13.0777
13.121
13.163
13.2034
13.242
13.2785
13.3126
13.3441
13.3727
13.3981
13.42
13.4381
13.4523
13.4624
13.4681
13.4694
13.4665
13.4583
13.443
12.1376
12.1226
12.1145
12.1115
12.1124
12.1175
12.1266
12.1396
12.1563
12.1767
12.2004
12.2272
12.2569
12.2892
12.324
12.3609
12.3997
12.4403
12.4823
12.5255
12.5699
12.6151
12.661
12.7075
12.7542
12.8012
12.8481
12.8949
12.9413
12.9872
13.0323
13.0766
13.1197
13.1614
13.2016
13.2399
13.2761
13.31
13.3412
13.3696
13.3947
13.4164
13.4343
13.4483
13.4582
13.4638
13.4651
13.4623
13.4541
13.439
12.1375
12.1226
12.1145
12.1115
12.1124
12.1175
12.1266
12.1396
12.1563
12.1767
12.2004
12.2272
12.2569
12.2892
12.324
12.3609
12.3997
12.4403
12.4823
12.5255
12.5699
12.6151
12.661
12.7075
12.7542
12.8012
12.8481
12.8949
12.9413
12.9872
13.0323
13.0766
13.1197
13.1614
13.2016
13.2399
13.2761
13.31
13.3412
13.3696
13.3947
13.4164
13.4343
13.4483
13.4582
13.4638
13.4651
13.4623
13.4541
13.439
12.1336
12.1185
12.1103
12.1072
12.1082
12.1133
12.1225
12.1357
12.1527
12.1732
12.1972
12.2242
12.2542
12.2868
12.3218
12.3589
12.398
12.4387
12.481
12.5245
12.569
12.6144
12.6605
12.7071
12.7541
12.8012
12.8483
12.8952
12.9418
12.9879
13.0333
13.0777
13.121
13.163
13.2034
13.242
13.2785
13.3126
13.3441
13.3727
13.3981
13.42
13.4381
13.4523
13.4624
13.4681
13.4694
13.4665
13.4583
13.4431
12.1255
12.1101
12.1018
12.0987
12.0998
12.105
12.1145
12.128
12.1454
12.1664
12.1908
12.2183
12.2488
12.2819
12.3174
12.355
12.3946
12.4358
12.4784
12.5223
12.5672
12.613
12.6595
12.7064
12.7537
12.8012
12.8486
12.8959
12.9429
12.9893
13.0351
13.0799
13.1237
13.1661
13.207
13.2461
13.2831
13.3178
13.3498
13.3789
13.4048
13.4272
13.4458
13.4604
13.4707
13.4766
13.478
13.4751
13.4667
13.4511
12.1134
12.0975
12.0889
12.0858
12.0869
12.0925
12.1024
12.1164
12.1344
12.156
12.1812
12.2095
12.2407
12.2746
12.3108
12.3492
12.3894
12.4313
12.4746
12.5191
12.5646
12.6109
12.6579
12.7054
12.7532
12.8012
12.8492
12.897
12.9445
12.9915
13.0378
13.0833
13.1277
13.1708
13.2124
13.2523
13.2901
13.3255
13.3584
13.3883
13.415
13.4382
13.4574
13.4726
13.4833
13.4895
13.491
13.4881
13.4794
13.4633
12.097
12.0804
12.0715
12.0683
12.0696
12.0755
12.086
12.1007
12.1195
12.1422
12.1683
12.1977
12.2299
12.2649
12.3021
12.3415
12.3826
12.4254
12.4695
12.5148
12.5611
12.6082
12.6559
12.7041
12.7525
12.8012
12.8498
12.8983
12.9465
12.9943
13.0414
13.0877
13.133
13.177
13.2196
13.2604
13.2993
13.3359
13.3699
13.4009
13.4287
13.4529
13.4731
13.489
13.5004
13.5069
13.5087
13.5056
13.4966
13.4798
12.0762
12.0587
12.0493
12.046
12.0475
12.054
12.0652
12.0809
12.1008
12.1247
12.1522
12.1829
12.2165
12.2527
12.2913
12.3319
12.3742
12.4181
12.4633
12.5096
12.5568
12.6048
12.6534
12.7024
12.7517
12.8012
12.8506
12.9
12.9491
12.9977
13.0458
13.0931
13.1394
13.1846
13.2284
13.2706
13.3108
13.3488
13.3842
13.4167
13.4459
13.4714
13.4928
13.5098
13.522
13.5292
13.5311
13.528
13.5185
13.5007
12.0507
12.032
12.022
12.0186
12.0205
12.0276
12.0397
12.0567
12.0781
12.1036
12.1327
12.1651
12.2004
12.2382
12.2784
12.3205
12.3642
12.4095
12.4559
12.5034
12.5518
12.6008
12.6504
12.7004
12.7507
12.8011
12.8516
12.9019
12.952
13.0017
13.0509
13.0994
13.1471
13.1936
13.2389
13.2826
13.3245
13.3642
13.4014
13.4357
13.4667
13.4939
13.5169
13.5353
13.5486
13.5565
13.5588
13.5556
13.5455
13.5264
12.0203
11.9999
11.9892
11.9857
11.988
11.996
12.0094
12.028
12.0512
12.0786
12.1098
12.1442
12.1816
12.2214
12.2634
12.3073
12.3528
12.3996
12.4475
12.4964
12.546
12.5963
12.647
12.6982
12.7495
12.8011
12.8526
12.9041
12.9553
13.0063
13.0568
13.1067
13.1558
13.2039
13.2509
13.2965
13.3403
13.3821
13.4214
13.4579
13.4911
13.5205
13.5455
13.5656
13.5803
13.5892
13.592
13.5887
13.5778
13.5571
11.9843
11.962
11.9503
11.9467
11.9496
11.9588
11.9739
11.9945
12.02
12.0499
12.0835
12.1204
12.1602
12.2024
12.2466
12.2925
12.3399
12.3885
12.4381
12.4885
12.5396
12.5912
12.6433
12.6957
12.7482
12.801
12.8537
12.9064
12.959
13.0113
13.0632
13.1146
13.1654
13.2154
13.2644
13.312
13.3581
13.4023
13.4443
13.4834
13.5193
13.5513
13.5788
13.6012
13.6177
13.6279
13.6313
13.6279
13.6161
13.5933
11.9425
11.9175
11.9046
11.9011
11.9047
11.9155
11.9328
11.956
11.9843
12.0172
12.0538
12.0937
12.1363
12.1812
12.2279
12.2762
12.3258
12.3764
12.4278
12.4799
12.5326
12.5857
12.6392
12.6929
12.7468
12.8008
12.8549
12.9089
12.9629
13.0166
13.0701
13.1233
13.1759
13.2279
13.279
13.3291
13.3778
13.4249
13.4698
13.5121
13.5512
13.5864
13.6171
13.6423
13.6612
13.6731
13.6775
13.6741
13.661
13.6354
11.8939
11.8656
11.8513
11.8477
11.8526
11.8655
11.8856
11.9121
11.944
11.9805
12.0207
12.0641
12.1101
12.158
12.2076
12.2586
12.3105
12.3633
12.4168
12.4708
12.5252
12.5799
12.6348
12.69
12.7452
12.8006
12.856
12.9115
12.9669
13.0222
13.0774
13.1324
13.187
13.2412
13.2948
13.3475
13.3992
13.4494
13.4978
13.5439
13.5868
13.6261
13.6606
13.6894
13.7115
13.7257
13.7314
13.7281
13.7134
13.6843
11.8378
11.805
11.7889
11.7856
11.7923
11.808
11.8318
11.8625
11.8988
11.9397
11.9843
12.0318
12.0816
12.1331
12.186
12.2398
12.2944
12.3496
12.4052
12.4612
12.5174
12.5737
12.6302
12.6868
12.7436
12.8003
12.8572
12.9141
12.971
13.028
13.0849
13.1418
13.1985
13.2551
13.3113
13.367
13.4219
13.4758
13.5282
13.5786
13.6262
13.6702
13.7095
13.743
13.7692
13.7866
13.7942
13.7913
13.7747
13.7408
11.7728
11.7341
11.7158
11.7133
11.7225
11.7422
11.7709
11.8069
11.8487
11.8951
11.9448
11.9971
12.0513
12.1067
12.1632
12.2202
12.2777
12.3354
12.3933
12.4513
12.5093
12.5674
12.6255
12.6836
12.7418
12.8
12.8583
12.9166
12.9751
13.0337
13.0924
13.1513
13.2103
13.2693
13.3283
13.3872
13.4457
13.5036
13.5605
13.6159
13.669
13.7188
13.7642
13.8036
13.8352
13.8571
13.8676
13.8654
13.8466
13.8063
11.697
11.6504
11.6296
11.6286
11.6417
11.667
11.7022
11.7451
11.7938
11.8467
11.9025
11.9603
12.0194
12.0793
12.1396
12.2001
12.2606
12.321
12.3813
12.4413
12.5013
12.5611
12.6208
12.6804
12.7399
12.7996
12.8592
12.9191
12.9791
13.0393
13.0998
13.1607
13.2219
13.2835
13.3454
13.4076
13.47
13.5324
13.5944
13.6555
13.7149
13.7718
13.8246
13.8715
13.9104
13.9385
13.9535
13.953
13.9316
13.8828
11.6075
11.5503
11.5271
11.5291
11.5482
11.5813
11.6253
11.677
11.7342
11.7949
11.8578
11.9219
11.9866
12.0513
12.1158
12.1799
12.2435
12.3067
12.3693
12.4315
12.4933
12.5548
12.616
12.6771
12.7381
12.799
12.8601
12.9213
12.9828
13.0446
13.1069
13.1697
13.2332
13.2973
13.3622
13.4279
13.4944
13.5615
13.629
13.6966
13.7634
13.8286
13.8906
13.9473
13.9958
14.0328
14.0546
14.0576
14.0335
13.9734
11.4995
11.4287
11.4037
11.4113
11.4398
11.4841
11.5397
11.6028
11.6704
11.7404
11.8115
11.8827
11.9534
12.0233
12.0922
12.1601
12.2269
12.2928
12.3578
12.4221
12.4857
12.5488
12.6115
12.6739
12.7362
12.7984
12.8607
12.9233
12.9861
13.0495
13.1134
13.1781
13.2437
13.3104
13.3782
13.4474
13.5181
13.5902
13.6637
13.7383
13.8136
13.8885
13.9617
14.0307
14.0923
14.1419
14.1743
14.1839
14.158
14.0831
11.3652
11.2774
11.2529
11.2712
11.3142
11.3744
11.4457
11.5231
11.6034
11.6844
11.7648
11.8438
11.921
11.9963
12.0697
12.1413
12.2113
12.2798
12.3471
12.4133
12.4786
12.5432
12.6073
12.6709
12.7344
12.7978
12.8612
12.9249
12.989
13.0537
13.1192
13.1856
13.2532
13.3222
13.3929
13.4655
13.5403
13.6175
13.6972
13.7794
13.864
13.9502
14.0368
14.1215
14.2004
14.2679
14.3169
14.3386
14.3136
14.2205
11.191
11.0843
11.0661
11.1036
11.1693
11.2521
11.3441
11.4395
11.535
11.6285
11.7192
11.8064
11.8904
11.9711
12.0489
12.1241
12.1971
12.2681
12.3375
12.4054
12.4723
12.5382
12.6035
12.6682
12.7327
12.797
12.8615
12.9262
12.9914
13.0572
13.124
13.192
13.2614
13.3325
13.4058
13.4815
13.5602
13.6423
13.7282
13.8184
13.9129
14.0118
14.1142
14.2181
14.3197
14.4125
14.4873
14.5309
14.5135
14.4002
10.9533
10.831
10.832
10.9033
11.004
11.1184
11.2374
11.3549
11.468
11.5754
11.6768
11.7725
11.8631
11.949
12.0309
12.1094
12.1851
12.2582
12.3294
12.3988
12.467
12.534
12.6002
12.6659
12.7312
12.7963
12.8616
12.9271
12.9931
13.0599
13.1278
13.197
13.2679
13.3408
13.4163
13.4948
13.577
13.6636
13.7554
13.8533
13.9581
14.0705
14.1907
14.3178
14.4486
14.5765
14.6906
14.7725
14.7773
14.6481
10.6093
10.4897
10.5374
10.6669
10.8201
10.9779
11.1309
11.2743
11.4068
11.5286
11.6407
11.7444
11.8409
11.9313
12.0168
12.098
12.1758
12.2507
12.3232
12.3938
12.4629
12.5308
12.5977
12.6641
12.7299
12.7957
12.8615
12.9276
12.9943
13.0618
13.1304
13.2005
13.2725
13.3468
13.424
13.5047
13.5898
13.6802
13.7772
13.8821
13.9967
14.1228
14.2621
14.4156
14.5826
14.7578
14.9303
15.0773
15.1345
15.0107
10.0824
10.0208
10.1696
10.396
10.626
10.8406
11.034
11.2057
11.3576
11.4929
11.6143
11.7246
11.8257
11.9196
12.0075
12.0906
12.1698
12.2459
12.3193
12.3907
12.4604
12.5288
12.5961
12.6628
12.7291
12.7952
12.8613
12.9278
12.9948
13.0627
13.1318
13.2025
13.2751
13.3503
13.4286
13.5108
13.5979
13.6911
13.7919
13.9026
14.0255
14.1641
14.3223
14.5041
14.7131
14.9491
15.2055
15.459
15.6272
15.5697
9.23926
9.37345
9.72125
10.1013
10.4384
10.723
10.9604
11.1592
11.3279
11.4734
11.6012
11.7155
11.8193
11.9149
12.004
12.0879
12.1677
12.2442
12.3179
12.3896
12.4594
12.528
12.5955
12.6623
12.7287
12.7948
12.861
12.9276
12.9947
13.0627
13.132
13.2028
13.2757
13.3512
13.4299
13.5127
13.6008
13.6954
13.7985
13.9127
14.0415
14.1898
14.3642
14.5732
14.8272
15.1368
15.5081
15.9271
16.309
16.4651
7.78674
8.50912
9.21932
9.8195
10.2914
10.6516
10.9284
11.1469
11.325
11.4747
11.6041
11.7188
11.8224
11.9177
12.0064
12.09
12.1694
12.2456
12.3191
12.3905
12.4602
12.5285
12.5959
12.6625
12.7287
12.7947
12.8607
12.9271
12.994
13.0619
13.1309
13.2015
13.2742
13.3494
13.4278
13.5104
13.5981
13.6926
13.7958
13.9106
14.0414
14.1942
14.3785
14.608
14.9029
15.2918
15.8058
16.4579
17.2232
18.0013
4.9029
7.46723
8.84903
9.70343
10.289
10.6917
10.977
11.1914
11.3621
11.5045
11.6277
11.7374
11.8372
11.9295
12.0159
12.0977
12.1757
12.2507
12.3232
12.3938
12.4628
12.5305
12.5973
12.6634
12.7291
12.7946
12.8602
12.9261
12.9925
13.0598
13.1282
13.1981
13.2699
13.3441
13.4213
13.5024
13.5882
13.6803
13.7804
13.8913
14.0171
14.1642
14.343
14.5709
14.8774
15.313
15.9488
16.8729
18.3404
21.0148
-3.7782e-05
6.34843
8.9658
10.0184
10.5833
10.9244
11.1488
11.3152
11.4513
11.5696
11.6762
11.7743
11.8658
11.9521
12.0339
12.1122
12.1875
12.2602
12.331
12.4
12.4676
12.5342
12.6
12.6652
12.73
12.7946
12.8593
12.9243
12.9898
13.056
13.1232
13.1917
13.2619
13.3342
13.409
13.487
13.5689
13.6557
13.7485
13.8493
13.9605
14.0864
14.2343
14.4184
14.6687
15.0476
15.6717
16.8163
19.5485
26.0156
)
;

boundaryField
{
    movingWallTop
    {
        type            zeroGradient;
    }
    movingWallBottom
    {
        type            zeroGradient;
    }
    fixedWalls
    {
        type            zeroGradient;
    }
    frontAndBack
    {
        type            empty;
    }
}


// ************************************************************************* //
