/*--------------------------------*- C++ -*----------------------------------*\
  =========                 |
  \\      /  F ield         | OpenFOAM: The Open Source CFD Toolbox
   \\    /   O peration     | Website:  https://openfoam.org
    \\  /    A nd           | Version:  7
     \\/     M anipulation  |
\*---------------------------------------------------------------------------*/
FoamFile
{
    version     2.0;
    format      ascii;
    class       surfaceScalarField;
    location    "0.0128";
    object      phi;
}
// * * * * * * * * * * * * * * * * * * * * * * * * * * * * * * * * * * * * * //

dimensions      [0 3 -1 0 0 0 0];

internalField   nonuniform List<scalar> 
4900
(
-5.55842e-06
5.55845e-06
-1.01638e-05
4.60533e-06
-1.29461e-05
2.7823e-06
-1.4656e-05
1.70993e-06
-1.57441e-05
1.08811e-06
-1.64652e-05
7.21126e-07
-1.69655e-05
5.00275e-07
-1.73275e-05
3.62001e-07
-1.75984e-05
2.70925e-07
-1.78064e-05
2.07959e-07
-1.7969e-05
1.62623e-07
-1.80979e-05
1.28909e-07
-1.82011e-05
1.03188e-07
-1.82843e-05
8.31585e-08
-1.83515e-05
6.72891e-08
-1.84061e-05
5.45208e-08
-1.84502e-05
4.40957e-08
-1.84856e-05
3.54555e-08
-1.85138e-05
2.81796e-08
-1.85357e-05
2.19441e-08
-1.85522e-05
1.64947e-08
-1.85639e-05
1.16275e-08
-1.8571e-05
7.17489e-09
-1.8574e-05
2.99505e-09
-1.8573e-05
-1.03772e-09
-1.8568e-05
-5.03828e-09
-1.85588e-05
-9.12051e-09
-1.85454e-05
-1.3401e-08
-1.85274e-05
-1.80072e-08
-1.85043e-05
-2.30845e-08
-1.84755e-05
-2.88047e-08
-1.84402e-05
-3.53771e-08
-1.83971e-05
-4.30624e-08
-1.83449e-05
-5.21918e-08
-1.82817e-05
-6.31947e-08
-1.82051e-05
-7.66397e-08
-1.81118e-05
-9.32985e-08
-1.79975e-05
-1.14249e-07
-1.78565e-05
-1.41051e-07
-1.76804e-05
-1.76056e-07
-1.74574e-05
-2.22971e-07
-1.71695e-05
-2.87921e-07
-1.6788e-05
-3.81495e-07
-1.62653e-05
-5.22696e-07
-1.55194e-05
-7.45888e-07
-1.44089e-05
-1.11052e-06
-1.26944e-05
-1.71456e-06
-9.95506e-06
-2.73931e-06
-5.456e-06
-4.49907e-06
-5.456e-06
-1.11088e-08
5.56956e-06
-2.11939e-06
6.71362e-06
-4.82443e-06
5.48733e-06
-7.20822e-06
4.09373e-06
-9.10308e-06
2.98297e-06
-1.05634e-05
2.18148e-06
-1.16843e-05
1.62115e-06
-1.25504e-05
1.22806e-06
-1.32265e-05
9.47095e-07
-1.37602e-05
7.41631e-07
-1.41856e-05
5.87954e-07
-1.45273e-05
4.70634e-07
-1.48035e-05
3.79448e-07
-1.50278e-05
3.07449e-07
-1.52103e-05
2.49791e-07
-1.53588e-05
2.02995e-07
-1.54792e-05
1.64508e-07
-1.55762e-05
1.32413e-07
-1.56532e-05
1.0524e-07
-1.57131e-05
8.18429e-08
-1.57579e-05
6.13123e-08
-1.57892e-05
4.29099e-08
-1.58081e-05
2.60238e-08
-1.58152e-05
1.01306e-08
-1.5811e-05
-5.23308e-09
-1.57956e-05
-2.04987e-08
-1.57686e-05
-3.6087e-08
-1.57296e-05
-5.24318e-08
-1.56776e-05
-7.00027e-08
-1.56113e-05
-8.93308e-08
-1.55291e-05
-1.11037e-07
-1.54286e-05
-1.35869e-07
-1.53069e-05
-1.64743e-07
-1.51603e-05
-1.98811e-07
-1.4984e-05
-2.39538e-07
-1.47718e-05
-2.88826e-07
-1.45159e-05
-3.49197e-07
-1.4206e-05
-4.24066e-07
-1.38289e-05
-5.18171e-07
-1.33667e-05
-6.38261e-07
-1.27955e-05
-7.94201e-07
-1.20827e-05
-1.00074e-06
-1.11839e-05
-1.28024e-06
-1.00399e-05
-1.66671e-06
-8.57563e-06
-2.21018e-06
-6.7105e-06
-2.97565e-06
-4.40535e-06
-4.0197e-06
-1.83023e-06
-5.31443e-06
1.18714e-07
-6.44801e-06
-5.33728e-06
1.03966e-06
4.5299e-06
5.77972e-07
7.1753e-06
-9.19777e-07
6.98508e-06
-2.75728e-06
5.93123e-06
-4.54288e-06
4.76856e-06
-6.11848e-06
3.75708e-06
-7.44719e-06
2.94986e-06
-8.54455e-06
2.32542e-06
-9.44325e-06
1.8458e-06
-1.01777e-05
1.47604e-06
-1.07782e-05
1.18852e-06
-1.12702e-05
9.62581e-07
-1.16738e-05
7.83094e-07
-1.20053e-05
6.38962e-07
-1.22775e-05
5.2198e-07
-1.25005e-05
4.26002e-07
-1.26824e-05
3.46354e-07
-1.28294e-05
2.79429e-07
-1.29466e-05
2.22405e-07
-1.30377e-05
1.73037e-07
-1.3106e-05
1.29517e-07
-1.31534e-05
9.03611e-08
-1.31817e-05
5.43229e-08
-1.31919e-05
2.03291e-08
-1.31846e-05
-1.25779e-08
-1.31598e-05
-4.52904e-08
-1.31172e-05
-7.86796e-08
-1.3056e-05
-1.13639e-07
-1.29748e-05
-1.51128e-07
-1.2872e-05
-1.9222e-07
-1.27448e-05
-2.38155e-07
-1.25903e-05
-2.90403e-07
-1.24043e-05
-3.50739e-07
-1.21818e-05
-4.21346e-07
-1.19164e-05
-5.04947e-07
-1.16002e-05
-6.04989e-07
-1.12235e-05
-7.25892e-07
-1.07742e-05
-8.73416e-07
-1.02372e-05
-1.05517e-06
-9.59408e-06
-1.28133e-06
-8.82267e-06
-1.56561e-06
-7.89697e-06
-1.92643e-06
-6.78923e-06
-2.38798e-06
-5.47578e-06
-2.98016e-06
-3.95195e-06
-3.73401e-06
-2.26395e-06
-4.66365e-06
-5.69535e-07
-5.71412e-06
7.61958e-07
-6.64592e-06
1.08396e-06
-6.77001e-06
-4.25333e-06
9.1903e-07
3.61087e-06
1.27834e-06
6.81599e-06
7.52822e-07
7.5106e-06
-3.33695e-07
7.01775e-06
-1.65485e-06
6.08972e-06
-2.99557e-06
5.0978e-06
-4.24205e-06
4.19634e-06
-5.34763e-06
3.431e-06
-6.30275e-06
2.80092e-06
-7.1156e-06
2.28889e-06
-7.80139e-06
1.87431e-06
-8.37697e-06
1.53816e-06
-8.85836e-06
1.26449e-06
-9.2598e-06
1.04039e-06
-9.59344e-06
8.55626e-07
-9.8695e-06
7.02059e-07
-1.00964e-05
5.73242e-07
-1.0281e-05
4.64017e-07
-1.04288e-05
3.70233e-07
-1.05443e-05
2.88515e-07
-1.06309e-05
2.16088e-07
-1.06911e-05
1.50639e-07
-1.0727e-05
9.02013e-08
-1.07397e-05
3.3064e-08
-1.073e-05
-2.23107e-08
-1.06979e-05
-7.73587e-08
-1.06431e-05
-1.33481e-07
-1.05647e-05
-1.92105e-07
-1.04611e-05
-2.54751e-07
-1.03302e-05
-3.23097e-07
-1.01693e-05
-3.99054e-07
-9.97484e-06
-4.84844e-07
-9.74247e-06
-5.83101e-07
-9.46683e-06
-6.96987e-07
-9.14144e-06
-8.3034e-07
-8.75857e-06
-9.87859e-07
-8.30912e-06
-1.17534e-06
-7.78256e-06
-1.39998e-06
-7.16704e-06
-1.67069e-06
-6.44987e-06
-1.99851e-06
-5.61868e-06
-2.3968e-06
-4.66407e-06
-2.88104e-06
-3.58479e-06
-3.46726e-06
-2.39755e-06
-4.1674e-06
-1.1539e-06
-4.97766e-06
3.44717e-08
-5.85202e-06
9.68761e-07
-6.64841e-06
1.35602e-06
-7.03318e-06
9.1674e-07
-6.33073e-06
-3.33659e-06
6.89336e-07
2.92153e-06
1.30906e-06
6.19626e-06
1.36397e-06
7.4557e-06
8.91763e-07
7.48996e-06
7.64346e-08
6.90505e-06
-9.03245e-07
6.07748e-06
-1.91872e-06
5.21181e-06
-2.89233e-06
4.40461e-06
-3.78411e-06
3.69271e-06
-4.57808e-06
3.08287e-06
-5.27209e-06
2.56831e-06
-5.87119e-06
2.13726e-06
-6.38371e-06
1.77701e-06
-6.819e-06
1.47569e-06
-7.18624e-06
1.22287e-06
-7.49385e-06
1.00967e-06
-7.74923e-06
8.28625e-07
-7.95874e-06
6.73524e-07
-8.12768e-06
5.39174e-07
-8.2604e-06
4.21236e-07
-8.36038e-06
3.16064e-07
-8.43029e-06
2.20554e-07
-8.47213e-06
1.32034e-07
-8.48721e-06
4.81472e-08
-8.47628e-06
-3.32393e-08
-8.43952e-06
-1.14123e-07
-8.37655e-06
-1.96449e-07
-8.28646e-06
-2.8219e-07
-8.16779e-06
-3.73421e-07
-8.01849e-06
-4.72401e-07
-7.83589e-06
-5.81658e-07
-7.61666e-06
-7.0407e-07
-7.35679e-06
-8.42971e-07
-7.05153e-06
-1.00225e-06
-6.6954e-06
-1.18647e-06
-6.28227e-06
-1.401e-06
-5.80547e-06
-1.65214e-06
-5.25823e-06
-1.94722e-06
-4.63429e-06
-2.29463e-06
-3.92919e-06
-2.70361e-06
-3.14244e-06
-3.18355e-06
-2.28112e-06
-3.74236e-06
-1.3656e-06
-4.38278e-06
-4.38032e-07
-5.09497e-06
4.26711e-07
-5.8424e-06
1.11136e-06
-6.53666e-06
1.45937e-06
-6.99642e-06
1.3171e-06
-6.8909e-06
6.70399e-07
-5.68404e-06
-2.66619e-06
5.01295e-07
2.42024e-06
1.15303e-06
5.54452e-06
1.50492e-06
7.1038e-06
1.45265e-06
7.54224e-06
1.05988e-06
7.29781e-06
4.41089e-07
6.69628e-06
-2.95883e-07
5.94878e-06
-1.06977e-06
5.17849e-06
-1.82696e-06
4.4499e-06
-2.53594e-06
3.79185e-06
-3.1807e-06
3.21307e-06
-3.75524e-06
2.7118e-06
-4.25958e-06
2.28135e-06
-4.69708e-06
1.91319e-06
-5.07269e-06
1.59847e-06
-5.39191e-06
1.32888e-06
-5.66017e-06
1.09689e-06
-5.88251e-06
8.95861e-07
-6.06337e-06
7.20027e-07
-6.20653e-06
5.64399e-07
-6.31513e-06
4.24663e-07
-6.39165e-06
2.97075e-07
-6.43796e-06
1.78345e-07
-6.45535e-06
6.55395e-08
-6.44457e-06
-4.40207e-08
-6.40584e-06
-1.52855e-07
-6.33887e-06
-2.63413e-07
-6.2429e-06
-3.7816e-07
-6.11666e-06
-4.99662e-07
-5.9584e-06
-6.30668e-07
-5.76586e-06
-7.7419e-07
-5.53635e-06
-9.33583e-07
-5.2667e-06
-1.11262e-06
-4.95338e-06
-1.31556e-06
-4.59264e-06
-1.54721e-06
-4.18071e-06
-1.81293e-06
-3.71422e-06
-2.11862e-06
-3.19086e-06
-2.47058e-06
-2.61037e-06
-2.87512e-06
-1.97612e-06
-3.33785e-06
-1.29747e-06
-3.8622e-06
-5.93035e-07
-4.4468e-06
1.0495e-07
-5.08077e-06
7.45693e-07
-5.73571e-06
1.25618e-06
-6.35289e-06
1.54361e-06
-6.82409e-06
1.51396e-06
-6.96677e-06
1.12256e-06
-6.49951e-06
4.77556e-07
-5.03903e-06
-2.18863e-06
3.70875e-07
2.04936e-06
9.74716e-07
4.94068e-06
1.45519e-06
6.62333e-06
1.66053e-06
7.33689e-06
1.5788e-06
7.37954e-06
1.26565e-06
7.00943e-06
7.95884e-07
6.41854e-06
2.38484e-07
5.73589e-06
-3.5267e-07
5.04105e-06
-9.39713e-07
4.37889e-06
-1.49831e-06
3.77167e-06
-2.01432e-06
3.22781e-06
-2.48072e-06
2.74775e-06
-2.89514e-06
2.32761e-06
-3.25812e-06
1.96145e-06
-3.57182e-06
1.64258e-06
-3.83921e-06
1.36428e-06
-4.06351e-06
1.12016e-06
-4.24788e-06
9.04397e-07
-4.3952e-06
7.11721e-07
-4.50797e-06
5.37438e-07
-4.58826e-06
3.77364e-07
-4.63767e-06
2.27754e-07
-4.65735e-06
8.52156e-08
-4.64799e-06
-5.33795e-08
-4.60986e-06
-1.90984e-07
-4.54281e-06
-3.30467e-07
-4.44628e-06
-4.74692e-07
-4.31933e-06
-6.26608e-07
-4.16068e-06
-7.89315e-07
-3.96873e-06
-9.6614e-07
-3.74163e-06
-1.16069e-06
-3.47737e-06
-1.37688e-06
-3.17395e-06
-1.61898e-06
-2.82962e-06
-1.89154e-06
-2.4432e-06
-2.19935e-06
-2.01465e-06
-2.54717e-06
-1.54582e-06
-2.93942e-06
-1.04151e-06
-3.37943e-06
-5.10977e-07
-3.86838e-06
3.01541e-08
-4.40333e-06
5.57587e-07
-4.97424e-06
1.03602e-06
-5.5592e-06
1.41773e-06
-6.11742e-06
1.64423e-06
-6.5794e-06
1.65488e-06
-6.83474e-06
1.40849e-06
-6.72037e-06
9.24718e-07
-6.01574e-06
3.46823e-07
-4.46114e-06
-1.84181e-06
2.84208e-07
1.76516e-06
8.19523e-07
4.40537e-06
1.3382e-06
6.10466e-06
1.68757e-06
6.98753e-06
1.81686e-06
7.25025e-06
1.73917e-06
7.08712e-06
1.4976e-06
6.66012e-06
1.14279e-06
6.09069e-06
7.21077e-07
5.46277e-06
2.69667e-07
4.8303e-06
-1.84009e-07
4.22534e-06
-6.21152e-07
3.66495e-06
-1.0298e-06
3.15639e-06
-1.40303e-06
2.70085e-06
-1.73748e-06
2.2959e-06
-2.0321e-06
1.93721e-06
-2.28734e-06
1.61951e-06
-2.50445e-06
1.33728e-06
-2.68511e-06
1.08506e-06
-2.83108e-06
8.57696e-07
-2.94407e-06
6.50422e-07
-3.02555e-06
4.5885e-07
-3.07677e-06
2.78967e-07
-3.09863e-06
1.07079e-07
-3.09175e-06
-6.02591e-08
-3.05642e-06
-2.26315e-07
-2.99263e-06
-3.94259e-07
-2.90008e-06
-5.67237e-07
-2.77825e-06
-7.48442e-07
-2.62639e-06
-9.41172e-07
-2.44365e-06
-1.14888e-06
-2.22915e-06
-1.37519e-06
-1.98211e-06
-1.62391e-06
-1.70212e-06
-1.89897e-06
-1.38935e-06
-2.20431e-06
-1.04504e-06
-2.54366e-06
-6.71967e-07
-2.92024e-06
-2.75247e-07
-3.33614e-06
1.36763e-07
-3.79144e-06
5.51314e-07
-4.28293e-06
9.50008e-07
-4.80202e-06
1.30764e-06
-5.33186e-06
1.59165e-06
-5.84322e-06
1.76328e-06
-6.28904e-06
1.78189e-06
-6.59801e-06
1.61521e-06
-6.66807e-06
1.25802e-06
-6.36318e-06
7.60466e-07
-5.51819e-06
2.61142e-07
-3.96181e-06
-1.58067e-06
2.25536e-07
1.53962e-06
6.93372e-07
3.93753e-06
1.20506e-06
5.59297e-06
1.62518e-06
6.56741e-06
1.88782e-06
6.98761e-06
1.97958e-06
6.99535e-06
1.91858e-06
6.72112e-06
1.73728e-06
6.27199e-06
1.47122e-06
5.72883e-06
1.15281e-06
5.14871e-06
8.08675e-07
4.56948e-06
4.59182e-07
4.01445e-06
1.19003e-07
3.49657e-06
-2.01876e-07
3.02172e-06
-4.97089e-07
2.59111e-06
-7.62924e-07
2.20304e-06
-9.97535e-07
1.85412e-06
-1.20032e-06
1.54006e-06
-1.37144e-06
1.25617e-06
-1.5115e-06
9.97765e-07
-1.62133e-06
7.60248e-07
-1.70176e-06
5.3928e-07
-1.75357e-06
3.30781e-07
-1.77742e-06
1.30922e-07
-1.77377e-06
-6.39082e-08
-1.74292e-06
-2.57158e-07
-1.68502e-06
-4.52167e-07
-1.60002e-06
-6.52231e-07
-1.48782e-06
-8.60646e-07
-1.34824e-06
-1.08075e-06
-1.18117e-06
-1.31595e-06
-9.8667e-07
-1.56969e-06
-7.65151e-07
-1.84543e-06
-5.17595e-07
-2.14653e-06
-2.45869e-07
-2.47603e-06
4.68899e-08
-2.83642e-06
3.55775e-07
-3.22913e-06
6.73507e-07
-3.65387e-06
9.89747e-07
-4.10768e-06
1.29038e-06
-4.58356e-06
1.55691e-06
-5.06856e-06
1.7663e-06
-5.54126e-06
1.8917e-06
-5.96861e-06
1.90486e-06
-6.3022e-06
1.78137e-06
-6.47452e-06
1.50997e-06
-6.39666e-06
1.10643e-06
-5.95964e-06
6.31073e-07
-5.04283e-06
2.03831e-07
-3.53457e-06
-1.37683e-06
1.84082e-07
1.35554e-06
5.91726e-07
3.52989e-06
1.07516e-06
5.10953e-06
1.52068e-06
6.12189e-06
1.86041e-06
6.64787e-06
2.06666e-06
6.7891e-06
2.14013e-06
6.64766e-06
2.09809e-06
6.31403e-06
1.96513e-06
5.86179e-06
1.767e-06
5.34684e-06
1.52716e-06
4.80931e-06
1.26527e-06
4.27634e-06
9.96806e-07
3.76504e-06
7.33374e-07
3.28516e-06
4.83293e-07
2.84119e-06
2.52252e-07
2.43408e-06
4.39345e-08
2.06244e-06
-1.39445e-07
1.72344e-06
-2.96703e-07
1.41343e-06
-4.27347e-07
1.12841e-06
-5.31319e-07
8.6422e-07
-6.08812e-07
6.16773e-07
-6.60137e-07
3.82105e-07
-6.85636e-07
1.56421e-07
-6.85634e-07
-6.39097e-08
-6.60416e-07
-2.82376e-07
-6.10224e-07
-5.02359e-07
-5.35286e-07
-7.27169e-07
-4.35861e-07
-9.60071e-07
-3.12307e-07
-1.20431e-06
-1.65184e-07
-1.46307e-06
4.61403e-09
-1.73949e-06
1.95684e-07
-2.0365e-06
4.05889e-07
-2.35673e-06
6.32081e-07
-2.70223e-06
8.69762e-07
-3.0741e-06
1.11269e-06
-3.47206e-06
1.35245e-06
-3.89363e-06
1.57804e-06
-4.33327e-06
1.77555e-06
-4.78107e-06
1.92812e-06
-5.22113e-06
2.01645e-06
-5.62959e-06
2.02018e-06
-5.97235e-06
1.92082e-06
-6.20285e-06
1.70671e-06
-6.26041e-06
1.38036e-06
-6.07031e-06
9.68027e-07
-5.54731e-06
5.2955e-07
-4.60435e-06
1.63881e-07
-3.1689e-06
-1.21295e-06
1.53318e-07
1.20222e-06
5.08692e-07
3.17451e-06
9.54702e-07
4.66353e-06
1.39821e-06
5.67838e-06
1.77582e-06
6.27026e-06
2.05364e-06
6.51129e-06
2.22143e-06
6.47986e-06
2.28506e-06
6.2504e-06
2.25954e-06
5.88731e-06
2.16373e-06
5.44265e-06
2.01685e-06
4.95619e-06
1.83641e-06
4.45678e-06
1.6373e-06
3.96415e-06
1.43154e-06
3.49092e-06
1.22843e-06
3.0443e-06
1.03491e-06
2.62761e-06
8.55971e-07
2.24138e-06
6.95077e-07
1.88433e-06
5.54531e-07
1.55398e-06
4.35777e-07
1.24716e-06
3.39653e-07
9.60344e-07
2.66578e-07
6.89848e-07
2.16693e-07
4.31991e-07
1.89957e-07
1.83157e-07
1.86211e-07
-6.01643e-08
2.05211e-07
-3.01376e-07
2.46626e-07
-5.43775e-07
3.10026e-07
-7.90569e-07
3.94829e-07
-1.04487e-06
5.00237e-07
-1.30971e-06
6.25134e-07
-1.58797e-06
7.67958e-07
-1.88231e-06
9.26539e-07
-2.19508e-06
1.0979e-06
-2.5281e-06
1.27803e-06
-2.88236e-06
1.46162e-06
-3.25769e-06
1.64179e-06
-3.65222e-06
1.80981e-06
-4.06165e-06
1.955e-06
-4.47846e-06
2.06466e-06
-4.89073e-06
2.12444e-06
-5.28091e-06
2.1192e-06
-5.62435e-06
2.03473e-06
-5.88787e-06
1.8605e-06
-6.02862e-06
1.59388e-06
-5.99378e-06
1.24555e-06
-5.72198e-06
8.45609e-07
-5.14737e-06
4.48662e-07
-4.2074e-06
1.34695e-07
-2.85494e-06
-1.07826e-06
1.294e-07
1.07282e-06
4.39411e-07
2.8645e-06
8.44804e-07
4.25813e-06
1.27006e-06
5.25313e-06
1.65883e-06
5.88149e-06
1.97598e-06
6.19413e-06
2.20518e-06
6.25067e-06
2.34439e-06
6.11119e-06
2.40105e-06
5.83065e-06
2.38781e-06
5.45588e-06
2.31941e-06
5.02459e-06
2.21055e-06
4.56564e-06
2.07463e-06
4.10007e-06
1.92318e-06
3.64236e-06
1.76571e-06
3.20178e-06
1.60973e-06
2.78359e-06
1.46104e-06
2.39007e-06
1.32395e-06
2.02141e-06
1.20161e-06
1.67632e-06
1.09622e-06
1.35256e-06
1.00926e-06
1.04731e-06
9.41672e-07
7.57432e-07
8.94011e-07
4.79652e-07
8.66516e-07
2.10653e-07
8.59194e-07
-5.28427e-08
8.71856e-07
-3.14038e-07
9.04125e-07
-5.76043e-07
9.55417e-07
-8.41861e-07
1.02491e-06
-1.11436e-06
1.11146e-06
-1.39627e-06
1.21355e-06
-1.69005e-06
1.32912e-06
-1.99789e-06
1.45549e-06
-2.32145e-06
1.58915e-06
-2.66176e-06
1.72561e-06
-3.01882e-06
1.85922e-06
-3.3913e-06
1.983e-06
-3.776e-06
2.08856e-06
-4.16721e-06
2.16611e-06
-4.556e-06
2.20468e-06
-4.9293e-06
2.1927e-06
-5.26893e-06
2.11902e-06
-5.55067e-06
1.97456e-06
-5.74341e-06
1.7548e-06
-5.80886e-06
1.463e-06
-5.70198e-06
1.11403e-06
-5.37301e-06
7.38041e-07
-4.77139e-06
3.82759e-07
-3.85212e-06
1.12389e-07
-2.58456e-06
-9.6587e-07
1.10058e-07
9.62763e-07
3.80371e-07
2.59419e-06
7.44867e-07
3.89364e-06
1.1425e-06
4.85549e-06
1.52459e-06
5.4994e-06
1.85751e-06
5.86122e-06
2.12215e-06
5.98603e-06
2.3115e-06
5.92184e-06
2.42738e-06
5.71477e-06
2.47733e-06
5.40593e-06
2.47195e-06
5.02997e-06
2.42293e-06
4.61466e-06
2.34175e-06
4.18125e-06
2.23889e-06
3.74522e-06
2.12344e-06
3.31723e-06
2.00297e-06
2.90405e-06
1.88362e-06
2.50942e-06
1.77021e-06
2.13483e-06
1.6664e-06
1.78012e-06
1.57495e-06
1.44401e-06
1.49783e-06
1.12442e-06
1.43642e-06
8.18848e-07
1.39158e-06
5.24485e-07
1.36382e-06
2.38414e-07
1.3533e-06
-4.23191e-08
1.35989e-06
-3.20631e-07
1.38321e-06
-5.9936e-07
1.42258e-06
-8.81227e-07
1.477e-06
-1.16879e-06
1.54513e-06
-1.46439e-06
1.62515e-06
-1.77008e-06
1.71474e-06
-2.08747e-06
1.81088e-06
-2.4176e-06
1.90984e-06
-2.76071e-06
2.00696e-06
-3.11595e-06
2.09663e-06
-3.48097e-06
2.17216e-06
-3.85153e-06
2.22587e-06
-4.22092e-06
2.2492e-06
-4.57933e-06
2.23309e-06
-4.91318e-06
2.16861e-06
-5.20446e-06
2.04805e-06
-5.43011e-06
1.86636e-06
-5.56173e-06
1.62321e-06
-5.56571e-06
1.32537e-06
-5.40414e-06
9.89298e-07
-5.03693e-06
6.43203e-07
-4.42529e-06
3.27826e-07
-3.53674e-06
9.46604e-08
-2.3514e-06
-8.7121e-07
9.39296e-08
8.68833e-07
3.29155e-07
2.35896e-06
6.53892e-07
3.5689e-06
1.01881e-06
4.49058e-06
1.38255e-06
5.13566e-06
1.71439e-06
5.52938e-06
1.99462e-06
5.7058e-06
2.21339e-06
5.70307e-06
2.36871e-06
5.55945e-06
2.46413e-06
5.31051e-06
2.50672e-06
4.98738e-06
2.50534e-06
4.61604e-06
2.46941e-06
4.21718e-06
2.40803e-06
3.8066e-06
2.32952e-06
3.39575e-06
2.24111e-06
2.99246e-06
2.14889e-06
2.60164e-06
2.05786e-06
2.22587e-06
1.97196e-06
1.86602e-06
1.89429e-06
1.52168e-06
1.82715e-06
1.19156e-06
1.77221e-06
8.73784e-07
1.73062e-06
5.66078e-07
1.70306e-06
2.65972e-07
1.68984e-06
-2.90989e-08
1.69092e-06
-3.21704e-07
1.70591e-06
-6.1435e-07
1.7341e-06
-9.0942e-07
1.77442e-06
-1.20911e-06
1.8254e-06
-1.51537e-06
1.88508e-06
-1.82976e-06
1.951e-06
-2.15339e-06
2.02006e-06
-2.48666e-06
2.08848e-06
-2.82914e-06
2.15172e-06
-3.17919e-06
2.20445e-06
-3.53369e-06
2.24053e-06
-3.88762e-06
2.2532e-06
-4.23359e-06
2.23523e-06
-4.56136e-06
2.1794e-06
-4.85735e-06
2.07914e-06
-5.10419e-06
1.92947e-06
-5.28044e-06
1.72833e-06
-5.36059e-06
1.4781e-06
-5.31548e-06
1.18737e-06
-5.11341e-06
8.72551e-07
-4.72212e-06
5.59031e-07
-4.11177e-06
2.81096e-07
-3.25881e-06
8.0114e-08
-2.15042e-06
-7.91096e-07
8.01737e-08
7.8866e-07
2.84117e-07
2.15502e-06
5.70923e-07
3.28209e-06
9.00709e-07
4.16079e-06
1.23874e-06
4.79763e-06
1.55774e-06
5.21037e-06
1.83875e-06
5.4248e-06
2.07063e-06
5.47118e-06
2.24895e-06
5.38113e-06
2.37439e-06
5.18507e-06
2.45118e-06
4.9106e-06
2.4857e-06
4.58152e-06
2.48537e-06
4.21751e-06
2.45783e-06
3.83413e-06
2.41039e-06
3.44318e-06
2.34969e-06
3.05317e-06
2.28151e-06
2.66982e-06
2.21075e-06
2.29663e-06
2.14143e-06
1.93533e-06
2.07678e-06
1.58633e-06
2.01929e-06
1.24906e-06
1.97082e-06
9.22254e-07
1.93269e-06
6.04208e-07
1.90574e-06
2.92921e-07
1.89039e-06
-1.37489e-08
1.88667e-06
-3.17985e-07
1.89425e-06
-6.21925e-07
1.91241e-06
-9.27586e-07
1.94008e-06
-1.23678e-06
1.97574e-06
-1.55103e-06
2.01743e-06
-1.87146e-06
2.06268e-06
-2.19864e-06
2.10845e-06
-2.53244e-06
2.15112e-06
-2.8718e-06
2.1864e-06
-3.21447e-06
2.20943e-06
-3.55672e-06
2.21478e-06
-3.89297e-06
2.19666e-06
-4.21546e-06
2.14914e-06
-4.51384e-06
2.06665e-06
-4.77486e-06
1.94454e-06
-4.98209e-06
1.77998e-06
-5.11588e-06
1.57294e-06
-5.15354e-06
1.3274e-06
-5.06994e-06
1.05258e-06
-4.83859e-06
7.63975e-07
-4.43351e-06
4.83805e-07
-3.8316e-06
2.40674e-07
-3.01568e-06
6.78795e-08
-1.97762e-06
-7.23216e-07
6.82509e-08
7.20409e-07
2.44126e-07
1.97914e-06
4.95154e-07
3.03107e-06
7.89098e-07
3.86685e-06
1.09703e-06
4.4897e-06
1.39526e-06
4.91214e-06
1.66627e-06
5.15378e-06
1.89874e-06
5.23872e-06
2.08686e-06
5.19301e-06
2.22935e-06
5.04258e-06
2.32827e-06
4.81168e-06
2.38796e-06
4.52184e-06
2.41404e-06
4.19143e-06
2.41272e-06
3.83544e-06
2.39025e-06
3.46566e-06
2.35248e-06
3.09094e-06
2.30473e-06
2.71757e-06
2.25162e-06
2.34974e-06
2.19705e-06
1.9899e-06
2.14423e-06
1.63915e-06
2.0957e-06
1.29759e-06
2.05341e-06
9.64539e-07
2.01879e-06
6.3883e-07
1.99277e-06
3.18941e-07
1.97586e-06
3.1629e-09
1.96816e-06
-3.10286e-07
1.96939e-06
-6.2316e-07
1.9789e-06
-9.37096e-07
1.99564e-06
-1.25352e-06
2.01815e-06
-1.57354e-06
2.04453e-06
-1.89784e-06
2.07243e-06
-2.22653e-06
2.09898e-06
-2.55899e-06
2.12082e-06
-2.89364e-06
2.13408e-06
-3.22773e-06
2.13443e-06
-3.55707e-06
2.11718e-06
-3.87573e-06
2.07752e-06
-4.1758e-06
2.0107e-06
-4.44703e-06
1.91253e-06
-4.6767e-06
1.77993e-06
-4.84948e-06
1.61156e-06
-4.94751e-06
1.40871e-06
-4.9507e-06
1.17616e-06
-4.83739e-06
9.23011e-07
-4.58545e-06
6.63301e-07
-4.1738e-06
4.1615e-07
-3.58445e-06
2.05238e-07
-2.80476e-06
5.73923e-08
-1.82978e-06
-6.65824e-07
5.7799e-08
6.6261e-07
2.08372e-07
1.82857e-06
4.25905e-07
2.81353e-06
6.84381e-07
3.60837e-06
9.59891e-07
4.21419e-06
1.2322e-06
4.63983e-06
1.48564e-06
4.90034e-06
1.70934e-06
5.01501e-06
1.89694e-06
5.00541e-06
2.0459e-06
4.89362e-06
2.15675e-06
4.70083e-06
2.23218e-06
4.44641e-06
2.27632e-06
4.14729e-06
2.29406e-06
3.8177e-06
2.29057e-06
3.46915e-06
2.27091e-06
3.1106e-06
2.23979e-06
2.74869e-06
2.20142e-06
2.3881e-06
2.15946e-06
2.03185e-06
2.11699e-06
1.68163e-06
2.07647e-06
1.3381e-06
2.03988e-06
1.00113e-06
2.00865e-06
6.70059e-07
1.98378e-06
3.43814e-07
1.96582e-06
2.11139e-08
1.95496e-06
-2.99426e-07
1.95098e-06
-6.1918e-07
1.9533e-06
-9.39411e-07
1.96095e-06
-1.26117e-06
1.97258e-06
-1.58517e-06
1.98644e-06
-1.9117e-06
2.00036e-06
-2.24045e-06
2.01173e-06
-2.57036e-06
2.01754e-06
-2.89945e-06
2.01436e-06
-3.22456e-06
1.99848e-06
-3.54118e-06
1.96593e-06
-3.84319e-06
1.91278e-06
-4.12264e-06
1.83532e-06
-4.36957e-06
1.7305e-06
-4.57188e-06
1.59637e-06
-4.71535e-06
1.43265e-06
-4.78379e-06
1.24137e-06
-4.75942e-06
1.02753e-06
-4.62355e-06
7.99633e-07
-4.35755e-06
5.70047e-07
-3.94421e-06
3.54959e-07
-3.36936e-06
1.73837e-07
-2.62364e-06
4.82693e-08
-1.70421e-06
-6.17555e-07
4.85599e-08
6.1405e-07
1.76247e-07
1.70088e-06
3.62574e-07
2.62721e-06
5.86628e-07
3.38432e-06
8.28814e-07
3.972e-06
1.0721e-06
4.39655e-06
1.30281e-06
4.66963e-06
1.51095e-06
4.80687e-06
1.69014e-06
4.82622e-06
1.8372e-06
4.74656e-06
1.95158e-06
4.58645e-06
2.03477e-06
4.36322e-06
2.08965e-06
4.09241e-06
2.11998e-06
3.78738e-06
2.12991e-06
3.45921e-06
2.12371e-06
3.1168e-06
2.10544e-06
2.76696e-06
2.07885e-06
2.4147e-06
2.04725e-06
2.06346e-06
2.01347e-06
1.71541e-06
1.97987e-06
1.3717e-06
1.94831e-06
1.03269e-06
1.92023e-06
6.98141e-07
1.89662e-06
3.67427e-07
1.87807e-06
3.96592e-08
1.86482e-06
-2.86171e-07
1.85672e-06
-6.11078e-07
1.85328e-06
-9.35969e-07
1.85365e-06
-1.26154e-06
1.85664e-06
-1.58816e-06
1.86068e-06
-1.91574e-06
1.86384e-06
-2.24361e-06
1.86383e-06
-2.57036e-06
1.85803e-06
-2.89364e-06
1.8435e-06
-3.21002e-06
1.81709e-06
-3.51477e-06
1.77555e-06
-3.80165e-06
1.71572e-06
-4.06281e-06
1.63476e-06
-4.28861e-06
1.53051e-06
-4.46762e-06
1.40182e-06
-4.58666e-06
1.24908e-06
-4.63105e-06
1.07465e-06
-4.58499e-06
8.83343e-07
-4.43224e-06
6.82787e-07
-4.15699e-06
4.83611e-07
-3.74504e-06
2.99311e-07
-3.18506e-06
1.45753e-07
-2.47008e-06
4.02357e-08
-1.59869e-06
-5.77319e-07
4.03371e-08
5.73713e-07
1.47258e-07
1.59396e-06
3.04593e-07
2.46987e-06
4.95655e-07
3.19325e-06
7.04548e-07
3.76311e-06
9.17151e-07
4.18395e-06
1.1218e-06
4.46499e-06
1.30961e-06
4.61905e-06
1.47457e-06
4.66127e-06
1.61324e-06
4.60789e-06
1.72444e-06
4.47524e-06
1.80879e-06
4.27888e-06
1.86819e-06
4.03301e-06
1.90544e-06
3.75013e-06
1.92382e-06
3.44084e-06
1.9268e-06
3.11381e-06
1.91783e-06
2.77593e-06
1.90014e-06
2.43239e-06
1.87663e-06
2.08696e-06
1.84987e-06
1.74218e-06
1.82198e-06
1.39958e-06
1.79473e-06
1.05994e-06
1.76945e-06
7.23422e-07
1.74711e-06
3.89766e-07
1.72832e-06
5.84485e-08
1.71334e-06
-2.71197e-07
1.70212e-06
-5.99852e-07
1.69425e-06
-9.28103e-07
1.68904e-06
-1.25633e-06
1.68546e-06
-1.58457e-06
1.68217e-06
-1.91245e-06
1.67752e-06
-2.23896e-06
1.66956e-06
-2.5624e-06
1.65607e-06
-2.88015e-06
1.63461e-06
-3.18856e-06
1.60257e-06
-3.48273e-06
1.55735e-06
-3.75643e-06
1.49645e-06
-4.00191e-06
1.41774e-06
-4.20991e-06
1.31971e-06
-4.36959e-06
1.20179e-06
-4.46874e-06
1.06468e-06
-4.49395e-06
9.1079e-07
-4.43109e-06
7.44477e-07
-4.26592e-06
5.72345e-07
-3.98486e-06
4.03299e-07
-3.57599e-06
2.48397e-07
-3.03016e-06
1.20409e-07
-2.3421e-06
3.30822e-08
-1.51137e-06
-5.44237e-07
3.29702e-08
5.40742e-07
1.20975e-07
1.50596e-06
2.51394e-07
2.33945e-06
4.11067e-07
3.03358e-06
5.87285e-07
3.58689e-06
7.6855e-07
4.00268e-06
9.45131e-07
4.28841e-06
1.1094e-06
4.45478e-06
1.25591e-06
4.51475e-06
1.38131e-06
4.48249e-06
1.48411e-06
4.37245e-06
1.5643e-06
4.19868e-06
1.62308e-06
3.97423e-06
1.66246e-06
3.71075e-06
1.68496e-06
3.41834e-06
1.69334e-06
3.10543e-06
1.69045e-06
2.77883e-06
1.67898e-06
2.44386e-06
1.66143e-06
2.10451e-06
1.64003e-06
1.76358e-06
1.61667e-06
1.42294e-06
1.59293e-06
1.08369e-06
1.57004e-06
7.46316e-07
1.5489e-06
4.10903e-07
1.53012e-06
7.72318e-08
1.51398e-06
-2.5506e-07
1.50049e-06
-5.86365e-07
1.48938e-06
-9.16987e-07
1.48008e-06
-1.24703e-06
1.47176e-06
-1.57626e-06
1.46334e-06
-1.90403e-06
1.45345e-06
-2.22908e-06
1.44051e-06
-2.54945e-06
1.42269e-06
-2.86234e-06
1.39802e-06
-3.16389e-06
1.36444e-06
-3.44915e-06
1.31987e-06
-3.71186e-06
1.26241e-06
-3.94445e-06
1.19048e-06
-4.13797e-06
1.10303e-06
-4.28215e-06
9.99833e-07
-4.36554e-06
8.81729e-07
-4.37584e-06
7.50898e-07
-4.30026e-06
6.11103e-07
-4.12613e-06
4.67835e-07
-3.84159e-06
3.28342e-07
-3.4365e-06
2.01472e-07
-2.90329e-06
9.73185e-08
-2.23794e-06
2.66395e-08
-1.44069e-06
-5.17598e-07
2.63198e-08
5.14423e-07
9.7004e-08
1.43527e-06
2.02388e-07
2.23407e-06
3.32297e-07
2.90367e-06
4.76781e-07
3.44241e-06
6.26698e-07
3.85277e-06
7.74155e-07
4.14095e-06
9.12802e-07
4.31614e-06
1.03794e-06
4.38961e-06
1.14651e-06
4.37392e-06
1.23691e-06
4.28205e-06
1.30879e-06
4.1268e-06
1.36283e-06
3.9202e-06
1.40039e-06
3.67318e-06
1.42337e-06
3.39536e-06
1.43392e-06
3.09488e-06
1.43427e-06
2.77847e-06
1.42665e-06
2.45149e-06
1.41312e-06
2.11804e-06
1.39555e-06
1.78114e-06
1.37558e-06
1.44291e-06
1.35458e-06
1.10469e-06
1.33362e-06
7.67267e-07
1.31356e-06
4.30972e-07
1.29493e-06
9.58544e-08
1.27807e-06
-2.38195e-07
1.26303e-06
-5.71326e-07
1.24965e-06
-9.03603e-07
1.23752e-06
-1.2349e-06
1.22602e-06
-1.56476e-06
1.21431e-06
-1.89232e-06
1.20134e-06
-2.21611e-06
1.18587e-06
-2.53398e-06
1.16649e-06
-2.84295e-06
1.14167e-06
-3.13907e-06
1.10981e-06
-3.41729e-06
1.06935e-06
-3.6714e-06
1.01886e-06
-3.89396e-06
9.57175e-07
-4.07629e-06
8.8359e-07
-4.20856e-06
7.98042e-07
-4.27999e-06
7.01316e-07
-4.27912e-06
5.95242e-07
-4.19419e-06
4.82861e-07
-4.01375e-06
3.68525e-07
-3.72726e-06
2.57899e-07
-3.32587e-06
1.57826e-07
-2.80322e-06
7.60455e-08
-2.15616e-06
2.07623e-08
-1.3854e-06
-4.96835e-07
2.02587e-08
4.94164e-07
7.49661e-08
1.38057e-06
1.56962e-07
2.15207e-06
2.58633e-07
2.802e-06
3.7245e-07
3.32859e-06
4.91392e-07
3.73382e-06
6.09295e-07
4.02305e-06
7.21085e-07
4.20434e-06
8.22901e-07
4.2878e-06
9.12099e-07
4.28472e-06
9.87168e-07
4.20698e-06
1.04759e-06
4.06637e-06
1.09366e-06
3.87413e-06
1.12628e-06
3.64056e-06
1.1468e-06
3.37484e-06
1.15681e-06
3.08487e-06
1.15804e-06
2.77724e-06
1.15223e-06
2.4573e-06
1.14102e-06
2.12924e-06
1.12594e-06
1.79622e-06
1.10833e-06
1.46052e-06
1.08933e-06
1.12369e-06
1.06988e-06
7.86719e-07
1.0507e-06
4.50151e-07
1.03231e-06
1.14244e-07
1.01503e-06
-2.20915e-07
9.98985e-07
-5.55278e-07
9.84108e-07
-8.88726e-07
9.70158e-07
-1.22095e-06
9.5672e-07
-1.55133e-06
9.43205e-07
-1.8788e-06
9.28871e-07
-2.20177e-06
9.12825e-07
-2.51794e-06
8.94055e-07
-2.82418e-06
8.71452e-07
-3.11647e-06
8.43864e-07
-3.3897e-06
8.10156e-07
-3.6377e-06
7.69294e-07
-3.8531e-06
7.20453e-07
-4.02745e-06
6.63139e-07
-4.15125e-06
5.97335e-07
-4.21419e-06
5.23648e-07
-4.20543e-06
4.43448e-07
-4.11399e-06
3.5899e-07
-3.92929e-06
2.7348e-07
-3.64175e-06
1.9107e-07
-3.24346e-06
1.16758e-07
-2.72891e-06
5.6185e-08
-2.09559e-06
1.53205e-08
-1.34454e-06
-4.81515e-07
1.46672e-08
4.79497e-07
5.44895e-08
1.34074e-06
1.14474e-07
2.09209e-06
1.89251e-07
2.72722e-06
2.73446e-07
3.24439e-06
3.6197e-07
3.6453e-06
4.5028e-07
3.93474e-06
5.34556e-07
4.12007e-06
6.11813e-07
4.21054e-06
6.79927e-07
4.21661e-06
7.37595e-07
4.14932e-06
7.84251e-07
4.01972e-06
8.1995e-07
3.83843e-06
8.45231e-07
3.61528e-06
8.6099e-07
3.35908e-06
8.68351e-07
3.07751e-06
8.68561e-07
2.77703e-06
8.62905e-07
2.46296e-06
8.52631e-07
2.13952e-06
8.38903e-07
1.80995e-06
8.22771e-07
1.47665e-06
8.05144e-07
1.14132e-06
7.86784e-07
8.0508e-07
7.68299e-07
4.68636e-07
7.50152e-07
1.32392e-07
7.32655e-07
-2.03418e-07
7.15983e-07
-5.38607e-07
7.00179e-07
-8.72922e-07
6.85153e-07
-1.20592e-06
6.70695e-07
-1.53687e-06
6.56474e-07
-1.86458e-06
6.42051e-07
-2.18735e-06
6.26879e-07
-2.50276e-06
6.10326e-07
-2.80763e-06
5.91686e-07
-3.09783e-06
5.70216e-07
-3.36823e-06
5.45171e-07
-3.61265e-06
5.15859e-07
-3.82379e-06
4.81713e-07
-3.9933e-06
4.4237e-07
-4.1119e-06
3.97771e-07
-4.16959e-06
3.48258e-07
-4.15591e-06
2.94671e-07
-4.0604e-06
2.38438e-07
-3.87306e-06
1.81616e-07
-3.58493e-06
1.26903e-07
-3.18875e-06
7.75735e-08
-2.67958e-06
3.73498e-08
-2.05537e-06
1.01934e-08
-1.31738e-06
-4.71321e-07
9.43045e-09
4.70066e-07
3.52056e-08
1.31497e-06
7.42608e-08
2.05303e-06
1.23243e-07
2.67824e-06
1.78733e-07
3.1889e-06
2.37431e-07
3.5866e-06
2.96321e-07
3.87585e-06
3.5281e-07
4.06358e-06
4.04804e-07
4.15854e-06
4.50754e-07
4.17066e-06
4.89646e-07
4.11043e-06
5.20959e-07
3.98841e-06
5.446e-07
3.81479e-06
5.60827e-07
3.59905e-06
5.7016e-07
3.34975e-06
5.73303e-07
3.07437e-06
5.71069e-07
2.77927e-06
5.64317e-07
2.46971e-06
5.53905e-07
2.14993e-06
5.4065e-07
1.8232e-06
5.25304e-07
1.492e-06
5.08535e-07
1.15809e-06
4.90922e-07
8.22692e-07
4.72949e-07
4.86609e-07
4.55008e-07
1.50333e-07
4.374e-07
-1.8581e-07
4.20344e-07
-5.2155e-07
4.03977e-07
-8.56555e-07
3.88364e-07
-1.19031e-06
3.73497e-07
-1.522e-06
3.593e-07
-1.85039e-06
3.45632e-07
-2.17368e-06
3.3229e-07
-2.48942e-06
3.19013e-07
-2.79435e-06
3.05485e-07
-3.0843e-06
2.91349e-07
-3.3541e-06
2.76223e-07
-3.59752e-06
2.59719e-07
-3.80728e-06
2.41483e-07
-3.97506e-06
2.2123e-07
-4.09165e-06
1.98798e-07
-4.14716e-06
1.74211e-07
-4.13133e-06
1.47736e-07
-4.03393e-06
1.1994e-07
-3.84526e-06
9.17383e-08
-3.55672e-06
6.44081e-08
-3.16142e-06
3.95772e-08
-2.65475e-06
1.91631e-08
-2.03495e-06
5.26584e-09
-1.30349e-06
-4.66055e-07
4.43619e-09
4.6563e-07
1.67469e-08
1.30266e-06
3.56426e-08
2.03414e-06
5.9638e-08