/*--------------------------------*- C++ -*----------------------------------*\
  =========                 |
  \\      /  F ield         | OpenFOAM: The Open Source CFD Toolbox
   \\    /   O peration     | Website:  https://openfoam.org
    \\  /    A nd           | Version:  7
     \\/     M anipulation  |
\*---------------------------------------------------------------------------*/
FoamFile
{
    version     2.0;
    format      ascii;
    class       volVectorField;
    location    "0.018";
    object      U;
}
// * * * * * * * * * * * * * * * * * * * * * * * * * * * * * * * * * * * * * //

dimensions      [0 1 -1 0 0 0 0];

internalField   nonuniform List<vector> 
2500
(
(2.34439e-05 -2.35213e-05 0)
(5.9632e-05 -2.11463e-05 0)
(5.6816e-05 -1.64561e-06 0)
(-6.90659e-06 2.09231e-05 0)
(-0.00013356 4.19356e-05 0)
(-0.000316692 5.9733e-05 0)
(-0.000547582 7.39695e-05 0)
(-0.000816835 8.48171e-05 0)
(-0.00111522 9.2592e-05 0)
(-0.00143407 9.76314e-05 0)
(-0.00176543 0.000100257 0)
(-0.00210211 0.000100768 0)
(-0.00243769 9.94318e-05 0)
(-0.00276647 9.64941e-05 0)
(-0.00308344 9.21733e-05 0)
(-0.00338424 8.66645e-05 0)
(-0.0036651 8.01407e-05 0)
(-0.00392276 7.27551e-05 0)
(-0.00415446 6.46421e-05 0)
(-0.00435786 5.59204e-05 0)
(-0.00453101 4.66949e-05 0)
(-0.00467231 3.70593e-05 0)
(-0.00478046 2.70988e-05 0)
(-0.00485447 1.68927e-05 0)
(-0.00489363 6.51657e-06 0)
(-0.0048975 -3.95474e-06 0)
(-0.0048659 -1.44449e-05 0)
(-0.00479894 -2.48735e-05 0)
(-0.00469704 -3.51542e-05 0)
(-0.00456091 -4.51919e-05 0)
(-0.00439164 -5.48816e-05 0)
(-0.00419067 -6.41058e-05 0)
(-0.00395989 -7.27332e-05 0)
(-0.00370163 -8.06177e-05 0)
(-0.00341876 -8.75969e-05 0)
(-0.00311468 -9.34917e-05 0)
(-0.00279342 -9.81057e-05 0)
(-0.00245963 -0.000101226 0)
(-0.00211866 -0.00010262 0)
(-0.00177658 -0.000102042 0)
(-0.00144017 -9.92261e-05 0)
(-0.00111696 -9.38897e-05 0)
(-0.000815162 -8.57365e-05 0)
(-0.000543632 -7.44647e-05 0)
(-0.000311668 -5.98028e-05 0)
(-0.000128595 -4.16338e-05 0)
(-2.93761e-06 -2.0367e-05 0)
(5.92648e-05 2.28942e-06 0)
(6.06069e-05 2.1608e-05 0)
(2.36195e-05 2.35699e-05 0)
(2.14035e-05 -5.98789e-05 0)
(2.14252e-05 -2.0765e-05 0)
(-8.61715e-05 7.96288e-05 0)
(-0.000330485 0.000195214 0)
(-0.000716329 0.000306712 0)
(-0.00123419 0.00040525 0)
(-0.00186724 0.000487287 0)
(-0.00259529 0.000552006 0)
(-0.00339715 0.000599854 0)
(-0.00425194 0.000631863 0)
(-0.00513982 0.000649325 0)
(-0.00604235 0.000653629 0)
(-0.00694273 0.000646169 0)
(-0.00782583 0.000628294 0)
(-0.0086782 0.000601274 0)
(-0.00948796 0.000566291 0)
(-0.0102448 0.000524426 0)
(-0.0109397 0.00047666 0)
(-0.0115649 0.000423878 0)
(-0.0121141 0.000366878 0)
(-0.0125816 0.000306379 0)
(-0.0129631 0.000243036 0)
(-0.013255 0.000177452 0)
(-0.0134543 0.000110193 0)
(-0.0135593 4.18029e-05 0)
(-0.0135687 -2.718e-05 0)
(-0.0134822 -9.62096e-05 0)
(-0.0133 -0.000164717 0)
(-0.0130234 -0.000232097 0)
(-0.0126546 -0.000297693 0)
(-0.0121966 -0.000360791 0)
(-0.0116536 -0.000420602 0)
(-0.0110308 -0.00047626 0)
(-0.0103348 -0.000526815 0)
(-0.0095734 -0.000571227 0)
(-0.00875608 -0.000608373 0)
(-0.00789371 -0.000637045 0)
(-0.00699886 -0.000655967 0)
(-0.0060858 -0.000663806 0)
(-0.00517049 -0.000659196 0)
(-0.0042706 -0.000640777 0)
(-0.00340529 -0.000607245 0)
(-0.00259505 -0.000557448 0)
(-0.00186116 -0.000490544 0)
(-0.00122498 -0.000406318 0)
(-0.000706521 -0.000305858 0)
(-0.00032218 -0.000192987 0)
(-8.06811e-05 -7.68275e-05 0)
(2.38755e-05 2.30608e-05 0)
(2.19231e-05 6.06519e-05 0)
(2.68817e-06 -5.81144e-05 0)
(-7.66868e-05 8.6042e-05 0)
(-0.000336729 0.000340224 0)
(-0.000792204 0.000626231 0)
(-0.00144394 0.000905016 0)
(-0.00228004 0.00115571 0)
(-0.00327876 0.00136809 0)
(-0.00441306 0.00153821 0)
(-0.00565377 0.00166565 0)
(-0.00697137 0.00175192 0)
(-0.00833723 0.00179963 0)
(-0.00972433 0.0018119 0)
(-0.0111077 0.00179209 0)
(-0.0124645 0.00174358 0)
(-0.0137744 0.00166969 0)
(-0.0150192 0.00157352 0)
(-0.016183 0.00145799 0)
(-0.0172519 0.00132579 0)
(-0.018214 0.00117938 0)
(-0.019059 0.00102097 0)
(-0.0197785 0.000852603 0)
(-0.0203655 0.000676147 0)
(-0.0208143 0.000493327 0)
(-0.0211206 0.000305774 0)
(-0.0212814 0.00011506 0)
(-0.0212948 -7.72609e-05 0)
(-0.0211604 -0.000269615 0)
(-0.0208787 -0.000460369 0)
(-0.0204517 -0.000647792 0)
(-0.019883 -0.000830025 0)
(-0.0191772 -0.00100505 0)
(-0.0183411 -0.00117066 0)
(-0.0173827 -0.00132444 0)
(-0.0163125 -0.00146377 0)
(-0.0151424 -0.00158582 0)
(-0.0138871 -0.00168753 0)
(-0.0125632 -0.00176568 0)
(-0.0111899 -0.0018169 0)
(-0.00978876 -0.00183775 0)
(-0.00838364 -0.0018248 0)
(-0.00700075 -0.00177478 0)
(-0.00566816 -0.00168477 0)
(-0.00441537 -0.00155255 0)
(-0.00327247 -0.00137707 0)
(-0.00226887 -0.00115931 0)
(-0.00143141 -0.000903856 0)
(-0.000781255 -0.000621595 0)
(-0.000329298 -0.000333988 0)
(-7.33065e-05 -8.05585e-05 0)
(3.40541e-06 6.04551e-05 0)
(-1.89992e-05 2.91991e-06 0)
(-0.000190261 0.000327951 0)
(-0.000621108 0.000795071 0)
(-0.0013005 0.00130354 0)
(-0.00221941 0.00179723 0)
(-0.00336169 0.00224327 0)
(-0.0047009 0.0026238 0)
(-0.00620465 0.00293075 0)
(-0.00783784 0.00316203 0)
(-0.0095646 0.00331926 0)
(-0.0113497 0.00340621 0)
(-0.0131595 0.00342793 0)
(-0.0149626 0.0033901 0)
(-0.0167302 0.00329863 0)
(-0.0184362 0.00315941 0)
(-0.0200572 0.0029781 0)
(-0.0215727 0.00276006 0)
(-0.0229646 0.00251027 0)
(-0.0242175 0.00223334 0)
(-0.0253179 0.00193347 0)
(-0.0262548 0.00161455 0)
(-0.0270189 0.00128012 0)
(-0.027603 0.00093353 0)
(-0.0280013 0.000577907 0)
(-0.0282098 0.000216295 0)
(-0.0282264 -0.000148307 0)
(-0.0280502 -0.000512857 0)
(-0.0276822 -0.00087421 0)
(-0.027125 -0.00122905 0)
(-0.0263833 -0.00157381 0)
(-0.0254634 -0.00190465 0)
(-0.024374 -0.00221739 0)
(-0.0231259 -0.0025075 0)
(-0.0217324 -0.00277006 0)
(-0.0202095 -0.00299977 0)
(-0.0185758 -0.00319102 0)
(-0.0168528 -0.00333788 0)
(-0.0150652 -0.00343426 0)
(-0.0132403 -0.00347402 0)
(-0.0114084 -0.00345119 0)
(-0.00960244 -0.00336024 0)
(-0.0078572 -0.00319653 0)
(-0.00620901 -0.00295688 0)
(-0.00469445 -0.00264054 0)
(-0.00334894 -0.00225055 0)
(-0.00220466 -0.00179612 0)
(-0.00128738 -0.00129618 0)
(-0.000612108 -0.000784655 0)
(-0.000186157 -0.000318443 0)
(-1.81395e-05 1.46362e-06 0)
(-3.93614e-05 0.000125772 0)
(-0.000302081 0.000712146 0)
(-0.00090579 0.00144939 0)
(-0.00180955 0.00222465 0)
(-0.00299095 0.00296972 0)
(-0.00442753 0.00364195 0)
(-0.00608741 0.00421658 0)
(-0.00793304 0.00468133 0)
(-0.0099243 0.00503224 0)
(-0.0120202 0.0052707 0)
(-0.0141803 0.00540157 0)
(-0.0163658 0.00543184 0)
(-0.0185401 0.00536967 0)
(-0.0206695 0.00522379 0)
(-0.0227235 0.00500301 0)
(-0.0246743 0.00471597 0)
(-0.0264977 0.0043709 0)
(-0.028172 0.00397553 0)
(-0.0296788 0.00353706 0)
(-0.0310022 0.00306211 0)
(-0.0321287 0.00255682 0)
(-0.0330473 0.00202684 0)
(-0.0337491 0.00147749 0)
(-0.0342275 0.0009138 0)
(-0.0344777 0.000340633 0)
(-0.0344968 -0.000237194 0)
(-0.0342841 -0.000814815 0)
(-0.0338407 -0.00138719 0)
(-0.03317 -0.00194904 0)
(-0.0322774 -0.00249469 0)
(-0.0311707 -0.00301805 0)
(-0.0298602 -0.00351252 0)
(-0.028359 -0.00397097 0)
(-0.026683 -0.00438571 0)
(-0.0248512 -0.00474849 0)
(-0.0228858 -0.00505062 0)
(-0.0208124 -0.00528303 0)
(-0.0186598 -0.00543643 0)
(-0.0164603 -0.00550163 0)
(-0.0142493 -0.00546982 0)
(-0.012065 -0.00533305 0)
(-0.00994751 -0.00508494 0)
(-0.00793867 -0.00472154 0)
(-0.00608027 -0.00424268 0)
(-0.00441284 -0.00365383 0)
(-0.00297374 -0.00296888 0)
(-0.00179411 -0.00221424 0)
(-0.000895125 -0.0014341 0)
(-0.000297192 -0.000697859 0)
(-3.8333e-05 -0.000118962 0)
(-5.71486e-05 0.000305802 0)
(-0.000405438 0.00123433 0)
(-0.00117541 0.00229994 0)
(-0.00229647 0.00338542 0)
(-0.00373146 0.00441535 0)
(-0.00545005 0.00534012 0)
(-0.00741397 0.00612957 0)
(-0.00958021 0.00676792 0)
(-0.0119038 0.00724947 0)
(-0.0143391 0.00757549 0)
(-0.0168413 0.00775196 0)
(-0.0193672 0.00778786 0)
(-0.0218762 0.007694 0)
(-0.0243304 0.00748212 0)
(-0.0266955 0.00716425 0)
(-0.0289404 0.00675231 0)
(-0.0310376 0.00625775 0)
(-0.0329627 0.00569142 0)
(-0.0346947 0.00506347 0)
(-0.0362154 0.00438329 0)
(-0.0375097 0.00365963 0)
(-0.038565 0.00290059 0)
(-0.0393711 0.00211379 0)
(-0.0399204 0.00130645 0)
(-0.0402074 0.00048559 0)
(-0.0402291 -0.000341856 0)
(-0.0399844 -0.00116888 0)
(-0.0394748 -0.00198825 0)
(-0.038704 -0.00279236 0)
(-0.0376782 -0.00357311 0)
(-0.0364064 -0.00432179 0)
(-0.0349004 -0.00502902 0)
(-0.033175 -0.00568467 0)
(-0.0312482 -0.00627786 0)
(-0.0291417 -0.00679701 0)
(-0.0268805 -0.00722993 0)
(-0.0244934 -0.00756401 0)
(-0.0220131 -0.00778644 0)
(-0.0194757 -0.00788467 0)
(-0.0169207 -0.0078468 0)
(-0.0143908 -0.00766235 0)
(-0.0119307 -0.00732312 0)
(-0.00958691 -0.00682441 0)
(-0.00740585 -0.00616662 0)
(-0.00543306 -0.00535745 0)
(-0.0037114 -0.00441494 0)
(-0.00227836 -0.00337153 0)
(-0.00116282 -0.00227895 0)
(-0.000399623 -0.0012144 0)
(-5.5914e-05 -0.000296125 0)
(-7.23516e-05 0.00053709 0)
(-0.000498698 0.00188544 0)
(-0.00142469 0.00333735 0)
(-0.00275245 0.00477619 0)
(-0.00443006 0.00612319 0)
(-0.00641853 0.00732461 0)
(-0.00867241 0.00834667 0)
(-0.0111427 0.00917109 0)
(-0.0137795 0.0097911 0)
(-0.0165325 0.0102082 0)
(-0.0193529 0.0104296 0)
(-0.0221937 0.0104665 0)
(-0.0250104 0.0103327 0)
(-0.027762 0.0100429 0)
(-0.0304109 0.00961287 0)
(-0.0329231 0.0090579 0)
(-0.0352685 0.00839301 0)
(-0.0374205 0.00763245 0)
(-0.0393557 0.00678963 0)
(-0.0410545 0.00587702 0)
(-0.0425 0.00490624 0)
(-0.0436783 0.00388812 0)
(-0.0445784 0.00283284 0)
(-0.0451918 0.00175011 0)
(-0.0455125 0.000649337 0)
(-0.045537 -0.000460183 0)
(-0.0452642 -0.00156904 0)
(-0.0446958 -0.00266754 0)
(-0.0438357 -0.00374549 0)
(-0.0426908 -0.00479207 0)
(-0.0412711 -0.00579568 0)
(-0.0395893 -0.00674379 0)
(-0.0376618 -0.00762298 0)
(-0.0355084 -0.00841884 0)
(-0.0331527 -0.0091161 0)
(-0.0306224 -0.00969874 0)
(-0.0279489 -0.0101503 0)
(-0.0251679 -0.0104541 0)
(-0.022319 -0.0105939 0)
(-0.0194453 -0.0105546 0)
(-0.0165932 -0.010323 0)
(-0.0138117 -0.00988878 0)
(-0.0111515 -0.00924638 0)
(-0.00866387 -0.00839646 0)
(-0.00639942 -0.00734842 0)
(-0.00440708 -0.00612345 0)
(-0.00273146 -0.00475835 0)
(-0.00140995 -0.00330975 0)
(-0.000491814 -0.00185888 0)
(-7.08667e-05 -0.000523987 0)
(-8.54051e-05 0.000813977 0)
(-0.000582632 0.00265539 0)
(-0.00165393 0.00455032 0)
(-0.00317713 0.00638545 0)
(-0.00508638 0.0080815 0)
(-0.00733372 0.00958288 0)
(-0.00986605 0.010854 0)
(-0.0126279 0.0118752 0)
(-0.015564 0.0126396 0)
(-0.0186196 0.0131493 0)
(-0.0217415 0.0134134 0)
(-0.0248792 0.0134456 0)
(-0.027985 0.0132626 0)
(-0.0310146 0.0128829 0)
(-0.0339278 0.0123257 0)
(-0.0366883 0.0116102 0)
(-0.0392634 0.0107553 0)
(-0.0416247 0.00977879 0)
(-0.0437474 0.00869765 0)
(-0.0456099 0.00752767 0)
(-0.0471945 0.00628357 0)
(-0.0484861 0.00497914 0)
(-0.0494728 0.00362735 0)
(-0.0501455 0.00224056 0)
(-0.0504978 0.000830787 0)
(-0.0505258 -0.0005901 0)
(-0.0502284 -0.0020101 0)
(-0.0496071 -0.00341683 0)
(-0.0486663 -0.00479732 0)
(-0.0474133 -0.00613779 0)
(-0.0458586 -0.00742346 0)
(-0.044016 -0.00863846 0)
(-0.0419029 -0.00976575 0)
(-0.0395406 -0.0107871 0)
(-0.0369544 -0.0116832 0)
(-0.034174 -0.012434 0)
(-0.0312332 -0.0130188 0)
(-0.0281703 -0.0134167 0)
(-0.0250279 -0.0136077 0)
(-0.0218524 -0.013573 0)
(-0.0186938 -0.0132963 0)
(-0.0156052 -0.0127651 0)
(-0.0126416 -0.0119725 0)
(-0.00985894 -0.0109189 0)
(-0.00731362 -0.00961465 0)
(-0.00506103 -0.00808296 0)
(-0.00315343 -0.00636336 0)
(-0.00163701 -0.00451521 0)
(-0.000574601 -0.00262112 0)
(-8.36359e-05 -0.000796815 0)
(-9.6827e-05 0.00113171 0)
(-0.000658971 0.00353497 0)
(-0.00186617 0.00592817 0)
(-0.00357487 0.00820249 0)
(-0.00570629 0.0102799 0)
(-0.00820361 0.0121047 0)
(-0.0110058 0.013641 0)
(-0.0140506 0.0148692 0)
(-0.0172769 0.015783 0)
(-0.0206253 0.016386 0)
(-0.0240382 0.0166895 0)
(-0.0274615 0.0167103 0)
(-0.0308442 0.0164683 0)
(-0.0341394 0.0159861 0)
(-0.0373041 0.0152868 0)
(-0.0402999 0.0143937 0)
(-0.0430923 0.0133297 0)
(-0.0456512 0.0121166 0)
(-0.0479502 0.010775 0)
(-0.0499669 0.00932428 0)
(-0.0516822 0.00778251 0)
(-0.0530804 0.00616656 0)
(-0.0541489 0.00449237 0)
(-0.054878 0.00277515 0)
(-0.0552609 0.00102963 0)
(-0.0552935 -0.000729584 0)
(-0.0549744 -0.00248774 0)
(-0.0543052 -0.00422963 0)
(-0.0532904 -0.00593932 0)
(-0.0519376 -0.00759986 0)
(-0.0502576 -0.00919314 0)
(-0.048265 -0.0106997 0)
(-0.0459781 -0.0120986 0)
(-0.0434192 -0.0133675 0)
(-0.0406152 -0.0144829 0)
(-0.0375974 -0.0154202 0)
(-0.0344016 -0.0161542 0)
(-0.0310686 -0.0166597 0)
(-0.0276437 -0.0169122 0)
(-0.0241766 -0.016889 0)
(-0.0207208 -0.0165705 0)
(-0.0173333 -0.0159414 0)
(-0.0140739 -0.0149929 0)
(-0.0110036 -0.0137245 0)
(-0.00818488 -0.0121468 0)
(-0.00567999 -0.0102837 0)
(-0.00354917 -0.00817628 0)
(-0.00184733 -0.00588488 0)
(-0.000649823 -0.00349198 0)
(-9.47582e-05 -0.00110984 0)
(-0.000107105 0.0014867 0)
(-0.000729757 0.00451684 0)
(-0.00206574 0.00746226 0)
(-0.00395245 0.0102187 0)
(-0.00629923 0.0127104 0)
(-0.00904057 0.0148829 0)
(-0.0121074 0.016701 0)
(-0.0154304 0.0181465 0)
(-0.0189424 0.0192144 0)
(-0.0225786 0.0199108 0)
(-0.0262774 0.0202499 0)
(-0.0299805 0.0202518 0)
(-0.0336338 0.0199407 0)
(-0.0371876 0.019343 0)
(-0.0405966 0.0184864 0)
(-0.0438203 0.0173986 0)
(-0.0468225 0.0161067 0)
(-0.0495718 0.0146369 0)
(-0.0520406 0.0130135 0)
(-0.0542054 0.0112598 0)
(-0.0560465 0.0093972 0)
(-0.0575473 0.00744594 0)
(-0.0586949 0.00542503 0)
(-0.059479 0.00335259 0)
(-0.0598924 0.00124624 0)
(-0.0599309 -0.000876603 0)
(-0.059593 -0.00299834 0)
(-0.0588799 -0.00510081 0)
(-0.0577963 -0.00716499 0)
(-0.0563498 -0.00917064 0)
(-0.0545516 -0.0110961 0)
(-0.0524165 -0.0129181 0)
(-0.0499636 -0.0146117 0)
(-0.0472162 -0.0161501 0)
(-0.044202 -0.0175053 0)
(-0.0409541 -0.0186479 0)
(-0.03751 -0.0195477 0)
(-0.0339129 -0.0201748 0)
(-0.0302106 -0.0205 0)
(-0.026456 -0.0204962 0)
(-0.0227064 -0.0201398 0)
(-0.0190231 -0.0194123 0)
(-0.0154705 -0.0183023 0)
(-0.0121157 -0.016808 0)
(-0.00902706 -0.0149388 0)
(-0.00627446 -0.0127188 0)
(-0.00392615 -0.0101892 0)
(-0.0020456 -0.00741059 0)
(-0.000719656 -0.00446436 0)
(-0.000104744 -0.00145949 0)
(-0.000116674 0.0018765 0)
(-0.000797077 0.00559595 0)
(-0.00225748 0.00914667 0)
(-0.00431788 0.0124285 0)
(-0.00687652 0.0153682 0)
(-0.00985948 0.0179134 0)
(-0.0131896 0.0200309 0)
(-0.0167901 0.0217043 0)
(-0.0205874 0.0229314 0)
(-0.0245114 0.0237212 0)
(-0.0284954 0.0240916 0)
(-0.0324775 0.0240669 0)
(-0.0364 0.0236756 0)
(-0.0402103 0.0229491 0)
(-0.0438611 0.0219196 0)
(-0.0473098 0.0206198 0)
(-0.0505188 0.0190814 0)
(-0.0534552 0.0173348 0)
(-0.0560906 0.0154087 0)
(-0.0584007 0.0133303 0)
(-0.0603652 0.0111245 0)
(-0.061967 0.00881506 0)
(-0.0631927 0.0064241 0)
(-0.0640317 0.00397279 0)
(-0.0644767 0.00148164 0)
(-0.0645228 -0.00102904 0)
(-0.0641686 -0.00353874 0)
(-0.0634151 -0.00602629 0)
(-0.0622667 -0.00846947 0)
(-0.060731 -0.0108446 0)
(-0.0588193 -0.0131265 0)
(-0.0565467 -0.0152877 0)
(-0.0539325 -0.017299 0)
(-0.0510007 -0.0191292 0)
(-0.0477801 -0.0207452 0)
(-0.0443048 -0.0221124 0)
(-0.0406144 -0.0231956 0)
(-0.036754 -0.0239594 0)
(-0.0327742 -0.0243693 0)
(-0.0287312 -0.0243934 0)
(-0.0246861 -0.0240036 0)
(-0.0207048 -0.0231774 0)
(-0.0168571 -0.0219004 0)
(-0.0132159 -0.0201681 0)
(-0.00985676 -0.0179885 0)
(-0.00685697 -0.0153849 0)
(-0.00429314 -0.0123977 0)
(-0.00223707 -0.00908717 0)
(-0.000786341 -0.00553359 0)
(-0.000114051 -0.00184345 0)
(-0.000125917 0.0022998 0)
(-0.000862953 0.00676966 0)
(-0.00244632 0.0109786 0)
(-0.00467959 0.0148297 0)
(-0.00745041 0.0182523 0)
(-0.0106765 0.0211965 0)
(-0.0142725 0.0236317 0)
(-0.0181541 0.0255444 0)
(-0.0222408 0.0269358 0)
(-0.0264565 0.027819 0)
(-0.0307298 0.0282162 0)
(-0.0349943 0.0281565 0)
(-0.0391888 0.0276738 0)
(-0.043258 0.0268043 0)
(-0.0471521 0.025586 0)
(-0.0508266 0.0240564 0)
(-0.0542426 0.0222523 0)
(-0.0573661 0.0202088 0)
(-0.060168 0.0179592 0)
(-0.0626232 0.0155345 0)
(-0.0647109 0.0129636 0)
(-0.0664139 0.0102735 0)
(-0.0677183 0.00748984 0)
(-0.0686134 0.00463664 0)
(-0.0690914 0.00173742 0)
(-0.0691475 -0.00118464 0)
(-0.0687795 -0.00410609 0)
(-0.0679885 -0.00700272 0)
(-0.0667785 -0.00984908 0)
(-0.065157 -0.012618 0)
(-0.0631349 -0.0152805 0)
(-0.0607275 -0.017805 0)
(-0.0579542 -0.0201578 0)
(-0.0548394 -0.0223026 0)
(-0.0514127 -0.0242013 0)
(-0.0477094 -0.0258137 0)
(-0.0437705 -0.0270988 0)
(-0.0396434 -0.0280153 0)
(-0.0353814 -0.0285231 0)
(-0.0310442 -0.0285845 0)
(-0.0266971 -0.0281663 0)
(-0.0224109 -0.0272414 0)
(-0.0182611 -0.0257914 0)
(-0.0143273 -0.0238084 0)
(-0.0106921 -0.0212984 0)
(-0.00744117 -0.0182827 0)
(-0.00465947 -0.0148012 0)
(-0.00242716 -0.0109129 0)
(-0.000852066 -0.00669768 0)
(-0.000123089 -0.00226059 0)
(-0.000135174 0.00275632 0)
(-0.000929309 0.00803777 0)
(-0.00263716 0.0129586 0)
(-0.00504613 0.0174239 0)
(-0.00803346 0.0213655 0)
(-0.0115085 0.0247363 0)
(-0.0153774 0.0275086 0)
(-0.0195477 0.0296726 0)
(-0.023932 0.031234 0)
(-0.0284479 0.0322104 0)
(-0.0330184 0.0326295 0)
(-0.0375727 0.0325261 0)
(-0.042046 0.0319396 0)
(-0.0463798 0.0309125 0)
(-0.050522 0.0294884 0)
(-0.0544263 0.0277105 0)
(-0.0580526 0.0256211 0)
(-0.0613658 0.0232603 0)
(-0.0643362 0.0206659 0)
(-0.0669383 0.0178733 0)
(-0.069151 0.0149153 0)
(-0.0709569 0.0118226 0)
(-0.0723419 0.00862368 0)
(-0.073295 0.00534594 0)
(-0.0738084 0.00201572 0)
(-0.0738767 -0.00134093 0)
(-0.0734978 -0.00469766 0)
(-0.0726721 -0.00802725 0)
(-0.0714033 -0.011301 0)
(-0.0696983 -0.0144882 0)
(-0.067568 -0.017556 0)
(-0.065027 -0.0204685 0)
(-0.062095 -0.0231872 0)
(-0.0587963 -0.0256708 0)
(-0.0551613 -0.0278754 0)
(-0.0512261 -0.0297548 0)
(-0.0470333 -0.0312618 0)
(-0.0426324 -0.0323486 0)
(-0.0380796 -0.0329687 0)
(-0.0334382 -0.0330779 0)
(-0.028778 -0.0326371 0)
(-0.0241752 -0.0316137 0)
(-0.0197115 -0.0299843 0)
(-0.0154736 -0.0277373 0)
(-0.0115521 -0.0248754 0)
(-0.00804118 -0.0214179 0)
(-0.00503471 -0.0174032 0)
(-0.00262127 -0.0128899 0)
(-0.000918941 -0.00795732 0)
(-0.000132223 -0.00271092 0)
(-0.000144752 0.00324677 0)
(-0.000997968 0.0094025 0)
(-0.00283474 0.0150904 0)
(-0.005426 0.0202167 0)
(-0.00863829 0.0247151 0)
(-0.0123723 0.0285412 0)
(-0.0165254 0.031671 0)
(-0.0209967 0.0340992 0)
(-0.025691 0.0358362 0)
(-0.0305193 0.0369056 0)
(-0.0353989 0.0373412 0)
(-0.040254 0.0371843 0)
(-0.045016 0.036481 0)
(-0.0496232 0.0352804 0)
(-0.0540211 0.0336326 0)
(-0.0581618 0.0315872 0)
(-0.0620038 0.029192 0)
(-0.0655113 0.0264926 0)
(-0.0686541 0.0235318 0)
(-0.0714065 0.0203494 0)
(-0.0737472 0.0169822 0)
(-0.0756587 0.0134645 0)
(-0.077127 0.00982803 0)
(-0.078141 0.00610321 0)
(-0.0786925 0.00231921 0)
(-0.0787762 -0.00149514 0)
(-0.0783892 -0.00531068 0)
(-0.0775316 -0.00909721 0)
(-0.0762065 -0.0128228 0)
(-0.0744202 -0.0164534 0)
(-0.0721829 -0.0199518 0)
(-0.0695088 -0.0232781 0)
(-0.0664171 -0.0263885 0)
(-0.0629323 -0.0292364 0)
(-0.0590847 -0.0317717 0)
(-0.0549115 -0.0339419 0)
(-0.0504566 -0.0356927 0)
(-0.0457717 -0.0369692 0)
(-0.040916 -0.0377174 0)
(-0.0359564 -0.0378864 0)
(-0.0309678 -0.0374296 0)
(-0.0260321 -0.0363082 0)
(-0.0212378 -0.0344932 0)
(-0.0166794 -0.031968 0)
(-0.0124562 -0.0287316 0)
(-0.00867141 -0.0248006 0)
(-0.00542845 -0.0202119 0)
(-0.00282477 -0.0150237 0)
(-0.000989002 -0.00931587 0)
(-0.000141791 -0.00319554 0)
(-0.000154935 0.00377277 0)
(-0.00107067 0.0108684 0)
(-0.0030437 0.0173813 0)
(-0.00582752 0.0232176 0)
(-0.00927742 0.0283125 0)
(-0.013285 0.0326243 0)
(-0.017738 0.036133 0)
(-0.0225266 0.0388384 0)
(-0.0275475 0.0407568 0)
(-0.0327043 0.0419185 0)
(-0.0379083 0.0423645 0)
(-0.0430784 0.0421433 0)
(-0.0481417 0.0413089 0)
(-0.0530336 0.0399177 0)
(-0.0576971 0.0380271 0)
(-0.0620825 0.0356934 0)
(-0.0661473 0.0329708 0)
(-0.0698551 0.0299107 0)
(-0.0731754 0.0265612 0)
(-0.0760824 0.0229665 0)
(-0.0785549 0.0191677 0)
(-0.0805757 0.0152025 0)
(-0.0821307 0.011106 0)
(-0.0832089 0.00691158 0)
(-0.083802 0.00265102 0)
(-0.0839043 -0.00164418 0)
(-0.0835125 -0.00594216 0)
(-0.0826262 -0.0102099 0)
(-0.0812475 -0.0144124 0)
(-0.079382 -0.0185119 0)
(-0.0770389 -0.0224674 0)
(-0.0742317 -0.0262343 0)
(-0.0709789 -0.0297639 0)
(-0.0673045 -0.0330033 0)
(-0.0632391 -0.0358963 0)
(-0.0588201 -0.0383831 0)
(-0.054093 -0.0404018 0)
(-0.0491114 -0.0418895 0)
(-0.0439375 -0.0427842 0)
(-0.0386423 -0.0430264 0)
(-0.0333059 -0.0425618 0)
(-0.0280165 -0.041344 0)
(-0.0228701 -0.0393371 0)
(-0.0179698 -0.0365191 0)
(-0.013424 -0.0328843 0)
(-0.00934641 -0.0284462 0)
(-0.00585036 -0.0232401 0)
(-0.00304297 -0.017324 0)
(-0.00106424 -0.0107793 0)
(-0.00015211 -0.00371657 0)
(-0.00016599 0.00433684 0)
(-0.00114912 0.0124422 0)
(-0.00326859 0.0198417 0)
(-0.00625895 0.0264399 0)
(-0.00996329 0.0321733 0)
(-0.0142632 0.0370028 0)
(-0.0190363 0.0409128 0)
(-0.0241629 0.0439089 0)
(-0.0295308 0.0460141 0)
(-0.0350358 0.0472666 0)
(-0.0405826 0.0477155 0)
(-0.0460845 0.0474179 0)
(-0.0514644 0.0464365 0)
(-0.0566542 0.0448359 0)
(-0.0615946 0.0426817 0)
(-0.0662344 0.0400375 0)
(-0.07053 0.0369647 0)
(-0.0744449 0.0335208 0)
(-0.0779482 0.0297592 0)
(-0.0810147 0.0257291 0)
(-0.0836233 0.0214757 0)
(-0.0857572 0.0170403 0)
(-0.0874027 0.0124613 0)
(-0.0885488 0.00777462 0)
(-0.0891872 0.00301471 0)
(-0.0893119 -0.00178451 0)
(-0.0889191 -0.00658872 0)
(-0.0880076 -0.0113622 0)
(-0.0865785 -0.016067 0)
(-0.0846363 -0.020662 0)
(-0.0821891 -0.0251021 0)
(-0.0792491 -0.0293381 0)
(-0.0758337 -0.0333158 0)
(-0.0719664 -0.0369763 0)
(-0.0676772 -0.0402562 0)
(-0.0630039 -0.043088 0)
(-0.057993 -0.0454016 0)
(-0.0527 -0.047125 0)
(-0.0471902 -0.0481868 0)
(-0.041539 -0.0485182 0)
(-0.0358317 -0.0480557 0)
(-0.0301637 -0.0467443 0)
(-0.024639 -0.0445402 0)
(-0.0193701 -0.0414144 0)
(-0.0144759 -0.037356 0)
(-0.0100809 -0.032375 0)
(-0.00631017 -0.0265049 0)
(-0.00328121 -0.0198042 0)
(-0.00114662 -0.0123564 0)
(-0.000163492 -0.00427714 0)
(-0.00017818 0.00494235 0)
(-0.00123498 0.0141329 0)
(-0.0035139 0.0224852 0)
(-0.0067285 0.0299011 0)
(-0.0107083 0.0363175 0)
(-0.0153238 0.0416984 0)
(-0.0204414 0.046033 0)
(-0.0259307 0.0493331 0)
(-0.0316698 0.05163 0)
(-0.037546 0.0529705 0)
(-0.0434567 0.0534133 0)
(-0.0493095 0.0530253 0)
(-0.0550228 0.0518788 0)
(-0.060525 0.0500481 0)
(-0.0657545 0.0476074 0)
(-0.0706589 0.044629 0)
(-0.0751938 0.0411814 0)
(-0.0793224 0.0373291 0)
(-0.0830145 0.0331311 0)
(-0.0862451 0.0286417 0)
(-0.088994 0.0239104 0)
(-0.0912448 0.0189819 0)
(-0.0929845 0.0138977 0)
(-0.0942023 0.0086962 0)
(-0.09489 0.00341423 0)
(-0.0950413 -0.00191215 0)
(-0.0946518 -0.00724642 0)
(-0.0937193 -0.0125505 0)
(-0.0922439 -0.0177835 0)
(-0.0902286 -0.0229012 0)
(-0.0876797 -0.0278546 0)
(-0.0846081 -0.0325897 0)
(-0.0810296 -0.0370466 0)
(-0.0769664 -0.04116 0)
(-0.0724478 -0.0448588 0)
(-0.0675116 -0.0480673 0)
(-0.0622047 -0.0507058 0)
(-0.0565845 -0.0526925 0)
(-0.0507194 -0.0539455 0)
(-0.044689 -0.0543851 0)
(-0.0385847 -0.0539374 0)
(-0.0325091 -0.052537 0)
(-0.0265753 -0.0501311 0)
(-0.0209061 -0.0466827 0)
(-0.015632 -0.0421746 0)
(-0.0108901 -0.0366127 0)
(-0.00681784 -0.0300286 0)
(-0.00354492 -0.0224815 0)
(-0.00123814 -0.0140584 0)
(-0.000176246 -0.00488141 0)
(-0.000191768 0.00559352 0)
(-0.00132993 0.015952 0)
(-0.00378419 0.0253288 0)
(-0.00724443 0.0336223 0)
(-0.0115248 0.0407694 0)
(-0.0164835 0.0467372 0)
(-0.0219743 0.05152 0)
(-0.0278549 0.0551375 0)
(-0.0339927 0.0576297 0)
(-0.0402659 0.0590538 0)
(-0.0465639 0.0594792 0)
(-0.0527884 0.0589843 0)
(-0.058853 0.0576521 0)
(-0.0646826 0.0555679 0)
(-0.0702137 0.0528157 0)
(-0.0753924 0.0494769 0)
(-0.0801744 0.0456284 0)
(-0.084523 0.0413416 0)
(-0.0884085 0.0366819 0)
(-0.0918072 0.0317087 0)
(-0.0946998 0.0264755 0)
(-0.0970708 0.0210309 0)
(-0.098908 0.0154189 0)
(-0.100201 0.00968026 0)
(-0.100942 0.00385381 0)
(-0.101125 -0.0020226 0)
(-0.100744 -0.00791061 0)
(-0.0997953 -0.01377 0)
(-0.0982788 -0.0195577 0)
(-0.0961951 -0.0252261 0)
(-0.0935487 -0.0307225 0)
(-0.0903483 -0.0359881 0)
(-0.0866077 -0.0409575 0)
(-0.0823472 -0.0455581 0)
(-0.0775948 -0.0497111 0)
(-0.0723876 -0.0533313 0)
(-0.066773 -0.0563288 0)
(-0.0608095 -0.0586105 0)
(-0.0545685 -0.0600825 0)
(-0.0481341 -0.0606532 0)
(-0.0416038 -0.060236 0)
(-0.0350881 -0.058754 0)
(-0.0287102 -0.0561435 0)
(-0.0226042 -0.0523581 0)
(-0.0169135 -0.0473734 0)
(-0.0117893 -0.0411902 0)
(-0.0073836 -0.0338381 0)
(-0.00383972 -0.0253774 0)
(-0.00134089 -0.0158993 0)
(-0.000190695 -0.00553459 0)
(-0.000207026 0.00629546 0)
(-0.00143569 0.017913 0)
(-0.00408407 0.0283929 0)
(-0.00781511 0.0376288 0)
(-0.0124254 0.0455576 0)
(-0.0177592 0.0521493 0)
(-0.0236559 0.0574047 0)
(-0.0299601 0.0613518 0)
(-0.0365272 0.0640413 0)
(-0.0432253 0.065542 0)
(-0.0499358 0.0659361 0)
(-0.0565537 0.0653146 0)
(-0.0629875 0.0637731 0)
(-0.0691593 0.0614089 0)
(-0.0750034 0.0583173 0)
(-0.0804654 0.0545898 0)
(-0.0855007 0.0503121 0)
(-0.0900737 0.0455633 0)
(-0.094156 0.0404154 0)
(-0.0977252 0.034933 0)
(-0.100763 0.0291741 0)
(-0.103257 0.0231902 0)
(-0.105194 0.0170281 0)
(-0.106566 0.0107306 0)
(-0.107364 0.00433787 0)
(-0.107583 -0.00211083 0)
(-0.107215 -0.00857576 0)
(-0.106258 -0.0150151 0)
(-0.104707 -0.0213837 0)
(-0.102562 -0.0276312 0)
(-0.0998239 -0.0337014 0)
(-0.0964999 -0.0395306 0)
(-0.0926005 -0.0450477 0)
(-0.0881437 -0.0501728 0)
(-0.0831554 -0.0548184 0)
(-0.0776713 -0.0588893 0)
(-0.0717384 -0.0622841 0)
(-0.0654163 -0.0648972 0)
(-0.0587788 -0.0666212 0)
(-0.0519145 -0.0673502 0)
(-0.0449272 -0.0669837 0)
(-0.0379362 -0.065431 0)
(-0.0310752 -0.0626155 0)
(-0.024491 -0.0584799 0)
(-0.0183418 -0.052991 0)
(-0.0127947 -0.0461437 0)
(-0.00801813 -0.0379653 0)
(-0.00417148 -0.0285173 0)
(-0.00145702 -0.0178961 0)
(-0.000207179 -0.00624296 0)
(-0.000224241 0.00705417 0)
(-0.00155406 0.0200317 0)
(-0.00441836 0.031701 0)
(-0.0084492 0.0419498 0)
(-0.013423 0.0507146 0)
(-0.0191678 0.0579692 0)
(-0.025507 0.0637213 0)
(-0.0322702 0.068009 0)
(-0.0392997 0.0708953 0)
(-0.0464527 0.0724627 0)
(-0.0536015 0.0728078 0)
(-0.0606342 0.0720361 0)
(-0.0674548 0.070258 0)
(-0.0739821 0.0675839 0)
(-0.0801488 0.0641218 0)
(-0.0859003 0.0599743 0)
(-0.091193 0.0552369 0)
(-0.0959924 0.049997 0)
(-0.100272 0.0443334 0)
(-0.104012 0.0383161 0)
(-0.107195 0.0320072 0)
(-0.109811 0.0254615 0)
(-0.11185 0.0187279 0)
(-0.113302 0.0118506 0)
(-0.114162 0.00487084 0)
(-0.114421 -0.0021713 0)
(-0.114074 -0.00923533 0)
(-0.113115 -0.0162784 0)
(-0.111538 -0.0232538 0)
(-0.109341 -0.0301089 0)
(-0.106521 -0.0367842 0)
(-0.103082 -0.0432115 0)
(-0.0990303 -0.0493135 0)
(-0.0943817 -0.0550032 0)
(-0.0891587 -0.0601835 0)
(-0.0833948 -0.0647484 0)
(-0.0771358 -0.0685839 0)
(-0.0704417 -0.0715702 0)
(-0.0633882 -0.0735846 0)
(-0.0560682 -0.0745051 0)
(-0.0485921 -0.0742148 0)
(-0.0410881 -0.0726066 0)
(-0.0337016 -0.0695892 0)
(-0.0265938 -0.065092 0)
(-0.0199391 -0.0590714 0)
(-0.0139228 -0.0515151 0)
(-0.0087326 -0.0424473 0)
(-0.00454639 -0.031931 0)
(-0.00158887 -0.0200688 0)
(-0.000226068 -0.00701394 0)
(-0.00024372 0.0078766 0)
(-0.00168694 0.0223265 0)
(-0.00479207 0.0352802 0)
(-0.00915561 0.0466185 0)
(-0.0145306 0.0562775 0)
(-0.0207265 0.064235 0)
(-0.0275483 0.0705075 0)
(-0.0348087 0.0751448 0)
(-0.0423357 0.0782242 0)
(-0.0499741 0.0798441 0)
(-0.0575868 0.0801179 0)
(-0.0650549 0.0791681 0)
(-0.0722776 0.0771212 0)
(-0.0791709 0.0741031 0)
(-0.0856667 0.0702357 0)
(-0.0917108 0.065634 0)
(-0.0972608 0.0604042 0)
(-0.102285 0.0546424 0)
(-0.106759 0.0484346 0)
(-0.110665 0.0418564 0)
(-0.113991 0.0349739 0)
(-0.116728 0.0278446 0)
(-0.118866 0.0205191 0)
(-0.120401 0.0130427 0)
(-0.121324 0.00545697 0)
(-0.12163 -0.00219802 0)
(-0.12131 -0.00988169 0)
(-0.120359 -0.0175509 0)
(-0.118767 -0.025158 0)
(-0.116529 -0.0326486 0)
(-0.11364 -0.0399605 0)
(-0.110098 -0.0470211 0)
(-0.105906 -0.0537474 0)
(-0.101075 -0.0600444 0)
(-0.0956228 -0.0658053 0)
(-0.0895808 -0.0709122 0)
(-0.0829921 -0.0752373 0)
(-0.0759161 -0.0786449 0)
(-0.0684299 -0.0809949 0)
(-0.0606299 -0.0821467 0)
(-0.0526332 -0.0819644 0)
(-0.0445775 -0.080322 0)
(-0.0366208 -0.0771103 0)
(-0.02894 -0.0722431 0)
(-0.021728 -0.0656639 0)
(-0.015191 -0.0573516 0)
(-0.00953878 -0.0473266 0)
(-0.00497105 -0.0356529 0)
(-0.00173891 -0.0224403 0)
(-0.000247766 -0.00785621 0)
(-0.0002658 0.00877072 0)
(-0.00183636 0.0248184 0)
(-0.0052105 0.0391612 0)
(-0.00994366 0.0516722 0)
(-0.0157618 0.0622869 0)
(-0.0224526 0.0709888 0)
(-0.0298002 0.077804 0)
(-0.0375982 0.0827967 0)
(-0.0456584 0.086061 0)
(-0.0538126 0.0877141 0)
(-0.0619135 0.0878888 0)
(-0.069835 0.0867271 0)
(-0.0774716 0.0843742 0)
(-0.0847375 0.0809732 0)
(-0.091564 0.0766617 0)
(-0.0978983 0.0715684 0)
(-0.103701 0.0658109 0)
(-0.108942 0.059495 0)
(-0.113602 0.0527139 0)
(-0.117668 0.0455488 0)
(-0.121129 0.0380697 0)
(-0.12398 0.0303364 0)
(-0.126215 0.0224008 0)
(-0.12783 0.0143083 0)
(-0.128819 0.00610003 0)
(-0.129176 -0.00218465 0)
(-0.128892 -0.010506 0)
(-0.127959 -0.0188215 0)
(-0.126366 -0.0270833 0)
(-0.124104 -0.0352362 0)
(-0.121162 -0.0432156 0)
(-0.117534 -0.0509453 0)
(-0.113219 -0.0583364 0)
(-0.10822 -0.065286 0)
(-0.102552 -0.0716771 0)
(-0.0962399 -0.0773791 0)
(-0.089324 -0.0822487 0)
(-0.0818615 -0.0861326 0)
(-0.0739301 -0.0888711 0)
(-0.0656292 -0.0903022 0)
(-0.057082 -0.0902677 0)
(-0.0484361 -0.0886195 0)
(-0.0398631 -0.0852272 0)
(-0.0315571 -0.0799856 0)
(-0.0237318 -0.0728225 0)
(-0.0166173 -0.063706 0)
(-0.0104491 -0.0526508 0)
(-0.00545249 -0.0397221 0)
(-0.00190984 -0.0250372 0)
(-0.000272718 -0.00877977 0)
(-0.000290851 0.00974558 0)
(-0.00200451 0.0275308 0)
(-0.00567928 0.0433784 0)
(-0.0108231 0.0571522 0)
(-0.0171302 0.068788 0)
(-0.0243633 0.0782756 0)
(-0.0322825 0.0856538 0)
(-0.0406598 0.0910035 0)
(-0.049289 0.094439 0)
(-0.0579877 0.0960994 0)
(-0.0665979 0.0961404 0)
(-0.0749864 0.0947264 0)
(-0.0830436 0.0920238 0)
(-0.0906823 0.0881955 0)
(-0.0978345 0.0833966 0)
(-0.10445 0.0777706 0)
(-0.110492 0.0714479 0)
(-0.115938 0.0645442 0)
(-0.12077 0.0571604 0)
(-0.124981 0.0493832 0)
(-0.128565 0.041286 0)
(-0.13152 0.0329306 0)