/*--------------------------------*- C++ -*----------------------------------*\
  =========                 |
  \\      /  F ield         | OpenFOAM: The Open Source CFD Toolbox
   \\    /   O peration     | Website:  https://openfoam.org
    \\  /    A nd           | Version:  7
     \\/     M anipulation  |
\*---------------------------------------------------------------------------*/
FoamFile
{
    version     2.0;
    format      ascii;
    class       volVectorField;
    location    "0.0156";
    object      U;
}
// * * * * * * * * * * * * * * * * * * * * * * * * * * * * * * * * * * * * * //

dimensions      [0 1 -1 0 0 0 0];

internalField   nonuniform List<vector> 
2500
(
(0.290309 -0.152466 0)
(0.389701 -0.128298 0)
(0.565628 -0.0747554 0)
(0.683355 -0.0421969 0)
(0.752688 -0.0244382 0)
(0.797292 -0.0147486 0)
(0.827925 -0.00940314 0)
(0.849767 -0.00635267 0)
(0.865875 -0.00451153 0)
(0.878097 -0.00332842 0)
(0.887565 -0.00252363 0)
(0.89501 -0.00195034 0)
(0.900926 -0.00152741 0)
(0.905663 -0.00120726 0)
(0.909476 -0.000960276 0)
(0.912557 -0.000766953 0)
(0.91505 -0.000613816 0)
(0.917068 -0.000491187 0)
(0.918698 -0.000391888 0)
(0.920007 -0.00031045 0)
(0.921049 -0.000242598 0)
(0.921863 -0.000184912 0)
(0.922479 -0.000134578 0)
(0.92292 -8.92108e-05 0)
(0.923199 -4.67096e-05 0)
(0.923324 -5.14262e-06 0)
(0.923295 3.73567e-05 0)
(0.923108 8.27036e-05 0)
(0.922749 0.000132939 0)
(0.922199 0.000190358 0)
(0.921431 0.00025764 0)
(0.920407 0.000338019 0)
(0.919077 0.000435508 0)
(0.917379 0.000555231 0)
(0.91523 0.000703892 0)
(0.912524 0.000890523 0)
(0.909123 0.00112768 0)
(0.904845 0.00143351 0)
(0.899447 0.00183542 0)
(0.892592 0.0023772 0)
(0.883802 0.00313318 0)
(0.872371 0.00423796 0)
(0.857197 0.00595053 0)
(0.836464 0.00879211 0)
(0.807103 0.0138234 0)
(0.763823 0.0231376 0)
(0.695672 0.0406982 0)
(0.57794 0.0737187 0)
(0.398142 0.128768 0)
(0.293922 0.153835 0)
(0.00114989 -0.295054 0)
(0.0169872 -0.298742 0)
(0.152314 -0.212928 0)
(0.282396 -0.144949 0)
(0.386763 -0.0989725 0)
(0.468843 -0.0688863 0)
(0.532833 -0.0493209 0)
(0.582638 -0.0363592 0)
(0.621661 -0.027489 0)
(0.65252 -0.0212048 0)
(0.677136 -0.0166111 0)
(0.696918 -0.0131637 0)
(0.712909 -0.010521 0)
(0.725895 -0.00846096 0)
(0.736475 -0.00683341 0)
(0.745112 -0.0055333 0)
(0.752167 -0.00448469 0)
(0.757925 -0.00363108 0)
(0.76261 -0.0029294 0)
(0.766402 -0.00234601 0)
(0.769437 -0.00185408 0)
(0.771826 -0.00143172 0)
(0.77365 -0.00106062 0)
(0.774969 -0.000725012 0)
(0.775822 -0.000410824 0)
(0.776231 -0.000105017 0)
(0.776199 0.000205069 0)
(0.775713 0.000532317 0)
(0.774741 0.000890444 0)
(0.773231 0.0012947 0)
(0.771111 0.00176265 0)
(0.768282 0.00231523 0)
(0.764614 0.00297802 0)
(0.759942 0.00378312 0)
(0.754052 0.00477176 0)
(0.746672 0.00599824 0)
(0.737454 0.00753596 0)
(0.725946 0.00948701 0)
(0.711556 0.0119981 0)
(0.693502 0.0152878 0)
(0.670724 0.0196939 0)
(0.641772 0.0257606 0)
(0.604633 0.034395 0)
(0.556496 0.0471518 0)
(0.493586 0.0666933 0)
(0.411395 0.0973269 0)
(0.304973 0.145166 0)
(0.169951 0.216937 0)
(0.0267957 0.307097 0)
(0.005207 0.303093 0)
(-0.0328902 -0.250606 0)
(-0.061658 -0.344038 0)
(-0.0120158 -0.310032 0)
(0.069405 -0.250279 0)
(0.156161 -0.194038 0)
(0.236879 -0.148815 0)
(0.307255 -0.11456 0)
(0.366661 -0.0890242 0)
(0.416072 -0.0699189 0)
(0.456919 -0.0554611 0)
(0.490616 -0.0443681 0)
(0.518412 -0.0357392 0)
(0.541353 -0.028943 0)
(0.560302 -0.0235321 0)
(0.575958 -0.0191837 0)
(0.588891 -0.0156605 0)
(0.599564 -0.012784 0)
(0.608352 -0.0104171 0)
(0.615558 -0.00845278 0)
(0.621428 -0.00680569 0)
(0.626157 -0.00540642 0)
(0.629899 -0.00419742 0)
(0.632773 -0.00312989 0)
(0.634863 -0.00216126 0)
(0.63623 -0.00125321 0)
(0.636903 -0.000369948 0)
(0.636889 0.000523402 0)
(0.636168 0.00146231 0)
(0.634694 0.00248445 0)
(0.632394 0.00363145 0)
(0.62916 0.00495087 0)
(0.62485 0.00649874 0)
(0.61928 0.00834277 0)
(0.612215 0.0105667 0)
(0.603358 0.0132761 0)
(0.592337 0.0166073 0)
(0.578687 0.0207398 0)
(0.561824 0.025915 0)
(0.541016 0.0324654 0)
(0.515343 0.0408576 0)
(0.483658 0.0517604 0)
(0.444548 0.0661438 0)
(0.396341 0.0854167 0)
(0.337225 0.111583 0)
(0.265706 0.147296 0)
(0.181846 0.195326 0)
(0.0896093 0.256207 0)
(0.00054959 0.322079 0)
(-0.0573356 0.360971 0)
(-0.032211 0.263956 0)
(-0.0267952 -0.190758 0)
(-0.0657577 -0.332568 0)
(-0.0657089 -0.350043 0)
(-0.030008 -0.316589 0)
(0.025231 -0.268118 0)
(0.0869521 -0.220459 0)
(0.147529 -0.179153 0)
(0.203227 -0.145144 0)
(0.252613 -0.117715 0)
(0.295484 -0.0957329 0)
(0.332224 -0.0781044 0)
(0.363459 -0.0639125 0)
(0.389876 -0.0524287 0)
(0.412134 -0.0430855 0)
(0.430832 -0.0354432 0)
(0.446496 -0.0291591 0)
(0.459576 -0.0239634 0)
(0.470455 -0.0196413 0)
(0.479454 -0.0160198 0)
(0.486838 -0.0129572 0)
(0.492826 -0.0103356 0)
(0.49759 -0.00805577 0)
(0.501265 -0.00603173 0)
(0.503952 -0.00418766 0)
(0.505717 -0.00245452 0)
(0.506597 -0.000767245 0)
(0.506598 0.000937845 0)
(0.505696 0.0027256 0)
(0.503837 0.00466469 0)
(0.500931 0.00683053 0)
(0.496853 0.00930851 0)
(0.491437 0.012198 0)
(0.48447 0.0156175 0)
(0.475685 0.0197105 0)
(0.464754 0.0246548 0)
(0.451275 0.0306734 0)
(0.434764 0.0380507 0)
(0.414642 0.0471545 0)
(0.390227 0.0584652 0)
(0.360737 0.072615 0)
(0.325309 0.0904343 0)
(0.283078 0.112996 0)
(0.233347 0.14162 0)
(0.175957 0.177749 0)
(0.111994 0.222468 0)
(0.0450414 0.275109 0)
(-0.0169362 0.329922 0)
(-0.0597933 0.369598 0)
(-0.0653654 0.354515 0)
(-0.0273877 0.20449 0)
(-0.0179264 -0.149081 0)
(-0.0537106 -0.30174 0)
(-0.0754402 -0.352106 0)
(-0.0702222 -0.345708 0)
(-0.0434338 -0.313288 0)
(-0.00424943 -0.27233 0)
(0.0401865 -0.231509 0)
(0.0851866 -0.19449 0)
(0.127994 -0.162405 0)
(0.167198 -0.135222 0)
(0.202235 -0.112452 0)
(0.233041 -0.093475 0)
(0.259814 -0.0776854 0)
(0.282886 -0.0645444 0)
(0.302634 -0.053592 0)
(0.319439 -0.0444427 0)
(0.333661 -0.0367754 0)
(0.345625 -0.0303223 0)
(0.355617 -0.0248592 0)
(0.363883 -0.0201965 0)
(0.370631 -0.0161729 0)
(0.37603 -0.0126487 0)
(0.380213 -0.00950097 0)
(0.383281 -0.0066194 0)
(0.3853 -0.00390222 0)
(0.386307 -0.00125263 0)
(0.386306 0.00142461 0)
(0.38527 0.00422665 0)
(0.383141 0.00725604 0)
(0.379824 0.0106246 0)
(0.375188 0.0144575 0)
(0.369063 0.0188987 0)
(0.361232 0.0241162 0)
(0.351433 0.0303098 0)
(0.339352 0.0377198 0)
(0.324619 0.0466385 0)
(0.306813 0.0574235 0)
(0.285463 0.0705145 0)
(0.260072 0.08645 0)
(0.230151 0.105881 0)
(0.195305 0.129567 0)
(0.155372 0.158334 0)
(0.110678 0.192921 0)
(0.062445 0.233618 0)
(0.013396 0.279462 0)
(-0.0314955 0.326643 0)
(-0.0642969 0.365613 0)
(-0.0745084 0.376754 0)
(-0.0552435 0.325594 0)
(-0.0187873 0.161739 0)
(-0.0115527 -0.120448 0)
(-0.0411066 -0.267691 0)
(-0.0702254 -0.335652 0)
(-0.0823528 -0.350447 0)
(-0.0762948 -0.334832 0)
(-0.0567887 -0.304442 0)
(-0.0289483 -0.268764 0)
(0.00303669 -0.233004 0)
(0.0361362 -0.199715 0)
(0.0683743 -0.169938 0)
(0.0985842 -0.143905 0)
(0.126162 -0.121451 0)
(0.150872 -0.102239 0)
(0.172707 -0.0858761 0)
(0.191791 -0.0719731 0)
(0.20832 -0.0601676 0)
(0.222517 -0.0501342 0)
(0.234611 -0.0415854 0)
(0.244819 -0.0342692 0)
(0.253339 -0.0279646 0)
(0.260344 -0.0224769 0)
(0.265981 -0.0176336 0)
(0.270365 -0.0132794 0)
(0.273587 -0.00927224 0)
(0.275705 -0.0054793 0)
(0.276751 -0.00177284 0)
(0.276726 0.00197352 0)
(0.275601 0.00588881 0)
(0.273319 0.0101088 0)
(0.269787 0.0147804 0)
(0.264882 0.020066 0)
(0.258443 0.0261491 0)
(0.250277 0.0332398 0)
(0.240153 0.0415813 0)
(0.227807 0.0514567 0)
(0.212947 0.0631972 0)
(0.195267 0.0771884 0)
(0.174467 0.0938741 0)
(0.150293 0.113754 0)
(0.122603 0.13736 0)
(0.0914746 0.165202 0)
(0.0573645 0.197642 0)
(0.0213471 0.234635 0)
(-0.0145727 0.27525 0)
(-0.0471236 0.316826 0)
(-0.0715687 0.353617 0)
(-0.0819044 0.374869 0)
(-0.0723234 0.36271 0)
(-0.0433599 0.291343 0)
(-0.012351 0.131727 0)
(-0.00763313 -0.0999564 0)
(-0.0314595 -0.236107 0)
(-0.0614407 -0.311551 0)
(-0.0822506 -0.340698 0)
(-0.0896839 -0.339284 0)
(-0.0851846 -0.31993 0)
(-0.0716951 -0.291492 0)
(-0.0522962 -0.259648 0)
(-0.0296395 -0.227762 0)
(-0.00574327 -0.197662 0)
(0.0179829 -0.170219 0)
(0.0406257 -0.145738 0)
(0.0616434 -0.124205 0)
(0.0807568 -0.105441 0)
(0.0978641 -0.0891851 0)
(0.112977 -0.0751514 0)
(0.126177 -0.0630521 0)
(0.137579 -0.0526127 0)
(0.147318 -0.0435782 0)
(0.155525 -0.0357146 0)
(0.162325 -0.0288086 0)
(0.167828 -0.0226649 0)
(0.172125 -0.0171035 0)
(0.175285 -0.0119566 0)
(0.177354 -0.00706463 0)
(0.178355 -0.00227254 0)
(0.178285 0.00257399 0)
(0.177117 0.00763268 0)
(0.174795 0.0130688 0)
(0.171239 0.0190595 0)
(0.16634 0.025798 0)
(0.159965 0.0334986 0)
(0.151955 0.0424006 0)
(0.142133 0.0527727 0)
(0.130309 0.0649165 0)
(0.116295 0.0791673 0)
(0.099922 0.0958919 0)
(0.0810792 0.115477 0)
(0.0597592 0.138304 0)
(0.0361337 0.164695 0)
(0.0106572 0.194817 0)
(-0.0157946 0.228503 0)
(-0.0417568 0.264955 0)
(-0.0650093 0.302272 0)
(-0.0825034 0.336738 0)
(-0.0905512 0.361881 0)
(-0.0854663 0.367469 0)
(-0.065166 0.338921 0)
(-0.0338842 0.258339 0)
(-0.00830647 0.109801 0)
(-0.0053188 -0.0847216 0)
(-0.0246673 -0.208331 0)
(-0.0529491 -0.285125 0)
(-0.077427 -0.322907 0)
(-0.0929818 -0.332206 0)
(-0.0990587 -0.322648 0)
(-0.0968731 -0.301817 0)
(-0.0883379 -0.275162 0)
(-0.0754525 -0.246324 0)
(-0.0599647 -0.217588 0)
(-0.0432546 -0.190284 0)
(-0.0263379 -0.165111 0)
(-0.00991771 -0.142364 0)
(0.00554967 -0.122088 0)
(0.0197931 -0.104185 0)
(0.0326738 -0.0884716 0)
(0.0441435 -0.0747285 0)
(0.0542129 -0.0627196 0)
(0.0629279 -0.0522088 0)
(0.0703527 -0.042967 0)
(0.0765571 -0.0347761 0)
(0.0816088 -0.0274299 0)
(0.0855664 -0.0207329 0)
(0.0884757 -0.0144989 0)
(0.0903669 -0.00854798 0)
(0.0912522 -0.00270338 0)
(0.0911249 0.00321193 0)
(0.0899585 0.00937897 0)
(0.0877063 0.0159865 0)
(0.0843021 0.0232348 0)
(0.0796615 0.0313392 0)
(0.0736843 0.0405329 0)
(0.0662598 0.0510699 0)
(0.0572738 0.0632252 0)
(0.0466206 0.0772936 0)
(0.0342207 0.0935836 0)
(0.0200465 0.112404 0)
(0.00415916 0.134041 0)
(-0.0132407 0.158709 0)
(-0.0317463 0.186483 0)
(-0.0506614 0.217171 0)
(-0.0689072 0.250127 0)
(-0.0849385 0.283969 0)
(-0.096711 0.316178 0)
(-0.101792 0.342599 0)
(-0.0977434 0.356899 0)
(-0.0828508 0.350218 0)
(-0.0574309 0.311398 0)
(-0.0270411 0.228532 0)
(-0.00588162 0.0931949 0)
(-0.00392969 -0.0729042 0)
(-0.0199346 -0.184198 0)
(-0.0457612 -0.258866 0)
(-0.0712244 -0.301092 0)
(-0.0913085 -0.317822 0)
(-0.104429 -0.316177 0)
(-0.110626 -0.302336 0)
(-0.110838 -0.281155 0)
(-0.106383 -0.25619 0)
(-0.0986046 -0.229893 0)
(-0.0886933 -0.203864 0)
(-0.0776176 -0.179083 0)
(-0.0661205 -0.156095 0)
(-0.0547434 -0.13515 0)
(-0.0438615 -0.116305 0)
(-0.0337202 -0.099497 0)
(-0.0244677 -0.0845863 0)
(-0.0161826 -0.0713924 0)
(-0.00889603 -0.0597136 0)
(-0.00260825 -0.04934 0)
(0.00269787 -0.0400614 0)
(0.00704734 -0.0316713 0)
(0.0104658 -0.023968 0)
(0.0129743 -0.0167552 0)
(0.0145857 -0.00983956 0)
(0.015302 -0.00302941 0)
(0.0151128 0.00386852 0)
(0.0139946 0.0110518 0)
(0.0119114 0.0187255 0)
(0.00881509 0.0271044 0)
(0.00464882 0.0364157 0)
(-0.00064925 0.0469001 0)
(-0.0071391 0.058811 0)
(-0.0148691 0.0724121 0)
(-0.0238621 0.0879705 0)
(-0.0340957 0.105744 0)
(-0.0454762 0.125958 0)
(-0.0578035 0.148773 0)
(-0.070728 0.174225 0)
(-0.0836993 0.202143 0)
(-0.0959128 0.232021 0)
(-0.106265 0.262846 0)
(-0.113342 0.292858 0)
(-0.115483 0.31926 0)
(-0.110983 0.337914 0)
(-0.0985242 0.343111 0)
(-0.0778114 0.327607 0)
(-0.0504793 0.283188 0)
(-0.0221646 0.202119 0)
(-0.00440444 0.0801125 0)
(-0.00305884 -0.0633622 0)
(-0.0165759 -0.16316 0)
(-0.0399229 -0.233841 0)
(-0.0650189 -0.277623 0)
(-0.0873548 -0.299081 0)
(-0.104925 -0.303408 0)
(-0.11706 -0.295491 0)
(-0.123979 -0.279471 0)
(-0.126411 -0.258604 0)
(-0.125279 -0.235308 0)
(-0.121515 -0.21129 0)
(-0.115953 -0.187695 0)
(-0.109288 -0.165244 0)
(-0.102075 -0.144349 0)
(-0.0947328 -0.125207 0)
(-0.0875693 -0.107864 0)
(-0.0808001 -0.0922634 0)
(-0.07457 -0.0782884 0)
(-0.0689712 -0.0657803 0)
(-0.0640584 -0.0545582 0)
(-0.0598607 -0.0444293 0)
(-0.0563916 -0.0351956 0)
(-0.0536562 -0.026658 0)
(-0.0516566 -0.0186172 0)
(-0.0503962 -0.0108743 0)
(-0.0498825 -0.00322936 0)
(-0.0501282 0.00452008 0)
(-0.0511524 0.0125809 0)
(-0.0529796 0.0211665 0)
(-0.0556376 0.0304977 0)
(-0.059155 0.0408038 0)
(-0.063555 0.0523211 0)
(-0.0688483 0.0652903 0)
(-0.075022 0.0799493 0)
(-0.0820258 0.0965224 0)
(-0.0897525 0.115202 0)
(-0.098015 0.136119 0)
(-0.106517 0.159304 0)
(-0.114822 0.184622 0)
(-0.122321 0.211694 0)
(-0.128208 0.239775 0)
(-0.131477 0.26761 0)
(-0.130962 0.293259 0)
(-0.12545 0.313907 0)
(-0.113918 0.325717 0)
(-0.0959161 0.323802 0)
(-0.0720571 0.302451 0)
(-0.0445685 0.255755 0)
(-0.0186199 0.17876 0)
(-0.00346183 0.0694228 0)
(-0.00248273 -0.0554011 0)
(-0.0141201 -0.144655 0)
(-0.0352131 -0.210419 0)
(-0.0593046 -0.253839 0)
(-0.0824942 -0.277948 0)
(-0.102697 -0.286512 0)
(-0.118861 -0.283336 0)
(-0.130723 -0.271853 0)
(-0.138552 -0.254927 0)
(-0.142901 -0.234815 0)
(-0.144429 -0.21321 0)
(-0.143798 -0.191323 0)
(-0.141608 -0.16998 0)
(-0.138372 -0.149709 0)
(-0.134509 -0.130813 0)
(-0.13035 -0.11343 0)
(-0.126147 -0.0975852 0)
(-0.122086 -0.0832202 0)
(-0.118304 -0.0702238 0)
(-0.114897 -0.058449 0)
(-0.11193 -0.0477267 0)
(-0.10945 -0.0378744 0)
(-0.107486 -0.0287018 0)
(-0.106061 -0.020014 0)
(-0.105193 -0.0116127 0)
(-0.104896 -0.00329662 0)
(-0.105184 0.00513911 0)
(-0.106072 0.0139037 0)
(-0.10757 0.0232111 0)
(-0.109688 0.0332803 0)
(-0.112427 0.0443336 0)
(-0.115774 0.056594 0)
(-0.119696 0.070279 0)
(-0.124129 0.0855914 0)
(-0.128963 0.102704 0)
(-0.134028 0.121738 0)
(-0.139076 0.14273 0)
(-0.143756 0.165592 0)
(-0.1476 0.190046 0)
(-0.150007 0.215552 0)
(-0.150244 0.241208 0)
(-0.147472 0.26564 0)
(-0.140812 0.286881 0)
(-0.129485 0.302271 0)
(-0.113023 0.308416 0)
(-0.0915937 0.301274 0)
(-0.0663237 0.276449 0)
(-0.0396039 0.229743 0)
(-0.0159591 0.158016 0)
(-0.00282481 0.060434 0)
(-0.00208027 -0.0485889 0)
(-0.012264 -0.128217 0)
(-0.0313825 -0.188658 0)
(-0.0542049 -0.230475 0)
(-0.0774097 -0.255698 0)
(-0.0990044 -0.26706 0)
(-0.117768 -0.267499 0)
(-0.133138 -0.259813 0)
(-0.145052 -0.246454 0)
(-0.153759 -0.229454 0)
(-0.159675 -0.21041 0)
(-0.163281 -0.190529 0)
(-0.165058 -0.170678 0)
(-0.16545 -0.151454 0)
(-0.164843 -0.133233 0)
(-0.163559 -0.116229 0)
(-0.161863 -0.100529 0)
(-0.159962 -0.0861311 0)
(-0.158018 -0.0729694 0)
(-0.156155 -0.0609318 0)
(-0.154466 -0.0498761 0)
(-0.153019 -0.0396395 0)
(-0.151865 -0.0300458 0)
(-0.151044 -0.0209095 0)
(-0.150581 -0.0120391 0)
(-0.150498 -0.00323751 0)
(-0.150809 0.00569623 0)
(-0.151521 0.0149672 0)
(-0.152635 0.0247834 0)
(-0.154141 0.0353549 0)
(-0.156015 0.04689 0)
(-0.158216 0.0595911 0)
(-0.160674 0.0736465 0)
(-0.163284 0.0892182 0)
(-0.165895 0.106425 0)
(-0.168298 0.125319 0)
(-0.170209 0.145854 0)
(-0.171264 0.167838 0)
(-0.171005 0.190888 0)
(-0.168887 0.214358 0)
(-0.164292 0.237264 0)
(-0.156572 0.258208 0)
(-0.145135 0.275306 0)
(-0.129569 0.286151 0)
(-0.10983 0.287838 0)
(-0.0864828 0.277101 0)
(-0.0609032 0.250604 0)
(-0.0354146 0.205391 0)
(-0.013892 0.13949 0)
(-0.00236913 0.0527137 0)
(-0.00178491 -0.0426471 0)
(-0.0108163 -0.113478 0)
(-0.0282239 -0.168489 0)
(-0.0497017 -0.20792 0)
(-0.0724324 -0.233146 0)
(-0.0945891 -0.24616 0)
(-0.11491 -0.249224 0)
(-0.132666 -0.244591 0)
(-0.147568 -0.234327 0)
(-0.159633 -0.220211 0)
(-0.169072 -0.203703 0)
(-0.176201 -0.185951 0)
(-0.181378 -0.16782 0)
(-0.184962 -0.149931 0)
(-0.187286 -0.132708 0)
(-0.188649 -0.116413 0)
(-0.189302 -0.101184 0)
(-0.189459 -0.0870661 0)
(-0.189291 -0.0740313 0)
(-0.188939 -0.0620021 0)
(-0.18851 -0.0508635 0)
(-0.18809 -0.0404749 0)
(-0.187744 -0.030677 0)
(-0.18752 -0.0212983 0)
(-0.187455 -0.0121579 0)
(-0.18757 -0.00306843 0)
(-0.18788 0.00616231 0)
(-0.188385 0.0157298 0)
(-0.189075 0.0258309 0)
(-0.189925 0.0366608 0)
(-0.190891 0.0484091 0)
(-0.191907 0.061253 0)
(-0.192877 0.0753482 0)
(-0.193669 0.090815 0)
(-0.194107 0.107721 0)
(-0.19396 0.126056 0)
(-0.19294 0.145703 0)
(-0.190694 0.166397 0)
(-0.186806 0.187681 0)
(-0.180813 0.208853 0)
(-0.17223 0.228912 0)
(-0.160604 0.246505 0)
(-0.145592 0.2599 0)
(-0.127076 0.266984 0)
(-0.105313 0.265328 0)
(-0.0811003 0.252335 0)
(-0.055895 0.225497 0)
(-0.0318437 0.182742 0)
(-0.0122356 0.122854 0)
(-0.00202665 0.0459803 0)
(-0.00155911 -0.0373878 0)
(-0.00965575 -0.100155 0)
(-0.0255819 -0.149791 0)
(-0.0457347 -0.186361 0)
(-0.0677187 -0.210802 0)
(-0.089894 -0.22458 0)
(-0.11103 -0.229435 0)
(-0.130318 -0.22717 0)
(-0.147324 -0.219502 0)
(-0.161897 -0.207963 0)
(-0.174085 -0.193854 0)
(-0.184062 -0.178232 0)
(-0.192069 -0.161925 0)
(-0.198379 -0.145551 0)
(-0.203265 -0.129551 0)
(-0.206984 -0.114217 0)
(-0.209767 -0.0997211 0)
(-0.211817 -0.0861437 0)
(-0.213305 -0.0734909 0)
(-0.214375 -0.0617145 0)
(-0.215143 -0.0507257 0)
(-0.215704 -0.0404062 0)
(-0.216129 -0.0306158 0)
(-0.216475 -0.021199 0)
(-0.21678 -0.0119893 0)
(-0.217069 -0.00281255 0)
(-0.217352 0.00651067 0)
(-0.217626 0.0161621 0)
(-0.217869 0.0263232 0)
(-0.218046 0.0371709 0)
(-0.218096 0.0488726 0)
(-0.217936 0.0615782 0)
(-0.217454 0.0754104 0)
(-0.216501 0.0904502 0)
(-0.21489 0.106719 0)
(-0.212389 0.124157 0)
(-0.208721 0.142593 0)
(-0.203566 0.161711 0)
(-0.19657 0.181017 0)
(-0.187364 0.199794 0)
(-0.175598 0.217068 0)
(-0.160993 0.231583 0)
(-0.143414 0.241791 0)
(-0.122966 0.245881 0)
(-0.100103 0.241853 0)
(-0.0757421 0.227667 0)
(-0.0513206 0.201447 0)
(-0.0287692 0.16175 0)
(-0.0108748 0.107842 0)
(-0.00175898 0.0400405 0)
(-0.00138089 -0.0326786 0)
(-0.00870524 -0.0880258 0)
(-0.0233453 -0.132433 0)
(-0.0422402 -0.165868 0)
(-0.063341 -0.188977 0)
(-0.0851901 -0.202843 0)
(-0.106625 -0.208806 0)
(-0.126811 -0.208307 0)
(-0.14523 -0.202758 0)
(-0.161615 -0.193459 0)
(-0.175889 -0.181547 0)
(-0.188108 -0.167975 0)
(-0.198412 -0.153509 0)
(-0.206992 -0.138741 0)
(-0.214057 -0.124108 0)
(-0.219819 -0.109915 0)
(-0.224479 -0.0963544 0)
(-0.22822 -0.0835304 0)
(-0.231206 -0.0714751 0)
(-0.233575 -0.0601655 0)
(-0.235444 -0.0495362 0)
(-0.236909 -0.0394902 0)
(-0.238046 -0.0299068 0)
(-0.238914 -0.0206483 0)
(-0.239552 -0.0115643 0)
(-0.239984 -0.00249643 0)
(-0.240218 0.00671892 0)
(-0.240244 0.016247 0)
(-0.240035 0.026251 0)
(-0.239544 0.0368875 0)
(-0.238702 0.0483001 0)
(-0.237413 0.0606118 0)
(-0.235557 0.0739139 0)
(-0.23298 0.0882524 0)
(-0.229495 0.103611 0)
(-0.224883 0.119892 0)
(-0.218893 0.136886 0)
(-0.21125 0.154253 0)
(-0.201668 0.171487 0)
(-0.189875 0.18789 0)
(-0.175646 0.202549 0)
(-0.158852 0.21433 0)
(-0.139523 0.221881 0)
(-0.117921 0.223676 0)
(-0.0946205 0.218092 0)
(-0.0705839 0.203536 0)
(-0.0471742 0.178613 0)
(-0.0261028 0.142321 0)
(-0.00973627 0.0942383 0)
(-0.00154374 0.0347552 0)
(-0.00123699 -0.0284222 0)
(-0.00791471 -0.0769146 0)
(-0.0214365 -0.116282 0)
(-0.0391647 -0.146442 0)
(-0.0593329 -0.167843 0)
(-0.0806492 -0.18129 0)
(-0.102033 -0.187817 0)
(-0.122661 -0.18857 0)
(-0.141968 -0.184705 0)
(-0.159611 -0.177311 0)
(-0.175421 -0.167368 0)
(-0.189361 -0.155716 0)
(-0.201486 -0.143047 0)
(-0.211912 -0.129912 0)
(-0.220787 -0.116728 0)
(-0.228279 -0.103798 0)
(-0.234553 -0.0913222 0)
(-0.239769 -0.0794189 0)
(-0.244074 -0.0681387 0)
(-0.247597 -0.0574784 0)
(-0.250451 -0.0473928 0)
(-0.252728 -0.0378044 0)
(-0.254504 -0.0286115 0)
(-0.255836 -0.0196942 0)
(-0.256762 -0.0109198 0)
(-0.257306 -0.00214699 0)
(-0.25747 0.00677031 0)
(-0.257242 0.0159791 0)
(-0.256587 0.0256229 0)
(-0.255454 0.0358371 0)
(-0.253766 0.0467419 0)
(-0.251424 0.0584344 0)
(-0.248304 0.0709781 0)
(-0.244256 0.0843902 0)
(-0.239104 0.0986256 0)
(-0.232648 0.113559 0)
(-0.224673 0.128964 0)
(-0.214954 0.144491 0)
(-0.203277 0.159648 0)
(-0.18946 0.173778 0)
(-0.173387 0.186051 0)
(-0.155053 0.195466 0)
(-0.134611 0.200864 0)
(-0.11243 0.200977 0)
(-0.0891524 0.194503 0)
(-0.065735 0.180205 0)
(-0.0434429 0.157048 0)
(-0.0237825 0.12434 0)
(-0.00877291 0.0818604 0)
(-0.00136733 0.0300184 0)
(-0.00111908 -0.0245432 0)
(-0.00725136 -0.0666752 0)
(-0.0198017 -0.10121 0)
(-0.0364672 -0.128042 0)
(-0.0557103 -0.147483 0)
(-0.0763847 -0.160135 0)
(-0.0974944 -0.166796 0)
(-0.118244 -0.168376 0)
(-0.138051 -0.165812 0)
(-0.156525 -0.160011 0)
(-0.17343 -0.151802 0)
(-0.188657 -0.141915 0)
(-0.202192 -0.130963 0)
(-0.214086 -0.119443 0)
(-0.224435 -0.107744 0)
(-0.233359 -0.0961521 0)
(-0.240991 -0.0848666 0)
(-0.247464 -0.0740115 0)
(-0.252904 -0.063649 0)
(-0.257429 -0.0537904 0)
(-0.261142 -0.0444069 0)
(-0.264129 -0.0354383 0)
(-0.266462 -0.0268004 0)
(-0.268194 -0.0183909 0)
(-0.269363 -0.010095 0)
(-0.269987 -0.0017891 0)
(-0.270067 0.00665457 0)
(-0.269585 0.015364 0)
(-0.268505 0.0244631 0)
(-0.26677 0.0340658 0)
(-0.264302 0.0442704 0)
(-0.261001 0.0551508 0)
(-0.256747 0.0667471 0)
(-0.251399 0.0790539 0)
(-0.244798 0.0920062 0)
(-0.23677 0.105464 0)
(-0.227137 0.119196 0)
(-0.215728 0.132861 0)
(-0.202395 0.145997 0)
(-0.187039 0.158004 0)
(-0.169635 0.168147 0)
(-0.150275 0.175557 0)
(-0.129201 0.179259 0)
(-0.106853 0.178215 0)
(-0.0838997 0.171383 0)
(-0.0612671 0.157812 0)
(-0.0401144 0.136735 0)
(-0.0217653 0.107681 0)
(-0.00795365 0.0705511 0)
(-0.00122115 0.0257456 0)
(-0.00102179 -0.0209809 0)
(-0.00669333 -0.0571834 0)
(-0.0184041 -0.0870931 0)
(-0.0341174 -0.110599 0)
(-0.0524815 -0.127918 0)
(-0.0724741 -0.139498 0)
(-0.0931797 -0.145958 0)
(-0.113839 -0.148016 0)
(-0.133871 -0.146427 0)
(-0.152854 -0.141937 0)
(-0.170509 -0.13524 0)
(-0.186672 -0.126957 0)
(-0.201274 -0.117621 0)
(-0.214313 -0.107671 0)
(-0.225836 -0.0974576 0)
(-0.235924 -0.0872442 0)
(-0.244674 -0.07722 0)
(-0.252194 -0.0675079 0)
(-0.258591 -0.058175 0)
(-0.263966 -0.0492426 0)
(-0.26841 -0.0406946 0)
(-0.272003 -0.0324856 0)
(-0.27481 -0.0245472 0)
(-0.27688 -0.0167939 0)
(-0.278246 -0.00912796 0)
(-0.278922 -0.00144374 0)
(-0.278908 0.00636829 0)
(-0.278183 0.0144173 0)
(-0.276707 0.0228077 0)
(-0.274423 0.0316338 0)
(-0.271252 0.0409734 0)
(-0.2671 0.0508809 0)
(-0.261853 0.0613777 0)
(-0.255382 0.0724422 0)
(-0.247548 0.0839979 0)
(-0.238208 0.0959006 0)
(-0.227222 0.107925 0)
(-0.214468 0.119753 0)
(-0.19986 0.130962 0)
(-0.183367 0.141021 0)
(-0.165042 0.14929 0)
(-0.145048 0.155033 0)
(-0.123693 0.157442 0)
(-0.101454 0.155673 0)
(-0.079006 0.148904 0)
(-0.0572287 0.136406 0)
(-0.0371786 0.117615 0)
(-0.0200212 0.0922092 0)
(-0.00725758 0.06017 0)
(-0.00109959 0.0218665 0)
(-0.000941554 -0.0176841 0)
(-0.00622579 -0.0483293 0)
(-0.017218 -0.0738124 0)
(-0.0320939 -0.0940257 0)
(-0.0496515 -0.10912 0)
(-0.0689724 -0.11943 0)
(-0.0892136 -0.125431 0)
(-0.109655 -0.127686 0)
(-0.129724 -0.126799 0)
(-0.148985 -0.123375 0)
(-0.16713 -0.117986 0)
(-0.183954 -0.111152 0)
(-0.199344 -0.103325 0)
(-0.213256 -0.0948838 0)
(-0.225695 -0.0861355 0)
(-0.236708 -0.077316 0)
(-0.246362 -0.0685976 0)
(-0.254737 -0.0600961 0)
(-0.261922 -0.051879 0)
(-0.268002 -0.0439727 0)
(-0.273056 -0.0363707 0)
(-0.277154 -0.0290394 0)
(-0.280355 -0.0219247 0)
(-0.282701 -0.0149564 0)
(-0.284221 -0.00805334 0)
(-0.284928 -0.00112686 0)
(-0.284817 0.00591477 0)
(-0.283864 0.0131626 0)
(-0.28203 0.0207027 0)
(-0.279257 0.0286111 0)
(-0.27547 0.0369483 0)
(-0.270579 0.0457521 0)
(-0.264481 0.0550302 0)
(-0.257063 0.0647511 0)
(-0.248205 0.0748343 0)
(-0.237794 0.0851398 0)
(-0.225727 0.0954583 0)
(-0.211927 0.105502 0)
(-0.196361 0.114898 0)
(-0.179057 0.123188 0)
(-0.160125 0.129829 0)
(-0.139786 0.134207 0)
(-0.118387 0.135664 0)
(-0.0964292 0.133524 0)
(-0.0745748 0.127146 0)
(-0.0536534 0.115973 0)
(-0.0346274 0.0995916 0)
(-0.018529 0.0777888 0)
(-0.00667028 0.0505886 0)
(-0.000998824 0.0183202 0)
(-0.000875952 -0.0146086 0)
(-0.00583851 -0.0400138 0)
(-0.0162254 -0.0612511 0)
(-0.0303812 -0.0782229 0)
(-0.0472232 -0.0910326 0)
(-0.0659189 -0.0999294 0)
(-0.0856875 -0.105275 0)
(-0.105847 -0.107506 0)
(-0.125837 -0.107097 0)
(-0.145219 -0.104532 0)
(-0.163663 -0.100273 0)
(-0.180937 -0.0947443 0)
(-0.196895 -0.088321 0)
(-0.211457 -0.0813217 0)
(-0.224598 -0.0740066 0)
(-0.23633 -0.0665797 0)
(-0.246697 -0.0591923 0)
(-0.255755 -0.0519485 0)
(-0.263575 -0.0449117 0)
(-0.270226 -0.0381101 0)
(-0.275775 -0.0315434 0)
(-0.280285 -0.0251879 0)
(-0.283804 -0.0190013 0)
(-0.286371 -0.0129277 0)
(-0.288009 -0.00690097 0)
(-0.288729 -0.00084889 0)
(-0.288522 0.00530353 0)
(-0.287364 0.0116303 0)
(-0.285215 0.0182006 0)
(-0.28202 0.0250743 0)
(-0.277707 0.0322968 0)
(-0.272192 0.0398933 0)
(-0.265384 0.0478621 0)
(-0.257184 0.0561674 0)
(-0.247496 0.0647308 0)
(-0.23623 0.0734239 0)
(-0.223319 0.0820602 0)
(-0.208725 0.0903895 0)
(-0.192459 0.0980933 0)
(-0.174596 0.104786 0)
(-0.155291 0.110019 0)
(-0.134805 0.113294 0)
(-0.113513 0.114083 0)
(-0.0919235 0.111856 0)
(-0.0706806 0.106118 0)
(-0.0505641 0.0964487 0)
(-0.0324544 0.0825496 0)
(-0.0172732 0.0642803 0)
(-0.00618151 0.0416869 0)
(-0.000916186 0.0150525 0)
(-0.000823287 -0.0117143 0)
(-0.00552433 -0.0321446 0)
(-0.0154137 -0.0492951 0)
(-0.028968 -0.0630823 0)
(-0.0451988 -0.0735762 0)
(-0.0633417 -0.0809592 0)
(-0.0826683 -0.0855018 0)
(-0.10253 -0.0875359 0)
(-0.122382 -0.0874272 0)
(-0.141784 -0.0855505 0)
(-0.160395 -0.0822693 0)
(-0.177964 -0.0779209 0)
(-0.194319 -0.0728059 0)
(-0.209354 -0.0671824 0)
(-0.223017 -0.0612635 0)
(-0.235296 -0.0552182 0)
(-0.246211 -0.0491735 0)
(-0.255801 -0.0432188 0)
(-0.264118 -0.0374096 0)
(-0.271219 -0.0317732 0)
(-0.277161 -0.0263129 0)
(-0.281994 -0.0210122 0)
(-0.285764 -0.0158394 0)
(-0.288502 -0.010751 0)
(-0.290228 -0.00569518 0)
(-0.290948 -0.000614707 0)
(-0.290653 0.00454966 0)
(-0.289318 0.00985617 0)
(-0.286902 0.0153587 0)
(-0.283353 0.0211027 0)
(-0.278605 0.0271215 0)
(-0.27258 0.0334308 0)
(-0.265196 0.0400235 0)
(-0.256371 0.046864 0)
(-0.246027 0.0538815 0)
(-0.234098 0.0609646 0)
(-0.220545 0.0679549 0)
(-0.205364 0.0746438 0)
(-0.188601 0.0807699 0)
(-0.170368 0.0860206 0)
(-0.150855 0.0900375 0)
(-0.130348 0.0924277 0)
(-0.109242 0.0927799 0)
(-0.0880431 0.0906876 0)
(-0.0673763 0.0857768 0)
(-0.0479761 0.0777375 0)
(-0.0306539 0.0663563 0)
(-0.0162424 0.0515432 0)
(-0.00578382 0.0333512 0)
(-0.000849744 0.0120139 0)
(-0.000782361 -0.00896483 0)
(-0.00527815 -0.0246348 0)
(-0.0147736 -0.037832 0)
(-0.0278463 -0.0484896 0)
(-0.0435791 -0.0566538 0)
(-0.0612608 -0.0624538 0)
(-0.0802046 -0.0660855 0)
(-0.0997894 -0.0677919 0)
(-0.119485 -0.0678434 0)
(-0.138853 -0.0665194 0)
(-0.157546 -0.0640933 0)
(-0.1753 -0.0608208 0)
(-0.191923 -0.0569317 0)
(-0.207291 -0.0526247 0)
(-0.22133 -0.0480655 0)
(-0.234011 -0.0433864 0)
(-0.245334 -0.0386881 0)
(-0.255323 -0.0340422 0)
(-0.264016 -0.0294946 0)
(-0.271458 -0.0250687 0)
(-0.277698 -0.0207692 0)
(-0.282779 -0.0165854 0)
(-0.286738 -0.0124943 0)
(-0.289603 -0.00846376 0)
(-0.291392 -0.00445468 0)
(-0.292106 -0.000424022 0)
(-0.291734 0.00367291 0)
(-0.290253 0.00787984 0)
(-0.287622 0.0122368 0)
(-0.28379 0.0167771 0)
(-0.278696 0.0215238 0)
(-0.27227 0.026486 0)
(-0.264439 0.0316549 0)
(-0.255132 0.0369987 0)
(-0.244288 0.0424585 0)
(-0.231863 0.0479436 0)
(-0.217838 0.0533279 0)
(-0.202238 0.058447 0)
(-0.185135 0.0630976 0)
(-0.166668 0.067039 0)
(-0.147053 0.0699983 0)
(-0.126596 0.0716794 0)
(-0.105698 0.0717754 0)
(-0.0848642 0.0699868 0)
(-0.0646988 0.0660416 0)
(-0.0458989 0.0597181 0)
(-0.0292206 0.0508683 0)
(-0.0154277 0.0394367 0)
(-0.00547165 0.0254726 0)
(-0.000798089 0.00915864 0)
(-0.000752329 -0.00632581 0)
(-0.00509635 -0.0174011 0)
(-0.0142988 -0.0267509 0)
(-0.0270099 -0.0343265 0)
(-0.0423645 -0.0401568 0)
(-0.0596901 -0.0443279 0)
(-0.0783306 -0.0469721 0)
(-0.0976865 -0.0482553 0)
(-0.117239 -0.0483631 0)
(-0.136554 -0.047489 0)
(-0.155279 -0.0458231 0)
(-0.173141 -0.0435446 0)
(-0.189937 -0.0408151 0)
(-0.205528 -0.0377756 0)
(-0.219826 -0.034544 0)
(-0.232786 -0.0312153 0)
(-0.244396 -0.0278624 0)
(-0.254668 -0.0245375 0)
(-0.26363 -0.0212746 0)
(-0.271318 -0.0180917 0)
(-0.277771 -0.0149933 0)
(-0.283029 -0.0119729 0)
(-0.287124 -0.00901498 0)
(-0.29008 -0.0060974 0)
(-0.291909 -0.00319309 0)
(-0.292615 -0.000272056 0)
(-0.292183 0.00269681 0)
(-0.290589 0.00574385 0)
(-0.287795 0.00889662 0)
(-0.283752 0.0121777 0)
(-0.278402 0.015602 0)
(-0.271679 0.0191746 0)
(-0.263521 0.022887 0)
(-0.253865 0.0267146 0)
(-0.242662 0.0306131 0)
(-0.229884 0.034516 0)
(-0.215532 0.0383314 0)
(-0.199646 0.0419413 0)
(-0.182322 0.0452004 0)
(-0.163716 0.0479385 0)
(-0.144063 0.049964 0)
(-0.123678 0.0510704 0)
(-0.102971 0.0510457 0)
(-0.08244 0.0496847 0)
(-0.0626731 0.0468028 0)
(-0.0443382 0.0422518 0)
(-0.0281501 0.035935 0)
(-0.0148225 0.0278199 0)
(-0.00524092 0.0179458 0)
(-0.000760188 0.00644344 0)
(-0.000732612 -0.00376462 0)
(-0.00497645 -0.0103629 0)
(-0.0139846 -0.0159419 0)
(-0.0264547 -0.020472 0)
(-0.041555 -0.023969 0)
(-0.0586384 -0.0264822 0)
(-0.0770695 -0.028088 0)
(-0.096263 -0.0288829 0)
(-0.115709 -0.0289756 0)
(-0.134975 -0.0284794 0)
(-0.153707 -0.0275066 0)
(-0.171627 -0.0261631 0)
(-0.188525 -0.024545 0)
(-0.204252 -0.0227363 0)
(-0.21871 -0.0208077 0)
(-0.231847 -0.0188163 0)
(-0.24364 -0.0168061 0)
(-0.254093 -0.014809 0)
(-0.263227 -0.0128457 0)
(-0.271073 -0.0109276 0)
(-0.277664 -0.00905795 0)
(-0.283037 -0.00723311 0)
(-0.287218 -0.00544425 0)
(-0.290231 -0.00367841 0)
(-0.292086 -0.00191968 0)
(-0.292784 -0.000150403 0)
(-0.29231 0.00164776 0)
(-0.290641 0.00349265 0)
(-0.287738 0.00540036 0)
(-0.283554 0.0073839 0)
(-0.278034 0.00945173 0)
(-0.271117 0.0116061 0)
(-0.262744 0.0138412 0)
(-0.25286 0.0161414 0)
(-0.241427 0.0184794 0)
(-0.228424 0.0208144 0)
(-0.213865 0.0230909 0)
(-0.197804 0.0252376 0)
(-0.180347 0.0271675 0)
(-0.161667 0.0287793 0)
(-0.142005 0.0299593 0)
(-0.121687 0.0305857 0)
(-0.101122 0.0305342 0)
(-0.0808061 0.029685 0)
(-0.061315 0.0279314 0)
(-0.0432967 0.0251881 0)
(-0.0274388 0.0214007 0)
(-0.0144218 0.0165524 0)
(-0.00508869 0.0106683 0)
(-0.00073531 0.00382695 0)
(-0.000722842 -0.00124973 0)
(-0.00491689 -0.00344134 0)
(-0.0138282 -0.00529582 0)
(-0.0261777 -0.00680325 0)
(-0.0411503 -0.00796866 0)
(-0.0581114 -0.00880806 0)
(-0.0764356 -0.00934648 0)
(-0.095545 -0.00961557 0)