/*--------------------------------*- C++ -*----------------------------------*\
  =========                 |
  \\      /  F ield         | OpenFOAM: The Open Source CFD Toolbox
   \\    /   O peration     | Website:  https://openfoam.org
    \\  /    A nd           | Version:  7
     \\/     M anipulation  |
\*---------------------------------------------------------------------------*/
FoamFile
{
    version     2.0;
    format      ascii;
    class       volScalarField;
    location    "0.0664";
    object      p;
}
// * * * * * * * * * * * * * * * * * * * * * * * * * * * * * * * * * * * * * //

dimensions      [0 2 -2 0 0 0 0];

internalField   nonuniform List<scalar> 
2500
(
6.90777e-06
-0.000514485
-0.00218184
-0.00466739
-0.00758849
-0.0106283
-0.0135448
-0.0161482
-0.0182949
-0.0198802
-0.0208308
-0.0210993
-0.0206599
-0.0195048
-0.0176416
-0.0150908
-0.0118843
-0.00806347
-0.00367809
0.00121474
0.00655161
0.0122636
0.0182771
0.0245145
0.0308948
0.0373348
0.0437493
0.0500526
0.0561588
0.0619836
0.0674449
0.0724644
0.0769689
0.0808918
0.0841748
0.0867696
0.0886402
0.089764
0.0901349
0.0897651
0.0886881
0.0869614
0.0846705
0.0819335
0.0789069
0.0757904
0.0728355
0.0703512
0.0687289
0.0682563
0.0005333
1.25066e-05
-0.00134895
-0.00332204
-0.00562195
-0.00802556
-0.0103418
-0.0124126
-0.0141128
-0.0153468
-0.0160448
-0.0161591
-0.0156615
-0.01454
-0.012797
-0.0104472
-0.00751581
-0.0040377
-5.56598e-05
0.0043804
0.00921438
0.0143849
0.0198258
0.0254675
0.031237
0.037059
0.042857
0.0485536
0.0540719
0.0593365
0.0642741
0.0688155
0.0728965
0.0764592
0.0794537
0.0818398
0.0835885
0.0846836
0.0851241
0.0849257
0.084123
0.082772
0.0809525
0.0787706
0.0763616
0.0738923
0.0715605
0.069587
0.0682525
0.0677841
0.00220012
0.00137564
2.59675e-06
-0.00178227
-0.00379963
-0.00587614
-0.00785875
-0.00961766
-0.0110464
-0.0120612
-0.0125989
-0.0126153
-0.0120828
-0.0109887
-0.009333
-0.00712721
-0.00439287
-0.0011603
0.00253243
0.00664046
0.011113
0.0158941
0.0209235
0.0261372
0.0314681
0.0368473
0.0422041
0.0474677
0.0525673
0.0574339
0.0620007
0.0662046
0.0699874
0.0732972
0.0760894
0.0783287
0.0799902
0.0810612
0.0815427
0.0814507
0.0808186
0.079698
0.0781607
0.0763001
0.0742317
0.0720931
0.070043
0.068256
0.0669149
0.0661663
0.0047163
0.00336115
0.00176456
-4.89289e-05
-0.00199635
-0.00394083
-0.00575927
-0.00734744
-0.00861762
-0.009499
-0.00993733
-0.00989388
-0.00934415
-0.00827648
-0.00669069
-0.00459689
-0.00201437
0.00102942
0.0044998
0.00835567
0.0125503
0.0170321
0.0217453
0.0266303
0.0316252
0.0366655
0.0416857
0.0466197
0.0514017
0.0559673
0.0602546
0.064205
0.0677646
0.0708852
0.0735261
0.0756547
0.0772484
0.0782958
0.0787978
0.0787692
0.0782399
0.0772555
0.0758789
0.0741901
0.0722859
0.0702788
0.0682978
0.0664831
0.0649262
0.0636672
0.00772717
0.00571687
0.00378013
0.00181856
-0.00017728
-0.00209993
-0.00385163
-0.00535169
-0.00653051
-0.00733061
-0.00770737
-0.00762869
-0.00707435
-0.00603502
-0.0045114
-0.00251328
-5.86826e-05
0.00282693
0.00611142
0.00975672
0.0137195
0.0179517
0.0224014
0.0270132
0.031729
0.0364886
0.0412306
0.0458929
0.050414
0.0547333
0.0587925
0.0625367
0.0659151
0.0688826
0.0714006
0.0734383
0.0749742
0.0759968
0.0765061
0.0765142
0.0760464
0.075142
0.0738539
0.0722493
0.0704073
0.0684177
0.0663854
0.0644229
0.0625343
0.0606394
0.010961
0.00824469
0.00589529
0.00370076
0.00156718
-0.000420482
-0.00218506
-0.00366651
-0.00481184
-0.00557634
-0.00592509
-0.00583315
-0.00528524
-0.00427524
-0.00280557
-0.000886566
0.00146417
0.00422234
0.00735763
0.0108343
0.0146115
0.0186444
0.022884
0.0272783
0.0317725
0.03631
0.0408326
0.0452817
0.0495988
0.0537264
0.0576092
0.0611947
0.0644343
0.0672848
0.0697087
0.0716761
0.0731654
0.074164
0.0746699
0.0746918
0.0742501
0.0733768
0.0721157
0.0705216
0.0686579
0.0665951
0.0644189
0.0622209
0.0599248
0.0573398
0.0142117
0.0107769
0.00797341
0.0054872
0.0031498
0.00103009
-0.000810774
-0.00233028
-0.00349011
-0.00425729
-0.00460623
-0.00451917
-0.00398615
-0.00300475
-0.00157976
0.000277286
0.00254847
0.00521001
0.00823268
0.0115823
0.0152201
0.0191035
0.023186
0.0274181
0.031748
0.0361214
0.040483
0.0447767
0.0489463
0.0529367
0.0566944
0.0601685
0.0633118
0.0660817
0.0684412
0.0703601
0.0718157
0.0727937
0.0732893
0.0733072
0.0728624
0.0719801
0.0706951
0.0690513
0.0670988
0.0648917
0.0625017
0.0600061
0.0572576
0.0539676
0.0173193
0.013173
0.00989498
0.00707964
0.00449305
0.0021932
0.000229126
-0.00137125
-0.0025823
-0.00338153
-0.00375205
-0.00368303
-0.00316989
-0.00221421
-0.0008235
0.000988959
0.00320444
0.00579907
0.00874413
0.0120065
0.0155488
0.0193299
0.0233055
0.0274281
0.0316477
0.0359122
0.0401683
0.0443616
0.0484377
0.0523428
0.0560245
0.0594328
0.0625208
0.0652461
0.0675709
0.0694641
0.070901
0.0718651
0.072348
0.0723501
0.0718811
0.0709594
0.0696119
0.0678728
0.0657809
0.0633775
0.0607241
0.0578895
0.0546643
0.0506723
0.0201587
0.0153162
0.0115554
0.00838801
0.00552199
0.00300847
0.000887538
-0.000824893
-0.002114
-0.00296657
-0.00337358
-0.00333077
-0.00283883
-0.00190338
-0.000534958
0.00125112
0.00343489
0.00599192
0.00889354
0.0121071
0.0155961
0.0193207
0.0232377
0.0273011
0.0314624
0.035671
0.0398748
0.0440207
0.0480553
0.0519254
0.0555791
0.0589664
0.0620401
0.0647568
0.0670777
0.0689696
0.0704056
0.071366
0.0718386
0.0718195
0.0713128
0.0703305
0.0688923
0.0670244
0.0647562
0.062119
0.0591675
0.0559663
0.0522517
0.0475681
0.0226305
0.017108
0.0128627
0.00932961
0.00616447
0.00341448
0.00111337
-0.000732849
-0.00211854
-0.00303859
-0.00349109
-0.00347788
-0.00300469
-0.00208118
-0.000721015
0.0010582
0.00323495
0.00578391
0.00867602
0.0118787
0.0153559
0.0190684
0.0229738
0.0270272
0.0311809
0.0353852
0.0395889
0.0437394
0.0477835
0.0516684
0.0553417
0.0587528
0.0618535
0.0645989
0.0669483
0.0688659
0.0703219
0.071293
0.071763
0.0717231
0.071172
0.070116
0.0685682
0.066548
0.0640771
0.0611792
0.0579053
0.0543188
0.0501074
0.0447426
0.0246525
0.0184637
0.0137345
0.00982792
0.00635126
0.00335002
0.000853474
-0.00114055
-0.00263427
-0.00362964
-0.00413119
-0.00414639
-0.00368576
-0.00276294
-0.00139475
0.000398755
0.00259428
0.0051653
0.00808206
0.0113117
0.0148181
0.0185624
0.0225027
0.0265944
0.0307903
0.0350412
0.0392961
0.0435025
0.0476072
0.0515564
0.0552973
0.0587779
0.0619483
0.0647615
0.0671741
0.0691475
0.0706481
0.0716487
0.0721286
0.0720741
0.0714788
0.0703432
0.0686748
0.0664869
0.0637953
0.060618
0.0570041
0.0530188
0.048305
0.0422653
0.0261533
0.0193076
0.0140955
0.00981096
0.00601531
0.00275391
5.29719e-05
-0.00209657
-0.00370373
-0.00477674
-0.00532594
-0.00536405
-0.00490614
-0.00396971
-0.00257479
-0.000743974
0.0014975
0.00412166
0.0070978
0.0103924
0.0139692
0.0177891
0.0218103
0.0259881
0.0302758
0.034624
0.0389813
0.0432951
0.0475113
0.0515753
0.0554327
0.0590298
0.0623143
0.0652367
0.0677502
0.0698127
0.0713865
0.07244
0.0729477
0.0728908
0.0722576
0.0710434
0.0692502
0.0668863
0.0639627
0.0604929
0.0565263
0.0521314
0.0469088
0.0401944
0.027068
0.0195698
0.0138749
0.00920958
0.00509073
0.00156455
-0.00134483
-0.00365245
-0.00537335
-0.00652142
-0.00711238
-0.00716383
-0.00669523
-0.00572788
-0.00428498
-0.00239176
-7.55584e-05
0.00263406
0.00570519
0.00910348
0.0127921
0.0167315
0.0208796
0.0251918
0.0296207
0.0341168
0.0386282
0.0431012
0.0474809
0.051711
0.0557354
0.0594978
0.0629434
0.0660191
0.0686747
0.0708636
0.0725438
0.0736785
0.0742373
0.0741959
0.0735373
0.0722515
0.0703356
0.0677934
0.0646317
0.0608609
0.0565318
0.0517176
0.0459775
0.0385815
0.0273348
0.0191832
0.013004
0.00795576
0.00351162
-0.000280788
-0.00339876
-0.00586275
-0.00769326
-0.00890947
-0.00953211
-0.0095835
-0.00908735
-0.00806867
-0.00655391
-0.00457097
-0.00214942
0.000679427
0.00388229
0.00742379
0.0112663
0.0153696
0.0196913
0.0241862
0.0288064
0.0335016
0.0382192
0.0429044
0.0475006
0.0519498
0.0561935
0.0601726
0.063829
0.0671057
0.0699483
0.0723054
0.0741298
0.0753795
0.0760182
0.0760162
0.0753507
0.0740064
0.0719756
0.0692579
0.0658567
0.0617797
0.05708
0.0518367
0.0455677
0.0374758
0.0268918
0.0180812
0.0114143
0.0059811
0.00121096
-0.0028467
-0.00617026
-0.00878521
-0.0107173
-0.0119907
-0.0126311
-0.0126653
-0.0121212
-0.0110277
-0.00941448
-0.00731215
-0.00475261
-0.00176908
0.00160366
0.00532901
0.00936839
0.0136809
0.0182234
0.0229499
0.027812
0.0327585
0.0377355
0.0426869
0.0475544
0.0522777
0.0567954
0.0610454
0.0649657
0.0684949
0.0715739
0.0741457
0.0761577
0.0775617
0.0783152
0.0783823
0.0777345
0.0763507
0.0742184
0.0713331
0.0676948
0.0633092
0.0582322
0.0525494
0.0457365
0.0369275
0.0256758
0.0161961
0.00903582
0.00321545
-0.00188044
-0.00620044
-0.00972383
-0.0124811
-0.0145031
-0.015819
-0.0164593
-0.0164555
-0.0158398
-0.0146448
-0.0129035
-0.0106496
-0.00791719
-0.00474164
-0.00115933
0.00279186
0.00707226
0.0116402
0.0164515
0.0214596
0.0266152
0.0318659
0.0371569
0.0424302
0.0476255
0.05268
0.0575293
0.0621077
0.0663487
0.0701864
0.0735559
0.0763945
0.0786431
0.0802467
0.0811563
0.081329
0.0807298
0.0793316
0.0771167
0.0740763
0.0702072
0.065513
0.0600527
0.0539192
0.0465443
0.0369897
0.02362
0.013457
0.00579582
-0.000414373
-0.00583502
-0.0104127
-0.0141277
-0.0170155
-0.0191122
-0.0204521
-0.0210708
-0.0210045
-0.0202898
-0.0189632
-0.0170613
-0.0146208
-0.0116783
-0.00827136
-0.00443799
-0.000217485
0.00434937
0.0092199
0.0143492
0.0196898
0.0251915
0.030801
0.0364618
0.0421143
0.0476961
0.0531417
0.0583832
0.0633509
0.0679738
0.0721805
0.0759001
0.0790633
0.0816038
0.0834594
0.0845731
0.0848947
0.0843818
0.0830009
0.0807282
0.0775503
0.0734605
0.06846
0.0626116
0.0560153
0.0480565
0.0377213
0.0206531
0.00978871
0.00161731
-0.00498571
-0.0107294
-0.0155585
-0.0194543
-0.0224576
-0.0246104
-0.0259521
-0.0265236
-0.0263662
-0.0255213
-0.0240295
-0.0219312
-0.0192661
-0.0160737
-0.0123936
-0.00826575
-0.00373079
0.00116935
0.00639105
0.0118886
0.0176138
0.0235154
0.0295392
0.0356272
0.0417183
0.0477475
0.0536466
0.0593441
0.0647662
0.0698366
0.0744781
0.0786132
0.0821653
0.0850601
0.0872269
0.0886005
0.089122
0.0887407
0.0874156
0.0851162
0.0818239
0.0775276
0.0722261
0.0659855
0.0589134
0.0503461
0.0391889
0.016698
0.00511057
-0.00358212
-0.0105813
-0.0166455
-0.0217179
-0.025781
-0.0288817
-0.0310678
-0.0323848
-0.0328793
-0.0325981
-0.0315876
-0.0298931
-0.0275587
-0.0246278
-0.0211428
-0.0171454
-0.0126774
-0.00778106
-0.00249928
0.00312345
0.0090407
0.0152036
0.0215601
0.028055
0.0346294
0.04122
0.0477599
0.0541779
0.0603989
0.0663443
0.0719327
0.0770804
0.0817027
0.0857148
0.0890337
0.0915795
0.093277
0.0940577
0.0938615
0.0926386
0.0903509
0.0869732
0.0824896
0.0768954
0.07026
0.0626989
0.0534953
0.0414685
0.011671
-0.000664806
-0.00989149
-0.0172902
-0.0236715
-0.0289769
-0.0331909
-0.0363669
-0.0385594
-0.0398205
-0.0402033
-0.0397606
-0.0385445
-0.0366052
-0.0339913
-0.0307498
-0.026926
-0.0225644
-0.0177084
-0.0124017
-0.0066883
-0.000613332
0.00577622
0.012431
0.0192985
0.0263228
0.0334438
0.0405969
0.047713
0.0547181
0.0615333
0.0680754
0.0742573
0.0799885
0.0851764
0.0897274
0.0935486
0.0965496
0.0986443
0.0997531
0.0998049
0.0987396
0.09651
0.093083
0.0884367
0.082562
0.0755313
0.0674677
0.0575975
0.0446477
0.00548014
-0.00763271
-0.0174077
-0.0252094
-0.0319028
-0.0374285
-0.0417733
-0.0449981
-0.047165
-0.0483337
-0.0485644
-0.0479171
-0.04645
-0.0442188
-0.0412771
-0.0376759
-0.0334639
-0.0286879
-0.0233934
-0.0176254
-0.0114287
-0.00484892
0.00206664
0.00926848
0.016704
0.0243168
0.0320461
0.0398263
0.0475862
0.0552492
0.0627328
0.0699493
0.0768054
0.0832035
0.0890426
0.0942194
0.0986302
0.102173
0.104748
0.106264
0.106638
0.105795
0.10368
0.100248
0.0954703
0.0893322
0.0819082
0.0733292
0.0627597
0.0488273
-0.00197496
-0.0158976
-0.0262368
-0.0344447
-0.0414437
-0.0471737
-0.0516249
-0.0548665
-0.0569699
-0.058003
-0.0580348
-0.0571331
-0.0553631
-0.0527872
-0.0494641
-0.0454495
-0.0407954
-0.0355516
-0.0297653
-0.0234827
-0.0167493
-0.00961087
-0.00211462
0.00569023
0.0137514
0.0220126
0.0304129
0.0388858
0.0473589
0.0557532
0.0639828
0.0719553
0.0795716
0.0867265
0.0933099
0.0992081
0.104305
0.108486
0.111638
0.113653
0.114433
0.113891
0.111956
0.108574
0.103704
0.0973259
0.0895143
0.0804079
0.0691042
0.0541239
-0.010805
-0.0255748
-0.0364959
-0.0451125
-0.0524082
-0.0583226
-0.0628502
-0.0660704
-0.0680646
-0.0689114
-0.0686893
-0.0674754
-0.0653435
-0.0623629
-0.0585987
-0.0541113
-0.0489569
-0.0431877
-0.0368532
-0.0300004
-0.0226751
-0.0149231
-0.00679071
0.00167356
0.0104183
0.0193881
0.0285224
0.0377547
0.0470117
0.0562126
0.0652687
0.0740829
0.0825504
0.0905583
0.097987
0.104711
0.110603
0.115531
0.119366
0.121985
0.123271
0.123121
0.121447
0.118179
0.113267
0.106679
0.0984904
0.0888465
0.076772
0.0606722
-0.0211321
-0.0367917
-0.0483145
-0.0573419
-0.0649222
-0.070996
-0.0755632
-0.078715
-0.0805456
-0.0811454
-0.0806048
-0.0790118
-0.0764497
-0.0729964
-0.0687238
-0.0636981
-0.0579796
-0.0516234
-0.0446808
-0.0371997
-0.0292257
-0.0208039
-0.0119795
-0.00279935
0.00668685
0.0164252
0.0263565
0.0364149
0.0465272
0.0566114
0.0665766
0.0763218
0.0857364
0.0946998
0.103083
0.110748
0.117552
0.123349
0.12799
0.131333
0.133241
0.133589
0.132271
0.129198
0.124305
0.117547
0.108998
0.0988087
0.0859252
0.0686274
-0.0330919
-0.0496908
-0.0618374
-0.0712764
-0.0791254
-0.0853267
-0.0898878
-0.0929143
-0.0945151
-0.0947955
-0.0938599
-0.0918091
-0.0887379
-0.0847341
-0.0798775
-0.0742404
-0.0678879
-0.0608781
-0.0532639
-0.0450936
-0.0364125
-0.0272641
-0.0176916
-0.00773949
0.00254515
0.0131111
0.0239013
0.034852
0.0458908
0.0569357
0.0678943
0.0786625
0.0891244
0.0991521
0.108606
0.117336
0.125184
0.131985
0.137571
0.141776
0.144439
0.145411
0.144561
0.141781
0.136982
0.130106
0.12122
0.110483
0.0967507
0.0781692
-0.0468356
-0.0644321
-0.0772277
-0.0870773
-0.0951735
-0.101462
-0.10596
-0.108791
-0.110081
-0.109955
-0.108533
-0.105932
-0.10226
-0.0976163
-0.0920897
-0.0857598
-0.0786964
-0.0709609
-0.0626075
-0.0536847
-0.0442364
-0.034304
-0.0239278
-0.0131488
-0.00201022
0.00944042
0.0211498
0.0330572
0.0450925
0.0571751
0.069212
0.0810972
0.0927102
0.103916
0.114566
0.124496
0.133532
0.141488
0.148174
0.153398
0.15697
0.158714
0.158468
0.156096
0.151486
0.144557
0.13537
0.124086
0.109465
0.0895052
-0.0625335
-0.0811969
-0.0946703
-0.104927
-0.113242
-0.119566
-0.123929
-0.126477
-0.127358
-0.12672
-0.124702
-0.121441
-0.117061
-0.111674
-0.10538
-0.0982657
-0.0904067
-0.0818674
-0.0727031
-0.0629616
-0.0526849
-0.0419112
-0.0306767
-0.0190176
-0.00697207
0.00541763
0.0181034
0.031029
0.0441284
0.0573237
0.0705232
0.0836201
0.0964907
0.108994
0.120971
0.132246
0.142627
0.151905
0.159867
0.166288
0.17095
0.173638
0.174156
0.172336
0.168031
0.161133
0.151693
0.139869
0.124318
0.102876
-0.0803789
-0.100193
-0.114377
-0.125034
-0.133529
-0.139822
-0.143959
-0.146115
-0.146466
-0.145186
-0.142442
-0.138391
-0.133176
-0.126927
-0.119753
-0.111752
-0.103004
-0.0935762
-0.0835248
-0.072896
-0.0617289
-0.0500571
-0.0379115
-0.025322
-0.0123201
0.00105887
0.0147737
0.0287748
0.0430019
0.0573818
0.0718258
0.0862283
0.100464
0.114388
0.127831
0.140606
0.152501
0.163287
0.17272
0.180544
0.186501
0.190337
0.191812
0.190714
0.186858
0.180099
0.17047
0.158125
0.141601
0.11856
-0.100594
-0.121661
-0.136595
-0.14764
-0.156264
-0.162437
-0.166234
-0.16786
-0.16753
-0.16545
-0.16182
-0.156824
-0.150627
-0.143376
-0.135196
-0.126193
-0.116453
-0.106045
-0.095026
-0.0834392
-0.0713192
-0.0586941
-0.0455874
-0.0320212
-0.0180185
-0.00360559
0.0111852
0.026313
0.0417255
0.0573565
0.073123
0.0889225
0.104631
0.120099
0.135152
0.14959
0.163185
0.175682
0.186807
0.196266
0.203759
0.208981
0.211642
0.211476
0.208247
0.201764
0.192031
0.179195
0.161656
0.136885
-0.123437
-0.145884
-0.161613
-0.173025
-0.181707
-0.187648
-0.190953
-0.191877
-0.190678
-0.187605
-0.182896
-0.176769
-0.169416
-0.161003
-0.151673
-0.141538
-0.130692
-0.119206
-0.107135
-0.0945179
-0.0813836
-0.0677523
-0.0536388
-0.0390551
-0.0240135
-0.00852926
0.00737661
0.0236743
0.0403221
0.0572635
0.0744239
0.091707
0.108992
0.12613
0.142941
0.159215
0.174706
0.189137
0.202199
0.213558
0.222863
0.229753
0.233874
0.234896
0.232515
0.226482
0.21676
0.203478
0.184884
0.158231
-0.149214
-0.173199
-0.189774
-0.201522
-0.210164
-0.215721
-0.218344
-0.218344
-0.21604
-0.211736
-0.205715
-0.198236
-0.189521
-0.179762
-0.169116
-0.157706
-0.145631
-0.132962
-0.119751
-0.106031
-0.0918229
-0.077137
-0.0619766
-0.0463417
-0.0302314
-0.0136476
0.00340255
0.0209031
0.038826
0.0571274
0.0757443
0.0945902
0.113551
0.132481
0.1512
0.169489
0.187088
0.203694
0.218966
0.232524
0.243962
0.25285
0.258762
0.261284
0.260029
0.254667
0.245109
0.231451
0.21176
0.183052
-0.178291
-0.204014
-0.221495
-0.233526
-0.241996
-0.246968
-0.248656
-0.247451
-0.243747
-0.237917
-0.230301
-0.221206
-0.21089
-0.199572
-0.187424
-0.174581
-0.161143
-0.147181
-0.13274
-0.117846
-0.102509
-0.0867256
-0.0704862
-0.0537756
-0.0365774
-0.0188772
-0.000665557
0.0180584
0.0372833
0.0569818
0.077106
0.0975832
0.118311
0.139151
0.159926
0.180413
0.200341
0.219384
0.237168
0.253265
0.267205
0.278484
0.286583
0.290988
0.291206
0.286803
0.277611
0.263676
0.242853
0.211883
-0.211118
-0.238829
-0.257282
-0.269517
-0.277627
-0.281743
-0.282167
-0.279396
-0.273921
-0.266201
-0.256648
-0.245624
-0.233429
-0.220308
-0.206452
-0.192002
-0.177059
-0.161691
-0.145932
-0.129797
-0.113281
-0.0963667
-0.0790264
-0.0612275
-0.042935
-0.0241154
-0.00473965
0.015213
0.0357515
0.0568684
0.0785357
0.100699
0.123272
0.146131
0.169106
0.191976
0.214464
0.236225
0.256853
0.275872
0.292742
0.306873
0.317637
0.324399
0.32653
0.323457
0.314902
0.300834
0.27885
0.24537
-0.248252
-0.278272
-0.297767
-0.310079
-0.317566
-0.320458
-0.319185
-0.314381
-0.306669
-0.296612
-0.28471
-0.271388
-0.256992
-0.241795
-0.226002
-0.20976
-0.193167
-0.176278
-0.159116
-0.14168
-0.123947
-0.10588
-0.0874299
-0.0685444
-0.0491669
-0.0292414
-0.0087164
0.0124523
0.0342973
0.0568355
0.080063
0.103949
0.128431
0.153403
0.178713
0.204149
0.229432
0.25421
0.278045
0.300414
0.320707
0.338235
0.352246
0.361951
0.366553
0.365296
0.357745
0.343751
0.320589
0.284299
-0.290402
-0.323141
-0.343743
-0.355935
-0.362423
-0.36359
-0.360043
-0.352608
-0.34207
-0.329128
-0.314383
-0.298333
-0.28137
-0.263794
-0.245819
-0.227592
-0.209199
-0.190681
-0.172042
-0.153257
-0.134282
-0.115055
-0.0955046
-0.0755525
-0.0551178
-0.0341195
-0.0124802
0.00987078
0.0329936
0.0569337
0.0817161
0.10734
0.133772
0.160934
0.188698
0.216873
0.245191
0.273295
0.300731
0.32693
0.351212
0.372781
0.390741
0.404123
0.411909
0.413108
0.407063
0.393443
0.369109
0.329639
-0.338484
-0.374466
-0.396225
-0.407987
-0.412934
-0.411684
-0.405098
-0.394257
-0.380157
-0.363661
-0.345488
-0.326212
-0.306273
-0.285988
-0.265575
-0.245168
-0.224835
-0.204592
-0.184416
-0.164254
-0.144031
-0.123659
-0.103038
-0.0820608
-0.0606191
-0.0386036
-0.0159083
0.00756738
0.0319145
0.0572111
0.0835168
0.110866
0.139263
0.168666
0.198985
0.230057
0.26164
0.293389
0.324844
0.355403
0.38432
0.410689
0.433453
0.451426
0.46332
0.467825
0.463979
0.451175
0.42572
0.382605
-0.393709
-0.43361
-0.456526
-0.467365
-0.469985
-0.465359
-0.454713
-0.439465
-0.420884
-0.400026
-0.377739
-0.354676
-0.331313
-0.307974
-0.284864
-0.262093
-0.239697
-0.217655
-0.195907
-0.174364
-0.152916
-0.13144
-0.109803
-0.0878685
-0.0654954
-0.0425443
-0.0188774
0.00563812
0.0311279
0.0577063
0.0854724
0.114503
0.144847
0.176511
0.209451
0.243554
0.278617
0.314329
0.35024
0.385738
0.420023
0.452081
0.480685
0.504398
0.521594
0.530551
0.529875
0.518544
0.492097
0.44475
-0.457715
-0.502403
-0.526371
-0.535503
-0.534638
-0.525299
-0.509227
-0.48829
-0.464089
-0.437903
-0.410716
-0.383245
-0.355984
-0.329244
-0.303196
-0.277902
-0.25335
-0.229469
-0.20615
-0.183258
-0.16064
-0.138133
-0.115569
-0.0927737
-0.0695744
-0.0457981
-0.0212735
0.00416719
0.0306864
0.0584388
0.0875673
0.118198
0.150431
0.184334
0.219923
0.257151
0.29588
0.335854
0.376666
0.417721
0.458191
0.496974
0.532671
0.563563
0.58762
0.602584
0.606458
0.597593
0.57043
0.518106
-0.532776
-0.583356
-0.608055
-0.614213
-0.60815
-0.592227
-0.568907
-0.54064
-0.509426
-0.476783
-0.443815
-0.411276
-0.379644
-0.349179
-0.319987
-0.292059
-0.265309
-0.239599
-0.214757
-0.190593
-0.166903
-0.143478
-0.120109
-0.0965854
-0.0726978
-0.0482387
-0.023002
0.00321622
0.0306174
0.059399
0.0897518
0.121856
0.155873
0.191941
0.230154
0.27055
0.31308
0.357579
0.403722
0.450973
0.498521
0.545217
0.589507
0.629383
0.662338
0.685432
0.695843
0.690977
0.663647
0.605404
-0.622148
-0.679993
-0.704662
-0.705786
-0.691969
-0.666838
-0.633849
-0.596183
-0.556285
-0.515898
-0.476202
-0.437932
-0.401488
-0.367034
-0.334563
-0.303961
-0.275043
-0.247582
-0.221329
-0.196026
-0.171412
-0.147228
-0.123219
-0.099137
-0.0747346
-0.0497696
-0.0240007
0.00281258
0.0309113
0.0605371
0.0919314
0.125333
0.160973
0.199069
0.23981
0.283341
0.329734
0.378955
0.43081
0.484885
0.540457
0.596395
0.651053
0.702152
0.746663
0.780811
0.800651
0.802185
0.775753
0.710442
-0.730665
-0.797361
-0.820368
-0.813079
-0.787676
-0.74967
-0.70383
-0.6542
-0.603668
-0.554133
-0.506751
-0.46214
-0.420539
-0.381937
-0.346165
-0.312956
-0.281997
-0.252951
-0.225475
-0.199234
-0.173903
-0.149169
-0.124731
-0.100301
-0.0755953
-0.0503371
-0.0242514
0.00293785
0.0315106
0.0617525
0.0939566
0.128423
0.165459
0.20537
0.248456
0.294991
0.345202
0.399232
0.457083
0.518544
0.58308
0.649696
0.716767
0.781831
0.84135
0.890572
0.924094
0.935855
0.912373
0.838717
-0.865829
-0.94286
-0.960838
-0.939559
-0.896823
-0.840853
-0.778052
-0.713373
-0.650036
-0.589919
-0.533982
-0.482568
-0.435634
-0.3929
-0.353962
-0.318359
-0.285612
-0.255253
-0.226833
-0.199932
-0.174156
-0.149137
-0.12453
-0.100005
-0.0752451
-0.0499429
-0.0237915
0.0035178
0.032301
0.0628857
0.0956155
0.130853
0.168981
0.210404
0.255542
0.304821
0.358657
0.41742
0.481384
0.550642
0.624987
0.703736
0.785483
0.867783
0.94672
1.01653
1.07001
1.09818
1.0816
0.99858
-1.03989
-1.12754
-1.13369
-1.0892
-1.02057
-0.939685
-0.85477
-0.771503
-0.693113
-0.621123
-0.556005
-0.497609
-0.44544
-0.398839
-0.357091
-0.319487
-0.285357
-0.254082
-0.2251
-0.1979
-0.17202
-0.147039
-0.122567
-0.0982414
-0.0737153
-0.0486528
-0.0227211
0.00441626
0.0331068
0.0637155
0.0966322
0.132278
0.171113
0.21364
0.260407
0.31201
0.369082
0.43227
0.502199
0.579391
0.664144
0.756334
0.855087
0.958357
1.06221
1.16007
1.24276
1.29735
1.29535
1.20344
-1.27409
-1.36811
-1.34881
-1.26595
-1.15886
-1.04388
-0.930708
-0.825118
-0.729663
-0.644936
-0.570493
-0.505391
-0.448489
-0.398623
-0.354694
-0.315705
-0.28077
-0.249115
-0.220058
-0.193005
-0.167429
-0.142861
-0.118876
-0.0950825
-0.0711098
-0.0466019
-0.0212064
0.00543438
0.033692
0.0639616
0.096672
0.132296
0.171363
0.214469
0.262293
0.315605
0.375272
0.442264
0.517629
0.60245
0.697735
0.804234
0.922084
1.05025
1.18554
1.32126
1.44661
1.5439
1.5714
1.47625
-1.60742
-1.68993
-1.61777
-1.47202
-1.30871
-1.14816
-1.00011
-0.868912
-0.755196
-0.657754
-0.574656
-0.50381
-0.443226
-0.391126
-0.345973
-0.306461
-0.271489
-0.240128
-0.211593
-0.185213
-0.160411
-0.136682
-0.113573
-0.0906754
-0.0676044
-0.0439923
-0.0194756
0.00631503
0.0337661
0.0632925
0.0953507
0.130453
0.169185
0.212224
0.260364
0.314542
0.375863
0.445633
0.525379
0.616852
0.721988
0.842778
0.980976
1.13749
1.31121
1.49699
1.68392
1.84999
1.93644
1.85865
-2.11195
-2.13071
-1.95202
-1.70485
-1.46143
-1.24244
-1.05375
-0.895298
-0.763858
-0.655243
-0.565374
-0.490673
-0.428144
-0.375339
-0.330279
-0.291364
-0.257304
-0.227044
-0.199719
-0.174608
-0.1511
-0.12867
-0.106856
-0.0852407
-0.0634391
-0.041082
-0.0178058
0.00676006
0.0330048
0.0613502
0.0922653
0.126284
0.164028
0.206232
0.253779
0.30774
0.36943
0.440474
0.522878
0.619119
0.732215
0.865754
1.02379
1.21042
1.42864
1.67812
1.95196
2.22759
2.42962
2.42619
-2.91849
-2.74063
-2.35927
-1.95491
-1.60162
-1.31176
-1.07958
-0.89545
-0.74955
-0.633371
-0.540096
-0.464446
-0.402392
-0.35086
-0.307498
-0.270487
-0.238403
-0.210121
-0.184737
-0.161509
-0.139823
-0.119154
-0.0990472
-0.0790946
-0.058921
-0.038169
-0.0164864
0.0064861
0.0311277
0.0578516
0.0871217
0.119472
0.155533
0.196062
0.241986
0.294462
0.354948
0.425312
0.507969
0.606071
0.723748
0.8664
1.041
1.25621
1.52205
1.84839
2.24048
2.68436
3.1019
3.31311
-4.32382
-3.56014
-2.8153
-2.18891
-1.69868
-1.33232
-1.0613
-0.859089
-0.706168
-0.588747
-0.497117
-0.424443
-0.365879
-0.317937
-0.278063
-0.244347
-0.21534
-0.189915
-0.167184
-0.14643
-0.127062
-0.108583
-0.0905628
-0.0726184
-0.0543987
-0.0355699
-0.0158034
0.00523641
0.0279051
0.0525916
0.0797351
0.109845
0.143528
0.181521
0.224742
0.274352
0.33185
0.399209
0.479072
0.575047
0.692146
0.837434
1.02095
1.25695
1.56563
1.97464
2.51377
3.19364
3.99337
4.82419
-7.15784
-4.55839
-3.1391
-2.25259
-1.645
-1.23405
-0.954423
-0.757969
-0.615402
-0.509078
-0.427839
-0.364401
-0.313879
-0.272899
-0.239062
-0.21061
-0.186229
-0.164907
-0.145853
-0.128428
-0.112112
-0.0964662
-0.0811103
-0.0657081
-0.0499503
-0.0335432
-0.0161966
0.00238441
0.0225137
0.044535
0.0688367
0.0958707
0.126176
0.160412
0.199401
0.244193
0.29616
0.357132
0.429613
0.517121
0.624742
0.760061
0.934702
1.16702
1.48735
1.94598
2.61235
3.57104
5.07651
7.79532
-12.0262
-5.64117
-2.9748
-1.87582
-1.27868
-0.923905
-0.704228
-0.558392
-0.45525
-0.379043
-0.320943
-0.275554
-0.239371
-0.209999
-0.185727
-0.165293
-0.147738
-0.132318
-0.118442
-0.10563
-0.0934834
-0.0816648
-0.0698798
-0.0578651
-0.0453776
-0.0321852
-0.0180597
-0.00276571
0.0139441
0.0323403
0.0527271
0.0754561
0.100944
0.129694
0.162331
0.199644
0.242653
0.292705
0.351633
0.422005
0.507566
0.614052
0.75078
0.934151
1.19613
1.60053
2.26385
3.45768
6.24111
12.7519
)
;

boundaryField
{
    movingWall
    {
        type            zeroGradient;
    }
    fixedWalls
    {
        type            zeroGradient;
    }
    frontAndBack
    {
        type            empty;
    }
}


// ************************************************************************* //
