/*--------------------------------*- C++ -*----------------------------------*\
  =========                 |
  \\      /  F ield         | OpenFOAM: The Open Source CFD Toolbox
   \\    /   O peration     | Website:  https://openfoam.org
    \\  /    A nd           | Version:  7
     \\/     M anipulation  |
\*---------------------------------------------------------------------------*/
FoamFile
{
    version     2.0;
    format      ascii;
    class       volVectorField;
    location    "0.011";
    object      U;
}
// * * * * * * * * * * * * * * * * * * * * * * * * * * * * * * * * * * * * * //

dimensions      [0 1 -1 0 0 0 0];

internalField   nonuniform List<vector> 
2500
(
(-0.293927 0.15384 0)
(-0.398171 0.128783 0)
(-0.578005 0.0737356 0)
(-0.695773 0.040714 0)
(-0.763956 0.0231516 0)
(-0.807263 0.0138359 0)
(-0.83665 0.008804 0)
(-0.85741 0.00596317 0)
(-0.872617 0.00425281 0)
(-0.884092 0.00315163 0)
(-0.892939 0.00240035 0)
(-0.899869 0.00186395 0)
(-0.90536 0.00146762 0)
(-0.909747 0.00116704 0)
(-0.913274 0.000934302 0)
(-0.916117 0.000750834 0)
(-0.918412 0.000603749 0)
(-0.920259 0.000483803 0)
(-0.921733 0.000384193 0)
(-0.922893 0.000299812 0)
(-0.923782 0.000226757 0)
(-0.924432 0.000161986 0)
(-0.924867 0.000103079 0)
(-0.925102 4.8047e-05 0)
(-0.925148 -4.81038e-06 0)
(-0.925008 -5.70584e-05 0)
(-0.924681 -0.00011019 0)
(-0.924161 -0.000165769 0)
(-0.923435 -0.00022554 0)
(-0.922486 -0.000291551 0)
(-0.921287 -0.000366306 0)
(-0.919803 -0.000452964 0)
(-0.917987 -0.000555585 0)
(-0.915776 -0.000679497 0)
(-0.913092 -0.000831804 0)
(-0.909827 -0.0010222 0)
(-0.905842 -0.00126424 0)
(-0.900952 -0.00157762 0)
(-0.894907 -0.00199222 0)
(-0.88736 -0.00255593 0)
(-0.877819 -0.00335028 0)
(-0.865555 -0.00452256 0)
(-0.849436 -0.006353 0)
(-0.827612 -0.00939355 0)
(-0.797021 -0.0147308 0)
(-0.752478 -0.0244147 0)
(-0.683217 -0.0421717 0)
(-0.565559 -0.0747338 0)
(-0.389685 -0.128287 0)
(-0.290312 -0.152469 0)
(-0.00521811 0.303121 0)
(-0.0268482 0.307154 0)
(-0.170067 0.217002 0)
(-0.305152 0.145226 0)
(-0.411629 0.0973787 0)
(-0.49387 0.0667396 0)
(-0.55683 0.0471983 0)
(-0.605025 0.0344495 0)
(-0.64224 0.0258313 0)
(-0.671296 0.0197885 0)
(-0.694216 0.0154122 0)
(-0.712455 0.0121561 0)
(-0.727075 0.0096793 0)
(-0.738857 0.00776028 0)
(-0.748389 0.0062495 0)
(-0.756113 0.0050424 0)
(-0.762367 0.00406368 0)
(-0.767409 0.00325782 0)
(-0.771438 0.00258303 0)
(-0.774605 0.00200731 0)
(-0.777026 0.00150576 0)
(-0.778786 0.00105864 0)
(-0.779947 0.000649941 0)
(-0.780553 0.000266291 0)
(-0.780628 -0.000103955 0)
(-0.780182 -0.000471488 0)
(-0.779212 -0.000846726 0)
(-0.777699 -0.00124049 0)
(-0.775609 -0.00166472 0)
(-0.77289 -0.00213322 0)
(-0.769471 -0.00266255 0)
(-0.765256 -0.00327315 0)
(-0.76012 -0.00399079 0)
(-0.753899 -0.00484841 0)
(-0.746385 -0.00588894 0)
(-0.737309 -0.00716919 0)
(-0.726323 -0.00876594 0)
(-0.712977 -0.0107856 0)
(-0.696682 -0.0133799 0)
(-0.676663 -0.0167733 0)
(-0.651878 -0.0213097 0)
(-0.620921 -0.027536 0)
(-0.581871 -0.0363507 0)
(-0.532101 -0.0492628 0)
(-0.468201 -0.068788 0)
(-0.386251 -0.0988478 0)
(-0.282037 -0.144817 0)
(-0.152108 -0.212811 0)
(-0.0169098 -0.298666 0)
(-0.00113857 -0.295037 0)
(0.0321997 0.264015 0)
(0.0572772 0.361088 0)
(-0.000687638 0.322212 0)
(-0.0898362 0.256334 0)
(-0.182163 0.19544 0)
(-0.266114 0.147404 0)
(-0.337731 0.111698 0)
(-0.396964 0.0855575 0)
(-0.445318 0.0663313 0)
(-0.484619 0.0520136 0)
(-0.516549 0.0411913 0)
(-0.542528 0.0328882 0)
(-0.563706 0.0264282 0)
(-0.581 0.0213369 0)
(-0.595135 0.0172747 0)
(-0.606681 0.0139938 0)
(-0.616089 0.0113098 0)
(-0.623711 0.0090833 0)
(-0.629822 0.00720715 0)
(-0.634638 0.00559796 0)
(-0.638321 0.00418983 0)
(-0.640997 0.00292987 0)
(-0.642755 0.00177467 0)
(-0.643658 0.000687583 0)
(-0.643742 -0.000363548 0)
(-0.643023 -0.00140837 0)
(-0.641494 -0.0024758 0)
(-0.639128 -0.00359581 0)
(-0.635874 -0.00480111 0)
(-0.631658 -0.00612916 0)
(-0.626377 -0.00762431 0)
(-0.619895 -0.00934046 0)
(-0.612036 -0.0113443 0)
(-0.602577 -0.0137199 0)
(-0.591235 -0.016574 0)
(-0.577657 -0.0200448 0)
(-0.561399 -0.0243131 0)
(-0.541911 -0.0296202 0)
(-0.518506 -0.0362935 0)
(-0.490333 -0.0447861 0)
(-0.456352 -0.0557359 0)
(-0.415317 -0.0700503 0)
(-0.365812 -0.0890195 0)
(-0.306399 -0.114434 0)
(-0.236092 -0.148592 0)
(-0.155503 -0.193749 0)
(-0.0689162 -0.249965 0)
(0.012319 -0.309744 0)
(0.0617894 -0.34383 0)
(0.0329169 -0.250529 0)
(0.0273762 0.204581 0)
(0.0652947 0.354706 0)
(0.0596054 0.36983 0)
(0.0165964 0.330161 0)
(-0.0455559 0.275342 0)
(-0.112703 0.222705 0)
(-0.176884 0.178012 0)
(-0.234524 0.141939 0)
(-0.284547 0.113405 0)
(-0.327125 0.0909652 0)
(-0.362964 0.0732911 0)
(-0.392935 0.0593 0)
(-0.417903 0.0481489 0)
(-0.438644 0.0391922 0)
(-0.455833 0.0319367 0)
(-0.470031 0.0260037 0)
(-0.481704 0.0211001 0)
(-0.491229 0.0169973 0)
(-0.498911 0.0135151 0)
(-0.504992 0.0105102 0)
(-0.509659 0.00786772 0)
(-0.513057 0.00549375 0)
(-0.515292 0.00331045 0)
(-0.516438 0.00125141 0)
(-0.51654 -0.000742097 0)
(-0.515616 -0.00272438 0)
(-0.513659 -0.00474838 0)
(-0.510637 -0.00686864 0)
(-0.506493 -0.00914422 0)
(-0.50114 -0.0116418 0)
(-0.494462 -0.0144394 0)
(-0.486306 -0.01763 0)
(-0.476478 -0.0213269 0)
(-0.464737 -0.0256693 0)
(-0.45079 -0.0308303 0)
(-0.434277 -0.0370267 0)
(-0.414771 -0.0445328 0)
(-0.391768 -0.053698 0)
(-0.364687 -0.0649706 0)
(-0.332881 -0.0789277 0)
(-0.295674 -0.0963091 0)
(-0.252446 -0.118044 0)
(-0.20281 -0.145236 0)
(-0.146966 -0.179031 0)
(-0.0863413 -0.22016 0)
(-0.0246569 -0.267693 0)
(0.0304781 -0.316101 0)
(0.0660282 -0.349569 0)
(0.065912 -0.332199 0)
(0.0268321 -0.190597 0)
(0.0187723 0.16187 0)
(0.0551354 0.325899 0)
(0.0741982 0.377158 0)
(0.0637056 0.366067 0)
(0.0305623 0.327128 0)
(-0.014723 0.279984 0)
(-0.064214 0.234201 0)
(-0.112938 0.193605 0)
(-0.158179 0.159162 0)
(-0.198719 0.130579 0)
(-0.23424 0.107108 0)
(-0.264905 0.0879085 0)
(-0.291109 0.0722028 0)
(-0.313332 0.0593207 0)
(-0.332061 0.0487055 0)
(-0.347748 0.0399015 0)
(-0.360792 0.0325384 0)
(-0.371538 0.0263158 0)
(-0.380272 0.0209896 0)
(-0.387231 0.0163611 0)
(-0.392602 0.0122668 0)
(-0.396533 0.00857152 0)
(-0.399134 0.00516121 0)
(-0.400483 0.00193756 0)
(-0.400627 -0.00118701 0)
(-0.399586 -0.00429381 0)
(-0.397356 -0.00746198 0)
(-0.393905 -0.0107725 0)
(-0.389175 -0.0143123 0)
(-0.383082 -0.0181781 0)
(-0.375511 -0.022481 0)
(-0.366316 -0.0273512 0)
(-0.355314 -0.0329437 0)
(-0.342286 -0.0394444 0)
(-0.326974 -0.0470773 0)
(-0.30908 -0.0561136 0)
(-0.28827 -0.0668809 0)
(-0.264187 -0.0797744 0)
(-0.236474 -0.0952659 0)
(-0.204817 -0.113908 0)
(-0.169028 -0.136323 0)
(-0.129185 -0.163144 0)
(-0.0858551 -0.19488 0)
(-0.040452 -0.231575 0)
(0.00426818 -0.272118 0)
(0.0436219 -0.312858 0)
(0.0704735 -0.345139 0)
(0.0756626 -0.351501 0)
(0.0538413 -0.301229 0)
(0.0179634 -0.148832 0)
(0.0123267 0.131924 0)
(0.0431775 0.291846 0)
(0.0717915 0.363426 0)
(0.0808775 0.37573 0)
(0.0699299 0.354587 0)
(0.0447756 0.317899 0)
(0.0114333 0.276446 0)
(-0.0253504 0.235993 0)
(-0.0622991 0.199206 0)
(-0.0974055 0.167016 0)
(-0.129593 0.139455 0)
(-0.158402 0.116146 0)
(-0.183749 0.0965554 0)
(-0.205765 0.080127 0)
(-0.224689 0.0663378 0)
(-0.2408 0.0547232 0)
(-0.254382 0.0448815 0)
(-0.265701 0.0364708 0)
(-0.274991 0.0292032 0)
(-0.282455 0.0228366 0)
(-0.288261 0.0171677 0)
(-0.292544 0.0120243 0)
(-0.295405 0.00725915 0)
(-0.296919 0.00274351 0)
(-0.297133 -0.00163817 0)
(-0.296069 -0.00599358 0)
(-0.293724 -0.0104274 0)
(-0.290071 -0.0150461 0)
(-0.285061 -0.0199624 0)
(-0.27862 -0.0253002 0)
(-0.270648 -0.0311988 0)
(-0.261023 -0.0378185 0)
(-0.249599 -0.0453448 0)
(-0.236203 -0.0539939 0)
(-0.220647 -0.0640177 0)
(-0.202732 -0.0757075 0)
(-0.18226 -0.0893968 0)
(-0.159063 -0.10546 0)
(-0.133039 -0.124302 0)
(-0.104218 -0.146332 0)
(-0.0728541 -0.171906 0)
(-0.0395675 -0.201207 0)
(-0.00553944 -0.234022 0)
(0.0272417 -0.269331 0)
(0.0557353 -0.304599 0)
(0.0757436 -0.33464 0)
(0.0821488 -0.349995 0)
(0.0702169 -0.335059 0)
(0.0411598 -0.26712 0)
(0.0115797 -0.120136 0)
(0.00826581 0.110112 0)
(0.0335859 0.259179 0)
(0.0643017 0.340171 0)
(0.0838001 0.36903 0)
(0.0878926 0.363687 0)
(0.0786957 0.338759 0)
(0.0599265 0.304511 0)
(0.0352981 0.267434 0)
(0.00787886 0.231258 0)
(-0.0200962 0.197885 0)
(-0.0471495 0.168101 0)
(-0.0723931 0.142054 0)
(-0.0953594 0.119554 0)
(-0.115861 0.100248 0)
(-0.133887 0.0837296 0)
(-0.149527 0.069586 0)
(-0.162925 0.0574318 0)
(-0.174241 0.0469188 0)
(-0.183639 0.0377401 0)
(-0.191267 0.0296285 0)
(-0.197258 0.022353 0)
(-0.201721 0.0157137 0)
(-0.204743 0.00953641 0)
(-0.206388 0.00366666 0)
(-0.206699 -0.00203547 0)
(-0.205697 -0.00770092 0)
(-0.203382 -0.0134568 0)
(-0.199738 -0.0194315 0)
(-0.194725 -0.0257593 0)
(-0.188288 -0.0325852 0)
(-0.180354 -0.0400694 0)
(-0.170836 -0.0483912 0)
(-0.159634 -0.0577528 0)
(-0.146641 -0.0683816 0)
(-0.131753 -0.0805317 0)
(-0.114882 -0.0944816 0)
(-0.0959772 -0.110528 0)
(-0.0750538 -0.128971 0)
(-0.0522416 -0.150087 0)
(-0.0278463 -0.174074 0)
(-0.00243568 -0.200966 0)
(0.0230516 -0.23048 0)
(0.0471809 -0.261764 0)
(0.0679084 -0.29301 0)
(0.0825576 -0.320875 0)
(0.0880235 -0.339704 0)
(0.0813436 -0.340673 0)
(0.061061 -0.311205 0)
(0.0313797 -0.235626 0)
(0.00764 -0.0996346 0)
(0.0058179 0.0936902 0)
(0.0265864 0.229901 0)
(0.0561261 0.313483 0)
(0.0803464 0.352872 0)
(0.0937581 0.360011 0)
(0.0960968 0.346096 0)
(0.0891261 0.320025 0)
(0.0753298 0.288158 0)
(0.0571778 0.254671 0)
(0.0367453 0.222084 0)
(0.0156044 0.191773 0)
(-0.00514283 0.164365 0)
(-0.0247781 0.140027 0)
(-0.0428727 0.118655 0)
(-0.0592034 0.100003 0)
(-0.0736848 0.0837592 0)
(-0.0863191 0.0695936 0)
(-0.0971592 0.0571835 0)
(-0.106284 0.0462284 0)
(-0.113781 0.0364556 0)
(-0.119736 0.0276213 0)
(-0.124226 0.0195092 0)
(-0.127316 0.0119266 0)
(-0.129056 0.00470049 0)
(-0.129481 -0.00232796 0)
(-0.128611 -0.00930784 0)
(-0.12645 -0.0163838 0)
(-0.12299 -0.0237008 0)
(-0.118207 -0.0314087 0)
(-0.112069 -0.0396664 0)
(-0.104533 -0.0486456 0)
(-0.0955507 -0.0585333 0)
(-0.0850762 -0.0695337 0)
(-0.0730705 -0.0818674 0)
(-0.0595152 -0.0957683 0)
(-0.0444285 -0.111475 0)
(-0.0278887 -0.129218 0)
(-0.0100655 -0.149191 0)
(0.00873809 -0.17151 0)
(0.0280331 -0.196149 0)
(0.0470818 -0.222832 0)
(0.0648326 -0.250881 0)
(0.0798672 -0.278983 0)
(0.0903971 -0.304874 0)
(0.0943804 -0.324933 0)
(0.0898609 -0.333736 0)
(0.0755823 -0.323736 0)
(0.0520663 -0.285358 0)
(0.024403 -0.208158 0)
(0.0052963 -0.0844727 0)
(0.00431192 0.0808816 0)
(0.0215182 0.204264 0)
(0.0486387 0.286487 0)
(0.0742927 0.331846 0)
(0.0929397 0.348109 0)
(0.103019 0.343536 0)
(0.104899 0.325411 0)
(0.0999639 0.29948 0)
(0.0899774 0.269907 0)
(0.076651 0.2395 0)
(0.0614414 0.210015 0)
(0.0454891 0.182452 0)
(0.0296313 0.157292 0)
(0.0144482 0.134678 0)
(0.000317479 0.114544 0)
(-0.0125339 0.0967025 0)
(-0.0239854 0.0809063 0)
(-0.0339886 0.0668836 0)
(-0.0425406 0.0543617 0)
(-0.0496654 0.0430805 0)
(-0.0553998 0.0327984 0)
(-0.059785 0.0232943 0)
(-0.0628598 0.0143672 0)
(-0.0646577 0.00583293 0)
(-0.0652043 -0.00247902 0)
(-0.0645163 -0.0107298 0)
(-0.0626018 -0.0190756 0)
(-0.0594609 -0.0276719 0)
(-0.0550872 -0.0366772 0)
(-0.0494701 -0.0462566 0)
(-0.0425982 -0.0565841 0)
(-0.0344643 -0.0678437 0)
(-0.0250722 -0.0802288 0)
(-0.0144461 -0.0939384 0)
(-0.00264349 -0.10917 0)
(0.0102282 -0.126105 0)
(0.0239892 -0.14489 0)
(0.0383605 -0.165601 0)
(0.05293 -0.188195 0)
(0.0671164 -0.212437 0)
(0.0801328 -0.237801 0)
(0.0909621 -0.263323 0)
(0.0983617 -0.287417 0)
(0.100929 -0.307647 0)
(0.0972841 -0.320478 0)
(0.0864232 -0.321076 0)
(0.0682405 -0.303303 0)
(0.044263 -0.260099 0)
(0.0194424 -0.184615 0)
(0.00387031 -0.0728363 0)
(0.00333616 0.0705721 0)
(0.0177542 0.181968 0)
(0.0421167 0.260711 0)
(0.0673837 0.308845 0)
(0.0885138 0.331361 0)
(0.103378 0.334215 0)
(0.111463 0.323167 0)
(0.11331 0.30315 0)
(0.110024 0.278035 0)
(0.102889 0.250656 0)
(0.0931321 0.222959 0)
(0.0818128 0.196192 0)
(0.0697818 0.171078 0)
(0.0576872 0.147975 0)
(0.0459999 0.126988 0)
(0.0350466 0.108064 0)
(0.0250428 0.0910492 0)
(0.0161214 0.0757393 0)
(0.00835729 0.0619056 0)
(0.00178556 0.0493151 0)
(-0.00358389 0.0377413 0)
(-0.00775612 0.0269698 0)
(-0.0107439 0.0168002 0)
(-0.0125624 0.00704596 0)
(-0.0132268 -0.0024682 0)
(-0.0127499 -0.0119089 0)
(-0.0111423 -0.0214375 0)
(-0.00841249 -0.0312134 0)
(-0.00456892 -0.0413974 0)
(0.000377686 -0.0521532 0)
(0.00641022 -0.063649 0)
(0.0134998 -0.0760569 0)
(0.0215984 -0.0895496 0)
(0.0306293 -0.104294 0)
(0.040475 -0.120442 0)
(0.0509616 -0.138109 0)
(0.0618404 -0.157354 0)
(0.0727671 -0.178139 0)
(0.0832794 -0.200279 0)
(0.0927765 -0.223373 0)
(0.100507 -0.246711 0)
(0.105574 -0.269158 0)
(0.10698 -0.289017 0)
(0.103723 -0.303881 0)
(0.0949889 -0.310505 0)
(0.0804686 -0.304771 0)
(0.0607405 -0.281832 0)
(0.037724 -0.236563 0)
(0.0158237 -0.164496 0)
(0.00295725 -0.0636036 0)
(0.00266325 0.0620816 0)
(0.0148557 0.162608 0)
(0.0364891 0.236847 0)
(0.0603972 0.285632 0)
(0.0822188 0.312141 0)
(0.0996887 0.320624 0)
(0.111805 0.315534 0)
(0.11852 0.30097 0)
(0.120407 0.280368 0)
(0.118342 0.256422 0)
(0.113282 0.231112 0)
(0.106136 0.205817 0)
(0.0976981 0.181428 0)
(0.0886172 0.158467 0)
(0.0794036 0.137188 0)
(0.0704419 0.117662 0)
(0.0620118 0.099833 0)
(0.0543096 0.0835699 0)
(0.0474675 0.0686981 0)
(0.0415703 0.0550221 0)
(0.0366692 0.0423405 0)
(0.032792 0.0304548 0)
(0.0299507 0.0191741 0)
(0.0281475 0.00831659 0)
(0.0273783 -0.00229068 0)
(0.0276347 -0.0128134 0)
(0.028905 -0.023412 0)
(0.0311737 -0.0342441 0)
(0.0344199 -0.0454662 0)
(0.0386148 -0.0572345 0)
(0.0437174 -0.0697051 0)
(0.0496694 -0.083031 0)
(0.0563879 -0.097358 0)
(0.0637567 -0.112815 0)
(0.0716157 -0.129504 0)
(0.0797481 -0.147474 0)
(0.087867 -0.166702 0)
(0.0956012 -0.18705 0)
(0.102483 -0.208219 0)
(0.107944 -0.229686 0)
(0.111315 -0.250628 0)
(0.111862 -0.269835 0)
(0.108837 -0.285614 0)
(0.10159 -0.295711 0)
(0.0897447 -0.297265 0)
(0.073447 -0.286859 0)
(0.0536287 -0.260727 0)
(0.0322582 -0.215173 0)
(0.0130878 -0.147277 0)
(0.00233592 -0.0560931 0)
(0.00217045 0.054985 0)
(0.0125414 0.145806 0)
(0.0316085 0.215166 0)
(0.0536683 0.26325 0)
(0.0750458 0.292071 0)
(0.0935709 0.304644 0)
(0.108021 0.30437 0)
(0.117979 0.294582 0)
(0.123621 0.278243 0)
(0.125476 0.257805 0)
(0.12424 0.235183 0)
(0.120647 0.211788 0)
(0.115389 0.188607 0)
(0.109072 0.166276 0)
(0.102202 0.145168 0)
(0.0951876 0.125458 0)
(0.0883421 0.107183 0)
(0.0819031 0.0902847 0)
(0.076044 0.0746455 0)
(0.070888 0.0601137 0)
(0.0665193 0.04652 0)
(0.0629933 0.0336886 0)
(0.060344 0.021445 0)
(0.0585891 0.00961873 0)
(0.057735 -0.00195497 0)
(0.0577782 -0.0134351 0)
(0.0587068 -0.024976 0)
(0.0605005 -0.0367279 0)
(0.063129 -0.0488381 0)
(0.0665495 -0.0614504 0)
(0.0707029 -0.0747037 0)
(0.0755091 -0.0887279 0)
(0.0808607 -0.103638 0)
(0.0866151 -0.119524 0)
(0.0925868 -0.136436 0)
(0.0985373 -0.154365 0)
(0.104167 -0.173214 0)
(0.109106 -0.192765 0)
(0.112914 -0.212635 0)
(0.115083 -0.232224 0)
(0.115052 -0.250654 0)
(0.112249 -0.266709 0)
(0.106154 -0.278779 0)
(0.096398 -0.284823 0)
(0.0829133 -0.28238 0)
(0.0661169 -0.268663 0)
(0.0470794 -0.240765 0)
(0.0276455 -0.196018 0)
(0.0109434 -0.132508 0)
(0.00188736 -0.0498801 0)
(0.00179097 0.0490032 0)
(0.0106363 0.131242 0)
(0.0273394 0.195725 0)
(0.047335 0.2423 0)
(0.067571 0.27223 0)
(0.0860811 0.28765 0)
(0.101592 0.291145 0)
(0.113479 0.285392 0)
(0.121646 0.272892 0)
(0.126352 0.255821 0)
(0.128063 0.235956 0)
(0.127339 0.21468 0)
(0.124754 0.193012 0)
(0.120843 0.171659 0)
(0.116082 0.151076 0)
(0.110868 0.131525 0)
(0.105529 0.113119 0)
(0.100322 0.0958691 0)
(0.0954461 0.0797139 0)
(0.0910496 0.0645472 0)
(0.0872416 0.0502353 0)
(0.0840989 0.0366303 0)
(0.0816727 0.0235784 0)
(0.0799944 0.0109256 0)
(0.0790793 -0.00147965 0)
(0.0789288 -0.0137851 0)
(0.0795322 -0.0261344 0)
(0.0808663 -0.0386665 0)
(0.0828944 -0.0515154 0)
(0.0855642 -0.0648089 0)
(0.0888047 -0.0786656 0)
(0.0925217 -0.0931901 0)
(0.0965928 -0.108466 0)
(0.100862 -0.124545 0)
(0.105132 -0.14143 0)
(0.10916 -0.159059 0)
(0.112653 -0.177278 0)
(0.115264 -0.195807 0)
(0.116597 -0.214208 0)
(0.116218 -0.231839 0)
(0.113677 -0.247813 0)
(0.108552 -0.260958 0)
(0.100509 -0.269786 0)
(0.0893891 -0.272491 0)
(0.0753255 -0.266989 0)
(0.0588752 -0.251021 0)
(0.0411188 -0.22235 0)
(0.0237037 -0.179039 0)
(0.00920867 -0.119831 0)
(0.00154677 -0.0446872 0)
(0.00148746 0.0439416 0)
(0.00903147 0.11865 0)
(0.0235763 0.178478 0)
(0.0414496 0.223105 0)
(0.0601373 0.253312 0)
(0.0779166 0.270617 0)
(0.0935623 0.276982 0)
(0.106358 0.274542 0)
(0.116036 0.265385 0)
(0.122656 0.251402 0)
(0.1265 0.234207 0)
(0.127971 0.215107 0)
(0.127523 0.19511 0)
(0.12561 0.174953 0)
(0.122656 0.155147 0)
(0.119033 0.136013 0)
(0.115059 0.117731 0)
(0.110997 0.100369 0)
(0.107055 0.0839189 0)
(0.103397 0.0683185 0)
(0.100148 0.0534707 0)
(0.0973983 0.0392575 0)
(0.0952128 0.0255494 0)
(0.093633 0.012212 0)
(0.0926819 -0.00088961 0)
(0.0923654 -0.0138884 0)
(0.0926747 -0.0269139 0)
(0.0935857 -0.0400906 0)
(0.0950583 -0.0535368 0)
(0.0970352 -0.0673618 0)
(0.0994388 -0.0816626 0)
(0.102168 -0.0965179 0)
(0.105094 -0.111981 0)
(0.108057 -0.128067 0)
(0.110862 -0.144739 0)
(0.113272 -0.161892 0)
(0.115015 -0.179325 0)
(0.115778 -0.196718 0)
(0.115218 -0.213599 0)
(0.112978 -0.229316 0)
(0.108712 -0.243002 0)
(0.102122 -0.253556 0)
(0.0930202 -0.259631 0)
(0.0813929 -0.259651 0)
(0.0674928 -0.251864 0)
(0.0519288 -0.234447 0)
(0.0357203 -0.205669 0)
(0.0202961 -0.164116 0)
(0.00776989 -0.108956 0)
(0.00127785 -0.040323 0)
(0.00123812 0.039657 0)
(0.00765762 0.107806 0)
(0.0202416 0.163322 0)
(0.0360261 0.205812 0)
(0.0529514 0.235749 0)
(0.0695411 0.254216 0)
(0.0846713 0.262708 0)
(0.0976097 0.262927 0)
(0.107992 0.256604 0)
(0.115745 0.245365 0)
(0.121007 0.23065 0)
(0.124049 0.213665 0)
(0.125218 0.195379 0)
(0.124884 0.176531 0)
(0.123409 0.157657 0)
(0.12113 0.139124 0)
(0.118342 0.121157 0)
(0.115298 0.103875 0)
(0.112207 0.0873143 0)
(0.109237 0.0714547 0)
(0.106519 0.0562344 0)
(0.104154 0.0415652 0)
(0.102214 0.0273434 0)
(0.100748 0.0134561 0)
(0.099784 -0.000212515 0)
(0.0993332 -0.0137786 0)
(0.0993885 -0.0273553 0)
(0.0999265 -0.0410509 0)
(0.100907 -0.054966 0)
(0.10227 -0.0691907 0)
(0.103938 -0.0838 0)
(0.105808 -0.0988476 0)
(0.107752 -0.114358 0)
(0.109615 -0.130315 0)
(0.11121 -0.146649 0)
(0.11232 -0.163218 0)
(0.112697 -0.17979 0)
(0.11207 -0.196017 0)
(0.11015 -0.211417 0)
(0.106652 -0.225342 0)
(0.101319 -0.236967 0)
(0.0939546 -0.245277 0)
(0.0844753 -0.249065 0)
(0.0729629 -0.246969 0)
(0.0597301 -0.237519 0)
(0.0453821 -0.219238 0)
(0.030841 -0.19078 0)
(0.017323 -0.151101 0)
(0.006554 -0.0996505 0)
(0.00105933 -0.036649 0)
(0.00102956 0.0360381 0)
(0.00646891 0.0985149 0)
(0.0172774 0.150126 0)
(0.0310596 0.190457 0)
(0.0461359 0.219784 0)
(0.0612609 0.238888 0)
(0.0754363 0.248915 0)
(0.0879608 0.251226 0)
(0.0984292 0.247255 0)
(0.106685 0.238393 0)
(0.112762 0.225909 0)
(0.11683 0.210902 0)
(0.119138 0.19428 0)
(0.11998 0.176766 0)
(0.119658 0.158904 0)
(0.118463 0.141083 0)
(0.116662 0.123564 0)
(0.114488 0.106505 0)
(0.112141 0.0899811 0)
(0.109786 0.0740068 0)
(0.107554 0.0585537 0)
(0.10555 0.0435627 0)
(0.103848 0.0289554 0)
(0.102504 0.0146413 0)
(0.101548 0.000524264 0)
(0.100995 -0.0134935 0)
(0.10084 -0.027508 0)
(0.101062 -0.0416099 0)
(0.101623 -0.0558819 0)
(0.102464 -0.0703946 0)
(0.10351 -0.0852019 0)
(0.104661 -0.100334 0)
(0.105797 -0.11579 0)
(0.106772 -0.131528 0)
(0.107414 -0.147448 0)
(0.107529 -0.163384 0)
(0.1069 -0.17908 0)
(0.105295 -0.194176 0)
(0.102481 -0.208188 0)
(0.0982337 -0.220492 0)
(0.0923692 -0.230312 0)
(0.0847692 -0.236719 0)
(0.0754214 -0.238644 0)
(0.0644632 -0.234908 0)
(0.0522268 -0.224276 0)
(0.0392805 -0.205547 0)
(0.0264347 -0.177662 0)
(0.0147105 -0.139842 0)
(0.00551226 -0.0917217 0)
(0.000878054 -0.0335598 0)
(0.000852944 0.0329951 0)
(0.00543317 0.0906084 0)
(0.014638 0.138748 0)
(0.0265338 0.177006 0)
(0.0397575 0.205536 0)
(0.0532719 0.224907 0)
(0.0662113 0.236008 0)
(0.0779329 0.239937 0)
(0.0880282 0.237884 0)
(0.0962951 0.231037 0)
(0.102698 0.22051 0)
(0.107328 0.207294 0)
(0.110357 0.192233 0)
(0.11201 0.176014 0)
(0.112531 0.159177 0)
(0.112166 0.142122 0)
(0.111148 0.125134 0)
(0.109686 0.108397 0)
(0.107964 0.0920173 0)
(0.106138 0.0760418 0)
(0.104335 0.0604705 0)
(0.102656 0.0452711 0)
(0.101178 0.0303892 0)
(0.0999552 0.0157563 0)
(0.0990229 0.00129596 0)
(0.098397 -0.0130713 0)
(0.098076 -0.0274237 0)
(0.0980414 -0.0418348 0)
(0.0982576 -0.0563693 0)
(0.0986714 -0.0710794 0)
(0.0992113 -0.0859988 0)
(0.0997863 -0.101137 0)
(0.100285 -0.116471 0)
(0.100576 -0.131935 0)
(0.100507 -0.14741 0)
(0.0999079 -0.162708 0)
(0.0985932 -0.177561 0)
(0.0963715 -0.191603 0)
(0.0930549 -0.20436 0)
(0.0884747 -0.215236 0)
(0.0825024 -0.223508 0)
(0.0750757 -0.228333 0)
(0.0662287 -0.228762 0)
(0.0561247 -0.223775 0)
(0.0450887 -0.212329 0)
(0.0336333 -0.193436 0)
(0.0224552 -0.166254 0)
(0.0124015 -0.130192 0)
(0.00461032 -0.0850078 0)
(0.000725372 -0.0309726 0)
(0.00070206 0.0304535 0)
(0.00452614 0.0839367 0)
(0.0122851 0.129041 0)
(0.0224237 0.165383 0)
(0.033843 0.193037 0)
(0.0456895 0.212426 0)
(0.0572272 0.224253 0)
(0.0678859 0.22941 0)
(0.0772784 0.228896 0)
(0.0851848 0.223726 0)
(0.0915274 0.21488 0)
(0.0963394 0.203246 0)
(0.0997343 0.189602 0)
(0.101877 0.174595 0)
(0.102962 0.15875 0)
(0.10319 0.142468 0)
(0.102758 0.126046 0)
(0.101851 0.10969 0)
(0.100633 0.0935295 0)
(0.099244 0.0776365 0)
(0.0978038 0.0620361 0)
(0.0964077 0.04672 0)
(0.0951299 0.0316559 0)
(0.0940244 0.0167958 0)
(0.0931264 0.00208192 0)
(0.0924535 -0.0125473 0)
(0.0920069 -0.0271531 0)
(0.0917715 -0.0417923 0)
(0.0917161 -0.056513 0)
(0.0917933 -0.0713497 0)
(0.0919391 -0.0863185 0)
(0.0920724 -0.10141 0)
(0.0920947 -0.116583 0)
(0.0918903 -0.131752 0)
(0.0913277 -0.146782 0)
(0.0902618 -0.161473 0)
(0.0885387 -0.175547 0)
(0.0860026 -0.188642 0)
(0.0825061 -0.200295 0)
(0.0779238 -0.209943 0)
(0.0721701 -0.216916 0)
(0.0652205 -0.220448 0)
(0.057135 -0.219694 0)
(0.0480825 -0.213767 0)
(0.0383633 -0.201778 0)
(0.0284255 -0.182905 0)
(0.0188562 -0.156468 0)
(0.0103497 -0.12201 0)
(0.00382248 -0.0793717 0)
(0.000595186 -0.0288206 0)
(0.00057219 0.0283505 0)
(0.00372814 0.0783674 0)
(0.0101837 0.120865 0)
(0.0186972 0.155486 0)
(0.0283903 0.182262 0)
(0.0385696 0.201516 0)
(0.0486214 0.21381 0)
(0.0580537 0.219886 0)
(0.0665153 0.220586 0)
(0.0737889 0.21679 0)
(0.0797742 0.209358 0)
(0.0844669 0.19909 0)
(0.087935 0.186697 0)
(0.0902966 0.172789 0)
(0.0917002 0.157867 0)
(0.0923079 0.142328 0)
(0.0922832 0.126473 0)
(0.0917822 0.110523 0)
(0.0909472 0.0946255 0)
(0.0899036 0.0788713 0)
(0.0887582 0.0633071 0)
(0.0875985 0.047945 0)
(0.0864937 0.0327724 0)
(0.085495 0.0177596 0)
(0.0846369 0.00286645 0)
(0.0839378 -0.0119524 0)
(0.0834011 -0.0267423 0)
(0.0830154 -0.0415447 0)
(0.0827549 -0.0563921 0)
(0.0825789 -0.0713036 0)
(0.0824326 -0.0862794 0)
(0.082246 -0.101294 0)
(0.0819348 -0.116291 0)
(0.0814009 -0.13117 0)
(0.0805336 -0.145783 0)
(0.0792129 -0.159921 0)
(0.0773133 -0.173304 0)
(0.0747109 -0.185573 0)
(0.0712922 -0.196284 0)
(0.0669657 -0.204902 0)
(0.0616768 -0.210807 0)
(0.0554245 -0.213299 0)
(0.0482795 -0.211625 0)
(0.0404019 -0.205002 0)
(0.0320572 -0.192665 0)
(0.0236252 -0.173921 0)
(0.0155908 -0.14821 0)
(0.00851495 -0.11517 0)
(0.00312821 -0.0746972 0)
(0.000482907 -0.027049 0)
(0.000459528 0.0266333 0)
(0.00302218 0.073785 0)
(0.00830069 0.114085 0)
(0.0153159 0.147208 0)
(0.023375 0.173158 0)
(0.0319237 0.192189 0)
(0.0404604 0.204767 0)
(0.0485722 0.211516 0)
(0.0559526 0.213161 0)
(0.0623999 0.210469 0)
(0.0678068 0.204204 0)
(0.072146 0.195088 0)
(0.0754531 0.183774 0)
(0.0778092 0.170832 0)
(0.0793252 0.15674 0)
(0.080128 0.141886 0)
(0.0803497 0.126573 0)
(0.0801193 0.111027 0)
(0.079557 0.0954088 0)
(0.0787705 0.079826 0)
(0.077853 0.0643415 0)
(0.0768823 0.0489846 0)
(0.0759206 0.0337595 0)
(0.0750149 0.0186525 0)
(0.0741978 0.00363888 0)
(0.0734879 -0.0113119 0)
(0.0728905 -0.0262313 0)
(0.072398 -0.0411468 0)
(0.07199 -0.0560773 0)
(0.0716337 -0.0710284 0)
(0.0712839 -0.0859866 0)
(0.0708831 -0.100914 0)
(0.0703617 -0.115739 0)
(0.0696394 -0.130353 0)
(0.0686262 -0.144596 0)
(0.0672256 -0.158254 0)
(0.0653381 -0.171047 0)
(0.0628675 -0.182623 0)
(0.0597278 -0.192552 0)
(0.0558535 -0.20033 0)
(0.0512112 -0.205376 0)
(0.0458122 -0.207051 0)
(0.0397268 -0.204672 0)
(0.033097 -0.197543 0)
(0.0261467 -0.184995 0)
(0.0191881 -0.166433 0)
(0.0126115 -0.141384 0)
(0.00686113 -0.109557 0)
(0.0025102 -0.0708862 0)
(0.000384874 -0.0256135 0)
(0.000360851 0.0252576 0)
(0.00239297 0.0700894 0)
(0.0066039 0.108581 0)
(0.012237 0.140438 0)
(0.0187568 0.16565 0)
(0.0257301 0.184425 0)
(0.0327575 0.19716 0)
(0.0395026 0.204393 0)
(0.0457082 0.206759 0)
(0.0511968 0.204936 0)
(0.0558651 0.199613 0)
(0.0596743 0.191445 0)
(0.0626378 0.181036 0)
(0.0648089 0.168919 0)
(0.0662676 0.155549 0)
(0.0671104 0.141304 0)
(0.0674409 0.126483 0)
(0.0673625 0.111317 0)
(0.0669737 0.095975 0)
(0.0663639 0.0805758 0)
(0.065612 0.0651956 0)
(0.0647844 0.0498777 0)
(0.0639355 0.0346399 0)
(0.0631069 0.0194824 0)
(0.0623284 0.00439327 0)
(0.061618 -0.0106454 0)
(0.0609826 -0.0256528 0)
(0.0604183 -0.0406447 0)
(0.0599106 -0.0556285 0)
(0.0594347 -0.0705983 0)
(0.0589555 -0.0855296 0)
(0.0584281 -0.100373 0)
(0.0577982 -0.115048 0)
(0.057003 -0.129436 0)
(0.0559726 -0.143371 0)
(0.0546321 -0.156635 0)
(0.0529057 -0.168948 0)
(0.0507206 -0.179965 0)
(0.0480133 -0.189272 0)
(0.0447375 -0.196387 0)
(0.0408731 -0.200766 0)
(0.0364356 -0.201815 0)
(0.0314869 -0.198909 0)
(0.0261441 -0.19142 0)
(0.0205869 -0.178752 0)
(0.0150611 -0.160381 0)
(0.00986991 -0.135903 0)
(0.00535461 -0.105077 0)
(0.00195324 -0.0678581 0)
(0.000298025 -0.0244781 0)
(0.00027333 0.0241871 0)
(0.00182632 0.0671967 0)
(0.00506159 0.104249 0)
(0.00941407 0.135075 0)
(0.0144837 0.159661 0)
(0.0199434 0.178184 0)
(0.0254866 0.190993 0)
(0.0308501 0.198565 0)
(0.0358274 0.201467 0)
(0.0402707 0.200312 0)
(0.0440882 0.195727 0)
(0.047238 0.188316 0)
(0.04972 0.178641 0)
(0.0515664 0.167204 0)
(0.0528329 0.15444 0)
(0.0535898 0.140714 0)
(0.0539152 0.126322 0)
(0.0538891 0.111495 0)
(0.0535887 0.0964081 0)
(0.0530855 0.0811882 0)
(0.0524435 0.0659214 0)
(0.0517173 0.0506613 0)
(0.0509523 0.0354371 0)
(0.0501841 0.0202596 0)
(0.049439 0.00512773 0)
(0.0487339 -0.00996636 0)
(0.0480769 -0.025032 0)
(0.0474678 -0.0400752 0)
(0.0468976 -0.0550941 0)
(0.0463498 -0.0700738 0)
(0.0457996 -0.0849807 0)
(0.045215 -0.0997573 0)
(0.0445566 -0.114315 0)
(0.0437788 -0.128528 0)
(0.0428308 -0.142226 0)
(0.0416583 -0.155189 0)
(0.0402062 -0.167137 0)
(0.0384219 -0.177732 0)
(0.0362604 -0.18657 0)
(0.0336892 -0.193191 0)
(0.0306954 -0.197075 0)
(0.0272929 -0.197665 0)
(0.0235294 -0.194379 0)
(0.0194931 -0.186641 0)
(0.0153178 -0.173909 0)
(0.011185 -0.155712 0)
(0.00731707 -0.131693 0)
(0.00396342 -0.101648 0)
(0.0014435 -0.065548 0)
(0.000219703 -0.0236145 0)
(0.000194428 0.0233925 0)
(0.00130889 0.065038 0)
(0.00364258 0.101 0)
(0.00679872 0.131031 0)
(0.0104959 0.155117 0)
(0.0145015 0.17342 0)
(0.0185938 0.186253 0)
(0.022579 0.194052 0)
(0.0263014 0.197338 0)
(0.0296459 0.196676 0)
(0.0325374 0.192646 0)
(0.034937 0.185814 0)
(0.036837 0.176708 0)
(0.0382547 0.165807 0)
(0.0392259 0.153527 0)
(0.039799 0.140223 0)
(0.0400294 0.126185 0)
(0.0399753 0.111644 0)
(0.0396939 0.0967791 0)
(0.0392393 0.0817214 0)
(0.0386602 0.0665642 0)
(0.0379992 0.0513691 0)
(0.0372924 0.0361732 0)
(0.0365687 0.0209957 0)
(0.0358502 0.00584351 0)
(0.0351524 -0.0092834 0)
(0.0344844 -0.0243868 0)
(0.033849 -0.0394656 0)
(0.0332432 -0.0545108 0)
(0.0326583 -0.0695007 0)
(0.0320801 -0.0843953 0)
(0.0314892 -0.0991307 0)
(0.0308611 -0.113613 0)
(0.0301669 -0.127711 0)
(0.0293741 -0.141251 0)
(0.0284475 -0.154011 0)
(0.0273511 -0.165712 0)
(0.0260502 -0.17602 0)
(0.0245144 -0.18454 0)
(0.0227216 -0.190823 0)
(0.020662 -0.19437 0)
(0.0183432 -0.194649 0)
(0.0157953 -0.191108 0)
(0.0130748 -0.183207 0)
(0.0102688 -0.170441 0)
(0.00749618 -0.152377 0)
(0.00490379 -0.128694 0)
(0.00265679 -0.0992083 0)
(0.000968139 -0.0639067 0)
(0.00014753 -0.0230014 0)
(0.000121822 0.0228516 0)
(0.000828015 0.0635601 0)
(0.00231623 0.0987639 0)
(0.00434142 0.128233 0)
(0.00672883 0.151956 0)
(0.00933145 0.170085 0)
(0.0120063 0.182915 0)
(0.0146253 0.190857 0)
(0.0170832 0.1944 0)
(0.0192991 0.194076 0)
(0.0212176 0.190436 0)
(0.0228069 0.184017 0)
(0.0240562 0.175323 0)
(0.024972 0.164815 0)
(0.0255742 0.152896 0)
(0.0258921 0.139911 0)
(0.0259608 0.126146 0)
(0.0258185 0.111831 0)
(0.0255034 0.0971445 0)
(0.0250523 0.0822224 0)
(0.0244993 0.0671617 0)
(0.0238748 0.0520293 0)
(0.0232049 0.0368678 0)
(0.0225116 0.0217019 0)
(0.0218125 0.00654405 0)
(0.0211212 -0.00860052 0)
(0.0204473 -0.0237286 0)
(0.0197967 -0.0388341 0)
(0.0191721 -0.0539036 0)
(0.0185725 -0.068911 0)
(0.0179942 -0.0838119 0)
(0.0174302 -0.0985386 0)
(0.0168707 -0.112993 0)
(0.0163033 -0.127042 0)
(0.0157131 -0.140508 0)
(0.0150833 -0.153166 0)
(0.0143956 -0.16474 0)
(0.0136315 -0.174895 0)
(0.0127734 -0.183242 0)
(0.0118069 -0.189338 0)
(0.0107225 -0.192697 0)
(0.00951911 -0.192798 0)
(0.00820624 -0.18911 0)
(0.00680736 -0.181114 0)
(0.00536224 -0.168328 0)
(0.00392863 -0.150344 0)
(0.00258074 -0.126862 0)
(0.00140481 -0.0977154 0)
(0.000514973 -0.0628997 0)
(7.93253e-05 -0.022624 0)
(5.33531e-05 0.0225486 0)
(0.000371552 0.0627245 0)
(0.00105252 0.0974895 0)
(0.00199229 0.126626 0)
(0.00311494 0.150126 0)
(0.00435335 0.168141 0)
(0.00563874 0.180958 0)
(0.00690642 0.188975 0)
(0.0081001 0.192664 0)
(0.00917407 0.192542 0)
(0.0100943 0.189138 0)
(0.0108385 0.182975 0)
(0.0113955 0.174543 0)
(0.0117638 0.164289 0)
(0.0119499 0.152607 0)
(0.0119663 0.139836 0)
(0.0118295 0.126259 0)
(0.0115587 0.112102 0)
(0.0111741 0.0975455 0)
(0.010696 0.0827257 0)
(0.0101436 0.067742 0)
(0.00953499 0.0526638 0)
(0.00888643 0.0375366 0)
(0.00821251 0.0223883 0)
(0.00752611 0.00723399 0)
(0.00683852 -0.00791814 0)