/*--------------------------------*- C++ -*----------------------------------*\
  =========                 |
  \\      /  F ield         | OpenFOAM: The Open Source CFD Toolbox
   \\    /   O peration     | Website:  https://openfoam.org
    \\  /    A nd           | Version:  7
     \\/     M anipulation  |
\*---------------------------------------------------------------------------*/
FoamFile
{
    version     2.0;
    format      ascii;
    class       volScalarField;
    location    "0.0646";
    object      p;
}
// * * * * * * * * * * * * * * * * * * * * * * * * * * * * * * * * * * * * * //

dimensions      [0 2 -2 0 0 0 0];

internalField   nonuniform List<scalar> 
2500
(
3.32484e-05
6.38536
9.05062
10.1472
10.7409
11.0918
11.3073
11.4491
11.5486
11.6218
11.6777
11.7218
11.7575
11.7875
11.8133
11.8362
11.857
11.8765
11.8952
11.9134
11.9314
11.9494
11.9677
11.9864
12.0056
12.0254
12.0461
12.0677
12.0903
12.1143
12.1398
12.1672
12.1967
12.229
12.2645
12.3041
12.3487
12.3998
12.4592
12.5294
12.6143
12.7196
12.8547
13.0361
13.2957
13.6975
14.3582
15.5494
18.3307
24.8402
4.86798
7.46785
8.88612
9.77051
10.3752
10.7829
11.059
11.2522
11.3918
11.4957
11.5752
11.6377
11.6882
11.7299
11.7653
11.7961
11.8237
11.8488
11.8723
11.8947
11.9164
11.9378
11.959
11.9805
12.0024
12.0248
12.048
12.0723
12.0978
12.1248
12.1537
12.1848
12.2187
12.256
12.2975
12.3442
12.3976
12.4594
12.5323
12.6196
12.7266
12.8609
13.0341
13.2648
13.5832
14.0398
14.7042
15.661
17.1649
19.8823
7.70299
8.46696
9.21077
9.83515
10.3227
10.6861
10.954
11.1532
11.3035
11.4189
11.5091
11.5811
11.6397
11.6885
11.73
11.7661
11.7982
11.8273
11.8543
11.8797
11.9042
11.928
11.9516
11.9752
11.9991
12.0235
12.0487
12.075
12.1026
12.1318
12.1631
12.1969
12.2339
12.2746
12.32
12.3714
12.4301
12.4981
12.5782
12.674
12.7905
12.9349
13.1172
13.3518
13.6589
14.0663
14.6038
15.2821
16.0803
16.9092
9.11066
9.28844
9.66865
10.071
10.4216
10.7085
10.9377
11.119
11.2624
11.3767
11.4687
11.5438
11.606
11.6585
11.7035
11.7429
11.778
11.8099
11.8394
11.8671
11.8937
11.9195
11.9449
11.9702
11.9957
12.0218
12.0485
12.0764
12.1056
12.1365
12.1696
12.2054
12.2444
12.2874
12.3353
12.3893
12.4508
12.5218
12.6046
12.7025
12.8197
12.9615
13.1351
13.3491
13.6137
13.9387
14.3294
14.7718
15.1874
15.396
9.92066
9.90134
10.0786
10.3236
10.5643
10.7803
10.9659
11.1215
11.2505
11.3573
11.4459
11.5201
11.5828
11.6366
11.6833
11.7246
11.7616
11.7954
11.8268
11.8563
11.8845
11.9119
11.9388
11.9655
11.9924
12.0198
12.0479
12.077
12.1076
12.1398
12.1743
12.2115
12.2519
12.2964
12.3457
12.401
12.4637
12.5352
12.6178
12.7139
12.8266
12.9595
13.1167
13.3024
13.5195
13.768
14.0404
14.3144
14.514
14.5072
10.4296
10.3459
10.4163
10.5597
10.7201
10.8775
11.0224
11.1507
11.2619
11.3574
11.4392
11.5094
11.5702
11.6232
11.67
11.7118
11.7497
11.7845
11.817
11.8477
11.8771
11.9056
11.9336
11.9615
11.9894
12.0178
12.047
12.0771
12.1087
12.1419
12.1773
12.2154
12.2566
12.3018
12.3516
12.407
12.4692
12.5395
12.6195
12.7109
12.8158
12.9361
13.0737
13.2295
13.4023
13.587
13.7725
13.9366
14.0202
13.9382
10.7681
10.6722
10.6892
10.7694
10.8735
10.9851
11.095
11.1975
11.2903
11.373
11.446
11.5104
11.5673
11.618
11.6635
11.7047
11.7425
11.7775
11.8104
11.8417
11.8717
11.901
11.9297
11.9584
11.9871
12.0163
12.0461
12.077
12.1091
12.143
12.1789
12.2174
12.2589
12.304
12.3534
12.408
12.4686
12.5362
12.6119
12.6968
12.792
12.8982
13.0157
13.1433
13.2777
13.4123
13.536
13.631
13.6551
13.5551
11.008
10.9176
10.9087
10.9502
11.0156
11.093
11.1744
11.2544
11.33
11.3997
11.4632
11.5207
11.5728
11.6201
11.6632
11.7029
11.7398
11.7743
11.807
11.8383
11.8686
11.8982
11.9274
11.9564
11.9856
12.0152
12.0455
12.0768
12.1093
12.1434
12.1795
12.2179
12.2592
12.3037
12.3521
12.4051
12.4631
12.5271
12.5975
12.675
12.7598
12.852
12.9505
13.0532
13.1562
13.2528
13.3335
13.3854
13.3796
13.2821
11.188
11.1073
11.0861
11.1041
11.1432
11.1955
11.2547
11.3159
11.3762
11.4339
11.488
11.5383
11.585
11.6282
11.6684
11.7059
11.7412
11.7747
11.8068
11.8377
11.8678
11.8973
11.9265
11.9557
11.9851
12.0149
12.0454
12.0768
12.1094
12.1435
12.1794
12.2174
12.258
12.3016
12.3485
12.3992
12.4543
12.514
12.5786
12.6484
12.7231
12.8019
12.8835
12.9653
13.0433
13.1115
13.1627
13.1878
13.1669
13.0779
11.3291
11.2579
11.2311
11.2347
11.2562
11.2904
11.3324
11.3784
11.4257
11.4726
11.5179
11.5612
11.6023
11.6412
11.678
11.713
11.7464
11.7784
11.8094
11.8396
11.8691
11.8983
11.9273
11.9564
11.9857
12.0154
12.0459
12.0772
12.1096
12.1434
12.1789
12.2163
12.2559
12.2981
12.3432
12.3914
12.4431
12.4983
12.5571
12.6193
12.6844
12.7512
12.8182
12.8827
12.9411
12.9884
13.0193
13.0275
12.9994
12.9192
11.4435
11.3802
11.3511
11.3459
11.3556
11.3766
11.4056
11.4395
11.476
11.5135
11.551
11.5878
11.6235
11.658
11.6913
11.7235
11.7546
11.785
11.8146
11.8437
11.8725
11.901
11.9296
11.9583
11.9873
12.0168
12.047
12.078
12.1101
12.1434
12.1783
12.2148
12.2533
12.2939
12.3369
12.3824
12.4305
12.4812
12.5343
12.5894
12.6457
12.702
12.7565
12.807
12.8501
12.8821
12.8989
12.8965
12.865
12.7928
11.5384
11.4815
11.4518
11.4411
11.4427
11.4543
11.4734
11.4978
11.5254
11.555
11.5856
11.6164
11.6471
11.6774
11.7073
11.7366
11.7654
11.7938
11.8219
11.8498
11.8776
11.9053
11.9332
11.9614
11.99
12.019
12.0488
12.0794
12.111
12.1437
12.1777
12.2132
12.2504
12.2893
12.3301
12.3728
12.4174
12.4637
12.5114
12.5599
12.6083
12.6555
12.6996
12.7387
12.7701
12.7907
12.7977
12.7885
12.7557
12.6902
11.6186
11.5666
11.537
11.5229
11.519
11.5238
11.5355
11.5524
11.5729
11.5959
11.6205
11.6461
11.6722
11.6986
11.7251
11.7516
11.778
11.8045
11.8309
11.8574
11.8841
11.9109
11.938
11.9655
11.9935
12.022
12.0513
12.0813
12.1122
12.1442
12.1773
12.2116
12.2474
12.2845
12.3231
12.3631
12.4043
12.4464
12.4891
12.5317
12.5732
12.6124
12.648
12.6779
12.7001
12.7123
12.7124
12.6989
12.6659
12.6058
11.687
11.6389
11.6097
11.5935
11.5858
11.5856
11.5917
11.6028
11.6175
11.6351
11.6547
11.6757
11.6978
11.7206
11.744
11.7678
11.7919
11.8164
11.8412
11.8663
11.8917
11.9175
11.9438
11.9705
11.9978
12.0257
12.0542
12.0836
12.1138
12.1449
12.1771
12.2102
12.2445
12.2799
12.3163
12.3536
12.3916
12.4298
12.468
12.5052
12.5407
12.5733
12.6017
12.6243
12.6394
12.6452
12.6404
12.6241
12.5914
12.5359
11.7459
11.7009
11.6722
11.6546
11.6442
11.6404
11.6423
11.6488
11.659
11.6721
11.6874
11.7045
11.723
11.7427
11.7632
11.7845
11.8065
11.8291
11.8522
11.8759
11.9001
11.9249
11.9502
11.9761
12.0026
12.0298
12.0576
12.0863
12.1157
12.146
12.1771
12.2091
12.2419
12.2755
12.3098
12.3446
12.3795
12.4143
12.4483
12.4809
12.5112
12.5381
12.5606
12.5773
12.5869
12.5879
12.5796
12.5614
12.5294
12.4777
11.7968
11.754
11.7259
11.7074
11.6952
11.6887
11.6874
11.6903
11.6969
11.7063
11.7182
11.732
11.7474
11.7643
11.7823
11.8013
11.8213
11.842
11.8636
11.8859
11.9089
11.9326
11.957
11.982
12.0077
12.0342
12.0613
12.0892
12.1178
12.1472
12.1773
12.2081
12.2395
12.2715
12.3038
12.3362
12.3684
12.4
12.4304
12.4589
12.4847
12.5069
12.5246
12.5365
12.5417
12.5392
12.5283
12.5089
12.4776
12.4292
11.8407
11.7997
11.7721
11.753
11.7394
11.731
11.7272
11.7274
11.7311
11.7376
11.7466
11.7576
11.7705
11.7848
11.8006
11.8176
11.8357
11.8549
11.875
11.8959
11.9178
11.9404
11.9639
11.9881
12.013
12.0387
12.0651
12.0923
12.1201
12.1486
12.1777
12.2074
12.2375
12.2679
12.2983
12.3286
12.3583
12.3871
12.4142
12.4392
12.4613
12.4796
12.4932
12.5014
12.5031
12.4978
12.4851
12.465
12.4344
12.3886
11.8784
11.8388
11.8115
11.7921
11.7776
11.7677
11.762
11.7601
11.7615
11.7657
11.7723
11.781
11.7917
11.804
11.8178
11.833
11.8495
11.8672
11.8859
11.9057
11.9264
11.9481
11.9707
11.994
12.0182
12.0432
12.0689
12.0953
12.1224
12.1501
12.1783
12.2069
12.2357
12.2647
12.2935
12.3218
12.3494
12.3756
12.4
12.422
12.4408
12.4558
12.4662
12.4713
12.4704
12.463
12.4489
12.4284
12.3985
12.355
11.9105
11.872
11.845
11.8254
11.8101
11.7991
11.7921
11.7885
11.7881
11.7904
11.7951
11.802
11.8108
11.8213
11.8335
11.8472
11.8622
11.8786
11.8961
11.9148
11.9346
11.9554
11.9771
11.9997
12.0232
12.0475
12.0726
12.0983
12.1246
12.1515
12.1789
12.2065
12.2343
12.2619
12.2893
12.3159
12.3415
12.3656
12.3876
12.4071
12.4233
12.4356
12.4433
12.446
12.443
12.434
12.4189
12.3981
12.3689
12.3272
11.9374
11.8997
11.873
11.8532
11.8374
11.8256
11.8175
11.8127
11.8109
11.8117
11.8149
11.8202
11.8275
11.8366
11.8474
11.8598
11.8736
11.8889
11.9054
11.9231
11.942
11.962
11.983
12.0049
12.0278
12.0515
12.0759
12.101
12.1267
12.1529
12.1795
12.2063
12.233
12.2596
12.2856
12.3108
12.3348
12.3571
12.3771
12.3945
12.4085
12.4186
12.4242
12.425
12.4204
12.4101
12.3943
12.3733
12.3447
12.3046
11.9594
11.9223
11.8959
11.8759
11.8598
11.8473
11.8384
11.8327
11.8298
11.8295
11.8315
11.8356
11.8417
11.8497
11.8593
11.8707
11.8835
11.8978
11.9134
11.9303
11.9485
11.9678
11.9882
12.0095
12.0318
12.055
12.0789
12.1035
12.1286
12.1542
12.1801
12.2061
12.2321
12.2577
12.2826
12.3066
12.3292
12.35
12.3684
12.3841
12.3963
12.4047
12.4087
12.4079
12.4021
12.3909
12.3746
12.3535
12.3254
12.2866
11.9768
11.9401
11.9138
11.8938
11.8774
11.8645
11.855
11.8486
11.8449
11.8437
11.8448
11.848
11.8532
11.8603
11.8691
11.8795
11.8916
11.9051
11.92
11.9363
11.9539
11.9726
11.9925
12.0133
12.0352
12.0579
12.0814
12.1055
12.1302
12.1553
12.1807
12.2061
12.2313
12.2562
12.2803
12.3033
12.3248
12.3444
12.3616
12.3759
12.3868
12.3938
12.3965
12.3946
12.3878
12.376
12.3593
12.3382
12.3106
12.2726
11.9897
11.9534
11.9272
11.9071
11.8905
11.8773
11.8674
11.8605
11.8562
11.8544
11.8549
11.8574
11.8619
11.8683
11.8765
11.8863
11.8978
11.9107
11.9251
11.9409
11.958
11.9763
11.9958
12.0163
12.0378
12.0601
12.0833
12.1071
12.1314
12.1562
12.1811
12.2061
12.2308
12.2551
12.2785
12.3008
12.3215
12.3402
12.3564
12.3698
12.3797
12.3857
12.3875
12.3848
12.3774
12.3651
12.3481
12.327
12.2997
12.2625
11.9982
11.9621
11.936
11.9159
11.8992
11.8858
11.8756
11.8684
11.8638
11.8615
11.8616
11.8637
11.8678
11.8737
11.8815
11.8909
11.9019
11.9145
11.9286
11.9441
11.9608
11.9789
11.998
12.0183
12.0396
12.0617
12.0846
12.1082
12.1323
12.1567
12.1814
12.2061
12.2305
12.2543
12.2773
12.2991
12.3193
12.3374
12.353
12.3657
12.375
12.3804
12.3816
12.3784
12.3705
12.3579
12.3408
12.3197
12.2926
12.2559
12.0025
11.9665
11.9404
11.9203
11.9035
11.89
11.8797
11.8723
11.8675
11.8651
11.8649
11.8669
11.8707
11.8765
11.884
11.8932
11.9041
11.9165
11.9303
11.9456
11.9623
11.9801
11.9992
12.0193
12.0404
12.0625
12.0853
12.1087
12.1327
12.157
12.1816
12.2061
12.2303
12.2539
12.2767
12.2983
12.3182
12.336
12.3513
12.3637
12.3726
12.3777
12.3787
12.3752
12.3671
12.3543
12.3372
12.3161
12.2891
12.2526
12.0025
11.9665
11.9404
11.9203
11.9035
11.89
11.8797
11.8723
11.8675
11.8651
11.8649
11.8669
11.8707
11.8765
11.884
11.8932
11.9041
11.9165
11.9303
11.9456
11.9623
11.9801
11.9992
12.0193
12.0404
12.0625
12.0853
12.1087
12.1327
12.157
12.1816
12.2061
12.2303
12.2539
12.2767
12.2983
12.3182
12.336
12.3513
12.3637
12.3726
12.3777
12.3787
12.3752
12.3671
12.3543
12.3372
12.3161
12.2891
12.2526
11.9982
11.9621
11.936
11.9159
11.8992
11.8858
11.8756
11.8684
11.8638
11.8616
11.8616
11.8637
11.8678
11.8737
11.8815
11.8909
11.9019
11.9145
11.9286
11.9441
11.9608
11.9789
11.998
12.0183
12.0396
12.0617
12.0846
12.1082
12.1323
12.1567
12.1814
12.2061
12.2305
12.2543
12.2773
12.2991
12.3193
12.3374
12.353
12.3657
12.375
12.3804
12.3816
12.3784
12.3705
12.3579
12.3408
12.3197
12.2926
12.2559
11.9897
11.9534
11.9272
11.9071
11.8905
11.8773
11.8674
11.8605
11.8562
11.8544
11.8549
11.8574
11.8619
11.8683
11.8765
11.8863
11.8978
11.9107
11.9251
11.9409
11.958
11.9763
11.9958
12.0163
12.0378
12.0601
12.0833
12.1071
12.1314
12.1562
12.1811
12.2061
12.2308
12.2551
12.2785
12.3008
12.3215
12.3402
12.3564
12.3698
12.3797
12.3857
12.3875
12.3848
12.3774
12.3651
12.3481
12.327
12.2997
12.2625
11.9768
11.9401
11.9138
11.8938
11.8774
11.8645
11.855
11.8486
11.8449
11.8437
11.8448
11.848
11.8532
11.8603
11.8691
11.8795
11.8916
11.9051
11.92
11.9363
11.9539
11.9726
11.9925
12.0133
12.0352
12.0579
12.0814
12.1055
12.1302
12.1553
12.1807
12.2061
12.2313
12.2562
12.2803
12.3033
12.3248
12.3444
12.3616
12.3759
12.3868
12.3938
12.3965
12.3946
12.3878
12.376
12.3593
12.3382
12.3106
12.2726
11.9594
11.9223
11.8959
11.8759
11.8598
11.8473
11.8384
11.8327
11.8298
11.8295
11.8315
11.8356
11.8417
11.8497
11.8593
11.8707
11.8835
11.8978
11.9134
11.9303
11.9485
11.9678
11.9882
12.0095
12.0318
12.055
12.0789
12.1035
12.1286
12.1542
12.1801
12.2061
12.2321
12.2577
12.2826
12.3066
12.3292
12.35
12.3684
12.3841
12.3963
12.4047
12.4087
12.4079
12.4021
12.3909
12.3746
12.3535
12.3254
12.2866
11.9374
11.8997
11.873
11.8532
11.8374
11.8256
11.8175
11.8127
11.8109
11.8117
11.8149
11.8202
11.8275
11.8366
11.8474
11.8598
11.8736
11.8889
11.9054
11.9231
11.942
11.962
11.983
12.0049
12.0278
12.0515
12.0759
12.101
12.1267
12.1529
12.1795
12.2063
12.233
12.2596
12.2856
12.3108
12.3348
12.3571
12.3771
12.3945
12.4085
12.4186
12.4242
12.425
12.4204
12.4101
12.3943
12.3733
12.3447
12.3046
11.9105
11.872
11.845
11.8254
11.8101
11.7991
11.7921
11.7885
11.7881
11.7904
11.7951
11.802
11.8108
11.8213
11.8335
11.8472
11.8622
11.8786
11.8961
11.9148
11.9346
11.9554
11.9771
11.9997
12.0232
12.0475
12.0726
12.0983
12.1246
12.1515
12.1789
12.2065
12.2343
12.2619
12.2893
12.3159
12.3415
12.3656
12.3876
12.4071
12.4233
12.4356
12.4433
12.446
12.443
12.434
12.4189
12.3981
12.3689
12.3272
11.8784
11.8388
11.8115
11.7921
11.7776
11.7677
11.762
11.7601
11.7615
11.7657
11.7723
11.781
11.7917
11.804
11.8178
11.833
11.8495
11.8672
11.8859
11.9057
11.9264
11.9481
11.9707
11.994
12.0182
12.0432
12.0689
12.0953
12.1224
12.1501
12.1783
12.2069
12.2357
12.2647
12.2935
12.3218
12.3494
12.3756
12.4
12.422
12.4408
12.4558
12.4662
12.4713
12.4704
12.463
12.4489
12.4284
12.3985
12.355
11.8407
11.7997
11.7721
11.753
11.7394
11.731
11.7272
11.7274
11.7311
11.7376
11.7466
11.7576
11.7705
11.7848
11.8006
11.8176
11.8357
11.8549
11.875
11.8959
11.9178
11.9404
11.9639
11.9881
12.013
12.0387
12.0651
12.0923
12.1201
12.1486
12.1777
12.2074
12.2375
12.2679
12.2983
12.3286
12.3583
12.3871
12.4142
12.4392
12.4613
12.4796
12.4932
12.5014
12.5031
12.4978
12.4851
12.465
12.4344
12.3886
11.7968
11.754
11.7259
11.7074
11.6952
11.6887
11.6874
11.6903
11.6969
11.7063
11.7182
11.732
11.7474
11.7643
11.7823
11.8013
11.8213
11.842
11.8636
11.8859
11.9089
11.9326
11.957
11.982
12.0077
12.0342
12.0613
12.0892
12.1178
12.1472
12.1773
12.2081
12.2395
12.2715
12.3038
12.3362
12.3684
12.4
12.4304
12.4589
12.4847
12.5069
12.5246
12.5365
12.5417
12.5392
12.5283
12.5089
12.4776
12.4292
11.7459
11.7009
11.6722
11.6546
11.6442
11.6404
11.6423
11.6488
11.659
11.6721
11.6874
11.7045
11.723
11.7427
11.7632
11.7845
11.8065
11.8291
11.8522
11.8759
11.9001
11.9249
11.9502
11.9761
12.0026
12.0298
12.0576
12.0863
12.1157
12.146
12.1771
12.2091
12.2419
12.2755
12.3098
12.3446
12.3795
12.4143
12.4483
12.4809
12.5112
12.5381
12.5606
12.5773
12.5869
12.5879
12.5796
12.5614
12.5294
12.4777
11.687
11.6389
11.6097
11.5935
11.5858
11.5856
11.5917
11.6028
11.6175
11.6351
11.6547
11.6757
11.6978
11.7206
11.744
11.7678
11.7919
11.8164
11.8412
11.8663
11.8917
11.9175
11.9438
11.9705
11.9978
12.0257
12.0542
12.0836
12.1138
12.1449
12.1771
12.2102
12.2445
12.2799
12.3163
12.3536
12.3916
12.4298
12.468
12.5052
12.5407
12.5733
12.6017
12.6243
12.6394
12.6452
12.6404
12.6241
12.5914
12.536
11.6186
11.5666
11.537
11.5229
11.519
11.5238
11.5355
11.5524
11.5729
11.5959
11.6205
11.6461
11.6722
11.6986
11.7251
11.7516
11.778
11.8045
11.8309
11.8574
11.8841
11.9109
11.938
11.9655
11.9935
12.022
12.0513
12.0813
12.1122
12.1442
12.1773
12.2116
12.2474
12.2845
12.3231
12.3631
12.4043
12.4464
12.4891
12.5317
12.5732
12.6124
12.648
12.6779
12.7001
12.7123
12.7124
12.6989
12.6659
12.6058
11.5384
11.4815
11.4518
11.4411
11.4427
11.4543
11.4734
11.4978
11.5254
11.555
11.5856
11.6164
11.6471
11.6774
11.7073
11.7366
11.7654
11.7938
11.8219
11.8498
11.8776
11.9053
11.9332
11.9614
11.99
12.0191
12.0488
12.0794
12.111
12.1437
12.1777
12.2132
12.2504
12.2893
12.3301
12.3728
12.4174
12.4637
12.5114
12.5599
12.6083
12.6555
12.6996
12.7387
12.7701
12.7907
12.7977
12.7885
12.7557
12.6902
11.4435
11.3802
11.3511
11.3459
11.3556
11.3766
11.4056
11.4395
11.476
11.5135
11.551
11.5878
11.6235
11.658
11.6913
11.7235
11.7547
11.785
11.8146
11.8437
11.8725
11.901
11.9296
11.9583
11.9873
12.0168
12.047
12.078
12.1101
12.1434
12.1783
12.2148
12.2533
12.2939
12.3369
12.3824
12.4305
12.4812
12.5343
12.5894
12.6457
12.702
12.7565
12.807
12.8501
12.8821
12.8989
12.8965
12.865
12.7928
11.3291
11.2579
11.2311
11.2347
11.2562
11.2904
11.3324
11.3784
11.4257
11.4726
11.5179
11.5612
11.6023
11.6412
11.678
11.713
11.7464
11.7784
11.8094
11.8396
11.8691
11.8983
11.9273
11.9564
11.9857
12.0154
12.0459
12.0772
12.1096
12.1434
12.1789
12.2163
12.2559
12.2981
12.3432
12.3914
12.4431
12.4983
12.5571
12.6193
12.6844
12.7512
12.8182
12.8827
12.9411
12.9884
13.0193
13.0275
12.9994
12.9192
11.188
11.1073
11.0861
11.1041
11.1432
11.1955
11.2547
11.3159
11.3762
11.4339
11.488
11.5383
11.585
11.6282
11.6684
11.7059
11.7412
11.7748
11.8068
11.8377
11.8678
11.8973
11.9265
11.9557
11.9851
12.0149
12.0454
12.0768
12.1094
12.1435
12.1794
12.2174
12.258
12.3016
12.3485
12.3992
12.4543
12.514
12.5786
12.6484
12.7231
12.8019
12.8835
12.9653
13.0433
13.1115
13.1627
13.1878
13.1669
13.0779
11.008
10.9176
10.9087
10.9502
11.0156
11.093
11.1744
11.2544
11.33
11.3997
11.4632
11.5207
11.5728
11.6201
11.6632
11.7029
11.7398
11.7743
11.807
11.8383
11.8686
11.8982
11.9274
11.9564
11.9856
12.0152
12.0455
12.0768
12.1093
12.1434
12.1795
12.2179
12.2592
12.3037
12.3521
12.4051
12.4632
12.5271
12.5975
12.675
12.7598
12.852
12.9505
13.0532
13.1562
13.2528
13.3335
13.3854
13.3796
13.2821
10.7681
10.6722
10.6893
10.7694
10.8735
10.9851
11.095
11.1975
11.2903
11.373
11.446
11.5104
11.5673
11.618
11.6635
11.7047
11.7425
11.7775
11.8104
11.8417
11.8717
11.901
11.9297
11.9584
11.9871
12.0163
12.0461
12.077
12.1091
12.143
12.1789
12.2174
12.2589
12.304
12.3534
12.408
12.4686
12.5362
12.6119
12.6968
12.792
12.8982
13.0157
13.1433
13.2777
13.4123
13.536
13.631
13.6551
13.5551
10.4296
10.3459
10.4163
10.5597
10.7201
10.8775
11.0224
11.1507
11.2619
11.3574
11.4392
11.5094
11.5702
11.6232
11.67
11.7118
11.7497
11.7845
11.817
11.8477
11.8771
11.9056
11.9336
11.9615
11.9894
12.0178
12.047
12.0771
12.1087
12.1419
12.1773
12.2154
12.2566
12.3018
12.3516
12.407
12.4692
12.5395
12.6195
12.7109
12.8158
12.9361
13.0737
13.2295
13.4023
13.587
13.7725
13.9366
14.0202
13.9382
9.92066
9.90134
10.0786
10.3236
10.5643
10.7803
10.9659
11.1215
11.2505
11.3573
11.4459
11.5201
11.5828
11.6366
11.6833
11.7246
11.7616
11.7954
11.8268
11.8563
11.8845
11.9119
11.9388
11.9655
11.9924
12.0198
12.0479
12.077
12.1076
12.1398
12.1743
12.2115
12.2519
12.2964
12.3457
12.401
12.4637
12.5352
12.6178
12.7139
12.8266
12.9595
13.1167
13.3024
13.5195
13.768
14.0404
14.3144
14.514
14.5072
9.11066
9.28844
9.66865
10.071
10.4216
10.7085
10.9377
11.119
11.2624
11.3767
11.4687
11.5438
11.606
11.6585
11.7035
11.7429
11.778
11.8099
11.8394
11.8671
11.8937
11.9195
11.9449
11.9702
11.9957
12.0218
12.0485
12.0764
12.1056
12.1365
12.1696
12.2054
12.2444
12.2874
12.3353
12.3893
12.4508
12.5218
12.6046
12.7025
12.8197
12.9615
13.1351
13.3491
13.6137
13.9387
14.3294
14.7718
15.1874
15.396
7.70299
8.46697
9.21077
9.83515
10.3227
10.6861
10.954
11.1532
11.3035
11.4189
11.5091
11.5811
11.6397
11.6885
11.73
11.7661
11.7982
11.8273
11.8543
11.8797
11.9042
11.928
11.9516
11.9752
11.9991
12.0235
12.0487
12.075
12.1026
12.1318
12.1631
12.1969
12.2339
12.2746
12.32
12.3714
12.4301
12.4981
12.5782
12.674
12.7905
12.9349
13.1172
13.3518
13.6589
14.0663
14.6038
15.2821
16.0803
16.9092
4.86799
7.46786
8.88613
9.77051
10.3752
10.7829
11.059
11.2522
11.3918
11.4957
11.5752
11.6377
11.6882
11.7299
11.7653
11.7961
11.8237
11.8488
11.8723
11.8947
11.9164
11.9378
11.959
11.9805
12.0024
12.0248
12.048
12.0723
12.0978
12.1248
12.1537
12.1848
12.2187
12.256
12.2975
12.3443
12.3976
12.4595
12.5323
12.6196
12.7266
12.8609
13.0341
13.2648
13.5832
14.0398
14.7042
15.661
17.1649
19.8823
5.20395e-05
6.38537
9.05062
10.1472
10.7409
11.0918
11.3073
11.4491
11.5486
11.6218
11.6777
11.7218
11.7575
11.7875
11.8133
11.8362
11.857
11.8765
11.8952
11.9134
11.9314
11.9494
11.9677
11.9864
12.0056
12.0254
12.0461
12.0677
12.0903
12.1143
12.1398
12.1672
12.1967
12.229
12.2645
12.3041
12.3487
12.3998
12.4592
12.5294
12.6143
12.7196
12.8547
13.0361
13.2957
13.6975
14.3582
15.5494
18.3307
24.8402
)
;

boundaryField
{
    movingWallTop
    {
        type            zeroGradient;
    }
    movingWallBottom
    {
        type            zeroGradient;
    }
    fixedWalls
    {
        type            zeroGradient;
    }
    frontAndBack
    {
        type            empty;
    }
}


// ************************************************************************* //
