/*--------------------------------*- C++ -*----------------------------------*\
  =========                 |
  \\      /  F ield         | OpenFOAM: The Open Source CFD Toolbox
   \\    /   O peration     | Website:  https://openfoam.org
    \\  /    A nd           | Version:  7
     \\/     M anipulation  |
\*---------------------------------------------------------------------------*/
FoamFile
{
    version     2.0;
    format      ascii;
    class       surfaceScalarField;
    location    "0.0646";
    object      phi;
}
// * * * * * * * * * * * * * * * * * * * * * * * * * * * * * * * * * * * * * //

dimensions      [0 3 -1 0 0 0 0];

internalField   nonuniform List<scalar> 
4900
(
5.45462e-06
-5.45464e-06
9.95312e-06
-4.4985e-06
1.26939e-05
-2.7408e-06
1.44122e-05
-1.7183e-06
1.55285e-05
-1.11628e-06
1.62817e-05
-7.53242e-07
1.68129e-05
-5.31174e-07
1.72036e-05
-3.9065e-07
1.75009e-05
-2.9735e-07
1.77333e-05
-2.32335e-07
1.79183e-05
-1.85078e-07
1.80678e-05
-1.49513e-07
1.81898e-05
-1.21993e-07
1.82901e-05
-1.00218e-07
1.83727e-05
-8.26744e-08
1.84411e-05
-6.83249e-08
1.84975e-05
-5.64298e-08
1.85439e-05
-4.64453e-08
1.85819e-05
-3.79596e-08
1.86125e-05
-3.06518e-08
1.86368e-05
-2.4265e-08
1.86554e-05
-1.8588e-08
1.86688e-05
-1.34419e-08
1.86775e-05
-8.67059e-09
1.86816e-05
-4.1336e-09
1.86813e-05
3.03442e-10
1.86766e-05
4.76308e-09
1.86672e-05
9.3803e-09
1.86529e-05
1.42895e-08
1.86333e-05
1.9641e-08
1.86077e-05
2.56059e-08
1.85753e-05
3.23863e-08
1.8535e-05
4.02287e-08
1.84856e-05
4.94435e-08
1.84252e-05
6.04317e-08
1.83514e-05
7.37271e-08
1.82614e-05
9.00594e-08
1.81509e-05
1.10457e-07
1.80145e-05
1.36421e-07
1.78443e-05
1.70224e-07
1.76288e-05
2.15469e-07
1.73507e-05
2.78146e-07
1.69819e-05
3.6872e-07
1.64757e-05
5.06271e-07
1.57495e-05
7.26169e-07
1.46575e-05
1.09196e-06
1.29451e-05
1.71239e-06
1.0162e-05
2.78318e-06
5.55723e-06
4.60473e-06
5.55723e-06
-1.19303e-07
-5.33534e-06
1.83182e-06
-6.44963e-06
4.41346e-06
-5.32243e-06
6.7298e-06
-4.03465e-06
8.61052e-06
-2.997e-06
1.00941e-05
-2.23678e-06
1.12601e-05
-1.69719e-06
1.21827e-05
-1.31323e-06
1.29202e-05
-1.03494e-06
1.35164e-05
-8.28457e-07
1.40029e-05
-6.716e-07
1.44032e-05
-5.49806e-07
1.47346e-05
-4.53392e-07
1.50102e-05
-3.75785e-07
1.52399e-05
-3.12404e-07
1.54315e-05
-2.59974e-07
1.55912e-05
-2.16091e-07
1.57237e-05
-1.78944e-07
1.58329e-05
-1.47135e-07
1.59218e-05
-1.19556e-07
1.59928e-05
-9.53111e-08
1.60479e-05
-7.3652e-08
1.60884e-05
-5.39396e-08
1.61153e-05
-3.56109e-08
1.61293e-05
-1.81538e-08
1.61307e-05
-1.0884e-09
1.61194e-05
1.60585e-08
1.60951e-05
3.37603e-08
1.60568e-05
5.25196e-08
1.60036e-05
7.28851e-08
1.59337e-05
9.54791e-08
1.58451e-05
1.21031e-07
1.57349e-05
1.50424e-07
1.55996e-05
1.84754e-07
1.54346e-05
2.25421e-07
1.5234e-05
2.74256e-07
1.49904e-05
3.33714e-07
1.46937e-05
4.07161e-07
1.43308e-05
4.9934e-07
1.38839e-05
6.17094e-07
1.33288e-05
7.70555e-07
1.26319e-05
9.75083e-07
1.17462e-05
1.25434e-06
1.06076e-05
1.64493e-06
9.13181e-06
2.20195e-06
7.22445e-06
2.99933e-06
4.83152e-06
4.10531e-06
2.121e-06
5.49371e-06
1.07188e-08
6.71501e-06
5.56795e-06
-1.08241e-06
-4.25293e-06
-7.53948e-07
-6.77809e-06
5.89913e-07
-6.66629e-06
2.30268e-06
-5.74741e-06
4.01461e-06
-4.70894e-06
5.56708e-06
-3.78925e-06
6.91283e-06
-3.04295e-06
8.0554e-06
-2.45581e-06
9.01732e-06
-1.99685e-06
9.82528e-06
-1.63642e-06
1.05043e-05
-1.3506e-06
1.10758e-05
-1.12132e-06
1.15576e-05
-9.35188e-07
1.19642e-05
-7.82366e-07
1.23073e-05
-6.55551e-07
1.25966e-05
-5.49259e-07
1.28398e-05
-4.59302e-07
1.30433e-05
-3.82425e-07
1.32122e-05
-3.16045e-07
1.33507e-05
-2.58075e-07
1.34622e-05
-2.06788e-07
1.35493e-05
-1.60721e-07
1.36139e-05
-1.18605e-07
1.36576e-05
-7.93111e-08
1.36813e-05
-4.18002e-08
1.36853e-05
-5.09034e-09
1.36696e-05
3.17863e-08
1.36335e-05
6.98053e-08
1.3576e-05
1.09997e-07
1.34954e-05
1.53484e-07
1.33894e-05
2.01527e-07
1.32548e-05
2.55593e-07
1.30878e-05
3.17431e-07
1.28834e-05
3.89181e-07
1.26353e-05
4.73526e-07
1.23356e-05
5.73896e-07
1.19746e-05
6.94762e-07
1.15397e-05
8.42051e-07
1.10153e-05
1.02375e-06
1.03817e-05
1.25074e-06
9.61422e-06
1.53799e-06
8.68331e-06
1.90599e-06
7.55539e-06
2.38227e-06
6.19856e-06
3.00175e-06
4.59813e-06
3.80238e-06
2.79175e-06
4.8057e-06
9.38153e-07
5.95891e-06
-5.70579e-07
7.00244e-06
-1.03813e-06
7.18257e-06
4.52982e-06
-9.1297e-07
-3.33996e-06
-1.34122e-06
-6.34984e-06
-9.3605e-07
-7.07146e-06
2.26951e-08
-6.70615e-06
1.24124e-06
-5.92748e-06
2.52006e-06
-5.06807e-06
3.74638e-06
-4.26926e-06
4.86745e-06
-3.57687e-06
5.86539e-06
-2.99479e-06
6.74032e-06
-2.51135e-06
7.50063e-06
-2.11091e-06
8.15776e-06
-1.77845e-06
8.72368e-06
-1.5011e-06
9.20964e-06
-1.26833e-06
9.62576e-06
-1.07167e-06
9.98085e-06
-9.04353e-07
1.02825e-05
-7.60955e-07
1.05372e-05
-6.37076e-07
1.07502e-05
-5.29108e-07
1.09262e-05
-4.34044e-07
1.10687e-05
-3.49337e-07
1.11808e-05
-2.72784e-07
1.12646e-05
-2.02437e-07
1.13219e-05
-1.36536e-07
1.13535e-05
-7.34449e-08
1.136e-05
-1.1599e-08
1.13413e-05
5.05452e-08
1.12965e-05
1.14554e-07
1.12244e-05
1.82073e-07
1.1123e-05
2.54886e-07
1.09896e-05
3.3498e-07
1.08205e-05
4.24633e-07
1.06114e-05
5.26518e-07
1.03568e-05
6.43845e-07
1.00498e-05
7.80536e-07
9.6822e-06
9.41463e-07
9.24421e-06
1.13275e-06
8.72409e-06
1.36218e-06
8.10819e-06
1.63964e-06
7.38122e-06
1.97771e-06
6.52715e-06
2.39206e-06
5.53166e-06
2.90147e-06
4.38755e-06
3.52638e-06
3.10534e-06
4.28396e-06
1.73262e-06
5.1751e-06
3.84204e-07
6.15412e-06
-7.24145e-07
7.06726e-06
-1.26553e-06
7.54382e-06
-9.15818e-07
6.83286e-06
3.614e-06
-6.64654e-07
-2.6753e-06
-1.29677e-06
-5.71772e-06
-1.41707e-06
-6.95116e-06
-1.04072e-06
-7.0825e-06
-3.22232e-07
-6.64597e-06
5.80848e-07
-5.97115e-06
1.55026e-06
-5.23867e-06
2.51008e-06
-4.53669e-06
3.41709e-06
-3.9018e-06
4.24986e-06
-3.34412e-06
5.00034e-06
-2.8614e-06
5.66818e-06
-2.44629e-06
6.25709e-06
-2.09001e-06
6.77273e-06
-1.78397e-06
7.22144e-06
-1.52038e-06
7.60958e-06
-1.29249e-06
7.9431e-06
-1.09448e-06
8.22742e-06
-9.21398e-07
8.46731e-06
-7.69002e-07
8.66689e-06
-6.3362e-07
8.8296e-06
-5.12044e-07
8.95824e-06
-4.0143e-07
9.05501e-06
-2.99208e-07
9.12149e-06
-2.03012e-07
9.15866e-06
-1.1061e-07
9.16691e-06
-1.98511e-08
9.14605e-06
7.1402e-08
9.09528e-06
1.65322e-07
9.01317e-06
2.64186e-07
8.89761e-06
3.70441e-07
8.74581e-06
4.86784e-07
8.55418e-06
6.16259e-07
8.31834e-06
7.62367e-07
8.03297e-06
9.29207e-07
7.69187e-06
1.12164e-06
7.28784e-06
1.34549e-06
6.81283e-06
1.60776e-06
6.25818e-06
1.91683e-06
5.61516e-06
2.28266e-06
4.87624e-06
2.71664e-06
4.03721e-06
3.23109e-06
3.1012e-06
3.83748e-06
2.08521e-06
4.54238e-06
1.03024e-06
5.33893e-06
1.4999e-08
6.19034e-06
-8.31245e-07
7.00036e-06
-1.32867e-06
7.56468e-06
-1.29262e-06
7.50777e-06
-6.84867e-07
6.22511e-06
2.92913e-06
-4.70612e-07
-2.20469e-06
-1.09906e-06
-5.08927e-06
-1.46672e-06
-6.58351e-06
-1.46698e-06
-7.08224e-06
-1.14563e-06
-6.96732e-06
-5.97654e-07
-6.51912e-06
8.32556e-08
-5.91958e-06
8.23232e-07
-5.27667e-06
1.57063e-06
-4.64919e-06
2.29236e-06
-4.06585e-06
2.96901e-06
-3.53805e-06
3.59053e-06
-3.0678e-06
4.15289e-06
-2.65238e-06
4.65585e-06
-2.28692e-06
5.10131e-06
-1.96585e-06
5.49238e-06
-1.68355e-06
5.83263e-06
-1.43473e-06
6.12575e-06
-1.21453e-06
6.37529e-06
-1.01854e-06
6.58445e-06
-8.42782e-07
6.75605e-06
-6.83642e-07
6.89243e-06
-5.37815e-07
6.99546e-06
-4.02236e-07
7.06648e-06
-2.74026e-07
7.1063e-06
-1.5043e-07
7.1152e-06
-2.87581e-08
7.09293e-06
9.36747e-08
7.03865e-06
2.19604e-07
6.95095e-06
3.51886e-07
6.82783e-06
4.9356e-07
6.66668e-06
6.47937e-07
6.46426e-06
8.18678e-07
6.21672e-06
1.0099e-06
5.91965e-06
1.22628e-06
5.56814e-06
1.47316e-06
5.15698e-06
1.75665e-06
4.68103e-06
2.08371e-06
4.13584e-06
2.46202e-06
3.51869e-06
2.8998e-06
2.83031e-06
3.40502e-06
2.07753e-06
3.98387e-06
1.2773e-06
4.63771e-06
4.62096e-07
5.35758e-06
-3.1352e-07
6.11454e-06
-9.6737e-07
6.84419e-06
-1.39063e-06
7.42363e-06
-1.46816e-06
7.64221e-06
-1.13554e-06
7.17515e-06
-4.96395e-07
5.58596e-06
2.43274e-06
-3.39614e-07
-1.86508e-06
-9.01092e-07
-4.52779e-06
-1.36227e-06
-6.12233e-06
-1.58176e-06
-6.86275e-06
-1.54115e-06
-7.00793e-06
-1.28248e-06
-6.77779e-06
-8.6708e-07
-6.33498e-06
-3.5404e-07
-5.78971e-06
2.08366e-07
-5.2116e-06
7.84287e-07
-4.64177e-06
1.3489e-06
-4.10266e-06
1.88609e-06
-3.60499e-06
2.38617e-06
-3.15246e-06
2.84395e-06
-2.74471e-06
3.25731e-06
-2.37921e-06
3.62609e-06
-2.05232e-06
3.95131e-06
-1.75995e-06
4.23469e-06
-1.4979e-06
4.47821e-06
-1.26207e-06
4.68394e-06
-1.04851e-06
4.85378e-06
-8.53487e-07
4.98942e-06
-6.73453e-07
5.09221e-06
-5.05023e-07
5.16312e-06
-3.44941e-07
5.20273e-06
-1.90037e-07
5.21115e-06
-3.71815e-08
5.18806e-06
1.16768e-07
5.13265e-06
2.75019e-07
5.04363e-06
4.40898e-07
4.91928e-06
6.17919e-07
4.75737e-06
8.09841e-07
4.55531e-06
1.02074e-06
4.31015e-06
1.25506e-06
4.01876e-06
1.51768e-06
3.67799e-06
1.81392e-06
3.2851e-06
2.14954e-06
2.83825e-06
2.53056e-06
2.33736e-06
2.96291e-06
1.78534e-06
3.45183e-06
1.18988e-06
4.00049e-06
5.65849e-07
4.60789e-06
-6.16244e-08
5.26519e-06
-6.53874e-07
5.94983e-06
-1.15623e-06
6.6169e-06
-1.49896e-06
7.18693e-06
-1.60658e-06
7.53124e-06
-1.42283e-06
7.45846e-06
-9.59072e-07
6.71139e-06
-3.66389e-07
4.99328e-06
2.06635e-06
-2.54668e-07
-1.61041e-06
-7.40043e-07
-4.04242e-06
-1.2194e-06
-5.64297e-06
-1.55609e-06
-6.52607e-06
-1.70109e-06
-6.86293e-06
-1.66034e-06
-6.81855e-06
-1.46647e-06
-6.52884e-06
-1.16037e-06
-6.09581e-06
-7.81021e-07
-5.59095e-06
-3.61136e-07
-5.06166e-06
7.38849e-08
-4.53769e-06
5.05455e-07
-4.03656e-06
9.20646e-07
-3.56765e-06
1.31094e-06
-3.135e-06
1.6711e-06
-2.73937e-06
1.99824e-06
-2.37946e-06
2.29108e-06
-2.0528e-06
2.54944e-06
-1.75625e-06
2.77374e-06
-1.48637e-06
2.96481e-06
-1.23957e-06
3.12357e-06
-1.01224e-06
3.25092e-06
-8.00809e-07
3.34764e-06
-6.01745e-07
3.41428e-06
-4.11575e-07
3.45109e-06
-2.26852e-07
3.45804e-06
-4.41307e-08
3.43474e-06
1.40068e-07
3.38047e-06
3.29296e-07
3.29415e-06
5.27218e-07
3.17441e-06
7.37658e-07
3.01961e-06
9.64634e-07
2.82796e-06
1.21239e-06
2.5976e-06
1.48542e-06
2.32686e-06
1.78842e-06
2.01453e-06
2.12625e-06
1.66035e-06
2.50372e-06
1.2656e-06
2.92531e-06
8.34003e-07
3.39452e-06
3.7289e-07
3.91294e-06
-1.05278e-07
4.47865e-06
-5.81166e-07
5.08378e-06
-1.02679e-06
5.71081e-06
-1.4044e-06
6.32744e-06
-1.66717e-06
6.87967e-06
-1.76402e-06
7.28378e-06
-1.6515e-06
7.41872e-06
-1.31622e-06
7.12318e-06
-8.08633e-07
6.2038e-06
-2.80962e-07
4.46561e-06
1.78539e-06
-1.9907e-07
-1.41134e-06
-6.1717e-07
-3.62432e-06
-1.08202e-06
-5.17813e-06
-1.47537e-06
-6.13271e-06
-1.7378e-06
-6.6005e-06
-1.85385e-06
-6.7025e-06
-1.83481e-06
-6.54788e-06
-1.70489e-06
-6.22573e-06
-1.4921e-06
-5.80374e-06
-1.22307e-06
-5.33069e-06
-9.20614e-07
-4.84014e-06
-6.03055e-07
-4.35412e-06
-2.84381e-07
-3.88632e-06
2.51654e-08
-3.44455e-06
3.18382e-07
-3.03259e-06
5.90426e-07
-2.6515e-06
8.38219e-07
-2.30059e-06
1.05995e-06
-1.97799e-06
1.2547e-06
-1.68112e-06
1.42212e-06
-1.40698e-06
1.56217e-06
-1.1523e-06
1.67502e-06
-9.13654e-07
1.76082e-06
-6.87553e-07
1.8197e-06
-4.70453e-07
1.85162e-06
-2.58772e-07
1.85638e-06
-4.8886e-08
1.83356e-06
1.62886e-07
1.78256e-06
3.80298e-07
1.70258e-06
6.072e-07
1.59268e-06
8.47555e-07
1.45187e-06
1.10544e-06
1.27922e-06
1.38504e-06
1.07402e-06
1.69062e-06
8.36061e-07
2.02638e-06
5.65964e-07
2.39634e-06
2.6565e-07
2.80404e-06
-6.10358e-08
3.25199e-06
-4.07535e-07
3.74101e-06
-7.63631e-07
4.26903e-06
-1.1144e-06
4.82942e-06
-1.43921e-06
5.4086e-06
-1.71123e-06
5.98283e-06
-1.89786e-06
6.51408e-06
-1.9635e-06
6.94531e-06
-1.87567e-06
7.19594e-06
-1.61635e-06
7.1594e-06
-1.1991e-06
6.70594e-06
-6.89958e-07
5.69466e-06
-2.24288e-07
3.99994e-06
1.5611e-06
-1.61726e-07
-1.24961e-06
-5.25242e-07
-3.2608e-06
-9.63984e-07
-4.73938e-06
-1.38019e-06
-5.7165e-06
-1.71443e-06
-6.26626e-06
-1.94027e-06
-6.47665e-06
-2.0547e-06
-6.43346e-06
-2.06871e-06
-6.21172e-06
-2.00006e-06
-5.87239e-06
-1.86837e-06
-5.46238e-06
-1.69231e-06
-5.01621e-06
-1.48815e-06
-4.55828e-06
-1.26933e-06
-4.10514e-06
-1.04645e-06
-3.66743e-06
-8.27617e-07
-3.25142e-06
-6.18819e-07
-2.8603e-06
-4.24356e-07
-2.49505e-06
-2.47222e-07
-2.15512e-06
-8.9435e-08
-1.83891e-06
4.76868e-08
-1.54411e-06
1.63305e-07
-1.26792e-06
2.56884e-07
-1.00723e-06
3.28062e-07
-7.58731e-07
3.76543e-07
-5.18935e-07
4.02037e-07
-2.84265e-07
4.04203e-07
-5.10526e-08
3.8264e-07
1.84449e-07
3.36883e-07
4.26055e-07
2.66435e-07
6.77648e-07
1.70828e-07
9.43162e-07
4.97161e-08
1.22655e-06
-9.69852e-08
1.53175e-06
-2.68904e-07
1.86254e-06
-4.6495e-07
2.22242e-06
-6.82973e-07
2.61437e-06
-9.19329e-07
3.04039e-06
-1.16835e-06
3.50101e-06
-1.42172e-06
3.99439e-06
-1.66787e-06
4.51518e-06
-1.89136e-06
5.05291e-06
-2.07266e-06
5.5899e-06
-2.18849e-06
6.09866e-06
-2.2134e-06
6.53899e-06
-2.12324e-06
6.85515e-06
-1.90128e-06
6.97398e-06
-1.54747e-06
6.8056e-06
-1.09026e-06
6.24872e-06
-5.98189e-07
5.20259e-06
-1.8549e-07
3.58724e-06
1.37561e-06
-1.35908e-07
-1.11371e-06
-4.56617e-07
-2.94009e-06
-8.67348e-07
-4.32865e-06
-1.28856e-06
-5.2953e-06
-1.66535e-06
-5.88946e-06
-1.96685e-06
-6.17516e-06
-2.18125e-06
-6.21906e-06
-2.30993e-06
-6.08303e-06
-2.36211e-06
-5.82021e-06
-2.35078e-06
-5.47371e-06
-2.28992e-06
-5.07707e-06
-2.19287e-06
-4.65532e-06
-2.07148e-06
-4.22654e-06
-1.93572e-06
-3.80319e-06
-1.79373e-06
-3.39342e-06
-1.65191e-06
-3.00212e-06
-1.51523e-06
-2.63174e-06
-1.38742e-06
-2.28293e-06
-1.27126e-06
-1.95507e-06
-1.1688e-06
-1.64657e-06
-1.0815e-06
-1.35521e-06
-1.01046e-06
-1.07828e-06
-9.56471e-07
-8.12716e-07
-9.20166e-07
-5.55241e-07
-9.02045e-07
-3.02386e-07
-9.02539e-07
-5.0559e-08
-9.22015e-07
2.03924e-07
-9.60771e-07
4.64811e-07
-1.019e-06
7.35877e-07
-1.09672e-06
1.02088e-06
-1.19367e-06
1.32351e-06
-1.30919e-06
1.64726e-06
-1.44198e-06
1.99532e-06
-1.5899e-06
2.37034e-06
-1.74965e-06
2.77412e-06
-1.91643e-06
3.20717e-06
-2.08351e-06
3.66809e-06
-2.24185e-06
4.15273e-06
-2.37976e-06
4.65309e-06
-2.48278e-06
5.15593e-06
-2.53394e-06
5.64106e-06
-2.51474e-06
6.07945e-06
-2.40715e-06
6.4314e-06
-2.1972e-06
6.64519e-06
-1.8802e-06
6.65698e-06
-1.46774e-06
6.39313e-06
-9.95087e-07
5.77607e-06
-5.27032e-07
4.73454e-06
-1.57923e-07
3.21813e-06
1.21769e-06
-1.17582e-07
-9.96124e-07
-4.05152e-07
-2.65252e-06
-7.90016e-07
-3.94379e-06
-1.20746e-06
-4.87785e-06
-1.60864e-06
-5.48829e-06
-1.96183e-06
-5.82196e-06
-2.25037e-06
-5.93052e-06
-2.46905e-06
-5.86435e-06
-2.62051e-06
-5.66875e-06
-2.712e-06
-5.38223e-06
-2.75301e-06
-5.03605e-06
-2.75365e-06
-4.65468e-06
-2.72362e-06
-4.25657e-06
-2.67164e-06
-3.85516e-06
-2.60524e-06
-3.45982e-06
-2.5307e-06
-3.07666e-06
-2.45313e-06
-2.7093e-06
-2.37662e-06
-2.35944e-06
-2.30437e-06
-2.02731e-06
-2.2389e-06
-1.71205e-06
-2.18212e-06
-1.412e-06
-2.1355e-06
-1.12489e-06
-2.10018e-06
-8.48035e-07
-2.07702e-06
-5.78399e-07
-2.06668e-06
-3.12731e-07
-2.06962e-06
-4.76168e-08
-2.08616e-06
2.20462e-07
-2.11642e-06
4.9507e-07
-2.1603e-06
7.79761e-07
-2.21743e-06
1.07801e-06
-2.28702e-06
1.3931e-06
-2.36778e-06
1.72802e-06
-2.45772e-06
2.08526e-06
-2.55395e-06
2.46657e-06
-2.65243e-06
2.87261e-06
-2.74774e-06
3.30248e-06
-2.83278e-06
3.75313e-06
-2.89863e-06
4.21857e-06
-2.93443e-06
4.6889e-06
-2.92765e-06
5.14915e-06
-2.86462e-06
5.57804e-06
-2.73189e-06
5.94672e-06
-2.51827e-06
6.21778e-06
-2.21804e-06
6.34496e-06
-1.83514e-06
6.27408e-06
-1.38796e-06
5.94595e-06
-9.13812e-07
5.30192e-06
-4.71187e-07
4.29191e-06
-1.37614e-07
2.88456e-06
1.08007e-06
-1.04284e-07
-8.9184e-07
-3.66301e-07
-2.3905e-06
-7.28827e-07
-3.58126e-06
-1.13876e-06
-4.46792e-06
-1.55326e-06
-5.07379e-06
-1.9417e-06
-5.43353e-06
-2.28502e-06
-5.58721e-06
-2.57379e-06
-5.57557e-06
-2.80578e-06
-5.43675e-06
-2.98362e-06
-5.20439e-06
-3.11283e-06
-4.90685e-06
-3.20036e-06
-4.56715e-06
-3.25358e-06
-4.20334e-06
-3.27964e-06
-3.8291e-06
-3.28506e-06
-3.45441e-06
-3.27555e-06
-3.08616e-06
-3.25604e-06
-2.72882e-06
-3.23059e-06
-2.38488e-06
-3.20258e-06
-2.05532e-06
-3.17472e-06
-1.73991e-06
-3.14918e-06
-1.43753e-06
-3.12768e-06
-1.14639e-06
-3.11155e-06
-8.64165e-07
-3.1018e-06
-5.88147e-07
-3.09917e-06
-3.15364e-07
-3.10413e-06
-4.26554e-08
-3.11691e-06
2.33243e-07
-3.13747e-06
5.1563e-07
-3.16546e-06
8.0775e-07
-3.20016e-06
1.1127e-06
-3.24038e-06
1.43332e-06
-3.28437e-06
1.77201e-06
-3.32967e-06
2.13056e-06
-3.37292e-06
2.50983e-06
-3.40976e-06
2.90945e-06
-3.43461e-06
3.32733e-06
-3.4406e-06
3.75912e-06
-3.41952e-06
4.19749e-06
-3.36198e-06
4.63136e-06
-3.25786e-06
5.04502e-06
-3.09704e-06
5.41722e-06
-2.87082e-06
5.7205e-06
-2.57383e-06
5.92079e-06
-2.20667e-06
5.9778e-06
-1.77905e-06
5.84645e-06
-1.31293e-06
5.47983e-06
-8.4492e-07
4.83392e-06
-4.26697e-07
3.87369e-06
-1.22169e-07
2.58003e-06
9.57904e-07
-9.44678e-08
-7.97372e-07
-3.36781e-07
-2.14819e-06
-6.8069e-07
-3.23735e-06
-1.08201e-06
-4.0666e-06
-1.5033e-06
-4.6525e-06
-1.9158e-06
-5.02102e-06
-2.29964e-06
-5.20337e-06
-2.64281e-06
-5.23241e-06
-2.93965e-06
-5.13992e-06
-3.18917e-06
-4.95487e-06
-3.39357e-06
-4.70245e-06
-3.55696e-06
-4.40376e-06
-3.68445e-06
-4.07585e-06
-3.78146e-06
-3.7321e-06
-3.85329e-06
-3.38258e-06
-3.90487e-06
-3.03458e-06
-3.94061e-06
-2.69309e-06
-3.96434e-06
-2.36115e-06
-3.97934e-06
-2.04032e-06
-3.98833e-06
-1.73091e-06
-3.99358e-06
-1.43229e-06
-3.99689e-06
-1.14309e-06
-3.99968e-06
-8.61374e-07
-4.00303e-06
-5.84799e-07
-4.00768e-06
-3.10707e-07
-4.01409e-06
-3.62461e-08
-4.02239e-06
2.41539e-07
-4.03238e-06
5.25616e-07
-4.04349e-06
8.18866e-07
-4.05476e-06
1.12397e-06
-4.06471e-06
1.44327e-06
-4.07129e-06
1.77859e-06
-4.07177e-06
2.13104e-06
-4.06264e-06
2.5007e-06
-4.03952e-06
2.88633e-06
-3.99709e-06
3.2849e-06
-3.9291e-06
3.69113e-06
-3.82849e-06
4.09688e-06
-3.68768e-06
4.49055e-06
-3.49911e-06
4.85644e-06
-3.25609e-06
5.17421e-06
-2.95412e-06
5.41852e-06
-2.59249e-06
5.55917e-06
-2.17644e-06
5.56175e-06
-1.7193e-06
5.38931e-06
-1.24448e-06
5.00501e-06
-7.86552e-07
4.37599e-06
-3.90732e-07
3.47787e-06
-1.10112e-07
2.29941e-06
8.47792e-07
-8.71293e-08
-7.10243e-07
-3.14232e-07
-1.92109e-06
-6.42945e-07
-2.90864e-06
-1.03589e-06
-3.67365e-06
-1.46019e-06
-4.2282e-06
-1.88924e-06
-4.59198e-06
-2.30317e-06
-4.78943e-06
-2.68855e-06
-4.84703e-06
-3.03735e-06
-4.79111e-06
-3.34591e-06
-4.64631e-06
-3.6137e-06
-4.43466e-06
-3.84239e-06
-4.17506e-06
-4.03501e-06
-3.88324e-06
-4.19528e-06
-3.57182e-06
-4.32724e-06
-3.25062e-06
-4.43485e-06
-2.92697e-06
-4.52187e-06
-2.60607e-06
-4.5917e-06
-2.29132e-06
-4.64735e-06
-1.98467e-06
-4.69141e-06
-1.68685e-06
-4.72607e-06
-1.39763e-06
-4.7531e-06
-1.11605e-06
-4.77394e-06
-8.40542e-07
-4.78963e-06
-5.69109e-07
-4.80089e-06
-2.99442e-07
-4.80811e-06
-2.90256e-08
-4.81132e-06
2.44749e-07
-4.81019e-06
5.24488e-07
-4.80401e-06
8.1268e-07
-4.7916e-06
1.11157e-06
-4.77134e-06
1.42301e-06
-4.74103e-06
1.74828e-06
-4.69788e-06
2.08789e-06
-4.63844e-06
2.44126e-06
-4.55858e-06
2.80648e-06
-4.45354e-06
3.17985e-06
-4.31796e-06
3.55555e-06
-4.14616e-06
3.92508e-06
-3.9325e-06
4.27689e-06
-3.67192e-06
4.59587e-06
-3.36085e-06
4.86314e-06
-2.99828e-06
5.05595e-06
-2.58716e-06
5.14805e-06
-2.13595e-06
5.11053e-06
-1.66007e-06
4.91344e-06
-1.18309e-06
4.52804e-06
-7.37004e-07
3.9299e-06
-3.6129e-07
3.10216e-06
-1.00502e-07
2.03862e-06
7.4729e-07
-8.15925e-08
-6.28651e-07
-2.96939e-07
-1.70574e-06
-6.13418e-07
-2.59216e-06
-9.98837e-07
-3.28824e-06
-1.42407e-06
-3.80296e-06
-1.86458e-06
-4.15147e-06
-2.30101e-06
-4.353e-06
-2.71918e-06
-4.42886e-06
-3.10954e-06
-4.40075e-06
-3.46641e-06
-4.28945e-06
-3.78716e-06
-4.11391e-06
-4.0714e-06
-3.89081e-06
-4.32033e-06
-3.63431e-06
-4.53613e-06
-3.35603e-06
-4.72153e-06
-3.06522e-06
-4.87953e-06
-2.76897e-06
-5.01314e-06
-2.47246e-06
-5.12521e-06
-2.17925e-06
-5.21837e-06
-1.89151e-06
-5.29495e-06
-1.61026e-06
-5.35696e-06
-1.33562e-06
-5.40608e-06
-1.06693e-06
-5.44363e-06
-8.02991e-07
-5.4706e-06
-5.42138e-07
-5.48764e-06
-2.82405e-07
-5.49504e-06
-2.16271e-08
-5.49274e-06
2.42447e-07
-5.4803e-06
5.12048e-07
-5.45689e-06
7.89269e-07
-5.42125e-06
1.07593e-06
-5.37166e-06
1.37343e-06
-5.30595e-06
1.68256e-06
-5.22139e-06
2.00333e-06
-5.1148e-06
2.33467e-06
-4.9825e-06
2.67418e-06
-4.82045e-06
3.0178e-06
-4.62436e-06
3.35946e-06
-4.39001e-06
3.69074e-06
-4.11366e-06
4.00054e-06
-3.79259e-06
4.2748e-06
-3.42589e-06
4.49644e-06
-3.01542e-06
4.64547e-06
-2.56683e-06
4.69947e-06
-2.09076e-06
4.63446e-06
-1.60371e-06
4.42638e-06
-1.12864e-06
4.05297e-06
-6.94863e-07
3.49612e-06
-3.36955e-07
2.74425e-06
-9.27248e-08
1.79439e-06
6.54566e-07
-7.739e-08
-5.51261e-07
-2.83648e-07
-1.49948e-06
-5.90379e-07
-2.28543e-06
-9.69334e-07
-2.90928e-06
-1.39443e-06
-3.37787e-06
-1.84297e-06
-3.70293e-06
-2.29633e-06
-3.89964e-06
-2.74004e-06
-3.98515e-06
-3.16355e-06
-3.97724e-06
-3.55976e-06
-3.89323e-06
-3.9244e-06
-3.74927e-06
-4.25541e-06
-3.5598e-06
-4.55242e-06
-3.3373e-06
-4.81622e-06
-3.09223e-06
-5.04837e-06
-2.83307e-06
-5.25089e-06
-2.56645e-06
-5.42601e-06
-2.29734e-06
-5.576e-06
-2.02927e-06
-5.70303e-06
-1.76448e-06
-5.80909e-06
-1.5042e-06
-5.89597e-06
-1.24874e-06
-5.96514e-06
-9.97765e-07
-6.01779e-06
-7.5034e-07
-6.0548e-06
-5.0513e-07
-6.0767e-06
-2.60499e-07
-6.08371e-06
-1.46226e-08
-6.07566e-06
2.34397e-07
-6.05203e-06
4.88425e-07
-6.01194e-06
7.49171e-07
-5.95407e-06
1.01806e-06
-5.87675e-06
1.2961e-06
-5.77786e-06
1.58368e-06
-5.65493e-06
1.8804e-06
-5.50514e-06
2.18487e-06
-5.32538e-06
2.49442e-06
-5.11243e-06
2.80485e-06
-4.86315e-06
3.11018e-06
-4.57476e-06
3.40235e-06
-4.24527e-06
3.67105e-06
-3.87404e-06
3.90357e-06
-3.4624e-06
4.0848e-06
-3.01444e-06
4.19751e-06
-2.53783e-06
4.22286e-06
-2.04456e-06
4.1412e-06
-1.55155e-06
3.93337e-06
-1.08078e-06
3.58221e-06
-6.59017e-07
3.07436e-06
-3.16721e-07
2.40195e-06
-8.63668e-08
1.56404e-06
5.68199e-07
-7.41906e-08
-4.7707e-07
-2.73433e-07
-1.30024e-06
-5.72462e-07
-1.9864e-06
-9.46041e-07
-2.5357e-06
-1.3705e-06
-2.95341e-06
-1.82476e-06
-3.24867e-06
-2.29093e-06
-3.43347e-06
-2.75455e-06
-3.52154e-06
-3.20445e-06
-3.52733e-06
-3.63252e-06
-3.46517e-06
-4.03322e-06
-3.34857e-06
-4.4032e-06
-3.18983e-06
-4.74075e-06
-2.99974e-06
-5.04548e-06
-2.7875e-06
-5.31787e-06
-2.56068e-06
-5.55904e-06
-2.32528e-06
-5.77047e-06
-2.08591e-06
-5.95382e-06
-1.84591e-06
-6.1108e-06
-1.6075e-06
-6.24304e-06
-1.37196e-06
-6.352e-06
-1.13978e-06
-6.43896e-06
-9.10805e-07
-6.50493e-06
-6.8437e-07
-6.55064e-06
-4.5942e-07
-6.57652e-06
-2.34624e-07
-6.58266e-06
-8.48004e-09
-6.56884e-06
2.20573e-07
-6.53447e-06
4.54055e-07
-6.47862e-06
6.93329e-07
-6.40003e-06
9.39474e-07
-6.29709e-06
1.19315e-06
-6.16786e-06
1.45445e-06
-6.01016e-06
1.72271e-06
-5.82161e-06
1.99633e-06
-5.59976e-06
2.27257e-06
-5.34225e-06
2.54733e-06
-5.04702e-06
2.81495e-06
-4.71267e-06
3.068e-06
-4.33879e-06
3.29717e-06
-3.92649e-06
3.49127e-06
-3.47895e-06
3.63725e-06
-3.00198e-06
3.72054e-06
-2.50466e-06
3.72554e-06
-1.99982e-06
3.63636e-06
-1.50434e-06
3.43789e-06
-1.03912e-06
3.11699e-06
-6.28614e-07
2.66385e-06
-2.9987e-07
2.07321e-06
-8.11435e-08
1.34531e-06
4.87055e-07
-7.1756e-08
-4.05314e-07
-2.65601e-07
-1.1064e-06
-5.58604e-07
-1.6934e-06
-9.27817e-07
-2.16649e-06
-1.35148e-06
-2.52975e-06
-1.80985e-06
-2.7903e-06
-2.28577e-06
-2.95755e-06
-2.76488e-06
-3.04242e-06
-3.23569e-06
-3.05652e-06
-3.68936e-06
-3.0115e-06
-4.11943e-06
-2.9185e-06
-4.52147e-06
-2.78778e-06
-4.89274e-06
-2.62847e-06
-5.23182e-06
-2.44843e-06
-5.53827e-06
-2.25423e-06
-5.81239e-06
-2.05116e-06
-6.05497e-06
-1.84333e-06
-6.2671e-06
-1.63378e-06
-6.45002e-06
-1.42459e-06
-6.60497e-06
-1.21701e-06
-6.73312e-06
-1.01163e-06
-6.8355e-06
-8.08421e-07
-6.91294e-06
-6.06932e-07
-6.96601e-06
-4.0635e-07
-6.99501e-06
-2.0562e-07
-6.99996e-06
-3.53401e-09
-6.98054e-06
2.01154e-07
-6.93615e-06
4.09659e-07
-6.86585e-06
6.2303e-07
-6.76843e-06
8.42054e-07
-6.6424e-06
1.06713e-06
-6.48607e-06
1.29812e-06
-6.29759e-06
1.53422e-06
-6.07505e-06
1.77379e-06
-5.81666e-06
2.01417e-06
-5.52087e-06
2.25155e-06
-5.18668e-06
2.48076e-06
-4.81389e-06
2.69521e-06
-4.40348e-06
2.88677e-06
-3.95803e-06
3.04582e-06
-3.48215e-06
3.16137e-06
-2.98298e-06
3.22137e-06
-2.47058e-06
3.21313e-06
-1.95823e-06
3.12401e-06
-1.46254e-06
2.9422e-06
-1.00332e-06
2.65776e-06
-6.03008e-07
2.26354e-06
-2.85884e-07
1.75609e-06
-7.68565e-08
1.13628e-06
4.10199e-07
-6.99122e-08
-3.35402e-07
-2.59636e-07
-9.16671e-07
-5.47978e-07
-1.40506e-06
-9.13726e-07
-1.80074e-06
-1.3366e-06
-2.10687e-06
-1.79797e-06
-2.32893e-06
-2.28128e-06
-2.47424e-06
-2.7724e-06
-2.5513e-06
-3.25963e-06
-2.56929e-06
-3.73365e-06
-2.53749e-06
-4.18729e-06
-2.46485e-06
-4.61533e-06
-2.35974e-06
-5.01418e-06
-2.22963e-06
-5.38156e-06
-2.08105e-06
-5.71626e-06
-1.91952e-06
-6.01789e-06
-1.74953e-06
-6.28661e-06
-1.5746e-06
-6.523e-06
-1.39739e-06
-6.72784e-06
-1.21975e-06
-6.90202e-06
-1.04283e-06
-7.04643e-06
-8.67221e-07
-7.16185e-06
-6.93001e-07
-7.24891e-06
-5.19868e-07
-7.30804e-06
-3.47217e-07
-7.33943e-06
-1.74236e-07
-7.34299e-06
2.97002e-11
-7.31836e-06
1.76521e-07
-7.26491e-06
3.56205e-07
-7.18173e-06
5.39853e-07
-7.06769e-06
7.28017e-07
-6.92146e-06
9.20898e-07
-6.74158e-06
1.11824e-06
-6.52654e-06
1.31918e-06
-6.27492e-06
1.52217e-06
-5.98553e-06
1.72479e-06
-5.65762e-06
1.92363e-06
-5.29108e-06
2.11422e-06
-4.88677e-06
2.2909e-06
-4.44683e-06
2.44682e-06
-3.97502e-06
2.57401e-06
-3.4771e-06
2.66346e-06
-2.96118e-06
2.70545e-06
-2.43797e-06
2.68992e-06
-1.92096e-06
2.607e-06
-1.4264e-06
2.44765e-06
-9.73066e-07
2.20443e-06
-5.81724e-07
1.8722e-06
-2.74394e-07
1.44876e-06
-7.33658e-08
9.35256e-07
3.36833e-07
-6.85322e-08
-2.6687e-07
-2.55152e-07
-7.30051e-07
-5.39951e-07
-1.12026e-06
-9.03016e-07
-1.43767e-06
-1.32521e-06
-1.68468e-06
-1.78875e-06
-1.86539e-06
-2.27764e-06
-1.98534e-06
-2.77795e-06
-2.051e-06
-3.27788e-06
-2.06936e-06
-3.76777e-06
-2.04759e-06
-4.23998e-06
-1.99265e-06
-4.68865e-06
-1.91107e-06
-5.10952e-06
-1.80876e-06
-5.49965e-06
-1.69092e-06
-5.8572e-06
-1.56197e-06
-6.18118e-06
-1.42555e-06
-6.47124e-06
-1.28455e-06
-6.72748e-06
-1.14115e-06
-6.95032e-06
-9.96911e-07
-7.14031e-06
-8.52839e-07
-7.29808e-06
-7.09457e-07
-7.42418e-06
-5.66896e-07
-7.51908e-06
-4.24967e-07
-7.58306e-06
-2.83237e-07
-7.6162e-06
-1.411e-07
-7.61832e-06
2.15248e-09
-7.58905e-06
1.47246e-07
-7.52772e-06
2.94878e-07
-7.43348e-06
4.45614e-07
-7.30528e-06
5.99818e-07
-7.14195e-06
7.57565e-07
-6.94225e-06
9.18543e-07
-6.70503e-06
1.08196e-06
-6.42929e-06
1.24643e-06
-6.11439e-06
1.40989e-06
-5.76024e-06
1.56948e-06
-5.36754e-06
1.72152e-06
-4.93802e-06
1.86138e-06
-4.47475e-06
1.98356e-06
-3.98245e-06
2.0817e-06
-3.46773e-06
2.14874e-06
-2.9394e-06
2.17712e-06
-2.4086e-06
2.15912e-06
-1.88888e-06
2.08728e-06
-1.3961e-06
1.95487e-06
-9.48144e-07
1.75647e-06
-5.64408e-07
1.48846e-06
-2.65132e-07
1.14948e-06
-7.05723e-08
7.40696e-07
2.66261e-07
-6.75231e-08
-1.99347e-07
-2.51863e-07
-5.45711e-07
-5.34041e-07
-8.38082e-07
-8.95097e-07
-1.07662e-06
-1.31674e-06
-1.26303e-06
-1.78185e-06
-1.40029e-06
-2.27485e-06
-1.49233e-06
-2.78201e-06
-1.54384e-06
-3.29149e-06
-1.55988e-06
-3.79342e-06
-1.54566e-06
-4.27979e-06
-1.50629e-06
-4.74428e-06
-1.44657e-06
-5.18215e-06
-1.37089e-06
-5.58993e-06
-1.28314e-06
-5.96528e-06
-1.18662e-06
-6.30674e-06
-1.08409e-06
-6.61354e-06
-9.77751e-07
-6.88541e-06
-8.6928e-07
-7.12243e-06
-7.59889e-07
-7.3249e-06
-6.50369e-07
-7.4932e-06
-5.41157e-07
-7.62771e-06
-4.32384e-07
-7.72874e-06
-3.23942e-07
-7.79644e-06
-2.15535e-07
-7.8308e-06
-1.06738e-07
-7.8316e-06
2.94947e-09
-7.7984e-06
1.14047e-07
-7.73056e-06
2.27039e-07
-7.62726e-06
3.42314e-07
-7.48754e-06
4.60099e-07
-7.31038e-06
5.80396e-07
-7.09474e-06
7.02912e-07
-6.83977e-06
8.2698e-07
-6.54483e-06
9.51491e-07
-6.20976e-06
1.07482e-06
-5.83503e-06
1.19475e-06
-5.42196e-06
1.30845e-06
-4.97299e-06
1.41241e-06
-4.49192e-06
1.50249e-06
-3.98417e-06
1.57396e-06
-3.45701e-06
1.62158e-06
-2.91973e-06
1.63984e-06
-2.38374e-06
1.62313e-06
-1.86258e-06
1.56612e-06
-1.37175e-06
1.46403e-06
-9.2838e-07
1.3131e-06
-5.50807e-07
1.11089e-06
-2.5791e-07
8.56582e-07
-6.8406e-08
5.51193e-07
1.97855e-07
-6.68183e-08
-1.32528e-07
-2.49561e-07
-3.62968e-07
-5.29895e-07
-5.57749e-07
-8.89524e-07
-7.1699e-07
-1.31076e-06
-8.41801e-07
-1.77695e-06
-9.34093e-07
-2.27286e-06
-9.96424e-07
-2.78489e-06
-1.03182e-06
-3.3012e-06
-1.04357e-06
-3.81178e-06
-1.03508e-06
-4.30836e-06
-1.0097e-06
-4.78434e-06
-9.70587e-07
-5.23459e-06
-9.20645e-07
-5.65528e-06
-8.62447e-07
-6.04369e-06
-7.98205e-07
-6.39802e-06
-7.29763e-07
-6.71717e-06
-6.58602e-07
-7.00059e-06
-5.8586e-07
-7.24812e-06
-5.12362e-07
-7.45983e-06
-4.38658e-07
-7.63593e-06
-3.65056e-07
-7.77665e-06
-2.91661e-07
-7.88218e-06
-2.18416e-07
-7.95257e-06
-1.4514e-07
-7.98775e-06
-7.15624e-08
-7.98744e-06
2.63575e-09
-7.95118e-06
7.7786e-08
-7.87833e-06
1.54195e-07
-7.76812e-06
2.32101e-07
-7.61965e-06
3.11635e-07
-7.43203e-06
3.92771e-07
-7.2044e-06
4.75285e-07
-6.93612e-06
5.58699e-07
-6.62687e-06
6.42239e-07
-6.27683e-06
7.24783e-07
-5.88691e-06
8.04824e-07
-5.4589e-06
8.80439e-07
-4.99577e-06
9.49278e-07
-4.50185e-06
1.00857e-06
-3.98308e-06
1.05518e-06
-3.44716e-06
1.08567e-06
-2.90373e-06
1.0964e-06
-2.36435e-06
1.08376e-06
-1.84251e-06
1.04428e-06
-1.35342e-06
9.74935e-07
-9.1365e-07
8.73336e-07
-5.40744e-07
7.37981e-07
-2.52594e-07
5.68432e-07
-6.68182e-08
3.65418e-07
1.31036e-07
-6.63722e-08
-6.6156e-08
-2.48102e-07
-1.81238e-07
-5.27262e-07
-2.78589e-07
-8.85979e-07
-3.58272e-07
-1.30695e-06
-4.20834e-07
-1.77383e-06
-4.67212e-07
-2.27159e-06
-4.98662e-07
-2.78673e-06
-5.1667e-07
-3.30744e-06
-5.22862e-07
-3.82361e-06
-5.18913e-07
-4.32683e-06
-5.0648e-07
-4.81029e-06
-4.87134e-07
-5.26861e-06
-4.62316e-07
-5.69775e-06
-4.33311e-07
-6.09473e-06
-4.01223e-07
-6.45752e-06
-3.66978e-07
-6.7848e-06
-3.31319e-07
-7.07584e-06
-2.94821e-07
-7.3303e-06
-2.57904e-07
-7.54811e-06
-2.20846e-07
-7.72936e-06
-1.83807e-07
-7.87417e-06
-1.46846e-07
-7.98265e-06
-1.09939e-07
-8.05479e-06
-7.29992e-08
-8.09046e-06
-3.58964e-08
-8.08935e-06
1.52495e-09
-8.05099e-06
3.94259e-08
-7.97475e-06
7.79544e-08
-7.85987e-06
1.17224e-07
-7.70553e-06
1.57293e-07
-7.5109e-06
1.98141e-07
-7.27526e-06
2.39647e-07
-6.99812e-06
2.81561e-07
-6.67937e-06
3.23487e-07
-6.31944e-06