/*--------------------------------*- C++ -*----------------------------------*\
  =========                 |
  \\      /  F ield         | OpenFOAM: The Open Source CFD Toolbox
   \\    /   O peration     | Website:  https://openfoam.org
    \\  /    A nd           | Version:  7
     \\/     M anipulation  |
\*---------------------------------------------------------------------------*/
FoamFile
{
    version     2.0;
    format      ascii;
    class       volScalarField;
    location    "0.0744";
    object      p;
}
// * * * * * * * * * * * * * * * * * * * * * * * * * * * * * * * * * * * * * //

dimensions      [0 2 -2 0 0 0 0];

internalField   nonuniform List<scalar> 
2500
(
1.10328e-05
-0.000511475
-0.00220386
-0.00473508
-0.00771249
-0.0108148
-0.0137955
-0.0164614
-0.0186663
-0.0203032
-0.0212975
-0.0216004
-0.0211857
-0.0200451
-0.0181861
-0.0156294
-0.012407
-0.00856096
-0.00414171
0.000792887
0.00617849
0.0119451
0.018018
0.0243183
0.0307636
0.0372694
0.0437492
0.0501155
0.0562815
0.0621612
0.0676713
0.0727322
0.0772696
0.0812162
0.0845127
0.0871106
0.0889732
0.0900782
0.0904197
0.0900106
0.0888853
0.0871028
0.0847505
0.0819488
0.078857
0.0756785
0.0726691
0.0701422
0.0684959
0.06802
0.00054796
2.26808e-05
-0.00136165
-0.00337045
-0.00571555
-0.00816992
-0.010539
-0.0126619
-0.0144111
-0.0156894
-0.0164253
-0.0165704
-0.0160956
-0.0149885
-0.0132513
-0.0108987
-0.00795634
-0.00445935
-0.000451069
0.00401796
0.00889088
0.0141054
0.0195944
0.0252871
0.0311094
0.0369851
0.0428361
0.0485841
0.0541509
0.0594598
0.0644366
0.0690109
0.0731177
0.0766983
0.0797022
0.0820889
0.0838289
0.0849064
0.0853206
0.0850877
0.0842433
0.0828448
0.0809736
0.0787378
0.0762752
0.0737554
0.0713794
0.0693706
0.0680156
0.0675441
0.00224486
0.00141102
1.47641e-05
-0.00180319
-0.00386079
-0.00598187
-0.00801084
-0.0098156
-0.0112878
-0.0123421
-0.0129141
-0.0129589
-0.012448
-0.0113684
-0.00971984
-0.00751389
-0.00477227
-0.00152562
0.0021876
0.006322
0.0108261
0.0156432
0.0207122
0.025968
0.0313428
0.0367665
0.0421674
0.0474736
0.0526134
0.0575166
0.0621155
0.0663461
0.0701494
0.0734728
0.0762713
0.0785092
0.0801615
0.0812155
0.0816725
0.0815492
0.0808797
0.0797168
0.0781338
0.0762257
0.0741102
0.0719273
0.069838
0.0680193
0.0666575
0.065902
0.00480938
0.00343514
0.00181163
-3.55075e-05
-0.00202175
-0.00400798
-0.00586927
-0.00749962
-0.00880975
-0.00972759
-0.0101979
-0.0101813
-0.00965264
-0.00859979
-0.00702246
-0.00493077
-0.00234416
0.000709694
0.00419578
0.00807252
0.0122926
0.0168038
0.0215495
0.0264696
0.0315009
0.0365784
0.0416354
0.0466049
0.0514203
0.0560163
0.06033
0.0643021
0.0678779
0.0710088
0.0736534
0.075779
0.0773628
0.0783934
0.0788721
0.0788142
0.0782503
0.077227
0.0758084
0.074076
0.0721283
0.0700796
0.0680611
0.0662147
0.0646337
0.0633604
0.00787968
0.00583862
0.00386912
0.00187153
-0.000163599
-0.0021271
-0.00391981
-0.00545976
-0.00667624
-0.00751078
-0.00791801
-0.00786523
-0.00733167
-0.00630773
-0.00479396
-0.00280016
-0.000344457
0.00254749
0.00584328
0.00950445
0.0134871
0.0177428
0.0222188
0.0268591
0.0316047
0.0363948
0.0411671
0.0458588
0.0504073
0.0547514
0.058832
0.0625934
0.0659843
0.068959
0.0714784
0.0735116
0.0750369
0.0760428
0.0765295
0.0765096
0.0760092
0.0750681
0.0737406
0.0720948
0.0702112
0.0681811
0.066111
0.064115
0.0621976
0.0602782
0.0111794
0.00841951
0.00603031
0.00379609
0.00162137
-0.000407624
-0.00221267
-0.00373291
-0.00491462
-0.00571238
-0.00609073
-0.00602422
-0.00549722
-0.00450337
-0.003045
-0.00113245
0.0012166
0.00397769
0.00712027
0.0106082
0.0144004
0.0184514
0.0227117
0.0271287
0.0316469
0.0362091
0.0407563
0.0452292
0.0495685
0.0537161
0.0576159
0.0612148
0.0644636
0.0673185
0.0697419
0.0717034
0.0731812
0.074163
0.0746467
0.0746415
0.0741683
0.0732598
0.0719606
0.0703265
0.0684219
0.0663184
0.0641027
0.0618681
0.059537
0.0569162
0.014498
0.0110068
0.00815594
0.00562558
0.00324429
0.00108185
-0.000799918
-0.00235805
-0.00355382
-0.00435378
-0.00473197
-0.00467033
-0.00415864
-0.00319435
-0.00178216
6.63699e-05
0.00233326
0.00499457
0.00802089
0.0113777
0.0150261
0.0189228
0.023021
0.0272708
0.0316195
0.0360125
0.0403937
0.0447064
0.0488938
0.0529001
0.056671
0.0601552
0.0633048
0.0660769
0.0684341
0.0703458
0.0717892
0.07275
0.0732236
0.0732148
0.0727392
0.0718223
0.0704998
0.0688163
0.0668224
0.0645734
0.0621414
0.0596052
0.056815
0.0534778
0.0176719
0.0134571
0.0101241
0.00725988
0.00462619
0.00228163
0.000275593
-0.00136388
-0.00261098
-0.00344301
-0.00384286
-0.00379959
-0.00330847
-0.00237097
-0.000994609
0.000807337
0.00301607
0.00560756
0.00855295
0.0118188
0.0153676
0.0191579
0.0231449
0.0272805
0.0315145
0.0357941
0.0400655
0.0442737
0.0483636
0.052281
0.0559728
0.0593883
0.0624804
0.0652058
0.0675268
0.0694117
0.0708358
0.0717823
0.0722431
0.0722187
0.0717191
0.0707631
0.0693781
0.0675988
0.0654646
0.0630173
0.060319
0.0574393
0.0541656
0.0501156
0.020573
0.0156509
0.0118281
0.00860718
0.00569076
0.00313029
0.000965993
-0.000786361
-0.002112
-0.00299769
-0.00343444
-0.00341796
-0.0029489
-0.00203283
-0.000680294
0.00109334
0.00326803
0.00581921
0.00871809
0.0119318
0.0154238
0.0191537
0.0230781
0.0271506
0.0313223
0.0355422
0.0397575
0.0439147
0.0479599
0.0518392
0.0555003
0.0588925
0.0619682
0.0646835
0.0669992
0.068882
0.0703045
0.0712471
0.0716975
0.0716519
0.0711145
0.0700978
0.0686218
0.066713
0.0644011
0.0617178
0.0587182
0.0554675
0.0516979
0.0469464
0.0230995
0.0174878
0.0131741
0.00958326
0.00636455
0.0035654
0.00121944
-0.000667664
-0.00209055
-0.00304427
-0.00352711
-0.00354097
-0.00309162
-0.00218872
-0.000845983
0.000918915
0.00308438
0.00562497
0.00851153
0.0117113
0.0151882
0.0189026
0.022812
0.026871
0.0310316
0.0352437
0.0394557
0.0436144
0.0476663
0.0515578
0.0552362
0.0586504
0.0617515
0.0644943
0.0668375
0.0687453
0.0701875
0.0711405
0.0715881
0.0715216
0.0709398
0.0698492
0.0682631
0.066201
0.0636849
0.0607387
0.0574136
0.0537735
0.0495012
0.0440598
0.0251673
0.0188812
0.0140783
0.0101103
0.00657726
0.00352487
0.000982126
-0.00105372
-0.00258535
-0.00361506
-0.00414763
-0.00419072
-0.00375494
-0.00285396
-0.00150471
0.000272665
0.00245481
0.00501511
0.00792372
0.0111477
0.0146508
0.018394
0.0223351
0.0264293
0.030629
0.0348849
0.0391453
0.0433573
0.0474673
0.0514212
0.0551653
0.0586474
0.061817
0.0646266
0.0670325
0.0689955
0.070482
0.0714645
0.071922
0.071841
0.0712149
0.0700446
0.0683374
0.0661067
0.0633686
0.0601408
0.056473
0.0524305
0.0476507
0.041527
0.0267036
0.0197541
0.0144641
0.0101151
0.00626094
0.00294681
0.000198571
-0.00199361
-0.00363935
-0.00474734
-0.00532826
-0.00539506
-0.00496299
-0.00404964
-0.00267513
-0.000862169
0.00136395
0.00397519
0.00694078
0.0102272
0.013798
0.017614
0.0216332
0.0258109
0.0300997
0.0344502
0.0388107
0.0431279
0.0473475
0.0514144
0.0552737
0.0588711
0.062154
0.0650721
0.0675786
0.0696306
0.0711904
0.0722258
0.0727114
0.0726281
0.0719643
0.0707152
0.0688829
0.0664756
0.0635043
0.0599824
0.0559595
0.0515044
0.0462117
0.0394072
0.0276422
0.0200354
0.0142596
0.00952781
0.00534893
0.00176895
-0.00118848
-0.00353932
-0.00529931
-0.00648289
-0.00710617
-0.00718707
-0.00674526
-0.00580214
-0.00438106
-0.00250733
-0.000208334
0.00248631
0.00554468
0.00893242
0.0126126
0.0165457
0.0206894
0.0249989
0.0294267
0.0339229
0.0384354
0.0429101
0.0472916
0.0515234
0.0555485
0.0593105
0.0627539
0.0658252
0.0684736
0.0706522
0.0723186
0.0734357
0.0739728
0.0739054
0.0732166
0.0718961
0.069941
0.067355
0.0641449
0.0603208
0.0559336
0.051057
0.0452437
0.037753
0.0279202
0.0196572
0.0133954
0.00827962
0.00377472
-7.19625e-05
-0.00323832
-0.00574578
-0.00761565
-0.00886769
-0.00952312
-0.00960461
-0.00913609
-0.00814273
-0.0066511
-0.00468919
-0.00228656
0.000525421
0.00371349
0.0072423
0.0110742
0.015169
0.019484
0.0239741
0.0285911
0.0332846
0.0380017
0.0426871
0.0472839
0.0517338
0.0559776
0.0599559
0.0636099
0.0668823
0.069718
0.0720652
0.0738765
0.0751092
0.0757269
0.0756996
0.0750045
0.073626
0.0715564
0.068795
0.0653451
0.0612142
0.0564554
0.0511482
0.0448039
0.0366144
0.0274753
0.0185525
0.0118024
0.00630167
0.00147087
-0.00264091
-0.00601266
-0.00867093
-0.0106423
-0.0119517
-0.0126251
-0.0126899
-0.0121742
-0.011107
-0.00951807
-0.00743816
-0.00489914
-0.00193422
0.00142184
0.00513255
0.00915932
0.0134613
0.0179952
0.0227151
0.0275723
0.0325155
0.0374906
0.0424411
0.0473083
0.0520316
0.0565491
0.0607982
0.0647162
0.0682415
0.0713142
0.073877
0.0758767
0.0772647
0.0779983
0.0780413
0.0773648
0.0759477
0.0737773
0.0708489
0.0671622
0.0627227
0.0575863
0.0518391
0.04495
0.0360418
0.0262437
0.016653
0.00941053
0.00352355
-0.00163205
-0.0060053
-0.00957611
-0.0123761
-0.014437
-0.0157886
-0.016462
-0.0164892
-0.0159024
-0.0147346
-0.0130187
-0.0107884
-0.00807801
-0.00492269
-0.00135876
0.00257599
0.00684198
0.0113975
0.0161985
0.0211984
0.0263476
0.0315938
0.0368818
0.0421534
0.0473478
0.052402
0.057251
0.0618286
0.0660679
0.0699023
0.0732664
0.0760971
0.0783347
0.0799237
0.0808148
0.0809648
0.0803383
0.0789082
0.0766565
0.0735741
0.0696575
0.0649101
0.059391
0.0531935
0.0457425
0.0360887
0.0241589
0.0138878
0.0061468
-0.00012797
-0.00560649
-0.0102358
-0.0139968
-0.0169262
-0.0190611
-0.0204363
-0.0210879
-0.0210526
-0.0203673
-0.0190685
-0.017193
-0.0147773
-0.0118581
-0.00847286
-0.00465944
-0.000457008
0.00409378
0.00895034
0.0140678
0.0193988
0.0248929
0.0304967
0.0361536
0.0418039
0.0473845
0.0528297
0.0580711
0.0630385
0.0676605
0.0718649
0.0755803
0.078737
0.0812681
0.0831108
0.0842077
0.0845085
0.0839702
0.0825592
0.0802514
0.0770332
0.0728976
0.0678455
0.0619396
0.0552805
0.047247
0.0368142
0.0211494
0.0101819
0.00193442
-0.00473009
-0.0105289
-0.0154073
-0.0193471
-0.0223905
-0.0245802
-0.0259564
-0.0265604
-0.026434
-0.0256186
-0.0241552
-0.022084
-0.0194447
-0.0162769
-0.0126198
-0.00851334
-0.00399794
0.000884633
0.00609092
0.0115753
0.0172895
0.0231825
0.0291998
0.0352834
0.0413717
0.0473997
0.0532986
0.0589965
0.064419
0.0694895
0.07413
0.0782624
0.0818097
0.084697
0.086853
0.088212
0.0887149
0.0883106
0.0869576
0.0846255
0.0812952
0.0769554
0.0716045
0.0653087
0.0581761
0.0495366
0.0382846
0.0171389
0.00545502
-0.00330862
-0.0103651
-0.0164808
-0.0215994
-0.025704
-0.0288427
-0.0310642
-0.0324145
-0.0329408
-0.0326903
-0.0317094
-0.0300435
-0.0277369
-0.0248328
-0.0213733
-0.0174002
-0.0129549
-0.00807947
-0.0028166
0.00278941
0.00869226
0.0148431
0.0211901
0.0276779
0.0342473
0.0408351
0.0473738
0.053792
0.060014
0.0659609
0.0715505
0.0766988
0.0813202
0.0853295
0.0886431
0.0911805
0.0928659
0.0936307
0.0934142
0.0921664
0.0898488
0.0864361
0.0819119
0.0762713
0.0695838
0.0619654
0.0526931
0.040576
0.012044
-0.000379472
-0.00967072
-0.0171216
-0.0235499
-0.0288977
-0.0331501
-0.0363616
-0.0385875
-0.0398805
-0.0402941
-0.0398815
-0.0386949
-0.0367844
-0.0341987
-0.0309847
-0.0271875
-0.0228511
-0.0180191
-0.0127345
-0.00704125
-0.000984187
0.00538989
0.0120317
0.018889
0.0259056
0.0330214
0.0401716
0.0472868
0.0542926
0.0611097
0.0676545
0.0738391
0.0795725
0.0847615
0.089312
0.0931305
0.0961257
0.0982113
0.0993071
0.0993419
0.098255
0.0959989
0.0925405
0.0878572
0.08194
0.0748611
0.0667442
0.0568099
0.0437755
0.00577416
-0.00741603
-0.0172479
-0.0250958
-0.031831
-0.0373946
-0.0417742
-0.0450315
-0.0472294
-0.0484283
-0.0486886
-0.0480705
-0.0466324
-0.0444301
-0.041517
-0.0379439
-0.0337591
-0.0290094
-0.0237399
-0.0179952
-0.0118197
-0.00525895
0.00164016
0.00882825
0.0162528
0.0238575
0.0315815
0.0393589
0.0471183
0.0547828
0.0622694
0.0694898
0.0763502
0.0827526
0.088595
0.0937738
0.0981844
0.101724
0.104294
0.1058
0.10616
0.1053
0.103162
0.0997029
0.0948926
0.0887165
0.081249
0.0726216
0.0619935
0.0479836
-0.00176998
-0.015758
-0.0261454
-0.0343925
-0.0414273
-0.0471902
-0.051672
-0.0549428
-0.0570745
-0.0581357
-0.0581955
-0.057322
-0.0555805
-0.0530332
-0.0497389
-0.0457528
-0.0411267
-0.03591
-0.0301496
-0.0238913
-0.0171802
-0.0100618
-0.00258287
0.00520751
0.0132572
0.02151
0.0299049
0.0383752
0.0468484
0.0552449
0.0634787
0.0714566
0.079079
0.0862402
0.0928293
0.0987322
0.103832
0.108014
0.111163
0.113172
0.113943
0.113387
0.111434
0.108029
0.103132
0.0967205
0.0888709
0.0797219
0.0683661
0.0533166
-0.0106976
-0.0255193
-0.0364789
-0.0451271
-0.052452
-0.0583937
-0.0629473
-0.0661928
-0.0682123
-0.0690848
-0.068889
-0.0677021
-0.0655978
-0.0626455
-0.05891
-0.0544514
-0.0493255
-0.0435843
-0.0372766
-0.030449
-0.023147
-0.0154158
-0.0073016
0.00114753
0.00988036
0.0188415
0.0279704
0.0372005
0.0464581
0.0556622
0.0647236
0.0735448
0.0820203
0.0900367
0.0974736
0.104206
0.110103
0.115034
0.118871
0.121488
0.122769
0.12261
0.120922
0.117638
0.112703
0.106088
0.0978674
0.0881873
0.0760681
0.0599084
-0.021129
-0.0368259
-0.0483766
-0.0574273
-0.0650296
-0.0711246
-0.0757128
-0.0788859
-0.0807384
-0.0813613
-0.0808449
-0.0792774
-0.0767419
-0.0733163
-0.0690724
-0.0640756
-0.0583861
-0.0520585
-0.0451435
-0.0376884
-0.0297386
-0.0213386
-0.0125331
-0.00336869
0.00610513
0.0158346
0.0257605
0.0358171
0.0459306
0.0560191
0.0659909
0.0757447
0.0851692
0.0941435
0.102537
0.110213
0.117026
0.12283
0.127477
0.130822
0.132729
0.133073
0.131746
0.128662
0.123752
0.116973
0.108399
0.0981811
0.0852611
0.0679137
-0.0331979
-0.0498185
-0.0619817
-0.0714351
-0.0792985
-0.0855147
-0.0900914
-0.0931347
-0.0947539
-0.0950545
-0.0941408
-0.0921138
-0.0890681
-0.0850912
-0.0802629
-0.0746548
-0.0683316
-0.0613509
-0.053765
-0.0456217
-0.0369656
-0.0278398
-0.018287
-0.00835124
0.00192061
0.0124775
0.0232625
0.0342116
0.0452524
0.0563025
0.0672691
0.0780475
0.0885214
0.0985622
0.10803
0.116773
0.124634
0.131446
0.137041
0.141252
0.143919
0.144891
0.144039
0.141252
0.136444
0.129553
0.12065
0.109891
0.0961314
0.0775115
-0.0470535
-0.0646551
-0.0774555
-0.0873103
-0.0954131
-0.10171
-0.106218
-0.109061
-0.110366
-0.110256
-0.108854
-0.106275
-0.102627
-0.0980092
-0.0925104
-0.0862094
-0.0791755
-0.0714696
-0.0631453
-0.0542502
-0.0448279
-0.0349189
-0.0245631
-0.0138011
-0.00267572
0.00876568
0.0204699
0.0323762
0.0444142
0.0565029
0.0685492
0.0804463
0.0920733
0.103295
0.113961
0.123907
0.132958
0.140929
0.147628
0.152862
0.156443
0.158193
0.15795
0.155578
0.150965
0.144029
0.134832
0.123534
0.108895
0.0889086
-0.0628635
-0.081515
-0.0949811
-0.105234
-0.113547
-0.119872
-0.12424
-0.126795
-0.127687
-0.127062
-0.125061
-0.12182
-0.117462
-0.1121
-0.105833
-0.0987476
-0.0909183
-0.0824091
-0.0732745
-0.0635616
-0.0533117
-0.0425623
-0.031349
-0.0197075
-0.00767572
0.00470454
0.0173852
0.03031
0.0434129
0.0566154
0.0698255
0.0829359
0.0958225
0.108344
0.12034
0.131634
0.142032
0.151329
0.159307
0.165744
0.170419
0.173117
0.173645
0.17183
0.167528
0.160631
0.151188
0.13936
0.1238
0.102345
-0.0808188
-0.100604
-0.114769
-0.125412
-0.133898
-0.140184
-0.14432
-0.146478
-0.146836
-0.145566
-0.142835
-0.138801
-0.133608
-0.127382
-0.120235
-0.112262
-0.103544
-0.0941467
-0.0841257
-0.0735263
-0.0623869
-0.0507404
-0.0386169
-0.0260458
-0.0130581
0.000311183
0.014021
0.0280216
0.0422528
0.0566408
0.0710968
0.0855144
0.0997681
0.113711
0.127176
0.139972
0.151889
0.162697
0.172151
0.179994
0.185969
0.18982
0.191309
0.190223
0.186377
0.179626
0.170003
0.157662
0.14114
0.118098
-0.101139
-0.12216
-0.137063
-0.148085
-0.156691
-0.162852
-0.16664
-0.168263
-0.167935
-0.165862
-0.162243
-0.157261
-0.151083
-0.143855
-0.135701
-0.126726
-0.117016
-0.106639
-0.095651
-0.0840945
-0.0720034
-0.0594046
-0.046321
-0.032774
-0.0187861
-0.00438316
0.0104025
0.0255302
0.0409473
0.0565875
0.0723671
0.0881834
0.103911
0.119401
0.134479
0.148941
0.16256
0.175082
0.18623
0.195713
0.203227
0.20847
0.21115
0.211002
0.20779
0.201322
0.191603
0.17878
0.161253
0.136494
-0.12408
-0.146465
-0.162151
-0.173531
-0.182187
-0.188108
-0.1914
-0.192316
-0.191114
-0.188044
-0.183342
-0.177227
-0.169891
-0.1615
-0.152193
-0.142087
-0.131271
-0.119817
-0.107778
-0.095192
-0.0820877
-0.068484
-0.0543946
-0.039831
-0.0248049
-0.00933118
0.00656944
0.0228671
0.0395202
0.0564718
0.0736465
0.0909479
0.108254
0.125416
0.142253
0.158554
0.174073
0.188531
0.20162
0.213005
0.222335
0.22925
0.233396
0.234441
0.232083
0.226072
0.216373
0.203113
0.184541
0.157914
-0.149945
-0.173853
-0.190374
-0.202081
-0.21069
-0.216221
-0.218824
-0.218811
-0.216499
-0.212193
-0.206177
-0.198707
-0.190007
-0.180268
-0.169645
-0.158263
-0.146219
-0.133582
-0.120404
-0.106717
-0.09254
-0.0778828
-0.0627479
-0.0471342
-0.0310404
-0.0144676
0.00257711
0.0200778
0.0380064
0.0563188
0.0749512
0.0938167
0.112801
0.131757
0.150504
0.168822
0.18645
0.203086
0.218388
0.231976
0.243442
0.25236
0.2583
0.26085
0.259624
0.254292
0.244763
0.231135
0.211478
0.182808
-0.179098
-0.204729
-0.222146
-0.234129
-0.242558
-0.247497
-0.24916
-0.247936
-0.244221
-0.238384
-0.230769
-0.22168
-0.211378
-0.200077
-0.187953
-0.175137
-0.16173
-0.147802
-0.133395
-0.118535
-0.103231
-0.0874781
-0.0712656
-0.0545775
-0.0373968
-0.0197083
-0.00150251
0.0172215
0.0364525
0.0561626
0.0763035
0.0968017
0.117554
0.138422
0.159227
0.179745
0.199705
0.21878
0.236596
0.252726
0.266697
0.278008
0.286139
0.290577
0.290829
0.286463
0.277307
0.263411
0.242631
0.211712
-0.211986
-0.239593
-0.257973
-0.270152
-0.278215
-0.282292
-0.282686
-0.27989
-0.274399
-0.266669
-0.257113
-0.246093
-0.233908
-0.220804
-0.20697
-0.192548
-0.177638
-0.162303
-0.14658
-0.130481
-0.114
-0.0971177
-0.079806
-0.0620312
-0.0437574
-0.0249504
-0.00558105
0.0143715
0.0349163
0.0560455
0.0777304
0.099916
0.122515
0.145403
0.16841
0.191314
0.213835
0.235631
0.256293
0.275345
0.29225
0.306415
0.317215
0.324013
0.326183
0.323152
0.314641
0.300618
0.278686
0.245271
-0.249164
-0.27907
-0.298484
-0.310734
-0.318168
-0.321016
-0.319707
-0.314874
-0.30714
-0.297069
-0.285161
-0.27184
-0.257452
-0.242271
-0.226501
-0.210287
-0.193725
-0.176872
-0.159748
-0.14235
-0.124654
-0.106621
-0.0882017
-0.0693421
-0.0499847
-0.0300731
-0.0095551
0.0116132
0.0334645
0.0560155
0.0792615
0.103171
0.12768
0.152684
0.178027
0.203497
0.228817
0.25363
0.277501
0.299906
0.320235
0.337799
0.351847
0.361593
0.366237
0.365026
0.357525
0.343584
0.320482
0.284268
-0.291339
-0.323955
-0.344471
-0.356597
-0.363026
-0.364144
-0.360556
-0.353087
-0.342523
-0.329563
-0.314808
-0.298756
-0.2818
-0.264238
-0.246286
-0.228087
-0.209728
-0.191248
-0.172648
-0.153904
-0.134968
-0.115778
-0.0962605
-0.0763364
-0.0559237
-0.0349405
-0.0133093
0.0090409
0.03217
0.0561231
0.0809247
0.106573
0.133034
0.160228
0.188028
0.216239
0.244594
0.272736
0.300208
0.326445
0.350764
0.37237
0.390369
0.403793
0.411625
0.412873
0.406882
0.393322
0.369056
0.329673
-0.339427
-0.375281
-0.396949
-0.40864
-0.413525
-0.412221
-0.405589
-0.394709
-0.380579
-0.36406
-0.345874
-0.326595
-0.306661
-0.28639
-0.266
-0.245623
-0.225325
-0.205122
-0.184987
-0.164868
-0.144688
-0.124356
-0.10377
-0.0828236
-0.0614058
-0.0394071
-0.016721
0.00675296
0.0311061
0.0564158
0.0827411
0.110116
0.138543
0.16798
0.198335
0.229445
0.261067
0.292855
0.324348
0.354945
0.3839
0.410307
0.433111
0.451127
0.463067
0.467625
0.463837
0.451097
0.425716
0.382698
-0.394636
-0.434407
-0.45723
-0.467996
-0.47055
-0.465866
-0.455169
-0.439879
-0.421263
-0.400378
-0.378076
-0.355007
-0.331648
-0.308323
-0.285237
-0.262497
-0.240138
-0.218138
-0.196435
-0.174938
-0.153536
-0.132102
-0.110505
-0.0886033
-0.0662565
-0.043324
-0.019668
0.00484477
0.0303398
0.0569312
0.0847172
0.113774
0.144149
0.175848
0.208826
0.242968
0.278071
0.313823
0.349774
0.385311
0.419633
0.45173
0.480374
0.504129
0.521373
0.530384
0.529768
0.518505
0.492137
0.444895
-0.458606
-0.503164
-0.527039
-0.536096
-0.535162
-0.525762
-0.509636
-0.488651
-0.464411
-0.438196
-0.410991
-0.383513
-0.356256
-0.329531
-0.303507
-0.278247
-0.253735
-0.229899
-0.206628
-0.183785
-0.161215
-0.138753
-0.116235
-0.093475
-0.0703042
-0.0465487
-0.0220369
0.00339954
0.029923
0.0576876
0.0868358
0.117492
0.149757
0.183696
0.219325
0.256594
0.295364
0.335379
0.376232
0.417327
0.457834
0.496656
0.532391
0.563326
0.58743
0.602447
0.606383
0.597588
0.570509
0.518295
-0.53361
-0.584065
-0.608672
-0.614754
-0.608621
-0.592634
-0.569255
-0.540938
-0.509681
-0.477007
-0.444018
-0.411472
-0.379844
-0.349395
-0.320229
-0.292336
-0.265629
-0.239967
-0.215178
-0.191066
-0.167426
-0.144043
-0.120741
-0.0972491
-0.0733915
-0.048956
-0.0237344
0.00247761
0.0298816
0.0586738
0.0890458
0.121176
0.155225
0.19133
0.229583
0.270021
0.312594
0.357136
0.403321
0.450612
0.498199
0.544932
0.58926
0.629177
0.662177
0.685324
0.695796
0.691
0.663756
0.605628
-0.622905
-0.680632
-0.705213
-0.706262
-0.692374
-0.667177
-0.634126
-0.596406
-0.556463
-0.516043
-0.476325
-0.438047
-0.401608
-0.367171
-0.334729
-0.304166
-0.275294
-0.247885
-0.221688
-0.196441
-0.171882
-0.147751
-0.123796
-0.0997557
-0.0753883
-0.0504503
-0.0246996
0.00210485
0.030204
0.059839
0.0912509
0.124678
0.16035
0.198483
0.239265
0.282839
0.329276
0.378541
0.43044
0.484556
0.540166
0.596142
0.650837
0.701975
0.746529
0.780727
0.800628
0.80223
0.775885
0.71069
-0.731328
-0.797917
-0.82084
-0.81348
-0.788005
-0.74993
-0.704026
-0.654339
-0.603761
-0.554191
-0.506788
-0.462169
-0.420574
-0.381992
-0.346251
-0.313084
-0.282175
-0.253184
-0.225767
-0.199587
-0.174316
-0.14964
-0.125257
-0.100873
-0.0762069
-0.0509797
-0.0249157
0.00226134
0.0308314
0.06108
0.0932997
0.12779
0.164856
0.204804
0.247931
0.29451
0.344767
0.398842
0.456738
0.518242
0.582818
0.649472
0.716579
0.781681
0.84124
0.89051
0.924089
0.935915
0.912519
0.838978
-0.866384
-0.943321
-0.961223
-0.939873
-0.897067
-0.841027
-0.77816
-0.713423
-0.650038
-0.589887
-0.533928
-0.482508
-0.435581
-0.39287
-0.353966
-0.318408
-0.285714
-0.255414
-0.227057
-0.200221
-0.174509
-0.149553
-0.125003
-0.100529
-0.075814
-0.0505471
-0.0244218
0.00287117
0.0316478
0.0622358
0.0949782
0.130237
0.168394
0.209852
0.25503
0.304354
0.358237
0.417047
0.481057
0.550359
0.624746
0.703535
0.785318
0.867655
0.946631
1.01649
1.07002
1.09824
1.08175
0.998841
-1.04033
-1.1279
-1.13398
-1.08942
-1.02072
-0.939769
-0.854787
-0.77146
-0.693022
-0.620997
-0.555859
-0.497458
-0.445299
-0.398723
-0.357012
-0.319456
-0.285382
-0.25417
-0.225255
-0.198124
-0.172313
-0.147398
-0.122989
-0.0987192
-0.074242
-0.0492199
-0.0233194
0.00379665
0.0324759
0.0630834
0.0960086
0.131672
0.170533
0.213093
0.2599
0.311547
0.368665
0.431902
0.501879
0.579118
0.663911
0.75615
0.854938
0.958244
1.06213
1.16003
1.24277
1.29742
1.29549
1.20369
-1.27441
-1.36836
-1.349
-1.26608
-1.15892
-1.04387
-0.930633
-0.824984
-0.72948
-0.644719
-0.570258
-0.505152
-0.448262
-0.398422
-0.354533
-0.315594
-0.280719
-0.24913
-0.220143
-0.193163
-0.16766
-0.143164
-0.119246
-0.0955142
-0.0715961
-0.0471346
-0.0217762
0.00483728
0.0330778
0.0633407
0.0960545
0.131692
0.170781
0.213917
0.261778
0.315132
0.374846
0.441887
0.517302
0.602172
0.697504
0.804048
0.921939
1.05014
1.18547
1.32123
1.44662
1.54396
1.57153
1.47647
-1.60762
-1.69008
-1.61787
-1.47207
-1.30868
-1.14806
-0.999951
-0.86869
-0.754925
-0.65745
-0.574333
-0.503485
-0.442914
-0.390842
-0.34573
-0.306271
-0.271361
-0.24007
-0.211609
-0.185306
-0.160582
-0.136929
-0.113893
-0.0910633
-0.0680534
-0.0444945
-0.0200218
0.00573459
0.0331617
0.0626748
0.0947302
0.12984
0.168589
0.211654
0.259828
0.314045
0.375412
0.445231
0.525028
0.616553
0.721739
0.842577
0.98082
1.13738
1.31114
1.49695
1.68392
1.85004
1.93654
1.85884
-2.11203
-2.13077
-1.95204
-1.7048
-1.46133
-1.24226
-1.05351
-0.894994
-0.763506
-0.654857
-0.564969
-0.490266
-0.42775
-0.374974
-0.329955
-0.291095
-0.257099
-0.226911
-0.199665
-0.174635
-0.15121
-0.128862
-0.107128
-0.0855877
-0.0638547
-0.0415586
-0.0183344
0.00618912
0.032402
0.0607264
0.0916314
0.125651
0.163406
0.205631
0.253206
0.307204
0.368938
0.44003
0.522486
0.61878
0.73193
0.865522
1.02361
1.21028
1.42855
1.67807
1.95195
2.22762
2.42969
2.42633
-2.91848
-2.74061
-2.35921
-1.9548
-1.60144
-1.31152
-1.07927
-0.895073
-0.749123
-0.632908
-0.539612
-0.463958
-0.401916
-0.350413
-0.307093
-0.270136
-0.238119
-0.209913
-0.184611
-0.16147
-0.139873
-0.119293
-0.0992737
-0.0794043
-0.0593079
-0.0386258
-0.0170044
0.00591668
0.0305174
0.0572117
0.0864634
0.118807
0.154872
0.195415
0.241363
0.293872
0.354399
0.42481
0.507519
0.605676
0.723409
0.866118
1.04077
1.25603
1.52192
1.84831
2.24044
2.68436
3.10194
3.3132
-4.32374
-3.56006
-2.81519
-2.18875
-1.69845
-1.33202
-1.06092
-0.858648
-0.705672
-0.58821
-0.496555
-0.423873
-0.365319
-0.317404
-0.277572
-0.243913
-0.214974
-0.189629
-0.166985
-0.146324
-0.127053
-0.108671
-0.0907469
-0.072895
-0.0547624
-0.0360136
-0.0163185
0.00465985
0.0272779
0.0519253
0.0790415
0.109136
0.142816
0.180817
0.224057
0.273695
0.331231
0.398634
0.478549
0.574581
0.691738
0.837088
1.02067
1.25673
1.56546
1.97452
2.5137
3.19361
3.99337
4.82422
-7.15773
-4.55828
-3.13896
-2.25239
-1.64473
-1.2337
-0.95399
-0.757461
-0.61483
-0.508456
-0.427186
-0.363735
-0.313219
-0.272264
-0.238469
-0.210076
-0.185768
-0.164531
-0.145571
-0.128249
-0.112039
-0.0965009
-0.0812527
-0.0659551
-0.0502968
-0.0339822
-0.0167193
0.00178822
0.0218553
0.0438266
0.068091
0.0951007
0.125395
0.159632
0.198634
0.24345
0.295452
0.356468
0.429
0.516565
0.624248
0.759633
0.934341
1.16672
1.48712
1.94581
2.61223
3.57097
5.07647
7.79531
-12.0261
-5.64107
-2.97466
-1.87562
-1.27838
-0.923509
-0.703731
-0.557801
-0.454579
-0.378308
-0.320165
-0.274755
-0.238573
-0.209224
-0.184996
-0.164625
-0.14715
-0.131825
-0.118055
-0.105358
-0.093332
-0.0816372
-0.0699763
-0.0580832
-0.0457123
-0.0326291
-0.0186038
-0.00339907
0.0132338
0.0315662
0.0519034
0.0745972
0.100064
0.128808
0.161452
0.198785
0.241826
0.291921
0.350901
0.421333
0.506961
0.613519
0.750322
0.93377
1.19582
1.6003
2.26369
3.45758
6.24105
12.7519
)
;

boundaryField
{
    movingWall
    {
        type            zeroGradient;
    }
    fixedWalls
    {
        type            zeroGradient;
    }
    frontAndBack
    {
        type            empty;
    }
}


// ************************************************************************* //
