/*--------------------------------*- C++ -*----------------------------------*\
  =========                 |
  \\      /  F ield         | OpenFOAM: The Open Source CFD Toolbox
   \\    /   O peration     | Website:  https://openfoam.org
    \\  /    A nd           | Version:  7
     \\/     M anipulation  |
\*---------------------------------------------------------------------------*/
FoamFile
{
    version     2.0;
    format      ascii;
    class       volScalarField;
    location    "0.0536";
    object      p;
}
// * * * * * * * * * * * * * * * * * * * * * * * * * * * * * * * * * * * * * //

dimensions      [0 2 -2 0 0 0 0];

internalField   nonuniform List<scalar> 
2500
(
-2.04938e-05
-6.51209
-9.29741
-10.4935
-11.1591
-11.5657
-11.8295
-12.0145
-12.1524
-12.2597
-12.3456
-12.4158
-12.4741
-12.523
-12.5643
-12.5994
-12.6293
-12.6549
-12.6766
-12.6951
-12.7109
-12.7242
-12.7355
-12.7451
-12.7534
-12.7605
-12.767
-12.7729
-12.7788
-12.785
-12.7918
-12.7998
-12.8094
-12.8211
-12.8358
-12.8541
-12.8771
-12.9061
-12.9428
-12.9895
-13.0498
-13.1289
-13.2355
-13.385
-13.6085
-13.9669
-14.567
-15.6681
-18.3354
-24.7201
-4.95545
-7.67552
-9.18244
-10.1428
-10.8108
-11.2711
-11.593
-11.8266
-12.0023
-12.1383
-12.2462
-12.3336
-12.4056
-12.4656
-12.5161
-12.5589
-12.5955
-12.6269
-12.6538
-12.6771
-12.6972
-12.7147
-12.7299
-12.7434
-12.7554
-12.7663
-12.7765
-12.7864
-12.7964
-12.8068
-12.8183
-12.8312
-12.8463
-12.8641
-12.8857
-12.9121
-12.9446
-12.9851
-13.0359
-13.1003
-13.1833
-13.2919
-13.4373
-13.6368
-13.9196
-14.3336
-14.9438
-15.8321
-17.2523
-19.8513
-7.92476
-8.75735
-9.55852
-10.2397
-10.7802
-11.1906
-11.5005
-11.7376
-11.922
-12.0679
-12.1853
-12.2812
-12.3606
-12.4271
-12.4833
-12.5312
-12.5723
-12.6077
-12.6383
-12.665
-12.6883
-12.7088
-12.727
-12.7433
-12.7581
-12.7718
-12.7848
-12.7976
-12.8106
-12.8242
-12.8389
-12.8554
-12.8743
-12.8964
-12.9227
-12.9544
-12.9929
-13.0402
-13.0988
-13.1723
-13.2654
-13.3848
-13.5402
-13.7452
-14.0191
-14.3883
-14.8809
-15.509
-16.2547
-17.018
-9.43403
-9.6476
-10.0669
-10.5121
-10.9054
-11.2328
-11.4996
-11.7157
-11.891
-12.0342
-12.1521
-12.2502
-12.3324
-12.4021
-12.4614
-12.5124
-12.5563
-12.5945
-12.6278
-12.6569
-12.6827
-12.7055
-12.7259
-12.7444
-12.7614
-12.7774
-12.7926
-12.8077
-12.8229
-12.8389
-12.8562
-12.8753
-12.8969
-12.922
-12.9514
-12.9863
-13.0283
-13.0791
-13.1411
-13.2175
-13.3121
-13.4301
-13.5784
-13.7652
-14.0002
-14.2928
-14.6484
-15.0546
-15.4369
-15.6147
-10.3193
-10.3191
-10.5232
-10.8003
-11.0753
-11.3257
-11.5447
-11.732
-11.8905
-12.0244
-12.1377
-12.2339
-12.3159
-12.3863
-12.4469
-12.4995
-12.5452
-12.5852
-12.6204
-12.6515
-12.6791
-12.7038
-12.726
-12.7464
-12.7652
-12.783
-12.8001
-12.817
-12.8341
-12.852
-12.8712
-12.8923
-12.916
-12.9431
-12.9745
-13.0113
-13.055
-13.107
-13.1695
-13.2449
-13.336
-13.4465
-13.5803
-13.7415
-13.933
-14.1548
-14.4007
-14.6498
-14.8296
-14.8112
-10.8858
-10.8119
-10.9009
-11.0686
-11.2568
-11.4434
-11.6178
-11.7748
-11.9133
-12.0343
-12.1395
-12.2308
-12.3101
-12.3792
-12.4395
-12.4924
-12.5388
-12.5798
-12.6161
-12.6484
-12.6774
-12.7034
-12.7271
-12.7488
-12.7691
-12.7882
-12.8068
-12.8251
-12.8437
-12.863
-12.8836
-12.906
-12.931
-12.9592
-12.9916
-13.029
-13.0728
-13.1242
-13.1848
-13.2563
-13.3408
-13.4402
-13.5564
-13.6904
-13.8414
-14.0048
-14.1707
-14.3186
-14.3923
-14.3106
-11.2677
-11.177
-11.2076
-11.3069
-11.4336
-11.5703
-11.7061
-11.8347
-11.9526
-12.0592
-12.1543
-12.2388
-12.3137
-12.3799
-12.4386
-12.4906
-12.5368
-12.5779
-12.6146
-12.6475
-12.6772
-12.7041
-12.7287
-12.7515
-12.7727
-12.7929
-12.8124
-12.8317
-12.8513
-12.8715
-12.8929
-12.9161
-12.9417
-12.9702
-13.0026
-13.0397
-13.0823
-13.1315
-13.1885
-13.2544
-13.3304
-13.4172
-13.5153
-13.6238
-13.7401
-13.8582
-13.9681
-14.0533
-14.0745
-13.982
-11.5407
-11.4538
-11.4553
-11.5123
-11.5966
-11.6955
-11.8
-11.9035
-12.0023
-12.0943
-12.1787
-12.2554
-12.3247
-12.387
-12.443
-12.4932
-12.5383
-12.5789
-12.6154
-12.6484
-12.6783
-12.7056
-12.7307
-12.754
-12.7758
-12.7967
-12.8168
-12.8367
-12.8568
-12.8775
-12.8993
-12.9227
-12.9482
-12.9765
-13.0081
-13.0439
-13.0844
-13.1305
-13.183
-13.2423
-13.3091
-13.3834
-13.4646
-13.551
-13.6392
-13.7234
-13.7951
-13.8422
-13.8385
-13.7531
-11.7464
-11.6689
-11.6562
-11.6872
-11.7426
-11.8137
-11.8933
-11.9758
-12.0575
-12.1359
-12.2097
-12.2783
-12.3414
-12.3991
-12.4517
-12.4995
-12.5429
-12.5822
-12.618
-12.6505
-12.6803
-12.7076
-12.7327
-12.7562
-12.7783
-12.7994
-12.8198
-12.8399
-12.8602
-12.8809
-12.9027
-12.9258
-12.9508
-12.9783
-13.0086
-13.0425
-13.0804
-13.1228
-13.1702
-13.2228
-13.2806
-13.3432
-13.4095
-13.4775
-13.5439
-13.6033
-13.6494
-13.6737
-13.6586
-13.5846
-11.9077
-11.8401
-11.8209
-11.8358
-11.8716
-11.9223
-11.9827
-12.048
-12.1149
-12.1811
-12.2449
-12.3055
-12.3622
-12.415
-12.4638
-12.5086
-12.5498
-12.5875
-12.622
-12.6537
-12.6828
-12.7097
-12.7346
-12.7579
-12.7799
-12.8009
-12.8213
-12.8413
-12.8614
-12.8819
-12.9032
-12.9257
-12.9499
-12.9761
-13.0048
-13.0364
-13.0713
-13.1097
-13.152
-13.198
-13.2474
-13.2997
-13.3534
-13.4066
-13.4561
-13.4979
-13.5269
-13.5376
-13.518
-13.4552
-12.0382
-11.9793
-11.9575
-11.9625
-11.985
-12.0209
-12.0664
-12.1179
-12.1723
-12.2277
-12.2824
-12.3354
-12.3859
-12.4336
-12.4783
-12.5199
-12.5585
-12.5942
-12.6271
-12.6576
-12.6857
-12.7119
-12.7362
-12.759
-12.7806
-12.8013
-12.8213
-12.8409
-12.8606
-12.8805
-12.9011
-12.9228
-12.9458
-12.9705
-12.9973
-13.0264
-13.0581
-13.0926
-13.1299
-13.1697
-13.2117
-13.255
-13.2983
-13.3397
-13.3767
-13.4058
-13.4235
-13.4262
-13.4056
-13.3525
-12.146
-12.0946
-12.0723
-12.0713
-12.0846
-12.1098
-12.1439
-12.1842
-12.2284
-12.2744
-12.3209
-12.3668
-12.4114
-12.4541
-12.4946
-12.5328
-12.5686
-12.6019
-12.633
-12.662
-12.6889
-12.714
-12.7374
-12.7595
-12.7805
-12.8005
-12.8199
-12.8389
-12.8579
-12.877
-12.8967
-12.9173
-12.9389
-12.9619
-12.9866
-13.0132
-13.0418
-13.0725
-13.1052
-13.1395
-13.1749
-13.2107
-13.2455
-13.2777
-13.3051
-13.3253
-13.3357
-13.3338
-13.3137
-13.2688
-12.2367
-12.1916
-12.1698
-12.1651
-12.1723
-12.1896
-12.2151
-12.2465
-12.2821
-12.3202
-12.3594
-12.399
-12.4379
-12.4758
-12.5122
-12.5468
-12.5796
-12.6105
-12.6395
-12.6667
-12.6921
-12.7159
-12.7383
-12.7594
-12.7795
-12.7987
-12.8172
-12.8354
-12.8535
-12.8717
-12.8903
-12.9096
-12.9297
-12.951
-12.9736
-12.9977
-13.0233
-13.0503
-13.0788
-13.1082
-13.138
-13.1674
-13.1954
-13.2204
-13.2409
-13.2548
-13.2603
-13.2559
-13.2372
-13.1992
-12.314
-12.2743
-12.2536
-12.2468
-12.2497
-12.2613
-12.2801
-12.3046
-12.3331
-12.3644
-12.3974
-12.4311
-12.4649
-12.4981
-12.5305
-12.5617
-12.5915
-12.6197
-12.6465
-12.6717
-12.6954
-12.7178
-12.7389
-12.7588
-12.7778
-12.7959
-12.8135
-12.8307
-12.8477
-12.8648
-12.8822
-12.9001
-12.9186
-12.9381
-12.9586
-12.9802
-13.003
-13.0268
-13.0514
-13.0766
-13.1016
-13.1259
-13.1483
-13.1679
-13.1831
-13.1926
-13.195
-13.1894
-13.1725
-13.1401
-12.3808
-12.3457
-12.3264
-12.3184
-12.3185
-12.3259
-12.3396
-12.3585
-12.3812
-12.4068
-12.4342
-12.4628
-12.4919
-12.5208
-12.5493
-12.5771
-12.6038
-12.6294
-12.6538
-12.677
-12.6988
-12.7196
-12.7392
-12.7577
-12.7755
-12.7925
-12.8089
-12.8249
-12.8408
-12.8567
-12.8727
-12.8891
-12.9061
-12.9238
-12.9422
-12.9615
-12.9816
-13.0024
-13.0237
-13.0451
-13.0662
-13.0861
-13.1043
-13.1196
-13.131
-13.1374
-13.1379
-13.1318
-13.1168
-13.0894
-12.4389
-12.4079
-12.3901
-12.3816
-12.3798
-12.3842
-12.394
-12.4084
-12.4264
-12.4472
-12.4699
-12.4939
-12.5186
-12.5436
-12.5684
-12.5928
-12.6166
-12.6395
-12.6615
-12.6824
-12.7024
-12.7213
-12.7393
-12.7564
-12.7728
-12.7884
-12.8036
-12.8184
-12.833
-12.8475
-12.8622
-12.8771
-12.8925
-12.9083
-12.9248
-12.9419
-12.9596
-12.9777
-12.996
-13.0142
-13.0318
-13.0483
-13.063
-13.075
-13.0836
-13.0879
-13.0873
-13.0814
-13.0682
-13.045
-12.49
-12.4627
-12.4464
-12.4379
-12.4349
-12.4371
-12.444
-12.4548
-12.4689
-12.4855
-12.5041
-12.5241
-12.5449
-12.5662
-12.5876
-12.6088
-12.6296
-12.6499
-12.6694
-12.6882
-12.7061
-12.7232
-12.7395
-12.755
-12.7698
-12.7841
-12.7979
-12.8113
-12.8245
-12.8377
-12.8509
-12.8643
-12.878
-12.8921
-12.9067
-12.9217
-12.9371
-12.9528
-12.9685
-12.984
-12.9987
-13.0124
-13.0243
-13.0338
-13.0404
-13.0433
-13.0421
-13.0366
-13.0252
-13.0058
-12.5353
-12.5113
-12.4966
-12.4884
-12.4847
-12.4853
-12.4899
-12.4979
-12.5088
-12.522
-12.5371
-12.5534
-12.5707
-12.5887
-12.6068
-12.625
-12.643
-12.6606
-12.6777
-12.6942
-12.71
-12.7252
-12.7397
-12.7536
-12.7668
-12.7796
-12.7919
-12.8039
-12.8157
-12.8274
-12.8391
-12.851
-12.8631
-12.8754
-12.8882
-12.9012
-12.9145
-12.928
-12.9414
-12.9545
-12.9668
-12.9781
-12.9878
-12.9955
-13.0005
-13.0025
-13.0011
-12.9962
-12.9867
-12.9707
-12.5758
-12.5549
-12.5418
-12.534
-12.53
-12.5295
-12.5324
-12.5382
-12.5464
-12.5567
-12.5687
-12.5819
-12.596
-12.6108
-12.626
-12.6413
-12.6566
-12.6716
-12.6863
-12.7006
-12.7143
-12.7275
-12.7402
-12.7523
-12.7639
-12.7751
-12.7859
-12.7964
-12.8067
-12.8169
-12.8271
-12.8374
-12.8478
-12.8585
-12.8695
-12.8806
-12.892
-12.9034
-12.9148
-12.9257
-12.936
-12.9454
-12.9533
-12.9595
-12.9634
-12.9649
-12.9636
-12.9595
-12.9517
-12.9388
-12.6123
-12.5943
-12.5827
-12.5756
-12.5716
-12.5704
-12.572
-12.576
-12.582
-12.5898
-12.5991
-12.6095
-12.6208
-12.6327
-12.6451
-12.6577
-12.6704
-12.6829
-12.6953
-12.7073
-12.719
-12.7302
-12.741
-12.7514
-12.7613
-12.7708
-12.78
-12.789
-12.7977
-12.8063
-12.815
-12.8237
-12.8325
-12.8415
-12.8507
-12.8601
-12.8696
-12.8792
-12.8886
-12.8977
-12.9062
-12.9139
-12.9204
-12.9254
-12.9286
-12.9298
-12.9287
-12.9255
-12.9194
-12.9094
-12.6455
-12.6302
-12.6203
-12.6139
-12.61
-12.6084
-12.609
-12.6116
-12.6158
-12.6215
-12.6284
-12.6363
-12.6451
-12.6544
-12.6642
-12.6743
-12.6844
-12.6946
-12.7047
-12.7145
-12.7241
-12.7334
-12.7423
-12.7509
-12.759
-12.7669
-12.7744
-12.7818
-12.7889
-12.796
-12.803
-12.8101
-12.8172
-12.8246
-12.832
-12.8397
-12.8474
-12.8552
-12.8629
-12.8703
-12.8773
-12.8835
-12.8888
-12.8929
-12.8955
-12.8966
-12.896
-12.8937
-12.8893
-12.882
-12.6761
-12.6634
-12.6551
-12.6496
-12.6459
-12.6441
-12.644
-12.6454
-12.6481
-12.652
-12.6568
-12.6625
-12.6689
-12.6759
-12.6833
-12.6909
-12.6988
-12.7067
-12.7145
-12.7223
-12.7298
-12.7371
-12.7441
-12.7509
-12.7573
-12.7634
-12.7693
-12.775
-12.7805
-12.7859
-12.7913
-12.7967
-12.8022
-12.8078
-12.8136
-12.8195
-12.8255
-12.8316
-12.8376
-12.8434
-12.8489
-12.8539
-12.8581
-12.8615
-12.8638
-12.8649
-12.8647
-12.8634
-12.8607
-12.856
-12.7045
-12.6944
-12.6876
-12.683
-12.6798
-12.6779
-12.6772
-12.6777
-12.6791
-12.6814
-12.6845
-12.6882
-12.6925
-12.6972
-12.7024
-12.7078
-12.7134
-12.7191
-12.7248
-12.7305
-12.736
-12.7414
-12.7466
-12.7515
-12.7561
-12.7605
-12.7647
-12.7687
-12.7725
-12.7762
-12.7799
-12.7836
-12.7874
-12.7913
-12.7953
-12.7995
-12.8038
-12.8082
-12.8126
-12.8169
-12.821
-12.8248
-12.8282
-12.8309
-12.8329
-12.8341
-12.8345
-12.8342
-12.8331
-12.8309
-12.7313
-12.7237
-12.7185
-12.7148
-12.7121
-12.7102
-12.7092
-12.7089
-12.7092
-12.7101
-12.7115
-12.7134
-12.7157
-12.7185
-12.7215
-12.7248
-12.7283
-12.7319
-12.7356
-12.7393
-12.7429
-12.7463
-12.7496
-12.7527
-12.7556
-12.7582
-12.7607
-12.7629
-12.765
-12.767
-12.769
-12.7709
-12.7729
-12.775
-12.7773
-12.7797
-12.7823
-12.785
-12.7878
-12.7906
-12.7934
-12.7961
-12.7985
-12.8007
-12.8024
-12.8038
-12.8049
-12.8055
-12.806
-12.8063
-12.7569
-12.7517
-12.7481
-12.7454
-12.7432
-12.7415
-12.7402
-12.7392
-12.7385
-12.7382
-12.7381
-12.7383
-12.7388
-12.7397
-12.7407
-12.742
-12.7435
-12.7452
-12.7469
-12.7486
-12.7503
-12.7519
-12.7534
-12.7547
-12.7557
-12.7566
-12.7573
-12.7578
-12.7581
-12.7584
-12.7585
-12.7587
-12.7588
-12.7591
-12.7595
-12.7601
-12.7609
-12.7619
-12.7631
-12.7644
-12.7659
-12.7674
-12.769
-12.7706
-12.7721
-12.7737
-12.7753
-12.777
-12.779
-12.7818
-12.7818
-12.779
-12.777
-12.7753
-12.7737
-12.7721
-12.7706
-12.769
-12.7674
-12.7659
-12.7644
-12.7631
-12.7619
-12.7609
-12.7601
-12.7595
-12.7591
-12.7588
-12.7587
-12.7585
-12.7584
-12.7581
-12.7578
-12.7573
-12.7566
-12.7557
-12.7547
-12.7534
-12.7519
-12.7503
-12.7486
-12.7469
-12.7452
-12.7435
-12.7421
-12.7407
-12.7397
-12.7388
-12.7383
-12.7381
-12.7382
-12.7385
-12.7392
-12.7402
-12.7415
-12.7432
-12.7454
-12.7481
-12.7517
-12.7569
-12.8063
-12.806
-12.8055
-12.8049
-12.8038
-12.8024
-12.8007
-12.7985
-12.7961
-12.7934
-12.7906
-12.7878
-12.785
-12.7823
-12.7797
-12.7773
-12.775
-12.7729
-12.7709
-12.769
-12.767
-12.765
-12.7629
-12.7607
-12.7582
-12.7556
-12.7527
-12.7496
-12.7463
-12.7429
-12.7393
-12.7356
-12.7319
-12.7283
-12.7248
-12.7215
-12.7185
-12.7157
-12.7134
-12.7115
-12.7101
-12.7092
-12.7089
-12.7092
-12.7102
-12.7121
-12.7148
-12.7185
-12.7237
-12.7313
-12.8309
-12.8331
-12.8342
-12.8345
-12.8341
-12.8329
-12.8309
-12.8282
-12.8248
-12.821
-12.8169
-12.8126
-12.8082
-12.8038
-12.7995
-12.7953
-12.7913
-12.7874
-12.7836
-12.7799
-12.7762
-12.7725
-12.7687
-12.7647
-12.7605
-12.7561
-12.7515
-12.7466
-12.7414
-12.736
-12.7305
-12.7248
-12.7191
-12.7134
-12.7078
-12.7024
-12.6972
-12.6925
-12.6882
-12.6845
-12.6814
-12.6791
-12.6777
-12.6772
-12.6779
-12.6798
-12.683
-12.6876
-12.6944
-12.7045
-12.856
-12.8607
-12.8634
-12.8647
-12.8649
-12.8638
-12.8615
-12.8581
-12.8539
-12.8489
-12.8434
-12.8376
-12.8316
-12.8255
-12.8195
-12.8136
-12.8078
-12.8022
-12.7967
-12.7913
-12.7859
-12.7805
-12.775
-12.7693
-12.7634
-12.7573
-12.7509
-12.7441
-12.7371
-12.7298
-12.7223
-12.7145
-12.7067
-12.6988
-12.6909
-12.6833
-12.6759
-12.6689
-12.6625
-12.6568
-12.652
-12.6481
-12.6454
-12.644
-12.6441
-12.6459
-12.6496
-12.6551
-12.6634
-12.6761
-12.882
-12.8893
-12.8937
-12.896
-12.8966
-12.8955
-12.8929
-12.8888
-12.8835
-12.8773
-12.8703
-12.8629
-12.8552
-12.8474
-12.8397
-12.832
-12.8246
-12.8172
-12.8101
-12.803
-12.796
-12.7889
-12.7818
-12.7744
-12.7669
-12.759
-12.7509
-12.7423
-12.7334
-12.7241
-12.7145
-12.7047
-12.6946
-12.6844
-12.6743
-12.6642
-12.6544
-12.6451
-12.6363
-12.6284
-12.6215
-12.6158
-12.6116
-12.609
-12.6084
-12.61
-12.6139
-12.6203
-12.6302
-12.6455
-12.9094
-12.9194
-12.9255
-12.9287
-12.9298
-12.9286
-12.9254
-12.9204
-12.9139
-12.9062
-12.8977
-12.8886
-12.8792
-12.8696
-12.8601
-12.8507
-12.8415
-12.8325
-12.8237
-12.815
-12.8063
-12.7977
-12.789
-12.78
-12.7708
-12.7613
-12.7514
-12.741
-12.7302
-12.719
-12.7073
-12.6953
-12.6829
-12.6704
-12.6577
-12.6451
-12.6328
-12.6208
-12.6095
-12.5991
-12.5898
-12.582
-12.576
-12.572
-12.5704
-12.5716
-12.5756
-12.5827
-12.5943
-12.6123
-12.9388
-12.9517
-12.9595
-12.9636
-12.9649
-12.9634
-12.9595
-12.9533
-12.9454
-12.936
-12.9257
-12.9148
-12.9034
-12.892
-12.8806
-12.8695
-12.8585
-12.8478
-12.8374
-12.8271
-12.8169
-12.8067
-12.7964
-12.7859
-12.7751
-12.7639
-12.7523
-12.7402
-12.7275
-12.7143
-12.7006
-12.6863
-12.6716
-12.6566
-12.6413
-12.626
-12.6108
-12.596
-12.5819
-12.5687
-12.5567
-12.5464
-12.5382
-12.5324
-12.5295
-12.53
-12.534
-12.5418
-12.5549
-12.5758
-12.9707
-12.9867
-12.9963
-13.0011
-13.0025
-13.0005
-12.9955
-12.9878
-12.9781
-12.9668
-12.9545
-12.9414
-12.928
-12.9145
-12.9012
-12.8882
-12.8754
-12.8631
-12.851
-12.8391
-12.8274
-12.8157
-12.8039
-12.7919
-12.7796
-12.7668
-12.7536
-12.7397
-12.7252
-12.71
-12.6942
-12.6777
-12.6606
-12.643
-12.625
-12.6068
-12.5887
-12.5708
-12.5534
-12.5371
-12.522
-12.5088
-12.4979
-12.4899
-12.4853
-12.4847
-12.4884
-12.4966
-12.5113
-12.5353
-13.0058
-13.0252
-13.0366
-13.0421
-13.0433
-13.0404
-13.0338
-13.0243
-13.0124
-12.9987
-12.984
-12.9685
-12.9528
-12.9371
-12.9217
-12.9067
-12.8921
-12.878
-12.8643
-12.8509
-12.8377
-12.8245
-12.8113
-12.7979
-12.7841
-12.7698
-12.755
-12.7395
-12.7232
-12.7061
-12.6882
-12.6694
-12.6499
-12.6296
-12.6088
-12.5876
-12.5662
-12.5449
-12.5241
-12.5041
-12.4856
-12.4689
-12.4548
-12.444
-12.4371
-12.4349
-12.4379
-12.4464
-12.4627
-12.49
-13.045
-13.0682
-13.0814
-13.0873
-13.0879
-13.0836
-13.075
-13.063
-13.0483
-13.0318
-13.0142
-12.996
-12.9777
-12.9596
-12.9419
-12.9248
-12.9083
-12.8925
-12.8771
-12.8622
-12.8475
-12.833
-12.8184
-12.8036
-12.7884
-12.7728
-12.7564
-12.7393
-12.7213
-12.7024
-12.6824
-12.6615
-12.6395
-12.6166
-12.5928
-12.5684
-12.5436
-12.5186
-12.4939
-12.4699
-12.4472
-12.4264
-12.4084
-12.394
-12.3842
-12.3798
-12.3816
-12.3901
-12.4079
-12.4389
-13.0894
-13.1168
-13.1318
-13.1379
-13.1374
-13.131
-13.1196
-13.1043
-13.0861
-13.0662
-13.0451
-13.0237
-13.0024
-12.9816
-12.9615
-12.9422
-12.9238
-12.9061
-12.8891
-12.8727
-12.8567
-12.8408
-12.8249
-12.8089
-12.7925
-12.7755
-12.7577
-12.7392
-12.7196
-12.6989
-12.677
-12.6538
-12.6294
-12.6038
-12.5771
-12.5493
-12.5208
-12.4919
-12.4628
-12.4342
-12.4068
-12.3812
-12.3585
-12.3396
-12.3259
-12.3185
-12.3184
-12.3264
-12.3457
-12.3808
-13.1401
-13.1725
-13.1894
-13.195
-13.1926
-13.1831
-13.1679
-13.1483
-13.1259
-13.1016
-13.0766
-13.0514
-13.0268
-13.003
-12.9802
-12.9586
-12.9381
-12.9186
-12.9001
-12.8822
-12.8648
-12.8477
-12.8307
-12.8135
-12.7959
-12.7778
-12.7588
-12.7389
-12.7178
-12.6954
-12.6717
-12.6465
-12.6197
-12.5915
-12.5617
-12.5305
-12.4981
-12.4649
-12.4311
-12.3974
-12.3644
-12.3331
-12.3046
-12.2801
-12.2613
-12.2497
-12.2468
-12.2536
-12.2744
-12.3141
-13.1992
-13.2372
-13.2559
-13.2603
-13.2548
-13.2409
-13.2204
-13.1954
-13.1674
-13.138
-13.1082
-13.0788
-13.0503
-13.0233
-12.9977
-12.9736
-12.951
-12.9297
-12.9096
-12.8903
-12.8717
-12.8535
-12.8354
-12.8172
-12.7987
-12.7795
-12.7594
-12.7383
-12.7159
-12.6921
-12.6667
-12.6395
-12.6105
-12.5796
-12.5468
-12.5122
-12.4758
-12.4379
-12.399
-12.3595
-12.3202
-12.2821
-12.2465
-12.2151
-12.1896
-12.1723
-12.1651
-12.1698
-12.1916
-12.2367
-13.2688
-13.3137
-13.3338
-13.3357
-13.3253
-13.3051
-13.2777
-13.2455
-13.2107
-13.1749
-13.1395
-13.1052
-13.0725
-13.0418
-13.0132
-12.9866
-12.9619
-12.9389
-12.9173
-12.8967
-12.877
-12.8579
-12.8389
-12.8199
-12.8005
-12.7805
-12.7595
-12.7374
-12.714
-12.6889
-12.662
-12.633
-12.6019
-12.5686
-12.5328
-12.4946
-12.4541
-12.4114
-12.3668
-12.3209
-12.2744
-12.2284
-12.1842
-12.1439
-12.1098
-12.0846
-12.0713
-12.0723
-12.0946
-12.146
-13.3525
-13.4056
-13.4262
-13.4235
-13.4058
-13.3767
-13.3397
-13.2983
-13.255
-13.2117
-13.1697
-13.1299
-13.0926
-13.0581
-13.0264
-12.9973
-12.9705
-12.9458
-12.9228
-12.9011
-12.8805
-12.8606
-12.8409
-12.8213
-12.8013
-12.7806
-12.759
-12.7362
-12.7119
-12.6857
-12.6576
-12.6271
-12.5942
-12.5585
-12.5199
-12.4783
-12.4336
-12.3859
-12.3354
-12.2824
-12.2277
-12.1723
-12.1179
-12.0664
-12.0209
-11.985
-11.9625
-11.9575
-11.9793
-12.0382
-13.4552
-13.518
-13.5376
-13.5269
-13.4979
-13.4562
-13.4066
-13.3534
-13.2997
-13.2474
-13.198
-13.152
-13.1097
-13.0713
-13.0364
-13.0048
-12.9761
-12.9499
-12.9257
-12.9032
-12.8819
-12.8614
-12.8413
-12.8213
-12.8009
-12.7799
-12.7579
-12.7346
-12.7097
-12.6828
-12.6537
-12.622
-12.5875
-12.5498
-12.5086
-12.4638
-12.415
-12.3622
-12.3055
-12.2449
-12.1811
-12.1149
-12.048
-11.9827
-11.9223
-11.8716
-11.8358
-11.8209
-11.8401
-11.9077
-13.5846
-13.6586
-13.6737
-13.6494
-13.6033
-13.5439
-13.4776
-13.4095
-13.3432
-13.2806
-13.2228
-13.1702
-13.1228
-13.0804
-13.0425
-13.0086
-12.9783
-12.9508
-12.9258
-12.9027
-12.8809
-12.8602
-12.8399
-12.8198
-12.7994
-12.7783
-12.7562
-12.7328
-12.7076
-12.6803
-12.6505
-12.618
-12.5822
-12.5429
-12.4995
-12.4517
-12.3991
-12.3414
-12.2783
-12.2097
-12.1359
-12.0575
-11.9758
-11.8933
-11.8137
-11.7426
-11.6872
-11.6562
-11.6689
-11.7464
-13.7531
-13.8385
-13.8422
-13.7951
-13.7234
-13.6392
-13.551
-13.4646
-13.3834
-13.3091
-13.2423
-13.183
-13.1305
-13.0844
-13.0439
-13.0081
-12.9765
-12.9482
-12.9227
-12.8993
-12.8775
-12.8568
-12.8367
-12.8168
-12.7967
-12.7758
-12.754
-12.7307
-12.7056
-12.6783
-12.6484
-12.6154
-12.5789
-12.5383
-12.4932
-12.443
-12.387
-12.3247
-12.2554
-12.1787
-12.0943
-12.0023
-11.9035
-11.8
-11.6955
-11.5966
-11.5123
-11.4553
-11.4538
-11.5407
-13.982
-14.0745
-14.0533
-13.9681
-13.8582
-13.7401
-13.6238
-13.5153
-13.4172
-13.3304
-13.2545
-13.1885
-13.1315
-13.0823
-13.0397
-13.0026
-12.9702
-12.9417
-12.9161
-12.8929
-12.8715
-12.8513
-12.8317
-12.8124
-12.7929
-12.7727
-12.7515
-12.7287
-12.7041
-12.6772
-12.6476
-12.6146
-12.5779
-12.5368
-12.4906
-12.4386
-12.3799
-12.3137
-12.2388
-12.1543
-12.0592
-11.9526
-11.8347
-11.7061
-11.5703
-11.4336
-11.3069
-11.2076
-11.177
-11.2677
-14.3106
-14.3923
-14.3186
-14.1707
-14.0048
-13.8414
-13.6904
-13.5564
-13.4402
-13.3408
-13.2563
-13.1848
-13.1242
-13.0728
-13.029
-12.9916
-12.9592
-12.931
-12.906
-12.8836
-12.863
-12.8437
-12.8251
-12.8068
-12.7882
-12.7691
-12.7488
-12.7271
-12.7034
-12.6774
-12.6484
-12.6161
-12.5798
-12.5388
-12.4924
-12.4395
-12.3792
-12.3101
-12.2308
-12.1395
-12.0343
-11.9133
-11.7748
-11.6178
-11.4434
-11.2568
-11.0686
-10.9009
-10.8119
-10.8858
-14.8112
-14.8296
-14.6498
-14.4007
-14.1548
-13.933
-13.7415
-13.5803
-13.4465
-13.336
-13.2449
-13.1695
-13.107
-13.055
-13.0113
-12.9745
-12.9431
-12.916
-12.8923
-12.8712
-12.852
-12.8341
-12.817
-12.8001
-12.783
-12.7652
-12.7464
-12.726
-12.7038
-12.6791
-12.6515
-12.6204
-12.5852
-12.5452
-12.4995
-12.4469
-12.3863
-12.3159
-12.2339
-12.1377
-12.0244
-11.8905
-11.732
-11.5447
-11.3257
-11.0753
-10.8003
-10.5232
-10.3191
-10.3193
-15.6147
-15.4369
-15.0546
-14.6484
-14.2928
-14.0002
-13.7652
-13.5784
-13.4301
-13.3121
-13.2175
-13.1411
-13.0791
-13.0283
-12.9863
-12.9514
-12.922
-12.8969
-12.8753
-12.8562
-12.8389
-12.8229
-12.8077
-12.7926
-12.7774
-12.7614
-12.7444
-12.7259
-12.7055
-12.6827
-12.6569
-12.6278
-12.5945
-12.5563
-12.5124
-12.4614
-12.4021
-12.3324
-12.2502
-12.1521
-12.0342
-11.891
-11.7157
-11.4996
-11.2328
-10.9054
-10.5121
-10.0669
-9.64761
-9.43403
-17.018
-16.2547
-15.509
-14.8809
-14.3883
-14.0191
-13.7452
-13.5402
-13.3848
-13.2654
-13.1723
-13.0988
-13.0402
-12.9929
-12.9544
-12.9227
-12.8965
-12.8743
-12.8554
-12.8389
-12.8242
-12.8106
-12.7976
-12.7848
-12.7718
-12.7581
-12.7433
-12.727
-12.7088
-12.6883
-12.665
-12.6383
-12.6077
-12.5723
-12.5312
-12.4833
-12.4271
-12.3606
-12.2812
-12.1853
-12.0679
-11.922
-11.7376
-11.5005
-11.1906
-10.7802
-10.2397
-9.55852
-8.75735
-7.92476
-19.8513
-17.2523
-15.8321
-14.9438
-14.3336
-13.9196
-13.6368
-13.4373
-13.2919
-13.1833
-13.1003
-13.0359
-12.9851
-12.9446
-12.9121
-12.8857
-12.8641
-12.8463
-12.8312
-12.8183
-12.8068
-12.7964
-12.7864
-12.7765
-12.7663
-12.7554
-12.7434
-12.7299
-12.7147
-12.6972
-12.6771
-12.6538
-12.6269
-12.5955
-12.5589
-12.5161
-12.4656
-12.4056
-12.3336
-12.2462
-12.1383
-12.0023
-11.8266
-11.593
-11.2711
-10.8108
-10.1428
-9.18244
-7.67552
-4.95545
-24.7201
-18.3354
-15.6681
-14.567
-13.9669
-13.6085
-13.385
-13.2355
-13.1289
-13.0498
-12.9895
-12.9428
-12.9061
-12.8771
-12.8541
-12.8358
-12.8211
-12.8094
-12.7998
-12.7918
-12.785
-12.7788
-12.7729
-12.767
-12.7605
-12.7534
-12.7451
-12.7355
-12.7242
-12.7109
-12.6951
-12.6766
-12.6549
-12.6293
-12.5994
-12.5643
-12.523
-12.4741
-12.4158
-12.3456
-12.2597
-12.1524
-12.0145
-11.8295
-11.5657
-11.1591
-10.4935
-9.29741
-6.51209
-2.68974e-05
)
;

boundaryField
{
    movingWallTop
    {
        type            zeroGradient;
    }
    movingWallBottom
    {
        type            zeroGradient;
    }
    fixedWalls
    {
        type            zeroGradient;
    }
    frontAndBack
    {
        type            empty;
    }
}


// ************************************************************************* //
