/*--------------------------------*- C++ -*----------------------------------*\
  =========                 |
  \\      /  F ield         | OpenFOAM: The Open Source CFD Toolbox
   \\    /   O peration     | Website:  https://openfoam.org
    \\  /    A nd           | Version:  7
     \\/     M anipulation  |
\*---------------------------------------------------------------------------*/
FoamFile
{
    version     2.0;
    format      ascii;
    class       volScalarField;
    location    "0.0446";
    object      p;
}
// * * * * * * * * * * * * * * * * * * * * * * * * * * * * * * * * * * * * * //

dimensions      [0 2 -2 0 0 0 0];

internalField   nonuniform List<scalar> 
2500
(
-1.96924e-05
6.38521
9.05027
10.1466
10.74
11.0906
11.3059
11.4475
11.547
11.6202
11.6762
11.7204
11.7565
11.7868
11.813
11.8363
11.8577
11.8777
11.8969
11.9156
11.9342
11.9528
11.9716
11.9908
12.0104
12.0308
12.0518
12.0738
12.0968
12.1211
12.1468
12.1744
12.2041
12.2364
12.272
12.3116
12.3562
12.4072
12.4665
12.5365
12.6213
12.7264
12.8613
13.0424
13.3018
13.7034
14.3638
15.5549
18.3361
24.8455
4.86795
7.46776
8.88586
9.77003
10.3745
10.782
11.058
11.251
11.3906
11.4946
11.5742
11.6369
11.6876
11.7296
11.7654
11.7967
11.8246
11.8503
11.8743
11.8971
11.9193
11.9412
11.963
11.9849
12.0072
12.03
12.0536
12.0782
12.104
12.1313
12.1604
12.1917
12.2257
12.2631
12.3046
12.3514
12.4047
12.4664
12.5391
12.6264
12.7332
12.8673
13.0404
13.2708
13.5891
14.0455
14.7097
15.6664
17.1702
19.8875
7.70314
8.46702
9.21066
9.83485
10.3222
10.6854
10.9532
11.1523
11.3027
11.4181
11.5084
11.5806
11.6395
11.6886
11.7305
11.767
11.7995
11.829
11.8565
11.8824
11.9073
11.9316
11.9556
11.9797
12.0039
12.0287
12.0543
12.0808
12.1087
12.1381
12.1696
12.2036
12.2406
12.2814
12.3269
12.3782
12.4368
12.5048
12.5848
12.6805
12.7968
12.941
13.1232
13.3576
13.6646
14.0718
14.6092
15.2874
16.0854
16.9142
9.11109
9.28872
9.66875
10.0708
10.4214
10.7081
10.9371
11.1184
11.2618
11.3762
11.4683
11.5436
11.6061
11.6589
11.7042
11.744
11.7795
11.8118
11.8418
11.87
11.897
11.9232
11.949
11.9747
12.0006
12.027
12.0541
12.0822
12.1116
12.1428
12.176
12.2119
12.251
12.294
12.3419
12.3959
12.4574
12.5282
12.611
12.7087
12.8258
12.9675
13.1409
13.3548
13.6192
13.9442
14.3347
14.7769
15.1924
15.4009
9.92141
9.90188
10.079
10.3238
10.5643
10.7801
10.9656
11.1212
11.2502
11.357
11.4458
11.5202
11.5832
11.6372
11.6843
11.726
11.7634
11.7976
11.8294
11.8593
11.8879
11.9157
11.943
11.9701
11.9973
12.025
12.0534
12.0828
12.1135
12.146
12.1806
12.2179
12.2584
12.3028
12.3522
12.4075
12.47
12.5415
12.624
12.7199
12.8325
12.9653
13.1224
13.3079
13.5249
13.7734
14.0456
14.3195
14.519
14.5119
10.4307
10.3467
10.4169
10.56
10.7203
10.8776
11.0224
11.1506
11.2618
11.3574
11.4393
11.5098
11.5708
11.6242
11.6713
11.7135
11.7517
11.7869
11.8198
11.8509
11.8807
11.9096
11.938
11.9661
11.9944
12.0231
12.0525
12.0829
12.1146
12.148
12.1835
12.2217
12.263
12.3081
12.3579
12.4133
12.4754
12.5457
12.6255
12.7168
12.8216
12.9418
13.0793
13.235
13.4077
13.5923
13.7777
13.9417
14.0251
13.9429
10.7695
10.6732
10.6901
10.7701
10.8739
10.9855
11.0952
11.1977
11.2905
11.3733
11.4464
11.511
11.5683
11.6192
11.665
11.7066
11.7447
11.7801
11.8134
11.8451
11.8755
11.9051
11.9342
11.9631
11.9922
12.0216
12.0517
12.0827
12.1151
12.1491
12.1851
12.2236
12.2651
12.3103
12.3597
12.4142
12.4747
12.5422
12.6178
12.7026
12.7977
12.9039
13.0212
13.1487
13.2831
13.4176
13.5411
13.636
13.66
13.5596
11.0096
10.9188
10.9097
10.951
11.0162
11.0935
11.1749
11.2549
11.3304
11.4002
11.4639
11.5216
11.574
11.6215
11.665
11.705
11.7423
11.7772
11.8103
11.8419
11.8726
11.9025
11.932
11.9613
11.9908
12.0206
12.0511
12.0826
12.1153
12.1495
12.1857
12.2241
12.2654
12.3099
12.3584
12.4112
12.4692
12.5331
12.6034
12.6808
12.7656
12.8576
12.956
13.0587
13.1616
13.2581
13.3387
13.3904
13.3844
13.2867
11.1897
11.1087
11.0872
11.105
11.144
11.1962
11.2553
11.3166
11.3769
11.4347
11.4889
11.5395
11.5864
11.6299
11.6704
11.7082
11.7439
11.7778
11.8102
11.8414
11.8719
11.9017
11.9313
11.9607
11.9904
12.0204
12.0511
12.0826
12.1154
12.1496
12.1856
12.2237
12.2643
12.3078
12.3547
12.4054
12.4603
12.52
12.5846
12.6542
12.7288
12.8076
12.8891
12.9708
13.0487
13.1169
13.1679
13.1928
13.1718
13.0824
11.3309
11.2593
11.2323
11.2357
11.2572
11.2912
11.3332
11.3792
11.4266
11.4736
11.5191
11.5626
11.6039
11.6431
11.6802
11.7155
11.7493
11.7817
11.813
11.8435
11.8733
11.9028
11.9321
11.9615
11.991
12.021
12.0516
12.0831
12.1156
12.1495
12.1851
12.2225
12.2622
12.3044
12.3494
12.3976
12.4492
12.5043
12.563
12.6252
12.6901
12.7569
12.8238
12.8882
12.9465
12.9938
13.0245
13.0327
13.0043
12.9239
11.4452
11.3816
11.3523
11.347
11.3566
11.3775
11.4065
11.4404
11.477
11.5147
11.5523
11.5893
11.6253
11.6601
11.6937
11.7262
11.7577
11.7883
11.8183
11.8477
11.8768
11.9057
11.9345
11.9635
11.9927
12.0224
12.0528
12.084
12.1162
12.1496
12.1845
12.221
12.2595
12.3001
12.3431
12.3886
12.4366
12.4873
12.5403
12.5953
12.6515
12.7077
12.7622
12.8126
12.8556
12.8875
12.9042
12.9017
12.87
12.7976
11.54
11.4828
11.4529
11.4421
11.4437
11.4552
11.4744
11.4988
11.5265
11.5563
11.587
11.6181
11.649
11.6796
11.7098
11.7394
11.7686
11.7973
11.8257
11.8539
11.882
11.91
11.9382
11.9666
11.9954
12.0247
12.0546
12.0853
12.117
12.1498
12.1839
12.2194
12.2566
12.2955
12.3363
12.379
12.4235
12.4698
12.5174
12.5658
12.6142
12.6612
12.7053
12.7443
12.7756
12.7962
12.8031
12.7938
12.7609
12.6951
11.6199
11.5677
11.538
11.5238
11.5199
11.5247
11.5364
11.5534
11.574
11.5972
11.622
11.6478
11.6742
11.7009
11.7277
11.7545
11.7813
11.808
11.8348
11.8616
11.8886
11.9157
11.9431
11.9708
11.999
12.0277
12.0571
12.0872
12.1183
12.1503
12.1835
12.2179
12.2536
12.2908
12.3293
12.3692
12.4104
12.4525
12.4951
12.5376
12.579
12.6182
12.6537
12.6836
12.7057
12.7178
12.7178
12.7043
12.6711
12.611
11.6881
11.6398
11.6105
11.5943
11.5866
11.5864
11.5926
11.6037
11.6187
11.6364
11.6562
11.6775
11.6998
11.7229
11.7466
11.7707
11.7952
11.82
11.8451
11.8705
11.8962
11.9223
11.9488
11.9758
12.0032
12.0313
12.06
12.0895
12.1198
12.151
12.1832
12.2164
12.2507
12.2861
12.3225
12.3597
12.3976
12.4359
12.4739
12.5111
12.5465
12.5791
12.6074
12.63
12.645
12.6508
12.6459
12.6296
12.5968
12.5413
11.7466
11.7014
11.6727
11.6552
11.6448
11.6411
11.643
11.6497
11.66
11.6733
11.6889
11.7063
11.7251
11.745
11.7659
11.7875
11.8098
11.8327
11.8561
11.8801
11.9046
11.9296
11.9552
11.9813
12.008
12.0354
12.0634
12.0922
12.1217
12.152
12.1832
12.2152
12.2481
12.2817
12.3159
12.3507
12.3856
12.4203
12.4542
12.4867
12.517
12.5439
12.5664
12.583
12.5926
12.5936
12.5852
12.5671
12.535
12.4833
11.7971
11.7543
11.7262
11.7077
11.6956
11.6892
11.688
11.6911
11.6978
11.7075
11.7196
11.7337
11.7494
11.7666
11.7849
11.8042
11.8245
11.8456
11.8675
11.8901
11.9134
11.9373
11.9619
11.9872
12.0131
12.0397
12.067
12.095
12.1238
12.1532
12.1834
12.2142
12.2456
12.2776
12.3098
12.3422
12.3744
12.4059
12.4362
12.4647
12.4905
12.5127
12.5303
12.5423
12.5475
12.5449
12.534
12.5147
12.4834
12.435
11.8405
11.7996
11.772
11.7531
11.7396
11.7313
11.7277
11.7281
11.7319
11.7387
11.7479
11.7592
11.7724
11.7871
11.8032
11.8205
11.8389
11.8584
11.8788
11.9001
11.9222
11.9451
11.9688
11.9932
12.0183
12.0442
12.0708
12.098
12.1259
12.1545
12.1837
12.2134
12.2435
12.2739
12.3043
12.3345
12.3642
12.3929
12.42
12.445
12.467
12.4853
12.4989
12.5071
12.5089
12.5036
12.4909
12.4709
12.4404
12.3947
11.8778
11.8383
11.8112
11.7919
11.7775
11.7677
11.7623
11.7606
11.7622
11.7666
11.7735
11.7825
11.7935
11.8061
11.8203
11.8358
11.8526
11.8706
11.8896
11.9097
11.9308
11.9527
11.9755
11.9991
12.0235
12.0486
12.0745
12.101
12.1282
12.1559
12.1841
12.2127
12.2416
12.2706
12.2993
12.3277
12.3551
12.3813
12.4057
12.4276
12.4465
12.4615
12.4719
12.477
12.4762
12.4689
12.4549
12.4344
12.4047
12.3613
11.9094
11.8711
11.8444
11.8249
11.8098
11.799
11.7921
11.7888
11.7886
11.7912
11.7962
11.8033
11.8125
11.8233
11.8359
11.8499
11.8652
11.8819
11.8998
11.9188
11.9388
11.9598
11.9818
12.0047
12.0284
12.0528
12.078
12.1038
12.1303
12.1572
12.1846
12.2123
12.24
12.2677
12.295
12.3216
12.3472
12.3712
12.3932
12.4127
12.4289
12.4412
12.449
12.4517
12.4488
12.4399
12.4249
12.4042
12.3752
12.3338
11.9358
11.8985
11.8721
11.8524
11.8369
11.8253
11.8174
11.8128
11.8113
11.8123
11.8158
11.8215
11.8291
11.8385
11.8497
11.8624
11.8765
11.8921
11.9089
11.927
11.9461
11.9664
11.9876
12.0098
12.0328
12.0567
12.0812
12.1065
12.1323
12.1585
12.1851
12.2119
12.2387
12.2652
12.2913
12.3164
12.3404
12.3626
12.3826
12.4
12.414
12.4241
12.4299
12.4307
12.4262
12.4161
12.4004
12.3796
12.3512
12.3114
11.9575
11.9208
11.8946
11.8749
11.859
11.8468
11.8382
11.8327
11.83
11.83
11.8323
11.8367
11.8432
11.8514
11.8615
11.8731
11.8863
11.9009
11.9168
11.9341
11.9525
11.9721
11.9927
12.0143
12.0367
12.0601
12.0841
12.1088
12.134
12.1597
12.1856
12.2117
12.2376
12.2632
12.2882
12.3121
12.3347
12.3554
12.3739
12.3895
12.4018
12.4102
12.4143
12.4136
12.4079
12.3969
12.3808
12.3599
12.3321
12.2935
11.9745
11.9383
11.9124
11.8927
11.8765
11.8639
11.8546
11.8485
11.845
11.8441
11.8455
11.849
11.8546
11.862
11.8711
11.8819
11.8943
11.9081
11.9234
11.94
11.9578
11.9768
11.9969
12.018
12.04
12.0629
12.0865
12.1107
12.1355
12.1607
12.1861
12.2115
12.2368
12.2616
12.2857
12.3087
12.3302
12.3497
12.3669
12.3812
12.3922
12.3993
12.4021
12.4003
12.3937
12.382
12.3656
12.3447
12.3173
12.2797
11.9871
11.9513
11.9255
11.9058
11.8895
11.8765
11.8669
11.8602
11.8562
11.8547
11.8555
11.8583
11.8632
11.8699
11.8784
11.8886
11.9004
11.9137
11.9284
11.9445
11.9619
11.9805
12.0001
12.0209
12.0425
12.0651
12.0883
12.1123
12.1367
12.1615
12.1864
12.2114
12.2362
12.2604
12.2838
12.3061
12.3268
12.3455
12.3617
12.3751
12.385
12.3912
12.3931
12.3905
12.3832
12.3711
12.3544
12.3336
12.3065
12.2697
11.9955
11.9599
11.9342
11.9144
11.898
11.8849
11.875
11.8681
11.8637
11.8618
11.8621
11.8646
11.869
11.8753
11.8834
11.8931
11.9045
11.9174
11.9318
11.9476
11.9646
11.9829
12.0024
12.0228
12.0443
12.0666
12.0896
12.1133
12.1375
12.162
12.1867
12.2114
12.2358
12.2596
12.2826
12.3044
12.3245
12.3427
12.3583
12.371
12.3803
12.3858
12.3872
12.3841
12.3764
12.364
12.3471
12.3263
12.2995
12.2632
11.9996
11.9642
11.9385
11.9188
11.9023
11.8891
11.8791
11.872
11.8674
11.8653
11.8655
11.8677
11.8719
11.878
11.8858
11.8954
11.9066
11.9193
11.9335
11.9491
11.966
11.9842
12.0035
12.0238
12.0451
12.0673
12.0902
12.1138
12.1379
12.1623
12.1868
12.2113
12.2356
12.2592
12.282
12.3035
12.3234
12.3412
12.3566
12.369
12.378
12.3832
12.3842
12.3809
12.373
12.3604
12.3435
12.3227
12.296
12.2599
11.9996
11.9642
11.9385
11.9188
11.9023
11.8891
11.8791
11.872
11.8674
11.8653
11.8655
11.8677
11.8719
11.878
11.8858
11.8954
11.9066
11.9193
11.9335
11.9491
11.966
11.9842
12.0035
12.0238
12.0451
12.0673
12.0902
12.1138
12.1379
12.1623
12.1868
12.2113
12.2356
12.2592
12.282
12.3035
12.3234
12.3412
12.3566
12.369
12.378
12.3832
12.3842
12.3809
12.373
12.3604
12.3435
12.3227
12.296
12.2599
11.9955
11.9599
11.9342
11.9144
11.898
11.8849
11.875
11.8681
11.8637
11.8618
11.8621
11.8646
11.869
11.8753
11.8834
11.8931
11.9045
11.9174
11.9318
11.9476
11.9646
11.9829
12.0024
12.0228
12.0443
12.0666
12.0896
12.1133
12.1375
12.162
12.1867
12.2114
12.2358
12.2596
12.2826
12.3044
12.3245
12.3427
12.3583
12.371
12.3803
12.3858
12.3872
12.3841
12.3764
12.364
12.3471
12.3263
12.2995
12.2632
11.9871
11.9513
11.9255
11.9058
11.8895
11.8765
11.8669
11.8602
11.8562
11.8547
11.8555
11.8583
11.8632
11.8699
11.8784
11.8886
11.9004
11.9137
11.9284
11.9445
11.9619
11.9805
12.0001
12.0209
12.0425
12.0651
12.0883
12.1123
12.1367
12.1615
12.1864
12.2114
12.2362
12.2604
12.2838
12.3061
12.3268
12.3455
12.3617
12.3751
12.385
12.3912
12.3931
12.3905
12.3832
12.3711
12.3544
12.3336
12.3065
12.2697
11.9745
11.9383
11.9124
11.8927
11.8765
11.8639
11.8546
11.8485
11.845
11.8441
11.8455
11.849
11.8546
11.862
11.8711
11.8819
11.8943
11.9081
11.9234
11.94
11.9578
11.9768
11.9969
12.018
12.04
12.0629
12.0865
12.1107
12.1355
12.1607
12.1861
12.2115
12.2368
12.2616
12.2857
12.3087
12.3302
12.3497
12.3669
12.3812
12.3922
12.3993
12.4021
12.4003
12.3937
12.382
12.3656
12.3447
12.3173
12.2798
11.9575
11.9208
11.8946
11.8749
11.859
11.8468
11.8382
11.8327
11.83
11.83
11.8323
11.8367
11.8432
11.8515
11.8615
11.8731
11.8863
11.9009
11.9168
11.9341
11.9525
11.9721
11.9927
12.0143
12.0368
12.0601
12.0841
12.1088
12.134
12.1597
12.1856
12.2117
12.2376
12.2632
12.2882
12.3121
12.3347
12.3554
12.3739
12.3895
12.4018
12.4102
12.4143
12.4136
12.4079
12.3969
12.3808
12.3599
12.3321
12.2935
11.9358
11.8985
11.8721
11.8524
11.8369
11.8253
11.8174
11.8128
11.8113
11.8123
11.8158
11.8215
11.8291
11.8385
11.8497
11.8624
11.8765
11.8921
11.9089
11.927
11.9461
11.9664
11.9876
12.0098
12.0328
12.0567
12.0812
12.1065
12.1323
12.1585
12.1851
12.2119
12.2387
12.2652
12.2913
12.3164
12.3404
12.3626
12.3827
12.4
12.414
12.4242
12.4299
12.4307
12.4262
12.4161
12.4004
12.3796
12.3512
12.3114
11.9094
11.8711
11.8444
11.8249
11.8098
11.799
11.7921
11.7888
11.7887
11.7912
11.7962
11.8033
11.8125
11.8234
11.8359
11.8499
11.8652
11.8819
11.8998
11.9188
11.9388
11.9599
11.9818
12.0047
12.0284
12.0528
12.078
12.1039
12.1303
12.1573
12.1846
12.2123
12.24
12.2677
12.295
12.3216
12.3472
12.3712
12.3932
12.4127
12.4289
12.4412
12.449
12.4517
12.4488
12.4399
12.4249
12.4042
12.3752
12.3338
11.8778
11.8383
11.8112
11.7919
11.7775
11.7677
11.7623
11.7606
11.7622
11.7666
11.7735
11.7825
11.7935
11.8061
11.8203
11.8358
11.8526
11.8706
11.8896
11.9097
11.9308
11.9527
11.9755
11.9991
12.0235
12.0486
12.0745
12.101
12.1282
12.1559
12.1841
12.2127
12.2416
12.2706
12.2993
12.3277
12.3551
12.3813
12.4057
12.4277
12.4465
12.4615
12.4719
12.4771
12.4762
12.4689
12.4549
12.4344
12.4047
12.3613
11.8405
11.7996
11.772
11.7531
11.7396
11.7313
11.7277
11.7281
11.7319
11.7387
11.7479
11.7592
11.7724
11.7871
11.8032
11.8205
11.8389
11.8584
11.8788
11.9001
11.9222
11.9451
11.9688
11.9932
12.0183
12.0442
12.0708
12.098
12.126
12.1545
12.1837
12.2134
12.2435
12.2739
12.3043
12.3345
12.3642
12.3929
12.42
12.445
12.467
12.4853
12.4989
12.5071
12.5089
12.5036
12.4909
12.4709
12.4404
12.3947
11.7971
11.7543
11.7262
11.7078
11.6956
11.6892
11.688
11.6911
11.6979
11.7075
11.7196
11.7337
11.7494
11.7666
11.7849
11.8042
11.8245
11.8456
11.8675
11.8901
11.9134
11.9373
11.9619
11.9872
12.0131
12.0397
12.067
12.095
12.1238
12.1532
12.1834
12.2142
12.2456
12.2776
12.3099
12.3422
12.3744
12.4059
12.4362
12.4647
12.4905
12.5127
12.5303
12.5423
12.5475
12.5449
12.534
12.5147
12.4834
12.435
11.7466
11.7014
11.6727
11.6552
11.6448
11.6411
11.6431
11.6497
11.66
11.6733
11.6889
11.7063
11.7251
11.745
11.7659
11.7875
11.8098
11.8327
11.8561
11.8801
11.9046
11.9296
11.9552
11.9813
12.008
12.0354
12.0634
12.0922
12.1217
12.152
12.1832
12.2152
12.2481
12.2817
12.3159
12.3507
12.3856
12.4203
12.4542
12.4868
12.517
12.5439
12.5664
12.5831
12.5926
12.5936
12.5853
12.5671
12.535
12.4833
11.6881
11.6398
11.6105
11.5943
11.5866
11.5864
11.5926
11.6037
11.6187
11.6364
11.6562
11.6775
11.6998
11.7229
11.7466
11.7707
11.7952
11.82
11.8451
11.8705
11.8962
11.9223
11.9488
11.9758
12.0033
12.0313
12.0601
12.0895
12.1198
12.1511
12.1832
12.2165
12.2507
12.2861
12.3225
12.3597
12.3976
12.4359
12.4739
12.5111
12.5465
12.5791
12.6074
12.63
12.645
12.6508
12.646
12.6296
12.5968
12.5413
11.6199
11.5677
11.538
11.5238
11.5199
11.5247
11.5364
11.5534
11.574
11.5972
11.622
11.6478
11.6742
11.7009
11.7277
11.7545
11.7813
11.808
11.8348
11.8616
11.8886
11.9157
11.9431
11.9708
11.999
12.0277
12.0571
12.0872
12.1183
12.1503
12.1835
12.2179
12.2536
12.2908
12.3293
12.3692
12.4104
12.4525
12.4951
12.5376
12.579
12.6182
12.6537
12.6836
12.7058
12.7178
12.7179
12.7043
12.6712
12.611
11.54
11.4828
11.4529
11.4421
11.4437
11.4552
11.4744
11.4988
11.5266
11.5563
11.587
11.6181
11.6491
11.6797
11.7098
11.7394
11.7686
11.7973
11.8257
11.8539
11.882
11.9101
11.9382
11.9666
11.9954
12.0247
12.0546
12.0854
12.117
12.1498
12.1839
12.2195
12.2566
12.2955
12.3363
12.379
12.4235
12.4698
12.5174
12.5658
12.6142
12.6612
12.7053
12.7444
12.7756
12.7962
12.8031
12.7938
12.7609
12.6951
11.4452
11.3816
11.3523
11.347
11.3566
11.3775
11.4065
11.4404
11.477
11.5147
11.5523
11.5893
11.6253
11.6601
11.6937
11.7262
11.7577
11.7883
11.8183
11.8477
11.8768
11.9057
11.9345
11.9635
11.9927
12.0224
12.0528
12.084
12.1162
12.1496
12.1845
12.2211
12.2595
12.3002
12.3431
12.3886
12.4366
12.4873
12.5403
12.5953
12.6515
12.7077
12.7622
12.8126
12.8557
12.8875
12.9042
12.9017
12.87
12.7976
11.3309
11.2593
11.2323
11.2357
11.2572
11.2912
11.3332
11.3792
11.4266
11.4736
11.5191
11.5626
11.604
11.6431
11.6802
11.7155
11.7493
11.7817
11.813
11.8435
11.8734
11.9028
11.9321
11.9615
11.991
12.021
12.0516
12.0831
12.1156
12.1496
12.1851
12.2225
12.2622
12.3044
12.3494
12.3976
12.4492
12.5043
12.5631
12.6252
12.6901
12.7569
12.8238
12.8883
12.9466
12.9938
13.0246
13.0327
13.0043
12.9239
11.1897
11.1087
11.0872
11.105
11.144
11.1962
11.2553
11.3166
11.3769
11.4347
11.4889
11.5395
11.5864
11.6299
11.6704
11.7083
11.7439
11.7778
11.8102
11.8415
11.8719
11.9017
11.9313
11.9607
11.9904
12.0204
12.0511
12.0827
12.1154
12.1496
12.1856
12.2237
12.2643
12.3078
12.3547
12.4054
12.4604
12.52
12.5846
12.6543
12.7288
12.8076
12.8891
12.9708
13.0487
13.1169
13.1679
13.1928
13.1718
13.0825
11.0096
10.9188
10.9097
10.951
11.0162
11.0935
11.1749
11.2549
11.3304
11.4003
11.4639
11.5216
11.574
11.6215
11.665
11.7051
11.7423
11.7772
11.8103
11.8419
11.8726
11.9025
11.932
11.9613
11.9908
12.0206
12.0512
12.0826
12.1153
12.1495
12.1857
12.2242
12.2654
12.31
12.3584
12.4112
12.4693
12.5331
12.6034
12.6808
12.7656
12.8576
12.956
13.0587
13.1617
13.2581
13.3387
13.3905
13.3844
13.2867
10.7695
10.6732
10.6901
10.7701
10.8739
10.9855
11.0952
11.1977
11.2906
11.3733
11.4464
11.511
11.5683
11.6192
11.665
11.7066
11.7448
11.7802
11.8134
11.8451
11.8755
11.9051
11.9342
11.9632
11.9922
12.0216
12.0517
12.0828
12.1151
12.1491
12.1851
12.2236
12.2651
12.3103
12.3597
12.4142
12.4747
12.5422
12.6178
12.7027
12.7977
12.9039
13.0212
13.1488
13.2831
13.4176
13.5412
13.636
13.66
13.5596
10.4307
10.3467
10.4169
10.56
10.7203
10.8776
11.0224
11.1506
11.2618
11.3574
11.4394
11.5098
11.5708
11.6242
11.6713
11.7135
11.7517
11.787
11.8198
11.8509
11.8807
11.9096
11.938
11.9662
11.9945
12.0231
12.0525
12.0829
12.1146
12.148
12.1835
12.2217
12.263
12.3081
12.3579
12.4133
12.4755
12.5457
12.6255
12.7168
12.8216
12.9418
13.0793
13.235
13.4077
13.5923
13.7777
13.9417
14.0251
13.9429
9.92141
9.90189
10.079
10.3238
10.5643
10.7801
10.9656
11.1212
11.2502
11.357
11.4458
11.5202
11.5832
11.6373
11.6843
11.726
11.7634
11.7976
11.8294
11.8593
11.8879
11.9157
11.943
11.9701
11.9974
12.025
12.0534
12.0828
12.1135
12.146
12.1806
12.2179
12.2584
12.3029
12.3522
12.4075
12.47
12.5415
12.624
12.72
12.8325
12.9653
13.1224
13.308
13.5249
13.7734
14.0457
14.3195
14.519
14.512
9.11108
9.28872
9.66875
10.0708
10.4214
10.7081
10.9371
11.1184
11.2618
11.3762
11.4683
11.5436
11.6061
11.6589
11.7043
11.744
11.7795
11.8118
11.8418
11.87
11.897
11.9232
11.949
11.9747
12.0006
12.027
12.0541
12.0822
12.1116
12.1428
12.176
12.2119
12.251
12.294
12.342
12.3959
12.4574
12.5283
12.611
12.7088
12.8258
12.9675
13.1409
13.3548
13.6193
13.9442
14.3347
14.777
15.1924
15.4009
7.70313
8.46701
9.21066
9.83485
10.3222
10.6854
10.9532
11.1524
11.3027
11.4181
11.5084
11.5806
11.6395
11.6886
11.7305
11.767
11.7995
11.829
11.8565
11.8824
11.9073
11.9316
11.9556
11.9797
12.004
12.0287
12.0543
12.0808
12.1087
12.1382
12.1696
12.2036
12.2406
12.2814
12.3269
12.3782
12.4368
12.5048
12.5848
12.6805
12.7969
12.9411
13.1232
13.3576
13.6646
14.0718
14.6092
15.2874
16.0855
16.9143
4.86794
7.46775
8.88586
9.77003
10.3745
10.782
11.058
11.251
11.3906
11.4946
11.5742
11.6369
11.6876
11.7296
11.7654
11.7967
11.8247
11.8503
11.8743
11.8972
11.9194
11.9412
11.963
11.9849
12.0072
12.0301
12.0537
12.0782
12.104
12.1313
12.1604
12.1917
12.2257
12.2631
12.3046
12.3514
12.4047
12.4665
12.5392
12.6264
12.7332
12.8673
13.0404
13.2709
13.5891
14.0455
14.7097
15.6664
17.1702
19.8876
-4.31187e-05
6.3852
9.05027
10.1466
10.74
11.0906
11.3059
11.4475
11.547
11.6202
11.6762
11.7205
11.7565
11.7868
11.813
11.8363
11.8577
11.8777
11.8969
11.9156
11.9342
11.9528
11.9716
11.9908
12.0105
12.0308
12.0518
12.0738
12.0968
12.1211
12.1468
12.1744
12.2041
12.2364
12.272
12.3116
12.3562
12.4072
12.4665
12.5366
12.6213
12.7264
12.8613
13.0424
13.3018
13.7034
14.3639
15.5549
18.3361
24.8455
)
;

boundaryField
{
    movingWallTop
    {
        type            zeroGradient;
    }
    movingWallBottom
    {
        type            zeroGradient;
    }
    fixedWalls
    {
        type            zeroGradient;
    }
    frontAndBack
    {
        type            empty;
    }
}


// ************************************************************************* //
