/*--------------------------------*- C++ -*----------------------------------*\
  =========                 |
  \\      /  F ield         | OpenFOAM: The Open Source CFD Toolbox
   \\    /   O peration     | Website:  https://openfoam.org
    \\  /    A nd           | Version:  7
     \\/     M anipulation  |
\*---------------------------------------------------------------------------*/
FoamFile
{
    version     2.0;
    format      ascii;
    class       volVectorField;
    location    "0.027";
    object      U;
}
// * * * * * * * * * * * * * * * * * * * * * * * * * * * * * * * * * * * * * //

dimensions      [0 1 -1 0 0 0 0];

internalField   nonuniform List<vector> 
2500
(
(0.290265 -0.152425 0)
(0.389575 -0.12825 0)
(0.565473 -0.0747391 0)
(0.683276 -0.0422229 0)
(0.752804 -0.024507 0)
(0.797714 -0.0148524 0)
(0.828743 -0.00953385 0)
(0.851049 -0.00650235 0)
(0.867669 -0.00467274 0)
(0.880432 -0.00349472 0)
(0.890453 -0.00268972 0)
(0.898447 -0.00211196 0)
(0.904896 -0.00168123 0)
(0.910141 -0.00135081 0)
(0.91443 -0.00109182 0)
(0.917948 -0.000885346 0)
(0.920836 -0.000718424 0)
(0.923204 -0.000581764 0)
(0.925139 -0.000468478 0)
(0.926707 -0.00037329 0)
(0.927962 -0.000292043 0)
(0.928945 -0.000221363 0)
(0.929685 -0.000158427 0)
(0.930207 -0.000100799 0)
(0.930524 -4.62983e-05 0)
(0.930644 7.09746e-06 0)
(0.930569 6.13286e-05 0)
(0.930293 0.000118399 0)
(0.929804 0.000180394 0)
(0.929082 0.000249608 0)
(0.9281 0.000328676 0)
(0.926819 0.000420731 0)
(0.925193 0.000529629 0)
(0.923158 0.000660278 0)
(0.920634 0.000819118 0)
(0.917519 0.00101487 0)
(0.913679 0.00125976 0)
(0.908937 0.00157159 0)
(0.903056 0.00197743 0)
(0.895706 0.00252073 0)
(0.886418 0.00327553 0)
(0.874497 0.00437615 0)
(0.85885 0.00608128 0)
(0.837673 0.00891174 0)
(0.807909 0.0139277 0)
(0.764284 0.0232213 0)
(0.695861 0.0407552 0)
(0.577947 0.0737416 0)
(0.398072 0.128751 0)
(0.293881 0.153797 0)
(0.00110136 -0.294931 0)
(0.0168914 -0.298649 0)
(0.152325 -0.212997 0)
(0.282743 -0.145226 0)
(0.387702 -0.0994667 0)
(0.47062 -0.0695654 0)
(0.535654 -0.0501502 0)
(0.586672 -0.0373013 0)
(0.627031 -0.0285063 0)
(0.659306 -0.0222627 0)
(0.685377 -0.0176789 0)
(0.706615 -0.0142154 0)
(0.724033 -0.0115353 0)
(0.738391 -0.00942086 0)
(0.750266 -0.00772599 0)
(0.760104 -0.0063492 0)
(0.768257 -0.0052176 0)
(0.774999 -0.0042772 0)
(0.780551 -0.00348687 0)
(0.785087 -0.00281445 0)
(0.788746 -0.00223407 0)
(0.791636 -0.00172441 0)
(0.79384 -0.00126736 0)
(0.795419 -0.000847075 0)
(0.796413 -0.000449255 0)
(0.796845 -6.05004e-05 0)
(0.796718 0.000332199 0)
(0.796019 0.000742033 0)
(0.794716 0.00118286 0)
(0.792757 0.00166985 0)
(0.790071 0.00222021 0)
(0.786559 0.0028542 0)
(0.782093 0.00359639 0)
(0.776512 0.00447752 0)
(0.769609 0.00553719 0)
(0.761119 0.00682776 0)
(0.750704 0.00842052 0)
(0.737928 0.0104154 0)
(0.722215 0.0129569 0)
(0.702802 0.0162612 0)
(0.678653 0.0206645 0)
(0.648344 0.0267085 0)
(0.609888 0.0352987 0)
(0.560507 0.0479874 0)
(0.496458 0.0674345 0)
(0.41327 0.0979446 0)
(0.30603 0.145629 0)
(0.170402 0.217215 0)
(0.0268824 0.307176 0)
(0.00519157 0.303031 0)
(-0.0329098 -0.250446 0)
(-0.0615993 -0.344049 0)
(-0.0116129 -0.310451 0)
(0.0704566 -0.251194 0)
(0.158203 -0.195479 0)
(0.240241 -0.15071 0)
(0.312207 -0.116833 0)
(0.373432 -0.0915899 0)
(0.424837 -0.0726875 0)
(0.467794 -0.0583464 0)
(0.503662 -0.047292 0)
(0.533638 -0.0386333 0)
(0.558725 -0.0317495 0)
(0.579746 -0.026204 0)
(0.597369 -0.021684 0)
(0.612139 -0.0179612 0)
(0.624499 -0.0148652 0)
(0.63481 -0.0122658 0)
(0.643367 -0.0100611 0)
(0.650407 -0.00817015 0)
(0.656125 -0.0065263 0)
(0.660671 -0.00507388 0)
(0.664164 -0.00376497 0)
(0.66669 -0.00255718 0)
(0.668308 -0.00141182 0)
(0.66905 -0.000292451 0)
(0.668922 0.000836525 0)
(0.667904 0.00201114 0)
(0.66595 0.00326926 0)
(0.662985 0.00465212 0)
(0.658903 0.00620623 0)
(0.653564 0.00798572 0)
(0.646786 0.0100555 0)
(0.638341 0.0124956 0)
(0.62794 0.0154072 0)
(0.615225 0.0189214 0)
(0.599746 0.023212 0)
(0.58094 0.0285146 0)
(0.5581 0.0351552 0)
(0.530337 0.0435949 0)
(0.496536 0.0544965 0)
(0.455324 0.0688246 0)
(0.40507 0.0879831 0)
(0.344008 0.113971 0)
(0.270693 0.149435 0)
(0.185238 0.197141 0)
(0.0916607 0.257623 0)
(0.00156051 0.323026 0)
(-0.0570166 0.361419 0)
(-0.0321774 0.263988 0)
(-0.0267737 -0.190663 0)
(-0.0654994 -0.332904 0)
(-0.0648317 -0.351121 0)
(-0.0281633 -0.318528 0)
(0.0284452 -0.270919 0)
(0.091919 -0.224045 0)
(0.154532 -0.183401 0)
(0.212528 -0.14991 0)
(0.264414 -0.122846 0)
(0.309921 -0.10108 0)
(0.349372 -0.0835312 0)
(0.383333 -0.0692975 0)
(0.412438 -0.0576671 0)
(0.437301 -0.0480905 0)
(0.458481 -0.040145 0)
(0.476473 -0.0335037 0)
(0.491701 -0.0279112 0)
(0.50453 -0.023165 0)
(0.515267 -0.0191017 0)
(0.524168 -0.0155875 0)
(0.531444 -0.0125102 0)
(0.537265 -0.00977398 0)
(0.541765 -0.00729517 0)
(0.545042 -0.00499855 0)
(0.547163 -0.00281479 0)
(0.548163 -0.000678026 0)
(0.548049 0.0014764 0)
(0.546796 0.00371404 0)
(0.544348 0.00610365 0)
(0.540616 0.00871972 0)
(0.535475 0.0116455 0)
(0.528761 0.0149767 0)
(0.520266 0.0188265 0)
(0.50973 0.0233319 0)
(0.496836 0.0286622 0)
(0.481199 0.0350309 0)
(0.462355 0.0427122 0)
(0.43975 0.0520625 0)
(0.412735 0.0635512 0)
(0.380563 0.0777995 0)
(0.342416 0.095627 0)
(0.297475 0.118097 0)
(0.245095 0.146519 0)
(0.185175 0.182329 0)
(0.118861 0.226601 0)
(0.0498015 0.27866 0)
(-0.0139756 0.332759 0)
(-0.0582654 0.371599 0)
(-0.0648302 0.355609 0)
(-0.0273077 0.204742 0)
(-0.0178656 -0.149163 0)
(-0.0532609 -0.302635 0)
(-0.0741116 -0.354143 0)
(-0.0675987 -0.349012 0)
(-0.0391093 -0.317814 0)
(0.00215357 -0.277993 0)
(0.0489788 -0.238134 0)
(0.0966341 -0.201871 0)
(0.142303 -0.170325 0)
(0.18451 -0.143469 0)
(0.222628 -0.120826 0)
(0.25653 -0.101797 0)
(0.286361 -0.0857974 0)
(0.312401 -0.0723146 0)
(0.334986 -0.0609126 0)
(0.35446 -0.0512289 0)
(0.371155 -0.0429633 0)
(0.385373 -0.035866 0)
(0.397382 -0.0297277 0)
(0.407418 -0.0243709 0)
(0.415678 -0.019643 0)
(0.422325 -0.0154101 0)
(0.42749 -0.011553 0)
(0.43127 -0.00796278 0)
(0.43373 -0.00453784 0)
(0.434905 -0.00118056 0)
(0.434797 0.00220532 0)
(0.433379 0.0057176 0)
(0.43059 0.00945854 0)
(0.426335 0.0135382 0)
(0.420483 0.0180783 0)
(0.412867 0.0232169 0)
(0.403276 0.0291139 0)
(0.391456 0.0359587 0)
(0.377107 0.0439789 0)
(0.359876 0.0534521 0)
(0.339365 0.0647201 0)
(0.315134 0.0782056 0)
(0.28672 0.0944298 0)
(0.253679 0.114027 0)
(0.215662 0.137741 0)
(0.172562 0.16638 0)
(0.124764 0.200671 0)
(0.0735563 0.240889 0)
(0.0217297 0.286061 0)
(-0.0256654 0.332365 0)
(-0.0606229 0.370254 0)
(-0.0725757 0.380128 0)
(-0.0545459 0.327568 0)
(-0.0186767 0.162313 0)
(-0.011459 -0.120806 0)
(-0.0404944 -0.269352 0)
(-0.0685138 -0.33891 0)
(-0.0790849 -0.355391 0)
(-0.0710676 -0.341399 0)
(-0.0492392 -0.312486 0)
(-0.0187688 -0.278061 0)
(0.0161007 -0.24329 0)
(0.0522805 -0.210713 0)
(0.0877329 -0.181372 0)
(0.12123 -0.155512 0)
(0.152108 -0.132992 0)
(0.180077 -0.113505 0)
(0.20508 -0.0966876 0)
(0.227198 -0.0821817 0)
(0.246588 -0.0696548 0)
(0.263443 -0.0588089 0)
(0.277968 -0.0493805 0)
(0.290361 -0.0411378 0)
(0.300804 -0.0338757 0)
(0.30946 -0.027412 0)
(0.316467 -0.0215825 0)
(0.321937 -0.0162372 0)
(0.325953 -0.0112367 0)
(0.328572 -0.00644873 0)
(0.329822 -0.00174513 0)
(0.329702 0.00300135 0)
(0.328182 0.00792009 0)
(0.325199 0.013146 0)
(0.320663 0.0188231 0)
(0.31445 0.0251085 0)
(0.306403 0.0321776 0)
(0.296333 0.0402289 0)
(0.284019 0.0494911 0)
(0.269212 0.0602301 0)
(0.25164 0.0727566 0)
(0.231021 0.0874342 0)
(0.207086 0.104684 0)
(0.179621 0.12498 0)
(0.14853 0.148834 0)
(0.11394 0.176731 0)
(0.0763685 0.209011 0)
(0.0369536 0.245609 0)
(-0.00222916 0.285576 0)
(-0.0378332 0.326234 0)
(-0.0650403 0.361827 0)
(-0.0777665 0.381594 0)
(-0.070129 0.367686 0)
(-0.0425604 0.294361 0)
(-0.0122232 0.132694 0)
(-0.0075156 -0.100668 0)
(-0.0307295 -0.2387 0)
(-0.0594543 -0.316236 0)
(-0.078533 -0.347501 0)
(-0.0838421 -0.348097 0)
(-0.0768772 -0.330546 0)
(-0.0606361 -0.303633 0)
(-0.0382546 -0.272995 0)
(-0.0124399 -0.241978 0)
(0.0147325 -0.212412 0)
(0.041797 -0.185182 0)
(0.0677857 -0.16062 0)
(0.0921054 -0.138745 0)
(0.11443 -0.119413 0)
(0.134616 -0.1024 0)
(0.152639 -0.0874576 0)
(0.168548 -0.0743298 0)
(0.182436 -0.0627719 0)
(0.194414 -0.0525542 0)
(0.2046 -0.0434629 0)
(0.213104 -0.0353001 0)
(0.220029 -0.0278818 0)
(0.225455 -0.021035 0)
(0.229449 -0.0145957 0)
(0.23205 -0.00840574 0)
(0.233277 -0.00231019 0)
(0.233125 0.00384574 0)
(0.231561 0.0102196 0)
(0.228529 0.0169749 0)
(0.223946 0.0242846 0)
(0.217705 0.0323348 0)
(0.209675 0.0413287 0)
(0.199704 0.0514907 0)
(0.187624 0.0630709 0)
(0.17326 0.0763481 0)
(0.156443 0.0916319 0)
(0.137034 0.109261 0)
(0.114951 0.129591 0)
(0.0902271 0.152974 0)
(0.0630813 0.179702 0)
(0.0340211 0.209911 0)
(0.00398298 0.243405 0)
(-0.0255014 0.279363 0)
(-0.0521389 0.315857 0)
(-0.0728026 0.349149 0)
(-0.0837218 0.372755 0)
(-0.0811273 0.376436 0)
(-0.0628583 0.345631 0)
(-0.0330416 0.262493 0)
(-0.00817201 0.111201 0)
(-0.00518755 -0.0858373 0)
(-0.023872 -0.21196 0)
(-0.0508166 -0.291361 0)
(-0.0734843 -0.331693 0)
(-0.0868565 -0.343364 0)
(-0.0904386 -0.335909 0)
(-0.0855037 -0.316849 0)
(-0.0740189 -0.29159 0)
(-0.0580352 -0.263757 0)
(-0.0393514 -0.235636 0)
(-0.0193974 -0.208575 0)
(0.000763042 -0.183301 0)
(0.0203812 -0.160144 0)
(0.0389587 -0.139191 0)
(0.0561862 -0.120382 0)
(0.0718912 -0.103579 0)
(0.0859966 -0.0885986 0)
(0.0984885 -0.0752397 0)
(0.109392 -0.0632955 0)
(0.118756 -0.052561 0)
(0.126636 -0.0428369 0)
(0.133089 -0.0339302 0)
(0.138166 -0.0256546 0)
(0.141904 -0.017829 0)
(0.144329 -0.0102758 0)
(0.145447 -0.00281888 0)
(0.145246 0.00471847 0)
(0.143697 0.0125164 0)
(0.140751 0.0207607 0)
(0.136338 0.0296462 0)
(0.130376 0.0393785 0)
(0.122768 0.0501774 0)
(0.113408 0.0622782 0)
(0.102193 0.0759328 0)
(0.0890314 0.0914082 0)
(0.073864 0.108982 0)
(0.0566893 0.128927 0)
(0.0376009 0.151494 0)
(0.0168386 0.17686 0)
(-0.00514464 0.205061 0)
(-0.0275994 0.235869 0)
(-0.0493869 0.268604 0)
(-0.0688952 0.301849 0)
(-0.0840082 0.333058 0)
(-0.0922162 0.358048 0)
(-0.0909993 0.37047 0)
(-0.0785637 0.361457 0)
(-0.0551497 0.319868 0)
(-0.026209 0.233842 0)
(-0.00574962 0.0950335 0)
(-0.00379467 -0.0744444 0)
(-0.0191274 -0.188902 0)
(-0.0436157 -0.26669 0)
(-0.0672891 -0.311876 0)
(-0.0852427 -0.33131 0)
(-0.0959568 -0.332036 0)
(-0.0995306 -0.320176 0)
(-0.0969534 -0.300551 0)
(-0.0895902 -0.276701 0)
(-0.0788293 -0.251083 0)
(-0.0659026 -0.225315 0)
(-0.0518194 -0.200407 0)
(-0.0373613 -0.176943 0)
(-0.0231055 -0.155216 0)
(-0.00946025 -0.135329 0)
(0.00329956 -0.117263 0)
(0.0149995 -0.100922 0)
(0.0255386 -0.0861629 0)
(0.0348665 -0.0728173 0)
(0.0429669 -0.0607026 0)
(0.0498436 -0.04963 0)
(0.0555102 -0.0394086 0)
(0.0599832 -0.0298475 0)
(0.0632757 -0.0207567 0)
(0.0653936 -0.0119463 0)
(0.066333 -0.00322615 0)
(0.0660784 0.00559601 0)
(0.0646022 0.0147159 0)
(0.0618652 0.0243343 0)
(0.0578178 0.0346588 0)
(0.0524036 0.0459051 0)
(0.0455635 0.0582969 0)
(0.0372437 0.0720658 0)
(0.0274057 0.0874481 0)
(0.016041 0.104678 0)
(0.0031912 0.123977 0)
(-0.0110247 0.145529 0)
(-0.0263755 0.169451 0)
(-0.0424742 0.195736 0)
(-0.0587261 0.224167 0)
(-0.074276 0.254196 0)
(-0.0879632 0.284768 0)
(-0.0983108 0.314083 0)
(-0.103589 0.339311 0)
(-0.102022 0.356285 0)
(-0.0922169 0.359274 0)
(-0.0738042 0.341029 0)
(-0.0483488 0.293349 0)
(-0.0213893 0.208539 0)
(-0.00428235 0.0823713 0)
(-0.00292906 -0.06532 0)
(-0.0158065 -0.168911 0)
(-0.0378904 -0.243197 0)
(-0.0613127 -0.290317 0)
(-0.081677 -0.314773 0)
(-0.0970437 -0.321698 0)
(-0.106798 -0.315934 0)
(-0.111207 -0.301595 0)
(-0.111041 -0.281927 0)
(-0.10726 -0.259355 0)
(-0.100829 -0.235604 0)
(-0.0926138 -0.211853 0)
(-0.0833418 -0.188863 0)
(-0.073595 -0.167093 0)
(-0.0638204 -0.146786 0)
(-0.0543495 -0.128037 0)
(-0.0454203 -0.110835 0)
(-0.0371971 -0.0951035 0)
(-0.0297895 -0.0807206 0)
(-0.0232668 -0.067535 0)
(-0.017671 -0.0553774 0)
(-0.0130267 -0.0440674 0)
(-0.00934832 -0.0334179 0)
(-0.00664644 -0.0232375 0)
(-0.00493166 -0.0133314 0)
(-0.00421762 -0.00350235 0)
(-0.00452258 0.00645029 0)
(-0.00586985 0.0167304 0)
(-0.00828699 0.0275458 0)
(-0.0118036 0.0391084 0)
(-0.0164477 0.0516335 0)
(-0.0222397 0.065338 0)
(-0.0291844 0.080437 0)
(-0.0372597 0.0971372 0)
(-0.0464016 0.115625 0)
(-0.056485 0.136052 0)
(-0.0672994 0.158501 0)
(-0.0785201 0.182955 0)
(-0.0896759 0.209228 0)
(-0.100117 0.236889 0)
(-0.108992 0.265144 0)
(-0.115241 0.292692 0)
(-0.117644 0.317547 0)
(-0.114925 0.336857 0)
(-0.105998 0.346753 0)
(-0.0903477 0.342326 0)
(-0.0685237 0.31786 0)
(-0.0426929 0.267453 0)
(-0.0179394 0.186187 0)
(-0.00335551 0.0720614 0)
(-0.00236582 -0.0577446 0)
(-0.0134318 -0.151369 0)
(-0.0334047 -0.221172 0)
(-0.056025 -0.268257 0)
(-0.0774981 -0.29561 0)
(-0.0958012 -0.306955 0)
(-0.109933 -0.306065 0)
(-0.119671 -0.296354 0)
(-0.125318 -0.280685 0)
(-0.127455 -0.261321 0)
(-0.126767 -0.23998 0)
(-0.123939 -0.217906 0)
(-0.119593 -0.195969 0)
(-0.114265 -0.174741 0)
(-0.108392 -0.154576 0)
(-0.102324 -0.135663 0)
(-0.0963311 -0.118073 0)
(-0.090616 -0.101792 0)
(-0.0853291 -0.0867458 0)
(-0.080579 -0.0728191 0)
(-0.0764435 -0.0598682 0)
(-0.0729782 -0.0477295 0)
(-0.0702231 -0.0362261 0)
(-0.0682086 -0.0251718 0)
(-0.0669591 -0.0143738 0)
(-0.0664956 -0.00363407 0)
(-0.0668377 0.00724925 0)
(-0.0680031 0.0184812 0)
(-0.0700069 0.0302689 0)
(-0.0728589 0.0428204 0)
(-0.0765598 0.0563421 0)
(-0.0810945 0.0710348 0)
(-0.0864244 0.0870876 0)
(-0.0924763 0.104668 0)
(-0.0991288 0.123907 0)
(-0.106196 0.14488 0)
(-0.113407 0.167572 0)
(-0.120389 0.19184 0)
(-0.126641 0.21735 0)
(-0.131529 0.243507 0)
(-0.134278 0.269352 0)
(-0.134005 0.293461 0)
(-0.129785 0.313817 0)
(-0.120786 0.32772 0)
(-0.106489 0.331744 0)
(-0.087008 0.321825 0)
(-0.0634192 0.293557 0)
(-0.0380653 0.242754 0)
(-0.0154028 0.166301 0)
(-0.00273859 0.0633942 0)
(-0.00198225 -0.0512659 0)
(-0.0116922 -0.135757 0)
(-0.0298899 -0.200601 0)
(-0.0515154 -0.246348 0)
(-0.07334 -0.275005 0)
(-0.0934252 -0.289282 0)
(-0.110592 -0.292098 0)
(-0.124313 -0.286242 0)
(-0.134548 -0.274171 0)
(-0.141566 -0.257928 0)
(-0.1458 -0.239137 0)
(-0.147746 -0.219039 0)
(-0.147898 -0.198545 0)
(-0.146714 -0.1783 0)
(-0.144592 -0.15873 0)
(-0.141869 -0.140099 0)
(-0.13882 -0.122543 0)
(-0.135664 -0.106105 0)
(-0.132576 -0.0907569 0)
(-0.129689 -0.0764196 0)
(-0.127105 -0.0629771 0)
(-0.124902 -0.0502867 0)
(-0.123141 -0.0381864 0)
(-0.121866 -0.0265005 0)
(-0.121112 -0.0150435 0)
(-0.120905 -0.00362284 0)
(-0.121263 0.00795856 0)
(-0.122199 0.0199004 0)
(-0.123714 0.0324026 0)
(-0.125802 0.0456624 0)
(-0.128436 0.0598702 0)
(-0.131574 0.0752041 0)
(-0.13514 0.091821 0)
(-0.139022 0.109845 0)
(-0.14306 0.129349 0)
(-0.147028 0.150336 0)
(-0.150628 0.172702 0)
(-0.153474 0.1962 0)
(-0.155083 0.220384 0)
(-0.154882 0.244546 0)
(-0.152221 0.267646 0)
(-0.146418 0.288229 0)
(-0.136842 0.304362 0)
(-0.123044 0.313594 0)
(-0.104942 0.312988 0)
(-0.0830612 0.299256 0)
(-0.0587415 0.269054 0)
(-0.0342726 0.219435 0)
(-0.0134807 0.148448 0)
(-0.00230589 0.055925 0)
(-0.00171015 -0.0455888 0)
(-0.0103871 -0.121668 0)
(-0.0271164 -0.181355 0)
(-0.0477272 -0.224909 0)
(-0.0694767 -0.253697 0)
(-0.090581 -0.269708 0)
(-0.109811 -0.275198 0)
(-0.126459 -0.272421 0)
(-0.140251 -0.263451 0)
(-0.151215 -0.250086 0)
(-0.15957 -0.233814 0)
(-0.165635 -0.215819 0)
(-0.169776 -0.197008 0)
(-0.172357 -0.178052 0)
(-0.173716 -0.159425 0)
(-0.174158 -0.141438 0)
(-0.173943 -0.12428 0)
(-0.17329 -0.108036 0)
(-0.17238 -0.0927217 0)
(-0.171359 -0.0782903 0)
(-0.170343 -0.064654 0)
(-0.169426 -0.0516925 0)
(-0.168678 -0.0392619 0)
(-0.168156 -0.0272006 0)
(-0.1679 -0.0153348 0)
(-0.167937 -0.00348245 0)
(-0.168287 0.00854387 0)
(-0.168952 0.0209331 0)
(-0.169924 0.0338726 0)
(-0.17118 0.0475435 0)
(-0.172674 0.0621157 0)
(-0.174338 0.0777399 0)
(-0.176073 0.0945383 0)
(-0.177739 0.112591 0)
(-0.179153 0.131917 0)
(-0.180073 0.152454 0)
(-0.180198 0.174026 0)
(-0.179159 0.196305 0)
(-0.176524 0.218772 0)
(-0.171808 0.24066 0)
(-0.164504 0.260907 0)
(-0.154136 0.278103 0)
(-0.140336 0.290466 0)
(-0.122961 0.295838 0)
(-0.102245 0.291759 0)
(-0.0789621 0.275612 0)
(-0.0545496 0.244881 0)
(-0.0311357 0.197502 0)
(-0.0119818 0.132276 0)
(-0.00198796 0.0493636 0)
(-0.00151035 -0.0405145 0)
(-0.00938663 -0.108789 0)
(-0.024906 -0.163276 0)
(-0.0445597 -0.204076 0)
(-0.0660048 -0.232142 0)
(-0.0876308 -0.248946 0)
(-0.108227 -0.256233 0)
(-0.126995 -0.255817 0)
(-0.143506 -0.249429 0)
(-0.15761 -0.238622 0)
(-0.169351 -0.224728 0)
(-0.178901 -0.208841 0)
(-0.186498 -0.191831 0)
(-0.192413 -0.174365 0)
(-0.196916 -0.156932 0)
(-0.200266 -0.139875 0)
(-0.202696 -0.123413 0)
(-0.204409 -0.107669 0)
(-0.205583 -0.092689 0)
(-0.206364 -0.0784567 0)
(-0.206875 -0.0649102 0)
(-0.207214 -0.0519516 0)
(-0.207459 -0.0394562 0)
(-0.207671 -0.0272793 0)
(-0.207892 -0.0152618 0)
(-0.208153 -0.0032355 0)
(-0.208465 0.00897315 0)
(-0.208828 0.0215385 0)
(-0.209222 0.0346311 0)
(-0.20961 0.0484129 0)
(-0.209933 0.06303 0)
(-0.210106 0.0786046 0)
(-0.210011 0.0952242 0)
(-0.209496 0.112928 0)
(-0.208369 0.131687 0)
(-0.206391 0.151387 0)
(-0.203277 0.171795 0)
(-0.198698 0.192534 0)
(-0.192288 0.213043 0)
(-0.183668 0.232539 0)
(-0.172476 0.249988 0)
(-0.158423 0.264075 0)
(-0.141361 0.273201 0)
(-0.121387 0.275512 0)
(-0.0989446 0.26898 0)
(-0.074947 0.251545 0)
(-0.0508268 0.221325 0)
(-0.028512 0.176885 0)
(-0.0107834 0.117506 0)
(-0.00174525 0.0435128 0)
(-0.00135944 -0.0359041 0)
(-0.00860502 -0.0968813 0)
(-0.0231256 -0.146204 0)
(-0.0419101 -0.183891 0)
(-0.0629381 -0.210616 0)
(-0.0847661 -0.22748 0)
(-0.106237 -0.23584 0)
(-0.126516 -0.237152 0)
(-0.145078 -0.232847 0)
(-0.161646 -0.224251 0)
(-0.176131 -0.212532 0)
(-0.188577 -0.198679 0)
(-0.199114 -0.183502 0)
(-0.207922 -0.167639 0)
(-0.215202 -0.151575 0)
(-0.221161 -0.135662 0)
(-0.225995 -0.120139 0)
(-0.229887 -0.105151 0)
(-0.232999 -0.0907679 0)
(-0.23547 -0.0769991 0)
(-0.23742 -0.0638051 0)
(-0.238948 -0.0511091 0)
(-0.240133 -0.0388055 0)
(-0.241036 -0.0267675 0)
(-0.2417 -0.014853 0)
(-0.242152 -0.00290984 0)
(-0.2424 0.00921888 0)
(-0.242438 0.0216902 0)
(-0.242238 0.0346557 0)
(-0.241753 0.0482557 0)
(-0.240913 0.062612 0)
(-0.239622 0.0778186 0)
(-0.237756 0.093931 0)
(-0.235159 0.110952 0)
(-0.231643 0.128816 0)
(-0.226985 0.147367 0)
(-0.220931 0.166338 0)
(-0.213203 0.185323 0)
(-0.203514 0.20375 0)
(-0.191591 0.220857 0)
(-0.177209 0.235671 0)
(-0.160239 0.246997 0)
(-0.140714 0.253437 0)
(-0.118903 0.253424 0)
(-0.0953864 0.245307 0)
(-0.0711382 0.227477 0)
(-0.047533 0.198534 0)
(-0.0262952 0.157483 0)
(-0.00980585 0.103917 0)
(-0.00155436 0.0382325 0)
(-0.00124287 -0.0316575 0)
(-0.00798472 -0.0857615 0)
(-0.0216778 -0.129996 0)
(-0.0396892 -0.164339 0)
(-0.0602559 -0.189277 0)
(-0.0820846 -0.20564 0)
(-0.104086 -0.214486 0)
(-0.125422 -0.216982 0)
(-0.145511 -0.214306 0)
(-0.16399 -0.207577 0)
(-0.180668 -0.197803 0)
(-0.195488 -0.185864 0)
(-0.208486 -0.172492 0)
(-0.21976 -0.158282 0)
(-0.229447 -0.143697 0)
(-0.237698 -0.129085 0)
(-0.244673 -0.114689 0)
(-0.250524 -0.100668 0)
(-0.255393 -0.0871082 0)
(-0.259409 -0.0740366 0)
(-0.262681 -0.061433 0)
(-0.265304 -0.0492395 0)
(-0.267354 -0.0373691 0)
(-0.268888 -0.0257129 0)
(-0.269948 -0.0141463 0)
(-0.270557 -0.0025351 0)
(-0.270719 0.0092598 0)
(-0.27042 0.0213765 0)
(-0.269628 0.0339465 0)
(-0.268289 0.0470883 0)
(-0.266326 0.0608997 0)
(-0.263639 0.0754489 0)
(-0.260104 0.0907633 0)
(-0.25557 0.106817 0)
(-0.249862 0.123516 0)
(-0.242783 0.140678 0)
(-0.234119 0.158018 0)
(-0.223651 0.175124 0)
(-0.211171 0.191437 0)
(-0.196507 0.20624 0)
(-0.179554 0.218642 0)
(-0.16032 0.227586 0)
(-0.138976 0.231868 0)
(-0.115912 0.230183 0)
(-0.0917913 0.221202 0)
(-0.0675988 0.203675 0)
(-0.0446263 0.176565 0)
(-0.0244077 0.139187 0)
(-0.00899644 0.0913332 0)
(-0.00140089 0.0334194 0)
(-0.00115126 -0.0277009 0)
(-0.00748652 -0.0752858 0)
(-0.0204917 -0.114526 0)
(-0.0378245 -0.145384 0)
(-0.0579267 -0.168212 0)
(-0.0796343 -0.183643 0)
(-0.101928 -0.192505 0)
(-0.123986 -0.19573 0)
(-0.145198 -0.194284 0)
(-0.165141 -0.189099 0)
(-0.183551 -0.181039 0)
(-0.200291 -0.170866 0)
(-0.21532 -0.159234 0)
(-0.228664 -0.146682 0)
(-0.2404 -0.133641 0)
(-0.250629 -0.120438 0)
(-0.259471 -0.107315 0)
(-0.267048 -0.0944322 0)
(-0.273478 -0.0818849 0)
(-0.278872 -0.0697129 0)
(-0.28333 -0.0579109 0)
(-0.286937 -0.0464374 0)
(-0.289762 -0.0352221 0)
(-0.291859 -0.0241735 0)
(-0.293263 -0.0131849 0)
(-0.293993 -0.00213982 0)
(-0.294049 0.0090821 0)
(-0.293413 0.0205997 0)
(-0.292048 0.0325244 0)
(-0.289894 0.0449535 0)
(-0.286875 0.0579629 0)
(-0.282889 0.071598 0)
(-0.277819 0.0858637 0)
(-0.271525 0.100713 0)
(-0.263851 0.116032 0)
(-0.254632 0.131627 0)
(-0.243699 0.14721 0)
(-0.230892 0.16238 0)
(-0.216078 0.17661 0)
(-0.199178 0.189244 0)
(-0.18019 0.199488 0)
(-0.159232 0.206422 0)
(-0.136578 0.20903 0)
(-0.1127 0.206237 0)
(-0.0883061 0.196981 0)
(-0.0643628 0.180297 0)
(-0.0420708 0.15542 0)
(-0.0227945 0.121884 0)
(-0.00831989 0.0796077 0)
(-0.00127568 0.0289941 0)
(-0.00107844 -0.0239776 0)
(-0.00708334 -0.0653396 0)
(-0.0195163 -0.0996863 0)
(-0.0362601 -0.126973 0)
(-0.0559189 -0.14746 0)
(-0.0774376 -0.161631 0)
(-0.0998639 -0.170135 0)
(-0.1224 -0.173715 0)
(-0.144423 -0.173155 0)
(-0.165475 -0.169227 0)
(-0.185237 -0.162657 0)
(-0.20351 -0.154099 0)
(-0.220191 -0.144122 0)
(-0.235246 -0.133204 0)
(-0.248699 -0.121734 0)
(-0.260605 -0.110015 0)
(-0.271046 -0.0982727 0)
(-0.280112 -0.0866635 0)
(-0.287899 -0.0752853 0)
(-0.294499 -0.0641854 0)
(-0.299997 -0.0533693 0)
(-0.304467 -0.0428087 0)
(-0.307971 -0.0324484 0)
(-0.310555 -0.022213 0)
(-0.31225 -0.0120128 0)
(-0.313068 -0.0017491 0)
(-0.313007 0.00868015 0)
(-0.312043 0.019375 0)
(-0.310136 0.0304275 0)
(-0.307227 0.0419155 0)
(-0.303237 0.0538956 0)
(-0.298073 0.0663945 0)
(-0.291623 0.0794002 0)
(-0.283764 0.0928512 0)
(-0.274365 0.106626 0)
(-0.263292 0.120529 0)
(-0.250423 0.134281 0)
(-0.235655 0.147506 0)
(-0.218924 0.159727 0)
(-0.200231 0.170355 0)
(-0.17966 0.178698 0)
(-0.157414 0.183974 0)
(-0.133844 0.185335 0)
(-0.109475 0.181908 0)
(-0.0850326 0.172852 0)
(-0.0614501 0.157426 0)
(-0.0398387 0.135069 0)
(-0.0214165 0.105468 0)
(-0.00775228 0.0686173 0)
(-0.00117269 0.0248929 0)
(-0.00102025 -0.0204433 0)
(-0.00675641 -0.0558295 0)
(-0.0187149 -0.0853789 0)
(-0.0349537 -0.109047 0)
(-0.0542054 -0.127028 0)
(-0.0755048 -0.139691 0)
(-0.0979592 -0.147543 0)
(-0.120798 -0.151173 0)
(-0.143399 -0.151211 0)
(-0.165279 -0.148288 0)
(-0.186082 -0.143006 0)
(-0.205563 -0.135915 0)
(-0.223568 -0.127501 0)
(-0.240016 -0.118177 0)
(-0.254883 -0.108284 0)
(-0.268185 -0.0980933 0)
(-0.279969 -0.0878102 0)
(-0.290296 -0.0775809 0)
(-0.299238 -0.0674996 0)
(-0.306868 -0.0576165 0)
(-0.313257 -0.047944 0)
(-0.318468 -0.0384643 0)
(-0.322552 -0.0291351 0)
(-0.325548 -0.0198957 0)
(-0.327482 -0.0106723 0)
(-0.32836 -0.00138298 0)
(-0.328176 0.00805671 0)
(-0.326903 0.017729 0)
(-0.3245 0.0277083 0)
(-0.320907 0.0380552 0)
(-0.316049 0.0488098 0)
(-0.30984 0.0599845 0)
(-0.302178 0.071556 0)
(-0.29296 0.083456 0)
(-0.282078 0.0955622 0)
(-0.269433 0.107688 0)
(-0.254945 0.119575 0)
(-0.238563 0.130884 0)
(-0.220286 0.141189 0)
(-0.200179 0.149982 0)
(-0.178398 0.156672 0)
(-0.155211 0.160606 0)
(-0.131023 0.161089 0)
(-0.106392 0.157421 0)
(-0.0820441 0.148943 0)
(-0.0588739 0.135092 0)
(-0.03791 0.115456 0)
(-0.0202465 0.0898303 0)
(-0.00727727 0.058254 0)
(-0.00108791 0.0210631 0)
(-0.000973851 -0.0170618 0)
(-0.00649265 -0.046677 0)
(-0.0180614 -0.0715184 0)
(-0.0338744 -0.0915458 0)
(-0.052765 -0.106902 0)
(-0.0738409 -0.117871 0)
(-0.0962604 -0.124842 0)
(-0.11928 -0.128277 0)
(-0.142283 -0.128676 0)
(-0.164772 -0.126545 0)
(-0.186365 -0.122374 0)
(-0.206783 -0.116615 0)
(-0.225832 -0.109671 0)
(-0.243393 -0.101892 0)
(-0.259402 -0.093567 0)
(-0.273844 -0.0849312 0)
(-0.286731 -0.076164 0)
(-0.298101 -0.0673961 0)
(-0.308003 -0.0587142 0)
(-0.316494 -0.0501668 0)
(-0.323629 -0.0417705 0)
(-0.329459 -0.033515 0)
(-0.334026 -0.0253688 0)
(-0.337363 -0.0172841 0)
(-0.339486 -0.00920167 0)
(-0.340401 -0.00105551 0)
(-0.340095 0.0072227 0)
(-0.338541 0.0156988 0)
(-0.335696 0.0244312 0)
(-0.331502 0.0334657 0)
(-0.32589 0.0428293 0)
(-0.318778 0.0525245 0)
(-0.310081 0.0625218 0)
(-0.299711 0.0727523 0)
(-0.287585 0.0831007 0)
(-0.273636 0.0933974 0)
(-0.257823 0.103412 0)
(-0.24014 0.112849 0)
(-0.220639 0.121344 0)
(-0.199439 0.128468 0)
(-0.176751 0.13373 0)
(-0.152893 0.136598 0)
(-0.128307 0.136514 0)
(-0.103568 0.132925 0)
(-0.0793957 0.125322 0)
(-0.0566447 0.113282 0)
(-0.0362707 0.0965074 0)
(-0.0192659 0.0748672 0)
(-0.00688369 0.0484208 0)
(-0.00101859 0.017459 0)
(-0.000937314 -0.0138028 0)
(-0.00628296 -0.0378142 0)
(-0.0175375 -0.0580265 0)
(-0.033 -0.0744053 0)
(-0.051582 -0.0870558 0)
(-0.0724489 -0.0961899 0)
(-0.0948011 -0.102103 0)
(-0.11792 -0.105151 0)
(-0.141195 -0.10572 0)
(-0.164124 -0.104207 0)
(-0.186305 -0.100996 0)
(-0.207435 -0.0964499 0)
(-0.22729 -0.0908927 0)
(-0.245719 -0.0846081 0)
(-0.262629 -0.0778347 0)
(-0.277976 -0.0707664 0)
(-0.291746 -0.0635543 0)
(-0.303956 -0.0563094 0)
(-0.314635 -0.0491073 0)
(-0.323824 -0.0419918 0)
(-0.331564 -0.0349804 0)
(-0.337896 -0.0280682 0)
(-0.342854 -0.0212322 0)
(-0.346462 -0.0144362 0)
(-0.348733 -0.00763418 0)
(-0.349667 -0.000774347 0)
(-0.349248 0.00619662 0)
(-0.347448 0.0133297 0)
(-0.344224 0.0206695 0)
(-0.33952 0.0282492 0)
(-0.333272 0.0360863 0)
(-0.325407 0.0441767 0)
(-0.315852 0.0524896 0)
(-0.304534 0.0609613 0)
(-0.291395 0.0694896 0)
(-0.276396 0.0779277 0)
(-0.259526 0.0860805 0)
(-0.240821 0.0937007 0)
(-0.220373 0.100488 0)
(-0.198348 0.106094 0)
(-0.174996 0.110126 0)
(-0.150672 0.11216 0)
(-0.125842 0.111761 0)
(-0.101093 0.108506 0)
(-0.0771299 0.102009 0)
(-0.0547715 0.0919572 0)
(-0.0349122 0.0781397 0)
(-0.0184619 0.060475 0)
(-0.00656392 0.0390279 0)
(-0.000962875 0.0140403 0)
(-0.000909316 -0.0106399 0)
(-0.00612108 -0.0291808 0)
(-0.0171304 -0.0448304 0)
(-0.0323151 -0.0575614 0)
(-0.0506455 -0.0674488 0)
(-0.0713313 -0.0746462 0)
(-0.0936062 -0.0793704 0)
(-0.116772 -0.0818832 0)
(-0.140227 -0.0824727 0)
(-0.163463 -0.0814358 0)
(-0.186071 -0.079064 0)
(-0.207725 -0.0756318 0)
(-0.228182 -0.0713885 0)
(-0.247267 -0.0665531 0)
(-0.264864 -0.0613113 0)
(-0.280904 -0.0558152 0)
(-0.295357 -0.0501846 0)
(-0.308217 -0.0445082 0)
(-0.3195 -0.0388474 0)
(-0.329232 -0.0332391 0)
(-0.337445 -0.0276991 0)
(-0.344169 -0.0222258 0)
(-0.34943 -0.0168034 0)
(-0.353247 -0.0114053 0)
(-0.355628 -0.00599733 0)
(-0.356568 -0.00054094 0)
(-0.356051 0.00500371 0)
(-0.354047 0.0106744 0)
(-0.350512 0.0165035 0)
(-0.345395 0.0225143 0)
(-0.338636 0.028717 0)
(-0.330169 0.035105 0)
(-0.319931 0.0416498 0)
(-0.307867 0.0482975 0)
(-0.293935 0.0549635 0)
(-0.278119 0.0615293 0)
(-0.260438 0.067839 0)
(-0.240958 0.0736976 0)
(-0.219803 0.0788711 0)
(-0.197172 0.0830897 0)
(-0.173349 0.0860535 0)
(-0.148712 0.0874428 0)
(-0.123745 0.086932 0)
(-0.0990366 0.0842078 0)
(-0.0752798 0.0789903 0)
(-0.0532622 0.0710556 0)
(-0.0338289 0.0602584 0)
(-0.0178261 0.0465502 0)
(-0.0063128 0.0299907 0)
(-0.000919488 0.0107699 0)
(-0.000888966 -0.00754943 0)
(-0.00600277 -0.0207215 0)
(-0.0168315 -0.0318613 0)
(-0.0318091 -0.0409492 0)
(-0.0499481 -0.0480352 0)
(-0.0704905 -0.0532236 0)
(-0.0926944 -0.0566623 0)
(-0.115878 -0.0585313 0)
(-0.139445 -0.0590294 0)
(-0.162888 -0.0583629 0)
(-0.185789 -0.0567354 0)
(-0.207811 -0.0543397 0)
(-0.228695 -0.0513517 0)
(-0.248249 -0.047927 0)
(-0.26634 -0.0441981 0)
(-0.282883 -0.0402745 0)
(-0.297831 -0.0362424 0)
(-0.311166 -0.0321668 0)
(-0.322891 -0.0280927 0)
(-0.333022 -0.0240479 0)
(-0.341581 -0.0200449 0)
(-0.348592 -0.0160839 0)
(-0.354075 -0.0121545 0)
(-0.358043 -0.00823876 0)
(-0.360501 -0.00431318 0)
(-0.361442 -0.000351103 0)
(-0.360846 0.00367496 0)
(-0.358684 0.00779091 0)
(-0.354913 0.0120186 0)
(-0.349484 0.0163732 0)
(-0.342339 0.0208602 0)
(-0.333421 0.0254728 0)
(-0.322675 0.0301886 0)
(-0.310058 0.0349663 0)
(-0.295542 0.0397433 0)
(-0.27913 0.0444323 0)
(-0.260862 0.0489201 0)
(-0.240825 0.0530661 0)
(-0.219169 0.056703 0)
(-0.196118 0.0596394 0)
(-0.171975 0.0616641 0)
(-0.147138 0.0625537 0)
(-0.1221 0.062083 0)
(-0.0974506 0.0600368 0)
(-0.0738707 0.0562251 0)
(-0.0521236 0.0504984 0)
(-0.0330179 0.0427623 0)
(-0.017353 0.0329897 0)
(-0.00612692 0.0212276 0)
(-0.000887573 0.00761286 0)
(-0.000875685 -0.00450965 0)
(-0.00592527 -0.0123844 0)
(-0.0166349 -0.0190528 0)
(-0.031475 -0.0245028 0)
(-0.0494853 -0.0287633 0)
(-0.0699285 -0.0318946 0)
(-0.0920792 -0.0339829 0)
(-0.115266 -0.0351333 0)
(-0.138898 -0.0354625 0)
(-0.162468 -0.035092 0)
(-0.185552 -0.034142 0)
(-0.207807 -0.032727 0)
(-0.228963 -0.0309515 0)
(-0.248819 -0.0289086 0)
(-0.267229 -0.0266778 0)
(-0.284099 -0.0243248 0)
(-0.29937 -0.0219018 0)
(-0.313015 -0.0194483 0)
(-0.32503 -0.0169919 0)
(-0.335422 -0.0145497 0)
(-0.344208 -0.0121299 0)
(-0.351407 -0.00973275 0)
(-0.357034 -0.00735274 0)
(-0.361101 -0.0049794 0)
(-0.363607 -0.002599 0)
(-0.364546 -0.000195948 0)
(-0.363895 0.00224586 0)
(-0.361626 0.00474151 0)
(-0.357696 0.0073036 0)
(-0.352056 0.00994059 0)
(-0.344655 0.0126551 0)
(-0.335437 0.0154423 0)
(-0.324355 0.0182876 0)
(-0.311372 0.0211655 0)
(-0.296473 0.0240373 0)
(-0.279671 0.0268497 0)
(-0.261021 0.0295341 0)
(-0.240625 0.0320056 0)
(-0.21865 0.0341639 0)
(-0.195334 0.0358947 0)
(-0.170995 0.0370725 0)
(-0.146041 0.0375655 0)
(-0.120971 0.0372412 0)
(-0.096373 0.0359741 0)
(-0.0729211 0.0336541 0)
(-0.0513614 0.0301954 0)
(-0.0324777 0.025545 0)
(-0.0170392 0.0196896 0)
(-0.00600406 0.0126591 0)
(-0.000866572 0.00453594 0)
(-0.000869125 -0.00149984 0)
(-0.0058869 -0.00411994 0)
(-0.0165375 -0.00634007 0)
(-0.031309 -0.00815621 0)
(-0.0492545 -0.00957777 0)
(-0.069647 -0.0106245 0)
(-0.0917693 -0.0113247 0)
(-0.114955 -0.011713 0)
(-0.138617 -0.0118278 0)
(-0.162246 -0.0117092 0)
(-0.185419 -0.011397 0)
(-0.207786 -0.0109291 0)
(-0.229076 -0.0103402 0)