/*--------------------------------*- C++ -*----------------------------------*\
  =========                 |
  \\      /  F ield         | OpenFOAM: The Open Source CFD Toolbox
   \\    /   O peration     | Website:  https://openfoam.org
    \\  /    A nd           | Version:  7
     \\/     M anipulation  |
\*---------------------------------------------------------------------------*/
FoamFile
{
    version     2.0;
    format      ascii;
    class       volVectorField;
    location    "0.032";
    object      U;
}
// * * * * * * * * * * * * * * * * * * * * * * * * * * * * * * * * * * * * * //

dimensions      [0 1 -1 0 0 0 0];

internalField   nonuniform List<vector> 
2500
(
(-0.293819 0.153739 0)
(-0.397976 0.128733 0)
(-0.577999 0.0737898 0)
(-0.696231 0.0408583 0)
(-0.765118 0.0233663 0)
(-0.809321 0.0141042 0)
(-0.83975 0.00911174 0)
(-0.861659 0.00629838 0)
(-0.878085 0.00460517 0)
(-0.890816 0.00351206 0)
(-0.90093 0.00276084 0)
(-0.909108 0.0022175 0)
(-0.915809 0.00180824 0)
(-0.921349 0.00148978 0)
(-0.925955 0.00123517 0)
(-0.929794 0.00102679 0)
(-0.93299 0.000852565 0)
(-0.935637 0.000703939 0)
(-0.937806 0.000574659 0)
(-0.939553 0.000460016 0)
(-0.940919 0.00035637 0)
(-0.941936 0.000260819 0)
(-0.942626 0.000170981 0)
(-0.943005 8.48306e-05 0)
(-0.943083 5.80014e-07 0)
(-0.942862 -8.34497e-05 0)
(-0.942341 -0.000168852 0)
(-0.941512 -0.00025726 0)
(-0.940364 -0.000350427 0)
(-0.938876 -0.000450318 0)
(-0.937023 -0.000559238 0)
(-0.934771 -0.000679994 0)
(-0.932076 -0.000816129 0)
(-0.928881 -0.000972256 0)
(-0.925113 -0.00115456 0)
(-0.920678 -0.00137159 0)
(-0.91545 -0.00163558 0)
(-0.909263 -0.00196465 0)
(-0.901891 -0.00238699 0)
(-0.893016 -0.00294866 0)
(-0.88218 -0.00372932 0)
(-0.868692 -0.00487446 0)
(-0.85146 -0.00666272 0)
(-0.828678 -0.00964506 0)
(-0.797328 -0.0149082 0)
(-0.752259 -0.024505 0)
(-0.68273 -0.0421683 0)
(-0.565061 -0.0746458 0)
(-0.389369 -0.128153 0)
(-0.290217 -0.152381 0)
(-0.00517268 0.302944 0)
(-0.0270543 0.307338 0)
(-0.171205 0.217708 0)
(-0.307861 0.14642 0)
(-0.416471 0.0989804 0)
(-0.501314 0.0686638 0)
(-0.567242 0.0493646 0)
(-0.618674 0.0367844 0)
(-0.659301 0.0282686 0)
(-0.691858 0.0222687 0)
(-0.718292 0.0178823 0)
(-0.73999 0.0145698 0)
(-0.757952 0.0119968 0)
(-0.772913 0.00994858 0)
(-0.785414 0.00828191 0)
(-0.795868 0.00689821 0)
(-0.804586 0.00572748 0)
(-0.811808 0.0047187 0)
(-0.817719 0.00383371 0)
(-0.822463 0.00304328 0)
(-0.82615 0.0023244 0)
(-0.828863 0.00165855 0)
(-0.830662 0.00103029 0)
(-0.831589 0.000426412 0)
(-0.83167 -0.00016488 0)
(-0.830914 -0.000754526 0)
(-0.829317 -0.00135313 0)
(-0.82686 -0.00197146 0)
(-0.82351 -0.00262099 0)
(-0.819217 -0.00331449 0)
(-0.813914 -0.00406675 0)
(-0.807512 -0.00489558 0)
(-0.799898 -0.00582309 0)
(-0.790926 -0.00687753 0)
(-0.780414 -0.00809601 0)
(-0.768123 -0.00952845 0)
(-0.753751 -0.0112438 0)
(-0.736898 -0.0133399 0)
(-0.717043 -0.0159595 0)
(-0.69348 -0.0193181 0)
(-0.665256 -0.0237511 0)
(-0.631055 -0.0297988 0)
(-0.589052 -0.0383555 0)
(-0.536717 -0.0509304 0)
(-0.470726 -0.070047 0)
(-0.387227 -0.0996458 0)
(-0.282041 -0.145138 0)
(-0.151699 -0.212705 0)
(-0.0165401 -0.298292 0)
(-0.00101007 -0.294727 0)
(0.0321172 0.264072 0)
(0.0564627 0.362218 0)
(-0.00329797 0.324654 0)
(-0.0951635 0.260012 0)
(-0.191004 0.20017 0)
(-0.279138 0.15298 0)
(-0.355466 0.117914 0)
(-0.419792 0.0922195 0)
(-0.473487 0.0732599 0)
(-0.518249 0.0590457 0)
(-0.555647 0.0481808 0)
(-0.586996 0.0397067 0)
(-0.613357 0.0329654 0)
(-0.635571 0.0275006 0)
(-0.654299 0.0229902 0)
(-0.67006 0.0192026 0)
(-0.683266 0.0159681 0)
(-0.694238 0.0131596 0)
(-0.703233 0.0106802 0)
(-0.710451 0.00845425 0)
(-0.716048 0.00642156 0)
(-0.720142 0.00453292 0)
(-0.722823 0.00274706 0)
(-0.724152 0.00102831 0)
(-0.724166 -0.000655267 0)
(-0.722882 -0.00233333 0)
(-0.720295 -0.00403466 0)
(-0.71638 -0.00578835 0)
(-0.711091 -0.00762519 0)
(-0.70436 -0.00957913 0)
(-0.696094 -0.0116891 0)
(-0.686173 -0.0140013 0)
(-0.674444 -0.0165722 0)
(-0.660714 -0.0194729 0)
(-0.644743 -0.0227946 0)
(-0.62623 -0.0266574 0)
(-0.6048 -0.0312222 0)
(-0.57998 -0.0367087 0)
(-0.551181 -0.0434226 0)
(-0.517659 -0.0517962 0)
(-0.478494 -0.0624492 0)
(-0.432567 -0.0762767 0)
(-0.37859 -0.094564 0)
(-0.31525 -0.11911 0)
(-0.241671 -0.152238 0)
(-0.158542 -0.196257 0)
(-0.070189 -0.251311 0)
(0.0120653 -0.31005 0)
(0.0619174 -0.343416 0)
(0.0330059 -0.250022 0)
(0.0271714 0.205204 0)
(0.0639082 0.357517 0)
(0.0556235 0.375026 0)
(0.00885107 0.337565 0)
(-0.0580442 0.284636 0)
(-0.130751 0.233523 0)
(-0.201137 0.189987 0)
(-0.265448 0.154716 0)
(-0.322439 0.126655 0)
(-0.372124 0.104387 0)
(-0.415065 0.0866122 0)
(-0.452004 0.0722809 0)
(-0.48369 0.0605827 0)
(-0.510804 0.0509053 0)
(-0.533936 0.0427878 0)
(-0.553584 0.0358816 0)
(-0.570162 0.0299207 0)
(-0.584008 0.0246997 0)
(-0.595399 0.0200576 0)
(-0.604558 0.0158662 0)
(-0.611661 0.0120215 0)
(-0.616847 0.00843739 0)
(-0.620219 0.00504071 0)
(-0.621851 0.0017677 0)
(-0.62179 -0.00143899 0)
(-0.620057 -0.00463278 0)
(-0.61665 -0.00786533 0)
(-0.611543 -0.0111887 0)
(-0.604689 -0.0146573 0)
(-0.596013 -0.0183307 0)
(-0.585416 -0.0222759 0)
(-0.572772 -0.0265713 0)
(-0.557919 -0.0313109 0)
(-0.540662 -0.0366103 0)
(-0.520762 -0.0426143 0)
(-0.497932 -0.0495079 0)
(-0.47183 -0.0575301 0)
(-0.442054 -0.0669935 0)
(-0.408138 -0.0783102 0)
(-0.369568 -0.0920238 0)
(-0.325808 -0.108847 0)
(-0.276382 -0.129691 0)
(-0.221053 -0.15566 0)
(-0.160158 -0.187919 0)
(-0.0952381 -0.22725 0)
(-0.0300958 -0.272813 0)
(0.02761 -0.319223 0)
(0.0648632 -0.350873 0)
(0.0656677 -0.332152 0)
(0.026848 -0.190076 0)
(0.0184868 0.163329 0)
(0.0533156 0.331011 0)
(0.0691311 0.385961 0)
(0.0540386 0.378231 0)
(0.0151747 0.342161 0)
(-0.0367634 0.29733 0)
(-0.0936412 0.253303 0)
(-0.150283 0.21392 0)
(-0.203776 0.180183 0)
(-0.252722 0.15184 0)
(-0.296636 0.128188 0)
(-0.33553 0.108434 0)
(-0.369668 0.0918514 0)
(-0.399415 0.0778207 0)
(-0.425163 0.0658342 0)
(-0.447283 0.0554829 0)
(-0.466116 0.0464381 0)
(-0.481957 0.0384359 0)
(-0.495059 0.0312622 0)
(-0.505634 0.0247421 0)
(-0.513857 0.0187305 0)
(-0.519865 0.0131048 0)
(-0.523765 0.00775959 0)
(-0.525636 0.00260199 0)
(-0.525529 -0.00245215 0)
(-0.52347 -0.00748136 0)
(-0.519463 -0.0125614 0)
(-0.513487 -0.0177682 0)
(-0.505499 -0.0231802 0)
(-0.495434 -0.0288818 0)
(-0.483204 -0.0349668 0)
(-0.468695 -0.0415419 0)
(-0.451771 -0.0487326 0)
(-0.432269 -0.0566887 0)
(-0.409998 -0.0655922 0)
(-0.384745 -0.0756667 0)
(-0.356278 -0.087189 0)
(-0.324353 -0.100502 0)
(-0.288745 -0.116027 0)
(-0.249282 -0.134271 0)
(-0.20593 -0.155821 0)
(-0.158917 -0.181295 0)
(-0.108965 -0.211204 0)
(-0.0576242 -0.24563 0)
(-0.00776956 -0.283537 0)
(0.0358306 -0.321405 0)
(0.0659908 -0.350772 0)
(0.0735539 -0.354432 0)
(0.0532024 -0.30202 0)
(0.0178998 -0.14852 0)
(0.0119949 0.134411 0)
(0.0410812 0.299704 0)
(0.0660063 0.376467 0)
(0.0699228 0.393428 0)
(0.0525854 0.376245 0)
(0.0200256 0.34275 0)
(-0.0215265 0.303714 0)
(-0.0671038 0.264929 0)
(-0.113213 0.229106 0)
(-0.157651 0.197229 0)
(-0.199159 0.169393 0)
(-0.237112 0.145285 0)
(-0.27128 0.124443 0)
(-0.301667 0.106379 0)
(-0.328404 0.0906384 0)
(-0.351682 0.0768212 0)
(-0.371715 0.0645835 0)
(-0.388713 0.0536346 0)
(-0.402871 0.0437291 0)
(-0.414362 0.0346593 0)
(-0.423336 0.0262483 0)
(-0.429917 0.0183434 0)
(-0.434203 0.0108108 0)
(-0.43627 0.00353122 0)
(-0.436169 -0.00360425 0)
(-0.43393 -0.0106976 0)
(-0.429564 -0.0178469 0)
(-0.423058 -0.0251497 0)
(-0.414384 -0.0327058 0)
(-0.403495 -0.0406203 0)
(-0.390327 -0.0490075 0)
(-0.374798 -0.0579947 0)
(-0.356815 -0.0677265 0)
(-0.336273 -0.0783702 0)
(-0.313064 -0.0901209 0)
(-0.28708 -0.103207 0)
(-0.258236 -0.117897 0)
(-0.226486 -0.134496 0)
(-0.191866 -0.153347 0)
(-0.154553 -0.174804 0)
(-0.114953 -0.199184 0)
(-0.0738421 -0.226654 0)
(-0.0325483 -0.257014 0)
(0.00680472 -0.289298 0)
(0.0410622 -0.321074 0)
(0.065939 -0.347315 0)
(0.0762613 -0.358792 0)
(0.0672768 -0.340196 0)
(0.0401723 -0.269195 0)
(0.0114464 -0.12024 0)
(0.00791586 0.113733 0)
(0.0313651 0.27004 0)
(0.0581773 0.357826 0)
(0.072224 0.39273 0)
(0.0695879 0.392514 0)
(0.0525909 0.371721 0)
(0.0251702 0.340604 0)
(-0.00873436 0.305692 0)
(-0.0458326 0.270764 0)
(-0.0836825 0.237792 0)
(-0.120614 0.20764 0)
(-0.155564 0.18054 0)
(-0.187909 0.15639 0)
(-0.217324 0.134929 0)
(-0.243683 0.115836 0)
(-0.266978 0.0987829 0)
(-0.287274 0.0834594 0)
(-0.304671 0.0695837 0)
(-0.319284 0.0569054 0)
(-0.33123 0.0452032 0)
(-0.340619 0.0342823 0)
(-0.347545 0.0239699 0)
(-0.352091 0.0141117 0)
(-0.354323 0.0045678 0)
(-0.354287 -0.00479066 0)
(-0.352017 -0.0140848 0)
(-0.347529 -0.0234308 0)
(-0.340824 -0.0329432 0)
(-0.331891 -0.0427376 0)
(-0.320708 -0.0529333 0)
(-0.307243 -0.0636567 0)
(-0.291459 -0.0750444 0)
(-0.273316 -0.0872457 0)
(-0.252783 -0.100426 0)
(-0.229842 -0.114769 0)
(-0.204506 -0.130476 0)
(-0.176837 -0.147763 0)
(-0.14698 -0.16685 0)
(-0.115202 -0.187939 0)
(-0.0819536 -0.211168 0)
(-0.0479523 -0.236529 0)
(-0.0142844 -0.263725 0)
(0.0174753 -0.291929 0)
(0.0451559 -0.319403 0)
(0.0659717 -0.342928 0)
(0.0767295 -0.357035 0)
(0.0744017 -0.353152 0)
(0.0574913 -0.319019 0)
(0.0301283 -0.239351 0)
(0.00745465 -0.100323 0)
(0.00547328 0.0984684 0)
(0.0243769 0.243845 0)
(0.0500128 0.335872 0)
(0.068776 0.38273 0)
(0.0754411 0.396199 0)
(0.0699396 0.387399 0)
(0.0542496 0.365216 0)
(0.0310773 0.336045 0)
(0.00311167 0.304122 0)
(-0.0273628 0.272048 0)
(-0.0585778 0.241294 0)
(-0.0892509 0.212588 0)
(-0.118502 0.186205 0)
(-0.145759 0.162152 0)
(-0.170677 0.14029 0)
(-0.193065 0.12041 0)
(-0.212841 0.102274 0)
(-0.229989 0.0856433 0)
(-0.244536 0.0702877 0)
(-0.256532 0.0559932 0)
(-0.266034 0.0425628 0)
(-0.273104 0.0298165 0)
(-0.2778 0.017589 0)
(-0.28017 0.00572796 0)
(-0.280257 -0.00590845 0)
(-0.278092 -0.0174542 0)
(-0.273699 -0.0290377 0)
(-0.267092 -0.0407842 0)
(-0.25828 -0.052818 0)
(-0.247269 -0.0652647 0)
(-0.234061 -0.0782531 0)
(-0.218667 -0.0919172 0)
(-0.201108 -0.106397 0)
(-0.181423 -0.121838 0)
(-0.159686 -0.138392 0)
(-0.13602 -0.156206 0)
(-0.110618 -0.175417 0)
(-0.0837773 -0.196129 0)
(-0.0559351 -0.218377 0)
(-0.0277206 -0.242068 0)
(-1.25927e-05 -0.266885 0)
(0.0259994 -0.292143 0)
(0.0487671 -0.316562 0)
(0.0663845 -0.337963 0)
(0.0767066 -0.352866 0)
(0.0776888 -0.356051 0)
(0.0680017 -0.340235 0)
(0.0481084 -0.296169 0)
(0.0229879 -0.213784 0)
(0.00507893 -0.0858608 0)
(0.00399132 0.0867775 0)
(0.0194336 0.221204 0)
(0.0428375 0.313495 0)
(0.0632747 0.367729 0)
(0.0754454 0.391524 0)
(0.0779659 0.393058 0)
(0.0714003 0.379599 0)
(0.0573428 0.356927 0)
(0.0377638 0.329269 0)
(0.0145782 0.299523 0)
(-0.0105637 0.269554 0)
(-0.0363416 0.240479 0)
(-0.061754 0.212907 0)
(-0.0860749 0.187108 0)
(-0.108799 0.163144 0)
(-0.12959 0.140948 0)
(-0.148236 0.120384 0)
(-0.164616 0.10128 0)
(-0.178667 0.0834484 0)
(-0.190371 0.0667014 0)
(-0.199732 0.0508557 0)
(-0.206772 0.0357364 0)
(-0.211519 0.0211786 0)
(-0.214006 0.00702649 0)
(-0.214263 -0.0068667 0)
(-0.21232 -0.0206405 0)
(-0.208206 -0.0344284 0)
(-0.201947 -0.0483591 0)
(-0.193572 -0.0625583 0)
(-0.183113 -0.0771495 0)
(-0.170609 -0.0922545 0)
(-0.156116 -0.107994 0)
(-0.139707 -0.124486 0)
(-0.121491 -0.141844 0)
(-0.101618 -0.160169 0)
(-0.0803008 -0.179542 0)
(-0.0578334 -0.200006 0)
(-0.034618 -0.221537 0)
(-0.0111952 -0.244006 0)
(0.0117218 -0.267112 0)
(0.0332154 -0.290286 0)
(0.052142 -0.312563 0)
(0.0671407 -0.332403 0)
(0.0767016 -0.347466 0)
(0.0793478 -0.35437 0)
(0.0739891 -0.348495 0)
(0.0604413 -0.323973 0)
(0.0401601 -0.274062 0)
(0.0179632 -0.192273 0)
(0.00364013 -0.0749839 0)
(0.0030535 0.0774932 0)
(0.0158829 0.201684 0)
(0.036867 0.292025 0)
(0.0573594 0.350377 0)
(0.0725241 0.381585 0)
(0.0803811 0.391523 0)
(0.0805872 0.385927 0)
(0.0738681 0.369753 0)
(0.0615195 0.346939 0)
(0.0450146 0.320413 0)
(0.0257654 0.292239 0)
(0.00500506 0.263795 0)
(-0.0162537 0.23595 0)
(-0.0372164 0.209204 0)
(-0.0572822 0.18381 0)
(-0.0760117 0.15985 0)
(-0.0930938 0.137302 0)
(-0.108316 0.116076 0)
(-0.121541 0.0960439 0)
(-0.132683 0.0770591 0)
(-0.141697 0.0589653 0)
(-0.148563 0.0416053 0)
(-0.15328 0.0248244 0)
(-0.15586 0.00847303 0)
(-0.156323 -0.00759234 0)
(-0.154693 -0.0235091 0)
(-0.151002 -0.0394084 0)
(-0.145287 -0.0554154 0)
(-0.137594 -0.0716497 0)
(-0.127978 -0.0882248 0)
(-0.116511 -0.105248 0)
(-0.103285 -0.122817 0)
(-0.0884234 -0.141019 0)
(-0.0720858 -0.159926 0)
(-0.0544839 -0.179581 0)
(-0.0358947 -0.199991 0)
(-0.0166777 -0.221103 0)
(0.00270555 -0.242775 0)
(0.0216717 -0.26473 0)
(0.0394982 -0.2865 0)
(0.055314 -0.307339 0)
(0.0681089 -0.326116 0)
(0.0767775 -0.341187 0)
(0.0802202 -0.350252 0)
(0.0775357 -0.350229 0)
(0.0683298 -0.337219 0)
(0.0531019 -0.306641 0)
(0.0336941 -0.253678 0)
(0.0143679 -0.174199 0)
(0.00273064 -0.0665192 0)
(0.00242779 0.0698964 0)
(0.0132601 0.184777 0)
(0.031964 0.271999 0)
(0.0516916 0.332239 0)
(0.0682416 0.368531 0)
(0.0794644 0.385034 0)
(0.0844961 0.386168 0)
(0.0834456 0.376045 0)
(0.07705 0.358163 0)
(0.0663547 0.335309 0)
(0.0524878 0.309586 0)
(0.036523 0.282515 0)
(0.0194077 0.25514 0)
(0.00193584 0.228145 0)
(-0.015253 0.201945 0)
(-0.0316597 0.176764 0)
(-0.0469055 0.152692 0)
(-0.0607106 0.129729 0)
(-0.0728743 0.107817 0)
(-0.0832571 0.0868588 0)
(-0.0917669 0.0667371 0)
(-0.098347 0.0473217 0)
(-0.102968 0.0284778 0)
(-0.105619 0.0100706 0)
(-0.106309 -0.00803258 0)
(-0.105055 -0.0259595 0)
(-0.101891 -0.043832 0)
(-0.0968606 -0.0617652 0)
(-0.0900219 -0.0798657 0)
(-0.0814505 -0.0982306 0)
(-0.0712428 -0.116945 0)
(-0.0595221 -0.13608 0)
(-0.0464453 -0.155685 0)
(-0.0322121 -0.175783 0)
(-0.0170746 -0.196361 0)
(-0.00134916 -0.217351 0)
(0.0145715 -0.238611 0)
(0.0302062 -0.259896 0)
(0.0449754 -0.280813 0)
(0.058198 -0.300774 0)
(0.0690997 -0.318925 0)
(0.0768413 -0.334064 0)
(0.0805807 -0.344562 0)
(0.0795808 -0.348277 0)
(0.0733844 -0.342518 0)
(0.062059 -0.32409 0)
(0.0464595 -0.289486 0)
(0.0284773 -0.235305 0)
(0.0117254 -0.15894 0)
(0.00212547 -0.0597433 0)
(0.00198721 0.0635371 0)
(0.0112586 0.170035 0)
(0.0279157 0.253582 0)
(0.0464877 0.314219 0)
(0.0634103 0.353817 0)
(0.0765921 0.375285 0)
(0.0849134 0.381979 0)
(0.0880792 0.377233 0)
(0.0864007 0.36406 0)
(0.0805533 0.345 0)
(0.0713836 0.32209 0)
(0.0597754 0.296891 0)
(0.0465657 0.270548 0)
(0.0324992 0.243873 0)
(0.0182091 0.217411 0)
(0.00421603 0.191507 0)
(-0.00906404 0.166356 0)
(-0.0213071 0.142047 0)
(-0.0322668 0.118593 0)
(-0.0417608 0.0959536 0)
(-0.0496589 0.0740569 0)
(-0.0558718 0.0528076 0)
(-0.0603439 0.0320983 0)
(-0.0630461 0.0118156 0)
(-0.0639714 -0.00815485 0)
(-0.0631324 -0.027925 0)
(-0.0605594 -0.0476016 0)
(-0.0563004 -0.0672832 0)
(-0.0504227 -0.0870584 0)
(-0.043015 -0.107003 0)
(-0.0341913 -0.127175 0)
(-0.0240959 -0.147614 0)
(-0.012909 -0.168329 0)
(-0.000853911 -0.189297 0)
(0.011795 -0.210446 0)
(0.0247048 -0.231641 0)
(0.037476 -0.252665 0)
(0.0496376 -0.273188 0)
(0.0606461 -0.292735 0)
(0.0698916 -0.310642 0)
(0.0767181 -0.326005 0)
(0.0804618 -0.337625 0)
(0.0805177 -0.343959 0)
(0.0764405 -0.343088 0)
(0.0680892 -0.332724 0)
(0.05581 -0.310299 0)
(0.0406024 -0.273163 0)
(0.0242397 -0.218929 0)
(0.00972312 -0.145972 0)
(0.00170156 -0.0542 0)
(0.00166119 0.0581235 0)
(0.00968037 0.1571 0)
(0.0245247 0.236769 0)
(0.0417741 0.296838 0)
(0.0584358 0.338419 0)
(0.0725853 0.363534 0)
(0.0830148 0.3747 0)
(0.0891876 0.37458 0)
(0.0911111 0.36571 0)
(0.0891632 0.350344 0)
(0.0839388 0.33038 0)
(0.0761302 0.307346 0)
(0.0664432 0.282426 0)
(0.0555432 0.256509 0)
(0.0440255 0.230234 0)
(0.0324019 0.204041 0)
(0.0210993 0.178218 0)
(0.0104643 0.152934 0)
(0.000771805 0.128273 0)
(-0.00776581 0.104253 0)
(-0.0149891 0.0808497 0)
(-0.0207831 0.0580082 0)
(-0.0250699 0.0356535 0)
(-0.0278029 0.0136994 0)
(-0.0289624 -0.00794497 0)
(-0.0285526 -0.0293703 0)
(-0.0266002 -0.0506629 0)
(-0.0231536 -0.0719009 0)
(-0.0182842 -0.0931503 0)
(-0.0120884 -0.114461 0)
(-0.00469015 -0.135864 0)
(0.00375492 -0.157362 0)
(0.0130547 -0.178928 0)
(0.0229757 -0.200489 0)
(0.0332377 -0.221923 0)
(0.0435091 -0.243037 0)
(0.053404 -0.263551 0)
(0.062482 -0.283075 0)
(0.0702539 -0.301079 0)
(0.0761945 -0.316861 0)
(0.0797687 -0.329513 0)
(0.0804731 -0.337884 0)
(0.0778991 -0.340562 0)
(0.0718202 -0.335868 0)
(0.0623052 -0.321892 0)
(0.0498483 -0.296596 0)
(0.0354675 -0.257994 0)
(0.0207475 -0.20442 0)
(0.00815884 -0.134885 0)
(0.00139022 -0.0495919 0)
(0.00140919 0.05346 0)
(0.00839653 0.145698 0)
(0.0216319 0.221495 0)
(0.0375038 0.280386 0)
(0.0535083 0.322993 0)
(0.0679289 0.350702 0)
(0.0795701 0.365388 0)
(0.0877687 0.369151 0)
(0.0923286 0.364098 0)
(0.0934023 0.352186 0)
(0.091374 0.335136 0)
(0.0867602 0.314397 0)
(0.0801324 0.291144 0)
(0.0720627 0.266298 0)
(0.0630878 0.240558 0)
(0.0536892 0.214438 0)
(0.0442839 0.188297 0)
(0.035223 0.162377 0)
(0.0267942 0.136825 0)
(0.0192279 0.111716 0)
(0.0127028 0.0870757 0)
(0.00735323 0.0628897 0)
(0.00327438 0.0391193 0)
(0.00052757 0.0157092 0)
(-0.000855574 -0.00740418 0)
(-0.000870714 -0.0302864 0)
(0.000460949 -0.0529999 0)
(0.00309352 -0.0755985 0)
(0.00695567 -0.0981232 0)
(0.0119494 -0.120597 0)
(0.0179478 -0.143019 0)
(0.0247921 -0.165359 0)
(0.0322886 -0.187552 0)
(0.0402052 -0.209483 0)
(0.0482685 -0.230983 0)
(0.0561622 -0.251812 0)
(0.0635273 -0.271644 0)
(0.0699663 -0.290046 0)
(0.0750526 -0.306458 0)
(0.0783475 -0.320169 0)
(0.0794276 -0.330297 0)
(0.0779258 -0.33577 0)
(0.0735868 -0.33532 0)
(0.0663382 -0.327505 0)
(0.0563766 -0.31075 0)
(0.0442566 -0.283451 0)
(0.0309441 -0.244125 0)
(0.0178163 -0.191622 0)
(0.00689985 -0.125367 0)
(0.00115175 -0.0457185 0)
(0.00120695 0.0494114 0)
(0.00732169 0.135618 0)
(0.0191154 0.207674 0)
(0.0336082 0.265029 0)
(0.0487064 0.307981 0)
(0.0629072 0.337464 0)
(0.0750835 0.354866 0)
(0.0845235 0.36183 0)
(0.090905 0.360086 0)
(0.0942187 0.351309 0)
(0.0946814 0.337032 0)
(0.0926578 0.318595 0)
(0.0885937 0.297131 0)
(0.0829641 0.27356 0)
(0.0762375 0.248612 0)
(0.0688507 0.222849 0)
(0.061196 0.196687 0)
(0.0536142 0.170427 0)
(0.0463932 0.14427 0)
(0.0397698 0.118346 0)
(0.0339337 0.0927256 0)
(0.0290313 0.0674377 0)
(0.0251704 0.04248 0)
(0.0224239 0.01783 0)
(0.0208337 -0.00654596 0)
(0.0204127 -0.0306863 0)
(0.0211465 -0.0546268 0)
(0.0229942 -0.0783954 0)
(0.0258885 -0.102006 0)
(0.0297346 -0.125454 0)
(0.0344086 -0.148708 0)
(0.0397563 -0.171705 0)
(0.0455905 -0.194343 0)
(0.0516895 -0.216472 0)
(0.0577964 -0.237884 0)
(0.0636195 -0.2583 0)
(0.0688348 -0.277361 0)
(0.0730935 -0.294607 0)
(0.0760327 -0.309469 0)
(0.0772945 -0.321246 0)
(0.0765528 -0.329101 0)
(0.0735497 -0.332053 0)
(0.068143 -0.328983 0)
(0.0603623 -0.318663 0)
(0.0504719 -0.299804 0)
(0.0390307 -0.271153 0)
(0.0269167 -0.231607 0)
(0.0153056 -0.180383 0)
(0.00585733 -0.117182 0)
(0.000962116 -0.0424413 0)
(0.00103928 0.045882 0)
(0.00639798 0.126704 0)
(0.0168835 0.195224 0)
(0.030019 0.250855 0)
(0.044053 0.293683 0)
(0.0576857 0.324316 0)
(0.0698868 0.343773 0)
(0.0799463 0.353335 0)
(0.0874737 0.354409 0)
(0.0923494 0.348416 0)
(0.0946637 0.336703 0)
(0.0946564 0.320491 0)
(0.0926616 0.300843 0)
(0.0890624 0.278659 0)
(0.0842552 0.254675 0)
(0.0786254 0.229482 0)
(0.0725303 0.203536 0)
(0.0662899 0.177182 0)
(0.0601818 0.150671 0)
(0.0544406 0.124177 0)
(0.0492583 0.0978153 0)
(0.0447876 0.0716539 0)
(0.0411437 0.0457273 0)
(0.0384084 0.0200463 0)
(0.0366318 -0.00539261 0)
(0.0358347 -0.030599 0)
(0.0360105 -0.0555814 0)
(0.0371254 -0.0803407 0)
(0.039119 -0.104864 0)
(0.0419036 -0.129118 0)
(0.0453639 -0.153042 0)
(0.0493555 -0.176543 0)
(0.0537043 -0.199487 0)
(0.0582061 -0.221691 0)
(0.0626266 -0.242917 0)
(0.0667044 -0.262855 0)
(0.0701549 -0.281124 0)
(0.0726783 -0.29725 0)
(0.0739727 -0.310666 0)
(0.0737515 -0.320697 0)
(0.0717686 -0.32656 0)
(0.06785 -0.327367 0)
(0.0619325 -0.322138 0)
(0.0541068 -0.309836 0)
(0.044663 -0.289411 0)
(0.0341299 -0.259885 0)
(0.023282 -0.220446 0)
(0.0131096 -0.170573 0)
(0.00497041 -0.110152 0)
(0.000806167 -0.039662 0)
(0.000896272 0.0428024 0)
(0.0055853 0.118833 0)
(0.0148679 0.18407 0)
(0.026676 0.237913 0)
(0.0395447 0.280304 0)
(0.05236 0.311622 0)
(0.0642 0.332605 0)
(0.0743886 0.344246 0)
(0.0825077 0.347687 0)
(0.0883685 0.344123 0)
(0.0919698 0.334729 0)
(0.0934529 0.320602 0)
(0.0930575 0.302729 0)
(0.0910829 0.28197 0)
(0.0878565 0.259052 0)
(0.0837091 0.234576 0)
(0.0789578 0.209025 0)
(0.0738944 0.182777 0)
(0.0687789 0.156121 0)
(0.063836 0.12927 0)
(0.0592538 0.10238 0)
(0.0551854 0.075553 0)
(0.0517495 0.0488596 0)
(0.0490329 0.0223423 0)
(0.0470924 -0.00397215 0)
(0.0459562 -0.030065 0)
(0.0456254 -0.0559177 0)
(0.0460747 -0.0815043 0)
(0.0472529 -0.106785 0)
(0.0490829 -0.1317 0)
(0.0514613 -0.156161 0)
(0.0542584 -0.180047 0)
(0.0573177 -0.203195 0)
(0.0604568 -0.225397 0)
(0.0634684 -0.246385 0)
(0.0661242 -0.265832 0)
(0.0681796 -0.283339 0)
(0.0693825 -0.29843 0)
(0.0694854 -0.310547 0)
(0.0682624 -0.319047 0)
(0.0655308 -0.323205 0)
(0.0611778 -0.322222 0)
(0.0551913 -0.315243 0)
(0.0476931 -0.301393 0)
(0.0389701 -0.27982 0)
(0.029501 -0.249762 0)
(0.0199526 -0.210627 0)
(0.011149 -0.162083 0)
(0.00419645 -0.104145 0)
(0.000673925 -0.0373106 0)
(0.000771211 0.0401216 0)
(0.00485525 0.111916 0)
(0.0130173 0.174151 0)
(0.023529 0.226227 0)
(0.0351672 0.26799 0)
(0.0469848 0.299653 0)
(0.0581713 0.321744 0)
(0.0681033 0.335029 0)
(0.0763636 0.340432 0)
(0.0827256 0.338957 0)
(0.0871256 0.331622 0)
(0.0896303 0.319406 0)
(0.0904024 0.303216 0)
(0.0896685 0.283862 0)
(0.087692 0.262052 0)
(0.0847502 0.238383 0)
(0.0811177 0.213353 0)
(0.0770543 0.187362 0)
(0.0727969 0.16073 0)
(0.0685548 0.133703 0)
(0.0645071 0.106467 0)
(0.0608025 0.0791588 0)
(0.0575593 0.05188 0)
(0.0548666 0.0247034 0)
(0.0527857 -0.00231597 0)
(0.0513511 -0.0291321 0)
(0.0505716 -0.0557002 0)
(0.0504312 -0.0819688 0)
(0.0508897 -0.107873 0)
(0.0518824 -0.133327 0)
(0.053321 -0.158219 0)
(0.0550933 -0.182401 0)
(0.0570636 -0.205687 0)
(0.0590741 -0.227845 0)
(0.0609468 -0.248587 0)
(0.0624871 -0.26757 0)
(0.0634895 -0.284386 0)
(0.0637457 -0.29856 0)
(0.0630558 -0.30955 0)
(0.0612437 -0.316746 0)
(0.0581749 -0.319479 0)
(0.0537789 -0.31703 0)
(0.0480731 -0.308655 0)
(0.0411876 -0.293614 0)
(0.0333879 -0.271212 0)
(0.0250907 -0.240859 0)
(0.0168574 -0.202128 0)
(0.00936384 -0.154828 0)
(0.00350495 -0.099062 0)
(0.000558603 -0.0353359 0)
(0.000659425 0.0378013 0)
(0.00418735 0.105881 0)
(0.0112934 0.165414 0)
(0.0205372 0.215806 0)
(0.0309024 0.256841 0)
(0.0415913 0.288611 0)
(0.0519023 0.311485 0)
(0.0612754 0.326054 0)
(0.0693137 0.333066 0)
(0.0757761 0.333363 0)
(0.0805599 0.327827 0)
(0.0836778 0.317328 0)
(0.0852316 0.302693 0)
(0.085387 0.284683 0)
(0.0843501 0.263973 0)
(0.0823481 0.241152 0)
(0.0796135 0.216722 0)
(0.0763718 0.191099 0)
(0.0728339 0.164621 0)
(0.0691896 0.137561 0)
(0.0656052 0.110132 0)
(0.0622211 0.0825011 0)
(0.0591519 0.0547956 0)
(0.0564865 0.0271159 0)
(0.0542885 -0.000456782 0)
(0.0525976 -0.0278512 0)
(0.05143 -0.0549983 0)
(0.0507794 -0.081823 0)
(0.050617 -0.108237 0)
(0.0508925 -0.134132 0)
(0.0515341 -0.159373 0)
(0.0524492 -0.183791 0)
(0.0535248 -0.207178 0)
(0.0546294 -0.229282 0)
(0.0556147 -0.249801 0)
(0.0563195 -0.268378 0)
(0.0565751 -0.284601 0)
(0.0562126 -0.298 0)
(0.0550728 -0.308049 0)
(0.0530189 -0.31417 0)
(0.0499521 -0.315743 0)
(0.0458285 -0.312121 0)
(0.0406787 -0.302652 0)
(0.0346252 -0.286707 0)
(0.0278993 -0.263718 0)
(0.0208507 -0.233225 0)
(0.0139392 -0.194929 0)
(0.00770891 -0.148741 0)
(0.0028737 -0.094829 0)
(0.00045545 -0.0337009 0)
(0.00055756 0.0358129 0)
(0.00356651 0.100676 0)
(0.00966677 0.157817 0)
(0.0176678 0.206655 0)
(0.0267326 0.24693 0)
(0.0361971 0.278648 0)
(0.045464 0.302059 0)
(0.0540424 0.317617 0)
(0.0615685 0.325932 0)
(0.0678039 0.327712 0)
(0.0726252 0.323722 0)
(0.0760079 0.314737 0)
(0.0780077 0.301509 0)
(0.0787403 0.284746 0)
(0.0783623 0.265092 0)
(0.0770553 0.243121 0)
(0.075011 0.21933 0)
(0.072421 0.194143 0)
(0.069468 0.167913 0)
(0.0663203 0.140932 0)
(0.0631279 0.113435 0)
(0.0600205 0.0856122 0)
(0.0571058 0.0576148 0)
(0.0544701 0.0295668 0)
(0.0521779 0.00157267 0)
(0.0502726 -0.0262741 0)
(0.0487772 -0.0538825 0)
(0.0476945 -0.0811563 0)
(0.0470082 -0.107987 0)
(0.0466825 -0.134245 0)
(0.0466636 -0.159777 0)
(0.0468793 -0.184393 0)
(0.0472404 -0.207869 0)
(0.047642 -0.229937 0)
(0.0479655 -0.250279 0)
(0.0480819 -0.268533 0)
(0.0478565 -0.284281 0)
(0.0471554 -0.29706 0)
(0.0458532 -0.306359 0)
(0.0438444 -0.311628 0)
(0.0410545 -0.31229 0)
(0.0374548 -0.307757 0)
(0.0330762 -0.297452 0)
(0.028023 -0.280833 0)
(0.0224839 -0.257433 0)
(0.0167392 -0.226894 0)
(0.0111527 -0.189011 0)
(0.00614967 -0.143772 0)
(0.0022863 -0.0913914 0)
(0.000361052 -0.0323784 0)
(0.00046315 0.0341347 0)
(0.00298141 0.096257 0)
(0.00811512 0.151326 0)
(0.0148949 0.198773 0)
(0.0226415 0.238307 0)
(0.0308118 0.269875 0)
(0.0389075 0.293639 0)
(0.0465089 0.30995 0)
(0.0532938 0.319305 0)
(0.0590389 0.322308 0)
(0.0636138 0.319624 0)
(0.0669711 0.311947 0)
(0.0691324 0.299962 0)
(0.0701734 0.284329 0)
(0.0702091 0.265659 0)
(0.0693797 0.244505 0)
(0.0678395 0.221357 0)
(0.0657465 0.196642 0)
(0.0632549 0.170722 0)
(0.0605099 0.143901 0)
(0.0576434 0.116432 0)
(0.0547715 0.0885233 0)
(0.0519936 0.0603459 0)
(0.0493908 0.0320436 0)
(0.0470268 0.00374042 0)
(0.0449476 -0.0244509 0)
(0.0431818 -0.0524207 0)
(0.0417413 -0.0800546 0)
(0.0406216 -0.107226 0)
(0.0398022 -0.133789 0)
(0.0392472 -0.159571 0)
(0.0389055 -0.184369 0)
(0.038712 -0.207942 0)
(0.0385882 -0.230009 0)
(0.0384446 -0.250243 0)
(0.0381828 -0.268271 0)
(0.0376995 -0.283677 0)
(0.0368913 -0.295999 0)
(0.0356617 -0.30474 0)
(0.0339286 -0.309372 0)
(0.0316341 -0.309354 0)
(0.0287551 -0.304143 0)
(0.025314 -0.29322 0)
(0.0213888 -0.276113 0)
(0.0171213 -0.25243 0)
(0.0127215 -0.221889 0)
(0.0084617 -0.184359 0)
(0.00465954 -0.139883 0)
(0.00173039 -0.0887094 0)
(0.000272902 -0.0313491 0)
(0.00037433 0.0327501 0)
(0.00242337 0.0925938 0)
(0.00662086 0.145915 0)
(0.0121971 0.192156 0)
(0.0186148 0.23101 0)
(0.0254406 0.262378 0)
(0.0322703 0.286361 0)
(0.0387561 0.303231 0)
(0.0446225 0.313402 0)
(0.0496699 0.317393 0)
(0.0537718 0.315791 0)
(0.0568683 0.309219 0)
(0.0589574 0.298307 0)
(0.0600833 0.28367 0)
(0.060326 0.265887 0)
(0.0597898 0.245491 0)
(0.0585938 0.222964 0)
(0.0568642 0.198728 0)
(0.054727 0.17315 0)
(0.0523032 0.146544 0)
(0.0497053 0.119174 0)
(0.0470345 0.091262 0)
(0.0443792 0.0629954 0)
(0.0418144 0.0345333 0)
(0.0394011 0.00601558 0)
(0.0371863 -0.0224294 0)
(0.0352035 -0.0506766 0)
(0.0334727 -0.0785967 0)
(0.0320011 -0.106048 0)
(0.0307831 -0.132872 0)
(0.0298007 -0.158881 0)
(0.0290238 -0.183859 0)
(0.0284111 -0.207553 0)
(0.0279105 -0.229671 0)
(0.0274604 -0.249876 0)
(0.0269914 -0.267789 0)
(0.0264293 -0.282992 0)
(0.0256982 -0.295024 0)
(0.0247253 -0.303398 0)
(0.0234471 -0.307601 0)
(0.0218156 -0.307117 0)
(0.019807 -0.301437 0)
(0.0174286 -0.290085 0)
(0.0147269 -0.272639 0)
(0.0117935 -0.248762 0)
(0.00876886 -0.218231 0)
(0.00583765 -0.180964 0)
(0.00321783 -0.137047 0)
(0.00119652 -0.0867549 0)
(0.00018911 -0.0305989 0)
(0.000289648 0.0316467 0)
(0.00188554 0.0896617 0)
(0.0051699 0.141563 0)
(0.00955723 0.186801 0)
(0.0146397 0.225062 0)
(0.0200858 0.256217 0)
(0.025581 0.280323 0)
(0.0308484 0.297598 0)
(0.0356631 0.308391 0)
(0.0398549 0.313159 0)
(0.0433088 0.312426 0)
(0.045961 0.306762 0)
(0.0477935 0.296748 0)
(0.0488266 0.282961 0)
(0.0491109 0.265953 0)
(0.0487188 0.246237 0)
(0.0477378 0.224283 0)
(0.0462634 0.20051 0)
(0.0443939 0.175283 0)
(0.0422262 0.148923 0)
(0.0398523 0.121701 0)
(0.037357 0.0938493 0)
(0.0348167 0.0655658 0)
(0.0322981 0.0370215 0)
(0.0298583 0.00836828 0)
(0.0275442 -0.0202537 0)
(0.0253928 -0.0487076 0)
(0.0234316 -0.0768528 0)
(0.0216784 -0.104537 0)
(0.0201421 -0.131589 0)
(0.0188223 -0.157812 0)
(0.0177097 -0.18298 0)
(0.0167863 -0.20683 0)
(0.0160257 -0.22906 0)
(0.0153934 -0.249325 0)
(0.0148481 -0.267241 0)
(0.0143425 -0.282385 0)
(0.0138257 -0.294296 0)
(0.0132457 -0.30249 0)
(0.0125534 -0.306464 0)
(0.0117067 -0.305715 0)
(0.0106762 -0.299756 0)
(0.00945001 -0.288139 0)
(0.00803992 -0.270477 0)
(0.00648561 -0.246469 0)
(0.00485799 -0.215931 0)
(0.00325752 -0.178818 0)
(0.00180814 -0.135247 0)
(0.00067725 -0.0855083 0)
(0.000108205 -0.0301185 0)
(0.000207929 0.0308154 0)
(0.00136228 0.0874425 0)
(0.00375052 0.138252 0)
(0.0069603 0.182704 0)
(0.0107047 0.220479 0)
(0.0147479 0.251435 0)
(0.0188611 0.275598 0)
(0.0228382 0.293149 0)
(0.0265061 0.304396 0)
(0.0297284 0.309747 0)
(0.0324069 0.309685 0)
(0.0344799 0.304734 0)
(0.0359196 0.295442 0)
(0.0367277 0.282353 0)
(0.0369299 0.265995 0)
(0.0365709 0.246865 0)
(0.0357086 0.22542 0)
(0.0344097 0.202072 0)
(0.0327454 0.177187 0)
(0.0307882 0.151086 0)
(0.0286089 0.124043 0)
(0.0262752 0.0962975 0)
(0.0238499 0.0680541 0)
(0.0213905 0.0394914 0)
(0.0189484 0.0107692 0)
(0.0165693 -0.0179642 0)
(0.0142925 -0.0465644 0)
(0.0121518 -0.0748828 0)
(0.0101752 -0.10276 0)
(0.00838483 -0.130016 0)
(0.00679754 -0.156449 0)
(0.0054242 -0.181824 0)
(0.00426977 -0.20587 0)
(0.00333296 -0.228279 0)
(0.00260597 -0.248699 0)
(0.00207428 -0.266739 0)
(0.00171669 -0.28197 0)
(0.00150568 -0.293928 0)
(0.00140829 -0.302126 0)
(0.00138755 -0.306063 0)
(0.00140468 -0.30524 0)
(0.00142189 -0.29918 0)
(0.00140586 -0.287448 0)
(0.00133147 -0.269673 0)
(0.00118552 -0.245578 0)
(0.00096983 -0.215001 0)
(0.000702531 -0.177919 0)
(0.000417141 -0.13447 0)
(0.000166574 -0.0849574 0)
(2.90069e-05 -0.0299018 0)
(0.000128174 0.0302497 0)
(0.000848766 0.0859233 0)
(0.00235252 0.135971 0)
(0.0043931 0.17986 0)
(0.00679896 0.217273 0)
(0.00942554 0.24806 0)
(0.0121276 0.272233 0)
(0.0147687 0.289953 0)
(0.0172288 0.301501 0)
(0.0194077 0.307258 0)
(0.0212274 0.307675 0)
(0.0226325 0.303249 0)
(0.0235895 0.2945 0)
(0.0240855 0.281951 0)
(0.0241249 0.266109 0)
(0.0237269 0.247459 0)
(0.0229222 0.226444 0)
(0.0217497 0.203473 0)
(0.0202542 0.178905 0)
(0.0184835 0.153059 0)
(0.0164872 0.126214 0)
(0.0143146 0.0986081 0)
(0.0120142 0.0704503 0)
(0.00963262 0.0419227 0)