/*--------------------------------*- C++ -*----------------------------------*\
  =========                 |
  \\      /  F ield         | OpenFOAM: The Open Source CFD Toolbox
   \\    /   O peration     | Website:  https://openfoam.org
    \\  /    A nd           | Version:  7
     \\/     M anipulation  |
\*---------------------------------------------------------------------------*/
FoamFile
{
    version     2.0;
    format      ascii;
    class       volVectorField;
    location    "0.048";
    object      U;
}
// * * * * * * * * * * * * * * * * * * * * * * * * * * * * * * * * * * * * * //

dimensions      [0 1 -1 0 0 0 0];

internalField   nonuniform List<vector> 
2500
(
(-0.293803 0.153725 0)
(-0.397942 0.128723 0)
(-0.577978 0.0737921 0)
(-0.69626 0.0408724 0)
(-0.76523 0.0233904 0)
(-0.809545 0.0141364 0)
(-0.84011 0.00915038 0)
(-0.862174 0.00634231 0)
(-0.87877 0.00465338 0)
(-0.891684 0.00356366 0)
(-0.901988 0.00281499 0)
(-0.910365 0.00227339 0)
(-0.917266 0.00186504 0)
(-0.923006 0.00154664 0)
(-0.92781 0.00129124 0)
(-0.93184 0.00108118 0)
(-0.935217 0.000904383 0)
(-0.938033 0.000752295 0)
(-0.940357 0.000618683 0)
(-0.942241 0.000498874 0)
(-0.943723 0.000389279 0)
(-0.944833 0.000287067 0)
(-0.945591 0.00018994 0)
(-0.946012 9.59762e-05 0)
(-0.946103 3.50375e-06 0)
(-0.945867 -8.90295e-05 0)
(-0.945302 -0.000183071 0)
(-0.944401 -0.000280099 0)
(-0.943151 -0.000381704 0)
(-0.941534 -0.000489678 0)
(-0.939527 -0.000606146 0)
(-0.937097 -0.000733733 0)
(-0.934204 -0.000875798 0)
(-0.930795 -0.00103677 0)
(-0.926799 -0.00122265 0)
(-0.922128 -0.00144182 0)
(-0.916661 -0.00170633 0)
(-0.910238 -0.00203419 0)
(-0.902637 -0.00245344 0)
(-0.893548 -0.00301006 0)
(-0.882517 -0.00378366 0)
(-0.868859 -0.00491973 0)
(-0.851489 -0.00669704 0)
(-0.828604 -0.00966682 0)
(-0.797188 -0.0149164 0)
(-0.752095 -0.0244994 0)
(-0.68258 -0.0421506 0)
(-0.564954 -0.0746203 0)
(-0.389319 -0.128128 0)
(-0.290207 -0.152372 0)
(-0.00516246 0.302913 0)
(-0.0270629 0.307344 0)
(-0.171316 0.21778 0)
(-0.308161 0.146559 0)
(-0.417041 0.0991782 0)
(-0.502226 0.0689116 0)
(-0.568558 0.0496537 0)
(-0.620443 0.0371072 0)
(-0.661564 0.028618 0)
(-0.694646 0.0226383 0)
(-0.721626 0.0182661 0)
(-0.743883 0.0149616 0)
(-0.762409 0.0123907 0)
(-0.777929 0.0103387 0)
(-0.790977 0.0086622 0)
(-0.801956 0.00726275 0)
(-0.81117 0.0060704 0)
(-0.818851 0.00503426 0)
(-0.825176 0.00411642 0)
(-0.830281 0.00328796 0)
(-0.83427 0.00252633 0)
(-0.83722 0.00181352 0)
(-0.839187 0.00113475 0)
(-0.840208 0.000477506 0)
(-0.840305 -0.000169186 0)
(-0.839488 -0.000815386 0)
(-0.83775 -0.00147074 0)
(-0.835075 -0.002145 0)
(-0.83143 -0.00284859 0)
(-0.826771 -0.00359318 0)
(-0.821035 -0.00439245 0)
(-0.81414 -0.00526309 0)
(-0.805981 -0.00622612 0)
(-0.796423 -0.00730873 0)
(-0.785293 -0.008547 0)
(-0.772366 -0.00998997 0)
(-0.757351 -0.0117058 0)
(-0.739864 -0.0137916 0)
(-0.719396 -0.0163898 0)
(-0.695259 -0.0197156 0)
(-0.666511 -0.0241048 0)
(-0.631852 -0.0300981 0)
(-0.589468 -0.0385911 0)
(-0.536838 -0.0510954 0)
(-0.470643 -0.0701377 0)
(-0.387033 -0.0996639 0)
(-0.281822 -0.145093 0)
(-0.151523 -0.212618 0)
(-0.0164479 -0.298197 0)
(-0.000987518 -0.294678 0)
(0.0321114 0.26406 0)
(0.0563746 0.36233 0)
(-0.00360681 0.324937 0)
(-0.0958231 0.260466 0)
(-0.192134 0.200781 0)
(-0.280844 0.153724 0)
(-0.357838 0.11877 0)
(-0.422904 0.093167 0)
(-0.477398 0.0742789 0)
(-0.523004 0.0601176 0)
(-0.561275 0.0492878 0)
(-0.593514 0.0408313 0)
(-0.620767 0.0340905 0)
(-0.643862 0.0286091 0)
(-0.663446 0.0240653 0)
(-0.680026 0.0202275 0)
(-0.694 0.0169265 0)
(-0.705679 0.0140358 0)
(-0.715306 0.0114591 0)
(-0.723072 0.00912208 0)
(-0.729123 0.00696568 0)
(-0.733569 0.00494234 0)
(-0.736492 0.00301262 0)
(-0.737947 0.00114292 0)
(-0.737968 -0.000696397 0)
(-0.736571 -0.0025325 0)
(-0.733749 -0.00439149 0)
(-0.729479 -0.00629968 0)
(-0.723721 -0.00828495 0)
(-0.716412 -0.0103783 0)
(-0.707469 -0.0126156 0)
(-0.696781 -0.0150402 0)
(-0.684209 -0.0177057 0)
(-0.669574 -0.0206803 0)
(-0.652653 -0.0240529 0)
(-0.633164 -0.0279412 0)
(-0.61075 -0.0325042 0)
(-0.58496 -0.0379603 0)
(-0.555224 -0.0446145 0)
(-0.52082 -0.0528991 0)
(-0.480848 -0.063435 0)
(-0.434208 -0.0771194 0)
(-0.379627 -0.0952418 0)
(-0.315805 -0.119607 0)
(-0.24187 -0.152548 0)
(-0.158515 -0.196386 0)
(-0.0700527 -0.251283 0)
(0.0122116 -0.30991 0)
(0.0620073 -0.343239 0)
(0.033031 -0.249914 0)
(0.0271485 0.205256 0)
(0.0637359 0.357838 0)
(0.0551065 0.375668 0)
(0.00781775 0.338522 0)
(-0.0597463 0.285879 0)
(-0.133256 0.235013 0)
(-0.20456 0.191683 0)
(-0.269882 0.15658 0)
(-0.327958 0.12865 0)
(-0.378781 0.106476 0)
(-0.422894 0.0887612 0)
(-0.461021 0.0744563 0)
(-0.493893 0.0627513 0)
(-0.522174 0.0530345 0)
(-0.546435 0.0448453 0)
(-0.567159 0.0378357 0)
(-0.584742 0.0317407 0)
(-0.599507 0.0263562 0)
(-0.611718 0.0215228 0)
(-0.621582 0.0171145 0)
(-0.629265 0.01303 0)
(-0.634895 0.00918629 0)
(-0.638567 0.00551372 0)
(-0.640347 0.00195256 0)
(-0.640279 -0.00155015 0)
(-0.638382 -0.00504311 0)
(-0.634654 -0.00857299 0)
(-0.629074 -0.0121866 0)
(-0.621599 -0.015933 0)
(-0.612164 -0.0198662 0)
(-0.600682 -0.0240478 0)
(-0.587039 -0.0285508 0)
(-0.571092 -0.0334641 0)
(-0.552663 -0.0388983 0)
(-0.531535 -0.0449941 0)
(-0.507444 -0.0519323 0)
(-0.480072 -0.0599491 0)
(-0.449042 -0.0693551 0)
(-0.413914 -0.0805614 0)
(-0.374199 -0.0941123 0)
(-0.329383 -0.110723 0)
(-0.279015 -0.13131 0)
(-0.222873 -0.156984 0)
(-0.161309 -0.188923 0)
(-0.0958728 -0.227925 0)
(-0.0303663 -0.273169 0)
(0.0275616 -0.319298 0)
(0.0649135 -0.35074 0)
(0.0657237 -0.331925 0)
(0.0268683 -0.189921 0)
(0.0184505 0.163487 0)
(0.0530685 0.331642 0)
(0.0684217 0.387106 0)
(0.0526578 0.379869 0)
(0.01294 0.344243 0)
(-0.0400131 0.299797 0)
(-0.0980401 0.256089 0)
(-0.15594 0.216965 0)
(-0.210776 0.183426 0)
(-0.261127 0.155225 0)
(-0.306481 0.131659 0)
(-0.34683 0.111937 0)
(-0.382415 0.0953329 0)
(-0.413581 0.0812288 0)
(-0.440696 0.0691178 0)
(-0.464116 0.0585921 0)
(-0.484158 0.0493247 0)
(-0.501101 0.041054 0)
(-0.515182 0.0335688 0)
(-0.526596 0.026698 0)
(-0.535504 0.0203006 0)
(-0.542034 0.0142591 0)
(-0.546281 0.00847403 0)
(-0.548318 0.00285866 0)
(-0.548192 -0.00266414 0)
(-0.545927 -0.00816549 0)
(-0.541528 -0.0137133 0)
(-0.534979 -0.0193753 0)
(-0.526245 -0.0252217 0)
(-0.515273 -0.0313285 0)
(-0.501986 -0.0377809 0)
(-0.486289 -0.0446779 0)
(-0.468065 -0.0521369 0)
(-0.447172 -0.0603005 0)
(-0.423445 -0.0693444 0)
(-0.396697 -0.0794868 0)
(-0.366722 -0.0910004 0)
(-0.333307 -0.104225 0)
(-0.296253 -0.119582 0)
(-0.255418 -0.13758 0)
(-0.210791 -0.15881 0)
(-0.162628 -0.183898 0)
(-0.111667 -0.213366 0)
(-0.0594764 -0.247315 0)
(-0.00893777 -0.284731 0)
(0.0351781 -0.322122 0)
(0.0656931 -0.351064 0)
(0.073466 -0.354395 0)
(0.0532045 -0.301805 0)
(0.0179104 -0.148343 0)
(0.0119485 0.134713 0)
(0.0407726 0.300733 0)
(0.0651336 0.378243 0)
(0.0682433 0.395907 0)
(0.0498898 0.379354 0)
(0.0161281 0.346401 0)
(-0.0267772 0.307817 0)
(-0.0738291 0.269394 0)
(-0.12151 0.233846 0)
(-0.167585 0.202161 0)
(-0.210769 0.174436 0)
(-0.25041 0.150362 0)
(-0.286252 0.129476 0)
(-0.318275 0.111294 0)
(-0.346586 0.0953624 0)
(-0.371355 0.0812831 0)
(-0.392773 0.0687153 0)
(-0.411029 0.0573718 0)
(-0.426301 0.0470116 0)
(-0.438745 0.0374325 0)
(-0.448496 0.028464 0)
(-0.455664 0.0199606 0)
(-0.46034 0.0117969 0)
(-0.46259 0.00386274 0)
(-0.462463 -0.00394098 0)
(-0.459987 -0.0117057 0)
(-0.455174 -0.0195186 0)
(-0.44802 -0.0274656 0)
(-0.438503 -0.035635 0)
(-0.42659 -0.0441202 0)
(-0.412231 -0.0530242 0)
(-0.395365 -0.062463 0)
(-0.375919 -0.0725707 0)
(-0.353814 -0.083505 0)
(-0.328966 -0.0954525 0)
(-0.301299 -0.108635 0)
(-0.270755 -0.123314 0)
(-0.237319 -0.139795 0)
(-0.201058 -0.158417 0)
(-0.162178 -0.17954 0)
(-0.121113 -0.203486 0)
(-0.0786638 -0.230434 0)
(-0.0361795 -0.260199 0)
(0.00419998 -0.291839 0)
(0.0393093 -0.322949 0)
(0.0648592 -0.348542 0)
(0.0756794 -0.359431 0)
(0.0670288 -0.340362 0)
(0.0401111 -0.269066 0)
(0.0114453 -0.120073 0)
(0.00786213 0.114207 0)
(0.031009 0.271542 0)
(0.0571752 0.360341 0)
(0.0703043 0.396187 0)
(0.0665179 0.396811 0)
(0.0481665 0.376738 0)
(0.0192226 0.34622 0)
(-0.016341 0.311784 0)
(-0.0552028 0.277215 0)
(-0.0948869 0.244489 0)
(-0.133693 0.214473 0)
(-0.170527 0.187403 0)
(-0.204737 0.163181 0)
(-0.235973 0.141547 0)
(-0.26408 0.122184 0)
(-0.289027 0.104766 0)
(-0.310855 0.0889888 0)
(-0.329642 0.0745743 0)
(-0.345484 0.0612787 0)
(-0.35848 0.0488881 0)
(-0.368723 0.0372166 0)
(-0.376296 0.0261013 0)
(-0.381271 0.0153989 0)
(-0.383706 0.00498162 0)
(-0.383645 -0.00526624 0)
(-0.38112 -0.0154519 0)
(-0.376149 -0.0256773 0)
(-0.368743 -0.0360419 0)
(-0.358898 -0.0466462 0)
(-0.346606 -0.0575945 0)
(-0.331853 -0.0689985 0)
(-0.31462 -0.0809804 0)
(-0.294893 -0.0936764 0)
(-0.272666 -0.10724 0)
(-0.247947 -0.121844 0)
(-0.220781 -0.13768 0)
(-0.191261 -0.15496 0)
(-0.159561 -0.1739 0)
(-0.125981 -0.194703 0)
(-0.0910028 -0.21751 0)
(-0.055371 -0.242322 0)
(-0.0201978 -0.268858 0)
(0.0129196 -0.296309 0)
(0.0417927 -0.322968 0)
(0.063623 -0.345647 0)
(0.0752102 -0.358923 0)
(0.0735253 -0.354275 0)
(0.0570768 -0.319502 0)
(0.0300013 -0.239389 0)
(0.00744151 -0.100202 0)
(0.00541465 0.0991351 0)
(0.0239871 0.245873 0)
(0.0489164 0.33921 0)
(0.0666784 0.387274 0)
(0.0720909 0.401811 0)
(0.0651171 0.393927 0)
(0.0477709 0.372503 0)
(0.0227949 0.343933 0)
(-0.00708615 0.312459 0)
(-0.0395521 0.280688 0)
(-0.0728005 0.250095 0)
(-0.105517 0.221414 0)
(-0.136789 0.194924 0)
(-0.166016 0.170636 0)
(-0.192823 0.148414 0)
(-0.216995 0.128056 0)
(-0.238423 0.109328 0)
(-0.257071 0.0919997 0)
(-0.272942 0.0758486 0)
(-0.286069 0.0606705 0)
(-0.296493 0.0462798 0)
(-0.304263 0.0325091 0)
(-0.309425 0.0192073 0)
(-0.312022 0.00623745 0)
(-0.312093 -0.00652591 0)
(-0.309669 -0.0191993 0)
(-0.304776 -0.0318932 0)
(-0.297437 -0.0447143 0)
(-0.287671 -0.0577681 0)
(-0.275496 -0.0711618 0)
(-0.260936 -0.0850062 0)
(-0.24402 -0.0994178 0)
(-0.224793 -0.11452 0)
(-0.203322 -0.130446 0)
(-0.179708 -0.147331 0)
(-0.154104 -0.165316 0)
(-0.126736 -0.18453 0)
(-0.0979315 -0.205073 0)
(-0.0681602 -0.22698 0)
(-0.0380815 -0.250166 0)
(-0.00860314 -0.274324 0)
(0.0190591 -0.298786 0)
(0.0433339 -0.322297 0)
(0.0622957 -0.342711 0)
(0.0737844 -0.356585 0)
(0.0757444 -0.35875 0)
(0.0668398 -0.341977 0)
(0.0475326 -0.297082 0)
(0.0227977 -0.214073 0)
(0.00505448 -0.0858192 0)
(0.00392992 0.0876506 0)
(0.0190228 0.223797 0)
(0.0416804 0.317716 0)
(0.0610605 0.373437 0)
(0.071909 0.398546 0)
(0.0728751 0.401204 0)
(0.0645598 0.388675 0)
(0.0485956 0.366737 0)
(0.026991 0.339626 0)
(0.0016984 0.310244 0)
(-0.0255955 0.280463 0)
(-0.0535352 0.251406 0)
(-0.0810862 0.223688 0)
(-0.107491 0.197586 0)
(-0.132213 0.173165 0)
(-0.15489 0.150368 0)
(-0.175284 0.129065 0)
(-0.193248 0.109094 0)
(-0.208701 0.090277 0)
(-0.221602 0.0724393 0)
(-0.231943 0.0554114 0)
(-0.239729 0.0390341 0)
(-0.244981 0.0231598 0)
(-0.247722 0.00765144 0)
(-0.247981 -0.00761788 0)
(-0.245788 -0.0227667 0)
(-0.241174 -0.0379068 0)
(-0.234174 -0.0531448 0)
(-0.224827 -0.068584 0)
(-0.21318 -0.084326 0)
(-0.199291 -0.100471 0)
(-0.183234 -0.11712 0)
(-0.16511 -0.134372 0)
(-0.145051 -0.152322 0)
(-0.123238 -0.171059 0)
(-0.0999117 -0.190651 0)
(-0.0753985 -0.211134 0)
(-0.0501319 -0.232481 0)
(-0.0246838 -0.254564 0)
(0.000202294 -0.277089 0)
(0.0235796 -0.2995 0)
(0.0442781 -0.320854 0)
(0.0609124 -0.339636 0)
(0.0719516 -0.353542 0)
(0.0759008 -0.359234 0)
(0.0716548 -0.352143 0)
(0.0590175 -0.326461 0)
(0.0394367 -0.275514 0)
(0.0177154 -0.192888 0)
(0.00360559 -0.0750542 0)
(0.00299115 0.07858 0)
(0.0154629 0.204866 0)
(0.0356807 0.297165 0)
(0.0550866 0.357297 0)
(0.0688913 0.390075 0)
(0.0751477 0.401356 0)
(0.0735502 0.396869 0)
(0.064863 0.381573 0)
(0.050421 0.359408 0)
(0.0317362 0.333311 0)
(0.0102585 0.305354 0)
(-0.0127423 0.276922 0)
(-0.0362186 0.24889 0)
(-0.0593427 0.22177 0)
(-0.0814829 0.195818 0)
(-0.102171 0.171129 0)
(-0.121068 0.147688 0)
(-0.137939 0.125418 0)
(-0.152623 0.104204 0)
(-0.165016 0.0839138 0)
(-0.175056 0.0644082 0)
(-0.18271 0.0455489 0)
(-0.187968 0.0272018 0)
(-0.190834 0.0092393 0)
(-0.191324 -0.00845858 0)
(-0.189464 -0.0260047 0)
(-0.185289 -0.0435048 0)
(-0.178844 -0.0610585 0)
(-0.170185 -0.0787593 0)
(-0.159382 -0.0966955 0)
(-0.146525 -0.114949 0)
(-0.131726 -0.133596 0)
(-0.115133 -0.152701 0)
(-0.0969298 -0.172316 0)
(-0.0773574 -0.19247 0)
(-0.0567215 -0.213157 0)
(-0.0354124 -0.234313 0)
(-0.0139222 -0.255795 0)
(0.00713497 -0.277328 0)
(0.0270064 -0.298451 0)
(0.0447922 -0.318433 0)
(0.059455 -0.336167 0)
(0.0698643 -0.350037 0)
(0.0748976 -0.357781 0)
(0.0736324 -0.356364 0)
(0.0656558 -0.34194 0)
(0.0514499 -0.309989 0)
(0.0328424 -0.255765 0)
(0.0140706 -0.17521 0)
(0.00268756 -0.0667296 0)
(0.00236605 0.0711988 0)
(0.012841 0.188554 0)
(0.0307769 0.278072 0)
(0.0494135 0.340389 0)
(0.0645958 0.378514 0)
(0.0742066 0.396585 0)
(0.0774186 0.399015 0)
(0.0743791 0.389917 0)
(0.0658642 0.372793 0)
(0.0529584 0.350438 0)
(0.0368282 0.324964 0)
(0.0185849 0.2979 0)
(-0.000788344 0.2703 0)
(-0.0204635 0.242858 0)
(-0.0397691 0.215999 0)
(-0.0581765 0.189957 0)
(-0.0752795 0.164837 0)
(-0.0907737 0.14065 0)
(-0.104436 0.117356 0)
(-0.116108 0.0948742 0)
(-0.125681 0.0731078 0)
(-0.133086 0.0519485 0)
(-0.138281 0.0312855 0)
(-0.141252 0.0110091 0)
(-0.142001 -0.00898598 0)
(-0.140549 -0.0287996 0)
(-0.136931 -0.0485248 0)
(-0.131198 -0.0682471 0)
(-0.12342 -0.0880442 0)
(-0.113686 -0.107984 0)
(-0.102109 -0.128125 0)
(-0.0888331 -0.148511 0)
(-0.0740374 -0.169167 0)
(-0.0579465 -0.190097 0)
(-0.0408395 -0.211268 0)
(-0.0230608 -0.232599 0)
(-0.00503249 -0.253939 0)
(0.0127342 -0.275038 0)
(0.0296301 -0.295507 0)
(0.0449447 -0.314767 0)
(0.0578747 -0.331977 0)
(0.0675536 -0.345963 0)
(0.0731129 -0.355125 0)
(0.0737912 -0.357362 0)
(0.0691072 -0.35003 0)
(0.0591057 -0.329988 0)
(0.0446196 -0.293792 0)
(0.0275203 -0.238109 0)
(0.0113875 -0.160405 0)
(0.00207552 -0.0601174 0)
(0.00192739 0.0650519 0)
(0.0108495 0.1744 0)
(0.0267531 0.260579 0)
(0.0442525 0.323594 0)
(0.0598274 0.365286 0)
(0.071418 0.38855 0)
(0.0779393 0.396731 0)
(0.0791334 0.393161 0)
(0.0753497 0.380858 0)
(0.0673018 0.362372 0)
(0.0558747 0.339747 0)
(0.0419896 0.314553 0)
(0.0265195 0.28795 0)
(0.0102435 0.260759 0)
(-0.00617298 0.233537 0)
(-0.0221793 0.206644 0)
(-0.037332 0.180289 0)
(-0.0512822 0.154577 0)
(-0.0637614 0.129541 0)
(-0.0745682 0.105161 0)
(-0.0835556 0.0813875 0)
(-0.0906216 0.0581506 0)
(-0.0957003 0.03537 0)
(-0.0987559 0.0129611 0)
(-0.0997783 -0.00915995 0)
(-0.0987799 -0.0310736 0)
(-0.0957945 -0.0528541 0)
(-0.0908768 -0.0745676 0)
(-0.0841042 -0.0962701 0)
(-0.0755786 -0.118005 0)
(-0.0654301 -0.139801 0)
(-0.0538218 -0.161667 0)
(-0.0409554 -0.183588 0)
(-0.0270778 -0.205515 0)
(-0.0124888 -0.227359 0)
(0.00245185 -0.248968 0)
(0.0173167 -0.270115 0)
(0.0316063 -0.290467 0)
(0.044748 -0.309552 0)
(0.0561033 -0.326714 0)
(0.0649879 -0.341065 0)
(0.0707103 -0.351433 0)
(0.0726381 -0.356307 0)
(0.0702999 -0.353807 0)
(0.0635285 -0.341695 0)
(0.0526436 -0.317456 0)
(0.0386188 -0.278503 0)
(0.023202 -0.222515 0)
(0.00935444 -0.147938 0)
(0.00164643 -0.0547565 0)
(0.00160439 0.0598433 0)
(0.009289 0.162037 0)
(0.0234089 0.244665 0)
(0.0396242 0.307405 0)
(0.0549836 0.351341 0)
(0.0675918 0.378476 0)
(0.0762738 0.391319 0)
(0.0805278 0.392529 0)
(0.0803974 0.384646 0)
(0.0762975 0.369931 0)
(0.0688599 0.350292 0)
(0.0588137 0.327268 0)
(0.0469004 0.302056 0)
(0.0338193 0.275558 0)
(0.0201978 0.248428 0)
(0.00657753 0.221121 0)
(-0.00658717 0.193943 0)
(-0.0189248 0.167083 0)
(-0.0301386 0.140644 0)
(-0.0399969 0.11467 0)
(-0.0483242 0.089163 0)
(-0.0549922 0.0640949 0)
(-0.0599131 0.0394214 0)
(-0.0630336 0.0150887 0)
(-0.0643304 -0.00896052 0)
(-0.0638073 -0.0327821 0)
(-0.0614939 -0.0564266 0)
(-0.0574447 -0.0799362 0)
(-0.0517405 -0.103341 0)
(-0.0444895 -0.126658 0)
(-0.0358306 -0.149882 0)
(-0.0259371 -0.172985 0)
(-0.015021 -0.195912 0)
(-0.00333769 -0.218566 0)
(0.00880881 -0.240801 0)
(0.0210617 -0.262409 0)
(0.0330087 -0.2831 0)
(0.0441824 -0.302478 0)
(0.0540656 -0.320016 0)
(0.0621055 -0.335022 0)
(0.0677389 -0.346602 0)
(0.0704346 -0.353634 0)
(0.0697563 -0.354737 0)
(0.0654495 -0.348271 0)
(0.057555 -0.332378 0)
(0.0465376 -0.305071 0)
(0.0333856 -0.264425 0)
(0.0196543 -0.208837 0)
(0.00776895 -0.137385 0)
(0.00133158 -0.0503442 0)
(0.00135632 0.0553737 0)
(0.0080295 0.151177 0)
(0.020582 0.230249 0)
(0.0354761 0.292094 0)
(0.0502459 0.337307 0)
(0.0632013 0.367256 0)
(0.0731769 0.383805 0)
(0.0795417 0.389052 0)
(0.082133 0.385103 0)
(0.0811383 0.373923 0)
(0.0769768 0.357243 0)
(0.0702001 0.336523 0)
(0.0614144 0.312953 0)
(0.0512248 0.287468 0)
(0.0401993 0.260785 0)
(0.0288489 0.233433 0)
(0.0176176 0.205795 0)
(0.00688071 0.178132 0)
(-0.00305206 0.150615 0)
(-0.0119316 0.123348 0)
(-0.019563 0.0963845 0)
(-0.025799 0.0697412 0)
(-0.0305343 0.0434128 0)
(-0.0337007 0.0173796 0)
(-0.0352627 -0.00838512 0)
(-0.0352152 -0.0339091 0)
(-0.0335815 -0.0592158 0)
(-0.0304129 -0.0843203 0)
(-0.0257886 -0.109225 0)
(-0.0198176 -0.133915 0)
(-0.0126404 -0.158354 0)
(-0.0044315 -0.182478 0)
(0.00459716 -0.206189 0)
(0.0141933 -0.229348 0)
(0.0240617 -0.251761 0)
(0.0338625 -0.273173 0)
(0.0432123 -0.293242 0)
(0.0516879 -0.311533 0)
(0.0588363 -0.327485 0)
(0.0641919 -0.340399 0)
(0.0673041 -0.349408 0)
(0.0677779 -0.353465 0)
(0.0653297 -0.351336 0)
(0.0598584 -0.341616 0)
(0.0515306 -0.32278 0)
(0.0408696 -0.293276 0)
(0.0288085 -0.251679 0)
(0.0166922 -0.196898 0)
(0.00649806 -0.128423 0)
(0.00109114 -0.0466751 0)
(0.00115874 0.051505 0)
(0.00698448 0.141603 0)
(0.0181474 0.217229 0)
(0.031734 0.277805 0)
(0.0456844 0.323604 0)
(0.058519 0.355538 0)
(0.0691375 0.374984 0)
(0.0768569 0.383581 0)
(0.0813856 0.383059 0)
(0.082746 0.375097 0)
(0.0811878 0.361239 0)
(0.0771086 0.342838 0)
(0.0709866 0.321039 0)
(0.0633289 0.296779 0)
(0.0546338 0.270808 0)
(0.0453669 0.243707 0)
(0.0359464 0.215915 0)
(0.0267371 0.187755 0)
(0.0180479 0.159458 0)
(0.0101346 0.131183 0)
(0.00320239 0.103032 0)
(-0.00258936 0.0750675 0)
(-0.00712281 0.0473242 0)
(-0.0103177 0.019818 0)
(-0.0121281 -0.00744515 0)
(-0.0125397 -0.0344625 0)
(-0.0115682 -0.0612284 0)
(-0.00925874 -0.0877288 0)
(-0.00568559 -0.113937 0)
(-0.000953014 -0.139806 0)
(0.0048034 -0.165268 0)
(0.0114151 -0.190224 0)
(0.0186786 -0.214539 0)
(0.0263543 -0.238033 0)
(0.0341652 -0.260474 0)
(0.041798 -0.281565 0)
(0.0489064 -0.300931 0)
(0.0551173 -0.31811 0)
(0.0600433 -0.332529 0)
(0.0633005 -0.343499 0)
(0.0645362 -0.350198 0)
(0.0634651 -0.351669 0)
(0.0599166 -0.346826 0)
(0.0538908 -0.334477 0)
(0.0456209 -0.313383 0)
(0.035633 -0.282337 0)
(0.0247704 -0.240296 0)
(0.014174 -0.186531 0)
(0.00545239 -0.120802 0)
(0.000900978 -0.0436059 0)
(0.000996328 0.0481389 0)
(0.00609509 0.13315 0)
(0.0160108 0.205513 0)
(0.0283245 0.264614 0)
(0.0413139 0.310511 0)
(0.0536989 0.343795 0)
(0.0644721 0.365469 0)
(0.0729488 0.376809 0)
(0.0787656 0.37922 0)
(0.0818311 0.374128 0)
(0.0822654 0.362887 0)
(0.0803384 0.346731 0)
(0.0764147 0.326738 0)
(0.0709069 0.303826 0)
(0.0642401 0.278751 0)
(0.0568267 0.252124 0)
(0.0490491 0.224427 0)
(0.0412501 0.196032 0)
(0.0337282 0.167219 0)
(0.0267356 0.138196 0)
(0.0204802 0.10911 0)
(0.0151272 0.0800674 0)
(0.0108022 0.0511421 0)
(0.00759399 0.0223857 0)
(0.0055576 -0.00616259 0)
(0.00471599 -0.0344685 0)
(0.00506181 -0.0624965 0)
(0.00655825 -0.0902029 0)
(0.00913929 -0.117531 0)
(0.0127095 -0.144404 0)
(0.0171432 -0.170723 0)
(0.0222839 -0.196354 0)
(0.0279433 -0.22113 0)
(0.0339008 -0.244837 0)
(0.0399048 -0.267209 0)
(0.0456742 -0.287918 0)
(0.0509037 -0.306567 0)
(0.0552716 -0.322676 0)
(0.0584527 -0.335675 0)
(0.060136 -0.3449 0)
(0.0600496 -0.34958 0)
(0.0579928 -0.348852 0)
(0.053874 -0.341766 0)
(0.0477544 -0.327322 0)
(0.0398924 -0.304515 0)
(0.0307829 -0.272414 0)
(0.0211648 -0.230261 0)
(0.0119922 -0.177587 0)
(0.00457031 -0.114335 0)
(0.000745764 -0.0410341 0)
(0.000859019 0.0452039 0)
(0.0053203 0.12569 0)
(0.0141011 0.195016 0)
(0.0251825 0.252553 0)
(0.0371233 0.298219 0)
(0.0488255 0.332372 0)
(0.0593862 0.355734 0)
(0.0681507 0.369291 0)
(0.0747237 0.374181 0)
(0.0789412 0.371602 0)
(0.0808282 0.362737 0)
(0.080553 0.348693 0)
(0.0783828 0.330474 0)
(0.0746443 0.308958 0)
(0.0696911 0.284892 0)
(0.0638794 0.258901 0)
(0.05755 0.231493 0)
(0.0510165 0.203078 0)
(0.0445586 0.173975 0)
(0.0384182 0.144432 0)
(0.0327987 0.114641 0)
(0.0278656 0.0847465 0)
(0.0237477 0.0548582 0)
(0.0205395 0.0250631 0)
(0.0183029 -0.00456679 0)
(0.0170689 -0.0339665 0)
(0.016839 -0.0630706 0)
(0.0175859 -0.0918065 0)
(0.0192543 -0.120088 0)
(0.0217609 -0.147811 0)
(0.0249939 -0.174844 0)
(0.0288132 -0.201026 0)
(0.0330503 -0.226158 0)
(0.0375088 -0.249997 0)
(0.041966 -0.27225 0)
(0.0461762 -0.292567 0)
(0.0498764 -0.310534 0)
(0.0527943 -0.325664 0)
(0.0546611 -0.337399 0)
(0.0552277 -0.345101 0)
(0.0542871 -0.34806 0)
(0.0517005 -0.345498 0)
(0.0474282 -0.33659 0)
(0.0415624 -0.320495 0)
(0.0343587 -0.296404 0)
(0.0262611 -0.2636 0)
(0.0179009 -0.221541 0)
(0.0100654 -0.169945 0)
(0.00380834 -0.108879 0)
(0.000615369 -0.0388856 0)
(0.000739999 0.0426475 0)
(0.00463091 0.119129 0)
(0.0123649 0.185667 0)
(0.0222531 0.241637 0)
(0.0330909 0.286859 0)
(0.0439433 0.321525 0)
(0.0540144 0.346144 0)
(0.0626978 0.361473 0)
(0.0695953 0.368432 0)
(0.0745008 0.368026 0)
(0.0773731 0.361279 0)
(0.0783025 0.349179 0)
(0.0774758 0.33265 0)
(0.0751442 0.31252 0)
(0.0715949 0.289518 0)
(0.0671286 0.264267 0)
(0.0620418 0.237292 0)
(0.0566146 0.209025 0)
(0.0511026 0.179819 0)
(0.0457314 0.149957 0)
(0.0406948 0.119663 0)
(0.0361536 0.0891192 0)
(0.0322362 0.0584686 0)
(0.0290396 0.0278307 0)
(0.0266307 -0.00269185 0)
(0.0250473 -0.0330046 0)
(0.0242998 -0.0630136 0)
(0.0243713 -0.0926186 0)
(0.0252189 -0.121706 0)
(0.0267733 -0.150145 0)
(0.0289397 -0.177776 0)
(0.0315976 -0.204412 0)
(0.0346014 -0.229828 0)
(0.0377816 -0.253755 0)
(0.0409468 -0.275879 0)
(0.0438877 -0.295832 0)
(0.0463824 -0.313189 0)
(0.0482044 -0.327464 0)
(0.0491346 -0.338113 0)
(0.0489752 -0.34453 0)
(0.0475691 -0.346056 0)
(0.0448209 -0.341995 0)
(0.0407214 -0.331629 0)
(0.0353719 -0.314251 0)
(0.0290067 -0.289207 0)
(0.0220087 -0.255948 0)
(0.0149037 -0.214095 0)
(0.00833133 -0.163504 0)
(0.00313509 -0.104325 0)
(0.000502847 -0.037106 0)
(0.000634494 0.0404303 0)
(0.00400569 0.113391 0)
(0.0107615 0.177409 0)
(0.0194915 0.231868 0)
(0.0291923 0.276522 0)
(0.0390739 0.311442 0)
(0.0484452 0.336979 0)
(0.0567589 0.35371 0)
(0.0636324 0.362379 0)
(0.0688414 0.363826 0)
(0.0723013 0.358937 0)
(0.0740446 0.348593 0)
(0.074194 0.333635 0)
(0.0729363 0.314841 0)
(0.0704991 0.292909 0)
(0.0671303 0.268455 0)
(0.0630822 0.242009 0)
(0.0585994 0.214018 0)
(0.0539096 0.184859 0)
(0.0492184 0.154841 0)
(0.0447057 0.12422 0)
(0.0405238 0.0932055 0)
(0.0367973 0.0619724 0)
(0.0336228 0.0306688 0)
(0.0310702 -0.000574466 0)
(0.0291833 -0.0316358 0)
(0.0279805 -0.0623949 0)
(0.0274558 -0.0927261 0)
(0.0275794 -0.122491 0)
(0.0282979 -0.151533 0)
(0.0295348 -0.17967 0)
(0.0311914 -0.206689 0)
(0.0331467 -0.232344 0)
(0.0352599 -0.256345 0)
(0.0373718 -0.278359 0)
(0.0393087 -0.298006 0)
(0.0408878 -0.314853 0)
(0.0419244 -0.328419 0)
(0.0422418 -0.338173 0)
(0.0416839 -0.343539 0)
(0.0401307 -0.343908 0)
(0.0375152 -0.338652 0)
(0.0338425 -0.327141 0)
(0.0292077 -0.308779 0)
(0.0238117 -0.283035 0)
(0.0179714 -0.24949 0)
(0.0121122 -0.207888 0)
(0.00674269 -0.158185 0)
(0.00252752 -0.100592 0)
(0.000403296 -0.0356552 0)
(0.000539067 0.0385228 0)
(0.00342893 0.10842 0)
(0.00925991 0.170196 0)
(0.0168614 0.223242 0)
(0.0254037 0.267271 0)
(0.0342263 0.302266 0)
(0.0427383 0.328458 0)
(0.0504565 0.346286 0)
(0.0570274 0.35635 0)
(0.0622249 0.359359 0)
(0.0659395 0.356077 0)
(0.0681627 0.347288 0)
(0.0689672 0.33376 0)
(0.0684867 0.316217 0)
(0.0668962 0.295326 0)
(0.0643953 0.271685 0)
(0.0611936 0.245824 0)
(0.0574993 0.218199 0)
(0.053511 0.189201 0)
(0.0494112 0.159161 0)
(0.0453629 0.128358 0)
(0.041507 0.0970279 0)
(0.0379609 0.0653698 0)
(0.0348189 0.0335578 0)
(0.0321519 0.00174759 0)
(0.0300079 -0.029915 0)
(0.0284131 -0.0612865 0)
(0.027372 -0.0922181 0)
(0.0268682 -0.122549 0)
(0.0268648 -0.152101 0)
(0.0273049 -0.180671 0)
(0.0281123 -0.208026 0)
(0.029192 -0.233898 0)
(0.0304321 -0.257982 0)
(0.0317053 -0.27993 0)
(0.0328728 -0.299351 0)
(0.033788 -0.315807 0)
(0.0343035 -0.328821 0)
(0.034279 -0.337875 0)
(0.0335915 -0.342421 0)
(0.0321477 -0.341889 0)
(0.0298973 -0.335708 0)
(0.0268477 -0.323322 0)
(0.0230769 -0.304219 0)
(0.0187453 -0.277966 0)
(0.0141019 -0.244243 0)
(0.00947709 -0.202887 0)
(0.00526278 -0.153927 0)
(0.0019684 -0.0976175 0)
(0.000313164 -0.0345034 0)
(0.000451184 0.0369026 0)
(0.00288878 0.104174 0)
(0.00783602 0.16399 0)
(0.0143335 0.215755 0)
(0.0217035 0.259153 0)
(0.0294025 0.294103 0)
(0.036934 0.320748 0)
(0.0438817 0.339421 0)
(0.0499292 0.350611 0)
(0.0548608 0.354915 0)
(0.0585563 0.353001 0)
(0.06098 0.345567 0)
(0.0621668 0.333312 0)
(0.0622069 0.316913 0)
(0.0612303 0.297002 0)
(0.0593929 0.274159 0)
(0.056864 0.248906 0)
(0.0538162 0.221701 0)
(0.0504181 0.192947 0)
(0.0468276 0.162989 0)
(0.0431885 0.132124 0)
(0.0396277 0.100608 0)
(0.0362535 0.0686606 0)
(0.0331552 0.0364778 0)
(0.0304031 0.0042364 0)
(0.0280483 -0.0278973 0)
(0.0261233 -0.0597594 0)
(0.0246427 -0.0911817 0)
(0.0236034 -0.121985 0)
(0.0229852 -0.15197 0)
(0.022751 -0.180918 0)
(0.0228475 -0.208578 0)
(0.0232061 -0.234665 0)
(0.0237435 -0.25886 0)
(0.024364 -0.280802 0)
(0.0249617 -0.300091 0)
(0.0254239 -0.316286 0)
(0.0256367 -0.328913 0)
(0.0254904 -0.337463 0)
(0.0248883 -0.341409 0)
(0.0237558 -0.340215 0)
(0.0220506 -0.333352 0)
(0.0197733 -0.32032 0)
(0.016978 -0.300675 0)
(0.0137799 -0.274056 0)
(0.0103598 -0.240217 0)
(0.00695885 -0.199065 0)
(0.00386306 -0.150683 0)
(0.00144464 -0.0953564 0)
(0.000229822 -0.0336292 0)
(0.000368923 0.0355531 0)
(0.00237607 0.100619 0)
(0.00647085 0.158763 0)
(0.0118836 0.209401 0)
(0.0180728 0.252199 0)
(0.0246008 0.287032 0)
(0.0310606 0.313978 0)
(0.0371034 0.33329 0)
(0.0424552 0.345371 0)
(0.0469198 0.350732 0)
(0.0503764 0.349958 0)
(0.0527729 0.343679 0)
(0.0541167 0.332534 0)
(0.054463 0.317154 0)
(0.0539036 0.29814 0)
(0.0525553 0.276052 0)
(0.0505499 0.251401 0)
(0.0480259 0.224645 0)
(0.0451216 0.19619 0)
(0.0419695 0.166391 0)
(0.0386926 0.135558 0)
(0.035402 0.103963 0)
(0.0321949 0.0718423 0)
(0.0291539 0.0394081 0)
(0.0263465 0.0068544 0)
(0.0238256 -0.0256355 0)
(0.0216291 -0.0578813 0)
(0.0197807 -0.0896987 0)
(0.0182902 -0.120892 0)
(0.0171535 -0.15125 0)
(0.0163532 -0.180534 0)
(0.0158592 -0.208482 0)
(0.0156285 -0.234795 0)
(0.0156066 -0.259142 0)
(0.0157281 -0.28115 0)
(0.0159186 -0.300412 0)
(0.0160972 -0.316484 0)
(0.0161797 -0.328889 0)
(0.0160833 -0.337129 0)
(0.0157323 -0.340688 0)
(0.0150646 -0.339052 0)
(0.0140393 -0.331726 0)
(0.0126449 -0.318248 0)
(0.0109061 -0.298224 0)
(0.00889052 -0.271344 0)
(0.0067116 -0.237419 0)
(0.00452552 -0.196402 0)
(0.00252109 -0.148418 0)
(0.000946115 -0.093775 0)
(0.000151273 -0.0330168 0)
(0.000290785 0.0344616 0)
(0.00188355 0.0977297 0)
(0.00514906 0.154492 0)
(0.00949188 0.204175 0)
(0.0144946 0.246433 0)
(0.0198172 0.281112 0)
(0.025138 0.308245 0)
(0.0301751 0.328027 0)
(0.0347004 0.340795 0)
(0.0385431 0.346994 0)
(0.0415897 0.347148 0)
(0.0437802 0.341827 0)
(0.0451023 0.331623 0)
(0.0455835 0.317126 0)
(0.045283 0.29891 0)
(0.0442827 0.277513 0)
(0.0426799 0.253435 0)
(0.0405804 0.22713 0)
(0.0380926 0.199004 0)
(0.0353231 0.169418 0)
(0.0323732 0.138692 0)
(0.0293366 0.107105 0)
(0.0262977 0.0749087 0)
(0.0233305 0.0423261 0)
(0.0204987 0.00956447 0)
(0.0178551 -0.0231801 0)
(0.0154417 -0.0557149 0)
(0.0132904 -0.0878433 0)
(0.0114228 -0.119358 0)
(0.00985063 -0.150034 0)
(0.00857574 -0.179625 0)
(0.00759036 -0.207854 0)
(0.00687713 -0.234414 0)
(0.00640935 -0.258961 0)
(0.00615129 -0.281115 0)
(0.00605893 -0.300461 0)
(0.00608114 -0.316549 0)
(0.00616146 -0.3289 0)
(0.00624069 -0.337017 0)
(0.00626032 -0.340392 0)
(0.00616685 -0.338523 0)
(0.0059168 -0.330932 0)
(0.00548215 -0.317186 0)
(0.00485571 -0.296919 0)
(0.00405579 -0.269859 0)
(0.00312937 -0.23585 0)
(0.00215118 -0.194882 0)
(0.00121887 -0.147107 0)
(0.000464824 -0.0928497 0)
(7.59583e-05 -0.0326553 0)
(0.000215552 0.0336191 0)
(0.00140524 0.0954893 0)
(0.00385784 0.151163 0)
(0.00714128 0.200073 0)
(0.0109537 0.241872 0)
(0.0150466 0.276387 0)
(0.0191803 0.30362 0)
(0.0231391 0.323728 0)
(0.0267427 0.337003 0)
(0.0298502 0.343843 0)
(0.0323606 0.344721 0)
(0.0342122 0.340166 0)
(0.0353792 0.330731 0)
(0.0358669 0.316974 0)
(0.0357064 0.299441 0)
(0.0349486 0.278656 0)
(0.0336587 0.255104 0)
(0.031911 0.229233 0)
(0.0297848 0.201447 0)
(0.0273604 0.17211 0)
(0.0247166 0.141545 0)
(0.0219287 0.110038 0)
(0.0190667 0.0778482 0)
(0.0161947 0.0452069 0)
(0.0133708 0.0123297 0)
(0.0106462 -0.0205787 0)
(0.00806598 -0.053317 0)
(0.00566884 -0.0856803 0)
(0.00348731 -0.117453 0)
(0.00154788 -0.148403 0)
(-0.000129067 -0.178275 0)
(-0.00152941 -0.206784 0)
(-0.00264558 -0.233615 0)
(-0.00347696 -0.258417 0)
(-0.0040303 -0.280801 0)
(-0.00432006 -0.300343 0)
(-0.00436864 -0.316588 0)
(-0.0042062 -0.32905 0)
(-0.00387007 -0.337228 0)
(-0.00340349 -0.340614 0)
(-0.00285373 -0.338709 0)
(-0.00226936 -0.331041 0)
(-0.00169694 -0.317187 0)
(-0.00117736 -0.296796 0)
(-0.000742098 -0.269616 0)
(-0.00041004 -0.235512 0)
(-0.000185547 -0.194495 0)
(-5.83107e-05 -0.146733 0)
(-5.72786e-06 -0.0925648 0)
(2.63055e-06 -0.0325376 0)
(0.000142192 0.0330196 0)
(0.000935972 0.0938854 0)
(0.00258593 0.148763 0)
(0.00481643 0.197093 0)
(0.00743562 0.238527 0)
(0.0102827 0.272885 0)
(0.0131972 0.300152 0)
(0.0160294 0.320464 0)
(0.0186481 0.334084 0)
(0.0209444 0.341377 0)
(0.0228339 0.342786 0)
(0.0242574 0.338808 0)
(0.0251799 0.329968 0)
(0.0255884 0.316799 0)
(0.0254895 0.299828 0)
(0.0249056 0.279561 0)
(0.0238718 0.256473 0)
(0.0224322 0.231004 0)
(0.0206373 0.203555 0)
(0.0185411 0.174486 0)