/*--------------------------------*- C++ -*----------------------------------*\
  =========                 |
  \\      /  F ield         | OpenFOAM: The Open Source CFD Toolbox
   \\    /   O peration     | Website:  https://openfoam.org
    \\  /    A nd           | Version:  7
     \\/     M anipulation  |
\*---------------------------------------------------------------------------*/
FoamFile
{
    version     2.0;
    format      ascii;
    class       volScalarField;
    location    "0.0264";
    object      p;
}
// * * * * * * * * * * * * * * * * * * * * * * * * * * * * * * * * * * * * * //

dimensions      [0 2 -2 0 0 0 0];

internalField   nonuniform List<scalar> 
2500
(
-1.23446e-05
6.38488
9.04897
10.1439
10.7359
11.0851
11.2993
11.4401
11.5392
11.6125
11.669
11.7142
11.7515
11.7834
11.8116
11.8371
11.8608
11.8834
11.9053
11.9267
11.9481
11.9694
11.991
12.0128
12.0351
12.0578
12.0812
12.1052
12.1301
12.1561
12.1833
12.2121
12.2428
12.2759
12.3119
12.3517
12.3964
12.4472
12.506
12.5754
12.6593
12.7635
12.8973
13.0773
13.3354
13.7358
14.395
15.585
18.3653
24.8742
4.8682
7.46772
8.88503
9.76812
10.3715
10.7779
11.0531
11.2456
11.3851
11.4892
11.5695
11.6331
11.685
11.7286
11.7663
11.7996
11.8298
11.8577
11.8842
11.9096
11.9343
11.9587
11.983
12.0073
12.0319
12.0569
12.0825
12.109
12.1364
12.1652
12.1955
12.2279
12.2627
12.3007
12.3426
12.3895
12.4427
12.5042
12.5765
12.6631
12.7692
12.9024
13.0745
13.304
13.6212
14.0767
14.7399
15.6958
17.1988
19.9157
7.70434
8.46776
9.21061
9.83376
10.3203
10.6825
10.9496
11.1484
11.2987
11.4145
11.5055
11.5786
11.6388
11.6894
11.733
11.7715
11.8061
11.8379
11.8676
11.8959
11.9232
11.9498
11.9762
12.0024
12.0288
12.0556
12.083
12.1112
12.1405
12.1713
12.2039
12.2388
12.2765
12.3177
12.3634
12.4148
12.4733
12.541
12.6205
12.7156
12.8312
12.9747
13.156
13.3895
13.6956
14.102
14.6386
15.3161
16.1135
16.9416
9.11371
9.29062
9.66971
10.0705
10.4208
10.7064
10.9348
11.1158
11.2593
11.374
11.4668
11.5431
11.6069
11.6611
11.7083
11.7499
11.7875
11.8219
11.8541
11.8845
11.9137
11.9422
11.9701
11.9979
12.0258
12.0539
12.0827
12.1124
12.1431
12.1755
12.2097
12.2463
12.286
12.3294
12.3775
12.4314
12.4927
12.5632
12.6455
12.7426
12.859
13
13.1726
13.3858
13.6494
13.9736
14.3635
14.8051
15.2198
15.4274
9.92569
9.90512
10.0812
10.3249
10.5646
10.7796
10.9646
11.1199
11.249
11.3563
11.4458
11.5211
11.5854
11.641
11.6898
11.7332
11.7727
11.8089
11.8428
11.8748
11.9056
11.9354
11.9647
11.9938
12.0228
12.0522
12.0821
12.1129
12.1449
12.1784
12.2138
12.2517
12.2927
12.3374
12.3869
12.4421
12.5044
12.5755
12.6575
12.7529
12.8648
12.9969
13.1533
13.3383
13.5547
13.8023
14.0741
14.3472
14.5459
14.5376
10.4366
10.3513
10.4204
10.5625
10.7219
10.8784
11.0227
11.1507
11.2621
11.3581
11.4407
11.5122
11.5745
11.6293
11.6781
11.7221
11.7622
11.7994
11.8343
11.8674
11.8992
11.9301
11.9604
11.9904
12.0204
12.0506
12.0814
12.1131
12.1459
12.1802
12.2165
12.2552
12.2968
12.3422
12.392
12.4473
12.5092
12.579
12.6584
12.7491
12.8533
12.9729
13.1098
13.265
13.4371
13.6211
13.8059
13.9692
14.0516
13.9679
10.7769
10.679
10.6947
10.7737
10.8767
10.9876
11.0969
11.1992
11.2922
11.3753
11.4492
11.5148
11.5733
11.6257
11.6731
11.7165
11.7565
11.7938
11.829
11.8626
11.8949
11.9264
11.9573
11.988
12.0186
12.0495
12.0809
12.1131
12.1464
12.1812
12.2179
12.2569
12.2987
12.344
12.3934
12.4478
12.508
12.5752
12.6503
12.7346
12.8292
12.9348
13.0516
13.1786
13.3124
13.4464
13.5693
13.6634
13.6862
13.5843
11.0181
10.9256
10.9153
10.9557
11.0201
11.0967
11.1777
11.2576
11.3334
11.4036
11.4681
11.5268
11.5803
11.6293
11.6744
11.7161
11.7551
11.7919
11.8268
11.8604
11.8928
11.9245
11.9557
11.9867
12.0177
12.0489
12.0806
12.1132
12.1467
12.1817
12.2185
12.2574
12.2989
12.3435
12.3919
12.4446
12.5023
12.5658
12.6357
12.7127
12.7969
12.8885
12.9864
13.0886
13.1911
13.2869
13.3669
13.4178
13.4107
13.3113
11.199
11.1162
11.0935
11.1104
11.1487
11.2004
11.2592
11.3204
11.381
11.4393
11.4943
11.5459
11.594
11.6389
11.6809
11.7204
11.7579
11.7935
11.8277
11.8608
11.893
11.9245
11.9557
11.9867
12.0177
12.049
12.0809
12.1134
12.147
12.1819
12.2184
12.2569
12.2977
12.3413
12.3882
12.4387
12.4934
12.5527
12.6169
12.6861
12.7602
12.8386
12.9196
13.0009
13.0783
13.1459
13.1963
13.2204
13.1982
13.1073
11.3405
11.2671
11.2389
11.2415
11.2624
11.296
11.3378
11.3839
11.4316
11.4792
11.5255
11.5701
11.6126
11.6532
11.6918
11.7287
11.7641
11.7983
11.8313
11.8636
11.8951
11.9263
11.9571
11.9879
12.0188
12.05
12.0817
12.1141
12.1475
12.182
12.218
12.2558
12.2957
12.3379
12.3829
12.4309
12.4822
12.5371
12.5954
12.6572
12.7217
12.7881
12.8546
12.9186
12.9764
13.0232
13.0532
13.0606
13.0311
12.9492
11.4546
11.3893
11.3589
11.3529
11.362
11.3827
11.4117
11.4458
11.4828
11.5211
11.5596
11.5976
11.6348
11.671
11.7061
11.7402
11.7734
11.8057
11.8374
11.8685
11.8992
11.9296
11.96
11.9903
12.0208
12.0517
12.0831
12.1152
12.1481
12.1822
12.2175
12.2544
12.2931
12.3337
12.3766
12.422
12.4698
12.5201
12.5728
12.6274
12.6832
12.7391
12.7932
12.8432
12.8858
12.9172
12.9333
12.9301
12.8975
12.8237
11.5487
11.49
11.4591
11.4478
11.4491
11.4605
11.4798
11.5045
11.5328
11.5633
11.5949
11.6271
11.6593
11.6913
11.7229
11.7541
11.7849
11.8153
11.8453
11.8752
11.9048
11.9344
11.964
11.9938
12.0238
12.0542
12.0851
12.1167
12.1491
12.1824
12.217
12.2528
12.2901
12.3291
12.3698
12.4124
12.4567
12.5027
12.55
12.598
12.6461
12.6928
12.7365
12.7752
12.8061
12.8262
12.8326
12.8227
12.789
12.7222
11.6274
11.574
11.5436
11.5291
11.525
11.5298
11.5418
11.5592
11.5804
11.6044
11.6302
11.6572
11.6849
11.713
11.7413
11.7696
11.798
11.8264
11.8548
11.8832
11.9117
11.9403
11.9691
11.9981
12.0275
12.0573
12.0876
12.1186
12.1503
12.1829
12.2165
12.2512
12.2871
12.3243
12.3628
12.4026
12.4435
12.4853
12.5277
12.5698
12.611
12.6499
12.685
12.7146
12.7365
12.7482
12.7479
12.7339
12.7002
12.6392
11.6941
11.645
11.6152
11.5988
11.5911
11.5911
11.5977
11.6094
11.6251
11.6437
11.6645
11.687
11.7107
11.7353
11.7604
11.7861
11.8122
11.8386
11.8653
11.8923
11.9195
11.947
11.9749
12.0031
12.0317
12.0609
12.0905
12.1208
12.1517
12.1835
12.2161
12.2496
12.284
12.3194
12.3558
12.3929
12.4306
12.4686
12.5064
12.5433
12.5785
12.6108
12.6389
12.6612
12.676
12.6816
12.6765
12.6599
12.6268
12.5708
11.7508
11.7051
11.6762
11.6587
11.6486
11.6452
11.6477
11.655
11.6662
11.6805
11.6972
11.7158
11.736
11.7574
11.7798
11.803
11.8269
11.8513
11.8764
11.9019
11.9279
11.9543
11.9812
12.0085
12.0364
12.0648
12.0937
12.1232
12.1534
12.1842
12.2158
12.2481
12.281
12.3147
12.3489
12.3836
12.4183
12.4528
12.4865
12.5188
12.5488
12.5755
12.5978
12.6144
12.6238
12.6248
12.6164
12.5981
12.566
12.5142
11.7992
11.7564
11.7283
11.7102
11.6984
11.6925
11.6919
11.6959
11.7035
11.7143
11.7276
11.743
11.7601
11.7788
11.7986
11.8196
11.8414
11.8641
11.8876
11.9117
11.9365
11.9618
11.9877
12.0142
12.0412
12.0688
12.097
12.1257
12.1551
12.185
12.2156
12.2466
12.2782
12.3102
12.3425
12.3748
12.4068
12.4381
12.4682
12.4965
12.5221
12.5442
12.5617
12.5737
12.5789
12.5765
12.5657
12.5466
12.5155
12.4673
11.8404
11.7999
11.7727
11.7543
11.7413
11.7337
11.7308
11.7322
11.737
11.7449
11.7554
11.7681
11.7827
11.7989
11.8166
11.8355
11.8556
11.8766
11.8986
11.9214
11.945
11.9693
11.9942
12.0199
12.0461
12.0729
12.1003
12.1283
12.1568
12.1859
12.2154
12.2453
12.2756
12.306
12.3364
12.3666
12.3961
12.4247
12.4516
12.4764
12.4984
12.5166
12.5303
12.5386
12.5406
12.5356
12.5232
12.5036
12.4735
12.4285
11.8754
11.8369
11.8104
11.7918
11.7781
11.7692
11.7646
11.7639
11.7666
11.7723
11.7805
11.7909
11.8034
11.8175
11.8333
11.8504
11.8689
11.8885
11.9091
11.9307
11.9532
11.9765
12.0005
12.0253
12.0508
12.0769
12.1036
12.1308
12.1585
12.1867
12.2153
12.2442
12.2732
12.3022
12.3309
12.3592
12.3865
12.4126
12.4369
12.4587
12.4775
12.4926
12.5032
12.5085
12.5081
12.5012
12.4877
12.4678
12.4388
12.3964
11.9049
11.8679
11.8421
11.8235
11.8093
11.7994
11.7936
11.7914
11.7924
11.7962
11.8025
11.8112
11.8218
11.8343
11.8484
11.864
11.881
11.8993
11.9188
11.9393
11.9608
11.9832
12.0064
12.0305
12.0552
12.0806
12.1066
12.1331
12.1601
12.1876
12.2153
12.2431
12.271
12.2987
12.326
12.3526
12.378
12.402
12.4239
12.4433
12.4596
12.4721
12.4801
12.4832
12.4808
12.4725
12.4583
12.4384
12.4103
12.3702
11.9292
11.8935
11.8684
11.8498
11.8353
11.8248
11.818
11.8146
11.8143
11.8167
11.8215
11.8287
11.8378
11.8489
11.8617
11.876
11.8918
11.909
11.9274
11.947
11.9676
11.9892
12.0117
12.0351
12.0592
12.0839
12.1093
12.1352
12.1616
12.1883
12.2152
12.2422
12.2691
12.2957
12.3217
12.3468
12.3707
12.3928
12.4129
12.4302
12.4444
12.4548
12.4609
12.4622
12.4583
12.449
12.4342
12.4144
12.3872
12.349
11.949
11.9143
11.8897
11.8712
11.8565
11.8455
11.838
11.8337
11.8324
11.8337
11.8374
11.8434
11.8514
11.8613
11.873
11.8863
11.9011
11.9173
11.9349
11.9536
11.9735
11.9945
12.0163
12.0391
12.0626
12.0868
12.1117
12.137
12.1628
12.1889
12.2152
12.2414
12.2675
12.2931
12.318
12.3419
12.3645
12.3852
12.4037
12.4194
12.4319
12.4406
12.4452
12.4451
12.4401
12.43
12.415
12.3953
12.3689
12.3322
11.9645
11.9306
11.9064
11.888
11.8731
11.8618
11.8538
11.8489
11.8468
11.8473
11.8501
11.8552
11.8623
11.8713
11.8821
11.8946
11.9086
11.9241
11.941
11.9591
11.9784
11.9988
12.0201
12.0424
12.0654
12.0892
12.1136
12.1385
12.1638
12.1894
12.2151
12.2408
12.2661
12.291
12.3151
12.338
12.3595
12.3791
12.3963
12.4108
12.422
12.4295
12.4329
12.4318
12.426
12.4154
12.4001
12.3806
12.3547
12.3193
11.9759
11.9426
11.9187
11.9004
11.8855
11.8739
11.8655
11.8602
11.8575
11.8574
11.8597
11.8641
11.8705
11.8789
11.8891
11.9009
11.9144
11.9293
11.9457
11.9633
11.9821
12.0021
12.023
12.0449
12.0676
12.0911
12.1151
12.1397
12.1646
12.1898
12.2151
12.2403
12.2651
12.2894
12.3128
12.3351
12.3557
12.3745
12.3908
12.4044
12.4146
12.4212
12.4237
12.4219
12.4156
12.4046
12.3892
12.3698
12.3444
12.3099
11.9834
11.9505
11.9268
11.9085
11.8936
11.8819
11.8733
11.8676
11.8647
11.8642
11.866
11.87
11.876
11.884
11.8937
11.9052
11.9182
11.9328
11.9488
11.9661
11.9847
12.0043
12.025
12.0466
12.0691
12.0923
12.1161
12.1404
12.1651
12.1901
12.2151
12.2399
12.2644
12.2883
12.3113
12.3331
12.3532
12.3714
12.3872
12.4001
12.4097
12.4157
12.4177
12.4155
12.4088
12.3976
12.3821
12.3628
12.3377
12.3038
11.9871
11.9544
11.9308
11.9126
11.8976
11.8858
11.8772
11.8714
11.8682
11.8676
11.8692
11.873
11.8788
11.8865
11.8961
11.9073
11.9202
11.9346
11.9504
11.9675
11.9859
12.0054
12.026
12.0475
12.0698
12.0929
12.1166
12.1408
12.1654
12.1902
12.215
12.2397
12.2641
12.2878
12.3105
12.3321
12.352
12.3699
12.3853
12.398
12.4073
12.413
12.4148
12.4123
12.4054
12.3941
12.3786
12.3593
12.3344
12.3008
11.9871
11.9544
11.9308
11.9126
11.8976
11.8858
11.8772
11.8714
11.8682
11.8676
11.8692
11.873
11.8788
11.8865
11.8961
11.9073
11.9202
11.9346
11.9504
11.9675
11.9859
12.0054
12.026
12.0475
12.0698
12.0929
12.1166
12.1408
12.1654
12.1902
12.215
12.2397
12.2641
12.2878
12.3105
12.3321
12.352
12.3699
12.3853
12.398
12.4073
12.413
12.4148
12.4123
12.4054
12.3941
12.3786
12.3593
12.3344
12.3008
11.9834
11.9505
11.9268
11.9085
11.8936
11.8818
11.8733
11.8676
11.8647
11.8642
11.866
11.87
11.876
11.884
11.8937
11.9052
11.9182
11.9328
11.9488
11.9661
11.9847
12.0043
12.025
12.0466
12.0691
12.0923
12.1161
12.1404
12.1651
12.1901
12.2151
12.2399
12.2644
12.2883
12.3113
12.3331
12.3532
12.3714
12.3872
12.4001
12.4097
12.4157
12.4177
12.4155
12.4088
12.3976
12.3821
12.3628
12.3377
12.3038
11.9759
11.9426
11.9187
11.9004
11.8855
11.8739
11.8655
11.8602
11.8575
11.8574
11.8596
11.8641
11.8705
11.8789
11.8891
11.9009
11.9144
11.9293
11.9457
11.9633
11.9821
12.0021
12.023
12.0449
12.0676
12.0911
12.1151
12.1397
12.1646
12.1898
12.2151
12.2403
12.2651
12.2894
12.3128
12.3351
12.3557
12.3745
12.3908
12.4044
12.4146
12.4212
12.4237
12.4219
12.4156
12.4046
12.3892
12.3698
12.3444
12.3099
11.9645
11.9306
11.9064
11.888
11.8731
11.8618
11.8538
11.8489
11.8468
11.8473
11.8501
11.8552
11.8623
11.8713
11.8821
11.8946
11.9086
11.9241
11.941
11.9591
11.9784
11.9988
12.0201
12.0424
12.0654
12.0892
12.1136
12.1385
12.1638
12.1894
12.2151
12.2408
12.2661
12.291
12.3151
12.338
12.3595
12.3791
12.3963
12.4108
12.422
12.4295
12.4328
12.4318
12.426
12.4154
12.4001
12.3805
12.3547
12.3193
11.949
11.9143
11.8897
11.8712
11.8565
11.8455
11.838
11.8337
11.8324
11.8337
11.8374
11.8434
11.8514
11.8613
11.8729
11.8863
11.9011
11.9173
11.9349
11.9536
11.9735
11.9945
12.0163
12.0391
12.0626
12.0868
12.1117
12.137
12.1628
12.1889
12.2152
12.2414
12.2675
12.2931
12.318
12.3419
12.3645
12.3852
12.4037
12.4194
12.4319
12.4406
12.4452
12.4451
12.4401
12.43
12.415
12.3953
12.3689
12.3322
11.9292
11.8935
11.8684
11.8498
11.8353
11.8248
11.818
11.8146
11.8143
11.8167
11.8215
11.8287
11.8378
11.8489
11.8617
11.876
11.8918
11.909
11.9274
11.947
11.9676
11.9892
12.0117
12.0351
12.0592
12.0839
12.1093
12.1352
12.1616
12.1883
12.2152
12.2422
12.2691
12.2957
12.3217
12.3468
12.3707
12.3928
12.4129
12.4302
12.4444
12.4548
12.4609
12.4622
12.4583
12.449
12.4342
12.4144
12.3872
12.349
11.9048
11.8679
11.8421
11.8235
11.8093
11.7994
11.7936
11.7914
11.7924
11.7962
11.8025
11.8112
11.8218
11.8343
11.8484
11.864
11.881
11.8993
11.9188
11.9393
11.9608
11.9832
12.0064
12.0305
12.0552
12.0806
12.1066
12.1331
12.1601
12.1875
12.2153
12.2431
12.271
12.2987
12.326
12.3526
12.378
12.402
12.4239
12.4433
12.4596
12.472
12.4801
12.4832
12.4808
12.4725
12.4583
12.4384
12.4103
12.3702
11.8754
11.8368
11.8104
11.7918
11.7781
11.7692
11.7646
11.7639
11.7666
11.7723
11.7805
11.7909
11.8033
11.8175
11.8333
11.8504
11.8689
11.8885
11.9091
11.9307
11.9532
11.9765
12.0005
12.0253
12.0508
12.0769
12.1036
12.1308
12.1585
12.1867
12.2153
12.2442
12.2732
12.3022
12.3309
12.3592
12.3865
12.4126
12.4369
12.4587
12.4775
12.4926
12.5032
12.5085
12.508
12.5011
12.4877
12.4678
12.4388
12.3964
11.8404
11.7999
11.7727
11.7543
11.7413
11.7337
11.7308
11.7322
11.737
11.7449
11.7554
11.7681
11.7827
11.7989
11.8166
11.8355
11.8556
11.8766
11.8986
11.9214
11.945
11.9693
11.9942
12.0199
12.0461
12.0729
12.1003
12.1283
12.1568
12.1859
12.2154
12.2453
12.2756
12.306
12.3364
12.3666
12.3961
12.4247
12.4516
12.4764
12.4984
12.5166
12.5303
12.5385
12.5406
12.5355
12.5232
12.5036
12.4735
12.4285
11.7992
11.7564
11.7283
11.7102
11.6984
11.6925
11.6919
11.6959
11.7035
11.7143
11.7276
11.743
11.7601
11.7788
11.7986
11.8196
11.8414
11.8641
11.8876
11.9117
11.9365
11.9618
11.9877
12.0142
12.0412
12.0688
12.097
12.1257
12.1551
12.185
12.2156
12.2466
12.2782
12.3102
12.3425
12.3747
12.4068
12.4381
12.4682
12.4965
12.5221
12.5442
12.5617
12.5737
12.5789
12.5765
12.5657
12.5466
12.5155
12.4673
11.7508
11.7051
11.6762
11.6587
11.6486
11.6452
11.6477
11.655
11.6662
11.6804
11.6972
11.7158
11.736
11.7574
11.7798
11.803
11.8268
11.8513
11.8764
11.9019
11.9279
11.9543
11.9812
12.0085
12.0364
12.0648
12.0937
12.1232
12.1534
12.1842
12.2158
12.248
12.281
12.3147
12.3489
12.3836
12.4183
12.4528
12.4865
12.5188
12.5488
12.5755
12.5978
12.6144
12.6238
12.6248
12.6164
12.5981
12.566
12.5142
11.6941
11.645
11.6152
11.5988
11.5911
11.5911
11.5977
11.6094
11.6251
11.6437
11.6645
11.687
11.7107
11.7352
11.7604
11.7861
11.8122
11.8386
11.8653
11.8923
11.9195
11.947
11.9749
12.0031
12.0317
12.0608
12.0905
12.1208
12.1517
12.1835
12.2161
12.2496
12.284
12.3194
12.3557
12.3929
12.4306
12.4686
12.5064
12.5433
12.5785
12.6108
12.6388
12.6612
12.676
12.6816
12.6765
12.6599
12.6268
12.5708
11.6274
11.574
11.5436
11.5291
11.525
11.5298
11.5418
11.5592
11.5804
11.6044
11.6302
11.6572
11.6849
11.713
11.7413
11.7696
11.798
11.8264
11.8548
11.8832
11.9117
11.9403
11.9691
11.9981
12.0275
12.0573
12.0876
12.1186
12.1503
12.1829
12.2165
12.2512
12.2871
12.3243
12.3628
12.4026
12.4435
12.4853
12.5277
12.5698
12.611
12.6499
12.685
12.7146
12.7365
12.7482
12.7479
12.7338
12.7002
12.6392
11.5487
11.4899
11.4591
11.4478
11.4491
11.4605
11.4798
11.5045
11.5328
11.5633
11.5949
11.6271
11.6593
11.6913
11.7229
11.7541
11.7849
11.8153
11.8453
11.8752
11.9048
11.9344
11.964
11.9938
12.0238
12.0542
12.0851
12.1167
12.1491
12.1824
12.217
12.2528
12.2901
12.3291
12.3698
12.4124
12.4567
12.5027
12.55
12.598
12.646
12.6928
12.7365
12.7752
12.8061
12.8262
12.8326
12.8227
12.789
12.7222
11.4546
11.3893
11.3589
11.3529
11.362
11.3827
11.4117
11.4458
11.4828
11.5211
11.5596
11.5976
11.6348
11.671
11.7061
11.7402
11.7734
11.8057
11.8374
11.8685
11.8992
11.9296
11.96
11.9903
12.0208
12.0517
12.0831
12.1152
12.1481
12.1822
12.2175
12.2544
12.2931
12.3337
12.3766
12.4219
12.4698
12.5201
12.5728
12.6274
12.6832
12.7391
12.7932
12.8431
12.8858
12.9172
12.9333
12.9301
12.8974
12.8237
11.3404
11.2671
11.2388
11.2415
11.2624
11.296
11.3378
11.3839
11.4316
11.4792
11.5255
11.5701
11.6126
11.6532
11.6918
11.7287
11.7641
11.7983
11.8313
11.8636
11.8951
11.9263
11.9571
11.9879
12.0188
12.05
12.0817
12.1141
12.1475
12.182
12.218
12.2558
12.2957
12.3379
12.3829
12.4309
12.4822
12.5371
12.5954
12.6572
12.7217
12.7881
12.8546
12.9186
12.9764
13.0232
13.0532
13.0606
13.0311
12.9492
11.199
11.1161
11.0934
11.1104
11.1487
11.2004
11.2592
11.3204
11.381
11.4393
11.4943
11.5459
11.594
11.6389
11.6809
11.7204
11.7579
11.7935
11.8277
11.8608
11.893
11.9245
11.9557
11.9867
12.0177
12.049
12.0809
12.1134
12.147
12.1819
12.2184
12.2569
12.2977
12.3413
12.3882
12.4387
12.4934
12.5527
12.6169
12.6861
12.7602
12.8386
12.9196
13.0009
13.0783
13.1459
13.1963
13.2204
13.1982
13.1072
11.0181
10.9256
10.9153
10.9557
11.0201
11.0967
11.1777
11.2576
11.3334
11.4036
11.468
11.5268
11.5803
11.6293
11.6744
11.7161
11.7551
11.7919
11.8268
11.8604
11.8928
11.9245
11.9557
11.9867
12.0177
12.0489
12.0806
12.1131
12.1467
12.1817
12.2185
12.2574
12.2989
12.3435
12.3919
12.4446
12.5023
12.5658
12.6357
12.7126
12.7969
12.8885
12.9864
13.0886
13.1911
13.2869
13.3669
13.4178
13.4106
13.3113
10.7769
10.679
10.6947
10.7737
10.8767
10.9876
11.0969
11.1992
11.2922
11.3753
11.4492
11.5148
11.5733
11.6257
11.6731
11.7165
11.7564
11.7938
11.829
11.8626
11.8949
11.9264
11.9573
11.988
12.0186
12.0495
12.0809
12.1131
12.1464
12.1812
12.2179
12.2569
12.2987
12.344
12.3934
12.4478
12.508
12.5751
12.6503
12.7346
12.8291
12.9348
13.0516
13.1786
13.3124
13.4463
13.5693
13.6634
13.6862
13.5843
10.4366
10.3513
10.4204
10.5625
10.7219
10.8784
11.0227
11.1507
11.2621
11.3581
11.4407
11.5122
11.5745
11.6293
11.6781
11.722
11.7622
11.7994
11.8343
11.8674
11.8992
11.9301
11.9604
11.9904
12.0204
12.0506
12.0814
12.1131
12.1459
12.1802
12.2165
12.2552
12.2968
12.3422
12.392
12.4473
12.5092
12.579
12.6584
12.7491
12.8533
12.9729
13.1098
13.2649
13.4371
13.6211
13.8059
13.9692
14.0516
13.9679
9.92567
9.9051
10.0812
10.3249
10.5646
10.7796
10.9646
11.1199
11.249
11.3563
11.4457
11.5211
11.5854
11.641
11.6898
11.7332
11.7726
11.8089
11.8428
11.8748
11.9056
11.9354
11.9647
11.9938
12.0228
12.0522
12.0821
12.1129
12.1449
12.1784
12.2138
12.2517
12.2927
12.3374
12.3869
12.4421
12.5044
12.5755
12.6575
12.7529
12.8648
12.9969
13.1533
13.3382
13.5547
13.8023
14.0741
14.3472
14.5459
14.5376
9.11369
9.2906
9.66969
10.0705
10.4208
10.7064
10.9348
11.1157
11.2592
11.374
11.4668
11.5431
11.6069
11.6611
11.7083
11.7499
11.7875
11.8219
11.8541
11.8845
11.9137
11.9422
11.9701
11.9979
12.0257
12.0539
12.0827
12.1123
12.1431
12.1754
12.2097
12.2463
12.286
12.3294
12.3775
12.4314
12.4927
12.5632
12.6455
12.7426
12.859
12.9999
13.1726
13.3857
13.6494
13.9736
14.3635
14.8051
15.2198
15.4274
7.70431
8.46774
9.21059
9.83374
10.3202
10.6825
10.9496
11.1484
11.2987
11.4144
11.5054
11.5786
11.6388
11.6894
11.733
11.7715
11.8061
11.8379
11.8676
11.8959
11.9232
11.9498
11.9762
12.0024
12.0288
12.0556
12.083
12.1112
12.1405
12.1713
12.2039
12.2388
12.2765
12.3177
12.3634
12.4148
12.4733
12.541
12.6205
12.7156
12.8312
12.9746
13.1559
13.3895
13.6956
14.102
14.6386
15.3161
16.1135
16.9416
4.86816
7.46769
8.885
9.76809
10.3715
10.7779
11.0531
11.2456
11.385
11.4892
11.5695
11.6331
11.685
11.7286
11.7662
11.7996
11.8297
11.8577
11.8842
11.9096
11.9343
11.9587
11.983
12.0073
12.0319
12.0569
12.0825
12.109
12.1364
12.1652
12.1955
12.2279
12.2627
12.3007
12.3426
12.3895
12.4427
12.5042
12.5765
12.6631
12.7692
12.9024
13.0745
13.304
13.6212
14.0766
14.7399
15.6958
17.1988
19.9157
-5.54084e-05
6.38485
9.04895
10.1439
10.7359
11.0851
11.2992
11.4401
11.5392
11.6125
11.669
11.7142
11.7515
11.7834
11.8116
11.8371
11.8608
11.8834
11.9053
11.9267
11.9481
11.9694
11.991
12.0128
12.0351
12.0578
12.0812
12.1052
12.1301
12.1561
12.1833
12.2121
12.2428
12.2758
12.3119
12.3517
12.3964
12.4471
12.506
12.5754
12.6593
12.7635
12.8973
13.0773
13.3354
13.7358
14.395
15.585
18.3653
24.8742
)
;

boundaryField
{
    movingWallTop
    {
        type            zeroGradient;
    }
    movingWallBottom
    {
        type            zeroGradient;
    }
    fixedWalls
    {
        type            zeroGradient;
    }
    frontAndBack
    {
        type            empty;
    }
}


// ************************************************************************* //
