/*--------------------------------*- C++ -*----------------------------------*\
  =========                 |
  \\      /  F ield         | OpenFOAM: The Open Source CFD Toolbox
   \\    /   O peration     | Website:  https://openfoam.org
    \\  /    A nd           | Version:  7
     \\/     M anipulation  |
\*---------------------------------------------------------------------------*/
FoamFile
{
    version     2.0;
    format      ascii;
    class       surfaceScalarField;
    location    "0.033";
    object      phi;
}
// * * * * * * * * * * * * * * * * * * * * * * * * * * * * * * * * * * * * * //

dimensions      [0 3 -1 0 0 0 0];

internalField   nonuniform List<scalar> 
4900
(
9.30616e-10
-9.27371e-10
1.75103e-09
-8.2036e-10
1.55203e-09
1.98967e-10
4.97249e-11
1.50226e-09
-2.76601e-09
2.81577e-09
-6.81612e-09
4.05013e-09
-1.19434e-08
5.12723e-09
-1.79674e-08
6.024e-09
-2.47036e-08
6.73619e-09
-3.19706e-08
7.26699e-09
-3.95943e-08
7.62374e-09
-4.74104e-08
7.81611e-09
-5.52655e-08
7.85511e-09
-6.30179e-08
7.75237e-09
-7.05377e-08
7.51976e-09
-7.77068e-08
7.16915e-09
-8.44191e-08
6.71224e-09
-9.05796e-08
6.16048e-09
-9.61046e-08
5.52501e-09
-1.00921e-07
4.81668e-09
-1.04967e-07
4.04607e-09
-1.08191e-07
3.22355e-09
-1.1055e-07
2.35938e-09
-1.12014e-07
1.46379e-09
-1.12561e-07
5.47101e-10
-1.12181e-07
-3.80204e-10
-1.10874e-07
-1.30735e-09
-1.0865e-07
-2.2232e-09
-1.05534e-07
-3.1162e-09
-1.0156e-07
-3.97433e-09
-9.67749e-08
-4.78508e-09
-9.12394e-08
-5.5355e-09
-8.50271e-08
-6.21224e-09
-7.82255e-08
-6.80167e-09
-7.09355e-08
-7.29e-09
-6.3272e-08
-7.66345e-09
-5.53635e-08
-7.9085e-09
-4.73514e-08
-8.0121e-09
-3.93894e-08
-7.962e-09
-3.16423e-08
-7.74713e-09
-2.42843e-08
-7.35804e-09
-1.74967e-08
-6.78756e-09
-1.14648e-08
-6.03192e-09
-6.37225e-09
-5.09253e-09
-2.39252e-09
-3.97974e-09
3.29334e-10
-2.72185e-09
1.7157e-09
-1.38636e-09
1.81623e-09
-1.00533e-10
9.35015e-10
8.81224e-10
9.35021e-10
8.34805e-10
-1.76212e-09
5.53072e-10
-5.38625e-10
-2.12504e-09
2.87709e-09
-7.76659e-09
7.14382e-09
-1.65025e-08
1.15516e-08
-2.81689e-08
1.57165e-08
-4.24634e-08
1.94217e-08
-5.89978e-08
2.25584e-08
-7.73428e-08
2.50812e-08
-9.7056e-08
2.69802e-08
-1.17699e-07
2.82669e-08
-1.38849e-07
2.89657e-08
-1.60103e-07
2.91089e-08
-1.81084e-07
2.87337e-08
-2.01444e-07
2.78799e-08
-2.20864e-07
2.65886e-08
-2.39053e-07
2.49016e-08
-2.55753e-07
2.28601e-08
-2.70733e-07
2.0505e-08
-2.83792e-07
1.78765e-08
-2.94761e-07
1.50143e-08
-3.03494e-07
1.19574e-08
-3.0988e-07
8.7446e-09
-3.13831e-07
5.4148e-09
-3.15291e-07
2.00711e-09
-3.14232e-07
-1.43867e-09
-3.10658e-07
-4.88177e-09
-3.04601e-07
-8.28021e-09
-2.96126e-07
-1.15906e-08
-2.85333e-07
-1.4768e-08
-2.72352e-07
-1.77661e-08
-2.5735e-07
-2.05369e-08
-2.40531e-07
-2.30315e-08
-2.22132e-07
-2.52003e-08
-2.02429e-07
-2.69936e-08
-1.8173e-07
-2.83621e-08
-1.6038e-07
-2.92582e-08
-1.38756e-07
-2.9637e-08
-1.1726e-07
-2.94576e-08
-9.63224e-08
-2.86847e-08
-7.63889e-08
-2.72914e-08
-5.79147e-08
-2.52619e-08
-4.13503e-08
-2.25963e-08
-2.71237e-08
-1.93191e-08
-1.56114e-08
-1.54921e-08
-7.09365e-09
-1.12396e-08
-1.6876e-09
-6.79243e-09
7.69117e-10
-2.55728e-09
8.92906e-10
7.57398e-10
1.82793e-09
-1.48075e-10
-1.61408e-09
-2.78011e-09
2.09335e-09
-9.10862e-09
9.20566e-09
-1.96839e-08
1.77191e-08
-3.46211e-08
2.64888e-08
-5.37205e-08
3.48158e-08
-7.65782e-08
4.22794e-08
-1.02665e-07
4.8645e-08
-1.3138e-07
5.3796e-08
-1.62089e-07
5.76901e-08
-1.94155e-07
6.03328e-08
-2.26951e-07
6.1761e-08
-2.59873e-07
6.20317e-08
-2.92355e-07
6.12151e-08
-3.23864e-07
5.93893e-08
-3.53913e-07
5.66373e-08
-3.82056e-07
5.30442e-08
-4.07892e-07
4.8696e-08
-4.31065e-07
4.36785e-08
-4.51266e-07
3.80769e-08
-4.68227e-07
3.19756e-08
-4.81728e-07
2.54582e-08
-4.91591e-07
1.86081e-08
-4.97685e-07
1.15088e-08
-4.99923e-07
4.24466e-09
-4.98263e-07
-3.09877e-09
-4.92711e-07
-1.04338e-08
-4.8332e-07
-1.76705e-08
-4.70195e-07
-2.47161e-08
-4.53488e-07
-3.14747e-08
-4.33407e-07
-3.78479e-08
-4.10209e-07
-4.37344e-08
-3.84209e-07
-4.90313e-08
-3.55775e-07
-5.36347e-08
-3.25327e-07
-5.7441e-08
-2.93341e-07
-6.03487e-08
-2.60338e-07
-6.22608e-08
-2.26888e-07
-6.30868e-08
-1.93599e-07
-6.27466e-08
-1.6111e-07
-6.1174e-08
-1.30079e-07
-5.83226e-08
-1.01168e-07
-5.41724e-08
-7.50241e-08
-4.87407e-08
-5.22454e-08
-4.20978e-08
-3.33459e-08
-3.43915e-08
-1.86973e-08
-2.58882e-08
-8.45129e-09
-1.70384e-08
-2.43976e-09
-8.56881e-09
-4.86396e-11
-1.63375e-09
1.77928e-09
-1.40571e-09
-2.08379e-10
-6.97496e-09
7.6626e-09
-1.75508e-08
1.97814e-08
-3.35116e-08
3.36799e-08
-5.48651e-08
4.78424e-08
-8.13232e-08
6.12739e-08
-1.12385e-07
7.3341e-08
-1.47405e-07
8.36654e-08
-1.85651e-07
9.20413e-08
-2.2634e-07
9.83796e-08
-2.68678e-07
1.02671e-07
-3.11877e-07
1.0496e-07
-3.55174e-07
1.05329e-07
-3.97844e-07
1.03884e-07
-4.39204e-07
1.0075e-07
-4.78626e-07
9.60591e-08
-5.15533e-07
8.99508e-08
-5.49404e-07
8.25673e-08
-5.79777e-07
7.40517e-08
-6.06248e-07
6.45471e-08
-6.28468e-07
5.41958e-08
-6.46149e-07
4.31396e-08
-6.59061e-07
3.15201e-08
-6.67032e-07
1.94795e-08
-6.69948e-07
7.16122e-09
-6.67758e-07
-5.28883e-09
-6.6047e-07
-1.77217e-08
-6.48156e-07
-2.99846e-08
-6.30952e-07
-4.19202e-08
-6.0906e-07
-5.33667e-08
-5.8275e-07
-6.4158e-08
-5.5236e-07
-7.41243e-08
-5.18299e-07
-8.3093e-08
-4.81042e-07
-9.0891e-08
-4.41137e-07
-9.73467e-08
-3.99192e-07
-1.02293e-07
-3.55882e-07
-1.05571e-07
-3.11932e-07
-1.07036e-07
-2.68117e-07
-1.06562e-07
-2.25245e-07
-1.04046e-07
-1.84142e-07
-9.94251e-08
-1.45635e-07
-9.26797e-08
-1.1052e-07
-8.38559e-08
-7.95309e-08
-7.30864e-08
-5.32963e-08
-6.06262e-08
-3.22805e-08
-4.69041e-08
-1.67174e-08
-3.26015e-08
-6.53252e-09
-1.87537e-08
-1.26782e-09
-6.89846e-09
5.11454e-10
-2.71154e-09
2.50321e-09
-1.14201e-08
1.63711e-08
-2.65039e-08
3.48652e-08
-4.80699e-08
5.52459e-08
-7.59434e-08
7.57159e-08
-1.09703e-07
9.50331e-08
-1.48731e-07
1.1237e-07
-1.92271e-07
1.27205e-07
-2.39471e-07
1.39241e-07
-2.89426e-07
1.48335e-07
-3.41211e-07
1.54456e-07
-3.93907e-07
1.57656e-07
-4.46619e-07
1.58041e-07
-4.98492e-07
1.55757e-07
-5.4872e-07
1.50978e-07
-5.96554e-07
1.43893e-07
-6.41309e-07
1.34705e-07
-6.82363e-07
1.23622e-07
-7.19164e-07
1.10852e-07
-7.51225e-07
9.66089e-08
-7.78133e-07
8.11031e-08
-7.99539e-07
6.45461e-08
-8.15168e-07
4.71494e-08
-8.24814e-07
2.91255e-08
-8.28342e-07
1.06893e-08
-8.2569e-07
-7.94106e-09
-8.16869e-07
-2.65429e-08
-8.01966e-07
-4.48881e-08
-7.81144e-07
-6.2742e-08
-7.54646e-07
-7.98639e-08
-7.22797e-07
-9.60071e-08
-6.86002e-07
-1.1092e-07
-6.44747e-07
-1.24348e-07
-5.99602e-07
-1.36036e-07
-5.51216e-07
-1.45732e-07
-5.00315e-07
-1.53194e-07
-4.47695e-07
-1.58192e-07
-3.94214e-07
-1.60517e-07
-3.40785e-07
-1.59991e-07
-2.88354e-07
-1.56477e-07
-2.37889e-07
-1.49891e-07
-1.90349e-07
-1.40219e-07
-1.46662e-07
-1.27543e-07
-1.07681e-07
-1.12067e-07
-7.41492e-08
-9.41582e-08
-4.66436e-08
-7.44097e-08
-2.55268e-08
-5.37183e-08
-1.08959e-08
-3.33846e-08
-2.55041e-09
-1.5244e-08
-2.03896e-09
-3.97621e-09
6.47943e-09
-1.58229e-08
2.82178e-08
-3.54664e-08
5.45087e-08
-6.26946e-08
8.24741e-08
-9.7104e-08
1.10125e-07
-1.38102e-07
1.36031e-07
-1.84932e-07
1.592e-07
-2.36715e-07
1.78988e-07
-2.92482e-07
1.95008e-07
-3.51215e-07
2.07067e-07
-4.11874e-07
2.15116e-07
-4.73427e-07
2.19209e-07
-5.34866e-07
2.1948e-07
-5.95225e-07
2.16117e-07
-6.53596e-07
2.09348e-07
-7.09129e-07
1.99427e-07
-7.61046e-07
1.86623e-07
-8.08642e-07
1.71217e-07
-8.51286e-07
1.53496e-07
-8.88427e-07
1.33749e-07
-9.19589e-07
1.12266e-07
-9.44379e-07
8.93356e-08
-9.6248e-07
6.52504e-08
-9.73657e-07
4.03029e-08
-9.77757e-07
1.47891e-08
-9.74708e-07
-1.09902e-08
-9.64523e-07
-3.67281e-08
-9.473e-07
-6.21106e-08
-9.23227e-07
-8.68151e-08
-8.9258e-07
-1.10511e-07
-8.55726e-07
-1.3286e-07
-8.13128e-07
-1.53518e-07
-7.65339e-07
-1.72137e-07
-7.13005e-07
-1.8837e-07
-6.56863e-07
-2.01875e-07
-5.97734e-07
-2.12323e-07
-5.3652e-07
-2.19405e-07
-4.74192e-07
-2.22845e-07
-4.11778e-07
-2.22405e-07
-3.50347e-07
-2.17909e-07
-2.90985e-07
-2.09252e-07
-2.34777e-07
-1.96427e-07
-1.82769e-07
-1.79552e-07
-1.35937e-07
-1.58899e-07
-9.51464e-08
-1.34948e-07
-6.11145e-08
-1.08442e-07
-3.43698e-08
-8.0463e-08
-1.52279e-08
-5.25265e-08
-3.79055e-09
-2.66813e-08
-5.82951e-09
-5.16358e-09
1.1643e-08
-2.00616e-08
4.31159e-08
-4.42061e-08
7.86532e-08
-7.70599e-08
1.15328e-07
-1.17967e-07
1.51033e-07
-1.66138e-07
1.84201e-07
-2.20656e-07
2.13718e-07
-2.80503e-07
2.38836e-07
-3.4459e-07
2.59096e-07
-4.11785e-07
2.74262e-07
-4.80939e-07
2.8427e-07
-5.50915e-07
2.89185e-07
-6.20607e-07
2.89172e-07
-6.88955e-07
2.84464e-07
-7.54956e-07
2.75349e-07
-8.17678e-07
2.62149e-07
-8.76264e-07
2.45209e-07
-9.29936e-07
2.24889e-07
-9.78e-07
2.0156e-07
-1.01985e-06
1.75595e-07
-1.05495e-06
1.4737e-07
-1.08288e-06
1.17263e-07
-1.10328e-06
8.5651e-08
-1.11589e-06
5.29166e-08
-1.12055e-06
1.94452e-08
-1.11717e-06
-1.43717e-08
-1.10576e-06
-4.81344e-08
-1.08644e-06
-8.1434e-08
-1.0594e-06
-1.13851e-07
-1.02496e-06
-1.44957e-07
-9.83505e-07
-1.74311e-07
-9.35556e-07
-2.01467e-07
-8.81719e-07
-2.25975e-07
-8.22703e-07
-2.47386e-07
-7.59319e-07
-2.65258e-07
-6.92472e-07
-2.7917e-07
-6.23154e-07
-2.88723e-07
-5.52434e-07
-2.93565e-07
-4.81443e-07
-2.93396e-07
-4.1136e-07
-2.87992e-07
-3.43386e-07
-2.77226e-07
-2.78721e-07
-2.61093e-07
-2.18534e-07
-2.39738e-07
-1.6393e-07
-2.13503e-07
-1.15916e-07
-1.82962e-07
-7.53701e-08
-1.48988e-07
-4.30138e-08
-1.12819e-07
-1.94054e-08
-7.6135e-08
-4.95563e-09
-4.11311e-08
-1.07852e-08
-6.27402e-09
1.7917e-08
-2.41098e-08
6.09517e-08
-5.26547e-08
1.07198e-07
-9.10587e-08
1.53732e-07
-1.38406e-07
1.9838e-07
-1.93693e-07
2.39488e-07
-2.55827e-07
2.75851e-07
-3.23637e-07
3.06646e-07
-3.95903e-07
3.31361e-07
-4.71373e-07
3.49732e-07
-5.48793e-07
3.61689e-07
-6.26924e-07
3.67317e-07
-7.04568e-07
3.66816e-07
-7.80577e-07
3.60473e-07
-8.53868e-07
3.48641e-07
-9.23436e-07
3.31716e-07
-9.88353e-07
3.10126e-07
-1.04778e-06
2.84318e-07
-1.10097e-06
2.54751e-07
-1.14727e-06
2.2189e-07
-1.1861e-06
1.86204e-07
-1.217e-06
1.48163e-07
-1.23959e-06
1.08241e-07
-1.25359e-06
6.69142e-08
-1.25881e-06
2.46639e-08
-1.25516e-06
-1.80202e-08
-1.24265e-06
-6.06391e-08
-1.22141e-06
-1.02682e-07
-1.19163e-06
-1.43625e-07
-1.15366e-06
-1.82932e-07
-1.10791e-06
-2.20055e-07
-1.05494e-06
-2.54437e-07
-9.95403e-07
-2.85515e-07
-9.30058e-07
-3.12731e-07
-8.59782e-07
-3.35535e-07
-7.8555e-07
-3.53401e-07
-7.08436e-07
-3.65837e-07
-6.29598e-07
-3.72404e-07
-5.50263e-07
-3.72731e-07
-4.71714e-07
-3.66541e-07
-3.95265e-07
-3.53676e-07
-3.22235e-07
-3.34122e-07
-2.53923e-07
-3.08051e-07
-1.91574e-07
-2.75852e-07
-1.36352e-07
-2.38183e-07
-8.93156e-08
-1.96025e-07
-5.13968e-08
-1.50738e-07
-2.34044e-08
-1.04127e-07
-6.04634e-09
-5.84891e-08
-1.68315e-08
-7.32137e-09
2.52384e-08
-2.799e-08
8.16204e-08
-6.08358e-08
1.40044e-07
-1.04715e-07
1.97611e-07
-1.58453e-07
2.52119e-07
-2.20825e-07
3.0186e-07
-2.90545e-07
3.45572e-07
-3.66282e-07
3.82383e-07
-4.46672e-07
4.1175e-07
-5.30337e-07
4.33397e-07
-6.15912e-07
4.47264e-07
-7.02059e-07
4.53464e-07
-7.87488e-07
4.52245e-07
-8.7097e-07
4.43955e-07
-9.51348e-07
4.29019e-07
-1.02755e-06
4.07917e-07
-1.09859e-06
3.81164e-07
-1.16357e-06
3.49301e-07
-1.2217e-06
3.12883e-07
-1.27228e-06
2.72471e-07
-1.31471e-06
2.28633e-07
-1.34849e-06
1.8194e-07
-1.37321e-06
1.32963e-07
-1.38858e-06
8.22789e-08
-1.39438e-06
3.04713e-08
-1.39054e-06
-2.18678e-08
-1.37704e-06
-7.41341e-08
-1.35401e-06
-1.25709e-07
-1.32168e-06
-1.75959e-07
-1.28038e-06
-2.24235e-07
-1.23056e-06
-2.69871e-07
-1.1728e-06
-3.12194e-07
-1.1078e-06
-3.50521e-07
-1.03635e-06
-3.84174e-07
-9.594e-07
-4.12488e-07
-8.77978e-07
-4.34823e-07
-7.93233e-07
-4.50582e-07
-7.06407e-07
-4.5923e-07
-6.18821e-07
-4.60316e-07
-5.31863e-07
-4.53499e-07
-4.4696e-07
-4.38579e-07
-3.65558e-07
-4.15524e-07
-2.89094e-07
-3.84515e-07
-2.18968e-07
-3.45977e-07
-1.56518e-07
-3.00634e-07
-1.02995e-07
-2.49548e-07
-5.95535e-08
-1.9418e-07
-2.72523e-08
-1.36429e-07
-7.07746e-09
-7.8664e-08
-2.3909e-08
-8.32372e-09
3.35621e-08
-3.17475e-08
1.05044e-07
-6.88214e-08
1.77118e-07
-1.18127e-07
2.46917e-07
-1.78237e-07
3.12229e-07
-2.47699e-07
3.71321e-07
-3.25027e-07
4.229e-07
-4.08716e-07
4.66071e-07
-4.97247e-07
5.00282e-07
-5.89112e-07
5.25262e-07
-6.82827e-07
5.40979e-07
-7.76952e-07
5.47589e-07
-8.70107e-07
5.45399e-07
-9.60982e-07
5.3483e-07
-1.04835e-06
5.16389e-07
-1.13108e-06
4.90646e-07
-1.20813e-06
4.58213e-07
-1.27856e-06
4.1973e-07
-1.34153e-06
3.75855e-07
-1.39631e-06
3.27252e-07
-1.44227e-06
2.74593e-07
-1.47888e-06
2.1855e-07
-1.50572e-06
1.59801e-07
-1.52246e-06
9.90245e-08
-1.5289e-06
3.69107e-08
-1.52493e-06
-2.5842e-08
-1.51054e-06
-8.85201e-08
-1.48586e-06
-1.50393e-07
-1.45111e-06
-2.10713e-07
-1.40663e-06
-2.6871e-07
-1.3529e-06
-3.23598e-07
-1.29052e-06
-3.74578e-07
-1.2202e-06
-4.20841e-07
-1.14279e-06
-4.61581e-07
-1.05928e-06
-4.96005e-07
-9.70747e-07
-5.23351e-07
-8.78424e-07
-5.42906e-07
-7.83627e-07
-5.54027e-07
-6.87773e-07
-5.5617e-07
-5.92354e-07
-5.48918e-07
-4.98918e-07
-5.32014e-07
-4.09048e-07
-5.05395e-07
-3.2433e-07
-4.69233e-07
-2.46333e-07
-4.23974e-07
-1.76582e-07
-3.70386e-07
-1.16534e-07
-3.09596e-07
-6.75718e-08
-2.43141e-07
-3.10018e-08
-1.72999e-07
-8.06903e-09
-1.01597e-07
-3.1978e-08
-9.30014e-09
4.28622e-08
-3.54371e-08
1.31181e-07
-7.6708e-08
2.18389e-07
-1.31435e-07
3.01644e-07
-1.97943e-07
3.78737e-07
-2.74547e-07
4.47926e-07
-3.59557e-07
5.0791e-07
-4.51281e-07
5.57795e-07
-5.48038e-07
5.97039e-07
-6.48179e-07
6.25403e-07
-7.50097e-07
6.42897e-07
-8.52244e-07
6.49737e-07
-9.53149e-07
6.46304e-07
-1.05142e-06
6.33103e-07
-1.14577e-06
6.10738e-07
-1.235e-06
5.79877e-07
-1.31803e-06
5.41238e-07
-1.39387e-06
4.95569e-07
-1.46165e-06
4.43633e-07
-1.5206e-06
3.86207e-07
-1.57007e-06
3.24067e-07
-1.60952e-06
2.57995e-07
-1.63849e-06
1.88773e-07
-1.65666e-06
1.1719e-07
-1.66379e-06
4.40413e-08
-1.65976e-06
-2.98641e-08
-1.64458e-06
-1.03701e-07
-1.61835e-06
-1.76625e-07
-1.5813e-06
-2.47768e-07
-1.53377e-06
-3.16237e-07
-1.47625e-06
-3.8112e-07
-1.40934e-06
-4.41484e-07
-1.3338e-06
-4.96386e-07
-1.25049e-06
-5.44885e-07
-1.16045e-06
-5.86049e-07
-1.06482e-06
-6.18983e-07
-9.64881e-07
-6.42843e-07
-8.62041e-07
-6.56867e-07
-7.5781e-07
-6.60401e-07
-6.53791e-07
-6.52938e-07
-5.51661e-07
-6.34145e-07
-4.53145e-07
-6.0391e-07
-3.59997e-07
-5.62381e-07
-2.73965e-07
-5.10006e-07
-1.96775e-07
-4.47576e-07
-1.30103e-07
-3.76267e-07
-7.55676e-08
-2.97677e-07
-3.47168e-08
-2.13849e-07
-9.04265e-09
-1.27271e-07
-4.10207e-08
-1.02692e-08
5.31314e-08
-3.91164e-08
1.60028e-07
-8.46019e-08
2.63874e-07
-1.44798e-07
3.61839e-07
-2.17781e-07
4.51721e-07
-3.01637e-07
5.31781e-07
-3.94457e-07
6.0073e-07
-4.94356e-07
6.57694e-07
-5.99484e-07
7.02167e-07
-7.08039e-07
7.33958e-07
-8.18285e-07
7.53142e-07
-9.28563e-07
7.60015e-07
-1.03731e-06
7.55047e-07
-1.14305e-06
7.38845e-07
-1.24443e-06
7.12117e-07
-1.34019e-06
6.75646e-07
-1.42922e-06
6.30263e-07
-1.51048e-06
5.76832e-07
-1.58308e-06
5.16232e-07
-1.64622e-06
4.4935e-07
-1.69924e-06
3.77078e-07
-1.74155e-06
3.00305e-07
-1.7727e-06
2.19925e-07
-1.79234e-06
1.36834e-07
-1.80024e-06
5.19363e-08
-1.79625e-06
-3.38483e-08
-1.78037e-06
-1.19582e-07
-1.7527e-06
-2.04302e-07
-1.71344e-06
-2.87019e-07
-1.66297e-06
-3.66715e-07
-1.60174e-06
-4.42345e-07
-1.53039e-06
-5.12837e-07
-1.44967e-06
-5.77108e-07
-1.36048e-06
-6.34067e-07
-1.2639e-06
-6.82637e-07
-1.1611e-06
-7.21775e-07
-1.05346e-06
-7.50492e-07
-9.42431e-07
-7.6789e-07
-8.29643e-07
-7.7319e-07
-7.1681e-07
-7.6577e-07
-6.05747e-07
-7.45208e-07
-4.98335e-07
-7.11322e-07
-3.96504e-07
-6.64212e-07
-3.022e-07
-6.0431e-07
-2.17363e-07
-5.32413e-07
-1.439e-07
-4.49729e-07
-8.36694e-08
-3.57908e-07
-3.84659e-08
-2.59053e-07
-1.00199e-08
-1.55717e-07
-5.10405e-08
-1.12484e-08
6.43798e-08
-4.28424e-08
1.91623e-07
-9.26112e-08
3.13643e-07
-1.58379e-07
4.27607e-07
-2.37977e-07
5.31318e-07
-3.29248e-07
6.23052e-07
-4.30063e-07
7.01545e-07
-5.38334e-07
7.65966e-07
-6.52029e-07
8.15862e-07
-7.69188e-07
8.51117e-07
-8.87938e-07
8.71892e-07
-1.0065e-06
8.78581e-07
-1.12322e-06
8.71765e-07
-1.23654e-06
8.52167e-07
-1.34504e-06
8.20618e-07
-1.44743e-06
7.78026e-07
-1.54251e-06
7.25348e-07
-1.62925e-06
6.6357e-07
-1.70671e-06
5.93693e-07
-1.77408e-06
5.16725e-07
-1.83068e-06
4.33672e-07
-1.87591e-06
3.45536e-07
-1.9093e-06
2.5332e-07
-1.9305e-06
1.58031e-07
-1.93925e-06
6.06808e-08
-1.93539e-06
-3.76997e-08
-1.91892e-06
-1.36059e-07
-1.8899e-06
-2.33318e-07
-1.84856e-06
-3.28365e-07
-1.79522e-06
-4.20051e-07
-1.73037e-06
-5.07194e-07
-1.65463e-06
-5.88581e-07
-1.56876e-06
-6.62977e-07
-1.47369e-06
-7.29136e-07
-1.37051e-06
-7.8582e-07
-1.26046e-06
-8.31823e-07
-1.14495e-06
-8.65998e-07
-1.02555e-06
-8.87289e-07
-9.03972e-07
-8.94771e-07
-7.82052e-07
-8.8769e-07
-6.61752e-07
-8.65508e-07
-5.45124e-07
-8.2795e-07
-4.34286e-07
-7.7505e-07
-3.31398e-07
-7.07198e-07
-2.38628e-07
-6.25183e-07
-1.58129e-07
-5.30229e-07
-9.20104e-08
-4.24027e-07
-4.23179e-08
-3.08746e-07
-1.10215e-08
-1.87013e-07
-6.2062e-08
-1.22539e-08
7.66336e-08
-4.66694e-08
2.26038e-07
-1.00842e-07
3.67815e-07
-1.72343e-07
4.99109e-07
-2.5875e-07
6.17725e-07
-3.5766e-07
7.21962e-07
-4.6671e-07
8.10596e-07
-5.836e-07
8.82855e-07
-7.06106e-07
9.38368e-07
-8.32101e-07
9.77112e-07
-9.59568e-07
9.99359e-07
-1.08661e-06
1.00563e-06
-1.21147e-06
9.96623e-07
-1.33251e-06
9.7321e-07
-1.44825e-06
9.36358e-07
-1.55734e-06
8.87113e-07
-1.65856e-06
8.2657e-07
-1.75084e-06
7.55847e-07
-1.83323e-06
6.76077e-07
-1.90489e-06
5.88389e-07
-1.96513e-06
4.93908e-07
-2.01334e-06
3.93752e-07
-2.04905e-06
2.89033e-07
-2.07189e-06
1.80865e-07
-2.08158e-06
7.03697e-08
-2.07796e-06
-4.1314e-08
-2.061e-06
-1.53023e-07
-2.03076e-06
-2.63562e-07
-1.98743e-06
-3.71694e-07
-1.93133e-06
-4.76143e-07
-1.86294e-06
-5.75585e-07
-1.78287e-06
-6.68658e-07
-1.69187e-06
-7.5397e-07
-1.5909e-06
-8.30107e-07
-1.48106e-06
-8.95659e-07
-1.36364e-06
-9.49242e-07
-1.24011e-06
-9.89528e-07
-1.11212e-06
-1.01529e-06
-9.81468e-07
-1.02542e-06
-8.50139e-07
-1.01902e-06
-7.20245e-07
-9.95402e-07
-5.94018e-07
-9.54178e-07
-4.73781e-07
-8.95287e-07
-3.61922e-07
-8.19057e-07
-2.60857e-07
-7.26248e-07
-1.72999e-07
-6.18087e-07
-1.00724e-07
-4.96303e-07
-4.63404e-08
-3.63129e-07
-1.20674e-08
-2.21286e-07
-7.41294e-08
-1.33007e-08
8.99344e-08
-5.06485e-08
2.63386e-07
-1.09393e-07
4.2656e-07
-1.86846e-07
5.76562e-07
-2.80316e-07
7.11196e-07
-3.87142e-07
8.28788e-07
-5.04718e-07
9.28172e-07
-6.30518e-07
1.00865e-06
-7.62117e-07
1.06997e-06
-8.97212e-07
1.11221e-06
-1.03364e-06
1.13578e-06
-1.16937e-06
1.14136e-06
-1.30255e-06
1.1298e-06
-1.43147e-06
1.10212e-06
-1.55457e-06
1.05946e-06
-1.67046e-06
1.003e-06
-1.77789e-06
9.34006e-07
-1.87578e-06
8.53729e-07
-1.96314e-06
7.63439e-07
-2.03914e-06
6.64396e-07
-2.10308e-06
5.57845e-07
-2.15435e-06
4.45018e-07
-2.19245e-06
3.27138e-07
-2.21701e-06
2.05425e-07
-2.22775e-06
8.11053e-08
-2.22448e-06
-4.45769e-08
-2.20716e-06
-1.7035e-07
-2.17581e-06
-2.94904e-07
-2.13063e-06
-4.16881e-07
-2.0719e-06
-5.34873e-07
-2.00007e-06
-6.47415e-07
-1.91573e-06
-7.52993e-07
-1.81966e-06
-8.50045e-07
-1.71278e-06
-9.36983e-07
-1.59623e-06
-1.01221e-06
-1.47133e-06
-1.07414e-06
-1.3396e-06
-1.12126e-06
-1.20277e-06
-1.15212e-06
-1.06275e-06
-1.16543e-06
-9.21664e-07
-1.16011e-06
-7.81773e-07
-1.13529e-06
-6.4551e-07
-1.09044e-06
-5.15418e-07
-1.02538e-06
-3.94131e-07
-9.40344e-07
-2.84332e-07
-8.36047e-07
-1.88714e-07
-7.13705e-07
-1.09939e-07
-5.75077e-07
-5.05989e-08
-4.22469e-07
-1.31766e-08
-2.58709e-07
-8.73059e-08
-1.44027e-08
1.04337e-07
-5.48275e-08
3.03811e-07
-1.18361e-07
4.90094e-07
-2.02034e-07
6.60235e-07
-3.02876e-07
8.12037e-07
-4.17948e-07
9.43861e-07
-5.44386e-07
1.05461e-06
-6.79424e-07
1.14369e-06
-8.20428e-07
1.21097e-06
-9.64908e-07
1.25669e-06
-1.11054e-06
1.28142e-06
-1.25518e-06
1.286e-06
-1.39686e-06
1.27148e-06
-1.53378e-06
1.23905e-06
-1.66435e-06
1.19003e-06
-1.78712e-06
1.12578e-06
-1.90083e-06
1.04772e-06
-2.00436e-06
9.57258e-07
-2.09674e-06
8.55816e-07
-2.17713e-06
7.44781e-07
-2.2448e-06
6.25522e-07
-2.29917e-06
4.99387e-07
-2.33974e-06
3.67705e-07
-2.36611e-06
2.31798e-07
-2.378e-06
9.29936e-08
-2.37521e-06
-4.73646e-08
-2.35766e-06
-1.87901e-07
-2.32537e-06
-3.27195e-07
-2.27848e-06
-4.63772e-07
-2.21726e-06
-5.96093e-07
-2.14212e-06
-7.22552e-07
-2.05364e-06
-8.41474e-07
-1.95256e-06
-9.51127e-07
-1.83981e-06
-1.04973e-06
-1.71652e-06
-1.13549e-06
-1.58405e-06
-1.20661e-06
-1.44397e-06
-1.26134e-06
-1.29807e-06
-1.29801e-06
-1.14839e-06
-1.31512e-06
-9.97164e-07
-1.31133e-06
-8.46846e-07
-1.28561e-06
-7.00066e-07
-1.23722e-06
-5.59608e-07
-1.16584e-06
-4.2837e-07
-1.07158e-06
-3.09325e-07
-9.55092e-07
-2.05471e-07
-8.17559e-07
-1.19782e-07
-6.60766e-07
-5.51564e-08
-4.87095e-07
-1.4367e-08
-2.99498e-07
-1.01673e-07
-1.55725e-08
1.1991e-07
-5.92504e-08
3.47489e-07
-1.27832e-07
5.58675e-07
-2.18046e-07
7.50448e-07
-3.26615e-07
9.20606e-07
-4.50308e-07
1.06755e-06
-5.85981e-07
1.19028e-06
-7.30617e-07
1.28833e-06
-8.81354e-07
1.36171e-06
-1.03551e-06
1.41084e-06
-1.1906e-06
1.43651e-06
-1.34434e-06
1.43974e-06
-1.49467e-06
1.4218e-06
-1.63972e-06
1.3841e-06
-1.77782e-06
1.32813e-06
-1.90752e-06
1.25548e-06
-2.02752e-06
1.16772e-06
-2.1367e-06
1.06644e-06
-2.23409e-06
9.53205e-07
-2.31886e-06
8.29546e-07
-2.39029e-06
6.96955e-07
-2.44779e-06
5.5689e-07
-2.49087e-06
4.10787e-07
-2.51914e-06
2.60064e-07
-2.53229e-06
1.06141e-07
-2.53011e-06
-4.95437e-08
-2.51249e-06
-2.05518e-07
-2.47943e-06
-3.6026e-07
-2.43102e-06
-5.1218e-07
-2.3675e-06
-6.59613e-07
-2.28924e-06
-8.0081e-07
-2.19678e-06
-9.33938e-07
-2.09082e-06
-1.05709e-06
-1.97228e-06
-1.16827e-06
-1.84228e-06
-1.26549e-06
-1.7022e-06
-1.34669e-06
-1.55364e-06
-1.4099e-06
-1.39848e-06
-1.45318e-06
-1.23884e-06
-1.47476e-06
-1.07711e-06
-1.47306e-06
-9.1592e-07
-1.4468e-06
-7.58115e-07
-1.39503e-06
-6.06736e-07
-1.31722e-06
-4.64968e-07
-1.21335e-06
-3.36099e-07
-1.08396e-06
-2.23463e-07
-9.30195e-07
-1.30375e-07
-7.53854e-07
-6.00734e-08
-5.57396e-07
-1.56561e-08
-3.43915e-07
-1.17329e-07
-1.6822e-08
1.36732e-07
-6.39585e-08
3.94625e-07
-1.37888e-07
6.32605e-07
-2.35006e-07
8.47566e-07
-3.51703e-07
1.0373e-06
-4.8443e-07
1.20028e-06
-6.29741e-07
1.33559e-06
-7.84349e-07
1.44294e-06
-9.45152e-07
1.52251e-06
-1.10927e-06
1.57496e-06
-1.27404e-06
1.60128e-06
-1.43705e-06
1.60276e-06
-1.59614e-06
1.58089e-06
-1.74936e-06
1.53732e-06
-1.89502e-06
1.47379e-06
-2.03163e-06
1.39208e-06
-2.15787e-06
1.29396e-06
-2.27265e-06
1.18121e-06
-2.37499e-06
1.05555e-06
-2.46408e-06
9.1864e-07
-2.53924e-06
7.72107e-07
-2.59987e-06
6.1752e-07
-2.64549e-06
4.56409e-07
-2.67571e-06
2.90284e-07
-2.69022e-06
1.20649e-07
-2.68879e-06
-5.09737e-08
-2.67128e-06
-2.23026e-07
-2.63765e-06
-3.9389e-07
-2.58796e-06
-5.61873e-07
-2.52238e-06
-7.25187e-07
-2.44125e-06
-8.81945e-07
-2.34503e-06
-1.03015e-06
-2.2344e-06
-1.16771e-06
-2.11024e-06
-1.29244e-06
-1.97364e-06
-1.40208e-06
-1.82598e-06
-1.49436e-06
-1.6689e-06
-1.56698e-06
-1.50432e-06
-1.61776e-06
-1.33448e-06
-1.6446e-06
-1.1619e-06
-1.64564e-06
-9.89391e-07
-1.61931e-06
-8.20039e-07
-1.56438e-06
-6.57151e-07
-1.4801e-06
-5.04227e-07
-1.36627e-06
-3.64899e-07
-1.22329e-06
-2.42868e-07
-1.05223e-06
-1.41832e-07
-8.54891e-07
-6.54084e-08
-6.33819e-07
-1.70606e-08
-3.92263e-07
-1.3439e-07
-1.81622e-08
1.54894e-07
-6.899e-08
4.45453e-07
-1.48604e-07
7.12218e-07
-2.53029e-07
9.51992e-07
-3.78294e-07
1.16257e-06
-5.20495e-07
1.34248e-06
-6.75865e-07
1.49096e-06
-8.40823e-07
1.60789e-06
-1.01201e-06
1.6937e-06
-1.18634e-06
1.74928e-06
-1.36097e-06
1.77591e-06
-1.53337e-06
1.77515e-06
-1.70126e-06
1.74878e-06
-1.86264e-06
1.69871e-06
-2.01579e-06
1.62694e-06
-2.15919e-06
1.53548e-06
-2.29155e-06
1.42633e-06
-2.41178e-06
1.30144e-06
-2.51893e-06
1.1627e-06
-2.61223e-06
1.01194e-06
-2.69101e-06
8.50883e-07
-2.7547e-06
6.81215e-07
-2.80285e-06
5.04556e-07
-2.83506e-06
3.22494e-07
-2.85102e-06
1.36609e-07
-2.85048e-06
-5.1509e-08
-2.83329e-06
-2.40225e-07
-2.79934e-06
-4.2784e-07
-2.74864e-06
-6.12566e-07
-2.68133e-06
-7.92503e-07
-2.59764e-06
-9.6563e-07
-2.498e-06
-1.12979e-06
-2.38301e-06
-1.28271e-06
-2.25348e-06
-1.42197e-06
-2.11049e-06
-1.54507e-06
-1.95538e-06
-1.64946e-06
-1.78981e-06
-1.73255e-06
-1.61575e-06
-1.79181e-06
-1.43553e-06
-1.82482e-06
-1.2518e-06
-1.82937e-06
-1.06757e-06
-1.80354e-06
-8.86159e-07
-1.74579e-06
-7.11164e-07
-1.6551e-06
-5.46425e-07
-1.53101e-06
-3.95954e-07
-1.37376e-06
-2.63859e-07
-1.18432e-06
-1.54265e-07
-9.64485e-07
-7.12174e-08
-7.16867e-07
-1.85966e-08
-4.44884e-07
-1.52986e-07
-1.96036e-08
1.74497e-07
-7.4381e-08
5.0023e-07
-1.60049e-07
7.97887e-07
-2.72222e-07
1.06416e-06
-4.06522e-07
1.29687e-06
-5.5866e-07
1.49462e-06
-7.24514e-07
1.65682e-06
-9.00189e-07
1.78357e-06
-1.08206e-06
1.87557e-06
-1.2668e-06
1.93402e-06
-1.45141e-06
1.96052e-06
-1.63321e-06
1.95695e-06
-1.80985e-06
1.92542e-06
-1.97928e-06
1.86814e-06
-2.13973e-06
1.78739e-06
-2.28971e-06
1.68545e-06
-2.42794e-06
1.56456e-06
-2.55336e-06
1.42686e-06
-2.66509e-06
1.27443e-06
-2.76237e-06
1.10922e-06
-2.84459e-06
9.33103e-07
-2.91123e-06
7.47849e-07
-2.96183e-06
5.55161e-07
-2.99603e-06
3.56697e-07
-3.01352e-06
1.54093e-07
-3.01402e-06
-5.10024e-08
-2.99735e-06
-2.56897e-07
-2.96337e-06
-4.61825e-07
-2.91202e-06
-6.63916e-07
-2.84335e-06
-8.61172e-07
-2.75754e-06
-1.05144e-06
-2.6549e-06
-1.23242e-06
-2.53597e-06
-1.40164e-06
-2.40148e-06
-1.55646e-06
-2.25244e-06
-1.69412e-06
-2.09015e-06
-1.81175e-06
-1.91626e-06
-1.90644e-06
-1.73277e-06
-1.9753e-06
-1.54209e-06
-2.01551e-06
-1.347e-06
-2.02446e-06
-1.15069e-06
-1.99985e-06
-9.56731e-07
-1.93975e-06
-7.69036e-07
-1.84279e-06
-5.91808e-07
-1.70824e-06
-4.29474e-07
-1.53609e-06
-2.86597e-07
-1.3272e-06
-1.6778e-07
-1.0833e-06
-7.75551e-08
-8.07091e-07
-2.028e-08
-5.02159e-07
-1.73266e-07
-2.11565e-08
1.95654e-07
-8.01664e-08
5.5924e-07
-1.72291e-07
8.90012e-07
-2.92681e-07
1.18456e-06
-4.36506e-07
1.44069e-06
-5.99052e-07
1.65716e-06
-7.75808e-07
1.83358e-06
-9.62537e-07
1.9703e-06
-1.15532e-06
2.06836e-06
-1.35061e-06
2.12931e-06
-1.54522e-06
2.15513e-06
-1.73635e-06
2.14808e-06
-1.92156e-06
2.11063e-06
-2.09877e-06
2.04535e-06
-2.26621e-06
1.95483e-06
-2.42239e-06
1.84164e-06
-2.56611e-06
1.70827e-06
-2.69634e-06
1.55709e-06
-2.81226e-06
1.39035e-06
-2.9132e-06
1.21015e-06
-2.99858e-06
1.01848e-06
-3.06793e-06
8.17204e-07
-3.12086e-06
6.08088e-07
-3.157e-06
3.92843e-07
-3.17606e-06
1.73148e-07
-3.17775e-06
-4.93098e-08
-3.16185e-06
-2.72801e-07
-3.12816e-06
-4.95512e-07
-3.07657e-06
-7.1551e-07
-3.00703e-06
-9.30711e-07
-2.91962e-06
-1.13885e-06
-2.81456e-06
-1.33748e-06
-2.69226e-06
-1.52394e-06
-2.55336e-06
-1.69536e-06
-2.39877e-06
-1.8487e-06
-2.22974e-06
-1.98079e-06
-2.04786e-06
-2.08832e-06
-1.85515e-06
-2.16801e-06
-1.65406e-06
-2.2166e-06
-1.44751e-06
-2.23102e-06
-1.23886e-06
-2.2085e-06
-1.03193e-06
-2.14667e-06
-8.30976e-07
-2.04375e-06
-6.40586e-07
-1.89863e-06
-4.65648e-07
-1.71103e-06
-3.11232e-07
-1.48161e-06
-1.82478e-07
-1.21206e-06
-8.44749e-08
-9.05094e-07
-2.21268e-08
-5.64507e-07
-1.95393e-07
-2.28313e-08
2.18485e-07
-8.63803e-08
6.22789e-07
-1.85392e-07
9.89023e-07
-3.14496e-07
1.31366e-06
-4.68352e-07
1.59455e-06
-6.41775e-07
1.83059e-06
-8.29825e-07
2.02163e-06
-1.02789e-06
2.16837e-06
-1.23176e-06
2.27223e-06
-1.43763e-06
2.33518e-06
-1.64214e-06
2.35964e-06
-1.84236e-06
2.34831e-06
-2.03581e-06
2.30408e-06
-2.22037e-06
2.22991e-06
-2.39429e-06
2.12875e-06
-2.55614e-06
2.0035e-06
-2.70478e-06
1.8569e-06
-2.83926e-06
1.69157e-06
-2.95885e-06
1.50994e-06
-3.06295e-06
1.31426e-06
-3.15108e-06
1.10662e-06
-3.22284e-06
8.8896e-07
-3.27787e-06
6.63115e-07
-3.31585e-06
4.30825e-07
-3.33649e-06
1.93787e-07
-3.3395e-06
-4.62962e-08
-3.32462e-06
-2.8768e-07
-3.29161e-06
-5.28526e-07
-3.24026e-06
-7.66861e-07
-3.17043e-06
-1.00054e-06
-3.08209e-06
-1.2272e-06
-2.97532e-06
-1.44425e-06
-2.8504e-06
-1.64886e-06
-2.70783e-06
-1.83793e-06
-2.54841e-06
-2.00813e-06
-2.37327e-06
-2.15593e-06
-2.18394e-06
-2.27765e-06
-1.98241e-06
-2.36954e-06
-1.77116e-06
-2.42785e-06
-1.55319e-06
-2.44898e-06
-1.33206e-06
-2.42963e-06
-1.11185e-06
-2.36689e-06
-8.97128e-07
-2.25847e-06
-6.92932e-07
-2.10283e-06
-5.04646e-07
-1.89932e-06
-3.37905e-07
-1.64836e-06
-1.98459e-07
-1.3515e-06
-9.20297e-08
-1.01152e-06
-2.41529e-08
-6.32384e-07
-2.19546e-07
-2.46386e-08
2.43124e-07
-9.30579e-08
6.91208e-07
-1.99417e-07
1.09538e-06
-3.37752e-07
1.45199e-06
-5.02154e-07
1.75895e-06
-6.86907e-07
2.01534e-06
-8.86601e-07
2.22132e-06
-1.09623e-06
2.37799e-06
-1.31123e-06
2.48723e-06
-1.52757e-06
2.55152e-06
-1.74171e-06
2.57378e-06
-1.95063e-06
2.55722e-06
-2.15177e-06
2.50522e-06
-2.34304e-06
2.42117e-06
-2.52274e-06
2.30845e-06
-2.6895e-06
2.17026e-06
-2.84228e-06
2.00968e-06
-2.98025e-06
1.82955e-06
-3.10279e-06
1.63248e-06
-3.20941e-06
1.42088e-06
-3.29974e-06
1.19694e-06
-3.37344e-06
9.62666e-07
-3.43025e-06
7.19921e-07
-3.46988e-06
4.70459e-07
-3.49207e-06
2.15975e-07
-3.49653e-06
-4.18425e-08
-3.48295e-06
-3.01259e-07
-3.45103e-06
-5.60441e-07
-3.40049e-06
-8.17402e-07
-3.33107e-06
-1.06996e-06
-3.2426e-06
-1.31567e-06
-3.13501e-06
-1.55184e-06
-3.00842e-06
-1.77545e-06
-2.86315e-06
-1.98319e-06
-2.69984e-06
-2.17143e-06
-2.51948e-06
-2.33629e-06
-2.32349e-06
-2.47365e-06
-2.11378e-06
-2.57924e-06
-1.89284e-06
-2.64879e-06
-1.66373e-06
-2.67809e-06
-1.43016e-06
-2.6632e-06
-1.19646e-06
-2.60059e-06
-9.6757e-07
-2.48736e-06
-7.48976e-07
-2.32142e-06
-5.46613e-07
-2.10168e-06
-3.66747e-07
-1.82822e-06
-2.15819e-07
-1.50243e-06
-1.00272e-07
-1.12707e-06
-2.63747e-08
-7.06282e-07
-2.45921e-07
-2.65902e-08
2.69714e-07
-1.00237e-07
7.64855e-07
-2.14431e-07
1.20958e-06
-3.62536e-07
1.6001e-06
-5.37999e-07
1.93441e-06
-7.34508e-07
2.21185e-06
-9.46132e-07
2.43294e-06
-1.16742e-06
2.59928e-06
-1.39349e-06
2.7133e-06
-1.62003e-06
2.77806e-06
-1.84334e-06
2.79709e-06
-2.06031e-06
2.77419e-06
-2.26837e-06
2.71328e-06
-2.46546e-06
2.61826e-06
-2.64996e-06
2.49294e-06
-2.82062e-06
2.34093e-06
-2.97652e-06
2.16559e-06
-3.11699e-06
1.97002e-06
-3.24155e-06
1.75703e-06
-3.34984e-06
1.52918e-06
-3.44163e-06
1.28872e-06
-3.51669e-06
1.03773e-06