/*--------------------------------*- C++ -*----------------------------------*\
  =========                 |
  \\      /  F ield         | OpenFOAM: The Open Source CFD Toolbox
   \\    /   O peration     | Website:  https://openfoam.org
    \\  /    A nd           | Version:  7
     \\/     M anipulation  |
\*---------------------------------------------------------------------------*/
FoamFile
{
    version     2.0;
    format      ascii;
    class       volScalarField;
    location    "0.0032";
    object      p;
}
// * * * * * * * * * * * * * * * * * * * * * * * * * * * * * * * * * * * * * //

dimensions      [0 2 -2 0 0 0 0];

internalField   nonuniform List<scalar> 
2500
(
-2.51037e-07
6.36157
8.99191
10.0528
10.6192
10.9551
11.1693
11.3224
11.4438
11.5472
11.6394
11.724
11.803
11.8777
11.9487
12.0169
12.0826
12.1462
12.2081
12.2686
12.328
12.3864
12.4442
12.5014
12.5584
12.6152
12.6721
12.7292
12.7867
12.8449
12.904
12.9642
13.0259
13.0894
13.1551
13.2237
13.2959
13.3724
13.4545
13.5441
13.644
13.7587
13.8963
14.0721
14.3174
14.6957
15.3249
16.4797
19.2254
25.7064
4.88966
7.46678
8.85805
9.71717
10.3031
10.7015
10.9788
11.1829
11.342
11.4722
11.5834
11.6815
11.7702
11.8519
11.9283
12.0005
12.0693
12.1355
12.1995
12.2617
12.3225
12.3822
12.4411
12.4994
12.5573
12.6151
12.6729
12.731
12.7896
12.8489
12.9093
12.971
13.0345
13.1002
13.1687
13.2408
13.3175
13.4002
13.4908
13.5922
13.7088
13.8475
14.0192
14.2419
14.5461
14.9827
15.623
16.5542
18.0315
20.7201
7.76032
8.49614
9.21466
9.81755
10.2897
10.6462
10.9164
11.1264
11.2948
11.4342
11.5533
11.6576
11.7513
11.8368
11.9162
11.9907
12.0614
12.1291
12.1943
12.2575
12.3192
12.3797
12.4393
12.4982
12.5567
12.615
12.6734
12.7321
12.7913
12.8513
12.9124
12.975
13.0396
13.1065
13.1765
13.2505
13.3296
13.4154
13.5099
13.6164
13.7393
13.8852
14.064
14.2899
14.5837
14.9739
15.4918
16.1494
16.9231
17.7163
9.20468
9.35047
9.70505
10.0876
10.4244
10.7054
10.9371
11.1286
11.2889
11.4255
11.5442
11.6493
11.7439
11.8306
11.911
11.9864
12.0578
12.1261
12.1919
12.2556
12.3177
12.3786
12.4385
12.4977
12.5565
12.6151
12.6738
12.7327
12.7922
12.8526
12.9141
12.9771
13.042
13.1095
13.1801
13.2547
13.3345
13.4209
13.516
13.6226
13.7444
13.8866
14.0562
14.2622
14.5152
14.8257
15.1999
15.6234
16.0129
16.1821
10.0452
9.99192
10.1451
10.3727
10.6016
10.8127
11.001
11.1661
11.3107
11.4381
11.5514
11.6534
11.7463
11.8319
11.9117
11.9868
12.0581
12.1263
12.192
12.2557
12.3178
12.3787
12.4387
12.4979
12.5568
12.6154
12.6741
12.7331
12.7927
12.8531
12.9146
12.9776
13.0425
13.1099
13.1804
13.2548
13.334
13.4195
13.5129
13.6164
13.733
13.866
14.0198
14.1987
14.4064
14.6427
14.901
15.1576
15.3313
15.2832
10.5739
10.4581
10.5075
10.6366
10.7878
10.9419
11.09
11.2275
11.3533
11.468
11.5727
11.6688
11.7577
11.8405
11.9183
11.992
12.0622
12.1296
12.1946
12.2579
12.3196
12.3802
12.4398
12.4989
12.5575
12.616
12.6745
12.7333
12.7927
12.8528
12.914
12.9767
13.0412
13.108
13.1777
13.2509
13.3285
13.4117
13.5016
13.6
13.7086
13.8295
13.9646
14.1153
14.2805
14.4553
14.6284
14.7768
14.8367
14.717
10.9213
10.7984
10.7986
10.8681
10.9658
11.0763
11.1904
11.3023
11.4092
11.51
11.6046
11.6933
11.7767
11.8554
11.9301
12.0014
12.0698
12.1357
12.1997
12.262
12.3229
12.3829
12.442
12.5005
12.5587
12.6167
12.6748
12.7332
12.7921
12.8518
12.9124
12.9744
13.038
13.1037
13.172
13.2434
13.3186
13.3983
13.4836
13.5753
13.6745
13.782
13.8981
14.0221
14.1508
14.2775
14.3908
14.4725
14.477
14.3468
11.1616
11.051
11.03
11.0646
11.1268
11.2053
11.2924
11.3824
11.472
11.5593
11.6435
11.7241
11.8013
11.8751
11.9461
12.0143
12.0803
12.1444
12.2068
12.2678
12.3277
12.3866
12.4449
12.5027
12.5603
12.6177
12.6752
12.7329
12.7911
12.85
12.9098
12.9708
13.0332
13.0974
13.1638
13.2327
13.3048
13.3804
13.4602
13.5445
13.6338
13.728
13.8263
13.927
14.026
14.1167
14.1896
14.2314
14.2113
14.0931
11.3363
11.2428
11.2142
11.2289
11.268
11.3238
11.3902
11.4623
11.5369
11.612
11.6862
11.7588
11.8295
11.8983
11.965
12.03
12.0932
12.155
12.2155
12.2749
12.3335
12.3913
12.4486
12.5054
12.5621
12.6187
12.6754
12.7323
12.7896
12.8475
12.9062
12.9659
13.0268
13.0892
13.1533
13.2194
13.2879
13.359
13.4329
13.5097
13.5892
13.6709
13.7535
13.8347
13.9105
13.9752
14.0215
14.0402
14.011
13.9107
11.4691
11.3918
11.3622
11.3659
11.3902
11.43
11.4808
11.5387
11.6009
11.6652
11.7304
11.7955
11.86
11.9235
11.986
12.0474
12.1077
12.167
12.2255
12.2831
12.3401
12.3966
12.4527
12.5085
12.5641
12.6197
12.6754
12.7313
12.7876
12.8444
12.9017
12.9599
13.0191
13.0794
13.1409
13.204
13.2686
13.335
13.403
13.4724
13.5429
13.6134
13.6826
13.748
13.8061
13.8524
13.8814
13.8872
13.8563
13.7737
11.5738
11.5104
11.4825
11.4804
11.4953
11.524
11.5632
11.61
11.6619
11.7171
11.7743
11.8326
11.8912
11.9498
12.0081
12.066
12.1233
12.18
12.2363
12.292
12.3474
12.4024
12.4572
12.5117
12.5662
12.6207
12.6753
12.7301
12.7852
12.8406
12.8966
12.9531
13.0103
13.0683
13.1272
13.1871
13.2478
13.3094
13.3717
13.4343
13.4965
13.5574
13.6153
13.6682
13.7131
13.7465
13.7645
13.7634
13.7342
13.6667
11.6589
11.6067
11.5816
11.5765
11.5855
11.6065
11.6372
11.6753
11.7189
11.7665
11.8168
11.869
11.9223
11.9763
12.0306
12.085
12.1393
12.1935
12.2475
12.3014
12.355
12.4085
12.4618
12.5151
12.5684
12.6217
12.6751
12.7286
12.7824
12.8364
12.8908
12.9456
13.0008
13.0564
13.1126
13.1692
13.2261
13.2832
13.3402
13.3965
13.4515
13.504
13.5528
13.5959
13.631
13.6554
13.6665
13.662
13.6356
13.5803
11.7299
11.6863
11.6641
11.6578
11.663
11.6786
11.703
11.7344
11.7714
11.8127
11.8571
11.904
11.9525
12.0023
12.0529
12.104
12.1555
12.2072
12.259
12.3109
12.3627
12.4146
12.4666
12.5185
12.5705
12.6225
12.6747
12.7269
12.7793
12.8319
12.8846
12.9376
12.9907
13.0441
13.0975
13.151
13.2042
13.2571
13.3092
13.3599
13.4086
13.4543
13.4956
13.5312
13.559
13.5771
13.5838
13.5778
13.5545
13.5087
11.7899
11.7531
11.7335
11.7268
11.7297
11.7415
11.7612
11.7875
11.8191
11.8552
11.8947
11.937
11.9813
12.0273
12.0745
12.1226
12.1714
12.2207
12.2703
12.3203
12.3705
12.4208
12.4713
12.5218
12.5725
12.6233
12.6741
12.725
12.776
12.8271
12.8782
12.9294
12.9805
13.0316
13.0824
13.1328
13.1827
13.2317
13.2794
13.3253
13.3686
13.4085
13.4439
13.4736
13.4961
13.5098
13.5138
13.5072
13.4867
13.4483
11.8413
11.8097
11.7922
11.7856
11.787
11.7962
11.8124
11.8346
11.8621
11.8939
11.9293
11.9676
12.0083
12.0509
12.095
12.1404
12.1866
12.2337
12.2813
12.3295
12.378
12.4268
12.4758
12.525
12.5744
12.6239
12.6735
12.7231
12.7727
12.8223
12.8718
12.9212
12.9704
13.0192
13.0676
13.1152
13.162
13.2075
13.2513
13.293
13.3318
13.367
13.3977
13.4228
13.4412
13.452
13.4542
13.4476
13.4295
13.3966
11.8855
11.8578
11.8422
11.8358
11.8363
11.8435
11.8571
11.8763
11.9004
11.9287
11.9607
11.9957
12.0332
12.0728
12.1142
12.1571
12.2011
12.2461
12.2918
12.3382
12.3852
12.4325
12.4802
12.5281
12.5762
12.6244
12.6728
12.7211
12.7694
12.8175
12.8655
12.9132
12.9605
13.0073
13.0534
13.0985
13.1425
13.1849
13.2254
13.2634
13.2984
13.3298
13.3566
13.3782
13.3937
13.4023
13.4034
13.397
13.3809
13.3523
11.9235
11.8989
11.8848
11.8786
11.8785
11.8844
11.896
11.9128
11.9342
11.9597
11.9888
12.021
12.0558
12.0929
12.1319
12.1725
12.2145
12.2576
12.3016
12.3464
12.3919
12.4379
12.4842
12.5309
12.5778
12.6249
12.672
12.7191
12.7661
12.813
12.8595
12.9056
12.9512
12.9961
13.0401
13.0829
13.1244
13.1641
13.2017
13.2367
13.2686
13.2968
13.3206
13.3395
13.3527
13.3597
13.3601
13.354
13.3395
13.3142
11.956
11.9337
11.9208
11.9149
11.9145
11.9194
11.9295
11.9444
11.9637
11.9869
12.0136
12.0435
12.076
12.1109
12.1479
12.1865
12.2267
12.2681
12.3106
12.354
12.3981
12.4428
12.488
12.5335
12.5793
12.6252
12.6713
12.7172
12.7631
12.8086
12.8538
12.8985
12.9425
12.9857
13.0279
13.0687
13.108
13.1454
13.1805
13.2129
13.2422
13.2679
13.2893
13.3061
13.3176
13.3234
13.3234
13.3176
13.3044
13.2816
11.9836
11.9631
11.9512
11.9456
11.9448
11.949
11.958
11.9714
11.989
12.0104
12.0352
12.0632
12.0938
12.1268
12.162
12.199
12.2376
12.2775
12.3186
12.3607
12.4036
12.4472
12.4913
12.5358
12.5806
12.6255
12.6705
12.7155
12.7602
12.8047
12.8487
12.8921
12.9347
12.9764
13.0169
13.056
13.0934
13.1288
13.1619
13.1922
13.2194
13.243
13.2625
13.2776
13.2878
13.2929
13.2926
13.287
13.2749
13.254
12.0066
11.9875
11.9763
11.971
11.9701
11.9737
11.9818
11.9941
12.0104
12.0303
12.0536
12.08
12.109
12.1405
12.1742
12.2098
12.2471
12.2857
12.3257
12.3666
12.4085
12.4511
12.4942
12.5378
12.5817
12.6258
12.6699
12.7139
12.7577
12.8012
12.8441
12.8864
12.9278
12.9682
13.0073
13.0449
13.0808
13.1145
13.1459
13.1745
13.1999
13.2219
13.24
13.2538
13.263
13.2674
13.267
13.2617
13.2503
13.2309
12.0254
12.0074
11.9968
11.9916
11.9906
11.9938
12.0013
12.0127
12.028
12.0468
12.0689
12.0939
12.1217
12.152
12.1845
12.2189
12.255
12.2927
12.3316
12.3717
12.4126
12.4544
12.4967
12.5395
12.5826
12.626
12.6693
12.7125
12.7555
12.7981
12.8402
12.8815
12.9219
12.9612
12.9992
13.0356
13.0701
13.1026
13.1325
13.1598
13.1839
13.2046
13.2215
13.2343
13.2428
13.2468
13.2462
13.2411
13.2304
13.2121
12.0402
12.0229
12.0128
12.0078
12.0067
12.0096
12.0166
12.0274
12.0419
12.0598
12.081
12.1051
12.1319
12.1612
12.1927
12.2262
12.2615
12.2983
12.3364
12.3757
12.416
12.457
12.4987
12.5409
12.5834
12.6261
12.6688
12.7114
12.7538
12.7957
12.837
12.8776
12.9172
12.9556
12.9927
13.0281
13.0616
13.093
13.1219
13.148
13.1711
13.1908
13.2069
13.219
13.227
13.2306
13.2299
13.225
13.2147
13.1972
12.0511
12.0344
12.0246
12.0197
12.0186
12.0213
12.028
12.0383
12.0522
12.0695
12.09
12.1134
12.1395
12.1681
12.1989
12.2317
12.2663
12.3025
12.3401
12.3788
12.4185
12.4591
12.5002
12.5419
12.584
12.6262
12.6684
12.7105
12.7524
12.7938
12.8346
12.8746
12.9135
12.9513
12.9877
13.0224
13.0552
13.0858
13.1139
13.1393
13.1616
13.1806
13.1961
13.2077
13.2153
13.2187
13.2179
13.2131
13.2031
13.1863
12.0583
12.042
12.0324
12.0275
12.0264
12.029
12.0355
12.0455
12.0591
12.076
12.096
12.1189
12.1446
12.1727
12.2031
12.2354
12.2696
12.3054
12.3425
12.3809
12.4202
12.4604
12.5013
12.5426
12.5843
12.6262
12.6682
12.71
12.7515
12.7925
12.8329
12.8725
12.9111
12.9485
12.9844
13.0186
13.0509
13.081
13.1086
13.1334
13.1553
13.1739
13.1889
13.2002
13.2075
13.2108
13.21
13.2053
13.1955
13.179
12.0619
12.0458
12.0362
12.0315
12.0303
12.0329
12.0392
12.0491
12.0625
12.0792
12.099
12.1217
12.1471
12.175
12.2051
12.2373
12.2712
12.3068
12.3437
12.3819
12.4211
12.4611
12.5018
12.543
12.5845
12.6263
12.668
12.7097
12.751
12.7919
12.8321
12.8715
12.9099
12.947
12.9827
13.0167
13.0487
13.0785
13.1059
13.1305
13.1521
13.1705
13.1853
13.1964
13.2037
13.2069
13.206
13.2014
13.1917
13.1754
12.0619
12.0458
12.0362
12.0315
12.0303
12.0329
12.0392
12.0491
12.0625
12.0792
12.099
12.1217
12.1471
12.175
12.2051
12.2373
12.2712
12.3068
12.3437
12.3819
12.4211
12.4611
12.5018
12.543
12.5845
12.6263
12.668
12.7097
12.751
12.7919
12.8321
12.8715
12.9099
12.947
12.9827
13.0167
13.0487
13.0785
13.1059
13.1305
13.1521
13.1705
13.1853
13.1964
13.2037
13.2068
13.206
13.2014
13.1917
13.1754
12.0583
12.042
12.0324
12.0276
12.0264
12.029
12.0355
12.0455
12.0591
12.076
12.096
12.119
12.1446
12.1727
12.2031
12.2354
12.2696
12.3054
12.3425
12.3809
12.4202
12.4604
12.5013
12.5426
12.5843
12.6262
12.6682
12.71
12.7515
12.7925
12.8329
12.8725
12.9111
12.9485
12.9844
13.0186
13.0509
13.0809
13.1086
13.1334
13.1553
13.1739
13.1889
13.2002
13.2075
13.2108
13.21
13.2053
13.1955
13.179
12.0511
12.0344
12.0246
12.0197
12.0186
12.0213
12.028
12.0383
12.0522
12.0695
12.09
12.1134
12.1395
12.1681
12.1989
12.2317
12.2663
12.3025
12.3401
12.3788
12.4185
12.4591
12.5002
12.5419
12.584
12.6262
12.6684
12.7105
12.7524
12.7938
12.8346
12.8745
12.9135
12.9513
12.9877
13.0224
13.0552
13.0858
13.1139
13.1393
13.1616
13.1806
13.196
13.2077
13.2152
13.2186
13.2179
13.2131
13.2031
13.1863
12.0402
12.0229
12.0128
12.0078
12.0067
12.0097
12.0166
12.0274
12.0419
12.0598
12.081
12.1051
12.1319
12.1612
12.1927
12.2262
12.2615
12.2983
12.3364
12.3757
12.416
12.457
12.4987
12.5409
12.5834
12.6261
12.6688
12.7114
12.7537
12.7957
12.837
12.8776
12.9172
12.9556
12.9926
13.0281
13.0616
13.093
13.1219
13.148
13.1711
13.1908
13.2069
13.219
13.227
13.2306
13.2299
13.225
13.2147
13.1972
12.0254
12.0074
11.9968
11.9916
11.9906
11.9938
12.0013
12.0128
12.028
12.0468
12.0689
12.0939
12.1217
12.152
12.1845
12.2189
12.255
12.2927
12.3316
12.3717
12.4126
12.4544
12.4967
12.5395
12.5826
12.6259
12.6693
12.7125
12.7555
12.7981
12.8402
12.8815
12.9219
12.9612
12.9992
13.0356
13.0701
13.1025
13.1325
13.1597
13.1839
13.2046
13.2215
13.2343
13.2428
13.2468
13.2461
13.2411
13.2303
13.212
12.0066
11.9875
11.9763
11.971
11.9701
11.9737
11.9818
11.9941
12.0104
12.0304
12.0536
12.08
12.109
12.1406
12.1742
12.2098
12.2471
12.2857
12.3257
12.3667
12.4085
12.4511
12.4942
12.5378
12.5817
12.6258
12.6699
12.7139
12.7577
12.8012
12.8441
12.8864
12.9278
12.9682
13.0073
13.0449
13.0807
13.1145
13.1459
13.1744
13.1999
13.2219
13.24
13.2538
13.263
13.2674
13.2669
13.2616
13.2503
13.2309
11.9836
11.9631
11.9512
11.9456
11.9448
11.949
11.958
11.9714
11.989
12.0104
12.0353
12.0632
12.0938
12.1269
12.162
12.199
12.2376
12.2775
12.3186
12.3607
12.4036
12.4472
12.4913
12.5358
12.5806
12.6255
12.6705
12.7155
12.7602
12.8047
12.8487
12.8921
12.9347
12.9764
13.0169
13.056
13.0934
13.1288
13.1618
13.1922
13.2193
13.2429
13.2625
13.2776
13.2878
13.2928
13.2925
13.287
13.2748
13.2539
11.9561
11.9337
11.9208
11.915
11.9145
11.9194
11.9295
11.9444
11.9637
11.9869
12.0137
12.0435
12.0761
12.111
12.1479
12.1866
12.2267
12.2681
12.3106
12.354
12.3981
12.4428
12.488
12.5335
12.5793
12.6252
12.6713
12.7172
12.7631
12.8086
12.8538
12.8985
12.9425
12.9857
13.0278
13.0687
13.108
13.1453
13.1805
13.2129
13.2422
13.2678
13.2893
13.306
13.3176
13.3234
13.3234
13.3176
13.3044
13.2816
11.9235
11.8989
11.8848
11.8786
11.8785
11.8844
11.896
11.9128
11.9342
11.9597
11.9888
12.021
12.0558
12.0929
12.1319
12.1725
12.2145
12.2576
12.3016
12.3464
12.3919
12.4379
12.4842
12.5309
12.5778
12.6249
12.672
12.7191
12.7661
12.8129
12.8595
12.9056
12.9512
12.9961
13.0401
13.0829
13.1244
13.1641
13.2017
13.2367
13.2685
13.2967
13.3206
13.3395
13.3527
13.3597
13.3601
13.354
13.3395
13.3142
11.8856
11.8579
11.8423
11.8358
11.8363
11.8436
11.8571
11.8763
11.9004
11.9288
11.9607
11.9957
12.0332
12.0729
12.1143
12.1571
12.2011
12.2461
12.2918
12.3382
12.3852
12.4325
12.4802
12.5281
12.5762
12.6244
12.6727
12.7211
12.7694
12.8175
12.8655
12.9132
12.9605
13.0073
13.0534
13.0985
13.1424
13.1848
13.2253
13.2634
13.2984
13.3297
13.3566
13.3782
13.3937
13.4022
13.4034
13.3969
13.3809
13.3523
11.8414
11.8097
11.7923
11.7856
11.787
11.7962
11.8124
11.8347
11.8621
11.8939
11.9293
11.9676
12.0083
12.0509
12.095
12.1404
12.1867
12.2337
12.2814
12.3295
12.378
12.4268
12.4758
12.525
12.5744
12.6239
12.6735
12.7231
12.7727
12.8223
12.8718
12.9212
12.9704
13.0192
13.0675
13.1152
13.162
13.2075
13.2513
13.293
13.3318
13.367
13.3976
13.4227
13.4412
13.4519
13.4541
13.4475
13.4295
13.3966
11.79
11.7532
11.7335
11.7268
11.7297
11.7415
11.7612
11.7875
11.8192
11.8552
11.8947
11.937
11.9813
12.0273
12.0745
12.1226
12.1714
12.2207
12.2703
12.3203
12.3705
12.4208
12.4713
12.5218
12.5725
12.6233
12.6741
12.725
12.776
12.8271
12.8782
12.9294
12.9805
13.0315
13.0824
13.1328
13.1827
13.2317
13.2794
13.3252
13.3686
13.4085
13.4439
13.4736
13.496
13.5098
13.5137
13.5071
13.4867
13.4482
11.7299
11.6864
11.6641
11.6578
11.6631
11.6787
11.703
11.7345
11.7714
11.8127
11.8572
11.904
11.9526
12.0023
12.0529
12.104
12.1555
12.2072
12.259
12.3109
12.3628
12.4147
12.4666
12.5185
12.5705
12.6225
12.6746
12.7269
12.7793
12.8319
12.8846
12.9376
12.9907
13.044
13.0975
13.1509
13.2042
13.2571
13.3092
13.3599
13.4086
13.4542
13.4956
13.5311
13.559
13.5771
13.5838
13.5777
13.5544
13.5086
11.659
11.6067
11.5816
11.5766
11.5856
11.6065
11.6372
11.6753
11.719
11.7665
11.8169
11.869
11.9223
11.9763
12.0306
12.085
12.1394
12.1935
12.2476
12.3014
12.355
12.4085
12.4618
12.5151
12.5684
12.6217
12.6751
12.7286
12.7824
12.8364
12.8908
12.9455
13.0007
13.0564
13.1126
13.1692
13.2261
13.2832
13.3402
13.3965
13.4514
13.504
13.5528
13.5959
13.631
13.6554
13.6664
13.6619
13.6355
13.5802
11.5738
11.5104
11.4826
11.4804
11.4953
11.524
11.5633
11.61
11.6619
11.7171
11.7743
11.8326
11.8912
11.9498
12.0081
12.066
12.1233
12.18
12.2363
12.292
12.3474
12.4024
12.4572
12.5117
12.5662
12.6207
12.6753
12.7301
12.7852
12.8406
12.8965
12.9531
13.0103
13.0683
13.1272
13.187
13.2478
13.3094
13.3717
13.4343
13.4965
13.5573
13.6153
13.6681
13.7131
13.7464
13.7644
13.7634
13.7341
13.6666
11.4691
11.3919
11.3623
11.3659
11.3903
11.4301
11.4809
11.5388
11.6009
11.6652
11.7304
11.7955
11.86
11.9236
11.986
12.0474
12.1077
12.1671
12.2255
12.2831
12.3401
12.3966
12.4527
12.5085
12.5641
12.6197
12.6754
12.7313
12.7876
12.8443
12.9017
12.9599
13.0191
13.0793
13.1409
13.204
13.2686
13.3349
13.4029
13.4724
13.5428
13.6134
13.6825
13.7479
13.8061
13.8524
13.8813
13.8872
13.8563
13.7736
11.3364
11.2429
11.2143
11.229
11.2681
11.3238
11.3902
11.4623
11.537
11.612
11.6862
11.7588
11.8296
11.8983
11.9651
12.03
12.0932
12.155
12.2155
12.275
12.3335
12.3913
12.4486
12.5055
12.5621
12.6187
12.6754
12.7323
12.7896
12.8475
12.9062
12.9659
13.0268
13.0891
13.1532
13.2194
13.2879
13.3589
13.4328
13.5096
13.5892
13.6709
13.7535
13.8346
13.9105
13.9752
14.0214
14.0401
14.0109
13.9107
11.1616
11.0511
11.03
11.0646
11.1268
11.2054
11.2924
11.3824
11.472
11.5594
11.6435
11.7241
11.8013
11.8752
11.9461
12.0144
12.0804
12.1444
12.2068
12.2678
12.3277
12.3866
12.4449
12.5027
12.5603
12.6177
12.6751
12.7329
12.7911
12.85
12.9098
12.9707
13.0332
13.0974
13.1637
13.2327
13.3048
13.3804
13.4601
13.5445
13.6338
13.7279
13.8263
13.9269
14.026
14.1167
14.1896
14.2314
14.2113
14.0931
10.9213
10.7984
10.7986
10.8681
10.9659
11.0764
11.1905
11.3024
11.4093
11.5101
11.6046
11.6933
11.7767
11.8555
11.9302
12.0014
12.0698
12.1358
12.1997
12.262
12.323
12.3829
12.442
12.5005
12.5587
12.6167
12.6748
12.7332
12.7921
12.8518
12.9124
12.9744
13.038
13.1037
13.172
13.2434
13.3185
13.3983
13.4835
13.5752
13.6744
13.7819
13.8981
14.022
14.1508
14.2774
14.3908
14.4724
14.4769
14.3467
10.5739
10.4582
10.5075
10.6366
10.7878
10.942
11.09
11.2275
11.3533
11.468
11.5727
11.6689
11.7578
11.8406
11.9184
11.992
12.0622
12.1296
12.1947
12.2579
12.3196
12.3802
12.4398
12.4989
12.5575
12.616
12.6745
12.7333
12.7926
12.8528
12.914
12.9767
13.0412
13.108
13.1776
13.2508
13.3285
13.4116
13.5016
13.5999
13.7085
13.8294
13.9646
14.1152
14.2804
14.4552
14.6284
14.7768
14.8366
14.7169
10.0453
9.99196
10.1451
10.3727
10.6016
10.8128
11.001
11.1662
11.3108
11.4382
11.5515
11.6534
11.7463
11.832
11.9118
11.9868
12.0581
12.1263
12.192
12.2557
12.3179
12.3787
12.4387
12.4979
12.5568
12.6154
12.6741
12.7331
12.7927
12.8531
12.9146
12.9776
13.0425
13.1099
13.1804
13.2547
13.334
13.4194
13.5128
13.6164
13.7329
13.8659
14.0197
14.1987
14.4063
14.6427
14.9009
15.1575
15.3312
15.2831
9.20471
9.35051
9.70509
10.0876
10.4244
10.7055
10.9372
11.1286
11.2889
11.4255
11.5442
11.6493
11.744
11.8306
11.911
11.9864
12.0579
12.1262
12.1919
12.2557
12.3178
12.3786
12.4385
12.4977
12.5565
12.6151
12.6738
12.7327
12.7922
12.8526
12.914
12.977
13.042
13.1094
13.18
13.2547
13.3345
13.4209
13.516
13.6225
13.7443
13.8865
14.0561
14.2621
14.5151
14.8257
15.1999
15.6234
16.0129
16.1821
7.76036
8.49617
9.2147
9.81759
10.2898
10.6463
10.9165
11.1264
11.2948
11.4343
11.5533
11.6577
11.7513
11.8369
11.9162
11.9907
12.0614
12.1291
12.1943
12.2575
12.3192
12.3797
12.4393
12.4982
12.5567
12.615
12.6734
12.7321
12.7913
12.8513
12.9124
12.975
13.0395
13.1065
13.1765
13.2505
13.3296
13.4153
13.5099
13.6163
13.7392
13.8851
14.0639
14.2898
14.5836
14.9739
15.4917
16.1494
16.9231
17.7162
4.88969
7.46681
8.85808
9.71721
10.3031
10.7015
10.9788
11.1829
11.342
11.4723
11.5835
11.6816
11.7703
11.852
11.9283
12.0005
12.0694
12.1355
12.1995
12.2617
12.3225
12.3822
12.4411
12.4994
12.5573
12.6151
12.6729
12.731
12.7896
12.8489
12.9093
12.971
13.0345
13.1002
13.1687
13.2408
13.3175
13.4001
13.4907
13.5921
13.7087
13.8474
14.0191
14.2418
14.546
14.9826
15.6229
16.5541
18.0315
20.72
2.97629e-05
6.3616
8.99194
10.0528
10.6192
10.9552
11.1694
11.3224
11.4438
11.5472
11.6395
11.7241
11.8031
11.8777
11.9488
12.0169
12.0826
12.1462
12.2081
12.2686
12.328
12.3865
12.4442
12.5015
12.5584
12.6152
12.6721
12.7292
12.7867
12.8449
12.9039
12.9641
13.0258
13.0893
13.1551
13.2237
13.2958
13.3723
13.4545
13.5441
13.6439
13.7586
13.8963
14.0721
14.3173
14.6957
15.3248
16.4796
19.2253
25.7064
)
;

boundaryField
{
    movingWallTop
    {
        type            zeroGradient;
    }
    movingWallBottom
    {
        type            zeroGradient;
    }
    fixedWalls
    {
        type            zeroGradient;
    }
    frontAndBack
    {
        type            empty;
    }
}


// ************************************************************************* //
