/*--------------------------------*- C++ -*----------------------------------*\
  =========                 |
  \\      /  F ield         | OpenFOAM: The Open Source CFD Toolbox
   \\    /   O peration     | Website:  https://openfoam.org
    \\  /    A nd           | Version:  7
     \\/     M anipulation  |
\*---------------------------------------------------------------------------*/
FoamFile
{
    version     2.0;
    format      ascii;
    class       volVectorField;
    location    "0.0372";
    object      U;
}
// * * * * * * * * * * * * * * * * * * * * * * * * * * * * * * * * * * * * * //

dimensions      [0 1 -1 0 0 0 0];

internalField   nonuniform List<vector> 
2500
(
(2.67211e-05 -2.6538e-05 0)
(7.82312e-05 -3.07725e-05 0)
(0.000101825 -1.35807e-05 0)
(6.48502e-05 1.02452e-05 0)
(-4.21109e-05 3.40823e-05 0)
(-0.000216566 5.58253e-05 0)
(-0.000451306 7.44264e-05 0)
(-0.000737858 8.96659e-05 0)
(-0.00106689 0.000101628 0)
(-0.00142894 0.000110489 0)
(-0.00181481 0.00011646 0)
(-0.0022157 0.000119756 0)
(-0.00262332 0.000120594 0)
(-0.00302993 0.000119186 0)
(-0.00342839 0.000115735 0)
(-0.00381215 0.000110438 0)
(-0.00417526 0.000103484 0)
(-0.00451237 9.50525e-05 0)
(-0.0048187 8.53175e-05 0)
(-0.00509005 7.4446e-05 0)
(-0.00532277 6.26002e-05 0)
(-0.00551378 4.99389e-05 0)
(-0.00566054 3.66189e-05 0)
(-0.00576107 2.27975e-05 0)
(-0.00581394 8.63371e-06 0)
(-0.00581829 -5.70967e-06 0)
(-0.00577382 -2.00647e-05 0)
(-0.00568086 -3.42569e-05 0)
(-0.00554033 -4.81041e-05 0)
(-0.00535381 -6.14158e-05 0)
(-0.00512352 -7.39934e-05 0)
(-0.00485238 -8.56304e-05 0)
(-0.00454401 -9.6113e-05 0)
(-0.00420274 -0.000105222 0)
(-0.00383364 -0.000112736 0)
(-0.00344247 -0.000118429 0)
(-0.00303572 -0.00012208 0)
(-0.00262054 -0.00012347 0)
(-0.00220473 -0.000122388 0)
(-0.00179666 -0.000118634 0)
(-0.00140521 -0.000112019 0)
(-0.00103964 -0.000102375 0)
(-0.000709452 -8.95597e-05 0)
(-0.000424168 -7.34832e-05 0)
(-0.000192944 -5.41691e-05 0)
(-2.38941e-05 -3.19404e-05 0)
(7.67409e-05 -7.82744e-06 0)
(0.000107725 1.57818e-05 0)
(7.95607e-05 3.19014e-05 0)
(2.64941e-05 2.6438e-05 0)
(3.12831e-05 -7.81655e-05 0)
(6.42935e-05 -6.31222e-05 0)
(4.73186e-06 3.11248e-05 0)
(-0.000196495 0.000154727 0)
(-0.000557731 0.000282918 0)
(-0.00107738 0.000403716 0)
(-0.00174324 0.000510699 0)
(-0.00253735 0.00060102 0)
(-0.00343855 0.000673667 0)
(-0.00442429 0.00072858 0)
(-0.00547172 0.000766231 0)
(-0.0065584 0.000787403 0)
(-0.00766276 0.000793057 0)
(-0.0087644 0.000784259 0)
(-0.00984421 0.000762128 0)
(-0.0108846 0.000727807 0)
(-0.0118693 0.000682441 0)
(-0.0127837 0.000627167 0)
(-0.0136149 0.000563109 0)
(-0.0143512 0.000491373 0)
(-0.0149825 0.000413052 0)
(-0.0155006 0.00032923 0)
(-0.0158982 0.000240988 0)
(-0.0161702 0.000149412 0)
(-0.0163125 5.56037e-05 0)
(-0.016323 -3.9313e-05 0)
(-0.0162008 -0.000134185 0)
(-0.015947 -0.000227821 0)
(-0.0155643 -0.000318991 0)
(-0.0150571 -0.000406422 0)
(-0.0144317 -0.000488799 0)
(-0.013696 -0.000564771 0)
(-0.0128601 -0.000632962 0)
(-0.0119359 -0.000691977 0)
(-0.0109371 -0.000740422 0)
(-0.00987927 -0.000776926 0)
(-0.00877986 -0.000800161 0)
(-0.00765796 -0.000808871 0)
(-0.00653417 -0.000801911 0)
(-0.0054304 -0.000778282 0)
(-0.00436958 -0.00073719 0)
(-0.00337518 -0.000678125 0)
(-0.00247072 -0.00060098 0)
(-0.00167891 -0.000506272 0)
(-0.00102048 -0.00039554 0)
(-0.000512316 -0.000272169 0)
(-0.000164812 -0.00014296 0)
(2.24586e-05 -2.06126e-05 0)
(7.0648e-05 6.97558e-05 0)
(3.21776e-05 7.9538e-05 0)
(1.50769e-05 -0.000103314 0)
(-2.68309e-05 -4.74847e-06 0)
(-0.000238279 0.000243597 0)
(-0.00065858 0.000553909 0)
(-0.00130485 0.000877827 0)
(-0.00217518 0.00118688 0)
(-0.00325396 0.00146458 0)
(-0.00451704 0.00170205 0)
(-0.00593521 0.00189504 0)
(-0.00747648 0.00204209 0)
(-0.00910782 0.00214346 0)
(-0.0107962 0.00220053 0)
(-0.0125096 0.00221539 0)
(-0.0142173 0.00219056 0)
(-0.0158902 0.00212886 0)
(-0.0175015 0.00203324 0)
(-0.0190264 0.00190676 0)
(-0.0204423 0.0017525 0)
(-0.021729 0.00157356 0)
(-0.0228687 0.00137301 0)
(-0.0238458 0.00115393 0)
(-0.0246472 0.00091937 0)
(-0.0252622 0.000672399 0)
(-0.0256823 0.000416109 0)
(-0.0259015 0.000153631 0)
(-0.0259165 -0.000111843 0)
(-0.0257262 -0.000377041 0)
(-0.0253323 -0.0006386 0)
(-0.024739 -0.000893053 0)
(-0.0239533 -0.00113683 0)
(-0.0229849 -0.00136628 0)
(-0.0218464 -0.00157765 0)
(-0.0205533 -0.00176714 0)
(-0.0191238 -0.00193094 0)
(-0.0175792 -0.00206529 0)
(-0.0159433 -0.00216649 0)
(-0.0142427 -0.00223104 0)
(-0.0125063 -0.00225571 0)
(-0.0107652 -0.00223761 0)
(-0.00905229 -0.00217441 0)
(-0.00740152 -0.00206445 0)
(-0.00584737 -0.00190705 0)
(-0.00442381 -0.00170286 0)
(-0.00316308 -0.00145446 0)
(-0.00209384 -0.00116738 0)
(-0.00123883 -0.000851784 0)
(-0.000611401 -0.000525373 0)
(-0.000210697 -0.000217692 0)
(-1.58945e-05 2.27297e-05 0)
(1.70339e-05 0.000109185 0)
(-7.50803e-06 -7.00468e-05 0)
(-0.000147105 0.000192652 0)
(-0.000544588 0.000662687 0)
(-0.00121513 0.00122264 0)
(-0.00216666 0.00180212 0)
(-0.00339365 0.00235602 0)
(-0.00487622 0.00285626 0)
(-0.00658481 0.00328637 0)
(-0.00848379 0.00363749 0)
(-0.0105339 0.00390577 0)
(-0.0126942 0.00409067 0)
(-0.0149234 0.00419393 0)
(-0.0171809 0.00421876 0)
(-0.0194276 0.00416941 0)
(-0.0216265 0.00405076 0)
(-0.0237428 0.00386813 0)
(-0.0257446 0.0036271 0)
(-0.0276026 0.00333337 0)
(-0.0292906 0.00299273 0)
(-0.0307852 0.00261098 0)
(-0.0320664 0.00219395 0)
(-0.0331168 0.00174747 0)
(-0.0339225 0.00127739 0)
(-0.0344726 0.000789644 0)
(-0.0347593 0.000290216 0)
(-0.0347782 -0.000214776 0)
(-0.034528 -0.000719078 0)
(-0.034011 -0.00121627 0)
(-0.0332328 -0.00169976 0)
(-0.0322025 -0.00216277 0)
(-0.0309329 -0.00259838 0)
(-0.0294405 -0.00299953 0)
(-0.0277453 -0.00335911 0)
(-0.0258712 -0.00367 0)
(-0.0238455 -0.0039252 0)
(-0.0216992 -0.00411794 0)
(-0.0194664 -0.00424183 0)
(-0.0171842 -0.00429108 0)
(-0.0148922 -0.00426068 0)
(-0.0126323 -0.00414672 0)
(-0.0104472 -0.00394674 0)
(-0.00838006 -0.00366023 0)
(-0.00647315 -0.00328934 0)
(-0.00476607 -0.00283987 0)
(-0.00329391 -0.00232286 0)
(-0.00208465 -0.00175702 0)
(-0.00115564 -0.00117252 0)
(-0.000509086 -0.000616126 0)
(-0.000132608 -0.000158912 0)
(-4.80503e-06 8.26599e-05 0)
(-3.03722e-05 3.11783e-05 0)
(-0.000274568 0.000549775 0)
(-0.000873025 0.00131025 0)
(-0.00180915 0.0021761 0)
(-0.00307683 0.0030596 0)
(-0.00466394 0.00390113 0)
(-0.0065447 0.0046615 0)
(-0.0086837 0.00531634 0)
(-0.0110394 0.00585161 0)
(-0.0135663 0.0062605 0)
(-0.0162169 0.00654125 0)
(-0.0189429 0.00669567 0)
(-0.021697 0.00672806 0)
(-0.024433 0.00664446 0)
(-0.0271072 0.00645211 0)
(-0.0296784 0.00615902 0)
(-0.0321087 0.00577372 0)
(-0.034363 0.00530508 0)
(-0.0364102 0.00476212 0)
(-0.0382222 0.00415397 0)
(-0.0397749 0.00348985 0)
(-0.0410477 0.002779 0)
(-0.0420237 0.00203075 0)
(-0.04269 0.00125451 0)
(-0.0430373 0.000459847 0)
(-0.0430601 -0.000343504 0)
(-0.0427571 -0.00114559 0)
(-0.0421311 -0.0019362 0)
(-0.0411887 -0.00270488 0)
(-0.039941 -0.00344092 0)
(-0.0384034 -0.00413337 0)
(-0.0365954 -0.00477113 0)
(-0.0345412 -0.00534305 0)
(-0.0322692 -0.005838 0)
(-0.029812 -0.0062451 0)
(-0.0272063 -0.00655389 0)
(-0.0244927 -0.00675462 0)
(-0.0217151 -0.0068385 0)
(-0.0189203 -0.00679813 0)
(-0.0161573 -0.00662794 0)
(-0.0134763 -0.00632476 0)
(-0.0109277 -0.00588857 0)
(-0.00856064 -0.00532354 0)
(-0.00642121 -0.00463938 0)
(-0.00455053 -0.00385333 0)
(-0.00298234 -0.00299311 0)
(-0.00173973 -0.00210102 0)
(-0.000831077 -0.00123921 0)
(-0.000257259 -0.000496863 0)
(-2.71268e-05 -1.00826e-05 0)
(-5.17629e-05 0.000199881 0)
(-0.000399877 0.00107114 0)
(-0.00120243 0.00219479 0)
(-0.002409 0.00342349 0)
(-0.00399682 0.00465706 0)
(-0.00594484 0.00582429 0)
(-0.0082197 0.00687631 0)
(-0.0107793 0.00778141 0)
(-0.013576 0.00852045 0)
(-0.0165583 0.00908354 0)
(-0.0196726 0.00946752 0)
(-0.022865 0.00967421 0)
(-0.0260818 0.00970896 0)
(-0.0292712 0.00957975 0)
(-0.0323838 0.00929632 0)
(-0.0353731 0.0088697 0)
(-0.0381957 0.00831176 0)
(-0.0408122 0.00763491 0)
(-0.0431867 0.0068519 0)
(-0.0452877 0.00597572 0)
(-0.0470875 0.00501946 0)
(-0.0485625 0.00399636 0)
(-0.0496937 0.00291976 0)
(-0.0504661 0.00180318 0)
(-0.0508691 0.000660326 0)
(-0.0508967 -0.000494839 0)
(-0.0505472 -0.00164804 0)
(-0.0498236 -0.00278468 0)
(-0.0487338 -0.00388979 0)
(-0.0472902 -0.00494808 0)
(-0.0455103 -0.00594396 0)
(-0.0434164 -0.00686166 0)
(-0.041036 -0.00768533 0)
(-0.0384013 -0.00839928 0)
(-0.0355493 -0.00898816 0)
(-0.0325218 -0.00943734 0)
(-0.0293645 -0.00973322 0)
(-0.0261271 -0.0098637 0)
(-0.0228627 -0.00981876 0)
(-0.0196264 -0.00959102 0)
(-0.016475 -0.00917663 0)
(-0.0134651 -0.0085762 0)
(-0.0106522 -0.00779612 0)
(-0.00808874 -0.00685023 0)
(-0.00582216 -0.00576206 0)
(-0.00389297 -0.00456789 0)
(-0.00233162 -0.00332095 0)
(-0.00115509 -0.00209615 0)
(-0.000380094 -0.000996155 0)
(-4.79908e-05 -0.000168849 0)
(-7.12085e-05 0.000432484 0)
(-0.0005194 0.00175433 0)
(-0.00152324 0.00331633 0)
(-0.00299917 0.00496614 0)
(-0.00490681 0.00659539 0)
(-0.00721468 0.0081242 0)
(-0.00988051 0.00949593 0)
(-0.0128545 0.0106726 0)
(-0.0160824 0.0116305 0)
(-0.0195065 0.0123571 0)
(-0.0230675 0.0128478 0)
(-0.0267057 0.0131047 0)
(-0.0303625 0.0131342 0)
(-0.0339806 0.0129464 0)
(-0.0375058 0.0125538 0)
(-0.0408867 0.0119707 0)
(-0.0440759 0.0112126 0)
(-0.0470296 0.0102959 0)
(-0.0497086 0.00923748 0)
(-0.0520779 0.00805453 0)
(-0.0541069 0.00676454 0)
(-0.0557698 0.00538516 0)
(-0.0570453 0.00393426 0)
(-0.0579169 0.0024299 0)
(-0.0583729 0.000890444 0)
(-0.0584066 -0.000665406 0)
(-0.058016 -0.00221856 0)
(-0.0572045 -0.00374948 0)
(-0.0559805 -0.00523817 0)
(-0.0543578 -0.00666424 0)
(-0.0523554 -0.0080069 0)
(-0.0499982 -0.00924515 0)
(-0.0473159 -0.010358 0)
(-0.0443443 -0.0113245 0)
(-0.041124 -0.0121245 0)
(-0.0377009 -0.0127386 0)
(-0.0341254 -0.0131491 0)
(-0.0304524 -0.0133401 0)
(-0.0267401 -0.0132987 0)
(-0.0230493 -0.0130156 0)
(-0.0194427 -0.0124861 0)
(-0.0159831 -0.0117113 0)
(-0.0127322 -0.0106998 0)
(-0.00974892 -0.00946934 0)
(-0.00708772 -0.00804925 0)
(-0.00479692 -0.00648355 0)
(-0.00291583 -0.0048347 0)
(-0.00147147 -0.00318774 0)
(-0.000497442 -0.00165489 0)
(-6.69386e-05 -0.000390315 0)
(-8.88899e-05 0.000725172 0)
(-0.000632607 0.00259431 0)
(-0.00183266 0.00467102 0)
(-0.00357426 0.00680158 0)
(-0.00579942 0.00887269 0)
(-0.0084654 0.0107984 0)
(-0.01152 0.0125164 0)
(-0.014905 0.0139836 0)
(-0.0185587 0.0151727 0)
(-0.0224169 0.016069 0)
(-0.0264145 0.0166672 0)
(-0.0304863 0.0169696 0)
(-0.0345685 0.0169842 0)
(-0.0385994 0.0167234 0)
(-0.0425199 0.0162027 0)
(-0.0462749 0.0154401 0)
(-0.049813 0.014455 0)
(-0.0530871 0.0132679 0)
(-0.0560546 0.0119004 0)
(-0.0586778 0.0103742 0)
(-0.0609239 0.00871152 0)
(-0.0627647 0.00693487 0)
(-0.0641774 0.00506699 0)
(-0.0651441 0.00313092 0)
(-0.065652 0.00115007 0)
(-0.0656938 -0.000851726 0)
(-0.0652672 -0.00285012 0)
(-0.0643756 -0.00482023 0)
(-0.0630281 -0.00673659 0)
(-0.0612393 -0.00857323 0)
(-0.0590296 -0.0103037 0)
(-0.0564255 -0.0119014 0)
(-0.0534591 -0.0133394 0)
(-0.0501688 -0.0145915 0)
(-0.0465984 -0.0156319 0)
(-0.0427973 -0.0164363 0)
(-0.0388201 -0.0169821 0)
(-0.0347262 -0.0172495 0)
(-0.0305786 -0.0172223 0)
(-0.0264436 -0.0168888 0)
(-0.0223895 -0.0162433 0)
(-0.0184851 -0.0152871 0)
(-0.0147988 -0.0140306 0)
(-0.0113965 -0.0124949 0)
(-0.00834041 -0.0107145 0)
(-0.00568763 -0.00873986 0)
(-0.00348735 -0.00664111 0)
(-0.00177758 -0.00451104 0)
(-0.000608795 -0.00246853 0)
(-8.41432e-05 -0.000670736 0)
(-0.000105193 0.00107446 0)
(-0.000740376 0.00358564 0)
(-0.00213152 0.00625397 0)
(-0.00413472 0.0089263 0)
(-0.0066749 0.0114867 0)
(-0.00969769 0.0138453 0)
(-0.0131404 0.0159357 0)
(-0.0169354 0.0177114 0)
(-0.021013 0.0191427 0)
(-0.0253023 0.0202132 0)
(-0.0297319 0.0209176 0)
(-0.034231 0.0212591 0)
(-0.0387309 0.0212476 0)
(-0.0431653 0.0208981 0)
(-0.0474711 0.0202297 0)
(-0.0515894 0.019264 0)
(-0.0554653 0.018025 0)
(-0.0590488 0.0165378 0)
(-0.0622947 0.0148285 0)
(-0.0651628 0.012924 0)
(-0.0676181 0.0108516 0)
(-0.0696309 0.00863887 0)
(-0.0711768 0.00631375 0)
(-0.0722366 0.00390459 0)
(-0.0727967 0.00144016 0)
(-0.0728491 -0.00105024 0)
(-0.0723912 -0.00353667 0)
(-0.0714265 -0.00598855 0)
(-0.069964 -0.00837459 0)
(-0.0680192 -0.0106629 0)
(-0.0656135 -0.0128209 0)
(-0.0627746 -0.0148158 0)
(-0.0595366 -0.0166149 0)
(-0.0559398 -0.0181855 0)
(-0.052031 -0.0194963 0)
(-0.0478627 -0.0205172 0)
(-0.0434932 -0.0212205 0)
(-0.0389858 -0.021582 0)
(-0.0344086 -0.0215817 0)
(-0.0298328 -0.0212052 0)
(-0.0253326 -0.020445 0)
(-0.0209832 -0.0193023 0)
(-0.0168599 -0.0177887 0)
(-0.0130362 -0.0159279 0)
(-0.00958282 -0.0137586 0)
(-0.00656663 -0.0113367 0)
(-0.00404744 -0.00873835 0)
(-0.00207464 -0.00606233 0)
(-0.000715146 -0.00343227 0)
(-0.000100001 -0.00100679 0)
(-0.000120529 0.00147764 0)
(-0.000844154 0.00472374 0)
(-0.00242246 0.00806092 0)
(-0.00468427 0.0113373 0)
(-0.00753804 0.0144359 0)
(-0.0109177 0.0172645 0)
(-0.0147494 0.0197541 0)
(-0.0189559 0.0218563 0)
(-0.0234589 0.0235399 0)
(-0.0281799 0.0247881 0)
(-0.0330412 0.0255962 0)
(-0.0379662 0.0259689 0)
(-0.0428811 0.0259187 0)
(-0.0477152 0.0254639 0)
(-0.0524015 0.0246271 0)
(-0.0568775 0.0234345 0)
(-0.0610853 0.0219146 0)
(-0.0649722 0.0200975 0)
(-0.0684907 0.0180146 0)
(-0.0715986 0.0156978 0)
(-0.0742591 0.0131798 0)
(-0.0764409 0.0104937 0)
(-0.0781183 0.00767277 0)
(-0.0792712 0.00475095 0)
(-0.0798851 0.00176263 0)
(-0.0799512 -0.00125719 0)
(-0.0794667 -0.00427273 0)
(-0.0784347 -0.00724743 0)
(-0.0768645 -0.0101439 0)
(-0.0747718 -0.0129238 0)
(-0.0721786 -0.0155485 0)
(-0.0691136 -0.0179784 0)
(-0.0656124 -0.0201743 0)
(-0.0617171 -0.0220973 0)
(-0.0574767 -0.0237093 0)
(-0.0529466 -0.0249744 0)
(-0.0481885 -0.0258592 0)
(-0.0432698 -0.0263344 0)
(-0.0382629 -0.0263756 0)
(-0.0332446 -0.0259651 0)
(-0.0282948 -0.0250932 0)
(-0.0234956 -0.0237601 0)
(-0.0189297 -0.0219778 0)
(-0.0146789 -0.0197721 0)
(-0.0108235 -0.0171845 0)
(-0.0074404 -0.0142754 0)
(-0.00460086 -0.0111257 0)
(-0.00236584 -0.00783893 0)
(-0.000818141 -0.00454244 0)
(-0.000114953 -0.00139601 0)
(-0.00013528 0.0019329 0)
(-0.000945574 0.00600558 0)
(-0.00270894 0.0100892 0)
(-0.00522829 0.0140333 0)
(-0.00839612 0.0177203 0)
(-0.0121346 0.0210573 0)
(-0.0163586 0.023974 0)
(-0.0209804 0.026421 0)
(-0.0259128 0.0283669 0)
(-0.0310695 0.0297957 0)
(-0.0363656 0.0307041 0)
(-0.0417188 0.0310993 0)
(-0.04705 0.0309968 0)
(-0.052284 0.0304187 0)
(-0.05735 0.0293921 0)
(-0.0621821 0.027948 0)
(-0.0667198 0.02612 0)
(-0.0709079 0.0239434 0)
(-0.0746967 0.021455 0)
(-0.0780423 0.0186925 0)
(-0.0809064 0.015694 0)
(-0.0832566 0.0124982 0)
(-0.0850659 0.00914417 0)
(-0.0863132 0.00567145 0)
(-0.0869834 0.00212023 0)
(-0.087067 -0.00146855 0)
(-0.0865606 -0.00505312 0)
(-0.085467 -0.00859071 0)
(-0.0837953 -0.0120375 0)
(-0.0815613 -0.0153489 0)
(-0.0787873 -0.0184791 0)
(-0.0755026 -0.0213821 0)
(-0.0717439 -0.0240115 0)
(-0.0675548 -0.0263214 0)
(-0.0629861 -0.028267 0)
(-0.0580959 -0.0298056 0)
(-0.0529489 -0.0308976 0)
(-0.0476165 -0.031508 0)
(-0.0421757 -0.0316072 0)
(-0.0367088 -0.0311735 0)
(-0.0313019 -0.0301942 0)
(-0.0260442 -0.0286677 0)
(-0.0210265 -0.0266055 0)
(-0.0163399 -0.0240342 0)
(-0.0120744 -0.0209978 0)
(-0.00831826 -0.0175596 0)
(-0.0051543 -0.0138046 0)
(-0.00265535 -0.00984023 0)
(-0.000919668 -0.00579721 0)
(-0.000129421 -0.00183697 0)
(-0.000149791 0.00243939 0)
(-0.00104627 0.00742993 0)
(-0.00299473 0.0123383 0)
(-0.00577289 0.017015 0)
(-0.00925763 0.0213425 0)
(-0.0133592 0.0252276 0)
(-0.0179811 0.0286001 0)
(-0.0230247 0.0314107 0)
(-0.0283932 0.0336292 0)
(-0.033992 0.0352411 0)
(-0.0397289 0.0362457 0)
(-0.0455155 0.0366536 0)
(-0.0512671 0.0364841 0)
(-0.0569041 0.035764 0)
(-0.0623519 0.0345254 0)
(-0.0675415 0.0328045 0)
(-0.0724097 0.0306405 0)
(-0.076899 0.0280745 0)
(-0.0809582 0.0251491 0)
(-0.0845417 0.0219077 0)
(-0.08761 0.0183943 0)
(-0.0901294 0.0146533 0)
(-0.0920724 0.0107296 0)
(-0.0934168 0.00666861 0)
(-0.0941466 0.00251647 0)
(-0.0942519 -0.00167994 0)
(-0.0937286 -0.00587268 0)
(-0.0925789 -0.0100127 0)
(-0.0908116 -0.0140496 0)
(-0.0884421 -0.0179319 0)
(-0.085493 -0.0216071 0)
(-0.0819937 -0.0250218 0)
(-0.0779815 -0.0281223 0)
(-0.0735011 -0.0308552 0)
(-0.0686051 -0.0331684 0)
(-0.0633537 -0.0350118 0)
(-0.0578148 -0.0363388 0)
(-0.0520634 -0.0371078 0)
(-0.0461813 -0.0372836 0)
(-0.0402563 -0.0368392 0)
(-0.0343813 -0.035758 0)
(-0.0286531 -0.0340357 0)
(-0.0231712 -0.0316823 0)
(-0.0180365 -0.0287243 0)
(-0.0133497 -0.0252069 0)
(-0.00921101 -0.0211959 0)
(-0.00571538 -0.0167793 0)
(-0.00294773 -0.0120683 0)
(-0.00102167 -0.00719691 0)
(-0.000143799 -0.00232931 0)
(-0.000164362 0.0029971 0)
(-0.00114782 0.00899742 0)
(-0.00328358 0.0148101 0)
(-0.00632437 0.0202857 0)
(-0.0101315 0.0253072 0)
(-0.0146032 0.0297816 0)
(-0.0196309 0.0336395 0)
(-0.0251049 0.0368332 0)
(-0.0309185 0.0393344 0)
(-0.0369681 0.0411317 0)
(-0.0431541 0.0422278 0)
(-0.0493812 0.0426377 0)
(-0.0555594 0.0423856 0)
(-0.0616046 0.0415037 0)
(-0.0674382 0.0400298 0)
(-0.0729884 0.038006 0)
(-0.0781893 0.0354777 0)
(-0.0829817 0.032492 0)
(-0.0873127 0.0290978 0)
(-0.0911354 0.0253445 0)
(-0.0944095 0.021282 0)
(-0.0971004 0.0169608 0)
(-0.0991795 0.0124316 0)
(-0.100624 0.00774583 0)
(-0.101418 0.00295546 0)
(-0.10155 -0.00188655 0)
(-0.101015 -0.00672608 0)
(-0.0998146 -0.0115076 0)
(-0.0979576 -0.0161743 0)
(-0.0954586 -0.0206675 0)
(-0.0923396 -0.0249276 0)
(-0.0886302 -0.0288936 0)
(-0.0843677 -0.0325042 0)
(-0.0795978 -0.0356979 0)
(-0.0743742 -0.0384145 0)
(-0.0687592 -0.0405961 0)
(-0.0628235 -0.0421882 0)
(-0.0566458 -0.0431417 0)
(-0.0503126 -0.0434146 0)
(-0.0439177 -0.0429738 0)
(-0.0375608 -0.0417977 0)
(-0.0313471 -0.039878 0)
(-0.0253854 -0.0372223 0)
(-0.019787 -0.0338558 0)
(-0.0146644 -0.0298241 0)
(-0.0101301 -0.0251944 0)
(-0.00629207 -0.0200576 0)
(-0.00324765 -0.0145282 0)
(-0.00112603 -0.00874418 0)
(-0.00015844 -0.00287371 0)
(-0.000179259 0.00360682 0)
(-0.00125166 0.0107105 0)
(-0.00357909 0.0175087 0)
(-0.00688887 0.0238514 0)
(-0.0110264 0.0296218 0)
(-0.0158777 0.034728 0)
(-0.0213217 0.0391019 0)
(-0.0272371 0.0426985 0)
(-0.0335067 0.0454926 0)
(-0.0400177 0.0474768 0)
(-0.0466623 0.0486589 0)
(-0.0533386 0.0490591 0)
(-0.059951 0.0487077 0)
(-0.0664104 0.047643 0)
(-0.0726348 0.0459094 0)
(-0.0785493 0.0435558 0)
(-0.084086 0.040634 0)
(-0.0891837 0.037198 0)
(-0.0937884 0.033303 0)
(-0.0978524 0.0290047 0)
(-0.101334 0.0243594 0)
(-0.104199 0.0194234 0)
(-0.106417 0.0142536 0)
(-0.107966 0.00890709 0)
(-0.108828 0.00344187 0)
(-0.108991 -0.00208311 0)
(-0.108451 -0.00760757 0)
(-0.107207 -0.0130696 0)
(-0.105266 -0.0184056 0)
(-0.102644 -0.02355 0)
(-0.0993609 -0.0284356 0)
(-0.0954462 -0.0329937 0)
(-0.0909371 -0.0371547 0)
(-0.0858793 -0.0408489 0)
(-0.0803277 -0.0440071 0)
(-0.0743463 -0.0465627 0)
(-0.0680082 -0.0484525 0)
(-0.0613958 -0.0496189 0)
(-0.0546006 -0.0500119 0)
(-0.0477221 -0.0495912 0)
(-0.0408676 -0.0483289 0)
(-0.0341509 -0.0462114 0)
(-0.0276909 -0.0432426 0)
(-0.0216101 -0.0394455 0)
(-0.0160336 -0.0348649 0)
(-0.0110871 -0.0295689 0)
(-0.00689233 -0.0236506 0)
(-0.00355971 -0.0172281 0)
(-0.00123459 -0.010444 0)
(-0.00017367 -0.00347181 0)
(-0.000194719 0.00427008 0)
(-0.00135913 0.0125733 0)
(-0.00388461 0.0204406 0)
(-0.00747219 0.0277206 0)
(-0.0119508 0.0342966 0)
(-0.0171936 0.040078 0)
(-0.0230666 0.0449991 0)
(-0.0294364 0.0490184 0)
(-0.0361746 0.0521152 0)
(-0.0431587 0.0542874 0)
(-0.0502727 0.0555489 0)
(-0.0574074 0.0559264 0)
(-0.0644616 0.0554575 0)
(-0.0713415 0.0541877 0)
(-0.0779616 0.0521689 0)
(-0.0842441 0.0494573 0)
(-0.0901191 0.0461122 0)
(-0.0955241 0.0421947 0)
(-0.100404 0.0377666 0)
(-0.104711 0.0328904 0)
(-0.108402 0.0276287 0)
(-0.111443 0.022044 0)
(-0.113804 0.016199 0)
(-0.11546 0.0101566 0)
(-0.116395 0.00398073 0)
(-0.116596 -0.00226387 0)
(-0.116056 -0.00851081 0)
(-0.114774 -0.0146919 0)
(-0.112758 -0.0207368 0)
(-0.11002 -0.0265729 0)
(-0.10658 -0.0321254 0)
(-0.102466 -0.0373176 0)
(-0.0977145 -0.0420711 0)
(-0.0923717 -0.0463073 0)
(-0.0864926 -0.0499477 0)
(-0.0801426 -0.0529158 0)
(-0.0733969 -0.0551389 0)
(-0.0663417 -0.0565495 0)
(-0.0590728 -0.0570885 0)
(-0.0516963 -0.056707 0)
(-0.044327 -0.0553692 0)
(-0.0370879 -0.0530551 0)
(-0.0301086 -0.0497632 0)
(-0.0235239 -0.0455133 0)
(-0.0174721 -0.0403483 0)
(-0.0120933 -0.0343364 0)
(-0.00752394 -0.0275728 0)
(-0.00388834 -0.0201793 0)
(-0.00134908 -0.0123034 0)
(-0.000189789 -0.00412621 0)
(-0.00021095 0.0049891 0)
(-0.00147144 0.0145917 0)
(-0.00420325 0.0236146 0)
(-0.00807974 0.0319042 0)
(-0.0129124 0.039344 0)
(-0.018561 0.045845 0)
(-0.0248778 0.0513449 0)
(-0.0317164 0.0558065 0)
(-0.0389369 0.059215 0)
(-0.0464067 0.0615751 0)
(-0.0540009 0.0629079 0)
(-0.0616033 0.0632482 0)
(-0.0691066 0.0626419 0)
(-0.0764125 0.0611431 0)
(-0.083432 0.0588121 0)
(-0.0900848 0.0557134 0)
(-0.0962994 0.0519142 0)
(-0.102012 0.0474832 0)
(-0.107168 0.0424897 0)
(-0.111717 0.0370029 0)
(-0.115619 0.0310917 0)
(-0.118837 0.024825 0)
(-0.121342 0.018271 0)
(-0.12311 0.0114987 0)
(-0.124123 0.00457733 0)
(-0.124367 -0.00242255 0)
(-0.123834 -0.00942873 0)
(-0.122524 -0.0163668 0)
(-0.12044 -0.02316 0)
(-0.117595 -0.0297285 0)
(-0.114006 -0.0359898 0)
(-0.109701 -0.041859 0)
(-0.104714 -0.0472488 0)
(-0.0990916 -0.0520707 0)
(-0.0928876 -0.0562364 0)
(-0.0861685 -0.0596586 0)
(-0.0790118 -0.0622536 0)
(-0.0715064 -0.0639432 0)
(-0.0637531 -0.0646575 0)
(-0.055864 -0.0643374 0)
(-0.047962 -0.0629376 0)
(-0.0401798 -0.0604301 0)
(-0.0326584 -0.0568068 0)
(-0.0255457 -0.0520823 0)
(-0.0189942 -0.0462968 0)
(-0.0131597 -0.0395179 0)
(-0.00819434 -0.0318423 0)
(-0.00423778 -0.0233957 0)
(-0.00147113 -0.0143319 0)
(-0.000207074 -0.00484038 0)
(-0.00022814 0.00576665 0)
(-0.0015897 0.0167729 0)
(-0.00453787 0.0270412 0)
(-0.00871646 0.0364153 0)
(-0.0139184 0.0447787 0)
(-0.0199889 0.0520446 0)
(-0.0267658 0.0581547 0)
(-0.034089 0.0630776 0)
(-0.0418063 0.0668057 0)
(-0.0497743 0.0693516 0)
(-0.0578593 0.0707457 0)
(-0.0659375 0.0710323 0)
(-0.0738957 0.0702668 0)
(-0.0816312 0.0685132 0)
(-0.0890518 0.0658413 0)
(-0.096075 0.0623249 0)
(-0.102628 0.0580399 0)
(-0.108647 0.0530632 0)
(-0.114076 0.0474717 0)
(-0.118866 0.0413417 0)
(-0.122977 0.0347487 0)
(-0.126372 0.0277675 0)
(-0.129023 0.0204723 0)
(-0.130905 0.0129372 0)
(-0.132 0.00523699 0)
(-0.132293 -0.00255245 0)
(-0.131776 -0.0103534 0)
(-0.130445 -0.0180855 0)
(-0.128305 -0.0256655 0)
(-0.125364 -0.0330069 0)
(-0.121638 -0.0400194 0)
(-0.117152 -0.0466095 0)
(-0.11194 -0.0526806 0)
(-0.106045 -0.0581342 0)
(-0.0995215 -0.0628709 0)
(-0.092436 -0.0667918 0)
(-0.0848672 -0.0698012 0)
(-0.0769068 -0.0718084 0)
(-0.0686599 -0.0727312 0)
(-0.0602448 -0.0724984 0)
(-0.0517925 -0.0710537 0)
(-0.043446 -0.068359 0)
(-0.0353584 -0.0643977 0)
(-0.0276914 -0.0591779 0)
(-0.0206132 -0.0527358 0)
(-0.0142964 -0.0451373 0)
(-0.00891066 -0.0364803 0)
(-0.00461209 -0.0268946 0)
(-0.0016023 -0.0165408 0)
(-0.000225789 -0.00561861 0)
(-0.000246462 0.00660611 0)
(-0.00171492 0.0191254 0)
(-0.00489105 0.030733 0)
(-0.00938685 0.0412691 0)
(-0.0149752 0.0506175 0)
(-0.0214855 0.0586939 0)
(-0.0287401 0.0654452 0)
(-0.0365642 0.0708471 0)
(-0.0447926 0.0749005 0)
(-0.0532709 0.0776283 0)
(-0.0618558 0.0790712 0)
(-0.070416 0.0792848 0)
(-0.0788325 0.0783358 0)
(-0.0869983 0.0762993 0)
(-0.0948184 0.073256 0)
(-0.102209 0.0692898 0)
(-0.109096 0.0644863 0)
(-0.115415 0.0589311 0)
(-0.121112 0.0527091 0)
(-0.126138 0.045904 0)
(-0.130454 0.0385978 0)
(-0.134024 0.0308712 0)
(-0.136819 0.0228039 0)
(-0.138817 0.0144753 0)
(-0.139997 0.00596484 0)
(-0.140345 -0.00264645 0)
(-0.139852 -0.0112757 0)
(-0.138513 -0.0198373 0)
(-0.136328 -0.0282417 0)
(-0.133304 -0.0363957 0)
(-0.129455 -0.0442015 0)
(-0.124803 -0.0515569 0)
(-0.119379 -0.0583559 0)
(-0.113225 -0.064489 0)
(-0.106392 -0.0698452 0)
(-0.0989471 -0.0743129 0)
(-0.0909693 -0.077783 0)
(-0.0825524 -0.0801508 0)
(-0.0738057 -0.0813198 0)
(-0.0648533 -0.081205 0)
(-0.0558347 -0.0797367 0)
(-0.046903 -0.0768647 0)
(-0.0382245 -0.0725617 0)
(-0.0299756 -0.0668279 0)
(-0.0223416 -0.0596934 0)
(-0.0155133 -0.0512215 0)
(-0.00967963 -0.041511 0)
(-0.00501512 -0.0306956 0)
(-0.00174409 -0.0189434 0)
(-0.000246186 -0.00646601 0)
(-0.000266073 0.00751131 0)
(-0.00184804 0.0216592 0)
(-0.0052652 0.0347042 0)
(-0.010095 0.0464826 0)
(-0.0160885 0.0568785 0)
(-0.0230578 0.0658111 0)
(-0.0308085 0.0732336 0)
(-0.0391499 0.0791303 0)
(-0.0479032 0.0835126 0)
(-0.0569022 0.0864149 0)
(-0.0659938 0.0878909 0)
(-0.0750392 0.0880091 0)
(-0.0839137 0.0868493 0)
(-0.0925065 0.0844992 0)
(-0.10072 0.0810517 0)
(-0.108469 0.0766021 0)
(-0.11568 0.0712463 0)
(-0.12229 0.0650795 0)
(-0.128245 0.0581949 0)
(-0.133498 0.0506836 0)
(-0.138011 0.0426342 0)
(-0.141749 0.0341332 0)
(-0.144687 0.0252654 0)
(-0.146799 0.0161148 0)
(-0.148068 0.00676558 0)
(-0.148477 -0.00269713 0)
(-0.148017 -0.0121858 0)
(-0.14668 -0.0216099 0)
(-0.144465 -0.0308743 0)
(-0.141376 -0.0398793 0)
(-0.137422 -0.0485198 0)
(-0.132624 -0.0566851 0)
(-0.127007 -0.0642592 0)
(-0.12061 -0.0711215 0)
(-0.113484 -0.0771484 0)
(-0.105692 -0.0822146 0)
(-0.0973138 -0.086196 0)
(-0.0884443 -0.0889722 0)
(-0.0791959 -0.0904305 0)
(-0.0696986 -0.0904697 0)
(-0.0600999 -0.0890044 0)
(-0.0505639 -0.0859697 0)
(-0.0412701 -0.0813255 0)
(-0.0324112 -0.0750613 0)
(-0.0241905 -0.0671998 0)
(-0.0168194 -0.0578004 0)
(-0.0105076 -0.0469615 0)
(-0.00545056 -0.0348209 0)
(-0.00189795 -0.0215549 0)
(-0.000268509 -0.00738841 0)
(-0.000287127 0.00848659 0)
(-0.00198995 0.0243852 0)
(-0.00566254 0.0389704 0)
(-0.0108447 0.0520743 0)
(-0.0172633 0.0635814 0)
(-0.0247118 0.0734156 0)
(-0.032977 0.0815376 0)
(-0.0418517 0.0879421 0)
(-0.0511422 0.092653 0)
(-0.0606697 0.095719 0)
(-0.0702716 0.0972084 0)
(-0.0798012 0.0972048 0)
(-0.0891285 0.0958031 0)
(-0.0981392 0.0931057 0)
(-0.106734 0.0892188 0)
(-0.114828 0.0842503 0)
(-0.122348 0.0783075 0)
(-0.129232 0.0714957 0)
(-0.135429 0.0639169 0)
(-0.140894 0.0556697 0)
(-0.145591 0.0468492 0)
(-0.149489 0.0375473 0)
(-0.152561 0.0278536 0)
(-0.154786 0.0178562 0)
(-0.156144 0.00764308 0)
(-0.15662 -0.00269697 0)
(-0.156203 -0.0130726 0)
(-0.154882 -0.0233889 0)
(-0.152654 -0.033546 0)
(-0.14952 -0.0434383 0)
(-0.145485 -0.0529534 0)
(-0.140564 -0.0619724 0)
(-0.134779 -0.0703693 0)
(-0.128165 -0.0780119 0)
(-0.120768 -0.0847632 0)
(-0.112649 -0.0904832 0)
(-0.103885 -0.095031 0)
(-0.0945735 -0.098269 0)
(-0.0848276 -0.100066 0)
(-0.0747829 -0.100301 0)
(-0.0645946 -0.0988719 0)
(-0.0544377 -0.095695 0)
(-0.0445059 -0.0907149 0)
(-0.035009 -0.083908 0)
(-0.0261701 -0.0752871 0)
(-0.0182229 -0.0649058 0)
(-0.0114006 -0.0528614 0)
(-0.00592196 -0.0392953 0)
(-0.00206526 -0.0243924 0)
(-0.000293003 -0.00839242 0)
(-0.000309774 0.00953672 0)
(-0.0021415 0.0273155 0)
(-0.00608522 0.0435487 0)
(-0.0116395 0.058064 0)
(-0.0185043 0.0707469 0)
(-0.0264525 0.0815267 0)
(-0.0352507 0.0903739 0)
(-0.0446731 0.0972956 0)
(-0.0545104 0.102331 0)
(-0.064571 0.105545 0)
(-0.0746818 0.107023 0)
(-0.084689 0.106866 0)
(-0.0944575 0.105187 0)
(-0.10387 0.102105 0)
(-0.112827 0.0977406 0)
(-0.121244 0.092216 0)
(-0.12905 0.0856506 0)
(-0.136185 0.0781605 0)
(-0.142601 0.0698569 0)
(-0.148257 0.0608459 0)
(-0.15312 0.051229 0)
(-0.157162 0.0411032 0)
(-0.160359 0.0305622 0)
(-0.16269 0.0196975 0)
(-0.164136 0.00860006 0)
(-0.164684 -0.00263851 0)
(-0.164319 -0.0139239 0)
(-0.16303 -0.0251579 0)
(-0.16081 -0.0362364 0)
(-0.157655 -0.0470486 0)
(-0.153566 -0.0574759 0)
(-0.148553 -0.067391 0)
(-0.142633 -0.076658 0)
(-0.135834 -0.0851328 0)
(-0.128197 -0.0926645 0)
(-0.119779 -0.0990969 0)
(-0.110655 -0.104271 0)
(-0.10092 -0.10803 0)
(-0.0906886 -0.110221 0)
(-0.0801007 -0.110703 0)
(-0.0693189 -0.10935 0)
(-0.0585291 -0.106059 0)
(-0.0479395 -0.100755 0)
(-0.0377779 -0.0933977 0)
(-0.0282893 -0.0839881 0)
(-0.0197316 -0.0725715 0)
(-0.0123644 -0.0592424 0)
(-0.00643276 -0.0441455 0)
(-0.00224744 -0.0274746 0)
(-0.000319912 -0.00948535 0)
(-0.000334168 0.0106669 0)
(-0.00230358 0.0304631 0)
(-0.00653535 0.0484574 0)
(-0.0124826 0.0644725 0)
(-0.0198158 0.0783959 0)
(-0.0282843 0.090164 0)
(-0.0376326 0.0997585 0)
(-0.0476151 0.107202 0)
(-0.0580055 0.112551 0)
(-0.0685986 0.115891 0)
(-0.0792113 0.117327 0)
(-0.0896823 0.116981 0)
(-0.0998723 0.114984 0)
(-0.109663 0.111476 0)
(-0.118953 0.106593 0)
(-0.127662 0.100472 0)
(-0.13572 0.0932481 0)
(-0.143074 0.0850468 0)
(-0.149678 0.0759892 0)
(-0.155497 0.0661892 0)
(-0.160501 0.0557542 0)
(-0.164666 0.0447857 0)
(-0.167971 0.0333809 0)
(-0.170398 0.0216339 0)
(-0.17193 0.00963758 0)
(-0.172552 -0.00251464 0)
(-0.17225 -0.0147267 0)
(-0.171009 -0.0268979 0)
(-0.16882 -0.0389212 0)
(-0.165673 -0.0506817 0)
(-0.161565 -0.0620547 0)
(-0.156498 -0.0729056 0)
(-0.150483 -0.0830887 0)
(-0.143541 -0.0924479 0)
(-0.135706 -0.100818 0)
(-0.127029 -0.108025 0)
(-0.11758 -0.11389 0)
(-0.10745 -0.118236 0)
(-0.0967554 -0.120885 0)
(-0.0856378 -0.121671 0)
(-0.0742664 -0.120444 0)
(-0.0628377 -0.117075 0)
(-0.0515747 -0.111467 0)
(-0.0407245 -0.103559 0)
(-0.0305553 -0.0933359 0)
(-0.0213523 -0.0808325 0)
(-0.0134044 -0.0661384 0)
(-0.00698637 -0.0494006 0)
(-0.00244587 -0.0308219 0)
(-0.000349495 -0.0106752 0)
(-0.000360481 0.0118829 0)
(-0.0024771 0.0338422 0)
(-0.00701515 0.053716 0)
(-0.0133776 0.0713219 0)
(-0.0212017 0.0865501 0)
(-0.0302109 0.0993459 0)
(-0.040125 0.109705 0)
(-0.0506767 0.117669 0)
(-0.0616216 0.123315 0)
(-0.0727406 0.12675 0)
(-0.0838401 0.128106 0)
(-0.0947523 0.127527 0)
(-0.105334 0.125168 0)
(-0.115467 0.121186 0)
(-0.125052 0.11574 0)
(-0.13401 0.108983 0)
(-0.142278 0.101063 0)
(-0.149807 0.0921179 0)
(-0.156558 0.0822794 0)
(-0.1625 0.0716684 0)
(-0.167612 0.0603979 0)
(-0.171872 0.0485734 0)
(-0.175264 0.0362945 0)
(-0.177773 0.0236571 0)
(-0.179384 0.0107546 0)
(-0.180083 -0.00231893 0)
(-0.179853 -0.0154669 0)
(-0.178679 -0.0285877 0)
(-0.176547 -0.0415725 0)
(-0.173443 -0.0543031 0)
(-0.169356 -0.0666504 0)