/*--------------------------------*- C++ -*----------------------------------*\
  =========                 |
  \\      /  F ield         | OpenFOAM: The Open Source CFD Toolbox
   \\    /   O peration     | Website:  https://openfoam.org
    \\  /    A nd           | Version:  7
     \\/     M anipulation  |
\*---------------------------------------------------------------------------*/
FoamFile
{
    version     2.0;
    format      ascii;
    class       volScalarField;
    location    "0.03";
    object      p;
}
// * * * * * * * * * * * * * * * * * * * * * * * * * * * * * * * * * * * * * //

dimensions      [0 2 -2 0 0 0 0];

internalField   nonuniform List<scalar> 
2500
(
-1.68867e-06
-0.000520267
-0.00194028
-0.00395784
-0.00625962
-0.00855814
-0.0106752
-0.0124602
-0.0138035
-0.0146283
-0.0148839
-0.0145405
-0.0135852
-0.0120195
-0.0098566
-0.00711951
-0.00383958
-5.51195e-05
0.00418966
0.00884557
0.0138592
0.0191735
0.0247284
0.0304613
0.0363077
0.0422011
0.0480743
0.0538595
0.0594885
0.0648943
0.0700109
0.0747748
0.0791255
0.083007
0.0863688
0.0891671
0.0913667
0.0929423
0.0938804
0.0941815
0.0938622
0.0929584
0.0915283
0.0896569
0.0874631
0.0851059
0.0827663
0.0807402
0.0793332
0.0788397
0.000517678
9.39537e-07
-0.00114865
-0.00272651
-0.00450693
-0.00629682
-0.00794267
-0.00931917
-0.0103295
-0.0109019
-0.0109863
-0.0105506
-0.00957847
-0.00806666
-0.00602312
-0.00346536
-0.000419
0.00308336
0.00700319
0.0112969
0.0159165
0.0208105
0.0259241
0.0312001
0.0365791
0.0420005
0.0474022
0.0527222
0.0578984
0.0628695
0.067576
0.0719607
0.0759699
0.079554
0.0826693
0.0852787
0.0873534
0.0888739
0.0898322
0.0902332
0.0900965
0.0894591
0.0883772
0.0869293
0.0852194
0.0833793
0.0815666
0.0799758
0.0788366
0.0783465
0.00193861
0.00115036
-6.73307e-06
-0.0014289
-0.00297725
-0.00450652
-0.00589199
-0.00703047
-0.00783913
-0.00825429
-0.00822987
-0.0077353
-0.00675363
-0.00527992
-0.00331958
-0.000886995
0.0019957
0.00529965
0.00899018
0.0130276
0.017368
0.0219636
0.0267637
0.0317151
0.0367625
0.041849
0.046917
0.0519084
0.0567654
0.0614311
0.0658505
0.0699706
0.0737423
0.0771207
0.0800661
0.0825458
0.0845345
0.0860163
0.0869855
0.0874487
0.0874257
0.0869514
0.0860774
0.0848736
0.0834291
0.081853
0.0802742
0.0788405
0.077696
0.0769409
0.00397302
0.00274039
0.00139771
-4.86039e-05
-0.00154154
-0.00296784
-0.00422743
-0.0052376
-0.00592997
-0.00625046
-0.00615912
-0.00562892
-0.00464453
-0.00320118
-0.00130348
0.00103574
0.00379644
0.00695221
0.0104711
0.0143162
0.0184467
0.0228179
0.0273821
0.0320893
0.0368873
0.0417225
0.0465406
0.0512865
0.0559059
0.0603451
0.0645523
0.0684778
0.0720756
0.0753038
0.0781258
0.080511
0.0824366
0.0838881
0.0848606
0.0853602
0.085405
0.0850262
0.0842691
0.0831938
0.081875
0.0804012
0.0788772
0.0774196
0.0760911
0.0748985
0.00636053
0.00456953
0.00294564
0.00137847
-0.000155164
-0.00156715
-0.00277822
-0.00372457
-0.0043519
-0.00461616
-0.00448436
-0.00393404
-0.00295261
-0.0015366
0.000309201
0.00257258
0.00523472
0.00827089
0.0116511
0.0153409
0.0193016
0.0234911
0.0278645
0.0323743
0.0369709
0.0416037
0.0462208
0.05077
0.0551995
0.0594584
0.0634973
0.0672692
0.0707302
0.0738408
0.0765661
0.0788773
0.0807524
0.0821776
0.0831475
0.0836669
0.0837512
0.0834267
0.0827321
0.0817173
0.0804433
0.0789804
0.0774131
0.0758337
0.0742286
0.072503
0.00881505
0.00646346
0.00450865
0.00275401
0.00110854
-0.000358189
-0.00158353
-0.00252005
-0.00312633
-0.00336795
-0.00321905
-0.00266228
-0.00168845
-0.00029617
0.00150877
0.00371401
0.00630121
0.00924663
0.0125217
0.0160934
0.019925
0.0239765
0.0282049
0.0325648
0.0370091
0.041489
0.0459549
0.0503568
0.0546448
0.0587701
0.0626851
0.0663446
0.0697064
0.0727321
0.0753879
0.0776456
0.0794837
0.0808875
0.0818509
0.0823761
0.0824752
0.0821695
0.0814907
0.0804795
0.0791845
0.0776604
0.0759759
0.0742059
0.0722701
0.0699852
0.0112105
0.00829229
0.00597701
0.0039894
0.00217997
0.000605473
-0.00068397
-0.00165454
-0.00227606
-0.00252297
-0.00237632
-0.00182395
-0.00086049
0.000512892
0.00228881
0.0044541
0.0069903
0.00987399
0.0130773
0.0165684
0.0203118
0.0242689
0.0283982
0.0326561
0.036997
0.0413737
0.0457383
0.0500422
0.0542373
0.0582757
0.0621113
0.0656999
0.069
0.0719738
0.0745878
0.0768137
0.0786291
0.0800185
0.0809736
0.0814941
0.081588
0.0812719
0.0805706
0.0795166
0.078148
0.0765066
0.0746501
0.0726415
0.070344
0.0674969
0.0134206
0.00994661
0.00725739
0.005008
0.00299882
0.00127851
-0.000111927
-0.00114967
-0.0018141
-0.00208751
-0.00195736
-0.00141662
-0.000463791
0.000897055
0.00265653
0.00480023
0.00730899
0.0101593
0.0133234
0.0167701
0.0204646
0.0243693
0.0284438
0.0326456
0.0369301
0.0412515
0.0455628
0.0498165
0.0539653
0.0579621
0.0617613
0.0653192
0.0685943
0.0715487
0.0741486
0.0763646
0.0781733
0.0795571
0.0805054
0.0810149
0.0810895
0.0807409
0.0799879
0.0788558
0.077374
0.0755746
0.0735072
0.0712284
0.0685536
0.0651546
0.0153524
0.0113381
0.00826973
0.00574039
0.0035071
0.00161403
9.59031e-05
-0.00103325
-0.00176078
-0.00207579
-0.00197158
-0.00144593
-0.00050125
0.000855363
0.00261225
0.00475336
0.00725849
0.0101035
0.0132605
0.0166982
0.0203823
0.0242757
0.0283385
0.0325288
0.036803
0.0411156
0.0454205
0.0496705
0.0538186
0.0578181
0.0616233
0.0651902
0.0684769
0.0714448
0.0740588
0.0762883
0.0781078
0.0794975
0.080444
0.0809405
0.0809871
0.0805907
0.0797647
0.0785284
0.0769042
0.0749168
0.072611
0.0700407
0.0669803
0.0630421
0.0169368
0.0123948
0.00894487
0.00612343
0.00364906
0.00156409
-0.000100801
-0.00133857
-0.00214315
-0.00250952
-0.00243619
-0.00192547
-0.000983561
0.000379344
0.00214911
0.00430782
0.00683384
0.00970207
0.0128841
0.0163482
0.0200602
0.0239827
0.0280764
0.0322995
0.0366086
0.0409586
0.0453032
0.0495955
0.0537884
0.0578347
0.0616883
0.0653044
0.06864
0.0716551
0.074313
0.076581
0.0784312
0.0798413
0.0807945
0.0812805
0.0812954
0.0808417
0.0799281
0.0785687
0.0767806
0.0745829
0.0720183
0.0691408
0.0656888
0.0612202
0.0181187
0.0130561
0.0092218
0.00609913
0.00337126
0.00108065
-0.000744407
-0.00210242
-0.00299278
-0.00341555
-0.00337395
-0.00287449
-0.00192705
-0.000544952
0.00125507
0.00345298
0.00602551
0.00894627
0.0121859
0.0157121
0.0194901
0.0234825
0.0276495
0.0319494
0.0363385
0.0407717
0.0452023
0.0495831
0.0538663
0.0580041
0.0619491
0.0656552
0.0690782
0.0721758
0.0749092
0.0772432
0.0791471
0.0805953
0.0815675
0.0820498
0.0820342
0.081519
0.0805087
0.0790132
0.0770454
0.0746205
0.0717808
0.0685828
0.0647319
0.059735
0.018852
0.0132684
0.00904484
0.00561272
0.0026215
0.000115119
-0.00187931
-0.00336476
-0.00434528
-0.0048254
-0.0048126
-0.00431737
-0.00335319
-0.00193651
-8.67884e-05
0.00217365
0.00481964
0.00782328
0.011154
0.0147785
0.0186613
0.0227643
0.0270474
0.0314682
0.0359828
0.0405452
0.0451085
0.0496244
0.0540441
0.0583187
0.0623993
0.066238
0.0697884
0.0730059
0.075849
0.0782793
0.0802629
0.0817705
0.0827781
0.0832677
0.0832274
0.0826514
0.0815403
0.0799004
0.0777413
0.0750757
0.0719468
0.0684153
0.0641552
0.0586233
0.0190944
0.0129821
0.00836113
0.00461089
0.00134761
-0.00138238
-0.0035523
-0.0051689
-0.00624029
-0.00677505
-0.00678465
-0.00628343
-0.00528838
-0.00381917
-0.00189808
0.000450106
0.00319813
0.00631632
0.0097726
0.0135326
0.0175596
0.0218147
0.0262571
0.0308437
0.0355295
0.0402681
0.0450112
0.0497097
0.0543134
0.0587715
0.0630335
0.0670491
0.0707693
0.0741467
0.0771365
0.0796968
0.0817897
0.083382
0.0844456
0.084958
0.0849033
0.0842716
0.0830598
0.0812711
0.0789125
0.0759947
0.0725634
0.0686842
0.0640003
0.0579176
0.0188052
0.0121488
0.00711837
0.00304004
-0.000503778
-0.00346381
-0.00581306
-0.00756165
-0.00872146
-0.00930489
-0.00932726
-0.0088067
-0.00776377
-0.00622144
-0.00420494
-0.00174169
0.00113875
0.00440473
0.00802249
0.0119562
0.0161678
0.0206176
0.0252633
0.0300611
0.034965
0.0399273
0.0448988
0.0498286
0.054665
0.0593552
0.0638464
0.0680856
0.0720208
0.0756012
0.0787782
0.0815059
0.0837419
0.0854486
0.0865931
0.0871485
0.0870942
0.0864163
0.0851079
0.0831695
0.0806055
0.0774256
0.0736782
0.0694352
0.0643078
0.0576491
0.0179419
0.0107186
0.00526277
0.000844654
-0.00298849
-0.00618412
-0.00871478
-0.0105938
-0.0118367
-0.0124598
-0.0124822
-0.0119259
-0.0108151
-0.00917631
-0.00703786
-0.00442997
-0.00138471
0.00206408
0.00588074
0.0100278
0.0144658
0.0191535
0.0240478
0.0291034
0.0342732
0.0395082
0.0447577
0.0499692
0.0550889
0.0600619
0.0648326
0.069345
0.0735436
0.0773737
0.0807824
0.0837191
0.0861367
0.0879921
0.0892476
0.089871
0.0898367
0.0891265
0.0877297
0.0856436
0.0828707
0.0794194
0.0753417
0.0707163
0.0651205
0.0578511
0.0164587
0.00863863
0.00273727
-0.00203424
-0.00616609
-0.00960232
-0.0123149
-0.0143206
-0.0156387
-0.0162894
-0.0162959
-0.0156843
-0.0144827
-0.0127212
-0.0104315
-0.00764696
-0.00440228
-0.000733695
0.00332105
0.00772262
0.01243
0.0174006
0.0225897
0.027951
0.0334359
0.0389939
0.0445728
0.0501181
0.055574
0.0608828
0.0659861
0.0708245
0.0753385
0.0794691
0.0831585
0.0863508
0.0889934
0.0910376
0.0924394
0.0931612
0.0931718
0.092448
0.0909749
0.0887466
0.0857631
0.0820319
0.0776088
0.0725796
0.0664852
0.0585613
0.0143039
0.00585059
-0.000520116
-0.00566053
-0.0101011
-0.0137824
-0.0166761
-0.0188024
-0.020185
-0.0208482
-0.0208197
-0.0201299
-0.0188113
-0.0168977
-0.0144247
-0.0114288
-0.00794763
-0.0040201
0.000313843
0.00501289
0.0100343
0.0153339
0.0208657
0.0265818
0.0324323
0.0383652
0.0443265
0.0502599
0.056107
0.0618076
0.0672999
0.0725207
0.0774063
0.0818928
0.0859168
0.0894169
0.0923339
0.0946125
0.0962023
0.0970588
0.0971449
0.0964314
0.0948987
0.092537
0.0893438
0.0853251
0.0805405
0.0750836
0.068455
0.0598238
0.0114193
0.00228972
-0.00457785
-0.0101045
-0.0148642
-0.0187945
-0.0218666
-0.0241053
-0.0255388
-0.0261961
-0.02611
-0.0253156
-0.0238501
-0.0217518
-0.0190601
-0.0158151
-0.0120579
-0.00782984
-0.00317348
0.00186783
0.00724962
0.012926
0.0188496
0.0249711
0.0312393
0.0376007
0.0439994
0.0503771
0.0566731
0.0628243
0.0687653
0.074429
0.0797469
0.0846497
0.0890682
0.0929342
0.0961814
0.0987471
0.100573
0.101608
0.101806
0.101133
0.0995627
0.0970808
0.0936814
0.0893686
0.084206
0.0782951
0.0710918
0.0616918
0.00773779
-0.00211702
-0.00951237
-0.015444
-0.0205337
-0.0247157
-0.027962
-0.0303019
-0.0317692
-0.0323986
-0.0322282
-0.0312988
-0.0296527
-0.0273331
-0.0243839
-0.0208491
-0.0167731
-0.0122005
-0.00717619
-0.0017458
0.00404439
0.010147
0.0165131
0.0230922
0.0298316
0.0366766
0.0435695
0.0504501
0.0572552
0.0639188
0.0703719
0.0765432
0.0823591
0.0877444
0.0926233
0.0969201
0.100561
0.103474
0.105593
0.106856
0.107212
0.106616
0.105036
0.102452
0.098853
0.0942415
0.0886843
0.082291
0.0744677
0.0642289
0.00318218
-0.00745246
-0.0154096
-0.0217662
-0.0271963
-0.0316318
-0.0350451
-0.0374718
-0.0389522
-0.0395271
-0.0392413
-0.0381418
-0.0362769
-0.0336953
-0.0304457
-0.0265766
-0.022136
-0.0171718
-0.0117317
-0.00586326
0.000385259
0.00696496
0.0138257
0.0209159
0.0281817
0.035567
0.0430127
0.0504569
0.057834
0.065075
0.0721075
0.0788556
0.0852403
0.0911802
0.0965921
0.101392
0.105498
0.108827
0.111304
0.112857
0.113423
0.112949
0.111395
0.108732
0.104946
0.100034
0.0940663
0.0871607
0.0786679
0.0675122
-0.00233625
-0.0138109
-0.0223665
-0.0291688
-0.0349493
-0.0396374
-0.0432077
-0.0457028
-0.0471704
-0.0476593
-0.0472216
-0.0459116
-0.0437845
-0.0408952
-0.0372979
-0.0330458
-0.0281912
-0.0227854
-0.0168787
-0.010521
-0.00376239
0.00334704
0.010756
0.018412
0.0262604
0.0342441
0.042303
0.0503734
0.0583877
0.0662743
0.0739571
0.0813558
0.0883857
0.0949588
0.100984
0.106368
0.111019
0.114844
0.117754
0.119667
0.120507
0.12021
0.118725
0.116017
0.112061
0.10685
0.100457
0.0930083
0.0837925
0.0716335
-0.00891942
-0.0212995
-0.0304929
-0.0377619
-0.0439011
-0.0488385
-0.0525513
-0.055091
-0.0565144
-0.0568793
-0.0562467
-0.0546795
-0.0522407
-0.0489922
-0.0449946
-0.0403064
-0.0349843
-0.0290832
-0.0226563
-0.0157559
-0.00843336
-0.00074009
0.00727196
0.0155497
0.024038
0.0326794
0.0414129
0.0501738
0.0588929
0.0674961
0.0759038
0.0840314
0.0917886
0.0990801
0.105807
0.111865
0.117151
0.121561
0.124992
0.127347
0.128537
0.128484
0.127124
0.12441
0.120309
0.114806
0.107977
0.0999547
0.0899589
0.0767028
-0.0166842
-0.0300407
-0.0399132
-0.0476696
-0.0541737
-0.0593529
-0.0631884
-0.0657424
-0.0670827
-0.0672779
-0.0663997
-0.0645209
-0.0617135
-0.0580477
-0.0535911
-0.0484081
-0.0425603
-0.0361065
-0.0291027
-0.0216034
-0.0136613
-0.00532867
0.00334228
0.0122983
0.0214846
0.0308435
0.0403141
0.0498312
0.0593243
0.0687175
0.0779283
0.0868676
0.0954397
0.103542
0.111066
0.117898
0.123922
0.129018
0.13307
0.135964
0.137594
0.137865
0.136698
0.134031
0.129819
0.12404
0.116766
0.108141
0.0973053
0.0828502
-0.0257642
-0.0401737
-0.0507687
-0.0590321
-0.065904
-0.0713121
-0.0752434
-0.0777731
-0.0789823
-0.0789526
-0.0777684
-0.0755143
-0.0722728
-0.0681236
-0.0631421
-0.0573994
-0.0509625
-0.0438941
-0.0362533
-0.0280963
-0.0194771
-0.0104483
-0.0010618
0.00862967
0.018572
0.0287086
0.038979
0.0493184
0.059656
0.0699145
0.0800092
0.0898473
0.0993273
0.10834
0.116766
0.124482
0.131357
0.137256
0.142044
0.14559
0.147766
0.148458
0.147567
0.145014
0.140739
0.134705
0.126986
0.11773
0.105993
0.0902296
-0.0363123
-0.0518574
-0.0632201
-0.0720083
-0.0792461
-0.084863
-0.0888542
-0.0913103
-0.0923289
-0.0920074
-0.0904451
-0.0877406
-0.0839891
-0.0792807
-0.0737
-0.0673256
-0.06023
-0.0524803
-0.0441384
-0.0352624
-0.0259067
-0.0161237
-0.0059647
0.00451911
0.0152753
0.026249
0.0373816
0.0486093
0.0598621
0.0710625
0.0821242
0.0929513
0.103438
0.113466
0.122909
0.13163
0.139482
0.146315
0.151972
0.156299
0.159147
0.160376
0.159864
0.15751
0.153233
0.146981
0.138823
0.128914
0.116212
0.099022
-0.0485027
-0.0652735
-0.0774506
-0.0867785
-0.094374
-0.10017
-0.104173
-0.106493
-0.107247
-0.106552
-0.104525
-0.101282
-0.0969312
-0.0915766
-0.0853125
-0.0782258
-0.0703951
-0.0618918
-0.0527809
-0.0431214
-0.0329681
-0.0223725
-0.011384
-5.16558e-05
0.011575
0.0234439
0.0354993
0.0476802
0.0599183
0.0721372
0.0842502
0.0961594
0.107754
0.118911
0.129494
0.139351
0.148322
0.156235
0.162912
0.168173
0.171841
0.173747
0.173739
0.17169
0.167493
0.161073
0.152494
0.141912
0.128181
0.10944
-0.0625352
-0.0806299
-0.0936697
-0.103548
-0.111485
-0.117419
-0.12137
-0.123474
-0.123871
-0.122702
-0.120106
-0.116218
-0.111164
-0.105063
-0.0980196
-0.0901302
-0.0814801
-0.0721451
-0.0621926
-0.0516825
-0.040669
-0.0292018
-0.0173278
-0.00509213
0.00745937
0.0202791
0.0333157
0.046512
0.0598036
0.0731163
0.0863648
0.0994504
0.11226
0.124664
0.136516
0.147654
0.157898
0.167057
0.174926
0.181297
0.185959
0.188708
0.189358
0.187746
0.183732
0.177216
0.168247
0.156984
0.142159
0.121731
-0.0786382
-0.098166
-0.112119
-0.122553
-0.130802
-0.136816
-0.140632
-0.142417
-0.142342
-0.140576
-0.137284
-0.132625
-0.126747
-0.119782
-0.11185
-0.103056
-0.0934935
-0.0832419
-0.0723707
-0.0609401
-0.0490028
-0.0366055
-0.023791
-0.0105999
0.00292773
0.0167502
0.0308221
0.0450923
0.0595018
0.0739809
0.0884474
0.102804
0.116936
0.130709
0.14397
0.156542
0.168231
0.178819
0.188076
0.195759
0.201619
0.205411
0.206906
0.205895
0.2022
0.195682
0.186373
0.174429
0.158448
0.136188
-0.097075
-0.118159
-0.133076
-0.144064
-0.152582
-0.158595
-0.162168
-0.163503
-0.16281
-0.160295
-0.156154
-0.150574
-0.143725
-0.135761
-0.126815
-0.117003
-0.106425
-0.0951651
-0.0832936
-0.0708701
-0.0579445
-0.0445596
-0.0307525
-0.0165573
-0.00200687
0.0128649
0.0280209
0.0434178
0.0590043
0.0747176
0.090481
0.106201
0.121763
0.137031
0.151845
0.166018
0.179335
0.191558
0.202423
0.211651
0.218948
0.224021
0.226586
0.226382
0.223176
0.216784
0.207209
0.194601
0.177403
0.153152
-0.118151
-0.140932
-0.156868
-0.168394
-0.177116
-0.18302
-0.186206
-0.186924
-0.185432
-0.181978
-0.176801
-0.170119
-0.16213
-0.153009
-0.142906
-0.131948
-0.120241
-0.107874
-0.0949156
-0.0814249
-0.0674472
-0.0530192
-0.038171
-0.0229282
-0.00731428
0.00864673
0.0249279
0.0414968
0.058312
0.0753204
0.0924535
0.109624
0.126723
0.143613
0.16013
0.176077
0.191223
0.205305
0.218027
0.229067
0.238081
0.244717
0.248626
0.249482
0.246985
0.240885
0.231151
0.217912
0.199439
0.173026
-0.142222
-0.166865
-0.183876
-0.195912
-0.204744
-0.210392
-0.213002
-0.212887
-0.210366
-0.205742
-0.199299
-0.191298
-0.181969
-0.171509
-0.160085
-0.147838
-0.134878
-0.121296
-0.107162
-0.0925292
-0.0774369
-0.0619142
-0.0459816
-0.0296543
-0.0129442
0.004137
0.0215754
0.0393514
0.0574371
0.075792
0.0943595
0.113062
0.131798
0.150435
0.168807
0.18671
0.203899
0.220087
0.234943
0.248099
0.259155
0.267689
0.273277
0.275507
0.273994
0.268409
0.258661
0.244852
0.225053
0.196283
-0.169709
-0.196413
-0.214556
-0.227049
-0.235858
-0.24105
-0.242837
-0.241612
-0.237772
-0.231688
-0.223703
-0.214124
-0.203217
-0.191207
-0.178279
-0.164582
-0.150235
-0.135327
-0.119925
-0.104075
-0.0878091
-0.0711453
-0.0540926
-0.0366527
-0.0188237
-0.000602239
0.0180134
0.0370199
0.0564056
0.0761462
0.0962009
0.116506
0.136973
0.157476
0.177855
0.197901
0.21736
0.23592
0.253218
0.268836
0.282311
0.293143
0.300812
0.304806
0.304629
0.299846
0.290287
0.276004
0.254835
0.223489
-0.201119
-0.230123
-0.249457
-0.262321
-0.270918
-0.275383
-0.27602
-0.273328
-0.267803
-0.259901
-0.250035
-0.238569
-0.225808
-0.212007
-0.197367
-0.182048
-0.166169
-0.149818
-0.133055
-0.115918
-0.0984249
-0.0805819
-0.0623828
-0.0438136
-0.0248554
-0.00548698
0.0143118
0.0345572
0.0552571
0.0764077
0.0979878
0.119953
0.142231
0.164713
0.187245
0.209624
0.231587
0.252806
0.272886
0.291357
0.307689
0.321289
0.33153
0.33777
0.339377
0.335773
0.326678
0.312066
0.289494
0.255319
-0.237064
-0.268669
-0.289249
-0.30235
-0.310466
-0.313835
-0.312888
-0.308267
-0.300594
-0.290431
-0.278277
-0.264557
-0.249623
-0.233756
-0.217176
-0.200046
-0.182486
-0.164575
-0.146362
-0.127872
-0.109109
-0.0900596
-0.0707009
-0.0509997
-0.030917
-0.0104111
0.0105601
0.0320351
0.0540457
0.076612
0.0997375
0.123403
0.147558
0.172115
0.196939
0.221836
0.246546
0.270728
0.293959
0.315724
0.335415
0.352341
0.365747
0.374835
0.378797
0.376869
0.368614
0.353886
0.329898
0.292594
-0.278308
-0.312892
-0.334763
-0.34789
-0.355141
-0.356909
-0.353804
-0.346656
-0.336251
-0.323282
-0.308348
-0.291946
-0.274472
-0.256235
-0.237466
-0.218329
-0.198934
-0.179349
-0.159607
-0.139712
-0.119647
-0.0993807
-0.0788656
-0.0580471
-0.036863
-0.0152478
0.00686517
0.0295405
0.0528371
0.0768033
0.101472
0.126855
0.152932
0.179645
0.206884
0.234477
0.262174
0.289637
0.31642
0.341966
0.365594
0.386505
0.403795
0.416479
0.423528
0.423932
0.417032
0.402501
0.377114
0.336318
-0.325816
-0.363863
-0.387047
-0.399873
-0.405707
-0.405176
-0.399147
-0.388699
-0.374828
-0.358386
-0.340087
-0.320505
-0.300079
-0.27914
-0.257921
-0.236577
-0.215201
-0.193841
-0.172503
-0.151168
-0.129792
-0.108316
-0.0866689
-0.0647689
-0.042528
-0.0198538
0.00334807
0.0271712
0.051705
0.0770306
0.103216
0.130308
0.158325
0.187248
0.217004
0.247454
0.278375
0.309441
0.340202
0.370068
0.398291
0.42396
0.446004
0.463221
0.474298
0.477907
0.473076
0.459201
0.432482
0.387746
-0.380844
-0.422975
-0.447441
-0.459453
-0.46307
-0.459277
-0.449299
-0.434552
-0.416294
-0.395571
-0.373221
-0.349892
-0.326063
-0.302071
-0.278137
-0.254395
-0.230909
-0.207692
-0.184718
-0.161933
-0.13926
-0.116611
-0.0938812
-0.0709612
-0.0477332
-0.0240752
0.000137306
0.0250297
0.0507253
0.0773415
0.104986
0.133748
0.163692
0.194848
0.227192
0.260635
0.294998
0.329987
0.365169
0.39994
0.4335
0.46483
0.492683
0.515599
0.531925
0.53991
0.538144
0.525605
0.497707
0.448471
-0.44506
-0.492083
-0.517688
-0.528078
-0.528308
-0.519907
-0.504611
-0.484278
-0.460494
-0.43452
-0.407327
-0.379626
-0.351913
-0.324513
-0.297614
-0.271308
-0.245613
-0.220493
-0.195877
-0.171667
-0.147748
-0.123992
-0.100261
-0.0764119
-0.0522951
-0.0277568
-0.00263988
0.0232148
0.0499667
0.0777733
0.106786
0.137142
0.168963
0.202334
0.237299
0.273833
0.311824
0.351038
0.391088
0.431386
0.471108
0.509144
0.544074
0.574151
0.597309
0.611252
0.613961
0.603783
0.575013
0.520567
-0.520757
-0.573709
-0.600089
-0.607567
-0.602681
-0.587793
-0.56535
-0.537788
-0.507079
-0.474718
-0.441792
-0.40905
-0.37697
-0.345828
-0.315752
-0.286762
-0.258807
-0.231788
-0.205572
-0.18001
-0.154936
-0.13018
-0.105566
-0.0809127
-0.0560375
-0.0307531
-0.0048687
0.02181
0.0494808
0.0783429
0.108595
0.14043
0.174029
0.209549
0.247113
0.286784
0.328541
0.372245
0.417591
0.464057
0.510836
0.556772
0.600291
0.63935
0.671401
0.693456
0.702662
0.696411
0.667357
0.606806
-0.611192
-0.671371
-0.697722
-0.700204
-0.68763
-0.663621
-0.631605
-0.594734
-0.555419
-0.515375
-0.475758
-0.437299
-0.400401
-0.365243
-0.331846
-0.300125
-0.269935
-0.241089
-0.213381
-0.186594
-0.16051
-0.134907
-0.109568
-0.0842739
-0.0588056
-0.0329425
-0.00645994
0.0208719
0.0492891
0.0790343
0.110356
0.143505
0.178731
0.216274
0.256349
0.299129
0.344717
0.393106
0.444129
0.497387
0.552166
0.607332
0.661218
0.711512
0.755135
0.788254
0.806884
0.807002
0.778774
0.711024
-0.721181
-0.790096
-0.814742
-0.808826
-0.784717
-0.747908
-0.703124
-0.654369
-0.604487
-0.555339
-0.508061
-0.463262
-0.421189
-0.381848
-0.345098
-0.310709
-0.278407
-0.247896
-0.218881
-0.191068
-0.164176
-0.137932
-0.112073
-0.0863404
-0.0604812
-0.0342414
-0.00736358
0.020416
0.049371
0.0797868
0.111962
0.146209
0.18285
0.222215
0.264628
0.310394
0.359772
0.412935
0.469914
0.53052
0.594233
0.660058
0.726355
0.790628
0.849287
0.897516
0.929858
0.940214
0.914913
0.838754
-0.858183
-0.937243
-0.956777
-0.936862
-0.895457
-0.840746
-0.779072
-0.715332
-0.652693
-0.592993
-0.537168
-0.485557
-0.438122
-0.394608
-0.354639
-0.31779
-0.283627
-0.251724
-0.221679
-0.193117
-0.165687
-0.139062
-0.112934
-0.0870086
-0.0609977
-0.0346177
-0.00758139
0.0204062
0.0496529
0.0804846
0.113249
0.148317
0.186089
0.226989
0.271463
0.319968
0.37295
0.430813
0.493863
0.562221
0.635701
0.713626
0.794584
0.876102
0.954211
1.02308
1.07544
1.10225
1.08389
0.998377
-1.03438
-1.1238
-1.13139
-1.08823
-1.02095
-0.941377
-0.857643
-0.775361
-0.6977
-0.626141
-0.561133
-0.50252
-0.449818
-0.402392
-0.359559
-0.320648
-0.285031
-0.252135
-0.221443
-0.192491
-0.164861
-0.138173
-0.112076
-0.0862413
-0.0603535
-0.0341026
-0.00717657
0.0207456
0.0500012
0.0809513
0.113987
0.149539
0.188078
0.230126
0.276257
0.327095
0.383304
0.445566
0.51454
0.590782
0.674616
0.765928
0.863858
0.966334
1.06938
1.16635
1.24799
1.30133
1.29763
1.20332
-1.27091
-1.36638
-1.34837
-1.26681
-1.16109
-1.04744
-0.935488
-0.830912
-0.736203
-0.65191
-0.577567
-0.512228
-0.454763
-0.404033
-0.35897
-0.318616
-0.28213
-0.24878
-0.217931
-0.189035
-0.161609
-0.135227
-0.109502
-0.0840793
-0.0586205
-0.0327969
-0.00627869
0.021274
0.0502207
0.0809499
0.113889
0.149517
0.188373
0.231071
0.278309
0.330885
0.389698
0.455749
0.530125
0.61394
0.70824
0.813794
0.930758
1.05809
1.19256
1.32744
1.45182
1.54796
1.57391
1.47654
-1.60663
-1.69024
-1.61921
-1.47472
-1.31276
-1.15357
-1.00677
-0.876601
-0.763641
-0.666636
-0.583633
-0.512537
-0.451371
-0.398379
-0.352055
-0.311132
-0.27455
-0.241424
-0.211015
-0.182698
-0.155941
-0.13028
-0.105306
-0.0806442
-0.0559452
-0.0308705
-0.00508158
0.0217711
0.0500593
0.0801885
0.112612
0.147843
0.186475
0.2292
0.276831
0.330326
0.39082
0.459653
0.538385
0.628804
0.732883
0.852643
0.989866
1.14547
1.31832
1.50325
1.68929
1.85434
1.93941
1.85968
-2.11345
-2.13296
-1.95525
-1.70928
-1.46721
-1.24959
-1.06217
-0.904772
-0.774109
-0.665949
-0.576189
-0.501247
-0.438135
-0.384428
-0.338173
-0.29781
-0.262087
-0.229994
-0.200711
-0.173562
-0.147982
-0.12349
-0.0996668
-0.076134
-0.0525416
-0.0285525
-0.00383053
0.0219721
0.0492271
0.078344
0.109785
0.144084
0.181866
0.223876
0.271012
0.324368
0.385283
0.455411
0.536793
0.631941
0.743911
0.876327
1.03328
1.21888
1.43614
1.68473
1.95769
2.23239
2.43324
2.42823
-2.92199
-2.74455
-2.36403
-1.9609
-1.60885
-1.32045
-1.08958
-0.906551
-0.76148
-0.645808
-0.552689
-0.476835
-0.414223
-0.361798
-0.317233
-0.278743
-0.244946
-0.214759
-0.187322
-0.161944
-0.138053
-0.115173
-0.0928928
-0.0708455
-0.0486944
-0.0261167
-0.00279065
0.0216176
0.0474664
0.0751539
0.105134
0.137937
0.174193
0.214669
0.260303
0.31227
0.372051
0.441541
0.523185
0.62017
0.736661
0.878098
1.05149
1.26553
1.53028
1.85562
2.24678
2.68976
3.10633
3.31635
-4.32884
-3.56531
-2.82123
-2.19603
-1.70719
-1.3423
-1.07267
-0.871667
-0.719678
-0.602862
-0.511476
-0.438669
-0.379597
-0.330786
-0.289707
-0.254484
-0.223706
-0.196291
-0.171398
-0.148359
-0.126632
-0.105768
-0.085384
-0.0651421
-0.0447324
-0.0238592
-0.00222747
0.0204696
0.0445636
0.0704248
0.0984795
0.12923
0.163281
0.201375
0.244438
0.293647
0.350521
0.417057
0.495928
0.590773
0.706638
0.850626
1.03282
1.26751
1.57492
1.98275
2.52084
3.19979
3.99868
4.82865
-7.1637
-4.56426
-3.14572
-2.26049
-1.65445
-1.24517
-0.967135
-0.772096
-0.63066
-0.525118
-0.444269
-0.380809
-0.329849
-0.288031
-0.252977
-0.222967
-0.196726
-0.17329
-0.151917
-0.132022
-0.113137
-0.0948754
-0.0769087
-0.0589493
-0.0407336
-0.0220101
-0.00252647
0.0179795
0.0397939
0.0632381
0.0886842
0.116574
0.147441
0.181947
0.220921
0.265428
0.316856
0.377057
0.448564
0.534924
0.641257
0.775184
0.948366
1.1792
1.49807
1.9553
2.6204
3.57801
5.08262
7.80085
-12.0321
-5.64709
-2.9816
-1.88414
-1.2889
-0.93619
-0.718522
-0.574488
-0.472821
-0.397682
-0.340195
-0.294939
-0.258408
-0.228219
-0.202691
-0.1806
-0.161033
-0.1433
-0.126863
-0.111303
-0.0962788
-0.0815124
-0.0667668
-0.0518333
-0.0365204
-0.020644
-0.00401863
0.0135524
0.0322838
0.0524195
0.0742429
0.0980915
0.124374
0.153593
0.186377
0.223528
0.26608
0.315404
0.373358
0.442539
0.526726
0.631689
0.76678
0.948442
1.20868
1.61136
2.27306
3.46545
6.24779
12.758
)
;

boundaryField
{
    movingWall
    {
        type            zeroGradient;
    }
    fixedWalls
    {
        type            zeroGradient;
    }
    frontAndBack
    {
        type            empty;
    }
}


// ************************************************************************* //
