/*--------------------------------*- C++ -*----------------------------------*\
  =========                 |
  \\      /  F ield         | OpenFOAM: The Open Source CFD Toolbox
   \\    /   O peration     | Website:  https://openfoam.org
    \\  /    A nd           | Version:  7
     \\/     M anipulation  |
\*---------------------------------------------------------------------------*/
FoamFile
{
    version     2.0;
    format      ascii;
    class       volVectorField;
    location    "0.03";
    object      U;
}
// * * * * * * * * * * * * * * * * * * * * * * * * * * * * * * * * * * * * * //

dimensions      [0 1 -1 0 0 0 0];

internalField   nonuniform List<vector> 
2500
(
(2.53648e-05 -2.528e-05 0)
(7.20817e-05 -2.78266e-05 0)
(8.8777e-05 -1.0345e-05 0)
(4.61851e-05 1.27178e-05 0)
(-6.34587e-05 3.52828e-05 0)
(-0.000236796 5.5687e-05 0)
(-0.000466128 7.2917e-05 0)
(-0.000743102 8.68362e-05 0)
(-0.00105861 9.75884e-05 0)
(-0.00140356 0.000105386 0)
(-0.00176921 0.000110457 0)
(-0.0021473 0.000113034 0)
(-0.00253014 0.000113339 0)
(-0.00291061 0.000111588 0)
(-0.00328219 0.000107986 0)
(-0.00363896 0.000102725 0)
(-0.0039756 9.59882e-05 0)
(-0.00428736 8.79491e-05 0)
(-0.00457003 7.877e-05 0)
(-0.00481994 6.86048e-05 0)
(-0.00503394 5.76001e-05 0)
(-0.00520936 4.58967e-05 0)
(-0.00534403 3.36317e-05 0)
(-0.00543626 2.09402e-05 0)
(-0.00548482 7.95711e-06 0)
(-0.00548897 -5.18015e-06 0)
(-0.00544847 -1.83302e-05 0)
(-0.00536357 -3.13459e-05 0)
(-0.00523506 -4.40727e-05 0)
(-0.00506426 -5.63477e-05 0)
(-0.00485306 -6.79989e-05 0)
(-0.00460398 -7.88452e-05 0)
(-0.00432012 -8.86961e-05 0)
(-0.00400526 -9.73533e-05 0)
(-0.00366381 -0.000104612 0)
(-0.00330088 -0.00011026 0)
(-0.00292224 -0.000114086 0)
(-0.00253431 -0.000115875 0)
(-0.00214416 -0.000115414 0)
(-0.00175947 -0.000112494 0)
(-0.00138845 -0.000106914 0)
(-0.00103979 -9.84792e-05 0)
(-0.000722497 -8.7015e-05 0)
(-0.000445793 -7.23764e-05 0)
(-0.000218663 -5.44997e-05 0)
(-4.90202e-05 -3.36314e-05 0)
(5.5904e-05 -1.09576e-05 0)
(9.36535e-05 1.19291e-05 0)
(7.32929e-05 2.86992e-05 0)
(2.52722e-05 2.52154e-05 0)
(2.82067e-05 -7.20954e-05 0)
(5.25557e-05 -5.16129e-05 0)
(-1.74704e-05 4.23189e-05 0)
(-0.000225155 0.000161611 0)
(-0.000585267 0.000283145 0)
(-0.00109449 0.000396332 0)
(-0.00173969 0.000495372 0)
(-0.00250279 0.000577925 0)
(-0.00336309 0.000643344 0)
(-0.00429885 0.000691819 0)
(-0.00528838 0.000723995 0)
(-0.0063106 0.000740774 0)
(-0.00734545 0.000743197 0)
(-0.00837414 0.000732376 0)
(-0.00937926 0.000709448 0)
(-0.0103448 0.00067555 0)
(-0.0112564 0.000631801 0)
(-0.0121009 0.000579289 0)
(-0.0128669 0.000519069 0)
(-0.0135442 0.000452162 0)
(-0.0141242 0.000379558 0)
(-0.0145994 0.000302218 0)
(-0.014964 0.000221091 0)
(-0.0152133 0.000137114 0)
(-0.0153439 5.12287e-05 0)
(-0.015354 -3.56114e-05 0)
(-0.0152428 -0.000122428 0)
(-0.0150112 -0.000208212 0)
(-0.0146616 -0.000291913 0)
(-0.0141975 -0.000372435 0)
(-0.0136245 -0.000448636 0)
(-0.0129493 -0.000519326 0)
(-0.0121807 -0.000583274 0)
(-0.011329 -0.000639213 0)
(-0.0104062 -0.000685855 0)
(-0.00942614 -0.000721904 0)
(-0.00840436 -0.000746078 0)
(-0.00735803 -0.000757134 0)
(-0.00630585 -0.000753898 0)
(-0.00526794 -0.000735299 0)
(-0.00426553 -0.000700425 0)
(-0.00332066 -0.000648587 0)
(-0.00245567 -0.000579436 0)
(-0.00169252 -0.000493151 0)
(-0.00105165 -0.00039081 0)
(-0.000550291 -0.000275245 0)
(-0.000200312 -0.000152815 0)
(-3.31862e-06 -3.42792e-05 0)
(5.78622e-05 5.68868e-05 0)
(2.90545e-05 7.33344e-05 0)
(1.15738e-05 -9.01145e-05 0)
(-3.85841e-05 1.73746e-05 0)
(-0.000257382 0.000262148 0)
(-0.000677835 0.000560567 0)
(-0.00131273 0.000867342 0)
(-0.00215789 0.00115653 0)
(-0.00319658 0.0014134 0)
(-0.0044045 0.00163041 0)
(-0.00575303 0.00180425 0)
(-0.00721142 0.00193416 0)
(-0.00874828 0.00202093 0)
(-0.0103327 0.00206631 0)
(-0.0119347 0.00207262 0)
(-0.0135262 0.00204255 0)
(-0.0150806 0.00197899 0)
(-0.0165736 0.00188489 0)
(-0.017983 0.00176324 0)
(-0.0192888 0.001617 0)
(-0.020473 0.00144907 0)
(-0.0215202 0.00126229 0)
(-0.0224167 0.00105945 0)
(-0.0231511 0.000843265 0)
(-0.0237142 0.000616421 0)
(-0.0240989 0.000381594 0)
(-0.0242999 0.000141465 0)
(-0.0243143 -0.000101246 0)
(-0.0241413 -0.00034376 0)
(-0.0237822 -0.000583214 0)
(-0.0232406 -0.000816645 0)
(-0.0225224 -0.00104098 0)
(-0.0216361 -0.00125302 0)
(-0.0205923 -0.00144948 0)
(-0.0194046 -0.00162694 0)
(-0.0180889 -0.00178195 0)
(-0.0166638 -0.001911 0)
(-0.0151504 -0.00201061 0)
(-0.0135725 -0.0020774 0)
(-0.011956 -0.00210813 0)
(-0.0103294 -0.00209983 0)
(-0.00872254 -0.00204994 0)
(-0.00716707 -0.00195646 0)
(-0.00569528 -0.00181819 0)
(-0.00433946 -0.00163508 0)
(-0.0031307 -0.00140883 0)
(-0.0020973 -0.00114379 0)
(-0.0012625 -0.000848634 0)
(-0.00064133 -0.000539177 0)
(-0.000235699 -0.000242124 0)
(-2.96772e-05 -3.09355e-06 0)
(1.3321e-05 9.50681e-05 0)
(-1.03823e-05 -5.12884e-05 0)
(-0.000154863 0.000221408 0)
(-0.000552147 0.000681467 0)
(-0.00121136 0.0012181 0)
(-0.0021362 0.0017658 0)
(-0.00331877 0.00228333 0)
(-0.00473809 0.00274556 0)
(-0.00636454 0.00313831 0)
(-0.00816336 0.00345444 0)
(-0.0100969 0.0036914 0)
(-0.0121262 0.00384965 0)
(-0.0142127 0.00393163 0)
(-0.0163186 0.00394105 0)
(-0.0184081 0.00388248 0)
(-0.0204472 0.00376096 0)
(-0.0224047 0.00358183 0)
(-0.0242518 0.00335056 0)
(-0.0259626 0.0030726 0)
(-0.0275138 0.00275341 0)
(-0.0288852 0.00239833 0)
(-0.030059 0.00201264 0)
(-0.0310204 0.00160153 0)
(-0.0317573 0.00117013 0)
(-0.0322602 0.000723579 0)
(-0.0325227 0.00026701 0)
(-0.0325408 -0.000194359 0)
(-0.0323135 -0.000655206 0)
(-0.0318426 -0.00111006 0)
(-0.0311329 -0.00155327 0)
(-0.0301922 -0.001979 0)
(-0.0290315 -0.0023812 0)
(-0.0276649 -0.00275365 0)
(-0.02611 -0.00308996 0)
(-0.0243874 -0.00338367 0)
(-0.0225213 -0.00362827 0)
(-0.020539 -0.00381737 0)
(-0.018471 -0.00394478 0)
(-0.0163508 -0.00400469 0)
(-0.0142143 -0.0039919 0)
(-0.0120997 -0.00390207 0)
(-0.0100468 -0.00373206 0)
(-0.008096 -0.0034804 0)
(-0.00628722 -0.00314794 0)
(-0.00465867 -0.00273884 0)
(-0.00324482 -0.00226207 0)
(-0.00207411 -0.00173373 0)
(-0.00116558 -0.00118072 0)
(-0.000524415 -0.000645717 0)
(-0.000143176 -0.000194984 0)
(-8.02167e-06 6.11978e-05 0)
(-3.17048e-05 5.30807e-05 0)
(-0.000275267 0.000577766 0)
(-0.000862987 0.00131763 0)
(-0.00177255 0.00214478 0)
(-0.00299429 0.00297803 0)
(-0.00451399 0.00376303 0)
(-0.00630502 0.00446477 0)
(-0.00833225 0.00506214 0)
(-0.0105553 0.00554369 0)
(-0.0129306 0.00590459 0)
(-0.0154132 0.0061446 0)
(-0.017958 0.00626667 0)
(-0.020521 0.00627591 0)
(-0.02306 0.00617889 0)
(-0.0255349 0.0059831 0)
(-0.0279086 0.00569661 0)
(-0.0301471 0.00532778 0)
(-0.0322194 0.00488512 0)
(-0.0340977 0.0043771 0)
(-0.0357576 0.00381216 0)
(-0.0371781 0.00319861 0)
(-0.0383412 0.00254471 0)
(-0.0392326 0.00185863 0)
(-0.0398409 0.00114852 0)
(-0.0401582 0.000422608 0)
(-0.0401799 -0.000310805 0)
(-0.0399047 -0.00104323 0)
(-0.039335 -0.00176597 0)
(-0.0384766 -0.00247006 0)
(-0.0373387 -0.00314623 0)
(-0.0359346 -0.00378494 0)
(-0.0342813 -0.00437639 0)
(-0.0323997 -0.00491056 0)
(-0.0303145 -0.00537734 0)
(-0.0280546 -0.00576663 0)
(-0.0256523 -0.00606854 0)
(-0.0231439 -0.00627358 0)
(-0.020569 -0.00637297 0)
(-0.0179699 -0.006359 0)
(-0.0153916 -0.00622538 0)
(-0.0128804 -0.00596788 0)
(-0.0104835 -0.00558498 0)
(-0.00824734 -0.00507887 0)
(-0.00621606 -0.00445677 0)
(-0.00442988 -0.00373285 0)
(-0.00292274 -0.00293101 0)
(-0.00171918 -0.00208894 0)
(-0.000830408 -0.00126322 0)
(-0.000261877 -0.000536458 0)
(-2.92857e-05 -3.64794e-05 0)
(-5.18472e-05 0.000221491 0)
(-0.00039272 0.00108884 0)
(-0.00117109 0.00217613 0)
(-0.00233275 0.00334637 0)
(-0.00385218 0.00450736 0)
(-0.00570669 0.00559444 0)
(-0.00786253 0.00656409 0)
(-0.0102783 0.00738889 0)
(-0.0129079 0.00805312 0)
(-0.0157022 0.00854961 0)
(-0.0186108 0.00887732 0)
(-0.021583 0.00903964 0)
(-0.0245695 0.0090431 0)
(-0.0275227 0.00889641 0)
(-0.0303974 0.00860974 0)
(-0.0331517 0.00819417 0)
(-0.0357468 0.00766135 0)
(-0.0381477 0.00702318 0)
(-0.0403228 0.00629166 0)
(-0.0422443 0.00547873 0)
(-0.0438882 0.00459627 0)
(-0.0452341 0.00365605 0)
(-0.0462654 0.00266979 0)
(-0.0469694 0.00164919 0)
(-0.0473369 0.00060603 0)
(-0.0473627 -0.000447751 0)
(-0.0470454 -0.00149999 0)
(-0.0463876 -0.00253822 0)
(-0.0453958 -0.00354959 0)
(-0.0440808 -0.0045209 0)
(-0.0424576 -0.00543854 0)
(-0.0405455 -0.00628856 0)
(-0.0383682 -0.00705676 0)
(-0.035954 -0.00772883 0)
(-0.0333353 -0.00829057 0)
(-0.0305492 -0.00872811 0)
(-0.0276366 -0.00902825 0)
(-0.024642 -0.0091789 0)
(-0.0216136 -0.00916954 0)
(-0.0186018 -0.00899183 0)
(-0.0156589 -0.00864041 0)
(-0.0128378 -0.00811381 0)
(-0.0101909 -0.00741571 0)
(-0.00776802 -0.00655655 0)
(-0.00561537 -0.00555572 0)
(-0.0037732 -0.00444451 0)
(-0.00227299 -0.00327016 0)
(-0.00113412 -0.00210056 0)
(-0.000377228 -0.00103016 0)
(-4.89238e-05 -0.000196653 0)
(-6.99177e-05 0.000448831 0)
(-0.000503474 0.00175023 0)
(-0.00146799 0.00325464 0)
(-0.00287847 0.00482156 0)
(-0.00469283 0.0063519 0)
(-0.00687862 0.00777355 0)
(-0.00939377 0.00903631 0)
(-0.0121898 0.0101074 0)
(-0.0152143 0.0109676 0)
(-0.0184127 0.0116074 0)
(-0.0217291 0.0120254 0)
(-0.025108 0.0122253 0)
(-0.028495 0.0122154 0)
(-0.0318377 0.0120065 0)
(-0.0350869 0.0116119 0)
(-0.0381961 0.0110459 0)
(-0.041123 0.0103237 0)
(-0.0438287 0.00946093 0)
(-0.0462785 0.00847354 0)
(-0.0484419 0.00737737 0)
(-0.0502921 0.00618822 0)
(-0.0518069 0.00492183 0)
(-0.0529679 0.00359385 0)
(-0.0537608 0.00221997 0)
(-0.0541757 0.000815948 0)
(-0.0542068 -0.000602221 0)
(-0.0538523 -0.00201825 0)
(-0.0531151 -0.00341546 0)
(-0.0520024 -0.00477668 0)
(-0.0505259 -0.00608428 0)
(-0.0487021 -0.0073201 0)
(-0.0465522 -0.00846559 0)
(-0.0441024 -0.00950188 0)
(-0.0413837 -0.01041 0)
(-0.0384318 -0.0111712 0)
(-0.0352875 -0.0117672 0)
(-0.0319956 -0.0121806 0)
(-0.0286054 -0.0123958 0)
(-0.0251697 -0.0123991 0)
(-0.021744 -0.01218 0)
(-0.018386 -0.0117318 0)
(-0.0151541 -0.011053 0)
(-0.0121063 -0.0101486 0)
(-0.00929868 -0.00903219 0)
(-0.00678362 -0.00772781 0)
(-0.00460869 -0.00627329 0)
(-0.0028136 -0.00472383 0)
(-0.00142721 -0.00315601 0)
(-0.000486026 -0.00167236 0)
(-6.65011e-05 -0.000415201 0)
(-8.61123e-05 0.000731485 0)
(-0.000607269 0.00255597 0)
(-0.00175176 0.0045477 0)
(-0.00340579 0.00656588 0)
(-0.00551098 0.00850762 0)
(-0.00802442 0.0102958 0)
(-0.0108949 0.0118754 0)
(-0.014066 0.0132097 0)
(-0.0174787 0.0142764 0)
(-0.0210723 0.0150648 0)
(-0.0247856 0.015573 0)
(-0.0285582 0.0158058 0)
(-0.0323309 0.0157732 0)
(-0.0360474 0.0154886 0)
(-0.039654 0.0149684 0)
(-0.0431011 0.0142306 0)
(-0.0463425 0.0132942 0)
(-0.0493367 0.012179 0)
(-0.052046 0.010905 0)
(-0.0544375 0.00949252 0)
(-0.0564824 0.00796147 0)
(-0.0581567 0.00633192 0)
(-0.0594404 0.00462381 0)
(-0.0603183 0.00285714 0)
(-0.0607793 0.00105202 0)
(-0.0608172 -0.000771166 0)
(-0.06043 -0.00259165 0)
(-0.0596207 -0.00438817 0)
(-0.0583968 -0.00613887 0)
(-0.0567709 -0.00782128 0)
(-0.0547605 -0.00941231 0)
(-0.0523885 -0.0108884 0)
(-0.0496829 -0.0122255 0)
(-0.0466769 -0.0133997 0)
(-0.0434093 -0.0143871 0)
(-0.0399238 -0.0151647 0)
(-0.036269 -0.0157107 0)
(-0.032498 -0.0160052 0)
(-0.0286682 -0.0160313 0)
(-0.0248398 -0.0157759 0)
(-0.0210755 -0.0152307 0)
(-0.0174395 -0.0143938 0)
(-0.0139954 -0.0132714 0)
(-0.0108059 -0.0118795 0)
(-0.00793049 -0.0102461 0)
(-0.00542474 -0.0084146 0)
(-0.00333754 -0.00644645 0)
(-0.00170794 -0.00442473 0)
(-0.000588121 -0.00245729 0)
(-8.22497e-05 -0.000688061 0)
(-0.000100883 0.00106579 0)
(-0.00070526 0.00349996 0)
(-0.00202385 0.00604931 0)
(-0.00391632 0.00857443 0)
(-0.0063086 0.0109707 0)
(-0.00914706 0.013158 0)
(-0.0123708 0.015078 0)
(-0.0159148 0.0166914 0)
(-0.0197128 0.0179742 0)
(-0.0236977 0.0189147 0)
(-0.0278028 0.0195116 0)
(-0.0319623 0.0197709 0)
(-0.0361129 0.0197049 0)
(-0.0401939 0.01933 0)
(-0.0441482 0.0186659 0)
(-0.0479225 0.0177347 0)
(-0.051468 0.0165595 0)
(-0.0547402 0.0151646 0)
(-0.0576993 0.0135746 0)
(-0.0603103 0.011814 0)
(-0.0625426 0.0099076 0)
(-0.0643706 0.00787994 0)
(-0.0657731 0.00575554 0)
(-0.0667339 0.00355896 0)
(-0.0672412 0.00131493 0)
(-0.0672881 -0.00095148 0)
(-0.0668724 -0.00321475 0)
(-0.065997 -0.00544874 0)
(-0.0646697 -0.00762658 0)
(-0.0629036 -0.00972066 0)
(-0.060717 -0.0117026 0)
(-0.058134 -0.0135434 0)
(-0.0551841 -0.0152137 0)
(-0.0519026 -0.0166838 0)
(-0.0483303 -0.0179246 0)
(-0.0445139 -0.0189078 0)
(-0.0405053 -0.0196067 0)
(-0.0363614 -0.0199969 0)
(-0.0321434 -0.0200578 0)
(-0.0279165 -0.019773 0)
(-0.0237486 -0.0191325 0)
(-0.0197093 -0.0181334 0)
(-0.015869 -0.0167824 0)
(-0.012297 -0.0150973 0)
(-0.00906072 -0.0131094 0)
(-0.00622455 -0.0108663 0)
(-0.00384718 -0.00843444 0)
(-0.00197815 -0.00590161 0)
(-0.000684747 -0.00337925 0)
(-9.6605e-05 -0.00101164 0)
(-0.000114671 0.00144888 0)
(-0.000799081 0.00457721 0)
(-0.00228744 0.00775452 0)
(-0.00441475 0.0108433 0)
(-0.00709196 0.0137385 0)
(-0.0102547 0.0163585 0)
(-0.0138319 0.0186432 0)
(-0.0177496 0.0205518 0)
(-0.0219337 0.0220595 0)
(-0.0263102 0.0231551 0)
(-0.0308064 0.0238379 0)
(-0.0353515 0.0241163 0)
(-0.0398774 0.024005 0)
(-0.0443194 0.0235241 0)
(-0.0486168 0.0226972 0)
(-0.0527133 0.0215506 0)
(-0.0565574 0.0201121 0)
(-0.0601022 0.0184105 0)
(-0.063306 0.0164753 0)
(-0.0661317 0.0143359 0)
(-0.0685476 0.0120219 0)
(-0.0705265 0.00956256 0)
(-0.0720463 0.00698724 0)
(-0.0730899 0.00432529 0)
(-0.0736447 0.00160627 0)
(-0.0737033 -0.0011399 0)
(-0.0732632 -0.0038827 0)
(-0.072327 -0.00659089 0)
(-0.0709027 -0.00923234 0)
(-0.0690035 -0.011774 0)
(-0.0666483 -0.014182 0)
(-0.0638621 -0.0164214 0)
(-0.0606755 -0.0184571 0)
(-0.0571254 -0.0202537 0)
(-0.0532547 -0.021776 0)
(-0.0491124 -0.0229899 0)
(-0.0447535 -0.0238635 0)
(-0.0402384 -0.0243674 0)
(-0.0356326 -0.0244765 0)
(-0.0310058 -0.024171 0)
(-0.0264315 -0.0234381 0)
(-0.0219853 -0.0222736 0)
(-0.0177443 -0.0206839 0)
(-0.0137854 -0.0186879 0)
(-0.0101847 -0.0163191 0)
(-0.00701597 -0.0136283 0)
(-0.00434818 -0.0106857 0)
(-0.00224152 -0.00758296 0)
(-0.00077771 -0.00443398 0)
(-0.000110027 -0.0013833 0)
(-0.000127879 0.00187892 0)
(-0.000890513 0.0057845 0)
(-0.00254643 0.00966037 0)
(-0.00490733 0.0133708 0)
(-0.00786973 0.0168109 0)
(-0.0113585 0.0198985 0)
(-0.0152922 0.022573 0)
(-0.0195875 0.0247933 0)
(-0.0241617 0.0265349 0)
(-0.0289338 0.0277877 0)
(-0.0338247 0.0285532 0)
(-0.038758 0.0288421 0)
(-0.0436609 0.0286729 0)
(-0.0484646 0.0280696 0)
(-0.0531051 0.0270601 0)
(-0.0575231 0.0256755 0)
(-0.0616644 0.0239486 0)
(-0.0654802 0.0219134 0)
(-0.0689268 0.0196042 0)
(-0.0719659 0.0170557 0)
(-0.0745642 0.0143025 0)
(-0.0766937 0.0113788 0)
(-0.0783313 0.00831904 0)
(-0.0794589 0.0051574 0)
(-0.0800636 0.00192843 0)
(-0.0801371 -0.00133292 0)
(-0.0796767 -0.00459099 0)
(-0.0786846 -0.00780927 0)
(-0.0771686 -0.0109502 0)
(-0.0751419 -0.013975 0)
(-0.0726238 -0.016844 0)
(-0.0696397 -0.0195164 0)
(-0.066221 -0.0219505 0)
(-0.0624059 -0.0241048 0)
(-0.0582391 -0.0259378 0)
(-0.0537719 -0.0274092 0)
(-0.0490619 -0.0284809 0)
(-0.044173 -0.0291182 0)
(-0.0391748 -0.0292907 0)
(-0.0341422 -0.0289744 0)
(-0.029154 -0.0281533 0)
(-0.0242927 -0.0268209 0)
(-0.0196424 -0.0249824 0)
(-0.0152886 -0.022657 0)
(-0.0113163 -0.0198795 0)
(-0.00780957 -0.0167031 0)
(-0.00484802 -0.0132009 0)
(-0.00250261 -0.0094675 0)
(-0.000869027 -0.00561924 0)
(-0.000122951 -0.00180149 0)
(-0.000140865 0.00235504 0)
(-0.00098134 0.00712063 0)
(-0.00280502 0.0117664 0)
(-0.00540103 0.0161576 0)
(-0.00865178 0.0201901 0)
(-0.0124713 0.0237817 0)
(-0.0167676 0.0268723 0)
(-0.0214473 0.0294214 0)
(-0.0264191 0.0314061 0)
(-0.0315941 0.0328183 0)
(-0.0368864 0.0336623 0)
(-0.042214 0.0339526 0)
(-0.0474991 0.0337119 0)
(-0.0526689 0.0329686 0)
(-0.0576557 0.0317559 0)
(-0.0623975 0.0301101 0)
(-0.0668378 0.0280693 0)
(-0.0709257 0.0256731 0)
(-0.0746162 0.0229611 0)
(-0.0778695 0.0199735 0)
(-0.0806513 0.0167498 0)
(-0.0829328 0.0133298 0)
(-0.08469 0.00975259 0)
(-0.0859043 0.00605766 0)
(-0.0865619 0.00228455 0)
(-0.0866542 -0.00152668 0)
(-0.0861778 -0.00533518 0)
(-0.0851345 -0.00909903 0)
(-0.0835315 -0.0127751 0)
(-0.0813822 -0.0163188 0)
(-0.0787055 -0.0196843 0)
(-0.0755271 -0.0228244 0)
(-0.071879 -0.025691 0)
(-0.0678003 -0.0282357 0)
(-0.0633371 -0.0304102 0)
(-0.0585426 -0.0321674 0)
(-0.0534773 -0.0334627 0)
(-0.0482084 -0.0342547 0)
(-0.0428097 -0.0345075 0)
(-0.0373613 -0.0341921 0)
(-0.031948 -0.0332879 0)
(-0.0266591 -0.0317855 0)
(-0.0215872 -0.0296881 0)
(-0.0168263 -0.0270141 0)
(-0.0124714 -0.0237989 0)
(-0.00861738 -0.020097 0)
(-0.00535508 -0.0159839 0)
(-0.00276636 -0.011557 0)
(-0.000960753 -0.00693517 0)
(-0.00013578 -0.00226579 0)
(-0.000153951 0.00287736 0)
(-0.00107327 0.00858648 0)
(-0.00306741 0.0140747 0)
(-0.00590303 0.0192077 0)
(-0.00944842 0.0238816 0)
(-0.0136067 0.0280151 0)
(-0.0182747 0.0315491 0)
(-0.0233489 0.0344448 0)
(-0.0287285 0.0366819 0)
(-0.0343166 0.0382553 0)
(-0.0400202 0.0391733 0)
(-0.045751 0.039455 0)
(-0.0514263 0.039128 0)
(-0.0569689 0.0382264 0)
(-0.0623077 0.0367889 0)
(-0.067378 0.0348577 0)
(-0.0721211 0.032477 0)
(-0.0764843 0.0296919 0)
(-0.0804213 0.0265481 0)
(-0.0838913 0.023091 0)
(-0.0868592 0.019366 0)
(-0.0892953 0.0154177 0)
(-0.0911752 0.0112907 0)
(-0.0924795 0.00702938 0)
(-0.093194 0.00267844 0)
(-0.0933093 -0.00171696 0)
(-0.0928215 -0.00611072 0)
(-0.0917317 -0.0104555 0)
(-0.0900467 -0.0147024 0)
(-0.0877791 -0.0188011 0)
(-0.0849477 -0.0226992 0)
(-0.0815778 -0.0263429 0)
(-0.0777019 -0.0296774 0)
(-0.0733594 -0.0326468 0)
(-0.0685977 -0.0351956 0)
(-0.0634718 -0.0372692 0)
(-0.0580446 -0.0388154 0)
(-0.0523868 -0.0397859 0)
(-0.0465765 -0.040138 0)
(-0.040699 -0.0398364 0)
(-0.0348458 -0.0388557 0)
(-0.0291136 -0.0371819 0)
(-0.0236034 -0.0348155 0)
(-0.0184193 -0.0317729 0)
(-0.0136668 -0.0280892 0)
(-0.00945214 -0.0238199 0)
(-0.00587809 -0.0190424 0)
(-0.00303783 -0.0138565 0)
(-0.00105491 -0.0083844 0)
(-0.000148882 -0.00277688 0)
(-0.000167423 0.00344683 0)
(-0.00116793 0.010185 0)
(-0.00333768 0.0165903 0)
(-0.00642041 0.022528 0)
(-0.01027 0.0278943 0)
(-0.0147781 0.0326089 0)
(-0.0198302 0.0366146 0)
(-0.0253119 0.0398753 0)
(-0.0311125 0.042374 0)
(-0.0371266 0.0441101 0)
(-0.0432535 0.0450969 0)
(-0.0493986 0.0453589 0)
(-0.0554739 0.0449299 0)
(-0.0613979 0.0438502 0)
(-0.0670961 0.0421652 0)
(-0.0725009 0.0399236 0)
(-0.0775518 0.0371758 0)
(-0.0821947 0.0339735 0)
(-0.0863819 0.0303683 0)
(-0.0900719 0.0264115 0)
(-0.0932291 0.022154 0)
(-0.0958232 0.0176459 0)
(-0.0978294 0.0129369 0)
(-0.0992277 0.00807655 0)
(-0.100003 0.00311447 0)
(-0.100147 -0.00189906 0)
(-0.0996525 -0.00691273 0)
(-0.0985215 -0.0118738 0)
(-0.0967595 -0.0167277 0)
(-0.0943783 -0.0214178 0)
(-0.091396 -0.0258856 0)
(-0.0878375 -0.0300702 0)
(-0.0837349 -0.0339095 0)
(-0.0791281 -0.0373399 0)
(-0.0740651 -0.0402979 0)
(-0.0686025 -0.0427207 0)
(-0.0628055 -0.0445479 0)
(-0.0567481 -0.045723 0)
(-0.0505129 -0.0461955 0)
(-0.0441907 -0.0459231 0)
(-0.0378797 -0.0448736 0)
(-0.0316849 -0.0430281 0)
(-0.0257165 -0.0403826 0)
(-0.0200891 -0.036951 0)
(-0.0149196 -0.032767 0)
(-0.0103268 -0.0278862 0)
(-0.00642587 -0.0223878 0)
(-0.00332202 -0.0163744 0)
(-0.00115346 -0.00997204 0)
(-0.000162598 -0.00333648 0)
(-0.000181541 0.00406524 0)
(-0.00126682 0.0119211 0)
(-0.00361972 0.019321 0)
(-0.00696 0.0261285 0)
(-0.0111264 0.0322399 0)
(-0.0159987 0.0375764 0)
(-0.0214504 0.042083 0)
(-0.0273553 0.0457273 0)
(-0.0335927 0.0484968 0)
(-0.0400477 0.0503964 0)
(-0.0466118 0.0514455 0)
(-0.0531839 0.0516756 0)
(-0.0596702 0.0511275 0)
(-0.0659851 0.0498487 0)
(-0.0720506 0.0478921 0)
(-0.0777967 0.0453136 0)
(-0.0831608 0.0421708 0)
(-0.0880877 0.0385221 0)
(-0.0925289 0.0344255 0)
(-0.0964425 0.0299384 0)
(-0.0997923 0.0251174 0)
(-0.102548 0.0200181 0)
(-0.104684 0.0146953 0)
(-0.106181 0.00920358 0)
(-0.107023 0.00359747 0)
(-0.107199 -0.00206779 0)
(-0.106704 -0.00773581 0)
(-0.105538 -0.0133485 0)
(-0.103704 -0.0188456 0)
(-0.101215 -0.0241645 0)
(-0.0980865 -0.0292399 0)
(-0.0943428 -0.0340041 0)
(-0.0900155 -0.0383868 0)
(-0.0851442 -0.0423167 0)
(-0.0797774 -0.0457214 0)
(-0.0739727 -0.048529 0)
(-0.0677975 -0.05067 0)
(-0.0613291 -0.0520787 0)
(-0.0546543 -0.0526957 0)
(-0.0478697 -0.0524699 0)
(-0.0410809 -0.0513618 0)
(-0.0344013 -0.0493454 0)
(-0.0279514 -0.0464115 0)
(-0.0218567 -0.04257 0)
(-0.016247 -0.0378526 0)
(-0.0112542 -0.0323144 0)
(-0.00700711 -0.0260357 0)
(-0.00362386 -0.0191226 0)
(-0.00125828 -0.0117057 0)
(-0.000177246 -0.0039473 0)
(-0.000196543 0.00473516 0)
(-0.00137136 0.0138015 0)
(-0.00391722 0.0222768 0)
(-0.00752832 0.0300222 0)
(-0.0120272 0.0369337 0)
(-0.0172811 0.042934 0)
(-0.0231505 0.0479714 0)
(-0.0294971 0.0520178 0)
(-0.0361889 0.0550666 0)
(-0.0431015 0.0571294 0)
(-0.0501181 0.0582333 0)
(-0.0571305 0.0584175 0)
(-0.0640395 0.0577313 0)
(-0.0707548 0.0562307 0)
(-0.0771954 0.0539769 0)
(-0.0832887 0.0510339 0)
(-0.0889709 0.047467 0)
(-0.0941856 0.0433417 0)
(-0.098884 0.0387232 0)
(-0.103024 0.033675 0)
(-0.106569 0.0282596 0)
(-0.109489 0.0225379 0)
(-0.111759 0.0165699 0)
(-0.113358 0.0104151 0)
(-0.114271 0.00413261 0)
(-0.114486 -0.00221747 0)
(-0.113997 -0.0085739 0)
(-0.112801 -0.0148734 0)
(-0.110904 -0.0210503 0)
(-0.108313 -0.0270357 0)
(-0.105044 -0.0327577 0)
(-0.10112 -0.0381412 0)
(-0.0965718 -0.0431081 0)
(-0.0914373 -0.0475781 0)
(-0.0857652 -0.0514696 0)
(-0.0796141 -0.0547007 0)
(-0.0730529 -0.0571917 0)
(-0.066162 -0.0588665 0)
(-0.0590326 -0.0596551 0)
(-0.0517672 -0.0594967 0)
(-0.0444787 -0.0583424 0)
(-0.0372899 -0.056158 0)
(-0.030332 -0.0529275 0)
(-0.0237428 -0.0486556 0)
(-0.0176656 -0.0433708 0)
(-0.0122469 -0.037127 0)
(-0.00763033 -0.0300057 0)
(-0.00394811 -0.0221165 0)
(-0.0013712 -0.0135953 0)
(-0.00019313 -0.00461305 0)
(-0.000212651 0.00545985 0)
(-0.00148288 0.0158349 0)
(-0.00423365 0.0254707 0)
(-0.00813148 0.034225 0)
(-0.0129815 0.0419936 0)
(-0.0186372 0.048701 0)
(-0.024945 0.0542992 0)
(-0.0317536 0.0587659 0)
(-0.0389193 0.0621015 0)
(-0.0463073 0.0643258 0)
(-0.053792 0.0654747 0)
(-0.0612581 0.0655971 0)
(-0.0686007 0.0647519 0)
(-0.0757251 0.0630047 0)
(-0.0825473 0.0604262 0)
(-0.0889927 0.0570893 0)
(-0.0949961 0.0530679 0)
(-0.100501 0.0484353 0)
(-0.105458 0.0432638 0)
(-0.109825 0.0376235 0)
(-0.113567 0.0315829 0)
(-0.116654 0.0252082 0)
(-0.11906 0.0185644 0)
(-0.120765 0.0117155 0)
(-0.121753 0.00472524 0)
(-0.122013 -0.00234191 0)
(-0.121536 -0.00942011 0)
(-0.12032 -0.0164412 0)
(-0.118366 -0.0233341 0)
(-0.115682 -0.030024 0)
(-0.112282 -0.0364324 0)
(-0.108185 -0.0424765 0)
(-0.103421 -0.04807 0)
(-0.0980268 -0.0531234 0)
(-0.0920505 -0.0575446 0)
(-0.0855505 -0.0612414 0)
(-0.0785974 -0.0641223 0)
(-0.0712738 -0.0660993 0)
(-0.0636754 -0.0670907 0)
(-0.0559105 -0.0670241 0)
(-0.0480998 -0.0658394 0)
(-0.0403757 -0.0634925 0)
(-0.0328811 -0.0599589 0)
(-0.025767 -0.0552368 0)
(-0.0191915 -0.0493499 0)
(-0.0133171 -0.0423506 0)
(-0.00830378 -0.0343211 0)
(-0.00429941 -0.0253745 0)
(-0.00149399 -0.0156533 0)
(-0.00021054 -0.00533834 0)
(-0.000230073 0.00624324 0)
(-0.00160264 0.0180315 0)
(-0.00457225 0.0289177 0)
(-0.00877525 0.0387555 0)
(-0.0139976 0.0474403 0)
(-0.0200776 0.0548989 0)
(-0.0268467 0.061088 0)
(-0.0341394 0.0659923 0)
(-0.0417994 0.0696205 0)
(-0.0496809 0.0720023 0)
(-0.0576492 0.0731843 0)
(-0.0655815 0.0732263 0)
(-0.0733671 0.0721984 0)
(-0.0809075 0.0701775 0)
(-0.0881155 0.0672446 0)
(-0.094915 0.0634828 0)
(-0.10124 0.0589751 0)
(-0.107034 0.0538035 0)
(-0.112248 0.0480476 0)
(-0.116842 0.0417844 0)
(-0.12078 0.0350882 0)
(-0.124033 0.0280306 0)
(-0.126576 0.0206814 0)
(-0.12839 0.0131088 0)
(-0.129459 0.00538068 0)
(-0.129769 -0.00243447 0)
(-0.129312 -0.0102666 0)
(-0.128084 -0.0180431 0)
(-0.126085 -0.0256877 0)
(-0.123319 -0.0331201 0)
(-0.119797 -0.040255 0)
(-0.115538 -0.0470021 0)
(-0.110567 -0.0532664 0)
(-0.104921 -0.0589486 0)
(-0.0986445 -0.0639459 0)
(-0.0917968 -0.0681539 0)
(-0.0844486 -0.0714686 0)
(-0.0766847 -0.0737887 0)
(-0.0686047 -0.0750187 0)
(-0.0603226 -0.0750727 0)
(-0.0519673 -0.0738775 0)
(-0.0436812 -0.0713771 0)
(-0.0356194 -0.0675366 0)
(-0.0279476 -0.0623456 0)
(-0.0208399 -0.0558222 0)
(-0.0144764 -0.0480157 0)
(-0.00903543 -0.0390088 0)
(-0.00468227 -0.0289184 0)
(-0.00162836 -0.0178942 0)
(-0.000229761 -0.00612867 0)
(-0.000249005 0.00708989 0)
(-0.00173181 0.020403 0)
(-0.00493613 0.0326351 0)
(-0.00946501 0.0436347 0)
(-0.0150832 0.053297 0)
(-0.0216123 0.0615517 0)
(-0.0288673 0.0683613 0)
(-0.0366672 0.0737188 0)
(-0.0448421 0.0776432 0)
(-0.0532347 0.0801757 0)
(-0.0617006 0.0813754 0)
(-0.0701095 0.0813152 0)
(-0.0783452 0.080078 0)
(-0.086305 0.0777532 0)
(-0.0938995 0.0744339 0)
(-0.101051 0.0702141 0)
(-0.107695 0.065187 0)
(-0.113774 0.0594437 0)
(-0.11924 0.0530717 0)
(-0.124055 0.046155 0)
(-0.128185 0.0387738 0)
(-0.131602 0.0310048 0)
(-0.134282 0.0229221 0)
(-0.136206 0.014598 0)
(-0.137358 0.00610396 0)
(-0.137725 -0.00248814 0)
(-0.137297 -0.0111046 0)
(-0.136067 -0.0196687 0)
(-0.134034 -0.0280997 0)
(-0.131199 -0.0363118 0)
(-0.127571 -0.0442133 0)
(-0.123163 -0.0517064 0)
(-0.118 -0.0586872 0)
(-0.112113 -0.065046 0)
(-0.105546 -0.0706685 0)
(-0.0983564 -0.0754374 0)
(-0.0906144 -0.0792345 0)
(-0.0824066 -0.0819434 0)
(-0.0738356 -0.0834531 0)
(-0.0650213 -0.0836618 0)
(-0.0561003 -0.0824812 0)
(-0.0472257 -0.0798408 0)
(-0.0385657 -0.0756929 0)
(-0.0303016 -0.0700168 0)
(-0.0226251 -0.0628229 0)
(-0.015736 -0.0541563 0)
(-0.00983297 -0.0440994 0)
(-0.00510105 -0.032773 0)
(-0.00177599 -0.0203348 0)
(-0.000251074 -0.00699046 0)
(-0.000269643 0.00800497 0)
(-0.00187155 0.0229629 0)
(-0.00532821 0.036642 0)
(-0.0102058 0.0488857 0)
(-0.0162454 0.0595888 0)
(-0.0232501 0.0686847 0)
(-0.0310166 0.0761433 0)
(-0.0393471 0.0819673 0)
(-0.0480571 0.0861883 0)
(-0.0569768 0.088861 0)
(-0.0659521 0.0900593 0)
(-0.0748449 0.0898711 0)
(-0.0835335 0.088394 0)
(-0.0919118 0.0857319 0)
(-0.0998885 0.0819912 0)
(-0.107386 0.0772782 0)
(-0.114339 0.0716973 0)
(-0.120693 0.065349 0)
(-0.126402 0.0583293 0)
(-0.131429 0.0507291 0)
(-0.135742 0.0426347 0)
(-0.139316 0.0341275 0)
(-0.142129 0.0252858 0)
(-0.144163 0.0161849 0)
(-0.1454 0.00689952 0)
(-0.145829 -0.00249571 0)
(-0.145439 -0.0119241 0)
(-0.14422 -0.0213056 0)
(-0.142168 -0.0305556 0)
(-0.139281 -0.0395832 0)
(-0.135564 -0.0482907 0)
(-0.131028 -0.0565729 0)
(-0.125691 -0.0643169 0)
(-0.119581 -0.0714022 0)
(-0.11274 -0.0777023 0)
(-0.10522 -0.0830857 0)
(-0.0970915 -0.0874185 0)
(-0.0884416 -0.0905677 0)
(-0.0793752 -0.0924043 0)
(-0.0700174 -0.0928084 0)
(-0.0605125 -0.0916735 0)
(-0.0510246 -0.0889121 0)
(-0.0417358 -0.0844611 0)
(-0.0328439 -0.0782868 0)
(-0.0245603 -0.0703897 0)
(-0.0171064 -0.0608093 0)
(-0.0107038 -0.0496266 0)
(-0.00556003 -0.0369661 0)
(-0.00193855 -0.022994 0)
(-0.000274759 -0.00793097 0)
(-0.000292175 0.00899422 0)
(-0.00202296 0.0257257 0)
(-0.00575129 0.0409597 0)
(-0.0110024 0.0545337 0)
(-0.0174907 0.0663426 0)
(-0.0249987 0.0763247 0)
(-0.0333029 0.0844587 0)
(-0.0421869 0.0907595 0)
(-0.0514506 0.0952732 0)
(-0.0609109 0.098071 0)
(-0.0704036 0.0992437 0)
(-0.0797828 0.0988968 0)
(-0.0889217 0.0971449 0)
(-0.0977114 0.0941082 0)
(-0.106059 0.0899081 0)
(-0.113889 0.0846645 0)
(-0.121135 0.0784936 0)
(-0.127748 0.0715065 0)
(-0.133683 0.0638077 0)
(-0.138906 0.0554955 0)
(-0.14339 0.0466616 0)
(-0.147111 0.0373921 0)
(-0.15005 0.0277685 0)
(-0.152188 0.0178692 0)
(-0.153513 0.00777082 0)
(-0.154009 -0.0024499 0)
(-0.153665 -0.0127142 0)
(-0.15247 -0.0229396 0)
(-0.150416 -0.0330381 0)
(-0.147499 -0.0429146 0)
(-0.143718 -0.052466 0)
(-0.139078 -0.0615798 0)
(-0.133593 -0.0701339 0)
(-0.127286 -0.0779973 0)
(-0.120192 -0.08503 0)
(-0.112362 -0.0910855 0)
(-0.103863 -0.0960128 0)
(-0.0947801 -0.0996599 0)
(-0.0852208 -0.101878 0)
(-0.075314 -0.102525 0)
(-0.0652117 -0.101474 0)
(-0.055089 -0.0986181 0)
(-0.0451422 -0.0938742 0)
(-0.0355874 -0.0871929 0)
(-0.0266573 -0.0785625 0)
(-0.0185974 -0.0680144 0)
(-0.011655 -0.0556271 0)
(-0.00606338 -0.0415282 0)
(-0.0021177 -0.025893 0)
(-0.000301105 -0.00895831 0)
(-0.000316799 0.010064 0)
(-0.00218716 0.0287077 0)
(-0.00620815 0.0456112 0)
(-0.0118593 0.0606055 0)
(-0.0188253 0.0735866 0)
(-0.0268651 0.0844989 0)
(-0.0357327 0.0933318 0)
(-0.0451918 0.100115 0)
(-0.0550249 0.104913 0)
(-0.0650353 0.107814 0)
(-0.075048 0.108931 0)
(-0.0849099 0.108389 0)
(-0.0944893 0.106323 0)
(-0.103675 0.10287 0)
(-0.112375 0.0981684 0)
(-0.120514 0.0923542 0)
(-0.128031 0.0855562 0)
(-0.134877 0.0778962 0)
(-0.141013 0.0694879 0)
(-0.146411 0.0604366 0)
(-0.151046 0.0508396 0)
(-0.154897 0.040787 0)
(-0.157949 0.0303631 0)
(-0.160186 0.0196481 0)
(-0.161595 0.00871992 0)
(-0.162162 -0.00234369 0)
(-0.161875 -0.0134629 0)
(-0.160719 -0.0245538 0)
(-0.158685 -0.0355262 0)
(-0.155762 -0.0462815 0)
(-0.151945 -0.0567118 0)
(-0.147233 -0.0666979 0)
(-0.141634 -0.076109 0)
(-0.135163 -0.0848028 0)
(-0.127851 -0.0926257 0)
(-0.119741 -0.0994149 0)
(-0.110896 -0.105001 0)
(-0.101399 -0.10921 0)
(-0.091358 -0.111871 0)
(-0.0809049 -0.112818 0)
(-0.0701983 -0.111899 0)
(-0.0594241 -0.108982 0)
(-0.0487938 -0.103963 0)
(-0.0385427 -0.0967724 0)
(-0.0289266 -0.0873821 0)
(-0.020218 -0.0758134 0)
(-0.0126933 -0.0621402 0)
(-0.00661521 -0.0464924 0)
(-0.00231508 -0.0290547 0)
(-0.000330406 -0.0100815 0)
(-0.000343719 0.0112211 0)
(-0.00236529 0.0319262 0)
(-0.00670156 0.0506208 0)
(-0.012781 0.0671296 0)
(-0.0202545 0.0813499 0)
(-0.0288548 0.0932344 0)
(-0.0383109 0.102786 0)
(-0.048364 0.110052 0)
(-0.0587783 0.115117 0)
(-0.0693426 0.118094 0)
(-0.079871 0.119118 0)
(-0.0902034 0.118338 0)
(-0.100204 0.11591 0)
(-0.109762 0.111994 0)
(-0.118785 0.106747 0)
(-0.1272 0.10032 0)
(-0.134952 0.0928559 0)
(-0.141997 0.0844891 0)
(-0.148302 0.0753422 0)
(-0.153842 0.0655275 0)
(-0.158599 0.0551474 0)
(-0.162558 0.0442954 0)
(-0.165706 0.0330578 0)
(-0.168031 0.0215156 0)
(-0.16952 0.00974698 0)
(-0.17016 -0.00217056 0)
(-0.169938 -0.0141574 0)
(-0.168839 -0.0261294 0)
(-0.166847 -0.0379952 0)