/*--------------------------------*- C++ -*----------------------------------*\
  =========                 |
  \\      /  F ield         | OpenFOAM: The Open Source CFD Toolbox
   \\    /   O peration     | Website:  https://openfoam.org
    \\  /    A nd           | Version:  7
     \\/     M anipulation  |
\*---------------------------------------------------------------------------*/
FoamFile
{
    version     2.0;
    format      ascii;
    class       volVectorField;
    location    "0.0658";
    object      U;
}
// * * * * * * * * * * * * * * * * * * * * * * * * * * * * * * * * * * * * * //

dimensions      [0 1 -1 0 0 0 0];

internalField   nonuniform List<vector> 
2500
(
(-0.293796 0.153719 0)
(-0.397927 0.128718 0)
(-0.577968 0.0737926 0)
(-0.69627 0.040878 0)
(-0.765274 0.0234001 0)
(-0.809635 0.0141495 0)
(-0.840256 0.00916624 0)
(-0.862384 0.00636043 0)
(-0.879051 0.00467335 0)
(-0.892041 0.00358512 0)
(-0.902426 0.00283762 0)
(-0.910886 0.00229687 0)
(-0.917872 0.00188906 0)
(-0.923698 0.00157085 0)
(-0.928586 0.0013153 0)
(-0.932699 0.00110472 0)
(-0.936155 0.000927019 0)
(-0.939046 0.000773643 0)
(-0.941439 0.000638353 0)
(-0.943384 0.000516483 0)
(-0.944919 0.000404457 0)
(-0.946072 0.000299468 0)
(-0.946864 0.000199251 0)
(-0.947306 0.000101926 0)
(-0.947407 5.87002e-06 0)
(-0.947168 -9.04129e-05 0)
(-0.946587 -0.000188302 0)
(-0.945657 -0.000289205 0)
(-0.944365 -0.000394633 0)
(-0.942694 -0.000506296 0)
(-0.940621 -0.000626233 0)
(-0.938115 -0.000756982 0)
(-0.935136 -0.000901809 0)
(-0.931632 -0.00106505 0)
(-0.927537 -0.00125264 0)
(-0.922762 -0.00147285 0)
(-0.91719 -0.00173768 0)
(-0.910662 -0.00206504 0)
(-0.90296 -0.00248294 0)
(-0.893775 -0.0030373 0)
(-0.882658 -0.00380772 0)
(-0.868925 -0.0049397 0)
(-0.851494 -0.00671205 0)
(-0.828564 -0.00967615 0)
(-0.797121 -0.0149196 0)
(-0.752019 -0.0244964 0)
(-0.68251 -0.0421423 0)
(-0.564905 -0.0746085 0)
(-0.389297 -0.128117 0)
(-0.290202 -0.152368 0)
(-0.00515795 0.302899 0)
(-0.0270652 0.307345 0)
(-0.17136 0.217809 0)
(-0.308282 0.146615 0)
(-0.417274 0.0992595 0)
(-0.502601 0.069014 0)
(-0.569101 0.0497737 0)
(-0.621176 0.0372416 0)
(-0.662503 0.028764 0)
(-0.695806 0.0227934 0)
(-0.723017 0.0184277 0)
(-0.745511 0.0151274 0)
(-0.764277 0.0125583 0)
(-0.780036 0.0105056 0)
(-0.79332 0.00882612 0)
(-0.804527 0.0074211 0)
(-0.813957 0.00622066 0)
(-0.82184 0.0051739 0)
(-0.828349 0.00424297 0)
(-0.833618 0.00339904 0)
(-0.837745 0.0026197 0)
(-0.840807 0.00188714 0)
(-0.842855 0.00118682 0)
(-0.843926 0.000506527 0)
(-0.84404 -0.000164355 0)
(-0.843205 -0.000835497 0)
(-0.841414 -0.0015161 0)
(-0.838651 -0.00221546 0)
(-0.834884 -0.00294349 0)
(-0.83007 -0.00371134 0)
(-0.824149 -0.00453216 0)
(-0.817042 -0.00542211 0)
(-0.808646 -0.00640166 0)
(-0.798832 -0.0074975 0)
(-0.787431 -0.00874524 0)
(-0.774224 -0.0101934 0)
(-0.758925 -0.0119099 0)
(-0.741158 -0.0139915 0)
(-0.72042 -0.0165803 0)
(-0.696028 -0.0198916 0)
(-0.667049 -0.0242611 0)
(-0.632188 -0.0302299 0)
(-0.589635 -0.0386943 0)
(-0.536876 -0.0511668 0)
(-0.470594 -0.0701757 0)
(-0.386938 -0.0996694 0)
(-0.281718 -0.14507 0)
(-0.151441 -0.212577 0)
(-0.0164055 -0.298154 0)
(-0.00097731 -0.294656 0)
(0.0321093 0.264053 0)
(0.0563392 0.362374 0)
(-0.00373295 0.325052 0)
(-0.0960946 0.260654 0)
(-0.192601 0.201033 0)
(-0.281552 0.154033 0)
(-0.358825 0.119128 0)
(-0.424203 0.0935635 0)
(-0.479034 0.0747066 0)
(-0.524997 0.0605691 0)
(-0.563639 0.0497558 0)
(-0.596256 0.0413089 0)
(-0.623891 0.0345708 0)
(-0.647364 0.0290851 0)
(-0.667318 0.0245299 0)
(-0.684255 0.0206738 0)
(-0.698566 0.0173473 0)
(-0.710557 0.0144241 0)
(-0.720467 0.0118083 0)
(-0.728481 0.00942565 0)
(-0.734741 0.00721769 0)
(-0.739352 0.00513742 0)
(-0.742393 0.00314614 0)
(-0.743917 0.00121112 0)
(-0.743955 -0.00069628 0)
(-0.742521 -0.00260211 0)
(-0.739608 -0.00453126 0)
(-0.735195 -0.00650874 0)
(-0.729242 -0.00856108 0)
(-0.721688 -0.0107178 0)
(-0.712455 -0.0130135 0)
(-0.701436 -0.0154899 0)
(-0.688497 -0.0181994 0)
(-0.673467 -0.0212087 0)
(-0.65613 -0.0246056 0)
(-0.63621 -0.0285068 0)
(-0.613362 -0.0330702 0)
(-0.587143 -0.0385138 0)
(-0.556993 -0.0451419 0)
(-0.522199 -0.0533871 0)
(-0.481869 -0.0638706 0)
(-0.434914 -0.0774909 0)
(-0.380066 -0.0955392 0)
(-0.316032 -0.119823 0)
(-0.241943 -0.15268 0)
(-0.15849 -0.196437 0)
(-0.0699828 -0.251264 0)
(0.0122822 -0.309843 0)
(0.0620495 -0.343157 0)
(0.0330426 -0.249864 0)
(0.0271392 0.205275 0)
(0.0636649 0.357968 0)
(0.054892 0.375932 0)
(0.0073871 0.338919 0)
(-0.0604579 0.286397 0)
(-0.134306 0.235636 0)
(-0.205997 0.192394 0)
(-0.271747 0.157364 0)
(-0.330283 0.129491 0)
(-0.381591 0.107359 0)
(-0.426205 0.0896734 0)
(-0.464841 0.0753835 0)
(-0.498223 0.0636801 0)
(-0.527007 0.0539514 0)
(-0.55176 0.0457368 0)
(-0.572953 0.0386884 0)
(-0.590978 0.0325413 0)
(-0.606152 0.0270916 0)
(-0.61873 0.0221805 0)
(-0.628914 0.0176827 0)
(-0.636864 0.0134978 0)
(-0.642703 0.00954398 0)
(-0.646522 0.00575305 0)
(-0.648385 0.00206698 0)
(-0.648331 -0.00156531 0)
(-0.646378 -0.00519039 0)
(-0.642526 -0.00885264 0)
(-0.636753 -0.0125964 0)
(-0.629018 -0.0164683 0)
(-0.619261 -0.0205196 0)
(-0.607399 -0.0248095 0)
(-0.593324 -0.0294083 0)
(-0.5769 -0.0344024 0)
(-0.557958 -0.0399001 0)
(-0.536291 -0.0460398 0)
(-0.511644 -0.0530008 0)
(-0.48371 -0.0610176 0)
(-0.452125 -0.0703998 0)
(-0.416459 -0.0815581 0)
(-0.376235 -0.0950371 0)
(-0.330951 -0.111553 0)
(-0.280164 -0.132025 0)
(-0.223662 -0.157567 0)
(-0.161803 -0.189363 0)
(-0.0961388 -0.228216 0)
(-0.0304731 -0.273317 0)
(0.0275501 -0.319321 0)
(0.064942 -0.350672 0)
(0.0657514 -0.331818 0)
(0.026878 -0.189849 0)
(0.0184355 0.163551 0)
(0.0529653 0.331902 0)
(0.0681239 0.38758 0)
(0.0520763 0.380552 0)
(0.0119967 0.345115 0)
(-0.0413871 0.300833 0)
(-0.0999032 0.257262 0)
(-0.15834 0.21825 0)
(-0.213751 0.1848 0)
(-0.264702 0.156663 0)
(-0.310675 0.133138 0)
(-0.351652 0.113435 0)
(-0.387864 0.0968291 0)
(-0.419646 0.0827011 0)
(-0.447359 0.0705447 0)
(-0.471348 0.0599523 0)
(-0.491925 0.0505974 0)
(-0.50936 0.0422187 0)
(-0.523881 0.0346062 0)
(-0.535677 0.0275897 0)
(-0.544902 0.0210301 0)
(-0.551678 0.0148117 0)
(-0.556097 0.00883738 0)
(-0.558226 0.00302315 0)
(-0.558111 -0.00270512 0)
(-0.555775 -0.0084152 0)
(-0.551222 -0.0141715 0)
(-0.544439 -0.0200378 0)
(-0.535392 -0.0260805 0)
(-0.524032 -0.0323717 0)
(-0.510291 -0.0389925 0)
(-0.494079 -0.046038 0)
(-0.475287 -0.0536218 0)
(-0.453783 -0.0618833 0)
(-0.429415 -0.0709949 0)
(-0.402006 -0.0811721 0)
(-0.371363 -0.0926856 0)
(-0.337285 -0.105874 0)
(-0.299588 -0.121158 0)
(-0.258141 -0.139047 0)
(-0.212946 -0.160135 0)
(-0.16427 -0.18505 0)
(-0.112859 -0.214321 0)
(-0.0602889 -0.248056 0)
(-0.0094461 -0.285251 0)
(0.0348982 -0.322429 0)
(0.0655691 -0.35118 0)
(0.0734325 -0.354366 0)
(0.0532082 -0.301699 0)
(0.0179158 -0.14826 0)
(0.011929 0.134837 0)
(0.0406421 0.301161 0)
(0.0647632 0.378985 0)
(0.0675287 0.396948 0)
(0.0487406 0.380664 0)
(0.0144649 0.347943 0)
(-0.0290212 0.309553 0)
(-0.0767082 0.271288 0)
(-0.125066 0.235862 0)
(-0.171849 0.204265 0)
(-0.215758 0.176594 0)
(-0.256131 0.152542 0)
(-0.292703 0.131647 0)
(-0.325442 0.113425 0)
(-0.354445 0.0974219 0)
(-0.379872 0.0832409 0)
(-0.401906 0.0705418 0)
(-0.420726 0.0590383 0)
(-0.436501 0.048491 0)
(-0.44938 0.0386994 0)
(-0.459491 0.0294953 0)
(-0.466939 0.0207364 0)
(-0.471807 0.0123005 0)
(-0.47416 0.00408128 0)
(-0.474043 -0.00401596 0)
(-0.471484 -0.012078 0)
(-0.466495 -0.0201868 0)
(-0.459073 -0.0284234 0)
(-0.449202 -0.0368702 0)
(-0.43685 -0.0456155 0)
(-0.421976 -0.0547564 0)
(-0.404527 -0.0644039 0)
(-0.384441 -0.074687 0)
(-0.361647 -0.0857585 0)
(-0.336075 -0.0978011 0)
(-0.307661 -0.111033 0)
(-0.27636 -0.125714 0)
(-0.242172 -0.142146 0)
(-0.205177 -0.16067 0)
(-0.165594 -0.181646 0)
(-0.123872 -0.205399 0)
(-0.0808218 -0.232113 0)
(-0.0378025 -0.261612 0)
(0.00303841 -0.292962 0)
(0.0385303 -0.323773 0)
(0.064382 -0.349075 0)
(0.0754246 -0.359701 0)
(0.066922 -0.340421 0)
(0.0400858 -0.268996 0)
(0.0114453 -0.119993 0)
(0.00783932 0.114403 0)
(0.0308567 0.272171 0)
(0.0567452 0.3614 0)
(0.0694789 0.397648 0)
(0.0651958 0.39863 0)
(0.046259 0.378868 0)
(0.016655 0.348609 0)
(-0.0196288 0.314382 0)
(-0.0592571 0.279972 0)
(-0.0997401 0.247358 0)
(-0.139364 0.217409 0)
(-0.177023 0.190363 0)
(-0.212053 0.166122 0)
(-0.244091 0.144427 0)
(-0.272972 0.124961 0)
(-0.298653 0.107401 0)
(-0.321167 0.0914405 0)
(-0.34058 0.0768059 0)
(-0.356981 0.0632545 0)
(-0.370459 0.0505753 0)
(-0.3811 0.0385853 0)
(-0.388981 0.0271258 0)
(-0.394169 0.0160581 0)
(-0.396718 0.0052596 0)
(-0.396669 -0.00537978 0)
(-0.394054 -0.015961 0)
(-0.388892 -0.0265794 0)
(-0.381194 -0.0373275 0)
(-0.370962 -0.0482987 0)
(-0.358194 -0.0595904 0)
(-0.342881 -0.071307 0)
(-0.325015 -0.083564 0)
(-0.304591 -0.0964911 0)
(-0.281613 -0.110236 0)
(-0.256104 -0.124966 0)
(-0.228122 -0.14087 0)
(-0.197773 -0.158155 0)
(-0.165246 -0.177036 0)
(-0.130856 -0.197715 0)
(-0.0950972 -0.220337 0)
(-0.0587286 -0.244906 0)
(-0.0228742 -0.271147 0)
(0.0108583 -0.298261 0)
(0.0402722 -0.324553 0)
(0.0625629 -0.346852 0)
(0.0745261 -0.359754 0)
(0.0731323 -0.354761 0)
(0.0568921 -0.319702 0)
(0.0299454 -0.239394 0)
(0.00743602 -0.100141 0)
(0.00538943 0.0994146 0)
(0.0238183 0.246729 0)
(0.0484404 0.340625 0)
(0.0657661 0.389205 0)
(0.0706319 0.404203 0)
(0.0630147 0.396714 0)
(0.0449436 0.375619 0)
(0.0191771 0.347313 0)
(-0.0115447 0.316039 0)
(-0.0448862 0.284408 0)
(-0.0790307 0.253896 0)
(-0.112649 0.225239 0)
(-0.144816 0.198717 0)
(-0.174918 0.174343 0)
(-0.202569 0.151982 0)
(-0.22754 0.131434 0)
(-0.249714 0.112466 0)
(-0.269041 0.0948508 0)
(-0.285518 0.078368 0)
(-0.299166 0.0628173 0)
(-0.310022 0.0480175 0)
(-0.318126 0.033806 0)
(-0.32352 0.0200378 0)
(-0.326244 0.00658239 0)
(-0.326332 -0.00667835 0)
(-0.323817 -0.0198532 0)
(-0.318724 -0.0330444 0)
(-0.311079 -0.04635 0)
(-0.300906 -0.0598668 0)
(-0.288229 -0.0736933 0)
(-0.273078 -0.0879316 0)
(-0.255492 -0.10269 0)
(-0.235526 -0.118084 0)
(-0.213259 -0.134239 0)
(-0.188806 -0.151286 0)
(-0.162333 -0.16936 0)
(-0.134079 -0.188585 0)
(-0.104387 -0.209061 0)
(-0.0737419 -0.230824 0)
(-0.0428164 -0.253788 0)
(-0.0125318 -0.277655 0)
(0.0158834 -0.301762 0)
(0.0408471 -0.324866 0)
(0.0604244 -0.344835 0)
(0.0724477 -0.358246 0)
(0.074856 -0.359949 0)
(0.06631 -0.342745 0)
(0.047271 -0.297477 0)
(0.0227117 -0.21419 0)
(0.00504365 -0.0857941 0)
(0.00390312 0.08802 0)
(0.0188426 0.224901 0)
(0.0411715 0.319518 0)
(0.0600853 0.375879 0)
(0.0703499 0.401556 0)
(0.0706288 0.404702 0)
(0.0615392 0.392579 0)
(0.0447303 0.370965 0)
(0.022227 0.344099 0)
(-0.00400158 0.314885 0)
(-0.0322531 0.285197 0)
(-0.061157 0.256164 0)
(-0.0896641 0.2284 0)
(-0.117003 0.202184 0)
(-0.142625 0.177585 0)
(-0.166154 0.154546 0)
(-0.187341 0.132941 0)
(-0.206029 0.11261 0)
(-0.222126 0.0933803 0)
(-0.235585 0.0750802 0)
(-0.246386 0.0575461 0)
(-0.254531 0.0406254 0)
(-0.260033 0.0241773 0)
(-0.262914 0.00807318 0)
(-0.263199 -0.00780528 0)
(-0.260917 -0.0235672 0)
(-0.256102 -0.0393143 0)
(-0.248791 -0.0551431 0)
(-0.239026 -0.0711466 0)
(-0.226862 -0.0874156 0)
(-0.212363 -0.104041 0)
(-0.195614 -0.121112 0)
(-0.176724 -0.13872 0)
(-0.15584 -0.156953 0)
(-0.133152 -0.17589 0)
(-0.108918 -0.195596 0)
(-0.0834767 -0.216102 0)
(-0.0572762 -0.237378 0)
(-0.0309031 -0.259298 0)
(-0.00511528 -0.281569 0)
(0.0191271 -0.303643 0)
(0.0406412 -0.324585 0)
(0.05803 -0.342892 0)
(0.0697526 -0.356277 0)
(0.0743049 -0.361421 0)
(0.0705745 -0.353781 0)
(0.0583592 -0.327573 0)
(0.0391029 -0.276157 0)
(0.0176015 -0.193155 0)
(0.00358987 -0.07508 0)
(0.0029635 0.0790438 0)
(0.0152758 0.206229 0)
(0.0351514 0.299374 0)
(0.0540717 0.360277 0)
(0.0672679 0.393738 0)
(0.0728079 0.405605 0)
(0.0704023 0.401605 0)
(0.0608328 0.386696 0)
(0.0454514 0.364823 0)
(0.0257873 0.338925 0)
(0.00330713 0.311076 0)
(-0.0207033 0.282666 0)
(-0.0451811 0.254573 0)
(-0.0692839 0.22731 0)
(-0.0923663 0.201138 0)
(-0.113947 0.176152 0)
(-0.133676 0.152344 0)
(-0.151305 0.129638 0)
(-0.166665 0.107925 0)
(-0.179643 0.0870778 0)
(-0.190168 0.0669649 0)
(-0.198202 0.0474549 0)
(-0.203729 0.0284226 0)
(-0.206749 0.00974983 0)
(-0.207276 -0.00867302 0)
(-0.205336 -0.0269477 0)
(-0.200965 -0.0451686 0)
(-0.19421 -0.0634231 0)
(-0.185132 -0.0817929 0)
(-0.173808 -0.100354 0)
(-0.160334 -0.119177 0)
(-0.144833 -0.138326 0)
(-0.12746 -0.157856 0)
(-0.108414 -0.17781 0)
(-0.0879472 -0.198208 0)
(-0.0663785 -0.219037 0)
(-0.044112 -0.240231 0)
(-0.0216545 -0.261643 0)
(0.000365717 -0.282999 0)
(0.0211819 -0.303841 0)
(0.0398804 -0.323445 0)
(0.0554111 -0.340713 0)
(0.066631 -0.354043 0)
(0.0724065 -0.361191 0)
(0.071805 -0.359143 0)
(0.0644038 -0.344077 0)
(0.0506767 -0.311502 0)
(0.0324442 -0.256704 0)
(0.0139319 -0.175661 0)
(0.00266757 -0.0668203 0)
(0.00233818 0.0717593 0)
(0.0126513 0.190185 0)
(0.030239 0.280701 0)
(0.0483807 0.343924 0)
(0.0629423 0.382849 0)
(0.0718215 0.401608 0)
(0.0742075 0.404609 0)
(0.0702647 0.395966 0)
(0.060787 0.379184 0)
(0.0468761 0.35706 0)
(0.0297159 0.331711 0)
(0.0104342 0.304668 0)
(-0.00996982 0.276992 0)
(-0.030653 0.249377 0)
(-0.0509296 0.222253 0)
(-0.0702576 0.19586 0)
(-0.0882185 0.170303 0)
(-0.104497 0.145602 0)
(-0.118859 0.12172 0)
(-0.131137 0.0985851 0)
(-0.141215 0.0761074 0)
(-0.149017 0.0541879 0)
(-0.154498 0.0327256 0)
(-0.157638 0.0116221 0)
(-0.158437 -0.0092162 0)
(-0.156917 -0.0298763 0)
(-0.153113 -0.0504381 0)
(-0.147079 -0.0709736 0)
(-0.13889 -0.0915466 0)
(-0.12864 -0.112212 0)
(-0.11645 -0.133014 0)
(-0.102472 -0.153984 0)
(-0.0868961 -0.175138 0)
(-0.069958 -0.196466 0)
(-0.0519486 -0.217927 0)
(-0.0332255 -0.239434 0)
(-0.0142243 -0.260831 0)
(0.00453013 -0.281866 0)
(0.0224145 -0.302149 0)
(0.0387042 -0.321105 0)
(0.0525826 -0.337901 0)
(0.0631698 -0.351373 0)
(0.0695847 -0.359935 0)
(0.0710535 -0.361503 0)
(0.0670835 -0.353457 0)
(0.0577078 -0.332679 0)
(0.0437488 -0.295756 0)
(0.0270674 -0.239386 0)
(0.0112279 -0.16107 0)
(0.00205197 -0.0602849 0)
(0.00189986 0.0657093 0)
(0.010661 0.176301 0)
(0.0262172 0.263631 0)
(0.0432221 0.327688 0)
(0.058176 0.370302 0)
(0.0690335 0.394357 0)
(0.0747258 0.403195 0)
(0.0750122 0.400151 0)
(0.0702591 0.388241 0)
(0.0611978 0.37002 0)
(0.0487304 0.347537 0)
(0.0337952 0.322367 0)
(0.0172814 0.295672 0)
(-1.65796e-05 0.268278 0)
(-0.0174185 0.240748 0)
(-0.0343602 0.213446 0)
(-0.0503857 0.186586 0)
(-0.0651347 0.160281 0)
(-0.0783283 0.134567 0)
(-0.089756 0.109437 0)
(-0.0992633 0.0848471 0)
(-0.106741 0.0607394 0)
(-0.11212 0.0370447 0)
(-0.115359 0.0136911 0)
(-0.116447 -0.00939204 0)
(-0.115395 -0.0322708 0)
(-0.112238 -0.0550046 0)
(-0.107035 -0.0776444 0)
(-0.099865 -0.100231 0)
(-0.0908373 -0.122793 0)
(-0.0800885 -0.145344 0)
(-0.0677902 -0.167879 0)
(-0.0541536 -0.19037 0)
(-0.0394363 -0.212759 0)
(-0.0239497 -0.234943 0)
(-0.00806589 -0.256765 0)
(0.00777475 -0.277994 0)
(0.0230593 -0.298291 0)
(0.0372017 -0.317187 0)
(0.0495497 -0.334027 0)
(0.0594054 -0.347934 0)
(0.0660638 -0.357743 0)
(0.0688796 -0.36196 0)
(0.0673681 -0.358722 0)
(0.0613493 -0.345814 0)
(0.0511298 -0.320746 0)
(0.0376701 -0.280959 0)
(0.0227056 -0.224164 0)
(0.00917814 -0.14884 0)
(0.00162009 -0.0550106 0)
(0.00157768 0.060596 0)
(0.00910506 0.164203 0)
(0.0228847 0.248135 0)
(0.0386148 0.312054 0)
(0.0533638 0.357031 0)
(0.0652505 0.385062 0)
(0.0731151 0.39865 0)
(0.0764724 0.400456 0)
(0.0753826 0.39302 0)
(0.0702779 0.378607 0)
(0.061807 0.359129 0)
(0.0507158 0.33613 0)
(0.037762 0.310813 0)
(0.0236607 0.284085 0)
(0.00905374 0.256603 0)
(-0.0055034 0.228832 0)
(-0.0195438 0.201081 0)
(-0.0326846 0.173547 0)
(-0.0446185 0.146344 0)
(-0.0551051 0.119522 0)
(-0.0639609 0.0930948 0)
(-0.0710515 0.0670462 0)
(-0.0762841 0.0413447 0)
(-0.0796017 0.0159504 0)
(-0.080979 -0.00917881 0)
(-0.0804195 -0.0340832 0)
(-0.0779534 -0.0587969 0)
(-0.073638 -0.0833456 0)
(-0.0675575 -0.107743 0)
(-0.0598258 -0.131988 0)
(-0.0505882 -0.156061 0)
(-0.0400259 -0.17992 0)
(-0.0283598 -0.203493 0)
(-0.0158555 -0.226672 0)
(-0.00282785 -0.249301 0)
(0.0103547 -0.271164 0)
(0.0232675 -0.291963 0)
(0.0354304 -0.311302 0)
(0.0463133 -0.328652 0)
(0.0553498 -0.343324 0)
(0.0619634 -0.354434 0)
(0.0656095 -0.360868 0)
(0.065838 -0.36126 0)
(0.0623809 -0.353991 0)
(0.0552648 -0.337222 0)
(0.0449401 -0.308992 0)
(0.0323803 -0.267403 0)
(0.0191262 -0.210884 0)
(0.00758052 -0.138545 0)
(0.00130322 -0.0506925 0)
(0.00133085 0.0562186 0)
(0.00785319 0.153601 0)
(0.0200784 0.234125 0)
(0.0345048 0.297282 0)
(0.0486851 0.343655 0)
(0.0609425 0.374602 0)
(0.0701258 0.391984 0)
(0.0756196 0.397898 0)
(0.0772774 0.39445 0)
(0.0753026 0.38361 0)
(0.0701312 0.367112 0)
(0.0623311 0.346422 0)
(0.0525244 0.322735 0)
(0.0413315 0.296993 0)
(0.0293352 0.269918 0)
(0.0170598 0.242048 0)
(0.00496196 0.213771 0)
(-0.00657155 0.185358 0)
(-0.0172209 0.15699 0)
(-0.026728 0.128781 0)
(-0.0348904 0.100795 0)
(-0.0415545 0.0730642 0)
(-0.0466102 0.0455964 0)
(-0.0499856 0.0183874 0)
(-0.0516434 -0.00857301 0)
(-0.0515776 -0.0352952 0)
(-0.0498125 -0.0617851 0)
(-0.0464013 -0.0880395 0)
(-0.0414269 -0.114043 0)
(-0.0350031 -0.139762 0)
(-0.0272763 -0.165144 0)
(-0.0184285 -0.190108 0)
(-0.00867987 -0.214542 0)
(0.00170809 -0.238293 0)
(0.0124299 -0.261156 0)
(0.023135 -0.282866 0)
(0.0334281 -0.303076 0)
(0.0428742 -0.321346 0)
(0.0510077 -0.337116 0)
(0.0573501 -0.34969 0)
(0.0614377 -0.358207 0)
(0.0628619 -0.361632 0)
(0.0613253 -0.358745 0)
(0.0567126 -0.348159 0)
(0.0491756 -0.32837 0)
(0.039222 -0.29785 0)
(0.0277687 -0.255202 0)
(0.0161445 -0.199362 0)
(0.00630206 -0.129852 0)
(0.00106152 -0.0471226 0)
(0.00113489 0.0524374 0)
(0.00681854 0.144272 0)
(0.0176723 0.221493 0)
(0.0308162 0.28351 0)
(0.0442075 0.330581 0)
(0.0563787 0.363614 0)
(0.0662426 0.383979 0)
(0.0731306 0.393313 0)
(0.0767662 0.393346 0)
(0.0771868 0.385763 0)
(0.0746577 0.37211 0)
(0.0695923 0.353745 0)
(0.0624841 0.33182 0)
(0.0538552 0.30728 0)
(0.0442179 0.280879 0)
(0.0340512 0.253209 0)
(0.0237856 0.224715 0)
(0.013797 0.195733 0)
(0.00440451 0.166502 0)
(-0.00412756 0.137194 0)
(-0.0115864 0.107923 0)
(-0.0178065 0.0787674 0)
(-0.0226653 0.049777 0)
(-0.0260789 0.0209847 0)
(-0.0279992 -0.00758587 0)
(-0.0284113 -0.0359133 0)
(-0.0273313 -0.0639727 0)
(-0.0248063 -0.0917308 0)
(-0.0209136 -0.119141 0)
(-0.0157618 -0.146139 0)
(-0.0094919 -0.172636 0)
(-0.00227915 -0.198517 0)
(0.00566555 -0.223631 0)
(0.014094 -0.247784 0)
(0.0227199 -0.270732 0)
(0.03122 -0.292167 0)
(0.039237 -0.311709 0)
(0.0463868 -0.328889 0)
(0.0522699 -0.343136 0)
(0.0564903 -0.353763 0)
(0.0586822 -0.359955 0)
(0.0585471 -0.360765 0)
(0.0559005 -0.355119 0)
(0.0507281 -0.341846 0)
(0.0432477 -0.319725 0)
(0.0339689 -0.287573 0)
(0.023718 -0.244372 0)
(0.0136186 -0.189421 0)
(0.00525328 -0.122507 0)
(0.000870815 -0.0441553 0)
(0.000974421 0.0491527 0)
(0.00594195 0.136048 0)
(0.0155714 0.21014 0)
(0.0274742 0.270802 0)
(0.0399434 0.318081 0)
(0.0517096 0.352559 0)
(0.0617774 0.375234 0)
(0.0694751 0.387379 0)
(0.0744526 0.3904 0)
(0.0766327 0.385725 0)
(0.0761499 0.374713 0)
(0.0732889 0.358602 0)
(0.0684285 0.338478 0)
(0.0619957 0.315264 0)
(0.0544291 0.289726 0)
(0.046154 0.262484 0)
(0.0375646 0.234028 0)
(0.0290146 0.204741 0)
(0.0208121 0.174917 0)
(0.0132181 0.144774 0)
(0.00644743 0.114476 0)
(0.000671462 0.0841442 0)
(-0.0039795 0.0538697 0)
(-0.00741305 0.0237222 0)
(-0.00957212 -0.00623993 0)
(-0.0104328 -0.0359626 0)
(-0.0100027 -0.0653897 0)
(-0.00832009 -0.0944571 0)
(-0.00545374 -0.123087 0)
(-0.00150283 -0.151184 0)
(0.00340221 -0.178627 0)
(0.00909899 -0.205267 0)
(0.0153924 -0.230918 0)
(0.0220544 -0.25535 0)
(0.0288247 -0.278286 0)
(0.0354133 -0.299387 0)
(0.041505 -0.318248 0)
(0.0467676 -0.334385 0)
(0.0508647 -0.347226 0)
(0.0534736 -0.356109 0)
(0.0543102 -0.360271 0)
(0.0531607 -0.358857 0)
(0.0499198 -0.35093 0)
(0.0446341 -0.335508 0)
(0.0375465 -0.311603 0)
(0.0291351 -0.278309 0)
(0.020121 -0.23489 0)
(0.0114406 -0.180904 0)
(0.00437236 -0.116317 0)
(0.000715745 -0.041686 0)
(0.000839348 0.0462921 0)
(0.00518214 0.128798 0)
(0.0137037 0.199976 0)
(0.024412 0.259187 0)
(0.0358792 0.306336 0)
(0.0470165 0.341772 0)
(0.0569315 0.366213 0)
(0.0649806 0.38064 0)
(0.0707807 0.386193 0)
(0.0741803 0.38407 0)
(0.0752174 0.375458 0)
(0.0740738 0.361471 0)
(0.0710302 0.343117 0)
(0.0664263 0.321283 0)
(0.0606287 0.296724 0)
(0.0540057 0.270076 0)
(0.0469093 0.241857 0)
(0.0396637 0.212487 0)
(0.0325576 0.182301 0)
(0.0258412 0.15156 0)
(0.019725 0.120471 0)
(0.0143802 0.0891952 0)
(0.0099404 0.0578623 0)
(0.00650348 0.0265779 0)
(0.00413356 -0.00456569 0)
(0.0028627 -0.0354824 0)
(0.00269234 -0.0660853 0)
(0.00359418 -0.0962798 0)
(0.00551067 -0.125959 0)
(0.00835522 -0.154995 0)
(0.012012 -0.183239 0)
(0.0163359 -0.210509 0)
(0.0211524 -0.236589 0)
(0.0262584 -0.261219 0)
(0.0314238 -0.284094 0)
(0.0363948 -0.304851 0)
(0.0408992 -0.323067 0)
(0.0446554 -0.338254 0)
(0.0473842 -0.349848 0)
(0.0488257 -0.357214 0)
(0.048761 -0.359648 0)
(0.047039 -0.356379 0)
(0.0436065 -0.346595 0)
(0.0385414 -0.329473 0)
(0.0320837 -0.304219 0)
(0.0246608 -0.270138 0)
(0.0168859 -0.226711 0)
(0.00952839 -0.17368 0)
(0.00361553 -0.111134 0)
(0.000586119 -0.0396383 0)
(0.000722823 0.0438019 0)
(0.00450964 0.122424 0)
(0.0120151 0.190926 0)
(0.0215734 0.248671 0)
(0.0319911 0.295468 0)
(0.0423406 0.3315 0)
(0.0518348 0.35727 0)
(0.0598769 0.373531 0)
(0.0660788 0.381203 0)
(0.0702455 0.381291 0)
(0.0723473 0.374823 0)
(0.0724864 0.362792 0)
(0.0708619 0.346128 0)
(0.067737 0.325668 0)
(0.0634108 0.302149 0)
(0.0581951 0.276205 0)
(0.052397 0.248372 0)
(0.0463065 0.219095 0)
(0.0401878 0.188741 0)
(0.0342744 0.157607 0)
(0.0287667 0.125938 0)
(0.0238312 0.0939296 0)
(0.0196007 0.061747 0)
(0.0161756 0.0295294 0)
(0.013625 -0.00259888 0)
(0.0119882 -0.0345213 0)
(0.0112755 -0.0661213 0)
(0.0114696 -0.0972757 0)
(0.0125255 -0.127849 0)
(0.0143717 -0.157686 0)
(0.0169098 -0.186609 0)
(0.020015 -0.214409 0)
(0.0235366 -0.240842 0)
(0.0272995 -0.265624 0)
(0.0311058 -0.288425 0)
(0.0347391 -0.308866 0)
(0.0379694 -0.326513 0)
(0.0405619 -0.340874 0)
(0.042288 -0.351401 0)
(0.04294 -0.35749 0)
(0.0423496 -0.358488 0)
(0.0404099 -0.353705 0)
(0.0370987 -0.342434 0)
(0.0325035 -0.323983 0)
(0.0268434 -0.297716 0)
(0.0204849 -0.263103 0)
(0.0139363 -0.219786 0)
(0.00781908 -0.167641 0)
(0.00295107 -0.106842 0)
(0.000474931 -0.0379558 0)
(0.00062004 0.0416418 0)
(0.00390299 0.116848 0)
(0.0104643 0.182927 0)
(0.0189123 0.23925 0)
(0.0282522 0.285562 0)
(0.0377001 0.321922 0)
(0.0465715 0.348676 0)
(0.0543267 0.366397 0)
(0.0605918 0.375825 0)
(0.0651514 0.377804 0)
(0.0679309 0.37322 0)
(0.0689732 0.362959 0)
(0.0684116 0.347869 0)
(0.0664438 0.328736 0)
(0.0633079 0.306268 0)
(0.0592622 0.281092 0)
(0.0545687 0.253747 0)
(0.0494807 0.224698 0)
(0.0442344 0.194334 0)
(0.0390425 0.162982 0)
(0.0340912 0.130915 0)
(0.0295382 0.0983618 0)
(0.0255121 0.0655183 0)
(0.0221131 0.0325539 0)
(0.0194134 -0.000378192 0)
(0.0174579 -0.033133 0)
(0.0162658 -0.0655669 0)
(0.0158305 -0.0975302 0)
(0.0161211 -0.128861 0)
(0.0170822 -0.15938 0)
(0.0186347 -0.188883 0)
(0.0206761 -0.217137 0)
(0.0230817 -0.243875 0)
(0.0257057 -0.268791 0)
(0.0283834 -0.291536 0)
(0.0309352 -0.311717 0)
(0.0331715 -0.328894 0)
(0.0348999 -0.342576 0)
(0.0359357 -0.352229 0)
(0.0361138 -0.357279 0)
(0.0353039 -0.35712 0)
(0.0334282 -0.351129 0)
(0.0304799 -0.338689 0)
(0.0265407 -0.319216 0)
(0.0217973 -0.292194 0)
(0.0165507 -0.257224 0)
(0.0112092 -0.214068 0)
(0.0062642 -0.162702 0)
(0.00235555 -0.103357 0)
(0.00037721 -0.0365967 0)
(0.000527536 0.0397815 0)
(0.00334625 0.112013 0)
(0.00901946 0.175931 0)
(0.0163908 0.230918 0)
(0.0246367 0.276675 0)
(0.0331007 0.313175 0)
(0.0411965 0.340642 0)
(0.0484469 0.359511 0)
(0.0545048 0.370379 0)
(0.0591511 0.373953 0)
(0.0622847 0.371002 0)
(0.0639057 0.362313 0)
(0.0640959 0.34866 0)
(0.0629982 0.330774 0)
(0.0607971 0.309332 0)
(0.0577012 0.284946 0)
(0.0539287 0.258154 0)
(0.0496962 0.22943 0)
(0.0452094 0.19918 0)
(0.0406577 0.167751 0)
(0.0362099 0.135443 0)
(0.0320115 0.102509 0)
(0.0281843 0.0691723 0)
(0.0248256 0.0356283 0)
(0.0220086 0.00205635 0)
(0.0197829 -0.0313738 0)
(0.0181754 -0.0644942 0)
(0.0171904 -0.0971316 0)
(0.016811 -0.129101 0)
(0.0169988 -0.160201 0)
(0.0176949 -0.190204 0)
(0.0188205 -0.218858 0)
(0.0202774 -0.245873 0)
(0.02195 -0.270928 0)
(0.0237066 -0.293657 0)
(0.0254034 -0.313657 0)
(0.0268882 -0.33048 0)
(0.0280074 -0.343641 0)
(0.0286134 -0.352617 0)
(0.0285755 -0.356861 0)
(0.0277913 -0.355804 0)
(0.0262008 -0.348881 0)
(0.0238002 -0.335546 0)
(0.0206554 -0.315299 0)
(0.0169133 -0.287721 0)
(0.0128079 -0.252509 0)
(0.00865367 -0.209518 0)
(0.00482603 -0.158795 0)
(0.00181135 -0.100612 0)
(0.000289337 -0.0355297 0)
(0.000442746 0.038198 0)
(0.00282733 0.107872 0)
(0.00765584 0.169896 0)
(0.0139783 0.223663 0)
(0.0211206 0.268847 0)
(0.028541 0.305358 0)
(0.0357459 0.333329 0)
(0.0423227 0.353089 0)
(0.0479592 0.365122 0)
(0.0524454 0.370025 0)
(0.0556671 0.368466 0)
(0.0575953 0.361149 0)
(0.0582726 0.348778 0)
(0.0577968 0.332036 0)
(0.0563059 0.311566 0)
(0.0539636 0.287961 0)
(0.0509466 0.261753 0)
(0.047435 0.233418 0)
(0.0436037 0.203373 0)
(0.0396166 0.171982 0)
(0.0356228 0.139561 0)
(0.0317536 0.106388 0)
(0.0281212 0.0727044 0)
(0.0248178 0.0387296 0)
(0.0219158 0.00466441 0)
(0.0194681 -0.0293 0)
(0.017508 -0.0629747 0)
(0.0160506 -0.0961664 0)
(0.0150923 -0.12867 0)
(0.0146122 -0.160265 0)
(0.0145719 -0.190706 0)
(0.0149164 -0.219721 0)
(0.0155747 -0.247006 0)
(0.0164609 -0.272222 0)
(0.017476 -0.294991 0)
(0.0185103 -0.314901 0)
(0.0194468 -0.3315 0)
(0.0201662 -0.344303 0)
(0.0205535 -0.352799 0)
(0.020505 -0.356459 0)
(0.0199385 -0.354746 0)
(0.0188029 -0.347138 0)
(0.0170892 -0.333143 0)
(0.0148404 -0.312327 0)
(0.0121593 -0.284343 0)
(0.00921306 -0.24896 0)
(0.00622799 -0.206101 0)
(0.00347494 -0.155866 0)
(0.00130494 -0.0985567 0)
(0.000208612 -0.0347319 0)
(0.00036372 0.036874 0)
(0.00233684 0.104391 0)
(0.00635374 0.164791 0)
(0.0116492 0.217479 0)
(0.0176826 0.262108 0)
(0.0240159 0.298546 0)
(0.0302431 0.32686 0)
(0.0360168 0.347298 0)
(0.0410653 0.360256 0)
(0.0451958 0.366246 0)
(0.0482917 0.365853 0)
(0.050306 0.359709 0)
(0.0512517 0.348459 0)
(0.0511903 0.332741 0)
(0.0502198 0.313166 0)
(0.0484634 0.290306 0)
(0.0460594 0.264684 0)
(0.0431524 0.236774 0)
(0.0398863 0.206998 0)
(0.0363987 0.175732 0)
(0.0328174 0.143306 0)
(0.0292573 0.110011 0)
(0.025819 0.0761082 0)
(0.0225879 0.0418337 0)
(0.0196337 0.00740594 0)
(0.0170108 -0.0269662 0)
(0.0147584 -0.061077 0)
(0.0129007 -0.0947163 0)
(0.0114475 -0.127663 0)
(0.0103948 -0.159681 0)
(0.00972452 -0.190509 0)
(0.00940544 -0.219861 0)
(0.00939344 -0.247419 0)
(0.00963218 -0.272831 0)
(0.0100542 -0.295708 0)
(0.0105826 -0.315629 0)
(0.0111333 -0.332138 0)
(0.0116184 -0.344749 0)
(0.0119506 -0.352958 0)
(0.0120489 -0.356247 0)
(0.0118448 -0.354103 0)
(0.0112903 -0.346032 0)
(0.0103653 -0.331583 0)
(0.00908505 -0.310368 0)
(0.007506 -0.28209 0)
(0.00572942 -0.246575 0)
(0.00389817 -0.20379 0)
(0.00218731 -0.153876 0)
(0.000825792 -0.0971557 0)
(0.000132972 -0.0341864 0)
(0.000288927 0.0357966 0)
(0.00186727 0.101545 0)
(0.00509707 0.160593 0)
(0.00938223 0.212356 0)
(0.0143033 0.256478 0)
(0.019518 0.292795 0)
(0.0247032 0.321328 0)
(0.0295764 0.342266 0)
(0.0339098 0.355943 0)
(0.037534 0.362798 0)
(0.0403377 0.363356 0)
(0.042264 0.358189 0)
(0.0433045 0.347894 0)
(0.0434913 0.333068 0)
(0.0428881 0.314294 0)
(0.041582 0.292121 0)
(0.0396755 0.267064 0)
(0.0372791 0.239591 0)
(0.034506 0.210127 0)
(0.0314671 0.179051 0)
(0.0282676 0.146703 0)
(0.0250045 0.113386 0)
(0.0217653 0.0793738 0)
(0.0186265 0.0449148 0)
(0.0156536 0.0102413 0)
(0.0129012 -0.0244249 0)
(0.0104125 -0.0588649 0)
(0.00822037 -0.0928559 0)
(0.00634691 -0.126165 0)
(0.00480415 -0.158543 0)
(0.00359409 -0.189718 0)
(0.0027088 -0.219391 0)
(0.00213054 -0.247234 0)
(0.00183196 -0.272884 0)
(0.00177637 -0.295943 0)
(0.00191845 -0.315982 0)
(0.00220525 -0.332537 0)
(0.00257797 -0.345122 0)
(0.00297437 -0.353231 0)
(0.00333209 -0.356354 0)
(0.00359289 -0.353988 0)
(0.00370748 -0.345659 0)
(0.00364094 -0.330937 0)
(0.00337795 -0.309467 0)
(0.00292748 -0.280985 0)
(0.00232585 -0.24535 0)
(0.00163619 -0.202565 0)
(0.000944045 -0.152796 0)
(0.000365488 -0.0963825 0)
(6.07972e-05 -0.0338814 0)
(0.000217116 0.0349563 0)
(0.00141237 0.0993142 0)
(0.00387222 0.157284 0)
(0.00715869 0.20829 0)
(0.0109649 0.251971 0)
(0.0150383 0.288144 0)
(0.0191352 0.316801 0)
(0.0230375 0.338091 0)
(0.026563 0.352299 0)
(0.0295701 0.359818 0)
(0.0319581 0.361123 0)
(0.0336666 0.356742 0)
(0.0346718 0.347232 0)
(0.0349819 0.333158 0)
(0.034631 0.315076 0)
(0.0336737 0.293518 0)
(0.0321788 0.268987 0)
(0.0302244 0.241943 0)
(0.0278935 0.21281 0)
(0.0252696 0.181971 0)
(0.0224349 0.149768 0)
(0.0194671 0.116513 0)
(0.016439 0.0824862 0)
(0.0134168 0.0479452 0)
(0.0104603 0.013131 0)
(0.0076224 -0.0217254 0)
(0.00494943 -0.0563965 0)
(0.00248121 -0.090651 0)
(0.000251277 -0.124248 0)
(-0.00171305 -0.156929 0)
(-0.00339064 -0.188415 0)
(-0.00476674 -0.218399 0)
(-0.00583323 -0.246543 0)
(-0.00658909 -0.272477 0)
(-0.00704087 -0.295796 0)
(-0.00720309 -0.316059 0)
(-0.00709859 -0.332798 0)
(-0.00675844 -0.345519 0)
(-0.00622149 -0.353713 0)
(-0.00553327 -0.356866 0)
(-0.0047442 -0.354478 0)
(-0.003907 -0.34608 0)
(-0.00307351 -0.331253 0)
(-0.00229103 -0.309653 0)
(-0.00159863 -0.281037 0)
(-0.00102405 -0.245281 0)
(-0.000581413 -0.20241 0)
(-0.000270674 -0.152606 0)
(-8.28713e-05 -0.0962193 0)
(-9.22557e-06 -0.0338091 0)
(0.000147211 0.0343469 0)
(0.000966685 0.0976867 0)
(0.0026671 0.154853 0)
(0.00496163 0.205277 0)
(0.00765051 0.248598 0)
(0.0105666 0.284623 0)
(0.0135438 0.313328 0)
(0.0164273 0.334839 0)
(0.0190824 0.34941 0)
(0.0213973 0.357403 0)
(0.0232862 0.35926 0)
(0.0246891 0.355475 0)
(0.0255712 0.346578 0)
(0.0259207 0.333109 0)
(0.0257459 0.315602 0)
(0.0250711 0.294573 0)
(0.0239337 0.270513 0)
(0.0223805 0.243876 0)
(0.0204643 0.215081 0)
(0.0182416 0.184509 0)