/*--------------------------------*- C++ -*----------------------------------*\
  =========                 |
  \\      /  F ield         | OpenFOAM: The Open Source CFD Toolbox
   \\    /   O peration     | Website:  https://openfoam.org
    \\  /    A nd           | Version:  7
     \\/     M anipulation  |
\*---------------------------------------------------------------------------*/
FoamFile
{
    version     2.0;
    format      ascii;
    class       surfaceScalarField;
    location    "0.0464";
    object      phi;
}
// * * * * * * * * * * * * * * * * * * * * * * * * * * * * * * * * * * * * * //

dimensions      [0 3 -1 0 0 0 0];

internalField   nonuniform List<scalar> 
4900
(
5.45473e-06
-5.45474e-06
9.95333e-06
-4.4986e-06
1.26941e-05
-2.74079e-06
1.44123e-05
-1.71815e-06
1.55282e-05
-1.11598e-06
1.6281e-05
-7.528e-07
1.68117e-05
-5.30619e-07
1.72017e-05
-3.90006e-07
1.74983e-05
-2.96645e-07
1.77299e-05
-2.31591e-07
1.79142e-05
-1.84317e-07
1.8063e-05
-1.48756e-07
1.81842e-05
-1.21255e-07
1.82837e-05
-9.95141e-08
1.83658e-05
-8.20172e-08
1.84335e-05
-6.77238e-08
1.84894e-05
-5.58927e-08
1.85354e-05
-4.59785e-08
1.85729e-05
-3.75678e-08
1.86033e-05
-3.03381e-08
1.86273e-05
-2.40313e-08
1.86457e-05
-1.84351e-08
1.86591e-05
-1.33694e-08
1.86678e-05
-8.67731e-09
1.8672e-05
-4.21746e-09
1.86718e-05
1.47186e-10
1.86673e-05
4.5355e-09
1.86582e-05
9.08771e-09
1.86443e-05
1.3937e-08
1.8625e-05
1.92343e-08
1.85999e-05
2.51515e-08
1.8568e-05
3.18909e-08
1.85283e-05
3.96997e-08
1.84794e-05
4.88883e-08
1.84196e-05
5.98581e-08
1.83464e-05
7.31427e-08
1.82569e-05
8.94719e-08
1.81471e-05
1.09874e-07
1.80112e-05
1.3585e-07
1.78416e-05
1.69672e-07
1.76266e-05
2.14943e-07
1.7349e-05
2.77654e-07
1.69807e-05
3.68269e-07
1.64748e-05
5.05869e-07
1.5749e-05
7.25826e-07
1.46573e-05
1.09169e-06
1.29451e-05
1.7122e-06
1.0162e-05
2.78308e-06
5.55729e-06
4.60473e-06
5.55729e-06
-1.19191e-07
-5.33554e-06
1.83194e-06
-6.44973e-06
4.41333e-06
-5.32218e-06
6.72912e-06
-4.03393e-06
8.60895e-06
-2.99581e-06
1.00913e-05
-2.23514e-06
1.12558e-05
-1.69517e-06
1.21767e-05
-1.31091e-06
1.29125e-05
-1.03239e-06
1.35067e-05
-8.25761e-07
1.39912e-05
-6.68835e-07
1.43895e-05
-5.47039e-07
1.47189e-05
-4.50684e-07
1.49926e-05
-3.73187e-07
1.52205e-05
-3.09963e-07
1.54105e-05
-2.57727e-07
1.55687e-05
-2.14069e-07
1.56999e-05
-1.77172e-07
1.58079e-05
-1.45632e-07
1.58959e-05
-1.18336e-07
1.59663e-05
-9.43836e-08
1.60209e-05
-7.30214e-08
1.60611e-05
-5.36064e-08
1.6088e-05
-3.55718e-08
1.61022e-05
-1.8402e-08
1.6104e-05
-1.61269e-09
1.60932e-05
1.52696e-08
1.60696e-05
3.27237e-08
1.60323e-05
5.12539e-08
1.59801e-05
7.14113e-08
1.59114e-05
9.38203e-08
1.58241e-05
1.19212e-07
1.57153e-05
1.48471e-07
1.55815e-05
1.82694e-07
1.54181e-05
2.23283e-07
1.52192e-05
2.72068e-07
1.49771e-05
3.31504e-07
1.46821e-05
4.04959e-07
1.43207e-05
4.97173e-07
1.38754e-05
6.1499e-07
1.33218e-05
7.68542e-07
1.26263e-05
9.73187e-07
1.1742e-05
1.25259e-06
1.06045e-05
1.64336e-06
9.12971e-06
2.20059e-06
7.22319e-06
2.99821e-06
4.83091e-06
4.10448e-06
2.1208e-06
5.49319e-06
1.07076e-08
6.71482e-06
5.568e-06
-1.0824e-06
-4.25314e-06
-7.54165e-07
-6.77797e-06
5.89102e-07
-6.66544e-06
2.30084e-06
-5.74567e-06
4.01132e-06
-4.70629e-06
5.56192e-06
-3.78573e-06
6.90543e-06
-3.03868e-06
8.04546e-06
-2.45094e-06
9.00461e-06
-1.99153e-06
9.80964e-06
-1.6308e-06
1.04856e-05
-1.34483e-06
1.10541e-05
-1.11553e-06
1.1533e-05
-9.29508e-07
1.19367e-05
-7.76902e-07
1.22771e-05
-6.50398e-07
1.25639e-05
-5.44496e-07
1.28048e-05
-4.54998e-07
1.30063e-05
-3.78633e-07
1.31734e-05
-3.1281e-07
1.33105e-05
-2.55428e-07
1.34209e-05
-2.0475e-07
1.35072e-05
-1.59305e-07
1.35714e-05
-1.17815e-07
1.3615e-05
-7.91419e-08
1.36388e-05
-4.22397e-08
1.36433e-05
-6.11864e-09
1.36284e-05
3.01945e-08
1.35934e-05
6.76825e-08
1.35373e-05
1.07382e-07
1.34583e-05
1.50418e-07
1.33541e-05
1.98059e-07
1.32215e-05
2.51774e-07
1.30567e-05
3.13315e-07
1.28545e-05
3.84825e-07
1.26088e-05
4.6899e-07
1.23116e-05
5.6924e-07
1.19531e-05
6.90045e-07
1.15207e-05
8.37335e-07
1.09988e-05
1.01909e-06
1.03676e-05
1.24621e-06
9.6025e-06
1.53363e-06
8.67382e-06
1.90187e-06
7.54796e-06
2.37845e-06
6.19302e-06
2.9983e-06
4.59424e-06
3.79937e-06
2.78928e-06
4.80317e-06
9.3679e-07
5.95697e-06
-5.71157e-07
7.00114e-06
-1.03827e-06
7.18193e-06
4.52973e-06
-9.13099e-07
-3.34004e-06
-1.34188e-06
-6.34919e-06
-9.37699e-07
-7.06962e-06
1.95636e-08
-6.70293e-06
1.23608e-06
-5.92281e-06
2.51242e-06
-5.06208e-06
3.73584e-06
-4.26211e-06
4.85367e-06
-3.56877e-06
5.84812e-06
-2.98597e-06
6.71937e-06
-2.50205e-06
7.4759e-06
-2.10136e-06
8.12923e-06
-1.76887e-06
8.6914e-06
-1.49168e-06
9.17375e-06
-1.25925e-06
9.58643e-06
-1.06308e-06
9.93833e-06
-8.96394e-07
1.02371e-05
-7.53738e-07
1.04891e-05
-6.30696e-07
1.07e-05
-5.23638e-07
1.08741e-05
-4.29541e-07
1.10152e-05
-3.45841e-07
1.11262e-05
-2.70318e-07
1.12094e-05
-2.01012e-07
1.12664e-05
-1.36146e-07
1.12982e-05
-7.40728e-08
1.13053e-05
-1.32152e-08
1.12875e-05
4.79814e-08
1.12441e-05
1.11094e-07
1.11737e-05
1.77778e-07
1.10743e-05
2.49826e-07
1.09431e-05
3.29232e-07
1.07766e-05
4.18281e-07
1.05703e-05
5.19652e-07
1.03185e-05
6.3656e-07
1.00146e-05
7.72929e-07
9.65022e-06
9.33633e-07
9.21546e-06
1.1248e-06
8.69859e-06
1.35421e-06
8.08593e-06
1.63175e-06
7.36214e-06
1.97e-06
6.51114e-06
2.38463e-06
5.51859e-06
2.89442e-06
4.37722e-06
3.51982e-06
3.09753e-06
4.27799e-06
1.72703e-06
5.16986e-06
3.80556e-07
6.14965e-06
-7.26238e-07
7.06376e-06
-1.26647e-06
7.54137e-06
-9.16059e-07
6.83151e-06
3.61367e-06
-6.6493e-07
-2.67511e-06
-1.29788e-06
-5.71624e-06
-1.41959e-06
-6.94791e-06
-1.04523e-06
-7.0773e-06
-3.29234e-07
-6.6388e-06
5.70851e-07
-5.96216e-06
1.53684e-06
-5.22809e-06
2.49288e-06
-4.52481e-06
3.39583e-06
-3.88893e-06
4.22436e-06
-3.33058e-06
4.97051e-06
-2.84751e-06
5.63399e-06
-2.43235e-06
6.2186e-06
-2.0763e-06
6.73008e-06
-1.77073e-06
7.17484e-06
-1.50784e-06
7.55929e-06
-1.28084e-06
7.88944e-06
-1.08389e-06
8.17076e-06
-9.12014e-07
8.40805e-06
-7.60928e-07
8.60545e-06
-6.26943e-07
8.76644e-06
-5.06826e-07
8.89383e-06
-3.9771e-07
8.98982e-06
-2.97004e-07
9.056e-06
-2.0232e-07
9.09333e-06
-1.1141e-07
9.10222e-06
-2.21022e-08
9.08245e-06
6.77558e-08
9.03319e-06
1.60353e-07
8.95299e-06
2.5798e-07
8.83971e-06
3.63098e-07
8.69053e-06
4.78414e-07
8.50183e-06
6.06984e-07
8.26917e-06
7.52316e-07
7.98721e-06
9.18516e-07
7.64969e-06
1.11045e-06
7.24937e-06
1.33395e-06
6.77816e-06
1.59601e-06
6.22734e-06
1.90503e-06
5.58815e-06
2.27094e-06
4.85299e-06
2.70516e-06
4.01763e-06
3.22e-06
3.08513e-06
3.82692e-06
2.07243e-06
4.53251e-06
1.02053e-06
5.3299e-06
8.07781e-09
6.18231e-06
-8.35872e-07
6.9936e-06
-1.33138e-06
7.55926e-06
-1.29388e-06
7.50387e-06
-6.85205e-07
6.22284e-06
2.92847e-06
-4.7102e-07
-2.20409e-06
-1.1006e-06
-5.08666e-06
-1.47003e-06
-6.57848e-06
-1.47267e-06
-7.07466e-06
-1.15424e-06
-6.95723e-06
-6.09683e-07
-6.50672e-06
6.73975e-08
-5.90517e-06
8.03202e-07
-5.26062e-06
1.54616e-06
-4.63189e-06
2.26328e-06
-4.0477e-06
2.93524e-06
-3.51946e-06
3.55204e-06
-3.04915e-06
4.10977e-06
-2.63403e-06
4.60824e-06
-2.2692e-06
5.04944e-06
-1.94904e-06
5.43652e-06
-1.66792e-06
5.77312e-06
-1.4205e-06
6.06299e-06
-1.20188e-06
6.30969e-06
-1.00763e-06
6.51647e-06
-8.33729e-07
6.68618e-06
-6.76533e-07
6.82117e-06
-5.32705e-07
6.92332e-06
-3.99154e-07
6.99398e-06
-2.72974e-07
7.03395e-06
-1.51382e-07
7.04351e-06
-3.16652e-08
7.02239e-06
8.88841e-08
6.96971e-06
2.13023e-07
6.88407e-06
3.43626e-07
6.76341e-06
4.83752e-07
6.6051e-06
6.36726e-07
6.40586e-06
8.06225e-07
6.1618e-06
9.96375e-07
5.86846e-06
1.21186e-06
5.52087e-06
1.45804e-06
5.11379e-06
1.74103e-06
4.64203e-06
2.06777e-06
4.10108e-06
2.44597e-06
3.48817e-06
2.88384e-06
2.80398e-06
3.38935e-06
2.05529e-06
3.96869e-06
1.25898e-06
4.62323e-06
4.47486e-07
5.34401e-06
-3.24703e-07
6.10209e-06
-9.75487e-07
6.83309e-06
-1.39604e-06
7.41415e-06
-1.47134e-06
7.63457e-06
-1.13703e-06
7.16957e-06
-4.96801e-07
5.58261e-06
2.43167e-06
-3.40128e-07
-1.86396e-06
-9.02964e-07
-4.52382e-06
-1.36622e-06
-6.11523e-06
-1.58841e-06
-6.85247e-06
-1.55103e-06
-6.9946e-06
-1.29606e-06
-6.76169e-06
-8.84759e-07
-6.31648e-06
-3.76124e-07
-5.76925e-06
1.81643e-07
-5.18965e-06
7.52772e-07
-4.61883e-06
1.31252e-06
-4.07921e-06
1.84485e-06
-3.58148e-06
2.34015e-06
-3.12933e-06
2.79333e-06
-2.72237e-06
3.2023e-06
-2.35801e-06
3.56697e-06
-2.03259e-06
3.88844e-06
-1.74196e-06
4.16845e-06
-1.48189e-06
4.40904e-06
-1.24823e-06
4.61231e-06
-1.03699e-06
4.78018e-06
-8.4441e-07
4.91437e-06
-6.66891e-07
5.01623e-06
-5.01016e-07
5.08675e-06
-3.43494e-07
5.12649e-06
-1.91124e-07
5.13557e-06
-4.07452e-08
5.11364e-06
1.10814e-07
5.05988e-06
2.66786e-07
4.97298e-06
4.30525e-07
4.85117e-06
6.05567e-07
4.6922e-06
7.9569e-07
4.49344e-06
1.00499e-06
4.2519e-06
1.23792e-06
3.96439e-06
1.49938e-06
3.62773e-06
1.7947e-06
3.23912e-06
2.12964e-06
2.79667e-06
2.51022e-06
2.30024e-06
2.9424e-06
1.7527e-06
3.43139e-06
1.16167e-06
3.98038e-06
5.41983e-07
4.58838e-06
-8.13153e-08
5.24653e-06
-6.69613e-07
5.9323e-06
-1.1683e-06
6.60078e-06
-1.50773e-06
7.17252e-06
-1.61245e-06
7.51887e-06
-1.4263e-06
7.44842e-06
-9.60709e-07
6.70397e-06
-3.66835e-07
4.98874e-06
2.06483e-06
-2.55257e-07
-1.60871e-06
-7.4215e-07
-4.03693e-06
-1.22378e-06
-5.6336e-06
-1.56337e-06
-6.51288e-06
-1.7118e-06
-6.84617e-06
-1.67489e-06
-6.7986e-06
-1.48523e-06
-6.50614e-06
-1.1836e-06
-6.07088e-06
-8.08917e-07
-5.56434e-06
-3.93824e-07
-5.03392e-06
3.63579e-08
-4.50939e-06
4.63114e-07
-4.00824e-06
8.73586e-07
-3.5398e-06
1.25932e-06
-3.10811e-06
1.61515e-06
-2.71384e-06
1.93825e-06
-2.35568e-06
2.22739e-06
-2.0311e-06
2.48242e-06
-1.73692e-06
2.70383e-06
-1.46964e-06
2.89246e-06
-1.22562e-06
3.04927e-06
-1.00122e-06
3.17518e-06
-7.92802e-07
3.27098e-06
-5.96811e-07
3.33721e-06
-4.09726e-07
3.37415e-06
-2.28061e-07
3.38173e-06
-4.83342e-08
3.35958e-06
1.32969e-07
3.30693e-06
3.19433e-07
3.22271e-06
5.14752e-07
3.10549e-06
7.22779e-07
2.95363e-06
9.47555e-07
2.76526e-06
1.19335e-06
2.53851e-06
1.46467e-06
2.27166e-06
1.76623e-06
1.96346e-06
2.1029e-06
1.61358e-06
2.47951e-06
1.22327e-06
2.90054e-06
7.96175e-07
3.36949e-06
3.39594e-07
3.88797e-06
-1.34076e-07
4.45405e-06
-6.05561e-07
5.05986e-06
-1.04694e-06
5.68791e-06
-1.42052e-06
6.30588e-06
-1.67955e-06
6.85981e-06
-1.77302e-06
7.26599e-06
-1.65754e-06
7.40339e-06
-1.31979e-06
7.11068e-06
-8.10322e-07
6.1945e-06
-2.81423e-07
4.45984e-06
1.78341e-06
-1.99699e-07
-1.40901e-06
-6.19397e-07
-3.61723e-06
-1.08661e-06
-5.16639e-06
-1.48293e-06
-6.11656e-06
-1.74882e-06
-6.58029e-06
-1.86871e-06
-6.6787e-06
-1.85381e-06
-6.52104e-06
-1.72826e-06
-6.19643e-06
-1.52e-06
-5.7726e-06
-1.25557e-06
-5.29835e-06
-9.57748e-07
-4.80721e-06
-6.44778e-07
-4.32121e-06
-3.30587e-07
-3.85399e-06
-2.536e-08
-3.41333e-06
2.63758e-07
-3.00296e-06
5.31977e-07
-2.6239e-06
7.76265e-07
-2.27539e-06
9.94859e-07
-1.95551e-06
1.18687e-06
-1.66165e-06
1.35197e-06
-1.39073e-06
1.49018e-06
-1.13942e-06
1.60165e-06
-9.04275e-07
1.68658e-06
-6.81738e-07
1.74508e-06
-4.6822e-07
1.77711e-06
-2.60095e-07
1.78247e-06
-5.36958e-08
1.76074e-06
1.54699e-07
1.71129e-06
3.68882e-07
1.63331e-06
5.92738e-07
1.52582e-06
8.30262e-07
1.38782e-06
1.08556e-06
1.21832e-06
1.36285e-06
1.01659e-06
1.6664e-06
7.82377e-07
2.00044e-06
5.16253e-07
2.36903e-06
2.20094e-07
2.77567e-06
-1.02301e-07
3.22293e-06
-4.44428e-07
3.71162e-06
-7.96123e-07
4.23966e-06
-1.14251e-06
4.80044e-06
-1.46304e-06
5.38039e-06
-1.73092e-06
5.95578e-06
-1.91363e-06
6.48859e-06
-1.97562e-06
6.9218e-06
-1.88448e-06
7.17485e-06
-1.62226e-06
7.14117e-06
-1.20261e-06
6.69102e-06
-6.91614e-07
5.68351e-06
-2.2474e-07
3.99296e-06
1.55867e-06
-1.62359e-07
-1.24665e-06
-5.27468e-07
-3.25212e-06
-9.68541e-07
-4.72531e-06
-1.38765e-06
-5.69745e-06
-1.72522e-06
-6.24272e-06
-1.95474e-06
-6.44919e-06
-2.07308e-06
-6.40269e-06
-2.09119e-06
-6.17832e-06
-2.02674e-06
-5.83705e-06
-1.89931e-06
-5.42578e-06
-1.72749e-06
-4.97903e-06
-1.52752e-06
-4.52118e-06
-1.31278e-06
-4.06874e-06
-1.09382e-06
-3.63229e-06
-8.78702e-07
-3.21808e-06
-6.73365e-07
-2.82924e-06
-4.8207e-07
-2.46668e-06
-3.07774e-07
-2.12981e-06
-1.52462e-07
-1.81696e-06
-1.74245e-08
-1.52576e-06
9.65228e-08
-1.25337e-06
1.88863e-07
-9.96616e-07
2.59245e-07
-7.5212e-07
3.07382e-07
-5.16357e-07
3.32982e-07
-2.85696e-07
3.35704e-07
-5.64178e-08
3.15136e-07
1.75267e-07
2.708e-07
4.13218e-07
2.02181e-07
6.61357e-07
1.08787e-07
9.23655e-07
-9.75313e-09
1.2041e-06
-1.53554e-07
1.50665e-06
-3.22278e-07
1.83512e-06
-5.14871e-07
2.19304e-06
-7.29225e-07
2.58338e-06
-9.61735e-07
3.00818e-06
-1.20678e-06
3.46797e-06
-1.45609e-06
3.96093e-06
-1.69815e-06
4.48172e-06
-1.91757e-06
5.01986e-06
-2.09488e-06
5.5577e-06
-2.20686e-06
6.06776e-06
-2.22811e-06
6.50985e-06
-2.13454e-06
6.82824e-06
-1.9095e-06
6.9498e-06
-1.55299e-06
6.78467e-06
-1.09353e-06
6.23156e-06
-5.99737e-07
5.18971e-06
-1.85912e-07
3.57914e-06
1.37276e-06
-1.36511e-07
-1.11014e-06
-4.58725e-07
-2.92991e-06
-8.7164e-07
-4.3124e-06
-1.29554e-06
-5.27355e-06
-1.6754e-06
-5.86285e-06
-1.98023e-06
-6.14435e-06
-2.19816e-06
-6.18477e-06
-2.33049e-06
-6.04599e-06
-2.38638e-06
-5.78115e-06
-2.37878e-06
-5.43339e-06
-2.32162e-06
-5.03618e-06
-2.22822e-06
-4.61459e-06
-2.11034e-06
-4.18661e-06
-1.97796e-06
-3.76467e-06
-1.83915e-06
-3.35689e-06
-1.7003e-06
-2.96809e-06
-1.56633e-06
-2.60066e-06
-1.44095e-06
-2.25519e-06
-1.32691e-06
-1.931e-06
-1.22623e-06
-1.62645e-06
-1.14036e-06
-1.33924e-06
-1.07037e-06
-1.0666e-06
-1.01706e-06
-8.05429e-07
-9.81044e-07
-5.52374e-07
-9.62824e-07
-3.03916e-07
-9.6283e-07
-5.64112e-08
-9.81439e-07
1.93875e-07
-1.01896e-06
4.50737e-07
-1.07559e-06
7.17994e-07
-1.15139e-06
9.99446e-07
-1.2461e-06
1.29881e-06
-1.35908e-06
1.61963e-06
-1.48907e-06
1.96511e-06
-1.63396e-06
2.33793e-06
-1.7905e-06
2.73991e-06
-1.9539e-06
3.17158e-06
-2.11747e-06
3.63155e-06
-2.27223e-06
4.11569e-06
-2.40653e-06
4.61602e-06
-2.50596e-06
5.11929e-06
-2.5536e-06
5.60534e-06
-2.53098e-06
6.04514e-06
-2.42016e-06
6.39902e-06
-2.2072e-06
6.61527e-06
-1.88748e-06
6.63008e-06
-1.47263e-06
6.36981e-06
-9.97987e-07
5.75692e-06
-5.28403e-07
4.72013e-06
-1.58296e-07
3.20903e-06
1.21446e-06
-1.18123e-07
-9.92014e-07
-4.07034e-07
-2.641e-06
-7.93823e-07
-3.92561e-06
-1.21362e-06
-4.85376e-06
-1.61744e-06
-5.45903e-06
-1.97348e-06
-5.78831e-06
-2.26499e-06
-5.89326e-06
-2.48672e-06
-5.82426e-06
-2.64125e-06
-5.62662e-06
-2.7358e-06
-5.33884e-06
-2.77982e-06
-4.99216e-06
-2.7834e-06
-4.61101e-06
-2.7562e-06
-4.21381e-06
-2.70692e-06
-3.81395e-06
-2.64306e-06
-3.42075e-06
-2.57088e-06
-3.04027e-06
-2.49546e-06
-2.67607e-06
-2.42088e-06
-2.32978e-06
-2.35031e-06
-2.00156e-06
-2.28625e-06
-1.69051e-06
-2.23059e-06
-1.39489e-06
-2.18481e-06
-1.11238e-06
-2.15002e-06
-8.40217e-07
-2.12708e-06
-5.75311e-07
-2.11665e-06
-3.14351e-07
-2.11919e-06
-5.38696e-08
-2.13502e-06
2.09706e-07
-2.16427e-06
4.79989e-07
-2.20686e-06
7.60583e-07
-2.26242e-06
1.055e-06
-2.33018e-06
1.36658e-06
-2.40888e-06
1.69832e-06
-2.49653e-06
2.05277e-06
-2.59029e-06
2.43169e-06
-2.68613e-06
2.83576e-06
-2.77866e-06
3.26411e-06
-2.86082e-06
3.71372e-06
-2.92372e-06
4.17859e-06
-2.95655e-06
4.64885e-06
-2.9468e-06
5.10954e-06
-2.88086e-06
5.5394e-06
-2.74532e-06
5.90959e-06
-2.52902e-06
6.18273e-06
-2.22631e-06
6.31256e-06
-1.84115e-06
6.24493e-06
-1.392e-06
5.92067e-06
-9.16212e-07
5.28113e-06
-4.72322e-07
4.27624e-06
-1.37924e-07
2.87463e-06
1.07654e-06
-1.04736e-07
-8.87278e-07
-3.67858e-07
-2.37788e-06
-7.31952e-07
-3.56152e-06
-1.14377e-06
-4.44194e-06
-1.56037e-06
-5.04243e-06
-1.95103e-06
-5.39765e-06
-2.29663e-06
-5.54766e-06
-2.5877e-06
-5.53318e-06
-2.82199e-06
-5.39234e-06
-3.00208e-06
-5.15875e-06
-3.13348e-06
-4.86076e-06
-3.22312e-06
-4.52136e-06
-3.27838e-06
-4.15855e-06
-3.30635e-06
-3.78597e-06
-3.31356e-06
-3.41354e-06
-3.30572e-06
-3.04811e-06
-3.28772e-06
-2.69408e-06
-3.26362e-06
-2.35387e-06
-3.23678e-06
-2.0284e-06
-3.20991e-06
-1.71739e-06
-3.18515e-06
-1.41965e-06
-3.16423e-06
-1.13331e-06
-3.14847e-06
-8.55983e-07
-3.13886e-06
-5.84912e-07
-3.13616e-06
-3.17058e-07
-3.14082e-06
-4.92048e-08
-3.15309e-06
2.21971e-07
-3.17292e-06
4.99817e-07
-3.19996e-06
7.8763e-07
-3.23351e-06
1.08855e-06
-3.2724e-06
1.40546e-06
-3.31488e-06
1.7408e-06
-3.3585e-06
2.09639e-06
-3.39994e-06
2.47312e-06
-3.43483e-06
2.87065e-06
-3.45763e-06
3.28691e-06
-3.46148e-06
3.71757e-06
-3.43821e-06
4.15532e-06
-3.37847e-06
4.5891e-06
-3.27214e-06
5.00321e-06
-3.10915e-06
5.37642e-06
-2.88084e-06
5.68128e-06
-2.58185e-06
5.88375e-06
-2.21284e-06
5.94355e-06
-1.78354e-06
5.81562e-06
-1.31595e-06
5.45308e-06
-8.46718e-07
4.81189e-06
-4.27549e-07
3.85707e-06
-1.22402e-07
2.56949e-06
9.54136e-07
-9.48076e-08
-7.9247e-07
-3.37933e-07
-2.13475e-06
-6.82969e-07
-3.21648e-06
-1.08561e-06
-4.03929e-06
-1.50833e-06
-4.61971e-06
-1.92232e-06
-4.98367e-06
-2.30763e-06
-5.16235e-06
-2.65224e-06
-5.18857e-06
-2.95047e-06
-5.09411e-06
-3.20133e-06
-4.90789e-06
-3.407e-06
-4.65509e-06
-3.5716e-06
-4.35677e-06
-3.70021e-06
-4.02994e-06
-3.79827e-06
-3.68792e-06
-3.87107e-06
-3.34074e-06
-3.92354e-06
-2.99564e-06
-3.96008e-06
-2.65754e-06
-3.98453e-06
-2.32943e-06
-4.00015e-06
-2.01279e-06
-4.00966e-06
-1.70787e-06
-4.01532e-06
-1.41399e-06
-4.01893e-06
-1.1297e-06
-4.02191e-06
-8.53005e-07
-4.02533e-06
-5.81496e-07
-4.02993e-06
-3.12455e-07
-4.03616e-06
-4.29722e-08
-4.04416e-06
2.29965e-07
-4.05372e-06
5.09379e-07
-4.06429e-06
7.98201e-07
-4.0749e-06
1.09916e-06
-4.08407e-06
1.41463e-06
-4.08976e-06
1.7465e-06
-4.08926e-06
2.09588e-06
-4.07905e-06
2.46292e-06
-4.05477e-06
2.84637e-06
-4.01112e-06
3.24325e-06
-3.94184e-06
3.6483e-06
-3.83991e-06
4.05339e-06
-3.69776e-06
4.44695e-06
-3.50785e-06
4.81329e-06
-3.26351e-06
5.13208e-06
-2.96025e-06
5.37802e-06
-2.59742e-06
5.52091e-06
-2.18024e-06
5.52637e-06
-1.72207e-06
5.35746e-06
-1.24635e-06
4.97736e-06
-7.8767e-07
4.35321e-06
-3.91265e-07
3.46066e-06
-1.10259e-07
2.28848e-06
8.43877e-07
-8.73387e-08
-7.05132e-07
-3.14914e-07
-1.90718e-06
-6.44249e-07
-2.88715e-06
-1.03788e-06
-3.64566e-06
-1.46286e-06
-4.19473e-06
-1.89255e-06
-4.55399e-06
-2.30706e-06
-4.74783e-06
-2.69293e-06
-4.8027e-06
-3.04215e-06
-4.74488e-06
-3.35104e-06
-4.599e-06
-3.6191e-06
-4.38703e-06
-3.848e-06
-4.12786e-06
-4.04078e-06
-3.83716e-06
-4.20118e-06
-3.52752e-06
-4.33323e-06
-3.20869e-06
-4.44091e-06
-2.88796e-06
-4.52798e-06
-2.57046e-06
-4.59786e-06
-2.25955e-06
-4.65354e-06
-1.9571e-06
-4.69763e-06
-1.66378e-06
-4.7323e-06
-1.37931e-06
-4.75935e-06
-1.10265e-06
-4.78019e-06
-8.32171e-07
-4.79586e-06
-5.65817e-07
-4.8071e-06
-3.01216e-07
-4.81428e-06
-3.57951e-08
-4.81743e-06
2.33112e-07
-4.81621e-06
5.08165e-07
-4.80991e-06
7.91901e-07
-4.79737e-06
1.08661e-06
-4.77693e-06
1.3942e-06
-4.74642e-06
1.71598e-06
-4.70302e-06
2.05249e-06
-4.64331e-06
2.4032e-06
-4.56316e-06
2.76621e-06
-4.45778e-06
3.13787e-06
-4.32184e-06
3.51236e-06
-4.14967e-06
3.88122e-06
-3.93561e-06
4.23289e-06
-3.67464e-06
4.55232e-06
-3.36317e-06
4.82062e-06
-3.00022e-06
5.01507e-06
-2.58873e-06
5.10942e-06
-2.13717e-06
5.07481e-06
-1.66098e-06
4.88127e-06
-1.18372e-06
4.5001e-06
-7.37386e-07
3.90688e-06
-3.61478e-07
3.08476e-06
-1.00556e-07
2.02756e-06
7.43321e-07
-8.1659e-08
-6.23473e-07
-2.97109e-07
-1.69173e-06
-6.13658e-07
-2.5706e-06
-9.99064e-07
-3.26026e-06
-1.42417e-06
-3.76962e-06
-1.86442e-06
-4.11374e-06
-2.30046e-06
-4.31179e-06
-2.71812e-06
-4.38504e-06
-3.10786e-06
-4.35515e-06
-3.46402e-06
-4.24284e-06
-3.78398e-06
-4.06707e-06
-4.06741e-06
-3.84444e-06
-4.31549e-06
-3.58908e-06
-4.53045e-06
-3.31256e-06
-4.71504e-06
-3.0241e-06
-4.87226e-06
-2.73073e-06
-5.00515e-06
-2.43757e-06
-5.11657e-06
-2.14813e-06
-5.20917e-06
-1.86451e-06
-5.28527e-06
-1.58768e-06
-5.34691e-06
-1.31768e-06
-5.39574e-06
-1.05382e-06
-5.4331e-06
-7.94807e-07
-5.45999e-06
-5.38934e-07
-5.47703e-06
-2.84171e-07
-5.48453e-06
-2.82969e-08
-5.48241e-06
2.30996e-07
-5.47024e-06
4.95992e-07
-5.44717e-06
7.6883e-07
-5.41193e-06
1.05138e-06
-5.36281e-06
1.34508e-06
-5.2976e-06
1.65077e-06
-5.21359e-06
1.96848e-06
-5.10758e-06
2.29719e-06
-4.97588e-06
2.63451e-06
-4.81443e-06
2.97643e-06
-4.61896e-06
3.31689e-06
-4.38523e-06
3.64749e-06
-4.10948e-06
3.95715e-06
-3.78901e-06
4.23184e-06
-3.42288e-06
4.45449e-06
-3.01295e-06
4.60514e-06
-2.56489e-06
4.66136e-06
-2.08929e-06
4.59921e-06
-1.60266e-06
4.39464e-06
-1.12796e-06
4.0254e-06
-6.94479e-07
3.47339e-06
-3.36785e-07
2.72706e-06
-9.26834e-08
1.78346e-06
6.50637e-07
-7.73069e-08
-5.46166e-07
-2.83282e-07
-1.48575e-06
-5.89506e-07
-2.26437e-06
-9.67725e-07
-2.88204e-06
-1.39185e-06
-3.34549e-06
-1.83921e-06
-3.66638e-06
-2.29119e-06
-3.85981e-06
-2.73335e-06
-3.94288e-06
-3.15518e-06
-3.93332e-06
-3.54961e-06
-3.84842e-06
-3.9124e-06
-3.70427e-06
-4.24155e-06
-3.51529e-06
-4.5367e-06
-3.29392e-06
-4.79869e-06
-3.05057e-06
-5.02911e-06
-2.79368e-06
-5.23001e-06
-2.52983e-06
-5.40364e-06
-2.26395e-06
-5.55228e-06
-1.99948e-06
-5.67815e-06
-1.73865e-06
-5.78324e-06
-1.48259e-06
-5.86933e-06
-1.23159e-06
-5.93792e-06
-9.85227e-07
-5.9902e-06
-7.42525e-07
-6.02705e-06
-5.02087e-07
-6.049e-06
-2.62219e-07
-6.05626e-06
-2.10441e-08
-6.04865e-06
2.2339e-07
-6.02565e-06
4.72996e-07
-5.98636e-06
7.29534e-07
-5.92945e-06
9.94475e-07
-5.85323e-06
1.26886e-06
-5.75558e-06
1.55312e-06
-5.634e-06
1.8469e-06
-5.48564e-06
2.14883e-06
-5.30739e-06
2.45627e-06
-5.09601e-06
2.76505e-06
-4.84834e-06
3.06921e-06
-4.56157e-06
3.36072e-06
-4.2337e-06
3.62929e-06
-3.86407e-06
3.86221e-06
-3.45399e-06
4.04441e-06
-3.00753e-06
4.15868e-06
-2.53233e-06
4.18616e-06
-2.04037e-06
4.10725e-06
-1.54853e-06
3.9028e-06
-1.07879e-06
3.55565e-06
-6.5786e-07
3.05246e-06
-3.1619e-07
2.38539e-06
-8.62289e-08
1.5535e-06
5.64409e-07
-7.39571e-08
-4.72209e-07
-2.72527e-07
-1.28718e-06
-5.70472e-07
-1.96643e-06
-9.42587e-07
-2.50993e-06
-1.36524e-06
-2.92284e-06
-1.81739e-06
-3.21423e-06
-2.2812e-06
-3.396e-06
-2.74223e-06
-3.48184e-06
-3.18941e-06
-3.48615e-06
-3.61463e-06
-3.42319e-06
-4.01245e-06
-3.30646e-06
-4.37953e-06
-3.14822e-06
-4.71423e-06
-2.95922e-06
-5.0162e-06
-2.74861e-06
-5.28596e-06
-2.52392e-06
-5.52468e-06
-2.29111e-06
-5.73387e-06
-2.05476e-06
-5.91522e-06
-1.81813e-06
-6.07045e-06
-1.58341e-06
-6.20122e-06
-1.35182e-06
-6.30902e-06
-1.12379e-06
-6.39512e-06
-8.99126e-07
-6.46054e-06
-6.77099e-07
-6.50603e-06
-4.56604e-07
-6.53199e-06
-2.36256e-07
-6.53853e-06
-1.45038e-08
-6.5254e-06
2.10263e-07
-6.49202e-06
4.39613e-07
-6.43743e-06
6.74949e-07
-6.36036e-06
9.17395e-07
-6.25915e-06
1.16765e-06
-6.13187e-06
1.42584e-06
-5.9763e-06
1.69133e-06
-5.79004e-06
1.96257e-06
-5.5706e-06
2.23683e-06
-5.3156e-06
2.51004e-06
-5.02295e-06
2.77656e-06
-4.69121e-06
3.02898e-06
-4.31996e-06
3.25803e-06
-3.91025e-06
3.45251e-06
-3.46524e-06
3.5994e-06
-2.9907e-06
3.68414e-06
-2.49568e-06
3.69114e-06
-1.99297e-06
3.60454e-06
-1.4994e-06
3.40924e-06
-1.03584e-06
3.09209e-06
-6.267e-07
2.64332e-06
-2.98986e-07
2.05768e-06
-8.09114e-08
1.33542e-06
4.83497e-07
-7.13767e-08
-4.00832e-07
-2.64172e-07
-1.09439e-06
-5.55531e-07
-1.67507e-06
-9.22579e-07
-2.14288e-06
-1.34362e-06
-2.5018e-06
-1.79899e-06
-2.75886e-06
-2.27159e-06
-2.92341e-06
-2.74715e-06
-3.00629e-06
-3.21422e-06
-3.01907e-06
-3.66404e-06
-2.97337e-06
-4.09021e-06
-2.88028e-06
-4.48838e-06
-2.75004e-06
-4.85586e-06
-2.59174e-06
-5.19128e-06
-2.41319e-06
-5.49425e-06
-2.22094e-06
-5.76514e-06
-2.02023e-06
-6.00476e-06
-1.81513e-06
-6.21426e-06
-1.60864e-06
-6.39487e-06
-1.40279e-06
-6.5479e-06
-1.1988e-06
-6.67452e-06
-9.97171e-07
-6.77578e-06
-7.97865e-07
-6.85251e-06
-6.00368e-07
-6.90529e-06
-4.03821e-07
-6.93443e-06
-2.0712e-07
-6.93992e-06
-9.0161e-09
-6.92144e-06
1.91789e-07
-6.87838e-06
3.96545e-07
-6.80977e-06
6.06345e-07
-6.71439e-06
8.22011e-07
-6.59071e-06
1.04398e-06
-6.43702e-06
1.27214e-06
-6.25142e-06
1.50573e-06
-6.03198e-06
1.74313e-06
-5.77686e-06
1.98171e-06
-5.48448e-06
2.21767e-06
-5.1538e-06
2.44588e-06
-4.78458e-06
2.65976e-06
-4.37774e-06
2.85119e-06
-3.93582e-06
3.01059e-06
-3.4634e-06
3.12697e-06
-2.96755e-06
3.18829e-06
-2.45829e-06
3.18188e-06
-1.94884e-06
3.09509e-06
-1.45577e-06
2.91617e-06
-9.98814e-07
2.63514e-06
-6.00377e-07
2.24488e-06
-2.84665e-07
1.74197e-06
-7.65352e-08
1.12729e-06
4.06962e-07
-6.93972e-08
-3.31435e-07
-2.5772e-07
-9.06064e-07
-5.43897e-07
-1.38889e-06
-9.06826e-07
-1.77995e-06
-1.32633e-06
-2.08229e-06
-1.78386e-06
-2.30133e-06
-2.26298e-06
-2.44429e-06
-2.74963e-06
-2.51964e-06
-3.23219e-06
-2.53651e-06
-3.70142e-06
-2.50414e-06
-4.15025e-06
-2.43146e-06
-4.57352e-06
-2.32677e-06
-4.9677e-06
-2.19756e-06
-5.3306e-06
-2.0503e-06
-5.66105e-06
-1.89048e-06
-5.95873e-06
-1.72256e-06
-6.22384e-06
-1.55002e-06
-6.45701e-06
-1.37548e-06
-6.65905e-06
-1.20075e-06
-6.83089e-06
-1.02695e-06
-6.97343e-06
-8.54626e-07
-7.08749e-06
-6.83809e-07
-7.1737e-06
-5.14158e-07
-7.23249e-06
-3.45026e-07
-7.26405e-06
-1.7556e-07
-7.26829e-06
-4.7795e-09
-7.24483e-06
1.68331e-07
-7.19303e-06
3.44738e-07
-7.11195e-06
5.25265e-07
-7.00043e-06
7.10494e-07
-6.85711e-06
9.00657e-07
-6.68049e-06
1.09552e-06
-6.46903e-06
1.29427e-06
-6.22126e-06
1.49536e-06
-5.93594e-06
1.69639e-06
-5.61227e-06
1.894e-06
-5.25009e-06
2.08371e-06
-4.85022e-06
2.25988e-06
-4.41473e-06
2.4157e-06
-3.94733e-06
2.54319e-06
-3.45372e-06
2.63336e-06
-2.94194e-06
2.67651e-06
-2.42264e-06
2.66258e-06
-1.90925e-06
2.5817e-06
-1.41795e-06
2.42487e-06
-9.67443e-07
2.18463e-06
-5.78434e-07
1.85588e-06
-2.72868e-07
1.4364e-06
-7.29628e-08
9.27386e-07
3.33999e-07
-6.78961e-08
-2.63539e-07
-2.52802e-07
-7.21158e-07
-5.3497e-07
-1.10672e-06
-8.94633e-07
-1.42029e-06
-1.31278e-06
-1.66414e-06
-1.77175e-06
-1.84235e-06
-2.25567e-06
-1.96037e-06
-2.75069e-06
-2.02462e-06
-3.24513e-06
-2.04207e-06
-3.72942e-06
-2.01985e-06
-4.19599e-06
-1.96488e-06
-4.63909e-06
-1.88367e-06
-5.05453e-06
-1.78212e-06
-5.43945e-06
-1.66538e-06
-5.79207e-06
-1.53786e-06
-6.11147e-06
-1.40316e-06
-6.39734e-06
-1.26415e-06
-6.64985e-06
-1.12297e-06
-6.86945e-06
-9.81152e-07
-7.05673e-06
-8.39669e-07
-7.21235e-06
-6.99013e-07
-7.33688e-06
-5.59277e-07
-7.4308e-06
-4.20239e-07
-7.49439e-06
-2.81431e-07
-7.52774e-06
-1.42214e-07
-7.53067e-06
-1.84932e-09
-7.50277e-06
1.40428e-07
-7.44337e-06
2.85339e-07
-7.35158e-06
4.33481e-07
-7.22633e-06
5.85245e-07
-7.06641e-06
7.40731e-07
-6.87054e-06
8.99653e-07
-6.6375e-06
1.06124e-06
-6.36627e-06
1.22413e-06
-6.05614e-06
1.38627e-06
-5.70697e-06
1.54483e-06
-5.3194e-06
1.69613e-06
-4.89509e-06
1.83557e-06
-4.43705e-06
1.95767e-06
-3.94992e-06
2.05606e-06
-3.44026e-06
2.1237e-06
-2.91679e-06
2.15304e-06
-2.39058e-06
2.13637e-06
-1.87511e-06
2.06623e-06
-1.38616e-06
1.93592e-06
-9.41533e-07
1.74e-06
-5.60538e-07
1.47488e-06
-2.63337e-07
1.1392e-06
-7.00974e-08
7.34147e-07
2.63902e-07
-6.67847e-08
-1.96754e-07
-2.49146e-07
-5.38797e-07
-5.28302e-07
-8.27566e-07
-8.85464e-07
-1.06312e-06
-1.30249e-06
-1.24711e-06
-1.76241e-06
-1.38243e-06
-2.24979e-06
-1.473e-06
-2.75098e-06
-1.52343e-06
-3.25427e-06
-1.53878e-06
-3.74991e-06
-1.52422e-06
-4.22995e-06
-1.48483e-06
-4.68821e-06
-1.42541e-06
-5.12001e-06
-1.35032e-06
-5.52197e-06
-1.26343e-06
-5.89181e-06
-1.16801e-06
-6.22816e-06
-1.06682e-06
-6.53029e-06
-9.62012e-07
-6.798e-06
-8.55256e-07
-7.03142e-06
-7.47734e-07
-7.23088e-06
-6.40214e-07
-7.39679e-06
-5.33105e-07
-7.52955e-06
-4.26512e-07
-7.62949e-06
-3.20301e-07
-7.69677e-06
-2.1415e-07
-7.73138e-06
-1.07607e-07
-7.73308e-06
-1.46349e-10
-7.70143e-06
1.08774e-07
-7.63575e-06
2.19666e-07
-7.53521e-06
3.32937e-07
-7.3988e-06
4.48837e-07
-7.22546e-06
5.67387e-07
-7.01412e-06
6.88313e-07
-6.76385e-06
8.10966e-07
-6.47397e-06
9.34253e-07
-6.14427e-06
1.05656e-06
-5.77513e-06
1.17569e-06
-5.36782e-06
1.28882e-06
-4.92471e-06
1.39246e-06
-4.44952e-06
1.48247e-06
-3.94759e-06
1.55413e-06
-3.42612e-06
1.60222e-06
-2.8943e-06
1.62122e-06
-2.36348e-06
1.60555e-06
-1.8471e-06
1.54985e-06
-1.36057e-06
1.44939e-06
-9.20942e-07
1.30038e-06
-5.46453e-07
1.10039e-06
-2.55888e-07
8.48636e-07
-6.7871e-08
5.4613e-07
1.96031e-07
-6.60002e-08
-1.30754e-07
-2.46558e-07
-3.58239e-07
-5.23563e-07
-5.50562e-07
-8.78915e-07
-7.07772e-07
-1.2951e-06
-8.30932e-07
-1.75562e-06
-9.21912e-07
-2.24538e-06
-9.83237e-07
-2.7509e-06
-1.0179e-06
-3.26049e-06
-1.02919e-06
-3.76423e-06
-1.02048e-06
-4.25397e-06
-9.95091e-07
-4.7232e-06
-9.56186e-07
-5.16687e-06
-9.06648e-07
-5.58126e-06
-8.49035e-07
-5.96373e-06
-7.85548e-07
-6.31253e-06
-7.18014e-07
-6.62665e-06
-6.47898e-07
-6.90558e-06
-5.76322e-07
-7.14922e-06
-5.04098e-07
-7.35768e-06
-4.31754e-07
-7.5312e-06
-3.59583e-07
-7.67004e-06
-2.87671e-07
-7.7744e-06
-2.15944e-07
-7.84435e-06
-1.44202e-07
-7.87979e-06
-7.21587e-08
-7.88046e-06
5.24166e-10
-7.84588e-06
7.41934e-08
-7.77539e-06
1.49172e-07
-7.66817e-06
2.25714e-07
-7.5233e-06
3.03965e-07
-7.33982e-06
3.83912e-07
-7.11685e-06
4.65343e-07
-6.85368e-06
5.47793e-07
-6.54992e-06
6.30499e-07
-6.20571e-06
7.12349e-07
-5.82186e-06
7.91845e-07
-5.40011e-06
8.67074e-07
-4.94334e-06
9.35692e-07
-4.45581e-06
9.94941e-07
-3.94336e-06
1.04168e-06
-3.41362e-06
1.07248e-06
-2.87612e-06
1.08372e-06
-2.34235e-06
1.07178e-06
-1.8257e-06
1.0332e-06
-1.34128e-06
9.6496e-07
-9.05571e-07
8.64669e-07
-5.36013e-07
7.30833e-07
-2.50397e-07
5.63021e-07
-6.62366e-08
3.61969e-07
1.29794e-07
-6.54993e-08
-6.52546e-08
-2.44902e-07
-1.78837e-07
-5.20523e-07
-2.74941e-07
-8.747e-07
-3.53595e-07
-1.29031e-06
-4.15321e-07
-1.75119e-06
-4.61035e-07
-2.24245e-06
-4.91978e-07
-2.75073e-06
-5.0962e-07
-3.26435e-06
-5.15576e-07
-3.77331e-06
-5.11515e-07
-4.26932e-06
-4.99082e-07
-4.74566e-06
-4.79843e-07
-5.19708e-06
-4.55231e-07
-5.61959e-06
-4.26523e-07
-6.01032e-06
-3.94818e-07
-6.3673e-06
-3.61032e-07
-6.6893e-06
-3.25903e-07
-6.97562e-06
-2.89996e-07
-7.226e-06
-2.53723e-07
-7.4404e-06
-2.17354e-07
-7.61894e-06
-1.8104e-07
-7.76178e-06
-1.44829e-07
-7.86904e-06
-1.0869e-07
-7.94071e-06
-7.25275e-08
-7.97667e-06
-3.6201e-08
-7.9766e-06
4.53252e-10
-7.94001e-06
3.76046e-08
-7.86625e-06
7.54092e-08
-7.75452e-06
1.13988e-07
-7.60396e-06
1.53407e-07
-7.4137e-06
1.93653e-07
-7.18297e-06
2.34611e-07
-6.91122e-06
2.76037e-07
-6.59826e-06