/*--------------------------------*- C++ -*----------------------------------*\
  =========                 |
  \\      /  F ield         | OpenFOAM: The Open Source CFD Toolbox
   \\    /   O peration     | Website:  https://openfoam.org
    \\  /    A nd           | Version:  7
     \\/     M anipulation  |
\*---------------------------------------------------------------------------*/
FoamFile
{
    version     2.0;
    format      ascii;
    class       volVectorField;
    location    "0.012";
    object      U;
}
// * * * * * * * * * * * * * * * * * * * * * * * * * * * * * * * * * * * * * //

dimensions      [0 1 -1 0 0 0 0];

internalField   nonuniform List<vector> 
2500
(
(2.28355e-05 -2.28511e-05 0)
(5.07612e-05 -1.6006e-05 0)
(2.97604e-05 6.20431e-06 0)
(-5.54674e-05 2.92346e-05 0)
(-0.000202419 4.94415e-05 0)
(-0.000401388 6.55205e-05 0)
(-0.000641975 7.75291e-05 0)
(-0.000913747 8.59391e-05 0)
(-0.00120711 9.12751e-05 0)
(-0.00151359 9.40219e-05 0)
(-0.00182579 9.46062e-05 0)
(-0.00213742 9.33961e-05 0)
(-0.00244312 9.07047e-05 0)
(-0.00273837 8.67956e-05 0)
(-0.00301943 8.18885e-05 0)
(-0.00328317 7.61646e-05 0)
(-0.00352699 6.97724e-05 0)
(-0.00374876 6.28331e-05 0)
(-0.00394672 5.54455e-05 0)
(-0.00411942 4.76906e-05 0)
(-0.00426566 3.96362e-05 0)
(-0.0043845 3.13397e-05 0)
(-0.00447515 2.28519e-05 0)
(-0.00453705 1.42187e-05 0)
(-0.00456976 5.48347e-06 0)
(-0.004573 -3.31116e-06 0)
(-0.00454668 -1.21218e-05 0)
(-0.00449084 -2.09034e-05 0)
(-0.0044057 -2.96069e-05 0)
(-0.00429165 -3.81784e-05 0)
(-0.00414931 -4.65566e-05 0)
(-0.0039795 -5.46713e-05 0)
(-0.00378333 -6.244e-05 0)
(-0.00356222 -6.97652e-05 0)
(-0.00331793 -7.65307e-05 0)
(-0.00305266 -8.25978e-05 0)
(-0.00276913 -8.78008e-05 0)
(-0.00247062 -9.19426e-05 0)
(-0.00216108 -9.47908e-05 0)
(-0.00184526 -9.60729e-05 0)
(-0.00152876 -9.54718e-05 0)
(-0.00121815 -9.26214e-05 0)
(-0.000921033 -8.71034e-05 0)
(-0.0006461 -7.84489e-05 0)
(-0.000403089 -6.61557e-05 0)
(-0.000202506 -4.97797e-05 0)
(-5.47118e-05 -2.92991e-05 0)
(3.06662e-05 -6.08335e-06 0)
(5.13139e-05 1.61987e-05 0)
(2.30188e-05 2.29735e-05 0)
(1.62438e-05 -5.08638e-05 0)
(-5.91531e-06 6.53335e-06 0)
(-0.000152129 0.000116765 0)
(-0.0004391 0.000233299 0)
(-0.000862916 0.000339408 0)
(-0.00140784 0.000428027 0)
(-0.00205283 0.000497366 0)
(-0.00277518 0.00054805 0)
(-0.00355273 0.00058167 0)
(-0.00436489 0.000600147 0)
(-0.00519316 0.000605447 0)
(-0.00602123 0.000599442 0)
(-0.00683499 0.000583844 0)
(-0.00762235 0.000560174 0)
(-0.00837307 0.000529756 0)
(-0.00907852 0.000493724 0)
(-0.00973149 0.000453039 0)
(-0.010326 0.000408506 0)
(-0.010857 0.000360803 0)
(-0.0113205 0.000310497 0)
(-0.0117131 0.000258073 0)
(-0.012032 0.000203946 0)
(-0.0122752 0.000148488 0)
(-0.0124409 9.20344e-05 0)
(-0.0125281 3.49037e-05 0)
(-0.012536 -2.25943e-05 0)
(-0.0124642 -8.01467e-05 0)
(-0.0123131 -0.000137428 0)
(-0.0120833 -0.00019409 0)
(-0.011776 -0.00024975 0)
(-0.0113929 -0.000303979 0)
(-0.0109365 -0.000356287 0)
(-0.01041 -0.000406109 0)
(-0.00981725 -0.000452785 0)
(-0.00916338 -0.000495543 0)
(-0.00845452 -0.00053348 0)
(-0.00769814 -0.000565543 0)
(-0.00690324 -0.000590515 0)
(-0.00608055 -0.000607006 0)
(-0.00524268 -0.000613447 0)
(-0.00440433 -0.000608111 0)
(-0.00358239 -0.000589139 0)
(-0.00279589 -0.000554613 0)
(-0.00206588 -0.000502698 0)
(-0.00141484 -0.000431924 0)
(-0.000865635 -0.000341808 0)
(-0.000439284 -0.000234316 0)
(-0.00015131 -0.000116725 0)
(-5.19278e-06 -5.92218e-06 0)
(1.64961e-05 5.14033e-05 0)
(-5.27815e-06 -3.09227e-05 0)
(-0.000114362 0.000152098 0)
(-0.000422021 0.00042456 0)
(-0.000926749 0.000709799 0)
(-0.00161839 0.000972919 0)
(-0.00247736 0.0011972 0)
(-0.0034764 0.00137628 0)
(-0.00458513 0.00150963 0)
(-0.00577308 0.00159968 0)
(-0.00701127 0.00165029 0)
(-0.00827303 0.00166586 0)
(-0.00953448 0.00165087 0)
(-0.0107746 0.00160959 0)
(-0.0119752 0.00154592 0)
(-0.0131206 0.00146336 0)
(-0.0141977 0.00136497 0)
(-0.0151952 0.00125335 0)
(-0.0161037 0.00113076 0)
(-0.0169156 0.000999091 0)
(-0.0176244 0.000859963 0)
(-0.0182247 0.000714762 0)
(-0.0187124 0.000564694 0)
(-0.019084 0.000410832 0)
(-0.019337 0.000254156 0)
(-0.0194696 9.55894e-05 0)
(-0.0194807 -6.39683e-05 0)
(-0.0193699 -0.000223612 0)
(-0.0191376 -0.000382403 0)
(-0.0187849 -0.000539337 0)
(-0.0183137 -0.000693317 0)
(-0.0177269 -0.000843118 0)
(-0.0170282 -0.000987348 0)
(-0.0162228 -0.00112441 0)
(-0.0153168 -0.00125246 0)
(-0.0143183 -0.00136935 0)
(-0.0132366 -0.00147259 0)
(-0.0120833 -0.00155934 0)
(-0.0108723 -0.00162633 0)
(-0.00961982 -0.00166991 0)
(-0.00834475 -0.00168605 0)
(-0.00706894 -0.00167046 0)
(-0.00581706 -0.00161869 0)
(-0.00461653 -0.00152646 0)
(-0.00349694 -0.00139014 0)
(-0.00248923 -0.00120758 0)
(-0.00162396 -0.000979683 0)
(-0.000928393 -0.000713204 0)
(-0.000421821 -0.000425297 0)
(-0.000113845 -0.000151254 0)
(-5.07926e-06 3.18909e-05 0)
(-2.7615e-05 5.20978e-05 0)
(-0.000229858 0.000437609 0)
(-0.000707831 0.000929137 0)
(-0.00143169 0.00143081 0)
(-0.00238021 0.00189298 0)
(-0.00352887 0.00228942 0)
(-0.0048452 0.00260868 0)
(-0.00629325 0.00284842 0)
(-0.00783667 0.00301154 0)
(-0.00944048 0.00310379 0)
(-0.0110721 0.00313227 0)
(-0.0127019 0.0031045 0)
(-0.0143037 0.00302789 0)
(-0.0158543 0.00290935 0)
(-0.017334 0.0027552 0)
(-0.0187255 0.00257099 0)
(-0.0200146 0.0023616 0)
(-0.021189 0.0021312 0)
(-0.0222386 0.00188341 0)
(-0.0231549 0.00162128 0)
(-0.0239311 0.00134748 0)
(-0.0245615 0.00106435 0)
(-0.0250416 0.000773944 0)
(-0.0253683 0.000478172 0)
(-0.025539 0.000178823 0)
(-0.0255525 -0.000122361 0)
(-0.0254082 -0.000423628 0)
(-0.0251066 -0.000723164 0)
(-0.0246494 -0.00101904 0)
(-0.024039 -0.00130914 0)
(-0.0232792 -0.00159112 0)
(-0.0223751 -0.00186232 0)
(-0.0213333 -0.00211971 0)
(-0.0201622 -0.00235979 0)
(-0.0188718 -0.00257855 0)
(-0.0174747 -0.00277137 0)
(-0.0159857 -0.00293297 0)
(-0.0144226 -0.00305741 0)
(-0.0128059 -0.00313813 0)
(-0.0111597 -0.00316799 0)
(-0.00951119 -0.00313954 0)
(-0.00789088 -0.00304531 0)
(-0.00633226 -0.00287845 0)
(-0.00487106 -0.00263358 0)
(-0.00354414 -0.00230831 0)
(-0.00238775 -0.00190559 0)
(-0.00143431 -0.00143759 0)
(-0.000708008 -0.000931226 0)
(-0.000229413 -0.000436829 0)
(-2.74076e-05 -5.0827e-05 0)
(-4.75035e-05 0.000196453 0)
(-0.000337691 0.00086203 0)
(-0.000979774 0.00162533 0)
(-0.00191362 0.00238229 0)
(-0.00310419 0.00307401 0)
(-0.00452041 0.00366724 0)
(-0.00612438 0.00414631 0)
(-0.00787519 0.00450724 0)
(-0.00973182 0.00475337 0)
(-0.0116547 0.00489228 0)
(-0.0136069 0.00493386 0)
(-0.0155543 0.00488888 0)
(-0.0174667 0.00476818 0)
(-0.0193172 0.00458209 0)
(-0.0210827 0.00434011 0)
(-0.0227429 0.00405077 0)
(-0.0242808 0.00372155 0)
(-0.0256819 0.00335899 0)
(-0.026934 0.00296873 0)
(-0.0280272 0.00255564 0)
(-0.028953 0.00212394 0)
(-0.0297048 0.00167734 0)
(-0.0302773 0.00121918 0)
(-0.0306665 0.00075249 0)
(-0.0308695 0.000280158 0)
(-0.0308848 -0.000195023 0)
(-0.0307118 -0.000670245 0)
(-0.0303511 -0.0011426 0)
(-0.0298045 -0.001609 0)
(-0.0290753 -0.00206608 0)
(-0.028168 -0.0025101 0)
(-0.0270888 -0.00293685 0)
(-0.0258455 -0.00334154 0)
(-0.024448 -0.00371868 0)
(-0.0229087 -0.00406198 0)
(-0.0212422 -0.00436426 0)
(-0.0194662 -0.00461743 0)
(-0.0176014 -0.00481242 0)
(-0.0156721 -0.00493929 0)
(-0.0137061 -0.00498745 0)
(-0.0117347 -0.00494596 0)
(-0.00979311 -0.00480416 0)
(-0.00791923 -0.00455251 0)
(-0.00615349 -0.00418397 0)
(-0.00453751 -0.00369598 0)
(-0.00311252 -0.00309343 0)
(-0.00191641 -0.00239304 0)
(-0.000979849 -0.00162907 0)
(-0.000337132 -0.000861424 0)
(-4.72616e-05 -0.00019493 0)
(-6.39612e-05 0.000394345 0)
(-0.000432636 0.00141499 0)
(-0.00122586 0.00250223 0)
(-0.00235489 0.00355155 0)
(-0.00377025 0.0044999 0)
(-0.00543323 0.00531004 0)
(-0.00729992 0.00596372 0)
(-0.00932443 0.00645612 0)
(-0.0114615 0.00679135 0)
(-0.0136678 0.00697904 0)
(-0.0159026 0.007032 0)
(-0.0181285 0.00696446 0)
(-0.020312 0.00679092 0)
(-0.0224235 0.00652538 0)
(-0.0244368 0.00618084 0)
(-0.0263295 0.00576908 0)
(-0.0280823 0.00530056 0)
(-0.029679 0.00478445 0)
(-0.0311057 0.0042287 0)
(-0.0323512 0.00364024 0)
(-0.0334058 0.00302512 0)
(-0.0342621 0.00238865 0)
(-0.034914 0.00173561 0)
(-0.035357 0.00107039 0)
(-0.0355878 0.000397133 0)
(-0.0356047 -0.000280129 0)
(-0.0354069 -0.000957355 0)
(-0.0349954 -0.00163037 0)
(-0.0343722 -0.00229472 0)
(-0.0335408 -0.0029456 0)
(-0.0325066 -0.00357765 0)
(-0.0312764 -0.00418486 0)
(-0.0298594 -0.00476042 0)
(-0.0282667 -0.00529656 0)
(-0.0265122 -0.00578441 0)
(-0.0246124 -0.00621393 0)
(-0.0225873 -0.00657382 0)
(-0.0204601 -0.00685158 0)
(-0.0182578 -0.00703361 0)
(-0.0160112 -0.00710554 0)
(-0.0137551 -0.00705273 0)
(-0.0115281 -0.00686111 0)
(-0.00937185 -0.00651835 0)
(-0.00733082 -0.00601557 0)
(-0.00545091 -0.00534969 0)
(-0.00377837 -0.0045268 0)
(-0.00235708 -0.00356656 0)
(-0.00122533 -0.00250762 0)
(-0.000431725 -0.00141438 0)
(-6.36254e-05 -0.000392392 0)
(-7.73131e-05 0.000638194 0)
(-0.000514438 0.00208299 0)
(-0.00144372 0.00354433 0)
(-0.00275127 0.00492184 0)
(-0.00437376 0.00615221 0)
(-0.00626439 0.00719707 0)
(-0.0083728 0.00803743 0)
(-0.0106479 0.00866878 0)
(-0.0130402 0.00909668 0)
(-0.0155027 0.00933323 0)
(-0.0179915 0.00939444 0)
(-0.0204665 0.00929823 0)
(-0.0228914 0.00906301 0)
(-0.025234 0.00870665 0)
(-0.0274663 0.00824593 0)
(-0.0295638 0.00769613 0)
(-0.0315055 0.0070709 0)
(-0.0332738 0.00638227 0)
(-0.0348534 0.00564078 0)
(-0.0362321 0.00485561 0)
(-0.0373994 0.00403479 0)
(-0.038347 0.00318545 0)
(-0.0390683 0.00231397 0)
(-0.0395583 0.00142624 0)
(-0.0398136 0.000527825 0)
(-0.0398321 -0.000375882 0)
(-0.0396131 -0.00127946 0)
(-0.0391575 -0.00217731 0)
(-0.0384677 -0.00306348 0)
(-0.0375474 -0.00393154 0)
(-0.0364026 -0.00477434 0)
(-0.0350407 -0.00558388 0)
(-0.0334716 -0.00635111 0)
(-0.0317077 -0.00706573 0)
(-0.029764 -0.00771607 0)
(-0.0276587 -0.00828895 0)
(-0.0254133 -0.00876962 0)
(-0.0230531 -0.00914185 0)
(-0.0206075 -0.00938811 0)
(-0.0181096 -0.00949003 0)
(-0.0155972 -0.00942902 0)
(-0.0131117 -0.00918738 0)
(-0.0106982 -0.0087497 0)
(-0.00840496 -0.00810483 0)
(-0.00628207 -0.00724859 0)
(-0.00438108 -0.00618711 0)
(-0.00275237 -0.00494121 0)
(-0.00144225 -0.00355114 0)
(-0.000512992 -0.00208199 0)
(-7.6836e-05 -0.000635545 0)
(-8.82284e-05 0.000921087 0)
(-0.000584922 0.00285262 0)
(-0.00163602 0.00473561 0)
(-0.00310621 0.00647605 0)
(-0.00491959 0.00801309 0)
(-0.00702129 0.0093095 0)
(-0.00935422 0.0103474 0)
(-0.0118618 0.0111237 0)
(-0.0144903 0.0116464 0)
(-0.0171891 0.0119307 0)
(-0.0199112 0.0119961 0)
(-0.0226138 0.0118646 0)
(-0.0252583 0.0115587 0)
(-0.0278105 0.0111005 0)
(-0.0302406 0.0105108 0)
(-0.0325224 0.0098085 0)
(-0.0346338 0.00901069 0)
(-0.0365557 0.00813249 0)
(-0.0382721 0.00718715 0)
(-0.0397696 0.00618628 0)
(-0.0410374 0.00514009 0)
(-0.0420665 0.00405761 0)
(-0.0428498 0.002947 0)
(-0.043382 0.00181574 0)
(-0.0436594 0.00067091 0)
(-0.0436798 -0.000480599 0)
(-0.0434425 -0.00163189 0)
(-0.0429484 -0.00277583 0)
(-0.0421998 -0.00390486 0)
(-0.041201 -0.00501078 0)
(-0.0399581 -0.00608451 0)
(-0.038479 -0.00711592 0)
(-0.0367744 -0.00809351 0)
(-0.0348573 -0.00900432 0)
(-0.0327438 -0.00983361 0)
(-0.0304532 -0.0105649 0)
(-0.0280086 -0.0111796 0)
(-0.0254368 -0.0116577 0)
(-0.0227691 -0.0119775 0)
(-0.0200411 -0.0121161 0)
(-0.0172926 -0.012051 0)
(-0.0145682 -0.0117604 0)
(-0.0119161 -0.0112253 0)
(-0.00938819 -0.0104319 0)
(-0.00703919 -0.009374 0)
(-0.00492613 -0.00805656 0)
(-0.00310611 -0.00649986 0)
(-0.00163346 -0.00474352 0)
(-0.000582853 -0.00285074 0)
(-8.75837e-05 -0.000917396 0)
(-9.73688e-05 0.00123748 0)
(-0.000646571 0.00371243 0)
(-0.00180761 0.00606196 0)
(-0.00342709 0.00819921 0)
(-0.00541789 0.0100674 0)
(-0.00771736 0.0116321 0)
(-0.0102617 0.0128781 0)
(-0.0129886 0.0138051 0)
(-0.0158399 0.0144242 0)
(-0.0187611 0.0147544 0)
(-0.0217022 0.0148194 0)
(-0.0246178 0.0146456 0)
(-0.0274672 0.01426 0)
(-0.0302142 0.0136892 0)
(-0.0328274 0.012958 0)
(-0.0352794 0.0120895 0)
(-0.0375468 0.0111043 0)
(-0.0396098 0.0100207 0)
(-0.0414514 0.0088549 0)
(-0.0430578 0.00762108 0)
(-0.0444175 0.00633171 0)
(-0.045521 0.00499787 0)
(-0.0463612 0.00362955 0)
(-0.0469322 0.00223592 0)
(-0.0472304 0.000825678 0)
(-0.0472533 -0.000592746 0)
(-0.0470001 -0.00201089 0)
(-0.0464717 -0.00342002 0)
(-0.0456705 -0.00481087 0)
(-0.0446009 -0.00617339 0)
(-0.0432692 -0.00749647 0)
(-0.0416837 -0.00876767 0)
(-0.0398554 -0.00997297 0)
(-0.037798 -0.0110965 0)
(-0.0355282 -0.0121203 0)
(-0.0330666 -0.0130244 0)
(-0.0304371 -0.0137862 0)
(-0.0276682 -0.0143816 0)
(-0.0247928 -0.0147842 0)
(-0.0218484 -0.0149668 0)
(-0.0188775 -0.0149022 0)
(-0.0159272 -0.0145642 0)
(-0.0130492 -0.0139299 0)
(-0.0102992 -0.0129819 0)
(-0.00773662 -0.0117111 0)
(-0.00542431 -0.0101203 0)
(-0.00342611 -0.0082277 0)
(-0.00180407 -0.00607072 0)
(-0.000643887 -0.00370914 0)
(-9.65487e-05 -0.00123238 0)
(-0.00010531 0.00158333 0)
(-0.000701944 0.00465357 0)
(-0.00196416 0.00751229 0)
(-0.00372301 0.0100796 0)
(-0.00588138 0.0123035 0)
(-0.00836925 0.0141537 0)
(-0.0111161 0.0156187 0)
(-0.014054 0.0167021 0)
(-0.0171197 0.0174191 0)
(-0.0202551 0.0177932 0)
(-0.0234068 0.017853 0)
(-0.0265268 0.0176297 0)
(-0.0295721 0.0171553 0)
(-0.0325049 0.0164609 0)
(-0.0352922 0.0155762 0)
(-0.0379055 0.0145281 0)
(-0.0403204 0.0133412 0)
(-0.0425163 0.0120372 0)
(-0.0444758 0.0106353 0)
(-0.0461845 0.00915244 0)
(-0.0476304 0.00760338 0)
(-0.0488041 0.00600136 0)
(-0.0496977 0.00435826 0)
(-0.0503057 0.00268501 0)
(-0.050624 0.00099195 0)
(-0.05065 -0.000710899 0)
(-0.050383 -0.00241347 0)
(-0.0498237 -0.00410538 0)
(-0.0489745 -0.00577561 0)
(-0.0478398 -0.00741217 0)
(-0.0464258 -0.00900185 0)
(-0.0447413 -0.0105298 0)
(-0.0427973 -0.0119794 0)
(-0.0406081 -0.0133316 0)
(-0.0381909 -0.0145652 0)
(-0.0355669 -0.0156562 0)
(-0.0327614 -0.0165782 0)
(-0.0298038 -0.0173023 0)
(-0.0267289 -0.0177975 0)
(-0.023576 -0.0180317 0)
(-0.0203901 -0.0179724 0)
(-0.0172213 -0.0175889 0)
(-0.0141246 -0.0168535 0)
(-0.01116 -0.0157445 0)
(-0.00839191 -0.0142493 0)
(-0.00588899 -0.0123672 0)
(-0.00372189 -0.0101134 0)
(-0.00195998 -0.00752189 0)
(-0.000698747 -0.00464849 0)
(-0.000104324 -0.00157647 0)
(-0.000112537 0.00195597 0)
(-0.00075346 0.00567005 0)
(-0.00211137 0.00907902 0)
(-0.00400351 0.0121092 0)
(-0.00632371 0.0147138 0)
(-0.00899491 0.0168674 0)
(-0.01194 0.0185629 0)
(-0.015085 0.0198088 0)
(-0.0183619 0.0206255 0)
(-0.0217082 0.0210416 0)
(-0.0250673 0.0210912 0)
(-0.0283881 0.020811 0)
(-0.0316257 0.0202383 0)
(-0.0347402 0.0194094 0)
(-0.0376974 0.0183588 0)
(-0.0404676 0.0171179 0)
(-0.0430257 0.0157153 0)
(-0.0453503 0.0141762 0)
(-0.0474237 0.0125232 0)
(-0.0492311 0.0107758 0)
(-0.0507603 0.00895135 0)
(-0.0520015 0.00706524 0)
(-0.0529472 0.00513129 0)
(-0.0535913 0.00316222 0)
(-0.0539297 0.00117001 0)
(-0.0539598 -0.000833702 0)
(-0.0536807 -0.00283724 0)
(-0.053093 -0.00482855 0)
(-0.0521991 -0.00679482 0)
(-0.051003 -0.00872212 0)
(-0.0495113 -0.010595 0)
(-0.0477323 -0.0123963 0)
(-0.0456776 -0.0141063 0)
(-0.0433613 -0.015703 0)
(-0.0408014 -0.0171616 0)
(-0.0380195 -0.0184541 0)
(-0.0350417 -0.0195496 0)
(-0.031899 -0.0204143 0)
(-0.0286274 -0.0210122 0)
(-0.0252685 -0.0213058 0)
(-0.0218698 -0.0212571 0)
(-0.0184843 -0.0208299 0)
(-0.0151711 -0.0199913 0)
(-0.0119944 -0.0187146 0)
(-0.00902396 -0.0169826 0)
(-0.00633452 -0.0147905 0)
(-0.00400346 -0.0121495 0)
(-0.00210714 -0.00908985 0)
(-0.000749941 -0.00566301 0)
(-0.000111408 -0.00194708 0)
(-0.000119456 0.00235397 0)
(-0.000803321 0.00675861 0)
(-0.0022547 0.0107582 0)
(-0.00427801 0.0142842 0)
(-0.00675855 0.0172952 0)
(-0.00961246 0.0197706 0)
(-0.0127559 0.0217088 0)
(-0.016109 0.0231241 0)
(-0.0195984 0.0240425 0)
(-0.0231572 0.0244988 0)
(-0.026725 0.0245331 0)
(-0.0302479 0.0241883 0)
(-0.0336785 0.0235075 0)
(-0.0369751 0.0225329 0)
(-0.040102 0.0213037 0)
(-0.0430286 0.0198566 0)
(-0.0457289 0.018224 0)
(-0.0481812 0.0164353 0)
(-0.0503673 0.0145162 0)
(-0.0522722 0.0124891 0)
(-0.0538837 0.0103739 0)
(-0.055192 0.00818833 0)
(-0.0561892 0.00594805 0)
(-0.0568696 0.00366757 0)
(-0.0572288 0.00136054 0)
(-0.0572641 -0.000959826 0)
(-0.0569746 -0.00328026 0)
(-0.0563605 -0.00558705 0)
(-0.055424 -0.0078656 0)
(-0.0541692 -0.0101 0)
(-0.0526021 -0.0122726 0)
(-0.0507313 -0.0143636 0)
(-0.0485679 -0.0163505 0)
(-0.0461265 -0.0182079 0)
(-0.043425 -0.0199071 0)
(-0.0404858 -0.021416 0)
(-0.0373357 -0.0226989 0)
(-0.0340068 -0.0237168 0)
(-0.0305369 -0.0244281 0)
(-0.0269697 -0.0247894 0)
(-0.0233553 -0.0247568 0)
(-0.0197503 -0.0242878 0)
(-0.0162175 -0.0233435 0)
(-0.0128263 -0.0218918 0)
(-0.00965187 -0.0199098 0)
(-0.00677526 -0.017388 0)
(-0.00428066 -0.0143331 0)
(-0.00225124 -0.0107712 0)
(-0.00079975 -0.00674981 0)
(-0.00011822 -0.00234289 0)
(-0.000126409 0.002777 0)
(-0.000853501 0.00791863 0)
(-0.00239922 0.0125494 0)
(-0.00455544 0.016605 0)
(-0.00719909 0.0200487 0)
(-0.0102396 0.0228654 0)
(-0.0135862 0.0250595 0)
(-0.0171528 0.0266514 0)
(-0.0208605 0.0276738 0)
(-0.0246376 0.0281684 0)
(-0.0284199 0.0281821 0)
(-0.0321502 0.0277646 0)
(-0.0357784 0.0269656 0)
(-0.0392611 0.0258332 0)
(-0.042561 0.0244125 0)
(-0.0456466 0.022745 0)
(-0.0484912 0.020868 0)
(-0.0510726 0.0188147 0)
(-0.0533724 0.0166143 0)
(-0.0553757 0.0142923 0)
(-0.0570703 0.0118712 0)
(-0.0584463 0.00937087 0)
(-0.059496 0.00680899 0)
(-0.0602136 0.00420182 0)
(-0.0605947 0.00156459 0)
(-0.0606365 -0.00108792 0)
(-0.0603379 -0.00374092 0)
(-0.059699 -0.00637909 0)
(-0.0587216 -0.00898608 0)
(-0.0574095 -0.011544 0)
(-0.0557683 -0.014033 0)
(-0.0538064 -0.0164305 0)
(-0.0515346 -0.0187112 0)
(-0.0489674 -0.0208461 0)
(-0.0461229 -0.0228024 0)
(-0.0430238 -0.0245436 0)
(-0.0396978 -0.0260287 0)
(-0.0361781 -0.0272133 0)
(-0.0325041 -0.0280495 0)
(-0.028722 -0.0284876 0)
(-0.0248846 -0.0284768 0)
(-0.0210523 -0.0279679 0)
(-0.0172924 -0.0269154 0)
(-0.0136793 -0.0252804 0)
(-0.0102943 -0.0230344 0)
(-0.00722512 -0.0201621 0)
(-0.00456286 -0.0166655 0)
(-0.00239757 -0.0125664 0)
(-0.000850227 -0.00790873 0)
(-0.000125109 -0.00276373 0)
(-0.000133684 0.00322569 0)
(-0.000905767 0.00915191 0)
(-0.00254959 0.0144556 0)
(-0.00484416 0.0190756 0)
(-0.00765787 0.0229797 0)
(-0.0108931 0.0261584 0)
(-0.0144521 0.0286222 0)
(-0.0182421 0.0303985 0)
(-0.0221782 0.0315275 0)
(-0.0261837 0.0320584 0)
(-0.03019 0.0320458 0)
(-0.0341366 0.0315469 0)
(-0.0379705 0.0306186 0)
(-0.0416464 0.0293157 0)
(-0.0451255 0.0276894 0)
(-0.0483752 0.0257868 0)
(-0.0513683 0.0236501 0)
(-0.0540824 0.0213167 0)
(-0.0564989 0.0188195 0)
(-0.058603 0.016187 0)
(-0.0603826 0.0134446 0)
(-0.0618281 0.0106141 0)
(-0.0629319 0.00771539 0)
(-0.0636882 0.00476627 0)
(-0.0640927 0.00178356 0)
(-0.0641426 -0.00121655 0)
(-0.0638364 -0.0042178 0)
(-0.063174 -0.00720333 0)
(-0.0621569 -0.0101551 0)
(-0.0607882 -0.0130533 0)
(-0.0590733 -0.0158758 0)
(-0.0570197 -0.0185974 0)
(-0.0546383 -0.0211895 0)
(-0.0519429 -0.0236197 0)
(-0.0489519 -0.0258508 0)
(-0.045688 -0.0278413 0)
(-0.0421796 -0.0295448 0)
(-0.0384612 -0.0309107 0)
(-0.034574 -0.0318845 0)
(-0.0305663 -0.0324092 0)
(-0.0264945 -0.0324267 0)
(-0.0224227 -0.0318802 0)
(-0.0184233 -0.0307167 0)
(-0.0145763 -0.02889 0)
(-0.0109694 -0.0263648 0)
(-0.00769746 -0.0231199 0)
(-0.00485896 -0.0191522 0)
(-0.00255107 -0.0144793 0)
(-0.000903224 -0.00914215 0)
(-0.000132377 -0.00321044 0)
(-0.000141534 0.00370157 0)
(-0.000961724 0.0104625 0)
(-0.00271015 0.016483 0)
(-0.00515206 0.0217043 0)
(-0.00814677 0.0260981 0)
(-0.0115893 0.0296605 0)
(-0.0153742 0.0324087 0)
(-0.0194017 0.0343776 0)
(-0.0235804 0.0356156 0)
(-0.0278282 0.0361804 0)
(-0.0320717 0.0361351 0)
(-0.0362466 0.0355453 0)
(-0.0402973 0.0344756 0)
(-0.0441761 0.0329883 0)
(-0.0478428 0.0311415 0)
(-0.0512639 0.0289879 0)
(-0.0544116 0.0265753 0)
(-0.0572633 0.0239454 0)
(-0.0598006 0.021135 0)
(-0.0620089 0.0181761 0)
(-0.0638765 0.0150964 0)
(-0.0653939 0.0119202 0)
(-0.0665539 0.00866914 0)
(-0.067351 0.00536271 0)
(-0.0677808 0.00201909 0)
(-0.0678405 -0.00134416 0)
(-0.0675283 -0.00470949 0)
(-0.0668438 -0.00805861 0)
(-0.0657879 -0.0113719 0)
(-0.0643631 -0.0146277 0)
(-0.0625741 -0.0178015 0)
(-0.0604279 -0.0208656 0)
(-0.0579345 -0.0237881 0)
(-0.0551074 -0.0265326 0)
(-0.0519646 -0.0290575 0)
(-0.0485291 -0.0313159 0)
(-0.0448298 -0.0332556 0)
(-0.0409022 -0.0348191 0)
(-0.0367893 -0.0359447 0)
(-0.0325422 -0.0365673 0)
(-0.0282206 -0.0366206 0)
(-0.0238931 -0.0360393 0)
(-0.0196373 -0.034762 0)
(-0.0155396 -0.0327345 0)
(-0.0116947 -0.0299142 0)
(-0.0082051 -0.0262732 0)
(-0.0051774 -0.0218029 0)
(-0.00271635 -0.0165173 0)
(-0.000960443 -0.0104548 0)
(-0.000140287 -0.00368475 0)
(-0.000150187 0.00420692 0)
(-0.00102286 0.0118564 0)
(-0.00288497 0.0186409 0)
(-0.0054866 0.0245028 0)
(-0.00867719 0.0294175 0)
(-0.0123436 0.0333868 0)
(-0.0163723 0.0364349 0)
(-0.0206555 0.0386049 0)
(-0.0250949 0.0399542 0)
(-0.0296023 0.0405498 0)
(-0.0340993 0.0404645 0)
(-0.0385178 0.0397727 0)
(-0.0427987 0.0385483 0)
(-0.0468923 0.0368613 0)
(-0.0507568 0.0347773 0)
(-0.0543579 0.0323557 0)
(-0.0576674 0.0296496 0)
(-0.0606627 0.0267059 0)
(-0.0633258 0.0235652 0)
(-0.0656423 0.020263 0)
(-0.0676012 0.0168296 0)
(-0.0691934 0.0132917 0)
(-0.0704123 0.00967255 0)
(-0.0712524 0.00599322 0)
(-0.0717097 0.00227314 0)
(-0.0717811 -0.001469 0)
(-0.0714647 -0.00521448 0)
(-0.0707596 -0.00894377 0)
(-0.0696659 -0.0126358 0)
(-0.0681856 -0.016267 0)
(-0.0663223 -0.019811 0)
(-0.0640821 -0.0232371 0)
(-0.061474 -0.0265101 0)
(-0.058511 -0.0295896 0)
(-0.0552104 -0.0324292 0)
(-0.0515952 -0.0349762 0)
(-0.0476945 -0.0371719 0)
(-0.0435451 -0.0389514 0)
(-0.0391916 -0.0402447 0)
(-0.0346881 -0.0409781 0)
(-0.0300978 -0.0410761 0)
(-0.0254943 -0.0404638 0)
(-0.020961 -0.0390704 0)
(-0.0165912 -0.0368329 0)
(-0.0124873 -0.0337003 0)
(-0.00876061 -0.0296379 0)
(-0.0055264 -0.0246315 0)
(-0.00289784 -0.0186912 0)
(-0.00102349 -0.0118537 0)
(-0.00014908 -0.00418926 0)
(-0.000159856 0.00474476 0)
(-0.00109061 0.0133417 0)
(-0.003078 0.0209415 0)
(-0.00585513 0.0274865 0)
(-0.00926033 0.0329558 0)
(-0.0131714 0.0373566 0)
(-0.0174658 0.0407208 0)
(-0.0220269 0.0431004 0)
(-0.0267488 0.0445627 0)
(-0.0315366 0.0451851 0)
(-0.0363066 0.0450509 0)
(-0.0409859 0.0442448 0)
(-0.0455126 0.0428503 0)
(-0.0498345 0.0409466 0)
(-0.0539083 0.0386072 0)
(-0.0576989 0.0358986 0)
(-0.0611781 0.0328802 0)
(-0.0643235 0.0296039 0)
(-0.0671175 0.0261148 0)
(-0.0695465 0.0224516 0)
(-0.0716002 0.0186476 0)
(-0.0732703 0.0147314 0)
(-0.0745506 0.0107282 0)
(-0.0754362 0.00666016 0)
(-0.0759232 0.00254787 0)
(-0.0760086 -0.00158906 0)
(-0.0756901 -0.00573099 0)
(-0.0749663 -0.00985735 0)
(-0.0738364 -0.0139458 0)
(-0.0723015 -0.0179713 0)
(-0.070364 -0.021905 0)
(-0.0680287 -0.0257139 0)
(-0.0653035 -0.0293592 0)
(-0.0622003 -0.0327962 0)
(-0.0587355 -0.0359734 0)
(-0.0549316 -0.038832 0)
(-0.0508182 -0.0413059 0)
(-0.0464327 -0.0433222 0)
(-0.0418217 -0.0448019 0)
(-0.037042 -0.0456613 0)
(-0.0321609 -0.0458147 0)
(-0.0272573 -0.0451764 0)
(-0.022421 -0.0436654 0)
(-0.017753 -0.0412085 0)
(-0.0133647 -0.0377458 0)
(-0.0093766 -0.0332348 0)
(-0.00591415 -0.0276557 0)
(-0.00309997 -0.0210149 0)
(-0.00109396 -0.0133479 0)
(-0.00015899 -0.00472734 0)
(-0.000170752 0.00531886 0)
(-0.0011664 0.0149286 0)
(-0.00329322 0.0233999 0)
(-0.00626501 0.0306745 0)
(-0.00990748 0.0367347 0)
(-0.0140882 0.0415934 0)
(-0.0186743 0.0452906 0)
(-0.0235394 0.0478881 0)
(-0.0285692 0.0494642 0)
(-0.0336614 0.0501078 0)
(-0.0387261 0.049914 0)
(-0.043686 0.048979 0)
(-0.0484756 0.047397 0)
(-0.0530402 0.0452572 0)
(-0.0573355 0.0426419 0)
(-0.0613256 0.0396256 0)
(-0.0649825 0.0362743 0)
(-0.0682841 0.0326454 0)
(-0.071214 0.0287884 0)
(-0.0737595 0.0247457 0)
(-0.0759111 0.0205534 0)
(-0.0776618 0.0162422 0)
(-0.079006 0.0118385 0)
(-0.0799396 0.00736594 0)
(-0.0804588 0.00284566 0)
(-0.0805607 -0.00170201 0)
(-0.0802427 -0.00625681 0)
(-0.0795025 -0.0107974 0)
(-0.0783388 -0.0153005 0)
(-0.0767509 -0.0197395 0)
(-0.0747401 -0.0240838 0)
(-0.0723096 -0.0282975 0)
(-0.0694656 -0.0323386 0)
(-0.0662184 -0.0361577 0)
(-0.0625833 -0.0396979 0)
(-0.0585821 -0.0428936 0)
(-0.0542439 -0.045671 0)
(-0.0496071 -0.0479481 0)
(-0.04472 -0.0496357 0)
(-0.0396421 -0.0506392 0)
(-0.0344452 -0.0508611 0)
(-0.0292137 -0.0502041 0)
(-0.0240448 -0.048575 0)
(-0.019048 -0.0458896 0)
(-0.0143446 -0.042078 0)
(-0.0100661 -0.0370893 0)
(-0.00634917 -0.0308975 0)
(-0.0033273 -0.0235057 0)
(-0.00117347 -0.0149489 0)
(-0.000170252 -0.0053032 0)
(-0.000183099 0.00593371 0)
(-0.00125175 0.016629 0)
(-0.00353482 0.0260342 0)
(-0.00672399 0.0340895 0)
(-0.0106304 0.0407799 0)
(-0.01511 0.0461247 0)
(-0.020018 0.0501723 0)
(-0.0252173 0.0529956 0)
(-0.0305837 0.0546849 0)
(-0.036007 0.0553423 0)
(-0.0413907 0.0550758 0)
(-0.0466523 0.0539945 0)
(-0.0517229 0.0522047 0)
(-0.0565455 0.0498067 0)
(-0.0610744 0.0468927 0)
(-0.0652737 0.0435457 0)
(-0.0691156 0.0398388 0)
(-0.0725792 0.0358356 0)
(-0.0756491 0.0315902 0)
(-0.0783141 0.0271487 0)
(-0.0805662 0.0225499 0)
(-0.0823996 0.0178264 0)
(-0.0838098 0.013006 0)
(-0.0847934 0.00811299 0)
(-0.0853473 0.00316909 0)
(-0.0854685 -0.00180513 0)
(-0.085154 -0.00678913 0)
(-0.0844009 -0.0117612 0)
(-0.0832064 -0.0166973 0)
(-0.0815687 -0.0215698 0)
(-0.0794869 -0.0263463 0)
(-0.0769623 -0.0309884 0)
(-0.0739992 -0.0354504 0)
(-0.0706056 -0.0396785 0)
(-0.0667952 -0.0436098 0)
(-0.0625885 -0.0471714 0)
(-0.058014 -0.050281 0)
(-0.0531103 -0.0528464 0)
(-0.0479273 -0.0547672 0)
(-0.0425274 -0.0559365 0)
(-0.0369869 -0.0562434 0)
(-0.0313964 -0.0555772 0)
(-0.0258612 -0.0538314 0)
(-0.0205004 -0.0509091 0)
(-0.0154464 -0.0467291 0)
(-0.0108432 -0.0412313 0)
(-0.0068406 -0.0343832 0)
(-0.00358474 -0.0261845 0)
(-0.00126379 -0.0166705 0)
(-0.000183126 -0.00592189 0)
(-0.000197143 0.00659459 0)
(-0.00134831 0.0184572 0)
(-0.00380734 0.0288658 0)
(-0.00724041 0.037758 0)
(-0.0114418 0.0451217 0)
(-0.0162539 0.0509824 0)
(-0.0215184 0.0553982 0)
(-0.0270857 0.0584541 0)
(-0.0328209 0.0602542 0)
(-0.0386046 0.0609151 0)
(-0.0443333 0.0605596 0)
(-0.0499191 0.0593115 0)
(-0.0552893 0.0572903 0)
(-0.0603848 0.0546089 0)
(-0.0651591 0.0513703 0)
(-0.0695762 0.047667 0)
(-0.0736094 0.0435799 0)
(-0.0772391 0.039179 0)
(-0.0804518 0.0345234 0)
(-0.083238 0.0296629 0)
(-0.0855918 0.0246389 0)
(-0.0875089 0.0194858 0)
(-0.0889864 0.0142325 0)
(-0.0900219 0.00890355 0)
(-0.0906129 0.00352082 0)
(-0.0907564 -0.00189527 0)
(-0.0904491 -0.0073244 0)
(-0.0896873 -0.0127449 0)
(-0.0884667 -0.0181326 0)
(-0.0867837 -0.0234589 0)
(-0.0846352 -0.02869 0)
(-0.0820199 -0.0337852 0)
(-0.0789394 -0.0386953 0)
(-0.0753991 -0.0433616 0)
(-0.0714104 -0.047715 0)
(-0.0669915 -0.0516749 0)
(-0.0621701 -0.0551493 0)
(-0.0569843 -0.058035 0)
(-0.0514853 -0.0602188 0)
(-0.0457384 -0.0615799 0)
(-0.0398244 -0.0619925 0)
(-0.0338407 -0.0613302 0)
(-0.0279013 -0.0594715 0)
(-0.0221363 -0.056305 0)
(-0.0166908 -0.0517366 0)
(-0.0117233 -0.0456961 0)
(-0.00739859 -0.0381439 0)
(-0.0038778 -0.0290761 0)
(-0.00136691 -0.0185288 0)
(-0.000197906 -0.00658938 0)
(-0.000213169 0.00730768 0)
(-0.00145793 0.0204298 0)
(-0.00411588 0.0319195 0)
(-0.00782358 0.041711 0)
(-0.0123557 0.0497946 0)
(-0.0175386 0.0562028 0)
(-0.0231986 0.0610046 0)
(-0.0291719 0.0642985 0)
(-0.0353111 0.0662042 0)
(-0.0414869 0.066855 0)
(-0.0475881 0.0663905 0)
(-0.0535209 0.0649507 0)
(-0.0592091 0.0626705 0)
(-0.0645916 0.0596766 0)
(-0.0696214 0.0560842 0)
(-0.0742632 0.0519961 0)
(-0.0784918 0.0475018 0)
(-0.0822897 0.042678 0)
(-0.0856456 0.0375892 0)
(-0.0885529 0.0322888 0)
(-0.0910077 0.0268208 0)
(-0.0930082 0.0212211 0)
(-0.0945532 0.0155191 0)
(-0.0956416 0.00973949 0)
(-0.0962717 0.00390362 0)
(-0.0964409 -0.00196878 0)
(-0.0961453 -0.00785816 0)
(-0.0953803 -0.0137435 0)
(-0.09414 -0.0196008 0)
(-0.0924184 -0.0254013 0)
(-0.0902099 -0.03111 0)
(-0.08751 -0.0366841 0)
(-0.0843168 -0.0420711 0)
(-0.0806326 -0.0472075 0)
(-0.0764652 -0.0520174 0)
(-0.0718302 -0.0564118 0)
(-0.0667532 -0.0602883 0)
(-0.0612716 -0.0635313 0)
(-0.0554372 -0.0660134 0)
(-0.0493176 -0.0675977 0)
(-0.0429985 -0.0681415 0)
(-0.0365844 -0.0675009 0)
(-0.0301991 -0.0655364 0)
(-0.0239848 -0.0621203 0)
(-0.0181013 -0.0571437 0)
(-0.0127237 -0.0505247 0)
(-0.00803465 -0.0422157 0)
(-0.00421275 -0.0322093 0)
(-0.00148512 -0.0205432 0)
(-0.000214938 -0.00731275 0)
(-0.000231512 0.00808017 0)
(-0.00158279 0.0225661 0)
(-0.00446626 0.0352242 0)
(-0.00848402 0.0459839 0)
(-0.0133876 0.054838 0)
(-0.0189849 0.061827 0)
(-0.0250841 0.067032 0)
(-0.031505 0.070567 0)
(-0.0380864 0.0725697 0)
(-0.0446879 0.0731924 0)
(-0.0511897 0.0725939 0)
(-0.0574923 0.0709327 0)
(-0.0635157 0.0683612 0)
(-0.0691975 0.0650213 0)
(-0.0744906 0.061042 0)
(-0.0793611 0.0565374 0)
(-0.0837862 0.0516064 0)
(-0.0877511 0.0463328 0)
(-0.091248 0.0407866 0)
(-0.0942732 0.035025 0)
(-0.0968261 0.0290942 0)
(-0.0989075 0.0230313 0)
(-0.100519 0.0168659 0)
(-0.10166 0.0106221 0)
(-0.102331 0.00432018 0)
(-0.102529 -0.00202152 0)
(-0.102251 -0.00838487 0)
(-0.101489 -0.0147502 0)
(-0.100238 -0.0210943 0)
(-0.098487 -0.0273889 0)
(-0.0962283 -0.0335984 0)
(-0.0934534 -0.0396782 0)
(-0.0901562 -0.0455726 0)
(-0.0863346 -0.0512132 0)
(-0.0819923 -0.0565173 0)
(-0.077141 -0.0613869 0)
(-0.0718032 -0.065708 0)
(-0.0660145 -0.0693512 0)
(-0.0598265 -0.0721732 0)
(-0.0533091 -0.0740189 0)
(-0.0465525 -0.0747261 0)
(-0.0396686 -0.0741302 0)
(-0.0327917 -0.0720718 0)
(-0.026078 -0.0684035 0)
(-0.0197041 -0.0629995 0)
(-0.0138643 -0.0557642 0)
(-0.00876204 -0.0466407 0)
(-0.00459692 -0.0356181 0)
(-0.00162113 -0.0227363 0)
(-0.000234641 -0.00810034 0)
(-0.000252576 0.00892047 0)
(-0.00172543 0.0248885 0)
(-0.00486527 0.038813 0)
(-0.00923383 0.0506173 0)
(-0.0145554 0.060297 0)
(-0.0206161 0.0679012 0)
(-0.0272029 0.0735252 0)
(-0.0341169 0.0773013 0)
(-0.0411813 0.0793877 0)
(-0.0482432 0.0799586 0)
(-0.0551738 0.0791952 0)
(-0.0618676 0.0772769 0)
(-0.0682413 0.0743759 0)
(-0.0742314 0.0706516 0)
(-0.0797919 0.0662479 0)