/*--------------------------------*- C++ -*----------------------------------*\
  =========                 |
  \\      /  F ield         | OpenFOAM: The Open Source CFD Toolbox
   \\    /   O peration     | Website:  https://openfoam.org
    \\  /    A nd           | Version:  7
     \\/     M anipulation  |
\*---------------------------------------------------------------------------*/
FoamFile
{
    version     2.0;
    format      ascii;
    class       surfaceScalarField;
    location    "0.062";
    object      phi;
}
// * * * * * * * * * * * * * * * * * * * * * * * * * * * * * * * * * * * * * //

dimensions      [0 3 -1 0 0 0 0];

internalField   nonuniform List<scalar> 
4900
(
5.45463e-06
-5.45465e-06
9.95313e-06
-4.49851e-06
1.26939e-05
-2.7408e-06
1.44122e-05
-1.71829e-06
1.55285e-05
-1.11626e-06
1.62817e-05
-7.53213e-07
1.68128e-05
-5.31138e-07
1.72034e-05
-3.90608e-07
1.75007e-05
-2.97305e-07
1.7733e-05
-2.32288e-07
1.79181e-05
-1.85029e-07
1.80675e-05
-1.49465e-07
1.81895e-05
-1.21946e-07
1.82896e-05
-1.00173e-07
1.83723e-05
-8.2633e-08
1.84406e-05
-6.82872e-08
1.8497e-05
-5.63963e-08
1.85434e-05
-4.64165e-08
1.85813e-05
-3.79357e-08
1.86119e-05
-3.06329e-08
1.86362e-05
-2.42513e-08
1.86548e-05
-1.85795e-08
1.86682e-05
-1.34385e-08
1.86769e-05
-8.67224e-09
1.8681e-05
-4.14011e-09
1.86807e-05
2.92382e-10
1.8676e-05
4.74758e-09
1.86666e-05
9.36081e-09
1.86524e-05
1.42664e-08
1.86327e-05
1.96146e-08
1.86072e-05
2.55766e-08
1.85748e-05
3.23546e-08
1.85346e-05
4.01951e-08
1.84852e-05
4.94084e-08
1.84248e-05
6.03957e-08
1.83511e-05
7.36905e-08
1.82611e-05
9.00228e-08
1.81507e-05
1.10421e-07
1.80143e-05
1.36385e-07
1.78441e-05
1.7019e-07
1.76287e-05
2.15436e-07
1.73506e-05
2.78116e-07
1.69819e-05
3.68692e-07
1.64756e-05
5.06246e-07
1.57495e-05
7.26148e-07
1.46575e-05
1.09195e-06
1.29451e-05
1.71238e-06
1.0162e-05
2.78318e-06
5.55724e-06
4.60473e-06
5.55724e-06
-1.19296e-07
-5.33535e-06
1.83183e-06
-6.44963e-06
4.41345e-06
-5.32241e-06
6.72976e-06
-4.0346e-06
8.61042e-06
-2.99692e-06
1.00939e-05
-2.23667e-06
1.12598e-05
-1.69706e-06
1.21823e-05
-1.31308e-06
1.29197e-05
-1.03477e-06
1.35157e-05
-8.28284e-07
1.40021e-05
-6.71423e-07
1.44023e-05
-5.49629e-07
1.47336e-05
-4.5322e-07
1.5009e-05
-3.7562e-07
1.52386e-05
-3.1225e-07
1.54302e-05
-2.59833e-07
1.55897e-05
-2.15965e-07
1.57222e-05
-1.78834e-07
1.58313e-05
-1.47042e-07
1.59201e-05
-1.19482e-07
1.59911e-05
-9.52561e-08
1.60462e-05
-7.36161e-08
1.60866e-05
-5.39228e-08
1.61136e-05
-3.56128e-08
1.61276e-05
-1.8174e-08
1.6129e-05
-1.12587e-09
1.61178e-05
1.60045e-08
1.60935e-05
3.36909e-08
1.60553e-05
5.24361e-08
1.60021e-05
7.2789e-08
1.59323e-05
9.53719e-08
1.58438e-05
1.20915e-07
1.57337e-05
1.503e-07
1.55984e-05
1.84624e-07
1.54335e-05
2.25286e-07
1.52331e-05
2.74119e-07
1.49896e-05
3.33575e-07
1.4693e-05
4.07024e-07
1.43301e-05
4.99205e-07
1.38834e-05
6.16963e-07
1.33284e-05
7.70431e-07
1.26315e-05
9.74966e-07
1.1746e-05
1.25423e-06
1.06074e-05
1.64483e-06
9.13168e-06
2.20186e-06
7.22437e-06
2.99926e-06
4.83149e-06
4.10526e-06
2.12099e-06
5.49367e-06
1.07179e-08
6.715e-06
5.56796e-06
-1.08241e-06
-4.25294e-06
-7.53962e-07
-6.77808e-06
5.8986e-07
-6.66623e-06
2.30255e-06
-5.74729e-06
4.0144e-06
-4.70876e-06
5.56674e-06
-3.78902e-06
6.91235e-06
-3.04267e-06
8.05476e-06
-2.45549e-06
9.01649e-06
-1.99651e-06
9.82426e-06
-1.63606e-06
1.05031e-05
-1.35024e-06
1.10744e-05
-1.12095e-06
1.1556e-05
-9.34826e-07
1.19624e-05
-7.82019e-07
1.23054e-05
-6.55225e-07
1.25945e-05
-5.4896e-07
1.28376e-05
-4.59033e-07
1.30409e-05
-3.82189e-07
1.32097e-05
-3.15846e-07
1.33482e-05
-2.57915e-07
1.34596e-05
-2.06667e-07
1.35466e-05
-1.6064e-07
1.36112e-05
-1.18564e-07
1.36549e-05
-7.93097e-08
1.36786e-05
-4.18373e-08
1.36826e-05
-5.16448e-09
1.3667e-05
3.16769e-08
1.3631e-05
6.96629e-08
1.35736e-05
1.09825e-07
1.34931e-05
1.53284e-07
1.33872e-05
2.01303e-07
1.32527e-05
2.55348e-07
1.30859e-05
3.17168e-07
1.28816e-05
3.88905e-07
1.26336e-05
4.7324e-07
1.23342e-05
5.73603e-07
1.19733e-05
6.94466e-07
1.15385e-05
8.41757e-07
1.10143e-05
1.02346e-06
1.03808e-05
1.25046e-06
9.6135e-06
1.53772e-06
8.68273e-06
1.90573e-06
7.55493e-06
2.38203e-06
6.19822e-06
3.00154e-06
4.59789e-06
3.8022e-06
2.7916e-06
4.80555e-06
9.38069e-07
5.95879e-06
-5.70614e-07
7.00236e-06
-1.03814e-06
7.18253e-06
4.52981e-06
-9.12979e-07
-3.33996e-06
-1.34127e-06
-6.34979e-06
-9.36158e-07
-7.07134e-06
2.24901e-08
-6.70594e-06
1.2409e-06
-5.92718e-06
2.51957e-06
-5.06768e-06
3.7457e-06
-4.2688e-06
4.86655e-06
-3.57635e-06
5.86427e-06
-2.99422e-06
6.73897e-06
-2.51075e-06
7.49903e-06
-2.1103e-06
8.15592e-06
-1.77784e-06
8.7216e-06
-1.5005e-06
9.20733e-06
-1.26775e-06
9.62323e-06
-1.07113e-06
9.97813e-06
-9.03852e-07
1.02796e-05
-7.60504e-07
1.05341e-05
-6.3668e-07
1.0747e-05
-5.28771e-07
1.09229e-05
-4.33771e-07
1.10653e-05
-3.49129e-07
1.11773e-05
-2.72642e-07
1.12611e-05
-2.02362e-07
1.13183e-05
-1.36527e-07
1.135e-05
-7.35001e-08
1.13566e-05
-1.17164e-08
1.13379e-05
5.03685e-08
1.12932e-05
1.14321e-07
1.12212e-05
1.8179e-07
1.112e-05
2.54556e-07
1.09867e-05
3.34608e-07
1.08178e-05
4.24225e-07
1.06089e-05
5.2608e-07
1.03544e-05
6.43383e-07
1.00476e-05
7.80056e-07
9.68022e-06
9.40971e-07
9.24243e-06
1.13225e-06
8.72251e-06
1.36168e-06
8.10681e-06
1.63915e-06
7.38004e-06
1.97723e-06
6.52616e-06
2.3916e-06
5.53086e-06
2.90104e-06
4.38691e-06
3.52598e-06
3.10486e-06
4.28359e-06
1.73228e-06
5.17477e-06
3.8398e-07
6.15385e-06
-7.24274e-07
7.06705e-06
-1.26558e-06
7.54367e-06
-9.15833e-07
6.83278e-06
3.61398e-06
-6.64672e-07
-2.67529e-06
-1.29684e-06
-5.71762e-06
-1.41723e-06
-6.95095e-06
-1.04101e-06
-7.08216e-06
-3.22688e-07
-6.6455e-06
5.80198e-07
-5.97057e-06
1.54939e-06
-5.23799e-06
2.50897e-06
-4.53593e-06
3.41571e-06
-3.90097e-06
4.24821e-06
-3.34325e-06
4.99842e-06
-2.86051e-06
5.66598e-06
-2.4454e-06
6.25461e-06
-2.08914e-06
6.76999e-06
-1.78313e-06
7.21845e-06
-1.51959e-06
7.60635e-06
-1.29175e-06
7.93966e-06
-1.09381e-06
8.2238e-06
-9.20815e-07
8.46353e-06
-7.68505e-07
8.66298e-06
-6.33214e-07
8.82558e-06
-5.11733e-07
8.95415e-06
-4.01215e-07
9.05088e-06
-2.9909e-07
9.11735e-06
-2.0299e-07
9.15453e-06
-1.10683e-07
9.16283e-06
-2.00155e-08
9.14205e-06
7.11502e-08
9.09138e-06
1.64988e-07
9.00939e-06
2.63776e-07
8.89399e-06
3.69961e-07
8.74235e-06
4.86242e-07
8.55092e-06
6.15663e-07
8.31527e-06
7.61725e-07
8.03012e-06
9.28528e-07
7.68925e-06
1.12093e-06
7.28545e-06
1.34477e-06
6.81068e-06
1.60702e-06
6.25627e-06
1.9161e-06
5.61349e-06
2.28193e-06
4.8748e-06
2.71593e-06
4.036e-06
3.2304e-06
3.10021e-06
3.83683e-06
2.08442e-06
4.54177e-06
1.02964e-06
5.33837e-06
1.45704e-08
6.18984e-06
-8.31531e-07
6.99995e-06
-1.32883e-06
7.56435e-06
-1.29269e-06
7.50753e-06
-6.84888e-07
6.22497e-06
2.92909e-06
-4.70638e-07
-2.20465e-06
-1.09916e-06
-5.0891e-06
-1.46693e-06
-6.58318e-06
-1.46735e-06
-7.08175e-06
-1.14619e-06
-6.96666e-06
-5.98435e-07
-6.51832e-06
8.22267e-08
-5.91865e-06
8.21934e-07
-5.27563e-06
1.56904e-06
-4.64808e-06
2.29048e-06
-4.06469e-06
2.96683e-06
-3.53686e-06
3.58804e-06
-3.06661e-06
4.15011e-06
-2.65121e-06
4.65279e-06
-2.2858e-06
5.09798e-06
-1.96479e-06
5.4888e-06
-1.68257e-06
5.82882e-06
-1.43384e-06
6.12174e-06
-1.21374e-06
6.3711e-06
-1.01787e-06
6.58012e-06
-8.42231e-07
6.75161e-06
-6.83218e-07
6.88791e-06
-5.37518e-07
6.99089e-06
-4.02069e-07
7.06189e-06
-2.73989e-07
7.10173e-06
-1.50521e-07
7.11068e-06
-2.89716e-08
7.08849e-06
9.33434e-08
7.03431e-06
2.19162e-07
6.94675e-06
3.51339e-07
6.82379e-06
4.92919e-07
6.66283e-06
6.47211e-07
6.46061e-06
8.17878e-07
6.2133e-06
1.00904e-06
5.91647e-06
1.22536e-06
5.5652e-06
1.4722e-06
5.15429e-06
1.75567e-06
4.67861e-06
2.08271e-06
4.13369e-06
2.46102e-06
3.5168e-06
2.89881e-06
2.82868e-06
3.40405e-06
2.07616e-06
3.98292e-06
1.27617e-06
4.63682e-06
4.61194e-07
5.35674e-06
-3.1421e-07
6.11377e-06
-9.6787e-07
6.8435e-06
-1.39096e-06
7.42304e-06
-1.46836e-06
7.64174e-06
-1.13563e-06
7.1748e-06
-4.9642e-07
5.58576e-06
2.43267e-06
-3.39647e-07
-1.865e-06
-9.01214e-07
-4.52753e-06
-1.36253e-06
-6.12187e-06
-1.5822e-06
-6.86208e-06
-1.54179e-06
-7.00707e-06
-1.28336e-06
-6.77675e-06
-8.68226e-07
-6.33378e-06
-3.55471e-07
-5.78839e-06
2.06638e-07
-5.21019e-06
7.82251e-07
-4.6403e-06
1.34655e-06
-4.10116e-06
1.88343e-06
-3.60349e-06
2.3832e-06
-3.15098e-06
2.8407e-06
-2.74329e-06
3.25378e-06
-2.37787e-06
3.6223e-06
-2.05108e-06
3.94729e-06
-1.75883e-06
4.23045e-06
-1.49691e-06
4.4738e-06
-1.26121e-06
4.67938e-06
-1.04781e-06
4.8491e-06
-8.52944e-07
4.98466e-06
-6.73072e-07
5.08739e-06
-5.04806e-07
5.15829e-06
-3.44887e-07
5.19791e-06
-1.90144e-07
5.20639e-06
-3.74442e-08
5.18337e-06
1.16356e-07
5.12807e-06
2.74465e-07
5.0392e-06
4.40212e-07
4.91501e-06
6.17112e-07
4.75329e-06
8.08925e-07
4.55145e-06
1.01973e-06
4.30652e-06
1.25396e-06
4.01537e-06
1.51651e-06
3.67486e-06
1.81271e-06
3.28224e-06
2.14829e-06
2.83567e-06
2.52928e-06
2.33506e-06
2.96163e-06
1.78332e-06
3.45055e-06
1.18813e-06
3.99924e-06
5.64372e-07
4.60668e-06
-6.28423e-08
5.26403e-06
-6.54847e-07
5.94875e-06
-1.15697e-06
6.6159e-06
-1.49951e-06
7.18604e-06
-1.60694e-06
7.53048e-06
-1.42305e-06
7.45784e-06
-9.59173e-07
6.71093e-06
-3.66416e-07
4.993e-06
2.06626e-06
-2.54706e-07
-1.6103e-06
-7.4018e-07
-4.04206e-06
-1.21969e-06
-5.64236e-06
-1.55656e-06
-6.52521e-06
-1.70179e-06
-6.86184e-06
-1.66128e-06
-6.81726e-06
-1.46769e-06
-6.52737e-06
-1.16188e-06
-6.0942e-06
-7.82824e-07
-5.58924e-06
-3.63247e-07
-5.05988e-06
7.14646e-08
-4.53587e-06
5.02727e-07
-4.03475e-06
9.17618e-07
-3.56588e-06
1.30762e-06
-3.1333e-06
1.66751e-06
-2.73776e-06
1.99439e-06
-2.37797e-06
2.28701e-06
-2.05144e-06
2.54515e-06
-1.75505e-06
2.76928e-06
-1.48534e-06
2.9602e-06
-1.23872e-06
3.11884e-06
-1.01158e-06
3.24611e-06
-8.00344e-07
3.34278e-06
-6.01477e-07
3.4094e-06
-4.11504e-07
3.44623e-06
-2.26974e-07
3.45323e-06
-4.44415e-08
3.43001e-06
1.39576e-07
3.37584e-06
3.28632e-07
3.28966e-06
5.26393e-07
3.17009e-06
7.36685e-07
3.01548e-06
9.63528e-07
2.82404e-06
1.21117e-06
2.59391e-06
1.48409e-06
2.32341e-06
1.78701e-06
2.01135e-06
2.12477e-06
1.65745e-06
2.5022e-06
1.26297e-06
2.92375e-06
8.31655e-07
3.39295e-06
3.70825e-07
3.91138e-06
-1.07063e-07
4.47712e-06
-5.82677e-07
5.0823e-06
-1.02804e-06
5.70939e-06
-1.4054e-06
6.3261e-06
-1.66794e-06
6.87844e-06
-1.76458e-06
7.28268e-06
-1.65187e-06
7.41778e-06
-1.31644e-06
7.12241e-06
-8.08737e-07
6.20323e-06
-2.8099e-07
4.46525e-06
1.78527e-06
-1.99111e-07
-1.41119e-06
-6.17315e-07
-3.62385e-06
-1.08232e-06
-5.17736e-06
-1.47586e-06
-6.13166e-06
-1.73851e-06
-6.59918e-06
-1.85482e-06
-6.70096e-06
-1.83604e-06
-6.54615e-06
-1.7064e-06
-6.22384e-06
-1.49391e-06
-5.80174e-06
-1.22517e-06
-5.32862e-06
-9.23008e-07
-4.83803e-06
-6.05742e-07
-4.35202e-06
-2.87353e-07
-3.88426e-06
2.192e-08
-3.44257e-06
3.14878e-07
-3.03072e-06
5.86682e-07
-2.64977e-06
8.34256e-07
-2.29901e-06
1.0558e-06
-1.97659e-06
1.25038e-06
-1.67992e-06
1.41765e-06
-1.40599e-06
1.55759e-06
-1.15153e-06
1.67036e-06
-9.13109e-07
1.75612e-06
-6.87236e-07
1.81498e-06
-4.70365e-07
1.84691e-06
-2.58909e-07
1.85171e-06
-4.92425e-08
1.82897e-06
1.62318e-07
1.77807e-06
3.79529e-07
1.69822e-06
6.06243e-07
1.58848e-06
8.46425e-07
1.44786e-06
1.10415e-06
1.27541e-06
1.38362e-06
1.07043e-06
1.68907e-06
8.32713e-07
2.02473e-06
5.62867e-07
2.39462e-06
2.62815e-07
2.80225e-06
-6.36012e-08
3.25017e-06
-4.09827e-07
3.73918e-06
-7.65648e-07
4.2672e-06
-1.11614e-06
4.82762e-06
-1.44069e-06
5.40685e-06
-1.71245e-06
5.98115e-06
-1.89884e-06
6.5125e-06
-1.96425e-06
6.94385e-06
-1.87621e-06
7.19464e-06
-1.61671e-06
7.15828e-06
-1.19932e-06
6.70502e-06
-6.9006e-07
5.69397e-06
-2.24316e-07
3.99951e-06
1.56095e-06
-1.61767e-07
-1.24942e-06
-5.25386e-07
-3.26023e-06
-9.6428e-07
-4.73847e-06
-1.38068e-06
-5.71527e-06
-1.71513e-06
-6.26474e-06
-1.94121e-06
-6.47487e-06
-2.05589e-06
-6.43147e-06
-2.07016e-06
-6.20956e-06
-2.00178e-06
-5.87012e-06
-1.87037e-06
-5.46003e-06
-1.69458e-06
-5.01383e-06
-1.49068e-06
-4.55591e-06
-1.27212e-06
-4.10283e-06
-1.04949e-06
-3.6652e-06
-8.30894e-07
-3.24932e-06
-6.22313e-07
-2.85835e-06
-4.28048e-07
-2.49328e-06
-2.5109e-07
-2.15355e-06
-9.3455e-08
-1.83756e-06
4.35398e-08
-1.54299e-06
1.59058e-07
-1.26705e-06
2.52565e-07
-1.00662e-06
3.23698e-07
-7.5837e-07
3.72165e-07
-5.18832e-07
3.97672e-07
-2.84416e-07
3.9988e-07
-5.14508e-08
3.78386e-07
1.83811e-07
3.32725e-07
4.2519e-07
2.62398e-07
6.7657e-07
1.66936e-07
9.41887e-07
4.59904e-08
1.2251e-06
-1.00524e-07
1.53013e-06
-2.72239e-07
1.86078e-06
-4.68065e-07
2.22056e-06
-6.85856e-07
2.61241e-06
-9.21969e-07
3.03836e-06
-1.17074e-06
3.49894e-06
-1.42386e-06
3.9923e-06
-1.66975e-06
4.51309e-06
-1.89299e-06
5.05085e-06
-2.07404e-06
5.5879e-06
-2.18963e-06
6.09674e-06
-2.21431e-06
6.53719e-06
-2.12394e-06
6.85348e-06
-1.90179e-06
6.97248e-06
-1.54781e-06
6.8043e-06
-1.09046e-06
6.24766e-06
-5.98285e-07
5.2018e-06
-1.85516e-07
3.58674e-06
1.37543e-06
-1.35947e-07
-1.11347e-06
-4.56754e-07
-2.93943e-06
-8.67626e-07
-4.3276e-06
-1.28901e-06
-5.29388e-06
-1.66601e-06
-5.88774e-06
-1.96772e-06
-6.17316e-06
-2.18234e-06
-6.21684e-06
-2.31126e-06
-6.08064e-06
-2.36368e-06
-5.8177e-06
-2.35258e-06
-5.47113e-06
-2.29196e-06
-5.07445e-06
-2.19515e-06
-4.65272e-06
-2.07398e-06
-4.224e-06
-1.93843e-06
-3.80074e-06
-1.79664e-06
-3.39111e-06
-1.65501e-06
-2.99998e-06
-1.51849e-06
-2.62979e-06
-1.39084e-06
-2.28121e-06
-1.27481e-06
-1.95358e-06
-1.17245e-06
-1.64535e-06
-1.08524e-06
-1.35426e-06
-1.01426e-06
-1.0776e-06
-9.60313e-07
-8.12318e-07
-9.2402e-07
-5.55125e-07
-9.05888e-07
-3.02548e-07
-9.06345e-07
-5.09937e-08
-9.2576e-07
2.03227e-07
-9.64433e-07
4.63863e-07
-1.02256e-06
7.34694e-07
-1.10015e-06
1.01948e-06
-1.19696e-06
1.32191e-06
-1.31231e-06
1.64548e-06
-1.44492e-06
1.99339e-06
-1.59265e-06
2.36828e-06
-1.7522e-06
2.77196e-06
-1.91877e-06
3.20493e-06
-2.08562e-06
3.66579e-06
-2.24374e-06
4.15041e-06
-2.38142e-06
4.65078e-06
-2.48422e-06
5.15365e-06
-2.53516e-06
5.63884e-06
-2.51575e-06
6.07732e-06
-2.40796e-06
6.4294e-06
-2.19782e-06
6.64334e-06
-1.88065e-06
6.65532e-06
-1.46804e-06
6.39169e-06
-9.95267e-07
5.77489e-06
-5.27117e-07
4.73365e-06
-1.57946e-07
3.21757e-06
1.21749e-06
-1.17617e-07
-9.95856e-07
-4.05274e-07
-2.65177e-06
-7.90263e-07
-3.94261e-06
-1.20786e-06
-4.87629e-06
-1.60921e-06
-5.48639e-06
-1.96258e-06
-5.81978e-06
-2.25131e-06
-5.92812e-06
-2.47019e-06
-5.86176e-06
-2.62185e-06
-5.66604e-06
-2.71353e-06
-5.37945e-06
-2.75473e-06
-5.03325e-06
-2.75556e-06
-4.65189e-06
-2.72571e-06
-4.25385e-06
-2.6739e-06
-3.85255e-06
-2.60766e-06
-3.45735e-06
-2.53327e-06
-3.07437e-06
-2.45583e-06
-2.70723e-06
-2.37944e-06
-2.3576e-06
-2.3073e-06
-2.02572e-06
-2.24192e-06
-1.71074e-06
-2.1852e-06
-1.41097e-06
-2.13863e-06
-1.12417e-06
-2.10334e-06
-8.47608e-07
-2.08019e-06
-5.78273e-07
-2.06984e-06
-3.12904e-07
-2.07275e-06
-4.80814e-08
-2.08924e-06
2.19715e-07
-2.11943e-06
4.94054e-07
-2.16323e-06
7.78492e-07
-2.22025e-06
1.0765e-06
-2.28972e-06
1.39138e-06
-2.37035e-06
1.72611e-06
-2.46015e-06
2.08319e-06
-2.55622e-06
2.46436e-06
-2.65454e-06
2.87028e-06
-2.74967e-06
3.30006e-06
-2.83453e-06
3.75066e-06
-2.90019e-06
4.21607e-06
-2.93581e-06
4.6864e-06
-2.92884e-06
5.14668e-06
-2.86563e-06
5.57564e-06
-2.73273e-06
5.94442e-06
-2.51894e-06
6.21561e-06
-2.21856e-06
6.34296e-06
-1.83551e-06
6.27227e-06
-1.38821e-06
5.94439e-06
-9.13961e-07
5.30064e-06
-4.71257e-07
4.29094e-06
-1.37633e-07
2.88395e-06
1.07985e-06
-1.04313e-07
-8.91543e-07
-3.66401e-07
-2.38968e-06
-7.29029e-07
-3.57998e-06
-1.13908e-06
-4.46623e-06
-1.55372e-06
-5.07175e-06
-1.9423e-06
-5.4312e-06
-2.28577e-06
-5.58465e-06
-2.57469e-06
-5.57284e-06
-2.80683e-06
-5.4339e-06
-2.98481e-06
-5.20146e-06
-3.11416e-06
-4.9039e-06
-3.20182e-06
-4.56423e-06
-3.25518e-06
-4.20049e-06
-3.28136e-06
-3.82637e-06
-3.28688e-06
-3.45183e-06
-3.27749e-06
-3.08377e-06
-3.25806e-06
-2.72665e-06
-3.2327e-06
-2.38296e-06
-3.20476e-06
-2.05366e-06
-3.17696e-06
-1.73854e-06
-3.15147e-06
-1.43646e-06
-3.13e-06
-1.14563e-06
-3.11389e-06
-8.63718e-07
-3.10415e-06
-5.88015e-07
-3.10151e-06
-3.15544e-07
-3.10645e-06
-4.3142e-08
-3.11919e-06
2.32461e-07
-3.13971e-06
5.14565e-07
-3.16763e-06
8.06419e-07
-3.20225e-06
1.11112e-06
-3.24239e-06
1.43152e-06
-3.28629e-06
1.77001e-06
-3.33147e-06
2.12837e-06
-3.37461e-06
2.50749e-06
-3.41133e-06
2.90699e-06
-3.43605e-06
3.32478e-06
-3.4419e-06
3.75651e-06
-3.42068e-06
4.19485e-06
-3.36301e-06
4.62872e-06
-3.25875e-06
5.04241e-06
-3.0978e-06
5.41469e-06
-2.87145e-06
5.71807e-06
-2.57433e-06
5.9185e-06
-2.20705e-06
5.97568e-06
-1.77933e-06
5.84454e-06
-1.31311e-06
5.47818e-06
-8.45031e-07
4.83256e-06
-4.2675e-07
3.87266e-06
-1.22184e-07
2.57938e-06
9.57671e-07
-9.44897e-08
-7.97053e-07
-3.36856e-07
-2.14732e-06
-6.80837e-07
-3.236e-06
-1.08224e-06
-4.06483e-06
-1.50362e-06
-4.65037e-06
-1.91622e-06
-5.0186e-06
-2.30016e-06
-5.20072e-06
-2.64342e-06
-5.22958e-06
-2.94034e-06
-5.13697e-06
-3.18995e-06
-4.95185e-06
-3.39443e-06
-4.69942e-06
-3.5579e-06
-4.40076e-06
-3.68546e-06
-4.07293e-06
-3.78254e-06
-3.7293e-06
-3.85443e-06
-3.37994e-06
-3.90606e-06
-3.03214e-06
-3.94185e-06
-2.69087e-06
-3.96563e-06
-2.35918e-06
-3.98066e-06
-2.03863e-06
-3.98969e-06
-1.72951e-06
-3.99496e-06
-1.43119e-06
-3.99829e-06
-1.14231e-06
-4.00109e-06
-8.60917e-07
-4.00444e-06
-5.84665e-07
-4.00909e-06
-3.10892e-07
-4.01549e-06
-3.67455e-08
-4.02376e-06
2.40735e-07
-4.03372e-06
5.24522e-07
-4.0448e-06
8.17499e-07
-4.05603e-06
1.12235e-06
-4.06592e-06
1.44142e-06
-4.07245e-06
1.77653e-06
-4.07286e-06
2.12879e-06
-4.06367e-06
2.4983e-06
-4.04048e-06
2.8838e-06
-3.99797e-06
3.28228e-06
-3.9299e-06
3.68844e-06
-3.82921e-06
4.09416e-06
-3.68831e-06
4.48783e-06
-3.49965e-06
4.85376e-06
-3.25656e-06
5.17159e-06
-2.9545e-06
5.41601e-06
-2.5928e-06
5.5568e-06
-2.17668e-06
5.55956e-06
-1.71947e-06
5.38734e-06
-1.2446e-06
5.0033e-06
-7.86622e-07
4.37458e-06
-3.90765e-07
3.47681e-06
-1.10121e-07
2.29873e-06
8.4755e-07
-8.71428e-08
-7.0991e-07
-3.14275e-07
-1.92018e-06
-6.43028e-07
-2.90724e-06
-1.03602e-06
-3.67184e-06
-1.46037e-06
-4.22603e-06
-1.88945e-06
-4.58952e-06
-2.30342e-06
-4.78675e-06
-2.68883e-06
-4.84417e-06
-3.03766e-06
-4.78814e-06
-3.34624e-06
-4.64328e-06
-3.61404e-06
-4.43161e-06
-3.84275e-06
-4.17205e-06
-4.03538e-06
-3.88031e-06
-4.19566e-06
-3.56901e-06
-4.32762e-06
-3.24797e-06
-4.43524e-06
-2.92452e-06
-4.52226e-06
-2.60384e-06
-4.59209e-06
-2.28935e-06
-4.64775e-06
-1.98297e-06
-4.69181e-06
-1.68544e-06
-4.72646e-06
-1.39654e-06
-4.7535e-06
-1.11527e-06
-4.77433e-06
-8.40085e-07
-4.79002e-06
-5.68976e-07
-4.80128e-06
-2.99629e-07
-4.8085e-06
-2.9528e-08
-4.81171e-06
2.43942e-07
-4.81058e-06
5.23389e-07
-4.80438e-06
8.11305e-07
-4.79197e-06
1.10994e-06
-4.7717e-06
1.42114e-06
-4.74137e-06
1.74621e-06
-4.6982e-06
2.08562e-06
-4.63875e-06
2.43884e-06
-4.55887e-06
2.80393e-06
-4.45381e-06
3.17721e-06
-4.3182e-06
3.55284e-06
-4.14638e-06
3.92234e-06
-3.93269e-06
4.27414e-06
-3.67209e-06
4.59315e-06
-3.361e-06
4.86049e-06
-2.9984e-06
5.05341e-06
-2.58726e-06
5.14565e-06
-2.13602e-06
5.10832e-06
-1.66013e-06
4.91144e-06
-1.18313e-06
4.52631e-06
-7.37028e-07
3.92848e-06
-3.61302e-07
3.10108e-06
-1.00505e-07
2.03794e-06
7.47045e-07
-8.15967e-08
-6.28314e-07
-2.96949e-07
-1.70483e-06
-6.13433e-07
-2.59076e-06
-9.98851e-07
-3.28642e-06
-1.42408e-06
-3.8008e-06
-1.86457e-06
-4.14903e-06
-2.30097e-06
-4.35034e-06
-2.71911e-06
-4.42604e-06
-3.10943e-06
-4.39782e-06
-3.46625e-06
-4.28646e-06
-3.78695e-06
-4.11091e-06
-4.07114e-06
-3.88786e-06
-4.32002e-06
-3.63143e-06
-4.53576e-06
-3.35327e-06
-4.72111e-06
-3.06262e-06
-4.87907e-06
-2.76656e-06
-5.01263e-06
-2.47028e-06
-5.12466e-06
-2.17732e-06
-5.21778e-06
-1.88985e-06
-5.29433e-06
-1.60889e-06
-5.35632e-06
-1.33455e-06
-5.40543e-06
-1.06617e-06
-5.44297e-06
-8.02545e-07
-5.46993e-06
-5.42008e-07
-5.48697e-06
-2.8259e-07
-5.49438e-06
-2.21218e-08
-5.49209e-06
2.41653e-07
-5.47967e-06
5.10968e-07
-5.45628e-06
7.87917e-07
-5.42067e-06
1.07432e-06
-5.37111e-06
1.37159e-06
-5.30543e-06
1.68052e-06
-5.22091e-06
2.00111e-06
-5.11435e-06
2.33229e-06
-4.9821e-06
2.67167e-06
-4.82008e-06
3.01519e-06
-4.62402e-06
3.35678e-06
-4.38972e-06
3.68803e-06
-4.11341e-06
3.99783e-06
-3.79237e-06
4.27212e-06
-3.42571e-06
4.49383e-06
-3.01527e-06
4.64297e-06
-2.56671e-06
4.6971e-06
-2.09067e-06
4.63228e-06
-1.60364e-06
4.42442e-06
-1.1286e-06
4.05127e-06
-6.9484e-07
3.49471e-06
-3.36945e-07
2.74319e-06
-9.27223e-08
1.79372e-06
6.54323e-07
-7.73845e-08
-5.50929e-07
-2.83624e-07
-1.49859e-06
-5.90321e-07
-2.28406e-06
-9.69229e-07
-2.90751e-06
-1.39426e-06
-3.37577e-06
-1.84273e-06
-3.70056e-06
-2.296e-06
-3.89707e-06
-2.7396e-06
-3.98243e-06
-3.16301e-06
-3.97441e-06
-3.55911e-06
-3.89036e-06
-3.92362e-06
-3.7464e-06
-4.25452e-06
-3.55696e-06
-4.55141e-06
-3.33454e-06
-4.8151e-06
-3.08959e-06
-5.04714e-06
-2.83058e-06
-5.24956e-06
-2.56415e-06
-5.42458e-06
-2.29526e-06
-5.57448e-06
-2.02742e-06
-5.70144e-06
-1.76289e-06
-5.80745e-06
-1.50288e-06
-5.89428e-06
-1.24772e-06
-5.96341e-06
-9.97036e-07
-6.01604e-06
-7.49914e-07
-6.05304e-06
-5.05008e-07
-6.07495e-06
-2.60679e-07
-6.08198e-06
-1.50986e-08
-6.07396e-06
2.33634e-07
-6.05038e-06
4.87387e-07
-6.01033e-06
7.47873e-07
-5.95253e-06
1.01652e-06
-5.87528e-06
1.29434e-06
-5.77647e-06
1.58171e-06
-5.65363e-06
1.87826e-06
-5.50392e-06
2.18258e-06
-5.32426e-06
2.492e-06
-5.11141e-06
2.80234e-06
-4.86223e-06
3.1076e-06
-4.57394e-06
3.39974e-06
-4.24456e-06
3.66844e-06
-3.87343e-06
3.90099e-06
-3.46188e-06
4.08229e-06
-3.01401e-06
4.1951e-06
-2.53749e-06
4.22058e-06
-2.04431e-06
4.13909e-06
-1.55136e-06
3.93147e-06
-1.08066e-06
3.58056e-06
-6.58946e-07
3.073e-06
-3.16689e-07
2.40093e-06
-8.63583e-08
1.56339e-06
5.67964e-07
-7.41754e-08
-4.76754e-07
-2.73374e-07
-1.29939e-06
-5.72332e-07
-1.98511e-06
-9.45816e-07
-2.53403e-06
-1.37016e-06
-2.95143e-06
-1.82428e-06
-3.24644e-06
-2.2903e-06
-3.43105e-06
-2.75375e-06
-3.51898e-06
-3.20348e-06
-3.52469e-06
-3.63136e-06
-3.46247e-06
-4.03188e-06
-3.34587e-06
-4.40167e-06
-3.18717e-06
-4.73905e-06
-2.99717e-06
-5.04359e-06
-2.78504e-06
-5.31582e-06
-2.55836e-06
-5.55683e-06
-2.32313e-06
-5.76812e-06
-2.08397e-06
-5.95136e-06
-1.84419e-06
-6.10823e-06
-1.60602e-06
-6.24038e-06
-1.37074e-06
-6.34927e-06
-1.13882e-06
-6.43618e-06
-9.10126e-07
-6.50212e-06
-6.83974e-07
-6.54782e-06
-4.59308e-07
-6.57371e-06
-2.34793e-07
-6.57988e-06
-8.92646e-09
-6.5661e-06
2.19858e-07
-6.5318e-06
4.53084e-07
-6.47604e-06
6.92114e-07
-6.39755e-06
9.38032e-07
-6.29471e-06
1.1915e-06
-6.16561e-06
1.45261e-06
-6.00805e-06
1.7207e-06
-5.81964e-06
1.99418e-06
-5.59795e-06
2.27031e-06
-5.34059e-06
2.54498e-06
-5.04553e-06
2.81254e-06
-4.71134e-06
3.06555e-06
-4.33762e-06
3.29473e-06
-3.92549e-06
3.48886e-06
-3.4781e-06
3.6349e-06
-3.00128e-06
3.71828e-06
-2.5041e-06
3.7234e-06
-1.9994e-06
3.63439e-06
-1.50404e-06
3.43611e-06
-1.03892e-06
3.11545e-06
-6.28496e-07
2.66258e-06
-2.99815e-07
2.07225e-06
-8.11292e-08
1.3447e-06
4.86835e-07
-7.17313e-08
-4.05023e-07
-2.65508e-07
-1.10562e-06
-5.58404e-07
-1.69221e-06
-9.27476e-07
-2.16496e-06
-1.35097e-06
-2.52794e-06
-1.80915e-06
-2.78826e-06
-2.28485e-06
-2.95535e-06
-2.76373e-06
-3.0401e-06
-3.2343e-06
-3.05412e-06
-3.68772e-06
-3.00905e-06
-4.11754e-06
-2.91605e-06
-4.51934e-06
-2.78537e-06
-4.89037e-06
-2.62613e-06
-5.22921e-06
-2.4462e-06
-5.53544e-06
-2.25213e-06
-5.80936e-06
-2.04922e-06
-6.05176e-06
-1.84157e-06
-6.26373e-06
-1.63222e-06
-6.4465e-06
-1.42325e-06
-6.60133e-06
-1.21591e-06
-6.72939e-06
-1.01076e-06
-6.83171e-06
-8.07807e-07
-6.90911e-06
-6.06574e-07
-6.96217e-06
-4.06249e-07
-6.99119e-06
-2.05774e-07
-6.99617e-06
-3.94121e-09
-6.97682e-06
2.00506e-07
-6.93251e-06
4.08777e-07
-6.86233e-06
6.21928e-07
-6.76504e-06
8.40746e-07
-6.63917e-06
1.06563e-06
-6.48301e-06
1.29645e-06
-6.29471e-06
1.5324e-06
-6.07237e-06
1.77184e-06
-5.81418e-06
2.01212e-06
-5.51861e-06
2.24941e-06
-5.18464e-06
2.47857e-06
-4.81207e-06
2.69299e-06
-4.40189e-06
2.88454e-06
-3.95665e-06
3.04362e-06
-3.48099e-06
3.15923e-06
-2.98203e-06
3.21932e-06
-2.46982e-06
3.21119e-06
-1.95764e-06
3.12221e-06
-1.46212e-06
2.94059e-06
-1.00304e-06
2.65636e-06
-6.02846e-07
2.26238e-06
-2.85809e-07
1.75521e-06
-7.68367e-08
1.13573e-06
4.09998e-07
-6.98788e-08
-3.35144e-07
-2.59512e-07
-9.15982e-07
-5.47713e-07
-1.40401e-06
-9.13278e-07
-1.79939e-06
-1.33594e-06
-2.10528e-06
-1.79705e-06
-2.32715e-06
-2.2801e-06
-2.4723e-06
-2.77093e-06
-2.54926e-06
-3.25786e-06
-2.56719e-06
-3.73157e-06
-2.53535e-06
-4.1849e-06
-2.46272e-06
-4.61264e-06
-2.35763e-06
-5.01119e-06
-2.22759e-06
-5.37828e-06
-2.07911e-06
-5.71272e-06
-1.91769e-06
-6.0141e-06
-1.74784e-06
-6.2826e-06
-1.57307e-06
-6.51878e-06
-1.39603e-06
-6.72345e-06
-1.21858e-06
-6.89749e-06
-1.04187e-06
-7.04179e-06
-8.66468e-07
-7.15713e-06
-6.92467e-07
-7.24414e-06
-5.19556e-07
-7.30326e-06
-3.4713e-07
-7.33467e-06
-1.7437e-07
-7.33828e-06
-3.32372e-10
-7.31373e-06
1.75956e-07
-7.26038e-06
3.55434e-07
-7.17735e-06
5.38889e-07
-7.06347e-06
7.26873e-07
-6.91743e-06
9.19588e-07
-6.73776e-06
1.11678e-06
-6.52295e-06
1.31759e-06
-6.27158e-06
1.52047e-06
-5.98245e-06
1.72299e-06
-5.6548e-06
1.92176e-06
-5.28853e-06
2.1123e-06
-4.8845e-06
2.28896e-06
-4.44483e-06
2.44488e-06
-3.9733e-06
2.57209e-06
-3.47566e-06
2.66159e-06
-2.95999e-06
2.70366e-06
-2.43702e-06
2.68822e-06
-1.92024e-06
2.60543e-06
-1.42588e-06
2.44623e-06
-9.72718e-07
2.2032e-06
-5.8152e-07
1.87119e-06
-2.74299e-07
1.44799e-06
-7.33409e-08
9.34769e-07
3.36657e-07
-6.84909e-08
-2.66653e-07
-2.55e-07
-7.29473e-07
-5.39627e-07
-1.11938e-06
-9.02471e-07
-1.43655e-06
-1.3244e-06
-1.68335e-06
-1.78765e-06
-1.8639e-06
-2.27622e-06
-1.98373e-06
-2.77618e-06
-2.0493e-06
-3.27576e-06
-2.06761e-06
-3.7653e-06
-2.04581e-06
-4.23714e-06
-1.99087e-06
-4.68546e-06
-1.90932e-06
-5.10598e-06
-1.80706e-06
-5.49578e-06
-1.6893e-06
-5.85302e-06
-1.56045e-06
-6.17672e-06
-1.42415e-06
-6.46651e-06
-1.28327e-06
-6.72252e-06
-1.14002e-06
-6.94516e-06
-9.95942e-07
-7.13499e-06
-8.52038e-07
-7.29262e-06
-7.08832e-07
-7.41864e-06
-5.66453e-07
-7.51348e-06
-4.2471e-07
-7.57745e-06
-2.83166e-07
-7.6106e-06
-1.41213e-07
-7.61279e-06
1.85511e-09
-7.58361e-06
1.46774e-07
-7.52241e-06
2.94236e-07
-7.42833e-06
4.44812e-07
-7.30033e-06
5.98866e-07
-7.13722e-06
7.56475e-07
-6.93777e-06
9.17329e-07
-6.70081e-06
1.08063e-06
-6.42536e-06
1.24501e-06
-6.11076e-06
1.40839e-06
-5.75692e-06
1.56793e-06
-5.36454e-06
1.71992e-06
-4.93535e-06
1.85976e-06
-4.47241e-06
1.98194e-06
-3.98043e-06
2.08011e-06
-3.46603e-06
2.14718e-06
-2.938e-06
2.17562e-06
-2.40748e-06
2.15771e-06
-1.88803e-06
2.08597e-06
-1.39549e-06
1.9537e-06
-9.47735e-07
1.75545e-06
-5.64168e-07
1.48762e-06
-2.65021e-07
1.14884e-06
-7.05429e-08
7.40291e-07
2.66115e-07
-6.74752e-08
-1.99178e-07
-2.51687e-07
-5.45262e-07
-5.33668e-07
-8.37399e-07
-8.94471e-07
-1.07574e-06
-1.31581e-06
-1.262e-06
-1.78059e-06
-1.39913e-06
-2.27323e-06
-1.49109e-06
-2.78e-06
-1.54253e-06
-3.28909e-06
-1.55852e-06
-3.79062e-06
-1.54429e-06
-4.27657e-06
-1.50491e-06
-4.74067e-06
-1.44522e-06
-5.17815e-06
-1.36958e-06
-5.58557e-06
-1.28189e-06
-5.96057e-06
-1.18545e-06
-6.30171e-06
-1.08301e-06
-6.60822e-06
-9.76768e-07
-6.87983e-06
-8.6841e-07
-7.11663e-06
-7.59141e-07
-7.31891e-06
-6.49752e-07
-7.48707e-06
-5.40675e-07
-7.62148e-06
-4.32043e-07
-7.72245e-06
-3.23743e-07
-7.79013e-06
-2.15481e-07
-7.82452e-06
-1.06827e-07
-7.82538e-06
2.72021e-09
-7.79229e-06
1.13682e-07
-7.7246e-06
2.26544e-07
-7.62148e-06
3.41694e-07
-7.48198e-06
4.59364e-07
-7.30506e-06
5.79554e-07
-7.0897e-06
7.01974e-07
-6.83502e-06
8.25957e-07
-6.54041e-06
9.50396e-07
-6.20568e-06
1.07366e-06
-5.8313e-06
1.19355e-06
-5.41859e-06
1.30721e-06
-4.96999e-06
1.41116e-06
-4.48929e-06
1.50124e-06
-3.9819e-06
1.57272e-06
-3.45509e-06
1.62038e-06
-2.91815e-06
1.63868e-06
-2.38249e-06
1.62204e-06
-1.86162e-06
1.56511e-06
-1.37105e-06
1.46313e-06
-9.27919e-07
1.31231e-06
-5.50538e-07
1.11024e-06
-2.57784e-07
8.5609e-07
-6.83729e-08
5.50879e-07
1.97742e-07
-6.67652e-08
-1.32413e-07
-2.49366e-07
-3.62661e-07
-5.29483e-07
-5.57282e-07
-8.88835e-07
-7.16392e-07
-1.30974e-06
-8.41097e-07
-1.77557e-06
-9.33305e-07
-2.27108e-06
-9.95572e-07
-2.78269e-06
-1.03092e-06
-3.29857e-06
-1.04265e-06
-3.80871e-06
-1.03415e-06
-4.30486e-06
-1.00877e-06
-4.78041e-06
-9.69668e-07
-5.23024e-06
-9.19755e-07
-5.65053e-06
-8.61597e-07
-6.03857e-06
-7.97407e-07
-6.39255e-06
-7.29026e-07
-6.71138e-06
-6.57933e-07
-6.99452e-06
-5.85268e-07
-7.24181e-06
-5.11854e-07
-7.45332e-06
-4.38239e-07
-7.62927e-06
-3.64729e-07
-7.76988e-06
-2.91429e-07
-7.87535e-06
-2.18282e-07
-7.94572e-06
-1.45103e-07
-7.98093e-06
-7.16231e-08
-7.98069e-06
2.47948e-09
-7.94454e-06
7.75372e-08
-7.87185e-06
1.53857e-07
-7.76184e-06
2.31679e-07
-7.61361e-06
3.11134e-07
-7.42625e-06
3.92198e-07
-7.19893e-06
4.74646e-07
-6.93097e-06
5.58003e-07
-6.62207e-06
6.41493e-07
-6.2724e-06
7.23996e-07
-5.88286e-06
8.04005e-07
-5.45524e-06
8.79599e-07
-4.99251e-06
9.48427e-07
-4.49899e-06
1.00772e-06
-3.98061e-06
1.05434e-06
-3.44508e-06
1.08485e-06
-2.90202e-06
1.09561e-06
-2.36299e-06
1.08301e-06
-1.84147e-06
1.04359e-06
-1.35266e-06
9.74317e-07
-9.13149e-07
8.72799e-07
-5.40451e-07
7.37538e-07
-2.52458e-07
5.68097e-07
-6.67822e-08
3.65204e-07
1.30959e-07
-6.63156e-08
-6.60974e-08
-2.47894e-07
-1.81082e-07
-5.26824e-07
-2.78352e-07
-8.85247e-07
-3.57969e-07
-1.30587e-06
-4.20477e-07
-1.77236e-06
-4.66813e-07
-2.2697e-06
-4.98231e-07
-2.78441e-06
-5.16216e-07
-3.30466e-06
-5.22393e-07
-3.82037e-06
-5.18439e-07
-4.32312e-06
-5.06007e-07
-4.80612e-06
-4.86669e-07
-5.26401e-06
-4.61866e-07
-5.69273e-06
-4.32881e-07
-6.08932e-06
-4.00819e-07
-6.45174e-06
-3.66604e-07
-6.77869e-06
-3.30981e-07
-7.06944e-06
-2.94522e-07
-7.32364e-06
-2.57646e-07
-7.54125e-06
-2.20633e-07
-7.72234e-06
-1.83642e-07
-7.86704e-06
-1.46729e-07
-7.97545e-06
-1.09871e-07
-8.04757e-06
-7.29809e-08
-8.08326e-06
-3.59273e-08
-8.08223e-06
1.44563e-09
-8.04399e-06
3.92997e-08
-7.96792e-06
7.77832e-08
-7.85325e-06
1.1701e-07
-7.69916e-06
1.57039e-07
-7.50481e-06
1.97851e-07
-7.26949e-06
2.39323e-07
-6.99269e-06
2.81208e-07