/*--------------------------------*- C++ -*----------------------------------*\
  =========                 |
  \\      /  F ield         | OpenFOAM: The Open Source CFD Toolbox
   \\    /   O peration     | Website:  https://openfoam.org
    \\  /    A nd           | Version:  7
     \\/     M anipulation  |
\*---------------------------------------------------------------------------*/
FoamFile
{
    version     2.0;
    format      ascii;
    class       volScalarField;
    location    "0.0206";
    object      p;
}
// * * * * * * * * * * * * * * * * * * * * * * * * * * * * * * * * * * * * * //

dimensions      [0 2 -2 0 0 0 0];

internalField   nonuniform List<scalar> 
2500
(
2.46815e-05
6.38461
9.04784
10.1415
10.7322
11.0802
11.2934
11.4336
11.5324
11.6059
11.6628
11.7088
11.7474
11.7807
11.8106
11.838
11.8639
11.8887
11.9129
11.9367
11.9604
11.9842
12.0081
12.0322
12.0567
12.0816
12.107
12.1329
12.1596
12.1872
12.2158
12.2459
12.2776
12.3116
12.3483
12.3885
12.4334
12.4842
12.5427
12.6118
12.6951
12.7984
12.9313
13.1102
13.3672
13.7663
14.4244
15.6132
18.3926
24.901
4.8685
7.46774
8.88433
9.76646
10.3688
10.7743
11.0488
11.2409
11.3803
11.4847
11.5655
11.63
11.683
11.728
11.7673
11.8024
11.8345
11.8646
11.8931
11.9207
11.9476
11.9742
12.0006
12.027
12.0537
12.0806
12.1081
12.1362
12.1653
12.1954
12.227
12.2604
12.2962
12.3349
12.3773
12.4245
12.4778
12.5392
12.6112
12.6974
12.8029
12.9354
13.1067
13.3352
13.6515
14.1059
14.7683
15.7233
17.2257
19.942
7.70555
8.46851
9.21063
9.83297
10.3185
10.68
10.9466
11.1451
11.2954
11.4114
11.503
11.5771
11.6384
11.6904
11.7356
11.7757
11.8122
11.8459
11.8777
11.908
11.9373
11.966
11.9943
12.0225
12.0508
12.0793
12.1084
12.1382
12.169
12.201
12.2347
12.2705
12.309
12.3508
12.3969
12.4485
12.5071
12.5746
12.6538
12.7484
12.8635
13.0062
13.1867
13.4194
13.7247
14.1303
14.6662
15.343
16.1397
16.9671
9.11623
9.29243
9.67077
10.071
10.4197
10.7049
10.9329
11.1136
11.2572
11.3723
11.4657
11.5429
11.6078
11.6635
11.7121
11.7554
11.7947
11.831
11.8651
11.8975
11.9286
11.959
11.9888
12.0184
12.048
12.0779
12.1082
12.1393
12.1713
12.2048
12.24
12.2775
12.3178
12.3617
12.4101
12.4641
12.5254
12.5957
12.6776
12.7743
12.8901
13.0304
13.2024
13.4148
13.6778
14.0013
14.3906
14.8315
15.2454
15.452
9.92969
9.90813
10.0833
10.3263
10.565
10.7794
10.9639
11.1191
11.2483
11.3559
11.446
11.5223
11.5877
11.6446
11.6948
11.7399
11.781
11.8191
11.8548
11.8887
11.9213
11.9529
11.984
12.0148
12.0455
12.0764
12.1077
12.1398
12.173
12.2075
12.2438
12.2825
12.324
12.3691
12.4188
12.4741
12.5363
12.6072
12.6888
12.7837
12.8951
13.0266
13.1824
13.3667
13.5825
13.8295
14.1007
14.3732
14.5709
14.5614
10.4421
10.3555
10.4236
10.5649
10.7235
10.8794
11.0233
11.1511
11.2626
11.359
11.4423
11.5147
11.5781
11.6341
11.6844
11.7299
11.7717
11.8106
11.8473
11.8821
11.9157
11.9483
11.9802
12.0119
12.0434
12.0751
12.1072
12.1401
12.174
12.2092
12.2463
12.2856
12.3278
12.3734
12.4234
12.4787
12.5405
12.61
12.6891
12.7794
12.883
13.0021
13.1385
13.2931
13.4647
13.6482
13.8323
13.9949
14.0763
13.9911
10.7836
10.6843
10.699
10.7771
10.8794
10.9897
11.0986
11.2008
11.2939
11.3775
11.452
11.5185
11.5781
11.6318
11.6806
11.7254
11.767
11.806
11.8429
11.8781
11.9122
11.9453
11.9778
12.0099
12.042
12.0742
12.1069
12.1402
12.1746
12.2102
12.2476
12.2872
12.3295
12.375
12.4245
12.4789
12.539
12.6058
12.6806
12.7645
12.8586
12.9638
13.0801
13.2066
13.34
13.4734
13.5957
13.689
13.7108
13.6072
11.0258
10.9318
10.9204
10.96
11.0237
11.0998
11.1805
11.2604
11.3363
11.407
11.4721
11.5317
11.5863
11.6365
11.6829
11.7261
11.7667
11.805
11.8416
11.8767
11.9108
11.944
11.9768
12.0092
12.0415
12.074
12.1069
12.1405
12.175
12.2108
12.2482
12.2876
12.3295
12.3744
12.4228
12.4755
12.5331
12.5964
12.6659
12.7425
12.8264
12.9175
13.015
13.1168
13.2187
13.3141
13.3934
13.4436
13.4353
13.3343
11.2073
11.1228
11.0991
11.1153
11.153
11.2043
11.2629
11.3241
11.385
11.4437
11.4994
11.5518
11.601
11.6471
11.6905
11.7314
11.7703
11.8075
11.8432
11.8779
11.9116
11.9446
11.9772
12.0096
12.0419
12.0745
12.1074
12.141
12.1754
12.2111
12.2482
12.2871
12.3283
12.3721
12.4191
12.4696
12.5241
12.5832
12.6471
12.716
12.7897
12.8677
12.9484
13.0292
13.1062
13.1733
13.223
13.2464
13.2231
13.1306
11.3489
11.274
11.2448
11.2468
11.2672
11.3005
11.3422
11.3884
11.4364
11.4845
11.5315
11.577
11.6206
11.6623
11.7023
11.7406
11.7774
11.813
11.8476
11.8813
11.9143
11.9469
11.9791
12.0112
12.0433
12.0757
12.1084
12.1418
12.176
12.2112
12.2478
12.2861
12.3263
12.3687
12.4138
12.4618
12.513
12.5676
12.6257
12.6871
12.7514
12.8174
12.8835
12.9471
13.0045
13.0508
13.0803
13.0869
13.0564
12.9731
11.4628
11.3961
11.3649
11.3583
11.3671
11.3876
11.4165
11.4508
11.4882
11.5271
11.5663
11.6053
11.6436
11.6809
11.7173
11.7527
11.7873
11.8211
11.8542
11.8867
11.9188
11.9507
11.9823
12.0139
12.0456
12.0776
12.11
12.143
12.1767
12.2114
12.2473
12.2847
12.3236
12.3645
12.4075
12.4528
12.5005
12.5507
12.6031
12.6575
12.713
12.7685
12.8223
12.8719
12.9142
12.9451
12.9607
12.9569
12.9234
12.8484
11.5562
11.4963
11.4648
11.4531
11.4541
11.4655
11.4849
11.5099
11.5386
11.5697
11.6022
11.6353
11.6686
11.7018
11.7347
11.7672
11.7993
11.8311
11.8626
11.8938
11.9248
11.9557
11.9866
12.0176
12.0488
12.0802
12.1121
12.1445
12.1777
12.2117
12.2467
12.283
12.3206
12.3598
12.4006
12.4432
12.4874
12.5332
12.5803
12.6282
12.6759
12.7223
12.7658
12.8042
12.8347
12.8545
12.8604
12.8501
12.8157
12.7479
11.634
11.5797
11.5487
11.5339
11.5298
11.5346
11.5469
11.5647
11.5865
11.6112
11.6378
11.6658
11.6946
11.7239
11.7534
11.7831
11.8128
11.8426
11.8724
11.9021
11.9319
11.9618
11.9918
12.022
12.0525
12.0833
12.1146
12.1464
12.1788
12.212
12.2461
12.2812
12.3175
12.3548
12.3935
12.4333
12.4741
12.5158
12.558
12.5999
12.6408
12.6795
12.7145
12.7438
12.7654
12.7769
12.7762
12.7619
12.7277
12.6661
11.6994
11.6496
11.6196
11.603
11.5954
11.5956
11.6026
11.6148
11.6311
11.6505
11.6723
11.6958
11.7206
11.7463
11.7728
11.7998
11.8272
11.855
11.883
11.9113
11.9398
11.9686
11.9977
12.027
12.0567
12.0868
12.1174
12.1484
12.1801
12.2125
12.2456
12.2794
12.3142
12.3498
12.3862
12.4234
12.4611
12.4989
12.5366
12.5733
12.6083
12.6404
12.6683
12.6905
12.7052
12.7106
12.7054
12.6886
12.6553
12.599
11.7545
11.7086
11.6796
11.6622
11.6522
11.6492
11.6521
11.6601
11.672
11.6871
11.7048
11.7245
11.7459
11.7685
11.7921
11.8167
11.8419
11.8677
11.8941
11.9209
11.9482
11.9758
12.0039
12.0324
12.0612
12.0906
12.1204
12.1507
12.1815
12.2129
12.245
12.2776
12.3109
12.3448
12.3791
12.4138
12.4485
12.4829
12.5165
12.5486
12.5785
12.6051
12.6273
12.6438
12.6532
12.6542
12.6458
12.6276
12.5955
12.5437
11.8013
11.7585
11.7307
11.7127
11.7013
11.6959
11.6959
11.7005
11.709
11.7207
11.735
11.7515
11.7699
11.7897
11.8109
11.8332
11.8564
11.8804
11.9052
11.9306
11.9566
11.9832
12.0102
12.0378
12.0659
12.0944
12.1234
12.1529
12.1829
12.2134
12.2444
12.2759
12.3077
12.3399
12.3723
12.4046
12.4366
12.4679
12.4979
12.5261
12.5516
12.5737
12.5912
12.6032
12.6086
12.6063
12.5957
12.5768
12.546
12.4982
11.8407
11.8007
11.7739
11.7559
11.7434
11.7364
11.7342
11.7363
11.7421
11.7509
11.7625
11.7763
11.7922
11.8097
11.8286
11.8489
11.8703
11.8927
11.916
11.9401
11.9649
11.9904
12.0165
12.0432
12.0704
12.0982
12.1264
12.1551
12.1843
12.2139
12.2439
12.2741
12.3047
12.3353
12.3658
12.396
12.4256
12.454
12.481
12.5058
12.5277
12.5459
12.5597
12.5682
12.5704
12.5657
12.5537
12.5345
12.505
12.4606
11.8739
11.8362
11.8104
11.7924
11.7794
11.7711
11.7673
11.7675
11.7712
11.7778
11.7871
11.7988
11.8124
11.8279
11.845
11.8635
11.8833
11.9042
11.9262
11.949
11.9728
11.9973
12.0225
12.0483
12.0748
12.1017
12.1292
12.1572
12.1856
12.2143
12.2433
12.2725
12.3018
12.3309
12.3598
12.3881
12.4155
12.4416
12.4658
12.4877
12.5066
12.5218
12.5325
12.5382
12.5381
12.5316
12.5187
12.4995
12.4713
12.4298
11.9017
11.8658
11.8409
11.8231
11.8097
11.8006
11.7956
11.7944
11.7963
11.8012
11.8087
11.8186
11.8305
11.8442
11.8597
11.8767
11.8951
11.9147
11.9355
11.9573
11.98
12.0036
12.028
12.0531
12.0788
12.1051
12.1318
12.1591
12.1867
12.2146
12.2428
12.271
12.2991
12.327
12.3544
12.381
12.4065
12.4305
12.4525
12.472
12.4884
12.501
12.5094
12.5129
12.511
12.5033
12.4898
12.4707
12.4436
12.4047
11.9245
11.8902
11.8661
11.8485
11.8349
11.8252
11.8194
11.817
11.8177
11.8212
11.8273
11.8356
11.8461
11.8585
11.8726
11.8883
11.9055
11.924
11.9438
11.9646
11.9865
12.0093
12.0329
12.0573
12.0824
12.108
12.1342
12.1608
12.1877
12.2149
12.2422
12.2696
12.2967
12.3235
12.3496
12.3748
12.3987
12.421
12.4411
12.4586
12.4729
12.4836
12.4901
12.4919
12.4886
12.48
12.4662
12.4473
12.4213
12.3846
11.9428
11.9098
11.8864
11.869
11.8553
11.8453
11.8388
11.8356
11.8353
11.8377
11.8427
11.8499
11.8592
11.8705
11.8835
11.8982
11.9144
11.932
11.9509
11.971
11.9921
12.0142
12.0372
12.061
12.0854
12.1105
12.1361
12.1622
12.1885
12.2151
12.2418
12.2683
12.2946
12.3204
12.3455
12.3695
12.3921
12.4129
12.4315
12.4474
12.4602
12.4693
12.4743
12.4748
12.4706
12.4614
12.4473
12.4287
12.4036
12.3686
11.9571
11.9251
11.9023
11.8851
11.8713
11.861
11.8541
11.8503
11.8493
11.8509
11.855
11.8613
11.8698
11.8801
11.8923
11.9062
11.9216
11.9385
11.9567
11.9761
11.9966
12.0182
12.0407
12.0639
12.0879
12.1126
12.1377
12.1633
12.1892
12.2153
12.2413
12.2673
12.2929
12.3179
12.3421
12.3652
12.3868
12.4065
12.4239
12.4386
12.4501
12.458
12.4619
12.4615
12.4565
12.4469
12.4327
12.4144
12.39
12.3565
11.9676
11.9364
11.9139
11.8969
11.8831
11.8727
11.8654
11.8612
11.8597
11.8607
11.8642
11.8699
11.8777
11.8874
11.899
11.9122
11.9271
11.9434
11.9611
11.98
12.0001
12.0212
12.0433
12.0662
12.0899
12.1141
12.139
12.1642
12.1897
12.2153
12.241
12.2665
12.2916
12.316
12.3396
12.3619
12.3827
12.4016
12.4181
12.4319
12.4425
12.4496
12.4527
12.4517
12.4462
12.4363
12.4221
12.404
12.3802
12.3477
11.9744
11.9438
11.9216
11.9047
11.8909
11.8803
11.8729
11.8684
11.8666
11.8673
11.8703
11.8756
11.883
11.8923
11.9034
11.9163
11.9308
11.9467
11.9641
11.9827
12.0025
12.0233
12.0451
12.0678
12.0912
12.1152
12.1398
12.1647
12.19
12.2154
12.2408
12.2659
12.2907
12.3147
12.3379
12.3597
12.38
12.3983
12.4143
12.4275
12.4375
12.444
12.4467
12.4452
12.4394
12.4293
12.4151
12.3972
12.3738
12.3419
11.9778
11.9474
11.9254
11.9085
11.8948
11.8842
11.8766
11.872
11.87
11.8705
11.8734
11.8785
11.8856
11.8947
11.9057
11.9183
11.9326
11.9484
11.9656
11.984
12.0036
12.0243
12.046
12.0685
12.0918
12.1157
12.1402
12.165
12.1902
12.2154
12.2406
12.2656
12.2902
12.3141
12.337
12.3586
12.3787
12.3967
12.4124
12.4253
12.4351
12.4413
12.4437
12.442
12.4361
12.4259
12.4117
12.3938
12.3706
12.3391
11.9779
11.9474
11.9254
11.9085
11.8948
11.8842
11.8766
11.872
11.87
11.8705
11.8734
11.8785
11.8856
11.8947
11.9057
11.9183
11.9326
11.9484
11.9656
11.984
12.0036
12.0243
12.046
12.0685
12.0918
12.1157
12.1402
12.165
12.1902
12.2154
12.2406
12.2656
12.2902
12.3141
12.337
12.3586
12.3787
12.3967
12.4124
12.4253
12.4351
12.4413
12.4437
12.442
12.4361
12.4259
12.4117
12.3938
12.3706
12.3391
11.9744
11.9438
11.9216
11.9047
11.8909
11.8804
11.8729
11.8684
11.8666
11.8673
11.8703
11.8756
11.883
11.8923
11.9035
11.9163
11.9308
11.9467
11.9641
11.9827
12.0025
12.0233
12.0451
12.0678
12.0912
12.1152
12.1398
12.1647
12.19
12.2154
12.2408
12.2659
12.2907
12.3147
12.3379
12.3597
12.38
12.3983
12.4143
12.4275
12.4375
12.444
12.4467
12.4452
12.4394
12.4293
12.4151
12.3972
12.3738
12.3419
11.9676
11.9364
11.9139
11.8969
11.8831
11.8727
11.8654
11.8612
11.8597
11.8607
11.8642
11.8699
11.8777
11.8874
11.899
11.9122
11.9271
11.9434
11.9611
11.98
12.0001
12.0212
12.0433
12.0662
12.0899
12.1141
12.139
12.1642
12.1897
12.2153
12.241
12.2665
12.2916
12.316
12.3396
12.3619
12.3827
12.4016
12.4181
12.4319
12.4425
12.4496
12.4527
12.4517
12.4462
12.4363
12.4221
12.404
12.3802
12.3477
11.9571
11.9251
11.9023
11.8851
11.8713
11.861
11.8541
11.8503
11.8493
11.8509
11.855
11.8613
11.8698
11.8801
11.8923
11.9062
11.9216
11.9385
11.9567
11.9761
11.9966
12.0182
12.0407
12.0639
12.088
12.1126
12.1377
12.1633
12.1892
12.2153
12.2413
12.2673
12.2929
12.3179
12.3421
12.3652
12.3868
12.4065
12.4239
12.4386
12.4501
12.458
12.4619
12.4615
12.4565
12.4469
12.4327
12.4144
12.39
12.3565
11.9428
11.9098
11.8864
11.869
11.8553
11.8453
11.8388
11.8356
11.8353
11.8377
11.8427
11.8499
11.8592
11.8705
11.8835
11.8982
11.9144
11.932
11.9509
11.971
11.9921
12.0142
12.0372
12.061
12.0854
12.1105
12.1361
12.1622
12.1885
12.2151
12.2418
12.2683
12.2946
12.3204
12.3455
12.3695
12.3921
12.4129
12.4315
12.4474
12.4602
12.4693
12.4743
12.4748
12.4706
12.4614
12.4473
12.4287
12.4036
12.3686
11.9245
11.8902
11.8661
11.8485
11.8349
11.8252
11.8194
11.817
11.8177
11.8212
11.8273
11.8356
11.8461
11.8585
11.8726
11.8883
11.9055
11.924
11.9438
11.9647
11.9865
12.0093
12.0329
12.0573
12.0824
12.108
12.1342
12.1608
12.1877
12.2149
12.2422
12.2696
12.2967
12.3235
12.3496
12.3748
12.3987
12.421
12.4411
12.4586
12.4729
12.4836
12.4901
12.4919
12.4886
12.48
12.4662
12.4473
12.4213
12.3846
11.9017
11.8658
11.8409
11.8231
11.8097
11.8006
11.7957
11.7944
11.7963
11.8012
11.8087
11.8186
11.8305
11.8442
11.8597
11.8767
11.8951
11.9147
11.9355
11.9573
11.98
12.0036
12.028
12.0531
12.0788
12.1051
12.1319
12.1591
12.1867
12.2146
12.2428
12.271
12.2991
12.327
12.3544
12.381
12.4065
12.4305
12.4525
12.472
12.4884
12.5011
12.5094
12.5129
12.511
12.5033
12.4898
12.4707
12.4436
12.4047
11.874
11.8362
11.8104
11.7924
11.7794
11.7711
11.7674
11.7675
11.7712
11.7778
11.7871
11.7988
11.8124
11.8279
11.845
11.8635
11.8833
11.9042
11.9262
11.9491
11.9728
11.9973
12.0225
12.0483
12.0748
12.1017
12.1292
12.1572
12.1856
12.2143
12.2433
12.2725
12.3018
12.331
12.3598
12.3881
12.4155
12.4416
12.4658
12.4877
12.5066
12.5218
12.5326
12.5382
12.5381
12.5316
12.5187
12.4995
12.4713
12.4298
11.8407
11.8007
11.7739
11.7559
11.7434
11.7364
11.7342
11.7363
11.7421
11.751
11.7625
11.7764
11.7922
11.8097
11.8286
11.8489
11.8703
11.8927
11.916
11.9401
11.9649
11.9904
12.0165
12.0432
12.0704
12.0982
12.1264
12.1551
12.1843
12.2139
12.2439
12.2742
12.3047
12.3353
12.3658
12.396
12.4256
12.4541
12.481
12.5058
12.5277
12.5459
12.5597
12.5682
12.5704
12.5657
12.5537
12.5345
12.505
12.4606
11.8013
11.7585
11.7307
11.7128
11.7013
11.6959
11.6959
11.7006
11.709
11.7207
11.735
11.7515
11.7699
11.7897
11.8109
11.8332
11.8564
11.8804
11.9052
11.9306
11.9566
11.9832
12.0103
12.0378
12.0659
12.0944
12.1234
12.1529
12.1829
12.2134
12.2444
12.2759
12.3077
12.3399
12.3723
12.4046
12.4366
12.4679
12.4979
12.5261
12.5516
12.5737
12.5912
12.6032
12.6086
12.6063
12.5957
12.5768
12.546
12.4982
11.7546
11.7086
11.6796
11.6622
11.6523
11.6492
11.6522
11.6601
11.672
11.6871
11.7048
11.7245
11.7459
11.7685
11.7921
11.8167
11.8419
11.8677
11.8941
11.9209
11.9482
11.9758
12.0039
12.0324
12.0613
12.0906
12.1204
12.1507
12.1815
12.2129
12.245
12.2777
12.3109
12.3448
12.3791
12.4138
12.4485
12.4829
12.5165
12.5486
12.5785
12.6052
12.6273
12.6438
12.6532
12.6542
12.6458
12.6276
12.5955
12.5437
11.6994
11.6496
11.6196
11.6031
11.5954
11.5957
11.6026
11.6148
11.6311
11.6505
11.6723
11.6958
11.7206
11.7463
11.7728
11.7998
11.8272
11.855
11.883
11.9113
11.9398
11.9686
11.9977
12.027
12.0567
12.0868
12.1174
12.1485
12.1801
12.2125
12.2456
12.2795
12.3142
12.3498
12.3862
12.4234
12.4611
12.499
12.5366
12.5733
12.6083
12.6404
12.6683
12.6905
12.7052
12.7106
12.7054
12.6886
12.6553
12.599
11.634
11.5797
11.5487
11.534
11.5298
11.5346
11.5469
11.5647
11.5865
11.6112
11.6378
11.6658
11.6946
11.7239
11.7534
11.7831
11.8129
11.8426
11.8724
11.9021
11.932
11.9618
11.9918
12.022
12.0525
12.0833
12.1146
12.1464
12.1788
12.212
12.2462
12.2813
12.3175
12.3549
12.3935
12.4333
12.4741
12.5158
12.558
12.6
12.6409
12.6795
12.7145
12.7438
12.7654
12.7769
12.7762
12.7619
12.7277
12.6661
11.5562
11.4963
11.4648
11.4531
11.4541
11.4655
11.4849
11.5099
11.5386
11.5698
11.6022
11.6353
11.6686
11.7018
11.7347
11.7672
11.7994
11.8311
11.8626
11.8938
11.9248
11.9558
11.9866
12.0176
12.0488
12.0802
12.1121
12.1445
12.1777
12.2117
12.2468
12.283
12.3207
12.3598
12.4006
12.4432
12.4874
12.5332
12.5803
12.6282
12.6759
12.7223
12.7658
12.8042
12.8348
12.8545
12.8604
12.8501
12.8157
12.7479
11.4628
11.3961
11.3649
11.3583
11.3671
11.3876
11.4165
11.4509
11.4882
11.5271
11.5664
11.6053
11.6436
11.6809
11.7173
11.7528
11.7873
11.8211
11.8542
11.8867
11.9189
11.9507
11.9823
12.0139
12.0457
12.0776
12.11
12.143
12.1767
12.2114
12.2473
12.2847
12.3236
12.3645
12.4075
12.4528
12.5005
12.5507
12.6031
12.6575
12.713
12.7685
12.8223
12.8719
12.9142
12.9451
12.9607
12.9569
12.9234
12.8484
11.3489
11.274
11.2448
11.2468
11.2672
11.3005
11.3422
11.3884
11.4365
11.4845
11.5315
11.577
11.6206
11.6623
11.7023
11.7406
11.7774
11.813
11.8476
11.8813
11.9143
11.9469
11.9791
12.0112
12.0433
12.0757
12.1084
12.1418
12.176
12.2112
12.2479
12.2861
12.3263
12.3687
12.4138
12.4618
12.513
12.5676
12.6257
12.6871
12.7514
12.8174
12.8835
12.9471
13.0045
13.0508
13.0803
13.0869
13.0565
12.9731
11.2073
11.1229
11.0991
11.1153
11.153
11.2043
11.2629
11.3241
11.385
11.4437
11.4994
11.5518
11.601
11.6471
11.6905
11.7314
11.7703
11.8075
11.8433
11.8779
11.9116
11.9446
11.9772
12.0096
12.0419
12.0745
12.1074
12.141
12.1754
12.2111
12.2482
12.2872
12.3283
12.3721
12.4191
12.4696
12.5241
12.5832
12.6471
12.716
12.7898
12.8677
12.9484
13.0292
13.1062
13.1733
13.223
13.2464
13.2231
13.1306
11.0258
10.9318
10.9204
10.96
11.0237
11.0998
11.1805
11.2604
11.3363
11.407
11.4721
11.5317
11.5863
11.6365
11.6829
11.7261
11.7667
11.805
11.8416
11.8767
11.9108
11.9441
11.9768
12.0092
12.0415
12.074
12.1069
12.1405
12.175
12.2108
12.2482
12.2876
12.3295
12.3744
12.4229
12.4755
12.5331
12.5964
12.666
12.7425
12.8264
12.9175
13.015
13.1168
13.2187
13.3141
13.3934
13.4436
13.4353
13.3343
10.7836
10.6844
10.699
10.7772
10.8794
10.9897
11.0987
11.2008
11.2939
11.3775
11.4521
11.5186
11.5781
11.6318
11.6806
11.7254
11.767
11.806
11.8429
11.8781
11.9122
11.9453
11.9778
12.01
12.042
12.0743
12.1069
12.1402
12.1746
12.2103
12.2477
12.2872
12.3295
12.375
12.4246
12.4789
12.539
12.6059
12.6807
12.7646
12.8587
12.9638
13.0801
13.2066
13.34
13.4734
13.5957
13.689
13.7108
13.6072
10.4421
10.3556
10.4236
10.5649
10.7235
10.8794
11.0233
11.1511
11.2626
11.359
11.4423
11.5147
11.5781
11.6342
11.6844
11.7299
11.7717
11.8106
11.8473
11.8821
11.9157
11.9483
11.9803
12.0119
12.0434
12.0751
12.1072
12.1401
12.174
12.2092
12.2463
12.2856
12.3278
12.3735
12.4234
12.4787
12.5405
12.6101
12.6891
12.7794
12.8831
13.0021
13.1385
13.2931
13.4647
13.6482
13.8324
13.9949
14.0764
13.9911
9.92972
9.90816
10.0833
10.3263
10.565
10.7794
10.9639
11.1191
11.2483
11.3559
11.446
11.5223
11.5877
11.6446
11.6948
11.7399
11.7811
11.8191
11.8548
11.8887
11.9213
11.953
11.984
12.0148
12.0455
12.0764
12.1077
12.1398
12.173
12.2075
12.2438
12.2825
12.324
12.3691
12.4188
12.4741
12.5363
12.6072
12.6888
12.7837
12.8951
13.0266
13.1824
13.3667
13.5825
13.8295
14.1007
14.3732
14.571
14.5614
9.11627
9.29246
9.6708
10.0711
10.4198
10.7049
10.9329
11.1137
11.2572
11.3723
11.4658
11.5429
11.6078
11.6635
11.7121
11.7554
11.7948
11.8311
11.8651
11.8975
11.9286
11.959
11.9888
12.0184
12.048
12.0779
12.1082
12.1393
12.1714
12.2048
12.24
12.2775
12.3178
12.3617
12.4101
12.4641
12.5254
12.5957
12.6776
12.7743
12.8901
13.0304
13.2024
13.4148
13.6778
14.0013
14.3906
14.8315
15.2454
15.452
7.70559
8.46855
9.21067
9.833
10.3185
10.68
10.9466
11.1451
11.2954
11.4115
11.5031
11.5771
11.6384
11.6904
11.7356
11.7758
11.8122
11.8459
11.8777
11.908
11.9373
11.966
11.9943
12.0225
12.0508
12.0794
12.1084
12.1382
12.169
12.201
12.2347
12.2705
12.309
12.3508
12.3969
12.4485
12.5071
12.5746
12.6538
12.7484
12.8635
13.0062
13.1867
13.4194
13.7247
14.1303
14.6662
15.343
16.1397
16.9671
4.86855
7.46779
8.88437
9.76649
10.3688
10.7743
11.0488
11.241
11.3803
11.4847
11.5655
11.63
11.6831
11.7281
11.7673
11.8024
11.8345
11.8646
11.8931
11.9207
11.9476
11.9742
12.0006
12.027
12.0537
12.0806
12.1081
12.1362
12.1653
12.1954
12.227
12.2605
12.2962
12.3349
12.3773
12.4245
12.4779
12.5393
12.6112
12.6974
12.8029
12.9354
13.1067
13.3352
13.6515
14.1059
14.7683
15.7233
17.2257
19.9421
9.91376e-05
6.38467
9.04788
10.1416
10.7322
11.0802
11.2934
11.4336
11.5325
11.6059
11.6628
11.7089
11.7474
11.7808
11.8106
11.8381
11.8639
11.8887
11.9129
11.9367
11.9604
11.9842
12.0081
12.0323
12.0567
12.0816
12.107
12.1329
12.1596
12.1872
12.2159
12.2459
12.2776
12.3116
12.3483
12.3886
12.4334
12.4842
12.5428
12.6118
12.6951
12.7985
12.9313
13.1102
13.3672
13.7664
14.4244
15.6132
18.3927
24.901
)
;

boundaryField
{
    movingWallTop
    {
        type            zeroGradient;
    }
    movingWallBottom
    {
        type            zeroGradient;
    }
    fixedWalls
    {
        type            zeroGradient;
    }
    frontAndBack
    {
        type            empty;
    }
}


// ************************************************************************* //
