/*--------------------------------*- C++ -*----------------------------------*\
  =========                 |
  \\      /  F ield         | OpenFOAM: The Open Source CFD Toolbox
   \\    /   O peration     | Website:  https://openfoam.org
    \\  /    A nd           | Version:  7
     \\/     M anipulation  |
\*---------------------------------------------------------------------------*/
FoamFile
{
    version     2.0;
    format      ascii;
    class       surfaceScalarField;
    location    "0.0364";
    object      phi;
}
// * * * * * * * * * * * * * * * * * * * * * * * * * * * * * * * * * * * * * //

dimensions      [0 3 -1 0 0 0 0];

internalField   nonuniform List<scalar> 
4900
(
-5.5559e-06
5.55588e-06
-1.01616e-05
4.60571e-06
-1.29489e-05
2.78724e-06
-1.4668e-05
1.71917e-06
-1.57689e-05
1.10091e-06
-1.65057e-05
7.36787e-07
-1.70239e-05
5.18142e-07
-1.74054e-05
3.8149e-07
-1.76969e-05
2.9151e-07
-1.7926e-05
2.29161e-07
-1.811e-05
1.84006e-07
-1.82601e-05
1.50077e-07
-1.83839e-05
1.23786e-07
-1.84868e-05
1.02874e-07
-1.85726e-05
8.58528e-08
-1.86443e-05
7.17045e-08
-1.8704e-05
5.97105e-08
-1.87534e-05
4.93483e-08
-1.87936e-05
4.02284e-08
-1.88257e-05
3.20534e-08
-1.88503e-05
2.45902e-08
-1.88679e-05
1.76517e-08
-1.8879e-05
1.10831e-08
-1.88837e-05
4.7525e-09
-1.88823e-05
-1.45795e-09
-1.88746e-05
-7.65505e-09
-1.88607e-05
-1.39444e-08
-1.88403e-05
-2.04316e-08
-1.8813e-05
-2.72296e-08
-1.87786e-05
-3.44645e-08
-1.87363e-05
-4.22831e-08
-1.86854e-05
-5.08628e-08
-1.8625e-05
-6.04252e-08
-1.85537e-05
-7.12552e-08
-1.847e-05
-8.37288e-08
-1.83716e-05
-9.83548e-08
-1.82558e-05
-1.1584e-07
-1.81186e-05
-1.37195e-07
-1.79547e-05
-1.63911e-07
-1.77564e-05
-1.98276e-07
-1.75125e-05
-2.4394e-07
-1.72055e-05
-3.06986e-07
-1.68075e-05
-3.97989e-07
-1.62715e-05
-5.3597e-07
-1.55162e-05
-7.55379e-07
-1.44003e-05
-1.11585e-06
-1.26846e-05
-1.71571e-06
-9.94773e-06
-2.73688e-06
-5.45302e-06
-4.4947e-06
-5.45302e-06
-1.19532e-08
5.56783e-06
-2.12956e-06
6.72332e-06
-4.85428e-06
5.51196e-06
-7.2677e-06
4.13259e-06
-9.20087e-06
3.03408e-06
-1.07067e-05
2.2426e-06
-1.18786e-05
1.69007e-06
-1.27998e-05
1.30271e-06
-1.35339e-05
1.02557e-06
-1.41269e-05
8.22155e-07
-1.46118e-05
6.68912e-07
-1.50123e-05
5.50557e-07
-1.53455e-05
4.57019e-07
-1.56241e-05
3.8151e-07
-1.58576e-05
3.19338e-07
-1.60531e-05
2.67181e-07
-1.6216e-05
2.2263e-07
-1.63506e-05
1.839e-07
-1.646e-05
1.49638e-07
-1.65467e-05
1.18799e-07
-1.66127e-05
9.05535e-08
-1.66593e-05
6.4231e-08
-1.66875e-05
3.92721e-08
-1.66979e-05
1.51963e-08
-1.66909e-05
-8.4229e-09
-1.66666e-05
-3.19814e-08
-1.66247e-05
-5.58606e-08
-1.65647e-05
-8.0447e-08
-1.64858e-05
-1.0615e-07
-1.63868e-05
-1.33425e-07
-1.62663e-05
-1.62795e-07
-1.61223e-05
-1.94888e-07
-1.59522e-05
-2.3048e-07
-1.57529e-05
-2.70552e-07
-1.55203e-05
-3.16383e-07
-1.52489e-05
-3.69669e-07
-1.49321e-05
-4.32713e-07
-1.45606e-05
-5.08708e-07
-1.41223e-05
-6.02177e-07
-1.36009e-05
-7.19679e-07
-1.29739e-05
-8.70929e-07
-1.22103e-05
-1.07059e-06
-1.12672e-05
-1.34105e-06
-1.00868e-05
-1.71645e-06
-8.59489e-06
-2.24724e-06
-6.71166e-06
-2.99909e-06
-4.39768e-06
-4.02968e-06
-1.82164e-06
-5.31292e-06
1.23136e-07
-6.43948e-06
-5.32989e-06
1.03325e-06
4.53458e-06
5.50711e-07
7.20586e-06
-9.83212e-07
7.04588e-06
-2.87121e-06
6.02058e-06
-4.71974e-06
4.88261e-06
-6.3686e-06
3.89145e-06
-7.77865e-06
3.10012e-06
-8.96325e-06
2.48732e-06
-9.95304e-06
2.01535e-06
-1.07804e-05
1.64955e-06
-1.14741e-05
1.36257e-06
-1.20576e-05
1.13407e-06
-1.25498e-05
9.49241e-07
-1.29656e-05
7.97315e-07
-1.33167e-05
6.70418e-07
-1.36122e-05
5.62726e-07
-1.38595e-05
4.69871e-07
-1.40641e-05
3.88528e-07
-1.42306e-05
3.16122e-07
-1.43624e-05
2.50625e-07
-1.44623e-05
1.90407e-07
-1.45322e-05
1.34131e-07
-1.45736e-05
8.06711e-08
-1.45874e-05
2.90552e-08
-1.45743e-05
-2.15856e-08
-1.45342e-05
-7.20575e-08
-1.44669e-05
-1.23138e-07
-1.43718e-05
-1.7561e-07
-1.42476e-05
-2.30299e-07
-1.40929e-05
-2.88107e-07
-1.39057e-05
-3.50069e-07
-1.36831e-05
-4.17399e-07
-1.3422e-05
-4.91579e-07
-1.31181e-05
-5.74448e-07
-1.27662e-05
-6.68352e-07
-1.23595e-05
-7.76326e-07
-1.18899e-05
-9.02366e-07
-1.13468e-05
-1.05181e-06
-1.07171e-05
-1.23188e-06
-9.98435e-06
-1.4524e-06
-9.12841e-06
-1.72686e-06
-8.12542e-06
-2.07359e-06
-6.94956e-06
-2.5169e-06
-5.57891e-06
-3.0871e-06
-4.01008e-06
-3.81607e-06
-2.2899e-06
-4.71927e-06
-5.75885e-07
-5.74369e-06
7.64159e-07
-6.65296e-06
1.08661e-06
-6.76193e-06
-4.24328e-06
9.07865e-07
3.62672e-06
1.23476e-06
6.87897e-06
6.5725e-07
7.62339e-06
-4.9899e-07
7.17682e-06
-1.90536e-06
6.28898e-06
-3.34401e-06
5.3301e-06
-4.69836e-06
4.45447e-06
-5.91902e-06
3.70797e-06
-6.9938e-06
3.09014e-06
-7.92844e-06
2.58418e-06
-8.73587e-06
2.16999e-06
-9.43085e-06
1.82905e-06
-1.00275e-05
1.54594e-06
-1.05385e-05
1.30829e-06
-1.09745e-05
1.10641e-06
-1.13445e-05
9.32707e-07
-1.16559e-05
7.81245e-07
-1.19147e-05
6.47336e-07
-1.21258e-05
5.27248e-07
-1.22931e-05
4.17971e-07
-1.24198e-05
3.17038e-07
-1.2508e-05
2.22396e-07
-1.25597e-05
1.32292e-07
-1.25758e-05
4.51986e-08
-1.25571e-05
-4.02573e-08
-1.25038e-05
-1.25351e-07
-1.24157e-05
-2.11311e-07
-1.22919e-05
-2.99368e-07
-1.21314e-05
-3.90802e-07
-1.19325e-05
-4.87003e-07
-1.1693e-05
-5.89529e-07
-1.14103e-05
-7.00184e-07
-1.10807e-05
-8.21118e-07
-1.07002e-05
-9.54941e-07
-1.02637e-05
-1.10489e-06
-9.76501e-06
-1.27501e-06
-9.19692e-06
-1.47046e-06
-8.55095e-06
-1.69778e-06
-7.81751e-06
-1.96532e-06
-6.98626e-06
-2.28365e-06
-6.04728e-06
-2.66584e-06
-4.99355e-06
-3.12732e-06
-3.82603e-06
-3.68441e-06
-2.56333e-06
-4.34981e-06
-1.2584e-06
-5.121e-06
-2.36609e-08
-5.95401e-06
9.42475e-07
-6.70982e-06
1.34812e-06
-7.05861e-06
9.16275e-07
-6.33008e-06
-3.32701e-06
6.74011e-07
2.95271e-06
1.25214e-06
6.30084e-06
1.24197e-06
7.63356e-06
6.83881e-07
7.73491e-06
-2.351e-07
7.20796e-06
-1.33309e-06
6.42809e-06
-2.47825e-06
5.59963e-06
-3.58972e-06
4.81945e-06
-4.62451e-06
4.12492e-06
-5.56375e-06
3.52342e-06
-6.40262e-06
3.00886e-06
-7.14375e-06
2.57018e-06
-7.79327e-06
2.19546e-06
-8.35859e-06
1.87361e-06
-8.84719e-06
1.595e-06
-9.26604e-06
1.35156e-06
-9.62135e-06
1.13655e-06
-9.91848e-06
9.44465e-07
-1.0162e-05
7.70727e-07
-1.03555e-05
6.11547e-07
-1.05022e-05
4.63742e-07
-1.06044e-05
3.2461e-07
-1.0664e-05
1.91809e-07
-1.0682e-05
6.3275e-08
-1.06594e-05
-6.28612e-08
-1.05964e-05
-1.88339e-07
-1.04929e-05
-3.14831e-07
-1.03483e-05
-4.43999e-07
-1.01615e-05
-5.77554e-07
-9.93123e-06
-7.17322e-07
-9.65545e-06
-8.6531e-07
-9.33184e-06
-1.02379e-06
-8.95755e-06
-1.19541e-06
-8.52922e-06
-1.38326e-06
-8.04303e-06
-1.59108e-06
-7.49469e-06
-1.82335e-06
-6.87968e-06
-2.08547e-06
-6.19351e-06
-2.38395e-06
-5.43241e-06
-2.72642e-06
-4.5945e-06
-3.12155e-06
-3.6819e-06
-3.57844e-06
-2.70418e-06
-4.10504e-06
-1.68402e-06
-4.70457e-06
-6.65511e-07
-5.36832e-06
2.75053e-07
-6.06157e-06
1.01962e-06
-6.69858e-06
1.41153e-06
-7.10174e-06
1.29797e-06
-6.94505e-06
6.66409e-07
-5.69852e-06
-2.6606e-06
4.83246e-07
2.46946e-06
1.08671e-06
5.69738e-06
1.36392e-06
7.35635e-06
1.21392e-06
7.88492e-06
7.03786e-07
7.71809e-06
-4.84715e-08
7.18035e-06
-9.31392e-07
6.48255e-06
-1.86024e-06
5.7483e-06
-2.77803e-06
5.04271e-06
-3.65003e-06
4.39543e-06
-4.45729e-06
3.81611e-06
-5.19108e-06
3.30398e-06
-5.84899e-06
2.85337e-06
-6.43219e-06
2.45681e-06
-6.94374e-06
2.10656e-06
-7.38753e-06
1.79534e-06
-7.76763e-06
1.51665e-06
-8.08795e-06
1.26478e-06
-8.35205e-06
1.03483e-06
-8.56304e-06
8.22538e-07
-8.72355e-06
6.24257e-07
-8.83574e-06
4.36796e-07
-8.90128e-06
2.57346e-07
-8.92139e-06
8.33923e-08
-8.8969e-06
-8.73585e-08
-8.82819e-06
-2.57048e-07
-8.71529e-06
-4.2773e-07
-8.55786e-06
-6.01428e-07
-8.35521e-06
-7.802e-07
-8.10634e-06
-9.66197e-07
-7.80992e-06
-1.16173e-06
-7.46436e-06
-1.36935e-06
-7.06785e-06
-1.59192e-06
-6.61844e-06
-1.83267e-06
-6.11418e-06
-2.09534e-06
-5.55336e-06
-2.38417e-06
-4.93487e-06
-2.70396e-06
-4.25885e-06
-3.05997e-06
-3.52762e-06
-3.45765e-06
-2.74722e-06
-3.90195e-06
-1.92963e-06
-4.39604e-06
-1.09596e-06
-4.9387e-06
-2.80746e-07
-5.51979e-06
4.63304e-07
-6.11237e-06
1.06171e-06
-6.65997e-06
1.42073e-06
-7.0576e-06
1.44594e-06
-7.12695e-06
1.09286e-06
-6.59197e-06
4.70246e-07
-5.07591e-06
-2.19035e-06
3.51357e-07
2.1181e-06
9.03068e-07
5.14567e-06
1.30318e-06
6.95623e-06
1.40365e-06
7.78444e-06
1.19619e-06
7.92556e-06
7.40142e-07
7.63639e-06
1.1406e-07
7.10863e-06
-6.0935e-07
6.47171e-06
-1.37263e-06
5.80599e-06
-2.1345e-06
5.1573e-06
-2.86746e-06
4.54907e-06
-3.55445e-06
3.99097e-06
-4.18581e-06
3.48473e-06
-4.75684e-06
3.02784e-06
-5.26601e-06
2.61573e-06
-5.71372e-06
2.24305e-06
-6.10145e-06
1.90438e-06
-6.43121e-06
1.59454e-06
-6.70517e-06
1.30879e-06
-6.92548e-06
1.04284e-06
-7.09408e-06
7.92855e-07
-7.21267e-06
5.55385e-07
-7.28265e-06
3.27331e-07
-7.30513e-06
1.05872e-07
-7.2809e-06
-1.11591e-07
-7.21045e-06
-3.27495e-07
-7.09401e-06
-5.4417e-07
-6.93155e-06
-7.63892e-07
-6.72281e-06
-9.8894e-07
-6.46736e-06
-1.22164e-06
-6.16466e-06
-1.46444e-06
-5.8141e-06
-1.71991e-06
-5.41516e-06
-1.99086e-06
-4.96754e-06
-2.2803e-06
-4.47139e-06
-2.59148e-06
-3.92771e-06
-2.92785e-06
-3.33877e-06
-3.2929e-06
-2.70892e-06
-3.68982e-06
-2.04555e-06
-4.12102e-06
-1.36055e-06
-4.58696e-06
-6.72097e-07
-5.08449e-06
-6.94172e-09
-5.60386e-06
5.97423e-07
-6.12415e-06
1.09139e-06
-6.60634e-06
1.41497e-06
-6.98355e-06
1.50639e-06
-7.14902e-06
1.32375e-06
-6.94431e-06
8.86244e-07
-6.15446e-06
3.36789e-07
-4.52645e-06
-1.85356e-06
2.64343e-07
1.85376e-06
7.46385e-07
4.66362e-06
1.18288e-06
6.51974e-06
1.42493e-06
7.5424e-06
1.42542e-06
7.92507e-06
1.20114e-06
7.86067e-06
7.98921e-07
7.51085e-06
2.73177e-07
6.99746e-06
-3.26108e-07
6.40527e-06
-9.58203e-07
5.7894e-06
-1.59239e-06
5.18326e-06
-2.20681e-06
4.6054e-06
-2.78676e-06
4.06467e-06
-3.32284e-06
3.56392e-06
-3.80951e-06
3.10239e-06
-4.24385e-06
2.67739e-06
-4.62471e-06
2.28524e-06
-4.95204e-06
1.92187e-06
-5.22645e-06
1.58321e-06
-5.44891e-06
1.2653e-06
-5.62051e-06
9.64451e-07
-5.74234e-06
6.77215e-07
-5.81541e-06
4.00409e-07
-5.84062e-06
1.31077e-07
-5.81868e-06
-1.33533e-07
-5.75015e-06
-3.96018e-07
-5.63547e-06
-6.58853e-07
-5.47493e-06
-9.24431e-07
-5.26877e-06
-1.1951e-06
-5.01719e-06
-1.47322e-06
-4.72048e-06
-1.76114e-06
-4.37911e-06
-2.06128e-06
-3.99386e-06
-2.3761e-06
-3.56609e-06
-2.70807e-06
-3.09795e-06
-3.05962e-06
-2.59285e-06
-3.43296e-06
-2.0559e-06
-3.82984e-06
-1.49468e-06
-4.25104e-06
-9.20071e-07
-4.69562e-06
-3.47349e-07
-5.15968e-06
2.02627e-07
-5.63446e-06
7.02335e-07
-6.10356e-06
1.11713e-06
-6.53895e-06
1.4064e-06
-6.89561e-06
1.52799e-06
-7.10514e-06
1.44835e-06
-7.06939e-06
1.16118e-06
-6.65713e-06
7.15632e-07
-5.70891e-06
2.49154e-07
-4.05997e-06
-1.60441e-06
2.06281e-07
1.64748e-06
6.22116e-07
4.24779e-06
1.0533e-06
6.08856e-06
1.36799e-06
7.2277e-06
1.50374e-06
7.78932e-06
1.45063e-06
7.91378e-06
1.23034e-06
7.73114e-06
8.79001e-07
7.3488e-06
4.35751e-07
6.84852e-06
-6.35065e-08
6.28866e-06
-5.88816e-07
5.70857e-06
-1.11672e-06
5.1333e-06
-1.62972e-06
4.57767e-06
-2.11527e-06
4.04947e-06
-2.56476e-06
3.55188e-06
-2.9725e-06
3.08514e-06
-3.335e-06
2.64773e-06
-3.65024e-06
2.23711e-06
-3.91727e-06
1.85024e-06
-4.13583e-06
1.48385e-06
-4.30607e-06
1.13469e-06
-4.4284e-06
7.99555e-07
-4.50339e-06
4.75392e-07
-4.53161e-06
1.59303e-07
-4.51369e-06
-1.5146e-07
-4.45021e-06
-4.59499e-07
-4.34177e-06
-7.6729e-07
-4.189e-06
-1.0772e-06
-3.99259e-06
-1.39151e-06
-3.75339e-06
-1.71242e-06
-3.47248e-06
-2.04205e-06
-3.15133e-06
-2.38244e-06
-2.79194e-06
-2.73549e-06
-2.39709e-06
-3.10292e-06
-1.97064e-06
-3.48607e-06
-1.51786e-06
-3.88574e-06
-1.04595e-06
-4.30175e-06
-5.64557e-07
-4.73244e-06
-8.64331e-08
-5.17375e-06
3.71909e-07
-5.61802e-06
7.89672e-07
-6.05223e-06
1.14165e-06
-6.45554e-06
1.39899e-06
-6.79629e-06
1.53168e-06
-7.0283e-06
1.51376e-06
-7.08722e-06
1.33256e-06
-6.88818e-06
1.0025e-06
-6.32708e-06
5.82477e-07
-5.28889e-06
1.90695e-07
-3.66819e-06
-1.41371e-06
1.66212e-07
1.48127e-06
5.25147e-07
3.88885e-06
9.32745e-07
5.68096e-06
1.27849e-06
6.88196e-06
1.49758e-06
7.57023e-06
1.56546e-06
7.84591e-06
1.48609e-06
7.8105e-06
1.28015e-06
7.55474e-06
9.75639e-07
7.15303e-06
6.01682e-07
6.66261e-06
1.85002e-07
6.12525e-06
-2.51685e-07
5.56999e-06
-6.90061e-07
5.01605e-06
-1.11594e-06
4.47535e-06
-1.51871e-06
3.95465e-06
-1.89066e-06
3.45709e-06
-2.22636e-06
2.98344e-06
-2.52216e-06
2.53291e-06
-2.77568e-06
2.10375e-06
-2.98547e-06
1.69365e-06
-3.1508e-06
1.30001e-06
-3.27136e-06
9.20122e-07
-3.34722e-06
5.51248e-07
-3.37864e-06
1.90721e-07
-3.36606e-06
-1.64034e-07
-3.31009e-06
-5.15476e-07
-3.21143e-06
-8.65941e-07
-3.071e-06
-1.21763e-06
-2.8899e-06
-1.57262e-06
-2.66952e-06
-1.9328e-06
-2.41165e-06
-2.29992e-06
-2.1186e-06
-2.67549e-06
-1.79337e-06
-3.06072e-06
-1.43988e-06
-3.4564e-06
-1.06323e-06
-3.86272e-06
-6.69995e-07
-4.27897e-06
-2.68605e-07
-4.70314e-06
1.30273e-07
-5.13132e-06
5.13365e-07
-5.55684e-06
8.64529e-07
-5.96919e-06
1.16476e-06
-6.35246e-06
1.39272e-06
-6.6835e-06
1.52621e-06
-6.92977e-06
1.54502e-06
-7.04711e-06
1.43592e-06
-6.97812e-06
1.19995e-06
-6.65221e-06
8.61823e-07
-5.98895e-06
4.79669e-07
-4.90674e-06
1.50349e-07
-3.33887e-06
-1.26336e-06
1.3742e-07
1.34385e-06
4.4895e-07
3.57732e-06
8.26179e-07
5.30373e-06
1.17859e-06
6.52954e-06
1.44536e-06
7.30346e-06
1.59526e-06
7.69601e-06
1.62092e-06
7.78485e-06
1.5312e-06
7.64445e-06
1.34427e-06
7.33997e-06
1.08213e-06
6.92475e-06
7.67076e-07
6.4403e-06
4.19598e-07
5.91747e-06
5.73608e-08
5.37828e-06
-3.05063e-07
4.83778e-06
-6.56064e-07
4.30565e-06
-9.86656e-07
3.78768e-06
-1.29007e-06
3.28685e-06
-1.56132e-06
2.80417e-06
-1.79687e-06
2.3393e-06
-1.99428e-06
1.89105e-06
-2.15194e-06
1.45768e-06
-2.26891e-06
1.0371e-06
-2.34476e-06
6.27088e-07
-2.3794e-06
2.25364e-07
-2.3731e-06
-1.70332e-07
-2.3264e-06
-5.62181e-07
-2.24009e-06
-9.52247e-07
-2.11528e-06
-1.34244e-06
-1.95339e-06
-1.7345e-06
-1.75626e-06
-2.12993e-06
-1.52623e-06
-2.52996e-06
-1.26624e-06
-2.93548e-06
-9.80048e-07
-3.34691e-06
-6.7235e-07
-3.7641e-06
-3.49033e-07
-4.18604e-06
-1.73952e-08
-4.61061e-06
3.13612e-07
-5.03415e-06
6.33168e-07
-5.45087e-06
9.2846e-07
-5.85213e-06
1.18473e-06
-6.22545e-06
1.38563e-06
-6.55336e-06
1.51418e-06
-6.81205e-06
1.55439e-06
-6.96998e-06
1.49413e-06
-6.98685e-06
1.32921e-06
-6.81321e-06
1.06879e-06
-6.39179e-06
7.41353e-07
-5.66151e-06
3.99643e-07
-4.56503e-06
1.21408e-07
-3.06064e-06
-1.14196e-06
1.15873e-07
1.22798e-06
3.88022e-07
3.30518e-06
7.3341e-07
4.95835e-06
1.07849e-06
6.18446e-06
1.36888e-06
7.01307e-06
1.57159e-06
7.4933e-06
1.67262e-06
7.68381e-06
1.67254e-06
7.64454e-06
1.5815e-06
7.43101e-06
1.41501e-06
7.09124e-06
1.19066e-06
6.66465e-06
9.25919e-07
6.1822e-06
6.36868e-07
5.66734e-06
3.37525e-07
5.13712e-06
3.96551e-08
4.60352e-06
-2.47168e-07
4.07451e-06
-5.15355e-07
3.55504e-06
-7.59035e-07
3.04785e-06
-9.73772e-07
2.55404e-06
-1.15631e-06
2.0736e-06
-1.30436e-06
1.60572e-06
-1.41638e-06
1.14912e-06
-1.49148e-06
7.02183e-07
-1.52925e-06
2.63138e-07
-1.52975e-06
-1.69832e-07
-1.49342e-06
-5.98512e-07
-1.42108e-06
-1.02458e-06
-1.31396e-06
-1.44957e-06
-1.17369e-06
-1.87477e-06
-1.00242e-06
-2.3012e-06
-8.02853e-07
-2.72952e-06
-5.78385e-07
-3.15994e-06
-3.33214e-07
-3.59208e-06
-7.24955e-08
-4.02482e-06
1.97508e-07
-4.45604e-06
4.69276e-07
-4.88238e-06
7.33903e-07
-5.29878e-06
9.81035e-07
-5.69801e-06
1.19894e-06
-6.07003e-06
1.37474e-06
-6.40126e-06
1.49506e-06
-6.67368e-06
1.547e-06
-6.86399e-06
1.51987e-06
-6.94285e-06
1.40759e-06
-6.87458e-06
1.21195e-06
-6.61756e-06
9.46276e-07
-6.12612e-06
6.39105e-07
-5.35434e-06
3.363e-07
-4.26222e-06
9.98436e-08
-2.82418e-06
-1.04211e-06
9.91263e-08
1.12885e-06
3.38225e-07
3.06608e-06
6.52566e-07
4.644e-06
9.82373e-07
5.85466e-06
1.28031e-06
6.71513e-06
1.51429e-06
7.25932e-06
1.66703e-06
7.53108e-06
1.73358e-06
7.57799e-06
1.71807e-06
7.44651e-06
1.63052e-06
7.1788e-06
1.48406e-06
6.81111e-06
1.29293e-06
6.37333e-06
1.07112e-06
5.88915e-06
8.31453e-07
5.37678e-06
5.85236e-07
4.84973e-06
3.42062e-07
4.31768e-06
1.09853e-07
3.78725e-06
-1.05006e-07
3.26271e-06
-2.97497e-07
2.74653e-06
-4.63776e-07
2.23987e-06
-6.00994e-07
1.74294e-06
-7.07141e-07
1.25527e-06
-7.80915e-07
7.75957e-07
-8.21619e-07
3.03842e-07
-8.29087e-07
-1.62364e-07
-8.03639e-07
-6.2396e-07
-7.46062e-07
-1.08216e-06
-6.57614e-07
-1.53802e-06
-5.4005e-07
-1.99233e-06
-3.95672e-07
-2.44558e-06
-2.27398e-07
-2.8978e-06
-3.88395e-08
-3.3485e-06
1.65594e-07
-3.79652e-06
3.806e-07
-4.23982e-06
5.99884e-07
-4.67533e-06
8.16085e-07
-5.09858e-06
1.02075e-06
-5.50344e-06
1.20439e-06
-5.88164e-06
1.35665e-06
-6.2223e-06
1.46675e-06
-6.51135e-06
1.52408e-06
-6.73101e-06
1.51934e-06
-6.85924e-06
1.44597e-06
-6.86948e-06
1.30218e-06
-6.73079e-06
1.09332e-06
-6.4087e-06
8.34376e-07
-5.86717e-06
5.51988e-07
-5.07195e-06
2.85121e-07
-3.99535e-06
8.31982e-08
-2.62226e-06
-9.58914e-07
8.5657e-08
1.04319e-06
2.9657e-07
2.85516e-06
5.81469e-07
4.35911e-06
8.91589e-07
5.54454e-06
1.18629e-06
6.42043e-06
1.4358e-06
7.00981e-06
1.62167e-06
7.34521e-06
1.73561e-06
7.46405e-06
1.77744e-06
7.40467e-06
1.7528e-06
7.20344e-06
1.67095e-06
6.89297e-06
1.54301e-06
6.50127e-06
1.38067e-06
6.05149e-06
1.19526e-06
5.5622e-06
9.97168e-07
5.04782e-06
7.95589e-07
4.51926e-06
5.98389e-07
3.98445e-06
4.1212e-07
3.44897e-06
2.4211e-07
2.91654e-06
9.25736e-08
2.38941e-06
-3.32549e-08
1.86877e-06
-1.33001e-07
1.35502e-06
-2.05038e-07
8.47994e-07
-2.484e-07
3.47205e-07
-2.62717e-07
-1.48048e-07
-2.4816e-07
-6.38516e-07
-2.05432e-07
-1.12489e-06
-1.35754e-07
-1.6077e-06
-4.08886e-08
-2.0872e-06
7.68243e-08
-2.56329e-06
2.14421e-07
-3.0354e-06
3.68255e-07
-3.50234e-06
5.33927e-07
-3.96219e-06
7.06233e-07
-4.41213e-06
8.79111e-07
-4.84821e-06
1.04564e-06
-5.26511e-06
1.19807e-06
-5.65587e-06
1.32797e-06
-6.01155e-06
1.42651e-06
-6.32084e-06
1.48487e-06
-6.56971e-06
1.49495e-06
-6.74109e-06
1.45031e-06
-6.81461e-06
1.34749e-06
-6.76666e-06
1.1875e-06
-6.5708e-06
9.77572e-07
-6.19878e-06
7.3276e-07
-5.62236e-06
4.76962e-07
-4.81616e-06
2.42842e-07
-3.76123e-06
6.99274e-08
-2.44934e-06
-8.88987e-07
7.44874e-08
9.68704e-07
2.60917e-07
2.66873e-06
5.18127e-07
4.1019e-06
8.06146e-07
5.25652e-06
1.09035e-06
6.13622e-06
1.34387e-06
6.75629e-06
1.54843e-06
7.14065e-06
1.69397e-06
7.31852e-06
1.7774e-06
7.32124e-06
1.80102e-06
7.17981e-06
1.7709e-06
6.92309e-06
1.69537e-06
6.5768e-06
1.58387e-06
6.16298e-06
1.44607e-06
5.7e-06
1.29122e-06
5.20267e-06
1.12782e-06
4.68266e-06
9.6337e-07
4.1489e-06
8.04322e-07
3.60802e-06
6.56067e-07
3.06479e-06
5.22992e-07
2.52248e-06
4.0856e-07
1.9832e-06
3.15394e-07
1.44818e-06
2.45362e-07
9.18026e-07
1.99653e-07
3.92913e-07
1.78832e-07
-1.27227e-07
1.82883e-07
-6.42566e-07
2.11232e-07
-1.15324e-06
2.62756e-07
-1.65922e-06
3.35773e-07
-2.16022e-06
4.28022e-07
-2.65554e-06
5.36625e-07
-3.144e-06
6.58059e-07
-3.62377e-06
7.88112e-07
-4.09224e-06
9.21861e-07
-4.54588e-06
1.05367e-06
-4.98002e-06
1.17723e-06
-5.38867e-06
1.28564e-06
-5.76428e-06
1.37161e-06
-6.09752e-06
1.42776e-06
-6.37698e-06
1.44705e-06
-6.589e-06
1.42345e-06
-6.71749e-06
1.35276e-06
-6.74392e-06
1.23366e-06
-6.64755e-06
1.06885e-06
-6.40599e-06
8.66292e-07
-5.99622e-06
6.40181e-07
-5.39625e-06
4.11404e-07
-4.58738e-06
2.07112e-07
-3.55694e-06
5.9027e-08
-2.30126e-06
-8.2996e-07
6.4968e-08
9.03736e-07
2.29724e-07
2.50398e-06
4.60877e-07
3.87074e-06
7.25513e-07
4.99188e-06
9.94275e-07
5.86746e-06
1.24335e-06
6.50721e-06
1.45543e-06
6.92857e-06
1.61976e-06
7.1542e-06
1.73141e-06
7.20958e-06
1.79032e-06
7.1209e-06
1.79999e-06
6.91342e-06
1.76638e-06
6.61041e-06
1.69688e-06
6.23249e-06
1.59948e-06
5.7974e-06
1.48222e-06
5.31994e-06
1.35269e-06
4.81219e-06
1.21785e-06
4.28374e-06
1.08383e-06
3.74204e-06
9.55885e-07
3.19274e-06
8.38405e-07
2.63997e-06
7.34936e-07
2.08667e-06
6.4824e-07
1.53488e-06
5.8035e-07
9.85916e-07
5.32625e-07
4.40638e-07
5.05801e-07
-1.00403e-07
5.00025e-07
-6.3679e-07
5.14878e-07
-1.16809e-06
5.49387e-07
-1.69373e-06
6.02026e-07
-2.21285e-06
6.70698e-07
-2.72421e-06
7.52726e-07
-3.22603e-06
8.44832e-07
-3.71588e-06
9.43123e-07
-4.19053e-06
1.04309e-06
-4.64585e-06
1.13966e-06
-5.07658e-06
1.22721e-06
-5.47621e-06
1.29975e-06
-5.83682e-06
1.3511e-06
-6.14887e-06
1.37521e-06
-6.40109e-06
1.36657e-06
-6.58037e-06
1.3208e-06
-6.67172e-06
1.23532e-06
-6.65844e-06
1.1102e-06
-6.52244e-06
9.4903e-07
-6.24482e-06
7.59732e-07
-5.80692e-06
5.55145e-07
-5.19166e-06
3.53172e-07
-4.38541e-06
1.76227e-07
-3.38e-06
4.98216e-08
-2.17485e-06
-7.80138e-07
5.66539e-08
8.47083e-07
2.01875e-07
2.35876e-06
4.0838e-07
3.66424e-06
6.48987e-07
4.75128e-06
8.98892e-07
5.61755e-06
1.13728e-06
6.26882e-06
1.34825e-06
6.7176e-06
1.52104e-06
6.9814e-06
1.64976e-06
7.08086e-06
1.73269e-06
7.03798e-06
1.7714e-06
6.8747e-06
1.76992e-06
6.61189e-06
1.73381e-06
6.26859e-06
1.66955e-06
5.86166e-06
1.58388e-06
5.4056e-06
1.48347e-06
4.9126e-06
1.37457e-06
4.39264e-06
1.26285e-06
3.85377e-06
1.15328e-06
3.30231e-06
1.05011e-06
2.74314e-06
9.56846e-07
2.17993e-06
8.76293e-07
1.61543e-06
8.1057e-07
1.05164e-06
7.61158e-07
4.9005e-07
7.28937e-07
-6.81821e-08
7.14212e-07
-6.22064e-07
7.16735e-07
-1.17062e-06
7.35724e-07
-1.71272e-06
7.69857e-07
-2.24699e-06
8.1728e-07
-2.77163e-06
8.75596e-07
-3.28434e-06
9.41864e-07
-3.78214e-06
1.0126e-06
-4.26127e-06
1.08381e-06
-4.71706e-06
1.15101e-06
-5.14378e-06
1.20936e-06
-5.53456e-06
1.25374e-06
-5.8812e-06
1.27902e-06
-6.17415e-06
1.28029e-06
-6.40237e-06
1.25331e-06
-6.55338e-06
1.19494e-06
-6.61334e-06
1.10373e-06
-6.56724e-06
9.80595e-07
-6.3993e-06
8.29386e-07
-6.09361e-06
6.57502e-07
-5.63504e-06
4.76198e-07
-5.01036e-06
3.00555e-07
-4.20976e-06
1.48938e-07
-3.22838e-06
4.18433e-08
-2.06776e-06
-7.38295e-07
4.92326e-08
7.9785e-07
1.76551e-07
2.23144e-06
3.59583e-07
3.48121e-06
5.75863e-07
4.535e-06
8.04526e-07
5.38889e-06
1.02758e-06
6.04577e-06
1.23074e-06
6.51444e-06
1.40374e-06
6.8084e-06
1.5403e-06
6.94431e-06
1.63764e-06
6.94063e-06
1.69597e-06
6.81638e-06
1.71774e-06
6.59013e-06
1.707e-06
6.27932e-06
1.66885e-06
5.89982e-06
1.60884e-06
5.46561e-06
1.53265e-06
4.98878e-06
1.44579e-06
4.4795e-06
1.35336e-06
3.9462e-06
1.25994e-06
3.39573e-06
1.16953e-06
2.83354e-06
1.08551e-06
2.26396e-06
1.01063e-06
1.69032e-06
9.47018e-07
1.11525e-06
8.9624e-07
5.40828e-07
8.59284e-07
-3.12265e-08
8.36604e-07
-5.99385e-07
8.28134e-07
-1.16214e-06
8.33299e-07
-1.71788e-06
8.51029e-07
-2.26472e-06
8.79756e-07
-2.80036e-06
9.17423e-07
-3.32201e-06
9.61489e-07
-3.82621e-06
1.00894e-06
-4.30873e-06
1.05634e-06
-4.76446e-06
1.09986e-06
-5.1873e-06
1.13538e-06
-5.57008e-06
1.15865e-06
-5.90447e-06
1.16545e-06
-6.18095e-06
1.15187e-06
-6.38879e-06
1.11465e-06
-6.51616e-06
1.05157e-06
-6.55026e-06
9.61912e-07
-6.47758e-06
8.46959e-07
-6.28434e-06
7.10451e-07
-5.95711e-06
5.58955e-07
-5.48354e-06
4.02049e-07
-4.85345e-06
2.52209e-07
-4.05992e-06
1.24318e-07
-3.10049e-06
3.47599e-08
-1.9782e-06
-7.03535e-07
4.24795e-08
7.55371e-07
1.53144e-07
2.12078e-06
3.13658e-07
3.32069e-06
5.05504e-07
4.34315e-06
7.11237e-07
5.18316e-06
9.15485e-07
5.84152e-06
1.10566e-06
6.32427e-06
1.27229e-06
6.64176e-06
1.40913e-06
6.80748e-06
1.51283e-06
6.83693e-06
1.58263e-06
6.74658e-06
1.6198e-06
6.55295e-06
1.62718e-06
6.27195e-06
1.60863e-06
5.91837e-06
1.56862e-06
5.50562e-06
1.51191e-06
5.0455e-06
1.44319e-06
4.54821e-06
1.36698e-06
4.02242e-06
1.28739e-06
3.47532e-06
1.20808e-06
2.91285e-06
1.13223e-06
2.33981e-06
1.06245e-06
1.76009e-06
1.00086e-06
1.17684e-06
9.49021e-07
5.92664e-07
9.08018e-07
9.77674e-09
8.78432e-07
-5.69799e-07
8.60376e-07
-1.14409e-06
8.53499e-07
-1.71101e-06
8.57001e-07
-2.26822e-06
8.69636e-07
-2.813e-06
8.89724e-07
-3.3421e-06
9.15162e-07
-3.85165e-06
9.43447e-07
-4.33701e-06
9.71708e-07
-4.79272e-06
9.96771e-07
-5.21236e-06
1.01524e-06
-5.58855e-06
1.02364e-06
-5.91287e-06
1.01856e-06
-6.17587e-06
9.96915e-07
-6.36715e-06
9.56203e-07
-6.47545e-06
8.94836e-07
-6.4889e-06
8.12508e-07
-6.39525e-06
7.10562e-07
-6.1824e-06
5.92331e-07
-5.83887e-06
4.6338e-07
-5.35459e-06
3.31601e-07
-4.72167e-06
2.07079e-07
-3.9354e-06
1.01676e-07
-2.99509e-06
2.83306e-08
-1.90485e-06
-6.75204e-07
3.62298e-08
7.19141e-07
1.31197e-07
2.02581e-06
2.69962e-07
3.18193e-06
4.37365e-07
4.17575e-06
6.18962e-07
5.00156e-06
8.01795e-07
5.65869e-06
9.74977e-07
6.15109e-06
1.13004e-06
6.4867e-06
1.26103e-06
6.67649e-06
1.36441e-06
6.73355e-06
1.43881e-06
6.67218e-06
1.48464e-06
6.50712e-06
1.50373e-06
6.25285e-06
1.49894e-06
5.92317e-06
1.47377e-06
5.53079e-06
1.43208e-06
5.08718e-06
1.37783e-06
4.60246e-06
1.31487e-06
4.08537e-06
1.24683e-06
3.54336e-06
1.17698e-06
2.9827e-06
1.10821e-06
2.40858e-06
1.04298e-06
1.82533e-06
9.83284e-07
1.23654e-06
9.30694e-07
6.45254e-07
8.86331e-07
5.41395e-08
8.50892e-07
-5.3436e-07
8.24658e-07
-1.11785e-06
8.07503e-07
-1.69385e-06
7.98908e-07
-2.25962e-06
7.97967e-07
-2.81206e-06
8.03397e-07
-3.34753e-06
8.13556e-07
-3.86181e-06
8.26458e-07
-4.34991e-06
8.39816e-07
-4.80608e-06
8.51089e-07
-5.22364e-06
8.57563e-07
-5.59503e-06
8.56463e-07
-5.91177e-06
8.45092e-07
-6.1645e-06
8.21026e-07
-6.34308e-06
7.82333e-07
-6.43676e-06
7.27835e-07
-6.4344e-06
6.57392e-07
-6.32481e-06
5.72178e-07
-6.09719e-06
4.74927e-07
-5.74162e-06
3.70104e-07
-5.24977e-06
2.63947e-07
-4.61552e-06
1.6434e-07
-3.83579e-06
8.04884e-08
-2.91123e-06
2.23779e-08
-1.84674e-06
-6.52826e-07
3.03601e-08
6.88781e-07
1.10362e-07
1.94581e-06
2.27986e-07
3.0643e-06
3.70988e-07
4.03274e-06
5.27586e-07
4.84496e-06
6.87049e-07
5.49922e-06
8.40169e-07
5.99797e-06
9.79567e-07
6.3473e-06
1.09983e-06
6.55623e-06
1.19746e-06
6.63591e-06
1.27076e-06
6.59889e-06
1.31954e-06
6.45833e-06
1.34488e-06
6.22752e-06
1.34877e-06
5.91927e-06
1.33388e-06
5.54568e-06
1.30326e-06
5.11781e-06
1.26013e-06
4.64559e-06
1.20773e-06
4.13778e-06
1.14913e-06
3.60196e-06
1.08721e-06
3.04462e-06
1.02453e-06
2.47126e-06
9.63313e-07
1.88654e-06
9.05435e-07
1.29442e-06
8.52402e-07
6.98287e-07
8.05357e-07
1.01185e-07
7.65084e-07
-4.94088e-07
7.3202e-07
-1.08479e-06
7.06259e-07
-1.66809e-06
6.87563e-07
-2.24093e-06
6.7537e-07
-2.79986e-06
6.68804e-07
-3.34096e-06
6.66685e-07
-3.85969e-06
6.67554e-07
-4.35078e-06
6.69693e-07
-4.80821e-06
6.71175e-07
-5.22512e-06
6.69925e-07
-5.59378e-06
6.63805e-07
-5.90565e-06
6.50728e-07
-6.15142e-06
6.2881e-07
-6.32116e-06
5.96535e-07
-6.40448e-06
5.52963e-07
-6.39083e-06
4.97938e-07
-6.26979e-06
4.323e-07
-6.03155e-06
3.58062e-07
-5.66739e-06
2.78535e-07
-5.17024e-06
1.98347e-07
-4.53533e-06
1.23346e-07
-3.76079e-06
6.03539e-08
-2.84824e-06
1.67683e-08
-1.80316e-06
-6.36058e-07
2.47759e-08
6.64005e-07
9.03678e-08
1.88022e-06
1.87327e-07
2.96734e-06
3.0599e-07
3.91408e-06
4.36975e-07
4.71398e-06
5.71619e-07
5.36458e-06
7.02345e-07
5.86725e-06
8.22926e-07
6.22672e-06
9.28619e-07
6.45053e-06
1.01618e-06
6.54835e-06
1.08379e-06
6.53128e-06
1.13087e-06
6.41125e-06
1.15791e-06
6.20047e-06
1.16624e-06
5.91094e-06
1.15777e-06
5.55415e-06
1.13483e-06
5.14075e-06
1.09995e-06
4.68046e-06
1.05576e-06
4.18198e-06
1.00479e-06
3.65292e-06
9.4948e-07
3.09993e-06
8.9203e-07
2.52871e-06
8.34412e-07
1.94416e-06
7.78324e-07
1.3505e-06
7.25182e-07
7.5143e-07
6.76117e-07
1.5025e-07
6.31978e-07
-4.49949e-07
5.93338e-07
-1.04615e-06
5.60497e-07
-1.63525e-06
5.33492e-07
-2.21392e-06
5.12101e-07
-2.77847e-06
4.95852e-07
-3.32472e-06
4.8403e-07
-3.84787e-06
4.7569e-07
-4.34244e-06
4.69675e-07
-4.8022e-06
4.64647e-07
-5.22009e-06
4.59128e-07
-5.58826e-06
4.51563e-07
-5.89808e-06
4.40398e-07
-6.14026e-06
4.24188e-07
-6.30495e-06
4.01721e-07
-6.38202e-06
3.72163e-07
-6.36127e-06
3.35217e-07
-6.23284e-06
2.91274e-07
-5.9876e-06
2.41549e-07
-5.61766e-06
1.8817e-07
-5.11686e-06
1.34203e-07
-4.48136e-06
8.35866e-08
-3.71018e-06
4.09627e-08
-2.80562e-06
1.14e-08
-1.77359e-06
-6.24658e-07
1.94028e-08
6.44602e-07
7.09997e-08
1.82862e-06
1.47657e-07
2.89069e-06
2.42049e-07
3.81969e-06
3.46993e-07
4.60903e-06
4.55764e-07
5.25581e-06
5.62372e-07
5.76064e-06
6.61768e-07
6.12732e-06
7.49978e-07
6.36232e-06
8.24141e-07
6.47419e-06
8.82476e-07
6.47295e-06
9.24191e-07
6.36954e-06
9.49347e-07
6.17531e-06
9.58702e-07
5.90159e-06
9.53545e-07
5.5593e-06
9.35544e-07
5.15875e-06
9.06597e-07
4.70941e-06
8.68717e-07
4.21986e-06
8.23927e-07
3.69771e-06
7.74186e-07
3.14967e-06
7.21334e-07
2.58156e-06
6.67047e-07
1.99845e-06
6.12818e-07
1.40473e-06
5.59942e-07
8.04306e-07
5.09509e-07
2.00682e-07
4.62408e-07
-4.02848e-07
4.19323e-07
-1.00307e-06
3.80747e-07
-1.59667e-06
3.46976e-07
-2.18015e-06
3.1812e-07
-2.74962e-06
2.94102e-07
-3.3007e-06
2.74663e-07
-3.82843e-06
2.59365e-07
-4.32714e-06
2.47595e-07
-4.79043e-06
2.38583e-07
-5.21108e-06
2.3142e-07
-5.5811e-06
2.2509e-07
-5.89175e-06
2.18515e-07
-6.13368e-06
2.10622e-07
-6.29706e-06
2.00421e-07
-6.37182e-06
1.87099e-07
-6.34795e-06
1.70131e-07
-6.21587e-06
1.49386e-07
-5.96686e-06
1.25229e-07
-5.5935e-06
9.85978e-08
-5.09023e-06
7.10332e-08
-4.4538e-06
4.46558e-08
-3.6838e-06
2.207e-08
-2.78303e-06
6.1931e-09
-1.75772e-06
-6.18465e-07
1.41802e-08
6.30422e-07
5.20796e-08
1.79072e-06
1.08703e-07
2.83406e-06
1.78886e-07
3.74951e-06
2.57504e-07
4.53042e-06
3.39673e-07
5.17364e-06
4.20942e-07
5.67937e-06
4.9746e-07
6.0508e-06
5.6608e-07
6.29371e-06
6.24416e-07
6.41585e-06
6.7085e-07
6.42651e-06
7.04486e-07
6.3359e-06
7.25074e-07
6.15473e-06
7.32915e-07
5.89375e-06
7.2875e-07
5.56347e-06
7.13648e-07
5.17385e-06
6.88909e-07
4.73415e-06
6.55969e-07
4.2528e-06
6.16322e-07
3.73736e-06
5.71463e-07
3.19453e-06
5.22837e-07
2.63019e-06
4.71808e-07
2.04948e-06
4.19634e-07
1.45691e-06
3.67462e-07
8.56478e-07
3.16312e-07
2.51832e-07
2.67084e-07
-3.5362e-07
2.20555e-07
-9.56537e-07
1.77385e-07
-1.5535e-06
1.38116e-07
-2.14088e-06
1.03173e-07
-2.71467e-06
7.28637e-08
-3.27039e-06
4.73726e-08
-3.80294e-06
2.67571e-08
-4.30653e-06
1.094e-08
-4.77461e-06
-2.96788e-10
-5.19984e-06
-7.31441e-09
-5.57408e-06
-1.06153e-08
-5.88845e-06
-1.08325e-08
-6.13346e-06
-8.7077e-09
-6.29918e-06
-5.05681e-09
-6.37547e-06
-7.21032e-10
-6.35228e-06
3.49904e-09
-6.22009e-06
6.90539e-09
-5.97027e-06
8.98759e-09
-5.59559e-06
9.48668e-09
-5.09073e-06
8.44475e-09
-4.45275e-06
6.22303e-09
-3.68158e-06
3.4776e-09
-2.78029e-06
1.08337e-09
-1.75532e-06