/*--------------------------------*- C++ -*----------------------------------*\
  =========                 |
  \\      /  F ield         | OpenFOAM: The Open Source CFD Toolbox
   \\    /   O peration     | Website:  https://openfoam.org
    \\  /    A nd           | Version:  7
     \\/     M anipulation  |
\*---------------------------------------------------------------------------*/
FoamFile
{
    version     2.0;
    format      ascii;
    class       volScalarField;
    location    "0.044";
    object      p;
}
// * * * * * * * * * * * * * * * * * * * * * * * * * * * * * * * * * * * * * //

dimensions      [0 2 -2 0 0 0 0];

internalField   nonuniform List<scalar> 
2500
(
-2.50281e-05
6.3852
9.05024
10.1465
10.74
11.0905
11.3058
11.4474
11.5469
11.6201
11.6761
11.7203
11.7564
11.7867
11.8129
11.8363
11.8577
11.8777
11.897
11.9157
11.9343
11.953
11.9718
11.991
12.0108
12.0311
12.0522
12.0742
12.0972
12.1215
12.1473
12.1748
12.2046
12.2369
12.2725
12.3121
12.3567
12.4077
12.4669
12.537
12.6217
12.7269
12.8617
13.0428
13.3022
13.7038
14.3642
15.5553
18.3365
24.8459
4.86794
7.46774
8.88584
9.76999
10.3745
10.7819
11.0579
11.2509
11.3905
11.4945
11.5741
11.6368
11.6875
11.7296
11.7654
11.7967
11.8247
11.8503
11.8744
11.8973
11.9195
11.9414
11.9632
11.9852
12.0075
12.0304
12.054
12.0786
12.1044
12.1317
12.1608
12.1921
12.2262
12.2635
12.3051
12.3518
12.4052
12.4669
12.5396
12.6268
12.7337
12.8678
13.0408
13.2712
13.5895
14.0459
14.7101
15.6668
17.1705
19.8879
7.70314
8.46701
9.21064
9.83481
10.3222
10.6853
10.9531
11.1523
11.3026
11.418
11.5084
11.5806
11.6395
11.6886
11.7305
11.767
11.7995
11.8291
11.8566
11.8825
11.9075
11.9318
11.9559
11.9799
12.0042
12.0291
12.0546
12.0812
12.1091
12.1386
12.1701
12.204
12.2411
12.2819
12.3273
12.3786
12.4373
12.5053
12.5853
12.6809
12.7973
12.9415
13.1236
13.358
13.665
14.0722
14.6096
15.2878
16.0858
16.9146
9.1111
9.28873
9.66875
10.0708
10.4213
10.708
10.9371
11.1183
11.2618
11.3761
11.4683
11.5436
11.6061
11.6589
11.7043
11.7441
11.7796
11.8119
11.8419
11.8701
11.8972
11.9234
11.9493
11.975
12.0009
12.0273
12.0544
12.0825
12.112
12.1432
12.1764
12.2123
12.2514
12.2945
12.3424
12.3963
12.4578
12.5287
12.6114
12.7092
12.8262
12.9679
13.1413
13.3552
13.6196
13.9445
14.3351
14.7773
15.1928
15.4012
9.92145
9.90191
10.079
10.3237
10.5642
10.7801
10.9656
11.1211
11.2502
11.357
11.4458
11.5202
11.5832
11.6373
11.6844
11.726
11.7635
11.7977
11.8295
11.8595
11.8881
11.9159
11.9432
11.9704
11.9977
12.0253
12.0537
12.0832
12.1139
12.1464
12.181
12.2183
12.2588
12.3033
12.3526
12.4079
12.4704
12.5419
12.6244
12.7204
12.8329
12.9657
13.1228
13.3083
13.5253
13.7737
14.046
14.3198
14.5193
14.5123
10.4308
10.3468
10.4169
10.5601
10.7203
10.8776
11.0223
11.1506
11.2618
11.3574
11.4393
11.5098
11.5709
11.6242
11.6713
11.7135
11.7518
11.7871
11.82
11.8511
11.8809
11.9098
11.9382
11.9664
11.9948
12.0235
12.0529
12.0833
12.115
12.1484
12.1839
12.2221
12.2634
12.3085
12.3583
12.4137
12.4759
12.5461
12.6259
12.7172
12.822
12.9422
13.0797
13.2354
13.4081
13.5927
13.778
13.942
14.0255
13.9432
10.7696
10.6733
10.6901
10.7701
10.8739
10.9855
11.0952
11.1977
11.2905
11.3733
11.4464
11.5111
11.5683
11.6193
11.6651
11.7067
11.7449
11.7803
11.8136
11.8453
11.8757
11.9054
11.9345
11.9634
11.9925
12.0219
12.052
12.0831
12.1155
12.1495
12.1855
12.224
12.2655
12.3107
12.3601
12.4146
12.4751
12.5426
12.6182
12.703
12.7981
12.9043
13.0216
13.1491
13.2835
13.4179
13.5415
13.6363
13.6603
13.5599
11.0097
10.9189
10.9098
10.9511
11.0162
11.0935
11.1749
11.2549
11.3305
11.4003
11.4639
11.5217
11.574
11.6216
11.6651
11.7052
11.7424
11.7773
11.8104
11.8421
11.8728
11.9027
11.9322
11.9616
11.9911
12.021
12.0515
12.083
12.1156
12.1499
12.1861
12.2245
12.2658
12.3104
12.3588
12.4116
12.4697
12.5335
12.6038
12.6812
12.766
12.858
12.9564
13.0591
13.162
13.2584
13.339
13.3908
13.3847
13.287
11.1898
11.1088
11.0873
11.105
11.1441
11.1962
11.2553
11.3166
11.3769
11.4347
11.489
11.5395
11.5864
11.63
11.6705
11.7084
11.7441
11.778
11.8104
11.8417
11.8721
11.902
11.9316
11.961
11.9907
12.0207
12.0514
12.083
12.1158
12.15
12.186
12.2241
12.2647
12.3082
12.3551
12.4058
12.4608
12.5204
12.585
12.6546
12.7292
12.808
12.8895
12.9712
13.0491
13.1172
13.1683
13.1932
13.1721
13.0827
11.331
11.2594
11.2323
11.2358
11.2572
11.2912
11.3332
11.3792
11.4266
11.4736
11.5191
11.5627
11.604
11.6432
11.6804
11.7157
11.7494
11.7818
11.8132
11.8437
11.8736
11.9031
11.9324
11.9618
11.9913
12.0213
12.052
12.0834
12.116
12.1499
12.1855
12.2229
12.2626
12.3048
12.3498
12.398
12.4496
12.5047
12.5634
12.6256
12.6905
12.7573
12.8242
12.8886
12.9469
12.9942
13.0249
13.033
13.0046
12.9242
11.4453
11.3817
11.3524
11.347
11.3566
11.3776
11.4065
11.4405
11.4771
11.5147
11.5524
11.5894
11.6254
11.6602
11.6938
11.7263
11.7579
11.7885
11.8185
11.848
11.8771
11.906
11.9348
11.9638
11.9931
12.0228
12.0532
12.0843
12.1165
12.15
12.1849
12.2215
12.2599
12.3006
12.3435
12.389
12.437
12.4877
12.5407
12.5957
12.6519
12.7081
12.7626
12.8129
12.856
12.8879
12.9046
12.9021
12.8704
12.7979
11.5401
11.4829
11.4529
11.4422
11.4437
11.4553
11.4744
11.4988
11.5266
11.5564
11.5871
11.6182
11.6492
11.6798
11.7099
11.7396
11.7687
11.7975
11.8259
11.8542
11.8823
11.9103
11.9385
11.967
11.9958
12.0251
12.055
12.0857
12.1174
12.1502
12.1843
12.2199
12.257
12.2959
12.3367
12.3794
12.4239
12.4702
12.5178
12.5662
12.6145
12.6616
12.7057
12.7447
12.776
12.7965
12.8034
12.7942
12.7612
12.6955
11.62
11.5678
11.538
11.5239
11.5199
11.5247
11.5365
11.5534
11.5741
11.5972
11.6221
11.6479
11.6743
11.701
11.7278
11.7546
11.7815
11.8082
11.835
11.8619
11.8888
11.916
11.9434
11.9711
11.9993
12.0281
12.0575
12.0876
12.1186
12.1507
12.1839
12.2183
12.254
12.2912
12.3297
12.3696
12.4108
12.4529
12.4955
12.538
12.5794
12.6186
12.6541
12.684
12.7061
12.7182
12.7182
12.7046
12.6715
12.6113
11.6881
11.6399
11.6106
11.5943
11.5866
11.5864
11.5926
11.6038
11.6187
11.6365
11.6563
11.6776
11.6999
11.723
11.7467
11.7709
11.7954
11.8202
11.8453
11.8708
11.8965
11.9226
11.9491
11.9761
12.0036
12.0317
12.0604
12.0899
12.1202
12.1514
12.1836
12.2169
12.2511
12.2865
12.3229
12.3601
12.398
12.4363
12.4743
12.5115
12.5469
12.5795
12.6078
12.6304
12.6454
12.6512
12.6463
12.6299
12.5972
12.5417
11.7467
11.7015
11.6727
11.6552
11.6448
11.6411
11.6431
11.6497
11.6601
11.6734
11.689
11.7064
11.7252
11.7451
11.766
11.7877
11.81
11.8329
11.8564
11.8804
11.9049
11.9299
11.9555
11.9816
12.0084
12.0357
12.0638
12.0925
12.1221
12.1524
12.1836
12.2156
12.2485
12.2821
12.3163
12.3511
12.386
12.4207
12.4546
12.4871
12.5174
12.5443
12.5668
12.5834
12.593
12.594
12.5856
12.5674
12.5354
12.4837
11.7971
11.7543
11.7261
11.7077
11.6956
11.6892
11.688
11.6911
11.6979
11.7076
11.7197
11.7338
11.7495
11.7667
11.785
11.8044
11.8247
11.8458
11.8677
11.8903
11.9136
11.9376
11.9622
11.9875
12.0135
12.0401
12.0674
12.0954
12.1241
12.1536
12.1838
12.2146
12.246
12.278
12.3102
12.3426
12.3748
12.4063
12.4366
12.4651
12.4909
12.5131
12.5307
12.5426
12.5478
12.5453
12.5344
12.5151
12.4838
12.4354
11.8405
11.7996
11.772
11.7531
11.7396
11.7313
11.7277
11.7281
11.732
11.7387
11.748
11.7593
11.7725
11.7872
11.8033
11.8206
11.8391
11.8586
11.879
11.9003
11.9225
11.9454
11.9691
11.9935
12.0187
12.0445
12.0711
12.0984
12.1263
12.1549
12.1841
12.2138
12.2439
12.2742
12.3047
12.3349
12.3646
12.3933
12.4204
12.4454
12.4674
12.4856
12.4993
12.5075
12.5093
12.504
12.4913
12.4713
12.4408
12.3951
11.8777
11.8383
11.8111
11.7919
11.7775
11.7677
11.7623
11.7606
11.7622
11.7667
11.7736
11.7826
11.7936
11.8062
11.8204
11.836
11.8528
11.8708
11.8899
11.91
11.931
11.953
11.9758
11.9994
12.0238
12.049
12.0748
12.1014
12.1285
12.1563
12.1845
12.2131
12.242
12.2709
12.2997
12.328
12.3555
12.3817
12.4061
12.428
12.4469
12.4619
12.4723
12.4774
12.4766
12.4693
12.4553
12.4348
12.4051
12.3617
11.9093
11.871
11.8443
11.8248
11.8098
11.7989
11.7921
11.7888
11.7887
11.7912
11.7962
11.8034
11.8125
11.8235
11.836
11.85
11.8654
11.8821
11.9
11.919
11.9391
11.9601
11.9821
12.005
12.0287
12.0531
12.0783
12.1042
12.1307
12.1576
12.185
12.2126
12.2404
12.2681
12.2954
12.322
12.3475
12.3716
12.3936
12.413
12.4292
12.4415
12.4494
12.4521
12.4492
12.4403
12.4253
12.4046
12.3756
12.3342
11.9357
11.8984
11.872
11.8524
11.8368
11.8252
11.8173
11.8128
11.8113
11.8124
11.8158
11.8215
11.8292
11.8386
11.8498
11.8625
11.8767
11.8923
11.9091
11.9272
11.9464
11.9666
11.9879
12.0101
12.0331
12.057
12.0816
12.1068
12.1326
12.1589
12.1855
12.2123
12.2391
12.2656
12.2916
12.3168
12.3407
12.363
12.383
12.4003
12.4144
12.4245
12.4302
12.4311
12.4266
12.4165
12.4008
12.38
12.3517
12.3118
11.9573
11.9207
11.8945
11.8748
11.859
11.8468
11.8381
11.8326
11.83
11.83
11.8323
11.8368
11.8432
11.8515
11.8616
11.8732
11.8864
11.9011
11.917
11.9343
11.9528
11.9723
11.993
12.0146
12.0371
12.0604
12.0844
12.1091
12.1344
12.1601
12.186
12.212
12.238
12.2636
12.2885
12.3125
12.335
12.3558
12.3742
12.3899
12.4022
12.4106
12.4147
12.414
12.4083
12.3973
12.3812
12.3604
12.3325
12.294
11.9743
11.9382
11.9123
11.8925
11.8764
11.8638
11.8546
11.8484
11.845
11.8441
11.8455
11.8491
11.8546
11.862
11.8712
11.882
11.8944
11.9083
11.9236
11.9402
11.958
11.9771
11.9972
12.0183
12.0403
12.0632
12.0868
12.1111
12.1359
12.161
12.1864
12.2119
12.2371
12.262
12.286
12.309
12.3305
12.3501
12.3673
12.3816
12.3925
12.3996
12.4025
12.4007
12.3941
12.3824
12.366
12.3451
12.3177
12.2802
11.9869
11.9512
11.9254
11.9057
11.8894
11.8765
11.8668
11.8602
11.8562
11.8547
11.8555
11.8584
11.8633
11.87
11.8785
11.8887
11.9005
11.9138
11.9286
11.9447
11.9621
11.9807
12.0004
12.0212
12.0428
12.0654
12.0887
12.1126
12.137
12.1618
12.1868
12.2118
12.2365
12.2608
12.2842
12.3064
12.3271
12.3458
12.3621
12.3754
12.3854
12.3915
12.3935
12.3909
12.3836
12.3715
12.3548
12.334
12.307
12.2702
11.9953
11.9598
11.9341
11.9143
11.8979
11.8848
11.875
11.868
11.8637
11.8618
11.8621
11.8646
11.869
11.8754
11.8834
11.8932
11.9046
11.9176
11.932
11.9478
11.9649
11.9832
12.0026
12.0231
12.0446
12.0669
12.0899
12.1136
12.1378
12.1623
12.187
12.2117
12.2361
12.26
12.2829
12.3047
12.3249
12.343
12.3586
12.3713
12.3807
12.3862
12.3875
12.3844
12.3767
12.3644
12.3475
12.3267
12.2999
12.2636
11.9994
11.964
11.9384
11.9186
11.9022
11.889
11.879
11.8719
11.8674
11.8653
11.8655
11.8677
11.8719
11.878
11.8859
11.8955
11.9067
11.9195
11.9337
11.9493
11.9663
11.9844
12.0037
12.0241
12.0454
12.0676
12.0906
12.1141
12.1382
12.1626
12.1872
12.2117
12.2359
12.2596
12.2823
12.3039
12.3237
12.3416
12.3569
12.3693
12.3783
12.3835
12.3846
12.3812
12.3733
12.3608
12.3439
12.3231
12.2964
12.2604
11.9994
11.964
11.9384
11.9186
11.9022
11.889
11.879
11.8719
11.8674
11.8653
11.8655
11.8677
11.8719
11.878
11.8859
11.8955
11.9067
11.9195
11.9337
11.9493
11.9663
11.9844
12.0037
12.0241
12.0454
12.0676
12.0906
12.1141
12.1382
12.1626
12.1872
12.2117
12.2359
12.2596
12.2823
12.3038
12.3237
12.3416
12.3569
12.3693
12.3783
12.3835
12.3846
12.3812
12.3733
12.3608
12.3439
12.3231
12.2964
12.2604
11.9953
11.9598
11.9341
11.9143
11.8979
11.8848
11.875
11.868
11.8637
11.8618
11.8621
11.8646
11.869
11.8754
11.8834
11.8932
11.9046
11.9176
11.932
11.9478
11.9649
11.9832
12.0026
12.0231
12.0446
12.0669
12.0899
12.1136
12.1378
12.1623
12.187
12.2117
12.2361
12.26
12.2829
12.3047
12.3249
12.343
12.3586
12.3713
12.3807
12.3862
12.3875
12.3844
12.3767
12.3644
12.3475
12.3267
12.2999
12.2636
11.9869
11.9512
11.9254
11.9057
11.8894
11.8765
11.8668
11.8602
11.8562
11.8547
11.8555
11.8584
11.8633
11.87
11.8785
11.8887
11.9005
11.9138
11.9286
11.9447
11.9621
11.9807
12.0004
12.0212
12.0428
12.0654
12.0887
12.1126
12.137
12.1618
12.1868
12.2118
12.2365
12.2607
12.2842
12.3064
12.3271
12.3458
12.3621
12.3754
12.3854
12.3915
12.3935
12.3909
12.3836
12.3715
12.3548
12.334
12.307
12.2702
11.9743
11.9382
11.9123
11.8925
11.8764
11.8638
11.8546
11.8484
11.845
11.8441
11.8455
11.8491
11.8546
11.862
11.8712
11.882
11.8944
11.9083
11.9236
11.9402
11.958
11.9771
11.9972
12.0183
12.0403
12.0632
12.0868
12.1111
12.1359
12.161
12.1864
12.2119
12.2371
12.262
12.286
12.309
12.3305
12.3501
12.3673
12.3816
12.3925
12.3996
12.4025
12.4007
12.3941
12.3824
12.366
12.3451
12.3177
12.2802
11.9573
11.9207
11.8945
11.8748
11.8589
11.8468
11.8381
11.8326
11.83
11.83
11.8323
11.8368
11.8432
11.8515
11.8616
11.8732
11.8864
11.9011
11.917
11.9343
11.9528
11.9723
11.993
12.0146
12.0371
12.0604
12.0844
12.1091
12.1344
12.1601
12.186
12.212
12.238
12.2636
12.2885
12.3125
12.335
12.3558
12.3742
12.3899
12.4022
12.4106
12.4147
12.414
12.4083
12.3973
12.3812
12.3603
12.3325
12.294
11.9357
11.8984
11.872
11.8524
11.8368
11.8252
11.8173
11.8128
11.8112
11.8123
11.8158
11.8215
11.8292
11.8386
11.8498
11.8625
11.8767
11.8923
11.9091
11.9272
11.9464
11.9666
11.9879
12.0101
12.0331
12.057
12.0816
12.1068
12.1326
12.1589
12.1855
12.2123
12.2391
12.2656
12.2916
12.3168
12.3407
12.363
12.383
12.4003
12.4144
12.4245
12.4302
12.4311
12.4266
12.4165
12.4008
12.38
12.3517
12.3118
11.9093
11.871
11.8443
11.8248
11.8097
11.7989
11.7921
11.7888
11.7887
11.7912
11.7962
11.8034
11.8125
11.8235
11.836
11.85
11.8654
11.8821
11.9
11.919
11.9391
11.9601
11.9821
12.005
12.0287
12.0531
12.0783
12.1042
12.1306
12.1576
12.185
12.2126
12.2404
12.2681
12.2954
12.322
12.3475
12.3716
12.3936
12.413
12.4292
12.4415
12.4494
12.4521
12.4492
12.4403
12.4253
12.4046
12.3756
12.3342
11.8777
11.8383
11.8111
11.7919
11.7775
11.7677
11.7623
11.7606
11.7622
11.7667
11.7736
11.7826
11.7936
11.8062
11.8204
11.836
11.8528
11.8708
11.8899
11.91
11.931
11.953
11.9758
11.9994
12.0238
12.0489
12.0748
12.1013
12.1285
12.1563
12.1845
12.2131
12.242
12.2709
12.2997
12.328
12.3555
12.3817
12.4061
12.428
12.4469
12.4619
12.4723
12.4774
12.4766
12.4693
12.4553
12.4348
12.4051
12.3617
11.8405
11.7996
11.772
11.7531
11.7396
11.7313
11.7277
11.7281
11.732
11.7387
11.748
11.7593
11.7725
11.7872
11.8033
11.8206
11.8391
11.8586
11.879
11.9003
11.9224
11.9454
11.9691
11.9935
12.0187
12.0445
12.0711
12.0984
12.1263
12.1549
12.1841
12.2138
12.2439
12.2742
12.3047
12.3349
12.3646
12.3933
12.4204
12.4453
12.4674
12.4856
12.4993
12.5075
12.5093
12.504
12.4913
12.4713
12.4408
12.3951
11.7971
11.7543
11.7261
11.7077
11.6956
11.6892
11.688
11.6911
11.6979
11.7076
11.7197
11.7338
11.7495
11.7667
11.785
11.8044
11.8247
11.8458
11.8677
11.8903
11.9136
11.9376
11.9622
11.9875
12.0135
12.0401
12.0674
12.0954
12.1241
12.1536
12.1837
12.2146
12.246
12.278
12.3102
12.3426
12.3748
12.4063
12.4366
12.4651
12.4908
12.5131
12.5307
12.5426
12.5478
12.5453
12.5344
12.5151
12.4838
12.4354
11.7467
11.7014
11.6727
11.6552
11.6448
11.6411
11.6431
11.6497
11.6601
11.6734
11.689
11.7064
11.7252
11.7451
11.766
11.7877
11.81
11.8329
11.8564
11.8804
11.9049
11.9299
11.9555
11.9816
12.0084
12.0357
12.0638
12.0925
12.1221
12.1524
12.1836
12.2156
12.2485
12.2821
12.3163
12.3511
12.386
12.4207
12.4546
12.4871
12.5174
12.5443
12.5667
12.5834
12.5929
12.594
12.5856
12.5674
12.5354
12.4837
11.6881
11.6399
11.6105
11.5943
11.5866
11.5864
11.5926
11.6038
11.6187
11.6365
11.6563
11.6775
11.6999
11.723
11.7467
11.7709
11.7954
11.8202
11.8453
11.8707
11.8965
11.9226
11.9491
11.9761
12.0036
12.0317
12.0604
12.0899
12.1202
12.1514
12.1836
12.2168
12.2511
12.2865
12.3229
12.3601
12.398
12.4363
12.4743
12.5115
12.5469
12.5795
12.6078
12.6304
12.6454
12.6512
12.6463
12.6299
12.5972
12.5417
11.62
11.5678
11.538
11.5239
11.5199
11.5247
11.5365
11.5534
11.5741
11.5972
11.6221
11.6479
11.6743
11.701
11.7278
11.7546
11.7815
11.8082
11.835
11.8619
11.8888
11.916
11.9434
11.9711
11.9993
12.0281
12.0574
12.0876
12.1186
12.1507
12.1839
12.2183
12.254
12.2912
12.3297
12.3696
12.4108
12.4529
12.4955
12.5379
12.5794
12.6186
12.6541
12.684
12.7061
12.7182
12.7182
12.7046
12.6715
12.6113
11.5401
11.4829
11.4529
11.4422
11.4437
11.4553
11.4744
11.4988
11.5266
11.5564
11.5871
11.6182
11.6491
11.6798
11.7099
11.7396
11.7687
11.7975
11.8259
11.8542
11.8822
11.9103
11.9385
11.967
11.9958
12.0251
12.055
12.0857
12.1174
12.1502
12.1843
12.2198
12.257
12.2959
12.3367
12.3794
12.4239
12.4702
12.5178
12.5662
12.6145
12.6616
12.7057
12.7447
12.776
12.7965
12.8034
12.7942
12.7612
12.6954
11.4453
11.3817
11.3524
11.347
11.3566
11.3776
11.4065
11.4405
11.4771
11.5147
11.5524
11.5894
11.6254
11.6602
11.6938
11.7263
11.7578
11.7885
11.8185
11.848
11.8771
11.906
11.9348
11.9638
11.9931
12.0228
12.0531
12.0843
12.1165
12.15
12.1849
12.2214
12.2599
12.3006
12.3435
12.389
12.437
12.4877
12.5407
12.5957
12.6519
12.7081
12.7626
12.8129
12.856
12.8879
12.9046
12.9021
12.8703
12.7979
11.331
11.2594
11.2323
11.2358
11.2572
11.2912
11.3332
11.3792
11.4266
11.4736
11.5191
11.5627
11.604
11.6432
11.6803
11.7157
11.7494
11.7818
11.8132
11.8437
11.8736
11.9031
11.9324
11.9618
11.9913
12.0213
12.052
12.0834
12.116
12.1499
12.1855
12.2229
12.2626
12.3048
12.3498
12.398
12.4496
12.5047
12.5634
12.6255
12.6905
12.7573
12.8242
12.8886
12.9469
12.9942
13.0249
13.033
13.0046
12.9242
11.1898
11.1088
11.0873
11.105
11.1441
11.1962
11.2553
11.3166
11.3769
11.4347
11.489
11.5395
11.5864
11.63
11.6705
11.7084
11.7441
11.778
11.8104
11.8417
11.8721
11.902
11.9315
11.961
11.9907
12.0207
12.0514
12.083
12.1158
12.15
12.1859
12.2241
12.2647
12.3082
12.3551
12.4058
12.4607
12.5204
12.5849
12.6546
12.7292
12.808
12.8895
12.9712
13.0491
13.1172
13.1682
13.1932
13.1721
13.0827
11.0096
10.9189
10.9097
10.9511
11.0162
11.0935
11.1749
11.2549
11.3304
11.4003
11.4639
11.5217
11.574
11.6216
11.6651
11.7052
11.7424
11.7773
11.8104
11.8421
11.8728
11.9027
11.9322
11.9616
11.9911
12.021
12.0515
12.083
12.1156
12.1499
12.186
12.2245
12.2658
12.3104
12.3588
12.4116
12.4696
12.5335
12.6038
12.6812
12.766
12.858
12.9564
13.0591
13.162
13.2584
13.339
13.3908
13.3847
13.287
10.7695
10.6733
10.6901
10.7701
10.8739
10.9854
11.0952
11.1977
11.2905
11.3732
11.4464
11.511
11.5683
11.6193
11.6651
11.7067
11.7449
11.7803
11.8136
11.8453
11.8757
11.9053
11.9345
11.9634
11.9925
12.0219
12.052
12.0831
12.1155
12.1495
12.1855
12.224
12.2655
12.3107
12.3601
12.4146
12.4751
12.5426
12.6182
12.703
12.7981
12.9042
13.0216
13.1491
13.2835
13.4179
13.5415
13.6363
13.6603
13.5599
10.4307
10.3468
10.4169
10.56
10.7203
10.8775
11.0223
11.1506
11.2618
11.3574
11.4393
11.5098
11.5708
11.6242
11.6713
11.7135
11.7518
11.7871
11.82
11.8511
11.8809
11.9098
11.9382
11.9664
11.9947
12.0235
12.0529
12.0833
12.115
12.1484
12.1839
12.2221
12.2634
12.3085
12.3583
12.4137
12.4759
12.5461
12.6259
12.7172
12.822
12.9422
13.0797
13.2354
13.4081
13.5927
13.778
13.942
14.0254
13.9432
9.92142
9.90188
10.0789
10.3237
10.5642
10.78
10.9656
11.1211
11.2502
11.357
11.4458
11.5202
11.5832
11.6373
11.6844
11.726
11.7635
11.7977
11.8295
11.8595
11.8881
11.9159
11.9432
11.9704
11.9976
12.0253
12.0537
12.0831
12.1139
12.1464
12.181
12.2183
12.2588
12.3033
12.3526
12.4079
12.4704
12.5419
12.6244
12.7203
12.8329
12.9656
13.1227
13.3083
13.5253
13.7737
14.046
14.3198
14.5193
14.5123
9.11107
9.2887
9.66872
10.0708
10.4213
10.708
10.937
11.1183
11.2617
11.3761
11.4682
11.5435
11.6061
11.6588
11.7043
11.744
11.7796
11.8119
11.8419
11.8701
11.8972
11.9234
11.9493
11.975
12.0009
12.0273
12.0544
12.0825
12.112
12.1432
12.1764
12.2123
12.2514
12.2944
12.3424
12.3963
12.4578
12.5287
12.6114
12.7092
12.8262
12.9679
13.1413
13.3552
13.6196
13.9445
14.3351
14.7773
15.1928
15.4012
7.7031
8.46698
9.21062
9.83479
10.3222
10.6853
10.9531
11.1522
11.3026
11.418
11.5084
11.5805
11.6395
11.6886
11.7305
11.767
11.7995
11.8291
11.8566
11.8825
11.9075
11.9318
11.9559
11.9799
12.0042
12.0291
12.0546
12.0812
12.1091
12.1386
12.17
12.204
12.241
12.2818
12.3273
12.3786
12.4373
12.5052
12.5852
12.6809
12.7972
12.9414
13.1236
13.358
13.665
14.0722
14.6096
15.2878
16.0858
16.9146
4.8679
7.46771
8.8858
9.76996
10.3744
10.7819
11.0579
11.2509
11.3905
11.4945
11.5741
11.6368
11.6875
11.7296
11.7654
11.7967
11.8247
11.8503
11.8744
11.8973
11.9195
11.9414
11.9632
11.9852
12.0075
12.0304
12.054
12.0786
12.1044
12.1317
12.1608
12.1921
12.2261
12.2635
12.3051
12.3518
12.4051
12.4669
12.5396
12.6268
12.7336
12.8677
13.0408
13.2712
13.5895
14.0459
14.7101
15.6668
17.1705
19.8879
-8.9985e-05
6.38515
9.0502
10.1465
10.7399
11.0905
11.3057
11.4474
11.5468
11.6201
11.6761
11.7203
11.7564
11.7867
11.8129
11.8363
11.8577
11.8777
11.8969
11.9157
11.9343
11.9529
11.9718
11.991
12.0107
12.0311
12.0522
12.0742
12.0972
12.1215
12.1473
12.1748
12.2045
12.2369
12.2725
12.3121
12.3567
12.4077
12.4669
12.537
12.6217
12.7268
12.8617
13.0428
13.3022
13.7038
14.3642
15.5553
18.3365
24.8459
)
;

boundaryField
{
    movingWallTop
    {
        type            zeroGradient;
    }
    movingWallBottom
    {
        type            zeroGradient;
    }
    fixedWalls
    {
        type            zeroGradient;
    }
    frontAndBack
    {
        type            empty;
    }
}


// ************************************************************************* //
