/*--------------------------------*- C++ -*----------------------------------*\
  =========                 |
  \\      /  F ield         | OpenFOAM: The Open Source CFD Toolbox
   \\    /   O peration     | Website:  https://openfoam.org
    \\  /    A nd           | Version:  7
     \\/     M anipulation  |
\*---------------------------------------------------------------------------*/
FoamFile
{
    version     2.0;
    format      ascii;
    class       volVectorField;
    location    "0.044";
    object      U;
}
// * * * * * * * * * * * * * * * * * * * * * * * * * * * * * * * * * * * * * //

dimensions      [0 1 -1 0 0 0 0];

internalField   nonuniform List<vector> 
2500
(
(0.290249 -0.152409 0)
(0.389527 -0.128231 0)
(0.565409 -0.0747306 0)
(0.683234 -0.0422302 0)
(0.752826 -0.024529 0)
(0.797841 -0.0148885 0)
(0.829011 -0.00958117 0)
(0.851488 -0.00655789 0)
(0.868301 -0.00473382 0)
(0.881271 -0.00355899 0)
(0.891507 -0.00275513 0)
(0.899718 -0.00217678 0)
(0.906383 -0.00174406 0)
(0.911836 -0.00141049 0)
(0.916322 -0.00114741 0)
(0.920024 -0.000936124 0)
(0.92308 -0.00076383 0)
(0.925599 -0.00062138 0)
(0.927666 -0.000502006 0)
(0.929346 -0.000400536 0)
(0.930691 -0.000312896 0)
(0.931742 -0.000235784 0)
(0.93253 -0.00016644 0)
(0.933076 -0.000102484 0)
(0.933397 -4.18004e-05 0)
(0.9335 1.75766e-05 0)
(0.933387 7.7677e-05 0)
(0.933052 0.000140327 0)
(0.932486 0.000207569 0)
(0.931668 0.000281661 0)
(0.930573 0.000365189 0)
(0.929165 0.000461234 0)
(0.927397 0.000573599 0)
(0.925209 0.000707142 0)
(0.922522 0.000868254 0)
(0.919236 0.00106562 0)
(0.915219 0.00131143 0)
(0.910297 0.00162345 0)
(0.904235 0.00202876 0)
(0.896707 0.00257078 0)
(0.887245 0.00332356 0)
(0.875157 0.00442138 0)
(0.859354 0.0061229 0)
(0.838034 0.00894885 0)
(0.808143 0.0139592 0)
(0.764412 0.0232458 0)
(0.695907 0.040771 0)
(0.577941 0.0737467 0)
(0.398047 0.128744 0)
(0.293868 0.153785 0)
(0.00108246 -0.294883 0)
(0.0168481 -0.298606 0)
(0.152308 -0.213011 0)
(0.282838 -0.145318 0)
(0.388001 -0.0996322 0)
(0.471212 -0.0698049 0)
(0.536626 -0.0504524 0)
(0.588093 -0.037652 0)
(0.628956 -0.0288921 0)
(0.661774 -0.0226709 0)
(0.688412 -0.0180979 0)
(0.710226 -0.014635 0)
(0.728217 -0.0119465 0)
(0.743133 -0.00981595 0)
(0.755543 -0.00809862 0)
(0.765884 -0.00669408 0)
(0.7745 -0.00553044 0)
(0.781661 -0.00455461 0)
(0.787582 -0.00372624 0)
(0.792435 -0.00301384 0)
(0.796355 -0.00239215 0)
(0.799449 -0.00184036 0)
(0.801799 -0.00134083 0)
(0.803464 -0.000878144 0)
(0.804486 -0.000438385 0)
(0.804886 -8.5235e-06 0)
(0.804671 0.000424201 0)
(0.803828 0.000872527 0)
(0.802328 0.00134996 0)
(0.800122 0.00187131 0)
(0.79714 0.00245344 0)
(0.793289 0.00311622 0)
(0.788445 0.00388387 0)
(0.782451 0.00478678 0)
(0.775105 0.0058642 0)
(0.766149 0.00716821 0)
(0.75525 0.00876985 0)
(0.741979 0.0107688 0)
(0.725767 0.0133094 0)
(0.705857 0.0166078 0)
(0.681222 0.0209999 0)
(0.650444 0.0270273 0)
(0.611545 0.0355952 0)
(0.561753 0.0482555 0)
(0.497337 0.0676673 0)
(0.413833 0.0981338 0)
(0.306339 0.145767 0)
(0.170528 0.217294 0)
(0.0269022 0.307193 0)
(0.00518507 0.303007 0)
(-0.0329194 -0.250378 0)
(-0.0615914 -0.344031 0)
(-0.0114955 -0.31058 0)
(0.0708086 -0.251512 0)
(0.158906 -0.195972 0)
(0.241408 -0.151386 0)
(0.313959 -0.117667 0)
(0.375867 -0.0925495 0)
(0.428029 -0.0737405 0)
(0.471799 -0.0594616 0)
(0.508517 -0.0484398 0)
(0.539358 -0.0397869 0)
(0.565308 -0.0328851 0)
(0.587173 -0.0273006 0)
(0.605608 -0.0227237 0)
(0.621145 -0.0189289 0)
(0.634215 -0.0157484 0)
(0.645173 -0.0130542 0)
(0.654303 -0.0107469 0)
(0.661839 -0.00874705 0)
(0.667969 -0.00698989 0)
(0.672841 -0.00542119 0)
(0.676572 -0.00399438 0)
(0.679246 -0.00266828 0)
(0.680923 -0.00140534 0)
(0.681634 -0.000170183 0)
(0.681386 0.0010717 0)
(0.680163 0.00235535 0)
(0.677921 0.0037176 0)
(0.674588 0.00519866 0)
(0.670065 0.00684396 0)
(0.664216 0.00870659 0)
(0.656867 0.0108504 0)
(0.647793 0.0133545 0)
(0.636718 0.0163191 0)
(0.623288 0.0198744 0)
(0.607065 0.0241934 0)
(0.587495 0.0295111 0)
(0.563882 0.036153 0)
(0.535346 0.0445796 0)
(0.500786 0.0554534 0)
(0.458837 0.0697383 0)
(0.407883 0.0888375 0)
(0.346169 0.114749 0)
(0.272263 0.150119 0)
(0.186293 0.197708 0)
(0.0922894 0.258056 0)
(0.00186466 0.323308 0)
(-0.0569238 0.361544 0)
(-0.0321688 0.263989 0)
(-0.0267693 -0.190611 0)
(-0.0654217 -0.33299 0)
(-0.0645453 -0.351469 0)
(-0.0275007 -0.319195 0)
(0.0296052 -0.271915 0)
(0.0936925 -0.225349 0)
(0.157072 -0.184975 0)
(0.215943 -0.151703 0)
(0.26879 -0.124806 0)
(0.315323 -0.103154 0)
(0.355842 -0.0856673 0)
(0.390892 -0.0714478 0)
(0.421084 -0.0597884 0)
(0.447013 -0.0501445 0)
(0.469221 -0.0420984 0)
(0.488185 -0.035328 0)
(0.504319 -0.0295825 0)
(0.517974 -0.0246634 0)
(0.529448 -0.0204114 0)
(0.538989 -0.0166959 0)
(0.546803 -0.0134081 0)
(0.553053 -0.010455 0)
(0.55787 -0.00775537 0)
(0.561351 -0.00523639 0)
(0.563561 -0.00283096 0)
(0.564537 -0.00047527 0)
(0.564286 0.00189327 0)
(0.562785 0.00433824 0)
(0.559982 0.00692641 0)
(0.555793 0.00973025 0)
(0.550099 0.012831 0)
(0.542742 0.0163224 0)
(0.533521 0.0203157 0)
(0.522187 0.0249458 0)
(0.508432 0.0303804 0)
(0.49188 0.0368313 0)
(0.472081 0.0445711 0)
(0.448492 0.0539551 0)
(0.420477 0.0654514 0)
(0.387303 0.0796802 0)
(0.348166 0.0974604 0)
(0.302261 0.119853 0)
(0.248961 0.148169 0)
(0.188179 0.183841 0)
(0.121074 0.227942 0)
(0.0513204 0.279788 0)
(-0.0130389 0.333644 0)
(-0.0577875 0.372211 0)
(-0.0646657 0.355933 0)
(-0.0272839 0.204809 0)
(-0.0178459 -0.149168 0)
(-0.053106 -0.302912 0)
(-0.0736403 -0.354829 0)
(-0.0666387 -0.350164 0)
(-0.0375153 -0.319461 0)
(0.00451819 -0.280082 0)
(0.0522551 -0.240612 0)
(0.100936 -0.204671 0)
(0.147721 -0.173371 0)
(0.191111 -0.146685 0)
(0.230457 -0.124137 0)
(0.265608 -0.105131 0)
(0.296686 -0.0890908 0)
(0.32395 -0.0755091 0)
(0.347716 -0.0639571 0)
(0.368312 -0.0540792 0)
(0.386052 -0.0455816 0)
(0.401227 -0.0382209 0)
(0.414094 -0.0317935 0)
(0.424877 -0.0261272 0)
(0.433766 -0.0210742 0)
(0.440921 -0.016505 0)
(0.446465 -0.0123046 0)
(0.450493 -0.00836764 0)
(0.45307 -0.00459608 0)
(0.454229 -0.000895649 0)
(0.453975 0.00282667 0)
(0.452281 0.00666548 0)
(0.449091 0.0107199 0)
(0.444316 0.0150968 0)
(0.43783 0.0199147 0)
(0.429474 0.0253084 0)
(0.419045 0.031435 0)
(0.406301 0.0384805 0)
(0.390949 0.0466698 0)
(0.372653 0.056278 0)
(0.351025 0.0676443 0)
(0.32564 0.0811894 0)
(0.296051 0.0974327 0)
(0.261828 0.117006 0)
(0.22264 0.140653 0)
(0.178396 0.16918 0)
(0.129501 0.20331 0)
(0.077261 0.243318 0)
(0.0244794 0.288227 0)
(-0.0237588 0.334213 0)
(-0.0594267 0.371729 0)
(-0.071952 0.381182 0)
(-0.0543235 0.328172 0)
(-0.0186423 0.162481 0)
(-0.0114258 -0.120909 0)
(-0.0402704 -0.26991 0)
(-0.0678774 -0.340051 0)
(-0.0778544 -0.357166 0)
(-0.0690863 -0.343812 0)
(-0.0463639 -0.315485 0)
(-0.0148681 -0.281573 0)
(0.0211369 -0.247226 0)
(0.0585399 -0.214975 0)
(0.0952808 -0.185859 0)
(0.130108 -0.160126 0)
(0.162336 -0.137639 0)
(0.19165 -0.118097 0)
(0.217973 -0.101147 0)
(0.241365 -0.0864379 0)
(0.261966 -0.0736465 0)
(0.279953 -0.0624833 0)
(0.295516 -0.0526932 0)
(0.30884 -0.0440519 0)
(0.320099 -0.0363618 0)
(0.329445 -0.029447 0)
(0.337009 -0.0231496 0)
(0.342899 -0.0173251 0)
(0.347194 -0.0118396 0)
(0.34995 -0.00656557 0)
(0.351193 -0.00137975 0)
(0.350922 0.00384051 0)
(0.349111 0.00922006 0)
(0.345701 0.0148893 0)
(0.340605 0.0209876 0)
(0.333707 0.0276679 0)
(0.324858 0.0351007 0)
(0.313877 0.0434804 0)
(0.300555 0.0530313 0)
(0.284653 0.0640151 0)
(0.265913 0.0767391 0)
(0.244066 0.0915632 0)
(0.218861 0.108905 0)
(0.190099 0.129237 0)
(0.157699 0.153067 0)
(0.12181 0.180878 0)
(0.0829656 0.213008 0)
(0.0423256 0.249389 0)
(0.00198602 0.289066 0)
(-0.0346866 0.329361 0)
(-0.0628453 0.364518 0)
(-0.0763831 0.383767 0)
(-0.0694005 0.369271 0)
(-0.0422974 0.295306 0)
(-0.0121818 0.132989 0)
(-0.00747158 -0.100903 0)
(-0.0304504 -0.239611 0)
(-0.0586868 -0.317925 0)
(-0.0770856 -0.35 0)
(-0.0815558 -0.351383 0)
(-0.0736118 -0.334555 0)
(-0.0562694 -0.308272 0)
(-0.0326853 -0.278154 0)
(-0.0055882 -0.247537 0)
(0.022925 -0.218247 0)
(0.0513666 -0.191173 0)
(0.0787467 -0.166649 0)
(0.104451 -0.144704 0)
(0.128132 -0.125202 0)
(0.149628 -0.107931 0)
(0.168897 -0.0926511 0)
(0.185971 -0.0791179 0)
(0.200929 -0.0670966 0)
(0.213869 -0.0563668 0)
(0.224897 -0.046724 0)
(0.234118 -0.0379787 0)
(0.241622 -0.0299545 0)
(0.247489 -0.022486 0)
(0.251777 -0.0154159 0)
(0.254525 -0.00859269 0)
(0.255751 -0.00186756 0)
(0.255449 0.00490811 0)
(0.25359 0.0118859 0)
(0.25012 0.0192233 0)
(0.244961 0.0270873 0)
(0.238013 0.0356582 0)
(0.229151 0.0451331 0)
(0.218235 0.0557308 0)
(0.205105 0.0676957 0)
(0.1896 0.0813011 0)
(0.171563 0.0968518 0)
(0.150869 0.114681 0)
(0.127453 0.135143 0)
(0.101366 0.158582 0)
(0.0728419 0.185288 0)
(0.0424095 0.215394 0)
(0.0110252 0.248702 0)
(-0.0197578 0.284383 0)
(-0.0476239 0.320506 0)
(-0.0694227 0.353331 0)
(-0.0813571 0.376369 0)
(-0.0796332 0.379378 0)
(-0.0620681 0.347805 0)
(-0.0327552 0.263821 0)
(-0.0081269 0.111639 0)
(-0.00513601 -0.0862292 0)
(-0.0235551 -0.213278 0)
(-0.0499603 -0.293667 0)
(-0.0718924 -0.334985 0)
(-0.0843734 -0.347593 0)
(-0.086932 -0.340989 0)
(-0.080863 -0.322665 0)
(-0.0681546 -0.298011 0)
(-0.0508786 -0.270643 0)
(-0.0308539 -0.242842 0)
(-0.00953032 -0.215958 0)
(0.0120084 -0.190724 0)
(0.032994 -0.167478 0)
(0.0529096 -0.146317 0)
(0.0714279 -0.127194 0)
(0.0883598 -0.109981 0)
(0.103613 -0.0945078 0)
(0.11716 -0.0805842 0)
(0.129013 -0.0680151 0)
(0.13921 -0.0566061 0)
(0.147799 -0.046168 0)
(0.154829 -0.0365174 0)
(0.160343 -0.0274769 0)
(0.164376 -0.0188737 0)
(0.16695 -0.0105385 0)
(0.16807 -0.00230281 0)
(0.167725 0.00600243 0)
(0.165886 0.0145499 0)
(0.162506 0.023518 0)
(0.157524 0.033094 0)
(0.150859 0.0434763 0)
(0.142424 0.0548771 0)
(0.132121 0.0675247 0)
(0.119858 0.0816638 0)
(0.105554 0.0975548 0)
(0.0891636 0.115468 0)
(0.0706994 0.135673 0)
(0.0502706 0.158412 0)
(0.028134 0.183858 0)
(0.00476073 0.212043 0)
(-0.0190803 0.242734 0)
(-0.0422297 0.275245 0)
(-0.0630533 0.308155 0)
(-0.0794117 0.338911 0)
(-0.0887711 0.363326 0)
(-0.0885858 0.375046 0)
(-0.0770367 0.365202 0)
(-0.0543408 0.322659 0)
(-0.0259156 0.235572 0)
(-0.00570355 0.0956232 0)
(-0.00373907 -0.0750086 0)
(-0.0187914 -0.190661 0)
(-0.0427176 -0.26965 0)
(-0.0656353 -0.315997 0)
(-0.0826855 -0.33651 0)
(-0.0923756 -0.338203 0)
(-0.0948285 -0.327172 0)
(-0.091055 -0.308225 0)
(-0.0824396 -0.284894 0)
(-0.0703889 -0.259629 0)
(-0.0561525 -0.234053 0)
(-0.0407573 -0.209182 0)
(-0.0250014 -0.185607 0)
(-0.00947872 -0.163634 0)
(0.00538703 -0.143378 0)
(0.0193061 -0.124832 0)
(0.0320903 -0.107913 0)
(0.043626 -0.0924921 0)
(0.0538517 -0.0784133 0)
(0.062741 -0.0655061 0)
(0.0702889 -0.0535934 0)
(0.0765021 -0.0424953 0)
(0.0813911 -0.0320312 0)
(0.0849644 -0.022021 0)
(0.0872251 -0.0122846 0)
(0.0881676 -0.00264079 0)
(0.0877761 0.00709348 0)
(0.0860243 0.017105 0)
(0.0828754 0.0275858 0)
(0.0782838 0.0387345 0)
(0.0721983 0.0507579 0)
(0.0645668 0.0638711 0)
(0.0553435 0.0782969 0)
(0.0444993 0.0942633 0)
(0.0320367 0.111996 0)
(0.0180097 0.131709 0)
(0.00255089 0.15358 0)
(-0.0140937 0.177717 0)
(-0.0315205 0.204108 0)
(-0.0491172 0.23253 0)
(-0.0660095 0.262428 0)
(-0.0810162 0.292741 0)
(-0.0926389 0.321663 0)
(-0.099125 0.346358 0)
(-0.0986751 0.36265 0)
(-0.0898705 0.364806 0)
(-0.0723189 0.345573 0)
(-0.0475617 0.296755 0)
(-0.021104 0.210671 0)
(-0.00423772 0.0831121 0)
(-0.00287281 -0.0660618 0)
(-0.0154705 -0.171119 0)
(-0.036999 -0.246818 0)
(-0.0596827 -0.295263 0)
(-0.0791738 -0.320929 0)
(-0.0935614 -0.328922 0)
(-0.102255 -0.324067 0)
(-0.105544 -0.310465 0)
(-0.104215 -0.291355 0)
(-0.0992457 -0.26916 0)
(-0.0916146 -0.245609 0)
(-0.0822028 -0.221886 0)
(-0.071752 -0.198762 0)
(-0.0608575 -0.176707 0)
(-0.0499792 -0.155978 0)
(-0.0394614 -0.136682 0)
(-0.0295535 -0.118825 0)
(-0.0204309 -0.102342 0)
(-0.012213 -0.0871268 0)
(-0.00497793 -0.0730402 0)
(0.00122433 -0.0599263 0)
(0.00636275 -0.047617 0)
(0.0104173 -0.0359369 0)
(0.0133733 -0.0247058 0)
(0.0152171 -0.0137399 0)
(0.0159332 -0.00285242 0)
(0.0155029 0.00814687 0)
(0.0139037 0.0194516 0)
(0.0111098 0.0312593 0)
(0.00709507 0.0437718 0)
(0.00183605 0.057194 0)
(-0.00468186 0.0717328 0)
(-0.0124563 0.0875933 0)
(-0.0214566 0.104972 0)
(-0.0316091 0.124047 0)
(-0.0427775 0.144959 0)
(-0.0547387 0.167784 0)
(-0.0671543 0.192495 0)
(-0.0795378 0.2189 0)
(-0.0912232 0.246559 0)
(-0.10134 0.274671 0)
(-0.108811 0.301928 0)
(-0.112394 0.326336 0)
(-0.110793 0.345035 0)
(-0.102899 0.354149 0)
(-0.0881755 0.348765 0)
(-0.0671485 0.323161 0)
(-0.0419642 0.271444 0)
(-0.0176755 0.1887 0)
(-0.00331439 0.0729452 0)
(-0.00231211 -0.0586593 0)
(-0.013114 -0.154011 0)
(-0.0325672 -0.225424 0)
(-0.0545026 -0.273985 0)
(-0.0751742 -0.302662 0)
(-0.092588 -0.31516 0)
(-0.105766 -0.315242 0)
(-0.114507 -0.306312 0)
(-0.119128 -0.291228 0)
(-0.120224 -0.272256 0)
(-0.118492 -0.251114 0)
(-0.114629 -0.229056 0)
(-0.109268 -0.206959 0)
(-0.102954 -0.18541 0)
(-0.0961361 -0.164775 0)
(-0.0891732 -0.145257 0)
(-0.0823442 -0.126942 0)
(-0.0758613 -0.109831 0)
(-0.0698827 -0.0938642 0)
(-0.0645245 -0.0789413 0)
(-0.0598712 -0.0649321 0)
(-0.055984 -0.0516863 0)
(-0.0529078 -0.0390399 0)
(-0.0506767 -0.0268192 0)
(-0.049318 -0.014843 0)
(-0.0488546 -0.00292534 0)
(-0.0493066 0.00912421 0)
(-0.0506916 0.0214992 0)
(-0.0530231 0.0343954 0)
(-0.0563086 0.0480094 0)
(-0.0605448 0.0625361 0)
(-0.0657121 0.0781649 0)
(-0.0717657 0.0950737 0)
(-0.0786253 0.113419 0)
(-0.0861611 0.133321 0)
(-0.0941775 0.154844 0)
(-0.102393 0.177965 0)
(-0.110422 0.202529 0)
(-0.117751 0.228194 0)
(-0.123731 0.254356 0)
(-0.12757 0.280048 0)
(-0.12837 0.303836 0)
(-0.125185 0.323696 0)
(-0.117166 0.336918 0)
(-0.103775 0.340069 0)
(-0.0851049 0.32908 0)
(-0.0622142 0.299542 0)
(-0.037427 0.24727 0)
(-0.0151718 0.169157 0)
(-0.00270269 0.0644068 0)
(-0.00193393 -0.0523395 0)
(-0.0114093 -0.138794 0)
(-0.0291495 -0.205423 0)
(-0.0501783 -0.252776 0)
(-0.0713121 -0.28285 0)
(-0.0906396 -0.298347 0)
(-0.107004 -0.302181 0)
(-0.119893 -0.297136 0)
(-0.129282 -0.285666 0)
(-0.13545 -0.269817 0)
(-0.138838 -0.25122 0)
(-0.139951 -0.231122 0)
(-0.139291 -0.210445 0)
(-0.137322 -0.189844 0)
(-0.134449 -0.169762 0)
(-0.131016 -0.150475 0)
(-0.127305 -0.132137 0)
(-0.123543 -0.114803 0)
(-0.119908 -0.0984626 0)
(-0.11654 -0.0830505 0)
(-0.113546 -0.0684655 0)
(-0.111011 -0.0545791 0)
(-0.108996 -0.0412429 0)
(-0.107551 -0.0282944 0)
(-0.106712 -0.0155609 0)
(-0.106507 -0.0028627 0)
(-0.106956 0.00998491 0)
(-0.10807 0.0231691 0)
(-0.109852 0.0368775 0)
(-0.112291 0.0512947 0)
(-0.115361 0.0665989 0)
(-0.119012 0.0829554 0)
(-0.123167 0.100509 0)
(-0.127707 0.119371 0)
(-0.132465 0.139604 0)
(-0.137208 0.161197 0)
(-0.141629 0.184037 0)
(-0.14533 0.207865 0)
(-0.147821 0.232224 0)
(-0.148513 0.256398 0)
(-0.146743 0.279336 0)
(-0.141817 0.299573 0)
(-0.133088 0.315166 0)
(-0.12009 0.323658 0)
(-0.102727 0.322101 0)
(-0.0815081 0.307204 0)
(-0.0577579 0.275618 0)
(-0.0337514 0.224398 0)
(-0.0132921 0.151596 0)
(-0.00227659 0.0570468 0)
(-0.00166967 -0.0467993 0)
(-0.0101536 -0.125041 0)
(-0.0265112 -0.186659 0)
(-0.0466436 -0.231921 0)
(-0.0678477 -0.262196 0)
(-0.0883631 -0.279474 0)
(-0.106978 -0.286009 0)
(-0.123 -0.284056 0)
(-0.136165 -0.275691 0)
(-0.146506 -0.262717 0)
(-0.154249 -0.246627 0)
(-0.159718 -0.228614 0)
(-0.163282 -0.209596 0)
(-0.165309 -0.190258 0)
(-0.166141 -0.171084 0)
(-0.166087 -0.152403 0)
(-0.16541 -0.134417 0)
(-0.164334 -0.117229 0)
(-0.163044 -0.100867 0)
(-0.161688 -0.085302 0)
(-0.160388 -0.0704601 0)
(-0.159239 -0.0562359 0)
(-0.158315 -0.0424993 0)
(-0.157675 -0.0291028 0)
(-0.157362 -0.0158861 0)
(-0.157404 -0.00268032 0)
(-0.157821 0.0106886 0)
(-0.158616 0.0243964 0)
(-0.159782 0.0386173 0)
(-0.161293 0.0535192 0)
(-0.163103 0.0692586 0)
(-0.165141 0.085973 0)
(-0.167304 0.103771 0)
(-0.169451 0.12272 0)
(-0.17139 0.142826 0)
(-0.172877 0.164014 0)
(-0.173603 0.186095 0)
(-0.173192 0.208731 0)
(-0.171203 0.23139 0)
(-0.167142 0.253295 0)
(-0.160493 0.273372 0)
(-0.150767 0.290202 0)
(-0.137587 0.301991 0)
(-0.120799 0.306576 0)
(-0.100623 0.301486 0)
(-0.0778243 0.284099 0)
(-0.0538283 0.251896 0)
(-0.0307529 0.202813 0)
(-0.011843 0.135651 0)
(-0.0019663 0.0505706 0)
(-0.0014797 -0.0418328 0)
(-0.00921438 -0.112423 0)
(-0.0244672 -0.168947 0)
(-0.0437862 -0.211526 0)
(-0.06486 -0.241122 0)
(-0.0860965 -0.259215 0)
(-0.106299 -0.267556 0)
(-0.124678 -0.267964 0)
(-0.14081 -0.262174 0)
(-0.154549 -0.251746 0)
(-0.165941 -0.238019 0)
(-0.175158 -0.222097 0)
(-0.182441 -0.204861 0)
(-0.188057 -0.18699 0)
(-0.192281 -0.168987 0)
(-0.195369 -0.151209 0)
(-0.197556 -0.133891 0)
(-0.199049 -0.117171 0)
(-0.200024 -0.101109 0)
(-0.200631 -0.0857065 0)
(-0.200993 -0.0709149 0)
(-0.201211 -0.0566516 0)
(-0.201364 -0.0428061 0)
(-0.201516 -0.0292478 0)
(-0.201709 -0.0158317 0)
(-0.201975 -0.00240313 0)
(-0.202328 0.0111977 0)
(-0.202766 0.0251315 0)
(-0.203272 0.0395552 0)
(-0.203807 0.0546167 0)
(-0.204312 0.0704485 0)
(-0.2047 0.0871587 0)
(-0.204853 0.104821 0)
(-0.204618 0.12346 0)
(-0.203798 0.143035 0)
(-0.202152 0.163416 0)
(-0.199391 0.184359 0)
(-0.195181 0.205473 0)
(-0.189152 0.226185 0)
(-0.180919 0.245701 0)
(-0.170113 0.262975 0)
(-0.156438 0.276681 0)
(-0.139742 0.285211 0)
(-0.120112 0.286702 0)
(-0.0979872 0.279118 0)
(-0.0742738 0.260393 0)
(-0.0503985 0.228643 0)
(-0.0282835 0.18243 0)
(-0.0106999 0.121034 0)
(-0.00173198 0.0447777 0)
(-0.00134009 -0.0372957 0)
(-0.00850299 -0.100687 0)
(-0.0228771 -0.152107 0)
(-0.0414898 -0.191607 0)
(-0.0623423 -0.219876 0)
(-0.0840037 -0.238029 0)
(-0.105325 -0.247434 0)
(-0.125476 -0.249554 0)
(-0.143931 -0.24583 0)
(-0.160414 -0.237595 0)
(-0.174834 -0.226026 0)
(-0.187231 -0.212122 0)
(-0.197733 -0.196704 0)
(-0.206516 -0.180422 0)
(-0.213779 -0.163776 0)
(-0.219725 -0.14713 0)
(-0.22455 -0.130739 0)
(-0.228435 -0.114762 0)
(-0.23154 -0.0992863 0)
(-0.234005 -0.0843338 0)
(-0.23595 -0.0698807 0)
(-0.237473 -0.0558647 0)
(-0.238655 -0.0421948 0)
(-0.239557 -0.028758 0)
(-0.240223 -0.0154262 0)
(-0.24068 -0.0020613 0)
(-0.24094 0.01148 0)
(-0.240993 0.0253408 0)
(-0.240815 0.0396588 0)
(-0.240359 0.0545604 0)
(-0.239556 0.0701529 0)
(-0.23831 0.0865162 0)
(-0.236497 0.103692 0)
(-0.233962 0.121668 0)
(-0.230516 0.140364 0)
(-0.225935 0.159612 0)
(-0.219964 0.179131 0)
(-0.212326 0.1985 0)
(-0.202732 0.217136 0)
(-0.190904 0.234265 0)
(-0.176618 0.248901 0)
(-0.159742 0.25984 0)
(-0.140307 0.265672 0)
(-0.11858 0.264824 0)
(-0.095141 0.255636 0)
(-0.0709622 0.236493 0)
(-0.0474179 0.205993 0)
(-0.0262313 0.163138 0)
(-0.00978107 0.107519 0)
(-0.00154995 0.0395259 0)
(-0.00123578 -0.0330841 0)
(-0.00795884 -0.0896394 0)
(-0.0216352 -0.135984 0)
(-0.0396504 -0.172134 0)
(-0.0602523 -0.198598 0)
(-0.0821526 -0.216226 0)
(-0.104264 -0.226088 0)
(-0.125747 -0.229364 0)
(-0.146017 -0.227242 0)
(-0.164704 -0.22085 0)
(-0.181613 -0.211208 0)
(-0.19668 -0.199203 0)
(-0.209933 -0.185581 0)
(-0.221464 -0.170949 0)
(-0.231403 -0.155782 0)
(-0.239898 -0.14044 0)
(-0.247103 -0.125183 0)
(-0.253166 -0.110183 0)
(-0.258225 -0.0955406 0)
(-0.262408 -0.0812973 0)
(-0.265821 -0.0674472 0)
(-0.268559 -0.0539467 0)
(-0.270695 -0.0407227 0)
(-0.272289 -0.0276802 0)
(-0.27338 -0.0147084 0)
(-0.273993 -0.00168659 0)
(-0.274133 0.0115106 0)
(-0.273786 0.0250076 0)
(-0.272923 0.038922 0)
(-0.271489 0.0533582 0)
(-0.269411 0.0684001 0)
(-0.26659 0.0841013 0)
(-0.262904 0.100475 0)
(-0.258204 0.117481 0)
(-0.252318 0.135011 0)
(-0.24505 0.15287 0)
(-0.23619 0.170756 0)
(-0.225519 0.188247 0)
(-0.212833 0.204769 0)
(-0.197961 0.219594 0)
(-0.180801 0.231819 0)
(-0.161364 0.240376 0)
(-0.139824 0.244052 0)
(-0.116574 0.241535 0)
(-0.092282 0.231487 0)
(-0.0679365 0.212654 0)
(-0.0448343 0.183994 0)
(-0.0245134 0.144822 0)
(-0.00903203 0.0949249 0)
(-0.00140552 0.0347106 0)
(-0.00115689 -0.0291219 0)
(-0.00753964 -0.0791307 0)
(-0.0206627 -0.120443 0)
(-0.0381811 -0.153061 0)
(-0.0585355 -0.177365 0)
(-0.0805599 -0.194011 0)
(-0.10323 -0.203841 0)
(-0.125717 -0.207805 0)
(-0.147401 -0.206878 0)
(-0.167851 -0.202004 0)
(-0.186792 -0.194055 0)
(-0.204075 -0.183807 0)
(-0.21965 -0.171924 0)
(-0.233535 -0.158955 0)
(-0.245794 -0.145344 0)
(-0.256524 -0.131433 0)
(-0.265834 -0.117474 0)
(-0.273841 -0.103642 0)
(-0.280657 -0.0900457 0)
(-0.286391 -0.0767392 0)
(-0.291136 -0.0637305 0)
(-0.294975 -0.0509914 0)
(-0.297976 -0.0384651 0)
(-0.30019 -0.0260733 0)
(-0.301654 -0.0137224 0)
(-0.302386 -0.00130924 0)
(-0.302386 0.0112734 0)
(-0.301637 0.0241311 0)
(-0.300104 0.0373617 0)
(-0.29773 0.0510489 0)
(-0.294441 0.0652548 0)
(-0.290141 0.0800109 0)
(-0.284713 0.0953079 0)
(-0.278022 0.111085 0)
(-0.269919 0.127214 0)
(-0.260242 0.143488 0)
(-0.248828 0.159604 0)
(-0.235522 0.175148 0)
(-0.220199 0.189583 0)
(-0.202784 0.202238 0)
(-0.183284 0.212308 0)
(-0.161824 0.218866 0)
(-0.138686 0.220883 0)
(-0.11435 0.217279 0)
(-0.0895343 0.206984 0)
(-0.0652145 0.18903 0)
(-0.0426018 0.162647 0)
(-0.0230694 0.127367 0)
(-0.0084156 0.0831039 0)
(-0.00128925 0.0302519 0)
(-0.00109675 -0.0253518 0)
(-0.00721531 -0.0690446 0)
(-0.0199005 -0.105371 0)
(-0.037011 -0.134331 0)
(-0.0571382 -0.156212 0)
(-0.0792172 -0.171524 0)
(-0.102284 -0.180932 0)
(-0.125527 -0.185196 0)
(-0.148311 -0.185112 0)
(-0.170162 -0.181464 0)
(-0.190748 -0.174988 0)
(-0.209856 -0.166348 0)
(-0.227369 -0.156125 0)
(-0.24324 -0.144808 0)
(-0.257481 -0.132795 0)
(-0.270136 -0.120403 0)
(-0.281277 -0.107868 0)
(-0.290985 -0.0953616 0)
(-0.299349 -0.0829923 0)
(-0.306453 -0.0708203 0)
(-0.312379 -0.058864 0)
(-0.317195 -0.0471074 0)
(-0.320961 -0.0355078 0)
(-0.323719 -0.0240024 0)
(-0.3255 -0.0125137 0)
(-0.326316 -0.000955432 0)
(-0.326164 0.010762 0)
(-0.325022 0.0227259 0)
(-0.322853 0.0350158 0)
(-0.3196 0.0476965 0)
(-0.31519 0.0608113 0)
(-0.309531 0.0743737 0)
(-0.30252 0.0883583 0)
(-0.294038 0.10269 0)
(-0.283962 0.117234 0)
(-0.272168 0.131781 0)
(-0.258538 0.14604 0)
(-0.242981 0.159621 0)
(-0.225444 0.172035 0)
(-0.205936 0.182682 0)
(-0.184554 0.190861 0)
(-0.161514 0.195778 0)
(-0.137178 0.196577 0)
(-0.112086 0.19238 0)
(-0.0869775 0.182338 0)
(-0.0628011 0.165708 0)
(-0.0406831 0.141923 0)
(-0.0218555 0.110668 0)
(-0.00790615 0.0719343 0)
(-0.00119489 0.0260869 0)
(-0.00105074 -0.0217303 0)
(-0.00696423 -0.0592899 0)
(-0.0193042 -0.0906771 0)
(-0.0360839 -0.11589 0)
(-0.0560117 -0.135152 0)
(-0.078105 -0.148858 0)
(-0.101453 -0.157532 0)
(-0.125265 -0.16178 0)
(-0.148901 -0.162245 0)
(-0.171859 -0.159569 0)
(-0.193766 -0.154364 0)
(-0.214358 -0.14719 0)
(-0.233465 -0.138543 0)
(-0.25099 -0.128846 0)
(-0.266894 -0.11845 0)
(-0.281181 -0.107639 0)
(-0.293882 -0.0966265 0)
(-0.305051 -0.0855712 0)
(-0.314749 -0.0745787 0)
(-0.323041 -0.0637101 0)
(-0.32999 -0.0529896 0)
(-0.335653 -0.0424106 0)
(-0.340079 -0.0319422 0)
(-0.343302 -0.0215348 0)
(-0.345345 -0.0111261 0)
(-0.346216 -0.000645606 0)
(-0.345907 0.00997983 0)
(-0.344395 0.0208208 0)
(-0.341639 0.0319399 0)
(-0.337584 0.0433858 0)
(-0.33216 0.0551865 0)
(-0.325286 0.067342 0)
(-0.316869 0.0798164 0)
(-0.306813 0.0925291 0)
(-0.295019 0.105345 0)
(-0.2814 0.118066 0)
(-0.265886 0.13042 0)
(-0.24844 0.142056 0)
(-0.229074 0.15254 0)
(-0.207868 0.16135 0)
(-0.184993 0.167887 0)
(-0.160734 0.171489 0)
(-0.135514 0.171453 0)
(-0.109909 0.167074 0)
(-0.0846646 0.157687 0)
(-0.0606953 0.142724 0)
(-0.0390494 0.121772 0)
(-0.0208398 0.0946236 0)
(-0.00748576 0.0613119 0)
(-0.00111818 0.0221642 0)
(-0.00101561 -0.0182235 0)
(-0.0067707 -0.0497938 0)
(-0.0188407 -0.0762824 0)
(-0.035356 -0.0976889 0)
(-0.0551148 -0.114185 0)
(-0.0772006 -0.126077 0)
(-0.100747 -0.133772 0)
(-0.124986 -0.137749 0)
(-0.149276 -0.138519 0)
(-0.1731 -0.1366 0)
(-0.196054 -0.132491 0)
(-0.217837 -0.126651 0)
(-0.238235 -0.119495 0)
(-0.257112 -0.11138 0)
(-0.274387 -0.102606 0)
(-0.290026 -0.0934162 0)
(-0.304031 -0.0839996 0)
(-0.316425 -0.0744967 0)
(-0.327246 -0.0650041 0)
(-0.336541 -0.0555806 0)
(-0.344356 -0.0462525 0)
(-0.350735 -0.0370195 0)
(-0.355716 -0.0278601 0)
(-0.359326 -0.0187366 0)
(-0.361581 -0.00959966 0)
(-0.362484 -0.000393375 0)
(-0.362022 0.00894039 0)
(-0.36017 0.0184571 0)
(-0.356888 0.0282048 0)
(-0.352123 0.0382185 0)
(-0.345811 0.0485145 0)
(-0.337878 0.059084 0)
(-0.328247 0.0698863 0)
(-0.31684 0.0808415 0)
(-0.303587 0.091823 0)
(-0.288433 0.10265 0)
(-0.27135 0.113081 0)
(-0.25235 0.122811 0)
(-0.2315 0.131464 0)
(-0.20894 0.138602 0)
(-0.184899 0.143727 0)
(-0.159716 0.146298 0)
(-0.133853 0.14575 0)
(-0.107912 0.141526 0)
(-0.0826323 0.133112 0)
(-0.0588947 0.120082 0)
(-0.0376788 0.102135 0)
(-0.0199996 0.079138 0)
(-0.00714182 0.0511457 0)
(-0.00105618 0.0184405 0)
(-0.000989053 -0.0148045 0)
(-0.00662327 -0.0404977 0)
(-0.0184853 -0.0621228 0)
(-0.0347933 -0.0796809 0)
(-0.0544139 -0.0933025 0)
(-0.0764821 -0.10322 0)
(-0.100168 -0.109747 0)
(-0.124723 -0.113251 0)
(-0.14951 -0.114131 0)
(-0.174 -0.112792 0)
(-0.197768 -0.109629 0)
(-0.220485 -0.105011 0)
(-0.241908 -0.0992692 0)
(-0.261863 -0.092696 0)
(-0.280239 -0.0855375 0)
(-0.296972 -0.0779955 0)
(-0.312036 -0.070229 0)
(-0.325429 -0.0623573 0)
(-0.33717 -0.0544641 0)
(-0.347286 -0.046602 0)
(-0.355811 -0.0387965 0)
(-0.362778 -0.0310512 0)
(-0.368212 -0.0233518 0)
(-0.372135 -0.0156702 0)
(-0.374556 -0.00796907 0)
(-0.375472 -0.000205171 0)
(-0.374869 0.00766617 0)
(-0.372719 0.0156872 0)
(-0.368984 0.0238934 0)
(-0.363613 0.032309 0)
(-0.356546 0.040942 0)
(-0.347722 0.049779 0)
(-0.337075 0.0587796 0)
(-0.324546 0.0678703 0)
(-0.310089 0.0769392 0)
(-0.293679 0.0858302 0)
(-0.275325 0.0943387 0)
(-0.25508 0.102208 0)
(-0.233056 0.109131 0)
(-0.20944 0.114748 0)
(-0.184507 0.118662 0)
(-0.158634 0.120441 0)
(-0.132315 0.119646 0)
(-0.106161 0.115848 0)
(-0.0809062 0.108658 0)
(-0.0573968 0.0977611 0)
(-0.0365554 0.082943 0)
(-0.0193184 0.06412 0)
(-0.00686543 0.0413538 0)
(-0.00100684 0.0148782 0)
(-0.000969428 -0.0114518 0)
(-0.0065137 -0.0313533 0)
(-0.0182198 -0.0481435 0)
(-0.0343703 -0.0618243 0)
(-0.0538825 -0.0724918 0)
(-0.0759303 -0.0803172 0)
(-0.0997121 -0.0855314 0)
(-0.124497 -0.0884075 0)
(-0.14965 -0.0892432 0)
(-0.174638 -0.0883432 0)
(-0.199022 -0.0860062 0)
(-0.22245 -0.0825132 0)
(-0.244657 -0.0781196 0)
(-0.265443 -0.0730506 0)
(-0.284673 -0.0674982 0)
(-0.302257 -0.0616207 0)
(-0.318148 -0.0555441 0)
(-0.332325 -0.0493639 0)
(-0.344789 -0.0431479 0)
(-0.355553 -0.0369398 0)
(-0.364638 -0.0307619 0)
(-0.372066 -0.0246195 0)
(-0.377856 -0.0185034 0)
(-0.382021 -0.0123938 0)
(-0.384566 -0.00626342 0)
(-0.385485 -8.04374e-05 0)
(-0.384759 0.00618797 0)
(-0.382362 0.0125725 0)
(-0.378254 0.0190984 0)
(-0.372388 0.0257814 0)
(-0.364711 0.0326244 0)
(-0.355168 0.0396129 0)
(-0.343707 0.046711 0)
(-0.330284 0.0538567 0)
(-0.314874 0.0609578 0)
(-0.297478 0.0678879 0)
(-0.278133 0.0744837 0)
(-0.256926 0.0805427 0)
(-0.234004 0.0858243 0)
(-0.209591 0.090052 0)
(-0.183996 0.0929201 0)
(-0.157624 0.094104 0)
(-0.130989 0.0932737 0)
(-0.104708 0.0901124 0)
(-0.0795054 0.0843374 0)
(-0.0561999 0.0757225 0)
(-0.0356677 0.0641207 0)
(-0.0187847 0.0494812 0)
(-0.00665036 0.031861 0)
(-0.000968752 0.0114437 0)
(-0.000955587 -0.00814737 0)
(-0.00643608 -0.0223201 0)
(-0.018031 -0.0342974 0)
(-0.0340681 -0.0440815 0)
(-0.0535004 -0.0517384 0)
(-0.0755298 -0.0573853 0)
(-0.0993756 -0.0611811 0)
(-0.124319 -0.0633141 0)
(-0.149731 -0.0639904 0)
(-0.175073 -0.0634223 0)
(-0.199897 -0.0618185 0)
(-0.223838 -0.0593768 0)
(-0.246612 -0.0562776 0)
(-0.268004 -0.0526811 0)
(-0.287857 -0.0487242 0)
(-0.306066 -0.044521 0)
(-0.322566 -0.0401624 0)
(-0.33732 -0.0357179 0)
(-0.350318 -0.0312376 0)
(-0.361561 -0.0267539 0)
(-0.37106 -0.0222843 0)
(-0.378829 -0.0178337 0)
(-0.384881 -0.0133968 0)
(-0.389223 -0.00896046 0)
(-0.391857 -0.00450618 0)
(-0.392771 -1.23299e-05 0)
(-0.391949 0.00454353 0)
(-0.38936 0.0091821 0)
(-0.384967 0.0139199 0)
(-0.378725 0.0187668 0)
(-0.370586 0.0237227 0)
(-0.360502 0.0287752 0)
(-0.348429 0.0338962 0)
(-0.334339 0.0390388 0)
(-0.318222 0.0441344 0)
(-0.300097 0.0490902 0)
(-0.280025 0.0537874 0)
(-0.258116 0.0580801 0)
(-0.234546 0.0617959 0)
(-0.209563 0.0647387 0)
(-0.183501 0.066693 0)
(-0.156785 0.067432 0)
(-0.129941 0.0667269 0)
(-0.103589 0.0643603 0)
(-0.0784436 0.0601402 0)
(-0.0553027 0.0539153 0)
(-0.0350079 0.04559 0)
(-0.0183904 0.0351355 0)
(-0.00649229 0.0225969 0)
(-0.000940919 0.0081062 0)
(-0.000946755 -0.00487572 0)
(-0.00638641 -0.0133626 0)
(-0.0179099 -0.0205428 0)
(-0.0338735 -0.0264178 0)
(-0.0532533 -0.0310263 0)
(-0.0752691 -0.0344368 0)
(-0.099154 -0.0367421 0)
(-0.124198 -0.0380528 0)
(-0.149774 -0.0384898 0)
(-0.175343 -0.0381785 0)
(-0.200451 -0.0372423 0)
(-0.224724 -0.0357986 0)
(-0.247867 -0.0339549 0)
(-0.269653 -0.0318069 0)
(-0.289914 -0.0294368 0)
(-0.308532 -0.0269131 0)
(-0.325432 -0.024291 0)
(-0.340567 -0.0216126 0)
(-0.353916 -0.0189085 0)
(-0.365474 -0.0161987 0)
(-0.375247 -0.0134944 0)
(-0.383241 -0.0107988 0)
(-0.389465 -0.00810939 0)
(-0.393923 -0.00541866 0)
(-0.396612 -0.00271591 0)
(-0.397522 1.13939e-05 0)
(-0.396632 0.00277629 0)
(-0.393912 0.00559068 0)
(-0.389326 0.00846392 0)
(-0.382832 0.0114012 0)
(-0.374383 0.0144018 0)
(-0.363937 0.0174573 0)
(-0.351458 0.0205498 0)
(-0.336925 0.0236503 0)
(-0.320339 0.0267164 0)
(-0.301734 0.0296916 0)
(-0.281185 0.0325037 0)
(-0.258819 0.0350646 0)
(-0.234829 0.0372709 0)
(-0.209479 0.0390055 0)
(-0.18312 0.0401403 0)
(-0.156189 0.0405411 0)
(-0.129217 0.0400737 0)
(-0.102829 0.0386111 0)
(-0.0777306 0.0360418 0)
(-0.0547048 0.0322792 0)
(-0.0345706 0.0272695 0)
(-0.0181303 0.0209982 0)
(-0.00638836 0.0134942 0)
(-0.000922693 0.00483681 0)
(-0.000942453 -0.00162312 0)
(-0.00636217 -0.00444927 0)
(-0.0178507 -0.00684159 0)
(-0.0337782 -0.00880063 0)
(-0.053132 -0.0103391 0)
(-0.0751406 -0.0114796 0)
(-0.099044 -0.0122526 0)
(-0.124136 -0.0126946 0)
(-0.149793 -0.0128455 0)
(-0.175473 -0.0127466 0)
(-0.200719 -0.0124389 0)
(-0.225155 -0.0119612 0)
(-0.24848 -0.0113494 0)
(-0.270461 -0.010635 0)
(-0.290923 -0.00984571 0)