/*--------------------------------*- C++ -*----------------------------------*\
  =========                 |
  \\      /  F ield         | OpenFOAM: The Open Source CFD Toolbox
   \\    /   O peration     | Website:  https://openfoam.org
    \\  /    A nd           | Version:  7
     \\/     M anipulation  |
\*---------------------------------------------------------------------------*/
FoamFile
{
    version     2.0;
    format      ascii;
    class       volScalarField;
    location    "0.0148";
    object      p;
}
// * * * * * * * * * * * * * * * * * * * * * * * * * * * * * * * * * * * * * //

dimensions      [0 2 -2 0 0 0 0];

internalField   nonuniform List<scalar> 
2500
(
-3.08437e-05
-6.50932
-9.28978
-10.4796
-11.1382
-11.5375
-11.7943
-11.9724
-12.104
-12.2056
-12.2866
-12.3528
-12.4079
-12.4548
-12.4952
-12.5304
-12.5616
-12.5895
-12.6148
-12.6379
-12.6592
-12.6791
-12.6979
-12.7157
-12.7328
-12.7494
-12.7656
-12.7816
-12.7977
-12.8139
-12.8305
-12.8477
-12.8659
-12.8853
-12.9065
-12.9301
-12.957
-12.9882
-13.0254
-13.0709
-13.1281
-13.2025
-13.3029
-13.4451
-13.6606
-14.0108
-14.6035
-15.6986
-18.3626
-24.747
-4.95812
-7.67544
-9.17855
-10.1341
-10.7968
-11.2512
-11.5671
-11.7947
-11.9646
-12.0953
-12.1984
-12.2817
-12.3504
-12.4079
-12.4569
-12.4992
-12.5362
-12.5691
-12.5985
-12.6253
-12.6499
-12.6727
-12.6941
-12.7145
-12.734
-12.7531
-12.7718
-12.7905
-12.8094
-12.8287
-12.8488
-12.87
-12.8928
-12.9176
-12.9452
-12.9765
-13.0127
-13.0554
-13.107
-13.1708
-13.2515
-13.3566
-13.4971
-13.6908
-13.9672
-14.3745
-14.9786
-15.8621
-17.2793
-19.8783
-7.93219
-8.76081
-9.55826
-10.2355
-10.7715
-11.1769
-11.4816
-11.7133
-11.8924
-12.0332
-12.1459
-12.2377
-12.3135
-12.3772
-12.4314
-12.4782
-12.519
-12.5551
-12.5875
-12.6168
-12.6436
-12.6685
-12.6919
-12.7141
-12.7355
-12.7564
-12.777
-12.7977
-12.8187
-12.8403
-12.863
-12.8871
-12.9131
-12.9417
-12.9736
-13.01
-13.0521
-13.1018
-13.1615
-13.2347
-13.3261
-13.4426
-13.594
-13.7939
-14.0622
-14.4255
-14.9127
-15.5363
-16.2791
-17.0419
-9.44665
-9.65485
-10.0698
-10.5112
-10.9005
-11.2237
-11.4859
-11.6972
-11.8677
-12.006
-12.1193
-12.2131
-12.2916
-12.3581
-12.415
-12.4643
-12.5075
-12.5457
-12.58
-12.6111
-12.6395
-12.666
-12.6908
-12.7144
-12.7372
-12.7595
-12.7816
-12.8038
-12.8264
-12.8498
-12.8744
-12.9006
-12.929
-12.9602
-12.995
-13.0345
-13.08
-13.1333
-13.1966
-13.2729
-13.3661
-13.4817
-13.6262
-13.8084
-14.0381
-14.3251
-14.6756
-15.0773
-15.4565
-15.6328
-10.3369
-10.3296
-10.5286
-10.8017
-11.0729
-11.3197
-11.5346
-11.7176
-11.8718
-12.0012
-12.11
-12.2019
-12.2801
-12.3471
-12.4049
-12.4554
-12.4998
-12.5394
-12.5749
-12.6071
-12.6368
-12.6643
-12.6903
-12.715
-12.7389
-12.7623
-12.7856
-12.809
-12.8329
-12.8576
-12.8837
-12.9114
-12.9415
-12.9744
-13.011
-13.0523
-13.0994
-13.1539
-13.2177
-13.2932
-13.3832
-13.4913
-13.6216
-13.7783
-13.9648
-14.1812
-14.4219
-14.6664
-14.8427
-14.8217
-10.9073
-10.8249
-10.908
-11.0715
-11.2558
-11.4389
-11.6097
-11.7629
-11.8974
-12.0142
-12.1152
-12.2024
-12.2778
-12.3434
-12.4007
-12.4511
-12.4958
-12.5358
-12.5719
-12.6048
-12.6352
-12.6635
-12.6902
-12.7157
-12.7404
-12.7646
-12.7886
-12.8129
-12.8377
-12.8634
-12.8903
-12.919
-12.95
-12.9838
-13.0211
-13.0628
-13.11
-13.1637
-13.2256
-13.2972
-13.3805
-13.4776
-13.5904
-13.7201
-13.8661
-14.0243
-14.185
-14.3283
-14.3978
-14.3124
-11.2918
-11.1917
-11.2157
-11.3102
-11.433
-11.5661
-11.6986
-11.8236
-11.938
-12.0406
-12.1319
-12.2124
-12.2835
-12.3461
-12.4016
-12.451
-12.4951
-12.5348
-12.5709
-12.604
-12.6346
-12.6632
-12.6903
-12.7162
-12.7413
-12.766
-12.7905
-12.8153
-12.8405
-12.8667
-12.8941
-12.9231
-12.9543
-12.9881
-13.0252
-13.0663
-13.1121
-13.1635
-13.2217
-13.2876
-13.3624
-13.4469
-13.5415
-13.6459
-13.7573
-13.8702
-13.975
-14.0554
-14.0721
-13.9746
-11.5659
-11.469
-11.4635
-11.5153
-11.5954
-11.6907
-11.7918
-11.8921
-11.9875
-12.0759
-12.1567
-12.2297
-12.2953
-12.3541
-12.4068
-12.4543
-12.4971
-12.536
-12.5715
-12.6043
-12.6347
-12.6633
-12.6904
-12.7164
-12.7416
-12.7664
-12.7911
-12.8159
-12.8413
-12.8675
-12.8948
-12.9237
-12.9545
-12.9877
-13.0238
-13.0633
-13.1068
-13.1549
-13.2083
-13.2675
-13.3331
-13.405
-13.4829
-13.5651
-13.6486
-13.7278
-13.7944
-13.8368
-13.828
-13.7367
-11.7711
-11.6836
-11.6637
-11.6892
-11.7402
-11.8075
-11.8837
-11.9631
-12.0416
-12.1167
-12.1871
-12.2521
-12.3117
-12.366
-12.4154
-12.4604
-12.5013
-12.5389
-12.5734
-12.6054
-12.6353
-12.6635
-12.6903
-12.7161
-12.7411
-12.7658
-12.7903
-12.8149
-12.84
-12.8659
-12.8927
-12.921
-12.9509
-12.983
-13.0174
-13.0547
-13.0953
-13.1395
-13.1876
-13.2399
-13.2964
-13.3567
-13.4198
-13.4838
-13.5456
-13.6003
-13.6414
-13.6609
-13.6404
-13.5598
-11.9307
-11.8532
-11.8269
-11.8363
-11.8675
-11.9143
-11.9712
-12.0334
-12.0972
-12.1602
-12.2208
-12.2781
-12.3315
-12.381
-12.4267
-12.4687
-12.5074
-12.5432
-12.5764
-12.6073
-12.6364
-12.6638
-12.69
-12.7153
-12.7399
-12.764
-12.7881
-12.8122
-12.8368
-12.8619
-12.888
-12.9153
-12.944
-12.9744
-13.0068
-13.0416
-13.0788
-13.1188
-13.1617
-13.2073
-13.2554
-13.3053
-13.356
-13.4054
-13.4507
-13.4878
-13.5121
-13.5179
-13.4928
-13.4228
-12.0581
-11.9899
-11.9613
-11.9609
-11.9787
-12.0107
-12.0528
-12.101
-12.1525
-12.2049
-12.2565
-12.3063
-12.3537
-12.3983
-12.44
-12.4788
-12.515
-12.5487
-12.5802
-12.6098
-12.6377
-12.6642
-12.6895
-12.714
-12.7379
-12.7613
-12.7846
-12.808
-12.8317
-12.856
-12.8809
-12.9069
-12.9341
-12.9626
-12.9928
-13.0248
-13.0586
-13.0944
-13.1321
-13.1715
-13.2122
-13.2533
-13.2936
-13.3315
-13.3644
-13.3892
-13.4024
-13.4003
-13.374
-13.3135
-12.1618
-12.1019
-12.0732
-12.067
-12.0759
-12.0971
-12.1278
-12.165
-12.2062
-12.2493
-12.2929
-12.3358
-12.3774
-12.4171
-12.4548
-12.4904
-12.5238
-12.5552
-12.5848
-12.6128
-12.6393
-12.6646
-12.6888
-12.7123
-12.7352
-12.7577
-12.7801
-12.8025
-12.8252
-12.8482
-12.8719
-12.8964
-12.9218
-12.9483
-12.9761
-13.0052
-13.0357
-13.0675
-13.1005
-13.1343
-13.1684
-13.2021
-13.2341
-13.263
-13.2868
-13.3028
-13.3088
-13.3023
-13.2767
-13.2243
-12.2476
-12.195
-12.1674
-12.1579
-12.1608
-12.1743
-12.1964
-12.2248
-12.2575
-12.2928
-12.3293
-12.366
-12.4021
-12.4372
-12.4709
-12.5031
-12.5336
-12.5626
-12.5901
-12.6163
-12.6412
-12.665
-12.688
-12.7103
-12.7321
-12.7535
-12.7747
-12.7959
-12.8173
-12.8391
-12.8613
-12.8841
-12.9077
-12.9321
-12.9575
-12.9838
-13.011
-13.039
-13.0677
-13.0966
-13.1251
-13.1526
-13.1781
-13.2001
-13.2171
-13.2271
-13.2285
-13.2196
-13.1955
-13.1502
-12.3194
-12.2732
-12.2475
-12.2363
-12.2353
-12.2433
-12.259
-12.2805
-12.3062
-12.3348
-12.3651
-12.3962
-12.4273
-12.458
-12.4878
-12.5166
-12.5443
-12.5708
-12.596
-12.6202
-12.6434
-12.6657
-12.6872
-12.7081
-12.7286
-12.7487
-12.7686
-12.7885
-12.8086
-12.8288
-12.8494
-12.8705
-12.8922
-12.9145
-12.9374
-12.961
-12.9852
-13.0098
-13.0346
-13.0592
-13.0831
-13.1056
-13.1257
-13.1425
-13.1546
-13.1605
-13.159
-13.1491
-13.127
-13.0877
-12.3802
-12.3398
-12.3161
-12.3044
-12.301
-12.3052
-12.3159
-12.332
-12.3521
-12.3751
-12.4001
-12.4262
-12.4527
-12.4793
-12.5055
-12.531
-12.5557
-12.5796
-12.6026
-12.6247
-12.646
-12.6666
-12.6865
-12.7059
-12.7249
-12.7436
-12.7621
-12.7806
-12.7991
-12.8178
-12.8367
-12.856
-12.8758
-12.8959
-12.9166
-12.9376
-12.9589
-12.9804
-13.0018
-13.0227
-13.0427
-13.0611
-13.0771
-13.0899
-13.0983
-13.1015
-13.0983
-13.0883
-13.0683
-13.0343
-12.4322
-12.397
-12.3757
-12.364
-12.3592
-12.3607
-12.3679
-12.3797
-12.3953
-12.4137
-12.434
-12.4557
-12.4782
-12.5009
-12.5236
-12.5459
-12.5678
-12.5891
-12.6097
-12.6297
-12.649
-12.6678
-12.686
-12.7038
-12.7212
-12.7383
-12.7553
-12.7722
-12.7892
-12.8062
-12.8235
-12.841
-12.8588
-12.8769
-12.8953
-12.9139
-12.9326
-12.9513
-12.9697
-12.9875
-13.0041
-13.0192
-13.0319
-13.0417
-13.0476
-13.0489
-13.0449
-13.0352
-13.0174
-12.9882
-12.4771
-12.4467
-12.4277
-12.4167
-12.4111
-12.4109
-12.4154
-12.424
-12.4359
-12.4504
-12.4668
-12.4847
-12.5034
-12.5226
-12.542
-12.5614
-12.5805
-12.5992
-12.6174
-12.6352
-12.6525
-12.6694
-12.6858
-12.7018
-12.7176
-12.7331
-12.7485
-12.7638
-12.7791
-12.7945
-12.81
-12.8256
-12.8415
-12.8576
-12.8738
-12.8902
-12.9065
-12.9227
-12.9385
-12.9535
-12.9674
-12.9798
-12.99
-12.9974
-13.0016
-13.0017
-12.9974
-12.9884
-12.9728
-12.9478
-12.5164
-12.4904
-12.4737
-12.4635
-12.4578
-12.4564
-12.459
-12.4651
-12.474
-12.4853
-12.4984
-12.5129
-12.5283
-12.5444
-12.5607
-12.5772
-12.5936
-12.6098
-12.6257
-12.6413
-12.6566
-12.6714
-12.686
-12.7003
-12.7143
-12.7281
-12.7418
-12.7554
-12.769
-12.7827
-12.7964
-12.8102
-12.8242
-12.8383
-12.8525
-12.8668
-12.8809
-12.8948
-12.9082
-12.9209
-12.9325
-12.9426
-12.9508
-12.9566
-12.9595
-12.9589
-12.9547
-12.9467
-12.9332
-12.9121
-12.5512
-12.5292
-12.5148
-12.5057
-12.5001
-12.4981
-12.4994
-12.5035
-12.5101
-12.5187
-12.529
-12.5405
-12.553
-12.5661
-12.5796
-12.5934
-12.6072
-12.621
-12.6346
-12.648
-12.6611
-12.674
-12.6867
-12.6991
-12.7113
-12.7234
-12.7353
-12.7472
-12.7591
-12.771
-12.7829
-12.795
-12.8071
-12.8193
-12.8315
-12.8437
-12.8558
-12.8676
-12.879
-12.8896
-12.8993
-12.9076
-12.9142
-12.9187
-12.9207
-12.9199
-12.916
-12.909
-12.8977
-12.8801
-12.5824
-12.5641
-12.552
-12.544
-12.5389
-12.5365
-12.5369
-12.5395
-12.5442
-12.5506
-12.5584
-12.5674
-12.5772
-12.5877
-12.5987
-12.6099
-12.6212
-12.6326
-12.644
-12.6552
-12.6663
-12.6772
-12.6879
-12.6984
-12.7088
-12.7191
-12.7293
-12.7394
-12.7495
-12.7596
-12.7697
-12.7799
-12.7902
-12.8005
-12.8109
-12.8212
-12.8313
-12.8413
-12.8507
-12.8596
-12.8675
-12.8743
-12.8796
-12.8832
-12.8847
-12.8838
-12.8804
-12.8746
-12.8653
-12.851
-12.6108
-12.5959
-12.5859
-12.5792
-12.5747
-12.5723
-12.572
-12.5735
-12.5767
-12.5813
-12.587
-12.5937
-12.6012
-12.6093
-12.6178
-12.6266
-12.6356
-12.6448
-12.6539
-12.663
-12.672
-12.6809
-12.6896
-12.6983
-12.7068
-12.7152
-12.7236
-12.7319
-12.7402
-12.7485
-12.7569
-12.7652
-12.7737
-12.7822
-12.7907
-12.7991
-12.8075
-12.8156
-12.8234
-12.8306
-12.8371
-12.8426
-12.8468
-12.8497
-12.8508
-12.8501
-12.8474
-12.8428
-12.8354
-12.8242
-12.637
-12.6254
-12.6174
-12.612
-12.6081
-12.6059
-12.6052
-12.6059
-12.6079
-12.6109
-12.6148
-12.6195
-12.6249
-12.6308
-12.6371
-12.6436
-12.6504
-12.6573
-12.6643
-12.6713
-12.6782
-12.6851
-12.692
-12.6987
-12.7053
-12.7119
-12.7185
-12.7249
-12.7314
-12.7379
-12.7444
-12.751
-12.7576
-12.7642
-12.7709
-12.7776
-12.7842
-12.7906
-12.7967
-12.8025
-12.8076
-12.812
-12.8154
-12.8177
-12.8187
-12.8182
-12.8163
-12.8129
-12.8074
-12.7992
-12.6615
-12.653
-12.647
-12.6429
-12.6398
-12.6379
-12.637
-12.6371
-12.638
-12.6397
-12.642
-12.645
-12.6484
-12.6522
-12.6564
-12.6609
-12.6655
-12.6703
-12.6752
-12.6802
-12.6851
-12.69
-12.6949
-12.6997
-12.7045
-12.7092
-12.7138
-12.7185
-12.7231
-12.7278
-12.7324
-12.7372
-12.7419
-12.7467
-12.7516
-12.7565
-12.7614
-12.7662
-12.7708
-12.7751
-12.779
-12.7824
-12.7851
-12.7869
-12.7878
-12.7877
-12.7866
-12.7844
-12.7808
-12.7754
-12.6849
-12.6793
-12.6753
-12.6724
-12.6702
-12.6686
-12.6677
-12.6672
-12.6673
-12.6678
-12.6688
-12.6701
-12.6717
-12.6737
-12.6759
-12.6784
-12.681
-12.6838
-12.6866
-12.6896
-12.6925
-12.6955
-12.6984
-12.7013
-12.7042
-12.707
-12.7098
-12.7126
-12.7154
-12.7181
-12.7209
-12.7238
-12.7267
-12.7297
-12.7328
-12.7359
-12.739
-12.7422
-12.7453
-12.7482
-12.751
-12.7534
-12.7554
-12.7569
-12.7578
-12.7581
-12.7578
-12.7568
-12.7552
-12.7525
-12.7077
-12.7048
-12.7027
-12.7011
-12.6998
-12.6986
-12.6976
-12.6968
-12.6961
-12.6956
-12.6953
-12.6951
-12.6951
-12.6953
-12.6956
-12.6962
-12.6969
-12.6976
-12.6985
-12.6995
-12.7005
-12.7015
-12.7025
-12.7035
-12.7045
-12.7055
-12.7064
-12.7073
-12.7082
-12.709
-12.71
-12.7109
-12.712
-12.7131
-12.7143
-12.7156
-12.717
-12.7185
-12.7201
-12.7217
-12.7232
-12.7247
-12.7261
-12.7272
-12.7282
-12.7289
-12.7294
-12.7298
-12.73
-12.73
-12.73
-12.73
-12.7298
-12.7294
-12.7289
-12.7282
-12.7272
-12.7261
-12.7247
-12.7232
-12.7217
-12.7201
-12.7185
-12.717
-12.7156
-12.7143
-12.7131
-12.712
-12.7109
-12.71
-12.709
-12.7082
-12.7073
-12.7064
-12.7055
-12.7045
-12.7035
-12.7025
-12.7015
-12.7005
-12.6995
-12.6985
-12.6976
-12.6969
-12.6962
-12.6956
-12.6953
-12.6951
-12.6951
-12.6953
-12.6956
-12.6961
-12.6968
-12.6976
-12.6986
-12.6998
-12.7011
-12.7027
-12.7048
-12.7077
-12.7525
-12.7552
-12.7568
-12.7578
-12.7581
-12.7578
-12.7569
-12.7554
-12.7534
-12.751
-12.7482
-12.7453
-12.7422
-12.739
-12.7359
-12.7328
-12.7297
-12.7267
-12.7238
-12.7209
-12.7181
-12.7154
-12.7126
-12.7098
-12.707
-12.7042
-12.7013
-12.6984
-12.6955
-12.6925
-12.6896
-12.6866
-12.6838
-12.681
-12.6784
-12.6759
-12.6737
-12.6717
-12.6701
-12.6688
-12.6678
-12.6673
-12.6672
-12.6677
-12.6686
-12.6702
-12.6724
-12.6753
-12.6793
-12.6849
-12.7754
-12.7808
-12.7844
-12.7866
-12.7877
-12.7878
-12.7869
-12.7851
-12.7824
-12.779
-12.7751
-12.7708
-12.7662
-12.7614
-12.7565
-12.7516
-12.7467
-12.7419
-12.7372
-12.7324
-12.7278
-12.7231
-12.7185
-12.7138
-12.7092
-12.7045
-12.6997
-12.6949
-12.69
-12.6851
-12.6802
-12.6752
-12.6703
-12.6655
-12.6609
-12.6564
-12.6522
-12.6484
-12.645
-12.642
-12.6397
-12.638
-12.6371
-12.637
-12.6379
-12.6398
-12.6429
-12.647
-12.653
-12.6615
-12.7992
-12.8074
-12.8129
-12.8163
-12.8182
-12.8187
-12.8177
-12.8154
-12.812
-12.8076
-12.8025
-12.7967
-12.7906
-12.7842
-12.7776
-12.7709
-12.7642
-12.7576
-12.751
-12.7444
-12.7379
-12.7314
-12.7249
-12.7185
-12.7119
-12.7053
-12.6987
-12.692
-12.6851
-12.6782
-12.6713
-12.6643
-12.6573
-12.6504
-12.6436
-12.6371
-12.6308
-12.6249
-12.6195
-12.6148
-12.6109
-12.6079
-12.606
-12.6052
-12.6059
-12.6081
-12.612
-12.6174
-12.6254
-12.637
-12.8242
-12.8354
-12.8428
-12.8474
-12.8501
-12.8508
-12.8497
-12.8468
-12.8426
-12.8371
-12.8306
-12.8234
-12.8156
-12.8075
-12.7991
-12.7907
-12.7822
-12.7737
-12.7652
-12.7569
-12.7485
-12.7402
-12.7319
-12.7236
-12.7152
-12.7068
-12.6983
-12.6896
-12.6809
-12.672
-12.663
-12.6539
-12.6448
-12.6356
-12.6266
-12.6178
-12.6093
-12.6012
-12.5937
-12.587
-12.5813
-12.5767
-12.5736
-12.572
-12.5723
-12.5747
-12.5792
-12.5859
-12.5959
-12.6108
-12.851
-12.8653
-12.8746
-12.8804
-12.8838
-12.8847
-12.8832
-12.8796
-12.8743
-12.8675
-12.8596
-12.8507
-12.8413
-12.8313
-12.8212
-12.8109
-12.8005
-12.7902
-12.7799
-12.7697
-12.7596
-12.7495
-12.7394
-12.7293
-12.7191
-12.7088
-12.6984
-12.6879
-12.6772
-12.6663
-12.6552
-12.644
-12.6326
-12.6212
-12.6099
-12.5987
-12.5877
-12.5773
-12.5674
-12.5585
-12.5506
-12.5442
-12.5395
-12.5369
-12.5365
-12.5389
-12.544
-12.552
-12.5641
-12.5824
-12.8801
-12.8977
-12.909
-12.916
-12.9199
-12.9207
-12.9187
-12.9142
-12.9076
-12.8993
-12.8896
-12.879
-12.8676
-12.8558
-12.8437
-12.8315
-12.8193
-12.8071
-12.795
-12.7829
-12.771
-12.7591
-12.7472
-12.7353
-12.7234
-12.7113
-12.6991
-12.6867
-12.674
-12.6611
-12.648
-12.6346
-12.621
-12.6072
-12.5934
-12.5796
-12.5661
-12.553
-12.5405
-12.529
-12.5187
-12.5101
-12.5035
-12.4994
-12.4981
-12.5001
-12.5057
-12.5148
-12.5292
-12.5512
-12.9121
-12.9332
-12.9467
-12.9547
-12.9589
-12.9595
-12.9566
-12.9508
-12.9426
-12.9325
-12.9209
-12.9082
-12.8948
-12.8809
-12.8668
-12.8525
-12.8383
-12.8242
-12.8102
-12.7964
-12.7827
-12.769
-12.7554
-12.7418
-12.7281
-12.7143
-12.7003
-12.686
-12.6714
-12.6566
-12.6413
-12.6257
-12.6098
-12.5936
-12.5772
-12.5607
-12.5444
-12.5283
-12.5129
-12.4984
-12.4853
-12.474
-12.4651
-12.459
-12.4564
-12.4578
-12.4635
-12.4737
-12.4904
-12.5165
-12.9478
-12.9728
-12.9884
-12.9974
-13.0017
-13.0016
-12.9974
-12.99
-12.9798
-12.9674
-12.9535
-12.9385
-12.9227
-12.9065
-12.8902
-12.8738
-12.8576
-12.8415
-12.8256
-12.81
-12.7945
-12.7791
-12.7638
-12.7485
-12.7331
-12.7176
-12.7018
-12.6858
-12.6694
-12.6525
-12.6352
-12.6174
-12.5992
-12.5805
-12.5614
-12.542
-12.5226
-12.5034
-12.4847
-12.4668
-12.4504
-12.4359
-12.424
-12.4154
-12.4109
-12.4111
-12.4167
-12.4277
-12.4467
-12.4771
-12.9882
-13.0174
-13.0352
-13.0449
-13.0489
-13.0476
-13.0417
-13.0319
-13.0192
-13.0041
-12.9875
-12.9697
-12.9513
-12.9326
-12.9139
-12.8953
-12.8769
-12.8588
-12.841
-12.8235
-12.8062
-12.7892
-12.7722
-12.7553
-12.7383
-12.7212
-12.7038
-12.686
-12.6678
-12.649
-12.6297
-12.6097
-12.5891
-12.5678
-12.5459
-12.5236
-12.5009
-12.4782
-12.4557
-12.434
-12.4137
-12.3953
-12.3797
-12.3679
-12.3607
-12.3592
-12.364
-12.3757
-12.397
-12.4322
-13.0343
-13.0683
-13.0883
-13.0983
-13.1015
-13.0983
-13.0899
-13.0771
-13.0611
-13.0427
-13.0227
-13.0018
-12.9804
-12.9589
-12.9376
-12.9166
-12.8959
-12.8758
-12.856
-12.8367
-12.8178
-12.7991
-12.7806
-12.7621
-12.7436
-12.7249
-12.7059
-12.6865
-12.6666
-12.646
-12.6247
-12.6026
-12.5796
-12.5557
-12.531
-12.5055
-12.4793
-12.4528
-12.4262
-12.4001
-12.3751
-12.3521
-12.332
-12.3159
-12.3052
-12.301
-12.3044
-12.3161
-12.3398
-12.3802
-13.0877
-13.127
-13.1491
-13.159
-13.1605
-13.1546
-13.1425
-13.1257
-13.1056
-13.0831
-13.0592
-13.0346
-13.0098
-12.9852
-12.961
-12.9374
-12.9145
-12.8922
-12.8705
-12.8494
-12.8288
-12.8086
-12.7885
-12.7686
-12.7487
-12.7286
-12.7081
-12.6872
-12.6657
-12.6434
-12.6202
-12.596
-12.5708
-12.5443
-12.5167
-12.4878
-12.458
-12.4273
-12.3962
-12.3651
-12.3348
-12.3062
-12.2805
-12.259
-12.2433
-12.2353
-12.2363
-12.2475
-12.2732
-12.3194
-13.1502
-13.1955
-13.2196
-13.2285
-13.2271
-13.2171
-13.2001
-13.1781
-13.1526
-13.1251
-13.0966
-13.0677
-13.039
-13.011
-12.9838
-12.9575
-12.9321
-12.9077
-12.8841
-12.8613
-12.8391
-12.8173
-12.7959
-12.7747
-12.7535
-12.7321
-12.7103
-12.688
-12.665
-12.6412
-12.6163
-12.5901
-12.5626
-12.5336
-12.5031
-12.4709
-12.4372
-12.4021
-12.366
-12.3293
-12.2928
-12.2575
-12.2248
-12.1964
-12.1743
-12.1608
-12.1579
-12.1674
-12.195
-12.2476
-13.2243
-13.2767
-13.3023
-13.3088
-13.3028
-13.2868
-13.263
-13.2341
-13.2021
-13.1684
-13.1343
-13.1005
-13.0675
-13.0357
-13.0052
-12.9761
-12.9483
-12.9218
-12.8964
-12.8719
-12.8482
-12.8252
-12.8025
-12.7801
-12.7577
-12.7352
-12.7123
-12.6888
-12.6646
-12.6393
-12.6128
-12.5848
-12.5552
-12.5238
-12.4904
-12.4548
-12.4171
-12.3774
-12.3358
-12.2929
-12.2493
-12.2062
-12.165
-12.1278
-12.0971
-12.0759
-12.067
-12.0732
-12.1019
-12.1618
-13.3135
-13.374
-13.4003
-13.4024
-13.3892
-13.3644
-13.3315
-13.2936
-13.2533
-13.2122
-13.1715
-13.1321
-13.0944
-13.0586
-13.0248
-12.9928
-12.9626
-12.9341
-12.9069
-12.8809
-12.856
-12.8317
-12.808
-12.7846
-12.7613
-12.7379
-12.714
-12.6895
-12.6642
-12.6377
-12.6098
-12.5802
-12.5487
-12.515
-12.4788
-12.44
-12.3983
-12.3537
-12.3063
-12.2565
-12.2049
-12.1525
-12.101
-12.0528
-12.0107
-11.9788
-11.9609
-11.9613
-11.9899
-12.0581
-13.4228
-13.4928
-13.5179
-13.5121
-13.4878
-13.4507
-13.4054
-13.356
-13.3054
-13.2554
-13.2073
-13.1617
-13.1188
-13.0788
-13.0416
-13.0068
-12.9744
-12.944
-12.9153
-12.888
-12.8619
-12.8368
-12.8122
-12.7881
-12.764
-12.7399
-12.7153
-12.69
-12.6638
-12.6364
-12.6073
-12.5764
-12.5432
-12.5074
-12.4687
-12.4267
-12.381
-12.3315
-12.2781
-12.2208
-12.1602
-12.0972
-12.0334
-11.9712
-11.9143
-11.8675
-11.8363
-11.8269
-11.8532
-11.9307
-13.5598
-13.6405
-13.6609
-13.6414
-13.6003
-13.5456
-13.4838
-13.4198
-13.3567
-13.2964
-13.2399
-13.1876
-13.1395
-13.0953
-13.0547
-13.0174
-12.983
-12.951
-12.921
-12.8927
-12.8659
-12.84
-12.8149
-12.7903
-12.7658
-12.7411
-12.7161
-12.6903
-12.6635
-12.6353
-12.6054
-12.5734
-12.5389
-12.5014
-12.4604
-12.4154
-12.366
-12.3117
-12.2521
-12.1871
-12.1167
-12.0416
-11.9631
-11.8837
-11.8075
-11.7402
-11.6892
-11.6638
-11.6836
-11.7712
-13.7367
-13.828
-13.8368
-13.7944
-13.7278
-13.6486
-13.5651
-13.4829
-13.405
-13.3331
-13.2675
-13.2083
-13.1549
-13.1068
-13.0633
-13.0238
-12.9877
-12.9545
-12.9237
-12.8948
-12.8675
-12.8413
-12.8159
-12.7911
-12.7664
-12.7416
-12.7164
-12.6904
-12.6633
-12.6347
-12.6043
-12.5715
-12.536
-12.4971
-12.4543
-12.4068
-12.3541
-12.2953
-12.2297
-12.1567
-12.076
-11.9875
-11.8921
-11.7918
-11.6907
-11.5954
-11.5153
-11.4635
-11.469
-11.5659
-13.9746
-14.0721
-14.0554
-13.975
-13.8702
-13.7573
-13.6459
-13.5415
-13.4469
-13.3624
-13.2876
-13.2217
-13.1635
-13.1121
-13.0663
-13.0252
-12.9881
-12.9543
-12.9231
-12.8941
-12.8667
-12.8405
-12.8153
-12.7905
-12.766
-12.7413
-12.7162
-12.6903
-12.6632
-12.6346
-12.604
-12.5709
-12.5348
-12.4951
-12.451
-12.4016
-12.3461
-12.2835
-12.2124
-12.1319
-12.0406
-11.938
-11.8236
-11.6986
-11.5661
-11.433
-11.3102
-11.2157
-11.1917
-11.2918
-14.3124
-14.3978
-14.3283
-14.185
-14.0243
-13.8661
-13.7201
-13.5904
-13.4776
-13.3805
-13.2972
-13.2256
-13.1637
-13.11
-13.0628
-13.0211
-12.9838
-12.95
-12.919
-12.8903
-12.8634
-12.8377
-12.8129
-12.7886
-12.7646
-12.7404
-12.7157
-12.6902
-12.6635
-12.6352
-12.6048
-12.5719
-12.5358
-12.4958
-12.4511
-12.4007
-12.3434
-12.2778
-12.2024
-12.1152
-12.0142
-11.8974
-11.7629
-11.6097
-11.4389
-11.2558
-11.0715
-10.908
-10.8249
-10.9073
-14.8217
-14.8427
-14.6664
-14.4219
-14.1812
-13.9648
-13.7783
-13.6216
-13.4913
-13.3832
-13.2932
-13.2177
-13.1539
-13.0994
-13.0523
-13.011
-12.9744
-12.9415
-12.9114
-12.8837
-12.8576
-12.8329
-12.809
-12.7856
-12.7624
-12.7389
-12.715
-12.6903
-12.6643
-12.6368
-12.6071
-12.5749
-12.5394
-12.4998
-12.4554
-12.4049
-12.3471
-12.2801
-12.2019
-12.11
-12.0012
-11.8718
-11.7176
-11.5346
-11.3197
-11.0729
-10.8017
-10.5286
-10.3296
-10.3369
-15.6328
-15.4565
-15.0773
-14.6756
-14.3251
-14.0381
-13.8084
-13.6262
-13.4817
-13.3661
-13.2729
-13.1966
-13.1333
-13.08
-13.0345
-12.995
-12.9602
-12.929
-12.9006
-12.8744
-12.8498
-12.8264
-12.8038
-12.7816
-12.7595
-12.7372
-12.7144
-12.6908
-12.666
-12.6395
-12.6111
-12.58
-12.5457
-12.5075
-12.4643
-12.415
-12.3581
-12.2917
-12.2131
-12.1193
-12.006
-11.8677
-11.6972
-11.4859
-11.2237
-10.9005
-10.5112
-10.0698
-9.65485
-9.44665
-17.0419
-16.2791
-15.5363
-14.9127
-14.4255
-14.0622
-13.7939
-13.594
-13.4426
-13.3261
-13.2347
-13.1615
-13.1018
-13.0521
-13.01
-12.9736
-12.9417
-12.9131
-12.8871
-12.863
-12.8403
-12.8187
-12.7977
-12.777
-12.7564
-12.7355
-12.7141
-12.6919
-12.6685
-12.6436
-12.6168
-12.5875
-12.5551
-12.519
-12.4782
-12.4314
-12.3772
-12.3135
-12.2377
-12.1459
-12.0332
-11.8924
-11.7133
-11.4816
-11.1769
-10.7715
-10.2355
-9.55827
-8.76081
-7.93219
-19.8783
-17.2793
-15.8621
-14.9786
-14.3745
-13.9672
-13.6908
-13.4971
-13.3566
-13.2515
-13.1708
-13.107
-13.0554
-13.0127
-12.9765
-12.9452
-12.9176
-12.8928
-12.87
-12.8488
-12.8287
-12.8094
-12.7905
-12.7718
-12.7531
-12.734
-12.7145
-12.6941
-12.6727
-12.6499
-12.6253
-12.5985
-12.5691
-12.5362
-12.4992
-12.4569
-12.4079
-12.3504
-12.2817
-12.1984
-12.0953
-11.9646
-11.7947
-11.5671
-11.2512
-10.7968
-10.1342
-9.17855
-7.67544
-4.95812
-24.747
-18.3626
-15.6986
-14.6035
-14.0108
-13.6606
-13.4451
-13.3029
-13.2025
-13.1281
-13.0709
-13.0254
-12.9882
-12.957
-12.9301
-12.9065
-12.8853
-12.8659
-12.8477
-12.8305
-12.8139
-12.7977
-12.7816
-12.7656
-12.7494
-12.7328
-12.7157
-12.6979
-12.6791
-12.6592
-12.6379
-12.6148
-12.5895
-12.5616
-12.5304
-12.4952
-12.4548
-12.408
-12.3528
-12.2866
-12.2056
-12.104
-11.9724
-11.7943
-11.5376
-11.1382
-10.4796
-9.28978
-6.50933
-4.42593e-05
)
;

boundaryField
{
    movingWallTop
    {
        type            zeroGradient;
    }
    movingWallBottom
    {
        type            zeroGradient;
    }
    fixedWalls
    {
        type            zeroGradient;
    }
    frontAndBack
    {
        type            empty;
    }
}


// ************************************************************************* //
