/*--------------------------------*- C++ -*----------------------------------*\
  =========                 |
  \\      /  F ield         | OpenFOAM: The Open Source CFD Toolbox
   \\    /   O peration     | Website:  https://openfoam.org
    \\  /    A nd           | Version:  7
     \\/     M anipulation  |
\*---------------------------------------------------------------------------*/
FoamFile
{
    version     2.0;
    format      ascii;
    class       volScalarField;
    location    "0.0336";
    object      p;
}
// * * * * * * * * * * * * * * * * * * * * * * * * * * * * * * * * * * * * * //

dimensions      [0 2 -2 0 0 0 0];

internalField   nonuniform List<scalar> 
2500
(
-6.51815e-06
-0.00051768
-0.00196379
-0.00404115
-0.00643885
-0.00885086
-0.0110986
-0.0130241
-0.0145113
-0.0154783
-0.0158701
-0.0156535
-0.0148128
-0.0133473
-0.0112686
-0.00859884
-0.00536904
-0.00161755
0.0026108
0.00726574
0.0122924
0.0176318
0.0232219
0.0289975
0.0348914
0.0408343
0.0467561
0.0525859
0.0582527
0.0636865
0.068819
0.073584
0.0779193
0.0817673
0.0850766
0.087803
0.0899115
0.091378
0.0921907
0.0923527
0.0918841
0.090825
0.0892388
0.0872165
0.0848827
0.0824018
0.0799763
0.0778874
0.0764561
0.0759754
0.000503367
-4.83787e-06
-0.00117762
-0.00281053
-0.00466974
-0.00655693
-0.00831447
-0.00981165
-0.0109468
-0.0116441
-0.0118496
-0.0115286
-0.010662
-0.00924452
-0.00728291
-0.00479372
-0.00180212
0.00165931
0.0055516
0.00983032
0.0144464
0.0193467
0.0244748
0.0297714
0.035175
0.0406225
0.0460495
0.0513915
0.056584
0.0615634
0.0662681
0.0706389
0.0746206
0.0781627
0.0812205
0.0837568
0.0857431
0.0871611
0.0880043
0.0882799
0.0880107
0.0872372
0.0860199
0.0844423
0.0826135
0.0806706
0.0787782
0.0771315
0.0759723
0.0754947
0.00195307
0.00116856
-1.20363e-05
-0.00148539
-0.00310555
-0.00472301
-0.00620917
-0.00745665
-0.00837868
-0.00890799
-0.00899542
-0.00860782
-0.00772605
-0.00634343
-0.00446412
-0.00210167
0.000722272
0.00397893
0.00763331
0.0116451
0.0159693
0.0205571
0.0253563
0.0303119
0.0353668
0.0404622
0.0455383
0.050535
0.0553925
0.060052
0.0644564
0.0685516
0.0722869
0.0756165
0.0785003
0.0809053
0.0828069
0.0841899
0.0850503
0.0853966
0.0852513
0.0846525
0.0836554
0.0823341
0.0807822
0.0791132
0.0774606
0.0759761
0.0748122
0.0740643
0.00405721
0.00281616
0.00144352
-5.51452e-05
-0.00161828
-0.00312894
-0.00448364
-0.00559629
-0.00639523
-0.00682337
-0.00683813
-0.00641025
-0.0055225
-0.00416861
-0.00235209
-8.49864e-05
0.00261311
0.00571591
0.00919124
0.0130017
0.0171056
0.0214573
0.026008
0.030706
0.0354977
0.0403279
0.0451402
0.049878
0.0544852
0.0589063
0.0630881
0.0669795
0.0705335
0.0737073
0.0764638
0.0787727
0.0806112
0.0819657
0.0828329
0.0832206
0.0831491
0.0826526
0.0817795
0.0805933
0.0791726
0.0776099
0.0760138
0.0745044
0.0731503
0.0719627
0.00652323
0.00472402
0.00306321
0.00143937
-0.000166035
-0.0016618
-0.0029657
-0.00401108
-0.004741
-0.00510887
-0.00507953
-0.0046287
-0.00374214
-0.00241508
-0.000651395
0.00153739
0.0041329
0.00711055
0.0104402
0.014087
0.0180115
0.0221709
0.0265193
0.0310079
0.0355859
0.040201
0.0448
0.0493291
0.053735
0.0579654
0.0619694
0.065699
0.0691094
0.0721602
0.0748163
0.0770488
0.0788362
0.0801651
0.0810317
0.0814421
0.0814137
0.0809756
0.0801687
0.0790463
0.0776725
0.076121
0.0744796
0.0728439
0.0712051
0.0694739
0.00910695
0.00672136
0.00471649
0.00289763
0.00117567
-0.000377279
-0.00169605
-0.00273086
-0.0034382
-0.00378162
-0.00373352
-0.00327504
-0.00239566
-0.0010929
0.000628243
0.00275598
0.00527236
0.00815381
0.0113716
0.0148925
0.0186791
0.0226909
0.0268839
0.0312119
0.0356264
0.0400775
0.0445144
0.0488855
0.05314
0.0572274
0.0610992
0.0647091
0.068014
0.0709749
0.0735577
0.0757343
0.0774831
0.0787904
0.0796508
0.0800682
0.0800562
0.0796383
0.0788484
0.0777298
0.0763339
0.0747182
0.0729546
0.0711206
0.0691389
0.0668287
0.0116475
0.00867058
0.00628991
0.00422795
0.00233464
0.000668951
-0.000716933
-0.00178738
-0.00251061
-0.00285947
-0.00281365
-0.00235987
-0.00149166
-0.000209293
0.00148046
0.00356491
0.00602593
0.00884028
0.01198
0.015413
0.0191033
0.0230119
0.0270966
0.0313129
0.0356141
0.0399523
0.0442781
0.0485421
0.0526947
0.0566871
0.0604721
0.0640045
0.067242
0.0701464
0.0726838
0.0748256
0.0765499
0.0778415
0.078693
0.0791052
0.0790877
0.0786587
0.077845
0.0766813
0.075208
0.0734694
0.0715256
0.0694424
0.0670839
0.0641887
0.0140167
0.0104582
0.00768634
0.00535042
0.00324793
0.00142943
-6.23877e-05
-0.00120345
-0.00197198
-0.0023491
-0.00232128
-0.00188065
-0.00102489
0.00024262
0.00191297
0.0039721
0.00640116
0.00917674
0.0122712
0.0156529
0.0192868
0.023135
0.0271565
0.0313079
0.0355442
0.0398182
0.0440823
0.0482878
0.0523863
0.0563299
0.060072
0.0635678
0.0667753
0.0696561
0.0721757
0.0743048
0.0760199
0.077304
0.0781471
0.0785467
0.078508
0.0780442
0.0771755
0.0759293
0.0743368
0.0724321
0.0702671
0.0679008
0.0651473
0.0616745
0.0161181
0.0119918
0.00882203
0.00619247
0.00385491
0.00185511
0.000229137
-0.00100824
-0.00184365
-0.00226542
-0.00226619
-0.00184321
-0.000998279
0.000261979
0.00192624
0.00397872
0.00639945
0.0091644
0.0122457
0.0156119
0.0192285
0.0230579
0.02706
0.0311922
0.0354102
0.0396678
0.0439178
0.0481123
0.0522034
0.0561433
0.0598856
0.0633854
0.0666
0.0694903
0.0720206
0.0741602
0.0758836
0.0771713
0.0780102
0.0783943
0.0783246
0.0778093
0.0768629
0.0755065
0.0737638
0.0716612
0.0692455
0.066573
0.0634143
0.0593744
0.0178778
0.0131953
0.0096241
0.00668776
0.00409707
0.00189574
0.000115399
-0.0012366
-0.0021539
-0.00263107
-0.00266629
-0.0022616
-0.00142283
-0.000159882
0.00151332
0.00357902
0.00601579
0.00879864
0.0118991
0.0152855
0.0189233
0.022775
0.0268009
0.0309588
0.0352046
0.0394925
0.0437756
0.0480061
0.052136
0.0561173
0.0599029
0.0634473
0.0667069
0.0696408
0.0722119
0.0743873
0.0761388
0.0774442
0.0782871
0.0786576
0.0785525
0.0779751
0.0769354
0.0754485
0.0735329
0.0712087
0.0685206
0.0655246
0.0619533
0.0573537
0.0192362
0.0140039
0.010028
0.0067751
0.00391823
0.00150091
-0.000447934
-0.00192693
-0.00293561
-0.00347396
-0.00354517
-0.00315573
-0.00231538
-0.00103732
0.00066183
0.0027621
0.00524037
0.00807037
0.0112227
0.0146652
0.0183627
0.0222778
0.0263705
0.0305986
0.034918
0.0392829
0.0436461
0.0479594
0.0521744
0.0562424
0.0601152
0.0637459
0.0670893
0.0701028
0.0727467
0.0749855
0.0767882
0.078129
0.078988
0.0793513
0.0792114
0.0785674
0.0774245
0.0757934
0.073688
0.0711244
0.0681466
0.064813
0.0608208
0.0556623
0.0201425
0.0143601
0.00997444
0.00639663
0.00326346
0.00061968
-0.00150726
-0.0031209
-0.00422581
-0.00482676
-0.00493152
-0.00455078
-0.00369807
-0.00238988
-0.000645669
0.00151225
0.00405884
0.00696629
0.010204
0.0137389
0.0175352
0.0215548
0.0257574
0.0301005
0.0345395
0.0390281
0.0435186
0.0479622
0.0523093
0.05651
0.0605149
0.064275
0.0677431
0.070874
0.0736253
0.0759583
0.0778385
0.0792363
0.0801278
0.0804949
0.0803259
0.0796156
0.0783649
0.0765809
0.0742738
0.0714567
0.0681745
0.0644897
0.0600657
0.0543412
0.0205502
0.0142104
0.00940713
0.00549591
0.00207785
-0.000800202
-0.00311142
-0.00486354
-0.00606559
-0.00672671
-0.00685891
-0.00647696
-0.00559808
-0.00424211
-0.00243142
-0.000190817
0.00245252
0.00546903
0.00882671
0.0124912
0.0164259
0.0205918
0.024948
0.0294512
0.0340561
0.0387158
0.0433816
0.0480035
0.0525308
0.0569118
0.0610951
0.0650298
0.0686657
0.0719547
0.0748511
0.0773124
0.0793002
0.0807807
0.0817255
0.0821122
0.0819246
0.0811531
0.0797949
0.0778535
0.0753362
0.0722541
0.0686541
0.0646037
0.0597332
0.0534266
0.0204139
0.0135024
0.00827028
0.00401629
0.000305357
-0.002813
-0.00531207
-0.0072034
-0.0085001
-0.00921547
-0.00936562
-0.00896928
-0.00804743
-0.0066233
-0.00472228
-0.00237186
0.000398481
0.00355722
0.0070707
0.0109032
0.0150168
0.0193717
0.0239257
0.0286349
0.033453
0.038332
0.043222
0.0480717
0.0528285
0.0574391
0.0618495
0.066006
0.0698556
0.0733466
0.0764293
0.079057
0.0811869
0.0827803
0.0838042
0.084231
0.0840401
0.0832173
0.0817561
0.0796566
0.0769236
0.0735667
0.0696356
0.0652039
0.0598674
0.0529538
0.0196869
0.0121826
0.00650678
0.00189936
-0.00211237
-0.00547589
-0.00816434
-0.0101929
-0.0115787
-0.0123392
-0.0124945
-0.0120674
-0.0110828
-0.00956728
-0.00754955
-0.00505989
-0.00213028
0.0012056
0.00491225
0.00895234
0.0132867
0.0178741
0.0226714
0.0276334
0.0327129
0.0378605
0.043025
0.0481534
0.0531911
0.0580825
0.0627711
0.0671999
0.0713124
0.0750528
0.0783671
0.0812039
0.0835151
0.0852567
0.0863903
0.0868832
0.0867093
0.08585
0.0842944
0.0820397
0.0790882
0.0754479
0.0711721
0.0663411
0.0605145
0.0529601
0.0183189
0.0101941
0.00405639
-0.000916656
-0.00523731
-0.00884994
-0.0117275
-0.0138889
-0.0153555
-0.0161487
-0.0162931
-0.0158157
-0.0147453
-0.0131123
-0.0109487
-0.00828794
-0.0051646
-0.00161472
0.00232419
0.00661304
0.0112111
0.0160759
0.021163
0.026426
0.0318163
0.0372833
0.042774
0.0482338
0.0536058
0.0588319
0.0638525
0.0686073
0.0730356
0.0770772
0.0806732
0.0837665
0.0863035
0.0882343
0.0895141
0.0901044
0.0899734
0.0890973
0.0874606
0.0850571
0.0818865
0.0779556
0.073321
0.0680705
0.0617248
0.0534872
0.0162544
0.00747528
0.000854063
-0.00449828
-0.00913625
-0.0130011
-0.0160658
-0.0183532
-0.0198892
-0.0206996
-0.0208138
-0.020263
-0.0190805
-0.0173007
-0.0149593
-0.0120929
-0.00873892
-0.00493604
-0.000723899
0.00385656
0.00876298
0.0139514
0.0193761
0.0249894
0.0307414
0.0365798
0.0424504
0.0482962
0.0540583
0.0596757
0.0650854
0.0702234
0.0750247
0.0794239
0.0833566
0.0867598
0.0895731
0.09174
0.0932089
0.0939344
0.0938781
0.0930104
0.0913108
0.0887689
0.0853814
0.0811536
0.0761459
0.0704536
0.0635549
0.0545835
0.0134307
0.00395807
-0.00317145
-0.00891812
-0.013882
-0.0180013
-0.0212492
-0.0236533
-0.0252441
-0.0260529
-0.0261137
-0.0254629
-0.0241385
-0.0221792
-0.0196247
-0.016515
-0.012891
-0.00879376
-0.00426534
0.000651373
0.00591234
0.0114721
0.0172837
0.023298
0.0294638
0.0357277
0.0420333
0.0483221
0.0545324
0.0606005
0.06646
0.0720425
0.0772784
0.0820968
0.0864271
0.0901995
0.0933464
0.0958035
0.0975114
0.0984168
0.098474
0.0976463
0.0959073
0.0932418
0.0896428
0.0851136
0.0797182
0.0735599
0.0660702
0.0563062
0.00977697
-0.000433638
-0.00809906
-0.0142562
-0.0195544
-0.0239292
-0.0273542
-0.0298626
-0.0314904
-0.0322746
-0.032255
-0.0314735
-0.0299732
-0.0277979
-0.0249915
-0.021598
-0.0176614
-0.013226
-0.00833596
-0.00303638
0.00262705
0.00860746
0.0148565
0.0213239
0.0279574
0.034702
0.0414999
0.0482905
0.0550099
0.0615912
0.0679646
0.0740574
0.0797945
0.0850994
0.0898944
0.0941024
0.0976474
0.100457
0.102461
0.1036
0.103817
0.103068
0.10132
0.0985505
0.0947495
0.0899166
0.0841194
0.0774692
0.0693461
0.0587232
0.0052128
-0.00578528
-0.0140168
-0.0206013
-0.0262417
-0.0308712
-0.0344648
-0.0370615
-0.0387044
-0.0394368
-0.039305
-0.0383574
-0.0366429
-0.0342108
-0.0311097
-0.027388
-0.0230933
-0.0182728
-0.0129735
-0.00724233
-0.00112672
0.00532512
0.0120637
0.0190378
0.0261939
0.0334761
0.0408252
0.0481786
0.0554704
0.0626307
0.069586
0.076259
0.0825693
0.0884339
0.0937677
0.0984852
0.102501
0.105733
0.108102
0.109535
0.109968
0.109345
0.107625
0.104779
0.10079
0.0956543
0.0894424
0.0822736
0.073471
0.0619154
-0.000353468
-0.0121932
-0.0210231
-0.0280525
-0.034042
-0.0389232
-0.042673
-0.0453381
-0.0469691
-0.0476171
-0.0473361
-0.0461815
-0.0442092
-0.0414744
-0.0380314
-0.033933
-0.029231
-0.0239756
-0.0182167
-0.012003
-0.00538364
0.00159199
0.0088735
0.0164089
0.024144
0.032022
0.0399827
0.047962
0.0558919
0.0636998
0.0713086
0.0786365
0.0855974
0.0921014
0.0980555
0.103365
0.107934
0.111669
0.11448
0.11628
0.116994
0.116555
0.11491
0.112021
0.107865
0.102432
0.0957939
0.0880794
0.078548
0.0659788
-0.00702596
-0.0197662
-0.029229
-0.0367203
-0.0430641
-0.0481909
-0.0520806
-0.0547885
-0.0563748
-0.0568995
-0.0564255
-0.0550167
-0.0527368
-0.049648
-0.0458104
-0.0412823
-0.0361195
-0.0303761
-0.0241041
-0.0173547
-0.0101781
-0.00262485
0.00525417
0.0134066
0.0217779
0.030311
0.0389449
0.0476147
0.0562506
0.0647776
0.0731152
0.0811772
0.0888717
0.0961016
0.102765
0.108758
0.113972
0.118302
0.121643
0.123896
0.124969
0.124782
0.12327
0.120384
0.116088
0.110368
0.103296
0.0950097
0.0846975
0.0710268
-0.0149229
-0.0286271
-0.0387589
-0.0467288
-0.0534298
-0.0587919
-0.0627993
-0.0655181
-0.0670193
-0.0673741
-0.0666556
-0.0649377
-0.062293
-0.0587917
-0.054501
-0.0494846
-0.0438031
-0.0375143
-0.0306729
-0.023332
-0.0155429
-0.00735678
0.00117535
0.0100012
0.0190666
0.0283146
0.0376843
0.0471102
0.0565216
0.0658416
0.0749867
0.0838663
0.0923829
0.100432
0.107903
0.11468
0.120643
0.125671
0.129645
0.132449
0.133973
0.134122
0.132814
0.129985
0.125589
0.119599
0.112091
0.103207
0.0920596
0.0771926
-0.0241781
-0.0389151
-0.0497537
-0.0582176
-0.065275
-0.0708566
-0.0749524
-0.0776416
-0.0790084
-0.0791369
-0.0781127
-0.0760214
-0.072946
-0.068966
-0.0641561
-0.0585867
-0.0523233
-0.0454275
-0.0379569
-0.029966
-0.0215073
-0.0126318
-0.00339029
0.00616578
0.0159832
0.026006
0.0361741
0.0464225
0.0566801
0.0668688
0.0769027
0.0866875
0.0961201
0.105089
0.113473
0.121145
0.127972
0.133816
0.138541
0.14201
0.144095
0.144679
0.143661
0.14096
0.136513
0.130282
0.12234
0.112837
0.100798
0.0846327
-0.0349435
-0.0507876
-0.0623723
-0.0713437
-0.0787521
-0.0845302
-0.0886762
-0.0912846
-0.092456
-0.0922899
-0.0908871
-0.0883467
-0.0847642
-0.0802294
-0.074826
-0.0686314
-0.0617168
-0.0541476
-0.0459841
-0.0372822
-0.0280948
-0.0184725
-0.00846496
0.00187792
0.0125048
0.0233618
0.0343904
0.0455273
0.0567019
0.0678359
0.0788421
0.0896229
0.10007
0.110065
0.119477
0.128167
0.135986
0.142779
0.148388
0.152655
0.155429
0.156567
0.155945
0.153459
0.149028
0.142595
0.134231
0.12409
0.111102
0.0935298
-0.0473912
-0.0644238
-0.0767954
-0.086285
-0.0940326
-0.0999748
-0.104121
-0.106584
-0.107484
-0.10694
-0.105071
-0.101993
-0.0978136
-0.0926366
-0.0865553
-0.0796551
-0.0720129
-0.0636983
-0.054774
-0.0452972
-0.0353205
-0.0248932
-0.0140632
-0.00287776
0.00861485
0.0203636
0.0323135
0.0444034
0.0565651
0.0687212
0.0807842
0.0926544
0.10422
0.115354
0.125918
0.135758
0.14471
0.1526
0.159247
0.164466
0.168078
0.169913
0.169815
0.167654
0.163323
0.156744
0.147979
0.137188
0.123194
0.104097
-0.0617166
-0.0800277
-0.093229
-0.103243
-0.11131
-0.117372
-0.121452
-0.123687
-0.124223
-0.1232
-0.120759
-0.117036
-0.112156
-0.106235
-0.0993802
-0.0916838
-0.0832298
-0.0740918
-0.0643347
-0.0540162
-0.043188
-0.0318974
-0.0201892
-0.00810694
0.00430537
0.0170013
0.0299302
0.0430353
0.056252
0.0695056
0.0827096
0.0957638
0.108553
0.120945
0.132792
0.143927
0.154169
0.163322
0.171179
0.177528
0.182155
0.184855
0.185437
0.183737
0.179613
0.172962
0.163834
0.152388
0.13733
0.116583
-0.078143
-0.0978336
-0.111909
-0.12245
-0.130804
-0.136924
-0.140852
-0.142756
-0.14281
-0.141184
-0.138044
-0.133548
-0.127844
-0.121063
-0.113324
-0.10473
-0.0953713
-0.0853252
-0.0746586
-0.0634288
-0.0516859
-0.0394739
-0.0268334
-0.0138026
-0.000419856
0.0132746
0.0272364
0.0414148
0.0557508
0.0701742
0.0846016
0.0989342
0.113055
0.126828
0.140097
0.152682
0.164384
0.174985
0.184249
0.191931
0.197778
0.201544
0.202995
0.201923
0.198145
0.191522
0.182085
0.16999
0.153812
0.131278
-0.0969264
-0.118112
-0.133109
-0.144169
-0.152764
-0.15886
-0.162526
-0.163966
-0.163391
-0.161007
-0.157013
-0.151594
-0.14492
-0.137143
-0.128394
-0.118788
-0.108422
-0.0973758
-0.0857183
-0.0735054
-0.0607839
-0.0475937
-0.0339691
-0.0199418
-0.00554254
0.00919657
0.0242394
0.0395436
0.0550576
0.0707183
0.0864479
0.102151
0.117712
0.132992
0.147827
0.162027
0.175375
0.187628
0.198521
0.207769
0.215076
0.220148
0.222695
0.222458
0.2192
0.212735
0.203067
0.190343
0.172991
0.148521
-0.118363
-0.141178
-0.157146
-0.168709
-0.177477
-0.183439
-0.186697
-0.187503
-0.186116
-0.182785
-0.177747
-0.171223
-0.163409
-0.154477
-0.144575
-0.133829
-0.122341
-0.110196
-0.0974622
-0.0841923
-0.0704291
-0.0562058
-0.0415494
-0.0264827
-0.0110268
0.00479615
0.0209608
0.0374353
0.0541786
0.0711371
0.0882415
0.105403
0.122509
0.139422
0.155973
0.171962
0.187156
0.201287
0.214056
0.225137
0.234185
0.240844
0.244764
0.245616
0.243099
0.236962
0.227173
0.21386
0.195282
0.168711
-0.142798
-0.167403
-0.184395
-0.196429
-0.205275
-0.210953
-0.213613
-0.213568
-0.211138
-0.206625
-0.200315
-0.192467
-0.18331
-0.17304
-0.161822
-0.149792
-0.137059
-0.12371
-0.109809
-0.0954081
-0.0805412
-0.0652338
-0.0495031
-0.0333609
-0.0168165
0.000120667
0.0174383
0.035118
0.0531319
0.0714392
0.0899824
0.108682
0.127435
0.146105
0.164524
0.182484
0.199736
0.21599
0.230913
0.244131
0.255244
0.263827
0.269453
0.27171
0.270211
0.264625
0.254864
0.241026
0.221175
0.192317
-0.170642
-0.197231
-0.215303
-0.227754
-0.236543
-0.241736
-0.243549
-0.242375
-0.238609
-0.232624
-0.224762
-0.21533
-0.204593
-0.192773
-0.180054
-0.166581
-0.152469
-0.137802
-0.122645
-0.107038
-0.0910094
-0.0745725
-0.0577325
-0.0404876
-0.0228327
-0.004762
0.0137281
0.0326355
0.0519488
0.0716437
0.091678
0.111987
0.132478
0.153025
0.173463
0.19358
0.213117
0.23176
0.249143
0.264844
0.278398
0.289302
0.297037
0.301087
0.300959
0.296214
0.286684
0.27242
0.251256
0.219898
-0.202385
-0.231199
-0.250408
-0.26319
-0.271732
-0.276169
-0.276806
-0.274143
-0.268675
-0.260857
-0.251105
-0.239779
-0.227184
-0.213573
-0.199145
-0.184055
-0.16842
-0.152321
-0.135814
-0.118932
-0.101689
-0.0840851
-0.0661105
-0.0477471
-0.0289723
-0.00976225
0.00990544
0.0300482
0.0506747
0.0717806
0.0933437
0.115318
0.137629
0.160164
0.182766
0.205229
0.227285
0.248603
0.268784
0.287357
0.303787
0.317482
0.327814
0.33414
0.335828
0.332301
0.323279
0.308735
0.286229
0.252122
-0.238628
-0.269968
-0.290371
-0.30335
-0.311376
-0.314687
-0.313715
-0.3091
-0.301464
-0.29137
-0.279317
-0.265729
-0.250958
-0.235281
-0.218915
-0.202021
-0.184712
-0.167064
-0.14912
-0.130898
-0.112398
-0.093602
-0.0744807
-0.0549969
-0.0351081
-0.014769
0.0060645
0.0274327
0.0493678
0.0718899
0.0950013
0.118681
0.142876
0.167495
0.1924
0.217392
0.242208
0.266504
0.289852
0.311734
0.331542
0.348584
0.362102
0.371303
0.375377
0.373564
0.365424
0.350813
0.326953
0.289799
-0.280119
-0.314368
-0.336013
-0.34898
-0.356107
-0.357787
-0.354629
-0.347463
-0.337074
-0.324158
-0.309312
-0.293033
-0.275717
-0.25767
-0.239118
-0.220223
-0.20109
-0.181779
-0.162319
-0.142707
-0.12292
-0.102921
-0.0826576
-0.0620695
-0.0410906
-0.0196519
0.00231597
0.0248793
0.0480975
0.0720191
0.096676
0.122077
0.1482
0.174984
0.202313
0.230012
0.257828
0.285417
0.312331
0.338009
0.361769
0.382812
0.400235
0.413055
0.420245
0.420797
0.414054
0.399688
0.374489
0.333925
-0.327812
-0.365458
-0.388372
-0.401003
-0.40668
-0.406032
-0.399922
-0.389431
-0.375554
-0.359147
-0.340922
-0.321454
-0.301182
-0.280432
-0.259435
-0.23834
-0.217237
-0.196163
-0.175122
-0.154085
-0.133003
-0.111811
-0.0904307
-0.0687753
-0.0467523
-0.0242653
-0.00121723
0.0224875
0.0469391
0.0722187
0.0983927
0.125507
0.153576
0.182576
0.212432
0.242999
0.274049
0.305252
0.336156
0.366166
0.394534
0.420349
0.442543
0.459914
0.471156
0.474943
0.470305
0.45664
0.430166
0.385745
-0.382945
-0.424624
-0.44878
-0.460566
-0.463997
-0.460056
-0.44997
-0.435154
-0.416868
-0.39616
-0.373871
-0.350647
-0.326968
-0.303165
-0.279458
-0.255975
-0.232772
-0.209857
-0.187195
-0.164725
-0.142365
-0.120016
-0.0975698
-0.0749098
-0.0519137
-0.0284551
-0.00440642
0.0203599
0.045968
0.0725355
0.100168
0.128955
0.158956
0.190196
0.222648
0.256217
0.290719
0.325856
0.361191
0.396117
0.429832
0.461319
0.489332
0.512418
0.528927
0.537114
0.535573
0.523284
0.495685
0.44684
-0.447179
-0.493709
-0.518975
-0.529111
-0.529127
-0.520551
-0.505119
-0.484691
-0.460857
-0.43488
-0.407733
-0.38013
-0.352564
-0.325355
-0.29869
-0.272653
-0.247254
-0.222451
-0.198165
-0.174289
-0.1507
-0.127263
-0.103834
-0.080262
-0.0563926
-0.0320674
-0.00712602
0.0185931
0.0452508
0.0730043
0.102004
0.132385
0.164265
0.197727
0.232806
0.269475
0.307615
0.346988
0.3872
0.427662
0.467548
0.505748
0.540846
0.571102
0.594455
0.608618
0.611577
0.601682
0.573258
0.519271
-0.522797
-0.575231
-0.601251
-0.608454
-0.603329
-0.58824
-0.565634
-0.537952
-0.50717
-0.474789
-0.441898
-0.409246
-0.377312
-0.346366
-0.316531
-0.287821
-0.260178
-0.233493
-0.207626
-0.182417
-0.157694
-0.133278
-0.108984
-0.0846266
-0.0600159
-0.0349602
-0.00926495
0.0172669
0.0448343
0.0736369
0.103872
0.135731
0.169391
0.205005
0.24269
0.282503
0.324419
0.36829
0.413808
0.460446
0.507397
0.553503
0.597194
0.636437
0.668689
0.690975
0.700447
0.694504
0.665834
0.6058
-0.613052
-0.672706
-0.698687
-0.700879
-0.688045
-0.663809
-0.631604
-0.594589
-0.555182
-0.515101
-0.47551
-0.437136
-0.400385
-0.365429
-0.332283
-0.300857
-0.270994
-0.242501
-0.215161
-0.188749
-0.163036
-0.137795
-0.112797
-0.0878185
-0.0626338
-0.0370171
-0.0107396
0.0164313
0.0447334
0.0744099
0.105708
0.138877
0.174164
0.211802
0.252003
0.294932
0.340686
0.389252
0.440456
0.493895
0.548852
0.604194
0.658256
0.708733
0.752559
0.785912
0.804817
0.805257
0.777439
0.710251
-0.722761
-0.791164
-0.81544
-0.809223
-0.784837
-0.747778
-0.702783
-0.653862
-0.603869
-0.554673
-0.507412
-0.462698
-0.420774
-0.381644
-0.345157
-0.311077
-0.27912
-0.248981
-0.220355
-0.192938
-0.16644
-0.140579
-0.115084
-0.0896892
-0.0641348
-0.0381614
-0.0115075
0.0160941
0.044919
0.0752533
0.107395
0.141655
0.178352
0.217811
0.260351
0.306271
0.355823
0.409171
0.466342
0.527139
0.591039
0.657046
0.723521
0.787978
0.846836
0.895295
0.92791
0.938592
0.913717
0.838147
-0.859389
-0.937968
-0.957143
-0.936923
-0.895227
-0.840247
-0.778341
-0.714417
-0.651653
-0.591896
-0.536084
-0.484559
-0.43728
-0.393985
-0.354292
-0.317769
-0.283968
-0.252457
-0.222822
-0.194677
-0.167664
-0.141446
-0.115706
-0.090142
-0.0644596
-0.0383691
-0.0115787
0.0162102
0.0453078
0.0760411
0.108757
0.143827
0.181646
0.222635
0.267235
0.315895
0.369056
0.427114
0.490365
0.558926
0.632604
0.710719
0.791861
0.873562
0.951865
1.02096
1.07358
1.10071
1.08278
0.997859
-1.03513
-1.12412
-1.13137
-1.08791
-1.02033
-0.94047
-0.856487
-0.774006
-0.696211
-0.624589
-0.559594
-0.50107
-0.448531
-0.401335
-0.358791
-0.320219
-0.284983
-0.252497
-0.222236
-0.193725
-0.166535
-0.140278
-0.114595
-0.0891476
-0.0636146
-0.0376795
-0.0110253
0.0166731
0.0457559
0.0765856
0.109554
0.145089
0.183662
0.225789
0.27204
0.323032
0.379422
0.441885
0.511071
0.587527
0.671572
0.763088
0.861212
0.963875
1.06711
1.16429
1.24619
1.29983
1.29653
1.20281
-1.27114
-1.36625
-1.34793
-1.26608
-1.16004
-1.0461
-0.933887
-0.829103
-0.734253
-0.649894
-0.575566
-0.51032
-0.453024
-0.402533
-0.357771
-0.317771
-0.281682
-0.24876
-0.218363
-0.18993
-0.162969
-0.137044
-0.111761
-0.0867545
-0.0616801
-0.0362025
-0.00998637
0.0173128
0.0460576
0.0766388
0.109485
0.145074
0.183944
0.226704
0.274051
0.326773
0.385766
0.452022
0.526617
0.61066
0.705187
0.810961
0.928135
1.05567
1.19033
1.32541
1.45002
1.54645
1.57277
1.47595
-1.60633
-1.68965
-1.61835
-1.47356
-1.31129
-1.1518
-1.00473
-0.874341
-0.761236
-0.664163
-0.581175
-0.510175
-0.449183
-0.396437
-0.350423
-0.309866
-0.273695
-0.241016
-0.211079
-0.183248
-0.156982
-0.131807
-0.107304
-0.0830909
-0.0588101
-0.0341161
-0.00866447
0.0178994
0.045951
0.0758987
0.108197
0.14336
0.181979
0.224745
0.272465
0.326095
0.386762
0.455797
0.534755
0.625414
0.729736
0.849738
0.987191
1.14302
1.31607
1.50121
1.68746
1.85276
1.93817
1.85893
-2.11261
-2.13192
-1.95397
-1.70771
-1.46533
-1.2474
-1.05971
-0.902083
-0.771269
-0.663036
-0.573286
-0.498438
-0.435501
-0.382043
-0.336105
-0.296118
-0.260819
-0.22919
-0.200399
-0.173761
-0.1487
-0.124726
-0.101408
-0.0783608
-0.055225
-0.0316567
-0.00731285
0.0181597
0.0451374
0.0740331
0.105311
0.139506
0.177242
0.219264
0.266466
0.319937
0.381012
0.451337
0.532946
0.628342
0.740572
0.87325
1.03046
1.21631
1.4338
1.68261
1.95578
2.23071
2.43185
2.42724
-2.92067
-2.74312
-2.36238
-1.95895
-1.60663
-1.31789
-1.08673
-0.903466
-0.75823
-0.642474
-0.549354
-0.473585
-0.411143
-0.358966
-0.314721
-0.276614
-0.243255
-0.21355
-0.186629
-0.161789
-0.138449
-0.116122
-0.0943864
-0.0728662
-0.0512159
-0.0291045
-0.0062032
0.0178281
0.043353
0.0707736
0.100547
0.133204
0.169377
0.20983
0.2555
0.307558
0.367481
0.437157
0.519024
0.616262
0.733026
0.874748
1.04842
1.26275
1.52776
1.85334
2.24473
2.68794
3.10474
3.31507
-4.32715
-3.56357
-2.8193
-2.19381
-1.70465
-1.33942
-1.06948
-0.868219
-0.716041
-0.599117
-0.50771
-0.434973
-0.376059
-0.327492
-0.286734
-0.251903
-0.221577
-0.194666
-0.170315
-0.147846
-0.126707
-0.106437
-0.0866424
-0.0669752
-0.0471163
-0.0267609
-0.00560618
0.0166616
0.0403798
0.0659237
0.093723
0.124282
0.158208
0.196241
0.239307
0.288579
0.345573
0.412281
0.491369
0.586468
0.702617
0.846909
1.02942
1.26442
1.57213
1.98026
2.5186
3.19778
3.99688
4.82707
-7.1618
-4.56233
-3.14361
-2.25807
-1.65167
-1.242
-0.963611
-0.768263
-0.626592
-0.520901
-0.439999
-0.376583
-0.325768
-0.284187
-0.249459
-0.219855
-0.194088
-0.171185
-0.150392
-0.131111
-0.112863
-0.0952494
-0.07793
-0.060606
-0.0430038
-0.0248619
-0.00591948
0.0140937
0.0354704
0.0585376
0.0836716
0.111317
0.14201
0.176413
0.215353
0.259893
0.311418
0.371776
0.443492
0.530108
0.636735
0.770987
0.944515
1.1757
1.49493
1.9525
2.61791
3.57579
5.08061
7.799
-12.0302
-5.64514
-2.97943
-1.88161
-1.28591
-0.932721
-0.714596
-0.570162
-0.46818
-0.392827
-0.335237
-0.289994
-0.253588
-0.223635
-0.198445
-0.176784
-0.157729
-0.140576
-0.124777
-0.109895
-0.0955805
-0.0815394
-0.0675223
-0.0533085
-0.0386949
-0.0234863
-0.00748751
0.0095071
0.0277202
0.0474021
0.0688418
0.0923807
0.11843
0.147494
0.180202
0.217352
0.259976
0.309442
0.367602
0.437046
0.521545
0.626862
0.762341
0.944412
1.20507
1.60817
2.27028
3.46302
6.24564
12.756
)
;

boundaryField
{
    movingWall
    {
        type            zeroGradient;
    }
    fixedWalls
    {
        type            zeroGradient;
    }
    frontAndBack
    {
        type            empty;
    }
}


// ************************************************************************* //
