/*--------------------------------*- C++ -*----------------------------------*\
  =========                 |
  \\      /  F ield         | OpenFOAM: The Open Source CFD Toolbox
   \\    /   O peration     | Website:  https://openfoam.org
    \\  /    A nd           | Version:  7
     \\/     M anipulation  |
\*---------------------------------------------------------------------------*/
FoamFile
{
    version     2.0;
    format      ascii;
    class       surfaceScalarField;
    location    "0.065";
    object      phi;
}
// * * * * * * * * * * * * * * * * * * * * * * * * * * * * * * * * * * * * * //

dimensions      [0 3 -1 0 0 0 0];

internalField   nonuniform List<scalar> 
4900
(
-5.55541e-06
5.5554e-06
-1.0161e-05
4.6056e-06
-1.29489e-05
2.78786e-06
-1.46694e-05
1.72052e-06
-1.57723e-05
1.10289e-06
-1.65116e-05
7.39302e-07
-1.70327e-05
5.21099e-07
-1.74175e-05
3.84809e-07
-1.77126e-05
2.9512e-07
-1.79456e-05
2.32995e-07
-1.81336e-05
1.88003e-07
-1.82878e-05
1.54176e-07
-1.84157e-05
1.27928e-07
-1.85227e-05
1.06997e-07
-1.86126e-05
8.98951e-08
-1.86882e-05
7.56033e-08
-1.87516e-05
6.34027e-08
-1.88044e-05
5.27716e-08
-1.88477e-05
4.33219e-08
-1.88825e-05
3.4759e-08
-1.89093e-05
2.68537e-08
-1.89287e-05
1.9424e-08
-1.89411e-05
1.23216e-08
-1.89465e-05
5.422e-09
-1.89451e-05
-1.38411e-09
-1.89369e-05
-8.19343e-09
-1.89218e-05
-1.51013e-08
-1.88996e-05
-2.22019e-08
-1.887e-05
-2.95962e-08
-1.88326e-05
-3.73977e-08
-1.87869e-05
-4.57406e-08
-1.87321e-05
-5.47894e-08
-1.86673e-05
-6.47532e-08
-1.85914e-05
-7.59043e-08
-1.85028e-05
-8.86072e-08
-1.83995e-05
-1.0336e-07
-1.82786e-05
-1.2086e-07
-1.81365e-05
-1.4211e-07
-1.79679e-05
-1.68597e-07
-1.77653e-05
-2.02604e-07
-1.75175e-05
-2.47784e-07
-1.72073e-05
-3.10226e-07
-1.68068e-05
-4.00518e-07
-1.62691e-05
-5.37704e-07
-1.55128e-05
-7.56274e-07
-1.43969e-05
-1.11592e-06
-1.26818e-05
-1.71506e-06
-9.94604e-06
-2.73576e-06
-5.45249e-06
-4.49355e-06
-5.45249e-06
-1.19025e-08
5.5673e-06
-2.13074e-06
6.72444e-06
-4.85838e-06
5.51551e-06
-7.27646e-06
4.13859e-06
-9.21586e-06
3.0423e-06
-1.07293e-05
2.25272e-06
-1.191e-05
1.70179e-06
-1.28409e-05
1.31574e-06
-1.35854e-05
1.03963e-06
-1.41894e-05
8.37001e-07
-1.46857e-05
6.84303e-07
-1.50978e-05
5.66257e-07
-1.54427e-05
4.72795e-07
-1.57328e-05
3.97128e-07
-1.59775e-05
3.34563e-07
-1.61836e-05
2.81778e-07
-1.63566e-05
2.36366e-07
-1.65004e-05
1.96546e-07
-1.6618e-05
1.60974e-07
-1.67119e-05
1.28616e-07
-1.67837e-05
9.86605e-08
-1.68347e-05
7.04566e-08
-1.68659e-05
4.34701e-08
-1.68777e-05
1.72497e-08
-1.68705e-05
-8.5984e-09
-1.68442e-05
-3.44337e-08
-1.67987e-05
-6.05982e-08
-1.67335e-05
-8.74368e-08
-1.66478e-05
-1.15315e-07
-1.65405e-05
-1.44643e-07
-1.64104e-05
-1.75899e-07
-1.62555e-05
-2.09665e-07
-1.60736e-05
-2.46672e-07
-1.58616e-05
-2.87861e-07
-1.56158e-05
-3.34469e-07
-1.5331e-05
-3.88159e-07
-1.50006e-05
-4.51205e-07
-1.4616e-05
-5.26776e-07
-1.41652e-05
-6.19384e-07
-1.36322e-05
-7.35586e-07
-1.29949e-05
-8.8511e-07
-1.22224e-05
-1.08265e-06
-1.12723e-05
-1.35066e-06
-1.00866e-05
-1.72337e-06
-8.59155e-06
-2.25136e-06
-6.70698e-06
-3.0005e-06
-4.39329e-06
-4.02875e-06
-1.81867e-06
-5.31038e-06
1.24303e-07
-6.43652e-06
-5.32819e-06
1.03239e-06
4.5349e-06
5.46682e-07
7.21015e-06
-9.93035e-07
7.05523e-06
-2.88939e-06
6.03495e-06
-4.74861e-06
4.90152e-06
-6.41019e-06
3.9143e-06
-7.83468e-06
3.12628e-06
-9.03511e-06
2.51617e-06
-1.00418e-05
2.04633e-06
-1.08869e-05
1.68211e-06
-1.15988e-05
1.39618e-06
-1.22008e-05
1.16822e-06
-1.27114e-05
9.83427e-07
-1.31453e-05
8.31026e-07
-1.35139e-05
7.0315e-07
-1.38261e-05
5.93978e-07
-1.40889e-05
4.99151e-07
-1.43077e-05
4.15355e-07
-1.44867e-05
3.40037e-07
-1.46293e-05
2.71198e-07
-1.47379e-05
2.07246e-07
-1.48143e-05
1.46889e-07
-1.48599e-05
8.90575e-08
-1.48755e-05
3.28415e-08
-1.48616e-05
-2.25571e-08
-1.48181e-05
-7.78673e-08
-1.47449e-05
-1.33783e-07
-1.46414e-05
-1.91001e-07
-1.45064e-05
-2.50253e-07
-1.43387e-05
-3.1235e-07
-1.41364e-05
-3.78231e-07
-1.3897e-05
-4.49021e-07
-1.36176e-05
-5.2611e-07
-1.32942e-05
-6.11255e-07
-1.2922e-05
-7.06723e-07
-1.24946e-05
-8.15483e-07
-1.20044e-05
-9.41479e-07
-1.14411e-05
-1.09001e-06
-1.07922e-05
-1.26827e-06
-1.00417e-05
-1.48612e-06
-9.16974e-06
-1.75706e-06
-8.15288e-06
-2.09951e-06
-6.96561e-06
-2.53792e-06
-5.58621e-06
-3.10277e-06
-4.01135e-06
-3.82622e-06
-2.28775e-06
-4.7241e-06
-5.72607e-07
-5.74389e-06
7.66827e-07
-6.64981e-06
1.08778e-06
-6.75747e-06
-4.24041e-06
9.06136e-07
3.62877e-06
1.2277e-06
6.88858e-06
6.41376e-07
7.64156e-06
-5.26982e-07
7.2033e-06
-1.94847e-06
6.323e-06
-3.40482e-06
5.37065e-06
-4.77904e-06
4.50049e-06
-6.02131e-06
3.75845e-06
-7.11907e-06
3.14408e-06
-8.07762e-06
2.64066e-06
-8.90952e-06
2.22808e-06
-9.62919e-06
1.88788e-06
-1.02504e-05
1.60463e-06
-1.07853e-05
1.36598e-06
-1.12444e-05
1.16224e-06
-1.16363e-05
9.8584e-07
-1.1968e-05
8.30848e-07
-1.22453e-05
6.92609e-07
-1.24726e-05
5.67432e-07
-1.26538e-05
4.52359e-07
-1.27916e-05
3.44993e-07
-1.2888e-05
2.43357e-07
-1.29448e-05
1.45797e-07
-1.29628e-05
5.08903e-08
-1.29428e-05
-4.26151e-08
-1.28848e-05
-1.35865e-07
-1.27886e-05
-2.29948e-07
-1.26536e-05
-3.25949e-07
-1.24789e-05
-4.25e-07
-1.22629e-05
-5.28334e-07
-1.20038e-05
-6.37359e-07
-1.16991e-05
-7.5373e-07
-1.13457e-05
-8.79451e-07
-1.094e-05
-1.017e-06
-1.04772e-05
-1.16949e-06
-9.95182e-06
-1.34088e-06
-9.35707e-06
-1.53623e-06
-8.68503e-06
-1.76204e-06
-7.92666e-06
-2.02665e-06
-7.07215e-06
-2.34063e-06
-6.11206e-06
-2.71715e-06
-5.0398e-06
-3.17177e-06
-3.85669e-06
-3.72103e-06
-2.58154e-06
-4.37793e-06
-1.26739e-06
-5.14037e-06
-2.6554e-08
-5.96493e-06
9.42817e-07
-6.71326e-06
1.34942e-06
-7.05642e-06
9.1705e-07
-6.3251e-06
-3.32336e-06
6.71436e-07
2.95733e-06
1.24229e-06
6.31773e-06
1.22045e-06
7.6634e-06
6.46664e-07
7.77709e-06
-2.91588e-07
7.26126e-06
-1.41194e-06
6.491e-06
-2.58201e-06
5.67057e-06
-3.72045e-06
4.89689e-06
-4.78374e-06
4.20737e-06
-5.75253e-06
3.60945e-06
-6.62155e-06
3.0971e-06
-7.39295e-06
2.65929e-06
-8.07243e-06
2.28411e-06
-8.66695e-06
1.96051e-06
-9.18358e-06
1.67887e-06
-9.62888e-06
1.43114e-06
-1.00087e-05
1.21063e-06
-1.03279e-05
1.01187e-06
-1.05908e-05
8.30346e-07
-1.08008e-05
6.62358e-07
-1.09607e-05
5.04829e-07
-1.10725e-05
3.55175e-07
-1.11379e-05
2.112e-07
-1.1158e-05
7.10007e-08
-1.11335e-05
-6.71147e-08
-1.10647e-05
-2.04694e-07
-1.09514e-05
-3.43204e-07
-1.07933e-05
-4.84095e-07
-1.05894e-05
-6.28859e-07
-1.03386e-05
-7.79101e-07
-1.00394e-05
-9.3661e-07
-9.68968e-06
-1.10345e-06
-9.28709e-06
-1.28204e-06
-8.82876e-06
-1.47533e-06
-8.3114e-06
-1.68685e-06
-7.73132e-06
-1.92097e-06
-7.08457e-06
-2.18298e-06
-6.3673e-06
-2.47932e-06
-5.57633e-06
-2.81761e-06
-4.71038e-06
-3.20658e-06
-3.77209e-06
-3.65545e-06
-2.7715e-06
-4.17236e-06
-1.73167e-06
-4.76087e-06
-6.9694e-07
-5.41265e-06
2.56266e-07
-6.09358e-06
1.00996e-06
-6.71862e-06
1.40774e-06
-7.11104e-06
1.29722e-06
-6.9459e-06
6.66589e-07
-5.69446e-06
-2.65677e-06
4.79991e-07
2.47734e-06
1.07446e-06
5.72326e-06
1.33749e-06
7.40037e-06
1.16862e-06
7.94596e-06
6.355e-07
7.79437e-06
-1.43255e-07
7.26976e-06
-1.05561e-06
6.58293e-06
-2.01621e-06
5.85748e-06
-2.96743e-06
5.1586e-06
-3.87401e-06
4.51604e-06
-4.71642e-06
3.93951e-06
-5.48542e-06
3.42828e-06
-6.17807e-06
2.97676e-06
-6.79505e-06
2.57749e-06
-7.33894e-06
2.22276e-06
-7.81315e-06
1.90535e-06
-8.22132e-06
1.6188e-06
-8.56695e-06
1.3575e-06
-8.85321e-06
1.11661e-06
-9.08288e-06
8.92021e-07
-9.25827e-06
6.80221e-07
-9.38129e-06
4.78193e-07
-9.45341e-06
2.83325e-07
-9.47574e-06
9.33258e-08
-9.44899e-06
-9.38568e-08
-9.37359e-06
-2.80103e-07
-9.2496e-06
-4.67191e-07
-9.07684e-06
-6.56857e-07
-8.85483e-06
-8.50868e-07
-8.58285e-06
-1.05108e-06
-8.25995e-06
-1.25951e-06
-7.88495e-06
-1.47844e-06
-7.45654e-06
-1.71045e-06
-6.97331e-06
-1.95856e-06
-6.43389e-06
-2.22627e-06
-5.8372e-06
-2.51766e-06
-5.18278e-06
-2.8374e-06
-4.47142e-06
-3.19068e-06
-3.70609e-06
-3.58294e-06
-2.89344e-06
-4.01923e-06
-2.04602e-06
-4.50287e-06
-1.18544e-06
-5.03293e-06
-3.46646e-07
-5.59966e-06
4.17369e-07
-6.17667e-06
1.03196e-06
-6.70817e-06
1.40337e-06
-7.09003e-06
1.43734e-06
-7.145e-06
1.08969e-06
-6.59826e-06
4.69701e-07
-5.07447e-06
-2.18707e-06
3.47573e-07
2.12977e-06
8.88903e-07
5.18193e-06
1.27274e-06
7.01653e-06
1.35169e-06
7.86702e-06
1.11809e-06
8.02797e-06
6.31989e-07
7.75586e-06
-2.73784e-08
7.24229e-06
-7.86597e-07
6.6167e-06
-1.58756e-06
5.95956e-06
-2.38833e-06
5.3168e-06
-3.16076e-06
4.71195e-06
-3.88722e-06
4.15474e-06
-4.55744e-06
3.64698e-06
-5.16617e-06
3.18622e-06
-5.71136e-06
2.76795e-06
-6.19289e-06
2.38689e-06
-6.61177e-06
2.03769e-06
-6.96957e-06
1.71529e-06
-7.26805e-06
1.41508e-06
-7.50897e-06
1.13295e-06
-7.69399e-06
8.65236e-07
-7.82453e-06
6.08732e-07
-7.90179e-06
3.60592e-07
-7.92675e-06
1.18284e-07
-7.90013e-06
-1.20479e-07
-7.82244e-06
-3.57799e-07
-7.69397e-06
-5.95655e-07
-7.51487e-06
-8.35959e-07
-7.28512e-06
-1.08062e-06
-7.0046e-06
-1.3316e-06
-6.67315e-06
-1.59096e-06
-6.29063e-06
-1.86096e-06
-5.85703e-06
-2.14406e-06
-5.37261e-06
-2.44297e-06
-4.83817e-06
-2.76071e-06
-4.25534e-06
-3.10049e-06
-3.62706e-06
-3.46567e-06
-2.95836e-06
-3.85938e-06
-2.2573e-06
-4.284e-06
-1.53639e-06
-4.74014e-06
-8.14418e-07
-5.22484e-06
-1.18641e-07
-5.72871e-06
5.12999e-07
-6.23131e-06
1.03057e-06
-6.69424e-06
1.37386e-06
-7.05146e-06
1.481e-06
-7.19717e-06
1.3101e-06
-6.97411e-06
8.80529e-07
-6.16868e-06
3.35486e-07
-4.52943e-06
-1.85159e-06
2.60173e-07
1.86959e-06
7.30778e-07
4.71132e-06
1.14938e-06
6.59792e-06
1.36782e-06
7.64858e-06
1.3397e-06
8.05609e-06
1.08254e-06
8.01302e-06
6.43936e-07
7.6809e-06
7.9041e-08
7.18159e-06
-5.61402e-07
6.6e-06
-1.23595e-06
5.99135e-06
-1.91318e-06
5.38918e-06
-2.57059e-06
4.81215e-06
-3.19282e-06
4.26921e-06
-3.76988e-06
3.76328e-06
-4.29564e-06
3.29371e-06
-4.76665e-06
2.8579e-06
-5.18125e-06
2.45229e-06
-5.53892e-06
2.07296e-06
-5.83985e-06
1.71602e-06
-6.08462e-06
1.37772e-06
-6.274e-06
1.05461e-06
-6.40882e-06
7.43551e-07
-6.48989e-06
4.41665e-07
-6.51796e-06
1.46359e-07
-6.49371e-06
-1.44735e-07
-6.4177e-06
-4.33802e-07
-6.29047e-06
-7.22887e-07
-6.11249e-06
-1.01394e-06
-5.88424e-06
-1.30887e-06
-5.60626e-06
-1.60957e-06
-5.27925e-06
-1.91797e-06
-4.90414e-06
-2.23608e-06
-4.48225e-06
-2.56594e-06
-4.01552e-06
-2.90971e-06
-3.50674e-06
-3.26949e-06
-2.95995e-06
-3.64728e-06
-2.38099e-06
-4.04464e-06
-1.77809e-06
-4.46228e-06
-1.16281e-06
-4.89928e-06
-5.51072e-07
-5.35188e-06
3.56558e-08
-5.81157e-06
5.69315e-07
-6.26237e-06
1.01479e-06
-6.67678e-06
1.33109e-06
-7.01054e-06
1.47576e-06
-7.19613e-06
1.41506e-06
-7.13647e-06
1.14257e-06
-6.70162e-06
7.0742e-07
-5.73354e-06
2.47115e-07
-4.06913e-06
-1.60447e-06
2.01857e-07
1.66774e-06
6.05528e-07
4.30765e-06
1.01768e-06
6.18577e-06
1.30727e-06
7.35899e-06
1.4126e-06
7.95076e-06
1.32453e-06
8.10109e-06
1.06554e-06
7.93989e-06
6.72542e-07
7.57459e-06
1.85481e-07
7.08706e-06
-3.58968e-07
6.5358e-06
-9.30103e-07
5.96031e-06
-1.50375e-06
5.3858e-06
-2.06173e-06
4.82718e-06
-2.59085e-06
4.2924e-06
-3.08189e-06
3.78474e-06
-3.5286e-06
3.30461e-06
-3.92693e-06
2.85062e-06
-4.2744e-06
2.42043e-06
-4.56961e-06
2.01123e-06
-4.81192e-06
1.62002e-06
-5.00114e-06
1.24384e-06
-5.13744e-06
8.79851e-07
-5.22116e-06
5.25383e-07
-5.25277e-06
1.77966e-07
-5.23282e-06
-1.64688e-07
-5.16193e-06
-5.04691e-07
-5.04081e-06
-8.44011e-07
-4.87025e-06
-1.1845e-06
-4.65123e-06
-1.52789e-06
-4.38491e-06
-1.87589e-06
-4.0728e-06
-2.23009e-06
-3.71682e-06
-2.59205e-06
-3.31952e-06
-2.96324e-06
-2.88428e-06
-3.34495e-06
-2.41555e-06
-3.73821e-06
-1.9193e-06
-4.14353e-06
-1.40338e-06
-4.56056e-06
-8.78118e-07
-4.98754e-06
-3.56951e-07
-5.42045e-06
1.42966e-07
-5.85179e-06
6.00224e-07
-6.26883e-06
9.89053e-07
-6.6512e-06
1.28011e-06
-6.96784e-06
1.44293e-06
-7.17336e-06
1.45119e-06
-7.20439e-06
1.29191e-06
-6.97719e-06
9.79268e-07
-6.38898e-06
5.71949e-07
-5.32622e-06
1.8798e-07
-3.68516e-06
-1.41649e-06
1.61651e-07
1.50609e-06
5.08005e-07
3.9613e-06
8.95901e-07
5.79787e-06
1.21563e-06
7.03926e-06
1.40317e-06
7.76322e-06
1.43476e-06
8.0695e-06
1.31518e-06
8.05947e-06
1.06592e-06
7.82385e-06
7.15796e-07
7.43718e-06
2.94753e-07
6.95684e-06
-1.69703e-07
6.42477e-06
-6.54102e-07
5.8702e-06
-1.13941e-06
5.31249e-06
-1.61076e-06
4.76375e-06
-2.0569e-06
4.23088e-06
-2.46953e-06
3.71723e-06
-2.84267e-06
3.22377e-06
-3.17217e-06
2.74993e-06
-3.4552e-06
2.29426e-06
-3.68993e-06
1.85475e-06
-3.87528e-06
1.4292e-06
-4.01071e-06
1.01528e-06
-4.09605e-06
6.10728e-07
-4.13146e-06
2.1338e-07
-4.11735e-06
-1.78806e-07
-4.05431e-06
-5.67727e-07
-3.94319e-06
-9.55129e-07
-3.78507e-06
-1.34262e-06
-3.58131e-06
-1.73165e-06
-3.33364e-06
-2.12355e-06
-3.04426e-06
-2.51947e-06
-2.71593e-06
-2.92038e-06
-2.3522e-06
-3.32697e-06
-1.95755e-06
-3.73961e-06
-1.53769e-06
-4.15807e-06
-1.09985e-06
-4.58137e-06
-6.53112e-07
-5.00729e-06
-2.08824e-07
-5.43182e-06
2.1908e-07
-5.84835e-06
6.13812e-07
-6.24653e-06
9.5575e-07
-6.61077e-06
1.22298e-06
-6.91843e-06
1.39275e-06
-7.13761e-06
1.44438e-06
-7.22499e-06
1.36418e-06
-7.12419e-06
1.15277e-06
-6.76578e-06
8.34494e-07
-6.0707e-06
4.67096e-07
-4.95882e-06
1.47043e-07
-3.3651e-06
-1.26945e-06
1.32829e-07
1.37326e-06
4.31648e-07
3.66248e-06
7.88932e-07
5.44059e-06
1.11497e-06
6.71322e-06
1.34972e-06
7.52847e-06
1.46275e-06
7.95648e-06
1.44747e-06
8.07474e-06
1.3136e-06
7.95772e-06
1.08011e-06
7.67067e-06
7.69848e-07
7.26711e-06
4.05908e-07
6.78871e-06
9.55446e-09
6.26655e-06
-4.00801e-07
5.72285e-06
-8.09884e-07
5.17283e-06
-1.20543e-06
4.62643e-06
-1.57784e-06
4.08964e-06
-1.91978e-06
3.56571e-06
-2.22578e-06
3.05592e-06
-2.49182e-06
2.5603e-06
-2.71508e-06
2.07801e-06
-2.89363e-06
1.60775e-06
-3.02627e-06
1.14791e-06
-3.11235e-06
6.96804e-07
-3.15168e-06
2.52713e-07
-3.14448e-06
-1.8601e-07
-3.0913e-06
-6.20904e-07
-2.99306e-06
-1.05337e-06
-2.85103e-06
-1.48465e-06
-2.66689e-06
-1.91579e-06
-2.4428e-06
-2.34764e-06
-2.18149e-06
-2.78079e-06
-1.88636e-06
-3.2155e-06
-1.56167e-06
-3.65167e-06
-1.21267e-06
-4.0886e-06
-8.45848e-07
-4.5249e-06
-4.69116e-07
-4.95811e-06
-9.20714e-08
-5.38434e-06
2.73814e-07
-5.79771e-06
6.15076e-07
-6.18962e-06
9.16312e-07
-6.54776e-06
1.16057e-06
-6.85502e-06
1.33024e-06
-7.0881e-06
1.40879e-06
-7.21616e-06
1.38354e-06
-7.19974e-06
1.24977e-06
-6.99042e-06
1.01613e-06
-6.53214e-06
7.10582e-07
-5.76516e-06
3.85356e-07
-4.63359e-06
1.17608e-07
-3.09736e-06
-1.15184e-06
1.11347e-07
1.26191e-06
3.70913e-07
3.40291e-06
6.96516e-07
5.11499e-06
1.01538e-06
6.39435e-06
1.27391e-06
7.26994e-06
1.43985e-06
7.79053e-06
1.50001e-06
8.01458e-06
1.45574e-06
8.00199e-06
1.31804e-06
7.80837e-06
1.10323e-06
7.48192e-06
8.29712e-07
7.06223e-06
5.15744e-07
6.58052e-06
1.78154e-07
6.06044e-06
-1.68322e-07
5.51931e-06
-5.1125e-07
4.96936e-06
-8.40438e-07
4.41883e-06
-1.14773e-06
3.873e-06
-1.42674e-06
3.33494e-06
-1.67259e-06
2.80615e-06
-1.88163e-06
2.28705e-06
-2.05123e-06
1.77735e-06
-2.17959e-06
1.27628e-06
-2.26564e-06
7.82845e-07
-2.30883e-06
2.95912e-07
-2.30919e-06
-1.85654e-07
-2.26717e-06
-6.62925e-07
-2.1837e-06
-1.13685e-06
-2.06015e-06
-1.60819e-06
-1.89843e-06
-2.07751e-06
-1.70097e-06
-2.5451e-06
-1.47086e-06
-3.0109e-06
-1.21191e-06
-3.47445e-06
-9.28812e-07
-3.93476e-06
-6.27244e-07
-4.39017e-06
-3.14035e-07
-4.83811e-06
2.69955e-09
-5.27484e-06
3.13437e-07
-5.69507e-06
6.07196e-07
-6.09147e-06
8.71605e-07
-6.45403e-06
1.09317e-06
-6.76933e-06
1.25787e-06
-7.01973e-06
1.35221e-06
-7.18244e-06
1.36489e-06
-7.22884e-06
1.28925e-06
-7.1241e-06
1.12647e-06
-6.82763e-06
8.89291e-07
-6.29496e-06
6.05624e-07
-5.48149e-06
3.20664e-07
-4.34863e-06
9.56585e-08
-2.87235e-06
-1.05618e-06
9.47478e-08
1.16716e-06
3.21627e-07
3.17603e-06
6.16707e-07
4.81991e-06
9.20951e-07
6.09011e-06
1.18774e-06
7.00315e-06
1.38573e-06
7.59255e-06
1.49836e-06
7.90195e-06
1.52148e-06
7.97888e-06
1.46e-06
7.86985e-06
1.32475e-06
7.61717e-06
1.12964e-06
7.25734e-06
8.89724e-07
6.82044e-06
6.19706e-07
6.33045e-06
3.3315e-07
5.80586e-06
4.20195e-08
5.26049e-06
-2.4347e-07
4.70432e-06
-5.14829e-07
4.14436e-06
-7.65162e-07
3.58527e-06
-9.89e-07
3.02998e-06
-1.18211e-06
2.48016e-06
-1.34131e-06
1.93655e-06
-1.46434e-06
1.39931e-06
-1.5497e-06
8.68208e-07
-1.59658e-06
3.42786e-07
-1.60475e-06
-1.77487e-07
-1.57454e-06
-6.93127e-07
-1.50685e-06
-1.20454e-06
-1.40307e-06
-1.71197e-06
-1.26518e-06
-2.2154e-06
-1.09578e-06
-2.7145e-06
-8.98128e-07
-3.20855e-06
-6.76234e-07
-3.69634e-06
-4.34959e-07
-4.17604e-06
-1.80101e-07
-4.64503e-06
8.15144e-08
-5.09972e-06
3.41965e-07
-5.53529e-06
5.9221e-07
-5.94532e-06
8.22155e-07
-6.32141e-06
1.02084e-06
-6.65271e-06
1.17686e-06
-6.92534e-06
1.27898e-06
-7.12185e-06
1.31728e-06
-7.22074e-06
1.28458e-06
-7.19614e-06
1.17845e-06
-7.01796e-06
1.00359e-06
-6.65278e-06
7.74323e-07
-6.06569e-06
5.16568e-07
-5.22373e-06
2.68519e-07
-4.10058e-06
7.87376e-08
-2.68257e-06
-9.77444e-07
8.14987e-08
1.08566e-06
2.80763e-07
2.97677e-06
5.47253e-07
4.55342e-06
8.32888e-07
5.80447e-06
1.0977e-06
6.73835e-06
1.31258e-06
7.37767e-06
1.45978e-06
7.75474e-06
1.53175e-06
7.90691e-06
1.52907e-06
7.87253e-06
1.45811e-06
7.68813e-06
1.32892e-06
7.38653e-06
1.15338e-06
6.99597e-06
9.43916e-07
6.53992e-06
7.12546e-07
6.03723e-06
4.70335e-07
5.5027e-06
2.27084e-07
4.94757e-06
-8.78034e-09
4.38022e-06
-2.30198e-07
3.80669e-06
-4.31398e-07
3.23118e-06
-6.07777e-07
2.65654e-06
-7.5578e-07
2.08455e-06
-8.72775e-07
1.51631e-06
-9.56942e-07
9.52375e-07
-1.00719e-06
3.93036e-07
-1.02309e-06
-1.61586e-07
-1.00483e-06
-7.11392e-07
-9.5317e-07
-1.2562e-06
-8.69481e-07
-1.79566e-06
-7.55723e-07
-2.32916e-06
-6.14495e-07
-2.85573e-06
-4.49077e-07
-3.37397e-06
-2.63486e-07
-3.88194e-06
-6.2532e-08
-4.37699e-06
1.4812e-07
-4.85568e-06
3.61916e-07
-5.31352e-06
5.71406e-07
-5.74478e-06
7.68294e-07
-6.14221e-06
9.43581e-07
-6.4967e-06
1.08783e-06
-6.79697e-06
1.19163e-06
-7.02914e-06
1.24627e-06
-7.17649e-06
1.24467e-06
-7.21915e-06
1.18273e-06
-7.1342e-06
1.0608e-06
-6.89603e-06
8.8542e-07
-6.4774e-06
6.70909e-07
-5.85118e-06
4.40385e-07
-4.99321e-06
2.25657e-07
-3.88586e-06
6.53002e-08
-2.52221e-06
-9.12144e-07
7.06125e-08
1.01505e-06
2.46146e-07
2.80124e-06
4.86093e-07
4.31347e-06
7.51092e-07
5.53947e-06
1.00713e-06
6.48231e-06
1.22794e-06
7.15686e-06
1.39589e-06
7.58679e-06
1.50158e-06
7.80122e-06
1.54262e-06
7.83149e-06
1.52203e-06
7.70871e-06
1.4466e-06
7.46196e-06
1.32539e-06
7.11719e-06
1.16854e-06
6.69677e-06
9.86386e-07
6.21939e-06
7.88841e-07
5.70024e-06
5.84989e-07
5.15142e-06
3.82886e-07
4.58233e-06
1.89478e-07
4.0001e-06
1.05917e-08
3.41007e-06
-1.49006e-07
2.81613e-06
-2.85537e-07
2.22108e-06
-3.96121e-07
1.62689e-06
-4.78698e-07
1.03495e-06
-5.3195e-07
4.46289e-07
-5.55247e-07
-1.38289e-07
-5.48602e-07
-7.18037e-07
-5.12645e-07
-1.29216e-06
-4.48619e-07
-1.85969e-06
-3.5838e-07
-2.4194e-06
-2.44422e-07
-2.96969e-06
-1.09904e-07
-3.50849e-06
4.13184e-08
-4.03316e-06
2.04658e-07
-4.54033e-06
3.74776e-07
-5.0258e-06
5.45583e-07
-5.48433e-06
7.10281e-07
-5.90948e-06
8.6146e-07
-6.29339e-06
9.9129e-07
-6.62653e-06
1.09182e-06
-6.8975e-06
1.15545e-06
-7.09277e-06
1.17552e-06
-7.19656e-06
1.14723e-06
-7.19085e-06
1.06857e-06
-7.05554e-06
9.41593e-07
-6.76905e-06
7.73524e-07
-6.30933e-06
5.77787e-07
-5.65544e-06
3.74438e-07
-4.78986e-06
1.89718e-07
-3.70114e-06
5.43377e-08
-2.38683e-06
-8.57806e-07
6.1431e-08
9.53619e-07
2.16204e-07
2.64646e-06
4.31493e-07
4.09818e-06
6.7492e-07
5.29605e-06
9.17654e-07
6.23958e-06
1.13643e-06
6.93809e-06
1.31449e-06
7.40873e-06
1.44168e-06
7.67403e-06
1.51372e-06
7.75945e-06
1.53118e-06
7.69126e-06
1.49824e-06
7.4949e-06
1.42152e-06
7.1939e-06
1.30909e-06
6.8092e-06
1.16959e-06
6.35889e-06
1.01165e-06
5.85818e-06
8.43458e-07
5.31962e-06
6.72489e-07
4.7533e-06
5.05353e-07
4.16723e-06
3.47736e-07
3.56769e-06
2.04392e-07
2.95948e-06
7.91802e-08
2.3463e-06
-2.48871e-08
1.73096e-06
-1.05585e-07
1.11565e-06
-1.6142e-07
5.02123e-07
-1.91583e-07
-1.08126e-07
-1.95911e-07
-7.13709e-07
-1.74863e-07
-1.31321e-06
-1.29508e-07
-1.90504e-06
-6.15229e-08
-2.48738e-06
2.67991e-08
-3.05801e-06
1.32533e-07
-3.61422e-06
2.52107e-07
-4.15273e-06
3.81295e-07
-4.66952e-06
5.15219e-07
-5.15972e-06
6.48381e-07
-5.61749e-06
7.74733e-07
-6.03583e-06
8.87808e-07
-6.40646e-06
9.80925e-07
-6.71965e-06
1.0475e-06
-6.96407e-06
1.08147e-06
-7.12673e-06
1.07785e-06
-7.19295e-06
1.03347e-06
-7.14647e-06
9.47738e-07
-6.96981e-06
8.23552e-07
-6.64487e-06
6.68094e-07
-6.15387e-06
4.93412e-07
-5.48076e-06
3.16548e-07
-4.613e-06
1.58976e-07
-3.54356e-06
4.51683e-08
-2.27302e-06
-8.12638e-07
5.35015e-08
9.00118e-07
1.8979e-07
2.51017e-06
3.82054e-07
3.90592e-06
6.03559e-07
5.07454e-06
8.29949e-07
6.01319e-06
1.04087e-06
6.72717e-06
1.22089e-06
7.2287e-06
1.35979e-06
7.53512e-06
1.45223e-06
7.66702e-06
1.49705e-06
7.64644e-06
1.49645e-06
7.4955e-06
1.45505e-06
7.2353e-06
1.37905e-06
6.8852e-06
1.2755e-06
6.46244e-06
1.15174e-06
5.98194e-06
1.01498e-06
5.45638e-06
8.71961e-07
4.89631e-06
7.28814e-07
4.31038e-06
5.90922e-07
3.70558e-06
4.62887e-07
3.08751e-06
3.48523e-07
2.46066e-06
2.50874e-07
1.82861e-06
1.72253e-07
1.19427e-06
1.14279e-07
5.60098e-07
7.79119e-08
-7.17594e-08
6.34877e-08
-6.99285e-07
7.07377e-08
-1.32046e-06
9.88046e-08
-1.93311e-06
1.46249e-07
-2.53483e-06
2.11049e-07
-3.12281e-06
2.90598e-07
-3.69377e-06
3.81702e-07
-4.24384e-06
4.80591e-07
-4.76841e-06
5.82937e-07
-5.26207e-06
6.83903e-07
-5.71845e-06
7.78236e-07
-6.13016e-06
8.60404e-07
-6.48863e-06
9.248e-07
-6.78405e-06
9.66039e-07
-7.00531e-06
9.79339e-07
-7.14003e-06
9.61004e-07
-7.17461e-06
9.08994e-07
-7.09446e-06
8.23565e-07
-6.88438e-06
7.07895e-07
-6.5292e-06
5.68641e-07
-6.01462e-06
4.16257e-07
-5.32838e-06
2.64957e-07
-4.4617e-06
1.32158e-07
-3.41076e-06
3.73161e-08
-2.17818e-06
-7.75322e-07
4.65044e-08
8.53614e-07
1.66056e-07
2.39062e-06
3.36658e-07
3.73532e-06
5.36201e-07
4.875e-06
7.44177e-07
5.80521e-06
9.42967e-07
6.52838e-06
1.11868e-06
7.05299e-06
1.26149e-06
7.39231e-06
1.36557e-06
7.56293e-06
1.42868e-06
7.58333e-06
1.45152e-06
7.47266e-06
1.4371e-06
7.24972e-06
1.39004e-06
6.93226e-06
1.31596e-06
6.53652e-06
1.22096e-06
6.07694e-06
1.11122e-06
5.56612e-06
9.92708e-07
5.01482e-06
8.70962e-07
4.43213e-06
7.50954e-07
3.82559e-06
6.37017e-07
3.20145e-06
5.32818e-07
2.56486e-06
4.41347e-07
1.92008e-06
3.64934e-07
1.27068e-06
3.05273e-07
6.19759e-07
2.63446e-07
-2.99325e-08
2.3995e-07
-6.75789e-07
2.34714e-07
-1.31522e-06
2.47116e-07
-1.94551e-06
2.75995e-07
-2.5637e-06
3.1965e-07
-3.16646e-06
3.75854e-07
-3.74998e-06
4.41855e-07
-4.30984e-06
5.14398e-07
-4.84095e-06
5.89757e-07
-5.33743e-06
6.63792e-07
-5.79249e-06
7.32042e-07
-6.19841e-06
7.89865e-07
-6.54645e-06
8.32631e-07
-6.82681e-06
8.55979e-07
-7.02866e-06
8.56157e-07
-7.14021e-06
8.30414e-07
-7.14887e-06
7.77465e-07
-7.04151e-06
6.97969e-07
-6.80488e-06
5.94997e-07
-6.42623e-06
4.74391e-07
-5.89401e-06
3.4494e-07
-5.19893e-06
2.18263e-07
-4.33502e-06
1.08308e-07
-3.30081e-06
3.04401e-08
-2.10031e-06
-7.44882e-07
4.02085e-08
8.13405e-07
1.4437e-07
2.28646e-06
2.94425e-07
3.58526e-06
4.72113e-07
4.69731e-06
6.60252e-07
5.61707e-06
8.4375e-07
6.34488e-06
1.01032e-06
6.88642e-06
1.15085e-06
7.25178e-06
1.25945e-06
7.45433e-06
1.33321e-06
7.50957e-06
1.37182e-06
7.43406e-06
1.37701e-06
7.24452e-06
1.35211e-06
6.95716e-06
1.30146e-06
6.58717e-06
1.23003e-06
6.14838e-06
1.143e-06
5.65315e-06
1.04553e-06
5.1123e-06
9.425e-07
4.53515e-06
8.38406e-07
3.92968e-06
7.37228e-07
3.30263e-06
6.42403e-07
2.65968e-06
5.5679e-07
2.00569e-06
4.82678e-07
1.3448e-06
4.21785e-07
6.80651e-07
3.75285e-07
1.65679e-08
3.43817e-07
-6.44321e-07
3.27508e-07
-1.29891e-06
3.25984e-07
-1.94399e-06
3.38382e-07
-2.5761e-06
3.63358e-07
-3.19144e-06
3.991e-07
-3.78572e-06
4.43339e-07
-4.35408e-06
4.9337e-07
-4.89098e-06
5.46093e-07
-5.39015e-06
5.98068e-07
-5.84446e-06
6.45605e-07
-6.24595e-06
6.84888e-07
-6.58574e-06
7.12151e-07
-6.85407e-06
7.23896e-07
-7.04041e-06
7.17176e-07
-7.13349e-06
6.89915e-07
-7.12161e-06
6.41268e-07
-6.99286e-06
5.71993e-07
-6.73561e-06
4.84779e-07
-6.33901e-06
3.84492e-07
-5.79372e-06
2.78263e-07
-5.0927e-06
1.75346e-07
-4.2321e-06
8.67019e-08
-3.21217e-06
2.429e-08
-2.0379e-06
-7.20592e-07
3.44431e-08
7.78962e-07
1.24251e-07
2.19665e-06
2.54656e-07
3.45486e-06
4.10655e-07
4.54131e-06
5.77969e-07
5.44976e-06
7.43822e-07
6.17903e-06
8.97539e-07
6.7327e-06
1.0309e-06
7.11842e-06
1.13824e-06
7.34699e-06
1.21636e-06
7.43145e-06
1.26424e-06
7.38618e-06
1.28269e-06
7.22607e-06
1.27396e-06
6.9659e-06
1.24131e-06
6.61981e-06
1.18867e-06
6.20101e-06
1.12031e-06
5.72151e-06
1.04057e-06
5.19204e-06
9.53658e-07
4.62206e-06
8.63532e-07
4.01981e-06
7.73767e-07
3.39239e-06
6.87503e-07
2.74595e-06
6.07412e-07
2.08578e-06
5.35683e-07
1.41653e-06
4.74019e-07
7.42316e-07
4.23648e-07
6.69392e-08
3.85333e-07
-6.06006e-07
3.59388e-07
-1.27297e-06
3.45687e-07
-1.93029e-06
3.43676e-07
-2.57409e-06
3.52386e-07
-3.20015e-06
3.7044e-07
-3.80377e-06
3.96071e-07
-4.37971e-06
4.27143e-07
-4.92206e-06
4.61184e-07
-5.42419e-06
4.95443e-07
-5.87872e-06
5.26961e-07
-6.27747e-06
5.52685e-07
-6.61146e-06
5.69604e-07
-6.87099e-06
5.74938e-07
-7.04574e-06
5.6636e-07
-7.12491e-06
5.4225e-07
-7.0975e-06
5.01973e-07
-6.95258e-06
4.46158e-07
-6.67979e-06
3.76939e-07
-6.26979e-06
2.98117e-07
-5.7149e-06
2.1521e-07
-5.00979e-06
1.35314e-07
-4.15221e-06
6.67818e-08
-3.14363e-06
1.86785e-08
-1.9898e-06
-7.01913e-07
2.9079e-08
7.49883e-07
1.05328e-07
2.1204e-06
2.16791e-07
3.34339e-06
3.5128e-07
4.40682e-06
4.97075e-07
5.30396e-06
6.43529e-07
6.03258e-06
7.81547e-07
6.59468e-06
9.03903e-07
6.99606e-06
1.00537e-06
7.24552e-06
1.08271e-06
7.35412e-06
1.13449e-06
7.33441e-06
1.16083e-06
7.19973e-06
1.16313e-06
6.96359e-06
1.14375e-06
6.63919e-06
1.1057e-06
6.23906e-06
1.05238e-06
5.77483e-06
9.8736e-07
5.25706e-06
9.14176e-07
4.69525e-06
8.36218e-07
4.09777e-06
7.56611e-07
3.472e-06
6.78158e-07
2.8244e-06
6.03291e-07
2.16065e-06
5.34052e-07
1.48576e-06
4.72088e-07
8.0428e-07
4.18648e-07
1.20379e-07
3.74596e-07
-5.61954e-07
3.40415e-07
-1.23878e-06
3.16221e-07
-1.90609e-06
3.01769e-07
-2.55964e-06
2.96467e-07
-3.19485e-06
2.99383e-07
-3.80669e-06
3.09256e-07
-4.38958e-06
3.24522e-07
-4.93732e-06
3.43331e-07
-5.443e-06
3.63599e-07
-5.89899e-06
3.8306e-07
-6.29693e-06
3.99355e-07
-6.62775e-06
4.10141e-07
-6.88178e-06
4.13234e-07
-7.04883e-06
4.06778e-07
-7.11846e-06
3.89444e-07
-7.08016e-06
3.60634e-07
-6.92378e-06
3.20695e-07
-6.63986e-06
2.71089e-07
-6.22019e-06
2.14514e-07
-5.65833e-06
1.5493e-07
-4.95021e-06
9.7453e-08
-4.09473e-06
4.81142e-08
-3.09429e-06
1.34628e-08
-1.95515e-06
-6.8845e-07
2.40163e-08
7.25867e-07
8.73072e-08
2.05711e-06
1.80378e-07
3.25032e-06
2.93518e-07
4.29368e-06
4.17303e-07
5.18018e-06
5.43053e-07
5.90683e-06
6.63208e-07
6.47453e-06
7.71593e-07
6.88768e-06
8.63567e-07
7.15354e-06
9.3603e-07
7.28165e-06
9.87344e-07
7.28309e-06
1.01717e-06
7.16991e-06
1.02624e-06
6.95452e-06
1.01615e-06
6.64928e-06
9.8911e-07
6.2661e-06
9.47731e-07
5.81621e-06
8.94837e-07
5.30996e-06
8.3331e-07
4.75677e-06
7.65962e-07
4.16512e-06
6.95444e-07
3.54252e-06
6.24182e-07
2.89566e-06
5.54329e-07
2.2305e-06
4.87742e-07
1.55235e-06
4.25972e-07
8.6605e-07
3.70261e-07
1.7609e-07
3.21541e-07
-5.13235e-07
2.80448e-07
-1.19769e-06
2.47323e-07
-1.87297e-06
2.22222e-07
-2.53454e-06
2.04926e-07
-3.17755e-06
1.94944e-07
-3.79671e-06
1.91521e-07
-4.38616e-06
1.93655e-07
-4.93945e-06
2.00109e-07
-5.44945e-06
2.0944e-07
-5.90832e-06
2.20039e-07
-6.30753e-06
2.30189e-07
-6.6379e-06
2.38138e-07
-6.88973e-06
2.42205e-07
-7.0529e-06
2.40898e-07
-7.11715e-06
2.33054e-07
-7.07232e-06
2.17996e-07
-6.90872e-06
1.95681e-07
-6.61754e-06
1.66829e-07
-6.19134e-06
1.33021e-07
-5.62452e-06
9.67144e-08
-4.9139e-06
6.11848e-08
-4.0592e-06
3.03561e-08
-3.06347e-06
8.53187e-09
-1.93332e-06
-6.79918e-07
1.91755e-08
7.06691e-07
6.99526e-08
2.00634e-06
1.45043e-07
3.17523e-06
2.36963e-07
4.20176e-06
3.38388e-07
5.07875e-06
4.42474e-07
5.80274e-06
5.43146e-07
6.37386e-06
6.35316e-07
6.79551e-06
7.15011e-07
7.07385e-06
7.79424e-07
7.21724e-06
8.2687e-07
7.23565e-06
8.56696e-07
7.14008e-06
8.69134e-07
6.94208e-06
8.6514e-07
6.65327e-06
8.46219e-07
6.28502e-06
8.14264e-07
5.84816e-06
7.71401e-07
5.35282e-06
7.19866e-07
4.80831e-06
6.61896e-07
4.22309e-06
5.99649e-07
3.60476e-06
5.35148e-07
2.96016e-06
4.70235e-07
2.29541e-06
4.06548e-07
1.61604e-06
3.45508e-07
9.2709e-07
2.88314e-07
2.33284e-07
2.35943e-07
-4.60864e-07
1.89157e-07
-1.1509e-06
1.48504e-07
-1.83231e-06
1.14327e-07
-2.50036e-06
8.67659e-08
-3.14999e-06
6.57616e-08
-3.7757e-06
5.10579e-08
-4.37146e-06
4.22042e-08
-4.9306e-06
3.85607e-08
-5.44581e-06
3.93076e-08
-5.90907e-06
4.34628e-08
-6.31168e-06
4.99094e-08
-6.64435e-06
5.74376e-08
-6.89726e-06
6.48026e-08
-7.06027e-06
7.07999e-08
-7.12315e-06
7.43561e-08
-7.07587e-06
7.4632e-08
-6.90899e-06
7.11293e-08
-6.61404e-06
6.37893e-08
-6.184e-06
5.30686e-08
-5.6138e-06
3.99735e-08
-4.9008e-06
2.60378e-08
-4.04527e-06
1.32314e-08
-3.05066e-06
3.79733e-09
-1.92389e-06
-6.76121e-07
1.44905e-08
6.92201e-07
5.30645e-08
1.96776e-06
1.1046e-07
3.11784e-06
1.81251e-07
4.13097e-06
2.60063e-07
4.99994e-06
3.41795e-07
5.72101e-06
4.21815e-07
6.29384e-06
4.96133e-07
6.72119e-06
5.61513e-07
7.00847e-06
6.15531e-07
7.16322e-06
6.56576e-07
7.1946e-06
6.83804e-07
7.11286e-06
6.97057e-07
6.92883e-06
6.96756e-07
6.65358e-06
6.83785e-07
6.29799e-06
6.59377e-07
5.87257e-06
6.24999e-07
5.3872e-06
5.82258e-07
4.85105e-06
5.32818e-07
4.27253e-06
4.78335e-07
3.65925e-06
4.20406e-07
3.01809e-06
3.60534e-07
2.35529e-06
3.00109e-07
1.67646e-06
2.40389e-07
9.86809e-07
1.82502e-07
2.91171e-07
1.2744e-07
-4.05802e-07
7.60629e-08
-1.09953e-06
2.91047e-08
-1.78536e-06
-1.28263e-08
-2.45843e-06
-4.92455e-08
-3.11357e-06
-7.97943e-08
-3.74515e-06
-1.04244e-07
-4.34701e-06
-1.22504e-07
-4.91234e-06
-1.34628e-07
-5.43369e-06
-1.40829e-07
-5.90287e-06
-1.41479e-07
-6.31103e-06
-1.37119e-07
-6.64871e-06
-1.28447e-07
-6.90593e-06
-1.16307e-07
-7.07241e-06
-1.01658e-07
-7.1378e-06
-8.55289e-08
-7.092e-06
-6.89647e-08
-6.92556e-06
-5.29531e-08
-6.63005e-06
-3.83536e-08
-6.19859e-06
-2.58284e-08
-5.62632e-06
-1.57903e-08
-4.91084e-06
-8.38063e-09