/*--------------------------------*- C++ -*----------------------------------*\
  =========                 |
  \\      /  F ield         | OpenFOAM: The Open Source CFD Toolbox
   \\    /   O peration     | Website:  https://openfoam.org
    \\  /    A nd           | Version:  7
     \\/     M anipulation  |
\*---------------------------------------------------------------------------*/
FoamFile
{
    version     2.0;
    format      ascii;
    class       volVectorField;
    location    "0.065";
    object      U;
}
// * * * * * * * * * * * * * * * * * * * * * * * * * * * * * * * * * * * * * //

dimensions      [0 1 -1 0 0 0 0];

internalField   nonuniform List<vector> 
2500
(
(-0.293797 0.153718 0)
(-0.397928 0.128718 0)
(-0.577969 0.0737926 0)
(-0.69627 0.0408778 0)
(-0.765273 0.0233998 0)
(-0.809633 0.0141491 0)
(-0.840252 0.0091658 0)
(-0.862378 0.00635993 0)
(-0.879044 0.0046728 0)
(-0.892032 0.00358453 0)
(-0.902415 0.002837 0)
(-0.910872 0.00229623 0)
(-0.917856 0.0018884 0)
(-0.923679 0.00157019 0)
(-0.928565 0.00131464 0)
(-0.932675 0.00110407 0)
(-0.93613 0.000926391 0)
(-0.939018 0.000773049 0)
(-0.941409 0.000637803 0)
(-0.943352 0.000515988 0)
(-0.944886 0.000404028 0)
(-0.946038 0.000299114 0)
(-0.946829 0.000198982 0)
(-0.947271 0.000101749 0)
(-0.947371 5.79177e-06 0)
(-0.947132 -9.03876e-05 0)
(-0.946552 -0.00018817 0)
(-0.945622 -0.000288965 0)
(-0.944331 -0.000394286 0)
(-0.942662 -0.000505846 0)
(-0.94059 -0.000625685 0)
(-0.938086 -0.000756344 0)
(-0.93511 -0.000901093 0)
(-0.931609 -0.00106427 0)
(-0.927517 -0.00125181 0)
(-0.922744 -0.00147199 0)
(-0.917175 -0.00173681 0)
(-0.91065 -0.00206418 0)
(-0.902951 -0.00248212 0)
(-0.893769 -0.00303654 0)
(-0.882654 -0.00380705 0)
(-0.868923 -0.00493914 0)
(-0.851494 -0.00671163 0)
(-0.828565 -0.00967589 0)
(-0.797123 -0.0149195 0)
(-0.752021 -0.0244965 0)
(-0.682512 -0.0421425 0)
(-0.564906 -0.0746088 0)
(-0.389297 -0.128118 0)
(-0.290202 -0.152368 0)
(-0.00515827 0.302899 0)
(-0.0270655 0.307345 0)
(-0.171359 0.217808 0)
(-0.308279 0.146613 0)
(-0.417268 0.0992572 0)
(-0.502591 0.0690112 0)
(-0.569086 0.0497704 0)
(-0.621156 0.0372379 0)
(-0.662478 0.02876 0)
(-0.695774 0.0227891 0)
(-0.722979 0.0184232 0)
(-0.745466 0.0151228 0)
(-0.764226 0.0125537 0)
(-0.779978 0.010501 0)
(-0.793256 0.0088216 0)
(-0.804456 0.00741672 0)
(-0.813881 0.00621649 0)
(-0.821758 0.00517002 0)
(-0.828262 0.00423944 0)
(-0.833526 0.00339592 0)
(-0.83765 0.00261707 0)
(-0.840708 0.00188504 0)
(-0.842754 0.00118531 0)
(-0.843823 0.000505651 0)
(-0.843937 -0.000164564 0)
(-0.843102 -0.000835016 0)
(-0.841313 -0.00151492 0)
(-0.838552 -0.00221358 0)
(-0.834788 -0.00294093 0)
(-0.829979 -0.00370812 0)
(-0.824062 -0.00452834 0)
(-0.816961 -0.00541774 0)
(-0.808572 -0.00639682 0)
(-0.798765 -0.00749228 0)
(-0.787371 -0.00873975 0)
(-0.774172 -0.0101878 0)
(-0.758881 -0.0119042 0)
(-0.741122 -0.0139859 0)
(-0.720391 -0.016575 0)
(-0.696006 -0.0198867 0)
(-0.667034 -0.0242567 0)
(-0.632178 -0.0302262 0)
(-0.58963 -0.0386914 0)
(-0.536875 -0.0511647 0)
(-0.470596 -0.0701746 0)
(-0.38694 -0.0996692 0)
(-0.28172 -0.145071 0)
(-0.151444 -0.212578 0)
(-0.0164067 -0.298155 0)
(-0.000977609 -0.294656 0)
(0.0321093 0.264053 0)
(0.05634 0.362372 0)
(-0.00372971 0.325049 0)
(-0.0960874 0.260648 0)
(-0.192588 0.201026 0)
(-0.281533 0.154025 0)
(-0.358798 0.119118 0)
(-0.424167 0.0935526 0)
(-0.47899 0.0746949 0)
(-0.524943 0.0605567 0)
(-0.563574 0.049743 0)
(-0.596181 0.0412958 0)
(-0.623806 0.0345576 0)
(-0.647269 0.029072 0)
(-0.667212 0.0245171 0)
(-0.684139 0.0206614 0)
(-0.69844 0.0173356 0)
(-0.710423 0.0144133 0)
(-0.720326 0.0117985 0)
(-0.728333 0.00941713 0)
(-0.734586 0.00721057 0)
(-0.739193 0.00513185 0)
(-0.74223 0.00314226 0)
(-0.743752 0.00120903 0)
(-0.74379 -0.000696489 0)
(-0.742356 -0.00260039 0)
(-0.739446 -0.00452759 0)
(-0.735037 -0.00650314 0)
(-0.729089 -0.0085536 0)
(-0.721542 -0.0107086 0)
(-0.712316 -0.0130026 0)
(-0.701306 -0.0154776 0)
(-0.688378 -0.0181858 0)
(-0.673359 -0.0211941 0)
(-0.656033 -0.0245903 0)
(-0.636125 -0.0284911 0)
(-0.613289 -0.0330545 0)
(-0.587082 -0.0384984 0)
(-0.556943 -0.0451272 0)
(-0.52216 -0.0533735 0)
(-0.481841 -0.0638585 0)
(-0.434894 -0.0774805 0)
(-0.380054 -0.0955309 0)
(-0.316025 -0.119817 0)
(-0.241941 -0.152676 0)
(-0.15849 -0.196436 0)
(-0.0699847 -0.251265 0)
(0.0122802 -0.309845 0)
(0.0620483 -0.343159 0)
(0.0330423 -0.249866 0)
(0.0271394 0.205274 0)
(0.0636667 0.357964 0)
(0.0548977 0.375924 0)
(0.00739872 0.338908 0)
(-0.0604386 0.286383 0)
(-0.134278 0.235619 0)
(-0.205958 0.192375 0)
(-0.271696 0.157342 0)
(-0.33022 0.129468 0)
(-0.381514 0.107335 0)
(-0.426114 0.0896484 0)
(-0.464736 0.075358 0)
(-0.498104 0.0636545 0)
(-0.526875 0.0539261 0)
(-0.551614 0.0457122 0)
(-0.572794 0.0386649 0)
(-0.590807 0.0325191 0)
(-0.60597 0.0270712 0)
(-0.618537 0.0221622 0)
(-0.628712 0.0176668 0)
(-0.636655 0.0134846 0)
(-0.642488 0.00953377 0)
(-0.646303 0.00574608 0)
(-0.648163 0.00206344 0)
(-0.648108 -0.00156527 0)
(-0.646157 -0.0051867 0)
(-0.642308 -0.00884527 0)
(-0.63654 -0.0125854 0)
(-0.628812 -0.0164538 0)
(-0.619064 -0.0205018 0)
(-0.607212 -0.0247887 0)
(-0.593149 -0.0293848 0)
(-0.576738 -0.0343766 0)
(-0.557811 -0.0398724 0)
(-0.536158 -0.0460109 0)
(-0.511527 -0.0529712 0)
(-0.483609 -0.0609879 0)
(-0.452039 -0.0703707 0)
(-0.416388 -0.0815303 0)
(-0.376178 -0.0950113 0)
(-0.330907 -0.11153 0)
(-0.280132 -0.132005 0)
(-0.22364 -0.157551 0)
(-0.161789 -0.18935 0)
(-0.0961312 -0.228207 0)
(-0.0304701 -0.273313 0)
(0.0275504 -0.31932 0)
(0.0649412 -0.350674 0)
(0.0657507 -0.331821 0)
(0.0268777 -0.189851 0)
(0.0184359 0.163549 0)
(0.052968 0.331895 0)
(0.068132 0.387567 0)
(0.0520921 0.380533 0)
(0.0120224 0.345091 0)
(-0.0413496 0.300804 0)
(-0.0998523 0.25723 0)
(-0.158274 0.218215 0)
(-0.213669 0.184762 0)
(-0.264604 0.156623 0)
(-0.310561 0.133097 0)
(-0.35152 0.113394 0)
(-0.387714 0.0967879 0)
(-0.419479 0.0826605 0)
(-0.447176 0.0705054 0)
(-0.47115 0.0599147 0)
(-0.491712 0.0505621 0)
(-0.509133 0.0421863 0)
(-0.523641 0.0345772 0)
(-0.535427 0.0275647 0)
(-0.544643 0.0210095 0)
(-0.551412 0.014796 0)
(-0.555826 0.00882679 0)
(-0.557953 0.00301803 0)
(-0.557837 -0.00270457 0)
(-0.555503 -0.00840887 0)
(-0.550954 -0.0141594 0)
(-0.544176 -0.02002 0)
(-0.535138 -0.0260573 0)
(-0.523789 -0.0323432 0)
(-0.51006 -0.0389593 0)
(-0.493862 -0.0460006 0)
(-0.475086 -0.0535809 0)
(-0.453599 -0.0618396 0)
(-0.429249 -0.0709492 0)
(-0.401858 -0.0811254 0)
(-0.371233 -0.0926388 0)
(-0.337174 -0.105828 0)
(-0.299495 -0.121114 0)
(-0.258065 -0.139006 0)
(-0.212886 -0.160098 0)
(-0.164224 -0.185018 0)
(-0.112825 -0.214295 0)
(-0.0602661 -0.248036 0)
(-0.00943179 -0.285237 0)
(0.0349061 -0.32242 0)
(0.0655726 -0.351177 0)
(0.0734335 -0.354367 0)
(0.0532081 -0.301702 0)
(0.0179156 -0.148263 0)
(0.0119296 0.134834 0)
(0.0406456 0.301149 0)
(0.0647733 0.378965 0)
(0.0675482 0.396919 0)
(0.048772 0.380628 0)
(0.0145104 0.347901 0)
(-0.0289598 0.309506 0)
(-0.0766293 0.271236 0)
(-0.124969 0.235807 0)
(-0.171732 0.204207 0)
(-0.215621 0.176535 0)
(-0.255974 0.152482 0)
(-0.292526 0.131588 0)
(-0.325245 0.113366 0)
(-0.354229 0.097365 0)
(-0.379638 0.0831867 0)
(-0.401654 0.0704911 0)
(-0.420458 0.0589919 0)
(-0.43622 0.0484496 0)
(-0.449087 0.0386638 0)
(-0.459187 0.0294662 0)
(-0.466627 0.0207142 0)
(-0.47149 0.0122858 0)
(-0.47384 0.00407444 0)
(-0.473723 -0.00401469 0)
(-0.471166 -0.0120685 0)
(-0.466182 -0.0201691 0)
(-0.458767 -0.0283976 0)
(-0.448904 -0.0368367 0)
(-0.436565 -0.0455747 0)
(-0.421705 -0.054709 0)
(-0.404272 -0.0643505 0)
(-0.384203 -0.0746286 0)
(-0.361429 -0.0856963 0)
(-0.335877 -0.0977361 0)
(-0.307483 -0.110967 0)
(-0.276203 -0.125647 0)
(-0.242036 -0.14208 0)
(-0.205062 -0.160607 0)
(-0.165499 -0.181587 0)
(-0.123795 -0.205345 0)
(-0.0807613 -0.232066 0)
(-0.0377569 -0.261572 0)
(0.00307104 -0.292931 0)
(0.0385522 -0.32375 0)
(0.0643954 -0.34906 0)
(0.0754317 -0.359693 0)
(0.066925 -0.34042 0)
(0.0400865 -0.268998 0)
(0.0114453 -0.119995 0)
(0.00783994 0.114398 0)
(0.0308608 0.272153 0)
(0.056757 0.361371 0)
(0.0695015 0.397608 0)
(0.065232 0.398581 0)
(0.0463113 0.378809 0)
(0.0167255 0.348544 0)
(-0.0195385 0.31431 0)
(-0.0591457 0.279896 0)
(-0.0996067 0.247279 0)
(-0.139208 0.217329 0)
(-0.176844 0.190282 0)
(-0.211851 0.166041 0)
(-0.243867 0.144347 0)
(-0.272727 0.124884 0)
(-0.298388 0.107328 0)
(-0.320882 0.0913725 0)
(-0.340279 0.0767438 0)
(-0.356664 0.0631993 0)
(-0.370128 0.0505279 0)
(-0.380757 0.0385467 0)
(-0.38863 0.0270966 0)
(-0.393812 0.0160389 0)
(-0.396357 0.00525088 0)
(-0.396308 -0.00537769 0)
(-0.393695 -0.015948 0)
(-0.388538 -0.0265554 0)
(-0.380848 -0.0372929 0)
(-0.370627 -0.0482539 0)
(-0.357872 -0.0595359 0)
(-0.342574 -0.0712437 0)
(-0.324725 -0.0834929 0)
(-0.30432 -0.0964135 0)
(-0.281363 -0.110153 0)
(-0.255877 -0.124879 0)
(-0.227917 -0.140781 0)
(-0.197591 -0.158066 0)
(-0.165087 -0.176949 0)
(-0.13072 -0.197632 0)
(-0.0949825 -0.220258 0)
(-0.0586345 -0.244834 0)
(-0.0227992 -0.271083 0)
(0.0109162 -0.298207 0)
(0.0403149 -0.324508 0)
(0.0625926 -0.346818 0)
(0.0745453 -0.359731 0)
(0.0731433 -0.354747 0)
(0.0568973 -0.319696 0)
(0.029947 -0.239393 0)
(0.00743618 -0.100143 0)
(0.00539011 0.0994069 0)
(0.0238229 0.246706 0)
(0.0484534 0.340587 0)
(0.0657912 0.389152 0)
(0.0706721 0.404137 0)
(0.0630725 0.396638 0)
(0.0450215 0.375534 0)
(0.0192768 0.34722 0)
(-0.0114219 0.315941 0)
(-0.0447393 0.284306 0)
(-0.0788589 0.253791 0)
(-0.112452 0.225133 0)
(-0.144595 0.198612 0)
(-0.174673 0.17424 0)
(-0.2023 0.151884 0)
(-0.227249 0.13134 0)
(-0.249402 0.112379 0)
(-0.26871 0.0947714 0)
(-0.28517 0.0782976 0)
(-0.298804 0.0627571 0)
(-0.309647 0.0479684 0)
(-0.317742 0.033769 0)
(-0.32313 0.0200136 0)
(-0.32585 0.00657157 0)
(-0.325937 -0.00667542 0)
(-0.323424 -0.0198364 0)
(-0.318336 -0.0330138 0)
(-0.3107 -0.0463058 0)
(-0.300538 -0.0598098 0)
(-0.287874 -0.0736242 0)
(-0.272739 -0.0878513 0)
(-0.255172 -0.1026 0)
(-0.235227 -0.117986 0)
(-0.212982 -0.134134 0)
(-0.188552 -0.151177 0)
(-0.162103 -0.169248 0)
(-0.133874 -0.188473 0)
(-0.104207 -0.20895 0)
(-0.0735856 -0.230717 0)
(-0.0426837 -0.253687 0)
(-0.0124217 -0.277562 0)
(0.0159725 -0.301679 0)
(0.0409168 -0.324794 0)
(0.0604769 -0.344775 0)
(0.0724852 -0.358199 0)
(0.0748809 -0.359916 0)
(0.0663249 -0.342723 0)
(0.0472783 -0.297466 0)
(0.0227142 -0.214187 0)
(0.00504395 -0.0857948 0)
(0.00390385 0.0880098 0)
(0.0188475 0.224871 0)
(0.0411855 0.319468 0)
(0.0601122 0.375812 0)
(0.0703929 0.401473 0)
(0.0706908 0.404606 0)
(0.0616226 0.392472 0)
(0.044837 0.370849 0)
(0.0223586 0.343976 0)
(-0.00384417 0.314757 0)
(-0.0320693 0.285067 0)
(-0.0609464 0.256033 0)
(-0.089427 0.22827 0)
(-0.11674 0.202057 0)
(-0.142337 0.177463 0)
(-0.165842 0.15443 0)
(-0.187007 0.132834 0)
(-0.205675 0.112512 0)
(-0.221755 0.0932936 0)
(-0.235197 0.0750061 0)
(-0.245985 0.0574858 0)
(-0.25412 0.04058 0)
(-0.259615 0.0241477 0)
(-0.262492 0.00806 0)
(-0.262776 -0.00780162 0)
(-0.260497 -0.0235465 0)
(-0.255687 -0.0392768 0)
(-0.248384 -0.0550892 0)
(-0.238631 -0.0710768 0)
(-0.226481 -0.0873311 0)
(-0.211999 -0.103943 0)
(-0.195269 -0.121002 0)
(-0.1764 -0.1386 0)
(-0.155538 -0.156825 0)
(-0.132875 -0.175756 0)
(-0.108666 -0.195459 0)
(-0.0832506 -0.215964 0)
(-0.0570761 -0.237242 0)
(-0.0307289 -0.259166 0)
(-0.00496623 -0.281444 0)
(0.019252 -0.303528 0)
(0.0407432 -0.324481 0)
(0.058111 -0.342801 0)
(0.0698143 -0.3562 0)
(0.0743498 -0.36136 0)
(0.0706048 -0.353735 0)
(0.0583777 -0.327541 0)
(0.0391123 -0.276139 0)
(0.0176048 -0.193147 0)
(0.00359032 -0.0750793 0)
(0.00296426 0.079031 0)
(0.0152809 0.206192 0)
(0.0351661 0.299314 0)
(0.0540998 0.360195 0)
(0.0673128 0.393637 0)
(0.0728726 0.405488 0)
(0.0704894 0.401474 0)
(0.0609443 0.386555 0)
(0.045589 0.364674 0)
(0.025952 0.33877 0)
(0.00349958 0.310918 0)
(-0.0204829 0.282508 0)
(-0.0449329 0.254416 0)
(-0.0690085 0.227157 0)
(-0.0920647 0.200991 0)
(-0.11362 0.176013 0)
(-0.133326 0.152214 0)
(-0.150934 0.12952 0)
(-0.166275 0.107821 0)
(-0.179237 0.086989 0)
(-0.189749 0.0668927 0)
(-0.197772 0.0474006 0)
(-0.203291 0.0283871 0)
(-0.206306 0.00973396 0)
(-0.206832 -0.00866884 0)
(-0.204894 -0.0269234 0)
(-0.200528 -0.0451242 0)
(-0.193782 -0.0633592 0)
(-0.184715 -0.0817103 0)
(-0.173405 -0.100254 0)
(-0.159948 -0.119061 0)
(-0.144467 -0.138196 0)
(-0.127116 -0.157714 0)
(-0.108093 -0.177658 0)
(-0.087651 -0.198049 0)
(-0.0661082 -0.218874 0)
(-0.0438685 -0.240067 0)
(-0.0214379 -0.26148 0)
(0.00055545 -0.282841 0)
(0.0213452 -0.303691 0)
(0.0400182 -0.323305 0)
(0.0555246 -0.340586 0)
(0.0667218 -0.353931 0)
(0.0724765 -0.361096 0)
(0.0718563 -0.359065 0)
(0.064439 -0.344017 0)
(0.0506984 -0.31146 0)
(0.0324554 -0.256678 0)
(0.0139358 -0.175648 0)
(0.00266814 -0.0668177 0)
(0.00233895 0.0717438 0)
(0.0126565 0.19014 0)
(0.0302539 0.280628 0)
(0.0484093 0.343827 0)
(0.0629882 0.38273 0)
(0.0718877 0.40147 0)
(0.0742966 0.404455 0)
(0.0703789 0.3958 0)
(0.0609278 0.379008 0)
(0.0470449 0.356877 0)
(0.0299133 0.331525 0)
(0.0106604 0.304481 0)
(-0.00971496 0.276807 0)
(-0.0303701 0.249196 0)
(-0.0506197 0.22208 0)
(-0.069922 0.195696 0)
(-0.087859 0.170151 0)
(-0.104115 0.145464 0)
(-0.118458 0.121598 0)
(-0.130719 0.098481 0)
(-0.140783 0.0760228 0)
(-0.148574 0.0541241 0)
(-0.154046 0.0326838 0)
(-0.157181 0.0116031 0)
(-0.157979 -0.00921178 0)
(-0.156461 -0.0298484 0)
(-0.152661 -0.0503869 0)
(-0.146636 -0.0708998 0)
(-0.138458 -0.0914511 0)
(-0.128222 -0.112096 0)
(-0.116049 -0.13288 0)
(-0.102091 -0.153833 0)
(-0.0865365 -0.174973 0)
(-0.0696219 -0.196289 0)
(-0.0516377 -0.217743 0)
(-0.0329409 -0.239245 0)
(-0.0139667 -0.26064 0)
(0.0047601 -0.281676 0)
(0.0226168 -0.301964 0)
(0.0388793 -0.320928 0)
(0.0527311 -0.337736 0)
(0.0632929 -0.351222 0)
(0.0696838 -0.3598 0)
(0.0711304 -0.361387 0)
(0.0671403 -0.353361 0)
(0.0577471 -0.332603 0)
(0.0437732 -0.295701 0)
(0.0270802 -0.23935 0)
(0.0112324 -0.161051 0)
(0.00205264 -0.0602802 0)
(0.00190063 0.0656912 0)
(0.0106662 0.176248 0)
(0.0262321 0.263546 0)
(0.0432507 0.327575 0)
(0.0582219 0.370163 0)
(0.0690998 0.394197 0)
(0.0748152 0.403017 0)
(0.0751268 0.399958 0)
(0.0704007 0.388038 0)
(0.0613676 0.369809 0)
(0.0489292 0.347322 0)
(0.0340232 0.322151 0)
(0.0175384 0.295458 0)
(0.000268957 0.26807 0)
(-0.0171055 0.240548 0)
(-0.0340211 0.213257 0)
(-0.0500223 0.186411 0)
(-0.0647489 0.160121 0)
(-0.0779225 0.134427 0)
(-0.0893328 0.109317 0)
(-0.0988255 0.0847495 0)
(-0.106292 0.0606658 0)
(-0.111662 0.0369963 0)
(-0.114896 0.0136687 0)
(-0.115981 -0.00938774 0)
(-0.114931 -0.0322397 0)
(-0.111779 -0.054947 0)
(-0.106583 -0.0775609 0)
(-0.0994246 -0.100123 0)
(-0.0904107 -0.122662 0)
(-0.0796786 -0.145191 0)
(-0.0673994 -0.167708 0)
(-0.0537842 -0.190183 0)
(-0.0390903 -0.212558 0)
(-0.0236286 -0.234732 0)
(-0.00777113 -0.256549 0)
(0.00804228 -0.277774 0)
(0.023299 -0.298073 0)
(0.0374134 -0.316974 0)
(0.0497337 -0.333823 0)
(0.0595621 -0.347742 0)
(0.0661943 -0.357567 0)
(0.0689852 -0.361801 0)
(0.0674505 -0.358584 0)
(0.0614106 -0.345698 0)
(0.0511724 -0.320653 0)
(0.0376968 -0.28089 0)
(0.0227196 -0.224117 0)
(0.0091831 -0.148815 0)
(0.00162084 -0.0550035 0)
(0.00157842 0.0605752 0)
(0.00911019 0.164143 0)
(0.0228994 0.24804 0)
(0.038643 0.311925 0)
(0.053409 0.356874 0)
(0.0653158 0.38488 0)
(0.0732032 0.398448 0)
(0.0765855 0.400237 0)
(0.0755225 0.392788 0)
(0.0704458 0.378367 0)
(0.0620037 0.358885 0)
(0.0509417 0.335885 0)
(0.0380169 0.310571 0)
(0.0239441 0.283848 0)
(0.00936467 0.256376 0)
(-0.0051663 0.228617 0)
(-0.0191823 0.200882 0)
(-0.0323005 0.173367 0)
(-0.0442143 0.146184 0)
(-0.0546833 0.119386 0)
(-0.0635243 0.0929839 0)
(-0.070603 0.0669623 0)
(-0.0758267 0.0412891 0)
(-0.0791387 0.0159243 0)
(-0.0805137 -0.00917504 0)
(-0.079955 -0.0340493 0)
(-0.0774931 -0.0587333 0)
(-0.073185 -0.083253 0)
(-0.067115 -0.107623 0)
(-0.0593965 -0.131841 0)
(-0.050175 -0.155891 0)
(-0.0396313 -0.179728 0)
(-0.0279861 -0.203283 0)
(-0.0155047 -0.226447 0)
(-0.00250164 -0.249065 0)
(0.0106549 -0.27092 0)
(0.0235408 -0.291717 0)
(0.035676 -0.311056 0)
(0.0465309 -0.328411 0)
(0.0555395 -0.343092 0)
(0.0621256 -0.354215 0)
(0.065745 -0.360665 0)
(0.0659481 -0.361078 0)
(0.0624671 -0.353831 0)
(0.0553292 -0.337086 0)
(0.044985 -0.308882 0)
(0.0324086 -0.26732 0)
(0.019141 -0.210826 0)
(0.00758583 -0.138512 0)
(0.00130402 -0.0506826 0)
(0.00133156 0.0561952 0)
(0.00785812 0.153534 0)
(0.0200925 0.234018 0)
(0.034532 0.297139 0)
(0.0487288 0.343479 0)
(0.0610057 0.374399 0)
(0.0702112 0.391758 0)
(0.0757294 0.397653 0)
(0.0774132 0.394192 0)
(0.0754659 0.383342 0)
(0.0703227 0.366839 0)
(0.0625513 0.346148 0)
(0.0527731 0.322464 0)
(0.0416083 0.296729 0)
(0.0296391 0.269664 0)
(0.0173896 0.241808 0)
(0.00531595 0.213549 0)
(-0.00619525 0.185156 0)
(-0.0168245 0.156812 0)
(-0.0263141 0.128629 0)
(-0.0344616 0.100671 0)
(-0.0411136 0.0729699 0)
(-0.0461603 0.0455335 0)
(-0.0495298 0.018357 0)
(-0.0511848 -0.00857018 0)
(-0.0511195 -0.0352591 0)
(-0.049358 -0.061716 0)
(-0.0459535 -0.0879383 0)
(-0.0409888 -0.113911 0)
(-0.0345776 -0.139601 0)
(-0.0268662 -0.164957 0)
(-0.0180362 -0.189897 0)
(-0.00830763 -0.214311 0)
(0.00205821 -0.238045 0)
(0.0127562 -0.260896 0)
(0.0234359 -0.282596 0)
(0.0337027 -0.302802 0)
(0.0431216 -0.321072 0)
(0.0512275 -0.336847 0)
(0.0575423 -0.34943 0)
(0.0616025 -0.357961 0)
(0.063 -0.361403 0)
(0.0614378 -0.358537 0)
(0.056801 -0.347975 0)
(0.0492419 -0.328213 0)
(0.0392683 -0.297722 0)
(0.027798 -0.255102 0)
(0.0161599 -0.199293 0)
(0.00630758 -0.129811 0)
(0.00106236 -0.04711 0)
(0.00113556 0.0524115 0)
(0.00682321 0.144198 0)
(0.0176857 0.221375 0)
(0.030842 0.283352 0)
(0.044249 0.330388 0)
(0.0564388 0.363391 0)
(0.0663239 0.38373 0)
(0.0732352 0.393043 0)
(0.0768958 0.393062 0)
(0.0773428 0.385468 0)
(0.074841 0.371808 0)
(0.0698032 0.353443 0)
(0.0627227 0.331521 0)
(0.0541209 0.306988 0)
(0.04451 0.2806 0)
(0.0343685 0.252944 0)
(0.0241266 0.22447 0)
(0.0141598 0.19551 0)
(0.00478703 0.166305 0)
(-0.00372771 0.137025 0)
(-0.0111718 0.107785 0)
(-0.0173799 0.0786624 0)
(-0.0222295 0.0497066 0)
(-0.025637 0.0209499 0)
(-0.0275542 -0.00758441 0)
(-0.0279663 -0.0358754 0)
(-0.0268893 -0.0638988 0)
(-0.0243703 -0.0916218 0)
(-0.0204865 -0.118998 0)
(-0.0153464 -0.145964 0)
(-0.00909095 -0.172433 0)
(-0.00189501 -0.198288 0)
(0.00603062 -0.223379 0)
(0.014438 -0.247513 0)
(0.023041 -0.270446 0)
(0.0315169 -0.291872 0)
(0.0395085 -0.311408 0)
(0.046632 -0.328588 0)
(0.0524882 -0.34284 0)
(0.0566815 -0.353476 0)
(0.0588466 -0.359682 0)
(0.0586853 -0.36051 0)
(0.0560134 -0.354887 0)
(0.050817 -0.34164 0)
(0.0433144 -0.319547 0)
(0.0340157 -0.287426 0)
(0.0237476 -0.244258 0)
(0.0136342 -0.189339 0)
(0.00525889 -0.122459 0)
(0.000871666 -0.0441398 0)
(0.00097504 0.0491246 0)
(0.00594628 0.135967 0)
(0.0155838 0.210012 0)
(0.0274982 0.270631 0)
(0.039982 0.317871 0)
(0.0517657 0.352316 0)
(0.0618534 0.374964 0)
(0.069573 0.387086 0)
(0.0745741 0.39009 0)
(0.0767792 0.385403 0)
(0.0763221 0.374385 0)
(0.0734873 0.358272 0)
(0.0686532 0.338152 0)
(0.0622464 0.314946 0)
(0.0547051 0.289421 0)
(0.0464541 0.262195 0)
(0.0378874 0.23376 0)
(0.0293585 0.204498 0)
(0.0211751 0.174701 0)
(0.0135979 0.144589 0)
(0.00684165 0.114325 0)
(0.00107751 0.0840287 0)
(-0.00356435 0.0537915 0)
(-0.00699163 0.0236826 0)
(-0.0091473 -0.00624023 0)
(-0.0100075 -0.0359235 0)
(-0.00957974 -0.0653116 0)
(-0.00790243 -0.094341 0)
(-0.00504411 -0.122935 0)
(-0.00110391 -0.150997 0)
(0.00378789 -0.178409 0)
(0.00946905 -0.20502 0)
(0.0157447 -0.230646 0)
(0.0223869 -0.255058 0)
(0.0291357 -0.277978 0)
(0.0357014 -0.299068 0)
(0.0417689 -0.317922 0)
(0.0470064 -0.334058 0)
(0.0510778 -0.346904 0)
(0.0536607 -0.355796 0)
(0.0544714 -0.359972 0)
(0.0532964 -0.358576 0)
(0.0500309 -0.350673 0)
(0.0447218 -0.335278 0)
(0.0376124 -0.311404 0)
(0.0291814 -0.278143 0)
(0.0201504 -0.23476 0)
(0.0114561 -0.18081 0)
(0.00437793 -0.116262 0)
(0.000716591 -0.0416676 0)
(0.000839907 0.0462619 0)
(0.00518606 0.128712 0)
(0.013715 0.199838 0)
(0.0244338 0.259003 0)
(0.0359145 0.30611 0)
(0.0470678 0.341511 0)
(0.057001 0.365922 0)
(0.0650703 0.380325 0)
(0.0708922 0.385859 0)
(0.0743149 0.383724 0)
(0.0753759 0.375105 0)
(0.0742568 0.361116 0)
(0.0712378 0.342766 0)
(0.0666582 0.32094 0)
(0.0608844 0.296395 0)
(0.0542841 0.269765 0)
(0.0472093 0.241568 0)
(0.0399836 0.212225 0)
(0.0328956 0.182068 0)
(0.0261954 0.15136 0)
(0.0200931 0.120307 0)
(0.0147597 0.0890694 0)
(0.0103289 0.0577765 0)
(0.00689827 0.0265334 0)
(0.00453199 -0.00456813 0)
(0.00326207 -0.0354427 0)
(0.00308994 -0.0660037 0)
(0.00398733 -0.0961575 0)
(0.00589677 -0.125797 0)
(0.00873175 -0.154797 0)
(0.0123766 -0.183007 0)
(0.0166862 -0.210246 0)
(0.0214864 -0.236299 0)
(0.0265742 -0.260907 0)
(0.0317197 -0.283764 0)
(0.0366693 -0.304509 0)
(0.0411512 -0.322718 0)
(0.0448839 -0.337902 0)
(0.0475885 -0.3495 0)
(0.0490054 -0.356876 0)
(0.0489161 -0.359323 0)
(0.0471698 -0.356074 0)
(0.0437138 -0.346315 0)
(0.0386262 -0.329221 0)
(0.0321476 -0.303999 0)
(0.0247057 -0.269954 0)
(0.0169145 -0.226566 0)
(0.00954348 -0.173575 0)
(0.00362095 -0.11107 0)
(0.000586944 -0.0396171 0)
(0.000723314 0.0437698 0)
(0.0045131 0.122332 0)
(0.0120251 0.19078 0)
(0.0215928 0.248475 0)
(0.0320224 0.295229 0)
(0.0423862 0.331222 0)
(0.0518968 0.356961 0)
(0.0599571 0.373196 0)
(0.0661787 0.380848 0)
(0.0703663 0.380923 0)
(0.0724899 0.374446 0)
(0.0726513 0.362414 0)
(0.0710493 0.345754 0)
(0.0679468 0.325302 0)
(0.0636424 0.301797 0)
(0.0584478 0.275872 0)
(0.0526697 0.248063 0)
(0.0465978 0.218814 0)
(0.040496 0.188491 0)
(0.0345978 0.157393 0)
(0.0291032 0.125761 0)
(0.0241786 0.0937937 0)
(0.0199568 0.0616536 0)
(0.0165379 0.0294799 0)
(0.0139912 -0.00260377 0)
(0.0123557 -0.0344814 0)
(0.0116419 -0.066037 0)
(0.0118324 -0.0971482 0)
(0.0128824 -0.12768 0)
(0.0147202 -0.157478 0)
(0.0172477 -0.186365 0)
(0.0203402 -0.214132 0)
(0.0238472 -0.240536 0)
(0.0275937 -0.265294 0)
(0.031382 -0.288076 0)
(0.0349958 -0.308503 0)
(0.0382054 -0.326141 0)
(0.0407763 -0.340499 0)
(0.04248 -0.35103 0)
(0.0431092 -0.357128 0)
(0.042496 -0.35814 0)
(0.0405336 -0.353377 0)
(0.0372003 -0.342131 0)
(0.0325839 -0.32371 0)
(0.026904 -0.297477 0)
(0.0205277 -0.262902 0)
(0.0139634 -0.219626 0)
(0.00783346 -0.167525 0)
(0.00295624 -0.106771 0)
(0.000475717 -0.0379319 0)
(0.000620457 0.041608 0)
(0.00390594 0.116752 0)
(0.0104728 0.182774 0)
(0.0189289 0.239045 0)
(0.0282792 0.28531 0)
(0.0377394 0.321631 0)
(0.0466251 0.348351 0)
(0.0543962 0.366044 0)
(0.0606786 0.375451 0)
(0.0652566 0.377415 0)
(0.0680555 0.372822 0)
(0.0691177 0.362559 0)
(0.0685761 0.347473 0)
(0.0666284 0.328349 0)
(0.0635122 0.305896 0)
(0.0594856 0.280739 0)
(0.0548101 0.25342 0)
(0.0497391 0.224399 0)
(0.0445083 0.194069 0)
(0.0393304 0.162753 0)
(0.0343913 0.130726 0)
(0.0298486 0.0982164 0)
(0.0258307 0.0654176 0)
(0.0224379 0.0324993 0)
(0.019742 -0.000385795 0)
(0.0177883 -0.0330934 0)
(0.0165956 -0.0654806 0)
(0.0161577 -0.0973984 0)
(0.0164434 -0.128686 0)
(0.0173974 -0.159163 0)
(0.0189408 -0.188628 0)
(0.0209713 -0.216847 0)
(0.0233641 -0.243554 0)
(0.0259737 -0.268444 0)
(0.0286355 -0.291169 0)
(0.03117 -0.311335 0)
(0.0333877 -0.328502 0)
(0.0350968 -0.34218 0)
(0.0361124 -0.351836 0)
(0.0362698 -0.356895 0)
(0.0354391 -0.35675 0)
(0.0335427 -0.35078 0)
(0.0305741 -0.338365 0)
(0.0266154 -0.318923 0)
(0.0218537 -0.291937 0)
(0.0165905 -0.257007 0)
(0.0112345 -0.213894 0)
(0.00627761 -0.162575 0)
(0.00236038 -0.103279 0)
(0.000377943 -0.0365702 0)
(0.000527872 0.0397464 0)
(0.00334865 0.111913 0)
(0.00902643 0.175771 0)
(0.0164044 0.230704 0)
(0.0246588 0.276413 0)
(0.0331332 0.312871 0)
(0.041241 0.340303 0)
(0.0485048 0.359143 0)
(0.0545773 0.369989 0)
(0.0592394 0.373547 0)
(0.0623895 0.370587 0)
(0.0640276 0.361895 0)
(0.0642352 0.348244 0)
(0.063155 0.330368 0)
(0.0609711 0.308942 0)
(0.057892 0.284576 0)
(0.0541356 0.25781 0)
(0.0499181 0.229116 0)
(0.0454452 0.1989 0)
(0.0409061 0.16751 0)
(0.0364693 0.135244 0)
(0.0322803 0.102355 0)
(0.0284608 0.0690645 0)
(0.025108 0.0355688 0)
(0.0222949 0.00204583 0)
(0.0200713 -0.0313351 0)
(0.0184638 -0.0644066 0)
(0.017477 -0.0969964 0)
(0.0170938 -0.12892 0)
(0.017276 -0.159976 0)
(0.0179647 -0.18994 0)
(0.0190812 -0.218557 0)
(0.0205274 -0.24554 0)
(0.0221876 -0.270567 0)
(0.0239306 -0.293275 0)
(0.0256124 -0.313258 0)
(0.0270813 -0.33007 0)
(0.0281835 -0.343227 0)
(0.0287719 -0.352205 0)
(0.0287157 -0.356457 0)
(0.0279131 -0.355415 0)
(0.0263041 -0.348512 0)
(0.0238853 -0.335203 0)
(0.0207231 -0.314988 0)
(0.0169645 -0.287447 0)
(0.012844 -0.252277 0)
(0.0086767 -0.209331 0)
(0.00483825 -0.158658 0)
(0.00181575 -0.100527 0)
(0.000290005 -0.0355008 0)
(0.000442996 0.0381619 0)
(0.00282914 0.107769 0)
(0.00766113 0.169731 0)
(0.0139887 0.223443 0)
(0.0211376 0.268577 0)
(0.0285662 0.305044 0)
(0.0357805 0.332978 0)
(0.042368 0.352708 0)
(0.0480164 0.364717 0)
(0.0525154 0.369603 0)
(0.0557506 0.368035 0)
(0.057693 0.360715 0)
(0.0583847 0.348347 0)
(0.0579236 0.331614 0)
(0.0564472 0.31116 0)
(0.0541191 0.287576 0)
(0.0511159 0.261394 0)
(0.0476173 0.233091 0)
(0.043798 0.203081 0)
(0.0398219 0.17173 0)
(0.0358379 0.139353 0)
(0.0319771 0.106225 0)
(0.0283517 0.0725901 0)
(0.0250537 0.0386652 0)
(0.0221557 0.00465083 0)
(0.0197102 -0.0292625 0)
(0.0177508 -0.0628867 0)
(0.0162924 -0.0960289 0)
(0.0153316 -0.128485 0)
(0.0148473 -0.160035 0)
(0.0148013 -0.190434 0)
(0.0151386 -0.219411 0)
(0.0157883 -0.246662 0)
(0.0166646 -0.271849 0)
(0.0176685 -0.294596 0)
(0.0186904 -0.314488 0)
(0.0196136 -0.331075 0)
(0.0203188 -0.343873 0)
(0.0206911 -0.35237 0)
(0.0206272 -0.356038 0)
(0.0200448 -0.354339 0)
(0.0188934 -0.346752 0)
(0.017164 -0.332784 0)
(0.0149 -0.312001 0)
(0.0122044 -0.284054 0)
(0.00924502 -0.248715 0)
(0.00624837 -0.205903 0)
(0.00348576 -0.15572 0)
(0.00130884 -0.0984667 0)
(0.000209205 -0.0347008 0)
(0.00036388 0.0368371 0)
(0.00233803 0.104286 0)
(0.00635727 0.164623 0)
(0.0116562 0.217253 0)
(0.0176942 0.261832 0)
(0.0240333 0.298225 0)
(0.0302674 0.3265 0)
(0.0360489 0.346907 0)
(0.0411062 0.359841 0)
(0.0452464 0.365813 0)
(0.0483527 0.36541 0)
(0.050378 0.359261 0)
(0.0513351 0.348015 0)
(0.0512853 0.332306 0)
(0.0503264 0.312747 0)
(0.0485815 0.289908 0)
(0.0461887 0.264313 0)
(0.0432924 0.236435 0)
(0.0400363 0.206696 0)
(0.036558 0.175471 0)
(0.032985 0.143089 0)
(0.0294322 0.109841 0)
(0.0260001 0.075988 0)
(0.022774 0.0417647 0)
(0.0198236 0.00738922 0)
(0.0172032 -0.0269305 0)
(0.014952 -0.0609892 0)
(0.0130942 -0.0945776 0)
(0.0116397 -0.127476 0)
(0.0105843 -0.159447 0)
(0.00991006 -0.190232 0)
(0.00958583 -0.219545 0)
(0.00956748 -0.247067 0)
(0.00979875 -0.272449 0)
(0.0102122 -0.295302 0)
(0.0107311 -0.315205 0)
(0.0112713 -0.331701 0)
(0.0117451 -0.344306 0)
(0.0120654 -0.352515 0)
(0.0121511 -0.355812 0)
(0.0119341 -0.353681 0)
(0.0113666 -0.345632 0)
(0.0104286 -0.331209 0)
(0.00913556 -0.310027 0)
(0.00754441 -0.281789 0)
(0.00575667 -0.246318 0)
(0.00391559 -0.203582 0)
(0.00219658 -0.153722 0)
(0.000829136 -0.0970607 0)
(0.000133481 -0.0341535 0)
(0.000288993 0.0357592 0)
(0.00186781 0.101438 0)
(0.00509877 0.160422 0)
(0.00938575 0.212128 0)
(0.0143094 0.256197 0)
(0.0195273 0.292468 0)
(0.0247167 0.320962 0)
(0.0295948 0.341869 0)
(0.0339339 0.35552 0)
(0.0375646 0.362357 0)
(0.0403753 0.362904 0)
(0.0423093 0.357732 0)
(0.0433579 0.34744 0)
(0.0435531 0.332623 0)
(0.0429585 0.313864 0)
(0.041661 0.291714 0)
(0.039763 0.266684 0)
(0.0373749 0.239243 0)
(0.0346097 0.209816 0)
(0.0315781 0.178781 0)
(0.0283854 0.146478 0)
(0.0251284 0.11321 0)
(0.0218944 0.0792483 0)
(0.0187601 0.0448417 0)
(0.0157908 0.0102214 0)
(0.013041 -0.0243912 0)
(0.0105541 -0.058778 0)
(0.00836273 -0.092717 0)
(0.00648907 -0.125976 0)
(0.00494516 -0.158306 0)
(0.00373299 -0.189437 0)
(0.00284463 -0.21907 0)
(0.00226238 -0.246876 0)
(0.00195888 -0.272495 0)
(0.00189751 -0.295529 0)
(0.00203296 -0.315548 0)
(0.00231233 -0.33209 0)
(0.00267689 -0.344668 0)
(0.00306447 -0.352777 0)
(0.00341283 -0.355907 0)
(0.00366383 -0.353555 0)
(0.00376836 -0.345246 0)
(0.00369167 -0.330552 0)
(0.00341867 -0.309115 0)
(0.00295857 -0.280673 0)
(0.00234799 -0.245083 0)
(0.00165039 -0.202349 0)
(0.000951629 -0.152636 0)
(0.000368232 -0.0962833 0)
(6.12171e-05 -0.033847 0)
(0.000217084 0.0349188 0)
(0.00141225 0.0992071 0)
(0.00387204 0.157113 0)
(0.00715863 0.20806 0)
(0.0109653 0.251689 0)
(0.0150394 0.287816 0)
(0.0191377 0.316433 0)
(0.0230419 0.33769 0)
(0.0265699 0.351872 0)
(0.0295801 0.359372 0)
(0.0319718 0.360665 0)
(0.0336845 0.356279 0)
(0.0346945 0.346771 0)
(0.0350097 0.332706 0)
(0.0346642 0.314639 0)
(0.0337125 0.293103 0)
(0.0322233 0.268599 0)
(0.0302747 0.241588 0)
(0.0279493 0.212493 0)
(0.0253309 0.181695 0)
(0.0225012 0.149538 0)
(0.0195382 0.116332 0)
(0.0165144 0.0823562 0)
(0.013496 0.0478682 0)
(0.0105428 0.0131081 0)
(0.0077077 -0.021694 0)
(0.00503693 -0.0563112 0)
(0.00257032 -0.0905129 0)
(0.000341372 -0.124059 0)
(-0.0016226 -0.156691 0)
(-0.00330048 -0.188132 0)
(-0.00467751 -0.218075 0)
(-0.00574559 -0.246183 0)
(-0.00650373 -0.272085 0)
(-0.00695845 -0.295377 0)
(-0.00712429 -0.31562 0)
(-0.00702406 -0.332346 0)
(-0.00668883 -0.345059 0)
(-0.0061574 -0.353252 0)
(-0.00547525 -0.356411 0)
(-0.00469271 -0.354037 0)
(-0.0038624 -0.345659 0)
(-0.00303602 -0.330859 0)
(-0.00226068 -0.309293 0)
(-0.00157528 -0.280717 0)
(-0.0010073 -0.245008 0)
(-0.000570611 -0.202188 0)
(-0.000264874 -0.152441 0)
(-8.07609e-05 -0.0961167 0)
(-8.89996e-06 -0.0337734 0)
(0.000147081 0.0343097 0)
(0.000965896 0.0975801 0)
(0.00266503 0.154682 0)
(0.00495795 0.205048 0)
(0.0076451 0.248316 0)
(0.0105595 0.284295 0)
(0.0135352 0.31296 0)
(0.0164176 0.334437 0)
(0.0190719 0.348982 0)
(0.0213866 0.356955 0)
(0.0232757 0.358799 0)
(0.0246794 0.35501 0)
(0.0255628 0.346114 0)
(0.0259142 0.332653 0)
(0.0257415 0.315161 0)
(0.0250692 0.294154 0)
(0.0239347 0.270121 0)
(0.0223846 0.243517 0)
(0.0204716 0.21476 0)
(0.0182522 0.184229 0)
(0.0157843 0.152271 0)
(0.0131255 0.119197 0)