/*--------------------------------*- C++ -*----------------------------------*\
  =========                 |
  \\      /  F ield         | OpenFOAM: The Open Source CFD Toolbox
   \\    /   O peration     | Website:  https://openfoam.org
    \\  /    A nd           | Version:  7
     \\/     M anipulation  |
\*---------------------------------------------------------------------------*/
FoamFile
{
    version     2.0;
    format      ascii;
    class       surfaceScalarField;
    location    "0.0704";
    object      phi;
}
// * * * * * * * * * * * * * * * * * * * * * * * * * * * * * * * * * * * * * //

dimensions      [0 3 -1 0 0 0 0];

internalField   nonuniform List<scalar> 
4900
(
5.45461e-06
-5.45463e-06
9.9531e-06
-4.49849e-06
1.26939e-05
-2.7408e-06
1.44122e-05
-1.71832e-06
1.55285e-05
-1.11631e-06
1.62818e-05
-7.53288e-07
1.6813e-05
-5.31232e-07
1.72038e-05
-3.90717e-07
1.75012e-05
-2.97424e-07
1.77336e-05
-2.32412e-07
1.79188e-05
-1.85156e-07
1.80683e-05
-1.49591e-07
1.81904e-05
-1.22068e-07
1.82907e-05
-1.00289e-07
1.83734e-05
-8.27408e-08
1.84418e-05
-6.83853e-08
1.84983e-05
-5.64832e-08
1.85448e-05
-4.64913e-08
1.85828e-05
-3.79977e-08
1.86135e-05
-3.06817e-08
1.86378e-05
-2.42866e-08
1.86564e-05
-1.86012e-08
1.86698e-05
-1.34468e-08
1.86785e-05
-8.66745e-09
1.86826e-05
-4.12266e-09
1.86823e-05
3.21645e-10
1.86775e-05
4.78835e-09
1.86681e-05
9.41196e-09
1.86538e-05
1.4327e-08
1.86341e-05
1.96837e-08
1.86084e-05
2.56531e-08
1.8576e-05
3.24372e-08
1.85357e-05
4.02827e-08
1.84862e-05
4.94997e-08
1.84257e-05
6.04895e-08
1.83519e-05
7.37857e-08
1.82618e-05
9.0118e-08
1.81513e-05
1.10515e-07
1.80148e-05
1.36477e-07
1.78445e-05
1.70278e-07
1.7629e-05
2.1552e-07
1.73508e-05
2.78194e-07
1.69821e-05
3.68764e-07
1.64758e-05
5.0631e-07
1.57495e-05
7.26203e-07
1.46576e-05
1.09199e-06
1.29452e-05
1.71241e-06
1.0162e-05
2.78319e-06
5.55723e-06
4.60473e-06
5.55723e-06
-1.19313e-07
-5.33531e-06
1.83181e-06
-6.44961e-06
4.41347e-06
-5.32245e-06
6.72988e-06
-4.03472e-06
8.61069e-06
-2.99712e-06
1.00943e-05
-2.23695e-06
1.12605e-05
-1.6974e-06
1.21833e-05
-1.31348e-06
1.29211e-05
-1.0352e-06
1.35174e-05
-8.28736e-07
1.40041e-05
-6.71885e-07
1.44046e-05
-5.5009e-07
1.47362e-05
-4.53669e-07
1.5012e-05
-3.76049e-07
1.52419e-05
-3.12651e-07
1.54337e-05
-2.602e-07
1.55935e-05
-2.16293e-07
1.57261e-05
-1.79119e-07
1.58354e-05
-1.47281e-07
1.59244e-05
-1.19673e-07
1.59955e-05
-9.53973e-08
1.60506e-05
-7.37075e-08
1.60911e-05
-5.39645e-08
1.61181e-05
-3.56058e-08
1.61321e-05
-1.81196e-08
1.61334e-05
-1.02649e-09
1.61221e-05
1.61468e-08
1.60976e-05
3.38729e-08
1.60593e-05
5.26545e-08
1.60059e-05
7.304e-08
1.59359e-05
9.56517e-08
1.58471e-05
1.21219e-07
1.57368e-05
1.50624e-07
1.56013e-05
1.84963e-07
1.54362e-05
2.25637e-07
1.52355e-05
2.74476e-07
1.49917e-05
3.33934e-07
1.46948e-05
4.0738e-07
1.43317e-05
4.99555e-07
1.38847e-05
6.17301e-07
1.33295e-05
7.70753e-07
1.26324e-05
9.75268e-07
1.17467e-05
1.25451e-06
1.06079e-05
1.64508e-06
9.13202e-06
2.20208e-06
7.22457e-06
2.99944e-06
4.83158e-06
4.10539e-06
2.12102e-06
5.49376e-06
1.07198e-08
6.71503e-06
5.56795e-06
-1.08241e-06
-4.2529e-06
-7.53923e-07
-6.7781e-06
5.90001e-07
-6.66638e-06
2.30287e-06
-5.74759e-06
4.01496e-06
-4.70921e-06
5.56762e-06
-3.78961e-06
6.91361e-06
-3.04339e-06
8.05644e-06
-2.45631e-06
9.01864e-06
-1.9974e-06
9.8269e-06
-1.637e-06
1.05062e-05
-1.3512e-06
1.1078e-05
-1.12191e-06
1.15601e-05
-9.35767e-07
1.1967e-05
-7.8292e-07
1.23104e-05
-6.56071e-07
1.26e-05
-5.49737e-07
1.28434e-05
-4.59731e-07
1.30471e-05
-3.82799e-07
1.32162e-05
-3.16361e-07
1.33548e-05
-2.58329e-07
1.34664e-05
-2.06978e-07
1.35535e-05
-1.60846e-07
1.36182e-05
-1.18667e-07
1.36619e-05
-7.93092e-08
1.36856e-05
-4.17366e-08
1.36895e-05
-4.96768e-09
1.36737e-05
3.19651e-08
1.36375e-05
7.00364e-08
1.35799e-05
1.10276e-07
1.34991e-05
1.53806e-07
1.33929e-05
2.01888e-07
1.32581e-05
2.55987e-07
1.30909e-05
3.17852e-07
1.28862e-05
3.89623e-07
1.26379e-05
4.73984e-07
1.2338e-05
5.74364e-07
1.19767e-05
6.95233e-07
1.15416e-05
8.4252e-07
1.10169e-05
1.02421e-06
1.0383e-05
1.25119e-06
9.61536e-06
1.53842e-06
8.68424e-06
1.90639e-06
7.55611e-06
2.38264e-06
6.1991e-06
3.00209e-06
4.5985e-06
3.80268e-06
2.79199e-06
4.80595e-06
9.38284e-07
5.9591e-06
-5.70523e-07
7.00256e-06
-1.03812e-06
7.18263e-06
4.52983e-06
-9.12956e-07
-3.33995e-06
-1.34115e-06
-6.3499e-06
-9.35875e-07
-7.07166e-06
2.30253e-08
-6.70649e-06
1.24178e-06
-5.92797e-06
2.52087e-06
-5.0687e-06
3.74748e-06
-4.27001e-06
4.86888e-06
-3.57771e-06
5.86719e-06
-2.9957e-06
6.7425e-06
-2.51231e-06
7.50319e-06
-2.11189e-06
8.16072e-06
-1.77943e-06
8.72701e-06
-1.50207e-06
9.21334e-06
-1.26925e-06
9.62981e-06
-1.07253e-06
9.98522e-06
-9.05151e-07
1.02872e-05
-7.61674e-07
1.05421e-05
-6.37706e-07
1.07554e-05
-5.29642e-07
1.09315e-05
-4.34477e-07
1.10742e-05
-3.49665e-07
1.11863e-05
-2.73004e-07
1.12702e-05
-2.02551e-07
1.13275e-05
-1.36544e-07
1.13591e-05
-7.33496e-08
1.13655e-05
-1.14045e-08
1.13466e-05
5.08341e-08
1.13018e-05
1.14931e-07
1.12295e-05
1.82532e-07
1.11279e-05
2.55419e-07
1.09942e-05
3.35579e-07
1.08249e-05
4.25288e-07
1.06155e-05
5.27221e-07
1.03606e-05
6.44585e-07
1.00532e-05
7.81305e-07
9.68535e-06
9.4225e-07
9.24704e-06
1.13355e-06
8.72659e-06
1.36297e-06
8.11037e-06
1.64043e-06
7.38309e-06
1.97847e-06
6.52871e-06
2.39279e-06
5.53294e-06
2.90216e-06
4.38855e-06
3.52703e-06
3.1061e-06
4.28454e-06
1.73317e-06
5.17561e-06
3.84559e-07
6.15455e-06
-7.23942e-07
7.0676e-06
-1.26543e-06
7.54406e-06
-9.15794e-07
6.83299e-06
3.61403e-06
-6.64624e-07
-2.67532e-06
-1.29665e-06
-5.71788e-06
-1.4168e-06
-6.9515e-06
-1.04025e-06
-7.08305e-06
-3.21499e-07
-6.64672e-06
5.81893e-07
-5.97209e-06
1.55166e-06
-5.23977e-06
2.51187e-06
-4.53793e-06
3.4193e-06
-3.90313e-06
4.2525e-06
-3.34552e-06
5.00344e-06
-2.86282e-06
5.67172e-06
-2.44772e-06
6.26107e-06
-2.09141e-06
6.77713e-06
-1.78531e-06
7.22624e-06
-1.52165e-06
7.61474e-06
-1.29365e-06
7.9486e-06
-1.09553e-06
8.23322e-06
-9.22325e-07
8.47337e-06
-7.6979e-07
8.67315e-06
-6.34261e-07
8.83602e-06
-5.12534e-07
8.96478e-06
-4.01764e-07
9.06162e-06
-2.99387e-07
9.12811e-06
-2.03035e-07
9.16524e-06
-1.10483e-07
9.17341e-06
-1.9578e-08
9.15243e-06
7.18141e-08
9.1015e-06
1.65865e-07
9.01918e-06
2.6485e-07
8.90339e-06
3.71215e-07
8.75131e-06
4.87656e-07
8.55938e-06
6.17216e-07
8.32321e-06
7.63396e-07
8.0375e-06
9.30294e-07
7.69603e-06
1.12277e-06
7.29163e-06
1.34665e-06
6.81624e-06
1.60893e-06
6.26121e-06
1.91801e-06
5.61781e-06
2.28382e-06
4.87851e-06
2.71777e-06
4.03912e-06
3.23218e-06
3.10277e-06
3.83852e-06
2.08645e-06
4.54334e-06
1.03119e-06
5.33981e-06
1.56765e-08
6.19112e-06
-8.30794e-07
7.00103e-06
-1.3284e-06
7.56521e-06
-1.29249e-06
7.50815e-06
-6.84835e-07
6.22533e-06
2.9292e-06
-4.70569e-07
-2.20476e-06
-1.0989e-06
-5.08954e-06
-1.46637e-06
-6.58404e-06
-1.46638e-06
-7.08304e-06
-1.14473e-06
-6.96837e-06
-5.96399e-07
-6.52041e-06
8.49071e-08
-5.92108e-06
8.25315e-07
-5.27833e-06
1.57317e-06
-4.65098e-06
2.29537e-06
-4.06772e-06
2.97251e-06
-3.53996e-06
3.5945e-06
-3.06971e-06
4.15734e-06
-2.65425e-06
4.66075e-06
-2.28872e-06
5.10665e-06
-1.96754e-06
5.49811e-06
-1.68512e-06
5.83872e-06
-1.43614e-06
6.13217e-06
-1.21577e-06
6.38199e-06
-1.0196e-06
6.59138e-06
-8.43652e-07
6.76315e-06
-6.8431e-07
6.89966e-06
-5.38275e-07
7.00277e-06
-4.02487e-07
7.0738e-06
-2.74071e-07
7.11359e-06
-1.50272e-07
7.12241e-06
-2.84032e-08
7.10001e-06
9.42174e-08
7.04555e-06
2.20324e-07
6.95763e-06
3.52769e-07
6.83425e-06
4.94594e-07
6.6728e-06
6.49105e-07
6.47006e-06
8.19964e-07
6.22217e-06
1.01128e-06
5.92472e-06
1.22774e-06
5.57281e-06
1.47468e-06
5.16124e-06
1.75822e-06
4.68487e-06
2.0853e-06
4.13926e-06
2.46362e-06
3.52169e-06
2.90139e-06
2.83289e-06
3.40657e-06
2.07971e-06
3.98536e-06
1.27909e-06
4.63914e-06
4.63523e-07
5.35891e-06
-3.12428e-07
6.11576e-06
-9.66579e-07
6.84527e-06
-1.3901e-06
7.42455e-06
-1.46785e-06
7.64296e-06
-1.13539e-06
7.17569e-06
-4.96355e-07
5.58629e-06
2.43284e-06
-3.3956e-07
-1.8652e-06
-9.00896e-07
-4.52821e-06
-1.36186e-06
-6.12308e-06
-1.58107e-06
-6.86383e-06
-1.54012e-06
-7.00932e-06
-1.28106e-06
-6.77947e-06
-8.65241e-07
-6.3369e-06
-3.51746e-07
-5.79183e-06
2.11139e-07
-5.21387e-06
7.87552e-07
-4.64414e-06
1.35266e-06
-4.10507e-06
1.89035e-06
-3.6074e-06
2.39091e-06
-3.15481e-06
2.84916e-06
-2.74698e-06
3.26297e-06
-2.38135e-06
3.63216e-06
-2.0543e-06
3.95775e-06
-1.76174e-06
4.24146e-06
-1.49948e-06
4.48527e-06
-1.26342e-06
4.69123e-06
-1.04961e-06
4.86126e-06
-8.54339e-07
4.99703e-06
-6.74046e-07
5.0999e-06
-5.05353e-07
5.17084e-06
-3.4501e-07
5.21042e-06
-1.89849e-07
5.21876e-06
-3.67443e-08
5.19553e-06
1.17444e-07
5.13994e-06
2.75919e-07
5.0507e-06
4.42008e-07
4.92607e-06
6.19221e-07
4.76386e-06
8.11316e-07
4.56146e-06
1.02236e-06
4.31593e-06
1.25681e-06
4.02414e-06
1.51954e-06
3.68296e-06
1.81587e-06
3.28964e-06
2.15154e-06
2.84235e-06
2.53259e-06
2.34101e-06
2.96496e-06
1.78854e-06
3.45385e-06
1.19264e-06
4.00247e-06
5.68187e-07
4.60982e-06
-5.96973e-08
5.26702e-06
-6.52336e-07
5.95155e-06
-1.15505e-06
6.61847e-06
-1.49811e-06
7.18833e-06
-1.60601e-06
7.53245e-06
-1.42249e-06
7.45944e-06
-9.58913e-07
6.71211e-06
-3.66345e-07
4.99372e-06
2.0665e-06
-2.54606e-07
-1.61059e-06
-7.39823e-07
-4.04299e-06
-1.21894e-06
-5.64396e-06
-1.55533e-06
-6.52744e-06
-1.69998e-06
-6.86467e-06
-1.65882e-06
-6.82063e-06
-1.46452e-06
-6.5312e-06
-1.15796e-06
-6.09839e-06
-7.78129e-07
-5.5937e-06
-3.57752e-07
-5.06451e-06
7.77651e-08
-4.54059e-06
5.09826e-07
-4.03946e-06
9.25497e-07
-3.57048e-06
1.31625e-06
-3.13773e-06
1.67685e-06
-2.74195e-06
2.00439e-06
-2.38184e-06
2.29761e-06
-2.05496e-06
2.55629e-06
-1.75816e-06
2.78088e-06
-1.48801e-06
2.97218e-06
-1.24091e-06
3.13112e-06
-1.01328e-06
3.2586e-06
-8.01533e-07
3.3554e-06
-6.02154e-07
3.42206e-06
-4.11669e-07
3.45885e-06
-2.26636e-07
3.46572e-06
-4.3613e-08
3.44229e-06
1.40875e-07
3.38783e-06
3.30375e-07
3.30129e-06
5.28552e-07
3.18128e-06
7.39226e-07
3.02619e-06
9.66413e-07
2.83419e-06
1.21436e-06
2.60346e-06
1.48754e-06
2.33232e-06
1.79068e-06
2.01958e-06
2.12861e-06
1.66497e-06
2.50615e-06
1.26978e-06
2.92778e-06
8.37726e-07
3.39701e-06
3.76162e-07
3.91542e-06
-1.02452e-07
4.48109e-06
-5.78774e-07
5.08614e-06
-1.02482e-06
5.71307e-06
-1.40282e-06
6.32955e-06
-1.66596e-06
6.88161e-06
-1.76314e-06
7.28551e-06
-1.65091e-06
7.42022e-06
-1.31587e-06
7.1244e-06
-8.08468e-07
6.20471e-06
-2.80917e-07
4.46617e-06
1.78558e-06
-1.99005e-07
-1.41158e-06
-6.16938e-07
-3.62506e-06
-1.08154e-06
-5.17935e-06
-1.47458e-06
-6.1344e-06
-1.73665e-06
-6.6026e-06
-1.85231e-06
-6.70497e-06
-1.83284e-06
-6.55067e-06
-1.70247e-06
-6.22876e-06
-1.48921e-06
-5.80695e-06
-1.21971e-06
-5.33402e-06
-9.16777e-07
-4.84352e-06
-5.9875e-07
-4.35749e-06
-2.7962e-07
-3.88961e-06
3.03635e-08
-3.44771e-06
3.23993e-07
-3.03557e-06
5.9642e-07
-2.65427e-06
8.44561e-07
-2.3031e-06
1.06661e-06
-1.98021e-06
1.26162e-06
-1.68302e-06
1.42926e-06
-1.40855e-06
1.56949e-06
-1.15351e-06
1.68245e-06
-9.14503e-07
1.76834e-06
-6.88036e-07
1.82724e-06
-4.7057e-07
1.85913e-06
-2.58529e-07
1.86381e-06
-4.82922e-08
1.84087e-06
1.63816e-07
1.7897e-06
3.81548e-07
1.7095e-06
6.08749e-07
1.59935e-06
8.49378e-07
1.45825e-06
1.10751e-06
1.28527e-06
1.38734e-06
1.07972e-06
1.6931e-06
8.4138e-07
2.02901e-06
5.70881e-07
2.3991e-06
2.70148e-07
2.80689e-06
-5.69668e-08
3.2549e-06
-4.03902e-07
3.74394e-06
-7.60436e-07
4.27195e-06
-1.11163e-06
4.83229e-06
-1.43687e-06
5.41138e-06
-1.70929e-06
5.98549e-06
-1.89632e-06
6.51658e-06
-1.96232e-06
6.94761e-06
-1.8748e-06
7.198e-06
-1.61577e-06
7.16118e-06
-1.19876e-06
6.70739e-06
-6.89796e-07
5.69575e-06
-2.24244e-07
4.00062e-06
1.56134e-06
-1.6166e-07
-1.24992e-06
-5.2501e-07
-3.26171e-06
-9.6351e-07
-4.74085e-06
-1.37942e-06
-5.71849e-06
-1.71331e-06
-6.26871e-06
-1.93877e-06
-6.47951e-06
-2.05279e-06
-6.43665e-06
-2.06638e-06
-6.21517e-06
-1.9973e-06
-5.87604e-06
-1.86517e-06
-5.46614e-06
-1.68867e-06
-5.02002e-06
-1.48409e-06
-4.56207e-06
-1.26485e-06
-4.10885e-06
-1.04158e-06
-3.67099e-06
-8.22373e-07
-3.25478e-06
-6.13228e-07
-2.86341e-06
-4.18451e-07
-2.49788e-06
-2.41037e-07
-2.15762e-06
-8.30087e-08
-1.84105e-06
5.43134e-08
-1.54587e-06
1.70088e-07
-1.26928e-06
2.6378e-07
-1.00819e-06
3.35025e-07
-7.5928e-07
3.83528e-07
-5.19073e-07
4.08997e-07
-2.83998e-07
4.11093e-07
-5.03891e-08
3.89417e-07
1.85493e-07
3.43504e-07
4.2746e-07
2.72861e-07
6.79392e-07
1.77021e-07
9.45218e-07
5.56409e-08
1.22889e-06
-9.13595e-08
1.53434e-06
-2.63605e-07
1.86534e-06
-4.60002e-07
2.22541e-06
-6.78396e-07
2.6175e-06
-9.15139e-07
3.04363e-06
-1.16455e-06
3.50431e-06
-1.41833e-06
3.99772e-06
-1.66489e-06
4.5185e-06
-1.88878e-06
5.05618e-06
-2.07047e-06
5.59307e-06
-2.18668e-06
6.1017e-06
-2.21196e-06
6.54185e-06
-2.12213e-06
6.85778e-06
-1.90047e-06
6.97634e-06
-1.54693e-06
6.80764e-06
-1.08994e-06
6.2504e-06
-5.98038e-07
5.20385e-06
-1.85449e-07
3.58803e-06
1.37589e-06
-1.35846e-07
-1.11408e-06
-4.56398e-07
-2.94115e-06
-8.66902e-07
-4.33035e-06
-1.28783e-06
-5.29756e-06
-1.66431e-06
-5.89223e-06
-1.96546e-06
-6.17836e-06
-2.1795e-06
-6.22261e-06
-2.3078e-06
-6.08686e-06
-2.3596e-06
-5.82424e-06
-2.34789e-06
-5.47786e-06
-2.28665e-06
-5.08126e-06
-2.18923e-06
-4.65948e-06
-2.06748e-06
-4.2306e-06
-1.93138e-06
-3.80709e-06
-1.78906e-06
-3.3971e-06
-1.64695e-06
-3.00553e-06
-1.51e-06
-2.63483e-06
-1.38195e-06
-2.28567e-06
-1.26559e-06
-1.95741e-06
-1.16295e-06
-1.64851e-06
-1.07552e-06
-1.35671e-06
-1.00438e-06
-1.07933e-06
-9.50341e-07
-8.13323e-07
-9.14018e-07
-5.55396e-07
-8.9592e-07
-3.02096e-07
-8.96474e-07
-4.98347e-08
-9.16049e-07
2.05067e-07
-9.5494e-07
4.66352e-07
-1.01334e-06
7.37791e-07
-1.09126e-06
1.02314e-06
-1.18845e-06
1.32608e-06
-1.30423e-06
1.65011e-06
-1.4373e-06
1.99841e-06
-1.58553e-06
2.37364e-06
-1.74561e-06
2.77758e-06
-1.91273e-06
3.21075e-06
-2.08016e-06
3.67174e-06
-2.23885e-06
4.15642e-06
-2.37712e-06
4.65677e-06
-2.4805e-06
5.15956e-06
-2.53201e-06
5.64459e-06
-2.51314e-06
6.08283e-06
-2.40587e-06
6.43458e-06
-2.19621e-06
6.64812e-06
-1.87949e-06
6.65961e-06
-1.46726e-06
6.39541e-06
-9.94803e-07
5.77794e-06
-5.26898e-07
4.73594e-06
-1.57886e-07
3.21902e-06
1.218e-06
-1.17525e-07
-9.96553e-07
-4.04957e-07
-2.65372e-06
-7.89621e-07
-3.94568e-06
-1.20682e-06
-4.88036e-06
-1.60772e-06
-5.49133e-06
-1.96062e-06
-5.82546e-06
-2.24885e-06
-5.93439e-06
-2.46722e-06
-5.86849e-06
-2.61837e-06
-5.67309e-06
-2.70954e-06
-5.38669e-06
-2.75024e-06
-5.04055e-06
-2.75059e-06
-4.65914e-06
-2.72027e-06
-4.26092e-06
-2.66802e-06
-3.85934e-06
-2.60136e-06
-3.46376e-06
-2.52658e-06
-3.08031e-06
-2.4488e-06
-2.71261e-06
-2.3721e-06
-2.36237e-06
-2.29969e-06
-2.02982e-06
-2.23408e-06
-1.71412e-06
-2.1772e-06
-1.4136e-06
-2.1305e-06
-1.12603e-06
-2.09514e-06
-8.48686e-07
-2.07197e-06
-5.78568e-07
-2.06164e-06
-3.12423e-07
-2.06464e-06
-4.68428e-08
-2.08125e-06
2.21685e-07
-2.11162e-06
4.9672e-07
-2.15564e-06
7.81813e-07
-2.21293e-06
1.08043e-06
-2.28271e-06
1.39586e-06
-2.36369e-06
1.73108e-06
-2.45386e-06
2.08859e-06
-2.55034e-06
2.47012e-06
-2.64909e-06
2.87633e-06
-2.74468e-06
3.30634e-06
-2.83001e-06
3.75707e-06
-2.89615e-06
4.22256e-06
-2.93225e-06
4.69287e-06
-2.92576e-06
5.15307e-06
-2.86303e-06
5.58185e-06
-2.73057e-06
5.95037e-06
-2.51721e-06
6.22123e-06
-2.21723e-06
6.34814e-06
-1.83455e-06
6.27693e-06
-1.38756e-06
5.94843e-06
-9.13577e-07
5.30396e-06
-4.71075e-07
4.29344e-06
-1.37584e-07
2.88553e-06
1.08042e-06
-1.04237e-07
-8.92317e-07
-3.66139e-07
-2.39182e-06
-7.28503e-07
-3.58332e-06
-1.13824e-06
-4.47063e-06
-1.55253e-06
-5.07704e-06
-1.94073e-06
-5.43725e-06
-2.28381e-06
-5.5913e-06
-2.57235e-06
-5.57995e-06
-2.80411e-06
-5.44133e-06
-2.98172e-06
-5.20908e-06
-3.1107e-06
-4.91157e-06
-3.19801e-06
-4.57183e-06
-3.25104e-06
-4.2079e-06
-3.2769e-06
-3.83347e-06
-3.28213e-06
-3.45852e-06
-3.27247e-06
-3.08997e-06
-3.2528e-06
-2.73228e-06
-3.22722e-06
-2.38794e-06
-3.1991e-06
-2.05794e-06
-3.17114e-06
-1.74207e-06
-3.14553e-06
-1.43922e-06
-3.12398e-06
-1.14758e-06
-3.10782e-06
-8.64847e-07
-3.09806e-06
-5.88324e-07
-3.09544e-06
-3.15041e-07
-3.10044e-06
-4.1845e-08
-3.11328e-06
2.34525e-07
-3.13392e-06
5.1736e-07
-3.16201e-06
8.09903e-07
-3.19683e-06
1.11525e-06
-3.23719e-06
1.43622e-06
-3.28134e-06
1.77523e-06
-3.3268e-06
2.13405e-06
-3.37024e-06
2.51356e-06
-3.40728e-06
2.91337e-06
-3.43233e-06
3.33139e-06
-3.43853e-06
3.76327e-06
-3.41767e-06
4.20169e-06
-3.36036e-06
4.63556e-06
-3.25645e-06
5.04916e-06
-3.09585e-06
5.42125e-06
-2.86984e-06
5.72436e-06
-2.57304e-06
5.92443e-06
-2.20606e-06
5.98116e-06
-1.7786e-06
5.84947e-06
-1.31263e-06
5.48245e-06
-8.44743e-07
4.83607e-06
-4.26613e-07
3.87531e-06
-1.22147e-07
2.58106e-06
9.58272e-07
-9.44327e-08
-7.97884e-07
-3.36662e-07
-2.14959e-06
-6.80454e-07
-3.23953e-06
-1.08164e-06
-4.06944e-06
-1.50278e-06
-4.65591e-06
-1.91513e-06
-5.02489e-06
-2.29882e-06
-5.20762e-06
-2.64184e-06
-5.23694e-06
-2.93853e-06
-5.14464e-06
-3.18792e-06
-4.9597e-06
-3.39219e-06
-4.7073e-06
-3.55546e-06
-4.40855e-06
-3.68284e-06
-4.08052e-06
-3.77974e-06
-3.73657e-06
-3.85147e-06
-3.38679e-06
-3.90296e-06
-3.03848e-06
-3.93862e-06
-2.69662e-06
-3.96228e-06
-2.36428e-06
-3.97722e-06
-2.043e-06
-3.98617e-06
-1.73312e-06
-3.99138e-06
-1.43401e-06
-3.99466e-06
-1.1443e-06
-3.99743e-06
-8.62071e-07
-4.00078e-06
-5.84979e-07
-4.00544e-06
-3.10375e-07
-4.01187e-06
-3.54144e-08
-4.0202e-06
2.42853e-07
-4.03023e-06
5.27392e-07
-4.04141e-06
8.21077e-07
-4.05275e-06
1.12658e-06
-4.06277e-06
1.44625e-06
-4.06944e-06
1.7819e-06
-4.07003e-06
2.13464e-06
-4.06101e-06
2.50454e-06
-4.03801e-06
2.89037e-06
-3.9957e-06
3.28909e-06
-3.92784e-06
3.69541e-06
-3.82736e-06
4.10121e-06
-3.68669e-06
4.49488e-06
-3.49824e-06
4.86072e-06
-3.25536e-06
5.17837e-06
-2.95351e-06
5.42251e-06
-2.592e-06
5.56293e-06
-2.17607e-06
5.56522e-06
-1.71903e-06
5.39243e-06
-1.24429e-06
5.00772e-06
-7.86442e-07
4.37822e-06
-3.90679e-07
3.47955e-06
-1.10097e-07
2.30048e-06
8.48174e-07
-8.71078e-08
-7.10776e-07
-3.14161e-07
-1.92254e-06
-6.4281e-07
-2.91088e-06
-1.03569e-06
-3.67657e-06
-1.45992e-06
-4.23167e-06
-1.8889e-06
-4.59592e-06
-2.30278e-06
-4.79374e-06
-2.6881e-06
-4.85161e-06
-3.03686e-06
-4.79587e-06
-3.34538e-06
-4.65118e-06
-3.61315e-06
-4.43954e-06
-3.84182e-06
-4.17988e-06
-4.03442e-06
-3.88792e-06
-4.19469e-06
-3.5763e-06
-4.32663e-06
-3.25484e-06
-4.43424e-06
-2.93088e-06
-4.52125e-06
-2.60961e-06
-4.59108e-06
-2.29445e-06
-4.64673e-06
-1.98736e-06
-4.69078e-06
-1.68906e-06
-4.72544e-06
-1.39935e-06
-4.75247e-06
-1.11726e-06
-4.77331e-06
-8.41238e-07
-4.789e-06
-5.69287e-07
-4.80027e-06
-2.99107e-07
-4.80749e-06
-2.81894e-08
-4.81071e-06
2.46071e-07
-4.80959e-06
5.26273e-07
-4.80341e-06
8.14901e-07
-4.79103e-06
1.1142e-06
-4.77078e-06
1.42601e-06
-4.74049e-06
1.75161e-06
-4.69736e-06
2.09151e-06
-4.63795e-06
2.44513e-06
-4.55812e-06
2.81054e-06
-4.45311e-06
3.18407e-06
-4.31757e-06
3.55987e-06
-4.14581e-06
3.92946e-06
-3.93218e-06
4.28126e-06
-3.67165e-06
4.60018e-06
-3.36062e-06
4.86734e-06
-2.99809e-06
5.05998e-06
-2.58701e-06
5.15185e-06
-2.13582e-06
5.11404e-06
-1.65998e-06
4.91659e-06
-1.18303e-06
4.53077e-06
-7.36965e-07
3.93215e-06
-3.61271e-07
3.10386e-06
-1.00496e-07
2.0397e-06
7.47678e-07
-8.15858e-08
-6.29191e-07
-2.96922e-07
-1.7072e-06
-6.13395e-07
-2.59441e-06
-9.98816e-07
-3.29115e-06
-1.42407e-06
-3.80642e-06
-1.8646e-06
-4.15539e-06
-2.30107e-06
-4.35727e-06
-2.7193e-06
-4.43339e-06
-3.10972e-06
-4.40545e-06
-3.46666e-06
-4.29423e-06
-3.78749e-06
-4.11871e-06
-4.07182e-06
-3.89555e-06
-4.32084e-06
-3.63891e-06
-4.53672e-06
-3.36043e-06
-4.7222e-06
-3.06936e-06
-4.88029e-06
-2.77279e-06
-5.01396e-06
-2.47593e-06
-5.1261e-06
-2.18232e-06
-5.21931e-06
-1.89414e-06
-5.29594e-06
-1.61243e-06
-5.35799e-06
-1.3373e-06
-5.40713e-06
-1.06812e-06
-5.4447e-06
-8.03671e-07
-5.47168e-06
-5.4231e-07
-5.48871e-06
-2.82074e-07
-5.4961e-06
-2.08041e-08
-5.49377e-06
2.43746e-07
-5.4813e-06
5.13804e-07
-5.45785e-06
7.91453e-07
-5.42217e-06
1.07851e-06
-5.37254e-06
1.37638e-06
-5.30677e-06
1.68584e-06
-5.22216e-06
2.0069e-06
-5.11551e-06
2.33848e-06
-4.98315e-06
2.67819e-06
-4.82103e-06
3.02195e-06
-4.62488e-06
3.36372e-06
-4.39048e-06
3.69505e-06
-4.11407e-06
4.00485e-06
-3.79294e-06
4.27905e-06
-3.42618e-06
4.50058e-06
-3.01565e-06
4.64945e-06
-2.56702e-06
4.70321e-06
-2.0909e-06
4.63792e-06
-1.60381e-06
4.42949e-06
-1.12871e-06
4.05567e-06
-6.94899e-07
3.49834e-06
-3.36971e-07
2.74593e-06
-9.27287e-08
1.79546e-06
6.54949e-07
-7.73988e-08
-5.51792e-07
-2.83687e-07
-1.50091e-06
-5.90471e-07
-2.28762e-06
-9.69504e-07
-2.91211e-06
-1.3947e-06
-3.38123e-06
-1.84337e-06
-3.70672e-06
-2.29687e-06
-3.90376e-06
-2.74074e-06
-3.98952e-06
-3.16442e-06
-3.98176e-06
-3.56082e-06
-3.89784e-06
-3.92564e-06
-3.75388e-06
-4.25685e-06
-3.56434e-06
-4.55405e-06
-3.34171e-06
-4.81803e-06
-3.09644e-06
-5.05036e-06
-2.83703e-06
-5.25304e-06
-2.57011e-06
-5.42831e-06
-2.30066e-06
-5.57843e-06
-2.0322e-06
-5.70557e-06
-1.767e-06
-5.81173e-06
-1.50627e-06
-5.89868e-06
-1.25035e-06
-5.9679e-06
-9.98898e-07
-6.02058e-06
-7.50989e-07
-6.0576e-06
-5.05293e-07
-6.07949e-06
-2.6018e-07
-6.08647e-06
-1.38313e-08
-6.07837e-06
2.35646e-07
-6.05467e-06
4.90111e-07
-6.01449e-06
7.5127e-07
-5.95652e-06
1.02055e-06
-5.87908e-06
1.29893e-06
-5.78007e-06
1.58683e-06
-5.65701e-06
1.88383e-06
-5.50706e-06
2.18854e-06
-5.32715e-06
2.49827e-06
-5.11405e-06
2.80885e-06
-4.8646e-06
3.11428e-06
-4.57605e-06
3.4065e-06
-4.24641e-06
3.6752e-06
-3.87502e-06
3.90766e-06
-3.46322e-06
4.08879e-06
-3.01511e-06
4.20134e-06
-2.53836e-06
4.22646e-06
-2.04497e-06
4.14453e-06
-1.55184e-06
3.93636e-06
-1.08097e-06
3.58481e-06
-6.5913e-07
3.0765e-06
-3.16773e-07
2.40357e-06
-8.63802e-08
1.56507e-06
5.68569e-07
-7.42151e-08
-4.77577e-07
-2.73528e-07
-1.3016e-06
-5.7267e-07
-1.98848e-06
-9.46402e-07
-2.53838e-06
-1.37105e-06
-2.95658e-06
-1.82553e-06
-3.25224e-06
-2.29195e-06
-3.43735e-06
-2.75583e-06
-3.52564e-06
-3.20601e-06
-3.53158e-06
-3.63437e-06
-3.46948e-06
-4.03538e-06
-3.35288e-06
-4.40565e-06
-3.19407e-06
-4.74349e-06
-3.00386e-06
-5.04849e-06
-2.79144e-06
-5.32115e-06
-2.56438e-06
-5.56256e-06
-2.3287e-06
-5.77422e-06
-2.08901e-06
-5.95777e-06
-1.84865e-06
-6.11492e-06
-1.60985e-06
-6.2473e-06
-1.37389e-06
-6.35637e-06
-1.14128e-06
-6.44341e-06
-9.1186e-07
-6.50943e-06
-6.84973e-07
-6.55515e-06
-4.5957e-07
-6.58101e-06
-2.34323e-07
-6.5871e-06
-7.73885e-09
-6.5732e-06
2.21741e-07
-6.53872e-06
4.55633e-07
-6.48274e-06
6.95293e-07
-6.40399e-06
9.41797e-07
-6.30086e-06
1.1958e-06
-6.17143e-06
1.4574e-06
-6.01351e-06
1.72591e-06
-5.82473e-06
1.99976e-06
-5.60264e-06
2.27618e-06
-5.34487e-06
2.55108e-06
-5.04939e-06
2.81879e-06
-4.71477e-06
3.07188e-06
-4.34063e-06
3.30106e-06
-3.92808e-06
3.49511e-06
-3.48029e-06
3.64099e-06
-3.00308e-06
3.72413e-06
-2.50553e-06
3.72892e-06
-2.00049e-06
3.63948e-06
-1.50483e-06
3.4407e-06
-1.03944e-06
3.11943e-06
-6.288e-07
2.66585e-06
-2.99956e-07
2.07473e-06
-8.11661e-08
1.34628e-06
4.87403e-07
-7.17956e-08
-4.05781e-07
-2.6575e-07
-1.10765e-06
-5.58924e-07
-1.69531e-06
-9.28363e-07
-2.16894e-06
-1.3523e-06
-2.53265e-06
-1.81098e-06
-2.79356e-06
-2.28724e-06
-2.96109e-06
-2.76672e-06
-3.04616e-06
-3.23792e-06
-3.06038e-06
-3.69198e-06
-3.01542e-06
-4.12245e-06
-2.92241e-06
-4.52489e-06
-2.79163e-06
-4.89655e-06
-2.6322e-06
-5.23599e-06
-2.452e-06
-5.54279e-06
-2.25758e-06
-5.81723e-06
-2.05425e-06
-6.06011e-06
-1.84613e-06
-6.27251e-06
-1.63625e-06
-6.45565e-06
-1.42671e-06
-6.61078e-06
-1.21876e-06
-6.73907e-06
-1.01298e-06
-6.84156e-06
-8.09374e-07
-6.91906e-06
-6.07476e-07
-6.97214e-06
-4.06483e-07
-7.00112e-06
-2.05345e-07
-7.006e-06
-2.86174e-09
-6.98647e-06
2.02216e-07
-6.94193e-06
4.11091e-07
-6.87145e-06
6.24813e-07
-6.77382e-06
8.44163e-07
-6.64755e-06
1.06954e-06
-6.49095e-06
1.3008e-06
-6.30217e-06
1.53713e-06
-6.07932e-06
1.77691e-06
-5.82059e-06
2.01745e-06
-5.52446e-06
2.25495e-06
-5.18992e-06
2.48425e-06
-4.81678e-06
2.69874e-06
-4.40601e-06
2.8903e-06
-3.96021e-06
3.04931e-06
-3.48399e-06
3.16477e-06
-2.98449e-06
3.22463e-06
-2.47178e-06
3.21621e-06
-1.95914e-06
3.12684e-06
-1.4632e-06
2.94476e-06
-1.00376e-06
2.65998e-06
-6.03265e-07
2.26536e-06
-2.86003e-07
1.75747e-06
-7.68879e-08
1.13716e-06
4.10515e-07
-6.9966e-08
-3.35815e-07
-2.59836e-07
-9.17775e-07
-5.48404e-07
-1.40674e-06
-9.14445e-07
-1.8029e-06
-1.33767e-06
-2.10942e-06
-1.79943e-06
-2.3318e-06
-2.28318e-06
-2.47734e-06
-2.77477e-06
-2.55457e-06
-3.26248e-06
-2.57267e-06
-3.73698e-06
-2.54091e-06
-4.19112e-06
-2.46827e-06
-4.61965e-06
-2.3631e-06
-5.01897e-06
-2.23289e-06
-5.3868e-06
-2.08416e-06
-5.72193e-06
-1.92245e-06
-6.02396e-06
-1.75223e-06
-6.29304e-06
-1.57705e-06
-6.52974e-06
-1.39955e-06
-6.73486e-06
-1.2216e-06
-6.90926e-06
-1.04436e-06
-7.05385e-06
-8.68403e-07
-7.16939e-06
-6.93831e-07
-7.25652e-06
-5.2034e-07
-7.31568e-06
-3.47331e-07
-7.34703e-06
-1.73992e-07
-7.3505e-06
6.12067e-10
-7.32574e-06
1.77452e-07
-7.2721e-06
3.57457e-07
-7.1887e-06
5.41411e-07
-7.0744e-06
7.2986e-07
-6.92787e-06
9.23003e-07
-6.74765e-06
1.12058e-06
-6.53224e-06
1.32173e-06
-6.28023e-06
1.5249e-06
-5.99044e-06
1.72766e-06
-5.66209e-06
1.92661e-06
-5.29511e-06
2.11727e-06
-4.89036e-06
2.29399e-06
-4.44998e-06
2.44992e-06
-3.97774e-06
2.57706e-06
-3.4794e-06
2.66643e-06
-2.96307e-06
2.70831e-06
-2.43947e-06
2.69261e-06
-1.92211e-06
2.60948e-06
-1.42723e-06
2.44988e-06
-9.73615e-07
2.20636e-06
-5.82045e-07
1.87379e-06
-2.74543e-07
1.44996e-06
-7.34052e-08
9.36025e-07
3.3711e-07
-6.85985e-08
-2.67217e-07
-2.55398e-07
-7.30977e-07
-5.4047e-07
-1.12167e-06
-9.03888e-07
-1.43948e-06
-1.3265e-06
-1.68681e-06
-1.79051e-06
-1.86778e-06
-2.27992e-06
-1.98793e-06
-2.78077e-06
-2.05372e-06
-3.28127e-06
-2.07218e-06
-3.77174e-06
-2.05044e-06
-4.24452e-06
-1.99549e-06
-4.69376e-06
-1.91386e-06
-5.11518e-06
-1.81146e-06
-5.50584e-06
-1.6935e-06
-5.86389e-06
-1.5644e-06
-6.18833e-06
-1.42779e-06
-6.4788e-06
-1.28657e-06
-6.73542e-06
-1.14294e-06
-6.95857e-06
-9.98446e-07
-7.14882e-06
-8.54102e-07
-7.30679e-06
-7.10436e-07
-7.43303e-06
-5.67584e-07
-7.52802e-06
-4.25358e-07
-7.59202e-06
-2.8333e-07
-7.62511e-06
-1.40898e-07
-7.62714e-06
2.6418e-09
-7.59771e-06
1.48018e-07
-7.53617e-06
2.95919e-07
-7.44167e-06
4.46909e-07
-7.31316e-06
6.01351e-07
-7.14947e-06
7.59315e-07
-6.94938e-06
9.2049e-07
-6.71173e-06
1.08408e-06
-6.43553e-06
1.24869e-06
-6.12014e-06
1.41227e-06
-5.7655e-06
1.57196e-06
-5.37228e-06
1.72406e-06
-4.94224e-06
1.86395e-06
-4.47846e-06
1.98613e-06
-3.98564e-06
2.08424e-06
-3.47042e-06
2.15122e-06
-2.94161e-06
2.17949e-06
-2.41036e-06
2.16136e-06
-1.89022e-06
2.08934e-06
-1.39707e-06
1.95673e-06
-9.4879e-07
1.75808e-06
-5.64786e-07
1.48979e-06
-2.65307e-07
1.15048e-06
-7.06187e-08
7.41337e-07
2.66491e-07
-6.76e-08
-1.99617e-07
-2.52147e-07
-5.4643e-07
-5.34639e-07
-8.39175e-07
-8.96099e-07
-1.07802e-06
-1.31822e-06
-1.26469e-06
-1.78386e-06
-1.40214e-06
-2.27746e-06
-1.49433e-06
-2.78523e-06
-1.54595e-06
-3.29535e-06
-1.56206e-06
-3.79793e-06
-1.54787e-06
-4.28494e-06
-1.50848e-06
-4.75007e-06
-1.44873e-06
-5.18855e-06
-1.37298e-06
-5.59692e-06
-1.28513e-06
-5.97283e-06
-1.18849e-06
-6.3148e-06
-1.08582e-06
-6.62206e-06
-9.79314e-07
-6.89434e-06
-8.70661e-07
-7.13171e-06
-7.61072e-07
-7.33447e-06
-6.51343e-07
-7.503e-06
-5.41912e-07
-7.63767e-06
-4.32914e-07
-7.73878e-06
-3.24243e-07
-7.80651e-06
-2.15606e-07
-7.84082e-06
-1.06582e-07
-7.84151e-06
3.32897e-09
-7.80814e-06
1.14644e-07
-7.74006e-06
2.27844e-07
-7.63647e-06
3.43315e-07
-7.4964e-06
4.61283e-07
-7.31883e-06
5.81749e-07
-7.10276e-06
7.04416e-07
-6.8473e-06
8.28618e-07
-6.55185e-06
9.53243e-07
-6.21624e-06
1.07666e-06
-5.84094e-06
1.19667e-06
-5.42729e-06
1.31041e-06
-4.97774e-06
1.4144e-06
-4.49609e-06
1.50448e-06
-3.98776e-06
1.57592e-06
-3.46004e-06
1.6235e-06
-2.92222e-06
1.64167e-06
-2.38573e-06
1.62486e-06
-1.8641e-06
1.56772e-06
-1.37284e-06
1.46547e-06
-9.29107e-07
1.31435e-06
-5.51233e-07
1.11191e-06
-2.58107e-07
8.57359e-07
-6.84583e-08
5.51688e-07
1.98033e-07
-6.69035e-08
-1.32713e-07
-2.49874e-07
-3.6346e-07
-5.30554e-07
-5.58496e-07
-8.90628e-07
-7.17947e-07
-1.31239e-06
-8.42929e-07
-1.77917e-06
-9.35355e-07
-2.27571e-06
-9.97788e-07
-2.78841e-06
-1.03325e-06
-3.30541e-06
-1.04505e-06
-3.81669e-06
-1.03658e-06
-4.31398e-06
-1.0112e-06
-4.79065e-06
-9.72056e-07
-5.24157e-06
-9.22067e-07
-5.66289e-06
-8.63803e-07
-6.05191e-06
-7.99479e-07
-6.40679e-06
-7.30939e-07
-6.72644e-06
-6.59665e-07
-7.0103e-06
-5.86798e-07
-7.2582e-06
-5.13167e-07
-7.47023e-06
-4.3932e-07
-7.64657e-06
-3.65569e-07
-7.78746e-06
-2.92021e-07
-7.89308e-06
-2.1862e-07
-7.9635e-06
-1.45188e-07
-7.99863e-06
-7.14556e-08
-7.9982e-06
2.89457e-09
-7.96174e-06
7.81925e-08
-7.88864e-06
1.54743e-07
-7.77811e-06
2.32783e-07
-7.62927e-06
3.12441e-07
-7.44121e-06
3.93692e-07
-7.21311e-06
4.76309e-07
-6.9443e-06
5.59814e-07
-6.63449e-06
6.43432e-07
-6.28387e-06
7.26039e-07
-5.89333e-06
8.06128e-07
-5.4647e-06
8.81777e-07
-5.00093e-06
9.50633e-07
-4.50638e-06
1.00993e-06
-3.98698e-06
1.05652e-06
-3.45046e-06
1.08697e-06
-2.90643e-06
1.09765e-06
-2.36651e-06
1.08494e-06
-1.84416e-06
1.04537e-06
-1.3546e-06
9.75914e-07
-9.1444e-07
8.74185e-07
-5.41206e-07
7.38681e-07
-2.52808e-07
5.68961e-07
-6.68751e-08
3.65755e-07
1.31158e-07
-6.64631e-08
-6.62498e-08
-2.48435e-07
-1.81488e-07
-5.27963e-07
-2.78968e-07
-8.87152e-07
-3.58758e-07
-1.30867e-06
-4.21406e-07
-1.77618e-06
-4.67852e-07
-2.27461e-06
-4.99354e-07
-2.79047e-06
-5.17398e-07
-3.31191e-06
-5.23612e-07
-3.82882e-06
-5.19673e-07
-4.33277e-06
-5.07238e-07
-4.81695e-06
-4.87878e-07
-5.27598e-06
-4.63036e-07
-5.70579e-06
-4.33997e-07
-6.1034e-06
-4.01868e-07
-6.46677e-06
-3.67573e-07
-6.79457e-06
-3.31857e-07
-7.08608e-06
-2.95296e-07
-7.34093e-06
-2.58311e-07
-7.55907e-06
-2.2118e-07
-7.74058e-06
-1.84067e-07
-7.88557e-06
-1.47028e-07
-7.99415e-06
-1.10042e-07
-8.06631e-06
-7.30232e-08
-8.10192e-06
-3.58419e-08
-8.10069e-06
1.65631e-09
-8.06213e-06
3.9632e-08
-7.98562e-06
7.8232e-08
-7.8704e-06
1.17569e-07
-7.71566e-06
1.57702e-07
-7.52058e-06
1.98608e-07
-7.28443e-06
2.40165e-07
-7.00674e-06
2.82126e-07
-6.6874e-06
3.24091e-07