/*--------------------------------*- C++ -*----------------------------------*\
  =========                 |
  \\      /  F ield         | OpenFOAM: The Open Source CFD Toolbox
   \\    /   O peration     | Website:  https://openfoam.org
    \\  /    A nd           | Version:  7
     \\/     M anipulation  |
\*---------------------------------------------------------------------------*/
FoamFile
{
    version     2.0;
    format      ascii;
    class       volScalarField;
    location    "0.015";
    object      p;
}
// * * * * * * * * * * * * * * * * * * * * * * * * * * * * * * * * * * * * * //

dimensions      [0 2 -2 0 0 0 0];

internalField   nonuniform List<scalar> 
2500
(
-1.96681e-05
-6.50937
-9.28992
-10.4798
-11.1386
-11.5381
-11.795
-11.9732
-12.1049
-12.2066
-12.2876
-12.3538
-12.4091
-12.4559
-12.4962
-12.5315
-12.5626
-12.5904
-12.6156
-12.6386
-12.6598
-12.6796
-12.6982
-12.7159
-12.7329
-12.7493
-12.7653
-12.7812
-12.7971
-12.8131
-12.8295
-12.8466
-12.8646
-12.8839
-12.9049
-12.9284
-12.9551
-12.9862
-13.0234
-13.0688
-13.1261
-13.2005
-13.3009
-13.4433
-13.6588
-14.0092
-14.602
-15.6973
-18.3613
-24.7458
-4.95804
-7.67542
-9.17861
-10.1343
-10.7971
-11.2516
-11.5676
-11.7953
-11.9653
-12.0961
-12.1993
-12.2826
-12.3513
-12.4088
-12.4578
-12.5001
-12.5371
-12.5699
-12.5993
-12.6259
-12.6504
-12.6731
-12.6944
-12.7147
-12.7341
-12.753
-12.7716
-12.7901
-12.8089
-12.828
-12.848
-12.869
-12.8916
-12.9163
-12.9438
-12.975
-13.011
-13.0537
-13.1052
-13.1689
-13.2497
-13.3548
-13.4953
-13.6891
-13.9656
-14.3731
-14.9772
-15.8608
-17.2781
-19.8771
-7.93201
-8.76072
-9.55825
-10.2356
-10.7717
-11.1772
-11.482
-11.7138
-11.893
-12.0339
-12.1466
-12.2384
-12.3143
-12.378
-12.4322
-12.479
-12.5198
-12.5559
-12.5881
-12.6174
-12.6441
-12.6689
-12.6922
-12.7143
-12.7356
-12.7564
-12.7769
-12.7974
-12.8182
-12.8397
-12.8622
-12.8862
-12.9121
-12.9405
-12.9724
-13.0086
-13.0506
-13.1002
-13.1599
-13.233
-13.3244
-13.441
-13.5923
-13.7924
-14.0607
-14.4241
-14.9114
-15.5351
-16.278
-17.0408
-9.44637
-9.65468
-10.0697
-10.5112
-10.9005
-11.2239
-11.4862
-11.6976
-11.8681
-12.0065
-12.1199
-12.2137
-12.2923
-12.3588
-12.4157
-12.465
-12.5082
-12.5464
-12.5806
-12.6116
-12.64
-12.6664
-12.6911
-12.7147
-12.7373
-12.7595
-12.7815
-12.8035
-12.826
-12.8493
-12.8737
-12.8998
-12.9281
-12.9591
-12.9938
-13.0332
-13.0787
-13.1319
-13.1951
-13.2713
-13.3646
-13.4801
-13.6247
-13.807
-14.0368
-14.3238
-14.6744
-15.0762
-15.4554
-15.6318
-10.3365
-10.3293
-10.5285
-10.8016
-11.0728
-11.3199
-11.5348
-11.7179
-11.8721
-12.0016
-12.1104
-12.2024
-12.2807
-12.3477
-12.4056
-12.456
-12.5005
-12.54
-12.5754
-12.6077
-12.6372
-12.6647
-12.6906
-12.7153
-12.7391
-12.7624
-12.7855
-12.8088
-12.8326
-12.8572
-12.8831
-12.9107
-12.9406
-12.9735
-13.01
-13.0512
-13.0982
-13.1527
-13.2164
-13.2918
-13.3818
-13.4899
-13.6202
-13.777
-13.9635
-14.18
-14.4208
-14.6654
-14.8418
-14.8208
-10.9069
-10.8246
-10.9079
-11.0714
-11.2558
-11.439
-11.6098
-11.7631
-11.8977
-12.0146
-12.1156
-12.2028
-12.2783
-12.3439
-12.4013
-12.4517
-12.4964
-12.5364
-12.5725
-12.6054
-12.6357
-12.6639
-12.6905
-12.7159
-12.7405
-12.7647
-12.7886
-12.8128
-12.8374
-12.863
-12.8899
-12.9184
-12.9493
-12.983
-13.0202
-13.0618
-13.1089
-13.1626
-13.2244
-13.296
-13.3793
-13.4764
-13.5892
-13.7189
-13.865
-14.0232
-14.1841
-14.3274
-14.3971
-14.3117
-11.2913
-11.1914
-11.2155
-11.3101
-11.433
-11.5662
-11.6987
-11.8238
-11.9382
-12.041
-12.1322
-12.2128
-12.2839
-12.3467
-12.4022
-12.4515
-12.4956
-12.5354
-12.5715
-12.6045
-12.635
-12.6636
-12.6906
-12.7165
-12.7415
-12.7661
-12.7905
-12.8152
-12.8403
-12.8664
-12.8937
-12.9226
-12.9537
-12.9874
-13.0244
-13.0654
-13.1111
-13.1625
-13.2206
-13.2865
-13.3612
-13.4457
-13.5405
-13.6448
-13.7563
-13.8693
-13.9741
-14.0547
-14.0714
-13.9741
-11.5654
-11.4688
-11.4634
-11.5153
-11.5954
-11.6908
-11.792
-11.8923
-11.9877
-12.0762
-12.1571
-12.2301
-12.2957
-12.3546
-12.4073
-12.4548
-12.4976
-12.5365
-12.572
-12.6048
-12.6352
-12.6637
-12.6907
-12.7167
-12.7418
-12.7666
-12.7911
-12.8159
-12.8412
-12.8673
-12.8945
-12.9233
-12.954
-12.9871
-13.0231
-13.0625
-13.1059
-13.154
-13.2074
-13.2666
-13.3321
-13.404
-13.4819
-13.5642
-13.6478
-13.727
-13.7937
-13.8362
-13.8275
-13.7362
-11.7707
-11.6834
-11.6636
-11.6892
-11.7402
-11.8076
-11.8839
-11.9633
-12.0418
-12.117
-12.1874
-12.2525
-12.3121
-12.3665
-12.4159
-12.4609
-12.5019
-12.5394
-12.5739
-12.6059
-12.6358
-12.6639
-12.6907
-12.7164
-12.7414
-12.7659
-12.7904
-12.8149
-12.84
-12.8657
-12.8925
-12.9207
-12.9505
-12.9825
-13.0169
-13.0541
-13.0946
-13.1387
-13.1868
-13.2391
-13.2956
-13.3559
-13.419
-13.4831
-13.5449
-13.5996
-13.6408
-13.6603
-13.64
-13.5594
-11.9304
-11.853
-11.8268
-11.8363
-11.8675
-11.9144
-11.9714
-12.0336
-12.0975
-12.1605
-12.2212
-12.2785
-12.3319
-12.3815
-12.4272
-12.4692
-12.508
-12.5437
-12.5769
-12.6078
-12.6368
-12.6643
-12.6904
-12.7156
-12.7401
-12.7643
-12.7882
-12.8123
-12.8368
-12.8619
-12.8879
-12.915
-12.9436
-12.974
-13.0064
-13.041
-13.0782
-13.1182
-13.161
-13.2066
-13.2547
-13.3046
-13.3553
-13.4047
-13.45
-13.4872
-13.5115
-13.5175
-13.4924
-13.4226
-12.0578
-11.9898
-11.9613
-11.9609
-11.9788
-12.0108
-12.0529
-12.1013
-12.1528
-12.2052
-12.2568
-12.3067
-12.3541
-12.3987
-12.4404
-12.4793
-12.5155
-12.5492
-12.5807
-12.6103
-12.6381
-12.6646
-12.6899
-12.7144
-12.7382
-12.7616
-12.7848
-12.8081
-12.8318
-12.8559
-12.8808
-12.9067
-12.9338
-12.9623
-12.9924
-13.0243
-13.0581
-13.0939
-13.1316
-13.171
-13.2116
-13.2527
-13.2931
-13.3309
-13.3639
-13.3887
-13.4019
-13.3999
-13.3737
-13.3133
-12.1617
-12.1018
-12.0732
-12.0671
-12.076
-12.0973
-12.128
-12.1653
-12.2065
-12.2496
-12.2932
-12.3362
-12.3778
-12.4176
-12.4553
-12.4909
-12.5243
-12.5557
-12.5853
-12.6133
-12.6397
-12.665
-12.6892
-12.7127
-12.7355
-12.758
-12.7803
-12.8027
-12.8252
-12.8482
-12.8719
-12.8963
-12.9216
-12.9481
-12.9758
-13.0049
-13.0353
-13.0671
-13.1
-13.1338
-13.1679
-13.2016
-13.2336
-13.2626
-13.2863
-13.3024
-13.3085
-13.302
-13.2764
-13.2241
-12.2475
-12.195
-12.1675
-12.158
-12.1609
-12.1745
-12.1967
-12.2251
-12.2578
-12.2931
-12.3296
-12.3663
-12.4025
-12.4376
-12.4713
-12.5035
-12.5341
-12.5631
-12.5906
-12.6167
-12.6416
-12.6655
-12.6884
-12.7107
-12.7324
-12.7537
-12.7749
-12.7961
-12.8174
-12.8391
-12.8613
-12.884
-12.9076
-12.9319
-12.9572
-12.9835
-13.0107
-13.0387
-13.0673
-13.0962
-13.1247
-13.1522
-13.1777
-13.1997
-13.2167
-13.2268
-13.2282
-13.2194
-13.1953
-13.15
-12.3194
-12.2733
-12.2476
-12.2364
-12.2355
-12.2435
-12.2592
-12.2807
-12.3065
-12.3351
-12.3655
-12.3966
-12.4277
-12.4584
-12.4883
-12.5171
-12.5448
-12.5712
-12.5965
-12.6207
-12.6438
-12.6661
-12.6876
-12.7085
-12.7289
-12.7489
-12.7688
-12.7887
-12.8087
-12.8289
-12.8495
-12.8705
-12.8921
-12.9143
-12.9373
-12.9608
-12.985
-13.0095
-13.0343
-13.0589
-13.0828
-13.1052
-13.1254
-13.1422
-13.1543
-13.1602
-13.1587
-13.1489
-13.1268
-13.0875
-12.3803
-12.3399
-12.3163
-12.3046
-12.3012
-12.3054
-12.3162
-12.3323
-12.3524
-12.3755
-12.4004
-12.4265
-12.4531
-12.4797
-12.5059
-12.5314
-12.5562
-12.58
-12.603
-12.6251
-12.6464
-12.6669
-12.6868
-12.7062
-12.7252
-12.7438
-12.7623
-12.7807
-12.7992
-12.8179
-12.8368
-12.856
-12.8757
-12.8958
-12.9164
-12.9374
-12.9588
-12.9802
-13.0016
-13.0225
-13.0424
-13.0608
-13.0768
-13.0896
-13.0981
-13.1012
-13.0981
-13.0881
-13.0681
-13.0342
-12.4324
-12.3972
-12.3759
-12.3642
-12.3594
-12.3609
-12.3681
-12.38
-12.3956
-12.414
-12.4344
-12.4561
-12.4785
-12.5013
-12.524
-12.5463
-12.5682
-12.5895
-12.6101
-12.6301
-12.6494
-12.6681
-12.6863
-12.7041
-12.7214
-12.7386
-12.7555
-12.7724
-12.7893
-12.8063
-12.8235
-12.841
-12.8587
-12.8768
-12.8952
-12.9138
-12.9325
-12.9511
-12.9695
-12.9873
-13.0039
-13.019
-13.0317
-13.0415
-13.0474
-13.0487
-13.0447
-13.0351
-13.0173
-12.9881
-12.4774
-12.447
-12.428
-12.4169
-12.4114
-12.4111
-12.4157
-12.4242
-12.4361
-12.4507
-12.4671
-12.485
-12.5037
-12.523
-12.5424
-12.5617
-12.5808
-12.5995
-12.6178
-12.6356
-12.6529
-12.6697
-12.6861
-12.7021
-12.7178
-12.7333
-12.7487
-12.764
-12.7792
-12.7946
-12.81
-12.8257
-12.8415
-12.8575
-12.8738
-12.8901
-12.9064
-12.9226
-12.9383
-12.9534
-12.9673
-12.9796
-12.9898
-12.9973
-13.0014
-13.0015
-12.9973
-12.9883
-12.9727
-12.9477
-12.5168
-12.4907
-12.474
-12.4638
-12.4581
-12.4567
-12.4593
-12.4654
-12.4743
-12.4856
-12.4987
-12.5132
-12.5287
-12.5447
-12.5611
-12.5775
-12.5939
-12.6101
-12.626
-12.6416
-12.6568
-12.6717
-12.6863
-12.7005
-12.7145
-12.7283
-12.742
-12.7556
-12.7691
-12.7828
-12.7964
-12.8103
-12.8242
-12.8383
-12.8525
-12.8667
-12.8808
-12.8947
-12.9081
-12.9208
-12.9324
-12.9425
-12.9507
-12.9565
-12.9594
-12.9588
-12.9546
-12.9466
-12.9332
-12.912
-12.5516
-12.5296
-12.5151
-12.506
-12.5004
-12.4984
-12.4996
-12.5038
-12.5103
-12.519
-12.5292
-12.5408
-12.5532
-12.5664
-12.5799
-12.5937
-12.6075
-12.6213
-12.6348
-12.6482
-12.6614
-12.6743
-12.6869
-12.6993
-12.7115
-12.7236
-12.7355
-12.7474
-12.7592
-12.7711
-12.783
-12.795
-12.8071
-12.8193
-12.8315
-12.8437
-12.8558
-12.8676
-12.8789
-12.8896
-12.8992
-12.9075
-12.9141
-12.9186
-12.9207
-12.9198
-12.9159
-12.909
-12.8976
-12.88
-12.5829
-12.5645
-12.5523
-12.5443
-12.5391
-12.5368
-12.5371
-12.5398
-12.5445
-12.5509
-12.5587
-12.5677
-12.5775
-12.588
-12.5989
-12.6101
-12.6215
-12.6329
-12.6442
-12.6554
-12.6665
-12.6774
-12.6881
-12.6986
-12.709
-12.7192
-12.7294
-12.7395
-12.7496
-12.7596
-12.7698
-12.78
-12.7902
-12.8005
-12.8109
-12.8212
-12.8313
-12.8412
-12.8507
-12.8595
-12.8675
-12.8743
-12.8796
-12.8832
-12.8847
-12.8838
-12.8804
-12.8746
-12.8653
-12.851
-12.6112
-12.5963
-12.5863
-12.5795
-12.5749
-12.5726
-12.5723
-12.5738
-12.577
-12.5815
-12.5873
-12.594
-12.6014
-12.6095
-12.618
-12.6268
-12.6359
-12.645
-12.6541
-12.6631
-12.6721
-12.681
-12.6898
-12.6984
-12.7069
-12.7154
-12.7237
-12.732
-12.7403
-12.7486
-12.7569
-12.7653
-12.7737
-12.7822
-12.7907
-12.7991
-12.8075
-12.8156
-12.8234
-12.8306
-12.8371
-12.8426
-12.8469
-12.8497
-12.8509
-12.8501
-12.8474
-12.8428
-12.8355
-12.8243
-12.6374
-12.6257
-12.6177
-12.6123
-12.6084
-12.6062
-12.6055
-12.6062
-12.6081
-12.6111
-12.615
-12.6197
-12.6251
-12.631
-12.6372
-12.6438
-12.6506
-12.6575
-12.6645
-12.6714
-12.6784
-12.6853
-12.6921
-12.6988
-12.7055
-12.712
-12.7185
-12.725
-12.7315
-12.738
-12.7445
-12.751
-12.7576
-12.7643
-12.7709
-12.7776
-12.7842
-12.7906
-12.7968
-12.8025
-12.8077
-12.812
-12.8155
-12.8178
-12.8188
-12.8183
-12.8164
-12.8129
-12.8075
-12.7993
-12.6619
-12.6533
-12.6473
-12.6431
-12.6401
-12.6381
-12.6372
-12.6373
-12.6382
-12.6399
-12.6422
-12.6451
-12.6485
-12.6524
-12.6566
-12.661
-12.6657
-12.6705
-12.6754
-12.6803
-12.6852
-12.6901
-12.695
-12.6998
-12.7046
-12.7093
-12.7139
-12.7186
-12.7232
-12.7278
-12.7325
-12.7372
-12.742
-12.7468
-12.7517
-12.7566
-12.7614
-12.7662
-12.7708
-12.7751
-12.7791
-12.7824
-12.7851
-12.787
-12.7879
-12.7878
-12.7867
-12.7845
-12.781
-12.7756
-12.6853
-12.6796
-12.6756
-12.6727
-12.6704
-12.6688
-12.6679
-12.6674
-12.6675
-12.668
-12.6689
-12.6702
-12.6719
-12.6738
-12.6761
-12.6785
-12.6811
-12.6839
-12.6867
-12.6897
-12.6926
-12.6956
-12.6985
-12.7014
-12.7043
-12.7071
-12.7099
-12.7126
-12.7154
-12.7182
-12.721
-12.7238
-12.7268
-12.7298
-12.7328
-12.7359
-12.7391
-12.7422
-12.7453
-12.7483
-12.751
-12.7535
-12.7555
-12.757
-12.7579
-12.7582
-12.7579
-12.757
-12.7553
-12.7527
-12.708
-12.7051
-12.703
-12.7014
-12.7
-12.6988
-12.6978
-12.697
-12.6963
-12.6958
-12.6954
-12.6952
-12.6952
-12.6954
-12.6957
-12.6963
-12.6969
-12.6977
-12.6986
-12.6996
-12.7006
-12.7016
-12.7026
-12.7036
-12.7046
-12.7055
-12.7064
-12.7073
-12.7082
-12.7091
-12.71
-12.711
-12.712
-12.7131
-12.7144
-12.7157
-12.7171
-12.7186
-12.7202
-12.7218
-12.7234
-12.7248
-12.7262
-12.7274
-12.7284
-12.7291
-12.7296
-12.73
-12.7302
-12.7303
-12.7303
-12.7302
-12.73
-12.7296
-12.7291
-12.7284
-12.7274
-12.7262
-12.7248
-12.7234
-12.7218
-12.7202
-12.7186
-12.7171
-12.7157
-12.7144
-12.7131
-12.712
-12.711
-12.71
-12.7091
-12.7082
-12.7073
-12.7064
-12.7055
-12.7046
-12.7036
-12.7026
-12.7016
-12.7006
-12.6996
-12.6986
-12.6977
-12.6969
-12.6963
-12.6957
-12.6954
-12.6952
-12.6952
-12.6954
-12.6958
-12.6963
-12.697
-12.6978
-12.6988
-12.7
-12.7014
-12.703
-12.7051
-12.708
-12.7527
-12.7553
-12.757
-12.7579
-12.7582
-12.7579
-12.757
-12.7555
-12.7535
-12.751
-12.7483
-12.7453
-12.7422
-12.7391
-12.7359
-12.7328
-12.7298
-12.7268
-12.7238
-12.721
-12.7182
-12.7154
-12.7126
-12.7099
-12.7071
-12.7043
-12.7014
-12.6985
-12.6956
-12.6926
-12.6897
-12.6867
-12.6839
-12.6811
-12.6785
-12.6761
-12.6738
-12.6719
-12.6702
-12.6689
-12.668
-12.6675
-12.6674
-12.6679
-12.6688
-12.6704
-12.6727
-12.6756
-12.6796
-12.6853
-12.7756
-12.781
-12.7845
-12.7867
-12.7878
-12.7879
-12.787
-12.7851
-12.7824
-12.7791
-12.7751
-12.7708
-12.7662
-12.7614
-12.7566
-12.7517
-12.7468
-12.742
-12.7372
-12.7325
-12.7278
-12.7232
-12.7186
-12.7139
-12.7093
-12.7046
-12.6998
-12.695
-12.6901
-12.6852
-12.6803
-12.6754
-12.6705
-12.6657
-12.661
-12.6566
-12.6524
-12.6486
-12.6451
-12.6422
-12.6399
-12.6382
-12.6373
-12.6372
-12.6381
-12.6401
-12.6431
-12.6473
-12.6533
-12.6619
-12.7993
-12.8075
-12.8129
-12.8164
-12.8183
-12.8188
-12.8178
-12.8155
-12.812
-12.8077
-12.8025
-12.7968
-12.7906
-12.7842
-12.7776
-12.7709
-12.7643
-12.7576
-12.751
-12.7445
-12.738
-12.7315
-12.725
-12.7185
-12.712
-12.7055
-12.6988
-12.6921
-12.6853
-12.6784
-12.6714
-12.6645
-12.6575
-12.6506
-12.6438
-12.6372
-12.631
-12.6251
-12.6197
-12.615
-12.6111
-12.6081
-12.6062
-12.6055
-12.6062
-12.6084
-12.6123
-12.6177
-12.6257
-12.6374
-12.8243
-12.8355
-12.8428
-12.8474
-12.8501
-12.8509
-12.8497
-12.8469
-12.8426
-12.8371
-12.8306
-12.8234
-12.8156
-12.8075
-12.7991
-12.7907
-12.7822
-12.7737
-12.7653
-12.7569
-12.7486
-12.7403
-12.732
-12.7237
-12.7154
-12.7069
-12.6984
-12.6898
-12.681
-12.6721
-12.6631
-12.6541
-12.645
-12.6359
-12.6268
-12.618
-12.6095
-12.6014
-12.594
-12.5873
-12.5815
-12.577
-12.5738
-12.5723
-12.5726
-12.5749
-12.5795
-12.5863
-12.5963
-12.6112
-12.851
-12.8653
-12.8746
-12.8804
-12.8838
-12.8847
-12.8832
-12.8796
-12.8743
-12.8675
-12.8595
-12.8507
-12.8412
-12.8313
-12.8212
-12.8109
-12.8005
-12.7902
-12.78
-12.7698
-12.7596
-12.7496
-12.7395
-12.7294
-12.7192
-12.709
-12.6986
-12.6881
-12.6774
-12.6665
-12.6554
-12.6442
-12.6329
-12.6215
-12.6101
-12.5989
-12.588
-12.5775
-12.5677
-12.5587
-12.5509
-12.5445
-12.5398
-12.5371
-12.5368
-12.5391
-12.5443
-12.5523
-12.5645
-12.5829
-12.88
-12.8976
-12.909
-12.9159
-12.9198
-12.9207
-12.9186
-12.9141
-12.9075
-12.8992
-12.8896
-12.8789
-12.8676
-12.8558
-12.8437
-12.8315
-12.8193
-12.8071
-12.795
-12.783
-12.7711
-12.7592
-12.7474
-12.7355
-12.7236
-12.7115
-12.6993
-12.6869
-12.6743
-12.6614
-12.6482
-12.6348
-12.6213
-12.6075
-12.5937
-12.5799
-12.5664
-12.5532
-12.5408
-12.5292
-12.519
-12.5103
-12.5038
-12.4996
-12.4984
-12.5004
-12.506
-12.5151
-12.5296
-12.5516
-12.912
-12.9332
-12.9466
-12.9546
-12.9588
-12.9594
-12.9565
-12.9507
-12.9425
-12.9324
-12.9208
-12.9081
-12.8947
-12.8808
-12.8667
-12.8525
-12.8383
-12.8242
-12.8103
-12.7964
-12.7828
-12.7691
-12.7556
-12.742
-12.7283
-12.7145
-12.7005
-12.6863
-12.6717
-12.6569
-12.6416
-12.626
-12.6101
-12.5939
-12.5775
-12.5611
-12.5447
-12.5287
-12.5132
-12.4987
-12.4856
-12.4743
-12.4654
-12.4593
-12.4567
-12.4581
-12.4638
-12.474
-12.4907
-12.5168
-12.9477
-12.9727
-12.9883
-12.9973
-13.0015
-13.0014
-12.9973
-12.9898
-12.9796
-12.9673
-12.9534
-12.9383
-12.9226
-12.9064
-12.8901
-12.8738
-12.8575
-12.8415
-12.8257
-12.81
-12.7946
-12.7792
-12.764
-12.7487
-12.7333
-12.7179
-12.7021
-12.6861
-12.6697
-12.6529
-12.6356
-12.6178
-12.5995
-12.5808
-12.5617
-12.5424
-12.523
-12.5037
-12.485
-12.4671
-12.4507
-12.4361
-12.4242
-12.4157
-12.4111
-12.4114
-12.4169
-12.428
-12.447
-12.4774
-12.9881
-13.0173
-13.0351
-13.0447
-13.0487
-13.0474
-13.0415
-13.0317
-13.019
-13.0039
-12.9873
-12.9695
-12.9511
-12.9325
-12.9138
-12.8952
-12.8768
-12.8587
-12.841
-12.8235
-12.8063
-12.7893
-12.7724
-12.7555
-12.7386
-12.7214
-12.7041
-12.6863
-12.6681
-12.6494
-12.6301
-12.6101
-12.5895
-12.5682
-12.5463
-12.524
-12.5013
-12.4785
-12.4561
-12.4344
-12.414
-12.3956
-12.38
-12.3681
-12.3609
-12.3594
-12.3642
-12.3759
-12.3972
-12.4324
-13.0342
-13.0681
-13.0881
-13.0981
-13.1012
-13.0981
-13.0896
-13.0768
-13.0608
-13.0424
-13.0225
-13.0016
-12.9802
-12.9588
-12.9374
-12.9164
-12.8958
-12.8757
-12.856
-12.8368
-12.8179
-12.7992
-12.7807
-12.7623
-12.7438
-12.7252
-12.7062
-12.6868
-12.6669
-12.6464
-12.6251
-12.603
-12.58
-12.5562
-12.5314
-12.5059
-12.4797
-12.4531
-12.4265
-12.4004
-12.3755
-12.3524
-12.3323
-12.3162
-12.3054
-12.3012
-12.3046
-12.3163
-12.3399
-12.3803
-13.0875
-13.1268
-13.1489
-13.1587
-13.1602
-13.1543
-13.1422
-13.1254
-13.1052
-13.0828
-13.0589
-13.0343
-13.0095
-12.985
-12.9608
-12.9373
-12.9143
-12.8921
-12.8705
-12.8495
-12.8289
-12.8087
-12.7887
-12.7688
-12.7489
-12.7289
-12.7085
-12.6876
-12.6661
-12.6438
-12.6207
-12.5965
-12.5712
-12.5448
-12.5171
-12.4883
-12.4584
-12.4277
-12.3966
-12.3655
-12.3351
-12.3065
-12.2807
-12.2592
-12.2435
-12.2355
-12.2364
-12.2476
-12.2733
-12.3194
-13.15
-13.1953
-13.2194
-13.2282
-13.2268
-13.2167
-13.1997
-13.1777
-13.1522
-13.1247
-13.0962
-13.0673
-13.0387
-13.0107
-12.9835
-12.9572
-12.9319
-12.9076
-12.884
-12.8613
-12.8391
-12.8174
-12.7961
-12.7749
-12.7537
-12.7324
-12.7107
-12.6884
-12.6655
-12.6416
-12.6167
-12.5906
-12.5631
-12.5341
-12.5035
-12.4713
-12.4376
-12.4025
-12.3663
-12.3296
-12.2931
-12.2578
-12.2251
-12.1967
-12.1745
-12.1609
-12.158
-12.1675
-12.195
-12.2475
-13.2241
-13.2764
-13.302
-13.3085
-13.3025
-13.2863
-13.2626
-13.2336
-13.2016
-13.1679
-13.1338
-13.1
-13.0671
-13.0353
-13.0049
-12.9758
-12.9481
-12.9216
-12.8963
-12.8719
-12.8482
-12.8252
-12.8027
-12.7803
-12.758
-12.7355
-12.7127
-12.6892
-12.665
-12.6397
-12.6133
-12.5853
-12.5557
-12.5243
-12.4909
-12.4553
-12.4176
-12.3778
-12.3362
-12.2932
-12.2496
-12.2065
-12.1653
-12.128
-12.0973
-12.076
-12.0671
-12.0732
-12.1018
-12.1617
-13.3133
-13.3737
-13.3999
-13.4019
-13.3887
-13.3639
-13.3309
-13.2931
-13.2527
-13.2116
-13.171
-13.1316
-13.0939
-13.0581
-13.0243
-12.9924
-12.9623
-12.9338
-12.9067
-12.8808
-12.8559
-12.8318
-12.8081
-12.7848
-12.7616
-12.7382
-12.7144
-12.6899
-12.6646
-12.6381
-12.6103
-12.5807
-12.5492
-12.5155
-12.4793
-12.4404
-12.3987
-12.3541
-12.3067
-12.2568
-12.2052
-12.1528
-12.1013
-12.0529
-12.0108
-11.9788
-11.9609
-11.9613
-11.9898
-12.0578
-13.4226
-13.4924
-13.5175
-13.5115
-13.4872
-13.45
-13.4047
-13.3553
-13.3046
-13.2547
-13.2066
-13.161
-13.1182
-13.0782
-13.041
-13.0064
-12.974
-12.9436
-12.915
-12.8879
-12.8619
-12.8368
-12.8123
-12.7882
-12.7643
-12.7401
-12.7156
-12.6904
-12.6643
-12.6368
-12.6078
-12.5769
-12.5437
-12.508
-12.4692
-12.4272
-12.3815
-12.3319
-12.2785
-12.2212
-12.1605
-12.0975
-12.0336
-11.9714
-11.9144
-11.8675
-11.8363
-11.8268
-11.853
-11.9304
-13.5594
-13.64
-13.6603
-13.6408
-13.5996
-13.5449
-13.4831
-13.419
-13.3559
-13.2956
-13.2391
-13.1868
-13.1387
-13.0946
-13.0541
-13.0169
-12.9825
-12.9505
-12.9207
-12.8925
-12.8657
-12.84
-12.8149
-12.7904
-12.7659
-12.7414
-12.7164
-12.6907
-12.6639
-12.6358
-12.6059
-12.5739
-12.5394
-12.5019
-12.4609
-12.4159
-12.3665
-12.3121
-12.2525
-12.1874
-12.117
-12.0418
-11.9633
-11.8839
-11.8076
-11.7402
-11.6892
-11.6636
-11.6834
-11.7707
-13.7362
-13.8275
-13.8362
-13.7937
-13.727
-13.6478
-13.5642
-13.4819
-13.404
-13.3321
-13.2666
-13.2074
-13.154
-13.1059
-13.0625
-13.0231
-12.9871
-12.954
-12.9233
-12.8945
-12.8673
-12.8412
-12.8159
-12.7911
-12.7666
-12.7418
-12.7167
-12.6907
-12.6637
-12.6352
-12.6048
-12.572
-12.5365
-12.4976
-12.4548
-12.4073
-12.3546
-12.2957
-12.2301
-12.1571
-12.0762
-11.9877
-11.8923
-11.792
-11.6908
-11.5954
-11.5153
-11.4634
-11.4688
-11.5654
-13.9741
-14.0714
-14.0547
-13.9741
-13.8693
-13.7563
-13.6448
-13.5405
-13.4457
-13.3612
-13.2865
-13.2206
-13.1625
-13.1111
-13.0654
-13.0244
-12.9874
-12.9537
-12.9226
-12.8937
-12.8664
-12.8403
-12.8152
-12.7905
-12.7661
-12.7415
-12.7165
-12.6906
-12.6636
-12.635
-12.6045
-12.5715
-12.5354
-12.4956
-12.4515
-12.4022
-12.3467
-12.2839
-12.2128
-12.1322
-12.041
-11.9382
-11.8238
-11.6987
-11.5662
-11.433
-11.3101
-11.2155
-11.1914
-11.2913
-14.3117
-14.3971
-14.3274
-14.1841
-14.0232
-13.865
-13.7189
-13.5892
-13.4764
-13.3793
-13.296
-13.2244
-13.1626
-13.1089
-13.0618
-13.0202
-12.983
-12.9493
-12.9184
-12.8899
-12.863
-12.8374
-12.8128
-12.7886
-12.7647
-12.7405
-12.7159
-12.6905
-12.6639
-12.6357
-12.6054
-12.5725
-12.5364
-12.4964
-12.4517
-12.4013
-12.3439
-12.2783
-12.2028
-12.1156
-12.0146
-11.8977
-11.7631
-11.6098
-11.439
-11.2558
-11.0714
-10.9079
-10.8246
-10.9069
-14.8208
-14.8418
-14.6654
-14.4208
-14.18
-13.9635
-13.777
-13.6202
-13.4899
-13.3818
-13.2918
-13.2164
-13.1527
-13.0982
-13.0512
-13.01
-12.9735
-12.9406
-12.9107
-12.8831
-12.8572
-12.8326
-12.8088
-12.7855
-12.7624
-12.7391
-12.7153
-12.6906
-12.6647
-12.6372
-12.6077
-12.5754
-12.54
-12.5005
-12.456
-12.4056
-12.3477
-12.2807
-12.2024
-12.1104
-12.0016
-11.8721
-11.7179
-11.5348
-11.3199
-11.0728
-10.8016
-10.5285
-10.3293
-10.3365
-15.6318
-15.4554
-15.0762
-14.6745
-14.3238
-14.0368
-13.807
-13.6247
-13.4801
-13.3646
-13.2713
-13.1951
-13.1319
-13.0787
-13.0332
-12.9938
-12.9591
-12.9281
-12.8998
-12.8737
-12.8493
-12.826
-12.8035
-12.7815
-12.7595
-12.7373
-12.7147
-12.6911
-12.6664
-12.64
-12.6116
-12.5806
-12.5464
-12.5082
-12.465
-12.4157
-12.3588
-12.2923
-12.2137
-12.1199
-12.0065
-11.8681
-11.6976
-11.4862
-11.2239
-10.9005
-10.5112
-10.0697
-9.65468
-9.44636
-17.0408
-16.278
-15.5351
-14.9114
-14.4241
-14.0607
-13.7924
-13.5923
-13.441
-13.3244
-13.233
-13.1599
-13.1002
-13.0506
-13.0086
-12.9724
-12.9405
-12.9121
-12.8862
-12.8622
-12.8397
-12.8182
-12.7974
-12.7769
-12.7564
-12.7356
-12.7143
-12.6922
-12.6689
-12.6441
-12.6174
-12.5881
-12.5559
-12.5198
-12.479
-12.4322
-12.378
-12.3143
-12.2384
-12.1466
-12.0339
-11.893
-11.7138
-11.482
-11.1772
-10.7717
-10.2356
-9.55824
-8.76071
-7.932
-19.8771
-17.2781
-15.8608
-14.9772
-14.3731
-13.9656
-13.6891
-13.4953
-13.3548
-13.2497
-13.1689
-13.1052
-13.0537
-13.011
-12.975
-12.9438
-12.9163
-12.8916
-12.869
-12.848
-12.828
-12.8089
-12.7901
-12.7716
-12.753
-12.7341
-12.7147
-12.6944
-12.6731
-12.6504
-12.6259
-12.5993
-12.5699
-12.5371
-12.5001
-12.4578
-12.4088
-12.3513
-12.2826
-12.1993
-12.0961
-11.9653
-11.7953
-11.5676
-11.2516
-10.7971
-10.1343
-9.1786
-7.67541
-4.95804
-24.7458
-18.3613
-15.6973
-14.602
-14.0092
-13.6588
-13.4433
-13.3009
-13.2005
-13.1261
-13.0688
-13.0234
-12.9862
-12.9551
-12.9284
-12.9049
-12.8839
-12.8646
-12.8466
-12.8295
-12.8131
-12.7971
-12.7812
-12.7653
-12.7493
-12.7329
-12.7159
-12.6982
-12.6796
-12.6598
-12.6386
-12.6156
-12.5904
-12.5626
-12.5315
-12.4962
-12.4559
-12.409
-12.3538
-12.2876
-12.2066
-12.1049
-11.9732
-11.795
-11.5381
-11.1386
-10.4798
-9.28992
-6.50936
-1.79107e-05
)
;

boundaryField
{
    movingWallTop
    {
        type            zeroGradient;
    }
    movingWallBottom
    {
        type            zeroGradient;
    }
    fixedWalls
    {
        type            zeroGradient;
    }
    frontAndBack
    {
        type            empty;
    }
}


// ************************************************************************* //
