/*--------------------------------*- C++ -*----------------------------------*\
  =========                 |
  \\      /  F ield         | OpenFOAM: The Open Source CFD Toolbox
   \\    /   O peration     | Website:  https://openfoam.org
    \\  /    A nd           | Version:  7
     \\/     M anipulation  |
\*---------------------------------------------------------------------------*/
FoamFile
{
    version     2.0;
    format      ascii;
    class       volVectorField;
    location    "0.015";
    object      U;
}
// * * * * * * * * * * * * * * * * * * * * * * * * * * * * * * * * * * * * * //

dimensions      [0 1 -1 0 0 0 0];

internalField   nonuniform List<vector> 
2500
(
(-0.293881 0.153797 0)
(-0.398096 0.128767 0)
(-0.57803 0.0737672 0)
(-0.696022 0.0407853 0)
(-0.76453 0.023253 0)
(-0.808243 0.0139594 0)
(-0.838094 0.00894253 0)
(-0.859355 0.00611075 0)
(-0.875082 0.00440431 0)
(-0.887082 0.00330262 0)
(-0.896445 0.00254708 0)
(-0.903869 0.00200338 0)
(-0.909825 0.00159739 0)
(-0.914642 0.00128552 0)
(-0.918557 0.00104049 0)
(-0.921747 0.000844315 0)
(-0.924343 0.000684567 0)
(-0.926447 0.000552351 0)
(-0.928137 0.0004411 0)
(-0.929473 0.000345827 0)
(-0.9305 0.000262657 0)
(-0.931253 0.000188492 0)
(-0.931757 0.000120792 0)
(-0.932029 5.74008e-05 0)
(-0.932082 -3.58269e-06 0)
(-0.931918 -6.39422e-05 0)
(-0.931537 -0.000125394 0)
(-0.930931 -0.000189719 0)
(-0.930087 -0.000258854 0)
(-0.928984 -0.000335005 0)
(-0.927595 -0.00042078 0)
(-0.925881 -0.000519365 0)
(-0.923793 -0.00063476 0)
(-0.921268 -0.000772113 0)
(-0.918225 -0.000938225 0)
(-0.914558 -0.00114233 0)
(-0.91013 -0.0013974 0)
(-0.904761 -0.00172234 0)
(-0.898206 -0.00214614 0)
(-0.890129 -0.00271566 0)
(-0.880051 -0.0035113 0)
(-0.867259 -0.00467916 0)
(-0.850638 -0.0064983 0)
(-0.82836 -0.00951967 0)
(-0.797386 -0.0148292 0)
(-0.752552 -0.0244774 0)
(-0.683109 -0.0421923 0)
(-0.565389 -0.0747124 0)
(-0.389555 -0.128236 0)
(-0.290267 -0.152427 0)
(-0.00520364 0.303055 0)
(-0.0269659 0.307263 0)
(-0.170629 0.217345 0)
(-0.306436 0.145782 0)
(-0.413874 0.0981074 0)
(-0.497267 0.0675989 0)
(-0.561519 0.048148 0)
(-0.6111 0.0354535 0)
(-0.649749 0.0268576 0)
(-0.680247 0.020809 0)
(-0.704581 0.016403 0)
(-0.724177 0.0130976 0)
(-0.740073 0.0105563 0)
(-0.753034 0.00856198 0)
(-0.763634 0.00696911 0)
(-0.772308 0.00567661 0)
(-0.779392 0.00461209 0)
(-0.785144 0.00372222 0)
(-0.789767 0.0029667 0)
(-0.793415 0.00231437 0)
(-0.79621 0.00174058 0)
(-0.798244 0.00122534 0)
(-0.799582 0.000752015 0)
(-0.800273 0.00030629 0)
(-0.800343 -0.000124597 0)
(-0.799804 -0.000552558 0)
(-0.798652 -0.00098924 0)
(-0.796867 -0.00144662 0)
(-0.79441 -0.0019376 0)
(-0.791227 -0.00247671 0)
(-0.787242 -0.00308085 0)
(-0.782354 -0.00377033 0)
(-0.776433 -0.00457018 0)
(-0.769316 -0.00551197 0)
(-0.760793 -0.00663648 0)
(-0.750599 -0.00799757 0)
(-0.738395 -0.00966829 0)
(-0.723745 -0.0117506 0)
(-0.706079 -0.0143911 0)
(-0.684647 -0.0178088 0)
(-0.658441 -0.022342 0)
(-0.626096 -0.0285322 0)
(-0.585732 -0.0372734 0)
(-0.534773 -0.0500719 0)
(-0.469853 -0.0694435 0)
(-0.387095 -0.0993146 0)
(-0.282318 -0.145071 0)
(-0.152081 -0.212857 0)
(-0.0168003 -0.298557 0)
(-0.0010884 -0.29491 0)
(0.0321561 0.26407 0)
(0.0568886 0.361645 0)
(-0.0018956 0.323353 0)
(-0.092259 0.258008 0)
(-0.186131 0.197552 0)
(-0.271897 0.149855 0)
(-0.34553 0.114385 0)
(-0.406906 0.0883854 0)
(-0.457469 0.0692151 0)
(-0.498986 0.0548776 0)
(-0.533088 0.0439705 0)
(-0.561151 0.0355294 0)
(-0.58429 0.0288899 0)
(-0.603396 0.023589 0)
(-0.619175 0.0192979 0)
(-0.632186 0.0157782 0)
(-0.642875 0.0128533 0)
(-0.651592 0.0103896 0)
(-0.658619 0.0082842 0)
(-0.664174 0.00645602 0)
(-0.66843 0.00484001 0)
(-0.671519 0.00338276 0)
(-0.673537 0.00203932 0)
(-0.674552 0.000770746 0)
(-0.674606 -0.000457956 0)
(-0.673715 -0.00167948 0)
(-0.671873 -0.00292582 0)
(-0.669051 -0.00422973 0)
(-0.665194 -0.00562626 0)
(-0.660224 -0.00715437 0)
(-0.654032 -0.00885896 0)
(-0.646477 -0.0107931 0)
(-0.637381 -0.0130213 0)
(-0.626518 -0.0156234 0)
(-0.61361 -0.0187002 0)
(-0.598311 -0.0223818 0)
(-0.580192 -0.0268394 0)
(-0.558725 -0.0323026 0)
(-0.533252 -0.039086 0)
(-0.502962 -0.0476295 0)
(-0.466861 -0.0585577 0)
(-0.42376 -0.0727666 0)
(-0.372299 -0.0915376 0)
(-0.311105 -0.116658 0)
(-0.23925 -0.150428 0)
(-0.157395 -0.195123 0)
(-0.069866 -0.250825 0)
(0.0119789 -0.310109 0)
(0.0617542 -0.343802 0)
(0.0329397 -0.250356 0)
(0.02728 0.204902 0)
(0.0646661 0.356026 0)
(0.0578303 0.372197 0)
(0.0131833 0.333469 0)
(-0.0510028 0.279427 0)
(-0.120508 0.227397 0)
(-0.18729 0.183122 0)
(-0.247682 0.147299 0)
(-0.300533 0.118861 0)
(-0.345946 0.0963783 0)
(-0.384561 0.0785428 0)
(-0.417198 0.0642919 0)
(-0.444677 0.052804 0)
(-0.467741 0.0434543 0)
(-0.48704 0.0357688 0)
(-0.503122 0.0293861 0)
(-0.516443 0.0240272 0)
(-0.52738 0.0194744 0)
(-0.536241 0.0155552 0)
(-0.543274 0.0121311 0)
(-0.548675 0.00908866 0)
(-0.552597 0.00633349 0)
(-0.555155 0.00378519 0)
(-0.55643 0.0013734 0)
(-0.556471 -0.000965404 0)
(-0.555299 -0.0032908 0)
(-0.552908 -0.00566096 0)
(-0.549265 -0.0081351 0)
(-0.544309 -0.0107761 0)
(-0.53795 -0.0136529 0)
(-0.530065 -0.016844 0)
(-0.5205 -0.0204404 0)
(-0.509059 -0.0245508 0)
(-0.495503 -0.0293065 0)
(-0.479543 -0.0348696 0)
(-0.460834 -0.0414424 0)
(-0.438968 -0.0492816 0)
(-0.41347 -0.0587165 0)
(-0.383796 -0.0701734 0)
(-0.349348 -0.0842071 0)
(-0.309503 -0.101536 0)
(-0.263704 -0.123071 0)
(-0.211633 -0.149905 0)
(-0.153558 -0.18318 0)
(-0.0909673 -0.223637 0)
(-0.0276296 -0.270375 0)
(0.0287941 -0.317917 0)
(0.0652553 -0.350536 0)
(0.0656931 -0.332457 0)
(0.0268164 -0.190474 0)
(0.0186445 0.162565 0)
(0.0543413 0.328227 0)
(0.0720145 0.381084 0)
(0.0595768 0.371408 0)
(0.0240531 0.333638 0)
(-0.023981 0.287393 0)
(-0.0764968 0.242241 0)
(-0.128408 0.20202 0)
(-0.176923 0.167716 0)
(-0.220745 0.139062 0)
(-0.259483 0.115338 0)
(-0.29324 0.0957349 0)
(-0.322362 0.0795063 0)
(-0.34729 0.0660136 0)
(-0.368481 0.0547292 0)
(-0.386369 0.0452232 0)
(-0.401344 0.037147 0)
(-0.413746 0.030217 0)
(-0.423865 0.0242013 0)
(-0.431942 0.0189081 0)
(-0.438173 0.0141772 0)
(-0.442716 0.00987295 0)
(-0.445687 0.00587781 0)
(-0.447173 0.002088 0)
(-0.447227 -0.0015909 0)
(-0.445874 -0.00524765 0)
(-0.443108 -0.00896879 0)
(-0.4389 -0.0128419 0)
(-0.433189 -0.0169588 0)
(-0.425888 -0.0214193 0)
(-0.416879 -0.0263344 0)
(-0.406015 -0.0318308 0)
(-0.393115 -0.0380559 0)
(-0.377965 -0.0451834 0)
(-0.360315 -0.0534204 0)
(-0.339884 -0.0630163 0)
(-0.316365 -0.074273 0)
(-0.289433 -0.0875563 0)
(-0.258772 -0.103307 0)
(-0.224121 -0.122046 0)
(-0.185352 -0.144367 0)
(-0.142606 -0.170881 0)
(-0.0965194 -0.202081 0)
(-0.048574 -0.238012 0)
(-0.00158776 -0.277577 0)
(0.0397053 -0.317171 0)
(0.0681258 -0.348214 0)
(0.0744943 -0.353338 0)
(0.0534523 -0.301983 0)
(0.0179121 -0.148863 0)
(0.0121845 0.133061 0)
(0.042298 0.295336 0)
(0.0693902 0.369125 0)
(0.0763654 0.383363 0)
(0.062838 0.363814 0)
(0.0347182 0.328344 0)
(-0.00187919 0.287753 0)
(-0.0421029 0.247812 0)
(-0.0825882 0.211215 0)
(-0.121244 0.178925 0)
(-0.156919 0.151014 0)
(-0.189087 0.127146 0)
(-0.217611 0.106831 0)
(-0.24258 0.0895541 0)
(-0.2642 0.0748325 0)
(-0.282729 0.0622368 0)
(-0.298437 0.0513948 0)
(-0.311585 0.0419881 0)
(-0.322407 0.0337455 0)
(-0.33111 0.0264355 0)
(-0.337869 0.0198595 0)
(-0.342827 0.0138453 0)
(-0.346094 0.00824165 0)
(-0.347753 0.00291313 0)
(-0.347857 -0.00226448 0)
(-0.346432 -0.00740833 0)
(-0.343477 -0.0126324 0)
(-0.338968 -0.0180513 0)
(-0.332854 -0.0237838 0)
(-0.325061 -0.0299569 0)
(-0.31549 -0.0367093 0)
(-0.30402 -0.0441954 0)
(-0.290508 -0.0525901 0)
(-0.27479 -0.0620925 0)
(-0.256693 -0.0729315 0)
(-0.236036 -0.0853694 0)
(-0.212651 -0.0997058 0)
(-0.186404 -0.116277 0)
(-0.157241 -0.135447 0)
(-0.125242 -0.157588 0)
(-0.0907199 -0.183019 0)
(-0.0543596 -0.211897 0)
(-0.0174071 -0.243993 0)
(0.0180856 -0.278291 0)
(0.0490195 -0.31228 0)
(0.0711473 -0.340827 0)
(0.0793106 -0.354558 0)
(0.0687497 -0.337981 0)
(0.0406413 -0.268543 0)
(0.0115014 -0.120404 0)
(0.00812282 0.111718 0)
(0.0326956 0.26389 0)
(0.0618691 0.347727 0)
(0.0792319 0.379056 0)
(0.0807111 0.375746 0)
(0.0685084 0.352382 0)
(0.0464355 0.319238 0)
(0.018303 0.282822 0)
(-0.01273 0.246896 0)
(-0.0443434 0.213402 0)
(-0.0749831 0.183175 0)
(-0.103694 0.156416 0)
(-0.129952 0.132986 0)
(-0.153525 0.112589 0)
(-0.174365 0.0948662 0)
(-0.192539 0.0794506 0)
(-0.208173 0.0659946 0)
(-0.22142 0.0541799 0)
(-0.232439 0.0437217 0)
(-0.241384 0.0343669 0)
(-0.248389 0.0258916 0)
(-0.253572 0.0180967 0)
(-0.257027 0.010804 0)
(-0.258826 0.00385126 0)
(-0.259017 -0.00291129 0)
(-0.257626 -0.00962562 0)
(-0.254659 -0.0164297 0)
(-0.250099 -0.023461 0)
(-0.243911 -0.0308608 0)
(-0.23604 -0.0387769 0)
(-0.226418 -0.0473675 0)
(-0.21496 -0.0568041 0)
(-0.201574 -0.0672743 0)
(-0.186167 -0.078984 0)
(-0.16865 -0.0921581 0)
(-0.148959 -0.107039 0)
(-0.127072 -0.123883 0)
(-0.103043 -0.142942 0)
(-0.0770472 -0.164446 0)
(-0.0494403 -0.188549 0)
(-0.0208463 -0.215243 0)
(0.00773679 -0.244216 0)
(0.034815 -0.274602 0)
(0.0582872 -0.304599 0)
(0.0754244 -0.330895 0)
(0.0830752 -0.347895 0)
(0.0782376 -0.346867 0)
(0.0594237 -0.315354 0)
(0.0307856 -0.237836 0)
(0.00754578 -0.100198 0)
(0.00568517 0.0957495 0)
(0.0257491 0.235806 0)
(0.0538268 0.322856 0)
(0.0760167 0.365246 0)
(0.0869338 0.374855 0)
(0.0863916 0.362853 0)
(0.0762395 0.338139 0)
(0.059051 0.307095 0)
(0.0373827 0.273931 0)
(0.0133917 0.241218 0)
(-0.0112748 0.210386 0)
(-0.035448 0.182125 0)
(-0.0583525 0.156665 0)
(-0.0795122 0.133967 0)
(-0.0986666 0.113846 0)
(-0.115702 0.0960426 0)
(-0.130603 0.0802737 0)
(-0.143408 0.0662534 0)
(-0.154192 0.0537087 0)
(-0.163041 0.0423848 0)
(-0.170043 0.0320478 0)
(-0.17528 0.0224835 0)
(-0.178823 0.0134957 0)
(-0.180729 0.00490342 0)
(-0.181037 -0.00346288 0)
(-0.179774 -0.0117643 0)
(-0.176949 -0.0201572 0)
(-0.172556 -0.0287965 0)
(-0.166577 -0.0378389 0)
(-0.158983 -0.0474456 0)
(-0.149737 -0.0577847 0)
(-0.1388 -0.0690331 0)
(-0.126136 -0.0813767 0)
(-0.11172 -0.0950099 0)
(-0.0955535 -0.110132 0)
(-0.077681 -0.12694 0)
(-0.0582118 -0.145614 0)
(-0.037353 -0.166297 0)
(-0.015451 -0.189052 0)
(0.00695704 -0.2138 0)
(0.0290823 -0.240225 0)
(0.04982 -0.267617 0)
(0.0676995 -0.294649 0)
(0.0808827 -0.319068 0)
(0.0872819 -0.337287 0)
(0.0848992 -0.343948 0)
(0.0724406 -0.331599 0)
(0.0503941 -0.290784 0)
(0.0237892 -0.211204 0)
(0.00519719 -0.0853568 0)
(0.00419772 0.0833517 0)
(0.0207842 0.211259 0)
(0.046606 0.297531 0)
(0.0704434 0.346389 0)
(0.0868419 0.365543 0)
(0.0943055 0.363222 0)
(0.0932742 0.346712 0)
(0.0852121 0.321777 0)
(0.0719591 0.29262 0)
(0.0553026 0.262102 0)
(0.0367698 0.232042 0)
(0.0175656 0.203509 0)
(-0.00141635 0.17706 0)
(-0.0195482 0.152908 0)
(-0.0364134 0.131059 0)
(-0.0517544 0.111388 0)
(-0.0654282 0.0937005 0)
(-0.0773711 0.0777694 0)
(-0.0875708 0.0633546 0)
(-0.0960468 0.0502184 0)
(-0.102836 0.0381317 0)
(-0.10798 0.026878 0)
(-0.111523 0.0162535 0)
(-0.113503 0.00606649 0)
(-0.11395 -0.00386431 0)
(-0.112887 -0.0137124 0)
(-0.110326 -0.0236459 0)
(-0.106275 -0.0338303 0)
(-0.100731 -0.0444306 0)
(-0.0936916 -0.055613 0)
(-0.0851534 -0.0675463 0)
(-0.0751199 -0.0804016 0)
(-0.0636087 -0.0943506 0)
(-0.0506614 -0.109562 0)
(-0.0363575 -0.126193 0)
(-0.0208312 -0.144378 0)
(-0.00429395 -0.16421 0)
(0.0129386 -0.185706 0)
(0.0304136 -0.208766 0)
(0.0475059 -0.233102 0)
(0.0633826 -0.258141 0)
(0.0769809 -0.282891 0)
(0.0870134 -0.305753 0)
(0.0920362 -0.324305 0)
(0.0906302 -0.33505 0)
(0.0817562 -0.333222 0)
(0.0652744 -0.312776 0)
(0.0426784 -0.266768 0)
(0.0188591 -0.188481 0)
(0.0037759 -0.0740373 0)
(0.00324601 0.0733875 0)
(0.0171589 0.189894 0)
(0.0404468 0.273196 0)
(0.064192 0.325277 0)
(0.0834163 0.351069 0)
(0.0960378 0.356499 0)
(0.101599 0.34732 0)
(0.100703 0.328481 0)
(0.0945226 0.303893 0)
(0.0844059 0.276444 0)
(0.0716449 0.248148 0)
(0.0573578 0.220328 0)
(0.0424495 0.19379 0)
(0.0276152 0.168971 0)
(0.0133659 0.146056 0)
(6.07344e-05 0.12506 0)
(-0.0120594 0.105892 0)
(-0.0228427 0.088397 0)
(-0.0322013 0.0723852 0)
(-0.040092 0.0576502 0)
(-0.0465007 0.0439817 0)
(-0.0514315 0.0311718 0)
(-0.0548985 0.0190195 0)
(-0.0569199 0.00733153 0)
(-0.0575148 -0.00407749 0)
(-0.0567011 -0.0153861 0)
(-0.0544949 -0.0267672 0)
(-0.0509112 -0.0383897 0)
(-0.0459659 -0.0504196 0)
(-0.0396785 -0.0630207 0)
(-0.032077 -0.0763537 0)
(-0.0232033 -0.0905751 0)
(-0.0131217 -0.105833 0)
(-0.00192842 -0.122259 0)
(0.0102354 -0.139961 0)
(0.0231685 -0.159004 0)
(0.0365908 -0.179387 0)
(0.0501233 -0.201011 0)
(0.0632658 -0.223632 0)
(0.0753782 -0.24679 0)
(0.0856693 -0.269733 0)
(0.0932045 -0.291295 0)
(0.0969481 -0.30977 0)
(0.0958643 -0.322767 0)
(0.0891098 -0.327084 0)
(0.0763449 -0.31867 0)
(0.0581199 -0.292769 0)
(0.0363251 -0.244366 0)
(0.0153101 -0.169112 0)
(0.00287482 -0.0650935 0)
(0.00260004 0.0651627 0)
(0.0144195 0.171266 0)
(0.0352396 0.250485 0)
(0.0579722 0.303597 0)
(0.0782932 0.333724 0)
(0.0939647 0.345078 0)
(0.104022 0.342101 0)
(0.108465 0.328904 0)
(0.107916 0.308958 0)
(0.103304 0.285011 0)
(0.0956437 0.259113 0)
(0.0858969 0.232721 0)
(0.0749058 0.206813 0)
(0.0633662 0.181999 0)
(0.051828 0.158618 0)
(0.0407099 0.136816 0)
(0.0303194 0.116606 0)
(0.020875 0.0979128 0)
(0.0125254 0.080605 0)
(0.00536759 0.0645186 0)
(-0.000539712 0.0494722 0)
(-0.00516452 0.0352767 0)
(-0.00849323 0.0217428 0)
(-0.0105245 0.00868389 0)
(-0.0112652 -0.00408191 0)
(-0.0107278 -0.016731 0)
(-0.00892964 -0.0294344 0)
(-0.00589324 -0.0423578 0)
(-0.00164801 -0.0556616 0)
(0.00376675 -0.0695003 0)
(0.0102975 -0.08402 0)
(0.0178709 -0.0993556 0)
(0.0263859 -0.115625 0)
(0.0357053 -0.132919 0)
(0.0456446 -0.151291 0)
(0.0559594 -0.170736 0)
(0.0663325 -0.19117 0)
(0.0763599 -0.21239 0)
(0.0855402 -0.234035 0)
(0.0932691 -0.255526 0)
(0.0988463 -0.275996 0)
(0.101503 -0.294207 0)
(0.100464 -0.308461 0)
(0.0950526 -0.316521 0)
(0.0848697 -0.31557 0)
(0.0700391 -0.302262 0)
(0.0514713 -0.272918 0)
(0.0311121 -0.223944 0)
(0.0126706 -0.152531 0)
(0.00227018 -0.0578265 0)
(0.00213475 0.0582455 0)
(0.0122709 0.154979 0)
(0.0308007 0.229638 0)
(0.0520534 0.282353 0)
(0.072364 0.315079 0)
(0.0895704 0.330785 0)
(0.102468 0.332853 0)
(0.110668 0.324623 0)
(0.114381 0.309084 0)
(0.114178 0.28874 0)
(0.110799 0.265575 0)
(0.105023 0.24108 0)
(0.0975877 0.216331 0)
(0.0891416 0.192057 0)
(0.0802307 0.168718 0)
(0.0712959 0.146572 0)
(0.0626822 0.125729 0)
(0.0546517 0.106193 0)
(0.0473977 0.0878938 0)
(0.041059 0.0707163 0)
(0.0357309 0.0545146 0)
(0.0314766 0.0391261 0)
(0.0283339 0.0243803 0)
(0.0263225 0.0101043 0)
(0.0254474 -0.00387336 0)
(0.0257022 -0.0177207 0)
(0.0270699 -0.0316008 0)
(0.0295229 -0.0456704 0)
(0.0330217 -0.0600788 0)
(0.0375119 -0.0749655 0)
(0.0429208 -0.0904574 0)
(0.0491519 -0.106663 0)
(0.0560784 -0.123668 0)
(0.063536 -0.141519 0)
(0.0713143 -0.160218 0)
(0.079148 -0.179696 0)
(0.086708 -0.199794 0)
(0.0935953 -0.220229 0)
(0.0993383 -0.240554 0)
(0.103399 -0.260115 0)
(0.105188 -0.277991 0)
(0.10411 -0.292941 0)
(0.0996205 -0.303353 0)
(0.0913333 -0.307207 0)
(0.0791644 -0.302089 0)
(0.0635168 -0.285279 0)
(0.0454477 -0.253958 0)
(0.0267877 -0.205557 0)
(0.0106359 -0.138263 0)
(0.00184053 -0.0518013 0)
(0.00178136 0.0523569 0)
(0.0105259 0.14071 0)
(0.0269622 0.210707 0)
(0.0465146 0.262137 0)
(0.0661152 0.296198 0)
(0.0837873 0.314975 0)
(0.0982568 0.321023 0)
(0.10891 0.317013 0)
(0.11567 0.30547 0)
(0.118823 0.288611 0)
(0.118868 0.268283 0)
(0.116405 0.245944 0)
(0.112043 0.222704 0)
(0.106359 0.199363 0)
(0.0998632 0.176469 0)
(0.0929907 0.154368 0)
(0.086098 0.133253 0)
(0.0794701 0.113199 0)
(0.0733284 0.0941989 0)
(0.0678407 0.0761864 0)
(0.0631301 0.0590553 0)
(0.059284 0.0426743 0)
(0.0563608 0.0268974 0)
(0.0543956 0.0115708 0)
(0.0534045 -0.0034612 0)
(0.0533873 -0.018353 0)
(0.0543286 -0.0332547 0)
(0.0561986 -0.0483092 0)
(0.058951 -0.0636505 0)
(0.0625217 -0.0793995 0)
(0.0668252 -0.0956604 0)
(0.0717503 -0.112514 0)
(0.0771549 -0.13001 0)
(0.0828605 -0.148157 0)
(0.0886462 -0.166906 0)
(0.0942432 -0.186135 0)
(0.0993303 -0.205624 0)
(0.103534 -0.22503 0)
(0.10643 -0.24385 0)
(0.10756 -0.261391 0)
(0.106451 -0.276726 0)
(0.102662 -0.28866 0)
(0.095842 -0.295707 0)
(0.0858211 -0.296085 0)
(0.0727233 -0.287759 0)
(0.0570992 -0.268541 0)
(0.040024 -0.236279 0)
(0.0231402 -0.189133 0)
(0.00901293 -0.125939 0)
(0.00151897 -0.0467366 0)
(0.001501 0.0473086 0)
(0.00906594 0.128206 0)
(0.0235925 0.19366 0)
(0.0413597 0.243286 0)
(0.0598152 0.277793 0)
(0.077209 0.298638 0)
(0.0922988 0.307741 0)
(0.104363 0.307224 0)
(0.113136 0.299186 0)
(0.118696 0.285555 0)
(0.121345 0.268005 0)
(0.121515 0.247916 0)
(0.119692 0.226385 0)
(0.116365 0.204242 0)
(0.111991 0.18209 0)
(0.106978 0.160341 0)
(0.101675 0.139252 0)
(0.0963715 0.118964 0)
(0.0913024 0.0995244 0)
(0.0866524 0.0809154 0)
(0.0825631 0.0630718 0)
(0.0791392 0.0458958 0)
(0.0764548 0.029269 0)
(0.0745575 0.0130608 0)
(0.0734729 -0.00286494 0)
(0.0732068 -0.0186449 0)
(0.0737467 -0.0344122 0)
(0.0750624 -0.0502929 0)
(0.077105 -0.0664023 0)
(0.079805 -0.0828404 0)
(0.0830706 -0.0996869 0)
(0.0867835 -0.116995 0)
(0.0907956 -0.13478 0)
(0.0949252 -0.153013 0)
(0.0989531 -0.171604 0)
(0.10262 -0.190385 0)
(0.105626 -0.209091 0)
(0.107635 -0.227337 0)
(0.10828 -0.244591 0)
(0.107182 -0.260148 0)
(0.103977 -0.273107 0)
(0.0983547 -0.282347 0)
(0.0901137 -0.286527 0)
(0.079236 -0.2841 0)
(0.0659712 -0.273365 0)
(0.0509288 -0.25257 0)
(0.0351303 -0.220073 0)
(0.0200085 -0.174554 0)
(0.00767816 -0.115274 0)
(0.00126749 -0.0424433 0)
(0.00127083 0.0429674 0)
(0.00781477 0.117266 0)
(0.0205948 0.178429 0)
(0.0365668 0.225988 0)
(0.0536146 0.260335 0)
(0.0702206 0.282483 0)
(0.0852297 0.293874 0)
(0.0978898 0.296184 0)
(0.107828 0.291146 0)
(0.114975 0.280412 0)
(0.11948 0.265473 0)
(0.121634 0.247605 0)
(0.12181 0.227861 0)
(0.120405 0.207069 0)
(0.117817 0.18586 0)
(0.11441 0.164688 0)
(0.110514 0.143862 0)
(0.106408 0.123573 0)
(0.102329 0.103919 0)
(0.0984683 0.0849263 0)
(0.0949759 0.0665688 0)
(0.091968 0.0487828 0)
(0.0895289 0.0314792 0)
(0.0877157 0.0145527 0)
(0.0865616 -0.00211063 0)
(0.0860779 -0.0186272 0)
(0.0862558 -0.0351107 0)
(0.0870667 -0.051668 0)
(0.0884618 -0.0683939 0)
(0.090371 -0.0853662 0)
(0.0927013 -0.10264 0)
(0.0953341 -0.120241 0)
(0.0981229 -0.138154 0)
(0.100891 -0.156318 0)
(0.103431 -0.174605 0)
(0.105501 -0.192813 0)
(0.106832 -0.210645 0)
(0.107129 -0.227691 0)
(0.106085 -0.243406 0)
(0.103395 -0.257099 0)
(0.0987889 -0.267909 0)
(0.0920603 -0.274807 0)
(0.0831191 -0.276598 0)
(0.0720458 -0.271948 0)
(0.0591557 -0.259446 0)
(0.0450603 -0.237689 0)
(0.0306906 -0.205421 0)
(0.0172744 -0.161693 0)
(0.00655163 -0.106049 0)
(0.00106367 -0.038789 0)
(0.00107687 0.0392353 0)
(0.00672241 0.107728 0)
(0.017899 0.164926 0)
(0.0321078 0.210331 0)
(0.0475991 0.244127 0)
(0.0630757 0.267013 0)
(0.0774972 0.280073 0)
(0.0901311 0.28463 0)
(0.100553 0.282107 0)
(0.1086 0.27391 0)
(0.114307 0.261352 0)
(0.117856 0.245592 0)
(0.119515 0.227619 0)
(0.119602 0.208239 0)
(0.118447 0.188089 0)
(0.116371 0.167646 0)
(0.113669 0.147256 0)
(0.110605 0.12715 0)
(0.107405 0.107465 0)
(0.104257 0.0882696 0)
(0.101316 0.0695724 0)
(0.0987012 0.051343 0)
(0.0965027 0.0335212 0)
(0.0947839 0.0160279 0)
(0.0935835 -0.00122744 0)
(0.0929176 -0.0183396 0)
(0.0927815 -0.0354016 0)
(0.0931497 -0.0524997 0)
(0.0939761 -0.0697077 0)
(0.0951936 -0.0870812 0)
(0.0967123 -0.104652 0)
(0.0984186 -0.122418 0)
(0.100174 -0.14034 0)
(0.101813 -0.158324 0)
(0.103144 -0.176218 0)
(0.103952 -0.193791 0)
(0.104 -0.210724 0)
(0.103037 -0.226595 0)
(0.10081 -0.240864 0)
(0.0970826 -0.25286 0)
(0.091659 -0.261779 0)
(0.084414 -0.266684 0)
(0.075333 -0.266518 0)
(0.0645554 -0.260139 0)
(0.05242 -0.246372 0)
(0.0395056 -0.224094 0)
(0.0266368 -0.19234 0)
(0.0148522 -0.150429 0)
(0.00558022 -0.0980932 0)
(0.00089369 -0.0356778 0)
(0.000910143 0.0360368 0)
(0.00575501 0.0994585 0)
(0.0154543 0.153062 0)
(0.0279555 0.196344 0)
(0.041817 0.229356 0)
(0.0559429 0.252576 0)
(0.0694177 0.266818 0)
(0.081559 0.273131 0)
(0.091931 0.272681 0)
(0.100315 0.266663 0)
(0.106672 0.256222 0)
(0.111095 0.242402 0)
(0.113772 0.226118 0)
(0.114944 0.20814 0)
(0.11488 0.189094 0)
(0.113852 0.169468 0)
(0.112122 0.14963 0)
(0.109926 0.129839 0)
(0.107476 0.110267 0)
(0.10495 0.0910154 0)
(0.102499 0.0721252 0)
(0.100242 0.0535962 0)
(0.0982702 0.0353963 0)
(0.0966501 0.0174717 0)
(0.095424 -0.000244756 0)
(0.094612 -0.0178258 0)
(0.0942135 -0.0353435 0)
(0.0942072 -0.0528636 0)
(0.0945518 -0.0704389 0)
(0.0951855 -0.0881037 0)
(0.0960253 -0.105867 0)
(0.0969667 -0.123704 0)
(0.0978827 -0.141551 0)
(0.0986243 -0.159291 0)
(0.0990211 -0.176748 0)
(0.098884 -0.193673 0)
(0.0980104 -0.209734 0)
(0.0961916 -0.224505 0)
(0.0932249 -0.237458 0)
(0.0889296 -0.247953 0)
(0.0831688 -0.255245 0)
(0.0758757 -0.258485 0)
(0.0670844 -0.256742 0)
(0.0569626 -0.249036 0)
(0.0458444 -0.234389 0)
(0.0342557 -0.211897 0)
(0.0229111 -0.180813 0)
(0.0126788 -0.140651 0)
(0.00472753 -0.0912709 0)
(0.000748635 -0.0330374 0)
(0.000764624 0.0333122 0)
(0.00488882 0.0923449 0)
(0.0132225 0.142744 0)
(0.0240846 0.184017 0)
(0.0362932 0.21613 0)
(0.048933 0.239405 0)
(0.0612136 0.254456 0)
(0.0725202 0.262118 0)
(0.0824319 0.263353 0)
(0.0907071 0.259172 0)
(0.0972563 0.250575 0)
(0.102112 0.238496 0)
(0.105394 0.223774 0)
(0.107282 0.207134 0)
(0.107989 0.189182 0)
(0.107741 0.170406 0)
(0.10676 0.151184 0)
(0.105257 0.131797 0)
(0.10342 0.112442 0)
(0.101416 0.0932464 0)
(0.0993846 0.074281 0)
(0.0974409 0.055572 0)
(0.0956746 0.0371129 0)
(0.0941521 0.0188738 0)
(0.0929173 0.000810119 0)
(0.0919934 -0.0171297 0)
(0.0913835 -0.0349975 0)
(0.0910715 -0.0528389 0)
(0.091022 -0.0706871 0)
(0.0911806 -0.0885561 0)
(0.091474 -0.106434 0)
(0.0918092 -0.124278 0)
(0.0920741 -0.142 0)
(0.0921382 -0.159465 0)
(0.0918539 -0.176481 0)
(0.0910603 -0.192784 0)
(0.0895879 -0.208036 0)
(0.0872663 -0.221814 0)
(0.0839357 -0.233606 0)
(0.0794609 -0.242808 0)
(0.0737497 -0.248729 0)
(0.0667747 -0.250602 0)
(0.0585972 -0.247607 0)
(0.0493917 -0.238898 0)
(0.0394687 -0.223659 0)
(0.0292908 -0.201153 0)
(0.0194643 -0.170803 0)
(0.0107065 -0.132259 0)
(0.00396769 -0.0854728 0)
(0.000622484 -0.0308125 0)
(0.000636043 0.0310126 0)
(0.00410628 0.0862909 0)
(0.0111736 0.133883 0)
(0.0204706 0.173316 0)
(0.0310362 0.2045 0)
(0.0421151 0.227649 0)
(0.0530375 0.24323 0)
(0.0632645 0.251913 0)
(0.072408 0.254495 0)
(0.0802246 0.251841 0)
(0.0865981 0.24482 0)
(0.091518 0.234267 0)
(0.0950549 0.22095 0)
(0.0973369 0.205547 0)
(0.098528 0.188637 0)
(0.0988104 0.170699 0)
(0.0983705 0.152115 0)
(0.097388 0.13318 0)
(0.0960295 0.114109 0)
(0.0944435 0.0950512 0)
(0.0927577 0.0761003 0)
(0.0910788 0.0573062 0)
(0.0894918 0.0386851 0)
(0.0880607 0.0202288 0)
(0.0868299 0.00191351 0)
(0.0858242 -0.0162926 0)
(0.0850505 -0.0344224 0)
(0.0844978 -0.0525029 0)
(0.0841377 -0.0705492 0)
(0.0839247 -0.088557 0)
(0.0837964 -0.106497 0)
(0.0836734 -0.124306 0)
(0.0834604 -0.141882 0)
(0.0830466 -0.159073 0)
(0.0823083 -0.175673 0)
(0.0811118 -0.19141 0)
(0.0793186 -0.205943 0)
(0.0767927 -0.218856 0)
(0.0734101 -0.229655 0)
(0.069071 -0.23777 0)
(0.0637156 -0.242562 0)
(0.0573407 -0.243334 0)
(0.0500187 -0.23936 0)
(0.0419154 -0.229906 0)
(0.0333057 -0.214282 0)
(0.024584 -0.191885 0)
(0.0162536 -0.162263 0)
(0.00889794 -0.125167 0)
(0.0032814 -0.0806101 0)
(0.000510944 -0.0289593 0)
(0.0005212 0.0290976 0)
(0.00339365 0.081213 0)
(0.00928271 0.126394 0)
(0.0170893 0.164191 0)
(0.026042 0.19448 0)
(0.0355271 0.217397 0)
(0.0449885 0.233306 0)
(0.053966 0.242748 0)
(0.0621156 0.246393 0)
(0.0692072 0.244984 0)
(0.0751148 0.239284 0)
(0.0798015 0.230041 0)
(0.0833018 0.217957 0)
(0.0857029 0.203663 0)
(0.0871278 0.18771 0)
(0.0877199 0.170565 0)
(0.0876308 0.152607 0)
(0.087011 0.134138 0)
(0.0860026 0.115387 0)
(0.0847347 0.0965186 0)
(0.0833206 0.0776459 0)
(0.0818562 0.0588381 0)
(0.0804193 0.0401309 0)
(0.0790702 0.0215355 0)
(0.0778516 0.00304624 0)
(0.0767895 -0.0153509 0)
(0.0758938 -0.0336718 0)
(0.0751587 -0.0519269 0)
(0.0745633 -0.0701149 0)
(0.0740719 -0.0882159 0)
(0.0736339 -0.106184 0)
(0.0731849 -0.123943 0)
(0.0726469 -0.141374 0)
(0.0719297 -0.158315 0)
(0.0709329 -0.174548 0)
(0.0695492 -0.189796 0)
(0.0676684 -0.203719 0)
(0.0651842 -0.215908 0)
(0.062002 -0.225887 0)
(0.0580494 -0.233116 0)
(0.053288 -0.237 0)
(0.0477274 -0.236906 0)
(0.0414389 -0.232181 0)
(0.0345686 -0.222184 0)
(0.0273488 -0.206322 0)
(0.0201038 -0.184095 0)
(0.0132401 -0.155145 0)
(0.00722208 -0.119298 0)
(0.0026535 -0.0766105 0)
(0.00041078 -0.0274433 0)
(0.000417544 0.0275333 0)
(0.00273945 0.0770394 0)
(0.00752725 0.1202 0)
(0.0139151 0.156586 0)
(0.0212962 0.186058 0)
(0.0291825 0.208697 0)
(0.0371238 0.22479 0)
(0.0447389 0.234786 0)
(0.0517336 0.239255 0)
(0.057902 0.238842 0)
(0.0631207 0.234226 0)
(0.0673392 0.226082 0)
(0.0705671 0.21505 0)
(0.0728605 0.201722 0)
(0.0743083 0.186621 0)
(0.0750202 0.170197 0)
(0.075116 0.152825 0)
(0.0747178 0.134809 0)
(0.0739434 0.116386 0)
(0.0729015 0.0977336 0)
(0.0716894 0.0789791 0)
(0.0703905 0.0602076 0)
(0.0690742 0.041471 0)
(0.0677949 0.0227963 0)
(0.0665929 0.00419394 0)
(0.0654942 -0.0143352 0)
(0.0645113 -0.0327921 0)
(0.0636437 -0.0511732 0)
(0.0628778 -0.0694631 0)
(0.062188 -0.0876285 0)
(0.0615365 -0.105611 0)
(0.060874 -0.12332 0)
(0.0601404 -0.140628 0)
(0.0592661 -0.157361 0)
(0.0581735 -0.173294 0)
(0.0567796 -0.188147 0)
(0.0550003 -0.20158 0)
(0.0527549 -0.213192 0)
(0.0499726 -0.222522 0)
(0.0466013 -0.229058 0)
(0.0426159 -0.232241 0)
(0.0380296 -0.231486 0)
(0.0329037 -0.2262 0)
(0.0273577 -0.215815 0)
(0.0215765 -0.199813 0)
(0.0158145 -0.177772 0)
(0.0103872 -0.149404 0)
(0.0056519 -0.11459 0)
(0.00207139 -0.0734156 0)
(0.000319409 -0.026237 0)
(0.000322928 0.0262917 0)
(0.0021335 0.0737085 0)
(0.00588612 0.115229 0)
(0.010921 0.150446 0)
(0.0167759 0.179209 0)
(0.0230755 0.201566 0)
(0.029468 0.217748 0)
(0.0356492 0.228138 0)
(0.0413785 0.23323 0)
(0.0464808 0.233597 0)
(0.0508443 0.229847 0)
(0.0544145 0.222596 0)
(0.0571854 0.212437 0)
(0.0591897 0.199923 0)
(0.0604888 0.185552 0)
(0.0611633 0.169758 0)
(0.0613044 0.15291 0)
(0.0610074 0.135312 0)
(0.0603663 0.117204 0)
(0.0594694 0.098773 0)
(0.0583969 0.0801571 0)
(0.0572189 0.0614534 0)
(0.0559948 0.0427265 0)
(0.0547724 0.0240166 0)
(0.0535881 0.00534676 0)
(0.0524675 -0.0132696 0)
(0.051425 -0.0318216 0)
(0.0504648 -0.0502938 0)
(0.0495811 -0.0686598 0)
(0.0487583 -0.0868752 0)
(0.0479715 -0.104871 0)
(0.0471867 -0.122548 0)
(0.0463619 -0.139768 0)
(0.0454475 -0.156349 0)
(0.0443879 -0.172063 0)
(0.0431235 -0.186625 0)
(0.0415932 -0.199696 0)
(0.0397387 -0.210882 0)
(0.0375088 -0.219734 0)
(0.0348658 -0.22576 0)
(0.0317918 -0.228429 0)
(0.0282969 -0.227194 0)
(0.0244264 -0.221509 0)
(0.0202678 -0.210855 0)
(0.015956 -0.194775 0)
(0.0116766 -0.172902 0)
(0.00765909 -0.145 0)
(0.00416273 -0.11099 0)
(0.00152404 -0.0709796 0)
(0.000234653 -0.0253194 0)
(0.000235444 0.0253499 0)
(0.00156635 0.0711691 0)
(0.00433858 0.111421 0)
(0.00807756 0.145716 0)
(0.0124506 0.1739 0)
(0.0171848 0.196002 0)
(0.0220196 0.212216 0)
(0.0267259 0.222875 0)
(0.0311176 0.228423 0)
(0.0350551 0.229377 0)
(0.0384444 0.226293 0)
(0.0412337 0.219741 0)
(0.0434086 0.210276 0)
(0.0449849 0.19842 0)
(0.0460018 0.184648 0)
(0.0465146 0.169382 0)
(0.0465892 0.152981 0)
(0.0462959 0.135747 0)
(0.0457055 0.117924 0)
(0.0448862 0.0997033 0)
(0.0439008 0.0812298 0)
(0.0428055 0.0626098 0)
(0.0416486 0.0439176 0)
(0.0404705 0.025203 0)
(0.039303 0.00649873 0)
(0.0381704 -0.0121722 0)
(0.0370885 -0.0307897 0)
(0.0360662 -0.0493297 0)
(0.0351048 -0.0677571 0)
(0.0341988 -0.0860194 0)
(0.033336 -0.10404 0)
(0.0324982 -0.121712 0)
(0.0316607 -0.13889 0)
(0.030794 -0.155388 0)
(0.0298636 -0.170971 0)
(0.0288317 -0.185353 0)
(0.027659 -0.198196 0)
(0.0263067 -0.209108 0)
(0.0247399 -0.21765 0)
(0.0229312 -0.223341 0)
(0.0208657 -0.225672 0)
(0.0185455 -0.22412 0)
(0.0159954 -0.218171 0)
(0.0132678 -0.207343 0)
(0.0104462 -0.191219 0)
(0.00764796 -0.169472 0)
(0.00502024 -0.141903 0)
(0.00273124 -0.108461 0)
(0.00100136 -0.0692684 0)
(0.000154582 -0.0246748 0)
(0.000153329 0.0246901 0)
(0.00102895 0.0693801 0)
(0.00286387 0.108724 0)
(0.00535372 0.142348 0)
(0.00828428 0.1701 0)
(0.0114769 0.191995 0)
(0.0147573 0.208207 0)
(0.0179687 0.21904 0)
(0.0209801 0.224901 0)
(0.0236895 0.226271 0)
(0.0260246 0.223669 0)
(0.0279417 0.217632 0)
(0.0294227 0.208686 0)
(0.0304713 0.19733 0)
(0.0311086 0.184022 0)
(0.0313684 0.169171 0)
(0.031293 0.15313 0)
(0.0309298 0.136196 0)
(0.0303275 0.118614 0)
(0.0295343 0.100578 0)
(0.0285955 0.0822379 0)
(0.0275529 0.0637057 0)
(0.0264433 0.0450616 0)
(0.0252989 0.0263622 0)
(0.0241465 0.00764679 0)
(0.023008 -0.0110553 0)
(0.0219006 -0.0297177 0)
(0.0208369 -0.0483103 0)
(0.0198254 -0.0667927 0)
(0.0188704 -0.0851069 0)
(0.0179724 -0.103171 0)
(0.0171283 -0.120873 0)
(0.0163314 -0.138064 0)
(0.0155712 -0.154553 0)
(0.0148342 -0.170101 0)
(0.0141037 -0.184421 0)
(0.0133606 -0.197172 0)
(0.0125842 -0.207963 0)
(0.0117537 -0.216359 0)
(0.0108498 -0.221886 0)
(0.00985719 -0.224044 0)
(0.00876735 -0.222324 0)
(0.00758188 -0.21623 0)
(0.00631563 -0.205305 0)
(0.00499973 -0.189153 0)
(0.00368379 -0.167474 0)
(0.00243509 -0.140092 0)
(0.00133484 -0.106975 0)
(0.000493833 -0.0682592 0)
(7.74189e-05 -0.0242927 0)
(7.49022e-05 0.0242988 0)
(0.00051237 0.0683106 0)
(0.00144099 0.1071 0)
(0.0027166 0.140305 0)
(0.00423608 0.167776 0)
(0.00590961 0.189528 0)
(0.00764536 0.205724 0)
(0.00935654 0.216652 0)
(0.0109669 0.222703 0)
(0.0124133 0.224333 0)
(0.0136478 0.222041 0)
(0.0146373 0.216343 0)
(0.0153635 0.207746 0)
(0.0158213 0.196734 0)
(0.0160164 0.183751 0)
(0.0159636 0.169198 0)
(0.0156837 0.15342 0)
(0.0152021 0.136713 0)
(0.0145463 0.11932 0)
(0.013745 0.101435 0)
(0.012826 0.0832113 0)
(0.0118163 0.0647621 0)
(0.010741 0.0461716 0)
(0.00962331 0.0274999 0)
(0.00848444 0.00878963 0)
(0.00734371 -0.00992638 0)
(0.00621878 -0.0286188 0)
(0.00512588 -0.0472546 0)