/*--------------------------------*- C++ -*----------------------------------*\
  =========                 |
  \\      /  F ield         | OpenFOAM: The Open Source CFD Toolbox
   \\    /   O peration     | Website:  https://openfoam.org
    \\  /    A nd           | Version:  7
     \\/     M anipulation  |
\*---------------------------------------------------------------------------*/
FoamFile
{
    version     2.0;
    format      ascii;
    class       surfaceScalarField;
    location    "0.0422";
    object      phi;
}
// * * * * * * * * * * * * * * * * * * * * * * * * * * * * * * * * * * * * * //

dimensions      [0 3 -1 0 0 0 0];

internalField   nonuniform List<scalar> 
4900
(
-5.55572e-06
5.55572e-06
-1.01614e-05
4.60568e-06
-1.29489e-05
2.78747e-06
-1.46685e-05
1.71965e-06
-1.57701e-05
1.10162e-06
-1.65078e-05
7.37683e-07
-1.7027e-05
5.19193e-07
-1.74097e-05
3.82667e-07
-1.77025e-05
2.92789e-07
-1.7933e-05
2.30517e-07
-1.81184e-05
1.85417e-07
-1.82699e-05
1.5152e-07
-1.83952e-05
1.25241e-07
-1.84995e-05
1.04318e-07
-1.85868e-05
8.72635e-08
-1.86598e-05
7.30602e-08
-1.87208e-05
6.09889e-08
-1.87713e-05
5.05279e-08
-1.88126e-05
4.12884e-08
-1.88456e-05
3.2974e-08
-1.88709e-05
2.53535e-08
-1.88892e-05
1.82414e-08
-1.89007e-05
1.14855e-08
-1.89056e-05
4.95631e-09
-1.89042e-05
-1.46082e-09
-1.88963e-05
-7.86931e-09
-1.88819e-05
-1.43712e-08
-1.88609e-05
-2.10684e-08
-1.88328e-05
-2.80697e-08
-1.87973e-05
-3.54971e-08
-1.87538e-05
-4.34931e-08
-1.87016e-05
-5.22309e-08
-1.86396e-05
-6.19281e-08
-1.85668e-05
-7.28653e-08
-1.84814e-05
-8.54148e-08
-1.83813e-05
-1.00082e-07
-1.82637e-05
-1.1757e-07
-1.81248e-05
-1.38887e-07
-1.79593e-05
-1.65524e-07
-1.77595e-05
-1.99765e-07
-1.75143e-05
-2.45263e-07
-1.72062e-05
-3.08103e-07
-1.68073e-05
-3.98863e-07
-1.62707e-05
-5.36572e-07
-1.5515e-05
-7.55695e-07
-1.43991e-05
-1.11589e-06
-1.26837e-05
-1.71549e-06
-9.94715e-06
-2.7365e-06
-5.45284e-06
-4.49431e-06
-5.45284e-06
-1.19384e-08
5.56765e-06
-2.12999e-06
6.72373e-06
-4.85576e-06
5.51324e-06
-7.27084e-06
4.13473e-06
-9.20622e-06
3.037e-06
-1.07147e-05
2.24619e-06
-1.18898e-05
1.69423e-06
-1.28144e-05
1.30732e-06
-1.35522e-05
1.03054e-06
-1.4149e-05
8.27393e-07
-1.4638e-05
6.74332e-07
-1.50425e-05
5.56074e-07
-1.53798e-05
4.6255e-07
-1.56625e-05
3.86971e-07
-1.58999e-05
3.24645e-07
-1.60991e-05
2.72251e-07
-1.62654e-05
2.27382e-07
-1.64032e-05
1.88254e-07
-1.65154e-05
1.5352e-07
-1.66046e-05
1.22137e-07
-1.66725e-05
9.32851e-08
-1.67206e-05
6.62993e-08
-1.67497e-05
4.06297e-08
-1.67605e-05
1.58064e-08
-1.67534e-05
-8.58577e-09
-1.67284e-05
-3.29302e-08
-1.66851e-05
-5.75949e-08
-1.66233e-05
-8.29524e-08
-1.65419e-05
-1.09398e-07
-1.64401e-05
-1.3737e-07
-1.63162e-05
-1.67379e-07
-1.61684e-05
-2.00036e-07
-1.59942e-05
-2.36103e-07
-1.57905e-05
-2.76548e-07
-1.55533e-05
-3.22635e-07
-1.52773e-05
-3.76051e-07
-1.49558e-05
-4.39088e-07
-1.45798e-05
-5.14931e-07
-1.41372e-05
-6.08101e-07
-1.36118e-05
-7.25155e-07
-1.29812e-05
-8.75812e-07
-1.22146e-05
-1.07475e-06
-1.12691e-05
-1.34437e-06
-1.00868e-05
-1.71885e-06
-8.59382e-06
-2.24868e-06
-6.71011e-06
-2.9996e-06
-4.39621e-06
-4.02939e-06
-1.82064e-06
-5.31207e-06
1.23532e-07
-6.43848e-06
-5.32931e-06
1.03294e-06
4.53471e-06
5.49269e-07
7.20741e-06
-9.86715e-07
7.04922e-06
-2.87768e-06
6.02569e-06
-4.73e-06
4.88932e-06
-6.38335e-06
3.89955e-06
-7.7985e-06
3.10937e-06
-8.98869e-06
2.49751e-06
-9.98443e-06
2.02628e-06
-1.08181e-05
1.66101e-06
-1.15181e-05
1.37438e-06
-1.21081e-05
1.14605e-06
-1.26067e-05
9.6121e-07
-1.30289e-05
8.09087e-07
-1.3386e-05
6.81814e-07
-1.36873e-05
5.7357e-07
-1.394e-05
4.79991e-07
-1.41495e-05
3.97758e-07
-1.43202e-05
3.24306e-07
-1.44557e-05
2.57617e-07
-1.45585e-05
1.96077e-07
-1.46306e-05
1.38364e-07
-1.46733e-05
8.3374e-08
-1.46877e-05
3.01562e-08
-1.46741e-05
-2.21336e-08
-1.46328e-05
-7.42752e-08
-1.45634e-05
-1.27018e-07
-1.44652e-05
-1.81114e-07
-1.43372e-05
-2.37359e-07
-1.4178e-05
-2.96626e-07
-1.39854e-05
-3.59914e-07
-1.37571e-05
-4.28412e-07
-1.34896e-05
-5.03568e-07
-1.3179e-05
-5.87197e-07
-1.282e-05
-6.81617e-07
-1.24062e-05
-7.89841e-07
-1.19294e-05
-9.1585e-07
-1.13794e-05
-1.06497e-06
-1.07431e-05
-1.24441e-06
-1.00042e-05
-1.46401e-06
-9.14278e-06
-1.73726e-06
-8.13501e-06
-2.08252e-06
-6.95522e-06
-2.52416e-06
-5.58154e-06
-3.09253e-06
-4.01062e-06
-3.81961e-06
-2.28924e-06
-4.72098e-06
-5.74813e-07
-5.74382e-06
7.65047e-07
-6.65193e-06
1.087e-06
-6.76043e-06
-4.24231e-06
9.07248e-07
3.62746e-06
1.23225e-06
6.88241e-06
6.51623e-07
7.62985e-06
-5.08899e-07
7.18621e-06
-1.9206e-06
6.30102e-06
-3.36549e-06
5.34443e-06
-4.72683e-06
4.47072e-06
-5.95509e-06
3.72577e-06
-7.03794e-06
3.10913e-06
-7.98097e-06
2.60404e-06
-8.79696e-06
2.19038e-06
-9.50057e-06
1.84966e-06
-1.01058e-05
1.56645e-06
-1.06251e-05
1.32841e-06
-1.10691e-05
1.12582e-06
-1.14467e-05
9.51122e-07
-1.17651e-05
7.98372e-07
-1.20302e-05
6.629e-07
-1.22469e-05
5.40989e-07
-1.24189e-05
4.2965e-07
-1.25493e-05
3.26443e-07
-1.26403e-05
2.29343e-07
-1.26935e-05
1.36632e-07
-1.27102e-05
4.68206e-08
-1.26909e-05
-4.14233e-08
-1.26359e-05
-1.2933e-07
-1.25448e-05
-2.18081e-07
-1.24171e-05
-3.08857e-07
-1.22515e-05
-4.02888e-07
-1.20466e-05
-5.01514e-07
-1.18003e-05
-6.0624e-07
-1.15099e-05
-7.18823e-07
-1.11721e-05
-8.41364e-07
-1.07829e-05
-9.76429e-07
-1.03373e-05
-1.12721e-06
-9.82937e-06
-1.29774e-06
-9.2521e-06
-1.49313e-06
-8.59716e-06
-1.7199e-06
-7.85515e-06
-1.98642e-06
-7.0159e-06
-2.30325e-06
-6.06967e-06
-2.68349e-06
-5.00957e-06
-3.14262e-06
-3.83669e-06
-3.69703e-06
-2.5697e-06
-4.35952e-06
-1.26159e-06
-5.12772e-06
-2.4735e-08
-5.95784e-06
9.42535e-07
-6.71109e-06
1.34853e-06
-7.05793e-06
9.1653e-07
-6.32843e-06
-3.32578e-06
6.73099e-07
2.95436e-06
1.24866e-06
6.30684e-06
1.23438e-06
7.64414e-06
6.70767e-07
7.74983e-06
-2.54986e-07
7.22678e-06
-1.36083e-06
6.45028e-06
-2.51472e-06
5.62461e-06
-3.63565e-06
4.84669e-06
-4.68041e-06
4.15389e-06
-5.62998e-06
3.55361e-06
-6.47937e-06
3.03977e-06
-7.23105e-06
2.60134e-06
-7.891e-06
2.2264e-06
-8.46645e-06
1.90386e-06
-8.96476e-06
1.62413e-06
-9.39274e-06
1.3791e-06
-9.75647e-06
1.1621e-06
-1.00612e-05
9.67611e-07
-1.03113e-05
7.91093e-07
-1.05104e-05
6.28788e-07
-1.06615e-05
4.77553e-07
-1.07669e-05
3.34729e-07
-1.08283e-05
1.98027e-07
-1.08469e-05
6.54386e-08
-1.08235e-05
-6.48432e-08
-1.07583e-05
-1.94492e-07
-1.06513e-05
-3.25111e-07
-1.05019e-05
-4.58289e-07
-1.03091e-05
-5.95666e-07
-1.00716e-05
-7.38992e-07
-9.78767e-06
-8.90203e-07
-9.45499e-06
-1.0515e-06
-9.07089e-06
-1.22546e-06
-8.6322e-06
-1.41512e-06
-8.13525e-06
-1.62416e-06
-7.57598e-06
-1.85701e-06
-6.95006e-06
-2.11906e-06
-6.2532e-06
-2.41676e-06
-5.48185e-06
-2.75777e-06
-4.63432e-06
-3.15077e-06
-3.71291e-06
-3.6049e-06
-2.72735e-06
-4.12818e-06
-1.70045e-06
-4.72394e-06
-6.76373e-07
-5.38359e-06
2.68532e-07
-6.07263e-06
1.01624e-06
-6.70555e-06
1.41018e-06
-7.10503e-06
1.29769e-06
-6.94544e-06
6.6646e-07
-5.6972e-06
-2.65932e-06
4.82099e-07
2.47227e-06
1.0824e-06
5.70654e-06
1.35464e-06
7.37189e-06
1.19803e-06
7.90644e-06
6.79854e-07
7.74495e-06
-8.16648e-08
7.21179e-06
-9.74875e-07
6.51782e-06
-1.91481e-06
5.78662e-06
-2.84425e-06
5.08334e-06
-3.7283e-06
4.43766e-06
-4.54779e-06
3.85926e-06
-5.29381e-06
3.34737e-06
-5.96376e-06
2.89635e-06
-6.55865e-06
2.49875e-06
-7.08137e-06
2.14684e-06
-7.53563e-06
1.83337e-06
-7.92536e-06
1.55183e-06
-8.25434e-06
1.29658e-06
-8.52597e-06
1.06273e-06
-8.74328e-06
8.46091e-07
-8.90878e-06
6.43052e-07
-9.02453e-06
4.50488e-07
-9.09217e-06
2.65662e-07
-9.11287e-06
8.61384e-08
-9.08742e-06
-9.02931e-08
-9.01623e-06
-2.65685e-07
-8.89934e-06
-4.41995e-07
-8.73648e-06
-6.21153e-07
-8.52703e-06
-8.05117e-07
-8.27008e-06
-9.9594e-07
-7.96444e-06
-1.19584e-06
-7.60867e-06
-1.40727e-06
-7.20113e-06
-1.633e-06
-6.74005e-06
-1.8762e-06
-6.22369e-06
-2.14053e-06
-5.65053e-06
-2.43016e-06
-5.01971e-06
-2.74988e-06
-4.33158e-06
-3.1049e-06
-3.58867e-06
-3.50068e-06
-2.79724e-06
-3.94221e-06
-1.96944e-06
-4.4327e-06
-1.12658e-06
-4.97103e-06
-3.03312e-07
-5.54721e-06
4.47558e-07
-6.13446e-06
1.0515e-06
-6.67656e-06
1.41475e-06
-7.0688e-06
1.44296e-06
-7.13324e-06
1.09175e-06
-6.59423e-06
4.70051e-07
-5.0755e-06
-2.18927e-06
3.50032e-07
2.12223e-06
8.98115e-07
5.15846e-06
1.29255e-06
6.97746e-06
1.38552e-06
7.81347e-06
1.16895e-06
7.96152e-06
7.02436e-07
7.6783e-06
6.47774e-08
7.15548e-06
-6.71081e-07
6.52248e-06
-1.44745e-06
5.8597e-06
-2.22281e-06
5.21303e-06
-2.96945e-06
4.6059e-06
-3.6701e-06
4.04801e-06
-4.31489e-06
3.54114e-06
-4.89892e-06
3.08279e-06
-5.42048e-06
2.66841e-06
-5.8798e-06
2.29268e-06
-6.27819e-06
1.95022e-06
-6.61751e-06
1.6359e-06
-6.89979e-06
1.34502e-06
-7.12705e-06
1.07335e-06
-7.30114e-06
8.17138e-07
-7.42366e-06
5.73012e-07
-7.49597e-06
3.37966e-07
-7.51911e-06
1.09279e-07
-7.49386e-06
-1.15539e-07
-7.42074e-06
-3.38811e-07
-7.29999e-06
-5.62746e-07
-7.13164e-06
-7.895e-07
-6.91553e-06
-1.02122e-06
-6.65134e-06
-1.26013e-06
-6.33866e-06
-1.50852e-06
-5.97705e-06
-1.76889e-06
-5.56614e-06
-2.0439e-06
-5.10586e-06
-2.33649e-06
-4.59656e-06
-2.64982e-06
-4.03945e-06
-2.98728e-06
-3.43704e-06
-3.35228e-06
-2.79391e-06
-3.74804e-06
-2.11767e-06
-4.17692e-06
-1.42041e-06
-4.63946e-06
-7.20542e-07
-5.13257e-06
-4.49593e-08
-5.64662e-06
5.68684e-07
-6.16085e-06
1.07068e-06
-6.63645e-06
1.40096e-06
-7.00684e-06
1.49773e-06
-7.16557e-06
1.31908e-06
-6.95459e-06
8.84283e-07
-6.15943e-06
3.36339e-07
-4.52756e-06
-1.85293e-06
2.62891e-07
1.85934e-06
7.40958e-07
4.68039e-06
1.17124e-06
6.54718e-06
1.4051e-06
7.57961e-06
1.39567e-06
7.97095e-06
1.16e-06
7.91397e-06
7.45186e-07
7.57029e-06
2.05897e-07
7.06177e-06
-4.07618e-07
6.47322e-06
-1.05438e-06
5.85979e-06
-1.70341e-06
5.25494e-06
-2.33266e-06
4.67726e-06
-2.92715e-06
4.13564e-06
-3.47731e-06
3.63294e-06
-3.97738e-06
3.16847e-06
-4.42426e-06
2.73957e-06
-4.81663e-06
2.34259e-06
-5.15427e-06
1.97354e-06
-5.43766e-06
1.6284e-06
-5.66762e-06
1.30332e-06
-5.84515e-06
9.94666e-07
-5.97126e-06
6.99115e-07
-6.04688e-06
4.13592e-07
-6.07287e-06
1.3527e-07
-6.04994e-06
-1.38474e-07
-5.97865e-06
-4.10093e-07
-5.85948e-06
-6.81916e-07
-5.6928e-06
-9.56189e-07
-5.47891e-06
-1.23511e-06
-5.21815e-06
-1.52088e-06
-4.91096e-06
-1.81572e-06
-4.55794e-06
-2.1219e-06
-4.16009e-06
-2.44175e-06
-3.71894e-06
-2.77764e-06
-3.23688e-06
-3.13188e-06
-2.71753e-06
-3.50663e-06
-2.16624e-06
-3.90357e-06
-1.59081e-06
-4.32346e-06
-1.00236e-06
-4.76537e-06
-4.16382e-07
-5.22544e-06
1.46069e-07
-5.69502e-06
6.5729e-07
-6.15784e-06
1.08248e-06
-6.58604e-06
1.3809e-06
-6.93488e-06
1.5103e-06
-7.13624e-06
1.43707e-06
-7.09234e-06
1.15487e-06
-6.67239e-06
7.12842e-07
-5.7174e-06
2.48459e-07
-4.06317e-06
-1.60447e-06
2.0475e-07
1.65459e-06
6.16383e-07
4.26876e-06
1.041e-06
6.12256e-06
1.34703e-06
7.27358e-06
1.47229e-06
7.84569e-06
1.40713e-06
7.97913e-06
1.17352e-06
7.80391e-06
8.07836e-07
7.42745e-06
3.49514e-07
6.93154e-06
-1.65278e-07
6.37458e-06
-7.06327e-07
5.79599e-06
-1.24993e-06
5.22085e-06
-1.77833e-06
4.66404e-06
-2.27879e-06
4.1334e-06
-2.74246e-06
3.63215e-06
-3.16349e-06
3.16059e-06
-3.53816e-06
2.71726e-06
-3.86432e-06
2.2997e-06
-4.14086e-06
1.90494e-06
-4.36738e-06
1.52984e-06
-4.54394e-06
1.17123e-06
-4.67087e-06
8.26042e-07
-4.74865e-06
4.91367e-07
-4.77783e-06
1.6445e-07
-4.75901e-06
-1.57294e-07
-4.6928e-06
-4.76301e-07
-4.57984e-06
-7.94875e-07
-4.42082e-06
-1.11521e-06
-4.21653e-06
-1.4394e-06
-3.96794e-06
-1.76948e-06
-3.67626e-06
-2.10739e-06
-3.34313e-06
-2.45503e-06
-2.97074e-06
-2.81414e-06
-2.56208e-06
-3.1863e-06
-2.12119e-06
-3.57277e-06
-1.6536e-06
-3.97422e-06
-1.16672e-06
-4.39045e-06
-6.70437e-07
-4.81975e-06
-1.7772e-07
-5.25809e-06
2.94697e-07
-5.69786e-06
7.25814e-07
-6.12614e-06
1.09023e-06
-6.52226e-06
1.35895e-06
-6.85475e-06
1.50179e-06
-7.07772e-06
1.49269e-06
-7.12714e-06
1.31886e-06
-6.91852e-06
9.94672e-07
-6.3482e-06
5.78926e-07
-5.30165e-06
1.89778e-07
-3.67403e-06
-1.41469e-06
1.64645e-07
1.48995e-06
5.19262e-07
3.91414e-06
9.20104e-07
5.72172e-06
1.25693e-06
6.93675e-06
1.46521e-06
7.63741e-06
1.52066e-06
7.92369e-06
1.42752e-06
7.89705e-06
1.20675e-06
7.64822e-06
8.86626e-07
7.25166e-06
4.96567e-07
6.76464e-06
6.35611e-08
6.22899e-06
-3.89414e-07
5.67383e-06
-8.43794e-07
5.11842e-06
-1.28516e-06
4.57477e-06
-1.70267e-06
4.04966e-06
-2.08842e-06
3.54634e-06
-2.43681e-06
3.06564e-06
-2.74398e-06
2.60687e-06
-3.00742e-06
2.16838e-06
-3.22556e-06
1.74798e-06
-3.39754e-06
1.34321e-06
-3.52298e-06
9.51489e-07
-3.60188e-06
5.70264e-07
-3.63446e-06
1.97034e-07
-3.62117e-06
-1.70589e-07
-3.5626e-06
-5.34873e-07
-3.45952e-06
-8.97952e-07
-3.3129e-06
-1.26183e-06
-3.12393e-06
-1.62837e-06
-2.89414e-06
-1.99927e-06
-2.62544e-06
-2.3761e-06
-2.3203e-06
-2.76016e-06
-1.98192e-06
-3.15252e-06
-1.61441e-06
-3.55382e-06
-1.22306e-06
-3.96411e-06
-8.14689e-07
-4.3826e-06
-3.97938e-07
-4.8072e-06
1.62971e-08
-5.23398e-06
4.1452e-07
-5.65631e-06
7.80372e-07
-6.06371e-06
1.09464e-06
-6.44041e-06
1.33581e-06
-6.76342e-06
1.48148e-06
-7.00042e-06
1.5113e-06
-7.10755e-06
1.41189e-06
-7.02773e-06
1.18415e-06
-6.69077e-06
8.52666e-07
-6.01672e-06
4.75454e-07
-4.92444e-06
1.4924e-07
-3.34781e-06
-1.26545e-06
1.35855e-07
1.35409e-06
4.43055e-07
3.60694e-06
8.13492e-07
5.35129e-06
1.15693e-06
6.59332e-06
1.41279e-06
7.38154e-06
1.55014e-06
7.78634e-06
1.56187e-06
7.88533e-06
1.45713e-06
7.75296e-06
1.25436e-06
7.45443e-06
9.75849e-07
7.04314e-06
6.44184e-07
6.56066e-06
2.80108e-07
6.03791e-06
-9.84559e-08
5.49699e-06
-4.76693e-07
4.953e-06
-8.42768e-07
4.41574e-06
-1.18749e-06
3.89106e-06
-1.50389e-06
3.38205e-06
-1.78683e-06
2.88981e-06
-2.0326e-06
2.41415e-06
-2.23864e-06
1.95401e-06
-2.40323e-06
1.5078e-06
-2.52535e-06
1.07361e-06
-2.60448e-06
6.49399e-07
-2.64053e-06
2.33086e-07
-2.63375e-06
-1.77376e-07
-2.58467e-06
-5.8395e-07
-2.49415e-06
-9.88475e-07
-2.36334e-06
-1.39264e-06
-2.19377e-06
-1.79794e-06
-1.98738e-06
-2.20566e-06
-1.74665e-06
-2.61683e-06
-1.47468e-06
-3.03213e-06
-1.17539e-06
-3.45181e-06
-8.53683e-07
-3.87553e-06
-5.15635e-07
-4.30216e-06
-1.68759e-07
-4.72947e-06
1.77777e-07
-5.15374e-06
5.12935e-07
-5.56914e-06
8.23682e-07
-5.96706e-06
1.09504e-06
-6.33508e-06
1.31048e-06
-6.65585e-06
1.45279e-06
-6.90573e-06
1.50582e-06
-7.05345e-06
1.45726e-06
-7.05898e-06
1.30273e-06
-6.8732e-06
1.05124e-06
-6.43928e-06
7.31098e-07
-5.69658e-06
3.9488e-07
-4.58822e-06
1.20141e-07
-3.07307e-06
-1.14531e-06
1.14343e-07
1.23975e-06
3.8224e-07
3.33904e-06
7.20944e-07
5.01258e-06
1.05716e-06
6.2571e-06
1.33679e-06
7.10191e-06
1.52707e-06
7.59606e-06
1.61428e-06
7.79811e-06
1.59926e-06
7.76799e-06
1.49245e-06
7.56125e-06
1.30963e-06
7.22596e-06
1.06866e-06
6.80162e-06
7.87296e-07
6.31927e-06
4.81865e-07
5.80242e-06
1.66629e-07
5.26824e-06
-1.46416e-07
4.72878e-06
-4.47488e-07
4.19213e-06
-7.28806e-07
3.66337e-06
-9.84325e-07
3.14533e-06
-1.20946e-06
2.63929e-06
-1.40082e-06
2.14538e-06
-1.55601e-06
1.66298e-06
-1.6734e-06
1.191e-06
-1.75203e-06
7.28033e-07
-1.79148e-06
2.72531e-07
-1.79177e-06
-1.77086e-07
-1.75336e-06
-6.22358e-07
-1.67712e-06
-1.06472e-06
-1.56431e-06
-1.50544e-06
-1.41668e-06
-1.94557e-06
-1.23646e-06
-2.38588e-06
-1.0265e-06
-2.82679e-06
-7.90339e-07
-3.2683e-06
-5.32334e-07
-3.70981e-06
-2.57823e-07
-4.15004e-06
2.67404e-08
-4.58672e-06
3.13634e-07
-5.01637e-06
5.93744e-07
-5.43385e-06
8.56508e-07
-5.83191e-06
1.08998e-06
-6.20052e-06
1.28108e-06
-6.52618e-06
1.41621e-06
-6.79098e-06
1.48228e-06
-6.97181e-06
1.4684e-06
-7.03958e-06
1.36831e-06
-6.95889e-06
1.18358e-06
-6.68848e-06
9.27374e-07
-6.18307e-06
6.28001e-07
-5.3972e-06
3.31115e-07
-4.29134e-06
9.84554e-08
-2.84041e-06
-1.04686e-06
9.76605e-08
1.14209e-06
3.32667e-07
3.10404e-06
6.40557e-07
4.70469e-06
9.61797e-07
5.93586e-06
1.24929e-06
6.81442e-06
1.4712e-06
7.37415e-06
1.61047e-06
7.65883e-06
1.66244e-06
7.71602e-06
1.6315e-06
7.59218e-06
1.52793e-06
7.32954e-06
1.36513e-06
6.96442e-06
1.15763e-06
6.52678e-06
9.19634e-07
6.04041e-06
6.64242e-07
5.52363e-06
4.02973e-07
4.99005e-06
1.45631e-07
4.44948e-06
-9.96688e-08
3.90867e-06
-3.26371e-07
3.37203e-06
-5.29306e-07
2.84222e-06
-7.04498e-07
2.32057e-06
-8.48991e-07
1.80748e-06
-9.60691e-07
1.3027e-06
-1.03823e-06
8.05575e-07
-1.08088e-06
3.15179e-07
-1.08846e-06
-1.69512e-07
-1.06128e-06
-6.49529e-07
-1.00019e-06
-1.12582e-06
-9.06478e-07
-1.59915e-06
-7.8199e-07
-2.07006e-06
-6.29123e-07
-2.53874e-06
-4.50914e-07
-3.005e-06
-2.51112e-07
-3.4681e-06
-3.42805e-08
-3.92665e-06
1.94111e-07
-4.37843e-06
4.27589e-07
-4.8202e-06
6.58604e-07
-5.24738e-06
8.78504e-07
-5.65375e-06
1.0776e-06
-6.031e-06
1.24533e-06
-6.36826e-06
1.37071e-06
-6.65155e-06
1.44293e-06
-6.8632e-06
1.45248e-06
-6.98135e-06
1.3926e-06
-6.97969e-06
1.26128e-06
-6.82757e-06
1.06368e-06
-6.49087e-06
8.14542e-07
-5.93394e-06
5.40293e-07
-5.12295e-06
2.79641e-07
-4.03069e-06
8.1726e-08
-2.6425e-06
-9.65132e-07
8.42797e-08
1.05781e-06
2.91331e-07
2.89698e-06
5.70122e-07
4.4259e-06
8.7211e-07
5.63387e-06
1.15688e-06
6.52966e-06
1.39486e-06
7.13616e-06
1.56786e-06
7.48584e-06
1.66781e-06
7.61606e-06
1.69481e-06
7.56519e-06
1.65472e-06
7.36963e-06
1.55707e-06
7.06207e-06
1.41325e-06
6.67059e-06
1.23519e-06
6.21847e-06
1.03445e-06
5.72437e-06
8.21643e-07
5.20286e-06
6.06176e-07
4.66494e-06
3.96099e-07
4.11874e-06
1.98136e-07
3.57e-06
1.77621e-08
3.02259e-06
-1.40677e-07
2.47901e-06
-2.73842e-07
1.94064e-06
-3.79271e-07
1.40813e-06
-4.55278e-07
8.81581e-07
-5.00855e-07
3.60756e-07
-5.15612e-07
-1.54754e-07
-4.9973e-07
-6.65412e-07
-4.53935e-07
-1.17161e-06
-3.79498e-07
-1.67359e-06
-2.78251e-07
-2.1713e-06
-1.52623e-07
-2.66437e-06
-5.68347e-09
-3.15194e-06
1.58791e-07
-3.63257e-06
3.36266e-07
-4.10412e-06
5.2138e-07
-4.56354e-06
7.07907e-07
-5.00673e-06
8.88744e-07
-5.42822e-06
1.05596e-06
-5.82097e-06
1.20095e-06
-6.17598e-06
1.31466e-06
-6.48197e-06
1.38808e-06
-6.72498e-06
1.41291e-06
-6.88803e-06
1.38251e-06
-6.95096e-06
1.2932e-06
-6.89038e-06
1.14577e-06
-6.68014e-06
9.47237e-07
-6.29234e-06
7.12409e-07
-5.69911e-06
4.64932e-07
-4.87548e-06
2.37192e-07
-3.80295e-06
6.8407e-08
-2.47371e-06
-8.96725e-07
7.32192e-08
9.8459e-07
2.56076e-07
2.71413e-06
5.07618e-07
4.17436e-06
7.88068e-07
5.35342e-06
1.063e-06
6.25473e-06
1.30573e-06
6.89343e-06
1.49821e-06
7.29336e-06
1.63058e-06
7.4837e-06
1.69998e-06
7.49578e-06
1.70897e-06
7.36064e-06
1.66384e-06
7.1072e-06
1.57316e-06
6.76127e-06
1.44662e-06
6.34501e-06
1.29411e-06
5.87689e-06
1.12509e-06
5.37187e-06
9.48268e-07
4.84177e-06
7.71326e-07
4.29568e-06
6.00881e-07
3.74044e-06
4.42471e-07
3.18101e-06
3.00609e-07
2.62087e-06
1.78862e-07
2.06239e-06
7.99401e-08
1.50705e-06
5.77458e-09
9.55746e-07
-4.24043e-08
4.08935e-07
-6.40102e-08
-1.33148e-07
-5.90592e-08
-6.70363e-07
-2.81449e-08
-1.20253e-06
2.75689e-08
-1.7293e-06
1.0634e-07
-2.25007e-06
2.05829e-07
-2.76386e-06
3.23063e-07
-3.26917e-06
4.54408e-07
-3.76392e-06
5.95524e-07
-4.24524e-06
7.4135e-07
-4.70937e-06
8.86098e-07
-5.15147e-06
1.02329e-06
-5.56541e-06
1.14587e-06
-5.94354e-06
1.24635e-06
-6.27647e-06
1.31717e-06
-6.55279e-06
1.3511e-06
-6.75891e-06
1.34192e-06
-6.87884e-06
1.28521e-06
-6.89424e-06
1.17943e-06
-6.7846e-06
1.02707e-06
-6.52778e-06
8.35848e-07
-6.10112e-06
6.19716e-07
-5.48298e-06
3.99286e-07
-4.65505e-06
2.01413e-07
-3.60507e-06
5.74919e-08
-2.32979e-06
-8.39233e-07
6.38259e-08
9.20764e-07
2.25349e-07
2.5526e-06
4.51354e-07
3.94836e-06
7.09094e-07
5.09568e-06
9.69375e-07
5.99444e-06
1.20856e-06
6.65425e-06
1.40952e-06
7.0924e-06
1.56168e-06
7.33154e-06
1.66034e-06
7.39712e-06
1.70562e-06
7.31535e-06
1.70128e-06
7.11155e-06
1.65347e-06
6.80907e-06
1.56982e-06
6.42867e-06
1.45853e-06
5.98818e-06
1.32784e-06
5.50257e-06
1.18554e-06
4.98407e-06
1.03875e-06
4.44247e-06
8.93775e-07
3.88542e-06
7.56009e-07
3.31877e-06
6.29963e-07
2.74692e-06
5.19288e-07
2.17306e-06
4.26829e-07
1.59951e-06
3.54684e-07
1.02789e-06
3.04258e-07
4.59361e-07
2.76311e-07
-1.05201e-07
2.70995e-07
-6.65046e-07
2.87879e-07
-1.21941e-06
3.25957e-07
-1.76738e-06
3.83654e-07
-2.30777e-06
4.58808e-07
-2.83901e-06
5.48658e-07
-3.35903e-06
6.4983e-07
-3.86509e-06
7.58319e-07
-4.35373e-06
8.69495e-07
-4.82055e-06
9.78133e-07
-5.26011e-06
1.07848e-06
-5.66576e-06
1.16439e-06
-6.02945e-06
1.22951e-06
-6.34159e-06
1.26761e-06
-6.59089e-06
1.273e-06
-6.7643e-06
1.24109e-06
-6.84694e-06
1.16913e-06
-6.82228e-06
1.05695e-06
-6.67242e-06
9.07925e-07
-6.37876e-06
7.29729e-07
-5.92292e-06
5.34945e-07
-5.28819e-06
3.41195e-07
-4.4613e-06
1.7059e-07
-3.43447e-06
4.83027e-08
-2.2075e-06
-7.9093e-07
5.56517e-08
8.65113e-07
1.98021e-07
2.41024e-06
3.99966e-07
3.74641e-06
6.34439e-07
4.86121e-06
8.76772e-07
5.75211e-06
1.10629e-06
6.42473e-06
1.30724e-06
6.89145e-06
1.46904e-06
7.16974e-06
1.58596e-06
7.2802e-06
1.65647e-06
7.24484e-06
1.68235e-06
7.08567e-06
1.66782e-06
6.82361e-06
1.61864e-06
6.47784e-06
1.54149e-06
6.06533e-06
1.4433e-06
5.60075e-06
1.33093e-06
5.09644e-06
1.21079e-06
4.56261e-06
1.08869e-06
4.00751e-06
9.69752e-07
3.43771e-06
8.5834e-07
2.85833e-06
7.58067e-07
2.27334e-06
6.71814e-07
1.68577e-06
6.01768e-07
1.09794e-06
5.49457e-07
5.11672e-07
5.1579e-07
-7.15331e-08
5.01082e-07
-6.50339e-07
5.05082e-07
-1.22341e-06
5.26984e-07
-1.78928e-06
5.65428e-07
-2.34622e-06
6.18507e-07
-2.89209e-06
6.83754e-07
-3.42427e-06
7.58145e-07
-3.93948e-06
8.38104e-07
-4.43368e-06
9.19522e-07
-4.90196e-06
9.97806e-07
-5.3384e-06
1.06797e-06
-5.73592e-06
1.12476e-06
-6.08624e-06
1.16288e-06
-6.37971e-06
1.17729e-06
-6.60529e-06
1.16353e-06
-6.75055e-06
1.11831e-06
-6.80171e-06
1.03997e-06
-6.74394e-06
9.29198e-07
-6.56165e-06
7.89642e-07
-6.2392e-06
6.28449e-07
-5.76173e-06
4.56612e-07
-5.11636e-06
2.88932e-07
-4.29362e-06
1.43464e-07
-3.289e-06
4.03683e-08
-2.10441e-06
-7.50562e-07
4.83811e-08
8.16732e-07
1.73261e-07
2.28535e-06
3.52375e-07
3.5673e-06
5.63357e-07
4.65022e-06
7.85448e-07
5.53002e-06
1.00077e-06
6.20941e-06
1.19514e-06
6.69708e-06
1.35846e-06
7.00643e-06
1.48455e-06
7.1541e-06
1.57084e-06
7.15855e-06
1.61768e-06
7.03883e-06
1.62769e-06
6.81359e-06
1.60514e-06
6.50039e-06
1.55526e-06
6.11521e-06
1.48381e-06
5.6722e-06
1.39662e-06
5.18363e-06
1.29935e-06
4.65988e-06
1.19725e-06
4.10961e-06
1.09504e-06
3.53992e-06
9.96822e-07
2.95655e-06
9.06071e-07
2.36409e-06
8.25621e-07
1.76622e-06
7.57676e-07
1.16588e-06
7.03842e-07
5.65507e-07
6.65141e-07
-3.2833e-08
6.42047e-07
-6.27244e-07
6.34493e-07
-1.21586e-06
6.41893e-07
-1.79668e-06
6.63149e-07
-2.36747e-06
6.96654e-07
-2.9256e-06
7.40294e-07
-3.46791e-06
7.91462e-07
-3.99065e-06
8.47067e-07
-4.48929e-06
9.03572e-07
-4.95847e-06
9.57049e-07
-5.39187e-06
1.00327e-06
-5.78214e-06
1.03784e-06
-6.12082e-06
1.05642e-06
-6.39829e-06
1.05495e-06
-6.60382e-06
1.02999e-06
-6.72559e-06
9.79154e-07
-6.75088e-06
9.01535e-07
-6.66632e-06
7.98208e-07
-6.45832e-06
6.72691e-07
-6.11368e-06
5.31313e-07
-5.62035e-06
3.83394e-07
-4.96844e-06
2.41129e-07
-4.15135e-06
1.19098e-07
-3.16697e-06
3.33533e-08
-2.01866e-06
-7.17209e-07
4.1787e-08
7.74945e-07
1.50452e-07
2.17669e-06
3.07732e-07
3.41002e-06
4.95175e-07
4.46278e-06
6.95408e-07
5.32979e-06
8.93138e-07
6.01168e-06
1.07586e-06
6.51436e-06
1.23422e-06
6.84807e-06
1.36206e-06
7.02626e-06
1.45619e-06
7.06442e-06
1.51597e-06
6.97905e-06
1.54285e-06
6.78672e-06
1.53979e-06
6.50345e-06
1.51082e-06
6.14418e-06
1.46058e-06
5.72245e-06
1.39395e-06
5.25026e-06
1.3158e-06
4.73803e-06
1.23075e-06
4.19466e-06
1.14304e-06
3.62763e-06
1.05645e-06
3.04313e-06
9.74236e-07
2.4463e-06
8.99104e-07
1.84135e-06
8.33222e-07
1.23176e-06
7.78219e-07
6.20509e-07
7.35207e-07
1.01794e-08
7.04793e-07
-5.9683e-07
6.87098e-07
-1.19816e-06
6.8177e-07
-1.79135e-06
6.87991e-07
-2.37369e-06
7.04487e-07
-2.94209e-06
7.29538e-07
-3.49296e-06
7.6099e-07
-4.0221e-06
7.96274e-07
-4.52457e-06
8.32446e-07
-4.99464e-06
8.66245e-07
-5.42567e-06
8.94178e-07
-5.81007e-06
9.12653e-07
-6.13929e-06
9.18146e-07
-6.40378e-06
9.07432e-07
-6.5931e-06
8.77859e-07
-6.69602e-06
8.27676e-07
-6.7007e-06
7.56397e-07
-6.59504e-06
6.6517e-07
-6.3671e-06
5.57114e-07
-6.00563e-06
4.37562e-07
-5.5008e-06
3.14157e-07
-4.84503e-06
1.96709e-07
-4.03391e-06
9.6788e-08
-3.06705e-06
2.70136e-08
-1.94889e-06
-6.90195e-07
3.57022e-08
7.39242e-07
1.29128e-07
2.08326e-06
2.65373e-07
3.27377e-06
4.29312e-07
4.29884e-06
6.06537e-07
5.15256e-06
7.84135e-07
5.83408e-06
9.51276e-07
6.34722e-06
1.09956e-06
6.69978e-06
1.22312e-06
6.9027e-06
1.31852e-06
6.96903e-06
1.38448e-06
6.91308e-06
1.42156e-06
6.74964e-06
1.43172e-06
6.4933e-06
1.41794e-06
6.15796e-06
1.38386e-06
5.75653e-06
1.33347e-06
5.30065e-06
1.27086e-06
4.80065e-06
1.2e-06
4.26552e-06
1.12462e-06
3.70301e-06
1.04811e-06
3.11965e-06
9.7343e-07
2.52098e-06
9.03122e-07
1.91166e-06
8.39253e-07
1.29563e-06
7.83439e-07
6.76324e-07
7.36843e-07
5.67755e-08
7.0019e-07
-5.60177e-07
6.73777e-07
-1.17175e-06
6.57487e-07
-1.77506e-06
6.50793e-07
-2.367e-06
6.52774e-07
-2.94407e-06
6.62121e-07
-3.50231e-06
6.77154e-07
-4.03713e-06
6.95841e-07
-4.54326e-06
7.15836e-07
-5.01464e-06
7.34529e-07
-5.44436e-06
7.49127e-07
-5.82467e-06
7.5676e-07
-6.14692e-06
7.54629e-07
-6.40165e-06
7.40188e-07
-6.57866e-06
7.11371e-07
-6.6672e-06
6.66853e-07
-6.65618e-06
6.06325e-07
-6.53451e-06
5.3078e-07
-6.29155e-06
4.42748e-07
-5.9176e-06
3.46475e-07
-5.40453e-06
2.4796e-07
-4.74652e-06
1.54827e-07
-3.94077e-06
7.60007e-08
-2.98822e-06
2.11686e-08
-1.89406e-06
-6.69026e-07
3.00015e-08
7.09241e-07
1.08932e-07
2.00433e-06
2.24773e-07
3.15793e-06
3.65278e-07
4.15834e-06
5.18671e-07
4.99917e-06
6.7423e-07
5.67852e-06
8.22772e-07
6.19868e-06
9.56953e-07
6.5656e-06
1.07141e-06
6.78824e-06
1.16272e-06
6.87771e-06
1.22926e-06
6.84654e-06
1.27094e-06
6.70796e-06
1.28893e-06
6.4753e-06
1.28536e-06
6.16154e-06
1.26298e-06
5.77891e-06
1.22497e-06
5.33866e-06
1.17465e-06
4.85096e-06
1.11537e-06
4.3248e-06
1.05032e-06
3.76806e-06
9.82435e-07
3.18753e-06
9.14376e-07
2.58904e-06
8.48441e-07
1.97759e-06
7.86564e-07
1.35751e-06
7.30304e-07
7.32584e-07
6.80848e-07
1.06232e-07
6.39012e-07
-5.18341e-07
6.05256e-07
-1.13799e-06
5.79689e-07
-1.74949e-06
5.62077e-07
-2.34939e-06
5.51856e-07
-2.93385e-06
5.48135e-07
-3.49859e-06
5.49715e-07
-4.03871e-06
5.55103e-07
-4.54865e-06
5.62542e-07
-5.02208e-06
5.70055e-07
-5.45188e-06
5.75503e-07
-5.83012e-06
5.76674e-07
-6.14809e-06
5.71395e-07
-6.39637e-06
5.57679e-07
-6.56495e-06
5.33896e-07
-6.64342e-06
4.9897e-07
-6.62125e-06
4.52597e-07
-6.48814e-06
3.95449e-07
-6.2344e-06
3.29351e-07
-5.8515e-06
2.5741e-07
-5.33259e-06
1.84029e-07
-4.67313e-06
1.14814e-07
-3.87156e-06
5.6325e-08
-2.92973e-06
1.5682e-08
-1.85341e-06
-6.53344e-07
2.45885e-08
6.84652e-07
8.95869e-08
1.93934e-06
1.85511e-07
3.06201e-06
3.02664e-07
4.04118e-06
4.31632e-07
4.8702e-06
5.63732e-07
5.54642e-06
6.91377e-07
6.07103e-06
8.08344e-07
6.44864e-06
9.09908e-07
6.68668e-06
9.92864e-07
6.79476e-06
1.05544e-06
6.78397e-06
1.09713e-06
6.66627e-06
1.1185e-06
6.45393e-06
1.12095e-06
6.15909e-06
1.10649e-06
5.79336e-06
1.07754e-06
5.36761e-06
1.03674e-06
4.89176e-06
9.86779e-07
4.37477e-06
9.30305e-07
3.82454e-06
8.69815e-07
3.24802e-06
8.07596e-07
2.65125e-06
7.45685e-07
2.0395e-06
6.85839e-07
1.41736e-06
6.29526e-07
7.88897e-07
5.77922e-07
1.57836e-07
5.31913e-07
-4.72332e-07
4.92099e-07
-1.09818e-06
4.58804e-07
-1.7162e-06
4.32079e-07
-2.32266e-06
4.1171e-07
-2.91348e-06
3.97226e-07
-3.48411e-06
3.87903e-07
-4.02939e-06
3.82782e-07
-4.54353e-06
3.80683e-07
-5.01998e-06
3.80235e-07
-5.45143e-06
3.79916e-07
-5.8298e-06
3.78116e-07
-6.14629e-06
3.73215e-07
-6.39147e-06
3.63684e-07
-6.55542e-06
3.48215e-07
-6.62795e-06
3.25861e-07
-6.5989e-06
2.96191e-07
-6.45847e-06
2.59448e-07
-6.19766e-06
2.16676e-07
-5.80873e-06
1.69818e-07
-5.28573e-06
1.21735e-07
-4.62505e-06
7.61419e-08
-3.82596e-06
3.74414e-08
-2.89103e-06
1.04492e-08
-1.82642e-06
-6.42895e-07
1.93873e-08
6.65265e-07
7.08705e-08
1.88785e-06
1.47246e-07
2.98563e-06
2.4112e-07
3.94731e-06
3.45247e-07
4.76608e-06
4.52846e-07
5.43882e-06
5.57886e-07
5.96599e-06
6.5529e-07
6.35123e-06
7.41073e-07
6.6009e-06
8.12378e-07
6.72345e-06
8.67446e-07
6.7289e-06
9.05521e-07
6.62819e-06
9.26714e-07
6.43274e-06
9.3184e-07
6.15397e-06
9.22257e-07
5.80294e-06
8.99702e-07
5.39016e-06
8.6615e-07
4.92531e-06
8.23686e-07
4.41723e-06
7.74407e-07
3.87382e-06
7.20344e-07
3.30208e-06
6.63398e-07
2.7082e-06
6.0531e-07
2.09759e-06
5.47628e-07
1.47504e-06
4.91697e-07
8.44828e-07
4.38651e-07
2.10881e-07
3.89419e-07
-4.23099e-07
3.4472e-07
-1.05348e-06
3.05073e-07
-1.67655e-06
2.708e-07
-2.28839e-06
2.42028e-07
-2.88471e-06
2.18694e-07
-3.46077e-06
2.00545e-07
-4.01124e-06
1.87143e-07
-4.53013e-06
1.77871e-07
-5.01071e-06
1.71943e-07
-5.4455e-06
1.68426e-07
-5.82628e-06
1.66269e-07
-6.14414e-06
1.64347e-07
-6.38955e-06
1.61526e-07
-6.5526e-06
1.5674e-07
-6.62316e-06
1.49083e-07
-6.59124e-06
1.37919e-07
-6.44731e-06
1.22988e-07
-6.18273e-06
1.04507e-07
-5.79025e-06
8.32471e-08
-5.26447e-06
6.05665e-08
-4.60237e-06
3.83865e-08
-3.80378e-06
1.90966e-08
-2.87174e-06
5.38811e-09
-1.81271e-06
-6.37507e-07
1.43359e-08
6.50929e-07
5.25992e-08
1.84959e-06
1.09691e-07
2.92854e-06
1.80345e-07
3.87665e-06
2.59341e-07
4.68708e-06
3.41707e-07
5.35646e-06
4.22922e-07
5.88478e-06
4.99072e-07
6.27508e-06
5.66971e-07
6.533e-06
6.24207e-07
6.66622e-06
6.69154e-07
6.68395e-06
7.00925e-07
6.59642e-06
7.19291e-07
6.41437e-06
7.24586e-07
6.14867e-06
7.17595e-07
5.80994e-06
6.99438e-07
5.40832e-06
6.71469e-07
4.95328e-06
6.3518e-07
4.45352e-06
5.92127e-07
3.91687e-06
5.4386e-07
3.35035e-06
4.9188e-07
2.76018e-06
4.37605e-07
2.15186e-06
3.82345e-07
1.5303e-06
3.27292e-07
8.99881e-07
2.73511e-07
2.64662e-07
2.21944e-07
-3.71532e-07
1.73405e-07
-1.00494e-06
1.28588e-07
-1.63174e-06
8.8065e-08
-2.24787e-06
5.22908e-08
-2.84894e-06
2.15967e-08
-3.43008e-06
-3.81152e-09
-3.98583e-06
-2.3861e-08
-4.51008e-06
-3.86184e-08
-4.99595e-06
-4.82979e-08
-5.43582e-06
-5.32652e-08
-5.82132e-06
-5.40368e-08
-6.14337e-06
-5.12712e-08
-6.39232e-06
-4.5749e-08
-6.55812e-06
-3.83396e-08
-6.63057e-06
-2.9954e-08
-6.59963e-06
-2.14836e-08
-6.45578e-06
-1.37292e-08
-6.19048e-06
-7.32619e-09
-5.79665e-06
-2.67613e-09
-5.26912e-06
1.04356e-10
-4.60515e-06
1.20155e-09
-3.80488e-06
1.08497e-09