/*--------------------------------*- C++ -*----------------------------------*\
  =========                 |
  \\      /  F ield         | OpenFOAM: The Open Source CFD Toolbox
   \\    /   O peration     | Website:  https://openfoam.org
    \\  /    A nd           | Version:  7
     \\/     M anipulation  |
\*---------------------------------------------------------------------------*/
FoamFile
{
    version     2.0;
    format      ascii;
    class       volScalarField;
    location    "0.021";
    object      p;
}
// * * * * * * * * * * * * * * * * * * * * * * * * * * * * * * * * * * * * * //

dimensions      [0 2 -2 0 0 0 0];

internalField   nonuniform List<scalar> 
2500
(
-2.83727e-05
6.38453
9.0478
10.1416
10.7324
11.0804
11.2937
11.434
11.5328
11.6062
11.6631
11.7091
11.7475
11.7807
11.8104
11.8377
11.8633
11.8879
11.9119
11.9355
11.959
11.9826
12.0063
12.0302
12.0545
12.0792
12.1044
12.1302
12.1567
12.1841
12.2127
12.2426
12.2742
12.3081
12.3447
12.3849
12.4297
12.4805
12.5391
12.6082
12.6915
12.795
12.9279
13.1069
13.364
13.7633
14.4214
15.6103
18.3899
24.8983
4.86836
7.46761
8.88424
9.76644
10.3689
10.7744
11.049
11.2411
11.3805
11.4849
11.5656
11.63
11.683
11.7278
11.7669
11.8018
11.8338
11.8637
11.892
11.9194
11.9462
11.9725
11.9987
12.025
12.0514
12.0782
12.1055
12.1335
12.1624
12.1924
12.2239
12.2572
12.2929
12.3315
12.3739
12.421
12.4744
12.5358
12.6078
12.694
12.7995
12.9321
13.1035
13.3321
13.6484
14.103
14.7654
15.7205
17.223
19.9394
7.7053
8.46829
9.21047
9.83287
10.3184
10.68
10.9466
11.1452
11.2955
11.4115
11.503
11.577
11.6382
11.69
11.7351
11.7751
11.8114
11.8449
11.8765
11.9066
11.9358
11.9643
11.9924
12.0204
12.0485
12.0769
12.1059
12.1355
12.1661
12.1981
12.2317
12.2674
12.3058
12.3475
12.3936
12.4452
12.5037
12.5712
12.6505
12.7451
12.8602
13.003
13.1836
13.4164
13.7217
14.1274
14.6634
15.3403
16.137
16.9644
9.11583
9.29209
9.6705
10.0708
10.4196
10.7048
10.9329
11.1136
11.2571
11.3722
11.4656
11.5427
11.6075
11.663
11.7115
11.7546
11.7938
11.8299
11.8638
11.896
11.927
11.9572
11.9869
12.0163
12.0458
12.0754
12.1056
12.1366
12.1685
12.2019
12.237
12.2744
12.3146
12.3585
12.4068
12.4609
12.5221
12.5925
12.6744
12.7711
12.887
13.0273
13.1994
13.4119
13.6749
13.9985
14.3878
14.8288
15.2428
15.4494
9.92914
9.90767
10.0829
10.3259
10.5648
10.7792
10.9638
11.1189
11.2481
11.3556
11.4457
11.5219
11.5872
11.644
11.6941
11.7391
11.78
11.8179
11.8534
11.8872
11.9196
11.9511
11.982
12.0126
12.0432
12.0739
12.1052
12.1371
12.1702
12.2046
12.2408
12.2794
12.3209
12.366
12.4156
12.4709
12.5331
12.604
12.6856
12.7806
12.892
13.0236
13.1794
13.3638
13.5797
13.8268
14.098
14.3705
14.5684
14.5589
10.4414
10.355
10.4231
10.5645
10.7231
10.8791
11.023
11.1509
11.2623
11.3586
11.4419
11.5142
11.5775
11.6334
11.6835
11.7289
11.7706
11.8094
11.8458
11.8805
11.9139
11.9464
11.9782
12.0097
12.041
12.0726
12.1046
12.1374
12.1712
12.2063
12.2433
12.2826
12.3247
12.3703
12.4203
12.4756
12.5373
12.6069
12.686
12.7763
12.88
12.9992
13.1356
13.2902
13.4619
13.6454
13.8296
13.9923
14.0738
13.9887
10.7828
10.6836
10.6984
10.7766
10.8789
10.9892
11.0982
11.2004
11.2935
11.377
11.4515
11.5179
11.5774
11.631
11.6797
11.7243
11.7658
11.8046
11.8413
11.8765
11.9103
11.9433
11.9757
12.0077
12.0396
12.0717
12.1043
12.1375
12.1718
12.2074
12.2447
12.2842
12.3264
12.3719
12.4214
12.4758
12.5359
12.6028
12.6776
12.7615
12.8557
12.9608
13.0772
13.2038
13.3372
13.4706
13.593
13.6864
13.7083
13.6048
11.0249
10.931
10.9197
10.9594
11.0231
11.0993
11.18
11.2599
11.3358
11.4064
11.4714
11.531
11.5855
11.6356
11.6819
11.725
11.7654
11.8036
11.84
11.875
11.9089
11.942
11.9746
12.0069
12.0391
12.0715
12.1043
12.1378
12.1722
12.2079
12.2452
12.2846
12.3265
12.3713
12.4198
12.4724
12.53
12.5933
12.6629
12.7395
12.8234
12.9145
13.0121
13.1139
13.2159
13.3113
13.3907
13.4409
13.4327
13.3319
11.2063
11.122
11.0984
11.1146
11.1524
11.2037
11.2623
11.3235
11.3844
11.443
11.4987
11.551
11.6001
11.6461
11.6893
11.7302
11.7689
11.806
11.8416
11.8761
11.9096
11.9425
11.975
12.0073
12.0395
12.0719
12.1047
12.1382
12.1726
12.2082
12.2452
12.2841
12.3253
12.3691
12.416
12.4665
12.521
12.5801
12.644
12.713
12.7868
12.8647
12.9455
13.0264
13.1034
13.1705
13.2203
13.2437
13.2205
13.1281
11.3479
11.2732
11.244
11.2461
11.2665
11.2999
11.3416
11.3878
11.4358
11.4838
11.5307
11.5761
11.6196
11.6612
11.701
11.7392
11.776
11.8114
11.8459
11.8794
11.9123
11.9448
11.9769
12.0089
12.0409
12.0731
12.1058
12.139
12.1731
12.2083
12.2449
12.2831
12.3232
12.3657
12.4107
12.4587
12.5099
12.5645
12.6227
12.6841
12.7484
12.8144
12.8806
12.9442
13.0017
13.048
13.0775
13.0842
13.0538
12.9706
11.4618
11.3952
11.3641
11.3576
11.3664
11.3869
11.4158
11.4501
11.4875
11.5263
11.5655
11.6043
11.6425
11.6798
11.716
11.7514
11.7858
11.8194
11.8524
11.8848
11.9168
11.9485
11.98
12.0115
12.0432
12.075
12.1073
12.1402
12.1739
12.2085
12.2444
12.2817
12.3206
12.3614
12.4044
12.4497
12.4974
12.5476
12.6001
12.6545
12.71
12.7655
12.8193
12.869
12.9113
12.9423
12.9579
12.9541
12.9207
12.8458
11.5553
11.4955
11.4641
11.4524
11.4534
11.4648
11.4841
11.5091
11.5378
11.5689
11.6013
11.6343
11.6675
11.7006
11.7333
11.7657
11.7978
11.8294
11.8608
11.8919
11.9228
11.9536
11.9843
12.0152
12.0463
12.0776
12.1094
12.1418
12.1748
12.2088
12.2438
12.28
12.3176
12.3568
12.3976
12.4401
12.4843
12.5302
12.5773
12.6251
12.6729
12.7193
12.7628
12.8012
12.8318
12.8516
12.8576
12.8473
12.813
12.7453
11.6332
11.5789
11.548
11.5333
11.5291
11.5339
11.5462
11.5639
11.5857
11.6103
11.6369
11.6648
11.6934
11.7226
11.7521
11.7816
11.8113
11.8409
11.8705
11.9002
11.9299
11.9596
11.9895
12.0196
12.05
12.0807
12.1119
12.1436
12.176
12.2091
12.2432
12.2783
12.3144
12.3518
12.3904
12.4302
12.4711
12.5128
12.5549
12.5969
12.6378
12.6765
12.7115
12.7408
12.7625
12.774
12.7733
12.759
12.7249
12.6633
11.6986
11.6489
11.6189
11.6024
11.5948
11.595
11.6019
11.614
11.6303
11.6496
11.6713
11.6947
11.7194
11.7451
11.7714
11.7983
11.8256
11.8532
11.8812
11.9093
11.9378
11.9664
11.9954
12.0246
12.0542
12.0842
12.1147
12.1457
12.1773
12.2096
12.2426
12.2765
12.3112
12.3468
12.3832
12.4203
12.458
12.4959
12.5336
12.5703
12.6053
12.6374
12.6654
12.6875
12.7023
12.7077
12.7025
12.6857
12.6524
12.5961
11.754
11.708
11.6791
11.6616
11.6516
11.6486
11.6515
11.6593
11.6712
11.6863
11.7039
11.7235
11.7447
11.7672
11.7908
11.8152
11.8403
11.866
11.8922
11.9189
11.9461
11.9736
12.0016
12.03
12.0588
12.088
12.1177
12.1479
12.1787
12.2101
12.2421
12.2747
12.308
12.3418
12.3761
12.4107
12.4455
12.4799
12.5135
12.5456
12.5755
12.6022
12.6244
12.6408
12.6502
12.6512
12.6428
12.6246
12.5925
12.5407
11.8008
11.7581
11.7302
11.7123
11.7008
11.6953
11.6953
11.6998
11.7082
11.7198
11.7341
11.7505
11.7687
11.7885
11.8095
11.8317
11.8548
11.8787
11.9033
11.9286
11.9545
11.981
12.008
12.0354
12.0634
12.0918
12.1208
12.1502
12.1801
12.2106
12.2415
12.273
12.3048
12.337
12.3693
12.4016
12.4336
12.4649
12.4949
12.5231
12.5487
12.5707
12.5882
12.6002
12.6056
12.6032
12.5927
12.5737
12.5429
12.495
11.8404
11.8003
11.7735
11.7554
11.743
11.7358
11.7336
11.7357
11.7413
11.7501
11.7616
11.7753
11.791
11.8084
11.8273
11.8474
11.8687
11.891
11.9142
11.9381
11.9629
11.9882
12.0142
12.0408
12.068
12.0956
12.1238
12.1524
12.1816
12.2111
12.241
12.2713
12.3018
12.3324
12.3629
12.3931
12.4226
12.4511
12.478
12.5028
12.5247
12.543
12.5567
12.5652
12.5674
12.5627
12.5506
12.5314
12.5018
12.4574
11.8738
11.836
11.8101
11.7921
11.779
11.7707
11.7668
11.7669
11.7705
11.777
11.7862
11.7978
11.8113
11.8267
11.8437
11.8621
11.8817
11.9025
11.9244
11.9471
11.9708
11.9951
12.0202
12.046
12.0723
12.0992
12.1267
12.1546
12.1829
12.2115
12.2405
12.2697
12.2989
12.3281
12.3569
12.3852
12.4126
12.4387
12.4629
12.4848
12.5037
12.5188
12.5296
12.5352
12.535
12.5286
12.5156
12.4963
12.468
12.4265
11.9017
11.8657
11.8407
11.8228
11.8094
11.8002
11.7952
11.7938
11.7957
11.8005
11.8079
11.8176
11.8294
11.8431
11.8584
11.8753
11.8936
11.9131
11.9337
11.9554
11.978
12.0015
12.0258
12.0508
12.0764
12.1026
12.1293
12.1565
12.1841
12.2119
12.24
12.2682
12.2963
12.3242
12.3515
12.3782
12.4037
12.4276
12.4496
12.4691
12.4855
12.4981
12.5064
12.5099
12.5079
12.5002
12.4866
12.4674
12.4403
12.4013
11.9246
11.8902
11.866
11.8483
11.8346
11.8249
11.819
11.8165
11.8171
11.8205
11.8264
11.8347
11.8451
11.8573
11.8713
11.8869
11.904
11.9224
11.942
11.9628
11.9846
12.0072
12.0308
12.055
12.08
12.1056
12.1317
12.1582
12.1851
12.2122
12.2395
12.2668
12.2939
12.3207
12.3468
12.372
12.3959
12.4181
12.4382
12.4557
12.47
12.4807
12.4871
12.4889
12.4856
12.4769
12.4629
12.444
12.4179
12.381
11.9431
11.9099
11.8864
11.8689
11.8551
11.845
11.8384
11.8351
11.8347
11.8371
11.8419
11.849
11.8582
11.8693
11.8823
11.8968
11.9129
11.9304
11.9492
11.9691
11.9901
12.0121
12.035
12.0587
12.0831
12.1081
12.1337
12.1596
12.1859
12.2125
12.2391
12.2656
12.2919
12.3177
12.3427
12.3667
12.3893
12.4101
12.4287
12.4446
12.4573
12.4664
12.4713
12.4718
12.4675
12.4582
12.444
12.4254
12.4001
12.365
11.9574
11.9253
11.9023
11.885
11.8712
11.8608
11.8538
11.8498
11.8487
11.8503
11.8542
11.8605
11.8688
11.879
11.8911
11.9049
11.9202
11.9369
11.955
11.9743
11.9947
12.0162
12.0385
12.0617
12.0857
12.1102
12.1353
12.1608
12.1866
12.2126
12.2387
12.2646
12.2902
12.3152
12.3394
12.3624
12.384
12.4037
12.4211
12.4357
12.4472
12.4551
12.4589
12.4585
12.4534
12.4437
12.4294
12.411
12.3865
12.3528
11.968
11.9366
11.914
11.8969
11.883
11.8725
11.8651
11.8608
11.8592
11.8601
11.8635
11.8691
11.8767
11.8864
11.8978
11.9109
11.9257
11.9419
11.9594
11.9782
11.9982
12.0192
12.0412
12.064
12.0876
12.1118
12.1365
12.1617
12.1871
12.2128
12.2384
12.2638
12.2889
12.3133
12.3369
12.3592
12.38
12.3988
12.4153
12.4291
12.4397
12.4467
12.4498
12.4487
12.4431
12.4331
12.4188
12.4006
12.3766
12.3439
11.9749
11.944
11.9217
11.9047
11.8908
11.8802
11.8726
11.868
11.8661
11.8667
11.8696
11.8748
11.8821
11.8913
11.9023
11.915
11.9294
11.9452
11.9624
11.9809
12.0006
12.0213
12.043
12.0656
12.0889
12.1129
12.1374
12.1623
12.1875
12.2128
12.2382
12.2633
12.288
12.312
12.3351
12.357
12.3773
12.3956
12.4115
12.4247
12.4347
12.4412
12.4437
12.4422
12.4363
12.4261
12.4118
12.3937
12.3702
12.3382
11.9783
11.9477
11.9255
11.9086
11.8947
11.884
11.8764
11.8716
11.8695
11.8699
11.8727
11.8777
11.8847
11.8937
11.9045
11.9171
11.9312
11.9469
11.9639
11.9822
12.0018
12.0224
12.0439
12.0664
12.0896
12.1134
12.1378
12.1626
12.1876
12.2129
12.238
12.263
12.2875
12.3114
12.3343
12.3559
12.3759
12.394
12.4096
12.4225
12.4322
12.4384
12.4407
12.439
12.433
12.4227
12.4083
12.3904
12.367
12.3353
11.9783
11.9477
11.9255
11.9086
11.8947
11.884
11.8764
11.8716
11.8695
11.8699
11.8727
11.8777
11.8847
11.8937
11.9045
11.9171
11.9312
11.9469
11.9639
11.9822
12.0018
12.0224
12.0439
12.0664
12.0896
12.1134
12.1378
12.1626
12.1876
12.2129
12.238
12.263
12.2875
12.3114
12.3343
12.3559
12.3759
12.394
12.4096
12.4225
12.4322
12.4384
12.4407
12.439
12.433
12.4227
12.4083
12.3904
12.367
12.3353
11.9749
11.944
11.9217
11.9047
11.8908
11.8802
11.8726
11.868
11.8661
11.8667
11.8696
11.8748
11.8821
11.8912
11.9023
11.915
11.9293
11.9452
11.9624
11.9809
12.0006
12.0213
12.043
12.0656
12.0889
12.1129
12.1374
12.1623
12.1875
12.2128
12.2382
12.2633
12.288
12.312
12.3351
12.357
12.3773
12.3956
12.4115
12.4247
12.4347
12.4412
12.4437
12.4422
12.4363
12.4261
12.4118
12.3937
12.3702
12.3382
11.968
11.9366
11.914
11.8969
11.883
11.8725
11.8651
11.8608
11.8592
11.8601
11.8635
11.8691
11.8767
11.8864
11.8978
11.9109
11.9257
11.9419
11.9594
11.9782
11.9982
12.0192
12.0412
12.064
12.0876
12.1118
12.1365
12.1617
12.1871
12.2128
12.2384
12.2638
12.2889
12.3133
12.3369
12.3592
12.38
12.3988
12.4153
12.4291
12.4397
12.4467
12.4498
12.4487
12.4431
12.4331
12.4188
12.4005
12.3766
12.3439
11.9574
11.9253
11.9023
11.885
11.8712
11.8608
11.8537
11.8498
11.8487
11.8503
11.8542
11.8605
11.8688
11.879
11.8911
11.9048
11.9202
11.9369
11.955
11.9743
11.9947
12.0162
12.0385
12.0617
12.0856
12.1102
12.1353
12.1608
12.1866
12.2126
12.2387
12.2646
12.2902
12.3152
12.3394
12.3624
12.384
12.4037
12.4211
12.4357
12.4472
12.4551
12.4589
12.4585
12.4534
12.4437
12.4294
12.411
12.3865
12.3528
11.943
11.9099
11.8864
11.8689
11.8551
11.845
11.8384
11.8351
11.8347
11.8371
11.8419
11.849
11.8582
11.8693
11.8823
11.8968
11.9129
11.9304
11.9492
11.9691
11.9901
12.0121
12.035
12.0587
12.0831
12.1081
12.1337
12.1596
12.1859
12.2125
12.2391
12.2656
12.2919
12.3177
12.3427
12.3667
12.3893
12.4101
12.4287
12.4446
12.4573
12.4664
12.4713
12.4718
12.4675
12.4582
12.444
12.4254
12.4001
12.365
11.9246
11.8902
11.866
11.8483
11.8346
11.8249
11.8189
11.8165
11.8171
11.8205
11.8264
11.8347
11.845
11.8573
11.8713
11.8869
11.904
11.9224
11.942
11.9628
11.9845
12.0072
12.0308
12.055
12.08
12.1056
12.1317
12.1582
12.1851
12.2122
12.2395
12.2668
12.2939
12.3207
12.3468
12.372
12.3959
12.4181
12.4382
12.4557
12.47
12.4807
12.4871
12.4889
12.4855
12.4769
12.4629
12.444
12.4179
12.381
11.9016
11.8657
11.8407
11.8228
11.8093
11.8002
11.7952
11.7938
11.7957
11.8005
11.8079
11.8176
11.8294
11.843
11.8584
11.8753
11.8935
11.9131
11.9337
11.9554
11.978
12.0015
12.0258
12.0508
12.0764
12.1026
12.1293
12.1565
12.184
12.2119
12.24
12.2682
12.2963
12.3241
12.3515
12.3781
12.4036
12.4276
12.4496
12.4691
12.4855
12.4981
12.5064
12.5099
12.5079
12.5002
12.4866
12.4674
12.4403
12.4013
11.8738
11.8359
11.8101
11.7921
11.779
11.7706
11.7668
11.7669
11.7704
11.777
11.7862
11.7978
11.8113
11.8267
11.8436
11.862
11.8817
11.9025
11.9243
11.9471
11.9707
11.9951
12.0202
12.046
12.0723
12.0992
12.1267
12.1545
12.1829
12.2115
12.2405
12.2697
12.2989
12.3281
12.3569
12.3852
12.4126
12.4386
12.4629
12.4848
12.5037
12.5188
12.5296
12.5352
12.535
12.5285
12.5156
12.4963
12.468
12.4265
11.8404
11.8003
11.7735
11.7554
11.7429
11.7358
11.7336
11.7356
11.7413
11.7501
11.7616
11.7753
11.791
11.8084
11.8273
11.8474
11.8687
11.891
11.9141
11.9381
11.9628
11.9882
12.0142
12.0408
12.068
12.0956
12.1238
12.1524
12.1815
12.2111
12.241
12.2713
12.3018
12.3324
12.3629
12.3931
12.4226
12.4511
12.478
12.5028
12.5247
12.543
12.5567
12.5652
12.5674
12.5626
12.5506
12.5314
12.5018
12.4574
11.8008
11.758
11.7301
11.7122
11.7007
11.6953
11.6953
11.6998
11.7082
11.7198
11.734
11.7505
11.7687
11.7885
11.8095
11.8317
11.8548
11.8787
11.9033
11.9286
11.9545
11.981
12.008
12.0354
12.0634
12.0918
12.1208
12.1502
12.1801
12.2106
12.2415
12.273
12.3048
12.337
12.3693
12.4016
12.4336
12.4649
12.4949
12.5231
12.5487
12.5707
12.5882
12.6002
12.6055
12.6032
12.5927
12.5737
12.5429
12.495
11.7539
11.708
11.679
11.6616
11.6516
11.6485
11.6514
11.6593
11.6712
11.6862
11.7038
11.7234
11.7447
11.7672
11.7907
11.8151
11.8403
11.866
11.8922
11.9189
11.9461
11.9736
12.0016
12.03
12.0587
12.088
12.1177
12.1479
12.1787
12.2101
12.2421
12.2747
12.3079
12.3418
12.3761
12.4107
12.4454
12.4799
12.5135
12.5456
12.5755
12.6021
12.6243
12.6408
12.6502
12.6512
12.6428
12.6246
12.5925
12.5407
11.6986
11.6489
11.6189
11.6024
11.5947
11.5949
11.6018
11.614
11.6302
11.6496
11.6713
11.6947
11.7194
11.745
11.7714
11.7983
11.8256
11.8532
11.8811
11.9093
11.9377
11.9664
11.9954
12.0246
12.0542
12.0842
12.1147
12.1457
12.1773
12.2096
12.2426
12.2765
12.3112
12.3468
12.3832
12.4203
12.458
12.4959
12.5335
12.5703
12.6053
12.6374
12.6653
12.6875
12.7022
12.7077
12.7025
12.6857
12.6524
12.5961
11.6331
11.5789
11.5479
11.5332
11.529
11.5339
11.5461
11.5639
11.5856
11.6103
11.6369
11.6647
11.6934
11.7226
11.752
11.7816
11.8112
11.8409
11.8705
11.9002
11.9299
11.9596
11.9895
12.0196
12.05
12.0807
12.1119
12.1436
12.176
12.2091
12.2432
12.2783
12.3144
12.3518
12.3904
12.4302
12.4711
12.5128
12.5549
12.5969
12.6378
12.6765
12.7115
12.7408
12.7625
12.774
12.7733
12.759
12.7249
12.6633
11.5553
11.4955
11.464
11.4523
11.4534
11.4647
11.4841
11.5091
11.5378
11.5689
11.6013
11.6343
11.6675
11.7005
11.7333
11.7657
11.7978
11.8294
11.8608
11.8919
11.9228
11.9536
11.9843
12.0152
12.0462
12.0776
12.1094
12.1417
12.1748
12.2088
12.2438
12.28
12.3176
12.3567
12.3975
12.4401
12.4843
12.5302
12.5773
12.6251
12.6729
12.7193
12.7628
12.8012
12.8318
12.8516
12.8576
12.8473
12.813
12.7453
11.4618
11.3952
11.364
11.3575
11.3663
11.3869
11.4158
11.4501
11.4874
11.5263
11.5654
11.6043
11.6425
11.6797
11.716
11.7513
11.7858
11.8194
11.8524
11.8848
11.9168
11.9485
11.98
12.0115
12.0431
12.075
12.1073
12.1402
12.1739
12.2085
12.2444
12.2816
12.3206
12.3614
12.4044
12.4497
12.4974
12.5476
12.6001
12.6544
12.71
12.7655
12.8193
12.869
12.9113
12.9423
12.9579
12.9541
12.9207
12.8458
11.3479
11.2731
11.244
11.246
11.2665
11.2998
11.3415
11.3877
11.4357
11.4837
11.5307
11.576
11.6196
11.6612
11.701
11.7392
11.7759
11.8114
11.8458
11.8794
11.9123
11.9447
11.9769
12.0088
12.0409
12.0731
12.1057
12.139
12.1731
12.2083
12.2449
12.2831
12.3232
12.3656
12.4107
12.4587
12.5099
12.5645
12.6226
12.6841
12.7484
12.8144
12.8805
12.9442
13.0017
13.0479
13.0775
13.0842
13.0538
12.9706
11.2062
11.122
11.0983
11.1146
11.1523
11.2036
11.2623
11.3235
11.3843
11.443
11.4986
11.551
11.6001
11.6461
11.6893
11.7301
11.7689
11.8059
11.8416
11.876
11.9096
11.9425
11.975
12.0072
12.0395
12.0719
12.1047
12.1382
12.1726
12.2081
12.2452
12.2841
12.3253
12.3691
12.416
12.4665
12.521
12.5801
12.644
12.713
12.7868
12.8647
12.9454
13.0263
13.1033
13.1705
13.2203
13.2437
13.2205
13.1281
11.0248
10.9309
10.9196
10.9593
11.0231
11.0993
11.18
11.2598
11.3357
11.4064
11.4714
11.5309
11.5854
11.6355
11.6818
11.7249
11.7653
11.8035
11.84
11.875
11.9089
11.942
11.9746
12.0069
12.0391
12.0715
12.1043
12.1377
12.1722
12.2079
12.2452
12.2846
12.3264
12.3713
12.4197
12.4724
12.53
12.5933
12.6629
12.7395
12.8234
12.9145
13.0121
13.1139
13.2159
13.3113
13.3907
13.4409
13.4327
13.3319
10.7827
10.6836
10.6983
10.7765
10.8789
10.9892
11.0982
11.2004
11.2935
11.377
11.4515
11.5179
11.5774
11.6309
11.6796
11.7243
11.7658
11.8046
11.8413
11.8764
11.9103
11.9433
11.9757
12.0077
12.0396
12.0717
12.1043
12.1375
12.1718
12.2073
12.2447
12.2842
12.3264
12.3719
12.4214
12.4758
12.5359
12.6028
12.6776
12.7615
12.8556
12.9608
13.0772
13.2038
13.3372
13.4706
13.593
13.6864
13.7082
13.6048
10.4413
10.3549
10.423
10.5644
10.7231
10.879
11.0229
11.1508
11.2622
11.3586
11.4418
11.5141
11.5774
11.6334
11.6835
11.7289
11.7706
11.8093
11.8458
11.8805
11.9139
11.9464
11.9782
12.0096
12.041
12.0726
12.1046
12.1374
12.1712
12.2063
12.2433
12.2826
12.3247
12.3703
12.4203
12.4756
12.5373
12.6069
12.686
12.7763
12.88
12.9992
13.1356
13.2902
13.4619
13.6454
13.8296
13.9923
14.0738
13.9887
9.92905
9.90758
10.0828
10.3259
10.5647
10.7791
10.9637
11.1189
11.248
11.3556
11.4457
11.5219
11.5872
11.6439
11.6941
11.739
11.78
11.8179
11.8534
11.8871
11.9196
11.9511
11.982
12.0126
12.0431
12.0739
12.1051
12.1371
12.1701
12.2046
12.2408
12.2794
12.3209
12.366
12.4156
12.4709
12.5331
12.604
12.6856
12.7806
12.892
13.0236
13.1794
13.3638
13.5797
13.8267
14.098
14.3705
14.5684
14.5589
9.11572
9.29198
9.6704
10.0707
10.4195
10.7048
10.9328
11.1135
11.2571
11.3721
11.4655
11.5426
11.6074
11.6629
11.7114
11.7546
11.7938
11.8299
11.8638
11.896
11.927
11.9572
11.9869
12.0163
12.0457
12.0754
12.1056
12.1366
12.1685
12.2019
12.237
12.2744
12.3146
12.3585
12.4068
12.4609
12.5221
12.5924
12.6744
12.7711
12.8869
13.0273
13.1994
13.4118
13.6749
13.9984
14.3878
14.8288
15.2428
15.4494
7.70517
8.46817
9.21036
9.83277
10.3183
10.6799
10.9466
11.1451
11.2954
11.4114
11.503
11.5769
11.6381
11.69
11.735
11.775
11.8113
11.8449
11.8765
11.9066
11.9357
11.9643
11.9924
12.0204
12.0485
12.0769
12.1058
12.1355
12.1661
12.198
12.2316
12.2674
12.3057
12.3475
12.3936
12.4452
12.5037
12.5712
12.6505
12.7451
12.8602
13.003
13.1836
13.4164
13.7217
14.1274
14.6634
15.3403
16.137
16.9644
4.86821
7.46747
8.88412
9.76633
10.3688
10.7743
11.0489
11.2411
11.3804
11.4848
11.5655
11.6299
11.6829
11.7278
11.7669
11.8018
11.8338
11.8636
11.892
11.9194
11.9461
11.9725
11.9987
12.025
12.0514
12.0782
12.1055
12.1335
12.1624
12.1924
12.2239
12.2572
12.2929
12.3315
12.3738
12.421
12.4744
12.5358
12.6078
12.694
12.7995
12.9321
13.1034
13.332
13.6484
14.1029
14.7654
15.7205
17.2229
19.9393
-0.000220733
6.38438
9.04767
10.1415
10.7323
11.0803
11.2936
11.4339
11.5328
11.6062
11.6631
11.709
11.7474
11.7807
11.8104
11.8376
11.8633
11.8879
11.9119
11.9355
11.959
11.9826
12.0063
12.0302
12.0545
12.0792
12.1044
12.1302
12.1567
12.1841
12.2126
12.2426
12.2742
12.3081
12.3447
12.3849
12.4297
12.4805
12.5391
12.6082
12.6915
12.7949
12.9279
13.1069
13.364
13.7632
14.4214
15.6103
18.3898
24.8983
)
;

boundaryField
{
    movingWallTop
    {
        type            zeroGradient;
    }
    movingWallBottom
    {
        type            zeroGradient;
    }
    fixedWalls
    {
        type            zeroGradient;
    }
    frontAndBack
    {
        type            empty;
    }
}


// ************************************************************************* //
