/*--------------------------------*- C++ -*----------------------------------*\
  =========                 |
  \\      /  F ield         | OpenFOAM: The Open Source CFD Toolbox
   \\    /   O peration     | Website:  https://openfoam.org
    \\  /    A nd           | Version:  7
     \\/     M anipulation  |
\*---------------------------------------------------------------------------*/
FoamFile
{
    version     2.0;
    format      ascii;
    class       surfaceScalarField;
    location    "0.0586";
    object      phi;
}
// * * * * * * * * * * * * * * * * * * * * * * * * * * * * * * * * * * * * * //

dimensions      [0 3 -1 0 0 0 0];

internalField   nonuniform List<scalar> 
4900
(
1.09324e-09
-1.10042e-09
2.20876e-09
-1.11556e-09
2.24048e-09
-3.17652e-11
8.18446e-10
1.42207e-09
-2.13691e-09
2.95538e-09
-6.5413e-09
4.40438e-09
-1.22343e-08
5.69299e-09
-1.90217e-08
6.78741e-09
-2.66973e-08
7.6756e-09
-3.50537e-08
8.35646e-09
-4.38886e-08
8.83487e-09
-5.30077e-08
9.11916e-09
-6.22275e-08
9.21973e-09
-7.13756e-08
9.14814e-09
-8.02923e-08
8.9167e-09
-8.88304e-08
8.53812e-09
-9.68556e-08
8.02525e-09
-1.04247e-07
7.39104e-09
-1.10895e-07
6.64849e-09
-1.16706e-07
5.8106e-09
-1.21596e-07
4.89041e-09
-1.25497e-07
3.90109e-09
-1.28353e-07
2.85596e-09
-1.30122e-07
1.76861e-09
-1.30775e-07
6.52922e-10
-1.30298e-07
-4.76832e-10
-1.28692e-07
-1.60594e-09
-1.25973e-07
-2.71924e-09
-1.22172e-07
-3.80108e-09
-1.17336e-07
-4.8354e-09
-1.1153e-07
-5.80578e-09
-1.04835e-07
-6.69553e-09
-9.73471e-08
-7.48784e-09
-8.91812e-08
-8.16596e-09
-8.04678e-08
-8.71341e-09
-7.13535e-08
-9.11428e-09
-6.20001e-08
-9.35347e-09
-5.2583e-08
-9.41705e-09
-4.32904e-08
-9.29264e-09
-3.43205e-08
-8.96985e-09
-2.58797e-08
-8.44088e-09
-1.81783e-08
-7.70132e-09
-1.14268e-08
-6.75153e-09
-5.82781e-09
-5.59899e-09
-1.56462e-09
-4.26317e-09
1.22189e-09
-2.78649e-09
2.4746e-09
-1.2527e-09
2.28696e-09
1.87661e-10
1.09609e-09
1.19089e-09
1.09611e-09
1.1232e-09
-2.22365e-09
1.21386e-09
-1.20623e-09
-1.30224e-09
2.48435e-09
-7.17638e-09
7.29621e-09
-1.66217e-08
1.24006e-08
-2.95281e-08
1.73108e-08
-4.55887e-08
2.17536e-08
-6.43842e-08
2.55829e-08
-8.54358e-08
2.87272e-08
-1.08239e-07
3.11594e-08
-1.32284e-07
3.28799e-08
-1.57071e-07
3.39062e-08
-1.82118e-07
3.4267e-08
-2.06968e-07
3.39983e-08
-2.31192e-07
3.31406e-08
-2.54392e-07
3.17376e-08
-2.76201e-07
2.98349e-08
-2.9629e-07
2.74793e-08
-3.14359e-07
2.47184e-08
-3.30149e-07
2.16005e-08
-3.43433e-07
1.81745e-08
-3.54022e-07
1.449e-08
-3.61764e-07
1.05974e-08
-3.66543e-07
6.5479e-09
-3.68284e-07
2.39425e-09
-3.66952e-07
-1.80964e-09
-3.62549e-07
-6.00832e-09
-3.55124e-07
-1.01448e-08
-3.44764e-07
-1.41607e-08
-3.31603e-07
-1.79961e-08
-3.15819e-07
-2.15902e-08
-2.97633e-07
-2.48815e-08
-2.77312e-07
-2.78085e-08
-2.55168e-07
-3.03105e-08
-2.31553e-07
-3.2328e-08
-2.06863e-07
-3.38045e-08
-1.81529e-07
-3.46872e-08
-1.56018e-07
-3.49283e-08
-1.30823e-07
-3.44874e-08
-1.0646e-07
-3.33327e-08
-8.34565e-08
-3.14444e-08
-6.23396e-08
-2.88183e-08
-4.36198e-08
-2.54713e-08
-2.77674e-08
-2.14514e-08
-1.51773e-08
-1.68532e-08
-6.11743e-09
-1.18463e-08
-6.45399e-10
-6.72471e-09
1.53306e-09
-1.9908e-09
1.20207e-09
1.52185e-09
2.29819e-09
9.17465e-11
-2.31545e-09
-2.37983e-09
1.26539e-09
-8.93558e-09
9.04014e-09
-2.03365e-08
1.86972e-08
-3.68097e-08
2.88738e-08
-5.82078e-08
3.87088e-08
-8.41251e-08
4.76709e-08
-1.13991e-07
5.54484e-08
-1.47134e-07
6.18706e-08
-1.82832e-07
6.68576e-08
-2.20342e-07
7.03896e-08
-2.58923e-07
7.24871e-08
-2.97853e-07
7.31976e-08
-3.36442e-07
7.25873e-08
-3.74037e-07
7.07349e-08
-4.10027e-07
6.77278e-08
-4.43851e-07
6.36592e-08
-4.74998e-07
5.86263e-08
-5.03009e-07
5.27292e-08
-5.27478e-07
4.60701e-08
-5.48057e-07
3.87533e-08
-5.64452e-07
3.08848e-08
-5.76428e-07
2.25729e-08
-5.83808e-07
1.39279e-08
-5.86476e-07
5.06288e-09
-5.8438e-07
-3.90632e-09
-5.77527e-07
-1.28608e-08
-5.65993e-07
-2.16787e-08
-5.49919e-07
-3.02353e-08
-5.29511e-07
-3.84033e-08
-5.05048e-07
-4.60539e-08
-4.76872e-07
-5.30573e-08
-4.45396e-07
-5.92841e-08
-4.11099e-07
-6.46073e-08
-3.74524e-07
-6.89037e-08
-3.36272e-07
-7.20566e-08
-2.97e-07
-7.39587e-08
-2.57414e-07
-7.45148e-08
-2.18255e-07
-7.36464e-08
-1.80291e-07
-7.12961e-08
-1.44302e-07
-6.74336e-08
-1.11056e-07
-6.20649e-08
-8.12831e-08
-5.52437e-08
-5.56446e-08
-4.709e-08
-3.4679e-08
-3.78187e-08
-1.87395e-08
-2.77858e-08
-7.90222e-09
-1.7562e-08
-1.8558e-09
-8.0372e-09
2.49399e-10
-5.83357e-10
2.54759e-09
-1.32392e-09
-9.91517e-10
-7.11681e-09
7.0583e-09
-1.85241e-08
2.04474e-08
-3.61167e-08
3.62897e-08
-6.00126e-08
5.27697e-08
-8.99689e-08
6.86652e-08
-1.25474e-07
8.31763e-08
-1.6583e-07
9.58037e-08
-2.10213e-07
1.06254e-07
-2.57731e-07
1.14376e-07
-3.07457e-07
1.20115e-07
-3.58458e-07
1.23488e-07
-4.0982e-07
1.24559e-07
-4.60658e-07
1.23426e-07
-5.10136e-07
1.20213e-07
-5.57467e-07
1.15059e-07
-6.01923e-07
1.08116e-07
-6.42842e-07
9.95446e-08
-6.79625e-07
8.95125e-08
-7.11746e-07
7.81912e-08
-7.38749e-07
6.57567e-08
-7.60253e-07
5.23888e-08
-7.75952e-07
3.82712e-08
-7.85615e-07
2.35917e-08
-7.89095e-07
8.54247e-09
-7.86322e-07
-6.67945e-09
-7.7731e-07
-2.18723e-08
-7.6216e-07
-3.68294e-08
-7.41055e-07
-5.13398e-08
-7.14269e-07
-6.5189e-08
-6.82164e-07
-7.81597e-08
-6.45187e-07
-9.00344e-08
-6.03874e-07
-1.00597e-07
-5.58846e-07
-1.09635e-07
-5.10803e-07
-1.16946e-07
-4.60522e-07
-1.22338e-07
-4.08846e-07
-1.25635e-07
-3.56675e-07
-1.26685e-07
-3.04956e-07
-1.25366e-07
-2.54659e-07
-1.21593e-07
-2.06765e-07
-1.15328e-07
-1.62232e-07
-1.06598e-07
-1.21966e-07
-9.55097e-08
-8.6778e-08
-8.22777e-08
-5.73325e-08
-6.72642e-08
-3.40809e-08
-5.10374e-08
-1.71835e-08
-3.44594e-08
-6.42228e-09
-1.87984e-08
-1.11862e-09
-5.88701e-09
1.42896e-09
-2.83777e-09
1.84627e-09
-1.22717e-08
1.64922e-08
-2.8932e-08
3.71077e-08
-5.30843e-08
6.0442e-08
-8.46415e-08
8.43269e-08
-1.23208e-07
1.07232e-07
-1.6814e-07
1.28109e-07
-2.1861e-07
1.46273e-07
-2.73658e-07
1.61302e-07
-3.32246e-07
1.72964e-07
-3.93294e-07
1.81163e-07
-4.55712e-07
1.85906e-07
-5.18425e-07
1.87272e-07
-5.80393e-07
1.85394e-07
-6.40621e-07
1.80441e-07
-6.98177e-07
1.72615e-07
-7.52195e-07
1.62133e-07
-8.01881e-07
1.49231e-07
-8.46524e-07
1.34155e-07
-8.85491e-07
1.17159e-07
-9.18239e-07
9.85038e-08
-9.44308e-07
7.84584e-08
-9.63334e-07
5.72967e-08
-9.75041e-07
3.52994e-08
-9.79253e-07
1.27541e-08
-9.75887e-07
-1.00451e-08
-9.64963e-07
-3.27966e-08
-9.466e-07
-5.51925e-08
-9.21021e-07
-7.69185e-08
-8.88554e-07
-9.76557e-08
-8.49632e-07
-1.17082e-07
-8.04791e-07
-1.34876e-07
-7.5467e-07
-1.50718e-07
-7.00009e-07
-1.64296e-07
-6.41641e-07
-1.75314e-07
-5.80488e-07
-1.83491e-07
-5.17549e-07
-1.88574e-07
-4.53887e-07
-1.90347e-07
-3.90616e-07
-1.88637e-07
-3.28877e-07
-1.83332e-07
-2.69815e-07
-1.7439e-07
-2.14551e-07
-1.61863e-07
-1.6414e-07
-1.45921e-07
-1.19533e-07
-1.26885e-07
-8.1523e-08
-1.05274e-07
-5.06898e-08
-8.18706e-08
-2.73368e-08
-5.78123e-08
-1.14358e-08
-3.46995e-08
-2.58574e-09
-1.4737e-08
-1.15678e-09
-4.32962e-09
6.17587e-09
-1.74716e-08
2.96342e-08
-3.95271e-08
5.91631e-08
-7.03945e-08
9.13095e-08
-1.09722e-07
1.23654e-07
-1.56914e-07
1.54423e-07
-2.11164e-07
1.82359e-07
-2.715e-07
2.06609e-07
-3.36826e-07
2.26629e-07
-4.0597e-07
2.42107e-07
-4.77715e-07
2.52908e-07
-5.50834e-07
2.59026e-07
-6.24116e-07
2.60555e-07
-6.96387e-07
2.57664e-07
-7.66522e-07
2.50577e-07
-8.33465e-07
2.39557e-07
-8.96232e-07
2.249e-07
-9.53924e-07
2.06923e-07
-1.00573e-06
1.85959e-07
-1.05093e-06
1.62357e-07
-1.0889e-06
1.36475e-07
-1.11912e-06
1.08681e-07
-1.14118e-06
7.93533e-08
-1.15476e-06
4.88781e-08
-1.15965e-06
1.76516e-08
-1.15578e-06
-1.3921e-08
-1.14315e-06
-4.54248e-08
-1.1219e-06
-7.64362e-08
-1.0923e-06
-1.06524e-07
-1.05471e-06
-1.35249e-07
-1.00962e-06
-1.62173e-07
-9.57638e-07
-1.86854e-07
-8.99499e-07
-2.08856e-07
-8.36038e-07
-2.27757e-07
-7.68201e-07
-2.43151e-07
-6.97029e-07
-2.54662e-07
-6.23655e-07
-2.61949e-07
-5.49278e-07
-2.64723e-07
-4.75157e-07
-2.62758e-07
-4.02579e-07
-2.5591e-07
-3.32835e-07
-2.44133e-07
-2.67191e-07
-2.27507e-07
-2.06846e-07
-2.06266e-07
-1.52891e-07
-1.80839e-07
-1.06266e-07
-1.51898e-07
-6.77111e-08
-1.20426e-07
-3.77203e-08
-8.78031e-08
-1.65152e-08
-5.59046e-08
-4.03753e-09
-2.72147e-08
-5.19432e-09
-5.75346e-09
1.19293e-08
-2.25476e-08
4.64284e-08
-4.99888e-08
8.66044e-08
-8.75916e-08
1.28912e-07
-1.34706e-07
1.70769e-07
-1.90505e-07
2.10222e-07
-2.5399e-07
2.45845e-07
-3.24029e-07
2.76647e-07
-3.9938e-07
3.0198e-07
-4.78735e-07
3.21463e-07
-5.6075e-07
3.34922e-07
-6.44073e-07
3.42348e-07
-7.27371e-07
3.43853e-07
-8.09352e-07
3.39646e-07
-8.88782e-07
3.30007e-07
-9.64497e-07
3.15273e-07
-1.03542e-06
2.95818e-07
-1.10054e-06
2.72052e-07
-1.15899e-06
2.44405e-07
-1.20996e-06
2.13327e-07
-1.25277e-06
1.79284e-07
-1.28684e-06
1.42754e-07
-1.31172e-06
1.04229e-07
-1.32705e-06
6.42116e-08
-1.33262e-06
2.32177e-08
-1.32831e-06
-1.82251e-08
-1.31416e-06
-5.95771e-08
-1.29031e-06
-1.00287e-07
-1.25704e-06
-1.39795e-07
-1.21476e-06
-1.77532e-07
-1.164e-06
-2.12927e-07
-1.10545e-06
-2.45409e-07
-1.03989e-06
-2.74415e-07
-9.68248e-07
-2.99397e-07
-8.91565e-07
-3.19834e-07
-8.10987e-07
-3.3524e-07
-7.27757e-07
-3.45179e-07
-6.43198e-07
-3.49282e-07
-5.58694e-07
-3.47263e-07
-4.75664e-07
-3.3894e-07
-3.95538e-07
-3.24259e-07
-3.1972e-07
-3.03325e-07
-2.49555e-07
-2.76431e-07
-1.86288e-07
-2.44107e-07
-1.31023e-07
-2.07162e-07
-8.46907e-08
-1.66759e-07
-4.80113e-08
-1.24483e-07
-2.1489e-08
-8.24268e-08
-5.42654e-09
-4.32772e-08
-1.06209e-08
-7.10077e-09
1.903e-08
-2.74426e-08
6.67702e-08
-6.01872e-08
1.19349e-07
-1.04473e-07
1.73198e-07
-1.5934e-07
2.25636e-07
-2.23705e-07
2.74586e-07
-2.96361e-07
3.18501e-07
-3.75994e-07
3.5628e-07
-4.61208e-07
3.87194e-07
-5.50554e-07
4.10809e-07
-6.42558e-07
4.26927e-07
-7.35751e-07
4.3554e-07
-8.28686e-07
4.36788e-07
-9.19968e-07
4.30927e-07
-1.00826e-06
4.183e-07
-1.09231e-06
3.99322e-07
-1.17095e-06
3.74456e-07
-1.24311e-06
3.44209e-07
-1.30782e-06
3.09117e-07
-1.36423e-06
2.69739e-07
-1.4116e-06
2.26656e-07
-1.44931e-06
1.80466e-07
-1.47687e-06
1.31781e-07
-1.49389e-06
8.12315e-08
-1.50013e-06
2.94603e-08
-1.49548e-06
-2.28732e-08
-1.47996e-06
-7.50951e-08
-1.45373e-06
-1.26518e-07
-1.41708e-06
-1.76442e-07
-1.37046e-06
-2.24158e-07
-1.31443e-06
-2.68954e-07
-1.24972e-06
-3.10118e-07
-1.17719e-06
-3.46949e-07
-1.09782e-06
-3.78765e-07
-1.01274e-06
-4.04916e-07
-9.23182e-07
-4.24799e-07
-8.30488e-07
-4.37873e-07
-7.36091e-07
-4.43679e-07
-6.41492e-07
-4.41862e-07
-5.48237e-07
-4.32194e-07
-4.5789e-07
-4.14607e-07
-3.71997e-07
-3.89218e-07
-2.92056e-07
-3.56372e-07
-2.19481e-07
-3.16682e-07
-1.55561e-07
-2.71082e-07
-1.01439e-07
-2.20881e-07
-5.80857e-08
-1.67836e-07
-2.63017e-08
-1.14211e-07
-6.74339e-09
-6.28355e-08
-1.73642e-08
-8.37976e-09
2.74098e-08
-3.21577e-08
9.05482e-08
-7.01009e-08
1.57292e-07
-1.2099e-07
2.24087e-07
-1.83553e-07
2.88199e-07
-2.5644e-07
3.47474e-07
-3.38219e-07
4.00279e-07
-4.27381e-07
4.45442e-07
-5.22363e-07
4.82176e-07
-6.21567e-07
5.10013e-07
-7.23389e-07
5.28749e-07
-8.26239e-07
5.38391e-07
-9.28566e-07
5.39115e-07
-1.02887e-06
5.31234e-07
-1.12574e-06
5.15164e-07
-1.21782e-06
4.91404e-07
-1.30388e-06
4.60515e-07
-1.38278e-06
4.23109e-07
-1.45349e-06
3.79832e-07
-1.51511e-06
3.31363e-07
-1.56686e-06
2.78403e-07
-1.60807e-06
2.21676e-07
-1.63821e-06
1.61924e-07
-1.65689e-06
9.99088e-08
-1.66384e-06
3.6409e-08
-1.65894e-06
-2.77775e-08
-1.6422e-06
-9.18354e-08
-1.61378e-06
-1.54933e-07
-1.574e-06
-2.16223e-07
-1.52331e-06
-2.74848e-07
-1.46232e-06
-3.29946e-07
-1.39178e-06
-3.80655e-07
-1.3126e-06
-4.26126e-07
-1.22583e-06
-4.65533e-07
-1.13266e-06
-4.98087e-07
-1.03441e-06
-5.23057e-07
-9.32494e-07
-5.39784e-07
-8.28463e-07
-5.4771e-07
-7.23925e-07
-5.464e-07
-6.20551e-07
-5.35569e-07
-5.20039e-07
-5.15118e-07
-4.24087e-07
-4.8517e-07
-3.34357e-07
-4.46101e-07
-2.52444e-07
-3.98595e-07
-1.79844e-07
-3.43682e-07
-1.17929e-07
-2.82796e-07
-6.79344e-08
-2.17831e-07
-3.09595e-08
-1.51186e-07
-7.99736e-09
-8.57976e-08
-2.53616e-08
-9.6048e-09
3.70146e-08
-3.67224e-08
1.17666e-07
-7.97667e-08
2.00336e-07
-1.37181e-07
2.81501e-07
-2.07386e-07
3.58405e-07
-2.88762e-07
4.2885e-07
-3.79638e-07
4.91155e-07
-4.78299e-07
5.44104e-07
-5.83004e-07
5.86881e-07
-6.92e-07
6.19009e-07
-8.03545e-07
6.40294e-07
-9.15931e-07
6.50776e-07
-1.0275e-06
6.50682e-07
-1.13666e-06
6.40392e-07
-1.2419e-06
6.20406e-07
-1.34181e-06
5.91318e-07
-1.43509e-06
5.53794e-07
-1.52054e-06
5.08557e-07
-1.59708e-06
4.56373e-07
-1.66376e-06
3.98046e-07
-1.71976e-06
3.34404e-07
-1.76439e-06
2.66301e-07
-1.79708e-06
1.94616e-07
-1.81742e-06
1.20247e-07
-1.82512e-06
4.41127e-08
-1.82006e-06
-3.28444e-08
-1.80223e-06
-1.09662e-07
-1.7718e-06
-1.85359e-07
-1.72909e-06
-2.58934e-07
-1.67457e-06
-3.29374e-07
-1.60885e-06
-3.95659e-07
-1.53274e-06
-4.5677e-07
-1.44716e-06
-5.11699e-07
-1.35323e-06
-5.59467e-07
-1.25218e-06
-5.99136e-07
-1.14541e-06
-6.29832e-07
-1.03442e-06
-6.50769e-07
-9.20857e-07
-6.61275e-07
-8.06437e-07
-6.6082e-07
-6.92957e-07
-6.49048e-07
-5.82258e-07
-6.25817e-07
-4.76196e-07
-5.91232e-07
-3.7661e-07
-5.45687e-07
-2.85293e-07
-4.89912e-07
-2.03961e-07
-4.25014e-07
-1.34232e-07
-3.52525e-07
-7.76126e-08
-2.7445e-07
-3.55003e-08
-1.93298e-07
-9.20508e-09
-1.12093e-07
-3.45667e-08
-1.07919e-08
4.78065e-08
-4.1178e-08
1.48052e-07
-8.92507e-08
2.48409e-07
-1.53133e-07
3.45383e-07
-2.30947e-07
4.36218e-07
-3.20797e-07
5.187e-07
-4.20768e-07
5.91126e-07
-5.28931e-07
6.52267e-07
-6.43355e-07
7.01305e-07
-7.62124e-07
7.37778e-07
-8.83355e-07
7.61525e-07
-1.00522e-06
7.72636e-07
-1.12594e-06
7.71407e-07
-1.24385e-06
7.58299e-07
-1.35735e-06
7.33909e-07
-1.46497e-06
6.98936e-07
-1.56534e-06
6.5416e-07
-1.6572e-06
6.00426e-07
-1.73946e-06
5.38626e-07
-1.8111e-06
4.69692e-07
-1.87129e-06
3.94587e-07
-1.91929e-06
3.14301e-07
-1.95452e-06
2.2985e-07
-1.97655e-06
1.42274e-07
-1.98507e-06
5.26363e-08
-1.97994e-06
-3.79733e-08
-1.96116e-06
-1.28442e-07
-1.92889e-06
-2.17634e-07
-1.88343e-06
-3.0439e-07
-1.82527e-06
-3.87536e-07
-1.75504e-06
-4.65887e-07
-1.67355e-06
-5.38258e-07
-1.58177e-06
-6.03476e-07
-1.48085e-06
-6.60394e-07
-1.37207e-06
-7.07916e-07
-1.25688e-06
-7.45014e-07
-1.13689e-06
-7.70759e-07
-1.01382e-06
-7.84347e-07
-8.89506e-07
-7.85138e-07
-7.65867e-07
-7.72688e-07
-6.44895e-07
-7.46789e-07
-5.28616e-07
-7.07511e-07
-4.19058e-07
-6.55245e-07
-3.18227e-07
-5.90744e-07
-2.28073e-07
-5.15168e-07
-1.50472e-07
-4.30126e-07
-8.72091e-08
-3.37713e-07
-3.99764e-08
-2.40531e-07
-1.03856e-08
-1.41684e-07
-4.49523e-08
-1.19567e-08
5.97631e-08
-4.55699e-08
1.81665e-07
-9.86312e-08
3.0147e-07
-1.68957e-07
4.15709e-07
-2.54374e-07
5.21635e-07
-3.52712e-07
6.17037e-07
-4.61804e-07
7.00219e-07
-5.79499e-07
7.69962e-07
-7.0367e-07
8.25475e-07
-8.32228e-07
8.66337e-07
-9.63145e-07
8.92442e-07
-1.09446e-06
9.03952e-07
-1.2243e-06
9.0125e-07
-1.3509e-06
8.84898e-07
-1.47259e-06
8.55601e-07
-1.58783e-06
8.14175e-07
-1.6952e-06
7.61528e-07
-1.79341e-06
6.98632e-07
-1.8813e-06
6.26514e-07
-1.95784e-06
5.4624e-07
-2.02217e-06
4.58912e-07
-2.07353e-06
3.6566e-07
-2.11132e-06
2.6764e-07
-2.13508e-06
1.66037e-07
-2.14451e-06
6.20588e-08
-2.13942e-06
-4.30549e-08
-2.11983e-06
-1.48038e-07
-2.08586e-06
-2.51598e-07
-2.03784e-06
-3.52415e-07
-1.97623e-06
-4.49148e-07
-1.90167e-06
-5.40442e-07
-1.81499e-06
-6.2494e-07
-1.71717e-06
-7.01291e-07
-1.60939e-06
-7.68176e-07
-1.49299e-06
-8.24323e-07
-1.36946e-06
-8.68537e-07
-1.24049e-06
-8.99727e-07
-1.1079e-06
-9.16944e-07
-9.73618e-07
-9.19416e-07
-8.39717e-07
-9.06588e-07
-7.0834e-07
-8.78166e-07
-5.81688e-07
-8.34162e-07
-4.61995e-07
-7.74938e-07
-3.51493e-07
-7.01247e-07
-2.5238e-07
-6.14281e-07
-1.66802e-07
-5.15704e-07
-9.68285e-08
-4.07686e-07
-4.4446e-08
-2.92913e-07
-1.15582e-08
-1.74571e-07
-5.65105e-08
-1.31138e-08
7.28769e-08
-4.99427e-08
2.18494e-07
-1.07989e-07
3.59517e-07
-1.8477e-07
4.9249e-07
-2.77819e-07
6.14684e-07
-3.84687e-07
7.23906e-07
-5.02954e-07
8.18486e-07
-6.30237e-07
8.97244e-07
-7.64204e-07
9.59442e-07
-9.02592e-07
1.00472e-06
-1.04322e-06
1.03307e-06
-1.18399e-06
1.04473e-06
-1.32294e-06
1.0402e-06
-1.4582e-06
1.02015e-06
-1.58802e-06
9.8543e-07
-1.71082e-06
9.36975e-07
-1.82513e-06
8.75831e-07
-1.92961e-06
8.03111e-07
-2.02307e-06
7.1998e-07
-2.10448e-06
6.27649e-07
-2.17293e-06
5.27358e-07
-2.22765e-06
4.20382e-07
-2.26803e-06
3.08018e-07
-2.29358e-06
1.91595e-07
-2.304e-06
7.24701e-08
-2.29908e-06
-4.79703e-08
-2.27881e-06
-1.68307e-07
-2.24332e-06
-2.87087e-07
-2.19291e-06
-4.02829e-07
-2.12804e-06
-5.14022e-07
-2.04934e-06
-6.19138e-07
-1.95764e-06
-7.16638e-07
-1.85394e-06
-8.04989e-07
-1.73944e-06
-8.82683e-07
-1.6155e-06
-9.48263e-07
-1.48369e-06
-1.00035e-06
-1.34574e-06
-1.03767e-06
-1.20357e-06
-1.05911e-06
-1.05924e-06
-1.06375e-06
-9.14946e-07
-1.05088e-06
-7.72992e-07
-1.02012e-06
-6.35773e-07
-9.71381e-07
-5.05739e-07
-9.04971e-07
-3.85361e-07
-8.21625e-07
-2.77102e-07
-7.2254e-07
-1.83387e-07
-6.09418e-07
-1.06581e-07
-4.84492e-07
-4.89681e-08
-3.50526e-07
-1.27415e-08
-2.10798e-07
-6.9252e-08
-1.42763e-08
8.71532e-08
-5.43386e-08
2.58556e-07
-1.17403e-07
4.22581e-07
-2.00688e-07
5.75775e-07
-3.01432e-07
7.15428e-07
-4.16905e-07
8.39379e-07
-5.44424e-07
9.46005e-07
-6.8137e-07
1.03419e-06
-8.25201e-07
1.10327e-06
-9.73469e-07
1.15299e-06
-1.12383e-06
1.18343e-06
-1.27408e-06
1.19497e-06
-1.42212e-06
1.18823e-06
-1.566e-06
1.16403e-06
-1.70392e-06
1.12335e-06
-1.83421e-06
1.06727e-06
-1.95539e-06
9.97003e-07
-2.06607e-06
9.13796e-07
-2.16506e-06
8.18968e-07
-2.25129e-06
7.13875e-07
-2.32383e-06
5.99903e-07
-2.38192e-06
4.7847e-07
-2.42492e-06
3.51017e-07
-2.45234e-06
2.19016e-07
-2.46384e-06
8.39682e-08
-2.45922e-06
-5.25907e-08
-2.43843e-06
-1.8909e-07
-2.4016e-06
-3.2392e-07
-2.34899e-06
-4.55435e-07
-2.28106e-06
-5.81955e-07
-2.19843e-06
-7.01771e-07
-2.1019e-06
-8.1316e-07
-1.9925e-06
-9.14396e-07
-1.87141e-06
-1.00377e-06
-1.74004e-06
-1.07963e-06
-1.59999e-06
-1.14039e-06
-1.45308e-06
-1.18458e-06
-1.30129e-06
-1.2109e-06
-1.14681e-06
-1.21823e-06
-9.91966e-07
-1.20573e-06
-8.39242e-07
-1.17284e-06
-6.91232e-07
-1.11939e-06
-5.50611e-07
-1.04559e-06
-4.20107e-07
-9.52129e-07
-3.0246e-07
-8.40187e-07
-2.00394e-07
-7.11485e-07
-1.16577e-07
-5.68309e-07
-5.36004e-08
-4.13503e-07
-1.3953e-08
-2.50445e-07
-8.3205e-08
-1.54558e-08
1.02609e-07
-5.87955e-08
3.01896e-07
-1.26944e-07
4.90729e-07
-2.16817e-07
6.65649e-07
-3.25353e-07
8.23964e-07
-4.49533e-07
9.63559e-07
-5.86406e-07
1.08288e-06
-7.33106e-07
1.18089e-06
-8.86874e-07
1.25704e-06
-1.04507e-06
1.31119e-06
-1.20521e-06
1.34357e-06
-1.36492e-06
1.35469e-06
-1.52202e-06
1.34534e-06
-1.67448e-06
1.31649e-06
-1.82041e-06
1.26929e-06
-1.95813e-06
1.20499e-06
-2.08608e-06
1.12496e-06
-2.20289e-06
1.0306e-06
-2.30732e-06
9.23402e-07
-2.39831e-06
8.0486e-07
-2.47492e-06
6.76513e-07
-2.53637e-06
5.39919e-07
-2.58202e-06
3.96666e-07
-2.61136e-06
2.48363e-07
-2.62405e-06
9.6656e-08
-2.61987e-06
-5.67771e-08
-2.59874e-06
-2.10216e-07
-2.56076e-06
-3.61898e-07
-2.50618e-06
-5.10014e-07
-2.43543e-06
-6.52713e-07
-2.34909e-06
-7.88106e-07
-2.24797e-06
-9.14279e-07
-2.13306e-06
-1.02931e-06
-2.00557e-06
-1.13127e-06
-1.8669e-06
-1.2183e-06
-1.71871e-06
-1.28858e-06
-1.56286e-06
-1.34044e-06
-1.40143e-06
-1.37234e-06
-1.2367e-06
-1.38296e-06
-1.07115e-06
-1.37127e-06
-9.07455e-07
-1.33654e-06
-7.48405e-07
-1.27844e-06
-5.9692e-07
-1.19708e-06
-4.55998e-07
-1.09305e-06
-3.28675e-07
-9.6751e-07
-2.17985e-07
-8.22174e-07
-1.26922e-07
-6.59372e-07
-5.83977e-08
-4.82028e-07
-1.52091e-08
-2.93634e-07
-9.84142e-08
-1.66627e-08
1.19272e-07
-6.3348e-08
3.48581e-07
-1.36679e-07
5.6406e-07
-2.33258e-07
7.62228e-07
-3.49713e-07
9.40419e-07
-4.82727e-07
1.09657e-06
-6.29069e-07
1.22922e-06
-7.8562e-07
1.33744e-06
-9.49398e-07
1.42082e-06
-1.11757e-06
1.47937e-06
-1.28748e-06
1.51347e-06
-1.45663e-06
1.52384e-06
-1.62274e-06
1.51144e-06
-1.78368e-06
1.47743e-06
-1.93753e-06
1.42313e-06
-2.08254e-06
1.35e-06
-2.21714e-06
1.25956e-06
-2.33995e-06
1.15341e-06
-2.44971e-06
1.03317e-06
-2.54537e-06
9.00513e-07
-2.62598e-06
7.57123e-07
-2.69076e-06
6.04704e-07
-2.73907e-06
4.44978e-07
-2.77041e-06
2.79696e-07
-2.78439e-06
1.10637e-07
-2.78078e-06
-6.0381e-08
-2.7595e-06
-2.31496e-07
-2.72061e-06
-4.00794e-07
-2.66431e-06
-5.66309e-07
-2.591e-06
-7.26021e-07
-2.50125e-06
-8.7786e-07
-2.39581e-06
-1.01972e-06
-2.27567e-06
-1.14945e-06
-2.142e-06
-1.26494e-06
-1.99623e-06
-1.36406e-06
-1.84004e-06
-1.44478e-06
-1.67532e-06
-1.50515e-06
-1.50424e-06
-1.54341e-06
-1.3292e-06
-1.558e-06
-1.15283e-06
-1.54765e-06
-9.77954e-07
-1.51142e-06
-8.07606e-07
-1.44879e-06
-6.44956e-07
-1.35973e-06
-4.93288e-07
-1.24472e-06
-3.55951e-07
-1.10485e-06
-2.36316e-07
-9.4181e-07
-1.37718e-07
-7.5797e-07
-6.3412e-08
-5.56333e-07
-1.65251e-08
-3.40521e-07
-1.14939e-07
-1.79059e-08
1.37178e-07
-6.80267e-08
3.98702e-07
-1.46666e-07
6.42699e-07
-2.50099e-07
8.65661e-07
-3.74626e-07
1.06495e-06
-5.1662e-07
1.23857e-06
-6.72558e-07
1.38516e-06
-8.39057e-07
1.50394e-06
-1.0129e-06
1.59466e-06
-1.19107e-06
1.65753e-06
-1.37072e-06
1.69313e-06
-1.54925e-06
1.70237e-06
-1.72425e-06
1.68644e-06
-1.89353e-06
1.64671e-06
-2.05512e-06
1.58472e-06
-2.20724e-06
1.50212e-06
-2.3483e-06
1.40063e-06
-2.47692e-06
1.28202e-06
-2.59184e-06
1.1481e-06
-2.69202e-06
1.00069e-06
-2.77652e-06
8.41628e-07
-2.84458e-06
6.7276e-07
-2.89554e-06
4.95943e-07
-2.92891e-06
3.13057e-07
-2.94428e-06
1.26012e-07
-2.94142e-06
-6.32457e-08
-2.92019e-06
-2.52718e-07
-2.88064e-06
-4.4035e-07
-2.82292e-06
-6.24023e-07
-2.74739e-06
-8.01552e-07
-2.65457e-06
-9.70686e-07
-2.54516e-06
-1.12912e-06
-2.42012e-06
-1.2745e-06
-2.28059e-06
-1.40447e-06
-2.12799e-06
-1.51666e-06
-1.964e-06
-1.60876e-06
-1.79057e-06
-1.67859e-06
-1.60992e-06
-1.72406e-06
-1.42455e-06
-1.74337e-06
-1.23724e-06
-1.73496e-06
-1.05101e-06
-1.69765e-06
-8.69112e-07
-1.63069e-06
-6.94982e-07
-1.53386e-06
-5.32211e-07
-1.40749e-06
-3.84486e-07
-1.25257e-06
-2.55533e-07
-1.07076e-06
-1.4906e-07
-8.64443e-07
-6.86923e-08
-6.36701e-07
-1.79152e-08
-3.91298e-07
-1.32854e-07
-1.91937e-08
1.56371e-07
-7.28596e-08
4.52368e-07
-1.56959e-07
7.26799e-07
-2.67419e-07
9.7612e-07
-4.00194e-07
1.19772e-06
-5.51326e-07
1.3897e-06
-7.16988e-07
1.55082e-06
-8.93523e-07
1.68048e-06
-1.07747e-06
1.77861e-06
-1.26561e-06
1.84566e-06
-1.45493e-06
1.88245e-06
-1.6427e-06
1.89014e-06
-1.82641e-06
1.87015e-06
-2.00381e-06
1.82412e-06
-2.17289e-06
1.7538e-06
-2.33184e-06
1.66107e-06
-2.47909e-06
1.54787e-06
-2.61324e-06
1.41617e-06
-2.73309e-06
1.26794e-06
-2.83757e-06
1.10518e-06
-2.92581e-06
9.2986e-07
-2.99702e-06
7.43976e-07
-3.05059e-06
5.49511e-07
-3.086e-06
3.48467e-07
-3.10286e-06
1.42871e-07
-3.1009e-06
-6.52085e-08
-3.07996e-06
-2.73651e-07
-3.04004e-06
-4.80271e-07
-2.98126e-06
-6.82806e-07
-2.9039e-06
-8.78911e-07
-2.80842e-06
-1.06616e-06
-2.69549e-06
-1.24205e-06
-2.56598e-06
-1.40402e-06
-2.421e-06
-1.54944e-06
-2.26194e-06
-1.67571e-06
-2.09047e-06
-1.78023e-06
-1.90856e-06
-1.8605e-06
-1.71849e-06
-1.91414e-06
-1.52286e-06
-1.93901e-06
-1.32457e-06
-1.93324e-06
-1.12684e-06
-1.89538e-06
-9.33151e-07
-1.82438e-06
-7.47228e-07
-1.71978e-06
-5.72981e-07
-1.58174e-06
-4.14458e-07
-1.41109e-06
-2.75773e-07
-1.20945e-06
-1.61038e-07
-9.79178e-07
-7.42852e-08
-7.23454e-07
-1.93931e-08
-4.4619e-07
-1.52247e-07
-2.05337e-08
1.76905e-07
-7.78723e-08
5.09707e-07
-1.67608e-07
8.16534e-07
-2.85289e-07
1.0938e-06
-4.26504e-07
1.33894e-06
-5.86942e-07
1.55014e-06
-7.62451e-07
1.72633e-06
-9.49085e-07
1.86711e-06
-1.14314e-06
1.97267e-06
-1.34117e-06
2.04369e-06
-1.54001e-06
2.0813e-06
-1.7368e-06
2.08693e-06
-1.92895e-06
2.0623e-06
-2.11415e-06
2.00932e-06
-2.29036e-06
1.93e-06
-2.45577e-06
1.82649e-06
-2.60882e-06
1.70092e-06
-2.74814e-06
1.55549e-06
-2.87256e-06
1.39236e-06
-2.98105e-06
1.21367e-06
-3.07277e-06
1.02158e-06
-3.14697e-06
8.18177e-07
-3.20304e-06
6.05584e-07
-3.24049e-06
3.85911e-07
-3.25891e-06
1.61291e-07
-3.25801e-06
-6.61038e-08
-3.23762e-06
-2.94043e-07
-3.19767e-06
-5.20222e-07
-3.13822e-06
-7.42249e-07
-3.05951e-06
-9.5763e-07
-2.9619e-06
-1.16377e-06
-2.84597e-06
-1.35797e-06
-2.71254e-06
-1.53745e-06
-2.56265e-06
-1.69933e-06
-2.39763e-06
-1.84073e-06
-2.21913e-06
-1.95874e-06
-2.0291e-06
-2.05052e-06
-1.82987e-06
-2.11336e-06
-1.62412e-06
-2.14476e-06
-1.41489e-06
-2.14247e-06
-1.20558e-06
-2.10469e-06
-9.99906e-07
-2.03005e-06
-8.01889e-07
-1.9178e-06
-6.15786e-07
-1.76784e-06
-4.46032e-07
-1.58085e-06
-2.97166e-07
-1.35831e-06
-1.7374e-07
-1.1026e-06
-8.02356e-08
-8.16958e-07
-2.09721e-08
-5.05454e-07
-1.7322e-07
-2.19331e-08
1.98838e-07
-8.30895e-08
5.70863e-07
-1.78658e-07
9.12103e-07
-3.03778e-07
1.21892e-06
-4.53637e-07
1.4888e-06
-6.23547e-07
1.72005e-06
-8.09011e-07
1.91179e-06
-1.00578e-06
2.06387e-06
-1.20987e-06
2.17676e-06
-1.41765e-06
2.25147e-06
-1.62579e-06
2.28943e-06
-1.83129e-06
2.29243e-06
-2.03149e-06
2.2625e-06
-2.22403e-06
2.20186e-06
-2.40688e-06
2.11285e-06
-2.57823e-06
1.99784e-06
-2.73657e-06
1.85925e-06
-2.88056e-06
1.69948e-06
-3.00908e-06
1.52088e-06
-3.12118e-06
1.32577e-06
-3.21604e-06
1.11643e-06
-3.29297e-06
8.95106e-07
-3.35138e-06
6.64003e-07
-3.39081e-06
4.25335e-07
-3.41084e-06
1.81324e-07
-3.41118e-06
-6.57673e-08
-3.3916e-06
-3.13619e-07
-3.352e-06
-5.59825e-07
-3.29237e-06
-8.01879e-07
-3.21284e-06
-1.03715e-06
-3.11372e-06
-1.2629e-06
-2.99547e-06
-1.47622e-06
-2.85881e-06
-1.67411e-06
-2.70469e-06
-1.85345e-06
-2.53436e-06
-2.01106e-06
-2.34941e-06
-2.14369e-06
-2.15178e-06
-2.24815e-06
-1.9438e-06
-2.32134e-06
-1.72822e-06
-2.36034e-06
-1.50819e-06
-2.3625e-06
-1.2873e-06
-2.32558e-06
-1.0695e-06
-2.24785e-06
-8.5912e-07
-2.12818e-06
-6.6079e-07
-1.96617e-06
-4.79361e-07
-1.76228e-06
-3.19832e-07
-1.51784e-06
-1.87247e-07
-1.23519e-06
-8.65869e-08
-9.17618e-07
-2.26651e-08
-5.69375e-07
-1.95885e-07
-2.33994e-08
2.22237e-07
-8.85362e-08
6.36e-07
-1.90155e-07
1.01372e-06
-3.22948e-07
1.35171e-06
-4.81666e-07
1.64751e-06
-6.6121e-07
1.89959e-06
-8.56711e-07
2.10729e-06
-1.06359e-06
2.27076e-06
-1.27761e-06
2.39079e-06
-1.49491e-06
2.46876e-06
-1.71198e-06
2.50651e-06
-1.92574e-06
2.50619e-06
-2.13346e-06
2.47021e-06
-2.33275e-06
2.40116e-06
-2.52159e-06
2.30168e-06
-2.69822e-06
2.17447e-06
-2.86116e-06
2.0222e-06
-3.00917e-06
1.84749e-06
-3.1412e-06
1.6529e-06
-3.25635e-06
1.44093e-06
-3.3539e-06
1.21398e-06
-3.43321e-06
9.74411e-07
-3.49373e-06
7.24529e-07
-3.53502e-06
4.66625e-07
-3.55669e-06
2.02992e-07
-3.55842e-06
-6.40414e-08
-3.53995e-06
-3.32085e-07
-3.50112e-06
-5.98657e-07
-3.44185e-06
-8.61153e-07
-3.36217e-06
-1.11683e-06
-3.26227e-06
-1.3628e-06
-3.1425e-06
-1.59598e-06
-3.00345e-06
-1.81316e-06
-2.84596e-06
-2.01095e-06
-2.67116e-06
-2.18586e-06
-2.48054e-06
-2.33431e-06
-2.276e-06
-2.4527e-06
-2.05985e-06
-2.53749e-06
-1.83487e-06
-2.58531e-06
-1.60433e-06
-2.59304e-06
-1.37197e-06
-2.55795e-06
-1.14199e-06
-2.47783e-06
-9.19038e-07
-2.35113e-06
-7.08132e-07
-2.17708e-06
-5.14579e-07
-1.95583e-06
-3.43887e-07
-1.68853e-06
-2.0164e-07
-1.37744e-06
-9.33826e-08
-1.02588e-06
-2.44851e-08
-6.38273e-07
-2.2037e-07
-2.49408e-08
2.47178e-07
-9.42392e-08
7.05299e-07
-2.0215e-07
1.12163e-06
-3.42867e-07
1.49243e-06
-5.10663e-07
1.81531e-06
-6.9999e-07
2.08892e-06
-9.05576e-07
2.31288e-06
-1.1225e-06
2.48768e-06
-1.34623e-06
2.61452e-06
-1.57269e-06
2.69522e-06
-1.79823e-06
2.73205e-06
-2.01965e-06
2.72761e-06
-2.23417e-06
2.68474e-06
-2.43943e-06
2.60642e-06
-2.63342e-06
2.49567e-06
-2.81446e-06
2.35551e-06
-2.98115e-06
2.18889e-06
-3.13235e-06
1.99869e-06
-3.26711e-06
1.78766e-06
-3.38464e-06
1.55846e-06
-3.48428e-06
1.31363e-06
-3.5655e-06
1.05562e-06
-3.6278e-06
7.86834e-07
-3.67078e-06
5.09604e-07
-3.69407e-06
2.26276e-07
-3.69733e-06
-6.07817e-08
-3.68028e-06
-3.49135e-07
-3.64268e-06
-6.36249e-07
-3.58438e-06
-9.19453e-07
-3.50531e-06
-1.19591e-06
-3.4055e-06
-1.4626e-06
-3.28518e-06
-1.7163e-06
-3.14477e-06
-1.95357e-06
-2.98495e-06
-2.17077e-06
-2.80672e-06
-2.36409e-06
-2.61144e-06
-2.52958e-06
-2.40091e-06
-2.66323e-06
-2.17738e-06
-2.76102e-06
-1.94365e-06
-2.81905e-06
-1.70305e-06
-2.83364e-06
-1.45947e-06
-2.80153e-06
-1.21737e-06
-2.71993e-06
-9.8171e-07
-2.58678e-06
-7.57924e-07
-2.40086e-06
-5.51813e-07
-2.16194e-06
-3.69441e-07
-1.87091e-06
-2.17001e-07
-1.52988e-06
-1.00667e-07
-1.14221e-06
-2.64459e-08
-7.12494e-07
-2.46816e-07
-2.65665e-08
2.73745e-07
-1.0023e-07
7.78962e-07
-2.14696e-07
1.2361e-06
-3.6361e-07
1.64134e-06
-5.40706e-07
1.99241e-06
-7.39946e-07
2.28816e-06
-9.55619e-07
2.52855e-06
-1.18243e-06
2.71449e-06
-1.41556e-06
2.84765e-06
-1.6507e-06
2.93036e-06
-1.88405e-06
2.9654e-06
-2.11234e-06
2.95589e-06
-2.33277e-06
2.90517e-06
-2.54299e-06
2.81664e-06
-2.74108e-06
2.69376e-06
-2.92544e-06
2.53988e-06
-3.09481e-06
2.35826e-06
-3.24817e-06
2.15204e-06
-3.38469e-06
1.92418e-06
-3.50372e-06
1.67749e-06
-3.60472e-06
1.41463e-06
-3.68724e-06
1.13815e-06
-3.75089e-06
8.50481e-07
-3.7953e-06
5.54013e-07
-3.82012e-06
2.51105e-07
-3.82504e-06
-5.58649e-08
-3.80973e-06
-3.64449e-07
-3.77389e-06
-6.72091e-07
-3.71725e-06
-9.76083e-07
-3.63964e-06
-1.27353e-06
-3.54094e-06
-1.5613e-06
-3.4212e-06
-1.83604e-06
-3.28066e-06
-2.09411e-06
-3.11979e-06
-2.33163e-06
-2.93942e-06
-2.54446e-06
-2.74073e-06
-2.72827e-06
-2.52538e-06
-2.87859e-06
-2.29552e-06
-2.99088e-06
-2.0539e-06
-3.06066e-06
-1.80392e-06
-3.08363e-06
-1.54957e-06
-3.05587e-06
-1.29555e-06
-2.97395e-06
-1.04716e-06
-2.83518e-06
-8.10255e-07
-2.63777e-06
-5.91176e-07
-2.38102e-06
-3.96604e-07
-2.06548e-06
-2.33411e-07
-1.69307e-06
-1.08487e-07
-1.26713e-06
-2.85621e-08
-7.92419e-07
-2.75378e-07
-2.8288e-08
3.02033e-07
-1.06544e-07
8.57218e-07
-2.27862e-07
1.35742e-06
-3.85263e-07
1.79875e-06
-5.71886e-07
2.17903e-06
-7.81143e-07
2.49741e-06
-1.00684e-06
2.75425e-06
-1.2433e-06
2.95094e-06
-1.48537e-06
3.08973e-06
-1.72853e-06
3.17352e-06
-1.96886e-06
3.20572e-06
-2.203e-06
3.19004e-06
-2.42819e-06
3.13035e-06
-2.64213e-06
3.03059e-06
-2.843e-06
2.89463e-06
-3.02936e-06
2.72623e-06
-3.20008e-06
2.52899e-06
-3.35432e-06
2.30628e-06
-3.49142e-06
2.06128e-06
-3.61088e-06
1.79695e-06
-3.71231e-06
1.51606e-06
-3.79539e-06
1.22123e-06