/*--------------------------------*- C++ -*----------------------------------*\
  =========                 |
  \\      /  F ield         | OpenFOAM: The Open Source CFD Toolbox
   \\    /   O peration     | Website:  https://openfoam.org
    \\  /    A nd           | Version:  7
     \\/     M anipulation  |
\*---------------------------------------------------------------------------*/
FoamFile
{
    version     2.0;
    format      ascii;
    class       surfaceScalarField;
    location    "0.0656";
    object      phi;
}
// * * * * * * * * * * * * * * * * * * * * * * * * * * * * * * * * * * * * * //

dimensions      [0 3 -1 0 0 0 0];

internalField   nonuniform List<scalar> 
4900
(
1.12717e-09
-1.11844e-09
2.27487e-09
-1.14751e-09
2.32791e-09
-5.31016e-11
8.93937e-10
1.43396e-09
-2.10596e-09
2.99994e-09
-6.58819e-09
4.48225e-09
-1.23903e-08
5.80209e-09
-1.93145e-08
6.92425e-09
-2.71506e-08
7.83604e-09
-3.56866e-08
8.53603e-09
-4.47156e-08
9.02899e-09
-5.40388e-08
9.32329e-09
-6.34682e-08
9.42941e-09
-7.28272e-08
9.35905e-09
-8.19519e-08
9.12472e-09
-9.06912e-08
8.7393e-09
-9.89071e-08
8.21592e-09
-1.06475e-07
7.56779e-09
-1.13283e-07
6.80818e-09
-1.19233e-07
5.95043e-09
-1.24241e-07
5.00792e-09
-1.28236e-07
3.99418e-09
-1.31159e-07
2.92296e-09
-1.32967e-07
1.80824e-09
-1.33631e-07
6.64372e-10
-1.33137e-07
-4.93893e-10
-1.31486e-07
-1.65136e-09
-1.28694e-07
-2.79235e-09
-1.24793e-07
-3.90075e-09
-1.19833e-07
-4.95997e-09
-1.1388e-07
-5.95311e-09
-1.07017e-07
-6.863e-09
-9.93444e-08
-7.67239e-09
-9.09803e-08
-8.36412e-09
-8.20589e-08
-8.92136e-09
-7.27311e-08
-9.32788e-09
-6.31628e-08
-9.56834e-09
-5.35341e-08
-9.62862e-09
-4.40379e-08
-9.49623e-09
-3.48772e-08
-9.16078e-09
-2.62626e-08
-8.61453e-09
-1.84094e-08
-7.85327e-09
-1.15317e-08
-6.87771e-09
-5.83581e-09
-5.69588e-09
-1.50765e-09
-4.32817e-09
1.31096e-09
-2.81862e-09
2.56426e-09
-1.2533e-09
2.35002e-09
2.14263e-10
1.12081e-09
1.22928e-09
1.12089e-09
1.16332e-09
-2.28161e-09
1.28689e-09
-1.27121e-09
-1.24782e-09
2.48157e-09
-7.20628e-09
7.39249e-09
-1.68162e-08
1.26098e-08
-2.99686e-08
1.76346e-08
-4.63522e-08
2.21857e-08
-6.55403e-08
2.61123e-08
-8.70446e-08
2.93403e-08
-1.10349e-07
3.18408e-08
-1.34934e-07
3.36136e-08
-1.60286e-07
3.46757e-08
-1.85913e-07
3.50562e-08
-2.11345e-07
3.47912e-08
-2.36143e-07
3.3922e-08
-2.59896e-07
3.24929e-08
-2.82231e-07
3.05503e-08
-3.02805e-07
2.81421e-08
-3.21314e-07
2.53168e-08
-3.37487e-07
2.21241e-08
-3.51094e-07
1.86141e-08
-3.61937e-07
1.48378e-08
-3.69861e-07
1.0847e-08
-3.74748e-07
6.6948e-09
-3.76519e-07
2.4355e-09
-3.75138e-07
-1.87521e-09
-3.70609e-07
-6.18004e-09
-3.62981e-07
-1.04202e-08
-3.52347e-07
-1.45352e-08
-3.38843e-07
-1.84636e-08
-3.22653e-07
-2.21426e-08
-3.04007e-07
-2.5509e-08
-2.8318e-07
-2.84998e-08
-2.60491e-07
-3.10526e-08
-2.36306e-07
-3.31069e-08
-2.11029e-07
-3.46049e-08
-1.85104e-07
-3.54929e-08
-1.5901e-07
-3.57228e-08
-1.33253e-07
-3.52536e-08
-1.0836e-07
-3.40538e-08
-8.48703e-08
-3.2104e-08
-6.33227e-08
-2.94008e-08
-4.42374e-08
-2.5963e-08
-2.80924e-08
-2.18408e-08
-1.52882e-08
-1.71324e-08
-6.0939e-09
-1.20129e-08
-5.63165e-10
-6.78407e-09
1.61306e-09
-1.96207e-09
1.24051e-09
1.60169e-09
2.36144e-09
1.14732e-10
-2.39639e-09
-2.37254e-09
1.21605e-09
-9.02281e-09
9.13191e-09
-2.06205e-08
1.89902e-08
-3.74049e-08
2.93942e-08
-5.92303e-08
3.946e-08
-8.5686e-08
4.86413e-08
-1.16191e-07
5.6617e-08
-1.5006e-07
6.32101e-08
-1.86557e-07
6.83371e-08
-2.24919e-07
7.19761e-08
-2.6439e-07
7.41469e-08
-3.04231e-07
7.48967e-08
-3.43732e-07
7.42924e-08
-3.82224e-07
7.24137e-08
-4.1908e-07
6.93493e-08
-4.53724e-07
6.51941e-08
-4.85629e-07
6.00473e-08
-5.14324e-07
5.40114e-08
-5.39391e-07
4.71912e-08
-5.6047e-07
3.96936e-08
-5.7726e-07
3.16279e-08
-5.89519e-07
2.31054e-08
-5.97064e-07
1.42401e-08
-5.99777e-07
5.1486e-09
-5.97603e-07
-4.04937e-09
-5.90552e-07
-1.32311e-08
-5.78702e-07
-2.22706e-08
-5.62197e-07
-3.10393e-08
-5.41255e-07
-3.94061e-08
-5.16159e-07
-4.72382e-08
-4.87266e-07
-5.44021e-08
-4.55001e-07
-6.07654e-08
-4.19856e-07
-6.61976e-08
-3.8239e-07
-7.05732e-08
-3.43221e-07
-7.37731e-08
-3.03026e-07
-7.56883e-08
-2.62526e-07
-7.62226e-08
-2.22483e-07
-7.52971e-08
-1.83682e-07
-7.28546e-08
-1.4692e-07
-6.88662e-08
-1.1298e-07
-6.33401e-08
-8.26099e-08
-5.63335e-08
-5.64788e-08
-4.79719e-08
-3.51334e-08
-3.84777e-08
-1.89286e-08
-2.82177e-08
-7.93463e-09
-1.7778e-08
-1.82584e-09
-8.07081e-09
2.76112e-10
-5.00331e-10
2.63757e-09
-1.3331e-09
-1.06331e-09
-7.21073e-09
7.09374e-09
-1.88162e-08
2.07374e-08
-3.67408e-08
3.69148e-08
-6.11121e-08
5.37655e-08
-9.16874e-08
7.00353e-08
-1.27948e-07
8.49019e-08
-1.69182e-07
9.78511e-08
-2.14552e-07
1.0858e-07
-2.63144e-07
1.16929e-07
-3.1401e-07
1.22842e-07
-3.66196e-07
1.26333e-07
-4.18765e-07
1.27466e-07
-4.70812e-07
1.26339e-07
-5.21476e-07
1.23078e-07
-5.6995e-07
1.17823e-07
-6.15486e-07
1.1073e-07
-6.57402e-07
1.01964e-07
-6.95085e-07
9.1694e-08
-7.27991e-07
8.00972e-08
-7.55651e-07
6.73541e-08
-7.77673e-07
5.36498e-08
-7.93741e-07
3.91735e-08
-8.0362e-07
2.41188e-08
-8.07156e-07
8.68436e-09
-8.04279e-07
-6.92657e-09
-7.95004e-07
-2.25055e-08
-7.79436e-07
-3.78392e-08
-7.57765e-07
-5.27099e-08
-7.30275e-07
-6.68965e-08
-6.97337e-07
-8.01755e-08
-6.59416e-07
-9.23232e-08
-6.17064e-07
-1.03118e-07
-5.70919e-07
-1.12343e-07
-5.21703e-07
-1.19789e-07
-4.70213e-07
-1.25263e-07
-4.17316e-07
-1.28586e-07
-3.63935e-07
-1.29603e-07
-3.11039e-07
-1.28193e-07
-2.59624e-07
-1.2427e-07
-2.10689e-07
-1.17801e-07
-1.65214e-07
-1.08815e-07
-1.24122e-07
-9.74252e-08
-8.82387e-08
-8.38554e-08
-5.82365e-08
-6.848e-08
-3.45698e-08
-5.18843e-08
-1.73944e-08
-3.49534e-08
-6.4781e-09
-1.89871e-08
-1.1179e-09
-5.86055e-09
1.51968e-09
-2.88149e-09
1.81823e-09
-1.24831e-08
1.66953e-08
-2.94605e-08
3.77148e-08
-5.40937e-08
6.1548e-08
-8.63006e-08
8.59724e-08
-1.25683e-07
1.09417e-07
-1.71586e-07
1.30805e-07
-2.23167e-07
1.49432e-07
-2.79448e-07
1.6486e-07
-3.39367e-07
1.76848e-07
-4.01821e-07
1.85296e-07
-4.65694e-07
1.90206e-07
-5.29884e-07
1.91656e-07
-5.93325e-07
1.8978e-07
-6.54997e-07
1.8475e-07
-7.13942e-07
1.76768e-07
-7.69269e-07
1.66058e-07
-8.20166e-07
1.5286e-07
-8.65897e-07
1.37425e-07
-9.05813e-07
1.20014e-07
-9.39354e-07
1.00895e-07
-9.66048e-07
8.0344e-08
-9.85519e-07
5.86439e-08
-9.97484e-07
3.60842e-08
-1.00176e-06
1.29614e-08
-9.98267e-07
-1.04204e-08
-9.87023e-07
-3.37501e-08
-9.68152e-07
-5.67096e-08
-9.41887e-07
-7.89749e-08
-9.08567e-07
-1.00217e-07
-8.68637e-07
-1.20105e-07
-8.22652e-07
-1.38308e-07
-7.71272e-07
-1.54498e-07
-7.15256e-07
-1.68358e-07
-6.55464e-07
-1.79582e-07
-5.92842e-07
-1.87885e-07
-5.28415e-07
-1.93012e-07
-4.63275e-07
-1.94743e-07
-3.98562e-07
-1.92906e-07
-3.35444e-07
-1.87388e-07
-2.75092e-07
-1.78153e-07
-2.18648e-07
-1.65258e-07
-1.6719e-07
-1.48883e-07
-1.21684e-07
-1.29362e-07
-8.29344e-08
-1.0723e-07
-5.15256e-08
-8.32931e-08
-2.77592e-08
-5.87198e-08
-1.1596e-08
-3.51502e-08
-2.6155e-09
-1.4841e-08
-1.09582e-09
-4.40891e-09
6.22713e-09
-1.78054e-08
3.00918e-08
-4.03028e-08
6.02121e-08
-7.18054e-08
9.30505e-08
-1.1196e-07
1.26127e-07
-1.60163e-07
1.57621e-07
-2.15596e-07
1.86239e-07
-2.77268e-07
2.11104e-07
-3.44061e-07
2.31654e-07
-4.14777e-07
2.47564e-07
-4.88172e-07
2.58691e-07
-5.62991e-07
2.65025e-07
-6.37994e-07
2.66659e-07
-7.11976e-07
2.63761e-07
-7.83784e-07
2.56558e-07
-8.52334e-07
2.45317e-07
-9.16615e-07
2.30339e-07
-9.75702e-07
2.11947e-07
-1.02876e-06
1.90483e-07
-1.07505e-06
1.66304e-07
-1.11393e-06
1.39778e-07
-1.14487e-06
1.11284e-07
-1.16744e-06
8.12105e-08
-1.18131e-06
4.99569e-08
-1.18628e-06
1.79318e-08
-1.18226e-06
-1.44462e-08
-1.16926e-06
-4.67489e-08
-1.14743e-06
-7.85391e-08
-1.11703e-06
-1.09371e-07
-1.07845e-06
-1.38795e-07
-1.0322e-06
-1.66357e-07
-9.78907e-07
-1.91604e-07
-9.19315e-07
-2.1409e-07
-8.5429e-07
-2.33382e-07
-7.84806e-07
-2.49066e-07
-7.11933e-07
-2.60758e-07
-6.36831e-07
-2.68114e-07
-5.60735e-07
-2.7084e-07
-4.84929e-07
-2.68712e-07
-4.10733e-07
-2.61585e-07
-3.39465e-07
-2.49421e-07
-2.72417e-07
-2.32307e-07
-2.1081e-07
-2.1049e-07
-1.55756e-07
-1.84416e-07
-1.08208e-07
-1.54778e-07
-6.89122e-08
-1.22589e-07
-3.83664e-08
-8.92657e-08
-1.67857e-08
-5.67309e-08
-4.09914e-09
-2.75276e-08
-5.19496e-09
-5.86723e-09
1.20943e-08
-2.30016e-08
4.72262e-08
-5.10088e-08
8.82193e-08
-8.93995e-08
1.31441e-07
-1.37516e-07
1.74244e-07
-1.94517e-07
2.14622e-07
-2.59389e-07
2.51111e-07
-3.30976e-07
2.82691e-07
-4.08014e-07
3.08691e-07
-4.89164e-07
3.28715e-07
-5.73053e-07
3.4258e-07
-6.58298e-07
3.50271e-07
-7.43536e-07
3.51896e-07
-8.27441e-07
3.47667e-07
-9.08748e-07
3.37865e-07
-9.86262e-07
3.22832e-07
-1.05887e-06
3.02949e-07
-1.12556e-06
2.78634e-07
-1.1854e-06
2.50328e-07
-1.23759e-06
2.18491e-07
-1.28142e-06
1.83603e-07
-1.31629e-06
1.46154e-07
-1.34173e-06
1.06652e-07
-1.35739e-06
6.56157e-08
-1.36303e-06
2.3577e-08
-1.35856e-06
-1.89192e-08
-1.34399e-06
-6.13157e-08
-1.31949e-06
-1.03044e-07
-1.28533e-06
-1.43526e-07
-1.24195e-06
-1.82176e-07
-1.1899e-06
-2.18407e-07
-1.12987e-06
-2.51631e-07
-1.06269e-06
-2.81272e-07
-9.89305e-07
-3.0677e-07
-9.10779e-07
-3.27592e-07
-8.28293e-07
-3.43244e-07
-7.43124e-07
-3.53283e-07
-6.56626e-07
-3.57337e-07
-5.70217e-07
-3.5512e-07
-4.8535e-07
-3.46453e-07
-4.03482e-07
-3.31288e-07
-3.26049e-07
-3.0974e-07
-2.54419e-07
-2.8212e-07
-1.89859e-07
-2.48976e-07
-1.33491e-07
-2.11146e-07
-8.62555e-08
-1.69824e-07
-4.88799e-08
-1.26641e-07
-2.18685e-08
-8.37423e-08
-5.5193e-09
-4.38768e-08
-1.07143e-08
-7.24674e-09
1.93411e-08
-2.80102e-08
6.79897e-08
-6.14394e-08
1.21648e-07
-1.06659e-07
1.76661e-07
-1.62695e-07
2.30279e-07
-2.28444e-07
2.80371e-07
-3.02678e-07
3.25345e-07
-3.84059e-07
3.64071e-07
-4.71161e-07
3.95793e-07
-5.62505e-07
4.2006e-07
-6.56587e-07
4.36662e-07
-7.51902e-07
4.45585e-07
-8.46972e-07
4.46966e-07
-9.40365e-07
4.4106e-07
-1.03071e-06
4.28214e-07
-1.11673e-06
4.08848e-07
-1.19721e-06
3.83435e-07
-1.27107e-06
3.5249e-07
-1.33731e-06
3.16563e-07
-1.39504e-06
2.76227e-07
-1.44352e-06
2.32078e-07
-1.48209e-06
1.84731e-07
-1.51026e-06
1.34818e-07
-1.52763e-06
8.29873e-08
-1.53396e-06
2.99036e-08
-1.52912e-06
-2.37526e-08
-1.51315e-06
-7.72859e-08
-1.48621e-06
-1.29987e-07
-1.4486e-06
-1.81134e-07
-1.40078e-06
-2.29997e-07
-1.34335e-06
-2.75843e-07
-1.27704e-06
-3.17942e-07
-1.20273e-06
-3.55576e-07
-1.12146e-06
-3.88045e-07
-1.03436e-06
-4.14689e-07
-9.42713e-07
-4.34892e-07
-8.4789e-07
-4.48106e-07
-7.5136e-07
-4.53867e-07
-6.54659e-07
-4.51822e-07
-5.59367e-07
-4.41745e-07
-4.67079e-07
-4.23576e-07
-3.79375e-07
-3.97445e-07
-2.97779e-07
-3.63716e-07
-2.23727e-07
-3.23027e-07
-1.58533e-07
-2.7634e-07
-1.03352e-07
-2.25005e-07
-5.91667e-08
-1.70827e-07
-2.67846e-08
-1.16124e-07
-6.86528e-09
-6.37961e-08
-1.75795e-08
-8.55497e-09
2.7896e-08
-3.28295e-08
9.22643e-08
-7.1567e-08
1.60386e-07
-1.23526e-07
2.2862e-07
-1.87411e-07
2.94165e-07
-2.61851e-07
3.5481e-07
-3.45384e-07
4.08878e-07
-4.36474e-07
4.55161e-07
-5.33526e-07
4.92845e-07
-6.34912e-07
5.21445e-07
-7.38992e-07
5.40742e-07
-8.44141e-07
5.50735e-07
-9.48772e-07
5.51597e-07
-1.05135e-06
5.43641e-07
-1.15043e-06
5.27287e-07
-1.24462e-06
5.0304e-07
-1.33266e-06
4.71473e-07
-1.41337e-06
4.33208e-07
-1.48572e-06
3.88906e-07
-1.54875e-06
3.39264e-07
-1.60168e-06
2.85002e-07
-1.64381e-06
2.26864e-07
-1.67461e-06
1.65614e-07
-1.69366e-06
1.02039e-07
-1.7007e-06
3.6941e-08
-1.69559e-06
-2.88556e-08
-1.67837e-06
-9.45094e-08
-1.6492e-06
-1.59162e-07
-1.60839e-06
-2.21941e-07
-1.55642e-06
-2.81964e-07
-1.49392e-06
-3.38343e-07
-1.42167e-06
-3.90194e-07
-1.3406e-06
-4.36647e-07
-1.25179e-06
-4.76857e-07
-1.15645e-06
-5.10021e-07
-1.05595e-06
-5.35394e-07
-9.51749e-07
-5.52309e-07
-8.45415e-07
-5.60202e-07
-7.38599e-07
-5.58637e-07
-6.33009e-07
-5.47335e-07
-5.30378e-07
-5.26207e-07
-4.32436e-07
-4.95387e-07
-3.40876e-07
-4.55276e-07
-2.57319e-07
-4.06584e-07
-1.83285e-07
-3.50374e-07
-1.20165e-07
-2.88125e-07
-6.92119e-08
-2.2178e-07
-3.15374e-08
-1.53799e-07
-8.14571e-09
-8.71878e-08
-2.57252e-08
-9.80586e-09
3.77019e-08
-3.74869e-08
1.19945e-07
-8.14239e-08
2.04323e-07
-1.40029e-07
2.87225e-07
-2.11696e-07
3.65832e-07
-2.94773e-07
4.37887e-07
-3.8756e-07
5.01664e-07
-4.88309e-07
5.5591e-07
-5.95246e-07
5.99782e-07
-7.06583e-07
6.32782e-07
-8.20542e-07
6.54701e-07
-9.35377e-07
6.6557e-07
-1.04939e-06
6.65614e-07
-1.16096e-06
6.55212e-07
-1.26855e-06
6.34868e-07
-1.37069e-06
6.05185e-07
-1.46606e-06
5.66841e-07
-1.55342e-06
5.20572e-07
-1.63168e-06
4.67163e-07
-1.69985e-06
4.07435e-07
-1.75709e-06
3.42241e-07
-1.80268e-06
2.72459e-07
-1.83606e-06
1.98993e-07
-1.85679e-06
1.22769e-07
-1.86459e-06
4.47374e-08
-1.85931e-06
-3.41314e-08
-1.84098e-06
-1.12844e-07
-1.80975e-06
-1.90387e-07
-1.76597e-06
-2.65731e-07
-1.7101e-06
-3.37832e-07
-1.6428e-06
-4.05641e-07
-1.56488e-06
-4.68113e-07
-1.47731e-06
-5.24216e-07
-1.38122e-06
-5.72948e-07
-1.27789e-06
-6.13354e-07
-1.16873e-06
-6.44545e-07
-1.05532e-06
-6.65726e-07
-9.39304e-07
-6.76216e-07
-8.22455e-07
-6.75486e-07
-7.06604e-07
-6.63186e-07
-5.93628e-07
-6.39182e-07
-4.85418e-07
-6.03597e-07
-3.83846e-07
-5.56849e-07
-2.90733e-07
-4.99696e-07
-2.07824e-07
-4.33284e-07
-1.36759e-07
-3.5919e-07
-7.90666e-08
-2.79472e-07
-3.61632e-08
-1.96702e-07
-9.37687e-09
-1.13974e-07
-3.51021e-08
-1.10151e-08
4.8717e-08
-4.20224e-08
1.50953e-07
-9.10729e-08
2.53373e-07
-1.56252e-07
3.52405e-07
-2.35647e-07
4.45226e-07
-3.27327e-07
5.29567e-07
-4.29343e-07
6.0368e-07
-5.3973e-07
6.66297e-07
-6.56522e-07
7.16574e-07
-7.77765e-07
7.54025e-07
-9.01539e-07
7.78475e-07
-1.02597e-06
7.90005e-07
-1.14927e-06
7.88907e-07
-1.2697e-06
7.75643e-07
-1.38564e-06
7.50815e-07
-1.49559e-06
7.1513e-07
-1.59813e-06
6.69384e-07
-1.692e-06
6.14436e-07
-1.77603e-06
5.51199e-07
-1.84922e-06
4.80627e-07
-1.91069e-06
4.03709e-07
-1.9597e-06
3.21465e-07
-1.99564e-06
2.34939e-07
-2.01808e-06
1.45204e-07
-2.0267e-06
5.3358e-08
-2.02136e-06
-3.94761e-08
-2.00205e-06
-1.3215e-07
-1.96895e-06
-2.2349e-07
-1.92237e-06
-3.12305e-07
-1.86282e-06
-3.97386e-07
-1.79094e-06
-4.77515e-07
-1.70758e-06
-5.51476e-07
-1.61373e-06
-6.18068e-07
-1.51056e-06
-6.76121e-07
-1.39939e-06
-7.24516e-07
-1.28173e-06
-7.6221e-07
-1.1592e-06
-7.88259e-07
-1.03356e-06
-8.01856e-07
-9.06683e-07
-8.02358e-07
-7.80543e-07
-7.89326e-07
-6.57161e-07
-7.62564e-07
-5.38599e-07
-7.22159e-07
-4.2692e-07
-6.68528e-07
-3.24161e-07
-6.02455e-07
-2.32304e-07
-5.2514e-07
-1.53253e-07
-4.38241e-07
-8.88167e-08
-3.43908e-07
-4.0713e-08
-2.44806e-07
-1.05776e-08
-1.44109e-07
-4.56797e-08
-1.21983e-08
6.09152e-08
-4.64802e-08
1.85235e-07
-1.0059e-07
3.07483e-07
-1.72299e-07
4.24115e-07
-2.59395e-07
5.32322e-07
-3.59668e-07
6.2984e-07
-4.70914e-07
7.14926e-07
-5.90942e-07
7.86326e-07
-7.17588e-07
8.43219e-07
-8.48725e-07
8.85163e-07
-9.82286e-07
9.12036e-07
-1.11627e-06
9.23992e-07
-1.24878e-06
9.21409e-07
-1.37798e-06
9.0485e-07
-1.50219e-06
8.75027e-07
-1.61983e-06
8.32767e-07
-1.72944e-06
7.78992e-07
-1.8297e-06
7.14693e-07
-1.91942e-06
6.40919e-07
-1.99755e-06
5.58763e-07
-2.0632e-06
4.69356e-07
-2.11559e-06
3.73858e-07
-2.15412e-06
2.73462e-07
-2.1783e-06
1.69387e-07
-2.18782e-06
6.28817e-08
-2.18252e-06
-4.47769e-08
-2.16239e-06
-1.52283e-07
-2.12758e-06
-2.58302e-07
-2.07841e-06
-3.61475e-07
-2.01537e-06
-4.60424e-07
-1.93913e-06
-5.53757e-07
-1.85052e-06
-6.40081e-07
-1.75057e-06
-7.18016e-07
-1.64048e-06
-7.86213e-07
-1.52162e-06
-8.43376e-07
-1.39554e-06
-8.88293e-07
-1.26394e-06
-9.19858e-07
-1.12868e-06
-9.37115e-07
-9.9175e-07
-9.39289e-07
-8.55245e-07
-9.25832e-07
-7.21349e-07
-8.9646e-07
-5.92305e-07
-8.51204e-07
-4.7038e-07
-7.90452e-07
-3.57841e-07
-7.14994e-07
-2.56921e-07
-6.2606e-07
-1.69796e-07
-5.25367e-07
-9.85653e-08
-4.15139e-07
-4.52444e-08
-2.98127e-07
-1.17671e-08
-1.77587e-07
-5.74468e-08
-1.33696e-08
7.42848e-08
-5.09042e-08
2.22769e-07
-1.10053e-07
3.66631e-07
-1.88284e-07
5.02346e-07
-2.83086e-07
6.27124e-07
-3.91968e-07
7.38722e-07
-5.12469e-07
8.35426e-07
-6.42165e-07
9.16022e-07
-7.78685e-07
9.7974e-07
-9.19726e-07
1.0262e-06
-1.06307e-06
1.05538e-06
-1.20658e-06
1.0675e-06
-1.34824e-06
1.06307e-06
-1.48616e-06
1.04277e-06
-1.61856e-06
1.00743e-06
-1.74381e-06
9.58009e-07
-1.86039e-06
8.95575e-07
-1.96695e-06
8.21257e-07
-2.06228e-06
7.36248e-07
-2.1453e-06
6.41785e-07
-2.21509e-06
5.39143e-07
-2.27086e-06
4.2963e-07
-2.31199e-06
3.14584e-07
-2.33797e-06
1.95374e-07
-2.34849e-06
7.33986e-08
-2.34336e-06
-4.99112e-08
-2.32255e-06
-1.73091e-07
-2.2862e-06
-2.94645e-07
-2.23463e-06
-4.13046e-07
-2.16832e-06
-5.26742e-07
-2.08791e-06
-6.34163e-07
-1.99426e-06
-7.33731e-07
-1.8884e-06
-8.23879e-07
-1.77154e-06
-9.03068e-07
-1.64511e-06
-9.69814e-07
-1.51068e-06
-1.02272e-06
-1.37005e-06
-1.06049e-06
-1.22516e-06
-1.08201e-06
-1.07811e-06
-1.08634e-06
-9.31131e-07
-1.07281e-06
-7.8658e-07
-1.04101e-06
-6.46887e-07
-9.90897e-07
-5.14537e-07
-9.22802e-07
-3.92038e-07
-8.37492e-07
-2.81889e-07
-7.36209e-07
-1.86551e-07
-6.20705e-07
-1.08421e-07
-4.93269e-07
-4.98159e-08
-3.56732e-07
-1.29639e-08
-2.14439e-07
-7.04107e-08
-1.4542e-08
8.88268e-08
-5.53353e-08
2.63563e-07
-1.19538e-07
4.30834e-07
-2.04318e-07
5.87125e-07
-3.06864e-07
7.2967e-07
-4.24402e-07
8.5626e-07
-5.54205e-07
9.6523e-07
-6.93613e-07
1.05543e-06
-8.40042e-07
1.12617e-06
-9.91005e-07
1.17717e-06
-1.14412e-06
1.20849e-06
-1.29714e-06
1.22052e-06
-1.44792e-06
1.21386e-06
-1.59449e-06
1.18934e-06
-1.735e-06
1.14794e-06
-1.86776e-06
1.09077e-06
-1.99123e-06
1.01904e-06
-2.10401e-06
9.34042e-07
-2.20487e-06
8.3711e-07
-2.29272e-06
7.29634e-07
-2.36662e-06
6.13038e-07
-2.42576e-06
4.88776e-07
-2.46951e-06
3.58334e-07
-2.49737e-06
2.23228e-07
-2.50898e-06
8.50071e-08
-2.50414e-06
-5.47463e-08
-2.48282e-06
-1.94412e-07
-2.44513e-06
-3.32331e-07
-2.39137e-06
-4.66809e-07
-2.322e-06
-5.96119e-07
-2.23765e-06
-7.18508e-07
-2.13917e-06
-8.32209e-07
-2.02759e-06
-9.35459e-07
-1.90414e-06
-1.02652e-06
-1.77026e-06
-1.1037e-06
-1.62758e-06
-1.16539e-06
-1.47796e-06
-1.21012e-06
-1.32341e-06
-1.23655e-06
-1.16617e-06
-1.24359e-06
-1.0086e-06
-1.23037e-06
-8.53235e-07
-1.19638e-06
-7.02696e-07
-1.14144e-06
-5.59702e-07
-1.0658e-06
-4.2702e-07
-9.70175e-07
-3.07427e-07
-8.55802e-07
-2.03683e-07
-7.24449e-07
-1.18493e-07
-5.78459e-07
-5.44847e-08
-4.2074e-07
-1.41854e-08
-2.54738e-07
-8.45961e-08
-1.57271e-08
1.04554e-07
-5.98113e-08
3.07647e-07
-1.29117e-07
5.00139e-07
-2.20506e-07
6.78515e-07
-3.30866e-07
8.40031e-07
-4.57132e-07
9.82526e-07
-5.96307e-07
1.1044e-06
-7.45483e-07
1.20461e-06
-9.01861e-07
1.28255e-06
-1.06276e-06
1.33807e-06
-1.22565e-06
1.37138e-06
-1.38813e-06
1.383e-06
-1.54798e-06
1.3737e-06
-1.70312e-06
1.34447e-06
-1.85164e-06
1.29646e-06
-1.9918e-06
1.23094e-06
-2.12204e-06
1.14928e-06
-2.24094e-06
1.05294e-06
-2.34724e-06
9.43408e-07
-2.43984e-06
8.22234e-07
-2.51779e-06
6.9099e-07
-2.58029e-06
5.5128e-07
-2.62669e-06
4.04733e-07
-2.65647e-06
2.53012e-07
-2.66928e-06
9.78104e-08
-2.66488e-06
-5.91392e-08
-2.64323e-06
-2.16064e-07
-2.60442e-06
-3.71147e-07
-2.5487e-06
-5.22528e-07
-2.47651e-06
-6.68303e-07
-2.38848e-06
-8.06536e-07
-2.28543e-06
-9.35266e-07
-2.16836e-06
-1.05252e-06
-2.03852e-06
-1.15636e-06
-1.89736e-06
-1.24486e-06
-1.74655e-06
-1.3162e-06
-1.58799e-06
-1.36868e-06
-1.4238e-06
-1.40074e-06
-1.2563e-06
-1.41108e-06
-1.08803e-06
-1.39865e-06
-9.21666e-07
-1.36274e-06
-7.60066e-07
-1.30304e-06
-6.06182e-07
-1.21968e-06
-4.63052e-07
-1.11331e-06
-3.3375e-07
-9.85103e-07
-2.21351e-07
-8.36848e-07
-1.28886e-07
-6.70925e-07
-5.93054e-08
-4.9032e-07
-1.5448e-08
-2.98596e-07
-1.00044e-07
-1.69348e-08
1.21489e-07
-6.43658e-08
3.55078e-07
-1.38854e-07
5.74627e-07
-2.36946e-07
7.76607e-07
-3.55219e-07
9.58304e-07
-4.90308e-07
1.11761e-06
-6.38937e-07
1.25303e-06
-7.97946e-07
1.36361e-06
-9.64308e-07
1.44891e-06
-1.13515e-06
1.50892e-06
-1.30778e-06
1.54401e-06
-1.47967e-06
1.55489e-06
-1.64848e-06
1.54252e-06
-1.81207e-06
1.50806e-06
-1.96846e-06
1.45285e-06
-2.11588e-06
1.37836e-06
-2.25274e-06
1.28613e-06
-2.37759e-06
1.17779e-06
-2.4892e-06
1.05501e-06
-2.58644e-06
9.19476e-07
-2.66837e-06
7.72924e-07
-2.73419e-06
6.17103e-07
-2.78325e-06
4.53788e-07
-2.81502e-06
2.84779e-07
-2.82912e-06
1.11913e-07
-2.82532e-06
-6.29374e-08
-2.80353e-06
-2.37851e-07
-2.76382e-06
-4.10857e-07
-2.70642e-06
-5.79933e-07
-2.63172e-06
-7.43003e-07
-2.54031e-06
-8.97944e-07
-2.43298e-06
-1.0426e-06
-2.31072e-06
-1.17478e-06
-2.17475e-06
-1.29233e-06
-2.02653e-06
-1.39308e-06
-1.86776e-06
-1.47498e-06
-1.70037e-06
-1.53606e-06
-1.52657e-06
-1.57454e-06
-1.3488e-06
-1.58886e-06
-1.16971e-06
-1.57773e-06
-9.92193e-07
-1.54026e-06
-8.19305e-07
-1.47592e-06
-6.54261e-07
-1.38472e-06
-5.00384e-07
-1.26718e-06
-3.61065e-07
-1.12442e-06
-2.39711e-07
-9.58202e-07
-1.39701e-07
-7.70935e-07
-6.43297e-08
-5.65691e-07
-1.67668e-08
-3.46158e-07
-1.16811e-07
-1.81743e-08
1.39663e-07
-6.90293e-08
4.05933e-07
-1.48806e-07
6.54404e-07
-2.53725e-07
8.81526e-07
-3.80035e-07
1.08461e-06
-5.24061e-07
1.26164e-06
-6.82237e-07
1.41121e-06
-8.51137e-07
1.53251e-06
-1.02751e-06
1.62528e-06
-1.20828e-06
1.68969e-06
-1.39058e-06
1.72632e-06
-1.57177e-06
1.73608e-06
-1.74941e-06
1.72015e-06
-1.92126e-06
1.67991e-06
-2.08532e-06
1.61691e-06
-2.23979e-06
1.53282e-06
-2.38304e-06
1.42938e-06
-2.51364e-06
1.3084e-06
-2.63036e-06
1.17172e-06
-2.73208e-06
1.0212e-06
-2.81787e-06
8.58717e-07
-2.88694e-06
6.86174e-07
-2.93863e-06
5.05479e-07
-2.97242e-06
3.1857e-07
-2.98793e-06
1.27414e-07
-2.98488e-06
-6.598e-08
-2.96318e-06
-2.59554e-07
-2.92285e-06
-4.5119e-07
-2.86407e-06
-6.38711e-07
-2.7872e-06
-8.1987e-07
-2.69278e-06
-9.92363e-07
-2.58155e-06
-1.15383e-06
-2.45446e-06
-1.30187e-06
-2.31271e-06
-1.43408e-06
-2.15773e-06
-1.54806e-06
-1.99123e-06
-1.64147e-06
-1.8152e-06
-1.71209e-06
-1.6319e-06
-1.75784e-06
-1.44386e-06
-1.77689e-06
-1.2539e-06
-1.76769e-06
-1.06508e-06
-1.72908e-06
-8.80686e-07
-1.66032e-06
-7.04199e-07
-1.56121e-06
-5.3925e-07
-1.43213e-06
-3.89563e-07
-1.27411e-06
-2.58908e-07
-1.08886e-06
-1.51033e-07
-8.7881e-07
-6.96067e-08
-6.47118e-07
-1.81564e-08
-3.97609e-07
-1.34967e-07
-1.94536e-08
1.59116e-07
-7.38293e-08
4.60308e-07
-1.59028e-07
7.39603e-07
-2.70921e-07
9.93418e-07
-4.05414e-07
1.21911e-06
-5.58504e-07
1.41473e-06
-7.26319e-07
1.57902e-06
-9.05162e-07
1.71136e-06
-1.09154e-06
1.81165e-06
-1.28217e-06
1.88032e-06
-1.47404e-06
1.91819e-06
-1.66436e-06
1.9264e-06
-1.8506e-06
1.90639e-06
-2.03047e-06
1.85978e-06
-2.20192e-06
1.78836e-06
-2.36312e-06
1.69402e-06
-2.51246e-06
1.57873e-06
-2.64853e-06
1.44447e-06
-2.77008e-06
1.29327e-06
-2.87605e-06
1.12717e-06
-2.96553e-06
9.48189e-07
-3.03772e-06
7.58368e-07
-3.09199e-06
5.59752e-07
-3.12782e-06
3.54401e-07
-3.14482e-06
1.44406e-07
-3.1427e-06
-6.81006e-08
-3.12132e-06
-2.80934e-07
-3.08066e-06
-4.91841e-07
-3.02088e-06
-6.98497e-07
-2.94225e-06
-8.98495e-07
-2.84527e-06
-1.08935e-06
-2.7306e-06
-1.2685e-06
-2.59914e-06
-1.43333e-06
-2.45204e-06
-1.58118e-06
-2.29071e-06
-1.70939e-06
-2.11684e-06
-1.81534e-06
-1.93244e-06
-1.89649e-06
-1.73982e-06
-1.95046e-06
-1.54162e-06
-1.9751e-06
-1.34077e-06
-1.96854e-06
-1.14054e-06
-1.92931e-06
-9.44436e-07
-1.85642e-06
-7.56226e-07
-1.74942e-06
-5.7986e-07
-1.6085e-06
-4.19426e-07
-1.43454e-06
-2.7908e-07
-1.2292e-06
-1.62974e-07
-9.94916e-07
-7.51829e-08
-7.34909e-07
-1.96302e-08
-4.53162e-07
-1.54597e-07
-2.07803e-08
1.79897e-07
-7.87915e-08
5.1832e-07
-1.69568e-07
8.30379e-07
-2.88605e-07
1.11246e-06
-4.31445e-07
1.36195e-06
-5.93732e-07
1.57702e-06
-7.71274e-07
1.75657e-06
-9.60087e-07
1.90017e-06
-1.15643e-06
2.00799e-06
-1.35682e-06
2.08071e-06
-1.55807e-06
2.11943e-06
-1.75727e-06
2.1256e-06
-1.9518e-06
2.10092e-06
-2.13932e-06
2.0473e-06
-2.31777e-06
1.9668e-06
-2.4853e-06
1.86156e-06
-2.64032e-06
1.73375e-06
-2.78145e-06
1.5856e-06
-2.90749e-06
1.41931e-06
-3.01739e-06
1.23707e-06
-3.11028e-06
1.04108e-06
-3.18541e-06
8.335e-07
-3.24216e-06
6.165e-07
-3.28001e-06
3.92255e-07
-3.29857e-06
1.62965e-07
-3.29754e-06
-6.91295e-08
-3.27675e-06
-3.0173e-07
-3.23613e-06
-5.32463e-07
-3.17575e-06
-7.58869e-07
-3.09586e-06
-9.7839e-07
-2.99684e-06
-1.18837e-06
-2.8793e-06
-1.38605e-06
-2.74405e-06
-1.56858e-06
-2.59217e-06
-1.73306e-06
-2.42501e-06
-1.87655e-06
-2.24425e-06
-1.9961e-06
-2.05188e-06
-2.08886e-06
-1.85024e-06
-2.1521e-06
-1.64206e-06
-2.18328e-06
-1.4304e-06
-2.18019e-06
-1.21871e-06
-2.14101e-06
-1.01074e-06
-2.0644e-06
-8.10534e-07
-1.94962e-06
-6.22404e-07
-1.79663e-06
-4.50818e-07
-1.60613e-06
-3.00355e-07
-1.37967e-06
-1.75608e-07
-1.11966e-06
-8.11032e-08
-8.29414e-07
-2.12015e-08
-5.13063e-07
-1.75799e-07
-2.21617e-08
2.02058e-07
-8.39408e-08
5.80099e-07
-1.80472e-07
9.2691e-07
-3.06846e-07
1.23883e-06
-4.58207e-07
1.51331e-06
-6.29827e-07
1.74864e-06
-8.1717e-07
1.94391e-06
-1.01595e-06
2.09895e-06
-1.22216e-06
2.21421e-06
-1.43213e-06
2.29068e-06
-1.64248e-06
2.32979e-06
-1.85021e-06
2.33332e-06
-2.05261e-06
2.30332e-06
-2.24731e-06
2.242e-06
-2.43222e-06
2.15172e-06
-2.60554e-06
2.03488e-06
-2.76571e-06
1.89392e-06
-2.91138e-06
1.73127e-06
-3.04141e-06
1.54933e-06
-3.15481e-06
1.35048e-06
-3.25077e-06
1.13704e-06
-3.32857e-06
9.11302e-07
-3.38763e-06
6.75555e-07
-3.42744e-06
4.32071e-07
-3.44762e-06
1.83142e-07
-3.44785e-06
-6.88992e-08
-3.42792e-06
-3.21661e-07
-3.38772e-06
-5.72667e-07
-3.32725e-06
-8.19339e-07
-3.24666e-06
-1.05898e-06
-3.14625e-06
-1.28878e-06
-3.02652e-06
-1.50577e-06
-2.88819e-06
-1.70691e-06
-2.73224e-06
-1.88901e-06
-2.55995e-06
-2.04884e-06
-2.37292e-06
-2.18314e-06
-2.17312e-06
-2.28867e-06
-1.96291e-06
-2.36231e-06
-1.74506e-06
-2.40112e-06
-1.52278e-06
-2.40248e-06
-1.29966e-06
-2.36413e-06
-1.07971e-06
-2.28435e-06
-8.67284e-07
-2.16205e-06
-6.67047e-07
-1.99687e-06
-4.83891e-07
-1.78928e-06
-3.22855e-07
-1.5407e-06
-1.8902e-07
-1.2535e-06
-8.74114e-08
-9.31023e-07
-2.28834e-08
-5.77591e-07
-1.98682e-07
-2.36054e-08
2.25664e-07
-8.93025e-08
6.45796e-07
-1.91788e-07
1.0294e-06
-3.25709e-07
1.37275e-06
-4.85777e-07
1.67338e-06
-6.6686e-07
1.92972e-06
-8.64053e-07
2.1411e-06
-1.07275e-06
2.30764e-06
-1.28868e-06
2.43014e-06
-1.50794e-06
2.50994e-06
-1.72702e-06
2.54887e-06
-1.94279e-06
2.5491e-06
-2.1525e-06
2.51303e-06
-2.35374e-06
2.44325e-06
-2.54445e-06
2.34243e-06
-2.72286e-06
2.21329e-06
-2.88747e-06
2.05853e-06
-3.037e-06
1.88081e-06
-3.1704e-06
1.68273e-06
-3.28675e-06
1.46683e-06
-3.3853e-06
1.23559e-06
-3.46541e-06
9.9141e-07
-3.52653e-06
7.36673e-07
-3.56819e-06
4.73735e-07
-3.59001e-06
2.0496e-07
-3.59166e-06
-6.72488e-08
-3.57289e-06
-3.40428e-07
-3.53354e-06
-6.12019e-07
-3.47353e-06
-8.79349e-07
-3.39291e-06
-1.1396e-06
-3.29187e-06
-1.38982e-06
-3.17079e-06
-1.62686e-06
-3.03025e-06
-1.84744e-06
-2.87112e-06
-2.04814e-06
-2.69455e-06
-2.22541e-06
-2.50206e-06
-2.37563e-06
-2.29556e-06
-2.49517e-06
-2.07739e-06
-2.58047e-06
-1.85036e-06
-2.62815e-06
-1.61777e-06
-2.63507e-06
-1.38337e-06
-2.59852e-06
-1.15142e-06
-2.5163e-06
-9.26591e-07
-2.38688e-06
-7.1393e-07
-2.20953e-06
-5.18784e-07
-1.98443e-06
-3.46696e-07
-1.71279e-06
-2.03291e-07
-1.3969e-06
-9.41512e-08
-1.04016e-06
-2.4689e-08
-6.47053e-07
-2.23371e-07
-2.51196e-08
2.50783e-07
-9.49045e-08
7.15581e-07
-2.03566e-07
1.13806e-06
-3.45264e-07
1.51445e-06
-5.14233e-07
1.84235e-06
-7.04898e-07
2.12038e-06
-9.11957e-07
2.34816e-06
-1.13046e-06
2.52615e-06
-1.35586e-06
2.65554e-06
-1.58404e-06
2.73812e-06
-1.81133e-06
2.77616e-06
-2.03451e-06
2.77228e-06
-2.25079e-06
2.7293e-06
-2.45776e-06
2.65022e-06
-2.6534e-06
2.53807e-06
-2.836e-06
2.3959e-06
-3.00417e-06
2.22669e-06
-3.15672e-06
2.03335e-06
-3.29269e-06
1.8187e-06
-3.41128e-06
1.58542e-06
-3.51182e-06
1.33613e-06
-3.59376e-06
1.07335e-06
-3.65661e-06
7.99518e-07
-3.69993e-06
5.17063e-07
-3.72337e-06
2.28398e-07
-3.72659e-06
-6.40315e-08
-3.7093e-06
-3.57716e-07
-3.67128e-06
-6.50044e-07
-3.61236e-06
-9.38269e-07
-3.53248e-06
-1.21948e-06
-3.43169e-06
-1.4906e-06
-3.31024e-06
-1.74831e-06
-3.16854e-06
-1.98914e-06
-3.00731e-06
-2.20938e-06
-2.82754e-06
-2.40518e-06
-2.63062e-06
-2.57254e-06
-2.41837e-06
-2.70742e-06
-2.19307e-06
-2.80578e-06
-1.95753e-06
-2.86369e-06
-1.71511e-06
-2.87749e-06
-1.46973e-06
-2.8439e-06
-1.22587e-06
-2.76016e-06
-9.8853e-07
-2.62422e-06
-7.6317e-07
-2.43489e-06
-5.55624e-07
-2.19198e-06
-3.71992e-07
-1.89642e-06
-2.18502e-07
-1.55039e-06
-1.01368e-07
-1.1573e-06
-2.66322e-08
-7.21789e-07
-2.50003e-07
-2.67142e-08
2.77497e-07
-1.00779e-07
7.89645e-07
-2.15866e-07
1.25314e-06
-3.65589e-07
1.66417e-06
-5.43658e-07
2.02042e-06
-7.44008e-07
2.32073e-06
-9.60906e-07
2.56506e-06
-1.18904e-06
2.75428e-06
-1.42356e-06
2.89006e-06
-1.66014e-06
2.9747e-06
-1.89496e-06
3.01099e-06
-2.12473e-06
3.00205e-06
-2.34663e-06
2.9512e-06
-2.55831e-06
2.86189e-06
-2.75779e-06
2.73755e-06
-2.94349e-06
2.5816e-06
-3.11411e-06
2.39731e-06
-3.26862e-06
2.18786e-06
-3.40618e-06
1.95626e-06
-3.52612e-06
1.70537e-06
-3.62791e-06
1.43792e-06
-3.71106e-06
1.1565e-06
-3.77519e-06
8.63644e-07
-3.81992e-06
5.61792e-07
-3.8449e-06
2.53384e-07
-3.84981e-06
-5.91219e-08
-3.83433e-06
-3.73201e-07
-3.79815e-06
-6.8622e-07
-3.74103e-06
-9.95393e-07
-3.66276e-06
-1.29775e-06
-3.56327e-06
-1.59009e-06
-3.4426e-06
-1.86899e-06
-3.30099e-06
-2.13074e-06
-3.13896e-06
-2.37142e-06
-2.9573e-06
-2.58683e-06
-2.75725e-06
-2.7726e-06
-2.54044e-06
-2.92422e-06
-2.30908e-06
-3.03713e-06
-2.06594e-06
-3.10684e-06
-1.8144e-06
-3.12903e-06
-1.55851e-06
-3.09979e-06
-1.30298e-06
-3.01569e-06
-1.05313e-06
-2.87406e-06
-8.14859e-07
-2.67316e-06
-5.94529e-07
-2.41231e-06
-3.98854e-07
-2.0921e-06
-2.34738e-07
-1.71451e-06
-1.09108e-07
-1.28293e-06
-2.87276e-08
-8.02169e-07
-2.78731e-07
-2.84007e-08
3.05898e-07
-1.06964e-07
8.68208e-07
-2.28756e-07
1.37494e-06
-3.86778e-07
1.82219e-06
-5.7415e-07
2.20779e-06
-7.84265e-07
2.53085e-06
-1.01092e-06
2.79171e-06
-1.2484e-06
2.99176e-06
-1.49156e-06
3.13322e-06
-1.73586e-06
3.219e-06
-1.97734e-06
3.25248e-06
-2.21267e-06
3.23737e-06
-2.43903e-06
3.17756e-06
-2.65413e-06
3.07699e-06
-2.85612e-06
2.93955e-06
-3.04355e-06
2.76903e-06
-3.21529e-06
2.56905e-06
-3.37046e-06
2.34303e-06
-3.50841e-06
2.09421e-06
-3.62863e-06
1.82558e-06
-3.73071e-06
1.54e-06
-3.81432e-06