/*--------------------------------*- C++ -*----------------------------------*\
  =========                 |
  \\      /  F ield         | OpenFOAM: The Open Source CFD Toolbox
   \\    /   O peration     | Website:  https://openfoam.org
    \\  /    A nd           | Version:  7
     \\/     M anipulation  |
\*---------------------------------------------------------------------------*/
FoamFile
{
    version     2.0;
    format      ascii;
    class       surfaceScalarField;
    location    "0.024";
    object      phi;
}
// * * * * * * * * * * * * * * * * * * * * * * * * * * * * * * * * * * * * * //

dimensions      [0 3 -1 0 0 0 0];

internalField   nonuniform List<scalar> 
4900
(
5.4556e-06
-5.45559e-06
9.95504e-06
-4.49944e-06
1.26958e-05
-2.74072e-06
1.44126e-05
-1.71685e-06
1.55261e-05
-1.11345e-06
1.62752e-05
-7.49139e-07
1.68012e-05
-5.26013e-07
1.71859e-05
-3.84672e-07
1.74767e-05
-2.90793e-07
1.77021e-05
-2.2542e-07
1.78801e-05
-1.78002e-07
1.80226e-05
-1.42453e-07
1.81377e-05
-1.15098e-07
1.82313e-05
-9.36142e-08
1.83077e-05
-7.64679e-08
1.83703e-05
-6.26006e-08
1.84216e-05
-5.12558e-08
1.84635e-05
-4.18745e-08
1.84975e-05
-3.40318e-08
1.85249e-05
-2.73952e-08
1.85466e-05
-2.16983e-08
1.85633e-05
-1.67214e-08
1.85756e-05
-1.22784e-08
1.85838e-05
-8.20673e-09
1.85882e-05
-4.35982e-09
1.85888e-05
-6.00898e-10
1.85856e-05
3.20446e-09
1.85784e-05
7.18994e-09
1.85669e-05
1.14982e-08
1.85506e-05
1.62848e-08
1.85289e-05
2.17265e-08
1.85008e-05
2.80315e-08
1.84654e-05
3.54524e-08
1.84211e-05
4.43054e-08
1.83661e-05
5.49974e-08
1.8298e-05
6.80673e-08
1.82138e-05
8.42497e-08
1.81092e-05
1.04577e-07
1.79786e-05
1.30553e-07
1.78142e-05
1.64454e-07
1.76043e-05
2.09886e-07
1.73314e-05
2.72842e-07
1.69677e-05
3.63791e-07
1.64658e-05
5.01821e-07
1.57435e-05
7.22318e-07
1.46547e-05
1.08885e-06
1.29445e-05
1.71016e-06
1.01625e-05
2.782e-06
5.55786e-06
4.60465e-06
5.55786e-06
-1.18303e-07
-5.33729e-06
1.83288e-06
-6.45063e-06
4.41225e-06
-5.32009e-06
6.72338e-06
-4.02799e-06
8.59586e-06
-2.98592e-06
1.00683e-05
-2.22154e-06
1.12206e-05
-1.6784e-06
1.21276e-05
-1.2916e-06
1.2848e-05
-1.01121e-06
1.34259e-05
-8.03377e-07
1.38938e-05
-6.45841e-07
1.42753e-05
-5.23979e-07
1.45883e-05
-4.28037e-07
1.4846e-05
-3.51367e-07
1.50589e-05
-2.89319e-07
1.52348e-05
-2.38551e-07
1.53801e-05
-1.96598e-07
1.54999e-05
-1.61596e-07
1.55979e-05
-1.32098e-07
1.56775e-05
-1.06955e-07
1.5741e-05
-8.52324e-08
1.57905e-05
-6.61509e-08
1.58272e-05
-4.90426e-08
1.58523e-05
-3.33189e-08
1.58664e-05
-1.84448e-08
1.58697e-05
-3.9174e-09
1.58622e-05
1.07544e-08
1.58433e-05
2.60677e-08
1.58123e-05
4.25448e-08
1.57678e-05
6.07563e-08
1.57082e-05
8.13465e-08
1.56311e-05
1.05068e-07
1.55338e-05
1.32825e-07
1.54123e-05
1.65737e-07
1.52621e-05
2.05226e-07
1.5077e-05
2.53143e-07
1.48493e-05
3.1196e-07
1.45688e-05
3.85062e-07
1.42222e-05
4.77204e-07
1.37914e-05
5.9524e-07
1.3252e-05
7.49317e-07
1.257e-05
9.54806e-07
1.16984e-05
1.23539e-06
1.05725e-05
1.62769e-06
9.10801e-06
2.18684e-06
7.21004e-06
2.98682e-06
4.82432e-06
4.09587e-06
2.11857e-06
5.48776e-06
1.05281e-08
6.71269e-06
5.56839e-06
-1.08237e-06
-4.25492e-06
-7.56023e-07
-6.77697e-06
5.82295e-07
-6.65841e-06
2.28546e-06
-5.73116e-06
3.98391e-06
-4.68437e-06
5.51897e-06
-3.7566e-06
6.84391e-06
-3.00333e-06
7.96287e-06
-2.41056e-06
8.89903e-06
-1.94738e-06
9.67978e-06
-1.58413e-06
1.03308e-05
-1.29683e-06
1.08741e-05
-1.06728e-06
1.1328e-05
-8.81985e-07
1.17076e-05
-7.30965e-07
1.20251e-05
-6.06784e-07
1.22904e-05
-5.03829e-07
1.25115e-05
-4.17793e-07
1.26953e-05
-3.4531e-07
1.28469e-05
-2.83701e-07
1.29707e-05
-2.30789e-07
1.30702e-05
-1.84769e-07
1.31482e-05
-1.44109e-07
1.32066e-05
-1.07479e-07
1.3247e-05
-7.36922e-08
1.32702e-05
-4.16602e-08
1.32767e-05
-1.03515e-08
1.32662e-05
2.12449e-08
1.32381e-05
5.41534e-08
1.31912e-05
8.94493e-08
1.31236e-05
1.28301e-07
1.3033e-05
1.72018e-07
1.29159e-05
2.22115e-07
1.27683e-05
2.8039e-07
1.25851e-05
3.49031e-07
1.23595e-05
4.30767e-07
1.20836e-05
5.29071e-07
1.17471e-05
6.48455e-07
1.13373e-05
7.94882e-07
1.08381e-05
9.76368e-07
1.02295e-05
1.20383e-06
9.48658e-06
1.49225e-06
8.57923e-06
1.86215e-06
7.47351e-06
2.34112e-06
6.1371e-06
2.96409e-06
4.55486e-06
3.76908e-06
2.76398e-06
4.7777e-06
9.22728e-07
5.93712e-06
-5.77192e-07
6.98768e-06
-1.03968e-06
7.17518e-06
4.5287e-06
-9.14189e-07
-3.34073e-06
-1.34736e-06
-6.3438e-06
-9.51432e-07
-7.05434e-06
-6.43379e-09
-6.67616e-06
1.19324e-06
-5.88404e-06
2.449e-06
-5.01237e-06
3.64846e-06
-4.20279e-06
4.73947e-06
-3.50157e-06
5.70488e-06
-2.91279e-06
6.54555e-06
-2.4248e-06
7.27062e-06
-2.02189e-06
7.89225e-06
-1.68891e-06
8.42307e-06
-1.4128e-06
8.87495e-06
-1.18284e-06
9.25852e-06
-9.9036e-07
9.58309e-06
-8.28398e-07
9.85664e-06
-6.91341e-07
1.00859e-05
-5.74616e-07
1.02767e-05
-4.74456e-07
1.04336e-05
-3.87711e-07
1.05606e-05
-3.11704e-07
1.06606e-05
-2.44115e-07
1.0736e-05
-1.82894e-07
1.07885e-05
-1.26184e-07
1.08191e-05
-7.22609e-08
1.08282e-05
-1.9478e-08
1.08157e-05
3.37869e-08
1.07806e-05
8.91799e-08
1.07217e-05
1.48426e-07
1.06366e-05
2.13386e-07
1.05225e-05
2.8613e-07
1.03756e-05
3.69017e-07
1.01911e-05
4.64803e-07
9.9634e-06
5.76777e-07
9.68522e-06
7.08941e-07
9.34805e-06
8.6624e-07
8.94164e-06
1.05487e-06
8.45385e-06
1.28267e-06
7.87064e-06
1.55958e-06
7.17622e-06
1.89824e-06
6.35411e-06
2.31436e-06
5.38948e-06
2.82678e-06
4.27461e-06
3.45599e-06
3.01948e-06
4.21921e-06
1.67115e-06
5.11742e-06
3.43723e-07
6.10513e-06
-7.47513e-07
7.02836e-06
-1.27617e-06
7.51634e-06
-9.18544e-07
6.81755e-06
3.61016e-06
-6.67231e-07
-2.6735e-06
-1.30714e-06
-5.7039e-06
-1.44051e-06
-6.92096e-06
-1.08251e-06
-7.03415e-06
-3.87142e-07
-6.57941e-06
4.88202e-07
-5.88771e-06
1.42588e-06
-5.14047e-06
2.35065e-06
-4.42634e-06
3.22003e-06
-3.78217e-06
4.01338e-06
-3.21815e-06
4.72343e-06
-2.73194e-06
5.35056e-06
-2.31604e-06
5.89922e-06
-1.96146e-06
6.37571e-06
-1.65934e-06
6.78699e-06
-1.40164e-06
7.13993e-06
-1.18133e-06
7.44095e-06
-9.92364e-07
7.69586e-06
-8.29532e-07
7.90978e-06
-6.88368e-07
8.08706e-06
-5.64998e-07
8.23139e-06
-4.56029e-07
8.34572e-06
-3.58447e-07
8.43235e-06
-2.69528e-07
8.49294e-06
-1.86767e-07
8.52848e-06
-1.07801e-07
8.53935e-06
-3.03532e-08
8.52531e-06
4.78307e-08
8.48545e-06
1.29042e-07
8.41819e-06
2.15676e-07
8.32128e-06
3.10297e-07
8.19169e-06
4.15723e-07
8.02559e-06
5.35118e-07
7.81829e-06
6.72105e-07
7.56416e-06
8.30904e-07
7.25661e-06
1.01649e-06
6.88805e-06
1.2348e-06
6.44999e-06
1.49293e-06
5.93328e-06
1.79937e-06
5.32873e-06
2.16414e-06
4.62823e-06
2.59874e-06
3.82704e-06
3.11555e-06
2.92772e-06
3.72611e-06
1.94663e-06
4.43708e-06
9.24122e-07
5.24172e-06
-6.18054e-08
6.10335e-06
-8.82367e-07
6.92569e-06
-1.35864e-06
7.50463e-06
-1.3066e-06
7.4643e-06
-6.88636e-07
6.19959e-06
2.92152e-06
-4.74398e-07
-2.1991e-06
-1.11325e-06
-5.06505e-06
-1.49733e-06
-6.53688e-06
-1.51957e-06
-7.01192e-06
-1.2252e-06
-6.87378e-06
-7.08711e-07
-6.4042e-06
-6.31753e-08
-5.78601e-06
6.38224e-07
-5.12774e-06
1.34457e-06
-4.48851e-06
2.02354e-06
-3.89712e-06
2.65648e-06
-3.36488e-06
3.23409e-06
-2.89365e-06
3.75306e-06
-2.48044e-06
4.21382e-06
-2.12009e-06
4.61889e-06
-1.80671e-06
4.97191e-06
-1.53436e-06
5.27697e-06
-1.29742e-06
5.53818e-06
-1.09074e-06
5.75944e-06
-9.09624e-07
5.94425e-06
-7.49816e-07
6.09569e-06
-6.07462e-07
6.21627e-06
-4.79033e-07
6.30801e-06
-3.6126e-07
6.37231e-06
-2.51073e-07
6.41005e-06
-1.4554e-07
6.4215e-06
-4.18008e-08
6.40634e-06
6.29915e-08
6.36365e-06
1.71734e-07
6.29188e-06
2.87443e-07
6.18885e-06
4.13321e-07
6.05174e-06
5.5284e-07
5.87703e-06
7.09827e-07
5.66057e-06
8.88563e-07
5.39759e-06
1.09389e-06
5.08278e-06
1.3313e-06
4.71052e-06
1.60707e-06
4.27518e-06
1.92827e-06
3.7718e-06
2.30275e-06
3.19712e-06
2.73882e-06
2.55128e-06
3.24458e-06
1.84052e-06
3.82631e-06
1.08112e-06
4.4855e-06
3.04888e-07
5.21331e-06
-4.34334e-07
5.98094e-06
-1.0551e-06
6.72411e-06
-1.44944e-06
7.32003e-06
-1.50291e-06
7.5581e-06
-1.15191e-06
7.1133e-06
-5.0086e-07
5.54854e-06
2.42066e-06
-3.44358e-07
-1.85474e-06
-9.18316e-07
-4.49109e-06
-1.39856e-06
-6.05663e-06
-1.64284e-06
-6.76764e-06
-1.63198e-06
-6.88464e-06
-1.40734e-06
-6.62883e-06
-1.0296e-06
-6.16374e-06
-5.57154e-07
-5.60019e-06
-3.75639e-08
-5.0081e-06
4.94033e-07
-4.42871e-06
1.01353e-06
-3.88438e-06
1.50553e-06
-3.38564e-06
1.96101e-06
-2.93592e-06
2.37545e-06
-2.53453e-06
2.74732e-06
-2.17857e-06
3.07699e-06
-1.86403e-06
3.36599e-06
-1.58643e-06
3.61646e-06
-1.34122e-06
3.83078e-06
-1.12394e-06
4.01129e-06
-9.30334e-07
4.16019e-06
-7.56362e-07
4.27935e-06
-5.98194e-07
4.37028e-06
-4.52189e-07
4.43406e-06
-3.14852e-07
4.47131e-06
-1.82786e-07
4.48215e-06
-5.26464e-08
4.46623e-06
7.89187e-08
4.42264e-06
2.15322e-07
4.34998e-06
3.60098e-07
4.24634e-06
5.16965e-07
4.10929e-06
6.89893e-07
3.93595e-06
8.83163e-07
3.72308e-06
1.10144e-06
3.46717e-06
1.3498e-06
3.16469e-06
1.63377e-06
2.81245e-06
1.95931e-06
2.40813e-06
2.3326e-06
1.9511e-06
2.75977e-06
1.44373e-06
3.2462e-06
8.93086e-07
3.79522e-06
3.13401e-07
4.40599e-06
-2.70893e-07
5.0698e-06
-8.21853e-07
5.76427e-06
-1.28557e-06
6.44466e-06
-1.59313e-06
7.03167e-06
-1.66987e-06
7.39676e-06
-1.46035e-06
7.34859e-06
-9.76811e-07
6.62976e-06
-3.71243e-07
4.94297e-06
2.04942e-06
-2.60065e-07
-1.59468e-06
-7.59317e-07
-3.99184e-06
-1.25945e-06
-5.5565e-06
-1.62264e-06
-6.40446e-06
-1.79891e-06
-6.70837e-06
-1.79339e-06
-6.63436e-06
-1.63799e-06
-6.31914e-06
-1.37292e-06
-5.86526e-06
-1.03648e-06
-5.34454e-06
-6.60742e-07
-4.80445e-06
-2.70439e-07
-4.27468e-06
1.1648e-07
-3.77256e-06
4.87709e-07
-3.30715e-06
8.35323e-07
-2.88215e-06
1.15464e-06
-2.49789e-06
1.44329e-06
-2.15267e-06
1.70046e-06
-1.8436e-06
1.92638e-06
-1.56713e-06
2.12185e-06
-1.31941e-06
2.28799e-06
-1.09647e-06
2.42599e-06
-8.94365e-07
2.53698e-06
-7.09179e-07
2.62187e-06
-5.37084e-07
2.68133e-06
-3.74314e-07
2.7157e-06
-2.1715e-07
2.72494e-06
-6.18852e-08
2.70864e-06
9.52148e-08
2.66601e-06
2.57953e-07
2.59586e-06
4.30245e-07
2.49666e-06
6.16167e-07
2.36656e-06
8.19993e-07
2.2035e-06
1.04622e-06
2.00533e-06
1.2996e-06
1.77004e-06
1.58509e-06
1.49603e-06
1.90778e-06
1.18259e-06
2.27274e-06
8.30531e-07
2.68466e-06
4.43037e-07
3.14727e-06
2.68799e-08
3.66235e-06
-4.06096e-07
4.2282e-06
-8.37215e-07
4.83711e-06
-1.2392e-06
5.47178e-06
-1.57503e-06
6.1001e-06
-1.79868e-06
6.66831e-06
-1.85987e-06
7.09286e-06
-1.71599e-06
7.25289e-06
-1.35451e-06
6.98711e-06
-8.26755e-07
6.102e-06
-2.8592e-07
4.40214e-06
1.7635e-06
-2.0479e-07
-1.38989e-06
-6.37402e-07
-3.55922e-06
-1.12369e-06
-5.07021e-06
-1.54402e-06
-5.98413e-06
-1.83785e-06
-6.41454e-06
-1.98885e-06
-6.48336e-06
-2.00754e-06
-6.30044e-06
-1.91747e-06
-5.95533e-06
-1.74604e-06
-5.51597e-06
-1.51928e-06
-5.03122e-06
-1.25942e-06
-4.53454e-06
-9.84243e-07
-4.04774e-06
-7.07184e-07
-3.58421e-06
-4.37968e-07
-3.15136e-06
-1.83308e-07
-2.75255e-06
5.24138e-08
-2.3884e-06
2.66541e-07
-2.05773e-06
4.57649e-07
-1.75824e-06
6.25149e-07
-1.48691e-06
7.68981e-07
-1.24031e-06
8.8938e-07
-1.01476e-06
9.86695e-07
-8.06495e-07
1.06126e-06
-6.1165e-07
1.1133e-06
-4.26354e-07
1.14286e-06
-2.46708e-07
1.14976e-06
-6.87837e-08
1.13357e-06
1.11397e-07
1.09364e-06
2.97885e-07
1.02906e-06
4.94824e-07
9.38758e-07
7.06472e-07
8.21546e-07
9.37206e-07
6.76256e-07
1.19151e-06
5.01911e-07
1.47395e-06
2.97973e-07
1.78903e-06
6.46944e-08
2.14106e-06
-1.96418e-07
2.53385e-06
-4.81977e-07
2.97022e-06
-7.85933e-07
3.45122e-06
-1.09862e-06
3.97504e-06
-1.40571e-06
4.53529e-06
-1.68723e-06
5.11863e-06
-1.91701e-06
5.70156e-06
-2.06322e-06
6.24631e-06
-2.09098e-06
6.69607e-06
-1.96861e-06
6.9705e-06
-1.67891e-06
6.96319e-06
-1.23626e-06
6.54445e-06
-7.07546e-07
5.57329e-06
-2.29095e-07
3.92369e-06
1.5344e-06
-1.67439e-07
-1.22245e-06
-5.45316e-07
-3.18135e-06
-1.00507e-06
-4.61046e-06
-1.44742e-06
-5.54178e-06
-1.81177e-06
-6.05019e-06
-2.07076e-06
-6.22437e-06
-2.22062e-06
-6.15058e-06
-2.27172e-06
-5.90423e-06
-2.24125e-06
-5.54644e-06
-2.14833e-06
-5.12415e-06
-2.01112e-06
-4.67174e-06
-1.84546e-06
-4.2134e-06
-1.66433e-06
-3.76534e-06
-1.4779e-06
-3.33779e-06
-1.29385e-06
-2.93659e-06
-1.1178e-06
-2.56445e-06
-9.53683e-07
-2.22185e-06
-8.04156e-07
-1.90777e-06
-6.7094e-07
-1.62012e-06
-5.55091e-07
-1.35616e-06
-4.57219e-07
-1.11264e-06
-3.77669e-07
-8.86044e-07
-3.16653e-07
-6.72666e-07
-2.7435e-07
-4.68656e-07
-2.50979e-07
-2.70079e-07
-2.46841e-07
-7.29218e-08
-2.62341e-07
1.26898e-07
-2.97986e-07
3.3353e-07
-3.54354e-07
5.51192e-07
-4.32035e-07
7.84153e-07
-5.31538e-07
1.03671e-06
-6.53152e-07
1.31313e-06
-7.96752e-07
1.61755e-06
-9.61537e-07
1.95381e-06
-1.14569e-06
2.32521e-06
-1.34594e-06
2.73411e-06
-1.55705e-06
3.18133e-06
-1.77118e-06
3.66535e-06
-1.97725e-06
4.18111e-06
-2.1604e-06
4.71844e-06
-2.3017e-06
5.25993e-06
-2.37851e-06
5.77838e-06
-2.36607e-06
6.23387e-06
-2.24094e-06
6.57093e-06
-1.98709e-06
6.71665e-06
-1.60524e-06
6.58134e-06
-1.12457e-06
6.06378e-06
-6.14423e-07
5.06314e-06
-1.89921e-07
3.49918e-06
1.34448e-06
-1.41301e-07
-1.08115e-06
-4.75461e-07
-2.84719e-06
-9.05699e-07
-4.18022e-06
-1.35095e-06
-5.09652e-06
-1.75516e-06
-5.64598e-06
-2.08653e-06
-5.893e-06
-2.33254e-06
-5.90457e-06
-2.49401e-06
-5.74276e-06
-2.57967e-06
-5.46078e-06
-2.60208e-06
-5.10173e-06
-2.57485e-06
-4.69897e-06
-2.51096e-06
-4.27729e-06
-2.42191e-06
-3.8544e-06
-2.31734e-06
-3.44237e-06
-2.20505e-06
-3.04888e-06
-2.09117e-06
-2.67833e-06
-1.98035e-06
-2.33267e-06
-1.87607e-06
-2.01205e-06
-1.78085e-06
-1.71534e-06
-1.69652e-06
-1.44049e-06
-1.62436e-06
-1.1848e-06
-1.56528e-06
-9.45126e-07
-1.51995e-06
-7.17994e-07
-1.48889e-06
-4.99714e-07
-1.47253e-06
-2.86435e-07
-1.47127e-06
-7.41868e-08
-1.48545e-06
1.41084e-07
-1.51542e-06
3.63493e-07
-1.56141e-06
5.97184e-07
-1.62355e-06
8.4629e-07
-1.7017e-06
1.11487e-06
-1.79538e-06
1.4068e-06
-1.90348e-06
1.72566e-06
-2.02414e-06
2.07446e-06
-2.15432e-06
2.4554e-06
-2.28955e-06
2.86934e-06
-2.42347e-06
3.31525e-06
-2.54746e-06
3.78934e-06
-2.65029e-06
4.28394e-06
-2.71799e-06
4.78614e-06
-2.73413e-06
5.27607e-06
-2.68078e-06
5.72503e-06
-2.54052e-06
6.09361e-06
-2.29999e-06
6.3304e-06
-1.95514e-06
6.37181e-06
-1.51818e-06
6.14438e-06
-1.02504e-06
5.57064e-06
-5.41202e-07
4.5793e-06
-1.61786e-07
3.11977e-06
1.1827e-06
-1.22372e-07
-9.58774e-07
-4.21787e-07
-2.54777e-06
-8.23667e-07
-3.77834e-06
-1.26187e-06
-4.65832e-06
-1.68645e-06
-5.2214e-06
-2.06486e-06
-5.51459e-06
-2.37978e-06
-5.58964e-06
-2.62555e-06
-5.49699e-06
-2.80439e-06
-5.28194e-06
-2.92324e-06
-4.98289e-06
-2.99132e-06
-4.63089e-06
-3.01849e-06
-4.25012e-06
-3.01421e-06
-3.85868e-06
-2.98697e-06
-3.4696e-06
-2.94408e-06
-3.09177e-06
-2.8916e-06
-2.73081e-06
-2.83444e-06
-2.38983e-06
-2.77649e-06
-2.07e-06
-2.72076e-06
-1.77107e-06
-2.66958e-06
-1.49166e-06
-2.62473e-06
-1.22965e-06
-2.58754e-06
-9.82315e-07
-2.55903e-06
-7.46503e-07
-2.53997e-06
-5.18771e-07
-2.53096e-06
-2.95453e-07
-2.53241e-06
-7.27329e-08
-2.54463e-06
1.53302e-07
-2.56775e-06
3.86613e-07
-2.60171e-06
6.31149e-07
-2.64621e-06
8.90784e-07
-2.70055e-06
1.16922e-06
-2.76359e-06
1.46984e-06
-2.83348e-06
1.79555e-06
-2.90754e-06
2.14852e-06
-2.98196e-06
2.52981e-06
-3.05156e-06
2.93895e-06
-3.10958e-06
3.37327e-06
-3.14742e-06
3.82717e-06
-3.15461e-06
4.29113e-06
-3.11901e-06
4.75054e-06
-3.02744e-06
5.1845e-06
-2.86688e-06
5.56447e-06
-2.62667e-06
5.8534e-06
-2.30157e-06
6.0053e-06
-1.89602e-06
5.96626e-06
-1.42895e-06
5.6773e-06
-9.38156e-07
5.07985e-06
-4.82703e-07
4.12385e-06
-1.40754e-07
2.77782e-06
1.04194e-06
-1.08228e-07
-8.50546e-07
-3.79876e-07
-2.27612e-06
-7.56061e-07
-3.40216e-06
-1.18242e-06
-4.23196e-06
-1.61517e-06
-4.78866e-06
-2.02295e-06
-5.10681e-06
-2.3862e-06
-5.22639e-06
-2.69512e-06
-5.18808e-06
-2.94719e-06
-5.02987e-06
-3.14484e-06
-4.78524e-06
-3.29342e-06
-4.4823e-06
-3.39977e-06
-4.14377e-06
-3.47113e-06
-3.78733e-06
-3.51451e-06
-3.42622e-06
-3.53631e-06
-3.06996e-06
-3.54215e-06
-2.72497e-06
-3.53679e-06
-2.39518e-06
-3.52422e-06
-2.08258e-06
-3.50765e-06
-1.78763e-06
-3.4897e-06
-1.50961e-06
-3.47243e-06
-1.24692e-06
-3.45746e-06
-9.97288e-07
-3.44603e-06
-7.57933e-07
-3.43908e-06
-5.25717e-07
-3.4373e-06
-2.97239e-07
-3.44111e-06
-6.89208e-08
-3.45072e-06
1.62918e-07
-3.4661e-06
4.01988e-07
-3.4869e-06
6.51952e-07
-3.51245e-06
9.16334e-07
-3.54163e-06
1.19839e-06
-3.57276e-06
1.50097e-06
-3.60349e-06
1.82628e-06
-3.63062e-06
2.17564e-06
-3.64992e-06
2.54912e-06
-3.65603e-06
2.94506e-06
-3.6423e-06
3.35953e-06
-3.60076e-06
3.78563e-06
-3.52232e-06
4.21269e-06
-3.39716e-06
4.62538e-06
-3.21551e-06
5.00284e-06
-2.96901e-06
5.31797e-06
-2.65265e-06
5.53704e-06
-2.2674e-06
5.62005e-06
-1.82332e-06
5.52219e-06
-1.34275e-06
5.19673e-06
-8.62651e-07
4.59976e-06
-4.35097e-07
3.69629e-06
-1.24464e-07
2.46718e-06
9.17481e-07
-9.73698e-08
-7.53177e-07
-3.46604e-07
-2.02689e-06
-7.00101e-07
-3.04866e-06
-1.11266e-06
-3.8194e-06
-1.54608e-06
-4.35524e-06
-1.97107e-06
-4.68182e-06
-2.36737e-06
-4.83009e-06
-2.72274e-06
-4.83271e-06
-3.03137e-06
-4.72123e-06
-3.29221e-06
-4.5244e-06
-3.50741e-06
-4.26711e-06
-3.68106e-06
-3.97012e-06
-3.81825e-06
-3.65013e-06
-3.92441e-06
-3.32007e-06
-4.00481e-06
-2.98956e-06
-4.06435e-06
-2.66542e-06
-4.10742e-06
-2.35212e-06
-4.1378e-06
-2.0522e-06
-4.15871e-06
-1.76672e-06
-4.17283e-06
-1.49549e-06
-4.18235e-06
-1.2374e-06
-4.18903e-06
-9.9061e-07
-4.19423e-06
-7.5273e-07
-4.19898e-06
-5.20966e-07
-4.20399e-06
-2.92231e-07
-4.20966e-06
-6.32486e-08
-4.21611e-06
1.69362e-07
-4.22311e-06
4.08995e-07
-4.23012e-06
6.58959e-07
-4.23615e-06
9.22369e-07
-4.23977e-06
1.20201e-06
-4.23896e-06
1.50016e-06
-4.23105e-06
1.81837e-06
-4.21259e-06
2.15719e-06
-4.17931e-06
2.51583e-06
-4.12598e-06
2.89173e-06
-4.0465e-06
3.28005e-06
-3.93395e-06
3.67309e-06
-3.78094e-06
4.05968e-06
-3.58009e-06
4.42453e-06
-3.32492e-06
4.74768e-06
-3.01114e-06
5.00419e-06
-2.63827e-06
5.16416e-06
-2.21173e-06
5.19351e-06
-1.74507e-06
5.05552e-06
-1.26188e-06
4.71354e-06
-7.96936e-07
4.13481e-06
-3.95679e-07
3.29504e-06
-1.11474e-07
2.18298e-06
8.06006e-07
-8.88418e-08
-6.64335e-07
-3.19782e-07
-1.79595e-06
-6.53476e-07
-2.71496e-06
-1.05182e-06
-3.42105e-06
-1.48143e-06
-3.92563e-06
-1.91533e-06
-4.24791e-06
-2.33351e-06
-4.41192e-06
-2.7224e-06
-4.44381e-06
-3.07402e-06
-4.36962e-06
-3.38472e-06
-4.2137e-06
-3.65408e-06
-3.99774e-06
-3.88387e-06
-3.74033e-06
-4.07722e-06
-3.45679e-06
-4.23796e-06
-3.15933e-06
-4.37019e-06
-2.85733e-06
-4.47797e-06
-2.55764e-06
-4.5651e-06
-2.26499e-06
-4.63501e-06
-1.98229e-06
-4.69074e-06
-1.71099e-06
-4.73488e-06
-1.45135e-06
-4.76961e-06
-1.20267e-06
-4.7967e-06
-9.63516e-07
-4.81755e-06
-7.31877e-07
-4.8332e-06
-5.05319e-07
-4.84433e-06
-2.811e-07
-4.8513e-06
-5.62819e-08
-4.85411e-06
1.72171e-07
-4.8524e-06
4.07291e-07
-4.84544e-06
6.51996e-07
-4.83204e-06
9.0897e-07
-4.81055e-06
1.18051e-06
-4.77876e-06
1.46837e-06
-4.73387e-06
1.77348e-06
-4.67246e-06
2.09577e-06
-4.5904e-06
2.43377e-06
-4.48293e-06
2.78427e-06
-4.34475e-06
3.14187e-06
-4.17023e-06
3.49857e-06
-3.95376e-06
3.84321e-06
-3.69035e-06
4.16113e-06
-3.3765e-06
4.43383e-06
-3.01125e-06
4.63894e-06
-2.5976e-06
4.75052e-06
-2.14406e-06
4.73997e-06
-1.66608e-06
4.57755e-06
-1.18725e-06
4.23471e-06
-7.3957e-07
3.68713e-06
-3.62571e-07
2.91804e-06
-1.00879e-07
1.92129e-06
7.05127e-07
-8.20207e-08
-5.82314e-07
-2.97878e-07
-1.58009e-06
-6.1438e-07
-2.39846e-06
-9.98935e-07
-3.0365e-06
-1.42218e-06
-3.50239e-06
-1.85946e-06
-3.81063e-06
-2.29142e-06
-3.97995e-06
-2.70398e-06
-4.03125e-06
-3.08773e-06
-3.98587e-06
-3.43718e-06
-3.86425e-06
-3.74991e-06
-3.68501e-06
-4.02577e-06
-3.46447e-06
-4.26617e-06
-3.21639e-06
-4.47348e-06
-2.95202e-06
-4.65064e-06
-2.68016e-06
-4.80081e-06
-2.40748e-06
-4.92712e-06
-2.13868e-06
-5.03256e-06
-1.87686e-06
-5.11983e-06
-1.62372e-06
-5.19134e-06
-1.37984e-06
-5.24915e-06
-1.14486e-06
-5.29496e-06
-9.17709e-07
-5.33011e-06
-6.96727e-07
-5.35559e-06
-4.79836e-07
-5.37204e-06
-2.64652e-07
-5.37973e-06
-4.85926e-08
-5.37856e-06
1.71009e-07
-5.36808e-06
3.96803e-07
-5.34739e-06
6.31305e-07
-5.31518e-06
8.76767e-07
-5.2697e-06
1.13503e-06
-5.20868e-06
1.40734e-06
-5.12936e-06
1.69416e-06
-5.02847e-06
1.99488e-06
-4.90227e-06
2.30757e-06
-4.74664e-06
2.62864e-06
-4.55723e-06
2.95247e-06
-4.32976e-06
3.27109e-06
-4.06038e-06
3.57383e-06
-3.74632e-06
3.84706e-06
-3.38657e-06
4.07408e-06
-2.98288e-06
4.23525e-06
-2.54081e-06
4.30846e-06
-2.07086e-06
4.27002e-06
-1.58938e-06
4.09606e-06
-1.11918e-06
3.76451e-06
-6.89401e-07
3.25735e-06
-3.34478e-07
2.56311e-06
-9.20955e-08
1.67891e-06
6.13031e-07
-7.64909e-08
-5.05823e-07
-2.79822e-07
-1.37676e-06
-5.81454e-07
-2.09683e-06
-9.53094e-07
-2.66486e-06
-1.3687e-06
-3.08678e-06
-1.80573e-06
-3.37361e-06
-2.24574e-06
-3.53994e-06
-2.67454e-06
-3.60245e-06
-3.08189e-06
-3.57852e-06
-3.46102e-06
-3.48513e-06
-3.80798e-06
-3.33805e-06
-4.12108e-06
-3.15137e-06
-4.40026e-06
-2.93721e-06
-4.64663e-06
-2.70565e-06
-4.86203e-06
-2.46477e-06
-5.04873e-06
-2.22078e-06
-5.20918e-06
-1.97822e-06
-5.34585e-06
-1.74019e-06
-5.46106e-06
-1.50851e-06
-5.55695e-06
-1.28395e-06
-5.63538e-06
-1.06644e-06
-5.6979e-06
-8.55179e-07
-5.74578e-06
-6.48856e-07
-5.77989e-06
-4.45723e-07
-5.80079e-06
-2.43747e-07
-5.80868e-06
-4.07075e-08
-5.80336e-06
1.65692e-07
-5.78427e-06
3.77716e-07
-5.75045e-06
5.97483e-07
-5.70052e-06
8.26838e-07
-5.6327e-06
1.0672e-06
-5.54476e-06
1.31941e-06
-5.43412e-06
1.58351e-06
-5.29779e-06
1.85855e-06
-5.13253e-06
2.14231e-06
-4.93495e-06
2.43106e-06
-4.70173e-06
2.71924e-06
-4.42989e-06
2.99925e-06
-4.11725e-06
3.26119e-06
-3.76293e-06
3.49274e-06
-3.36802e-06
3.67917e-06
-2.93637e-06
3.8036e-06
-2.47536e-06
3.84744e-06
-1.99668e-06
3.79134e-06
-1.51692e-06
3.6163e-06
-1.05774e-06
3.30533e-06
-6.45561e-07
2.84517e-06
-3.10509e-07
2.22806e-06
-8.47394e-08
1.45314e-06
5.28292e-07
-7.19716e-08
-4.33852e-07
-2.64865e-07
-1.18387e-06
-5.53702e-07
-1.80799e-06
-9.13555e-07
-2.30501e-06
-1.3211e-06
-2.67924e-06
-1.75563e-06
-2.93907e-06
-2.19969e-06
-3.09588e-06
-2.63925e-06
-3.1629e-06
-3.0636e-06
-3.15417e-06
-3.4651e-06
-3.08363e-06
-3.83869e-06
-2.96446e-06
-4.18145e-06
-2.80861e-06
-4.49213e-06
-2.62654e-06
-4.77071e-06
-2.42707e-06
-5.01808e-06
-2.2174e-06
-5.23569e-06
-2.00317e-06
-5.42531e-06
-1.7886e-06
-5.58888e-06
-1.57662e-06
-5.72832e-06
-1.36907e-06
-5.84543e-06
-1.16683e-06
-5.94186e-06
-9.70008e-07
-6.01898e-06
-7.78059e-07
-6.07789e-06
-5.89944e-07
-6.11938e-06
-4.04236e-07
-6.14389e-06
-2.19234e-07
-6.15153e-06
-3.30702e-08
-6.14203e-06
1.5619e-07
-6.11475e-06
3.50441e-07
-6.0687e-06
5.51425e-07
-6.00247e-06
7.60612e-07
-5.91433e-06
9.79065e-07
-5.8022e-06
1.20728e-06
-5.6637e-06
1.44501e-06
-5.49624e-06
1.69109e-06
-5.29713e-06
1.94321e-06
-5.06375e-06
2.19768e-06
-4.79376e-06
2.44925e-06
-4.48544e-06
2.69093e-06
-4.13805e-06
2.9138e-06
-3.75234e-06
3.10703e-06
-3.33109e-06
3.25792e-06
-2.87971e-06
3.35221e-06
-2.40683e-06
3.37456e-06
-1.92481e-06
3.30932e-06
-1.45005e-06
3.14154e-06
-1.00295e-06
2.85822e-06
-6.07431e-07
2.44966e-06
-2.90051e-07
1.91068e-06
-7.85548e-08
1.24164e-06
4.49737e-07
-6.82711e-08
-3.65581e-07
-2.52483e-07
-9.99656e-07
-5.30406e-07
-1.53007e-06
-8.79745e-07
-1.95567e-06
-1.27937e-06
-2.27961e-06
-1.71017e-06
-2.50827e-06
-2.1556e-06
-2.65045e-06
-2.60193e-06
-2.71658e-06
-3.03826e-06
-2.71784e-06
-3.45635e-06
-2.66553e-06
-3.85035e-06
-2.57046e-06
-4.21637e-06
-2.44258e-06
-4.55221e-06
-2.2907e-06
-4.85693e-06
-2.12235e-06
-5.13056e-06
-1.94376e-06
-5.37383e-06
-1.75991e-06
-5.58788e-06
-1.57454e-06
-5.77415e-06
-1.39036e-06
-5.93413e-06
-1.20909e-06
-6.06934e-06
-1.03163e-06
-6.18112e-06
-8.58222e-07
-6.27067e-06
-6.88505e-07
-6.33893e-06
-5.21683e-07
-6.38656e-06
-3.56611e-07
-6.41389e-06
-1.91901e-07
-6.42095e-06
-2.60162e-08
-6.40739e-06
1.42633e-07
-6.37254e-06
3.15593e-07
-6.31538e-06
4.94262e-07
-6.23455e-06
6.79782e-07
-6.1284e-06
8.72913e-07
-5.99502e-06
1.0739e-06
-5.83231e-06
1.28231e-06
-5.63811e-06
1.49689e-06
-5.41028e-06
1.71538e-06
-5.14695e-06
1.93435e-06
-4.84672e-06
2.14902e-06
-4.50895e-06
2.35316e-06
-4.13417e-06
2.53903e-06
-3.72446e-06
2.69732e-06
-3.28391e-06
2.81737e-06
-2.8191e-06
2.8874e-06
-2.33948e-06
2.89494e-06
-1.85771e-06
2.82756e-06
-1.38978e-06
2.67361e-06
-9.54803e-07
2.42325e-06
-5.74578e-07
2.06943e-06
-2.72688e-07
1.60879e-06
-7.33687e-08
1.04232e-06
3.76368e-07
-6.52586e-08
-3.00322e-07
-2.42314e-07
-8.22601e-07
-5.11058e-07
-1.26133e-06
-8.51252e-07
-1.61547e-06
-1.24352e-06
-1.88734e-06
-1.67007e-06
-2.08172e-06
-2.11519e-06
-2.20534e-06
-2.56549e-06
-2.26627e-06
-3.01003e-06
-2.27329e-06
-3.44021e-06
-2.23535e-06
-3.84957e-06
-2.1611e-06
-4.23354e-06
-2.05862e-06
-4.58912e-06
-1.93511e-06
-4.91464e-06
-1.79683e-06
-5.20942e-06
-1.64898e-06
-5.47355e-06
-1.49578e-06
-5.70762e-06
-1.34047e-06
-5.91261e-06
-1.18538e-06
-6.08962e-06
-1.03207e-06
-6.23985e-06
-8.81402e-07
-6.36442e-06
-7.33657e-07
-6.4643e-06
-5.88624e-07
-6.54028e-06
-4.45707e-07
-6.59288e-06
-3.04014e-07
-6.62234e-06
-1.62441e-07
-6.62859e-06
-1.97602e-08
-6.61126e-06
1.25298e-07
-6.56962e-06
2.7396e-07
-6.50268e-06
4.27317e-07
-6.40912e-06
5.86228e-07
-6.28743e-06
7.51214e-07
-6.13587e-06
9.22343e-07
-5.95266e-06
1.0991e-06
-5.73603e-06
1.28026e-06
-5.48441e-06
1.46375e-06
-5.19658e-06
1.64652e-06
-4.87197e-06
1.82441e-06
-4.51092e-06
1.99211e-06
-4.11498e-06
2.14308e-06
-3.6873e-06
2.26964e-06
-3.23297e-06
2.36305e-06
-2.75941e-06
2.41383e-06
-2.27659e-06
2.41212e-06
-1.79725e-06
2.34821e-06
-1.33685e-06
2.21321e-06
-9.13349e-07
1.99975e-06
-5.46714e-07
1.7028e-06
-2.58135e-07
1.32021e-06
-6.90641e-08
8.53251e-07
3.07304e-07
-6.28447e-08
-2.37477e-07
-2.34108e-07
-6.51338e-07
-4.95309e-07
-1.00013e-06
-8.27791e-07
-1.28299e-06
-1.21356e-06
-1.50157e-06
-1.63589e-06
-1.65939e-06
-2.07976e-06
-1.76147e-06
-2.53215e-06
-1.81388e-06
-2.98216e-06
-1.82329e-06
-3.42095e-06
-1.79656e-06
-3.84164e-06
-1.74041e-06
-4.23914e-06
-1.66112e-06
-4.60988e-06
-1.56437e-06
-4.95157e-06
-1.45514e-06
-5.26296e-06
-1.33759e-06
-5.54361e-06
-1.21514e-06
-5.79365e-06
-1.09042e-06
-6.01365e-06
-9.65381e-07
-6.20438e-06
-8.41334e-07
-6.36675e-06
-7.19034e-07
-6.50164e-06
-5.98765e-07
-6.60985e-06
-4.80415e-07
-6.69201e-06
-3.63554e-07
-6.74851e-06
-2.47509e-07
-6.77951e-06
-1.31437e-07
-6.78488e-06
-1.43944e-08
-6.76418e-06
1.04597e-07
-6.71669e-06
2.26471e-07
-6.64142e-06
3.5205e-07
-6.53715e-06
4.81955e-07
-6.40246e-06
6.16528e-07
-6.23585e-06
7.5573e-07
-6.03579e-06
8.99045e-07
-5.80091e-06
1.04538e-06
-5.5301e-06
1.19295e-06
-5.22277e-06
1.33919e-06
-4.87904e-06
1.48068e-06
-4.50002e-06
1.61309e-06
-4.08811e-06
1.73118e-06
-3.64729e-06
1.82882e-06
-3.18341e-06
1.89917e-06
-2.70446e-06
1.93488e-06
-2.22073e-06
1.92839e-06
-1.74488e-06
1.87237e-06
-1.29187e-06
1.7602e-06
-8.78641e-07
1.58653e-06
-5.23657e-07
1.34781e-06
-2.46202e-07
1.04276e-06
-6.55615e-08
6.72611e-07
2.41743e-07
-6.09689e-08
-1.76509e-07
-2.27698e-07
-4.84609e-07
-4.8292e-07
-7.44903e-07
-8.09173e-07
-9.56737e-07
-1.18951e-06
-1.12123e-06
-1.60804e-06
-1.24087e-06
-2.05031e-06
-1.3192e-06
-2.50362e-06
-1.36057e-06
-2.95712e-06
-1.36978e-06
-3.40186e-06
-1.35183e-06
-3.83067e-06
-1.31159e-06
-4.23808e-06
-1.25371e-06
-4.62008e-06
-1.18238e-06
-4.97393e-06
-1.10129e-06
-5.29792e-06
-1.0136e-06
-5.59119e-06
-9.21863e-07
-5.85352e-06
-8.28095e-07
-6.08511e-06
-7.3379e-07
-6.28647e-06
-6.39972e-07
-6.45826e-06
-5.47244e-07
-6.60117e-06
-4.55856e-07
-6.71583e-06
-3.65754e-07
-6.80274e-06
-2.76645e-07
-6.8622e-06
-1.88051e-07
-6.89427e-06
-9.93632e-08
-6.89877e-06
-9.89617e-09
-6.87523e-06
8.10571e-08
-6.82293e-06
1.7417e-07
-6.7409e-06
2.70026e-07
-6.628e-06
3.69052e-07
-6.48293e-06
4.71457e-07
-6.30436e-06
5.77157e-07
-6.09102e-06
6.85705e-07
-5.84185e-06
7.96211e-07
-5.55617e-06
9.07268e-07
-5.23388e-06
1.01689e-06
-4.87565e-06
1.12245e-06
-4.48323e-06
1.22067e-06
-4.05966e-06
1.3076e-06
-3.60954e-06
1.3787e-06
-3.13926e-06
1.4289e-06
-2.65721e-06
1.45283e-06
-2.17385e-06
1.44503e-06
-1.70173e-06
1.40024e-06
-1.25532e-06
1.31379e-06
-8.50751e-07
1.18196e-06
-5.05292e-07
1.00235e-06
-2.36764e-07
7.74229e-07
-6.28078e-08
4.98655e-07
1.78935e-07
-5.95909e-08
-1.16918e-07
-2.2297e-07
-3.2123e-07
-4.73737e-07
-4.94135e-07
-7.95283e-07
-6.35191e-07
-1.17142e-06
-7.45097e-07
-1.58686e-06
-8.25427e-07
-2.0276e-06
-8.78462e-07
-2.48116e-06
-9.07e-07
-2.93679e-06
-9.14155e-07
-3.38545e-06
-9.03165e-07
-3.81981e-06
-8.77234e-07
-4.23412e-06
-8.39399e-07
-4.62406e-06
-7.92436e-07
-4.98656e-06
-7.38796e-07
-5.31959e-06
-6.80569e-07
-5.62198e-06
-6.19475e-07
-5.8932e-06
-5.56868e-07
-6.13323e-06
-4.93762e-07
-6.34235e-06
-4.30855e-07
-6.52102e-06
-3.6857e-07
-6.66979e-06
-3.07087e-07
-6.78916e-06
-2.46388e-07
-6.87951e-06
-1.8629e-07
-6.94108e-06
-1.26488e-07
-6.97385e-06
-6.65871e-08
-6.97761e-06
-6.14288e-09
-6.95185e-06
5.53037e-08
-6.89587e-06
1.18188e-07
-6.80873e-06
1.82881e-07
-6.68932e-06
2.4965e-07
-6.53648e-06
3.1861e-07
-6.349e-06
3.89681e-07
-6.12583e-06
4.62533e-07
-5.86616e-06
5.36541e-07
-5.56963e-06
6.10736e-07
-5.2365e-06
6.83762e-07
-4.86789e-06
7.53846e-07
-4.466e-06
8.18781e-07
-4.03434e-06
8.75939e-07
-3.57794e-06
9.22303e-07
-3.10359e-06
9.54548e-07
-2.61991e-06
9.69156e-07
-2.13746e-06
9.62577e-07
-1.66865e-06
9.31429e-07
-1.22759e-06
8.72725e-07
-8.29754e-07
7.84123e-07
-4.91555e-07
6.64154e-07
-2.29741e-07
5.12415e-07
-6.07676e-08
3.29681e-07
1.18167e-07
-5.86848e-08
-5.8233e-08
-2.19852e-07
-1.60062e-07
-4.67662e-07
-2.46326e-07
-7.86053e-07
-3.168e-07
-1.15933e-06
-3.7182e-07
-1.5726e-06
-4.12152e-07
-2.01216e-06
-4.38909e-07
-2.4657e-06
-4.53461e-07
-2.92252e-06
-4.57337e-07
-3.37355e-06
-4.52135e-07
-3.81134e-06
-4.39436e-07
-4.23e-06
-4.20746e-07
-4.62499e-06
-3.97444e-07
-4.99303e-06
-3.70751e-07
-5.33189e-06
-3.41711e-07
-5.64018e-06
-3.11186e-07
-5.91719e-06
-2.79858e-07
-6.16271e-06
-2.48237e-07
-6.37689e-06
-2.16678e-07
-6.56006e-06
-1.85397e-07
-6.71266e-06
-1.54491e-07
-6.8351e-06
-1.23953e-07
-6.92769e-06
-9.3698e-08
-6.9906e-06
-6.35759e-08
-7.02379e-06
-3.33936e-08
-7.027e-06
-2.93234e-09
-6.99973e-06
2.80335e-08
-6.94126e-06
5.97171e-08
-6.85068e-06
9.22994e-08
-6.72694e-06
1.25907e-07
-6.56892e-06
1.60593e-07
-6.37554e-06