/*--------------------------------*- C++ -*----------------------------------*\
  =========                 |
  \\      /  F ield         | OpenFOAM: The Open Source CFD Toolbox
   \\    /   O peration     | Website:  https://openfoam.org
    \\  /    A nd           | Version:  7
     \\/     M anipulation  |
\*---------------------------------------------------------------------------*/
FoamFile
{
    version     2.0;
    format      ascii;
    class       surfaceScalarField;
    location    "0.0534";
    object      phi;
}
// * * * * * * * * * * * * * * * * * * * * * * * * * * * * * * * * * * * * * //

dimensions      [0 3 -1 0 0 0 0];

internalField   nonuniform List<scalar> 
4900
(
-5.55552e-06
5.55551e-06
-1.01612e-05
4.60563e-06
-1.29489e-05
2.78773e-06
-1.46691e-05
1.72021e-06
-1.57715e-05
1.10244e-06
-1.65103e-05
7.38729e-07
-1.70307e-05
5.20424e-07
-1.74147e-05
3.8405e-07
-1.7709e-05
2.94293e-07
-1.79411e-05
2.32116e-07
-1.81282e-05
1.87084e-07
-1.82815e-05
1.53231e-07
-1.84084e-05
1.2697e-07
-1.85145e-05
1.0604e-07
-1.86034e-05
8.8953e-08
-1.86781e-05
7.46906e-08
-1.87406e-05
6.2534e-08
-1.87926e-05
5.19613e-08
-1.88352e-05
4.25847e-08
-1.88693e-05
3.41088e-08
-1.88956e-05
2.63037e-08
-1.89146e-05
1.89865e-08
-1.89266e-05
1.20072e-08
-1.89318e-05
5.23988e-09
-1.89304e-05
-1.42678e-09
-1.89223e-05
-8.0919e-09
-1.89075e-05
-1.48532e-08
-1.88857e-05
-2.18077e-08
-1.88566e-05
-2.90592e-08
-1.88199e-05
-3.67244e-08
-1.87749e-05
-4.49405e-08
-1.87211e-05
-5.38752e-08
-1.86573e-05
-6.37406e-08
-1.85825e-05
-7.48125e-08
-1.8495e-05
-8.74579e-08
-1.83929e-05
-1.02178e-07
-1.82732e-05
-1.19672e-07
-1.81323e-05
-1.40944e-07
-1.79648e-05
-1.67484e-07
-1.77632e-05
-2.01575e-07
-1.75163e-05
-2.46869e-07
-1.72069e-05
-3.09455e-07
-1.6807e-05
-3.99916e-07
-1.62697e-05
-5.37293e-07
-1.55136e-05
-7.56063e-07
-1.43977e-05
-1.11591e-06
-1.26825e-05
-1.71522e-06
-9.94645e-06
-2.73603e-06
-5.45262e-06
-4.49383e-06
-5.45262e-06
-1.19169e-08
5.56743e-06
-2.13048e-06
6.72419e-06
-4.85746e-06
5.51471e-06
-7.27448e-06
4.13723e-06
-9.21246e-06
3.04042e-06
-1.07241e-05
2.25041e-06
-1.19028e-05
1.69911e-06
-1.28315e-05
1.31275e-06
-1.35736e-05
1.0364e-06
-1.41751e-05
8.33587e-07
-1.46688e-05
6.80755e-07
-1.50782e-05
5.62629e-07
-1.54203e-05
4.69139e-07
-1.57078e-05
3.93497e-07
-1.59499e-05
3.3101e-07
-1.61535e-05
2.78357e-07
-1.63241e-05
2.33131e-07
-1.64657e-05
1.9355e-07
-1.65814e-05
1.5827e-07
-1.66735e-05
1.26255e-07
-1.67439e-05
9.66886e-08
-1.67939e-05
6.89165e-08
-1.68242e-05
4.23988e-08
-1.68357e-05
1.66775e-08
-1.68285e-05
-8.64841e-09
-1.68026e-05
-3.39472e-08
-1.67579e-05
-5.95703e-08
-1.66938e-05
-8.58725e-08
-1.66097e-05
-1.1323e-07
-1.65043e-05
-1.42064e-07
-1.63764e-05
-1.72864e-07
-1.6224e-05
-2.06223e-07
-1.60449e-05
-2.42884e-07
-1.58359e-05
-2.83797e-07
-1.55932e-05
-3.3021e-07
-1.53115e-05
-3.83794e-07
-1.49844e-05
-4.4683e-07
-1.46028e-05
-5.22494e-07
-1.4155e-05
-6.153e-07
-1.36248e-05
-7.31807e-07
-1.29899e-05
-8.81738e-07
-1.22196e-05
-1.07978e-06
-1.12711e-05
-1.34837e-06
-1.00867e-05
-1.72173e-06
-8.59238e-06
-2.25039e-06
-6.70812e-06
-3.00017e-06
-4.39435e-06
-4.02898e-06
-1.81938e-06
-5.311e-06
1.24023e-07
-6.43723e-06
-5.3286e-06
1.03259e-06
4.53484e-06
5.47593e-07
7.20919e-06
-9.90803e-07
7.05311e-06
-2.88525e-06
6.03167e-06
-4.74202e-06
4.8972e-06
-6.40068e-06
3.90907e-06
-7.82185e-06
3.12028e-06
-9.01864e-06
2.50954e-06
-1.00214e-05
2.03921e-06
-1.08625e-05
1.6746e-06
-1.15701e-05
1.38842e-06
-1.21678e-05
1.16032e-06
-1.26742e-05
9.75491e-07
-1.31038e-05
8.23176e-07
-1.34683e-05
6.95501e-07
-1.37766e-05
5.86645e-07
-1.40357e-05
4.92247e-07
-1.42512e-05
4.08995e-07
-1.44272e-05
3.34329e-07
-1.45672e-05
2.66247e-07
-1.46737e-05
2.03147e-07
-1.47485e-05
1.43728e-07
-1.4793e-05
8.69092e-08
-1.48081e-05
3.17653e-08
-1.47942e-05
-2.25179e-08
-1.47515e-05
-7.66876e-08
-1.46796e-05
-1.31458e-07
-1.45779e-05
-1.87545e-07
-1.44455e-05
-2.45704e-07
-1.42808e-05
-3.0677e-07
-1.40819e-05
-3.71704e-07
-1.38465e-05
-4.41653e-07
-1.35713e-05
-5.18029e-07
-1.32525e-05
-6.02612e-07
-1.2885e-05
-6.97686e-07
-1.24626e-05
-8.06239e-07
-1.19772e-05
-9.32226e-07
-1.14187e-05
-1.08096e-06
-1.07744e-05
-1.25964e-06
-1.00281e-05
-1.47811e-06
-9.15995e-06
-1.74988e-06
-8.14639e-06
-2.09335e-06
-6.96184e-06
-2.53292e-06
-5.58452e-06
-3.09905e-06
-4.01108e-06
-3.82382e-06
-2.28829e-06
-4.72296e-06
-5.7341e-07
-5.74386e-06
7.66179e-07
-6.65059e-06
1.08749e-06
-6.75855e-06
-4.2411e-06
9.06529e-07
3.62831e-06
1.22931e-06
6.8864e-06
6.45007e-07
7.63741e-06
-5.20567e-07
7.19725e-06
-1.93858e-06
6.31521e-06
-3.39085e-06
5.36134e-06
-4.76048e-06
4.48991e-06
-5.99777e-06
3.74683e-06
-7.09021e-06
3.13165e-06
-8.04323e-06
2.62762e-06
-8.86945e-06
2.21464e-06
-9.58338e-06
1.87424e-06
-1.01989e-05
1.59098e-06
-1.07282e-05
1.35253e-06
-1.11819e-05
1.14918e-06
-1.15686e-05
9.73357e-07
-1.18955e-05
8.1914e-07
-1.21684e-05
6.81866e-07
-1.23919e-05
5.57834e-07
-1.25697e-05
4.44077e-07
-1.27047e-05
3.38182e-07
-1.27992e-05
2.38158e-07
-1.28546e-05
1.42327e-07
-1.28721e-05
4.92437e-08
-1.28522e-05
-4.2373e-08
-1.27952e-05
-1.33699e-07
-1.27008e-05
-2.25856e-07
-1.25684e-05
-3.19965e-07
-1.23969e-05
-4.17192e-07
-1.21849e-05
-5.18811e-07
-1.19303e-05
-6.26264e-07
-1.16307e-05
-7.41245e-07
-1.12829e-05
-8.65794e-07
-1.08831e-05
-1.00242e-06
-1.04265e-05
-1.15427e-06
-9.90745e-06
-1.32533e-06
-9.31901e-06
-1.52067e-06
-8.65315e-06
-1.74681e-06
-7.9007e-06
-2.01209e-06
-7.05172e-06
-2.32709e-06
-6.09666e-06
-2.70495e-06
-5.02881e-06
-3.16119e-06
-3.84942e-06
-3.71232e-06
-2.57723e-06
-4.37124e-06
-1.26528e-06
-5.13577e-06
-2.58915e-08
-5.96235e-06
9.42715e-07
-6.71247e-06
1.3491e-06
-7.05697e-06
9.1686e-07
-6.32631e-06
-3.32424e-06
6.72026e-07
2.95629e-06
1.24455e-06
6.31388e-06
1.2254e-06
7.65657e-06
6.55236e-07
7.76741e-06
-2.78564e-07
7.24901e-06
-1.39374e-06
6.47652e-06
-2.55804e-06
5.65421e-06
-3.69024e-06
4.87902e-06
-4.74691e-06
4.18832e-06
-5.70884e-06
3.58954e-06
-6.57083e-06
3.07664e-06
-7.33517e-06
2.63858e-06
-8.00765e-06
2.26346e-06
-8.59533e-06
1.94021e-06
-9.10537e-06
1.65922e-06
-9.54443e-06
1.41242e-06
-9.91842e-06
1.19313e-06
-1.02324e-05
9.95856e-07
-1.04907e-05
8.16092e-07
-1.06967e-05
6.50111e-07
-1.08533e-05
4.94812e-07
-1.09628e-05
3.47587e-07
-1.10266e-05
2.06208e-07
-1.10461e-05
6.87333e-08
-1.10219e-05
-6.65687e-08
-1.09543e-05
-2.01291e-07
-1.08432e-05
-3.36951e-07
-1.06882e-05
-4.75048e-07
-1.04882e-05
-6.17128e-07
-1.02422e-05
-7.6485e-07
-9.94839e-06
-9.20056e-07
-9.60478e-06
-1.08486e-06
-9.20882e-06
-1.26175e-06
-8.75756e-06
-1.45369e-06
-8.24755e-06
-1.66428e-06
-7.67498e-06
-1.8979e-06
-7.03576e-06
-2.15989e-06
-6.32587e-06
-2.4567e-06
-5.54201e-06
-2.79595e-06
-4.68273e-06
-3.18636e-06
-3.75056e-06
-3.63712e-06
-2.75543e-06
-4.15632e-06
-1.7203e-06
-4.74745e-06
-6.89449e-07
-5.40209e-06
2.60736e-07
-6.08596e-06
1.01225e-06
-6.71386e-06
1.40863e-06
-7.10885e-06
1.29739e-06
-6.94573e-06
6.66542e-07
-5.69546e-06
-2.6577e-06
4.80741e-07
2.47555e-06
1.07729e-06
5.71733e-06
1.3436e-06
7.39025e-06
1.1791e-06
7.93191e-06
6.5132e-07
7.77679e-06
-1.21277e-07
7.24912e-06
-1.02678e-06
6.55971e-06
-1.98e-06
5.83224e-06
-2.92344e-06
5.13176e-06
-3.82195e-06
4.48806e-06
-4.65615e-06
3.91083e-06
-5.4169e-06
3.39934e-06
-6.10141e-06
2.94796e-06
-6.71044e-06
2.54924e-06
-7.24671e-06
2.19548e-06
-7.71372e-06
1.87943e-06
-8.11523e-06
1.59463e-06
-8.45482e-06
1.33545e-06
-8.73576e-06
1.09704e-06
-8.96091e-06
8.75258e-07
-9.13266e-06
6.66567e-07
-9.25298e-06
4.67909e-07
-9.3234e-06
2.76628e-07
-9.34505e-06
9.03815e-08
-9.31868e-06
-9.29377e-08
-9.2447e-06
-2.75272e-07
-9.12319e-06
-4.58466e-07
-8.95391e-06
-6.44324e-07
-8.73636e-06
-8.34684e-07
-8.46973e-06
-1.03147e-06
-8.153e-06
-1.23679e-06
-7.7849e-06
-1.45296e-06
-7.36398e-06
-1.68266e-06
-6.88872e-06
-1.92895e-06
-6.35762e-06
-2.19538e-06
-5.76942e-06
-2.48609e-06
-5.12354e-06
-2.80578e-06
-4.42058e-06
-3.15965e-06
-3.66338e-06
-3.55315e-06
-2.85843e-06
-3.99131e-06
-2.01813e-06
-4.47741e-06
-1.164e-06
-5.01046e-06
-3.30851e-07
-5.5806e-06
4.28378e-07
-6.16132e-06
1.03909e-06
-6.69667e-06
1.40753e-06
-7.0823e-06
1.43939e-06
-7.14071e-06
1.09044e-06
-6.59678e-06
4.69829e-07
-5.07485e-06
-2.18787e-06
3.48451e-07
2.1271e-06
8.92193e-07
5.17359e-06
1.27982e-06
7.00263e-06
1.36378e-06
7.84795e-06
1.13627e-06
8.0043e-06
6.57173e-07
7.72822e-06
5.53733e-09
7.21135e-06
-7.45268e-07
6.58305e-06
-1.5374e-06
5.92389e-06
-2.32905e-06
5.27971e-06
-3.09223e-06
4.67401e-06
-3.80941e-06
4.11652e-06
-4.47048e-06
3.60903e-06
-5.07032e-06
3.14908e-06
-5.60698e-06
2.73215e-06
-6.08049e-06
2.35294e-06
-6.49196e-06
2.0061e-06
-6.84305e-06
1.68653e-06
-7.13563e-06
1.38962e-06
-7.37156e-06
1.11119e-06
-7.55256e-06
8.47563e-07
-7.68012e-06
5.95471e-07
-7.7555e-06
3.52012e-07
-7.77971e-06
1.14589e-07
-7.75349e-06
-1.1916e-07
-7.67735e-06
-3.51415e-07
-7.55157e-06
-5.84239e-07
-7.37626e-06
-8.19631e-07
-7.15136e-06
-1.05959e-06
-6.87667e-06
-1.30617e-06
-6.55193e-06
-1.56152e-06
-6.17691e-06
-1.82798e-06
-5.75148e-06
-2.1081e-06
-5.27576e-06
-2.40467e-06
-4.75039e-06
-2.72075e-06
-4.17685e-06
-3.05963e-06
-3.55794e-06
-3.42469e-06
-2.8985e-06
-3.81909e-06
-2.20644e-06
-4.24521e-06
-1.49413e-06
-4.70363e-06
-7.80191e-07
-5.19135e-06
-9.17629e-08
-5.69888e-06
5.33322e-07
-6.20569e-06
1.04522e-06
-6.67321e-06
1.38376e-06
-7.03521e-06
1.48711e-06
-7.18566e-06
1.31338e-06
-6.96699e-06
8.81901e-07
-6.1653e-06
3.35798e-07
-4.52874e-06
-1.85207e-06
2.61146e-07
1.86595e-06
7.34424e-07
4.70031e-06
1.15721e-06
6.57984e-06
1.38118e-06
7.62398e-06
1.35977e-06
8.02571e-06
1.11032e-06
7.97766e-06
6.80278e-07
7.64139e-06
1.24563e-07
7.13876e-06
-5.06205e-07
6.55466e-06
-1.17076e-06
5.94427e-06
-1.83785e-06
5.3411e-06
-2.48512e-06
4.76379e-06
-3.09735e-06
4.22127e-06
-3.6647e-06
3.71643e-06
-4.18118e-06
3.24863e-06
-4.64346e-06
2.81522e-06
-5.05e-06
2.41264e-06
-5.4004e-06
2.03693e-06
-5.69494e-06
1.68416e-06
-5.93429e-06
1.35054e-06
-6.11931e-06
1.03258e-06
-6.25089e-06
7.27055e-07
-6.3299e-06
4.31025e-07
-6.35713e-06
1.41813e-07
-6.33325e-06
-1.43038e-07
-6.25886e-06
-4.25811e-07
-6.13444e-06
-7.08652e-07
-5.96045e-06
-9.93621e-07
-5.73731e-06
-1.28273e-06
-5.46549e-06
-1.57799e-06
-5.14558e-06
-1.88143e-06
-4.77841e-06
-2.19516e-06
-4.36518e-06
-2.52133e-06
-3.90768e-06
-2.86217e-06
-3.40855e-06
-3.21988e-06
-2.8717e-06
-3.59649e-06
-2.30276e-06
-3.99363e-06
-1.70983e-06
-4.41202e-06
-1.10429e-06
-4.85075e-06
-5.01923e-07
-5.306e-06
7.5968e-08
-5.76924e-06
6.01451e-07
-6.22437e-06
1.03953e-06
-6.64377e-06
1.3493e-06
-6.98298e-06
1.48839e-06
-7.1743e-06
1.42311e-06
-7.12037e-06
1.14707e-06
-6.69094e-06
7.09404e-07
-5.72764e-06
2.47607e-07
-4.06694e-06
-1.60447e-06
2.02896e-07
1.66305e-06
6.09428e-07
4.29378e-06
1.02606e-06
6.1632e-06
1.32157e-06
7.32848e-06
1.43407e-06
7.91321e-06
1.35425e-06
8.05748e-06
1.10439e-06
7.89125e-06
7.21229e-07
7.52193e-06
2.44519e-07
7.03137e-06
-2.89241e-07
6.47803e-06
-8.49527e-07
5.90138e-06
-1.41233e-06
5.32659e-06
-1.95963e-06
4.76856e-06
-2.47839e-06
4.23519e-06
-2.95952e-06
3.72976e-06
-3.39692e-06
3.25262e-06
-3.78666e-06
2.80238e-06
-4.12638e-06
2.37665e-06
-4.41478e-06
1.97256e-06
-4.65131e-06
1.58707e-06
-4.83588e-06
1.21715e-06
-4.9687e-06
8.59879e-07
-5.05018e-06
5.12501e-07
-5.08082e-06
1.72447e-07
-5.06118e-06
-1.62677e-07
-4.99189e-06
-4.95101e-07
-4.87362e-06
-8.26914e-07
-4.70716e-06
-1.16009e-06
-4.49339e-06
-1.4965e-06
-4.23342e-06
-1.83796e-06
-3.92864e-06
-2.1862e-06
-3.58089e-06
-2.54291e-06
-3.19258e-06
-2.90964e-06
-2.76693e-06
-3.28781e-06
-2.30829e-06
-3.67852e-06
-1.82242e-06
-4.08235e-06
-1.31704e-06
-4.49901e-06
-8.02308e-07
-4.92675e-06
-2.9149e-07
-5.36156e-06
1.98412e-07
-5.79591e-06
6.46141e-07
-6.21697e-06
1.02606e-06
-6.60429e-06
1.30896e-06
-6.92666e-06
1.46448e-06
-7.1385e-06
1.46639e-06
-7.17621e-06
1.30178e-06
-6.95577e-06
9.84912e-07
-6.37407e-06
5.74505e-07
-5.31723e-06
1.88639e-07
-3.68108e-06
-1.41583e-06
1.6273e-07
1.50032e-06
5.12064e-07
3.94444e-06
9.0463e-07
5.77064e-06
1.23053e-06
7.00258e-06
1.42556e-06
7.71818e-06
1.46576e-06
8.01728e-06
1.35573e-06
8.00128e-06
1.11675e-06
7.7609e-06
7.77462e-07
7.37065e-06
3.67615e-07
6.88788e-06
-8.54722e-08
6.35447e-06
-5.58505e-07
5.79962e-06
-1.03262e-06
5.24267e-06
-1.49311e-06
4.69568e-06
-1.92886e-06
4.16552e-06
-2.33173e-06
3.65549e-06
-2.69587e-06
3.16652e-06
-3.01724e-06
2.69801e-06
-3.29311e-06
2.24843e-06
-3.52177e-06
1.81573e-06
-3.7022e-06
1.39758e-06
-3.83393e-06
9.91607e-07
-3.91685e-06
5.95423e-07
-3.95115e-06
2.06746e-07
-3.93724e-06
-1.76589e-07
-3.87573e-06
-5.56609e-07
-3.76744e-06
-9.35205e-07
-3.6134e-06
-1.31412e-06
-3.41493e-06
-1.69497e-06
-3.17368e-06
-2.07921e-06
-2.89174e-06
-2.46815e-06
-2.57178e-06
-2.86287e-06
-2.2172e-06
-3.26421e-06
-1.83238e-06
-3.67264e-06
-1.42286e-06
-4.08804e-06
-9.95711e-07
-4.5095e-06
-5.59876e-07
-4.93484e-06
-1.26526e-07
-5.3601e-06
2.90565e-07
-5.77865e-06
6.74765e-07
-6.1801e-06
1.0066e-06
-6.54881e-06
1.26431e-06
-6.86199e-06
1.42526e-06
-7.08762e-06
1.46891e-06
-7.18215e-06
1.38168e-06
-7.08897e-06
1.16428e-06
-6.73837e-06
8.41161e-07
-6.05096e-06
4.70162e-07
-4.94623e-06
1.47848e-07
-3.35876e-06
-1.26798e-06
1.33924e-07
1.3664e-06
4.35776e-07
3.64259e-06
7.97822e-07
5.40859e-06
1.13016e-06
6.67024e-06
1.37256e-06
7.47578e-06
1.49439e-06
7.89545e-06
1.48889e-06
8.00678e-06
1.36557e-06
7.88422e-06
1.14321e-06
7.59302e-06
8.44452e-07
7.18663e-06
4.92211e-07
6.70671e-06
1.07562e-07
6.18427e-06
-2.91259e-07
5.6415e-06
-6.89143e-07
5.09356e-06
-1.07398e-06
4.55035e-06
-1.43632e-06
4.01783e-06
-1.76896e-06
3.49916e-06
-2.06654e-06
2.9956e-06
-2.32518e-06
2.50707e-06
-2.54212e-06
2.03267e-06
-2.71554e-06
1.571e-06
-2.84429e-06
1.12035e-06
-2.92776e-06
6.78901e-07
-2.96582e-06
2.44806e-07
-2.95869e-06
-1.83724e-07
-2.90692e-06
-6.0838e-07
-2.8114e-06
-1.03072e-06
-2.67337e-06
-1.45215e-06
-2.49446e-06
-1.87389e-06
-2.27674e-06
-2.29693e-06
-2.02285e-06
-2.72203e-06
-1.7361e-06
-3.14962e-06
-1.42061e-06
-3.5797e-06
-1.08151e-06
-4.01174e-06
-7.25135e-07
-4.44442e-06
-3.59262e-07
-4.87537e-06
6.67399e-09
-5.30078e-06
3.61359e-07
-5.71479e-06
6.91485e-07
-6.10878e-06
9.81809e-07
-6.47043e-06
1.21553e-06
-6.78253e-06
1.37519e-06
-7.02166e-06
1.44439e-06
-7.15682e-06
1.41059e-06
-7.14835e-06
1.26921e-06
-6.94759e-06
1.02902e-06
-6.49818e-06
7.18118e-07
-5.74005e-06
3.88854e-07
-4.61697e-06
1.18539e-07
-3.08845e-06
-1.14944e-06
1.12436e-07
1.25396e-06
3.75029e-07
3.38e-06
7.05393e-07
5.07823e-06
1.03057e-06
6.34507e-06
1.29676e-06
7.20959e-06
1.47154e-06
7.72066e-06
1.54153e-06
7.93679e-06
1.50789e-06
7.91787e-06
1.38141e-06
7.71949e-06
1.17823e-06
7.38982e-06
9.16539e-07
6.9684e-06
6.14425e-07
6.48639e-06
2.88532e-07
5.96739e-06
-4.65747e-08
5.42867e-06
-3.78621e-07
4.8824e-06
-6.97562e-07
4.33677e-06
-9.95378e-07
3.79698e-06
-1.26581e-06
3.26603e-06
-1.50408e-06
2.74534e-06
-1.70664e-06
2.23523e-06
-1.87093e-06
1.7353e-06
-1.99525e-06
1.24467e-06
-2.07853e-06
7.6218e-07
-2.12029e-06
2.8657e-07
-2.12055e-06
-1.83462e-07
-2.07978e-06
-6.49156e-07
-1.99887e-06
-1.11163e-06
-1.87917e-06
-1.57185e-06
-1.72251e-06
-2.03054e-06
-1.53128e-06
-2.48817e-06
-1.30846e-06
-2.94486e-06
-1.05777e-06
-3.40031e-06
-7.83781e-07
-3.85369e-06
-4.9205e-07
-4.30347e-06
-1.89268e-07
-4.7472e-06
1.16592e-07
-5.18123e-06
4.16157e-07
-5.60035e-06
6.98598e-07
-5.99723e-06
9.51698e-07
-6.36188e-06
1.16212e-06
-6.68085e-06
1.31599e-06
-6.9364e-06
1.39997e-06
-7.10564e-06
1.40292e-06
-7.15976e-06
1.3183e-06
-7.06374e-06
1.14746e-06
-6.77675e-06
9.03293e-07
-6.25401e-06
6.13852e-07
-5.45061e-06
3.24508e-07
-4.32762e-06
9.66873e-08
-2.86063e-06
-1.05275e-06
9.58109e-08
1.15815e-06
3.25657e-07
3.15015e-06
6.25411e-07
4.77847e-06
9.35855e-07
6.03462e-06
1.2102e-06
6.93525e-06
1.41691e-06
7.51396e-06
1.53925e-06
7.81444e-06
1.57289e-06
7.88423e-06
1.52254e-06
7.76984e-06
1.39884e-06
7.51353e-06
1.21551e-06
7.15173e-06
9.87408e-07
6.71449e-06
7.29069e-07
6.22573e-06
4.53881e-07
5.70386e-06
1.73649e-07
5.16263e-06
-1.01563e-07
4.61198e-06
-3.63399e-07
4.05881e-06
-6.0509e-07
3.50772e-06
-8.21273e-07
2.96152e-06
-1.00781e-06
2.42177e-06
-1.16161e-06
1.8891e-06
-1.28046e-06
1.36352e-06
-1.36292e-06
8.44641e-07
-1.4082e-06
3.3185e-07
-1.4161e-06
-1.75565e-07
-1.38695e-06
-6.78306e-07
-1.3216e-06
-1.17698e-06
-1.22145e-06
-1.67201e-06
-1.0884e-06
-2.16358e-06
-9.24993e-07
-2.65158e-06
-7.34397e-07
-3.13545e-06
-5.20535e-07
-3.61417e-06
-2.88158e-07
-4.08607e-06
-4.29449e-08
-4.54868e-06
2.08406e-07
-4.99855e-06
4.58108e-07
-5.43093e-06
6.97262e-07
-5.8395e-06
9.15922e-07
-6.21589e-06
1.10328e-06
-6.54924e-06
1.24807e-06
-6.82564e-06
1.33923e-06
-7.02757e-06
1.36698e-06
-7.13339e-06
1.3243e-06
-7.11708e-06
1.20892e-06
-6.94836e-06
1.0257e-06
-6.59353e-06
7.89124e-07
-6.01743e-06
5.25301e-07
-5.18679e-06
2.72614e-07
-4.07494e-06
7.9838e-08
-2.66785e-06
-9.72917e-07
8.25188e-08
1.07563e-06
2.84639e-07
2.94803e-06
5.55637e-07
4.50748e-06
8.47263e-07
5.743e-06
1.11938e-06
6.66313e-06
1.34272e-06
7.29062e-06
1.49936e-06
7.6578e-06
1.58157e-06
7.80202e-06
1.58974e-06
7.76167e-06
1.53008e-06
7.57319e-06
1.41242e-06
7.26939e-06
1.24848e-06
6.87843e-06
1.05049e-06
6.42371e-06
8.30324e-07
5.92403e-06
5.98868e-07
5.39409e-06
3.65782e-07
4.84507e-06
1.39355e-07
4.28524e-06
-7.34743e-08
3.72055e-06
-2.67042e-07
3.15509e-06
-4.36842e-07
2.59157e-06
-5.79395e-07
2.03165e-06
-6.92134e-07
1.47626e-06
-7.73287e-07
9.25794e-07
-8.21796e-07
3.80359e-07
-8.37245e-07
-1.60116e-07
-8.19816e-07
-6.95735e-07
-7.70267e-07
-1.22653e-06
-6.89927e-07
-1.75235e-06
-5.80713e-07
-2.2728e-06
-4.45161e-07
-2.78713e-06
-2.86476e-07
-3.29414e-06
-1.08586e-07
-3.79206e-06
8.3796e-08
-4.27845e-06
2.85117e-07
-4.75e-06
4.88942e-07
-5.20237e-06
6.87948e-07
-5.62994e-06
8.73974e-07
-6.02553e-06
1.03816e-06
-6.38007e-06
1.17121e-06
-6.68229e-06
1.26387e-06
-6.91829e-06
1.30756e-06
-7.07126e-06
1.29539e-06
-7.12121e-06
1.22339e-06
-7.04508e-06
1.09208e-06
-6.81705e-06
9.08183e-07
-6.40963e-06
6.86194e-07
-5.79544e-06
4.49429e-07
-4.95002e-06
2.29908e-07
-3.85542e-06
6.64453e-08
-2.50439e-06
-9.06471e-07
7.15739e-08
1.00406e-06
2.49806e-07
2.7698e-06
4.94024e-07
4.26326e-06
7.6471e-07
5.47231e-06
1.0277e-06
6.40015e-06
1.25657e-06
7.06175e-06
1.43353e-06
7.48083e-06
1.54901e-06
7.68654e-06
1.60047e-06
7.71021e-06
1.59074e-06
7.58293e-06
1.52642e-06
7.3337e-06
1.4164e-06
6.98845e-06
1.27067e-06
6.56945e-06
1.09938e-06
6.09532e-06
9.1229e-07
5.58117e-06
7.18344e-07
5.03901e-06
5.25464e-07
4.47812e-06
3.40472e-07
3.90554e-06
1.69093e-07
3.32647e-06
1.59988e-08
2.74466e-06
-1.15108e-07
2.16276e-06
-2.21411e-07
1.58256e-06
-3.00897e-07
1.00528e-06
-3.5228e-07
4.31742e-07
-3.74946e-07
-1.3745e-07
-3.6891e-07
-7.01771e-07
-3.34789e-07
-1.26065e-06
-2.73795e-07
-1.81334e-06
-1.87746e-07
-2.35885e-06
-7.90795e-08
-2.8958e-06
4.91152e-08
-3.42233e-06
1.93061e-07
-3.93601e-06
3.48262e-07
-4.43365e-06
5.09481e-07
-4.91122e-06
6.70737e-07
-5.36363e-06
8.25351e-07
-5.78455e-06
9.66037e-07
-6.16621e-06
1.0851e-06
-6.49913e-06
1.17472e-06
-6.77192e-06
1.22744e-06
-6.97101e-06
1.23677e-06
-7.08058e-06
1.19803e-06
-7.08247e-06
1.10939e-06
-6.95645e-06
9.73076e-07
-6.68073e-06
7.96487e-07
-6.23304e-06
5.93239e-07
-5.5922e-06
3.83598e-07
-4.74038e-06
1.9403e-07
-3.66585e-06
5.55011e-08
-2.36586e-06
-8.5097e-07
6.23195e-08
9.41741e-07
2.19594e-07
2.61252e-06
4.38851e-07
4.044e-06
6.87572e-07
5.22359e-06
9.36793e-07
6.15093e-06
1.1631e-06
6.83544e-06
1.34962e-06
7.29432e-06
1.48602e-06
7.55014e-06
1.56787e-06
7.62836e-06
1.59557e-06
7.55522e-06
1.57315e-06
7.35612e-06
1.50707e-06
7.05452e-06
1.40522e-06
6.6713e-06
1.27609e-06
6.22445e-06
1.12815e-06
5.72911e-06
9.69469e-07
5.1977e-06
8.07375e-07
4.64021e-06
6.48369e-07
4.06454e-06
4.98031e-07
3.47681e-06
3.61026e-07
2.88167e-06
2.41139e-07
2.28264e-06
1.4132e-07
1.68238e-06
6.37486e-08
1.08285e-06
9.88537e-09
4.85605e-07
-1.94779e-08
-1.08087e-07
-2.41818e-08
-6.97067e-07
-4.67451e-09
-1.28015e-06
3.79971e-08
-1.85601e-06
1.02195e-07
-2.42305e-06
1.85673e-07
-2.97927e-06
2.85568e-07
-3.52223e-06
3.9838e-07
-4.04882e-06
5.19962e-07
-4.55523e-06
6.45529e-07
-5.03679e-06
7.69681e-07
-5.48778e-06
8.8648e-07
-5.90135e-06
9.89573e-07
-6.2693e-06
1.0724e-06
-6.58196e-06
1.12851e-06
-6.82803e-06
1.15197e-06
-6.99448e-06
1.13796e-06
-7.06657e-06
1.08343e-06
-7.02794e-06
9.87966e-07
-6.86099e-06
8.54638e-07
-6.54741e-06
6.90808e-07
-6.06921e-06
5.08722e-07
-5.41011e-06
3.25636e-07
-4.5573e-06
1.6326e-07
-3.50347e-06
4.63249e-08
-2.24893e-06
-8.04645e-07
5.43046e-08
8.87436e-07
1.9286e-07
2.47397e-06
3.8873e-07
3.84813e-06
6.15059e-07
4.99726e-06
8.47374e-07
5.91861e-06
1.0652e-06
6.61761e-06
1.25298e-06
7.10653e-06
1.40036e-06
7.40276e-06
1.50186e-06
7.52687e-06
1.55617e-06
7.5009e-06
1.56536e-06
7.34694e-06
1.53387e-06
7.08601e-06
1.46776e-06
6.73741e-06
1.37393e-06
6.31828e-06
1.25959e-06
5.84345e-06
1.13179e-06
5.32549e-06
9.97179e-07
4.77483e-06
8.61758e-07
4.19997e-06
7.30815e-07
3.60775e-06
6.08867e-07
3.00361e-06
4.99653e-07
2.39186e-06
4.06159e-07
1.77587e-06
3.30654e-07
1.15836e-06
2.74723e-07
5.41537e-07
2.39308e-07
-7.26722e-08
2.24739e-07
-6.82499e-07
2.30755e-07
-1.28617e-06
2.56518e-07
-1.88177e-06
3.00619e-07
-2.46715e-06
3.61077e-07
-3.03973e-06
4.3534e-07
-3.59649e-06
5.20275e-07
-4.13375e-06
6.12184e-07
-4.64714e-06
7.06818e-07
-5.13142e-06
7.99432e-07
-5.5804e-06
8.84868e-07
-5.98679e-06
9.57698e-07
-6.34213e-06
1.01243e-06
-6.63669e-06
1.0438e-06
-6.85939e-06
1.04715e-06
-6.99783e-06
1.01892e-06
-7.03834e-06
9.57223e-07
-6.96625e-06
8.62469e-07
-6.76623e-06
7.38009e-07
-6.42294e-06
5.90678e-07
-5.92188e-06
4.3113e-07
-5.25056e-06
2.73796e-07
-4.39996e-06
1.36328e-07
-3.366e-06
3.84424e-08
-2.15104e-06
-7.66203e-07
4.72108e-08
8.40226e-07
1.68764e-07
2.35241e-06
3.42558e-07
3.67434e-06
5.46384e-07
4.79343e-06
7.59636e-07
5.70536e-06
9.64595e-07
6.41265e-06
1.14726e-06
6.92387e-06
1.29771e-06
7.25231e-06
1.40997e-06
7.4146e-06
1.48168e-06
7.4292e-06
1.51342e-06
7.31521e-06
1.50804e-06
7.09138e-06
1.47005e-06
6.77541e-06
1.4049e-06
6.38342e-06
1.31858e-06
5.92977e-06
1.21715e-06
5.42693e-06
1.10645e-06
4.88553e-06
9.91919e-07
4.3145e-06
8.7843e-07
3.72124e-06
7.70239e-07
3.1118e-06
6.70942e-07
2.49116e-06
5.83472e-07
1.86334e-06
5.10116e-07
1.23171e-06
4.52535e-07
5.99118e-07
4.11792e-07
-3.19293e-08
3.88375e-07
-6.59083e-07
3.82219e-07
-1.28001e-06
3.92717e-07
-1.89227e-06
4.18729e-07
-2.49316e-06
4.58593e-07
-3.0796e-06
5.10122e-07
-3.64802e-06
5.70621e-07
-4.19425e-06
6.36894e-07
-4.71342e-06
7.05285e-07
-5.19981e-06
7.71731e-07
-5.64684e-06
8.31858e-07
-6.04692e-06
8.81117e-07
-6.39139e-06
9.14977e-07
-6.67055e-06
9.2919e-07
-6.87361e-06
9.2012e-07
-6.98876e-06
8.85147e-07
-7.00337e-06
8.23125e-07
-6.90423e-06
7.34864e-07
-6.67797e-06
6.23599e-07
-6.31168e-06
4.9535e-07
-5.79363e-06
3.59103e-07
-5.11432e-06
2.26687e-07
-4.26755e-06
1.12285e-07
-3.2516e-06
3.15145e-08
-2.07027e-06
-7.34688e-07
4.08083e-08
7.99417e-07
1.46676e-07
2.24655e-06
2.99463e-07
3.52155e-06
4.80831e-07
4.61206e-06
6.73523e-07
5.51267e-06
8.62369e-07
6.22381e-06
1.035e-06
6.75124e-06
1.1822e-06
7.10511e-06
1.29799e-06
7.29881e-06
1.37935e-06
7.34784e-06
1.42583e-06
7.26872e-06
1.43908e-06
7.07813e-06
1.42228e-06
6.79221e-06
1.37966e-06
6.42604e-06
1.31605e-06
5.99338e-06
1.23654e-06
5.50643e-06
1.14618e-06
4.97589e-06
1.04975e-06
4.41093e-06
9.51651e-07
3.81933e-06
8.55795e-07
3.20766e-06
7.6555e-07
2.5814e-06
6.83723e-07
1.94517e-06
6.12559e-07
1.30288e-06
5.53747e-07
6.5793e-07
5.08438e-07
1.33793e-08
4.77264e-07
-6.27908e-07
4.60351e-07
-1.2631e-06
4.57335e-07
-1.88926e-06
4.67372e-07
-2.5032e-06
4.89145e-07
-3.10137e-06
5.20879e-07
-3.67975e-06
5.60346e-07
-4.23372e-06
6.04894e-07
-4.75796e-06
6.51481e-07
-5.2464e-06
6.96731e-07
-5.69209e-06
7.37028e-07
-6.08721e-06
7.68638e-07
-6.423e-06
7.87882e-07
-6.6898e-06
7.91362e-07
-6.87709e-06
7.76237e-07
-6.97363e-06
7.40549e-07
-6.96768e-06
6.83586e-07
-6.84726e-06
6.06245e-07
-6.60063e-06
5.11374e-07
-6.21681e-06
4.04008e-07
-5.68627e-06
2.91466e-07
-5.00178e-06
1.83207e-07
-4.15929e-06
9.04146e-08
-3.15881e-06
2.52932e-08
-2.00515e-06
-7.09395e-07
3.49275e-08
7.6449e-07
1.26122e-07
2.15535e-06
2.58758e-07
3.38892e-06
4.17783e-07
4.45304e-06
5.88862e-07
5.34159e-06
7.59165e-07
6.05351e-06
9.17954e-07
6.59245e-06
1.05694e-06
6.96613e-06
1.17037e-06
7.18537e-06
1.25497e-06
7.26324e-06
1.30961e-06
7.21408e-06
1.33501e-06
7.05273e-06
1.33331e-06
6.79391e-06
1.30766e-06
6.45169e-06
1.26189e-06
6.03915e-06
1.20016e-06
5.56816e-06
1.12672e-06
5.04934e-06
1.04569e-06
4.49196e-06
9.60953e-07
3.90407e-06
8.76005e-07
3.29261e-06
7.93931e-07
2.66348e-06
7.17352e-07
2.02175e-06
6.48415e-07
1.37181e-06
5.88794e-07
7.17551e-07
5.39697e-07
6.24767e-08
5.01875e-07
-5.90087e-07
4.75639e-07
-1.23686e-06
4.60868e-07
-1.87449e-06
4.57023e-07
-2.49935e-06
4.63153e-07
-3.1075e-06
4.77908e-07
-3.69451e-06
4.99556e-07
-4.25537e-06
5.26e-07
-4.78441e-06
5.54814e-07
-5.27521e-06
5.83301e-07
-5.72058e-06
6.08562e-07
-6.11247e-06
6.27611e-07
-6.44205e-06
6.37513e-07
-6.6997e-06
6.35574e-07
-6.87515e-06
6.19561e-07
-6.95762e-06
5.87959e-07
-6.93608e-06
5.40252e-07
-6.79956e-06
4.77201e-07
-6.53758e-06
4.01083e-07
-6.14069e-06
3.15863e-07
-5.60105e-06
2.27231e-07
-4.91314e-06
1.42479e-07
-4.07453e-06
7.01681e-08
-3.0865e-06
1.95938e-08
-1.95457e-06
-6.89801e-07
2.94408e-08
7.35049e-07
1.06735e-07
2.07806e-06
2.19897e-07
3.27575e-06
3.56711e-07
4.31623e-06
5.0543e-07
5.19287e-06
6.55374e-07
5.90356e-06
7.97408e-07
6.45042e-06
9.2426e-07
6.83927e-06
1.03065e-06
7.07899e-06
1.11326e-06
7.18063e-06
1.17059e-06
7.15675e-06
1.20267e-06
7.02064e-06
1.21084e-06
6.78575e-06
1.19734e-06
6.46519e-06
1.16509e-06
6.07139e-06
1.11743e-06
5.61583e-06
1.05781e-06
5.10895e-06
9.89716e-07
4.56005e-06
9.16454e-07
3.97734e-06
8.41092e-07
3.36797e-06
7.66374e-07
2.73819e-06
6.94688e-07
2.09343e-06
6.28039e-07
1.43846e-06
5.68044e-07
7.77546e-07
5.15933e-07
1.14587e-07
4.72556e-07
-5.4671e-07
4.38391e-07
-1.2027e-06
4.13555e-07
-1.84965e-06
3.97809e-07
-2.4836e-06
3.90575e-07
-3.10027e-06
3.90939e-07
-3.69487e-06
3.97664e-07
-4.26209e-06
4.09214e-07
-4.79596e-06
4.23776e-07
-5.28978e-06
4.39302e-07
-5.73611e-06
4.53576e-07
-6.12675e-06
4.6429e-07
-6.45277e-06
4.69164e-07
-6.70457e-06
4.66084e-07
-6.87207e-06
4.53275e-07
-6.94481e-06
4.29498e-07
-6.9123e-06
3.94263e-07
-6.76432e-06
3.48031e-07
-6.49135e-06
2.92396e-07
-6.08506e-06
2.30204e-07
-5.53885e-06
1.65576e-07
-4.84851e-06
1.03807e-07
-4.01277e-06
5.11206e-08
-3.03381e-06
1.4276e-08
-1.91773e-06
-6.75525e-07
2.42495e-08
7.108e-07
8.82287e-08
2.01408e-06
1.8244e-07
3.18154e-06
2.9717e-07
4.2015e-06
4.22995e-07
5.06705e-06
5.51225e-07
5.77533e-06
6.74286e-07
6.32736e-06
7.85979e-07
6.72758e-06
8.81628e-07
6.98334e-06
9.58089e-07
7.10417e-06
1.01367e-06
7.10117e-06
1.04797e-06
6.98635e-06
1.06165e-06
6.77207e-06
1.05624e-06
6.4706e-06
1.03387e-06
6.09376e-06
9.97078e-07
5.65262e-06
9.48622e-07
5.15741e-06
8.91314e-07
4.61736e-06
8.27906e-07
4.04074e-06
7.60995e-07
3.43488e-06
6.92957e-07
2.80623e-06
6.25904e-07
2.16049e-06
5.6166e-07
1.50271e-06
5.01751e-07
8.37455e-07
4.47396e-07
1.68942e-07
3.99515e-07
-4.98829e-07
3.58735e-07
-1.16192e-06
3.25393e-07
-1.81631e-06
2.99549e-07
-2.45776e-06
2.80988e-07
-3.0817e-06
2.69228e-07
-3.68311e-06
2.6353e-07
-4.2564e-06
2.62909e-07
-4.79534e-06
2.66149e-07
-5.29302e-06
2.71835e-07
-5.74179e-06
2.78389e-07
-6.1333e-06
2.84134e-07
-6.45851e-06
2.87363e-07
-6.7078e-06
2.86451e-07
-6.87116e-06
2.7997e-07
-6.93833e-06
2.66834e-07
-6.89916e-06
2.46453e-07
-6.74394e-06
2.18886e-07
-6.46378e-06
1.8497e-07
-6.05114e-06
1.46415e-07
-5.5003e-06
1.05824e-07
-4.80792e-06
6.66325e-08
-3.97357e-06
3.29379e-08
-3.00012e-06
9.23109e-09
-1.89402e-06
-6.66294e-07
1.92755e-08
6.91524e-07
7.0371e-08
1.96298e-06
1.46023e-07
3.10589e-06
2.38775e-07
4.10874e-06
3.41324e-07
4.9645e-06
4.46846e-07
5.66981e-06
5.49274e-07
6.22493e-06
6.43519e-07
6.63334e-06
7.25599e-07
6.90126e-06
7.92684e-07
7.03709e-06
8.43057e-07
7.0508e-06
8.76022e-07
6.95338e-06
8.91765e-07
6.75633e-06
8.91186e-07
6.47118e-06
8.75735e-07
6.10921e-06
8.47246e-07
5.68111e-06
8.0779e-07
5.19686e-06
7.59546e-07
4.6656e-06
7.04701e-07
4.09559e-06
6.45369e-07
3.49421e-06
5.83531e-07
2.86807e-06
5.20993e-07
2.22302e-06
4.59364e-07
1.56434e-06
4.00041e-07
8.96778e-07
3.44203e-07
2.2478e-07
2.92815e-07
-4.47441e-07
2.46626e-07
-1.11573e-06
2.06178e-07
-1.77586e-06
1.7181e-07
-2.42339e-06
1.43661e-07
-3.05356e-06
1.21673e-07
-3.66112e-06
1.05594e-07
-4.24032e-06
9.49801e-08
-4.78472e-06
8.92008e-08
-5.28724e-06
8.74497e-08
-5.74004e-06
8.87622e-08
-6.13461e-06
9.20446e-08
-6.46179e-06
9.61171e-08
-6.71188e-06
9.97733e-08
-6.87481e-06
1.01856e-07
-6.94041e-06
1.01351e-07
-6.89866e-06
9.74905e-08
-6.74008e-06
8.98594e-08
-6.45615e-06
7.8497e-08
-6.03978e-06
6.39718e-08
-5.48577e-06
4.7416e-08
-4.79137e-06
3.05025e-08
-3.95666e-06
1.5353e-08
-2.98497e-06
4.3734e-09
-1.88304e-06
-6.61921e-07
1.44541e-08
6.7707e-07
5.2969e-08
1.92447e-06
1.10336e-07
3.04852e-06
1.81184e-07
4.0379e-06
2.60188e-07
4.88549e-06
3.42289e-07
5.58771e-06
4.2289e-07
6.14433e-06
4.98025e-07
6.5582e-06
5.6447e-07
6.83481e-06
6.19801e-07
6.98176e-06
6.62396e-07
7.0082e-06
6.91393e-07
6.92439e-06
7.06602e-07
6.74112e-06
7.08412e-07
6.46937e-06
6.97667e-07
6.11995e-06
6.75557e-07
5.70322e-06
6.43507e-07
5.22891e-06
6.03083e-07
4.70603e-06
5.55909e-07
4.14276e-06
5.03605e-07
3.54652e-06
4.47736e-07
2.92394e-06
3.89775e-07
2.28098e-06
3.31087e-07
1.62302e-06
2.72911e-07
9.54954e-07
2.16356e-07
2.81336e-07
1.62397e-07
-3.93483e-07
1.11885e-07
-1.06522e-06
6.55427e-08
-1.72952e-06
2.39693e-08
-2.38182e-06
-1.23584e-08
-3.01723e-06
-4.3088e-08
-3.63039e-06
-6.79967e-08
-4.21541e-06
-8.69981e-08
-4.76572e-06
-1.0015e-07
-5.27408e-06
-1.07665e-07
-5.73253e-06
-1.09914e-07
-6.13237e-06
-1.07427e-07
-6.46428e-06
-1.00893e-07
-6.71841e-06
-9.11331e-08
-6.88457e-06
-7.90766e-08
-6.95247e-06
-6.57136e-08
-6.91202e-06
-5.20354e-08
-6.75376e-06
-3.89657e-08
-6.46922e-06
-2.72858e-08
-6.05146e-06
-1.75663e-08
-5.49549e-06
-1.01153e-08
-4.79882e-06