/*--------------------------------*- C++ -*----------------------------------*\
  =========                 |
  \\      /  F ield         | OpenFOAM: The Open Source CFD Toolbox
   \\    /   O peration     | Website:  https://openfoam.org
    \\  /    A nd           | Version:  7
     \\/     M anipulation  |
\*---------------------------------------------------------------------------*/
FoamFile
{
    version     2.0;
    format      ascii;
    class       volVectorField;
    location    "0.0458";
    object      U;
}
// * * * * * * * * * * * * * * * * * * * * * * * * * * * * * * * * * * * * * //

dimensions      [0 1 -1 0 0 0 0];

internalField   nonuniform List<vector> 
2500
(
(-0.293804 0.153726 0)
(-0.397945 0.128724 0)
(-0.57798 0.0737919 0)
(-0.696258 0.0408712 0)
(-0.765221 0.0233884 0)
(-0.809526 0.0141336 0)
(-0.840079 0.00914706 0)
(-0.86213 0.00633853 0)
(-0.878711 0.00464923 0)
(-0.891609 0.0035592 0)
(-0.901897 0.0028103 0)
(-0.910256 0.00226853 0)
(-0.91714 0.00186008 0)
(-0.922863 0.00154166 0)
(-0.927649 0.0012863 0)
(-0.931662 0.00107636 0)
(-0.935023 0.000899765 0)
(-0.937824 0.000747958 0)
(-0.940134 0.000614706 0)
(-0.942005 0.000495335 0)
(-0.943477 0.000386251 0)
(-0.944578 0.000284618 0)
(-0.94533 0.000188132 0)
(-0.945747 9.48606e-05 0)
(-0.945837 3.12266e-06 0)
(-0.945602 -8.86458e-05 0)
(-0.94504 -0.000181905 0)
(-0.944145 -0.000278151 0)
(-0.942903 -0.000378985 0)
(-0.941298 -0.000486219 0)
(-0.939305 -0.000601994 0)
(-0.936891 -0.000728953 0)
(-0.934015 -0.000870471 0)
(-0.930625 -0.00103099 0)
(-0.92665 -0.00121654 0)
(-0.922 -0.00143551 0)
(-0.916554 -0.00169998 0)
(-0.910152 -0.00202795 0)
(-0.902572 -0.00244748 0)
(-0.893502 -0.00300456 0)
(-0.882488 -0.00377881 0)
(-0.868845 -0.00491571 0)
(-0.851487 -0.00669402 0)
(-0.828612 -0.00966494 0)
(-0.797202 -0.0149157 0)
(-0.752111 -0.0245 0)
(-0.682594 -0.0421523 0)
(-0.564964 -0.0746226 0)
(-0.389324 -0.128131 0)
(-0.290208 -0.152373 0)
(-0.00516347 0.302915 0)
(-0.0270625 0.307343 0)
(-0.171307 0.217774 0)
(-0.308136 0.146547 0)
(-0.416993 0.0991612 0)
(-0.502148 0.0688903 0)
(-0.568445 0.0496288 0)
(-0.620291 0.0370793 0)
(-0.661369 0.0285877 0)
(-0.694405 0.0226062 0)
(-0.721338 0.0182326 0)
(-0.743546 0.0149274 0)
(-0.762023 0.0123562 0)
(-0.777493 0.0103043 0)
(-0.790493 0.0086286 0)
(-0.801426 0.00723039 0)
(-0.810595 0.00603979 0)
(-0.818235 0.00500593 0)
(-0.824522 0.00409086 0)
(-0.829595 0.00326566 0)
(-0.833556 0.00250773 0)
(-0.836484 0.00179903 0)
(-0.838435 0.00112471 0)
(-0.839447 0.000472204 0)
(-0.839542 -0.000169535 0)
(-0.838729 -0.000810651 0)
(-0.837003 -0.00146088 0)
(-0.834346 -0.00213006 0)
(-0.830727 -0.00282873 0)
(-0.8261 -0.00356865 0)
(-0.820402 -0.00436361 0)
(-0.813551 -0.00523042 0)
(-0.805441 -0.00619017 0)
(-0.795935 -0.00727018 0)
(-0.78486 -0.00850662 0)
(-0.77199 -0.00994861 0)
(-0.757032 -0.0116644 0)
(-0.739603 -0.0137511 0)
(-0.71919 -0.0163513 0)
(-0.695104 -0.0196801 0)
(-0.666403 -0.0240732 0)
(-0.631785 -0.0300715 0)
(-0.589434 -0.0385703 0)
(-0.53683 -0.051081 0)
(-0.470653 -0.07013 0)
(-0.387053 -0.0996628 0)
(-0.281843 -0.145097 0)
(-0.15154 -0.212626 0)
(-0.0164564 -0.298206 0)
(-0.000989567 -0.294682 0)
(0.0321118 0.264061 0)
(0.0563819 0.362321 0)
(-0.00358056 0.324913 0)
(-0.0957666 0.260427 0)
(-0.192036 0.200728 0)
(-0.280697 0.15366 0)
(-0.357633 0.118696 0)
(-0.422635 0.0930848 0)
(-0.477059 0.0741903 0)
(-0.522592 0.0600242 0)
(-0.560786 0.0491911 0)
(-0.592947 0.0407328 0)
(-0.620122 0.0339917 0)
(-0.643139 0.0285114 0)
(-0.662646 0.0239701 0)
(-0.679154 0.0201364 0)
(-0.693059 0.0168409 0)
(-0.704675 0.013957 0)
(-0.714245 0.0113887 0)
(-0.721961 0.00906117 0)
(-0.72797 0.00691552 0)
(-0.732384 0.00490399 0)
(-0.735283 0.00298697 0)
(-0.736726 0.00113069 0)
(-0.736745 -0.000694697 0)
(-0.735356 -0.00251659 0)
(-0.732554 -0.00436134 0)
(-0.728315 -0.00625552 0)
(-0.722598 -0.00822728 0)
(-0.71534 -0.0103079 0)
(-0.706456 -0.0125336 0)
(-0.695836 -0.0149478 0)
(-0.683339 -0.0176046 0)
(-0.668785 -0.0205724 0)
(-0.651949 -0.0239402 0)
(-0.632548 -0.0278262 0)
(-0.610222 -0.0323893 0)
(-0.584519 -0.0378482 0)
(-0.554867 -0.0445078 0)
(-0.520542 -0.0528005 0)
(-0.480642 -0.063347 0)
(-0.434066 -0.0770445 0)
(-0.379539 -0.0951819 0)
(-0.315759 -0.119564 0)
(-0.241856 -0.152521 0)
(-0.15852 -0.196376 0)
(-0.0700667 -0.251287 0)
(0.0121975 -0.309924 0)
(0.0619988 -0.343256 0)
(0.0330287 -0.249924 0)
(0.0271504 0.205251 0)
(0.0637506 0.35781 0)
(0.055151 0.375612 0)
(0.00790703 0.33844 0)
(-0.0595989 0.285772 0)
(-0.133039 0.234884 0)
(-0.204263 0.191536 0)
(-0.269496 0.156418 0)
(-0.327477 0.128476 0)
(-0.3782 0.106293 0)
(-0.422211 0.0885732 0)
(-0.460233 0.0742653 0)
(-0.493 0.0625604 0)
(-0.521177 0.0528464 0)
(-0.545339 0.0446628 0)
(-0.565966 0.0376617 0)
(-0.583459 0.0315779 0)
(-0.598142 0.0262071 0)
(-0.610278 0.0213901 0)
(-0.620078 0.0170006 0)
(-0.627708 0.012937 0)
(-0.633297 0.00911603 0)
(-0.63694 0.00546786 0)
(-0.638705 0.00193235 0)
(-0.638636 -0.00154387 0)
(-0.636751 -0.00500992 0)
(-0.633051 -0.00851294 0)
(-0.627512 -0.0121002 0)
(-0.620091 -0.0158213 0)
(-0.610723 -0.0197308 0)
(-0.599319 -0.0238907 0)
(-0.585765 -0.0283747 0)
(-0.569915 -0.033272 0)
(-0.551591 -0.0386938 0)
(-0.530573 -0.044781 0)
(-0.506595 -0.051715 0)
(-0.479337 -0.0597322 0)
(-0.448419 -0.0691434 0)
(-0.413401 -0.0803597 0)
(-0.373788 -0.0939254 0)
(-0.329067 -0.110555 0)
(-0.278783 -0.131166 0)
(-0.222714 -0.156867 0)
(-0.16121 -0.188835 0)
(-0.0958194 -0.227866 0)
(-0.0303449 -0.273139 0)
(0.0275639 -0.319293 0)
(0.0649077 -0.350754 0)
(0.0657182 -0.331947 0)
(0.0268664 -0.189935 0)
(0.0184536 0.163474 0)
(0.0530899 0.331588 0)
(0.0684833 0.387007 0)
(0.052778 0.379727 0)
(0.0131349 0.344062 0)
(-0.0397294 0.299583 0)
(-0.0976556 0.255846 0)
(-0.155445 0.216699 0)
(-0.210163 0.183143 0)
(-0.26039 0.154929 0)
(-0.305617 0.131354 0)
(-0.345837 0.111629 0)
(-0.381294 0.0950257 0)
(-0.412334 0.0809271 0)
(-0.439327 0.0688261 0)
(-0.46263 0.0583147 0)
(-0.482564 0.049066 0)
(-0.499407 0.0408181 0)
(-0.513399 0.0333597 0)
(-0.524737 0.0265192 0)
(-0.533582 0.0201555 0)
(-0.540063 0.0141507 0)
(-0.544277 0.00840453 0)
(-0.546297 0.00282996 0)
(-0.54617 -0.00265086 0)
(-0.543921 -0.00810971 0)
(-0.539555 -0.0136153 0)
(-0.533056 -0.019236 0)
(-0.524388 -0.0250428 0)
(-0.513495 -0.0311126 0)
(-0.500302 -0.0375313 0)
(-0.484711 -0.0443987 0)
(-0.466603 -0.051833 0)
(-0.445835 -0.0599774 0)
(-0.422239 -0.0690083 0)
(-0.395625 -0.0791443 0)
(-0.365786 -0.0906584 0)
(-0.332505 -0.103891 0)
(-0.295581 -0.119263 0)
(-0.25487 -0.137283 0)
(-0.210358 -0.158542 0)
(-0.162298 -0.183665 0)
(-0.111428 -0.213174 0)
(-0.0593133 -0.247166 0)
(-0.00883575 -0.284626 0)
(0.0352342 -0.322061 0)
(0.065718 -0.351041 0)
(0.0734727 -0.354401 0)
(0.0532038 -0.301826 0)
(0.0179094 -0.14836 0)
(0.0119525 0.134687 0)
(0.0407995 0.300644 0)
(0.0652099 0.378089 0)
(0.0683906 0.395692 0)
(0.0501265 0.379084 0)
(0.0164705 0.346083 0)
(-0.0263154 0.307459 0)
(-0.0732369 0.269003 0)
(-0.120779 0.233431 0)
(-0.166709 0.201728 0)
(-0.209745 0.173992 0)
(-0.249235 0.149914 0)
(-0.284928 0.129031 0)
(-0.316805 0.110858 0)
(-0.344975 0.0949418 0)
(-0.36961 0.0808842 0)
(-0.390903 0.0683443 0)
(-0.409045 0.0570344 0)
(-0.424215 0.0467134 0)
(-0.436572 0.0371787 0)
(-0.446251 0.0282589 0)
(-0.453364 0.0198083 0)
(-0.458002 0.0117007 0)
(-0.460234 0.00382494 0)
(-0.460106 -0.00391883 0)
(-0.457649 -0.011623 0)
(-0.452874 -0.0193759 0)
(-0.445776 -0.0272644 0)
(-0.436334 -0.0353779 0)
(-0.424511 -0.043811 0)
(-0.410258 -0.0526675 0)
(-0.393511 -0.0620648 0)
(-0.374196 -0.0721379 0)
(-0.352232 -0.0830453 0)
(-0.327532 -0.0949744 0)
(-0.300016 -0.108148 0)
(-0.269625 -0.122828 0)
(-0.236342 -0.139318 0)
(-0.20023 -0.157962 0)
(-0.161491 -0.179115 0)
(-0.120559 -0.2031 0)
(-0.0782305 -0.230095 0)
(-0.0358539 -0.259915 0)
(0.0044329 -0.291613 0)
(0.0394654 -0.322784 0)
(0.0649548 -0.348435 0)
(0.0757305 -0.359377 0)
(0.0670502 -0.34035 0)
(0.0401161 -0.26908 0)
(0.0114453 -0.120089 0)
(0.00786683 0.114166 0)
(0.0310403 0.271411 0)
(0.0572636 0.360122 0)
(0.0704739 0.395886 0)
(0.0667894 0.396435 0)
(0.0485581 0.376298 0)
(0.0197493 0.345728 0)
(-0.0156667 0.31125 0)
(-0.0543715 0.276648 0)
(-0.0938921 0.243899 0)
(-0.13253 0.213869 0)
(-0.169196 0.186796 0)
(-0.203239 0.162578 0)
(-0.234312 0.140958 0)
(-0.262261 0.121617 0)
(-0.287059 0.10423 0)
(-0.308748 0.0884912 0)
(-0.327409 0.0741229 0)
(-0.343139 0.0608807 0)
(-0.356038 0.0485502 0)
(-0.366202 0.0369446 0)
(-0.373714 0.0259003 0)
(-0.378648 0.0152729 0)
(-0.381061 0.00493378 0)
(-0.381 -0.00523418 0)
(-0.378495 -0.0153394 0)
(-0.373566 -0.0254851 0)
(-0.36622 -0.0357722 0)
(-0.356456 -0.0463026 0)
(-0.344262 -0.0571821 0)
(-0.329624 -0.0685236 0)
(-0.312521 -0.0804508 0)
(-0.292937 -0.0931011 0)
(-0.270861 -0.106629 0)
(-0.246304 -0.121208 0)
(-0.219303 -0.137032 0)
(-0.18995 -0.154312 0)
(-0.158418 -0.173266 0)
(-0.125002 -0.194094 0)
(-0.0901809 -0.216939 0)
(-0.0546974 -0.241801 0)
(-0.0196612 -0.268396 0)
(0.0133325 -0.295917 0)
(0.0420971 -0.322649 0)
(0.0638352 -0.345405 0)
(0.075347 -0.358757 0)
(0.0736039 -0.354177 0)
(0.0571137 -0.319462 0)
(0.0300125 -0.239389 0)
(0.00744262 -0.100214 0)
(0.00541983 0.0990771 0)
(0.0240217 0.245696 0)
(0.0490139 0.338918 0)
(0.0668652 0.386875 0)
(0.0723895 0.401319 0)
(0.0655473 0.393353 0)
(0.0483492 0.371861 0)
(0.0235347 0.343238 0)
(-0.0061747 0.311723 0)
(-0.0384619 0.279924 0)
(-0.0715277 0.249315 0)
(-0.10406 0.220631 0)
(-0.13515 0.194149 0)
(-0.164199 0.169879 0)
(-0.190835 0.147687 0)
(-0.214845 0.127369 0)
(-0.236123 0.108692 0)
(-0.254633 0.0914234 0)
(-0.270383 0.0753414 0)
(-0.283405 0.0602407 0)
(-0.293743 0.0459346 0)
(-0.301447 0.0322547 0)
(-0.306564 0.0190486 0)
(-0.309138 0.00617812 0)
(-0.309207 -0.00648381 0)
(-0.306804 -0.0190553 0)
(-0.301953 -0.0316485 0)
(-0.294678 -0.0443716 0)
(-0.284996 -0.0573323 0)
(-0.272926 -0.0706392 0)
(-0.258487 -0.0844048 0)
(-0.241708 -0.0987474 0)
(-0.222631 -0.113792 0)
(-0.201322 -0.129673 0)
(-0.177878 -0.146527 0)
(-0.15245 -0.164495 0)
(-0.125261 -0.183708 0)
(-0.0966359 -0.204265 0)
(-0.0670408 -0.226203 0)
(-0.0371326 -0.249434 0)
(-0.00781632 -0.273653 0)
(0.0196947 -0.298187 0)
(0.0438313 -0.321781 0)
(0.0626698 -0.342284 0)
(0.0740515 -0.356252 0)
(0.0759218 -0.358509 0)
(0.0669456 -0.341823 0)
(0.0475849 -0.297003 0)
(0.0228148 -0.21405 0)
(0.00505665 -0.0858243 0)
(0.0039354 0.0875743 0)
(0.0190596 0.22357 0)
(0.0417843 0.317345 0)
(0.0612594 0.372935 0)
(0.072227 0.397927 0)
(0.0733331 0.400485 0)
(0.0651756 0.387873 0)
(0.0493834 0.365869 0)
(0.0279616 0.338709 0)
(0.0028595 0.309293 0)
(-0.0242397 0.279493 0)
(-0.0519835 0.250433 0)
(-0.0793404 0.222726 0)
(-0.105555 0.196648 0)
(-0.130096 0.172265 0)
(-0.1526 0.149519 0)
(-0.172834 0.12828 0)
(-0.190652 0.108383 0)
(-0.205976 0.0896527 0)
(-0.218766 0.0719108 0)
(-0.229015 0.0549874 0)
(-0.236731 0.038722 0)
(-0.241933 0.0229652 0)
(-0.244648 0.00757865 0)
(-0.244904 -0.00756657 0)
(-0.24273 -0.0225909 0)
(-0.238159 -0.037608 0)
(-0.231224 -0.0527268 0)
(-0.221964 -0.0680525 0)
(-0.210423 -0.0836887 0)
(-0.196659 -0.0997381 0)
(-0.180743 -0.116303 0)
(-0.162775 -0.133484 0)
(-0.142884 -0.151379 0)
(-0.121247 -0.170077 0)
(-0.0981048 -0.189648 0)
(-0.073779 -0.210128 0)
(-0.0487006 -0.231491 0)
(-0.0234387 -0.253609 0)
(0.00126614 -0.276185 0)
(0.0244699 -0.298665 0)
(0.0450048 -0.320103 0)
(0.061488 -0.338981 0)
(0.0723905 -0.352993 0)
(0.0762192 -0.358795 0)
(0.0718702 -0.351815 0)
(0.0591487 -0.326239 0)
(0.0395032 -0.275385 0)
(0.0177382 -0.192835 0)
(0.00360873 -0.0750491 0)
(0.00299678 0.0784845 0)
(0.0155009 0.204585 0)
(0.0357882 0.296711 0)
(0.0552928 0.356685 0)
(0.0692211 0.389323 0)
(0.075623 0.400485 0)
(0.0741895 0.395898 0)
(0.0656813 0.380523 0)
(0.0514299 0.358299 0)
(0.0329437 0.332162 0)
(0.0116693 0.304184 0)
(-0.0111269 0.275748 0)
(-0.0344005 0.247731 0)
(-0.0573267 0.220641 0)
(-0.0792765 0.194737 0)
(-0.0997842 0.17011 0)
(-0.118514 0.146746 0)
(-0.135233 0.124566 0)
(-0.149781 0.103456 0)
(-0.162057 0.0832809 0)
(-0.172 0.0639006 0)
(-0.17958 0.0451749 0)
(-0.184786 0.026968 0)
(-0.187622 0.00915058 0)
(-0.188107 -0.00839974 0)
(-0.186265 -0.025798 0)
(-0.182132 -0.0431523 0)
(-0.175751 -0.0605645 0)
(-0.167178 -0.0781309 0)
(-0.156482 -0.0959418 0)
(-0.14375 -0.114082 0)
(-0.129095 -0.132629 0)
(-0.112659 -0.15165 0)
(-0.0946271 -0.171199 0)
(-0.0752354 -0.191305 0)
(-0.0547879 -0.211965 0)
(-0.0336715 -0.233116 0)
(-0.0123759 -0.254614 0)
(0.00848775 -0.276184 0)
(0.0281696 -0.297365 0)
(0.0457725 -0.317425 0)
(0.0602617 -0.335253 0)
(0.070509 -0.349232 0)
(0.075394 -0.357097 0)
(0.0739964 -0.355807 0)
(0.0659051 -0.341513 0)
(0.0516038 -0.309687 0)
(0.0329217 -0.255578 0)
(0.0140982 -0.17512 0)
(0.00269154 -0.0667117 0)
(0.00237169 0.0710837 0)
(0.0128794 0.188219 0)
(0.0308858 0.277533 0)
(0.0496225 0.339665 0)
(0.0649303 0.377626 0)
(0.0746891 0.395556 0)
(0.0780682 0.39787 0)
(0.0752113 0.388679 0)
(0.066891 0.371486 0)
(0.0541883 0.349085 0)
(0.0382664 0.323587 0)
(0.0202327 0.296519 0)
(0.00106754 0.268937 0)
(-0.0184043 0.241532 0)
(-0.0375143 0.214729 0)
(-0.0557363 0.188761 0)
(-0.0726669 0.163731 0)
(-0.0880039 0.139652 0)
(-0.101526 0.116479 0)
(-0.113077 0.0941323 0)
(-0.12255 0.0725122 0)
(-0.129876 0.0515089 0)
(-0.135015 0.0310093 0)
(-0.137954 0.0109016 0)
(-0.138695 -0.00892206 0)
(-0.137258 -0.028564 0)
(-0.133679 -0.0481201 0)
(-0.128008 -0.0676785 0)
(-0.120315 -0.0873196 0)
(-0.110686 -0.107114 0)
(-0.0992341 -0.127123 0)
(-0.0861004 -0.147392 0)
(-0.0714627 -0.167951 0)
(-0.055543 -0.188803 0)
(-0.0386178 -0.209917 0)
(-0.0210292 -0.231215 0)
(-0.00319657 -0.252545 0)
(0.0143719 -0.27366 0)
(0.0310696 -0.294168 0)
(0.0461889 -0.313491 0)
(0.0589292 -0.330786 0)
(0.0684266 -0.344877 0)
(0.0738153 -0.354161 0)
(0.0743359 -0.356532 0)
(0.0695097 -0.349345 0)
(0.0593836 -0.32945 0)
(0.0447927 -0.2934 0)
(0.0276103 -0.237855 0)
(0.0114193 -0.160273 0)
(0.00208019 -0.0600842 0)
(0.00193294 0.0649172 0)
(0.0108874 0.174011 0)
(0.026861 0.259954 0)
(0.04446 0.322757 0)
(0.06016 0.364261 0)
(0.0718983 0.387363 0)
(0.0785865 0.39541 0)
(0.0799635 0.391734 0)
(0.076375 0.379351 0)
(0.0685312 0.360812 0)
(0.0573136 0.338159 0)
(0.0436398 0.312962 0)
(0.0283798 0.286379 0)
(0.0123093 0.259231 0)
(-0.00390918 0.232075 0)
(-0.0197277 0.205267 0)
(-0.0347054 0.179017 0)
(-0.0484956 0.153429 0)
(-0.060832 0.128532 0)
(-0.0715148 0.104307 0)
(-0.0803989 0.0807007 0)
(-0.0873832 0.0576421 0)
(-0.0924031 0.0350481 0)
(-0.0954233 0.0128317 0)
(-0.0964341 -0.00909398 0)
(-0.0954479 -0.0308122 0)
(-0.0924984 -0.0524001 0)
(-0.0876396 -0.073927 0)
(-0.0809481 -0.0954518 0)
(-0.0725246 -0.117021 0)
(-0.0624978 -0.138666 0)
(-0.0510291 -0.1604 0)
(-0.0383181 -0.182207 0)
(-0.0246097 -0.204045 0)
(-0.0102012 -0.225821 0)
(0.00455004 -0.24739 0)
(0.0192192 -0.268524 0)
(0.0333095 -0.288889 0)
(0.0462509 -0.308014 0)
(0.0574079 -0.325243 0)
(0.0660986 -0.339686 0)
(0.0716343 -0.350167 0)
(0.0733852 -0.355174 0)
(0.0708824 -0.352823 0)
(0.0639613 -0.340872 0)
(0.0529442 -0.316799 0)
(0.0388071 -0.278014 0)
(0.0233005 -0.222187 0)
(0.00938943 -0.147758 0)
(0.00165165 -0.054706 0)
(0.00160974 0.0596894 0)
(0.00932584 0.161594 0)
(0.0235139 0.243957 0)
(0.0398265 0.306456 0)
(0.0553082 0.35018 0)
(0.0680611 0.377133 0)
(0.076907 0.389824 0)
(0.0813409 0.390913 0)
(0.081403 0.38294 0)
(0.0775047 0.368165 0)
(0.0702744 0.348494 0)
(0.0604378 0.325466 0)
(0.0487331 0.300278 0)
(0.0358566 0.273829 0)
(0.0224326 0.246772 0)
(0.00899995 0.219562 0)
(-0.0039895 0.192503 0)
(-0.0161666 0.165782 0)
(-0.0272366 0.139501 0)
(-0.0369696 0.113701 0)
(-0.0451917 0.0883825 0)
(-0.051776 0.0635148 0)
(-0.0566355 0.0390509 0)
(-0.0597176 0.0149341 0)
(-0.0609993 -0.00889597 0)
(-0.0604848 -0.0324984 0)
(-0.0582031 -0.0559271 0)
(-0.0542085 -0.0792276 0)
(-0.0485807 -0.102434 0)
(-0.041427 -0.125564 0)
(-0.0328849 -0.148618 0)
(-0.0231262 -0.171572 0)
(-0.0123609 -0.194371 0)
(-0.000842446 -0.216921 0)
(0.0111273 -0.23908 0)
(0.023194 -0.26064 0)
(0.0349478 -0.281312 0)
(0.0459237 -0.300701 0)
(0.0556073 -0.318279 0)
(0.0634484 -0.333353 0)
(0.0688864 -0.345031 0)
(0.0713929 -0.352184 0)
(0.0705341 -0.35343 0)
(0.0660585 -0.347127 0)
(0.0580093 -0.33141 0)
(0.0468544 -0.304289 0)
(0.0335849 -0.263831 0)
(0.019759 -0.208429 0)
(0.00780629 -0.137155 0)
(0.0013372 -0.050275 0)
(0.00136138 0.0552014 0)
(0.0080646 0.150683 0)
(0.0206823 0.229459 0)
(0.0356696 0.291037 0)
(0.0505569 0.336015 0)
(0.0636517 0.365761 0)
(0.0737855 0.382141 0)
(0.0803241 0.387252 0)
(0.083102 0.383202 0)
(0.0823031 0.371954 0)
(0.0783434 0.355238 0)
(0.0717713 0.334514 0)
(0.0631897 0.310969 0)
(0.0532006 0.285539 0)
(0.0423692 0.258937 0)
(0.0312036 0.231693 0)
(0.0201452 0.204187 0)
(0.00956737 0.176678 0)
(-0.000222486 0.149337 0)
(-0.00897699 0.122264 0)
(-0.0165027 0.0955088 0)
(-0.0226537 0.0690874 0)
(-0.0273256 0.0429911 0)
(-0.0304509 0.0171968 0)
(-0.0319945 -0.00832569 0)
(-0.0319514 -0.0336074 0)
(-0.0303447 -0.0586755 0)
(-0.0272253 -0.0835487 0)
(-0.0226717 -0.108233 0)
(-0.0167919 -0.132717 0)
(-0.00972505 -0.156968 0)
(-0.00164432 -0.180924 0)
(0.00724007 -0.204493 0)
(0.0166777 -0.227535 0)
(0.0263755 -0.249861 0)
(0.0359956 -0.271215 0)
(0.0451571 -0.29126 0)
(0.0534391 -0.309557 0)
(0.0603912 -0.325549 0)
(0.0655503 -0.338534 0)
(0.0684684 -0.347644 0)
(0.0687532 -0.351829 0)
(0.0661239 -0.349853 0)
(0.0604821 -0.340309 0)
(0.0519974 -0.321664 0)
(0.041196 -0.292364 0)
(0.0290144 -0.250977 0)
(0.0168007 -0.196408 0)
(0.00653686 -0.128139 0)
(0.001097 -0.0465863 0)
(0.00116346 0.0513154 0)
(0.00701731 0.141061 0)
(0.0182414 0.216363 0)
(0.0319158 0.276646 0)
(0.045977 0.322186 0)
(0.0589434 0.353897 0)
(0.0697117 0.373157 0)
(0.0775963 0.381605 0)
(0.0823027 0.380971 0)
(0.0838501 0.372933 0)
(0.0824851 0.359035 0)
(0.0786023 0.340628 0)
(0.0726767 0.318855 0)
(0.0652125 0.294655 0)
(0.0567052 0.268773 0)
(0.0476176 0.24179 0)
(0.0383656 0.214142 0)
(0.0293115 0.186152 0)
(0.0207626 0.158047 0)
(0.0129725 0.129983 0)
(0.00614513 0.102061 0)
(0.000438624 0.074339 0)
(-0.00403016 0.0468492 0)
(-0.00718168 0.0196039 0)
(-0.00897036 -0.00739464 0)
(-0.00938208 -0.0341474 0)
(-0.00843251 -0.0606526 0)
(-0.0061663 -0.0869003 0)
(-0.00265714 -0.112867 0)
(0.0019916 -0.138511 0)
(0.00764546 -0.163767 0)
(0.0141371 -0.188539 0)
(0.0212647 -0.212695 0)
(0.0287903 -0.236059 0)
(0.0364387 -0.258402 0)
(0.0438987 -0.279426 0)
(0.0508261 -0.298761 0)
(0.0568502 -0.315942 0)
(0.0615857 -0.330399 0)
(0.0646514 -0.34144 0)
(0.0656971 -0.348243 0)
(0.06444 -0.349849 0)
(0.0607125 -0.345168 0)
(0.0545174 -0.333006 0)
(0.046091 -0.312118 0)
(0.0359625 -0.281294 0)
(0.0249787 -0.239485 0)
(0.014284 -0.185956 0)
(0.00549177 -0.120463 0)
(0.000906937 -0.0434969 0)
(0.00100062 0.0479332 0)
(0.00612517 0.132562 0)
(0.0160971 0.204575 0)
(0.0284918 0.263359 0)
(0.0415838 0.308976 0)
(0.0540909 0.342018 0)
(0.0650034 0.36349 0)
(0.0736342 0.374666 0)
(0.079617 0.376955 0)
(0.0828579 0.371778 0)
(0.0834739 0.360492 0)
(0.0817323 0.344328 0)
(0.0779945 0.324364 0)
(0.0726704 0.301515 0)
(0.0661824 0.276536 0)
(0.0589403 0.250036 0)
(0.0513242 0.222496 0)
(0.0436747 0.194284 0)
(0.0362882 0.165678 0)
(0.0294156 0.136883 0)
(0.0232629 0.108044 0)
(0.0179943 0.0792638 0)
(0.0137343 0.0506123 0)
(0.0105713 0.0221377 0)
(0.00855962 -0.00612472 0)
(0.00772209 -0.0341448 0)
(0.00805142 -0.0618911 0)
(0.00951109 -0.0893241 0)
(0.0120356 -0.116391 0)
(0.0155303 -0.14302 0)
(0.0198705 -0.169114 0)
(0.0249008 -0.194545 0)
(0.0304341 -0.219148 0)
(0.0362517 -0.242712 0)
(0.0421033 -0.264973 0)
(0.0477099 -0.285607 0)
(0.0527681 -0.304217 0)
(0.0569583 -0.320323 0)
(0.0599574 -0.333357 0)
(0.0614568 -0.342653 0)
(0.0611872 -0.34744 0)
(0.0589503 -0.346851 0)
(0.0546574 -0.339936 0)
(0.0483724 -0.325689 0)
(0.0403569 -0.303102 0)
(0.0311091 -0.271241 0)
(0.0213713 -0.22934 0)
(0.0121014 -0.176929 0)
(0.00460944 -0.113942 0)
(0.000751691 -0.0409049 0)
(0.00086284 0.0449837 0)
(0.00534722 0.125061 0)
(0.0141786 0.194012 0)
(0.0253329 0.251211 0)
(0.0373665 0.296577 0)
(0.0491795 0.33047 0)
(0.059867 0.353614 0)
(0.0687721 0.366994 0)
(0.0754972 0.371751 0)
(0.079876 0.369081 0)
(0.0819307 0.360165 0)
(0.081827 0.346112 0)
(0.0798296 0.327922 0)
(0.0762624 0.306471 0)
(0.0714765 0.282507 0)
(0.0658258 0.256651 0)
(0.0596487 0.22941 0)
(0.0532568 0.20119 0)
(0.046928 0.172308 0)
(0.0409024 0.14301 0)
(0.0353821 0.113483 0)
(0.0305314 0.0838684 0)
(0.0264782 0.0542729 0)
(0.0233162 0.0247791 0)
(0.021107 -0.00454508 0)
(0.0198812 -0.0336391 0)
(0.0196403 -0.0624416 0)
(0.0203573 -0.0908847 0)
(0.0219772 -0.118887 0)
(0.0244174 -0.146347 0)
(0.0275669 -0.173138 0)
(0.0312866 -0.199104 0)
(0.0354092 -0.224048 0)
(0.0397395 -0.247731 0)
(0.0440564 -0.269863 0)
(0.0481159 -0.290095 0)
(0.0516565 -0.308014 0)
(0.0544082 -0.323136 0)
(0.0561038 -0.334903 0)
(0.0564969 -0.342675 0)
(0.0553824 -0.345742 0)
(0.0526243 -0.343324 0)
(0.0481855 -0.334592 0)
(0.0421609 -0.318705 0)
(0.0348092 -0.294847 0)
(0.0265779 -0.262299 0)
(0.0181017 -0.220513 0)
(0.0101716 -0.169203 0)
(0.00384645 -0.108432 0)
(0.000621144 -0.0387365 0)
(0.000743301 0.0424144 0)
(0.00465431 0.118463 0)
(0.0124325 0.184605 0)
(0.0223847 0.240217 0)
(0.0333041 0.285121 0)
(0.0442544 0.31951 0)
(0.054438 0.343896 0)
(0.0632468 0.359037 0)
(0.0702803 0.365853 0)
(0.0753307 0.365348 0)
(0.0783544 0.358545 0)
(0.0794391 0.346433 0)
(0.0787696 0.329932 0)
(0.0765945 0.309871 0)
(0.0731989 0.286975 0)
(0.0688809 0.261866 0)
(0.0639352 0.235067 0)
(0.0586398 0.207006 0)
(0.0532486 0.178034 0)
(0.0479856 0.14843 0)
(0.0430434 0.118416 0)
(0.0385815 0.0881684 0)
(0.0347274 0.0578279 0)
(0.0315775 0.0275091 0)
(0.0291981 -0.00268952 0)
(0.0276268 -0.0326781 0)
(0.0268737 -0.0623673 0)
(0.0269224 -0.0916614 0)
(0.0277299 -0.120452 0)
(0.0292278 -0.148611 0)
(0.0313217 -0.175984 0)
(0.0338919 -0.202389 0)
(0.0367939 -0.227603 0)
(0.0398592 -0.251362 0)
(0.0428978 -0.273353 0)
(0.0457019 -0.293211 0)
(0.0480509 -0.310513 0)
(0.0497203 -0.324774 0)
(0.0504926 -0.33545 0)
(0.0501724 -0.341936 0)
(0.0486044 -0.343571 0)
(0.0456957 -0.339657 0)
(0.0414398 -0.329474 0)
(0.0359406 -0.312312 0)
(0.0294354 -0.287513 0)
(0.0223106 -0.254525 0)
(0.0150953 -0.212964 0)
(0.00843274 -0.162683 0)
(0.0031715 -0.103826 0)
(0.000508362 -0.0369377 0)
(0.000637236 0.0401863 0)
(0.00402528 0.112694 0)
(0.0108183 0.176297 0)
(0.0196025 0.23038 0)
(0.0293727 0.2747 0)
(0.0393381 0.309329 0)
(0.0488061 0.334621 0)
(0.0572281 0.351153 0)
(0.06422 0.359668 0)
(0.0695554 0.361009 0)
(0.0731483 0.356059 0)
(0.0750289 0.345699 0)
(0.0753177 0.330769 0)
(0.0741997 0.312044 0)
(0.0719002 0.290222 0)
(0.0686651 0.265916 0)
(0.064745 0.239653 0)
(0.0603823 0.211877 0)
(0.0558035 0.182963 0)
(0.0512125 0.153216 0)
(0.0467879 0.122888 0)
(0.0426811 0.0921848 0)
(0.0390156 0.0612771 0)
(0.0358874 0.0303087 0)
(0.033366 -0.000594322 0)
(0.0314946 -0.0313149 0)
(0.0302917 -0.0617376 0)
(0.0297513 -0.0917414 0)
(0.0298437 -0.121193 0)
(0.0305159 -0.149939 0)
(0.031692 -0.177804 0)
(0.0332737 -0.204578 0)
(0.0351411 -0.230017 0)
(0.0371541 -0.253838 0)
(0.0391546 -0.275708 0)
(0.0409703 -0.295251 0)
(0.0424195 -0.312036 0)
(0.0433191 -0.325581 0)
(0.043494 -0.335358 0)
(0.0427902 -0.34079 0)
(0.0410894 -0.341268 0)
(0.038327 -0.33616 0)
(0.0345104 -0.324838 0)
(0.0297373 -0.306699 0)
(0.0242116 -0.281211 0)
(0.0182534 -0.247952 0)
(0.0122913 -0.20666 0)
(0.00683756 -0.157289 0)
(0.00256159 -0.100044 0)
(0.000408456 -0.0354687 0)
(0.000541216 0.0382698 0)
(0.00344446 0.107698 0)
(0.00930523 0.169043 0)
(0.0169504 0.221698 0)
(0.025549 0.265379 0)
(0.0344401 0.300071 0)
(0.0430318 0.326005 0)
(0.0508399 0.343624 0)
(0.0575098 0.353526 0)
(0.0628139 0.356421 0)
(0.0666413 0.353073 0)
(0.0689818 0.344265 0)
(0.0699063 0.330763 0)
(0.0695468 0.31329 0)
(0.0680764 0.292511 0)
(0.0656929 0.269023 0)
(0.0626042 0.24335 0)
(0.0590169 0.215948 0)
(0.0551281 0.187204 0)
(0.051119 0.157446 0)
(0.0471514 0.126948 0)
(0.0433651 0.095941 0)
(0.0398769 0.0646217 0)
(0.0367801 0.0331588 0)
(0.0341452 0.0017032 0)
(0.03202 -0.0296041 0)
(0.0304303 -0.0606244 0)
(0.0293806 -0.091214 0)
(0.0288546 -0.121217 0)
(0.0288156 -0.15046 0)
(0.0292071 -0.178743 0)
(0.0299532 -0.20584 0)
(0.0309598 -0.231485 0)
(0.0321155 -0.255377 0)
(0.033294 -0.277171 0)
(0.0343572 -0.296478 0)
(0.03516 -0.312864 0)
(0.035556 -0.325852 0)
(0.0354065 -0.334924 0)
(0.03459 -0.339533 0)
(0.033015 -0.339109 0)
(0.0306333 -0.333078 0)
(0.0274544 -0.320884 0)
(0.023559 -0.302011 0)
(0.0191099 -0.276024 0)
(0.0143593 -0.242599 0)
(0.00964087 -0.20157 0)
(0.0053496 -0.152961 0)
(0.0019996 -0.0970238 0)
(0.000317889 -0.0343002 0)
(0.000452712 0.0366429 0)
(0.00290004 0.103432 0)
(0.00786923 0.162805 0)
(0.0143992 0.214167 0)
(0.0218118 0.257206 0)
(0.0295632 0.291842 0)
(0.0371564 0.31822 0)
(0.0441746 0.336674 0)
(0.0503004 0.347694 0)
(0.0553175 0.351878 0)
(0.0591043 0.349892 0)
(0.0616239 0.342435 0)
(0.0629097 0.330205 0)
(0.0630505 0.313875 0)
(0.0621748 0.294077 0)
(0.0604369 0.271389 0)
(0.0580046 0.246329 0)
(0.0550492 0.219354 0)
(0.0517378 0.190861 0)
(0.0482273 0.161193 0)
(0.0446603 0.130642 0)
(0.0411627 0.0994595 0)
(0.0378422 0.0678622 0)
(0.0347873 0.0360403 0)
(0.0320678 0.00416564 0)
(0.0297343 -0.0276002 0)
(0.0278193 -0.0590986 0)
(0.0263372 -0.0901662 0)
(0.0252847 -0.120628 0)
(0.0246418 -0.150293 0)
(0.0243716 -0.178942 0)
(0.0244212 -0.206332 0)
(0.0247222 -0.232181 0)
(0.0251921 -0.256173 0)
(0.0257355 -0.277952 0)
(0.0262474 -0.297119 0)
(0.0266161 -0.313237 0)
(0.0267285 -0.32583 0)
(0.0264762 -0.334394 0)
(0.025764 -0.3384 0)
(0.0245187 -0.337312 0)
(0.0226997 -0.3306 0)
(0.0203098 -0.317763 0)
(0.0174053 -0.298353 0)
(0.0141037 -0.272008 0)
(0.0105889 -0.238478 0)
(0.0071048 -0.197667 0)
(0.00394052 -0.149654 0)
(0.00147249 -0.0947215 0)
(0.000234044 -0.0334107 0)
(0.000369809 0.0352887 0)
(0.00238292 0.0998633 0)
(0.0064915 0.157555 0)
(0.0119253 0.207782 0)
(0.0181427 0.250212 0)
(0.0247063 0.284723 0)
(0.0312091 0.311393 0)
(0.0373021 0.33048 0)
(0.0427108 0.342384 0)
(0.0472386 0.347617 0)
(0.0507639 0.346767 0)
(0.0532337 0.340461 0)
(0.0546544 0.329337 0)
(0.05508 0.314026 0)
(0.0546011 0.295125 0)
(0.053333 0.273194 0)
(0.0514066 0.248739 0)
(0.0489592 0.222216 0)
(0.0461277 0.194027 0)
(0.0430436 0.164523 0)
(0.0398292 0.134012 0)
(0.0365945 0.102759 0)
(0.033436 0.0709971 0)
(0.0304358 0.0389331 0)
(0.0276608 0.006756 0)
(0.0251635 -0.0253559 0)
(0.0229815 -0.0572276 0)
(0.0211383 -0.0886799 0)
(0.0196436 -0.119522 0)
(0.0184932 -0.149548 0)
(0.01767 -0.178524 0)
(0.0171437 -0.206191 0)
(0.0168717 -0.232257 0)
(0.0167997 -0.256392 0)
(0.0168628 -0.278228 0)
(0.0169871 -0.297361 0)
(0.0170922 -0.313347 0)
(0.0170949 -0.325714 0)
(0.0169131 -0.333961 0)
(0.0164723 -0.337577 0)
(0.0157117 -0.336046 0)
(0.0145919 -0.32887 0)
(0.0131032 -0.315589 0)
(0.0112722 -0.295804 0)
(0.00916883 -0.269204 0)
(0.00690898 -0.235597 0)
(0.00465154 -0.194933 0)
(0.00258808 -0.147334 0)
(0.00097024 -0.093104 0)
(0.000154938 -0.032785 0)
(0.000291012 0.0341949 0)
(0.00188587 0.0969672 0)
(0.00515686 0.153272 0)
(0.00950892 0.202538 0)
(0.0145252 0.244422 0)
(0.0198662 0.278773 0)
(0.0252108 0.305624 0)
(0.0302772 0.325173 0)
(0.0348373 0.337758 0)
(0.0387204 0.343825 0)
(0.0418123 0.343897 0)
(0.0440528 0.338545 0)
(0.0454287 0.328359 0)
(0.0459669 0.313929 0)
(0.0457253 0.295825 0)
(0.0447852 0.274584 0)
(0.0432428 0.250704 0)
(0.0412029 0.224633 0)
(0.0387729 0.196777 0)
(0.0360587 0.167491 0)
(0.0331607 0.137091 0)
(0.0301717 0.105853 0)
(0.0271756 0.0740209 0)
(0.0242459 0.0418154 0)
(0.0214457 0.00943771 0)
(0.0188273 -0.0229212 0)
(0.0164325 -0.0550739 0)
(0.0142929 -0.0868288 0)
(0.01243 -0.117984 0)
(0.0108552 -0.14832 0)
(0.00957036 -0.177594 0)
(0.00856764 -0.205534 0)
(0.00782974 -0.231838 0)
(0.00733002 -0.256166 0)
(0.00703293 -0.278141 0)
(0.00689473 -0.29735 0)
(0.00686465 -0.313346 0)
(0.00688671 -0.325652 0)
(0.00690237 -0.333773 0)
(0.00685393 -0.3372 0)
(0.0066889 -0.335432 0)
(0.00636502 -0.327992 0)
(0.00585574 -0.314442 0)
(0.00515553 -0.294418 0)
(0.00428467 -0.267642 0)
(0.00329231 -0.233958 0)
(0.00225557 -0.193354 0)
(0.0012745 -0.145976 0)
(0.000484896 -0.0921481 0)
(7.90258e-05 -0.0324121 0)
(0.000215112 0.0333525 0)
(0.00140298 0.0947261 0)
(0.00385263 0.14994 0)
(0.00713338 0.198432 0)
(0.0109445 0.239853 0)
(0.0150385 0.274035 0)
(0.0191765 0.300982 0)
(0.0231434 0.320853 0)
(0.0267595 0.333941 0)
(0.029884 0.340643 0)
(0.032416 0.341435 0)
(0.0342937 0.336844 0)
(0.0354909 0.327423 0)
(0.0360125 0.313729 0)
(0.035889 0.296307 0)
(0.0351705 0.275676 0)
(0.0339215 0.252321 0)
(0.0322158 0.226685 0)
(0.0301317 0.199171 0)
(0.0277489 0.170136 0)
(0.0251456 0.139899 0)
(0.0223964 0.108744 0)
(0.0195706 0.0769228 0)
(0.0167321 0.0446628 0)
(0.0139383 0.0121744 0)
(0.0112401 -0.0203431 0)
(0.00868217 -0.0526937 0)
(0.00630291 -0.0846778 0)
(0.00413457 -0.116085 0)
(0.00220338 -0.146689 0)
(0.000529507 -0.176237 0)
(-0.000873126 -0.204452 0)
(-0.00199711 -0.23102 0)
(-0.00284194 -0.255596 0)
(-0.00341442 -0.277794 0)
(-0.00372902 -0.297193 0)
(-0.00380802 -0.31334 0)
(-0.00368138 -0.325752 0)
(-0.00338607 -0.333929 0)
(-0.00296483 -0.337364 0)
(-0.00246421 -0.335557 0)
(-0.00193188 -0.328036 0)
(-0.0014133 -0.314378 0)
(-0.000947959 -0.294231 0)
(-0.000565737 -0.267339 0)
(-0.000283675 -0.233566 0)
(-0.000104116 -0.192919 0)
(-1.47465e-05 -0.145565 0)
(1.00312e-05 -0.0918383 0)
(5.06684e-06 -0.0322851 0)
(0.00014108 0.0327553 0)
(0.000929125 0.093128 0)
(0.00256771 0.147548 0)
(0.0047836 0.19546 0)
(0.00738668 0.236516 0)
(0.0102175 0.27054 0)
(0.0131168 0.297519 0)
(0.015936 0.31759 0)
(0.0185447 0.331018 0)
(0.0208346 0.338169 0)
(0.0227219 0.339488 0)
(0.0241475 0.33547 0)
(0.0250763 0.32664 0)
(0.0254954 0.313531 0)
(0.025411 0.296667 0)
(0.0248451 0.276551 0)
(0.0238324 0.253658 0)
(0.0224165 0.228423 0)
(0.0206474 0.201244 0)
(0.0185786 0.172477 0)
(0.0162651 0.142444 0)