/*--------------------------------*- C++ -*----------------------------------*\
  =========                 |
  \\      /  F ield         | OpenFOAM: The Open Source CFD Toolbox
   \\    /   O peration     | Website:  https://openfoam.org
    \\  /    A nd           | Version:  7
     \\/     M anipulation  |
\*---------------------------------------------------------------------------*/
FoamFile
{
    version     2.0;
    format      ascii;
    class       volVectorField;
    location    "0.017";
    object      U;
}
// * * * * * * * * * * * * * * * * * * * * * * * * * * * * * * * * * * * * * //

dimensions      [0 1 -1 0 0 0 0];

internalField   nonuniform List<vector> 
2500
(
(2.33052e-05 -2.34073e-05 0)
(5.83451e-05 -2.04161e-05 0)
(5.31385e-05 -5.829e-07 0)
(-1.34045e-05 2.20133e-05 0)
(-0.00014267 4.29018e-05 0)
(-0.000327757 6.04564e-05 0)
(-0.000559741 7.43836e-05 0)
(-0.000829093 8.48942e-05 0)
(-0.00112653 9.23314e-05 0)
(-0.00144341 9.7051e-05 0)
(-0.00177184 9.93891e-05 0)
(-0.00210476 9.96528e-05 0)
(-0.00243588 9.81187e-05 0)
(-0.00275965 9.50347e-05 0)
(-0.00307125 9.06213e-05 0)
(-0.00336649 8.50731e-05 0)
(-0.00364176 7.85613e-05 0)
(-0.00389398 7.12355e-05 0)
(-0.00412055 6.32266e-05 0)
(-0.00431926 5.46482e-05 0)
(-0.00448828 4.56002e-05 0)
(-0.00462612 3.61711e-05 0)
(-0.00473159 2.64404e-05 0)
(-0.00480374 1.64817e-05 0)
(-0.00484193 6.36485e-06 0)
(-0.00484574 -3.84126e-06 0)
(-0.004815 -1.40664e-05 0)
(-0.00474982 -2.42368e-05 0)
(-0.00465056 -3.42724e-05 0)
(-0.00451789 -4.40854e-05 0)
(-0.00435281 -5.35776e-05 0)
(-0.00415665 -6.26385e-05 0)
(-0.00393119 -7.11441e-05 0)
(-0.0036786 -7.89544e-05 0)
(-0.00340157 -8.59126e-05 0)
(-0.00310334 -9.18441e-05 0)
(-0.00278773 -9.65552e-05 0)
(-0.0024592 -9.98333e-05 0)
(-0.00212292 -0.000101445 0)
(-0.00178475 -0.000101139 0)
(-0.00145133 -9.86409e-05 0)
(-0.00113007 -9.36567e-05 0)
(-0.000829097 -8.58733e-05 0)
(-0.000557262 -7.49669e-05 0)
(-0.000323925 -6.06359e-05 0)
(-0.000138573 -4.27204e-05 0)
(-9.97137e-06 -2.1572e-05 0)
(5.53532e-05 1.13869e-06 0)
(5.92964e-05 2.08308e-05 0)
(2.35064e-05 2.34568e-05 0)
(2.06597e-05 -5.86308e-05 0)
(1.76949e-05 -1.70687e-05 0)
(-9.49367e-05 8.45383e-05 0)
(-0.000344719 0.000200126 0)
(-0.000735295 0.00031081 0)
(-0.00125631 0.000407939 0)
(-0.00189039 0.000488204 0)
(-0.002617 0.000550973 0)
(-0.00341484 0.000596841 0)
(-0.00426304 0.000626955 0)
(-0.00514193 0.000642696 0)
(-0.00603336 0.00064552 0)
(-0.00692087 0.00063687 0)
(-0.00778976 0.000618123 0)
(-0.008627 0.000590568 0)
(-0.00942119 0.000555385 0)
(-0.0101624 0.000513649 0)
(-0.0108422 0.000466324 0)
(-0.0114532 0.000414271 0)
(-0.0119894 0.000358259 0)
(-0.0124455 0.000298975 0)
(-0.0128175 0.000237038 0)
(-0.0131019 0.000173016 0)
(-0.0132962 0.000107434 0)
(-0.0133985 4.07991e-05 0)
(-0.0134077 -2.6392e-05 0)
(-0.0133236 -9.36348e-05 0)
(-0.0131463 -0.000160404 0)
(-0.012877 -0.000226137 0)
(-0.0125178 -0.000290224 0)
(-0.0120713 -0.000351996 0)
(-0.0115416 -0.000410708 0)
(-0.0109335 -0.000465537 0)
(-0.0102531 -0.000515571 0)
(-0.00950794 -0.000559803 0)
(-0.00870687 -0.000597132 0)
(-0.0078603 -0.000626364 0)
(-0.00698029 -0.000646222 0)
(-0.00608061 -0.000655355 0)
(-0.00517678 -0.000652362 0)
(-0.00428604 -0.000635825 0)
(-0.00342729 -0.000604363 0)
(-0.00262083 -0.000556717 0)
(-0.00188792 -0.000491914 0)
(-0.00125009 -0.000409574 0)
(-0.000727745 -0.000310578 0)
(-0.000337911 -0.0001985 0)
(-9.02434e-05 -8.22259e-05 0)
(1.98756e-05 1.90699e-05 0)
(2.11485e-05 5.93486e-05 0)
(1.60471e-06 -5.44394e-05 0)
(-8.16878e-05 9.47996e-05 0)
(-0.000347852 0.000351194 0)
(-0.000809487 0.000636833 0)
(-0.00146596 0.000913279 0)
(-0.00230435 0.00116022 0)
(-0.00330218 0.00136794 0)
(-0.00443198 0.00153294 0)
(-0.00566438 0.00165516 0)
(-0.00696994 0.00173643 0)
(-0.00832026 0.00177958 0)
(-0.00968874 0.00178793 0)
(-0.0110509 0.00176497 0)
(-0.0123846 0.00171419 0)
(-0.0136701 0.00163892 0)
(-0.01489 0.0015423 0)
(-0.016029 0.00142723 0)
(-0.0170738 0.00129635 0)
(-0.0180133 0.00115205 0)
(-0.0188378 0.000996484 0)
(-0.0195392 0.00083159 0)
(-0.0201111 0.000659141 0)
(-0.0205482 0.00048076 0)
(-0.0208464 0.000297972 0)
(-0.021003 0.000112237 0)
(-0.0210162 -7.50052e-05 0)
(-0.0208856 -0.000262299 0)
(-0.0206116 -0.000448131 0)
(-0.0201962 -0.000630896 0)
(-0.0196425 -0.000808858 0)
(-0.018955 -0.000980122 0)
(-0.0181398 -0.00114261 0)
(-0.0172047 -0.00129401 0)
(-0.0161592 -0.00143182 0)
(-0.0150149 -0.00155328 0)
(-0.0137855 -0.0016554 0)
(-0.012487 -0.00173497 0)
(-0.0111377 -0.00178864 0)
(-0.00975842 -0.00181289 0)
(-0.00837247 -0.00180419 0)
(-0.0070054 -0.00175913 0)
(-0.00568485 -0.00167458 0)
(-0.00444006 -0.001548 0)
(-0.00330107 -0.00137802 0)
(-0.00229752 -0.00116521 0)
(-0.00145677 -0.000913653 0)
(-0.000800822 -0.000633698 0)
(-0.000341706 -0.00034622 0)
(-7.87957e-05 -9.01359e-05 0)
(2.24221e-06 5.65353e-05 0)
(-2.01457e-05 9.49999e-06 0)
(-0.000195409 0.000342317 0)
(-0.000632161 0.000812265 0)
(-0.00131686 0.00131936 0)
(-0.00223886 0.00180839 0)
(-0.00338091 0.00224739 0)
(-0.00471576 0.00261933 0)
(-0.00621055 0.00291689 0)
(-0.00783 0.00313865 0)
(-0.00953835 0.00328673 0)
(-0.0113007 0.00336538 0)
(-0.013084 0.00337997 0)
(-0.0148574 0.00333645 0)
(-0.016593 0.0032409 0)
(-0.0182656 0.0030993 0)
(-0.0198526 0.00291734 0)
(-0.0213344 0.00270035 0)
(-0.0226938 0.00245323 0)
(-0.0239162 0.00218048 0)
(-0.0249889 0.00188616 0)
(-0.0259015 0.00157398 0)
(-0.0266454 0.00124732 0)
(-0.0272138 0.000909304 0)
(-0.0276013 0.000562878 0)
(-0.0278042 0.000210867 0)
(-0.0278204 -0.000143947 0)
(-0.0276493 -0.000498749 0)
(-0.0272916 -0.000850623 0)
(-0.0267499 -0.00119648 0)
(-0.0260283 -0.001533 0)
(-0.0251329 -0.00185658 0)
(-0.0240716 -0.00216326 0)
(-0.0228547 -0.00244872 0)
(-0.0214946 -0.00270822 0)
(-0.0200065 -0.00293664 0)
(-0.018408 -0.00312845 0)
(-0.0167197 -0.00327778 0)
(-0.0149651 -0.00337851 0)
(-0.0131709 -0.00342442 0)
(-0.0113663 -0.00340932 0)
(-0.00958342 -0.00332739 0)
(-0.00785665 -0.00317359 0)
(-0.00622189 -0.00294424 0)
(-0.00471564 -0.00263796 0)
(-0.00337352 -0.00225708 0)
(-0.0022283 -0.00180996 0)
(-0.00130665 -0.00131466 0)
(-0.000624831 -0.000804138 0)
(-0.000191964 -0.000334368 0)
(-1.94032e-05 -5.66458e-06 0)
(-4.04268e-05 0.000135132 0)
(-0.000306593 0.000731548 0)
(-0.000914864 0.00147158 0)
(-0.00182177 0.00224365 0)
(-0.00300323 0.00298089 0)
(-0.00443564 0.0036419 0)
(-0.00608633 0.00420311 0)
(-0.0079173 0.00465335 0)
(-0.00988831 0.00498958 0)
(-0.0119585 0.005214 0)
(-0.014088 0.00533217 0)
(-0.0162385 0.00535158 0)
(-0.0183743 0.00528081 0)
(-0.0204628 0.00512885 0)
(-0.0224741 0.00490466 0)
(-0.024382 0.00461692 0)
(-0.0261629 0.00427382 0)
(-0.0277965 0.00388299 0)
(-0.0292652 0.00345144 0)
(-0.030554 0.00298557 0)
(-0.0316503 0.00249124 0)
(-0.0325438 0.00197385 0)
(-0.0332261 0.00143838 0)
(-0.0336911 0.000889541 0)
(-0.0339342 0.000331868 0)
(-0.033953 -0.000230174 0)
(-0.0337465 -0.000792074 0)
(-0.0333159 -0.00134916 0)
(-0.0326643 -0.00189652 0)
(-0.0317966 -0.00242885 0)
(-0.0307202 -0.00294043 0)
(-0.0294447 -0.00342503 0)
(-0.0279824 -0.00387583 0)
(-0.0263482 -0.00428543 0)
(-0.02456 -0.00464584 0)
(-0.022639 -0.00494851 0)
(-0.0206095 -0.00518444 0)
(-0.0184993 -0.00534433 0)
(-0.0163394 -0.00541879 0)
(-0.0141643 -0.00539873 0)
(-0.0120112 -0.00527573 0)
(-0.00991957 -0.00504281 0)
(-0.00793073 -0.00469525 0)
(-0.00608634 -0.00423196 0)
(-0.00442707 -0.00365732 0)
(-0.00299085 -0.00298405 0)
(-0.00180972 -0.00223726 0)
(-0.000906175 -0.00145979 0)
(-0.000302493 -0.000719724 0)
(-3.95412e-05 -0.000129252 0)
(-5.80201e-05 0.000317403 0)
(-0.000408716 0.00125736 0)
(-0.00118103 0.00232482 0)
(-0.002302 0.00340439 0)
(-0.00373284 0.00442239 0)
(-0.00544213 0.00533088 0)
(-0.00739085 0.00610125 0)
(-0.00953563 0.00671915 0)
(-0.0118314 0.00718015 0)
(-0.0142329 0.00748665 0)
(-0.0166959 0.0076455 0)
(-0.0191778 0.00766645 0)
(-0.021639 0.00756085 0)
(-0.0240428 0.00734081 0)
(-0.0263561 0.00701858 0)
(-0.0285489 0.00660615 0)
(-0.030595 0.00611491 0)
(-0.0324712 0.00555554 0)
(-0.0341576 0.00493795 0)
(-0.0356371 0.00427122 0)
(-0.0368953 0.00356371 0)
(-0.0379206 0.00282312 0)
(-0.0387035 0.00205662 0)
(-0.0392368 0.00127099 0)
(-0.0395155 0.000472745 0)
(-0.0395366 -0.000331672 0)
(-0.0392992 -0.00113576 0)
(-0.0388047 -0.00193282 0)
(-0.0380564 -0.00271575 0)
(-0.0370603 -0.00347701 0)
(-0.0358245 -0.00420841 0)
(-0.0343602 -0.00490105 0)
(-0.0326811 -0.00554529 0)
(-0.0308043 -0.00613065 0)
(-0.0287502 -0.00664588 0)
(-0.0265426 -0.00707903 0)
(-0.024209 -0.00741758 0)
(-0.0217806 -0.00764867 0)
(-0.0192923 -0.00775952 0)
(-0.0167825 -0.0077378 0)
(-0.0142927 -0.00757242 0)
(-0.0118668 -0.00725432 0)
(-0.0095506 -0.00677775 0)
(-0.00739042 -0.00614187 0)
(-0.00543181 -0.00535294 0)
(-0.00371811 -0.0044274 0)
(-0.00228767 -0.00339601 0)
(-0.00117066 -0.00230872 0)
(-0.000403795 -0.00124094 0)
(-5.69479e-05 -0.000309099 0)
(-7.29586e-05 0.000550167 0)
(-0.00050032 0.00191009 0)
(-0.00142575 0.00336176 0)
(-0.00274931 0.00479091 0)
(-0.0044176 0.00612091 0)
(-0.00639061 0.00730006 0)
(-0.00862227 0.00829654 0)
(-0.0110633 0.00909386 0)
(-0.0136638 0.00968684 0)
(-0.0163741 0.0100784 0)
(-0.0191458 0.0102769 0)
(-0.0219329 0.0102946 0)
(-0.0246922 0.0101457 0)
(-0.0273837 0.0098458 0)
(-0.0299712 0.00941061 0)
(-0.0324221 0.00885569 0)
(-0.0347076 0.00819594 0)
(-0.0368024 0.0074454 0)
(-0.0386846 0.00661712 0)
(-0.0403353 0.00572317 0)
(-0.041739 0.00477468 0)
(-0.0428826 0.00378192 0)
(-0.0437558 0.00275449 0)
(-0.0443506 0.00170148 0)
(-0.0446615 0.000631635 0)
(-0.0446852 -0.000446395 0)
(-0.0444208 -0.00152389 0)
(-0.0438696 -0.00259185 0)
(-0.0430355 -0.0036408 0)
(-0.0419248 -0.00466062 0)
(-0.0405466 -0.0056404 0)
(-0.038913 -0.00656831 0)
(-0.0370393 -0.00743151 0)
(-0.0349442 -0.00821616 0)
(-0.0326498 -0.00890742 0)
(-0.0301825 -0.00948959 0)
(-0.0275722 -0.00994629 0)
(-0.0248532 -0.0102609 0)
(-0.0220634 -0.0104168 0)
(-0.0192448 -0.0103983 0)
(-0.0164424 -0.0101914 0)
(-0.0137044 -0.00978483 0)
(-0.0110805 -0.00917156 0)
(-0.00862166 -0.00835067 0)
(-0.00637851 -0.00732978 0)
(-0.00440029 -0.00612805 0)
(-0.00273239 -0.00478017 0)
(-0.00141343 -0.00334055 0)
(-0.000494419 -0.00188817 0)
(-7.16542e-05 -0.000538933 0)
(-8.57052e-05 0.000827585 0)
(-0.0005823 0.00267914 0)
(-0.0016496 0.00457042 0)
(-0.00316379 0.00639088 0)
(-0.00505774 0.00806377 0)
(-0.0072826 0.00953596 0)
(-0.00978479 0.0107741 0)
(-0.0125087 0.0117609 0)
(-0.0153993 0.0124912 0)
(-0.0184023 0.012969 0)
(-0.0214656 0.0132047 0)
(-0.0245394 0.0132131 0)
(-0.0275774 0.0130119 0)
(-0.0305368 0.0126201 0)
(-0.0333788 0.0120573 0)
(-0.0360684 0.0113428 0)
(-0.0385746 0.0104954 0)
(-0.0408705 0.00953265 0)
(-0.0429323 0.00847102 0)
(-0.0447402 0.00732579 0)
(-0.0462771 0.00611108 0)
(-0.0475291 0.00483996 0)
(-0.0484851 0.00352465 0)
(-0.0491366 0.00217674 0)
(-0.0494776 0.000807396 0)
(-0.0495046 -0.000572343 0)
(-0.0492164 -0.00195135 0)
(-0.0486145 -0.00331815 0)
(-0.047703 -0.00466065 0)
(-0.0464886 -0.00596598 0)
(-0.044981 -0.00722026 0)
(-0.0431931 -0.00840845 0)
(-0.0411413 -0.00951432 0)
(-0.0388456 -0.0105203 0)
(-0.0363298 -0.0114078 0)
(-0.0336221 -0.0121569 0)
(-0.0307546 -0.0127472 0)
(-0.0277642 -0.0131578 0)
(-0.0246915 -0.0133683 0)
(-0.0215817 -0.0133592 0)
(-0.0184833 -0.0131132 0)
(-0.0154482 -0.0126166 0)
(-0.0125304 -0.0118607 0)
(-0.00978555 -0.010844 0)
(-0.00726961 -0.00957473 0)
(-0.00503825 -0.00807357 0)
(-0.00314437 -0.00637753 0)
(-0.00163525 -0.00454328 0)
(-0.000575331 -0.00265076 0)
(-8.41344e-05 -0.000812834 0)
(-9.6794e-05 0.00114478 0)
(-0.000656475 0.00355498 0)
(-0.00185583 0.00593958 0)
(-0.00355015 0.00819291 0)
(-0.00565963 0.0102398 0)
(-0.00812673 0.0120276 0)
(-0.0108901 0.0135228 0)
(-0.0138876 0.0147086 0)
(-0.0170584 0.0155807 0)
(-0.0203437 0.0161449 0)
(-0.0236873 0.0164143 0)
(-0.0270359 0.0164067 0)
(-0.0303401 0.0161434 0)
(-0.0335544 0.0156474 0)
(-0.0366376 0.0149424 0)
(-0.0395528 0.0140518 0)
(-0.0422671 0.0129982 0)
(-0.0447519 0.0118033 0)
(-0.0469824 0.010487 0)
(-0.0489375 0.00906802 0)
(-0.0505992 0.00756371 0)
(-0.0519529 0.00599006 0)
(-0.0529868 0.0043621 0)
(-0.053692 0.00269404 0)
(-0.054062 0.000999631 0)
(-0.0540931 -0.000707586 0)
(-0.0537841 -0.00241393 0)
(-0.0531364 -0.00410529 0)
(-0.0521541 -0.00576683 0)
(-0.0508441 -0.00738274 0)
(-0.0492168 -0.00893597 0)
(-0.0472855 -0.0104081 0)
(-0.0450675 -0.0117792 0)
(-0.0425837 -0.0130279 0)
(-0.0398593 -0.0141312 0)
(-0.0369241 -0.015065 0)
(-0.0338123 -0.0158045 0)
(-0.0305627 -0.0163243 0)
(-0.0272188 -0.0165996 0)
(-0.0238286 -0.0166068 0)
(-0.0204442 -0.0163252 0)
(-0.0171211 -0.015738 0)
(-0.013918 -0.0148344 0)
(-0.0108953 -0.0136116 0)
(-0.00811491 -0.0120775 0)
(-0.00563919 -0.0102534 0)
(-0.00352882 -0.00817706 0)
(-0.00183967 -0.00590589 0)
(-0.000648455 -0.00351918 0)
(-9.49414e-05 -0.0011259 0)
(-0.000106723 0.00149807 0)
(-0.000724947 0.00452998 0)
(-0.00204894 0.00746016 0)
(-0.00391545 0.0101878 0)
(-0.0062331 0.0126405 0)
(-0.00893588 0.0147669 0)
(-0.0119546 0.016535 0)
(-0.0152201 0.0179293 0)
(-0.0186659 0.0189476 0)
(-0.0222281 0.0195981 0)
(-0.0258462 0.0198971 0)
(-0.0294633 0.0198661 0)
(-0.0330269 0.0195306 0)
(-0.0364888 0.0189178 0)
(-0.0398057 0.0180558 0)
(-0.0429386 0.0169725 0)
(-0.0458533 0.0156947 0)
(-0.0485197 0.0142481 0)
(-0.050912 0.0126567 0)
(-0.0530081 0.0109426 0)
(-0.0547895 0.00912658 0)
(-0.0562408 0.00722768 0)
(-0.0573498 0.00526383 0)
(-0.0581071 0.00325201 0)
(-0.058506 0.00120861 0)
(-0.0585426 -0.000850197 0)
(-0.0582154 -0.0029081 0)
(-0.0575257 -0.00494825 0)
(-0.0564777 -0.00695295 0)
(-0.0550784 -0.0089033 0)
(-0.0533382 -0.0107789 0)
(-0.0512711 -0.0125579 0)
(-0.0488947 -0.0142163 0)
(-0.0462309 -0.0157286 0)
(-0.043306 -0.0170675 0)
(-0.040151 -0.0182041 0)
(-0.0368018 -0.0191089 0)
(-0.0332994 -0.0197516 0)
(-0.0296899 -0.0201026 0)
(-0.0260243 -0.020134 0)
(-0.022358 -0.0198209 0)
(-0.0187508 -0.019143 0)
(-0.0152659 -0.0180866 0)
(-0.0119692 -0.0166472 0)
(-0.00892869 -0.0148313 0)
(-0.00621393 -0.0126598 0)
(-0.00389346 -0.0101703 0)
(-0.00203151 -0.00741971 0)
(-0.000716019 -0.00448602 0)
(-0.000104594 -0.00147447 0)
(-0.000115931 0.00188496 0)
(-0.00078984 0.0055989 0)
(-0.00223384 0.00912592 0)
(-0.00426787 0.0123696 0)
(-0.00678976 0.0152605 0)
(-0.00972529 0.0177496 0)
(-0.0129974 0.0198071 0)
(-0.0165298 0.02142 0)
(-0.0202497 0.0225889 0)
(-0.024088 0.0233254 0)
(-0.0279795 0.0236496 0)
(-0.0318637 0.0235875 0)
(-0.0356848 0.0231691 0)
(-0.0393919 0.0224264 0)
(-0.0429396 0.0213924 0)
(-0.0462871 0.0200996 0)
(-0.0493987 0.0185795 0)
(-0.0522433 0.0168622 0)
(-0.0547941 0.0149755 0)
(-0.0570282 0.0129456 0)
(-0.0589267 0.0107964 0)
(-0.0604737 0.00855043 0)
(-0.0616567 0.00622849 0)
(-0.062466 0.00385038 0)
(-0.0628945 0.00143521 0)
(-0.0629381 -0.000998196 0)
(-0.0625952 -0.00343082 0)
(-0.0618668 -0.00584303 0)
(-0.060757 -0.00821419 0)
(-0.0592728 -0.0105222 0)
(-0.0574246 -0.0127433 0)
(-0.0552265 -0.0148517 0)
(-0.0526966 -0.0168195 0)
(-0.0498572 -0.0186167 0)
(-0.0467355 -0.0202113 0)
(-0.0433638 -0.0215694 0)
(-0.0397796 -0.0226562 0)
(-0.0360259 -0.0234364 0)
(-0.0321513 -0.0238749 0)
(-0.0282098 -0.023939 0)
(-0.0242607 -0.0235989 0)
(-0.020368 -0.0228303 0)
(-0.0166 -0.0216162 0)
(-0.0130284 -0.0199489 0)
(-0.00972779 -0.0178333 0)
(-0.0067752 -0.0152888 0)
(-0.00424719 -0.0123521 0)
(-0.00221609 -0.00907916 0)
(-0.000780292 -0.00554639 0)
(-0.000113555 -0.00185615 0)
(-0.000124806 0.00230408 0)
(-0.000853199 0.00675893 0)
(-0.00241557 0.0109338 0)
(-0.00461599 0.0147357 0)
(-0.00734205 0.0180982 0)
(-0.0105114 0.0209751 0)
(-0.0140391 0.0233396 0)
(-0.0178413 0.0251817 0)
(-0.0218388 0.0265059 0)
(-0.0259568 0.0273281 0)
(-0.0301253 0.027673 0)
(-0.0342797 0.0275716 0)
(-0.0383607 0.027059 0)
(-0.0423149 0.0261728 0)
(-0.0460945 0.0249511 0)
(-0.0496572 0.0234317 0)
(-0.0529658 0.0216511 0)
(-0.0559883 0.0196437 0)
(-0.0586971 0.0174418 0)
(-0.0610689 0.0150754 0)
(-0.0630842 0.0125722 0)
(-0.064727 0.00995779 0)
(-0.0659844 0.00725615 0)
(-0.0668465 0.0044899 0)
(-0.0673061 0.00168085 0)
(-0.0673587 -0.00114948 0)
(-0.0670025 -0.00397939 0)
(-0.0662383 -0.00678645 0)
(-0.0650697 -0.00954699 0)
(-0.0635038 -0.0122357 0)
(-0.0615506 -0.0148253 0)
(-0.0592243 -0.017286 0)
(-0.056543 -0.0195858 0)
(-0.0535295 -0.0216898 0)
(-0.0502117 -0.023561 0)
(-0.0466228 -0.0251602 0)
(-0.0428018 -0.026447 0)
(-0.0387938 -0.0273801 0)
(-0.03465 -0.0279189 0)
(-0.0304275 -0.0280249 0)
(-0.0261897 -0.0276629 0)
(-0.0220053 -0.0268039 0)
(-0.017948 -0.0254264 0)
(-0.0140958 -0.0235195 0)
(-0.0105305 -0.0210851 0)
(-0.00733672 -0.0181407 0)
(-0.00459938 -0.0147215 0)
(-0.00239886 -0.0108822 0)
(-0.000843469 -0.00669807 0)
(-0.000122232 -0.00226976 0)
(-0.000133686 0.00275511 0)
(-0.000916957 0.00800975 0)
(-0.00259902 0.0128841 0)
(-0.00496843 0.0172875 0)
(-0.00790265 0.0211563 0)
(-0.0113113 0.0244473 0)
(-0.015101 0.0271371 0)
(-0.0191804 0.0292199 0)
(-0.0234634 0.0307045 0)
(-0.0278689 0.0316121 0)
(-0.032322 0.0319726 0)
(-0.0367535 0.0318231 0)
(-0.0411008 0.0312045 0)
(-0.0453075 0.0301604 0)
(-0.0493237 0.0287348 0)
(-0.0531052 0.026971 0)
(-0.0566138 0.0249108 0)
(-0.0598166 0.0225936 0)
(-0.0626853 0.0200563 0)
(-0.0651964 0.0173328 0)
(-0.0673301 0.0144546 0)
(-0.0690701 0.0114507 0)
(-0.0704036 0.00834807 0)
(-0.0713203 0.00517216 0)
(-0.0718131 0.0019475 0)
(-0.071877 -0.00130177 0)
(-0.07151 -0.00455127 0)
(-0.0707125 -0.00777579 0)
(-0.0694878 -0.0109487 0)
(-0.0678424 -0.0140413 0)
(-0.0657862 -0.0170228 0)
(-0.0633329 -0.0198594 0)
(-0.0605005 -0.0225144 0)
(-0.0573122 -0.0249481 0)
(-0.0537961 -0.0271181 0)
(-0.0499865 -0.0289795 0)
(-0.0459236 -0.0304854 0)
(-0.0416547 -0.0315884 0)
(-0.0372334 -0.0322415 0)
(-0.0327206 -0.0323995 0)
(-0.0281836 -0.0320214 0)
(-0.0236965 -0.0310723 0)
(-0.0193388 -0.0295258 0)
(-0.0151954 -0.0273666 0)
(-0.0113557 -0.0245932 0)
(-0.00791262 -0.0212203 0)
(-0.00495959 -0.0172815 0)
(-0.0025852 -0.0128304 0)
(-0.000907652 -0.00794152 0)
(-0.00013099 -0.00271523 0)
(-0.000142878 0.00323873 0)
(-0.000982937 0.00935342 0)
(-0.00278898 0.0149803 0)
(-0.00533369 0.0200302 0)
(-0.00848424 0.0244415 0)
(-0.0121418 0.0281742 0)
(-0.0162046 0.0312089 0)
(-0.020573 0.0335442 0)
(-0.0251534 0.0351946 0)
(-0.0298585 0.0361869 0)
(-0.0346075 0.0365578 0)
(-0.0393269 0.0363506 0)
(-0.0439501 0.0356132 0)
(-0.0484179 0.0343958 0)
(-0.052678 0.0327489 0)
(-0.0566846 0.030722 0)
(-0.0603985 0.0283626 0)
(-0.063786 0.0257153 0)
(-0.0668184 0.0228217 0)
(-0.0694719 0.0197202 0)
(-0.0717268 0.016446 0)
(-0.0735667 0.0130314 0)
(-0.0749788 0.00950645 0)
(-0.0759528 0.00589948 0)
(-0.0764813 0.00223759 0)
(-0.0765592 -0.00145252 0)
(-0.0761841 -0.0051439 0)
(-0.0753559 -0.00880861 0)
(-0.0740774 -0.0124171 0)
(-0.0723544 -0.0159374 0)
(-0.0701963 -0.0193349 0)
(-0.0676162 -0.0225717 0)
(-0.064632 -0.0256065 0)
(-0.0612664 -0.0283943 0)
(-0.0575479 -0.0308868 0)
(-0.0535116 -0.0330329 0)
(-0.049199 -0.034779 0)
(-0.0446592 -0.0360705 0)
(-0.0399489 -0.0368533 0)
(-0.0351323 -0.0370749 0)
(-0.0302815 -0.0366873 0)
(-0.0254759 -0.035649 0)
(-0.0208019 -0.0339276 0)
(-0.0163517 -0.0315028 0)
(-0.0122228 -0.0283688 0)
(-0.00851719 -0.0245373 0)
(-0.00533735 -0.0200398 0)
(-0.00278044 -0.0149292 0)
(-0.000974855 -0.00927988 0)
(-0.00014016 -0.00319358 0)
(-0.000152662 0.00375652 0)
(-0.00105288 0.0107944 0)
(-0.00299007 0.0172296 0)
(-0.00572013 0.0229731 0)
(-0.00909937 0.027965 0)
(-0.0130201 0.0321685 0)
(-0.0173713 0.0355684 0)
(-0.0220448 0.0381688 0)
(-0.0269389 0.0399902 0)
(-0.0319593 0.0410664 0)
(-0.0370193 0.0414412 0)
(-0.0420405 0.0411658 0)
(-0.0469522 0.0402957 0)
(-0.0516921 0.0388884 0)
(-0.0562057 0.0370017 0)
(-0.0604458 0.0346917 0)
(-0.064372 0.0320123 0)
(-0.0679499 0.0290136 0)
(-0.0711509 0.0257424 0)
(-0.0739511 0.0222413 0)
(-0.0763309 0.0185495 0)
(-0.0782741 0.0147028 0)
(-0.079768 0.0107342 0)
(-0.0808024 0.00667476 0)
(-0.0813698 0.00255402 0)
(-0.0814648 -0.00159889 0)
(-0.0810846 -0.00575455 0)
(-0.0802285 -0.00988245 0)
(-0.0788986 -0.0139501 0)
(-0.0770999 -0.0179224 0)
(-0.0748409 -0.021761 0)
(-0.0721339 -0.0254238 0)
(-0.068996 -0.0288643 0)
(-0.0654498 -0.0320322 0)
(-0.0615236 -0.034873 0)
(-0.057253 -0.0373285 0)
(-0.0526806 -0.0393379 0)
(-0.0478576 -0.0408388 0)
(-0.0428433 -0.0417687 0)
(-0.0377059 -0.0420671 0)
(-0.0325225 -0.041678 0)
(-0.0273785 -0.0405522 0)
(-0.0223673 -0.0386503 0)
(-0.0175894 -0.0359459 0)
(-0.0131514 -0.0324286 0)
(-0.00916489 -0.0281063 0)
(-0.00574222 -0.0230086 0)
(-0.00298982 -0.0171877 0)
(-0.00104704 -0.0107189 0)
(-0.000150055 -0.00370685 0)
(-0.000163303 0.00431095 0)
(-0.00112846 0.0123393 0)
(-0.00320682 0.0196421 0)
(-0.00613601 0.0261292 0)
(-0.0097605 0.0317421 0)
(-0.013963 0.0364472 0)
(-0.0186226 0.0402337 0)
(-0.0236214 0.0431119 0)
(-0.0288494 0.0451093 0)
(-0.0342046 0.0462676 0)
(-0.0395939 0.0466391 0)
(-0.0449335 0.0462836 0)
(-0.0501486 0.0452651 0)
(-0.0551739 0.0436496 0)
(-0.0599524 0.0415028 0)
(-0.0644354 0.0388884 0)
(-0.0685819 0.0358668 0)
(-0.072357 0.0324944 0)
(-0.0757323 0.0288231 0)
(-0.0786839 0.0249003 0)
(-0.0811927 0.0207691 0)
(-0.083243 0.0164686 0)
(-0.0848223 0.0120348 0)
(-0.0859206 0.00750135 0)
(-0.0865304 0.0029001 0)
(-0.086646 -0.00173762 0)
(-0.0862641 -0.00638015 0)
(-0.0853834 -0.0109945 0)
(-0.084005 -0.0155456 0)
(-0.0821327 -0.0199951 0)
(-0.079774 -0.0243009 0)
(-0.0769401 -0.0284166 0)
(-0.073647 -0.0322906 0)
(-0.0699164 -0.0358668 0)
(-0.0657765 -0.0390837 0)
(-0.0612629 -0.041876 0)
(-0.0564193 -0.0441745 0)
(-0.0512986 -0.0459081 0)
(-0.045963 -0.0470052 0)
(-0.0404847 -0.0473959 0)
(-0.0349462 -0.047015 0)
(-0.0294393 -0.0458045 0)
(-0.0240654 -0.043717 0)
(-0.0189339 -0.040719 0)
(-0.0141614 -0.0367944 0)
(-0.00987033 -0.0319472 0)
(-0.00618384 -0.0262046 0)
(-0.00321863 -0.0196188 0)
(-0.00112614 -0.0122669 0)
(-0.000160978 -0.00425806 0)
(-0.000175062 0.00490533 0)
(-0.00121135 0.013997 0)
(-0.00344373 0.0222313 0)
(-0.00658952 0.0295157 0)
(-0.0104801 0.0357927 0)
(-0.0149873 0.0410317 0)
(-0.0199795 0.0452271 0)
(-0.0253283 0.0483958 0)
(-0.0309142 0.0505736 0)
(-0.036627 0.0518112 0)
(-0.0423667 0.0521704 0)
(-0.0480438 0.0517208 0)
(-0.0535793 0.0505363 0)
(-0.0589043 0.0486923 0)
(-0.06396 0.0462634 0)
(-0.0686963 0.0433213 0)
(-0.0730714 0.039934 0)
(-0.0770507 0.0361641 0)
(-0.0806057 0.0320694 0)
(-0.0837136 0.0277019 0)
(-0.0863556 0.0231087 0)
(-0.0885167 0.0183325 0)
(-0.090185 0.0134119 0)
(-0.0913509 0.00838291 0)
(-0.0920067 0.0032795 0)
(-0.0921469 -0.00186504 0)
(-0.0917673 -0.0070171 0)
(-0.0908658 -0.0121416 0)
(-0.0894425 -0.0172007 0)
(-0.0874997 -0.0221533 0)
(-0.0850435 -0.0269537 0)
(-0.0820834 -0.0315508 0)
(-0.078634 -0.035888 0)
(-0.074716 -0.0399027 0)
(-0.0703565 -0.0435266 0)
(-0.065591 -0.0466859 0)
(-0.0604639 -0.0493024 0)
(-0.0550297 -0.0512954 0)
(-0.0493534 -0.0525828 0)
(-0.0435115 -0.0530842 0)
(-0.0375919 -0.0527237 0)
(-0.0316938 -0.0514333 0)
(-0.025927 -0.049156 0)
(-0.0204109 -0.0458503 0)
(-0.0152732 -0.0414933 0)
(-0.0106485 -0.0360847 0)
(-0.00667205 -0.0296494 0)
(-0.00347222 -0.0222394 0)
(-0.00121414 -0.013935 0)
(-0.000173231 -0.00485126 0)
(-0.000188198 0.00554384 0)
(-0.00130323 0.0157788 0)
(-0.00370535 0.025014 0)
(-0.00708898 0.0331537 0)
(-0.0112706 0.0401408 0)
(-0.0161101 0.0459479 0)
(-0.0214634 0.050575 0)
(-0.0271907 0.0540468 0)
(-0.033162 0.0564083 0)
(-0.0392583 0.0577204 0)
(-0.0453719 0.0580562 0)
(-0.0514074 0.0574963 0)
(-0.0572812 0.0561258 0)
(-0.0629214 0.0540305 0)
(-0.0682668 0.0512949 0)
(-0.0732665 0.0479999 0)
(-0.0778783 0.0442213 0)
(-0.082068 0.0400289 0)
(-0.0858079 0.0354861 0)
(-0.089076 0.0306502 0)
(-0.0918547 0.0255723 0)
(-0.0941299 0.0202981 0)
(-0.0958905 0.0148691 0)
(-0.0971275 0.00932319 0)
(-0.0978334 0.00369621 0)
(-0.0980023 -0.00197697 0)
(-0.0976296 -0.00766112 0)
(-0.0967122 -0.0133193 0)
(-0.0952486 -0.0189116 0)
(-0.0932397 -0.024394 0)
(-0.0906894 -0.0297173 0)
(-0.0876054 -0.034826 0)
(-0.0840002 -0.0396581 0)
(-0.0798927 -0.0441444 0)
(-0.0753087 -0.0482088 0)
(-0.0702831 -0.0517687 0)
(-0.0648604 -0.054736 0)
(-0.0590964 -0.0570188 0)
(-0.0530589 -0.0585235 0)
(-0.0468286 -0.0591577 0)
(-0.0404993 -0.0588331 0)
(-0.0341778 -0.0574699 0)
(-0.0279834 -0.0550003 0)
(-0.0220466 -0.0513732 0)
(-0.0165077 -0.0465581 0)
(-0.0115148 -0.0405493 0)
(-0.00721705 -0.0333691 0)
(-0.00375616 -0.0250704 0)
(-0.00131306 -0.0157368 0)
(-0.00018713 -0.00549149 0)
(-0.000202983 0.00623151 0)
(-0.00140581 0.017698 0)
(-0.00399636 0.0280104 0)
(-0.00764289 0.0370683 0)
(-0.0121448 0.0448148 0)
(-0.0173483 0.0512259 0)
(-0.0230956 0.0563081 0)
(-0.0292337 0.0600947 0)
(-0.0356213 0.0626415 0)
(-0.0421293 0.0640213 0)
(-0.0486422 0.0643198 0)
(-0.0550581 0.0636303 0)
(-0.0612888 0.0620504 0)
(-0.0672592 0.0596781 0)
(-0.0729064 0.0566086 0)
(-0.0781787 0.052933 0)
(-0.083034 0.0487356 0)
(-0.0874391 0.0440938 0)
(-0.0913674 0.0390774 0)
(-0.0947984 0.0337487 0)
(-0.097716 0.0281627 0)
(-0.100108 0.0223684 0)
(-0.101963 0.0164096 0)
(-0.103274 0.0103258 0)
(-0.104034 0.00415441 0)
(-0.104236 -0.00206871 0)
(-0.103876 -0.00830711 0)
(-0.102948 -0.0145225 0)
(-0.101451 -0.0206731 0)
(-0.0993817 -0.0267124 0)
(-0.0967429 -0.0325879 0)
(-0.0935394 -0.0382399 0)
(-0.0897811 -0.0436007 0)
(-0.0854843 -0.0485943 0)
(-0.0806731 -0.0531362 0)
(-0.0753807 -0.0571343 0)
(-0.0696514 -0.0604893 0)
(-0.0635418 -0.0630971 0)
(-0.0571222 -0.0648508 0)
(-0.0504774 -0.0656442 0)
(-0.0437073 -0.065375 0)
(-0.0369272 -0.0639496 0)
(-0.0302665 -0.0612875 0)
(-0.0238683 -0.0573264 0)
(-0.0178867 -0.0520267 0)
(-0.0124853 -0.0453765 0)
(-0.00782953 -0.0373953 0)
(-0.00407631 -0.0281366 0)
(-0.00142509 -0.0176889 0)
(-0.000203013 -0.00618489 0)
(-0.000219705 0.0069743 0)
(-0.00152094 0.0197706 0)
(-0.00432165 0.031244 0)
(-0.00826005 0.0412886 0)
(-0.0131159 0.0498474 0)
(-0.0187196 0.0569002 0)
(-0.0248976 0.0624608 0)
(-0.0314824 0.0665728 0)
(-0.0383197 0.0693042 0)
(-0.0452698 0.0707417 0)
(-0.0522085 0.0709853 0)
(-0.059027 0.0701431 0)
(-0.0656327 0.068327 0)
(-0.0719473 0.0656482 0)
(-0.0779066 0.0622145 0)
(-0.0834586 0.0581277 0)
(-0.0885621 0.0534818 0)
(-0.0931851 0.0483623 0)
(-0.0973031 0.0428455 0)
(-0.100898 0.0369989 0)
(-0.103954 0.0308815 0)
(-0.106463 0.0245452 0)
(-0.108414 0.0180358 0)
(-0.109802 0.0113941 0)
(-0.110619 0.00465833 0)
(-0.11086 -0.00213503 0)
(-0.110518 -0.00894896 0)
(-0.109587 -0.0157443 0)
(-0.108064 -0.022478 0)
(-0.105943 -0.0291016 0)
(-0.103224 -0.0355595 0)
(-0.0999083 -0.0417877 0)
(-0.0960028 -0.0477131 0)
(-0.0915203 -0.0532524 0)
(-0.0864819 -0.0583125 0)
(-0.0809189 -0.0627905 0)
(-0.0748744 -0.066575 0)
(-0.0684051 -0.0695482 0)
(-0.0615832 -0.0715882 0)
(-0.0544976 -0.0725729 0)
(-0.0472546 -0.0723837 0)
(-0.0399781 -0.0709111 0)
(-0.0328089 -0.0680596 0)
(-0.0259037 -0.0637536 0)
(-0.0194327 -0.0579427 0)
(-0.0135771 -0.0506077 0)
(-0.00852082 -0.0417644 0)
(-0.00443894 -0.0314675 0)
(-0.00155254 -0.0198108 0)
(-0.000221246 -0.00693873 0)
(-0.000238676 0.00777913 0)
(-0.00165055 0.0220147 0)
(-0.00468637 0.0347418 0)
(-0.0089497 0.0458479 0)
(-0.0141974 0.0552756 0)
(-0.0202418 0.0630093 0)
(-0.0268911 0.0690713 0)
(-0.0339615 0.0735171 0)
(-0.0412842 0.0764293 0)
(-0.0487079 0.0779104 0)
(-0.0560989 0.0780772 0)
(-0.0633416 0.0770547 0)
(-0.0703387 0.0749708 0)
(-0.0770092 0.0719521 0)
(-0.0832881 0.06812 0)
(-0.0891238 0.0635886 0)
(-0.0944766 0.0584622 0)
(-0.0993167 0.0528349 0)
(-0.103622 0.0467899 0)
(-0.107377 0.0403999 0)
(-0.110571 0.0337281 0)
(-0.113195 0.0268286 0)
(-0.115242 0.0197489 0)
(-0.116707 0.0125306 0)
(-0.117584 0.0052121 0)
(-0.117868 -0.00217024 0)
(-0.117551 -0.00957948 0)
(-0.116627 -0.0169764 0)
(-0.115087 -0.0243172 0)
(-0.112926 -0.0315519 0)
(-0.110138 -0.0386225 0)
(-0.106722 -0.045461 0)
(-0.102679 -0.0519887 0)
(-0.098019 -0.058115 0)
(-0.0927583 -0.0637375 0)
(-0.0869252 -0.0687419 0)
(-0.0805605 -0.0730033 0)
(-0.0737204 -0.0763884 0)
(-0.0664783 -0.0787585 0)
(-0.0589268 -0.0799731 0)
(-0.0511783 -0.079895 0)
(-0.043366 -0.0783959 0)
(-0.0356431 -0.0753624 0)
(-0.0281814 -0.0707032 0)
(-0.0211692 -0.0643552 0)
(-0.0148079 -0.0562898 0)
(-0.00930299 -0.0465186 0)
(-0.00485078 -0.035097 0)
(-0.00169795 -0.0221253 0)
(-0.000242236 -0.00776153 0)
(-0.000260244 0.00865396 0)
(-0.00179675 0.0244515 0)
(-0.00509607 0.0385349 0)
(-0.00972159 0.0507839 0)
(-0.0154036 0.0611409 0)
(-0.0219332 0.0695957 0)
(-0.0290979 0.0761809 0)
(-0.0366952 0.0809663 0)
(-0.0445406 0.0840511 0)
(-0.0524695 0.0855566 0)
(-0.0603383 0.0856192 0)
(-0.0680246 0.0843831 0)
(-0.0754264 0.0819947 0)
(-0.0824609 0.0785978 0)
(-0.0890625 0.0743292 0)
(-0.0951812 0.0693162 0)
(-0.10078 0.0636747 0)
(-0.105831 0.0575079 0)
(-0.110317 0.0509062 0)
(-0.114226 0.0439476 0)
(-0.11755 0.0366987 0)
(-0.120284 0.0292162 0)
(-0.122424 0.0215483 0)
(-0.123966 0.0137368 0)
(-0.124906 0.00581944 0)
(-0.125237 -0.00216823 0)
(-0.124953 -0.0101903 0)
(-0.124045 -0.0182082 0)
(-0.122502 -0.0261784 0)
(-0.120315 -0.0340501 0)
(-0.117475 -0.0417633 0)
(-0.113974 -0.0492466 0)
(-0.109809 -0.056416 0)
(-0.104985 -0.0631733 0)
(-0.0995127 -0.0694063 0)
(-0.0934156 -0.0749883 0)
(-0.0867314 -0.0797799 0)
(-0.0795143 -0.0836305 0)
(-0.0718381 -0.0863821 0)
(-0.0637981 -0.0878733 0)
(-0.055513 -0.087945 0)
(-0.0471253 -0.0864469 0)
(-0.0388016 -0.0832448 0)
(-0.0307305 -0.0782283 0)
(-0.0231205 -0.0713184 0)
(-0.0161964 -0.0624755 0)
(-0.0101889 -0.0517054 0)
(-0.00531909 -0.039064 0)
(-0.00186408 -0.0246587 0)
(-0.000266438 -0.00866319 0)
(-0.000284792 0.00960789 0)
(-0.00196184 0.0271046 0)
(-0.00555666 0.0426578 0)
(-0.0105861 0.0561384 0)
(-0.0167492 0.0674888 0)
(-0.0238125 0.0767057 0)
(-0.0315397 0.0838339 0)
(-0.0397071 0.0889602 0)
(-0.0481124 0.092204 0)
(-0.056577 0.0937085 0)
(-0.0649469 0.0936327 0)
(-0.0730924 0.092143 0)
(-0.0809076 0.0894072 0)
(-0.0883082 0.0855883 0)
(-0.0952296 0.0808404 0)
(-0.101624 0.0753056 0)
(-0.107458 0.069112 0)
(-0.112709 0.0623726 0)
(-0.117363 0.0551851 0)