/*--------------------------------*- C++ -*----------------------------------*\
  =========                 |
  \\      /  F ield         | OpenFOAM: The Open Source CFD Toolbox
   \\    /   O peration     | Website:  https://openfoam.org
    \\  /    A nd           | Version:  7
     \\/     M anipulation  |
\*---------------------------------------------------------------------------*/
FoamFile
{
    version     2.0;
    format      ascii;
    class       volScalarField;
    location    "0.0136";
    object      p;
}
// * * * * * * * * * * * * * * * * * * * * * * * * * * * * * * * * * * * * * //

dimensions      [0 2 -2 0 0 0 0];

internalField   nonuniform List<scalar> 
2500
(
-2.35949e-07
6.38352
9.0443
10.1347
10.7221
11.0671
11.2781
11.417
11.5156
11.5897
11.6484
11.6969
11.7388
11.7761
11.8104
11.8427
11.8737
11.9039
11.9336
11.9629
11.9922
12.0214
12.0507
12.0801
12.1096
12.1394
12.1696
12.2001
12.2311
12.2627
12.2951
12.3286
12.3635
12.4001
12.4391
12.4812
12.5273
12.5789
12.6376
12.7063
12.7886
12.8904
13.0212
13.1976
13.4517
13.8477
14.5025
15.6882
18.4651
24.9719
4.86924
7.46755
8.88213
9.76175
10.3616
10.7649
11.0379
11.2293
11.3687
11.474
11.5565
11.6235
11.6797
11.7283
11.7717
11.8113
11.8481
11.8831
11.9167
11.9494
11.9814
12.013
12.0444
12.0757
12.107
12.1385
12.1703
12.2026
12.2356
12.2694
12.3043
12.3408
12.3792
12.4201
12.4644
12.513
12.5673
12.6291
12.701
12.7866
12.891
13.022
13.1914
13.4177
13.7316
14.1835
14.8434
15.7962
17.2966
20.0114
7.70874
8.4703
9.21046
9.83055
10.3138
10.6736
10.939
11.137
11.2877
11.4048
11.4981
11.5746
11.6389
11.6945
11.7435
11.7879
11.8288
11.8672
11.9037
11.9388
11.9729
12.0063
12.0393
12.072
12.1047
12.1375
12.1706
12.2042
12.2386
12.2739
12.3107
12.3492
12.39
12.4338
12.4814
12.5341
12.5933
12.661
12.7399
12.8338
12.9477
13.089
13.2677
13.4985
13.8017
14.2052
14.7391
15.414
16.2089
17.034
9.12282
9.297
9.67319
10.0713
10.4178
10.7014
10.9284
11.1088
11.2528
11.369
11.4643
11.5439
11.6117
11.6708
11.7231
11.7705
11.8141
11.8548
11.8933
11.9302
11.9659
12.0007
12.035
12.0688
12.1026
12.1364
12.1705
12.2051
12.2406
12.2771
12.3151
12.3549
12.3973
12.4429
12.4926
12.5475
12.6092
12.6795
12.761
12.8569
12.9715
13.1104
13.2808
13.4915
13.7526
14.0744
14.4619
14.9011
15.3129
15.5165
9.94
9.91575
10.0886
10.3293
10.5661
10.7789
10.9626
11.1175
11.2471
11.3559
11.4479
11.5266
11.5948
11.655
11.7089
11.7579
11.803
11.8453
11.8852
11.9234
11.9603
11.9962
12.0314
12.0662
12.1008
12.1354
12.1703
12.2058
12.242
12.2794
12.3182
12.359
12.4024
12.449
12.4998
12.5557
12.6182
12.689
12.7701
12.8642
12.9745
13.1046
13.259
13.4418
13.6561
13.9015
14.1711
14.4418
14.6371
14.6239
10.4559
10.3661
10.4317
10.5708
10.7276
10.882
11.0251
11.1528
11.2647
11.3623
11.4474
11.5221
11.5883
11.6476
11.7013
11.7505
11.7963
11.8392
11.8798
11.9188
11.9564
11.993
12.0289
12.0643
12.0995
12.1347
12.1702
12.2062
12.243
12.2809
12.3203
12.3616
12.4054
12.4524
12.5033
12.5592
12.6211
12.6905
12.769
12.8585
12.9611
13.079
13.2141
13.3674
13.5377
13.7197
13.9023
14.063
14.1417
14.0524
10.8002
10.6974
10.7094
10.7856
10.8862
10.9952
11.1035
11.2056
11.2992
11.384
11.4603
11.5291
11.5913
11.6481
11.7003
11.7487
11.7939
11.8367
11.8775
11.9166
11.9545
11.9914
12.0277
12.0634
12.099
12.1345
12.1703
12.2066
12.2437
12.2818
12.3214
12.3628
12.4066
12.4533
12.5037
12.5585
12.6187
12.6854
12.7597
12.8429
12.9361
13.0401
13.1554
13.2807
13.4129
13.5449
13.6656
13.757
13.776
13.6681
11.0444
10.9466
10.9327
10.9705
11.0327
11.1078
11.188
11.2679
11.3445
11.4164
11.4832
11.5451
11.6023
11.6555
11.7051
11.7518
11.7959
11.8378
11.8781
11.9169
11.9547
11.9915
12.0278
12.0636
12.0993
12.1349
12.1708
12.2072
12.2443
12.2824
12.3218
12.363
12.4063
12.4523
12.5015
12.5547
12.6124
12.6754
12.7446
12.8205
12.9036
12.9938
13.0903
13.191
13.2919
13.3859
13.4637
13.5119
13.5008
13.3956
11.2268
11.1388
11.1127
11.1273
11.1638
11.2143
11.2726
11.3341
11.3957
11.4557
11.5132
11.5678
11.6195
11.6685
11.715
11.7592
11.8015
11.8422
11.8815
11.9196
11.9568
11.9933
12.0293
12.0649
12.1004
12.1359
12.1717
12.2079
12.2448
12.2827
12.3217
12.3624
12.4049
12.4498
12.4975
12.5484
12.6031
12.662
12.7256
12.7939
12.867
12.9442
13.024
13.1039
13.1798
13.2457
13.2939
13.3154
13.2895
13.1932
11.3684
11.2902
11.2589
11.2596
11.2791
11.3119
11.3536
11.4002
11.4492
11.4986
11.5474
11.5951
11.6412
11.6858
11.7287
11.7702
11.8103
11.8493
11.8872
11.9243
11.9607
11.9966
12.032
12.0672
12.1024
12.1376
12.173
12.2089
12.2455
12.2828
12.3213
12.3611
12.4026
12.4461
12.4919
12.5404
12.5917
12.6463
12.7041
12.7651
12.8288
12.8941
12.9595
13.0223
13.0787
13.1238
13.152
13.1569
13.1243
13.0377
11.4813
11.4118
11.3789
11.3713
11.3795
11.3998
11.429
11.4639
11.5024
11.5428
11.5839
11.6251
11.6659
11.706
11.7453
11.7839
11.8216
11.8586
11.895
11.9308
11.9661
12.0011
12.0358
12.0705
12.1051
12.1398
12.1748
12.2102
12.2461
12.2829
12.3206
12.3594
12.3997
12.4416
12.4853
12.5311
12.5791
12.6292
12.6815
12.7355
12.7905
12.8455
12.8986
12.9475
12.989
13.019
13.0334
13.0283
12.993
12.9155
11.5729
11.5108
11.4781
11.4657
11.4664
11.4779
11.4978
11.5237
11.5538
11.5865
11.621
11.6563
11.6921
11.7281
11.7638
11.7994
11.8347
11.8696
11.9042
11.9386
11.9727
12.0067
12.0406
12.0744
12.1083
12.1424
12.1768
12.2116
12.2469
12.2829
12.3197
12.3574
12.3963
12.4365
12.478
12.5211
12.5656
12.6115
12.6584
12.706
12.7534
12.7994
12.8423
12.8802
12.9101
12.9292
12.9343
12.9231
12.8874
12.8179
11.6482
11.5924
11.5607
11.5457
11.5416
11.5469
11.5599
11.5788
11.602
11.6285
11.6572
11.6875
11.7189
11.7509
11.7833
11.816
11.8488
11.8817
11.9145
11.9473
11.9802
12.013
12.0459
12.0789
12.1121
12.1454
12.1791
12.2132
12.2477
12.2828
12.3186
12.3551
12.3925
12.4309
12.4703
12.5106
12.5518
12.5936
12.6357
12.6775
12.7182
12.7565
12.7911
12.8201
12.8414
12.8525
12.8514
12.8365
12.8017
12.7393
11.7105
11.6601
11.6299
11.6135
11.6063
11.6072
11.6152
11.6287
11.6466
11.668
11.6919
11.7178
11.7452
11.7737
11.8031
11.833
11.8635
11.8943
11.9253
11.9566
11.9881
12.0198
12.0517
12.0837
12.116
12.1486
12.1815
12.2148
12.2484
12.2826
12.3173
12.3526
12.3885
12.4251
12.4623
12.5
12.538
12.5761
12.6138
12.6505
12.6853
12.7173
12.7451
12.7671
12.7817
12.7871
12.7818
12.765
12.7317
12.6754
11.7624
11.7166
11.688
11.671
11.6619
11.6598
11.664
11.6735
11.6872
11.7044
11.7243
11.7465
11.7705
11.7959
11.8224
11.8499
11.8781
11.907
11.9363
11.9661
11.9963
12.0268
12.0576
12.0887
12.1201
12.1519
12.1839
12.2163
12.2491
12.2823
12.3159
12.35
12.3844
12.4192
12.4543
12.4895
12.5246
12.5592
12.593
12.6252
12.6551
12.6817
12.704
12.7206
12.7302
12.7315
12.7235
12.7058
12.6742
12.6233
11.8057
11.7639
11.7368
11.7198
11.7095
11.7053
11.7068
11.7132
11.7236
11.7374
11.7541
11.7731
11.7942
11.8169
11.8409
11.8662
11.8924
11.9194
11.9471
11.9755
12.0043
12.0337
12.0635
12.0936
12.1242
12.155
12.1863
12.2178
12.2497
12.2819
12.3144
12.3472
12.3802
12.4133
12.4464
12.4793
12.5117
12.5433
12.5736
12.6019
12.6277
12.6499
12.6678
12.6802
12.686
12.6844
12.6747
12.6567
12.627
12.5807
11.8418
11.8033
11.7778
11.7611
11.75
11.7445
11.744
11.748
11.7558
11.7669
11.7809
11.7974
11.8159
11.8363
11.8582
11.8814
11.9058
11.9312
11.9574
11.9844
12.0121
12.0404
12.0691
12.0984
12.128
12.1581
12.1885
12.2192
12.2502
12.2814
12.3129
12.3444
12.376
12.4076
12.4389
12.4697
12.4997
12.5285
12.5558
12.5809
12.6031
12.6218
12.6361
12.6452
12.6483
12.6446
12.6338
12.616
12.5882
12.546
11.8717
11.8361
11.8121
11.7957
11.7844
11.7778
11.7759
11.7781
11.7839
11.7929
11.8048
11.8191
11.8355
11.8539
11.8739
11.8954
11.9182
11.9421
11.967
11.9928
12.0193
12.0466
12.0744
12.1028
12.1316
12.1608
12.1904
12.2203
12.2505
12.2808
12.3113
12.3417
12.3721
12.4021
12.4317
12.4607
12.4886
12.5151
12.5398
12.5621
12.5815
12.5972
12.6088
12.6153
12.6164
12.6113
12.5999
12.5824
12.5563
12.5177
11.8963
11.8633
11.8406
11.8246
11.8131
11.806
11.803
11.8039
11.8081
11.8154
11.8255
11.8381
11.8528
11.8695
11.8879
11.9079
11.9293
11.952
11.9757
12.0004
12.0259
12.0522
12.0792
12.1068
12.1348
12.1633
12.1922
12.2213
12.2507
12.2802
12.3097
12.3391
12.3683
12.3971
12.4252
12.4525
12.4786
12.5031
12.5256
12.5456
12.5627
12.5761
12.5854
12.5901
12.5896
12.5836
12.5719
12.555
12.5304
12.4948
11.9164
11.8854
11.8638
11.8484
11.8368
11.8293
11.8256
11.8254
11.8285
11.8345
11.8432
11.8543
11.8677
11.883
11.9001
11.9189
11.9391
11.9606
11.9833
12.0071
12.0317
12.0572
12.0835
12.1103
12.1377
12.1655
12.1937
12.2222
12.2508
12.2795
12.3082
12.3367
12.3649
12.3925
12.4194
12.4453
12.4698
12.4926
12.5134
12.5315
12.5467
12.5583
12.5659
12.5691
12.5675
12.5609
12.5492
12.5327
12.5095
12.4765
11.9324
11.9031
11.8825
11.8674
11.856
11.8482
11.844
11.8431
11.8453
11.8503
11.8579
11.8679
11.8801
11.8943
11.9103
11.9281
11.9473
11.9679
11.9898
12.0127
12.0367
12.0615
12.0871
12.1133
12.1401
12.1673
12.1949
12.2228
12.2508
12.2789
12.3069
12.3346
12.3619
12.3886
12.4144
12.4391
12.4624
12.4838
12.5031
12.5198
12.5335
12.5437
12.55
12.5521
12.5497
12.5427
12.531
12.5151
12.4931
12.4621
11.9448
11.9168
11.8969
11.8823
11.8709
11.863
11.8584
11.857
11.8585
11.8627
11.8695
11.8787
11.89
11.9034
11.9186
11.9355
11.954
11.9738
11.995
12.0173
12.0407
12.0649
12.09
12.1157
12.142
12.1688
12.1959
12.2233
12.2508
12.2783
12.3057
12.3328
12.3594
12.3853
12.4103
12.4341
12.4563
12.4767
12.4949
12.5104
12.523
12.5321
12.5375
12.5388
12.5359
12.5286
12.517
12.5015
12.4804
12.4511
11.9538
11.9268
11.9075
11.8931
11.8819
11.8739
11.8691
11.8673
11.8683
11.872
11.8782
11.8867
11.8974
11.9102
11.9248
11.9411
11.959
11.9783
11.999
12.0208
12.0437
12.0675
12.0922
12.1175
12.1435
12.1699
12.1966
12.2237
12.2508
12.2779
12.3048
12.3314
12.3575
12.3828
12.4072
12.4302
12.4517
12.4713
12.4887
12.5034
12.5151
12.5235
12.5282
12.529
12.5257
12.5182
12.5067
12.4916
12.4713
12.4431
11.9597
11.9333
11.9144
11.9003
11.8891
11.881
11.8761
11.874
11.8748
11.8781
11.884
11.8921
11.9024
11.9147
11.9289
11.9448
11.9623
11.9813
12.0016
12.0232
12.0458
12.0693
12.0937
12.1187
12.1444
12.1706
12.1971
12.2239
12.2507
12.2776
12.3042
12.3305
12.3562
12.3811
12.405
12.4277
12.4487
12.4677
12.4845
12.4987
12.5099
12.5178
12.5221
12.5226
12.5191
12.5115
12.5001
12.4852
12.4653
12.438
11.9626
11.9366
11.9179
11.9038
11.8927
11.8846
11.8796
11.8774
11.878
11.8812
11.8868
11.8948
11.9049
11.917
11.931
11.9467
11.964
11.9828
12.003
12.0243
12.0468
12.0702
12.0944
12.1194
12.1449
12.1709
12.1973
12.224
12.2507
12.2774
12.3039
12.33
12.3555
12.3803
12.404
12.4264
12.4471
12.4659
12.4825
12.4964
12.5073
12.515
12.5191
12.5194
12.5157
12.5081
12.4968
12.482
12.4624
12.4354
11.9626
11.9366
11.9179
11.9038
11.8927
11.8846
11.8796
11.8774
11.878
11.8812
11.8868
11.8948
11.9049
11.917
11.931
11.9467
11.964
11.9828
12.003
12.0243
12.0468
12.0702
12.0944
12.1194
12.1449
12.1709
12.1973
12.224
12.2507
12.2774
12.3039
12.33
12.3555
12.3803
12.404
12.4264
12.4471
12.4659
12.4825
12.4964
12.5073
12.515
12.5191
12.5194
12.5157
12.5081
12.4968
12.482
12.4624
12.4354
11.9597
11.9333
11.9144
11.9003
11.8891
11.881
11.8761
11.874
11.8748
11.8781
11.884
11.8921
11.9024
11.9147
11.9289
11.9448
11.9623
11.9813
12.0016
12.0232
12.0458
12.0693
12.0937
12.1187
12.1444
12.1706
12.1971
12.2239
12.2507
12.2776
12.3042
12.3305
12.3562
12.3811
12.405
12.4277
12.4487
12.4677
12.4845
12.4987
12.5099
12.5178
12.5221
12.5226
12.519
12.5115
12.5001
12.4852
12.4653
12.438
11.9538
11.9268
11.9075
11.8931
11.8819
11.8739
11.8691
11.8673
11.8683
11.872
11.8782
11.8867
11.8974
11.9102
11.9248
11.9411
11.959
11.9783
11.999
12.0208
12.0437
12.0675
12.0922
12.1175
12.1435
12.1699
12.1966
12.2236
12.2508
12.2779
12.3048
12.3314
12.3575
12.3828
12.4072
12.4302
12.4517
12.4713
12.4887
12.5034
12.5151
12.5235
12.5282
12.529
12.5257
12.5182
12.5067
12.4916
12.4713
12.4431
11.9448
11.9168
11.8969
11.8823
11.8709
11.863
11.8584
11.857
11.8585
11.8627
11.8695
11.8787
11.89
11.9034
11.9186
11.9355
11.954
11.9738
11.995
12.0173
12.0407
12.0649
12.09
12.1157
12.142
12.1688
12.1959
12.2233
12.2508
12.2783
12.3057
12.3328
12.3594
12.3853
12.4103
12.4341
12.4563
12.4767
12.4949
12.5104
12.523
12.5321
12.5375
12.5388
12.5359
12.5286
12.517
12.5015
12.4804
12.4511
11.9324
11.9031
11.8825
11.8674
11.856
11.8482
11.844
11.8431
11.8453
11.8503
11.8579
11.8679
11.8801
11.8943
11.9103
11.9281
11.9473
11.9679
11.9898
12.0127
12.0367
12.0615
12.0871
12.1133
12.1401
12.1673
12.1949
12.2228
12.2508
12.2789
12.3069
12.3346
12.3619
12.3886
12.4144
12.4391
12.4624
12.4838
12.5031
12.5198
12.5335
12.5437
12.55
12.5521
12.5497
12.5427
12.531
12.515
12.4931
12.4621
11.9164
11.8854
11.8638
11.8484
11.8368
11.8293
11.8256
11.8254
11.8285
11.8345
11.8432
11.8543
11.8677
11.883
11.9001
11.9189
11.9391
11.9606
11.9833
12.0071
12.0317
12.0572
12.0835
12.1103
12.1377
12.1655
12.1937
12.2222
12.2508
12.2795
12.3082
12.3367
12.3649
12.3925
12.4194
12.4453
12.4698
12.4926
12.5134
12.5315
12.5467
12.5583
12.5659
12.5691
12.5675
12.5609
12.5492
12.5327
12.5095
12.4765
11.8963
11.8633
11.8406
11.8246
11.8131
11.806
11.803
11.8039
11.8081
11.8154
11.8255
11.8381
11.8528
11.8695
11.8879
11.9079
11.9293
11.952
11.9757
12.0004
12.0259
12.0522
12.0792
12.1068
12.1348
12.1633
12.1922
12.2213
12.2507
12.2802
12.3097
12.3391
12.3683
12.3971
12.4252
12.4525
12.4786
12.5031
12.5256
12.5456
12.5627
12.5761
12.5854
12.5901
12.5896
12.5836
12.5719
12.555
12.5304
12.4948
11.8717
11.8361
11.8121
11.7957
11.7844
11.7778
11.7759
11.7781
11.7839
11.7929
11.8048
11.8191
11.8355
11.8539
11.8739
11.8954
11.9182
11.9421
11.967
11.9928
12.0193
12.0466
12.0744
12.1028
12.1316
12.1608
12.1904
12.2203
12.2505
12.2808
12.3113
12.3417
12.3721
12.4021
12.4317
12.4607
12.4886
12.5151
12.5398
12.5621
12.5815
12.5972
12.6088
12.6153
12.6164
12.6113
12.5999
12.5824
12.5563
12.5177
11.8418
11.8033
11.7778
11.7611
11.75
11.7445
11.744
11.748
11.7558
11.7669
11.7809
11.7974
11.8159
11.8363
11.8582
11.8814
11.9058
11.9312
11.9574
11.9844
12.0121
12.0404
12.0691
12.0984
12.128
12.1581
12.1885
12.2192
12.2502
12.2814
12.3129
12.3444
12.376
12.4076
12.4389
12.4696
12.4997
12.5285
12.5558
12.5809
12.6031
12.6218
12.6361
12.6452
12.6483
12.6446
12.6338
12.616
12.5882
12.546
11.8057
11.7639
11.7368
11.7198
11.7095
11.7053
11.7068
11.7132
11.7236
11.7374
11.7541
11.7731
11.7942
11.8169
11.8409
11.8662
11.8924
11.9194
11.9471
11.9755
12.0043
12.0337
12.0635
12.0936
12.1242
12.155
12.1863
12.2178
12.2497
12.2819
12.3144
12.3472
12.3802
12.4133
12.4464
12.4793
12.5117
12.5433
12.5736
12.6019
12.6277
12.6499
12.6678
12.6802
12.686
12.6844
12.6747
12.6567
12.627
12.5807
11.7624
11.7166
11.688
11.671
11.6619
11.6598
11.664
11.6735
11.6872
11.7044
11.7243
11.7465
11.7705
11.7959
11.8224
11.8499
11.8781
11.907
11.9363
11.9661
11.9963
12.0268
12.0576
12.0887
12.1201
12.1519
12.1839
12.2163
12.2491
12.2823
12.3159
12.3499
12.3844
12.4192
12.4543
12.4895
12.5246
12.5592
12.593
12.6252
12.6551
12.6817
12.704
12.7206
12.7302
12.7315
12.7235
12.7058
12.6742
12.6233
11.7105
11.6601
11.6299
11.6135
11.6063
11.6072
11.6152
11.6287
11.6466
11.668
11.6919
11.7178
11.7452
11.7737
11.8031
11.8331
11.8635
11.8943
11.9253
11.9566
11.9881
12.0198
12.0517
12.0837
12.116
12.1486
12.1815
12.2148
12.2484
12.2826
12.3173
12.3526
12.3885
12.4251
12.4623
12.5
12.538
12.5761
12.6138
12.6505
12.6853
12.7173
12.7451
12.7671
12.7817
12.7871
12.7818
12.765
12.7317
12.6754
11.6482
11.5924
11.5607
11.5457
11.5416
11.5469
11.5599
11.5788
11.602
11.6285
11.6572
11.6875
11.7189
11.7509
11.7833
11.816
11.8488
11.8817
11.9145
11.9473
11.9802
12.013
12.0459
12.0789
12.1121
12.1454
12.1791
12.2131
12.2477
12.2828
12.3186
12.3551
12.3925
12.4309
12.4703
12.5106
12.5518
12.5936
12.6357
12.6775
12.7182
12.7565
12.7911
12.8201
12.8414
12.8524
12.8514
12.8365
12.8017
12.7393
11.5729
11.5108
11.4781
11.4657
11.4664
11.4779
11.4978
11.5237
11.5538
11.5865
11.621
11.6563
11.6921
11.7281
11.7638
11.7994
11.8347
11.8696
11.9042
11.9386
11.9727
12.0067
12.0406
12.0744
12.1083
12.1424
12.1768
12.2116
12.2469
12.2829
12.3197
12.3574
12.3963
12.4365
12.478
12.5211
12.5656
12.6115
12.6584
12.706
12.7534
12.7994
12.8423
12.8801
12.9101
12.9292
12.9343
12.923
12.8874
12.8179
11.4813
11.4118
11.3789
11.3713
11.3795
11.3998
11.429
11.4639
11.5024
11.5428
11.5839
11.6251
11.6659
11.706
11.7453
11.7839
11.8216
11.8586
11.895
11.9308
11.9661
12.0011
12.0358
12.0705
12.1051
12.1398
12.1748
12.2102
12.2461
12.2829
12.3206
12.3594
12.3997
12.4416
12.4853
12.5311
12.579
12.6292
12.6815
12.7355
12.7905
12.8455
12.8986
12.9475
12.989
13.019
13.0334
13.0283
12.993
12.9155
11.3684
11.2902
11.2589
11.2596
11.2791
11.3119
11.3536
11.4002
11.4492
11.4986
11.5474
11.5951
11.6412
11.6858
11.7287
11.7702
11.8103
11.8493
11.8872
11.9243
11.9607
11.9966
12.032
12.0672
12.1024
12.1376
12.173
12.2089
12.2454
12.2828
12.3213
12.3611
12.4026
12.4461
12.4919
12.5404
12.5917
12.6463
12.7041
12.7651
12.8288
12.8941
12.9595
13.0222
13.0787
13.1238
13.152
13.1569
13.1243
13.0377
11.2268
11.1388
11.1127
11.1273
11.1638
11.2143
11.2726
11.3341
11.3957
11.4557
11.5132
11.5678
11.6195
11.6685
11.715
11.7592
11.8015
11.8422
11.8815
11.9196
11.9568
11.9933
12.0293
12.0649
12.1004
12.1359
12.1717
12.2079
12.2448
12.2827
12.3217
12.3624
12.4049
12.4498
12.4974
12.5484
12.6031
12.662
12.7256
12.7939
12.867
12.9442
13.024
13.1039
13.1798
13.2456
13.2939
13.3154
13.2895
13.1932
11.0444
10.9466
10.9327
10.9705
11.0327
11.1078
11.188
11.2679
11.3445
11.4164
11.4833
11.5451
11.6023
11.6555
11.7051
11.7518
11.7959
11.8378
11.8781
11.9169
11.9547
11.9915
12.0278
12.0636
12.0993
12.1349
12.1708
12.2072
12.2443
12.2824
12.3218
12.363
12.4063
12.4523
12.5015
12.5547
12.6124
12.6754
12.7446
12.8205
12.9036
12.9938
13.0903
13.191
13.2919
13.3859
13.4637
13.5119
13.5008
13.3956
10.8002
10.6974
10.7094
10.7856
10.8862
10.9952
11.1035
11.2056
11.2992
11.384
11.4603
11.5291
11.5913
11.6481
11.7003
11.7487
11.7939
11.8367
11.8775
11.9166
11.9545
11.9914
12.0277
12.0634
12.099
12.1345
12.1703
12.2066
12.2437
12.2818
12.3214
12.3628
12.4066
12.4533
12.5037
12.5585
12.6187
12.6854
12.7597
12.8429
12.9361
13.0401
13.1554
13.2807
13.4129
13.5449
13.6656
13.757
13.7759
13.6681
10.4559
10.3661
10.4317
10.5708
10.7276
10.882
11.0251
11.1528
11.2647
11.3623
11.4474
11.5221
11.5883
11.6476
11.7013
11.7505
11.7963
11.8392
11.8798
11.9188
11.9564
11.993
12.0289
12.0643
12.0995
12.1347
12.1702
12.2062
12.243
12.2809
12.3203
12.3616
12.4054
12.4524
12.5033
12.5592
12.6211
12.6905
12.769
12.8585
12.9611
13.079
13.2141
13.3674
13.5377
13.7197
13.9023
14.063
14.1417
14.0524
9.94
9.91575
10.0886
10.3293
10.5661
10.7789
10.9626
11.1175
11.2471
11.3559
11.4479
11.5266
11.5948
11.655
11.7089
11.7579
11.803
11.8453
11.8852
11.9234
11.9603
11.9962
12.0314
12.0662
12.1008
12.1354
12.1703
12.2058
12.242
12.2794
12.3182
12.359
12.4024
12.449
12.4998
12.5557
12.6182
12.689
12.7701
12.8642
12.9745
13.1046
13.259
13.4418
13.6561
13.9015
14.1711
14.4418
14.6371
14.6239
9.12282
9.297
9.67319
10.0713
10.4178
10.7014
10.9284
11.1088
11.2528
11.369
11.4643
11.5439
11.6117
11.6708
11.7231
11.7705
11.8141
11.8548
11.8933
11.9302
11.9659
12.0007
12.035
12.0688
12.1026
12.1364
12.1705
12.2052
12.2406
12.2771
12.3151
12.3549
12.3973
12.4429
12.4926
12.5475
12.6092
12.6795
12.761
12.8569
12.9715
13.1104
13.2808
13.4914
13.7526
14.0744
14.4619
14.9011
15.3129
15.5165
7.70874
8.4703
9.21046
9.83055
10.3138
10.6736
10.939
11.137
11.2877
11.4048
11.4981
11.5746
11.6389
11.6945
11.7435
11.7879
11.8288
11.8672
11.9037
11.9388
11.9729
12.0063
12.0393
12.072
12.1047
12.1375
12.1706
12.2042
12.2386
12.2739
12.3107
12.3492
12.39
12.4338
12.4814
12.5341
12.5933
12.661
12.7399
12.8338
12.9477
13.089
13.2677
13.4985
13.8017
14.2052
14.7391
15.414
16.2089
17.034
4.86924
7.46755
8.88213
9.76175
10.3616
10.7649
11.0379
11.2293
11.3687
11.474
11.5565
11.6235
11.6797
11.7283
11.7717
11.8113
11.8481
11.8831
11.9167
11.9494
11.9814
12.013
12.0444
12.0757
12.107
12.1385
12.1703
12.2026
12.2356
12.2694
12.3043
12.3408
12.3792
12.4201
12.4644
12.513
12.5673
12.6291
12.701
12.7866
12.891
13.022
13.1914
13.4177
13.7316
14.1835
14.8434
15.7962
17.2966
20.0114
-2.37519e-07
6.38352
9.0443
10.1347
10.7221
11.0671
11.2781
11.417
11.5156
11.5897
11.6484
11.6969
11.7388
11.7761
11.8104
11.8427
11.8737
11.9039
11.9336
11.9629
11.9922
12.0214
12.0507
12.0801
12.1096
12.1395
12.1696
12.2001
12.2311
12.2627
12.2951
12.3286
12.3635
12.4001
12.4391
12.4812
12.5273
12.5789
12.6376
12.7063
12.7886
12.8904
13.0212
13.1976
13.4517
13.8477
14.5025
15.6882
18.4651
24.9719
)
;

boundaryField
{
    movingWallTop
    {
        type            zeroGradient;
    }
    movingWallBottom
    {
        type            zeroGradient;
    }
    fixedWalls
    {
        type            zeroGradient;
    }
    frontAndBack
    {
        type            empty;
    }
}


// ************************************************************************* //
