/*--------------------------------*- C++ -*----------------------------------*\
  =========                 |
  \\      /  F ield         | OpenFOAM: The Open Source CFD Toolbox
   \\    /   O peration     | Website:  https://openfoam.org
    \\  /    A nd           | Version:  7
     \\/     M anipulation  |
\*---------------------------------------------------------------------------*/
FoamFile
{
    version     2.0;
    format      ascii;
    class       surfaceScalarField;
    location    "0.0458";
    object      phi;
}
// * * * * * * * * * * * * * * * * * * * * * * * * * * * * * * * * * * * * * //

dimensions      [0 3 -1 0 0 0 0];

internalField   nonuniform List<scalar> 
4900
(
1.02768e-09
-1.02852e-09
2.03497e-09
-1.00733e-09
1.99511e-09
3.9872e-11
5.76426e-10
1.41869e-09
-2.28756e-09
2.86398e-09
-6.5112e-09
4.22363e-09
-1.19383e-08
5.42711e-09
-1.83829e-08
6.44453e-09
-2.56488e-08
7.26599e-09
-3.35404e-08
7.89153e-09
-4.1867e-08
8.32658e-09
-5.04466e-08
8.57963e-09
-5.91076e-08
8.66101e-09
-6.76897e-08
8.5821e-09
-7.60446e-08
8.35485e-09
-8.4036e-08
7.99145e-09
-9.15403e-08
7.50424e-09
-9.84458e-08
6.9055e-09
-1.04653e-07
6.20745e-09
-1.10076e-07
5.42225e-09
-1.14638e-07
4.56201e-09
-1.18276e-07
3.63884e-09
-1.20941e-07
2.66493e-09
-1.22594e-07
1.65265e-09
-1.23209e-07
6.14572e-10
-1.22772e-07
-4.36385e-10
-1.21285e-07
-1.48694e-09
-1.18762e-07
-2.52338e-09
-1.1523e-07
-3.53154e-09
-1.10733e-07
-4.49683e-09
-1.05329e-07
-5.40426e-09
-9.90906e-08
-6.23851e-09
-9.21065e-08
-6.98406e-09
-8.44812e-08
-7.62533e-09
-7.63343e-08
-8.1469e-09
-6.78005e-08
-8.5337e-09
-5.90292e-08
-8.77132e-09
-5.01829e-08
-8.84627e-09
-4.14365e-08
-8.7464e-09
-3.29752e-08
-8.46126e-09
-2.49926e-08
-7.98266e-09
-1.76871e-08
-7.30547e-09
-1.12583e-08
-6.42882e-09
-5.89995e-09
-5.35833e-09
-1.78941e-09
-4.11054e-09
9.33474e-10
-2.72289e-09
2.20557e-09
-1.27209e-09
2.10851e-09
9.7091e-11
1.02962e-09
1.07894e-09
1.02967e-09
1.02109e-09
-2.04966e-09
9.96649e-10
-9.82877e-10
-1.52188e-09
2.55847e-09
-7.22516e-09
7.122e-09
-1.62926e-08
1.19315e-08
-2.86049e-08
1.65359e-08
-4.38618e-08
2.06841e-08
-6.1661e-08
2.42437e-08
-8.15471e-08
2.71521e-08
-1.03043e-07
2.93873e-08
-1.25669e-07
3.09527e-08
-1.48957e-07
3.18673e-08
-1.72456e-07
3.21603e-08
-1.95741e-07
3.18671e-08
-2.18413e-07
3.10274e-08
-2.40105e-07
2.96834e-08
-2.6048e-07
2.78786e-08
-2.79232e-07
2.56575e-08
-2.96089e-07
2.30649e-08
-3.10813e-07
2.01458e-08
-3.23196e-07
1.69457e-08
-3.33067e-07
1.351e-08
-3.40287e-07
9.88499e-09
-3.44752e-07
6.11734e-09
-3.46392e-07
2.25476e-09
-3.45175e-07
-1.65393e-09
-3.41103e-07
-5.55861e-09
-3.34219e-07
-9.40774e-09
-3.24602e-07
-1.31483e-08
-3.12373e-07
-1.6726e-08
-2.97692e-07
-2.00851e-08
-2.80761e-07
-2.31693e-08
-2.61824e-07
-2.59217e-08
-2.41163e-07
-2.82858e-08
-2.19104e-07
-3.02059e-08
-1.96009e-07
-3.16284e-08
-1.72278e-07
-3.25028e-08
-1.48341e-07
-3.27829e-08
-1.24659e-07
-3.24286e-08
-1.01713e-07
-3.14075e-08
-7.99976e-08
-2.9698e-08
-6.00105e-08
-2.72925e-08
-4.22366e-08
-2.42028e-08
-2.71258e-08
-2.04691e-08
-1.50613e-08
-1.6175e-08
-6.3102e-09
-1.1474e-08
-9.45847e-10
-6.63649e-09
1.27917e-09
-2.12801e-09
1.08901e-09
1.26899e-09
2.11871e-09
1.24001e-11
-2.06205e-09
-2.45552e-09
1.48504e-09
-8.82409e-09
8.92704e-09
-1.97773e-08
1.80752e-08
-3.55035e-08
2.76577e-08
-5.58439e-08
3.68763e-08
-8.04016e-08
4.52417e-08
-1.08628e-07
5.24705e-08
-1.39887e-07
5.84104e-08
-1.73493e-07
6.29935e-08
-2.08748e-07
6.62075e-08
-2.44957e-07
6.80768e-08
-2.81448e-07
6.86507e-08
-3.17576e-07
6.79951e-08
-3.52735e-07
6.61871e-08
-3.86363e-07
6.33112e-08
-4.17941e-07
5.94566e-08
-4.46999e-07
5.47155e-08
-4.73116e-07
4.9182e-08
-4.95922e-07
4.29517e-08
-5.15098e-07
3.61212e-08
-5.30376e-07
2.8788e-08
-5.41542e-07
2.1051e-08
-5.48435e-07
1.30109e-08
-5.50951e-07
4.7702e-09
-5.49038e-07
-3.56633e-09
-5.42706e-07
-1.18911e-08
-5.3202e-07
-2.00939e-08
-5.17107e-07
-2.80614e-08
-4.98154e-07
-3.5678e-08
-4.75414e-07
-4.28259e-08
-4.49197e-07
-4.93857e-08
-4.19881e-07
-5.52382e-08
-3.87902e-07
-6.02648e-08
-3.53758e-07
-6.43501e-08
-3.18002e-07
-6.73835e-08
-2.81243e-07
-6.92623e-08
-2.44132e-07
-6.9894e-08
-2.0736e-07
-6.92005e-08
-1.71645e-07
-6.71227e-08
-1.37717e-07
-6.36258e-08
-1.06301e-07
-5.8708e-08
-7.80928e-08
-5.24114e-08
-5.37224e-08
-4.48395e-08
-3.37133e-08
-3.61841e-08
-1.84183e-08
-2.6769e-08
-7.93457e-09
-1.71201e-08
-1.99766e-09
-8.06489e-09
1.58464e-10
-8.87186e-10
2.27718e-09
-1.31927e-09
-7.42732e-10
-6.94232e-09
7.1081e-09
-1.78982e-08
1.98829e-08
-3.46944e-08
3.48713e-08
-5.74155e-08
5.03789e-08
-8.5811e-08
6.52719e-08
-1.19383e-07
7.88134e-08
-1.5746e-07
9.05481e-08
-1.99263e-07
1.00213e-07
-2.43946e-07
1.07677e-07
-2.90637e-07
1.12899e-07
-3.38463e-07
1.15903e-07
-3.8657e-07
1.16757e-07
-4.34135e-07
1.15561e-07
-4.80382e-07
1.12434e-07
-5.24583e-07
1.07512e-07
-5.66068e-07
1.00941e-07
-6.04226e-07
9.28736e-08
-6.3851e-07
8.34663e-08
-6.68438e-07
7.28797e-08
-6.93594e-07
6.12768e-08
-7.13629e-07
4.88231e-08
-7.28264e-07
3.56866e-08
-7.37292e-07
2.20383e-08
-7.40574e-07
8.05265e-09
-7.38048e-07
-6.09212e-09
-7.29726e-07
-2.02134e-08
-7.15696e-07
-3.4124e-08
-6.96125e-07
-4.76325e-08
-6.71259e-07
-6.05435e-08
-6.41427e-07
-7.26587e-08
-6.07034e-07
-8.37779e-08
-5.68571e-07
-9.37013e-08
-5.26604e-07
-1.02232e-07
-4.81776e-07
-1.09178e-07
-4.34802e-07
-1.14358e-07
-3.8646e-07
-1.17604e-07
-3.37585e-07
-1.18769e-07
-2.89056e-07
-1.17729e-07
-2.41783e-07
-1.14396e-07
-1.96683e-07
-1.08726e-07
-1.54661e-07
-1.0073e-07
-1.16576e-07
-9.04956e-08
-8.3206e-08
-7.821e-08
-5.51921e-08
-6.4198e-08
-3.29832e-08
-4.8978e-08
-1.67587e-08
-3.33446e-08
-6.34661e-09
-1.8477e-08
-1.14357e-09
-6.09024e-09
1.13361e-09
-2.74654e-09
2.00381e-09
-1.17939e-08
1.61555e-08
-2.76897e-08
3.57787e-08
-5.06502e-08
5.78319e-08
-8.05658e-08
8.02944e-08
-1.17041e-07
1.01748e-07
-1.59454e-07
1.21226e-07
-2.0701e-07
1.38104e-07
-2.588e-07
1.52003e-07
-3.13843e-07
1.62719e-07
-3.71123e-07
1.70179e-07
-4.29619e-07
1.74399e-07
-4.88328e-07
1.75466e-07
-5.46279e-07
1.73513e-07
-6.02553e-07
1.68708e-07
-6.56286e-07
1.61245e-07
-7.0668e-07
1.51335e-07
-7.53005e-07
1.39199e-07
-7.94608e-07
1.25069e-07
-8.3091e-07
1.09182e-07
-8.61415e-07
9.17811e-08
-8.85703e-07
7.31119e-08
-9.03442e-07
5.34257e-08
-9.14382e-07
3.29779e-08
-9.18359e-07
1.20294e-08
-9.15297e-07
-9.15322e-09
-9.05214e-07
-3.02972e-08
-8.88214e-07
-5.11234e-08
-8.645e-07
-7.13466e-08
-8.34367e-07
-9.06763e-08
-7.98208e-07
-1.08818e-07
-7.5651e-07
-1.25476e-07
-7.09856e-07
-1.40355e-07
-6.58924e-07
-1.53164e-07
-6.04477e-07
-1.63625e-07
-5.47365e-07
-1.71471e-07
-4.88509e-07
-1.7646e-07
-4.28896e-07
-1.78381e-07
-3.69563e-07
-1.77062e-07
-3.11576e-07
-1.72384e-07
-2.56009e-07
-1.64293e-07
-2.03919e-07
-1.5282e-07
-1.56307e-07
-1.38107e-07
-1.14082e-07
-1.20435e-07
-7.80093e-08
-1.00271e-07
-4.86591e-08
-7.83283e-08
-2.63476e-08
-5.56561e-08
-1.10836e-08
-3.37409e-08
-2.5307e-09
-1.46431e-08
-1.39709e-09
-4.14468e-09
6.14848e-09
-1.66674e-08
2.86782e-08
-3.76207e-08
5.6732e-08
-6.68756e-08
8.70868e-08
-1.04073e-07
1.17492e-07
-1.4863e-07
1.46305e-07
-1.99771e-07
1.72367e-07
-2.56567e-07
1.949e-07
-3.17979e-07
2.13415e-07
-3.82898e-07
2.27639e-07
-4.50182e-07
2.37462e-07
-5.1868e-07
2.42898e-07
-5.87263e-07
2.44048e-07
-6.54836e-07
2.41085e-07
-7.20357e-07
2.34229e-07
-7.82848e-07
2.23736e-07
-8.41402e-07
2.09889e-07
-8.95191e-07
1.92988e-07
-9.4347e-07
1.73348e-07
-9.85582e-07
1.51294e-07
-1.02096e-06
1.27157e-07
-1.04912e-06
1.01276e-07
-1.06969e-06
7.39969e-08
-1.08239e-06
4.56713e-08
-1.08702e-06
1.66587e-08
-1.0835e-06
-1.26737e-08
-1.07184e-06
-4.19503e-08
-1.05218e-06
-7.07872e-08
-1.02473e-06
-9.87924e-08
-9.89841e-07
-1.25567e-07
-9.47951e-07
-1.50708e-07
-8.99617e-07
-1.7381e-07
-8.455e-07
-1.94471e-07
-7.8637e-07
-2.12295e-07
-7.23093e-07
-2.26902e-07
-6.5663e-07
-2.37933e-07
-5.88027e-07
-2.45064e-07
-5.18398e-07
-2.4801e-07
-4.48913e-07
-2.46547e-07
-3.80776e-07
-2.40521e-07
-3.152e-07
-2.29869e-07
-2.53376e-07
-2.14644e-07
-1.96442e-07
-1.95041e-07
-1.45441e-07
-1.71437e-07
-1.01275e-07
-1.44437e-07
-6.46667e-08
-1.14936e-07
-3.61137e-08
-8.42091e-08
-1.58608e-08
-5.39939e-08
-3.89585e-09
-2.66081e-08
-5.29294e-09
-5.4744e-09
1.16229e-08
-2.14127e-08
4.46165e-08
-4.74066e-08
8.2726e-08
-8.29682e-08
1.22648e-07
-1.2746e-07
1.61984e-07
-1.8008e-07
1.98925e-07
-2.39873e-07
2.3216e-07
-3.05758e-07
2.60785e-07
-3.76561e-07
2.84217e-07
-4.51044e-07
3.02123e-07
-5.27944e-07
3.14362e-07
-6.05994e-07
3.20948e-07
-6.83949e-07
3.22003e-07
-7.60606e-07
3.17742e-07
-8.34819e-07
3.08442e-07
-9.05511e-07
2.94428e-07
-9.71683e-07
2.76061e-07
-1.03242e-06
2.53727e-07
-1.08691e-06
2.27834e-07
-1.13441e-06
1.988e-07
-1.17431e-06
1.67056e-07
-1.20608e-06
1.33043e-07
-1.22929e-06
9.72096e-08
-1.24364e-06
6.00148e-08
-1.2489e-06
2.19262e-08
-1.245e-06
-1.65779e-08
-1.23194e-06
-5.50087e-08
-1.20986e-06
-9.28669e-08
-1.17901e-06
-1.29643e-07
-1.13976e-06
-1.64819e-07
-1.09259e-06
-1.97872e-07
-1.03813e-06
-2.28276e-07
-9.77091e-07
-2.55509e-07
-9.10324e-07
-2.79062e-07
-8.38782e-07
-2.98443e-07
-7.63524e-07
-3.13192e-07
-6.85698e-07
-3.22889e-07
-6.06534e-07
-3.27175e-07
-5.2732e-07
-3.25761e-07
-4.49384e-07
-3.18457e-07
-3.74068e-07
-3.05185e-07
-3.02697e-07
-2.86015e-07
-2.36545e-07
-2.61193e-07
-1.76798e-07
-2.31183e-07
-1.24519e-07
-1.96716e-07
-8.06057e-08
-1.58849e-07
-4.57712e-08
-1.19044e-07
-2.05259e-08
-7.92391e-08
-5.19726e-09
-4.19367e-08
-1.04902e-08
-6.73093e-09
1.83538e-08
-2.59852e-08
6.38707e-08
-5.69425e-08
1.13683e-07
-9.87643e-08
1.6447e-07
-1.50523e-07
2.13742e-07
-2.11177e-07
2.59579e-07
-2.79575e-07
3.00557e-07
-3.54465e-07
3.35675e-07
-4.34525e-07
3.64278e-07
-5.18388e-07
3.85985e-07
-6.04665e-07
4.0064e-07
-6.91979e-07
4.08261e-07
-7.78978e-07
4.09003e-07
-8.6436e-07
4.03125e-07
-9.46887e-07
3.90969e-07
-1.0254e-06
3.72936e-07
-1.09881e-06
3.49472e-07
-1.16614e-06
3.21057e-07
-1.2265e-06
2.88195e-07
-1.27911e-06
2.51409e-07
-1.32329e-06
2.11236e-07
-1.35847e-06
1.68226e-07
-1.3842e-06
1.2294e-07
-1.40014e-06
7.59502e-08
-1.40605e-06
2.78416e-08
-1.40184e-06
-2.07886e-08
-1.38752e-06
-6.93298e-08
-1.36323e-06
-1.17158e-07
-1.32923e-06
-1.63638e-07
-1.28593e-06
-2.08123e-07
-1.23384e-06
-2.49961e-07
-1.17362e-06
-2.88495e-07
-1.10606e-06
-3.23076e-07
-1.03205e-06
-3.53068e-07
-9.52635e-07
-3.77859e-07
-8.68951e-07
-3.96876e-07
-7.82242e-07
-4.09598e-07
-6.93838e-07
-4.15579e-07
-6.05139e-07
-4.1446e-07
-5.17592e-07
-4.06003e-07
-4.32666e-07
-3.90111e-07
-3.51821e-07
-3.6686e-07
-2.76476e-07
-3.36538e-07
-2.07976e-07
-2.99683e-07
-1.47559e-07
-2.57134e-07
-9.63246e-08
-2.10083e-07
-5.52205e-08
-1.60148e-07
-2.50359e-08
-1.09424e-07
-6.42933e-09
-6.05433e-08
-1.69195e-08
-7.92449e-09
2.62784e-08
-3.03942e-08
8.63404e-08
-6.62243e-08
1.49513e-07
-1.14243e-07
2.12489e-07
-1.73232e-07
2.72731e-07
-2.41901e-07
3.28248e-07
-3.18883e-07
3.77539e-07
-4.02745e-07
4.19537e-07
-4.92005e-07
4.53538e-07
-5.85155e-07
4.79134e-07
-6.80683e-07
4.96168e-07
-7.77097e-07
5.04675e-07
-8.72945e-07
5.04851e-07
-9.66832e-07
4.97012e-07
-1.05743e-06
4.8157e-07
-1.14351e-06
4.59012e-07
-1.22391e-06
4.29874e-07
-1.29759e-06
3.94738e-07
-1.36361e-06
3.54213e-07
-1.42113e-06
3.08931e-07
-1.46944e-06
2.59542e-07
-1.50792e-06
2.06711e-07
-1.5361e-06
1.51119e-07
-1.55361e-06
9.34578e-08
-1.5602e-06
3.44354e-08
-1.55577e-06
-2.52252e-08
-1.54031e-06
-8.47851e-08
-1.51398e-06
-1.43489e-07
-1.47705e-06
-2.00568e-07
-1.42993e-06
-2.55239e-07
-1.37318e-06
-3.06711e-07
-1.30749e-06
-3.54191e-07
-1.23367e-06
-3.9689e-07
-1.1527e-06
-4.34038e-07
-1.06567e-06
-4.64892e-07
-9.73789e-07
-4.88755e-07
-8.78392e-07
-5.04996e-07
-7.80903e-07
-5.13068e-07
-6.82829e-07
-5.12535e-07
-5.85734e-07
-5.03098e-07
-4.91218e-07
-4.84627e-07
-4.00882e-07
-4.57196e-07
-3.16302e-07
-4.21118e-07
-2.38998e-07
-3.76988e-07
-1.70398e-07
-3.25733e-07
-1.11824e-07
-2.68657e-07
-6.44694e-08
-2.07503e-07
-2.9405e-08
-1.44488e-07
-7.60332e-09
-8.2345e-08
-2.45228e-08
-9.07076e-09
3.53491e-08
-3.46749e-08
1.11945e-07
-7.53022e-08
1.90141e-07
-1.29467e-07
2.66654e-07
-1.95664e-07
3.38928e-07
-2.72347e-07
4.04931e-07
-3.57926e-07
4.63118e-07
-4.50771e-07
5.12383e-07
-5.49232e-07
5.51998e-07
-6.51651e-07
5.81554e-07
-7.56387e-07
6.00904e-07
-8.61833e-07
6.10121e-07
-9.66435e-07
6.09453e-07
-1.06871e-06
5.99285e-07
-1.16725e-06
5.80111e-07
-1.26074e-06
5.52508e-07
-1.34799e-06
5.17117e-07
-1.42787e-06
4.74624e-07
-1.49941e-06
4.25752e-07
-1.56173e-06
3.71248e-07
-1.61407e-06
3.11881e-07
-1.6558e-06
2.48438e-07
-1.6864e-06
1.81721e-07
-1.70549e-06
1.12549e-07
-1.71281e-06
4.17565e-08
-1.70823e-06
-2.98021e-08
-1.69176e-06
-1.01255e-07
-1.66354e-06
-1.7171e-07
-1.62385e-06
-2.40258e-07
-1.57312e-06
-3.05974e-07
-1.51191e-06
-3.67921e-07
-1.44094e-06
-4.2516e-07
-1.36108e-06
-4.76756e-07
-1.27332e-06
-5.21792e-07
-1.17883e-06
-5.59385e-07
-1.07888e-06
-5.88705e-07
-9.74881e-07
-6.08994e-07
-8.68354e-07
-6.19595e-07
-7.6091e-07
-6.19979e-07
-6.54234e-07
-6.09773e-07
-5.50061e-07
-5.88801e-07
-4.50143e-07
-5.57114e-07
-3.56226e-07
-5.15034e-07
-2.70017e-07
-4.63197e-07
-1.93156e-07
-4.02594e-07
-1.27195e-07
-3.34618e-07
-7.35853e-08
-2.61113e-07
-3.36762e-08
-1.84397e-07
-8.73699e-09
-1.07284e-07
-3.32598e-08
-1.01868e-08
4.55359e-08
-3.88736e-08
1.40631e-07
-8.42531e-08
2.3552e-07
-1.44542e-07
3.26943e-07
-2.17952e-07
4.12339e-07
-3.0268e-07
4.89659e-07
-3.96901e-07
5.5734e-07
-4.98784e-07
6.14266e-07
-6.06496e-07
6.5971e-07
-7.18223e-07
6.93281e-07
-8.32188e-07
7.14868e-07
-9.46665e-07
7.24598e-07
-1.06e-06
7.22786e-07
-1.17061e-06
7.09901e-07
-1.27703e-06
6.86529e-07
-1.37788e-06
6.53353e-07
-1.47188e-06
6.11122e-07
-1.5579e-06
5.60637e-07
-1.63488e-06
5.02741e-07
-1.70194e-06
4.38303e-07
-1.75827e-06
3.68215e-07
-1.80322e-06
2.93389e-07
-1.83626e-06
2.14755e-07
-1.85697e-06
1.3326e-07
-1.86508e-06
4.987e-08
-1.86046e-06
-3.44269e-08
-1.84309e-06
-1.18622e-07
-1.81312e-06
-2.01682e-07
-1.77082e-06
-2.82555e-07
-1.71663e-06
-3.60165e-07
-1.65112e-06
-4.33427e-07
-1.57504e-06
-5.01246e-07
-1.48926e-06
-5.62532e-07
-1.39484e-06
-6.16212e-07
-1.29297e-06
-6.61252e-07
-1.18501e-06
-6.96673e-07
-1.07242e-06
-7.21581e-07
-9.56822e-07
-7.35191e-07
-8.39936e-07
-7.36864e-07
-7.23572e-07
-7.26138e-07
-6.09604e-07
-7.02769e-07
-4.99949e-07
-6.66769e-07
-3.96534e-07
-6.18449e-07
-3.01269e-07
-5.58462e-07
-2.16018e-07
-4.87844e-07
-1.42579e-07
-4.08057e-07
-8.2666e-08
-3.21026e-07
-3.7906e-08
-2.29157e-07
-9.85018e-09
-1.3534e-07
-4.311e-08
-1.12892e-08
5.68251e-08
-4.30395e-08
1.72382e-07
-9.31648e-08
2.85646e-07
-1.59594e-07
3.93372e-07
-2.40261e-07
4.93005e-07
-3.33099e-07
5.82497e-07
-4.36048e-07
6.60289e-07
-5.4706e-07
7.25277e-07
-6.64113e-07
7.76764e-07
-7.85231e-07
8.14398e-07
-9.08491e-07
8.38129e-07
-1.03205e-06
8.48155e-07
-1.15414e-06
8.44879e-07
-1.27311e-06
8.28867e-07
-1.38739e-06
8.00817e-07
-1.49557e-06
7.61523e-07
-1.5963e-06
7.11857e-07
-1.68841e-06
6.52743e-07
-1.77081e-06
5.8515e-07
-1.84259e-06
5.10074e-07
-1.90291e-06
4.28535e-07
-1.95109e-06
3.41575e-07
-1.98659e-06
2.50253e-07
-2.00897e-06
1.55646e-07
-2.01796e-06
5.88544e-08
-2.01339e-06
-3.8999e-08
-1.99524e-06
-1.36766e-07
-1.96365e-06
-2.33271e-07
-1.91889e-06
-3.27314e-07
-1.86139e-06
-4.17668e-07
-1.79173e-06
-5.03089e-07
-1.71066e-06
-5.82321e-07
-1.61908e-06
-6.5411e-07
-1.51807e-06
-7.1722e-07
-1.40887e-06
-7.70449e-07
-1.29289e-06
-8.12658e-07
-1.17167e-06
-8.42798e-07
-1.04692e-06
-8.59941e-07
-9.20468e-07
-8.63318e-07
-7.94249e-07
-8.52357e-07
-6.70292e-07
-8.26725e-07
-5.50687e-07
-7.86373e-07
-4.37557e-07
-7.31579e-07
-3.33029e-07
-6.6299e-07
-2.39206e-07
-5.81667e-07
-1.58143e-07
-4.89121e-07
-9.18241e-08
-3.87345e-07
-4.21555e-08
-2.78826e-07
-1.09628e-08
-1.66533e-07
-5.40728e-08
-1.23933e-08
6.92185e-08
-4.72213e-08
2.0721e-07
-1.02127e-07
3.40551e-07
-1.74756e-07
4.66002e-07
-2.62764e-07
5.81013e-07
-3.6382e-07
6.83552e-07
-4.75616e-07
7.72085e-07
-5.95882e-07
8.45544e-07
-7.22401e-07
9.03283e-07
-8.53023e-07
9.45019e-07
-9.85677e-07
9.70783e-07
-1.11839e-06
9.80869e-07
-1.2493e-06
9.75788e-07
-1.37666e-06
9.56222e-07
-1.49883e-06
9.22993e-07
-1.61433e-06
8.77023e-07
-1.72179e-06
8.19317e-07
-1.81998e-06
7.50932e-07
-1.9078e-06
6.72969e-07
-1.98428e-06
5.86559e-07
-2.0486e-06
4.92853e-07
-2.10005e-06
3.93023e-07
-2.13806e-06
2.88261e-07
-2.16219e-06
1.79775e-07
-2.17213e-06
6.87992e-08
-2.16772e-06
-4.34088e-08
-2.14893e-06
-1.55561e-07
-2.11586e-06
-2.66338e-07
-2.06878e-06
-3.7439e-07
-2.00812e-06
-4.78335e-07
-1.93444e-06
-5.76766e-07
-1.8485e-06
-6.68262e-07
-1.75121e-06
-7.51394e-07
-1.64368e-06
-8.24749e-07
-1.52718e-06
-8.86949e-07
-1.40316e-06
-9.36678e-07
-1.27325e-06
-9.72712e-07
-1.13923e-06
-9.93962e-07
-1.00304e-06
-9.99505e-07
-8.66764e-07
-9.88636e-07
-7.3258e-07
-9.60909e-07
-6.02764e-07
-9.16189e-07
-4.7965e-07
-8.54694e-07
-3.65595e-07
-7.77044e-07
-2.62959e-07
-6.84304e-07
-1.74063e-07
-5.78016e-07
-1.01176e-07
-4.60232e-07
-4.64866e-08
-3.33515e-07
-1.20941e-08
-2.00925e-07
-6.6167e-08
-1.35133e-08
8.27318e-08
-5.14643e-08
2.4516e-07
-1.11225e-07
4.00312e-07
-1.90158e-07
5.44934e-07
-2.85634e-07
6.76489e-07
-3.95051e-07
7.92969e-07
-5.15848e-07
8.92882e-07
-6.45525e-07
9.75221e-07
-7.81659e-07
1.03942e-06
-9.21919e-07
1.08528e-06
-1.06408e-06
1.11295e-06
-1.20605e-06
1.12283e-06
-1.34584e-06
1.11558e-06
-1.48163e-06
1.09201e-06
-1.61172e-06
1.05308e-06
-1.73456e-06
9.99862e-07
-1.84874e-06
9.335e-07
-1.953e-06
8.55197e-07
-2.04623e-06
7.66194e-07
-2.12743e-06
6.6776e-07
-2.19576e-06
5.61182e-07
-2.2505e-06
4.47766e-07
-2.29107e-06
3.28832e-07
-2.31702e-06
2.05723e-07
-2.32803e-06
7.98022e-08
-2.3239e-06
-4.75369e-08
-2.30459e-06
-1.74869e-07
-2.2702e-06
-3.00731e-07
-2.22096e-06
-4.23623e-07
-2.15729e-06
-5.42006e-07
-2.07975e-06
-6.54309e-07
-1.98907e-06
-7.58935e-07
-1.88619e-06
-8.54275e-07
-1.77221e-06
-9.38729e-07
-1.64844e-06
-1.01072e-06
-1.51636e-06
-1.06875e-06
-1.37768e-06
-1.1114e-06
-1.23426e-06
-1.13738e-06
-1.08816e-06
-1.14561e-06
-9.41591e-07
-1.1352e-06
-7.96908e-07
-1.10559e-06
-6.56581e-07
-1.05652e-06
-5.23164e-07
-9.8811e-07
-3.99267e-07
-9.00942e-07
-2.87515e-07
-7.96056e-07
-1.90518e-07
-6.75012e-07
-1.10839e-07
-5.39911e-07
-5.09595e-08
-3.93395e-07
-1.32622e-08
-2.38623e-07
-7.94291e-08
-1.46616e-08
9.73935e-08
-5.58104e-08
2.86309e-07
-1.2054e-07
4.65041e-07
-2.0592e-07
6.30314e-07
-3.09031e-07
7.79601e-07
-4.2699e-07
9.10928e-07
-5.56973e-07
1.02286e-06
-6.96239e-07
1.11449e-06
-8.42152e-07
1.18533e-06
-9.92195e-07
1.23532e-06
-1.14399e-06
1.26474e-06
-1.29529e-06
1.27414e-06
-1.44403e-06
1.26432e-06
-1.58829e-06
1.23627e-06
-1.7263e-06
1.19109e-06
-1.85647e-06
1.13003e-06
-1.97736e-06
1.05439e-06
-2.08768e-06
9.65515e-07
-2.18629e-06
8.64805e-07
-2.2722e-06
7.53667e-07
-2.34454e-06
6.33528e-07
-2.40261e-06
5.05827e-07
-2.44579e-06
3.72016e-07
-2.47363e-06
2.33565e-07
-2.48579e-06
9.19666e-08
-2.48208e-06
-5.12542e-08
-2.46241e-06
-1.94537e-07
-2.42686e-06
-3.36279e-07
-2.37565e-06
-4.74832e-07
-2.30916e-06
-6.08497e-07
-2.22793e-06
-7.35537e-07
-2.13269e-06
-8.54176e-07
-2.02435e-06
-9.62616e-07
-1.90402e-06
-1.05906e-06
-1.77303e-06
-1.14172e-06
-1.6329e-06
-1.20888e-06
-1.48539e-06
-1.25891e-06
-1.33246e-06
-1.29032e-06
-1.17626e-06
-1.3018e-06
-1.01916e-06
-1.2923e-06
-8.63688e-07
-1.26106e-06
-7.12517e-07
-1.20769e-06
-5.68442e-07
-1.13219e-06
-4.34334e-07
-1.03505e-06
-3.13109e-07
-9.17282e-07
-2.0768e-07
-7.80441e-07
-1.20923e-07
-6.26668e-07
-5.56314e-08
-4.58686e-07
-1.44838e-08
-2.7977e-07
-9.39129e-08
-1.58494e-08
1.13243e-07
-6.02972e-08
3.30757e-07
-1.30144e-07
5.34888e-07
-2.22153e-07
7.22324e-07
-3.33103e-07
8.9055e-07
-4.59816e-07
1.03764e-06
-5.99193e-07
1.16224e-06
-7.48242e-07
1.26354e-06
-9.04105e-07
1.34119e-06
-1.06407e-06
1.39529e-06
-1.2256e-06
1.42626e-06
-1.38632e-06
1.43486e-06
-1.54404e-06
1.42205e-06
-1.69677e-06
1.389e-06
-1.84269e-06
1.33701e-06
-1.98015e-06
1.26749e-06
-2.10769e-06
1.18193e-06
-2.224e-06
1.08183e-06
-2.32794e-06
9.68746e-07
-2.41851e-06
8.44237e-07
-2.49485e-06
7.09868e-07
-2.55624e-06
5.67212e-07
-2.60207e-06
4.17847e-07
-2.63187e-06
2.6337e-07
-2.6453e-06
1.05397e-07
-2.64214e-06
-5.44219e-08
-2.62228e-06
-2.14396e-07
-2.58577e-06
-3.72787e-07
-2.5328e-06
-5.278e-07
-2.46371e-06
-6.77583e-07
-2.37903e-06
-8.20226e-07
-2.27943e-06
-9.53773e-07
-2.16582e-06
-1.07623e-06
-2.0393e-06
-1.18558e-06
-1.90119e-06
-1.27982e-06
-1.75306e-06
-1.35701e-06
-1.5967e-06
-1.41527e-06
-1.43416e-06
-1.45286e-06
-1.26771e-06
-1.46825e-06
-1.09985e-06
-1.46016e-06
-9.33287e-07
-1.42762e-06
-7.70924e-07
-1.37005e-06
-6.15801e-07
-1.28731e-06
-4.71073e-07
-1.17978e-06
-3.39963e-07
-1.04839e-06
-2.25714e-07
-8.9469e-07
-1.31536e-07
-7.20847e-07
-6.05566e-08
-5.29665e-07
-1.5775e-08
-3.24552e-07
-1.09688e-07
-1.70866e-08
1.3033e-07
-6.49587e-08
3.78629e-07
-1.40103e-07
6.10032e-07
-2.38959e-07
8.21181e-07
-3.57982e-07
1.00957e-06
-4.93686e-07
1.17334e-06
-6.42681e-07
1.31124e-06
-8.01714e-07
1.42257e-06
-9.67692e-07
1.50717e-06
-1.13771e-06
1.5653e-06
-1.30905e-06
1.59761e-06
-1.47921e-06
1.60502e-06
-1.64591e-06
1.58875e-06
-1.80707e-06
1.55015e-06
-1.96081e-06
1.49075e-06
-2.10546e-06
1.41215e-06
-2.23954e-06
1.316e-06
-2.36173e-06
1.20402e-06
-2.4709e-06
1.07791e-06
-2.56604e-06
9.39383e-07
-2.64631e-06
7.90141e-07
-2.71099e-06
6.31891e-07
-2.75948e-06
4.66337e-07
-2.79131e-06
2.95194e-07
-2.8061e-06
1.20194e-07
-2.80363e-06
-5.68932e-08
-2.78377e-06
-2.34257e-07
-2.74653e-06
-4.10029e-07
-2.69206e-06
-5.82273e-07
-2.62065e-06
-7.48987e-07
-2.53279e-06
-9.08092e-07
-2.42912e-06
-1.05745e-06
-2.31049e-06
-1.19485e-06
-2.178e-06
-1.31807e-06
-2.03296e-06
-1.42487e-06
-1.87694e-06
-1.51303e-06
-1.71179e-06
-1.58042e-06
-1.5396e-06
-1.62504e-06
-1.36277e-06
-1.64508e-06
-1.18395e-06
-1.63899e-06
-1.00602e-06
-1.60555e-06
-8.32109e-07
-1.54396e-06
-6.6553e-07
-1.45389e-06
-5.09737e-07
-1.33557e-06
-3.68287e-07
-1.18984e-06
-2.44776e-07
-1.0182e-06
-1.42778e-07
-8.22845e-07
-6.57865e-08
-6.06657e-07
-1.71505e-08
-3.73188e-07
-1.26838e-07
-1.83822e-08
1.48712e-07
-6.98253e-08
4.30072e-07
-1.50476e-07
6.90682e-07
-2.56425e-07
9.2713e-07
-3.83784e-07
1.13693e-06
-5.28733e-07
1.31829e-06
-6.87579e-07
1.47008e-06
-8.56789e-07
1.59178e-06
-1.03303e-06
1.68341e-06
-1.21318e-06
1.74546e-06
-1.39437e-06
1.77879e-06
-1.57396e-06
1.78461e-06
-1.74956e-06
1.76435e-06
-1.91902e-06
1.71961e-06
-2.08043e-06
1.65216e-06
-2.23209e-06
1.56381e-06
-2.37252e-06
1.45643e-06
-2.5004e-06
1.33191e-06
-2.61461e-06
1.19212e-06
-2.71417e-06
1.03895e-06
-2.79826e-06
8.74226e-07
-2.86616e-06
6.9979e-07
-2.91728e-06
5.17464e-07
-2.95116e-06
3.2907e-07
-2.96742e-06
1.36453e-07
-2.9658e-06
-5.8515e-08
-2.94615e-06
-2.53909e-07
-2.90843e-06
-4.47741e-07
-2.85276e-06
-6.37945e-07
-2.77938e-06
-8.22371e-07
-2.68869e-06
-9.98776e-07
-2.58131e-06
-1.16483e-06
-2.45803e-06
-1.31813e-06
-2.31989e-06
-1.45621e-06
-2.16818e-06
-1.57657e-06
-2.00449e-06
-1.67672e-06
-1.83067e-06
-1.75425e-06
-1.64888e-06
-1.80683e-06
-1.46162e-06
-1.83234e-06
-1.27168e-06
-1.82894e-06
-1.08213e-06
-1.7951e-06
-8.96332e-07
-1.72975e-06
-7.17881e-07
-1.63234e-06
-5.50556e-07
-1.50289e-06
-3.98272e-07
-1.34213e-06
-2.6501e-07
-1.15146e-06
-1.54744e-07
-9.3311e-07
-7.13695e-08
-6.90031e-07
-1.86245e-08
-4.25933e-07
-1.45463e-07
-1.97443e-08
1.68456e-07
-7.49252e-08
4.85253e-07
-1.61317e-07
7.77074e-07
-2.74632e-07
1.04045e-06
-4.10606e-07
1.27291e-06
-5.65068e-07
1.47276e-06
-7.33995e-07
1.63901e-06
-9.13561e-07
1.77135e-06
-1.10018e-06
1.87003e-06
-1.29051e-06
1.93579e-06
-1.48152e-06
1.9698e-06
-1.67043e-06
1.97353e-06
-1.85477e-06
1.94868e-06
-2.03232e-06
1.89717e-06
-2.20114e-06
1.82098e-06
-2.35953e-06
1.72219e-06
-2.506e-06
1.6029e-06
-2.63928e-06
1.46518e-06
-2.75826e-06
1.3111e-06
-2.862e-06
1.14269e-06
-2.94971e-06
9.61927e-07
-3.02069e-06
7.70771e-07
-3.07438e-06
5.71154e-07
-3.11031e-06
3.65002e-07
-3.12811e-06
1.5425e-07
-3.12749e-06
-5.91306e-08
-3.10828e-06
-2.73119e-07
-3.0704e-06
-4.85621e-07
-3.01389e-06
-6.94452e-07
-2.93894e-06
-8.97322e-07
-2.84589e-06
-1.09183e-06
-2.73525e-06
-1.27547e-06
-2.60777e-06
-1.44561e-06
-2.46443e-06
-1.59955e-06
-2.30646e-06
-1.73453e-06
-2.13543e-06
-1.84776e-06
-1.95319e-06
-1.93649e-06
-1.76196e-06
-1.99806e-06
-1.5643e-06
-2.02999e-06
-1.36316e-06
-2.03009e-06
-1.16179e-06
-1.99647e-06
-9.63795e-07
-1.92775e-06
-7.73068e-07
-1.82307e-06
-5.93733e-07
-1.68223e-06
-4.30094e-07
-1.50576e-06
-2.86552e-07
-1.29501e-06
-1.67524e-07
-1.05214e-06
-7.73522e-08
-7.80203e-07
-2.02106e-08
-4.83075e-07
-1.65673e-07
-2.11808e-08
1.89637e-07
-8.02845e-08
5.44357e-07
-1.72675e-07
8.69465e-07
-2.9365e-07
1.16142e-06
-4.38537e-07
1.41779e-06
-6.02782e-07
1.637e-06
-7.82006e-07
1.81823e-06
-9.72074e-07
1.96141e-06
-1.16913e-06
2.06708e-06
-1.36962e-06
2.13629e-06
-1.57033e-06
2.17051e-06
-1.76837e-06
2.17156e-06
-1.96117e-06
2.14148e-06
-2.14647e-06
2.08247e-06
-2.32232e-06
1.99683e-06
-2.48702e-06
1.88689e-06
-2.63911e-06
1.75499e-06
-2.77736e-06
1.60344e-06
-2.90072e-06
1.43446e-06
-3.0083e-06
1.25026e-06
-3.09933e-06
1.05296e-06
-3.17317e-06
8.44618e-07
-3.2293e-06
6.27278e-07
-3.26724e-06
4.02947e-07
-3.28664e-06
1.73644e-07
-3.28718e-06
-5.85841e-08
-3.26867e-06
-2.91636e-07
-3.23096e-06
-5.23326e-07
-3.17405e-06
-7.51365e-07
-3.09803e-06
-9.73341e-07
-3.00316e-06
-1.1867e-06
-2.88986e-06
-1.38876e-06
-2.75879e-06
-1.57669e-06
-2.61082e-06
-1.74752e-06
-2.44714e-06
-1.89821e-06
-2.26925e-06
-2.02566e-06
-2.07899e-06
-2.12675e-06
-1.8786e-06
-2.19845e-06
-1.67071e-06
-2.23788e-06
-1.45839e-06
-2.24241e-06
-1.24508e-06
-2.20978e-06
-1.03464e-06
-2.13819e-06
-8.3126e-07
-2.02645e-06
-6.39442e-07
-1.87405e-06
-4.63909e-07
-1.6813e-06
-3.09528e-07
-1.44939e-06
-1.81204e-07
-1.18046e-06
-8.37795e-08
-8.77628e-07
-2.19222e-08
-5.44932e-07
-1.87596e-07
-2.26993e-08
2.12336e-07
-8.59289e-08
6.07586e-07
-1.84599e-07
9.68134e-07
-3.13546e-07
1.29037e-06
-4.67653e-07
1.5719e-06
-6.41943e-07
1.81129e-06
-8.3166e-07
2.00795e-06
-1.03233e-06
2.16209e-06
-1.23982e-06
2.27457e-06
-1.45035e-06
2.34682e-06
-1.66054e-06
2.3807e-06
-1.86738e-06
2.3784e-06
-2.06822e-06
2.34232e-06
-2.26078e-06
2.27503e-06
-2.44311e-06
2.17916e-06
-2.61354e-06
2.05732e-06
-2.77068e-06
1.91213e-06
-2.91334e-06
1.7461e-06
-3.04054e-06
1.56167e-06
-3.15147e-06
1.36119e-06
-3.24542e-06
1.14691e-06
-3.32182e-06
9.2102e-07
-3.38017e-06
6.85625e-07
-3.42004e-06
4.42813e-07
-3.44106e-06
1.94662e-07
-3.44292e-06
-5.6725e-08
-3.42537e-06
-3.09184e-07
-3.38823e-06
-5.60462e-07
-3.33141e-06
-8.08186e-07
-3.25492e-06
-1.04983e-06
-3.1589e-06
-1.28272e-06
-3.04367e-06
-1.50399e-06
-2.90975e-06
-1.7106e-06
-2.75792e-06
-1.89935e-06
-2.58926e-06
-2.06687e-06
-2.40518e-06
-2.20974e-06
-2.20748e-06
-2.32445e-06
-1.99839e-06
-2.40754e-06
-1.78059e-06
-2.45567e-06
-1.55725e-06
-2.46575e-06
-1.332e-06
-2.43503e-06
-1.10894e-06
-2.36126e-06
-8.92581e-07
-2.2428e-06
-6.87828e-07
-2.0788e-06
-4.99861e-07
-1.86926e-06
-3.34056e-07
-1.61519e-06
-1.95866e-07
-1.31865e-06
-9.06955e-08
-9.82799e-07
-2.37727e-08
-6.11855e-07
-2.11368e-07
-2.4308e-08
2.36644e-07
-9.18853e-08
6.75164e-07
-1.97136e-07
1.07338e-06
-3.34385e-07
1.42762e-06
-4.98023e-07
1.73554e-06
-6.8261e-07
1.99588e-06
-8.82975e-07
2.20832e-06
-1.09429e-06
2.3734e-06
-1.31212e-06
2.4924e-06
-1.53247e-06
2.56717e-06
-1.75177e-06
2.6e-06
-1.96691e-06
2.59354e-06
-2.1752e-06
2.55061e-06
-2.37435e-06
2.47418e-06
-2.56243e-06
2.36724e-06
-2.73783e-06
2.23273e-06
-2.89923e-06
2.07353e-06
-3.04556e-06
1.89242e-06
-3.17591e-06
1.69202e-06
-3.28955e-06
1.47484e-06
-3.3859e-06
1.24326e-06
-3.46443e-06
9.9955e-07
-3.5247e-06
7.45899e-07
-3.56633e-06
4.8444e-07
-3.58896e-06
2.17289e-07
-3.59227e-06
-5.3415e-08
-3.57598e-06
-3.25475e-07
-3.53984e-06
-5.96594e-07
-3.48369e-06
-8.64338e-07
-3.40742e-06
-1.1261e-06
-3.31106e-06
-1.37909e-06
-3.19478e-06
-1.62027e-06
-3.05897e-06
-1.84642e-06
-2.90424e-06
-2.05407e-06
-2.73153e-06
-2.23958e-06
-2.54215e-06
-2.39912e-06
-2.33781e-06
-2.52879e-06
-2.12069e-06
-2.62465e-06
-1.8935e-06
-2.68286e-06
-1.65948e-06
-2.69977e-06
-1.42243e-06
-2.67208e-06
-1.18668e-06
-2.597e-06
-9.57101e-07
-2.47238e-06
-7.39005e-07
-2.2969e-06
-5.38074e-07
-2.0702e-06
-3.60248e-07
-1.79302e-06
-2.11591e-07
-1.46731e-06
-9.81449e-08
-1.09625e-06
-2.57756e-08
-6.84224e-07
-2.37144e-07
-2.60158e-08
2.6266e-07
-9.81831e-08
7.47331e-07
-2.10338e-07
1.18554e-06
-3.56237e-07
1.57351e-06
-5.29717e-07
1.90902e-06
-7.24829e-07
2.19099e-06
-9.35949e-07
2.41944e-06
-1.15786e-06
2.59532e-06
-1.38583e-06
2.72037e-06
-1.61561e-06
2.79695e-06
-1.8435e-06
2.82789e-06
-2.06627e-06
2.81631e-06
-2.28122e-06
2.76556e-06
-2.48606e-06
2.67903e-06
-2.67893e-06
2.56011e-06
-2.85832e-06
2.41211e-06
-3.023e-06
2.23822e-06
-3.17203e-06
2.04144e-06
-3.30463e-06
1.82462e-06
-3.42019e-06
1.59041e-06
-3.51823e-06
1.3413e-06
-3.59833e-06
1.07965e-06
-3.66013e-06
8.07691e-07
-3.70327e-06
5.27586e-07
-3.72745e-06
2.41463e-07
-3.73233e-06
-4.85351e-08
-3.7176e-06
-3.40206e-07
-3.68295e-06
-6.31238e-07
-3.62812e-06
-9.19167e-07
-3.55289e-06
-1.20133e-06
-3.45714e-06
-1.47484e-06
-3.34088e-06
-1.73654e-06
-3.2043e-06
-1.983e-06
-3.04786e-06
-2.21052e-06
-2.8723e-06
-2.41514e-06
-2.67876e-06
-2.59266e-06
-2.46884e-06
-2.73871e-06
-2.24463e-06
-2.84886e-06
-2.0088e-06
-2.91869e-06
-1.76465e-06
-2.94392e-06
-1.51611e-06
-2.92062e-06
-1.26778e-06
-2.84534e-06
-1.02484e-06
-2.71532e-06
-7.93056e-07
-2.52868e-06
-5.7866e-07
-2.28459e-06
-3.88211e-07
-1.98347e-06
-2.28461e-07
-1.62706e-06
-1.06174e-07
-1.21853e-06
-2.79455e-08
-7.62452e-07
-2.65089e-07
-2.78337e-08
2.90494e-07
-1.04857e-07
8.24354e-07
-2.24268e-07
1.30495e-06
-3.79179e-07
1.72843e-06
-5.62809e-07
2.09265e-06
-7.68643e-07
2.39682e-06
-9.90559e-07
2.64135e-06
-1.22293e-06
2.82769e-06
-1.46069e-06
2.95813e-06
-1.69936e-06
3.03563e-06
-1.93509e-06
3.06361e-06
-2.1646e-06
3.04582e-06
-2.38515e-06
2.98611e-06
-2.59454e-06
2.88841e-06
-2.79099e-06
2.75655e-06
-2.97311e-06
2.59423e-06
-3.13984e-06
2.40495e-06
-3.29037e-06
2.19197e-06
-3.4241e-06
1.95835e-06
-3.54058e-06
1.70688e-06
-3.63944e-06
1.44017e-06
-3.7204e-06
1.16061e-06