/*--------------------------------*- C++ -*----------------------------------*\
  =========                 |
  \\      /  F ield         | OpenFOAM: The Open Source CFD Toolbox
   \\    /   O peration     | Website:  https://openfoam.org
    \\  /    A nd           | Version:  7
     \\/     M anipulation  |
\*---------------------------------------------------------------------------*/
FoamFile
{
    version     2.0;
    format      ascii;
    class       volScalarField;
    location    "0.0728";
    object      p;
}
// * * * * * * * * * * * * * * * * * * * * * * * * * * * * * * * * * * * * * //

dimensions      [0 2 -2 0 0 0 0];

internalField   nonuniform List<scalar> 
2500
(
3.06657e-05
-6.51217
-9.29778
-10.4942
-11.1603
-11.5674
-11.8317
-12.0172
-12.1556
-12.2633
-12.3496
-12.4203
-12.4789
-12.5281
-12.5696
-12.6049
-12.6349
-12.6604
-12.682
-12.7003
-12.7158
-12.7288
-12.7396
-12.7487
-12.7564
-12.7629
-12.7686
-12.7739
-12.779
-12.7845
-12.7907
-12.798
-12.807
-12.8183
-12.8325
-12.8505
-12.8734
-12.9024
-12.9392
-12.9862
-13.0469
-13.1264
-13.2336
-13.3838
-13.608
-13.9669
-14.5676
-15.6691
-18.3366
-24.7213
-4.95523
-7.67546
-9.18261
-10.1432
-10.8117
-11.2723
-11.5946
-11.8287
-12.0048
-12.1412
-12.2496
-12.3373
-12.4096
-12.4699
-12.5207
-12.5637
-12.6004
-12.6318
-12.6587
-12.6819
-12.7018
-12.719
-12.7338
-12.7469
-12.7584
-12.7688
-12.7784
-12.7877
-12.797
-12.8069
-12.8177
-12.8301
-12.8446
-12.8621
-12.8833
-12.9094
-12.9418
-12.9822
-13.0331
-13.0977
-13.181
-13.29
-13.4359
-13.6359
-13.9193
-14.3338
-14.9444
-15.8331
-17.2534
-19.8524
-7.92425
-8.75706
-9.55846
-10.2399
-10.7807
-11.1914
-11.5017
-11.7392
-11.924
-12.0703
-12.188
-12.2843
-12.3641
-12.4309
-12.4874
-12.5355
-12.5767
-12.6122
-12.6429
-12.6695
-12.6926
-12.7129
-12.7308
-12.7467
-12.7611
-12.7744
-12.7869
-12.7992
-12.8116
-12.8246
-12.8389
-12.8548
-12.8733
-12.895
-12.9209
-12.9523
-12.9907
-13.0379
-13.0966
-13.1702
-13.2636
-13.3833
-13.5392
-13.7446
-14.019
-14.3886
-14.8817
-15.5101
-16.256
-17.0193
-9.43318
-9.64707
-10.0666
-10.5121
-10.9056
-11.2333
-11.5005
-11.7169
-11.8926
-12.0361
-12.1544
-12.2529
-12.3355
-12.4054
-12.4651
-12.5163
-12.5604
-12.5987
-12.632
-12.6612
-12.6868
-12.7095
-12.7297
-12.7479
-12.7646
-12.7801
-12.795
-12.8095
-12.8243
-12.8398
-12.8565
-12.8752
-12.8964
-12.921
-12.9501
-12.9848
-13.0266
-13.0773
-13.1394
-13.2159
-13.3107
-13.4291
-13.5777
-13.765
-14.0004
-14.2934
-14.6495
-15.056
-15.4385
-15.6163
-10.3181
-10.3183
-10.5228
-10.8001
-11.0754
-11.326
-11.5453
-11.7329
-11.8918
-12.0261
-12.1397
-12.2362
-12.3186
-12.3893
-12.4503
-12.5031
-12.5491
-12.5892
-12.6245
-12.6556
-12.6832
-12.7078
-12.7299
-12.75
-12.7685
-12.786
-12.8027
-12.8191
-12.8358
-12.8533
-12.872
-12.8926
-12.9159
-12.9426
-12.9737
-13.0103
-13.0538
-13.1058
-13.1683
-13.2437
-13.3351
-13.4459
-13.5801
-13.7417
-13.9337
-14.1559
-14.4022
-14.6516
-14.8317
-14.8134
-10.8843
-10.8109
-10.9003
-11.0684
-11.2568
-11.4437
-11.6183
-11.7756
-11.9144
-12.0357
-12.1412
-12.2329
-12.3126
-12.382
-12.4426
-12.4958
-12.5425
-12.5837
-12.6201
-12.6525
-12.6815
-12.7075
-12.731
-12.7526
-12.7726
-12.7915
-12.8097
-12.8276
-12.8458
-12.8647
-12.8848
-12.9068
-12.9314
-12.9592
-12.9913
-13.0285
-13.0721
-13.1235
-13.1841
-13.2557
-13.3404
-13.4401
-13.5566
-13.691
-13.8425
-14.0064
-14.1727
-14.321
-14.3949
-14.3135
-11.2659
-11.1759
-11.2069
-11.3066
-11.4336
-11.5705
-11.7066
-11.8354
-11.9536
-12.0604
-12.1559
-12.2408
-12.316
-12.3826
-12.4416
-12.4939
-12.5403
-12.5817
-12.6186
-12.6517
-12.6814
-12.7083
-12.7329
-12.7554
-12.7765
-12.7964
-12.8157
-12.8346
-12.8538
-12.8736
-12.8946
-12.9174
-12.9426
-12.9708
-13.0029
-13.0397
-13.0821
-13.1313
-13.1883
-13.2544
-13.3305
-13.4177
-13.5161
-13.6251
-13.7418
-13.8603
-13.9707
-14.0563
-14.0778
-13.9856
-11.5387
-11.4526
-11.4546
-11.512
-11.5966
-11.6958
-11.8005
-11.9043
-12.0033
-12.0956
-12.1803
-12.2574
-12.327
-12.3897
-12.446
-12.4965
-12.5419
-12.5827
-12.6194
-12.6526
-12.6826
-12.71
-12.735
-12.7582
-12.7799
-12.8005
-12.8204
-12.84
-12.8597
-12.88
-12.9014
-12.9244
-12.9496
-12.9775
-13.0089
-13.0444
-13.0848
-13.1309
-13.1833
-13.2428
-13.3099
-13.3844
-13.466
-13.5528
-13.6415
-13.7261
-13.7983
-13.8459
-13.8425
-13.7575
-11.7444
-11.6677
-11.6556
-11.6869
-11.7427
-11.8141
-11.8939
-11.9767
-12.0586
-12.1373
-12.2114
-12.2803
-12.3438
-12.4018
-12.4547
-12.5029
-12.5465
-12.5862
-12.6222
-12.6549
-12.6848
-12.7121
-12.7373
-12.7607
-12.7827
-12.8036
-12.8237
-12.8436
-12.8635
-12.8839
-12.9053
-12.928
-12.9527
-12.9799
-13.01
-13.0436
-13.0814
-13.1237
-13.1711
-13.2239
-13.2819
-13.3448
-13.4115
-13.48
-13.5468
-13.6067
-13.6532
-13.678
-13.6633
-13.5899
-11.9057
-11.8389
-11.8203
-11.8357
-11.8719
-11.9229
-11.9835
-12.0491
-12.1162
-12.1827
-12.2468
-12.3077
-12.3648
-12.4179
-12.4669
-12.5121
-12.5536
-12.5916
-12.6264
-12.6583
-12.6876
-12.7145
-12.7395
-12.7627
-12.7846
-12.8055
-12.8256
-12.8454
-12.8652
-12.8853
-12.9063
-12.9285
-12.9523
-12.9782
-13.0067
-13.0381
-13.0728
-13.1113
-13.1535
-13.1997
-13.2494
-13.3019
-13.356
-13.4096
-13.4597
-13.5019
-13.5314
-13.5425
-13.5234
-13.4613
-12.0363
-11.9782
-11.9571
-11.9626
-11.9854
-12.0217
-12.0675
-12.1192
-12.1739
-12.2296
-12.2845
-12.3378
-12.3887
-12.4367
-12.4817
-12.5236
-12.5625
-12.5985
-12.6317
-12.6624
-12.6907
-12.717
-12.7414
-12.7642
-12.7857
-12.8062
-12.826
-12.8454
-12.8648
-12.8844
-12.9047
-12.926
-12.9487
-12.9731
-12.9997
-13.0286
-13.0603
-13.0947
-13.1321
-13.1721
-13.2143
-13.2579
-13.3015
-13.3434
-13.3807
-13.4103
-13.4286
-13.4317
-13.4116
-13.3593
-12.1443
-12.0937
-12.072
-12.0715
-12.0853
-12.1108
-12.1452
-12.1858
-12.2302
-12.2765
-12.3233
-12.3695
-12.4144
-12.4574
-12.4983
-12.5368
-12.5729
-12.6066
-12.6379
-12.6671
-12.6942
-12.7194
-12.7429
-12.765
-12.7859
-12.8058
-12.825
-12.8438
-12.8625
-12.8814
-12.9008
-12.921
-12.9424
-12.9652
-12.9896
-13.0161
-13.0446
-13.0752
-13.1079
-13.1424
-13.1781
-13.2141
-13.2492
-13.2818
-13.3097
-13.3304
-13.3412
-13.3398
-13.3204
-13.2762
-12.2353
-12.191
-12.1698
-12.1656
-12.1732
-12.1909
-12.2167
-12.2484
-12.2843
-12.3226
-12.3622
-12.402
-12.4412
-12.4794
-12.5161
-12.5511
-12.5843
-12.6154
-12.6447
-12.6721
-12.6977
-12.7217
-12.7441
-12.7653
-12.7853
-12.8044
-12.8228
-12.8408
-12.8586
-12.8765
-12.8949
-12.9138
-12.9337
-12.9547
-12.9771
-13.0011
-13.0266
-13.0536
-13.0821
-13.1116
-13.1417
-13.1714
-13.1997
-13.2251
-13.246
-13.2603
-13.2663
-13.2624
-13.2444
-13.2071
-12.313
-12.274
-12.2539
-12.2476
-12.2509
-12.2629
-12.2821
-12.3068
-12.3356
-12.3672
-12.4004
-12.4344
-12.4685
-12.5021
-12.5348
-12.5663
-12.5964
-12.625
-12.652
-12.6774
-12.7014
-12.7239
-12.745
-12.765
-12.7839
-12.802
-12.8194
-12.8365
-12.8533
-12.8701
-12.8872
-12.9048
-12.9231
-12.9424
-12.9627
-12.9842
-13.0068
-13.0306
-13.0553
-13.0805
-13.1058
-13.1303
-13.1531
-13.173
-13.1886
-13.1985
-13.2014
-13.1963
-13.18
-13.1485
-12.3801
-12.3458
-12.327
-12.3195
-12.32
-12.3278
-12.3419
-12.361
-12.384
-12.4099
-12.4376
-12.4665
-12.4958
-12.5251
-12.554
-12.582
-12.6091
-12.635
-12.6596
-12.683
-12.7051
-12.726
-12.7456
-12.7643
-12.782
-12.7989
-12.8152
-12.8311
-12.8467
-12.8624
-12.8782
-12.8944
-12.9111
-12.9285
-12.9468
-12.9659
-12.986
-13.0067
-13.0281
-13.0496
-13.0708
-13.091
-13.1094
-13.125
-13.1368
-13.1436
-13.1446
-13.1391
-13.1246
-13.0981
-12.4387
-12.4084
-12.3911
-12.3831
-12.3817
-12.3864
-12.3966
-12.4113
-12.4296
-12.4506
-12.4736
-12.4979
-12.5229
-12.5482
-12.5734
-12.5981
-12.6221
-12.6453
-12.6676
-12.6888
-12.7089
-12.728
-12.7461
-12.7633
-12.7796
-12.7952
-12.8103
-12.8249
-12.8393
-12.8536
-12.8681
-12.8828
-12.8979
-12.9135
-12.9298
-12.9468
-12.9643
-12.9824
-13.0008
-13.0191
-13.0368
-13.0535
-13.0685
-13.0808
-13.0897
-13.0944
-13.0943
-13.0888
-13.0762
-13.0539
-12.4903
-12.4636
-12.4478
-12.4397
-12.4371
-12.4397
-12.4469
-12.458
-12.4724
-12.4893
-12.5082
-12.5284
-12.5496
-12.5712
-12.5929
-12.6144
-12.6355
-12.656
-12.6758
-12.6948
-12.713
-12.7302
-12.7466
-12.7622
-12.777
-12.7912
-12.8049
-12.8182
-12.8312
-12.8442
-12.8572
-12.8704
-12.8838
-12.8978
-12.9121
-12.927
-12.9423
-12.9579
-12.9736
-12.9892
-13.0041
-13.0179
-13.03
-13.0398
-13.0467
-13.0499
-13.0492
-13.0441
-13.0334
-13.0148
-12.5362
-12.5128
-12.4985
-12.4906
-12.4873
-12.4882
-12.4931
-12.5015
-12.5126
-12.5261
-12.5414
-12.5581
-12.5757
-12.5939
-12.6124
-12.6309
-12.6491
-12.667
-12.6844
-12.7011
-12.7172
-12.7325
-12.7471
-12.761
-12.7743
-12.787
-12.7993
-12.8111
-12.8227
-12.8342
-12.8458
-12.8574
-12.8693
-12.8814
-12.894
-12.9069
-12.9201
-12.9335
-12.9468
-12.9599
-12.9724
-12.9838
-12.9937
-13.0016
-13.0069
-13.0092
-13.0083
-13.0039
-12.9949
-12.9797
-12.5773
-12.5569
-12.5441
-12.5367
-12.533
-12.5328
-12.536
-12.542
-12.5506
-12.5611
-12.5733
-12.5868
-12.6013
-12.6164
-12.6318
-12.6474
-12.663
-12.6783
-12.6933
-12.7078
-12.7217
-12.7351
-12.7479
-12.7601
-12.7717
-12.7828
-12.7935
-12.8039
-12.814
-12.8241
-12.834
-12.8441
-12.8544
-12.8648
-12.8756
-12.8866
-12.8978
-12.9092
-12.9205
-12.9314
-12.9418
-12.9512
-12.9593
-12.9657
-12.9699
-12.9716
-12.9707
-12.9671
-12.9598
-12.9476
-12.6144
-12.5968
-12.5856
-12.5788
-12.5749
-12.574
-12.5759
-12.5801
-12.5864
-12.5945
-12.604
-12.6147
-12.6263
-12.6385
-12.6512
-12.6641
-12.677
-12.6899
-12.7025
-12.7148
-12.7266
-12.738
-12.7489
-12.7593
-12.7693
-12.7788
-12.7879
-12.7967
-12.8053
-12.8138
-12.8222
-12.8307
-12.8393
-12.8481
-12.8571
-12.8663
-12.8757
-12.8851
-12.8945
-12.9036
-12.9121
-12.9199
-12.9265
-12.9316
-12.9351
-12.9365
-12.9358
-12.933
-12.9274
-12.918
-12.6483
-12.6333
-12.6236
-12.6175
-12.6138
-12.6124
-12.6132
-12.616
-12.6205
-12.6264
-12.6336
-12.6418
-12.6508
-12.6604
-12.6705
-12.6808
-12.6913
-12.7017
-12.7121
-12.7222
-12.732
-12.7414
-12.7504
-12.759
-12.7672
-12.7751
-12.7826
-12.7898
-12.7968
-12.8037
-12.8105
-12.8173
-12.8243
-12.8314
-12.8387
-12.8461
-12.8537
-12.8614
-12.8689
-12.8763
-12.8832
-12.8895
-12.8949
-12.8991
-12.9019
-12.9032
-12.9029
-12.9009
-12.8969
-12.8903
-12.6796
-12.6671
-12.6589
-12.6536
-12.6501
-12.6484
-12.6485
-12.6501
-12.653
-12.6571
-12.6622
-12.6682
-12.6748
-12.6821
-12.6897
-12.6977
-12.7058
-12.7139
-12.7221
-12.73
-12.7378
-12.7452
-12.7524
-12.7592
-12.7656
-12.7718
-12.7776
-12.7831
-12.7885
-12.7938
-12.7989
-12.8041
-12.8094
-12.8148
-12.8203
-12.826
-12.8319
-12.8378
-12.8437
-12.8495
-12.8549
-12.8599
-12.8642
-12.8676
-12.87
-12.8713
-12.8714
-12.8704
-12.868
-12.8638
-12.7087
-12.6987
-12.692
-12.6875
-12.6844
-12.6826
-12.6821
-12.6827
-12.6843
-12.6868
-12.69
-12.694
-12.6985
-12.7035
-12.7089
-12.7146
-12.7205
-12.7265
-12.7325
-12.7384
-12.7441
-12.7496
-12.7549
-12.7599
-12.7646
-12.769
-12.7731
-12.777
-12.7807
-12.7842
-12.7877
-12.7912
-12.7947
-12.7984
-12.8022
-12.8062
-12.8103
-12.8145
-12.8188
-12.823
-12.827
-12.8308
-12.8341
-12.8369
-12.839
-12.8403
-12.8409
-12.8408
-12.84
-12.8382
-12.7362
-12.7285
-12.7233
-12.7197
-12.717
-12.7153
-12.7143
-12.7141
-12.7145
-12.7156
-12.7172
-12.7193
-12.7219
-12.7249
-12.7282
-12.7318
-12.7355
-12.7394
-12.7433
-12.7472
-12.751
-12.7546
-12.7581
-12.7612
-12.7641
-12.7668
-12.7692
-12.7713
-12.7733
-12.7751
-12.7769
-12.7786
-12.7804
-12.7823
-12.7843
-12.7864
-12.7888
-12.7913
-12.794
-12.7967
-12.7994
-12.802
-12.8044
-12.8065
-12.8083
-12.8098
-12.8109
-12.8118
-12.8124
-12.8131
-12.7624
-12.7572
-12.7535
-12.7508
-12.7486
-12.7468
-12.7456
-12.7446
-12.7441
-12.7439
-12.7439
-12.7444
-12.7451
-12.7462
-12.7475
-12.749
-12.7508
-12.7527
-12.7546
-12.7566
-12.7585
-12.7603
-12.7618
-12.7632
-12.7644
-12.7652
-12.7659
-12.7663
-12.7665
-12.7665
-12.7665
-12.7664
-12.7664
-12.7664
-12.7666
-12.7669
-12.7674
-12.7682
-12.7692
-12.7704
-12.7717
-12.7731
-12.7746
-12.7762
-12.7777
-12.7793
-12.781
-12.7828
-12.785
-12.788
-12.7879
-12.785
-12.7828
-12.781
-12.7793
-12.7777
-12.7762
-12.7746
-12.7731
-12.7717
-12.7704
-12.7692
-12.7682
-12.7674
-12.7669
-12.7665
-12.7664
-12.7664
-12.7664
-12.7665
-12.7665
-12.7665
-12.7663
-12.7659
-12.7652
-12.7644
-12.7632
-12.7618
-12.7603
-12.7585
-12.7566
-12.7547
-12.7527
-12.7508
-12.7491
-12.7475
-12.7462
-12.7451
-12.7444
-12.7439
-12.7439
-12.7441
-12.7446
-12.7456
-12.7468
-12.7486
-12.7508
-12.7535
-12.7572
-12.7624
-12.8131
-12.8124
-12.8118
-12.8109
-12.8098
-12.8083
-12.8065
-12.8044
-12.802
-12.7994
-12.7967
-12.794
-12.7913
-12.7888
-12.7864
-12.7843
-12.7823
-12.7804
-12.7786
-12.7769
-12.7751
-12.7733
-12.7713
-12.7692
-12.7668
-12.7641
-12.7612
-12.7581
-12.7546
-12.751
-12.7472
-12.7433
-12.7394
-12.7355
-12.7318
-12.7282
-12.7249
-12.7219
-12.7193
-12.7172
-12.7156
-12.7145
-12.7141
-12.7143
-12.7153
-12.717
-12.7197
-12.7233
-12.7285
-12.7362
-12.8382
-12.84
-12.8408
-12.8409
-12.8403
-12.839
-12.8369
-12.8341
-12.8308
-12.827
-12.823
-12.8188
-12.8145
-12.8103
-12.8062
-12.8022
-12.7984
-12.7947
-12.7912
-12.7877
-12.7842
-12.7807
-12.777
-12.7731
-12.769
-12.7646
-12.7599
-12.7549
-12.7496
-12.7441
-12.7384
-12.7325
-12.7265
-12.7205
-12.7146
-12.7089
-12.7035
-12.6985
-12.694
-12.69
-12.6868
-12.6843
-12.6827
-12.6821
-12.6826
-12.6844
-12.6875
-12.692
-12.6987
-12.7087
-12.8638
-12.868
-12.8704
-12.8714
-12.8713
-12.87
-12.8676
-12.8642
-12.8599
-12.8549
-12.8495
-12.8437
-12.8378
-12.8319
-12.826
-12.8203
-12.8148
-12.8094
-12.8041
-12.7989
-12.7938
-12.7885
-12.7831
-12.7776
-12.7718
-12.7656
-12.7592
-12.7524
-12.7452
-12.7378
-12.73
-12.7221
-12.7139
-12.7058
-12.6977
-12.6897
-12.6821
-12.6748
-12.6682
-12.6622
-12.6571
-12.653
-12.6501
-12.6485
-12.6485
-12.6501
-12.6536
-12.6589
-12.6671
-12.6796
-12.8903
-12.8969
-12.9009
-12.9029
-12.9032
-12.9019
-12.8991
-12.8949
-12.8895
-12.8832
-12.8763
-12.8689
-12.8613
-12.8537
-12.8461
-12.8387
-12.8314
-12.8243
-12.8173
-12.8105
-12.8037
-12.7968
-12.7898
-12.7826
-12.7751
-12.7672
-12.759
-12.7504
-12.7414
-12.732
-12.7222
-12.7121
-12.7017
-12.6913
-12.6808
-12.6705
-12.6604
-12.6508
-12.6418
-12.6336
-12.6264
-12.6205
-12.616
-12.6132
-12.6124
-12.6138
-12.6175
-12.6236
-12.6333
-12.6483
-12.918
-12.9274
-12.933
-12.9358
-12.9365
-12.9351
-12.9316
-12.9265
-12.9199
-12.9121
-12.9036
-12.8945
-12.8851
-12.8757
-12.8663
-12.8571
-12.8481
-12.8393
-12.8307
-12.8222
-12.8138
-12.8053
-12.7967
-12.7879
-12.7788
-12.7693
-12.7593
-12.7489
-12.738
-12.7266
-12.7148
-12.7025
-12.6899
-12.677
-12.6641
-12.6512
-12.6385
-12.6263
-12.6147
-12.604
-12.5945
-12.5864
-12.5801
-12.5759
-12.574
-12.5749
-12.5788
-12.5856
-12.5968
-12.6144
-12.9476
-12.9598
-12.9671
-12.9707
-12.9716
-12.9699
-12.9657
-12.9593
-12.9512
-12.9418
-12.9314
-12.9205
-12.9092
-12.8978
-12.8866
-12.8756
-12.8648
-12.8543
-12.8441
-12.834
-12.8241
-12.814
-12.8039
-12.7935
-12.7828
-12.7717
-12.7601
-12.7479
-12.7351
-12.7217
-12.7078
-12.6933
-12.6783
-12.663
-12.6474
-12.6318
-12.6164
-12.6013
-12.5868
-12.5733
-12.5611
-12.5506
-12.542
-12.536
-12.5328
-12.533
-12.5367
-12.5441
-12.5569
-12.5773
-12.9797
-12.9949
-13.0039
-13.0083
-13.0092
-13.0069
-13.0016
-12.9937
-12.9838
-12.9724
-12.9599
-12.9468
-12.9335
-12.9201
-12.9069
-12.894
-12.8814
-12.8693
-12.8574
-12.8458
-12.8342
-12.8227
-12.8111
-12.7993
-12.787
-12.7743
-12.761
-12.7471
-12.7325
-12.7172
-12.7011
-12.6844
-12.667
-12.6491
-12.6309
-12.6124
-12.5939
-12.5757
-12.5581
-12.5414
-12.5261
-12.5126
-12.5015
-12.4932
-12.4882
-12.4873
-12.4906
-12.4985
-12.5128
-12.5362
-13.0148
-13.0334
-13.0441
-13.0492
-13.0499
-13.0467
-13.0398
-13.03
-13.0179
-13.0041
-12.9892
-12.9736
-12.9579
-12.9423
-12.927
-12.9121
-12.8978
-12.8838
-12.8704
-12.8572
-12.8442
-12.8312
-12.8182
-12.8049
-12.7912
-12.777
-12.7622
-12.7466
-12.7302
-12.713
-12.6948
-12.6758
-12.656
-12.6355
-12.6144
-12.5929
-12.5712
-12.5496
-12.5284
-12.5082
-12.4893
-12.4724
-12.458
-12.4469
-12.4397
-12.4371
-12.4397
-12.4478
-12.4636
-12.4903
-13.0539
-13.0762
-13.0888
-13.0943
-13.0944
-13.0897
-13.0808
-13.0685
-13.0535
-13.0368
-13.0191
-13.0008
-12.9824
-12.9643
-12.9468
-12.9298
-12.9135
-12.8979
-12.8828
-12.8681
-12.8536
-12.8393
-12.8249
-12.8103
-12.7952
-12.7796
-12.7633
-12.7461
-12.728
-12.7089
-12.6888
-12.6676
-12.6453
-12.6221
-12.5981
-12.5734
-12.5482
-12.5229
-12.4979
-12.4736
-12.4506
-12.4296
-12.4113
-12.3966
-12.3864
-12.3817
-12.3831
-12.3911
-12.4084
-12.4387
-13.0981
-13.1246
-13.1391
-13.1446
-13.1436
-13.1368
-13.125
-13.1094
-13.091
-13.0708
-13.0496
-13.0281
-13.0067
-12.986
-12.9659
-12.9468
-12.9285
-12.9111
-12.8944
-12.8782
-12.8624
-12.8467
-12.8311
-12.8152
-12.7989
-12.782
-12.7643
-12.7456
-12.726
-12.7051
-12.683
-12.6596
-12.635
-12.6091
-12.582
-12.554
-12.5251
-12.4959
-12.4665
-12.4376
-12.4099
-12.384
-12.361
-12.3419
-12.3278
-12.32
-12.3195
-12.327
-12.3458
-12.3801
-13.1485
-13.18
-13.1963
-13.2014
-13.1985
-13.1886
-13.173
-13.1531
-13.1303
-13.1058
-13.0805
-13.0553
-13.0306
-13.0068
-12.9842
-12.9627
-12.9424
-12.9231
-12.9048
-12.8872
-12.8701
-12.8533
-12.8365
-12.8194
-12.802
-12.7839
-12.765
-12.745
-12.7239
-12.7014
-12.6774
-12.652
-12.625
-12.5964
-12.5663
-12.5348
-12.5021
-12.4685
-12.4344
-12.4004
-12.3672
-12.3356
-12.3068
-12.2821
-12.2629
-12.2509
-12.2476
-12.2539
-12.274
-12.313
-13.2071
-13.2444
-13.2624
-13.2663
-13.2603
-13.246
-13.2251
-13.1997
-13.1714
-13.1417
-13.1116
-13.0821
-13.0536
-13.0266
-13.001
-12.9771
-12.9547
-12.9337
-12.9138
-12.8949
-12.8765
-12.8586
-12.8408
-12.8228
-12.8044
-12.7853
-12.7653
-12.7441
-12.7217
-12.6977
-12.6721
-12.6447
-12.6154
-12.5843
-12.5511
-12.5161
-12.4794
-12.4412
-12.402
-12.3622
-12.3226
-12.2843
-12.2484
-12.2167
-12.1909
-12.1732
-12.1656
-12.1698
-12.191
-12.2353
-13.2762
-13.3203
-13.3398
-13.3412
-13.3304
-13.3097
-13.2818
-13.2492
-13.2141
-13.1781
-13.1424
-13.1079
-13.0752
-13.0446
-13.0161
-12.9896
-12.9651
-12.9424
-12.921
-12.9008
-12.8814
-12.8625
-12.8438
-12.825
-12.8058
-12.7859
-12.765
-12.7429
-12.7194
-12.6942
-12.6671
-12.6379
-12.6066
-12.5729
-12.5368
-12.4983
-12.4574
-12.4144
-12.3695
-12.3233
-12.2765
-12.2302
-12.1858
-12.1452
-12.1108
-12.0853
-12.0715
-12.072
-12.0937
-12.1443
-13.3593
-13.4116
-13.4317
-13.4286
-13.4103
-13.3807
-13.3434
-13.3015
-13.2579
-13.2143
-13.1721
-13.1321
-13.0947
-13.0603
-13.0286
-12.9997
-12.9731
-12.9487
-12.926
-12.9047
-12.8844
-12.8648
-12.8454
-12.826
-12.8062
-12.7857
-12.7642
-12.7414
-12.717
-12.6907
-12.6624
-12.6317
-12.5985
-12.5625
-12.5236
-12.4817
-12.4367
-12.3887
-12.3378
-12.2845
-12.2296
-12.1739
-12.1192
-12.0675
-12.0217
-11.9854
-11.9626
-11.9571
-11.9782
-12.0363
-13.4613
-13.5234
-13.5425
-13.5314
-13.5019
-13.4597
-13.4096
-13.356
-13.3019
-13.2494
-13.1997
-13.1535
-13.1113
-13.0728
-13.0381
-13.0067
-12.9782
-12.9523
-12.9285
-12.9063
-12.8853
-12.8652
-12.8454
-12.8256
-12.8055
-12.7846
-12.7627
-12.7395
-12.7145
-12.6876
-12.6583
-12.6264
-12.5916
-12.5536
-12.5121
-12.4669
-12.4179
-12.3648
-12.3077
-12.2468
-12.1827
-12.1162
-12.0491
-11.9835
-11.9229
-11.8719
-11.8357
-11.8203
-11.8389
-11.9057
-13.5899
-13.6633
-13.678
-13.6532
-13.6067
-13.5468
-13.48
-13.4115
-13.3448
-13.2819
-13.2239
-13.1711
-13.1237
-13.0814
-13.0436
-13.01
-12.9799
-12.9527
-12.928
-12.9053
-12.8839
-12.8635
-12.8436
-12.8237
-12.8036
-12.7827
-12.7607
-12.7373
-12.7121
-12.6848
-12.6549
-12.6222
-12.5862
-12.5465
-12.5029
-12.4547
-12.4018
-12.3438
-12.2803
-12.2114
-12.1373
-12.0586
-11.9767
-11.8939
-11.8141
-11.7427
-11.6869
-11.6556
-11.6677
-11.7444
-13.7575
-13.8425
-13.8459
-13.7983
-13.7261
-13.6415
-13.5528
-13.466
-13.3844
-13.3098
-13.2428
-13.1833
-13.1309
-13.0848
-13.0444
-13.0089
-12.9775
-12.9496
-12.9244
-12.9014
-12.88
-12.8597
-12.84
-12.8204
-12.8005
-12.7799
-12.7582
-12.735
-12.71
-12.6826
-12.6526
-12.6194
-12.5827
-12.5419
-12.4965
-12.446
-12.3897
-12.327
-12.2574
-12.1803
-12.0956
-12.0033
-11.9043
-11.8005
-11.6958
-11.5966
-11.512
-11.4546
-11.4526
-11.5387
-13.9856
-14.0778
-14.0563
-13.9707
-13.8603
-13.7418
-13.6251
-13.5161
-13.4176
-13.3305
-13.2544
-13.1883
-13.1313
-13.0821
-13.0397
-13.0029
-12.9708
-12.9425
-12.9174
-12.8946
-12.8736
-12.8538
-12.8346
-12.8157
-12.7964
-12.7765
-12.7554
-12.7329
-12.7083
-12.6814
-12.6517
-12.6186
-12.5817
-12.5403
-12.4939
-12.4416
-12.3826
-12.316
-12.2408
-12.1559
-12.0604
-11.9536
-11.8354
-11.7066
-11.5705
-11.4336
-11.3066
-11.2069
-11.1759
-11.2659
-14.3135
-14.3949
-14.321
-14.1727
-14.0064
-13.8425
-13.691
-13.5566
-13.4401
-13.3404
-13.2557
-13.1841
-13.1235
-13.0721
-13.0285
-12.9913
-12.9592
-12.9314
-12.9068
-12.8848
-12.8646
-12.8458
-12.8276
-12.8097
-12.7915
-12.7726
-12.7526
-12.731
-12.7075
-12.6815
-12.6525
-12.6201
-12.5837
-12.5425
-12.4958
-12.4426
-12.382
-12.3126
-12.2329
-12.1412
-12.0357
-11.9144
-11.7756
-11.6183
-11.4437
-11.2568
-11.0684
-10.9003
-10.8109
-10.8843
-14.8134
-14.8317
-14.6516
-14.4022
-14.1559
-13.9336
-13.7417
-13.5801
-13.4459
-13.3351
-13.2437
-13.1683
-13.1058
-13.0538
-13.0103
-12.9737
-12.9426
-12.9159
-12.8926
-12.872
-12.8533
-12.8358
-12.8191
-12.8027
-12.786
-12.7685
-12.75
-12.7299
-12.7078
-12.6832
-12.6556
-12.6245
-12.5892
-12.5491
-12.5031
-12.4503
-12.3893
-12.3186
-12.2362
-12.1397
-12.0261
-11.8918
-11.7329
-11.5453
-11.326
-11.0754
-10.8001
-10.5228
-10.3183
-10.3181
-15.6163
-15.4385
-15.056
-14.6495
-14.2934
-14.0004
-13.765
-13.5777
-13.4291
-13.3107
-13.2159
-13.1394
-13.0773
-13.0266
-12.9848
-12.9501
-12.921
-12.8964
-12.8752
-12.8565
-12.8398
-12.8243
-12.8095
-12.795
-12.7801
-12.7646
-12.7479
-12.7297
-12.7095
-12.6868
-12.6612
-12.632
-12.5987
-12.5604
-12.5163
-12.4651
-12.4054
-12.3355
-12.2529
-12.1544
-12.0361
-11.8926
-11.7169
-11.5005
-11.2333
-10.9056
-10.5121
-10.0666
-9.64707
-9.43318
-17.0193
-16.256
-15.5101
-14.8817
-14.3886
-14.019
-13.7446
-13.5392
-13.3833
-13.2636
-13.1702
-13.0966
-13.0379
-12.9907
-12.9523
-12.9209
-12.895
-12.8733
-12.8548
-12.8389
-12.8246
-12.8116
-12.7992
-12.7869
-12.7744
-12.7611
-12.7467
-12.7308
-12.7129
-12.6926
-12.6695
-12.6429
-12.6122
-12.5767
-12.5355
-12.4874
-12.4309
-12.3641
-12.2843
-12.188
-12.0703
-11.924
-11.7392
-11.5017
-11.1914
-10.7807
-10.2399
-9.55846
-8.75706
-7.92425
-19.8524
-17.2534
-15.8331
-14.9444
-14.3338
-13.9193
-13.6359
-13.4358
-13.29
-13.181
-13.0977
-13.0331
-12.9822
-12.9418
-12.9094
-12.8833
-12.8621
-12.8446
-12.8301
-12.8177
-12.8069
-12.797
-12.7877
-12.7784
-12.7687
-12.7584
-12.7469
-12.7338
-12.719
-12.7018
-12.6818
-12.6587
-12.6318
-12.6004
-12.5637
-12.5207
-12.4699
-12.4096
-12.3373
-12.2496
-12.1412
-12.0048
-11.8287
-11.5946
-11.2723
-10.8117
-10.1432
-9.1826
-7.67545
-4.95523
-24.7213
-18.3366
-15.6691
-14.5676
-13.9669
-13.6079
-13.3838
-13.2336
-13.1264
-13.0469
-12.9862
-12.9392
-12.9024
-12.8734
-12.8505
-12.8325
-12.8182
-12.807
-12.798
-12.7907
-12.7845
-12.779
-12.7739
-12.7686
-12.7629
-12.7564
-12.7487
-12.7396
-12.7288
-12.7158
-12.7003
-12.682
-12.6604
-12.6349
-12.6049
-12.5696
-12.5281
-12.4789
-12.4203
-12.3496
-12.2633
-12.1556
-12.0172
-11.8317
-11.5674
-11.1603
-10.4942
-9.29778
-6.51217
4.66051e-05
)
;

boundaryField
{
    movingWallTop
    {
        type            zeroGradient;
    }
    movingWallBottom
    {
        type            zeroGradient;
    }
    fixedWalls
    {
        type            zeroGradient;
    }
    frontAndBack
    {
        type            empty;
    }
}


// ************************************************************************* //
