/*--------------------------------*- C++ -*----------------------------------*\
  =========                 |
  \\      /  F ield         | OpenFOAM: The Open Source CFD Toolbox
   \\    /   O peration     | Website:  https://openfoam.org
    \\  /    A nd           | Version:  7
     \\/     M anipulation  |
\*---------------------------------------------------------------------------*/
FoamFile
{
    version     2.0;
    format      ascii;
    class       volVectorField;
    location    "0.0652";
    object      U;
}
// * * * * * * * * * * * * * * * * * * * * * * * * * * * * * * * * * * * * * //

dimensions      [0 1 -1 0 0 0 0];

internalField   nonuniform List<vector> 
2500
(
(0.290245 -0.152406 0)
(0.389515 -0.128227 0)
(0.565394 -0.0747286 0)
(0.683224 -0.0422318 0)
(0.752831 -0.0245343 0)
(0.797871 -0.0148969 0)
(0.829074 -0.00959222 0)
(0.851591 -0.00657085 0)
(0.868449 -0.00474806 0)
(0.881467 -0.00357394 0)
(0.891753 -0.00277032 0)
(0.900014 -0.0021918 0)
(0.906728 -0.00175856 0)
(0.912229 -0.00142419 0)
(0.91676 -0.00116009 0)
(0.920504 -0.000947598 0)
(0.923598 -0.000773959 0)
(0.926151 -0.000630061 0)
(0.928246 -0.000509167 0)
(0.929949 -0.000406132 0)
(0.931312 -0.000316907 0)
(0.932376 -0.000238211 0)
(0.933172 -0.000167303 0)
(0.933721 -0.000101821 0)
(0.934039 -3.96616e-05 0)
(0.934134 2.11261e-05 0)
(0.934008 8.25357e-05 0)
(0.933657 0.000146403 0)
(0.933069 0.000214756 0)
(0.932227 0.000289842 0)
(0.931104 0.000374236 0)
(0.929664 0.000471009 0)
(0.927862 0.000583959 0)
(0.925638 0.000717938 0)
(0.922914 0.000879336 0)
(0.919589 0.00107684 0)
(0.915534 0.00132263 0)
(0.910573 0.0016345 0)
(0.904472 0.0020395 0)
(0.896906 0.0025811 0)
(0.887409 0.00333331 0)
(0.875287 0.00443044 0)
(0.859452 0.00613112 0)
(0.838103 0.00895608 0)
(0.808188 0.0139652 0)
(0.764435 0.0232504 0)
(0.695915 0.0407739 0)
(0.577939 0.0737475 0)
(0.398041 0.128743 0)
(0.293865 0.153782 0)
(0.00107794 -0.294872 0)
(0.0168378 -0.298596 0)
(0.152304 -0.213014 0)
(0.28286 -0.14534 0)
(0.38807 -0.0996714 0)
(0.47135 -0.069861 0)
(0.536852 -0.0505228 0)
(0.588424 -0.0377337 0)
(0.629404 -0.0289819 0)
(0.662348 -0.0227657 0)
(0.689117 -0.018195 0)
(0.711064 -0.0147319 0)
(0.729187 -0.0120411 0)
(0.744232 -0.00990646 0)
(0.756763 -0.00818342 0)
(0.767218 -0.00677189 0)
(0.775938 -0.00560021 0)
(0.783192 -0.0046155 0)
(0.789194 -0.00377763 0)
(0.794114 -0.00305529 0)
(0.798088 -0.00242338 0)
(0.801221 -0.00186124 0)
(0.803596 -0.00135138 0)
(0.805272 -0.000878498 0)
(0.80629 -0.000428797 0)
(0.806673 1.06423e-05 0)
(0.806428 0.000452444 0)
(0.805543 0.000909283 0)
(0.803988 0.00139458 0)
(0.801717 0.00192306 0)
(0.798661 0.0025115 0)
(0.794726 0.00317974 0)
(0.789791 0.00395192 0)
(0.7837 0.0048584 0)
(0.776252 0.00593841 0)
(0.767191 0.00724401 0)
(0.756185 0.00884625 0)
(0.742806 0.0108448 0)
(0.726487 0.0133841 0)
(0.706473 0.0166801 0)
(0.681736 0.0210689 0)
(0.650861 0.0270921 0)
(0.611872 0.0356547 0)
(0.561998 0.0483087 0)
(0.497509 0.067713 0)
(0.413942 0.0981709 0)
(0.306398 0.145794 0)
(0.170551 0.217309 0)
(0.0269055 0.307195 0)
(0.00518366 0.303002 0)
(-0.0329218 -0.250363 0)
(-0.0615896 -0.344027 0)
(-0.0114681 -0.31061 0)
(0.0708891 -0.251584 0)
(0.159068 -0.196089 0)
(0.24168 -0.151544 0)
(0.314367 -0.117861 0)
(0.376433 -0.0927726 0)
(0.428772 -0.0739851 0)
(0.472731 -0.0597202 0)
(0.509645 -0.0487055 0)
(0.540686 -0.0400532 0)
(0.566834 -0.0331462 0)
(0.588893 -0.0275515 0)
(0.607513 -0.02296 0)
(0.623223 -0.0191471 0)
(0.636453 -0.0159452 0)
(0.647553 -0.0132274 0)
(0.656808 -0.0108944 0)
(0.66445 -0.00886751 0)
(0.670664 -0.00708234 0)
(0.6756 -0.00548511 0)
(0.679373 -0.00402965 0)
(0.682068 -0.00267514 0)
(0.683744 -0.00138438 0)
(0.684432 -0.000122304 0)
(0.684143 0.00114528 0)
(0.682858 0.00245315 0)
(0.680536 0.00383788 0)
(0.677107 0.00533945 0)
(0.672472 0.00700308 0)
(0.666497 0.00888167 0)
(0.659009 0.011039 0)
(0.649789 0.0135539 0)
(0.638557 0.0165265 0)
(0.624967 0.0200872 0)
(0.608578 0.0244088 0)
(0.588842 0.0297263 0)
(0.565062 0.0363652 0)
(0.536362 0.0447861 0)
(0.501642 0.0556514 0)
(0.459542 0.0699252 0)
(0.408444 0.0890103 0)
(0.346598 0.114905 0)
(0.272573 0.150254 0)
(0.1865 0.197821 0)
(0.0924122 0.258141 0)
(0.00192354 0.323362 0)
(-0.0569061 0.361567 0)
(-0.0321672 0.263989 0)
(-0.0267682 -0.190599 0)
(-0.0654033 -0.33301 0)
(-0.0644776 -0.351551 0)
(-0.0273493 -0.319351 0)
(0.0298725 -0.272147 0)
(0.0941069 -0.225653 0)
(0.157664 -0.185341 0)
(0.216738 -0.15212 0)
(0.269809 -0.125261 0)
(0.31658 -0.103635 0)
(0.357346 -0.0861613 0)
(0.392647 -0.0719437 0)
(0.423089 -0.0602758 0)
(0.449262 -0.0506142 0)
(0.471704 -0.0425422 0)
(0.490889 -0.0357391 0)
(0.507225 -0.0299549 0)
(0.521063 -0.0249925 0)
(0.532698 -0.0206933 0)
(0.542376 -0.0169279 0)
(0.5503 -0.0135881 0)
(0.556634 -0.0105818 0)
(0.561508 -0.00782852 0)
(0.565019 -0.00525618 0)
(0.567231 -0.00279832 0)
(0.568183 -0.000391743 0)
(0.567881 0.00202557 0)
(0.566305 0.00451667 0)
(0.563403 0.00714781 0)
(0.559093 0.00999104 0)
(0.553258 0.0131272 0)
(0.545743 0.0166496 0)
(0.536348 0.0206693 0)
(0.524826 0.025321 0)
(0.510872 0.030772 0)
(0.494113 0.0372343 0)
(0.4741 0.0449801 0)
(0.450296 0.0543649 0)
(0.422065 0.0658568 0)
(0.388678 0.080076 0)
(0.349332 0.0978413 0)
(0.303227 0.120214 0)
(0.249737 0.148504 0)
(0.188779 0.184145 0)
(0.121517 0.228207 0)
(0.0516233 0.280013 0)
(-0.0128544 0.333819 0)
(-0.0576938 0.37233 0)
(-0.0646336 0.355996 0)
(-0.0272794 0.204822 0)
(-0.0178414 -0.149169 0)
(-0.0530698 -0.302978 0)
(-0.0735301 -0.35499 0)
(-0.066416 -0.350434 0)
(-0.0371446 -0.319843 0)
(0.00507034 -0.280567 0)
(0.0530197 -0.241188 0)
(0.101939 -0.205322 0)
(0.148983 -0.174079 0)
(0.192649 -0.14743 0)
(0.232279 -0.124902 0)
(0.267719 -0.1059 0)
(0.299083 -0.0898473 0)
(0.326627 -0.0762393 0)
(0.350662 -0.0646486 0)
(0.371512 -0.0547212 0)
(0.389487 -0.046165 0)
(0.404873 -0.0387381 0)
(0.417926 -0.0322385 0)
(0.428869 -0.0264953 0)
(0.437889 -0.0213619 0)
(0.445143 -0.0167104 0)
(0.450756 -0.0124266 0)
(0.454822 -0.00840648 0)
(0.457404 -0.00455296 0)
(0.458538 -0.000772767 0)
(0.458228 0.00302623 0)
(0.45645 0.00693776 0)
(0.453148 0.0110602 0)
(0.448235 0.0154996 0)
(0.441588 0.020374 0)
(0.433048 0.0258175 0)
(0.422418 0.0319867 0)
(0.409455 0.0390673 0)
(0.393872 0.047284 0)
(0.375334 0.0569115 0)
(0.353457 0.068289 0)
(0.327819 0.081837 0)
(0.297975 0.0980751 0)
(0.263499 0.117635 0)
(0.224063 0.14126 0)
(0.17958 0.169757 0)
(0.130457 0.203849 0)
(0.0780051 0.24381 0)
(0.0250345 0.288662 0)
(-0.023374 0.334581 0)
(-0.0591901 0.372021 0)
(-0.071829 0.381389 0)
(-0.0542797 0.328289 0)
(-0.0186355 0.162512 0)
(-0.011418 -0.120933 0)
(-0.040218 -0.27004 0)
(-0.0677286 -0.340318 0)
(-0.0775671 -0.357582 0)
(-0.0686233 -0.344374 0)
(-0.0456914 -0.316183 0)
(-0.013956 -0.28239 0)
(0.0223138 -0.248142 0)
(0.0600018 -0.215965 0)
(0.0970422 -0.186899 0)
(0.132178 -0.161193 0)
(0.164717 -0.138711 0)
(0.194341 -0.119152 0)
(0.220966 -0.102166 0)
(0.244649 -0.0874043 0)
(0.265524 -0.0745454 0)
(0.283765 -0.0633019 0)
(0.299557 -0.0534209 0)
(0.313085 -0.0446799 0)
(0.324517 -0.0368832 0)
(0.334006 -0.029857 0)
(0.34168 -0.0234449 0)
(0.347647 -0.0175043 0)
(0.351985 -0.0119024 0)
(0.354749 -0.00651349 0)
(0.355966 -0.00121558 0)
(0.355638 0.00411269 0)
(0.353737 0.00959496 0)
(0.350207 0.0153605 0)
(0.344963 0.0215477 0)
(0.33789 0.0283085 0)
(0.328842 0.0358127 0)
(0.317641 0.0442539 0)
(0.304081 0.053856 0)
(0.287925 0.0648801 0)
(0.26892 0.0776332 0)
(0.246799 0.092475 0)
(0.221314 0.109823 0)
(0.192269 0.13015 0)
(0.159589 0.153962 0)
(0.123424 0.181745 0)
(0.0843124 0.213835 0)
(0.0434175 0.250163 0)
(0.00283947 0.289776 0)
(-0.0340496 0.329993 0)
(-0.0624018 0.365055 0)
(-0.0761058 0.384198 0)
(-0.0692549 0.369583 0)
(-0.0422449 0.295491 0)
(-0.0121736 0.133046 0)
(-0.0074613 -0.100958 0)
(-0.0303851 -0.239824 0)
(-0.0585068 -0.31832 0)
(-0.0767462 -0.350584 0)
(-0.0810196 -0.35215 0)
(-0.0728459 -0.33549 0)
(-0.0552455 -0.309353 0)
(-0.0313802 -0.279355 0)
(-0.00398374 -0.248829 0)
(0.0248417 -0.219601 0)
(0.0536031 -0.192558 0)
(0.0813053 -0.16804 0)
(0.107328 -0.146073 0)
(0.131321 -0.126525 0)
(0.153116 -0.109187 0)
(0.172666 -0.0938206 0)
(0.190002 -0.0801846 0)
(0.205196 -0.0680465 0)
(0.218346 -0.0571885 0)
(0.229554 -0.0474085 0)
(0.238923 -0.0385193 0)
(0.246542 -0.0303466 0)
(0.252489 -0.0227273 0)
(0.256822 -0.015506 0)
(0.259581 -0.00853302 0)
(0.260782 -0.00166152 0)
(0.260422 0.00525548 0)
(0.258471 0.0123679 0)
(0.254877 0.019832 0)
(0.249566 0.0278132 0)
(0.242437 0.0364906 0)
(0.23337 0.0460604 0)
(0.222225 0.0567403 0)
(0.208847 0.068774 0)
(0.193077 0.0824342 0)
(0.174763 0.0980253 0)
(0.15378 0.11588 0)
(0.13007 0.136352 0)
(0.103684 0.159787 0)
(0.074864 0.186473 0)
(0.0441395 0.216544 0)
(0.0124713 0.249801 0)
(-0.0185829 0.285415 0)
(-0.0467034 0.321455 0)
(-0.0687351 0.354177 0)
(-0.0808772 0.377094 0)
(-0.0793311 0.379965 0)
(-0.0619088 0.348236 0)
(-0.0326975 0.264083 0)
(-0.00811785 0.111725 0)
(-0.00512391 -0.0863211 0)
(-0.0234806 -0.213587 0)
(-0.0497587 -0.294207 0)
(-0.0715177 -0.335755 0)
(-0.0837888 -0.348581 0)
(-0.0861066 -0.342175 0)
(-0.079771 -0.324022 0)
(-0.0667756 -0.299507 0)
(-0.0491971 -0.272245 0)
(-0.0288593 -0.244515 0)
(-0.00721696 -0.217667 0)
(0.0146415 -0.192437 0)
(0.0359429 -0.169163 0)
(0.0561659 -0.147946 0)
(0.0749788 -0.128741 0)
(0.0921887 -0.111423 0)
(0.107699 -0.0958243 0)
(0.12148 -0.0817583 0)
(0.13354 -0.0690325 0)
(0.143915 -0.0574555 0)
(0.152651 -0.0468409 0)
(0.159794 -0.037008 0)
(0.165388 -0.0277818 0)
(0.169468 -0.0189923 0)
(0.172052 -0.0104722 0)
(0.173149 -0.00205549 0)
(0.172746 0.00642493 0)
(0.170817 0.0151397 0)
(0.167315 0.0242654 0)
(0.162181 0.0339877 0)
(0.155337 0.0445033 0)
(0.146697 0.0560233 0)
(0.136166 0.0687746 0)
(0.123654 0.0830012 0)
(0.109085 0.0989625 0)
(0.0924156 0.116929 0)
(0.0736615 0.137168 0)
(0.0529355 0.159922 0)
(0.0304982 0.185365 0)
(0.00682437 0.213528 0)
(-0.0173132 0.244177 0)
(-0.0407509 0.276627 0)
(-0.0618506 0.309455 0)
(-0.0784684 0.340108 0)
(-0.0880659 0.364398 0)
(-0.0880928 0.375969 0)
(-0.0767256 0.365953 0)
(-0.0541764 0.323216 0)
(-0.0258561 0.235916 0)
(-0.00569421 0.0957397 0)
(-0.00372595 -0.0751412 0)
(-0.018712 -0.191074 0)
(-0.0425053 -0.270345 0)
(-0.0652442 -0.316963 0)
(-0.0820809 -0.337728 0)
(-0.0915291 -0.339645 0)
(-0.0937176 -0.328806 0)
(-0.0896624 -0.310016 0)
(-0.0807528 -0.286801 0)
(-0.0683999 -0.261614 0)
(-0.0538577 -0.236077 0)
(-0.0381572 -0.211208 0)
(-0.0221009 -0.187599 0)
(-0.00628644 -0.165559 0)
(0.00885846 -0.145206 0)
(0.0230405 -0.126537 0)
(0.0360682 -0.109471 0)
(0.0478249 -0.0938826 0)
(0.0582464 -0.0796198 0)
(0.067304 -0.0665152 0)
(0.074991 -0.0543947 0)
(0.0813123 -0.0430815 0)
(0.0862774 -0.0323983 0)
(0.0898942 -0.0221677 0)
(0.0921655 -0.0122123 0)
(0.0930858 -0.00235378 0)
(0.0926398 0.00758863 0)
(0.0908021 0.0177993 0)
(0.087537 0.0284681 0)
(0.0828005 0.0397917 0)
(0.0765433 0.051975 0)
(0.0687153 0.0652314 0)
(0.0592731 0.0797826 0)
(0.0481903 0.095855 0)
(0.0354722 0.113674 0)
(0.0211757 0.133452 0)
(0.00543649 0.155366 0)
(-0.0114959 0.179525 0)
(-0.0292143 0.205914 0)
(-0.0471031 0.234312 0)
(-0.0642838 0.264163 0)
(-0.0795715 0.294404 0)
(-0.0914633 0.323231 0)
(-0.0982025 0.347803 0)
(-0.097985 0.363947 0)
(-0.0893879 0.365926 0)
(-0.0720139 0.346488 0)
(-0.0474004 0.297438 0)
(-0.0210456 0.211096 0)
(-0.0042286 0.0832593 0)
(-0.00285946 -0.0662364 0)
(-0.0153906 -0.171639 0)
(-0.0367872 -0.247669 0)
(-0.0592953 -0.296425 0)
(-0.0785788 -0.322373 0)
(-0.0927341 -0.330614 0)
(-0.101177 -0.32597 0)
(-0.104201 -0.312537 0)
(-0.102597 -0.293553 0)
(-0.0973479 -0.27144 0)
(-0.0894355 -0.247929 0)
(-0.0797444 -0.224204 0)
(-0.0690197 -0.201039 0)
(-0.0578601 -0.178907 0)
(-0.0467288 -0.158067 0)
(-0.0359729 -0.138631 0)
(-0.0258448 -0.120606 0)
(-0.0165225 -0.103933 0)
(-0.00812755 -0.0885083 0)
(-0.000740396 -0.0741969 0)
(0.00558748 -0.0608463 0)
(0.0108236 -0.0482918 0)
(0.014947 -0.0363615 0)
(0.0179423 -0.0248785 0)
(0.0197954 -0.013662 0)
(0.0204911 -0.00252836 0)
(0.020011 0.00870984 0)
(0.0183331 0.0202435 0)
(0.0154329 0.0322679 0)
(0.0112854 0.0449821 0)
(0.00586884 0.0585893 0)
(-0.000829556 0.0732943 0)
(-0.00880532 0.0893008 0)
(-0.0180255 0.106804 0)
(-0.0284139 0.12598 0)
(-0.0398315 0.146969 0)
(-0.0520523 0.169846 0)
(-0.0647347 0.194584 0)
(-0.0773892 0.22099 0)
(-0.0893459 0.248624 0)
(-0.0997312 0.276684 0)
(-0.107464 0.30386 0)
(-0.111297 0.328158 0)
(-0.109932 0.346718 0)
(-0.102255 0.355661 0)
(-0.087725 0.350073 0)
(-0.0668637 0.324233 0)
(-0.0418135 0.272247 0)
(-0.017621 0.189204 0)
(-0.0033059 0.0731218 0)
(-0.00229928 -0.0588751 0)
(-0.0130381 -0.154633 0)
(-0.0323669 -0.226425 0)
(-0.0541385 -0.275333 0)
(-0.0746186 -0.304319 0)
(-0.0918201 -0.317086 0)
(-0.104771 -0.317393 0)
(-0.113274 -0.308642 0)
(-0.117652 -0.29369 0)
(-0.118501 -0.274802 0)
(-0.116524 -0.253699 0)
(-0.112418 -0.231635 0)
(-0.10682 -0.20949 0)
(-0.100277 -0.187854 0)
(-0.0932419 -0.167095 0)
(-0.0860748 -0.14742 0)
(-0.0790572 -0.12892 0)
(-0.0724033 -0.111598 0)
(-0.0662734 -0.0953998 0)
(-0.0607852 -0.080228 0)
(-0.0560246 -0.0659566 0)
(-0.0520539 -0.052439 0)
(-0.048919 -0.0395151 0)
(-0.0466546 -0.0270144 0)
(-0.0452883 -0.0147597 0)
(-0.044843 -0.00256798 0)
(-0.0453386 0.0097479 0)
(-0.0467921 0.0223785 0)
(-0.0492162 0.0355168 0)
(-0.0526174 0.0493569 0)
(-0.056991 0.0640912 0)
(-0.0623158 0.0799071 0)
(-0.0685455 0.0969806 0)
(-0.0755977 0.115466 0)
(-0.0833404 0.135484 0)
(-0.0915757 0.157096 0)
(-0.10002 0.180277 0)
(-0.108284 0.204874 0)
(-0.115852 0.230543 0)
(-0.122071 0.256678 0)
(-0.126148 0.282313 0)
(-0.127178 0.306012 0)
(-0.124215 0.32575 0)
(-0.116404 0.338816 0)
(-0.103205 0.341776 0)
(-0.0847063 0.330559 0)
(-0.0619622 0.300756 0)
(-0.0372936 0.248183 0)
(-0.0151236 0.169733 0)
(-0.00269519 0.0646102 0)
(-0.0019223 -0.0525934 0)
(-0.0113411 -0.139511 0)
(-0.0289712 -0.206562 0)
(-0.0498561 -0.254293 0)
(-0.0708236 -0.284698 0)
(-0.0899688 -0.30048 0)
(-0.10614 -0.304549 0)
(-0.11883 -0.299688 0)
(-0.128017 -0.288353 0)
(-0.133982 -0.27259 0)
(-0.13717 -0.254029 0)
(-0.138086 -0.23392 0)
(-0.137235 -0.213187 0)
(-0.135082 -0.19249 0)
(-0.132036 -0.172273 0)
(-0.12844 -0.152816 0)
(-0.124579 -0.134277 0)
(-0.120681 -0.116716 0)
(-0.116926 -0.100125 0)
(-0.113455 -0.0844445 0)
(-0.110377 -0.0695762 0)
(-0.107775 -0.055396 0)
(-0.105715 -0.0417594 0)
(-0.104243 -0.0285079 0)
(-0.103399 -0.0154724 0)
(-0.103209 -0.00247689 0)
(-0.103694 0.01066 0)
(-0.104864 0.0241222 0)
(-0.106721 0.0380943 0)
(-0.109254 0.0527581 0)
(-0.112436 0.0682892 0)
(-0.116215 0.0848507 0)
(-0.120514 0.102585 0)
(-0.125212 0.121602 0)
(-0.130138 0.141963 0)
(-0.135061 0.163655 0)
(-0.13967 0.186563 0)
(-0.143565 0.210428 0)
(-0.146252 0.234793 0)
(-0.147142 0.25894 0)
(-0.145568 0.281817 0)
(-0.140833 0.301958 0)
(-0.132287 0.317419 0)
(-0.119461 0.32574 0)
(-0.102256 0.323975 0)
(-0.0811785 0.30883 0)
(-0.0575494 0.276955 0)
(-0.033641 0.225405 0)
(-0.0132521 0.152233 0)
(-0.00227038 0.0572731 0)
(-0.00165984 -0.0470863 0)
(-0.0100968 -0.12584 0)
(-0.0263639 -0.187914 0)
(-0.0463799 -0.233578 0)
(-0.0674513 -0.264202 0)
(-0.0878234 -0.281775 0)
(-0.106289 -0.288551 0)
(-0.12216 -0.286787 0)
(-0.135172 -0.278558 0)
(-0.145363 -0.265667 0)
(-0.152959 -0.249609 0)
(-0.158286 -0.231581 0)
(-0.161713 -0.212501 0)
(-0.163609 -0.193058 0)
(-0.164318 -0.17374 0)
(-0.164149 -0.154879 0)
(-0.163367 -0.13668 0)
(-0.162196 -0.119252 0)
(-0.160822 -0.102626 0)
(-0.159394 -0.0867766 0)
(-0.158035 -0.0716354 0)
(-0.156839 -0.0571007 0)
(-0.155884 -0.0430466 0)
(-0.155226 -0.0293294 0)
(-0.154909 -0.015793 0)
(-0.154963 -0.00227209 0)
(-0.155406 0.0114037 0)
(-0.156242 0.0254068 0)
(-0.157463 0.0399081 0)
(-0.159042 0.0550726 0)
(-0.160934 0.0710541 0)
(-0.163066 0.0879874 0)
(-0.165334 0.105979 0)
(-0.167596 0.125095 0)
(-0.169661 0.145338 0)
(-0.17128 0.166633 0)
(-0.172145 0.188789 0)
(-0.171878 0.211467 0)
(-0.170034 0.234133 0)
(-0.166121 0.25601 0)
(-0.159617 0.276023 0)
(-0.150034 0.292752 0)
(-0.13699 0.304401 0)
(-0.120329 0.308804 0)
(-0.100271 0.303492 0)
(-0.077578 0.28584 0)
(-0.0536723 0.253329 0)
(-0.0306701 0.203894 0)
(-0.0118129 0.136336 0)
(-0.00196161 0.0508152 0)
(-0.00147214 -0.0421462 0)
(-0.00917186 -0.113286 0)
(-0.0243588 -0.170292 0)
(-0.0435949 -0.21329 0)
(-0.0645767 -0.243246 0)
(-0.0857166 -0.26164 0)
(-0.105821 -0.270224 0)
(-0.124103 -0.27082 0)
(-0.140142 -0.265163 0)
(-0.15379 -0.254816 0)
(-0.165097 -0.241117 0)
(-0.174232 -0.225174 0)
(-0.181438 -0.207871 0)
(-0.186982 -0.18989 0)
(-0.191139 -0.171736 0)
(-0.194165 -0.15377 0)
(-0.196297 -0.136232 0)
(-0.197739 -0.119263 0)
(-0.198669 -0.102928 0)
(-0.199238 -0.0872317 0)
(-0.199569 -0.0721307 0)
(-0.199763 -0.0575463 0)
(-0.199899 -0.0433723 0)
(-0.200042 -0.0294821 0)
(-0.200234 -0.0157348 0)
(-0.200508 -0.00197958 0)
(-0.200876 0.0119397 0)
(-0.201338 0.0261801 0)
(-0.201875 0.0408953 0)
(-0.20245 0.0562303 0)
(-0.203002 0.0723143 0)
(-0.203445 0.0892532 0)
(-0.20366 0.107118 0)
(-0.203493 0.125932 0)
(-0.202747 0.145651 0)
(-0.20118 0.166145 0)
(-0.198503 0.187168 0)
(-0.194379 0.208327 0)
(-0.188439 0.229047 0)
(-0.180295 0.248536 0)
(-0.169577 0.265744 0)
(-0.155989 0.279344 0)
(-0.139376 0.287728 0)
(-0.119824 0.289031 0)
(-0.097771 0.281215 0)
(-0.0741218 0.262214 0)
(-0.0503018 0.230143 0)
(-0.028232 0.183562 0)
(-0.010681 0.121754 0)
(-0.00172899 0.0450351 0)
(-0.0013352 -0.0376274 0)
(-0.00847704 -0.101593 0)
(-0.0228135 -0.153511 0)
(-0.0413818 -0.193438 0)
(-0.0621886 -0.22207 0)
(-0.0838059 -0.240525 0)
(-0.105087 -0.250171 0)
(-0.125202 -0.252476 0)
(-0.143627 -0.248881 0)
(-0.160086 -0.240721 0)
(-0.174486 -0.229176 0)
(-0.186868 -0.215247 0)
(-0.197357 -0.199758 0)
(-0.206131 -0.183361 0)
(-0.213386 -0.16656 0)
(-0.219327 -0.149723 0)
(-0.224148 -0.133109 0)
(-0.22803 -0.11688 0)
(-0.231132 -0.101127 0)
(-0.233595 -0.0858776 0)
(-0.235538 -0.0711113 0)
(-0.237061 -0.0567702 0)
(-0.238242 -0.0427675 0)
(-0.239144 -0.0289944 0)
(-0.239811 -0.0153269 0)
(-0.240271 -0.00163049 0)
(-0.240533 0.0122341 0)
(-0.240592 0.0264065 0)
(-0.240421 0.0410211 0)
(-0.239973 0.0562009 0)
(-0.23918 0.0720507 0)
(-0.237946 0.0886474 0)
(-0.236148 0.10603 0)
(-0.23363 0.124185 0)
(-0.230203 0.14303 0)
(-0.225643 0.162394 0)
(-0.219696 0.181994 0)
(-0.212082 0.201411 0)
(-0.202513 0.220057 0)
(-0.190712 0.237158 0)
(-0.176451 0.251727 0)
(-0.159601 0.262559 0)
(-0.140192 0.268243 0)
(-0.118488 0.267202 0)
(-0.0950713 0.257778 0)
(-0.0709123 0.238354 0)
(-0.0473853 0.207527 0)
(-0.0262134 0.164297 0)
(-0.00977421 0.108256 0)
(-0.00154876 0.03979 0)
(-0.0012338 -0.0334251 0)
(-0.00795103 -0.0905647 0)
(-0.0216207 -0.137411 0)
(-0.0396334 -0.173989 0)
(-0.0602394 -0.200812 0)
(-0.0821522 -0.218735 0)
(-0.104285 -0.228832 0)
(-0.125798 -0.232286 0)
(-0.146106 -0.230286 0)
(-0.164837 -0.223964 0)
(-0.181796 -0.214342 0)
(-0.196915 -0.202309 0)
(-0.210224 -0.188613 0)
(-0.221811 -0.173865 0)
(-0.231805 -0.158543 0)
(-0.240353 -0.143011 0)
(-0.247607 -0.127532 0)
(-0.253715 -0.112281 0)
(-0.258816 -0.0973641 0)
(-0.263032 -0.0828262 0)
(-0.266475 -0.0686657 0)
(-0.269235 -0.054843 0)
(-0.271387 -0.0412892 0)
(-0.27299 -0.0279132 0)
(-0.274084 -0.0146082 0)
(-0.274694 -0.00125735 0)
(-0.274824 0.012261 0)
(-0.274463 0.0260677 0)
(-0.273579 0.0402772 0)
(-0.272121 0.0549906 0)
(-0.270014 0.0702888 0)
(-0.267162 0.086223 0)
(-0.263441 0.102804 0)
(-0.258704 0.119989 0)
(-0.252779 0.137667 0)
(-0.245471 0.155642 0)
(-0.23657 0.173612 0)
(-0.225859 0.19115 0)
(-0.213132 0.207684 0)
(-0.19822 0.222481 0)
(-0.181021 0.23464 0)
(-0.161547 0.24309 0)
(-0.139971 0.246618 0)
(-0.116688 0.243909 0)
(-0.0923652 0.233626 0)
(-0.067993 0.214512 0)
(-0.0448686 0.185526 0)
(-0.0245305 0.14598 0)
(-0.00903763 0.0956618 0)
(-0.00140619 0.0349752 0)
(-0.00115798 -0.0294624 0)
(-0.00755082 -0.0800503 0)
(-0.0206996 -0.121856 0)
(-0.0382589 -0.154891 0)
(-0.0586696 -0.179543 0)
(-0.0807651 -0.196473 0)
(-0.10352 -0.206528 0)
(-0.126104 -0.210659 0)
(-0.147895 -0.209846 0)
(-0.16846 -0.205035 0)
(-0.187521 -0.197102 0)
(-0.204928 -0.186824 0)
(-0.220626 -0.174866 0)
(-0.234632 -0.161783 0)
(-0.247009 -0.148021 0)
(-0.25785 -0.133924 0)
(-0.267264 -0.119749 0)
(-0.275365 -0.105674 0)
(-0.282264 -0.0918115 0)
(-0.288069 -0.0782196 0)
(-0.292873 -0.0649101 0)
(-0.296758 -0.0518587 0)
(-0.299791 -0.0390126 0)
(-0.302023 -0.0262974 0)
(-0.303492 -0.0136234 0)
(-0.304214 -0.000890903 0)
(-0.304191 0.0120036 0)
(-0.303408 0.0251622 0)
(-0.301828 0.0386797 0)
(-0.299397 0.0526366 0)
(-0.29604 0.0670922 0)
(-0.291662 0.0820753 0)
(-0.286148 0.0975744 0)
(-0.279366 0.113526 0)
(-0.271165 0.1298 0)
(-0.261386 0.146188 0)
(-0.249866 0.162386 0)
(-0.236453 0.177977 0)
(-0.221023 0.192423 0)
(-0.203501 0.205052 0)
(-0.183895 0.215058 0)
(-0.162333 0.221512 0)
(-0.139097 0.223384 0)
(-0.114671 0.219593 0)
(-0.0897719 0.209069 0)
(-0.0653786 0.190842 0)
(-0.0427036 0.164142 0)
(-0.0231219 0.128497 0)
(-0.00843375 0.0838233 0)
(-0.0012918 0.0305105 0)
(-0.00110092 -0.0256819 0)
(-0.00724561 -0.0699326 0)
(-0.0199889 -0.106732 0)
(-0.0371842 -0.136088 0)
(-0.0574197 -0.158298 0)
(-0.0796284 -0.173877 0)
(-0.102843 -0.183494 0)
(-0.12625 -0.187913 0)
(-0.14921 -0.187934 0)
(-0.171246 -0.184343 0)
(-0.192022 -0.177878 0)
(-0.211322 -0.169207 0)
(-0.229024 -0.158912 0)
(-0.245082 -0.147484 0)
(-0.259501 -0.135327 0)
(-0.272325 -0.122758 0)
(-0.283621 -0.110019 0)
(-0.293471 -0.0972822 0)
(-0.30196 -0.0846609 0)
(-0.309171 -0.072219 0)
(-0.315185 -0.0599781 0)
(-0.320069 -0.0479261 0)
(-0.323882 -0.0360241 0)
(-0.326667 -0.0242128 0)
(-0.328453 -0.0124182 0)
(-0.329254 -0.000557562 0)
(-0.329067 0.0114552 0)
(-0.327871 0.0237044 0)
(-0.325628 0.0362663 0)
(-0.322284 0.0492029 0)
(-0.317767 0.0625549 0)
(-0.311986 0.0763331 0)
(-0.30484 0.0905098 0)
(-0.296212 0.105008 0)
(-0.285981 0.11969 0)
(-0.274023 0.134346 0)
(-0.260224 0.148683 0)
(-0.244495 0.16231 0)
(-0.226783 0.174734 0)
(-0.207102 0.185357 0)
(-0.18555 0.193475 0)
(-0.162344 0.198293 0)
(-0.13785 0.198955 0)
(-0.11261 0.19458 0)
(-0.0873665 0.18432 0)
(-0.0630705 0.16743 0)
(-0.040851 0.143343 0)
(-0.0219425 0.111743 0)
(-0.00793655 0.0726187 0)
(-0.00119925 0.0263331 0)
(-0.00105789 -0.0220401 0)
(-0.00701304 -0.0601209 0)
(-0.0194426 -0.0919471 0)
(-0.0363495 -0.117527 0)
(-0.0564359 -0.137092 0)
(-0.0787155 -0.151042 0)
(-0.102272 -0.159906 0)
(-0.126312 -0.164295 0)
(-0.15019 -0.164853 0)
(-0.1734 -0.162226 0)
(-0.195563 -0.157029 0)
(-0.216412 -0.149824 0)
(-0.235773 -0.141109 0)
(-0.253545 -0.131309 0)
(-0.269686 -0.12078 0)
(-0.284195 -0.109805 0)
(-0.297102 -0.0986041 0)
(-0.308457 -0.0873368 0)
(-0.318319 -0.0761124 0)
(-0.326752 -0.0649953 0)
(-0.333817 -0.0540131 0)
(-0.339569 -0.0431624 0)
(-0.344056 -0.0324157 0)
(-0.347314 -0.0217268 0)
(-0.349364 -0.0110366 0)
(-0.350214 -0.00027767 0)
(-0.349857 0.0106198 0)
(-0.34827 0.0217236 0)
(-0.345415 0.0330936 0)
(-0.341238 0.0447755 0)
(-0.33567 0.056795 0)
(-0.328631 0.0691498 0)
(-0.320033 0.0818019 0)
(-0.309778 0.0946684 0)
(-0.297773 0.107613 0)
(-0.283933 0.120434 0)
(-0.268189 0.132861 0)
(-0.250508 0.144539 0)
(-0.230904 0.155033 0)
(-0.209461 0.16382 0)
(-0.186353 0.170301 0)
(-0.161869 0.173812 0)
(-0.136433 0.173649 0)
(-0.110627 0.169106 0)
(-0.0851975 0.159517 0)
(-0.0610647 0.144315 0)
(-0.0392799 0.123084 0)
(-0.0209596 0.0956166 0)
(-0.00752777 0.0619445 0)
(-0.00112426 0.0223918 0)
(-0.00102554 -0.0185036 0)
(-0.00683676 -0.0505436 0)
(-0.0190257 -0.0774262 0)
(-0.0357075 -0.099161 0)
(-0.0556719 -0.115927 0)
(-0.0779965 -0.128034 0)
(-0.101808 -0.135897 0)
(-0.126335 -0.139997 0)
(-0.150928 -0.140849 0)
(-0.175065 -0.138972 0)
(-0.198336 -0.134867 0)
(-0.220436 -0.128999 0)
(-0.241148 -0.121781 0)
(-0.260327 -0.113574 0)
(-0.277892 -0.104679 0)
(-0.293804 -0.0953437 0)
(-0.30806 -0.0857584 0)
(-0.320681 -0.0760666 0)
(-0.331703 -0.0663677 0)
(-0.341168 -0.056723 0)
(-0.349124 -0.047162 0)
(-0.355611 -0.0376872 0)
(-0.360667 -0.0282802 0)
(-0.364319 -0.0189061 0)
(-0.366581 -0.00951863 0)
(-0.367457 -6.45457e-05 0)
(-0.366935 0.00951161 0)
(-0.364992 0.0192626 0)
(-0.361587 0.0292339 0)
(-0.356671 0.0394581 0)
(-0.35018 0.0499493 0)
(-0.342043 0.0606968 0)
(-0.332186 0.0716577 0)
(-0.320533 0.0827504 0)
(-0.307018 0.0938465 0)
(-0.291588 0.104764 0)
(-0.274219 0.11526 0)
(-0.254927 0.125027 0)
(-0.233782 0.133689 0)
(-0.210927 0.140807 0)
(-0.186595 0.145882 0)
(-0.161131 0.148371 0)
(-0.135 0.14771 0)
(-0.108807 0.143339 0)
(-0.0832971 0.134746 0)
(-0.0593558 0.121502 0)
(-0.0379668 0.103307 0)
(-0.0201494 0.0800247 0)
(-0.00719445 0.0517106 0)
(-0.00106383 0.0186438 0)
(-0.00100146 -0.0150465 0)
(-0.00670473 -0.0411442 0)
(-0.0187119 -0.0631077 0)
(-0.0352215 -0.0809467 0)
(-0.0550894 -0.0947981 0)
(-0.077443 -0.1049 0)
(-0.101445 -0.111569 0)
(-0.12634 -0.115176 0)
(-0.151484 -0.116124 0)
(-0.176341 -0.114819 0)
(-0.200481 -0.11166 0)
(-0.22357 -0.107015 0)
(-0.245356 -0.101219 0)
(-0.265664 -0.0945669 0)
(-0.284377 -0.0873054 0)
(-0.301426 -0.0796388 0)
(-0.316781 -0.0717283 0)
(-0.330437 -0.0636953 0)
(-0.34241 -0.055626 0)
(-0.352725 -0.0475752 0)
(-0.361412 -0.0395711 0)
(-0.368504 -0.0316197 0)
(-0.374025 -0.0237091 0)
(-0.377995 -0.0158139 0)
(-0.380423 -0.00789893 0)
(-0.381307 7.63892e-05 0)
(-0.380634 0.00815461 0)
(-0.378377 0.0163756 0)
(-0.374499 0.0247727 0)
(-0.36895 0.0333682 0)
(-0.361674 0.0421681 0)
(-0.352611 0.0511572 0)
(-0.341699 0.0602934 0)
(-0.328882 0.0695017 0)
(-0.314117 0.0786688 0)
(-0.297384 0.0876372 0)
(-0.278695 0.096201 0)
(-0.258107 0.104103 0)
(-0.235736 0.111033 0)
(-0.211773 0.116634 0)
(-0.186499 0.120504 0)
(-0.160296 0.122214 0)
(-0.133662 0.121322 0)
(-0.107212 0.117398 0)
(-0.0816874 0.110055 0)
(-0.0579387 0.098975 0)
(-0.036894 0.0839443 0)
(-0.0194946 0.0648781 0)
(-0.00692741 0.0418368 0)
(-0.00101587 0.0150521 0)
(-0.000983925 -0.0116482 0)
(-0.00660813 -0.0318774 0)
(-0.0184814 -0.0489411 0)
(-0.0348632 -0.0628483 0)
(-0.0546579 -0.0737005 0)
(-0.0770305 -0.0816732 0)
(-0.101171 -0.0870008 0)
(-0.12634 -0.0899593 0)
(-0.151896 -0.0908485 0)
(-0.177297 -0.0899753 0)
(-0.202098 -0.08764 0)
(-0.225942 -0.0841252 0)
(-0.248556 -0.0796879 0)
(-0.269737 -0.0745546 0)
(-0.289342 -0.068919 0)
(-0.307279 -0.0629411 0)
(-0.323495 -0.0567486 0)
(-0.337965 -0.0504387 0)
(-0.350687 -0.0440811 0)
(-0.361672 -0.0377213 0)
(-0.370938 -0.0313838 0)
(-0.378505 -0.0250757 0)
(-0.384391 -0.0187899 0)
(-0.388608 -0.0125086 0)
(-0.391161 -0.00620628 0)
(-0.392044 0.000146743 0)
(-0.391239 0.00658145 0)
(-0.388721 0.0131268 0)
(-0.384452 0.0198063 0)
(-0.378387 0.026634 0)
(-0.370475 0.0336114 0)
(-0.360664 0.0407224 0)
(-0.348905 0.0479297 0)
(-0.335159 0.0551702 0)
(-0.319404 0.0623504 0)
(-0.301644 0.0693429 0)
(-0.281922 0.0759832 0)
(-0.260329 0.0820683 0)
(-0.237017 0.0873563 0)
(-0.212215 0.0915703 0)
(-0.186236 0.0944038 0)
(-0.159493 0.0955315 0)
(-0.132503 0.0946229 0)
(-0.10589 0.0913608 0)
(-0.0803839 0.085462 0)
(-0.0568094 0.0767 0)
(-0.0360487 0.064927 0)
(-0.018983 0.0500916 0)
(-0.00672015 0.03225 0)
(-0.000978934 0.0115838 0)
(-0.000971715 -0.00829217 0)
(-0.00654066 -0.0227061 0)
(-0.01832 -0.0348844 0)
(-0.0346115 -0.0448346 0)
(-0.0543538 -0.0526267 0)
(-0.0767388 -0.0583813 0)
(-0.100976 -0.0622597 0)
(-0.126339 -0.0644525 0)
(-0.152189 -0.0651675 0)
(-0.17798 -0.0646185 0)
(-0.203256 -0.0630155 0)
(-0.227648 -0.0605574 0)
(-0.250863 -0.0574259 0)
(-0.272681 -0.0537821 0)
(-0.292941 -0.0497642 0)
(-0.311531 -0.0454873 0)
(-0.328381 -0.0410437 0)
(-0.343452 -0.0365042 0)
(-0.356728 -0.0319202 0)
(-0.368209 -0.0273255 0)
(-0.377903 -0.0227391 0)
(-0.385822 -0.0181672 0)
(-0.391978 -0.0136061 0)
(-0.396376 -0.00904401 0)
(-0.399017 -0.00446391 0)
(-0.399893 0.000154455 0)
(-0.398984 0.00483208 0)
(-0.396264 0.00958841 0)
(-0.391696 0.0144388 0)
(-0.385238 0.0193916 0)
(-0.376844 0.024446 0)
(-0.366469 0.0295883 0)
(-0.354075 0.0347894 0)
(-0.339634 0.0400014 0)
(-0.323141 0.045155 0)
(-0.304622 0.0501566 0)
(-0.28414 0.0548866 0)
(-0.261812 0.0591983 0)
(-0.237818 0.0629189 0)
(-0.212413 0.0658516 0)
(-0.185934 0.0677805 0)
(-0.158815 0.0684782 0)
(-0.131585 0.0677157 0)
(-0.104872 0.0652752 0)
(-0.0793977 0.0609644 0)
(-0.0559647 0.0546316 0)
(-0.0354217 0.0461809 0)
(-0.0186059 0.0355829 0)
(-0.00656815 0.0228821 0)
(-0.000951994 0.00820891 0)
(-0.000964002 -0.00496445 0)
(-0.00649794 -0.013599 0)
(-0.0182177 -0.0209021 0)
(-0.0344516 -0.0268785 0)
(-0.0541602 -0.0315695 0)
(-0.0765527 -0.0350455 0)
(-0.100852 -0.0374011 0)
(-0.126338 -0.038748 0)
(-0.152377 -0.0392085 0)
(-0.178419 -0.0389087 0)
(-0.204004 -0.0379728 0)
(-0.228751 -0.0365189 0)
(-0.252359 -0.0346554 0)
(-0.274593 -0.0324784 0)
(-0.295281 -0.0300709 0)
(-0.3143 -0.0275023 0)
(-0.331567 -0.0248283 0)
(-0.347035 -0.0220919 0)
(-0.360677 -0.0193245 0)
(-0.372486 -0.0165471 0)
(-0.382462 -0.0137715 0)
(-0.390614 -0.011002 0)
(-0.396946 -0.00823679 0)
(-0.401462 -0.00546937 0)
(-0.40416 -0.00268989 0)
(-0.405028 0.000113356 0)
(-0.404047 0.00295252 0)
(-0.401189 0.00583874 0)
(-0.396419 0.00878062 0)
(-0.389697 0.0117826 0)
(-0.380979 0.0148432 0)
(-0.370227 0.0179535 0)
(-0.357408 0.0210949 0)
(-0.342505 0.0242378 0)
(-0.325525 0.0273393 0)
(-0.306504 0.0303424 0)
(-0.285523 0.0331745 0)
(-0.262715 0.0357471 0)
(-0.238278 0.0379563 0)
(-0.212482 0.0396847 0)
(-0.185684 0.0408039 0)
(-0.158327 0.0411796 0)
(-0.13095 0.0406772 0)
(-0.104182 0.0391694 0)
(-0.0787362 0.0365447 0)
(-0.0554026 0.0327163 0)
(-0.0350068 0.0276301 0)
(-0.0183575 0.0212712 0)
(-0.00646835 0.0136682 0)
(-0.000934378 0.0048995 0)
(-0.000960269 -0.00165304 0)
(-0.00647724 -0.00452895 0)
(-0.018168 -0.00696265 0)
(-0.034374 -0.00895583 0)
(-0.0540662 -0.010522 0)
(-0.0764621 -0.0116845 0)
(-0.100791 -0.0124744 0)
(-0.126338 -0.0129285 0)
(-0.152469 -0.0130872 0)
(-0.178635 -0.0129922 0)
(-0.204371 -0.0126845 0)
(-0.229293 -0.0122034 0)
(-0.253094 -0.0115848 0)
(-0.275534 -0.0108607 0)
(-0.296434 -0.0100588 0)
(-0.315665 -0.00920222 0)