/*--------------------------------*- C++ -*----------------------------------*\
  =========                 |
  \\      /  F ield         | OpenFOAM: The Open Source CFD Toolbox
   \\    /   O peration     | Website:  https://openfoam.org
    \\  /    A nd           | Version:  7
     \\/     M anipulation  |
\*---------------------------------------------------------------------------*/
FoamFile
{
    version     2.0;
    format      ascii;
    class       surfaceScalarField;
    location    "0.049";
    object      phi;
}
// * * * * * * * * * * * * * * * * * * * * * * * * * * * * * * * * * * * * * //

dimensions      [0 3 -1 0 0 0 0];

internalField   nonuniform List<scalar> 
4900
(
1.0484e-09
-1.04788e-09
2.08887e-09
-1.04049e-09
2.0704e-09
1.84751e-11
6.55185e-10
1.41521e-09
-2.23119e-09
2.88638e-09
-6.50333e-09
4.27213e-09
-1.20041e-08
5.50072e-09
-1.85452e-08
6.54108e-09
-2.59278e-08
7.38263e-09
-3.39528e-08
8.02502e-09
-4.24263e-08
8.47346e-09
-5.11627e-08
8.73636e-09
-5.99867e-08
8.82405e-09
-6.87347e-08
8.74793e-09
-7.72547e-08
8.52001e-09
-8.54074e-08
8.15265e-09
-9.30657e-08
7.6583e-09
-1.00115e-07
7.04945e-09
-1.06454e-07
6.33854e-09
-1.11992e-07
5.53796e-09
-1.16652e-07
4.66012e-09
-1.20369e-07
3.71744e-09
-1.23092e-07
2.72245e-09
-1.2478e-07
1.68789e-09
-1.25406e-07
6.26732e-10
-1.24959e-07
-4.47687e-10
-1.23437e-07
-1.52165e-09
-1.20856e-07
-2.58099e-09
-1.17245e-07
-3.6111e-09
-1.12648e-07
-4.59694e-09
-1.07125e-07
-5.52307e-09
-1.00751e-07
-6.37376e-09
-9.36179e-08
-7.1331e-09
-8.58327e-08
-7.78514e-09
-7.75186e-08
-8.31416e-09
-6.88137e-08
-8.70483e-09
-5.98712e-08
-8.94253e-09
-5.08575e-08
-9.01368e-09
-4.19514e-08
-8.90605e-09
-3.33422e-08
-8.60923e-09
-2.5227e-08
-8.11517e-09
-1.7808e-08
-7.41901e-09
-1.12877e-08
-6.52029e-09
-5.86246e-09
-5.42522e-09
-1.71116e-09
-4.1513e-09
1.02636e-09
-2.73752e-09
2.28918e-09
-1.26282e-09
2.16213e-09
1.27045e-10
1.04902e-09
1.11311e-09
1.04902e-09
1.0526e-09
-2.10052e-09
1.06605e-09
-1.05391e-09
-1.44295e-09
2.52753e-09
-7.18786e-09
7.16012e-09
-1.63558e-08
1.20544e-08
-2.88316e-08
1.67479e-08
-4.43138e-08
2.09829e-08
-6.23956e-08
2.46229e-08
-8.26151e-08
2.76022e-08
-1.04487e-07
2.98974e-08
-1.27525e-07
3.15106e-08
-1.51249e-07
3.24604e-08
-1.752e-07
3.27757e-08
-1.98944e-07
3.24919e-08
-2.22073e-07
3.1649e-08
-2.4421e-07
3.02894e-08
-2.65009e-07
2.84573e-08
-2.84157e-07
2.61978e-08
-3.01375e-07
2.35564e-08
-3.16416e-07
2.05793e-08
-3.29069e-07
1.73129e-08
-3.39155e-07
1.38038e-08
-3.46532e-07
1.00995e-08
-3.51093e-07
6.24826e-09
-3.52765e-07
2.29914e-09
-3.51516e-07
-1.69744e-09
-3.47347e-07
-5.68971e-09
-3.40304e-07
-9.62449e-09
-3.30468e-07
-1.34471e-08
-3.17963e-07
-1.71015e-08
-3.02956e-07
-2.05304e-08
-2.85654e-07
-2.3676e-08
-2.66307e-07
-2.64799e-08
-2.45208e-07
-2.88844e-08
-2.2269e-07
-3.08326e-08
-1.99124e-07
-3.22701e-08
-1.74921e-07
-3.31456e-08
-1.50522e-07
-3.34126e-08
-1.26398e-07
-3.30309e-08
-1.03038e-07
-3.19685e-08
-8.09492e-08
-3.02042e-08
-6.06366e-08
-2.77317e-08
-4.25925e-08
-2.45644e-08
-2.72727e-08
-2.0745e-08
-1.50634e-08
-1.63606e-08
-6.23125e-09
-1.15697e-08
-8.44258e-10
-6.64982e-09
1.36019e-09
-2.07741e-09
1.12373e-09
1.34957e-09
2.17275e-09
3.97521e-11
-2.14027e-09
-2.42255e-09
1.40839e-09
-8.83483e-09
8.93982e-09
-1.99062e-08
1.82315e-08
-3.5837e-08
2.79851e-08
-5.64727e-08
3.73836e-08
-8.14149e-08
4.59251e-08
-1.10109e-07
5.33174e-08
-1.4191e-07
5.94024e-08
-1.76121e-07
6.41084e-08
-2.1203e-07
6.74205e-08
-2.48932e-07
6.93617e-08
-2.86137e-07
6.99805e-08
-3.22987e-07
6.93428e-08
-3.58865e-07
6.7526e-08
-3.9319e-07
6.46152e-08
-4.25434e-07
6.07006e-08
-4.55112e-07
5.5876e-08
-4.81793e-07
5.02372e-08
-5.05095e-07
4.38816e-08
-5.2469e-07
3.69081e-08
-5.40303e-07
2.94169e-08
-5.51713e-07
2.15097e-08
-5.58755e-07
1.32901e-08
-5.6132e-07
4.86365e-09
-5.59356e-07
-3.66129e-09
-5.52872e-07
-1.21738e-08
-5.41936e-07
-2.05599e-08
-5.2668e-07
-2.8703e-08
-5.07298e-07
-3.64839e-08
-4.84047e-07
-4.37812e-08
-4.57251e-07
-5.04726e-08
-4.27295e-07
-5.64356e-08
-3.9463e-07
-6.15492e-08
-3.59767e-07
-6.56956e-08
-3.23275e-07
-6.87624e-08
-2.85775e-07
-7.06455e-08
-2.47936e-07
-7.12517e-08
-2.10464e-07
-7.0503e-08
-1.74091e-07
-6.83408e-08
-1.39563e-07
-6.47321e-08
-1.07618e-07
-5.96773e-08
-7.89596e-08
-5.32225e-08
-5.42282e-08
-4.54764e-08
-3.39508e-08
-3.6638e-08
-1.84795e-08
-2.7041e-08
-7.90426e-09
-1.7225e-08
-1.94548e-09
-8.03618e-09
1.88455e-10
-7.84375e-10
2.3612e-09
-1.31676e-09
-8.23472e-10
-6.97965e-09
7.07128e-09
-1.80543e-08
2.00145e-08
-3.50682e-08
3.52453e-08
-5.81169e-08
5.10338e-08
-8.69533e-08
6.62201e-08
-1.21076e-07
8.00481e-08
-1.59808e-07
9.20491e-08
-2.02356e-07
1.0195e-07
-2.47862e-07
1.09614e-07
-2.95438e-07
1.14996e-07
-3.44193e-07
1.18117e-07
-3.93255e-07
1.19043e-07
-4.41785e-07
1.17872e-07
-4.88986e-07
1.14727e-07
-5.34113e-07
1.09743e-07
-5.7648e-07
1.03067e-07
-6.15459e-07
9.48552e-08
-6.50488e-07
8.52665e-08
-6.81072e-07
7.4465e-08
-7.06781e-07
6.26175e-08
-7.27258e-07
4.98938e-08
-7.42215e-07
3.64666e-08
-7.51437e-07
2.25119e-08
-7.54783e-07
8.2097e-09
-7.52188e-07
-6.25607e-09
-7.43665e-07
-2.06969e-08
-7.29305e-07
-3.49198e-08
-7.09281e-07
-4.87272e-08
-6.83847e-07
-6.19179e-08
-6.5334e-07
-7.42877e-08
-6.18182e-07
-8.56313e-08
-5.78874e-07
-9.57437e-08
-5.35999e-07
-1.04423e-07
-4.90219e-07
-1.11476e-07
-4.42267e-07
-1.16715e-07
-3.92939e-07
-1.19973e-07
-3.43093e-07
-1.21098e-07
-2.93626e-07
-1.1997e-07
-2.45465e-07
-1.16501e-07
-1.99548e-07
-1.10649e-07
-1.56796e-07
-1.0243e-07
-1.1808e-07
-9.1938e-08
-8.41877e-08
-7.93687e-08
-5.57669e-08
-6.50588e-08
-3.3266e-08
-4.95419e-08
-1.68579e-08
-3.36331e-08
-6.35572e-09
-1.85384e-08
-1.1323e-09
-6.00779e-09
1.2289e-09
-2.76863e-09
1.94515e-09
-1.19184e-08
1.62211e-08
-2.80236e-08
3.61198e-08
-5.13169e-08
5.85386e-08
-8.16966e-08
8.14135e-08
-1.18769e-07
1.03292e-07
-1.61905e-07
1.23185e-07
-2.10303e-07
1.40447e-07
-2.63039e-07
1.54687e-07
-3.19116e-07
1.65691e-07
-3.77499e-07
1.73379e-07
-4.37147e-07
1.77765e-07
-4.97035e-07
1.78931e-07
-5.56173e-07
1.7701e-07
-6.13619e-07
1.72172e-07
-6.68486e-07
1.64611e-07
-7.19958e-07
1.54539e-07
-7.67286e-07
1.42183e-07
-8.09797e-07
1.27778e-07
-8.46899e-07
1.11566e-07
-8.78077e-07
9.37958e-08
-9.02903e-07
7.47196e-08
-9.21032e-07
5.45956e-08
-9.32207e-07
3.36871e-08
-9.3626e-07
1.22629e-08
-9.33114e-07
-9.40196e-09
-9.22785e-07
-3.10259e-08
-9.05384e-07
-5.23209e-08
-8.81118e-07
-7.29929e-08
-8.50293e-07
-9.27428e-08
-8.13313e-07
-1.11268e-07
-7.70681e-07
-1.28263e-07
-7.22998e-07
-1.43427e-07
-6.70957e-07
-1.56464e-07
-6.15346e-07
-1.67086e-07
-5.57035e-07
-1.75026e-07
-4.96969e-07
-1.80038e-07
-4.36159e-07
-1.81909e-07
-3.75663e-07
-1.80466e-07
-3.1657e-07
-1.75594e-07
-2.59977e-07
-1.67242e-07
-2.06958e-07
-1.55449e-07
-1.58531e-07
-1.40365e-07
-1.15616e-07
-1.22284e-07
-7.89866e-08
-1.01688e-07
-4.92144e-08
-7.93141e-08
-2.6611e-08
-5.62365e-08
-1.11727e-08
-3.39767e-08
-2.54242e-09
-1.46381e-08
-1.31352e-09
-4.19403e-09
6.13918e-09
-1.68874e-08
2.89144e-08
-3.81495e-08
5.73819e-08
-6.78614e-08
8.82505e-08
-1.05668e-07
1.1922e-07
-1.50983e-07
1.48608e-07
-2.03024e-07
1.75225e-07
-2.60849e-07
1.98272e-07
-3.23405e-07
2.17242e-07
-3.89562e-07
2.31849e-07
-4.58158e-07
2.41975e-07
-5.28019e-07
2.47626e-07
-5.97992e-07
2.48904e-07
-6.66958e-07
2.45976e-07
-7.3385e-07
2.39065e-07
-7.97667e-07
2.28428e-07
-8.57479e-07
2.14351e-07
-9.12436e-07
1.9714e-07
-9.61773e-07
1.77114e-07
-1.00481e-06
1.54606e-07
-1.04097e-06
1.29954e-07
-1.06976e-06
1.03507e-07
-1.09078e-06
7.56189e-08
-1.10375e-06
4.66533e-08
-1.10846e-06
1.69803e-08
-1.10484e-06
-1.30212e-08
-1.09291e-06
-4.29636e-08
-1.07278e-06
-7.24509e-08
-1.04469e-06
-1.01079e-07
-1.009e-06
-1.28437e-07
-9.66154e-07
-1.5411e-07
-9.16734e-07
-1.77683e-07
-8.61419e-07
-1.98742e-07
-8.00998e-07
-2.16885e-07
-7.36363e-07
-2.31722e-07
-6.68499e-07
-2.42891e-07
-5.98476e-07
-2.50061e-07
-5.27437e-07
-2.52948e-07
-4.56577e-07
-2.51326e-07
-3.87126e-07
-2.45045e-07
-3.20319e-07
-2.34049e-07
-2.57371e-07
-2.18397e-07
-1.99436e-07
-1.983e-07
-1.47572e-07
-1.74148e-07
-1.02693e-07
-1.46568e-07
-6.55234e-08
-1.16484e-07
-3.65601e-08
-8.51998e-08
-1.60391e-08
-5.44976e-08
-3.93304e-09
-2.67442e-08
-5.24657e-09
-5.55162e-09
1.16908e-08
-2.17309e-08
4.50937e-08
-4.81367e-08
8.37877e-08
-8.42838e-08
1.24398e-07
-1.29533e-07
1.64469e-07
-1.83075e-07
2.0215e-07
-2.43945e-07
2.36095e-07
-3.11046e-07
2.65373e-07
-3.83185e-07
2.89381e-07
-4.59104e-07
3.07768e-07
-5.37516e-07
3.20386e-07
-6.17128e-07
3.27239e-07
-6.96671e-07
3.28446e-07
-7.74914e-07
3.24219e-07
-8.50684e-07
3.14835e-07
-9.22878e-07
3.00622e-07
-9.90473e-07
2.81946e-07
-1.05253e-06
2.59198e-07
-1.10821e-06
2.32792e-07
-1.15676e-06
2.03157e-07
-1.19754e-06
1.70734e-07
-1.23001e-06
1.35974e-07
-1.25373e-06
9.93401e-08
-1.26838e-06
6.13035e-08
-1.27375e-06
2.2347e-08
-1.26973e-06
-1.70362e-08
-1.25635e-06
-5.63418e-08
-1.23375e-06
-9.50545e-08
-1.20218e-06
-1.32649e-07
-1.16202e-06
-1.68592e-07
-1.11379e-06
-2.02346e-07
-1.0581e-06
-2.33371e-07
-9.95711e-07
-2.61132e-07
-9.27486e-07
-2.85109e-07
-8.54407e-07
-3.04801e-07
-7.77558e-07
-3.19739e-07
-6.98119e-07
-3.29501e-07
-6.17345e-07
-3.33722e-07
-5.36554e-07
-3.32117e-07
-4.57102e-07
-3.24497e-07
-3.80358e-07
-3.10793e-07
-3.0767e-07
-2.91086e-07
-2.40332e-07
-2.65637e-07
-1.79549e-07
-2.34931e-07
-1.26395e-07
-1.99722e-07
-8.17769e-08
-1.61102e-07
-4.64084e-08
-1.20568e-07
-2.0797e-08
-8.0109e-08
-5.26068e-09
-4.22806e-08
-1.05072e-08
-6.83547e-09
1.85263e-08
-2.64007e-08
6.46589e-08
-5.7873e-08
1.1526e-07
-1.00409e-07
1.66934e-07
-1.53073e-07
2.17133e-07
-2.14813e-07
2.6389e-07
-2.84462e-07
3.05743e-07
-3.6075e-07
3.41661e-07
-4.42333e-07
3.70964e-07
-5.27821e-07
3.93256e-07
-6.15801e-07
4.08366e-07
-7.04865e-07
4.16304e-07
-7.93637e-07
4.17218e-07
-8.80785e-07
4.11367e-07
-9.65041e-07
3.99091e-07
-1.04521e-06
3.80795e-07
-1.1202e-06
3.56931e-07
-1.18899e-06
3.27984e-07
-1.25066e-06
2.94469e-07
-1.30443e-06
2.5692e-07
-1.34958e-06
2.15885e-07
-1.38553e-06
1.7193e-07
-1.41182e-06
1.2563e-07
-1.4281e-06
7.75771e-08
-1.43412e-06
2.83723e-08
-1.42979e-06
-2.13678e-08
-1.41512e-06
-7.10133e-08
-1.39025e-06
-1.19921e-07
-1.35547e-06
-1.67435e-07
-1.31117e-06
-2.1289e-07
-1.2579e-06
-2.55614e-07
-1.19633e-06
-2.94936e-07
-1.12728e-06
-3.3019e-07
-1.05166e-06
-3.60725e-07
-9.70544e-07
-3.85918e-07
-8.85096e-07
-4.05187e-07
-7.9659e-07
-4.18006e-07
-7.06389e-07
-4.23923e-07
-6.15922e-07
-4.22584e-07
-5.26667e-07
-4.13752e-07
-4.40121e-07
-3.97339e-07
-3.5777e-07
-3.73436e-07
-2.81058e-07
-3.42349e-07
-2.11349e-07
-3.0464e-07
-1.49896e-07
-2.61175e-07
-9.78121e-08
-2.13186e-07
-5.60493e-08
-1.62331e-07
-2.53996e-08
-1.10759e-07
-6.51859e-09
-6.11615e-08
-1.70258e-08
-8.05519e-09
2.65815e-08
-3.09037e-08
8.75074e-08
-6.73492e-08
1.51705e-07
-1.16208e-07
2.15792e-07
-1.76247e-07
2.77172e-07
-2.4616e-07
3.33803e-07
-3.24561e-07
3.84145e-07
-4.09996e-07
4.27096e-07
-5.00958e-07
4.61927e-07
-5.95914e-07
4.88211e-07
-6.93323e-07
5.05776e-07
-7.91666e-07
5.14646e-07
-8.89459e-07
5.15011e-07
-9.85277e-07
5.07185e-07
-1.07777e-06
4.9158e-07
-1.16566e-06
4.68685e-07
-1.24777e-06
4.39045e-07
-1.32303e-06
4.03248e-07
-1.39048e-06
3.61915e-07
-1.44925e-06
3.15691e-07
-1.49861e-06
2.65242e-07
-1.53793e-06
2.11251e-07
-1.56672e-06
1.54417e-07
-1.58459e-06
9.54518e-08
-1.5913e-06
3.50866e-08
-1.58674e-06
-2.59333e-08
-1.57091e-06
-8.68455e-08
-1.54396e-06
-1.46871e-07
-1.50617e-06
-2.05218e-07
-1.45798e-06
-2.61079e-07
-1.39996e-06
-3.13641e-07
-1.3328e-06
-3.62091e-07
-1.25737e-06
-4.05622e-07
-1.17465e-06
-4.43445e-07
-1.08577e-06
-4.74804e-07
-9.91961e-07
-4.98992e-07
-8.94599e-07
-5.15369e-07
-7.95136e-07
-5.23386e-07
-6.95114e-07
-5.22606e-07
-5.96129e-07
-5.12737e-07
-4.99809e-07
-4.93658e-07
-4.07787e-07
-4.65459e-07
-3.21664e-07
-4.28472e-07
-2.42981e-07
-3.83323e-07
-1.73189e-07
-3.30967e-07
-1.13622e-07
-2.72753e-07
-6.54855e-08
-2.10467e-07
-2.98586e-08
-1.46386e-07
-7.71742e-09
-8.33027e-08
-2.47432e-08
-9.22605e-09
3.58076e-08
-3.52733e-08
1.13555e-07
-7.66114e-08
1.93044e-07
-1.31736e-07
2.70916e-07
-1.9912e-07
3.44557e-07
-2.77198e-07
4.11881e-07
-3.64355e-07
4.71302e-07
-4.58938e-07
5.21679e-07
-5.59269e-07
5.62257e-07
-6.63663e-07
5.92605e-07
-7.70447e-07
6.1256e-07
-8.77984e-07
6.22184e-07
-9.8469e-07
6.21717e-07
-1.08905e-06
6.11541e-07
-1.18962e-06
5.92152e-07
-1.28506e-06
5.64131e-07
-1.37414e-06
5.28125e-07
-1.45573e-06
4.8483e-07
-1.52879e-06
4.34983e-07
-1.59245e-06
3.79346e-07
-1.64591e-06
3.18708e-07
-1.68854e-06
2.53873e-07
-1.71979e-06
1.85669e-07
-1.73927e-06
1.14937e-07
-1.74673e-06
4.25391e-08
-1.74201e-06
-3.06447e-08
-1.72515e-06
-1.03714e-07
-1.69627e-06
-1.7575e-07
-1.65567e-06
-2.45815e-07
-1.60379e-06
-3.12956e-07
-1.54122e-06
-3.76212e-07
-1.46869e-06
-4.34618e-07
-1.3871e-06
-4.87217e-07
-1.29747e-06
-5.33073e-07
-1.20099e-06
-5.71286e-07
-1.09897e-06
-6.01013e-07
-9.92849e-07
-6.21488e-07
-8.84187e-07
-6.32048e-07
-7.74627e-07
-6.32166e-07
-6.65889e-07
-6.21475e-07
-5.5974e-07
-5.99808e-07
-4.57964e-07
-5.67235e-07
-3.62335e-07
-5.24101e-07
-2.74587e-07
-4.71071e-07
-1.96381e-07
-4.09173e-07
-1.2929e-07
-3.39844e-07
-7.47804e-08
-2.64977e-07
-3.42154e-08
-1.86951e-07
-8.87456e-09
-1.08644e-07
-3.36178e-08
-1.03647e-08
4.61723e-08
-3.9554e-08
1.42744e-07
-8.5733e-08
2.39223e-07
-1.47092e-07
3.32276e-07
-2.21818e-07
4.19282e-07
-3.08079e-07
4.98143e-07
-4.04027e-07
5.6725e-07
-5.078e-07
6.25452e-07
-6.17536e-07
6.71993e-07
-7.31391e-07
7.0646e-07
-8.47556e-07
7.28724e-07
-9.64272e-07
7.389e-07
-1.07985e-06
7.37296e-07
-1.19269e-06
7.24377e-07
-1.30127e-06
7.00731e-07
-1.40418e-06
6.67045e-07
-1.50013e-06
6.24077e-07
-1.58794e-06
5.7264e-07
-1.66655e-06
5.1359e-07
-1.73502e-06
4.47817e-07
-1.79254e-06
3.76232e-07
-1.83844e-06
2.99772e-07
-1.87217e-06
2.19392e-07
-1.8933e-06
1.36067e-07
-1.90155e-06
5.07949e-08
-1.89679e-06
-3.54072e-08
-1.87901e-06
-1.21498e-07
-1.84834e-06
-2.06412e-07
-1.80509e-06
-2.89065e-07
-1.7497e-06
-3.68351e-07
-1.68276e-06
-4.43153e-07
-1.60503e-06
-5.12348e-07
-1.51743e-06
-5.74821e-07
-1.42102e-06
-6.29478e-07
-1.31704e-06
-6.75263e-07
-1.20687e-06
-7.11184e-07
-1.09202e-06
-7.36335e-07
-9.74145e-07
-7.49927e-07
-8.54991e-07
-7.5132e-07
-7.36406e-07
-7.40059e-07
-6.20303e-07
-7.15911e-07
-5.08629e-07
-6.78908e-07
-4.03345e-07
-6.29385e-07
-3.06389e-07
-5.68027e-07
-2.19651e-07
-4.95911e-07
-1.44953e-07
-4.14542e-07
-8.4029e-08
-3.25901e-07
-3.85252e-08
-2.32454e-07
-1.00096e-08
-1.37159e-07
-4.36274e-08
-1.14876e-08
5.76599e-08
-4.37941e-08
1.7505e-07
-9.47989e-08
2.90227e-07
-1.62399e-07
3.99875e-07
-2.44496e-07
5.0138e-07
-3.38994e-07
5.92641e-07
-4.43802e-07
6.72057e-07
-5.56839e-07
7.3849e-07
-6.76054e-07
7.91209e-07
-7.99436e-07
8.29841e-07
-9.2503e-07
8.54318e-07
-1.05096e-06
8.64826e-07
-1.17542e-06
8.61759e-07
-1.29672e-06
8.45682e-07
-1.41328e-06
8.17292e-07
-1.52363e-06
7.77389e-07
-1.62641e-06
7.26855e-07
-1.7204e-06
6.66629e-07
-1.8045e-06
5.97694e-07
-1.87775e-06
5.2107e-07
-1.93932e-06
4.37799e-07
-1.9885e-06
3.48951e-07
-2.02472e-06
2.55613e-07
-2.04755e-06
1.58896e-07
-2.05669e-06
5.99328e-08
-2.05198e-06
-4.01177e-08
-2.0334e-06
-1.40071e-07
-2.0011e-06
-2.38716e-07
-1.95535e-06
-3.34814e-07
-1.8966e-06
-4.27105e-07
-1.82544e-06
-5.14308e-07
-1.74265e-06
-5.95139e-07
-1.64916e-06
-6.68312e-07
-1.54607e-06
-7.32564e-07
-1.43466e-06
-7.86674e-07
-1.31636e-06
-8.29485e-07
-1.19276e-06
-8.59935e-07
-1.0656e-06
-8.7709e-07
-9.3674e-07
-8.8018e-07
-8.0816e-07
-8.68639e-07
-6.81924e-07
-8.42147e-07
-5.60156e-07
-8.00676e-07
-4.45014e-07
-7.44528e-07
-3.38656e-07
-6.74386e-07
-2.43215e-07
-5.91351e-07
-1.60773e-07
-4.96984e-07
-9.33412e-08
-3.93333e-07
-4.28481e-08
-2.82947e-07
-1.11422e-08
-1.68865e-07
-5.47696e-08
-1.26096e-08
7.02696e-08
-4.80407e-08
2.10481e-07
-1.03895e-07
3.46082e-07
-1.77783e-07
4.73763e-07
-2.67321e-07
5.90918e-07
-3.70145e-07
6.95465e-07
-4.83914e-07
7.85826e-07
-6.06323e-07
8.60899e-07
-7.35121e-07
9.20006e-07
-8.68122e-07
9.62842e-07
-1.00322e-06
9.8942e-07
-1.13842e-06
1.00002e-06
-1.2718e-06
9.95144e-07
-1.40159e-06
9.75474e-07
-1.52613e-06
9.41832e-07
-1.64389e-06
8.95149e-07
-1.75347e-06
8.36437e-07
-1.85362e-06
7.66772e-07
-1.9432e-06
6.87273e-07
-2.02122e-06
5.99093e-07
-2.08683e-06
5.03411e-07
-2.13931e-06
4.0143e-07
-2.17807e-06
2.94374e-07
-2.20266e-06
1.83488e-07
-2.21277e-06
7.00423e-08
-2.20823e-06
-4.46639e-08
-2.189e-06
-1.59303e-07
-2.1552e-06
-2.72515e-07
-2.1071e-06
-3.82907e-07
-2.04515e-06
-4.8906e-07
-1.96993e-06
-5.89528e-07
-1.88222e-06
-6.82852e-07
-1.78295e-06
-7.67573e-07
-1.67327e-06
-8.42248e-07
-1.55447e-06
-9.05474e-07
-1.42804e-06
-9.55915e-07
-1.29564e-06
-9.92334e-07
-1.1591e-06
-1.01363e-06
-1.02039e-06
-1.01889e-06
-8.81629e-07
-1.0074e-06
-7.4504e-07
-9.78736e-07
-6.12935e-07
-9.32781e-07
-4.87681e-07
-8.69781e-07
-3.71674e-07
-7.90393e-07
-2.67303e-07
-6.95722e-07
-1.76923e-07
-5.87363e-07
-1.02831e-07
-4.67425e-07
-4.7245e-08
-3.38534e-07
-1.22914e-08
-2.03819e-07
-6.7061e-08
-1.37447e-08
8.40143e-08
-5.23379e-08
2.49075e-07
-1.13106e-07
4.0685e-07
-1.93369e-07
5.54025e-07
-2.90458e-07
6.88007e-07
-4.01732e-07
8.0674e-07
-5.24595e-07
9.08689e-07
-6.56509e-07
9.92813e-07
-7.95016e-07
1.05851e-06
-9.37748e-07
1.10557e-06
-1.08245e-06
1.13412e-06
-1.22698e-06
1.14455e-06
-1.36933e-06
1.13749e-06
-1.50763e-06
1.11378e-06
-1.64015e-06
1.07436e-06
-1.76532e-06
1.02031e-06
-1.88168e-06
9.52803e-07
-1.98796e-06
8.73046e-07
-2.08299e-06
7.82306e-07
-2.16577e-06
6.81875e-07
-2.23543e-06
5.73072e-07
-2.29124e-06
4.57235e-07
-2.33259e-06
3.35723e-07
-2.35902e-06
2.09916e-07
-2.37019e-06
8.12216e-08
-2.36593e-06
-4.89239e-08
-2.34619e-06
-1.7905e-07
-2.31105e-06
-3.07649e-07
-2.26079e-06
-4.33174e-07
-2.1958e-06
-5.54044e-07
-2.11669e-06
-6.68644e-07
-2.0242e-06
-7.75338e-07
-1.91929e-06
-8.7248e-07
-1.8031e-06
-9.58438e-07
-1.67696e-06
-1.03161e-06
-1.54241e-06
-1.09047e-06
-1.40116e-06
-1.13358e-06
-1.25513e-06
-1.15966e-06
-1.10641e-06
-1.1676e-06
-9.57264e-07
-1.15655e-06
-8.10073e-07
-1.12593e-06
-6.6735e-07
-1.0755e-06
-5.31689e-07
-1.00544e-06
-4.05734e-07
-9.16348e-07
-2.92148e-07
-8.09308e-07
-1.93576e-07
-6.85935e-07
-1.12613e-07
-5.48388e-07
-5.17749e-08
-3.99372e-07
-1.3475e-08
-2.42119e-07
-8.05359e-08
-1.49048e-08
9.89191e-08
-5.67264e-08
2.90896e-07
-1.22508e-07
4.72632e-07
-2.09273e-07
6.4079e-07
-3.14059e-07
7.92794e-07
-4.33942e-07
9.26623e-07
-5.6606e-07
1.04081e-06
-7.07632e-07
1.13439e-06
-8.55985e-07
1.20687e-06
-1.00857e-06
1.25816e-06
-1.16296e-06
1.28851e-06
-1.31689e-06
1.29848e-06
-1.46824e-06
1.28885e-06
-1.61506e-06
1.2606e-06
-1.75556e-06
1.21485e-06
-1.8881e-06
1.15285e-06
-2.01121e-06
1.07591e-06
-2.12357e-06
9.8541e-07
-2.22402e-06
8.82756e-07
-2.31154e-06
7.69391e-07
-2.38524e-06
6.46774e-07
-2.44439e-06
5.1638e-07
-2.48837e-06
3.79702e-07
-2.5167e-06
2.38253e-07
-2.52905e-06
9.35733e-08
-2.52521e-06
-5.27657e-08
-2.50511e-06
-1.99154e-07
-2.46882e-06
-3.43939e-07
-2.41657e-06
-4.85422e-07
-2.34876e-06
-6.21858e-07
-2.26594e-06
-7.51461e-07
-2.16887e-06
-8.72413e-07
-2.05847e-06
-9.82874e-07
-1.9359e-06
-1.08101e-06
-1.8025e-06
-1.16501e-06
-1.65985e-06
-1.23313e-06
-1.50972e-06
-1.28371e-06
-1.35411e-06
-1.31527e-06
-1.19523e-06
-1.32648e-06
-1.03548e-06
-1.3163e-06
-8.77417e-07
-1.28399e-06
-7.2377e-07
-1.22915e-06
-5.77367e-07
-1.15185e-06
-4.41119e-07
-1.0526e-06
-3.1798e-07
-9.32447e-07
-2.10902e-07
-7.93013e-07
-1.22797e-07
-6.36493e-07
-5.64942e-08
-4.65675e-07
-1.47096e-08
-2.83903e-07
-9.52455e-08
-1.6101e-08
1.1502e-07
-6.12425e-08
3.36038e-07
-1.32171e-07
5.4356e-07
-2.25602e-07
7.34222e-07
-3.38267e-07
9.05458e-07
-4.66945e-07
1.0553e-06
-6.08498e-07
1.18236e-06
-7.59895e-07
1.28578e-06
-9.18236e-07
1.36521e-06
-1.08078e-06
1.4207e-06
-1.24494e-06
1.45267e-06
-1.40831e-06
1.46185e-06
-1.56867e-06
1.44921e-06
-1.72399e-06
1.41592e-06
-1.87241e-06
1.36327e-06
-2.01226e-06
1.2927e-06
-2.14204e-06
1.20569e-06
-2.26041e-06
1.10378e-06
-2.36621e-06
9.88552e-07
-2.4584e-06
8.61584e-07
-2.53611e-06
7.24483e-07
-2.59859e-06
5.7886e-07
-2.64523e-06
4.2634e-07
-2.67554e-06
2.68565e-07
-2.68917e-06
1.07202e-07
-2.68589e-06
-5.60477e-08
-2.6656e-06
-2.1944e-07
-2.62836e-06
-3.81181e-07
-2.57436e-06
-5.39423e-07
-2.50396e-06
-6.92261e-07
-2.41768e-06
-8.37737e-07
-2.31625e-06
-9.73844e-07
-2.20058e-06
-1.09854e-06
-2.0718e-06
-1.20979e-06
-1.93128e-06
-1.30554e-06
-1.7806e-06
-1.38381e-06
-1.6216e-06
-1.44272e-06
-1.45635e-06
-1.48051e-06
-1.28718e-06
-1.49566e-06
-1.11662e-06
-1.48686e-06
-9.47423e-07
-1.45318e-06
-7.8253e-07
-1.39404e-06
-6.25021e-07
-1.30935e-06
-4.78095e-07
-1.19952e-06
-3.45014e-07
-1.06553e-06
-2.29061e-07
-9.08966e-07
-1.33486e-07
-7.32068e-07
-6.14562e-08
-5.37704e-07
-1.60109e-08
-3.29349e-07
-1.11256e-07
-1.73426e-08
1.32363e-07
-6.59188e-08
3.84614e-07
-1.42159e-07
6.198e-07
-2.42452e-07
8.34515e-07
-3.63206e-07
1.02621e-06
-5.00889e-07
1.19298e-06
-6.52072e-07
1.33354e-06
-8.13461e-07
1.44717e-06
-9.81925e-07
1.53367e-06
-1.15452e-06
1.59329e-06
-1.32849e-06
1.62664e-06
-1.50131e-06
1.63467e-06
-1.67064e-06
1.61855e-06
-1.83438e-06
1.57966e-06
-1.99062e-06
1.51951e-06
-2.13765e-06
1.43974e-06
-2.27396e-06
1.342e-06
-2.39821e-06
1.22803e-06
-2.50923e-06
1.09957e-06
-2.60599e-06
9.58349e-07
-2.68763e-06
8.06123e-07
-2.75341e-06
6.44637e-07
-2.80271e-06
4.75642e-07
-2.83505e-06
3.00902e-07
-2.85005e-06
1.22207e-07
-2.84748e-06
-5.86204e-08
-2.82721e-06
-2.39711e-07
-2.78925e-06
-4.19138e-07
-2.73377e-06
-5.94909e-07
-2.66107e-06
-7.64963e-07
-2.57163e-06
-9.27169e-07
-2.46615e-06
-1.07933e-06
-2.34548e-06
-1.21921e-06
-2.21076e-06
-1.34451e-06
-2.06331e-06
-1.45298e-06
-1.90475e-06
-1.54237e-06
-1.73695e-06
-1.61051e-06
-1.56206e-06
-1.6554e-06
-1.38251e-06
-1.67521e-06
-1.20097e-06
-1.6684e-06
-1.02039e-06
-1.63376e-06
-8.43924e-07
-1.57051e-06
-6.74931e-07
-1.47835e-06
-5.16908e-07
-1.35754e-06
-3.73453e-07
-1.20898e-06
-2.48204e-07
-1.03422e-06
-1.44779e-07
-8.35494e-07
-6.67113e-08
-6.15771e-07
-1.73935e-08
-3.78666e-07
-1.2865e-07
-1.86385e-08
1.51001e-07
-7.07849e-08
4.3676e-07
-1.52528e-07
7.01543e-07
-2.59908e-07
9.41895e-07
-3.88985e-07
1.15529e-06
-5.359e-07
1.3399e-06
-6.96914e-07
1.49456e-06
-8.68457e-07
1.61871e-06
-1.04715e-06
1.71237e-06
-1.22986e-06
1.77599e-06
-1.41364e-06
1.81043e-06
-1.59585e-06
1.81687e-06
-1.77405e-06
1.79674e-06
-1.94605e-06
1.75167e-06
-2.10993e-06
1.68339e-06
-2.26393e-06
1.59374e-06
-2.40656e-06
1.48462e-06
-2.53646e-06
1.35794e-06
-2.6525e-06
1.2156e-06
-2.75366e-06
1.05951e-06
-2.8391e-06
8.9156e-07
-2.90808e-06
7.13623e-07
-2.96002e-06
5.27575e-07
-2.99441e-06
3.35295e-07
-3.01088e-06
1.38683e-07
-3.00918e-06
-6.0328e-08
-2.98914e-06
-2.59752e-07
-2.95074e-06
-4.57538e-07
-2.89408e-06
-6.51561e-07
-2.81944e-06
-8.39608e-07
-2.72723e-06
-1.01938e-06
-2.61807e-06
-1.18849e-06
-2.49279e-06
-1.34448e-06
-2.35246e-06
-1.48485e-06
-2.1984e-06
-1.60705e-06
-2.0322e-06
-1.70856e-06
-1.85578e-06
-1.78694e-06
-1.67133e-06
-1.83985e-06
-1.48137e-06
-1.86517e-06
-1.28873e-06
-1.86104e-06
-1.09654e-06
-1.82595e-06
-9.082e-07
-1.75885e-06
-7.27338e-07
-1.65921e-06
-5.5778e-07
-1.5271e-06
-4.03485e-07
-1.36328e-06
-2.68474e-07
-1.16923e-06
-1.56769e-07
-9.47199e-07
-7.2307e-08
-7.00234e-07
-1.88714e-08
-4.32102e-07
-1.47521e-07
-1.99965e-08
1.70998e-07
-7.58676e-08
4.92631e-07
-1.6333e-07
7.89005e-07
-2.78044e-07
1.05661e-06
-4.157e-07
1.29295e-06
-5.72081e-07
1.49628e-06
-7.43122e-07
1.6656e-06
-9.24961e-07
1.80055e-06
-1.11397e-06
1.90138e-06
-1.30679e-06
1.9688e-06
-1.50032e-06
2.00397e-06
-1.69178e-06
2.00833e-06
-1.87864e-06
1.98361e-06
-2.05867e-06
1.93169e-06
-2.22989e-06
1.8546e-06
-2.39055e-06
1.75441e-06
-2.53916e-06
1.63324e-06
-2.67441e-06
1.49319e-06
-2.79517e-06
1.33636e-06
-2.90047e-06
1.16481e-06
-2.98949e-06
9.80581e-07
-3.06153e-06
7.85668e-07
-3.11602e-06
5.8206e-07
-3.15246e-06
3.7174e-07
-3.17048e-06
1.56705e-07
-3.1698e-06
-6.10114e-08
-3.15023e-06
-2.79323e-07
-3.1117e-06
-4.9607e-07
-3.05426e-06
-7.09001e-07
-2.9781e-06
-9.15764e-07
-2.88358e-06
-1.1139e-06
-2.77124e-06
-1.30083e-06
-2.64184e-06
-1.47388e-06
-2.49638e-06
-1.63031e-06
-2.33613e-06
-1.7673e-06
-2.16267e-06
-1.88202e-06
-1.97789e-06
-1.97171e-06
-1.78406e-06
-2.03368e-06
-1.58378e-06
-2.06546e-06
-1.38e-06
-2.06482e-06
-1.17604e-06
-2.02991e-06
-9.75549e-07
-1.95934e-06
-7.82447e-07
-1.85231e-06
-6.00908e-07
-1.70864e-06
-4.35278e-07
-1.52891e-06
-2.90003e-07
-1.3145e-06
-1.69545e-07
-1.06766e-06
-7.8289e-08
-7.91489e-07
-2.04579e-08
-4.89933e-07
-1.67979e-07
-2.14241e-08
1.92422e-07
-8.11924e-08
5.524e-07
-1.74613e-07
8.82426e-07
-2.96931e-07
1.17893e-06
-4.43432e-07
1.43945e-06
-6.09516e-07
1.66236e-06
-7.90768e-07
1.84685e-06
-9.83014e-07
1.9928e-06
-1.18236e-06
2.10073e-06
-1.38523e-06
2.17167e-06
-1.58836e-06
2.2071e-06
-1.78883e-06
2.2088e-06
-1.98404e-06
2.17882e-06
-2.17172e-06
2.11937e-06
-2.34985e-06
2.03274e-06
-2.51673e-06
1.92129e-06
-2.67088e-06
1.78738e-06
-2.81102e-06
1.63333e-06
-2.93608e-06
1.46142e-06
-3.04515e-06
1.27388e-06
-3.13745e-06
1.07288e-06
-3.21233e-06
8.60543e-07
-3.26922e-06
6.38955e-07
-3.30767e-06
4.1019e-07
-3.3273e-06
1.7633e-07
-3.3278e-06
-6.05125e-08
-3.30895e-06
-2.98166e-07
-3.27065e-06
-5.34377e-07
-3.21286e-06
-7.66787e-07
-3.13571e-06
-9.92916e-07
-3.03945e-06
-1.21015e-06
-2.92455e-06
-1.41574e-06
-2.79165e-06
-1.60678e-06
-2.64167e-06
-1.78029e-06
-2.47581e-06
-1.93315e-06
-2.2956e-06
-2.06223e-06
-2.10293e-06
-2.16439e-06
-1.90004e-06
-2.23657e-06
-1.68963e-06
-2.27587e-06
-1.47477e-06
-2.27967e-06
-1.25897e-06
-2.24571e-06
-1.0461e-06
-2.17221e-06
-8.40422e-07
-2.05799e-06
-6.46461e-07
-1.9026e-06
-4.68989e-07
-1.70638e-06
-3.12914e-07
-1.47057e-06
-1.8319e-07
-1.19738e-06
-8.47016e-08
-8.89977e-07
-2.21661e-08
-5.52469e-07
-1.90145e-07
-2.29289e-08
2.15351e-07
-8.67845e-08
6.16255e-07
-1.86423e-07
9.82064e-07
-3.16633e-07
1.30914e-06
-4.72256e-07
1.59507e-06
-6.48274e-07
1.83838e-06
-8.39894e-07
2.03847e-06
-1.04261e-06
2.19551e-06
-1.25225e-06
2.31037e-06
-1.46501e-06
2.38443e-06
-1.67747e-06
2.41956e-06
-1.88659e-06
2.41792e-06
-2.0897e-06
2.38193e-06
-2.28449e-06
2.31416e-06
-2.46898e-06
2.21722e-06
-2.64146e-06
2.09378e-06
-2.80053e-06
1.94644e-06
-2.94497e-06
1.77777e-06
-3.07378e-06
1.59023e-06
-3.18612e-06
1.38622e-06
-3.28128e-06
1.16804e-06
-3.35866e-06
9.37923e-07
-3.41774e-06
6.98042e-07
-3.4581e-06
4.50547e-07
-3.47935e-06
1.97582e-07
-3.48119e-06
-5.86789e-08
-3.46335e-06
-3.16001e-07
-3.42567e-06
-5.72058e-07
-3.36805e-06
-8.24405e-07
-3.29052e-06
-1.07045e-06
-3.19322e-06
-1.30744e-06
-3.0765e-06
-1.53246e-06
-2.94089e-06
-1.74239e-06
-2.78719e-06
-1.93399e-06
-2.61649e-06
-2.10385e-06
-2.43024e-06
-2.24848e-06
-2.23027e-06
-2.36436e-06
-2.01883e-06
-2.448e-06
-1.79865e-06
-2.49605e-06
-1.57291e-06
-2.50541e-06
-1.3453e-06
-2.47333e-06
-1.11993e-06
-2.39757e-06
-9.0138e-07
-2.27654e-06
-6.94579e-07
-2.1094e-06
-5.04754e-07
-1.89621e-06
-3.37324e-07
-1.63801e-06
-1.97785e-07
-1.33692e-06
-9.15883e-08
-9.96174e-07
-2.40093e-08
-6.20048e-07
-2.14155e-07
-2.45189e-08
2.3987e-07
-9.26703e-08
6.84407e-07
-1.98808e-07
1.0882e-06
-3.37215e-07
1.44754e-06
-5.0224e-07
1.76009e-06
-6.8841e-07
2.02455e-06
-8.90518e-07
2.24058e-06
-1.10371e-06
2.4087e-06
-1.32351e-06
2.53017e-06
-1.5459e-06
2.60682e-06
-1.76729e-06
2.64094e-06
-1.98453e-06
2.63516e-06
-2.19491e-06
2.59231e-06
-2.3961e-06
2.51535e-06
-2.58616e-06
2.40728e-06
-2.76346e-06
2.27107e-06
-2.92664e-06
2.10962e-06
-3.07461e-06
1.92573e-06
-3.20644e-06
1.72207e-06
-3.3214e-06
1.50118e-06
-3.41887e-06
1.26551e-06
-3.49831e-06
1.01737e-06
-3.55928e-06
7.59012e-07
-3.60138e-06
4.92642e-07
-3.62424e-06
2.20445e-07
-3.62755e-06
-5.53705e-08
-3.61102e-06
-3.32532e-07
-3.57441e-06
-6.08667e-07
-3.51755e-06
-8.81266e-07
-3.44035e-06
-1.14765e-06
-3.34284e-06
-1.40495e-06
-3.22521e-06
-1.65009e-06
-3.08785e-06
-1.87975e-06
-2.93142e-06
-2.09043e-06
-2.75685e-06
-2.27841e-06
-2.56549e-06
-2.43985e-06
-2.35906e-06
-2.57079e-06
-2.13979e-06
-2.66728e-06
-1.9104e-06
-2.72545e-06
-1.67416e-06
-2.74165e-06
-1.4349e-06
-2.71258e-06
-1.19701e-06
-2.63546e-06
-9.65388e-07
-2.50817e-06
-7.45375e-07
-2.32942e-06
-5.42699e-07
-2.09888e-06
-3.63342e-07
-1.81736e-06
-2.13411e-07
-1.48685e-06
-9.89933e-08
-1.11059e-06
-2.60011e-08
-6.9304e-07
-2.40156e-07
-2.62032e-08
2.66073e-07
-9.88795e-08
7.57083e-07
-2.11821e-07
1.20114e-06
-3.58746e-07
1.59447e-06
-5.33456e-07
1.9348e-06
-7.29972e-07
2.22107e-06
-9.4264e-07
2.45325e-06
-1.16622e-06
2.63228e-06
-1.39594e-06
2.75989e-06
-1.62755e-06
2.83843e-06
-1.85729e-06
2.87069e-06
-2.08194e-06
2.85981e-06
-2.29875e-06
2.80912e-06
-2.50543e-06
2.72203e-06
-2.70008e-06
2.60193e-06
-2.88116e-06
2.45216e-06
-3.04745e-06
2.27591e-06
-3.19795e-06
2.07623e-06
-3.33189e-06
1.85601e-06
-3.44864e-06
1.61794e-06
-3.5477e-06
1.36457e-06
-3.62864e-06
1.0983e-06
-3.69107e-06
8.21447e-07
-3.73466e-06
5.3623e-07
-3.75907e-06
2.44853e-07
-3.76397e-06
-5.04675e-08
-3.74905e-06
-3.47451e-07
-3.71401e-06
-6.4371e-07
-3.65857e-06
-9.36702e-07
-3.58254e-06
-1.22369e-06
-3.48578e-06
-1.50171e-06
-3.36834e-06
-1.76754e-06
-3.23041e-06
-2.01768e-06
-3.07245e-06
-2.24838e-06
-2.89525e-06
-2.45561e-06
-2.69995e-06
-2.63514e-06
-2.48817e-06
-2.78257e-06
-2.26203e-06
-2.89342e-06
-2.02422e-06
-2.96325e-06
-1.77807e-06
-2.9878e-06
-1.52755e-06
-2.9631e-06
-1.27727e-06
-2.88574e-06
-1.03246e-06
-2.75298e-06
-7.98929e-07
-2.56295e-06
-5.82932e-07
-2.31488e-06
-3.91075e-07
-2.00922e-06
-2.3015e-07
-1.64778e-06
-1.06963e-07
-1.23378e-06
-2.81558e-08
-7.71847e-07
-2.68311e-07
-2.79927e-08
2.94066e-07
-1.05447e-07
8.34537e-07
-2.25525e-07
1.32122e-06
-3.81305e-07
1.75025e-06
-5.6598e-07
2.11948e-06
-7.73008e-07
2.42809e-06
-9.96244e-07
2.67648e-06
-1.23004e-06
2.86607e-06
-1.4693e-06
2.99915e-06
-1.70953e-06
3.07866e-06
-1.94686e-06
3.10802e-06
-2.17798e-06
3.09093e-06
-2.40015e-06
3.03129e-06
-2.61112e-06
2.933e-06
-2.8091e-06
2.79992e-06
-2.9927e-06
2.63575e-06
-3.16082e-06
2.44403e-06
-3.31264e-06
2.22806e-06
-3.44754e-06
1.99091e-06
-3.56506e-06
1.73545e-06
-3.66482e-06
1.46433e-06
-3.74652e-06
1.18e-06