/*--------------------------------*- C++ -*----------------------------------*\
  =========                 |
  \\      /  F ield         | OpenFOAM: The Open Source CFD Toolbox
   \\    /   O peration     | Website:  https://openfoam.org
    \\  /    A nd           | Version:  7
     \\/     M anipulation  |
\*---------------------------------------------------------------------------*/
FoamFile
{
    version     2.0;
    format      ascii;
    class       volVectorField;
    location    "0.0048";
    object      U;
}
// * * * * * * * * * * * * * * * * * * * * * * * * * * * * * * * * * * * * * //

dimensions      [0 1 -1 0 0 0 0];

internalField   nonuniform List<vector> 
2500
(
(0.290623 -0.152759 0)
(0.390308 -0.12846 0)
(0.565753 -0.0745795 0)
(0.682127 -0.0416996 0)
(0.74934 -0.0236978 0)
(0.791279 -0.0138582 0)
(0.818939 -0.00844857 0)
(0.837706 -0.00540241 0)
(0.850802 -0.0036144 0)
(0.860193 -0.00251512 0)
(0.867088 -0.00180986 0)
(0.872254 -0.00134039 0)
(0.876196 -0.00101762 0)
(0.879255 -0.000789049 0)
(0.881663 -0.000622514 0)
(0.883581 -0.000497726 0)
(0.885124 -0.000401603 0)
(0.88637 -0.000325548 0)
(0.88738 -0.000263803 0)
(0.888195 -0.000212424 0)
(0.888846 -0.000168626 0)
(0.889356 -0.000130369 0)
(0.889743 -9.60914e-05 0)
(0.890019 -6.45304e-05 0)
(0.89019 -3.46086e-05 0)
(0.890261 -5.34833e-06 0)
(0.890233 2.41935e-05 0)
(0.890105 5.50195e-05 0)
(0.889869 8.82184e-05 0)
(0.889517 0.000125072 0)
(0.889033 0.000167172 0)
(0.888397 0.000216582 0)
(0.88758 0.000276099 0)
(0.886543 0.000349643 0)
(0.885231 0.000442852 0)
(0.883568 0.000564023 0)
(0.881447 0.000725595 0)
(0.878714 0.000946574 0)
(0.875148 0.00125666 0)
(0.870425 0.00170374 0)
(0.864065 0.00236839 0)
(0.855331 0.00339374 0)
(0.843068 0.00504934 0)
(0.825367 0.00786858 0)
(0.799034 0.0129255 0)
(0.758612 0.0223273 0)
(0.69295 0.0400525 0)
(0.577109 0.0733312 0)
(0.39838 0.128739 0)
(0.294192 0.154088 0)
(0.0013275 -0.295636 0)
(0.0166948 -0.298404 0)
(0.14982 -0.211031 0)
(0.275938 -0.141539 0)
(0.374779 -0.0943592 0)
(0.450143 -0.0634748 0)
(0.506675 -0.043512 0)
(0.548712 -0.0304973 0)
(0.580027 -0.0218418 0)
(0.603524 -0.0159589 0)
(0.621324 -0.0118793 0)
(0.634952 -0.00899771 0)
(0.645507 -0.00692628 0)
(0.653773 -0.00541062 0)
(0.660317 -0.00428085 0)
(0.665545 -0.00342203 0)
(0.669751 -0.00275559 0)
(0.67315 -0.00222733 0)
(0.6759 -0.00179941 0)
(0.678117 -0.00144504 0)
(0.679886 -0.00114482 0)
(0.681273 -0.000884333 0)
(0.682323 -0.000652478 0)
(0.68307 -0.000440321 0)
(0.683536 -0.000240293 0)
(0.683732 -4.55876e-05 0)
(0.683663 0.000150323 0)
(0.683321 0.000354175 0)
(0.682693 0.000573369 0)
(0.681751 0.000816561 0)
(0.680457 0.00109444 0)
(0.678754 0.0014208 0)
(0.676567 0.00181417 0)
(0.673791 0.00230004 0)
(0.670281 0.0029144 0)
(0.665839 0.00370878 0)
(0.660187 0.00475795 0)
(0.652941 0.00617153 0)
(0.643559 0.00811212 0)
(0.631278 0.0108244 0)
(0.615019 0.0146845 0)
(0.593254 0.0202863 0)
(0.563822 0.0285972 0)
(0.523686 0.0412388 0)
(0.468762 0.0609428 0)
(0.394155 0.0920821 0)
(0.29447 0.140824 0)
(0.164886 0.213919 0)
(0.0253999 0.305755 0)
(0.00517263 0.303265 0)
(-0.0330373 -0.250748 0)
(-0.0633976 -0.341544 0)
(-0.0177966 -0.303945 0)
(0.0573884 -0.24072 0)
(0.136001 -0.181657 0)
(0.207084 -0.134491 0)
(0.266851 -0.0991968 0)
(0.315196 -0.0734361 0)
(0.353562 -0.0547667 0)
(0.383759 -0.0412294 0)
(0.407483 -0.0313715 0)
(0.426161 -0.0241439 0)
(0.440938 -0.0187973 0)
(0.452698 -0.0147983 0)
(0.462119 -0.0117674 0)
(0.469711 -0.00943517 0)
(0.475856 -0.00760995 0)
(0.480843 -0.00615521 0)
(0.484889 -0.0049731 0)
(0.488156 -0.00399276 0)
(0.490766 -0.003162 0)
(0.492811 -0.00244153 0)
(0.494359 -0.0018008 0)
(0.495458 -0.00121512 0)
(0.49614 -0.000663535 0)
(0.496424 -0.000127207 0)
(0.496312 0.000411922 0)
(0.495798 0.000972383 0)
(0.494859 0.00157451 0)
(0.493456 0.002242 0)
(0.491533 0.00300396 0)
(0.48901 0.00389777 0)
(0.485779 0.00497298 0)
(0.481691 0.00629714 0)
(0.476545 0.00796389 0)
(0.470069 0.0101048 0)
(0.461897 0.0129059 0)
(0.451529 0.0166319 0)
(0.438292 0.0216596 0)
(0.421286 0.0285267 0)
(0.399321 0.0380016 0)
(0.370863 0.0511822 0)
(0.334027 0.0696289 0)
(0.286682 0.0955104 0)
(0.226909 0.131643 0)
(0.154248 0.180943 0)
(0.0720797 0.244045 0)
(-0.00862988 0.313108 0)
(-0.0605283 0.355964 0)
(-0.0326545 0.262911 0)
(-0.0272442 -0.189672 0)
(-0.0687544 -0.326396 0)
(-0.0742003 -0.337868 0)
(-0.0463735 -0.298743 0)
(-0.00098601 -0.245637 0)
(0.0493231 -0.194717 0)
(0.0974402 -0.151599 0)
(0.140154 -0.117112 0)
(0.176516 -0.0903207 0)
(0.206735 -0.0698203 0)
(0.231512 -0.054246 0)
(0.251693 -0.042435 0)
(0.268092 -0.0334573 0)
(0.281423 -0.0265931 0)
(0.292281 -0.0212979 0)
(0.301142 -0.0171653 0)
(0.308386 -0.0138954 0)
(0.314307 -0.0112672 0)
(0.319136 -0.00911799 0)
(0.323049 -0.00732743 0)
(0.326182 -0.00580505 0)
(0.32864 -0.00448165 0)
(0.330499 -0.00330279 0)
(0.331815 -0.002224 0)
(0.332624 -0.00120733 0)
(0.332947 -0.000218495 0)
(0.33279 0.000775417 0)
(0.332141 0.00180816 0)
(0.330975 0.00291666 0)
(0.329246 0.00414371 0)
(0.326888 0.00554156 0)
(0.32381 0.00717656 0)
(0.319887 0.00913572 0)
(0.314953 0.0115358 0)
(0.308789 0.0145356 0)
(0.301105 0.0183537 0)
(0.291523 0.0232907 0)
(0.279552 0.02976 0)
(0.264566 0.0383253 0)
(0.245786 0.0497474 0)
(0.222283 0.0650334 0)
(0.193037 0.0854788 0)
(0.157091 0.112664 0)
(0.113912 0.148309 0)
(0.0640997 0.193769 0)
(0.0106498 0.248608 0)
(-0.0391206 0.307232 0)
(-0.071723 0.352343 0)
(-0.0697867 0.34406 0)
(-0.028126 0.201379 0)
(-0.0185504 -0.146193 0)
(-0.0574493 -0.290831 0)
(-0.0854863 -0.33266 0)
(-0.0889361 -0.318404 0)
(-0.0726964 -0.279569 0)
(-0.0455475 -0.234042 0)
(-0.0141725 -0.190607 0)
(0.0172148 -0.152806 0)
(0.0463089 -0.121497 0)
(0.0720966 -0.0963059 0)
(0.0943326 -0.076378 0)
(0.113183 -0.0607565 0)
(0.129002 -0.0485538 0)
(0.142197 -0.0390091 0)
(0.153167 -0.0315054 0)
(0.162267 -0.025557 0)
(0.169802 -0.0207897 0)
(0.176023 -0.016918 0)
(0.181133 -0.0137258 0)
(0.185297 -0.0110488 0)
(0.188643 -0.00876089 0)
(0.191271 -0.00676397 0)
(0.193258 -0.00497951 0)
(0.194657 -0.00334265 0)
(0.195507 -0.00179743 0)
(0.195826 -0.000292981 0)
(0.19562 0.00121968 0)
(0.194877 0.00279078 0)
(0.193569 0.00447509 0)
(0.191648 0.0063357 0)
(0.189049 0.00844884 0)
(0.185678 0.0109102 0)
(0.181412 0.0138434 0)
(0.176092 0.0174113 0)
(0.169514 0.0218311 0)
(0.161417 0.0273934 0)
(0.151477 0.0344865 0)
(0.139302 0.0436239 0)
(0.12443 0.0554729 0)
(0.106356 0.0708768 0)
(0.0845917 0.0908561 0)
(0.0587914 0.116558 0)
(0.028993 0.149093 0)
(-0.00397875 0.189141 0)
(-0.037907 0.236118 0)
(-0.0684164 0.286528 0)
(-0.0882244 0.331029 0)
(-0.0874841 0.350019 0)
(-0.0601208 0.308754 0)
(-0.0196213 0.156125 0)
(-0.0122258 -0.11549 0)
(-0.0450113 -0.251623 0)
(-0.0805047 -0.308558 0)
(-0.101197 -0.313441 0)
(-0.105394 -0.289768 0)
(-0.097481 -0.253594 0)
(-0.0821848 -0.214525 0)
(-0.0632954 -0.177641 0)
(-0.0434575 -0.145187 0)
(-0.0242972 -0.117803 0)
(-0.00668611 -0.0952878 0)
(0.00899883 -0.0770633 0)
(0.0226838 -0.0624362 0)
(0.0344625 -0.0507298 0)
(0.0445028 -0.0413457 0)
(0.0530006 -0.0337829 0)
(0.0601493 -0.027637 0)
(0.0661253 -0.0225875 0)
(0.0710822 -0.018384 0)
(0.0751494 -0.0148308 0)
(0.0784332 -0.0117743 0)
(0.0810184 -0.00909242 0)
(0.0829707 -0.00668566 0)
(0.0843383 -0.00447063 0)
(0.0851536 -0.00237454 0)
(0.0854338 -0.000330695 0)
(0.0851818 0.00172545 0)
(0.0843858 0.00386007 0)
(0.0830188 0.00614501 0)
(0.0810372 0.00866241 0)
(0.0783788 0.0115104 0)
(0.0749607 0.0148105 0)
(0.0706758 0.0187167 0)
(0.0653892 0.023428 0)
(0.0589357 0.0292034 0)
(0.0511175 0.0363798 0)
(0.0417069 0.0453919 0)
(0.0304561 0.0567905 0)
(0.0171226 0.0712521 0)
(0.0015189 0.0895683 0)
(-0.0163974 0.112592 0)
(-0.0363739 0.141102 0)
(-0.0576356 0.175529 0)
(-0.0785736 0.215436 0)
(-0.0964029 0.258631 0)
(-0.106947 0.299755 0)
(-0.104797 0.328298 0)
(-0.084731 0.326417 0)
(-0.0480138 0.268046 0)
(-0.0131382 0.123548 0)
(-0.00825282 -0.0929803 0)
(-0.0350296 -0.215086 0)
(-0.0707786 -0.277226 0)
(-0.099258 -0.29464 0)
(-0.115802 -0.283728 0)
(-0.121565 -0.25751 0)
(-0.119188 -0.224956 0)
(-0.11144 -0.191613 0)
(-0.10067 -0.160522 0)
(-0.0886094 -0.133074 0)
(-0.0764128 -0.109657 0)
(-0.0647842 -0.0901084 0)
(-0.0541044 -0.0739984 0)
(-0.04454 -0.0608092 0)
(-0.0361275 -0.0500272 0)
(-0.0288279 -0.0411898 0)
(-0.0225647 -0.033903 0)
(-0.0172467 -0.0278416 0)
(-0.0127822 -0.0227424 0)
(-0.00908612 -0.0183937 0)
(-0.0060839 -0.014625 0)
(-0.00371323 -0.0112976 0)
(-0.0019244 -0.00829638 0)
(-0.000680249 -0.00552319 0)
(4.41618e-05 -0.00289118 0)
(0.000261726 -0.000320061 0)
(-2.6614e-05 0.00226825 0)
(-0.000832053 0.00495384 0)
(-0.00217838 0.00782325 0)
(-0.00410267 0.0109745 0)
(-0.00665614 0.0145233 0)
(-0.00990516 0.0186104 0)
(-0.0139319 0.0234109 0)
(-0.018834 0.029146 0)
(-0.0247231 0.0360959 0)
(-0.0317189 0.0446137 0)
(-0.0399378 0.055138 0)
(-0.0494711 0.0681976 0)
(-0.0603471 0.084401 0)
(-0.0724703 0.104393 0)
(-0.0855282 0.128759 0)
(-0.0988617 0.157836 0)
(-0.111301 0.191389 0)
(-0.120994 0.228093 0)
(-0.125329 0.26477 0)
(-0.121098 0.295385 0)
(-0.105108 0.309969 0)
(-0.0757406 0.293969 0)
(-0.03781 0.229225 0)
(-0.00895474 0.0993331 0)
(-0.00581604 -0.0760167 0)
(-0.0275499 -0.183068 0)
(-0.0604974 -0.244639 0)
(-0.0911641 -0.269176 0)
(-0.114063 -0.267778 0)
(-0.128428 -0.25043 0)
(-0.135264 -0.224822 0)
(-0.13627 -0.196266 0)
(-0.133226 -0.16808 0)
(-0.127664 -0.142093 0)
(-0.120759 -0.119127 0)
(-0.113345 -0.0993764 0)
(-0.105975 -0.0826792 0)
(-0.0989878 -0.0687022 0)
(-0.0925733 -0.0570522 0)
(-0.0868209 -0.0473401 0)
(-0.0817568 -0.0392128 0)
(-0.07737 -0.0323652 0)
(-0.0736301 -0.0265405 0)
(-0.0704982 -0.0215256 0)
(-0.0679343 -0.0171443 0)
(-0.0659017 -0.0132496 0)
(-0.0643692 -0.00971674 0)
(-0.0633128 -0.00643771 0)
(-0.0627165 -0.00331541 0)
(-0.0625725 -0.00025916 0)
(-0.0628818 0.00281965 0)
(-0.0636541 0.00601192 0)
(-0.0649084 0.00941534 0)
(-0.0666726 0.0131395 0)
(-0.0689839 0.0173118 0)
(-0.0718877 0.0220845 0)
(-0.0754362 0.0276433 0)
(-0.0796854 0.0342165 0)
(-0.0846886 0.0420851 0)
(-0.0904863 0.0515911 0)
(-0.0970888 0.0631414 0)
(-0.104448 0.0771993 0)
(-0.112419 0.0942556 0)
(-0.120696 0.114763 0)
(-0.128743 0.139015 0)
(-0.135697 0.166936 0)
(-0.140288 0.197771 0)
(-0.140793 0.229638 0)
(-0.135137 0.258958 0)
(-0.121252 0.27985 0)
(-0.0977841 0.283715 0)
(-0.0653643 0.259407 0)
(-0.0299315 0.194757 0)
(-0.00634077 0.0809315 0)
(-0.00427075 -0.0629043 0)
(-0.0219429 -0.15573 0)
(-0.0510536 -0.213717 0)
(-0.0808892 -0.241542 0)
(-0.106191 -0.24664 0)
(-0.125253 -0.23645 0)
(-0.137999 -0.217241 0)
(-0.145247 -0.193743 0)
(-0.148179 -0.16919 0)
(-0.147995 -0.145581 0)
(-0.145734 -0.124 0)
(-0.142218 -0.104906 0)
(-0.138057 -0.0883627 0)
(-0.133678 -0.0742136 0)
(-0.129366 -0.0621943 0)
(-0.1253 -0.0520052 0)
(-0.121585 -0.0433521 0)
(-0.118274 -0.0359663 0)
(-0.115391 -0.0296123 0)
(-0.112939 -0.0240877 0)
(-0.11091 -0.01922 0)
(-0.109293 -0.0148614 0)
(-0.108074 -0.0108842 0)
(-0.107244 -0.00717503 0)
(-0.106795 -0.00363092 0)
(-0.106725 -0.000154509 0)
(-0.107036 0.00334985 0)
(-0.107736 0.00698017 0)
(-0.108838 0.0108412 0)
(-0.11036 0.0150492 0)
(-0.112322 0.0197372 0)
(-0.114749 0.0250612 0)
(-0.117663 0.0312068 0)
(-0.121077 0.0383964 0)
(-0.124991 0.0468949 0)
(-0.129377 0.0570124 0)
(-0.134156 0.0690999 0)
(-0.139175 0.0835303 0)
(-0.144166 0.100657 0)
(-0.148704 0.120735 0)
(-0.152149 0.143794 0)
(-0.153603 0.169438 0)
(-0.151889 0.196574 0)
(-0.145603 0.223068 0)
(-0.133304 0.245367 0)
(-0.113918 0.258201 0)
(-0.0873601 0.254559 0)
(-0.0554188 0.226204 0)
(-0.0238994 0.165123 0)
(-0.00465995 0.0666537 0)
(-0.00323953 -0.052556 0)
(-0.0176697 -0.132663 0)
(-0.0428413 -0.185715 0)
(-0.0703949 -0.214325 0)
(-0.0957146 -0.223496 0)
(-0.116764 -0.2187 0)
(-0.132849 -0.204913 0)
(-0.144153 -0.186156 0)
(-0.151351 -0.165383 0)
(-0.155291 -0.144574 0)
(-0.156806 -0.124929 0)
(-0.156622 -0.10707 0)
(-0.155327 -0.0912299 0)
(-0.153369 -0.0773998 0)
(-0.151076 -0.0654341 0)
(-0.148679 -0.0551237 0)
(-0.146333 -0.0462396 0)
(-0.14414 -0.0385586 0)
(-0.142164 -0.0318753 0)
(-0.140441 -0.0260062 0)
(-0.138992 -0.0207901 0)
(-0.137827 -0.0160849 0)
(-0.136951 -0.0117649 0)
(-0.136364 -0.00771633 0)
(-0.136067 -0.00383424 0)
(-0.136064 -1.83641e-05 0)
(-0.136356 0.00383032 0)
(-0.136951 0.00781321 0)
(-0.137853 0.012038 0)
(-0.139071 0.0166227 0)
(-0.140611 0.0217003 0)
(-0.142475 0.0274234 0)
(-0.144657 0.0339693 0)
(-0.147136 0.0415438 0)
(-0.149866 0.0503841 0)
(-0.152764 0.0607553 0)
(-0.155688 0.0729405 0)
(-0.158417 0.0872143 0)
(-0.160617 0.103795 0)
(-0.161814 0.122764 0)
(-0.161363 0.143943 0)
(-0.158439 0.166721 0)
(-0.152063 0.189838 0)
(-0.141205 0.211137 0)
(-0.124999 0.227346 0)
(-0.103112 0.233979 0)
(-0.0762185 0.22551 0)
(-0.0465457 0.195955 0)
(-0.0192311 0.140053 0)
(-0.00352645 0.0553825 0)
(-0.00251915 -0.0442619 0)
(-0.0143673 -0.113292 0)
(-0.035905 -0.160992 0)
(-0.0606311 -0.188857 0)
(-0.0846663 -0.200302 0)
(-0.10598 -0.199354 0)
(-0.123577 -0.189907 0)
(-0.137237 -0.175289 0)
(-0.147248 -0.15809 0)
(-0.154146 -0.140156 0)
(-0.15855 -0.122691 0)
(-0.161051 -0.106401 0)
(-0.162167 -0.0916275 0)
(-0.162324 -0.0784729 0)
(-0.161853 -0.0668905 0)
(-0.161003 -0.0567524 0)
(-0.159959 -0.0478931 0)
(-0.15885 -0.0401368 0)
(-0.157768 -0.0333122 0)
(-0.156774 -0.0272597 0)
(-0.15591 -0.0218339 0)
(-0.155204 -0.0169033 0)
(-0.154673 -0.0123482 0)
(-0.154329 -0.00805866 0)
(-0.15418 -0.00393107 0)
(-0.154231 0.00013425 0)
(-0.154487 0.00423629 0)
(-0.15495 0.00847632 0)
(-0.155621 0.0129612 0)
(-0.156497 0.0178064 0)
(-0.157572 0.0231402 0)
(-0.158828 0.0291061 0)
(-0.160237 0.0358666 0)
(-0.16175 0.0436047 0)
(-0.163288 0.0525225 0)
(-0.164728 0.0628353 0)
(-0.165894 0.0747557 0)
(-0.166527 0.0884655 0)
(-0.166276 0.104065 0)
(-0.164672 0.121499 0)
(-0.161128 0.140444 0)
(-0.154949 0.160173 0)
(-0.145389 0.179388 0)
(-0.131766 0.196057 0)
(-0.11367 0.207309 0)
(-0.0912605 0.209444 0)
(-0.0655946 0.198185 0)
(-0.0389282 0.169207 0)
(-0.0155843 0.119017 0)
(-0.00272876 0.0463719 0)
(-0.00199952 -0.03753 0)
(-0.0117973 -0.0970251 0)
(-0.0301628 -0.13945 0)
(-0.0520165 -0.165696 0)
(-0.074166 -0.178152 0)
(-0.0947447 -0.179805 0)
(-0.112658 -0.173688 0)
(-0.127454 -0.162517 0)
(-0.139149 -0.148501 0)
(-0.148034 -0.133296 0)
(-0.154531 -0.118043 0)
(-0.159092 -0.103467 0)
(-0.162146 -0.0899675 0)
(-0.164067 -0.0777227 0)
(-0.165165 -0.0667611 0)
(-0.165687 -0.0570219 0)
(-0.165822 -0.0483958 0)
(-0.165715 -0.0407518 0)
(-0.165473 -0.0339528 0)
(-0.165172 -0.0278647 0)
(-0.16487 -0.0223609 0)
(-0.164606 -0.017323 0)
(-0.164408 -0.0126406 0)
(-0.164295 -0.00821016 0)
(-0.164281 -0.00393265 0)
(-0.164374 0.000288257 0)
(-0.164578 0.00454857 0)
(-0.164893 0.00894645 0)
(-0.165314 0.0135846 0)
(-0.165831 0.0185729 0)
(-0.166425 0.0240306 0)
(-0.167065 0.0300887 0)
(-0.167705 0.0368911 0)
(-0.168276 0.0445942 0)
(-0.168677 0.0533632 0)
(-0.168767 0.0633636 0)
(-0.168348 0.0747433 0)
(-0.16716 0.0876034 0)
(-0.164862 0.101951 0)
(-0.16103 0.117633 0)
(-0.155164 0.134241 0)
(-0.14672 0.151009 0)
(-0.135173 0.166688 0)
(-0.120131 0.179451 0)
(-0.101512 0.186853 0)
(-0.0797647 0.185903 0)
(-0.0560858 0.173312 0)
(-0.0325583 0.145937 0)
(-0.0127267 0.101412 0)
(-0.00215083 0.039094 0)
(-0.00161754 -0.0319985 0)
(-0.00979491 -0.0833147 0)
(-0.0254847 -0.120775 0)
(-0.0446776 -0.144952 0)
(-0.064767 -0.157566 0)
(-0.0841075 -0.160864 0)
(-0.101619 -0.157215 0)
(-0.116736 -0.148818 0)
(-0.1293 -0.137529 0)
(-0.139418 -0.124791 0)
(-0.147352 -0.111648 0)
(-0.153427 -0.0987975 0)
(-0.157979 -0.0866615 0)
(-0.16132 -0.0754608 0)
(-0.163723 -0.0652766 0)
(-0.165417 -0.0560999 0)
(-0.166584 -0.0478679 0)
(-0.16737 -0.0404887 0)
(-0.167889 -0.0338569 0)
(-0.168224 -0.0278637 0)
(-0.168441 -0.0224014 0)
(-0.168588 -0.0173665 0)
(-0.168699 -0.0126597 0)
(-0.168799 -0.00818583 0)
(-0.168906 -0.00385263 0)
(-0.169028 0.000430573 0)
(-0.169169 0.00475455 0)
(-0.169328 0.00921191 0)
(-0.169494 0.0138988 0)
(-0.169652 0.0189168 0)
(-0.169773 0.0243741 0)
(-0.169817 0.0303867 0)
(-0.169725 0.0370781 0)
(-0.169417 0.0445775 0)
(-0.168781 0.0530146 0)
(-0.167668 0.0625093 0)
(-0.165882 0.0731542 0)
(-0.163174 0.0849863 0)
(-0.159237 0.0979449 0)
(-0.15371 0.111814 0)
(-0.146193 0.126152 0)
(-0.136285 0.140202 0)
(-0.123651 0.152821 0)
(-0.108119 0.162414 0)
(-0.0898215 0.166941 0)
(-0.0693583 0.164006 0)
(-0.0479202 0.151079 0)
(-0.0273405 0.125846 0)
(-0.0104928 0.0866545 0)
(-0.00172539 0.0331535 0)
(-0.00133396 -0.0273921 0)
(-0.00823821 -0.0716757 0)
(-0.0217233 -0.104574 0)
(-0.0385791 -0.126492 0)
(-0.056675 -0.13871 0)
(-0.0745909 -0.142947 0)
(-0.091318 -0.141068 0)
(-0.106252 -0.134848 0)
(-0.11913 -0.125831 0)
(-0.129933 -0.115255 0)
(-0.138797 -0.104045 0)
(-0.145939 -0.0928491 0)
(-0.151609 -0.0820822 0)
(-0.156059 -0.0719844 0)
(-0.159517 -0.0626694 0)
(-0.162184 -0.0541653 0)
(-0.164229 -0.0464453 0)
(-0.16579 -0.0394497 0)
(-0.166978 -0.0331012 0)
(-0.16788 -0.0273136 0)
(-0.168565 -0.0219981 0)
(-0.169083 -0.0170659 0)
(-0.169474 -0.0124298 0)
(-0.169765 -0.00800415 0)
(-0.169976 -0.00370499 0)
(-0.170116 0.000551151 0)
(-0.170189 0.0048481 0)
(-0.17019 0.0092712 0)
(-0.170108 0.0139084 0)
(-0.16992 0.0188513 0)
(-0.169594 0.0241957 0)
(-0.169081 0.0300417 0)
(-0.168318 0.0364924 0)
(-0.167218 0.0436514 0)
(-0.165667 0.0516161 0)
(-0.16352 0.0604678 0)
(-0.160592 0.0702546 0)
(-0.15666 0.0809659 0)
(-0.15146 0.0924965 0)
(-0.144699 0.1046 0)
(-0.136073 0.116829 0)
(-0.125308 0.128481 0)
(-0.112217 0.138535 0)
(-0.0967866 0.145631 0)
(-0.0792794 0.148085 0)
(-0.0603496 0.143984 0)
(-0.0411113 0.131373 0)
(-0.0231375 0.108514 0)
(-0.00875551 0.074211 0)
(-0.00140997 0.0282452 0)
(-0.00112227 -0.0234983 0)
(-0.00703159 -0.0616946 0)
(-0.0187301 -0.0904441 0)
(-0.033602 -0.110065 0)
(-0.0498924 -0.121541 0)
(-0.0663858 -0.126213 0)
(-0.0821667 -0.125557 0)
(-0.0966355 -0.121013 0)
(-0.109475 -0.113855 0)
(-0.120583 -0.105132 0)
(-0.130002 -0.0956502 0)
(-0.137863 -0.0859914 0)
(-0.144344 -0.0765468 0)
(-0.149637 -0.0675581 0)
(-0.153927 -0.0591555 0)
(-0.157385 -0.0513913 0)
(-0.16016 -0.0442648 0)
(-0.162377 -0.037742 0)
(-0.164142 -0.0317686 0)
(-0.165538 -0.0262785 0)
(-0.166633 -0.0211998 0)
(-0.16748 -0.0164582 0)
(-0.168119 -0.0119782 0)
(-0.168577 -0.00768478 0)
(-0.168876 -0.00350266 0)
(-0.169026 0.000643292 0)
(-0.169029 0.00482889 0)
(-0.168879 0.00913111 0)
(-0.168562 0.0136287 0)
(-0.168053 0.0184025 0)
(-0.167316 0.0235354 0)
(-0.1663 0.0291121 0)
(-0.164939 0.0352164 0)
(-0.163146 0.0419288 0)
(-0.160812 0.0493192 0)
(-0.1578 0.0574378 0)
(-0.153947 0.0662992 0)
(-0.149058 0.0758604 0)
(-0.142917 0.0859912 0)
(-0.135296 0.0964358 0)
(-0.125976 0.10677 0)
(-0.114787 0.116356 0)
(-0.101654 0.124308 0)
(-0.0866677 0.12948 0)
(-0.0701607 0.130493 0)
(-0.052787 0.12582 0)
(-0.035554 0.113931 0)
(-0.0197969 0.0934987 0)
(-0.00741205 0.0636203 0)
(-0.00117548 0.0241307 0)
(-0.000963608 -0.0201525 0)
(-0.00609856 -0.0530282 0)
(-0.0163664 -0.0780157 0)
(-0.0295926 -0.095384 0)
(-0.0443137 -0.105913 0)
(-0.0594886 -0.110664 0)
(-0.0742982 -0.110818 0)
(-0.0881705 -0.107542 0)
(-0.100766 -0.101887 0)
(-0.11193 -0.0947329 0)
(-0.12164 -0.0867703 0)
(-0.12996 -0.0785117 0)
(-0.137009 -0.0703133 0)
(-0.142926 -0.0624059 0)
(-0.147859 -0.0549246 0)
(-0.151947 -0.0479353 0)
(-0.155318 -0.0414552 0)
(-0.158082 -0.0354695 0)
(-0.160333 -0.0299419 0)
(-0.162152 -0.0248234 0)
(-0.163602 -0.0200571 0)
(-0.164734 -0.0155816 0)
(-0.165587 -0.0113333 0)
(-0.16619 -0.00724702 0)
(-0.166563 -0.00325693 0)
(-0.166716 0.000703423 0)
(-0.16665 0.00470124 0)
(-0.16636 0.00880461 0)
(-0.165828 0.0130826 0)
(-0.165028 0.0176052 0)
(-0.163924 0.022443 0)
(-0.162464 0.0276656 0)
(-0.160584 0.03334 0)
(-0.1582 0.0395266 0)
(-0.155211 0.0462733 0)
(-0.151495 0.0536062 0)
(-0.146909 0.0615164 0)
(-0.141293 0.0699414 0)
(-0.134475 0.0787406 0)
(-0.126284 0.0876657 0)
(-0.116574 0.0963274 0)
(-0.105254 0.104164 0)
(-0.0923288 0.110419 0)
(-0.077955 0.114137 0)
(-0.0624959 0.114192 0)
(-0.0465751 0.109361 0)
(-0.0310884 0.0984374 0)
(-0.0171681 0.0803836 0)
(-0.00637787 0.0544953 0)
(-0.00100082 0.0206243 0)
(-0.000844189 -0.017228 0)
(-0.00537802 -0.0453977 0)
(-0.01451 -0.0669641 0)
(-0.0263931 -0.0821658 0)
(-0.0397872 -0.0916335 0)
(-0.0537949 -0.0962188 0)
(-0.0676862 -0.0968739 0)
(-0.0809266 -0.0945458 0)
(-0.0931736 -0.0900975 0)
(-0.104242 -0.0842615 0)
(-0.114064 -0.0776235 0)
(-0.122656 -0.0706256 0)
(-0.130089 -0.0635839 0)
(-0.136459 -0.0567106 0)
(-0.141879 -0.0501373 0)
(-0.14646 -0.0439352 0)
(-0.150308 -0.0381327 0)
(-0.153519 -0.0327282 0)
(-0.156175 -0.0276995 0)
(-0.158349 -0.0230112 0)
(-0.160099 -0.0186193 0)
(-0.161474 -0.0144741 0)
(-0.16251 -0.0105224 0)
(-0.163236 -0.006709 0)
(-0.16367 -0.00297724 0)
(-0.163822 0.000730566 0)
(-0.163693 0.00447288 0)
(-0.163275 0.00830879 0)
(-0.162551 0.0122978 0)
(-0.161496 0.0164993 0)
(-0.160071 0.0209721 0)
(-0.158229 0.0257727 0)
(-0.155907 0.0309532 0)
(-0.153029 0.0365578 0)
(-0.149504 0.0426168 0)
(-0.145226 0.0491393 0)
(-0.140075 0.0561012 0)
(-0.133921 0.0634304 0)
(-0.126632 0.070987 0)
(-0.118088 0.0785403 0)
(-0.108198 0.0857439 0)
(-0.096931 0.0921132 0)
(-0.0843477 0.0970101 0)
(-0.0706419 0.0996449 0)
(-0.0561832 0.099102 0)
(-0.0415519 0.094398 0)
(-0.0275402 0.0845724 0)
(-0.0151141 0.0688016 0)
(-0.00558409 0.0465197 0)
(-0.000870407 0.0175828 0)
(-0.000753911 -0.0146275 0)
(-0.00482197 -0.0385794 0)
(-0.013058 -0.0570156 0)
(-0.0238584 -0.0701508 0)
(-0.0361529 -0.0785012 0)
(-0.0491595 -0.0827559 0)
(-0.0622258 -0.0836842 0)
(-0.0748568 -0.0820548 0)
(-0.0867173 -0.0785731 0)
(-0.0976064 -0.0738442 0)
(-0.107428 -0.0683577 0)
(-0.116163 -0.0624892 0)
(-0.123843 -0.0565128 0)
(-0.130534 -0.0506176 0)
(-0.136316 -0.0449256 0)
(-0.141277 -0.039508 0)
(-0.145502 -0.0343985 0)
(-0.149072 -0.0296041 0)
(-0.152059 -0.025113 0)
(-0.154526 -0.0209005 0)
(-0.156527 -0.016933 0)
(-0.158106 -0.0131711 0)
(-0.159296 -0.00957123 0)
(-0.160125 -0.00608728 0)
(-0.160609 -0.00267134 0)
(-0.160757 0.000725703 0)
(-0.16057 0.00415374 0)
(-0.160039 0.00766305 0)
(-0.159148 0.0113039 0)
(-0.157872 0.0151259 0)
(-0.156174 0.0191771 0)
(-0.154009 0.0235025 0)
(-0.15132 0.0281418 0)
(-0.148038 0.033126 0)
(-0.144084 0.0384728 0)
(-0.139366 0.0441796 0)
(-0.133787 0.0502139 0)
(-0.127244 0.0565016 0)
(-0.119641 0.0629109 0)
(-0.110897 0.069235 0)
(-0.100966 0.0751735 0)
(-0.0898581 0.0803154 0)
(-0.0776714 0.0841298 0)
(-0.0646192 0.0859693 0)
(-0.051063 0.0850916 0)
(-0.0375375 0.0807059 0)
(-0.0247446 0.0720431 0)
(-0.0135175 0.0584422 0)
(-0.00497582 0.0394403 0)
(-0.00077268 0.0148961 0)
(-0.00068544 -0.0122762 0)
(-0.00439348 -0.0323954 0)
(-0.0119273 -0.0479433 0)
(-0.0218643 -0.0591115 0)
(-0.0332629 -0.066324 0)
(-0.0454319 -0.0701381 0)
(-0.0577836 -0.0711743 0)
(-0.0698604 -0.0700534 0)
(-0.0813394 -0.0673478 0)
(-0.0920136 -0.0635516 0)
(-0.101768 -0.0590685 0)
(-0.110559 -0.054212 0)
(-0.118391 -0.0492143 0)
(-0.125303 -0.0442393 0)
(-0.131349 -0.0393959 0)
(-0.136598 -0.0347507 0)
(-0.141116 -0.0303388 0)
(-0.144971 -0.0261723 0)
(-0.148224 -0.0222462 0)
(-0.15093 -0.018544 0)
(-0.153136 -0.0150408 0)
(-0.154883 -0.0117056 0)
(-0.156201 -0.0085035 0)
(-0.157114 -0.00539669 0)
(-0.157638 -0.00234545 0)
(-0.157781 0.000691186 0)
(-0.157542 0.00375492 0)
(-0.156915 0.0068877 0)
(-0.155882 0.0101311 0)
(-0.154419 0.0135258 0)
(-0.152493 0.0171103 0)
(-0.150061 0.0209196 0)
(-0.147072 0.0249835 0)
(-0.143466 0.029323 0)
(-0.139173 0.0339467 0)
(-0.134118 0.0388449 0)
(-0.128222 0.0439821 0)
(-0.121407 0.0492873 0)
(-0.113604 0.0546421 0)
(-0.104764 0.0598666 0)
(-0.0948749 0.0647063 0)
(-0.0839774 0.0688193 0)
(-0.0721911 0.0717701 0)
(-0.0597375 0.0730331 0)
(-0.0469641 0.0720107 0)
(-0.0343621 0.0680691 0)
(-0.0225584 0.0605925 0)
(-0.0122823 0.0490484 0)
(-0.00451052 0.0330561 0)
(-0.000699218 0.0124803 0)
(-0.000633521 -0.0101163 0)
(-0.00406475 -0.026704 0)
(-0.0110529 -0.0395606 0)
(-0.0203099 -0.0488532 0)
(-0.0309908 -0.0549266 0)
(-0.0424747 -0.0582282 0)
(-0.0542265 -0.0592533 0)
(-0.0658212 -0.0584977 0)
(-0.07695 -0.0564193 0)
(-0.0874049 -0.0534154 0)
(-0.0970603 -0.0498126 0)
(-0.105854 -0.045867 0)
(-0.113772 -0.0417706 0)
(-0.12083 -0.037661 0)
(-0.127066 -0.0336318 0)
(-0.132528 -0.0297424 0)
(-0.137271 -0.0260262 0)
(-0.141348 -0.0224971 0)
(-0.144811 -0.0191549 0)
(-0.147707 -0.0159889 0)
(-0.150079 -0.0129809 0)
(-0.151961 -0.0101073 0)
(-0.153382 -0.00734055 0)
(-0.154363 -0.00465034 0)
(-0.154919 -0.00200453 0)
(-0.155057 0.000630255 0)
(-0.154775 0.00328804 0)
(-0.154066 0.00600296 0)
(-0.152915 0.00880867 0)
(-0.151299 0.0117376 0)
(-0.149186 0.0148201 0)
(-0.146538 0.0180829 0)
(-0.14331 0.0215476 0)
(-0.139448 0.025228 0)
(-0.134894 0.0291267 0)
(-0.129585 0.0332305 0)
(-0.123459 0.0375047 0)
(-0.116458 0.0418853 0)
(-0.108535 0.0462699 0)
(-0.0996672 0.0505072 0)
(-0.0898643 0.054387 0)
(-0.0791894 0.057631 0)
(-0.0677751 0.0598883 0)
(-0.0558442 0.0607389 0)
(-0.0437278 0.0597076 0)
(-0.0318791 0.0562913 0)
(-0.0208644 0.0500009 0)
(-0.0113334 0.0404103 0)
(-0.00415605 0.0272083 0)
(-0.000643972 0.010271 0)
(-0.000594444 -0.00810235 0)
(-0.00381531 -0.0213916 0)
(-0.0103855 -0.031714 0)
(-0.0191162 -0.0392097 0)
(-0.0292342 -0.0441533 0)
(-0.0401721 -0.046896 0)
(-0.0514362 -0.0478254 0)
(-0.0626285 -0.0473285 0)
(-0.0734537 -0.0457632 0)
(-0.0837056 -0.043441 0)
(-0.0932523 -0.0406192 0)
(-0.102021 -0.0375007 0)
(-0.10998 -0.0342392 0)
(-0.117133 -0.0309461 0)
(-0.123502 -0.0276985 0)
(-0.12912 -0.0245468 0)
(-0.13403 -0.0215204 0)
(-0.138276 -0.0186332 0)
(-0.141901 -0.0158874 0)
(-0.144946 -0.0132764 0)
(-0.147447 -0.0107875 0)
(-0.149437 -0.00840284 0)
(-0.150939 -0.00610145 0)
(-0.151974 -0.00385975 0)
(-0.152555 -0.00165249 0)
(-0.152686 0.000546674 0)
(-0.152369 0.00276464 0)
(-0.151594 0.00502833 0)
(-0.150348 0.00736414 0)
(-0.148608 0.00979726 0)
(-0.146347 0.0123508 0)
(-0.14353 0.0150447 0)
(-0.140115 0.0178943 0)
(-0.136056 0.020908 0)
(-0.131305 0.0240851 0)
(-0.125809 0.0274117 0)
(-0.11952 0.0308565 0)
(-0.112396 0.034365 0)
(-0.104408 0.0378524 0)
(-0.0955499 0.0411962 0)
(-0.0858503 0.0442284 0)
(-0.0753855 0.0467291 0)
(-0.064296 0.048423 0)
(-0.0528021 0.0489825 0)
(-0.0412192 0.0480378 0)
(-0.029969 0.0451982 0)
(-0.0195705 0.0400825 0)
(-0.0106132 0.0323561 0)
(-0.00388875 0.0217708 0)
(-0.000602681 0.00821811 0)
(-0.000565625 -0.00619807 0)
(-0.00363036 -0.0163656 0)
(-0.00988863 -0.0242755 0)
(-0.0182235 -0.0300391 0)
(-0.0279138 -0.0338656 0)
(-0.0384317 -0.0360205 0)
(-0.0493149 -0.0367948 0)
(-0.0601869 -0.0364788 0)
(-0.0707636 -0.0353412 0)
(-0.0808421 -0.0336161 0)
(-0.0902872 -0.0314975 0)
(-0.0990177 -0.0291391 0)
(-0.106994 -0.0266582 0)
(-0.114205 -0.0241404 0)
(-0.120663 -0.021646 0)
(-0.126392 -0.0192148 0)
(-0.131424 -0.016871 0)
(-0.135794 -0.0146268 0)
(-0.139541 -0.0124853 0)
(-0.142698 -0.0104429 0)
(-0.145298 -0.00849061 0)
(-0.147369 -0.00661588 0)
(-0.148933 -0.0048032 0)
(-0.150009 -0.00303503 0)
(-0.150608 -0.00129243 0)
(-0.150735 0.000444472 0)
(-0.150389 0.00219595 0)
(-0.149563 0.00398228 0)
(-0.148243 0.00582324 0)
(-0.146408 0.00773753 0)
(-0.144033 0.00974211 0)
(-0.141086 0.0118512 0)
(-0.137531 0.0140753 0)
(-0.133326 0.0164193 0)
(-0.12843 0.0188808 0)
(-0.122801 0.0214473 0)
(-0.116401 0.0240928 0)
(-0.109198 0.0267739 0)
(-0.101178 0.0294242 0)
(-0.0923484 0.0319496 0)
(-0.0827492 0.0342221 0)
(-0.0724661 0.0360755 0)
(-0.0616434 0.0373029 0)
(-0.0504975 0.0376591 0)
(-0.0393306 0.0368676 0)
(-0.0285395 0.0346362 0)
(-0.0186074 0.0306793 0)
(-0.0100798 0.0247445 0)
(-0.00369159 0.0166416 0)
(-0.000572402 0.00628203 0)
(-0.000545305 -0.00437353 0)
(-0.00349953 -0.0115486 0)
(-0.00953617 -0.0171366 0)
(-0.0175881 -0.021218 0)
(-0.0269706 -0.0239405 0)
(-0.0371836 -0.0254897 0)
(-0.047787 -0.0260683 0)
(-0.0584204 -0.0258784 0)
(-0.0688085 -0.0251069 0)
(-0.0787515 -0.0239167 0)
(-0.0881125 -0.0224432 0)
(-0.0968056 -0.0207941 0)
(-0.104784 -0.0190517 0)
(-0.11203 -0.0172768 0)
(-0.118546 -0.0155122 0)
(-0.12435 -0.0137868 0)
(-0.129466 -0.0121186 0)
(-0.133924 -0.0105169 0)
(-0.137756 -0.00898461 0)
(-0.140993 -0.0075199 0)
(-0.143663 -0.00611705 0)
(-0.145793 -0.0047676 0)
(-0.147402 -0.00346096 0)
(-0.148508 -0.00218507 0)
(-0.14912 -0.000926762 0)
(-0.149243 0.000327785 0)
(-0.148876 0.00159271 0)
(-0.148012 0.00288211 0)
(-0.146638 0.00420971 0)
(-0.144734 0.00558838 0)
(-0.142277 0.00702965 0)
(-0.139237 0.00854302 0)
(-0.135581 0.0101352 0)
(-0.131274 0.0118088 0)
(-0.126278 0.0135613 0)
(-0.120558 0.0153827 0)
(-0.114083 0.0172539 0)
(-0.106833 0.0191431 0)
(-0.0988008 0.0210031 0)
(-0.0900033 0.0227672 0)
(-0.0804889 0.0243455 0)
(-0.0703488 0.0256218 0)
(-0.059729 0.0264525 0)
(-0.0488424 0.0266669 0)
(-0.0379805 0.0260735 0)
(-0.027522 0.0244694 0)
(-0.0179245 0.0216558 0)
(-0.00970283 0.0174563 0)
(-0.00355269 0.0117363 0)
(-0.000551143 0.00443051 0)
(-0.000532333 -0.00260317 0)
(-0.00341585 -0.00687406 0)
(-0.00931031 -0.0102024 0)
(-0.0171801 -0.0126372 0)
(-0.0263634 -0.0142662 0)
(-0.0363778 -0.0151992 0)
(-0.0467978 -0.0155561 0)
(-0.0572731 -0.0154559 0)
(-0.0675347 -0.015009 0)
(-0.077385 -0.0143113 0)
(-0.0866866 -0.0134429 0)
(-0.0953506 -0.0124674 0)
(-0.103326 -0.0114338 0)
(-0.110591 -0.0103783 0)
(-0.117142 -0.00932645 0)
(-0.122991 -0.00829585 0)
(-0.12816 -0.0072974 0)
(-0.132673 -0.00633701 0)
(-0.13656 -0.00541674 0)
(-0.139848 -0.00453571 0)
(-0.142565 -0.00369076 0)
(-0.144732 -0.00287704 0)
(-0.146371 -0.00208841 0)
(-0.147495 -0.00131779 0)
(-0.148115 -0.000557443 0)
(-0.148236 0.000200773 0)
(-0.147855 0.000965194 0)
(-0.146966 0.00174413 0)
(-0.145557 0.00254565 0)
(-0.143608 0.00337726 0)
(-0.141097 0.00424565 0)
(-0.137997 0.00515627 0)
(-0.134277 0.00611281 0)
(-0.129904 0.00711655 0)
(-0.124845 0.00816555 0)
(-0.119069 0.00925357 0)
(-0.11255 0.0103687 0)
(-0.105273 0.0114919 0)
(-0.0972383 0.0125947 0)
(-0.0884672 0.0136374 0)
(-0.0790134 0.0145667 0)
(-0.0689714 0.0153141 0)