/*--------------------------------*- C++ -*----------------------------------*\
  =========                 |
  \\      /  F ield         | OpenFOAM: The Open Source CFD Toolbox
   \\    /   O peration     | Website:  https://openfoam.org
    \\  /    A nd           | Version:  7
     \\/     M anipulation  |
\*---------------------------------------------------------------------------*/
FoamFile
{
    version     2.0;
    format      ascii;
    class       volScalarField;
    location    "0.046";
    object      p;
}
// * * * * * * * * * * * * * * * * * * * * * * * * * * * * * * * * * * * * * //

dimensions      [0 2 -2 0 0 0 0];

internalField   nonuniform List<scalar> 
2500
(
-1.08032e-05
-0.000526342
-0.00208007
-0.00435715
-0.00701424
-0.00975329
-0.0123545
-0.0146446
-0.0164933
-0.0178065
-0.0185187
-0.0185885
-0.0179942
-0.0167306
-0.0148065
-0.0122426
-0.00906971
-0.00532737
-0.0010626
0.00367105
0.00881445
0.0143036
0.0200703
0.026043
0.0321471
0.0383061
0.0444419
0.0504756
0.0563284
0.0619228
0.0671831
0.072037
0.0764165
0.0802595
0.0835113
0.0861259
0.0880682
0.0893155
0.0898596
0.0897092
0.0888922
0.0874586
0.0854841
0.0830748
0.0803722
0.0775591
0.0748651
0.072581
0.0710643
0.0705992
0.000487546
-1.99909e-05
-0.001279
-0.00308429
-0.00516892
-0.00732599
-0.00938058
-0.0111882
-0.0126349
-0.0136342
-0.0141232
-0.01406
-0.0134199
-0.0121939
-0.0103855
-0.0080099
-0.00509189
-0.00166475
0.00223088
0.00654797
0.011234
0.0162316
0.0214793
0.0269126
0.0324639
0.0380637
0.0436413
0.0491253
0.0544448
0.0595299
0.064313
0.0687298
0.0727203
0.0762304
0.0792132
0.08163
0.0834525
0.0846641
0.0852616
0.0852574
0.084681
0.0835817
0.0820307
0.0801238
0.0779842
0.0757642
0.0736456
0.0718363
0.0705951
0.0701344
0.00203541
0.00123386
-3.28353e-05
-0.00166206
-0.00348659
-0.00534507
-0.00709666
-0.00862247
-0.00982534
-0.010629
-0.0109767
-0.0108288
-0.0101616
-0.00896446
-0.00723904
-0.00499732
-0.00226048
0.00094225
0.00457458
0.00859408
0.0129529
0.0175987
0.0224751
0.0275224
0.0326783
0.0378789
0.0430587
0.0481518
0.0530928
0.0578176
0.062264
0.0663734
0.0700913
0.0733688
0.0761638
0.0784425
0.0801804
0.0813641
0.0819927
0.0820792
0.0816521
0.0807573
0.0794593
0.0778424
0.0760121
0.0740945
0.0722359
0.070599
0.0693505
0.0686229
0.00433245
0.00304951
0.00157283
-8.34685e-05
-0.00184471
-0.00358396
-0.00518771
-0.00656034
-0.00762159
-0.00830693
-0.00856727
-0.00836801
-0.00768772
-0.0065169
-0.00485667
-0.00271764
-0.000118918
0.00291292
0.00634466
0.0101372
0.0142465
0.0186238
0.0232168
0.0279699
0.0328249
0.037722
0.0426001
0.0473976
0.0520534
0.0565074
0.0607018
0.0645818
0.068097
0.0712019
0.0738578
0.0760335
0.0777067
0.0788653
0.0795085
0.0796485
0.0793108
0.0785363
0.0773812
0.0759181
0.0742354
0.0724362
0.0706398
0.0689763
0.0675275
0.0663225
0.00706873
0.00518423
0.0033935
0.00160019
-0.000206983
-0.00192845
-0.00347379
-0.0047688
-0.00574961
-0.00636366
-0.00657046
-0.00634128
-0.0056584
-0.00451432
-0.00291081
-0.000858153
0.00162576
0.00451614
0.00778209
0.0113872
0.0152904
0.0194461
0.0238053
0.0283159
0.0329234
0.0375715
0.0422025
0.0467586
0.0511821
0.0554164
0.0594071
0.0631024
0.0664547
0.0694213
0.0719654
0.0740576
0.0756766
0.0768104
0.0774574
0.0776276
0.0773427
0.0766375
0.0755598
0.0741703
0.0725415
0.0707557
0.0689098
0.0671083
0.0653512
0.0635575
0.00998883
0.00745767
0.00528779
0.00327942
0.00134391
-0.000439756
-0.00199982
-0.00328082
-0.00423388
-0.00481793
-0.00500119
-0.00476124
-0.00408477
-0.00296706
-0.00141141
0.000571465
0.00296404
0.00574261
0.00887783
0.0123353
0.0160763
0.0200577
0.0242334
0.028554
0.032968
0.0374218
0.041861
0.0462303
0.050475
0.0545411
0.0583765
0.0619319
0.0651614
0.0680241
0.0704843
0.0725132
0.0740895
0.0752004
0.0758427
0.0760231
0.0757592
0.0750792
0.0740228
0.0726395
0.0709874
0.0691313
0.0671505
0.0651303
0.0629965
0.0605672
0.0129064
0.00971805
0.00713112
0.00485334
0.00272831
0.000820541
-0.000812648
-0.00213161
-0.00310069
-0.00368936
-0.00387419
-0.00363918
-0.00297576
-0.00188252
-0.000364875
0.00156537
0.0038904
0.00658689
0.00962646
0.0129761
0.0165986
0.020453
0.0244951
0.0286779
0.032952
0.0372663
0.0415685
0.0458055
0.0499245
0.0538736
0.0576022
0.0610623
0.0642094
0.0670029
0.0694077
0.0713945
0.0729413
0.0740337
0.0746658
0.074841
0.0745719
0.0738808
0.0727991
0.0713667
0.0696294
0.0676374
0.065457
0.0631606
0.0606092
0.0575315
0.0156777
0.0118385
0.00881517
0.00623283
0.00387587
0.00179922
4.94245e-05
-0.00134695
-0.00236564
-0.00298552
-0.00319091
-0.00297207
-0.00232524
-0.00125262
0.000237893
0.00213289
0.00441376
0.00705702
0.0100347
0.0133145
0.0168603
0.0206328
0.024589
0.0286838
0.0328693
0.0370961
0.0413136
0.0454702
0.0495146
0.0533956
0.057064
0.0604722
0.0635759
0.0663346
0.0687124
0.0706794
0.0722115
0.0732923
0.073913
0.0740729
0.0737798
0.0730499
0.0719075
0.0703838
0.0685145
0.066338
0.0639116
0.0613003
0.0583085
0.0545853
0.0181919
0.013714
0.0102455
0.00733626
0.00471846
0.00244121
0.000543261
-0.000959521
-0.00205251
-0.00272286
-0.00296199
-0.00276603
-0.00213599
-0.00107777
0.000397977
0.00227591
0.00453621
0.00715478
0.0101035
0.0133505
0.0168604
0.0205943
0.0245108
0.0285654
0.0327118
0.0369015
0.0410849
0.0452115
0.0492304
0.0530914
0.056745
0.0601438
0.0632431
0.0660015
0.068382
0.0703527
0.0718875
0.0729672
0.0735794
0.0737194
0.0733901
0.072602
0.0713729
0.0697266
0.0676905
0.0652941
0.0625888
0.059636
0.0561909
0.0518304
0.0203614
0.015257
0.0113391
0.00808865
0.00519031
0.00269023
0.000621759
-0.00100796
-0.00219246
-0.00292615
-0.00320681
-0.00303609
-0.0024196
-0.00136695
0.000108287
0.0019886
0.00425265
0.00687539
0.00982821
0.0130791
0.0165928
0.0203311
0.0242528
0.0283144
0.0324699
0.0366718
0.0408708
0.0450168
0.0490591
0.0529472
0.0566315
0.0600639
0.0631983
0.0659921
0.0684063
0.0704067
0.0719646
0.0730571
0.0736684
0.0737893
0.073418
0.0725595
0.0712257
0.0694344
0.0672063
0.0645639
0.0615556
0.0582422
0.0543348
0.0493439
0.0221144
0.0163916
0.0120219
0.00842042
0.00522802
0.00248985
0.000235624
-0.00153469
-0.00282157
-0.00362576
-0.00395083
-0.00380355
-0.00319394
-0.00213528
-0.000644163
0.00125957
0.00355279
0.00620921
0.00919939
0.0124909
0.0160482
0.0198331
0.0238047
0.0279197
0.0321323
0.0363951
0.0406589
0.0448735
0.0489878
0.0529507
0.0567116
0.0602211
0.0634315
0.0662981
0.0687794
0.0708384
0.0724429
0.0735665
0.074189
0.074297
0.0738837
0.0729491
0.0714998
0.0695485
0.0671103
0.0642028
0.0608733
0.0571845
0.0528065
0.0471867
0.0233884
0.0170501
0.0122255
0.00826572
0.00476978
0.00178328
-0.000666437
-0.00258541
-0.00398014
-0.00485701
-0.00522485
-0.00509526
-0.00448247
-0.00340341
-0.00187772
7.22686e-05
0.00242147
0.00514209
0.00820359
0.0115727
0.0152136
0.0190876
0.0231536
0.0273683
0.0316856
0.036058
0.040436
0.0447685
0.0490039
0.0530899
0.0569745
0.0606062
0.0639353
0.0669144
0.069499
0.0716485
0.0733271
0.0745041
0.075155
0.0752615
0.0748119
0.0738016
0.0722322
0.0701118
0.0674514
0.0642646
0.0605994
0.056522
0.0516637
0.0454097
0.0241261
0.0171694
0.011885
0.00756066
0.00375425
0.000512753
-0.00213792
-0.00420906
-0.00571253
-0.00665982
-0.00706469
-0.00694327
-0.00631393
-0.0051972
-0.00361582
-0.00159473
0.000838866
0.00365546
0.00682318
0.0103078
0.0140726
0.0180784
0.0222837
0.0266445
0.0311146
0.0356457
0.0401874
0.0446881
0.0490947
0.0533533
0.0574099
0.0612109
0.0647039
0.067838
0.0705653
0.0728413
0.0746256
0.0758831
0.0765844
0.0767061
0.0762317
0.0751516
0.073463
0.0711699
0.0682796
0.0648031
0.0607898
0.0563111
0.0509596
0.0440586
0.0242719
0.0166882
0.0109368
0.00624169
0.00211937
-0.00138117
-0.00423494
-0.00645795
-0.00806706
-0.00907854
-0.00951084
-0.00938452
-0.00872199
-0.00754741
-0.00588668
-0.00376747
-0.00121926
0.00172658
0.00503666
0.00867551
0.0126054
0.0167865
0.0211764
0.0257305
0.0304018
0.0351412
0.0398975
0.0446174
0.0492465
0.0537289
0.0580083
0.0620282
0.0657328
0.0690679
0.0719812
0.0744237
0.0763501
0.0777202
0.0784992
0.0786584
0.0781761
0.0770376
0.0752359
0.072771
0.0696471
0.065873
0.0615007
0.0566073
0.0507464
0.0431776
0.0237693
0.0155444
0.00931652
0.00424397
-0.000198781
-0.00396047
-0.0070167
-0.00938803
-0.0110961
-0.0121619
-0.0126083
-0.0124605
-0.0117449
-0.0104893
-0.00872295
-0.00647627
-0.0037812
-0.00067113
0.00281886
0.00665191
0.0107892
0.0151898
0.0198104
0.0246057
0.0295277
0.0345262
0.0395486
0.0445404
0.0494451
0.0542045
0.0587597
0.0630509
0.0670187
0.0706045
0.0737514
0.0764051
0.0785152
0.0800354
0.0809251
0.0811498
0.0806822
0.0795024
0.0775986
0.0749672
0.0716094
0.0675321
0.0627903
0.0574678
0.0510775
0.0428126
0.022559
0.0136737
0.00695727
0.00150001
-0.00326712
-0.00729046
-0.0105461
-0.0130593
-0.0148563
-0.0159628
-0.0164067
-0.0162173
-0.0154254
-0.0140626
-0.0121614
-0.00975542
-0.00687905
-0.00356787
0.000141216
0.00420984
0.0085979
0.0132633
0.018162
0.0232473
0.0284704
0.0337798
0.0391217
0.0444396
0.0496749
0.0547671
0.059654
0.0642723
0.0685584
0.0724489
0.0758818
0.078797
0.0811377
0.0828515
0.0838911
0.0842156
0.0837914
0.0825929
0.0806034
0.0778152
0.0742265
0.0698424
0.0647211
0.0589537
0.0520102
0.0430134
0.0205773
0.0110077
0.00378832
-0.0020616
-0.00715661
-0.0114407
-0.0148905
-0.017536
-0.0194086
-0.020539
-0.0209598
-0.0207052
-0.0198102
-0.0183107
-0.0162426
-0.0136428
-0.0105483
-0.00699704
-0.00302785
0.00131929
0.00600293
0.0109798
0.0162048
0.0216302
0.027206
0.0328797
0.0385957
0.0442958
0.0499192
0.0554024
0.0606801
0.065685
0.0703488
0.0746029
0.0783795
0.081612
0.0842369
0.0861943
0.0874297
0.087895
0.0875494
0.0863611
0.0843076
0.081377
0.0775639
0.0728714
0.0673613
0.0611319
0.0536077
0.0438363
0.0177545
0.0074726
-0.000266343
-0.00651748
-0.0119434
-0.0164857
-0.0201221
-0.0228875
-0.0248191
-0.0259526
-0.026326
-0.0259786
-0.0249502
-0.0232809
-0.0210106
-0.0181794
-0.0148273
-0.0109947
-0.00672246
-0.00205213
0.00297338
0.0083097
0.0139105
0.0197273
0.0257089
0.0318015
0.037948
0.0440884
0.0501595
0.0560951
0.061826
0.0672808
0.0723864
0.0770683
0.0812522
0.0848644
0.0878336
0.090092
0.0915766
0.092231
0.0920067
0.0908641
0.0887747
0.0857212
0.0816941
0.0766941
0.0707864
0.0640771
0.0559412
0.0453458
0.0140139
0.00298764
-0.00528927
-0.0119506
-0.0177096
-0.0225061
-0.0263188
-0.0291886
-0.0311585
-0.0322704
-0.0325679
-0.032096
-0.0308997
-0.0290237
-0.0265122
-0.0234089
-0.0197569
-0.0155992
-0.0109786
-0.00593859
-0.000523282
0.00522179
0.0112494
0.01751
0.0239516
0.0305192
0.0371544
0.0437953
0.0503763
0.0568283
0.0630785
0.069051
0.0746672
0.0798467
0.0845078
0.088569
0.0919505
0.0945751
0.0963706
0.0972711
0.0972186
0.0961653
0.0940749
0.0909238
0.0866977
0.081394
0.0750813
0.0678733
0.0590917
0.0476165
0.00927049
-0.00253577
-0.0113708
-0.0184515
-0.024545
-0.0295894
-0.0335652
-0.03652
-0.0385035
-0.0395642
-0.0397525
-0.0391196
-0.0377162
-0.0355923
-0.0327966
-0.0293769
-0.0253794
-0.02085
-0.0158336
-0.0103752
-0.00452052
0.00168411
0.00819059
0.0149488
0.0219059
0.029006
0.0361895
0.0433928
0.0505483
0.0575839
0.0644231
0.0709853
0.0771864
0.0829392
0.0881543
0.0927416
0.0966115
0.0996767
0.101854
0.103067
0.103246
0.102334
0.100286
0.0970697
0.0926652
0.0870655
0.080342
0.0726165
0.0631524
0.0507354
0.00342998
-0.00919551
-0.0186104
-0.0261194
-0.0325473
-0.0378309
-0.041953
-0.0449688
-0.046936
-0.0479108
-0.0479511
-0.0471151
-0.0454601
-0.043042
-0.0399146
-0.0361298
-0.0317378
-0.0267869
-0.0213244
-0.0153972
-0.00905167
-0.00233526
0.00470349
0.012014
0.0195432
0.0272344
0.0350272
0.0428569
0.0506537
0.0583428
0.0658442
0.0730726
0.0799381
0.0863463
0.0921995
0.0973982
0.101842
0.105432
0.108073
0.109675
0.110157
0.109449
0.107495
0.104254
0.099698
0.0938146
0.0866775
0.078416
0.06823
0.0548035
-0.00361234
-0.0171
-0.0271178
-0.0350639
-0.0418242
-0.0473347
-0.0515818
-0.0546294
-0.0565444
-0.057392
-0.0572387
-0.0561511
-0.0541938
-0.0514293
-0.0479172
-0.0437142
-0.0388743
-0.0334488
-0.0274873
-0.0210381
-0.0141487
-0.00686689
0.000758534
0.00867706
0.0168355
0.0251773
0.0336417
0.0421628
0.0506697
0.059085
0.0673253
0.0753008
0.0829155
0.0900678
0.096651
0.102555
0.107668
0.111878
0.115075
0.117155
0.118023
0.117593
0.115797
0.112582
0.107911
0.101762
0.0942119
0.0853971
0.074448
0.0599381
-0.0119729
-0.0263698
-0.0370152
-0.0454062
-0.0524942
-0.0582154
-0.0625605
-0.0656038
-0.0674233
-0.0680945
-0.0676942
-0.0662984
-0.0639806
-0.0608108
-0.0568549
-0.052175
-0.0468292
-0.0408721
-0.0343555
-0.0273288
-0.0198405
-0.0119385
-0.00367111
0.00491162
0.0137572
0.0228095
0.0320081
0.041287
0.050574
0.0597903
0.0688492
0.0776568
0.086111
0.0941026
0.101516
0.108229
0.114118
0.119054
0.122914
0.125575
0.126926
0.126863
0.125301
0.122175
0.117432
0.111045
0.103087
0.0937035
0.0819485
0.0662754
-0.0217812
-0.0371394
-0.0484384
-0.0572809
-0.0646887
-0.0705988
-0.0750078
-0.0780025
-0.0796737
-0.0801096
-0.0793992
-0.0776295
-0.0748841
-0.0712417
-0.0667757
-0.0615538
-0.0556389
-0.0490887
-0.0419573
-0.0342953
-0.0261513
-0.017573
-0.0086078
0.000695541
0.0102859
0.0201086
0.0301041
0.0402072
0.0503456
0.0604391
0.070399
0.0801272
0.0895162
0.0984491
0.1068
0.114436
0.121218
0.127002
0.131645
0.135007
0.136952
0.137361
0.136127
0.133165
0.12841
0.121819
0.113466
0.103501
0.0908955
0.073973
-0.033182
-0.0495592
-0.0615397
-0.0708387
-0.0785539
-0.084624
-0.0890537
-0.0919448
-0.0934035
-0.0935334
-0.0924377
-0.0902168
-0.0869661
-0.0827743
-0.077723
-0.0718868
-0.0653332
-0.0581237
-0.0503141
-0.041956
-0.033098
-0.0237864
-0.0140673
-0.00398726
0.00640494
0.0170569
0.0279114
0.0389047
0.0499655
0.0610135
0.0719583
0.0826989
0.0931225
0.103105
0.11251
0.121193
0.128998
0.135765
0.141328
0.145526
0.148199
0.149203
0.148406
0.145704
0.141009
0.134262
0.125534
0.114979
0.101478
0.0832132
-0.0463372
-0.0637989
-0.0764908
-0.0862489
-0.0942529
-0.100445
-0.104841
-0.10756
-0.108727
-0.108466
-0.106895
-0.104132
-0.100285
-0.095455
-0.0897334
-0.0832018
-0.0759332
-0.0679924
-0.0594372
-0.0503196
-0.0406874
-0.0305852
-0.0200563
-0.0091444
0.00210529
0.0136439
0.0254176
0.0373656
0.0494188
0.061498
0.0735126
0.0853594
0.0969213
0.108067
0.118651
0.128515
0.137487
0.145386
0.152026
0.157216
0.160771
0.162515
0.16229
0.159961
0.155417
0.148578
0.139505
0.128358
0.113916
0.0942074
-0.0614293
-0.0800504
-0.0934864
-0.103703
-0.11197
-0.118234
-0.122526
-0.124987
-0.125767
-0.125009
-0.122855
-0.119441
-0.114892
-0.109322
-0.102833
-0.0955156
-0.0874475
-0.0786975
-0.0693249
-0.0593816
-0.0489137
-0.0379632
-0.0265697
-0.0147724
-0.00261196
0.00986791
0.0226181
0.0355826
0.0486958
0.0618815
0.0750502
0.088098
0.100905
0.113333
0.125228
0.136418
0.146714
0.155913
0.163803
0.170165
0.17478
0.177437
0.177943
0.176129
0.17185
0.165
0.155627
0.143893
0.128464
0.1072
-0.0786649
-0.0985333
-0.112749
-0.123419
-0.131912
-0.138183
-0.142282
-0.144378
-0.144649
-0.143268
-0.140401
-0.136208
-0.130831
-0.124403
-0.117036
-0.10883
-0.0998688
-0.090225
-0.0799587
-0.0691208
-0.0577548
-0.0458987
-0.0335874
-0.020854
-0.00773294
0.0057388
0.0195187
0.0335571
0.0477942
0.0621584
0.0765634
0.0909063
0.105066
0.118899
0.132244
0.144915
0.156706
0.167391
0.176728
0.184467
0.190349
0.194123
0.195552
0.194423
0.190552
0.183796
0.174186
0.161878
0.145416
0.122477
-0.0982808
-0.119501
-0.134537
-0.145649
-0.154316
-0.160509
-0.164299
-0.165894
-0.165508
-0.163347
-0.15961
-0.154482
-0.148132
-0.140707
-0.132335
-0.123126
-0.113169
-0.10254
-0.0912992
-0.0794955
-0.0671686
-0.0543512
-0.0410714
-0.0273551
-0.0132283
0.0012804
0.0161374
0.0313013
0.0467204
0.06233
0.0780495
0.0937793
0.109399
0.124763
0.139702
0.154019
0.167489
0.179864
0.190871
0.200219
0.207609
0.212739
0.21532
0.215087
0.211801
0.205275
0.195512
0.182658
0.165119
0.140368
-0.120551
-0.14325
-0.159151
-0.170684
-0.179455
-0.185455
-0.188789
-0.189711
-0.18848
-0.185346
-0.180548
-0.174302
-0.166804
-0.158223
-0.148703
-0.138361
-0.127296
-0.115583
-0.103282
-0.0904397
-0.0770896
-0.0632574
-0.0489626
-0.0342217
-0.0190504
-0.00346668
0.0125069
0.0288401
0.0454916
0.0624064
0.0795122
0.0967159
0.1139
0.130921
0.147603
0.163739
0.179088
0.193376
0.206299
0.217523
0.2267
0.233469
0.237478
0.238395
0.235918
0.229796
0.219993
0.20664
0.187979
0.161263
-0.145797
-0.170131
-0.186946
-0.198867
-0.207645
-0.213301
-0.215987
-0.216015
-0.213705
-0.209362
-0.203269
-0.195685
-0.186836
-0.176915
-0.16608
-0.154463
-0.142164
-0.129262
-0.115814
-0.101859
-0.0874254
-0.0725287
-0.057178
-0.0413779
-0.0251316
-0.00844376
0.00867651
0.0262125
0.0441367
0.0624068
0.0809621
0.0997194
0.118569
0.137369
0.155944
0.17408
0.191519
0.207965
0.223077
0.23648
0.247765
0.256507
0.262277
0.264659
0.263269
0.257774
0.248085
0.234299
0.214477
0.185619
-0.174402
-0.200564
-0.21835
-0.230606
-0.239255
-0.244365
-0.24615
-0.245004
-0.241321
-0.235474
-0.227806
-0.218621
-0.208182
-0.196707
-0.184374
-0.171321
-0.157655
-0.143453
-0.128766
-0.113627
-0.0980532
-0.0820483
-0.0656082
-0.0487234
-0.0313818
-0.0135722
0.00471279
0.023473
0.0426975
0.0623604
0.0824165
0.102797
0.123402
0.144101
0.164718
0.185038
0.204791
0.223658
0.241265
0.257187
0.270955
0.282063
0.289993
0.294227
0.294274
0.289696
0.280324
0.266208
0.245188
0.213982
-0.20683
-0.235065
-0.253883
-0.266388
-0.274719
-0.279011
-0.279567
-0.276885
-0.271459
-0.263746
-0.254161
-0.243062
-0.230754
-0.217483
-0.203444
-0.188782
-0.173607
-0.157989
-0.141974
-0.125582
-0.108818
-0.0916691
-0.0741166
-0.056133
-0.0376884
-0.0187529
0.00070029
0.0206909
0.041228
0.062306
0.0838994
0.105958
0.128399
0.151105
0.17391
0.196599
0.218899
0.240469
0.260905
0.279733
0.296413
0.310354
0.320926
0.327491
0.329417
0.32613
0.317351
0.303049
0.280804
0.247004
-0.243653
-0.274272
-0.294184
-0.306809
-0.314556
-0.31766
-0.316551
-0.311869
-0.304233
-0.294208
-0.282293
-0.268913
-0.254415
-0.239074
-0.223099
-0.206642
-0.189808
-0.17266
-0.155231
-0.137525
-0.119529
-0.101213
-0.0825382
-0.0634564
-0.0439167
-0.0238675
-0.00325976
0.0179495
0.0397933
0.06229
0.0854387
0.109213
0.133554
0.158362
0.183491
0.208733
0.233816
0.25839
0.282021
0.304186
0.324275
0.341597
0.355397
0.364884
0.369253
0.367748
0.359931
0.345656
0.322172
0.285481
-0.285594
-0.318993
-0.340057
-0.352599
-0.359382
-0.360795
-0.357445
-0.350162
-0.339729
-0.326843
-0.312106
-0.296013
-0.278957
-0.261241
-0.243085
-0.224638
-0.205996
-0.187208
-0.168287
-0.149217
-0.129963
-0.110473
-0.0906824
-0.0705206
-0.0499123
-0.028781
-0.00705221
0.0153435
0.0384663
0.0623634
0.0870631
0.112569
0.138851
0.16584
0.193413
0.221383
0.249489
0.277379
0.304599
0.330584
0.354651
0.376003
0.393739
0.406885
0.414418
0.415339
0.408993
0.395049
0.370338
0.33039
-0.333581
-0.370269
-0.392524
-0.404666
-0.409939
-0.408966
-0.40261
-0.39195
-0.377983
-0.361568
-0.343422
-0.324118
-0.304094
-0.283673
-0.263076
-0.242443
-0.22185
-0.201324
-0.180849
-0.160385
-0.139867
-0.119214
-0.0983359
-0.0771339
-0.0555054
-0.033346
-0.0105528
0.0129732
0.0373232
0.0625769
0.0887971
0.116023
0.144264
0.173485
0.203602
0.234459
0.265819
0.297344
0.328574
0.358912
0.387607
0.413752
0.436283
0.45401
0.465634
0.469841
0.465664
0.452499
0.426617
0.382955
-0.388831
-0.429468
-0.452904
-0.464147
-0.467118
-0.462798
-0.452411
-0.437375
-0.418953
-0.398199
-0.375958
-0.352879
-0.329438
-0.305963
-0.282665
-0.259659
-0.23699
-0.214648
-0.192585
-0.170721
-0.148957
-0.127181
-0.105269
-0.0830928
-0.0605179
-0.0374099
-0.0136349
0.0109385
0.0364358
0.0629733
0.090653
0.119557
0.149739
0.181213
0.213942
0.24782
0.282651
0.318129
0.353808
0.389077
0.423135
0.454966
0.483334
0.506795
0.523714
0.532358
0.53133
0.519609
0.492693
0.444738
-0.452989
-0.498422
-0.522923
-0.532474
-0.531983
-0.522976
-0.50719
-0.486492
-0.462476
-0.436416
-0.40929
-0.381814
-0.354479
-0.327601
-0.301357
-0.275817
-0.250977
-0.226778
-0.203123
-0.179889
-0.156934
-0.134107
-0.111247
-0.0881911
-0.0647728
-0.0408246
-0.0161791
0.00932936
0.0358633
0.0635789
0.0926224
0.123124
0.155192
0.188898
0.224269
0.261263
0.29975
0.339481
0.380054
0.420874
0.461114
0.499668
0.535129
0.565771
0.589548
0.604193
0.607703
0.598428
0.570764
0.517782
-0.528328
-0.579644
-0.604874
-0.61146
-0.605788
-0.590219
-0.567211
-0.539209
-0.508204
-0.475705
-0.442811
-0.410273
-0.378567
-0.34796
-0.318561
-0.290372
-0.263317
-0.237269
-0.212071
-0.187541
-0.163491
-0.139723
-0.116037
-0.0922316
-0.0681056
-0.0434571
-0.0180843
0.00821472
0.0356409
0.064393
0.0946651
0.126642
0.160492
0.19636
0.234347
0.274501
0.31678
0.361027
0.406922
0.453932
0.501247
0.547714
0.591772
0.631401
0.664081
0.68686
0.696904
0.691616
0.663765
0.604828
-0.618099
-0.676649
-0.701837
-0.703391
-0.689977
-0.66522
-0.632565
-0.595187
-0.555517
-0.51529
-0.475676
-0.437409
-0.400889
-0.366283
-0.333593
-0.302714
-0.273471
-0.245652
-0.219019
-0.193327
-0.168329
-0.143777
-0.119428
-0.0950405
-0.0703779
-0.0452031
-0.0192795
0.00763094
0.0357685
0.065376
0.0966978
0.129977
0.165452
0.203346
0.243858
0.287139
0.333273
0.382232
0.43383
0.487657
0.54299
0.598699
0.653128
0.703988
0.748235
0.782076
0.801556
0.802669
0.775706
0.70968
-0.727127
-0.794478
-0.817979
-0.811116
-0.786123
-0.748505
-0.703019
-0.653696
-0.603408
-0.554042
-0.506748
-0.462138
-0.420454
-0.38169
-0.345683
-0.312179
-0.280875
-0.251448
-0.223568
-0.196914
-0.171173
-0.146046
-0.121242
-0.0964822
-0.0714916
-0.0460001
-0.0197374
0.00756956
0.0361995
0.0664389
0.0985834
0.132938
0.169814
0.209526
0.25238
0.298661
0.348606
0.402364
0.459948
0.521151
0.585441
0.651825
0.718668
0.783501
0.842768
0.8917
0.924877
0.936228
0.91222
0.837845
-0.862898
-0.940513
-0.95895
-0.938086
-0.895764
-0.840195
-0.777763
-0.713404
-0.650321
-0.590379
-0.534529
-0.483112
-0.436085
-0.393176
-0.353988
-0.31807
-0.284958
-0.254195
-0.225348
-0.198009
-0.171798
-0.146359
-0.121358
-0.096475
-0.0714031
-0.0458403
-0.0194854
0.00796686
0.0368308
0.0674343
0.100123
0.135263
0.173243
0.214474
0.259383
0.308408
0.361972
0.420455
0.484139
0.553127
0.627216
0.705723
0.78724
0.869315
0.948012
1.01755
1.07071
1.09849
1.0814
0.997678
-1.03764
-1.12578
-1.13235
-1.08826
-1.02004
-0.939567
-0.855031
-0.772093
-0.693963
-0.622149
-0.557115
-0.498708
-0.446435
-0.399645
-0.357631
-0.319696
-0.285181
-0.253481
-0.224048
-0.196384
-0.170043
-0.144613
-0.119718
-0.0950047
-0.0701348
-0.0447802
-0.0186137
0.00869733
0.037498
0.0681529
0.101053
0.136624
0.175328
0.217676
0.264223
0.315575
0.372372
0.435273
0.504911
0.581819
0.666301
0.758233
0.85675
0.959792
1.06341
1.16102
1.24341
1.29765
1.29517
1.20259
-1.27255
-1.36697
-1.34803
-1.26556
-1.15888
-1.04431
-0.931527
-0.826271
-0.731077
-0.646523
-0.57216
-0.50704
-0.450025
-0.399958
-0.355749
-0.316412
-0.281074
-0.248973
-0.219443
-0.191902
-0.165836
-0.14079
-0.11635
-0.0921342
-0.0677823
-0.042946
-0.0172787
0.00957228
0.0379758
0.0683258
0.101052
0.136629
0.17559
0.218537
0.266156
0.319224
0.378619
0.44532
0.520384
0.604905
0.699901
0.806124
0.92372
1.05165
1.1867
1.32219
1.44726
1.54423
1.5713
1.47554
-1.60661
-1.6894
-1.61756
-1.47218
-1.30927
-1.14913
-1.00148
-0.870608
-0.757153
-0.659883
-0.576861
-0.505992
-0.44529
-0.392981
-0.347538
-0.307666
-0.272274
-0.240449
-0.211418
-0.184524
-0.159203
-0.134962
-0.111363
-0.0880045
-0.0645139
-0.0405312
-0.0156999
0.0103441
0.0379837
0.0676317
0.0997443
0.134835
0.173493
0.2164
0.264357
0.318306
0.379362
0.448841
0.528279
0.619439
0.724264
0.844756
0.982674
1.13893
1.3124
1.49794
1.68463
1.85041
1.93648
1.85817
-2.1118
-2.13075
-1.95233
-1.7055
-1.46249
-1.24391
-1.05562
-0.897499
-0.766324
-0.657885
-0.568095
-0.493373
-0.430726
-0.37771
-0.332353
-0.293068
-0.258574
-0.227831
-0.199987
-0.174333
-0.150274
-0.127296
-0.10495
-0.0828306
-0.0605628
-0.0377866
-0.0141459
0.0107233
0.0372061
0.0657213
0.0967368
0.130787
0.168496
0.210602
0.257992
0.311745
0.373185
0.443943
0.526036
0.621951
0.734717
0.867931
1.02566
1.212
1.42995
1.67918
1.95277
2.22815
2.42985
2.426
-2.91891
-2.74115
-2.36002
-1.95601
-1.60309
-1.31367
-1.08188
-0.898106
-0.752485
-0.636497
-0.543314
-0.467654
-0.405488
-0.353749
-0.310089
-0.272699
-0.240168
-0.211384
-0.185454
-0.161652
-0.139376
-0.118117
-0.097431
-0.0769237
-0.0562303
-0.0350037
-0.0129002
0.0104326
0.0353683
0.0623165
0.0917388
0.124169
0.160239
0.200708
0.246509
0.298803
0.359057
0.429145
0.511492
0.609261
0.726589
0.868889
1.04314
1.25802
1.52355
1.84962
2.24145
2.68508
3.10236
3.31326
-4.32467
-3.56101
-2.81638
-2.19032
-1.7005
-1.33458
-1.06398
-0.862154
-0.70954
-0.592338
-0.500826
-0.428163
-0.369503
-0.321362
-0.281189
-0.247088
-0.217618
-0.191667
-0.16836
-0.146993
-0.126991
-0.107872
-0.0892181
-0.0706606
-0.0518601
-0.032494
-0.0122432
0.00921997
0.0322445
0.0572147
0.0845667
0.114809
0.148548
0.186523
0.229656
0.279113
0.336399
0.403494
0.483052
0.578687
0.695423
0.840335
1.02347
1.2591
1.56742
1.97611
2.51495
3.19457
3.99408
4.82467
-7.15891
-4.55944
-3.14036
-2.25421
-1.64707
-1.23662
-0.95747
-0.761457
-0.619256
-0.513202
-0.432125
-0.368731
-0.318135
-0.276966
-0.242829
-0.213978
-0.18911
-0.167226
-0.14755
-0.12946
-0.11245
-0.096096
-0.0800353
-0.0639449
-0.0475293
-0.0305068
-0.0125984
0.00648187
0.0270402
0.0494145
0.0739892
0.101214
0.131628
0.165891
0.204829
0.249498
0.301273
0.361994
0.434171
0.521331
0.628571
0.763487
0.937711
1.16961
1.48953
1.94777
2.61379
3.57219
5.07743
7.79609
-12.0273
-5.64222
-2.97609
-1.87754
-1.28094
-0.926773
-0.707697
-0.562414
-0.459738
-0.383886
-0.326015
-0.280719
-0.244491
-0.214938
-0.190357
-0.169497
-0.151412
-0.135373
-0.120806
-0.107247
-0.0943167
-0.0816943
-0.0691028
-0.0562953
-0.0430439
-0.0291307
-0.0143398
0.00155295
0.0187861
0.037623
0.0583628
0.081354
0.107012
0.135841
0.168468
0.205687
0.248522
0.29833
0.35695
0.426959
0.512112
0.618155
0.754415
0.937304
1.19879
1.60272
2.2656
3.45904
6.24218
12.7529
)
;

boundaryField
{
    movingWall
    {
        type            zeroGradient;
    }
    fixedWalls
    {
        type            zeroGradient;
    }
    frontAndBack
    {
        type            empty;
    }
}


// ************************************************************************* //
