/*--------------------------------*- C++ -*----------------------------------*\
  =========                 |
  \\      /  F ield         | OpenFOAM: The Open Source CFD Toolbox
   \\    /   O peration     | Website:  https://openfoam.org
    \\  /    A nd           | Version:  7
     \\/     M anipulation  |
\*---------------------------------------------------------------------------*/
FoamFile
{
    version     2.0;
    format      ascii;
    class       surfaceScalarField;
    location    "0.0008";
    object      phi;
}
// * * * * * * * * * * * * * * * * * * * * * * * * * * * * * * * * * * * * * //

dimensions      [0 3 -1 0 0 0 0];

internalField   nonuniform List<scalar> 
4900
(
-7.37136e-10
7.37108e-10
-3.70463e-09
2.9675e-09
-7.96875e-09
4.26412e-09
-1.26852e-08
4.71647e-09
-1.74885e-08
4.80328e-09
-2.22399e-08
4.75137e-09
-2.68856e-08
4.64575e-09
-3.13998e-08
4.51418e-09
-3.57638e-08
4.36396e-09
-3.99602e-08
4.19639e-09
-4.39719e-08
4.01177e-09
-4.77825e-08
3.81059e-09
-5.13762e-08
3.59364e-09
-5.4738e-08
3.36185e-09
-5.78543e-08
3.1163e-09
-6.07124e-08
2.8581e-09
-6.33009e-08
2.58844e-09
-6.56093e-08
2.30849e-09
-6.76288e-08
2.01946e-09
-6.93514e-08
1.72256e-09
-7.07704e-08
1.419e-09
-7.18804e-08
1.11002e-09
-7.26772e-08
7.96842e-10
-7.31579e-08
4.80672e-10
-7.33206e-08
1.62685e-10
-7.31646e-08
-1.55946e-10
-7.26906e-08
-4.74025e-10
-7.19002e-08
-7.90348e-10
-7.07966e-08
-1.10368e-09
-6.93838e-08
-1.41278e-09
-6.76674e-08
-1.71643e-09
-6.56539e-08
-2.01348e-09
-6.33512e-08
-2.3027e-09
-6.07683e-08
-2.58288e-09
-5.79155e-08
-2.85283e-09
-5.48041e-08
-3.11133e-09
-5.1447e-08
-3.35717e-09
-4.78578e-08
-3.58916e-09
-4.40515e-08
-3.80626e-09
-4.0044e-08
-4.00751e-09
-3.5852e-08
-4.19207e-09
-3.14926e-08
-4.35939e-09
-2.69833e-08
-4.50928e-09
-2.23424e-08
-4.64089e-09
-1.75943e-08
-4.74809e-09
-1.27895e-08
-4.80482e-09
-8.06224e-09
-4.72725e-09
-3.77272e-09
-4.28951e-09
-7.38684e-10
-3.03404e-09
-7.38679e-10
-3.08883e-09
3.82594e-09
-1.00528e-08
9.93144e-09
-1.90321e-08
1.32435e-08
-2.88563e-08
1.45407e-08
-3.89031e-08
1.48501e-08
-4.88894e-08
1.47377e-08
-5.86858e-08
1.44421e-08
-6.82219e-08
1.40503e-08
-7.74485e-08
1.35906e-08
-8.63239e-08
1.30717e-08
-9.48094e-08
1.24974e-08
-1.02869e-07
1.18704e-08
-1.1047e-07
1.1194e-08
-1.17579e-07
1.04712e-08
-1.24168e-07
9.70561e-09
-1.30211e-07
8.90076e-09
-1.35683e-07
8.06033e-09
-1.40562e-07
7.18801e-09
-1.4483e-07
6.28756e-09
-1.48471e-07
5.36274e-09
-1.51469e-07
4.41731e-09
-1.53814e-07
3.45508e-09
-1.55497e-07
2.47979e-09
-1.56511e-07
1.49517e-09
-1.56854e-07
5.049e-10
-1.56522e-07
-4.87359e-10
-1.55518e-07
-1.47792e-09
-1.53846e-07
-2.46305e-09
-1.5151e-07
-3.43896e-09
-1.48521e-07
-4.40187e-09
-1.4489e-07
-5.34802e-09
-1.40629e-07
-6.27369e-09
-1.35757e-07
-7.17517e-09
-1.30291e-07
-8.04866e-09
-1.24254e-07
-8.89041e-09
-1.17668e-07
-9.69665e-09
-1.10562e-07
-1.04636e-08
-1.02963e-07
-1.11877e-08
-9.49041e-08
-1.18655e-08
-8.64179e-08
-1.24937e-08
-7.75406e-08
-1.30693e-08
-6.83103e-08
-1.35897e-08
-5.8768e-08
-1.40516e-08
-4.89616e-08
-1.44473e-08
-3.89587e-08
-1.47509e-08
-2.88858e-08
-1.48778e-08
-1.90243e-08
-1.45888e-08
-1.00012e-08
-1.33126e-08
-3.0298e-09
-1.00054e-08
-3.76849e-09
-4.32707e-09
8.15302e-09
-1.34435e-08
1.90478e-08
-2.48616e-08
2.46616e-08
-3.72108e-08
2.68898e-08
-4.97999e-08
2.74392e-08
-6.23087e-08
2.72465e-08
-7.45839e-08
2.67172e-08
-8.65374e-08
2.60038e-08
-9.81054e-08
2.51587e-08
-1.09234e-07
2.42002e-08
-1.19874e-07
2.31372e-08
-1.29979e-07
2.1976e-08
-1.39508e-07
2.07227e-08
-1.4842e-07
1.93836e-08
-1.5668e-07
1.79652e-08
-1.64254e-07
1.64743e-08
-1.71111e-07
1.49178e-08
-1.77225e-07
1.33024e-08
-1.82573e-07
1.16353e-08
-1.87134e-07
9.92321e-09
-1.9089e-07
8.17324e-09
-1.93827e-07
6.39232e-09
-1.95934e-07
4.58734e-09
-1.97204e-07
2.76515e-09
-1.97632e-07
9.32539e-10
-1.97216e-07
-9.03696e-10
-1.95957e-07
-2.73678e-09
-1.9386e-07
-4.55986e-09
-1.90933e-07
-6.36603e-09
-1.87186e-07
-8.14834e-09
-1.82634e-07
-9.89991e-09
-1.77294e-07
-1.16138e-08
-1.71186e-07
-1.32832e-08
-1.64334e-07
-1.49009e-08
-1.56764e-07
-1.64602e-08
-1.48507e-07
-1.79539e-08
-1.39596e-07
-1.93752e-08
-1.30066e-07
-2.07172e-08
-1.19958e-07
-2.19736e-08
-1.09314e-07
-2.3138e-08
-9.81785e-08
-2.42045e-08
-8.66013e-08
-2.51669e-08
-7.46353e-08
-2.60175e-08
-6.23436e-08
-2.67391e-08
-4.98137e-08
-2.72809e-08
-3.72e-08
-2.74914e-08
-2.48276e-08
-2.69612e-08
-1.34003e-08
-2.474e-08
-4.31137e-09
-1.90943e-08
-8.0799e-09
-4.82179e-09
1.29748e-08
-1.49326e-08
2.91586e-08
-2.75091e-08
3.72382e-08
-4.10352e-08
4.04159e-08
-5.4784e-08
4.11881e-08
-6.84283e-08
4.08908e-08
-8.18116e-08
4.01005e-08
-9.4842e-08
3.90343e-08
-1.07451e-07
3.7768e-08
-1.19581e-07
3.63297e-08
-1.31177e-07
3.47332e-08
-1.42189e-07
3.29886e-08
-1.52572e-07
3.11056e-08
-1.62283e-07
2.90938e-08
-1.7128e-07
2.69631e-08
-1.7953e-07
2.47239e-08
-1.86999e-07
2.23864e-08
-1.93657e-07
1.99611e-08
-1.9948e-07
1.74583e-08
-2.04446e-07
1.48885e-08
-2.08535e-07
1.22622e-08
-2.11732e-07
9.58965e-09
-2.14026e-07
6.88123e-09
-2.15408e-07
4.14713e-09
-2.15873e-07
1.3975e-09
-2.15419e-07
-1.35752e-09
-2.14048e-07
-4.1078e-09
-2.11765e-07
-6.84316e-09
-2.08577e-07
-9.55335e-09
-2.04498e-07
-1.22281e-08
-1.9954e-07
-1.4857e-08
-1.93725e-07
-1.74297e-08
-1.87072e-07
-1.9936e-08
-1.79608e-07
-2.23651e-08
-1.71361e-07
-2.47068e-08
-1.62364e-07
-2.69505e-08
-1.52654e-07
-2.90858e-08
-1.42269e-07
-3.11024e-08
-1.31252e-07
-3.29904e-08
-1.19649e-07
-3.47403e-08
-1.07511e-07
-3.63426e-08
-9.48908e-08
-3.77874e-08
-8.18465e-08
-3.90619e-08
-6.84467e-08
-4.01388e-08
-5.47845e-08
-4.09431e-08
-4.1019e-08
-4.12569e-08
-2.74831e-08
-4.04971e-08
-1.49108e-08
-3.73123e-08
-4.82073e-09
-2.91844e-08
-1.29006e-08
-5.0096e-09
1.79844e-08
-1.55831e-08
3.97321e-08
-2.87325e-08
5.03876e-08
-4.28475e-08
5.45309e-08
-5.71727e-08
5.55132e-08
-7.13753e-08
5.50934e-08
-8.52985e-08
5.40237e-08
-9.88503e-08
5.2586e-08
-1.11961e-07
5.0879e-08
-1.24571e-07
4.89396e-08
-1.36625e-07
4.67866e-08
-1.4807e-07
4.44339e-08
-1.58859e-07
4.18946e-08
-1.68947e-07
3.91822e-08
-1.78294e-07
3.631e-08
-1.86862e-07
3.32921e-08
-1.94618e-07
3.01423e-08
-2.01532e-07
2.68748e-08
-2.07577e-07
2.35036e-08
-2.12732e-07
2.00427e-08
-2.16976e-07
1.65063e-08
-2.20294e-07
1.2908e-08
-2.22674e-07
9.26175e-09
-2.24108e-07
5.58118e-09
-2.24591e-07
1.87988e-09
-2.2412e-07
-1.82862e-09
-2.22697e-07
-5.53076e-09
-2.20327e-07
-9.21296e-09
-2.17019e-07
-1.28616e-08
-2.12784e-07
-1.64628e-08
-2.07638e-07
-2.00029e-08
-2.016e-07
-2.34679e-08
-1.94692e-07
-2.68439e-08
-1.8694e-07
-3.01168e-08
-1.78375e-07
-3.32723e-08
-1.69029e-07
-3.62964e-08
-1.5894e-07
-3.9175e-08
-1.48148e-07
-4.18942e-08
-1.36698e-07
-4.44404e-08
-1.24638e-07
-4.68005e-08
-1.12019e-07
-4.89614e-08
-9.88968e-08
-5.09094e-08
-8.53322e-08
-5.26264e-08
-7.13951e-08
-5.4076e-08
-5.71791e-08
-5.51592e-08
-4.28437e-08
-5.55922e-08
-2.87254e-08
-5.46155e-08
-1.55814e-08
-5.04562e-08
-5.01747e-09
-3.97484e-08
-1.79181e-08
-5.11423e-09
2.30986e-08
-1.59691e-08
5.05871e-08
-2.94862e-08
6.39047e-08
-4.39915e-08
6.90361e-08
-5.87034e-08
7.02252e-08
-7.32813e-08
6.96712e-08
-8.75662e-08
6.83087e-08
-1.01465e-07
6.64851e-08
-1.14909e-07
6.43223e-08
-1.27835e-07
6.1866e-08
-1.40188e-07
5.91397e-08
-1.51915e-07
5.61611e-08
-1.62968e-07
5.2947e-08
-1.733e-07
4.95145e-08
-1.82871e-07
4.58809e-08
-1.91643e-07
4.20637e-08
-1.99581e-07
3.80808e-08
-2.06656e-07
3.395e-08
-2.12842e-07
2.9689e-08
-2.18115e-07
2.53157e-08
-2.22456e-07
2.08475e-08
-2.2585e-07
1.6302e-08
-2.28285e-07
1.16964e-08
-2.29751e-07
7.04781e-09
-2.30245e-07
2.37329e-09
-2.29763e-07
-2.31021e-09
-2.28308e-07
-6.98576e-09
-2.25885e-07
-1.16364e-08
-2.22501e-07
-1.62449e-08
-2.1817e-07
-2.07943e-08
-2.12906e-07
-2.52671e-08
-2.06728e-07
-2.96459e-08
-1.99658e-07
-3.3913e-08
-1.91724e-07
-3.80507e-08
-1.82956e-07
-4.20411e-08
-1.73386e-07
-4.58661e-08
-1.63053e-07
-4.95081e-08
-1.51998e-07
-5.29493e-08
-1.40266e-07
-5.61723e-08
-1.27906e-07
-5.91602e-08
-1.14971e-07
-6.18963e-08
-1.01518e-07
-6.43629e-08
-8.76075e-08
-6.65368e-08
-7.33111e-08
-6.83724e-08
-5.87229e-08
-6.97473e-08
-4.40039e-08
-7.03112e-08
-2.94966e-08
-6.91228e-08
-1.59816e-08
-6.39712e-08
-5.12683e-09
-5.06031e-08
-2.30449e-08
-5.21783e-09
2.83165e-08
-1.63279e-08
6.16971e-08
-3.01785e-08
7.77553e-08
-4.50442e-08
8.39018e-08
-6.01188e-08
8.52998e-08
-7.50515e-08
8.46039e-08
-8.96793e-08
8.29364e-08
-1.03908e-07
8.07134e-08
-1.17665e-07
7.80798e-08
-1.3089e-07
7.50906e-08
-1.43524e-07
7.1774e-08
-1.55515e-07
6.81518e-08
-1.66812e-07
6.42445e-08
-1.77371e-07
6.0073e-08
-1.87148e-07
5.56585e-08
-1.96107e-07
5.10224e-08
-2.04213e-07
4.61866e-08
-2.11435e-07
4.11725e-08
-2.17748e-07
3.60019e-08
-2.23129e-07
3.06963e-08
-2.27558e-07
2.52767e-08
-2.3102e-07
1.97644e-08
-2.33504e-07
1.41799e-08
-2.35e-07
8.54391e-09
-2.35503e-07
2.87683e-09
-2.35013e-07
-2.80103e-09
-2.33529e-07
-8.46935e-09
-2.31058e-07
-1.41078e-08
-2.27607e-07
-1.96959e-08
-2.23188e-07
-2.5213e-08
-2.17817e-07
-3.06383e-08
-2.11512e-07
-3.59507e-08
-2.04296e-07
-4.11289e-08
-1.96195e-07
-4.61514e-08
-1.8724e-07
-5.09964e-08
-1.77464e-07
-5.56422e-08
-1.66905e-07
-6.0067e-08
-1.55605e-07
-6.42492e-08
-1.4361e-07
-6.81674e-08
-1.30969e-07
-7.18008e-08
-1.17737e-07
-7.51288e-08
-1.0397e-07
-7.81297e-08
-8.97316e-08
-8.07753e-08
-7.50936e-08
-8.30104e-08
-6.01518e-08
-8.46891e-08
-4.50705e-08
-8.53925e-08
-3.02011e-08
-8.39922e-08
-1.63481e-08
-7.78242e-08
-5.23194e-09
-6.17192e-08
-2.82769e-08
-5.34446e-09
3.36609e-08
-1.67406e-08
7.30933e-08
-3.09575e-08
9.19722e-08
-4.62194e-08
9.91637e-08
-6.16949e-08
1.00775e-07
-7.70217e-08
9.99307e-08
-9.20315e-08
9.79462e-08
-1.06627e-07
9.53086e-08
-1.20735e-07
9.21876e-08
-1.34291e-07
8.86473e-08
-1.47238e-07
8.47211e-08
-1.59521e-07
8.0435e-08
-1.7109e-07
7.58134e-08
-1.81899e-07
7.08813e-08
-1.91904e-07
6.56639e-08
-2.01068e-07
6.01868e-08
-2.09358e-07
5.44758e-08
-2.16741e-07
4.85564e-08
-2.23194e-07
4.24542e-08
-2.28692e-07
3.61944e-08
-2.33217e-07
2.98018e-08
-2.36754e-07
2.33012e-08
-2.3929e-07
1.67166e-08
-2.40819e-07
1.00721e-08
-2.41333e-07
3.39146e-09
-2.40832e-07
-3.30174e-09
-2.39318e-07
-9.98388e-09
-2.36794e-07
-1.66313e-08
-2.3327e-07
-2.32202e-08
-2.28757e-07
-2.97266e-08
-2.23269e-07
-3.6126e-08
-2.16826e-07
-4.2394e-08
-2.09449e-07
-4.85054e-08
-2.01166e-07
-5.44349e-08
-1.92005e-07
-6.01569e-08
-1.82002e-07
-6.56457e-08
-1.71193e-07
-7.08753e-08
-1.59622e-07
-7.58201e-08
-1.47335e-07
-8.04546e-08
-1.34382e-07
-8.47539e-08
-1.20818e-07
-8.86931e-08
-1.06701e-07
-9.22465e-08
-9.20959e-08
-9.53804e-08
-7.70761e-08
-9.80302e-08
-6.17399e-08
-1.00025e-07
-4.62564e-08
-1.00876e-07
-3.0988e-08
-9.92606e-08
-1.67645e-08
-9.20477e-08
-5.35847e-09
-7.31252e-08
-3.36353e-08
-5.49899e-09
3.91599e-08
-1.7231e-08
8.48253e-08
-3.18716e-08
1.06613e-07
-4.75901e-08
1.14882e-07
-6.35277e-08
1.16713e-07
-7.93092e-08
1.15712e-07
-9.47602e-08
1.13397e-07
-1.0978e-07
1.10328e-07
-1.24292e-07
1.067e-07
-1.38232e-07
1.02587e-07
-1.5154e-07
9.80289e-08
-1.6416e-07
9.3055e-08
-1.76041e-07
8.76944e-08
-1.87136e-07
8.19765e-08
-1.97403e-07
7.59306e-08
-2.06803e-07
6.95867e-08
-2.15302e-07
6.29748e-08
-2.2287e-07
5.61245e-08
-2.29481e-07
4.90653e-08
-2.35113e-07
4.18262e-08
-2.39747e-07
3.4436e-08
-2.43368e-07
2.69226e-08
-2.45965e-07
1.93137e-08
-2.4753e-07
1.16368e-08
-2.48057e-07
3.91872e-09
-2.47545e-07
-3.81363e-09
-2.45996e-07
-1.15334e-08
-2.43413e-07
-1.92138e-08
-2.39806e-07
-2.68278e-08
-2.35184e-07
-3.43479e-08
-2.29564e-07
-4.17464e-08
-2.22963e-07
-4.8995e-08
-2.15403e-07
-5.60651e-08
-2.06911e-07
-6.29274e-08
-1.97515e-07
-6.95523e-08
-1.87251e-07
-7.59099e-08
-1.76156e-07
-8.19701e-08
-1.64274e-07
-8.77029e-08
-1.5165e-07
-9.30785e-08
-1.38336e-07
-9.80675e-08
-1.24388e-07
-1.02641e-07
-1.09867e-07
-1.06768e-07
-9.4837e-08
-1.1041e-07
-7.93753e-08
-1.13492e-07
-6.35831e-08
-1.15817e-07
-4.76355e-08
-1.16824e-07
-3.19074e-08
-1.14989e-07
-1.72566e-08
-1.06698e-07
-5.51241e-09
-8.48694e-08
-3.91477e-08
-5.68196e-09
4.48419e-08
-1.78059e-08
9.69493e-08
-3.29374e-08
1.21744e-07
-4.91831e-08
1.31128e-07
-6.56534e-08
1.33183e-07
-8.1959e-08
1.32018e-07
-9.79184e-08
1.29356e-07
-1.13426e-07
1.25836e-07
-1.28404e-07
1.21678e-07
-1.42785e-07
1.16968e-07
-1.56508e-07
1.11751e-07
-1.69514e-07
1.06061e-07
-1.81753e-07
9.99331e-08
-1.93176e-07
9.33998e-08
-2.03741e-07
8.64957e-08
-2.1341e-07
7.92552e-08
-2.22147e-07
7.17126e-08
-2.29925e-07
6.39019e-08
-2.36716e-07
5.58567e-08
-2.425e-07
4.76098e-08
-2.47257e-07
3.91936e-08
-2.50974e-07
3.06397e-08
-2.5364e-07
2.19793e-08
-2.55246e-07
1.32427e-08
-2.55787e-07
4.46029e-09
-2.55263e-07
-4.3381e-09
-2.53674e-07
-1.31226e-08
-2.51025e-07
-2.18631e-08
-2.47323e-07
-3.05295e-08
-2.4258e-07
-3.90912e-08
-2.36809e-07
-4.7517e-08
-2.30029e-07
-5.57751e-08
-2.22261e-07
-6.3833e-08
-2.13531e-07
-7.16577e-08
-2.03868e-07
-7.92154e-08
-1.93306e-07
-8.64719e-08
-1.81883e-07
-9.33927e-08
-1.69643e-07
-9.99431e-08
-1.56633e-07
-1.06089e-07
-1.42904e-07
-1.11796e-07
-1.28515e-07
-1.1703e-07
-1.13527e-07
-1.21756e-07
-9.80082e-08
-1.25929e-07
-8.20368e-08
-1.29463e-07
-6.57187e-08
-1.32136e-07
-4.92358e-08
-1.33307e-07
-3.29776e-08
-1.31247e-07
-1.78328e-08
-1.21843e-07
-5.69478e-09
-9.70075e-08
-4.48425e-08
-5.89369e-09
5.07356e-08
-1.84691e-08
1.09525e-07
-3.41639e-08
1.37439e-07
-5.10131e-08
1.47977e-07
-6.80924e-08
1.50263e-07
-8.49965e-08
1.48922e-07
-1.01536e-07
1.45896e-07
-1.17601e-07
1.41901e-07
-1.33109e-07
1.37187e-07
-1.47992e-07
1.31851e-07
-1.62184e-07
1.25944e-07
-1.75629e-07
1.19506e-07
-1.88272e-07
1.12576e-07
-2.00066e-07
1.05194e-07
-2.10968e-07
9.73973e-08
-2.20939e-07
8.9226e-08
-2.29945e-07
8.07188e-08
-2.37957e-07
7.19142e-08
-2.4495e-07
6.285e-08
-2.50904e-07
5.3563e-08
-2.55799e-07
4.40892e-08
-2.59623e-07
3.44638e-08
-2.62365e-07
2.4721e-08
-2.64017e-07
1.48946e-08
-2.64574e-07
5.01785e-09
-2.64036e-07
-4.87652e-09
-2.62403e-07
-1.47557e-08
-2.59679e-07
-2.45867e-08
-2.55873e-07
-3.43363e-08
-2.50993e-07
-4.39707e-08
-2.45054e-07
-5.34556e-08
-2.38074e-07
-6.27556e-08
-2.30072e-07
-7.18345e-08
-2.21075e-07
-8.06553e-08
-2.1111e-07
-8.91799e-08
-2.00212e-07
-9.73697e-08
-1.8842e-07
-1.05186e-07
-1.75775e-07
-1.12588e-07
-1.62326e-07
-1.19537e-07
-1.48127e-07
-1.25995e-07
-1.33236e-07
-1.31921e-07
-1.17717e-07
-1.37276e-07
-1.01639e-07
-1.42006e-07
-8.50863e-08
-1.46016e-07
-6.81675e-08
-1.49054e-07
-5.1073e-08
-1.50401e-07
-3.42082e-08
-1.48112e-07
-1.84974e-08
-1.37554e-07
-5.90614e-09
-1.09599e-07
-5.07486e-08
-6.13509e-09
5.68707e-08
-1.92243e-08
1.22614e-07
-3.55593e-08
1.53774e-07
-5.30931e-08
1.65511e-07
-7.08623e-08
1.68032e-07
-8.84435e-08
1.66503e-07
-1.05638e-07
1.63091e-07
-1.22331e-07
1.58594e-07
-1.38438e-07
1.53293e-07
-1.53884e-07
1.47297e-07
-1.68605e-07
1.40665e-07
-1.82541e-07
1.33442e-07
-1.95637e-07
1.25673e-07
-2.07845e-07
1.17402e-07
-2.19122e-07
1.08674e-07
-2.29429e-07
9.95328e-08
-2.38733e-07
9.00227e-08
-2.47005e-07
8.01866e-08
-2.54221e-07
7.00665e-08
-2.60362e-07
5.97034e-08
-2.65409e-07
4.91368e-08
-2.69351e-07
3.84054e-08
-2.72177e-07
2.75466e-08
-2.73879e-07
1.65971e-08
-2.74454e-07
5.59301e-09
-2.73901e-07
-5.43022e-09
-2.72219e-07
-1.64371e-08
-2.69414e-07
-2.73918e-08
-2.65492e-07
-3.82585e-08
-2.60462e-07
-4.90002e-08
-2.54338e-07
-5.95795e-08
-2.47136e-07
-6.99576e-08
-2.38876e-07
-8.00946e-08
-2.29582e-07
-8.99493e-08
-2.19283e-07
-9.94794e-08
-2.08011e-07
-1.08642e-07
-1.95804e-07
-1.17392e-07
-1.82707e-07
-1.25685e-07
-1.68767e-07
-1.33477e-07
-1.54039e-07
-1.40723e-07
-1.38583e-07
-1.47377e-07
-1.22464e-07
-1.53394e-07
-1.05757e-07
-1.58714e-07
-8.85464e-08
-1.63227e-07
-7.09479e-08
-1.66653e-07
-5.31606e-08
-1.68188e-07
-3.56081e-08
-1.65664e-07
-1.92544e-08
-1.53908e-07
-6.14749e-09
-1.22706e-07
-5.68961e-08
-6.4076e-09
6.32783e-08
-2.00767e-08
1.36283e-07
-3.71331e-08
1.70831e-07
-5.54377e-08
1.83815e-07
-7.39825e-08
1.86577e-07
-9.2324e-08
1.84845e-07
-1.10254e-07
1.8102e-07
-1.2765e-07
1.7599e-07
-1.44424e-07
1.70067e-07
-1.605e-07
1.63373e-07
-1.75809e-07
1.55974e-07
-1.9029e-07
1.47923e-07
-2.03888e-07
1.3927e-07
-2.16553e-07
1.30067e-07
-2.28243e-07
1.20363e-07
-2.38919e-07
1.10209e-07
-2.48549e-07
9.96531e-08
-2.57106e-07
8.87435e-08
-2.64567e-07
7.75267e-08
-2.70911e-07
6.60477e-08
-2.76124e-07
5.43497e-08
-2.80193e-07
4.24747e-08
-2.8311e-07
3.04632e-08
-2.84867e-07
1.83545e-08
-2.85461e-07
6.1873e-09
-2.84891e-07
-6.0004e-09
-2.83157e-07
-1.81707e-08
-2.80264e-07
-3.02854e-08
-2.76216e-07
-4.2306e-08
-2.71024e-07
-5.41927e-08
-2.64698e-07
-6.59052e-08
-2.57255e-07
-7.74013e-08
-2.48712e-07
-8.86374e-08
-2.39093e-07
-9.95683e-08
-2.28425e-07
-1.10147e-07
-2.16741e-07
-1.20326e-07
-2.04078e-07
-1.30055e-07
-1.90479e-07
-1.39284e-07
-1.75993e-07
-1.47963e-07
-1.60677e-07
-1.56039e-07
-1.4459e-07
-1.63464e-07
-1.27802e-07
-1.70182e-07
-1.10389e-07
-1.76127e-07
-9.24414e-08
-1.81175e-07
-7.40797e-08
-1.85014e-07
-5.55135e-08
-1.86755e-07
-3.7187e-08
-1.83991e-07
-2.0109e-08
-1.70986e-07
-6.42034e-09
-1.36394e-07
-6.33164e-08
-6.71317e-09
6.99915e-08
-2.10323e-08
1.50602e-07
-3.88968e-08
1.88695e-07
-5.80637e-08
2.02982e-07
-7.74754e-08
2.05988e-07
-9.66653e-08
2.04035e-07
-1.15414e-07
1.99768e-07
-1.33593e-07
1.94169e-07
-1.51108e-07
1.87583e-07
-1.6788e-07
1.80145e-07
-1.83838e-07
1.71932e-07
-1.9892e-07
1.63004e-07
-2.13068e-07
1.53419e-07
-2.26234e-07
1.43233e-07
-2.38375e-07
1.32504e-07
-2.49453e-07
1.21287e-07
-2.59438e-07
1.09638e-07
-2.68303e-07
9.76082e-08
-2.76026e-07
8.52498e-08
-2.8259e-07
7.26115e-08
-2.8798e-07
5.97403e-08
-2.92187e-07
4.66811e-08
-2.95201e-07
3.34772e-08
-2.97017e-07
2.01706e-08
-2.97632e-07
6.80212e-09
-2.97044e-07
-6.5881e-09
-2.95254e-07
-1.99601e-08
-2.92266e-07
-3.32736e-08
-2.88085e-07
-4.64877e-08
-2.82717e-07
-5.95602e-08
-2.76174e-07
-7.24479e-08
-2.6847e-07
-8.51056e-08
-2.59621e-07
-9.7486e-08
-2.4965e-07
-1.0954e-07
-2.38581e-07
-1.21216e-07
-2.26447e-07
-1.3246e-07
-2.13284e-07
-1.43218e-07
-1.99134e-07
-1.53434e-07
-1.84048e-07
-1.63049e-07
-1.68081e-07
-1.72006e-07
-1.51297e-07
-1.80248e-07
-1.33766e-07
-1.87713e-07
-1.15569e-07
-1.94324e-07
-9.67991e-08
-1.99945e-07
-7.75858e-08
-2.04228e-07
-5.81493e-08
-2.06191e-07
-3.89568e-08
-2.03183e-07
-2.10675e-08
-1.88875e-07
-6.72668e-09
-1.50735e-07
-7.00431e-08
-7.05425e-09
7.70457e-08
-2.20985e-08
1.65646e-07
-4.08638e-08
2.0746e-07
-6.09912e-08
2.2311e-07
-8.13671e-08
2.26364e-07
-1.01499e-07
2.24167e-07
-1.21155e-07
2.19424e-07
-1.40199e-07
2.13213e-07
-1.58532e-07
2.05916e-07
-1.76071e-07
1.97684e-07
-1.92741e-07
1.88603e-07
-2.08479e-07
1.78742e-07
-2.23228e-07
1.68167e-07
-2.36938e-07
1.56943e-07
-2.49567e-07
1.45133e-07
-2.61079e-07
1.32799e-07
-2.71444e-07
1.20003e-07
-2.80639e-07
1.06803e-07
-2.88643e-07
9.32537e-08
-2.9544e-07
7.94092e-08
-3.0102e-07
6.53196e-08
-3.05371e-07
5.10328e-08
-3.08488e-07
3.65945e-08
-3.10367e-07
2.2049e-08
-3.11003e-07
7.43876e-09
-3.10397e-07
-7.19418e-09
-3.08549e-07
-2.18083e-08
-3.05461e-07
-3.63617e-08
-3.01137e-07
-5.08114e-08
-2.95584e-07
-6.51134e-08
-2.8881e-07
-7.92217e-08
-2.80828e-07
-9.30882e-08
-2.71652e-07
-1.06662e-07
-2.61301e-07
-1.1989e-07
-2.49801e-07
-1.32716e-07
-2.37179e-07
-1.45082e-07
-2.23473e-07
-1.56925e-07
-2.08723e-07
-1.68183e-07
-1.9298e-07
-1.78792e-07
-1.763e-07
-1.88686e-07
-1.58748e-07
-1.978e-07
-1.40398e-07
-2.06063e-07
-1.21332e-07
-2.13389e-07
-1.01652e-07
-2.19625e-07
-8.14928e-08
-2.24387e-07
-6.10881e-08
-2.26596e-07
-4.09313e-08
-2.2334e-07
-2.21377e-08
-2.07669e-07
-7.069e-09
-1.65804e-07
-7.71121e-08
-7.43377e-09
8.44795e-08
-2.32842e-08
1.81497e-07
-4.30503e-08
2.27227e-07
-6.42437e-08
2.44303e-07
-8.56883e-08
2.47809e-07
-1.06863e-07
2.45341e-07
-1.27521e-07
2.40082e-07
-1.47518e-07
2.3321e-07
-1.66748e-07
2.25146e-07
-1.85126e-07
2.16061e-07
-2.02573e-07
2.06051e-07
-2.19025e-07
1.95194e-07
-2.34424e-07
1.83566e-07
-2.4872e-07
1.71239e-07
-2.61873e-07
1.58286e-07
-2.73848e-07
1.44775e-07
-2.84619e-07
1.30774e-07
-2.94163e-07
1.16347e-07
-3.02464e-07
1.01554e-07
-3.09508e-07
8.64531e-08
-3.15285e-07
7.1097e-08
-3.19789e-07
5.55366e-08
-3.23014e-07
3.98198e-08
-3.24958e-07
2.39923e-08
-3.25617e-07
8.09829e-09
-3.24992e-07
-7.81926e-09
-3.23083e-07
-2.37177e-08
-3.19891e-07
-3.95539e-08
-3.15418e-07
-5.52838e-08
-3.0967e-07
-7.08613e-08
-3.02654e-07
-8.62385e-08
-2.94377e-07
-1.01365e-07
-2.84854e-07
-1.16185e-07
-2.741e-07
-1.30644e-07
-2.62138e-07
-1.44679e-07
-2.48994e-07
-1.58226e-07
-2.34702e-07
-1.71217e-07
-2.19303e-07
-1.83582e-07
-2.02846e-07
-1.95249e-07
-1.85388e-07
-2.06145e-07
-1.66995e-07
-2.16193e-07
-1.47744e-07
-2.25314e-07
-1.27723e-07
-2.3341e-07
-1.07038e-07
-2.40311e-07
-8.58317e-08
-2.45593e-07
-6.43539e-08
-2.48074e-07
-4.31266e-08
-2.44567e-07
-2.33281e-08
-2.27467e-07
-7.45008e-09
-1.81682e-07
-8.45622e-08
-7.85512e-09
9.23346e-08
-2.45998e-08
1.98241e-07
-4.54751e-08
2.48102e-07
-6.78486e-08
2.66677e-07
-9.04746e-08
2.70435e-07
-1.12799e-07
2.67666e-07
-1.3456e-07
2.61842e-07
-1.55602e-07
2.54253e-07
-1.75815e-07
2.45359e-07
-1.95106e-07
2.35352e-07
-2.13398e-07
2.24342e-07
-2.30621e-07
2.12417e-07
-2.46718e-07
1.99663e-07
-2.61642e-07
1.86163e-07
-2.75353e-07
1.71997e-07
-2.8782e-07
1.57242e-07
-2.99019e-07
1.41973e-07
-3.0893e-07
1.26259e-07
-3.17541e-07
1.10165e-07
-3.24841e-07
9.37532e-08
-3.30824e-07
7.70798e-08
-3.35485e-07
6.01978e-08
-3.38822e-07
4.31565e-08
-3.40832e-07
2.60028e-08
-3.41515e-07
8.78152e-09
-3.40871e-07
-8.46369e-09
-3.38899e-07
-2.56898e-08
-3.35599e-07
-4.28533e-08
-3.30974e-07
-5.99093e-08
-3.25025e-07
-7.68107e-08
-3.17755e-07
-9.35079e-08
-3.09172e-07
-1.09948e-07
-2.99285e-07
-1.26073e-07
-2.88106e-07
-1.41822e-07
-2.75654e-07
-1.5713e-07
-2.61953e-07
-1.71926e-07
-2.47035e-07
-1.86136e-07
-2.30937e-07
-1.9968e-07
-2.13708e-07
-2.12478e-07
-1.95406e-07
-2.24447e-07
-1.76097e-07
-2.35501e-07
-1.55862e-07
-2.45549e-07
-1.34792e-07
-2.5448e-07
-1.12999e-07
-2.62103e-07
-9.06385e-08
-2.67953e-07
-6.79742e-08
-2.70738e-07
-4.55616e-08
-2.6698e-07
-2.46491e-08
-2.4838e-07
-7.87312e-09
-1.98458e-07
-9.24353e-08
-8.32224e-09
1.00657e-07
-2.60573e-08
2.15977e-07
-4.81601e-08
2.70205e-07
-7.18382e-08
2.90355e-07
-9.57678e-08
2.94364e-07
-1.19359e-07
2.91258e-07
-1.4233e-07
2.84814e-07
-1.64517e-07
2.76439e-07
-1.858e-07
2.66643e-07
-2.06083e-07
2.55636e-07
-2.25285e-07
2.43544e-07
-2.43337e-07
2.30469e-07
-2.60182e-07
2.16508e-07
-2.75773e-07
2.01754e-07
-2.90074e-07
1.86298e-07
-3.03058e-07
1.70225e-07
-3.14703e-07
1.53618e-07
-3.24996e-07
1.36551e-07
-3.33927e-07
1.19096e-07
-3.4149e-07
1.01317e-07
-3.47683e-07
8.32729e-08
-3.52505e-07
6.50193e-08
-3.55955e-07
4.66064e-08
-3.58033e-07
2.80814e-08
-3.58741e-07
9.48898e-09
-3.58077e-07
-9.12744e-09
-3.56042e-07
-2.77252e-08
-3.52634e-07
-4.62612e-08
-3.47853e-07
-6.46906e-08
-3.41697e-07
-8.29659e-08
-3.34169e-07
-1.01036e-07
-3.25269e-07
-1.18847e-07
-3.15004e-07
-1.36338e-07
-3.03382e-07
-1.53445e-07
-2.90416e-07
-1.70096e-07
-2.76127e-07
-1.86215e-07
-2.60543e-07
-2.0172e-07
-2.43698e-07
-2.16524e-07
-2.2564e-07
-2.30537e-07
-2.06425e-07
-2.43662e-07
-1.86122e-07
-2.55804e-07
-1.64814e-07
-2.66858e-07
-1.42596e-07
-2.76698e-07
-1.19588e-07
-2.85111e-07
-9.59554e-08
-2.91586e-07
-7.19816e-08
-2.94712e-07
-4.82584e-08
-2.90703e-07
-2.61127e-08
-2.70526e-07
-8.34191e-09
-2.16228e-07
-1.00777e-07
-8.83967e-09
1.09497e-07
-2.7671e-08
2.34808e-07
-5.11314e-08
2.93665e-07
-7.62502e-08
3.15474e-07
-1.01617e-07
3.19731e-07
-1.266e-07
3.16241e-07
-1.50898e-07
3.09111e-07
-1.74333e-07
2.99875e-07
-1.9678e-07
2.89089e-07
-2.18136e-07
2.76992e-07
-2.38318e-07
2.63726e-07
-2.57256e-07
2.49407e-07
-2.74895e-07
2.34146e-07
-2.9119e-07
2.1805e-07
-3.0611e-07
2.01218e-07
-3.19631e-07
1.83746e-07
-3.31737e-07
1.65725e-07
-3.42422e-07
1.47235e-07
-3.51679e-07
1.28353e-07
-3.59509e-07
1.09147e-07
-3.65914e-07
8.96776e-08
-3.70896e-07
7.00016e-08
-3.74459e-07
5.01696e-08
-3.76606e-07
3.0228e-08
-3.77338e-07
1.02208e-08
-3.76655e-07
-9.81004e-09
-3.74557e-07
-2.98232e-08
-3.71041e-07
-4.97769e-08
-3.66104e-07
-6.96274e-08
-3.59743e-07
-8.93276e-08
-3.51952e-07
-1.08827e-07
-3.42731e-07
-1.28068e-07
-3.32079e-07
-1.46991e-07
-3.19998e-07
-1.65525e-07
-3.06498e-07
-1.83596e-07
-2.91593e-07
-2.0112e-07
-2.75306e-07
-2.18008e-07
-2.57668e-07
-2.34162e-07
-2.38723e-07
-2.49481e-07
-2.18527e-07
-2.63858e-07
-1.97149e-07
-2.77182e-07
-1.74674e-07
-2.89334e-07
-1.51202e-07
-3.00169e-07
-1.26863e-07
-3.09451e-07
-1.01832e-07
-3.16617e-07
-7.64144e-08
-3.20129e-07
-5.12435e-08
-3.15874e-07
-2.77335e-08
-2.94036e-07
-8.86118e-09
-2.35101e-07
-1.09638e-07
-9.41272e-09
1.18909e-07
-2.94577e-08
2.54853e-07
-5.44196e-08
3.18627e-07
-8.11294e-08
3.42183e-07
-1.08079e-07
3.46681e-07
-1.34592e-07
3.42754e-07
-1.60341e-07
3.34861e-07
-1.85137e-07
3.24671e-07
-2.08845e-07
3.12797e-07
-2.31358e-07
2.99505e-07
-2.52589e-07
2.84957e-07
-2.72469e-07
2.69288e-07
-2.90946e-07
2.52623e-07
-3.07979e-07
2.35082e-07
-3.23541e-07
2.1678e-07
-3.37615e-07
1.9782e-07
-3.50193e-07
1.78303e-07
-3.61272e-07
1.58315e-07
-3.70857e-07
1.37938e-07
-3.78953e-07
1.17242e-07
-3.85566e-07
9.62915e-08
-3.90707e-07
7.51418e-08
-3.9438e-07
5.38434e-08
-3.96593e-07
3.24411e-08
-3.97349e-07
1.09766e-08
-3.96649e-07
-1.05105e-08
-3.9449e-07
-3.19816e-08
-3.9087e-07
-5.33974e-08
-3.85781e-07
-7.47162e-08
-3.79216e-07
-9.58928e-08
-3.71166e-07
-1.16877e-07
-3.61622e-07
-1.37612e-07
-3.50578e-07
-1.58034e-07
-3.38031e-07
-1.78072e-07
-3.23981e-07
-1.97646e-07
-3.08437e-07
-2.16665e-07
-2.91414e-07
-2.35031e-07
-2.72939e-07
-2.52637e-07
-2.53052e-07
-2.69369e-07
-2.31805e-07
-2.85105e-07
-2.09268e-07
-2.99719e-07
-1.85528e-07
-3.13074e-07
-1.60691e-07
-3.25006e-07
-1.34893e-07
-3.35248e-07
-1.08326e-07
-3.43184e-07
-8.13178e-08
-3.47138e-07
-5.45478e-08
-3.42644e-07
-2.95286e-08
-3.19055e-07
-9.43659e-09
-2.55193e-07
-1.19075e-07
-1.00478e-08
1.28957e-07
-3.14374e-08
2.76243e-07
-5.8061e-08
3.45251e-07
-8.65284e-08
3.70651e-07
-1.15223e-07
3.75375e-07
-1.43414e-07
3.70945e-07
-1.70751e-07
3.62197e-07
-1.97027e-07
3.50947e-07
-2.22099e-07
3.37868e-07
-2.45853e-07
3.23259e-07
-2.68203e-07
3.07307e-07
-2.8908e-07
2.90165e-07
-3.08435e-07
2.71978e-07
-3.26233e-07
2.52881e-07
-3.42455e-07
2.33001e-07
-3.57092e-07
2.12457e-07
-3.70144e-07
1.91354e-07
-3.81617e-07
1.69789e-07
-3.91524e-07
1.47845e-07
-3.99877e-07
1.25596e-07
-4.06693e-07
1.03107e-07
-4.11984e-07
8.04331e-08
-4.15763e-07
5.76225e-08
-4.1804e-07
3.47173e-08
-4.18818e-07
1.17555e-08
-4.18102e-07
-1.12273e-08
-4.15887e-07
-3.41964e-08
-4.12168e-07
-5.71165e-08
-4.06934e-07
-7.99496e-08
-4.00174e-07
-1.02653e-07
-3.91872e-07
-1.25179e-07
-3.82012e-07
-1.47472e-07
-3.7058e-07
-1.69466e-07
-3.57564e-07
-1.91089e-07
-3.42956e-07
-2.12254e-07
-3.26755e-07
-2.32866e-07
-3.08968e-07
-2.52817e-07
-2.89617e-07
-2.71989e-07
-2.68733e-07
-2.90253e-07
-2.46366e-07
-3.07471e-07
-2.22584e-07
-3.235e-07
-1.97476e-07
-3.38182e-07
-1.71154e-07
-3.51329e-07
-1.43762e-07
-3.6264e-07
-1.15507e-07
-3.71438e-07
-8.67453e-08
-3.759e-07
-5.82084e-08
-3.71181e-07
-3.15187e-08
-3.45745e-07
-1.00749e-08
-2.76636e-07
-1.2915e-07
-1.07526e-08
1.3971e-07
-3.36341e-08
2.99124e-07
-6.2099e-08
3.73715e-07
-9.25099e-08
4.01062e-07
-1.23127e-07
4.05992e-07
-1.53163e-07
4.00981e-07
-1.82234e-07
3.91269e-07
-2.10118e-07
3.78831e-07
-2.36661e-07
3.64411e-07
-2.61745e-07
3.48343e-07
-2.85282e-07
3.30844e-07
-3.07207e-07
3.12089e-07
-3.27474e-07
2.92245e-07
-3.46059e-07
2.71466e-07
-3.62951e-07
2.49893e-07
-3.78151e-07
2.27657e-07
-3.91671e-07
2.04874e-07
-4.03527e-07
1.81645e-07
-4.13743e-07
1.5806e-07
-4.22341e-07
1.34194e-07
-4.29345e-07
1.10111e-07
-4.34775e-07
8.58638e-08
-4.38651e-07
6.1498e-08
-4.40985e-07
3.70511e-08
-4.41785e-07
1.25559e-08
-4.41055e-07
-1.1958e-08
-4.3879e-07
-3.64614e-08
-4.34981e-07
-6.09247e-08
-4.29616e-07
-8.53151e-08
-4.22674e-07
-1.09595e-07
-4.14134e-07
-1.33719e-07
-4.03972e-07
-1.57634e-07
-3.92164e-07
-1.81275e-07
-3.78685e-07
-2.04567e-07
-3.63519e-07
-2.2742e-07
-3.46652e-07
-2.49733e-07
-3.28082e-07
-2.71387e-07
-3.07819e-07
-2.92252e-07
-2.85888e-07
-3.12183e-07
-2.62333e-07
-3.31026e-07
-2.37219e-07
-3.48614e-07
-2.10635e-07
-3.64766e-07
-1.82698e-07
-3.79266e-07
-1.53564e-07
-3.91775e-07
-1.23456e-07
-4.01546e-07
-9.27606e-08
-4.06595e-07
-6.22693e-08
-4.01672e-07
-3.37279e-08
-3.74286e-07
-1.07839e-08
-2.9958e-07
-1.39934e-07
-1.15365e-08
1.51246e-07
-3.60765e-08
3.23664e-07
-6.65855e-08
4.04225e-07
-9.9149e-08
4.33625e-07
-1.31889e-07
4.38732e-07
-1.63951e-07
4.33043e-07
-1.94918e-07
4.22235e-07
-2.24546e-07
4.08459e-07
-2.52672e-07
3.92537e-07
-2.79174e-07
3.74846e-07
-3.03964e-07
3.55633e-07
-3.26981e-07
3.35106e-07
-3.4819e-07
3.13454e-07
-3.67573e-07
2.9085e-07
-3.85135e-07
2.67454e-07
-4.00888e-07
2.43411e-07
-4.14859e-07
2.18844e-07
-4.27078e-07
1.93864e-07
-4.3758e-07
1.68562e-07
-4.464e-07
1.43014e-07
-4.53571e-07
1.17282e-07
-4.59124e-07
9.14166e-08
-4.63083e-07
6.54569e-08
-4.65466e-07
3.94346e-08
-4.66285e-07
1.33752e-08
-4.65544e-07
-1.26993e-08
-4.63238e-07
-3.87678e-08
-4.59354e-07
-6.4808e-08
-4.53875e-07
-9.07946e-08
-4.46774e-07
-1.16696e-07
-4.3802e-07
-1.42473e-07
-4.27579e-07
-1.68075e-07
-4.15415e-07
-1.93439e-07
-4.01492e-07
-2.1849e-07
-3.85778e-07
-2.43135e-07
-3.68247e-07
-2.67264e-07
-3.48882e-07
-2.90752e-07
-3.27681e-07
-3.13453e-07
-3.04658e-07
-3.35206e-07
-2.7985e-07
-3.55835e-07
-2.53315e-07
-3.75149e-07
-2.25142e-07
-3.92939e-07
-1.95454e-07
-4.08955e-07
-1.64415e-07
-4.22814e-07
-1.3227e-07
-4.33691e-07
-9.94397e-08
-4.39426e-07
-6.6783e-08
-4.34329e-07
-3.61854e-08
-4.04884e-07
-1.1573e-08
-3.24193e-07
-1.51507e-07
-1.24111e-08
1.63657e-07
-3.87996e-08
3.50053e-07
-7.15835e-08
4.37008e-07
-1.06536e-07
4.68578e-07
-1.41623e-07
4.7382e-07
-1.75913e-07
4.67334e-07
-2.0895e-07
4.55272e-07
-2.4047e-07
4.39979e-07
-2.70296e-07
4.22363e-07
-2.98304e-07
4.02854e-07
-3.24409e-07
3.81738e-07
-3.48556e-07
3.59254e-07
-3.70722e-07
3.35619e-07
-3.90904e-07
3.11032e-07
-4.09121e-07
2.85672e-07
-4.25405e-07
2.59695e-07
-4.39797e-07
2.33237e-07
-4.52345e-07
2.06412e-07
-4.63099e-07
1.79316e-07
-4.72108e-07
1.52023e-07