/*--------------------------------*- C++ -*----------------------------------*\
  =========                 |
  \\      /  F ield         | OpenFOAM: The Open Source CFD Toolbox
   \\    /   O peration     | Website:  https://openfoam.org
    \\  /    A nd           | Version:  7
     \\/     M anipulation  |
\*---------------------------------------------------------------------------*/
FoamFile
{
    version     2.0;
    format      ascii;
    class       surfaceScalarField;
    location    "0.0722";
    object      phi;
}
// * * * * * * * * * * * * * * * * * * * * * * * * * * * * * * * * * * * * * //

dimensions      [0 3 -1 0 0 0 0];

internalField   nonuniform List<scalar> 
4900
(
1.1422e-09
-1.14057e-09
2.31596e-09
-1.1738e-09
2.3833e-09
-6.71723e-11
9.39657e-10
1.44369e-09
-2.09403e-09
3.03363e-09
-6.63383e-09
4.53978e-09
-1.25155e-08
5.88168e-09
-1.95388e-08
7.02324e-09
-2.74901e-08
7.95133e-09
-3.61545e-08
8.66442e-09
-4.53217e-08
9.16723e-09
-5.47899e-08
9.46813e-09
-6.43675e-08
9.57768e-09
-7.38752e-08
9.50773e-09
-8.31461e-08
9.27091e-09
-9.20265e-08
8.8803e-09
-1.00376e-07
8.34918e-09
-1.08067e-07
7.69098e-09
-1.14986e-07
6.91916e-09
-1.21033e-07
6.04729e-09
-1.26122e-07
5.089e-09
-1.3018e-07
4.05808e-09
-1.33149e-07
2.96854e-09
-1.34983e-07
1.83468e-09
-1.35655e-07
6.71154e-10
-1.35148e-07
-5.06965e-10
-1.33463e-07
-1.68415e-09
-1.30619e-07
-2.84438e-09
-1.26648e-07
-3.97119e-09
-1.216e-07
-5.04769e-09
-1.15544e-07
-6.05661e-09
-1.08563e-07
-6.98047e-09
-1.00761e-07
-7.80172e-09
-9.22584e-08
-8.50294e-09
-8.31913e-08
-9.06704e-09
-7.37137e-08
-9.47757e-09
-6.39947e-08
-9.71903e-09
-5.42175e-08
-9.77717e-09
-4.45781e-08
-9.63942e-09
-3.52827e-08
-9.29535e-09
-2.65454e-08
-8.7373e-09
-1.85842e-08
-7.96117e-09
-1.16163e-08
-6.96788e-09
-5.85054e-09
-5.76579e-09
-1.47463e-09
-4.3759e-09
1.36873e-09
-2.84333e-09
2.62454e-09
-1.25577e-09
2.39344e-09
2.31136e-10
1.13822e-09
1.25524e-09
1.13821e-09
1.18658e-09
-2.32719e-09
1.33026e-09
-1.31718e-09
-1.2209e-09
2.48411e-09
-7.2448e-09
7.46746e-09
-1.69775e-08
1.27661e-08
-3.03101e-08
1.78723e-08
-4.69283e-08
2.24998e-08
-6.63995e-08
2.64945e-08
-8.82283e-08
2.97803e-08
-1.11891e-07
3.23276e-08
-1.3686e-07
3.41355e-08
-1.62613e-07
3.52213e-08
-1.88649e-07
3.56139e-08
-2.14491e-07
3.535e-08
-2.39692e-07
3.44711e-08
-2.63833e-07
3.30222e-08
-2.86535e-07
3.10504e-08
-3.07448e-07
2.86041e-08
-3.26261e-07
2.57328e-08
-3.42701e-07
2.24869e-08
-3.56529e-07
1.89174e-08
-3.67548e-07
1.50764e-08
-3.75596e-07
1.10169e-08
-3.80554e-07
6.79281e-09
-3.82343e-07
2.45975e-09
-3.80924e-07
-1.92536e-09
-3.76305e-07
-6.30402e-09
-3.68533e-07
-1.06161e-08
-3.57704e-07
-1.48001e-08
-3.43959e-07
-1.87929e-08
-3.27485e-07
-2.25308e-08
-3.08516e-07
-2.59494e-08
-2.87333e-07
-2.89844e-08
-2.64263e-07
-3.15726e-08
-2.39678e-07
-3.36526e-08
-2.1399e-07
-3.51658e-08
-1.87651e-07
-3.60579e-08
-1.61148e-07
-3.62804e-08
-1.34995e-07
-3.57922e-08
-1.09729e-07
-3.45617e-08
-8.5896e-08
-3.25698e-08
-6.40433e-08
-2.98138e-08
-4.46978e-08
-2.63134e-08
-2.83431e-08
-2.21204e-08
-1.53836e-08
-1.73354e-08
-6.08999e-09
-1.2137e-08
-5.13233e-10
-6.83254e-09
1.66548e-09
-1.94758e-09
1.26665e-09
1.65405e-09
2.40487e-09
1.2704e-10
-2.45407e-09
-2.37669e-09
1.18661e-09
-9.10069e-09
9.20805e-09
-2.08459e-08
1.92126e-08
-3.78592e-08
2.97794e-08
-5.99958e-08
4.00089e-08
-8.68404e-08
4.93444e-08
-1.17804e-07
5.74582e-08
-1.52193e-07
6.41694e-08
-1.89258e-07
6.93922e-08
-2.28226e-07
7.31035e-08
-2.68327e-07
7.53224e-08
-3.08809e-07
7.60965e-08
-3.48952e-07
7.5493e-08
-3.88074e-07
7.35925e-08
-4.25536e-07
7.04849e-08
-4.60752e-07
6.62662e-08
-4.93185e-07
6.10373e-08
-5.22355e-07
5.49022e-08
-5.47835e-07
4.79675e-08
-5.6926e-07
4.03423e-08
-5.86322e-07
3.21377e-08
-5.98772e-07
2.34676e-08
-6.06428e-07
1.44482e-08
-6.09167e-07
5.19868e-09
-6.06933e-07
-4.15862e-09
-5.99739e-07
-1.34983e-08
-5.87663e-07
-2.26918e-08
-5.70856e-07
-3.16077e-08
-5.49536e-07
-4.01122e-08
-5.23997e-07
-4.80701e-08
-4.94601e-07
-5.53454e-08
-4.61782e-07
-6.18033e-08
-4.26043e-07
-6.73114e-08
-3.87954e-07
-7.17422e-08
-3.48144e-07
-7.49753e-08
-3.07302e-07
-7.69003e-08
-2.66162e-07
-7.74205e-08
-2.25497e-07
-7.64565e-08
-1.86108e-07
-7.39512e-08
-1.48801e-07
-6.98767e-08
-1.14372e-07
-6.42424e-08
-8.35775e-08
-5.71081e-08
-5.70953e-08
-4.86026e-08
-3.54771e-08
-3.89535e-08
-1.90794e-08
-2.85347e-08
-7.96899e-09
-1.79429e-08
-1.81079e-09
-8.10577e-09
2.9311e-10
-4.4986e-10
2.69798e-09
-1.34294e-09
-1.11104e-09
-7.28747e-09
7.13096e-09
-1.90418e-08
2.09623e-08
-3.72111e-08
3.73818e-08
-6.19288e-08
5.44971e-08
-9.29516e-08
7.10316e-08
-1.29755e-07
8.61478e-08
-1.71618e-07
9.93211e-08
-2.1769e-07
1.10242e-07
-2.67044e-07
1.18747e-07
-3.18718e-07
1.24777e-07
-3.71741e-07
1.28346e-07
-4.25161e-07
1.29516e-07
-4.78056e-07
1.28388e-07
-5.2955e-07
1.25087e-07
-5.78823e-07
1.19757e-07
-6.25112e-07
1.12555e-07
-6.67722e-07
1.03648e-07
-7.06028e-07
9.32083e-08
-7.39477e-07
8.1416e-08
-7.6759e-07
6.84551e-08
-7.89966e-07
5.45143e-08
-8.06285e-07
3.97865e-08
-8.16307e-07
2.44697e-08
-8.19875e-07
8.76658e-09
-8.16918e-07
-7.11509e-09
-8.07454e-07
-2.29624e-08
-7.91588e-07
-3.85574e-08
-7.69518e-07
-5.36779e-08
-7.41532e-07
-6.80983e-08
-7.08012e-07
-8.15908e-08
-6.69429e-07
-9.39275e-08
-6.2635e-07
-1.04883e-07
-5.79424e-07
-1.14237e-07
-5.29387e-07
-1.21779e-07
-4.77052e-07
-1.2731e-07
-4.23301e-07
-1.30652e-07
-3.69074e-07
-1.31648e-07
-3.15354e-07
-1.30176e-07
-2.63154e-07
-1.26152e-07
-2.13488e-07
-1.19542e-07
-1.6735e-07
-1.10381e-07
-1.25675e-07
-9.8783e-08
-8.92981e-08
-8.49795e-08
-5.88987e-08
-6.93528e-08
-3.49338e-08
-5.24996e-08
-1.75562e-08
-3.53205e-08
-6.52452e-09
-1.91374e-08
-1.11964e-09
-5.85474e-09
1.57834e-09
-2.9159e-09
1.80483e-09
-1.26434e-08
1.68583e-08
-2.98543e-08
3.81732e-08
-5.48378e-08
6.23652e-08
-8.75142e-08
8.71735e-08
-1.27482e-07
1.10999e-07
-1.7408e-07
1.32746e-07
-2.26453e-07
1.51694e-07
-2.83609e-07
1.67397e-07
-3.44471e-07
1.79609e-07
-4.07917e-07
1.88223e-07
-4.72813e-07
1.93242e-07
-5.38041e-07
1.94744e-07
-6.02513e-07
1.9286e-07
-6.65194e-07
1.87768e-07
-7.25107e-07
1.7967e-07
-7.81346e-07
1.68794e-07
-8.33082e-07
1.55383e-07
-8.79566e-07
1.39692e-07
-9.20137e-07
1.21987e-07
-9.54223e-07
1.02541e-07
-9.81344e-07
8.16351e-08
-1.00112e-06
5.95581e-08
-1.01325e-06
3.66056e-08
-1.01757e-06
1.30805e-08
-1.01397e-06
-1.07065e-08
-1.0025e-06
-3.44376e-08
-9.83268e-07
-5.77879e-08
-9.5652e-07
-8.04266e-08
-9.22599e-07
-1.02019e-07
-8.81964e-07
-1.22226e-07
-8.3518e-07
-1.40712e-07
-7.82919e-07
-1.57144e-07
-7.25959e-07
-1.71198e-07
-6.65173e-07
-1.82565e-07
-6.01526e-07
-1.90957e-07
-5.36061e-07
-1.96116e-07
-4.6989e-07
-1.9782e-07
-4.04169e-07
-1.95896e-07
-3.40087e-07
-1.90234e-07
-2.78831e-07
-1.80798e-07
-2.2156e-07
-1.67651e-07
-1.69366e-07
-1.50978e-07
-1.23225e-07
-1.3112e-07
-8.39515e-08
-1.08627e-07
-5.21327e-08
-8.43183e-08
-2.80694e-08
-5.93838e-08
-1.1716e-08
-3.54909e-08
-2.63881e-09
-1.49319e-08
-1.06046e-09
-4.46836e-09
6.27314e-09
-1.80519e-08
3.04417e-08
-4.08704e-08
6.09917e-08
-7.28312e-08
9.4326e-08
-1.13579e-07
1.27921e-07
-1.62505e-07
1.59925e-07
-2.1878e-07
1.89021e-07
-2.81399e-07
2.14313e-07
-3.49229e-07
2.35228e-07
-4.21053e-07
2.51433e-07
-4.95609e-07
2.62779e-07
-5.71621e-07
2.69254e-07
-6.47827e-07
2.7095e-07
-7.23004e-07
2.68037e-07
-7.95978e-07
2.60742e-07
-8.65645e-07
2.49337e-07
-9.30976e-07
2.34125e-07
-9.91029e-07
2.15436e-07
-1.04495e-06
1.93616e-07
-1.09199e-06
1.69029e-07
-1.1315e-06
1.42049e-07
-1.16293e-06
1.13063e-07
-1.18584e-06
8.24687e-08
-1.19991e-06
5.06722e-08
-1.20492e-06
1.80913e-08
-1.20078e-06
-1.48462e-08
-1.18751e-06
-4.7703e-08
-1.16527e-06
-8.00324e-08
-1.13432e-06
-1.1138e-07
-1.09505e-06
-1.41287e-07
-1.04798e-06
-1.69289e-07
-9.93767e-07
-1.94928e-07
-9.33163e-07
-2.17748e-07
-8.6705e-07
-2.37311e-07
-7.96419e-07
-2.53195e-07
-7.22363e-07
-2.65014e-07
-6.46061e-07
-2.72418e-07
-5.68767e-07
-2.75114e-07
-4.91789e-07
-2.72874e-07
-4.16464e-07
-2.65558e-07
-3.44133e-07
-2.53129e-07
-2.76104e-07
-2.3568e-07
-2.13615e-07
-2.13467e-07
-1.57789e-07
-1.86946e-07
-1.09591e-07
-1.56825e-07
-6.97722e-08
-1.24137e-07
-3.88319e-08
-9.03241e-08
-1.69824e-08
-5.73404e-08
-4.14466e-09
-2.77696e-08
-5.20512e-09
-5.95068e-09
1.22238e-08
-2.33317e-08
4.78227e-08
-5.1746e-08
8.94061e-08
-9.07007e-08
1.33281e-07
-1.39531e-07
1.76752e-07
-1.97386e-07
2.17781e-07
-2.6324e-07
2.54874e-07
-3.3592e-07
2.86993e-07
-4.14143e-07
3.13451e-07
-4.96554e-07
3.33844e-07
-5.81756e-07
3.47981e-07
-6.68345e-07
3.55843e-07
-7.54935e-07
3.5754e-07
-8.40178e-07
3.53281e-07
-9.22788e-07
3.43352e-07
-1.00155e-06
3.28097e-07
-1.07533e-06
3.07905e-07
-1.14309e-06
2.83198e-07
-1.2039e-06
2.54423e-07
-1.25692e-06
2.2205e-07
-1.30144e-06
1.86567e-07
-1.33685e-06
1.48475e-07
-1.36267e-06
1.0829e-07
-1.37854e-06
6.65442e-08
-1.38423e-06
2.37794e-08
-1.37963e-06
-1.94475e-08
-1.36476e-06
-6.25674e-08
-1.3398e-06
-1.05e-07
-1.30502e-06
-1.46155e-07
-1.26087e-06
-1.85435e-07
-1.20792e-06
-2.22242e-07
-1.14687e-06
-2.55978e-07
-1.07856e-06
-2.86058e-07
-1.00396e-06
-3.11912e-07
-9.24155e-07
-3.33e-07
-8.40347e-07
-3.48822e-07
-7.53833e-07
-3.58932e-07
-6.65992e-07
-3.62955e-07
-5.78262e-07
-3.60604e-07
-4.92119e-07
-3.51702e-07
-4.09042e-07
-3.36206e-07
-3.30485e-07
-3.14237e-07
-2.57835e-07
-2.86117e-07
-1.92373e-07
-2.52408e-07
-1.35233e-07
-2.13965e-07
-8.73639e-08
-1.72006e-07
-4.94978e-08
-1.2819e-07
-2.214e-08
-8.46982e-08
-5.58627e-09
-4.43233e-08
-1.07914e-08
-7.3523e-09
1.95761e-08
-2.84182e-08
6.88886e-08
-6.23358e-08
1.23324e-07
-1.0822e-07
1.79165e-07
-1.65082e-07
2.33615e-07
-2.31809e-07
2.84507e-07
-3.07154e-07
3.30219e-07
-3.8976e-07
3.69599e-07
-4.78185e-07
4.01876e-07
-5.70926e-07
4.26585e-07
-6.66457e-07
4.43511e-07
-7.63249e-07
4.52635e-07
-8.598e-07
4.54092e-07
-9.54657e-07
4.48137e-07
-1.04643e-06
4.35122e-07
-1.1338e-06
4.15471e-07
-1.21556e-06
3.89662e-07
-1.29058e-06
3.5822e-07
-1.35786e-06
3.21701e-07
-1.4165e-06
2.80689e-07
-1.46572e-06
2.35792e-07
-1.50488e-06
1.87636e-07
-1.53346e-06
1.36866e-07
-1.55106e-06
8.41452e-08
-1.55743e-06
3.01509e-08
-1.55246e-06
-2.44215e-08
-1.53616e-06
-7.88614e-08
-1.50872e-06
-1.32445e-07
-1.47044e-06
-1.84435e-07
-1.42179e-06
-2.34088e-07
-1.36337e-06
-2.80658e-07
-1.29595e-06
-3.23401e-07
-1.22042e-06
-3.61586e-07
-1.13782e-06
-3.94506e-07
-1.04934e-06
-4.21488e-07
-9.56246e-07
-4.41912e-07
-8.59954e-07
-4.55224e-07
-7.61952e-07
-4.60957e-07
-6.63799e-07
-4.58757e-07
-5.67099e-07
-4.48401e-07
-4.7347e-07
-4.29834e-07
-3.84512e-07
-4.03195e-07
-3.01769e-07
-3.6886e-07
-2.26695e-07
-3.27482e-07
-1.60614e-07
-2.80046e-07
-1.04695e-07
-2.27925e-07
-5.9928e-08
-1.72957e-07
-2.7126e-08
-1.175e-07
-6.952e-09
-6.44974e-08
-1.77434e-08
-8.6803e-09
2.82564e-08
-3.33079e-08
9.35162e-08
-7.26076e-08
1.62623e-07
-1.25321e-07
2.31878e-07
-1.90137e-07
2.98431e-07
-2.65665e-07
3.60035e-07
-3.50426e-07
4.1498e-07
-4.42862e-07
4.62035e-07
-5.41357e-07
5.00371e-07
-6.4426e-07
5.29487e-07
-7.49906e-07
5.49158e-07
-8.56648e-07
5.59377e-07
-9.62872e-07
5.60316e-07
-1.06702e-06
5.52288e-07
-1.16762e-06
5.35717e-07
-1.26326e-06
5.11114e-07
-1.35265e-06
4.79058e-07
-1.43461e-06
4.4018e-07
-1.50807e-06
3.95155e-07
-1.57207e-06
3.44687e-07
-1.62579e-06
2.89513e-07
-1.66854e-06
2.30389e-07
-1.69977e-06
1.68098e-07
-1.71907e-06
1.03439e-07
-1.72615e-06
3.72345e-08
-1.7209e-06
-2.96751e-08
-1.70333e-06
-9.64302e-08
-1.67362e-06
-1.62155e-07
-1.63209e-06
-2.25959e-07
-1.57924e-06
-2.86942e-07
-1.5157e-06
-3.44201e-07
-1.44226e-06
-3.96836e-07
-1.35989e-06
-4.43963e-07
-1.26967e-06
-4.84725e-07
-1.17285e-06
-5.18308e-07
-1.0708e-06
-5.43958e-07
-9.65022e-07
-5.61003e-07
-8.57104e-07
-5.68875e-07
-7.48724e-07
-5.67137e-07
-6.41611e-07
-5.55514e-07
-5.37523e-07
-5.33923e-07
-4.38211e-07
-5.02507e-07
-3.4539e-07
-4.61681e-07
-2.60699e-07
-4.12173e-07
-1.85675e-07
-3.5507e-07
-1.21722e-07
-2.91878e-07
-7.01035e-08
-2.24576e-07
-3.19421e-08
-1.55662e-07
-8.25006e-09
-8.81894e-08
-2.59934e-08
-9.94833e-09
3.82048e-08
-3.80267e-08
1.21595e-07
-8.25909e-08
2.07188e-07
-1.42031e-07
2.91318e-07
-2.14719e-07
3.71119e-07
-2.98983e-07
4.44298e-07
-3.93098e-07
5.09095e-07
-4.95297e-07
5.64234e-07
-6.0378e-07
6.08854e-07
-7.16735e-07
6.42443e-07
-8.3236e-07
6.64783e-07
-9.48884e-07
6.759e-07
-1.06459e-06
6.76017e-07
-1.17781e-06
6.65514e-07
-1.287e-06
6.44901e-07
-1.39067e-06
6.14784e-07
-1.48746e-06
5.75851e-07
-1.57613e-06
5.28849e-07
-1.65555e-06
4.74575e-07
-1.72473e-06
4.13864e-07
-1.7828e-06
3.47585e-07
-1.82904e-06
2.76633e-07
-1.86287e-06
2.0193e-07
-1.88386e-06
1.24422e-07
-1.8917e-06
4.50785e-08
-1.88627e-06
-3.51092e-08
-1.86757e-06
-1.15127e-07
-1.83579e-06
-1.9394e-07
-1.79125e-06
-2.70498e-07
-1.73445e-06
-3.43738e-07
-1.66606e-06
-4.12592e-07
-1.5869e-06
-4.75996e-07
-1.49796e-06
-5.32902e-07
-1.40039e-06
-5.82294e-07
-1.29549e-06
-6.23204e-07
-1.18472e-06
-6.54735e-07
-1.06964e-06
-6.76082e-07
-9.51948e-07
-6.86563e-07
-8.33438e-07
-6.85647e-07
-7.15967e-07
-6.72986e-07
-6.01434e-07
-6.48455e-07
-4.91755e-07
-6.12186e-07
-3.88822e-07
-5.64614e-07
-2.94479e-07
-5.06516e-07
-2.10487e-07
-4.39062e-07
-1.38504e-07
-3.63861e-07
-8.00728e-08
-2.83007e-07
-3.66231e-08
-1.99111e-07
-9.49651e-09
-1.15316e-07
-3.54899e-08
-1.11719e-08
4.93767e-08
-4.26137e-08
1.53036e-07
-9.23461e-08
2.5692e-07
-1.58428e-07
3.574e-07
-2.3892e-07
4.51611e-07
-3.31868e-07
5.37246e-07
-4.35297e-07
6.12524e-07
-5.47219e-07
6.76156e-07
-6.65641e-07
7.27276e-07
-7.88585e-07
7.65387e-07
-9.14105e-07
7.90303e-07
-1.0403e-06
8.02099e-07
-1.16535e-06
8.01066e-07
-1.28751e-06
7.87669e-07
-1.40512e-06
7.62512e-07
-1.51665e-06
7.26311e-07
-1.62067e-06
6.79871e-07
-1.71588e-06
6.24063e-07
-1.80112e-06
5.59814e-07
-1.87535e-06
4.88096e-07
-1.93768e-06
4.09915e-07
-1.98736e-06
3.26309e-07
-2.02377e-06
2.38345e-07
-2.04647e-06
1.47118e-07
-2.05513e-06
5.37479e-08
-2.04963e-06
-4.06175e-08
-2.02995e-06
-1.34806e-07
-1.99627e-06
-2.27621e-07
-1.94892e-06
-3.17847e-07
-1.8884e-06
-4.04251e-07
-1.8154e-06
-4.85595e-07
-1.73076e-06
-5.60642e-07
-1.63549e-06
-6.28172e-07
-1.53078e-06
-6.86999e-07
-1.418e-06
-7.35989e-07
-1.29864e-06
-7.74088e-07
-1.17438e-06
-8.00346e-07
-1.04699e-06
-8.1395e-07
-9.18384e-07
-8.14255e-07
-7.90544e-07
-8.00826e-07
-6.65524e-07
-7.73475e-07
-5.45409e-07
-7.32301e-07
-4.32288e-07
-6.77735e-07
-3.28217e-07
-6.10586e-07
-2.352e-07
-5.32079e-07
-1.55158e-07
-4.43903e-07
-8.99202e-08
-3.48245e-07
-4.12197e-08
-2.47812e-07
-1.07101e-08
-1.45825e-07
-4.62e-08
-1.23665e-08
6.17432e-08
-4.71126e-08
1.87783e-07
-1.01947e-07
3.11755e-07
-1.74613e-07
4.30066e-07
-2.62866e-07
5.39865e-07
-3.6447e-07
6.3885e-07
-4.77194e-07
7.25249e-07
-5.98822e-07
7.97784e-07
-7.27162e-07
8.55616e-07
-8.60063e-07
8.98287e-07
-9.95427e-07
9.25667e-07
-1.13123e-06
9.37905e-07
-1.26554e-06
9.35376e-07
-1.39652e-06
9.18646e-07
-1.52244e-06
8.88432e-07
-1.6417e-06
8.45569e-07
-1.75282e-06
7.9099e-07
-1.85445e-06
7.257e-07
-1.9454e-06
6.50764e-07
-2.0246e-06
5.67294e-07
-2.09113e-06
4.76439e-07
-2.1442e-06
3.79385e-07
-2.1832e-06
2.77346e-07
-2.20765e-06
1.71567e-07
-2.21723e-06
6.3322e-08
-2.21176e-06
-4.60842e-08
-2.19125e-06
-1.55319e-07
-2.15585e-06
-2.63021e-07
-2.10589e-06
-3.67805e-07
-2.04187e-06
-4.68267e-07
-1.96448e-06
-5.62989e-07
-1.87456e-06
-6.50557e-07
-1.77317e-06
-7.29569e-07
-1.66151e-06
-7.98657e-07
-1.54099e-06
-8.56511e-07
-1.41317e-06
-9.01904e-07
-1.2798e-06
-9.33724e-07
-1.14274e-06
-9.51006e-07
-1.00402e-06
-9.52977e-07
-8.65752e-07
-9.3909e-07
-7.30156e-07
-9.09071e-07
-5.99496e-07
-8.62961e-07
-4.76063e-07
-8.01168e-07
-3.62148e-07
-7.24502e-07
-2.60005e-07
-6.34222e-07
-1.71831e-07
-5.32077e-07
-9.97475e-08
-4.20329e-07
-4.57889e-08
-3.0177e-07
-1.19099e-08
-1.79704e-07
-5.81099e-08
-1.35462e-08
7.52894e-08
-5.15666e-08
2.25803e-07
-1.11472e-07
3.7166e-07
-1.90697e-07
5.09291e-07
-2.86699e-07
6.35866e-07
-3.96957e-07
7.49108e-07
-5.18981e-07
8.47273e-07
-6.50321e-07
9.29123e-07
-7.88577e-07
9.93872e-07
-9.31419e-07
1.04113e-06
-1.0766e-06
1.07085e-06
-1.22196e-06
1.08327e-06
-1.36546e-06
1.07888e-06
-1.50518e-06
1.05836e-06
-1.63931e-06
1.02256e-06
-1.76619e-06
9.72452e-07
-1.88431e-06
9.09102e-07
-1.99227e-06
8.33659e-07
-2.08884e-06
7.47335e-07
-2.17293e-06
6.51388e-07
-2.24361e-06
5.47114e-07
-2.30007e-06
4.35847e-07
-2.34167e-06
3.18951e-07
-2.36793e-06
1.97823e-07
-2.3785e-06
7.3891e-08
-2.3732e-06
-5.13843e-08
-2.35201e-06
-1.76509e-07
-2.31507e-06
-2.99956e-07
-2.26271e-06
-4.20169e-07
-2.19541e-06
-5.35568e-07
-2.11384e-06
-6.44555e-07
-2.01887e-06
-7.45527e-07
-1.91155e-06
-8.36893e-07
-1.79311e-06
-9.17095e-07
-1.66499e-06
-9.8463e-07
-1.52881e-06
-1.03808e-06
-1.38638e-06
-1.07616e-06
-1.23965e-06
-1.09773e-06
-1.09078e-06
-1.10186e-06
-9.42004e-07
-1.08786e-06
-7.95712e-07
-1.05536e-06
-6.54358e-07
-1.00432e-06
-5.20454e-07
-9.35072e-07
-3.96532e-07
-8.48424e-07
-2.85114e-07
-7.4564e-07
-1.88684e-07
-6.28506e-07
-1.09663e-07
-4.99351e-07
-5.0389e-08
-3.61044e-07
-1.31145e-08
-2.16979e-07
-7.12245e-08
-1.47239e-08
9.00134e-08
-5.60164e-08
2.67095e-07
-1.20995e-07
4.36639e-07
-2.06791e-07
5.95087e-07
-3.10561e-07
7.39637e-07
-4.29499e-07
8.68046e-07
-5.60849e-07
9.78623e-07
-7.01921e-07
1.0702e-06
-8.50105e-07
1.14206e-06
-1.00288e-06
1.19391e-06
-1.15786e-06
1.22582e-06
-1.31273e-06
1.23814e-06
-1.46536e-06
1.23151e-06
-1.61373e-06
1.20673e-06
-1.75597e-06
1.16481e-06
-1.89037e-06
1.10685e-06
-2.01537e-06
1.0341e-06
-2.12955e-06
9.47838e-07
-2.23165e-06
8.49438e-07
-2.32057e-06
7.40307e-07
-2.39535e-06
6.21894e-07
-2.45518e-06
4.95682e-07
-2.49942e-06
3.63184e-07
-2.52754e-06
2.25948e-07
-2.5392e-06
8.55538e-08
-2.53421e-06
-5.63819e-08
-2.51251e-06
-1.98206e-07
-2.47424e-06
-3.38228e-07
-2.41969e-06
-4.7472e-07
-2.34933e-06
-6.05923e-07
-2.26383e-06
-7.30055e-07
-2.16404e-06
-8.45321e-07
-2.051e-06
-9.49932e-07
-1.92597e-06
-1.04213e-06
-1.79041e-06
-1.12019e-06
-1.64597e-06
-1.18252e-06
-1.49454e-06
-1.2276e-06
-1.33816e-06
-1.25411e-06
-1.17907e-06
-1.26094e-06
-1.01969e-06
-1.24724e-06
-8.62564e-07
-1.21249e-06
-7.10342e-07
-1.15654e-06
-5.65769e-07
-1.07964e-06
-4.31635e-07
-9.82557e-07
-3.10745e-07
-8.6653e-07
-2.05881e-07
-7.3337e-07
-1.19775e-07
-5.85457e-07
-5.50772e-08
-4.25742e-07
-1.43414e-08
-2.57715e-07
-8.55658e-08
-1.5911e-08
1.05924e-07
-6.04992e-08
3.11684e-07
-1.30587e-07
5.06727e-07
-2.22999e-07
6.87499e-07
-3.34588e-07
8.51226e-07
-4.62257e-07
9.95714e-07
-6.02979e-07
1.11934e-06
-7.53817e-07
1.22103e-06
-9.11943e-07
1.30018e-06
-1.07465e-06
1.35662e-06
-1.23938e-06
1.39055e-06
-1.40371e-06
1.40247e-06
-1.56539e-06
1.39318e-06
-1.7223e-06
1.36365e-06
-1.87254e-06
1.31504e-06
-2.01433e-06
1.24864e-06
-2.14608e-06
1.16585e-06
-2.26635e-06
1.06811e-06
-2.37388e-06
9.56961e-07
-2.46753e-06
8.33964e-07
-2.54636e-06
7.00722e-07
-2.60955e-06
5.58867e-07
-2.65642e-06
4.10061e-07
-2.68648e-06
2.56001e-07
-2.69934e-06
9.84141e-08
-2.69479e-06
-6.09312e-08
-2.67277e-06
-2.20226e-07
-2.63338e-06
-3.77618e-07
-2.57689e-06
-5.3121e-07
-2.50374e-06
-6.79067e-07
-2.41458e-06
-8.19218e-07
-2.31023e-06
-9.49672e-07
-2.19173e-06
-1.06843e-06
-2.06033e-06
-1.17352e-06
-1.91751e-06
-1.26302e-06
-1.76496e-06
-1.33507e-06
-1.6046e-06
-1.38795e-06
-1.43859e-06
-1.42012e-06
-1.26926e-06
-1.43026e-06
-1.09918e-06
-1.41732e-06
-9.31065e-07
-1.38061e-06
-7.6778e-07
-1.31982e-06
-6.12311e-07
-1.23511e-06
-4.67722e-07
-1.12715e-06
-3.37112e-07
-9.97139e-07
-2.23582e-07
-8.469e-07
-1.30188e-07
-6.78851e-07
-5.9908e-08
-4.96022e-07
-1.56068e-08
-3.02016e-07
-1.01173e-07
-1.71177e-08
1.23042e-07
-6.50488e-08
3.59615e-07
-1.40312e-07
5.8199e-07
-2.39416e-07
7.86604e-07
-3.58904e-07
9.70713e-07
-4.95377e-07
1.13219e-06
-6.4553e-07
1.2695e-06
-8.06173e-07
1.38168e-06
-9.74254e-07
1.46826e-06
-1.14687e-06
1.52924e-06
-1.32131e-06
1.56498e-06
-1.49501e-06
1.57617e-06
-1.66561e-06
1.56378e-06
-1.83093e-06
1.52898e-06
-1.989e-06
1.47311e-06
-2.13801e-06
1.39765e-06
-2.27634e-06
1.30417e-06
-2.40254e-06
1.19431e-06
-2.51534e-06
1.06976e-06
-2.61361e-06
9.32238e-07
-2.6964e-06
7.83511e-07
-2.76289e-06
6.25357e-07
-2.81242e-06
4.59586e-07
-2.84445e-06
2.88035e-07
-2.85861e-06
1.12576e-07
-2.85467e-06
-6.48764e-08
-2.83253e-06
-2.42365e-07
-2.79227e-06
-4.1788e-07
-2.73411e-06
-5.89361e-07
-2.65849e-06
-7.54695e-07
-2.56598e-06
-9.11726e-07
-2.45739e-06
-1.05826e-06
-2.33373e-06
-1.19209e-06
-2.19625e-06
-1.31101e-06
-2.04641e-06
-1.41286e-06
-1.88593e-06
-1.49554e-06
-1.7168e-06
-1.55709e-06
-1.54121e-06
-1.59571e-06
-1.36164e-06
-1.60983e-06
-1.18078e-06
-1.59819e-06
-1.00153e-06
-1.55986e-06
-8.26978e-07
-1.49437e-06
-6.60365e-07
-1.40173e-06
-5.05041e-07
-1.28247e-06
-3.64421e-07
-1.13776e-06
-2.41941e-07
-9.6938e-07
-1.41004e-07
-7.79788e-07
-6.49333e-08
-5.72092e-07
-1.6926e-08
-3.50023e-07
-1.18099e-07
-1.83528e-08
1.41395e-07
-6.96954e-08
4.10957e-07
-1.50227e-07
6.62522e-07
-2.5613e-07
8.92507e-07
-3.83621e-07
1.0982e-06
-5.2899e-07
1.27756e-06
-6.88643e-07
1.42915e-06
-8.59127e-07
1.55216e-06
-1.03716e-06
1.6463e-06
-1.21965e-06
1.71173e-06
-1.4037e-06
1.74903e-06
-1.58663e-06
1.75911e-06
-1.76599e-06
1.74314e-06
-1.93953e-06
1.70251e-06
-2.1052e-06
1.63879e-06
-2.26119e-06
1.55364e-06
-2.40587e-06
1.44884e-06
-2.53777e-06
1.32622e-06
-2.65563e-06
1.18762e-06
-2.75835e-06
1.03496e-06
-2.84497e-06
8.7013e-07
-2.91469e-06
6.95073e-07
-2.96683e-06
5.11734e-07
-3.00089e-06
3.22088e-07
-3.01645e-06
1.28142e-07
-3.01328e-06
-6.8054e-08
-2.99124e-06
-2.644e-07
-2.95038e-06
-4.58738e-07
-2.8909e-06
-6.48849e-07
-2.81314e-06
-8.3245e-07
-2.71767e-06
-1.0072e-06
-2.60524e-06
-1.17069e-06
-2.47681e-06
-1.32052e-06
-2.3336e-06
-1.45422e-06
-2.17706e-06
-1.56939e-06
-2.00893e-06
-1.66367e-06
-1.83121e-06
-1.73481e-06
-1.64618e-06
-1.78074e-06
-1.45641e-06
-1.7996e-06
-1.26473e-06
-1.78987e-06
-1.07422e-06
-1.75037e-06
-8.88207e-07
-1.68039e-06
-7.1019e-07
-1.57974e-06
-5.43825e-07
-1.44884e-06
-3.92865e-07
-1.28872e-06
-2.61104e-07
-1.10114e-06
-1.52318e-07
-8.88574e-07
-7.02022e-08
-6.54208e-07
-1.83136e-08
-4.01912e-07
-1.36412e-07
-1.96245e-08
1.61019e-07
-7.44666e-08
4.65799e-07
-1.60387e-07
7.48442e-07
-2.73219e-07
1.00534e-06
-4.08838e-07
1.23382e-06
-5.63209e-07
1.43193e-06
-7.32432e-07
1.59837e-06
-9.12782e-07
1.73251e-06
-1.10074e-06
1.83425e-06
-1.29301e-06
1.904e-06
-1.48653e-06
1.94256e-06
-1.67851e-06
1.95109e-06
-1.86639e-06
1.93102e-06
-2.04785e-06
1.88398e-06
-2.22084e-06
1.81177e-06
-2.38349e-06
1.7163e-06
-2.53418e-06
1.59954e-06
-2.67148e-06
1.46351e-06
-2.79413e-06
1.31027e-06
-2.90105e-06
1.14188e-06
-2.99131e-06
9.60389e-07
-3.06412e-06
7.67884e-07
-3.11883e-06
5.66445e-07
-3.15492e-06
3.58173e-07
-3.17198e-06
1.45202e-07
-3.16974e-06
-7.02942e-08
-3.14805e-06
-2.86085e-07
-3.10691e-06
-4.99877e-07
-3.04646e-06
-7.09299e-07
-2.96701e-06
-9.11905e-07
-2.86903e-06
-1.10517e-06
-2.75323e-06
-1.2865e-06
-2.62051e-06
-1.45324e-06
-2.47203e-06
-1.6027e-06
-2.30923e-06
-1.7322e-06
-2.13382e-06
-1.83909e-06
-1.94781e-06
-1.92082e-06
-1.75355e-06
-1.975e-06
-1.55369e-06
-1.99946e-06
-1.3512e-06
-1.99236e-06
-1.14935e-06
-1.95221e-06
-9.51698e-07
-1.87804e-06
-7.62016e-07
-1.76942e-06
-5.84288e-07
-1.62656e-06
-4.22625e-07
-1.45038e-06
-2.81209e-07
-1.24256e-06
-1.64221e-07
-1.00556e-06
-7.57615e-08
-7.42668e-07
-1.9783e-08
-4.5789e-07
-1.56195e-07
-2.09405e-08
1.8196e-07
-7.93883e-08
5.24247e-07
-1.70839e-07
8.39892e-07
-2.90756e-07
1.12526e-06
-4.34647e-07
1.37771e-06
-5.98131e-07
1.59541e-06
-7.76989e-07
1.77723e-06
-9.67209e-07
1.92273e-06
-1.16503e-06
2.03207e-06
-1.36694e-06
2.10591e-06
-1.56973e-06
2.14535e-06
-1.77048e-06
2.15184e-06
-1.96654e-06
2.12708e-06
-2.15556e-06
2.07299e-06
-2.33543e-06
1.99165e-06
-2.50432e-06
1.88519e-06
-2.66061e-06
1.75583e-06
-2.80289e-06
1.60579e-06
-2.92995e-06
1.43733e-06
-3.04074e-06
1.25267e-06
-3.13437e-06
1.05402e-06
-3.21008e-06
8.43597e-07
-3.26725e-06
6.23609e-07
-3.30535e-06
3.96272e-07
-3.32398e-06
1.63833e-07
-3.32285e-06
-7.1425e-08
-3.30178e-06
-3.07156e-07
-3.26071e-06
-5.40942e-07
-3.19973e-06
-7.70278e-07
-3.11907e-06
-9.92564e-07
-3.01915e-06
-1.2051e-06
-2.90056e-06
-1.40509e-06
-2.76414e-06
-1.58965e-06
-2.61098e-06
-1.75585e-06
-2.44246e-06
-1.90072e-06
-2.26025e-06
-2.02129e-06
-2.06638e-06
-2.11469e-06
-1.86321e-06
-2.17817e-06
-1.65348e-06
-2.2092e-06
-1.44028e-06
-2.20556e-06
-1.22707e-06
-2.16542e-06
-1.01763e-06
-2.08748e-06
-8.1604e-07
-1.97102e-06
-6.26618e-07
-1.81599e-06
-4.53866e-07
-1.62313e-06
-3.02386e-07
-1.39404e-06
-1.76799e-07
-1.13115e-06
-8.16562e-08
-8.37811e-07
-2.13478e-08
-5.18199e-07
-1.77543e-07
-2.23081e-08
2.04268e-07
-8.44858e-08
5.86425e-07
-1.81632e-07
9.37039e-07
-3.08808e-07
1.25243e-06
-4.61129e-07
1.53003e-06
-6.33841e-07
1.76812e-06
-8.22384e-07
1.96577e-06
-1.02245e-06
2.12279e-06
-1.23001e-06
2.23963e-06
-1.44136e-06
2.31726e-06
-1.65313e-06
2.35712e-06
-1.86227e-06
2.36098e-06
-2.06607e-06
2.33088e-06
-2.26213e-06
2.26906e-06
-2.44836e-06
2.17787e-06
-2.62292e-06
2.05975e-06
-2.78424e-06
1.91715e-06
-2.93097e-06
1.75252e-06
-3.06194e-06
1.5683e-06
-3.17616e-06
1.36689e-06
-3.2728e-06
1.15066e-06
-3.35114e-06
9.21938e-07
-3.41059e-06
6.83053e-07
-3.45064e-06
4.36323e-07
-3.47089e-06
1.84087e-07
-3.47104e-06
-7.12759e-08
-3.45087e-06
-3.27326e-07
-3.41028e-06
-5.81538e-07
-3.34927e-06
-8.3129e-07
-3.26799e-06
-1.07384e-06
-3.16676e-06
-1.30633e-06
-3.04609e-06
-1.52576e-06
-2.9067e-06
-1.72904e-06
-2.7496e-06
-1.91296e-06
-2.57606e-06
-2.07425e-06
-2.38771e-06
-2.20964e-06
-2.18654e-06
-2.31586e-06
-1.97493e-06
-2.38978e-06
-1.75566e-06
-2.42846e-06
-1.53196e-06
-2.42926e-06
-1.30744e-06
-2.38994e-06
-1.08613e-06
-2.30879e-06
-8.72421e-07
-2.18473e-06
-6.70985e-07
-2.01742e-06
-4.86743e-07
-1.80738e-06
-3.24758e-07
-1.55602e-06
-1.90137e-07
-1.26577e-06
-8.79306e-08
-9.40017e-07
-2.30209e-08
-5.83109e-07
-2.00564e-07
-2.3735e-08
2.28003e-07
-8.97849e-08
6.52475e-07
-1.92815e-07
1.04007e-06
-3.27446e-07
1.38706e-06
-4.88364e-07
1.69095e-06
-6.70413e-07
1.95017e-06
-8.6867e-07
2.16403e-06
-1.0785e-06
2.33263e-06
-1.29563e-06
2.45676e-06
-1.51613e-06
2.53776e-06
-1.73646e-06
2.57746e-06
-1.95349e-06
2.57801e-06
-2.16445e-06
2.54183e-06
-2.3669e-06
2.47152e-06
-2.55878e-06
2.36975e-06
-2.7383e-06
2.23927e-06
-2.90394e-06
2.08279e-06
-3.05443e-06
1.903e-06
-3.18867e-06
1.70254e-06
-3.30576e-06
1.48398e-06
-3.40493e-06
1.24983e-06
-3.48553e-06
1.00254e-06
-3.547e-06
7.44529e-07
-3.58889e-06
4.78208e-07
-3.61079e-06
2.05987e-07
-3.61238e-06
-6.96841e-08
-3.59342e-06
-3.4629e-07
-3.55373e-06
-6.21226e-07
-3.49325e-06
-8.91768e-07
-3.41203e-06
-1.15506e-06
-3.31028e-06
-1.40808e-06
-3.18837e-06
-1.64767e-06
-3.0469e-06
-1.8705e-06
-2.88675e-06
-2.07311e-06
-2.70908e-06
-2.25192e-06
-2.51542e-06
-2.4033e-06
-2.3077e-06
-2.52358e-06
-2.08828e-06
-2.6092e-06
-1.85998e-06
-2.65676e-06
-1.6261e-06
-2.66313e-06
-1.39045e-06
-2.6256e-06
-1.15728e-06
-2.54196e-06
-9.31281e-07
-2.41073e-06
-7.17531e-07
-2.23117e-06
-5.21396e-07
-2.00351e-06
-3.48442e-07
-1.72898e-06
-2.04317e-07
-1.4099e-06
-9.46289e-08
-1.04971e-06
-2.48157e-08
-6.52922e-07
-2.2538e-07
-2.52298e-08
2.53233e-07
-9.53142e-08
7.22559e-07
-2.04439e-07
1.14919e-06
-3.4674e-07
1.52936e-06
-5.16432e-07
1.86065e-06
-7.07921e-07
2.14166e-06
-9.15888e-07
2.372e-06
-1.13537e-06
2.55211e-06
-1.36179e-06
2.68318e-06
-1.59103e-06
2.767e-06
-1.8194e-06
2.80583e-06
-2.04366e-06
2.80227e-06
-2.26101e-06
2.75918e-06
-2.46903e-06
2.67953e-06
-2.66568e-06
2.5664e-06
-2.84925e-06
2.42284e-06
-3.01831e-06
2.25185e-06
-3.17168e-06
2.05638e-06
-3.30839e-06
1.83925e-06
-3.42763e-06
1.60322e-06
-3.52872e-06
1.35092e-06
-3.61109e-06
1.08491e-06
-3.67426e-06
8.07696e-07
-3.71779e-06
5.21742e-07
-3.74132e-06
2.29511e-07
-3.7445e-06
-6.65006e-08
-3.72706e-06
-3.63732e-07
-3.68877e-06
-6.59521e-07
-3.62946e-06
-9.51074e-07
-3.54908e-06
-1.23543e-06
-3.4477e-06
-1.50946e-06
-3.32555e-06
-1.76983e-06
-3.18306e-06
-2.01299e-06
-3.02096e-06
-2.23522e-06
-2.84025e-06
-2.43263e-06
-2.64233e-06
-2.60121e-06
-2.42903e-06
-2.73688e-06
-2.20265e-06
-2.83559e-06
-1.966e-06
-2.89341e-06
-1.72247e-06
-2.90667e-06
-1.476e-06
-2.87207e-06
-1.23106e-06
-2.78689e-06
-9.92699e-07
-2.64909e-06
-7.66377e-07
-2.45749e-06
-5.57955e-07
-2.21193e-06
-3.73553e-07
-1.91338e-06
-2.19421e-07
-1.56403e-06
-1.01796e-07
-1.16733e-06
-2.67462e-08
-7.27972e-07
-2.52126e-07
-2.68023e-08
2.80035e-07
-1.01106e-07
7.96863e-07
-2.16565e-07
1.26465e-06
-3.66772e-07
1.67957e-06
-5.45423e-07
2.0393e-06
-7.46437e-07
2.34268e-06
-9.64068e-07
2.58963e-06
-1.19299e-06
2.78103e-06
-1.42834e-06
2.91853e-06
-1.66579e-06
3.00444e-06
-1.90149e-06
3.04154e-06
-2.13215e-06
3.03293e-06
-2.35494e-06
2.98196e-06
-2.56748e-06
2.89207e-06
-2.7678e-06
2.76673e-06
-2.9543e-06
2.60934e-06
-3.12567e-06
2.42322e-06
-3.28087e-06
2.21157e-06
-3.41905e-06
1.97743e-06
-3.53954e-06
1.72371e-06
-3.64178e-06
1.45316e-06
-3.72531e-06
1.16844e-06
-3.78972e-06
8.72105e-07
-3.83464e-06
5.66659e-07
-3.85971e-06
2.54587e-07
-3.86461e-06
-6.15989e-08
-3.84902e-06
-3.79323e-07
-3.81265e-06
-6.959e-07
-3.75522e-06
-1.00849e-06
-3.67657e-06
-1.31408e-06
-3.57661e-06
-1.60943e-06
-3.45538e-06
-1.89105e-06
-3.31314e-06
-2.15522e-06
-3.1504e-06
-2.39796e-06
-2.96799e-06
-2.61505e-06
-2.76711e-06
-2.80209e-06
-2.54945e-06
-2.95454e-06
-2.3172e-06
-3.06784e-06
-2.07313e-06
-3.13747e-06
-1.82067e-06
-3.15913e-06
-1.56386e-06
-3.12888e-06
-1.30743e-06
-3.04333e-06
-1.05671e-06
-2.89981e-06
-8.1762e-07
-2.69658e-06
-5.96541e-07
-2.43301e-06
-4.00204e-07
-2.10971e-06
-2.35536e-07
-1.7287e-06
-1.09481e-07
-1.29339e-06
-2.88271e-08
-8.08625e-07
-2.80953e-07
-2.84646e-08
3.085e-07
-1.07201e-07
8.756e-07
-2.29264e-07
1.38671e-06
-3.8764e-07
1.83795e-06
-5.75439e-07
2.2271e-06
-7.86045e-07
2.55328e-06
-1.01324e-06
2.81683e-06
-1.25131e-06
3.0191e-06
-1.4951e-06
3.16232e-06
-1.74005e-06
3.24939e-06
-1.98221e-06
3.28369e-06
-2.21821e-06
3.26893e-06
-2.44525e-06
3.209e-06
-2.66102e-06
3.10784e-06
-2.86366e-06
2.96937e-06
-3.05172e-06
2.79739e-06
-3.22404e-06
2.59554e-06
-3.37975e-06
2.36729e-06
-3.5182e-06
2.11587e-06
-3.63885e-06
1.84436e-06
-3.7413e-06
1.55562e-06
-3.82522e-06
1.25236e-06