/*--------------------------------*- C++ -*----------------------------------*\
  =========                 |
  \\      /  F ield         | OpenFOAM: The Open Source CFD Toolbox
   \\    /   O peration     | Website:  https://openfoam.org
    \\  /    A nd           | Version:  7
     \\/     M anipulation  |
\*---------------------------------------------------------------------------*/
FoamFile
{
    version     2.0;
    format      ascii;
    class       volVectorField;
    location    "0.0044";
    object      U;
}
// * * * * * * * * * * * * * * * * * * * * * * * * * * * * * * * * * * * * * //

dimensions      [0 1 -1 0 0 0 0];

internalField   nonuniform List<vector> 
2500
(
(1.99031e-05 -2.01291e-05 0)
(2.13209e-05 7.72459e-07 0)
(-5.65435e-05 3.02592e-05 0)
(-0.000206029 5.42123e-05 0)
(-0.000409555 7.06723e-05 0)
(-0.000649976 8.06676e-05 0)
(-0.000912476 8.57828e-05 0)
(-0.00118561 8.7475e-05 0)
(-0.00146108 8.68692e-05 0)
(-0.00173308 8.47559e-05 0)
(-0.00199758 8.16566e-05 0)
(-0.00225178 7.78947e-05 0)
(-0.00249368 7.36602e-05 0)
(-0.00272176 6.90593e-05 0)
(-0.00293481 6.41504e-05 0)
(-0.00313181 5.89677e-05 0)
(-0.00331186 5.35349e-05 0)
(-0.00347415 4.78726e-05 0)
(-0.00361796 4.20019e-05 0)
(-0.00374266 3.59458e-05 0)
(-0.00384767 2.97288e-05 0)
(-0.00393254 2.33766e-05 0)
(-0.00399688 1.6916e-05 0)
(-0.00404038 1.03745e-05 0)
(-0.00406284 3.77992e-06 0)
(-0.00406414 -2.83918e-06 0)
(-0.00404425 -9.45444e-06 0)
(-0.00400323 -1.60375e-05 0)
(-0.00394124 -2.25593e-05 0)
(-0.00385852 -2.8991e-05 0)
(-0.00375541 -3.53044e-05 0)
(-0.00363234 -4.14716e-05 0)
(-0.00348982 -4.74655e-05 0)
(-0.00332847 -5.32607e-05 0)
(-0.00314899 -5.88331e-05 0)
(-0.00295216 -6.41583e-05 0)
(-0.00273889 -6.92085e-05 0)
(-0.00251021 -7.39453e-05 0)
(-0.00226736 -7.83057e-05 0)
(-0.00201187 -8.21785e-05 0)
(-0.00174581 -8.53676e-05 0)
(-0.00147203 -8.75433e-05 0)
(-0.00119465 -8.81795e-05 0)
(-0.000919581 -8.64819e-05 0)
(-0.000655203 -8.13252e-05 0)
(-0.000413071 -7.12552e-05 0)
(-0.000208095 -5.46954e-05 0)
(-5.74272e-05 -3.06327e-05 0)
(2.11587e-05 -1.08663e-06 0)
(2.01057e-05 2.0041e-05 0)
(-7.86458e-07 -2.13814e-05 0)
(-9.19408e-05 9.21617e-05 0)
(-0.000354495 0.000228536 0)
(-0.000764581 0.000343668 0)
(-0.00129081 0.000428241 0)
(-0.00190106 0.000483709 0)
(-0.00256498 0.000515076 0)
(-0.00325714 0.000528009 0)
(-0.00395784 0.000527501 0)
(-0.00465238 0.000517461 0)
(-0.00533005 0.000500721 0)
(-0.00598305 0.000479213 0)
(-0.00660564 0.000454193 0)
(-0.00719345 0.000426451 0)
(-0.00774297 0.000396482 0)
(-0.00825133 0.000364608 0)
(-0.00871602 0.000331058 0)
(-0.00913489 0.000296017 0)
(-0.00950602 0.000259651 0)
(-0.00982773 0.000222125 0)
(-0.0100986 0.000183602 0)
(-0.0103174 0.00014425 0)
(-0.0104831 0.000104237 0)
(-0.010595 6.37345e-05 0)
(-0.0106526 2.29162e-05 0)
(-0.0106555 -1.80436e-05 0)
(-0.0106037 -5.89694e-05 0)
(-0.0104973 -9.96849e-05 0)
(-0.0103368 -0.000140013 0)
(-0.0101229 -0.000179775 0)
(-0.00985628 -0.000218793 0)
(-0.0095382 -0.000256891 0)
(-0.00916999 -0.000293892 0)
(-0.00875325 -0.000329617 0)
(-0.00828985 -0.000363885 0)
(-0.00778193 -0.000396491 0)
(-0.00723196 -0.000427186 0)
(-0.00664287 -0.000455627 0)
(-0.00601818 -0.000481293 0)
(-0.00536236 -0.000503368 0)
(-0.00468126 -0.000520567 0)
(-0.00398281 -0.00053093 0)
(-0.00327791 -0.0005316 0)
(-0.00258145 -0.000518651 0)
(-0.00191336 -0.000487083 0)
(-0.00129926 -0.000431239 0)
(-0.0007697 -0.000346131 0)
(-0.000356949 -0.000230341 0)
(-9.25648e-05 -9.32576e-05 0)
(-6.75725e-07 2.13235e-05 0)
(-2.96119e-05 5.56243e-05 0)
(-0.000227537 0.000354462 0)
(-0.000673506 0.00067339 0)
(-0.00131402 0.000944654 0)
(-0.0021058 0.00114946 0)
(-0.00300915 0.00128829 0)
(-0.00398544 0.00136999 0)
(-0.00500117 0.00140608 0)
(-0.00602948 0.00140759 0)
(-0.00704973 0.00138367 0)
(-0.00804637 0.00134131 0)
(-0.0090078 0.00128548 0)
(-0.00992529 0.00121959 0)
(-0.0107921 0.00114586 0)
(-0.0116028 0.00106576 0)
(-0.0123529 0.000980279 0)
(-0.0130387 0.000890128 0)
(-0.0136568 0.000795874 0)
(-0.0142044 0.000698013 0)
(-0.0146791 0.000597013 0)
(-0.0150786 0.000493333 0)
(-0.0154012 0.00038743 0)
(-0.0156454 0.000279765 0)
(-0.0158102 0.0001708 0)
(-0.0158947 6.10016e-05 0)
(-0.0158986 -4.91631e-05 0)
(-0.0158217 -0.000159223 0)
(-0.0156643 -0.000268705 0)
(-0.015427 -0.000377133 0)
(-0.0151108 -0.000484029 0)
(-0.014717 -0.000588912 0)
(-0.0142471 -0.000691298 0)
(-0.0137034 -0.000790699 0)
(-0.0130881 -0.000886612 0)
(-0.012404 -0.000978501 0)
(-0.0116545 -0.00106575 0)
(-0.0108433 -0.00114761 0)
(-0.00997479 -0.00122303 0)
(-0.00905456 -0.00129049 0)
(-0.00808942 -0.00134769 0)
(-0.00708827 -0.00139116 0)
(-0.00606289 -0.00141586 0)
(-0.00502906 -0.00141476 0)
(-0.00400769 -0.00137864 0)
(-0.0030259 -0.00129648 0)
(-0.00211746 -0.00115678 0)
(-0.00132127 -0.000950709 0)
(-0.000677226 -0.000677868 0)
(-0.000228828 -0.000357119 0)
(-2.97628e-05 -5.62276e-05 0)
(-5.33699e-05 0.000204177 0)
(-0.000344247 0.000765692 0)
(-0.000951387 0.00131509 0)
(-0.00178856 0.00177668 0)
(-0.00279892 0.00212697 0)
(-0.00393668 0.00236714 0)
(-0.00515789 0.00251063 0)
(-0.00642418 0.00257541 0)
(-0.00770441 0.00257925 0)
(-0.0089742 0.00253734 0)
(-0.0102149 0.0024616 0)
(-0.0114121 0.00236075 0)
(-0.0125551 0.00224091 0)
(-0.0136353 0.00210621 0)
(-0.0146458 0.00195942 0)
(-0.0155809 0.00180246 0)
(-0.0164358 0.00163675 0)
(-0.0172063 0.00146338 0)
(-0.017889 0.00128332 0)
(-0.0184805 0.00109748 0)
(-0.0189783 0.000906707 0)
(-0.0193802 0.000711864 0)
(-0.0196843 0.0005138 0)
(-0.0198893 0.000313368 0)
(-0.0199943 0.000111423 0)
(-0.0199987 -9.11766e-05 0)
(-0.0199024 -0.000293568 0)
(-0.0197058 -0.000494885 0)
(-0.0194096 -0.000694254 0)
(-0.0190151 -0.000890795 0)
(-0.0185237 -0.00108362 0)
(-0.0179377 -0.00127184 0)
(-0.0172595 -0.00145452 0)
(-0.0164922 -0.00163073 0)
(-0.0156393 -0.00179941 0)
(-0.0147048 -0.0019594 0)
(-0.0136937 -0.00210919 0)
(-0.0126116 -0.00224679 0)
(-0.0114655 -0.0023693 0)
(-0.010264 -0.00247247 0)
(-0.00901821 -0.00255011 0)
(-0.00774257 -0.00259335 0)
(-0.00645606 -0.0025902 0)
(-0.00518336 -0.00252539 0)
(-0.00395589 -0.00238113 0)
(-0.00281235 -0.00213947 0)
(-0.00179698 -0.00178706 0)
(-0.00095578 -0.00132282 0)
(-0.000345839 -0.000770376 0)
(-5.36118e-05 -0.000205504 0)
(-7.03349e-05 0.000408101 0)
(-0.000434408 0.0012988 0)
(-0.00117361 0.00211721 0)
(-0.0021722 0.00279233 0)
(-0.00335977 0.00330256 0)
(-0.00468454 0.00365306 0)
(-0.00609823 0.00386333 0)
(-0.00755909 0.00395848 0)
(-0.00903331 0.0039634 0)
(-0.0104942 0.00389971 0)
(-0.011921 0.00378458 0)
(-0.0132978 0.0036308 0)
(-0.0146123 0.00344749 0)
(-0.0158546 0.00324094 0)
(-0.0170167 0.00301546 0)
(-0.0180922 0.00277407 0)
(-0.0190754 0.00251903 0)
(-0.0199615 0.00225211 0)
(-0.0207464 0.00197485 0)
(-0.0214264 0.00168866 0)
(-0.0219986 0.00139491 0)
(-0.0224605 0.00109491 0)
(-0.0228099 0.000789986 0)
(-0.0230453 0.000481451 0)
(-0.0231656 0.000170614 0)
(-0.0231704 -0.000141208 0)
(-0.0230594 -0.000452694 0)
(-0.022833 -0.000762515 0)
(-0.0224922 -0.00106933 0)
(-0.0220382 -0.0013718 0)
(-0.021473 -0.00166854 0)
(-0.0207989 -0.00195817 0)
(-0.0200187 -0.00223925 0)
(-0.0191361 -0.00251029 0)
(-0.018155 -0.00276965 0)
(-0.0170802 -0.00301544 0)
(-0.0159174 -0.00324528 0)
(-0.014673 -0.00345603 0)
(-0.0133552 -0.00364321 0)
(-0.0119737 -0.00380036 0)
(-0.0105414 -0.00391823 0)
(-0.00907418 -0.00398385 0)
(-0.0075932 -0.00397992 0)
(-0.00612541 -0.00388472 0)
(-0.004705 -0.00367333 0)
(-0.00337404 -0.00332069 0)
(-0.00218111 -0.00280741 0)
(-0.00117824 -0.0021285 0)
(-0.000436067 -0.00130574 0)
(-7.05865e-05 -0.000410303 0)
(-8.17354e-05 0.000652853 0)
(-0.00050067 0.00192792 0)
(-0.00134368 0.00304948 0)
(-0.00247136 0.00395811 0)
(-0.0038012 0.00463948 0)
(-0.00527537 0.0051061 0)
(-0.00684158 0.00538542 0)
(-0.00845529 0.0055107 0)
(-0.0100807 0.00551451 0)
(-0.0116895 0.00542517 0)
(-0.0132599 0.00526533 0)
(-0.0147746 0.00505206 0)
(-0.0162203 0.00479763 0)
(-0.0175865 0.00451062 0)
(-0.0188644 0.00419703 0)
(-0.0200469 0.0038611 0)
(-0.0211278 0.00350603 0)
(-0.0221018 0.00313434 0)
(-0.0229644 0.00274824 0)
(-0.0237117 0.00234973 0)
(-0.0243404 0.00194072 0)
(-0.0248477 0.00152306 0)
(-0.0252314 0.0010986 0)
(-0.0254899 0.000669148 0)
(-0.0256219 0.000236534 0)
(-0.0256269 -0.000197426 0)
(-0.0255048 -0.000630905 0)
(-0.0252559 -0.00106206 0)
(-0.0248812 -0.00148905 0)
(-0.0243822 -0.00190999 0)
(-0.0237609 -0.00232298 0)
(-0.0230199 -0.00272607 0)
(-0.0221623 -0.00311726 0)
(-0.0211919 -0.00349443 0)
(-0.0201133 -0.00385525 0)
(-0.0189315 -0.00419704 0)
(-0.0176528 -0.00451644 0)
(-0.0162843 -0.00480902 0)
(-0.0148349 -0.00506859 0)
(-0.0133153 -0.00528636 0)
(-0.0117391 -0.00544982 0)
(-0.0101235 -0.00554171 0)
(-0.00849095 -0.0055392 0)
(-0.0068699 -0.00541384 0)
(-0.00529658 -0.00513301 0)
(-0.00381589 -0.00466354 0)
(-0.00248045 -0.00397811 0)
(-0.00134832 -0.00306445 0)
(-0.000502278 -0.00193717 0)
(-8.19601e-05 -0.000655903 0)
(-8.92657e-05 0.000926568 0)
(-0.000548758 0.00263012 0)
(-0.00147233 0.00408428 0)
(-0.00270279 0.00524419 0)
(-0.00414742 0.00610642 0)
(-0.00574269 0.00669363 0)
(-0.00743235 0.00704314 0)
(-0.00916924 0.00719748 0)
(-0.0109158 0.00719756 0)
(-0.0126426 0.00707877 0)
(-0.0143266 0.00686949 0)
(-0.0159502 0.00659114 0)
(-0.0174993 0.00625929 0)
(-0.0189626 0.0058849 0)
(-0.0203311 0.00547571 0)
(-0.021597 0.00503727 0)
(-0.022754 0.00457378 0)
(-0.0237963 0.0040886 0)
(-0.0247193 0.00358463 0)
(-0.0255187 0.00306453 0)
(-0.0261912 0.00253079 0)
(-0.0267337 0.00198586 0)
(-0.027144 0.00143212 0)
(-0.0274204 0.000871937 0)
(-0.0275615 0.00030767 0)
(-0.0275668 -0.000258324 0)
(-0.0274362 -0.000823681 0)
(-0.02717 -0.00138603 0)
(-0.0267693 -0.00194295 0)
(-0.0262356 -0.00249203 0)
(-0.0255709 -0.00303079 0)
(-0.0247781 -0.00355668 0)
(-0.0238605 -0.00406708 0)
(-0.022822 -0.00455919 0)
(-0.0216673 -0.00502994 0)
(-0.0204021 -0.00547578 0)
(-0.0190328 -0.0058923 0)
(-0.017567 -0.00627373 0)
(-0.016014 -0.00661208 0)
(-0.0143852 -0.00689609 0)
(-0.0126948 -0.00710994 0)
(-0.0109609 -0.00723192 0)
(-0.00920664 -0.00723346 0)
(-0.00746194 -0.00707898 0)
(-0.00576472 -0.00672755 0)
(-0.00416255 -0.0061367 0)
(-0.00271203 -0.0052693 0)
(-0.00147696 -0.00410303 0)
(-0.000550296 -0.00264167 0)
(-8.94563e-05 -0.000930407 0)
(-9.44304e-05 0.00122102 0)
(-0.000584709 0.00338809 0)
(-0.0015721 0.00520005 0)
(-0.00288623 0.00662733 0)
(-0.00442605 0.00767952 0)
(-0.00612278 0.00839152 0)
(-0.00791633 0.00881215 0)
(-0.00975688 0.00899435 0)
(-0.0116052 0.00898809 0)
(-0.0134306 0.00883627 0)
(-0.0152094 0.0085732 0)
(-0.0169232 0.00822488 0)
(-0.0185575 0.00781019 0)
(-0.0201008 0.0073426 0)
(-0.0215435 0.00683161 0)
(-0.0228777 0.00628415 0)
(-0.0240966 0.00570545 0)
(-0.0251945 0.00509976 0)
(-0.0261665 0.00447072 0)
(-0.0270081 0.00382167 0)
(-0.027716 0.00315573 0)
(-0.028287 0.00247595 0)
(-0.0287188 0.00178528 0)
(-0.0290097 0.00108667 0)
(-0.0291583 0.000383019 0)
(-0.029164 -0.000322753 0)
(-0.0290267 -0.00102773 0)
(-0.0287468 -0.00172899 0)
(-0.0283253 -0.00242355 0)
(-0.0277637 -0.0031084 0)
(-0.0270643 -0.00378047 0)
(-0.0262298 -0.00443661 0)
(-0.0252635 -0.00507351 0)
(-0.0241698 -0.00568767 0)
(-0.0229533 -0.00627525 0)
(-0.0216199 -0.00683177 0)
(-0.0201763 -0.00735173 0)
(-0.0186304 -0.00782794 0)
(-0.0169918 -0.00825055 0)
(-0.0152723 -0.0086058 0)
(-0.0134866 -0.00887444 0)
(-0.0116534 -0.00903015 0)
(-0.00979682 -0.00903835 0)
(-0.00794781 -0.00885595 0)
(-0.00614611 -0.00843291 0)
(-0.00444197 -0.00771639 0)
(-0.00289584 -0.00665783 0)
(-0.00157683 -0.00522272 0)
(-0.000586222 -0.00340196 0)
(-9.45968e-05 -0.0012256 0)
(-9.83658e-05 0.00153124 0)
(-0.000613672 0.00419056 0)
(-0.00165449 0.0063824 0)
(-0.00304028 0.00809202 0)
(-0.00466312 0.00934315 0)
(-0.00644941 0.0101844 0)
(-0.00833535 0.0106774 0)
(-0.0102684 0.0108865 0)
(-0.0122076 0.0108715 0)
(-0.014121 0.0106832 0)
(-0.015984 0.0103623 0)
(-0.0177778 0.00993949 0)
(-0.0194874 0.00943705 0)
(-0.0211009 0.008871 0)
(-0.0226085 0.00825273 0)
(-0.0240022 0.00759054 0)
(-0.025275 0.00689077 0)
(-0.0264211 0.00615855 0)
(-0.0274354 0.00539833 0)
(-0.0283135 0.00461412 0)
(-0.0290518 0.00380972 0)
(-0.0296474 0.00298878 0)
(-0.0300978 0.00215485 0)
(-0.0304013 0.00131144 0)
(-0.0305564 0.00046203 0)
(-0.0305627 -0.000389913 0)
(-0.0304199 -0.00124092 0)
(-0.0301285 -0.00208748 0)
(-0.0296894 -0.00292607 0)
(-0.0291042 -0.00375309 0)
(-0.0283751 -0.00456483 0)
(-0.0275048 -0.00535751 0)
(-0.0264968 -0.00612716 0)
(-0.0253553 -0.00686953 0)
(-0.0240852 -0.00757994 0)
(-0.0226924 -0.00825299 0)
(-0.0211837 -0.00888202 0)
(-0.0195673 -0.0094584 0)
(-0.017853 -0.00997035 0)
(-0.016053 -0.0104015 0)
(-0.0141824 -0.0107291 0)
(-0.0122604 -0.010922 0)
(-0.0103121 -0.0109393 0)
(-0.00836972 -0.0107299 0)
(-0.00647481 -0.0102339 0)
(-0.00468036 -0.00938717 0)
(-0.00305063 -0.00812831 0)
(-0.00165953 -0.00640924 0)
(-0.000615245 -0.00420686 0)
(-9.85252e-05 -0.00153656 0)
(-0.000101858 0.0018548 0)
(-0.000639603 0.00503143 0)
(-0.00172883 0.0076233 0)
(-0.00318047 0.00962963 0)
(-0.00488057 0.0110889 0)
(-0.00675111 0.0120643 0)
(-0.00872462 0.0126313 0)
(-0.0107458 0.0128667 0)
(-0.0127717 0.0128408 0)
(-0.014769 0.0126129 0)
(-0.0167123 0.0122302 0)
(-0.0185821 0.0117284 0)
(-0.020363 0.0111334 0)
(-0.0220428 0.0104639 0)
(-0.0236115 0.00973309 0)
(-0.025061 0.0089508 0)
(-0.0263841 0.00812447 0)
(-0.027575 0.00726019 0)
(-0.0286286 0.00636319 0)
(-0.0295405 0.00543821 0)
(-0.030307 0.00448972 0)
(-0.0309253 0.00352198 0)
(-0.0313929 0.00253915 0)
(-0.031708 0.0015453 0)
(-0.0318694 0.000544491 0)
(-0.0318764 -0.000459276 0)
(-0.0317288 -0.00146197 0)
(-0.0314271 -0.00245954 0)
(-0.0309721 -0.00344787 0)
(-0.0303654 -0.00442277 0)
(-0.0296091 -0.00537995 0)
(-0.028706 -0.00631494 0)
(-0.0276595 -0.00722308 0)
(-0.0264737 -0.00809937 0)
(-0.0251537 -0.00893829 0)
(-0.0237052 -0.00973343 0)
(-0.0221354 -0.010477 0)
(-0.0204524 -0.0111587 0)
(-0.0186663 -0.011765 0)
(-0.0167895 -0.0122767 0)
(-0.0148377 -0.0126672 0)
(-0.0128308 -0.0129006 0)
(-0.0107947 -0.0129292 0)
(-0.00876306 -0.0126934 0)
(-0.00677949 -0.0121228 0)
(-0.00489981 -0.0111408 0)
(-0.00319199 -0.00967233 0)
(-0.00173442 -0.00765473 0)
(-0.000641335 -0.00505037 0)
(-0.00010203 -0.00186089 0)
(-0.000105421 0.00219102 0)
(-0.000665336 0.00590863 0)
(-0.00180215 0.00891991 0)
(-0.00331879 0.0112373 0)
(-0.00509564 0.0129141 0)
(-0.0070504 0.014029 0)
(-0.00911192 0.0146722 0)
(-0.011222 0.0149337 0)
(-0.0133356 0.0148948 0)
(-0.0154179 0.0146241 0)
(-0.0174424 0.0141757 0)
(-0.0193889 0.0135903 0)
(-0.0212416 0.0128979 0)
(-0.0229879 0.0121197 0)
(-0.0246178 0.0112711 0)
(-0.0261229 0.0103633 0)
(-0.027496 0.00940493 0)
(-0.0287313 0.0084031 0)
(-0.0298237 0.00736384 0)
(-0.0307688 0.00629264 0)
(-0.0315632 0.00519463 0)
(-0.0322038 0.0040747 0)
(-0.0326883 0.0029376 0)
(-0.033015 0.00178798 0)
(-0.0331827 0.000630427 0)
(-0.0331905 -0.000530512 0)
(-0.0330385 -0.00169027 0)
(-0.0327269 -0.00284425 0)
(-0.0322566 -0.00398778 0)
(-0.0316291 -0.00511609 0)
(-0.0308464 -0.00622427 0)
(-0.0299112 -0.0073072 0)
(-0.0288269 -0.00835951 0)
(-0.0275975 -0.00937543 0)
(-0.0262279 -0.0103485 0)
(-0.0247241 -0.0112714 0)
(-0.023093 -0.012135 0)
(-0.021343 -0.0129276 0)
(-0.0194845 -0.0136333 0)
(-0.0175302 -0.0142302 0)
(-0.0154961 -0.014688 0)
(-0.0134029 -0.0149652 0)
(-0.0112778 -0.0150072 0)
(-0.00915578 -0.0147452 0)
(-0.00708282 -0.0140978 0)
(-0.00511764 -0.012975 0)
(-0.00333198 -0.0112872 0)
(-0.00180858 -0.00895653 0)
(-0.000667333 -0.00593056 0)
(-0.000105623 -0.002198 0)
(-0.000109375 0.00254049 0)
(-0.000692815 0.00682302 0)
(-0.00187951 0.0102734 0)
(-0.00346407 0.0129165 0)
(-0.0053212 0.0148208 0)
(-0.00736427 0.0160812 0)
(-0.00951831 0.0168031 0)
(-0.0117221 0.0170905 0)
(-0.0139281 0.0170368 0)
(-0.0161001 0.0167199 0)
(-0.0182102 0.0162015 0)
(-0.0202375 0.0155278 0)
(-0.0221657 0.0147326 0)
(-0.0239818 0.0138403 0)
(-0.0256755 0.0128682 0)
(-0.0272385 0.0118291 0)
(-0.0286636 0.010733 0)
(-0.0299448 0.00958795 0)
(-0.0310773 0.00840079 0)
(-0.0320567 0.00717778 0)
(-0.0328796 0.00592473 0)
(-0.0335432 0.00464717 0)
(-0.0340452 0.00335041 0)
(-0.0343838 0.00203966 0)
(-0.034558 0.000720028 0)
(-0.034567 -0.000603424 0)
(-0.0344106 -0.00192562 0)
(-0.0340891 -0.00324144 0)
(-0.0336034 -0.00454567 0)
(-0.0329549 -0.00583299 0)
(-0.0321453 -0.00709787 0)
(-0.0311773 -0.00833455 0)
(-0.0300541 -0.00953693 0)
(-0.0287796 -0.0106985 0)
(-0.0273587 -0.0118118 0)
(-0.0257972 -0.0128685 0)
(-0.0241022 -0.0138581 0)
(-0.0222821 -0.0147673 0)
(-0.0203474 -0.015578 0)
(-0.0183112 -0.0162653 0)
(-0.0161901 -0.0167947 0)
(-0.0140058 -0.0171191 0)
(-0.0117864 -0.0171765 0)
(-0.00956905 -0.0168885 0)
(-0.00740185 -0.0161616 0)
(-0.00534678 -0.014892 0)
(-0.00347946 -0.0129747 0)
(-0.00188704 -0.010316 0)
(-0.000695182 -0.00684843 0)
(-0.000109623 -0.00254849 0)
(-0.00011391 0.00290455 0)
(-0.000723336 0.00777758 0)
(-0.00196441 0.0116877 0)
(-0.00362264 0.0146721 0)
(-0.00556666 0.0168147 0)
(-0.00770525 0.0182268 0)
(-0.00995941 0.0190302 0)
(-0.0122646 0.0193436 0)
(-0.0145707 0.019273 0)
(-0.0168397 0.0189064 0)
(-0.0190424 0.0183133 0)
(-0.0211569 0.0175459 0)
(-0.0231663 0.0166423 0)
(-0.0250573 0.0156297 0)
(-0.0268195 0.0145279 0)
(-0.0284443 0.0133514 0)
(-0.0299247 0.0121114 0)
(-0.0312548 0.0108169 0)
(-0.0324297 0.0094758 0)
(-0.0334453 0.00809506 0)
(-0.0342984 0.00668117 0)
(-0.0349861 0.00524027 0)
(-0.0355064 0.00377825 0)
(-0.0358577 0.00230082 0)
(-0.0360389 0.000813591 0)
(-0.0360492 -0.000677898 0)
(-0.0358884 -0.00216809 0)
(-0.0355569 -0.00365139 0)
(-0.0350552 -0.00512208 0)
(-0.0343847 -0.00657428 0)
(-0.033547 -0.00800188 0)
(-0.0325446 -0.00939849 0)
(-0.0313804 -0.0107573 0)
(-0.0300583 -0.0120709 0)
(-0.0285828 -0.013331 0)
(-0.0269599 -0.0145281 0)
(-0.0251964 -0.0156503 0)
(-0.0233009 -0.0166826 0)
(-0.0212841 -0.0176044 0)
(-0.0191594 -0.0183877 0)
(-0.0169442 -0.0189936 0)
(-0.014661 -0.0193691 0)
(-0.0123395 -0.0194441 0)
(-0.0100186 -0.01913 0)
(-0.0077492 -0.0183207 0)
(-0.00559667 -0.0168978 0)
(-0.00364079 -0.0147401 0)
(-0.00197335 -0.0117373 0)
(-0.000726178 -0.00780708 0)
(-0.000114222 -0.0029138 0)
(-0.000119145 0.0032851 0)
(-0.000757772 0.0087767 0)
(-0.00205934 0.0131691 0)
(-0.00379906 0.0165116 0)
(-0.00583888 0.0189039 0)
(-0.00808262 0.0204746 0)
(-0.0104468 0.0213626 0)
(-0.0128634 0.021702 0)
(-0.0152794 0.0216121 0)
(-0.0176547 0.0211918 0)
(-0.0199587 0.0205189 0)
(-0.0221685 0.0196518 0)
(-0.0242664 0.0186332 0)
(-0.0262388 0.0174936 0)
(-0.0280751 0.0162553 0)
(-0.0297667 0.0149344 0)
(-0.0313066 0.0135436 0)
(-0.032689 0.012093 0)
(-0.0339093 0.0105914 0)
(-0.0349636 0.00904653 0)
(-0.0358487 0.00746559 0)
(-0.0365622 0.0058553 0)
(-0.0371021 0.00422207 0)
(-0.0374669 0.00257211 0)
(-0.0376555 0.000911478 0)
(-0.0376674 -0.000753853 0)
(-0.0375022 -0.0024179 0)
(-0.0371601 -0.00407463 0)
(-0.0366418 -0.00571787 0)
(-0.0359482 -0.00734122 0)
(-0.0350808 -0.00893802 0)
(-0.0340418 -0.0105012 0)
(-0.032834 -0.0120233 0)
(-0.0314609 -0.0134961 0)
(-0.0299269 -0.0149103 0)
(-0.0282376 -0.0162551 0)
(-0.0264 -0.0175173 0)
(-0.0244226 -0.0186798 0)
(-0.0223163 -0.0197197 0)
(-0.0200949 -0.0206054 0)
(-0.0177766 -0.0212933 0)
(-0.0153849 -0.0217241 0)
(-0.012951 -0.0218191 0)
(-0.0105162 -0.021479 0)
(-0.00813428 -0.0205843 0)
(-0.00587428 -0.019001 0)
(-0.00382056 -0.0165909 0)
(-0.00206999 -0.013227 0)
(-0.000761199 -0.00881107 0)
(-0.000119536 -0.00329585 0)
(-0.000125158 0.00368437 0)
(-0.000796756 0.00982585 0)
(-0.00216612 0.0147252 0)
(-0.00399679 0.0184442 0)
(-0.00614318 0.0210988 0)
(-0.00850359 0.0228355 0)
(-0.0109897 0.0238112 0)
(-0.0135295 0.0241764 0)
(-0.0160668 0.0240645 0)
(-0.0185592 0.0235859 0)
(-0.0209745 0.0228273 0)
(-0.0232887 0.0218537 0)
(-0.0254833 0.0207128 0)
(-0.0275444 0.0194386 0)
(-0.0294612 0.0180559 0)
(-0.031225 0.016583 0)
(-0.032829 0.0150338 0)
(-0.0342677 0.0134197 0)
(-0.0355366 0.0117504 0)
(-0.0366322 0.0100346 0)
(-0.0375515 0.00827987 0)
(-0.0382924 0.00649369 0)
(-0.0388531 0.00468295 0)
(-0.0392323 0.00285426 0)
(-0.039429 0.0010141 0)
(-0.0394426 -0.000831208 0)
(-0.039273 -0.00267531 0)
(-0.03892 -0.00451178 0)
(-0.0383842 -0.00633405 0)
(-0.0376663 -0.00813527 0)
(-0.0367676 -0.00990825 0)
(-0.0356898 -0.0116454 0)
(-0.0344355 -0.0133383 0)
(-0.0330077 -0.0149781 0)
(-0.0314107 -0.0165544 0)
(-0.0296498 -0.0180551 0)
(-0.0277317 -0.0194655 0)
(-0.025665 -0.0207665 0)
(-0.0234608 -0.0219322 0)
(-0.0211334 -0.0229276 0)
(-0.0187016 -0.0237039 0)
(-0.0161902 -0.0241948 0)
(-0.0136322 -0.0243129 0)
(-0.0110713 -0.023947 0)
(-0.00856447 -0.0229635 0)
(-0.00618502 -0.0212121 0)
(-0.00402231 -0.0185369 0)
(-0.00217884 -0.0147929 0)
(-0.000800888 -0.00986603 0)
(-0.000125643 -0.00369696 0)
(-0.000132012 0.00410488 0)
(-0.00084081 0.0109313 0)
(-0.0022863 0.0163652 0)
(-0.00421872 0.0204808 0)
(-0.00648401 0.0234113 0)
(-0.00897429 0.0253221 0)
(-0.0115958 0.0263887 0)
(-0.014272 0.0267792 0)
(-0.0169434 0.0266421 0)
(-0.0195649 0.0260998 0)
(-0.0221026 0.0252486 0)
(-0.0245311 0.0241607 0)
(-0.0268313 0.0228891 0)
(-0.0289889 0.0214717 0)
(-0.0309929 0.019936 0)
(-0.0328346 0.0183024 0)
(-0.0345075 0.0165864 0)
(-0.0360064 0.0148007 0)
(-0.0373272 0.0129559 0)
(-0.0384666 0.0110615 0)
(-0.0394222 0.00912588 0)
(-0.0401921 0.00715691 0)
(-0.0407748 0.00516195 0)
(-0.0411692 0.00314801 0)
(-0.0413746 0.00112186 0)
(-0.0413903 -0.000909851 0)
(-0.0412161 -0.00294051 0)
(-0.040852 -0.00496339 0)
(-0.040298 -0.00697159 0)
(-0.0395548 -0.00895786 0)
(-0.0386231 -0.0109145 0)
(-0.0375044 -0.0128334 0)
(-0.0362006 -0.0147055 0)
(-0.0347146 -0.0165209 0)
(-0.0330501 -0.0182683 0)
(-0.031212 -0.0199342 0)
(-0.0292068 -0.0215022 0)
(-0.0270431 -0.0229508 0)
(-0.024732 -0.0242514 0)
(-0.0222883 -0.0253648 0)
(-0.0197316 -0.0262368 0)
(-0.0170881 -0.0267937 0)
(-0.0143927 -0.0269383 0)
(-0.0116918 -0.0265471 0)
(-0.00904611 -0.0254715 0)
(-0.00653352 -0.0235437 0)
(-0.00424903 -0.0205893 0)
(-0.00230149 -0.0164444 0)
(-0.000845783 -0.0109784 0)
(-0.000132611 -0.00411968 0)
(-0.000139772 0.00454939 0)
(-0.000890434 0.0121 0)
(-0.00242134 0.018099 0)
(-0.00446762 0.0226337 0)
(-0.00686561 0.025855 0)
(-0.00950049 0.0279483 0)
(-0.0122724 0.0291092 0)
(-0.0150998 0.0295242 0)
(-0.0179192 0.0293577 0)
(-0.0206829 0.0287454 0)
(-0.0233549 0.0277937 0)
(-0.0259083 0.0265826 0)
(-0.0283234 0.0251707 0)
(-0.0305855 0.0236003 0)
(-0.0326833 0.0219018 0)
(-0.0346087 0.0200978 0)
(-0.0363552 0.0182057 0)
(-0.0379181 0.0162394 0)
(-0.0392936 0.0142107 0)
(-0.0404793 0.0121296 0)
(-0.041473 0.0100054 0)
(-0.0422732 0.00784629 0)
(-0.0428789 0.00566008 0)
(-0.0432894 0.00345406 0)
(-0.0435039 0.00123521 0)
(-0.043522 -0.000989614 0)
(-0.0433435 -0.00321362 0)
(-0.0429679 -0.00542989 0)
(-0.0423954 -0.00763127 0)
(-0.041626 -0.00981021 0)
(-0.0406601 -0.0119587 0)
(-0.0394986 -0.0140678 0)
(-0.0381429 -0.0161281 0)
(-0.0365952 -0.0181287 0)
(-0.0348588 -0.0200571 0)
(-0.032938 -0.0218985 0)
(-0.030839 -0.0236346 0)
(-0.0285702 -0.0252414 0)
(-0.0261428 -0.0266872 0)
(-0.023572 -0.0279282 0)
(-0.0208782 -0.0289044 0)
(-0.018089 -0.029534 0)
(-0.0152417 -0.0297094 0)
(-0.0123855 -0.0292939 0)
(-0.00958527 -0.0281228 0)
(-0.00692421 -0.0260099 0)
(-0.0045036 -0.0227607 0)
(-0.00243944 -0.018192 0)
(-0.000896408 -0.0121555 0)
(-0.000140508 -0.00456686 0)
(-0.000148515 0.00502089 0)
(-0.000946177 0.0133398 0)
(-0.00257276 0.019938 0)
(-0.00474634 0.0249164 0)
(-0.00729238 0.0284449 0)
(-0.0100882 0.0307299 0)
(-0.013027 0.0319882 0)
(-0.0160216 0.0324263 0)
(-0.0190044 0.0322255 0)
(-0.0219243 0.0315356 0)
(-0.024743 0.0304741 0)
(-0.0274325 0.0291295 0)
(-0.0299721 0.0275664 0)
(-0.0323466 0.0258318 0)
(-0.0345451 0.0239594 0)
(-0.0365595 0.0219743 0)
(-0.0383839 0.0198958 0)
(-0.0400141 0.0177392 0)
(-0.0414471 0.0155172 0)
(-0.0426809 0.0132409 0)
(-0.0437141 0.0109198 0)
(-0.0445458 0.00856294 0)
(-0.0451754 0.00617816 0)
(-0.0456025 0.00377299 0)
(-0.0458266 0.00135456 0)
(-0.0458475 -0.00107026 0)
(-0.0456648 -0.00349459 0)
(-0.0452779 -0.00591145 0)
(-0.0446867 -0.00831357 0)
(-0.0438906 -0.0106932 0)
(-0.0428897 -0.013042 0)
(-0.041684 -0.0153506 0)
(-0.0402743 -0.0176089 0)
(-0.0386621 -0.0198051 0)
(-0.0368498 -0.0219256 0)
(-0.0348412 -0.0239541 0)
(-0.0326419 -0.0258701 0)
(-0.0302599 -0.0276472 0)
(-0.0277065 -0.0292499 0)
(-0.0249971 -0.0306297 0)
(-0.0221531 -0.03172 0)
(-0.0192038 -0.0324305 0)
(-0.0161886 -0.0326421 0)
(-0.0131603 -0.0322038 0)
(-0.0101883 -0.0309338 0)
(-0.00736175 -0.0286261 0)
(-0.00478906 -0.0250653 0)
(-0.00259433 -0.0200472 0)
(-0.000953338 -0.0134051 0)
(-0.000149413 -0.00504158 0)
(-0.000158333 0.0055227 0)
(-0.00100867 0.0146592 0)
(-0.00274236 0.0218946 0)
(-0.00505817 0.0273441 0)
(-0.00776927 0.0311976 0)
(-0.010744 0.033684 0)
(-0.013868 0.0350429 0)
(-0.0170474 0.0355019 0)
(-0.02021 0.0352606 0)
(-0.023301 0.0344842 0)
(-0.0262798 0.0333021 0)
(-0.0291167 0.0318119 0)
(-0.0317905 0.0300851 0)
(-0.0342855 0.0281735 0)
(-0.0365911 0.0261148 0)
(-0.0386995 0.0239367 0)
(-0.0406056 0.0216604 0)
(-0.0423059 0.0193027 0)
(-0.0437983 0.0168775 0)
(-0.0450816 0.0143967 0)
(-0.0461553 0.0118703 0)
(-0.047019 0.00930761 0)
(-0.0476729 0.00671676 0)
(-0.048117 0.00410529 0)
(-0.0483512 0.00148029 0)
(-0.0483752 -0.00115145 0)
(-0.0481887 -0.00378316 0)
(-0.0477909 -0.00640795 0)
(-0.0471812 -0.00901857 0)
(-0.0463587 -0.0116072 0)
(-0.0453225 -0.0141653 0)
(-0.0440719 -0.0166832 0)
(-0.0426069 -0.01915 0)
(-0.0409278 -0.0215533 0)
(-0.0390363 -0.0238781 0)
(-0.0369352 -0.0261065 0)
(-0.0346293 -0.028216 0)
(-0.0321262 -0.030177 0)
(-0.0294369 -0.0319503 0)
(-0.0265772 -0.0334818 0)
(-0.0235694 -0.0346979 0)
(-0.0204443 -0.0354989 0)
(-0.017244 -0.0357532 0)
(-0.0140252 -0.0352946 0)
(-0.0108624 -0.0339225 0)
(-0.00785143 -0.0314099 0)
(-0.00510888 -0.0275189 0)
(-0.00276804 -0.022023 0)
(-0.00101724 -0.0147362 0)
(-0.000159422 -0.00554726 0)
(-0.000169341 0.00605848 0)
(-0.00107869 0.0160677 0)
(-0.0029322 0.0239826 0)
(-0.00540692 0.0299335 0)
(-0.00830205 0.0341316 0)
(-0.0114758 0.0368297 0)
(-0.0148049 0.038292 0)
(-0.0181884 0.0387686 0)
(-0.0215485 0.0384794 0)
(-0.0248266 0.0376057 0)
(-0.0279793 0.0362902 0)
(-0.0309756 0.0346404 0)
(-0.033793 0.0327354 0)
(-0.0364163 0.0306326 0)
(-0.0388348 0.0283735 0)
(-0.0410416 0.0259889 0)
(-0.0430324 0.0235023 0)
(-0.0448048 0.020932 0)
(-0.0463578 0.018293 0)
(-0.0476912 0.0155978 0)
(-0.0488055 0.0128573 0)
(-0.0497014 0.0100806 0)
(-0.0503796 0.00727615 0)
(-0.0508408 0.00445124 0)
(-0.0510852 0.00161277 0)
(-0.0511128 -0.00123273 0)
(-0.0509231 -0.0040788 0)
(-0.0505153 -0.00691883 0)
(-0.049888 -0.00974579 0)
(-0.0490397 -0.012552 0)
(-0.0479687 -0.0153287 0)
(-0.0466735 -0.0180662 0)
(-0.0451526 -0.020753 0)
(-0.0434054 -0.0233757 0)
(-0.0414322 -0.0259183 0)
(-0.0392346 -0.0283611 0)
(-0.0368166 -0.0306791 0)
(-0.0341848 -0.0328397 0)
(-0.0313499 -0.0347991 0)
(-0.0283279 -0.0364975 0)
(-0.0251417 -0.0378533 0)
(-0.0218241 -0.0387562 0)
(-0.0184201 -0.0390615 0)
(-0.0149906 -0.0385859 0)
(-0.0116158 -0.0371088 0)
(-0.00839944 -0.0343806 0)
(-0.00546716 -0.0301389 0)
(-0.00296279 -0.0241339 0)
(-0.00108893 -0.0161587 0)
(-0.000170656 -0.00608766 0)
(-0.000181681 0.00663229 0)
(-0.00115714 0.017576 0)
(-0.00314483 0.0262176 0)
(-0.0057972 0.0327035 0)
(-0.00889759 0.0372674 0)
(-0.0122927 0.0401881 0)
(-0.0158491 0.041756 0)
(-0.0194578 0.0422458 0)
(-0.0230346 0.0418991 0)
(-0.0265167 0.0409154 0)
(-0.0298579 0.0394514 0)
(-0.0330253 0.0376258 0)
(-0.035996 0.035526 0)
(-0.0387546 0.0332154 0)
(-0.0412911 0.0307402 0)
(-0.0435997 0.0281343 0)
(-0.0456772 0.0254236 0)
(-0.0475226 0.0226281 0)
(-0.0491363 0.019764 0)
(-0.0505195 0.0168444 0)
(-0.0516739 0.0138805 0)
(-0.0526012 0.0108818 0)
(-0.0533032 0.00785616 0)
(-0.0537812 0.00481087 0)
(-0.0540359 0.00175231 0)
(-0.0540676 -0.00131351 0)
(-0.0538756 -0.00438067 0)
(-0.0534588 -0.00744306 0)
(-0.0528154 -0.0104941 0)
(-0.051943 -0.0135264 0)
(-0.0508389 -0.0165314 0)
(-0.0495003 -0.0194993 0)
(-0.0479243 -0.0224181 0)
(-0.0461088 -0.0252738 0)
(-0.0440525 -0.028049 0)
(-0.0417556 -0.0307222 0)
(-0.0392207 -0.0332659 0)
(-0.0364532 -0.0356439 0)
(-0.0334632 -0.0378074 0)
(-0.0302665 -0.0396903 0)
(-0.026887 -0.041202 0)
(-0.0233592 -0.0422209 0)
(-0.0197312 -0.0425872 0)
(-0.0160686 -0.0420993 0)
(-0.0124586 -0.040515 0)
(-0.00901317 -0.0375596 0)
(-0.00586881 -0.032945 0)
(-0.00318127 -0.026396 0)
(-0.00116939 -0.0176836 0)
(-0.000183265 -0.00666702 0)
(-0.000195527 0.00724874 0)
(-0.00124519 0.019196 0)
(-0.00338332 0.0286171 0)
(-0.00623458 0.0356751 0)
(-0.00956423 0.0406281 0)
(-0.0132057 0.0437827 0)
(-0.0170141 0.0454575 0)
(-0.020871 0.0459545 0)
(-0.0246855 0.0455387 0)
(-0.0283896 0.0444293 0)
(-0.0319342 0.042799 0)
(-0.0352846 0.0407787 0)
(-0.0384176 0.0384649 0)
(-0.0413179 0.0359278 0)
(-0.0439766 0.0332187 0)
(-0.0463891 0.030375 0)
(-0.048554 0.0274252 0)
(-0.0504719 0.0243911 0)
(-0.0521451 0.0212898 0)
(-0.0535764 0.0181354 0)
(-0.0547691 0.014939 0)
(-0.0557264 0.01171 0)
(-0.056451 0.00845614 0)
(-0.056945 0.00518395 0)
(-0.0572099 0.00189915 0)
(-0.0572461 -0.00139303 0)
(-0.057053 -0.00468751 0)
(-0.0566291 -0.00797896 0)
(-0.0559719 -0.0112615 0)
(-0.055078 -0.0145284 0)
(-0.0539436 -0.0177714 0)
(-0.0525641 -0.0209808 0)
(-0.0509353 -0.0241444 0)
(-0.0490529 -0.0272475 0)
(-0.0469137 -0.0302715 0)
(-0.0445161 -0.033193 0)
(-0.0418606 -0.0359817 0)
(-0.0389514 -0.0385974 0)
(-0.0357972 -0.040986 0)
(-0.0324137 -0.043074 0)
(-0.0288253 -0.044761 0)
(-0.0250682 -0.0459125 0)
(-0.0211942 -0.0463525 0)
(-0.0172741 -0.045859 0)
(-0.0134026 -0.0441658 0)
(-0.00970163 -0.0409714 0)
(-0.00631986 -0.0359595 0)
(-0.00342679 -0.0288276 0)
(-0.00125982 -0.0193234 0)
(-0.000197432 -0.0072901 0)
(-0.000211098 0.00791307 0)
(-0.00134421 0.0209415 0)
(-0.00365148 0.0312011 0)
(-0.00672592 0.0388725 0)
(-0.0103121 0.0442397 0)
(-0.0142283 0.0476396 0)
(-0.0183162 0.0494218 0)
(-0.0224469 0.0499176 0)
(-0.0265216 0.0494182 0)