/*--------------------------------*- C++ -*----------------------------------*\
  =========                 |
  \\      /  F ield         | OpenFOAM: The Open Source CFD Toolbox
   \\    /   O peration     | Website:  https://openfoam.org
    \\  /    A nd           | Version:  7
     \\/     M anipulation  |
\*---------------------------------------------------------------------------*/
FoamFile
{
    version     2.0;
    format      ascii;
    class       surfaceScalarField;
    location    "0.0454";
    object      phi;
}
// * * * * * * * * * * * * * * * * * * * * * * * * * * * * * * * * * * * * * //

dimensions      [0 3 -1 0 0 0 0];

internalField   nonuniform List<scalar> 
4900
(
1.02447e-09
-1.02639e-09
2.02748e-09
-1.00303e-09
1.98471e-09
4.27826e-11
5.65324e-10
1.41938e-09
-2.29597e-09
2.86129e-09
-6.51347e-09
4.2175e-09
-1.19311e-08
5.41765e-09
-1.83632e-08
6.43201e-09
-2.5614e-08
7.25079e-09
-3.3488e-08
7.87407e-09
-4.17953e-08
8.30729e-09
-5.03543e-08
8.55899e-09
-5.89938e-08
8.6395e-09
-6.7554e-08
8.56018e-09
-7.5887e-08
8.33297e-09
-8.38571e-08
7.97007e-09
-9.13409e-08
7.48378e-09
-9.82272e-08
6.88636e-09
-1.04417e-07
6.19e-09
-1.09824e-07
5.40683e-09
-1.14373e-07
4.54892e-09
-1.18001e-07
3.62834e-09
-1.20659e-07
2.65723e-09
-1.22306e-07
1.64792e-09
-1.22919e-07
6.12917e-10
-1.22484e-07
-4.34912e-10
-1.21002e-07
-1.48234e-09
-1.18486e-07
-2.51573e-09
-1.14965e-07
-3.52096e-09
-1.10482e-07
-4.48352e-09
-1.05093e-07
-5.38846e-09
-9.88728e-08
-6.22053e-09
-9.19086e-08
-6.96425e-09
-8.43045e-08
-7.6041e-09
-7.61797e-08
-8.1247e-09
-6.76687e-08
-8.51101e-09
-5.892e-08
-8.74865e-09
-5.00959e-08
-8.82415e-09
-4.13705e-08
-8.72534e-09
-3.29287e-08
-8.44179e-09
-2.49634e-08
-7.96528e-09
-1.76728e-08
-7.29065e-09
-1.12558e-08
-6.41696e-09
-5.90608e-09
-5.34976e-09
-1.80064e-09
-4.10544e-09
9.20602e-10
-2.72124e-09
2.19418e-09
-1.27358e-09
2.10136e-09
9.28303e-11
1.02708e-09
1.0743e-09
1.02709e-09
1.01653e-09
-2.04294e-09
9.8689e-10
-9.73396e-10
-1.53337e-09
2.56311e-09
-7.23175e-09
7.11778e-09
-1.62866e-08
1.19162e-08
-2.8578e-08
1.65089e-08
-4.38058e-08
2.06455e-08
-6.15683e-08
2.41945e-08
-8.14108e-08
2.70933e-08
-1.02857e-07
2.93205e-08
-1.25429e-07
3.08794e-08
-1.48659e-07
3.17892e-08
-1.72099e-07
3.2079e-08
-1.95323e-07
3.17845e-08
-2.17935e-07
3.09451e-08
-2.39568e-07
2.9603e-08
-2.59886e-07
2.78018e-08
-2.78585e-07
2.55857e-08
-2.95395e-07
2.29994e-08
-3.10076e-07
2.0088e-08
-3.22424e-07
1.68967e-08
-3.32266e-07
1.34708e-08
-3.39465e-07
9.85628e-09
-3.43917e-07
6.09977e-09
-3.45553e-07
2.24872e-09
-3.4434e-07
-1.64825e-09
-3.40281e-07
-5.54126e-09
-3.33417e-07
-9.37897e-09
-3.2383e-07
-1.31086e-08
-3.11637e-07
-1.66761e-08
-2.97e-07
-2.00259e-08
-2.80118e-07
-2.3102e-08
-2.61235e-07
-2.58476e-08
-2.40633e-07
-2.82063e-08
-2.18635e-07
-3.01227e-08
-1.95603e-07
-3.15433e-08
-1.71934e-07
-3.24177e-08
-1.48058e-07
-3.26996e-08
-1.24434e-07
-3.23491e-08
-1.01543e-07
-3.13336e-08
-7.98763e-08
-2.96316e-08
-5.99319e-08
-2.72351e-08
-4.21931e-08
-2.41558e-08
-2.71093e-08
-2.04336e-08
-1.50633e-08
-1.61515e-08
-6.32224e-09
-1.14623e-08
-9.60232e-10
-6.63561e-09
1.26799e-09
-2.13542e-09
1.08436e-09
1.25789e-09
2.11146e-09
8.87632e-12
-2.05181e-09
-2.46059e-09
1.49607e-09
-8.8242e-09
8.92672e-09
-1.97627e-08
1.80563e-08
-3.54629e-08
2.76164e-08
-5.57652e-08
3.68112e-08
-8.02729e-08
4.51533e-08
-1.08439e-07
5.23603e-08
-1.39626e-07
5.82807e-08
-1.73153e-07
6.28473e-08
-2.08322e-07
6.6048e-08
-2.4444e-07
6.79074e-08
-2.80836e-07
6.8475e-08
-3.16868e-07
6.78167e-08
-3.51933e-07
6.60097e-08
-3.85468e-07
6.31382e-08
-4.16957e-07
5.92913e-08
-4.45933e-07
5.45611e-08
-4.71975e-07
4.90415e-08
-4.94715e-07
4.28278e-08
-5.13834e-07
3.60162e-08
-5.29067e-07
2.87039e-08
-5.40201e-07
2.09897e-08
-5.47074e-07
1.29735e-08
-5.49583e-07
4.75745e-09
-5.47677e-07
-3.55396e-09
-5.41365e-07
-1.18537e-08
-5.30712e-07
-2.0032e-08
-5.15844e-07
-2.79761e-08
-4.9695e-07
-3.55709e-08
-4.74277e-07
-4.26988e-08
-4.48137e-07
-4.92412e-08
-4.18906e-07
-5.5079e-08
-3.87018e-07
-6.00941e-08
-3.52969e-07
-6.41714e-08
-3.17312e-07
-6.72006e-08
-2.80651e-07
-6.9079e-08
-2.43636e-07
-6.97143e-08
-2.06956e-07
-6.90285e-08
-1.71328e-07
-6.69621e-08
-1.37479e-07
-6.34804e-08
-1.06133e-07
-5.8581e-08
-7.79832e-08
-5.23056e-08
-5.36598e-08
-4.4757e-08
-3.36852e-08
-3.6126e-08
-1.84125e-08
-2.6735e-08
-7.94006e-09
-1.71081e-08
-2.00533e-09
-8.07015e-09
1.54276e-10
-9.01732e-10
2.26574e-09
-1.32006e-09
-7.31716e-10
-6.9384e-09
7.11442e-09
-1.78795e-08
1.98678e-08
-3.46479e-08
3.48247e-08
-5.73269e-08
5.02954e-08
-8.56653e-08
6.51496e-08
-1.19165e-07
7.86531e-08
-1.57157e-07
9.03523e-08
-1.98862e-07
9.99854e-08
-2.43436e-07
1.07422e-07
-2.90011e-07
1.12623e-07
-3.37714e-07
1.15611e-07
-3.85695e-07
1.16455e-07
-4.33132e-07
1.15255e-07
-4.79253e-07
1.1213e-07
-5.2333e-07
1.07216e-07
-5.64698e-07
1.00659e-07
-6.02746e-07
9.26099e-08
-6.36931e-07
8.32264e-08
-6.66772e-07
7.26682e-08
-6.91853e-07
6.10978e-08
-7.11829e-07
4.868e-08
-7.26422e-07
3.55822e-08
-7.35423e-07
2.19747e-08
-7.38697e-07
8.0312e-09
-7.3618e-07
-6.07077e-09
-7.27885e-07
-2.01494e-08
-7.13898e-07
-3.40183e-08
-6.94387e-07
-4.7487e-08
-6.69597e-07
-6.03608e-08
-6.39854e-07
-7.2442e-08
-6.05564e-07
-8.35314e-08
-5.67213e-07
-9.34297e-08
-5.25367e-07
-1.0194e-07
-4.80666e-07
-1.08873e-07
-4.33821e-07
-1.14045e-07
-3.8561e-07
-1.1729e-07
-3.36864e-07
-1.1846e-07
-2.88459e-07
-1.17433e-07
-2.41303e-07
-1.14119e-07
-1.96311e-07
-1.08473e-07
-1.54385e-07
-1.00507e-07
-1.16383e-07
-9.0307e-08
-8.30811e-08
-7.80593e-08
-5.512e-08
-6.40871e-08
-3.29486e-08
-4.89064e-08
-1.67474e-08
-3.33093e-08
-6.34636e-09
-1.84712e-08
-1.14534e-09
-6.10276e-09
1.1204e-09
-2.74399e-09
2.01228e-09
-1.17786e-08
1.6149e-08
-2.76476e-08
3.57369e-08
-5.05653e-08
5.77424e-08
-8.04207e-08
8.01507e-08
-1.16819e-07
1.01548e-07
-1.59136e-07
1.20971e-07
-2.06582e-07
1.37798e-07
-2.58248e-07
1.51651e-07
-3.13154e-07
1.62329e-07
-3.70289e-07
1.69757e-07
-4.28632e-07
1.73954e-07
-4.87184e-07
1.75007e-07
-5.44978e-07
1.73049e-07
-6.01097e-07
1.68248e-07
-6.54679e-07
1.60798e-07
-7.04928e-07
1.50908e-07
-7.5112e-07
1.38801e-07
-7.92601e-07
1.24708e-07
-8.28797e-07
1.08864e-07
-8.59211e-07
9.1512e-08
-8.83428e-07
7.28969e-08
-9.01115e-07
5.32689e-08
-9.12023e-07
3.28825e-08
-9.15989e-07
1.19974e-08
-9.12939e-07
-9.12085e-09
-9.02887e-07
-3.02008e-08
-8.85941e-07
-5.09644e-08
-8.62301e-07
-7.11277e-08
-8.3226e-07
-9.04014e-08
-7.9621e-07
-1.08492e-07
-7.54636e-07
-1.25105e-07
-7.0812e-07
-1.39946e-07
-6.57335e-07
-1.52725e-07
-6.03043e-07
-1.63164e-07
-5.4609e-07
-1.70998e-07
-4.87395e-07
-1.75985e-07
-4.27942e-07
-1.77914e-07
-3.68763e-07
-1.76612e-07
-3.10922e-07
-1.7196e-07
-2.55491e-07
-1.63904e-07
-2.03523e-07
-1.52474e-07
-1.56019e-07
-1.37811e-07
-1.13884e-07
-1.20194e-07
-7.78841e-08
-1.00087e-07
-4.85886e-08
-7.82018e-08
-2.63147e-08
-5.55832e-08
-1.10729e-08
-3.37131e-08
-2.52947e-09
-1.46461e-08
-1.40907e-09
-4.13851e-09
6.15079e-09
-1.66394e-08
2.86499e-08
-3.75529e-08
5.66504e-08
-6.67484e-08
8.69379e-08
-1.03867e-07
1.17269e-07
-1.48325e-07
1.46006e-07
-1.99347e-07
1.71993e-07
-2.56007e-07
1.94458e-07
-3.17268e-07
2.12912e-07
-3.82024e-07
2.27084e-07
-4.49134e-07
2.36867e-07
-5.17452e-07
2.42272e-07
-5.8585e-07
2.43405e-07
-6.53237e-07
2.40437e-07
-7.18576e-07
2.33587e-07
-7.8089e-07
2.23112e-07
-8.39276e-07
2.09294e-07
-8.92909e-07
1.92435e-07
-9.41047e-07
1.72846e-07
-9.83034e-07
1.50851e-07
-1.01831e-06
1.26783e-07
-1.04639e-06
1.00977e-07
-1.0669e-06
7.37793e-08
-1.07955e-06
4.5539e-08
-1.08417e-06
1.66146e-08
-1.08066e-06
-1.26285e-08
-1.06905e-06
-4.18162e-08
-1.04945e-06
-7.05662e-08
-1.02208e-06
-9.84882e-08
-9.87301e-07
-1.25185e-07
-9.45538e-07
-1.50255e-07
-8.97348e-07
-1.73295e-07
-8.43391e-07
-1.93902e-07
-7.84433e-07
-2.11684e-07
-7.21337e-07
-2.2626e-07
-6.55061e-07
-2.37274e-07
-5.86646e-07
-2.444e-07
-5.17205e-07
-2.47355e-07
-4.47903e-07
-2.45914e-07
-3.7994e-07
-2.39922e-07
-3.14527e-07
-2.29317e-07
-2.52853e-07
-2.14149e-07
-1.96051e-07
-1.94613e-07
-1.45163e-07
-1.71082e-07
-1.01091e-07
-1.44159e-07
-6.45562e-08
-1.14737e-07
-3.60566e-08
-8.40828e-08
-1.58382e-08
-5.39314e-08
-3.89125e-09
-2.65931e-08
-5.30032e-09
-5.46453e-09
1.16153e-08
-2.13716e-08
4.4557e-08
-4.7312e-08
8.25907e-08
-8.27971e-08
1.22423e-07
-1.27189e-07
1.61661e-07
-1.79688e-07
1.98504e-07
-2.39339e-07
2.31645e-07
-3.05064e-07
2.60183e-07
-3.75689e-07
2.83537e-07
-4.49983e-07
3.01378e-07
-5.26682e-07
3.13566e-07
-6.04524e-07
3.20114e-07
-6.82268e-07
3.21149e-07
-7.58713e-07
3.16882e-07
-8.32719e-07
3.07592e-07
-9.0321e-07
2.93603e-07
-9.69191e-07
2.75276e-07
-1.02975e-06
2.52998e-07
-1.08408e-06
2.27172e-07
-1.13145e-06
1.98217e-07
-1.17123e-06
1.66564e-07
-1.2029e-06
1.3265e-07
-1.22604e-06
9.69235e-08
-1.24035e-06
5.9841e-08
-1.2456e-06
2.18683e-08
-1.24171e-06
-1.65183e-08
-1.22869e-06
-5.48323e-08
-1.20668e-06
-9.25763e-08
-1.17593e-06
-1.29243e-07
-1.1368e-06
-1.64317e-07
-1.08978e-06
-1.97276e-07
-1.03547e-06
-2.27597e-07
-9.74617e-07
-2.5476e-07
-9.08045e-07
-2.78257e-07
-8.36708e-07
-2.97597e-07
-7.61662e-07
-3.12321e-07
-6.84052e-07
-3.2201e-07
-6.05102e-07
-3.26305e-07
-5.26098e-07
-3.24918e-07
-4.48364e-07
-3.17656e-07
-3.73238e-07
-3.04443e-07
-3.02042e-07
-2.85345e-07
-2.36047e-07
-2.60608e-07
-1.76437e-07
-2.30692e-07
-1.24273e-07
-1.96323e-07
-8.0453e-08
-1.58557e-07
-4.56885e-08
-1.18847e-07
-2.0491e-08
-7.91289e-08
-5.18916e-09
-4.18949e-08
-1.04895e-08
-6.71739e-09
1.83327e-08
-2.5931e-08
6.37706e-08
-5.68209e-08
1.13481e-07
-9.85489e-08
1.64151e-07
-1.50188e-07
2.133e-07
-2.10699e-07
2.59015e-07
-2.78931e-07
2.99877e-07
-3.53636e-07
3.34888e-07
-4.33494e-07
3.63396e-07
-5.1714e-07
3.85024e-07
-6.03191e-07
3.99617e-07
-6.90271e-07
4.07194e-07
-7.77034e-07
4.07912e-07
-8.62181e-07
4.02029e-07
-9.44477e-07
3.89888e-07
-1.02276e-06
3.71888e-07
-1.09596e-06
3.48477e-07
-1.1631e-06
3.20132e-07
-1.22328e-06
2.87357e-07
-1.27574e-06
2.50672e-07
-1.31979e-06
2.10614e-07
-1.35487e-06
1.67729e-07
-1.38052e-06
1.22578e-07
-1.39641e-06
7.57305e-08
-1.40231e-06
2.77684e-08
-1.39811e-06
-2.07134e-08
-1.38384e-06
-6.91069e-08
-1.35963e-06
-1.16791e-07
-1.32574e-06
-1.63133e-07
-1.28256e-06
-2.07488e-07
-1.23063e-06
-2.49207e-07
-1.17059e-06
-2.87636e-07
-1.10323e-06
-3.22127e-07
-1.02944e-06
-3.52047e-07
-9.5025e-07
-3.76785e-07
-8.66802e-07
-3.95768e-07
-7.80333e-07
-4.08479e-07
-6.92169e-07
-4.14468e-07
-6.03707e-07
-4.13381e-07
-5.16388e-07
-4.04975e-07
-4.31678e-07
-3.89153e-07
-3.51033e-07
-3.6599e-07
-2.7587e-07
-3.35771e-07
-2.07531e-07
-2.99031e-07
-1.47251e-07
-2.56604e-07
-9.61292e-08
-2.09678e-07
-5.51119e-08
-1.59865e-07
-2.49885e-08
-1.09252e-07
-6.41776e-09
-6.04656e-08
-1.69072e-08
-7.90741e-09
2.62402e-08
-3.03274e-08
8.61906e-08
-6.60764e-08
1.4923e-07
-1.13985e-07
2.12059e-07
-1.72835e-07
2.72151e-07
-2.41339e-07
3.27519e-07
-3.18132e-07
3.7667e-07
-4.01785e-07
4.1854e-07
-4.90818e-07
4.52429e-07
-5.83727e-07
4.77933e-07
-6.79004e-07
4.94894e-07
-7.7516e-07
5.03351e-07
-8.70748e-07
5.035e-07
-9.64376e-07
4.95657e-07
-1.05472e-06
4.80236e-07
-1.14056e-06
4.57721e-07
-1.22073e-06
4.28649e-07
-1.2942e-06
3.936e-07
-1.36002e-06
3.53182e-07
-1.41738e-06
3.08025e-07
-1.46554e-06
2.58777e-07
-1.50391e-06
2.06101e-07
-1.53201e-06
1.50675e-07
-1.54947e-06
9.3188e-08
-1.55604e-06
3.43452e-08
-1.55162e-06
-2.51334e-08
-1.53622e-06
-8.45122e-08
-1.50997e-06
-1.43039e-07
-1.47315e-06
-1.99949e-07
-1.42618e-06
-2.5446e-07
-1.3696e-06
-3.05786e-07
-1.3041e-06
-3.53136e-07
-1.2305e-06
-3.95725e-07
-1.14977e-06
-4.32782e-07
-1.06298e-06
-4.63569e-07
-9.71362e-07
-4.87389e-07
-8.76228e-07
-5.03613e-07
-7.79003e-07
-5.11693e-07
-6.8119e-07
-5.11194e-07
-5.84349e-07
-5.01816e-07
-4.90074e-07
-4.83428e-07
-3.99963e-07
-4.561e-07
-3.1559e-07
-4.20144e-07
-2.38469e-07
-3.76152e-07
-1.70029e-07
-3.25044e-07
-1.11587e-07
-2.6812e-07
-6.43354e-08
-2.07116e-07
-2.93453e-08
-1.44242e-07
-7.58837e-09
-8.22225e-08
-2.44956e-08
-9.05033e-09
3.52905e-08
-3.4596e-08
1.11736e-07
-7.51292e-08
1.89763e-07
-1.29167e-07
2.66097e-07
-1.95206e-07
3.3819e-07
-2.71703e-07
4.04017e-07
-3.57071e-07
4.62038e-07
-4.49685e-07
5.11154e-07
-5.47896e-07
5.5064e-07
-6.50051e-07
5.80088e-07
-7.54513e-07
5.99355e-07
-8.59678e-07
6.08517e-07
-9.63998e-07
6.07819e-07
-1.06599e-06
5.9765e-07
-1.16426e-06
5.78503e-07
-1.25749e-06
5.50955e-07
-1.34449e-06
5.15645e-07
-1.42414e-06
4.73258e-07
-1.49548e-06
4.24515e-07
-1.55761e-06
3.70162e-07
-1.6098e-06
3.10964e-07
-1.65141e-06
2.47707e-07
-1.68192e-06
1.81189e-07
-1.70096e-06
1.12225e-07
-1.70826e-06
4.16479e-08
-1.7037e-06
-2.9693e-08
-1.68729e-06
-1.00929e-07
-1.65915e-06
-1.71172e-07
-1.61958e-06
-2.39517e-07
-1.569e-06
-3.05041e-07
-1.50798e-06
-3.66813e-07
-1.43722e-06
-4.23896e-07
-1.35758e-06
-4.75357e-07
-1.27008e-06
-5.20284e-07
-1.17586e-06
-5.57795e-07
-1.07619e-06
-5.8706e-07
-9.72473e-07
-6.07325e-07
-8.66233e-07
-6.17933e-07
-7.59073e-07
-6.18354e-07
-6.52674e-07
-6.08214e-07
-5.48766e-07
-5.87336e-07
-4.49098e-07
-5.55769e-07
-3.55411e-07
-5.13831e-07
-2.69408e-07
-4.62155e-07
-1.92727e-07
-4.01725e-07
-1.26917e-07
-3.3393e-07
-7.34266e-08
-2.60606e-07
-3.36048e-08
-1.84064e-07
-8.71881e-09
-1.07109e-07
-3.32144e-08
-1.01632e-08
4.54538e-08
-3.87833e-08
1.40356e-07
-8.40566e-08
2.35036e-07
-1.44203e-07
3.26243e-07
-2.17438e-07
4.11424e-07
-3.0196e-07
4.88539e-07
-3.95951e-07
5.56029e-07
-4.9758e-07
6.12784e-07
-6.05021e-07
6.5808e-07
-7.16462e-07
6.91529e-07
-8.30131e-07
7.13024e-07
-9.44307e-07
7.22693e-07
-1.05734e-06
7.20851e-07
-1.16766e-06
7.07967e-07
-1.27378e-06
6.84631e-07
-1.37435e-06
6.5152e-07
-1.46809e-06
6.09386e-07
-1.55386e-06
5.59028e-07
-1.63063e-06
5.01285e-07
-1.69749e-06
4.37025e-07
-1.75367e-06
3.67137e-07
-1.79849e-06
2.92529e-07
-1.83143e-06
2.14129e-07
-1.85208e-06
1.32878e-07
-1.86017e-06
4.97412e-08
-1.85557e-06
-3.43001e-08
-1.83826e-06
-1.1824e-07
-1.80838e-06
-2.01052e-07
-1.76621e-06
-2.81685e-07
-1.71218e-06
-3.59071e-07
-1.64686e-06
-4.32127e-07
-1.571e-06
-4.99761e-07
-1.48547e-06
-5.60887e-07
-1.39132e-06
-6.14437e-07
-1.28973e-06
-6.59377e-07
-1.18206e-06
-6.94732e-07
-1.06978e-06
-7.19608e-07
-9.54492e-07
-7.33222e-07
-8.37913e-07
-7.34933e-07
-7.21847e-07
-7.2428e-07
-6.08167e-07
-7.01016e-07
-4.98784e-07
-6.65152e-07
-3.9562e-07
-6.16995e-07
-3.00583e-07
-5.57192e-07
-2.15532e-07
-4.86776e-07
-1.42262e-07
-4.072e-07
-8.2484e-08
-3.20384e-07
-3.78234e-08
-2.28725e-07
-9.82898e-09
-1.35103e-07
-4.30434e-08
-1.12628e-08
5.67166e-08
-4.2939e-08
1.72032e-07
-9.29468e-08
2.85044e-07
-1.5922e-07
3.92516e-07
-2.39695e-07
4.919e-07
-3.3231e-07
5.81155e-07
-4.3501e-07
6.58729e-07
-5.45749e-07
7.23523e-07
-6.62512e-07
7.74843e-07
-7.83324e-07
8.12341e-07
-9.0627e-07
8.3597e-07
-1.02951e-06
8.45929e-07
-1.15128e-06
8.42623e-07
-1.26993e-06
8.26618e-07
-1.38391e-06
7.98611e-07
-1.49179e-06
7.59397e-07
-1.59225e-06
7.09845e-07
-1.6841e-06
6.50879e-07
-1.76627e-06
5.83463e-07
-1.83784e-06
5.08594e-07
-1.89799e-06
4.27287e-07
-1.94604e-06
3.4058e-07
-1.98144e-06
2.49527e-07
-2.00377e-06
1.55204e-07
-2.01273e-06
5.87037e-08
-2.00818e-06
-3.88545e-08
-1.99009e-06
-1.36328e-07
-1.9586e-06
-2.32545e-07
-1.91397e-06
-3.26311e-07
-1.85664e-06
-4.16405e-07
-1.78718e-06
-5.01586e-07
-1.70633e-06
-5.80603e-07
-1.61501e-06
-6.52207e-07
-1.51429e-06
-7.15163e-07
-1.40539e-06
-7.68274e-07
-1.28972e-06
-8.10403e-07
-1.16882e-06
-8.40503e-07
-1.0444e-06
-8.57645e-07
-9.18271e-07
-8.61062e-07
-7.92372e-07
-8.5018e-07
-6.68723e-07
-8.24665e-07
-5.49411e-07
-7.84464e-07
-4.36553e-07
-7.29853e-07
-3.32272e-07
-6.61473e-07
-2.38667e-07
-5.8038e-07
-1.5779e-07
-4.88078e-07
-9.16205e-08
-3.86553e-07
-4.20627e-08
-2.78283e-07
-1.09388e-08
-1.66227e-07
-5.39822e-08
-1.23644e-08
6.9081e-08
-4.71115e-08
2.0678e-07
-1.0189e-07
3.39822e-07
-1.7435e-07
4.64976e-07
-2.62152e-07
5.79702e-07
-3.6297e-07
6.81972e-07
-4.745e-07
7.70259e-07
-5.94477e-07
8.43501e-07
-7.20689e-07
9.01054e-07
-8.50988e-07
9.42641e-07
-9.83312e-07
9.68294e-07
-1.11569e-06
9.78309e-07
-1.24626e-06
9.73197e-07
-1.37329e-06
9.53642e-07
-1.49514e-06
9.20466e-07
-1.61034e-06
8.7459e-07
-1.71751e-06
8.17016e-07
-1.81543e-06
7.48801e-07
-1.90301e-06
6.71043e-07
-1.97929e-06
5.84869e-07
-2.04343e-06
4.91428e-07
-2.09473e-06
3.91887e-07
-2.13264e-06
2.87432e-07
-2.1567e-06
1.79269e-07
-2.16662e-06
6.86248e-08
-2.16223e-06
-4.3247e-08
-2.1435e-06
-1.55064e-07
-2.11053e-06
-2.65514e-07
-2.06359e-06
-3.7325e-07
-2.0031e-06
-4.76898e-07
-1.92963e-06
-5.75055e-07
-1.84393e-06
-6.66304e-07
-1.74691e-06
-7.49223e-07
-1.63967e-06
-8.22401e-07
-1.52348e-06
-8.84463e-07
-1.39979e-06
-9.34096e-07
-1.27021e-06
-9.7008e-07
-1.13654e-06
-9.91323e-07
-1.00069e-06
-9.96906e-07
-8.6475e-07
-9.86121e-07
-7.30892e-07
-9.58522e-07
-6.01388e-07
-9.13969e-07
-4.78563e-07
-8.52677e-07
-3.64773e-07
-7.75263e-07
-2.62371e-07
-6.82782e-07
-1.73677e-07
-5.76772e-07
-1.00953e-07
-4.59277e-07
-4.63844e-08
-3.32851e-07
-1.20676e-08
-2.00544e-07
-6.60498e-08
-1.34823e-08
8.25633e-08
-5.13468e-08
2.44644e-07
-1.10972e-07
3.99447e-07
-1.89725e-07
5.43729e-07
-2.84983e-07
6.7496e-07
-3.94149e-07
7.91138e-07
-5.14667e-07
8.90776e-07
-6.44041e-07
9.72875e-07
-7.79853e-07
1.03687e-06
-9.19778e-07
1.08257e-06
-1.0616e-06
1.11011e-06
-1.20321e-06
1.11993e-06
-1.34266e-06
1.11264e-06
-1.47811e-06
1.08909e-06
-1.60786e-06
1.05022e-06
-1.73039e-06
9.97111e-07
-1.84427e-06
9.30901e-07
-1.94826e-06
8.52792e-07
-2.04124e-06
7.64021e-07
-2.12222e-06
6.65854e-07
-2.19037e-06
5.59575e-07
-2.24497e-06
4.46483e-07
-2.28543e-06
3.27896e-07
-2.31131e-06
2.0515e-07
-2.32229e-06
7.96026e-08
-2.31818e-06
-4.73584e-08
-2.29893e-06
-1.74314e-07
-2.26464e-06
-2.99807e-07
-2.21554e-06
-4.22344e-07
-2.15205e-06
-5.40392e-07
-2.07472e-06
-6.52384e-07
-1.98429e-06
-7.56731e-07
-1.88169e-06
-8.51828e-07
-1.76801e-06
-9.36079e-07
-1.64456e-06
-1.00792e-06
-1.51282e-06
-1.06583e-06
-1.37448e-06
-1.10842e-06
-1.23142e-06
-1.13439e-06
-1.08568e-06
-1.14265e-06
-9.39458e-07
-1.13234e-06
-7.95117e-07
-1.10286e-06
-6.55116e-07
-1.05397e-06
-5.22006e-07
-9.85788e-07
-3.98388e-07
-8.9888e-07
-2.86885e-07
-7.94285e-07
-1.90103e-07
-6.73555e-07
-1.10598e-07
-5.38782e-07
-5.0849e-08
-3.926e-07
-1.32334e-08
-2.38159e-07
-7.92832e-08
-1.46288e-08
9.71921e-08
-5.56866e-08
2.85702e-07
-1.20273e-07
4.64034e-07
-2.05466e-07
6.28922e-07
-3.0835e-07
7.77844e-07
-4.26047e-07
9.08835e-07
-5.5574e-07
1.02047e-06
-6.94694e-07
1.11183e-06
-8.40275e-07
1.18245e-06
-9.89972e-07
1.23226e-06
-1.14141e-06
1.26155e-06
-1.29236e-06
1.27087e-06
-1.44074e-06
1.26103e-06
-1.58465e-06
1.23299e-06
-1.72232e-06
1.1879e-06
-1.85217e-06
1.12696e-06
-1.97275e-06
1.05149e-06
-2.08279e-06
9.6283e-07
-2.18115e-06
8.6238e-07
-2.26684e-06
7.5154e-07
-2.339e-06
6.31734e-07
-2.39691e-06
5.04395e-07
-2.43998e-06
3.7097e-07
-2.46775e-06
2.32922e-07
-2.47989e-06
9.174e-08
-2.47619e-06
-5.10601e-08
-2.45658e-06
-1.93924e-07
-2.42113e-06
-3.35255e-07
-2.37006e-06
-4.73411e-07
-2.30375e-06
-6.06703e-07
-2.22274e-06
-7.33396e-07
-2.12775e-06
-8.51722e-07
-2.01969e-06
-9.59889e-07
-1.89967e-06
-1.0561e-06
-1.769e-06
-1.13858e-06
-1.62922e-06
-1.20561e-06
-1.48207e-06
-1.25557e-06
-1.3295e-06
-1.28696e-06
-1.17367e-06
-1.29848e-06
-1.01693e-06
-1.28907e-06
-8.61812e-07
-1.25798e-06
-7.10981e-07
-1.2048e-06
-5.67224e-07
-1.12955e-06
-4.33408e-07
-1.0327e-06
-3.12444e-07
-9.15249e-07
-2.07241e-07
-7.78758e-07
-1.20668e-07
-6.25355e-07
-5.55139e-08
-4.57754e-07
-1.44531e-08
-2.7922e-07
-9.37363e-08
-1.58153e-08
1.13007e-07
-6.01688e-08
3.30055e-07
-1.29868e-07
5.33733e-07
-2.21684e-07
7.20738e-07
-3.32401e-07
8.8856e-07
-4.58845e-07
1.03528e-06
-5.97925e-07
1.15955e-06
-7.46655e-07
1.26056e-06
-9.02179e-07
1.33797e-06
-1.06179e-06
1.39188e-06
-1.22296e-06
1.42272e-06
-1.38332e-06
1.43123e-06
-1.54068e-06
1.41839e-06
-1.69305e-06
1.38537e-06
-1.83863e-06
1.33347e-06
-1.97576e-06
1.26409e-06
-2.10299e-06
1.17872e-06
-2.21902e-06
1.07886e-06
-2.32271e-06
9.66066e-07
-2.41305e-06
8.41887e-07
-2.48921e-06
7.07886e-07
-2.55044e-06
5.65628e-07
-2.59616e-06
4.16689e-07
-2.62589e-06
2.62656e-07
-2.63929e-06
1.05142e-07
-2.63614e-06
-5.42136e-08
-2.61634e-06
-2.13726e-07
-2.57993e-06
-3.71664e-07
-2.5271e-06
-5.2624e-07
-2.45819e-06
-6.75608e-07
-2.37372e-06
-8.17868e-07
-2.27438e-06
-9.51068e-07
-2.16105e-06
-1.07322e-06
-2.03483e-06
-1.18231e-06
-1.89706e-06
-1.27636e-06
-1.74928e-06
-1.35339e-06
-1.59329e-06
-1.41156e-06
-1.43111e-06
-1.44913e-06
-1.26503e-06
-1.46456e-06
-1.09754e-06
-1.45656e-06
-9.31348e-07
-1.42418e-06
-7.69332e-07
-1.36682e-06
-6.14537e-07
-1.28434e-06
-4.70111e-07
-1.17712e-06
-3.39271e-07
-1.04609e-06
-2.25256e-07
-8.92774e-07
-1.31269e-07
-7.19342e-07
-6.04336e-08
-5.28589e-07
-1.57427e-08
-3.23911e-07
-1.09479e-07
-1.70517e-08
1.30059e-07
-6.48276e-08
3.77831e-07
-1.39822e-07
6.08727e-07
-2.38482e-07
8.19398e-07
-3.57268e-07
1.00735e-06
-4.92701e-07
1.17071e-06
-6.41396e-07
1.30825e-06
-8.00106e-07
1.41927e-06
-9.65743e-07
1.50361e-06
-1.1354e-06
1.56154e-06
-1.30638e-06
1.5937e-06
-1.47618e-06
1.60103e-06
-1.64252e-06
1.58473e-06
-1.80332e-06
1.54617e-06
-1.95672e-06
1.48686e-06
-2.10104e-06
1.40842e-06
-2.23481e-06
1.31249e-06
-2.35672e-06
1.20077e-06
-2.46563e-06
1.07498e-06
-2.56055e-06
9.36808e-07
-2.64064e-06
7.87969e-07
-2.70516e-06
6.30155e-07
-2.75354e-06
4.65066e-07
-2.78529e-06
2.94408e-07
-2.80006e-06
1.19909e-07
-2.7976e-06
-5.66724e-08
-2.77779e-06
-2.33532e-07
-2.74065e-06
-4.08808e-07
-2.68632e-06
-5.80574e-07
-2.61509e-06
-7.46835e-07
-2.52744e-06
-9.05519e-07
-2.42401e-06
-1.05449e-06
-2.30567e-06
-1.19156e-06
-2.17349e-06
-1.3145e-06
-2.02878e-06
-1.42107e-06
-1.87311e-06
-1.50906e-06
-1.70832e-06
-1.57636e-06
-1.53651e-06
-1.62094e-06
-1.36005e-06
-1.64101e-06
-1.1816e-06
-1.63502e-06
-1.00404e-06
-1.60174e-06
-8.30482e-07
-1.54037e-06
-6.64235e-07
-1.45059e-06
-5.0875e-07
-1.33261e-06
-3.67576e-07
-1.18726e-06
-2.44304e-07
-1.01605e-06
-1.42503e-07
-8.21143e-07
-6.56593e-08
-6.05432e-07
-1.7117e-08
-3.72453e-07
-1.26596e-07
-1.83471e-08
1.48406e-07
-6.96938e-08
4.29178e-07
-1.50194e-07
6.89228e-07
-2.55947e-07
9.25151e-07
-3.83069e-07
1.13447e-06
-5.27748e-07
1.31539e-06
-6.86296e-07
1.46679e-06
-8.55185e-07
1.58816e-06
-1.03109e-06
1.67951e-06
-1.21089e-06
1.74134e-06
-1.39172e-06
1.77453e-06
-1.57095e-06
1.78026e-06
-1.74619e-06
1.75997e-06
-1.9153e-06
1.71528e-06
-2.07637e-06
1.64793e-06
-2.22771e-06
1.55975e-06
-2.36783e-06
1.45261e-06
-2.49543e-06
1.32837e-06
-2.60938e-06
1.18893e-06
-2.70873e-06
1.03615e-06
-2.79262e-06
8.71865e-07
-2.86037e-06
6.97903e-07
-2.91138e-06
5.16079e-07
-2.94519e-06
3.28212e-07
-2.96142e-06
1.36136e-07
-2.9598e-06
-5.82838e-08
-2.9402e-06
-2.53131e-07
-2.90259e-06
-4.46426e-07
-2.84705e-06
-6.36112e-07
-2.77384e-06
-8.20046e-07
-2.68336e-06
-9.95994e-07
-2.57622e-06
-1.16163e-06
-2.45321e-06
-1.31457e-06
-2.31538e-06
-1.45233e-06
-2.164e-06
-1.57244e-06
-2.00065e-06
-1.67241e-06
-1.82719e-06
-1.74982e-06
-1.64578e-06
-1.80235e-06
-1.45889e-06
-1.8279e-06
-1.26932e-06
-1.82459e-06
-1.08013e-06
-1.79092e-06
-8.94689e-07
-1.72582e-06
-7.16572e-07
-1.6287e-06
-5.49557e-07
-1.49962e-06
-3.97551e-07
-1.33927e-06
-2.64531e-07
-1.14907e-06
-1.54464e-07
-9.3121e-07
-7.124e-08
-6.88656e-07
-1.85904e-08
-4.25103e-07
-1.45186e-07
-1.97096e-08
1.68116e-07
-7.47953e-08
4.84263e-07
-1.61039e-07
7.75472e-07
-2.74161e-07
1.03827e-06
-4.09903e-07
1.27021e-06
-5.641e-07
1.46959e-06
-7.32734e-07
1.63543e-06
-9.11986e-07
1.76741e-06
-1.09827e-06
1.86579e-06
-1.28826e-06
1.93133e-06
-1.47892e-06
1.96518e-06
-1.66748e-06
1.96882e-06
-1.85147e-06
1.94396e-06
-2.02868e-06
1.89249e-06
-2.19717e-06
1.81642e-06
-2.35524e-06
1.71782e-06
-2.50141e-06
1.59878e-06
-2.63442e-06
1.46138e-06
-2.75315e-06
1.30767e-06
-2.85667e-06
1.13968e-06
-2.94419e-06
9.59383e-07
-3.01502e-06
7.68735e-07
-3.0686e-06
5.69658e-07
-3.10446e-06
3.64071e-07
-3.12223e-06
1.53901e-07
-3.12162e-06
-5.88915e-08
-3.10246e-06
-2.72293e-07
-3.06467e-06
-4.84218e-07
-3.00829e-06
-6.9249e-07
-2.9335e-06
-8.9483e-07
-2.84065e-06
-1.08885e-06
-2.73025e-06
-1.27203e-06
-2.60304e-06
-1.44178e-06
-2.45999e-06
-1.59538e-06
-2.30234e-06
-1.73009e-06
-2.13164e-06
-1.84311e-06
-1.94975e-06
-1.93171e-06
-1.75888e-06
-1.99322e-06
-1.5616e-06
-2.02518e-06
-1.36082e-06
-2.02537e-06
-1.15981e-06
-1.99193e-06
-9.62161e-07
-1.92346e-06
-7.71763e-07
-1.8191e-06
-5.92735e-07
-1.67865e-06
-4.29373e-07
-1.50263e-06
-2.86072e-07
-1.29237e-06
-1.67244e-07
-1.05004e-06
-7.72221e-08
-7.78678e-07
-2.01763e-08
-4.82149e-07
-1.65363e-07
-2.1147e-08
1.89263e-07
-8.01586e-08
5.43275e-07
-1.72407e-07
8.6772e-07
-2.93194e-07
1.15906e-06
-4.37858e-07
1.41487e-06
-6.01847e-07
1.63358e-06
-7.8079e-07
1.81437e-06
-9.70555e-07
1.95717e-06
-1.16729e-06
2.06253e-06
-1.36745e-06
2.1315e-06
-1.56783e-06
2.16556e-06
-1.76553e-06
2.16652e-06
-1.95799e-06
2.13642e-06
-2.14296e-06
2.07746e-06
-2.31849e-06
1.99195e-06
-2.48288e-06
1.88222e-06
-2.63469e-06
1.75059e-06
-2.77268e-06
1.59937e-06
-2.8958e-06
1.43079e-06
-3.00316e-06
1.24704e-06
-3.09402e-06
1.05023e-06
-3.16772e-06
8.42437e-07
-3.22373e-06
6.25673e-07
-3.26161e-06
4.01945e-07
-3.28097e-06
1.73261e-07
-3.28152e-06
-5.83398e-08
-3.26305e-06
-2.90765e-07
-3.22542e-06
-5.21839e-07
-3.16863e-06
-7.49283e-07
-3.09277e-06
-9.70692e-07
-2.99809e-06
-1.18353e-06
-2.88502e-06
-1.3851e-06
-2.75419e-06
-1.5726e-06
-2.60651e-06
-1.74307e-06
-2.44314e-06
-1.89346e-06
-2.26556e-06
-2.02069e-06
-2.07564e-06
-2.12163e-06
-1.8756e-06
-2.19326e-06
-1.66807e-06
-2.23271e-06
-1.4561e-06
-2.23734e-06
-1.24314e-06
-2.20489e-06
-1.03304e-06
-2.13357e-06
-8.2998e-07
-2.02216e-06
-6.38461e-07
-1.87017e-06
-4.632e-07
-1.67789e-06
-3.09055e-07
-1.44651e-06
-1.80927e-07
-1.17817e-06
-8.36507e-08
-8.75954e-07
-2.18882e-08
-5.43911e-07
-1.87251e-07
-2.26672e-08
2.1193e-07
-8.58095e-08
6.06417e-07
-1.84344e-07
9.66254e-07
-3.13115e-07
1.28783e-06
-4.6701e-07
1.56877e-06
-6.41059e-07
1.80763e-06
-8.3051e-07
2.00382e-06
-1.0309e-06
2.15756e-06
-1.23808e-06
2.26972e-06
-1.44831e-06
2.34172e-06
-1.65818e-06
2.37543e-06
-1.86469e-06
2.37303e-06
-2.06521e-06
2.33694e-06
-2.25746e-06
2.26971e-06
-2.43949e-06
2.17398e-06
-2.60963e-06
2.05236e-06
-2.7665e-06
1.90745e-06
-2.90891e-06
1.74178e-06
-3.03589e-06
1.55777e-06
-3.14661e-06
1.35777e-06
-3.2404e-06
1.14402e-06
-3.31666e-06
9.18701e-07
-3.37491e-06
6.83916e-07
-3.4147e-06
4.41741e-07
-3.43569e-06
1.94244e-07
-3.43755e-06
-5.64784e-08
-3.42004e-06
-3.08275e-07
-3.38298e-06
-5.58901e-07
-3.32627e-06
-8.05993e-07
-3.24992e-06
-1.04704e-06
-3.15408e-06
-1.27937e-06
-3.03906e-06
-1.50013e-06
-2.90538e-06
-1.70628e-06
-2.75381e-06
-1.89463e-06
-2.58544e-06
-2.06184e-06
-2.40166e-06
-2.20447e-06
-2.20427e-06
-2.31901e-06
-1.99551e-06
-2.40202e-06
-1.77806e-06
-2.45017e-06
-1.55505e-06
-2.46035e-06
-1.33013e-06
-2.42981e-06
-1.10739e-06
-2.35631e-06
-8.91345e-07
-2.23821e-06
-6.86879e-07
-2.07463e-06
-4.99174e-07
-1.8656e-06
-3.33597e-07
-1.61209e-06
-1.95597e-07
-1.31617e-06
-9.05702e-08
-9.80981e-07
-2.37394e-08
-6.10742e-07
-2.1099e-07
-2.42783e-08
2.36209e-07
-9.17749e-08
6.73914e-07
-1.969e-07
1.07138e-06
-3.33987e-07
1.42492e-06
-4.9743e-07
1.73221e-06
-6.81794e-07
1.99199e-06
-8.81914e-07
2.20394e-06
-1.09296e-06
2.36861e-06
-1.31052e-06
2.48727e-06
-1.53057e-06
2.56178e-06
-1.74958e-06
2.59444e-06
-1.96443e-06
2.58787e-06
-2.17243e-06
2.54494e-06
-2.37129e-06
2.46858e-06
-2.55909e-06
2.36178e-06
-2.73422e-06
2.2275e-06
-2.89537e-06
2.06861e-06
-3.04146e-06
1.88787e-06
-3.1716e-06
1.68791e-06
-3.28507e-06
1.47123e-06
-3.38125e-06
1.24021e-06
-3.45965e-06
9.97101e-07
-3.51983e-06
7.4409e-07
-3.56139e-06
4.833e-07
-3.58398e-06
2.16838e-07
-3.58729e-06
-5.31693e-08
-3.57103e-06
-3.24533e-07
-3.53496e-06
-5.94967e-07
-3.47891e-06
-8.62046e-07
-3.40277e-06
-1.12318e-06
-3.30657e-06
-1.37557e-06
-3.19049e-06
-1.61621e-06
-3.05489e-06
-1.84188e-06
-2.9004e-06
-2.04912e-06
-2.72795e-06
-2.23429e-06
-2.53885e-06
-2.39357e-06
-2.3348e-06
-2.52306e-06
-2.11799e-06
-2.61883e-06
-1.89112e-06
-2.67705e-06
-1.65741e-06
-2.69405e-06
-1.42066e-06
-2.66656e-06
-1.18522e-06
-2.59175e-06
-9.5593e-07
-2.4675e-06
-7.38105e-07
-2.29246e-06
-5.37421e-07
-2.06628e-06
-3.59811e-07
-1.7897e-06
-2.11334e-07
-1.46464e-06
-9.80251e-08
-1.09429e-06
-2.57438e-08
-6.83023e-07
-2.36734e-07
-2.59893e-08
2.62198e-07
-9.80842e-08
7.46009e-07
-2.10128e-07
1.18342e-06
-3.55881e-07
1.57067e-06
-5.29186e-07
1.90552e-06
-7.24099e-07
2.1869e-06
-9.34999e-07
2.41484e-06
-1.15668e-06
2.59029e-06
-1.3844e-06
2.71499e-06
-1.61392e-06
2.7913e-06
-1.84154e-06
2.82206e-06
-2.06405e-06
2.81038e-06
-2.27873e-06
2.75962e-06
-2.48331e-06
2.67316e-06
-2.67593e-06
2.5544e-06
-2.85507e-06
2.40664e-06
-3.01953e-06
2.23306e-06
-3.16835e-06
2.03668e-06
-3.30075e-06
1.82032e-06
-3.41615e-06
1.58663e-06
-3.51405e-06
1.3381e-06
-3.59403e-06
1.07708e-06
-3.65573e-06
8.05791e-07
-3.69881e-06
5.26383e-07
-3.72295e-06
2.40977e-07
-3.72783e-06
-4.82935e-08
-3.71312e-06
-3.39238e-07
-3.67854e-06
-6.29554e-07
-3.62379e-06
-9.16789e-07
-3.54868e-06
-1.19829e-06
-3.45307e-06
-1.47118e-06
-3.33697e-06
-1.73231e-06
-3.20059e-06
-1.97827e-06
-3.04435e-06
-2.20535e-06
-2.86903e-06
-2.40961e-06
-2.67575e-06
-2.58685e-06
-2.46609e-06
-2.73272e-06
-2.24215e-06
-2.84277e-06
-2.00661e-06
-2.91259e-06
-1.76274e-06
-2.93792e-06
-1.51449e-06
-2.91481e-06
-1.26643e-06
-2.83981e-06
-1.02375e-06
-2.71017e-06
-7.92221e-07
-2.52399e-06
-5.78052e-07
-2.28045e-06
-3.87804e-07
-1.97995e-06
-2.28221e-07
-1.62423e-06
-1.06062e-07
-1.21645e-06
-2.79156e-08
-7.61169e-07
-2.6465e-07
-2.78109e-08
2.90009e-07
-1.04772e-07
8.2297e-07
-2.24088e-07
1.30274e-06
-3.78873e-07
1.72546e-06
-5.62353e-07
2.089e-06
-7.68016e-07
2.39257e-06
-9.89743e-07
2.63657e-06
-1.22191e-06
2.82245e-06
-1.45945e-06
2.95253e-06
-1.69791e-06
3.02976e-06
-1.93341e-06
3.05756e-06
-2.16268e-06
3.03966e-06
-2.383e-06
2.97994e-06
-2.59216e-06
2.88232e-06
-2.78839e-06
2.75062e-06
-2.9703e-06
2.58855e-06
-3.13683e-06
2.39959e-06
-3.28718e-06
2.18703e-06
-3.42074e-06
1.95388e-06
-3.53707e-06
1.70296e-06
-3.6358e-06
1.43684e-06
-3.71665e-06
1.15793e-06