/*--------------------------------*- C++ -*----------------------------------*\
  =========                 |
  \\      /  F ield         | OpenFOAM: The Open Source CFD Toolbox
   \\    /   O peration     | Website:  https://openfoam.org
    \\  /    A nd           | Version:  7
     \\/     M anipulation  |
\*---------------------------------------------------------------------------*/
FoamFile
{
    version     2.0;
    format      ascii;
    class       volVectorField;
    location    "0.0558";
    object      U;
}
// * * * * * * * * * * * * * * * * * * * * * * * * * * * * * * * * * * * * * //

dimensions      [0 1 -1 0 0 0 0];

internalField   nonuniform List<vector> 
2500
(
(0.290245 -0.152407 0)
(0.389518 -0.128228 0)
(0.565397 -0.0747291 0)
(0.683226 -0.0422315 0)
(0.75283 -0.0245331 0)
(0.797864 -0.014895 0)
(0.829059 -0.00958971 0)
(0.851567 -0.00656792 0)
(0.868415 -0.00474485 0)
(0.881422 -0.00357058 0)
(0.891697 -0.00276691 0)
(0.899947 -0.00218844 0)
(0.90665 -0.00175533 0)
(0.91214 -0.00142115 0)
(0.916661 -0.00115728 0)
(0.920396 -0.000945072 0)
(0.923482 -0.000771742 0)
(0.926027 -0.000628176 0)
(0.928116 -0.000507629 0)
(0.929814 -0.00040495 0)
(0.931174 -0.000316084 0)
(0.932235 -0.000237745 0)
(0.933029 -0.000167187 0)
(0.933578 -0.000102046 0)
(0.933897 -4.02158e-05 0)
(0.933994 2.02573e-05 0)
(0.933871 8.13844e-05 0)
(0.933524 0.00014499 0)
(0.932941 0.000213106 0)
(0.932104 0.000287982 0)
(0.930987 0.000372194 0)
(0.929555 0.000468818 0)
(0.927761 0.000581651 0)
(0.925545 0.000715546 0)
(0.922829 0.000876893 0)
(0.919513 0.00107438 0)
(0.915465 0.00132019 0)
(0.910513 0.00163209 0)
(0.904421 0.00203717 0)
(0.896863 0.00257887 0)
(0.887374 0.00333121 0)
(0.875259 0.00442849 0)
(0.859431 0.00612935 0)
(0.838088 0.00895452 0)
(0.808178 0.0139639 0)
(0.76443 0.0232494 0)
(0.695913 0.0407733 0)
(0.577939 0.0737473 0)
(0.398043 0.128743 0)
(0.293866 0.153783 0)
(0.00107881 -0.294875 0)
(0.0168398 -0.298598 0)
(0.152305 -0.213014 0)
(0.282854 -0.145335 0)
(0.388053 -0.0996624 0)
(0.471318 -0.0698482 0)
(0.5368 -0.0505069 0)
(0.588348 -0.0377152 0)
(0.629302 -0.0289617 0)
(0.662218 -0.0227444 0)
(0.688957 -0.0181733 0)
(0.710874 -0.0147103 0)
(0.728968 -0.01202 0)
(0.743984 -0.00988638 0)
(0.756489 -0.00816468 0)
(0.766919 -0.00675477 0)
(0.775616 -0.00558494 0)
(0.782849 -0.00460227 0)
(0.788834 -0.00376656 0)
(0.793739 -0.00304648 0)
(0.797702 -0.00241688 0)
(0.800827 -0.00185708 0)
(0.803197 -0.00134953 0)
(0.804871 -0.000878923 0)
(0.805891 -0.000431429 0)
(0.806279 5.89579e-06 0)
(0.806041 0.000445715 0)
(0.805165 0.000900708 0)
(0.803623 0.00138431 0)
(0.801367 0.00191127 0)
(0.798328 0.00249839 0)
(0.794412 0.00316549 0)
(0.789497 0.00393675 0)
(0.783428 0.00484252 0)
(0.776002 0.00592203 0)
(0.766964 0.00722736 0)
(0.755982 0.00882954 0)
(0.742627 0.0108282 0)
(0.726331 0.0133678 0)
(0.706339 0.0166645 0)
(0.681624 0.021054 0)
(0.650771 0.0270781 0)
(0.611801 0.0356419 0)
(0.561945 0.0482972 0)
(0.497471 0.0677031 0)
(0.413918 0.0981629 0)
(0.306385 0.145788 0)
(0.170546 0.217305 0)
(0.0269048 0.307195 0)
(0.00518396 0.303003 0)
(-0.0329213 -0.250366 0)
(-0.0615903 -0.344028 0)
(-0.0114748 -0.310603 0)
(0.07087 -0.251567 0)
(0.15903 -0.196062 0)
(0.241617 -0.151508 0)
(0.314274 -0.117817 0)
(0.376304 -0.0927223 0)
(0.428603 -0.07393 0)
(0.472519 -0.0596622 0)
(0.509389 -0.048646 0)
(0.540385 -0.0399938 0)
(0.56649 -0.0330881 0)
(0.588505 -0.0274958 0)
(0.607084 -0.0229078 0)
(0.622756 -0.019099 0)
(0.635951 -0.0159021 0)
(0.64702 -0.0131897 0)
(0.656248 -0.0108626 0)
(0.663867 -0.00884184 0)
(0.670063 -0.00706301 0)
(0.674986 -0.00547221 0)
(0.678751 -0.00402317 0)
(0.681442 -0.002675 0)
(0.683119 -0.00139041 0)
(0.683814 -0.000134276 0)
(0.683534 0.00112767 0)
(0.682264 0.00243028 0)
(0.67996 0.00381016 0)
(0.676554 0.00530734 0)
(0.671944 0.0069671 0)
(0.665998 0.00884236 0)
(0.658541 0.0109969 0)
(0.649353 0.0135096 0)
(0.638156 0.0164807 0)
(0.624601 0.0200404 0)
(0.608249 0.0243616 0)
(0.588549 0.0296793 0)
(0.564806 0.0363191 0)
(0.536142 0.0447413 0)
(0.501456 0.0556085 0)
(0.459389 0.0698848 0)
(0.408322 0.088973 0)
(0.346505 0.114871 0)
(0.272505 0.150225 0)
(0.186455 0.197796 0)
(0.0923854 0.258123 0)
(0.00191063 0.323351 0)
(-0.05691 0.361562 0)
(-0.0321675 0.263989 0)
(-0.0267685 -0.190602 0)
(-0.0654077 -0.333005 0)
(-0.0644936 -0.351532 0)
(-0.0273845 -0.319315 0)
(0.0298107 -0.272094 0)
(0.0940116 -0.225584 0)
(0.157528 -0.185258 0)
(0.216556 -0.152026 0)
(0.269577 -0.125159 0)
(0.316295 -0.103527 0)
(0.357005 -0.0860507 0)
(0.39225 -0.071833 0)
(0.422636 -0.0601673 0)
(0.448755 -0.0505099 0)
(0.471145 -0.0424441 0)
(0.490281 -0.0356485 0)
(0.506573 -0.0298733 0)
(0.520371 -0.0249208 0)
(0.531971 -0.0206324 0)
(0.541619 -0.0168783 0)
(0.549519 -0.0135503 0)
(0.555836 -0.010556 0)
(0.560699 -0.00781479 0)
(0.564204 -0.00525437 0)
(0.566418 -0.00280815 0)
(0.567376 -0.000412806 0)
(0.567086 0.00199381 0)
(0.565528 0.00447486 0)
(0.56265 0.00709672 0)
(0.558368 0.00993151 0)
(0.552565 0.0130601 0)
(0.545085 0.0165761 0)
(0.535729 0.0205903 0)
(0.524249 0.0252376 0)
(0.510339 0.0306854 0)
(0.493626 0.0371456 0)
(0.47366 0.0448904 0)
(0.449903 0.0542754 0)
(0.42172 0.0657685 0)
(0.388379 0.07999 0)
(0.349079 0.0977587 0)
(0.303017 0.120136 0)
(0.249569 0.148432 0)
(0.188648 0.184079 0)
(0.12142 0.22815 0)
(0.0515573 0.279964 0)
(-0.0128947 0.333781 0)
(-0.0577144 0.372304 0)
(-0.0646406 0.355982 0)
(-0.0272804 0.204819 0)
(-0.0178425 -0.149169 0)
(-0.0530783 -0.302962 0)
(-0.0735557 -0.354953 0)
(-0.0664675 -0.350372 0)
(-0.03723 -0.319756 0)
(0.00494367 -0.280457 0)
(0.0528449 -0.241058 0)
(0.10171 -0.205175 0)
(0.148696 -0.17392 0)
(0.1923 -0.147263 0)
(0.231866 -0.124731 0)
(0.267241 -0.105728 0)
(0.298542 -0.0896788 0)
(0.326023 -0.0760772 0)
(0.349999 -0.0644956 0)
(0.370792 -0.0545797 0)
(0.388715 -0.0460371 0)
(0.404055 -0.0386254 0)
(0.417068 -0.0321422 0)
(0.427976 -0.0264166 0)
(0.436968 -0.0213014 0)
(0.444202 -0.0166685 0)
(0.449801 -0.0124034 0)
(0.45386 -0.00840186 0)
(0.456442 -0.00456656 0)
(0.457583 -0.000803984 0)
(0.457287 0.00297818 0)
(0.455529 0.00687385 0)
(0.452254 0.0109815 0)
(0.447372 0.0154076 0)
(0.440762 0.0202699 0)
(0.432264 0.025703 0)
(0.421679 0.0318633 0)
(0.408765 0.0389368 0)
(0.393234 0.0471481 0)
(0.374749 0.0567719 0)
(0.352927 0.0681475 0)
(0.327344 0.0816954 0)
(0.297556 0.097935 0)
(0.263135 0.117498 0)
(0.223753 0.141128 0)
(0.179322 0.169632 0)
(0.130249 0.203732 0)
(0.0778429 0.243703 0)
(0.0249137 0.288567 0)
(-0.0234578 0.334501 0)
(-0.059242 0.371957 0)
(-0.071856 0.381343 0)
(-0.0542893 0.328263 0)
(-0.018637 0.162505 0)
(-0.0114198 -0.120927 0)
(-0.0402302 -0.27001 0)
(-0.067763 -0.340256 0)
(-0.0776333 -0.357486 0)
(-0.0687296 -0.344246 0)
(-0.0458454 -0.316024 0)
(-0.0141643 -0.282205 0)
(0.0220456 -0.247935 0)
(0.0596693 -0.215742 0)
(0.0966423 -0.186666 0)
(0.131709 -0.160954 0)
(0.164178 -0.138471 0)
(0.193733 -0.118917 0)
(0.220291 -0.10194 0)
(0.243909 -0.0871904 0)
(0.264724 -0.0743472 0)
(0.282909 -0.0631223 0)
(0.298651 -0.0532622 0)
(0.312134 -0.044544 0)
(0.323529 -0.0367716 0)
(0.332987 -0.0297707 0)
(0.340639 -0.0233845 0)
(0.346589 -0.0174699 0)
(0.350919 -0.011894 0)
(0.353683 -0.00653068 0)
(0.354908 -0.00125754 0)
(0.354594 0.00404699 0)
(0.352714 0.00950684 0)
(0.349212 0.0152515 0)
(0.344003 0.0214196 0)
(0.33697 0.0281633 0)
(0.327967 0.0356524 0)
(0.316815 0.0440809 0)
(0.303308 0.0536724 0)
(0.287209 0.0646885 0)
(0.268262 0.077436 0)
(0.246202 0.0922746 0)
(0.220779 0.109622 0)
(0.191796 0.129951 0)
(0.159177 0.153767 0)
(0.123072 0.181557 0)
(0.0840191 0.213655 0)
(0.0431796 0.249995 0)
(0.00265341 0.289622 0)
(-0.0341885 0.329856 0)
(-0.0624986 0.364938 0)
(-0.0761665 0.384104 0)
(-0.0692868 0.369515 0)
(-0.0422564 0.295451 0)
(-0.0121754 0.133033 0)
(-0.00746368 -0.100945 0)
(-0.0304001 -0.239774 0)
(-0.0585483 -0.318229 0)
(-0.0768241 -0.35045 0)
(-0.0811424 -0.351975 0)
(-0.073021 -0.335277 0)
(-0.0554791 -0.309108 0)
(-0.0316774 -0.279084 0)
(-0.00434845 -0.248538 0)
(0.0244068 -0.219297 0)
(0.0530963 -0.192248 0)
(0.0807264 -0.167729 0)
(0.106678 -0.145768 0)
(0.130602 -0.126231 0)
(0.15233 -0.108909 0)
(0.171818 -0.0935627 0)
(0.189096 -0.0799504 0)
(0.204238 -0.0678392 0)
(0.217342 -0.0570106 0)
(0.228512 -0.0472619 0)
(0.237849 -0.0384053 0)
(0.245444 -0.0302662 0)
(0.251375 -0.0226807 0)
(0.2557 -0.0154932 0)
(0.258458 -0.00855358 0)
(0.259666 -0.00171446 0)
(0.259321 0.00517146 0)
(0.257392 0.0122545 0)
(0.253827 0.0196911 0)
(0.248551 0.0276471 0)
(0.241463 0.0363018 0)
(0.232442 0.0458515 0)
(0.221349 0.0565143 0)
(0.208027 0.0685338 0)
(0.192316 0.0821831 0)
(0.174063 0.0977663 0)
(0.153144 0.115617 0)
(0.129499 0.136087 0)
(0.103179 0.159524 0)
(0.0744231 0.186215 0)
(0.0437623 0.216294 0)
(0.0121561 0.249562 0)
(-0.0188391 0.285191 0)
(-0.0469042 0.321249 0)
(-0.0688851 0.353993 0)
(-0.080982 0.376936 0)
(-0.0793972 0.379837 0)
(-0.0619437 0.348142 0)
(-0.0327102 0.264026 0)
(-0.00811984 0.111706 0)
(-0.0051267 -0.0862996 0)
(-0.0234977 -0.213516 0)
(-0.049805 -0.294082 0)
(-0.0716036 -0.335579 0)
(-0.0839225 -0.348356 0)
(-0.0862951 -0.341905 0)
(-0.08002 -0.323714 0)
(-0.0670895 -0.299169 0)
(-0.0495792 -0.271884 0)
(-0.0293118 -0.244139 0)
(-0.00774108 -0.217284 0)
(0.0140457 -0.192054 0)
(0.0352766 -0.168788 0)
(0.0554311 -0.147584 0)
(0.0741786 -0.128399 0)
(0.091327 -0.111105 0)
(0.106781 -0.0955353 0)
(0.12051 -0.0815021 0)
(0.132525 -0.0688121 0)
(0.142862 -0.0572734 0)
(0.151566 -0.0466989 0)
(0.158686 -0.0369071 0)
(0.164264 -0.0277227 0)
(0.168334 -0.0189749 0)
(0.170918 -0.0104959 0)
(0.172022 -0.0021193 0)
(0.171633 0.00632258 0)
(0.169726 0.0150007 0)
(0.166253 0.0240923 0)
(0.161153 0.033783 0)
(0.154351 0.0442702 0)
(0.145757 0.055765 0)
(0.135277 0.0684946 0)
(0.122821 0.0827031 0)
(0.108311 0.0986502 0)
(0.0917038 0.116606 0)
(0.0730137 0.136839 0)
(0.0523533 0.159591 0)
(0.029982 0.185036 0)
(0.00637399 0.213204 0)
(-0.0176987 0.243863 0)
(-0.0410735 0.276326 0)
(-0.0621131 0.309173 0)
(-0.0786744 0.339848 0)
(-0.0882199 0.364165 0)
(-0.0882006 0.375768 0)
(-0.0767937 0.365789 0)
(-0.0542124 0.323094 0)
(-0.0258691 0.23584 0)
(-0.00569627 0.0957141 0)
(-0.00372897 -0.0751103 0)
(-0.0187302 -0.190978 0)
(-0.0425539 -0.270185 0)
(-0.0653337 -0.316742 0)
(-0.082219 -0.33745 0)
(-0.0917222 -0.339317 0)
(-0.0939707 -0.328436 0)
(-0.0899792 -0.309611 0)
(-0.0811359 -0.286371 0)
(-0.068851 -0.261168 0)
(-0.0543775 -0.235624 0)
(-0.0387454 -0.210755 0)
(-0.0227563 -0.187155 0)
(-0.00700683 -0.165131 0)
(0.00807606 -0.144801 0)
(0.0221999 -0.12616 0)
(0.0351739 -0.109129 0)
(0.0468822 -0.0935791 0)
(0.057261 -0.0793584 0)
(0.0662823 -0.0662988 0)
(0.0739395 -0.0542254 0)
(0.0802382 -0.0429609 0)
(0.0851878 -0.0323269 0)
(0.0887966 -0.0221457 0)
(0.0910671 -0.012239 0)
(0.0919939 -0.00242805 0)
(0.0915616 0.00746853 0)
(0.0897445 0.0176357 0)
(0.0865066 0.0282636 0)
(0.0818036 0.0395495 0)
(0.0755856 0.0516986 0)
(0.0678022 0.0649247 0)
(0.0584093 0.0794496 0)
(0.04738 0.0955001 0)
(0.0347188 0.113302 0)
(0.0204822 0.133067 0)
(0.00480499 0.154972 0)
(-0.0120639 0.179128 0)
(-0.0297183 0.205519 0)
(-0.047543 0.233923 0)
(-0.0646606 0.263785 0)
(-0.0798869 0.294043 0)
(-0.09172 0.32289 0)
(-0.098404 0.347489 0)
(-0.0981359 0.363665 0)
(-0.0894935 0.365682 0)
(-0.0720807 0.346288 0)
(-0.0474358 0.297289 0)
(-0.0210584 0.211003 0)
(-0.00423061 0.083227 0)
(-0.00286252 -0.066196 0)
(-0.0154089 -0.171519 0)
(-0.0368357 -0.247473 0)
(-0.0593838 -0.296159 0)
(-0.0787147 -0.322044 0)
(-0.0929227 -0.33023 0)
(-0.101422 -0.325539 0)
(-0.104506 -0.312069 0)
(-0.102965 -0.293058 0)
(-0.0977783 -0.270928 0)
(-0.0899291 -0.247409 0)
(-0.0803006 -0.223686 0)
(-0.0696371 -0.200531 0)
(-0.0585365 -0.178418 0)
(-0.0474614 -0.157605 0)
(-0.0367583 -0.138201 0)
(-0.0266787 -0.120215 0)
(-0.0174002 -0.103586 0)
(-0.00904377 -0.088209 0)
(-0.00168947 -0.0739488 0)
(0.0046116 -0.0606519 0)
(0.00982725 -0.0481528 0)
(0.0139367 -0.0362788 0)
(0.0169246 -0.0248522 0)
(0.0187772 -0.0136916 0)
(0.0194789 -0.00261241 0)
(0.0190112 0.00857318 0)
(0.0173522 0.0200568 0)
(0.0144769 0.032034 0)
(0.0103601 0.0447047 0)
(0.00497954 0.0582723 0)
(-0.00167793 0.0729422 0)
(-0.00960833 0.088918 0)
(-0.0187793 0.106395 0)
(-0.029115 0.125551 0)
(-0.0404772 0.146524 0)
(-0.0526406 0.169392 0)
(-0.0652642 0.194126 0)
(-0.077859 0.220533 0)
(-0.0897563 0.248173 0)
(-0.100083 0.276245 0)
(-0.107759 0.303439 0)
(-0.111537 0.327762 0)
(-0.110121 0.346352 0)
(-0.102396 0.355332 0)
(-0.0878237 0.349788 0)
(-0.0669262 0.323999 0)
(-0.0418466 0.272071 0)
(-0.017633 0.189093 0)
(-0.00330777 0.073083 0)
(-0.00230222 -0.0588252 0)
(-0.0130555 -0.15449 0)
(-0.0324127 -0.226195 0)
(-0.0542217 -0.275025 0)
(-0.0747453 -0.303941 0)
(-0.091995 -0.316649 0)
(-0.104997 -0.316906 0)
(-0.113554 -0.308116 0)
(-0.117987 -0.293135 0)
(-0.118892 -0.27423 0)
(-0.11697 -0.25312 0)
(-0.112918 -0.231059 0)
(-0.107373 -0.208926 0)
(-0.100881 -0.18731 0)
(-0.0938943 -0.166581 0)
(-0.0867724 -0.146943 0)
(-0.0797963 -0.128485 0)
(-0.07318 -0.111212 0)
(-0.067083 -0.095067 0)
(-0.0616229 -0.079952 0)
(-0.0568851 -0.0657401 0)
(-0.0529319 -0.052284 0)
(-0.0498089 -0.0394225 0)
(-0.0475507 -0.0269845 0)
(-0.0461848 -0.0147918 0)
(-0.0457343 -0.00266079 0)
(-0.046219 0.00959642 0)
(-0.047656 0.0221711 0)
(-0.0500585 0.0352568 0)
(-0.0534329 0.049048 0)
(-0.0577751 0.0637379 0)
(-0.0630642 0.0795141 0)
(-0.0692542 0.096553 0)
(-0.0762632 0.11501 0)
(-0.0839598 0.135004 0)
(-0.0921464 0.156598 0)
(-0.10054 0.179768 0)
(-0.108752 0.204359 0)
(-0.116268 0.230029 0)
(-0.122434 0.256171 0)
(-0.126459 0.281819 0)
(-0.127439 0.305538 0)
(-0.124427 0.325303 0)
(-0.116571 0.338403 0)
(-0.10333 0.341405 0)
(-0.0847937 0.330237 0)
(-0.0620175 0.300491 0)
(-0.0373229 0.247984 0)
(-0.0151342 0.169607 0)
(-0.00269685 0.0645656 0)
(-0.00192496 -0.0525348 0)
(-0.0113567 -0.139346 0)
(-0.0290119 -0.2063 0)
(-0.0499296 -0.253946 0)
(-0.070935 -0.284277 0)
(-0.0901215 -0.299995 0)
(-0.106337 -0.304013 0)
(-0.119072 -0.299112 0)
(-0.128304 -0.287748 0)
(-0.134315 -0.271967 0)
(-0.137547 -0.253399 0)
(-0.138508 -0.233294 0)
(-0.137699 -0.212576 0)
(-0.135587 -0.191902 0)
(-0.13258 -0.171716 0)
(-0.12902 -0.1523 0)
(-0.125192 -0.133807 0)
(-0.121324 -0.116299 0)
(-0.117595 -0.0997651 0)
(-0.114146 -0.0841455 0)
(-0.111086 -0.0693415 0)
(-0.108499 -0.0552277 0)
(-0.106447 -0.0416587 0)
(-0.10498 -0.028475 0)
(-0.104136 -0.0155068 0)
(-0.103942 -0.00257717 0)
(-0.104418 0.010496 0)
(-0.105575 0.0238974 0)
(-0.107414 0.037812 0)
(-0.109926 0.0524226 0)
(-0.113081 0.0679051 0)
(-0.116832 0.0844231 0)
(-0.121098 0.102119 0)
(-0.125761 0.121104 0)
(-0.13065 0.141439 0)
(-0.135533 0.163111 0)
(-0.140099 0.186007 0)
(-0.143952 0.209865 0)
(-0.146596 0.234231 0)
(-0.147442 0.258385 0)
(-0.145825 0.281275 0)
(-0.141048 0.301438 0)
(-0.132462 0.316929 0)
(-0.119599 0.325287 0)
(-0.10236 0.323567 0)
(-0.0812509 0.308475 0)
(-0.0575952 0.276663 0)
(-0.0336653 0.225184 0)
(-0.0132609 0.152093 0)
(-0.00227175 0.0572234 0)
(-0.00166209 -0.0470201 0)
(-0.0101098 -0.125656 0)
(-0.0263975 -0.187626 0)
(-0.04644 -0.233199 0)
(-0.0675416 -0.263745 0)
(-0.0879461 -0.281252 0)
(-0.106446 -0.287976 0)
(-0.12235 -0.28617 0)
(-0.135397 -0.277912 0)
(-0.145622 -0.265004 0)
(-0.153251 -0.248941 0)
(-0.15861 -0.230917 0)
(-0.162068 -0.211854 0)
(-0.163993 -0.192435 0)
(-0.164729 -0.173151 0)
(-0.164586 -0.154332 0)
(-0.163827 -0.136183 0)
(-0.162677 -0.11881 0)
(-0.16132 -0.102245 0)
(-0.159908 -0.0864602 0)
(-0.158561 -0.0713871 0)
(-0.157376 -0.0569225 0)
(-0.156427 -0.0429398 0)
(-0.155772 -0.0292945 0)
(-0.155455 -0.0158293 0)
(-0.155506 -0.00237822 0)
(-0.155942 0.01123 0)
(-0.156769 0.0251684 0)
(-0.157977 0.0396087 0)
(-0.15954 0.0547165 0)
(-0.161413 0.070646 0)
(-0.163524 0.0875329 0)
(-0.165769 0.105484 0)
(-0.168005 0.124565 0)
(-0.170041 0.14478 0)
(-0.171631 0.166054 0)
(-0.172465 0.188195 0)
(-0.172166 0.210866 0)
(-0.170291 0.233532 0)
(-0.166345 0.255417 0)
(-0.159809 0.275445 0)
(-0.150195 0.292196 0)
(-0.137121 0.303876 0)
(-0.120432 0.308319 0)
(-0.100349 0.303055 0)
(-0.0776322 0.285461 0)
(-0.0537066 0.253016 0)
(-0.0306884 0.203657 0)
(-0.0118196 0.136186 0)
(-0.00196265 0.0507614 0)
(-0.00147387 -0.042074 0)
(-0.00918154 -0.113088 0)
(-0.0243835 -0.169983 0)
(-0.0436384 -0.212887 0)
(-0.064641 -0.242762 0)
(-0.0858028 -0.261089 0)
(-0.105929 -0.26962 0)
(-0.124234 -0.270175 0)
(-0.140293 -0.26449 0)
(-0.153962 -0.254126 0)
(-0.165288 -0.240422 0)
(-0.174442 -0.224486 0)
(-0.181664 -0.2072 0)
(-0.187225 -0.189245 0)
(-0.191396 -0.171127 0)
(-0.194437 -0.153205 0)
(-0.19658 -0.135718 0)
(-0.198033 -0.118806 0)
(-0.198974 -0.102534 0)
(-0.199551 -0.0869045 0)
(-0.199888 -0.0718738 0)
(-0.200087 -0.057362 0)
(-0.200227 -0.0432619 0)
(-0.200371 -0.0294461 0)
(-0.200563 -0.0157725 0)
(-0.200834 -0.00208969 0)
(-0.201199 0.0117594 0)
(-0.201655 0.0259326 0)
(-0.202185 0.0405845 0)
(-0.202751 0.0558603 0)
(-0.203292 0.0718903 0)
(-0.203723 0.0887805 0)
(-0.203924 0.106603 0)
(-0.203741 0.12538 0)
(-0.202979 0.14507 0)
(-0.201394 0.165541 0)
(-0.198698 0.186549 0)
(-0.194556 0.2077 0)
(-0.188596 0.22842 0)
(-0.180432 0.247916 0)
(-0.169695 0.265139 0)
(-0.156088 0.278764 0)
(-0.139457 0.28718 0)
(-0.119887 0.288524 0)
(-0.0978186 0.280758 0)
(-0.0741553 0.261817 0)
(-0.0503231 0.229816 0)
(-0.0282434 0.183314 0)
(-0.0106852 0.121596 0)
(-0.00172965 0.0449785 0)
(-0.00133631 -0.037551 0)
(-0.00848292 -0.101385 0)
(-0.0228279 -0.153189 0)
(-0.0414062 -0.19302 0)
(-0.0622234 -0.221571 0)
(-0.0838506 -0.239958 0)
(-0.105141 -0.249552 0)
(-0.125264 -0.251816 0)
(-0.143696 -0.248193 0)
(-0.16016 -0.240018 0)
(-0.174564 -0.228469 0)
(-0.18695 -0.214548 0)
(-0.197442 -0.199076 0)
(-0.206218 -0.182708 0)
(-0.213475 -0.165943 0)
(-0.219417 -0.149151 0)
(-0.224239 -0.132588 0)
(-0.228121 -0.116418 0)
(-0.231224 -0.100728 0)
(-0.233687 -0.0855465 0)
(-0.235631 -0.0708513 0)
(-0.237154 -0.0565837 0)
(-0.238335 -0.0426559 0)
(-0.239237 -0.0289581 0)
(-0.239904 -0.0153654 0)
(-0.240363 -0.00174244 0)
(-0.240625 0.0120509 0)
(-0.240682 0.0261551 0)
(-0.240509 0.0407051 0)
(-0.24006 0.0558248 0)
(-0.239264 0.0716194 0)
(-0.238028 0.0881665 0)
(-0.236226 0.105505 0)
(-0.233704 0.123623 0)
(-0.230273 0.142437 0)
(-0.225708 0.161778 0)
(-0.219756 0.181363 0)
(-0.212137 0.200771 0)
(-0.202562 0.219417 0)
(-0.190755 0.236526 0)
(-0.176488 0.25111 0)
(-0.159633 0.261966 0)
(-0.140218 0.267683 0)
(-0.118509 0.266684 0)
(-0.0950869 0.257311 0)
(-0.0709235 0.237948 0)
(-0.0473926 0.207191 0)
(-0.0262174 0.164043 0)
(-0.00977575 0.108094 0)
(-0.00154902 0.039732 0)
(-0.00123425 -0.0333467 0)
(-0.00795276 -0.0903522 0)
(-0.0216239 -0.137084 0)
(-0.039637 -0.173565 0)
(-0.060242 -0.200308 0)
(-0.0821519 -0.218165 0)
(-0.10428 -0.228211 0)
(-0.125786 -0.231626 0)
(-0.146085 -0.229601 0)
(-0.164807 -0.223264 0)
(-0.181755 -0.213639 0)
(-0.196862 -0.201614 0)
(-0.210158 -0.187937 0)
(-0.221733 -0.173216 0)
(-0.231715 -0.157931 0)
(-0.240251 -0.142443 0)
(-0.247494 -0.127016 0)
(-0.253592 -0.111823 0)
(-0.258684 -0.0969689 0)
(-0.262893 -0.0824983 0)
(-0.266329 -0.0684083 0)
(-0.269084 -0.0546584 0)
(-0.271234 -0.0411788 0)
(-0.272835 -0.0278775 0)
(-0.273929 -0.0146468 0)
(-0.274539 -0.00136884 0)
(-0.274672 0.0120788 0)
(-0.274314 0.0258176 0)
(-0.273436 0.0399628 0)
(-0.271983 0.0546164 0)
(-0.269883 0.0698596 0)
(-0.267037 0.0857442 0)
(-0.263324 0.102281 0)
(-0.258596 0.119429 0)
(-0.252679 0.137077 0)
(-0.24538 0.155029 0)
(-0.236488 0.172982 0)
(-0.225785 0.190512 0)
(-0.213068 0.207045 0)
(-0.198164 0.22185 0)
(-0.180974 0.234024 0)
(-0.161508 0.242498 0)
(-0.13994 0.246059 0)
(-0.116663 0.243392 0)
(-0.0923473 0.23316 0)
(-0.0679808 0.214106 0)
(-0.0448612 0.185191 0)
(-0.0245268 0.145726 0)
(-0.00903643 0.0955 0)
(-0.00140605 0.034917 0)
(-0.00115771 -0.0293841 0)
(-0.00754819 -0.0798392 0)
(-0.020691 -0.121532 0)
(-0.0382409 -0.154473 0)
(-0.0586387 -0.179047 0)
(-0.0807179 -0.195914 0)
(-0.103454 -0.205919 0)
(-0.126016 -0.210015 0)
(-0.147783 -0.209177 0)
(-0.168322 -0.204354 0)
(-0.187356 -0.196419 0)
(-0.204735 -0.186149 0)
(-0.220406 -0.17421 0)
(-0.234385 -0.161154 0)
(-0.246736 -0.147428 0)
(-0.257552 -0.133374 0)
(-0.266943 -0.119249 0)
(-0.275023 -0.10523 0)
(-0.281905 -0.0914289 0)
(-0.287694 -0.0779022 0)
(-0.292485 -0.0646609 0)
(-0.29636 -0.0516801 0)
(-0.299387 -0.038906 0)
(-0.301616 -0.0262633 0)
(-0.303084 -0.0136612 0)
(-0.303809 -0.0009995 0)
(-0.303792 0.0118263 0)
(-0.303017 0.024919 0)
(-0.301448 0.038374 0)
(-0.29903 0.0522726 0)
(-0.295689 0.0666746 0)
(-0.291328 0.0816094 0)
(-0.285834 0.0970659 0)
(-0.279072 0.112981 0)
(-0.270893 0.129225 0)
(-0.261137 0.145591 0)
(-0.24964 0.161772 0)
(-0.236251 0.177355 0)
(-0.220844 0.1918 0)
(-0.203345 0.204436 0)
(-0.183763 0.214458 0)
(-0.162223 0.220935 0)
(-0.139008 0.222839 0)
(-0.114601 0.219089 0)
(-0.0897202 0.208615 0)
(-0.0653429 0.190447 0)
(-0.0426814 0.163815 0)
(-0.0231104 0.12825 0)
(-0.00842978 0.0836654 0)
(-0.00129124 0.0304536 0)
(-0.00109995 -0.025606 0)
(-0.0072386 -0.0697289 0)
(-0.0199685 -0.10642 0)
(-0.0371443 -0.135687 0)
(-0.0573551 -0.157823 0)
(-0.0795343 -0.173343 0)
(-0.102716 -0.182914 0)
(-0.126085 -0.1873 0)
(-0.149005 -0.187298 0)
(-0.171 -0.183695 0)
(-0.191733 -0.17723 0)
(-0.21099 -0.168567 0)
(-0.22865 -0.15829 0)
(-0.244666 -0.146889 0)
(-0.259046 -0.134766 0)
(-0.271832 -0.122239 0)
(-0.283095 -0.109547 0)
(-0.292913 -0.0968629 0)
(-0.301375 -0.0842994 0)
(-0.308564 -0.0719191 0)
(-0.314558 -0.0597428 0)
(-0.319429 -0.0477576 0)
(-0.323232 -0.0359237 0)
(-0.326012 -0.0241808 0)
(-0.327798 -0.0124544 0)
(-0.328603 -0.000660794 0)
(-0.328424 0.0112869 0)
(-0.327241 0.0234736 0)
(-0.325016 0.0359763 0)
(-0.321693 0.0488576 0)
(-0.3172 0.0621586 0)
(-0.311447 0.0758909 0)
(-0.304331 0.0900271 0)
(-0.295736 0.104491 0)
(-0.285539 0.119144 0)
(-0.273617 0.133779 0)
(-0.259856 0.1481 0)
(-0.244165 0.161718 0)
(-0.226491 0.174142 0)
(-0.206848 0.184772 0)
(-0.185333 0.192904 0)
(-0.162163 0.197744 0)
(-0.137704 0.198437 0)
(-0.112496 0.1941 0)
(-0.0872816 0.183888 0)
(-0.0630116 0.167054 0)
(-0.0408142 0.143033 0)
(-0.0219234 0.111507 0)
(-0.00792989 0.0724684 0)
(-0.00119829 0.0262789 0)
(-0.00105624 -0.0219689 0)
(-0.00700179 -0.0599302 0)
(-0.0194108 -0.0916564 0)
(-0.0362885 -0.117154 0)
(-0.0563388 -0.13665 0)
(-0.078576 -0.150546 0)
(-0.102085 -0.159369 0)
(-0.126074 -0.163727 0)
(-0.149897 -0.164265 0)
(-0.17305 -0.161629 0)
(-0.195156 -0.156432 0)
(-0.215948 -0.149235 0)
(-0.235252 -0.140536 0)
(-0.252969 -0.130761 0)
(-0.269057 -0.120264 0)
(-0.283517 -0.109327 0)
(-0.296379 -0.0981698 0)
(-0.307693 -0.0869514 0)
(-0.317519 -0.0757801 0)
(-0.325922 -0.0647198 0)
(-0.332962 -0.053797 0)
(-0.338695 -0.0430077 0)
(-0.34317 -0.0323236 0)
(-0.346421 -0.0216978 0)
(-0.348471 -0.0110703 0)
(-0.349327 -0.000373088 0)
(-0.348983 0.0104645 0)
(-0.347414 0.0215107 0)
(-0.344582 0.0328261 0)
(-0.340432 0.044457 0)
(-0.334897 0.0564295 0)
(-0.327896 0.0687419 0)
(-0.319338 0.0813564 0)
(-0.309128 0.0941908 0)
(-0.29717 0.107109 0)
(-0.283379 0.11991 0)
(-0.267686 0.132322 0)
(-0.250056 0.143993 0)
(-0.230505 0.154486 0)
(-0.209114 0.16328 0)
(-0.186057 0.169774 0)
(-0.161622 0.173305 0)
(-0.136233 0.17317 0)
(-0.11047 0.168663 0)
(-0.0850811 0.159118 0)
(-0.0609839 0.143968 0)
(-0.0392294 0.122798 0)
(-0.0209333 0.095399 0)
(-0.00751854 0.0618056 0)
(-0.00112292 0.0223417 0)
(-0.00102325 -0.0184392 0)
(-0.00682156 -0.0503716 0)
(-0.0189832 -0.0771644 0)
(-0.0356269 -0.098825 0)
(-0.0555444 -0.11553 0)
(-0.0778147 -0.12759 0)
(-0.101566 -0.135416 0)
(-0.126028 -0.139489 0)
(-0.150553 -0.140324 0)
(-0.174619 -0.138439 0)
(-0.197819 -0.134334 0)
(-0.219848 -0.128474 0)
(-0.24049 -0.121271 0)
(-0.259602 -0.113086 0)
(-0.277102 -0.10422 0)
(-0.292954 -0.0949183 0)
(-0.307155 -0.0853722 0)
(-0.319726 -0.0757239 0)
(-0.330704 -0.0660723 0)
(-0.340133 -0.0564781 0)
(-0.348058 -0.04697 0)
(-0.354523 -0.0375499 0)
(-0.359564 -0.0281986 0)
(-0.363208 -0.0188806 0)
(-0.36547 -0.0095489 0)
(-0.366354 -0.000149695 0)
(-0.365847 0.00937301 0)
(-0.363925 0.0190727 0)
(-0.36055 0.0289953 0)
(-0.355668 0.039174 0)
(-0.349218 0.0496233 0)
(-0.341127 0.0603328 0)
(-0.331321 0.0712602 0)
(-0.319723 0.0823242 0)
(-0.306266 0.0933968 0)
(-0.290898 0.104296 0)
(-0.273592 0.114779 0)
(-0.254364 0.124539 0)
(-0.233284 0.133201 0)
(-0.210493 0.140325 0)
(-0.186225 0.145412 0)
(-0.160822 0.147919 0)
(-0.134749 0.147282 0)
(-0.108611 0.142944 0)
(-0.0831518 0.13439 0)
(-0.0592549 0.121192 0)
(-0.0379037 0.10305 0)
(-0.0201165 0.0798303 0)
(-0.00718288 0.0515865 0)
(-0.00106214 0.0185991 0)
(-0.000998601 -0.0149909 0)
(-0.006686 -0.0409959 0)
(-0.0186599 -0.0628823 0)
(-0.0351234 -0.0806578 0)
(-0.0549349 -0.0944577 0)
(-0.0772237 -0.104519 0)
(-0.101154 -0.111156 0)
(-0.125972 -0.114742 0)
(-0.151035 -0.115675 0)
(-0.17581 -0.114364 0)
(-0.199867 -0.111204 0)
(-0.222872 -0.106566 0)
(-0.244577 -0.100784 0)
(-0.264806 -0.0941509 0)
(-0.283444 -0.0869137 0)
(-0.300424 -0.0792762 0)
(-0.315714 -0.071399 0)
(-0.329313 -0.0634032 0)
(-0.341235 -0.0553743 0)
(-0.351507 -0.0473666 0)
(-0.360161 -0.0394076 0)
(-0.367226 -0.0315028 0)
(-0.372729 -0.0236397 0)
(-0.376691 -0.0157923 0)
(-0.379119 -0.00792499 0)
(-0.380013 3.51187e-06 0)
(-0.379357 0.00803612 0)
(-0.377126 0.0162133 0)
(-0.37328 0.0245689 0)
(-0.367772 0.0331254 0)
(-0.360545 0.0418895 0)
(-0.351535 0.0508462 0)
(-0.340683 0.0599537 0)
(-0.32793 0.0691375 0)
(-0.313234 0.0782843 0)
(-0.296573 0.0872371 0)
(-0.277958 0.0957901 0)
(-0.257445 0.103686 0)
(-0.235151 0.110616 0)
(-0.211264 0.116221 0)
(-0.186064 0.120102 0)
(-0.159933 0.121827 0)
(-0.133368 0.120956 0)
(-0.106983 0.11706 0)
(-0.0815166 0.10975 0)
(-0.0578201 0.0987099 0)
(-0.0368198 0.0837252 0)
(-0.0194559 0.0647119 0)
(-0.00691378 0.0417307 0)
(-0.00101388 0.0150138 0)
(-0.000980585 -0.0116031 0)
(-0.00658643 -0.0317572 0)
(-0.0184214 -0.0487585 0)
(-0.0347503 -0.0626146 0)
(-0.0544806 -0.0734254 0)
(-0.0767794 -0.0813654 0)
(-0.100839 -0.0866681 0)
(-0.125921 -0.0896088 0)
(-0.151386 -0.0904868 0)
(-0.176694 -0.0896084 0)
(-0.201401 -0.0872736 0)
(-0.225152 -0.0837646 0)
(-0.247675 -0.079338 0)
(-0.268768 -0.0742202 0)
(-0.28829 -0.0686042 0)
(-0.306149 -0.0626497 0)
(-0.322293 -0.0564841 0)
(-0.336699 -0.0502041 0)
(-0.349365 -0.043879 0)
(-0.360302 -0.0375538 0)
(-0.369529 -0.0312526 0)
(-0.377067 -0.0249819 0)
(-0.382934 -0.0187343 0)
(-0.387142 -0.0124914 0)
(-0.389696 -0.00622744 0)
(-0.390588 8.78857e-05 0)
(-0.389804 0.00648597 0)
(-0.387314 0.0129961 0)
(-0.383083 0.0196421 0)
(-0.377064 0.0264386 0)
(-0.369205 0.0333871 0)
(-0.359455 0.040472 0)
(-0.347763 0.0476563 0)
(-0.334089 0.054877 0)
(-0.318411 0.0620408 0)
(-0.300732 0.0690207 0)
(-0.281093 0.0756524 0)
(-0.259585 0.0817327 0)
(-0.236359 0.0870202 0)
(-0.211642 0.0912379 0)
(-0.185747 0.0940796 0)
(-0.159085 0.0952199 0)
(-0.132172 0.0943287 0)
(-0.105632 0.0910886 0)
(-0.0801918 0.0852167 0)
(-0.0566759 0.0764865 0)
(-0.0359651 0.0647506 0)
(-0.0189395 0.0499578 0)
(-0.0067048 0.0321645 0)
(-0.000976687 0.0115529 0)
(-0.000968001 -0.00825891 0)
(-0.00651664 -0.0226176 0)
(-0.0182537 -0.0347501 0)
(-0.0344871 -0.0446627 0)
(-0.0541587 -0.0524245 0)
(-0.0764629 -0.0581552 0)
(-0.100612 -0.0620155 0)
(-0.125879 -0.0641954 0)
(-0.15163 -0.0649023 0)
(-0.17732 -0.0643496 0)
(-0.202495 -0.0627471 0)
(-0.226786 -0.0602933 0)
(-0.249903 -0.0571698 0)
(-0.271626 -0.0535372 0)
(-0.291795 -0.0495337 0)
(-0.310301 -0.045274 0)
(-0.327074 -0.0408502 0)
(-0.342076 -0.0363326 0)
(-0.355291 -0.0317724 0)
(-0.366721 -0.027203 0)
(-0.376374 -0.0226431 0)
(-0.384261 -0.0180987 0)
(-0.390396 -0.0135655 0)
(-0.394784 -0.00903156 0)
(-0.397426 -0.0044795 0)
(-0.398312 0.000111271 0)
(-0.397425 0.00476207 0)
(-0.394736 0.00949261 0)
(-0.390209 0.0143185 0)
(-0.383801 0.0192484 0)
(-0.375465 0.0242816 0)
(-0.365156 0.0294048 0)
(-0.352834 0.034589 0)
(-0.338472 0.0397865 0)
(-0.322063 0.0449282 0)
(-0.303631 0.0499205 0)
(-0.283239 0.054644 0)
(-0.261004 0.0589523 0)
(-0.237103 0.0626725 0)
(-0.21179 0.0656079 0)
(-0.185403 0.0675428 0)
(-0.158371 0.0682498 0)
(-0.131226 0.0675001 0)
(-0.104592 0.0650757 0)
(-0.0791889 0.0607846 0)
(-0.0558197 0.0544752 0)
(-0.0353309 0.0460516 0)
(-0.0185586 0.0354848 0)
(-0.00655146 0.0228194 0)
(-0.000949549 0.00818629 0)
(-0.000960031 -0.00494407 0)
(-0.00647233 -0.0135448 0)
(-0.0181471 -0.0208199 0)
(-0.0343193 -0.0267734 0)
(-0.0539529 -0.0314458 0)
(-0.0762598 -0.0349073 0)
(-0.100465 -0.0372519 0)
(-0.125851 -0.038591 0)
(-0.151786 -0.0390466 0)
(-0.177722 -0.0387445 0)
(-0.203199 -0.037809 0)
(-0.22784 -0.0363578 0)
(-0.251344 -0.0344991 0)
(-0.273479 -0.032329 0)
(-0.294072 -0.0299304 0)
(-0.313002 -0.0273723 0)
(-0.330188 -0.0247103 0)
(-0.345583 -0.0219873 0)
(-0.359161 -0.0192344 0)
(-0.370916 -0.0164724 0)
(-0.380849 -0.013713 0)
(-0.388968 -0.0109602 0)
(-0.395278 -0.0082121 0)
(-0.399784 -0.00546185 0)
(-0.402483 -0.00269946 0)
(-0.403362 8.69606e-05 0)
(-0.402404 0.00290976 0)
(-0.399579 0.00578024 0)
(-0.394852 0.00870717 0)
(-0.388182 0.0116951 0)
(-0.379526 0.0147429 0)
(-0.368843 0.0178415 0)
(-0.356101 0.0209726 0)
(-0.34128 0.0241066 0)
(-0.324388 0.0272009 0)
(-0.305459 0.0301983 0)
(-0.284573 0.0330265 0)
(-0.261863 0.0355969 0)
(-0.237524 0.0378059 0)
(-0.211826 0.039536 0)
(-0.185124 0.0406589 0)
(-0.15786 0.0410403 0)
(-0.130572 0.0405456 0)
(-0.103886 0.0390476 0)
(-0.0785161 0.036435 0)
(-0.0552497 0.0326208 0)
(-0.0349111 0.0275512 0)
(-0.0183076 0.0212113 0)
(-0.00645075 0.0136299 0)
(-0.000931798 0.00488569 0)
(-0.000956168 -0.00164617 0)
(-0.00645082 -0.00451068 0)
(-0.0180952 -0.00693494 0)
(-0.0342376 -0.00892039 0)
(-0.0538526 -0.0104804 0)
(-0.0761606 -0.011638 0)
(-0.100393 -0.0124242 0)
(-0.125837 -0.0128757 0)
(-0.151861 -0.0130327 0)
(-0.177918 -0.012937 0)
(-0.203544 -0.0126294 0)
(-0.228357 -0.0121492 0)
(-0.252052 -0.0115323 0)
(-0.27439 -0.0108105 0)
(-0.295192 -0.0100116 0)
(-0.314332 -0.00915854 0)