/*--------------------------------*- C++ -*----------------------------------*\
  =========                 |
  \\      /  F ield         | OpenFOAM: The Open Source CFD Toolbox
   \\    /   O peration     | Website:  https://openfoam.org
    \\  /    A nd           | Version:  7
     \\/     M anipulation  |
\*---------------------------------------------------------------------------*/
FoamFile
{
    version     2.0;
    format      ascii;
    class       volVectorField;
    location    "0.0474";
    object      U;
}
// * * * * * * * * * * * * * * * * * * * * * * * * * * * * * * * * * * * * * //

dimensions      [0 1 -1 0 0 0 0];

internalField   nonuniform List<vector> 
2500
(
(-0.293803 0.153725 0)
(-0.397943 0.128723 0)
(-0.577978 0.073792 0)
(-0.696259 0.0408721 0)
(-0.765228 0.0233899 0)
(-0.80954 0.0141357 0)
(-0.840102 0.00914952 0)
(-0.862162 0.00634134 0)
(-0.878755 0.00465231 0)
(-0.891664 0.0035625 0)
(-0.901965 0.00281378 0)
(-0.910336 0.00227213 0)
(-0.917233 0.00186376 0)
(-0.922969 0.00154535 0)
(-0.927768 0.00128996 0)
(-0.931793 0.00107993 0)
(-0.935167 0.00090318 0)
(-0.937979 0.000751165 0)
(-0.940299 0.000617646 0)
(-0.942179 0.00049795 0)
(-0.943659 0.000388488 0)
(-0.944766 0.000286427 0)
(-0.945523 0.000189467 0)
(-0.945943 9.56829e-05 0)
(-0.946034 3.40159e-06 0)
(-0.945798 -8.89324e-05 0)
(-0.945234 -0.00018277 0)
(-0.944334 -0.000279594 0)
(-0.943086 -0.000380998 0)
(-0.941472 -0.000488778 0)
(-0.939469 -0.000605065 0)
(-0.937043 -0.000732489 0)
(-0.934155 -0.00087441 0)
(-0.93075 -0.00103526 0)
(-0.92676 -0.00122106 0)
(-0.922095 -0.00144017 0)
(-0.916633 -0.00170468 0)
(-0.910216 -0.00203256 0)
(-0.90262 -0.00245189 0)
(-0.893536 -0.00300863 0)
(-0.882509 -0.00378239 0)
(-0.868855 -0.00491868 0)
(-0.851488 -0.00669625 0)
(-0.828606 -0.00966633 0)
(-0.797192 -0.0149162 0)
(-0.752099 -0.0244996 0)
(-0.682583 -0.0421511 0)
(-0.564956 -0.0746209 0)
(-0.38932 -0.128129 0)
(-0.290207 -0.152372 0)
(-0.00516268 0.302914 0)
(-0.0270627 0.307344 0)
(-0.171314 0.217779 0)
(-0.308154 0.146556 0)
(-0.417029 0.0991738 0)
(-0.502206 0.0689061 0)
(-0.568528 0.0496473 0)
(-0.620404 0.0371 0)
(-0.661513 0.0286102 0)
(-0.694583 0.02263 0)
(-0.721551 0.0182574 0)
(-0.743795 0.0149527 0)
(-0.762309 0.0123817 0)
(-0.777815 0.0103297 0)
(-0.790851 0.00865345 0)
(-0.801818 0.00725432 0)
(-0.81102 0.00606242 0)
(-0.81869 0.00502687 0)
(-0.825005 0.00410975 0)
(-0.830102 0.00328213 0)
(-0.834084 0.00252147 0)
(-0.837028 0.00180973 0)
(-0.838991 0.00113212 0)
(-0.840009 0.000476106 0)
(-0.840106 -0.000169295 0)
(-0.83929 -0.000814169 0)
(-0.837555 -0.00146818 0)
(-0.834885 -0.00214112 0)
(-0.831247 -0.00284343 0)
(-0.826596 -0.00358679 0)
(-0.82087 -0.00438494 0)
(-0.813986 -0.00525458 0)
(-0.80584 -0.00621675 0)
(-0.796296 -0.00729867 0)
(-0.78518 -0.00853647 0)
(-0.772268 -0.00997918 0)
(-0.757268 -0.011695 0)
(-0.739796 -0.013781 0)
(-0.719342 -0.0163798 0)
(-0.695218 -0.0197064 0)
(-0.666483 -0.0240966 0)
(-0.631835 -0.0300911 0)
(-0.589459 -0.0385857 0)
(-0.536835 -0.0510916 0)
(-0.470646 -0.0701357 0)
(-0.387038 -0.0996636 0)
(-0.281827 -0.145094 0)
(-0.151528 -0.21262 0)
(-0.0164501 -0.2982 0)
(-0.000988056 -0.294679 0)
(0.0321115 0.26406 0)
(0.0563766 0.362328 0)
(-0.0035999 0.324931 0)
(-0.0958083 0.260456 0)
(-0.192108 0.200767 0)
(-0.280805 0.153707 0)
(-0.357784 0.118751 0)
(-0.422834 0.0931456 0)
(-0.47731 0.0742558 0)
(-0.522897 0.0600933 0)
(-0.561148 0.0492626 0)
(-0.593366 0.0408056 0)
(-0.620599 0.0340648 0)
(-0.643673 0.0285837 0)
(-0.663237 0.0240405 0)
(-0.679799 0.0202038 0)
(-0.693755 0.0169042 0)
(-0.705417 0.0140152 0)
(-0.71503 0.0114407 0)
(-0.722783 0.00910616 0)
(-0.728823 0.00695256 0)
(-0.73326 0.00493229 0)
(-0.736177 0.00300588 0)
(-0.737628 0.00113968 0)
(-0.737649 -0.000696004 0)
(-0.736254 -0.0025284 0)
(-0.733437 -0.00438367 0)
(-0.729176 -0.0062882 0)
(-0.723428 -0.00826995 0)
(-0.716132 -0.01036 0)
(-0.707205 -0.0125943 0)
(-0.696535 -0.0150161 0)
(-0.683982 -0.0176793 0)
(-0.669368 -0.0206521 0)
(-0.652469 -0.0240235 0)
(-0.633003 -0.0279111 0)
(-0.610612 -0.0324742 0)
(-0.584845 -0.0379311 0)
(-0.555131 -0.0445866 0)
(-0.520748 -0.0528734 0)
(-0.480794 -0.063412 0)
(-0.434171 -0.0770998 0)
(-0.379604 -0.0952262 0)
(-0.315793 -0.119596 0)
(-0.241867 -0.152541 0)
(-0.158516 -0.196383 0)
(-0.0700563 -0.251284 0)
(0.0122079 -0.309914 0)
(0.0620051 -0.343243 0)
(0.0330304 -0.249916 0)
(0.027149 0.205255 0)
(0.0637398 0.357831 0)
(0.0551181 0.375653 0)
(0.00784106 0.338501 0)
(-0.0597079 0.285851 0)
(-0.1332 0.23498 0)
(-0.204482 0.191645 0)
(-0.269781 0.156538 0)
(-0.327832 0.128605 0)
(-0.37863 0.106428 0)
(-0.422716 0.0887123 0)
(-0.460816 0.0744065 0)
(-0.493661 0.0627015 0)
(-0.521914 0.0529855 0)
(-0.546149 0.0447977 0)
(-0.566848 0.0377903 0)
(-0.584407 0.0316983 0)
(-0.599151 0.0263173 0)
(-0.611342 0.0214881 0)
(-0.62119 0.0170847 0)
(-0.62886 0.0130057 0)
(-0.634478 0.00916788 0)
(-0.638142 0.00550167 0)
(-0.639919 0.0019472 0)
(-0.63985 -0.0015486 0)
(-0.637957 -0.00503455 0)
(-0.634236 -0.00855742 0)
(-0.628667 -0.0121641 0)
(-0.621205 -0.0159039 0)
(-0.611788 -0.0198309 0)
(-0.600326 -0.0240069 0)
(-0.586707 -0.0285049 0)
(-0.570785 -0.033414 0)
(-0.552383 -0.038845 0)
(-0.531284 -0.0449385 0)
(-0.507223 -0.0518756 0)
(-0.47988 -0.0598925 0)
(-0.448879 -0.0692998 0)
(-0.41378 -0.0805087 0)
(-0.374091 -0.0940635 0)
(-0.3293 -0.110679 0)
(-0.278954 -0.131272 0)
(-0.222832 -0.156954 0)
(-0.161283 -0.1889 0)
(-0.0958588 -0.227909 0)
(-0.0303607 -0.273161 0)
(0.0275622 -0.319297 0)
(0.0649119 -0.350744 0)
(0.0657223 -0.331931 0)
(0.0268678 -0.189925 0)
(0.0184513 0.163484 0)
(0.0530741 0.331628 0)
(0.0684378 0.38708 0)
(0.0526892 0.379832 0)
(0.0129908 0.344196 0)
(-0.0399391 0.299741 0)
(-0.0979399 0.256026 0)
(-0.155811 0.216895 0)
(-0.210616 0.183353 0)
(-0.260935 0.155148 0)
(-0.306255 0.131579 0)
(-0.346571 0.111856 0)
(-0.382123 0.0952529 0)
(-0.413256 0.0811501 0)
(-0.44034 0.0690418 0)
(-0.463728 0.0585197 0)
(-0.483742 0.0492572 0)
(-0.500659 0.0409924 0)
(-0.514717 0.0335142 0)
(-0.526111 0.0266513 0)
(-0.535003 0.0202626 0)
(-0.54152 0.0142307 0)
(-0.545758 0.00845576 0)
(-0.547791 0.00285103 0)
(-0.547664 -0.00266082 0)
(-0.545403 -0.00815108 0)
(-0.541013 -0.0136879 0)
(-0.534477 -0.0193391 0)
(-0.525761 -0.0251752 0)
(-0.514809 -0.0312723 0)
(-0.501546 -0.0377159 0)
(-0.485877 -0.0446051 0)
(-0.467683 -0.0520576 0)
(-0.446823 -0.0602163 0)
(-0.42313 -0.0692567 0)
(-0.396417 -0.0793975 0)
(-0.366477 -0.0909112 0)
(-0.333097 -0.104138 0)
(-0.296078 -0.119499 0)
(-0.255275 -0.137502 0)
(-0.210678 -0.15874 0)
(-0.162542 -0.183837 0)
(-0.111605 -0.213316 0)
(-0.0594338 -0.247277 0)
(-0.00891112 -0.284704 0)
(0.0351928 -0.322106 0)
(0.0656996 -0.351058 0)
(0.0734678 -0.354397 0)
(0.0532044 -0.30181 0)
(0.0179102 -0.148348 0)
(0.0119495 0.134707 0)
(0.0407796 0.30071 0)
(0.0651535 0.378203 0)
(0.0682817 0.395851 0)
(0.0499515 0.379284 0)
(0.0162173 0.346318 0)
(-0.0266568 0.307724 0)
(-0.0736748 0.269292 0)
(-0.121319 0.233738 0)
(-0.167357 0.202048 0)
(-0.210502 0.174321 0)
(-0.250104 0.150245 0)
(-0.285907 0.12936 0)
(-0.317892 0.11118 0)
(-0.346166 0.0952527 0)
(-0.3709 0.081179 0)
(-0.392285 0.0686185 0)
(-0.410512 0.0572837 0)
(-0.425757 0.0469337 0)
(-0.438178 0.0373662 0)
(-0.44791 0.0284103 0)
(-0.455064 0.0199207 0)
(-0.45973 0.0117716 0)
(-0.461975 0.00385268 0)
(-0.461848 -0.00393541 0)
(-0.459377 -0.0116843 0)
(-0.454574 -0.0194815 0)
(-0.447434 -0.0274133 0)
(-0.437937 -0.035568 0)
(-0.426047 -0.0440397 0)
(-0.411716 -0.0529313 0)
(-0.394881 -0.0623592 0)
(-0.375469 -0.0724579 0)
(-0.353401 -0.0833851 0)
(-0.328592 -0.0953278 0)
(-0.300964 -0.108508 0)
(-0.27046 -0.123187 0)
(-0.237064 -0.13967 0)
(-0.200842 -0.158298 0)
(-0.161998 -0.179429 0)
(-0.120968 -0.203385 0)
(-0.0785506 -0.230345 0)
(-0.0360945 -0.260125 0)
(0.00426084 -0.29178 0)
(0.0393501 -0.322906 0)
(0.0648842 -0.348514 0)
(0.0756928 -0.359417 0)
(0.0670344 -0.340359 0)
(0.0401124 -0.269069 0)
(0.0114453 -0.120077 0)
(0.00786336 0.114196 0)
(0.0310172 0.271508 0)
(0.0571983 0.360284 0)
(0.0703486 0.396109 0)
(0.0665887 0.396713 0)
(0.0482686 0.376623 0)
(0.0193599 0.346092 0)
(-0.0161652 0.311645 0)
(-0.0549861 0.277068 0)
(-0.0946276 0.244335 0)
(-0.13339 0.214315 0)
(-0.17018 0.187245 0)
(-0.204347 0.163024 0)
(-0.23554 0.141393 0)
(-0.263606 0.122036 0)
(-0.288514 0.104627 0)
(-0.310305 0.088859 0)
(-0.32906 0.0744565 0)
(-0.344873 0.0611747 0)
(-0.357843 0.0487998 0)
(-0.368065 0.0371454 0)
(-0.375623 0.0260486 0)
(-0.380587 0.0153658 0)
(-0.383016 0.00496887 0)
(-0.382955 -0.00525815 0)
(-0.380434 -0.0154228 0)
(-0.375475 -0.0256274 0)
(-0.368084 -0.0359718 0)
(-0.35826 -0.0465568 0)
(-0.345994 -0.0574871 0)
(-0.331271 -0.0688748 0)
(-0.314072 -0.0808424 0)
(-0.294382 -0.0935264 0)
(-0.272194 -0.10708 0)
(-0.247518 -0.121678 0)
(-0.220395 -0.137511 0)
(-0.190918 -0.154791 0)
(-0.159263 -0.173735 0)
(-0.125725 -0.194544 0)
(-0.090788 -0.217361 0)
(-0.0551949 -0.242186 0)
(-0.0200576 -0.268737 0)
(0.0130275 -0.296207 0)
(0.0418722 -0.322884 0)
(0.0636785 -0.345584 0)
(0.075246 -0.35888 0)
(0.0735459 -0.354249 0)
(0.0570864 -0.319491 0)
(0.0300042 -0.239389 0)
(0.0074418 -0.100205 0)
(0.00541601 0.0991201 0)
(0.0239961 0.245827 0)
(0.0489419 0.339134 0)
(0.0667271 0.38717 0)
(0.0721688 0.401683 0)
(0.0652293 0.393778 0)
(0.0479217 0.372336 0)
(0.0229879 0.343752 0)
(-0.0068484 0.312267 0)
(-0.0392677 0.280489 0)
(-0.0724685 0.249892 0)
(-0.105137 0.22121 0)
(-0.136361 0.194722 0)
(-0.165542 0.170438 0)
(-0.192304 0.148225 0)
(-0.216434 0.127876 0)
(-0.237823 0.109162 0)
(-0.256435 0.0918492 0)
(-0.272275 0.0757161 0)
(-0.285374 0.0605581 0)
(-0.295775 0.0461895 0)
(-0.303528 0.0324424 0)
(-0.308678 0.0191656 0)
(-0.311269 0.00622164 0)
(-0.31134 -0.00651526 0)
(-0.308921 -0.0191621 0)
(-0.304039 -0.0318297 0)
(-0.296717 -0.0446252 0)
(-0.286972 -0.0576547 0)
(-0.274825 -0.0710257 0)
(-0.260296 -0.0848494 0)
(-0.243416 -0.099243 0)
(-0.224228 -0.114331 0)
(-0.202799 -0.130244 0)
(-0.17923 -0.147122 0)
(-0.153672 -0.165102 0)
(-0.126351 -0.184315 0)
(-0.0975929 -0.204862 0)
(-0.0678676 -0.226777 0)
(-0.0378335 -0.249975 0)
(-0.00839744 -0.274149 0)
(0.0192253 -0.298629 0)
(0.0434639 -0.322162 0)
(0.0623935 -0.342599 0)
(0.0738542 -0.356498 0)
(0.0757908 -0.358687 0)
(0.0668675 -0.341936 0)
(0.0475463 -0.297061 0)
(0.0228021 -0.214067 0)
(0.00505505 -0.0858205 0)
(0.00393136 0.0876308 0)
(0.0190325 0.223738 0)
(0.0417075 0.317619 0)
(0.0611124 0.373306 0)
(0.071992 0.398385 0)
(0.0729946 0.401016 0)
(0.0647205 0.388466 0)
(0.0488012 0.366511 0)
(0.0272443 0.339387 0)
(0.00200139 0.309996 0)
(-0.0252417 0.28021 0)
(-0.0531303 0.251153 0)
(-0.0806306 0.223437 0)
(-0.106985 0.197341 0)
(-0.131661 0.172931 0)
(-0.154292 0.150147 0)
(-0.174644 0.12886 0)
(-0.192571 0.108908 0)
(-0.207989 0.0901139 0)
(-0.220862 0.0723011 0)
(-0.231178 0.0553004 0)
(-0.238946 0.0389523 0)
(-0.244185 0.0231086 0)
(-0.246919 0.00763205 0)
(-0.247177 -0.00760489 0)
(-0.244989 -0.0227212 0)
(-0.240386 -0.0378292 0)
(-0.233403 -0.053036 0)
(-0.224079 -0.0684456 0)
(-0.21246 -0.08416 0)
(-0.198603 -0.10028 0)
(-0.182583 -0.116907 0)
(-0.1645 -0.13414 0)
(-0.144485 -0.152076 0)
(-0.122717 -0.170802 0)
(-0.0994393 -0.190389 0)
(-0.0749751 -0.210871 0)
(-0.0497576 -0.232223 0)
(-0.0243582 -0.254315 0)
(0.000480497 -0.276853 0)
(0.0238125 -0.299282 0)
(0.0444681 -0.320657 0)
(0.0610629 -0.339465 0)
(0.0720664 -0.353398 0)
(0.0759841 -0.359119 0)
(0.0717111 -0.352058 0)
(0.0590518 -0.326403 0)
(0.0394541 -0.27548 0)
(0.0177214 -0.192874 0)
(0.00360641 -0.0750529 0)
(0.00299262 0.0785552 0)
(0.0154728 0.204793 0)
(0.0357088 0.297047 0)
(0.0551405 0.357137 0)
(0.0689774 0.389879 0)
(0.0752718 0.401129 0)
(0.0737171 0.396616 0)
(0.0650766 0.381299 0)
(0.0506844 0.359119 0)
(0.0320514 0.333012 0)
(0.0106269 0.305049 0)
(-0.0123205 0.276616 0)
(-0.0357439 0.248588 0)
(-0.0588163 0.221475 0)
(-0.0809068 0.195536 0)
(-0.101547 0.170863 0)
(-0.120401 0.147442 0)
(-0.137232 0.125196 0)
(-0.15188 0.104009 0)
(-0.164243 0.0837483 0)
(-0.174258 0.0642754 0)
(-0.181893 0.0454509 0)
(-0.187137 0.0271403 0)
(-0.189995 0.00921568 0)
(-0.190484 -0.00844369 0)
(-0.188628 -0.0259512 0)
(-0.184464 -0.0434132 0)
(-0.178036 -0.06093 0)
(-0.169399 -0.0785957 0)
(-0.158624 -0.0964991 0)
(-0.145799 -0.114723 0)
(-0.131039 -0.133344 0)
(-0.114486 -0.152427 0)
(-0.0963277 -0.172025 0)
(-0.0768025 -0.192166 0)
(-0.0562159 -0.212845 0)
(-0.0349571 -0.234001 0)
(-0.0135178 -0.255487 0)
(0.00748883 -0.277029 0)
(0.0273107 -0.298167 0)
(0.0450486 -0.31817 0)
(0.0596661 -0.335928 0)
(0.070033 -0.349827 0)
(0.0750275 -0.357602 0)
(0.0737277 -0.356219 0)
(0.065721 -0.341828 0)
(0.0514901 -0.30991 0)
(0.0328632 -0.255716 0)
(0.0140779 -0.175187 0)
(0.0026886 -0.066725 0)
(0.00236753 0.0711689 0)
(0.012851 0.188466 0)
(0.0308054 0.277931 0)
(0.0494681 0.340201 0)
(0.0646832 0.378282 0)
(0.0743326 0.396317 0)
(0.0775883 0.398716 0)
(0.0745965 0.389594 0)
(0.0661324 0.372452 0)
(0.0532797 0.350085 0)
(0.0372039 0.324605 0)
(0.0190153 0.29754 0)
(-0.00030352 0.269945 0)
(-0.0199255 0.242512 0)
(-0.03918 0.215667 0)
(-0.057539 0.189645 0)
(-0.0745969 0.164548 0)
(-0.09005 0.14039 0)
(-0.103676 0.117127 0)
(-0.115316 0.0946802 0)
(-0.124863 0.0729519 0)
(-0.132247 0.0518333 0)
(-0.137428 0.0312129 0)
(-0.14039 0.0109805 0)
(-0.141137 -0.00896983 0)
(-0.139689 -0.0287386 0)
(-0.136081 -0.0484196 0)
(-0.130364 -0.0680992 0)
(-0.122608 -0.0878555 0)
(-0.112901 -0.107758 0)
(-0.101357 -0.127864 0)
(-0.0881184 -0.148219 0)
(-0.073364 -0.16885 0)
(-0.0573179 -0.189759 0)
(-0.0402583 -0.210915 0)
(-0.0225293 -0.232238 0)
(-0.00455217 -0.253575 0)
(0.0131627 -0.274678 0)
(0.0300068 -0.295158 0)
(0.0452703 -0.314433 0)
(0.0581506 -0.331666 0)
(0.0677821 -0.345679 0)
(0.0732968 -0.354873 0)
(0.0739337 -0.357145 0)
(0.0692126 -0.349851 0)
(0.0591784 -0.329847 0)
(0.0446649 -0.29369 0)
(0.0275438 -0.238043 0)
(0.0113959 -0.160371 0)
(0.00207674 -0.0601087 0)
(0.00192884 0.0650168 0)
(0.0108594 0.174299 0)
(0.0267813 0.260416 0)
(0.0443067 0.323376 0)
(0.0599144 0.365019 0)
(0.0715436 0.388241 0)
(0.0781085 0.396386 0)
(0.0793504 0.392789 0)
(0.0756177 0.380465 0)
(0.0676232 0.361965 0)
(0.0562508 0.339332 0)
(0.0424209 0.314138 0)
(0.0270058 0.28754 0)
(0.0107834 0.26036 0)
(-0.00558124 0.233156 0)
(-0.0215385 0.206284 0)
(-0.0366454 0.179957 0)
(-0.0505538 0.154277 0)
(-0.0629956 0.129277 0)
(-0.0737699 0.104938 0)
(-0.0827303 0.0812077 0)
(-0.0897749 0.0580174 0)
(-0.0948381 0.0352854 0)
(-0.0978845 0.0129268 0)
(-0.0989038 -0.00914332 0)
(-0.0979086 -0.0310059 0)
(-0.0949324 -0.0527362 0)
(-0.0900301 -0.0744009 0)
(-0.0832787 -0.0960569 0)
(-0.0747797 -0.117749 0)
(-0.064663 -0.139505 0)
(-0.0530912 -0.161336 0)
(-0.0402654 -0.183228 0)
(-0.026432 -0.205132 0)
(-0.0118902 -0.226957 0)
(0.00300093 -0.248556 0)
(0.0178146 -0.269699 0)
(0.0320521 -0.290055 0)
(0.0451414 -0.30915 0)
(0.0564448 -0.326329 0)
(0.0652787 -0.340705 0)
(0.0709522 -0.351102 0)
(0.0728337 -0.356011 0)
(0.0704524 -0.35355 0)
(0.0636418 -0.34148 0)
(0.0527224 -0.317285 0)
(0.0386681 -0.278375 0)
(0.0232278 -0.222429 0)
(0.0093636 -0.147891 0)
(0.0016478 -0.0547433 0)
(0.00160579 0.0598032 0)
(0.00929864 0.161921 0)
(0.0234364 0.244481 0)
(0.0396771 0.307157 0)
(0.0550685 0.351038 0)
(0.0677146 0.378126 0)
(0.0764394 0.390929 0)
(0.0807405 0.392107 0)
(0.0806604 0.384201 0)
(0.0766132 0.36947 0)
(0.0692299 0.349823 0)
(0.0592385 0.326797 0)
(0.0473797 0.301592 0)
(0.0343521 0.275107 0)
(0.0207823 0.247995 0)
(0.00721109 0.220714 0)
(-0.00590776 0.193567 0)
(-0.0182034 0.166743 0)
(-0.0293795 0.140345 0)
(-0.0392051 0.114417 0)
(-0.0475048 0.0889587 0)
(-0.0541509 0.0639428 0)
(-0.0590557 0.0393241 0)
(-0.0621661 0.0150477 0)
(-0.0634589 -0.0089443 0)
(-0.062938 -0.0327086 0)
(-0.0606329 -0.0562968 0)
(-0.056598 -0.0797518 0)
(-0.0509137 -0.103105 0)
(-0.0436881 -0.126373 0)
(-0.0350597 -0.149552 0)
(-0.0252015 -0.172617 0)
(-0.0143248 -0.19551 0)
(-0.00268458 -0.218136 0)
(0.0094157 -0.240352 0)
(0.0216199 -0.261947 0)
(0.0335164 -0.282633 0)
(0.0446383 -0.302014 0)
(0.0544693 -0.319562 0)
(0.0624571 -0.334586 0)
(0.0680394 -0.346191 0)
(0.0706856 -0.353255 0)
(0.06996 -0.354395 0)
(0.065609 -0.347972 0)
(0.057674 -0.332125 0)
(0.0466206 -0.304867 0)
(0.0334378 -0.264269 0)
(0.0196817 -0.20873 0)
(0.00777873 -0.137325 0)
(0.00133305 -0.0503261 0)
(0.00135764 0.0553288 0)
(0.00803869 0.151048 0)
(0.0206082 0.230043 0)
(0.0355267 0.291818 0)
(0.0503273 0.33697 0)
(0.0633192 0.366866 0)
(0.0733362 0.383371 0)
(0.0797465 0.388582 0)
(0.0823866 0.384607 0)
(0.0814431 0.373409 0)
(0.0773345 0.356719 0)
(0.0706113 0.335999 0)
(0.061879 0.312435 0)
(0.0517418 0.286964 0)
(0.0407672 0.260302 0)
(0.0294651 0.232979 0)
(0.0182791 0.205375 0)
(0.0075838 0.177752 0)
(-0.00231157 0.150281 0)
(-0.0111584 0.123065 0)
(-0.0187621 0.0961553 0)
(-0.0249758 0.0695698 0)
(-0.0296946 0.043302 0)
(-0.0328501 0.0173312 0)
(-0.0344073 -0.00837027 0)
(-0.0343609 -0.033831 0)
(-0.0327343 -0.0590753 0)
(-0.0295785 -0.0841194 0)
(-0.0249727 -0.108966 0)
(-0.0190256 -0.133602 0)
(-0.0118772 -0.157992 0)
(-0.00370182 -0.182072 0)
(0.00528911 -0.205746 0)
(0.0148438 -0.228874 0)
(0.0246675 -0.251265 0)
(0.0344211 -0.272661 0)
(0.0437216 -0.292724 0)
(0.0521465 -0.311016 0)
(0.0592435 -0.326979 0)
(0.0645477 -0.339912 0)
(0.0676091 -0.348947 0)
(0.0680334 -0.353037 0)
(0.0655378 -0.350948 0)
(0.0600218 -0.341274 0)
(0.0516529 -0.322488 0)
(0.0409551 -0.293037 0)
(0.0288625 -0.251495 0)
(0.0167206 -0.19677 0)
(0.00650823 -0.128348 0)
(0.00109268 -0.0466519 0)
(0.00115998 0.0514555 0)
(0.00699309 0.141462 0)
(0.018172 0.217003 0)
(0.0317816 0.277503 0)
(0.0457611 0.323233 0)
(0.0586302 0.35511 0)
(0.0692879 0.374507 0)
(0.0770506 0.383066 0)
(0.0816258 0.382514 0)
(0.0830352 0.374532 0)
(0.0815276 0.360664 0)
(0.0774997 0.342261 0)
(0.0714292 0.320469 0)
(0.0638222 0.296224 0)
(0.0551762 0.270277 0)
(0.0459562 0.243206 0)
(0.0365799 0.215451 0)
(0.0274112 0.187336 0)
(0.0187588 0.159089 0)
(0.0108777 0.130869 0)
(0.00397292 0.102778 0)
(-0.00179651 0.0748766 0)
(-0.00631303 0.0471995 0)
(-0.00949657 0.0197614 0)
(-0.0113013 -0.00743266 0)
(-0.0117128 -0.0343809 0)
(-0.0107471 -0.0610787 0)
(-0.00844897 -0.087513 0)
(-0.00489255 -0.113658 0)
(-0.000181908 -0.139468 0)
(0.00554767 -0.164877 0)
(0.0121279 -0.189784 0)
(0.0193559 -0.214057 0)
(0.0269923 -0.237518 0)
(0.0347606 -0.259933 0)
(0.0423483 -0.281006 0)
(0.0494092 -0.300364 0)
(0.0555712 -0.317543 0)
(0.0604473 -0.331972 0)
(0.0636544 -0.342961 0)
(0.0648403 -0.349687 0)
(0.0637205 -0.351193 0)
(0.0601251 -0.346392 0)
(0.054055 -0.334092 0)
(0.0457441 -0.313052 0)
(0.0357193 -0.282064 0)
(0.024825 -0.240084 0)
(0.0142029 -0.18638 0)
(0.00546271 -0.120713 0)
(0.000902538 -0.0435773 0)
(0.000997455 0.0480852 0)
(0.00610298 0.132996 0)
(0.0160334 0.205268 0)
(0.0283684 0.264286 0)
(0.0413847 0.31011 0)
(0.0538017 0.343331 0)
(0.0646114 0.364952 0)
(0.0731285 0.376249 0)
(0.0789888 0.378629 0)
(0.0821003 0.373514 0)
(0.0825821 0.362262 0)
(0.0807037 0.346103 0)
(0.0768287 0.326118 0)
(0.071369 0.303222 0)
(0.0647491 0.278172 0)
(0.0573805 0.251578 0)
(0.0496452 0.223922 0)
(0.0418854 0.195575 0)
(0.0343989 0.166816 0)
(0.0274377 0.137852 0)
(0.0212092 0.108831 0)
(0.0158783 0.0798569 0)
(0.0115703 0.051003 0)
(0.00837394 0.0223202 0)
(0.00634401 -0.00615341 0)
(0.00550346 -0.0343847 0)
(0.00584496 -0.062339 0)
(0.00733175 -0.0899739 0)
(0.00989799 -0.117234 0)
(0.0134484 -0.144043 0)
(0.0178576 -0.170303 0)
(0.0229694 -0.195882 0)
(0.0285958 -0.220613 0)
(0.0345167 -0.244282 0)
(0.0404807 -0.266625 0)
(0.0462075 -0.287314 0)
(0.0513921 -0.305953 0)
(0.0557135 -0.322061 0)
(0.058847 -0.335069 0)
(0.0604821 -0.344312 0)
(0.0603477 -0.34902 0)
(0.0582437 -0.348328 0)
(0.0540793 -0.341287 0)
(0.0479164 -0.326895 0)
(0.0400141 -0.304145 0)
(0.0308684 -0.272107 0)
(0.0212189 -0.23002 0)
(0.0120209 -0.177415 0)
(0.00458057 -0.114232 0)
(0.000747316 -0.0410003 0)
(0.000860024 0.0451464 0)
(0.00532738 0.125526 0)
(0.0141215 0.194754 0)
(0.025222 0.252203 0)
(0.0371871 0.29779 0)
(0.0489184 0.331875 0)
(0.0595124 0.35518 0)
(0.0683137 0.368691 0)
(0.0749267 0.373546 0)
(0.0791864 0.370944 0)
(0.0811174 0.362065 0)
(0.0808872 0.348019 0)
(0.0787623 0.329808 0)
(0.0750686 0.308308 0)
(0.0701593 0.284268 0)
(0.0643898 0.258313 0)
(0.0581002 0.230949 0)
(0.0516039 0.202584 0)
(0.0451798 0.173539 0)
(0.0390694 0.14406 0)
(0.0334759 0.114338 0)
(0.0285643 0.0845164 0)
(0.0244633 0.0547046 0)
(0.0212672 0.0249882 0)
(0.0190378 -0.00456183 0)
(0.0178059 -0.0338817 0)
(0.0175731 -0.062907 0)
(0.0183121 -0.0915663 0)
(0.0199678 -0.119775 0)
(0.022457 -0.147429 0)
(0.0256681 -0.174399 0)
(0.0294613 -0.200524 0)
(0.0336684 -0.225607 0)
(0.0380932 -0.249405 0)
(0.0425137 -0.271627 0)
(0.0466844 -0.291921 0)
(0.0503428 -0.309875 0)
(0.0532172 -0.325003 0)
(0.0550391 -0.336746 0)
(0.0555602 -0.344467 0)
(0.0545741 -0.347454 0)
(0.0519426 -0.344929 0)
(0.0476267 -0.336067 0)
(0.0417193 -0.320027 0)
(0.0344767 -0.295997 0)
(0.0263442 -0.263259 0)
(0.0179535 -0.221272 0)
(0.0100932 -0.169751 0)
(0.00381833 -0.108762 0)
(0.000616881 -0.0388466 0)
(0.000740869 0.0425866 0)
(0.00463707 0.118955 0)
(0.0123827 0.18539 0)
(0.0222877 0.241266 0)
(0.033147 0.286405 0)
(0.044025 0.320998 0)
(0.0541257 0.345556 0)
(0.062842 0.360836 0)
(0.0697752 0.367758 0)
(0.0747187 0.367326 0)
(0.0776308 0.360564 0)
(0.0786009 0.348462 0)
(0.0778154 0.33194 0)
(0.0755248 0.311828 0)
(0.0720158 0.288854 0)
(0.0675884 0.26364 0)
(0.0625386 0.23671 0)
(0.0571459 0.208497 0)
(0.0516655 0.179352 0)
(0.0463227 0.149557 0)
(0.0413107 0.119337 0)
(0.0367903 0.0888701 0)
(0.0328895 0.0583005 0)
(0.0297051 0.027746 0)
(0.0273038 -0.00269193 0)
(0.0257235 -0.0329199 0)
(0.0249745 -0.0628454 0)
(0.02504 -0.0923691 0)
(0.025877 -0.121379 0)
(0.0274166 -0.149744 0)
(0.029564 -0.177308 0)
(0.0321989 -0.203884 0)
(0.0351759 -0.229246 0)
(0.038326 -0.25313 0)
(0.041458 -0.275219 0)
(0.0443631 -0.295147 0)
(0.0468196 -0.312489 0)
(0.0486016 -0.326761 0)
(0.0494904 -0.337417 0)
(0.0492889 -0.343851 0)
(0.0478404 -0.345406 0)
(0.0450502 -0.341384 0)
(0.0409097 -0.331065 0)
(0.035521 -0.313744 0)
(0.029119 -0.288764 0)
(0.0220878 -0.255576 0)
(0.0149539 -0.213799 0)
(0.00835791 -0.163289 0)
(0.00314463 -0.104194 0)
(0.000504291 -0.0370619 0)
(0.000635218 0.0403665 0)
(0.00401085 0.113209 0)
(0.0107765 0.177119 0)
(0.0195207 0.231479 0)
(0.0292398 0.276046 0)
(0.0391434 0.31089 0)
(0.0485402 0.336362 0)
(0.0568823 0.353042 0)
(0.063787 0.361671 0)
(0.0690291 0.36309 0)
(0.072524 0.358185 0)
(0.0743033 0.347837 0)
(0.0744892 0.332886 0)
(0.0732682 0.31411 0)
(0.0708671 0.292207 0)
(0.0675334 0.267792 0)
(0.0635188 0.241393 0)
(0.0590674 0.213458 0)
(0.0544067 0.184363 0)
(0.0497417 0.154416 0)
(0.0452521 0.123871 0)
(0.0410898 0.0929382 0)
(0.0373792 0.0617901 0)
(0.0342168 0.0305741 0)
(0.0316723 -0.0005803 0)
(0.0297894 -0.0315525 0)
(0.0285865 -0.0622237 0)
(0.0280576 -0.0924693 0)
(0.028173 -0.122152 0)
(0.0288793 -0.151117 0)
(0.0301002 -0.179182 0)
(0.0317371 -0.206138 0)
(0.0336694 -0.231736 0)
(0.0357563 -0.25569 0)
(0.037839 -0.277666 0)
(0.0397441 -0.297286 0)
(0.0412891 -0.314117 0)
(0.0422898 -0.327677 0)
(0.0425699 -0.337437 0)
(0.0419738 -0.34282 0)
(0.0403819 -0.343218 0)
(0.0377279 -0.338 0)
(0.0340175 -0.326538 0)
(0.0293464 -0.308235 0)
(0.0239164 -0.282558 0)
(0.0180453 -0.249087 0)
(0.0121591 -0.207567 0)
(0.00676755 -0.15795 0)
(0.00253645 -0.100448 0)
(0.000404647 -0.0356063 0)
(0.000539636 0.0384567 0)
(0.00343304 0.108232 0)
(0.00927188 0.169894 0)
(0.0168849 0.222838 0)
(0.025442 0.266777 0)
(0.0342827 0.301692 0)
(0.0428156 0.327817 0)
(0.0505575 0.34559 0)
(0.0571545 0.355612 0)
(0.0623799 0.358591 0)
(0.0661242 0.355292 0)
(0.0683782 0.346498 0)
(0.0692143 0.332977 0)
(0.0687655 0.315452 0)
(0.0672065 0.29459 0)
(0.0647364 0.270989 0)
(0.0615643 0.245177 0)
(0.057898 0.21761 0)
(0.0539357 0.188679 0)
(0.0498597 0.158712 0)
(0.0458325 0.127989 0)
(0.0419948 0.0967433 0)
(0.0384638 0.0651737 0)
(0.0353336 0.0334529 0)
(0.0326748 0.0017354 0)
(0.0305357 -0.0298343 0)
(0.0289422 -0.061114 0)
(0.0278987 -0.0919561 0)
(0.027389 -0.122201 0)
(0.0273762 -0.151673 0)
(0.0278035 -0.180167 0)
(0.0285948 -0.207454 0)
(0.0296553 -0.233267 0)
(0.0308732 -0.257301 0)
(0.0321216 -0.279209 0)
(0.0332617 -0.2986 0)
(0.0341474 -0.315038 0)
(0.0346316 -0.328045 0)
(0.0345743 -0.337103 0)
(0.0338531 -0.341666 0)
(0.0323749 -0.341162 0)
(0.0300901 -0.33502 0)
(0.0270066 -0.322684 0)
(0.0232032 -0.303641 0)
(0.0188408 -0.277457 0)
(0.0141693 -0.243813 0)
(0.00952 -0.202542 0)
(0.00528552 -0.153674 0)
(0.00197657 -0.097462 0)
(0.0003144 -0.0344502 0)
(0.000451591 0.0368347 0)
(0.00289177 0.10398 0)
(0.00784482 0.16368 0)
(0.0143509 0.21534 0)
(0.0217322 0.258644 0)
(0.029445 0.293512 0)
(0.0369928 0.320087 0)
(0.043959 0.338703 0)
(0.0500272 0.349848 0)
(0.0549813 0.354121 0)
(0.0587008 0.352188 0)
(0.0611497 0.344748 0)
(0.0623625 0.3325 0)
(0.0624291 0.316119 0)
(0.061479 0.296237 0)
(0.0596676 0.273435 0)
(0.057164 0.248232 0)
(0.0541405 0.221088 0)
(0.050765 0.192402 0)
(0.0471954 0.162519 0)
(0.0435752 0.131736 0)
(0.0400309 0.100307 0)
(0.0366706 0.0684514 0)
(0.0335837 0.036363 0)
(0.03084 0.0042174 0)
(0.0284906 -0.0278201 0)
(0.0265682 -0.0595871 0)
(0.0250871 -0.0909167 0)
(0.0240442 -0.12163 0)
(0.0234195 -0.151532 0)
(0.0231757 -0.180402 0)
(0.0232599 -0.207991 0)
(0.0236033 -0.234016 0)
(0.024123 -0.258158 0)
(0.0247233 -0.280057 0)
(0.0252984 -0.299314 0)
(0.0257361 -0.315489 0)
(0.0259225 -0.328106 0)
(0.0257485 -0.33666 0)
(0.0251176 -0.340622 0)
(0.0239556 -0.339456 0)
(0.0222205 -0.332632 0)
(0.0199138 -0.319651 0)
(0.0170899 -0.300067 0)
(0.0138647 -0.27352 0)
(0.0104198 -0.239762 0)
(0.00699706 -0.198699 0)
(0.00388335 -0.150414 0)
(0.00145193 -0.0951901 0)
(0.000230923 -0.033572 0)
(0.000369162 0.0354839 0)
(0.0023779 0.100421 0)
(0.00647636 0.158447 0)
(0.0118947 0.208978 0)
(0.0180914 0.251679 0)
(0.0246288 0.286428 0)
(0.0311 0.313302 0)
(0.0371561 0.332555 0)
(0.0425229 0.34459 0)
(0.0470042 0.349917 0)
(0.0504788 0.349124 0)
(0.0528947 0.342837 0)
(0.0542587 0.331698 0)
(0.0546259 0.316336 0)
(0.0540876 0.297352 0)
(0.0527603 0.275305 0)
(0.0507756 0.250705 0)
(0.0482716 0.22401 0)
(0.0453864 0.195624 0)
(0.042252 0.165902 0)
(0.0389915 0.135154 0)
(0.0357155 0.103648 0)
(0.032521 0.0716209 0)
(0.0294905 0.0392835 0)
(0.0266915 0.00682826 0)
(0.0241767 -0.0255628 0)
(0.0219839 -0.0577108 0)
(0.0201368 -0.0894327 0)
(0.018645 -0.120535 0)
(0.0175046 -0.150805 0)
(0.0166982 -0.180009 0)
(0.0161957 -0.207883 0)
(0.0159541 -0.234132 0)
(0.015919 -0.258423 0)
(0.0160251 -0.280386 0)
(0.0161983 -0.299614 0)
(0.0163576 -0.315663 0)
(0.0164192 -0.328059 0)
(0.0163005 -0.3363 0)
(0.0159259 -0.339874 0)
(0.0152339 -0.338266 0)
(0.0141839 -0.330978 0)
(0.0127648 -0.317552 0)
(0.0110019 -0.29759 0)
(0.00896333 -0.270784 0)
(0.00676324 -0.236942 0)
(0.0045585 -0.196017 0)
(0.00253862 -0.148134 0)
(0.000952414 -0.0935993 0)
(0.000152217 -0.0329561 0)
(0.000290852 0.0343918 0)
(0.0018842 0.0975302 0)
(0.0051512 0.154173 0)
(0.00949652 0.203747 0)
(0.0145029 0.245907 0)
(0.0198304 0.280501 0)
(0.0251576 0.307559 0)
(0.0302025 0.32728 0)
(0.034737 0.340001 0)
(0.0385904 0.346165 0)
(0.0416489 0.346298 0)
(0.0438526 0.340969 0)
(0.0451889 0.330769 0)
(0.0456851 0.31629 0)
(0.0454001 0.298103 0)
(0.0444155 0.276747 0)
(0.0428286 0.252721 0)
(0.0407446 0.226477 0)
(0.038272 0.198422 0)
(0.0355169 0.168914 0)
(0.0325805 0.138273 0)
(0.0295563 0.106778 0)
(0.0265285 0.0746762 0)
(0.0235711 0.0421923 0)
(0.0207474 0.00953102 0)
(0.0181102 -0.0231127 0)
(0.0157016 -0.0555476 0)
(0.0135532 -0.0875783 0)
(0.0116867 -0.118999 0)
(0.0101138 -0.149586 0)
(0.00883617 -0.179094 0)
(0.00784616 -0.207247 0)
(0.0071264 -0.23374 0)
(0.00665019 -0.25823 0)
(0.00638186 -0.280337 0)
(0.00627747 -0.299648 0)
(0.00628597 -0.315711 0)
(0.00635103 -0.328051 0)
(0.00641362 -0.336168 0)
(0.00641544 -0.339557 0)
(0.00630327 -0.337714 0)
(0.00603392 -0.330163 0)
(0.00557977 -0.316468 0)
(0.00493405 -0.296265 0)
(0.0041156 -0.269278 0)
(0.00317195 -0.235355 0)
(0.00217847 -0.194482 0)
(0.00123342 -0.146811 0)
(0.000470025 -0.0926659 0)
(7.67037e-05 -0.0325917 0)
(0.000215447 0.0335494 0)
(0.00140469 0.0952896 0)
(0.00385656 0.150843 0)
(0.00713937 0.199644 0)
(0.0109515 0.241344 0)
(0.0150449 0.275772 0)
(0.0191797 0.30293 0)
(0.0231408 0.322976 0)
(0.0267478 0.336202 0)
(0.0298598 0.343006 0)
(0.032376 0.343862 0)
(0.0342345 0.339297 0)
(0.0354095 0.329866 0)
(0.0359061 0.316125 0)
(0.0357554 0.298622 0)
(0.0350079 0.277876 0)
(0.0337286 0.254376 0)
(0.0319919 0.228566 0)
(0.0298767 0.200852 0)
(0.0274631 0.171594 0)
(0.0248299 0.141114 0)
(0.022052 0.1097 0)
(0.0191993 0.077606 0)
(0.016336 0.0450644 0)
(0.0135198 0.0122889 0)
(0.010802 -0.0205173 0)
(0.00822754 -0.0531542 0)
(0.00583495 -0.0854183 0)
(0.00365675 -0.117096 0)
(0.00171937 -0.147955 0)
(4.3125e-05 -0.177742 0)
(-0.0013579 -0.206174 0)
(-0.00247619 -0.232937 0)
(-0.00331115 -0.257679 0)
(-0.00386954 -0.280014 0)
(-0.00416583 -0.299519 0)
(-0.00422238 -0.315738 0)
(-0.0040693 -0.328187 0)
(-0.00374384 -0.336365 0)
(-0.0032891 -0.339764 0)
(-0.00275216 -0.337884 0)
(-0.00218135 -0.330255 0)
(-0.00162297 -0.316452 0)
(-0.00111754 -0.296125 0)
(-0.000696104 -0.26902 0)
(-0.000377083 -0.235003 0)
(-0.000164296 -0.194082 0)
(-4.68962e-05 -0.146427 0)
(-1.72553e-06 -0.0923745 0)
(3.11832e-06 -0.0324714 0)
(0.00014192 0.0329504 0)
(0.000934221 0.0936872 0)
(0.00258123 0.148445 0)
(0.00480798 0.196666 0)
(0.00742302 0.238001 0)
(0.0102659 0.272271 0)
(0.0131766 0.299463 0)
(0.0160054 0.319712 0)
(0.0186216 0.333282 0)
(0.0209163 0.340537 0)
(0.0228054 0.341923 0)
(0.0242295 0.337935 0)
(0.0251536 0.329097 0)
(0.025565 0.315944 0)
(0.0254699 0.299001 0)
(0.0248907 0.278774 0)
(0.0238624 0.255737 0)
(0.022429 0.230329 0)
(0.0206408 0.20295 0)
(0.0185517 0.173961 0)
(0.0162172 0.143684 0)
(0.0136928 0.112408 0)