/*--------------------------------*- C++ -*----------------------------------*\
  =========                 |
  \\      /  F ield         | OpenFOAM: The Open Source CFD Toolbox
   \\    /   O peration     | Website:  https://openfoam.org
    \\  /    A nd           | Version:  7
     \\/     M anipulation  |
\*---------------------------------------------------------------------------*/
FoamFile
{
    version     2.0;
    format      ascii;
    class       surfaceScalarField;
    location    "0.0036";
    object      phi;
}
// * * * * * * * * * * * * * * * * * * * * * * * * * * * * * * * * * * * * * //

dimensions      [0 3 -1 0 0 0 0];

internalField   nonuniform List<scalar> 
4900
(
4.18171e-10
-4.18192e-10
-5.76225e-10
9.94385e-10
-3.14106e-09
2.56484e-09
-6.93109e-09
3.79004e-09
-1.15478e-08
4.61675e-09
-1.66528e-08
5.10498e-09
-2.19906e-08
5.33778e-09
-2.73825e-08
5.39192e-09
-3.27092e-08
5.32671e-09
-3.78925e-08
5.18329e-09
-4.28805e-08
4.98801e-09
-4.76372e-08
4.7567e-09
-5.21355e-08
4.49832e-09
-5.63534e-08
4.21785e-09
-6.02716e-08
3.91818e-09
-6.38728e-08
3.60121e-09
-6.71413e-08
3.26846e-09
-7.00627e-08
2.92141e-09
-7.26242e-08
2.56153e-09
-7.48146e-08
2.19038e-09
-7.66242e-08
1.80956e-09
-7.80449e-08
1.42071e-09
-7.90703e-08
1.02549e-09
-7.96959e-08
6.25598e-10
-7.99187e-08
2.2272e-10
-7.97372e-08
-1.81452e-10
-7.9152e-08
-5.85207e-10
-7.81652e-08
-9.86823e-10
-7.67806e-08
-1.38458e-09
-7.50038e-08
-1.77675e-09
-7.28422e-08
-2.16159e-09
-7.03048e-08
-2.53737e-09
-6.74024e-08
-2.90242e-09
-6.41474e-08
-3.25506e-09
-6.05537e-08
-3.5937e-09
-5.66369e-08
-3.91672e-09
-5.24144e-08
-4.22247e-09
-4.79056e-08
-4.50887e-09
-4.31327e-08
-4.77288e-09
-3.81234e-08
-5.0093e-09
-3.29144e-08
-5.20893e-09
-2.75587e-08
-5.35571e-09
-2.21357e-08
-5.42301e-09
-1.67663e-08
-5.36949e-09
-1.16306e-08
-5.13567e-09
-6.9859e-09
-4.64474e-09
-3.17219e-09
-3.81371e-09
-5.89528e-10
-2.58267e-09
4.17413e-10
-1.00694e-09
4.1742e-10
-9.91117e-10
5.72916e-10
-5.08735e-09
5.09061e-09
-1.23047e-08
9.78215e-09
-2.20595e-08
1.35448e-08
-3.36397e-08
1.6197e-08
-4.63775e-08
1.78428e-08
-5.97237e-08
1.86841e-08
-7.32629e-08
1.89311e-08
-8.66966e-08
1.87604e-08
-9.98161e-08
1.83027e-08
-1.12476e-07
1.76474e-08
-1.2457e-07
1.68514e-08
-1.36021e-07
1.59493e-08
-1.46765e-07
1.4962e-08
-1.56749e-07
1.39021e-08
-1.65926e-07
1.27782e-08
-1.74255e-07
1.1597e-08
-1.81698e-07
1.03644e-08
-1.88223e-07
9.08616e-09
-1.938e-07
7.76793e-09
-1.98406e-07
6.41555e-09
-2.0202e-07
5.0349e-09
-2.04627e-07
3.6319e-09
-2.06214e-07
2.21251e-09
-2.06774e-07
7.82718e-10
-2.06304e-07
-6.51461e-10
-2.04805e-07
-2.08401e-09
-2.02283e-07
-3.50886e-09
-1.98747e-07
-4.91992e-09
-1.94213e-07
-6.31107e-09
-1.88698e-07
-7.67618e-09
-1.82227e-07
-9.00911e-09
-1.74825e-07
-1.03038e-08
-1.66526e-07
-1.15541e-08
-1.57366e-07
-1.27539e-08
-1.47386e-07
-1.3897e-08
-1.36632e-07
-1.49762e-08
-1.25158e-07
-1.59824e-08
-1.13029e-07
-1.69024e-08
-1.00324e-07
-1.77146e-08
-8.71487e-08
-1.83838e-08
-7.36522e-08
-1.88522e-08
-6.00456e-08
-1.90297e-08
-4.66303e-08
-1.87848e-08
-3.38253e-08
-1.79407e-08
-2.21832e-08
-1.62868e-08
-1.23754e-08
-1.36215e-08
-5.11692e-09
-9.84114e-09
-9.95915e-10
-5.12792e-09
-5.78514e-10
-2.54911e-09
3.12203e-09
-9.7815e-09
1.2323e-08
-2.11115e-08
2.11122e-08
-3.57252e-08
2.81585e-08
-5.27223e-08
3.31941e-08
-7.12611e-08
3.63816e-08
-9.06328e-08
3.80558e-08
-1.10283e-07
3.85815e-08
-1.29799e-07
3.82766e-08
-1.48883e-07
3.73858e-08
-1.67317e-07
3.60816e-08
-1.84944e-07
3.44782e-08
-2.01642e-07
3.26478e-08
-2.17315e-07
3.06352e-08
-2.31882e-07
2.84688e-08
-2.45272e-07
2.61682e-08
-2.57423e-07
2.37484e-08
-2.68281e-07
2.12226e-08
-2.77798e-07
1.8603e-08
-2.85932e-07
1.59016e-08
-2.92647e-07
1.31306e-08
-2.97914e-07
1.0302e-08
-3.0171e-07
7.42803e-09
-3.04018e-07
4.52083e-09
-3.04828e-07
1.59264e-09
-3.04136e-07
-1.3443e-09
-3.01942e-07
-4.2777e-09
-2.98256e-07
-7.19521e-09
-2.93091e-07
-1.00844e-08
-2.86469e-07
-1.29328e-08
-2.78418e-07
-1.57278e-08
-2.6897e-07
-1.8457e-08
-2.58166e-07
-2.11076e-08
-2.46053e-07
-2.36669e-08
-2.32685e-07
-2.61219e-08
-2.18123e-07
-2.84588e-08
-2.02438e-07
-3.06617e-08
-1.8571e-07
-3.271e-08
-1.68039e-07
-3.45742e-08
-1.49545e-07
-3.62082e-08
-1.3039e-07
-3.75385e-08
-1.10793e-07
-3.84495e-08
-9.10554e-08
-3.87673e-08
-7.15945e-08
-3.82458e-08
-5.2969e-08
-3.65662e-08
-3.58921e-08
-3.33637e-08
-2.12102e-08
-2.83035e-08
-9.82746e-09
-2.12238e-08
-2.56216e-09
-1.23932e-08
-3.14068e-09
-3.79246e-09
6.91447e-09
-1.36457e-08
2.21763e-08
-2.83882e-08
3.58547e-08
-4.69048e-08
4.6675e-08
-6.81221e-08
5.44114e-08
-9.10795e-08
5.9339e-08
-1.14975e-07
6.19512e-08
-1.39175e-07
6.27817e-08
-1.632e-07
6.2302e-08
-1.86696e-07
6.08816e-08
-2.09401e-07
5.87864e-08
-2.31119e-07
5.61962e-08
-2.51698e-07
5.32274e-08
-2.71018e-07
4.99543e-08
-2.88974e-07
4.64252e-08
-3.0548e-07
4.26739e-08
-3.20458e-07
3.87263e-08
-3.3384e-07
3.46049e-08
-3.45567e-07
3.03304e-08
-3.55589e-07
2.59228e-08
-3.6386e-07
2.14021e-08
-3.70346e-07
1.67881e-08
-3.75019e-07
1.21006e-08
-3.77857e-07
7.35941e-09
-3.78849e-07
2.58445e-09
-3.77989e-07
-2.20447e-09
-3.75279e-07
-6.9874e-09
-3.7073e-07
-1.17443e-08
-3.64359e-07
-1.64551e-08
-3.56193e-07
-2.10994e-08
-3.46264e-07
-2.56569e-08
-3.34614e-07
-3.01069e-08
-3.21293e-07
-3.44288e-08
-3.06358e-07
-3.86014e-08
-2.89877e-07
-4.2603e-08
-2.71926e-07
-4.64099e-08
-2.52593e-07
-4.99948e-08
-2.3198e-07
-5.33224e-08
-2.10212e-07
-5.63428e-08
-1.8744e-07
-5.89797e-08
-1.63864e-07
-6.11148e-08
-1.39747e-07
-6.2566e-08
-1.15449e-07
-6.30651e-08
-9.14542e-08
-6.2241e-08
-6.83998e-08
-5.96206e-08
-4.70935e-08
-5.467e-08
-2.85008e-08
-4.68961e-08
-1.36993e-08
-3.60253e-08
-3.80797e-09
-2.22846e-08
-6.94863e-09
-4.68155e-09
1.1596e-08
-1.65544e-08
3.40491e-08
-3.39765e-08
5.32768e-08
-5.55433e-08
6.82418e-08
-8.00134e-08
7.88815e-08
-1.06326e-07
8.56512e-08
-1.33612e-07
8.92375e-08
-1.61191e-07
9.03604e-08
-1.88543e-07
8.96547e-08
-2.15282e-07
8.76206e-08
-2.41118e-07
8.46224e-08
-2.65832e-07
8.09095e-08
-2.8925e-07
7.6646e-08
-3.11235e-07
7.19386e-08
-3.31667e-07
6.68581e-08
-3.50448e-07
6.14546e-08
-3.67489e-07
5.57668e-08
-3.82712e-07
4.98282e-08
-3.96051e-07
4.36691e-08
-4.07447e-07
3.7319e-08
-4.16851e-07
3.08067e-08
-4.24224e-07
2.4161e-08
-4.29534e-07
1.74103e-08
-4.32758e-07
1.0583e-08
-4.33881e-07
3.70763e-09
-4.32898e-07
-3.18745e-09
-4.29812e-07
-1.00737e-08
-4.24633e-07
-1.69226e-08
-4.17383e-07
-2.37051e-08
-4.0809e-07
-3.03924e-08
-3.96792e-07
-3.6955e-08
-3.83536e-07
-4.33633e-08
-3.68377e-07
-4.95872e-08
-3.51383e-07
-5.5596e-08
-3.32628e-07
-6.13577e-08
-3.122e-07
-6.68374e-08
-2.90201e-07
-7.19944e-08
-2.66747e-07
-7.67765e-08
-2.41979e-07
-8.11106e-08
-2.16071e-07
-8.48874e-08
-1.89246e-07
-8.79401e-08
-1.61796e-07
-9.0016e-08
-1.34113e-07
-9.07481e-08
-1.06721e-07
-8.96335e-08
-8.03055e-08
-8.60357e-08
-5.57412e-08
-7.92343e-08
-3.40942e-08
-6.85432e-08
-1.66102e-08
-5.35093e-08
-4.69729e-09
-3.41975e-08
-1.16459e-08
-5.28736e-09
1.68834e-08
-1.86482e-08
4.74099e-08
-3.81092e-08
7.27377e-08
-6.20235e-08
9.21561e-08
-8.89961e-08
1.05854e-07
-1.17873e-07
1.14528e-07
-1.4773e-07
1.19094e-07
-1.77849e-07
1.2048e-07
-2.07687e-07
1.19493e-07
-2.36837e-07
1.1677e-07
-2.6499e-07
1.12776e-07
-2.91915e-07
1.07834e-07
-3.17424e-07
1.02156e-07
-3.41369e-07
9.58826e-08
-3.6362e-07
8.91094e-08
-3.84069e-07
8.19037e-08
-4.0262e-07
7.43183e-08
-4.19191e-07
6.63986e-08
-4.33708e-07
5.81858e-08
-4.46108e-07
4.97196e-08
-4.5634e-07
4.10386e-08
-4.6436e-07
3.2181e-08
-4.70135e-07
2.31848e-08
-4.73639e-07
1.40876e-08
-4.74859e-07
4.92698e-09
-4.73787e-07
-4.25945e-09
-4.70426e-07
-1.3434e-08
-4.6479e-07
-2.2559e-08
-4.56899e-07
-3.15961e-08
-4.46784e-07
-4.0507e-08
-4.34487e-07
-4.92526e-08
-4.20056e-07
-5.77935e-08
-4.03554e-07
-6.60896e-08
-3.8505e-07
-7.40996e-08
-3.64628e-07
-8.178e-08
-3.42382e-07
-8.90836e-08
-3.18421e-07
-9.5955e-08
-2.92874e-07
-1.02324e-07
-2.65892e-07
-1.08093e-07
-2.37662e-07
-1.13117e-07
-2.08421e-07
-1.1718e-07
-1.7848e-07
-1.19957e-07
-1.48251e-07
-1.20978e-07
-1.18282e-07
-1.19602e-07
-8.92973e-08
-1.15021e-07
-6.22263e-08
-1.06305e-07
-3.82286e-08
-9.2541e-08
-1.87038e-08
-7.30341e-08
-5.30246e-09
-4.75989e-08
-1.69484e-08
-5.69857e-09
2.25819e-08
-2.01489e-08
6.18602e-08
-4.11606e-08
9.37494e-08
-6.68981e-08
1.17894e-07
-9.58328e-08
1.34789e-07
-1.26724e-07
1.4542e-07
-1.58595e-07
1.50965e-07
-1.90696e-07
1.5258e-07
-2.22461e-07
1.51258e-07
-2.53468e-07
1.47778e-07
-2.83402e-07
1.4271e-07
-3.12016e-07
1.36449e-07
-3.3912e-07
1.29259e-07
-3.64553e-07
1.21316e-07
-3.88183e-07
1.12739e-07
-4.09894e-07
1.03615e-07
-4.29586e-07
9.40104e-08
-4.47171e-07
8.39842e-08
-4.62575e-07
7.3589e-08
-4.7573e-07
6.28752e-08
-4.86583e-07
5.18918e-08
-4.95089e-07
4.0687e-08
-5.01213e-07
2.93086e-08
-5.04929e-07
1.78038e-08
-5.06222e-07
6.21985e-09
-5.05085e-07
-5.39633e-09
-5.01522e-07
-1.69976e-08
-4.95544e-07
-2.85365e-08
-4.87175e-07
-3.99654e-08
-4.76446e-07
-5.1236e-08
-4.63399e-07
-6.22992e-08
-4.48088e-07
-7.31053e-08
-4.30574e-07
-8.36034e-08
-4.10932e-07
-9.3741e-08
-3.8925e-07
-1.03463e-07
-3.65625e-07
-1.12708e-07
-3.40174e-07
-1.21406e-07
-3.1303e-07
-1.29468e-07
-2.84353e-07
-1.36769e-07
-2.54339e-07
-1.43132e-07
-2.23234e-07
-1.48286e-07
-1.91359e-07
-1.51831e-07
-1.59142e-07
-1.53195e-07
-1.27152e-07
-1.51592e-07
-9.61462e-08
-1.46027e-07
-6.71076e-08
-1.35344e-07
-4.12826e-08
-1.18366e-07
-2.02047e-08
-9.4112e-08
-5.71308e-09
-6.20905e-08
-2.26615e-08
-5.99415e-09
2.85761e-08
-2.12759e-08
7.7142e-08
-4.35133e-08
1.15987e-07
-7.07267e-08
1.45107e-07
-1.01274e-07
1.65336e-07
-1.33835e-07
1.7798e-07
-1.67378e-07
1.84509e-07
-2.01122e-07
1.86324e-07
-2.34481e-07
1.84617e-07
-2.6702e-07
1.80317e-07
-2.98413e-07
1.74102e-07
-3.28408e-07
1.66444e-07
-3.56808e-07
1.57658e-07
-3.83448e-07
1.47956e-07
-4.0819e-07
1.37482e-07
-4.30917e-07
1.26341e-07
-4.51525e-07
1.14618e-07
-4.69923e-07
1.02383e-07
-4.86035e-07
8.97006e-08
-4.99793e-07
7.66332e-08
-5.11141e-07
6.32402e-08
-5.20035e-07
4.95803e-08
-5.26437e-07
3.57112e-08
-5.30323e-07
2.169e-08
-5.31677e-07
7.5734e-09
-5.30491e-07
-6.58191e-09
-5.2677e-07
-2.07193e-08
-5.20524e-07
-3.47816e-08
-5.11778e-07
-4.87115e-08
-5.00564e-07
-6.24506e-08
-4.86923e-07
-7.59397e-08
-4.7091e-07
-8.91183e-08
-4.52589e-07
-1.01924e-07
-4.32036e-07
-1.14294e-07
-4.0934e-07
-1.26159e-07
-3.84603e-07
-1.37445e-07
-3.57943e-07
-1.48066e-07
-3.295e-07
-1.57911e-07
-2.99437e-07
-1.66832e-07
-2.67957e-07
-1.74612e-07
-2.35312e-07
-1.8093e-07
-2.01835e-07
-1.85309e-07
-1.67964e-07
-1.87065e-07
-1.34292e-07
-1.85264e-07
-1.01608e-07
-1.78711e-07
-7.09487e-08
-1.66003e-07
-4.36415e-08
-1.45673e-07
-2.13337e-08
-1.1642e-07
-6.0087e-09
-7.74155e-08
-2.86702e-08
-6.23389e-09
3.481e-08
-2.22085e-08
9.31166e-08
-4.54915e-08
1.3927e-07
-7.39889e-08
1.73604e-07
-1.0596e-07
1.97307e-07
-1.40009e-07
2.12029e-07
-1.75054e-07
2.19554e-07
-2.10276e-07
2.21546e-07
-2.45068e-07
2.19409e-07
-2.78981e-07
2.14229e-07
-3.11678e-07
2.068e-07
-3.42903e-07
1.97669e-07
-3.72452e-07
1.87207e-07
-4.00157e-07
1.75661e-07
-4.25879e-07
1.63204e-07
-4.49496e-07
1.49959e-07
-4.70903e-07
1.36025e-07
-4.9001e-07
1.21489e-07
-5.06737e-07
1.06428e-07
-5.21018e-07
9.09136e-08
-5.32795e-07
7.50178e-08
-5.42024e-07
5.88093e-08
-5.48669e-07
4.23559e-08
-5.52704e-07
2.57247e-08
-5.54112e-07
8.98194e-09
-5.52888e-07
-7.80621e-09
-5.49033e-07
-2.45736e-08
-5.42562e-07
-4.12535e-08
-5.33494e-07
-5.77788e-08
-5.21864e-07
-7.40812e-08
-5.07712e-07
-9.0091e-08
-4.91094e-07
-1.05737e-07
-4.72073e-07
-1.20946e-07
-4.50725e-07
-1.35641e-07
-4.27142e-07
-1.49742e-07
-4.01427e-07
-1.63161e-07
-3.737e-07
-1.75792e-07
-3.44103e-07
-1.87508e-07
-3.12804e-07
-1.9813e-07
-2.8001e-07
-2.07406e-07
-2.45982e-07
-2.14959e-07
-2.11059e-07
-2.20232e-07
-1.75697e-07
-2.22427e-07
-1.40511e-07
-2.2045e-07
-1.06326e-07
-2.12896e-07
-7.42314e-08
-1.98097e-07
-4.5631e-08
-1.74274e-07
-2.22709e-08
-1.3978e-07
-6.24933e-09
-9.34371e-08
-3.49195e-08
-6.45877e-09
4.12688e-08
-2.3078e-08
1.09736e-07
-4.73407e-08
1.63533e-07
-7.70539e-08
2.03318e-07
-1.10387e-07
2.30641e-07
-1.45873e-07
2.47515e-07
-1.82375e-07
2.56055e-07
-2.19036e-07
2.58208e-07
-2.55225e-07
2.55598e-07
-2.90475e-07
2.4948e-07
-3.24441e-07
2.40765e-07
-3.56858e-07
2.30085e-07
-3.87517e-07
2.17866e-07
-4.16248e-07
2.04393e-07
-4.42909e-07
1.89864e-07
-4.67377e-07
1.74426e-07
-4.89546e-07
1.58194e-07
-5.09324e-07
1.41268e-07
-5.26634e-07
1.23737e-07
-5.41408e-07
1.05688e-07
-5.53591e-07
8.72002e-08
-5.63136e-07
6.8355e-08
-5.7001e-07
4.92297e-08
-5.74186e-07
2.9901e-08
-5.75649e-07
1.04447e-08
-5.74392e-07
-9.06364e-09
-5.70416e-07
-2.85487e-08
-5.63736e-07
-4.79345e-08
-5.5437e-07
-6.71442e-08
-5.42352e-07
-8.60995e-08
-5.27722e-07
-1.04721e-07
-5.10534e-07
-1.22925e-07
-4.90851e-07
-1.40629e-07
-4.6875e-07
-1.57742e-07
-4.44321e-07
-1.74172e-07
-4.17668e-07
-1.89814e-07
-3.88913e-07
-2.04547e-07
-3.58201e-07
-2.1822e-07
-3.25703e-07
-2.30629e-07
-2.91629e-07
-2.4148e-07
-2.56249e-07
-2.50339e-07
-2.19914e-07
-2.56567e-07
-1.83096e-07
-2.59245e-07
-1.46436e-07
-2.57111e-07
-1.10798e-07
-2.48535e-07
-7.7326e-08
-2.31569e-07
-4.74971e-08
-2.04103e-07
-2.31479e-08
-1.64129e-07
-6.476e-09
-1.10109e-07
-4.13955e-08
-6.69493e-09
4.79637e-08
-2.39734e-08
1.27014e-07
-4.92332e-08
1.88792e-07
-8.01866e-08
2.34271e-07
-1.14916e-07
2.6537e-07
-1.5188e-07
2.84479e-07
-1.89886e-07
2.94061e-07
-2.28038e-07
2.9636e-07
-2.65675e-07
2.93235e-07
-3.02313e-07
2.86118e-07
-3.37592e-07
2.76045e-07
-3.7124e-07
2.63734e-07
-4.03044e-07
2.49669e-07
-4.32829e-07
2.34178e-07
-4.60451e-07
2.17487e-07
-4.85787e-07
1.99762e-07
-5.08731e-07
1.81138e-07
-5.29192e-07
1.61729e-07
-5.47091e-07
1.41637e-07
-5.62364e-07
1.2096e-07
-5.74955e-07
9.97912e-08
-5.8482e-07
7.82202e-08
-5.91925e-07
5.63348e-08
-5.96246e-07
3.42212e-08
-5.97765e-07
1.19643e-08
-5.96477e-07
-1.03515e-08
-5.92384e-07
-3.2642e-08
-5.85496e-07
-5.4822e-08
-5.75835e-07
-7.68056e-08
-5.6343e-07
-9.85048e-08
-5.48321e-07
-1.1983e-07
-5.30559e-07
-1.40687e-07
-5.10208e-07
-1.6098e-07
-4.87341e-07
-1.80608e-07
-4.6205e-07
-1.99463e-07
-4.34437e-07
-2.17426e-07
-4.04627e-07
-2.34357e-07
-3.72765e-07
-2.50083e-07
-3.39025e-07
-2.64369e-07
-3.03624e-07
-2.7688e-07
-2.6684e-07
-2.87123e-07
-2.29038e-07
-2.9437e-07
-1.90708e-07
-2.97574e-07
-1.52522e-07
-2.95297e-07
-1.15384e-07
-2.85672e-07
-8.04978e-08
-2.66456e-07
-4.94125e-08
-2.35188e-07
-2.40538e-08
-1.89488e-07
-6.71484e-09
-1.27448e-07
-4.81104e-08
-6.95825e-09
5.49219e-08
-2.49524e-08
1.45008e-07
-5.12845e-08
2.15125e-07
-8.35676e-08
2.66554e-07
-1.19793e-07
3.01596e-07
-1.58345e-07
3.23031e-07
-1.97969e-07
3.33686e-07
-2.37726e-07
3.36117e-07
-2.76924e-07
3.32432e-07
-3.15055e-07
3.24249e-07
-3.51747e-07
3.12736e-07
-3.86717e-07
2.98704e-07
-4.19746e-07
2.82698e-07
-4.50657e-07
2.65089e-07
-4.79303e-07
2.46133e-07
-5.05562e-07
2.26021e-07
-5.29326e-07
2.04903e-07
-5.50507e-07
1.8291e-07
-5.69028e-07
1.60158e-07
-5.84825e-07
1.36757e-07
-5.97845e-07
1.12811e-07
-6.08045e-07
8.84208e-08
-6.15394e-07
6.36832e-08
-6.19866e-07
3.86934e-08
-6.21447e-07
1.35451e-08
-6.20129e-07
-1.16689e-08
-6.15915e-07
-3.6856e-08
-6.08815e-07
-6.19227e-08
-5.98846e-07
-8.67741e-08
-5.86038e-07
-1.11313e-07
-5.70428e-07
-1.3544e-07
-5.52065e-07
-1.5905e-07
-5.3101e-07
-1.82036e-07
-5.07335e-07
-2.04283e-07
-4.81129e-07
-2.2567e-07
-4.52495e-07
-2.4606e-07
-4.21557e-07
-2.65295e-07
-3.88462e-07
-2.83178e-07
-3.53389e-07
-2.99442e-07
-3.16559e-07
-3.13709e-07
-2.78262e-07
-3.25421e-07
-2.38876e-07
-3.33756e-07
-1.98916e-07
-3.37534e-07
-1.59085e-07
-3.35128e-07
-1.20335e-07
-3.24423e-07
-8.39278e-08
-3.02862e-07
-5.14926e-08
-2.67623e-07
-2.50461e-08
-2.15934e-07
-6.98165e-09
-1.45512e-07
-5.5092e-08
-7.25814e-09
6.21801e-08
-2.60512e-08
1.63802e-07
-5.35701e-08
2.42643e-07
-8.73185e-08
3.00303e-07
-1.2519e-07
3.39467e-07
-1.65486e-07
3.63326e-07
-2.06889e-07
3.75089e-07
-2.48409e-07
3.77637e-07
-2.89319e-07
3.73342e-07
-3.29089e-07
3.64018e-07
-3.67327e-07
3.50975e-07
-4.03742e-07
3.35119e-07
-4.38108e-07
3.17064e-07
-4.70243e-07
2.97224e-07
-5.00001e-07
2.7589e-07
-5.27256e-07
2.53276e-07
-5.51906e-07
2.29552e-07
-5.73861e-07
2.04865e-07
-5.93049e-07
1.79346e-07
-6.09407e-07
1.53115e-07
-6.22886e-07
1.2629e-07
-6.33445e-07
9.89799e-08
-6.41053e-07
7.12916e-08
-6.45689e-07
4.33287e-08
-6.47336e-07
1.51928e-08
-6.4599e-07
-1.30156e-08
-6.4165e-07
-4.11962e-08
-6.34324e-07
-6.92478e-08
-6.24031e-07
-9.70674e-08
-6.10795e-07
-1.24549e-07
-5.94652e-07
-1.51583e-07
-5.75646e-07
-1.78055e-07
-5.53836e-07
-2.03846e-07
-5.29291e-07
-2.28828e-07
-5.02097e-07
-2.52864e-07
-4.72356e-07
-2.758e-07
-4.40192e-07
-2.9746e-07
-4.05752e-07
-3.17618e-07
-3.6922e-07
-3.35975e-07
-3.30825e-07
-3.52104e-07
-2.90865e-07
-3.6538e-07
-2.49739e-07
-3.74882e-07
-2.07986e-07
-3.79287e-07
-1.66345e-07
-3.76768e-07
-1.25819e-07
-3.64949e-07
-8.77384e-08
-3.40944e-07
-5.38134e-08
-3.01548e-07
-2.61613e-08
-2.43586e-07
-7.28583e-09
-1.64388e-07
-6.23778e-08
-7.60048e-09
6.97806e-08
-2.72941e-08
1.83495e-07
-5.61417e-08
2.71491e-07
-9.1524e-08
3.35685e-07
-1.31226e-07
3.79169e-07
-1.73459e-07
4.05559e-07
-2.16833e-07
4.18463e-07
-2.60306e-07
4.2111e-07
-3.03111e-07
4.16147e-07
-3.44689e-07
4.05597e-07
-3.84633e-07
3.90918e-07
-4.22636e-07
3.73123e-07
-4.58468e-07
3.52895e-07
-4.91942e-07
3.30699e-07
-5.2291e-07
3.06859e-07
-5.5125e-07
2.81615e-07
-5.76858e-07
2.55161e-07
-5.9965e-07
2.27658e-07
-6.19556e-07
1.99252e-07
-6.36518e-07
1.70077e-07
-6.50489e-07
1.40261e-07
-6.61433e-07
1.09923e-07
-6.6932e-07
7.91789e-08
-6.74131e-07
4.81395e-08
-6.75852e-07
1.69136e-08
-6.74476e-07
-1.43915e-08
-6.70003e-07
-4.56687e-08
-6.62441e-07
-7.68102e-08
-6.51803e-07
-1.07706e-07
-6.38111e-07
-1.38241e-07
-6.21396e-07
-1.68297e-07
-6.01701e-07
-1.97751e-07
-5.79077e-07
-2.2647e-07
-5.5359e-07
-2.54314e-07
-5.25324e-07
-2.8113e-07
-4.94377e-07
-3.06747e-07
-4.60872e-07
-3.30965e-07
-4.24958e-07
-3.53532e-07
-3.86821e-07
-3.74111e-07
-3.46699e-07
-3.92226e-07
-3.04903e-07
-4.07176e-07
-2.6185e-07
-4.17935e-07
-2.18109e-07
-4.23028e-07
-1.7446e-07
-4.20417e-07
-1.3196e-07
-4.07448e-07
-9.20151e-08
-3.80889e-07
-5.64271e-08
-3.37136e-07
-2.74237e-08
-2.7259e-07
-7.63329e-09
-1.84178e-07
-7.00111e-08
-7.98955e-09
7.77701e-08
-2.86988e-08
2.04204e-07
-5.90381e-08
3.0183e-07
-9.62487e-08
3.72895e-07
-1.37994e-07
4.20915e-07
-1.82384e-07
4.49949e-07
-2.2795e-07
4.6403e-07
-2.7359e-07
4.6675e-07
-3.18492e-07
4.6105e-07
-3.62069e-07
4.49173e-07
-4.03891e-07
4.3274e-07
-4.43641e-07
4.12873e-07
-4.81078e-07
3.90332e-07
-5.16014e-07
3.65635e-07
-5.483e-07
3.39145e-07
-5.77814e-07
3.1113e-07
-6.04459e-07
2.81805e-07
-6.28153e-07
2.51351e-07
-6.4883e-07
2.19929e-07
-6.66438e-07
1.87686e-07
-6.80936e-07
1.54758e-07
-6.92289e-07
1.21277e-07
-7.00475e-07
8.73641e-08
-7.05473e-07
5.31382e-08
-7.07274e-07
1.87139e-08
-7.05869e-07
-1.57961e-08
-7.01258e-07
-5.02794e-08
-6.93446e-07
-8.46223e-08
-6.82444e-07
-1.18708e-07
-6.68268e-07
-1.52416e-07
-6.50945e-07
-1.8562e-07
-6.30512e-07
-2.18185e-07
-6.07014e-07
-2.49968e-07
-5.80513e-07
-2.80815e-07
-5.51085e-07
-3.10558e-07
-5.18827e-07
-3.39005e-07
-4.83858e-07
-3.65934e-07
-4.46328e-07
-3.91062e-07
-4.06428e-07
-4.14012e-07
-3.64401e-07
-4.34252e-07
-3.20574e-07
-4.51003e-07
-2.75385e-07
-4.63124e-07
-2.29436e-07
-4.68977e-07
-1.83551e-07
-4.66302e-07
-1.38852e-07
-4.52147e-07
-9.68239e-08
-4.22917e-07
-5.93734e-08
-3.74587e-07
-2.88516e-08
-3.03111e-07
-8.02843e-09
-2.05001e-07
-7.80395e-08
-8.42925e-09
8.61994e-08
-3.02812e-08
2.26056e-07
-6.22935e-08
3.33843e-07
-1.01549e-07
4.12151e-07
-1.45574e-07
4.6494e-07
-1.92367e-07
4.96741e-07
-2.40368e-07
5.12031e-07
-2.8841e-07
5.14791e-07
-3.35632e-07
5.08272e-07
-3.81412e-07
4.94953e-07
-4.25299e-07
4.76627e-07
-4.66961e-07
4.54535e-07
-5.0615e-07
4.2952e-07
-5.42675e-07
4.0216e-07
-5.76387e-07
3.72857e-07
-6.07169e-07
3.41912e-07
-6.34926e-07
3.09562e-07
-6.59583e-07
2.76009e-07
-6.81083e-07
2.41428e-07
-6.99378e-07
2.05981e-07
-7.14433e-07
1.69813e-07
-7.26221e-07
1.33065e-07
-7.34722e-07
9.58647e-08
-7.3992e-07
5.83367e-08
-7.41806e-07
2.06001e-08
-7.40374e-07
-1.72284e-08
-7.35621e-07
-5.50324e-08
-7.27549e-07
-9.26942e-08
-7.16165e-07
-1.30093e-07
-7.01481e-07
-1.67101e-07
-6.83516e-07
-2.03585e-07
-6.62299e-07
-2.39402e-07
-6.3787e-07
-2.74397e-07
-6.10281e-07
-3.08404e-07
-5.79603e-07
-3.41235e-07
-5.45927e-07
-3.72682e-07
-5.09368e-07
-4.02493e-07
-4.70076e-07
-4.30354e-07
-4.28242e-07
-4.55845e-07
-3.84122e-07
-4.78373e-07
-3.38054e-07
-4.97071e-07
-2.90502e-07
-5.10677e-07
-2.42102e-07
-5.17377e-07
-1.93731e-07
-5.14673e-07
-1.46579e-07
-4.99299e-07
-1.02224e-07
-4.67272e-07
-6.26875e-08
-4.14123e-07
-3.04613e-08
-3.35338e-07
-8.4753e-09
-2.26987e-07
-8.65148e-08
-8.92378e-09
9.51232e-08
-3.20575e-08
2.4919e-07
-6.59425e-08
3.67728e-07
-1.07482e-07
4.53691e-07
-1.54049e-07
5.11507e-07
-2.03512e-07
5.46205e-07
-2.54216e-07
5.62735e-07
-3.04914e-07
5.65489e-07
-3.54695e-07
5.58052e-07
-4.02896e-07
5.43155e-07
-4.49044e-07
5.22774e-07
-4.92791e-07
4.98281e-07
-5.33881e-07
4.70611e-07
-5.72123e-07
4.40402e-07
-6.07369e-07
4.08103e-07
-6.39506e-07
3.74049e-07
-6.68448e-07
3.38504e-07
-6.94128e-07
3.01689e-07
-7.16495e-07
2.63796e-07
-7.35512e-07
2.24998e-07
-7.51152e-07
1.85453e-07
-7.63395e-07
1.45307e-07
-7.72225e-07
1.04695e-07
-7.77634e-07
6.3745e-08
-7.79612e-07
2.25783e-08
-7.78154e-07
-1.86859e-08
-7.73257e-07
-5.99294e-08
-7.64919e-07
-1.01032e-07
-7.53141e-07
-1.4187e-07
-7.37929e-07
-1.82313e-07
-7.19294e-07
-2.2222e-07
-6.97255e-07
-2.61441e-07
-6.71842e-07
-2.9981e-07
-6.43098e-07
-3.37147e-07
-6.11085e-07
-3.73248e-07
-5.75886e-07
-4.07882e-07
-5.37609e-07
-4.40769e-07
-4.96404e-07
-4.7156e-07
-4.52463e-07
-4.99786e-07
-4.06049e-07
-5.24787e-07
-3.57516e-07
-5.45604e-07
-3.07354e-07
-5.60839e-07
-2.5624e-07
-5.68491e-07
-2.05108e-07
-5.65805e-07
-1.55225e-07
-5.49182e-07
-1.08274e-07
-5.14224e-07
-6.64057e-08
-4.5599e-07
-3.22699e-08
-3.69473e-07
-8.97829e-09
-2.50279e-07
-9.54931e-08
-9.47808e-09
1.04601e-07
-3.40463e-08
2.73758e-07
-7.00236e-08
4.03705e-07
-1.14111e-07
4.97779e-07
-1.63506e-07
5.60902e-07
-2.15936e-07
5.98634e-07
-2.69631e-07
6.1643e-07
-3.23262e-07
6.19121e-07
-3.75856e-07
6.10645e-07
-4.2671e-07
5.9401e-07
-4.75323e-07
5.71387e-07
-5.21332e-07
5.44291e-07
-5.64475e-07
5.13754e-07
-6.0456e-07
4.80486e-07
-6.41443e-07
4.44986e-07
-6.75018e-07
4.07625e-07
-7.0521e-07
3.68696e-07
-7.31961e-07
3.2844e-07
-7.55234e-07
2.87068e-07
-7.75001e-07
2.44765e-07
-7.91246e-07
2.01699e-07
-8.03958e-07
1.58019e-07
-8.1313e-07
1.13867e-07
-8.18756e-07
6.93712e-08
-8.20832e-07
2.46543e-08
-8.19353e-07
-2.0165e-08
-8.14314e-07
-6.49691e-08
-8.05708e-07
-1.09638e-07
-7.9353e-07
-1.54048e-07
-7.77778e-07
-1.98065e-07
-7.58452e-07
-2.41546e-07
-7.35561e-07
-2.84332e-07
-7.09121e-07
-3.2625e-07
-6.79163e-07
-3.67105e-07
-6.45737e-07
-4.06675e-07
-6.08914e-07
-4.44705e-07
-5.68796e-07
-4.80887e-07
-5.25525e-07
-5.1483e-07
-4.79297e-07
-5.46014e-07
-4.3038e-07
-5.73704e-07
-3.79145e-07
-5.96839e-07
-3.2611e-07
-6.13873e-07
-2.71997e-07
-6.22604e-07
-2.17803e-07
-6.19999e-07
-1.64885e-07
-6.021e-07
-1.1504e-07
-5.64069e-07
-7.05684e-08
-5.00462e-07
-3.42967e-08
-4.05745e-07
-9.54258e-09
-2.75033e-07
-1.05036e-07
-1.00982e-08
1.14699e-07
-3.62695e-08
2.9993e-07
-7.45821e-08
4.42018e-07
-1.21508e-07
5.44705e-07
-1.74048e-07
6.13442e-07
-2.29768e-07
6.54353e-07
-2.8677e-07
6.73433e-07
-3.43632e-07
6.75982e-07
-3.99312e-07
6.66325e-07
-4.53062e-07
6.4776e-07
-5.04352e-07
6.22677e-07
-5.52804e-07
5.92743e-07
-5.9815e-07
5.591e-07
-6.40199e-07
5.22535e-07
-6.78814e-07
4.83602e-07
-7.13902e-07
4.42713e-07
-7.45398e-07
4.00191e-07
-7.7326e-07
3.56303e-07
-7.97465e-07
3.11273e-07
-8.18001e-07
2.65301e-07
-8.34863e-07
2.18561e-07
-8.48053e-07
1.71209e-07
-8.57571e-07
1.23386e-07
-8.6342e-07
7.52203e-08
-8.65599e-07
2.68333e-08
-8.64104e-07
-2.16602e-08
-8.58927e-07
-7.01461e-08
-8.50057e-07
-1.18508e-07
-8.37482e-07
-1.66623e-07
-8.21189e-07
-2.14359e-07
-8.01164e-07
-2.6157e-07
-7.77402e-07
-3.08094e-07
-7.49904e-07
-3.53748e-07
-7.18685e-07
-3.98324e-07
-6.83777e-07
-4.41582e-07
-6.45239e-07
-4.83243e-07
-6.03159e-07
-5.22966e-07
-5.57674e-07
-5.60316e-07
-5.08975e-07
-5.94713e-07
-4.57337e-07
-6.25342e-07
-4.0315e-07
-6.51026e-07
-3.4696e-07
-6.70063e-07
-2.89539e-07
-6.80025e-07
-2.31956e-07
-6.77583e-07
-1.75666e-07
-6.58389e-07
-1.226e-07
-6.17136e-07
-7.5223e-08
-5.47839e-07
-3.65646e-08
-4.44403e-07
-1.01745e-08
-3.01423e-07
-1.1521e-07
-1.07913e-08
1.25491e-07
-3.87533e-08
3.27892e-07
-7.96716e-08
4.82936e-07
-1.2976e-07
5.94793e-07
-1.85795e-07
6.69477e-07
-2.4516e-07
7.13718e-07
-3.05816e-07
7.34089e-07
-3.66231e-07
7.36398e-07
-4.25289e-07
7.25383e-07
-4.82192e-07
7.04663e-07
-5.36378e-07
6.76862e-07
-5.87454e-07
6.43819e-07
-6.35149e-07
6.06795e-07
-6.79275e-07
5.66661e-07
-7.19709e-07
5.24035e-07
-7.5637e-07
4.79373e-07
-7.8921e-07
4.33032e-07
-8.18209e-07
3.85301e-07
-8.43359e-07
3.36424e-07
-8.64669e-07
2.8661e-07
-8.82149e-07
2.36041e-07
-8.95814e-07
1.84874e-07
-9.05679e-07
1.3325e-07
-9.11752e-07
8.12935e-08
-9.14038e-07
2.91192e-08
-9.12534e-07
-2.31643e-08
-9.0723e-07
-7.54501e-08
-8.98109e-07
-1.27629e-07
-8.85149e-07
-1.79583e-07
-8.68324e-07
-2.31184e-07
-8.47606e-07
-2.82288e-07
-8.2297e-07
-3.3273e-07
-7.94399e-07
-3.8232e-07
-7.61886e-07
-4.30837e-07
-7.25443e-07
-4.78025e-07
-6.85109e-07
-5.23577e-07
-6.40958e-07
-5.67117e-07
-5.93112e-07
-6.08162e-07
-5.41759e-07
-6.46066e-07
-4.87177e-07
-6.79924e-07
-4.29772e-07
-7.08431e-07
-3.70125e-07
-7.2971e-07
-3.0906e-07
-7.4109e-07
-2.47728e-07
-7.38915e-07
-1.87696e-07
-7.18421e-07
-1.31043e-07
-6.73788e-07
-8.04264e-08
-5.98456e-07
-3.91015e-08
-4.85728e-07
-1.08815e-08
-3.29643e-07
-1.26092e-07
-1.15663e-08
1.37057e-07
-4.15298e-08
3.57855e-07
-8.53571e-08
5.26763e-07
-1.38969e-07
6.48405e-07
-1.98891e-07
7.29399e-07
-2.62296e-07
7.77124e-07
-3.26984e-07
7.98777e-07
-3.91303e-07
8.00716e-07
-4.54051e-07
7.88131e-07
-5.14374e-07
7.64986e-07
-5.7168e-07
7.34168e-07
-6.25561e-07
6.977e-07
-6.75744e-07
6.56978e-07
-7.22051e-07
6.12968e-07
-7.64373e-07
5.66357e-07
-8.0265e-07
5.1765e-07
-8.36858e-07
4.6724e-07
-8.66999e-07
4.15442e-07
-8.93091e-07
3.62516e-07
-9.15163e-07
3.08682e-07
-9.33248e-07
2.54126e-07
-9.47377e-07
1.99004e-07
-9.57579e-07
1.43452e-07
-9.63873e-07
8.75873e-08
-9.66269e-07
3.15151e-08
-9.64766e-07
-2.46674e-08
-9.59351e-07
-8.08649e-08
-9.50001e-07
-1.36979e-07
-9.36681e-07
-1.92903e-07
-9.1935e-07
-2.48515e-07
-8.97961e-07
-3.03677e-07
-8.72468e-07
-3.58223e-07
-8.42828e-07
-4.1196e-07
-8.09009e-07
-4.64656e-07
-7.70996e-07
-5.16038e-07
-7.28803e-07
-5.6577e-07
-6.82482e-07
-6.13438e-07
-6.32138e-07
-6.58507e-07
-5.77948e-07
-7.00256e-07
-5.20193e-07
-7.37679e-07
-4.59293e-07
-7.69331e-07
-3.95864e-07
-7.93138e-07
-3.30791e-07
-8.06163e-07
-2.65313e-07
-8.04393e-07
-2.01127e-07
-7.82607e-07
-1.40481e-07
-7.34434e-07
-8.62471e-08
-6.5269e-07
-4.19407e-08
-5.30035e-07
-1.16729e-08
-3.59911e-07
-1.37765e-07
-1.2434e-08
1.49491e-07
-4.46377e-08
3.90059e-07
-9.17172e-08
5.73843e-07
-1.49262e-07
7.0595e-07
-2.13507e-07
7.93645e-07
-2.81393e-07
8.45009e-07
-3.50531e-07
8.67915e-07
-4.19134e-07
8.6932e-07
-4.85906e-07
8.54902e-07
-5.49932e-07
8.29013e-07
-6.10585e-07
7.94821e-07
-6.67447e-07
7.54561e-07
-7.20245e-07
7.09777e-07
-7.68818e-07
6.61541e-07
-8.13078e-07
6.10617e-07
-8.52992e-07
5.57564e-07
-8.88566e-07
5.02814e-07
-9.19833e-07
4.46708e-07
-9.4684e-07
3.89523e-07
-9.69644e-07
3.31487e-07
-9.88303e-07
2.72785e-07
-1.00287e-06
2.13571e-07
-1.01339e-06
1.53972e-07
-1.0199e-06
9.40923e-08
-1.0224e-06
3.40223e-08
-1.02091e-06
-2.6157e-08
-1.01541e-06
-8.63671e-08
-1.00586e-06
-1.46526e-07
-9.92225e-07
-2.06542e-07
-9.74433e-07
-2.66308e-07
-9.52419e-07
-3.25691e-07
-9.26109e-07
-3.84533e-07
-8.9543e-07
-4.42638e-07
-8.60318e-07
-4.99768e-07
-8.20726e-07
-5.5563e-07
-7.76634e-07
-6.09862e-07
-7.28063e-07
-6.62008e-07
-6.75095e-07
-7.11475e-07
-6.17892e-07
-7.57459e-07
-5.5673e-07
-7.98841e-07
-4.92044e-07
-8.34018e-07
-4.24486e-07
-8.60696e-07
-3.55005e-07
-8.75644e-07
-2.84944e-07
-8.74455e-07
-2.16143e-07
-8.51408e-07
-1.51046e-07
-7.99531e-07
-9.27684e-08
-7.10967e-07
-4.51234e-08
-5.7768e-07
-1.25602e-08
-3.92474e-07
-1.50325e-07
-1.34077e-08
1.62899e-07
-4.81247e-08
4.24776e-07
-9.88484e-08
6.24566e-07
-1.60789e-07
7.67891e-07
-2.29855e-07
8.6271e-07
-3.02713e-07
9.17866e-07
-3.76765e-07
9.41967e-07
-4.50068e-07
9.42623e-07
-5.2122e-07
9.26054e-07
-5.89241e-07
8.97033e-07
-6.5347e-07
8.5905e-07
-7.13478e-07
8.14569e-07
-7.69003e-07
7.65302e-07
-8.19905e-07
7.12443e-07
-8.66125e-07
6.56837e-07
-9.07668e-07
5.99107e-07
-9.44577e-07
5.39723e-07
-9.76923e-07
4.79054e-07
-1.00479e-06
4.17392e-07
-1.02827e-06
3.54968e-07
-1.04745e-06
2.91967e-07
-1.06242e-06
2.28534e-07
-1.07322e-06
1.64779e-07
-1.07992e-06
1.00792e-07
-1.08254e-06
3.664e-08
-1.08108e-06
-2.76174e-08
-1.07552e-06
-9.19251e-08
-1.06583e-06
-1.56224e-07
-1.05193e-06
-2.20443e-07
-1.03374e-06
-2.84493e-07
-1.01117e-06
-3.48259e-07
-9.84115e-07
-4.11589e-07
-9.5246e-07
-4.74293e-07
-9.16102e-07
-5.36126e-07
-8.74953e-07
-5.9678e-07
-8.28949e-07
-6.55865e-07
-7.78076e-07
-7.12882e-07
-7.22378e-07
-7.67172e-07
-6.61996e-07
-8.17842e-07
-5.97195e-07
-8.63642e-07
-5.28419e-07
-9.02793e-07
-4.56359e-07
-9.32757e-07
-3.82035e-07
-9.49969e-07
-3.06903e-07
-9.49587e-07
-2.32969e-07
-9.25341e-07
-1.62899e-07
-8.69601e-07
-1.00092e-07
-7.73774e-07
-4.86998e-08
-6.29072e-07
-1.35571e-08
-4.27617e-07
-1.63882e-07
-1.45038e-08
1.77403e-07
-5.20494e-08
4.62322e-07
-1.06869e-07
6.79386e-07
-1.7374e-07
8.34761e-07
-2.4819e-07
9.37161e-07
-3.26575e-07
9.96252e-07
-4.06057e-07
1.02145e-06
-4.84515e-07
1.02108e-06
-5.60428e-07
1.00197e-06
-6.32746e-07
9.69351e-07
-7.00774e-07
9.27078e-07
-7.64079e-07
8.77874e-07
-8.22417e-07
8.23641e-07
-8.75679e-07
7.65704e-07
-9.23847e-07
7.05006e-07
-9.66972e-07
6.42232e-07
-1.00515e-06
5.77898e-07
-1.03849e-06
5.12397e-07
-1.06713e-06
4.46033e-07
-1.0912e-06
3.79041e-07
-1.11083e-06
3.11596e-07
-1.12613e-06
2.43828e-07
-1.13718e-06