/*--------------------------------*- C++ -*----------------------------------*\
  =========                 |
  \\      /  F ield         | OpenFOAM: The Open Source CFD Toolbox
   \\    /   O peration     | Website:  https://openfoam.org
    \\  /    A nd           | Version:  7
     \\/     M anipulation  |
\*---------------------------------------------------------------------------*/
FoamFile
{
    version     2.0;
    format      ascii;
    class       volVectorField;
    location    "0.0354";
    object      U;
}
// * * * * * * * * * * * * * * * * * * * * * * * * * * * * * * * * * * * * * //

dimensions      [0 1 -1 0 0 0 0];

internalField   nonuniform List<vector> 
2500
(
(0.290253 -0.152415 0)
(0.389542 -0.128237 0)
(0.56543 -0.0747334 0)
(0.683248 -0.042228 0)
(0.75282 -0.0245219 0)
(0.797801 -0.0148769 0)
(0.828926 -0.00956601 0)
(0.851348 -0.00654007 0)
(0.868099 -0.00471419 0)
(0.881002 -0.00353831 0)
(0.891169 -0.00273407 0)
(0.89931 -0.0021559 0)
(0.905905 -0.00172382 0)
(0.911292 -0.00139127 0)
(0.915714 -0.00112952 0)
(0.919357 -0.000919821 0)
(0.92236 -0.000749298 0)
(0.924831 -0.000608766 0)
(0.926855 -0.000491414 0)
(0.9285 -0.000392036 0)
(0.929817 -0.000306527 0)
(0.930848 -0.00023156 0)
(0.931622 -0.000164347 0)
(0.932162 -0.000102484 0)
(0.932483 -4.38113e-05 0)
(0.932594 1.36687e-05 0)
(0.932495 7.18047e-05 0)
(0.932182 0.000132636 0)
(0.931642 0.000198213 0)
(0.930857 0.000270792 0)
(0.9298 0.000352967 0)
(0.928435 0.000447834 0)
(0.926714 0.000559211 0)
(0.924575 0.000691965 0)
(0.921941 0.000852499 0)
(0.91871 0.0010495 0)
(0.914749 0.00129517 0)
(0.909884 0.00160727 0)
(0.903878 0.00201288 0)
(0.896404 0.00255542 0)
(0.886997 0.00330892 0)
(0.874959 0.00440769 0)
(0.859203 0.00611038 0)
(0.837926 0.00893775 0)
(0.808074 0.0139498 0)
(0.764374 0.0232385 0)
(0.695894 0.0407664 0)
(0.577943 0.0737453 0)
(0.398055 0.128746 0)
(0.293872 0.153788 0)
(0.0010884 -0.294899 0)
(0.0168619 -0.29862 0)
(0.152314 -0.213007 0)
(0.282809 -0.14529 0)
(0.387906 -0.0995788 0)
(0.471023 -0.069728 0)
(0.536315 -0.0503555 0)
(0.587639 -0.0375394 0)
(0.62834 -0.0287682 0)
(0.660983 -0.0225397 0)
(0.687439 -0.0179632 0)
(0.709068 -0.0145 0)
(0.726875 -0.0118142 0)
(0.741611 -0.00968891 0)
(0.753849 -0.00797893 0)
(0.764029 -0.00658352 0)
(0.772497 -0.00543045 0)
(0.779524 -0.00446634 0)
(0.785328 -0.0036506 0)
(0.790081 -0.00295149 0)
(0.79392 -0.00234355 0)
(0.796952 -0.00180577 0)
(0.799259 -0.00132034 0)
(0.800901 -0.000871681 0)
(0.801919 -0.000445706 0)
(0.802335 -2.92394e-05 0)
(0.802154 0.000390455 0)
(0.801363 0.000826403 0)
(0.799932 0.00129224 0)
(0.797811 0.00180288 0)
(0.794929 0.00237529 0)
(0.79119 0.00302945 0)
(0.786471 0.00378969 0)
(0.780612 0.00468647 0)
(0.773409 0.00575913 0)
(0.764602 0.0070598 0)
(0.753857 0.00865956 0)
(0.740742 0.0106581 0)
(0.724686 0.0131998 0)
(0.70493 0.0165009 0)
(0.680445 0.020897 0)
(0.64981 0.0269301 0)
(0.611047 0.0355053 0)
(0.56138 0.0481746 0)
(0.497074 0.0675975 0)
(0.413665 0.0980773 0)
(0.306248 0.145726 0)
(0.170491 0.217271 0)
(0.0268967 0.307188 0)
(0.00518712 0.303014 0)
(-0.0329163 -0.2504 0)
(-0.061594 -0.344038 0)
(-0.0115329 -0.31054 0)
(0.0706982 -0.251412 0)
(0.158683 -0.195813 0)
(0.241035 -0.151169 0)
(0.313398 -0.117399 0)
(0.375087 -0.0922415 0)
(0.427006 -0.0734023 0)
(0.470515 -0.0591032 0)
(0.506959 -0.0480708 0)
(0.537523 -0.0394159 0)
(0.563195 -0.03252 0)
(0.584789 -0.0269482 0)
(0.602963 -0.0223899 0)
(0.618254 -0.0186189 0)
(0.631097 -0.0154662 0)
(0.641848 -0.0128034 0)
(0.650797 -0.0105302 0)
(0.658177 -0.00856651 0)
(0.664178 -0.00684701 0)
(0.668951 -0.00531695 0)
(0.672611 -0.00392925 0)
(0.675245 -0.00264226 0)
(0.67691 -0.00141801 0)
(0.67764 -0.000220723 0)
(0.677439 0.000984567 0)
(0.67629 0.00223323 0)
(0.674149 0.00356247 0)
(0.670943 0.00501286 0)
(0.666569 0.00663016 0)
(0.66089 0.00846776 0)
(0.653729 0.0105898 0)
(0.644861 0.0130757 0)
(0.634003 0.0160258 0)
(0.620803 0.0195705 0)
(0.604816 0.0238831 0)
(0.585488 0.0291984 0)
(0.562117 0.0358422 0)
(0.533821 0.044275 0)
(0.499496 0.0551592 0)
(0.457774 0.069459 0)
(0.407034 0.0885777 0)
(0.345518 0.114513 0)
(0.271791 0.149913 0)
(0.185977 0.197538 0)
(0.0921016 0.257927 0)
(0.00177418 0.323224 0)
(-0.0569512 0.361507 0)
(-0.0321712 0.263989 0)
(-0.0267707 -0.190628 0)
(-0.065447 -0.332963 0)
(-0.0646379 -0.351358 0)
(-0.0277091 -0.318982 0)
(0.0292374 -0.271596 0)
(0.0931232 -0.224931 0)
(0.156257 -0.18447 0)
(0.214847 -0.151128 0)
(0.267386 -0.124176 0)
(0.313589 -0.102487 0)
(0.353765 -0.0849805 0)
(0.388464 -0.0707564 0)
(0.418307 -0.0591064 0)
(0.443893 -0.0494846 0)
(0.465771 -0.0414715 0)
(0.484423 -0.0347437 0)
(0.500268 -0.0290487 0)
(0.513659 -0.0241869 0)
(0.5249 -0.0199975 0)
(0.534239 -0.0163489 0)
(0.541885 -0.013131 0)
(0.548004 -0.0102499 0)
(0.552727 -0.00762351 0)
(0.556151 -0.005178 0)
(0.558342 -0.00284547 0)
(0.559336 -0.000561331 0)
(0.55914 0.0017378 0)
(0.557729 0.00411622 0)
(0.555051 0.0066414 0)
(0.551019 0.00938649 0)
(0.545512 0.0124334 0)
(0.53837 0.0158764 0)
(0.529388 0.0198273 0)
(0.518315 0.0244217 0)
(0.504839 0.0298274 0)
(0.488581 0.0362568 0)
(0.469085 0.0439826 0)
(0.445807 0.0533605 0)
(0.418106 0.0648586 0)
(0.385245 0.0790973 0)
(0.346415 0.0968956 0)
(0.300807 0.119315 0)
(0.24779 0.147666 0)
(0.187271 0.183382 0)
(0.120406 0.227536 0)
(0.050863 0.279448 0)
(-0.0133204 0.333379 0)
(-0.0579307 0.372028 0)
(-0.0647148 0.355837 0)
(-0.027291 0.20479 0)
(-0.0178522 -0.149167 0)
(-0.0531557 -0.302824 0)
(-0.0737915 -0.354609 0)
(-0.0669449 -0.349793 0)
(-0.0380251 -0.318935 0)
(0.00375878 -0.279413 0)
(0.0512025 -0.239817 0)
(0.0995535 -0.203772 0)
(0.145979 -0.172393 0)
(0.188989 -0.145651 0)
(0.22794 -0.123072 0)
(0.262689 -0.104059 0)
(0.293365 -0.088032 0)
(0.320236 -0.0744828 0)
(0.343622 -0.0629801 0)
(0.363858 -0.0531663 0)
(0.381264 -0.0447454 0)
(0.396134 -0.037472 0)
(0.408729 -0.0311406 0)
(0.419276 -0.0255771 0)
(0.42797 -0.0206321 0)
(0.434969 -0.0161746 0)
(0.4404 -0.0120879 0)
(0.444358 -0.00826553 0)
(0.446909 -0.00460792 0)
(0.448085 -0.00101961 0)
(0.44789 0.00259365 0)
(0.446297 0.00632761 0)
(0.443249 0.0102825 0)
(0.438652 0.0145663 0)
(0.432381 0.0192985 0)
(0.424272 0.024615 0)
(0.41412 0.0306735 0)
(0.401678 0.037661 0)
(0.386651 0.0458032 0)
(0.368697 0.0553754 0)
(0.347425 0.0667176 0)
(0.322406 0.0802508 0)
(0.293186 0.0964946 0)
(0.259332 0.116081 0)
(0.220508 0.139754 0)
(0.176617 0.16832 0)
(0.12806 0.202504 0)
(0.0761365 0.242579 0)
(0.0236462 0.287571 0)
(-0.0243355 0.333655 0)
(-0.0597879 0.371285 0)
(-0.07214 0.380866 0)
(-0.0543904 0.327992 0)
(-0.0186526 0.162431 0)
(-0.0114364 -0.120876 0)
(-0.0403423 -0.269732 0)
(-0.0680818 -0.339686 0)
(-0.0782494 -0.356597 0)
(-0.069723 -0.343039 0)
(-0.0472892 -0.314522 0)
(-0.0161239 -0.280445 0)
(0.0195151 -0.245961 0)
(0.0565238 -0.213605 0)
(0.0928493 -0.184416 0)
(0.127248 -0.158641 0)
(0.159041 -0.136144 0)
(0.187922 -0.11662 0)
(0.213819 -0.0997139 0)
(0.236802 -0.0850719 0)
(0.257014 -0.0723679 0)
(0.274639 -0.0613098 0)
(0.289871 -0.0516397 0)
(0.3029 -0.0431308 0)
(0.313902 -0.0355829 0)
(0.323033 -0.028818 0)
(0.330426 -0.022676 0)
(0.33619 -0.0170103 0)
(0.340407 -0.0116849 0)
(0.34313 -0.00657066 0)
(0.344388 -0.00154237 0)
(0.34418 0.00352429 0)
(0.342475 0.00875585 0)
(0.339216 0.0142842 0)
(0.334314 0.0202505 0)
(0.327647 0.0268088 0)
(0.319066 0.0341312 0)
(0.308386 0.0424132 0)
(0.295394 0.0518803 0)
(0.279847 0.0627953 0)
(0.261482 0.0754661 0)
(0.240028 0.0902535 0)
(0.215226 0.107576 0)
(0.186872 0.127906 0)
(0.154882 0.151751 0)
(0.119398 0.179596 0)
(0.0809479 0.211779 0)
(0.0406859 0.248232 0)
(0.000701774 0.288002 0)
(-0.0356437 0.328411 0)
(-0.0635119 0.363704 0)
(-0.0768026 0.383111 0)
(-0.0696211 0.368794 0)
(-0.0423769 0.295023 0)
(-0.0121943 0.132901 0)
(-0.00748572 -0.100828 0)
(-0.0305403 -0.239319 0)
(-0.0589341 -0.317383 0)
(-0.0775521 -0.349198 0)
(-0.0822932 -0.350327 0)
(-0.0746657 -0.333266 0)
(-0.0576791 -0.306781 0)
(-0.0344835 -0.276494 0)
(-0.0078007 -0.245748 0)
(0.0202795 -0.216369 0)
(0.0482764 -0.189244 0)
(0.0752073 -0.164709 0)
(0.100465 -0.142787 0)
(0.123709 -0.123341 0)
(0.144784 -0.106156 0)
(0.163652 -0.0909873 0)
(0.180353 -0.0775884 0)
(0.194969 -0.065721 0)
(0.207604 -0.0551614 0)
(0.218367 -0.045702 0)
(0.227364 -0.0371504 0)
(0.23469 -0.0293274 0)
(0.240425 -0.0220649 0)
(0.24463 -0.0152031 0)
(0.247343 -0.00858803 0)
(0.248583 -0.00206857 0)
(0.248343 0.00450618 0)
(0.246593 0.0112899 0)
(0.243277 0.0184423 0)
(0.238317 0.0261324 0)
(0.231609 0.0345422 0)
(0.223025 0.0438708 0)
(0.212421 0.0543386 0)
(0.199636 0.0661913 0)
(0.184501 0.0797038 0)
(0.166858 0.095182 0)
(0.146574 0.11296 0)
(0.123582 0.133392 0)
(0.0979248 0.156825 0)
(0.0698336 0.183549 0)
(0.0398298 0.213697 0)
(0.00886377 0.24707 0)
(-0.0215174 0.282844 0)
(-0.0490047 0.319086 0)
(-0.0704548 0.352058 0)
(-0.0820782 0.375273 0)
(-0.0800883 0.378488 0)
(-0.0623085 0.347149 0)
(-0.0328422 0.263422 0)
(-0.00814058 0.111508 0)
(-0.00515265 -0.0861037 0)
(-0.0236576 -0.212855 0)
(-0.0502373 -0.292926 0)
(-0.0724075 -0.333926 0)
(-0.0851771 -0.346232 0)
(-0.0880674 -0.339354 0)
(-0.0823658 -0.320792 0)
(-0.0700538 -0.295943 0)
(-0.0531964 -0.268425 0)
(-0.0336058 -0.240521 0)
(-0.0127255 -0.21358 0)
(0.00836743 -0.188333 0)
(0.0289111 -0.165117 0)
(0.0483947 -0.144025 0)
(0.066497 -0.125007 0)
(0.0830344 -0.10793 0)
(0.0979195 -0.0926197 0)
(0.111129 -0.0788839 0)
(0.122681 -0.0665226 0)
(0.132615 -0.0553381 0)
(0.140983 -0.0451374 0)
(0.147835 -0.035734 0)
(0.153218 -0.026947 0)
(0.157168 -0.0186006 0)
(0.159706 -0.0105224 0)
(0.160839 -0.00254119 0)
(0.160554 0.00551505 0)
(0.158822 0.0138216 0)
(0.155596 0.0225596 0)
(0.15081 0.0319187 0)
(0.144384 0.0420997 0)
(0.136225 0.0533171 0)
(0.126235 0.065801 0)
(0.114315 0.0797984 0)
(0.100383 0.0955712 0)
(0.0843874 0.113392 0)
(0.0663365 0.133529 0)
(0.0463345 0.156228 0)
(0.0246328 0.181664 0)
(0.00169701 0.209866 0)
(-0.0217099 0.240605 0)
(-0.0444347 0.273196 0)
(-0.06485 0.306218 0)
(-0.0808232 0.33712 0)
(-0.0898275 0.361717 0)
(-0.089325 0.373655 0)
(-0.0775039 0.364066 0)
(-0.0545881 0.321815 0)
(-0.0260052 0.23505 0)
(-0.0057176 0.0954458 0)
(-0.0037571 -0.0748273 0)
(-0.0189005 -0.190095 0)
(-0.0430092 -0.268697 0)
(-0.0661725 -0.31467 0)
(-0.0835164 -0.334835 0)
(-0.0935394 -0.336215 0)
(-0.0963567 -0.324917 0)
(-0.092972 -0.305751 0)
(-0.0847633 -0.282252 0)
(-0.0731315 -0.256873 0)
(-0.0593201 -0.231236 0)
(-0.0443504 -0.206353 0)
(-0.0290149 -0.182816 0)
(-0.0139021 -0.160925 0)
(0.000569519 -0.140792 0)
(0.0141151 -0.122405 0)
(0.0265511 -0.105678 0)
(0.0377679 -0.0904778 0)
(0.047708 -0.0766431 0)
(0.0563482 -0.0639999 0)
(0.0636864 -0.0523668 0)
(0.0697315 -0.04156 0)
(0.0744958 -0.0313953 0)
(0.0779894 -0.0216888 0)
(0.0802159 -0.0122569 0)
(0.08117 -0.00291489 0)
(0.080836 0.00652354 0)
(0.0791864 0.0162484 0)
(0.0761835 0.0264548 0)
(0.07178 0.0373445 0)
(0.0659224 0.0491269 0)
(0.0585562 0.0620198 0)
(0.0496325 0.0762487 0)
(0.0391188 0.0920436 0)
(0.027014 0.109633 0)
(0.0133677 0.129231 0)
(-0.00169191 0.151018 0)
(-0.0179235 0.175105 0)
(-0.0349288 0.201479 0)
(-0.0521011 0.229919 0)
(-0.0685716 0.259872 0)
(-0.0831656 0.290277 0)
(-0.094391 0.31933 0)
(-0.100502 0.344197 0)
(-0.0997063 0.360705 0)
(-0.0905926 0.36312 0)
(-0.0727755 0.344192 0)
(-0.0478035 0.295722 0)
(-0.0211916 0.210026 0)
(-0.00425141 0.0828884 0)
(-0.00289114 -0.0658228 0)
(-0.01558 -0.170407 0)
(-0.0372898 -0.24565 0)
(-0.0602145 -0.293667 0)
(-0.0799906 -0.318942 0)
(-0.0946978 -0.32659 0)
(-0.103738 -0.321441 0)
(-0.107392 -0.307601 0)
(-0.106442 -0.288312 0)
(-0.10186 -0.265995 0)
(-0.0946199 -0.24238 0)
(-0.0855973 -0.218649 0)
(-0.0755296 -0.195571 0)
(-0.0650074 -0.173611 0)
(-0.0544865 -0.153023 0)
(-0.0443068 -0.133909 0)
(-0.0347139 -0.11627 0)
(-0.0258796 -0.100038 0)
(-0.0179198 -0.0850996 0)
(-0.0109101 -0.0713133 0)
(-0.00489753 -0.0585179 0)
(8.87936e-05 -0.0465409 0)
(0.0040306 -0.0352026 0)
(0.00691443 -0.0243188 0)
(0.00872742 -0.0137014 0)
(0.00945451 -0.00315989 0)
(0.00907681 0.00749981 0)
(0.00757118 0.018475 0)
(0.00491107 0.0299669 0)
(0.00106869 0.0421804 0)
(-0.00398116 0.0553241 0)
(-0.0102553 0.0696078 0)
(-0.0177541 0.0852395 0)
(-0.0264499 0.102419 0)
(-0.0362724 0.121325 0)
(-0.047089 0.142102 0)
(-0.0586809 0.164828 0)
(-0.070714 0.189477 0)
(-0.0827066 0.215859 0)
(-0.0939978 0.243536 0)
(-0.103723 0.271708 0)
(-0.110811 0.299069 0)
(-0.114024 0.323627 0)
(-0.112074 0.342523 0)
(-0.103859 0.351885 0)
(-0.0888477 0.346799 0)
(-0.0675737 0.321546 0)
(-0.0421894 0.27023 0)
(-0.017757 0.187937 0)
(-0.00332708 0.0726775 0)
(-0.00232971 -0.0583638 0)
(-0.0132182 -0.153157 0)
(-0.0328417 -0.224049 0)
(-0.0550018 -0.272133 0)
(-0.0759363 -0.300382 0)
(-0.0936418 -0.312508 0)
(-0.107132 -0.312275 0)
(-0.1162 -0.303093 0)
(-0.121157 -0.28782 0)
(-0.122594 -0.268722 0)
(-0.121204 -0.247517 0)
(-0.117679 -0.225456 0)
(-0.112649 -0.203413 0)
(-0.106656 -0.181972 0)
(-0.100145 -0.161493 0)
(-0.0934721 -0.142177 0)
(-0.086913 -0.124104 0)
(-0.0806768 -0.10727 0)
(-0.0749192 -0.0916106 0)
(-0.0697537 -0.0770201 0)
(-0.0652627 -0.0633636 0)
(-0.0615054 -0.0504862 0)
(-0.0585256 -0.0382192 0)
(-0.056356 -0.0263841 0)
(-0.0550231 -0.0147955 0)
(-0.0545496 -0.00326302 0)
(-0.0549555 0.008408 0)
(-0.0562588 0.0204152 0)
(-0.0584738 0.0329583 0)
(-0.061609 0.0462377 0)
(-0.0656627 0.060452 0)
(-0.0706171 0.0757942 0)
(-0.0764297 0.0924452 0)
(-0.0830227 0.110565 0)
(-0.0902693 0.130276 0)
(-0.0979769 0.151645 0)
(-0.105868 0.174652 0)
(-0.11356 0.199143 0)
(-0.120545 0.224781 0)
(-0.126177 0.250959 0)
(-0.129672 0.276717 0)
(-0.130132 0.300619 0)
(-0.126622 0.320645 0)
(-0.118295 0.334088 0)
(-0.104621 0.337515 0)
(-0.0856977 0.32686 0)
(-0.0625894 0.297715 0)
(-0.0376256 0.245894 0)
(-0.0152437 0.168288 0)
(-0.00271386 0.0640992 0)
(-0.00194986 -0.0519917 0)
(-0.0115026 -0.13781 0)
(-0.0293937 -0.203861 0)
(-0.0506193 -0.250694 0)
(-0.0719811 -0.280309 0)
(-0.0915586 -0.295412 0)
(-0.108188 -0.298917 0)
(-0.121351 -0.293609 0)
(-0.131019 -0.281945 0)
(-0.137467 -0.26597 0)
(-0.141134 -0.247312 0)
(-0.14252 -0.227216 0)
(-0.142127 -0.206602 0)
(-0.140414 -0.18612 0)
(-0.137787 -0.166209 0)
(-0.134585 -0.147142 0)
(-0.131088 -0.129065 0)
(-0.127522 -0.112031 0)
(-0.124062 -0.0960218 0)
(-0.120847 -0.0809687 0)
(-0.117982 -0.0667649 0)
(-0.11555 -0.0532767 0)
(-0.113611 -0.0403509 0)
(-0.112214 -0.0278201 0)
(-0.111395 -0.0155067 0)
(-0.111181 -0.00322645 0)
(-0.111592 0.00920998 0)
(-0.11264 0.0219942 0)
(-0.114327 0.0353181 0)
(-0.116644 0.0493706 0)
(-0.119565 0.0643336 0)
(-0.123043 0.0803765 0)
(-0.127001 0.0976474 0)
(-0.131323 0.116261 0)
(-0.135844 0.136284 0)
(-0.140334 0.157707 0)
(-0.144488 0.18042 0)
(-0.147913 0.204166 0)
(-0.15012 0.228492 0)
(-0.150526 0.252682 0)
(-0.148472 0.275689 0)
(-0.143267 0.296049 0)
(-0.13427 0.311824 0)
(-0.12102 0.320555 0)
(-0.103424 0.3193 0)
(-0.0819962 0.304767 0)
(-0.0580669 0.27361 0)
(-0.0339151 0.222882 0)
(-0.0133513 0.150636 0)
(-0.0022858 0.056705 0)
(-0.00168312 -0.0464062 0)
(-0.0102312 -0.123946 0)
(-0.0267124 -0.184938 0)
(-0.047004 -0.229645 0)
(-0.0683896 -0.259438 0)
(-0.089101 -0.276306 0)
(-0.107921 -0.282503 0)
(-0.124151 -0.280284 0)
(-0.137525 -0.271724 0)
(-0.148073 -0.258625 0)
(-0.156019 -0.242478 0)
(-0.161686 -0.224473 0)
(-0.165441 -0.205527 0)
(-0.167651 -0.186317 0)
(-0.168657 -0.167326 0)
(-0.168765 -0.148878 0)
(-0.168239 -0.131169 0)
(-0.167301 -0.114297 0)
(-0.166133 -0.0982856 0)
(-0.164884 -0.0830995 0)
(-0.163674 -0.0686602 0)
(-0.162596 -0.0548568 0)
(-0.161726 -0.0415542 0)
(-0.161119 -0.0285996 0)
(-0.160819 -0.0158278 0)
(-0.160854 -0.00306497 0)
(-0.161242 0.00986772 0)
(-0.161989 0.0231508 0)
(-0.163086 0.036963 0)
(-0.164508 0.0514766 0)
(-0.166209 0.0668524 0)
(-0.168121 0.083232 0)
(-0.17014 0.100728 0)
(-0.172126 0.119411 0)
(-0.173892 0.139291 0)
(-0.175192 0.160296 0)
(-0.175722 0.182239 0)
(-0.175106 0.204786 0)
(-0.172907 0.227407 0)
(-0.168635 0.249328 0)
(-0.161775 0.269477 0)
(-0.151843 0.286438 0)
(-0.138464 0.298419 0)
(-0.121488 0.303259 0)
(-0.10114 0.29849 0)
(-0.0781868 0.281491 0)
(-0.0540581 0.249745 0)
(-0.0308749 0.201187 0)
(-0.0118872 0.134619 0)
(-0.00197321 0.0502019 0)
(-0.00149 -0.0414037 0)
(-0.00927231 -0.11124 0)
(-0.0246149 -0.167102 0)
(-0.0440468 -0.209104 0)
(-0.065246 -0.238203 0)
(-0.0866143 -0.255878 0)
(-0.10695 -0.263878 0)
(-0.125461 -0.26402 0)
(-0.141722 -0.258037 0)
(-0.155584 -0.247489 0)
(-0.167095 -0.23371 0)
(-0.176425 -0.217802 0)
(-0.183814 -0.200644 0)
(-0.189531 -0.18291 0)
(-0.193849 -0.165099 0)
(-0.197025 -0.147562 0)
(-0.199293 -0.130531 0)
(-0.200858 -0.114138 0)
(-0.201899 -0.0984391 0)
(-0.202562 -0.0834279 0)
(-0.202972 -0.0690525 0)
(-0.203227 -0.0552244 0)
(-0.203409 -0.0418278 0)
(-0.203577 -0.028727 0)
(-0.203777 -0.0157718 0)
(-0.204038 -0.00280243 0)
(-0.204374 0.0103458 0)
(-0.204784 0.0238385 0)
(-0.205249 0.0378374 0)
(-0.205732 0.0524949 0)
(-0.206174 0.0679479 0)
(-0.206488 0.0843088 0)
(-0.206557 0.101655 0)
(-0.206228 0.120016 0)
(-0.205304 0.139354 0)
(-0.203548 0.159543 0)
(-0.200669 0.180341 0)
(-0.196337 0.20136 0)
(-0.190182 0.222031 0)
(-0.181821 0.241563 0)
(-0.170888 0.258911 0)
(-0.157089 0.272753 0)
(-0.140273 0.281482 0)
(-0.12053 0.283239 0)
(-0.0983012 0.27599 0)
(-0.0744947 0.257669 0)
(-0.050539 0.226395 0)
(-0.0283586 0.180728 0)
(-0.0107273 0.119953 0)
(-0.00173635 0.0443903 0)
(-0.00134673 -0.0368417 0)
(-0.00853816 -0.0994462 0)
(-0.0229631 -0.150183 0)
(-0.0416358 -0.189093 0)
(-0.0625502 -0.216861 0)
(-0.084271 -0.234597 0)
(-0.105646 -0.243663 0)
(-0.125844 -0.245522 0)
(-0.14434 -0.241611 0)
(-0.160856 -0.233261 0)
(-0.175302 -0.221645 0)
(-0.187721 -0.207762 0)
(-0.198238 -0.192427 0)
(-0.207033 -0.176287 0)
(-0.214306 -0.159837 0)
(-0.220259 -0.143437 0)
(-0.225091 -0.127337 0)
(-0.22898 -0.111693 0)
(-0.232089 -0.0965831 0)
(-0.234557 -0.0820273 0)
(-0.236505 -0.0679954 0)
(-0.238031 -0.05442 0)
(-0.239214 -0.0412047 0)
(-0.240116 -0.0282315 0)
(-0.240781 -0.015367 0)
(-0.241236 -0.00246797 0)
(-0.241491 0.0106139 0)
(-0.241539 0.0240265 0)
(-0.241352 0.0379125 0)
(-0.240885 0.0524028 0)
(-0.240068 0.0676094 0)
(-0.238805 0.0836166 0)
(-0.236972 0.10047 0)
(-0.234415 0.118161 0)
(-0.230942 0.136615 0)
(-0.226333 0.155665 0)
(-0.220331 0.175034 0)
(-0.21266 0.194306 0)
(-0.20303 0.2129 0)
(-0.191167 0.230043 0)
(-0.176844 0.244754 0)
(-0.159933 0.255832 0)
(-0.140464 0.261868 0)
(-0.118705 0.26129 0)
(-0.095236 0.252443 0)
(-0.0710303 0.233712 0)
(-0.0474623 0.203697 0)
(-0.0262558 0.161399 0)
(-0.00979051 0.106413 0)
(-0.0015516 0.0391288 0)
(-0.00123841 -0.0326177 0)
(-0.00796913 -0.0883726 0)
(-0.0216539 -0.134029 0)
(-0.0396718 -0.169591 0)
(-0.0602667 -0.195559 0)
(-0.0821486 -0.212776 0)
(-0.104229 -0.222309 0)
(-0.12567 -0.225332 0)
(-0.145887 -0.223033 0)
(-0.164511 -0.216533 0)
(-0.18135 -0.206852 0)
(-0.196341 -0.194872 0)
(-0.209516 -0.181336 0)
(-0.220968 -0.166847 0)
(-0.230829 -0.151876 0)
(-0.239249 -0.13678 0)
(-0.246383 -0.121813 0)
(-0.25238 -0.107142 0)
(-0.257381 -0.0928629 0)
(-0.261512 -0.0790126 0)
(-0.264883 -0.0655799 0)
(-0.267586 -0.0525161 0)
(-0.269697 -0.0397428 0)
(-0.271274 -0.0271601 0)
(-0.272358 -0.0146519 0)
(-0.272971 -0.00209252 0)
(-0.27312 0.0106483 0)
(-0.272791 0.0236998 0)
(-0.271952 0.0371844 0)
(-0.27055 0.0512113 0)
(-0.268509 0.0658687 0)
(-0.265732 0.0812147 0)
(-0.262094 0.0972668 0)
(-0.257446 0.113989 0)
(-0.251615 0.131276 0)
(-0.244405 0.148936 0)
(-0.235603 0.166673 0)
(-0.224993 0.184065 0)
(-0.212368 0.200545 0)
(-0.197556 0.215384 0)
(-0.180455 0.227683 0)
(-0.161076 0.236378 0)
(-0.139592 0.240257 0)
(-0.116394 0.23801 0)
(-0.0921491 0.228302 0)
(-0.0678456 0.209879 0)
(-0.0447788 0.181702 0)
(-0.0244855 0.143085 0)
(-0.00902281 0.0938192 0)
(-0.00140438 0.0343133 0)
(-0.00115533 -0.0286564 0)
(-0.00752394 -0.0778723 0)
(-0.0206112 -0.118508 0)
(-0.0380725 -0.150552 0)
(-0.0583487 -0.174376 0)
(-0.0802742 -0.190627 0)
(-0.102827 -0.200143 0)
(-0.125179 -0.203869 0)
(-0.146714 -0.202774 0)
(-0.167003 -0.197802 0)
(-0.185776 -0.18982 0)
(-0.202887 -0.179601 0)
(-0.218289 -0.167804 0)
(-0.232002 -0.154977 0)
(-0.244095 -0.141559 0)
(-0.254667 -0.127886 0)
(-0.263829 -0.114209 0)
(-0.2717 -0.100696 0)
(-0.278395 -0.0874525 0)
(-0.284022 -0.074527 0)
(-0.288679 -0.0619227 0)
(-0.292447 -0.0496067 0)
(-0.295396 -0.0375173 0)
(-0.297577 -0.0255712 0)
(-0.299027 -0.01367 0)
(-0.299763 -0.00170567 0)
(-0.299786 0.0104338 0)
(-0.299079 0.0228587 0)
(-0.297605 0.0356716 0)
(-0.295307 0.0489606 0)
(-0.292108 0.0627923 0)
(-0.287912 0.0772023 0)
(-0.2826 0.0921857 0)
(-0.276038 0.107685 0)
(-0.268072 0.123577 0)
(-0.25854 0.139657 0)
(-0.247277 0.155627 0)
(-0.234126 0.171075 0)
(-0.218961 0.185467 0)
(-0.201704 0.198136 0)
(-0.18236 0.208279 0)
(-0.161052 0.214971 0)
(-0.13806 0.217185 0)
(-0.113861 0.213845 0)
(-0.0891714 0.203881 0)
(-0.0649635 0.186327 0)
(-0.0424457 0.160414 0)
(-0.0229888 0.125675 0)
(-0.00838767 0.0820254 0)
(-0.00128533 0.029864 0)
(-0.00109099 -0.0249008 0)
(-0.00717352 -0.06783 0)
(-0.0197784 -0.103509 0)
(-0.0367721 -0.131922 0)
(-0.0567497 -0.153349 0)
(-0.0786495 -0.168291 0)
(-0.101511 -0.177405 0)
(-0.124528 -0.181448 0)
(-0.147068 -0.181211 0)
(-0.168663 -0.177475 0)
(-0.188984 -0.170971 0)
(-0.207825 -0.162363 0)
(-0.22507 -0.152225 0)
(-0.24068 -0.141043 0)
(-0.254668 -0.129214 0)
(-0.267084 -0.117049 0)
(-0.278002 -0.104782 0)
(-0.287506 -0.0925774 0)
(-0.295687 -0.0805417 0)
(-0.302634 -0.06873 0)
(-0.308426 -0.0571562 0)
(-0.313137 -0.0457997 0)
(-0.316824 -0.0346134 0)
(-0.319534 -0.0235297 0)
(-0.321294 -0.0124666 0)
(-0.322119 -0.00133327 0)
(-0.322005 0.00996438 0)
(-0.320929 0.0215182 0)
(-0.318852 0.033412 0)
(-0.315717 0.0457149 0)
(-0.311449 0.0584745 0)
(-0.305955 0.0717083 0)
(-0.299128 0.0853947 0)
(-0.290849 0.0994627 0)
(-0.280992 0.113781 0)
(-0.269429 0.128144 0)
(-0.256041 0.142263 0)
(-0.240733 0.155753 0)
(-0.223449 0.168126 0)
(-0.204194 0.178786 0)
(-0.183064 0.187033 0)
(-0.160268 0.192078 0)
(-0.136167 0.193066 0)
(-0.111296 0.189118 0)
(-0.0863899 0.179391 0)
(-0.0623936 0.16314 0)
(-0.0404289 0.139801 0)
(-0.0217235 0.10906 0)
(-0.00785999 0.0709091 0)
(-0.00118826 0.0257179 0)
(-0.00104092 -0.0213072 0)
(-0.0068972 -0.0581537 0)
(-0.019114 -0.0889392 0)
(-0.035719 -0.113647 0)
(-0.0554284 -0.132492 0)
(-0.0772652 -0.145859 0)
(-0.100324 -0.154266 0)
(-0.123822 -0.158314 0)
(-0.147123 -0.158642 0)
(-0.169733 -0.155888 0)
(-0.191283 -0.150661 0)
(-0.211517 -0.143518 0)
(-0.230268 -0.134951 0)
(-0.247446 -0.125381 0)
(-0.263016 -0.115157 0)
(-0.276987 -0.104555 0)
(-0.289394 -0.0937887 0)
(-0.300294 -0.0830119 0)
(-0.309752 -0.0723263 0)
(-0.317836 -0.0617892 0)
(-0.32461 -0.0514205 0)
(-0.330135 -0.0412096 0)
(-0.334459 -0.0311213 0)
(-0.337618 -0.021102 0)
(-0.339636 -0.011085 0)
(-0.34052 -0.000995728 0)
(-0.340262 0.00924311 0)
(-0.338838 0.0197062 0)
(-0.336207 0.0304602 0)
(-0.332311 0.0415577 0)
(-0.327079 0.0530306 0)
(-0.320427 0.0648827 0)
(-0.31226 0.0770819 0)
(-0.302478 0.0895508 0)
(-0.290981 0.102158 0)
(-0.277675 0.114708 0)
(-0.262489 0.126933 0)
(-0.245381 0.138485 0)
(-0.226359 0.148931 0)
(-0.205497 0.157753 0)
(-0.182964 0.164354 0)
(-0.159039 0.168073 0)
(-0.134138 0.168211 0)
(-0.108833 0.164063 0)
(-0.0838641 0.154966 0)
(-0.0601396 0.140354 0)
(-0.0387022 0.119814 0)
(-0.0206592 0.0931387 0)
(-0.00742237 0.0603651 0)
(-0.00110899 0.0218232 0)
(-0.00100201 -0.017841 0)
(-0.00668018 -0.048769 0)
(-0.018587 -0.0747177 0)
(-0.0348739 -0.0956731 0)
(-0.0543503 -0.111797 0)
(-0.0761078 -0.123389 0)
(-0.0992878 -0.130849 0)
(-0.123131 -0.13465 0)
(-0.147003 -0.135302 0)
(-0.170394 -0.133316 0)
(-0.192906 -0.12919 0)
(-0.214246 -0.12338 0)
(-0.234208 -0.116298 0)
(-0.252658 -0.108297 0)
(-0.269524 -0.0996756 0)
(-0.284778 -0.090673 0)
(-0.298424 -0.0814758 0)
(-0.31049 -0.072221 0)
(-0.321019 -0.0630017 0)
(-0.33006 -0.0538731 0)
(-0.337662 -0.044858 0)
(-0.343872 -0.0359525 0)
(-0.34873 -0.0271314 0)
(-0.352263 -0.0183532 0)
(-0.354488 -0.00956494 0)
(-0.355407 -0.000706997 0)
(-0.35501 0.00828244 0)
(-0.353268 0.0174625 0)
(-0.35014 0.0268848 0)
(-0.345573 0.0365879 0)
(-0.339498 0.0465915 0)
(-0.33184 0.0568903 0)
(-0.322519 0.0674469 0)
(-0.311452 0.0781845 0)
(-0.298566 0.0889796 0)
(-0.283802 0.0996543 0)
(-0.267126 0.10997 0)
(-0.248547 0.119624 0)
(-0.228125 0.128244 0)
(-0.205993 0.135392 0)
(-0.182377 0.140575 0)
(-0.157608 0.14325 0)
(-0.132142 0.142858 0)
(-0.106574 0.13884 0)
(-0.0816366 0.130685 0)
(-0.0582033 0.117968 0)
(-0.0372465 0.100388 0)
(-0.0197745 0.0778131 0)
(-0.00706268 0.0503007 0)
(-0.00104466 0.0181361 0)
(-0.00097209 -0.0144743 0)
(-0.00651185 -0.0396144 0)
(-0.0181752 -0.0607759 0)
(-0.0342068 -0.0779479 0)
(-0.0534882 -0.0912525 0)
(-0.0751642 -0.100915 0)
(-0.0984148 -0.107243 0)
(-0.122502 -0.1106 0)
(-0.146796 -0.11138 0)
(-0.170777 -0.109986 0)
(-0.194029 -0.10681 0)
(-0.21623 -0.102218 0)
(-0.237143 -0.0965409 0)
(-0.256603 -0.0900662 0)
(-0.274505 -0.0830385 0)
(-0.29079 -0.075657 0)
(-0.305437 -0.0680779 0)
(-0.318451 -0.060418 0)
(-0.329853 -0.0527579 0)
(-0.339676 -0.0451472 0)
(-0.347956 -0.0376087 0)
(-0.354727 -0.0301426 0)
(-0.360019 -0.0227316 0)
(-0.363853 -0.0153446 0)
(-0.36624 -0.00794088 0)
(-0.367177 -0.000474173 0)
(-0.366649 0.00710334 0)
(-0.364629 0.014837 0)
(-0.361075 0.0227654 0)
(-0.355934 0.0309157 0)
(-0.349146 0.0392989 0)
(-0.340644 0.0479046 0)
(-0.330359 0.0566951 0)
(-0.318229 0.0655997 0)
(-0.304202 0.0745092 0)
(-0.288249 0.08327 0)
(-0.270373 0.0916798 0)
(-0.250621 0.0994846 0)
(-0.229098 0.106378 0)
(-0.205985 0.112005 0)
(-0.18155 0.115967 0)
(-0.156163 0.117837 0)
(-0.130309 0.117175 0)
(-0.104593 0.113553 0)
(-0.0797388 0.106585 0)
(-0.056586 0.0959543 0)
(-0.0360482 0.0814497 0)
(-0.0190542 0.0629878 0)
(-0.00677245 0.0406316 0)
(-0.000993286 0.0146179 0)
(-0.000949633 -0.0111839 0)
(-0.00638465 -0.0306375 0)
(-0.0178621 -0.0470532 0)
(-0.0336958 -0.0604229 0)
(-0.0528208 -0.0708355 0)
(-0.0744227 -0.0784563 0)
(-0.0977116 -0.0835113 0)
(-0.121967 -0.0862701 0)
(-0.146566 -0.0870269 0)
(-0.170982 -0.0860841 0)
(-0.194786 -0.0837379 0)
(-0.217636 -0.0802674 0)
(-0.239273 -0.075926 0)
(-0.259507 -0.0709368 0)
(-0.278207 -0.0654899 0)
(-0.295292 -0.0597418 0)
(-0.310719 -0.0538161 0)
(-0.324473 -0.0478061 0)
(-0.336559 -0.0417776 0)
(-0.346996 -0.0357715 0)
(-0.355808 -0.0298082 0)
(-0.363019 -0.0238902 0)
(-0.368651 -0.0180059 0)
(-0.372718 -0.012133 0)
(-0.375226 -0.00624172 0)
(-0.376168 -0.000297685 0)
(-0.375528 0.00573445 0)
(-0.373276 0.0118879 0)
(-0.369371 0.0181902 0)
(-0.363765 0.0246598 0)
(-0.3564 0.0313018 0)
(-0.347219 0.0381041 0)
(-0.336164 0.045033 0)
(-0.323189 0.0520289 0)
(-0.308263 0.0590015 0)
(-0.291379 0.0658268 0)
(-0.272571 0.072343 0)
(-0.251917 0.0783499 0)
(-0.229559 0.0836083 0)
(-0.205711 0.0878434 0)
(-0.180675 0.090751 0)
(-0.154849 0.0920076 0)
(-0.128737 0.0912843 0)
(-0.102947 0.0882652 0)
(-0.0781945 0.0826683 0)
(-0.0552893 0.0742684 0)
(-0.0350981 0.0629188 0)
(-0.0184879 0.0485699 0)
(-0.00654583 0.0312796 0)
(-0.00095349 0.0112341 0)
(-0.000933584 -0.0079499 0)
(-0.00629328 -0.021793 0)
(-0.0176361 -0.0334951 0)
(-0.033325 -0.0430511 0)
(-0.0523327 -0.0505213 0)
(-0.0738743 -0.0560188 0)
(-0.097182 -0.0596987 0)
(-0.121549 -0.0617464 0)
(-0.146357 -0.0623656 0)
(-0.171079 -0.0617668 0)
(-0.195274 -0.0601569 0)
(-0.218589 -0.0577321 0)
(-0.240747 -0.0546716 0)
(-0.26154 -0.0511338 0)
(-0.280821 -0.0472545 0)
(-0.298491 -0.0431461 0)
(-0.314489 -0.038898 0)
(-0.328787 -0.0345783 0)
(-0.341378 -0.0302351 0)
(-0.352268 -0.0258994 0)
(-0.361472 -0.0215868 0)
(-0.369008 -0.0173005 0)
(-0.374889 -0.0130332 0)
(-0.379126 -0.00877013 0)
(-0.38172 -0.00449086 0)
(-0.382661 -0.000171917 0)
(-0.381932 0.00421092 0)
(-0.3795 0.00868022 0)
(-0.375328 0.0132543 0)
(-0.369367 0.0179448 0)
(-0.361567 0.0227535 0)
(-0.351875 0.0276696 0)
(-0.340245 0.0326666 0)
(-0.32664 0.0376993 0)
(-0.311047 0.0427008 0)
(-0.293479 0.0475797 0)
(-0.273989 0.0522187 0)
(-0.252682 0.0564732 0)
(-0.229723 0.060172 0)
(-0.205354 0.0631203 0)
(-0.179898 0.0651035 0)
(-0.153775 0.0658958 0)
(-0.127497 0.0652692 0)
(-0.101678 0.0630068 0)
(-0.0770215 0.0589173 0)
(-0.0543148 0.0528499 0)
(-0.0343898 0.0447094 0)
(-0.0180683 0.0344678 0)
(-0.00637882 0.0221709 0)
(-0.000924338 0.00795264 0)
(-0.00092324 -0.00475476 0)
(-0.00623419 -0.0130399 0)
(-0.0174895 -0.0200519 0)
(-0.0330834 -0.0257875 0)
(-0.052013 -0.0302822 0)
(-0.0735122 -0.0336017 0)
(-0.0968281 -0.0358365 0)
(-0.121263 -0.0370954 0)
(-0.146202 -0.037498 0)
(-0.171117 -0.0371682 0)
(-0.195563 -0.0362285 0)
(-0.219177 -0.0347954 0)
(-0.241672 -0.0329754 0)
(-0.262829 -0.0308634 0)
(-0.282488 -0.0285406 0)
(-0.30054 -0.0260749 0)
(-0.316913 -0.0235202 0)
(-0.331568 -0.0209179 0)
(-0.34449 -0.0182975 0)
(-0.355679 -0.0156779 0)
(-0.365142 -0.0130693 0)
(-0.37289 -0.0104739 0)
(-0.378936 -0.00788795 0)
(-0.383283 -0.00530286 0)
(-0.385931 -0.00270684 0)
(-0.38687 -8.62024e-05 0)
(-0.386077 0.00257316 0)
(-0.383524 0.00528429 0)
(-0.379171 0.00805765 0)
(-0.372973 0.0108995 0)
(-0.364881 0.0138102 0)
(-0.354848 0.0167825 0)
(-0.342834 0.0197994 0)
(-0.328813 0.0228328 0)
(-0.31278 0.0258415 0)
(-0.294762 0.0287697 0)
(-0.274826 0.0315463 0)
(-0.253093 0.0340839 0)
(-0.229747 0.0362799 0)
(-0.205044 0.0380178 0)
(-0.179324 0.0391703 0)
(-0.153017 0.0396037 0)
(-0.126643 0.0391842 0)
(-0.100816 0.0377852 0)
(-0.0762325 0.0352957 0)
(-0.0536641 0.0316292 0)
(-0.0339195 0.0267322 0)
(-0.0177909 0.0205908 0)
(-0.00626879 0.0132343 0)
(-0.000905213 0.00474311 0)
(-0.000918169 -0.00158238 0)
(-0.00620516 -0.0043406 0)
(-0.0174174 -0.00667629 0)
(-0.0329642 -0.00858847 0)
(-0.0518547 -0.0100887 0)
(-0.0733322 -0.0111986 0)
(-0.0966508 -0.011948 0)
(-0.121118 -0.0123726 0)
(-0.14612 -0.012512 0)
(-0.171129 -0.0124069 0)
(-0.195697 -0.0120981 0)
(-0.219457 -0.0116241 0)
(-0.242117 -0.0110202 0)
(-0.263453 -0.010318 0)
(-0.283299 -0.00954462 0)