/*--------------------------------*- C++ -*----------------------------------*\
  =========                 |
  \\      /  F ield         | OpenFOAM: The Open Source CFD Toolbox
   \\    /   O peration     | Website:  https://openfoam.org
    \\  /    A nd           | Version:  7
     \\/     M anipulation  |
\*---------------------------------------------------------------------------*/
FoamFile
{
    version     2.0;
    format      ascii;
    class       volScalarField;
    location    "0.0048";
    object      p;
}
// * * * * * * * * * * * * * * * * * * * * * * * * * * * * * * * * * * * * * //

dimensions      [0 2 -2 0 0 0 0];

internalField   nonuniform List<scalar> 
2500
(
-3.26083e-07
-6.49596
-9.25817
-10.4278
-11.0674
-11.4505
-11.6948
-11.8645
-11.9918
-12.0928
-12.1765
-12.2483
-12.3113
-12.3678
-12.4191
-12.4662
-12.51
-12.5511
-12.5899
-12.6267
-12.6621
-12.6963
-12.7295
-12.762
-12.7942
-12.8262
-12.8583
-12.8906
-12.9235
-12.9572
-12.9919
-13.0278
-13.0653
-13.1046
-13.1461
-13.1901
-13.2371
-13.2879
-13.3432
-13.4048
-13.4752
-13.5587
-13.6633
-13.8041
-14.012
-14.3488
-14.9236
-15.999
-18.6461
-25.021
-4.97121
-7.67502
-9.16442
-10.1057
-10.7537
-11.1947
-11.4992
-11.7182
-11.8824
-12.0104
-12.1137
-12.1997
-12.2733
-12.3376
-12.3949
-12.4467
-12.4942
-12.5383
-12.5796
-12.6187
-12.656
-12.6919
-12.7267
-12.7609
-12.7945
-12.828
-12.8616
-12.8956
-12.9302
-12.9658
-13.0026
-13.041
-13.0813
-13.1241
-13.1698
-13.2191
-13.273
-13.3327
-13.3999
-13.4775
-13.5696
-13.6828
-13.8275
-14.0209
-14.2923
-14.6902
-15.2812
-16.1501
-17.5539
-20.1441
-7.96153
-8.77275
-9.55736
-10.2229
-10.7469
-11.1409
-11.4353
-11.6585
-11.8312
-11.9681
-12.0794
-12.172
-12.2508
-12.3194
-12.38
-12.4346
-12.4844
-12.5303
-12.5732
-12.6137
-12.6522
-12.6892
-12.7251
-12.7602
-12.7949
-12.8293
-12.864
-12.899
-12.9348
-12.9716
-13.0098
-13.0498
-13.092
-13.137
-13.1855
-13.2381
-13.2962
-13.3611
-13.4349
-13.5205
-13.6222
-13.7463
-13.9017
-14.1021
-14.3666
-14.7222
-15.1984
-15.8094
-16.5395
-17.2906
-9.48907
-9.67695
-10.0778
-10.5082
-10.8873
-11.2007
-11.4538
-11.6572
-11.8213
-11.9552
-12.0662
-12.1598
-12.24
-12.3101
-12.3721
-12.4279
-12.4788
-12.5257
-12.5695
-12.6107
-12.6499
-12.6876
-12.7241
-12.7598
-12.7951
-12.8302
-12.8654
-12.9011
-12.9376
-12.9751
-13.0142
-13.0552
-13.0985
-13.1449
-13.1948
-13.2493
-13.3094
-13.3765
-13.4526
-13.5403
-13.643
-13.7655
-13.914
-14.0967
-14.3232
-14.6034
-14.9436
-15.3334
-15.6994
-15.8614
-10.3879
-10.3578
-10.542
-10.8047
-11.0668
-11.3049
-11.512
-11.688
-11.8362
-11.9612
-12.0674
-12.1585
-12.2375
-12.3071
-12.3692
-12.4252
-12.4763
-12.5235
-12.5676
-12.6091
-12.6487
-12.6867
-12.7235
-12.7595
-12.7951
-12.8305
-12.866
-12.902
-12.9388
-12.9768
-13.0163
-13.0577
-13.1015
-13.1483
-13.1988
-13.2537
-13.3141
-13.3812
-13.4567
-13.5424
-13.641
-13.7554
-13.8893
-14.0465
-14.23
-14.4401
-14.6717
-14.9054
-15.0687
-15.0311
-10.9604
-10.8554
-10.924
-11.0774
-11.2534
-11.429
-11.5929
-11.74
-11.8694
-11.9822
-12.0805
-12.1666
-12.2426
-12.3102
-12.3709
-12.4261
-12.4768
-12.5237
-12.5675
-12.609
-12.6484
-12.6863
-12.7231
-12.7591
-12.7947
-12.8301
-12.8656
-12.9016
-12.9384
-12.9763
-13.0157
-13.057
-13.1007
-13.1472
-13.1971
-13.2513
-13.3104
-13.3756
-13.4479
-13.5288
-13.6198
-13.7225
-13.8385
-13.9686
-14.1121
-14.2648
-14.4178
-14.5515
-14.6089
-14.5066
-11.341
-11.221
-11.2319
-11.3172
-11.4323
-11.5587
-11.6853
-11.8052
-11.9151
-12.0143
-12.1032
-12.1828
-12.2541
-12.3186
-12.3771
-12.4306
-12.48
-12.526
-12.5692
-12.6101
-12.649
-12.6866
-12.723
-12.7587
-12.7939
-12.829
-12.8642
-12.8998
-12.9362
-12.9737
-13.0126
-13.0532
-13.096
-13.1415
-13.1901
-13.2424
-13.299
-13.3608
-13.4283
-13.5025
-13.5841
-13.6737
-13.7713
-13.8762
-13.9857
-14.0943
-14.1928
-14.2653
-14.2714
-14.1585
-11.6067
-11.4943
-11.478
-11.5219
-11.5954
-11.6849
-11.781
-11.8769
-11.9686
-12.0542
-12.133
-12.2052
-12.2712
-12.3315
-12.387
-12.4383
-12.4859
-12.5305
-12.5725
-12.6124
-12.6506
-12.6874
-12.7231
-12.7582
-12.7928
-12.8272
-12.8618
-12.8968
-12.9324
-12.969
-13.0069
-13.0464
-13.0879
-13.1317
-13.1782
-13.2279
-13.2812
-13.3386
-13.4005
-13.4672
-13.5389
-13.6155
-13.6962
-13.7794
-13.8618
-13.9378
-13.9998
-14.0359
-14.0187
-13.9146
-11.801
-11.7029
-11.6753
-11.6946
-11.7403
-11.8029
-11.8751
-11.9508
-12.0263
-12.0991
-12.168
-12.2325
-12.2926
-12.3484
-12.4003
-12.4488
-12.4942
-12.5369
-12.5774
-12.6159
-12.653
-12.6887
-12.7235
-12.7576
-12.7913
-12.8249
-12.8585
-12.8925
-12.9271
-12.9626
-12.9991
-13.0371
-13.0768
-13.1185
-13.1625
-13.209
-13.2584
-13.311
-13.3668
-13.4259
-13.488
-13.5527
-13.6187
-13.6841
-13.7456
-13.7985
-13.8365
-13.8516
-13.825
-13.7352
-11.9485
-11.8657
-11.8348
-11.8401
-11.8676
-11.911
-11.9648
-12.0242
-12.0857
-12.147
-12.2065
-12.2635
-12.3175
-12.3685
-12.4165
-12.4618
-12.5046
-12.5451
-12.5837
-12.6207
-12.6562
-12.6907
-12.7242
-12.7572
-12.7897
-12.8221
-12.8546
-12.8873
-12.9206
-12.9546
-12.9895
-13.0257
-13.0633
-13.1025
-13.1436
-13.1868
-13.2321
-13.2796
-13.3294
-13.3812
-13.4346
-13.4888
-13.5424
-13.5936
-13.6394
-13.676
-13.6986
-13.7019
-13.6731
-13.5976
-12.0644
-11.9956
-11.9655
-11.9632
-11.979
-12.0088
-12.0487
-12.0951
-12.145
-12.1962
-12.2472
-12.297
-12.3451
-12.3912
-12.4352
-12.477
-12.5169
-12.555
-12.5915
-12.6265
-12.6604
-12.6933
-12.7253
-12.7569
-12.788
-12.819
-12.8501
-12.8814
-12.9131
-12.9454
-12.9785
-13.0126
-13.0479
-13.0845
-13.1225
-13.1621
-13.2032
-13.2459
-13.29
-13.3351
-13.3806
-13.4258
-13.4693
-13.5094
-13.5436
-13.5688
-13.5816
-13.5787
-13.551
-13.4885
-12.1582
-12.1017
-12.0743
-12.0681
-12.0765
-12.0969
-12.1266
-12.1627
-12.203
-12.2456
-12.2889
-12.3322
-12.3747
-12.4159
-12.4558
-12.4941
-12.531
-12.5664
-12.6005
-12.6335
-12.6654
-12.6965
-12.7269
-12.7568
-12.7864
-12.8158
-12.8452
-12.8749
-12.9048
-12.9353
-12.9664
-12.9983
-13.0311
-13.0649
-13.0998
-13.1358
-13.1729
-13.2109
-13.2497
-13.2887
-13.3275
-13.3651
-13.4004
-13.4318
-13.4574
-13.4748
-13.4816
-13.4756
-13.4505
-13.3991
-12.2365
-12.1904
-12.1662
-12.1585
-12.1623
-12.1762
-12.1983
-12.2265
-12.259
-12.2942
-12.3309
-12.3682
-12.4055
-12.4421
-12.4779
-12.5127
-12.5464
-12.5791
-12.6107
-12.6414
-12.6712
-12.7003
-12.7289
-12.757
-12.7848
-12.8125
-12.8402
-12.868
-12.896
-12.9245
-12.9534
-12.983
-13.0133
-13.0443
-13.0761
-13.1086
-13.1418
-13.1755
-13.2094
-13.2431
-13.276
-13.3073
-13.3359
-13.3607
-13.38
-13.392
-13.3951
-13.3879
-13.3659
-13.3238
-12.3036
-12.266
-12.2453
-12.2372
-12.2383
-12.2477
-12.2642
-12.2863
-12.3125
-12.3416
-12.3726
-12.4046
-12.4369
-12.4692
-12.5012
-12.5324
-12.563
-12.5928
-12.6218
-12.6501
-12.6777
-12.7048
-12.7313
-12.7575
-12.7834
-12.8092
-12.835
-12.8608
-12.8869
-12.9132
-12.9399
-12.9671
-12.9948
-13.023
-13.0517
-13.0809
-13.1105
-13.1401
-13.1697
-13.1986
-13.2265
-13.2525
-13.2759
-13.2955
-13.3102
-13.3185
-13.3194
-13.312
-13.2931
-13.2587
-12.3625
-12.3319
-12.3143
-12.3066
-12.3061
-12.3125
-12.3249
-12.3422
-12.3634
-12.3874
-12.4134
-12.4407
-12.4687
-12.497
-12.5251
-12.553
-12.5805
-12.6074
-12.6338
-12.6596
-12.6849
-12.7098
-12.7342
-12.7584
-12.7823
-12.806
-12.8298
-12.8536
-12.8775
-12.9016
-12.9261
-12.9508
-12.9759
-13.0013
-13.0271
-13.0531
-13.0792
-13.1052
-13.1308
-13.1556
-13.1792
-13.2009
-13.22
-13.2356
-13.2469
-13.2527
-13.2524
-13.2454
-13.2293
-13.2012
-12.4153
-12.3903
-12.3756
-12.3685
-12.3673
-12.3716
-12.381
-12.3946
-12.4117
-12.4314
-12.4532
-12.4764
-12.5004
-12.5249
-12.5496
-12.5743
-12.5987
-12.6228
-12.6465
-12.6698
-12.6927
-12.7153
-12.7375
-12.7595
-12.7813
-12.803
-12.8246
-12.8463
-12.868
-12.8899
-12.912
-12.9343
-12.9568
-12.9796
-13.0025
-13.0254
-13.0483
-13.071
-13.0931
-13.1143
-13.1342
-13.1522
-13.1679
-13.1804
-13.1891
-13.1932
-13.1922
-13.1858
-13.1724
-13.1494
-12.4634
-12.4431
-12.4308
-12.4246
-12.423
-12.4259
-12.433
-12.4437
-12.4575
-12.4737
-12.4918
-12.5113
-12.5318
-12.5529
-12.5743
-12.5958
-12.6173
-12.6386
-12.6597
-12.6805
-12.701
-12.7212
-12.7412
-12.761
-12.7806
-12.8001
-12.8196
-12.839
-12.8585
-12.8782
-12.8979
-12.9177
-12.9377
-12.9578
-12.978
-12.9981
-13.018
-13.0375
-13.0565
-13.0745
-13.0912
-13.1062
-13.119
-13.1291
-13.1358
-13.1388
-13.1375
-13.1319
-13.1207
-13.1019
-12.5079
-12.4914
-12.4812
-12.4759
-12.4742
-12.4761
-12.4815
-12.49
-12.501
-12.5143
-12.5292
-12.5455
-12.5628
-12.5807
-12.5991
-12.6177
-12.6363
-12.6549
-12.6733
-12.6916
-12.7096
-12.7275
-12.7452
-12.7627
-12.7801
-12.7974
-12.8146
-12.8319
-12.8491
-12.8664
-12.8838
-12.9012
-12.9187
-12.9363
-12.9538
-12.9711
-12.9882
-13.0049
-13.021
-13.0362
-13.0502
-13.0626
-13.0731
-13.0812
-13.0865
-13.0886
-13.0873
-13.0825
-13.0732
-13.0579
-12.5495
-12.5362
-12.5279
-12.5234
-12.5218
-12.5231
-12.5271
-12.5338
-12.5426
-12.5533
-12.5655
-12.5789
-12.5933
-12.6083
-12.6238
-12.6396
-12.6555
-12.6714
-12.6873
-12.703
-12.7187
-12.7341
-12.7495
-12.7647
-12.7798
-12.7949
-12.8099
-12.8248
-12.8398
-12.8548
-12.8698
-12.8848
-12.8999
-12.9149
-12.9298
-12.9446
-12.9591
-12.9732
-12.9867
-12.9993
-13.0109
-13.0211
-13.0296
-13.0361
-13.0402
-13.0418
-13.0406
-13.0366
-13.029
-13.0166
-12.5889
-12.5783
-12.5716
-12.5679
-12.5664
-12.5672
-12.5703
-12.5754
-12.5824
-12.5909
-12.6007
-12.6116
-12.6233
-12.6356
-12.6484
-12.6615
-12.6748
-12.6881
-12.7015
-12.7148
-12.728
-12.7411
-12.7541
-12.767
-12.7798
-12.7926
-12.8053
-12.8179
-12.8306
-12.8432
-12.8559
-12.8686
-12.8812
-12.8938
-12.9063
-12.9186
-12.9306
-12.9422
-12.9533
-12.9637
-12.9731
-12.9813
-12.9882
-12.9934
-12.9966
-12.9978
-12.9967
-12.9934
-12.9873
-12.9775
-12.6266
-12.6182
-12.613
-12.61
-12.6087
-12.6092
-12.6115
-12.6153
-12.6207
-12.6272
-12.6349
-12.6435
-12.6528
-12.6627
-12.6729
-12.6835
-12.6942
-12.705
-12.7159
-12.7267
-12.7375
-12.7482
-12.7589
-12.7695
-12.78
-12.7904
-12.8008
-12.8112
-12.8216
-12.8319
-12.8422
-12.8525
-12.8628
-12.873
-12.883
-12.893
-12.9026
-12.912
-12.9208
-12.9291
-12.9366
-12.9431
-12.9485
-12.9525
-12.9551
-12.9559
-12.9551
-12.9525
-12.9477
-12.94
-12.6628
-12.6565
-12.6525
-12.6502
-12.6492
-12.6495
-12.651
-12.6538
-12.6577
-12.6626
-12.6684
-12.6748
-12.6819
-12.6894
-12.6973
-12.7054
-12.7137
-12.722
-12.7305
-12.7389
-12.7473
-12.7556
-12.7639
-12.7722
-12.7804
-12.7885
-12.7966
-12.8047
-12.8127
-12.8207
-12.8287
-12.8366
-12.8445
-12.8524
-12.8601
-12.8678
-12.8752
-12.8823
-12.8891
-12.8954
-12.9011
-12.9061
-12.9101
-12.9132
-12.9151
-12.9158
-12.9151
-12.9132
-12.9097
-12.9039
-12.698
-12.6936
-12.6908
-12.6891
-12.6883
-12.6884
-12.6894
-12.6913
-12.6939
-12.6972
-12.7012
-12.7057
-12.7106
-12.7159
-12.7215
-12.7273
-12.7332
-12.7391
-12.7452
-12.7512
-12.7572
-12.7632
-12.7692
-12.7751
-12.781
-12.7868
-12.7925
-12.7983
-12.804
-12.8097
-12.8153
-12.8209
-12.8265
-12.8321
-12.8375
-12.8429
-12.8481
-12.8532
-12.858
-12.8624
-12.8664
-12.8699
-12.8728
-12.875
-12.8764
-12.8769
-12.8765
-12.8752
-12.8728
-12.8688
-12.7325
-12.7298
-12.7281
-12.727
-12.7265
-12.7264
-12.7269
-12.7279
-12.7294
-12.7313
-12.7336
-12.7362
-12.7392
-12.7423
-12.7457
-12.7491
-12.7527
-12.7564
-12.76
-12.7637
-12.7674
-12.771
-12.7746
-12.7782
-12.7817
-12.7852
-12.7887
-12.7921
-12.7955
-12.7988
-12.8022
-12.8055
-12.8087
-12.812
-12.8152
-12.8183
-12.8214
-12.8244
-12.8273
-12.8299
-12.8323
-12.8345
-12.8363
-12.8376
-12.8385
-12.8389
-12.8387
-12.838
-12.8366
-12.8344
-12.7666
-12.7655
-12.7648
-12.7644
-12.7641
-12.7639
-12.7639
-12.7641
-12.7645
-12.765
-12.7657
-12.7666
-12.7676
-12.7686
-12.7698
-12.7711
-12.7724
-12.7737
-12.775
-12.7764
-12.7777
-12.779
-12.7803
-12.7815
-12.7827
-12.7839
-12.785
-12.7861
-12.7871
-12.7882
-12.7892
-12.7901
-12.7911
-12.7921
-12.793
-12.794
-12.7949
-12.7959
-12.7968
-12.7977
-12.7986
-12.7994
-12.8001
-12.8007
-12.8011
-12.8014
-12.8014
-12.8013
-12.801
-12.8004
-12.8005
-12.8011
-12.8014
-12.8015
-12.8014
-12.8012
-12.8008
-12.8002
-12.7995
-12.7987
-12.7978
-12.7969
-12.7959
-12.795
-12.794
-12.7931
-12.7921
-12.7911
-12.7902
-12.7892
-12.7882
-12.7872
-12.7861
-12.785
-12.7839
-12.7827
-12.7815
-12.7803
-12.779
-12.7777
-12.7763
-12.775
-12.7737
-12.7723
-12.771
-12.7698
-12.7686
-12.7675
-12.7665
-12.7657
-12.765
-12.7644
-12.7641
-12.7639
-12.7638
-12.764
-12.7643
-12.7648
-12.7655
-12.7665
-12.8345
-12.8367
-12.8381
-12.8388
-12.839
-12.8386
-12.8377
-12.8363
-12.8345
-12.8324
-12.83
-12.8273
-12.8245
-12.8215
-12.8184
-12.8152
-12.812
-12.8088
-12.8055
-12.8022
-12.7988
-12.7955
-12.7921
-12.7887
-12.7852
-12.7817
-12.7782
-12.7746
-12.771
-12.7674
-12.7637
-12.76
-12.7563
-12.7527
-12.7491
-12.7456
-12.7423
-12.7391
-12.7362
-12.7335
-12.7312
-12.7293
-12.7279
-12.7269
-12.7264
-12.7264
-12.7269
-12.728
-12.7297
-12.7324
-12.8689
-12.8728
-12.8752
-12.8765
-12.877
-12.8765
-12.8751
-12.8729
-12.87
-12.8665
-12.8625
-12.858
-12.8532
-12.8482
-12.843
-12.8376
-12.8321
-12.8266
-12.821
-12.8153
-12.8097
-12.804
-12.7983
-12.7925
-12.7868
-12.7809
-12.7751
-12.7692
-12.7632
-12.7572
-12.7512
-12.7451
-12.7391
-12.7331
-12.7272
-12.7214
-12.7159
-12.7106
-12.7056
-12.7011
-12.6972
-12.6938
-12.6912
-12.6893
-12.6883
-12.6882
-12.689
-12.6907
-12.6935
-12.6979
-12.904
-12.9097
-12.9133
-12.9152
-12.9158
-12.9152
-12.9133
-12.9102
-12.9061
-12.9011
-12.8954
-12.8891
-12.8824
-12.8752
-12.8678
-12.8602
-12.8524
-12.8446
-12.8366
-12.8287
-12.8207
-12.8127
-12.8046
-12.7966
-12.7885
-12.7803
-12.7722
-12.7639
-12.7556
-12.7472
-12.7388
-12.7304
-12.722
-12.7136
-12.7053
-12.6972
-12.6893
-12.6818
-12.6748
-12.6683
-12.6626
-12.6577
-12.6537
-12.6509
-12.6494
-12.6491
-12.6501
-12.6524
-12.6564
-12.6627
-12.9401
-12.9478
-12.9525
-12.9551
-12.956
-12.9551
-12.9526
-12.9485
-12.9431
-12.9366
-12.9291
-12.9209
-12.912
-12.9027
-12.893
-12.8831
-12.873
-12.8628
-12.8525
-12.8422
-12.8319
-12.8215
-12.8112
-12.8008
-12.7904
-12.78
-12.7694
-12.7589
-12.7482
-12.7375
-12.7267
-12.7158
-12.705
-12.6941
-12.6834
-12.6729
-12.6626
-12.6527
-12.6434
-12.6348
-12.6272
-12.6206
-12.6152
-12.6114
-12.6091
-12.6086
-12.6099
-12.6129
-12.6181
-12.6265
-12.9775
-12.9874
-12.9935
-12.9967
-12.9978
-12.9967
-12.9934
-12.9882
-12.9814
-12.9731
-12.9637
-12.9533
-12.9423
-12.9306
-12.9186
-12.9063
-12.8938
-12.8812
-12.8686
-12.8559
-12.8432
-12.8306
-12.8179
-12.8052
-12.7925
-12.7798
-12.7669
-12.754
-12.741
-12.7279
-12.7147
-12.7014
-12.6881
-12.6747
-12.6615
-12.6484
-12.6356
-12.6232
-12.6115
-12.6006
-12.5908
-12.5823
-12.5753
-12.5702
-12.5671
-12.5663
-12.5678
-12.5715
-12.5782
-12.5888
-13.0167
-13.029
-13.0366
-13.0406
-13.0418
-13.0403
-13.0361
-13.0296
-13.0211
-13.0109
-12.9993
-12.9867
-12.9732
-12.9591
-12.9446
-12.9298
-12.9149
-12.8999
-12.8848
-12.8698
-12.8548
-12.8398
-12.8248
-12.8098
-12.7948
-12.7798
-12.7647
-12.7495
-12.7341
-12.7186
-12.703
-12.6872
-12.6713
-12.6554
-12.6395
-12.6237
-12.6083
-12.5932
-12.5788
-12.5654
-12.5532
-12.5425
-12.5336
-12.527
-12.5229
-12.5216
-12.5233
-12.5278
-12.5361
-12.5494
-13.0579
-13.0732
-13.0825
-13.0873
-13.0886
-13.0865
-13.0812
-13.0731
-13.0626
-13.0502
-13.0362
-13.021
-13.005
-12.9883
-12.9711
-12.9538
-12.9363
-12.9187
-12.9012
-12.8838
-12.8664
-12.8491
-12.8318
-12.8146
-12.7974
-12.7801
-12.7627
-12.7451
-12.7275
-12.7096
-12.6915
-12.6732
-12.6548
-12.6362
-12.6176
-12.599
-12.5806
-12.5627
-12.5454
-12.5291
-12.5142
-12.5009
-12.4899
-12.4814
-12.476
-12.4741
-12.4757
-12.4811
-12.4912
-12.5078
-13.102
-13.1207
-13.132
-13.1375
-13.1388
-13.1359
-13.1291
-13.119
-13.1062
-13.0912
-13.0745
-13.0565
-13.0375
-13.018
-12.9981
-12.978
-12.9578
-12.9377
-12.9177
-12.8979
-12.8781
-12.8585
-12.839
-12.8195
-12.8001
-12.7805
-12.7609
-12.7411
-12.7211
-12.7009
-12.6804
-12.6596
-12.6385
-12.6172
-12.5958
-12.5742
-12.5528
-12.5317
-12.5112
-12.4917
-12.4736
-12.4574
-12.4436
-12.4329
-12.4258
-12.4228
-12.4244
-12.4307
-12.4429
-12.4633
-13.1494
-13.1724
-13.1859
-13.1922
-13.1932
-13.1891
-13.1804
-13.1679
-13.1522
-13.1342
-13.1143
-13.0931
-13.071
-13.0484
-13.0255
-13.0025
-12.9796
-12.9568
-12.9343
-12.912
-12.8899
-12.868
-12.8463
-12.8246
-12.8029
-12.7813
-12.7595
-12.7375
-12.7152
-12.6926
-12.6697
-12.6464
-12.6227
-12.5986
-12.5742
-12.5495
-12.5248
-12.5003
-12.4762
-12.4531
-12.4313
-12.4115
-12.3945
-12.3808
-12.3715
-12.3672
-12.3684
-12.3754
-12.3902
-12.4151
-13.2012
-13.2293
-13.2454
-13.2524
-13.2527
-13.2469
-13.2357
-13.22
-13.2009
-13.1792
-13.1557
-13.1308
-13.1052
-13.0792
-13.0531
-13.0271
-13.0013
-12.9759
-12.9508
-12.926
-12.9016
-12.8775
-12.8535
-12.8297
-12.806
-12.7822
-12.7583
-12.7342
-12.7097
-12.6849
-12.6596
-12.6337
-12.6074
-12.5804
-12.5529
-12.525
-12.4968
-12.4686
-12.4406
-12.4133
-12.3873
-12.3632
-12.3421
-12.3248
-12.3124
-12.306
-12.3064
-12.3141
-12.3317
-12.3624
-13.2588
-13.2931
-13.3121
-13.3195
-13.3186
-13.3102
-13.2956
-13.2759
-13.2526
-13.2265
-13.1986
-13.1697
-13.1401
-13.1105
-13.0809
-13.0517
-13.023
-12.9948
-12.9671
-12.9399
-12.9132
-12.8868
-12.8608
-12.8349
-12.8092
-12.7834
-12.7575
-12.7313
-12.7047
-12.6777
-12.65
-12.6217
-12.5927
-12.5629
-12.5323
-12.501
-12.4691
-12.4368
-12.4044
-12.3724
-12.3415
-12.3123
-12.2861
-12.2641
-12.2475
-12.2381
-12.237
-12.2451
-12.2658
-12.3035
-13.3239
-13.3659
-13.3879
-13.3951
-13.3921
-13.38
-13.3607
-13.336
-13.3073
-13.276
-13.2431
-13.2094
-13.1755
-13.1418
-13.1086
-13.0761
-13.0443
-13.0132
-12.983
-12.9534
-12.9244
-12.896
-12.8679
-12.8401
-12.8125
-12.7848
-12.7569
-12.7288
-12.7003
-12.6711
-12.6413
-12.6106
-12.579
-12.5463
-12.5126
-12.4778
-12.442
-12.4053
-12.3681
-12.3308
-12.2941
-12.2588
-12.2263
-12.1981
-12.176
-12.1621
-12.1583
-12.1661
-12.1902
-12.2364
-13.3991
-13.4505
-13.4756
-13.4816
-13.4748
-13.4575
-13.4318
-13.4004
-13.3651
-13.3275
-13.2887
-13.2497
-13.2109
-13.1729
-13.1358
-13.0998
-13.0649
-13.0311
-12.9982
-12.9663
-12.9352
-12.9048
-12.8748
-12.8452
-12.8158
-12.7863
-12.7567
-12.7268
-12.6964
-12.6653
-12.6334
-12.6004
-12.5663
-12.5309
-12.494
-12.4557
-12.4158
-12.3745
-12.3321
-12.2888
-12.2454
-12.2029
-12.1626
-12.1264
-12.0967
-12.0763
-12.0679
-12.0741
-12.1015
-12.158
-13.4885
-13.551
-13.5787
-13.5817
-13.5688
-13.5436
-13.5094
-13.4693
-13.4258
-13.3806
-13.3351
-13.29
-13.2459
-13.2032
-13.1621
-13.1225
-13.0845
-13.0479
-13.0126
-12.9785
-12.9453
-12.913
-12.8813
-12.85
-12.819
-12.788
-12.7568
-12.7253
-12.6932
-12.6603
-12.6264
-12.5914
-12.5549
-12.5168
-12.4769
-12.4351
-12.3911
-12.345
-12.2969
-12.247
-12.196
-12.1448
-12.095
-12.0486
-12.0086
-11.9788
-11.963
-11.9653
-11.9954
-12.0641
-13.5976
-13.6731
-13.7019
-13.6986
-13.676
-13.6394
-13.5936
-13.5424
-13.4888
-13.4346
-13.3812
-13.3294
-13.2796
-13.2321
-13.1867
-13.1436
-13.1025
-13.0633
-13.0257
-12.9895
-12.9545
-12.9205
-12.8873
-12.8545
-12.8221
-12.7897
-12.7571
-12.7242
-12.6906
-12.6561
-12.6206
-12.5836
-12.545
-12.5045
-12.4617
-12.4164
-12.3684
-12.3174
-12.2633
-12.2064
-12.1468
-12.0855
-12.024
-11.9646
-11.9107
-11.8674
-11.8399
-11.8346
-11.8654
-11.9483
-13.7352
-13.825
-13.8516
-13.8365
-13.7985
-13.7456
-13.6841
-13.6187
-13.5527
-13.488
-13.4259
-13.3668
-13.311
-13.2584
-13.209
-13.1624
-13.1185
-13.0768
-13.0371
-12.9991
-12.9625
-12.9271
-12.8925
-12.8585
-12.8248
-12.7913
-12.7576
-12.7234
-12.6886
-12.6529
-12.6158
-12.5773
-12.5368
-12.494
-12.4486
-12.4002
-12.3483
-12.2924
-12.2324
-12.1678
-12.0989
-12.0261
-11.9506
-11.8749
-11.8027
-11.7401
-11.6944
-11.675
-11.7026
-11.8007
-13.9146
-14.0187
-14.036
-13.9998
-13.9378
-13.8618
-13.7794
-13.6962
-13.6155
-13.5389
-13.4672
-13.4004
-13.3386
-13.2812
-13.2279
-13.1782
-13.1317
-13.0879
-13.0464
-13.0069
-12.969
-12.9324
-12.8967
-12.8617
-12.8272
-12.7927
-12.7581
-12.723
-12.6873
-12.6505
-12.6123
-12.5724
-12.5304
-12.4858
-12.4381
-12.3869
-12.3314
-12.271
-12.205
-12.1328
-12.054
-11.9684
-11.8767
-11.7808
-11.6847
-11.5951
-11.5217
-11.4777
-11.494
-11.6065
-14.1585
-14.2714
-14.2653
-14.1928
-14.0943
-13.9857
-13.8762
-13.7713
-13.6737
-13.5841
-13.5025
-13.4283
-13.3607
-13.299
-13.2423
-13.19
-13.1414
-13.096
-13.0532
-13.0125
-12.9736
-12.9362
-12.8998
-12.8641
-12.8289
-12.7938
-12.7586
-12.7229
-12.6865
-12.6489
-12.6099
-12.5691
-12.5259
-12.4799
-12.4305
-12.3769
-12.3184
-12.254
-12.1826
-12.103
-12.0141
-11.9149
-11.8049
-11.6851
-11.5585
-11.432
-11.3169
-11.2316
-11.2207
-11.3407
-14.5066
-14.6089
-14.5515
-14.4178
-14.2649
-14.1121
-13.9686
-13.8385
-13.7225
-13.6198
-13.5288
-13.4479
-13.3756
-13.3104
-13.2513
-13.1971
-13.1471
-13.1006
-13.057
-13.0157
-12.9763
-12.9384
-12.9016
-12.8655
-12.83
-12.7946
-12.7591
-12.7231
-12.6862
-12.6483
-12.6088
-12.5674
-12.5235
-12.4766
-12.426
-12.3708
-12.31
-12.2424
-12.1664
-12.0803
-11.982
-11.8691
-11.7398
-11.5927
-11.4287
-11.2531
-11.0772
-10.9238
-10.8551
-10.96
-15.0311
-15.0687
-14.9054
-14.6717
-14.4401
-14.23
-14.0465
-13.8893
-13.7554
-13.641
-13.5424
-13.4567
-13.3812
-13.3141
-13.2537
-13.1988
-13.1483
-13.1015
-13.0577
-13.0162
-12.9768
-12.9388
-12.902
-12.8659
-12.8304
-12.795
-12.7594
-12.7234
-12.6866
-12.6486
-12.609
-12.5675
-12.5234
-12.4762
-12.425
-12.369
-12.307
-12.2374
-12.1583
-12.0672
-11.961
-11.836
-11.6877
-11.5117
-11.3046
-11.0665
-10.8044
-10.5417
-10.3574
-10.3875
-15.8614
-15.6994
-15.3334
-14.9436
-14.6034
-14.3232
-14.0967
-13.914
-13.7655
-13.643
-13.5403
-13.4526
-13.3765
-13.3093
-13.2493
-13.1948
-13.1448
-13.0985
-13.0551
-13.0142
-12.9751
-12.9375
-12.901
-12.8653
-12.8301
-12.795
-12.7597
-12.724
-12.6875
-12.6498
-12.6106
-12.5693
-12.5256
-12.4787
-12.4278
-12.372
-12.3099
-12.2398
-12.1596
-12.066
-11.955
-11.8211
-11.657
-11.4536
-11.2004
-10.887
-10.5079
-10.0774
-9.6766
-9.4887
-17.2906
-16.5395
-15.8094
-15.1984
-14.7222
-14.3666
-14.1021
-13.9017
-13.7462
-13.6222
-13.5205
-13.4349
-13.3611
-13.2962
-13.2381
-13.1854
-13.137
-13.092
-13.0497
-13.0097
-12.9715
-12.9347
-12.8989
-12.8639
-12.8293
-12.7948
-12.7601
-12.725
-12.6891
-12.6521
-12.6135
-12.5731
-12.5302
-12.4842
-12.4345
-12.3799
-12.3192
-12.2506
-12.1718
-12.0791
-11.9679
-11.831
-11.6582
-11.435
-11.1406
-10.7466
-10.2225
-9.557
-8.77236
-7.96112
-20.1441
-17.554
-16.1501
-15.2812
-14.6902
-14.2923
-14.0209
-13.8274
-13.6828
-13.5696
-13.4775
-13.3999
-13.3326
-13.273
-13.2191
-13.1697
-13.124
-13.0813
-13.0409
-13.0025
-12.9657
-12.9302
-12.8955
-12.8616
-12.828
-12.7944
-12.7608
-12.7266
-12.6918
-12.6559
-12.6186
-12.5795
-12.5382
-12.4941
-12.4466
-12.3947
-12.3374
-12.2731
-12.1995
-12.1135
-12.0102
-11.8822
-11.7179
-11.4989
-11.1944
-10.7534
-10.1053
-9.16404
-7.6746
-4.97076
-25.021
-18.6461
-15.999
-14.9236
-14.3488
-14.012
-13.8041
-13.6633
-13.5587
-13.4752
-13.4048
-13.3432
-13.2878
-13.2371
-13.1901
-13.1461
-13.1046
-13.0653
-13.0278
-12.9918
-12.9571
-12.9235
-12.8906
-12.8582
-12.8261
-12.7941
-12.762
-12.7294
-12.6961
-12.662
-12.6266
-12.5897
-12.551
-12.5099
-12.4661
-12.4189
-12.3676
-12.3111
-12.2481
-12.1763
-12.0926
-11.9915
-11.8642
-11.6945
-11.4502
-11.0671
-10.4274
-9.25777
-6.4955
0.000487759
)
;

boundaryField
{
    movingWallTop
    {
        type            zeroGradient;
    }
    movingWallBottom
    {
        type            zeroGradient;
    }
    fixedWalls
    {
        type            zeroGradient;
    }
    frontAndBack
    {
        type            empty;
    }
}


// ************************************************************************* //
