/*--------------------------------*- C++ -*----------------------------------*\
  =========                 |
  \\      /  F ield         | OpenFOAM: The Open Source CFD Toolbox
   \\    /   O peration     | Website:  https://openfoam.org
    \\  /    A nd           | Version:  7
     \\/     M anipulation  |
\*---------------------------------------------------------------------------*/
FoamFile
{
    version     2.0;
    format      ascii;
    class       surfaceScalarField;
    location    "0.029";
    object      phi;
}
// * * * * * * * * * * * * * * * * * * * * * * * * * * * * * * * * * * * * * //

dimensions      [0 3 -1 0 0 0 0];

internalField   nonuniform List<scalar> 
4900
(
8.95875e-10
-8.93146e-10
1.63719e-09
-7.41287e-10
1.35644e-09
2.80729e-10
-2.0221e-10
1.55867e-09
-3.04583e-09
2.84363e-09
-7.07476e-09
4.02893e-09
-1.21297e-08
5.05492e-09
-1.80321e-08
5.9024e-09
-2.46007e-08
6.56859e-09
-3.16588e-08
7.05807e-09
-3.90381e-08
7.3793e-09
-4.65809e-08
7.54278e-09
-5.41409e-08
7.56003e-09
-6.15839e-08
7.44302e-09
-6.87878e-08
7.20381e-09
-7.5642e-08
6.85426e-09
-8.20479e-08
6.40593e-09
-8.79179e-08
5.86998e-09
-9.31751e-08
5.25714e-09
-9.77528e-08
4.57771e-09
-1.01594e-07
3.84163e-09
-1.04653e-07
3.05851e-09
-1.06891e-07
2.23776e-09
-1.08279e-07
1.38865e-09
-1.088e-07
5.20499e-10
-1.08443e-07
-3.57288e-10
-1.07207e-07
-1.23506e-09
-1.05105e-07
-2.10282e-09
-1.02155e-07
-2.95017e-09
-9.83883e-08
-3.76621e-09
-9.38488e-08
-4.53953e-09
-8.85906e-08
-5.2582e-09
-8.26808e-08
-5.9098e-09
-7.61993e-08
-6.48149e-09
-6.92391e-08
-6.96013e-09
-6.19067e-08
-7.3324e-09
-5.43217e-08
-7.58504e-09
-4.66166e-08
-7.70505e-09
-3.89367e-08
-7.67995e-09
-3.14385e-08
-7.49815e-09
-2.42892e-08
-7.14937e-09
-1.76639e-08
-6.62522e-09
-1.17437e-08
-5.92024e-09
-6.71036e-09
-5.03334e-09
-2.73969e-09
-3.97067e-09
1.70282e-11
-2.75673e-09
1.4915e-09
-1.47448e-09
1.69273e-09
-2.01238e-10
9.00174e-10
7.9254e-10
9.0016e-10
7.53987e-10
-1.6471e-09
3.34585e-10
-3.21902e-10
-2.46626e-09
3.08157e-09
-8.17235e-09
7.26477e-09
-1.6872e-08
1.15433e-08
-2.83917e-08
1.55486e-08
-4.2419e-08
1.90822e-08
-5.85649e-08
2.20483e-08
-7.64061e-08
2.44098e-08
-9.5511e-08
2.6163e-08
-1.15456e-07
2.73239e-08
-1.35833e-07
2.79203e-08
-1.5626e-07
2.79867e-08
-1.76379e-07
2.7562e-08
-1.95862e-07
2.66866e-08
-2.14409e-07
2.5402e-08
-2.31753e-07
2.37493e-08
-2.47652e-07
2.17687e-08
-2.61894e-07
1.94998e-08
-2.74297e-07
1.69808e-08
-2.84705e-07
1.42488e-08
-2.92986e-07
1.13401e-08
-2.99039e-07
8.29038e-09
-3.02785e-07
5.13485e-09
-3.04173e-07
1.90891e-09
-3.03179e-07
-1.35163e-09
-2.99804e-07
-4.61018e-09
-2.94078e-07
-7.82898e-09
-2.86059e-07
-1.09689e-08
-2.75836e-07
-1.39891e-08
-2.63528e-07
-1.68473e-08
-2.49288e-07
-1.94991e-08
-2.33298e-07
-2.18992e-08
-2.15779e-07
-2.40006e-08
-1.96983e-07
-2.57559e-08
-1.77198e-07
-2.71175e-08
-1.56744e-07
-2.80387e-08
-1.35975e-07
-2.84743e-08
-1.15273e-07
-2.83826e-08
-9.50445e-08
-2.77262e-08
-7.57191e-08
-2.64748e-08
-5.77362e-08
-2.4608e-08
-4.15365e-08
-2.212e-08
-2.75431e-08
-1.90268e-08
-1.61341e-08
-1.53796e-08
-7.59915e-09
-1.12917e-08
-2.09396e-09
-6.97966e-09
5.21124e-10
-2.81632e-09
8.03927e-10
5.09743e-10
1.70408e-09
-2.35491e-10
-1.41163e-09
-2.99254e-09
2.43519e-09
-9.40409e-09
9.49315e-09
-1.99583e-08
1.7819e-08
-3.47299e-08
2.63149e-08
-5.3497e-08
3.43157e-08
-7.58456e-08
4.14308e-08
-1.01246e-07
4.74487e-08
-1.29106e-07
5.22701e-08
-1.58809e-07
5.58656e-08
-1.89736e-07
5.82507e-08
-2.21285e-07
5.94696e-08
-2.52883e-07
5.95846e-08
-2.8399e-07
5.86693e-08
-3.14107e-07
5.68038e-08
-3.42777e-07
5.40714e-08
-3.69584e-07
5.05565e-08
-3.94158e-07
4.63431e-08
-4.16172e-07
4.15139e-08
-4.35341e-07
3.61498e-08
-4.51423e-07
3.033e-08
-4.64215e-07
2.41323e-08
-4.73557e-07
1.76331e-08
-4.79331e-07
1.09085e-08
-4.81457e-07
4.03479e-09
-4.79898e-07
-2.91099e-09
-4.74658e-07
-9.85003e-09
-4.65786e-07
-1.67013e-08
-4.53373e-07
-2.3381e-08
-4.3756e-07
-2.98021e-08
-4.18533e-07
-3.58744e-08
-3.96528e-07
-4.15046e-08
-3.71831e-07
-4.65965e-08
-3.44779e-07
-5.10523e-08
-3.15762e-07
-5.4773e-08
-2.85219e-07
-5.76604e-08
-2.53639e-07
-5.96189e-08
-2.21555e-07
-6.0558e-08
-1.89543e-07
-6.03951e-08
-1.58209e-07
-5.90595e-08
-1.28187e-07
-5.64976e-08
-1.00115e-07
-5.26798e-08
-7.46243e-08
-4.76105e-08
-5.23077e-08
-4.13434e-08
-3.36814e-08
-3.40059e-08
-1.91336e-08
-2.58395e-08
-8.84926e-09
-1.7264e-08
-2.70285e-09
-8.96275e-09
-1.47592e-10
-2.04552e-09
1.55647e-09
-1.47503e-09
6.3396e-11
-7.1088e-09
8.06896e-09
-1.76642e-08
2.00485e-08
-3.3457e-08
3.36118e-08
-5.44525e-08
4.73104e-08
-8.03388e-08
6.02021e-08
-1.10605e-07
7.16971e-08
-1.44608e-07
8.1452e-08
-1.81627e-07
8.92885e-08
-2.209e-07
9.51387e-08
-2.61659e-07
9.90096e-08
-3.03148e-07
1.00959e-07
-3.4464e-07
1.01077e-07
-3.85448e-07
9.94774e-08
-4.24931e-07
9.62866e-08
-4.62499e-07
9.1639e-08
-4.97615e-07
8.56727e-08
-5.29798e-07
7.85265e-08
-5.58623e-07
7.03382e-08
-5.83717e-07
6.12439e-08
-6.04764e-07
5.13772e-08
-6.21501e-07
4.08698e-08
-6.3372e-07
2.98517e-08
-6.41264e-07
1.84525e-08
-6.44031e-07
6.802e-09
-6.41974e-07
-4.96833e-09
-6.351e-07
-1.67244e-08
-6.23472e-07
-2.83285e-08
-6.07215e-07
-3.96385e-08
-5.8651e-07
-5.05072e-08
-5.61602e-07
-6.07826e-08
-5.32798e-07
-7.03077e-08
-5.00473e-07
-7.89217e-08
-4.65064e-07
-8.64612e-08
-4.27075e-07
-9.27624e-08
-3.87072e-07
-9.76634e-08
-3.45683e-07
-1.01008e-07
-3.0359e-07
-1.02651e-07
-2.61524e-07
-1.0246e-07
-2.20255e-07
-1.00329e-07
-1.80574e-07
-9.61787e-08
-1.43278e-07
-8.99756e-08
-1.09145e-07
-8.1744e-08
-7.88977e-08
-7.15904e-08
-5.31667e-08
-5.97369e-08
-3.24329e-08
-4.65733e-08
-1.6964e-08
-3.2733e-08
-6.73422e-09
-1.91926e-08
-1.35686e-09
-7.4229e-09
1.99609e-10
-2.73842e-09
2.80183e-09
-1.142e-08
1.67505e-08
-2.6336e-08
3.49646e-08
-4.75371e-08
5.48129e-08
-7.48097e-08
7.45831e-08
-1.07711e-07
9.31032e-08
-1.45617e-07
1.09603e-07
-1.87776e-07
1.23611e-07
-2.33351e-07
1.34864e-07
-2.81464e-07
1.43252e-07
-3.31223e-07
1.48768e-07
-3.81745e-07
1.51481e-07
-4.3218e-07
1.51511e-07
-4.81717e-07
1.49014e-07
-5.29598e-07
1.44168e-07
-5.75123e-07
1.37165e-07
-6.17655e-07
1.28204e-07
-6.56617e-07
1.17489e-07
-6.91502e-07
1.05223e-07
-7.21864e-07
9.16057e-08
-7.47323e-07
7.68366e-08
-7.67565e-07
6.11117e-08
-7.82338e-07
4.46253e-08
-7.91457e-07
2.7571e-08
-7.94799e-07
1.01435e-08
-7.92306e-07
-7.46061e-09
-7.8399e-07
-2.50407e-08
-7.69928e-07
-4.23909e-08
-7.50267e-07
-5.92993e-08
-7.25227e-07
-7.55468e-08
-6.95102e-07
-9.09073e-08
-6.60261e-07
-1.05149e-07
-6.2115e-07
-1.18033e-07
-5.78292e-07
-1.2932e-07
-5.32285e-07
-1.38769e-07
-4.83804e-07
-1.46145e-07
-4.3359e-07
-1.51222e-07
-3.8245e-07
-1.5379e-07
-3.31245e-07
-1.53666e-07
-2.80874e-07
-1.507e-07
-2.32263e-07
-1.4479e-07
-1.86336e-07
-1.35902e-07
-1.43997e-07
-1.24084e-07
-1.06084e-07
-1.09503e-07
-7.33377e-08
-9.24829e-08
-4.63505e-08
-7.35605e-08
-2.55151e-08
-5.35684e-08
-1.09766e-08
-3.3731e-08
-2.60257e-09
-1.5797e-08
-2.40297e-09
-3.9571e-09
6.75894e-09
-1.56544e-08
2.84478e-08
-3.49468e-08
5.4257e-08
-6.15727e-08
8.14388e-08
-9.50966e-08
1.08107e-07
-1.34909e-07
1.32916e-07
-1.80254e-07
1.54948e-07
-2.3026e-07
1.73616e-07
-2.8398e-07
1.88585e-07
-3.40427e-07
1.99699e-07
-3.98599e-07
2.0694e-07
-4.57507e-07
2.1039e-07
-5.16194e-07
2.10198e-07
-5.73748e-07
2.06568e-07
-6.29311e-07
1.99731e-07
-6.82092e-07
1.89945e-07
-7.31366e-07
1.77478e-07
-7.76481e-07
1.62604e-07
-8.16856e-07
1.45598e-07
-8.51986e-07
1.26735e-07
-8.81437e-07
1.06288e-07
-9.0485e-07
8.45247e-08
-9.21938e-07
6.17139e-08
-9.3249e-07
3.81224e-08
-9.36364e-07
1.40181e-08
-9.33497e-07
-1.03275e-08
-9.239e-07
-3.4638e-08
-9.07661e-07
-5.86299e-08
-8.84949e-07
-8.20116e-08
-8.56013e-07
-1.04482e-07
-8.21189e-07
-1.25732e-07
-7.80895e-07
-1.45442e-07
-7.35639e-07
-1.63289e-07
-6.86015e-07
-1.78944e-07
-6.32701e-07
-1.92083e-07
-5.76461e-07
-2.02385e-07
-5.18136e-07
-2.09548e-07
-4.58635e-07
-2.13291e-07
-3.98928e-07
-2.13373e-07
-3.40029e-07
-2.09599e-07
-2.82977e-07
-2.01842e-07
-2.28815e-07
-1.90064e-07
-1.78557e-07
-1.74342e-07
-1.3316e-07
-1.549e-07
-9.34837e-08
-1.32159e-07
-6.02528e-08
-1.06791e-07
-3.40217e-08
-7.97995e-08
-1.51489e-08
-5.26038e-08
-3.79886e-09
-2.7147e-08
-6.20184e-09
-5.09133e-09
1.18503e-08
-1.97002e-08
4.30566e-08
-4.32836e-08
7.78404e-08
-7.52662e-08
1.13421e-07
-1.1497e-07
1.4781e-07
-1.61595e-07
1.79541e-07
-2.1423e-07
2.07584e-07
-2.71876e-07
2.31262e-07
-3.33469e-07
2.50177e-07
-3.97913e-07
2.64142e-07
-4.64104e-07
2.73132e-07
-5.30957e-07
2.77242e-07
-5.97419e-07
2.7666e-07
-6.62488e-07
2.71637e-07
-7.25224e-07
2.62467e-07
-7.84755e-07
2.49477e-07
-8.40285e-07
2.33008e-07
-8.91094e-07
2.13413e-07
-9.36543e-07
1.91048e-07
-9.76075e-07
1.66267e-07
-1.00921e-06
1.39423e-07
-1.03555e-06
1.10868e-07
-1.05479e-06
8.0948e-08
-1.06668e-06
5.00116e-08
-1.07107e-06
1.84079e-08
-1.06788e-06
-1.35097e-08
-1.05714e-06
-4.5381e-08
-1.03893e-06
-7.68372e-08
-1.01345e-06
-1.07499e-07
-9.80955e-07
-1.36974e-07
-9.41825e-07
-1.64862e-07
-8.96518e-07
-1.90749e-07
-8.45592e-07
-2.14215e-07
-7.89699e-07
-2.34837e-07
-7.29588e-07
-2.52194e-07
-6.66097e-07
-2.65876e-07
-6.00151e-07
-2.75494e-07
-5.3275e-07
-2.80692e-07
-4.64963e-07
-2.81161e-07
-3.97904e-07
-2.76657e-07
-3.3272e-07
-2.67026e-07
-2.70563e-07
-2.52221e-07
-2.12564e-07
-2.32341e-07
-1.59802e-07
-2.07663e-07
-1.13269e-07
-1.78692e-07
-7.38457e-08
-1.46215e-07
-4.22712e-08
-1.11374e-07
-1.91388e-08
-7.57362e-08
-4.91243e-09
-4.13735e-08
-1.11143e-08
-6.14381e-09
1.79941e-08
-2.35381e-08
6.04509e-08
-5.12922e-08
1.05595e-07
-8.85317e-08
1.50661e-07
-1.3433e-07
1.93608e-07
-1.87683e-07
2.32894e-07
-2.47512e-07
2.67412e-07
-3.12671e-07
2.96422e-07
-3.81973e-07
3.1948e-07
-4.5421e-07
3.36379e-07
-5.28178e-07
3.47099e-07
-6.02694e-07
3.51759e-07
-6.76622e-07
3.50587e-07
-7.48877e-07
3.43892e-07
-8.18443e-07
3.32034e-07
-8.84382e-07
3.15415e-07
-9.45833e-07
2.94459e-07
-1.00202e-06
2.696e-07
-1.05226e-06
2.41283e-07
-1.09594e-06
2.09947e-07
-1.13254e-06
1.76033e-07
-1.16166e-06
1.39979e-07
-1.18292e-06
1.02217e-07
-1.1961e-06
6.31842e-08
-1.20101e-06
2.33153e-08
-1.19757e-06
-1.69476e-08
-1.18579e-06
-5.71546e-08
-1.16579e-06
-9.68448e-08
-1.13774e-06
-1.35544e-07
-1.10195e-06
-1.72765e-07
-1.05881e-06
-2.08005e-07
-1.00881e-06
-2.40749e-07
-9.5255e-07
-2.70473e-07
-8.90736e-07
-2.9665e-07
-8.24173e-07
-3.18757e-07
-7.53766e-07
-3.36283e-07
-6.80513e-07
-3.48747e-07
-6.05497e-07
-3.55707e-07
-5.29877e-07
-3.56781e-07
-4.54864e-07
-3.5167e-07
-3.8171e-07
-3.4018e-07
-3.11679e-07
-3.22252e-07
-2.46024e-07
-2.97996e-07
-1.85955e-07
-2.67732e-07
-1.32615e-07
-2.32031e-07
-8.70552e-08
-1.91775e-07
-5.02157e-08
-1.48214e-07
-2.29297e-08
-1.03022e-07
-5.94623e-09
-5.8357e-08
-1.70605e-08
-7.13021e-09
2.51243e-08
-2.71959e-08
8.05166e-08
-5.90069e-08
1.37406e-07
-1.0141e-07
1.93064e-07
-1.53233e-07
2.45431e-07
-2.13261e-07
2.92922e-07
-2.80233e-07
3.34384e-07
-3.5285e-07
3.69038e-07
-4.29788e-07
3.96418e-07
-5.09723e-07
4.16314e-07
-5.91343e-07
4.28719e-07
-6.73375e-07
4.33791e-07
-7.54595e-07
4.31807e-07
-8.33843e-07
4.2314e-07
-9.10035e-07
4.08226e-07
-9.82169e-07
3.8755e-07
-1.04933e-06
3.6162e-07
-1.1107e-06
3.30966e-07
-1.16553e-06
2.96119e-07
-1.2132e-06
2.57615e-07
-1.25315e-06
2.15985e-07
-1.28493e-06
1.71759e-07
-1.30818e-06
1.25462e-07
-1.32262e-06
7.76206e-08
-1.32806e-06
2.8762e-08
-1.32443e-06
-2.0579e-08
-1.31173e-06
-6.98576e-08
-1.29006e-06
-1.18516e-07
-1.25962e-06
-1.65981e-07
-1.22072e-06
-2.1166e-07
-1.17378e-06
-2.54946e-07
-1.11932e-06
-2.95215e-07
-1.05796e-06
-3.31832e-07
-9.90451e-07
-3.64157e-07
-9.17651e-07
-3.91556e-07
-8.40523e-07
-4.13411e-07
-7.60134e-07
-4.29136e-07
-6.77645e-07
-4.38196e-07
-5.94299e-07
-4.40127e-07
-5.11406e-07
-4.34563e-07
-4.30324e-07
-4.21261e-07
-3.52437e-07
-4.00139e-07
-2.79125e-07
-3.71308e-07
-2.11747e-07
-3.3511e-07
-1.51608e-07
-2.92171e-07
-9.99416e-08
-2.43441e-07
-5.79003e-08
-1.90255e-07
-2.65543e-08
-1.34368e-07
-6.9167e-09
-7.79946e-08
-2.39772e-08
-8.06972e-09
3.3194e-08
-3.07231e-08
1.0317e-07
-6.65085e-08
1.73191e-07
-1.14014e-07
2.4057e-07
-1.71828e-07
3.03245e-07
-2.38522e-07
3.59616e-07
-3.12643e-07
4.08506e-07
-3.92729e-07
4.49123e-07
-4.7731e-07
4.81e-07
-5.64936e-07
5.0394e-07
-6.54186e-07
5.1797e-07
-7.43689e-07
5.23294e-07
-8.32137e-07
5.20255e-07
-9.18297e-07
5.09299e-07
-1.00102e-06
4.90948e-07
-1.07924e-06
4.65774e-07
-1.15201e-06
4.34384e-07
-1.21844e-06
3.97402e-07
-1.27778e-06
3.55458e-07
-1.32935e-06
3.09186e-07
-1.37258e-06
2.59214e-07
-1.40699e-06
2.06167e-07
-1.43219e-06
1.50665e-07
-1.4479e-06
9.33308e-08
-1.45393e-06
3.47861e-08
-1.45017e-06
-2.43379e-08
-1.43663e-06
-8.33985e-08
-1.41341e-06
-1.41737e-07
-1.38071e-06
-1.98675e-07
-1.33886e-06
-2.53515e-07
-1.28827e-06
-3.05535e-07
-1.22949e-06
-3.53997e-07
-1.16317e-06
-3.98147e-07
-1.0901e-06
-4.37227e-07
-1.01118e-06
-4.70481e-07
-9.27415e-07
-4.97173e-07
-8.39947e-07
-5.16605e-07
-7.50008e-07
-5.28135e-07
-6.58929e-07
-5.31206e-07
-5.6812e-07
-5.25372e-07
-4.79051e-07
-5.10331e-07
-3.9323e-07
-4.8596e-07
-3.12182e-07
-4.52355e-07
-2.37423e-07
-4.0987e-07
-1.70433e-07
-3.5916e-07
-1.12644e-07
-3.01231e-07
-6.5421e-08
-2.37478e-07
-3.00689e-08
-1.6972e-07
-7.84486e-09
-1.00219e-07
-3.18221e-08
-8.98227e-09
4.21763e-08
-3.4178e-08
1.28366e-07
-7.39013e-08
2.12914e-07
-1.26497e-07
2.93166e-07
-1.90321e-07
3.67068e-07
-2.63724e-07
4.33019e-07
-3.45061e-07
4.89843e-07
-4.32691e-07
5.36753e-07
-5.24994e-07
5.73302e-07
-6.20383e-07
5.99329e-07
-7.17322e-07
6.14909e-07
-8.1434e-07
6.20312e-07
-9.10041e-07
6.15957e-07
-1.00312e-06
6.02377e-07
-1.09236e-06
5.80189e-07
-1.17665e-06
5.50068e-07
-1.25499e-06
5.1272e-07
-1.32646e-06
4.68875e-07
-1.39027e-06
4.19268e-07
-1.44572e-06
3.64635e-07
-1.49221e-06
3.05704e-07
-1.52925e-06
2.432e-07
-1.55642e-06
1.77843e-07
-1.57344e-06
1.1035e-07
-1.5801e-06
4.14416e-08
-1.57628e-06
-2.81527e-08
-1.56199e-06
-9.76898e-08
-1.53732e-06
-1.66407e-07
-1.50248e-06
-2.3352e-07
-1.45777e-06
-2.98218e-07
-1.40364e-06
-3.59663e-07
-1.34064e-06
-4.16996e-07
-1.26945e-06
-4.69337e-07
-1.19088e-06
-5.158e-07
-1.10586e-06
-5.55499e-07
-1.01547e-06
-5.87569e-07
-9.20886e-07
-6.11187e-07
-8.23429e-07
-6.25592e-07
-7.24516e-07
-6.30119e-07
-6.2566e-07
-6.24228e-07
-5.28451e-07
-6.0754e-07
-4.34535e-07
-5.79876e-07
-3.45589e-07
-5.41301e-07
-2.63301e-07
-4.92158e-07
-1.89341e-07
-4.3312e-07
-1.25345e-07
-3.65227e-07
-7.29004e-08
-2.89922e-07
-3.35407e-08
-2.0908e-07
-8.75301e-09
-1.25006e-07
-4.05751e-08
-9.88723e-09
5.20635e-08
-3.76217e-08
1.561e-07
-8.12992e-08
2.56592e-07
-1.39031e-07
3.50898e-07
-2.08941e-07
4.36978e-07
-2.89161e-07
5.1324e-07
-3.77842e-07
5.78523e-07
-4.73158e-07
6.3207e-07
-5.73328e-07
6.73472e-07
-6.76622e-07
7.02622e-07
-7.8138e-07
7.19667e-07
-8.86026e-07
7.24958e-07
-9.89076e-07
7.19006e-07
-1.08915e-06
7.02449e-07
-1.18497e-06
6.76009e-07
-1.27537e-06
6.40471e-07
-1.35931e-06
5.96658e-07
-1.43584e-06
5.45408e-07
-1.50414e-06
4.87568e-07
-1.56349e-06
4.23981e-07
-1.61326e-06
3.5548e-07
-1.65296e-06
2.82893e-07
-1.68215e-06
2.07039e-07
-1.70054e-06
1.28734e-07
-1.70789e-06
4.87962e-08
-1.7041e-06
-3.19446e-08
-1.68915e-06
-1.12644e-07
-1.66312e-06
-1.92435e-07
-1.62622e-06
-2.70423e-07
-1.57875e-06
-3.45682e-07
-1.52116e-06
-4.17254e-07
-1.454e-06
-4.84152e-07
-1.37798e-06
-5.45365e-07
-1.29391e-06
-5.99868e-07
-1.20277e-06
-6.46637e-07
-1.10567e-06
-6.84664e-07
-1.00387e-06
-7.12987e-07
-8.98755e-07
-7.30712e-07
-7.91827e-07
-7.37047e-07
-6.84713e-07
-7.31342e-07
-5.79131e-07
-7.13121e-07
-4.76875e-07
-6.82133e-07
-3.79788e-07
-6.38387e-07
-2.89743e-07
-5.82203e-07
-2.08614e-07
-5.1425e-07
-1.38253e-07
-4.35588e-07
-8.04738e-08
-3.47701e-07
-3.70408e-08
-2.52513e-07
-9.66333e-09
-1.52384e-07
-5.02385e-08
-1.0803e-08
6.28665e-08
-4.11146e-08
1.86412e-07
-8.88183e-08
3.04296e-07
-1.51795e-07
4.13875e-07
-2.27934e-07
5.13117e-07
-3.15143e-07
6.00448e-07
-4.1136e-07
6.74741e-07
-5.14568e-07
7.35279e-07
-6.22812e-07
7.81716e-07
-7.34212e-07
8.14022e-07
-8.46979e-07
8.32434e-07
-9.59424e-07
8.37403e-07
-1.06997e-06
8.29554e-07
-1.17716e-06
8.09642e-07
-1.27967e-06
7.78512e-07
-1.37627e-06
7.37074e-07
-1.46588e-06
6.8627e-07
-1.54754e-06
6.27062e-07
-1.62038e-06
5.60412e-07
-1.68368e-06
4.87276e-07
-1.73679e-06
4.08596e-07
-1.7792e-06
3.25303e-07
-1.81048e-06
2.38317e-07
-1.8303e-06
1.48554e-07
-1.83843e-06
5.69303e-08
-1.83475e-06
-3.56263e-08
-1.81923e-06
-1.2817e-07
-1.79193e-06
-2.19728e-07
-1.75306e-06
-3.09295e-07
-1.70292e-06
-3.95828e-07
-1.64193e-06
-4.78244e-07
-1.57065e-06
-5.55426e-07
-1.4898e-06
-6.26221e-07
-1.40021e-06
-6.89458e-07
-1.30288e-06
-7.43961e-07
-1.19898e-06
-7.88568e-07
-1.0898e-06
-8.22162e-07
-9.7682e-07
-8.43696e-07
-8.61632e-07
-8.52235e-07
-7.4598e-07
-8.46994e-07
-6.31718e-07
-8.27383e-07
-5.20798e-07
-7.93052e-07
-4.15246e-07
-7.43939e-07
-3.17134e-07
-6.80315e-07
-2.28552e-07
-6.02832e-07
-1.51584e-07
-5.12556e-07
-8.82809e-08
-4.11004e-07
-4.06412e-08
-3.00153e-07
-1.05973e-08
-1.82428e-07
-6.08358e-08
-1.17467e-08
7.46132e-08
-4.4715e-08
2.1938e-07
-9.65726e-08
3.56153e-07
-1.64965e-07
4.82267e-07
-2.47543e-07
5.95694e-07
-3.41978e-07
6.94884e-07
-4.45989e-07
7.78751e-07
-5.57355e-07
8.46645e-07
-6.73938e-07
8.98299e-07
-7.93698e-07
9.33783e-07
-9.14709e-07
9.53444e-07
-1.03517e-06
9.57861e-07
-1.1534e-06
9.4779e-07
-1.26788e-06
9.24121e-07
-1.37721e-06
8.87839e-07
-1.48012e-06
8.3999e-07
-1.57551e-06
7.81654e-07
-1.66237e-06
7.13919e-07
-1.73983e-06
6.37873e-07
-1.80714e-06
5.54588e-07
-1.86366e-06
4.65119e-07
-1.90886e-06
3.705e-07
-1.9423e-06
2.71754e-07
-1.96364e-06
1.69895e-07
-1.97264e-06
6.59344e-08
-1.96917e-06
-3.91013e-08
-1.95317e-06
-1.44167e-07
-1.92471e-06
-2.48186e-07
-1.88396e-06
-3.50042e-07
-1.83122e-06
-4.48574e-07
-1.76689e-06
-5.42573e-07
-1.69153e-06
-6.30782e-07
-1.60585e-06
-7.11903e-07
-1.5107e-06
-7.84608e-07
-1.4071e-06
-8.47557e-07
-1.29625e-06
-8.99419e-07
-1.17951e-06
-9.38902e-07
-1.05842e-06
-9.64788e-07
-9.3468e-07
-9.75976e-07
-8.10151e-07
-9.71523e-07
-6.86836e-07
-9.50698e-07
-5.66859e-07
-9.1303e-07
-4.52439e-07
-8.58359e-07
-3.45865e-07
-7.86889e-07
-2.49463e-07
-6.99235e-07
-1.65561e-07
-5.96458e-07
-9.64623e-08
-4.80103e-07
-4.44128e-08
-3.52202e-07
-1.15757e-08
-2.15265e-07
-7.24115e-08
-1.27345e-08
8.73477e-08
-4.84783e-08
2.55124e-07
-1.04672e-07
4.12347e-07
-1.78715e-07
5.5631e-07
-2.68006e-07
6.84985e-07
-3.69971e-07
7.9685e-07
-4.82094e-07
8.90874e-07
-6.01939e-07
9.6649e-07
-7.27175e-07
1.02353e-06
-8.55592e-07
1.0622e-06
-9.8512e-07
1.08297e-06
-1.11384e-06
1.08658e-06
-1.23997e-06
1.07393e-06
-1.36192e-06
1.04607e-06
-1.47822e-06
1.00414e-06
-1.58758e-06
9.49349e-07
-1.68884e-06
8.82915e-07
-1.78099e-06
8.06069e-07
-1.86315e-06
7.2003e-07
-1.93455e-06
6.2599e-07
-1.99455e-06
5.2512e-07
-2.04261e-06
4.1856e-07
-2.07829e-06
3.07432e-07
-2.10124e-06
1.92846e-07
-2.11121e-06
7.59077e-08
-2.10805e-06
-4.22628e-08
-2.09169e-06
-1.60524e-07
-2.06218e-06
-2.77697e-07
-2.01967e-06
-3.92558e-07
-1.96441e-06
-5.03827e-07
-1.89682e-06
-6.10165e-07
-1.81743e-06
-7.10173e-07
-1.72693e-06
-8.02401e-07
-1.62619e-06
-8.85354e-07
-1.51623e-06
-9.57513e-07
-1.39829e-06
-1.01736e-06
-1.27378e-06
-1.06341e-06
-1.14431e-06
-1.09426e-06
-1.01168e-06
-1.1086e-06
-8.77895e-07
-1.10531e-06
-7.45099e-07
-1.08349e-06
-6.15603e-07
-1.04253e-06
-4.91839e-07
-9.82123e-07
-3.76328e-07
-9.024e-07
-2.7165e-07
-8.03913e-07
-1.80402e-07
-6.87706e-07
-1.05156e-07
-5.55348e-07
-4.84249e-08
-4.08934e-07
-1.26183e-08
-2.51071e-07
-8.50298e-08
-1.37814e-08
1.01129e-07
-5.2457e-08
2.938e-07
-1.13222e-07
4.73111e-07
-1.9321e-07
6.36299e-07
-2.89552e-07
7.81327e-07
-3.99411e-07
9.06709e-07
-5.2002e-07
1.01148e-06
-6.48715e-07
1.09518e-06
-7.82958e-07
1.15778e-06
-9.20361e-07
1.1996e-06
-1.0587e-06
1.22132e-06
-1.19594e-06
1.22381e-06
-1.3302e-06
1.20819e-06
-1.45979e-06
1.17566e-06
-1.58322e-06
1.12757e-06
-1.69914e-06
1.06527e-06
-1.80637e-06
9.90147e-07
-1.90389e-06
9.03589e-07
-1.99081e-06
8.06947e-07
-2.06636e-06
7.01543e-07
-2.1299e-06
5.88662e-07
-2.1809e-06
4.69551e-07
-2.21889e-06
3.45429e-07
-2.24355e-06
2.17498e-07
-2.25459e-06
8.69547e-08
-2.25186e-06
-4.49942e-08
-2.23527e-06
-1.77115e-07
-2.20484e-06
-3.08131e-07
-2.16068e-06
-4.36714e-07
-2.10304e-06
-5.61465e-07
-2.03229e-06
-6.80917e-07
-1.94894e-06
-7.93526e-07
-1.85366e-06
-8.9768e-07
-1.74731e-06
-9.91707e-07
-1.63092e-06
-1.0739e-06
-1.50576e-06
-1.14253e-06
-1.37327e-06
-1.1959e-06
-1.23515e-06
-1.23238e-06
-1.0933e-06
-1.25045e-06
-9.49836e-07
-1.24877e-06
-8.07088e-07
-1.22624e-06
-6.67558e-07
-1.18206e-06
-5.33904e-07
-1.11578e-06
-4.08904e-07
-1.0274e-06
-2.95415e-07
-9.17402e-07
-1.96323e-07
-7.86798e-07
-1.14499e-07
-6.37172e-07
-5.27447e-08
-4.70688e-07
-1.37443e-08
-2.90072e-07
-9.87741e-08
-1.49015e-08
1.16031e-07
-5.67007e-08
3.35599e-07
-1.2232e-07
5.38731e-07
-2.08606e-07
7.22585e-07
-3.12396e-07
8.85117e-07
-4.30568e-07
1.02488e-06
-5.60088e-07
1.141e-06
-6.98043e-07
1.23314e-06
-8.41678e-07
1.30141e-06
-9.88417e-07
1.34634e-06
-1.13588e-06
1.36878e-06
-1.28189e-06
1.36982e-06
-1.42448e-06
1.35078e-06
-1.5619e-06
1.31308e-06
-1.69258e-06
1.25825e-06
-1.81515e-06
1.18784e-06
-1.92842e-06
1.10342e-06
-2.03135e-06
1.00652e-06
-2.12306e-06
8.9866e-07
-2.2028e-06
7.8128e-07
-2.26992e-06
6.55784e-07
-2.32389e-06
5.23523e-07
-2.36428e-06
3.85812e-07
-2.39072e-06
2.43939e-07
-2.40295e-06
9.91819e-08
-2.40077e-06
-4.7169e-08
-2.38409e-06
-1.93796e-07
-2.35289e-06
-3.39332e-07
-2.30725e-06
-4.82348e-07
-2.24739e-06
-6.21332e-07
-2.17362e-06
-7.54686e-07
-2.08642e-06
-8.80721e-07
-1.98645e-06
-9.97656e-07
-1.87452e-06
-1.10363e-06
-1.75168e-06
-1.19674e-06
-1.61919e-06
-1.27502e-06
-1.47856e-06
-1.33654e-06
-1.33152e-06
-1.37941e-06
-1.1801e-06
-1.40187e-06
-1.02654e-06
-1.40233e-06
-8.73341e-07
-1.37944e-06
-7.23217e-07
-1.33218e-06
-5.79071e-07
-1.25992e-06
-4.43961e-07
-1.16251e-06
-3.21045e-07
-1.04032e-06
-2.13533e-07
-8.94311e-07
-1.24622e-07
-7.26083e-07
-5.74381e-08
-5.37871e-07
-1.49724e-08
-3.32537e-07
-1.13746e-07
-1.61083e-08
1.32139e-07
-6.12563e-08
3.80747e-07
-1.32062e-07
6.09536e-07
-2.2505e-07
8.15573e-07
-3.36738e-07
9.96805e-07
-4.63693e-07
1.15184e-06
-6.02588e-07
1.2799e-06
-7.50245e-07
1.3808e-06
-9.03675e-07
1.45484e-06
-1.0601e-06
1.50277e-06
-1.21698e-06
1.52566e-06
-1.372e-06
1.52485e-06
-1.52311e-06
1.50188e-06
-1.66847e-06
1.45844e-06
-1.80648e-06
1.39626e-06
-1.93574e-06
1.3171e-06
-2.05506e-06
1.22273e-06
-2.16341e-06
1.11487e-06
-2.2599e-06
9.95157e-07
-2.34381e-06
8.65191e-07
-2.41452e-06
7.26486e-07
-2.47149e-06
5.80497e-07
-2.5143e-06
4.28625e-07
-2.5426e-06
2.7224e-07
-2.55611e-06
1.12693e-07
-2.55463e-06
-4.86525e-08
-2.53802e-06
-2.10405e-07
-2.50624e-06
-3.71115e-07
-2.45933e-06
-5.29259e-07
-2.39744e-06
-6.83219e-07
-2.32086e-06
-8.31271e-07
-2.23e-06
-9.71575e-07
-2.12548e-06
-1.10218e-06
-2.00808e-06
-1.22103e-06
-1.87882e-06
-1.32599e-06
-1.73897e-06
-1.41487e-06
-1.59006e-06
-1.48545e-06
-1.43389e-06
-1.53558e-06
-1.27258e-06
-1.56319e-06
-1.1085e-06
-1.56641e-06
-9.4434e-07
-1.5436e-06
-7.83033e-07
-1.49349e-06
-6.2775e-07
-1.41521e-06
-4.81848e-07
-1.30841e-06
-3.48821e-07
-1.17335e-06
-2.32234e-07
-1.0109e-06
-1.35653e-07
-8.22664e-07
-6.2569e-08
-6.10956e-07
-1.63206e-08
-3.78786e-07
-1.30067e-07
-1.74145e-08
1.49553e-07
-6.61685e-08
4.29501e-07
-1.42535e-07
6.85902e-07
-2.4268e-07
9.15719e-07
-3.62764e-07
1.11689e-06
-4.99012e-07
1.28808e-06
-6.47776e-07
1.42866e-06
-8.05593e-07
1.53861e-06
-9.69222e-07
1.61847e-06
-1.13568e-06
1.66922e-06
-1.30224e-06
1.69222e-06
-1.46647e-06
1.68908e-06
-1.62622e-06
1.66163e-06
-1.77958e-06
1.61181e-06
-1.92493e-06
1.5416e-06
-2.06086e-06
1.45303e-06
-2.18616e-06
1.34804e-06
-2.29984e-06
1.22854e-06
-2.40104e-06
1.09635e-06
-2.48904e-06
9.53199e-07
-2.56327e-06
8.00712e-07
-2.62322e-06
6.40443e-07
-2.66847e-06
4.73877e-07
-2.69868e-06
3.02453e-07
-2.71357e-06
1.27585e-07
-2.71292e-06
-4.93038e-08
-2.69657e-06
-2.26757e-07
-2.66443e-06
-4.03257e-07
-2.61649e-06
-5.77197e-07
-2.55285e-06
-7.46859e-07
-2.47372e-06
-9.10397e-07
-2.37947e-06
-1.06583e-06
-2.27064e-06
-1.21102e-06
-2.14796e-06
-1.34371e-06
-2.01241e-06
-1.46154e-06
-1.86525e-06
-1.56203e-06
-1.70802e-06
-1.64268e-06
-1.54257e-06
-1.70103e-06
-1.37109e-06
-1.73467e-06
-1.19611e-06
-1.74139e-06
-1.02049e-06
-1.71922e-06
-8.47409e-07
-1.66657e-06
-6.80311e-07
-1.5823e-06
-5.22889e-07
-1.46583e-06
-3.79005e-07
-1.31723e-06
-2.52622e-07
-1.13728e-06
-1.47718e-07
-9.27567e-07
-6.81999e-08
-6.90474e-07
-1.78071e-08
-4.29179e-07
-1.47874e-07
-1.88325e-08
1.68386e-07
-7.14799e-08
4.82148e-07
-1.53822e-07
7.68245e-07
-2.61623e-07
1.02352e-06
-3.90642e-07
1.24591e-06
-5.36724e-07
1.43417e-06
-6.95872e-07
1.58781e-06
-8.64307e-07
1.70705e-06
-1.03852e-06
1.79269e-06
-1.21531e-06
1.84601e-06
-1.39177e-06
1.86868e-06
-1.56534e-06
1.86265e-06
-1.73377e-06
1.83006e-06
-1.89511e-06
1.77315e-06
-2.04771e-06
1.6942e-06
-2.19017e-06
1.59548e-06
-2.32129e-06
1.47917e-06
-2.44012e-06
1.34737e-06
-2.54584e-06
1.20207e-06
-2.63779e-06
1.04515e-06
-2.7154e-06
8.78331e-07
-2.77824e-06
7.03274e-07
-2.82589e-06
5.2153e-07
-2.85803e-06
3.34596e-07
-2.87439e-06
1.43938e-07
-2.87471e-06
-4.89788e-08
-2.85882e-06
-2.42649e-07
-2.82658e-06
-4.35499e-07
-2.77792e-06
-6.25854e-07
-2.71287e-06
-8.11908e-07
-2.63157e-06
-9.91701e-07
-2.53429e-06
-1.1631e-06
-2.42149e-06
-1.32382e-06
-2.29384e-06
-1.47136e-06
-2.15226e-06
-1.60312e-06
-1.99795e-06
-1.71633e-06
-1.83246e-06
-1.80817e-06
-1.65768e-06
-1.87582e-06
-1.47585e-06
-1.91649e-06
-1.28965e-06
-1.92759e-06
-1.10212e-06
-1.90675e-06
-9.16679e-07
-1.85202e-06
-7.37082e-07
-1.7619e-06
-5.6738e-07
-1.63554e-06
-4.11844e-07
-1.47277e-06
-2.74881e-07
-1.27424e-06
-1.60938e-07
-1.04151e-06
-7.43925e-08
-7.77019e-07
-1.94494e-08
-4.84122e-07
-1.67324e-07
-2.03743e-08
1.8876e-07
-7.7232e-08
5.39006e-07
-1.66005e-07
8.57018e-07
-2.81999e-07
1.13951e-06
-4.20525e-07
1.38443e-06
-5.77004e-07
1.59064e-06
-7.47051e-07
1.75786e-06
-9.26548e-07
1.88655e-06
-1.1117e-06
1.97784e-06
-1.29906e-06
2.03336e-06
-1.48555e-06
2.05517e-06
-1.66849e-06
2.04559e-06
-1.84553e-06
2.00711e-06
-2.01471e-06
1.94233e-06
-2.17434e-06
1.85384e-06
-2.32305e-06
1.74419e-06
-2.4597e-06
1.61582e-06
-2.58337e-06
1.47104e-06
-2.69332e-06
1.31202e-06
-2.78893e-06
1.14076e-06
-2.86972e-06
9.59118e-07
-2.93527e-06
7.6882e-07
-2.98522e-06
5.71484e-07
-3.01927e-06
3.68648e-07
-3.03714e-06
1.6181e-07
-3.03859e-06
-4.75346e-08
-3.02338e-06
-2.57854e-07
-2.99134e-06
-4.67538e-07
-2.94234e-06
-6.74858e-07
-2.87631e-06
-8.77937e-07
-2.7933e-06
-1.07471e-06
-2.69348e-06
-1.26292e-06
-2.57721e-06
-1.44009e-06
-2.44505e-06
-1.60352e-06
-2.29783e-06
-1.75033e-06
-2.13671e-06
-1.87745e-06
-1.96318e-06
-1.9817e-06
-1.77914e-06
-2.05986e-06
-1.58691e-06
-2.10872e-06
-1.38927e-06
-2.12523e-06
-1.18944e-06
-2.10658e-06
-9.91104e-07
-2.05035e-06
-7.98338e-07
-1.95467e-06
-6.15585e-07
-1.81829e-06
-4.47566e-07
-1.64078e-06
-2.99188e-07
-1.42262e-06
-1.75428e-07
-1.16527e-06
-8.12072e-08
-8.7124e-07
-2.12654e-08
-5.44064e-07
-1.88589e-07
-2.20521e-08
2.10812e-07
-8.34655e-08
6.00419e-07
-1.7916e-07
9.52712e-07
-3.03919e-07
1.26427e-06
-4.5255e-07
1.53307e-06
-6.19997e-07
1.75809e-06
-8.01447e-07
1.93931e-06
-9.9241e-07
2.07751e-06
-1.18878e-06
2.1742e-06
-1.38687e-06
2.23145e-06
-1.58342e-06
2.25173e-06
-1.77562e-06
2.23779e-06
-1.96106e-06
2.19256e-06
-2.13776e-06
2.11902e-06
-2.30404e-06
2.02012e-06
-2.45857e-06
1.89872e-06
-2.60028e-06
1.75753e-06
-2.72834e-06
1.59909e-06
-2.84206e-06
1.42575e-06
-2.94094e-06
1.23964e-06
-3.02455e-06
1.04273e-06
-3.09254e-06
8.36812e-07
-3.14462e-06
6.23557e-07
-3.18049e-06
4.04526e-07
-3.19991e-06
1.81228e-07
-3.20261e-06
-4.48356e-08
-3.18834e-06
-2.72127e-07
-3.15685e-06
-4.99022e-07
-3.10795e-06
-7.23763e-07
-3.04147e-06
-9.44418e-07
-2.95734e-06
-1.15884e-06
-2.85562e-06
-1.36465e-06
-2.73652e-06
-1.55919e-06
-2.60049e-06
-1.73955e-06
-2.44824e-06
-1.90258e-06
-2.28082e-06
-2.04487e-06
-2.09966e-06
-2.16286e-06
-1.90663e-06
-2.25289e-06
-1.7041e-06
-2.31125e-06
-1.49493e-06
-2.33439e-06
-1.28254e-06
-2.31897e-06
-1.07085e-06
-2.26204e-06
-8.64292e-07
-2.16123e-06
-6.67727e-07
-2.01485e-06
-4.86378e-07
-1.82213e-06
-3.2571e-07
-1.58329e-06
-1.91303e-07
-1.29968e-06
-8.87041e-08
-9.7384e-07
-2.3273e-08
-6.09495e-07
-2.11862e-07
-2.38785e-08
2.34691e-07
-9.02217e-08
6.66762e-07
-1.93362e-07
1.05585e-06
-3.27491e-07
1.3984e-06
-4.8684e-07
1.69241e-06
-6.65821e-07
1.93707e-06
-8.59146e-07
2.13263e-06
-1.06192e-06
2.28028e-06
-1.2697e-06
2.38198e-06
-1.47854e-06
2.4403e-06
-1.68502e-06
2.45821e-06
-1.88621e-06
2.43898e-06
-2.07966e-06
2.386e-06
-2.26335e-06
2.30272e-06
-2.43569e-06
2.19246e-06
-2.59541e-06
2.05844e-06
-2.74153e-06
1.90365e-06
-2.8733e-06
1.73087e-06
-2.99019e-06
1.54263e-06
-3.09176e-06
1.34121e-06
-3.17771e-06
1.12867e-06
-3.24775e-06
9.0686e-07
-3.30167e-06
6.77474e-07
-3.33922e-06
4.42079e-07
-3.36017e-06
2.02175e-07
-3.36425e-06
-4.07597e-08
-3.35117e-06
-2.85207e-07
-3.32063e-06
-5.29556e-07
-3.27235e-06
-7.72045e-07
-3.20606e-06
-1.01071e-06
-3.12155e-06
-1.24335e-06
-3.01872e-06
-1.46747e-06
-2.89765e-06
-1.68026e-06
-2.7586e-06
-1.8786e-06
-2.60214e-06
-2.05904e-06
-2.42917e-06
-2.21784e-06
-2.24103e-06
-2.35101e-06
-2.03952e-06
-2.4544e-06
-1.827e-06
-2.52377e-06
-1.60642e-06
-2.55497e-06
-1.38135e-06
-2.54404e-06
-1.15598e-06
-2.48742e-06
-9.35082e-07
-2.38212e-06
-7.23985e-07
-2.22595e-06
-5.28461e-07
-2.01766e-06
-3.54602e-07
-1.75715e-06
-2.08675e-07
-1.44561e-06
-9.69434e-08
-1.08557e-06
-2.54907e-08
-6.80947e-07
-2.37353e-07
-2.58666e-08
2.60557e-07
-9.75438e-08
7.3844e-07
-2.0869e-07
1.167e-06
-3.52818e-07
1.54253e-06
-5.23507e-07
1.8631e-06
-7.14567e-07
2.12813e-06
-9.20182e-07
2.33825e-06
-1.13501e-06
2.49511e-06
-1.35426e-06
2.60124e-06
-1.57374e-06
2.65977e-06
-1.78983e-06
2.6743e-06
-1.99951e-06
2.64866e-06
-2.20032e-06
2.58681e-06
-2.39027e-06
2.49267e-06
-2.56783e-06
2.37002e-06
-2.73184e-06
2.22245e-06
-2.88146e-06
2.05326e-06
-3.01608e-06
1.86549e-06
-3.13529e-06
1.66184e-06
-3.2388e-06
1.44473e-06
-3.32642e-06
1.21629e-06
-3.39799e-06
9.78432e-07
-3.45336e-06
7.32842e-07