/*--------------------------------*- C++ -*----------------------------------*\
  =========                 |
  \\      /  F ield         | OpenFOAM: The Open Source CFD Toolbox
   \\    /   O peration     | Website:  https://openfoam.org
    \\  /    A nd           | Version:  7
     \\/     M anipulation  |
\*---------------------------------------------------------------------------*/
FoamFile
{
    version     2.0;
    format      ascii;
    class       volScalarField;
    location    "0.0268";
    object      p;
}
// * * * * * * * * * * * * * * * * * * * * * * * * * * * * * * * * * * * * * //

dimensions      [0 2 -2 0 0 0 0];

internalField   nonuniform List<scalar> 
2500
(
-1.22307e-05
6.3849
9.04903
10.144
10.7361
11.0853
11.2995
11.4405
11.5396
11.6129
11.6693
11.7144
11.7517
11.7836
11.8116
11.837
11.8607
11.8831
11.9049
11.9263
11.9475
11.9687
11.9901
12.0119
12.034
12.0566
12.0799
12.1038
12.1287
12.1545
12.1817
12.2104
12.241
12.2741
12.3101
12.3499
12.3945
12.4453
12.5042
12.5736
12.6576
12.7618
12.8957
13.0757
13.3339
13.7343
14.3936
15.5836
18.3639
24.8729
4.86818
7.46772
8.88507
9.7682
10.3716
10.7781
11.0533
11.2459
11.3853
11.4895
11.5697
11.6333
11.6851
11.7287
11.7662
11.7994
11.8295
11.8574
11.8838
11.909
11.9337
11.9579
11.9821
12.0063
12.0308
12.0557
12.0813
12.1076
12.135
12.1637
12.1939
12.2262
12.261
12.299
12.3409
12.3877
12.441
12.5025
12.5748
12.6614
12.7675
12.9008
13.073
13.3025
13.6197
14.0752
14.7385
15.6944
17.1975
19.9144
7.70428
8.46773
9.21061
9.8338
10.3203
10.6826
10.9498
11.1486
11.2989
11.4146
11.5056
11.5787
11.6388
11.6894
11.7329
11.7713
11.8058
11.8375
11.8671
11.8953
11.9225
11.949
11.9752
12.0014
12.0277
12.0544
12.0817
12.1098
12.1391
12.1698
12.2024
12.2372
12.2748
12.3161
12.3618
12.4131
12.4717
12.5394
12.6189
12.714
12.8297
12.9731
13.1544
13.388
13.6942
14.1006
14.6373
15.3148
16.1122
16.9403
9.11359
9.29053
9.66967
10.0705
10.4209
10.7065
10.9349
11.1159
11.2594
11.3741
11.4669
11.5431
11.6068
11.661
11.7081
11.7497
11.7871
11.8215
11.8535
11.8839
11.913
11.9413
11.9692
11.9969
12.0246
12.0527
12.0814
12.111
12.1417
12.174
12.2082
12.2448
12.2844
12.3278
12.3758
12.4298
12.4911
12.5616
12.6439
12.7411
12.8575
12.9985
13.1712
13.3843
13.6481
13.9723
14.3622
14.8038
15.2186
15.4262
9.9255
9.90497
10.0811
10.3249
10.5646
10.7796
10.9646
11.12
11.2491
11.3563
11.4458
11.5211
11.5853
11.6408
11.6895
11.7329
11.7722
11.8084
11.8422
11.8741
11.9048
11.9346
11.9638
11.9927
12.0217
12.051
12.0808
12.1116
12.1435
12.1769
12.2123
12.2502
12.2911
12.3359
12.3853
12.4405
12.5028
12.574
12.656
12.7514
12.8633
12.9954
13.1519
13.3369
13.5533
13.801
14.0728
14.346
14.5446
14.5364
10.4364
10.3511
10.4202
10.5624
10.7218
10.8784
11.0227
11.1507
11.2621
11.358
11.4407
11.5121
11.5743
11.6291
11.6778
11.7217
11.7618
11.7989
11.8337
11.8667
11.8984
11.9292
11.9594
11.9893
12.0192
12.0494
12.0801
12.1117
12.1445
12.1788
12.215
12.2536
12.2953
12.3406
12.3905
12.4457
12.5076
12.5775
12.6569
12.7477
12.8518
12.9715
13.1084
13.2636
13.4358
13.6198
13.8046
13.9679
14.0504
13.9667
10.7766
10.6788
10.6945
10.7736
10.8766
10.9875
11.0968
11.1992
11.2921
11.3752
11.4491
11.5147
11.5731
11.6254
11.6728
11.716
11.7559
11.7932
11.8283
11.8618
11.8941
11.9255
11.9563
11.9869
12.0174
12.0482
12.0796
12.1117
12.145
12.1798
12.2164
12.2554
12.2972
12.3425
12.3919
12.4463
12.5065
12.5736
12.6488
12.7331
12.8277
12.9333
13.0502
13.1772
13.3111
13.445
13.568
13.6621
13.685
13.5831
11.0177
10.9253
10.915
10.9555
11.0199
11.0966
11.1776
11.2575
11.3332
11.4035
11.4679
11.5265
11.58
11.629
11.6739
11.7156
11.7545
11.7912
11.8261
11.8596
11.8919
11.9236
11.9547
11.9856
12.0165
12.0476
12.0793
12.1118
12.1453
12.1803
12.217
12.2559
12.2974
12.342
12.3904
12.4431
12.5008
12.5643
12.6342
12.7112
12.7955
12.8871
12.985
13.0873
13.1897
13.2856
13.3656
13.4166
13.4095
13.3102
11.1986
11.1158
11.0932
11.1101
11.1485
11.2002
11.259
11.3202
11.3808
11.439
11.4941
11.5456
11.5936
11.6385
11.6804
11.7199
11.7572
11.7928
11.8269
11.8599
11.892
11.9235
11.9546
11.9855
12.0165
12.0478
12.0795
12.1121
12.1456
12.1805
12.2169
12.2554
12.2962
12.3398
12.3866
12.4372
12.4919
12.5512
12.6154
12.6847
12.7588
12.8371
12.9182
12.9995
13.077
13.1446
13.195
13.2191
13.197
13.1061
11.34
11.2667
11.2386
11.2412
11.2621
11.2958
11.3376
11.3837
11.4314
11.4789
11.5252
11.5697
11.6122
11.6527
11.6913
11.7281
11.7635
11.7975
11.8305
11.8627
11.8942
11.9252
11.956
11.9867
12.0176
12.0487
12.0803
12.1127
12.146
12.1806
12.2166
12.2543
12.2942
12.3364
12.3814
12.4294
12.4807
12.5356
12.594
12.6557
12.7203
12.7867
12.8532
12.9172
12.9751
13.0218
13.0519
13.0593
13.0299
12.948
11.4542
11.3889
11.3586
11.3526
11.3618
11.3825
11.4114
11.4455
11.4825
11.5208
11.5593
11.5973
11.6344
11.6705
11.7056
11.7396
11.7727
11.8049
11.8365
11.8676
11.8982
11.9286
11.9588
11.9891
12.0196
12.0504
12.0818
12.1138
12.1467
12.1807
12.216
12.2529
12.2915
12.3322
12.3751
12.4204
12.4683
12.5186
12.5713
12.6259
12.6818
12.7376
12.7918
12.8417
12.8844
12.9158
12.932
12.9288
12.8962
12.8225
11.5483
11.4896
11.4589
11.4476
11.4488
11.4603
11.4795
11.5042
11.5325
11.5629
11.5946
11.6267
11.6588
11.6908
11.7223
11.7535
11.7842
11.8145
11.8445
11.8742
11.9038
11.9333
11.9629
11.9926
12.0225
12.0529
12.0837
12.1153
12.1476
12.181
12.2155
12.2513
12.2886
12.3276
12.3683
12.4108
12.4552
12.5012
12.5485
12.5966
12.6446
12.6913
12.7351
12.7738
12.8047
12.8248
12.8312
12.8214
12.7877
12.7209
11.6271
11.5738
11.5433
11.5288
11.5248
11.5296
11.5415
11.5589
11.5802
11.6041
11.6299
11.6568
11.6844
11.7124
11.7407
11.769
11.7973
11.8256
11.8539
11.8823
11.9107
11.9392
11.9679
11.9969
12.0262
12.056
12.0862
12.1172
12.1488
12.1814
12.215
12.2497
12.2856
12.3227
12.3613
12.401
12.442
12.4838
12.5262
12.5684
12.6095
12.6484
12.6836
12.7132
12.7351
12.7468
12.7465
12.7325
12.6988
12.6379
11.6938
11.6447
11.615
11.5986
11.5909
11.5909
11.5975
11.6091
11.6248
11.6434
11.6642
11.6866
11.7102
11.7347
11.7598
11.7855
11.8115
11.8378
11.8644
11.8913
11.9185
11.9459
11.9737
12.0019
12.0305
12.0595
12.0891
12.1194
12.1503
12.182
12.2146
12.2481
12.2825
12.3179
12.3542
12.3914
12.4291
12.4671
12.5049
12.5418
12.577
12.6093
12.6374
12.6598
12.6746
12.6802
12.6751
12.6585
12.6254
12.5695
11.7506
11.705
11.6761
11.6585
11.6484
11.645
11.6474
11.6547
11.6659
11.6801
11.6968
11.7154
11.7355
11.7568
11.7791
11.8023
11.8261
11.8505
11.8755
11.9009
11.9268
11.9532
11.98
12.0073
12.0351
12.0635
12.0923
12.1218
12.1519
12.1828
12.2143
12.2466
12.2796
12.3132
12.3474
12.3821
12.4168
12.4513
12.485
12.5173
12.5473
12.5741
12.5964
12.6129
12.6224
12.6233
12.6149
12.5967
12.5646
12.5128
11.7991
11.7563
11.7282
11.7101
11.6982
11.6923
11.6917
11.6956
11.7033
11.714
11.7272
11.7426
11.7597
11.7782
11.798
11.8189
11.8407
11.8633
11.8867
11.9108
11.9354
11.9607
11.9866
12.013
12.04
12.0675
12.0957
12.1244
12.1537
12.1836
12.2141
12.2452
12.2768
12.3087
12.341
12.3733
12.4053
12.4366
12.4667
12.495
12.5206
12.5427
12.5603
12.5722
12.5775
12.575
12.5643
12.5451
12.514
12.4658
11.8404
11.7999
11.7727
11.7542
11.7412
11.7335
11.7307
11.732
11.7368
11.7447
11.7551
11.7677
11.7822
11.7984
11.816
11.8349
11.8548
11.8758
11.8977
11.9205
11.944
11.9682
11.9931
12.0187
12.0449
12.0716
12.099
12.127
12.1555
12.1845
12.214
12.2439
12.2741
12.3046
12.335
12.3651
12.3947
12.4232
12.4502
12.475
12.4969
12.5152
12.5288
12.5371
12.5391
12.5341
12.5217
12.5021
12.472
12.4269
11.8755
11.8369
11.8104
11.7918
11.7781
11.7691
11.7645
11.7638
11.7664
11.772
11.7802
11.7905
11.8029
11.817
11.8327
11.8498
11.8681
11.8877
11.9082
11.9298
11.9522
11.9754
11.9994
12.0242
12.0496
12.0756
12.1023
12.1295
12.1572
12.1854
12.2139
12.2428
12.2718
12.3007
12.3295
12.3577
12.3851
12.4112
12.4354
12.4573
12.4761
12.4912
12.5017
12.5071
12.5066
12.4997
12.4862
12.4663
12.4373
12.3948
11.905
11.868
11.8422
11.8236
11.8093
11.7994
11.7935
11.7912
11.7922
11.7959
11.8022
11.8108
11.8214
11.8338
11.8478
11.8634
11.8803
11.8985
11.9179
11.9384
11.9598
11.9822
12.0053
12.0293
12.054
12.0794
12.1053
12.1318
12.1588
12.1862
12.2139
12.2417
12.2696
12.2973
12.3246
12.3511
12.3766
12.4006
12.4225
12.4419
12.4582
12.4706
12.4787
12.4818
12.4793
12.471
12.4567
12.4368
12.4087
12.3685
11.9295
11.8937
11.8685
11.8499
11.8354
11.8248
11.8179
11.8145
11.8141
11.8164
11.8213
11.8283
11.8374
11.8484
11.8611
11.8754
11.8912
11.9083
11.9266
11.9461
11.9667
11.9882
12.0107
12.0339
12.058
12.0827
12.1081
12.1339
12.1603
12.1869
12.2138
12.2408
12.2677
12.2943
12.3203
12.3454
12.3693
12.3915
12.4115
12.4289
12.443
12.4534
12.4594
12.4607
12.4568
12.4474
12.4327
12.4128
12.3856
12.3472
11.9494
11.9146
11.8899
11.8714
11.8566
11.8455
11.838
11.8337
11.8322
11.8335
11.8372
11.8431
11.851
11.8608
11.8724
11.8857
11.9004
11.9166
11.9341
11.9528
11.9726
11.9935
12.0153
12.038
12.0615
12.0856
12.1104
12.1358
12.1615
12.1876
12.2138
12.2401
12.2661
12.2917
12.3167
12.3406
12.3631
12.3838
12.4023
12.418
12.4305
12.4392
12.4437
12.4437
12.4386
12.4285
12.4134
12.3937
12.3672
12.3304
11.9649
11.9309
11.9066
11.8882
11.8733
11.8619
11.8538
11.8488
11.8467
11.8471
11.8499
11.8549
11.8619
11.8709
11.8816
11.894
11.908
11.9234
11.9402
11.9583
11.9775
11.9978
12.0191
12.0413
12.0643
12.088
12.1124
12.1373
12.1626
12.1881
12.2138
12.2394
12.2648
12.2897
12.3137
12.3367
12.3582
12.3777
12.395
12.4094
12.4206
12.4281
12.4314
12.4303
12.4245
12.4138
12.3985
12.3789
12.353
12.3174
11.9763
11.943
11.9189
11.9006
11.8856
11.874
11.8656
11.8601
11.8574
11.8573
11.8594
11.8638
11.8702
11.8785
11.8886
11.9004
11.9137
11.9286
11.9449
11.9625
11.9812
12.0011
12.022
12.0438
12.0665
12.0899
12.1139
12.1384
12.1634
12.1885
12.2138
12.2389
12.2638
12.2881
12.3115
12.3337
12.3544
12.3731
12.3895
12.403
12.4133
12.4198
12.4223
12.4205
12.4141
12.4031
12.3876
12.3681
12.3427
12.308
11.9839
11.9509
11.927
11.9088
11.8937
11.882
11.8733
11.8676
11.8646
11.864
11.8658
11.8697
11.8757
11.8836
11.8932
11.9046
11.9176
11.9321
11.948
11.9653
11.9838
12.0034
12.024
12.0456
12.068
12.0911
12.1149
12.1392
12.1639
12.1888
12.2138
12.2386
12.2631
12.287
12.31
12.3318
12.3519
12.3701
12.3858
12.3988
12.4084
12.4144
12.4163
12.414
12.4073
12.396
12.3805
12.3611
12.336
12.3019
11.9876
11.9548
11.9311
11.9128
11.8978
11.8859
11.8772
11.8714
11.8682
11.8674
11.869
11.8727
11.8785
11.8861
11.8956
11.9068
11.9196
11.9339
11.9496
11.9667
11.985
12.0045
12.025
12.0464
12.0687
12.0918
12.1154
12.1396
12.1642
12.1889
12.2138
12.2385
12.2628
12.2865
12.3092
12.3308
12.3507
12.3686
12.384
12.3966
12.406
12.4116
12.4133
12.4108
12.4039
12.3925
12.377
12.3576
12.3326
12.2989
11.9876
11.9548
11.9311
11.9128
11.8978
11.8859
11.8772
11.8714
11.8682
11.8674
11.869
11.8727
11.8785
11.8861
11.8956
11.9068
11.9196
11.9339
11.9496
11.9667
11.985
12.0045
12.025
12.0464
12.0687
12.0918
12.1154
12.1396
12.1642
12.1889
12.2138
12.2385
12.2628
12.2865
12.3092
12.3308
12.3507
12.3686
12.384
12.3966
12.406
12.4116
12.4133
12.4108
12.4039
12.3925
12.377
12.3576
12.3326
12.2989
11.9839
11.9509
11.927
11.9088
11.8937
11.882
11.8733
11.8676
11.8646
11.864
11.8658
11.8697
11.8757
11.8836
11.8932
11.9046
11.9176
11.9321
11.948
11.9653
11.9838
12.0034
12.024
12.0456
12.068
12.0911
12.1149
12.1392
12.1639
12.1888
12.2138
12.2386
12.2631
12.287
12.31
12.3318
12.3519
12.3701
12.3858
12.3988
12.4084
12.4144
12.4163
12.414
12.4073
12.396
12.3805
12.3611
12.336
12.3019
11.9763
11.943
11.9189
11.9006
11.8856
11.874
11.8656
11.8601
11.8574
11.8573
11.8594
11.8638
11.8702
11.8785
11.8886
11.9004
11.9137
11.9286
11.9449
11.9625
11.9812
12.0011
12.022
12.0438
12.0665
12.0899
12.1139
12.1384
12.1634
12.1885
12.2138
12.2389
12.2638
12.2881
12.3115
12.3337
12.3544
12.3731
12.3895
12.403
12.4133
12.4198
12.4223
12.4205
12.4141
12.4031
12.3876
12.3681
12.3427
12.308
11.9649
11.9309
11.9066
11.8882
11.8733
11.8618
11.8538
11.8488
11.8467
11.8471
11.8499
11.8549
11.8619
11.8709
11.8816
11.894
11.908
11.9234
11.9402
11.9583
11.9775
11.9978
12.0191
12.0413
12.0643
12.088
12.1124
12.1373
12.1626
12.1881
12.2138
12.2394
12.2648
12.2897
12.3137
12.3367
12.3582
12.3777
12.395
12.4094
12.4206
12.4281
12.4314
12.4303
12.4245
12.4138
12.3985
12.3789
12.353
12.3174
11.9493
11.9146
11.8899
11.8714
11.8566
11.8455
11.838
11.8337
11.8322
11.8335
11.8372
11.8431
11.851
11.8608
11.8724
11.8857
11.9004
11.9166
11.9341
11.9528
11.9726
11.9935
12.0153
12.038
12.0615
12.0856
12.1104
12.1358
12.1615
12.1876
12.2138
12.2401
12.2661
12.2917
12.3167
12.3406
12.3631
12.3838
12.4023
12.418
12.4305
12.4392
12.4437
12.4437
12.4386
12.4285
12.4134
12.3937
12.3672
12.3304
11.9295
11.8937
11.8685
11.8499
11.8354
11.8248
11.8179
11.8145
11.8141
11.8164
11.8213
11.8283
11.8374
11.8484
11.8611
11.8754
11.8912
11.9083
11.9266
11.9461
11.9667
11.9882
12.0107
12.0339
12.058
12.0827
12.1081
12.1339
12.1603
12.1869
12.2138
12.2408
12.2677
12.2943
12.3203
12.3454
12.3693
12.3915
12.4115
12.4289
12.443
12.4534
12.4594
12.4607
12.4568
12.4474
12.4326
12.4128
12.3856
12.3472
11.905
11.868
11.8422
11.8235
11.8093
11.7994
11.7935
11.7912
11.7922
11.7959
11.8022
11.8108
11.8214
11.8338
11.8478
11.8634
11.8803
11.8985
11.9179
11.9384
11.9598
11.9821
12.0053
12.0293
12.054
12.0793
12.1053
12.1318
12.1588
12.1862
12.2139
12.2417
12.2696
12.2973
12.3246
12.3511
12.3766
12.4006
12.4225
12.4419
12.4582
12.4706
12.4787
12.4817
12.4793
12.471
12.4567
12.4368
12.4087
12.3685
11.8755
11.8369
11.8104
11.7918
11.7781
11.7691
11.7645
11.7638
11.7664
11.772
11.7801
11.7905
11.8029
11.817
11.8327
11.8498
11.8681
11.8877
11.9082
11.9298
11.9522
11.9754
11.9994
12.0242
12.0496
12.0756
12.1023
12.1295
12.1572
12.1854
12.2139
12.2428
12.2718
12.3007
12.3295
12.3577
12.3851
12.4112
12.4354
12.4573
12.4761
12.4912
12.5017
12.5071
12.5066
12.4997
12.4862
12.4663
12.4372
12.3948
11.8404
11.7999
11.7727
11.7542
11.7412
11.7335
11.7307
11.732
11.7368
11.7447
11.7551
11.7677
11.7822
11.7984
11.816
11.8349
11.8548
11.8758
11.8977
11.9205
11.944
11.9682
11.9931
12.0187
12.0449
12.0716
12.099
12.127
12.1555
12.1845
12.214
12.2439
12.2741
12.3046
12.335
12.3651
12.3947
12.4232
12.4502
12.475
12.4969
12.5151
12.5288
12.5371
12.5391
12.5341
12.5217
12.502
12.472
12.4269
11.7991
11.7563
11.7282
11.71
11.6982
11.6923
11.6917
11.6956
11.7033
11.714
11.7272
11.7426
11.7597
11.7782
11.798
11.8189
11.8407
11.8633
11.8867
11.9108
11.9354
11.9607
11.9866
12.013
12.04
12.0675
12.0957
12.1244
12.1537
12.1836
12.2141
12.2452
12.2768
12.3087
12.341
12.3733
12.4053
12.4366
12.4667
12.495
12.5206
12.5427
12.5603
12.5722
12.5775
12.575
12.5643
12.5451
12.514
12.4658
11.7506
11.705
11.6761
11.6585
11.6484
11.645
11.6474
11.6547
11.6659
11.6801
11.6968
11.7154
11.7355
11.7568
11.7791
11.8023
11.8261
11.8505
11.8755
11.9009
11.9268
11.9532
11.98
12.0073
12.0351
12.0634
12.0923
12.1218
12.1519
12.1828
12.2143
12.2466
12.2796
12.3132
12.3474
12.3821
12.4168
12.4513
12.485
12.5173
12.5473
12.5741
12.5964
12.6129
12.6224
12.6233
12.6149
12.5967
12.5646
12.5128
11.6938
11.6447
11.615
11.5986
11.5909
11.5909
11.5975
11.6091
11.6248
11.6434
11.6642
11.6866
11.7102
11.7347
11.7598
11.7854
11.8115
11.8378
11.8644
11.8913
11.9185
11.9459
11.9737
12.0019
12.0305
12.0595
12.0891
12.1194
12.1503
12.182
12.2146
12.2481
12.2825
12.3179
12.3542
12.3914
12.4291
12.4671
12.5049
12.5418
12.577
12.6093
12.6374
12.6597
12.6746
12.6802
12.6751
12.6585
12.6254
12.5695
11.6271
11.5738
11.5433
11.5288
11.5248
11.5296
11.5415
11.5589
11.5801
11.6041
11.6299
11.6568
11.6844
11.7124
11.7407
11.769
11.7973
11.8256
11.8539
11.8823
11.9107
11.9392
11.9679
11.9969
12.0262
12.056
12.0862
12.1172
12.1488
12.1814
12.215
12.2497
12.2856
12.3227
12.3612
12.401
12.442
12.4838
12.5262
12.5683
12.6095
12.6484
12.6836
12.7132
12.7351
12.7468
12.7465
12.7325
12.6988
12.6379
11.5483
11.4896
11.4589
11.4476
11.4488
11.4603
11.4795
11.5042
11.5325
11.5629
11.5946
11.6267
11.6588
11.6908
11.7223
11.7534
11.7842
11.8145
11.8445
11.8742
11.9038
11.9333
11.9629
11.9926
12.0225
12.0529
12.0837
12.1153
12.1476
12.181
12.2155
12.2513
12.2886
12.3276
12.3683
12.4108
12.4552
12.5012
12.5485
12.5966
12.6446
12.6913
12.7351
12.7737
12.8047
12.8248
12.8312
12.8214
12.7877
12.7209
11.4541
11.3889
11.3586
11.3526
11.3618
11.3825
11.4114
11.4455
11.4825
11.5208
11.5593
11.5972
11.6344
11.6705
11.7056
11.7396
11.7727
11.8049
11.8365
11.8676
11.8982
11.9286
11.9588
11.9891
12.0196
12.0504
12.0817
12.1138
12.1467
12.1807
12.216
12.2529
12.2915
12.3322
12.3751
12.4204
12.4683
12.5186
12.5713
12.6259
12.6818
12.7376
12.7917
12.8417
12.8844
12.9158
12.9319
12.9288
12.8962
12.8225
11.34
11.2667
11.2385
11.2412
11.2621
11.2958
11.3376
11.3837
11.4314
11.4789
11.5252
11.5697
11.6122
11.6527
11.6913
11.7281
11.7635
11.7975
11.8305
11.8627
11.8942
11.9252
11.956
11.9867
12.0176
12.0487
12.0803
12.1127
12.146
12.1806
12.2166
12.2543
12.2942
12.3364
12.3814
12.4294
12.4807
12.5356
12.5939
12.6557
12.7203
12.7867
12.8532
12.9172
12.975
13.0218
13.0519
13.0593
13.0299
12.948
11.1986
11.1158
11.0932
11.1101
11.1485
11.2002
11.259
11.3202
11.3808
11.439
11.4941
11.5456
11.5936
11.6385
11.6804
11.7199
11.7572
11.7928
11.8269
11.8599
11.892
11.9235
11.9546
11.9855
12.0165
12.0478
12.0795
12.1121
12.1456
12.1805
12.2169
12.2554
12.2962
12.3398
12.3866
12.4372
12.4919
12.5512
12.6154
12.6846
12.7588
12.8371
12.9182
12.9995
13.077
13.1446
13.195
13.2191
13.197
13.1061
11.0177
10.9253
10.915
10.9555
11.0199
11.0966
11.1776
11.2575
11.3332
11.4035
11.4679
11.5265
11.58
11.629
11.6739
11.7156
11.7545
11.7912
11.8261
11.8596
11.8919
11.9236
11.9547
11.9856
12.0165
12.0476
12.0793
12.1118
12.1453
12.1803
12.217
12.2559
12.2974
12.342
12.3904
12.4431
12.5008
12.5643
12.6342
12.7112
12.7955
12.8871
12.985
13.0873
13.1897
13.2856
13.3656
13.4166
13.4094
13.3101
10.7765
10.6788
10.6945
10.7735
10.8766
10.9875
11.0968
11.1991
11.2921
11.3752
11.4491
11.5147
11.5731
11.6254
11.6728
11.716
11.7559
11.7932
11.8283
11.8618
11.8941
11.9255
11.9563
11.9869
12.0174
12.0482
12.0796
12.1117
12.145
12.1798
12.2164
12.2554
12.2972
12.3425
12.3919
12.4463
12.5065
12.5736
12.6488
12.7331
12.8277
12.9333
13.0502
13.1772
13.3111
13.445
13.568
13.6621
13.685
13.5831
10.4363
10.3511
10.4202
10.5624
10.7218
10.8784
11.0227
11.1507
11.262
11.358
11.4407
11.5121
11.5743
11.6291
11.6778
11.7217
11.7618
11.7989
11.8337
11.8667
11.8984
11.9292
11.9594
11.9893
12.0192
12.0494
12.0801
12.1117
12.1445
12.1788
12.215
12.2536
12.2953
12.3406
12.3905
12.4457
12.5076
12.5775
12.6569
12.7476
12.8518
12.9715
13.1084
13.2636
13.4358
13.6198
13.8046
13.9679
14.0504
13.9667
9.92547
9.90495
10.0811
10.3249
10.5646
10.7796
10.9646
11.12
11.2491
11.3563
11.4457
11.5211
11.5853
11.6408
11.6895
11.7329
11.7722
11.8084
11.8422
11.8741
11.9048
11.9346
11.9638
11.9927
12.0217
12.051
12.0808
12.1116
12.1435
12.1769
12.2123
12.2502
12.2911
12.3359
12.3853
12.4405
12.5028
12.574
12.656
12.7514
12.8633
12.9954
13.1519
13.3368
13.5533
13.801
14.0727
14.346
14.5446
14.5364
9.11357
9.29051
9.66964
10.0705
10.4208
10.7064
10.9349
11.1159
11.2594
11.374
11.4669
11.5431
11.6068
11.661
11.7081
11.7497
11.7871
11.8215
11.8535
11.8839
11.913
11.9413
11.9692
11.9969
12.0246
12.0527
12.0814
12.111
12.1417
12.174
12.2082
12.2448
12.2844
12.3278
12.3758
12.4298
12.4911
12.5616
12.6439
12.7411
12.8574
12.9985
13.1712
13.3843
13.648
13.9723
14.3622
14.8038
15.2186
15.4261
7.70426
8.4677
9.21059
9.83378
10.3203
10.6826
10.9497
11.1486
11.2989
11.4146
11.5056
11.5787
11.6388
11.6894
11.7329
11.7713
11.8058
11.8375
11.8671
11.8953
11.9225
11.949
11.9752
12.0014
12.0277
12.0544
12.0817
12.1098
12.1391
12.1698
12.2024
12.2372
12.2748
12.3161
12.3618
12.4131
12.4717
12.5393
12.6189
12.714
12.8297
12.9731
13.1544
13.388
13.6941
14.1006
14.6373
15.3148
16.1122
16.9403
4.86815
7.46769
8.88504
9.76818
10.3716
10.778
11.0533
11.2458
11.3853
11.4895
11.5697
11.6333
11.6851
11.7287
11.7662
11.7994
11.8295
11.8574
11.8837
11.909
11.9337
11.9579
11.9821
12.0063
12.0308
12.0557
12.0813
12.1076
12.135
12.1637
12.1939
12.2262
12.261
12.299
12.3409
12.3877
12.441
12.5025
12.5748
12.6614
12.7675
12.9008
13.073
13.3025
13.6197
14.0752
14.7385
15.6944
17.1975
19.9144
-5.96509e-05
6.38486
9.049
10.144
10.7361
11.0853
11.2995
11.4405
11.5396
11.6129
11.6693
11.7144
11.7517
11.7836
11.8116
11.837
11.8607
11.8831
11.9049
11.9262
11.9475
11.9687
11.9901
12.0119
12.034
12.0566
12.0799
12.1038
12.1286
12.1545
12.1817
12.2104
12.241
12.2741
12.3101
12.3499
12.3945
12.4453
12.5042
12.5736
12.6576
12.7618
12.8956
13.0757
13.3339
13.7343
14.3936
15.5836
18.3639
24.8729
)
;

boundaryField
{
    movingWallTop
    {
        type            zeroGradient;
    }
    movingWallBottom
    {
        type            zeroGradient;
    }
    fixedWalls
    {
        type            zeroGradient;
    }
    frontAndBack
    {
        type            empty;
    }
}


// ************************************************************************* //
