/*--------------------------------*- C++ -*----------------------------------*\
  =========                 |
  \\      /  F ield         | OpenFOAM: The Open Source CFD Toolbox
   \\    /   O peration     | Website:  https://openfoam.org
    \\  /    A nd           | Version:  7
     \\/     M anipulation  |
\*---------------------------------------------------------------------------*/
FoamFile
{
    version     2.0;
    format      ascii;
    class       volScalarField;
    location    "0.0624";
    object      p;
}
// * * * * * * * * * * * * * * * * * * * * * * * * * * * * * * * * * * * * * //

dimensions      [0 2 -2 0 0 0 0];

internalField   nonuniform List<scalar> 
2500
(
-3.27768e-05
-6.51219
-9.29769
-10.494
-11.1599
-11.5667
-11.8309
-12.0161
-12.1543
-12.2619
-12.348
-12.4185
-12.4769
-12.526
-12.5675
-12.6027
-12.6326
-12.6581
-12.6798
-12.6982
-12.7138
-12.7269
-12.7379
-12.7473
-12.7551
-12.7619
-12.7679
-12.7735
-12.779
-12.7847
-12.7912
-12.7988
-12.808
-12.8195
-12.8339
-12.852
-12.875
-12.904
-12.9407
-12.9876
-13.0481
-13.1275
-13.2344
-13.3843
-13.6082
-13.9669
-14.5674
-15.6687
-18.3361
-24.7209
-4.95538
-7.67554
-9.18259
-10.1431
-10.8114
-11.2719
-11.594
-11.8279
-12.0038
-12.14
-12.2482
-12.3358
-12.408
-12.4681
-12.5188
-12.5618
-12.5984
-12.6298
-12.6567
-12.6799
-12.6999
-12.7172
-12.7322
-12.7454
-12.7571
-12.7678
-12.7776
-12.7872
-12.7968
-12.8069
-12.818
-12.8306
-12.8453
-12.863
-12.8844
-12.9106
-12.943
-12.9834
-13.0343
-13.0988
-13.182
-13.2908
-13.4365
-13.6363
-13.9195
-14.3337
-14.9442
-15.8327
-17.253
-19.8519
-7.92452
-8.75724
-9.55854
-10.2399
-10.7806
-11.1911
-11.5012
-11.7386
-11.9232
-12.0693
-12.1869
-12.2831
-12.3627
-12.4294
-12.4858
-12.5338
-12.5749
-12.6104
-12.641
-12.6676
-12.6909
-12.7112
-12.7292
-12.7453
-12.7599
-12.7733
-12.7861
-12.7986
-12.8112
-12.8245
-12.8389
-12.8551
-12.8737
-12.8956
-12.9217
-12.9532
-12.9916
-13.0389
-13.0976
-13.1711
-13.2644
-13.384
-13.5396
-13.7449
-14.0191
-14.3885
-14.8814
-15.5097
-16.2555
-17.0188
-9.43359
-9.64735
-10.0668
-10.5122
-10.9056
-11.2332
-11.5002
-11.7165
-11.892
-12.0354
-12.1535
-12.2518
-12.3343
-12.4041
-12.4636
-12.5147
-12.5588
-12.597
-12.6303
-12.6595
-12.6851
-12.7079
-12.7282
-12.7465
-12.7633
-12.779
-12.794
-12.8088
-12.8238
-12.8395
-12.8564
-12.8752
-12.8966
-12.9215
-12.9507
-12.9855
-13.0273
-13.0781
-13.1402
-13.2166
-13.3113
-13.4295
-13.578
-13.7651
-14.0004
-14.2932
-14.6491
-15.0554
-15.4379
-15.6157
-10.3187
-10.3187
-10.523
-10.8003
-11.0754
-11.3259
-11.5451
-11.7326
-11.8913
-12.0254
-12.1389
-12.2353
-12.3175
-12.3881
-12.4489
-12.5016
-12.5475
-12.5876
-12.6228
-12.6539
-12.6815
-12.7061
-12.7283
-12.7485
-12.7672
-12.7847
-12.8016
-12.8183
-12.8351
-12.8528
-12.8717
-12.8925
-12.916
-12.9428
-12.9741
-13.0108
-13.0543
-13.1063
-13.1688
-13.2443
-13.3355
-13.4462
-13.5802
-13.7416
-13.9334
-14.1555
-14.4016
-14.6509
-14.8309
-14.8125
-10.8849
-10.8114
-10.9006
-11.0685
-11.2568
-11.4436
-11.6181
-11.7753
-11.914
-12.0352
-12.1405
-12.232
-12.3116
-12.3809
-12.4414
-12.4944
-12.541
-12.5821
-12.6185
-12.6509
-12.6798
-12.7058
-12.7294
-12.7511
-12.7712
-12.7902
-12.8085
-12.8266
-12.8449
-12.864
-12.8843
-12.9065
-12.9312
-12.9593
-12.9914
-13.0288
-13.0725
-13.1238
-13.1844
-13.256
-13.3406
-13.4402
-13.5565
-13.6908
-13.8421
-14.0058
-14.1719
-14.32
-14.3938
-14.3123
-11.2667
-11.1764
-11.2073
-11.3068
-11.4337
-11.5705
-11.7065
-11.8351
-11.9533
-12.06
-12.1553
-12.24
-12.3151
-12.3815
-12.4404
-12.4925
-12.5389
-12.5801
-12.617
-12.65
-12.6797
-12.7066
-12.7312
-12.7538
-12.7749
-12.795
-12.8143
-12.8335
-12.8528
-12.8728
-12.8939
-12.9169
-12.9422
-12.9706
-13.0028
-13.0397
-13.0822
-13.1314
-13.1885
-13.2544
-13.3305
-13.4175
-13.5158
-13.6246
-13.7411
-13.8595
-13.9696
-14.0551
-14.0765
-13.9842
-11.5396
-11.4532
-11.455
-11.5122
-11.5967
-11.6958
-11.8003
-11.904
-12.0029
-12.0951
-12.1797
-12.2566
-12.3261
-12.3886
-12.4448
-12.4952
-12.5405
-12.5811
-12.6178
-12.6509
-12.6809
-12.7082
-12.7333
-12.7565
-12.7783
-12.7989
-12.8189
-12.8387
-12.8585
-12.879
-12.9006
-12.9237
-12.949
-12.9771
-13.0086
-13.0442
-13.0847
-13.1308
-13.1832
-13.2427
-13.3096
-13.384
-13.4654
-13.5521
-13.6406
-13.725
-13.797
-13.8444
-13.8408
-13.7557
-11.7452
-11.6682
-11.6559
-11.6871
-11.7427
-11.814
-11.8937
-11.9764
-12.0582
-12.1368
-12.2108
-12.2795
-12.3428
-12.4007
-12.4535
-12.5015
-12.545
-12.5846
-12.6205
-12.6531
-12.6829
-12.7103
-12.7354
-12.7589
-12.7809
-12.8018
-12.8221
-12.8421
-12.8621
-12.8827
-12.9042
-12.9271
-12.952
-12.9792
-13.0094
-13.0432
-13.081
-13.1234
-13.1708
-13.2234
-13.2814
-13.3442
-13.4107
-13.479
-13.5456
-13.6053
-13.6516
-13.6762
-13.6614
-13.5877
-11.9066
-11.8395
-11.8206
-11.8358
-11.8718
-11.9227
-11.9832
-12.0487
-12.1157
-12.182
-12.246
-12.3068
-12.3638
-12.4167
-12.4657
-12.5107
-12.552
-12.5899
-12.6246
-12.6564
-12.6856
-12.7125
-12.7375
-12.7608
-12.7827
-12.8036
-12.8238
-12.8437
-12.8636
-12.8839
-12.905
-12.9274
-12.9513
-12.9774
-13.0059
-13.0374
-13.0722
-13.1107
-13.1529
-13.199
-13.2486
-13.301
-13.355
-13.4084
-13.4582
-13.5002
-13.5295
-13.5405
-13.5212
-13.4588
-12.0371
-11.9787
-11.9573
-11.9626
-11.9853
-12.0214
-12.0671
-12.1187
-12.1733
-12.2289
-12.2837
-12.3368
-12.3876
-12.4355
-12.4803
-12.5221
-12.5609
-12.5967
-12.6298
-12.6604
-12.6887
-12.7149
-12.7392
-12.7621
-12.7836
-12.8042
-12.8241
-12.8436
-12.863
-12.8828
-12.9032
-12.9247
-12.9475
-12.9721
-12.9987
-13.0277
-13.0594
-13.0939
-13.1312
-13.1711
-13.2132
-13.2567
-13.3002
-13.3419
-13.3791
-13.4085
-13.4265
-13.4295
-13.4091
-13.3565
-12.1451
-12.0941
-12.0722
-12.0714
-12.0851
-12.1104
-12.1447
-12.1852
-12.2295
-12.2757
-12.3224
-12.3685
-12.4132
-12.4561
-12.4968
-12.5352
-12.5711
-12.6047
-12.6359
-12.665
-12.692
-12.7172
-12.7407
-12.7628
-12.7837
-12.8036
-12.8229
-12.8418
-12.8606
-12.8796
-12.8991
-12.9195
-12.9409
-12.9638
-12.9884
-13.0149
-13.0435
-13.0741
-13.1068
-13.1412
-13.1768
-13.2127
-13.2477
-13.2801
-13.3078
-13.3283
-13.3389
-13.3373
-13.3176
-13.2732
-12.2359
-12.1913
-12.1699
-12.1655
-12.1729
-12.1904
-12.2161
-12.2477
-12.2834
-12.3216
-12.3611
-12.4008
-12.4399
-12.4779
-12.5145
-12.5494
-12.5824
-12.6134
-12.6426
-12.6699
-12.6954
-12.7193
-12.7417
-12.7628
-12.7829
-12.802
-12.8205
-12.8386
-12.8565
-12.8745
-12.893
-12.9121
-12.9321
-12.9532
-12.9757
-12.9997
-13.0252
-13.0523
-13.0807
-13.1102
-13.1402
-13.1698
-13.1979
-13.2232
-13.2439
-13.258
-13.2638
-13.2597
-13.2414
-13.2038
-12.3135
-12.2742
-12.2539
-12.2473
-12.2505
-12.2623
-12.2813
-12.3059
-12.3346
-12.3661
-12.3992
-12.4331
-12.467
-12.5005
-12.5331
-12.5644
-12.5944
-12.6228
-12.6497
-12.6751
-12.6989
-12.7213
-12.7425
-12.7624
-12.7814
-12.7995
-12.817
-12.8341
-12.851
-12.8679
-12.8851
-12.9029
-12.9213
-12.9406
-12.961
-12.9826
-13.0053
-13.0291
-13.0537
-13.0789
-13.1041
-13.1285
-13.1511
-13.1709
-13.1864
-13.1961
-13.1988
-13.1935
-13.1769
-13.145
-12.3804
-12.3458
-12.3268
-12.3191
-12.3194
-12.327
-12.341
-12.36
-12.3829
-12.4086
-12.4363
-12.465
-12.4942
-12.5234
-12.5521
-12.58
-12.6069
-12.6327
-12.6572
-12.6805
-12.7025
-12.7233
-12.743
-12.7616
-12.7793
-12.7962
-12.8126
-12.8285
-12.8443
-12.86
-12.8759
-12.8922
-12.909
-12.9266
-12.9449
-12.9641
-12.9842
-13.005
-13.0263
-13.0478
-13.0689
-13.089
-13.1073
-13.1228
-13.1344
-13.141
-13.1418
-13.1361
-13.1214
-13.0945
-12.4388
-12.4083
-12.3907
-12.3825
-12.3809
-12.3855
-12.3956
-12.4102
-12.4283
-12.4492
-12.4721
-12.4963
-12.5212
-12.5463
-12.5713
-12.5959
-12.6198
-12.6429
-12.6651
-12.6862
-12.7062
-12.7253
-12.7433
-12.7604
-12.7768
-12.7924
-12.8075
-12.8222
-12.8367
-12.8511
-12.8656
-12.8804
-12.8956
-12.9114
-12.9278
-12.9448
-12.9624
-12.9805
-12.9988
-13.0171
-13.0348
-13.0514
-13.0662
-13.0784
-13.0872
-13.0917
-13.0914
-13.0857
-13.0729
-13.0503
-12.4902
-12.4633
-12.4473
-12.439
-12.4362
-12.4386
-12.4457
-12.4567
-12.471
-12.4878
-12.5065
-12.5267
-12.5477
-12.5691
-12.5907
-12.6121
-12.6331
-12.6535
-12.6732
-12.6921
-12.7101
-12.7273
-12.7436
-12.7592
-12.774
-12.7882
-12.802
-12.8153
-12.8284
-12.8415
-12.8546
-12.8678
-12.8814
-12.8954
-12.9099
-12.9248
-12.9402
-12.9558
-12.9715
-12.987
-13.0019
-13.0156
-13.0276
-13.0374
-13.0441
-13.0472
-13.0462
-13.041
-13.03
-13.0111
-12.5359
-12.5122
-12.4977
-12.4897
-12.4862
-12.4871
-12.4918
-12.5
-12.5111
-12.5245
-12.5396
-12.5562
-12.5737
-12.5917
-12.6101
-12.6284
-12.6466
-12.6644
-12.6816
-12.6982
-12.7142
-12.7295
-12.744
-12.7579
-12.7712
-12.7839
-12.7962
-12.8081
-12.8198
-12.8314
-12.843
-12.8547
-12.8667
-12.879
-12.8916
-12.9045
-12.9178
-12.9312
-12.9446
-12.9577
-12.9701
-12.9815
-12.9913
-12.9991
-13.0043
-13.0065
-13.0053
-13.0007
-12.9915
-12.976
-12.5767
-12.5561
-12.5432
-12.5356
-12.5318
-12.5315
-12.5346
-12.5405
-12.5489
-12.5593
-12.5714
-12.5848
-12.5991
-12.6141
-12.6294
-12.6449
-12.6603
-12.6755
-12.6904
-12.7048
-12.7186
-12.7319
-12.7447
-12.7568
-12.7685
-12.7796
-12.7903
-12.8008
-12.811
-12.8211
-12.8311
-12.8413
-12.8516
-12.8622
-12.873
-12.8841
-12.8954
-12.9068
-12.9181
-12.9291
-12.9394
-12.9488
-12.9568
-12.9631
-12.9672
-12.9688
-12.9678
-12.9639
-12.9564
-12.944
-12.6136
-12.5958
-12.5844
-12.5775
-12.5736
-12.5726
-12.5743
-12.5784
-12.5846
-12.5926
-12.602
-12.6126
-12.624
-12.6361
-12.6487
-12.6614
-12.6743
-12.687
-12.6995
-12.7117
-12.7234
-12.7348
-12.7456
-12.756
-12.7659
-12.7755
-12.7846
-12.7935
-12.8021
-12.8107
-12.8192
-12.8278
-12.8365
-12.8454
-12.8544
-12.8637
-12.8732
-12.8827
-12.8921
-12.9012
-12.9097
-12.9174
-12.924
-12.9291
-12.9324
-12.9337
-12.9329
-12.9299
-12.9241
-12.9145
-12.6472
-12.6321
-12.6223
-12.6161
-12.6123
-12.6108
-12.6115
-12.6142
-12.6186
-12.6244
-12.6315
-12.6395
-12.6484
-12.6579
-12.6679
-12.6781
-12.6884
-12.6988
-12.709
-12.719
-12.7287
-12.738
-12.747
-12.7556
-12.7638
-12.7716
-12.7792
-12.7864
-12.7935
-12.8004
-12.8074
-12.8143
-12.8213
-12.8285
-12.8359
-12.8434
-12.8511
-12.8588
-12.8664
-12.8738
-12.8808
-12.887
-12.8924
-12.8965
-12.8993
-12.9005
-12.9
-12.8979
-12.8938
-12.8868
-12.6782
-12.6656
-12.6574
-12.6519
-12.6484
-12.6467
-12.6467
-12.6482
-12.651
-12.655
-12.66
-12.6658
-12.6724
-12.6795
-12.687
-12.6949
-12.7029
-12.7109
-12.7189
-12.7268
-12.7344
-12.7418
-12.7489
-12.7557
-12.7621
-12.7683
-12.7741
-12.7797
-12.7852
-12.7905
-12.7957
-12.801
-12.8064
-12.8119
-12.8175
-12.8233
-12.8292
-12.8352
-12.8412
-12.847
-12.8524
-12.8574
-12.8617
-12.8651
-12.8674
-12.8686
-12.8687
-12.8675
-12.865
-12.8606
-12.707
-12.6969
-12.6902
-12.6857
-12.6825
-12.6807
-12.6801
-12.6806
-12.6822
-12.6846
-12.6877
-12.6916
-12.696
-12.7009
-12.7062
-12.7118
-12.7175
-12.7234
-12.7293
-12.7351
-12.7407
-12.7462
-12.7514
-12.7564
-12.761
-12.7654
-12.7696
-12.7735
-12.7772
-12.7809
-12.7844
-12.788
-12.7917
-12.7954
-12.7993
-12.8034
-12.8076
-12.8119
-12.8162
-12.8205
-12.8246
-12.8283
-12.8317
-12.8344
-12.8364
-12.8377
-12.8383
-12.8381
-12.8371
-12.8352
-12.7342
-12.7265
-12.7214
-12.7177
-12.715
-12.7132
-12.7122
-12.7119
-12.7123
-12.7133
-12.7149
-12.7169
-12.7194
-12.7222
-12.7254
-12.7289
-12.7325
-12.7363
-12.7401
-12.7439
-12.7476
-12.7512
-12.7545
-12.7577
-12.7606
-12.7632
-12.7656
-12.7678
-12.7698
-12.7717
-12.7736
-12.7754
-12.7773
-12.7792
-12.7814
-12.7836
-12.7861
-12.7887
-12.7914
-12.7942
-12.7969
-12.7995
-12.802
-12.8041
-12.8059
-12.8073
-12.8084
-12.8092
-12.8098
-12.8103
-12.7602
-12.7549
-12.7513
-12.7486
-12.7464
-12.7447
-12.7433
-12.7424
-12.7418
-12.7415
-12.7415
-12.7419
-12.7425
-12.7435
-12.7447
-12.7461
-12.7478
-12.7496
-12.7514
-12.7533
-12.7551
-12.7568
-12.7583
-12.7596
-12.7607
-12.7616
-12.7623
-12.7627
-12.763
-12.7631
-12.7632
-12.7632
-12.7632
-12.7634
-12.7636
-12.7641
-12.7647
-12.7656
-12.7667
-12.7679
-12.7693
-12.7708
-12.7723
-12.7739
-12.7754
-12.777
-12.7787
-12.7804
-12.7825
-12.7854
-12.7854
-12.7825
-12.7804
-12.7787
-12.777
-12.7754
-12.7739
-12.7723
-12.7708
-12.7693
-12.7679
-12.7667
-12.7656
-12.7647
-12.7641
-12.7636
-12.7634
-12.7632
-12.7632
-12.7632
-12.7631
-12.763
-12.7627
-12.7623
-12.7616
-12.7607
-12.7596
-12.7583
-12.7568
-12.7551
-12.7533
-12.7514
-12.7496
-12.7478
-12.7461
-12.7447
-12.7435
-12.7425
-12.7419
-12.7415
-12.7415
-12.7418
-12.7424
-12.7433
-12.7447
-12.7464
-12.7486
-12.7513
-12.7549
-12.7602
-12.8103
-12.8098
-12.8092
-12.8084
-12.8073
-12.8059
-12.8041
-12.802
-12.7995
-12.7969
-12.7942
-12.7914
-12.7887
-12.7861
-12.7836
-12.7814
-12.7792
-12.7773
-12.7754
-12.7736
-12.7717
-12.7698
-12.7678
-12.7656
-12.7632
-12.7606
-12.7577
-12.7545
-12.7512
-12.7476
-12.7439
-12.7401
-12.7363
-12.7325
-12.7289
-12.7254
-12.7222
-12.7194
-12.7169
-12.7149
-12.7133
-12.7123
-12.7119
-12.7122
-12.7132
-12.715
-12.7177
-12.7214
-12.7265
-12.7342
-12.8352
-12.8371
-12.8381
-12.8383
-12.8377
-12.8364
-12.8344
-12.8317
-12.8283
-12.8246
-12.8205
-12.8162
-12.8119
-12.8076
-12.8034
-12.7993
-12.7954
-12.7917
-12.788
-12.7844
-12.7809
-12.7772
-12.7735
-12.7696
-12.7654
-12.761
-12.7564
-12.7514
-12.7462
-12.7407
-12.7351
-12.7293
-12.7234
-12.7175
-12.7118
-12.7062
-12.7009
-12.696
-12.6916
-12.6877
-12.6846
-12.6822
-12.6806
-12.6801
-12.6807
-12.6825
-12.6857
-12.6902
-12.6969
-12.707
-12.8606
-12.865
-12.8675
-12.8687
-12.8686
-12.8674
-12.8651
-12.8617
-12.8574
-12.8524
-12.847
-12.8412
-12.8352
-12.8292
-12.8233
-12.8175
-12.8119
-12.8064
-12.801
-12.7957
-12.7905
-12.7852
-12.7797
-12.7741
-12.7683
-12.7621
-12.7557
-12.7489
-12.7418
-12.7344
-12.7268
-12.7189
-12.7109
-12.7029
-12.6949
-12.687
-12.6795
-12.6724
-12.6658
-12.66
-12.655
-12.651
-12.6482
-12.6467
-12.6467
-12.6484
-12.6519
-12.6574
-12.6656
-12.6781
-12.8868
-12.8938
-12.898
-12.9
-12.9005
-12.8993
-12.8965
-12.8924
-12.887
-12.8808
-12.8738
-12.8664
-12.8588
-12.8511
-12.8434
-12.8359
-12.8285
-12.8213
-12.8143
-12.8074
-12.8004
-12.7935
-12.7864
-12.7792
-12.7716
-12.7638
-12.7556
-12.747
-12.738
-12.7287
-12.719
-12.709
-12.6988
-12.6884
-12.6781
-12.6679
-12.6579
-12.6484
-12.6395
-12.6315
-12.6244
-12.6186
-12.6142
-12.6115
-12.6108
-12.6123
-12.6161
-12.6223
-12.6321
-12.6472
-12.9145
-12.9241
-12.9299
-12.9329
-12.9337
-12.9324
-12.9291
-12.924
-12.9174
-12.9097
-12.9012
-12.8921
-12.8827
-12.8732
-12.8637
-12.8544
-12.8454
-12.8365
-12.8278
-12.8192
-12.8107
-12.8021
-12.7935
-12.7846
-12.7755
-12.7659
-12.756
-12.7456
-12.7348
-12.7234
-12.7117
-12.6995
-12.687
-12.6743
-12.6614
-12.6487
-12.6361
-12.624
-12.6126
-12.602
-12.5926
-12.5846
-12.5784
-12.5743
-12.5726
-12.5736
-12.5775
-12.5844
-12.5958
-12.6136
-12.944
-12.9564
-12.9639
-12.9678
-12.9688
-12.9672
-12.9631
-12.9568
-12.9488
-12.9394
-12.9291
-12.9181
-12.9068
-12.8954
-12.8841
-12.873
-12.8622
-12.8516
-12.8413
-12.8311
-12.8211
-12.811
-12.8008
-12.7903
-12.7796
-12.7685
-12.7568
-12.7447
-12.7319
-12.7186
-12.7048
-12.6904
-12.6755
-12.6603
-12.6449
-12.6294
-12.6141
-12.5991
-12.5848
-12.5714
-12.5593
-12.5489
-12.5405
-12.5345
-12.5315
-12.5318
-12.5356
-12.5432
-12.5561
-12.5767
-12.976
-12.9915
-13.0007
-13.0053
-13.0065
-13.0043
-12.9991
-12.9913
-12.9815
-12.9701
-12.9577
-12.9446
-12.9312
-12.9178
-12.9045
-12.8916
-12.879
-12.8667
-12.8547
-12.843
-12.8314
-12.8198
-12.8081
-12.7962
-12.7839
-12.7712
-12.7579
-12.744
-12.7295
-12.7142
-12.6982
-12.6816
-12.6644
-12.6466
-12.6284
-12.6101
-12.5917
-12.5737
-12.5562
-12.5396
-12.5245
-12.5111
-12.5
-12.4918
-12.4871
-12.4862
-12.4897
-12.4977
-12.5122
-12.5359
-13.0111
-13.03
-13.041
-13.0462
-13.0472
-13.0441
-13.0374
-13.0276
-13.0156
-13.0019
-12.987
-12.9715
-12.9558
-12.9402
-12.9248
-12.9099
-12.8954
-12.8814
-12.8678
-12.8546
-12.8415
-12.8284
-12.8153
-12.802
-12.7882
-12.774
-12.7592
-12.7436
-12.7273
-12.7101
-12.6921
-12.6732
-12.6535
-12.6331
-12.6121
-12.5907
-12.5691
-12.5477
-12.5267
-12.5065
-12.4878
-12.471
-12.4567
-12.4457
-12.4386
-12.4362
-12.439
-12.4473
-12.4633
-12.4902
-13.0503
-13.0729
-13.0857
-13.0914
-13.0918
-13.0872
-13.0784
-13.0662
-13.0514
-13.0348
-13.0171
-12.9988
-12.9805
-12.9624
-12.9448
-12.9278
-12.9114
-12.8956
-12.8804
-12.8656
-12.8511
-12.8367
-12.8222
-12.8075
-12.7924
-12.7768
-12.7604
-12.7433
-12.7253
-12.7062
-12.6862
-12.6651
-12.6429
-12.6198
-12.5959
-12.5713
-12.5463
-12.5212
-12.4963
-12.4721
-12.4492
-12.4283
-12.4102
-12.3956
-12.3855
-12.3809
-12.3825
-12.3907
-12.4083
-12.4388
-13.0945
-13.1214
-13.1361
-13.1418
-13.141
-13.1344
-13.1228
-13.1073
-13.089
-13.0689
-13.0478
-13.0263
-13.005
-12.9842
-12.9641
-12.9449
-12.9266
-12.909
-12.8922
-12.8759
-12.86
-12.8443
-12.8285
-12.8126
-12.7962
-12.7793
-12.7616
-12.743
-12.7233
-12.7025
-12.6805
-12.6572
-12.6327
-12.6069
-12.58
-12.5521
-12.5234
-12.4942
-12.465
-12.4363
-12.4086
-12.3829
-12.36
-12.341
-12.327
-12.3194
-12.3191
-12.3268
-12.3458
-12.3804
-13.1451
-13.1769
-13.1935
-13.1988
-13.1961
-13.1864
-13.1709
-13.1511
-13.1285
-13.1041
-13.0789
-13.0537
-13.0291
-13.0053
-12.9826
-12.961
-12.9406
-12.9213
-12.9029
-12.8851
-12.8679
-12.851
-12.8341
-12.817
-12.7995
-12.7814
-12.7624
-12.7425
-12.7213
-12.6989
-12.6751
-12.6497
-12.6228
-12.5944
-12.5644
-12.533
-12.5005
-12.467
-12.4331
-12.3992
-12.3661
-12.3346
-12.3059
-12.2813
-12.2623
-12.2505
-12.2473
-12.2539
-12.2742
-12.3135
-13.2038
-13.2414
-13.2597
-13.2638
-13.258
-13.2439
-13.2232
-13.1979
-13.1698
-13.1402
-13.1102
-13.0807
-13.0523
-13.0252
-12.9997
-12.9757
-12.9532
-12.9321
-12.9121
-12.893
-12.8745
-12.8565
-12.8386
-12.8205
-12.802
-12.7829
-12.7628
-12.7417
-12.7193
-12.6954
-12.6699
-12.6426
-12.6134
-12.5824
-12.5494
-12.5145
-12.4779
-12.4399
-12.4008
-12.3611
-12.3216
-12.2834
-12.2477
-12.216
-12.1904
-12.1729
-12.1655
-12.1699
-12.1913
-12.2359
-13.2732
-13.3176
-13.3373
-13.3389
-13.3283
-13.3078
-13.2801
-13.2477
-13.2127
-13.1768
-13.1412
-13.1068
-13.0741
-13.0435
-13.0149
-12.9884
-12.9638
-12.9409
-12.9195
-12.8991
-12.8796
-12.8606
-12.8418
-12.8229
-12.8036
-12.7837
-12.7628
-12.7407
-12.7172
-12.692
-12.665
-12.6359
-12.6047
-12.5711
-12.5352
-12.4968
-12.4561
-12.4132
-12.3685
-12.3224
-12.2757
-12.2295
-12.1852
-12.1447
-12.1104
-12.0851
-12.0714
-12.0722
-12.0941
-12.1451
-13.3565
-13.4091
-13.4295
-13.4265
-13.4085
-13.3791
-13.3419
-13.3002
-13.2567
-13.2132
-13.1711
-13.1312
-13.0939
-13.0594
-13.0277
-12.9987
-12.9721
-12.9475
-12.9247
-12.9032
-12.8828
-12.863
-12.8436
-12.8241
-12.8042
-12.7836
-12.7621
-12.7392
-12.7149
-12.6887
-12.6604
-12.6298
-12.5967
-12.5609
-12.5221
-12.4803
-12.4354
-12.3876
-12.3368
-12.2837
-12.2288
-12.1733
-12.1187
-12.0671
-12.0214
-11.9853
-11.9626
-11.9573
-11.9787
-12.0371
-13.4588
-13.5212
-13.5405
-13.5295
-13.5002
-13.4582
-13.4084
-13.355
-13.301
-13.2486
-13.199
-13.1529
-13.1107
-13.0722
-13.0374
-13.0059
-12.9774
-12.9513
-12.9274
-12.905
-12.8839
-12.8636
-12.8437
-12.8238
-12.8036
-12.7827
-12.7608
-12.7375
-12.7125
-12.6856
-12.6564
-12.6246
-12.5899
-12.552
-12.5107
-12.4657
-12.4167
-12.3637
-12.3068
-12.246
-12.182
-12.1157
-12.0487
-11.9832
-11.9227
-11.8718
-11.8358
-11.8206
-11.8395
-11.9066
-13.5877
-13.6614
-13.6762
-13.6516
-13.6053
-13.5456
-13.479
-13.4107
-13.3442
-13.2814
-13.2234
-13.1708
-13.1234
-13.081
-13.0432
-13.0094
-12.9792
-12.952
-12.9271
-12.9042
-12.8827
-12.8621
-12.8421
-12.8221
-12.8018
-12.7809
-12.7589
-12.7354
-12.7102
-12.6829
-12.6531
-12.6205
-12.5846
-12.545
-12.5015
-12.4535
-12.4007
-12.3428
-12.2795
-12.2108
-12.1368
-12.0582
-11.9764
-11.8937
-11.8139
-11.7427
-11.6871
-11.6559
-11.6682
-11.7452
-13.7557
-13.8408
-13.8444
-13.797
-13.725
-13.6406
-13.5521
-13.4654
-13.384
-13.3096
-13.2427
-13.1832
-13.1308
-13.0847
-13.0442
-13.0086
-12.9771
-12.949
-12.9237
-12.9006
-12.879
-12.8585
-12.8387
-12.8189
-12.7989
-12.7782
-12.7565
-12.7333
-12.7082
-12.6809
-12.6509
-12.6178
-12.5811
-12.5405
-12.4952
-12.4448
-12.3886
-12.3261
-12.2566
-12.1797
-12.0951
-12.0029
-11.904
-11.8003
-11.6958
-11.5967
-11.5121
-11.4549
-11.4532
-11.5396
-13.9842
-14.0765
-14.0551
-13.9696
-13.8595
-13.7411
-13.6246
-13.5158
-13.4175
-13.3305
-13.2544
-13.1885
-13.1314
-13.0822
-13.0397
-13.0028
-12.9706
-12.9422
-12.9169
-12.8939
-12.8728
-12.8528
-12.8335
-12.8143
-12.795
-12.7749
-12.7538
-12.7312
-12.7066
-12.6797
-12.65
-12.617
-12.5801
-12.5389
-12.4925
-12.4404
-12.3815
-12.3151
-12.24
-12.1553
-12.06
-11.9533
-11.8351
-11.7064
-11.5705
-11.4337
-11.3068
-11.2072
-11.1764
-11.2667
-14.3123
-14.3938
-14.32
-14.1719
-14.0058
-13.8421
-13.6908
-13.5565
-13.4402
-13.3406
-13.256
-13.1844
-13.1238
-13.0725
-13.0288
-12.9914
-12.9593
-12.9312
-12.9065
-12.8843
-12.864
-12.8449
-12.8266
-12.8085
-12.7902
-12.7712
-12.7511
-12.7294
-12.7058
-12.6798
-12.6509
-12.6185
-12.5821
-12.541
-12.4944
-12.4414
-12.3809
-12.3116
-12.232
-12.1405
-12.0352
-11.914
-11.7753
-11.6181
-11.4436
-11.2568
-11.0685
-10.9006
-10.8113
-10.8849
-14.8125
-14.8309
-14.6509
-14.4016
-14.1555
-13.9334
-13.7416
-13.5802
-13.4462
-13.3355
-13.2443
-13.1688
-13.1063
-13.0543
-13.0108
-12.9741
-12.9428
-12.916
-12.8925
-12.8717
-12.8528
-12.8351
-12.8183
-12.8016
-12.7847
-12.7672
-12.7485
-12.7283
-12.7061
-12.6815
-12.6539
-12.6228
-12.5876
-12.5475
-12.5016
-12.4489
-12.3881
-12.3175
-12.2353
-12.1389
-12.0254
-11.8913
-11.7326
-11.5451
-11.3259
-11.0754
-10.8003
-10.523
-10.3187
-10.3187
-15.6157
-15.4379
-15.0554
-14.6491
-14.2932
-14.0004
-13.7651
-13.578
-13.4295
-13.3113
-13.2166
-13.1402
-13.0781
-13.0273
-12.9855
-12.9507
-12.9215
-12.8966
-12.8752
-12.8564
-12.8395
-12.8238
-12.8088
-12.794
-12.779
-12.7633
-12.7465
-12.7282
-12.7079
-12.6851
-12.6595
-12.6303
-12.597
-12.5588
-12.5147
-12.4636
-12.4041
-12.3343
-12.2518
-12.1535
-12.0354
-11.892
-11.7165
-11.5002
-11.2332
-10.9056
-10.5122
-10.0668
-9.64734
-9.43358
-17.0188
-16.2555
-15.5097
-14.8814
-14.3885
-14.0191
-13.7449
-13.5396
-13.384
-13.2644
-13.1711
-13.0976
-13.0389
-12.9916
-12.9532
-12.9217
-12.8956
-12.8737
-12.8551
-12.8389
-12.8245
-12.8112
-12.7986
-12.7861
-12.7733
-12.7599
-12.7453
-12.7292
-12.7112
-12.6909
-12.6676
-12.641
-12.6104
-12.5749
-12.5338
-12.4858
-12.4294
-12.3627
-12.2831
-12.1869
-12.0693
-11.9232
-11.7386
-11.5012
-11.1911
-10.7806
-10.2399
-9.55853
-8.75723
-7.92451
-19.8519
-17.253
-15.8327
-14.9442
-14.3337
-13.9195
-13.6363
-13.4365
-13.2908
-13.182
-13.0988
-13.0343
-12.9834
-12.943
-12.9106
-12.8844
-12.863
-12.8453
-12.8306
-12.818
-12.8069
-12.7968
-12.7872
-12.7776
-12.7678
-12.7571
-12.7454
-12.7322
-12.7172
-12.6999
-12.6799
-12.6567
-12.6298
-12.5984
-12.5618
-12.5188
-12.4681
-12.408
-12.3358
-12.2482
-12.14
-12.0038
-11.8279
-11.594
-11.2719
-10.8114
-10.1431
-9.18259
-7.67553
-4.95537
-24.7209
-18.3361
-15.6687
-14.5674
-13.9669
-13.6082
-13.3843
-13.2344
-13.1275
-13.0481
-12.9876
-12.9407
-12.904
-12.875
-12.852
-12.8339
-12.8195
-12.808
-12.7988
-12.7912
-12.7847
-12.779
-12.7735
-12.7679
-12.7619
-12.7551
-12.7473
-12.7379
-12.7269
-12.7138
-12.6982
-12.6798
-12.6581
-12.6326
-12.6027
-12.5675
-12.526
-12.4769
-12.4185
-12.348
-12.2619
-12.1543
-12.0161
-11.8309
-11.5667
-11.1599
-10.494
-9.29768
-6.51219
-3.32646e-05
)
;

boundaryField
{
    movingWallTop
    {
        type            zeroGradient;
    }
    movingWallBottom
    {
        type            zeroGradient;
    }
    fixedWalls
    {
        type            zeroGradient;
    }
    frontAndBack
    {
        type            empty;
    }
}


// ************************************************************************* //
