/*--------------------------------*- C++ -*----------------------------------*\
  =========                 |
  \\      /  F ield         | OpenFOAM: The Open Source CFD Toolbox
   \\    /   O peration     | Website:  https://openfoam.org
    \\  /    A nd           | Version:  7
     \\/     M anipulation  |
\*---------------------------------------------------------------------------*/
FoamFile
{
    version     2.0;
    format      ascii;
    class       volVectorField;
    location    "0.0624";
    object      U;
}
// * * * * * * * * * * * * * * * * * * * * * * * * * * * * * * * * * * * * * //

dimensions      [0 1 -1 0 0 0 0];

internalField   nonuniform List<vector> 
2500
(
(-0.293797 0.153719 0)
(-0.397929 0.128719 0)
(-0.577969 0.0737926 0)
(-0.696269 0.0408773 0)
(-0.765269 0.0233989 0)
(-0.809624 0.0141478 0)
(-0.840238 0.00916427 0)
(-0.862358 0.00635818 0)
(-0.879016 0.00467087 0)
(-0.891997 0.00358245 0)
(-0.902372 0.0028348 0)
(-0.910821 0.00229395 0)
(-0.917797 0.00188606 0)
(-0.923612 0.00156783 0)
(-0.928489 0.00131228 0)
(-0.932591 0.00110176 0)
(-0.936038 0.000924167 0)
(-0.93892 0.000770945 0)
(-0.941303 0.000635858 0)
(-0.943241 0.000514239 0)
(-0.944769 0.000402512 0)
(-0.945917 0.000297867 0)
(-0.946704 0.000198035 0)
(-0.947144 0.000101129 0)
(-0.947243 5.52328e-06 0)
(-0.947004 -9.02876e-05 0)
(-0.946425 -0.000187691 0)
(-0.945498 -0.000288103 0)
(-0.944211 -0.000393045 0)
(-0.942547 -0.000504238 0)
(-0.940482 -0.000623731 0)
(-0.937986 -0.000754074 0)
(-0.935018 -0.000898546 0)
(-0.931526 -0.0010615 0)
(-0.927444 -0.00124886 0)
(-0.922682 -0.00146893 0)
(-0.917123 -0.00173371 0)
(-0.910608 -0.00206113 0)
(-0.902919 -0.0024792 0)
(-0.893746 -0.00303384 0)
(-0.88264 -0.00380466 0)
(-0.868916 -0.00493715 0)
(-0.851493 -0.00671014 0)
(-0.828569 -0.00967496 0)
(-0.79713 -0.0149191 0)
(-0.752029 -0.0244968 0)
(-0.682519 -0.0421434 0)
(-0.564911 -0.07461 0)
(-0.3893 -0.128119 0)
(-0.290203 -0.152368 0)
(-0.00515845 0.302901 0)
(-0.0270649 0.307345 0)
(-0.171354 0.217805 0)
(-0.308267 0.146608 0)
(-0.417245 0.0992494 0)
(-0.502555 0.0690013 0)
(-0.569033 0.0497588 0)
(-0.621085 0.0372249 0)
(-0.662386 0.0287459 0)
(-0.695661 0.0227741 0)
(-0.722844 0.0184075 0)
(-0.745308 0.0151067 0)
(-0.764044 0.0125374 0)
(-0.779773 0.0104847 0)
(-0.793027 0.00880554 0)
(-0.804206 0.00740118 0)
(-0.813609 0.0062017 0)
(-0.821466 0.00515624 0)
(-0.827952 0.00422691 0)
(-0.8332 0.00338488 0)
(-0.83731 0.00260773 0)
(-0.840357 0.00187762 0)
(-0.842394 0.00117998 0)
(-0.843459 0.000502576 0)
(-0.84357 -0.000165269 0)
(-0.842737 -0.000833269 0)
(-0.840952 -0.00151069 0)
(-0.8382 -0.00220687 0)
(-0.834448 -0.00293179 0)
(-0.829653 -0.00369667 0)
(-0.823755 -0.00451474 0)
(-0.816674 -0.00540221 0)
(-0.808309 -0.00637963 0)
(-0.798527 -0.00747375 0)
(-0.78716 -0.00872025 0)
(-0.773988 -0.0101678 0)
(-0.758725 -0.0118841 0)
(-0.740994 -0.0139661 0)
(-0.720289 -0.0165562 0)
(-0.69593 -0.0198692 0)
(-0.66698 -0.0242412 0)
(-0.632145 -0.0302131 0)
(-0.589614 -0.0386811 0)
(-0.536871 -0.0511576 0)
(-0.4706 -0.0701708 0)
(-0.38695 -0.0996687 0)
(-0.281731 -0.145073 0)
(-0.151452 -0.212582 0)
(-0.0164109 -0.298159 0)
(-0.000978614 -0.294659 0)
(0.0321095 0.264054 0)
(0.0563436 0.362368 0)
(-0.00371727 0.325038 0)
(-0.0960609 0.26063 0)
(-0.192543 0.201002 0)
(-0.281464 0.153995 0)
(-0.358702 0.119083 0)
(-0.424041 0.0935141 0)
(-0.47883 0.0746533 0)
(-0.524749 0.0605128 0)
(-0.563344 0.0496974 0)
(-0.595914 0.0412492 0)
(-0.623501 0.0345107 0)
(-0.646927 0.0290255 0)
(-0.666835 0.0244715 0)
(-0.683726 0.0206176 0)
(-0.697995 0.0172942 0)
(-0.709947 0.014375 0)
(-0.719821 0.011764 0)
(-0.727803 0.00938693 0)
(-0.734036 0.00718535 0)
(-0.738626 0.00511216 0)
(-0.741651 0.00312856 0)
(-0.743166 0.00120172 0)
(-0.743202 -0.000697124 0)
(-0.741771 -0.00259417 0)
(-0.73887 -0.00451445 0)
(-0.734474 -0.00648316 0)
(-0.728545 -0.00852697 0)
(-0.721022 -0.0106756 0)
(-0.711824 -0.0129639 0)
(-0.700847 -0.0154336 0)
(-0.687954 -0.0181374 0)
(-0.672974 -0.0211423 0)
(-0.655689 -0.024536 0)
(-0.635824 -0.0284354 0)
(-0.61303 -0.0329987 0)
(-0.586866 -0.0384437 0)
(-0.556768 -0.0450751 0)
(-0.522023 -0.0533251 0)
(-0.481739 -0.0638153 0)
(-0.434824 -0.0774436 0)
(-0.38001 -0.0955013 0)
(-0.316003 -0.119796 0)
(-0.241933 -0.152663 0)
(-0.158493 -0.19643 0)
(-0.0699915 -0.251266 0)
(0.0122733 -0.309851 0)
(0.0620441 -0.343167 0)
(0.0330411 -0.24987 0)
(0.0271404 0.205273 0)
(0.0636737 0.357952 0)
(0.0549187 0.375899 0)
(0.00744072 0.33887 0)
(-0.0603693 0.286332 0)
(-0.134176 0.235558 0)
(-0.205818 0.192306 0)
(-0.271515 0.157266 0)
(-0.329993 0.129386 0)
(-0.38124 0.107249 0)
(-0.425791 0.0895594 0)
(-0.464364 0.0752675 0)
(-0.497682 0.0635637 0)
(-0.526403 0.0538363 0)
(-0.551094 0.0456248 0)
(-0.572228 0.0385811 0)
(-0.590198 0.0324403 0)
(-0.60532 0.0269985 0)
(-0.61785 0.022097 0)
(-0.627994 0.0176102 0)
(-0.63591 0.0134378 0)
(-0.641722 0.00949764 0)
(-0.645522 0.00572149 0)
(-0.647373 0.00205107 0)
(-0.647317 -0.00156493 0)
(-0.645371 -0.00517337 0)
(-0.641533 -0.00881889 0)
(-0.635784 -0.0125462 0)
(-0.628081 -0.0164021 0)
(-0.618364 -0.0204384 0)
(-0.606549 -0.0247144 0)
(-0.592528 -0.0293009 0)
(-0.576164 -0.0342846 0)
(-0.557287 -0.0397741 0)
(-0.535688 -0.045908 0)
(-0.511111 -0.0528659 0)
(-0.483248 -0.0608825 0)
(-0.451733 -0.0702675 0)
(-0.416136 -0.0814317 0)
(-0.375976 -0.0949197 0)
(-0.330751 -0.111448 0)
(-0.280017 -0.131934 0)
(-0.223561 -0.157493 0)
(-0.16174 -0.189307 0)
(-0.0961046 -0.228178 0)
(-0.0304593 -0.273298 0)
(0.0275517 -0.319318 0)
(0.0649385 -0.350681 0)
(0.0657479 -0.331831 0)
(0.0268768 -0.189858 0)
(0.0184374 0.163543 0)
(0.0529781 0.33187 0)
(0.0681611 0.387521 0)
(0.0521489 0.380467 0)
(0.0121144 0.345006 0)
(-0.0412156 0.300704 0)
(-0.0996706 0.257116 0)
(-0.15804 0.21809 0)
(-0.213379 0.184628 0)
(-0.264255 0.156483 0)
(-0.310151 0.132953 0)
(-0.351049 0.113248 0)
(-0.387182 0.0966415 0)
(-0.418887 0.0825162 0)
(-0.446525 0.0703653 0)
(-0.470442 0.0597809 0)
(-0.490952 0.0504367 0)
(-0.508324 0.0420712 0)
(-0.522789 0.0344744 0)
(-0.534536 0.027476 0)
(-0.543721 0.0209364 0)
(-0.550465 0.0147401 0)
(-0.554862 0.00878942 0)
(-0.556979 0.00300012 0)
(-0.556861 -0.00270232 0)
(-0.554533 -0.00838609 0)
(-0.549999 -0.014116 0)
(-0.543244 -0.0199565 0)
(-0.534236 -0.0259742 0)
(-0.522925 -0.0322419 0)
(-0.50924 -0.0388412 0)
(-0.493092 -0.0458676 0)
(-0.474371 -0.0534354 0)
(-0.452945 -0.0616842 0)
(-0.428657 -0.0707868 0)
(-0.401332 -0.0809593 0)
(-0.370773 -0.0924725 0)
(-0.33678 -0.105665 0)
(-0.299164 -0.120958 0)
(-0.257794 -0.138861 0)
(-0.212672 -0.159967 0)
(-0.16406 -0.184904 0)
(-0.112707 -0.2142 0)
(-0.0601851 -0.247962 0)
(-0.00938101 -0.285185 0)
(0.0349341 -0.322389 0)
(0.065585 -0.351165 0)
(0.0734369 -0.35437 0)
(0.0532078 -0.301712 0)
(0.0179151 -0.148271 0)
(0.0119315 0.134822 0)
(0.0406584 0.301108 0)
(0.0648095 0.378893 0)
(0.067618 0.396818 0)
(0.0488843 0.3805 0)
(0.0146728 0.347751 0)
(-0.0287405 0.309337 0)
(-0.076348 0.271052 0)
(-0.124621 0.23561 0)
(-0.171315 0.204002 0)
(-0.215133 0.176324 0)
(-0.255415 0.152269 0)
(-0.291895 0.131375 0)
(-0.324543 0.113157 0)
(-0.35346 0.0971628 0)
(-0.378804 0.0829941 0)
(-0.400759 0.0703111 0)
(-0.419508 0.0588272 0)
(-0.435219 0.048303 0)
(-0.448043 0.0385377 0)
(-0.458108 0.0293629 0)
(-0.46552 0.0206358 0)
(-0.470363 0.012234 0)
(-0.472702 0.00405053 0)
(-0.472583 -0.0040098 0)
(-0.470034 -0.0120343 0)
(-0.465066 -0.0201058 0)
(-0.457677 -0.0283056 0)
(-0.447849 -0.0367172 0)
(-0.435552 -0.0454293 0)
(-0.420742 -0.05454 0)
(-0.403367 -0.0641607 0)
(-0.38336 -0.0744212 0)
(-0.360653 -0.0854749 0)
(-0.335173 -0.097505 0)
(-0.306852 -0.11073 0)
(-0.275647 -0.12541 0)
(-0.241554 -0.141848 0)
(-0.204653 -0.160384 0)
(-0.165159 -0.181378 0)
(-0.123521 -0.205156 0)
(-0.0805465 -0.231899 0)
(-0.0375953 -0.261432 0)
(0.00318682 -0.292819 0)
(0.0386299 -0.323668 0)
(0.0644431 -0.349007 0)
(0.0754572 -0.359666 0)
(0.0669357 -0.340413 0)
(0.0400891 -0.269005 0)
(0.0114453 -0.120003 0)
(0.00784217 0.114379 0)
(0.0308757 0.272092 0)
(0.056799 0.361268 0)
(0.0695822 0.397466 0)
(0.0653613 0.398403 0)
(0.0464979 0.378602 0)
(0.0169768 0.348311 0)
(-0.0192167 0.314057 0)
(-0.058749 0.279627 0)
(-0.0991316 0.246999 0)
(-0.138653 0.217041 0)
(-0.176208 0.189992 0)
(-0.211135 0.165753 0)
(-0.243072 0.144065 0)
(-0.271855 0.124611 0)
(-0.297444 0.107068 0)
(-0.319871 0.0911307 0)
(-0.339205 0.0765232 0)
(-0.355535 0.0630034 0)
(-0.368951 0.0503599 0)
(-0.379541 0.0384096 0)
(-0.387383 0.0269931 0)
(-0.392543 0.0159711 0)
(-0.395076 0.00522039 0)
(-0.395025 -0.00536974 0)
(-0.39242 -0.0159011 0)
(-0.387281 -0.0264697 0)
(-0.379619 -0.0371693 0)
(-0.369436 -0.0480939 0)
(-0.356727 -0.0593418 0)
(-0.341484 -0.0710184 0)
(-0.323697 -0.0832401 0)
(-0.30336 -0.0961375 0)
(-0.280477 -0.109859 0)
(-0.255068 -0.124572 0)
(-0.227189 -0.140467 0)
(-0.196944 -0.157751 0)
(-0.164523 -0.176639 0)
(-0.130235 -0.197334 0)
(-0.0945755 -0.219978 0)
(-0.0583005 -0.244578 0)
(-0.0225328 -0.270856 0)
(0.0111215 -0.298013 0)
(0.0404664 -0.324351 0)
(0.0626984 -0.346698 0)
(0.0746136 -0.359648 0)
(0.0731826 -0.354699 0)
(0.0569158 -0.319676 0)
(0.0299526 -0.239393 0)
(0.00743673 -0.100149 0)
(0.00539259 0.0993798 0)
(0.0238394 0.246622 0)
(0.0485001 0.340449 0)
(0.0658806 0.388964 0)
(0.070815 0.403904 0)
(0.0632786 0.396366 0)
(0.0452986 0.37523 0)
(0.0196314 0.34689 0)
(-0.0109847 0.315591 0)
(-0.0442162 0.283942 0)
(-0.0782479 0.253419 0)
(-0.111753 0.224759 0)
(-0.143807 0.19824 0)
(-0.173799 0.173876 0)
(-0.201343 0.151533 0)
(-0.226213 0.131007 0)
(-0.248292 0.11207 0)
(-0.267533 0.0944894 0)
(-0.283933 0.0780477 0)
(-0.297515 0.0625433 0)
(-0.308316 0.0477944 0)
(-0.316377 0.033638 0)
(-0.321741 0.0199282 0)
(-0.324448 0.00653375 0)
(-0.324533 -0.00666439 0)
(-0.322028 -0.019776 0)
(-0.316959 -0.0329043 0)
(-0.309352 -0.0461484 0)
(-0.299229 -0.0596065 0)
(-0.286615 -0.0733778 0)
(-0.271538 -0.0875657 0)
(-0.254036 -0.10228 0)
(-0.234164 -0.117636 0)
(-0.211997 -0.133762 0)
(-0.18765 -0.150788 0)
(-0.161286 -0.168849 0)
(-0.133145 -0.188072 0)
(-0.103565 -0.208556 0)
(-0.0730308 -0.230337 0)
(-0.0422128 -0.253329 0)
(-0.0120308 -0.277232 0)
(0.0162886 -0.301383 0)
(0.0411646 -0.324539 0)
(0.0606634 -0.344564 0)
(0.0726185 -0.358034 0)
(0.0749696 -0.359796 0)
(0.0663778 -0.342646 0)
(0.0473045 -0.297426 0)
(0.0227227 -0.214175 0)
(0.00504504 -0.0857972 0)
(0.00390648 0.0879739 0)
(0.0188652 0.224763 0)
(0.0412355 0.319293 0)
(0.0602079 0.375574 0)
(0.070546 0.40118 0)
(0.0709114 0.404264 0)
(0.0619192 0.39209 0)
(0.0452166 0.370436 0)
(0.0228265 0.343538 0)
(-0.00328419 0.314303 0)
(-0.0314151 0.284603 0)
(-0.0601974 0.255566 0)
(-0.0885838 0.227807 0)
(-0.115804 0.201605 0)
(-0.141313 0.177028 0)
(-0.164734 0.154019 0)
(-0.185821 0.132451 0)
(-0.204417 0.112164 0)
(-0.220432 0.0929857 0)
(-0.23382 0.0747431 0)
(-0.244562 0.0572721 0)
(-0.252661 0.0404193 0)
(-0.25813 0.0240432 0)
(-0.260993 0.00801388 0)
(-0.261273 -0.00778788 0)
(-0.259002 -0.0234724 0)
(-0.254211 -0.0391427 0)
(-0.246938 -0.0548966 0)
(-0.237226 -0.0708284 0)
(-0.225126 -0.0870302 0)
(-0.210704 -0.103594 0)
(-0.194042 -0.120611 0)
(-0.175249 -0.138173 0)
(-0.154468 -0.156369 0)
(-0.131891 -0.175281 0)
(-0.107772 -0.194971 0)
(-0.0824481 -0.215473 0)
(-0.056366 -0.236758 0)
(-0.0301104 -0.258698 0)
(-0.00443713 -0.281 0)
(0.0196953 -0.303117 0)
(0.0411054 -0.32411 0)
(0.0583982 -0.342477 0)
(0.0700336 -0.355928 0)
(0.0745089 -0.361142 0)
(0.0707126 -0.353571 0)
(0.0584434 -0.32743 0)
(0.0391456 -0.276074 0)
(0.0176161 -0.193121 0)
(0.00359189 -0.0750766 0)
(0.00296698 0.0789858 0)
(0.0152994 0.206059 0)
(0.0352181 0.299098 0)
(0.0541996 0.359904 0)
(0.0674725 0.393279 0)
(0.0731029 0.405073 0)
(0.0707992 0.401011 0)
(0.061341 0.386054 0)
(0.0460781 0.364144 0)
(0.0265376 0.33822 0)
(0.00418397 0.310357 0)
(-0.019699 0.281944 0)
(-0.0440502 0.253858 0)
(-0.0680293 0.226612 0)
(-0.0909924 0.200467 0)
(-0.11246 0.175518 0)
(-0.132083 0.151755 0)
(-0.149616 0.129102 0)
(-0.16489 0.107451 0)
(-0.177793 0.0866739 0)
(-0.188257 0.0666368 0)
(-0.196242 0.0472083 0)
(-0.201734 0.0282618 0)
(-0.204733 0.00967838 0)
(-0.205255 -0.00865313 0)
(-0.203324 -0.0268358 0)
(-0.198977 -0.0449655 0)
(-0.192261 -0.0631311 0)
(-0.183235 -0.0814159 0)
(-0.171976 -0.0998973 0)
(-0.158579 -0.118648 0)
(-0.143167 -0.137732 0)
(-0.125892 -0.157208 0)
(-0.106953 -0.177118 0)
(-0.0865992 -0.197483 0)
(-0.0651486 -0.218293 0)
(-0.0430036 -0.239482 0)
(-0.0206688 -0.260902 0)
(0.00122904 -0.282279 0)
(0.0219251 -0.303156 0)
(0.0405074 -0.322808 0)
(0.0559275 -0.340134 0)
(0.0670441 -0.353533 0)
(0.0727249 -0.360756 0)
(0.0720386 -0.358788 0)
(0.0645639 -0.343804 0)
(0.0507756 -0.311309 0)
(0.0324952 -0.256584 0)
(0.0139497 -0.175603 0)
(0.00267013 -0.0668086 0)
(0.0023417 0.0716891 0)
(0.0126752 0.18998 0)
(0.030307 0.280371 0)
(0.0485112 0.343481 0)
(0.0631513 0.382305 0)
(0.0721229 0.400978 0)
(0.0746133 0.403907 0)
(0.0707847 0.395207 0)
(0.0614287 0.378382 0)
(0.0476449 0.356228 0)
(0.030615 0.330863 0)
(0.0114646 0.303817 0)
(-0.00880889 0.276149 0)
(-0.0293644 0.248555 0)
(-0.049518 0.221464 0)
(-0.0687292 0.195114 0)
(-0.0865812 0.169611 0)
(-0.10276 0.144974 0)
(-0.117033 0.121165 0)
(-0.129234 0.0981114 0)
(-0.139247 0.0757226 0)
(-0.146998 0.0538982 0)
(-0.152442 0.0325363 0)
(-0.15556 0.0115368 0)
(-0.156352 -0.00919515 0)
(-0.15484 -0.0297483 0)
(-0.151058 -0.0502042 0)
(-0.145062 -0.0706365 0)
(-0.136924 -0.0911109 0)
(-0.126739 -0.111684 0)
(-0.114626 -0.132401 0)
(-0.100737 -0.153297 0)
(-0.0852595 -0.174386 0)
(-0.0684285 -0.195663 0)
(-0.0505334 -0.217086 0)
(-0.0319301 -0.23857 0)
(-0.0130523 -0.259959 0)
(0.0055766 -0.281 0)
(0.0233352 -0.301306 0)
(0.0395009 -0.3203 0)
(0.0532584 -0.337148 0)
(0.0637299 -0.350684 0)
(0.0700356 -0.359322 0)
(0.0714035 -0.360975 0)
(0.0673423 -0.353019 0)
(0.0578866 -0.332335 0)
(0.0438602 -0.295505 0)
(0.0271254 -0.239222 0)
(0.0112483 -0.160984 0)
(0.00205499 -0.0602634 0)
(0.00190335 0.0656269 0)
(0.0106848 0.176062 0)
(0.0262851 0.263248 0)
(0.0433526 0.327174 0)
(0.0583852 0.369672 0)
(0.0693356 0.393627 0)
(0.075133 0.402383 0)
(0.0755343 0.399273 0)
(0.0709041 0.387313 0)
(0.0619712 0.369058 0)
(0.0496356 0.346557 0)
(0.0348335 0.321383 0)
(0.0184521 0.294698 0)
(0.00128374 0.267329 0)
(-0.0159931 0.239838 0)
(-0.032816 0.212586 0)
(-0.0487306 0.185789 0)
(-0.063378 0.159557 0)
(-0.0764806 0.133928 0)
(-0.0878291 0.108891 0)
(-0.09727 0.0844034 0)
(-0.104695 0.0604049 0)
(-0.110035 0.036825 0)
(-0.11325 0.0135903 0)
(-0.114329 -0.00937148 0)
(-0.113283 -0.0321282 0)
(-0.110148 -0.0547413 0)
(-0.10498 -0.0772636 0)
(-0.0978601 -0.0997377 0)
(-0.0888956 -0.122194 0)
(-0.0782225 -0.144649 0)
(-0.0660114 -0.167098 0)
(-0.0524723 -0.189516 0)
(-0.0378614 -0.211845 0)
(-0.0224886 -0.233984 0)
(-0.00672454 -0.255779 0)
(0.00899211 -0.276996 0)
(0.0241501 -0.297299 0)
(0.0381651 -0.316217 0)
(0.0503867 -0.333098 0)
(0.0601186 -0.34706 0)
(0.0666576 -0.35694 0)
(0.0693601 -0.361239 0)
(0.067743 -0.358095 0)
(0.0616281 -0.345288 0)
(0.0513235 -0.320325 0)
(0.0377915 -0.280645 0)
(0.0227691 -0.223953 0)
(0.00920071 -0.148724 0)
(0.00162347 -0.054978 0)
(0.00158107 0.0605015 0)
(0.00912844 0.163931 0)
(0.0229514 0.247699 0)
(0.0387431 0.311469 0)
(0.0535697 0.356316 0)
(0.065548 0.384233 0)
(0.0735164 0.397728 0)
(0.0769876 0.399458 0)
(0.0760197 0.391966 0)
(0.0710425 0.377515 0)
(0.0627028 0.358016 0)
(0.0517444 0.335013 0)
(0.0389228 0.309709 0)
(0.0249511 0.283008 0)
(0.0104694 0.25557 0)
(-0.00396864 0.227856 0)
(-0.0178977 0.200176 0)
(-0.0309362 0.172727 0)
(-0.0427784 0.145618 0)
(-0.0531848 0.118903 0)
(-0.0619731 0.0925907 0)
(-0.0690096 0.0666651 0)
(-0.0742022 0.0410928 0)
(-0.0774942 0.0158323 0)
(-0.0788609 -0.00916058 0)
(-0.0783055 -0.033928 0)
(-0.0758583 -0.0585063 0)
(-0.0715763 -0.0829231 0)
(-0.0655432 -0.107194 0)
(-0.0578721 -0.131321 0)
(-0.0487077 -0.155285 0)
(-0.0382301 -0.179047 0)
(-0.0266592 -0.202537 0)
(-0.0142591 -0.225648 0)
(-0.00134334 -0.248226 0)
(0.011721 -0.270056 0)
(0.024511 -0.29084 0)
(0.036548 -0.310182 0)
(0.0473034 -0.327555 0)
(0.0562129 -0.342268 0)
(0.0627015 -0.353437 0)
(0.0662263 -0.359946 0)
(0.066339 -0.360429 0)
(0.0627734 -0.353262 0)
(0.0555578 -0.336603 0)
(0.0451445 -0.308491 0)
(0.032509 -0.267022 0)
(0.0191938 -0.210622 0)
(0.00760465 -0.138396 0)
(0.00130686 -0.0506477 0)
(0.0013341 0.0561123 0)
(0.00787567 0.153296 0)
(0.0201426 0.233637 0)
(0.0346286 0.296629 0)
(0.0488841 0.342856 0)
(0.0612304 0.373677 0)
(0.0705146 0.390954 0)
(0.0761193 0.396783 0)
(0.0778959 0.393273 0)
(0.0760459 0.382389 0)
(0.071003 0.365867 0)
(0.0633332 0.345173 0)
(0.0536564 0.3215 0)
(0.0425912 0.29579 0)
(0.0307185 0.268763 0)
(0.0185609 0.240957 0)
(0.00657334 0.21276 0)
(-0.00485868 0.18444 0)
(-0.0154167 0.156179 0)
(-0.0248438 0.128088 0)
(-0.0329384 0.10023 0)
(-0.0395478 0.0726355 0)
(-0.0445625 0.0453111 0)
(-0.047911 0.0182503 0)
(-0.0495563 -0.00855903 0)
(-0.0494926 -0.0351297 0)
(-0.0477439 -0.0614695 0)
(-0.0443632 -0.0875779 0)
(-0.0394331 -0.113441 0)
(-0.0330667 -0.139029 0)
(-0.0254097 -0.164291 0)
(-0.016643 -0.189148 0)
(-0.00698584 -0.213489 0)
(0.00330143 -0.237163 0)
(0.0139147 -0.259968 0)
(0.0245046 -0.281638 0)
(0.0346776 -0.301829 0)
(0.044 -0.3201 0)
(0.0520079 -0.335893 0)
(0.0582245 -0.348508 0)
(0.0621876 -0.357087 0)
(0.0634904 -0.360591 0)
(0.0618374 -0.3578 0)
(0.057115 -0.347324 0)
(0.0494769 -0.327656 0)
(0.0394328 -0.297265 0)
(0.0279018 -0.254751 0)
(0.0162146 -0.199047 0)
(0.00632716 -0.129668 0)
(0.00106532 -0.0470652 0)
(0.00113795 0.0523199 0)
(0.00683978 0.143936 0)
(0.0177331 0.220956 0)
(0.0309336 0.282791 0)
(0.0443964 0.329702 0)
(0.0566523 0.362596 0)
(0.0666126 0.382845 0)
(0.0736068 0.392086 0)
(0.0773564 0.392049 0)
(0.0778969 0.384417 0)
(0.0754917 0.370738 0)
(0.070552 0.352368 0)
(0.0635696 0.330458 0)
(0.0550645 0.305952 0)
(0.0455474 0.279605 0)
(0.0354953 0.252005 0)
(0.0253375 0.223599 0)
(0.0154482 0.194719 0)
(0.00614538 0.165606 0)
(-0.0023078 0.136426 0)
(-0.00969952 0.107296 0)
(-0.015865 0.0782906 0)
(-0.0206822 0.0494573 0)
(-0.0240679 0.0208272 0)
(-0.0259742 -0.00757809 0)
(-0.0263861 -0.0357397 0)
(-0.0253199 -0.0636351 0)
(-0.0228222 -0.0912334 0)
(-0.0189702 -0.118491 0)
(-0.0138717 -0.145344 0)
(-0.00766721 -0.17171 0)
(-0.000530997 -0.197472 0)
(0.00732694 -0.222483 0)
(0.0156594 -0.246552 0)
(0.0241815 -0.269433 0)
(0.032571 -0.290823 0)
(0.0404722 -0.310341 0)
(0.0475023 -0.32752 0)
(0.0532632 -0.341788 0)
(0.0573607 -0.352458 0)
(0.0594305 -0.358713 0)
(0.0591759 -0.359606 0)
(0.0564141 -0.354062 0)
(0.0511326 -0.340906 0)
(0.0435513 -0.318915 0)
(0.0341818 -0.286904 0)
(0.0238527 -0.243851 0)
(0.0136897 -0.189051 0)
(0.00527878 -0.122289 0)
(0.00087468 -0.0440848 0)
(0.00097724 0.0490248 0)
(0.00596164 0.135682 0)
(0.0156278 0.209556 0)
(0.0275834 0.270021 0)
(0.0401193 0.317126 0)
(0.0519649 0.351453 0)
(0.0621231 0.374002 0)
(0.0699205 0.386045 0)
(0.0750055 0.388989 0)
(0.0772989 0.38426 0)
(0.0769333 0.373219 0)
(0.0741917 0.357102 0)
(0.069451 0.336993 0)
(0.0631363 0.313817 0)
(0.0556846 0.288336 0)
(0.0475195 0.26117 0)
(0.0390336 0.232809 0)
(0.0305795 0.203635 0)
(0.0224637 0.173937 0)
(0.0149463 0.143934 0)
(0.00824127 0.113789 0)
(0.00251912 0.0836194 0)
(-0.00209041 0.0535149 0)
(-0.00549537 0.0235431 0)
(-0.00763896 -0.00624019 0)
(-0.00849734 -0.0357834 0)
(-0.00807814 -0.0650331 0)
(-0.00641947 -0.0939276 0)
(-0.00358966 -0.122392 0)
(0.000312554 -0.150333 0)
(0.00515736 -0.177633 0)
(0.0107831 -0.204143 0)
(0.0169955 -0.229681 0)
(0.0235676 -0.25402 0)
(0.0302401 -0.276883 0)
(0.0367241 -0.297933 0)
(0.0427057 -0.316766 0)
(0.0478541 -0.332897 0)
(0.0518343 -0.345758 0)
(0.054325 -0.354683 0)
(0.0550438 -0.35891 0)
(0.0537784 -0.357581 0)
(0.0504253 -0.349761 0)
(0.0450331 -0.334463 0)
(0.0378465 -0.310698 0)
(0.0293458 -0.277555 0)
(0.0202546 -0.234298 0)
(0.0115112 -0.180479 0)
(0.0043977 -0.116063 0)
(0.000719591 -0.0416024 0)
(0.000841892 0.0461546 0)
(0.00519998 0.128406 0)
(0.013755 0.199349 0)
(0.0245113 0.258349 0)
(0.0360396 0.30531 0)
(0.0472496 0.340585 0)
(0.0572476 0.364889 0)
(0.0653886 0.379206 0)
(0.0712879 0.384674 0)
(0.0747924 0.382494 0)
(0.0759385 0.37385 0)
(0.0749062 0.359855 0)
(0.0719744 0.341517 0)
(0.0674813 0.319722 0)
(0.0617917 0.295225 0)
(0.0552723 0.268659 0)
(0.0482739 0.240541 0)
(0.041119 0.211291 0)
(0.0340956 0.18124 0)
(0.0274525 0.15065 0)
(0.0213995 0.119725 0)
(0.0161069 0.0886232 0)
(0.0117079 0.0574726 0)
(0.00829976 0.0263764 0)
(0.00594646 -0.00457568 0)
(0.00467991 -0.0353002 0)
(0.00450153 -0.0657128 0)
(0.00538319 -0.095722 0)
(0.00726764 -0.125223 0)
(0.0100687 -0.154092 0)
(0.0136711 -0.182181 0)
(0.0179302 -0.209312 0)
(0.0226725 -0.23527 0)
(0.0276957 -0.259799 0)
(0.0327705 -0.282593 0)
(0.0376442 -0.303293 0)
(0.0420459 -0.321476 0)
(0.0456951 -0.336654 0)
(0.0483137 -0.348264 0)
(0.0496435 -0.355673 0)
(0.049467 -0.358171 0)
(0.0476345 -0.354992 0)
(0.0440949 -0.345319 0)
(0.0389275 -0.328327 0)
(0.0323745 -0.30322 0)
(0.0248654 -0.269302 0)
(0.0170157 -0.226049 0)
(0.00959706 -0.173202 0)
(0.00364019 -0.110845 0)
(0.000589865 -0.0395418 0)
(0.000725057 0.0436558 0)
(0.00452538 0.122007 0)
(0.0120605 0.190261 0)
(0.0216615 0.247781 0)
(0.0321335 0.294379 0)
(0.042548 0.330238 0)
(0.0521167 0.355862 0)
(0.0602415 0.372006 0)
(0.066533 0.379587 0)
(0.0707948 0.379613 0)
(0.0729957 0.373108 0)
(0.0732363 0.361069 0)
(0.0717142 0.344421 0)
(0.068691 0.324002 0)
(0.0644642 0.300548 0)
(0.0593443 0.27469 0)
(0.0536372 0.246965 0)
(0.0476313 0.217815 0)
(0.0415898 0.187605 0)
(0.0357454 0.156631 0)
(0.0302975 0.125135 0)
(0.0254118 0.0933117 0)
(0.0212208 0.0613227 0)
(0.0178243 0.0293049 0)
(0.0152911 -0.00262008 0)
(0.0136605 -0.0343384 0)
(0.0129427 -0.0657364 0)
(0.0131205 -0.096694 0)
(0.0141492 -0.127078 0)
(0.0159576 -0.156737 0)
(0.0184476 -0.185495 0)
(0.0214952 -0.213146 0)
(0.0249503 -0.239449 0)
(0.0286384 -0.264121 0)
(0.0323627 -0.286835 0)
(0.0359073 -0.307212 0)
(0.0390435 -0.32482 0)
(0.0415376 -0.339169 0)
(0.043162 -0.349711 0)
(0.0437104 -0.35584 0)
(0.0430159 -0.356904 0)
(0.040973 -0.352212 0)
(0.0375612 -0.341055 0)
(0.0328697 -0.322741 0)
(0.0271196 -0.296629 0)
(0.0206795 -0.262188 0)
(0.0140598 -0.219058 0)
(0.00788454 -0.167112 0)
(0.00297459 -0.10652 0)
(0.000478503 -0.0378469 0)
(0.000621934 0.0414883 0)
(0.00391641 0.11641 0)
(0.0105031 0.182228 0)
(0.0189878 0.238315 0)
(0.0283747 0.284417 0)
(0.0378789 0.320595 0)
(0.0468151 0.347195 0)
(0.0546426 0.36479 0)
(0.0609864 0.374122 0)
(0.0656298 0.376033 0)
(0.0684972 0.371411 0)
(0.0696298 0.361139 0)
(0.0691596 0.346065 0)
(0.067283 0.326974 0)
(0.0642367 0.304574 0)
(0.0602777 0.279487 0)
(0.0556666 0.252256 0)
(0.0506558 0.22334 0)
(0.0454803 0.193127 0)
(0.040352 0.161943 0)
(0.0354562 0.130059 0)
(0.03095 0.0977004 0)
(0.0269615 0.0650605 0)
(0.0235903 0.0323063 0)
(0.0209085 -0.000411819 0)
(0.0189609 -0.0329518 0)
(0.0177665 -0.065173 0)
(0.017319 -0.0969289 0)
(0.0175874 -0.128061 0)
(0.0185167 -0.158392 0)
(0.0200281 -0.18772 0)
(0.0220197 -0.215816 0)
(0.0243672 -0.242415 0)
(0.0269255 -0.267213 0)
(0.0295306 -0.289865 0)
(0.0320037 -0.309977 0)
(0.0341558 -0.32711 0)
(0.0357958 -0.340776 0)
(0.0367399 -0.35044 0)
(0.036824 -0.35553 0)
(0.0359193 -0.355437 0)
(0.0339493 -0.349538 0)
(0.0309086 -0.337216 0)
(0.0268808 -0.317883 0)
(0.0220542 -0.291024 0)
(0.0167319 -0.256236 0)
(0.0113244 -0.213278 0)
(0.00632526 -0.162124 0)
(0.00237751 -0.103003 0)
(0.000380544 -0.036476 0)
(0.000529061 0.0396218 0)
(0.00335715 0.111557 0)
(0.0090511 0.175203 0)
(0.0164526 0.229944 0)
(0.0247373 0.275482 0)
(0.0332482 0.311792 0)
(0.0413983 0.339097 0)
(0.0487096 0.357835 0)
(0.0548341 0.368601 0)
(0.059552 0.372103 0)
(0.0627608 0.36911 0)
(0.0644596 0.360408 0)
(0.064729 0.34677 0)
(0.0637107 0.328927 0)
(0.061588 0.307555 0)
(0.0585683 0.283262 0)
(0.0548689 0.256588 0)
(0.0507049 0.228002 0)
(0.0462815 0.197909 0)
(0.0417871 0.166656 0)
(0.0373896 0.134538 0)
(0.0332342 0.101807 0)
(0.029442 0.0686826 0)
(0.02611 0.035358 0)
(0.023311 0.00200934 0)
(0.0210947 -0.0311966 0)
(0.0194877 -0.0640948 0)
(0.0184945 -0.0965153 0)
(0.0180981 -0.128276 0)
(0.0182604 -0.159179 0)
(0.0189229 -0.188999 0)
(0.020007 -0.217487 0)
(0.0214151 -0.244356 0)
(0.0230319 -0.269286 0)
(0.0247264 -0.291915 0)
(0.0263552 -0.31184 0)
(0.0277671 -0.328615 0)
(0.0288091 -0.341756 0)
(0.0293347 -0.350741 0)
(0.029214 -0.355022 0)
(0.0283457 -0.354031 0)
(0.0266712 -0.347202 0)
(0.024188 -0.333987 0)
(0.0209635 -0.313885 0)
(0.0171464 -0.286475 0)
(0.0129726 -0.251453 0)
(0.00875852 -0.20867 0)
(0.00488166 -0.158172 0)
(0.00183136 -0.100228 0)
(0.000292377 -0.0353982 0)
(0.000443879 0.0380335 0)
(0.00283554 0.107402 0)
(0.00767984 0.169146 0)
(0.0140255 0.222659 0)
(0.0211979 0.267617 0)
(0.0286551 0.30393 0)
(0.0359029 0.331732 0)
(0.0425283 0.351354 0)
(0.0482186 0.363281 0)
(0.0527629 0.368108 0)
(0.0560462 0.366504 0)
(0.0580387 0.359172 0)
(0.0587819 0.346815 0)
(0.0583726 0.330116 0)
(0.0569479 0.309717 0)
(0.0546702 0.286208 0)
(0.0517157 0.26012 0)
(0.0482631 0.231928 0)
(0.0444867 0.202046 0)
(0.0405497 0.170836 0)
(0.0366005 0.138612 0)
(0.0327697 0.105648 0)
(0.0291692 0.0721849 0)
(0.0258908 0.0384372 0)
(0.0230068 0.00460336 0)
(0.0205696 -0.0291287 0)
(0.0186127 -0.0625731 0)
(0.017151 -0.0955398 0)
(0.0161811 -0.127827 0)
(0.0156822 -0.159217 0)
(0.0156161 -0.189468 0)
(0.015928 -0.21831 0)
(0.0165472 -0.245441 0)
(0.0173882 -0.270526 0)
(0.0183525 -0.29319 0)
(0.0193307 -0.31302 0)
(0.0202065 -0.329566 0)
(0.0208612 -0.342345 0)
(0.0211804 -0.350847 0)
(0.0210615 -0.354542 0)
(0.020423 -0.352895 0)
(0.019215 -0.345381 0)
(0.0174299 -0.331508 0)
(0.0151117 -0.31084 0)
(0.012365 -0.283029 0)
(0.00935864 -0.247843 0)
(0.0063208 -0.205201 0)
(0.00352424 -0.155203 0)
(0.0013227 -0.0981472 0)
(0.000211311 -0.0345907 0)
(0.000364441 0.036706 0)
(0.00234222 0.103912 0)
(0.00636971 0.164025 0)
(0.011681 0.216452 0)
(0.0177354 0.260849 0)
(0.0240948 0.297083 0)
(0.030353 0.325224 0)
(0.0361623 0.345519 0)
(0.0412508 0.358366 0)
(0.0454253 0.364276 0)
(0.0485684 0.363835 0)
(0.0506325 0.357673 0)
(0.05163 0.346437 0)
(0.0516213 0.330761 0)
(0.0507037 0.311258 0)
(0.0489997 0.288495 0)
(0.0466466 0.262995 0)
(0.0437883 0.235231 0)
(0.0405679 0.205623 0)
(0.0371225 0.174543 0)
(0.0335791 0.142318 0)
(0.0300524 0.109238 0)
(0.0266424 0.0755615 0)
(0.0234342 0.0415204 0)
(0.0204974 0.00733048 0)
(0.0178861 -0.0268027 0)
(0.0156393 -0.0606765 0)
(0.0137813 -0.0940842 0)
(0.012322 -0.126808 0)
(0.0112573 -0.158615 0)
(0.0105692 -0.189246 0)
(0.0102268 -0.218419 0)
(0.010186 -0.245818 0)
(0.0103908 -0.271093 0)
(0.010774 -0.293859 0)
(0.011259 -0.313696 0)
(0.011762 -0.330148 0)
(0.0121958 -0.342732 0)
(0.0124735 -0.350943 0)
(0.0125147 -0.354266 0)
(0.0122519 -0.352185 0)
(0.0116378 -0.344209 0)
(0.0106535 -0.329883 0)
(0.00931525 -0.308818 0)
(0.00768104 -0.280719 0)
(0.00585362 -0.245405 0)
(0.00397752 -0.202846 0)
(0.00222954 -0.153178 0)
(0.000841025 -0.0967234 0)
(0.000135292 -0.0340367 0)
(0.00028922 0.0356266 0)
(0.00186971 0.101059 0)
(0.00510471 0.159817 0)
(0.00939811 0.211316 0)
(0.0143307 0.255201 0)
(0.0195603 0.291309 0)
(0.0247641 0.319664 0)
(0.0296596 0.340457 0)
(0.0340188 0.354018 0)
(0.0376722 0.36079 0)
(0.040508 0.361297 0)
(0.0424691 0.35611 0)
(0.0435464 0.345827 0)
(0.0437714 0.331043 0)
(0.0432073 0.312339 0)
(0.0419404 0.290265 0)
(0.0400726 0.265332 0)
(0.0377138 0.238007 0)
(0.0349766 0.208712 0)
(0.0319713 0.177825 0)
(0.0288027 0.145682 0)
(0.0255674 0.112585 0)
(0.0223523 0.078803 0)
(0.019234 0.0445822 0)
(0.0162776 0.0101513 0)
(0.0135375 -0.0242708 0)
(0.0110568 -0.0584687 0)
(0.00886833 -0.092223 0)
(0.00699414 -0.125304 0)
(0.00544626 -0.157465 0)
(0.0042267 -0.188438 0)
(0.00332757 -0.217927 0)
(0.00273121 -0.245607 0)
(0.00241036 -0.271116 0)
(0.00232847 -0.294059 0)
(0.00244038 -0.314009 0)
(0.00269337 -0.330504 0)
(0.00302891 -0.343058 0)
(0.00338514 -0.351167 0)
(0.00370018 -0.354321 0)
(0.00391635 -0.352018 0)
(0.00398507 -0.343782 0)
(0.00387226 -0.329184 0)
(0.00356362 -0.307867 0)
(0.00306927 -0.279565 0)
(0.00242685 -0.244137 0)
(0.00170095 -0.201584 0)
(0.000978618 -0.152069 0)
(0.000377995 -0.095931 0)
(6.27105e-05 -0.0337246 0)
(0.000216968 0.0347859 0)
(0.0014118 0.0988269 0)
(0.00387133 0.156504 0)
(0.00715826 0.207244 0)
(0.0109663 0.250686 0)
(0.0150433 0.286648 0)
(0.0191462 0.315124 0)
(0.0230569 0.336264 0)
(0.0265937 0.350354 0)
(0.0296148 0.357787 0)
(0.0320195 0.359038 0)
(0.0337473 0.354635 0)
(0.0347739 0.345134 0)
(0.0351073 0.331101 0)
(0.034781 0.313089 0)
(0.0338493 0.291629 0)
(0.0323804 0.267222 0)
(0.0304521 0.240327 0)
(0.0281466 0.211365 0)
(0.0255473 0.180717 0)
(0.0227359 0.148722 0)
(0.0197898 0.115689 0)
(0.0167814 0.0818948 0)
(0.0137769 0.047595 0)
(0.0108356 0.0130268 0)
(0.00801054 -0.0215822 0)
(0.00534774 -0.0560077 0)
(0.00288698 -0.0900219 0)
(0.000661691 -0.123387 0)
(-0.00130086 -0.155848 0)
(-0.00297962 -0.187128 0)
(-0.00435987 -0.216924 0)
(-0.00543355 -0.244902 0)
(-0.00619969 -0.270691 0)
(-0.00666482 -0.29389 0)
(-0.0068435 -0.314062 0)
(-0.00675848 -0.330737 0)
(-0.00644074 -0.343425 0)
(-0.00592897 -0.351615 0)
(-0.00526844 -0.354797 0)
(-0.00450917 -0.352471 0)
(-0.00370341 -0.344164 0)
(-0.00290235 -0.32946 0)
(-0.00215252 -0.308014 0)
(-0.00149205 -0.27958 0)
(-0.000947614 -0.244035 0)
(-0.000532107 -0.2014 0)
(-0.000244205 -0.151856 0)
(-7.32434e-05 -0.0957525 0)
(-7.74018e-06 -0.0336466 0)
(0.000146616 0.0341776 0)
(0.000963073 0.0972019 0)
(0.0026576 0.154076 0)
(0.00494474 0.204234 0)
(0.00762567 0.247315 0)
(0.010534 0.283128 0)
(0.0135044 0.311651 0)
(0.0163825 0.333009 0)
(0.0190341 0.34746 0)
(0.0213478 0.355365 0)
(0.0232377 0.357164 0)
(0.0246441 0.353356 0)
(0.0255321 0.344467 0)
(0.0258897 0.331036 0)
(0.0257248 0.313597 0)
(0.0250616 0.292665 0)
(0.0239372 0.268729 0)
(0.022398 0.24224 0)
(0.0204966 0.213616 0)
(0.018289 0.183235 0)
(0.0158331 0.15144 0)