/*--------------------------------*- C++ -*----------------------------------*\
  =========                 |
  \\      /  F ield         | OpenFOAM: The Open Source CFD Toolbox
   \\    /   O peration     | Website:  https://openfoam.org
    \\  /    A nd           | Version:  7
     \\/     M anipulation  |
\*---------------------------------------------------------------------------*/
FoamFile
{
    version     2.0;
    format      ascii;
    class       volScalarField;
    location    "0.0752";
    object      p;
}
// * * * * * * * * * * * * * * * * * * * * * * * * * * * * * * * * * * * * * //

dimensions      [0 2 -2 0 0 0 0];

internalField   nonuniform List<scalar> 
2500
(
-1.55608e-05
-0.000551968
-0.00225094
-0.00478805
-0.00777183
-0.0108807
-0.0138678
-0.0165397
-0.01875
-0.0203917
-0.0213898
-0.021696
-0.0212835
-0.0201443
-0.0182858
-0.0157286
-0.012505
-0.0086569
-0.00423482
0.000703261
0.00609293
0.0118641
0.0179419
0.0242474
0.0306982
0.0372095
0.0436947
0.0500665
0.0562375
0.0621218
0.067636
0.0727005
0.0772409
0.0811895
0.0844874
0.0870857
0.0889479
0.0900515
0.0903908
0.0899787
0.0888497
0.0870628
0.0847056
0.0818987
0.0788018
0.0756182
0.0726044
0.0700741
0.0684258
0.0679495
0.000508457
-2.0308e-05
-0.00140862
-0.00342229
-0.00577273
-0.00823256
-0.010607
-0.0127349
-0.0144889
-0.0157712
-0.0165107
-0.0166586
-0.0161859
-0.0150802
-0.0133436
-0.0109909
-0.00804767
-0.00454913
-0.000538636
0.00393316
0.00880933
0.0140275
0.0195205
0.0252175
0.0310443
0.0369245
0.04278
0.0485324
0.0541033
0.059416
0.0643962
0.0689734
0.0730825
0.0766647
0.0796696
0.0820565
0.083796
0.0848723
0.0852845
0.0850489
0.0842014
0.0827992
0.0809239
0.0786838
0.0762169
0.073693
0.0713135
0.0693019
0.0679452
0.0674734
0.00220328
0.00136787
-3.15621e-05
-0.00185368
-0.00391589
-0.00604174
-0.00807537
-0.00988458
-0.0113609
-0.0124189
-0.0129941
-0.0130415
-0.0125327
-0.0114544
-0.00980658
-0.00760074
-0.00485858
-0.00161075
0.0021042
0.0062408
0.0107475
0.0155677
0.0206399
0.0258993
0.0312778
0.0367053
0.04211
0.0474198
0.0525631
0.0574695
0.0620711
0.0663041
0.0701093
0.073434
0.0762332
0.0784712
0.0801229
0.0811757
0.0816309
0.0815052
0.0808328
0.0796666
0.0780801
0.0761683
0.074049
0.0718625
0.06977
0.0679488
0.0665855
0.0658292
0.00476945
0.00339311
0.00176652
-8.43588e-05
-0.0020747
-0.00406527
-0.00593079
-0.00756516
-0.00887906
-0.00980031
-0.0102736
-0.0102595
-0.00973269
-0.00868125
-0.00710477
-0.00501336
-0.00242644
0.000628262
0.00411566
0.00799416
0.0122164
0.0167301
0.0214786
0.0264016
0.031436
0.0365167
0.0415769
0.0465495
0.0513678
0.0559665
0.0602826
0.0642566
0.0678339
0.0709658
0.0736109
0.0757365
0.0773196
0.078349
0.078826
0.0787659
0.0781993
0.077173
0.0757511
0.0740153
0.0720641
0.0700121
0.0679905
0.0661416
0.0645587
0.0632842
0.00784269
0.00579867
0.00382587
0.00182463
-0.000214337
-0.00218182
-0.00397845
-0.00552216
-0.00674214
-0.00757984
-0.00798982
-0.00793936
-0.00740772
-0.00638522
-0.0048724
-0.00287902
-0.000423242
0.00246925
0.00576601
0.00942853
0.0134129
0.0176706
0.0221489
0.0267916
0.0315399
0.0363326
0.0411076
0.0458019
0.0503528
0.0546991
0.0587817
0.0625448
0.0659369
0.0689123
0.071432
0.073465
0.0749896
0.0759943
0.0764793
0.0764573
0.0759543
0.0750104
0.0736798
0.0720307
0.0701438
0.0681105
0.0660374
0.0640387
0.062119
0.0601975
0.0111461
0.00838242
0.00598951
0.00375154
0.00157305
-0.000459755
-0.00226854
-0.00379235
-0.00497736
-0.0057781
-0.00615905
-0.00609482
-0.00556972
-0.00457737
-0.00312004
-0.00120807
0.00114083
0.00390219
0.00704541
0.0105344
0.0143279
0.0183804
0.0226426
0.0270616
0.031582
0.0361463
0.0406957
0.0451708
0.0495121
0.0536616
0.0575631
0.0611632
0.064413
0.0672685
0.069692
0.0716531
0.0731301
0.0741107
0.0745927
0.0745854
0.0741098
0.0731986
0.0718964
0.0702591
0.0683513
0.0662445
0.0640258
0.0617882
0.0594542
0.0568305
0.0144689
0.010973
0.00811789
0.0055836
0.00319847
0.00103223
-0.000853191
-0.00241477
-0.00361369
-0.0044165
-0.00479724
-0.00473785
-0.00422807
-0.00326532
-0.00185426
-6.4755e-06
0.00226005
0.00492136
0.00794802
0.0113055
0.0149549
0.0188528
0.0229524
0.0272038
0.0315542
0.035949
0.0403321
0.0446466
0.0488357
0.0528435
0.0566157
0.060101
0.0632514
0.0660238
0.0683809
0.0702922
0.0717347
0.0726943
0.0731661
0.0731553
0.0726773
0.0717577
0.0704323
0.0687457
0.0667486
0.0644962
0.0620609
0.0595214
0.0567278
0.0533868
0.017647
0.0134266
0.0100889
0.00722048
0.0045828
0.00223438
0.000224723
-0.00141811
-0.00266829
-0.00350312
-0.00390549
-0.00386446
-0.00337528
-0.00243938
-0.00106426
0.000736788
0.00294494
0.00553619
0.00848166
0.0117479
0.0152974
0.0190885
0.0230766
0.0272135
0.0314488
0.0357299
0.0400028
0.0442124
0.0483038
0.0522224
0.0559152
0.0593316
0.0624242
0.0651499
0.0674707
0.069355
0.0707782
0.0717234
0.0721825
0.0721561
0.0716541
0.0706955
0.0693075
0.0675251
0.0653875
0.0629368
0.0602349
0.0573516
0.0540739
0.0500193
0.0205522
0.0156236
0.0117956
0.00857023
0.00564963
0.00308522
0.000917296
-0.000838392
-0.00216709
-0.00305558
-0.00349485
-0.00348062
-0.00301352
-0.00209912
-0.000747944
0.00102462
0.00319854
0.00574926
0.00864799
0.0118618
0.0153541
0.0190846
0.0230098
0.0270832
0.031256
0.035477
0.0396936
0.043852
0.0478983
0.0517787
0.0554406
0.0588334
0.0619095
0.0646249
0.0669404
0.0688225
0.070244
0.0711852
0.071634
0.0715863
0.0710466
0.0700272
0.0685483
0.0666363
0.0643209
0.061634
0.0586306
0.055376
0.0516019
0.0468449
0.0230825
0.0174634
0.0131441
0.00954847
0.00632542
0.00352224
0.00117262
-0.000717847
-0.00214381
-0.00310034
-0.0035857
-0.00360183
-0.00315447
-0.00225333
-0.000912083
0.000851594
0.00301611
0.00555603
0.0084422
0.0116419
0.0151188
0.0188335
0.0227434
0.026803
0.0309644
0.0351775
0.0393904
0.0435501
0.0476029
0.0514953
0.0551744
0.058589
0.0616904
0.0644331
0.066776
0.0686831
0.0701242
0.0710759
0.0715218
0.0714532
0.0708691
0.0697758
0.0681868
0.0661214
0.0636019
0.0606519
0.0573227
0.0536784
0.0494012
0.0439536
0.0251534
0.0188593
0.0140503
0.0100773
0.00653978
0.00348328
0.000936795
-0.00110246
-0.00263719
-0.0036697
-0.0042048
-0.00425018
-0.00381645
-0.00291732
-0.00156969
0.000206322
0.00238735
0.00494678
0.0078548
0.0110784
0.0145814
0.0183246
0.022266
0.0263605
0.0305609
0.0348174
0.0390785
0.0432913
0.047402
0.0513566
0.0551013
0.0585837
0.0617535
0.064563
0.0669684
0.0689307
0.0704162
0.0713972
0.0718531
0.07177
0.0711416
0.0699686
0.0682584
0.0660245
0.0632828
0.0600511
0.056379
0.052332
0.0475469
0.0414164
0.026692
0.019734
0.0144376
0.0100835
0.00622468
0.00290634
0.000154303
-0.00204131
-0.00369015
-0.00480094
-0.00538439
-0.00545352
-0.00502358
-0.00411216
-0.00273939
-0.000927932
0.0012969
0.0039071
0.0068719
0.0101577
0.0137282
0.017544
0.0215632
0.0257411
0.0300303
0.0343812
0.0387422
0.0430601
0.0472803
0.0513477
0.0552074
0.0588051
0.062088
0.065006
0.067512
0.0695633
0.071122
0.0721561
0.0726399
0.0725547
0.0718885
0.0706368
0.0688015
0.0663909
0.0634159
0.05989
0.0558627
0.0514029
0.0461045
0.0392927
0.027632
0.0200164
0.0142341
0.00949695
0.00531335
0.00172911
-0.00123215
-0.00358642
-0.0053495
-0.00653587
-0.0071617
-0.00724497
-0.00680535
-0.00586426
-0.00444502
-0.00257293
-0.000275367
0.00241807
0.00547546
0.00886241
0.012542
0.0164747
0.0206183
0.0249277
0.0293557
0.0338522
0.0383651
0.0428402
0.0472222
0.0514544
0.0554799
0.0592421
0.0626855
0.0657565
0.0684045
0.0705824
0.0722477
0.0733635
0.0738989
0.0738296
0.0731385
0.0718154
0.0698573
0.067268
0.0640543
0.0602261
0.0558343
0.0509528
0.0451336
0.0376354
0.0279105
0.0196386
0.01337
0.00824887
0.00373922
-0.000111729
-0.00328188
-0.00579273
-0.00766565
-0.00892048
-0.00957848
-0.00966238
-0.00919611
-0.00820486
-0.00671517
-0.00475501
-0.00235397
0.000456644
0.00364356
0.0071714
0.0110025
0.0150968
0.0194115
0.0239013
0.0285184
0.033212
0.0379293
0.042615
0.0472122
0.0516624
0.0559065
0.0598849
0.0635389
0.0668111
0.0696463
0.0719929
0.0738031
0.0750346
0.0756507
0.0756216
0.0749242
0.0735432
0.0714706
0.068706
0.0652524
0.0611174
0.056354
0.0510418
0.0446915
0.0364942
0.027465
0.0185332
0.0117765
0.00627035
0.00143484
-0.00268114
-0.00605662
-0.00871823
-0.0106926
-0.0120047
-0.0126807
-0.012748
-0.0122346
-0.0111696
-0.00958269
-0.00750465
-0.00496734
-0.00200394
0.00135081
0.0050604
0.00908624
0.0133875
0.0179209
0.0226404
0.0274975
0.0324407
0.0374159
0.0423666
0.0472341
0.0519577
0.0564754
0.0607246
0.0646426
0.0681677
0.0712399
0.0738021
0.0758009
0.0771877
0.0779198
0.077961
0.0772825
0.075863
0.0736897
0.070758
0.0670678
0.0626242
0.0574832
0.051731
0.0448359
0.0359198
0.0262318
0.0166322
0.00938316
0.00349094
-0.00166926
-0.00604658
-0.00962103
-0.0124243
-0.0144881
-0.0158425
-0.0165185
-0.0165481
-0.0159637
-0.014798
-0.0130843
-0.010856
-0.00814742
-0.00499375
-0.00143128
0.00250221
0.00676713
0.0113218
0.0161222
0.0211216
0.0262705
0.0315166
0.0368046
0.0420763
0.0472709
0.0523253
0.0571745
0.0617523
0.0659916
0.0698258
0.0731896
0.0760197
0.0782564
0.0798445
0.0807341
0.0808825
0.0802541
0.0788217
0.0765673
0.0734817
0.0695617
0.0648102
0.0592868
0.0530843
0.0456272
0.0359656
0.0241442
0.0138645
0.00611723
-0.000162575
-0.00564551
-0.0102788
-0.0140433
-0.0169758
-0.0191136
-0.0204915
-0.0211457
-0.0211128
-0.0204298
-0.0191334
-0.01726
-0.0148463
-0.0119292
-0.00854565
-0.00473381
-0.000532764
0.00401683
0.0088724
0.0139891
0.0193195
0.0248132
0.0304168
0.0360737
0.041724
0.0473047
0.0527501
0.0579917
0.0629593
0.0675813
0.0717857
0.0755009
0.0786571
0.0811875
0.0830293
0.0841251
0.0844243
0.0838843
0.0824711
0.0801608
0.0769397
0.0728007
0.0677447
0.0618345
0.0551706
0.0471313
0.0366907
0.021131
0.0101553
0.00190187
-0.0047674
-0.0105704
-0.0154525
-0.0193957
-0.0224421
-0.0246346
-0.0260133
-0.0266199
-0.0264959
-0.0256829
-0.0242218
-0.0221528
-0.0195157
-0.0163499
-0.0126947
-0.00858991
-0.00407601
0.000805261
0.00601045
0.0114939
0.0172075
0.0231
0.029117
0.0352005
0.0412888
0.0473169
0.053216
0.0589142
0.0643369
0.0694075
0.074048
0.0781804
0.0817274
0.0846141
0.0867694
0.0881274
0.088629
0.0882231
0.0868682
0.0845338
0.0812007
0.0768578
0.0715032
0.0652033
0.0580661
0.0494209
0.0381616
0.0171156
0.00542429
-0.00334491
-0.0104058
-0.0165255
-0.0216474
-0.0257552
-0.0288968
-0.0311209
-0.0324738
-0.0330025
-0.0327544
-0.0317758
-0.0301123
-0.027808
-0.0249061
-0.0214487
-0.0174775
-0.013034
-0.00816015
-0.00289868
0.00270613
0.00860801
0.0147581
0.0211046
0.027592
0.0341613
0.040749
0.0472879
0.0537063
0.0599286
0.0658758
0.0714657
0.0766141
0.0812355
0.0852447
0.088558
0.0910948
0.0927795
0.0935431
0.0933254
0.0920759
0.0897562
0.0863409
0.0818138
0.0761699
0.0694786
0.0618558
0.0525782
0.0404541
0.012015
-0.00041524
-0.0097115
-0.0171664
-0.0235983
-0.0289492
-0.0332045
-0.0364186
-0.038647
-0.0399424
-0.0403584
-0.0399482
-0.0387639
-0.0368557
-0.0342724
-0.0310605
-0.0272655
-0.0229311
-0.0181009
-0.0128181
-0.00712627
-0.00107049
0.00530254
0.0119436
0.0188002
0.0258164
0.032932
0.0400823
0.0471976
0.0542037
0.0610212
0.0675663
0.0737513
0.079485
0.0846743
0.0892248
0.0930431
0.0960381
0.0981231
0.0992182
0.0992518
0.0981635
0.0959056
0.092445
0.0877591
0.0818389
0.0747565
0.0666356
0.0566963
0.0436554
0.00573854
-0.00745759
-0.0172939
-0.0251452
-0.0318836
-0.03745
-0.0418322
-0.0450919
-0.0472921
-0.0484932
-0.0487558
-0.0481401
-0.0467042
-0.0445043
-0.0415934
-0.0380226
-0.03384
-0.0290924
-0.0238248
-0.0180818
-0.0119079
-0.00534845
0.00154955
0.00873677
0.0161607
0.023765
0.0314888
0.0392661
0.0470257
0.0546905
0.0621776
0.0693985
0.0762594
0.0826622
0.0885051
0.0936842
0.0980949
0.101635
0.104204
0.10571
0.106069
0.105208
0.103068
0.0996073
0.0947948
0.088616
0.0811454
0.0725144
0.0618819
0.0478661
-0.00181303
-0.015806
-0.0261971
-0.0344471
-0.0414846
-0.0472499
-0.051734
-0.0550069
-0.0571407
-0.058204
-0.058266
-0.0573946
-0.0556554
-0.0531104
-0.0498184
-0.0458345
-0.0412106
-0.035996
-0.0302376
-0.0239811
-0.0172716
-0.0101546
-0.00267686
0.0051126
0.0131616
0.021414
0.0298086
0.038279
0.0467524
0.0551493
0.0633836
0.0713622
0.0789852
0.086147
0.0927369
0.0986402
0.103741
0.107922
0.111071
0.11308
0.113851
0.113294
0.11134
0.107934
0.103035
0.096621
0.0887688
0.0796166
0.0682569
0.0532022
-0.0107487
-0.0255743
-0.0365367
-0.0451873
-0.0525143
-0.058458
-0.0630135
-0.0662609
-0.0682823
-0.0691566
-0.0689628
-0.067778
-0.0656759
-0.0627258
-0.0589926
-0.0545363
-0.0494126
-0.0436735
-0.0373678
-0.0305421
-0.0232417
-0.015512
-0.00739901
0.00104916
0.00978128
0.018742
0.0278707
0.0371008
0.0463587
0.0555632
0.0646253
0.0734473
0.0819236
0.0899408
0.0973786
0.104111
0.110009
0.114941
0.118778
0.121396
0.122677
0.122517
0.120828
0.117543
0.112607
0.10599
0.097767
0.0880844
0.0759619
0.0597977
-0.0211887
-0.0368883
-0.048441
-0.0574934
-0.0650973
-0.0711938
-0.0757835
-0.0789581
-0.0808123
-0.0814368
-0.0809223
-0.0793567
-0.0768233
-0.0733999
-0.0691581
-0.0641636
-0.0584763
-0.0521508
-0.0452379
-0.0377847
-0.0298367
-0.0214381
-0.0126339
-0.00347048
0.00600261
0.0157316
0.0256574
0.035714
0.0458279
0.0559169
0.0658894
0.0756441
0.0850697
0.0940449
0.10244
0.110116
0.116931
0.122735
0.127383
0.130729
0.132636
0.13298
0.131652
0.128568
0.123657
0.116877
0.108301
0.0980809
0.0851582
0.0678073
-0.0332666
-0.0498885
-0.0620528
-0.0715072
-0.0793717
-0.0855889
-0.0901667
-0.0932112
-0.0948317
-0.0951337
-0.0942217
-0.0921964
-0.0891527
-0.0851779
-0.0803517
-0.0747459
-0.0684248
-0.0614463
-0.0538625
-0.0457212
-0.0370668
-0.0279426
-0.0183911
-0.00845635
0.00181475
0.0123711
0.023156
0.0341052
0.0451464
0.0561972
0.0671646
0.0779441
0.0884192
0.0984611
0.10793
0.116675
0.124537
0.131349
0.136945
0.141158
0.143825
0.144798
0.143946
0.141159
0.13635
0.129458
0.120554
0.109794
0.0960324
0.0774098
-0.0471311
-0.0647329
-0.0775335
-0.0873885
-0.0954917
-0.101789
-0.106298
-0.109141
-0.110447
-0.110339
-0.108938
-0.106361
-0.102715
-0.0980988
-0.0926021
-0.0863033
-0.0792716
-0.0715679
-0.0632457
-0.0543526
-0.0449321
-0.0350247
-0.0246703
-0.0139093
-0.00278473
0.00865621
0.0203603
0.0322667
0.0443052
0.0563947
0.0684419
0.0803402
0.0919685
0.103191
0.113859
0.123807
0.132859
0.140832
0.147532
0.152767
0.156349
0.158099
0.157857
0.155486
0.150872
0.143936
0.134739
0.12344
0.1088
0.0888119
-0.0629501
-0.0816005
-0.0950658
-0.105318
-0.113631
-0.119956
-0.124324
-0.126879
-0.127772
-0.127148
-0.125149
-0.121909
-0.117553
-0.112193
-0.105928
-0.0988442
-0.091017
-0.08251
-0.0733775
-0.0636666
-0.0534186
-0.0426709
-0.031459
-0.0198186
-0.00778758
0.0045922
0.0172727
0.0301978
0.0433011
0.0565044
0.0697157
0.0828274
0.0957154
0.108238
0.120236
0.131532
0.141932
0.151231
0.159211
0.165649
0.170325
0.173024
0.173553
0.171739
0.167438
0.160541
0.151098
0.13927
0.12371
0.102253
-0.0809143
-0.100697
-0.11486
-0.125502
-0.133987
-0.140273
-0.144409
-0.146566
-0.146924
-0.145655
-0.142925
-0.138893
-0.133701
-0.127477
-0.120332
-0.112361
-0.103645
-0.0942499
-0.084231
-0.0736337
-0.0624962
-0.0508514
-0.0387293
-0.0261593
-0.0131725
0.000196316
0.013906
0.0279069
0.0421386
0.0565275
0.0709847
0.0854039
0.0996592
0.113604
0.127071
0.139869
0.151788
0.162598
0.172053
0.179899
0.185875
0.189728
0.191218
0.190134
0.186288
0.179539
0.169916
0.157576
0.141054
0.118012
-0.101243
-0.12226
-0.13716
-0.14818
-0.156784
-0.162944
-0.166732
-0.168355
-0.168027
-0.165955
-0.162336
-0.157355
-0.151178
-0.143952
-0.1358
-0.126827
-0.117118
-0.106744
-0.0957581
-0.0842038
-0.0721146
-0.0595175
-0.0464354
-0.0328896
-0.0189026
-0.00450017
0.0102854
0.0254132
0.040831
0.0564722
0.0722532
0.088071
0.103801
0.119293
0.134372
0.148837
0.162458
0.174982
0.186133
0.195617
0.203133
0.208378
0.21106
0.210914
0.207703
0.201237
0.191519
0.178697
0.161172
0.136414
-0.124191
-0.146571
-0.162253
-0.173631
-0.182285
-0.188205
-0.191496
-0.19241
-0.191208
-0.188138
-0.183437
-0.177323
-0.169987
-0.161598
-0.152293
-0.142189
-0.131375
-0.119923
-0.107886
-0.0953026
-0.0822004
-0.0685984
-0.0545106
-0.0399483
-0.0249231
-0.00944987
0.00645063
0.0227486
0.0394023
0.0563548
0.0735311
0.0908341
0.108142
0.125306
0.142146
0.158449
0.17397
0.188431
0.201522
0.21291
0.222243
0.229159
0.233307
0.234355
0.231999
0.22599
0.216292
0.203035
0.184465
0.15784
-0.150063
-0.173965
-0.190481
-0.202185
-0.210791
-0.21632
-0.218922
-0.218907
-0.216596
-0.212289
-0.206273
-0.198803
-0.190105
-0.180367
-0.169746
-0.158366
-0.146323
-0.133689
-0.120513
-0.106828
-0.0926534
-0.0779982
-0.0628649
-0.0472525
-0.0311596
-0.0145874
0.00245711
0.0199581
0.0378873
0.0562008
0.0748347
0.0937021
0.112688
0.131647
0.150396
0.168717
0.186348
0.202986
0.218291
0.231881
0.24335
0.25227
0.258213
0.260765
0.259542
0.254212
0.244686
0.231061
0.211406
0.18274
-0.179222
-0.204845
-0.222257
-0.234236
-0.242662
-0.247599
-0.24926
-0.248035
-0.244318
-0.238481
-0.230866
-0.221777
-0.211476
-0.200176
-0.188053
-0.17524
-0.161835
-0.147908
-0.133504
-0.118647
-0.103345
-0.0875937
-0.071383
-0.0546963
-0.0375166
-0.0198288
-0.00162319
0.0171012
0.0363329
0.0560441
0.0761865
0.0966867
0.117441
0.138312
0.159119
0.17964
0.199603
0.218681
0.2365
0.252632
0.266607
0.27792
0.286054
0.290494
0.29075
0.286386
0.277234
0.26334
0.242564
0.21165
-0.212114
-0.239713
-0.258087
-0.270262
-0.278321
-0.282395
-0.282786
-0.279989
-0.274496
-0.266765
-0.25721
-0.246189
-0.234005
-0.220902
-0.20707
-0.19265
-0.177741
-0.162409
-0.146689
-0.130592
-0.114113
-0.0972331
-0.0799233
-0.0621499
-0.0438772
-0.0250709
-0.00570183
0.0142511
0.0347966
0.055927
0.0776135
0.0998011
0.122403
0.145294
0.168303
0.19121
0.213734
0.235533
0.256198
0.275253
0.29216
0.306329
0.317132
0.323933
0.326106
0.323078
0.314571
0.300552
0.278624
0.245214
-0.249295
-0.279192
-0.2986
-0.310845
-0.318275
-0.32112
-0.319807
-0.314973
-0.307237
-0.297165
-0.285256
-0.271935
-0.257548
-0.242368
-0.226599
-0.210386
-0.193827
-0.176977
-0.159855
-0.14246
-0.124766
-0.106735
-0.088318
-0.0694601
-0.0501038
-0.030193
-0.00967537
0.0114932
0.0333453
0.0558974
0.079145
0.103057
0.127569
0.152574
0.17792
0.203394
0.228717
0.253533
0.277407
0.299815
0.320147
0.337715
0.351766
0.361515
0.366162
0.364956
0.357458
0.343521
0.320424
0.284217
-0.291472
-0.324079
-0.344588
-0.356708
-0.363133
-0.364247
-0.360656
-0.353184
-0.342618
-0.329656
-0.314901
-0.298849
-0.281893
-0.264332
-0.246381
-0.228185
-0.209828
-0.19135
-0.172753
-0.154012
-0.135079
-0.115891
-0.0963753
-0.0764529
-0.0560414
-0.0350593
-0.0134284
0.0089219
0.0320517
0.0560059
0.0808093
0.10646
0.132923
0.16012
0.187923
0.216138
0.244496
0.272641
0.300117
0.326356
0.350678
0.372288
0.39029
0.403717
0.411553
0.412805
0.406819
0.393263
0.369003
0.329627
-0.33956
-0.375404
-0.397065
-0.40875
-0.413631
-0.412322
-0.405687
-0.394804
-0.380671
-0.364151
-0.345964
-0.326684
-0.30675
-0.286481
-0.266092
-0.245716
-0.225421
-0.205221
-0.18509
-0.164974
-0.144796
-0.124467
-0.103883
-0.082938
-0.0615217
-0.0395241
-0.0168386
0.00663551
0.0309892
0.0563001
0.0826271
0.110004
0.138433
0.167874
0.198232
0.229345
0.26097
0.292762
0.324258
0.354859
0.383817
0.410227
0.433034
0.451053
0.462998
0.46756
0.463776
0.451042
0.425667
0.382656
-0.394768
-0.434529
-0.457344
-0.468104
-0.470653
-0.465965
-0.455264
-0.43997
-0.421352
-0.400465
-0.378161
-0.355092
-0.331733
-0.308409
-0.285325
-0.262587
-0.240231
-0.218234
-0.196534
-0.17504
-0.153641
-0.13221
-0.110615
-0.088715
-0.0663699
-0.0434388
-0.0197834
0.00472927
0.0302248
0.0568172
0.0846049
0.113664
0.144042
0.175744
0.208725
0.24287
0.277977
0.313733
0.349686
0.385227
0.419552
0.451652
0.4803
0.504058
0.521306
0.530321
0.529711
0.518452
0.492092
0.444857
-0.458735
-0.503283
-0.52715
-0.536201
-0.535262
-0.525858
-0.509727
-0.488739
-0.464496
-0.438278
-0.411071
-0.383593
-0.356336
-0.329612
-0.30359
-0.278332
-0.253823
-0.22999
-0.206723
-0.183883
-0.161317
-0.13886
-0.11634
-0.0935829
-0.0704146
-0.0466608
-0.0221499
0.00328628
0.0298102
0.0575755
0.0867255
0.117384
0.149652
0.183594
0.219226
0.256499
0.295272
0.335291
0.376148
0.417245
0.457756
0.496581
0.53232
0.563258
0.587366
0.602387
0.606328
0.597538
0.570466
0.518261
-0.533734
-0.584179
-0.608778
-0.614855
-0.608716
-0.592724
-0.569341
-0.54102
-0.50976
-0.477083
-0.444093
-0.411546
-0.379918
-0.34947
-0.320306
-0.292416
-0.265712
-0.240054
-0.215268
-0.19116
-0.167526
-0.144154
-0.120834
-0.097352
-0.0734986
-0.0490651
-0.0238447
0.00236695
0.0297718
0.0585633
0.0889375
0.12107
0.155122
0.19123
0.229487
0.269928
0.312505
0.35705
0.403239
0.450533
0.498123
0.54486
0.589191
0.629111
0.662115
0.685266
0.695743
0.690952
0.663716
0.605597
-0.623023
-0.68074
-0.705314
-0.706358
-0.692464
-0.667262
-0.634207
-0.596483
-0.556536
-0.516113
-0.476394
-0.438115
-0.401677
-0.367241
-0.334801
-0.30424
-0.275371
-0.247966
-0.221773
-0.196531
-0.171976
-0.147849
-0.123894
-0.0998568
-0.0754924
-0.0505565
-0.0248072
0.00199661
0.0300959
0.0597313
0.0911449
0.124574
0.160249
0.198385
0.23917
0.282748
0.329189
0.378458
0.43036
0.48448
0.540093
0.596072
0.650771
0.701912
0.74647
0.780672
0.800577
0.802184
0.775847
0.710661
-0.731438
-0.798018
-0.820935
-0.813569
-0.788089
-0.750009
-0.7041
-0.654409
-0.603828
-0.554255
-0.50685
-0.46223
-0.420636
-0.382055
-0.346316
-0.313152
-0.282246
-0.253259
-0.225847
-0.199671
-0.174405
-0.149732
-0.125352
-0.100971
-0.0763079
-0.0510829
-0.0250206
0.00215556
0.0307255
0.0609747
0.0931957
0.127688
0.164757
0.204708
0.247838
0.294421
0.344682
0.398761
0.456661
0.518168
0.582747
0.649405
0.716515
0.78162
0.841183
0.890456
0.924039
0.935871
0.912482
0.83895
-0.866486
-0.943415
-0.961311
-0.939956
-0.897145
-0.841099
-0.778227
-0.713486
-0.650098
-0.589943
-0.533983
-0.482562
-0.435636
-0.392926
-0.354025
-0.318469
-0.285779
-0.255483
-0.227131
-0.2003
-0.174593
-0.149641
-0.125095
-0.100624
-0.0759118
-0.0506474
-0.024524
0.00276781
0.0315441
0.0621325
0.094876
0.130136
0.168296
0.209757
0.254939
0.304267
0.358153
0.416968
0.480981
0.550288
0.624678
0.70347
0.785256
0.867596
0.946575
1.01643
1.06997
1.0982
1.08172
0.998813
-1.04042
-1.12798
-1.13406
-1.0895
-1.02079
-0.939834
-0.854847
-0.771516
-0.693074
-0.621047
-0.555907
-0.497506
-0.445347
-0.398772
-0.357064
-0.319511
-0.285442
-0.254234
-0.225324
-0.198197
-0.172391
-0.147481
-0.123076
-0.0988103
-0.0743365
-0.0493174
-0.0234191
0.00369547
0.032374
0.0629816
0.0959077
0.131573
0.170436
0.212999
0.259809
0.31146
0.368582
0.431823
0.501804
0.579047
0.663845
0.756085
0.854878
0.958187
1.06208
1.15998
1.24272
1.29738
1.29546
1.20366
-1.27449
-1.36844
-1.34907
-1.26615
-1.15899
-1.04393
-0.930686
-0.825032
-0.729525
-0.644761
-0.570299
-0.505193
-0.448303
-0.398465
-0.354578
-0.315643
-0.280772
-0.249188
-0.220207
-0.193232
-0.167734
-0.143242
-0.11933
-0.0956018
-0.0716876
-0.0472294
-0.0218736
0.004738
0.0329775
0.0632401
0.0959544
0.131593
0.170684
0.213823
0.261687
0.315044
0.374763
0.441808
0.517227
0.602101
0.697437
0.803984
0.921879
1.05009
1.18541
1.32118
1.44657
1.54391
1.57149
1.47644
-1.60769
-1.69015
-1.61794
-1.47213
-1.30874
-1.14811
-0.999998
-0.868731
-0.754964
-0.657485
-0.574368
-0.503519
-0.442949
-0.390879
-0.34577
-0.306315
-0.271409
-0.240122
-0.211666
-0.185369
-0.160651
-0.137003
-0.113973
-0.0911476
-0.068142
-0.0445868
-0.0201173
0.00563673
0.0330623
0.0625746
0.0946301
0.129741
0.168491
0.211558
0.259735
0.313956
0.375327
0.44515
0.524951
0.61648
0.721671
0.842513
0.98076
1.13732
1.31108
1.4969
1.68387
1.84999
1.9365
1.8588
-2.1121
-2.13083
-1.9521
-1.70486
-1.46138
-1.2423
-1.05355
-0.89503
-0.763538
-0.654886
-0.564997
-0.490293
-0.427779
-0.375004
-0.329988
-0.291132
-0.25714
-0.226958
-0.199717
-0.174693
-0.151274
-0.128932
-0.107203
-0.0856688
-0.0639407
-0.0416489
-0.0184284
0.00609217
0.0323029
0.060626
0.0915304
0.12555
0.163306
0.205533
0.253111
0.307112
0.36885
0.439946
0.522406
0.618705
0.731859
0.865455
1.02355
1.21023
1.42849
1.67802
1.9519
2.22757
2.42965
2.4263
-2.91854
-2.74067
-2.35926
-1.95485
-1.60148
-1.31156
-1.0793
-0.895103
-0.749149
-0.632932
-0.539634
-0.46398
-0.401938
-0.350437
-0.30712
-0.270167
-0.238155
-0.209954
-0.184658
-0.161523
-0.139933
-0.119359
-0.099346
-0.0794825
-0.0593917
-0.0387146
-0.0170975
0.00581996
0.0304179
0.0571101
0.0863607
0.118704
0.154769
0.195314
0.241265
0.293776
0.354307
0.424721
0.507435
0.605597
0.723334
0.866048
1.0407
1.25597
1.52186
1.84826
2.24039
2.68431
3.1019
3.31315
-4.3238
-3.56011
-2.81524
-2.1888
-1.6985
-1.33205
-1.06095
-0.858673
-0.705693
-0.588228
-0.496571
-0.423889
-0.365335
-0.317422
-0.277592
-0.243937
-0.215003
-0.189664
-0.167027
-0.146372
-0.127108
-0.108733
-0.0908158
-0.0729707
-0.0548444
-0.0361013
-0.0164114
0.00456262
0.0271771
0.0518218
0.0789362
0.10903
0.14271
0.180712
0.223953
0.273594
0.331133
0.398541
0.47846
0.574496
0.691659
0.837013
1.0206
1.25666
1.56539
1.97446
2.51365
3.19356
3.99333
4.82418
-7.15778
-4.55833
-3.13901
-2.25244
-1.64477
-1.23374
-0.954016
-0.757481
-0.614845
-0.508468
-0.427195
-0.363743
-0.313227
-0.272273
-0.238481
-0.210093
-0.18579
-0.164559
-0.145606
-0.128291
-0.112089
-0.0965587
-0.0813183
-0.0660284
-0.0503774
-0.0340695
-0.0168127
0.00168948
0.0217521
0.0437198
0.0679817
0.0949898
0.125283
0.159521
0.198524
0.243343
0.295348
0.356367
0.428904
0.516473
0.624161
0.759552
0.934265
1.16665
1.48706
1.94575
2.61217
3.57092
5.07642
7.79526
-12.0262
-5.64112
-2.97471
-1.87566
-1.27842
-0.923537
-0.703751
-0.557815
-0.454586
-0.37831
-0.320164
-0.274752
-0.23857
-0.209223
-0.184998
-0.164631
-0.147162
-0.131844
-0.118081
-0.105393
-0.0933759
-0.0816902
-0.0700384
-0.0581543
-0.0457919
-0.0327169
-0.0186989
-0.00350071
0.0131265
0.0314544
0.051788
0.0744794
0.099945
0.128689
0.161334
0.198669
0.241712
0.291811
0.350796
0.421233
0.506866
0.61343
0.750239
0.933693
1.19575
1.60023
2.26363
3.45752
6.241
12.7519
)
;

boundaryField
{
    movingWall
    {
        type            zeroGradient;
    }
    fixedWalls
    {
        type            zeroGradient;
    }
    frontAndBack
    {
        type            empty;
    }
}


// ************************************************************************* //
