/*--------------------------------*- C++ -*----------------------------------*\
  =========                 |
  \\      /  F ield         | OpenFOAM: The Open Source CFD Toolbox
   \\    /   O peration     | Website:  https://openfoam.org
    \\  /    A nd           | Version:  7
     \\/     M anipulation  |
\*---------------------------------------------------------------------------*/
FoamFile
{
    version     2.0;
    format      ascii;
    class       surfaceScalarField;
    location    "0.0106";
    object      phi;
}
// * * * * * * * * * * * * * * * * * * * * * * * * * * * * * * * * * * * * * //

dimensions      [0 3 -1 0 0 0 0];

internalField   nonuniform List<scalar> 
4900
(
5.45887e-06
-5.45887e-06
9.96051e-06
-4.50165e-06
1.26992e-05
-2.73866e-06
1.44089e-05
-1.70972e-06
1.55104e-05
-1.10151e-06
1.62436e-05
-7.3324e-07
1.67508e-05
-5.07141e-07
1.71146e-05
-3.63816e-07
1.73835e-05
-2.68869e-07
1.75867e-05
-2.03222e-07
1.77429e-05
-1.56187e-07
1.78644e-05
-1.21539e-07
1.79599e-05
-9.54708e-08
1.80354e-05
-7.5543e-08
1.80955e-05
-6.01173e-08
1.81436e-05
-4.80503e-08
1.81821e-05
-3.85179e-08
1.8213e-05
-3.09114e-08
1.82378e-05
-2.47721e-08
1.82575e-05
-1.97488e-08
1.82731e-05
-1.55686e-08
1.82851e-05
-1.20159e-08
1.8294e-05
-8.91665e-09
1.83002e-05
-6.1268e-09
1.83037e-05
-3.52197e-09
1.83047e-05
-9.89511e-10
1.83031e-05
1.57944e-09
1.82988e-05
4.29619e-09
1.82915e-05
7.2829e-09
1.82808e-05
1.06799e-08
1.82662e-05
1.46554e-08
1.82468e-05
1.94172e-08
1.82215e-05
2.52273e-08
1.81891e-05
3.24225e-08
1.81477e-05
4.14425e-08
1.80948e-05
5.28709e-08
1.80273e-05
6.74987e-08
1.79409e-05
8.64252e-08
1.78297e-05
1.11228e-07
1.76854e-05
1.44263e-07
1.74962e-05
1.89217e-07
1.7244e-05
2.52162e-07
1.69004e-05
3.43644e-07
1.64175e-05
4.82827e-07
1.57124e-05
7.05178e-07
1.4638e-05
1.07435e-06
1.29388e-05
1.69919e-06
1.01633e-05
2.77549e-06
5.56016e-06
4.60318e-06
5.56016e-06
-1.15981e-07
-5.34288e-06
1.83252e-06
-6.45015e-06
4.40002e-06
-5.30615e-06
6.68867e-06
-3.99838e-06
8.52828e-06
-2.94112e-06
9.95883e-06
-2.16379e-06
1.10623e-05
-1.61057e-06
1.19152e-05
-1.21676e-06
1.25786e-05
-9.323e-07
1.30985e-05
-7.2305e-07
1.35087e-05
-5.66376e-07
1.38343e-05
-4.47232e-07
1.40943e-05
-3.55445e-07
1.43027e-05
-2.83972e-07
1.44704e-05
-2.2781e-07
1.46057e-05
-1.83319e-07
1.4715e-05
-1.4779e-07
1.48032e-05
-1.1917e-07
1.48744e-05
-9.58833e-08
1.49313e-05
-7.66994e-08
1.49764e-05
-6.06482e-08
1.50113e-05
-4.69519e-08
1.50374e-05
-3.4975e-08
1.50554e-05
-2.41845e-08
1.5066e-05
-1.41164e-08
1.50694e-05
-4.34763e-09
1.50654e-05
5.53011e-09
1.50538e-05
1.59361e-08
1.50338e-05
2.73251e-08
1.50042e-05
4.02165e-08
1.49636e-05
5.52271e-08
1.491e-05
7.31106e-08
1.48404e-05
9.48078e-08
1.47513e-05
1.21513e-07
1.4638e-05
1.54765e-07
1.44943e-05
1.96575e-07
1.43121e-05
2.49616e-07
1.40811e-05
3.17509e-07
1.3787e-05
4.05272e-07
1.34112e-05
5.20043e-07
1.29282e-05
6.72255e-07
1.23028e-05
8.77559e-07
1.14865e-05
1.15991e-06
1.04132e-05
1.55619e-06
8.99658e-06
2.12177e-06
7.14008e-06
2.93085e-06
4.78746e-06
4.05181e-06
2.10469e-06
5.45827e-06
8.52973e-09
6.69934e-06
5.56869e-06
-1.08414e-06
-4.25874e-06
-7.69118e-07
-6.76517e-06
5.44985e-07
-6.62026e-06
2.21016e-06
-5.66355e-06
3.85693e-06
-4.58789e-06
5.32864e-06
-3.6355e-06
6.5807e-06
-2.86263e-06
7.6198e-06
-2.25586e-06
8.47174e-06
-1.78424e-06
9.1664e-06
-1.4177e-06
9.73164e-06
-1.13162e-06
1.01914e-05
-9.07037e-07
1.05657e-05
-7.29683e-07
1.08705e-05
-5.88824e-07
1.11191e-05
-4.76335e-07
1.13217e-05
-3.86004e-07
1.1487e-05
-3.13029e-07
1.16215e-05
-2.53657e-07
1.17305e-05
-2.04928e-07
1.18183e-05
-1.64486e-07
1.18881e-05
-1.30435e-07
1.19424e-05
-1.01232e-07
1.1983e-05
-7.55957e-08
1.20112e-05
-5.24398e-08
1.20279e-05
-3.08078e-08
1.20334e-05
-9.82133e-09
1.20276e-05
1.13711e-08
1.20099e-05
3.36423e-08
1.19793e-05
5.7936e-08
1.19341e-05
8.53228e-08
1.18723e-05
1.17062e-07
1.17907e-05
1.54674e-07
1.16855e-05
2.00036e-07
1.15515e-05
2.55493e-07
1.13823e-05
3.24017e-07
1.11695e-05
4.09408e-07
1.09025e-05
5.16587e-07
1.0568e-05
6.52002e-07
1.01491e-05
8.24206e-07
9.62441e-06
1.04469e-06
8.96765e-06
1.32901e-06
8.14693e-06
1.69828e-06
7.12622e-06
2.18061e-06
5.87094e-06
2.81146e-06
4.36342e-06
3.62929e-06
2.6382e-06
4.65607e-06
8.50949e-07
5.83906e-06
-6.0913e-07
6.91834e-06
-1.04768e-06
7.13789e-06
4.52101e-06
-9.20526e-07
-3.33822e-06
-1.37484e-06
-6.31086e-06
-1.01582e-06
-6.97927e-06
-1.23794e-07
-6.55557e-06
1.00884e-06
-5.72053e-06
2.18425e-06
-4.81091e-06
3.29264e-06
-3.97101e-06
4.28466e-06
-3.24788e-06
5.14602e-06
-2.6456e-06
5.88034e-06
-2.15202e-06
6.49926e-06
-1.75054e-06
7.01717e-06
-1.42495e-06
7.44852e-06
-1.16103e-06
7.80663e-06
-9.46929e-07
8.10321e-06
-7.72917e-07
8.3483e-06
-6.31095e-07
8.55033e-06
-5.15057e-07
8.71627e-06
-4.19605e-07
8.85185e-06
-3.40508e-07
8.96168e-06
-2.74309e-07
9.04941e-06
-2.18167e-07
9.1179e-06
-1.69722e-07
9.16929e-06
-1.26984e-07
9.20508e-06
-8.8238e-08
9.22623e-06
-5.19575e-08
9.23314e-06
-1.67273e-08
9.22568e-06
1.88303e-08
9.20319e-06
5.61283e-08
9.16444e-06
9.66896e-08
9.10754e-06
1.42228e-07
9.02986e-06
1.94739e-07
8.92793e-06
2.56603e-07
8.79725e-06
3.30711e-07
8.63213e-06
4.20613e-07
8.42544e-06
5.30706e-07
8.16838e-06
6.66471e-07
7.8502e-06
8.34767e-07
7.45799e-06
1.04421e-06
6.97657e-06
1.30563e-06
6.38871e-06
1.63255e-06
5.67606e-06
2.04166e-06
4.82166e-06
2.55269e-06
3.81525e-06
3.18702e-06
2.66404e-06
3.96267e-06
1.41204e-06
4.88129e-06
1.70162e-07
5.89795e-06
-8.49614e-07
6.85884e-06
-1.32376e-06
7.39249e-06
-9.31147e-07
6.74528e-06
3.58986e-06
-6.7789e-07
-2.66033e-06
-1.34756e-06
-5.64119e-06
-1.52863e-06
-6.79821e-06
-1.23496e-06
-6.84925e-06
-6.19405e-07
-6.33608e-06
1.63105e-07
-5.59342e-06
9.97256e-07
-4.80517e-06
1.8105e-06
-4.06112e-06
2.56315e-06
-3.39826e-06
3.23735e-06
-2.82621e-06
3.82838e-06
-2.34158e-06
4.33894e-06
-1.93551e-06
4.77542e-06
-1.59751e-06
5.14572e-06
-1.31723e-06
5.458e-06
-1.0852e-06
5.72001e-06
-8.93103e-07
5.93875e-06
-7.33796e-07
6.12034e-06
-6.01194e-07
6.27e-06
-4.90168e-07
6.39208e-06
-3.96393e-07
6.49014e-06
-3.16223e-07
6.56698e-06
-2.46563e-07
6.62475e-06
-1.84754e-07
6.66498e-06
-1.28465e-07
6.68861e-06
-7.55928e-08
6.69605e-06
-2.41695e-08
6.68715e-06
2.77323e-08
6.66119e-06
8.20904e-08
6.61685e-06
1.41029e-07
6.55216e-06
2.06918e-07
6.46441e-06
2.82487e-07
6.35007e-06
3.70944e-07
6.20467e-06
4.76114e-07
6.02269e-06
6.02597e-07
5.79745e-06
7.55943e-07
5.52107e-06
9.42848e-07
5.18448e-06
1.17136e-06
4.77761e-06
1.45108e-06
4.28999e-06
1.79325e-06
3.71187e-06
2.21067e-06
3.03645e-06
2.71707e-06
2.26385e-06
3.32529e-06
1.40764e-06
4.04323e-06
5.05043e-07
4.86526e-06
-3.69343e-07
5.75568e-06
-1.09024e-06
6.61885e-06
-1.48237e-06
7.25097e-06
-1.3653e-06
7.27542e-06
-7.04826e-07
6.0848e-06
2.88504e-06
-4.88254e-07
-2.17207e-06
-1.1634e-06
-4.96604e-06
-1.60313e-06
-6.35848e-06
-1.698e-06
-6.75438e-06
-1.49113e-06
-6.54295e-06
-1.07466e-06
-6.00989e-06
-5.39235e-07
-5.34059e-06
4.4516e-08
-4.64487e-06
6.28319e-07
-3.98206e-06
1.18244e-06
-3.38033e-06
1.69069e-06
-2.84983e-06
2.14595e-06
-2.39077e-06
2.54688e-06
-1.99844e-06
2.89549e-06
-1.66584e-06
3.19559e-06
-1.38529e-06
3.45174e-06
-1.14926e-06
3.66871e-06
-9.50762e-07
3.85101e-06
-7.83492e-07
4.00274e-06
-6.41901e-07
4.12749e-06
-5.21146e-07
4.22829e-06
-4.17018e-07
4.30759e-06
-3.25859e-07
4.36729e-06
-2.44455e-07
4.40876e-06
-1.69942e-07
4.43287e-06
-9.96946e-08
4.43993e-06
-3.12314e-08
4.42977e-06
3.78929e-08
4.40167e-06
1.1019e-07
4.35435e-06
1.88344e-07
4.28594e-06
2.75329e-07
4.19391e-06
3.74518e-07
4.07503e-06
4.89818e-07
3.92536e-06
6.25791e-07
3.74017e-06
7.87787e-07
3.51404e-06
9.82069e-07
3.24098e-06
1.21591e-06
2.91471e-06
1.49763e-06
2.52928e-06
1.83651e-06
2.08004e-06
2.24249e-06
1.56537e-06
2.72534e-06
9.89348e-07
3.2931e-06
3.65674e-07
3.94897e-06
-2.76793e-07
4.6857e-06
-8.87485e-07
5.47596e-06
-1.3885e-06
6.25669e-06
-1.67563e-06
6.90598e-06
-1.63821e-06
7.21356e-06
-1.21649e-06
6.8537e-06
-5.18797e-07
5.38711e-06
2.36624e-06
-3.60079e-07
-1.812e-06
-9.74072e-07
-4.35205e-06
-1.51418e-06
-5.81837e-06
-1.8349e-06
-6.43365e-06
-1.91439e-06
-6.46347e-06
-1.79155e-06
-6.13273e-06
-1.52468e-06
-5.60746e-06
-1.1698e-06
-4.99975e-06
-7.72124e-07
-4.37974e-06
-3.64465e-07
-3.78799e-06
3.12701e-08
-3.24556e-06
4.01751e-07
-2.76125e-06
7.39712e-07
-2.3364e-06
1.04215e-06
-1.96828e-06
1.30878e-06
-1.65192e-06
1.54094e-06
-1.38142e-06
1.74086e-06
-1.15068e-06
1.91115e-06
-9.53786e-07
2.05449e-06
-7.85238e-07
2.17338e-06
-6.4004e-07
2.27007e-06
-5.13705e-07
2.34644e-06
-4.02225e-07
2.40398e-06
-3.01998e-07
2.44378e-06
-2.09747e-07
2.46652e-06
-1.22427e-07
2.47241e-06
-3.71231e-08
2.46125e-06
4.9052e-08
2.43237e-06
1.39067e-07
2.38464e-06
2.3608e-07
2.31641e-06
3.43554e-07
2.22556e-06
4.65367e-07
2.10946e-06
6.05925e-07
1.96499e-06
7.70256e-07
1.78868e-06
9.64099e-07
1.57682e-06
1.19393e-06
1.32578e-06
1.46694e-06
1.03254e-06
1.79087e-06
6.9543e-07
2.17362e-06
3.15386e-07
2.62253e-06
-1.02318e-07
3.14304e-06
-5.45654e-07
3.73644e-06
-9.92784e-07
4.3961e-06
-1.40872e-06
5.10164e-06
-1.74282e-06
5.81006e-06
-1.92971e-06
6.44357e-06
-1.89839e-06
6.87466e-06
-1.59721e-06
6.91237e-06
-1.0422e-06
6.29869e-06
-3.8939e-07
4.7343e-06
1.97685e-06
-2.76298e-07
-1.5357e-06
-8.16337e-07
-3.81201e-06
-1.37657e-06
-5.25814e-06
-1.81539e-06
-5.99484e-06
-2.07986e-06
-6.199e-06
-2.17257e-06
-6.04001e-06
-2.12323e-06
-5.6568e-06
-1.96991e-06
-5.15308e-06
-1.74886e-06
-4.60079e-06
-1.49017e-06
-4.04669e-06
-1.21668e-06
-3.51905e-06
-9.4461e-07
-3.03332e-06
-6.8467e-07
-2.59634e-06
-4.4342e-07
-2.20953e-06
-2.24396e-07
-1.87094e-06
-2.90508e-08
-1.57677e-06
1.4252e-07
-1.32225e-06
2.91047e-07
-1.10231e-06
4.177e-07
-9.11891e-07
5.23824e-07
-7.46164e-07
6.10757e-07
-6.00638e-07
6.79704e-07
-4.71172e-07
7.3166e-07
-3.53954e-07
7.67355e-07
-2.45443e-07
7.87223e-07
-1.42295e-07
7.91375e-07
-4.12749e-08
7.79583e-07
6.08438e-08
7.51272e-07
1.67378e-07
7.05511e-07
2.8184e-07
6.41025e-07
4.0804e-07
5.56213e-07
5.50179e-07
4.49203e-07
7.12935e-07
3.17941e-07
9.01518e-07
1.60359e-07
1.12168e-06
-2.537e-08
1.37966e-06
-2.40428e-07
1.682e-06
-4.84764e-07
2.03521e-06
-7.56249e-07
2.44511e-06
-1.04953e-06
2.91581e-06
-1.35452e-06
3.44804e-06
-1.65471e-06
4.03662e-06
-1.92531e-06
4.6667e-06
-2.13213e-06
5.30845e-06
-2.23224e-06
5.91018e-06
-2.17868e-06
6.39001e-06
-1.93225e-06
6.62823e-06
-1.48389e-06
6.46401e-06
-8.88477e-07
5.70328e-06
-3.02985e-07
4.14881e-06
1.67386e-06
-2.2031e-07
-1.31539e-06
-6.91656e-07
-3.34066e-06
-1.23449e-06
-4.7153e-06
-1.72526e-06
-5.50407e-06
-2.1004e-06
-5.82385e-06
-2.34117e-06
-5.79924e-06
-2.45605e-06
-5.54192e-06
-2.46678e-06
-5.14236e-06
-2.39904e-06
-4.66852e-06
-2.27726e-06
-4.16846e-06
-2.12217e-06
-3.67415e-06
-1.95008e-06
-3.2054e-06
-1.77314e-06
-2.77329e-06
-1.59989e-06
-2.38277e-06
-1.43606e-06
-2.03478e-06
-1.28517e-06
-1.72765e-06
-1.14922e-06
-1.45821e-06
-1.02909e-06
-1.22244e-06
-9.24993e-07
-1.01599e-06
-8.36686e-07
-8.34471e-07
-7.63725e-07
-6.73599e-07
-7.05599e-07
-5.29299e-07
-6.61836e-07
-3.97717e-07
-6.32082e-07
-2.75197e-07
-6.16148e-07
-1.5823e-07
-6.14043e-07
-4.3379e-08
-6.25999e-07
7.27993e-08
-6.52468e-07
1.93847e-07
-6.9412e-07
3.23493e-07
-7.51816e-07
4.65735e-07
-8.26551e-07
6.24914e-07
-9.19371e-07
8.05756e-07
-1.03123e-06
1.01338e-06
-1.16278e-06
1.25323e-06
-1.31406e-06
1.53094e-06
-1.48407e-06
1.85202e-06
-1.6702e-06
2.22134e-06
-1.86744e-06
2.64234e-06
-2.06748e-06
3.11585e-06
-2.25766e-06
3.63823e-06
-2.42003e-06
4.19898e-06
-2.5307e-06
4.77736e-06
-2.5604e-06
5.33816e-06
-2.47704e-06
5.82682e-06
-2.25186e-06
6.16482e-06
-1.87061e-06
6.24699e-06
-1.35067e-06
5.94407e-06
-7.61952e-07
5.11456e-06
-2.44053e-07
3.63091e-06
1.42981e-06
-1.81233e-07
-1.13415e-06
-5.93405e-07
-2.92849e-06
-1.10289e-06
-4.20582e-06
-1.60669e-06
-5.00027e-06
-2.04138e-06
-5.38917e-06
-2.37743e-06
-5.46319e-06
-2.60932e-06
-5.31003e-06
-2.74595e-06
-5.00573e-06
-2.80318e-06
-4.61129e-06
-2.79893e-06
-4.17272e-06
-2.75021e-06
-3.72287e-06
-2.67175e-06
-3.28386e-06
-2.57552e-06
-2.86952e-06
-2.47076e-06
-2.48753e-06
-2.36433e-06
-2.14121e-06
-2.2611e-06
-1.83088e-06
-2.1644e-06
-1.5549e-06
-2.07639e-06
-1.31045e-06
-1.99837e-06
-1.09401e-06
-1.93108e-06
-9.01767e-07
-1.87485e-06
-7.29829e-07
-1.82981e-06
-5.74339e-07
-1.79598e-06
-4.31548e-07
-1.77336e-06
-2.97819e-07
-1.76198e-06
-1.69603e-07
-1.76198e-06
-4.3386e-08
-1.77355e-06
8.43726e-08
-1.79701e-06
2.17312e-07
-1.83276e-06
3.5924e-07
-1.88122e-06
5.14191e-07
-1.94277e-06
6.86465e-07
-2.01765e-06
8.8064e-07
-2.10579e-06
1.10152e-06
-2.20657e-06
1.354e-06
-2.3185e-06
1.64287e-06
-2.43886e-06
1.97237e-06
-2.56314e-06
2.34562e-06
-2.68452e-06
2.76372e-06
-2.79316e-06
3.22449e-06
-2.87572e-06
3.72079e-06
-2.91502e-06
4.23829e-06
-2.89045e-06
4.75279e-06
-2.77941e-06
5.22711e-06
-2.56077e-06
5.60818e-06
-2.22091e-06
5.82497e-06
-1.76291e-06
5.78899e-06
-1.2183e-06
5.39946e-06
-6.5879e-07
4.55505e-06
-2.0203e-07
3.17415e-06
1.22778e-06
-1.52614e-07
-9.81541e-07
-5.14796e-07
-2.56631e-06
-9.85401e-07
-3.73521e-06
-1.48012e-06
-4.50555e-06
-1.94048e-06
-4.92881e-06
-2.33286e-06
-5.07081e-06
-2.64338e-06
-4.99951e-06
-2.87176e-06
-4.77735e-06
-3.02583e-06
-4.45722e-06
-3.11732e-06
-4.08122e-06
-3.15908e-06
-3.68111e-06
-3.16334e-06
-3.2796e-06
-3.14089e-06
-2.89198e-06
-3.10068e-06
-2.52774e-06
-3.04989e-06
-2.192e-06
-2.99405e-06
-1.88672e-06
-2.93728e-06
-1.61167e-06
-2.88261e-06
-1.36512e-06
-2.83216e-06
-1.14446e-06
-2.7874e-06
-9.46528e-07
-2.74932e-06
-7.67913e-07
-2.71857e-06
-6.0509e-07
-2.69559e-06
-4.54527e-07
-2.68069e-06
-3.12722e-07
-2.67409e-06
-1.76195e-07
-2.67601e-06
-4.14683e-08
-2.68662e-06
9.49833e-08
-2.70609e-06
2.36778e-07
-2.73452e-06
3.87673e-07
-2.77193e-06
5.51603e-07
-2.81815e-06
7.32683e-07
-2.87269e-06
9.3518e-07
-2.93459e-06
1.16342e-06
-3.0022e-06
1.42161e-06
-3.07287e-06
1.71355e-06
-3.14266e-06
2.04216e-06
-3.20593e-06
2.40889e-06
-3.25494e-06
2.81273e-06
-3.27957e-06
3.24912e-06
-3.26714e-06
3.70836e-06
-3.20268e-06
4.17383e-06
-3.06986e-06
4.61997e-06
-2.85298e-06
5.01024e-06
-2.54044e-06
5.29564e-06
-2.12994e-06
5.41447e-06
-1.63537e-06
5.29442e-06
-1.09429e-06
4.85837e-06
-5.7375e-07
4.03451e-06
-1.70579e-07
2.77097e-06
1.0572e-06
-1.30713e-07
-8.50828e-07
-4.50639e-07
-2.24638e-06
-8.81764e-07
-3.30409e-06
-1.35538e-06
-4.03193e-06
-1.81965e-06
-4.46454e-06
-2.2407e-06
-4.64976e-06
-2.60028e-06
-4.63993e-06
-2.89205e-06
-4.48558e-06
-3.11772e-06
-4.23154e-06
-3.28383e-06
-3.91511e-06
-3.39921e-06
-3.56574e-06
-3.4733e-06
-3.2055e-06
-3.51518e-06
-2.8501e-06
-3.5329e-06
-2.51001e-06
-3.53334e-06
-2.19156e-06
-3.52214e-06
-1.89793e-06
-3.50377e-06
-1.63003e-06
-3.48174e-06
-1.38715e-06
-3.45868e-06
-1.16751e-06
-3.4366e-06
-9.68614e-07
-3.41694e-06
-7.87571e-07
-3.40077e-06
-6.21258e-07
-3.38886e-06
-4.66442e-07
-3.38174e-06
-3.19836e-07
-3.37981e-06
-1.78127e-07
-3.38332e-06
-3.79632e-08
-3.3924e-06
1.04063e-07
-3.40707e-06
2.51447e-07
-3.42718e-06
4.07791e-07
-3.4524e-06
5.76814e-07
-3.48205e-06
7.62333e-07
-3.51506e-06
9.68195e-07
-3.54979e-06
1.19815e-06
-3.58382e-06
1.45564e-06
-3.61373e-06
1.74346e-06
-3.63486e-06
2.0633e-06
-3.64108e-06
2.4151e-06
-3.62455e-06
2.7962e-06
-3.57571e-06
3.20027e-06
-3.48341e-06
3.61606e-06
-3.33556e-06
4.02598e-06
-3.12032e-06
4.40472e-06
-2.82816e-06
4.71808e-06
-2.45502e-06
4.9225e-06
-2.00639e-06
4.96584e-06
-1.50214e-06
4.79017e-06
-9.80914e-07
4.33715e-06
-5.02548e-07
3.55615e-06
-1.4602e-07
2.41445e-06
9.11181e-07
-1.13354e-07
-7.37473e-07
-3.9734e-07
-1.96239e-06
-7.90679e-07
-2.91075e-06
-1.23723e-06
-3.58539e-06
-1.69195e-06
-4.00981e-06
-2.1227e-06
-4.21901e-06
-2.50945e-06
-4.25319e-06
-2.84216e-06
-4.15286e-06
-3.11826e-06
-3.95545e-06
-3.34011e-06
-3.69326e-06
-3.51308e-06
-3.39278e-06
-3.64391e-06
-3.07466e-06
-3.73977e-06
-2.75425e-06
-3.80748e-06
-2.4423e-06
-3.85323e-06
-2.1458e-06
-3.88237e-06
-1.86879e-06
-3.89937e-06
-1.61303e-06
-3.90789e-06
-1.37864e-06
-3.91084e-06
-1.16456e-06
-3.91051e-06
-9.68942e-07
-3.90867e-06
-7.89411e-07
-3.90665e-06
-6.23272e-07
-3.90546e-06
-4.67636e-07
-3.9058e-06
-3.19496e-07
-3.90816e-06
-1.75769e-07
-3.91281e-06
-3.33076e-08
-3.91985e-06
1.11102e-07
-3.92915e-06
2.60749e-07
-3.94036e-06
4.18995e-07
-3.95281e-06
5.89266e-07
-3.96547e-06
7.74999e-07
-3.97684e-06
9.79558e-07
-3.98476e-06
1.20608e-06
-3.98635e-06
1.45723e-06
-3.97778e-06
1.73488e-06
-3.95411e-06
2.03963e-06
-3.90922e-06
2.37022e-06
-3.83577e-06
2.72275e-06
-3.72529e-06
3.08979e-06
-3.56862e-06
3.4594e-06
-3.35671e-06
3.81406e-06
-3.08182e-06
4.12984e-06
-2.73956e-06
4.37582e-06
-2.33139e-06
4.51432e-06
-1.86772e-06
4.50217e-06
-1.37109e-06
4.29354e-06
-8.78546e-07
3.84461e-06
-4.42143e-07
3.11975e-06
-1.26214e-07
2.09852e-06
7.84967e-07
-9.92487e-08
-6.38225e-07
-3.52496e-07
-1.70915e-06
-7.10797e-07
-2.55245e-06
-1.12799e-06
-3.16819e-06
-1.56531e-06
-3.5725e-06
-1.99323e-06
-3.79109e-06
-2.39153e-06
-3.85489e-06
-2.74818e-06
-3.79621e-06
-3.05771e-06
-3.64592e-06
-3.3194e-06
-3.43156e-06
-3.53575e-06
-3.17643e-06
-3.71112e-06
-2.8993e-06
-3.85078e-06
-2.61459e-06
-3.96022e-06
-2.33285e-06
-4.04474e-06
-2.06129e-06
-4.10912e-06
-1.80441e-06
-4.15758e-06
-1.56457e-06
-4.1937e-06
-1.34252e-06
-4.22045e-06
-1.13781e-06
-4.24023e-06
-9.4916e-07
-4.25497e-06
-7.74672e-07
-4.26616e-06
-6.12081e-07
-4.27494e-06
-4.58861e-07
-4.28211e-06
-3.12321e-07
-4.28823e-06
-1.69656e-07
-4.29356e-06
-2.79749e-08
-4.29814e-06
1.15684e-07
-4.30173e-06
2.64342e-07
-4.3038e-06
4.21065e-07
-4.30346e-06
5.88928e-07
-4.29942e-06
7.7095e-07
-4.28984e-06
9.69986e-07
-4.27233e-06
1.18856e-06
-4.24375e-06
1.42864e-06
-4.20014e-06
1.69127e-06
-4.13667e-06
1.97616e-06
-4.04762e-06
2.28117e-06
-3.92646e-06
2.60159e-06
-3.76616e-06
2.92949e-06
-3.55965e-06
3.25289e-06
-3.30071e-06
3.55513e-06
-2.98517e-06
3.8143e-06
-2.61256e-06
4.00322e-06
-2.18817e-06
4.08993e-06
-1.7252e-06
4.0392e-06
-1.24675e-06
3.81509e-06
-7.86949e-07
3.38481e-06
-3.9048e-07
2.72328e-06
-1.09897e-07
1.81794e-06
6.7507e-07
-8.76088e-08
-5.50616e-07
-3.145e-07
-1.48226e-06
-6.40979e-07
-2.22597e-06
-1.02879e-06
-2.78038e-06
-1.44463e-06
-3.15665e-06
-1.86189e-06
-3.37383e-06
-2.26105e-06
-3.45573e-06
-2.62922e-06
-3.42804e-06
-2.95911e-06
-3.31602e-06
-3.24782e-06
-3.14285e-06
-3.49559e-06
-2.92866e-06
-3.70475e-06
-2.69013e-06
-3.8789e-06
-2.44045e-06
-4.02219e-06
-2.18956e-06
-4.13892e-06
-1.94456e-06
-4.23323e-06
-1.7101e-06
-4.30888e-06
-1.48891e-06
-4.36921e-06
-1.28219e-06
-4.41708e-06
-1.08995e-06
-4.45488e-06
-9.1136e-07
-4.48456e-06
-7.4499e-07
-4.50767e-06
-5.88965e-07
-4.52541e-06
-4.41123e-07
-4.53863e-06
-2.99103e-07
-4.54788e-06
-1.60402e-07
-4.55344e-06
-2.2421e-08
-4.55526e-06
1.1751e-07
-4.55303e-06
2.6211e-07
-4.54608e-06
4.1411e-07
-4.53336e-06
5.76209e-07
-4.5134e-06
7.50995e-07
-4.48425e-06
9.40828e-07
-4.44335e-06
1.14767e-06
-4.38756e-06
1.37285e-06
-4.31304e-06
1.61675e-06
-4.21529e-06
1.87842e-06
-4.08924e-06
2.15511e-06
-3.92939e-06
2.44174e-06
-3.7302e-06
2.7303e-06
-3.48662e-06
3.00932e-06
-3.19494e-06
3.26344e-06
-2.85383e-06
3.47318e-06
-2.46572e-06
3.61511e-06
-2.03835e-06
3.66256e-06
-1.58623e-06
3.58707e-06
-1.13178e-06
3.36064e-06
-7.05716e-07
2.95875e-06
-3.4617e-07
2.36373e-06
-9.62942e-08
1.56806e-06
5.78776e-07
-7.79306e-08
-4.72685e-07
-2.8225e-07
-1.27794e-06
-5.803e-07
-1.92792e-06
-9.40074e-07
-2.42061e-06
-1.33293e-06
-2.7638e-06
-1.73508e-06
-2.97168e-06
-2.12818e-06
-3.06263e-06
-2.49918e-06
-3.05704e-06
-2.83979e-06
-2.97542e-06
-3.14556e-06
-2.83708e-06
-3.41508e-06
-2.65915e-06
-3.64903e-06
-2.45618e-06
-3.84954e-06
-2.23994e-06
-4.01955e-06
-2.01955e-06
-4.1624e-06
-1.80172e-06
-4.28147e-06
-1.59103e-06
-4.38002e-06
-1.39036e-06
-4.46105e-06
-1.20116e-06
-4.52719e-06
-1.02381e-06
-4.58071e-06
-8.57844e-07
-4.62349e-06
-7.02204e-07
-4.65707e-06
-5.55382e-07
-4.68264e-06
-4.15561e-07
-4.70103e-06
-2.80706e-07
-4.7128e-06
-1.48632e-07
-4.71818e-06
-1.70448e-08
-4.71708e-06
1.16414e-07
-4.70911e-06
2.54139e-07
-4.69352e-06
3.98515e-07
-4.66917e-06
5.51859e-07
-4.63451e-06
7.1634e-07
-4.58754e-06
8.93856e-07
-4.52574e-06
1.08587e-06
-4.44608e-06
1.29319e-06
-4.34501e-06
1.51568e-06
-4.21854e-06
1.75195e-06
-4.06236e-06
1.99893e-06
-3.87206e-06
2.25144e-06
-3.64356e-06
2.5018e-06
-3.37362e-06
2.73938e-06
-3.06061e-06
2.95043e-06
-2.70539e-06
3.11797e-06
-2.31243e-06
3.22215e-06
-1.8909e-06
3.24102e-06
-1.45561e-06
3.15179e-06
-1.02768e-06
2.93271e-06
-6.34393e-07
2.56546e-06
-3.0824e-07
2.03758e-06
-8.49052e-08
1.34473e-06
4.93871e-07
-6.98733e-08
-4.02812e-07
-2.54955e-07
-1.09286e-06
-5.27991e-07
-1.65488e-06
-8.61919e-07
-2.08668e-06
-1.23198e-06
-2.39373e-06
-1.61699e-06
-2.58668e-06
-1.99992e-06
-2.6797e-06
-2.36803e-06
-2.68893e-06
-2.71251e-06
-2.63094e-06
-3.02795e-06
-2.52163e-06
-3.3117e-06
-2.3754e-06
-3.56317e-06
-2.20471e-06
-3.78325e-06
-2.01985e-06
-3.97383e-06
-1.82898e-06
-4.13734e-06
-1.63821e-06
-4.27644e-06
-1.45192e-06
-4.39387e-06
-1.27293e-06
-4.49219e-06
-1.10284e-06
-4.57376e-06
-9.42232e-07
-4.64067e-06
-7.90939e-07
-4.69467e-06
-6.48202e-07
-4.73722e-06
-5.12836e-07
-4.76944e-06
-3.83342e-07
-4.79214e-06
-2.58e-07
-4.80584e-06
-1.34934e-07
-4.81072e-06
-1.21624e-08
-4.80667e-06
1.12358e-07
-4.79322e-06
2.40693e-07
-4.76959e-06
3.74882e-07
-4.7346e-06
5.16875e-07
-4.68671e-06
6.68448e-07
-4.62394e-06
8.31089e-07
-4.54391e-06
1.00584e-06
-4.44382e-06
1.19309e-06
-4.32051e-06
1.39237e-06
-4.17057e-06
1.602e-06
-3.99048e-06
1.81884e-06
-3.77692e-06
2.03789e-06
-3.52713e-06
2.25201e-06
-3.23942e-06
2.45167e-06
-2.9138e-06
2.62481e-06
-2.55279e-06
2.75696e-06
-2.16219e-06
2.83155e-06
-1.75187e-06
2.8307e-06
-1.33639e-06
2.7363e-06
-9.35225e-07
2.53155e-06
-5.72494e-07
2.20273e-06
-2.75962e-07
1.74104e-06
-7.53843e-08
1.14415e-06
4.18486e-07
-6.31918e-08
-3.3962e-07
-2.32013e-07
-9.24035e-07
-4.83381e-07
-1.40351e-06
-7.9414e-07
-1.77592e-06
-1.14273e-06
-2.04514e-06
-1.51024e-06
-2.21917e-06
-1.88099e-06
-2.30895e-06
-2.24273e-06
-2.32718e-06
-2.58653e-06
-2.28715e-06
-2.90637e-06
-2.20179e-06
-3.19873e-06
-2.08304e-06
-3.46204e-06
-1.9414e-06
-3.69623e-06
-1.78567e-06
-3.90225e-06
-1.62296e-06
-4.08173e-06
-1.45872e-06
-4.23671e-06
-1.29694e-06
-4.36935e-06
-1.14029e-06
-4.48182e-06
-9.9037e-07
-4.57616e-06
-8.47889e-07
-4.65423e-06
-7.12874e-07
-4.71762e-06
-5.84812e-07
-4.76766e-06
-4.62789e-07
-4.80541e-06
-3.45593e-07
-4.83161e-06
-2.31797e-07
-4.84672e-06
-1.19824e-07
-4.85089e-06
-7.99529e-09
-4.84396e-06
1.05423e-07
-4.82544e-06
2.22175e-07
-4.79452e-06
3.43969e-07
-4.75006e-06
4.72412e-07
-4.69054e-06
6.08927e-07
-4.6141e-06
7.54647e-07
-4.51854e-06
9.10274e-07
-4.40135e-06
1.07591e-06
-4.25983e-06
1.25084e-06
-4.09114e-06
1.43332e-06
-3.89258e-06
1.62028e-06
-3.66179e-06
1.80709e-06
-3.39715e-06
1.98737e-06
-3.09825e-06
2.15276e-06
-2.7664e-06
2.29297e-06
-2.40528e-06
2.39584e-06
-2.02151e-06
2.44778e-06
-1.6252e-06
2.43439e-06
-1.2303e-06
2.34141e-06
-8.54635e-07
2.15588e-06
-5.19497e-07
1.86759e-06
-2.4875e-07
1.4703e-06
-6.74745e-08
9.62873e-07
3.51012e-07
-5.76995e-08
-2.81921e-07
-2.12942e-07
-7.68792e-07
-4.45864e-07
-1.17059e-06
-7.36382e-07
-1.4854e-06
-1.06553e-06
-1.71599e-06
-1.41634e-06
-1.86836e-06
-1.77439e-06
-1.95091e-06
-2.12802e-06
-1.97355e-06
-2.46835e-06
-1.94681e-06
-2.78906e-06
-1.88109e-06
-3.08601e-06
-1.78609e-06
-3.35691e-06
-1.67049e-06
-3.60092e-06
-1.54166e-06
-3.81824e-06
-1.40564e-06
-4.00983e-06
-1.26714e-06
-4.17711e-06
-1.12966e-06
-4.32177e-06
-9.95633e-07
-4.44558e-06
-8.66563e-07
-4.55027e-06
-7.43204e-07
-4.63744e-06
-6.25703e-07
-4.70852e-06
-5.13732e-07
-4.7647e-06
-4.06603e-07
-4.80694e-06
-3.03356e-07
-4.83591e-06
-2.02832e-07
-4.852e-06
-1.03732e-07
-4.85533e-06
-4.66981e-09
-4.8457e-06
9.5793e-08
-4.82262e-06
1.99097e-07
-4.78529e-06
3.0664e-07
-4.73259e-06
4.19714e-07
-4.6631e-06
5.39435e-07
-4.57509e-06
6.66642e-07
-4.4666e-06
8.01779e-07
-4.33543e-06
9.44746e-07
-4.17932e-06
1.09473e-06
-3.99602e-06
1.25002e-06
-3.78352e-06
1.40778e-06
-3.54035e-06
1.56392e-06
-3.26584e-06
1.71286e-06
-2.9606e-06
1.84752e-06
-2.6269e-06
1.95927e-06
-2.26923e-06
2.03816e-06
-1.89466e-06
2.07321e-06
-1.51325e-06
2.05298e-06
-1.1382e-06
1.96636e-06
-7.85775e-07
1.80346e-06
-4.74844e-07
1.55666e-06
-2.26107e-07
1.22156e-06
-6.09724e-08
7.97739e-07
2.90039e-07
-5.3248e-08
-2.28673e-07
-1.97341e-07
-6.24699e-07
-4.14883e-07
-9.53048e-07
-6.88186e-07
-1.2121e-06
-1.00036e-06
-1.40382e-06
-1.33605e-06
-1.53267e-06
-1.68193e-06
-1.60503e-06
-2.02695e-06
-1.62853e-06
-2.3624e-06
-1.61135e-06
-2.6818e-06
-1.56169e-06
-2.98063e-06
-1.48727e-06
-3.25607e-06
-1.39505e-06
-3.50667e-06
-1.29106e-06
-3.73205e-06
-1.18026e-06
-3.93259e-06
-1.06659e-06
-4.10922e-06
-9.53031e-07
-4.26318e-06
-8.41671e-07
-4.39588e-06
-7.33861e-07
-4.50876e-06
-6.30322e-07
-4.6032e-06
-5.31264e-07
-4.68044e-06
-4.36494e-07
-4.74154e-06
-3.45506e-07
-4.78734e-06
-2.57559e-07
-4.81843e-06
-1.71735e-07
-4.83517e-06
-8.69958e-08
-4.83762e-06
-2.22411e-09
-4.82556e-06
8.37376e-08
-4.79851e-06
1.72046e-07
-4.75568e-06
2.63813e-07
-4.69602e-06
3.60053e-07
-4.6182e-06
4.61615e-07
-4.52066e-06
5.69103e-07
-4.40165e-06
6.82771e-07
-4.25932e-06
8.02409e-07
-4.09179e-06
9.27201e-07
-3.89735e-06
1.05558e-06
-3.67463e-06
1.18506e-06
-3.42286e-06
1.31215e-06
-3.14216e-06
1.43217e-06
-2.83393e-06
1.53928e-06
-2.50115e-06
1.6265e-06
-2.14882e-06
1.68583e-06
-1.78425e-06
1.70863e-06
-1.41727e-06
1.686e-06
-1.06032e-06
1.60941e-06
-7.28258e-07
1.4714e-06
-4.37958e-07
1.26636e-06
-2.0759e-07
9.91193e-07
-5.57094e-08
6.45858e-07
2.3433e-07
-4.97167e-08
-1.78956e-07
-1.84868e-07
-4.89547e-07
-3.89928e-07
-7.47988e-07
-6.49046e-07
-9.52983e-07
-9.46957e-07
-1.10591e-06
-1.2696e-06
-1.21002e-06
-1.60457e-06
-1.27006e-06
-1.94139e-06
-1.29172e-06
-2.27156e-06
-1.28119e-06
-2.58854e-06
-1.24471e-06
-2.88757e-06
-1.18823e-06
-3.16546e-06
-1.11716e-06
-3.42031e-06
-1.03621e-06
-3.65126e-06
-9.49305e-07
-3.85826e-06
-8.59594e-07
-4.04181e-06
-7.6948e-07
-4.20279e-06
-6.80689e-07
-4.3423e-06
-5.94353e-07
-4.46152e-06
-5.11106e-07
-4.56161e-06
-4.31174e-07
-4.64365e-06
-3.54453e-07
-4.70857e-06
-2.80584e-07
-4.75712e-06
-2.09013e-07
-4.78981e-06
-1.39039e-07
-4.80694e-06
-6.98639e-08
-4.80855e-06
-6.20355e-10
-4.7944e-06
6.95882e-08
-4.76401e-06
1.41655e-07
-4.71663e-06
2.16434e-07
-4.65126e-06
2.94689e-07
-4.5667e-06
3.77048e-07
-4.46152e-06
4.63928e-07
-4.33421e-06
5.55458e-07
-4.18318e-06
6.51386e-07
-4.00696e-06
7.50972e-07
-3.80425e-06
8.52874e-07
-3.57423e-06
9.55043e-07
-3.31671e-06
1.05462e-06
-3.03242e-06
1.14788e-06
-2.72334e-06
1.2302e-06
-2.39297e-06
1.29613e-06
-2.04664e-06
1.3395e-06
-1.69171e-06
1.35371e-06
-1.33775e-06
1.33204e-06
-9.96466e-07
1.26813e-06
-6.81557e-07
1.15649e-06
-4.08271e-07
9.93071e-07
-1.92807e-07
7.75729e-07
-5.15436e-08
5.04594e-07
1.82786e-07
-4.70079e-08
-1.31948e-07
-1.75241e-07
-3.61315e-07
-3.7055e-07
-5.52678e-07
-6.18458e-07
-7.05075e-07
-9.04928e-07
-8.19436e-07
-1.21691e-06
-8.98042e-07
-1.54274e-06
-9.44229e-07
-1.87239e-06
-9.62061e-07
-2.19761e-06
-9.55973e-07
-2.51184e-06
-9.30473e-07
-2.81019e-06
-8.89882e-07
-3.0892e-06
-8.38155e-07
-3.34665e-06
-7.78761e-07
-3.58134e-06
-7.14618e-07
-3.79285e-06
-6.4808e-07
-3.98137e-06
-5.8096e-07
-4.14748e-06
-5.14576e-07
-4.29203e-06
-4.49808e-07
-4.41597e-06
-3.87163e-07
-4.52031e-06
-3.26842e-07
-4.60596e-06
-2.68797e-07
-4.67376e-06
-2.12787e-07
-4.72435e-06
-1.58417e-07
-4.75821e-06
-1.05186e-07
-4.77556e-06
-5.25101e-08
-4.77642e-06
2.41139e-10
-4.76056e-06
5.37226e-08
-4.72749e-06
1.08585e-07
-4.6765e-06
1.65444e-07
-4.60665e-06
2.24847e-07
-4.51684e-06
2.87232e-07
-4.40578e-06
3.52873e-07
-4.27215e-06
4.21823e-07
-4.11461e-06
4.93845e-07
-3.93197e-06
5.68335e-07
-3.72334e-06
6.44241e-07
-3.48828e-06
7.19986e-07
-3.22706e-06
7.93408e-07
-2.9409e-06
8.61715e-07
-2.63217e-06
9.21482e-07
-2.30475e-06
9.68699e-07
-1.96413e-06
9.98885e-07
-1.61769e-06
1.00726e-06
-1.27469e-06
9.89034e-07
-9.46237e-07
9.39678e-07
-6.45092e-07
8.55345e-07
-3.85249e-07
7.33229e-07
-1.81418e-07
5.71898e-07
-4.83565e-08
3.71533e-07
1.3443e-07
-4.50439e-08
-8.69043e-08
-1.68226e-07
-2.38133e-07
-3.56368e-07
-3.64537e-07
-5.95964e-07
-4.65479e-07
-8.73861e-07
-5.41538e-07
-1.17774e-06
-5.94159e-07
-1.4965e-06
-6.25473e-07
-1.82047e-06
-6.38089e-07
-2.14158e-06
-6.3487e-07
-2.45331e-06
-6.18739e-07
-2.75068e-06
-5.92511e-07
-3.03006e-06
-5.58775e-07
-3.28901e-06
-5.19812e-07
-3.52608e-06
-4.77551e-07
-3.7406e-06
-4.33558e-07
-3.93251e-06
-3.89046e-07
-4.10219e-06
-3.44902e-07
-4.25027e-06
-3.01728e-07
-4.37756e-06
-2.59876e-07
-4.4849e-06
-2.19495e-07
-4.57313e-06
-1.80567e-07
-4.64298e-06
-1.42944e-07
-4.69502e-06
-1.06375e-07
-4.72967e-06
-7.05349e-08
-4.74713e-06
-3.50448e-08
-4.7474e-06
5.0735e-10
-4.73023e-06
3.6549e-08
-4.69515e-06
7.35039e-08
-4.64147e-06
1.11771e-07
-4.56833e-06
1.51703e-07
-4.47467e-06
1.93575e-07
-4.35935e-06
2.37551e-07
-4.22117e-06
2.83646e-07
-4.05901e-06
3.31679e-07
-3.8719e-06
3.81225e-07
-3.65922e-06
4.31561e-07
-3.42085e-06
4.8162e-07
-3.1574e-06
5.29953e-07
-2.87038e-06
5.74702e-07
-2.56251e-06
6.13605e-07
-2.23784e-06
6.44031e-07
-1.90201e-06
6.63057e-07
-1.56233e-06
6.67589e-07
-1.22783e-06
6.54529e-07
-9.09138e-07
6.20987e-07
-6.18308e-07
5.64515e-07
-3.68427e-07
4.83347e-07
-1.73136e-07
3.76607e-07
-4.60517e-08
2.44448e-07
8.83782e-08
-4.37668e-08
-4.31374e-08
-1.63649e-07
-1.18251e-07
-3.47084e-07
-1.81102e-07
-5.81189e-07
-2.31374e-07
-8.53383e-07
-2.69344e-07
-1.15183e-06
-2.95714e-07
-1.46578e-06
-3.11522e-07
-1.78583e-06
-3.18043e-07
-2.10401e-06
-3.16681e-07
-2.41388e-06
-3.08873e-07
-2.71038e-06
-2.96007e-07
-2.9898e-06
-2.79363e-07
-3.24954e-06
-2.60073e-07
-3.48799e-06
-2.39094e-07
-3.70434e-06
-2.1721e-07
-3.89836e-06
-1.95026e-07
-4.07027e-06
-1.72991e-07
-4.22059e-06
-1.51407e-07
-4.35001e-06
-1.30457e-07
-4.45929e-06
-1.10218e-07
-4.54917e-06
-9.06867e-08
-4.62032e-06
-7.17919e-08
-4.67328e-06
-5.3412e-08
-4.70843e-06
-3.53873e-08
-4.72594e-06
-1.75315e-08
-4.7258e-06
3.58979e-10
-4.70774e-06
1.84949e-08
-4.67132e-06
3.7085e-08
-4.61588e-06
5.63257e-08
-4.54056e-06
7.63885e-08
-4.44439e-06
9.74064e-08