/*--------------------------------*- C++ -*----------------------------------*\
  =========                 |
  \\      /  F ield         | OpenFOAM: The Open Source CFD Toolbox
   \\    /   O peration     | Website:  https://openfoam.org
    \\  /    A nd           | Version:  7
     \\/     M anipulation  |
\*---------------------------------------------------------------------------*/
FoamFile
{
    version     2.0;
    format      ascii;
    class       volScalarField;
    location    "0.049";
    object      p;
}
// * * * * * * * * * * * * * * * * * * * * * * * * * * * * * * * * * * * * * //

dimensions      [0 2 -2 0 0 0 0];

internalField   nonuniform List<scalar> 
2500
(
2.76199e-05
-6.51195
-9.29714
-10.493
-11.1585
-11.5648
-11.8285
-12.0132
-12.1509
-12.258
-12.3437
-12.4137
-12.4719
-12.5207
-12.5619
-12.597
-12.6269
-12.6524
-12.6742
-12.6928
-12.7087
-12.7222
-12.7337
-12.7435
-12.752
-12.7595
-12.7662
-12.7725
-12.7787
-12.7852
-12.7923
-12.8005
-12.8103
-12.8223
-12.8371
-12.8555
-12.8786
-12.9076
-12.9442
-12.9909
-13.051
-13.1299
-13.2362
-13.3855
-13.6087
-13.9668
-14.5667
-15.6676
-18.3348
-24.7196
-4.95544
-7.67544
-9.18226
-10.1424
-10.8104
-11.2705
-11.5922
-11.8256
-12.0011
-12.1369
-12.2446
-12.3319
-12.4037
-12.4636
-12.514
-12.5568
-12.5933
-12.6246
-12.6516
-12.675
-12.6952
-12.7128
-12.7282
-12.7418
-12.754
-12.7652
-12.7756
-12.7858
-12.796
-12.8068
-12.8184
-12.8316
-12.8469
-12.865
-12.8867
-12.9132
-12.9458
-12.9862
-13.037
-13.1013
-13.1842
-13.2926
-13.4378
-13.6371
-13.9197
-14.3334
-14.9434
-15.8316
-17.2517
-19.8507
-7.92487
-8.75736
-9.55843
-10.2395
-10.7799
-11.1901
-11.4998
-11.7368
-11.921
-12.0667
-12.1839
-12.2797
-12.359
-12.4253
-12.4815
-12.5293
-12.5703
-12.6056
-12.6363
-12.663
-12.6864
-12.707
-12.7253
-12.7417
-12.7567
-12.7706
-12.7839
-12.7969
-12.8101
-12.8239
-12.8389
-12.8556
-12.8747
-12.897
-12.9234
-12.9552
-12.9938
-13.0411
-13.0997
-13.1731
-13.2661
-13.3854
-13.5406
-13.7454
-14.0191
-14.388
-14.8805
-15.5085
-16.2541
-17.0174
-9.43429
-9.64773
-10.0669
-10.512
-10.9051
-11.2324
-11.4991
-11.7151
-11.8902
-12.0332
-12.151
-12.2489
-12.331
-12.4005
-12.4597
-12.5106
-12.5545
-12.5926
-12.6258
-12.655
-12.6808
-12.7037
-12.7242
-12.7428
-12.76
-12.7761
-12.7915
-12.8068
-12.8223
-12.8385
-12.8559
-12.8753
-12.8971
-12.9223
-12.9519
-12.9869
-13.0289
-13.0798
-13.1418
-13.2181
-13.3126
-13.4305
-13.5786
-13.7652
-14
-14.2924
-14.6479
-15.0539
-15.4361
-15.6139
-10.3197
-10.3193
-10.5233
-10.8003
-11.0751
-11.3254
-11.5443
-11.7314
-11.8899
-12.0236
-12.1367
-12.2327
-12.3146
-12.3848
-12.4454
-12.4978
-12.5435
-12.5834
-12.6185
-12.6496
-12.6772
-12.7019
-12.7243
-12.7447
-12.7637
-12.7816
-12.7989
-12.816
-12.8333
-12.8514
-12.8708
-12.8921
-12.9159
-12.9432
-12.9747
-13.0117
-13.0554
-13.1075
-13.17
-13.2453
-13.3364
-13.4467
-13.5804
-13.7413
-13.9327
-14.1542
-14.3999
-14.6489
-14.8287
-14.8102
-10.8863
-10.8122
-10.901
-11.0687
-11.2567
-11.4432
-11.6175
-11.7743
-11.9127
-12.0336
-12.1386
-12.2297
-12.3089
-12.3779
-12.4381
-12.4908
-12.5371
-12.5781
-12.6143
-12.6466
-12.6755
-12.7016
-12.7253
-12.7471
-12.7675
-12.7868
-12.8054
-12.8239
-12.8427
-12.8622
-12.883
-12.9056
-12.9307
-12.9591
-12.9916
-13.0292
-13.073
-13.1245
-13.185
-13.2565
-13.3409
-13.4402
-13.5562
-13.69
-13.8408
-14.004
-14.1698
-14.3175
-14.3911
-14.3094
-11.2683
-11.1774
-11.2078
-11.3069
-11.4335
-11.5701
-11.7058
-11.8342
-11.9521
-12.0585
-12.1535
-12.2378
-12.3126
-12.3787
-12.4372
-12.489
-12.5351
-12.5761
-12.6128
-12.6457
-12.6753
-12.7022
-12.7269
-12.7497
-12.771
-12.7913
-12.811
-12.8304
-12.8501
-12.8705
-12.8921
-12.9155
-12.9412
-12.9699
-13.0025
-13.0396
-13.0823
-13.1315
-13.1885
-13.2544
-13.3303
-13.417
-13.5149
-13.6232
-13.7393
-13.8572
-13.9669
-14.052
-14.073
-13.9804
-11.5414
-11.4542
-11.4555
-11.5123
-11.5965
-11.6953
-11.7996
-11.903
-12.0017
-12.0936
-12.1779
-12.2545
-12.3236
-12.3858
-12.4416
-12.4917
-12.5367
-12.5771
-12.6135
-12.6465
-12.6764
-12.7037
-12.7288
-12.7521
-12.774
-12.7949
-12.8152
-12.8353
-12.8555
-12.8764
-12.8983
-12.9219
-12.9475
-12.9759
-13.0077
-13.0436
-13.0842
-13.1303
-13.1827
-13.242
-13.3087
-13.3829
-13.4639
-13.5501
-13.6382
-13.7221
-13.7936
-13.8406
-13.8367
-13.7511
-11.7471
-11.6693
-11.6564
-11.6871
-11.7424
-11.8134
-11.8929
-11.9753
-12.0568
-12.1351
-12.2089
-12.2773
-12.3403
-12.3978
-12.4503
-12.4979
-12.5412
-12.5804
-12.6161
-12.6486
-12.6782
-12.7055
-12.7307
-12.7542
-12.7763
-12.7975
-12.818
-12.8383
-12.8587
-12.8796
-12.9015
-12.9248
-12.9499
-12.9775
-13.008
-13.042
-13.0799
-13.1223
-13.1697
-13.2222
-13.2799
-13.3424
-13.4086
-13.4764
-13.5425
-13.6018
-13.6477
-13.6718
-13.6565
-13.5823
-11.9085
-11.8405
-11.8211
-11.8357
-11.8714
-11.922
-11.9822
-12.0474
-12.1142
-12.1802
-12.244
-12.3044
-12.361
-12.4137
-12.4623
-12.507
-12.548
-12.5856
-12.62
-12.6516
-12.6807
-12.7075
-12.7325
-12.7558
-12.7778
-12.7989
-12.8193
-12.8395
-12.8597
-12.8804
-12.9018
-12.9245
-12.9488
-12.9751
-13.0039
-13.0356
-13.0705
-13.109
-13.1512
-13.1971
-13.2465
-13.2986
-13.3522
-13.4052
-13.4546
-13.4961
-13.5249
-13.5354
-13.5157
-13.4526
-12.0389
-11.9796
-11.9576
-11.9624
-11.9847
-12.0205
-12.0658
-12.1172
-12.1715
-12.2268
-12.2814
-12.3342
-12.3846
-12.4322
-12.4767
-12.5182
-12.5566
-12.5922
-12.625
-12.6554
-12.6835
-12.7096
-12.7339
-12.7568
-12.7784
-12.7991
-12.8192
-12.8389
-12.8587
-12.8788
-12.8995
-12.9213
-12.9444
-12.9693
-12.9961
-13.0253
-13.0571
-13.0916
-13.1289
-13.1687
-13.2106
-13.2537
-13.2969
-13.3381
-13.3748
-13.4038
-13.4213
-13.4238
-13.4029
-13.3496
-12.1466
-12.0949
-12.0723
-12.071
-12.0842
-12.1092
-12.1432
-12.1834
-12.2274
-12.2734
-12.3198
-12.3656
-12.41
-12.4525
-12.4929
-12.531
-12.5666
-12.5999
-12.6308
-12.6597
-12.6865
-12.7116
-12.735
-12.7571
-12.7781
-12.7982
-12.8176
-12.8368
-12.8558
-12.8751
-12.8949
-12.9156
-12.9373
-12.9605
-12.9853
-13.0119
-13.0406
-13.0713
-13.1039
-13.1381
-13.1735
-13.2091
-13.2438
-13.2758
-13.3031
-13.3231
-13.3332
-13.3311
-13.3108
-13.2656
-12.2372
-12.1918
-12.1697
-12.1648
-12.1718
-12.1889
-12.2142
-12.2456
-12.281
-12.319
-12.3582
-12.3975
-12.4364
-12.4741
-12.5104
-12.5449
-12.5776
-12.6083
-12.6372
-12.6643
-12.6896
-12.7134
-12.7357
-12.7569
-12.7769
-12.7962
-12.8148
-12.8331
-12.8513
-12.8696
-12.8883
-12.9077
-12.9279
-12.9493
-12.972
-12.9961
-13.0218
-13.0489
-13.0773
-13.1066
-13.1363
-13.1657
-13.1935
-13.2184
-13.2386
-13.2523
-13.2576
-13.253
-13.2341
-13.1957
-12.3144
-12.2744
-12.2534
-12.2463
-12.2491
-12.2605
-12.2792
-12.3035
-12.3319
-12.3631
-12.3959
-12.4295
-12.4632
-12.4963
-12.5286
-12.5596
-12.5893
-12.6174
-12.6441
-12.6692
-12.6928
-12.7151
-12.7362
-12.7561
-12.7751
-12.7933
-12.8109
-12.8282
-12.8453
-12.8625
-12.88
-12.898
-12.9167
-12.9362
-12.9568
-12.9785
-13.0013
-13.0251
-13.0497
-13.0748
-13.0997
-13.1239
-13.1462
-13.1656
-13.1807
-13.19
-13.1922
-13.1864
-13.1692
-13.1365
-12.3809
-12.3456
-12.326
-12.3178
-12.3177
-12.3249
-12.3385
-12.3572
-12.3799
-12.4053
-12.4327
-12.4611
-12.49
-12.5189
-12.5473
-12.5749
-12.6015
-12.627
-12.6512
-12.6743
-12.6961
-12.7168
-12.7363
-12.7549
-12.7726
-12.7896
-12.8061
-12.8223
-12.8382
-12.8542
-12.8703
-12.8868
-12.9039
-12.9217
-12.9402
-12.9596
-12.9797
-13.0005
-13.0218
-13.0431
-13.0641
-13.084
-13.102
-13.1171
-13.1284
-13.1346
-13.1349
-13.1287
-13.1133
-13.0856
-12.4389
-12.4076
-12.3895
-12.3809
-12.3789
-12.3831
-12.3928
-12.4071
-12.4249
-12.4456
-12.4681
-12.492
-12.5166
-12.5415
-12.5662
-12.5905
-12.6141
-12.6369
-12.6588
-12.6796
-12.6995
-12.7184
-12.7363
-12.7534
-12.7698
-12.7855
-12.8007
-12.8155
-12.8302
-12.8448
-12.8596
-12.8746
-12.8901
-12.906
-12.9226
-12.9397
-12.9574
-12.9756
-12.9939
-13.012
-13.0296
-13.046
-13.0606
-13.0725
-13.0809
-13.0851
-13.0843
-13.0781
-13.0646
-13.0411
-12.4897
-12.4622
-12.4457
-12.437
-12.4338
-12.4359
-12.4426
-12.4533
-12.4673
-12.4838
-12.5023
-12.5221
-12.5428
-12.564
-12.5853
-12.6064
-12.6271
-12.6472
-12.6666
-12.6852
-12.7031
-12.7201
-12.7364
-12.7519
-12.7667
-12.781
-12.7948
-12.8083
-12.8216
-12.8348
-12.8482
-12.8617
-12.8755
-12.8897
-12.9043
-12.9194
-12.9348
-12.9505
-12.9662
-12.9816
-12.9964
-13.0099
-13.0218
-13.0312
-13.0376
-13.0403
-13.0389
-13.0332
-13.0216
-13.0019
-12.5348
-12.5106
-12.4957
-12.4873
-12.4834
-12.4839
-12.4884
-12.4963
-12.5071
-12.5202
-12.5351
-12.5513
-12.5685
-12.5863
-12.6044
-12.6224
-12.6403
-12.6578
-12.6748
-12.6912
-12.7069
-12.722
-12.7365
-12.7503
-12.7636
-12.7764
-12.7887
-12.8008
-12.8126
-12.8244
-12.8362
-12.8482
-12.8604
-12.8728
-12.8856
-12.8987
-12.9121
-12.9256
-12.939
-12.952
-12.9644
-12.9756
-12.9852
-12.9927
-12.9977
-12.9995
-12.998
-12.9929
-12.9831
-12.9668
-12.575
-12.5539
-12.5406
-12.5327
-12.5286
-12.528
-12.5308
-12.5364
-12.5446
-12.5548
-12.5666
-12.5797
-12.5937
-12.6084
-12.6234
-12.6386
-12.6537
-12.6687
-12.6833
-12.6974
-12.7111
-12.7243
-12.7369
-12.749
-12.7606
-12.7718
-12.7826
-12.7932
-12.8035
-12.8138
-12.8241
-12.8344
-12.845
-12.8558
-12.8668
-12.878
-12.8894
-12.9009
-12.9122
-12.9232
-12.9335
-12.9428
-12.9506
-12.9567
-12.9606
-12.9619
-12.9604
-12.9562
-12.9481
-12.9349
-12.6112
-12.593
-12.5814
-12.5742
-12.57
-12.5687
-12.5702
-12.5741
-12.58
-12.5877
-12.5969
-12.6072
-12.6184
-12.6302
-12.6425
-12.6549
-12.6675
-12.6799
-12.6922
-12.7041
-12.7157
-12.7269
-12.7376
-12.748
-12.7579
-12.7674
-12.7766
-12.7856
-12.7944
-12.8032
-12.8119
-12.8206
-12.8296
-12.8386
-12.8479
-12.8574
-12.867
-12.8766
-12.886
-12.8951
-12.9036
-12.9113
-12.9177
-12.9226
-12.9257
-12.9268
-12.9256
-12.9223
-12.916
-12.9057
-12.6441
-12.6288
-12.6187
-12.6123
-12.6083
-12.6066
-12.6071
-12.6096
-12.6137
-12.6193
-12.6261
-12.6339
-12.6426
-12.6518
-12.6615
-12.6714
-12.6815
-12.6915
-12.7015
-12.7113
-12.7208
-12.73
-12.7388
-12.7474
-12.7555
-12.7634
-12.771
-12.7784
-12.7856
-12.7927
-12.7998
-12.8069
-12.8142
-12.8216
-12.8292
-12.8369
-12.8447
-12.8525
-12.8602
-12.8677
-12.8746
-12.8808
-12.8861
-12.8901
-12.8927
-12.8937
-12.8929
-12.8905
-12.8859
-12.8784
-12.6744
-12.6617
-12.6533
-12.6477
-12.644
-12.6421
-12.6419
-12.6432
-12.6459
-12.6497
-12.6544
-12.6601
-12.6664
-12.6732
-12.6805
-12.688
-12.6957
-12.7035
-12.7113
-12.7189
-12.7264
-12.7336
-12.7406
-12.7473
-12.7537
-12.7599
-12.7658
-12.7715
-12.777
-12.7825
-12.788
-12.7935
-12.7991
-12.8048
-12.8106
-12.8166
-12.8227
-12.8288
-12.8349
-12.8408
-12.8463
-12.8512
-12.8555
-12.8588
-12.861
-12.862
-12.8618
-12.8604
-12.8574
-12.8525
-12.7026
-12.6924
-12.6856
-12.681
-12.6777
-12.6758
-12.6751
-12.6755
-12.6768
-12.679
-12.682
-12.6856
-12.6898
-12.6945
-12.6995
-12.7048
-12.7103
-12.7159
-12.7215
-12.7271
-12.7326
-12.7379
-12.743
-12.7479
-12.7525
-12.7569
-12.7611
-12.7651
-12.769
-12.7728
-12.7766
-12.7803
-12.7842
-12.7882
-12.7923
-12.7966
-12.8009
-12.8054
-12.8099
-12.8143
-12.8184
-12.8222
-12.8255
-12.8282
-12.8302
-12.8313
-12.8317
-12.8313
-12.83
-12.8276
-12.7291
-12.7215
-12.7163
-12.7126
-12.7099
-12.708
-12.7069
-12.7065
-12.7068
-12.7076
-12.709
-12.7108
-12.713
-12.7156
-12.7186
-12.7218
-12.7252
-12.7287
-12.7323
-12.7359
-12.7394
-12.7428
-12.746
-12.7491
-12.7519
-12.7546
-12.757
-12.7593
-12.7615
-12.7636
-12.7656
-12.7676
-12.7697
-12.7719
-12.7743
-12.7768
-12.7794
-12.7822
-12.7851
-12.788
-12.7908
-12.7935
-12.7959
-12.7981
-12.7998
-12.8012
-12.8021
-12.8028
-12.8031
-12.8033
-12.7544
-12.7493
-12.7457
-12.743
-12.7409
-12.7391
-12.7378
-12.7368
-12.736
-12.7356
-12.7355
-12.7357
-12.7361
-12.7368
-12.7378
-12.739
-12.7404
-12.742
-12.7436
-12.7452
-12.7468
-12.7484
-12.7498
-12.751
-12.7521
-12.753
-12.7537
-12.7542
-12.7546
-12.7549
-12.7551
-12.7553
-12.7556
-12.756
-12.7565
-12.7572
-12.7581
-12.7591
-12.7604
-12.7618
-12.7633
-12.7649
-12.7665
-12.768
-12.7696
-12.7712
-12.7727
-12.7744
-12.7764
-12.779
-12.779
-12.7764
-12.7744
-12.7727
-12.7712
-12.7696
-12.7681
-12.7665
-12.7649
-12.7633
-12.7618
-12.7604
-12.7591
-12.7581
-12.7572
-12.7565
-12.756
-12.7556
-12.7553
-12.7551
-12.7549
-12.7546
-12.7542
-12.7537
-12.753
-12.7521
-12.751
-12.7498
-12.7484
-12.7468
-12.7452
-12.7436
-12.742
-12.7404
-12.739
-12.7378
-12.7368
-12.7361
-12.7357
-12.7355
-12.7356
-12.736
-12.7368
-12.7378
-12.7391
-12.7409
-12.743
-12.7457
-12.7493
-12.7544
-12.8033
-12.8031
-12.8028
-12.8021
-12.8012
-12.7998
-12.7981
-12.796
-12.7935
-12.7908
-12.788
-12.7851
-12.7822
-12.7794
-12.7768
-12.7743
-12.7719
-12.7697
-12.7676
-12.7656
-12.7636
-12.7615
-12.7593
-12.757
-12.7546
-12.7519
-12.7491
-12.746
-12.7428
-12.7394
-12.7359
-12.7323
-12.7287
-12.7252
-12.7218
-12.7186
-12.7156
-12.713
-12.7108
-12.709
-12.7076
-12.7068
-12.7065
-12.7069
-12.708
-12.7098
-12.7126
-12.7163
-12.7215
-12.7291
-12.8276
-12.83
-12.8313
-12.8317
-12.8313
-12.8302
-12.8282
-12.8255
-12.8222
-12.8184
-12.8143
-12.8099
-12.8054
-12.8009
-12.7966
-12.7923
-12.7882
-12.7842
-12.7803
-12.7766
-12.7728
-12.769
-12.7651
-12.7611
-12.7569
-12.7525
-12.7479
-12.743
-12.7379
-12.7326
-12.7271
-12.7215
-12.7159
-12.7103
-12.7048
-12.6995
-12.6945
-12.6898
-12.6856
-12.682
-12.679
-12.6768
-12.6754
-12.6751
-12.6758
-12.6777
-12.681
-12.6856
-12.6924
-12.7026
-12.8525
-12.8574
-12.8604
-12.8618
-12.862
-12.861
-12.8588
-12.8555
-12.8512
-12.8463
-12.8408
-12.8349
-12.8288
-12.8227
-12.8166
-12.8106
-12.8048
-12.7991
-12.7935
-12.788
-12.7825
-12.777
-12.7715
-12.7658
-12.7599
-12.7537
-12.7473
-12.7406
-12.7336
-12.7264
-12.7189
-12.7113
-12.7035
-12.6957
-12.688
-12.6805
-12.6732
-12.6663
-12.66
-12.6544
-12.6497
-12.6459
-12.6432
-12.6419
-12.6421
-12.644
-12.6477
-12.6533
-12.6617
-12.6744
-12.8784
-12.8859
-12.8905
-12.8929
-12.8937
-12.8927
-12.8901
-12.8861
-12.8808
-12.8746
-12.8677
-12.8602
-12.8525
-12.8447
-12.8369
-12.8292
-12.8216
-12.8142
-12.8069
-12.7998
-12.7927
-12.7856
-12.7784
-12.771
-12.7634
-12.7555
-12.7474
-12.7388
-12.73
-12.7208
-12.7113
-12.7015
-12.6915
-12.6815
-12.6714
-12.6615
-12.6518
-12.6426
-12.6339
-12.6261
-12.6193
-12.6137
-12.6096
-12.6071
-12.6066
-12.6083
-12.6123
-12.6187
-12.6287
-12.6441
-12.9057
-12.916
-12.9223
-12.9256
-12.9268
-12.9257
-12.9226
-12.9177
-12.9113
-12.9036
-12.8951
-12.886
-12.8766
-12.867
-12.8574
-12.8479
-12.8386
-12.8296
-12.8206
-12.8119
-12.8032
-12.7944
-12.7856
-12.7766
-12.7674
-12.7579
-12.748
-12.7376
-12.7269
-12.7157
-12.7041
-12.6922
-12.6799
-12.6675
-12.6549
-12.6425
-12.6302
-12.6184
-12.6072
-12.5969
-12.5877
-12.58
-12.5741
-12.5702
-12.5687
-12.57
-12.5742
-12.5814
-12.593
-12.6112
-12.9349
-12.9481
-12.9562
-12.9604
-12.9619
-12.9606
-12.9567
-12.9506
-12.9428
-12.9335
-12.9232
-12.9122
-12.9009
-12.8894
-12.878
-12.8668
-12.8558
-12.845
-12.8344
-12.8241
-12.8138
-12.8035
-12.7932
-12.7826
-12.7718
-12.7606
-12.749
-12.7369
-12.7243
-12.7111
-12.6974
-12.6833
-12.6687
-12.6537
-12.6386
-12.6234
-12.6084
-12.5937
-12.5797
-12.5666
-12.5548
-12.5446
-12.5364
-12.5308
-12.528
-12.5286
-12.5327
-12.5406
-12.5539
-12.575
-12.9668
-12.9831
-12.9929
-12.998
-12.9995
-12.9977
-12.9927
-12.9852
-12.9756
-12.9644
-12.952
-12.939
-12.9256
-12.9121
-12.8987
-12.8856
-12.8728
-12.8604
-12.8482
-12.8362
-12.8244
-12.8126
-12.8008
-12.7887
-12.7764
-12.7636
-12.7503
-12.7365
-12.722
-12.7069
-12.6912
-12.6748
-12.6578
-12.6403
-12.6224
-12.6044
-12.5863
-12.5685
-12.5513
-12.5351
-12.5202
-12.5071
-12.4963
-12.4884
-12.4839
-12.4834
-12.4873
-12.4957
-12.5106
-12.5347
-13.0019
-13.0216
-13.0332
-13.0389
-13.0403
-13.0376
-13.0312
-13.0218
-13.0099
-12.9964
-12.9816
-12.9662
-12.9505
-12.9348
-12.9194
-12.9043
-12.8897
-12.8755
-12.8617
-12.8482
-12.8348
-12.8216
-12.8083
-12.7948
-12.781
-12.7667
-12.7519
-12.7364
-12.7201
-12.7031
-12.6852
-12.6666
-12.6472
-12.6271
-12.6064
-12.5853
-12.564
-12.5428
-12.5221
-12.5023
-12.4838
-12.4673
-12.4533
-12.4426
-12.4358
-12.4338
-12.437
-12.4456
-12.4622
-12.4897
-13.0411
-13.0646
-13.0781
-13.0843
-13.0851
-13.0809
-13.0725
-13.0606
-13.046
-13.0296
-13.012
-12.9939
-12.9756
-12.9574
-12.9397
-12.9226
-12.906
-12.8901
-12.8746
-12.8596
-12.8448
-12.8302
-12.8155
-12.8007
-12.7855
-12.7698
-12.7534
-12.7363
-12.7184
-12.6995
-12.6796
-12.6588
-12.6369
-12.6141
-12.5905
-12.5662
-12.5415
-12.5166
-12.492
-12.4681
-12.4456
-12.4249
-12.4071
-12.3928
-12.3831
-12.3789
-12.3809
-12.3895
-12.4076
-12.4388
-13.0856
-13.1133
-13.1287
-13.1349
-13.1346
-13.1284
-13.1171
-13.102
-13.084
-13.0641
-13.0431
-13.0218
-13.0005
-12.9797
-12.9596
-12.9402
-12.9217
-12.9039
-12.8868
-12.8703
-12.8542
-12.8382
-12.8223
-12.8061
-12.7896
-12.7726
-12.7549
-12.7363
-12.7168
-12.6961
-12.6743
-12.6512
-12.627
-12.6015
-12.5749
-12.5473
-12.5189
-12.49
-12.4611
-12.4327
-12.4053
-12.3798
-12.3572
-12.3385
-12.3249
-12.3177
-12.3178
-12.326
-12.3456
-12.3809
-13.1365
-13.1692
-13.1864
-13.1922
-13.19
-13.1807
-13.1656
-13.1462
-13.1239
-13.0997
-13.0748
-13.0497
-13.0251
-13.0013
-12.9785
-12.9568
-12.9362
-12.9167
-12.898
-12.88
-12.8625
-12.8453
-12.8282
-12.8109
-12.7933
-12.7751
-12.7561
-12.7361
-12.7151
-12.6928
-12.6692
-12.644
-12.6174
-12.5892
-12.5596
-12.5286
-12.4963
-12.4632
-12.4295
-12.3959
-12.3631
-12.3319
-12.3035
-12.2792
-12.2605
-12.2491
-12.2463
-12.2534
-12.2743
-12.3144
-13.1957
-13.2341
-13.253
-13.2576
-13.2523
-13.2386
-13.2184
-13.1935
-13.1657
-13.1363
-13.1066
-13.0773
-13.0489
-13.0218
-12.9961
-12.972
-12.9493
-12.9279
-12.9077
-12.8883
-12.8696
-12.8513
-12.8331
-12.8148
-12.7962
-12.7769
-12.7569
-12.7357
-12.7134
-12.6896
-12.6643
-12.6372
-12.6083
-12.5776
-12.5449
-12.5103
-12.4741
-12.4364
-12.3975
-12.3581
-12.319
-12.281
-12.2456
-12.2142
-12.1889
-12.1718
-12.1648
-12.1697
-12.1918
-12.2372
-13.2656
-13.3108
-13.3311
-13.3332
-13.3231
-13.3031
-13.2758
-13.2438
-13.2091
-13.1735
-13.1381
-13.1039
-13.0713
-13.0406
-13.0119
-12.9853
-12.9605
-12.9373
-12.9156
-12.8949
-12.8751
-12.8558
-12.8368
-12.8176
-12.7982
-12.7781
-12.7571
-12.735
-12.7116
-12.6865
-12.6597
-12.6308
-12.5999
-12.5666
-12.531
-12.4929
-12.4525
-12.41
-12.3656
-12.3198
-12.2734
-12.2274
-12.1834
-12.1432
-12.1092
-12.0842
-12.071
-12.0723
-12.0948
-12.1466
-13.3496
-13.4029
-13.4238
-13.4213
-13.4038
-13.3748
-13.3381
-13.2969
-13.2537
-13.2106
-13.1687
-13.1289
-13.0916
-13.0571
-13.0253
-12.9961
-12.9693
-12.9444
-12.9213
-12.8995
-12.8788
-12.8587
-12.8389
-12.8192
-12.7991
-12.7784
-12.7568
-12.7339
-12.7096
-12.6835
-12.6554
-12.625
-12.5922
-12.5566
-12.5182
-12.4767
-12.4322
-12.3846
-12.3342
-12.2814
-12.2268
-12.1715
-12.1172
-12.0658
-12.0205
-11.9847
-11.9624
-11.9576
-11.9796
-12.0388
-13.4526
-13.5157
-13.5354
-13.5249
-13.4961
-13.4546
-13.4052
-13.3522
-13.2986
-13.2465
-13.1971
-13.1512
-13.109
-13.0705
-13.0356
-13.0039
-12.9751
-12.9488
-12.9245
-12.9018
-12.8804
-12.8597
-12.8395
-12.8193
-12.7989
-12.7778
-12.7558
-12.7325
-12.7075
-12.6807
-12.6516
-12.62
-12.5856
-12.548
-12.507
-12.4623
-12.4137
-12.361
-12.3044
-12.244
-12.1802
-12.1142
-12.0474
-11.9822
-11.922
-11.8714
-11.8357
-11.821
-11.8405
-11.9085
-13.5823
-13.6565
-13.6718
-13.6477
-13.6018
-13.5425
-13.4764
-13.4086
-13.3424
-13.2799
-13.2222
-13.1697
-13.1223
-13.0799
-13.042
-13.008
-12.9775
-12.9499
-12.9248
-12.9015
-12.8796
-12.8587
-12.8383
-12.818
-12.7975
-12.7763
-12.7542
-12.7307
-12.7055
-12.6782
-12.6486
-12.6161
-12.5804
-12.5412
-12.4979
-12.4503
-12.3978
-12.3403
-12.2773
-12.2088
-12.1351
-12.0568
-11.9753
-11.8929
-11.8134
-11.7424
-11.6871
-11.6564
-11.6693
-11.7471
-13.7511
-13.8367
-13.8406
-13.7936
-13.7221
-13.6382
-13.5501
-13.4639
-13.3829
-13.3087
-13.242
-13.1827
-13.1303
-13.0842
-13.0436
-13.0077
-12.9759
-12.9475
-12.9218
-12.8983
-12.8763
-12.8555
-12.8353
-12.8152
-12.7949
-12.774
-12.7521
-12.7288
-12.7037
-12.6764
-12.6465
-12.6135
-12.5771
-12.5367
-12.4917
-12.4416
-12.3858
-12.3236
-12.2545
-12.1779
-12.0936
-12.0017
-11.903
-11.7996
-11.6953
-11.5965
-11.5123
-11.4555
-11.4542
-11.5414
-13.9804
-14.073
-14.052
-13.9669
-13.8572
-13.7393
-13.6232
-13.5149
-13.417
-13.3303
-13.2544
-13.1885
-13.1315
-13.0823
-13.0396
-13.0025
-12.9699
-12.9412
-12.9155
-12.8921
-12.8705
-12.8501
-12.8304
-12.811
-12.7913
-12.771
-12.7497
-12.7269
-12.7022
-12.6753
-12.6457
-12.6128
-12.5761
-12.5351
-12.489
-12.4372
-12.3787
-12.3125
-12.2378
-12.1535
-12.0585
-11.9521
-11.8342
-11.7058
-11.5701
-11.4335
-11.3069
-11.2077
-11.1774
-11.2683
-14.3094
-14.3911
-14.3175
-14.1698
-14.004
-13.8408
-13.69
-13.5562
-13.4402
-13.3409
-13.2565
-13.185
-13.1245
-13.073
-13.0292
-12.9916
-12.9591
-12.9307
-12.9056
-12.883
-12.8622
-12.8427
-12.8239
-12.8054
-12.7868
-12.7675
-12.7471
-12.7253
-12.7016
-12.6755
-12.6466
-12.6143
-12.578
-12.5371
-12.4908
-12.4381
-12.3779
-12.3089
-12.2297
-12.1386
-12.0336
-11.9127
-11.7743
-11.6174
-11.4432
-11.2567
-11.0686
-10.901
-10.8121
-10.8863
-14.8102
-14.8287
-14.6489
-14.3999
-14.1542
-13.9327
-13.7413
-13.5804
-13.4467
-13.3364
-13.2453
-13.17
-13.1075
-13.0554
-13.0117
-12.9747
-12.9432
-12.9159
-12.8921
-12.8708
-12.8514
-12.8333
-12.816
-12.7989
-12.7816
-12.7637
-12.7447
-12.7243
-12.7019
-12.6772
-12.6496
-12.6185
-12.5834
-12.5435
-12.4978
-12.4453
-12.3848
-12.3146
-12.2327
-12.1367
-12.0236
-11.8898
-11.7314
-11.5443
-11.3254
-11.0751
-10.8002
-10.5233
-10.3193
-10.3197
-15.6139
-15.4361
-15.0539
-14.6479
-14.2924
-14
-13.7652
-13.5786
-13.4305
-13.3126
-13.2181
-13.1418
-13.0798
-13.0289
-12.9869
-12.9519
-12.9223
-12.8971
-12.8753
-12.8559
-12.8385
-12.8223
-12.8068
-12.7915
-12.7761
-12.76
-12.7428
-12.7242
-12.7037
-12.6808
-12.655
-12.6258
-12.5926
-12.5544
-12.5105
-12.4597
-12.4005
-12.331
-12.2489
-12.151
-12.0332
-11.8902
-11.7151
-11.4991
-11.2324
-10.9051
-10.512
-10.0669
-9.64771
-9.43427
-17.0174
-16.2541
-15.5085
-14.8805
-14.388
-14.0191
-13.7454
-13.5406
-13.3854
-13.2661
-13.1731
-13.0997
-13.0411
-12.9938
-12.9552
-12.9234
-12.897
-12.8747
-12.8556
-12.8389
-12.8239
-12.8101
-12.7969
-12.7839
-12.7706
-12.7567
-12.7417
-12.7253
-12.707
-12.6864
-12.663
-12.6363
-12.6056
-12.5703
-12.5293
-12.4815
-12.4253
-12.359
-12.2797
-12.1839
-12.0667
-11.921
-11.7368
-11.4998
-11.1901
-10.7799
-10.2395
-9.55841
-8.75734
-7.92485
-19.8507
-17.2517
-15.8316
-14.9434
-14.3334
-13.9197
-13.6371
-13.4378
-13.2926
-13.1842
-13.1013
-13.037
-12.9862
-12.9458
-12.9132
-12.8867
-12.865
-12.8469
-12.8316
-12.8184
-12.8068
-12.796
-12.7858
-12.7756
-12.7652
-12.754
-12.7418
-12.7282
-12.7128
-12.6952
-12.6749
-12.6516
-12.6246
-12.5933
-12.5568
-12.514
-12.4635
-12.4037
-12.3319
-12.2446
-12.1369
-12.001
-11.8256
-11.5921
-11.2705
-10.8103
-10.1424
-9.18224
-7.67542
-4.95541
-24.7196
-18.3348
-15.6676
-14.5667
-13.9668
-13.6087
-13.3855
-13.2362
-13.1299
-13.051
-12.9909
-12.9442
-12.9076
-12.8786
-12.8555
-12.8371
-12.8223
-12.8103
-12.8005
-12.7923
-12.7852
-12.7787
-12.7725
-12.7662
-12.7595
-12.752
-12.7435
-12.7337
-12.7222
-12.7087
-12.6928
-12.6742
-12.6524
-12.6268
-12.597
-12.5619
-12.5207
-12.4719
-12.4137
-12.3437
-12.258
-12.1509
-12.0132
-11.8284
-11.5648
-11.1584
-10.493
-9.29712
-6.51192
7.28249e-05
)
;

boundaryField
{
    movingWallTop
    {
        type            zeroGradient;
    }
    movingWallBottom
    {
        type            zeroGradient;
    }
    fixedWalls
    {
        type            zeroGradient;
    }
    frontAndBack
    {
        type            empty;
    }
}


// ************************************************************************* //
