/*--------------------------------*- C++ -*----------------------------------*\
  =========                 |
  \\      /  F ield         | OpenFOAM: The Open Source CFD Toolbox
   \\    /   O peration     | Website:  https://openfoam.org
    \\  /    A nd           | Version:  7
     \\/     M anipulation  |
\*---------------------------------------------------------------------------*/
FoamFile
{
    version     2.0;
    format      ascii;
    class       volVectorField;
    location    "0.049";
    object      U;
}
// * * * * * * * * * * * * * * * * * * * * * * * * * * * * * * * * * * * * * //

dimensions      [0 1 -1 0 0 0 0];

internalField   nonuniform List<vector> 
2500
(
(-0.293803 0.153724 0)
(-0.397941 0.128722 0)
(-0.577977 0.0737921 0)
(-0.696261 0.0408729 0)
(-0.765234 0.0233912 0)
(-0.809553 0.0141375 0)
(-0.840123 0.00915174 0)
(-0.862192 0.00634387 0)
(-0.878794 0.0046551 0)
(-0.891715 0.0035655 0)
(-0.902026 0.00281694 0)
(-0.91041 0.00227541 0)
(-0.917318 0.0018671 0)
(-0.923066 0.00154871 0)
(-0.927877 0.0012933 0)
(-0.931913 0.00108318 0)
(-0.935298 0.000906303 0)
(-0.93812 0.0007541 0)
(-0.94045 0.00062034 0)
(-0.942338 0.000500351 0)
(-0.943825 0.000390545 0)
(-0.944939 0.000288093 0)
(-0.9457 0.000190701 0)
(-0.946122 9.64492e-05 0)
(-0.946214 3.67146e-06 0)
(-0.945978 -8.91801e-05 0)
(-0.945411 -0.000183547 0)
(-0.944507 -0.000280902 0)
(-0.943254 -0.000382828 0)
(-0.941632 -0.000491111 0)
(-0.939619 -0.000607869 0)
(-0.937183 -0.00073572 0)
(-0.934283 -0.000878013 0)
(-0.930865 -0.00103917 0)
(-0.926862 -0.00122519 0)
(-0.922181 -0.00144444 0)
(-0.916706 -0.00170898 0)
(-0.910274 -0.0020368 0)
(-0.902665 -0.00245593 0)
(-0.893567 -0.00301235 0)
(-0.882528 -0.00378568 0)
(-0.868864 -0.00492141 0)
(-0.851489 -0.0066983 0)
(-0.8286 -0.0096676 0)
(-0.797183 -0.0149166 0)
(-0.752089 -0.0244992 0)
(-0.682574 -0.0421499 0)
(-0.56495 -0.0746193 0)
(-0.389317 -0.128128 0)
(-0.290206 -0.152372 0)
(-0.00516225 0.302911 0)
(-0.0270634 0.307344 0)
(-0.17132 0.217782 0)
(-0.308172 0.146563 0)
(-0.417062 0.0991851 0)
(-0.502259 0.0689204 0)
(-0.568605 0.049664 0)
(-0.620506 0.0371188 0)
(-0.661645 0.0286306 0)
(-0.694746 0.0226516 0)
(-0.721746 0.0182799 0)
(-0.744023 0.0149758 0)
(-0.76257 0.0124051 0)
(-0.77811 0.0103529 0)
(-0.791178 0.00867616 0)
(-0.802177 0.00727621 0)
(-0.811409 0.00608314 0)
(-0.819106 0.00504606 0)
(-0.825447 0.00412707 0)
(-0.830566 0.00329727 0)
(-0.834567 0.00253411 0)
(-0.837526 0.0018196 0)
(-0.839499 0.00113898 0)
(-0.840524 0.000479768 0)
(-0.840623 -0.000168983 0)
(-0.839804 -0.000817299 0)
(-0.838061 -0.00147479 0)
(-0.835378 -0.00215117 0)
(-0.831723 -0.00285681 0)
(-0.82705 -0.00360335 0)
(-0.821298 -0.00440442 0)
(-0.814385 -0.00527667 0)
(-0.806206 -0.00624107 0)
(-0.796627 -0.00732476 0)
(-0.785473 -0.00856381 0)
(-0.772522 -0.0100072 0)
(-0.757483 -0.011723 0)
(-0.739973 -0.0138085 0)
(-0.719482 -0.0164059 0)
(-0.695324 -0.0197305 0)
(-0.666556 -0.0241179 0)
(-0.63188 -0.0301091 0)
(-0.589482 -0.0385998 0)
(-0.536841 -0.0511014 0)
(-0.470639 -0.0701408 0)
(-0.387025 -0.0996644 0)
(-0.281813 -0.145091 0)
(-0.151516 -0.212614 0)
(-0.0164443 -0.298194 0)
(-0.000986663 -0.294676 0)
(0.0321111 0.264059 0)
(0.0563714 0.362333 0)
(-0.00361787 0.324947 0)
(-0.0958467 0.260483 0)
(-0.192174 0.200802 0)
(-0.280905 0.153751 0)
(-0.357923 0.118801 0)
(-0.423016 0.093201 0)
(-0.477539 0.0743155 0)
(-0.523175 0.0601563 0)
(-0.561478 0.0493278 0)
(-0.593749 0.0408721 0)
(-0.621035 0.0341315 0)
(-0.644162 0.0286497 0)
(-0.663777 0.0241048 0)
(-0.680388 0.0202654 0)
(-0.69439 0.0169622 0)
(-0.706095 0.0140686 0)
(-0.715747 0.0114885 0)
(-0.723534 0.00914751 0)
(-0.729602 0.00698667 0)
(-0.734062 0.00495843 0)
(-0.736994 0.00302343 0)
(-0.738454 0.00114816 0)
(-0.738477 -0.000696949 0)
(-0.737076 -0.00253896 0)
(-0.734246 -0.00440388 0)
(-0.729964 -0.00631792 0)
(-0.724189 -0.00830883 0)
(-0.716859 -0.0104075 0)
(-0.707891 -0.0126497 0)
(-0.697174 -0.0150786 0)
(-0.684571 -0.0177477 0)
(-0.669902 -0.0207252 0)
(-0.652946 -0.0240997 0)
(-0.633421 -0.027989 0)
(-0.61097 -0.032552 0)
(-0.585144 -0.0380071 0)
(-0.555373 -0.044659 0)
(-0.520936 -0.0529402 0)
(-0.480934 -0.0634717 0)
(-0.434267 -0.0771506 0)
(-0.379664 -0.0952668 0)
(-0.315824 -0.119625 0)
(-0.241876 -0.152559 0)
(-0.158513 -0.19639 0)
(-0.0700468 -0.251281 0)
(0.0122176 -0.309905 0)
(0.0620108 -0.343232 0)
(0.033032 -0.249909 0)
(0.0271476 0.205257 0)
(0.0637297 0.357849 0)
(0.0550879 0.37569 0)
(0.00778062 0.338556 0)
(-0.0598076 0.285924 0)
(-0.133347 0.235067 0)
(-0.204683 0.191744 0)
(-0.270042 0.156647 0)
(-0.328157 0.128722 0)
(-0.379022 0.106551 0)
(-0.423178 0.0888393 0)
(-0.461348 0.0745355 0)
(-0.494264 0.0628305 0)
(-0.522587 0.0531126 0)
(-0.54689 0.0449211 0)
(-0.567654 0.0379081 0)
(-0.585274 0.0318085 0)
(-0.600074 0.0264183 0)
(-0.612316 0.0215781 0)
(-0.622207 0.0171621 0)
(-0.629913 0.013069 0)
(-0.63556 0.00921577 0)
(-0.639243 0.00553307 0)
(-0.64103 0.00196126 0)
(-0.640963 -0.00155247 0)
(-0.63906 -0.00505664 0)
(-0.635322 -0.00859771 0)
(-0.629725 -0.0122223 0)
(-0.622227 -0.0159792 0)
(-0.612764 -0.0199223 0)
(-0.60125 -0.024113 0)
(-0.58757 -0.028624 0)
(-0.571582 -0.033544 0)
(-0.55311 -0.0389834 0)
(-0.531936 -0.0450827 0)
(-0.507798 -0.0520227 0)
(-0.480378 -0.0600394 0)
(-0.449301 -0.0694433 0)
(-0.414128 -0.0806455 0)
(-0.37437 -0.0941902 0)
(-0.329514 -0.110793 0)
(-0.279111 -0.13137 0)
(-0.222939 -0.157033 0)
(-0.161351 -0.18896 0)
(-0.095895 -0.227949 0)
(-0.0303752 -0.273181 0)
(0.0275607 -0.3193 0)
(0.0649159 -0.350735 0)
(0.0657261 -0.331916 0)
(0.0268691 -0.189915 0)
(0.0184492 0.163493 0)
(0.0530596 0.331665 0)
(0.0683961 0.387146 0)
(0.0526079 0.379927 0)
(0.0128591 0.344318 0)
(-0.0401309 0.299886 0)
(-0.0981997 0.256189 0)
(-0.156146 0.217075 0)
(-0.211031 0.183544 0)
(-0.261433 0.155348 0)
(-0.306839 0.131785 0)
(-0.347242 0.112065 0)
(-0.382881 0.0954605 0)
(-0.414099 0.0813541 0)
(-0.441265 0.0692391 0)
(-0.464733 0.0587075 0)
(-0.48482 0.0494324 0)
(-0.501805 0.0411523 0)
(-0.515923 0.0336561 0)
(-0.527369 0.0267727 0)
(-0.536304 0.0203613 0)
(-0.542853 0.0143047 0)
(-0.547115 0.00850337 0)
(-0.549159 0.00287105 0)
(-0.549033 -0.00266922 0)
(-0.546761 -0.00818826 0)
(-0.542349 -0.0137537 0)
(-0.53578 -0.0194329 0)
(-0.527019 -0.0252959 0)
(-0.516013 -0.0314181 0)
(-0.502687 -0.0378846 0)
(-0.486947 -0.0447939 0)
(-0.468674 -0.0522632 0)
(-0.447729 -0.0604349 0)
(-0.423948 -0.0694843 0)
(-0.397144 -0.0796295 0)
(-0.367112 -0.0911429 0)
(-0.333641 -0.104364 0)
(-0.296533 -0.119715 0)
(-0.255647 -0.137704 0)
(-0.210972 -0.158922 0)
(-0.162766 -0.183995 0)
(-0.111767 -0.213447 0)
(-0.0595445 -0.247378 0)
(-0.00898032 -0.284775 0)
(0.0351547 -0.322148 0)
(0.0656828 -0.351074 0)
(0.0734632 -0.354393 0)
(0.0532049 -0.301796 0)
(0.0179109 -0.148336 0)
(0.0119468 0.134724 0)
(0.0407614 0.30077 0)
(0.0651018 0.378307 0)
(0.0681821 0.395996 0)
(0.0497915 0.379466 0)
(0.0159858 0.346533 0)
(-0.026969 0.307966 0)
(-0.0740751 0.269556 0)
(-0.121814 0.234019 0)
(-0.16795 0.202341 0)
(-0.211195 0.174621 0)
(-0.250898 0.150548 0)
(-0.286802 0.129661 0)
(-0.318886 0.111475 0)
(-0.347256 0.0955374 0)
(-0.372081 0.0814491 0)
(-0.39355 0.0688698 0)
(-0.411854 0.0575124 0)
(-0.427169 0.047136 0)
(-0.439649 0.0375386 0)
(-0.44943 0.0285498 0)
(-0.456621 0.0200245 0)
(-0.461313 0.0118375 0)
(-0.463571 0.00387909 0)
(-0.463444 -0.00394957 0)
(-0.46096 -0.0117395 0)
(-0.456132 -0.0195774 0)
(-0.448954 -0.0275488 0)
(-0.439407 -0.0357415 0)
(-0.427456 -0.0442485 0)
(-0.413053 -0.0531723 0)
(-0.396137 -0.0626285 0)
(-0.376637 -0.0727508 0)
(-0.354473 -0.0836964 0)
(-0.329565 -0.0956516 0)
(-0.301834 -0.108838 0)
(-0.271226 -0.123517 0)
(-0.237727 -0.139993 0)
(-0.201404 -0.158607 0)
(-0.162465 -0.179718 0)
(-0.121345 -0.203647 0)
(-0.0788447 -0.230575 0)
(-0.0363155 -0.260318 0)
(0.00410273 -0.291933 0)
(0.0392441 -0.323018 0)
(0.0648193 -0.348587 0)
(0.0756581 -0.359454 0)
(0.0670199 -0.340367 0)
(0.040109 -0.26906 0)
(0.0114453 -0.120066 0)
(0.00786017 0.114223 0)
(0.0309959 0.271595 0)
(0.0571384 0.360432 0)
(0.0702338 0.396312 0)
(0.066405 0.396966 0)
(0.0480037 0.37692 0)
(0.0190036 0.346425 0)
(-0.0166213 0.312007 0)
(-0.0555485 0.277451 0)
(-0.0953006 0.244734 0)
(-0.134176 0.214723 0)
(-0.17108 0.187655 0)
(-0.20536 0.163431 0)
(-0.236664 0.141792 0)
(-0.264836 0.12242 0)
(-0.289846 0.10499 0)
(-0.311731 0.0891961 0)
(-0.330571 0.0747625 0)
(-0.346461 0.0614447 0)
(-0.359497 0.0490293 0)
(-0.369773 0.0373305 0)
(-0.377372 0.0261857 0)
(-0.382364 0.0154521 0)
(-0.384808 0.00500234 0)
(-0.384747 -0.00527876 0)
(-0.382213 -0.015498 0)
(-0.377226 -0.0257565 0)
(-0.369794 -0.0361535 0)
(-0.359916 -0.0467886 0)
(-0.347584 -0.0577657 0)
(-0.332783 -0.0691958 0)
(-0.315496 -0.0812006 0)
(-0.29571 -0.0939158 0)
(-0.273418 -0.107494 0)
(-0.248633 -0.122108 0)
(-0.221398 -0.13795 0)
(-0.191808 -0.15523 0)
(-0.160038 -0.174165 0)
(-0.12639 -0.194957 0)
(-0.0913461 -0.217748 0)
(-0.0556523 -0.24254 0)
(-0.0204219 -0.26905 0)
(0.012747 -0.296473 0)
(0.0416655 -0.323101 0)
(0.0635344 -0.345748 0)
(0.075153 -0.358993 0)
(0.0734925 -0.354315 0)
(0.0570614 -0.319518 0)
(0.0299966 -0.23939 0)
(0.00744106 -0.100196 0)
(0.0054125 0.099159 0)
(0.0239727 0.245946 0)
(0.0488758 0.339331 0)
(0.0666007 0.387439 0)
(0.0719667 0.402016 0)
(0.0649381 0.394166 0)
(0.0475303 0.372769 0)
(0.0224872 0.344222 0)
(-0.00746538 0.312764 0)
(-0.0400057 0.281005 0)
(-0.0733302 0.250419 0)
(-0.106123 0.22174 0)
(-0.137471 0.195247 0)
(-0.166772 0.170951 0)
(-0.19365 0.148717 0)
(-0.21789 0.128342 0)
(-0.239381 0.109593 0)
(-0.258086 0.09224 0)
(-0.274008 0.0760602 0)
(-0.287178 0.0608501 0)
(-0.297639 0.0464243 0)
(-0.305436 0.0326159 0)
(-0.310617 0.0192743 0)
(-0.313225 0.00626316 0)
(-0.313296 -0.00654241 0)
(-0.310863 -0.0192583 0)
(-0.305953 -0.0319942 0)
(-0.298588 -0.044856 0)
(-0.288786 -0.0579488 0)
(-0.276569 -0.0713788 0)
(-0.261958 -0.0852561 0)
(-0.244986 -0.0996965 0)
(-0.225696 -0.114823 0)
(-0.204157 -0.130768 0)
(-0.180472 -0.147666 0)
(-0.154795 -0.165658 0)
(-0.127352 -0.184872 0)
(-0.0984728 -0.205409 0)
(-0.0686279 -0.227304 0)
(-0.0384781 -0.250471 0)
(-0.00893201 -0.274604 0)
(0.0187934 -0.299036 0)
(0.0431259 -0.322513 0)
(0.0621393 -0.342889 0)
(0.0736727 -0.356725 0)
(0.0756702 -0.35885 0)
(0.0667956 -0.342041 0)
(0.0475108 -0.297115 0)
(0.0227905 -0.214083 0)
(0.00505358 -0.0858171 0)
(0.00392764 0.0876822 0)
(0.0190075 0.223892 0)
(0.0416372 0.31787 0)
(0.0609777 0.373646 0)
(0.0717766 0.398803 0)
(0.0726844 0.401502 0)
(0.0643035 0.389008 0)
(0.0482676 0.367098 0)
(0.0265868 0.340007 0)
(0.00121484 0.31064 0)
(-0.0261602 0.280866 0)
(-0.0541815 0.251811 0)
(-0.0818134 0.224089 0)
(-0.108297 0.197976 0)
(-0.133095 0.17354 0)
(-0.155844 0.150722 0)
(-0.176305 0.129393 0)
(-0.19433 0.10939 0)
(-0.209836 0.0905376 0)
(-0.222785 0.0726602 0)
(-0.233163 0.0555889 0)
(-0.24098 0.0391652 0)
(-0.246252 0.023242 0)
(-0.249004 0.00768297 0)
(-0.249265 -0.00763802 0)
(-0.247063 -0.0228387 0)
(-0.242432 -0.03803 0)
(-0.235405 -0.0533178 0)
(-0.226022 -0.0688045 0)
(-0.214331 -0.0845906 0)
(-0.20039 -0.100776 0)
(-0.184274 -0.11746 0)
(-0.166085 -0.134741 0)
(-0.145957 -0.152715 0)
(-0.124069 -0.171468 0)
(-0.100667 -0.191069 0)
(-0.0760754 -0.211553 0)
(-0.0507302 -0.232894 0)
(-0.0252043 -0.254963 0)
(-0.000242578 -0.277466 0)
(0.0232073 -0.299848 0)
(0.0439741 -0.321167 0)
(0.0606716 -0.339909 0)
(0.071768 -0.353771 0)
(0.0757676 -0.359417 0)
(0.0715646 -0.35228 0)
(0.0589626 -0.326554 0)
(0.0394088 -0.275567 0)
(0.0177059 -0.19291 0)
(0.00360428 -0.0750563 0)
(0.0029888 0.0786196 0)
(0.015447 0.204982 0)
(0.0356358 0.297353 0)
(0.0550007 0.357551 0)
(0.0687538 0.390387 0)
(0.0749496 0.401718 0)
(0.0732838 0.397273 0)
(0.0645219 0.382009 0)
(0.0500004 0.359869 0)
(0.0312328 0.333789 0)
(0.00967039 0.30584 0)
(-0.0134157 0.27741 0)
(-0.0369765 0.249373 0)
(-0.0601833 0.222239 0)
(-0.0824029 0.196269 0)
(-0.103166 0.171554 0)
(-0.122133 0.148081 0)
(-0.139068 0.125773 0)
(-0.153808 0.104516 0)
(-0.16625 0.0841783 0)
(-0.176331 0.0646209 0)
(-0.184017 0.045706 0)
(-0.189297 0.0273005 0)
(-0.192175 0.00927768 0)
(-0.192668 -0.00848166 0)
(-0.1908 -0.0260894 0)
(-0.186608 -0.0436503 0)
(-0.180136 -0.061263 0)
(-0.171441 -0.07902 0)
(-0.160594 -0.0970086 0)
(-0.147684 -0.11531 0)
(-0.132826 -0.133998 0)
(-0.116167 -0.153139 0)
(-0.0978925 -0.172782 0)
(-0.0782446 -0.192956 0)
(-0.0575302 -0.213653 0)
(-0.0361405 -0.234813 0)
(-0.014569 -0.256288 0)
(0.006569 -0.277805 0)
(0.0265196 -0.298904 0)
(0.0443819 -0.318854 0)
(0.0591174 -0.336548 0)
(0.0695945 -0.350373 0)
(0.0746898 -0.358066 0)
(0.07348 -0.356597 0)
(0.0655514 -0.342119 0)
(0.0513854 -0.310116 0)
(0.0328092 -0.255844 0)
(0.0140591 -0.175248 0)
(0.0026859 -0.0667372 0)
(0.00236369 0.0712466 0)
(0.0128249 0.188693 0)
(0.0307315 0.278296 0)
(0.0493263 0.34069 0)
(0.0644562 0.378883 0)
(0.0740053 0.397012 0)
(0.0771476 0.399491 0)
(0.0740318 0.390432 0)
(0.0654357 0.373337 0)
(0.0524451 0.351001 0)
(0.0362281 0.325537 0)
(0.0178972 0.298474 0)
(-0.00156284 0.270868 0)
(-0.0213229 0.24341 0)
(-0.0407102 0.216528 0)
(-0.059195 0.190456 0)
(-0.07637 0.165298 0)
(-0.09193 0.141067 0)
(-0.105651 0.117722 0)
(-0.117374 0.0951844 0)
(-0.126989 0.0733572 0)
(-0.134426 0.0521331 0)
(-0.139645 0.0314021 0)
(-0.14263 0.0110555 0)
(-0.143383 -0.009011 0)
(-0.141924 -0.0288962 0)
(-0.13829 -0.0486919 0)
(-0.132531 -0.0684827 0)
(-0.124718 -0.0883449 0)
(-0.11494 -0.108346 0)
(-0.103311 -0.128542 0)
(-0.0899758 -0.148976 0)
(-0.0751143 -0.169674 0)
(-0.058952 -0.190637 0)
(-0.041769 -0.211831 0)
(-0.0239108 -0.233176 0)
(-0.00580085 -0.25452 0)
(0.0120488 -0.275613 0)
(0.0290275 -0.296066 0)
(0.0444237 -0.315299 0)
(0.0574331 -0.332475 0)
(0.0671879 -0.346417 0)
(0.0728188 -0.355528 0)
(0.073563 -0.357709 0)
(0.0689386 -0.350317 0)
(0.0589892 -0.330213 0)
(0.0445471 -0.293956 0)
(0.0274826 -0.238216 0)
(0.0113743 -0.16046 0)
(0.00207356 -0.0601314 0)
(0.00192507 0.0651079 0)
(0.0108336 0.174562 0)
(0.026708 0.260839 0)
(0.0441658 0.323942 0)
(0.0596885 0.365713 0)
(0.0712174 0.389044 0)
(0.0776689 0.39728 0)
(0.0787867 0.393755 0)
(0.0749214 0.381486 0)
(0.0667883 0.363021 0)
(0.0552736 0.340408 0)
(0.0413002 0.315216 0)
(0.0257424 0.288604 0)
(0.00938047 0.261395 0)
(-0.00711876 0.234147 0)
(-0.0232036 0.207218 0)
(-0.0384295 0.18082 0)
(-0.0524466 0.155057 0)
(-0.0649856 0.129962 0)
(-0.0758442 0.105518 0)
(-0.084875 0.0816752 0)
(-0.0919752 0.0583642 0)
(-0.0970786 0.0355059 0)
(-0.100149 0.0130169 0)
(-0.101177 -0.00918564 0)
(-0.100173 -0.0311808 0)
(-0.097173 -0.0530417 0)
(-0.0922308 -0.0748331 0)
(-0.0854244 -0.0966097 0)
(-0.0768562 -0.118414 0)
(-0.066657 -0.140273 0)
(-0.0549905 -0.162195 0)
(-0.0420592 -0.184163 0)
(-0.028111 -0.206128 0)
(-0.0134465 -0.227999 0)
(0.00157331 -0.249626 0)
(0.01652 -0.270779 0)
(0.030893 -0.291126 0)
(0.0441184 -0.310194 0)
(0.0555568 -0.327328 0)
(0.0645225 -0.341642 0)
(0.0703231 -0.351962 0)
(0.072325 -0.35678 0)
(0.0700558 -0.354218 0)
(0.0633471 -0.342039 0)
(0.0525176 -0.317731 0)
(0.0385399 -0.278708 0)
(0.0231607 -0.222653 0)
(0.00933978 -0.148013 0)
(0.00164424 -0.0547776 0)
(0.00160215 0.0599073 0)
(0.00927358 0.162221 0)
(0.023365 0.24496 0)
(0.0395396 0.3078 0)
(0.0548478 0.351824 0)
(0.0673955 0.379035 0)
(0.0760089 0.391942 0)
(0.0801877 0.393202 0)
(0.0799769 0.385356 0)
(0.0757926 0.370667 0)
(0.0682684 0.351041 0)
(0.0581345 0.328018 0)
(0.0461339 0.302797 0)
(0.0329673 0.276279 0)
(0.0192631 0.249118 0)
(0.00556438 0.221771 0)
(-0.00767365 0.194544 0)
(-0.0200785 0.167626 0)
(-0.0313525 0.141122 0)
(-0.0412632 0.115076 0)
(-0.0496345 0.0894901 0)
(-0.0563377 0.0643385 0)
(-0.0612845 0.0395777 0)
(-0.0644211 0.0151551 0)
(-0.0657243 -0.00898548 0)
(-0.0651978 -0.0328984 0)
(-0.0628712 -0.056633 0)
(-0.0587994 -0.08023 0)
(-0.0530633 -0.103718 0)
(-0.0457716 -0.127112 0)
(-0.037064 -0.150407 0)
(-0.0271142 -0.173574 0)
(-0.0161351 -0.196554 0)
(-0.00438284 -0.219251 0)
(0.00783756 -0.241519 0)
(0.0201684 -0.263148 0)
(0.0321963 -0.283847 0)
(0.0434527 -0.303221 0)
(0.0534195 -0.320742 0)
(0.0615426 -0.335719 0)
(0.0672579 -0.347259 0)
(0.0700329 -0.35424 0)
(0.0694301 -0.355283 0)
(0.0651942 -0.34875 0)
(0.0573645 -0.332782 0)
(0.0464047 -0.305399 0)
(0.033302 -0.264673 0)
(0.0196104 -0.209007 0)
(0.00775329 -0.137482 0)
(0.00132922 -0.0503731 0)
(0.00135419 0.0554454 0)
(0.00801478 0.151383 0)
(0.0205399 0.230577 0)
(0.035395 0.292534 0)
(0.0501155 0.337846 0)
(0.0630126 0.367879 0)
(0.072922 0.384499 0)
(0.0792139 0.389802 0)
(0.0817272 0.385895 0)
(0.0806505 0.374743 0)
(0.0764045 0.358078 0)
(0.0695422 0.337361 0)
(0.0606711 0.31378 0)
(0.0503975 0.288273 0)
(0.0392908 0.261555 0)
(0.027863 0.234159 0)
(0.0165592 0.206466 0)
(0.00575579 0.178739 0)
(-0.00423684 0.151149 0)
(-0.0131688 0.123802 0)
(-0.0208444 0.0967514 0)
(-0.0271161 0.0700157 0)
(-0.031878 0.0435907 0)
(-0.0350617 0.0174579 0)
(-0.0366315 -0.00840783 0)
(-0.0365822 -0.0340329 0)
(-0.0349373 -0.0594392 0)
(-0.0317481 -0.0846403 0)
(-0.0270943 -0.109637 0)
(-0.0210853 -0.134413 0)
(-0.0138619 -0.158931 0)
(-0.0055994 -0.183125 0)
(0.00348961 -0.206896 0)
(0.0131521 -0.230104 0)
(0.0230919 -0.252554 0)
(0.0329684 -0.273989 0)
(0.042397 -0.29407 0)
(0.0509537 -0.312358 0)
(0.0581843 -0.328294 0)
(0.0636223 -0.341179 0)
(0.0668158 -0.350146 0)
(0.0673689 -0.354149 0)
(0.0649966 -0.351955 0)
(0.0595968 -0.342163 0)
(0.0513348 -0.323247 0)
(0.0407326 -0.293657 0)
(0.0287221 -0.251972 0)
(0.0166467 -0.197103 0)
(0.00648178 -0.128542 0)
(0.00108868 -0.0467123 0)
(0.00115677 0.051584 0)
(0.0069707 0.141829 0)
(0.0181079 0.217591 0)
(0.0316577 0.278288 0)
(0.0455616 0.324194 0)
(0.058341 0.356222 0)
(0.0688966 0.375745 0)
(0.0765467 0.384405 0)
(0.081001 0.383929 0)
(0.082283 0.376 0)
(0.0806438 0.362158 0)
(0.0764823 0.34376 0)
(0.070278 0.321949 0)
(0.0625392 0.297665 0)
(0.0537655 0.271657 0)
(0.0444234 0.244507 0)
(0.0349324 0.216655 0)
(0.0256579 0.188425 0)
(0.0169101 0.160049 0)
(0.00894515 0.131685 0)
(0.00196897 0.103439 0)
(-0.00385852 0.0753734 0)
(-0.00841908 0.0475245 0)
(-0.0116322 0.0199095 0)
(-0.0134517 -0.00746408 0)
(-0.0138632 -0.0345919 0)
(-0.0128826 -0.0614666 0)
(-0.0105551 -0.0880726 0)
(-0.00695516 -0.114381 0)
(-0.00218749 -0.140345 0)
(0.00361187 -0.165894 0)
(0.0102738 -0.190927 0)
(0.0175943 -0.215308 0)
(0.0253328 -0.238856 0)
(0.0332118 -0.261339 0)
(0.0409171 -0.282457 0)
(0.0481013 -0.301838 0)
(0.0543905 -0.319015 0)
(0.0593963 -0.333419 0)
(0.0627338 -0.34436 0)
(0.0640492 -0.351016 0)
(0.063056 -0.352431 0)
(0.0595826 -0.347519 0)
(0.0536278 -0.335093 0)
(0.0454237 -0.313912 0)
(0.0354947 -0.282774 0)
(0.024683 -0.240636 0)
(0.0141279 -0.186771 0)
(0.00543586 -0.120944 0)
(0.000898475 -0.0436515 0)
(0.00099452 0.0482246 0)
(0.00608244 0.133395 0)
(0.0159744 0.205904 0)
(0.0282542 0.265137 0)
(0.0412005 0.311151 0)
(0.0535342 0.344536 0)
(0.0642488 0.366295 0)
(0.0726609 0.377702 0)
(0.0784079 0.380165 0)
(0.0813998 0.375107 0)
(0.0817578 0.363886 0)
(0.0797532 0.347733 0)
(0.0757515 0.327729 0)
(0.0701666 0.30479 0)
(0.0634249 0.279675 0)
(0.0559396 0.252996 0)
(0.0480943 0.225234 0)
(0.0402327 0.196763 0)
(0.032654 0.167864 0)
(0.0256112 0.138745 0)
(0.0193128 0.109556 0)
(0.0139244 0.0804048 0)
(0.00957205 0.0513653 0)
(0.00634499 0.0224913 0)
(0.00429827 -0.00617621 0)
(0.00345497 -0.0346015 0)
(0.00380773 -0.0627471 0)
(0.00531959 -0.0905677 0)
(0.00792434 -0.118005 0)
(0.0115262 -0.144981 0)
(0.0159992 -0.171393 0)
(0.0211862 -0.197108 0)
(0.0268984 -0.221957 0)
(0.0329146 -0.245724 0)
(0.0389824 -0.268142 0)
(0.0448201 -0.288883 0)
(0.0501214 -0.307549 0)
(0.054564 -0.323659 0)
(0.0578214 -0.336644 0)
(0.0595817 -0.345839 0)
(0.0595722 -0.350475 0)
(0.0575909 -0.349689 0)
(0.0535452 -0.342532 0)
(0.047495 -0.328006 0)
(0.0396974 -0.305107 0)
(0.030646 -0.272906 0)
(0.0210781 -0.230647 0)
(0.0119464 -0.177863 0)
(0.00455388 -0.1145 0)
(0.000743274 -0.0410883 0)
(0.000857406 0.0452958 0)
(0.00530895 0.125953 0)
(0.0140684 0.195434 0)
(0.0251191 0.253113 0)
(0.0370208 0.298904 0)
(0.0486764 0.333166 0)
(0.0591838 0.356619 0)
(0.0678891 0.370249 0)
(0.0743982 0.375194 0)
(0.0785479 0.372654 0)
(0.0803645 0.36381 0)
(0.0800172 0.349771 0)
(0.0777746 0.33154 0)
(0.0739641 0.309996 0)
(0.0689407 0.285888 0)
(0.0630615 0.25984 0)
(0.0566682 0.232364 0)
(0.0500753 0.203867 0)
(0.0435633 0.174672 0)
(0.0373748 0.145028 0)
(0.0317138 0.115127 0)
(0.0267461 0.085115 0)
(0.0226011 0.0551046 0)
(0.0193737 0.0251838 0)
(0.0171257 -0.00457369 0)
(0.0158884 -0.0341011 0)
(0.0156631 -0.0633312 0)
(0.0164227 -0.0921895 0)
(0.0181115 -0.120588 0)
(0.020646 -0.148421 0)
(0.023914 -0.175555 0)
(0.0277752 -0.201827 0)
(0.0320604 -0.227038 0)
(0.0365727 -0.250943 0)
(0.0410887 -0.273247 0)
(0.0453623 -0.2936 0)
(0.0491294 -0.311586 0)
(0.0521171 -0.32672 0)
(0.0540556 -0.338442 0)
(0.054695 -0.346116 0)
(0.0538273 -0.34903 0)
(0.0513127 -0.346408 0)
(0.0471104 -0.337426 0)
(0.0413112 -0.321245 0)
(0.0341695 -0.297056 0)
(0.0261281 -0.264145 0)
(0.0178165 -0.221971 0)
(0.0100207 -0.170256 0)
(0.00379232 -0.109066 0)
(0.000612942 -0.0389482 0)
(0.000738602 0.0427448 0)
(0.00462101 0.119406 0)
(0.0123363 0.18611 0)
(0.0221975 0.24223 0)
(0.0330009 0.287585 0)
(0.043812 0.322365 0)
(0.0538356 0.347081 0)
(0.0624663 0.362489 0)
(0.0693064 0.369508 0)
(0.074151 0.369144 0)
(0.0769597 0.36242 0)
(0.0778237 0.350326 0)
(0.0769309 0.333785 0)
(0.0745335 0.313627 0)
(0.0709198 0.29058 0)
(0.0663912 0.26527 0)
(0.0612452 0.238222 0)
(0.0557628 0.20987 0)
(0.0502001 0.180566 0)
(0.0447835 0.150596 0)
(0.0397074 0.120186 0)
(0.0351331 0.0895181 0)
(0.0311892 0.0587382 0)
(0.0279732 0.0279671 0)
(0.025552 -0.00269074 0)
(0.0239638 -0.0331389 0)
(0.0232187 -0.0632815 0)
(0.0232999 -0.0930165 0)
(0.0241644 -0.122229 0)
(0.0257427 -0.150784 0)
(0.0279397 -0.178523 0)
(0.0306345 -0.205256 0)
(0.0336811 -0.230756 0)
(0.0369095 -0.254755 0)
(0.0401279 -0.276934 0)
(0.0431264 -0.296927 0)
(0.0456821 -0.314307 0)
(0.0475683 -0.328589 0)
(0.0485646 -0.339227 0)
(0.0484728 -0.345615 0)
(0.0471346 -0.347096 0)
(0.0444538 -0.342974 0)
(0.0404199 -0.332532 0)
(0.0351332 -0.315064 0)
(0.0288267 -0.289917 0)
(0.0218819 -0.256544 0)
(0.0148232 -0.214569 0)
(0.00828874 -0.163848 0)
(0.0031198 -0.104534 0)
(0.00050053 -0.0371766 0)
(0.000633329 0.0405322 0)
(0.00399738 0.113682 0)
(0.0107374 0.177874 0)
(0.0194445 0.232489 0)
(0.0291159 0.277283 0)
(0.0389621 0.312324 0)
(0.0482926 0.337963 0)
(0.0565605 0.354778 0)
(0.0633842 0.363511 0)
(0.0685398 0.365003 0)
(0.0719437 0.36014 0)
(0.0736293 0.349802 0)
(0.0737199 0.334832 0)
(0.0724035 0.316009 0)
(0.0699084 0.294032 0)
(0.0664834 0.269517 0)
(0.0623817 0.242994 0)
(0.0578484 0.214913 0)
(0.0531121 0.185652 0)
(0.048379 0.155521 0)
(0.0438294 0.124778 0)
(0.0396162 0.0936337 0)
(0.0358642 0.0622647 0)
(0.0326705 0.0308212 0)
(0.030105 -0.000564214 0)
(0.0282118 -0.0317679 0)
(0.0270092 -0.0626676 0)
(0.0264913 -0.0931357 0)
(0.0266282 -0.123032 0)
(0.0273663 -0.152197 0)
(0.028629 -0.180448 0)
(0.0303171 -0.20757 0)
(0.0323095 -0.233315 0)
(0.0344649 -0.257392 0)
(0.0366236 -0.279467 0)
(0.0386115 -0.299157 0)
(0.0402451 -0.316031 0)
(0.0413392 -0.329606 0)
(0.0417163 -0.33935 0)
(0.0412198 -0.344689 0)
(0.0397285 -0.345013 0)
(0.0371747 -0.339695 0)
(0.0335623 -0.328106 0)
(0.0289855 -0.30965 0)
(0.0236438 -0.283799 0)
(0.0178531 -0.250135 0)
(0.012037 -0.208403 0)
(0.00670286 -0.158561 0)
(0.00251321 -0.100822 0)
(0.000401128 -0.0357334 0)
(0.000538149 0.0386285 0)
(0.00342232 0.108722 0)
(0.00924063 0.170678 0)
(0.0168236 0.223887 0)
(0.0253419 0.268062 0)
(0.0341356 0.303183 0)
(0.0426137 0.329482 0)
(0.0502939 0.347398 0)
(0.056823 0.35753 0)
(0.0619754 0.360586 0)
(0.0656424 0.357332 0)
(0.0678162 0.348552 0)
(0.0685701 0.335012 0)
(0.0680387 0.31744 0)
(0.0663977 0.296502 0)
(0.0638475 0.272798 0)
(0.0605983 0.246858 0)
(0.0568592 0.21914 0)
(0.0528291 0.190036 0)
(0.0486914 0.159879 0)
(0.0446094 0.128949 0)
(0.0407244 0.0974836 0)
(0.0371543 0.0656841 0)
(0.0339936 0.0337263 0)
(0.0313133 0.00176791 0)
(0.0291617 -0.0300432 0)
(0.0275651 -0.0615614 0)
(0.0265278 -0.092636 0)
(0.0260336 -0.123104 0)
(0.0260454 -0.152786 0)
(0.0265061 -0.181475 0)
(0.0273393 -0.208938 0)
(0.02845 -0.234906 0)
(0.0297256 -0.259071 0)
(0.0310388 -0.281083 0)
(0.03225 -0.300551 0)
(0.0332125 -0.317038 0)
(0.0337781 -0.330063 0)
(0.0338061 -0.33911 0)
(0.0331728 -0.343629 0)
(0.031784 -0.343053 0)
(0.0295887 -0.336809 0)
(0.0265932 -0.324342 0)
(0.0228747 -0.305144 0)
(0.0185924 -0.278779 0)
(0.0139939 -0.244932 0)
(0.00940838 -0.203439 0)
(0.00522635 -0.154332 0)
(0.00195531 -0.0978666 0)
(0.000311181 -0.0345887 0)
(0.000450526 0.0370113 0)
(0.00288395 0.104484 0)
(0.0078218 0.164485 0)
(0.0143053 0.216419 0)
(0.0216573 0.259967 0)
(0.029334 0.295048 0)
(0.0368392 0.321804 0)
(0.043757 0.340569 0)
(0.0497712 0.35183 0)
(0.0546667 0.356184 0)
(0.0583236 0.3543 0)
(0.0607068 0.346875 0)
(0.0618518 0.334611 0)
(0.0618495 0.318183 0)
(0.0608305 0.298224 0)
(0.0589512 0.275317 0)
(0.0563817 0.249983 0)
(0.0532952 0.222683 0)
(0.0498607 0.19382 0)
(0.0462368 0.163741 0)
(0.0425677 0.132745 0)
(0.0389805 0.101089 0)
(0.0355841 0.0689957 0)
(0.0324679 0.0366622 0)
(0.0297024 0.0042675 0)
(0.0273389 -0.0280199 0)
(0.02541 -0.0600341 0)
(0.0239304 -0.0916047 0)
(0.022897 -0.12255 0)
(0.0222894 -0.152671 0)
(0.0220705 -0.181743 0)
(0.022187 -0.209516 0)
(0.0225699 -0.235703 0)
(0.0231359 -0.259982 0)
(0.0237889 -0.281993 0)
(0.0244226 -0.301333 0)
(0.0249242 -0.317562 0)
(0.0251791 -0.330202 0)
(0.0250772 -0.338747 0)
(0.0245214 -0.342669 0)
(0.0234362 -0.34143 0)
(0.0217786 -0.334504 0)
(0.0195485 -0.321391 0)
(0.016799 -0.301648 0)
(0.0136442 -0.274914 0)
(0.0102638 -0.240946 0)
(0.00689768 -0.199651 0)
(0.00383059 -0.151114 0)
(0.00143296 -0.0956226 0)
(0.000228053 -0.0337209 0)
(0.000368535 0.0356637 0)
(0.0023731 0.100935 0)
(0.0064619 0.159268 0)
(0.0118656 0.210078 0)
(0.0180426 0.25303 0)
(0.0245553 0.287998 0)
(0.0309968 0.315058 0)
(0.0370182 0.334466 0)
(0.0423457 0.34662 0)
(0.0467835 0.352034 0)
(0.0502109 0.351292 0)
(0.0525763 0.345024 0)
(0.0538876 0.33387 0)
(0.0542006 0.318462 0)
(0.0536073 0.299401 0)
(0.0522252 0.277248 0)
(0.0501866 0.252515 0)
(0.0476306 0.225661 0)
(0.0446958 0.197095 0)
(0.0415153 0.167172 0)
(0.0382125 0.136206 0)
(0.0348987 0.104467 0)
(0.0316714 0.0721967 0)
(0.0286136 0.0396079 0)
(0.025793 0.00689678 0)
(0.0232625 -0.0257511 0)
(0.0210603 -0.0581534 0)
(0.0192101 -0.0901235 0)
(0.0177217 -0.121464 0)
(0.016591 -0.15196 0)
(0.0158007 -0.181374 0)
(0.0153205 -0.209439 0)
(0.0151074 -0.235856 0)
(0.0151066 -0.260291 0)
(0.0152527 -0.282372 0)
(0.0154711 -0.301688 0)
(0.0156806 -0.317796 0)
(0.0157966 -0.330218 0)
(0.0157361 -0.338454 0)
(0.0154227 -0.341989 0)
(0.0147938 -0.340311 0)
(0.0138081 -0.332921 0)
(0.0124531 -0.319362 0)
(0.0107529 -0.299238 0)
(0.00877408 -0.272241 0)
(0.00662901 -0.238182 0)
(0.00447279 -0.197018 0)
(0.00249304 -0.148872 0)
(0.00093602 -0.0940564 0)
(0.000149746 -0.0331141 0)
(0.000290673 0.0345732 0)
(0.00188248 0.0980489 0)
(0.00514551 0.155003 0)
(0.00948421 0.20486 0)
(0.014481 0.247274 0)
(0.0197955 0.282091 0)
(0.025106 0.309341 0)
(0.0301304 0.32922 0)
(0.0346407 0.342065 0)
(0.0384662 0.348319 0)
(0.0414934 0.348507 0)
(0.0436627 0.343199 0)
(0.044962 0.332987 0)
(0.0454192 0.318463 0)
(0.0450938 0.3002 0)
(0.0440682 0.278738 0)
(0.0424401 0.254578 0)
(0.0403156 0.228174 0)
(0.0378037 0.199936 0)
(0.0350112 0.170225 0)
(0.0320398 0.139362 0)
(0.0289835 0.10763 0)
(0.0259269 0.0752807 0)
(0.0229444 0.0425405 0)
(0.0200997 0.00961838 0)
(0.0174458 -0.0232875 0)
(0.015025 -0.0559821 0)
(0.0128692 -0.0882666 0)
(0.011 -0.119931 0)
(0.00942929 -0.15075 0)
(0.00815889 -0.180473 0)
(0.00718105 -0.208823 0)
(0.00647841 -0.23549 0)
(0.00602421 -0.260129 0)
(0.00578265 -0.282359 0)
(0.00570961 -0.301762 0)
(0.00575379 -0.317889 0)
(0.00585854 -0.330259 0)
(0.00596439 -0.338374 0)
(0.00601249 -0.341727 0)
(0.00594893 -0.339816 0)
(0.00572971 -0.332163 0)
(0.00532622 -0.318335 0)
(0.00473056 -0.297967 0)
(0.00396026 -0.270787 0)
(0.00306135 -0.236642 0)
(0.00210761 -0.195523 0)
(0.00119562 -0.147581 0)
(0.000456463 -0.0931439 0)
(7.47108e-05 -0.0327573 0)
(0.000215721 0.0337308 0)
(0.0014061 0.0958089 0)
(0.00385977 0.151674 0)
(0.0071441 0.200761 0)
(0.0109568 0.242717 0)
(0.015049 0.277371 0)
(0.0191805 0.304723 0)
(0.0231355 0.324931 0)
(0.0267336 0.338285 0)
(0.0298336 0.345181 0)
(0.0323346 0.346096 0)
(0.0341751 0.341556 0)
(0.0353292 0.332114 0)
(0.0358026 0.31833 0)
(0.0356265 0.300752 0)
(0.0348521 0.279902 0)
(0.033545 0.256267 0)
(0.0317799 0.230298 0)
(0.0296361 0.202399 0)
(0.0271945 0.172936 0)
(0.024534 0.142233 0)
(0.0217302 0.11058 0)
(0.0188532 0.0782357 0)
(0.0159677 0.0454349 0)
(0.0131315 0.0123951 0)
(0.0103962 -0.0206767 0)
(0.00780709 -0.0535771 0)
(0.00540284 -0.086099 0)
(0.00321615 -0.118025 0)
(0.00127361 -0.14912 0)
(-0.000404307 -0.179126 0)
(-0.00180342 -0.207759 0)
(-0.00291609 -0.2347 0)
(-0.00374166 -0.259596 0)
(-0.00428685 -0.282058 0)
(-0.00456614 -0.301661 0)
(-0.00460195 -0.317946 0)
(-0.00442454 -0.330429 0)
(-0.00407137 -0.338608 0)
(-0.00358591 -0.341975 0)
(-0.0030157 -0.340028 0)
(-0.00240967 -0.332298 0)
(-0.00181487 -0.318362 0)
(-0.00127275 -0.297871 0)
(-0.000815432 -0.27057 0)
(-0.000462585 -0.236328 0)
(-0.00021941 -0.195155 0)
(-7.64678e-05 -0.147223 0)
(-1.22428e-05 -0.0928693 0)
(1.69294e-06 -0.0326434 0)
(0.000142637 0.0331303 0)
(0.000938756 0.0942027 0)
(0.00259335 0.149271 0)
(0.00482977 0.197777 0)
(0.00745546 0.239368 0)
(0.0103091 0.273866 0)
(0.0132297 0.301255 0)
(0.016067 0.321667 0)
(0.0186896 0.335367 0)
(0.0209883 0.342719 0)
(0.0228785 0.344166 0)
(0.0243009 0.340205 0)
(0.0252205 0.33136 0)
(0.0256245 0.318166 0)
(0.0255194 0.30115 0)
(0.024928 0.280819 0)
(0.0238854 0.25765 0)
(0.022436 0.232083 0)
(0.0206304 0.204521 0)
(0.018523 0.175327 0)
(0.0161695 0.144826 0)
(0.0136258 0.113311 0)
(0.0109467 0.081043 0)