/*--------------------------------*- C++ -*----------------------------------*\
  =========                 |
  \\      /  F ield         | OpenFOAM: The Open Source CFD Toolbox
   \\    /   O peration     | Website:  https://openfoam.org
    \\  /    A nd           | Version:  7
     \\/     M anipulation  |
\*---------------------------------------------------------------------------*/
FoamFile
{
    version     2.0;
    format      ascii;
    class       volScalarField;
    location    "0.0296";
    object      p;
}
// * * * * * * * * * * * * * * * * * * * * * * * * * * * * * * * * * * * * * //

dimensions      [0 2 -2 0 0 0 0];

internalField   nonuniform List<scalar> 
2500
(
4.28718e-06
-0.000510208
-0.00192513
-0.00393473
-0.00622324
-0.00850802
-0.010609
-0.0123766
-0.0137019
-0.0145089
-0.0147474
-0.0143878
-0.0134178
-0.0118389
-0.00966473
-0.00691833
-0.00363112
0.000158618
0.00440675
0.0090642
0.0140777
0.0193904
0.0249426
0.0306719
0.0365141
0.0424031
0.048272
0.0540532
0.0596792
0.065083
0.0701992
0.0749642
0.0793181
0.0832049
0.0865741
0.0893822
0.0915938
0.0931834
0.0941374
0.0944558
0.094155
0.0932701
0.0918589
0.0900055
0.0878286
0.0854869
0.0831549
0.081137
0.0797326
0.0792372
0.000530081
1.38456e-05
-0.00113176
-0.00270207
-0.00447212
-0.00624978
-0.00788171
-0.00924317
-0.0102378
-0.0107945
-0.0108635
-0.0104132
-0.0094275
-0.00790333
-0.00584886
-0.0032817
-0.000227557
0.00328099
0.00720544
0.0115023
0.0161238
0.0210184
0.0261316
0.0314066
0.0367841
0.0422038
0.047604
0.0529227
0.0580984
0.0630699
0.0677779
0.0721655
0.0761792
0.0797695
0.0828929
0.0855122
0.0875984
0.0891321
0.090105
0.0905216
0.0904013
0.0897806
0.0887151
0.0872828
0.0855871
0.0837592
0.0819555
0.0803713
0.0792341
0.0787422
0.00195068
0.0011623
8.68902e-06
-0.00140674
-0.00294588
-0.00446397
-0.00583678
-0.00696164
-0.0077561
-0.00815688
-0.00811823
-0.00760993
-0.00661535
-0.00512974
-0.00315863
-0.00071652
0.0021744
0.00548525
0.0091814
0.0132232
0.0175668
0.0221647
0.0269664
0.0319186
0.0369665
0.0420533
0.0471218
0.0521139
0.0569722
0.06164
0.0660624
0.0701868
0.073964
0.0773494
0.0803033
0.0827929
0.084793
0.0862875
0.0872706
0.0877484
0.0877406
0.0872815
0.0864225
0.0852328
0.0838012
0.0822361
0.0806659
0.079238
0.0780955
0.077339
0.00397985
0.0027473
0.00140837
-3.13717e-05
-0.00151552
-0.00293124
-0.0041789
-0.00517624
-0.00585523
-0.00616216
-0.00605732
-0.00551399
-0.0045171
-0.00306208
-0.00115362
0.00119533
0.00396468
0.00712799
0.0106533
0.0145039
0.0186388
0.0230136
0.0275808
0.0322905
0.0370906
0.0419278
0.0467479
0.0514962
0.0561184
0.060561
0.0647724
0.0687032
0.0723075
0.0755433
0.0783742
0.0807696
0.0827065
0.0841704
0.0851563
0.0856699
0.0857291
0.0853648
0.0846219
0.08356
0.0822533
0.0807901
0.0792745
0.0778229
0.0764971
0.0753034
0.00635798
0.00456839
0.00294888
0.0013886
-0.000136215
-0.00153783
-0.00273736
-0.00367132
-0.00428576
-0.00453695
-0.00439212
-0.00382906
-0.00283538
-0.00140777
0.00044887
0.00272225
0.00539349
0.00843783
0.0118253
0.0155215
0.0194878
0.0236822
0.0280599
0.0325735
0.0371738
0.04181
0.0464305
0.0509835
0.0554171
0.0596807
0.0637249
0.067503
0.0709713
0.0740901
0.0768248
0.0791463
0.0810329
0.0824704
0.0834535
0.0839866
0.0840848
0.0837744
0.0830934
0.0820917
0.0808297
0.0793772
0.0778185
0.0762457
0.0746441
0.0729184
0.00879941
0.00645122
0.00450203
0.00275504
0.00111886
-0.000337319
-0.00155114
-0.00247542
-0.003069
-0.00329778
-0.00313608
-0.00256674
-0.00158075
-0.000176833
0.00163914
0.00385471
0.00645149
0.00940571
0.0126888
0.0162678
0.020106
0.0241635
0.0283974
0.0327625
0.0372116
0.0416963
0.046167
0.0505738
0.0548672
0.0589982
0.0629196
0.0665862
0.0699559
0.0729904
0.075656
0.0779244
0.0797741
0.0811903
0.0821667
0.0827055
0.0828183
0.0825266
0.0818613
0.0808632
0.0795803
0.078067
0.0763918
0.0746292
0.0726983
0.0704156
0.0111786
0.00826649
0.00595852
0.00397966
0.00218032
0.000616922
-0.000660687
-0.00161886
-0.00222766
-0.00246173
-0.00230228
-0.00173734
-0.000761639
0.000623546
0.00241076
0.00458677
0.00713304
0.0100262
0.0132383
0.0167375
0.0204885
0.0244526
0.0285885
0.0328527
0.0371995
0.0415822
0.0459527
0.0502627
0.0544641
0.0585092
0.0623521
0.0659485
0.0692572
0.0722404
0.0748646
0.0771015
0.0789288
0.0803307
0.0812989
0.081833
0.0819409
0.0816387
0.0809511
0.0799105
0.0785544
0.0769246
0.0750783
0.0730783
0.0707875
0.0679454
0.0133702
0.00990538
0.00722548
0.00498621
0.00298818
0.00127977
-9.82335e-05
-0.00112319
-0.00177464
-0.00203503
-0.00189193
-0.00133842
-0.000373152
0.000999771
0.0027709
0.00492574
0.0074451
0.0103054
0.013479
0.0169347
0.0206376
0.0245503
0.0286324
0.0328415
0.0371331
0.0414614
0.0457796
0.0500404
0.0541963
0.0582007
0.062008
0.0655744
0.0688587
0.0718231
0.0744336
0.076661
0.0784817
0.0798783
0.08084
0.0813633
0.0814521
0.0811177
0.0803789
0.0792607
0.0777922
0.0760054
0.0739494
0.0716808
0.0690147
0.0656237
0.0152819
0.0112801
0.00822328
0.00570567
0.0034848
0.00160464
9.97177e-05
-0.00101607
-0.00173017
-0.00203182
-0.00191434
-0.00137563
-0.00041818
0.000950872
0.00271982
0.00487255
0.00738883
0.0102445
0.0134117
0.0168591
0.0205525
0.0244547
0.028526
0.0327246
0.0370067
0.0413273
0.0456399
0.0498978
0.0540539
0.0580618
0.0618757
0.0654518
0.0687483
0.0717266
0.0743516
0.0765928
0.0784247
0.0798275
0.0807877
0.0812983
0.0813594
0.0809777
0.0801665
0.0789449
0.077335
0.0753613
0.0730685
0.0705101
0.0674609
0.0635339
0.0168452
0.0123191
0.00888318
0.00607528
0.00361477
0.00154387
-0.000106923
-0.00133061
-0.00212118
-0.00247369
-0.00238667
-0.00186248
-0.000907381
0.000468396
0.0022507
0.00442154
0.00695929
0.00983881
0.0130317
0.0165063
0.0202283
0.0241605
0.0282635
0.0324957
0.0368136
0.0411723
0.0455255
0.0498265
0.0540281
0.0580835
0.0619464
0.0655722
0.068918
0.0719439
0.0746133
0.0768934
0.0787564
0.0801799
0.0811471
0.0816477
0.0816776
0.0812392
0.0803411
0.0789973
0.0772247
0.0750421
0.0724922
0.0696285
0.0661902
0.0617365
0.0180057
0.0129624
0.00914463
0.00603738
0.00332494
0.00104965
-0.000760301
-0.0021034
-0.00297907
-0.0033874
-0.00333157
-0.00281814
-0.00185702
-0.000461557
0.00135152
0.00356212
0.00614697
0.00907967
0.0123308
0.0158683
0.0196571
0.0236599
0.027837
0.0321468
0.0365455
0.040988
0.045428
0.0498182
0.0541107
0.058258
0.0622129
0.0659293
0.0693629
0.0724717
0.0752169
0.0775633
0.0794804
0.0809423
0.081929
0.0824263
0.0824262
0.081927
0.0809331
0.0794542
0.0775031
0.0750949
0.0722717
0.0690896
0.0652552
0.0602767
0.0187176
0.0131569
0.0089524
0.0055376
0.00256342
7.3681e-05
-0.00190457
-0.00337422
-0.00433928
-0.00480429
-0.00477666
-0.0042669
-0.0032885
-0.00185791
5.42538e-06
0.00227915
0.00493809
0.00795431
0.0112972
0.0149337
0.018828
0.0229422
0.0272361
0.0316675
0.0361924
0.0407649
0.0453381
0.0498639
0.0542936
0.0585782
0.0626691
0.0665185
0.0700798
0.0733089
0.0761641
0.0786071
0.0806041
0.0821258
0.0831483
0.0836534
0.0836292
0.0830699
0.081976
0.0803539
0.0782129
0.0755655
0.0724551
0.0689417
0.0647009
0.0591913
0.0189393
0.0128535
0.00825404
0.00452302
0.00127838
-0.00143362
-0.00358625
-0.00518611
-0.00624124
-0.00676018
-0.00675432
-0.00623797
-0.00522812
-0.00374441
-0.00180911
0.00055298
0.0033146
0.00644605
0.00991526
0.0136878
0.0177271
0.0219941
0.0264481
0.0310458
0.0357426
0.0404919
0.0452456
0.0499545
0.0545685
0.0590371
0.0633097
0.0673363
0.0710678
0.074457
0.0774591
0.0800323
0.0821389
0.0837456
0.0848244
0.0853528
0.0853147
0.0847005
0.0835068
0.081737
0.0793978
0.0765
0.073089
0.0692303
0.0645684
0.0585119
0.0186305
0.0120041
0.00699765
0.0029404
-0.000583205
-0.00352393
-0.00585478
-0.0075857
-0.00872845
-0.00929533
-0.00930158
-0.00876526
-0.00770692
-0.00614947
-0.00411813
-0.00164033
0.00125437
0.0045343
0.00816569
0.0121127
0.0163373
0.0207996
0.0254575
0.0302671
0.0351826
0.0401562
0.0451387
0.0500794
0.0549265
0.0596276
0.0641296
0.06838
0.0723267
0.0759191
0.0791085
0.0818493
0.0840992
0.0858205
0.0869805
0.0875523
0.0875152
0.0868554
0.0855661
0.0836476
0.0811044
0.0779461
0.074221
0.0700007
0.0648982
0.0582696
0.0177494
0.0105594
0.00512986
0.000734598
-0.00307684
-0.00625191
-0.00876311
-0.0106236
-0.0118487
-0.0124545
-0.0124601
-0.0118873
-0.0107605
-0.00910597
-0.00695202
-0.0043289
-0.00126869
0.00219475
0.00602575
0.0101868
0.0146384
0.0193394
0.0242465
0.0293145
0.0344965
0.0397433
0.0450042
0.050227
0.0553578
0.0603418
0.0651236
0.0696473
0.0738575
0.0776996
0.0811208
0.0840706
0.0865021
0.0883724
0.0896435
0.0902836
0.090267
0.0895756
0.0881986
0.0861335
0.0833826
0.0799545
0.075901
0.0713005
0.0657324
0.058497
0.0162504
0.00846691
0.00259402
-0.002153
-0.00626178
-0.0096763
-0.0123685
-0.0143547
-0.0156543
-0.016287
-0.0162761
-0.0156474
-0.0144291
-0.0126512
-0.0103454
-0.00754487
-0.00428452
-0.000600557
0.00346924
0.00788553
0.0126073
0.0175917
0.0227943
0.0281686
0.0336661
0.0392364
0.0448271
0.050384
0.0558511
0.0611712
0.0662858
0.0711355
0.0756611
0.0798036
0.0835054
0.0867109
0.0893674
0.0914263
0.0928439
0.0935825
0.0936111
0.0929066
0.091454
0.0892476
0.0862873
0.0825808
0.0781836
0.0731815
0.0671175
0.0592313
0.0140829
0.00566884
-0.000671461
-0.00578595
-0.0102022
-0.0138608
-0.0167332
-0.0188394
-0.0202028
-0.0208474
-0.0208008
-0.0200934
-0.0187574
-0.0168267
-0.0143368
-0.0113242
-0.00782669
-0.00388303
0.000466703
0.00518118
0.0102177
0.0155318
0.0210777
0.0268073
0.0326709
0.0386165
0.04459
0.0505352
0.0563938
0.0621057
0.0676092
0.0728413
0.0777384
0.0822366
0.0862729
0.0897859
0.0927166
0.0950098
0.0966153
0.0974888
0.097593
0.0968991
0.0953875
0.0930484
0.0898794
0.0858867
0.0811296
0.0757017
0.0691061
0.0605162
0.0111888
0.00210087
-0.00473467
-0.0102342
-0.0149687
-0.0188754
-0.0219256
-0.0241435
-0.0255571
-0.0261953
-0.0260905
-0.0252779
-0.0237943
-0.0216782
-0.0189689
-0.0157066
-0.0119322
-0.00768728
-0.00301437
0.00204312
0.00744065
0.0131323
0.0190706
0.0252063
0.031488
0.0378624
0.0442736
0.0506634
0.056971
0.0631334
0.0690855
0.0747604
0.0800895
0.0850038
0.0894342
0.0933127
0.0965733
0.0991533
0.100995
0.102046
0.102263
0.10161
0.10006
0.0976017
0.0942273
0.0899416
0.0848079
0.0789276
0.0717596
0.0624041
0.00750148
-0.00230966
-0.00967172
-0.0155753
-0.0206391
-0.024797
-0.0280208
-0.0303395
-0.0317865
-0.0323962
-0.0322066
-0.0312584
-0.0295936
-0.0272556
-0.024288
-0.020735
-0.0166411
-0.0120508
-0.00700916
-0.00156181
0.00424486
0.0103634
0.0167448
0.0233386
0.0300921
0.0369505
0.0438561
0.0507489
0.0575657
0.0642405
0.0707046
0.0768867
0.0827134
0.0881098
0.0930001
0.0973089
0.100962
0.103889
0.106023
0.107303
0.107677
0.1071
0.105542
0.102981
0.0994079
0.0948243
0.0892971
0.0829358
0.0751498
0.0649585
0.0029444
-0.00764524
-0.0155682
-0.0218963
-0.0273001
-0.0317111
-0.0351016
-0.0375069
-0.0389665
-0.0395214
-0.0392159
-0.0380971
-0.0362129
-0.0336121
-0.0303434
-0.0264553
-0.021996
-0.0170133
-0.011555
-0.00566881
0.00059696
0.00719332
0.0140701
0.0211755
0.0284558
0.0358548
0.0433136
0.05077
0.0581587
0.0654109
0.072454
0.0792125
0.0856076
0.0915579
0.0969806
0.101792
0.10591
0.109252
0.111743
0.113312
0.113896
0.113441
0.111908
0.109269
0.105509
0.100625
0.0946878
0.0878153
0.0793613
0.0682554
-0.00257083
-0.0139998
-0.022521
-0.0292947
-0.0350488
-0.0397124
-0.0432598
-0.0457332
-0.04718
-0.0476485
-0.0471907
-0.0458609
-0.0437139
-0.0408047
-0.0371876
-0.0329158
-0.0280416
-0.0226164
-0.0166906
-0.0103144
-0.00353763
0.00358921
0.0110149
0.0186867
0.0265501
0.0345479
0.04262
0.0507027
0.0587286
0.0666261
0.0743192
0.0817278
0.0887674
0.0953502
0.101385
0.10678
0.111442
0.115279
0.118202
0.12013
0.120987
0.120709
0.119245
0.116559
0.112629
0.107446
0.101085
0.0936698
0.0844938
0.0723866
-0.00914579
-0.0214804
-0.0306396
-0.0378803
-0.0439935
-0.0489067
-0.0525968
-0.0551149
-0.0565173
-0.0568617
-0.0562087
-0.0546212
-0.0521619
-0.0488929
-0.0448747
-0.0401659
-0.0348233
-0.0289019
-0.0224551
-0.0155352
-0.00819374
-0.000482267
0.00754717
0.0158413
0.0243451
0.0330009
0.0417478
0.0505211
0.0592517
0.0678654
0.0762831
0.08442
0.0921861
0.0994865
0.106222
0.11229
0.117586
0.122007
0.12545
0.127819
0.129024
0.128989
0.127649
0.124957
0.120881
0.115407
0.108608
0.10062
0.0906646
0.0774612
-0.0168971
-0.0302091
-0.0400484
-0.0477773
-0.0542561
-0.0594117
-0.0632251
-0.0657577
-0.0670772
-0.0672518
-0.066353
-0.0644534
-0.0616251
-0.0579382
-0.0534602
-0.0482557
-0.0423866
-0.0359115
-0.0288868
-0.021367
-0.0134051
-0.00505343
0.00363566
0.0126088
0.0218111
0.0311848
0.040669
0.0501985
0.0597029
0.0691063
0.0783264
0.0872744
0.0958546
0.103965
0.111497
0.118337
0.124369
0.129475
0.133538
0.136444
0.138088
0.138376
0.137227
0.134581
0.130394
0.124642
0.117399
0.108807
0.0980112
0.083609
-0.0259583
-0.0403253
-0.0508887
-0.059126
-0.0659737
-0.0713592
-0.0752691
-0.077778
-0.0789667
-0.0789165
-0.0777116
-0.0754364
-0.0721735
-0.0680024
-0.0629988
-0.0572339
-0.0507746
-0.0436839
-0.0360212
-0.0278428
-0.0192028
-0.010154
-0.000748597
0.00896066
0.0189195
0.0290713
0.0393555
0.0497073
0.0600561
0.0703245
0.0804279
0.0902738
0.099761
0.10878
0.117213
0.124936
0.131818
0.137725
0.142522
0.146078
0.148267
0.148973
0.148099
0.145566
0.141314
0.135306
0.127616
0.118393
0.106695
0.0909835
-0.0364821
-0.0519878
-0.0633213
-0.0720852
-0.0793005
-0.0848963
-0.0888671
-0.0913032
-0.0923017
-0.0919599
-0.0903769
-0.0876511
-0.0838777
-0.0791468
-0.0735433
-0.0671457
-0.0600268
-0.0522538
-0.0438889
-0.0349904
-0.0256129
-0.015809
-0.00563025
0.00487209
0.0156454
0.0266347
0.0377813
0.0490214
0.0602852
0.0714951
0.0825649
0.093399
0.103891
0.113925
0.123374
0.132099
0.139957
0.146796
0.15246
0.156796
0.159654
0.160896
0.160399
0.158063
0.153807
0.147579
0.139448
0.129569
0.116905
0.0997654
-0.0486432
-0.0653787
-0.0775296
-0.0868358
-0.0944109
-0.100188
-0.104172
-0.106473
-0.107207
-0.106492
-0.104445
-0.10118
-0.096807
-0.0914294
-0.0851417
-0.0780309
-0.0701759
-0.0616483
-0.0525132
-0.0428301
-0.0326539
-0.0220364
-0.0110273
0.000324427
0.0119688
0.0238538
0.0359235
0.0481168
0.0603657
0.0725936
0.0847141
0.0966294
0.108229
0.11939
0.129976
0.139837
0.148812
0.156729
0.163411
0.168679
0.172354
0.17427
0.174276
0.172241
0.168062
0.161664
0.15311
0.142557
0.12886
0.110167
-0.0626414
-0.0807062
-0.0937237
-0.103584
-0.111502
-0.117419
-0.121353
-0.123439
-0.123818
-0.122629
-0.120013
-0.116103
-0.111027
-0.104902
-0.0978344
-0.08992
-0.0812446
-0.0718842
-0.0619063
-0.0513715
-0.040334
-0.0288438
-0.016948
-0.00469225
0.00787768
0.020714
0.0337651
0.046974
0.0602761
0.0735975
0.0868528
0.0999436
0.112757
0.125163
0.137018
0.148157
0.158403
0.167564
0.175436
0.18181
0.186478
0.189235
0.189895
0.188295
0.184297
0.177799
0.168851
0.157614
0.142821
0.122436
-0.078706
-0.0982103
-0.112145
-0.122565
-0.130799
-0.136797
-0.140599
-0.142367
-0.142275
-0.14049
-0.137178
-0.132498
-0.126597
-0.119607
-0.11165
-0.102831
-0.093242
-0.0829638
-0.0720662
-0.0606095
-0.0486469
-0.0362255
-0.0233883
-0.0101761
0.00337071
0.0172103
0.0312971
0.04558
0.0599999
0.0744872
0.0889599
0.103321
0.117455
0.13123
0.144491
0.157063
0.168751
0.179339
0.188596
0.19628
0.202143
0.20594
0.207441
0.20644
0.202757
0.196254
0.186963
0.175041
0.159087
0.136865
-0.0971011
-0.118169
-0.133074
-0.14405
-0.152557
-0.158557
-0.162117
-0.163438
-0.16273
-0.160196
-0.156036
-0.150434
-0.143563
-0.135574
-0.126603
-0.116764
-0.106159
-0.0948709
-0.0829716
-0.0705208
-0.0575687
-0.0441584
-0.0303275
-0.0161102
-0.0015397
0.0133499
0.0285211
0.0439309
0.0595277
0.0752489
0.0910178
0.106741
0.122304
0.137573
0.152385
0.166556
0.17987
0.19209
0.202954
0.21218
0.219477
0.224552
0.22712
0.226921
0.223724
0.217342
0.207782
0.19519
0.178014
0.153795
-0.118133
-0.140906
-0.156835
-0.168355
-0.17707
-0.182964
-0.186139
-0.186845
-0.185339
-0.181869
-0.176672
-0.169969
-0.161958
-0.152812
-0.142683
-0.131697
-0.119962
-0.107565
-0.0945779
-0.0810585
-0.0670529
-0.0525983
-0.037725
-0.022459
-0.00682411
0.00915538
0.0254524
0.0420343
0.0588598
0.0758757
0.0930139
0.110187
0.127286
0.144174
0.160688
0.176631
0.191773
0.205849
0.218567
0.229602
0.238613
0.245248
0.249157
0.250015
0.247521
0.241429
0.231704
0.218476
0.20002
0.17363
-0.142159
-0.166803
-0.183814
-0.195848
-0.204677
-0.210318
-0.212921
-0.212796
-0.210262
-0.205623
-0.199162
-0.191141
-0.181788
-0.171303
-0.159853
-0.147577
-0.134588
-0.120976
-0.106811
-0.0921481
-0.0770265
-0.0614757
-0.0455167
-0.0291651
-0.012433
0.0046675
0.0221222
0.0399117
0.0580077
0.0763699
0.0949418
0.113646
0.132381
0.151015
0.169382
0.18728
0.204462
0.220642
0.235491
0.24864
0.25969
0.26822
0.273804
0.276032
0.274519
0.268935
0.259191
0.245388
0.225599
0.196844
-0.169602
-0.196316
-0.214466
-0.226962
-0.235772
-0.240961
-0.242743
-0.241511
-0.237661
-0.231562
-0.22356
-0.213961
-0.203032
-0.190996
-0.178041
-0.164315
-0.149938
-0.134998
-0.119564
-0.103683
-0.0873858
-0.0706924
-0.0536118
-0.0361463
-0.0182942
-5.25259e-05
0.0185801
0.0376004
0.0569965
0.0767444
0.0968029
0.117109
0.137574
0.158073
0.178445
0.198484
0.217934
0.236484
0.253772
0.269382
0.282848
0.293671
0.301334
0.305321
0.30514
0.300353
0.290793
0.27651
0.255343
0.224002
-0.200968
-0.229994
-0.249341
-0.262213
-0.270816
-0.275282
-0.275917
-0.273221
-0.267687
-0.259772
-0.249891
-0.238406
-0.225623
-0.211796
-0.197128
-0.181779
-0.165869
-0.149485
-0.132689
-0.115518
-0.0979925
-0.0801184
-0.0618898
-0.0432936
-0.024311
-0.00492142
0.0148952
0.0351548
0.0558654
0.077023
0.0986066
0.120572
0.142848
0.165324
0.187848
0.210218
0.23217
0.253378
0.273445
0.291905
0.308225
0.321814
0.332044
0.338275
0.339873
0.336261
0.327159
0.31254
0.289963
0.255782
-0.236875
-0.268511
-0.28911
-0.302225
-0.31035
-0.313725
-0.31278
-0.308157
-0.300478
-0.290305
-0.278136
-0.264398
-0.249442
-0.23355
-0.216941
-0.199781
-0.182187
-0.164242
-0.145995
-0.12747
-0.108672
-0.08959
-0.0702002
-0.0504703
-0.030362
-0.0098337
0.0111562
0.0326461
0.0546676
0.0772409
0.10037
0.124034
0.148186
0.172737
0.197552
0.222438
0.247134
0.271304
0.294521
0.316271
0.335948
0.352861
0.366253
0.375328
0.379277
0.377336
0.369067
0.354326
0.330325
0.293005
-0.278086
-0.31271
-0.334608
-0.347754
-0.355018
-0.356795
-0.353696
-0.346549
-0.33614
-0.323163
-0.308217
-0.291797
-0.274302
-0.25604
-0.237242
-0.218073
-0.198644
-0.179023
-0.159244
-0.139312
-0.119212
-0.0989101
-0.0783622
-0.0575132
-0.036302
-0.0146632
0.00746948
0.0301604
0.0534683
0.0774416
0.102114
0.127495
0.153568
0.180273
0.207502
0.235082
0.262766
0.290213
0.316981
0.342511
0.366123
0.387018
0.404291
0.416959
0.423991
0.424378
0.417459
0.402909
0.3775
0.336677
-0.32557
-0.363664
-0.386881
-0.39973
-0.405582
-0.405066
-0.399045
-0.388601
-0.374728
-0.358281
-0.339972
-0.320373
-0.299927
-0.278962
-0.257713
-0.236336
-0.214926
-0.193528
-0.172151
-0.150777
-0.129363
-0.10785
-0.086168
-0.0642359
-0.0419662
-0.0192669
0.00395583
0.0277954
0.0523411
0.077674
0.103862
0.130953
0.158965
0.187879
0.217624
0.24806
0.278965
0.310014
0.340758
0.370607
0.398812
0.424462
0.446489
0.463686
0.474744
0.478331
0.473476
0.459576
0.432827
0.388054
-0.380582
-0.422769
-0.447272
-0.459312
-0.462951
-0.459175
-0.449209
-0.434469
-0.416214
-0.395487
-0.373128
-0.349784
-0.325935
-0.301917
-0.277953
-0.254177
-0.230654
-0.207398
-0.184383
-0.161557
-0.138844
-0.116155
-0.0933886
-0.0704344
-0.0471757
-0.0234911
0.000743653
0.0256535
0.0513617
0.0779856
0.105633
0.134393
0.164332
0.195478
0.22781
0.261238
0.295583
0.330554
0.365718
0.40047
0.434011
0.465321
0.493154
0.516049
0.532353
0.540312
0.538519
0.525949
0.498014
0.448731
-0.444793
-0.491878
-0.517524
-0.527946
-0.528201
-0.519822
-0.504542
-0.48422
-0.46044
-0.434465
-0.407264
-0.379549
-0.351817
-0.324391
-0.297461
-0.27112
-0.245386
-0.220224
-0.195565
-0.171312
-0.14735
-0.123552
-0.0997819
-0.0758965
-0.0517469
-0.0271802
-0.0020396
0.0238337
0.0505992
0.078414
0.107429
0.137785
0.169599
0.20296
0.237911
0.274429
0.312402
0.351597
0.391626
0.431905
0.471606
0.509621
0.544529
0.574585
0.597718
0.611633
0.614312
0.604098
0.575285
0.520782
-0.520498
-0.573515
-0.59994
-0.607452
-0.602595
-0.587732
-0.565309
-0.53776
-0.507059
-0.474699
-0.441768
-0.409012
-0.376913
-0.345745
-0.315636
-0.286609
-0.258614
-0.231551
-0.20529
-0.179681
-0.154562
-0.129762
-0.105105
-0.0804137
-0.0555035
-0.0301886
-0.00427876
0.0224202
0.0501056
0.0789768
0.109232
0.141066
0.174658
0.210168
0.247718
0.287371
0.329109
0.372792
0.418117
0.464561
0.511319
0.557234
0.60073
0.639767
0.671792
0.693818
0.70299
0.696701
0.667598
0.606982
-0.610954
-0.671199
-0.697597
-0.700116
-0.687573
-0.663593
-0.631599
-0.594745
-0.555441
-0.515399
-0.475779
-0.437306
-0.400389
-0.365204
-0.331773
-0.300014
-0.269781
-0.240889
-0.213133
-0.186297
-0.160165
-0.134515
-0.109131
-0.0837956
-0.0582899
-0.0323941
-0.00588393
0.0214699
0.0499033
0.0796588
0.110985
0.144133
0.179353
0.216885
0.256945
0.299707
0.345275
0.393642
0.444642
0.497877
0.552633
0.607777
0.661641
0.711911
0.755508
0.788598
0.807194
0.807271
0.77899
0.711169
-0.720976
-0.789957
-0.81465
-0.808772
-0.784698
-0.747919
-0.703162
-0.654426
-0.604557
-0.555414
-0.508132
-0.463321
-0.421227
-0.381859
-0.345074
-0.310644
-0.278297
-0.247738
-0.218671
-0.190807
-0.163864
-0.13757
-0.111663
-0.0858865
-0.0599871
-0.0337119
-0.00680417
0.0209997
0.0499728
0.0804005
0.112582
0.146828
0.183464
0.222818
0.265216
0.310963
0.36032
0.413459
0.470415
0.530997
0.594686
0.660488
0.726762
0.791012
0.849645
0.897845
0.930152
0.940466
0.915111
0.838876
-0.858024
-0.937146
-0.956726
-0.93685
-0.895482
-0.840804
-0.779159
-0.715441
-0.652817
-0.593123
-0.537295
-0.485671
-0.438216
-0.394672
-0.354666
-0.317775
-0.283564
-0.25161
-0.221512
-0.192895
-0.165411
-0.138733
-0.112555
-0.0865817
-0.0605276
-0.0341092
-0.00704011
0.0209743
0.0502417
0.0810875
0.113859
0.148929
0.186696
0.227586
0.272045
0.320531
0.373491
0.43133
0.494354
0.562687
0.636142
0.714043
0.794977
0.876471
0.954555
1.02339
1.07572
1.10249
1.08408
0.998486
-1.03428
-1.12375
-1.13138
-1.08827
-1.02103
-0.941487
-0.857784
-0.775527
-0.697882
-0.62633
-0.561318
-0.502692
-0.449969
-0.402512
-0.359641
-0.320685
-0.285018
-0.252069
-0.221321
-0.192312
-0.164624
-0.137879
-0.111728
-0.085843
-0.0599087
-0.033616
-0.00665387
0.0212983
0.0505776
0.0815446
0.114591
0.150146
0.188682
0.230721
0.276838
0.327658
0.383844
0.446081
0.515029
0.591243
0.67505
0.766336
0.864242
0.966693
1.06971
1.16665
1.24827
1.30157
1.29781
1.20342
-1.27087
-1.36639
-1.34842
-1.2669
-1.16121
-1.04761
-0.935686
-0.831136
-0.736444
-0.652158
-0.577812
-0.51246
-0.454972
-0.404209
-0.359107
-0.318707
-0.282169
-0.248762
-0.217855
-0.188898
-0.161412
-0.13497
-0.109188
-0.0837105
-0.0582013
-0.0323321
-0.00577381
0.0218128
0.0507868
0.0815364
0.114489
0.150124
0.188979
0.23167
0.278896
0.331454
0.390244
0.456271
0.530618
0.614405
0.708675
0.814201
0.931139
1.05845
1.19289
1.32774
1.45209
1.5482
1.5741
1.47666
-1.60667
-1.69031
-1.61932
-1.47487
-1.31295
-1.15379
-1.00703
-0.876883
-0.763941
-0.666943
-0.583937
-0.512828
-0.451638
-0.398613
-0.352248
-0.311277
-0.274641
-0.241457
-0.210986
-0.182606
-0.155785
-0.130061
-0.105025
-0.0803045
-0.0555508
-0.030426
-0.00459251
0.0222986
0.0506185
0.0807725
0.113213
0.148454
0.18709
0.229811
0.277431
0.33091
0.391383
0.46019
0.538894
0.629283
0.73333
0.85306
0.990253
1.14583
1.31865
1.50356
1.68957
1.85458
1.93961
1.85982
-2.11355
-2.13309
-1.95541
-1.70948
-1.46744
-1.24987
-1.06248
-0.90511
-0.774466
-0.666314
-0.576551
-0.501595
-0.43846
-0.384719
-0.338423
-0.29801
-0.262231
-0.230078
-0.20073
-0.173514
-0.147867
-0.123308
-0.0994187
-0.0758226
-0.0521704
-0.0281261
-0.00335435
0.0224919
0.0497839
0.0789307
0.110394
0.144708
0.182497
0.224507
0.271636
0.324977
0.385873
0.455977
0.53733
0.632447
0.744384
0.876766
1.03368
1.21925
1.43648
1.68505
1.95798
2.23265
2.43346
2.4284
-2.92215
-2.74473
-2.36424
-1.96115
-1.60913
-1.32077
-1.08994
-0.906941
-0.76189
-0.646228
-0.553107
-0.477241
-0.414605
-0.362147
-0.31754
-0.278999
-0.245145
-0.214895
-0.187391
-0.161942
-0.13798
-0.115028
-0.0926764
-0.0705605
-0.048344
-0.0257053
-0.00232345
0.0221345
0.0480263
0.0757494
0.105757
0.13858
0.174849
0.215329
0.26096
0.312916
0.37268
0.442147
0.523763
0.620716
0.737172
0.878572
1.05192
1.26593
1.53064
1.85595
2.24708
2.69004
3.10657
3.31656
-4.32906
-3.56553
-2.82148
-2.19631
-1.70751
-1.34267
-1.07308
-0.872104
-0.720138
-0.603335
-0.51195
-0.439133
-0.380039
-0.331195
-0.290073
-0.254799
-0.223961
-0.196481
-0.171517
-0.148403
-0.1266
-0.105659
-0.0851979
-0.0648812
-0.0443998
-0.023459
-0.00176476
0.0209887
0.0451323
0.0710357
0.0991246
0.129901
0.16397
0.202073
0.245137
0.294339
0.351198
0.417714
0.496557
0.59137
0.707199
0.851149
1.0333
1.26795
1.57532
1.98312
2.52117
3.20009
3.99896
4.82889
-7.16394
-4.5645
-3.14599
-2.26079
-1.65481
-1.24557
-0.967584
-0.772583
-0.631177
-0.525652
-0.444809
-0.381341
-0.330361
-0.288511
-0.253414
-0.223351
-0.197047
-0.173542
-0.152093
-0.132118
-0.11315
-0.094804
-0.0767532
-0.0587112
-0.0404157
-0.0216164
-0.00206216
0.0185084
0.0403803
0.0638744
0.089362
0.117284
0.148176
0.182696
0.221677
0.26618
0.317597
0.377779
0.44926
0.535588
0.641883
0.775769
0.948907
1.17969
1.49852
1.9557
2.62076
3.57834
5.08292
7.80113
-12.0323
-5.64734
-2.98187
-1.88447
-1.28929
-0.936634
-0.719024
-0.57504
-0.473412
-0.398299
-0.340824
-0.295565
-0.259016
-0.228795
-0.203222
-0.181074
-0.16144
-0.143631
-0.127111
-0.111462
-0.0963461
-0.0814856
-0.0666455
-0.0516187
-0.0362152
-0.020252
-0.00354498
0.0141013
0.0329006
0.053096
0.0749703
0.0988604
0.125174
0.154415
0.187211
0.224363
0.266907
0.316214
0.374143
0.443291
0.527438
0.632356
0.767398
0.949007
1.20919
1.61181
2.27346
3.4658
6.24811
12.7583
)
;

boundaryField
{
    movingWall
    {
        type            zeroGradient;
    }
    fixedWalls
    {
        type            zeroGradient;
    }
    frontAndBack
    {
        type            empty;
    }
}


// ************************************************************************* //
