/*--------------------------------*- C++ -*----------------------------------*\
  =========                 |
  \\      /  F ield         | OpenFOAM: The Open Source CFD Toolbox
   \\    /   O peration     | Website:  https://openfoam.org
    \\  /    A nd           | Version:  7
     \\/     M anipulation  |
\*---------------------------------------------------------------------------*/
FoamFile
{
    version     2.0;
    format      ascii;
    class       volScalarField;
    location    "0.003";
    object      p;
}
// * * * * * * * * * * * * * * * * * * * * * * * * * * * * * * * * * * * * * //

dimensions      [0 2 -2 0 0 0 0];

internalField   nonuniform List<scalar> 
2500
(
6.28696e-08
6.35905
8.98671
10.0457
10.6114
10.9481
11.1641
11.3196
11.444
11.5504
11.6457
11.7331
11.8148
11.892
11.9654
12.0357
12.1034
12.169
12.2328
12.2951
12.3563
12.4165
12.4759
12.5348
12.5935
12.6519
12.7104
12.7692
12.8284
12.8883
12.9491
13.0111
13.0745
13.1399
13.2076
13.2782
13.3524
13.431
13.5154
13.6073
13.7095
13.8263
13.9659
14.1431
14.3891
14.7672
15.3951
16.5476
19.2906
25.7689
4.89217
7.46683
8.85613
9.71407
10.2997
10.6987
10.9775
11.1836
11.345
11.4777
11.5914
11.692
11.783
11.867
11.9455
12.0198
12.0906
12.1586
12.2244
12.2884
12.3509
12.4124
12.4729
12.5329
12.5924
12.6518
12.7113
12.771
12.8313
12.8923
12.9543
13.0178
13.083
13.1505
13.2209
13.2949
13.3735
13.4581
13.5506
13.6539
13.7723
13.9126
14.0856
14.3092
14.6136
15.0498
15.689
16.6187
18.094
20.7798
7.76556
8.4987
9.21552
9.81749
10.2895
10.6466
10.918
11.1297
11.3
11.4416
11.5628
11.6693
11.7651
11.8527
11.934
12.0105
12.083
12.1525
12.2194
12.2844
12.3478
12.41
12.4712
12.5317
12.5919
12.6518
12.7118
12.7721
12.8329
12.8946
12.9574
13.0217
13.0879
13.1566
13.2284
13.3042
13.3851
13.4726
13.5689
13.677
13.8014
13.9486
14.1284
14.3548
14.6487
15.0384
15.5554
16.2118
16.9838
17.7739
9.2118
9.35514
9.70821
10.09
10.4267
10.7084
10.9411
11.134
11.296
11.4345
11.5551
11.6621
11.7587
11.8472
11.9294
12.0067
12.0799
12.1499
12.2174
12.2828
12.3465
12.409
12.4705
12.5313
12.5917
12.6519
12.7122
12.7727
12.8338
12.8958
12.9589
13.0235
13.0902
13.1593
13.2316
13.3079
13.3894
13.4775
13.5743
13.6823
13.8054
13.9488
14.1192
14.3256
14.5787
14.8889
15.2624
15.6848
16.0727
16.2391
10.0531
9.9979
10.15
10.3772
10.6061
10.8179
11.0071
11.1735
11.3196
11.4486
11.5636
11.6673
11.762
11.8493
11.9308
12.0076
12.0806
12.1504
12.2178
12.2831
12.3468
12.4093
12.4708
12.5316
12.592
12.6522
12.7125
12.7731
12.8342
12.8962
12.9593
13.0239
13.0905
13.1595
13.2316
13.3076
13.3884
13.4755
13.5704
13.6753
13.7931
13.9271
14.0817
14.2611
14.4688
14.705
14.9627
15.2185
15.3909
15.3407
10.5816
10.4647
10.5135
10.6425
10.794
10.9488
11.0978
11.2365
11.3636
11.4798
11.586
11.6838
11.7742
11.8587
11.938
12.0133
12.0851
12.154
12.2207
12.2855
12.3488
12.4109
12.4721
12.5326
12.5928
12.6528
12.7128
12.7732
12.8341
12.8958
12.9586
13.0228
13.0888
13.1572
13.2284
13.3032
13.3824
13.467
13.5584
13.658
13.7678
13.8896
14.0255
14.1766
14.3421
14.5168
14.6897
14.8376
14.8967
14.7758
10.9283
10.8052
10.8053
10.8751
10.9733
11.0845
11.1996
11.3126
11.4207
11.5229
11.6189
11.7091
11.7939
11.8742
11.9504
12.0232
12.0931
12.1605
12.226
12.2898
12.3523
12.4137
12.4743
12.5343
12.594
12.6535
12.7131
12.773
12.8334
12.8946
12.9567
13.0202
13.0854
13.1526
13.2224
13.2952
13.3718
13.453
13.5396
13.6325
13.7328
13.8412
13.9581
14.0826
14.2116
14.3384
14.4518
14.5333
14.5377
14.4073
11.1679
11.0579
11.0373
11.0723
11.1352
11.2145
11.3025
11.3937
11.4844
11.573
11.6585
11.7405
11.8191
11.8944
11.9668
12.0365
12.104
12.1695
12.2333
12.2958
12.3571
12.4175
12.4773
12.5366
12.5956
12.6544
12.7134
12.7726
12.8322
12.8926
12.9539
13.0163
13.0802
13.1458
13.2136
13.284
13.3574
13.4344
13.5154
13.6009
13.6912
13.7863
13.8854
13.9866
14.086
14.177
14.2502
14.2923
14.2725
14.1551
11.3423
11.2498
11.2219
11.2373
11.2771
11.3338
11.4011
11.4743
11.5501
11.6264
11.7019
11.7758
11.8479
11.918
11.9861
12.0524
12.1171
12.1803
12.2422
12.3031
12.363
12.4223
12.481
12.5393
12.5974
12.6554
12.7135
12.7718
12.8306
12.8899
12.95
13.0111
13.0734
13.1372
13.2026
13.2701
13.3399
13.4122
13.4873
13.5652
13.6457
13.7283
13.8116
13.8934
13.9698
14.035
14.0817
14.101
14.0725
13.9736
11.4751
11.3991
11.3704
11.3748
11.4
11.4407
11.4925
11.5514
11.6147
11.6802
11.7466
11.8129
11.8787
11.9436
12.0074
12.0702
12.1319
12.1925
12.2524
12.3114
12.3698
12.4277
12.4851
12.5423
12.5993
12.6563
12.7134
12.7707
12.8284
12.8865
12.9453
13.0048
13.0653
13.1269
13.1898
13.2541
13.32
13.3875
13.4566
13.5271
13.5985
13.6699
13.7398
13.8059
13.8647
13.9116
13.9413
13.9478
13.9179
13.8368
11.5802
11.5181
11.4912
11.4899
11.5057
11.5353
11.5755
11.6233
11.6762
11.7326
11.791
11.8505
11.9104
11.9702
12.0298
12.089
12.1476
12.2057
12.2633
12.3204
12.3771
12.4335
12.4896
12.5456
12.6014
12.6573
12.7132
12.7693
12.8257
12.8825
12.9398
12.9976
13.0561
13.1154
13.1756
13.2366
13.2986
13.3613
13.4247
13.4882
13.5514
13.6131
13.6718
13.7254
13.7711
13.8051
13.8239
13.8236
13.7955
13.7295
11.666
11.615
11.5908
11.5867
11.5965
11.6184
11.65
11.6891
11.7338
11.7825
11.8339
11.8873
11.9418
11.997
12.0526
12.1083
12.1639
12.2194
12.2747
12.3298
12.3848
12.4396
12.4943
12.5489
12.6035
12.6581
12.7128
12.7677
12.8227
12.8781
12.9337
12.9898
13.0462
13.1031
13.1605
13.2182
13.2763
13.3345
13.3924
13.4497
13.5056
13.559
13.6086
13.6525
13.6883
13.7135
13.7253
13.7217
13.6964
13.6425
11.7378
11.6954
11.674
11.6685
11.6746
11.6911
11.7163
11.7487
11.7867
11.8291
11.8746
11.9226
11.9723
12.0233
12.0751
12.1275
12.1802
12.2332
12.2863
12.3394
12.3926
12.4458
12.499
12.5522
12.6055
12.6588
12.7123
12.7658
12.8195
12.8733
12.9273
12.9815
13.0358
13.0904
13.1449
13.1995
13.2539
13.3078
13.3608
13.4125
13.4621
13.5086
13.5508
13.5871
13.6157
13.6346
13.6421
13.6369
13.6146
13.5701
11.7988
11.763
11.7441
11.7381
11.7419
11.7545
11.7751
11.8023
11.8349
11.872
11.9126
11.9559
12.0014
12.0486
12.0969
12.1463
12.1963
12.2468
12.2977
12.3489
12.4004
12.452
12.5037
12.5555
12.6075
12.6595
12.7116
12.7638
12.816
12.8683
12.9207
12.973
13.0253
13.0775
13.1294
13.1809
13.2319
13.2819
13.3305
13.3773
13.4215
13.4623
13.4985
13.5289
13.5521
13.5667
13.5714
13.5656
13.546
13.5087
11.8512
11.8203
11.8036
11.7976
11.7998
11.8097
11.8267
11.8499
11.8783
11.9111
11.9475
11.9869
12.0287
12.0724
12.1177
12.1642
12.2117
12.26
12.3088
12.3582
12.4079
12.458
12.5082
12.5587
12.6093
12.66
12.7108
12.7617
12.8125
12.8633
12.914
12.9645
13.0148
13.0648
13.1142
13.1629
13.2107
13.2572
13.302
13.3445
13.3842
13.4202
13.4517
13.4776
13.4968
13.5082
13.5112
13.5053
13.488
13.4561
11.8962
11.8692
11.8542
11.8484
11.8496
11.8576
11.872
11.892
11.917
11.9463
11.9792
12.0153
12.0539
12.0946
12.1371
12.1811
12.2263
12.2725
12.3194
12.367
12.4152
12.4637
12.5126
12.5617
12.611
12.6605
12.71
12.7595
12.809
12.8583
12.9075
12.9563
13.0047
13.0526
13.0997
13.1459
13.1908
13.2342
13.2755
13.3145
13.3503
13.3825
13.4101
13.4325
13.4487
13.458
13.4598
13.4541
13.4387
13.4108
11.935
11.9109
11.8974
11.8918
11.8923
11.8989
11.9113
11.9289
11.9512
11.9776
12.0077
12.0409
12.0767
12.1149
12.155
12.1967
12.2398
12.2841
12.3293
12.3753
12.4219
12.4691
12.5166
12.5645
12.6126
12.6609
12.7092
12.7575
12.8056
12.8536
12.9012
12.9485
12.9951
13.0411
13.0861
13.13
13.1724
13.213
13.2515
13.2873
13.3201
13.349
13.3737
13.3933
13.4072
13.4149
13.416
13.4104
13.3966
13.3719
11.9683
11.9464
11.934
11.9287
11.9288
11.9343
11.9452
11.9609
11.981
12.0051
12.0328
12.0636
12.0972
12.1331
12.1711
12.2109
12.2522
12.2947
12.3384
12.3829
12.4281
12.474
12.5204
12.5671
12.6141
12.6612
12.7083
12.7555
12.8024
12.8491
12.8954
12.9412
12.9863
13.0305
13.0736
13.1154
13.1557
13.1939
13.2299
13.2632
13.2933
13.3198
13.342
13.3594
13.3716
13.3781
13.3787
13.3735
13.3608
13.3385
11.9964
11.9763
11.9648
11.9597
11.9596
11.9644
11.974
11.9882
12.0066
12.0289
12.0546
12.0835
12.1151
12.1492
12.1854
12.2235
12.2632
12.3042
12.3465
12.3897
12.4337
12.4785
12.5237
12.5694
12.6153
12.6614
12.7076
12.7536
12.7995
12.845
12.8901
12.9346
12.9783
13.0209
13.0624
13.1025
13.1408
13.1771
13.211
13.2422
13.2702
13.2945
13.3148
13.3306
13.3415
13.3471
13.3474
13.3424
13.3307
13.3102
12.02
12.0012
11.9904
11.9855
11.9852
11.9894
11.9982
12.0112
12.0283
12.0491
12.0732
12.1005
12.1305
12.1631
12.1978
12.2344
12.2727
12.3125
12.3536
12.3957
12.4386
12.4824
12.5266
12.5714
12.6164
12.6616
12.7068
12.752
12.7969
12.8414
12.8854
12.9287
12.9712
13.0126
13.0527
13.0912
13.128
13.1626
13.1948
13.2242
13.2505
13.2732
13.2919
13.3064
13.3163
13.3213
13.3214
13.3166
13.3056
13.2866
12.0392
12.0215
12.0112
12.0065
12.006
12.0098
12.0179
12.0301
12.0461
12.0657
12.0886
12.1146
12.1434
12.1747
12.2081
12.2436
12.2808
12.3195
12.3596
12.4007
12.4428
12.4857
12.5291
12.5731
12.6173
12.6617
12.7062
12.7505
12.7946
12.8383
12.8814
12.9238
12.9652
13.0055
13.0444
13.0817
13.1172
13.1504
13.1813
13.2093
13.2342
13.2556
13.2732
13.2867
13.2958
13.3003
13.3002
13.2956
13.2853
13.2673
12.0543
12.0373
12.0275
12.0229
12.0223
12.0259
12.0335
12.045
12.0602
12.0789
12.1009
12.1259
12.1537
12.1839
12.2165
12.251
12.2873
12.3252
12.3644
12.4048
12.4462
12.4883
12.5311
12.5744
12.618
12.6618
12.7057
12.7494
12.7928
12.8358
12.8781
12.9197
12.9603
12.9997
13.0377
13.0741
13.1085
13.1407
13.1704
13.1974
13.2212
13.2417
13.2584
13.2712
13.2797
13.2839
13.2837
13.2792
13.2693
13.2522
12.0654
12.0491
12.0396
12.0351
12.0344
12.0377
12.045
12.056
12.0707
12.0888
12.1101
12.1343
12.1614
12.1909
12.2227
12.2566
12.2922
12.3295
12.3681
12.4079
12.4487
12.4904
12.5327
12.5755
12.6186
12.6619
12.7052
12.7484
12.7914
12.8338
12.8756
12.9166
12.9566
12.9954
13.0327
13.0683
13.1019
13.1334
13.1623
13.1885
13.2116
13.2313
13.2474
13.2596
13.2678
13.2718
13.2715
13.2671
13.2575
13.2409
12.0728
12.0568
12.0475
12.0431
12.0424
12.0456
12.0526
12.0633
12.0776
12.0953
12.1161
12.14
12.1665
12.1956
12.2269
12.2603
12.2955
12.3323
12.3705
12.41
12.4504
12.4917
12.5337
12.5762
12.619
12.6619
12.705
12.7478
12.7904
12.8325
12.8739
12.9145
12.9541
12.9924
13.0293
13.0644
13.0976
13.1285
13.1569
13.1826
13.2052
13.2244
13.2401
13.252
13.2599
13.2637
13.2634
13.2591
13.2497
13.2335
12.0765
12.0607
12.0514
12.047
12.0463
12.0495
12.0564
12.0669
12.0811
12.0985
12.1192
12.1428
12.1691
12.1979
12.229
12.2622
12.2972
12.3338
12.3718
12.411
12.4513
12.4924
12.5342
12.5765
12.6191
12.662
12.7048
12.7475
12.7899
12.8318
12.8731
12.9135
12.9529
12.991
13.0276
13.0625
13.0954
13.126
13.1542
13.1796
13.202
13.221
13.2365
13.2482
13.256
13.2598
13.2594
13.2551
13.2458
13.2298
12.0765
12.0607
12.0514
12.047
12.0463
12.0495
12.0564
12.067
12.0811
12.0985
12.1192
12.1428
12.1691
12.1979
12.229
12.2622
12.2972
12.3338
12.3718
12.411
12.4513
12.4924
12.5342
12.5765
12.6191
12.662
12.7048
12.7475
12.7899
12.8318
12.8731
12.9135
12.9529
12.991
13.0276
13.0625
13.0954
13.126
13.1542
13.1796
13.202
13.221
13.2365
13.2482
13.256
13.2597
13.2594
13.2551
13.2458
13.2298
12.0728
12.0568
12.0475
12.0431
12.0424
12.0456
12.0526
12.0633
12.0776
12.0953
12.1161
12.14
12.1665
12.1956
12.2269
12.2603
12.2955
12.3323
12.3705
12.41
12.4504
12.4917
12.5337
12.5761
12.619
12.6619
12.705
12.7478
12.7904
12.8325
12.8739
12.9145
12.9541
12.9924
13.0293
13.0644
13.0976
13.1285
13.1569
13.1826
13.2052
13.2244
13.2401
13.252
13.2599
13.2637
13.2634
13.2591
13.2497
13.2335
12.0654
12.0491
12.0396
12.0351
12.0344
12.0377
12.045
12.056
12.0707
12.0888
12.1101
12.1344
12.1614
12.1909
12.2227
12.2566
12.2922
12.3295
12.3681
12.4079
12.4487
12.4904
12.5327
12.5755
12.6186
12.6619
12.7052
12.7484
12.7913
12.8338
12.8756
12.9166
12.9566
12.9953
13.0327
13.0683
13.1019
13.1334
13.1623
13.1885
13.2116
13.2313
13.2474
13.2596
13.2678
13.2717
13.2715
13.2671
13.2575
13.2409
12.0543
12.0373
12.0275
12.0229
12.0224
12.0259
12.0335
12.045
12.0602
12.0789
12.1009
12.1259
12.1537
12.1839
12.2165
12.251
12.2873
12.3252
12.3644
12.4048
12.4462
12.4883
12.5311
12.5744
12.618
12.6618
12.7056
12.7493
12.7928
12.8357
12.8781
12.9197
12.9603
12.9997
13.0377
13.074
13.1085
13.1407
13.1704
13.1974
13.2212
13.2416
13.2584
13.2711
13.2797
13.2839
13.2837
13.2792
13.2693
13.2521
12.0392
12.0215
12.0112
12.0065
12.006
12.0098
12.0179
12.0301
12.0461
12.0657
12.0887
12.1146
12.1434
12.1747
12.2081
12.2436
12.2808
12.3195
12.3596
12.4007
12.4428
12.4857
12.5291
12.5731
12.6173
12.6617
12.7062
12.7505
12.7946
12.8383
12.8814
12.9237
12.9652
13.0055
13.0444
13.0817
13.1171
13.1504
13.1812
13.2093
13.2341
13.2556
13.2732
13.2867
13.2958
13.3003
13.3002
13.2956
13.2852
13.2673
12.02
12.0012
11.9904
11.9855
11.9852
11.9894
11.9982
12.0112
12.0283
12.0491
12.0733
12.1005
12.1306
12.1631
12.1978
12.2344
12.2727
12.3125
12.3536
12.3957
12.4386
12.4824
12.5266
12.5714
12.6164
12.6616
12.7068
12.7519
12.7969
12.8414
12.8854
12.9287
12.9712
13.0126
13.0526
13.0912
13.1279
13.1626
13.1948
13.2242
13.2504
13.2731
13.2919
13.3064
13.3163
13.3213
13.3213
13.3165
13.3056
13.2866
11.9964
11.9764
11.9648
11.9597
11.9596
11.9644
11.974
11.9883
12.0067
12.0289
12.0547
12.0835
12.1151
12.1492
12.1854
12.2235
12.2632
12.3042
12.3465
12.3897
12.4337
12.4785
12.5237
12.5694
12.6153
12.6614
12.7075
12.7536
12.7995
12.845
12.8901
12.9346
12.9782
13.0209
13.0624
13.1025
13.1408
13.1771
13.211
13.2422
13.2701
13.2945
13.3148
13.3306
13.3414
13.3471
13.3474
13.3423
13.3307
13.3102
11.9683
11.9464
11.934
11.9287
11.9288
11.9344
11.9452
11.9609
11.981
12.0051
12.0328
12.0636
12.0972
12.1331
12.1711
12.2109
12.2522
12.2947
12.3383
12.3829
12.4281
12.474
12.5204
12.5671
12.614
12.6612
12.7083
12.7554
12.8024
12.8491
12.8954
12.9412
12.9863
13.0305
13.0736
13.1154
13.1556
13.1939
13.2299
13.2632
13.2933
13.3197
13.3419
13.3594
13.3716
13.3781
13.3787
13.3734
13.3608
13.3385
11.9351
11.9109
11.8974
11.8918
11.8924
11.899
11.9113
11.9289
11.9512
11.9776
12.0077
12.0409
12.0767
12.1149
12.155
12.1967
12.2398
12.2841
12.3293
12.3753
12.4219
12.4691
12.5166
12.5645
12.6126
12.6609
12.7092
12.7574
12.8056
12.8536
12.9012
12.9485
12.9951
13.0411
13.0861
13.1299
13.1723
13.213
13.2515
13.2873
13.32
13.349
13.3736
13.3932
13.4072
13.4148
13.4159
13.4104
13.3965
13.3718
11.8963
11.8692
11.8542
11.8484
11.8496
11.8576
11.872
11.892
11.917
11.9463
11.9793
12.0153
12.0539
12.0946
12.1371
12.1811
12.2263
12.2725
12.3194
12.367
12.4151
12.4637
12.5126
12.5617
12.611
12.6605
12.71
12.7595
12.809
12.8583
12.9075
12.9563
13.0047
13.0526
13.0997
13.1458
13.1908
13.2341
13.2755
13.3144
13.3503
13.3825
13.4101
13.4325
13.4487
13.4579
13.4598
13.454
13.4386
13.4108
11.8512
11.8203
11.8036
11.7976
11.7998
11.8097
11.8268
11.8499
11.8783
11.9111
11.9475
11.9869
12.0287
12.0724
12.1177
12.1642
12.2117
12.26
12.3088
12.3582
12.4079
12.458
12.5082
12.5587
12.6093
12.66
12.7108
12.7616
12.8125
12.8633
12.914
12.9645
13.0148
13.0648
13.1142
13.1629
13.2107
13.2572
13.3019
13.3445
13.3842
13.4202
13.4516
13.4775
13.4967
13.5082
13.5112
13.5053
13.488
13.456
11.7989
11.763
11.7441
11.7382
11.7419
11.7545
11.7751
11.8023
11.835
11.872
11.9126
11.956
12.0015
12.0486
12.097
12.1463
12.1963
12.2468
12.2977
12.3489
12.4004
12.4519
12.5037
12.5555
12.6075
12.6595
12.7116
12.7638
12.816
12.8683
12.9206
12.973
13.0253
13.0774
13.1294
13.1809
13.2318
13.2818
13.3305
13.3773
13.4215
13.4622
13.4984
13.5289
13.5521
13.5666
13.5714
13.5656
13.546
13.5086
11.7379
11.6954
11.674
11.6686
11.6747
11.6911
11.7164
11.7488
11.7868
11.8291
11.8747
11.9226
11.9724
12.0233
12.0751
12.1275
12.1802
12.2332
12.2863
12.3394
12.3926
12.4458
12.499
12.5522
12.6055
12.6588
12.7122
12.7658
12.8194
12.8733
12.9273
12.9815
13.0358
13.0903
13.1449
13.1995
13.2538
13.3077
13.3608
13.4125
13.4621
13.5086
13.5507
13.587
13.6156
13.6345
13.642
13.6368
13.6145
13.57
11.6661
11.6151
11.5909
11.5867
11.5966
11.6184
11.65
11.6891
11.7338
11.7825
11.834
11.8873
11.9418
11.997
12.0526
12.1083
12.1639
12.2194
12.2747
12.3298
12.3848
12.4396
12.4943
12.5489
12.6035
12.6581
12.7128
12.7676
12.8227
12.878
12.9337
12.9897
13.0462
13.1031
13.1604
13.2182
13.2763
13.3344
13.3924
13.4497
13.5056
13.559
13.6085
13.6524
13.6883
13.7134
13.7253
13.7216
13.6963
13.6425
11.5802
11.5181
11.4912
11.4899
11.5057
11.5353
11.5755
11.6233
11.6763
11.7326
11.791
11.8505
11.9104
11.9703
12.0299
12.089
12.1476
12.2057
12.2633
12.3204
12.3771
12.4335
12.4896
12.5455
12.6014
12.6572
12.7132
12.7693
12.8257
12.8825
12.9398
12.9976
13.0561
13.1154
13.1755
13.2366
13.2985
13.3613
13.4246
13.4882
13.5513
13.613
13.6717
13.7254
13.771
13.8051
13.8238
13.8236
13.7954
13.7295
11.4751
11.3991
11.3704
11.3749
11.4
11.4407
11.4925
11.5515
11.6147
11.6802
11.7466
11.813
11.8788
11.9436
12.0075
12.0702
12.1319
12.1926
12.2524
12.3114
12.3698
12.4277
12.4851
12.5423
12.5993
12.6563
12.7134
12.7707
12.8283
12.8865
12.9452
13.0048
13.0653
13.1269
13.1898
13.2541
13.32
13.3875
13.4566
13.5271
13.5985
13.6699
13.7398
13.8059
13.8647
13.9116
13.9412
13.9477
13.9178
13.8368
11.3423
11.2498
11.222
11.2373
11.2772
11.3338
11.4012
11.4744
11.5502
11.6264
11.7019
11.7759
11.8479
11.918
11.9862
12.0525
12.1171
12.1803
12.2422
12.3031
12.363
12.4223
12.481
12.5393
12.5974
12.6554
12.7135
12.7718
12.8305
12.8899
12.95
13.0111
13.0734
13.1371
13.2026
13.2701
13.3398
13.4122
13.4872
13.5651
13.6457
13.7282
13.8116
13.8934
13.9698
14.0349
14.0817
14.1009
14.0724
13.9735
11.168
11.058
11.0373
11.0724
11.1352
11.2146
11.3026
11.3937
11.4845
11.5731
11.6586
11.7406
11.8191
11.8944
11.9668
12.0365
12.104
12.1695
12.2333
12.2958
12.3571
12.4176
12.4773
12.5366
12.5955
12.6544
12.7134
12.7726
12.8322
12.8926
12.9538
13.0163
13.0801
13.1458
13.2136
13.284
13.3574
13.4343
13.5153
13.6008
13.6911
13.7862
13.8853
13.9865
14.086
14.177
14.2502
14.2922
14.2725
14.155
10.9284
10.8053
10.8054
10.8751
10.9734
11.0846
11.1996
11.3126
11.4208
11.5229
11.6189
11.7091
11.794
11.8742
11.9504
12.0232
12.0931
12.1606
12.226
12.2898
12.3523
12.4137
12.4743
12.5343
12.594
12.6535
12.7131
12.773
12.8334
12.8946
12.9567
13.0202
13.0853
13.1526
13.2223
13.2952
13.3718
13.453
13.5395
13.6324
13.7327
13.8411
13.958
14.0825
14.2115
14.3383
14.4517
14.5333
14.5376
14.4072
10.5816
10.4648
10.5136
10.6426
10.7941
10.9489
11.0979
11.2365
11.3637
11.4798
11.5861
11.6838
11.7743
11.8587
11.9381
12.0133
12.0851
12.1541
12.2207
12.2855
12.3488
12.4109
12.4721
12.5326
12.5928
12.6528
12.7128
12.7732
12.8341
12.8957
12.9585
13.0228
13.0888
13.1572
13.2284
13.3032
13.3824
13.467
13.5583
13.658
13.7677
13.8896
14.0255
14.1766
14.342
14.5168
14.6896
14.8376
14.8967
14.7758
10.0532
9.99797
10.15
10.3772
10.6062
10.8179
11.0072
11.1736
11.3197
11.4487
11.5637
11.6674
11.762
11.8494
11.9309
12.0076
12.0806
12.1504
12.2178
12.2831
12.3468
12.4093
12.4708
12.5316
12.592
12.6522
12.7125
12.7731
12.8342
12.8962
12.9593
13.0239
13.0904
13.1594
13.2315
13.3075
13.3884
13.4754
13.5703
13.6753
13.793
13.9271
14.0816
14.261
14.4688
14.7049
14.9626
15.2185
15.3909
15.3406
9.21186
9.3552
9.70827
10.0901
10.4268
10.7085
10.9412
11.1341
11.2961
11.4345
11.5551
11.6621
11.7587
11.8473
11.9295
12.0067
12.0799
12.1499
12.2174
12.2828
12.3465
12.409
12.4705
12.5313
12.5917
12.6519
12.7122
12.7727
12.8338
12.8958
12.9589
13.0235
13.0901
13.1593
13.2316
13.3079
13.3894
13.4775
13.5742
13.6823
13.8054
13.9487
14.1191
14.3256
14.5786
14.8888
15.2623
15.6848
16.0726
16.239
7.76563
8.49877
9.21559
9.81756
10.2896
10.6467
10.9181
11.1297
11.3001
11.4416
11.5628
11.6694
11.7651
11.8527
11.934
12.0105
12.083
12.1525
12.2195
12.2844
12.3478
12.41
12.4712
12.5317
12.5919
12.6518
12.7118
12.7721
12.8329
12.8946
12.9574
13.0217
13.0879
13.1566
13.2284
13.3041
13.385
13.4725
13.5688
13.677
13.8014
13.9486
14.1283
14.3548
14.6486
15.0384
15.5554
16.2118
16.9837
17.7738
4.89223
7.46689
8.85619
9.71414
10.2997
10.6988
10.9776
11.1836
11.345
11.4778
11.5915
11.692
11.7831
11.8671
11.9456
12.0198
12.0906
12.1586
12.2244
12.2884
12.351
12.4124
12.4729
12.5329
12.5924
12.6518
12.7113
12.771
12.8313
12.8923
12.9543
13.0178
13.083
13.1505
13.2208
13.2948
13.3734
13.458
13.5505
13.6539
13.7723
13.9126
14.0856
14.3091
14.6135
15.0497
15.6889
16.6186
18.0939
20.7797
5.76307e-05
6.35911
8.98677
10.0457
10.6115
10.9481
11.1641
11.3197
11.444
11.5505
11.6457
11.7332
11.8149
11.892
11.9654
12.0357
12.1035
12.1691
12.2329
12.2952
12.3563
12.4165
12.4759
12.5348
12.5935
12.6519
12.7104
12.7692
12.8284
12.8883
12.9491
13.011
13.0745
13.1399
13.2076
13.2781
13.3523
13.431
13.5154
13.6073
13.7094
13.8263
13.9658
14.1431
14.389
14.7671
15.395
16.5476
19.2905
25.7689
)
;

boundaryField
{
    movingWallTop
    {
        type            zeroGradient;
    }
    movingWallBottom
    {
        type            zeroGradient;
    }
    fixedWalls
    {
        type            zeroGradient;
    }
    frontAndBack
    {
        type            empty;
    }
}


// ************************************************************************* //
