/*--------------------------------*- C++ -*----------------------------------*\
  =========                 |
  \\      /  F ield         | OpenFOAM: The Open Source CFD Toolbox
   \\    /   O peration     | Website:  https://openfoam.org
    \\  /    A nd           | Version:  7
     \\/     M anipulation  |
\*---------------------------------------------------------------------------*/
FoamFile
{
    version     2.0;
    format      ascii;
    class       surfaceScalarField;
    location    "0.0632";
    object      phi;
}
// * * * * * * * * * * * * * * * * * * * * * * * * * * * * * * * * * * * * * //

dimensions      [0 3 -1 0 0 0 0];

internalField   nonuniform List<scalar> 
4900
(
-5.55541e-06
5.55542e-06
-1.0161e-05
4.60561e-06
-1.29489e-05
2.78785e-06
-1.46693e-05
1.72048e-06
-1.57722e-05
1.10284e-06
-1.65114e-05
7.39235e-07
-1.70324e-05
5.2102e-07
-1.74172e-05
3.8472e-07
-1.77122e-05
2.95023e-07
-1.79451e-05
2.32892e-07
-1.8133e-05
1.87895e-07
-1.8287e-05
1.54065e-07
-1.84149e-05
1.27815e-07
-1.85217e-05
1.06885e-07
-1.86115e-05
8.97841e-08
-1.8687e-05
7.54957e-08
-1.87503e-05
6.33001e-08
-1.8803e-05
5.26757e-08
-1.88462e-05
4.32345e-08
-1.88809e-05
3.46817e-08
-1.89077e-05
2.67881e-08
-1.89271e-05
1.93716e-08
-1.89394e-05
1.22836e-08
-1.89448e-05
5.39957e-09
-1.89434e-05
-1.39008e-09
-1.89352e-05
-8.18237e-09
-1.89201e-05
-1.50729e-08
-1.8898e-05
-2.21562e-08
-1.88684e-05
-2.95336e-08
-1.88311e-05
-3.73189e-08
-1.87855e-05
-4.56467e-08
-1.87308e-05
-5.46819e-08
-1.86661e-05
-6.46338e-08
-1.85904e-05
-7.57755e-08
-1.85019e-05
-8.84714e-08
-1.83987e-05
-1.0322e-07
-1.8278e-05
-1.20719e-07
-1.8136e-05
-1.41972e-07
-1.79675e-05
-1.68465e-07
-1.7765e-05
-2.02482e-07
-1.75174e-05
-2.47675e-07
-1.72072e-05
-3.10135e-07
-1.68068e-05
-4.00446e-07
-1.62691e-05
-5.37655e-07
-1.55129e-05
-7.56249e-07
-1.4397e-05
-1.11592e-06
-1.26819e-05
-1.71508e-06
-9.94609e-06
-2.73579e-06
-5.45251e-06
-4.49358e-06
-5.45251e-06
-1.18984e-08
5.56732e-06
-2.1307e-06
6.72441e-06
-4.85827e-06
5.51542e-06
-7.27622e-06
4.13843e-06
-9.21546e-06
3.04208e-06
-1.07287e-05
2.25245e-06
-1.19091e-05
1.70148e-06
-1.28398e-05
1.31539e-06
-1.3584e-05
1.03925e-06
-1.41877e-05
8.36601e-07
-1.46837e-05
6.83886e-07
-1.50955e-05
5.6583e-07
-1.544e-05
4.72365e-07
-1.57299e-05
3.96701e-07
-1.59742e-05
3.34145e-07
-1.61801e-05
2.81375e-07
-1.63528e-05
2.35984e-07
-1.64963e-05
1.96191e-07
-1.66137e-05
1.60653e-07
-1.67074e-05
1.28335e-07
-1.6779e-05
9.84252e-08
-1.68299e-05
7.02719e-08
-1.6861e-05
4.33405e-08
-1.68727e-05
1.71787e-08
-1.68655e-05
-8.60781e-09
-1.68393e-05
-3.43797e-08
-1.67939e-05
-6.04803e-08
-1.67288e-05
-8.72553e-08
-1.66433e-05
-1.15072e-07
-1.65363e-05
-1.44341e-07
-1.64064e-05
-1.75543e-07
-1.62518e-05
-2.0926e-07
-1.60702e-05
-2.46226e-07
-1.58586e-05
-2.87381e-07
-1.56131e-05
-3.33966e-07
-1.53287e-05
-3.87643e-07
-1.49987e-05
-4.50687e-07
-1.46144e-05
-5.26269e-07
-1.4164e-05
-6.189e-07
-1.36313e-05
-7.35137e-07
-1.29943e-05
-8.84709e-07
-1.22221e-05
-1.08231e-06
-1.12722e-05
-1.35039e-06
-1.00866e-05
-1.72318e-06
-8.59165e-06
-2.25124e-06
-6.70712e-06
-3.00046e-06
-4.39342e-06
-4.02878e-06
-1.81875e-06
-5.31045e-06
1.2427e-07
-6.4366e-06
-5.32824e-06
1.03242e-06
4.5349e-06
5.46792e-07
7.21004e-06
-9.9277e-07
7.05498e-06
-2.8889e-06
6.03457e-06
-4.74784e-06
4.90101e-06
-6.40907e-06
3.91369e-06
-7.83317e-06
3.12558e-06
-9.03318e-06
2.51539e-06
-1.00394e-05
2.0455e-06
-1.08841e-05
1.68123e-06
-1.15954e-05
1.39527e-06
-1.21969e-05
1.16729e-06
-1.2707e-05
9.82493e-07
-1.31404e-05
8.30102e-07
-1.35085e-05
7.02248e-07
-1.38203e-05
5.93113e-07
-1.40826e-05
4.98334e-07
-1.4301e-05
4.14601e-07
-1.44797e-05
3.3936e-07
-1.4622e-05
2.70609e-07
-1.47303e-05
2.06756e-07
-1.48066e-05
1.4651e-07
-1.4852e-05
8.87972e-08
-1.48676e-05
3.27074e-08
-1.48536e-05
-2.25597e-08
-1.48103e-05
-7.77353e-08
-1.47372e-05
-1.33516e-07
-1.46339e-05
-1.90599e-07
-1.44992e-05
-2.49721e-07
-1.43319e-05
-3.11696e-07
-1.41299e-05
-3.77465e-07
-1.38911e-05
-4.48154e-07
-1.36121e-05
-5.25158e-07
-1.32893e-05
-6.10235e-07
-1.29176e-05
-7.05656e-07
-1.24908e-05
-8.1439e-07
-1.20011e-05
-9.40384e-07
-1.14385e-05
-1.08894e-06
-1.07901e-05
-1.26725e-06
-1.00401e-05
-1.48517e-06
-9.16858e-06
-1.75621e-06
-8.1521e-06
-2.09878e-06
-6.96516e-06
-2.53733e-06
-5.58601e-06
-3.10233e-06
-4.01131e-06
-3.82594e-06
-2.28781e-06
-4.72396e-06
-5.72702e-07
-5.74389e-06
7.6675e-07
-6.6499e-06
1.08774e-06
-6.7576e-06
-4.24049e-06
9.06183e-07
3.62872e-06
1.22789e-06
6.88833e-06
6.41804e-07
7.64107e-06
-5.26227e-07
7.2026e-06
-1.94731e-06
6.32209e-06
-3.40318e-06
5.36956e-06
-4.77686e-06
4.49925e-06
-6.01855e-06
3.75709e-06
-7.11568e-06
3.14262e-06
-8.07358e-06
2.63913e-06
-8.90481e-06
2.2265e-06
-9.6238e-06
1.88628e-06
-1.02443e-05
1.60302e-06
-1.07786e-05
1.3644e-06
-1.12371e-05
1.1607e-06
-1.16283e-05
9.84366e-07
-1.19595e-05
8.29464e-07
-1.22362e-05
6.91337e-07
-1.24631e-05
5.66293e-07
-1.26439e-05
4.51374e-07
-1.27813e-05
3.4418e-07
-1.28775e-05
2.42733e-07
-1.29341e-05
1.45376e-07
-1.29521e-05
5.06843e-08
-1.29321e-05
-4.25984e-08
-1.28742e-05
-1.35621e-07
-1.27782e-05
-2.29476e-07
-1.26436e-05
-3.25253e-07
-1.24692e-05
-4.24087e-07
-1.22537e-05
-5.27218e-07
-1.19951e-05
-6.36056e-07
-1.1691e-05
-7.52261e-07
-1.13383e-05
-8.77841e-07
-1.09332e-05
-1.01528e-06
-1.04712e-05
-1.1677e-06
-9.94656e-06
-1.33904e-06
-9.35255e-06
-1.53439e-06
-8.68125e-06
-1.76024e-06
-7.92358e-06
-2.02492e-06
-7.06972e-06
-2.33903e-06
-6.11023e-06
-2.7157e-06
-5.03849e-06
-3.17052e-06
-3.85582e-06
-3.72e-06
-2.58102e-06
-4.37713e-06
-1.26714e-06
-5.13982e-06
-2.64734e-08
-5.96462e-06
9.42806e-07
-6.71317e-06
1.34938e-06
-7.05648e-06
9.17027e-07
-6.32524e-06
-3.32347e-06
6.71506e-07
2.95721e-06
1.24256e-06
6.31728e-06
1.22103e-06
7.6626e-06
6.47672e-07
7.77596e-06
-2.90057e-07
7.25982e-06
-1.4098e-06
6.48931e-06
-2.5792e-06
5.66865e-06
-3.7169e-06
4.89479e-06
-4.77941e-06
4.20513e-06
-5.7474e-06
3.60711e-06
-6.61558e-06
3.09469e-06
-7.38615e-06
2.65685e-06
-8.0648e-06
2.28168e-06
-8.65852e-06
1.95811e-06
-9.17437e-06
1.67656e-06
-9.61894e-06
1.42893e-06
-9.99803e-06
1.20856e-06
-1.03167e-05
1.00997e-06
-1.0579e-05
8.28654e-07
-1.07886e-05
6.60901e-07
-1.0948e-05
5.03633e-07
-1.10595e-05
3.54264e-07
-1.11248e-05
2.10595e-07
-1.11448e-05
7.07161e-08
-1.11203e-05
-6.70675e-08
-1.10516e-05
-2.04309e-07
-1.09386e-05
-3.42482e-07
-1.07808e-05
-4.83042e-07
-1.05774e-05
-6.27488e-07
-1.03272e-05
-7.7743e-07
-1.00286e-05
-9.34665e-07
-9.67962e-06
-1.10126e-06
-9.27781e-06
-1.27965e-06
-8.82032e-06
-1.47277e-06
-8.30383e-06
-1.68419e-06
-7.72463e-06
-1.91824e-06
-7.07878e-06
-2.18025e-06
-6.36238e-06
-2.47664e-06
-5.57226e-06
-2.81505e-06
-4.7071e-06
-3.20419e-06
-3.76953e-06
-3.65327e-06
-2.76959e-06
-4.17046e-06
-1.73031e-06
-4.75927e-06
-6.96047e-07
-5.4114e-06
2.568e-07
-6.09267e-06
1.01023e-06
-6.71805e-06
1.40784e-06
-7.11078e-06
1.29725e-06
-6.94588e-06
6.66584e-07
-5.69458e-06
-2.65688e-06
4.80079e-07
2.47713e-06
1.07479e-06
5.72256e-06
1.33821e-06
7.39918e-06
1.16985e-06
7.94431e-06
6.37361e-07
7.79231e-06
-1.4067e-07
7.26734e-06
-1.05222e-06
6.5802e-06
-2.01195e-06
5.85451e-06
-2.96226e-06
5.15544e-06
-3.86789e-06
4.51275e-06
-4.70933e-06
3.93613e-06
-5.47736e-06
3.42488e-06
-6.16905e-06
2.97337e-06
-6.78509e-06
2.57416e-06
-7.32808e-06
2.21954e-06
-7.80144e-06
1.90229e-06
-8.20882e-06
1.61594e-06
-8.55373e-06
1.35488e-06
-8.83936e-06
1.11428e-06
-9.06849e-06
8.90027e-07
-9.24345e-06
6.78592e-07
-9.36614e-06
4.76959e-07
-9.43806e-06
2.82513e-07
-9.4603e-06
9.29555e-08
-9.4336e-06
-9.37713e-08
-9.35835e-06
-2.79556e-07
-9.23465e-06
-4.66182e-07
-9.06229e-06
-6.55398e-07
-8.84081e-06
-8.48975e-07
-8.56946e-06
-1.04878e-06
-8.24728e-06
-1.25684e-06
-7.87309e-06
-1.47544e-06
-7.44557e-06
-1.70718e-06
-6.96327e-06
-1.95507e-06
-6.42484e-06
-2.22262e-06
-5.82916e-06
-2.51392e-06
-5.17575e-06
-2.83365e-06
-4.46538e-06
-3.187e-06
-3.70102e-06
-3.57941e-06
-2.88928e-06
-4.01592e-06
-2.0427e-06
-4.49985e-06
-1.18289e-06
-5.03026e-06
-3.44766e-07
-5.5974e-06
4.1868e-07
-6.17484e-06
1.03281e-06
-6.7068e-06
1.40387e-06
-7.08911e-06
1.43758e-06
-7.14449e-06
1.08978e-06
-6.59808e-06
4.69717e-07
-5.07452e-06
-2.18717e-06
3.47677e-07
2.12946e-06
8.89291e-07
5.18095e-06
1.27358e-06
7.0149e-06
1.35311e-06
7.86478e-06
1.12023e-06
8.02519e-06
6.34955e-07
7.75261e-06
-2.34994e-08
7.23866e-06
-7.8173e-07
6.61274e-06
-1.58165e-06
5.95536e-06
-2.38134e-06
5.31244e-06
-3.15269e-06
4.70748e-06
-3.87805e-06
4.15023e-06
-4.54719e-06
3.64251e-06
-5.15487e-06
3.18184e-06
-5.69905e-06
2.76372e-06
-6.17964e-06
2.38288e-06
-6.59764e-06
2.03395e-06
-6.95464e-06
1.71188e-06
-7.25242e-06
1.41206e-06
-7.49276e-06
1.13036e-06
-7.67729e-06
8.63127e-07
-7.80747e-06
6.07141e-07
-7.88451e-06
3.59552e-07
-7.90937e-06
1.17819e-07
-7.88279e-06
-1.20352e-07
-7.80528e-06
-3.57074e-07
-7.67712e-06
-5.94334e-07
-7.49847e-06
-8.34057e-07
-7.26928e-06
-1.07816e-06
-6.98945e-06
-1.32861e-06
-6.65879e-06
-1.5875e-06
-6.27715e-06
-1.85708e-06
-5.84451e-06
-2.13982e-06
-5.36113e-06
-2.43845e-06
-4.82776e-06
-2.75599e-06
-4.24602e-06
-3.09566e-06
-3.61885e-06
-3.46082e-06
-2.95125e-06
-3.85461e-06
-2.25125e-06
-4.27941e-06
-1.53136e-06
-4.73581e-06
-8.10348e-07
-5.22087e-06
-1.15444e-07
-5.72517e-06
5.15418e-07
-6.22826e-06
1.03231e-06
-6.69174e-06
1.37504e-06
-7.04952e-06
1.48172e-06
-7.1958e-06
1.31049e-06
-6.97326e-06
8.80692e-07
-6.16828e-06
3.35523e-07
-4.52935e-06
-1.85164e-06
2.60288e-07
1.86917e-06
7.31208e-07
4.71003e-06
1.1503e-06
6.5958e-06
1.36939e-06
7.64569e-06
1.34206e-06
8.05252e-06
1.08581e-06
8.00886e-06
6.48218e-07
7.67625e-06
8.44063e-08
7.17655e-06
-5.54896e-07
6.59466e-06
-1.22826e-06
5.98581e-06
-1.9043e-06
5.38352e-06
-2.56051e-06
4.80645e-06
-3.18156e-06
4.26355e-06
-3.75747e-06
3.75775e-06
-4.28213e-06
3.28838e-06
-4.75211e-06
2.85285e-06
-5.16576e-06
2.44759e-06
-5.52257e-06
2.06869e-06
-5.82274e-06
1.71223e-06
-6.06686e-06
1.37448e-06
-6.25572e-06
1.05199e-06
-6.39015e-06
7.41572e-07
-6.47098e-06
4.40375e-07
-6.49894e-06
1.45788e-07
-6.47473e-06
-1.4457e-07
-6.39891e-06
-4.32893e-07
-6.272e-06
-7.21239e-07
-6.09449e-06
-1.01157e-06
-5.86684e-06
-1.30581e-06
-5.58959e-06
-1.60586e-06
-5.26341e-06
-1.91368e-06
-4.88923e-06
-2.23126e-06
-4.46837e-06
-2.56068e-06
-4.00272e-06
-2.9041e-06
-3.49508e-06
-3.26363e-06
-2.94948e-06
-3.64127e-06
-2.3717e-06
-4.0386e-06
-1.76998e-06
-4.45633e-06
-1.15585e-06
-4.89353e-06
-5.45229e-07
-5.34644e-06
4.04497e-08
-5.80655e-06
5.73138e-07
-6.25786e-06
1.01774e-06
-6.67286e-06
1.33326e-06
-7.00726e-06
1.47726e-06
-7.19353e-06
1.41602e-06
-7.13455e-06
1.1431e-06
-6.70034e-06
7.07656e-07
-5.73283e-06
2.47174e-07
-4.06886e-06
-1.60447e-06
2.0198e-07
1.66719e-06
6.05988e-07
4.30602e-06
1.01867e-06
6.18312e-06
1.30896e-06
7.3554e-06
1.41513e-06
7.94635e-06
1.32803e-06
8.09596e-06
1.07012e-06
7.93416e-06
6.78286e-07
7.56839e-06
1.92447e-07
7.0805e-06
-3.5074e-07
6.52899e-06
-9.20595e-07
5.95337e-06
-1.49296e-06
5.37882e-06
-2.04968e-06
4.82027e-06
-2.57757e-06
4.28565e-06
-3.06744e-06
3.77825e-06
-3.51305e-06
3.29846e-06
-3.91036e-06
2.84491e-06
-4.25691e-06
2.41524e-06
-4.55132e-06
2.00664e-06
-4.79293e-06
1.6161e-06
-4.98161e-06
1.24066e-06
-5.11749e-06
8.77456e-07
-5.20094e-06
5.23823e-07
-5.23242e-06
1.77274e-07
-5.2125e-06
-1.64491e-07
-5.1418e-06
-5.03598e-07
-5.02101e-06
-8.4203e-07
-4.85093e-06
-1.18165e-06
-4.63253e-06
-1.52422e-06
-4.36695e-06
-1.87143e-06
-4.0557e-06
-2.22493e-06
-3.7007e-06
-2.58626e-06
-3.30446e-06
-2.95692e-06
-2.87035e-06
-3.33821e-06
-2.40282e-06
-3.73116e-06
-1.90779e-06
-4.13629e-06
-1.39312e-06
-4.55327e-06
-8.69111e-07
-4.98034e-06
-3.49171e-07
-5.41347e-06
1.49558e-07
-5.84517e-06
6.05685e-07
-6.26268e-06
9.93455e-07
-6.64563e-06
1.28354e-06
-6.96294e-06
1.44549e-06
-7.16921e-06
1.453e-06
-7.20104e-06
1.29308e-06
-6.97464e-06
9.7994e-07
-6.3872e-06
5.72253e-07
-5.32514e-06
1.88059e-07
-3.68467e-06
-1.41641e-06
1.61779e-07
1.50541e-06
5.08485e-07
3.95932e-06
8.96932e-07
5.79467e-06
1.21739e-06
7.03495e-06
1.40582e-06
7.75792e-06
1.43843e-06
8.06335e-06
1.31997e-06
8.05262e-06
1.07192e-06
7.81644e-06
7.2308e-07
7.42935e-06
3.0336e-07
6.94871e-06
-1.59753e-07
6.41648e-06
-6.42808e-07
5.86187e-06
-1.12679e-06
5.30425e-06
-1.59686e-06
4.75571e-06
-2.04177e-06
4.22316e-06
-2.45324e-06
3.70993e-06
-2.82532e-06
3.21699e-06
-3.15385e-06
2.74378e-06
-3.43603e-06
2.28882e-06
-3.67004e-06
1.85011e-06
-3.8548e-06
1.42542e-06
-3.98979e-06
1.01244e-06
-4.07484e-06
6.08876e-07
-4.11012e-06
2.12551e-07
-4.09602e-06
-1.7859e-07
-4.03316e-06
-5.66458e-07
-3.92237e-06
-9.52819e-07
-3.76472e-06
-1.33929e-06
-3.56159e-06
-1.72736e-06
-3.31467e-06
-2.11835e-06
-3.02617e-06
-2.51343e-06
-2.69883e-06
-2.9136e-06
-2.33618e-06
-3.31957e-06
-1.94269e-06
-3.7317e-06
-1.52405e-06
-4.1498e-06
-1.08748e-06
-4.57287e-06
-6.42034e-07
-4.99872e-06
-1.99044e-07
-5.42333e-06
2.27577e-07
-5.84009e-06
6.2106e-07
-6.23865e-06
9.61798e-07
-6.60341e-06
1.2279e-06
-6.91172e-06
1.39662e-06
-7.13167e-06
1.4473e-06
-7.2199e-06
1.36626e-06
-7.12e-06
1.15414e-06
-6.76252e-06
8.35288e-07
-6.06835e-06
4.67461e-07
-4.95732e-06
1.47139e-07
-3.36435e-06
-1.26927e-06
1.32959e-07
1.37245e-06
4.32136e-07
3.66014e-06
7.89983e-07
5.43682e-06
1.11677e-06
6.70816e-06
1.35242e-06
7.52227e-06
1.46649e-06
7.94929e-06
1.45237e-06
8.06673e-06
1.31975e-06
7.94906e-06
1.08758e-06
7.66152e-06
7.7867e-07
7.25762e-06
4.16115e-07
6.77904e-06
2.11461e-08
6.25684e-06
-3.87844e-07
5.71324e-06
-7.95602e-07
5.16347e-06
-1.18988e-06
4.61744e-06
-1.56109e-06
4.08115e-06
-1.90194e-06
3.55783e-06
-2.20693e-06
3.04877e-06
-2.4721e-06
2.55398e-06
-2.69461e-06
2.07262e-06
-2.87255e-06
1.60337e-06
-3.00472e-06
1.14461e-06
-3.09048e-06
6.94641e-07
-3.12966e-06
2.51728e-07
-3.12246e-06
-1.85791e-07
-3.06944e-06
-6.19474e-07
-2.97152e-06
-1.05074e-06
-2.82996e-06
-1.48085e-06
-2.64644e-06
-1.91088e-06
-2.4231e-06
-2.34168e-06
-2.16266e-06
-2.77387e-06
-1.86853e-06
-3.20774e-06
-1.54492e-06
-3.64317e-06
-1.1971e-06
-4.07952e-06
-8.3151e-07
-4.51538e-06
-4.56065e-07
-4.94832e-06
-8.03371e-08
-5.37444e-06
2.8422e-07
-5.78789e-06
6.2416e-07
-6.18003e-06
9.24101e-07
-6.53859e-06
1.16711e-06
-6.84642e-06
1.33559e-06
-7.08021e-06
1.41303e-06
-7.20911e-06
1.38676e-06
-7.19363e-06
1.25208e-06
-6.98532e-06
1.01766e-06
-6.5281e-06
7.1148e-07
-5.76217e-06
3.85772e-07
-4.63161e-06
1.17719e-07
-3.09629e-06
-1.15155e-06
1.11476e-07
1.26097e-06
3.71401e-07
3.40021e-06
6.97567e-07
5.11066e-06
1.01718e-06
6.38854e-06
1.27662e-06
7.26283e-06
1.4436e-06
7.7823e-06
1.50493e-06
8.00541e-06
1.46192e-06
7.99207e-06
1.32555e-06
7.79789e-06
1.11211e-06
7.47105e-06
8.39993e-07
7.05116e-06
5.27428e-07
6.56941e-06
1.91223e-07
6.04945e-06
-1.53905e-07
5.5086e-06
-4.95543e-07
4.95907e-06
-8.23516e-07
4.40912e-06
-1.12968e-06
3.864e-06
-1.40768e-06
3.32677e-06
-1.65263e-06
2.79893e-06
-1.86089e-06
2.28089e-06
-2.02986e-06
1.77233e-06
-2.15775e-06
1.2725e-06
-2.24346e-06
7.8035e-07
-2.28648e-06
2.94754e-07
-2.28682e-06
-1.8545e-07
-2.24494e-06
-6.61351e-07
-2.16177e-06
-1.13392e-06
-2.03868e-06
-1.60394e-06
-1.87755e-06
-2.072e-06
-1.68083e-06
-2.53841e-06
-1.45158e-06
-3.00312e-06
-1.19361e-06
-3.46571e-06
-9.11588e-07
-3.92519e-06
-6.11185e-07
-4.37992e-06
-2.99212e-07
-4.82736e-06
1.62337e-08
-5.26376e-06
3.25646e-07
-5.68386e-06
6.18062e-07
-6.0803e-06
8.81129e-07
-6.4431e-06
1.10137e-06
-6.75883e-06
1.26479e-06
-7.00983e-06
1.35789e-06
-7.17332e-06
1.36942e-06
-7.22063e-06
1.29271e-06
-7.11692e-06
1.12897e-06
-6.82158e-06
8.90958e-07
-6.29009e-06
6.06603e-07
-5.47781e-06
3.21122e-07
-4.34613e-06
9.5781e-08
-2.87095e-06
-1.05577e-06
9.48739e-08
1.1661e-06
3.22105e-07
3.17298e-06
6.1774e-07
4.81502e-06
9.22718e-07
6.08357e-06
1.1904e-06
6.99514e-06
1.38942e-06
7.58328e-06
1.50321e-06
7.89163e-06
1.52757e-06
7.96771e-06
1.46742e-06
7.85804e-06
1.33353e-06
7.60494e-06
1.13982e-06
7.24487e-06
9.01304e-07
6.80792e-06
6.32671e-07
6.31808e-06
3.47463e-07
5.79381e-06
5.76251e-08
5.24891e-06
-2.26646e-07
4.69339e-06
-4.96874e-07
4.13423e-06
-7.46182e-07
3.57608e-06
-9.6911e-07
3.02186e-06
-1.16144e-06
2.47321e-06
-1.32e-06
1.93089e-06
-1.44253e-06
1.39503e-06
-1.52755e-06
8.65366e-07
-1.57423e-06
3.41436e-07
-1.58236e-06
-1.77317e-07
-1.55228e-06
-6.91431e-07
-1.48486e-06
-1.20134e-06
-1.38151e-06
-1.7073e-06
-1.24419e-06
-2.20932e-06
-1.0755e-06
-2.7071e-06
-8.78683e-07
-3.19994e-06
-6.5774e-07
-3.68665e-06
-4.17519e-07
-4.16541e-06
-1.63804e-07
-4.63364e-06
9.65938e-08
-5.08775e-06
3.55769e-07
-5.52294e-06
6.04698e-07
-5.93278e-06
8.33303e-07
-6.30891e-06
1.03065e-06
-6.64044e-06
1.18532e-06
-6.91351e-06
1.28615e-06
-7.11066e-06
1.3232e-06
-7.21036e-06
1.28931e-06
-7.18674e-06
1.18208e-06
-7.00969e-06
1.00623e-06
-6.64573e-06
7.76085e-07
-6.05995e-06
5.17608e-07
-5.21934e-06
2.69007e-07
-4.09753e-06
7.88686e-08
-2.68081e-06
-9.76904e-07
8.16199e-08
1.08448e-06
2.81224e-07
2.97338e-06
5.48249e-07
4.548e-06
8.34595e-07
5.79722e-06
1.10027e-06
6.72947e-06
1.31616e-06
7.3674e-06
1.46448e-06
7.7433e-06
1.53767e-06
7.89452e-06
1.53627e-06
7.85944e-06
1.46665e-06
7.67456e-06
1.33883e-06
7.37269e-06
1.16467e-06
6.98209e-06
9.56567e-07
6.52618e-06
7.26526e-07
6.02385e-06
4.85591e-07
5.48985e-06
2.43547e-07
4.93544e-06
8.80275e-09
4.36897e-06
-2.11596e-07
3.79647e-06
-4.11888e-07
3.22215e-06
-5.87486e-07
2.64881e-06
-7.34841e-07
2.07825e-06
-8.51329e-07
1.51152e-06
-9.35138e-07
9.49175e-07
-9.8518e-07
3.91478e-07
-1.00103e-06
-1.61472e-07
-9.82858e-07
-7.09599e-07
-9.31449e-07
-1.25275e-06
-8.48155e-07
-1.79059e-06
-7.34935e-07
-2.32254e-06
-5.94379e-07
-2.84765e-06
-4.2976e-07
-3.36456e-06
-2.45081e-07
-3.87133e-06
-4.51436e-08
-4.36535e-06
1.64402e-07
-4.84318e-06
3.77015e-07
-5.30037e-06
5.8526e-07
-5.73118e-06
7.80858e-07
-6.12838e-06
9.54827e-07
-6.48287e-06
1.09775e-06
-6.78336e-06
1.20023e-06
-7.01599e-06
1.25356e-06
-7.16399e-06
1.25071e-06
-7.20751e-06
1.18757e-06
-7.1236e-06
1.06452e-06
-6.88664e-06
8.88129e-07
-6.46934e-06
6.72728e-07
-5.84455e-06
4.41462e-07
-4.98807e-06
2.26163e-07
-3.88223e-06
6.54365e-08
-2.52009e-06
-9.11467e-07
7.0727e-08
1.01375e-06
2.46582e-07
2.79752e-06
4.87037e-07
4.30754e-06
7.52713e-07
5.53154e-06
1.00957e-06
6.47261e-06
1.23134e-06
7.14563e-06
1.40036e-06
7.57428e-06
1.50722e-06
7.78767e-06
1.5495e-06
7.81716e-06
1.5302e-06
7.69385e-06
1.45609e-06
7.4468e-06
1.33621e-06
7.10197e-06
1.18068e-06
6.68171e-06
9.99815e-07
6.20471e-06
8.03512e-07
5.68615e-06
6.00836e-07
5.13811e-06
3.99829e-07
4.56998e-06
2.0742e-07
3.98888e-06
2.94251e-08
3.40014e-06
-1.294e-07
2.80764e-06
-2.65287e-07
2.21413e-06
-3.75362e-07
1.62159e-06
-4.57572e-07
1.03138e-06
-5.10602e-07
4.44508e-07
-5.33824e-07
-1.3825e-07
-5.2725e-07
-7.16172e-07
-4.91511e-07
-1.28849e-06
-4.27845e-07
-1.85426e-06
-3.38103e-07
-2.41228e-06
-2.24773e-07
-2.96098e-06
-9.10056e-08
-3.49833e-06
5.9353e-08
-4.02169e-06
2.21726e-07
-4.52772e-06
3.90788e-07
-5.01225e-06
5.60461e-07
-5.47004e-06
7.2396e-07
-5.89468e-06
8.73893e-07
-6.27832e-06
1.00244e-06
-6.61143e-06
1.10168e-06
-6.8826e-06
1.16401e-06
-7.07832e-06
1.18281e-06
-7.18279e-06
1.15327e-06
-7.17797e-06
1.07343e-06
-7.04376e-06
9.45339e-07
-6.75855e-06
7.76257e-07
-6.30025e-06
5.79626e-07
-5.64792e-06
3.75528e-07
-4.78397e-06
1.90231e-07
-3.69693e-06
5.44761e-08
-2.38433e-06
-8.56991e-07
6.1537e-08
9.52216e-07
2.16608e-07
2.64245e-06
4.32371e-07
4.09178e-06
6.76428e-07
5.28749e-06
9.19936e-07
6.2291e-06
1.13961e-06
6.92596e-06
1.31868e-06
7.39521e-06
1.44696e-06
7.65938e-06
1.52017e-06
7.74395e-06
1.53885e-06
7.67518e-06
1.50716e-06
7.47849e-06
1.43171e-06
7.17742e-06
1.32053e-06
6.79289e-06
1.18227e-06
6.34298e-06
1.02551e-06
5.8429e-06
8.58451e-07
5.30517e-06
6.88536e-07
4.73989e-06
5.22366e-07
4.15505e-06
3.65613e-07
3.5569e-06
2.23022e-07
2.95023e-06
9.84415e-08
2.33871e-06
-5.12187e-09
1.72516e-06
-8.54493e-08
1.11171e-06
-1.41051e-07
5.0011e-07
-1.7112e-07
-1.08181e-07
-1.75494e-07
-7.11798e-07
-1.5463e-07
-1.30935e-06
-1.09595e-07
-1.89929e-06
-4.20605e-08
-2.47981e-06
4.56852e-08
-3.04873e-06
1.50725e-07
-3.60337e-06
2.69495e-07
-4.14046e-06
3.97779e-07
-4.65601e-06
5.3071e-07
-5.14518e-06
6.62801e-07
-5.60213e-06
7.88018e-07
-6.0199e-06
8.99906e-07
-6.3902e-06
9.91801e-07
-6.70332e-06
1.05713e-06
-6.94793e-06
1.08985e-06
-7.11103e-06
1.085e-06
-7.17794e-06
1.03941e-06
-7.13238e-06
9.52522e-07
-6.95687e-06
8.2725e-07
-6.63328e-06
6.70796e-07
-6.1438e-06
4.95233e-07
-5.47235e-06
3.17629e-07
-4.60637e-06
1.59486e-07
-3.53879e-06
4.53059e-08
-2.27015e-06
-8.11685e-07
5.35975e-08
8.98619e-07
1.90157e-07
2.50589e-06
3.82852e-07
3.89909e-06
6.04933e-07
5.0654e-06
8.3203e-07
6.002e-06
1.04377e-06
6.71422e-06
1.22472e-06
7.21425e-06
1.36464e-06
7.51947e-06
1.45815e-06
7.65044e-06
1.5041e-06
7.62922e-06
1.50467e-06
7.47793e-06
1.46445e-06
7.21764e-06
1.38962e-06
6.86771e-06
1.28723e-06
6.44537e-06
1.16459e-06
5.96554e-06
1.0289e-06
5.44087e-06
8.86877e-07
4.88191e-06
7.44647e-07
4.29728e-06
6.0758e-07
3.69396e-06
4.80267e-07
3.07754e-06
3.66513e-07
2.45247e-06
2.69356e-07
1.82231e-06
1.91103e-07
1.18996e-06
1.33369e-07
5.57844e-07
9.71132e-08
-7.19248e-08
8.26693e-08
-6.97354e-07
8.97701e-08
-1.31645e-06
1.17561e-07
-1.92708e-06
1.64606e-07
-2.52686e-06
2.28888e-07
-3.11301e-06
3.07806e-07
-3.68229e-06
3.98176e-07
-4.23083e-06
4.96235e-07
-4.75407e-06
5.97662e-07
-5.2466e-06
6.97635e-07
-5.7021e-06
7.90911e-07
-6.11317e-06
8.71968e-07
-6.47126e-06
9.35215e-07
-6.76657e-06
9.75281e-07
-6.988e-06
9.87399e-07
-7.12315e-06
9.67888e-07
-7.15843e-06
9.14728e-07
-7.07922e-06
8.2819e-07
-6.87034e-06
7.11476e-07
-6.51656e-06
5.71261e-07
-6.00358e-06
4.18026e-07
-5.31912e-06
2.66009e-07
-4.45435e-06
1.32654e-07
-3.40543e-06
3.74501e-08
-2.17495e-06
-7.74235e-07
4.65891e-08
8.5203e-07
1.66381e-07
2.3861e-06
3.37365e-07
3.7281e-06
5.37421e-07
4.86535e-06
7.46028e-07
5.7934e-06
9.45555e-07
6.51469e-06
1.1221e-06
7.03771e-06
1.26582e-06
7.37575e-06
1.37088e-06
7.54538e-06
1.43501e-06
7.56509e-06
1.45891e-06
7.45403e-06
1.44557e-06
7.23098e-06
1.39959e-06
6.91369e-06
1.32658e-06
6.51839e-06
1.23261e-06
6.05951e-06
1.12386e-06
5.54962e-06
1.00628e-06
4.99949e-06
8.85386e-07
4.41817e-06
7.66151e-07
3.8132e-06
6.52895e-07
3.1908e-06
5.49276e-07
2.55609e-06
4.58277e-07
1.91331e-06
3.82224e-07
1.26602e-06
3.22807e-07
6.17261e-07
2.81105e-07
-3.02229e-08
2.57614e-07
-6.73863e-07
2.52265e-07
-1.3111e-06
2.64437e-07
-1.93925e-06
2.92972e-07
-2.55539e-06
3.36173e-07
-3.15621e-06
3.91818e-07
-3.73793e-06
4.57163e-07
-4.29617e-06
5.28958e-07
-4.82586e-06
6.03487e-07
-5.32113e-06
6.76619e-07
-5.77524e-06
7.43903e-07
-6.18046e-06
8.00708e-07
-6.52807e-06
8.42414e-07
-6.80827e-06
8.64677e-07
-7.01026e-06
8.63756e-07
-7.12223e-06
8.36917e-07
-7.13159e-06
7.8289e-07
-7.0252e-06
7.02353e-07
-6.7898e-06
5.98396e-07
-6.41261e-06
4.76882e-07
-5.88207e-06
3.46623e-07
-5.18886e-06
2.19264e-07
-4.32699e-06
1.08781e-07
-3.29495e-06
3.05678e-08
-2.09674e-06
-7.43667e-07
4.02807e-08
8.11749e-07
1.44648e-07
2.28173e-06
2.95031e-07
3.57772e-06
4.73161e-07
4.68722e-06
6.61846e-07
5.60471e-06
8.45984e-07
6.33055e-06
1.01328e-06
6.87042e-06
1.15461e-06
7.23442e-06
1.26407e-06
7.43592e-06
1.33874e-06
7.49042e-06
1.37828e-06
7.41448e-06
1.38444e-06
7.22482e-06
1.36051e-06
6.93763e-06
1.31082e-06
6.56808e-06
1.24031e-06
6.13001e-06
1.15418e-06
5.63576e-06
1.05755e-06
5.09612e-06
9.55307e-07
4.52042e-06
8.51923e-07
3.91658e-06
7.51375e-07
3.29134e-06
6.57091e-07
2.65037e-06
5.71924e-07
1.99848e-06
4.98158e-07
1.33978e-06
4.37507e-07
6.77912e-07
3.91143e-07
1.61411e-08
3.59705e-07
-6.42425e-07
3.43319e-07
-1.29472e-06
3.41613e-07
-1.93755e-06
3.53725e-07
-2.5675e-06
3.78316e-07
-3.1808e-06
4.13578e-07
-3.77319e-06
4.57245e-07
-4.33984e-06
5.06622e-07
-4.87524e-06
5.58613e-07
-5.37312e-06
6.09788e-07
-5.82641e-06
6.56463e-07
-6.22713e-06
6.94833e-07
-6.56644e-06
7.21143e-07
-6.83458e-06
7.31906e-07
-7.02102e-06
7.24188e-07
-7.11451e-06
6.95926e-07
-7.10333e-06
6.46292e-07
-6.97556e-06
5.76059e-07
-6.71957e-06
4.87936e-07
-6.32448e-06
3.86809e-07
-5.78094e-06
2.79831e-07
-5.08188e-06
1.7628e-07
-4.22344e-06
8.71429e-08
-3.20581e-06
2.44092e-08
-2.034e-06
-7.19258e-07
3.45016e-08
7.77248e-07
1.24477e-07
2.19176e-06
2.55151e-07
3.44704e-06
4.11515e-07
4.53086e-06
5.79282e-07
5.43694e-06
7.4567e-07
6.16416e-06
8.99997e-07
6.71609e-06
1.03403e-06
7.10038e-06
1.14211e-06
7.32785e-06
1.221e-06
7.41153e-06
1.26969e-06
7.3658e-06
1.28897e-06
7.20554e-06
1.28108e-06
6.94552e-06
1.24926e-06
6.59989e-06
1.19745e-06
6.18183e-06
1.12987e-06
5.70333e-06
1.05088e-06
5.17512e-06
9.64665e-07
4.60663e-06
8.75177e-07
4.00607e-06
7.85981e-07
3.38054e-06
7.0021e-07
2.73614e-06
6.20532e-07
2.07816e-06
5.49129e-07
1.41119e-06
4.87702e-07
7.39339e-07
4.37476e-07
6.63674e-08
3.99213e-07
-6.04163e-07
3.73227e-07
-1.26873e-06
3.59392e-07
-1.92371e-06
3.57157e-07
-2.56527e-06
3.65555e-07
-3.1892e-06
3.83212e-07
-3.79085e-06
4.08366e-07
-4.36499e-06
4.38884e-07
-4.90576e-06
4.72301e-07
-5.40654e-06
5.05871e-07
-5.85998e-06
5.36645e-07
-6.25791e-06
5.61574e-07
-6.59137e-06
5.77659e-07
-6.85067e-06
5.8213e-07
-7.02549e-06
5.7267e-07
-7.10505e-06
5.47671e-07
-7.07833e-06
5.06513e-07
-6.9344e-06
4.4984e-07
-6.66289e-06
3.79802e-07
-6.25445e-06
3.00222e-07
-5.70136e-06
2.16636e-07
-4.9983e-06
1.36164e-07
-4.14297e-06
6.71836e-08
-3.13683e-06
1.87871e-08
-1.98561e-06
-7.00471e-07
2.9123e-08
7.48125e-07
1.05499e-07
2.11538e-06
2.17168e-07
3.33537e-06
3.51939e-07
4.39608e-06
4.98087e-07
5.2908e-06
6.44963e-07
6.01729e-06
7.83465e-07
6.57759e-06
9.06363e-07
6.97748e-06
1.00843e-06
7.22578e-06
1.0864e-06
7.33356e-06
1.13884e-06
7.31336e-06
1.16586e-06
7.17851e-06
1.16887e-06
6.94252e-06
1.15019e-06
6.61857e-06
1.11284e-06
6.21919e-06
1.06019e-06
5.75598e-06
9.95809e-07
5.2395e-06
9.23228e-07
4.67921e-06
8.45825e-07
4.08347e-06
7.66719e-07
3.45965e-06
6.88705e-07
2.81416e-06
6.14209e-07
2.15265e-06
5.45272e-07
1.48012e-06
4.83534e-07
8.01076e-07
4.30245e-07
1.19656e-07
3.86266e-07
-5.60183e-07
3.52079e-07
-1.23454e-06
3.27801e-07
-1.89944e-06
3.13188e-07
-2.55066e-06
3.0765e-07
-3.18366e-06
3.10257e-07
-3.79346e-06
3.19751e-07
-4.37449e-06
3.34571e-07
-4.92058e-06
3.52873e-07
-5.42484e-06
3.72575e-07
-5.87968e-06
3.91418e-07
-6.27675e-06
4.07049e-07
-6.607e-06
4.17133e-07
-6.86075e-06
4.19494e-07
-7.02785e-06
4.12285e-07
-7.09784e-06
3.94187e-07
-7.06023e-06
3.64616e-07
-6.90483e-06
3.23932e-07
-6.62221e-06
2.73612e-07
-6.20413e-06
2.16372e-07
-5.64412e-06
1.56191e-07
-4.93811e-06
9.82057e-08
-4.08498e-06
4.84704e-08
-3.0871e-06
1.35592e-08
-1.9507e-06
-6.86912e-07
2.40451e-08
7.24079e-07
8.74207e-08
2.05201e-06
1.80632e-07
3.24216e-06
2.93966e-07
4.28275e-06
4.18e-07
5.16676e-06
5.44052e-07
5.89123e-06
6.64559e-07
6.45708e-06
7.73345e-07
6.8687e-06
8.65763e-07
7.13337e-06
9.38708e-07
7.26061e-06
9.90535e-07
7.26153e-06
1.02089e-06
7.14815e-06
1.03052e-06
6.93289e-06
1.02099e-06
6.6281e-06
9.94507e-07
6.24567e-06
9.53674e-07
5.79681e-06
9.01307e-07
5.29187e-06
8.40279e-07
4.74024e-06
7.73396e-07
4.15036e-06
7.03302e-07
3.52974e-06
6.32417e-07
2.88504e-06
5.6289e-07
2.22218e-06
4.96574e-07
1.54644e-06
4.35018e-07
8.62633e-07
3.79459e-07
1.75215e-07
3.3083e-07
-5.11555e-07
2.89766e-07
-1.19348e-06
2.56606e-07
-1.86628e-06
2.3141e-07
-2.52546e-06
2.13956e-07
-3.16621e-06
2.03756e-07
-3.78326e-06
2.00058e-07
-4.37079e-06
2.0186e-07
-4.92238e-06
2.07929e-07
-5.43091e-06
2.16825e-07
-5.88858e-06
2.26942e-07
-6.28687e-06
2.36568e-07
-6.61662e-06
2.43958e-07
-6.86814e-06
2.47435e-07
-7.03133e-06
2.45515e-07
-7.09592e-06
2.37046e-07
-7.05176e-06
2.21359e-07
-6.88915e-06
1.98422e-07
-6.59927e-06
1.68973e-07
-6.17468e-06
1.34604e-07
-5.60975e-06
9.77911e-08
-4.9013e-06
6.18287e-08
-4.04902e-06
3.06614e-08
-3.05593e-06
8.61455e-09
-1.92865e-06
-6.78297e-07
1.91885e-08
7.04891e-07
7.00062e-08
2.00119e-06
1.45167e-07
3.167e-06
2.37192e-07
4.19073e-06
3.38757e-07
5.0652e-06
4.43021e-07
5.78697e-06
5.43909e-07
6.35619e-06
6.36333e-07
6.77627e-06
7.16319e-07
7.05338e-06
7.81056e-07
7.19588e-06
8.28857e-07
7.21373e-06
8.59061e-07
7.11795e-06
8.71896e-07
6.92006e-06
8.68311e-07
6.63168e-06
8.49804e-07
6.26417e-06
8.18261e-07
5.82835e-06
7.75802e-07
5.33432e-06
7.24655e-07
4.79138e-06
6.67052e-07
4.20796e-06
6.05147e-07
3.59164e-06
5.40956e-07
2.94923e-06
4.76318e-07
2.28682e-06
4.12867e-07
1.60989e-06
3.52022e-07
9.23478e-07
2.9498e-07
2.32257e-07
2.42717e-07
-4.59292e-07
1.95992e-07
-1.14675e-06
1.55355e-07
-1.82564e-06
1.21147e-07
-2.49125e-06
9.35085e-08
-3.13857e-06
7.23807e-08
-3.76213e-06
5.7508e-08
-4.35592e-06
4.84408e-08
-4.91331e-06
4.45403e-08
-5.42701e-06
4.49885e-08
-5.88903e-06
4.88052e-08
-6.29068e-06
5.48763e-08
-6.62269e-06
6.19953e-08
-6.87526e-06
6.89222e-08
-7.03826e-06
7.44577e-08
-7.10146e-06
7.75352e-08
-7.05484e-06
7.73238e-08
-6.88894e-06
7.3335e-08
-6.59529e-06
6.55215e-08
-6.16686e-06
5.4353e-08
-5.59859e-06
4.08504e-08
-4.8878e-06
2.65639e-08
-4.03473e-06
1.34815e-08
-3.04285e-06
3.86524e-09
-1.91903e-06
-6.74432e-07
1.44871e-08
6.90404e-07
5.30569e-08
1.96262e-06
1.10453e-07
3.10961e-06
1.81256e-07
4.11992e-06
2.60097e-07
4.98635e-06
3.4188e-07
5.70519e-06
4.21976e-07
6.2761e-06
4.96399e-07
6.70185e-06
5.61912e-07
6.98787e-06
6.16093e-07
7.1417e-06
6.57328e-07
7.17249e-06
6.84771e-07
7.0905e-06
6.98261e-07
6.90657e-06
6.98213e-07
6.63173e-06
6.85509e-07
6.27688e-06
6.61374e-07
5.85249e-06
6.27271e-07
5.36843e-06
5.84802e-07
4.83385e-06
5.35627e-07
4.25713e-06
4.81397e-07
3.64587e-06
4.23705e-07
3.00692e-06
3.64052e-07
2.34647e-06
3.03825e-07
1.67012e-06
2.4428e-07
9.83023e-07
1.86541e-07
2.89996e-07
1.316e-07
-4.04351e-07
8.03161e-08
-1.09547e-06
3.34219e-08
-1.77874e-06
-8.47513e-09
-2.44936e-06
-4.48912e-08
-3.10216e-06
-7.54682e-08
-3.73155e-06
-9.99779e-08
-4.33141e-06
-1.1833e-07
-4.89496e-06
-1.30579e-07
-5.41476e-06
-1.36938e-07
-5.88267e-06
-1.37779e-07
-6.28984e-06
-1.3364e-07
-6.62683e-06
-1.2522e-07
-6.88368e-06
-1.13359e-07
-7.05012e-06
-9.90137e-08
-7.1158e-06
-8.3209e-08
-7.07064e-06
-6.69825e-08
-6.90516e-06
-5.13151e-08
-6.61095e-06
-3.70572e-08
-6.18112e-06
-2.48603e-08
-5.61078e-06
-1.51252e-08
-4.89753e-06
-7.9793e-09