/*--------------------------------*- C++ -*----------------------------------*\
  =========                 |
  \\      /  F ield         | OpenFOAM: The Open Source CFD Toolbox
   \\    /   O peration     | Website:  https://openfoam.org
    \\  /    A nd           | Version:  7
     \\/     M anipulation  |
\*---------------------------------------------------------------------------*/
FoamFile
{
    version     2.0;
    format      ascii;
    class       volScalarField;
    location    "0.0116";
    object      p;
}
// * * * * * * * * * * * * * * * * * * * * * * * * * * * * * * * * * * * * * //

dimensions      [0 2 -2 0 0 0 0];

internalField   nonuniform List<scalar> 
2500
(
2.45767e-09
-0.000715313
-0.00209654
-0.00379174
-0.00545605
-0.006881
-0.00791513
-0.00846076
-0.00846005
-0.00788349
-0.00672208
-0.00498179
-0.00267944
0.000160245
0.00350681
0.00732564
0.0115791
0.0162273
0.0212286
0.0265401
0.0321178
0.0379166
0.043891
0.0499942
0.0561794
0.0623988
0.0686044
0.0747479
0.0807808
0.0866544
0.0923203
0.0977302
0.102837
0.107593
0.111953
0.115874
0.119315
0.122237
0.124609
0.126403
0.127603
0.128203
0.128213
0.127666
0.126622
0.125182
0.123503
0.121796
0.120409
0.119695
0.000708706
-5.71062e-06
-0.00109022
-0.00234741
-0.00357148
-0.00459693
-0.00529997
-0.00559347
-0.0054196
-0.00474377
-0.00354974
-0.00183546
0.000390196
0.00310992
0.00629994
0.00993155
0.0139722
0.0183863
0.0231361
0.0281816
0.0334816
0.0389935
0.0446736
0.0504773
0.0563594
0.0622739
0.0681747
0.0740151
0.0797485
0.0853285
0.090709
0.0958443
0.10069
0.105203
0.109341
0.113067
0.116343
0.11914
0.12143
0.123196
0.124428
0.125129
0.125315
0.125024
0.124317
0.123282
0.122048
0.120782
0.119694
0.118981
0.00208391
0.0010696
-2.10842e-05
-0.0011304
-0.00216037
-0.00298596
-0.00350822
-0.00365486
-0.00337462
-0.00263439
-0.00141641
0.000284428
0.00246307
0.00510627
0.00819424
0.011702
0.0156003
0.0198566
0.0244357
0.0293
0.0344103
0.0397256
0.0452039
0.0508021
0.0564762
0.0621817
0.0678737
0.0735069
0.0790362
0.0844166
0.0896036
0.0945538
0.0992246
0.103575
0.107567
0.111165
0.114336
0.117053
0.119295
0.121046
0.122301
0.123066
0.12336
0.123217
0.122691
0.121858
0.120819
0.119703
0.118607
0.117594
0.003794
0.0023288
0.00106522
-6.22848e-05
-0.00104716
-0.00179653
-0.00223341
-0.00230177
-0.00196005
-0.00118006
5.40725e-05
0.00174754
0.00389652
0.0064897
0.00950949
0.0129332
0.0167338
0.0208809
0.025341
0.0300785
0.0350554
0.0402323
0.0455684
0.0510217
0.0565493
0.0621078
0.0676531
0.0731411
0.0785278
0.0837693
0.0888224
0.093645
0.0981962
0.102437
0.106331
0.109844
0.112946
0.115613
0.117824
0.119567
0.120838
0.121642
0.121997
0.121932
0.121491
0.120733
0.119738
0.118602
0.117333
0.115866
0.00551597
0.00358043
0.00208345
0.000862928
-0.000150291
-0.000888183
-0.00129243
-0.0013223
-0.00094637
-0.000142516
0.00110182
0.00279043
0.00491942
0.00747817
0.0104503
0.0138145
0.0175453
0.0216138
0.0259879
0.0306332
0.0355131
0.0405893
0.0458217
0.0511695
0.0565906
0.0620423
0.0674814
0.0728645
0.0781486
0.0832905
0.0882482
0.0929803
0.0974473
0.101611
0.105437
0.108892
0.111948
0.114582
0.116774
0.118513
0.119794
0.120621
0.121009
0.120981
0.120571
0.119823
0.118797
0.117566
0.116062
0.114125
0.00706159
0.00467168
0.00291789
0.00156037
0.000469962
-0.000302983
-0.000714725
-0.000737679
-0.000349809
0.000464778
0.00171468
0.00340146
0.00552016
0.00805997
0.0110049
0.0143342
0.0180234
0.0220444
0.0263662
0.0309551
0.0357755
0.0407896
0.0459585
0.0512416
0.0565975
0.0619842
0.067359
0.0726791
0.0779018
0.0829848
0.0878864
0.0925661
0.0969849
0.101106
0.104894
0.108318
0.111351
0.113968
0.116152
0.117891
0.119178
0.120016
0.120414
0.120391
0.119971
0.119185
0.11808
0.116709
0.114947
0.112555
0.00829546
0.00548784
0.0034749
0.00195651
0.000757753
-8.24028e-05
-0.000530809
-0.000570451
-0.000187399
0.000628427
0.00188156
0.00357086
0.00568976
0.00822657
0.0111649
0.0144843
0.0181604
0.0221654
0.0264689
0.0310378
0.0358367
0.0408286
0.0459746
0.0512347
0.0565679
0.0619324
0.0672857
0.0725853
0.0777888
0.082854
0.0877397
0.0924054
0.0968125
0.100924
0.104706
0.108127
0.111158
0.113778
0.115966
0.117709
0.119001
0.119841
0.120233
0.120191
0.119731
0.118874
0.117657
0.116122
0.1141
0.111291
0.00912967
0.00594555
0.00368237
0.00199341
0.000669143
-0.000257998
-0.000762016
-0.000833976
-0.000466564
0.000345203
0.00160203
0.00329997
0.00543049
0.00798063
0.0109332
0.0142673
0.0179583
0.0219784
0.0262974
0.030882
0.0356972
0.0407059
0.0458695
0.0511479
0.0565003
0.0618847
0.0672589
0.0725802
0.0778061
0.0828944
0.0878036
0.0924934
0.0969247
0.101061
0.104866
0.10831
0.111364
0.114004
0.116209
0.117965
0.119263
0.120099
0.120475
0.120398
0.119879
0.118931
0.117585
0.115876
0.113601
0.110417
0.00950825
0.00598417
0.00348313
0.00162154
0.000163327
-0.000862078
-0.00143308
-0.00154664
-0.00120064
-0.000394348
0.000869488
0.0025842
0.00473917
0.00731986
0.010308
0.0136817
0.0174158
0.0214822
0.0258501
0.0304863
0.0353553
0.0404199
0.0456413
0.0509793
0.0563926
0.0618393
0.0672765
0.0726615
0.0779513
0.0831034
0.0880757
0.0928274
0.0973189
0.101513
0.105373
0.108868
0.111967
0.114646
0.116883
0.118662
0.11997
0.120802
0.121156
0.121035
0.120446
0.119395
0.11791
0.116024
0.113509
0.109985
0.00939503
0.00555891
0.00283128
0.00079809
-0.000797776
-0.00192743
-0.00257154
-0.00273124
-0.00240834
-0.00160555
-0.000328659
0.0014131
0.00360698
0.00623673
0.00928261
0.0127216
0.0165278
0.020672
0.025123
0.0298467
0.0348075
0.0399674
0.0452871
0.0507261
0.0562425
0.0617938
0.0673368
0.0728278
0.0782235
0.0834804
0.0885557
0.0934077
0.0979959
0.102282
0.106228
0.109802
0.112972
0.115711
0.117996
0.119808
0.121135
0.121965
0.122296
0.122127
0.12146
0.1203
0.118672
0.116611
0.113866
0.11003
0.00876565
0.00463544
0.00168899
-0.000514466
-0.00224964
-0.00348647
-0.00420636
-0.00441324
-0.00411184
-0.00330768
-0.00200918
-0.000227963
0.00202112
0.00471992
0.00784711
0.0113783
0.0152861
0.0195406
0.0241093
0.0289574
0.0340484
0.0393435
0.0448027
0.0503847
0.0560469
0.061746
0.0674378
0.0730779
0.0786219
0.0840254
0.0892445
0.0942361
0.0989584
0.103371
0.107437
0.111119
0.114385
0.117207
0.119559
0.12142
0.122774
0.123609
0.123918
0.1237
0.122953
0.121681
0.119907
0.11767
0.114702
0.110571
0.00760208
0.00318565
2.33907e-05
-0.00235041
-0.00422627
-0.00557175
-0.00636794
-0.00662056
-0.00633653
-0.00552366
-0.00419268
-0.00235747
-3.50274e-05
0.00275453
0.00598806
0.00963948
0.01368
0.0180782
0.0228003
0.0278106
0.033071
0.0385422
0.0441829
0.0499507
0.0558022
0.0616928
0.0675775
0.0734107
0.0791466
0.0847395
0.0901442
0.0953158
0.100211
0.104788
0.109006
0.112828
0.11622
0.119148
0.121587
0.123513
0.124907
0.125755
0.126049
0.125783
0.124955
0.123568
0.121647
0.119232
0.116044
0.111623
0.00588877
0.00118426
-0.00219605
-0.00474272
-0.00676149
-0.00821681
-0.00908862
-0.00938384
-0.00911105
-0.00828
-0.00690354
-0.00499774
-0.00258179
0.000322078
0.00368869
0.00749009
0.0116957
0.0162724
0.0211851
0.0263963
0.0318668
0.0375558
0.0434209
0.0494185
0.0555038
0.061631
0.0677538
0.0738252
0.0797978
0.0856244
0.0912579
0.0966517
0.10176
0.10654
0.110947
0.114943
0.118489
0.121552
0.124101
0.126111
0.12756
0.128432
0.128716
0.128406
0.127498
0.125994
0.123921
0.121326
0.117912
0.113199
0.00360982
-0.00139365
-0.0049997
-0.00772479
-0.0098903
-0.011457
-0.0124033
-0.0127368
-0.0124675
-0.0116069
-0.01017
-0.00817488
-0.00564321
-0.00259948
0.000928913
0.00491184
0.00931669
0.0141085
0.0192501
0.0247026
0.0304251
0.0363752
0.042509
0.0487815
0.0551464
0.0615566
0.067964
0.0743201
0.0805759
0.086682
0.0925895
0.0982496
0.103614
0.108637
0.113272
0.117477
0.121211
0.124438
0.127123
0.129239
0.13076
0.131669
0.131952
0.131602
0.130615
0.128991
0.126762
0.123979
0.120331
0.115311
0.000747093
-0.00457473
-0.00841957
-0.0113319
-0.0136501
-0.0153307
-0.0163501
-0.0167168
-0.0164419
-0.0155386
-0.0140241
-0.0119189
-0.0092471
-0.00603572
-0.0023147
0.0018834
0.00652364
0.0115688
0.0169798
0.0227155
0.0287334
0.0349893
0.0414377
0.0480318
0.0547237
0.0614647
0.0682049
0.074894
0.0814811
0.0879147
0.0941434
0.100116
0.105782
0.111091
0.115996
0.120449
0.124407
0.12783
0.13068
0.132926
0.13454
0.1355
0.135793
0.135408
0.134342
0.132596
0.130203
0.127221
0.123322
0.117974
-0.00272127
-0.00838884
-0.0124909
-0.0156029
-0.0180817
-0.0198798
-0.0209714
-0.0213653
-0.0210744
-0.0201136
-0.0185023
-0.0162639
-0.0134251
-0.0100158
-0.00606894
-0.00161968
0.00329432
0.00863338
0.014356
0.020419
0.0267776
0.0333857
0.0401961
0.04716
0.054228
0.0613493
0.0684724
0.0755448
0.0825134
0.0893246
0.0959243
0.102259
0.108274
0.113916
0.119134
0.123878
0.1281
0.131754
0.134801
0.137205
0.138934
0.139964
0.140278
0.139866
0.138721
0.136847
0.134281
0.131084
0.126914
0.121206
-0.00682192
-0.0128705
-0.0172534
-0.020581
-0.0232311
-0.0251514
-0.0263142
-0.026729
-0.0264102
-0.025375
-0.0236456
-0.0212482
-0.0182129
-0.0145728
-0.010364
-0.00562498
-0.000396308
0.00527951
0.0113583
0.0177945
0.0245411
0.0315499
0.0387716
0.0461555
0.0536504
0.0612035
0.0687613
0.0762694
0.0836722
0.0909135
0.0979367
0.104685
0.1111
0.117126
0.122706
0.127787
0.132315
0.136242
0.139522
0.142114
0.143984
0.145105
0.145454
0.145021
0.143799
0.14179
0.139037
0.135608
0.131138
0.12503
-0.0115872
-0.0180599
-0.0227528
-0.0263156
-0.0291498
-0.0311985
-0.0324316
-0.03286
-0.0325
-0.0313715
-0.0294998
-0.0269148
-0.0236503
-0.0197434
-0.0152336
-0.0101632
-0.00457613
0.001482
0.0079641
0.0148219
0.0220059
0.0294658
0.03715
0.045006
0.0529805
0.0610189
0.0690655
0.0770638
0.0849558
0.0926827
0.100185
0.107402
0.114272
0.120735
0.12673
0.132198
0.137081
0.141325
0.144878
0.147695
0.149736
0.15097
0.151371
0.150926
0.149627
0.147477
0.144521
0.140835
0.136033
0.129476
-0.0170561
-0.0240042
-0.0290419
-0.0328632
-0.035897
-0.0380813
-0.0393839
-0.0398174
-0.0394007
-0.0381572
-0.0361161
-0.0333116
-0.0297818
-0.0255682
-0.020715
-0.0152683
-0.00927582
-0.00278688
0.00414832
0.0114786
0.0191518
0.0271153
0.0353153
0.0436975
0.0522064
0.0607854
0.0693771
0.0779225
0.0863614
0.0946322
0.102672
0.110417
0.117801
0.12476
0.131227
0.137138
0.142429
0.147039
0.150912
0.153994
0.156242
0.157615
0.158088
0.157641
0.156266
0.153965
0.150789
0.146819
0.141643
0.134579
-0.0232748
-0.0307588
-0.036182
-0.0402891
-0.0435404
-0.0458685
-0.0472392
-0.0476677
-0.0471765
-0.0457932
-0.0435517
-0.0404915
-0.0366561
-0.0320922
-0.0268488
-0.020977
-0.0145287
-0.00755715
-0.000116087
0.00774018
0.0159569
0.0244788
0.0332501
0.0422144
0.0513143
0.0604916
0.0696867
0.0788385
0.0878845
0.0967604
0.1054
0.113735
0.121697
0.129215
0.136217
0.142633
0.148392
0.153425
0.157669
0.161064
0.163557
0.165103
0.16567
0.165235
0.163786
0.161325
0.157905
0.153619
0.148022
0.140381
-0.0302984
-0.0383885
-0.0442447
-0.0486691
-0.052158
-0.0546385
-0.0560752
-0.0564864
-0.0558995
-0.0543473
-0.0518699
-0.0485132
-0.0443269
-0.039364
-0.0336793
-0.0273292
-0.0203706
-0.012861
-0.00485807
0.00358066
0.0123976
0.021535
0.030935
0.0405393
0.050289
0.0601239
0.0699827
0.0798027
0.0895188
0.0990641
0.108369
0.117363
0.12597
0.134116
0.141722
0.14871
0.155003
0.160524
0.165199
0.16896
0.171746
0.173504
0.174193
0.173786
0.172267
0.169635
0.165948
0.161307
0.155234
0.146934
-0.0381914
-0.0469698
-0.0533136
-0.0580911
-0.0618398
-0.0644818
-0.0659803
-0.0663588
-0.0656505
-0.0638954
-0.0611411
-0.057441
-0.0528528
-0.0474365
-0.0412538
-0.0343673
-0.0268395
-0.0187325
-0.0101082
-0.00102751
0.00844898
0.0182612
0.0283494
0.0386536
0.0491131
0.0596668
0.0702518
0.0808036
0.0912553
0.101537
0.111577
0.1213
0.130626
0.139474
0.14776
0.155398
0.1623
0.16838
0.173555
0.177746
0.180881
0.182896
0.183742
0.183384
0.181801
0.178988
0.175008
0.16997
0.163355
0.1543
-0.0470304
-0.0565925
-0.0634868
-0.0686575
-0.0726904
-0.075502
-0.0770558
-0.0773815
-0.0765207
-0.0745221
-0.0714426
-0.0673453
-0.062297
-0.0563663
-0.0496229
-0.0421363
-0.0339752
-0.0252071
-0.0158981
-0.00611289
0.00408517
0.0146338
0.0254713
0.0365366
0.0477679
0.0591029
0.0704779
0.0818271
0.0930821
0.104171
0.115019
0.125547
0.135671
0.145302
0.154351
0.162721
0.170317
0.17704
0.182795
0.187489
0.191039
0.193368
0.194415
0.194134
0.192497
0.189494
0.185191
0.179707
0.172475
0.162553
-0.0569061
-0.0673628
-0.0748797
-0.0804884
-0.0848309
-0.0878188
-0.0894171
-0.0896641
-0.0886122
-0.0863211
-0.0828598
-0.0783027
-0.0727277
-0.0662137
-0.0588396
-0.0506827
-0.0418188
-0.032321
-0.0222601
-0.0117045
-0.000720322
0.0106281
0.0222779
0.0341667
0.0462325
0.0584125
0.0706425
0.0828563
0.0949843
0.106953
0.118686
0.130099
0.141104
0.151607
0.161509
0.170707
0.17909
0.186551
0.192977
0.198263
0.202307
0.205018
0.20632
0.206153
0.204479
0.20128
0.196624
0.190641
0.182705
0.171782
-0.0679266
-0.0794071
-0.0876289
-0.0937248
-0.0984029
-0.101571
-0.103197
-0.103331
-0.102039
-0.0993966
-0.0954858
-0.0903958
-0.0842176
-0.0770421
-0.0689587
-0.0600541
-0.0504115
-0.0401103
-0.0292261
-0.017831
-0.00599366
0.00621988
0.0187458
0.0315215
0.044485
0.0575739
0.0707246
0.0838707
0.0969426
0.109866
0.122562
0.134945
0.146921
0.158391
0.169247
0.179375
0.188654
0.19696
0.204166
0.210146
0.21478
0.217958
0.219583
0.21958
0.217894
0.214497
0.209458
0.202915
0.194176
0.182097
-0.0802218
-0.0928764
-0.101896
-0.108533
-0.113572
-0.116918
-0.118546
-0.118522
-0.11693
-0.113863
-0.109422
-0.103713
-0.096843
-0.0889169
-0.0800362
-0.070298
-0.0597938
-0.0486097
-0.0368264
-0.0245194
-0.0117597
0.00138559
0.0148523
0.0285783
0.0425026
0.0565641
0.0707005
0.0848467
0.0989341
0.112889
0.12663
0.14007
0.153112
0.165651
0.17757
0.188744
0.19904
0.208315
0.216425
0.223222
0.228562
0.23231
0.234346
0.234572
0.232912
0.229324
0.223873
0.216706
0.20705
0.193633
-0.0939493
-0.107953
-0.117876
-0.125109
-0.130531
-0.134046
-0.135639
-0.135397
-0.133428
-0.129847
-0.124778
-0.118348
-0.110683
-0.101904
-0.092127
-0.0814599
-0.0700036
-0.0578511
-0.0450882
-0.0317937
-0.0180403
-0.00389585
0.0105763
0.0253153
0.0402624
0.0553587
0.0705447
0.0857578
0.100931
0.115993
0.130863
0.145451
0.159659
0.173375
0.186476
0.198824
0.210272
0.220659
0.229819
0.237577
0.243762
0.24821
0.250768
0.25131
0.249733
0.245971
0.240084
0.232226
0.221524
0.206556
-0.109302
-0.124855
-0.1358
-0.143688
-0.149509
-0.153171
-0.154675
-0.154136
-0.151691
-0.147486
-0.141671
-0.134399
-0.125819
-0.11607
-0.105283
-0.0935813
-0.0810737
-0.0678608
-0.0540333
-0.0396727
-0.0248531
-0.00964153
0.0058999
0.0217132
0.0377427
0.0539336
0.0702303
0.0865744
0.102903
0.119147
0.135228
0.151058
0.166535
0.181544
0.195954
0.209617
0.222369
0.234031
0.244409
0.253301
0.260501
0.265807
0.269029
0.270002
0.268587
0.264688
0.25835
0.249732
0.237841
0.221076
-0.126516
-0.143853
-0.15595
-0.164549
-0.170774
-0.174544
-0.175882
-0.17494
-0.171895
-0.166927
-0.160223
-0.151965
-0.142328
-0.131474
-0.119552
-0.106697
-0.0930292
-0.0786571
-0.0636753
-0.0481676
-0.032208
-0.0158622
0.000810563
0.0177564
0.0349245
0.0522656
0.06973
0.0872653
0.104814
0.122313
0.139687
0.15685
0.173702
0.190125
0.205981
0.221112
0.235339
0.248459
0.260252
0.270482
0.278902
0.285264
0.289331
0.290888
0.289748
0.285771
0.278983
0.269539
0.256301
0.237456
-0.145886
-0.165275
-0.178664
-0.188026
-0.194645
-0.198458
-0.199521
-0.198037
-0.194231
-0.18833
-0.180561
-0.171145
-0.160285
-0.14817
-0.134968
-0.120829
-0.105883
-0.0902462
-0.0740162
-0.0572781
-0.0401049
-0.0225595
-0.00469638
0.0134361
0.0317938
0.0503351
0.069018
0.0877984
0.106627
0.125448
0.144192
0.162781
0.181114
0.199075
0.216522
0.233287
0.249175
0.263963
0.277398
0.289207
0.299093
0.306757
0.311898
0.314239
0.31353
0.309573
0.302359
0.292033
0.27728
0.256029
-0.167778
-0.189524
-0.204358
-0.214521
-0.221497
-0.225253
-0.225891
-0.22368
-0.218907
-0.211858
-0.202812
-0.19203
-0.179754
-0.166199
-0.151554
-0.135985
-0.119632
-0.102617
-0.0850414
-0.0669887
-0.0485295
-0.029722
-0.0106142
0.00875301
0.0283445
0.0481282
0.0680723
0.0881434
0.108303
0.128505
0.148692
0.168791
0.18871
0.208335
0.227523
0.246099
0.263855
0.280544
0.295883
0.309553
0.321204
0.33047
0.336977
0.340366
0.340304
0.336513
0.328934
0.317687
0.30124
0.277218
-0.192651
-0.217101
-0.233535
-0.244519
-0.251778
-0.255324
-0.255329
-0.252146
-0.246143
-0.23768
-0.227094
-0.214701
-0.200781
-0.185579
-0.169307
-0.152147
-0.134249
-0.115737
-0.0967148
-0.0772635
-0.0574486
-0.0373212
-0.0169211
0.00372126
0.0245816
0.0456399
0.0668774
0.0882739
0.109805
0.131438
0.153128
0.174816
0.19642
0.217833
0.238915
0.259488
0.279334
0.298185
0.315724
0.331586
0.345359
0.356598
0.364839
0.369619
0.370497
0.36709
0.35926
0.347084
0.328763
0.301557
-0.221079
-0.248626
-0.266819
-0.278608
-0.286016
-0.289131
-0.288216
-0.283738
-0.276169
-0.265957
-0.253514
-0.239214
-0.223383
-0.206298
-0.188194
-0.169267
-0.149673
-0.129542
-0.108971
-0.0880398
-0.0668045
-0.0453068
-0.0235752
-0.00162782
0.020525
0.0428779
0.0654276
0.0881705
0.111099
0.134198
0.157441
0.180784
0.204162
0.22748
0.250608
0.273371
0.295543
0.316841
0.336916
0.355352
0.371672
0.385337
0.395774
0.402392
0.404607
0.401894
0.394005
0.380942
0.360573
0.329724
-0.253786
-0.284876
-0.304974
-0.317498
-0.324842
-0.327202
-0.324976
-0.318778
-0.309211
-0.296834
-0.282146
-0.265589
-0.247537
-0.2283
-0.208137
-0.187251
-0.165806
-0.143928
-0.121711
-0.0992224
-0.0765097
-0.0536012
-0.0305108
-0.00724124
0.0162136
0.0398659
0.0637311
0.0878249
0.11216
0.136744
0.16157
0.186619
0.211845
0.237175
0.262494
0.287638
0.312384
0.336436
0.35942
0.380871
0.400236
0.416878
0.43009
0.439121
0.443208
0.441631
0.433982
0.420148
0.39758
0.362581
-0.291685
-0.326823
-0.348953
-0.362056
-0.369001
-0.370146
-0.366074
-0.357595
-0.34548
-0.33042
-0.313019
-0.29379
-0.27316
-0.251471
-0.228998
-0.205952
-0.182495
-0.158746
-0.134788
-0.110676
-0.0864411
-0.0620947
-0.0376331
-0.0130404
0.011709
0.0366479
0.0618129
0.0872425
0.112974
0.139039
0.165459
0.192243
0.219373
0.246803
0.274446
0.302157
0.329726
0.356858
0.383158
0.40812
0.431117
0.451397
0.468102
0.480288
0.486957
0.487133
0.480181
0.465805
0.440928
0.401217
-0.335939
-0.375705
-0.399945
-0.413343
-0.419376
-0.418651
-0.412006
-0.40051
-0.385146
-0.366763
-0.346084
-0.3237
-0.300086
-0.275613
-0.250564
-0.22515
-0.199523
-0.173787
-0.148008
-0.12222
-0.0964347
-0.0706416
-0.0448155
-0.0189182
0.00709837
0.0332901
0.059718
0.0864464
0.11354
0.141059
0.169059
0.19758
0.226644
0.25624
0.286317
0.316766
0.347403
0.377948
0.408003
0.437029
0.46433
0.489039
0.510124
0.526409
0.536602
0.539388
0.533811
0.51929
0.492067
0.447024
-0.388035
-0.433103
-0.459452
-0.472656
-0.477009
-0.473482
-0.463278
-0.447802
-0.4283
-0.405812
-0.381184
-0.355089
-0.328042
-0.300428
-0.27253
-0.244543
-0.216599
-0.188777
-0.161116
-0.133623
-0.106283
-0.0790577
-0.0518973
-0.0247376
0.00249516
0.0298826
0.0575127
0.085478
0.113873
0.142794
0.172329
0.202562
0.233556
0.265351
0.297943
0.331275
0.365208
0.399497
0.433763
0.467456
0.499825
0.529893
0.556441
0.578023
0.592984
0.599563
0.596351
0.582337
0.55285
0.501782
-0.449915
-0.50108
-0.529387
-0.541595
-0.543113
-0.535469
-0.52037
-0.49966
-0.474907
-0.447363
-0.418005
-0.387574
-0.356607
-0.325487
-0.294472
-0.263727
-0.233345
-0.203368
-0.173796
-0.144602
-0.115733
-0.0871216
-0.058686
-0.0303336
-0.00196232
0.0265376
0.0552829
0.0843965
0.114006
0.144243
0.175239
0.207122
0.240008
0.273995
0.309144
0.345465
0.382888
0.421234
0.46017
0.499169
0.537456
0.573959
0.607279
0.635665
0.657027
0.669026
0.669619
0.657143
0.625675
0.5678
-0.524156
-0.582372
-0.612225
-0.622127
-0.619088
-0.605465
-0.583669
-0.556106
-0.524722
-0.490994
-0.456018
-0.420571
-0.385186
-0.350206
-0.315838
-0.282189
-0.249294
-0.21714
-0.185675
-0.154824
-0.124495
-0.0945793
-0.0649623
-0.0355188
-0.00611643
0.0233842
0.0531299
0.0832753
0.113983
0.145422
0.177768
0.211201
0.245896
0.282021
0.319716
0.35908
0.40014
0.442812
0.486857
0.531814
0.576935
0.6211
0.662749
0.69982
0.729712
0.749361
0.755849
0.746536
0.713706
0.648133
-0.614302
-0.680698
-0.711201
-0.716673
-0.706495
-0.684269
-0.653363
-0.616881
-0.577189
-0.535976
-0.494408
-0.453249
-0.412969
-0.373825
-0.335931
-0.299303
-0.263891
-0.229604
-0.196325
-0.16392
-0.132247
-0.101156
-0.0704908
-0.0400934
-0.00979987
0.0205596
0.051162
0.0821936
0.113851
0.146345
0.179895
0.214737
0.251112
0.289266
0.329434
0.371825
0.416592
0.463791
0.513327
0.564874
0.617783
0.670963
0.72276
0.77083
0.812016
0.842365
0.857787
0.854182
0.821199
0.74693
-0.725419
-0.801253
-0.830593
-0.828173
-0.806984
-0.772471
-0.729262
-0.681279
-0.631303
-0.581162
-0.532
-0.484475
-0.438907
-0.395399
-0.353917
-0.31434
-0.276505
-0.24022
-0.205285
-0.171499
-0.13866
-0.106571
-0.0750358
-0.0438604
-0.0128496
0.0181959
0.0494821
0.0812256
0.113657
0.147024
0.181595
0.21766
0.255531
0.29554
0.338031
0.383344
0.43179
0.483611
0.538919
0.597609
0.659239
0.722871
0.786883
0.848748
0.904773
0.949985
0.978769
0.984896
0.954031
0.870055
-0.865151
-0.951501
-0.976097
-0.960106
-0.922108
-0.870185
-0.810528
-0.747915
-0.685429
-0.62487
-0.567188
-0.51278
-0.461702
-0.413805
-0.368836
-0.326494
-0.286461
-0.248426
-0.212092
-0.177176
-0.143416
-0.110564
-0.0783825
-0.0466443
-0.0151242
0.0164041
0.0481729
0.080426
0.113424
0.147452
0.18282
0.219876
0.259002
0.300621
0.345194
0.393212
0.445174
0.501557
0.562754
0.628984
0.700155
0.775667
0.854144
0.933091
1.00843
1.07415
1.12276
1.14503
1.12053
1.02621
-1.04575
-1.14244
-1.15526
-1.11637
-1.05293
-0.976592
-0.89527
-0.814418
-0.737102
-0.664764
-0.597876
-0.536357
-0.479828
-0.427778
-0.379656
-0.334926
-0.293086
-0.253684
-0.216312
-0.180607
-0.146241
-0.112917
-0.0803604
-0.0483125
-0.0165229
0.0152571
0.047281
0.0798153
0.113146
0.147588
0.183492
0.221256
0.261331
0.304232
0.35054
0.400908
0.456051
0.516724
0.583678
0.657577
0.738857
0.827505
0.922726
1.02245
1.12261
1.21637
1.29423
1.34293
1.33282
1.22912
-1.28828
-1.39058
-1.37777
-1.30073
-1.1992
-1.08917
-0.979953
-0.877041
-0.782804
-0.697758
-0.621476
-0.553093
-0.4916
-0.435993
-0.385346
-0.338842
-0.295772
-0.25553
-0.217598
-0.18153
-0.14694
-0.113488
-0.0808677
-0.0487957
-0.0170034
0.0147733
0.0468028
0.0793666
0.112769
0.147349
0.183487
0.221625
0.262275
0.306034
0.353604
0.405802
0.46357
0.52798
0.600206
0.681479
0.772967
0.875567
0.989534
1.11388
1.24531
1.37693
1.49759
1.58921
1.60879
1.50198
-1.63132
-1.7209
-1.65487
-1.51503
-1.35756
-1.20227
-1.05846
-0.930118
-0.81771
-0.71995
-0.634933
-0.560657
-0.495271
-0.43716
-0.384967
-0.337567
-0.294041
-0.253633
-0.215724
-0.179799
-0.145425
-0.112231
-0.0798883
-0.0481019
-0.0165936
0.0149075
0.0466753
0.0789979
0.112188
0.146598
0.182629
0.220752
0.261526
0.305619
0.353834
0.407141
0.466709
0.533932
0.610455
0.698178
0.799202
0.915691
1.04955
1.20186
1.3714
1.55296
1.73535
1.89611
1.9752
1.88655
-2.14623
-2.17053
-1.99746
-1.75622
-1.51887
-1.30537
-1.12113
-0.965694
-0.83566
-0.726762
-0.634946
-0.556725
-0.489238
-0.4302
-0.377811
-0.330656
-0.287629
-0.247854
-0.210636
-0.175417
-0.141736
-0.109209
-0.0775036
-0.0463242
-0.0153954
0.0155489
0.0467778
0.0785749
0.111251
0.145157
0.180701
0.218366
0.258738
0.302528
0.350617
0.404093
0.464317
0.532983
0.612202
0.704584
0.813309
0.942149
1.09535
1.27719
1.49074
1.73568
2.00496
2.27562
2.47108
2.4583
-2.96285
-2.78885
-2.41255
-2.01409
-1.66715
-1.38299
-1.15549
-0.974614
-0.83032
-0.71401
-0.618873
-0.539713
-0.472625
-0.414697
-0.363754
-0.318163
-0.276693
-0.238404
-0.202571
-0.168625
-0.136109
-0.104648
-0.0739246
-0.0436582
-0.0135905
0.016528
0.0469495
0.077942
0.1098
0.142862
0.177522
0.214258
0.253651
0.296425
0.343492
0.396008
0.455457
0.523758
0.603408
0.697669
0.810818
0.94843
1.11768
1.32744
1.58791
1.90911
2.29634
2.73534
3.1472
3.35108
-4.3767
-3.61538
-2.87517
-2.25482
-1.77113
-1.41091
-1.14502
-0.946518
-0.79561
-0.678391
-0.585137
-0.509074
-0.445476
-0.391012
-0.34331
-0.300658
-0.261807
-0.225831
-0.192032
-0.159878
-0.128949
-0.0989055
-0.0694649
-0.0403786
-0.0114188
0.0176351
0.0470073
0.0769376
0.107693
0.139581
0.172966
0.208293
0.246111
0.287113
0.332185
0.382473
0.439484
0.505218
0.582377
0.674656
0.787187
0.92719
1.1049
1.33478
1.63727
2.04027
2.57381
3.2486
4.04342
4.86867
-7.21626
-4.61817
-3.20357
-2.32374
-1.72354
-1.31973
-1.04623
-0.854404
-0.714634
-0.609117
-0.52666
-0.460032
-0.404474
-0.356784
-0.314763
-0.276872
-0.24202
-0.209417
-0.178482
-0.14878
-0.119976
-0.091801
-0.0640338
-0.0364794
-0.00895818
0.0187058
0.0466941
0.0752024
0.104452
0.134701
0.166257
0.199499
0.2349
0.27306
0.314756
0.361006
0.413166
0.473072
0.54326
0.627307
0.730393
0.86023
1.02861
1.25408
1.56726
2.0187
2.67824
3.63087
5.13125
7.8461
-12.0857
-5.70239
-3.04165
-1.95103
-1.36332
-1.01777
-0.806163
-0.666614
-0.567582
-0.493119
-0.434363
-0.385995
-0.344669
-0.308199
-0.275121
-0.24443
-0.215432
-0.187637
-0.160697
-0.134359
-0.108431
-0.0827629
-0.0572283
-0.0317146
-0.00611381
0.0196844
0.0457981
0.0723596
0.099521
0.127462
0.156401
0.186606
0.218414
0.252256
0.288689
0.328446
0.372505
0.42219
0.479333
0.546528
0.627579
0.728317
0.858187
1.03377
1.28725
1.68276
2.33722
3.52282
6.29969
12.8065
)
;

boundaryField
{
    movingWall
    {
        type            zeroGradient;
    }
    fixedWalls
    {
        type            zeroGradient;
    }
    frontAndBack
    {
        type            empty;
    }
}


// ************************************************************************* //
