/*--------------------------------*- C++ -*----------------------------------*\
  =========                 |
  \\      /  F ield         | OpenFOAM: The Open Source CFD Toolbox
   \\    /   O peration     | Website:  https://openfoam.org
    \\  /    A nd           | Version:  7
     \\/     M anipulation  |
\*---------------------------------------------------------------------------*/
FoamFile
{
    version     2.0;
    format      ascii;
    class       surfaceScalarField;
    location    "0.0248";
    object      phi;
}
// * * * * * * * * * * * * * * * * * * * * * * * * * * * * * * * * * * * * * //

dimensions      [0 3 -1 0 0 0 0];

internalField   nonuniform List<scalar> 
4900
(
5.45553e-06
-5.45551e-06
9.9549e-06
-4.49937e-06
1.26956e-05
-2.74073e-06
1.44126e-05
-1.71696e-06
1.55263e-05
-1.11367e-06
1.62757e-05
-7.49452e-07
1.68021e-05
-5.264e-07
1.71872e-05
-3.85117e-07
1.74785e-05
-2.91279e-07
1.77044e-05
-2.25929e-07
1.7883e-05
-1.78522e-07
1.80259e-05
-1.42969e-07
1.81415e-05
-1.156e-07
1.82356e-05
-9.40944e-08
1.83125e-05
-7.69185e-08
1.83756e-05
-6.30161e-08
1.84272e-05
-5.16319e-08
1.84694e-05
-4.22081e-08
1.85037e-05
-3.43207e-08
1.85314e-05
-2.76381e-08
1.85533e-05
-2.18943e-08
1.85701e-05
-1.68702e-08
1.85825e-05
-1.23798e-08
1.85908e-05
-8.26098e-09
1.85951e-05
-4.36724e-09
1.85957e-05
-5.62016e-10
1.85924e-05
3.2891e-09
1.85851e-05
7.31948e-09
1.85734e-05
1.16716e-08
1.85569e-05
1.65008e-08
1.85349e-05
2.19834e-08
1.85066e-05
2.83271e-08
1.84708e-05
3.57841e-08
1.84262e-05
4.46697e-08
1.83708e-05
5.53905e-08
1.83023e-05
6.84845e-08
1.82176e-05
8.46856e-08
1.81126e-05
1.05026e-07
1.79816e-05
1.31008e-07
1.78166e-05
1.64908e-07
1.76063e-05
2.10331e-07
1.7333e-05
2.73269e-07
1.69689e-05
3.64192e-07
1.64667e-05
5.02187e-07
1.5744e-05
7.22638e-07
1.46549e-05
1.08911e-06
1.29446e-05
1.71035e-06
1.01625e-05
2.7821e-06
5.55781e-06
4.60466e-06
5.55781e-06
-1.18373e-07
-5.33714e-06
1.83281e-06
-6.45056e-06
4.41235e-06
-5.32027e-06
6.72388e-06
-4.02849e-06
8.59698e-06
-2.98678e-06
1.00702e-05
-2.2227e-06
1.12236e-05
-1.6798e-06
1.21317e-05
-1.29321e-06
1.28534e-05
-1.01297e-06
1.34327e-05
-8.05227e-07
1.39019e-05
-6.47733e-07
1.42848e-05
-5.2587e-07
1.45991e-05
-4.29888e-07
1.48582e-05
-3.53146e-07
1.50722e-05
-2.90998e-07
1.52493e-05
-2.40109e-07
1.53957e-05
-1.98018e-07
1.55164e-05
-1.62864e-07
1.56153e-05
-1.33205e-07
1.56955e-05
-1.07895e-07
1.57596e-05
-8.60008e-08
1.58095e-05
-6.67446e-08
1.58466e-05
-4.94603e-08
1.58719e-05
-3.35602e-08
1.5886e-05
-1.85104e-08
1.58893e-05
-3.8083e-09
1.58815e-05
1.10363e-08
1.58623e-05
2.65197e-08
1.58308e-05
4.31633e-08
1.57858e-05
6.15366e-08
1.57255e-05
8.22825e-08
1.56477e-05
1.06151e-07
1.55494e-05
1.34046e-07
1.5427e-05
1.67084e-07
1.52757e-05
2.06685e-07
1.50895e-05
2.54696e-07
1.48606e-05
3.13587e-07
1.45789e-05
3.86742e-07
1.4231e-05
4.78911e-07
1.37989e-05
5.96949e-07
1.32583e-05
7.51e-07
1.25751e-05
9.56431e-07
1.17024e-05
1.23692e-06
1.05755e-05
1.6291e-06
9.11001e-06
2.18809e-06
7.21126e-06
2.98786e-06
4.82494e-06
4.09667e-06
2.11878e-06
5.48826e-06
1.05487e-08
6.71289e-06
5.56836e-06
-1.08236e-06
-4.25478e-06
-7.5585e-07
-6.77707e-06
5.82888e-07
-6.65901e-06
2.28673e-06
-5.73233e-06
3.98624e-06
-4.68629e-06
5.52261e-06
-3.75907e-06
6.8491e-06
-3.00629e-06
7.96981e-06
-2.41392e-06
8.90788e-06
-1.95104e-06
9.69064e-06
-1.58798e-06
1.03437e-05
-1.30078e-06
1.0889e-05
-1.07124e-06
1.1345e-05
-8.8587e-07
1.17266e-05
-7.34711e-07
1.20459e-05
-6.10333e-07
1.2313e-05
-5.07135e-07
1.25358e-05
-4.20819e-07
1.27209e-05
-3.48026e-07
1.28738e-05
-2.86086e-07
1.29987e-05
-2.32826e-07
1.30992e-05
-1.86446e-07
1.31778e-05
-1.45419e-07
1.32368e-05
-1.08417e-07
1.32775e-05
-7.42568e-08
1.33008e-05
-4.1851e-08
1.33072e-05
-1.017e-08
1.32964e-05
2.17956e-08
1.32679e-05
5.50683e-08
1.32203e-05
9.07212e-08
1.3152e-05
1.2992e-07
1.30603e-05
1.73972e-07
1.2942e-05
2.24388e-07
1.27931e-05
2.8296e-07
1.26083e-05
3.51873e-07
1.23812e-05
4.33851e-07
1.21035e-05
5.32362e-07
1.17652e-05
6.51911e-07
1.13535e-05
7.98458e-07
1.08524e-05
9.80012e-07
1.02418e-05
1.20749e-06
9.49696e-06
1.49586e-06
8.58774e-06
1.86565e-06
7.48023e-06
2.34443e-06
6.14218e-06
2.96715e-06
4.55845e-06
3.77181e-06
2.7663e-06
4.78002e-06
9.24023e-07
5.93894e-06
-5.76632e-07
6.98892e-06
-1.03955e-06
7.17581e-06
4.52881e-06
-9.14089e-07
-3.34069e-06
-1.34688e-06
-6.34429e-06
-9.50215e-07
-7.05567e-06
-4.05332e-09
-6.67849e-06
1.1969e-06
-5.88724e-06
2.45435e-06
-5.01651e-06
3.65579e-06
-4.20774e-06
4.74902e-06
-3.50715e-06
5.71683e-06
-2.91884e-06
6.56002e-06
-2.43117e-06
7.28767e-06
-2.02842e-06
7.9119e-06
-1.69546e-06
8.44528e-06
-1.41925e-06
8.89964e-06
-1.18907e-06
9.28558e-06
-9.96278e-07
9.61238e-06
-8.33928e-07
9.88798e-06
-6.96418e-07
1.01191e-05
-5.7919e-07
1.03115e-05
-4.78487e-07
1.04699e-05
-3.9117e-07
1.0598e-05
-3.14568e-07
1.0699e-05
-2.4637e-07
1.07751e-05
-1.8453e-07
1.0828e-05
-1.27195e-07
1.08588e-05
-7.26456e-08
1.08679e-05
-1.92373e-08
1.0855e-05
3.4649e-08
1.08194e-05
9.0656e-08
1.07596e-05
1.50505e-07
1.06735e-05
2.16053e-07
1.05581e-05
2.89363e-07
1.04097e-05
3.7279e-07
1.02236e-05
4.69082e-07
9.99395e-06
5.81521e-07
9.7137e-06
7.14099e-07
9.37431e-06
8.71754e-07
8.96555e-06
1.06067e-06
8.47533e-06
1.28868e-06
7.88962e-06
1.56572e-06
7.19269e-06
1.90442e-06
6.36807e-06
2.32047e-06
5.40101e-06
2.83271e-06
4.28381e-06
3.46163e-06
3.02651e-06
4.22445e-06
1.6762e-06
5.12212e-06
3.47061e-07
6.10915e-06
-7.45578e-07
7.03158e-06
-1.27529e-06
7.51863e-06
-9.18316e-07
6.81884e-06
3.61049e-06
-6.67034e-07
-2.67365e-06
-1.30635e-06
-5.70497e-06
-1.43875e-06
-6.92327e-06
-1.07943e-06
-7.03781e-06
-3.82298e-07
-6.58438e-06
4.95105e-07
-5.89392e-06
1.43512e-06
-5.14776e-06
2.36248e-06
-4.4345e-06
3.23462e-06
-3.79099e-06
4.03086e-06
-3.22741e-06
4.74386e-06
-2.74143e-06
5.37396e-06
-2.32557e-06
5.92555e-06
-1.97084e-06
6.40489e-06
-1.66841e-06
6.81888e-06
-1.41028e-06
7.17438e-06
-1.18942e-06
7.47777e-06
-9.9981e-07
7.73484e-06
-8.36259e-07
7.95067e-06
-6.94315e-07
8.12962e-06
-5.70119e-07
8.27534e-06
-4.60289e-07
8.39079e-06
-3.61821e-07
8.47826e-06
-2.72e-07
8.53939e-06
-1.88324e-07
8.57518e-06
-1.08439e-07
8.58602e-06
-3.00725e-08
8.57164e-06
4.90264e-08
8.53115e-06
1.31144e-07
8.46299e-06
2.18668e-07
8.36488e-06
3.14158e-07
8.23382e-06
4.20423e-07
8.066e-06
5.40619e-07
7.85672e-06
6.78359e-07
7.60039e-06
8.37849e-07
7.29043e-06
1.02406e-06
6.91929e-06
1.2429e-06
6.4785e-06
1.50147e-06
5.95894e-06
1.80823e-06
5.35146e-06
2.17321e-06
4.64801e-06
2.60787e-06
3.84388e-06
3.1246e-06
2.94168e-06
3.73492e-06
1.95782e-06
4.44549e-06
9.32725e-07
5.24955e-06
-5.55599e-08
6.11041e-06
-8.78194e-07
6.93179e-06
-1.35618e-06
7.50957e-06
-1.30545e-06
7.4679e-06
-6.88325e-07
6.20171e-06
2.92217e-06
-4.74115e-07
-2.19954e-06
-1.11219e-06
-5.06689e-06
-1.49506e-06
-6.5404e-06
-1.51568e-06
-7.01719e-06
-1.21932e-06
-6.88074e-06
-7.00514e-07
-6.41272e-06
-5.23823e-08
-5.79589e-06
6.5184e-07
-5.13873e-06
1.36118e-06
-4.50033e-06
2.04327e-06
-3.90949e-06
2.67939e-06
-3.37755e-06
3.26019e-06
-2.90636e-06
3.78231e-06
-2.49296e-06
4.24612e-06
-2.13223e-06
4.65412e-06
-1.81828e-06
5.00991e-06
-1.54521e-06
5.31753e-06
-1.30743e-06
5.58107e-06
-1.0998e-06
5.80441e-06
-9.17654e-07
5.99104e-06
-7.56751e-07
6.14401e-06
-6.13252e-07
6.26583e-06
-4.8364e-07
6.35848e-06
-3.64658e-07
6.42341e-06
-2.53246e-07
6.46144e-06
-1.46477e-07
6.47287e-06
-4.14989e-08
6.45737e-06
6.45287e-08
6.41402e-06
1.74496e-07
6.34127e-06
2.9141e-07
6.23696e-06
4.18466e-07
6.09826e-06
5.59124e-07
5.92168e-06
7.172e-07
5.70308e-06
8.9696e-07
5.4377e-06
1.10323e-06
5.12027e-06
1.34149e-06
4.74518e-06
1.61799e-06
4.30685e-06
1.9398e-06
3.80035e-06
2.31473e-06
3.22246e-06
2.7511e-06
2.57337e-06
3.25696e-06
1.85936e-06
3.8386e-06
1.09678e-06
4.4975e-06
3.17481e-07
5.22479e-06
-4.24623e-07
5.99165e-06
-1.04802e-06
6.7338e-06
-1.44468e-06
7.32845e-06
-1.50009e-06
7.56498e-06
-1.15058e-06
7.11838e-06
-5.00496e-07
5.55163e-06
2.42167e-06
-3.44008e-07
-1.85553e-06
-9.1705e-07
-4.49385e-06
-1.3959e-06
-6.06155e-06
-1.63837e-06
-6.77472e-06
-1.62533e-06
-6.89378e-06
-1.39821e-06
-6.63984e-06
-1.01773e-06
-6.17637e-06
-5.42334e-07
-5.61413e-06
-1.96375e-08
-5.02303e-06
5.1517e-07
-4.4443e-06
1.03793e-06
-3.90031e-06
1.53319e-06
-3.40162e-06
1.9919e-06
-2.95166e-06
2.40947e-06
-2.5498e-06
2.78433e-06
-2.19314e-06
3.11683e-06
-1.87771e-06
3.40846e-06
-1.59906e-06
3.66133e-06
-1.35268e-06
3.87779e-06
-1.13412e-06
4.06019e-06
-9.39143e-07
4.21067e-06
-7.63737e-07
4.33112e-06
-6.04085e-07
4.42302e-06
-4.56559e-07
4.48745e-06
-3.17675e-07
4.52502e-06
-1.84047e-07
4.53586e-06
-5.23378e-08
4.51959e-06
8.07944e-08
4.47533e-06
2.18753e-07
4.40168e-06
3.65063e-07
4.29672e-06
5.2343e-07
4.15803e-06
6.97811e-07
3.98276e-06
8.92471e-07
3.76766e-06
1.11205e-06
3.50927e-06
1.36162e-06
3.20407e-06
1.64669e-06
2.84889e-06
1.97317e-06
2.44144e-06
2.34724e-06
1.98116e-06
2.77501e-06
1.47043e-06
3.26183e-06
9.16385e-07
3.81101e-06
3.33298e-07
4.42169e-06
-2.54338e-07
5.08514e-06
-8.08519e-07
5.77897e-06
-1.27527e-06
6.4584e-06
-1.58561e-06
7.04415e-06
-1.6648e-06
7.40763e-06
-1.45734e-06
7.35752e-06
-9.75384e-07
6.63642e-06
-3.70851e-07
4.9471e-06
2.05082e-06
-2.59671e-07
-1.59586e-06
-7.57917e-07
-3.9956e-06
-1.25655e-06
-5.56291e-06
-1.61782e-06
-6.41345e-06
-1.79183e-06
-6.71977e-06
-1.78376e-06
-6.64791e-06
-1.62559e-06
-6.33453e-06
-1.35757e-06
-5.88215e-06
-1.01804e-06
-5.36256e-06
-6.39124e-07
-4.82321e-06
-2.45608e-07
-4.29383e-06
1.44516e-07
-3.79174e-06
5.18901e-07
-3.32605e-06
8.69579e-07
-2.90047e-06
1.19183e-06
-2.51539e-06
1.48325e-06
-2.16913e-06
1.74301e-06
-1.85882e-06
1.97128e-06
-1.58095e-06
2.16886e-06
-1.3317e-06
2.33685e-06
-1.10713e-06
2.47642e-06
-9.03309e-07
2.58868e-06
-7.16344e-07
2.67454e-06
-5.4242e-07
2.73466e-06
-3.77788e-07
2.76935e-06
-2.1874e-07
2.77859e-06
-6.1579e-08
2.76197e-06
9.74171e-08
2.71868e-06
2.6204e-07
2.64755e-06
4.36192e-07
2.54704e-06
6.23937e-07
2.41533e-06
8.29529e-07
2.25035e-06
1.05745e-06
2.04997e-06
1.31243e-06
1.81221e-06
1.59939e-06
1.53549e-06
1.92341e-06
1.21912e-06
2.28953e-06
8.63946e-07
2.70242e-06
4.73197e-07
3.16576e-06
5.36843e-08
3.68134e-06
-3.827e-07
4.24739e-06
-8.17227e-07
4.85621e-06
-1.22256e-06
5.49047e-06
-1.56162e-06
6.11803e-06
-1.78832e-06
6.6851e-06
-1.8523e-06
7.10813e-06
-1.71089e-06
7.26622e-06
-1.35147e-06
6.9981e-06
-8.25314e-07
6.11027e-06
-2.85525e-07
4.40731e-06
1.76529e-06
-2.04379e-07
-1.39148e-06
-6.35951e-07
-3.56403e-06
-1.1207e-06
-5.07816e-06
-1.5391e-06
-5.99506e-06
-1.83069e-06
-6.42818e-06
-1.97919e-06
-6.49941e-06
-1.99519e-06
-6.31853e-06
-1.90229e-06
-5.97506e-06
-1.72791e-06
-5.53693e-06
-1.49813e-06
-5.05299e-06
-1.23525e-06
-4.55672e-06
-9.57048e-07
-4.06994e-06
-6.77023e-07
-3.60607e-06
-4.04932e-07
-3.17256e-06
-1.47518e-07
-2.77281e-06
9.08045e-08
-2.40745e-06
3.07352e-07
-2.07536e-06
5.00676e-07
-1.77427e-06
6.70165e-07
-1.50119e-06
8.1574e-07
-1.25271e-06
9.3762e-07
-1.02519e-06
1.03614e-06
-8.14863e-07
1.11162e-06
-6.17903e-07
1.16428e-06
-4.30448e-07
1.19415e-06
-2.48613e-07
1.20106e-06
-6.84836e-08
1.18457e-06
1.13906e-07
1.14402e-06
3.02592e-07
1.07851e-06
5.01703e-07
9.86965e-07
7.15479e-07
8.68214e-07
9.4828e-07
7.21097e-07
1.20457e-06
5.44649e-07
1.48887e-06
3.38353e-07
1.80568e-06
1.0248e-07
2.15928e-06
-1.61433e-07
2.55345e-06
-4.49969e-07
2.99095e-06
-7.57041e-07
3.47283e-06
-1.07294e-06
3.99724e-06
-1.3833e-06
4.55775e-06
-1.66808e-06
5.141e-06
-1.90107e-06
5.72346e-06
-2.05037e-06
6.26733e-06
-2.08105e-06
6.71578e-06
-1.96136e-06
6.98843e-06
-1.67402e-06
6.97888e-06
-1.23335e-06
6.55743e-06
-7.06167e-07
5.58308e-06
-2.28717e-07
3.92986e-06
1.53658e-06
-1.67034e-07
-1.22444e-06
-5.43896e-07
-3.18717e-06
-1.00216e-06
-4.61989e-06
-1.44268e-06
-5.55454e-06
-1.8049e-06
-6.06596e-06
-2.06155e-06
-6.24275e-06
-2.20892e-06
-6.17117e-06
-2.25741e-06
-5.92657e-06
-2.22425e-06
-5.57009e-06
-2.1286e-06
-5.14865e-06
-1.98866e-06
-4.69666e-06
-1.82028e-06
-4.23832e-06
-1.63649e-06
-3.78987e-06
-1.44748e-06
-3.36157e-06
-1.26097e-06
-2.95931e-06
-1.0826e-06
-2.58583e-06
-9.16309e-07
-2.24165e-06
-7.64797e-07
-1.92578e-06
-6.29798e-07
-1.63619e-06
-5.12383e-07
-1.37012e-06
-4.1318e-07
-1.12439e-06
-3.32546e-07
-8.95498e-07
-2.70703e-07
-6.79746e-07
-2.27841e-07
-4.7331e-07
-2.04185e-07
-2.72269e-07
-2.00042e-07
-7.2627e-08
-2.1582e-07
1.29684e-07
-2.52028e-07
3.388e-07
-3.09242e-07
5.58917e-07
-3.88049e-07
7.94287e-07
-4.88953e-07
1.04918e-06
-6.12233e-07
1.32785e-06
-7.57749e-07
1.63439e-06
-9.24687e-07
1.97262e-06
-1.11121e-06
2.34581e-06
-1.31402e-06
2.75626e-06
-1.52785e-06
3.20478e-06
-1.74482e-06
3.68981e-06
-1.95383e-06
4.20625e-06
-2.13997e-06
4.74388e-06
-2.28425e-06
5.28528e-06
-2.36399e-06
5.80321e-06
-2.35438e-06
6.25772e-06
-2.2319e-06
6.5933e-06
-1.98049e-06
6.73702e-06
-1.60079e-06
6.59918e-06
-1.12192e-06
6.07856e-06
-6.1317e-07
5.07433e-06
-1.89578e-07
3.50627e-06
1.347e-06
-1.40926e-07
-1.08352e-06
-4.74151e-07
-2.85395e-06
-9.03034e-07
-4.19101e-06
-1.34662e-06
-5.11096e-06
-1.74893e-06
-5.66365e-06
-2.07822e-06
-5.91346e-06
-2.32204e-06
-5.92735e-06
-2.48124e-06
-5.76738e-06
-2.56457e-06
-5.48675e-06
-2.58464e-06
-5.12858e-06
-2.55508e-06
-4.72622e-06
-2.48889e-06
-4.30451e-06
-2.39758e-06
-3.88118e-06
-2.29083e-06
-3.46832e-06
-2.17646e-06
-3.07368e-06
-2.06061e-06
-2.70167e-06
-1.94797e-06
-2.3543e-06
-1.84201e-06
-2.03174e-06
-1.74529e-06
-1.73291e-06
-1.65963e-06
-1.45578e-06
-1.58634e-06
-1.19768e-06
-1.52633e-06
-9.55499e-07
-1.4803e-06
-7.25776e-07
-1.44877e-06
-5.04843e-07
-1.43217e-06
-2.88866e-07
-1.43091e-06
-7.38938e-08
-1.44534e-06
1.44112e-07
-1.47578e-06
3.69248e-07
-1.52251e-06
6.0564e-07
-1.58562e-06
8.57396e-07
-1.66498e-06
1.12855e-06
-1.76009e-06
1.42296e-06
-1.86986e-06
1.74415e-06
-1.99237e-06
2.09513e-06
-2.1246e-06
2.47804e-06
-2.26204e-06
2.8937e-06
-2.39832e-06
3.34106e-06
-2.52477e-06
3.81626e-06
-2.63014e-06
4.31161e-06
-2.70042e-06
4.81416e-06
-2.71914e-06
5.304e-06
-2.66831e-06
5.75239e-06
-2.53049e-06
6.11989e-06
-2.29224e-06
6.35505e-06
-1.94949e-06
6.39427e-06
-1.51437e-06
6.16407e-06
-1.02278e-06
5.58697e-06
-5.4013e-07
4.59168e-06
-1.61494e-07
3.12763e-06
1.1855e-06
-1.22045e-07
-9.61473e-07
-4.20653e-07
-2.55534e-06
-8.21376e-07
-3.79029e-06
-1.25817e-06
-4.67417e-06
-1.68116e-06
-5.24066e-06
-2.05785e-06
-5.53676e-06
-2.37099e-06
-5.61421e-06
-2.61491e-06
-5.52345e-06
-2.79189e-06
-5.30977e-06
-2.90888e-06
-5.01159e-06
-2.97512e-06
-4.65998e-06
-3.00048e-06
-4.27915e-06
-2.99444e-06
-3.88722e-06
-2.9655e-06
-3.49726e-06
-2.92099e-06
-3.11819e-06
-2.86699e-06
-2.75568e-06
-2.8084e-06
-2.41288e-06
-2.74914e-06
-2.091e-06
-2.69224e-06
-1.78981e-06
-2.64003e-06
-1.50799e-06
-2.59429e-06
-1.24342e-06
-2.55638e-06
-9.93408e-07
-2.52733e-06
-7.54833e-07
-2.5079e-06
-5.2427e-07
-2.49869e-06
-2.9807e-07
-2.50015e-06
-7.24368e-08
-2.51257e-06
1.56526e-07
-2.53608e-06
3.92759e-07
-2.57063e-06
6.40191e-07
-2.6159e-06
9.02671e-07
-2.67122e-06
1.18387e-06
-2.73541e-06
1.48715e-06
-2.80663e-06
1.81538e-06
-2.88218e-06
2.17068e-06
-2.95824e-06
2.5541e-06
-3.02963e-06
2.96509e-06
-3.08953e-06
3.40096e-06
-3.12935e-06
3.85607e-06
-3.13857e-06
4.32084e-06
-3.10504e-06
4.78063e-06
-3.01552e-06
5.21449e-06
-2.85699e-06
5.59385e-06
-2.61871e-06
5.88161e-06
-2.29543e-06
6.03177e-06
-1.89154e-06
5.99038e-06
-1.42593e-06
5.69845e-06
-9.36365e-07
5.09741e-06
-4.81856e-07
4.13717e-06
-1.40523e-07
2.7863e-06
1.04498e-06
-1.07967e-07
-8.53507e-07
-3.78976e-07
-2.28433e-06
-7.54258e-07
-3.41501e-06
-1.17953e-06
-4.24889e-06
-1.61108e-06
-4.80912e-06
-2.01759e-06
-5.13025e-06
-2.37953e-06
-5.25227e-06
-2.68712e-06
-5.21586e-06
-2.93788e-06
-5.05902e-06
-3.13422e-06
-4.81524e-06
-3.28153e-06
-4.51267e-06
-3.38664e-06
-4.17404e-06
-3.45679e-06
-3.81707e-06
-3.49902e-06
-3.45503e-06
-3.51972e-06
-3.09748e-06
-3.52452e-06
-2.75088e-06
-3.51821e-06
-2.4192e-06
-3.50474e-06
-2.10447e-06
-3.48738e-06
-1.80718e-06
-3.46873e-06
-1.52664e-06
-3.45086e-06
-1.26129e-06
-3.4354e-06
-1.00887e-06
-3.42359e-06
-7.66637e-07
-3.41639e-06
-5.31468e-07
-3.41448e-06
-2.99981e-07
-3.4183e-06
-6.86172e-08
-3.42806e-06
1.66284e-07
-3.44372e-06
4.08414e-07
-3.46494e-06
6.61412e-07
-3.49104e-06
9.28776e-07
-3.52091e-06
1.21374e-06
-3.55286e-06
1.5191e-06
-3.58454e-06
1.84706e-06
-3.61273e-06
2.19887e-06
-3.63321e-06
2.57457e-06
-3.64058e-06
2.97247e-06
-3.62819e-06
3.38857e-06
-3.58805e-06
3.81594e-06
-3.51106e-06
4.24385e-06
-3.38736e-06
4.65693e-06
-3.20717e-06
5.03429e-06
-2.96209e-06
5.34877e-06
-2.64709e-06
5.56661e-06
-2.26312e-06
5.6478e-06
-1.8202e-06
5.54747e-06
-1.34065e-06
5.2189e-06
-8.61403e-07
4.61816e-06
-4.34507e-07
3.71028e-06
-1.24303e-07
2.4761e-06
9.20679e-07
-9.71854e-08
-7.56321e-07
-3.45982e-07
-2.03553e-06
-6.98876e-07
-3.06211e-06
-1.11073e-06
-3.83704e-06
-1.5434e-06
-4.37645e-06
-1.96761e-06
-4.70603e-06
-2.36315e-06
-4.85674e-06
-2.71778e-06
-4.86123e-06
-3.02569e-06
-4.7511e-06
-3.28585e-06
-4.55509e-06
-3.50039e-06
-4.29813e-06
-3.67342e-06
-4.00102e-06
-3.81002e-06
-3.68046e-06
-3.91561e-06
-3.34944e-06
-3.99548e-06
-3.01761e-06
-4.05453e-06
-2.69183e-06
-4.09713e-06
-2.3766e-06
-4.12708e-06
-2.07452e-06
-4.1476e-06
-1.78665e-06
-4.16137e-06
-1.51286e-06
-4.1706e-06
-1.25206e-06
-4.17703e-06
-1.00244e-06
-4.18205e-06
-7.61621e-07
-4.18668e-06
-5.26841e-07
-4.19163e-06
-2.95032e-07
-4.19731e-06
-6.29346e-08
-4.20384e-06
1.72811e-07
-4.211e-06
4.15577e-07
-4.21824e-06
6.68649e-07
-4.22458e-06
9.35117e-07
-4.22857e-06
1.21773e-06
-4.22821e-06
1.51874e-06
-4.22082e-06
1.83966e-06
-4.20295e-06
2.181e-06
-4.17031e-06
2.54193e-06
-4.11768e-06
2.91983e-06
-4.03893e-06
3.30982e-06
-3.92716e-06
3.70416e-06
-3.77494e-06
4.09162e-06
-3.57488e-06
4.45687e-06
-3.3205e-06
4.77991e-06
-3.00748e-06
5.03575e-06
-2.63534e-06
5.19447e-06
-2.20948e-06
5.22194e-06
-1.74343e-06
5.08142e-06
-1.26077e-06
4.73625e-06
-7.96279e-07
4.15367e-06
-3.95367e-07
3.30936e-06
-1.11389e-07
2.19212e-06
8.0929e-07
-8.87432e-08
-6.67578e-07
-3.19467e-07
-1.80481e-06
-6.52889e-07
-2.72869e-06
-1.05095e-06
-3.43897e-06
-1.48029e-06
-3.94711e-06
-1.91397e-06
-4.27235e-06
-2.33197e-06
-4.43874e-06
-2.72074e-06
-4.47246e-06
-3.07229e-06
-4.39956e-06
-3.38295e-06
-4.24442e-06
-3.65232e-06
-4.02876e-06
-3.88214e-06
-3.77119e-06
-4.07554e-06
-3.48707e-06
-4.23634e-06
-3.18864e-06
-4.36864e-06
-2.88532e-06
-4.47648e-06
-2.58399e-06
-4.56366e-06
-2.28942e-06
-4.63362e-06
-2.00456e-06
-4.68938e-06
-1.73089e-06
-4.73355e-06
-1.4687e-06
-4.7683e-06
-1.21731e-06
-4.79541e-06
-9.75327e-07
-4.81628e-06
-7.40757e-07
-4.83193e-06
-5.11186e-07
-4.84307e-06
-2.83892e-07
-4.85005e-06
-5.59571e-08
-4.85287e-06
1.75635e-07
-4.85119e-06
4.13894e-07
-4.84425e-06
6.61715e-07
-4.83089e-06
9.21755e-07
-4.80945e-06
1.19629e-06
-4.77771e-06
1.48701e-06
-4.7329e-06
1.79485e-06
-4.67155e-06
2.11966e-06
-4.58957e-06
2.45995e-06
-4.48219e-06
2.81245e-06
-4.34411e-06
3.17174e-06
-4.16968e-06
3.52973e-06
-3.95329e-06
3.87524e-06
-3.68998e-06
4.19356e-06
-3.3762e-06
4.46614e-06
-3.01102e-06
4.67057e-06
-2.59743e-06
4.78088e-06
-2.14393e-06
4.76844e-06
-1.66599e-06
4.60348e-06
-1.18719e-06
4.25744e-06
-7.39528e-07
3.70601e-06
-3.62547e-07
2.93238e-06
-1.00871e-07
1.93044e-06
7.08419e-07
-8.20124e-08
-5.85566e-07
-2.97888e-07
-1.58893e-06
-6.14466e-07
-2.41211e-06
-9.99178e-07
-3.05426e-06
-1.42267e-06
-3.52362e-06
-1.86029e-06
-3.83473e-06
-2.2927e-06
-4.00633e-06
-2.70578e-06
-4.05938e-06
-3.09011e-06
-4.01522e-06
-3.4402e-06
-3.89433e-06
-3.75362e-06
-3.71535e-06
-4.03018e-06
-3.49463e-06
-4.27127e-06
-3.24597e-06
-4.47928e-06
-2.98064e-06
-4.65711e-06
-2.70749e-06
-4.8079e-06
-2.43319e-06
-4.9348e-06
-2.16252e-06
-5.04076e-06
-1.8986e-06
-5.12851e-06
-1.64315e-06
-5.20043e-06
-1.39677e-06
-5.25858e-06
-1.15916e-06
-5.30466e-06
-9.29244e-07
-5.34002e-06
-7.05398e-07
-5.36564e-06
-4.85563e-07
-5.38217e-06
-2.6737e-07
-5.38986e-06
-4.82597e-08
-5.38864e-06
1.74417e-07
-5.37804e-06
4.03287e-07
-5.35717e-06
6.40843e-07
-5.32472e-06
8.89311e-07
-5.27894e-06
1.1505e-06
-5.21756e-06
1.42563e-06
-5.13784e-06
1.71512e-06
-5.03649e-06
2.01832e-06
-4.90979e-06
2.33325e-06
-4.75363e-06
2.65629e-06
-4.56364e-06
2.98176e-06
-4.33556e-06
3.30165e-06
-4.06556e-06
3.60524e-06
-3.75086e-06
3.87885e-06
-3.39046e-06
4.10574e-06
-2.98612e-06
4.26624e-06
-2.54343e-06
4.33819e-06
-2.07288e-06
4.29789e-06
-1.59085e-06
4.12144e-06
-1.12016e-06
3.78675e-06
-6.89977e-07
3.27582e-06
-3.34744e-07
2.57715e-06
-9.21651e-08
1.68786e-06
6.16253e-07
-7.6574e-08
-5.08992e-07
-2.80161e-07
-1.38535e-06
-5.82223e-07
-2.11005e-06
-9.54466e-07
-2.68202e-06
-1.37084e-06
-3.10724e-06
-1.80879e-06
-3.39678e-06
-2.24985e-06
-3.56527e-06
-2.67982e-06
-3.62942e-06
-3.08842e-06
-3.60662e-06
-3.46885e-06
-3.51389e-06
-3.81717e-06
-3.36704e-06
-4.13163e-06
-3.18017e-06
-4.41216e-06
-2.96544e-06
-4.65985e-06
-2.73296e-06
-4.87651e-06
-2.49083e-06
-5.0644e-06
-2.2453e-06
-5.22596e-06
-2.00097e-06
-5.36363e-06
-1.76092e-06
-5.47974e-06
-1.52704e-06
-5.57641e-06
-1.30011e-06
-5.65549e-06
-1.08007e-06
-5.71855e-06
-8.66183e-07
-5.76683e-06
-6.57125e-07
-5.80121e-06
-4.5118e-07
-5.82225e-06
-2.46329e-07
-5.83014e-06
-4.0372e-08
-5.82469e-06
1.68968e-07
-5.80534e-06
3.83936e-07
-5.77112e-06
6.06627e-07
-5.72067e-06
8.3886e-07
-5.6522e-06
1.08203e-06
-5.5635e-06
1.33694e-06
-5.45198e-06
1.60359e-06
-5.31466e-06
1.881e-06
-5.14832e-06
2.16692e-06
-4.94958e-06
2.45754e-06
-4.71511e-06
2.74729e-06
-4.44198e-06
3.02851e-06
-4.128e-06
3.29126e-06
-3.77231e-06
3.52316e-06
-3.37604e-06
3.70947e-06
-2.94304e-06
3.83324e-06
-2.48072e-06
3.87587e-06
-2.00081e-06
3.81798e-06
-1.51992e-06
3.64055e-06
-1.05975e-06
3.32658e-06
-6.46741e-07
2.86281e-06
-3.11057e-07
2.24147e-06
-8.48843e-08
1.46169e-06
5.31369e-07
-7.21436e-08
-4.36848e-07
-2.65524e-07
-1.19197e-06
-5.55137e-07
-1.82044e-06
-9.16028e-07
-2.32113e-06
-1.32484e-06
-2.69843e-06
-1.76086e-06
-2.96077e-06
-2.20657e-06
-3.11956e-06
-2.64791e-06
-3.18807e-06
-3.07416e-06
-3.18037e-06
-3.47762e-06
-3.11043e-06
-3.85321e-06
-2.99145e-06
-4.19797e-06
-2.83541e-06
-4.51062e-06
-2.65279e-06
-4.79112e-06
-2.45245e-06
-5.04033e-06
-2.24162e-06
-5.25966e-06
-2.02597e-06
-5.45089e-06
-1.80974e-06
-5.61592e-06
-1.59589e-06
-5.75666e-06
-1.38629e-06
-5.87492e-06
-1.18185e-06
-5.97231e-06
-9.82685e-07
-6.0502e-06
-7.88286e-07
-6.1097e-06
-5.97628e-07
-6.15158e-06
-4.09301e-07
-6.17629e-06
-2.21622e-07
-6.18392e-06
-3.27404e-08
-6.17421e-06
1.59261e-07
-6.14653e-06
3.56256e-07
-6.09987e-06
5.59966e-07
-6.03285e-06
7.71838e-07
-5.94372e-06
9.92906e-07
-5.83043e-06
1.22364e-06
-5.69059e-06
1.46375e-06
-5.52163e-06
1.71205e-06
-5.32087e-06
1.96616e-06
-5.08572e-06
2.22238e-06
-4.81384e-06
2.47542e-06
-4.50355e-06
2.71822e-06
-4.15413e-06
2.94184e-06
-3.76636e-06
3.13539e-06
-3.34305e-06
3.28615e-06
-2.88964e-06
3.37982e-06
-2.4148e-06
3.40104e-06
-1.93095e-06
3.33413e-06
-1.45451e-06
3.16412e-06
-1.00593e-06
2.878e-06
-6.09182e-07
2.46606e-06
-2.90866e-07
1.92315e-06
-7.87706e-08
1.2496e-06
4.52599e-07
-6.85269e-08
-3.68321e-07
-2.53444e-07
-1.00705e-06
-5.32469e-07
-1.54141e-06
-8.83259e-07
-1.97034e-06
-1.28464e-06
-2.29705e-06
-1.71744e-06
-2.52796e-06
-2.16508e-06
-2.67192e-06
-2.61379e-06
-2.73937e-06
-3.05262e-06
-2.74155e-06
-3.47329e-06
-2.68976e-06
-3.86989e-06
-2.59485e-06
-4.23851e-06
-2.46678e-06
-4.5769e-06
-2.3144e-06
-4.8841e-06
-2.14526e-06
-5.1601e-06
-1.96562e-06
-5.4056e-06
-1.78047e-06
-5.62172e-06
-1.59361e-06
-5.80988e-06
-1.40774e-06
-5.97155e-06
-1.22462e-06
-6.10822e-06
-1.04518e-06
-6.22125e-06
-8.69658e-07
-6.31181e-06
-6.97729e-07
-6.38082e-06
-5.2861e-07
-6.42895e-06
-3.61173e-07
-6.45653e-06
-1.94044e-07
-6.46357e-06
-2.57025e-08
-6.44973e-06
1.45425e-07
-6.41434e-06
3.20867e-07
-6.35638e-06
5.02003e-07
-6.27449e-06
6.89952e-07
-6.16704e-06
8.85449e-07
-6.03211e-06
1.08871e-06
-5.86763e-06
1.29928e-06
-5.67144e-06
1.51586e-06
-5.44144e-06
1.73616e-06
-5.17576e-06
1.95671e-06
-4.87303e-06
2.17269e-06
-4.53267e-06
2.37785e-06
-4.15521e-06
2.56438e-06
-3.74278e-06
2.72297e-06
-3.29953e-06
2.8429e-06
-2.83205e-06
2.91235e-06
-2.34987e-06
2.91886e-06
-1.8657e-06
2.84996e-06
-1.39558e-06
2.69399e-06
-9.58682e-07
2.4411e-06
-5.76856e-07
2.08424e-06
-2.73747e-07
1.62004e-06
-7.36495e-08
1.0495e-06
3.78949e-07
-6.55905e-08
-3.02731e-07
-2.4355e-07
-8.29089e-07
-5.13693e-07
-1.27127e-06
-8.55713e-07
-1.62832e-06
-1.25017e-06
-1.90259e-06
-1.67921e-06
-2.09892e-06
-2.12705e-06
-2.22408e-06
-2.58026e-06
-2.28615e-06
-3.02786e-06
-2.29395e-06
-3.46116e-06
-2.25645e-06
-3.87368e-06
-2.18233e-06
-4.26079e-06
-2.07968e-06
-4.61945e-06
-1.95573e-06
-4.94796e-06
-1.81675e-06
-5.24559e-06
-1.66799e-06
-5.5124e-06
-1.51367e-06
-5.74897e-06
-1.35704e-06
-5.95622e-06
-1.20049e-06
-6.13527e-06
-1.04557e-06
-6.28727e-06
-8.93177e-07
-6.41333e-06
-7.43597e-07
-6.51442e-06
-5.96641e-07
-6.5913e-06
-4.51726e-07
-6.6445e-06
-3.07973e-07
-6.67425e-06
-1.64295e-07
-6.68048e-06
-1.94742e-08
-6.6628e-06
1.27743e-07
-6.6205e-06
2.78568e-07
-6.55257e-06
4.34074e-07
-6.45772e-06
5.95102e-07
-6.33442e-06
7.6215e-07
-6.18097e-06
9.35263e-07
-5.9956e-06
1.1139e-06
-5.77654e-06
1.2968e-06
-5.52225e-06
1.48187e-06
-5.23156e-06
1.66601e-06
-4.90391e-06
1.84505e-06
-4.53968e-06
2.01362e-06
-4.14048e-06
2.16518e-06
-3.70949e-06
2.29198e-06
-3.25187e-06
2.38528e-06
-2.77508e-06
2.43556e-06
-2.28916e-06
2.43294e-06
-1.80691e-06
2.36771e-06
-1.34385e-06
2.23094e-06
-9.18029e-07
2.01528e-06
-5.49463e-07
1.71567e-06
-2.59412e-07
1.32999e-06
-6.94025e-08
8.59489e-07
3.09547e-07
-6.32429e-08
-2.39488e-07
-2.35584e-07
-6.56748e-07
-4.98444e-07
-1.00841e-06
-8.3308e-07
-1.29368e-06
-1.22142e-06
-1.51426e-06
-1.64665e-06
-1.67369e-06
-2.0937e-06
-1.77703e-06
-2.54948e-06
-1.83038e-06
-3.00301e-06
-1.84042e-06
-3.44541e-06
-1.81405e-06
-3.86974e-06
-1.758e-06
-4.27086e-06
-1.67856e-06
-4.64514e-06
-1.58145e-06
-4.99025e-06
-1.47163e-06
-5.30491e-06
-1.35333e-06
-5.58864e-06
-1.22994e-06
-5.84154e-06
-1.10414e-06
-6.06414e-06
-9.77889e-07
-6.2572e-06
-8.52511e-07
-6.4216e-06
-7.2878e-07
-6.55821e-06
-6.06992e-07
-6.6678e-06
-4.87049e-07
-6.75099e-06
-3.68532e-07
-6.80818e-06
-2.50782e-07
-6.83951e-06
-1.32965e-07
-6.84484e-06
-1.41479e-08
-6.82373e-06
1.06633e-07
-6.77546e-06
2.30301e-07
-6.69905e-06
3.57662e-07
-6.59327e-06
4.89324e-07
-6.45673e-06
6.25606e-07
-6.28792e-06
7.66453e-07
-6.08535e-06
9.11325e-07
-5.84765e-06
1.0591e-06
-5.57375e-06
1.20798e-06
-5.2631e-06
1.35536e-06
-4.91585e-06
1.4978e-06
-4.53316e-06
1.63093e-06
-4.11747e-06
1.74949e-06
-3.67283e-06
1.84734e-06
-3.20515e-06
1.91759e-06
-2.72247e-06
1.95288e-06
-2.23517e-06
1.94564e-06
-1.75597e-06
1.88851e-06
-1.29991e-06
1.77488e-06
-8.84011e-07
1.59938e-06
-5.26809e-07
1.35847e-06
-2.47666e-07
1.05085e-06
-6.59492e-08
6.77772e-07
2.43597e-07
-6.1422e-08
-1.78066e-07
-2.29373e-07
-4.88797e-07
-4.86471e-07
-7.51311e-07
-8.1515e-07
-9.65004e-07
-1.19837e-06
-1.13104e-06
-1.62015e-06
-1.25191e-06
-2.06598e-06
-1.33121e-06
-2.52306e-06
-1.37329e-06
-2.98049e-06
-1.383e-06
-3.42923e-06
-1.36531e-06
-3.86208e-06
-1.32515e-06
-4.2735e-06
-1.26714e-06
-4.65942e-06
-1.19552e-06
-5.01706e-06
-1.114e-06
-5.34467e-06
-1.02572e-06
-5.64135e-06
-9.3326e-07
-5.90683e-06
-8.38659e-07
-6.1413e-06
-7.4342e-07
-6.34524e-06
-6.48577e-07
-6.51927e-06
-5.54747e-07
-6.66407e-06
-4.62189e-07
-6.78026e-06
-3.7086e-07
-6.86832e-06
-2.80476e-07
-6.92853e-06
-1.90567e-07
-6.96096e-06
-1.00534e-07
-6.96541e-06
-9.70027e-09
-6.94141e-06
8.26329e-08
-6.88824e-06
1.77129e-07
-6.80494e-06
2.74359e-07
-6.69035e-06
3.74738e-07
-6.54321e-06
4.78462e-07
-6.36218e-06
5.8543e-07
-6.14604e-06
6.95178e-07
-5.89373e-06
8.06797e-07
-5.60462e-06
9.18861e-07
-5.27862e-06
1.02936e-06
-4.91648e-06
1.13565e-06
-4.51997e-06
1.23443e-06
-4.0922e-06
1.32172e-06
-3.63784e-06
1.39297e-06
-3.16334e-06
1.44309e-06
-2.67716e-06
1.4667e-06
-2.18983e-06
1.45832e-06
-1.714e-06
1.41267e-06
-1.26422e-06
1.32509e-06
-8.56687e-07
1.19185e-06
-5.08774e-07
1.01056e-06
-2.38382e-07
7.80458e-07
-6.32357e-08
5.02626e-07
1.80362e-07
-6.00862e-08
-1.1798e-07
-2.24798e-07
-3.24085e-07
-4.77608e-07
-4.98502e-07
-8.0179e-07
-6.40821e-07
-1.18106e-06
-7.5177e-07
-1.60002e-06
-8.3294e-07
-2.0446e-06
-8.86631e-07
-2.50224e-06
-9.15654e-07
-2.9621e-06
-9.23137e-07
-3.41508e-06
-9.12329e-07
-3.85378e-06
-8.86443e-07
-4.2724e-06
-8.48528e-07
-4.66655e-06
-8.01368e-07
-5.03313e-06
-7.47425e-07
-5.37004e-06
-6.88798e-07
-5.67609e-06
-6.27215e-07
-5.95071e-06
-5.64043e-07
-6.19382e-06
-5.00302e-07
-6.4057e-06
-4.36699e-07
-6.58678e-06
-3.73665e-07
-6.73758e-06
-3.11387e-07
-6.85859e-06
-2.49855e-07
-6.95018e-06
-1.88891e-07
-7.01255e-06
-1.28195e-07
-7.0457e-06
-6.73802e-08
-7.0494e-06
-6.00681e-09
-7.02314e-06
5.63778e-08
-6.96621e-06
1.20202e-07
-6.87768e-06
1.8583e-07
-6.75646e-06
2.53519e-07
-6.60138e-06
3.23376e-07
-6.41126e-06
3.95308e-07
-6.18505e-06
4.68976e-07
-5.922e-06
5.4374e-07
-5.62175e-06
6.18619e-07
-5.28463e-06
6.92241e-07
-4.9118e-06
7.62819e-07
-4.50551e-06
8.28132e-07
-4.06932e-06
8.85537e-07
-3.60835e-06
9.32003e-07
-3.12945e-06
9.64194e-07
-2.64133e-06
9.7858e-07
-2.15462e-06
9.71604e-07
-1.68182e-06
9.39875e-07
-1.23713e-06
8.80403e-07
-8.36121e-07
7.90842e-07
-4.95288e-07
6.69724e-07
-2.31475e-07
5.16644e-07
-6.1226e-08
3.32377e-07
1.19136e-07
-5.92088e-08
-5.87712e-08
-2.21785e-07
-1.61509e-07
-4.71749e-07
-2.48537e-07
-7.9292e-07
-3.19651e-07
-1.16949e-06
-3.75198e-07
-1.58648e-06
-4.15955e-07
-2.03007e-06
-4.43042e-07
-2.48788e-06
-4.57839e-07
-2.94914e-06
-4.61881e-07
-3.4047e-06
-4.5677e-07
-3.84705e-06
-4.44093e-07
-4.27021e-06
-4.25362e-07
-4.66962e-06
-4.0196e-07
-5.04193e-06
-3.75114e-07
-5.38486e-06
-3.45871e-07
-5.69697e-06
-3.151e-07
-5.97753e-06
-2.83485e-07
-6.22629e-06
-2.51543e-07
-6.44336e-06
-2.19632e-07
-6.62905e-06
-1.87973e-07
-6.78377e-06
-1.56665e-07
-6.90792e-06
-1.25706e-07
-7.0018e-06
-9.50124e-08
-7.06555e-06
-6.44386e-08
-7.09914e-06
-3.3794e-08
-7.10228e-06
-2.86277e-09
-7.07448e-06
2.85775e-08
-7.01502e-06
6.07366e-08
-6.92298e-06
9.37916e-08
-6.79733e-06
1.27865e-07
-6.63696e-06
1.63004e-07
-6.4408e-06
1.99153e-07
-6.20796e-06
2.36134e-07