/*--------------------------------*- C++ -*----------------------------------*\
  =========                 |
  \\      /  F ield         | OpenFOAM: The Open Source CFD Toolbox
   \\    /   O peration     | Website:  https://openfoam.org
    \\  /    A nd           | Version:  7
     \\/     M anipulation  |
\*---------------------------------------------------------------------------*/
FoamFile
{
    version     2.0;
    format      ascii;
    class       volVectorField;
    location    "0.0792";
    object      U;
}
// * * * * * * * * * * * * * * * * * * * * * * * * * * * * * * * * * * * * * //

dimensions      [0 1 -1 0 0 0 0];

internalField   nonuniform List<vector> 
2500
(
(0.290244 -0.152406 0)
(0.389514 -0.128226 0)
(0.565392 -0.0747284 0)
(0.683222 -0.0422321 0)
(0.752832 -0.024535 0)
(0.797875 -0.0148981 0)
(0.829083 -0.00959374 0)
(0.851605 -0.00657262 0)
(0.868469 -0.00475 0)
(0.881494 -0.00357597 0)
(0.891786 -0.00277237 0)
(0.900055 -0.00219382 0)
(0.906775 -0.0017605 0)
(0.912282 -0.00142601 0)
(0.916819 -0.00116176 0)
(0.920568 -0.000949096 0)
(0.923668 -0.000775265 0)
(0.926225 -0.000631163 0)
(0.928323 -0.000510057 0)
(0.930029 -0.000406806 0)
(0.931395 -0.000317364 0)
(0.932461 -0.000238452 0)
(0.933257 -0.000167332 0)
(0.933806 -0.000101646 0)
(0.934123 -3.92922e-05 0)
(0.934217 2.16794e-05 0)
(0.934089 8.32555e-05 0)
(0.933736 0.000147276 0)
(0.933145 0.000215768 0)
(0.932299 0.000290975 0)
(0.931172 0.00037547 0)
(0.929728 0.000472326 0)
(0.927922 0.00058534 0)
(0.925693 0.000719363 0)
(0.922963 0.000880787 0)
(0.919634 0.00107829 0)
(0.915573 0.00132408 0)
(0.910607 0.00163591 0)
(0.904502 0.00204087 0)
(0.896931 0.0025824 0)
(0.887429 0.00333454 0)
(0.875303 0.00443157 0)
(0.859464 0.00613215 0)
(0.838112 0.00895698 0)
(0.808193 0.013966 0)
(0.764438 0.023251 0)
(0.695916 0.0407742 0)
(0.577939 0.0737475 0)
(0.398041 0.128742 0)
(0.293865 0.153782 0)
(0.00107723 -0.29487 0)
(0.0168363 -0.298595 0)
(0.152304 -0.213015 0)
(0.282863 -0.145343 0)
(0.388079 -0.0996768 0)
(0.471369 -0.0698688 0)
(0.536883 -0.0505325 0)
(0.58847 -0.0377448 0)
(0.629466 -0.028994 0)
(0.662427 -0.0227785 0)
(0.689213 -0.0182081 0)
(0.711178 -0.0147449 0)
(0.729319 -0.0120537 0)
(0.744381 -0.00991846 0)
(0.756928 -0.00819459 0)
(0.767398 -0.00678205 0)
(0.776132 -0.00560922 0)
(0.783397 -0.00462326 0)
(0.789409 -0.00378406 0)
(0.794338 -0.00306034 0)
(0.798318 -0.00242703 0)
(0.801456 -0.00186348 0)
(0.803833 -0.00135223 0)
(0.80551 -0.000877985 0)
(0.806527 -0.000426972 0)
(0.806907 1.37175e-05 0)
(0.806657 0.000456684 0)
(0.805765 0.000914603 0)
(0.804203 0.00140088 0)
(0.801923 0.00193023 0)
(0.798856 0.00251944 0)
(0.79491 0.00318831 0)
(0.789963 0.00396101 0)
(0.783859 0.00486787 0)
(0.776398 0.00594814 0)
(0.767323 0.00725388 0)
(0.756303 0.00885612 0)
(0.74291 0.0108546 0)
(0.726578 0.0133936 0)
(0.70655 0.0166893 0)
(0.6818 0.0210776 0)
(0.650913 0.0271002 0)
(0.611913 0.0356622 0)
(0.562029 0.0483153 0)
(0.49753 0.0677187 0)
(0.413956 0.0981755 0)
(0.306406 0.145797 0)
(0.170554 0.21731 0)
(0.0269059 0.307196 0)
(0.00518348 0.303002 0)
(-0.0329221 -0.250361 0)
(-0.0615893 -0.344027 0)
(-0.0114642 -0.310614 0)
(0.0709003 -0.251594 0)
(0.15909 -0.196105 0)
(0.241718 -0.151566 0)
(0.314424 -0.117888 0)
(0.376511 -0.092803 0)
(0.428874 -0.0740183 0)
(0.472858 -0.0597552 0)
(0.509798 -0.0487412 0)
(0.540866 -0.0400889 0)
(0.567042 -0.033181 0)
(0.589126 -0.0275847 0)
(0.60777 -0.0229911 0)
(0.623503 -0.0191755 0)
(0.636754 -0.0159707 0)
(0.647872 -0.0132494 0)
(0.657143 -0.0109129 0)
(0.664798 -0.00888225 0)
(0.671022 -0.00709324 0)
(0.675966 -0.00549213 0)
(0.679743 -0.00403281 0)
(0.68244 -0.00267451 0)
(0.684114 -0.00138007 0)
(0.684799 -0.000114483 0)
(0.684502 0.00115641 0)
(0.683208 0.00246736 0)
(0.680875 0.00385491 0)
(0.677432 0.005359 0)
(0.672782 0.00702485 0)
(0.66679 0.00890534 0)
(0.659284 0.0110642 0)
(0.650043 0.0135803 0)
(0.638791 0.0165538 0)
(0.625179 0.0201149 0)
(0.60877 0.0244367 0)
(0.589011 0.0297539 0)
(0.56521 0.0363924 0)
(0.53649 0.0448124 0)
(0.50175 0.0556765 0)
(0.45963 0.0699487 0)
(0.408514 0.089032 0)
(0.346651 0.114924 0)
(0.272612 0.150271 0)
(0.186526 0.197835 0)
(0.0924274 0.258152 0)
(0.0019308 0.323369 0)
(-0.0569039 0.36157 0)
(-0.032167 0.263989 0)
(-0.0267681 -0.190598 0)
(-0.0654007 -0.333013 0)
(-0.0644682 -0.351562 0)
(-0.0273284 -0.319373 0)
(0.0299094 -0.272179 0)
(0.0941639 -0.225694 0)
(0.157745 -0.185391 0)
(0.216847 -0.152177 0)
(0.269948 -0.125323 0)
(0.316751 -0.1037 0)
(0.357551 -0.0862278 0)
(0.392886 -0.0720101 0)
(0.423361 -0.0603408 0)
(0.449566 -0.0506764 0)
(0.472039 -0.0426006 0)
(0.491253 -0.0357927 0)
(0.507615 -0.0300031 0)
(0.521477 -0.0250345 0)
(0.533132 -0.0207287 0)
(0.542827 -0.0169563 0)
(0.550764 -0.0136094 0)
(0.557108 -0.0105959 0)
(0.561989 -0.00783538 0)
(0.565502 -0.00525593 0)
(0.567713 -0.00279114 0)
(0.56866 -0.000377914 0)
(0.56835 0.0020457 0)
(0.566763 0.00454267 0)
(0.563847 0.00717922 0)
(0.55952 0.0100273 0)
(0.553665 0.0131677 0)
(0.546128 0.0166939 0)
(0.53671 0.0207166 0)
(0.525163 0.0253707 0)
(0.511182 0.0308235 0)
(0.494396 0.0372868 0)
(0.474356 0.0450331 0)
(0.450524 0.0544177 0)
(0.422265 0.0659087 0)
(0.38885 0.0801264 0)
(0.349478 0.0978896 0)
(0.303348 0.12026 0)
(0.249834 0.148547 0)
(0.188854 0.184183 0)
(0.121572 0.228241 0)
(0.0516608 0.280041 0)
(-0.0128314 0.333841 0)
(-0.0576822 0.372345 0)
(-0.0646296 0.356003 0)
(-0.0272788 0.204823 0)
(-0.0178407 -0.14917 0)
(-0.0530648 -0.302987 0)
(-0.0735149 -0.355013 0)
(-0.0663854 -0.350472 0)
(-0.0370937 -0.319896 0)
(0.00514609 -0.280634 0)
(0.0531245 -0.241267 0)
(0.102076 -0.20541 0)
(0.149156 -0.174175 0)
(0.192858 -0.147531 0)
(0.232527 -0.125005 0)
(0.268005 -0.106002 0)
(0.299408 -0.089948 0)
(0.326989 -0.0763359 0)
(0.35106 -0.0647395 0)
(0.371942 -0.0548049 0)
(0.389947 -0.0462403 0)
(0.405361 -0.0388041 0)
(0.418438 -0.0322944 0)
(0.4294 -0.0265405 0)
(0.438436 -0.0213961 0)
(0.445702 -0.0167334 0)
(0.451322 -0.0124383 0)
(0.455391 -0.00840715 0)
(0.457973 -0.00454281 0)
(0.459101 -0.000752186 0)
(0.458783 0.00305671 0)
(0.456992 0.00697753 0)
(0.453674 0.0111085 0)
(0.448741 0.0155557 0)
(0.442072 0.0204369 0)
(0.433508 0.0258864 0)
(0.42285 0.0320605 0)
(0.409858 0.0391451 0)
(0.394245 0.0473648 0)
(0.375675 0.0569941 0)
(0.353765 0.0683725 0)
(0.328094 0.0819204 0)
(0.298217 0.0981573 0)
(0.263709 0.117715 0)
(0.224242 0.141337 0)
(0.179728 0.16983 0)
(0.130577 0.203917 0)
(0.0780982 0.243871 0)
(0.0251036 0.288716 0)
(-0.0233263 0.334627 0)
(-0.0591606 0.372057 0)
(-0.0718136 0.381414 0)
(-0.0542742 0.328304 0)
(-0.0186347 0.162516 0)
(-0.011417 -0.120937 0)
(-0.0402108 -0.270058 0)
(-0.0677082 -0.340355 0)
(-0.0775277 -0.357639 0)
(-0.0685598 -0.344452 0)
(-0.0455993 -0.316279 0)
(-0.0138313 -0.282502 0)
(0.0224745 -0.248266 0)
(0.060201 -0.216099 0)
(0.0972818 -0.18704 0)
(0.132459 -0.161336 0)
(0.16504 -0.138854 0)
(0.194705 -0.119292 0)
(0.22137 -0.102301 0)
(0.245091 -0.0875313 0)
(0.266002 -0.0746626 0)
(0.284276 -0.0634077 0)
(0.300098 -0.0535137 0)
(0.313651 -0.0447588 0)
(0.325105 -0.0369474 0)
(0.334611 -0.0299059 0)
(0.342298 -0.0234782 0)
(0.348273 -0.0175219 0)
(0.352615 -0.0119044 0)
(0.355378 -0.00650039 0)
(0.356591 -0.00118781 0)
(0.356253 0.00415442 0)
(0.354338 0.00964981 0)
(0.350791 0.0154275 0)
(0.345526 0.0216257 0)
(0.338429 0.0283964 0)
(0.329354 0.0359091 0)
(0.318124 0.0443575 0)
(0.304531 0.0539654 0)
(0.288343 0.0649939 0)
(0.269302 0.0777499 0)
(0.247146 0.0925932 0)
(0.221624 0.109941 0)
(0.192543 0.130267 0)
(0.159827 0.154077 0)
(0.123627 0.181855 0)
(0.0844816 0.213939 0)
(0.0435544 0.25026 0)
(0.00294635 0.289865 0)
(-0.03397 0.330072 0)
(-0.0623465 0.365122 0)
(-0.0760712 0.384252 0)
(-0.0692368 0.369622 0)
(-0.0422384 0.295514 0)
(-0.0121726 0.133053 0)
(-0.00745988 -0.100966 0)
(-0.0303761 -0.239854 0)
(-0.0584822 -0.318375 0)
(-0.0766997 -0.350664 0)
(-0.0809462 -0.352255 0)
(-0.0727412 -0.335617 0)
(-0.0551058 -0.3095 0)
(-0.0312023 -0.279518 0)
(-0.00376536 -0.249004 0)
(0.0251022 -0.219783 0)
(0.0539065 -0.192745 0)
(0.0816517 -0.168225 0)
(0.107717 -0.146255 0)
(0.131751 -0.1267 0)
(0.153586 -0.109352 0)
(0.173173 -0.093973 0)
(0.190542 -0.0803223 0)
(0.205766 -0.0681677 0)
(0.218943 -0.0572918 0)
(0.230173 -0.0474928 0)
(0.23956 -0.0385838 0)
(0.247193 -0.030391 0)
(0.253149 -0.0227513 0)
(0.257486 -0.0155098 0)
(0.260244 -0.00851704 0)
(0.261441 -0.0016264 0)
(0.261071 0.00530887 0)
(0.259106 0.0124385 0)
(0.255495 0.0199185 0)
(0.250161 0.0279144 0)
(0.243007 0.0366048 0)
(0.233912 0.046186 0)
(0.222736 0.0568756 0)
(0.209326 0.0689171 0)
(0.193521 0.0825833 0)
(0.17517 0.0981785 0)
(0.15415 0.116036 0)
(0.130401 0.136508 0)
(0.103978 0.159941 0)
(0.0751192 0.186625 0)
(0.0443574 0.21669 0)
(0.0126532 0.24994 0)
(-0.0184354 0.285545 0)
(-0.046588 0.321574 0)
(-0.068649 0.354283 0)
(-0.0808172 0.377185 0)
(-0.0792933 0.380038 0)
(-0.0618888 0.34829 0)
(-0.0326903 0.264116 0)
(-0.00811672 0.111735 0)
(-0.00512225 -0.0863338 0)
(-0.0234704 -0.21363 0)
(-0.0497312 -0.294281 0)
(-0.0714664 -0.335861 0)
(-0.0837089 -0.348717 0)
(-0.0859939 -0.342337 0)
(-0.0796222 -0.324206 0)
(-0.0665879 -0.29971 0)
(-0.0489685 -0.272461 0)
(-0.0285885 -0.24474 0)
(-0.00690341 -0.217897 0)
(0.0149977 -0.192665 0)
(0.0363412 -0.169387 0)
(0.0566048 -0.148162 0)
(0.0754565 -0.128944 0)
(0.0927026 -0.111611 0)
(0.108247 -0.0959942 0)
(0.122057 -0.0819081 0)
(0.134143 -0.0691603 0)
(0.144541 -0.0575601 0)
(0.153294 -0.0469213 0)
(0.160451 -0.0370636 0)
(0.166054 -0.0278124 0)
(0.170137 -0.018998 0)
(0.172722 -0.0104535 0)
(0.173813 -0.00201308 0)
(0.173401 0.00648999 0)
(0.171458 0.0152261 0)
(0.167939 0.0243718 0)
(0.162783 0.0341122 0)
(0.155915 0.0446442 0)
(0.147246 0.0561786 0)
(0.136685 0.0689421 0)
(0.12414 0.0831786 0)
(0.109536 0.0991477 0)
(0.0928298 0.117119 0)
(0.0740378 0.137361 0)
(0.0532735 0.160117 0)
(0.0307974 0.185559 0)
(0.00708503 0.213717 0)
(-0.0170904 0.244361 0)
(-0.0405648 0.276802 0)
(-0.0616994 0.309619 0)
(-0.07835 0.340259 0)
(-0.0879774 0.364532 0)
(-0.0880311 0.376084 0)
(-0.0766866 0.366047 0)
(-0.0541558 0.323286 0)
(-0.0258486 0.235958 0)
(-0.00569304 0.0957542 0)
(-0.00372415 -0.0751595 0)
(-0.0187012 -0.19113 0)
(-0.0424763 -0.270441 0)
(-0.0651908 -0.317096 0)
(-0.0819984 -0.337895 0)
(-0.0914137 -0.339842 0)
(-0.0935663 -0.329029 0)
(-0.089473 -0.310258 0)
(-0.0805236 -0.287059 0)
(-0.0681301 -0.261882 0)
(-0.0535469 -0.236349 0)
(-0.0378057 -0.211478 0)
(-0.0217094 -0.187864 0)
(-0.00585645 -0.165813 0)
(0.00932511 -0.145446 0)
(0.0235414 -0.126759 0)
(0.0366006 -0.109672 0)
(0.0483856 -0.09406 0)
(0.0588319 -0.0797714 0)
(0.0679104 -0.0666394 0)
(0.0756143 -0.0544904 0)
(0.0819483 -0.043148 0)
(0.0869217 -0.0324353 0)
(0.0905426 -0.0221753 0)
(0.0928135 -0.012191 0)
(0.0937291 -0.00230435 0)
(0.0932743 0.00766498 0)
(0.0914236 0.0179011 0)
(0.0881417 0.0285936 0)
(0.0833848 0.039939 0)
(0.0771039 0.0521419 0)
(0.0692492 0.0654157 0)
(0.0597775 0.0799816 0)
(0.0486629 0.0960662 0)
(0.035911 0.113895 0)
(0.0215791 0.133679 0)
(0.00580343 0.155597 0)
(-0.0111662 0.179758 0)
(-0.0289223 0.206146 0)
(-0.0468485 0.234539 0)
(-0.064066 0.264383 0)
(-0.0793894 0.294615 0)
(-0.0913154 0.323428 0)
(-0.0980865 0.347985 0)
(-0.0978984 0.364109 0)
(-0.0893273 0.366066 0)
(-0.0719757 0.346602 0)
(-0.0473802 0.297523 0)
(-0.0210383 0.211149 0)
(-0.00422746 0.0832777 0)
(-0.00285763 -0.0662605 0)
(-0.0153797 -0.17171 0)
(-0.0367583 -0.247786 0)
(-0.0592424 -0.296584 0)
(-0.0784978 -0.32257 0)
(-0.0926215 -0.330845 0)
(-0.10103 -0.326228 0)
(-0.104018 -0.312817 0)
(-0.102378 -0.29385 0)
(-0.0970907 -0.271747 0)
(-0.0891406 -0.24824 0)
(-0.0794123 -0.224514 0)
(-0.0686513 -0.201342 0)
(-0.0574566 -0.179198 0)
(-0.0462921 -0.158341 0)
(-0.0355052 -0.138884 0)
(-0.0253487 -0.120835 0)
(-0.0160008 -0.104136 0)
(-0.00758356 -0.0886819 0)
(-0.000177508 -0.0743394 0)
(0.00616561 -0.0609562 0)
(0.0114132 -0.0483684 0)
(0.0155441 -0.0364044 0)
(0.018543 -0.0248878 0)
(0.0203958 -0.0136383 0)
(0.0210872 -0.0024724 0)
(0.020599 0.00879671 0)
(0.0189093 0.0203597 0)
(0.0159938 0.0324114 0)
(0.0118276 0.0451507 0)
(0.0063893 0.0587806 0)
(-0.000333657 0.0735058 0)
(-0.00833651 0.0895295 0)
(-0.017586 0.107047 0)
(-0.0280056 0.126234 0)
(-0.0394558 0.147231 0)
(-0.0517104 0.170114 0)
(-0.0644274 0.194854 0)
(-0.0771168 0.221259 0)
(-0.0891084 0.248888 0)
(-0.099528 0.27694 0)
(-0.107294 0.304105 0)
(-0.111159 0.328388 0)
(-0.109824 0.346929 0)
(-0.102174 0.35585 0)
(-0.0876684 0.350236 0)
(-0.066828 0.324367 0)
(-0.0417946 0.272347 0)
(-0.0176142 0.189267 0)
(-0.00330484 0.0731439 0)
(-0.00229752 -0.0589048 0)
(-0.0130277 -0.154719 0)
(-0.0323396 -0.226563 0)
(-0.0540889 -0.275518 0)
(-0.074543 -0.304545 0)
(-0.0917157 -0.317349 0)
(-0.104636 -0.317685 0)
(-0.113107 -0.308957 0)
(-0.117452 -0.294022 0)
(-0.118268 -0.275145 0)
(-0.116258 -0.254046 0)
(-0.112119 -0.231979 0)
(-0.10649 -0.209826 0)
(-0.0999173 -0.188176 0)
(-0.0928534 -0.167399 0)
(-0.0856596 -0.147702 0)
(-0.0786177 -0.129175 0)
(-0.0719421 -0.111823 0)
(-0.0657931 -0.0955927 0)
(-0.0602887 -0.0803865 0)
(-0.0555151 -0.066079 0)
(-0.0515347 -0.0525245 0)
(-0.0483934 -0.0395632 0)
(-0.046126 -0.0270252 0)
(-0.04476 -0.0147337 0)
(-0.0443185 -0.00250616 0)
(-0.0448212 0.00984416 0)
(-0.0462849 0.0225074 0)
(-0.0487223 0.0356764 0)
(-0.0521397 0.0495446 0)
(-0.0565323 0.0643044 0)
(-0.0618785 0.080143 0)
(-0.0681318 0.097236 0)
(-0.0752096 0.115738 0)
(-0.0829797 0.135769 0)
(-0.0912436 0.15739 0)
(-0.0997177 0.180578 0)
(-0.108012 0.205177 0)
(-0.115611 0.230844 0)
(-0.121861 0.256975 0)
(-0.125968 0.282601 0)
(-0.127028 0.306288 0)
(-0.124093 0.326009 0)
(-0.116309 0.339055 0)
(-0.103133 0.34199 0)
(-0.0846562 0.330744 0)
(-0.0619305 0.300908 0)
(-0.0372768 0.248298 0)
(-0.0151175 0.169805 0)
(-0.00269425 0.0646356 0)
(-0.00192071 -0.0526283 0)
(-0.0113319 -0.13961 0)
(-0.0289469 -0.206718 0)
(-0.0498123 -0.2545 0)
(-0.0707572 -0.28495 0)
(-0.0898777 -0.30077 0)
(-0.106023 -0.30487 0)
(-0.118686 -0.300034 0)
(-0.127846 -0.288716 0)
(-0.133784 -0.272963 0)
(-0.136944 -0.254405 0)
(-0.137834 -0.234293 0)
(-0.136958 -0.213552 0)
(-0.134781 -0.192839 0)
(-0.131712 -0.172602 0)
(-0.128095 -0.153121 0)
(-0.124215 -0.134553 0)
(-0.1203 -0.11696 0)
(-0.116529 -0.100334 0)
(-0.113046 -0.0846161 0)
(-0.109957 -0.069709 0)
(-0.107348 -0.0554888 0)
(-0.105282 -0.0418118 0)
(-0.103809 -0.0285198 0)
(-0.102964 -0.0154445 0)
(-0.102778 -0.00241013 0)
(-0.103268 0.0107642 0)
(-0.104447 0.024262 0)
(-0.106315 0.0382673 0)
(-0.108861 0.0529619 0)
(-0.112058 0.0685209 0)
(-0.115855 0.0851072 0)
(-0.120173 0.102863 0)
(-0.124891 0.121898 0)
(-0.129841 0.142273 0)
(-0.134787 0.163976 0)
(-0.13942 0.186891 0)
(-0.14334 0.210759 0)
(-0.146053 0.235123 0)
(-0.146968 0.259265 0)
(-0.145419 0.282132 0)
(-0.140708 0.30226 0)
(-0.132185 0.317704 0)
(-0.119382 0.326003 0)
(-0.102197 0.324211 0)
(-0.081137 0.309034 0)
(-0.0575232 0.277122 0)
(-0.0336271 0.22553 0)
(-0.0132471 0.152312 0)
(-0.0022696 0.0573014 0)
(-0.0016585 -0.0471257 0)
(-0.0100891 -0.12595 0)
(-0.0263439 -0.188086 0)
(-0.0463441 -0.233804 0)
(-0.0673975 -0.264476 0)
(-0.0877502 -0.282088 0)
(-0.106196 -0.288897 0)
(-0.122046 -0.287157 0)
(-0.135038 -0.278945 0)
(-0.145209 -0.266063 0)
(-0.152785 -0.250009 0)
(-0.158093 -0.231976 0)
(-0.161502 -0.212887 0)
(-0.163381 -0.193427 0)
(-0.164074 -0.174088 0)
(-0.16389 -0.1552 0)
(-0.163095 -0.136971 0)
(-0.161912 -0.119509 0)
(-0.160526 -0.102846 0)
(-0.15909 -0.086958 0)
(-0.157723 -0.0717758 0)
(-0.156523 -0.0571989 0)
(-0.155564 -0.043102 0)
(-0.154905 -0.0293422 0)
(-0.154588 -0.0157635 0)
(-0.154644 -0.00220146 0)
(-0.155091 0.011514 0)
(-0.155933 0.0255549 0)
(-0.157162 0.0400916 0)
(-0.158751 0.0552889 0)
(-0.160654 0.0713001 0)
(-0.162798 0.08826 0)
(-0.165081 0.106275 0)
(-0.167358 0.12541 0)
(-0.169439 0.145669 0)
(-0.171076 0.166975 0)
(-0.171959 0.189139 0)
(-0.17171 0.21182 0)
(-0.169886 0.234486 0)
(-0.165991 0.256357 0)
(-0.159506 0.276361 0)
(-0.149941 0.293075 0)
(-0.136914 0.304705 0)
(-0.12027 0.309085 0)
(-0.100227 0.303744 0)
(-0.0775469 0.286059 0)
(-0.0536525 0.253508 0)
(-0.0306597 0.204029 0)
(-0.0118091 0.136422 0)
(-0.00196102 0.0508458 0)
(-0.00147112 -0.0421892 0)
(-0.00916609 -0.113404 0)
(-0.0243441 -0.170476 0)
(-0.043569 -0.213531 0)
(-0.0645383 -0.243535 0)
(-0.0856652 -0.261969 0)
(-0.105756 -0.270587 0)
(-0.124026 -0.271207 0)
(-0.140051 -0.265567 0)
(-0.153688 -0.255228 0)
(-0.164983 -0.241532 0)
(-0.174108 -0.225585 0)
(-0.181303 -0.208271 0)
(-0.186838 -0.190272 0)
(-0.190986 -0.172096 0)
(-0.194005 -0.154103 0)
(-0.196129 -0.136533 0)
(-0.197565 -0.119529 0)
(-0.19849 -0.103156 0)
(-0.199054 -0.0874193 0)
(-0.199381 -0.0722759 0)
(-0.199572 -0.0576479 0)
(-0.199707 -0.0434297 0)
(-0.199848 -0.0294953 0)
(-0.200041 -0.0157043 0)
(-0.200316 -0.00190635 0)
(-0.200686 0.0120541 0)
(-0.201152 0.0263337 0)
(-0.201693 0.0410858 0)
(-0.202274 0.0564548 0)
(-0.202833 0.0725699 0)
(-0.203283 0.0895365 0)
(-0.203506 0.107425 0)
(-0.203348 0.126259 0)
(-0.202612 0.145995 0)
(-0.201056 0.166502 0)
(-0.198389 0.187532 0)
(-0.194277 0.208695 0)
(-0.188348 0.229415 0)
(-0.180215 0.248898 0)
(-0.169509 0.266096 0)
(-0.155932 0.279682 0)
(-0.139329 0.288046 0)
(-0.119787 0.289324 0)
(-0.0977435 0.281479 0)
(-0.0741025 0.262443 0)
(-0.0502895 0.230331 0)
(-0.0282254 0.183704 0)
(-0.0106786 0.121844 0)
(-0.0017286 0.0450673 0)
(-0.00133454 -0.0376728 0)
(-0.00847353 -0.101717 0)
(-0.022805 -0.153703 0)
(-0.0413673 -0.193688 0)
(-0.0621679 -0.222369 0)
(-0.0837793 -0.240864 0)
(-0.105055 -0.250543 0)
(-0.125165 -0.252871 0)
(-0.143587 -0.249292 0)
(-0.160042 -0.241141 0)
(-0.174439 -0.229597 0)
(-0.186819 -0.215663 0)
(-0.197307 -0.200162 0)
(-0.20608 -0.183749 0)
(-0.213335 -0.166925 0)
(-0.219275 -0.15006 0)
(-0.224096 -0.133414 0)
(-0.227976 -0.11715 0)
(-0.231078 -0.101358 0)
(-0.233541 -0.0860674 0)
(-0.235485 -0.0712582 0)
(-0.237007 -0.056873 0)
(-0.238188 -0.0428255 0)
(-0.23909 -0.0290076 0)
(-0.239758 -0.0152957 0)
(-0.240218 -0.00155609 0)
(-0.240481 0.0123503 0)
(-0.24054 0.0265625 0)
(-0.240369 0.0412146 0)
(-0.239923 0.0564292 0)
(-0.239131 0.0723106 0)
(-0.237899 0.0889357 0)
(-0.236103 0.106343 0)
(-0.233587 0.124519 0)
(-0.230162 0.14338 0)
(-0.225605 0.162757 0)
(-0.219661 0.182366 0)
(-0.21205 0.201786 0)
(-0.202484 0.220432 0)
(-0.190687 0.237528 0)
(-0.17643 0.252087 0)
(-0.159583 0.262904 0)
(-0.140177 0.268568 0)
(-0.118476 0.267502 0)
(-0.0950622 0.258047 0)
(-0.0709058 0.238588 0)
(-0.0473811 0.207719 0)
(-0.0262111 0.164442 0)
(-0.00977332 0.108348 0)
(-0.0015486 0.0398231 0)
(-0.00123354 -0.0334718 0)
(-0.00795001 -0.0906913 0)
(-0.0216189 -0.137606 0)
(-0.0396312 -0.174242 0)
(-0.0602379 -0.201113 0)
(-0.0821525 -0.219076 0)
(-0.104288 -0.229204 0)
(-0.125805 -0.232681 0)
(-0.146118 -0.230697 0)
(-0.164856 -0.224383 0)
(-0.181821 -0.214761 0)
(-0.196948 -0.202722 0)
(-0.210264 -0.189015 0)
(-0.221858 -0.174249 0)
(-0.23186 -0.158904 0)
(-0.240415 -0.143345 0)
(-0.247676 -0.127834 0)
(-0.25379 -0.112548 0)
(-0.258895 -0.0975926 0)
(-0.263116 -0.0830141 0)
(-0.266562 -0.0688111 0)
(-0.269324 -0.0549446 0)
(-0.271479 -0.0413465 0)
(-0.273083 -0.0279261 0)
(-0.274177 -0.0145772 0)
(-0.274786 -0.00118333 0)
(-0.274914 0.0123765 0)
(-0.274551 0.0262229 0)
(-0.273664 0.0404696 0)
(-0.272203 0.0552176 0)
(-0.270092 0.0705474 0)
(-0.267235 0.0865099 0)
(-0.263509 0.103115 0)
(-0.258767 0.120321 0)
(-0.252837 0.138017 0)
(-0.245524 0.156005 0)
(-0.236618 0.173983 0)
(-0.225901 0.191525 0)
(-0.213169 0.208058 0)
(-0.198252 0.22285 0)
(-0.181048 0.234999 0)
(-0.161569 0.243435 0)
(-0.139989 0.246943 0)
(-0.116701 0.244209 0)
(-0.0923753 0.233895 0)
(-0.0679999 0.214745 0)
(-0.0448728 0.185718 0)
(-0.0245326 0.146125 0)
(-0.00903831 0.095754 0)
(-0.00140627 0.0350083 0)
(-0.00115813 -0.029509 0)
(-0.00755239 -0.080176 0)
(-0.0207047 -0.122048 0)
(-0.0382697 -0.15514 0)
(-0.0586881 -0.179839 0)
(-0.0807933 -0.196807 0)
(-0.10356 -0.206892 0)
(-0.126157 -0.211045 0)
(-0.147963 -0.210246 0)
(-0.168543 -0.205443 0)
(-0.18762 -0.19751 0)
(-0.205043 -0.187226 0)
(-0.220758 -0.175256 0)
(-0.234781 -0.162156 0)
(-0.247173 -0.148371 0)
(-0.258029 -0.134247 0)
(-0.267456 -0.120041 0)
(-0.275569 -0.105932 0)
(-0.282479 -0.0920328 0)
(-0.288293 -0.0784015 0)
(-0.293104 -0.0650507 0)
(-0.296994 -0.051957 0)
(-0.30003 -0.0390679 0)
(-0.302265 -0.0263097 0)
(-0.303733 -0.013593 0)
(-0.304453 -0.00081887 0)
(-0.304427 0.0121159 0)
(-0.303638 0.025313 0)
(-0.302052 0.0388667 0)
(-0.299612 0.0528573 0)
(-0.296246 0.0673437 0)
(-0.291857 0.0823544 0)
(-0.286332 0.0978776 0)
(-0.279537 0.113849 0)
(-0.271324 0.13014 0)
(-0.261531 0.146541 0)
(-0.249998 0.162747 0)
(-0.236571 0.178342 0)
(-0.221126 0.192788 0)
(-0.203591 0.205412 0)
(-0.183972 0.215409 0)
(-0.162397 0.221848 0)
(-0.139149 0.223701 0)
(-0.114711 0.219885 0)
(-0.0898015 0.209332 0)
(-0.065399 0.19107 0)
(-0.0427162 0.164329 0)
(-0.0231284 0.128639 0)
(-0.008436 0.0839135 0)
(-0.00129211 0.0305429 0)
(-0.00110149 -0.025727 0)
(-0.00724978 -0.070054 0)
(-0.0200011 -0.106917 0)
(-0.0372079 -0.136327 0)
(-0.0574583 -0.158582 0)
(-0.0796847 -0.174197 0)
(-0.10292 -0.183841 0)
(-0.126349 -0.188281 0)
(-0.149332 -0.188314 0)
(-0.171393 -0.184729 0)
(-0.192195 -0.178265 0)
(-0.21152 -0.169588 0)
(-0.229248 -0.159281 0)
(-0.24533 -0.147837 0)
(-0.259773 -0.135659 0)
(-0.272619 -0.123064 0)
(-0.283936 -0.110296 0)
(-0.293803 -0.0975264 0)
(-0.302308 -0.08487 0)
(-0.309533 -0.0723907 0)
(-0.315557 -0.0601109 0)
(-0.32045 -0.0480189 0)
(-0.324268 -0.0360762 0)
(-0.327055 -0.0242241 0)
(-0.328841 -0.0123892 0)
(-0.329639 -0.000489171 0)
(-0.329446 0.0115618 0)
(-0.328241 0.0238474 0)
(-0.325988 0.0364437 0)
(-0.322631 0.0494123 0)
(-0.318099 0.0627935 0)
(-0.312302 0.0765979 0)
(-0.305137 0.0907975 0)
(-0.29649 0.105315 0)
(-0.286238 0.120013 0)
(-0.274258 0.134682 0)
(-0.260438 0.149026 0)
(-0.244686 0.162657 0)
(-0.226952 0.175081 0)
(-0.207249 0.185699 0)
(-0.185675 0.193807 0)
(-0.162448 0.198612 0)
(-0.137934 0.199256 0)
(-0.112676 0.194857 0)
(-0.0874152 0.18457 0)
(-0.0631041 0.167647 0)
(-0.0408719 0.143522 0)
(-0.0219533 0.111878 0)
(-0.00794034 0.0727045 0)
(-0.0011998 0.0263639 0)
(-0.00105887 -0.0220824 0)
(-0.00701974 -0.0602344 0)
(-0.0194616 -0.0921205 0)
(-0.0363858 -0.117751 0)
(-0.0564939 -0.137356 0)
(-0.0787989 -0.151339 0)
(-0.102384 -0.160228 0)
(-0.126455 -0.164635 0)
(-0.150365 -0.165204 0)
(-0.173609 -0.162583 0)
(-0.195807 -0.157386 0)
(-0.216691 -0.150175 0)
(-0.236085 -0.141449 0)
(-0.25389 -0.131634 0)
(-0.270062 -0.121085 0)
(-0.2846 -0.110087 0)
(-0.297534 -0.0988584 0)
(-0.308913 -0.0875612 0)
(-0.318795 -0.0763044 0)
(-0.327245 -0.0651531 0)
(-0.334324 -0.054135 0)
(-0.340087 -0.0432475 0)
(-0.344581 -0.0324634 0)
(-0.347842 -0.0217371 0)
(-0.349891 -0.0110097 0)
(-0.350737 -0.000214535 0)
(-0.350372 0.0107181 0)
(-0.348774 0.0218556 0)
(-0.345905 0.0332572 0)
(-0.34171 0.0449686 0)
(-0.336123 0.0570151 0)
(-0.329062 0.0693941 0)
(-0.320438 0.0820674 0)
(-0.310157 0.0949519 0)
(-0.298125 0.107911 0)
(-0.284255 0.120744 0)
(-0.268481 0.133177 0)
(-0.25077 0.14486 0)
(-0.231135 0.155353 0)
(-0.209662 0.164136 0)
(-0.186525 0.170609 0)
(-0.162012 0.174107 0)
(-0.136549 0.173927 0)
(-0.110717 0.169362 0)
(-0.0852643 0.159748 0)
(-0.0611109 0.144515 0)
(-0.0393087 0.123249 0)
(-0.0209746 0.0957412 0)
(-0.00753302 0.0620238 0)
(-0.00112502 0.0224203 0)
(-0.0010269 -0.0185419 0)
(-0.00684581 -0.050646 0)
(-0.019051 -0.0775823 0)
(-0.0357556 -0.0993616 0)
(-0.055748 -0.116164 0)
(-0.078105 -0.1283 0)
(-0.101953 -0.136185 0)
(-0.126518 -0.140301 0)
(-0.151152 -0.141163 0)
(-0.175331 -0.13929 0)
(-0.198646 -0.135185 0)
(-0.220788 -0.129311 0)
(-0.241541 -0.122084 0)
(-0.260761 -0.113863 0)
(-0.278363 -0.104951 0)
(-0.294311 -0.0955939 0)
(-0.308599 -0.0859846 0)
(-0.321249 -0.0762662 0)
(-0.332296 -0.0665384 0)
(-0.341783 -0.0568632 0)
(-0.349756 -0.0472703 0)
(-0.356256 -0.0377628 0)
(-0.36132 -0.0283225 0)
(-0.364975 -0.0189151 0)
(-0.367237 -0.00949453 0)
(-0.368107 -8.0647e-06 0)
(-0.367576 0.00959935 0)
(-0.365619 0.0193803 0)
(-0.362197 0.0293798 0)
(-0.357259 0.0396303 0)
(-0.350743 0.0501456 0)
(-0.342579 0.0609146 0)
(-0.332691 0.0718945 0)
(-0.321006 0.0830033 0)
(-0.307456 0.0941126 0)
(-0.29199 0.10504 0)
(-0.274584 0.115543 0)
(-0.255254 0.125313 0)
(-0.23407 0.133975 0)
(-0.211177 0.14109 0)
(-0.186809 0.146157 0)
(-0.161309 0.148635 0)
(-0.135144 0.147958 0)
(-0.108919 0.143568 0)
(-0.0833805 0.134952 0)
(-0.0594136 0.121681 0)
(-0.0380028 0.103454 0)
(-0.0201681 0.0801359 0)
(-0.00720104 0.0517814 0)
(-0.00106479 0.0186693 0)
(-0.00100316 -0.0150795 0)
(-0.00671587 -0.0412325 0)
(-0.0187428 -0.0632421 0)
(-0.03528 -0.0811192 0)
(-0.0551816 -0.0950016 0)
(-0.0775741 -0.105128 0)
(-0.101619 -0.111815 0)
(-0.12656 -0.115436 0)
(-0.151752 -0.116392 0)
(-0.176659 -0.115092 0)
(-0.200849 -0.111931 0)
(-0.223987 -0.107281 0)
(-0.245822 -0.101478 0)
(-0.266176 -0.0948133 0)
(-0.284933 -0.0875367 0)
(-0.302023 -0.0798521 0)
(-0.317416 -0.071921 0)
(-0.331106 -0.0638653 0)
(-0.343108 -0.0557715 0)
(-0.353447 -0.0476946 0)
(-0.362155 -0.0396633 0)
(-0.369261 -0.031684 0)
(-0.374791 -0.023745 0)
(-0.378765 -0.0158214 0)
(-0.381192 -0.00787824 0)
(-0.382071 0.000124717 0)
(-0.381386 0.00822961 0)
(-0.379113 0.0164761 0)
(-0.375214 0.0248974 0)
(-0.36964 0.0335153 0)
(-0.362335 0.0423358 0)
(-0.35324 0.0513434 0)
(-0.342292 0.0604957 0)
(-0.329437 0.0697179 0)
(-0.314632 0.0788962 0)
(-0.297856 0.0878732 0)
(-0.279123 0.0964427 0)
(-0.258491 0.104347 0)
(-0.236075 0.111278 0)
(-0.212068 0.116875 0)
(-0.18675 0.120739 0)
(-0.160506 0.122439 0)
(-0.133831 0.121534 0)
(-0.107345 0.117594 0)
(-0.0817855 0.110231 0)
(-0.0580067 0.0991277 0)
(-0.0369364 0.0840701 0)
(-0.0195167 0.0649732 0)
(-0.00693517 0.0418974 0)
(-0.00101701 0.0150739 0)
(-0.000985912 -0.0116751 0)
(-0.00662104 -0.031949 0)
(-0.0185172 -0.0490499 0)
(-0.0349305 -0.0629878 0)
(-0.0547637 -0.073865 0)
(-0.0771805 -0.0818574 0)
(-0.10137 -0.0871999 0)
(-0.12659 -0.090169 0)
(-0.152201 -0.0910648 0)
(-0.177658 -0.0901945 0)
(-0.202514 -0.0878586 0)
(-0.226414 -0.0843398 0)
(-0.249082 -0.0798956 0)
(-0.270315 -0.0747527 0)
(-0.28997 -0.0691049 0)
(-0.307953 -0.0631125 0)
(-0.32421 -0.0569034 0)
(-0.338718 -0.0505752 0)
(-0.351473 -0.0441979 0)
(-0.362485 -0.0378172 0)
(-0.371773 -0.0314579 0)
(-0.379356 -0.0251273 0)
(-0.385252 -0.0188187 0)
(-0.389474 -0.0125145 0)
(-0.392026 -0.0061896 0)
(-0.392901 0.000185589 0)
(-0.392084 0.0066418 0)
(-0.389548 0.0132077 0)
(-0.385256 0.0199066 0)
(-0.379163 0.0267524 0)
(-0.371219 0.0337463 0)
(-0.361371 0.0408722 0)
(-0.349573 0.0480927 0)
(-0.335783 0.0553442 0)
(-0.319983 0.0625335 0)
(-0.302175 0.0695329 0)
(-0.282404 0.0761779 0)
(-0.260761 0.0822652 0)
(-0.237399 0.0875532 0)
(-0.212547 0.0917645 0)
(-0.186519 0.0945928 0)
(-0.159728 0.0957127 0)
(-0.132693 0.0947937 0)
(-0.106039 0.0915185 0)
(-0.0804943 0.0856037 0)
(-0.0568859 0.0768229 0)
(-0.0360964 0.0650282 0)
(-0.0190079 0.0501682 0)
(-0.0067289 0.0322988 0)
(-0.000980211 0.0116014 0)
(-0.000973924 -0.00831195 0)
(-0.00655495 -0.0227588 0)
(-0.0183595 -0.0349645 0)
(-0.0346857 -0.0449372 0)
(-0.0544702 -0.0527476 0)
(-0.0769035 -0.0585165 0)
(-0.101194 -0.0624058 0)
(-0.126613 -0.0646064 0)
(-0.152522 -0.0653261 0)
(-0.178374 -0.0647791 0)
(-0.203711 -0.0631757 0)
(-0.228163 -0.0607147 0)
(-0.251437 -0.057578 0)
(-0.273311 -0.0539271 0)
(-0.293624 -0.0499002 0)
(-0.312263 -0.0456127 0)
(-0.329159 -0.041157 0)
(-0.34427 -0.0366041 0)
(-0.357582 -0.0320056 0)
(-0.369093 -0.0273956 0)
(-0.37881 -0.0227932 0)
(-0.386747 -0.0182049 0)
(-0.392913 -0.0136271 0)
(-0.397317 -0.0090483 0)
(-0.399956 -0.00445164 0)
(-0.400824 0.000182954 0)
(-0.399902 0.00487632 0)
(-0.397162 0.0096477 0)
(-0.392569 0.0145123 0)
(-0.386081 0.0194784 0)
(-0.377652 0.0245449 0)
(-0.367237 0.0296981 0)
(-0.354799 0.0349088 0)
(-0.340311 0.040129 0)
(-0.323769 0.0452892 0)
(-0.305198 0.0502959 0)
(-0.284663 0.0550292 0)
(-0.262281 0.0593427 0)
(-0.238233 0.0630632 0)
(-0.212773 0.0659939 0)
(-0.186241 0.067919 0)
(-0.159071 0.068611 0)
(-0.131792 0.0678409 0)
(-0.105034 0.0653908 0)
(-0.0795175 0.0610682 0)
(-0.0560478 0.0547217 0)
(-0.0354736 0.0462551 0)
(-0.0186329 0.035639 0)
(-0.00657766 0.0229178 0)
(-0.000953384 0.00822179 0)
(-0.000966362 -0.00497657 0)
(-0.00651318 -0.0136313 0)
(-0.0182597 -0.0209511 0)
(-0.0345305 -0.0269413 0)
(-0.0542839 -0.0316434 0)
(-0.0767276 -0.0351282 0)
(-0.101083 -0.0374904 0)
(-0.126629 -0.038842 0)
(-0.15273 -0.0393054 0)
(-0.178836 -0.0390067 0)
(-0.204485 -0.0380705 0)
(-0.229296 -0.0366148 0)
(-0.252965 -0.0347482 0)
(-0.275259 -0.0325668 0)
(-0.296002 -0.0301538 0)
(-0.315073 -0.0275787 0)
(-0.332388 -0.0248973 0)
(-0.347898 -0.0221528 0)
(-0.361577 -0.0193766 0)
(-0.373417 -0.0165898 0)
(-0.383418 -0.0138044 0)
(-0.391588 -0.0110249 0)
(-0.397932 -0.00824957 0)
(-0.402454 -0.00547196 0)
(-0.40515 -0.00268237 0)
(-0.40601 0.000130777 0)
(-0.405014 0.00297954 0)
(-0.402136 0.00587494 0)
(-0.397339 0.00882549 0)
(-0.390585 0.0118355 0)
(-0.38183 0.0149036 0)
(-0.371037 0.0180205 0)
(-0.358172 0.0211678 0)
(-0.34322 0.0243156 0)
(-0.326187 0.0274212 0)
(-0.307111 0.0304274 0)
(-0.286074 0.0332616 0)
(-0.263209 0.0358352 0)
(-0.238715 0.0380444 0)
(-0.212862 0.0397716 0)
(-0.186008 0.0408885 0)
(-0.158597 0.0412607 0)
(-0.131169 0.0407536 0)
(-0.104352 0.0392399 0)
(-0.0788626 0.0366081 0)
(-0.0554902 0.0327713 0)
(-0.0350615 0.0276754 0)
(-0.018386 0.0213055 0)
(-0.00647838 0.01369 0)
(-0.000935844 0.00490736 0)
(-0.000962707 -0.00165712 0)
(-0.00649296 -0.00453983 0)
(-0.0182113 -0.00697917 0)
(-0.0344553 -0.00897698 0)
(-0.0541935 -0.0105469 0)
(-0.0766422 -0.0117124 0)
(-0.101029 -0.0125045 0)
(-0.126638 -0.0129602 0)
(-0.152832 -0.0131198 0)
(-0.179064 -0.0130252 0)
(-0.204865 -0.0127174 0)
(-0.229852 -0.0122357 0)
(-0.253717 -0.011616 0)
(-0.276217 -0.0108904 0)
(-0.297175 -0.0100867 0)