/*--------------------------------*- C++ -*----------------------------------*\
  =========                 |
  \\      /  F ield         | OpenFOAM: The Open Source CFD Toolbox
   \\    /   O peration     | Website:  https://openfoam.org
    \\  /    A nd           | Version:  7
     \\/     M anipulation  |
\*---------------------------------------------------------------------------*/
FoamFile
{
    version     2.0;
    format      ascii;
    class       volVectorField;
    location    "0.038";
    object      U;
}
// * * * * * * * * * * * * * * * * * * * * * * * * * * * * * * * * * * * * * //

dimensions      [0 1 -1 0 0 0 0];

internalField   nonuniform List<vector> 
2500
(
(2.6836e-05 -2.67134e-05 0)
(7.88128e-05 -3.10899e-05 0)
(0.000103056 -1.38942e-05 0)
(6.65227e-05 1.00344e-05 0)
(-4.03272e-05 3.40201e-05 0)
(-0.00021507 5.59018e-05 0)
(-0.000450545 7.46397e-05 0)
(-0.000738246 9.00088e-05 0)
(-0.00106881 0.000102087 0)
(-0.00143273 0.000111049 0)
(-0.00182077 0.000117101 0)
(-0.00222405 0.000120461 0)
(-0.00263424 0.000121345 0)
(-0.00304353 0.000119964 0)
(-0.00344473 0.000116522 0)
(-0.00383122 0.000111217 0)
(-0.004197 0.000104236 0)
(-0.00453664 9.57622e-05 0)
(-0.00484533 8.59693e-05 0)
(-0.00511881 7.50258e-05 0)
(-0.00535339 6.30954e-05 0)
(-0.00554594 5.03386e-05 0)
(-0.0056939 3.69141e-05 0)
(-0.00579525 2.29813e-05 0)
(-0.00584855 8.70131e-06 0)
(-0.00585291 -5.76069e-06 0)
(-0.00580806 -2.02344e-05 0)
(-0.00571431 -3.45427e-05 0)
(-0.0055726 -4.85007e-05 0)
(-0.00538452 -6.19156e-05 0)
(-0.00515234 -7.45861e-05 0)
(-0.00487902 -8.63034e-05 0)
(-0.00456821 -9.68516e-05 0)
(-0.00422431 -0.00010601 0)
(-0.00385244 -0.000113553 0)
(-0.00345842 -0.000119257 0)
(-0.00304881 -0.000122897 0)
(-0.00263084 -0.000124255 0)
(-0.00221238 -0.000123119 0)
(-0.00180186 -0.000119289 0)
(-0.00140822 -0.000112579 0)
(-0.00104079 -0.000102821 0)
(-0.000709129 -8.98768e-05 0)
(-0.000422791 -7.36588e-05 0)
(-0.000190956 -5.41976e-05 0)
(-2.1747e-05 -3.18262e-05 0)
(7.86417e-05 -7.58249e-06 0)
(0.000109056 1.61076e-05 0)
(8.01714e-05 3.22114e-05 0)
(2.66185e-05 2.65645e-05 0)
(3.15603e-05 -7.88251e-05 0)
(6.53375e-05 -6.42289e-05 0)
(6.61579e-06 3.01697e-05 0)
(-0.000194289 0.000154299 0)
(-0.000556044 0.000283228 0)
(-0.00107719 0.000404816 0)
(-0.00174559 0.000512598 0)
(-0.00254326 0.000603683 0)
(-0.00344901 0.000677026 0)
(-0.00444015 0.000732547 0)
(-0.00549371 0.000770703 0)
(-0.00658713 0.000792269 0)
(-0.00769869 0.000798202 0)
(-0.00880779 0.000789564 0)
(-0.0098952 0.000767474 0)
(-0.0109431 0.000733077 0)
(-0.0119352 0.000687522 0)
(-0.0128566 0.000631951 0)
(-0.0136943 0.000567494 0)
(-0.0144364 0.000495266 0)
(-0.0150729 0.000416371 0)
(-0.0155951 0.000331902 0)
(-0.0159961 0.000242955 0)
(-0.0162703 0.000150628 0)
(-0.0164138 5.60395e-05 0)
(-0.0164242 -3.96727e-05 0)
(-0.016301 -0.000135338 0)
(-0.016045 -0.00022975 0)
(-0.0156591 -0.00032166 0)
(-0.0151476 -0.000409778 0)
(-0.014517 -0.000492775 0)
(-0.0137753 -0.000569284 0)
(-0.0129328 -0.000637913 0)
(-0.0120013 -0.000697256 0)
(-0.0109949 -0.00074591 0)
(-0.00992921 -0.000782495 0)
(-0.00882193 -0.000805676 0)
(-0.0076923 -0.000814197 0)
(-0.00656112 -0.000806913 0)
(-0.00545049 -0.00078283 0)
(-0.00438346 -0.000741163 0)
(-0.0033837 -0.000681415 0)
(-0.00247483 -0.000603502 0)
(-0.00167968 -0.000507968 0)
(-0.00101899 -0.00039639 0)
(-0.00050965 -0.000272209 0)
(-0.000161958 -0.000142296 0)
(2.46962e-05 -1.94791e-05 0)
(7.17956e-05 7.09565e-05 0)
(3.24482e-05 8.01307e-05 0)
(1.53834e-05 -0.000104577 0)
(-2.58817e-05 -6.6817e-06 0)
(-0.000236955 0.000242271 0)
(-0.000657743 0.000553974 0)
(-0.00130576 0.000879747 0)
(-0.00217926 0.00119086 0)
(-0.00326272 0.00147065 0)
(-0.00453199 0.00171014 0)
(-0.00595775 0.00190497 0)
(-0.00750788 0.00205364 0)
(-0.00914916 0.00215636 0)
(-0.0108484 0.00221449 0)
(-0.0125732 0.00223008 0)
(-0.0142927 0.00220567 0)
(-0.0159777 0.00214404 0)
(-0.0176009 0.00204818 0)
(-0.0191373 0.00192115 0)
(-0.0205642 0.00176603 0)
(-0.0218612 0.00158595 0)
(-0.02301 0.001384 0)
(-0.0239951 0.00116329 0)
(-0.0248032 0.000926895 0)
(-0.0254232 0.00067793 0)
(-0.0258468 0.00041952 0)
(-0.0260679 0.000154838 0)
(-0.0260829 -0.000112878 0)
(-0.0258909 -0.000380312 0)
(-0.0254936 -0.000644052 0)
(-0.0248952 -0.000900588 0)
(-0.0241028 -0.0011463 0)
(-0.0231263 -0.00137749 0)
(-0.0219784 -0.00159037 0)
(-0.0206748 -0.0017811 0)
(-0.0192341 -0.00194585 0)
(-0.0176774 -0.00208079 0)
(-0.0160292 -0.00218225 0)
(-0.0143162 -0.00224668 0)
(-0.0125676 -0.00227086 0)
(-0.0108148 -0.00225191 0)
(-0.00909087 -0.0021875 0)
(-0.00743008 -0.00207602 0)
(-0.00586711 -0.00191681 0)
(-0.00443614 -0.00171059 0)
(-0.00316951 -0.00146002 0)
(-0.00209598 -0.00117074 0)
(-0.00123825 -0.000853031 0)
(-0.000609552 -0.000524801 0)
(-0.000208795 -0.000215851 0)
(-1.48183e-05 2.4968e-05 0)
(1.72811e-05 0.000110522 0)
(-7.28814e-06 -7.17607e-05 0)
(-0.00014665 0.000190386 0)
(-0.000544628 0.000661843 0)
(-0.00121695 0.00122446 0)
(-0.00217188 0.00180734 0)
(-0.00340412 0.002365 0)
(-0.00489383 0.00286905 0)
(-0.00661143 0.00330283 0)
(-0.00852116 0.00365732 0)
(-0.0105836 0.00392855 0)
(-0.0127576 0.00411592 0)
(-0.0150015 0.00422109 0)
(-0.0172745 0.00424725 0)
(-0.0195372 0.00419861 0)
(-0.0217521 0.00408006 0)
(-0.0238844 0.00389692 0)
(-0.0259016 0.00365478 0)
(-0.0277743 0.00335937 0)
(-0.0294758 0.00301652 0)
(-0.0309827 0.00263206 0)
(-0.0322744 0.00221189 0)
(-0.0333337 0.00176188 0)
(-0.0341462 0.00128798 0)
(-0.0347009 0.00079616 0)
(-0.03499 0.00029251 0)
(-0.0350089 -0.000216778 0)
(-0.0347565 -0.000725359 0)
(-0.0342349 -0.00122673 0)
(-0.0334499 -0.0017142 0)
(-0.0324108 -0.00218092 0)
(-0.0311305 -0.00261987 0)
(-0.0296256 -0.00302392 0)
(-0.0279166 -0.00338589 0)
(-0.0260274 -0.0036986 0)
(-0.0239858 -0.00395499 0)
(-0.021823 -0.00414826 0)
(-0.0195736 -0.004272 0)
(-0.017275 -0.0043204 0)
(-0.0149672 -0.00428847 0)
(-0.0126923 -0.00417233 0)
(-0.0104934 -0.00396957 0)
(-0.008414 -0.00367977 0)
(-0.00649653 -0.00330518 0)
(-0.00478079 -0.00285176 0)
(-0.00330195 -0.00233073 0)
(-0.002088 -0.00176104 0)
(-0.00115616 -0.00117318 0)
(-0.000508386 -0.000614323 0)
(-0.000131906 -0.000156038 0)
(-4.57485e-06 8.46273e-05 0)
(-3.02843e-05 2.93236e-05 0)
(-0.000274836 0.000548018 0)
(-0.000874958 0.00131117 0)
(-0.00181448 0.00218136 0)
(-0.00308759 0.00307018 0)
(-0.00468234 0.00391751 0)
(-0.00657295 0.00468374 0)
(-0.00872397 0.00534421 0)
(-0.0110937 0.00588465 0)
(-0.0136365 0.00629807 0)
(-0.0163044 0.00658258 0)
(-0.019049 0.0067399 0)
(-0.0218224 0.00677428 0)
(-0.0245783 0.00669171 0)
(-0.0272725 0.00649941 0)
(-0.0298635 0.00620541 0)
(-0.0323128 0.00581827 0)
(-0.0345852 0.00534687 0)
(-0.0366491 0.00480032 0)
(-0.0384761 0.0041878 0)
(-0.0400418 0.00351861 0)
(-0.0413253 0.0028021 0)
(-0.0423097 0.0020477 0)
(-0.0429816 0.00126494 0)
(-0.0433318 0.000463509 0)
(-0.0433547 -0.000346721 0)
(-0.043049 -0.00115566 0)
(-0.0424174 -0.00195296 0)
(-0.0414668 -0.00272802 0)
(-0.0402083 -0.00346999 0)
(-0.0386575 -0.00416781 0)
(-0.0368343 -0.00481025 0)
(-0.0347631 -0.00538602 0)
(-0.0324725 -0.00588393 0)
(-0.0299957 -0.00629301 0)
(-0.0273698 -0.00660274 0)
(-0.0246356 -0.00680332 0)
(-0.0218376 -0.00688598 0)
(-0.0190229 -0.00684332 0)
(-0.0162411 -0.00666983 0)
(-0.0135426 -0.00636242 0)
(-0.0109782 -0.00592121 0)
(-0.00859726 -0.00535052 0)
(-0.00644617 -0.0046603 0)
(-0.00456614 -0.00386807 0)
(-0.00299094 -0.00300188 0)
(-0.00174354 -0.0021045 0)
(-0.000832131 -0.00123862 0)
(-0.000257187 -0.000494078 0)
(-2.69856e-05 -7.83055e-06 0)
(-5.18155e-05 0.000198295 0)
(-0.000400977 0.00107092 0)
(-0.00120658 0.00219901 0)
(-0.00241843 0.00343414 0)
(-0.00401396 0.00467534 0)
(-0.00597223 0.00585074 0)
(-0.00825988 0.00691098 0)
(-0.0108347 0.00782393 0)
(-0.0136488 0.00857015 0)
(-0.0166505 0.0091395 0)
(-0.0197859 0.00952868 0)
(-0.0230006 0.00973933 0)
(-0.0262406 0.00977676 0)
(-0.0294537 0.00964885 0)
(-0.0325901 0.00936535 0)
(-0.0356027 0.00893729 0)
(-0.0384478 0.00837657 0)
(-0.0410855 0.00769564 0)
(-0.0434797 0.00690736 0)
(-0.0455983 0.00602479 0)
(-0.0474133 0.00506116 0)
(-0.048901 0.00402983 0)
(-0.0500419 0.00294432 0)
(-0.0508209 0.00181829 0)
(-0.0512274 0.000665632 0)
(-0.0512551 -0.000499488 0)
(-0.0509024 -0.00166261 0)
(-0.0501724 -0.00280893 0)
(-0.0490729 -0.00392328 0)
(-0.0476167 -0.00499018 0)
(-0.0458214 -0.00599385 0)
(-0.0437098 -0.00691835 0)
(-0.0413094 -0.00774767 0)
(-0.0386529 -0.00846598 0)
(-0.0357779 -0.00905784 0)
(-0.0327263 -0.00950851 0)
(-0.0295447 -0.00980435 0)
(-0.0262831 -0.00993327 0)
(-0.0229949 -0.00988525 0)
(-0.0197359 -0.009653 0)
(-0.0165632 -0.00923279 0)
(-0.0135338 -0.00862541 0)
(-0.0107037 -0.00783748 0)
(-0.00812538 -0.00688314 0)
(-0.00584653 -0.0057863 0)
(-0.00390772 -0.00458371 0)
(-0.00233937 -0.00332915 0)
(-0.00115825 -0.00209823 0)
(-0.000380802 -0.00099444 0)
(-4.79741e-05 -0.000166685 0)
(-7.14089e-05 0.000431634 0)
(-0.0005214 0.00175681 0)
(-0.0015298 0.00332557 0)
(-0.00301307 0.00498437 0)
(-0.00493088 0.00662393 0)
(-0.00725181 0.00816361 0)
(-0.00993351 0.00954616 0)
(-0.012926 0.0107331 0)
(-0.0161748 0.0117004 0)
(-0.0196219 0.0124351 0)
(-0.0232077 0.0129325 0)
(-0.0268721 0.0131945 0)
(-0.0305558 0.0132273 0)
(-0.0342013 0.013041 0)
(-0.0377538 0.0126481 0)
(-0.0411615 0.0120629 0)
(-0.0443765 0.0113009 0)
(-0.0473546 0.0103786 0)
(-0.050056 0.0093129 0)
(-0.0524453 0.00812122 0)
(-0.0544917 0.00682117 0)
(-0.056169 0.00543061 0)
(-0.0574556 0.00396759 0)
(-0.0583348 0.00245041 0)
(-0.0587948 0.000897673 0)
(-0.0588286 -0.000671669 0)
(-0.0584345 -0.00223826 0)
(-0.0576157 -0.0037823 0)
(-0.0563808 -0.00528353 0)
(-0.0547438 -0.00672129 0)
(-0.052724 -0.00807455 0)
(-0.0503465 -0.00932209 0)
(-0.0476415 -0.0104426 0)
(-0.0446451 -0.0114152 0)
(-0.0413984 -0.0122194 0)
(-0.0379478 -0.0128357 0)
(-0.0343443 -0.0132464 0)
(-0.0306432 -0.0134356 0)
(-0.0269033 -0.0133904 0)
(-0.023186 -0.0131015 0)
(-0.0195543 -0.0125645 0)
(-0.0160715 -0.0117807 0)
(-0.0127998 -0.0107589 0)
(-0.00979827 -0.00951739 0)
(-0.00712169 -0.00808587 0)
(-0.00481847 -0.00650894 0)
(-0.00292792 -0.00484976 0)
(-0.00147697 -0.00319417 0)
(-0.000499014 -0.00165537 0)
(-6.70611e-05 -0.000388672 0)
(-8.92406e-05 0.000725539 0)
(-0.00063554 0.00260072 0)
(-0.00184175 0.00468712 0)
(-0.00359282 0.00682972 0)
(-0.00583074 0.00891421 0)
(-0.0085127 0.0108538 0)
(-0.0115864 0.0125854 0)
(-0.0149933 0.0140655 0)
(-0.0186714 0.0152664 0)
(-0.0225563 0.0161728 0)
(-0.0265824 0.0167792 0)
(-0.0306841 0.0170878 0)
(-0.034797 0.0171064 0)
(-0.0388588 0.0168472 0)
(-0.0428103 0.0163259 0)
(-0.0465954 0.0155603 0)
(-0.0501625 0.0145699 0)
(-0.0534638 0.0133754 0)
(-0.0564564 0.0119983 0)
(-0.0591021 0.0104607 0)
(-0.0613676 0.00878499 0)
(-0.0632245 0.00699382 0)
(-0.0646496 0.00511023 0)
(-0.0656248 0.00315756 0)
(-0.0661371 0.00115951 0)
(-0.0661791 -0.000859745 0)
(-0.0657487 -0.00287553 0)
(-0.0648491 -0.00486263 0)
(-0.0634895 -0.00679524 0)
(-0.0616849 -0.00864705 0)
(-0.0594558 -0.0103913 0)
(-0.0568291 -0.0120011 0)
(-0.0538374 -0.0134493 0)
(-0.0505193 -0.0147094 0)
(-0.0469193 -0.0157554 0)
(-0.0430874 -0.0165629 0)
(-0.0390786 -0.0171093 0)
(-0.0349529 -0.0173747 0)
(-0.0307739 -0.0173429 0)
(-0.0266085 -0.0170025 0)
(-0.0225254 -0.0163477 0)
(-0.0185941 -0.0153803 0)
(-0.0148833 -0.014111 0)
(-0.0114593 -0.0125614 0)
(-0.00838454 -0.0107665 0)
(-0.00571637 -0.00877755 0)
(-0.00350406 -0.00666533 0)
(-0.00178556 -0.00452363 0)
(-0.000611274 -0.0024724 0)
(-8.44097e-05 -0.000670075 0)
(-0.000105693 0.00107653 0)
(-0.000744251 0.00359725 0)
(-0.00214317 0.00627883 0)
(-0.00415805 0.00896674 0)
(-0.00671362 0.011544 0)
(-0.00975538 0.0139198 0)
(-0.0132204 0.0160269 0)
(-0.0170408 0.0178184 0)
(-0.0211465 0.0192637 0)
(-0.0254661 0.0203464 0)
(-0.0299278 0.0210606 0)
(-0.0344605 0.0214094 0)
(-0.0389947 0.0214024 0)
(-0.0434637 0.0210547 0)
(-0.0478038 0.0203851 0)
(-0.0519555 0.0194154 0)
(-0.0558634 0.0181695 0)
(-0.059477 0.0166728 0)
(-0.0627505 0.0149514 0)
(-0.0656433 0.0130326 0)
(-0.0681201 0.0109438 0)
(-0.0701506 0.00871279 0)
(-0.0717101 0.006368 0)
(-0.0727793 0.00393805 0)
(-0.0733444 0.00145212 0)
(-0.0733972 -0.00106011 0)
(-0.0729351 -0.0035683 0)
(-0.0719616 -0.00604144 0)
(-0.0704861 -0.00844783 0)
(-0.068524 -0.0107551 0)
(-0.0660971 -0.0129305 0)
(-0.0632335 -0.0149407 0)
(-0.0599676 -0.0167526 0)
(-0.0563403 -0.0183335 0)
(-0.0523989 -0.0196517 0)
(-0.0481964 -0.0206768 0)
(-0.0437917 -0.0213813 0)
(-0.039249 -0.0217407 0)
(-0.0346365 -0.0217352 0)
(-0.0300265 -0.0213504 0)
(-0.0254936 -0.0205792 0)
(-0.0211134 -0.0194231 0)
(-0.0169618 -0.017894 0)
(-0.0131128 -0.0160163 0)
(-0.00963746 -0.0138293 0)
(-0.00660282 -0.0113895 0)
(-0.00406891 -0.00877416 0)
(-0.00208517 -0.00608299 0)
(-0.000718554 -0.00344079 0)
(-0.000100412 -0.00100759 0)
(-0.000121175 0.00148189 0)
(-0.000848965 0.00474184 0)
(-0.00243667 0.00809646 0)
(-0.00471237 0.0113925 0)
(-0.00758417 0.0145117 0)
(-0.0109857 0.0173611 0)
(-0.0148431 0.0198709 0)
(-0.0190783 0.0219917 0)
(-0.0236129 0.0236919 0)
(-0.0283679 0.0249544 0)
(-0.033265 0.0257739 0)
(-0.0382272 0.026155 0)
(-0.0431799 0.0261098 0)
(-0.048052 0.0256566 0)
(-0.0527759 0.024818 0)
(-0.0572884 0.0236201 0)
(-0.0615312 0.0220916 0)
(-0.065451 0.0202627 0)
(-0.0689996 0.0181649 0)
(-0.0721344 0.0158305 0)
(-0.0748181 0.0132924 0)
(-0.0770192 0.010584 0)
(-0.0787115 0.00773909 0)
(-0.0798747 0.00479195 0)
(-0.080494 0.00177743 0)
(-0.0805607 -0.00126898 0)
(-0.0800718 -0.00431103 0)
(-0.0790305 -0.00731164 0)
(-0.0774463 -0.0102329 0)
(-0.0753349 -0.0130361 0)
(-0.0727188 -0.015682 0)
(-0.0696271 -0.0181307 0)
(-0.0660957 -0.0203426 0)
(-0.0621672 -0.0222783 0)
(-0.0578913 -0.0238996 0)
(-0.0533239 -0.0251703 0)
(-0.0485272 -0.026057 0)
(-0.0435695 -0.0265302 0)
(-0.0385237 -0.0265656 0)
(-0.0334674 -0.0261457 0)
(-0.028481 -0.0252611 0)
(-0.0236472 -0.0239123 0)
(-0.0190493 -0.0221118 0)
(-0.0147696 -0.0198859 0)
(-0.0108888 -0.017277 0)
(-0.00748415 -0.0143463 0)
(-0.00462716 -0.0111755 0)
(-0.00237894 -0.00786958 0)
(-0.000822481 -0.00455689 0)
(-0.000115507 -0.00139874 0)
(-0.000136069 0.00193983 0)
(-0.0009513 0.00603143 0)
(-0.00272567 0.0101373 0)
(-0.00526106 0.0141056 0)
(-0.00844953 0.0178176 0)
(-0.0122129 0.0211793 0)
(-0.0164656 0.0241196 0)
(-0.0211196 0.0265883 0)
(-0.0260871 0.0285535 0)
(-0.0312813 0.0299987 0)
(-0.0366167 0.0309201 0)
(-0.0420105 0.0313246 0)
(-0.047383 0.0312275 0)
(-0.0526583 0.0306508 0)
(-0.057765 0.0296217 0)
(-0.0626367 0.0281709 0)
(-0.0672122 0.0263323 0)
(-0.0714356 0.0241413 0)
(-0.0752568 0.021635 0)
(-0.0786315 0.0188513 0)
(-0.0815207 0.0158287 0)
(-0.0838916 0.0126063 0)
(-0.085717 0.00922361 0)
(-0.0869755 0.00572067 0)
(-0.0876517 0.00213822 0)
(-0.087736 -0.00148227 0)
(-0.0872251 -0.00509845 0)
(-0.0861216 -0.00866697 0)
(-0.084435 -0.0121435 0)
(-0.0821812 -0.0154827 0)
(-0.0793827 -0.0186384 0)
(-0.0760694 -0.021564 0)
(-0.0722783 -0.0242126 0)
(-0.0680535 -0.0265381 0)
(-0.0634465 -0.0284952 0)
(-0.0585159 -0.0300411 0)
(-0.0533272 -0.0311359 0)
(-0.0479523 -0.0317445 0)
(-0.0424691 -0.0318376 0)
(-0.0369604 -0.0313934 0)
(-0.0315131 -0.0303997 0)
(-0.0262171 -0.0288551 0)
(-0.0211637 -0.0267717 0)
(-0.0164446 -0.0241769 0)
(-0.0121503 -0.0211154 0)
(-0.00836953 -0.0176514 0)
(-0.0051854 -0.013871 0)
(-0.002671 -0.00988281 0)
(-0.000924931 -0.00581887 0)
(-0.000130117 -0.00184212 0)
(-0.000150717 0.00244945 0)
(-0.00105288 0.00746477 0)
(-0.00301387 0.0124009 0)
(-0.00581017 0.0171067 0)
(-0.00931805 0.0214639 0)
(-0.0134474 0.025378 0)
(-0.018101 0.0287777 0)
(-0.02318 0.0316133 0)
(-0.0285869 0.0338538 0)
(-0.0342265 0.0354842 0)
(-0.0400062 0.0365034 0)
(-0.0458366 0.0369215 0)
(-0.0516327 0.0367578 0)
(-0.0573142 0.0360388 0)
(-0.0628057 0.0347966 0)
(-0.0680377 0.0330675 0)
(-0.0729462 0.0308907 0)
(-0.0774734 0.0283076 0)
(-0.0815672 0.0253609 0)
(-0.0851816 0.0220945 0)
(-0.0882767 0.0185527 0)
(-0.0908184 0.0147804 0)
(-0.0927786 0.0108231 0)
(-0.094135 0.00672676 0)
(-0.0948714 0.00253801 0)
(-0.0949776 -0.00169556 0)
(-0.0944496 -0.00592536 0)
(-0.0932897 -0.0101016 0)
(-0.0915067 -0.0141734 0)
(-0.0891163 -0.0180885 0)
(-0.0861413 -0.0217938 0)
(-0.0826117 -0.0252352 0)
(-0.078565 -0.0283586 0)
(-0.0740467 -0.0311102 0)
(-0.0691098 -0.0334374 0)
(-0.0638152 -0.0352899 0)
(-0.0582314 -0.0366208 0)
(-0.0524343 -0.0373885 0)
(-0.0465063 -0.0375578 0)
(-0.040536 -0.037102 0)
(-0.034617 -0.0360047 0)
(-0.0288468 -0.034262 0)
(-0.0233257 -0.0318844 0)
(-0.0181549 -0.0288994 0)
(-0.0134361 -0.0253529 0)
(-0.00926967 -0.0213116 0)
(-0.0057512 -0.0168647 0)
(-0.00296589 -0.0121248 0)
(-0.00102783 -0.00722705 0)
(-0.000144631 -0.00233735 0)
(-0.000165418 0.00301073 0)
(-0.00115526 0.00904241 0)
(-0.003305 0.0148888 0)
(-0.0063659 0.0203992 0)
(-0.0101985 0.0254553 0)
(-0.0147005 0.0299631 0)
(-0.0197629 0.0338523 0)
(-0.0252753 0.0370743 0)
(-0.0311304 0.0396003 0)
(-0.037224 0.0414181 0)
(-0.0434557 0.0425303 0)
(-0.0497298 0.0429513 0)
(-0.0559556 0.0427052 0)
(-0.062048 0.041824 0)
(-0.0679281 0.0403454 0)
(-0.0735233 0.0383117 0)
(-0.078767 0.0357682 0)
(-0.0835995 0.0327624 0)
(-0.0879671 0.0293434 0)
(-0.0918226 0.025561 0)
(-0.095125 0.0214656 0)
(-0.0978394 0.0171083 0)
(-0.0999369 0.0125403 0)
(-0.101394 0.00781359 0)
(-0.102195 0.00298094 0)
(-0.102328 -0.00190398 0)
(-0.101788 -0.00678633 0)
(-0.100578 -0.0116098 0)
(-0.0987045 -0.0163168 0)
(-0.0961836 -0.0208481 0)
(-0.0930375 -0.0251431 0)
(-0.0892962 -0.0291403 0)
(-0.0849976 -0.0327777 0)
(-0.0801876 -0.0359935 0)
(-0.0749207 -0.0387269 0)
(-0.0692599 -0.0409196 0)
(-0.0632765 -0.042517 0)
(-0.0570501 -0.0434698 0)
(-0.0506678 -0.0437361 0)
(-0.0442243 -0.043283 0)
(-0.03782 -0.0420891 0)
(-0.0315609 -0.0401467 0)
(-0.0255564 -0.0374638 0)
(-0.0199187 -0.0340666 0)
(-0.0147608 -0.0300015 0)
(-0.0101959 -0.0253368 0)
(-0.00633243 -0.0201644 0)
(-0.00326823 -0.0146004 0)
(-0.00113307 -0.00878403 0)
(-0.000159404 -0.00288509 0)
(-0.000180436 0.00362444 0)
(-0.00125987 0.0107667 0)
(-0.0036026 0.0176053 0)
(-0.0069343 0.0239887 0)
(-0.0110995 0.0297991 0)
(-0.0159835 0.0349433 0)
(-0.0214648 0.0393526 0)
(-0.0274214 0.042981 0)
(-0.0337353 0.0458026 0)
(-0.040293 0.0478097 0)
(-0.0469862 0.0490093 0)
(-0.0537123 0.0494215 0)
(-0.0603747 0.0490761 0)
(-0.066884 0.0480115 0)
(-0.0731574 0.046272 0)
(-0.0791192 0.0439065 0)
(-0.0847008 0.040967 0)
(-0.0898406 0.0375078 0)
(-0.0944837 0.0335842 0)
(-0.0985821 0.0292526 0)
(-0.102094 0.0245697 0)
(-0.104983 0.0195924 0)
(-0.107221 0.0143783 0)
(-0.108783 0.00898511 0)
(-0.109653 0.00347169 0)
(-0.109818 -0.00210223 0)
(-0.109272 -0.00767553 0)
(-0.108017 -0.0131855 0)
(-0.10606 -0.0185676 0)
(-0.103415 -0.0237555 0)
(-0.100104 -0.0286812 0)
(-0.0961563 -0.0332752 0)
(-0.0916093 -0.0374674 0)
(-0.0865097 -0.0411872 0)
(-0.0809128 -0.0443652 0)
(-0.0748832 -0.0469343 0)
(-0.0684949 -0.0488309 0)
(-0.0618311 -0.0499975 0)
(-0.0549839 -0.0503839 0)
(-0.0480537 -0.0499501 0)
(-0.0411487 -0.0486684 0)
(-0.0343833 -0.0465258 0)
(-0.0278774 -0.0435268 0)
(-0.0217542 -0.0396952 0)
(-0.0161394 -0.0350767 0)
(-0.0111596 -0.0297406 0)
(-0.00693699 -0.0237811 0)
(-0.00358258 -0.0173179 0)
(-0.00124246 -0.0104947 0)
(-0.00017476 -0.00348697 0)
(-0.000196004 0.00429207 0)
(-0.00136802 0.0126418 0)
(-0.00390999 0.0205565 0)
(-0.00752108 0.0278836 0)
(-0.0120292 0.0345052 0)
(-0.0173069 0.0403295 0)
(-0.0232195 0.0452903 0)
(-0.0296328 0.0493449 0)
(-0.0364177 0.0524721 0)
(-0.043451 0.0546693 0)
(-0.050616 0.0559497 0)
(-0.0578028 0.05634 0)
(-0.0649094 0.0558772 0)
(-0.0718414 0.0546068 0)
(-0.0785125 0.0525807 0)
(-0.0848442 0.0498552 0)
(-0.090766 0.0464897 0)
(-0.0962148 0.0425455 0)
(-0.101135 0.038085 0)
(-0.105477 0.0331711 0)
(-0.1092 0.0278669 0)
(-0.112266 0.0222356 0)
(-0.114647 0.0163405 0)
(-0.116318 0.0102455 0)
(-0.117261 0.0040153 0)
(-0.117463 -0.00228448 0)
(-0.116919 -0.00858653 0)
(-0.115626 -0.0148217 0)
(-0.113593 -0.0209187 0)
(-0.110832 -0.0268041 0)
(-0.107363 -0.0324021 0)
(-0.103214 -0.0376352 0)
(-0.0984242 -0.0424243 0)
(-0.0930381 -0.0466901 0)
(-0.087112 -0.0503535 0)
(-0.0807119 -0.0533377 0)
(-0.0739139 -0.0555693 0)
(-0.0668048 -0.0569811 0)
(-0.0594815 -0.0575137 0)
(-0.0520506 -0.0571185 0)
(-0.044628 -0.0557598 0)
(-0.0373374 -0.0534183 0)
(-0.0303093 -0.0500932 0)
(-0.0236794 -0.0458048 0)
(-0.0175866 -0.0405973 0)
(-0.012172 -0.03454 0)
(-0.00757255 -0.0277292 0)
(-0.00391332 -0.0202882 0)
(-0.0013577 -0.0123661 0)
(-0.000190997 -0.00414556 0)
(-0.000212329 0.00501579 0)
(-0.00148092 0.0146733 0)
(-0.00423023 0.0237511 0)
(-0.00813156 0.0320945 0)
(-0.0129954 0.0395857 0)
(-0.0186806 0.0461348 0)
(-0.0250388 0.0516787 0)
(-0.0319229 0.0561792 0)
(-0.0391921 0.059621 0)
(-0.046713 0.0620081 0)
(-0.0543602 0.0633613 0)
(-0.0620166 0.0637151 0)
(-0.0695741 0.0631149 0)
(-0.0769338 0.0616147 0)
(-0.0840059 0.059275 0)
(-0.0907096 0.0561602 0)
(-0.0969724 0.0523377 0)
(-0.10273 0.0478767 0)
(-0.107927 0.0428467 0)
(-0.112513 0.0373176 0)
(-0.116447 0.0313588 0)
(-0.119692 0.0250399 0)
(-0.122218 0.0184301 0)
(-0.124001 0.0115991 0)
(-0.125022 0.00461705 0)
(-0.125268 -0.00244444 0)
(-0.124731 -0.00951216 0)
(-0.12341 -0.0165107 0)
(-0.121309 -0.0233622 0)
(-0.11844 -0.0299859 0)
(-0.114822 -0.0362984 0)
(-0.110482 -0.0422137 0)
(-0.105456 -0.0476438 0)
(-0.0997883 -0.0524995 0)
(-0.0935359 -0.0566916 0)
(-0.0867653 -0.0601325 0)
(-0.0795545 -0.0627381 0)
(-0.0719935 -0.0644301 0)
(-0.0641836 -0.0651384 0)
(-0.056238 -0.0648039 0)
(-0.0482803 -0.0633819 0)
(-0.0404442 -0.0608448 0)
(-0.0328716 -0.057185 0)
(-0.0257112 -0.0524182 0)
(-0.0191164 -0.0465854 0)
(-0.0132438 -0.0397555 0)
(-0.0082465 -0.0320264 0)
(-0.00426466 -0.0235254 0)
(-0.00148044 -0.0144076 0)
(-0.000208389 -0.00486429 0)
(-0.000229597 0.00579832 0)
(-0.00159965 0.0168683 0)
(-0.0045661 0.0271994 0)
(-0.00877057 0.0366342 0)
(-0.0140049 0.0450551 0)
(-0.0201134 0.0523743 0)
(-0.0269331 0.0585328 0)
(-0.0343032 0.0634982 0)
(-0.0420705 0.0672624 0)
(-0.0500912 0.0698376 0)
(-0.0582305 0.0712534 0)
(-0.066364 0.071554 0)
(-0.0743777 0.0707945 0)
(-0.0821682 0.0690388 0)
(-0.0896426 0.0663566 0)
(-0.0967177 0.0628218 0)
(-0.10332 0.0585107 0)
(-0.109385 0.0535004 0)
(-0.114856 0.0478683 0)
(-0.119684 0.0416913 0)
(-0.123827 0.0350455 0)
(-0.12725 0.0280066 0)
(-0.129922 0.0206496 0)
(-0.13182 0.0130495 0)
(-0.132923 0.00528225 0)
(-0.133218 -0.00257533 0)
(-0.132697 -0.0104443 0)
(-0.131356 -0.0182434 0)
(-0.129199 -0.0258882 0)
(-0.126234 -0.0332909 0)
(-0.122478 -0.0403603 0)
(-0.117957 -0.0470019 0)
(-0.112705 -0.0531182 0)
(-0.106765 -0.0586098 0)
(-0.100192 -0.0633766 0)
(-0.0930544 -0.0673192 0)
(-0.0854304 -0.0703414 0)
(-0.077413 -0.0723523 0)
(-0.069108 -0.0732695 0)
(-0.0606347 -0.0730221 0)
(-0.052125 -0.0715539 0)
(-0.0437227 -0.0688273 0)
(-0.035582 -0.0648265 0)
(-0.0278653 -0.0595604 0)
(-0.0207419 -0.0530661 0)
(-0.0143853 -0.0454109 0)
(-0.00896584 -0.0366938 0)
(-0.0046406 -0.0270463 0)
(-0.00161222 -0.0166304 0)
(-0.000227199 -0.00564743 0)
(-0.000247975 0.00664296 0)
(-0.0017252 0.0192352 0)
(-0.00492014 0.0309137 0)
(-0.00944252 0.0415176 0)
(-0.015064 0.0509295 0)
(-0.0216132 0.0590645 0)
(-0.0289115 0.0658686 0)
(-0.0367833 0.0713168 0)
(-0.0450626 0.0754092 0)
(-0.0535943 0.0781683 0)
(-0.0622342 0.0796343 0)
(-0.0708504 0.0798624 0)
(-0.0793231 0.0789192 0)
(-0.0875446 0.0768797 0)
(-0.095419 0.0738245 0)
(-0.102862 0.0698377 0)
(-0.109798 0.065005 0)
(-0.116164 0.0594126 0)
(-0.121903 0.0531459 0)
(-0.126968 0.0462891 0)
(-0.131316 0.0389249 0)
(-0.134914 0.0311349 0)
(-0.137731 0.0229999 0)
(-0.139745 0.0146 0)
(-0.140934 0.00601602 0)
(-0.141285 -0.00267 0)
(-0.140788 -0.011374 0)
(-0.139438 -0.0200091 0)
(-0.137236 -0.0284847 0)
(-0.134189 -0.0367062 0)
(-0.130311 -0.0445748 0)
(-0.125624 -0.0519872 0)
(-0.12016 -0.0588363 0)
(-0.11396 -0.0650119 0)
(-0.107078 -0.070402 0)
(-0.0995802 -0.0748946 0)
(-0.0915467 -0.0783798 0)
(-0.0830721 -0.0807528 0)
(-0.0742664 -0.0819169 0)
(-0.0652549 -0.0817872 0)
(-0.0561776 -0.0802943 0)
(-0.047189 -0.0773883 0)
(-0.0384559 -0.0730428 0)
(-0.030156 -0.0672586 0)
(-0.0224753 -0.0600671 0)
(-0.0156058 -0.0515327 0)
(-0.00973722 -0.0417554 0)
(-0.00504494 -0.0308705 0)
(-0.0017545 -0.0190476 0)
(-0.000247674 -0.00650001 0)
(-0.00026762 0.00755349 0)
(-0.0018585 0.0217837 0)
(-0.00529471 0.0349077 0)
(-0.0101514 0.0467611 0)
(-0.0161783 0.0572268 0)
(-0.0231867 0.0662233 0)
(-0.0309813 0.0737031 0)
(-0.0393707 0.0796496 0)
(-0.0481751 0.0840737 0)
(-0.0572275 0.0870094 0)
(-0.0663742 0.0885097 0)
(-0.0754756 0.088643 0)
(-0.0844062 0.0874888 0)
(-0.0930545 0.0851347 0)
(-0.101322 0.0816737 0)
(-0.109124 0.0772011 0)
(-0.116385 0.0718132 0)
(-0.123041 0.0656056 0)
(-0.129038 0.0586721 0)
(-0.134329 0.0511043 0)
(-0.138875 0.0429918 0)
(-0.142641 0.0344218 0)
(-0.1456 0.0254803 0)
(-0.147729 0.0162523 0)
(-0.149007 0.00682301 0)
(-0.14942 -0.00272101 0)
(-0.148956 -0.0122911 0)
(-0.147609 -0.0217952 0)
(-0.145378 -0.0311372 0)
(-0.142266 -0.040216 0)
(-0.138284 -0.0489253 0)
(-0.13345 -0.0571531 0)
(-0.127793 -0.0647824 0)
(-0.121352 -0.0716917 0)
(-0.114177 -0.0777564 0)
(-0.106332 -0.0828507 0)
(-0.0978983 -0.0868496 0)
(-0.088971 -0.0896327 0)
(-0.0796635 -0.091087 0)
(-0.0701068 -0.0911112 0)
(-0.0604491 -0.0896202 0)
(-0.0508555 -0.0865495 0)
(-0.0415065 -0.0818599 0)
(-0.0325957 -0.0755415 0)
(-0.0243276 -0.0676181 0)
(-0.0169144 -0.0581502 0)
(-0.0105669 -0.0472376 0)
(-0.00548133 -0.0350198 0)
(-0.00190871 -0.0216743 0)
(-0.000270059 -0.00742782 0)
(-0.000288681 0.00853414 0)
(-0.0020004 0.0245244 0)
(-0.00569199 0.0391969 0)
(-0.0109009 0.0523829 0)
(-0.0173526 0.063966 0)
(-0.0248399 0.0738693 0)
(-0.0331486 0.0820529 0)
(-0.0420707 0.0885107 0)
(-0.0514116 0.0932663 0)
(-0.060992 0.0963676 0)
(-0.0706482 0.0978825 0)
(-0.080233 0.0978945 0)
(-0.0896156 0.0964982 0)
(-0.098681 0.0937958 0)
(-0.107329 0.0898937 0)
(-0.115475 0.0849 0)
(-0.123044 0.0789222 0)
(-0.129974 0.072066 0)
(-0.136212 0.0644341 0)
(-0.141715 0.0561259 0)
(-0.146445 0.0472371 0)
(-0.15037 0.0378608 0)
(-0.153464 0.0280875 0)
(-0.155705 0.0180065 0)
(-0.157073 0.00770704 0)
(-0.157552 -0.00272078 0)
(-0.157132 -0.0131843 0)
(-0.155802 -0.0235872 0)
(-0.153558 -0.0338282 0)
(-0.150402 -0.0438004 0)
(-0.146339 -0.0533902 0)
(-0.141384 -0.0624773 0)
(-0.135561 -0.0709345 0)
(-0.128903 -0.0786287 0)
(-0.121457 -0.0854218 0)
(-0.113287 -0.091173 0)
(-0.104469 -0.0957411 0)
(-0.0951 -0.0989877 0)
(-0.0852958 -0.100781 0)
(-0.0751921 -0.101002 0)
(-0.0649452 -0.099546 0)
(-0.054731 -0.0963314 0)
(-0.0447441 -0.091303 0)
(-0.0351952 -0.084438 0)
(-0.0263088 -0.0757504 0)
(-0.0183192 -0.0652948 0)
(-0.0114608 -0.0531699 0)
(-0.00595325 -0.0395186 0)
(-0.00207625 -0.0245274 0)
(-0.000294592 -0.00843739 0)
(-0.000311305 0.0095896 0)
(-0.00215176 0.0274693 0)
(-0.00611405 0.0437979 0)
(-0.0116944 0.0584022 0)
(-0.0185916 0.0711671 0)
(-0.0265775 0.0820212 0)
(-0.035418 0.0909342 0)
(-0.0448865 0.0979127 0)
(-0.0547728 0.102995 0)
(-0.0648847 0.106246 0)
(-0.0750483 0.107751 0)
(-0.0851091 0.10761 0)
(-0.0949312 0.105937 0)
(-0.104397 0.102849 0)
(-0.113406 0.0984674 0)
(-0.121873 0.0929153 0)
(-0.129726 0.0863121 0)
(-0.136905 0.0787742 0)
(-0.143362 0.0704134 0)
(-0.149055 0.0613369 0)
(-0.15395 0.0516468 0)
(-0.158019 0.0414412 0)
(-0.161237 0.0308149 0)
(-0.163583 0.0198607 0)
(-0.16504 0.00867077 0)
(-0.165591 -0.00266184 0)
(-0.165223 -0.0140415 0)
(-0.163926 -0.0253683 0)
(-0.161691 -0.036537 0)
(-0.158515 -0.0474352 0)
(-0.1544 -0.0579429 0)
(-0.149355 -0.0679315 0)
(-0.143397 -0.0772638 0)
(-0.136556 -0.0857948 0)
(-0.128873 -0.0933723 0)
(-0.120406 -0.0998393 0)
(-0.111229 -0.105037 0)
(-0.101438 -0.108806 0)
(-0.0911501 -0.110995 0)
(-0.0805048 -0.111462 0)
(-0.0696656 -0.110082 0)
(-0.0588196 -0.106751 0)
(-0.0481758 -0.101396 0)
(-0.037963 -0.0939774 0)
(-0.0284273 -0.0844964 0)
(-0.0198276 -0.0729998 0)
(-0.0124245 -0.0595834 0)
(-0.0064641 -0.0443935 0)
(-0.00225847 -0.0276253 0)
(-0.000321518 -0.00953595 0)
(-0.000335645 0.010725 0)
(-0.00231343 0.030631 0)
(-0.00656299 0.0487285 0)
(-0.0125352 0.0648394 0)
(-0.0198993 0.0788506 0)
(-0.0284038 0.0906978 0)
(-0.0377925 0.100362 0)
(-0.0478189 0.107866 0)
(-0.058256 0.113265 0)
(-0.068898 0.116643 0)
(-0.079561 0.118107 0)
(-0.090083 0.117777 0)
(-0.100324 0.115786 0)
(-0.110165 0.112271 0)
(-0.119505 0.107369 0)
(-0.128261 0.10122 0)
(-0.136365 0.0939546 0)
(-0.143761 0.0857022 0)
(-0.150404 0.0765837 0)
(-0.156257 0.0667139 0)
(-0.161292 0.0562009 0)
(-0.165483 0.0451475 0)
(-0.168809 0.033652 0)
(-0.171251 0.0218099 0)
(-0.172794 0.00971518 0)
(-0.17342 -0.00253706 0)
(-0.173115 -0.0148493 0)
(-0.171867 -0.0271195 0)
(-0.169664 -0.039239 0)
(-0.166498 -0.0510912 0)
(-0.162366 -0.0625502 0)
(-0.157269 -0.0734799 0)
(-0.151218 -0.0837332 0)
(-0.144236 -0.0931529 0)
(-0.136358 -0.101572 0)
(-0.127633 -0.108817 0)
(-0.118134 -0.114709 0)
(-0.107951 -0.119067 0)
(-0.0972027 -0.121715 0)
(-0.08603 -0.122487 0)
(-0.0746035 -0.121232 0)
(-0.0631206 -0.117822 0)
(-0.0518052 -0.11216 0)
(-0.0409054 -0.104187 0)
(-0.0306905 -0.0938884 0)
(-0.0214465 -0.0812994 0)
(-0.0134635 -0.0665115 0)
(-0.00701725 -0.0496729 0)
(-0.00245677 -0.0309881 0)
(-0.000351091 -0.0107315 0)
(-0.000361869 0.0119459 0)
(-0.00248633 0.0340235 0)
(-0.007041 0.0540079 0)
(-0.0134267 0.0717159 0)
(-0.0212796 0.0870373 0)
(-0.0303224 0.0999167 0)
(-0.0402742 0.11035 0)
(-0.0508667 0.118376 0)
(-0.0618552 0.124075 0)
(-0.0730197 0.127551 0)
(-0.0841661 0.128936 0)
(-0.0951258 0.128374 0)
(-0.105756 0.126019 0)
(-0.115935 0.12203 0)
(-0.125566 0.116564 0)
(-0.134569 0.109775 0)
(-0.142879 0.101812 0)
(-0.150448 0.0928128 0)
(-0.157235 0.0829099 0)
(-0.163211 0.072225 0)
(-0.168351 0.0608721 0)
(-0.172635 0.048958 0)
(-0.176047 0.0365834 0)
(-0.178571 0.0238454 0)
(-0.180192 0.0108391 0)
(-0.180895 -0.00234003 0)
(-0.180664 -0.0155939 0)
(-0.179483 -0.0288193 0)
(-0.177339 -0.0419058 0)
(-0.174217 -0.0547337 0)
(-0.170108 -0.0671723 0)