/*--------------------------------*- C++ -*----------------------------------*\
  =========                 |
  \\      /  F ield         | OpenFOAM: The Open Source CFD Toolbox
   \\    /   O peration     | Website:  https://openfoam.org
    \\  /    A nd           | Version:  7
     \\/     M anipulation  |
\*---------------------------------------------------------------------------*/
FoamFile
{
    version     2.0;
    format      ascii;
    class       surfaceScalarField;
    location    "0.0234";
    object      phi;
}
// * * * * * * * * * * * * * * * * * * * * * * * * * * * * * * * * * * * * * //

dimensions      [0 3 -1 0 0 0 0];

internalField   nonuniform List<scalar> 
4900
(
5.45566e-06
-5.45565e-06
9.95515e-06
-4.4995e-06
1.26959e-05
-2.74072e-06
1.44126e-05
-1.71676e-06
1.55259e-05
-1.11327e-06
1.62748e-05
-7.48887e-07
1.68005e-05
-5.25701e-07
1.71848e-05
-3.84313e-07
1.74752e-05
-2.90402e-07
1.77002e-05
-2.25009e-07
1.78778e-05
-1.77584e-07
1.80198e-05
-1.42038e-07
1.81345e-05
-1.14694e-07
1.82278e-05
-9.32292e-08
1.83039e-05
-7.6107e-08
1.83661e-05
-6.22682e-08
1.84171e-05
-5.09551e-08
1.84587e-05
-4.1608e-08
1.84925e-05
-3.38009e-08
1.85197e-05
-2.72011e-08
1.85412e-05
-2.15415e-08
1.85578e-05
-1.66021e-08
1.857e-05
-1.21966e-08
1.85782e-05
-8.16228e-09
1.85826e-05
-4.35243e-09
1.85832e-05
-6.30176e-10
1.85801e-05
3.13889e-09
1.8573e-05
7.08868e-09
1.85616e-05
1.13619e-08
1.85455e-05
1.61144e-08
1.8524e-05
2.15233e-08
1.84962e-05
2.7797e-08
1.8461e-05
3.51886e-08
1.8417e-05
4.40147e-08
1.83623e-05
5.4683e-08
1.82945e-05
6.77328e-08
1.82106e-05
8.38994e-08
1.81064e-05
1.04216e-07
1.79762e-05
1.30186e-07
1.78122e-05
1.64087e-07
1.76026e-05
2.09526e-07
1.73301e-05
2.72495e-07
1.69667e-05
3.63464e-07
1.64651e-05
5.01523e-07
1.57431e-05
7.22057e-07
1.46545e-05
1.08864e-06
1.29445e-05
1.71001e-06
1.01625e-05
2.78192e-06
5.5579e-06
4.60464e-06
5.5579e-06
-1.18246e-07
-5.3374e-06
1.83294e-06
-6.45068e-06
4.41216e-06
-5.31994e-06
6.72298e-06
-4.02758e-06
8.59494e-06
-2.98523e-06
1.00667e-05
-2.22061e-06
1.12182e-05
-1.67726e-06
1.21242e-05
-1.2903e-06
1.28436e-05
-1.0098e-06
1.34205e-05
-8.01888e-07
1.38872e-05
-6.44319e-07
1.42676e-05
-5.22459e-07
1.45795e-05
-4.26551e-07
1.48362e-05
-3.49941e-07
1.50481e-05
-2.87974e-07
1.52231e-05
-2.37304e-07
1.53676e-05
-1.95462e-07
1.54866e-05
-1.60582e-07
1.5584e-05
-1.31212e-07
1.5663e-05
-1.06203e-07
1.57261e-05
-8.46174e-08
1.57751e-05
-6.56746e-08
1.58117e-05
-4.87059e-08
1.58366e-05
-3.31219e-08
1.58507e-05
-1.83872e-08
1.5854e-05
-3.99816e-09
1.58466e-05
1.05365e-08
1.5828e-05
2.57145e-08
1.57973e-05
4.20588e-08
1.57533e-05
6.01407e-08
1.56942e-05
8.06057e-08
1.56178e-05
1.04208e-07
1.55211e-05
1.31853e-07
1.54005e-05
1.64662e-07
1.52511e-05
2.04059e-07
1.50669e-05
2.51898e-07
1.48402e-05
3.10652e-07
1.45607e-05
3.8371e-07
1.4215e-05
4.75826e-07
1.37853e-05
5.93858e-07
1.32468e-05
7.47955e-07
1.25658e-05
9.53489e-07
1.16952e-05
1.23414e-06
1.05701e-05
1.62654e-06
9.10638e-06
2.18583e-06
7.20904e-06
2.98597e-06
4.82382e-06
4.09523e-06
2.11839e-06
5.48734e-06
1.05108e-08
6.71252e-06
5.56841e-06
-1.08237e-06
-4.25503e-06
-7.56164e-07
-6.77689e-06
5.81811e-07
-6.65792e-06
2.28442e-06
-5.73019e-06
3.98201e-06
-4.68283e-06
5.51601e-06
-3.75461e-06
6.8397e-06
-3.00095e-06
7.95725e-06
-2.40785e-06
8.89188e-06
-1.94443e-06
9.67102e-06
-1.58102e-06
1.03203e-05
-1.29365e-06
1.0862e-05
-1.0641e-06
1.13143e-05
-8.78866e-07
1.16923e-05
-7.27961e-07
1.20083e-05
-6.0394e-07
1.22722e-05
-5.01182e-07
1.24921e-05
-4.15371e-07
1.26746e-05
-3.43137e-07
1.28252e-05
-2.81794e-07
1.29482e-05
-2.2916e-07
1.3047e-05
-1.83426e-07
1.31244e-05
-1.43058e-07
1.31824e-05
-1.06723e-07
1.32225e-05
-7.32324e-08
1.32456e-05
-4.14968e-08
1.32521e-05
-1.04833e-08
1.32418e-05
2.082e-08
1.32141e-05
5.34388e-08
1.31677e-05
8.84499e-08
1.31008e-05
1.27023e-07
1.30109e-05
1.70472e-07
1.28948e-05
2.20312e-07
1.27483e-05
2.78344e-07
1.25662e-05
3.46763e-07
1.2342e-05
4.283e-07
1.20675e-05
5.26433e-07
1.17324e-05
6.45678e-07
1.13241e-05
7.92004e-07
1.08265e-05
9.7343e-07
1.02195e-05
1.20088e-06
9.47815e-06
1.48933e-06
8.57232e-06
1.85932e-06
7.46803e-06
2.33843e-06
6.13297e-06
2.9616e-06
4.55194e-06
3.76686e-06
2.76209e-06
4.77582e-06
9.21672e-07
5.93564e-06
-5.77649e-07
6.98666e-06
-1.03979e-06
7.17466e-06
4.52862e-06
-9.1427e-07
-3.34076e-06
-1.34775e-06
-6.34341e-06
-9.52408e-07
-7.05326e-06
-8.31981e-09
-6.67428e-06
1.19028e-06
-5.88143e-06
2.44468e-06
-5.00901e-06
3.64253e-06
-4.1988e-06
4.73175e-06
-3.49707e-06
5.69523e-06
-2.90791e-06
6.53388e-06
-2.41967e-06
7.25687e-06
-2.01664e-06
7.87642e-06
-1.68365e-06
8.40518e-06
-1.40763e-06
8.85507e-06
-1.17785e-06
9.23675e-06
-9.85618e-07
9.55954e-06
-8.23971e-07
9.83144e-06
-6.87279e-07
1.00593e-05
-5.70958e-07
1.02487e-05
-4.71233e-07
1.04045e-05
-3.84945e-07
1.05305e-05
-3.09411e-07
1.06297e-05
-2.42306e-07
1.07046e-05
-1.81576e-07
1.07567e-05
-1.25361e-07
1.07871e-05
-7.19352e-08
1.07963e-05
-1.96485e-08
1.0784e-05
3.31229e-08
1.07494e-05
8.80274e-08
1.06911e-05
1.46792e-07
1.06068e-05
2.11283e-07
1.04937e-05
2.83571e-07
1.0348e-05
3.66022e-07
1.0165e-05
4.61397e-07
9.93872e-06
5.72993e-07
9.6622e-06
7.04817e-07
9.32681e-06
8.61822e-07
8.92228e-06
1.05021e-06
8.43646e-06
1.27783e-06
7.85525e-06
1.55464e-06
7.16287e-06
1.89326e-06
6.34277e-06
2.30943e-06
5.38012e-06
2.82197e-06
4.26713e-06
3.45141e-06
3.01377e-06
4.21496e-06
1.66704e-06
5.1136e-06
3.41006e-07
6.10185e-06
-7.49089e-07
7.02574e-06
-1.27689e-06
7.51447e-06
-9.18731e-07
6.8165e-06
3.60989e-06
-6.67391e-07
-2.67337e-06
-1.30777e-06
-5.70302e-06
-1.44193e-06
-6.9191e-06
-1.08501e-06
-7.0312e-06
-3.91055e-07
-6.57539e-06
4.8263e-07
-5.88269e-06
1.41842e-06
-5.13459e-06
2.34112e-06
-4.41976e-06
3.20828e-06
-3.77507e-06
3.99931e-06
-3.2107e-06
4.70698e-06
-2.72431e-06
5.33173e-06
-2.3084e-06
5.87804e-06
-1.95394e-06
6.35225e-06
-1.65206e-06
6.76135e-06
-1.39472e-06
7.11223e-06
-1.17486e-06
7.41136e-06
-9.86406e-07
7.66455e-06
-8.24152e-07
7.87693e-06
-6.83612e-07
8.05289e-06
-5.60902e-07
8.1961e-06
-4.52618e-07
8.30953e-06
-3.5574e-07
8.39549e-06
-2.67538e-07
8.45563e-06
-1.85501e-07
8.49096e-06
-1.07264e-07
8.50186e-06
-3.05456e-08
8.48807e-06
4.69114e-08
8.44869e-06
1.27402e-07
8.38216e-06
2.13325e-07
8.28619e-06
3.07251e-07
8.15776e-06
4.12003e-07
7.99303e-06
5.30752e-07
7.7873e-06
6.6713e-07
7.53493e-06
8.25364e-07
7.2293e-06
1.01044e-06
6.86281e-06
1.22831e-06
6.42694e-06
1.48608e-06
5.91252e-06
1.79225e-06
5.31032e-06
2.15684e-06
4.6122e-06
2.59137e-06
3.81339e-06
3.10823e-06
2.9164e-06
3.71897e-06
1.93754e-06
4.43026e-06
9.17136e-07
5.23537e-06
-6.6879e-08
6.09762e-06
-8.85758e-07
6.92073e-06
-1.36063e-06
7.50061e-06
-1.30754e-06
7.46137e-06
-6.88889e-07
6.19785e-06
2.921e-06
-4.74627e-07
-2.19874e-06
-1.1141e-06
-5.06355e-06
-1.49916e-06
-6.53403e-06
-1.5227e-06
-7.00766e-06
-1.22994e-06
-6.86815e-06
-7.15318e-07
-6.39732e-06
-7.18694e-08
-5.77804e-06
6.27259e-07
-5.11889e-06
1.3312e-06
-4.479e-06
2.00766e-06
-3.88716e-06
2.63805e-06
-3.3547e-06
3.2131e-06
-2.88345e-06
3.72955e-06
-2.47039e-06
4.18786e-06
-2.11036e-06
4.59058e-06
-1.79744e-06
4.9414e-06
-1.52567e-06
5.24441e-06
-1.28942e-06
5.50376e-06
-1.0835e-06
5.72335e-06
-9.03202e-07
5.90671e-06
-7.44269e-07
6.05692e-06
-6.02827e-07
6.17652e-06
-4.75337e-07
6.2675e-06
-3.58523e-07
6.33131e-06
-2.49309e-07
6.3688e-06
-1.44756e-07
6.38026e-06
-4.19995e-08
6.36536e-06
6.18115e-08
6.32318e-06
1.6958e-07
6.25218e-06
2.84326e-07
6.15017e-06
4.09262e-07
6.0143e-06
5.47866e-07
5.84108e-06
7.03976e-07
5.62633e-06
8.81882e-07
5.36525e-06
1.08644e-06
5.05254e-06
1.32316e-06
4.68254e-06
1.59832e-06
4.24959e-06
1.91902e-06
3.74872e-06
2.29312e-06
3.17662e-06
2.72894e-06
2.53341e-06
3.23459e-06
1.82527e-06
3.81638e-06
1.06844e-06
4.4758e-06
2.94682e-07
5.20402e-06
-4.42208e-07
5.97226e-06
-1.06083e-06
6.71624e-06
-1.45329e-06
7.31319e-06
-1.5052e-06
7.55252e-06
-1.15299e-06
7.10916e-06
-5.01156e-07
5.54602e-06
2.41984e-06
-3.4464e-07
-1.8541e-06
-9.19336e-07
-4.48885e-06
-1.40071e-06
-6.05266e-06
-1.64644e-06
-6.76193e-06
-1.63732e-06
-6.87727e-06
-1.41469e-06
-6.61995e-06
-1.03915e-06
-6.15358e-06
-5.69067e-07
-5.58898e-06
-5.19691e-08
-4.9961e-06
4.77052e-07
-4.41619e-06
9.93935e-07
-3.87159e-06
1.48331e-06
-3.37282e-06
1.93622e-06
-2.9233e-06
2.34816e-06
-2.5223e-06
2.71762e-06
-2.16691e-06
3.04503e-06
-1.85308e-06
3.33193e-06
-1.57632e-06
3.58049e-06
-1.33205e-06
3.79309e-06
-1.1158e-06
3.97211e-06
-9.23287e-07
4.11973e-06
-7.50456e-07
4.23787e-06
-5.93468e-07
4.32802e-06
-4.48671e-07
4.39127e-06
-3.1256e-07
4.42825e-06
-1.81734e-07
4.43908e-06
-5.28392e-08
4.42342e-06
7.74811e-08
4.38035e-06
2.12646e-07
4.30848e-06
3.56198e-07
4.20587e-06
5.11866e-07
4.07011e-06
6.83627e-07
3.89831e-06
8.75778e-07
3.6872e-06
1.09299e-06
3.43327e-06
1.34037e-06
3.13297e-06
1.62345e-06
2.78308e-06
1.94821e-06
2.38125e-06
2.32085e-06
1.92684e-06
2.74753e-06
1.42217e-06
3.23362e-06
8.74261e-07
3.7825e-06
2.97317e-07
4.39332e-06
-2.84282e-07
5.0574e-06
-8.32642e-07
5.75238e-06
-1.29391e-06
6.43352e-06
-1.59922e-06
7.02156e-06
-1.67397e-06
7.38794e-06
-1.46279e-06
7.34134e-06
-9.77967e-07
6.62434e-06
-3.7156e-07
4.93961e-06
2.04828e-06
-2.60381e-07
-1.59372e-06
-7.60443e-07
-3.98879e-06
-1.26179e-06
-5.55132e-06
-1.62651e-06
-6.3972e-06
-1.8046e-06
-6.69918e-06
-1.80111e-06
-6.62344e-06
-1.64794e-06
-6.30674e-06
-1.38524e-06
-5.85168e-06
-1.05128e-06
-5.33007e-06
-6.78077e-07
-4.78939e-06
-2.90345e-07
-4.25932e-06
9.40095e-08
-3.75718e-06
4.62715e-07
-3.292e-06
8.0788e-07
-2.86747e-06
1.12485e-06
-2.48388e-06
1.41129e-06
-2.13951e-06
1.6664e-06
-1.83144e-06
1.89043e-06
-1.55608e-06
2.08421e-06
-1.30958e-06
2.24888e-06
-1.08795e-06
2.38563e-06
-8.87206e-07
2.49559e-06
-7.03433e-07
2.57971e-06
-5.32788e-07
2.63864e-06
-3.71495e-07
2.67273e-06
-2.15826e-07
2.68196e-06
-6.20648e-08
2.66591e-06
9.3529e-08
2.62379e-06
2.54767e-07
2.55441e-06
4.25576e-07
2.45624e-06
6.10041e-07
2.32741e-06
8.1245e-07
2.16587e-06
1.03732e-06
1.96946e-06
1.28941e-06
1.73613e-06
1.57369e-06
1.46429e-06
1.8953e-06
1.1532e-06
2.2593e-06
8.03622e-07
2.67042e-06
4.18735e-07
3.13241e-06
5.26629e-09
3.64709e-06
-4.24968e-07
4.21273e-06
-8.53344e-07
4.8217e-06
-1.25263e-06
5.45668e-06
-1.58586e-06
6.08561e-06
-1.80705e-06
6.65472e-06
-1.86599e-06
7.08049e-06
-1.72012e-06
7.24207e-06
-1.35697e-06
6.97818e-06
-8.2792e-07
6.09529e-06
-2.8624e-07
4.39793e-06
1.76204e-06
-2.0512e-07
-1.3886e-06
-6.38566e-07
-3.55535e-06
-1.12608e-06
-5.0638e-06
-1.54795e-06
-5.97533e-06
-1.84358e-06
-6.40355e-06
-1.99658e-06
-6.47044e-06
-2.01742e-06
-6.2859e-06
-1.92963e-06
-5.93947e-06
-1.76056e-06
-5.49914e-06
-1.53619e-06
-5.01375e-06
-1.27877e-06
-4.51675e-06
-1.006e-06
-4.02995e-06
-7.31303e-07
-3.56669e-06
-4.64383e-07
-3.13439e-06
-2.1192e-07
-2.73634e-06
2.17263e-08
-2.37316e-06
2.33923e-07
-2.04363e-06
4.23263e-07
-1.74542e-06
5.89176e-07
-1.4755e-06
7.31616e-07
-1.23039e-06
8.50831e-07
-1.00642e-06
9.47182e-07
-7.99783e-07
1.02101e-06
-6.06617e-07
1.07255e-06
-4.23033e-07
1.10184e-06
-2.45122e-07
1.10873e-06
-6.89477e-08
1.09278e-06
1.09479e-07
1.05333e-06
2.94218e-07
9.89476e-07
4.89425e-07
9.00147e-07
6.99371e-07
7.84149e-07
9.28448e-07
6.40306e-07
1.18116e-06
4.67629e-07
1.46208e-06
2.65567e-07
1.77575e-06
3.43536e-08
2.12651e-06
-2.24524e-07
2.51818e-06
-5.07705e-07
2.95361e-06
-8.09168e-07
3.43388e-06
-1.11928e-06
3.9572e-06
-1.42375e-06
4.5172e-06
-1.70265e-06
5.10059e-06
-1.92985e-06
5.68389e-06
-2.07356e-06
6.22932e-06
-2.09898e-06
6.68013e-06
-1.97446e-06
6.95598e-06
-1.68286e-06
6.95047e-06
-1.23861e-06
6.53393e-06
-7.08659e-07
5.56534e-06
-2.294e-07
3.91867e-06
1.53264e-06
-1.67762e-07
-1.22084e-06
-5.46451e-07
-3.17666e-06
-1.00739e-06
-4.60287e-06
-1.45121e-06
-5.5315e-06
-1.81725e-06
-6.03751e-06
-2.07811e-06
-6.20959e-06
-2.22996e-06
-6.13404e-06
-2.28314e-06
-5.88629e-06
-2.25482e-06
-5.52746e-06
-2.16407e-06
-5.10449e-06
-2.02905e-06
-4.65177e-06
-1.86556e-06
-4.19344e-06
-1.68654e-06
-3.74571e-06
-1.50216e-06
-3.31877e-06
-1.32008e-06
-2.91842e-06
-1.14588e-06
-2.54736e-06
-9.83488e-07
-2.20603e-06
-8.35542e-07
-1.89337e-06
-7.03748e-07
-1.60729e-06
-5.89147e-07
-1.34499e-06
-4.92339e-07
-1.10323e-06
-4.13657e-07
-8.78465e-07
-3.53305e-07
-6.66969e-07
-3.11455e-07
-4.64882e-07
-2.88319e-07
-2.68258e-07
-2.84195e-07
-7.30718e-08
-2.99485e-07
1.24769e-07
-3.34694e-07
3.29427e-07
-3.90399e-07
5.45131e-07
-4.67194e-07
7.76166e-07
-5.65593e-07
1.02685e-06
-6.8589e-07
1.30146e-06
-8.2797e-07
1.60416e-06
-9.91046e-07
1.93883e-06
-1.17332e-06
2.30878e-06
-1.37153e-06
2.7164e-06
-1.58047e-06
3.16254e-06
-1.79232e-06
3.64573e-06
-1.99604e-06
4.16092e-06
-2.17681e-06
4.69797e-06
-2.31571e-06
5.2395e-06
-2.39017e-06
5.75835e-06
-2.37547e-06
6.21462e-06
-2.2482e-06
6.55286e-06
-1.9924e-06
6.70018e-06
-1.60882e-06
6.56689e-06
-1.12669e-06
6.05181e-06
-6.15431e-07
5.05408e-06
-1.90196e-07
3.49344e-06
1.34244e-06
-1.416e-07
-1.07924e-06
-4.76505e-07
-2.84175e-06
-9.07821e-07
-4.17155e-06
-1.3544e-06
-5.08492e-06
-1.76013e-06
-5.63179e-06
-2.09314e-06
-5.87658e-06
-2.34089e-06
-5.88629e-06
-2.50417e-06
-5.72301e-06
-2.59168e-06
-5.43996e-06
-2.61595e-06
-5.08022e-06
-2.59058e-06
-4.67714e-06
-2.52852e-06
-4.2555e-06
-2.44126e-06
-3.83298e-06
-2.33842e-06
-3.42161e-06
-2.22779e-06
-3.02905e-06
-2.11547e-06
-2.65968e-06
-2.0061e-06
-2.31539e-06
-1.90315e-06
-1.99632e-06
-1.80914e-06
-1.7013e-06
-1.72586e-06
-1.42827e-06
-1.6546e-06
-1.17449e-06
-1.59625e-06
-9.36811e-07
-1.55149e-06
-7.11734e-07
-1.52081e-06
-4.95557e-07
-1.50466e-06
-2.84414e-07
-1.5034e-06
-7.43269e-08
-1.51741e-06
1.38773e-07
-1.54699e-06
3.59013e-07
-1.59241e-06
5.90552e-07
-1.65379e-06
8.3754e-07
-1.73099e-06
1.10405e-06
-1.82353e-06
1.39399e-06
-1.93033e-06
1.71096e-06
-2.0495e-06
2.05801e-06
-2.17806e-06
2.43734e-06
-2.31153e-06
2.84987e-06
-2.44358e-06
3.2946e-06
-2.56561e-06
3.76775e-06
-2.66641e-06
4.26172e-06
-2.73205e-06
4.76361e-06
-2.74614e-06
5.25359e-06
-2.69076e-06
5.70298e-06
-2.54856e-06
6.07242e-06
-2.30619e-06
6.31049e-06
-1.95967e-06
6.35365e-06
-1.52123e-06
6.12846e-06
-1.02686e-06
5.55743e-06
-5.4206e-07
4.56928e-06
-1.6202e-07
3.1134e-06
1.18042e-06
-1.22631e-07
-9.56608e-07
-4.22686e-07
-2.5417e-06
-8.25484e-07
-3.76875e-06
-1.26481e-06
-4.6456e-06
-1.69064e-06
-5.20595e-06
-2.07041e-06
-5.49681e-06
-2.38675e-06
-5.56994e-06
-2.63398e-06
-5.47579e-06
-2.81429e-06
-5.25965e-06
-2.93461e-06
-4.9599e-06
-3.00415e-06
-4.6076e-06
-3.03275e-06
-4.22689e-06
-3.02987e-06
-3.83587e-06
-3.00397e-06
-3.4475e-06
-2.96237e-06
-3.07066e-06
-2.9111e-06
-2.71094e-06
-2.85507e-06
-2.37142e-06
-2.79815e-06
-2.05324e-06
-2.74335e-06
-1.7561e-06
-2.693e-06
-1.47862e-06
-2.64885e-06
-1.21865e-06
-2.61223e-06
-9.73427e-07
-2.58416e-06
-7.39803e-07
-2.5654e-06
-5.14313e-07
-2.55654e-06
-2.93278e-07
-2.558e-06
-7.28686e-08
-2.57007e-06
1.50843e-07
-2.59289e-06
3.8183e-07
-2.62639e-06
6.2406e-07
-2.67028e-06
8.81423e-07
-2.72386e-06
1.15764e-06
-2.78599e-06
1.45612e-06
-2.85483e-06
1.77981e-06
-2.92771e-06
2.13088e-06
-3.00082e-06
2.51045e-06
-3.06902e-06
2.91807e-06
-3.12554e-06
3.35112e-06
-3.16181e-06
3.80402e-06
-3.16738e-06
4.26729e-06
-3.13014e-06
4.72637e-06
-3.03693e-06
5.16037e-06
-2.87477e-06
5.54082e-06
-2.63301e-06
5.83065e-06
-2.30646e-06
5.98394e-06
-1.89959e-06
5.94679e-06
-1.43135e-06
5.66021e-06
-9.39583e-07
5.06567e-06
-4.83378e-07
4.11307e-06
-1.40937e-07
2.77096e-06
1.03949e-06
-1.08435e-07
-8.48173e-07
-3.80585e-07
-2.26955e-06
-7.57482e-07
-3.39186e-06
-1.1847e-06
-4.21839e-06
-1.61839e-06
-4.77226e-06
-2.02718e-06
-5.08802e-06
-2.39146e-06
-5.20566e-06
-2.70141e-06
-5.16583e-06
-2.95452e-06
-5.00654e-06
-3.15319e-06
-4.76123e-06
-3.30278e-06
-4.45801e-06
-3.41011e-06
-4.11957e-06
-3.48241e-06
-3.76356e-06
-3.52669e-06
-3.40321e-06
-3.54936e-06
-3.04799e-06
-3.55601e-06
-2.70429e-06
-3.55142e-06
-2.37601e-06
-3.53954e-06
-2.06512e-06
-3.52361e-06
-1.77203e-06
-3.50621e-06
-1.49602e-06
-3.48942e-06
-1.23544e-06
-3.47484e-06
-9.88009e-07
-3.46371e-06
-7.50934e-07
-3.45697e-06
-5.21057e-07
-3.45528e-06
-2.94962e-07
-3.45909e-06
-6.90578e-08
-3.4686e-06
1.6035e-07
-3.48376e-06
3.96989e-07
-3.50424e-06
6.44538e-07
-3.52935e-06
9.06538e-07
-3.55799e-06
1.18627e-06
-3.58847e-06
1.48661e-06
-3.61846e-06
1.80979e-06
-3.64475e-06
2.15717e-06
-3.66313e-06
2.52884e-06
-3.66824e-06
2.92319e-06
-3.65345e-06
3.33632e-06
-3.6108e-06
3.76137e-06
-3.53122e-06
4.18771e-06
-3.4049e-06
4.60005e-06
-3.2221e-06
4.97757e-06
-2.97447e-06
5.29319e-06
-2.65704e-06
5.51322e-06
-2.27078e-06
5.59769e-06
-1.82579e-06
5.50179e-06
-1.34441e-06
5.17883e-06
-8.63635e-07
4.5849e-06
-4.35563e-07
3.685e-06
-1.24591e-07
2.45998e-06
9.14896e-07
-9.75137e-08
-7.5066e-07
-3.47089e-07
-2.01997e-06
-7.01057e-07
-3.03789e-06
-1.11416e-06
-3.80528e-06
-1.54817e-06
-4.33825e-06
-1.97376e-06
-4.66244e-06
-2.37065e-06
-4.80877e-06
-2.72659e-06
-4.80989e-06
-3.03578e-06
-4.69735e-06
-3.29715e-06
-4.49986e-06
-3.51285e-06
-4.24231e-06
-3.68698e-06
-3.94544e-06
-3.82463e-06
-3.62591e-06
-3.93122e-06
-3.29663e-06
-4.01203e-06
-2.96718e-06
-4.07197e-06
-2.64436e-06
-4.11539e-06
-2.33259e-06
-4.1461e-06
-2.03441e-06
-4.16732e-06
-1.75082e-06
-4.18171e-06
-1.48162e-06
-4.19146e-06
-1.22568e-06
-4.19833e-06
-9.81139e-07
-4.20368e-06
-7.45584e-07
-4.20853e-06
-5.16207e-07
-4.21359e-06
-2.89907e-07
-4.21925e-06
-6.33914e-08
-4.22564e-06
1.66733e-07
-4.23252e-06
4.03877e-07
-4.23935e-06
6.51366e-07
-4.24515e-06
9.12337e-07
-4.24847e-06
1.18959e-06
-4.24731e-06
1.48544e-06
-4.23899e-06
1.80147e-06
-4.22008e-06
2.13826e-06
-4.18629e-06
2.49505e-06
-4.13242e-06
2.86932e-06
-4.05236e-06
3.25626e-06
-3.93922e-06
3.64823e-06
-3.78559e-06
4.03408e-06
-3.58412e-06
4.39858e-06
-3.32835e-06
4.72179e-06
-3.01397e-06
4.97881e-06
-2.64053e-06
5.13978e-06
-2.21347e-06
5.17063e-06
-1.74633e-06
5.03466e-06
-1.26273e-06
4.69523e-06
-7.97442e-07
4.11961e-06
-3.95919e-07
3.28348e-06
-1.1154e-07
2.17561e-06
8.03356e-07
-8.8917e-08
-6.61743e-07
-3.2002e-07
-1.78887e-06
-6.5392e-07
-2.70399e-06
-1.05248e-06
-3.40672e-06
-1.48227e-06
-3.90846e-06
-1.91634e-06
-4.22837e-06
-2.33464e-06
-4.39048e-06
-2.72361e-06
-4.42091e-06
-3.07527e-06
-4.34569e-06
-3.38597e-06
-4.18915e-06
-3.65531e-06
-3.97297e-06
-3.88506e-06
-3.71569e-06
-4.07835e-06
-3.43262e-06
-4.23903e-06
-3.13595e-06
-4.3712e-06
-2.83501e-06
-4.47892e-06
-2.53664e-06
-4.56599e-06
-2.24552e-06
-4.63586e-06
-1.96454e-06
-4.69155e-06
-1.69513e-06
-4.73566e-06
-1.43751e-06
-4.77037e-06
-1.19098e-06
-4.79745e-06
-9.54061e-07
-4.81829e-06
-7.24742e-07
-4.83393e-06
-5.00568e-07
-4.84505e-06
-2.78783e-07
-4.85201e-06
-5.64332e-08
-4.85481e-06
1.69531e-07
-4.85309e-06
4.02157e-07
-4.8461e-06
6.44383e-07
-4.83268e-06
8.98912e-07
-4.81115e-06
1.16807e-06
-4.77932e-06
1.45362e-06
-4.7344e-06
1.75654e-06
-4.67293e-06
2.07679e-06
-4.59081e-06
2.41293e-06
-4.48329e-06
2.76179e-06
-4.34506e-06
3.11803e-06
-4.17048e-06
3.47365e-06
-3.95395e-06
3.81756e-06
-3.69049e-06
4.13513e-06
-3.3766e-06
4.4079e-06
-3.01131e-06
4.61353e-06
-2.59764e-06
4.72611e-06
-2.14408e-06
4.71707e-06
-1.6661e-06
4.55667e-06
-1.18726e-06
4.2164e-06
-7.3958e-07
3.67193e-06
-3.62578e-07
2.90648e-06
-1.00882e-07
1.91391e-06
7.02474e-07
-8.20238e-08
-5.79719e-07
-2.97858e-07
-1.57303e-06
-6.14286e-07
-2.38756e-06
-9.987e-07
-3.02231e-06
-1.42173e-06
-3.48543e-06
-1.85871e-06
-3.79139e-06
-2.29031e-06
-3.95888e-06
-2.70244e-06
-4.00879e-06
-3.08569e-06
-3.96244e-06
-3.43461e-06
-3.84024e-06
-3.74679e-06
-3.6608e-06
-4.02207e-06
-3.4404e-06
-4.26189e-06
-3.1928e-06
-4.46864e-06
-2.9292e-06
-4.64526e-06
-2.65839e-06
-4.79491e-06
-2.38698e-06
-4.92075e-06
-2.11968e-06
-5.02575e-06
-1.85954e-06
-5.11264e-06
-1.60824e-06
-5.18382e-06
-1.36633e-06
-5.24135e-06
-1.13345e-06
-5.28693e-06
-9.08478e-07
-5.32191e-06
-6.89762e-07
-5.34728e-06
-4.75201e-07
-5.36367e-06
-2.62397e-07
-5.37135e-06
-4.87528e-08
-5.37023e-06
1.68413e-07
-5.35984e-06
3.91765e-07
-5.33929e-06
6.23837e-07
-5.30728e-06
8.66902e-07
-5.26204e-06
1.12282e-06
-5.2013e-06
1.39288e-06
-5.12231e-06
1.67755e-06
-5.02179e-06
1.97627e-06
-4.896e-06
2.28714e-06
-4.74081e-06
2.6066e-06
-4.55188e-06
2.92909e-06
-4.3249e-06
3.24667e-06
-4.05605e-06
3.5487e-06
-3.74251e-06
3.82159e-06
-3.3833e-06
4.04869e-06
-2.98015e-06
4.21037e-06
-2.53861e-06
4.28457e-06
-2.06916e-06
4.24761e-06
-1.58814e-06
4.07565e-06
-1.11835e-06
3.74661e-06
-6.88913e-07
3.24249e-06
-3.34252e-07
2.55182e-06
-9.20361e-08
1.67169e-06
6.10438e-07
-7.64215e-08
-5.03297e-07
-2.79541e-07
-1.36991e-06
-5.80818e-07
-2.08628e-06
-9.51963e-07
-2.65116e-06
-1.36694e-06
-3.07045e-06
-1.80322e-06
-3.35511e-06
-2.24238e-06
-3.51972e-06
-2.67023e-06
-3.58093e-06
-3.07657e-06
-3.5561e-06
-3.45462e-06
-3.46218e-06
-3.80049e-06
-3.31493e-06
-4.11249e-06
-3.1284e-06
-4.39059e-06
-2.91471e-06
-4.63589e-06
-2.6839e-06
-4.85027e-06
-2.44401e-06
-5.03601e-06
-2.20124e-06
-5.19558e-06
-1.96011e-06
-5.33143e-06
-1.72368e-06
-5.44592e-06
-1.49375e-06
-5.54118e-06
-1.27107e-06
-5.61908e-06
-1.05555e-06
-5.68118e-06
-8.46378e-07
-5.72873e-06
-6.42216e-07
-5.76262e-06
-4.41308e-07
-5.78341e-06
-2.41605e-07
-5.79129e-06
-4.08745e-08
-5.78607e-06
1.63195e-07
-5.76719e-06
3.72883e-07
-5.73368e-06
5.90325e-07
-5.68416e-06
8.17386e-07
-5.61685e-06
1.05551e-06
-5.52953e-06
1.30556e-06
-5.41958e-06
1.56761e-06
-5.28404e-06
1.84073e-06
-5.11965e-06
2.12275e-06
-4.92302e-06
2.40997e-06
-4.6908e-06
2.69687e-06
-4.42001e-06
2.97588e-06
-4.10846e-06
3.23715e-06
-3.75525e-06
3.46838e-06
-3.36146e-06
3.6549e-06
-2.93091e-06
3.77982e-06
-2.47096e-06
3.82462e-06
-1.99329e-06
3.76994e-06
-1.51445e-06
3.59681e-06
-1.05609e-06
3.28825e-06
-6.44591e-07
2.83099e-06
-3.10057e-07
2.21728e-06
-8.46198e-08
1.44626e-06
5.25818e-07
-7.18317e-08
-4.31466e-07
-2.6433e-07
-1.17742e-06
-5.52539e-07
-1.79807e-06
-9.11551e-07
-2.29215e-06
-1.31806e-06
-2.66393e-06
-1.75141e-06
-2.92177e-06
-2.19413e-06
-3.07699e-06
-2.63224e-06
-3.14282e-06
-3.05507e-06
-3.13327e-06
-3.45499e-06
-3.06226e-06
-3.82698e-06
-2.94294e-06
-4.16813e-06
-2.78725e-06
-4.47722e-06
-2.60562e-06
-4.75427e-06
-2.40685e-06
-5.00017e-06
-2.19811e-06
-5.21639e-06
-1.98502e-06
-5.40472e-06
-1.77178e-06
-5.56712e-06
-1.56129e-06
-5.70551e-06
-1.35536e-06
-5.82172e-06
-1.15487e-06
-5.91737e-06
-9.59893e-07
-5.99387e-06
-7.69882e-07
-6.05231e-06
-5.83778e-07
-6.09348e-06
-4.00139e-07
-6.11783e-06
-2.17254e-07
-6.12546e-06
-3.32398e-08
-6.11612e-06
1.5385e-07
-6.08916e-06
3.45923e-07
-6.04357e-06
5.4474e-07
-5.97798e-06
7.51789e-07
-5.89062e-06
9.68153e-07
-5.77941e-06
1.19435e-06
-5.64198e-06
1.43017e-06
-5.47572e-06
1.67447e-06
-5.27793e-06
1.92496e-06
-5.04597e-06
2.17801e-06
-4.77749e-06
2.4284e-06
-4.47076e-06
2.66915e-06
-4.12501e-06
2.8914e-06
-3.74097e-06
3.08434e-06
-3.32138e-06
3.23531e-06
-2.87164e-06
3.33008e-06
-2.40034e-06
3.35332e-06
-1.91982e-06
3.28942e-06
-1.44642e-06
3.12342e-06
-1.00052e-06
2.84234e-06
-6.06003e-07
2.43647e-06
-2.89387e-07
1.90067e-06
-7.83787e-08
1.23525e-06
4.47439e-07
-6.80652e-08
-3.63401e-07
-2.51709e-07
-9.93772e-07
-5.28746e-07
-1.52104e-06
-8.7692e-07
-1.94398e-06
-1.27514e-06
-2.26571e-06
-1.70433e-06
-2.49258e-06
-2.14798e-06
-2.63335e-06
-2.59239e-06
-2.69841e-06
-3.02672e-06
-2.69895e-06
-3.44276e-06
-2.64622e-06
-3.83466e-06
-2.55104e-06
-4.1986e-06
-2.42331e-06
-4.5324e-06
-2.27183e-06
-4.83513e-06
-2.10411e-06
-5.10687e-06
-1.92637e-06
-5.34835e-06
-1.74354e-06
-5.56076e-06
-1.55937e-06
-5.74551e-06
-1.37653e-06
-5.90415e-06
-1.19672e-06
-6.03818e-06
-1.02084e-06
-6.14897e-06
-8.49102e-07
-6.23772e-06
-6.81133e-07
-6.30537e-06
-5.16126e-07
-6.35259e-06
-3.52923e-07
-6.37972e-06
-1.90124e-07
-6.38677e-06
-2.61822e-08
-6.37343e-06
1.40505e-07
-6.339e-06
3.11496e-07
-6.28247e-06
4.88206e-07
-6.20247e-06
6.71792e-07
-6.09735e-06
8.63034e-07
-5.9652e-06
1.0622e-06
-5.8039e-06
1.26888e-06
-5.61128e-06
1.48185e-06
-5.38519e-06
1.69888e-06
-5.12374e-06
1.91656e-06
-4.82549e-06
2.13015e-06
-4.48981e-06
2.33347e-06
-4.11719e-06
2.51877e-06
-3.70966e-06
2.67682e-06
-3.2713e-06
2.79695e-06
-2.80862e-06
2.86741e-06
-2.33106e-06
2.87577e-06
-1.85124e-06
2.80959e-06
-1.38508e-06
2.65726e-06
-9.51662e-07
2.40892e-06
-5.72732e-07
2.05754e-06
-2.71829e-07
1.59976e-06
-7.31411e-08
1.03656e-06
3.74298e-07
-6.49929e-08
-2.98408e-07
-2.41324e-07
-8.17441e-07
-5.08948e-07
-1.25341e-06
-8.47681e-07
-1.60525e-06
-1.2382e-06
-1.87519e-06
-1.66276e-06
-2.06802e-06
-2.10569e-06
-2.19042e-06
-2.55366e-06
-2.25044e-06
-2.99577e-06
-2.25684e-06
-3.42345e-06
-2.21854e-06
-3.83029e-06
-2.1442e-06
-4.21174e-06
-2.04186e-06
-4.56486e-06
-1.91871e-06
-4.888e-06
-1.78097e-06
-5.1805e-06
-1.63386e-06
-5.44248e-06
-1.48156e-06
-5.67458e-06
-1.32728e-06
-5.87775e-06
-1.17336e-06
-6.05315e-06
-1.02132e-06
-6.20196e-06
-8.72025e-07
-6.32534e-06
-7.25731e-07
-6.42425e-06
-5.82218e-07
-6.4995e-06
-4.4088e-07
-6.55161e-06
-3.00813e-07
-6.58083e-06
-1.60904e-07
-6.58709e-06
-1.99152e-08
-6.57002e-06
1.23434e-07
-6.52891e-06
2.70381e-07
-6.46273e-06
4.22031e-07
-6.3702e-06
5.79257e-07
-6.24976e-06
7.42598e-07
-6.0997e-06
9.1214e-07
-5.91822e-06
1.08739e-06
-5.70352e-06
1.26715e-06
-5.45401e-06
1.44937e-06
-5.16847e-06
1.63102e-06
-4.8463e-06
1.80798e-06
-4.48778e-06
1.97495e-06
-4.09446e-06
2.12545e-06
-3.66943e-06
2.25179e-06
-3.21775e-06
2.34527e-06
-2.74678e-06
2.39644e-06
-2.26646e-06
2.39544e-06
-1.78946e-06
2.33259e-06
-1.33119e-06
2.19899e-06
-9.09572e-07
1.9873e-06
-5.44497e-07
1.69247e-06
-2.57103e-07
1.31237e-06
-6.8791e-08
8.48249e-07
3.05507e-07
-6.2527e-08
-2.35881e-07
-2.3293e-07
-6.47038e-07
-4.92806e-07
-9.93538e-07
-8.23569e-07
-1.27448e-06
-1.20729e-06
-1.49148e-06
-1.62729e-06
-1.64801e-06
-2.06863e-06
-1.74908e-06
-2.51832e-06
-1.80074e-06
-2.96551e-06
-1.80965e-06
-3.40142e-06
-1.78264e-06
-3.81921e-06
-1.72641e-06
-4.21383e-06
-1.64724e-06
-4.58174e-06
-1.55079e-06
-4.9207e-06
-1.44202e-06
-5.22948e-06
-1.32508e-06
-5.50768e-06
-1.20337e-06
-5.75545e-06
-1.07951e-06
-5.97337e-06
-9.55434e-07
-6.16225e-06
-8.32441e-07
-6.323e-06
-7.11276e-07
-6.45652e-06
-5.92208e-07
-6.56363e-06
-4.75116e-07
-6.64495e-06
-3.59562e-07
-6.70089e-06
-2.44864e-07
-6.73163e-06
-1.30172e-07
-6.73701e-06
-1.45305e-08
-6.71662e-06
1.03044e-07
-6.66974e-06
2.23497e-07
-6.59537e-06
3.4766e-07
-6.49228e-06
4.76169e-07
-6.35906e-06
6.09377e-07
-6.19418e-06
7.47263e-07
-5.99612e-06
8.8933e-07
-5.76347e-06
1.0345e-06
-5.49512e-06
1.18101e-06
-5.19043e-06
1.32633e-06
-4.84951e-06
1.46705e-06
-4.47342e-06
1.59887e-06
-4.06453e-06
1.71656e-06
-3.62677e-06
1.81403e-06
-3.16594e-06
1.88445e-06
-2.68998e-06
1.92048e-06
-2.20911e-06
1.91458e-06
-1.73596e-06
1.85943e-06
-1.2854e-06
1.74843e-06
-8.7432e-07
1.57623e-06
-5.21121e-07
1.33927e-06
-2.45023e-07
1.03627e-06
-6.52496e-08
6.68475e-07
2.40257e-07
-6.06083e-08
-1.75272e-07
-2.26364e-07
-4.81282e-07
-4.80093e-07
-7.39809e-07
-8.04412e-07
-9.50163e-07
-1.18245e-06
-1.11344e-06
-1.59838e-06
-1.23208e-06
-2.03782e-06
-1.30964e-06
-2.48813e-06
-1.35044e-06
-2.9385e-06
-1.35927e-06
-3.38004e-06
-1.3411e-06
-3.80564e-06
-1.30081e-06
-4.20986e-06
-1.24302e-06
-4.58873e-06
-1.17192e-06
-4.93956e-06
-1.09119e-06
-5.26067e-06
-1.00397e-06
-5.55123e-06
-9.12803e-07
-5.81104e-06
-8.19697e-07
-6.04034e-06
-7.26134e-07
-6.23966e-06
-6.33128e-07
-6.40966e-06
-5.41273e-07
-6.55106e-06
-4.50809e-07
-6.6645e-06
-3.61676e-07
-6.75049e-06
-2.73574e-07
-6.80933e-06
-1.86018e-07
-6.84111e-06
-9.83924e-08
-6.84563e-06
-1.00059e-08
-6.82245e-06
7.98554e-08
-6.77082e-06
1.71873e-07
-6.6898e-06
2.66637e-07
-6.57822e-06
3.64586e-07
-6.43478e-06
4.6594e-07
-6.25814e-06
5.70626e-07
-6.04703e-06
6.78212e-07
-5.80035e-06
7.87822e-07
-5.5174e-06
8.98068e-07
-5.19805e-06
1.00698e-06
-4.84295e-06
1.11195e-06
-4.45379e-06
1.20971e-06
-4.03357e-06
1.29634e-06
-3.58684e-06
1.3673e-06
-3.11995e-06
1.41755e-06
-2.64121e-06
1.44174e-06
-2.16103e-06
1.4344e-06
-1.69188e-06
1.39028e-06
-1.24818e-06
1.30473e-06
-8.45986e-07
1.17403e-06
-5.02497e-07
9.95781e-07
-2.35466e-07
7.6924e-07
-6.24644e-08
4.95474e-07
1.77793e-07
-5.91974e-08
-1.16075e-07
-2.21516e-07
-3.18963e-07
-4.7066e-07
-4.90666e-07
-7.90108e-07
-6.30715e-07
-1.16375e-06
-7.39791e-07
-1.57639e-06
-8.19452e-07
-2.01406e-06
-8.71964e-07
-2.46439e-06
-9.00115e-07
-2.91665e-06
-9.07009e-07
-3.36187e-06
-8.95875e-07
-3.79278e-06
-8.69908e-07
-4.20366e-06
-8.32139e-07
-4.59024e-06
-7.85334e-07
-4.9495e-06
-7.31937e-07
-5.27944e-06
-6.74029e-07
-5.57892e-06
-6.13323e-07
-5.84745e-06
-5.51166e-07
-6.08502e-06
-4.88564e-07
-6.29194e-06
-4.26208e-07
-6.46869e-06
-3.64515e-07
-6.61584e-06
-3.03661e-07
-6.7339e-06
-2.4362e-07
-6.82327e-06
-1.84206e-07
-6.88418e-06
-1.25109e-07
-6.91664e-06
-6.59298e-08
-6.92043e-06
-6.21985e-09
-6.89505e-06
5.44846e-08
-6.83981e-06
1.16624e-07
-6.75374e-06
1.80576e-07
-6.63577e-06
2.46613e-07
-6.48469e-06
3.14858e-07
-6.2993e-06
3.8524e-07
-6.07853e-06
4.57438e-07
-5.82154e-06
5.30837e-07
-5.52796e-06
6.04481e-07
-5.198e-06
6.77024e-07
-4.83276e-06
7.46705e-07
-4.43438e-06
8.11332e-07
-4.00632e-06
8.68284e-07
-3.55358e-06
9.14559e-07
-3.08287e-06
9.46841e-07
-2.60275e-06
9.6162e-07
-2.12371e-06
9.55355e-07
-1.65809e-06
9.24668e-07
-1.21994e-06
8.66577e-07
-8.2465e-07
7.78741e-07
-4.88562e-07
6.59693e-07
-2.28351e-07
5.09029e-07
-6.04004e-08
3.27523e-07
1.17393e-07
-5.8269e-08
-5.78061e-08
-2.18318e-07
-1.58914e-07
-4.64415e-07
-2.44569e-07
-7.80596e-07
-3.14534e-07
-1.15125e-06
-3.69135e-07
-1.56158e-06
-4.09128e-07
-1.99792e-06
-4.35621e-07
-2.44806e-06
-4.49978e-07
-2.90134e-06
-4.53723e-07
-3.34877e-06
-4.48448e-07
-3.78294e-06
-4.35732e-07
-4.19801e-06
-4.17076e-07
-4.58949e-06
-3.93854e-07
-4.95414e-06
-3.67283e-07
-5.28976e-06
-3.38405e-07
-5.59501e-06
-3.08077e-07
-5.8692e-06
-2.76976e-07
-6.11216e-06
-2.45609e-07
-6.32404e-06
-2.14329e-07
-6.5052e-06
-1.83348e-07
-6.65611e-06
-1.52759e-07
-6.77717e-06
-1.22554e-07
-6.86873e-06
-9.26445e-08
-6.93096e-06
-6.2879e-08
-6.96383e-06
-3.30617e-08
-6.96708e-06
-2.97184e-09
-6.94021e-06
2.76186e-08
-6.88251e-06
5.89256e-08
-6.79307e-06
9.11327e-08
-6.67083e-06
1.24371e-07
-6.51466e-06
1.58694e-07
-6.32348e-06
1.94059e-07
-6.09634e-06