/*--------------------------------*- C++ -*----------------------------------*\
  =========                 |
  \\      /  F ield         | OpenFOAM: The Open Source CFD Toolbox
   \\    /   O peration     | Website:  https://openfoam.org
    \\  /    A nd           | Version:  7
     \\/     M anipulation  |
\*---------------------------------------------------------------------------*/
FoamFile
{
    version     2.0;
    format      ascii;
    class       volVectorField;
    location    "0.0648";
    object      U;
}
// * * * * * * * * * * * * * * * * * * * * * * * * * * * * * * * * * * * * * //

dimensions      [0 1 -1 0 0 0 0];

internalField   nonuniform List<vector> 
2500
(
(3.0366e-05 -3.03637e-05 0)
(9.23896e-05 -3.73224e-05 0)
(0.000127895 -1.92201e-05 0)
(9.6623e-05 7.34283e-06 0)
(-1.38062e-05 3.46274e-05 0)
(-0.000201803 5.97594e-05 0)
(-0.000460291 8.15591e-05 0)
(-0.000779987 9.96747e-05 0)
(-0.00115055 0.000114118 0)
(-0.00156134 0.000125037 0)
(-0.00200182 0.000132632 0)
(-0.00246185 0.000137123 0)
(-0.00293174 0.000138732 0)
(-0.00340238 0.000137684 0)
(-0.00386527 0.000134195 0)
(-0.00431255 0.00012848 0)
(-0.004737 0.000120747 0)
(-0.00513207 0.000111199 0)
(-0.00549187 0.000100034 0)
(-0.00581117 8.74477e-05 0)
(-0.00608542 7.36345e-05 0)
(-0.00631071 5.87877e-05 0)
(-0.00648383 4.31027e-05 0)
(-0.00660228 2.67781e-05 0)
(-0.00666422 1.00177e-05 0)
(-0.00666857 -6.9687e-06 0)
(-0.00661499 -2.39635e-05 0)
(-0.0065039 -4.07413e-05 0)
(-0.00633651 -5.7068e-05 0)
(-0.00611487 -7.27016e-05 0)
(-0.00584184 -8.73921e-05 0)
(-0.00552113 -0.000100884 0)
(-0.00515734 -0.000112917 0)
(-0.0047559 -0.00012323 0)
(-0.0043231 -0.000131562 0)
(-0.00386607 -0.000137659 0)
(-0.00339272 -0.000141271 0)
(-0.0029117 -0.000142161 0)
(-0.00243234 -0.000140109 0)
(-0.00196454 -0.000134914 0)
(-0.00151866 -0.000126396 0)
(-0.00110538 -0.000114407 0)
(-0.000735501 -9.88414e-05 0)
(-0.000419638 -7.96694e-05 0)
(-0.000167732 -5.70253e-05 0)
(1.16822e-05 -3.14417e-05 0)
(0.000112803 -4.25336e-06 0)
(0.0001353 2.1468e-05 0)
(9.3549e-05 3.83324e-05 0)
(2.98948e-05 2.98345e-05 0)
(3.76651e-05 -9.25566e-05 0)
(8.54711e-05 -8.45612e-05 0)
(3.70512e-05 1.69278e-05 0)
(-0.000168941 0.000155385 0)
(-0.000556898 0.000301991 0)
(-0.00112746 0.000441932 0)
(-0.00186879 0.000567456 0)
(-0.00276171 0.000674818 0)
(-0.00378288 0.000762452 0)
(-0.00490692 0.000829976 0)
(-0.00610775 0.000877678 0)
(-0.00735947 0.000906252 0)
(-0.00863691 0.000916631 0)
(-0.00991599 0.000909901 0)
(-0.011174 0.000887237 0)
(-0.0123897 0.000849868 0)
(-0.0135436 0.000799055 0)
(-0.0146177 0.000736078 0)
(-0.015596 0.000662224 0)
(-0.0164641 0.000578793 0)
(-0.0172094 0.000487093 0)
(-0.0178214 0.000388448 0)
(-0.0182912 0.000284201 0)
(-0.0186119 0.000175723 0)
(-0.0187787 6.44189e-05 0)
(-0.0187887 -4.8269e-05 0)
(-0.0186411 -0.000160855 0)
(-0.0183371 -0.00027181 0)
(-0.0178804 -0.000379561 0)
(-0.0172765 -0.000482495 0)
(-0.0165335 -0.000578967 0)
(-0.0156617 -0.00066731 0)
(-0.0146737 -0.000745853 0)
(-0.0135842 -0.000812936 0)
(-0.0124105 -0.000866938 0)
(-0.0111716 -0.000906295 0)
(-0.00988896 -0.00092954 0)
(-0.00858546 -0.00093533 0)
(-0.00728578 -0.000922491 0)
(-0.00601581 -0.000890067 0)
(-0.00480231 -0.000837383 0)
(-0.00367233 -0.000764142 0)
(-0.00265253 -0.000670566 0)
(-0.0017682 -0.000557658 0)
(-0.00104176 -0.000427686 0)
(-0.000490703 -0.000285142 0)
(-0.000124239 -0.000138429 0)
(6.13518e-05 -2.96759e-06 0)
(9.38653e-05 9.28161e-05 0)
(3.86794e-05 9.35517e-05 0)
(2.05454e-05 -0.000129704 0)
(-1.26453e-05 -3.72246e-05 0)
(-0.000228057 0.00023368 0)
(-0.000677804 0.00058276 0)
(-0.00138565 0.000953662 0)
(-0.00235254 0.00131225 0)
(-0.00356325 0.00163837 0)
(-0.00499205 0.00192076 0)
(-0.00660669 0.00215356 0)
(-0.00837118 0.00233428 0)
(-0.0102478 0.00246257 0)
(-0.0121985 0.00253942 0)
(-0.0141856 0.00256676 0)
(-0.0161731 0.00254711 0)
(-0.0181263 0.00248336 0)
(-0.020013 0.0023787 0)
(-0.0218031 0.00223648 0)
(-0.0234691 0.00206016 0)
(-0.0249859 0.0018533 0)
(-0.0263316 0.00161952 0)
(-0.0274866 0.00136249 0)
(-0.0284345 0.00108595 0)
(-0.0291616 0.000793719 0)
(-0.0296575 0.000489685 0)
(-0.0299145 0.000177837 0)
(-0.0299283 -0.000137734 0)
(-0.0296979 -0.000452825 0)
(-0.0292252 -0.000763124 0)
(-0.028516 -0.00106421 0)
(-0.0275792 -0.00135158 0)
(-0.0264272 -0.00162065 0)
(-0.0250761 -0.00186681 0)
(-0.0235452 -0.00208547 0)
(-0.0218576 -0.00227209 0)
(-0.0200394 -0.00242228 0)
(-0.0181201 -0.00253186 0)
(-0.016132 -0.00259698 0)
(-0.0141101 -0.00261418 0)
(-0.0120915 -0.00258058 0)
(-0.010115 -0.002494 0)
(-0.00822026 -0.00235319 0)
(-0.00644701 -0.00215814 0)
(-0.00483381 -0.0019105 0)
(-0.00341652 -0.00161428 0)
(-0.00222621 -0.00127699 0)
(-0.00128634 -0.000911585 0)
(-0.000608819 -0.000539675 0)
(-0.000188729 -0.000196479 0)
(2.35962e-06 6.16594e-05 0)
(2.29568e-05 0.000136869 0)
(-4.49859e-06 -0.000102579 0)
(-0.000147451 0.000164817 0)
(-0.000573302 0.000682221 0)
(-0.00130741 0.00131457 0)
(-0.0023637 0.00197947 0)
(-0.00373935 0.00262306 0)
(-0.00541447 0.0032111 0)
(-0.00735736 0.00372287 0)
(-0.0095286 0.00414656 0)
(-0.011884 0.00447632 0)
(-0.0143766 0.00471033 0)
(-0.0169588 0.00484951 0)
(-0.0195831 0.00489667 0)
(-0.0222033 0.00485593 0)
(-0.0247754 0.00473234 0)
(-0.0272577 0.00453154 0)
(-0.0296112 0.00425966 0)
(-0.0318004 0.0039231 0)
(-0.0337928 0.00352852 0)
(-0.0355596 0.00308275 0)
(-0.0370755 0.00259277 0)
(-0.038319 0.00206571 0)
(-0.0392725 0.00150884 0)
(-0.0399221 0.000929637 0)
(-0.0402582 0.000335716 0)
(-0.0402751 -0.000265096 0)
(-0.0399716 -0.000864775 0)
(-0.0393504 -0.0014551 0)
(-0.0384189 -0.00202768 0)
(-0.037189 -0.00257397 0)
(-0.035677 -0.00308531 0)
(-0.0339037 -0.00355304 0)
(-0.0318945 -0.00396854 0)
(-0.029679 -0.00432337 0)
(-0.0272913 -0.00460938 0)
(-0.0247693 -0.00481891 0)
(-0.0221546 -0.00494494 0)
(-0.0194921 -0.00498135 0)
(-0.016829 -0.00492313 0)
(-0.0142146 -0.00476677 0)
(-0.011699 -0.00451064 0)
(-0.00933192 -0.00415556 0)
(-0.00716134 -0.0037056 0)
(-0.00523145 -0.00316926 0)
(-0.00358037 -0.00256119 0)
(-0.00223724 -0.00190498 0)
(-0.00121817 -0.00123737 0)
(-0.000521327 -0.000613988 0)
(-0.000126863 -0.000117584 0)
(-8.88197e-07 0.000119265 0)
(-3.0636e-05 1.81809e-06 0)
(-0.000293495 0.000548803 0)
(-0.000950231 0.00139214 0)
(-0.00199021 0.00237331 0)
(-0.00341157 0.00338906 0)
(-0.00520407 0.00436814 0)
(-0.00734109 0.00526278 0)
(-0.00978435 0.00604242 0)
(-0.0124877 0.00668859 0)
(-0.0153997 0.00719137 0)
(-0.018466 0.0075469 0)
(-0.0216307 0.00775563 0)
(-0.0248384 0.00782111 0)
(-0.0280348 0.00774914 0)
(-0.0311676 0.00754708 0)
(-0.0341874 0.00722345 0)
(-0.0370481 0.0067876 0)
(-0.039707 0.00624947 0)
(-0.0421255 0.00561945 0)
(-0.0442692 0.0049083 0)
(-0.0461077 0.00412706 0)
(-0.0476153 0.00328704 0)
(-0.0487709 0.00239984 0)
(-0.0495579 0.0014773 0)
(-0.0499649 0.000531595 0)
(-0.049985 -0.000424832 0)
(-0.0496168 -0.00137922 0)
(-0.0488638 -0.00231854 0)
(-0.0477349 -0.00322946 0)
(-0.0462442 -0.00409849 0)
(-0.0444114 -0.00491199 0)
(-0.0422614 -0.00565633 0)
(-0.0398244 -0.00631799 0)
(-0.037136 -0.0068838 0)
(-0.0342366 -0.00734113 0)
(-0.0311712 -0.00767815 0)
(-0.0279892 -0.00788414 0)
(-0.0247436 -0.00794986 0)
(-0.0214903 -0.007868 0)
(-0.018287 -0.00763365 0)
(-0.0151925 -0.00724502 0)
(-0.012265 -0.00670421 0)
(-0.00956029 -0.00601843 0)
(-0.00712996 -0.00520148 0)
(-0.00501894 -0.00427606 0)
(-0.00326281 -0.00327695 0)
(-0.00188404 -0.00225568 0)
(-0.000887646 -0.00128631 0)
(-0.000268299 -0.000473191 0)
(-2.60767e-05 2.69718e-05 0)
(-5.54905e-05 0.000184075 0)
(-0.000439047 0.00112256 0)
(-0.00133286 0.00237631 0)
(-0.00268722 0.00377279 0)
(-0.00448114 0.00519349 0)
(-0.00669412 0.00655301 0)
(-0.00929086 0.00779171 0)
(-0.0122254 0.00886982 0)
(-0.0154444 0.00976229 0)
(-0.0188898 0.0104549 0)
(-0.0225 0.0109416 0)
(-0.0262125 0.0112222 0)
(-0.0299647 0.0113009 0)
(-0.0336954 0.0111852 0)
(-0.0373457 0.0108851 0)
(-0.0408595 0.0104121 0)
(-0.0441845 0.0097793 0)
(-0.0472724 0.00900063 0)
(-0.0500792 0.00809075 0)
(-0.0525657 0.00706493 0)
(-0.0546974 0.00593893 0)
(-0.0564449 0.00472892 0)
(-0.0577842 0.0034515 0)
(-0.0586965 0.00212367 0)
(-0.0591686 0.00076285 0)
(-0.0591929 -0.000613105 0)
(-0.0587676 -0.00198593 0)
(-0.0578968 -0.00333697 0)
(-0.0565905 -0.00464721 0)
(-0.0548651 -0.00589739 0)
(-0.0527426 -0.00706811 0)
(-0.0502515 -0.00814 0)
(-0.0474262 -0.00909392 0)
(-0.0443069 -0.00991128 0)
(-0.0409395 -0.0105743 0)
(-0.037375 -0.0110664 0)
(-0.0336693 -0.0113727 0)
(-0.0298823 -0.0114806 0)
(-0.026077 -0.01138 0)
(-0.0223188 -0.0110648 0)
(-0.0186738 -0.010533 0)
(-0.0152075 -0.00978815 0)
(-0.0119832 -0.00884097 0)
(-0.00905963 -0.00771088 0)
(-0.00648894 -0.00642869 0)
(-0.00431442 -0.00503995 0)
(-0.00256696 -0.0036096 0)
(-0.00126123 -0.00222723 0)
(-0.000409864 -0.00101369 0)
(-5.01081e-05 -0.000140862 0)
(-7.83911e-05 0.000441111 0)
(-0.000579249 0.00188521 0)
(-0.00170856 0.00363698 0)
(-0.00337783 0.00551684 0)
(-0.00554559 0.00739591 0)
(-0.00817923 0.00917807 0)
(-0.0112331 0.010794 0)
(-0.0146524 0.0121959 0)
(-0.0183762 0.0133529 0)
(-0.0223391 0.0142469 0)
(-0.0264731 0.0148695 0)
(-0.0307091 0.0152202 0)
(-0.0349783 0.0153038 0)
(-0.0392134 0.0151298 0)
(-0.0433496 0.0147109 0)
(-0.0473253 0.014062 0)
(-0.051083 0.0132003 0)
(-0.0545694 0.012144 0)
(-0.0577362 0.0109125 0)
(-0.06054 0.00952627 0)
(-0.0629428 0.00800615 0)
(-0.0649123 0.00637379 0)
(-0.0664219 0.00465137 0)
(-0.0674509 0.00286166 0)
(-0.0679846 0.00102798 0)
(-0.0680147 -0.000825798 0)
(-0.067539 -0.00267525 0)
(-0.0665622 -0.00449543 0)
(-0.0650951 -0.00626098 0)
(-0.0631556 -0.00794621 0)
(-0.060768 -0.00952529 0)
(-0.0579636 -0.0109725 0)
(-0.0547801 -0.0122623 0)
(-0.0512616 -0.0133703 0)
(-0.0474587 -0.0142728 0)
(-0.0434275 -0.0149481 0)
(-0.0392293 -0.0153767 0)
(-0.03493 -0.015542 0)
(-0.0305991 -0.0154314 0)
(-0.0263083 -0.0150368 0)
(-0.0221308 -0.0143563 0)
(-0.0181391 -0.0133947 0)
(-0.0144037 -0.0121662 0)
(-0.0109908 -0.0106957 0)
(-0.00796068 -0.00902141 0)
(-0.00536549 -0.00719882 0)
(-0.00324628 -0.00530436 0)
(-0.0016293 -0.00344014 0)
(-0.000546583 -0.00173902 0)
(-7.22692e-05 -0.000381498 0)
(-9.93971e-05 0.000768972 0)
(-0.000712802 0.00283198 0)
(-0.00207248 0.00517094 0)
(-0.00405305 0.00760372 0)
(-0.00659236 0.00999502 0)
(-0.00964467 0.0122411 0)
(-0.0131529 0.0142651 0)
(-0.0170523 0.0160132 0)
(-0.0212734 0.0174494 0)
(-0.0257435 0.0185523 0)
(-0.0303878 0.0193121 0)
(-0.0351309 0.0197278 0)
(-0.0398981 0.0198056 0)
(-0.0446165 0.0195569 0)
(-0.0492163 0.0189973 0)
(-0.0536309 0.0181459 0)
(-0.0577983 0.0170237 0)
(-0.061661 0.0156541 0)
(-0.065167 0.0140615 0)
(-0.0682694 0.0122718 0)
(-0.0709274 0.0103115 0)
(-0.073106 0.00820822 0)
(-0.0747766 0.00599021 0)
(-0.0759166 0.00368646 0)
(-0.0765103 0.00132671 0)
(-0.0765485 -0.00105863 0)
(-0.0760288 -0.00343843 0)
(-0.074956 -0.00578094 0)
(-0.0733417 -0.00805389 0)
(-0.0712049 -0.0102246 0)
(-0.0685716 -0.0122603 0)
(-0.0654753 -0.0141282 0)
(-0.0619565 -0.0157961 0)
(-0.0580626 -0.0172329 0)
(-0.053848 -0.0184088 0)
(-0.0493731 -0.0192962 0)
(-0.0447041 -0.0198706 0)
(-0.0399121 -0.0201113 0)
(-0.0350724 -0.0200023 0)
(-0.030263 -0.0195336 0)
(-0.0255636 -0.0187026 0)
(-0.0210537 -0.0175156 0)
(-0.0168113 -0.0159896 0)
(-0.0129106 -0.0141541 0)
(-0.00942086 -0.0120545 0)
(-0.00640433 -0.00975441 0)
(-0.00391348 -0.00733996 0)
(-0.00198718 -0.00492306 0)
(-0.000677132 -0.00264512 0)
(-9.2579e-05 -0.000691167 0)
(-0.000118835 0.00116381 0)
(-0.000840098 0.00395685 0)
(-0.00242405 0.0069727 0)
(-0.00471071 0.0100293 0)
(-0.00761773 0.0129877 0)
(-0.0110858 0.0157392 0)
(-0.0150456 0.0182017 0)
(-0.0194216 0.0203166 0)
(-0.0241354 0.0220445 0)
(-0.0291062 0.0233617 0)
(-0.0342521 0.0242573 0)
(-0.0394916 0.0247308 0)
(-0.0447442 0.0247898 0)
(-0.0499318 0.0244484 0)
(-0.0549797 0.0237256 0)
(-0.0598171 0.0226444 0)
(-0.064378 0.0212308 0)
(-0.0686013 0.019513 0)
(-0.0724317 0.0175212 0)
(-0.0758195 0.0152869 0)
(-0.0787214 0.012843 0)
(-0.0811003 0.0102231 0)
(-0.0829256 0.00746207 0)
(-0.0841736 0.00459551 0)
(-0.0848272 0.00165996 0)
(-0.0848765 -0.00130719 0)
(-0.0843189 -0.0042677 0)
(-0.083159 -0.00718259 0)
(-0.081409 -0.0100122 0)
(-0.0790885 -0.0127165 0)
(-0.076225 -0.015255 0)
(-0.0728535 -0.0175878 0)
(-0.0690169 -0.0196753 0)
(-0.0647653 -0.021479 0)
(-0.0601561 -0.0229627 0)
(-0.0552535 -0.0240924 0)
(-0.0501282 -0.024838 0)
(-0.044856 -0.0251741 0)
(-0.0395177 -0.0250809 0)
(-0.0341972 -0.0245461 0)
(-0.0289807 -0.023566 0)
(-0.0239552 -0.0221474 0)
(-0.0192063 -0.0203096 0)
(-0.0148173 -0.0180862 0)
(-0.010867 -0.0155282 0)
(-0.00742869 -0.0127063 0)
(-0.00456723 -0.0097144 0)
(-0.00233469 -0.00667205 0)
(-0.000802025 -0.00372686 0)
(-0.000111372 -0.00106627 0)
(-0.000137086 0.00162237 0)
(-0.00096225 0.00525412 0)
(-0.00276485 0.00903648 0)
(-0.00535245 0.0127887 0)
(-0.00862325 0.0163703 0)
(-0.0125042 0.0196695 0)
(-0.0169134 0.022601 0)
(-0.0217639 0.0251031 0)
(-0.0269676 0.0271342 0)
(-0.0324353 0.0286693 0)
(-0.038078 0.0296978 0)
(-0.0438073 0.0302201 0)
(-0.0495372 0.030246 0)
(-0.0551847 0.0297926 0)
(-0.0606704 0.0288829 0)
(-0.0659197 0.0275444 0)
(-0.0708628 0.0258082 0)
(-0.0754358 0.023708 0)
(-0.0795803 0.02128 0)
(-0.0832445 0.0185617 0)
(-0.0863828 0.0155925 0)
(-0.0889562 0.0124126 0)
(-0.0909328 0.00906358 0)
(-0.0922874 0.00558808 0)
(-0.0930021 0.00202971 0)
(-0.0930662 -0.00156683 0)
(-0.0924766 -0.00515589 0)
(-0.0912378 -0.00869089 0)
(-0.0893621 -0.0121245 0)
(-0.0868696 -0.0154087 0)
(-0.0837886 -0.0184953 0)
(-0.0801554 -0.0213364 0)
(-0.0760145 -0.0238846 0)
(-0.0714183 -0.026094 0)
(-0.0664268 -0.0279208 0)
(-0.0611077 -0.0293244 0)
(-0.0555353 -0.0302685 0)
(-0.0497902 -0.0307222 0)
(-0.0439582 -0.0306615 0)
(-0.0381293 -0.0300708 0)
(-0.0323966 -0.0289449 0)
(-0.0268544 -0.0272903 0)
(-0.0215969 -0.0251276 0)
(-0.0167168 -0.0224936 0)
(-0.0123034 -0.0194437 0)
(-0.00844205 -0.0160543 0)
(-0.00521041 -0.0124256 0)
(-0.00267407 -0.0086833 0)
(-0.000922601 -0.00497966 0)
(-0.000129061 -0.0015039 0)
(-0.000154509 0.00214216 0)
(-0.00108062 0.0067191 0)
(-0.00309748 0.0113573 0)
(-0.00598193 0.0158778 0)
(-0.00961344 0.0201398 0)
(-0.0139053 0.02403 0)
(-0.0187625 0.0274614 0)
(-0.0240866 0.030371 0)
(-0.0297792 0.0327162 0)
(-0.0357423 0.0344723 0)
(-0.0418791 0.0356295 0)
(-0.0480946 0.0361903 0)
(-0.0542971 0.0361675 0)
(-0.0603985 0.0355818 0)
(-0.0663153 0.0344608 0)
(-0.0719691 0.0328371 0)
(-0.0772869 0.0307471 0)
(-0.082202 0.0282307 0)
(-0.0866537 0.0253301 0)
(-0.090588 0.0220895 0)
(-0.0939577 0.0185548 0)
(-0.0967223 0.0147733 0)
(-0.0988484 0.0107933 0)
(-0.10031 0.00666488 0)
(-0.101088 0.00243885 0)
(-0.101171 -0.00183257 0)
(-0.100556 -0.00609604 0)
(-0.0992458 -0.0102971 0)
(-0.0972536 -0.0143805 0)
(-0.0945995 -0.01829 0)
(-0.091312 -0.0219693 0)
(-0.0874284 -0.025362 0)
(-0.0829942 -0.0284126 0)
(-0.0780637 -0.0310669 0)
(-0.0726991 -0.0332735 0)
(-0.066971 -0.0349842 0)
(-0.0609572 -0.0361559 0)
(-0.0547427 -0.0367515 0)
(-0.0484186 -0.036742 0)
(-0.0420808 -0.036108 0)
(-0.0358293 -0.0348413 0)
(-0.0297664 -0.0329474 0)
(-0.0239956 -0.0304473 0)
(-0.0186194 -0.0273798 0)
(-0.0137387 -0.0238036 0)
(-0.00945127 -0.0197996 0)
(-0.00584821 -0.0154729 0)
(-0.00300873 -0.0109544 0)
(-0.00104053 -0.00640038 0)
(-0.000146057 -0.00200203 0)
(-0.000171423 0.00272153 0)
(-0.00119662 0.00834852 0)
(-0.00342493 0.0139317 0)
(-0.00660373 0.0192937 0)
(-0.0105943 0.0242941 0)
(-0.0152962 0.0288194 0)
(-0.0206015 0.0327824 0)
(-0.0263996 0.0361199 0)
(-0.0325814 0.03879 0)
(-0.0390397 0.0407693 0)
(-0.0456697 0.0420503 0)
(-0.0523697 0.0426384 0)
(-0.0590421 0.0425502 0)
(-0.0655938 0.0418111 0)
(-0.0719372 0.0404537 0)
(-0.0779903 0.0385162 0)
(-0.0836773 0.0360413 0)
(-0.0889291 0.033075 0)
(-0.093683 0.0296662 0)
(-0.0978832 0.0258659 0)
(-0.101481 0.0217269 0)
(-0.104435 0.0173035 0)
(-0.10671 0.0126514 0)
(-0.10828 0.00782774 0)
(-0.109125 0.00289099 0)
(-0.109232 -0.00209902 0)
(-0.108597 -0.00708115 0)
(-0.107224 -0.0119929 0)
(-0.105124 -0.0167708 0)
(-0.102318 -0.0213503 0)
(-0.0988342 -0.0256665 0)
(-0.0947103 -0.0296543 0)
(-0.0899926 -0.0332494 0)
(-0.0847365 -0.0363893 0)
(-0.0790062 -0.0390137 0)
(-0.0728747 -0.0410666 0)
(-0.0664231 -0.042497 0)
(-0.0597407 -0.0432611 0)
(-0.0529235 -0.0433237 0)
(-0.0460737 -0.0426604 0)
(-0.0392986 -0.0412596 0)
(-0.0327089 -0.0391242 0)
(-0.0264177 -0.0362747 0)
(-0.0205384 -0.0327506 0)
(-0.0151838 -0.0286126 0)
(-0.010465 -0.0239452 0)
(-0.00648692 -0.0188576 0)
(-0.00334261 -0.013485 0)
(-0.00115756 -0.00798769 0)
(-0.000162736 -0.00255963 0)
(-0.000188106 0.00335953 0)
(-0.00131156 0.0101406 0)
(-0.00375024 0.0167578 0)
(-0.00722267 0.0230351 0)
(-0.0115722 0.0288328 0)
(-0.0166851 0.0340381 0)
(-0.0224397 0.0385648 0)
(-0.0287132 0.0423509 0)
(-0.0353856 0.0453564 0)
(-0.0423401 0.0475608 0)
(-0.0494636 0.0489597 0)
(-0.0566474 0.0495628 0)
(-0.063788 0.0493917 0)
(-0.0707873 0.0484771 0)
(-0.0775538 0.0468575 0)
(-0.0840022 0.0445774 0)
(-0.0900541 0.0416861 0)
(-0.0956382 0.0382365 0)
(-0.10069 0.0342844 0)
(-0.105153 0.0298878 0)
(-0.108977 0.0251067 0)
(-0.112119 0.0200027 0)
(-0.114544 0.0146387 0)
(-0.116224 0.00907924 0)
(-0.117138 0.00339041 0)
(-0.117275 -0.00236033 0)
(-0.116627 -0.00810393 0)
(-0.115199 -0.0137698 0)
(-0.113001 -0.0192861 0)
(-0.110053 -0.0245798 0)
(-0.106384 -0.0295769 0)
(-0.10203 -0.0342036 0)
(-0.0970379 -0.0383865 0)
(-0.0914646 -0.0420535 0)
(-0.0853754 -0.0451355 0)
(-0.0788453 -0.0475675 0)
(-0.0719587 -0.0492901 0)
(-0.0648086 -0.0502514 0)
(-0.0574962 -0.0504093 0)
(-0.0501301 -0.0497331 0)
(-0.0428249 -0.0482063 0)
(-0.0357005 -0.0458285 0)
(-0.0288799 -0.042618 0)
(-0.0224881 -0.0386138 0)
(-0.0166507 -0.0338779 0)
(-0.0114927 -0.0284969 0)
(-0.00713334 -0.0225837 0)
(-0.00367982 -0.0162772 0)
(-0.00127542 -0.00974226 0)
(-0.000179441 -0.00317663 0)
(-0.000204793 0.00405595 0)
(-0.00142667 0.012095 0)
(-0.00407627 0.0198357 0)
(-0.00784348 0.0271026 0)
(-0.0125538 0.033757 0)
(-0.0180798 0.0396879 0)
(-0.0242863 0.0448106 0)
(-0.0310378 0.0490659 0)
(-0.038203 0.0524171 0)
(-0.0456553 0.0548475 0)
(-0.0532729 0.0563578 0)
(-0.0609401 0.0569629 0)
(-0.0685473 0.0566902 0)
(-0.0759918 0.0555771 0)
(-0.083178 0.0536687 0)
(-0.0900176 0.0510167 0)
(-0.09643 0.0476775 0)
(-0.102342 0.0437112 0)
(-0.107688 0.0391811 0)
(-0.11241 0.0341526 0)
(-0.116457 0.0286928 0)
(-0.119786 0.0228706 0)
(-0.122361 0.0167566 0)
(-0.124154 0.0104225 0)
(-0.125143 0.00394184 0)
(-0.125314 -0.00261014 0)
(-0.124661 -0.00915657 0)
(-0.123187 -0.0156188 0)
(-0.120901 -0.0219165 0)
(-0.117822 -0.0279679 0)
(-0.113978 -0.0336902 0)
(-0.109405 -0.0390001 0)
(-0.104149 -0.0438146 0)
(-0.0982677 -0.0480519 0)
(-0.0918271 -0.0516331 0)
(-0.084904 -0.0544834 0)
(-0.0775853 -0.0565339 0)
(-0.0699678 -0.0577238 0)
(-0.0621579 -0.0580025 0)
(-0.0542704 -0.057332 0)
(-0.0464279 -0.0556894 0)
(-0.0387594 -0.0530696 0)
(-0.0313987 -0.0494873 0)
(-0.0244832 -0.0449798 0)
(-0.0181518 -0.0396091 0)
(-0.012544 -0.0334632 0)
(-0.00779427 -0.0266577 0)
(-0.00402437 -0.0193358 0)
(-0.00139577 -0.0116668 0)
(-0.00019648 -0.00385385 0)
(-0.000221686 0.00481116 0)
(-0.00154302 0.0142128 0)
(-0.00440568 0.0231669 0)
(-0.00847059 0.0314984 0)
(-0.0135452 0.0390698 0)
(-0.0194881 0.0457718 0)
(-0.0261502 0.0515229 0)
(-0.0333831 0.0562676 0)
(-0.0410438 0.059974 0)
(-0.0489954 0.0626308 0)
(-0.0571077 0.0642447 0)
(-0.0652574 0.0648374 0)
(-0.0733291 0.0644435 0)
(-0.0812152 0.0631079 0)
(-0.0888166 0.0608834 0)
(-0.0960423 0.0578296 0)
(-0.10281 0.0540106 0)
(-0.109044 0.0494947 0)
(-0.114679 0.0443525 0)
(-0.119656 0.0386571 0)
(-0.123923 0.0324832 0)
(-0.127438 0.0259071 0)
(-0.130164 0.0190065 0)
(-0.132071 0.0118606 0)
(-0.133138 0.00455038 0)
(-0.13335 -0.00284157 0)
(-0.132701 -0.0102306 0)
(-0.13119 -0.0175299 0)
(-0.128827 -0.024651 0)
(-0.125629 -0.0315033 0)
(-0.121623 -0.0379947 0)
(-0.116843 -0.0440324 0)
(-0.111336 -0.0495233 0)
(-0.105157 -0.0543756 0)
(-0.0983746 -0.0584995 0)
(-0.0910654 -0.0618096 0)
(-0.083319 -0.0642265 0)
(-0.0752357 -0.065679 0)
(-0.0669266 -0.066107 0)
(-0.0585131 -0.0654634 0)
(-0.0501257 -0.0637176 0)
(-0.0419031 -0.060858 0)
(-0.0339905 -0.0568944 0)
(-0.0265381 -0.051861 0)
(-0.019699 -0.0458184 0)
(-0.0136283 -0.0388552 0)
(-0.00847636 -0.0310894 0)
(-0.00438016 -0.0226681 0)
(-0.00152016 -0.0137659 0)
(-0.000214132 -0.00459297 0)
(-0.000238958 0.00562607 0)
(-0.00166159 0.0164962 0)
(-0.00474086 0.026755 0)
(-0.00910804 0.0362267 0)
(-0.014552 0.0447753 0)
(-0.0209169 0.0522942 0)
(-0.0280394 0.0587057 0)
(-0.0357576 0.0639595 0)
(-0.0439165 0.0680295 0)
(-0.0523687 0.0709116 0)
(-0.0609752 0.0726198 0)
(-0.0696053 0.0731844 0)
(-0.0781377 0.0726482 0)
(-0.0864603 0.0710648 0)
(-0.0944705 0.0684959 0)
(-0.102075 0.0650098 0)
(-0.109189 0.0606793 0)
(-0.115739 0.0555807 0)
(-0.121655 0.049793 0)
(-0.126881 0.0433971 0)
(-0.131364 0.0364752 0)
(-0.135062 0.029111 0)
(-0.137937 0.0213894 0)
(-0.13996 0.0133968 0)
(-0.141109 0.00522124 0)
(-0.141369 -0.00304725 0)
(-0.140731 -0.0113165 0)
(-0.139195 -0.0194922 0)
(-0.136768 -0.0274772 0)
(-0.133466 -0.0351724 0)
(-0.129312 -0.0424766 0)
(-0.124341 -0.0492869 0)
(-0.118597 -0.0555001 0)
(-0.112135 -0.0610132 0)
(-0.105023 -0.0657253 0)
(-0.0973372 -0.0695392 0)
(-0.08917 -0.0723638 0)
(-0.0806245 -0.0741164 0)
(-0.0718165 -0.0747253 0)
(-0.0628735 -0.0741332 0)
(-0.0539342 -0.0722998 0)
(-0.0451474 -0.0692051 0)
(-0.0366702 -0.0648526 0)
(-0.0286662 -0.0592716 0)
(-0.0213039 -0.0525203 0)
(-0.0147547 -0.0446867 0)
(-0.00918597 -0.0358908 0)
(-0.00475087 -0.0262838 0)
(-0.00165004 -0.0160462 0)
(-0.000232652 -0.00539645 0)
(-0.00025676 0.00650208 0)
(-0.00178324 0.0189487 0)
(-0.00508399 0.0306046 0)
(-0.00975948 0.0412931 0)
(-0.0155792 0.0508795 0)
(-0.0223724 0.0592606 0)
(-0.0299608 0.0663637 0)
(-0.0381683 0.0721447 0)
(-0.0468277 0.0765853 0)
(-0.0557809 0.0796897 0)
(-0.0648796 0.0814813 0)
(-0.073986 0.082 0)
(-0.0829729 0.0812986 0)
(-0.091724 0.0794408 0)
(-0.100134 0.0764982 0)
(-0.108106 0.0725487 0)
(-0.115557 0.0676744 0)
(-0.12241 0.0619607 0)
(-0.128599 0.055495 0)
(-0.134064 0.0483661 0)
(-0.138756 0.040664 0)
(-0.142632 0.0324796 0)
(-0.145654 0.023905 0)
(-0.147794 0.0150334 0)
(-0.149029 0.00595961 0)
(-0.149343 -0.00321933 0)
(-0.148726 -0.0124042 0)
(-0.147177 -0.0214929 0)
(-0.1447 -0.0303807 0)
(-0.14131 -0.0389597 0)
(-0.137027 -0.0471194 0)
(-0.131883 -0.0547472 0)
(-0.125921 -0.0617289 0)
(-0.119194 -0.0679501 0)
(-0.111767 -0.0732979 0)
(-0.103719 -0.0776623 0)
(-0.0951417 -0.0809393 0)
(-0.086141 -0.0830328 0)
(-0.076837 -0.0838583 0)
(-0.0673632 -0.083346 0)
(-0.0578665 -0.081444 0)
(-0.0485061 -0.0781224 0)
(-0.0394513 -0.0733759 0)
(-0.0308802 -0.0672276 0)
(-0.0229774 -0.0597314 0)
(-0.0159319 -0.0509742 0)
(-0.00992911 -0.041077 0)
(-0.00514001 -0.0301951 0)
(-0.00178679 -0.0185159 0)
(-0.000252278 -0.00626747 0)
(-0.000275229 0.00744101 0)
(-0.00190875 0.0215747 0)
(-0.00543702 0.0347218 0)
(-0.0104282 0.0467043 0)
(-0.0166315 0.0573892 0)
(-0.0238601 0.0666773 0)
(-0.0319201 0.0745017 0)
(-0.0406209 0.0808264 0)
(-0.0497823 0.0856423 0)
(-0.0592351 0.0889636 0)
(-0.0688219 0.0908251 0)
(-0.0783976 0.0912777 0)
(-0.0878294 0.0903862 0)
(-0.0969972 0.0882255 0)
(-0.105793 0.0848785 0)
(-0.114119 0.0804336 0)
(-0.121891 0.0749834 0)
(-0.129034 0.0686224 0)
(-0.13548 0.0614471 0)
(-0.141173 0.0535546 0)
(-0.146063 0.0450423 0)
(-0.150108 0.0360084 0)
(-0.153273 0.0265517 0)
(-0.155529 0.0167719 0)
(-0.156852 0.00677035 0)
(-0.157227 -0.00334963 0)
(-0.156642 -0.0134821 0)
(-0.155093 -0.0235179 0)
(-0.152584 -0.0333446 0)
(-0.149124 -0.0428463 0)
(-0.144733 -0.0519031 0)
(-0.13944 -0.0603925 0)
(-0.133283 -0.0681894 0)
(-0.126313 -0.0751672 0)
(-0.118593 -0.0812002 0)
(-0.110201 -0.0861646 0)
(-0.101229 -0.0899419 0)
(-0.0917852 -0.0924213 0)
(-0.0819921 -0.0935035 0)
(-0.0719894 -0.0931039 0)
(-0.0619323 -0.0911572 0)
(-0.0519902 -0.0876208 0)
(-0.0423454 -0.0824788 0)
(-0.0331911 -0.0757459 0)
(-0.0247292 -0.0674703 0)
(-0.0171676 -0.0577361 0)
(-0.0107115 -0.0466651 0)
(-0.0055509 -0.0344165 0)
(-0.00193172 -0.021185 0)
(-0.000273238 -0.00720996 0)
(-0.000294489 0.00844507 0)
(-0.00203885 0.0243796 0)
(-0.00580178 0.039114 0)
(-0.0111173 0.0524687 0)
(-0.0177129 0.0643125 0)
(-0.0253847 0.0745509 0)
(-0.0339223 0.0831246 0)
(-0.0431196 0.0900069 0)
(-0.0527828 0.0951996 0)
(-0.0627317 0.0987295 0)
(-0.0727994 0.100644 0)
(-0.0828336 0.101008 0)
(-0.0926964 0.0998982 0)
(-0.102264 0.097404 0)
(-0.111427 0.0936203 0)
(-0.120087 0.0886474 0)
(-0.12816 0.0825888 0)
(-0.135571 0.0755492 0)
(-0.142256 0.0676341 0)
(-0.148159 0.0589492 0)
(-0.153233 0.0495994 0)
(-0.157437 0.0396899 0)
(-0.160737 0.0293257 0)
(-0.163105 0.0186126 0)
(-0.164519 0.00765771 0)
(-0.16496 -0.00342973 0)
(-0.164417 -0.0145377 0)
(-0.162884 -0.0255509 0)
(-0.160361 -0.0363496 0)
(-0.156856 -0.0468099 0)
(-0.152383 -0.0568035 0)
(-0.146967 -0.0661976 0)
(-0.140644 -0.074856 0)
(-0.13346 -0.0826398 0)
(-0.125475 -0.0894093 0)
(-0.116765 -0.095026 0)
(-0.10742 -0.0993555 0)
(-0.0975496 -0.10227 0)
(-0.0872796 -0.103654 0)
(-0.0767546 -0.103406 0)
(-0.0661375 -0.101444 0)
(-0.0556081 -0.0977098 0)
(-0.0453621 -0.0921753 0)
(-0.0356089 -0.0848442 0)
(-0.0265686 -0.0757568 0)
(-0.0184696 -0.0649932 0)
(-0.0115385 -0.0526748 0)
(-0.00598674 -0.0389646 0)
(-0.00208611 -0.0240651 0)
(-0.000295749 -0.00822846 0)
(-0.000314661 0.00951683 0)
(-0.00217424 0.0273696 0)
(-0.00618004 0.0437896 0)
(-0.0118297 0.0585953 0)
(-0.0188272 0.0716578 0)
(-0.0269505 0.0828885 0)
(-0.0359712 0.0922367 0)
(-0.0456669 0.0996871 0)
(-0.05583 0.105255 0)
(-0.0662682 0.10898 0)
(-0.0768056 0.110927 0)
(-0.0872827 0.111175 0)
(-0.0975571 0.109817 0)
(-0.107502 0.106956 0)
(-0.117007 0.102701 0)
(-0.125974 0.0971668 0)
(-0.13432 0.0904672 0)
(-0.141973 0.0827183 0)
(-0.148872 0.0740351 0)
(-0.154962 0.0645316 0)
(-0.1602 0.0543203 0)
(-0.164547 0.0435128 0)
(-0.167972 0.0322202 0)
(-0.170447 0.0205535 0)
(-0.17195 0.008625 0)
(-0.172463 -0.00345114 0)
(-0.171974 -0.0155577 0)
(-0.170473 -0.0275736 0)
(-0.167959 -0.0393729 0)
(-0.164434 -0.0508244 0)
(-0.15991 -0.0617914 0)
(-0.154406 -0.0721315 0)
(-0.147951 -0.081697 0)
(-0.140589 -0.0903363 0)
(-0.132374 -0.0978953 0)
(-0.123378 -0.10422 0)
(-0.11369 -0.109157 0)
(-0.103418 -0.112562 0)
(-0.0926904 -0.114299 0)
(-0.0816555 -0.114246 0)
(-0.0704835 -0.112304 0)
(-0.0593648 -0.108397 0)
(-0.048509 -0.102478 0)
(-0.0381419 -0.09454 0)
(-0.0285036 -0.0846118 0)
(-0.0198446 -0.0727676 0)
(-0.0124154 -0.0591275 0)
(-0.00645064 -0.0438578 0)
(-0.00225119 -0.0271694 0)
(-0.000320034 -0.0093282 0)
(-0.000335872 0.0106592 0)
(-0.00231565 0.0305519 0)
(-0.00657359 0.0487582 0)
(-0.0125683 0.0650944 0)
(-0.0199781 0.0794345 0)
(-0.0285612 0.0916968 0)
(-0.03807 0.101841 0)
(-0.0482646 0.109866 0)
(-0.0589225 0.115801 0)
(-0.0698395 0.119705 0)
(-0.0808303 0.121659 0)
(-0.0917288 0.121759 0)
(-0.102388 0.120118 0)
(-0.112681 0.116854 0)
(-0.122494 0.112092 0)
(-0.131734 0.105961 0)
(-0.140319 0.098588 0)
(-0.148179 0.0901003 0)
(-0.155258 0.0806227 0)
(-0.161506 0.0702775 0)
(-0.166882 0.0591847 0)
(-0.171352 0.0474619 0)
(-0.174886 0.0352252 0)
(-0.177458 0.0225906 0)
(-0.179048 0.00967419 0)
(-0.179639 -0.00340561 0)
(-0.179214 -0.0165274 0)
(-0.177765 -0.0295655 0)
(-0.175284 -0.0423885 0)
(-0.17177 -0.054859 0)
(-0.16723 -0.0668322 0)
(-0.161677 -0.0781564 0)
(-0.155134 -0.088673 0)
(-0.147637 -0.0982173 0)
(-0.139236 -0.10662 0)
(-0.129997 -0.11371 0)
(-0.120005 -0.119315 0)
(-0.109365 -0.12327 0)
(-0.0982072 -0.125417 0)
(-0.0866821 -0.125613 0)
(-0.0749669 -0.123735 0)
(-0.063262 -0.119685 0)
(-0.0517907 -0.113399 0)
(-0.0407969 -0.10485 0)
(-0.0305415 -0.0940564 0)
(-0.0212994 -0.081083 0)
(-0.0133472 -0.0660468 0)
(-0.00694569 -0.0491169 0)
(-0.00242824 -0.0305126 0)
(-0.000346319 -0.010515 0)
(-0.000358262 0.0118756 0)
(-0.00246389 0.0339343 0)
(-0.00698439 0.0540303 0)
(-0.0133361 0.0719771 0)
(-0.0211695 0.0876522 0)
(-0.0302208 0.100982 0)
(-0.0402215 0.11194 0)
(-0.050913 0.12054 0)
(-0.0620572 0.12683 0)
(-0.0734374 0.130888 0)
(-0.0848592 0.132816 0)
(-0.0961504 0.132733 0)
(-0.107161 0.130769 0)
(-0.117761 0.127062 0)
(-0.127842 0.121755 0)
(-0.13731 0.114991 0)
(-0.146088 0.106912 0)
(-0.154113 0.0976575 0)
(-0.161331 0.0873617 0)
(-0.167699 0.0761557 0)
(-0.17318 0.0641661 0)
(-0.177745 0.0515162 0)
(-0.181367 0.0383265 0)
(-0.184024 0.0247164 0)
(-0.185697 0.0108054 0)
(-0.186367 -0.00328536 0)
(-0.186019 -0.0174315 0)
(-0.18464 -0.0315039 0)
(-0.18222 -0.045367 0)
(-0.178754 -0.0588777 0)
(-0.174239 -0.0718847 0)
(-0.168684 -0.0842274 0)
(-0.162104 -0.0957366 0)
(-0.154527 -0.106234 0)
(-0.145994 -0.115536 0)
(-0.136564 -0.123451 0)
(-0.126317 -0.129789 0)
(-0.115355 -0.13436 0)
(-0.103804 -0.136982 0)
(-0.0918177 -0.137487 0)
(-0.0795788 -0.135725 0)
(-0.067297 -0.131573 0)
(-0.0552097 -0.124944 0)
(-0.043579 -0.11579 0)
(-0.0326887 -0.104112 0)
(-0.0228402 -0.0899637 0)
(-0.0143388 -0.0734576 0)
(-0.00747503 -0.054764 0)
(-0.00261856 -0.0341108 0)
(-0.000374844 -0.0117956 0)
(-0.000381994 0.0131698 0)
(-0.00261987 0.0375261 0)
(-0.00741468 0.0596177 0)
(-0.0141367 0.0792553 0)
(-0.0224056 0.0963208 0)
(-0.0319333 0.110751 0)
(-0.0424282 0.122534 0)
(-0.0536118 0.131702 0)
(-0.0652291 0.138326 0)
(-0.077051 0.142507 0)
(-0.0888739 0.144371 0)
(-0.10052 0.144061 0)
(-0.111837 0.141729 0)
(-0.122697 0.137535 0)
(-0.132991 0.131641 0)
(-0.142633 0.124207 0)
(-0.151549 0.115391 0)
(-0.159683 0.105343 0)
(-0.166989 0.0942082 0)
(-0.17343 0.0821267 0)
(-0.178975 0.0692308 0)
(-0.183601 0.0556488 0)
(-0.187285 0.0415046 0)
(-0.190009 0.0269201 0)
(-0.191755 0.0120165 0)
(-0.192506 -0.00308351 0)
(-0.192246 -0.018254 0)
(-0.190959 -0.0333639 0)
(-0.188631 -0.0482748 0)
(-0.185251 -0.0628396 0)
(-0.180811 -0.0769012 0)
(-0.175309 -0.0902914 0)
(-0.168752 -0.102831 0)
(-0.161158 -0.114328 0)
(-0.152559 -0.124583 0)
(-0.143004 -0.133386 0)
(-0.132565 -0.140525 0)