/*--------------------------------*- C++ -*----------------------------------*\
  =========                 |
  \\      /  F ield         | OpenFOAM: The Open Source CFD Toolbox
   \\    /   O peration     | Website:  https://openfoam.org
    \\  /    A nd           | Version:  7
     \\/     M anipulation  |
\*---------------------------------------------------------------------------*/
FoamFile
{
    version     2.0;
    format      ascii;
    class       volScalarField;
    location    "0.0718";
    object      p;
}
// * * * * * * * * * * * * * * * * * * * * * * * * * * * * * * * * * * * * * //

dimensions      [0 2 -2 0 0 0 0];

internalField   nonuniform List<scalar> 
2500
(
-3.31648e-06
-0.00054598
-0.00224214
-0.00476733
-0.00773379
-0.0108226
-0.0137887
-0.0164403
-0.0186317
-0.0202567
-0.0212409
-0.0215364
-0.0211167
-0.0199739
-0.0181155
-0.0155621
-0.0123459
-0.0085085
-0.00410029
0.000821095
0.00619156
0.0119414
0.0179963
0.0242775
0.0307034
0.0371895
0.0436497
0.0499973
0.0561455
0.0620088
0.0675043
0.0725528
0.0770803
0.0810195
0.0843117
0.0869082
0.0887726
0.0898825
0.090232
0.0898337
0.0887218
0.0869549
0.0846198
0.0818362
0.0787627
0.0756016
0.0726076
0.0700929
0.0684535
0.0679786
0.000509954
-2.14676e-05
-0.00140569
-0.0034098
-0.00574681
-0.00819079
-0.0105484
-0.0126597
-0.0143979
-0.0156662
-0.0163938
-0.0165324
-0.0160531
-0.0149437
-0.0132066
-0.0108565
-0.00791881
-0.00442864
-0.000429183
0.00402917
0.00888977
0.0140905
0.0195647
0.0252418
0.0310481
0.0369076
0.0427426
0.0484752
0.0540274
0.0593229
0.0642879
0.0688522
0.0729511
0.076526
0.0795267
0.0819127
0.0836547
0.0847368
0.0851581
0.0849347
0.0841019
0.0827166
0.0808597
0.078639
0.0761914
0.0736857
0.0713221
0.0693233
0.0679741
0.0675038
0.00218708
0.00135294
-4.03641e-05
-0.00185292
-0.00390311
-0.00601523
-0.00803432
-0.009829
-0.0112916
-0.0123371
-0.0129018
-0.0129406
-0.0124256
-0.0113436
-0.00969474
-0.00749045
-0.00475242
-0.00151117
0.0021949
0.00632052
0.0108144
0.0156201
0.0206767
0.0259195
0.0312808
0.0366909
0.0420784
0.0473716
0.0524992
0.0573913
0.0619803
0.0662027
0.0699996
0.0733186
0.0761148
0.0783526
0.080007
0.0810655
0.081529
0.0814143
0.0807551
0.0796039
0.0780336
0.0761387
0.0740364
0.0718659
0.0697876
0.0679778
0.0666219
0.0658684
0.00473095
0.00336053
0.00174226
-9.82034e-05
-0.00207658
-0.00405413
-0.0059062
-0.00752727
-0.00882857
-0.00973841
-0.0102019
-0.0101797
-0.00964685
-0.00859156
-0.00701348
-0.00492275
-0.00233875
0.000710886
0.0041912
0.00806076
0.0122724
0.0167741
0.0215095
0.0264185
0.0314385
0.0365044
0.0415501
0.0465087
0.0513139
0.0559005
0.060206
0.0641713
0.0677419
0.0708693
0.0735123
0.0756383
0.0772245
0.0782594
0.0787444
0.0786945
0.0781401
0.0771275
0.0757206
0.0740002
0.0720646
0.0700275
0.0680196
0.0661822
0.064608
0.0633388
0.00777914
0.00574581
0.00378385
0.00179427
-0.000232173
-0.00218666
-0.00397026
-0.00550132
-0.00670943
-0.00753636
-0.00793697
-0.00787873
-0.00734107
-0.00631445
-0.00479947
-0.00280593
-0.000351936
0.00253689
0.00582819
0.00948361
0.0134595
0.0177073
0.0221748
0.0268059
0.0315421
0.0363226
0.0410854
0.0457679
0.0503078
0.0546442
0.058718
0.0624739
0.0658607
0.0688328
0.0713512
0.0733853
0.0749131
0.0759234
0.0764161
0.0764038
0.0759124
0.0749814
0.0736648
0.0720303
0.0701583
0.0681395
0.0660801
0.0640936
0.0621843
0.0602719
0.0110556
0.00830756
0.00592838
0.00370367
0.00153865
-0.000480722
-0.00227644
-0.00378782
-0.0049613
-0.00575161
-0.00612342
-0.00605148
-0.00552024
-0.00452341
-0.00306334
-0.00115036
0.00119782
0.0039568
0.00709606
0.0105796
0.0143664
0.0184111
0.0226644
0.027074
0.0315844
0.0361386
0.040678
0.0451433
0.0494755
0.0536168
0.0575111
0.0611055
0.0643512
0.0672043
0.0696273
0.0715899
0.0730706
0.0740567
0.0745463
0.0745485
0.0740839
0.0731851
0.0718964
0.0702734
0.0683802
0.0662879
0.0640834
0.0618591
0.0595379
0.0569274
0.0143509
0.0108755
0.00803725
0.00551807
0.00314759
0.000995509
-0.000876495
-0.00242555
-0.00361297
-0.00440543
-0.00477706
-0.00470986
-0.00419371
-0.00322606
-0.00181164
3.79688e-05
0.00230479
0.00496492
0.00798899
0.0113426
0.0149869
0.0188787
0.0229714
0.0272151
0.0315575
0.035944
0.0403189
0.0446254
0.048807
0.052808
0.0565745
0.0600552
0.0632025
0.0659734
0.0683307
0.070244
0.0716904
0.0726557
0.0731351
0.0731335
0.0726663
0.0717589
0.0704467
0.0687742
0.0667918
0.0645544
0.0621342
0.0596094
0.0568311
0.0535074
0.0175026
0.0133071
0.0099892
0.00713784
0.00451614
0.00218275
0.000187036
-0.00144297
-0.00268149
-0.00350585
-0.00389897
-0.00384994
-0.00335404
-0.00241277
-0.00103365
0.000770012
0.00297942
0.0055706
0.00851472
0.0117785
0.0153243
0.019111
0.0230937
0.0272246
0.0314535
0.035728
0.0399942
0.0441973
0.0482826
0.0521958
0.0558841
0.059297
0.0623873
0.0651121
0.0674337
0.0693204
0.0707477
0.0716988
0.0721654
0.0721482
0.071657
0.0707103
0.0693356
0.0675674
0.0654449
0.0630099
0.0603241
0.0574571
0.0541972
0.0501638
0.0203833
0.0154837
0.0116782
0.00847164
0.00556839
0.00301993
0.000866577
-0.000875867
-0.00219261
-0.0030704
-0.00350018
-0.00347766
-0.00300345
-0.00208317
-0.000727358
0.00104859
0.00322466
0.00577635
0.00867488
0.0118875
0.0153775
0.0191048
0.0230261
0.0270951
0.0312629
0.0354787
0.03969
0.0438432
0.0478846
0.0517607
0.055419
0.0588092
0.0618837
0.0645989
0.0669156
0.0688004
0.0702263
0.0711735
0.0716298
0.0715914
0.0710623
0.070055
0.0685894
0.0666918
0.064392
0.0617216
0.0587354
0.0554987
0.0517447
0.0470126
0.0228919
0.0173054
0.0130108
0.00943568
0.00623122
0.00344492
0.0011105
-0.000766263
-0.00217993
-0.00312547
-0.00360104
-0.00360851
-0.00315363
-0.00224609
-0.000899579
0.000868218
0.00303574
0.00557758
0.00846462
0.0116642
0.0151401
0.0188529
0.0227602
0.0268166
0.0309744
0.0351835
0.0393923
0.0435479
0.0475969
0.0514858
0.0551621
0.0585748
0.0616752
0.0644182
0.0667627
0.0686728
0.0701184
0.0710762
0.0715297
0.0714703
0.0708969
0.0698157
0.0682401
0.0661895
0.063686
0.0607532
0.0574424
0.0538175
0.0495625
0.0441429
0.0249445
0.0186859
0.0139036
0.0099525
0.00643468
0.00339585
0.000865167
-0.00115996
-0.00268204
-0.00370325
-0.00422824
-0.0042646
-0.00382291
-0.00291687
-0.00156336
0.000217478
0.00240232
0.00496457
0.00787444
0.011099
0.014602
0.0183445
0.0222844
0.0263769
0.0305747
0.0348284
0.0390864
0.0432961
0.0474039
0.0513558
0.0550984
0.0585795
0.0617487
0.0645588
0.0669661
0.0689316
0.0704216
0.0714088
0.0718723
0.0717984
0.0711806
0.0700198
0.0683232
0.0661043
0.0633791
0.0601653
0.0565126
0.0524862
0.0477251
0.0416253
0.0264688
0.0195487
0.0142805
0.00994935
0.00611105
0.00281103
7.52599e-05
-0.00210586
-0.00374175
-0.00484094
-0.00541398
-0.00547373
-0.0050354
-0.00411658
-0.00273735
-0.000920392
0.00130902
0.00392288
0.00689044
0.0101782
0.0137497
0.0175658
0.0215846
0.0257615
0.0300491
0.0343981
0.038757
0.0430725
0.0472905
0.0513559
0.0552141
0.0588108
0.0620936
0.0650124
0.0675204
0.0695749
0.0711382
0.0721784
0.0726697
0.0725936
0.071938
0.0706984
0.0688768
0.0664814
0.0635234
0.060016
0.0560088
0.0515706
0.0462977
0.0395187
0.0273989
0.0198228
0.0140698
0.00935638
0.00519387
0.00162836
-0.0013163
-0.00365582
-0.00540572
-0.00658025
-0.00719539
-0.00726896
-0.00682057
-0.0058716
-0.00444536
-0.00256713
-0.000264279
0.00243361
0.0054946
0.00888435
0.012566
0.0164999
0.020644
0.0249534
0.0293807
0.0338761
0.0383875
0.0428611
0.0472414
0.0514721
0.0554964
0.059258
0.0627014
0.0657735
0.0684235
0.0706045
0.0722744
0.0733961
0.0739388
0.0738785
0.0731978
0.0718867
0.0699423
0.0673683
0.0641717
0.0603624
0.0559913
0.0511322
0.0453396
0.0378756
0.0276723
0.0194407
0.0132021
0.00810508
0.00361679
-0.000215236
-0.00336866
-0.00586464
-0.00772426
-0.00896709
-0.00961419
-0.00968811
-0.00921273
-0.00821318
-0.00671596
-0.00474908
-0.00234208
0.000473717
0.00366503
0.00719649
0.0110304
0.0151268
0.0194429
0.0239334
0.0285506
0.0332438
0.0379603
0.042645
0.047241
0.0516902
0.0559333
0.0599113
0.0635655
0.0668386
0.0696758
0.0720254
0.0738399
0.0750771
0.0757003
0.0756797
0.0749925
0.0736233
0.0715643
0.0688149
0.0653785
0.0612625
0.0565202
0.0512309
0.0449078
0.0367457
0.0272267
0.0183355
0.0116087
0.00612668
0.00131249
-0.00278462
-0.00614343
-0.00879021
-0.0107513
-0.0120514
-0.0127163
-0.0127734
-0.0122506
-0.0111769
-0.00958202
-0.00749671
-0.00495282
-0.00198356
0.00137631
0.00509026
0.00911972
0.0134238
0.0179593
0.0226803
0.0275381
0.0324815
0.0374565
0.0424066
0.0472733
0.051996
0.056513
0.0607618
0.06468
0.068206
0.0712799
0.0738449
0.0758477
0.0772398
0.0779786
0.078028
0.0773592
0.0759511
0.0737911
0.0708744
0.0672012
0.0627765
0.0576566
0.0519274
0.0450597
0.0361793
0.0259984
0.0164388
0.00921936
0.00335085
-0.00178838
-0.00614717
-0.00970522
-0.0124938
-0.0145445
-0.0158869
-0.0165518
-0.0165711
-0.0159771
-0.0148024
-0.0130802
-0.0108442
-0.00812847
-0.00496832
-0.00140007
0.00253847
0.00680769
0.0113659
0.016169
0.0211705
0.0263208
0.0315676
0.0368557
0.0421272
0.0473212
0.052375
0.0572236
0.0618009
0.0660402
0.0698751
0.0732402
0.0760728
0.078313
0.0799059
0.0808017
0.0809577
0.0803385
0.0789171
0.0766753
0.0736044
0.0697009
0.0649682
0.0594654
0.0532857
0.045856
0.0362299
0.0239208
0.01368
0.00596126
-0.000295624
-0.00575828
-0.0103736
-0.0141222
-0.0170405
-0.0191654
-0.0205314
-0.0211746
-0.0211314
-0.0204386
-0.0191329
-0.0172508
-0.0148289
-0.011904
-0.0085135
-0.00469528
-0.000488574
0.00406594
0.00892566
0.0140457
0.0193787
0.0248742
0.030479
0.0361364
0.0417867
0.047367
0.0528118
0.0580527
0.0630198
0.0676415
0.0718461
0.0755623
0.0787205
0.0812538
0.0830998
0.0842011
0.0845073
0.0839758
0.0825729
0.0802746
0.0770674
0.0729444
0.0679065
0.0620164
0.0553748
0.0473622
0.0369565
0.0209225
0.00998377
0.0017575
-0.00489002
-0.0106738
-0.0155388
-0.0194668
-0.0224996
-0.0246795
-0.0260468
-0.0266424
-0.0265081
-0.0256853
-0.0242147
-0.0221366
-0.0194909
-0.016317
-0.0126543
-0.00854256
-0.00402244
0.000864309
0.00607418
0.0115615
0.0172782
0.0231729
0.0291914
0.0352756
0.0413642
0.0473919
0.0532903
0.0589877
0.0644097
0.0694797
0.07412
0.0782528
0.0818011
0.0846901
0.0868489
0.0882116
0.0887193
0.0883211
0.0869756
0.0846524
0.0813324
0.0770045
0.0716672
0.0653865
0.0582707
0.0496513
0.0384256
0.0169269
0.00526987
-0.00347408
-0.0105148
-0.0166165
-0.0217225
-0.0258161
-0.0289448
-0.0311569
-0.0324986
-0.0330168
-0.0327584
-0.03177
-0.0300968
-0.0277832
-0.0248724
-0.0214065
-0.0174273
-0.0129765
-0.00809588
-0.00282843
0.00278155
0.00868776
0.0148413
0.0211904
0.0276796
0.0342498
0.0408378
0.0473763
0.053794
0.0600152
0.0659613
0.0715502
0.0766978
0.0813191
0.0853289
0.0886437
0.0911831
0.0928716
0.0936404
0.0934293
0.0921881
0.0898786
0.0864753
0.0819622
0.0763344
0.0696612
0.0620585
0.0528053
0.0407132
0.0118505
-0.00054869
-0.00982211
-0.0172587
-0.0236743
-0.0290106
-0.0332528
-0.036455
-0.0386722
-0.039957
-0.0403627
-0.0399424
-0.0387482
-0.0368304
-0.0342376
-0.0310166
-0.0272127
-0.02287
-0.018032
-0.0127419
-0.00704373
-0.000982339
0.00539541
0.0120402
0.0188998
0.0259179
0.0330346
0.0401852
0.0473001
0.0543052
0.0611214
0.067665
0.0738484
0.0795809
0.0847692
0.0893195
0.0931384
0.096135
0.0982229
0.099322
0.0993612
0.09828
0.0960309
0.092581
0.0879078
0.0820022
0.0749365
0.0668342
0.0569176
0.0439064
0.00560233
-0.0075666
-0.0173829
-0.0252182
-0.0319421
-0.0374956
-0.041866
-0.0451148
-0.0473047
-0.0484958
-0.0487486
-0.048123
-0.0466775
-0.0444679
-0.0415475
-0.0379672
-0.0337756
-0.0290192
-0.0237435
-0.0179929
-0.0118122
-0.00524673
0.00165636
0.00884769
0.0162748
0.0238812
0.0316061
0.0393837
0.0471428
0.0548064
0.0622917
0.0695106
0.0763695
0.0827703
0.0886115
0.0937894
0.0981998
0.10174
0.104311
0.10582
0.106183
0.105328
0.103196
0.0997439
0.0949425
0.0887767
0.081321
0.0727068
0.0620948
0.0481061
-0.00191734
-0.0158876
-0.0262619
-0.0344984
-0.0415236
-0.0472778
-0.0517516
-0.0550149
-0.0571392
-0.0581933
-0.058246
-0.0573652
-0.0556165
-0.0530619
-0.0497603
-0.0457669
-0.0411337
-0.0359101
-0.0301432
-0.0238788
-0.0171621
-0.0100387
-0.00255555
0.00523829
0.0132906
0.0215452
0.0299411
0.0384116
0.0468843
0.0552797
0.063512
0.071488
0.0791083
0.0862674
0.0928547
0.098756
0.103855
0.108036
0.111185
0.113196
0.113969
0.113417
0.111469
0.10807
0.10318
0.0967776
0.0889382
0.0798008
0.0684592
0.0534285
-0.0108181
-0.0256258
-0.0365751
-0.0452149
-0.0525321
-0.0584667
-0.0630136
-0.0662526
-0.0682657
-0.0691316
-0.0689291
-0.0677354
-0.065624
-0.0626645
-0.0589217
-0.0544558
-0.0493227
-0.0435744
-0.0372598
-0.0304259
-0.023118
-0.0153816
-0.00726292
0.00118987
0.00992548
0.0188885
0.0280184
0.0372485
0.0465055
0.0557083
0.0647678
0.0735867
0.0820597
0.0900734
0.0975078
0.104237
0.110133
0.115063
0.118899
0.121517
0.122799
0.122642
0.120957
0.117677
0.112749
0.106141
0.0979288
0.0882585
0.0761514
0.0600078
-0.0212208
-0.0369079
-0.0484512
-0.0574959
-0.0650926
-0.0711822
-0.075765
-0.0789328
-0.0807798
-0.0813968
-0.0808744
-0.0793003
-0.0767581
-0.0733255
-0.0690743
-0.0640702
-0.0583732
-0.0520384
-0.0451163
-0.0376546
-0.0296987
-0.0212932
-0.012483
-0.0033148
0.00616191
0.0158933
0.0258202
0.0358768
0.0459895
0.0560764
0.066046
0.075797
0.0852185
0.0941894
0.10258
0.110252
0.117063
0.122865
0.12751
0.130854
0.132761
0.133106
0.131781
0.1287
0.123795
0.117021
0.108453
0.0982432
0.085333
0.0679989
-0.0332597
-0.0498748
-0.0620339
-0.0714838
-0.0793437
-0.0855562
-0.0901292
-0.0931684
-0.094783
-0.0950785
-0.0941594
-0.0921264
-0.0890742
-0.0850905
-0.080255
-0.0746396
-0.0683089
-0.0613208
-0.0537277
-0.0455775
-0.0369151
-0.0277835
-0.0182258
-0.00828607
0.00198879
0.0125476
0.0233336
0.0342827
0.0453225
0.0563708
0.0673347
0.07811
0.0885803
0.0986171
0.108081
0.11682
0.124677
0.131486
0.137078
0.141287
0.143953
0.144925
0.144073
0.141288
0.136482
0.129595
0.120696
0.109943
0.0961907
0.077581
-0.0470844
-0.0646853
-0.0774849
-0.0873388
-0.0954403
-0.101735
-0.106241
-0.109081
-0.110383
-0.110269
-0.108862
-0.106277
-0.102623
-0.097999
-0.0924932
-0.0861849
-0.0791435
-0.07143
-0.0630982
-0.0541961
-0.0447671
-0.0348522
-0.0244914
-0.0137251
-0.00259666
0.00884679
0.020552
0.0324581
0.0444949
0.0565816
0.0686249
0.0805183
0.0921412
0.103358
0.114019
0.123961
0.133008
0.140974
0.147669
0.152901
0.156479
0.158227
0.157982
0.155611
0.150998
0.144064
0.134869
0.123575
0.10894
0.0889609
-0.0628636
-0.0815192
-0.0949879
-0.105242
-0.113556
-0.119882
-0.124249
-0.126802
-0.127692
-0.127064
-0.125059
-0.121813
-0.11745
-0.112081
-0.105807
-0.0987146
-0.0908777
-0.0823608
-0.0732186
-0.0634983
-0.0532416
-0.0424861
-0.0312675
-0.0196216
-0.00758655
0.00479582
0.0174774
0.030402
0.0435035
0.0567036
0.0699105
0.0830168
0.0958986
0.108415
0.120405
0.131694
0.142087
0.151379
0.159352
0.165785
0.170455
0.173151
0.173675
0.171859
0.167556
0.160659
0.151216
0.139389
0.123831
0.102379
-0.0807888
-0.100583
-0.114754
-0.125402
-0.13389
-0.140179
-0.144316
-0.146473
-0.14683
-0.145558
-0.142824
-0.138786
-0.133587
-0.127355
-0.120202
-0.112222
-0.103496
-0.0940909
-0.084062
-0.0734552
-0.0623087
-0.0506557
-0.0385266
-0.025951
-0.0129599
0.0004116
0.0141223
0.0281227
0.0423523
0.0567377
0.07119
0.0856032
0.0998516
0.113789
0.127248
0.140038
0.151949
0.16275
0.172198
0.180036
0.186005
0.189852
0.191337
0.190248
0.186399
0.179646
0.17002
0.157678
0.141155
0.118113
-0.10108
-0.122115
-0.137027
-0.148056
-0.156667
-0.162832
-0.166623
-0.168248
-0.16792
-0.165846
-0.162224
-0.157238
-0.151056
-0.143822
-0.135662
-0.12668
-0.116962
-0.106577
-0.0955811
-0.0840169
-0.0719184
-0.0593129
-0.0462234
-0.0326716
-0.0186801
-0.00427493
0.0105117
0.0256389
0.0410544
0.0566917
0.0724674
0.0882787
0.104001
0.119485
0.134555
0.149011
0.162623
0.175137
0.186279
0.195755
0.203263
0.2085
0.211175
0.211022
0.207805
0.201332
0.191609
0.178782
0.161252
0.136489
-0.123994
-0.146398
-0.162096
-0.173486
-0.182149
-0.188076
-0.191373
-0.192291
-0.19109
-0.18802
-0.183317
-0.177199
-0.169859
-0.161462
-0.15215
-0.142037
-0.131213
-0.119751
-0.107703
-0.0951097
-0.0819977
-0.0683869
-0.0542914
-0.0397228
-0.0246929
-0.00921666
0.00668497
0.0229822
0.0396334
0.0565818
0.0737523
0.0910483
0.108348
0.125503
0.142334
0.158627
0.174137
0.188588
0.201669
0.213047
0.22237
0.229278
0.233417
0.234456
0.232091
0.226074
0.216368
0.203102
0.184523
0.157889
-0.149835
-0.173765
-0.190302
-0.202021
-0.21064
-0.216179
-0.218788
-0.218779
-0.21647
-0.212165
-0.206148
-0.198676
-0.189973
-0.180229
-0.1696
-0.158211
-0.146159
-0.133514
-0.120327
-0.106632
-0.0924469
-0.0777823
-0.0626409
-0.0470218
-0.0309239
-0.0143485
0.00269726
0.0201975
0.0381241
0.0564331
0.0750609
0.0939207
0.112898
0.131847
0.150586
0.168896
0.186516
0.203143
0.218437
0.232016
0.243475
0.252384
0.258316
0.260858
0.259624
0.254284
0.244747
0.23111
0.211443
0.182762
-0.178968
-0.204625
-0.222061
-0.234057
-0.242498
-0.247447
-0.249118
-0.2479
-0.244188
-0.238353
-0.230739
-0.221649
-0.211343
-0.200039
-0.187908
-0.175086
-0.161671
-0.147734
-0.133318
-0.11845
-0.103137
-0.0873762
-0.0711568
-0.0544629
-0.0372779
-0.0195866
-0.0013796
0.0173441
0.036573
0.0562795
0.0764154
0.0969076
0.117653
0.138513
0.159309
0.179819
0.199769
0.218836
0.236643
0.252764
0.266727
0.278029
0.286151
0.290579
0.290822
0.286445
0.277279
0.263372
0.24258
0.211646
-0.211839
-0.239476
-0.257877
-0.270072
-0.278148
-0.282237
-0.28264
-0.279851
-0.274365
-0.266638
-0.257084
-0.246063
-0.233877
-0.220769
-0.206929
-0.1925
-0.177581
-0.162238
-0.146506
-0.130397
-0.113907
-0.0970167
-0.0796976
-0.0619165
-0.043638
-0.024828
-0.00545729
0.014495
0.0350376
0.0561631
0.0778428
0.100022
0.122614
0.145494
0.168491
0.191386
0.213897
0.235684
0.256337
0.27538
0.292275
0.30643
0.31722
0.324009
0.326167
0.323125
0.314601
0.300566
0.278619
0.245185
-0.249006
-0.278944
-0.298381
-0.310649
-0.318098
-0.320959
-0.31966
-0.314836
-0.307109
-0.297042
-0.285136
-0.271815
-0.257426
-0.242242
-0.226465
-0.210245
-0.193675
-0.176812
-0.159679
-0.142271
-0.124565
-0.106523
-0.0880958
-0.0692295
-0.0498669
-0.0299519
-0.0094324
0.0117357
0.0335849
0.056132
0.0793725
0.103276
0.127777
0.152771
0.178105
0.203566
0.228875
0.253679
0.27754
0.299935
0.320254
0.337808
0.351846
0.361581
0.366213
0.364989
0.357474
0.343518
0.320399
0.284165
-0.291175
-0.323826
-0.344366
-0.35651
-0.362957
-0.364088
-0.360512
-0.353053
-0.342497
-0.329542
-0.314791
-0.29874
-0.281783
-0.264218
-0.24626
-0.228054
-0.209686
-0.191196
-0.172587
-0.153832
-0.134886
-0.115686
-0.0961593
-0.0762279
-0.0558094
-0.0348225
-0.0131895
0.00916055
0.0322876
0.0562366
0.0810326
0.106674
0.133126
0.160312
0.188102
0.216303
0.244647
0.272779
0.300241
0.326467
0.350776
0.372372
0.390361
0.403773
0.411592
0.412827
0.406821
0.393244
0.368959
0.329552
-0.339261
-0.375152
-0.396845
-0.408556
-0.413459
-0.41217
-0.405552
-0.394683
-0.380562
-0.36405
-0.345868
-0.32659
-0.306655
-0.286382
-0.265986
-0.245601
-0.225294
-0.205081
-0.184936
-0.164805
-0.144614
-0.124271
-0.103676
-0.0827211
-0.061297
-0.0392941
-0.0166059
0.00686813
0.0312192
0.0565249
0.0828444
0.110212
0.13863
0.168058
0.198402
0.229502
0.261113
0.292891
0.324373
0.35496
0.383905
0.410301
0.433094
0.451098
0.463026
0.467569
0.463765
0.451007
0.425606
0.38256
-0.394476
-0.434283
-0.457132
-0.467919
-0.470491
-0.465824
-0.455142
-0.439864
-0.421258
-0.400381
-0.378084
-0.355017
-0.331657
-0.308329
-0.285238
-0.26249
-0.240122
-0.218111
-0.196396
-0.174887
-0.153472
-0.132028
-0.110419
-0.0885086
-0.0661549
-0.0432178
-0.0195592
0.00495392
0.030447
0.0570344
0.0848146
0.113864
0.14423
0.175919
0.208887
0.243018
0.27811
0.313851
0.34979
0.385317
0.419629
0.451716
0.480349
0.504093
0.521323
0.530319
0.529687
0.518405
0.492015
0.444744
-0.458457
-0.503051
-0.526952
-0.53603
-0.535116
-0.525733
-0.509622
-0.488651
-0.464422
-0.438216
-0.411016
-0.383541
-0.356284
-0.329555
-0.303525
-0.278257
-0.253734
-0.229886
-0.206603
-0.183747
-0.161165
-0.138692
-0.116158
-0.0933891
-0.0702112
-0.0464506
-0.0219357
0.00350136
0.0300232
0.0577841
0.0869265
0.117576
0.149832
0.18376
0.219378
0.256636
0.295394
0.335398
0.37624
0.417324
0.457821
0.496633
0.532357
0.563281
0.587372
0.602374
0.606293
0.597479
0.570376
0.518132
-0.533477
-0.583967
-0.6086
-0.614703
-0.60859
-0.592621
-0.569258
-0.540955
-0.509711
-0.477046
-0.444064
-0.41152
-0.379891
-0.349439
-0.320266
-0.292365
-0.265646
-0.239972
-0.215169
-0.191044
-0.167392
-0.144003
-0.120668
-0.0971725
-0.0733085
-0.0488671
-0.023642
0.0025712
0.0299739
0.058763
0.0891292
0.121252
0.155292
0.191386
0.229628
0.270054
0.312615
0.357145
0.403319
0.450599
0.498176
0.5449
0.589218
0.629123
0.662111
0.685244
0.695699
0.690883
0.663616
0.605456
-0.622794
-0.680553
-0.705159
-0.70623
-0.692361
-0.667183
-0.634149
-0.596445
-0.556515
-0.516104
-0.476393
-0.438117
-0.401678
-0.367237
-0.334788
-0.304215
-0.275331
-0.247908
-0.221696
-0.196435
-0.171861
-0.147716
-0.123744
-0.0996929
-0.0753167
-0.0503718
-0.0246166
0.00218977
0.0302883
0.0599204
0.0913271
0.124747
0.16041
0.198532
0.239303
0.282864
0.32929
0.378542
0.430429
0.484534
0.540134
0.596101
0.650786
0.701913
0.746456
0.78064
0.800524
0.802107
0.775739
0.710512
-0.731244
-0.797862
-0.820809
-0.813468
-0.788014
-0.749958
-0.704072
-0.654401
-0.603837
-0.554277
-0.50688
-0.462263
-0.420668
-0.382081
-0.346332
-0.313154
-0.282232
-0.253226
-0.225794
-0.199597
-0.17431
-0.149618
-0.12522
-0.100824
-0.0761472
-0.050912
-0.0248425
0.00233746
0.0309078
0.0611542
0.0933692
0.127853
0.16491
0.204848
0.247963
0.294529
0.344773
0.398836
0.45672
0.518212
0.582777
0.649424
0.716521
0.781612
0.84116
0.890418
0.923981
0.935789
0.912369
0.838796
-0.86633
-0.943293
-0.961216
-0.939886
-0.8971
-0.841079
-0.778231
-0.71351
-0.650139
-0.589997
-0.534045
-0.482627
-0.435699
-0.392982
-0.35407
-0.318499
-0.285792
-0.255476
-0.227102
-0.200249
-0.17452
-0.149547
-0.124981
-0.100493
-0.0757663
-0.0504902
-0.0243581
0.0029389
0.0317169
0.0623036
0.0950421
0.130294
0.168443
0.209891
0.255058
0.30437
0.358239
0.417036
0.481033
0.550323
0.624694
0.703486
0.785254
0.867581
0.946546
1.01639
1.06991
1.09812
1.0816
0.99866
-1.04031
-1.1279
-1.134
-1.08946
-1.02078
-0.939846
-0.854882
-0.771573
-0.693149
-0.621134
-0.556002
-0.497603
-0.445442
-0.398859
-0.357138
-0.31957
-0.285481
-0.254252
-0.225319
-0.198169
-0.17234
-0.147407
-0.122981
-0.0986964
-0.0742061
-0.0491734
-0.0232647
0.0038568
0.0325387
0.0631461
0.0960686
0.131727
0.170581
0.213131
0.259927
0.311561
0.368666
0.431889
0.501853
0.579073
0.663827
0.756125
0.854876
0.958166
1.06204
1.15993
1.24265
1.2973
1.29535
1.20351
-1.27442
-1.36839
-1.34905
-1.26615
-1.15901
-1.04397
-0.930754
-0.825122
-0.729632
-0.64488
-0.570425
-0.505321
-0.448428
-0.398582
-0.354682
-0.315729
-0.280839
-0.249232
-0.220227
-0.193227
-0.167704
-0.143189
-0.119253
-0.0955043
-0.0715716
-0.0470977
-0.0217295
0.00489111
0.033136
0.0634003
0.0961128
0.131746
0.170828
0.213956
0.261807
0.315149
0.37485
0.441877
0.517279
0.602133
0.697449
0.803994
0.92187
1.05006
1.18538
1.32113
1.44651
1.54383
1.57138
1.4763
-1.60766
-1.69014
-1.61794
-1.47215
-1.30879
-1.14819
-1.0001
-0.868852
-0.755101
-0.657635
-0.574525
-0.503677
-0.443104
-0.391024
-0.345902
-0.306429
-0.271502
-0.240192
-0.211711
-0.185388
-0.160643
-0.136969
-0.113914
-0.0910655
-0.0680393
-0.0444661
-0.0199817
0.00578375
0.0332171
0.0627335
0.0947893
0.129897
0.16864
0.211698
0.259862
0.314069
0.375422
0.445228
0.525011
0.616522
0.721694
0.842522
0.980753
1.1373
1.31105
1.49685
1.68381
1.84992
1.9364
1.85868
-2.11211
-2.13086
-1.95214
-1.70492
-1.46146
-1.24241
-1.05368
-0.895179
-0.763705
-0.655065
-0.565183
-0.490481
-0.427962
-0.375179
-0.330149
-0.291274
-0.257261
-0.227054
-0.199786
-0.174735
-0.151287
-0.128917
-0.107161
-0.0856012
-0.0638498
-0.0415373
-0.0182991
0.00623567
0.032457
0.0607868
0.0916941
0.125713
0.163465
0.205684
0.253251
0.307238
0.36896
0.440039
0.52248
0.61876
0.731896
0.865474
1.02355
1.21021
1.42847
1.67797
1.95184
2.2275
2.42956
2.42618
-2.91858
-2.74072
-2.35932
-1.95493
-1.60159
-1.31169
-1.07945
-0.895278
-0.749342
-0.633138
-0.539848
-0.464196
-0.402151
-0.35064
-0.307309
-0.270338
-0.238303
-0.210077
-0.184752
-0.161588
-0.139967
-0.119363
-0.0993199
-0.0794281
-0.0593109
-0.0386099
-0.016972
0.00596286
0.0305745
0.0572765
0.0865329
0.118878
0.154941
0.19548
0.241422
0.293921
0.354437
0.424835
0.50753
0.605672
0.72339
0.866084
1.04072
1.25597
1.52185
1.84823
2.24034
2.68425
3.10182
3.31306
-4.32386
-3.56018
-2.81532
-2.18889
-1.69862
-1.3322
-1.06113
-0.858871
-0.70591
-0.58846
-0.496812
-0.424134
-0.365577
-0.317655
-0.277812
-0.244137
-0.21518
-0.189814
-0.167147
-0.146461
-0.127163
-0.108755
-0.0908048
-0.0729279
-0.0547717
-0.0360012
-0.0162869
0.00470805
0.0273397
0.0519974
0.0791208
0.109219
0.142899
0.180898
0.224133
0.273763
0.331288
0.398679
0.47858
0.574596
0.691738
0.837071
1.02064
1.25668
1.56539
1.97444
2.51361
3.19351
3.99326
4.82411
-7.15786
-4.55841
-3.1391
-2.25255
-1.64491
-1.2339
-0.95421
-0.757702
-0.615089
-0.50873
-0.427469
-0.364022
-0.313504
-0.272543
-0.238737
-0.210329
-0.186001
-0.164741
-0.145755
-0.128405
-0.112167
-0.0965995
-0.081322
-0.065996
-0.0503107
-0.033971
-0.0166854
0.00184193
0.0219258
0.0439104
0.0681848
0.0952008
0.125498
0.159734
0.198732
0.243542
0.295534
0.356538
0.429056
0.516605
0.624272
0.759639
0.934329
1.16669
1.48708
1.94574
2.61215
3.57088
5.07637
7.7952
-12.0263
-5.64119
-2.9748
-1.87577
-1.27856
-0.923718
-0.703968
-0.558065
-0.454865
-0.378612
-0.320482
-0.275078
-0.238897
-0.209542
-0.185302
-0.164914
-0.147418
-0.132067
-0.118268
-0.10554
-0.0934814
-0.0817529
-0.0700582
-0.0581321
-0.0457294
-0.0326165
-0.0185639
-0.00333501
0.0133186
0.0316682
0.0520187
0.0747219
0.100194
0.128939
0.161582
0.198909
0.241941
0.292024
0.35099
0.421406
0.507015
0.613554
0.750337
0.933764
1.19579
1.60025
2.26363
3.4575
6.24096
12.7518
)
;

boundaryField
{
    movingWall
    {
        type            zeroGradient;
    }
    fixedWalls
    {
        type            zeroGradient;
    }
    frontAndBack
    {
        type            empty;
    }
}


// ************************************************************************* //
