/*--------------------------------*- C++ -*----------------------------------*\
  =========                 |
  \\      /  F ield         | OpenFOAM: The Open Source CFD Toolbox
   \\    /   O peration     | Website:  https://openfoam.org
    \\  /    A nd           | Version:  7
     \\/     M anipulation  |
\*---------------------------------------------------------------------------*/
FoamFile
{
    version     2.0;
    format      ascii;
    class       volScalarField;
    location    "0.0474";
    object      p;
}
// * * * * * * * * * * * * * * * * * * * * * * * * * * * * * * * * * * * * * //

dimensions      [0 2 -2 0 0 0 0];

internalField   nonuniform List<scalar> 
2500
(
-1.05174e-05
-0.0005258
-0.0020902
-0.00438531
-0.00706686
-0.0098348
-0.0124668
-0.0147881
-0.0166669
-0.0180081
-0.0187455
-0.018837
-0.0182604
-0.0170103
-0.0150952
-0.0125358
-0.00936291
-0.00561627
-0.00134316
0.00340257
0.00856138
0.0140688
0.0198561
0.0258511
0.0319787
0.0381618
0.0443213
0.0503779
0.0562522
0.0618657
0.0671424
0.0720092
0.0763976
0.0802453
0.083497
0.0861067
0.0880391
0.0892716
0.0897962
0.089622
0.0887775
0.0873134
0.0853067
0.0828644
0.0801296
0.0772869
0.0745678
0.0722648
0.0707391
0.0702742
0.000489691
-1.81501e-05
-0.00128543
-0.00310654
-0.00521155
-0.00739249
-0.00947288
-0.0113068
-0.0127792
-0.0138027
-0.0143139
-0.0142701
-0.0136465
-0.0124333
-0.0106341
-0.00826393
-0.00534767
-0.00191871
0.00198212
0.00630753
0.0110046
0.0160157
0.021279
0.0267292
0.0322983
0.0379165
0.0435122
0.0490137
0.0543492
0.0594486
0.0642435
0.0686693
0.0726655
0.0761777
0.0791586
0.0815695
0.0833821
0.0845797
0.0851594
0.085134
0.0845335
0.0834079
0.0818293
0.0798946
0.077728
0.0754835
0.0733442
0.0715194
0.0702696
0.0698093
0.00204786
0.00124575
-3.01863e-05
-0.00167386
-0.00351678
-0.00539646
-0.00717085
-0.00872004
-0.00994592
-0.0107715
-0.0111394
-0.0110096
-0.0103578
-0.0091733
-0.00745738
-0.00522197
-0.00248827
0.000714377
0.00434952
0.00837448
0.0127412
0.0173969
0.0222848
0.027345
0.0325148
0.0377294
0.0429231
0.0480296
0.0529828
0.0577182
0.0621732
0.0662886
0.0700097
0.0732874
0.0760792
0.0783513
0.0800791
0.0812493
0.0818611
0.0819279
0.0814789
0.0805604
0.0792376
0.0775959
0.0757417
0.0738022
0.071925
0.0702738
0.0690166
0.0682884
0.00436564
0.00307744
0.00159017
-8.07896e-05
-0.00185992
-0.00361919
-0.00524415
-0.00663841
-0.00772106
-0.00842688
-0.00870626
-0.00852417
-0.00785887
-0.00670055
-0.00505017
-0.00291826
-0.000323908
0.00270622
0.00613876
0.00993445
0.0140489
0.0184332
0.0230346
0.0277973
0.0326627
0.0375705
0.0424592
0.0472667
0.0519316
0.0563932
0.0605935
0.0644773
0.0679938
0.0710973
0.0737489
0.0759172
0.07758
0.0787251
0.0793523
0.0794736
0.0791153
0.0783186
0.0771404
0.0756542
0.0739491
0.0721292
0.0703148
0.0686369
0.0671782
0.0659693
0.0071283
0.00523352
0.0034297
0.00162057
-0.000204793
-0.00194593
-0.00351172
-0.00482739
-0.00582855
-0.00646215
-0.00668723
-0.0064747
-0.00580657
-0.00467508
-0.00308188
-0.00103716
0.00144119
0.00432832
0.00759319
0.0111993
0.0151052
0.0192652
0.02363
0.0281473
0.0327621
0.0374178
0.0420564
0.0466196
0.0510494
0.0552888
0.059283
0.06298
0.0663318
0.0692956
0.0718343
0.0739185
0.0755267
0.0766471
0.0772784
0.0774305
0.0771257
0.0763993
0.0752996
0.073888
0.0722375
0.0704313
0.0685672
0.0667503
0.0649811
0.0631791
0.0100791
0.00753194
0.00534566
0.00331974
0.00136511
-0.000438553
-0.00201899
-0.00332031
-0.00429325
-0.00489634
-0.00509745
-0.00487391
-0.00421218
-0.00310733
-0.00156254
0.000411562
0.00279743
0.00557129
0.00870372
0.0121602
0.0159017
0.0198851
0.0240638
0.0283884
0.032807
0.0372657
0.0417098
0.0460837
0.0503322
0.0544012
0.0582381
0.0617933
0.0650209
0.0678794
0.0703333
0.0723534
0.0739185
0.075016
0.0756425
0.0758052
0.0755219
0.0748212
0.0737432
0.0723381
0.0706645
0.0687876
0.0667875
0.0647501
0.0626012
0.0601584
0.0130299
0.00981955
0.00721254
0.004915
0.0027694
0.000840762
-0.000813235
-0.00215268
-0.00314161
-0.0037492
-0.00395178
-0.0037332
-0.0030847
-0.00200472
-0.000498542
0.00142206
0.00373927
0.00642972
0.00946489
0.0128117
0.0164327
0.0202869
0.0243299
0.0285143
0.0327907
0.0371075
0.0414123
0.0456516
0.0497724
0.0537224
0.0574507
0.0609092
0.0640529
0.0668412
0.0692387
0.0712161
0.0727512
0.0738298
0.0744462
0.0746037
0.0743153
0.0736036
0.0725004
0.0710459
0.0692866
0.0672728
0.0650715
0.0627557
0.0601858
0.0570889
0.0158354
0.0119683
0.00892108
0.00631641
0.00393704
0.00183826
6.68556e-05
-0.00135049
-0.00238931
-0.00302829
-0.0032516
-0.00304941
-0.00241786
-0.00135899
0.000119363
0.00200384
0.0042758
0.00691172
0.00988349
0.0131588
0.0167014
0.0204717
0.0244268
0.0285211
0.0327068
0.0369341
0.0411521
0.0453092
0.0493534
0.0532337
0.0569003
0.0603055
0.0634047
0.0661571
0.0685269
0.0704838
0.0720039
0.0730707
0.0736753
0.0738174
0.0735048
0.0727542
0.0715899
0.0700436
0.0681513
0.0659517
0.0635026
0.0608692
0.0578552
0.054107
0.0183836
0.0138721
0.0103758
0.00744153
0.00479924
0.00249833
0.000577727
-0.000946727
-0.00206035
-0.00275019
-0.00300759
-0.00282867
-0.00221438
-0.00117051
0.000292339
0.00215885
0.00440916
0.00701916
0.00996066
0.0132016
0.0167066
0.0204367
0.0243501
0.0284025
0.0325472
0.0367356
0.0409178
0.045043
0.0490604
0.0529191
0.0565696
0.0599643
0.0630581
0.0658094
0.0681812
0.0701413
0.0716637
0.0727289
0.0733248
0.0734467
0.0730977
0.0722885
0.0710369
0.0693672
0.0673069
0.0648858
0.0621556
0.059178
0.0557067
0.0513156
0.0205859
0.015442
0.0114927
0.00821447
0.0052895
0.00276417
0.000671875
-0.000980363
-0.00218614
-0.00293984
-0.00323926
-0.00308609
-0.0024859
-0.00144826
1.32972e-05
0.00188128
0.0041343
0.00674728
0.00969154
0.012935
0.0164423
0.0201751
0.0240922
0.0281499
0.0323021
0.036501
0.0406973
0.0448405
0.0488798
0.0527646
0.0564447
0.0598719
0.063
0.0657861
0.068191
0.0701804
0.0717254
0.0728033
0.073398
0.0735005
0.073109
0.0722288
0.0708719
0.0690563
0.0668026
0.0641338
0.0610983
0.0577574
0.0538201
0.0487929
0.0223691
0.0166014
0.0121966
0.00856491
0.00534384
0.00257884
0.000299606
-0.00149413
-0.002803
-0.00362781
-0.00397219
-0.00384302
-0.00325033
-0.00220739
-0.000730765
0.00115971
0.00344088
0.0060864
0.00906678
0.0123495
0.015899
0.019677
0.0236426
0.0277521
0.03196
0.0362184
0.0404782
0.0446887
0.0487989
0.0527574
0.0565133
0.0600169
0.0632204
0.0660787
0.0685503
0.0705979
0.0721892
0.0732978
0.0739035
0.0739928
0.0735589
0.0726021
0.071129
0.0691523
0.0666872
0.0637515
0.0603927
0.0566736
0.052262
0.0466008
0.0236698
0.0172818
0.0124188
0.00842641
0.00489993
0.00188513
-0.000590724
-0.00253401
-0.00395145
-0.00484956
-0.00523731
-0.00512643
-0.00453122
-0.00346861
-0.00195823
-2.24172e-05
0.00231371
0.00502232
0.00807283
0.0114319
0.0150637
0.0189295
0.0229881
0.027196
0.0315073
0.0358741
0.0402468
0.0445744
0.0488047
0.0528855
0.0567642
0.0603895
0.0637112
0.0666817
0.0692563
0.0713942
0.0730595
0.0742214
0.0748552
0.0749426
0.0744722
0.0734392
0.0718452
0.0696985
0.06701
0.0637933
0.0600966
0.0559865
0.0510911
0.0447909
0.0244298
0.0174193
0.0120936
0.00773454
0.00389594
0.000624859
-0.00205297
-0.00414923
-0.00567608
-0.00664522
-0.00707058
-0.00696851
-0.00635741
-0.00525789
-0.00369265
-0.00168665
0.000732863
0.00353637
0.00669197
0.0101654
0.0139198
0.0179162
0.0221129
0.0264658
0.0309286
0.035453
0.0399886
0.0444834
0.0488841
0.0531368
0.0571871
0.0609813
0.0644666
0.0675919
0.0703091
0.0725734
0.0743444
0.0755868
0.0762709
0.0763735
0.075878
0.0747747
0.073061
0.0707407
0.0678211
0.0643132
0.0602666
0.0557528
0.0503612
0.0434096
0.0245928
0.0169518
0.0111567
0.00642521
0.00226936
-0.00126183
-0.00414357
-0.00639238
-0.00802545
-0.00905934
-0.00951269
-0.00940631
-0.0087627
-0.00760606
-0.00596231
-0.0038591
-0.00132595
0.00160576
0.00490261
0.00852912
0.0124476
0.016618
0.0209982
0.0255433
0.0302064
0.0349382
0.0396874
0.0444008
0.0490234
0.0534994
0.0577722
0.061785
0.0654819
0.0688082
0.0717114
0.0741424
0.0760556
0.0774106
0.0781725
0.0783127
0.0778092
0.0766474
0.0748201
0.0723273
0.0691731
0.0653664
0.060959
0.0560286
0.0501249
0.0425018
0.0241017
0.0158167
0.00954338
0.00443316
-4.41207e-05
-0.00383723
-0.00692204
-0.00931967
-0.0110522
-0.0121408
-0.0126089
-0.0124816
-0.0117855
-0.0105486
-0.00879997
-0.00657018
-0.00389113
-0.000796218
0.0026795
0.00649913
0.0106239
0.0150128
0.0196226
0.024408
0.0293208
0.034311
0.0393257
0.0443103
0.0492081
0.0539609
0.0585093
0.0627934
0.0667535
0.0703306
0.0734677
0.0761103
0.0782074
0.0797128
0.0805858
0.0807917
0.080303
0.0790998
0.0771702
0.0745105
0.0711218
0.0670108
0.0622327
0.0568714
0.0504362
0.0421137
0.0228967
0.0139494
0.00718625
0.00169053
-0.00311172
-0.00716693
-0.0104515
-0.0129913
-0.014813
-0.0159428
-0.0164087
-0.0162403
-0.0154685
-0.0141251
-0.0122425
-0.00985425
-0.00699484
-0.00369981
-6.01289e-06
0.00404818
0.00842267
0.0130754
0.0179623
0.0230369
0.0282501
0.0335505
0.0388841
0.0441944
0.0494226
0.0545079
0.059388
0.0639994
0.068278
0.0721603
0.0755838
0.0784883
0.0808167
0.0825162
0.0835395
0.0838456
0.0834007
0.082179
0.0801637
0.0773471
0.0737271
0.0693087
0.0641502
0.0583428
0.0513526
0.0422959
0.0209135
0.0112809
0.00401428
-0.00187436
-0.00700463
-0.0113206
-0.0147995
-0.0174717
-0.0193692
-0.0205231
-0.0209662
-0.020733
-0.0198587
-0.0183792
-0.0163304
-0.0137492
-0.0106726
-0.00713842
-0.00318551
0.00114621
0.00581531
0.0107786
0.015991
0.0214048
0.0269701
0.0326342
0.0383414
0.0440337
0.0496498
0.0551262
0.0603973
0.0653955
0.0700523
0.0742987
0.0780666
0.0812891
0.0839023
0.0858463
0.0870661
0.0875136
0.087148
0.085937
0.0838581
0.0808992
0.0770549
0.0723278
0.06678
0.06051
0.0529379
0.0431049
0.0180821
0.00773725
-4.87301e-05
-0.0063383
-0.0117991
-0.0163731
-0.0200382
-0.0228302
-0.0247866
-0.0259436
-0.0263396
-0.026014
-0.0250068
-0.023358
-0.0211078
-0.018296
-0.0149627
-0.0111481
-0.0068931
-0.00223916
0.00277088
0.00809272
0.0136801
0.0194846
0.0254551
0.0315376
0.0376751
0.0438074
0.0498713
0.0558002
0.0615248
0.0669735
0.0720726
0.0767476
0.0809236
0.0845267
0.0874852
0.0897311
0.0912012
0.0918388
0.0915953
0.0904309
0.0883168
0.0852355
0.0811776
0.0761432
0.0701978
0.0634477
0.0552636
0.0446056
0.0143256
0.00323752
-0.00508546
-0.0117843
-0.0175775
-0.0224049
-0.0262458
-0.0291417
-0.0311361
-0.0322714
-0.0325916
-0.0321417
-0.030967
-0.0291121
-0.0266214
-0.0235383
-0.0199059
-0.0157671
-0.0111648
-0.00614205
-0.000743115
0.00498663
0.011
0.0172477
0.0236777
0.0302348
0.0368607
0.0434934
0.0500673
0.0565129
0.0627573
0.0687242
0.0743349
0.0795083
0.0841625
0.0882158
0.0915878
0.0942012
0.0959835
0.0968684
0.096798
0.095724
0.0936099
0.0904321
0.086176
0.0808387
0.0744888
0.0672405
0.0584108
0.046873
0.00955892
-0.00230693
-0.0111862
-0.018303
-0.0244292
-0.0295034
-0.0335065
-0.0364866
-0.0384942
-0.0395781
-0.039789
-0.0391783
-0.0377968
-0.0356945
-0.0329202
-0.0295213
-0.0255444
-0.0210348
-0.0160375
-0.0105975
-0.00476002
0.00142845
0.00792003
0.0146647
0.0216096
0.0286988
0.0358729
0.0430681
0.0502167
0.0572463
0.0640802
0.0706377
0.0768341
0.0825819
0.0877915
0.0923722
0.0962341
0.0992896
0.101455
0.102654
0.102817
0.101886
0.0998154
0.0965738
0.0921406
0.0865084
0.079749
0.0719841
0.0624729
0.0499943
0.0036878
-0.00899388
-0.0184504
-0.0259934
-0.0324522
-0.0377639
-0.041912
-0.0449522
-0.0469427
-0.0479403
-0.0480029
-0.0471891
-0.0455563
-0.0431602
-0.0400547
-0.0362916
-0.0319209
-0.0269907
-0.0215484
-0.0156403
-0.00931295
-0.00261353
0.00440958
0.0117059
0.0192224
0.0269025
0.0346858
0.0425075
0.0502976
0.0579813
0.0654781
0.0727027
0.0795646
0.0859691
0.0918182
0.0970118
0.101449
0.105031
0.107662
0.109252
0.109719
0.108994
0.10702
0.103756
0.0991728
0.0932588
0.0860874
0.0777882
0.0675569
0.0540707
-0.00339222
-0.0169315
-0.0269876
-0.0349648
-0.0417535
-0.0472902
-0.0515616
-0.0546323
-0.0565697
-0.0574394
-0.0573082
-0.0562426
-0.0543075
-0.0515654
-0.0480758
-0.0438952
-0.0390774
-0.0336735
-0.0277331
-0.0213039
-0.0144336
-0.0071696
0.000439463
0.00834321
0.0164886
0.024819
0.0332738
0.041787
0.0502876
0.058698
0.0669345
0.0749072
0.0825195
0.0896695
0.0962502
0.102151
0.10726
0.111463
0.114653
0.116723
0.117578
0.117134
0.11532
0.112084
0.107387
0.10121
0.0936282
0.0847779
0.073786
0.0592194
-0.0117972
-0.02624
-0.0369193
-0.0453381
-0.0524517
-0.0581965
-0.0625639
-0.0656288
-0.0674694
-0.0681619
-0.0677831
-0.0664092
-0.0641137
-0.0609665
-0.0570336
-0.0523767
-0.0470538
-0.0411192
-0.0346244
-0.0276189
-0.0201505
-0.0122671
-0.00401681
0.00455054
0.0133826
0.0224233
0.0316122
0.0408834
0.0501645
0.0593765
0.0684326
0.0772383
0.0856915
0.0936824
0.101095
0.107807
0.113693
0.118626
0.12248
0.125134
0.126474
0.126399
0.124822
0.121677
0.116913
0.1105
0.102513
0.093097
0.0813024
0.0655765
-0.021656
-0.0370532
-0.0483811
-0.0572474
-0.0646774
-0.0706083
-0.0750372
-0.0780516
-0.0797425
-0.0801987
-0.079509
-0.0777609
-0.0750378
-0.0714182
-0.0669754
-0.0617772
-0.0558859
-0.0493591
-0.0422505
-0.0346105
-0.0264874
-0.0179285
-0.00898117
0.0003062
0.00988259
0.0196934
0.0296793
0.0397748
0.0499077
0.0599977
0.0699556
0.0796831
0.0890725
0.0980063
0.106358
0.113995
0.120777
0.126559
0.131199
0.134556
0.136495
0.136894
0.135647
0.13267
0.127896
0.121283
0.112905
0.102911
0.09027
0.0732996
-0.0331126
-0.0495209
-0.0615245
-0.0708428
-0.0785761
-0.0846639
-0.0891109
-0.0920195
-0.0934964
-0.0936452
-0.0925695
-0.0903697
-0.0871409
-0.082972
-0.0779444
-0.0721323
-0.0656031
-0.0584177
-0.0506319
-0.0422968
-0.0334605
-0.0241693
-0.0144688
-0.00440535
0.00597243
0.0166123
0.0274571
0.038443
0.0494988
0.0605438
0.0714876
0.0822288
0.0926542
0.102639
0.112048
0.120733
0.12854
0.135308
0.140871
0.145067
0.147736
0.148733
0.147928
0.145214
0.140503
0.133739
0.124989
0.11441
0.100878
0.0825709
-0.0463279
-0.0638116
-0.0765203
-0.0862927
-0.0943106
-0.100517
-0.104927
-0.107661
-0.108845
-0.108601
-0.107049
-0.104306
-0.100481
-0.0956739
-0.0899762
-0.0834693
-0.0762257
-0.0683099
-0.0597794
-0.0506857
-0.0410762
-0.0309953
-0.0204858
-0.00959112
0.00164367
0.0131699
0.0249338
0.0368747
0.0489232
0.0610002
0.0730148
0.0848633
0.0964285
0.107579
0.118168
0.128036
0.137013
0.144916
0.151558
0.156749
0.160303
0.162044
0.161814
0.159477
0.154922
0.148069
0.138979
0.127813
0.113345
0.0936014
-0.0614831
-0.0801165
-0.0935622
-0.103788
-0.112063
-0.118338
-0.122641
-0.125115
-0.125909
-0.125167
-0.123031
-0.119637
-0.115109
-0.109562
-0.103097
-0.095804
-0.0877616
-0.0790375
-0.0696905
-0.0597721
-0.0493279
-0.0383995
-0.0270263
-0.015247
-0.00310192
0.00936528
0.0221056
0.0350631
0.0481721
0.0613563
0.0745259
0.0875766
0.100388
0.112822
0.124724
0.135921
0.146224
0.15543
0.163325
0.169691
0.174308
0.176966
0.177471
0.175653
0.171367
0.164508
0.155123
0.143374
0.127926
0.106635
-0.0787834
-0.0986538
-0.112872
-0.123545
-0.132042
-0.13832
-0.142426
-0.144532
-0.144815
-0.143448
-0.140598
-0.136422
-0.131067
-0.124661
-0.117318
-0.109137
-0.100203
-0.0905856
-0.0803458
-0.0695338
-0.0581926
-0.0463597
-0.0340695
-0.0213548
-0.00824969
0.00520907
0.0189789
0.0330104
0.0472438
0.0616071
0.0760139
0.090361
0.104526
0.118368
0.131721
0.144402
0.156202
0.166895
0.176241
0.183987
0.189875
0.193653
0.195084
0.193956
0.190083
0.183322
0.173706
0.161389
0.144915
0.121957
-0.0984642
-0.119676
-0.134706
-0.145815
-0.154481
-0.160676
-0.16447
-0.166072
-0.165695
-0.163546
-0.159824
-0.154714
-0.148384
-0.140981
-0.132634
-0.12345
-0.11352
-0.102919
-0.0917053
-0.0799286
-0.0676275
-0.0548343
-0.0415765
-0.0278797
-0.0137696
0.000725562
0.0155725
0.0307296
0.0461453
0.0617547
0.0774769
0.093212
0.108839
0.124213
0.139162
0.153491
0.166973
0.179359
0.190377
0.199735
0.207134
0.212272
0.214859
0.21463
0.211348
0.204822
0.195058
0.182202
0.164657
0.139897
-0.120798
-0.143477
-0.159364
-0.170888
-0.179654
-0.185651
-0.188985
-0.189911
-0.188686
-0.185563
-0.180778
-0.174548
-0.16707
-0.15851
-0.149014
-0.138698
-0.12766
-0.115976
-0.103704
-0.0908894
-0.0775663
-0.0637593
-0.0494876
-0.0347671
-0.0196132
-0.0040434
0.0119199
0.0282463
0.0448946
0.0618098
0.0789192
0.0961294
0.113323
0.130354
0.147049
0.163198
0.178561
0.192863
0.205799
0.217037
0.226225
0.233006
0.237025
0.237951
0.235482
0.229365
0.219568
0.206218
0.18756
0.160843
-0.146103
-0.170406
-0.1872
-0.199106
-0.207873
-0.213522
-0.216204
-0.216232
-0.213927
-0.209591
-0.20351
-0.195941
-0.18711
-0.17721
-0.1664
-0.154809
-0.142538
-0.129665
-0.116246
-0.102321
-0.0879157
-0.0730455
-0.0577189
-0.0419402
-0.025712
-0.00903872
0.00807088
0.0256002
0.0435215
0.0617924
0.0803521
0.099117
0.117977
0.136789
0.155379
0.173529
0.190985
0.207447
0.222575
0.235994
0.247294
0.256051
0.261833
0.264229
0.262851
0.257367
0.247689
0.233913
0.214101
0.185254
-0.174762
-0.200883
-0.21864
-0.230875
-0.239508
-0.244606
-0.246384
-0.245235
-0.241553
-0.235712
-0.228053
-0.218881
-0.208459
-0.197005
-0.184696
-0.17167
-0.158033
-0.143861
-0.129205
-0.114097
-0.0985521
-0.082575
-0.0661605
-0.0492981
-0.0319755
-0.014181
0.00409289
0.0228462
0.0420681
0.0617323
0.0817936
0.102182
0.122799
0.143512
0.164145
0.184482
0.204253
0.223138
0.240763
0.256704
0.270489
0.281615
0.289561
0.293812
0.293875
0.289314
0.279959
0.265859
0.244857
0.213671
-0.207237
-0.235421
-0.254202
-0.266681
-0.274992
-0.279268
-0.279812
-0.277124
-0.271696
-0.263986
-0.254408
-0.243321
-0.231029
-0.217778
-0.203762
-0.189128
-0.173982
-0.158396
-0.142413
-0.126053
-0.109319
-0.0922004
-0.0746747
-0.0567149
-0.0382903
-0.0193707
7.08881e-05
0.0200544
0.0405889
0.0616687
0.0832679
0.105336
0.12779
0.150511
0.173333
0.196041
0.21836
0.239951
0.260407
0.279255
0.295955
0.309916
0.320508
0.327092
0.329039
0.325774
0.317016
0.302738
0.280518
0.246749
-0.244099
-0.274657
-0.294526
-0.30712
-0.314841
-0.317925
-0.316802
-0.312109
-0.304468
-0.294443
-0.282533
-0.269163
-0.25468
-0.239358
-0.223407
-0.206978
-0.190174
-0.173059
-0.155663
-0.137991
-0.120028
-0.101743
-0.0830966
-0.0640399
-0.0445215
-0.0244891
-0.00389354
0.0173084
0.0391495
0.0616482
0.0848033
0.108588
0.132942
0.157767
0.182915
0.208177
0.233282
0.257877
0.28153
0.303717
0.323828
0.341172
0.354994
0.364504
0.368897
0.367417
0.359628
0.345381
0.32193
0.28528
-0.286068
-0.319398
-0.340414
-0.35292
-0.359673
-0.361061
-0.357693
-0.350395
-0.339954
-0.327066
-0.312332
-0.296247
-0.279205
-0.261508
-0.243375
-0.224957
-0.206346
-0.187592
-0.168706
-0.149672
-0.130453
-0.110995
-0.091235
-0.0710999
-0.0505142
-0.0294009
-0.00768506
0.0147027
0.0378228
0.0617221
0.0864286
0.111945
0.138243
0.165249
0.192842
0.220834
0.248962
0.276875
0.304118
0.330127
0.354217
0.375593
0.393353
0.406524
0.414084
0.415034
0.408719
0.39481
0.370138
0.330241
-0.334069
-0.370683
-0.392885
-0.404987
-0.410227
-0.409226
-0.402847
-0.392169
-0.378191
-0.36177
-0.343625
-0.324327
-0.304317
-0.283914
-0.263341
-0.242737
-0.222177
-0.201686
-0.181249
-0.160822
-0.14034
-0.119723
-0.0988766
-0.0777032
-0.0560987
-0.0339586
-0.0111794
0.0123379
0.0366848
0.0619406
0.0881679
0.115406
0.143662
0.172902
0.203039
0.233919
0.265304
0.296853
0.328108
0.35847
0.387189
0.413358
0.435915
0.453668
0.465322
0.469561
0.465419
0.452294
0.426458
0.382855
-0.389322
-0.429879
-0.453259
-0.464459
-0.467393
-0.463042
-0.452628
-0.437571
-0.419135
-0.398373
-0.37613
-0.353056
-0.329627
-0.306171
-0.282897
-0.259921
-0.237286
-0.214982
-0.192957
-0.171133
-0.149409
-0.12767
-0.105792
-0.0836463
-0.0610974
-0.0380102
-0.0142504
0.0103135
0.035807
0.0623463
0.0900332
0.118949
0.149147
0.180641
0.213392
0.247294
0.28215
0.317654
0.353358
0.388653
0.422736
0.454592
0.482986
0.506475
0.523424
0.532103
0.531113
0.519435
0.49257
0.444683
-0.453467
-0.498819
-0.523261
-0.532767
-0.532236
-0.523194
-0.507379
-0.486657
-0.462623
-0.436552
-0.409422
-0.38195
-0.354627
-0.327768
-0.301548
-0.27604
-0.251236
-0.227077
-0.203463
-0.180271
-0.157358
-0.13457
-0.111747
-0.0887237
-0.0653335
-0.0414079
-0.0167792
0.00871856
0.0352479
0.0629648
0.0920152
0.122529
0.154613
0.18834
0.223734
0.260753
0.299266
0.339024
0.379623
0.42047
0.460735
0.499315
0.534802
0.565471
0.58928
0.603961
0.607511
0.598282
0.570674
0.517766
-0.52878
-0.580014
-0.605185
-0.611724
-0.60601
-0.590403
-0.567362
-0.539333
-0.508307
-0.475795
-0.442896
-0.410361
-0.378666
-0.348078
-0.318706
-0.29055
-0.263533
-0.237527
-0.212372
-0.187888
-0.163882
-0.140156
-0.116509
-0.092739
-0.0686432
-0.0440195
-0.0186652
0.00762147
0.0350417
0.0637943
0.0940727
0.126061
0.159928
0.195816
0.233828
0.274007
0.316314
0.360589
0.406512
0.453549
0.50089
0.547383
0.591466
0.631123
0.663834
0.686648
0.696733
0.691493
0.663701
0.604842
-0.61851
-0.676981
-0.702111
-0.703617
-0.690158
-0.665361
-0.632671
-0.595262
-0.555569
-0.515327
-0.475707
-0.437442
-0.400934
-0.366349
-0.333687
-0.302842
-0.273639
-0.245864
-0.219278
-0.193634
-0.168682
-0.144175
-0.119868
-0.095519
-0.0708893
-0.0457416
-0.0198388
0.00705743
0.0351875
0.0647941
0.0961212
0.129412
0.164903
0.202818
0.243354
0.286662
0.332825
0.381813
0.43344
0.487294
0.542654
0.598389
0.652843
0.70373
0.748007
0.781883
0.801405
0.802565
0.775663
0.709719
-0.727484
-0.79476
-0.818205
-0.811295
-0.786256
-0.748596
-0.703072
-0.653716
-0.603403
-0.554021
-0.506719
-0.462112
-0.42044
-0.381697
-0.34572
-0.312253
-0.280992
-0.251611
-0.223781
-0.197177
-0.171486
-0.146407
-0.121649
-0.0969293
-0.0719744
-0.0465128
-0.0202735
0.00701684
0.0356371
0.0658738
0.0980222
0.132387
0.169278
0.209011
0.25189
0.298198
0.348172
0.401961
0.459575
0.520807
0.585125
0.651534
0.718404
0.783263
0.842558
0.891523
0.92474
0.936138
0.91219
0.837899
-0.863189
-0.940736
-0.959122
-0.93821
-0.895843
-0.840229
-0.777757
-0.713364
-0.650254
-0.590295
-0.534437
-0.483023
-0.43601
-0.393123
-0.353967
-0.318088
-0.285021
-0.254307
-0.225512
-0.198226
-0.172068
-0.146681
-0.121728
-0.096889
-0.0718561
-0.0463263
-0.0199979
0.00743485
0.0362864
0.0668847
0.0995751
0.134723
0.172718
0.213968
0.258902
0.307954
0.361548
0.420062
0.483778
0.552797
0.626915
0.705449
0.786992
0.869092
0.947817
1.01739
1.07058
1.0984
1.08138
0.997737
-1.03785
-1.12594
-1.13246
-1.08832
-1.02006
-0.93954
-0.854963
-0.771989
-0.693831
-0.621999
-0.556958
-0.498555
-0.446297
-0.399532
-0.357551
-0.319656
-0.285188
-0.25354
-0.224162
-0.196555
-0.170269
-0.144894
-0.120051
-0.095385
-0.0705577
-0.0452397
-0.0191033
0.00818462
0.0369695
0.0676161
0.100515
0.136092
0.174809
0.217174
0.263745
0.315124
0.371951
0.434884
0.504555
0.581495
0.666008
0.757969
0.856513
0.959581
1.06323
1.16086
1.24329
1.29757
1.29515
1.20264
-1.27269
-1.36706
-1.34808
-1.26557
-1.15884
-1.04422
-0.931395
-0.826102
-0.73088
-0.646309
-0.571939
-0.506823
-0.449824
-0.399783
-0.355609
-0.316314
-0.281026
-0.248979
-0.219506
-0.192024
-0.166018
-0.14103
-0.116645
-0.092481
-0.0681759
-0.0433804
-0.0177475
0.00907624
0.0374599
0.0677977
0.100519
0.136098
0.175069
0.218032
0.265673
0.318767
0.378192
0.444925
0.520023
0.604578
0.699606
0.805861
0.923486
1.05144
1.18652
1.32204
1.44714
1.54415
1.57127
1.47558
-1.60666
-1.68942
-1.61754
-1.47212
-1.30916
-1.14898
-1.00128
-0.870377
-0.756893
-0.659606
-0.576578
-0.505714
-0.445027
-0.392745
-0.347338
-0.30751
-0.27217
-0.240401
-0.21143
-0.184598
-0.15934
-0.135161
-0.111621
-0.0883191
-0.0648799
-0.0409429
-0.0161509
0.0098609
0.0374757
0.0671067
0.0992101
0.1343
0.172963
0.215883
0.263859
0.317832
0.378918
0.448429
0.527902
0.619096
0.723957
0.844483
0.982433
1.13872
1.31222
1.49779
1.6845
1.85032
1.93644
1.85818
-2.11178
-2.13071
-1.95226
-1.70539
-1.46233
-1.2437
-1.05536
-0.897209
-0.766006
-0.657548
-0.567752
-0.493035
-0.430403
-0.377414
-0.332094
-0.292854
-0.258413
-0.227729
-0.199948
-0.174359
-0.150366
-0.127454
-0.105172
-0.0831146
-0.0609036
-0.0381787
-0.0145831
0.0102481
0.0367005
0.065193
0.0961939
0.130238
0.167948
0.210062
0.257468
0.311244
0.372711
0.4435
0.525628
0.62158
0.734384
0.867635
1.0254
1.21177
1.42975
1.67901
1.95263
2.22804
2.42978
2.42598
-2.91883
-2.74105
-2.35989
-1.95584
-1.60288
-1.31341
-1.08158
-0.897763
-0.752111
-0.636104
-0.542912
-0.467256
-0.405106
-0.353393
-0.30977
-0.272426
-0.23995
-0.211226
-0.185362
-0.161629
-0.139424
-0.118236
-0.0976199
-0.0771795
-0.0565491
-0.0353803
-0.0133283
0.00995983
0.0348585
0.0617778
0.0911795
0.123598
0.159663
0.200137
0.24595
0.298263
0.358541
0.42866
0.511042
0.608848
0.726216
0.868557
1.04285
1.25777
1.52333
1.84943
2.24129
2.68496
3.10227
3.3132
-4.32453
-3.56087
-2.81621
-2.19012
-1.70025
-1.33428
-1.06363
-0.861763
-0.709116
-0.591891
-0.500367
-0.427705
-0.369059
-0.320943
-0.280808
-0.246754
-0.21734
-0.191452
-0.168214
-0.146921
-0.126995
-0.107953
-0.089375
-0.0708912
-0.0521608
-0.0328597
-0.0126678
0.0087434
0.0317238
0.0566581
0.0839829
0.114207
0.147936
0.185911
0.229052
0.278523
0.335832
0.402956
0.482548
0.578222
0.694999
0.839953
1.02314
1.25881
1.56717
1.97589
2.51477
3.19442
3.99395
4.82457
-7.15875
-4.55928
-3.14017
-2.25398
-1.64679
-1.23628
-0.957079
-0.761016
-0.618775
-0.512692
-0.431599
-0.368203
-0.317617
-0.276472
-0.242373
-0.213571
-0.188761
-0.166945
-0.147343
-0.129333
-0.112406
-0.0961368
-0.0801603
-0.0641523
-0.0478156
-0.0308673
-0.0130268
0.00599271
0.0264983
0.0488286
0.0733686
0.100568
0.130966
0.165223
0.204164
0.248845
0.300641
0.361388
0.433599
0.520798
0.628082
0.763044
0.937315
1.16926
1.48924
1.94752
2.61358
3.57201
5.07727
7.79596
-12.0271
-5.64206
-2.9759
-1.8773
-1.28064
-0.9264
-0.707256
-0.56191
-0.459183
-0.383292
-0.325397
-0.280093
-0.243873
-0.214343
-0.189801
-0.168992
-0.150971
-0.135007
-0.120522
-0.107052
-0.0942148
-0.0816879
-0.0691924
-0.0564794
-0.0433192
-0.0294923
-0.0147814
0.00103895
0.0182083
0.0369909
0.0576865
0.0806439
0.106279
0.135095
0.167721
0.204948
0.247801
0.297635
0.356288
0.426338
0.511538
0.617632
0.753945
0.93689
1.19844
1.60242
2.26535
3.45883
6.24201
12.7527
)
;

boundaryField
{
    movingWall
    {
        type            zeroGradient;
    }
    fixedWalls
    {
        type            zeroGradient;
    }
    frontAndBack
    {
        type            empty;
    }
}


// ************************************************************************* //
