/*--------------------------------*- C++ -*----------------------------------*\
  =========                 |
  \\      /  F ield         | OpenFOAM: The Open Source CFD Toolbox
   \\    /   O peration     | Website:  https://openfoam.org
    \\  /    A nd           | Version:  7
     \\/     M anipulation  |
\*---------------------------------------------------------------------------*/
FoamFile
{
    version     2.0;
    format      ascii;
    class       volScalarField;
    location    "0.043";
    object      p;
}
// * * * * * * * * * * * * * * * * * * * * * * * * * * * * * * * * * * * * * //

dimensions      [0 2 -2 0 0 0 0];

internalField   nonuniform List<scalar> 
2500
(
-1.04285e-05
-0.000524049
-0.00205276
-0.00428748
-0.00688776
-0.00955954
-0.0120887
-0.0143057
-0.0160833
-0.0173297
-0.0179815
-0.0179987
-0.0173607
-0.0160632
-0.0141155
-0.0115382
-0.00836233
-0.00462695
-0.000378656
0.00432977
0.00944009
0.0148894
0.0206107
0.0265338
0.0325857
0.0386914
0.0447741
0.0507568
0.0565623
0.0621146
0.0673394
0.0721658
0.076527
0.0803618
0.0836163
0.0862451
0.088213
0.0894972
0.090089
0.089996
0.0892445
0.0878829
0.0859845
0.0836523
0.0810244
0.0782798
0.0756432
0.0734027
0.0719055
0.0714393
0.000487118
-1.92154e-05
-0.00125867
-0.00302654
-0.00506357
-0.00716512
-0.00915948
-0.0109052
-0.012291
-0.0132322
-0.013668
-0.0135576
-0.0128775
-0.0116191
-0.00978677
-0.00739571
-0.00447076
-0.001045
0.00284134
0.0071418
0.0118046
0.0167733
0.0219876
0.0273839
0.0328959
0.0384554
0.0439931
0.049439
0.0547234
0.0597778
0.0645357
0.0689341
0.0729138
0.0764217
0.0794113
0.0818443
0.0836924
0.0849389
0.0855798
0.0856267
0.0851079
0.0840709
0.0825849
0.0807432
0.0786661
0.0765029
0.0744317
0.0726569
0.0714352
0.0709736
0.00201237
0.00121465
-3.14125e-05
-0.00162688
-0.00340865
-0.00521772
-0.00691578
-0.00838643
-0.0095346
-0.0102858
-0.0105848
-0.0103932
-0.00968797
-0.00845944
-0.00670956
-0.00445058
-0.00170369
0.00150199
0.00513051
0.00913989
0.013483
0.0181081
0.0229598
0.0279795
0.0331058
0.0382759
0.0434255
0.0484899
0.0534048
0.0581073
0.0625362
0.0666338
0.0703466
0.0736262
0.0764312
0.0787278
0.0804916
0.081709
0.0823785
0.0825122
0.0821377
0.0812992
0.0800595
0.0785008
0.0767262
0.0748593
0.0730436
0.0714392
0.0702099
0.0694826
0.00426538
0.00299441
0.00154169
-8.07078e-05
-0.00180058
-0.00349309
-0.00504681
-0.00636814
-0.00737855
-0.00801492
-0.00822943
-0.0079885
-0.00727152
-0.00606955
-0.00438413
-0.0022261
0.000385415
0.00342393
0.00685647
0.0106444
0.0147441
0.0191075
0.0236831
0.0284162
0.0332494
0.038124
0.0429797
0.0477561
0.0523931
0.0568315
0.0610145
0.0648882
0.0684028
0.0715135
0.0741819
0.076377
0.0780766
0.0792684
0.0799511
0.0801359
0.0798477
0.0791258
0.0780251
0.0766162
0.0749857
0.0732345
0.0714797
0.0698492
0.0684222
0.0672249
0.00694311
0.0050812
0.00332003
0.00156306
-0.000202085
-0.00187751
-0.00337452
-0.00462046
-0.00555283
-0.0061202
-0.00628306
-0.00601354
-0.00529462
-0.00411926
-0.00248961
-0.000416128
0.00208325
0.00498381
0.00825486
0.0118603
0.0157595
0.0199075
0.0242559
0.0287534
0.0333461
0.0379786
0.0425943
0.047136
0.0515471
0.0557719
0.0597566
0.0634503
0.0668061
0.0697817
0.0723408
0.0744541
0.0761002
0.0772671
0.0779527
0.0781663
0.0779288
0.077274
0.0762482
0.0749108
0.0733326
0.0715941
0.0697905
0.0680244
0.0662943
0.0645183
0.00979343
0.00729769
0.00516478
0.00319688
0.00130566
-0.000431119
-0.00194304
-0.00317582
-0.00408161
-0.00462018
-0.00476048
-0.00448082
-0.0037684
-0.00261892
-0.00103595
0.000969656
0.00338032
0.0061724
0.0093167
0.0127791
0.0165212
0.0205005
0.0246712
0.0289848
0.0333902
0.0378347
0.0422647
0.0466256
0.0508636
0.0549253
0.0587596
0.0623176
0.0655543
0.0684289
0.0709063
0.0729578
0.0745621
0.0757064
0.076387
0.0766101
0.0763925
0.0757618
0.0747562
0.0734243
0.0718228
0.0700151
0.0680789
0.0660981
0.0639983
0.0615988
0.0126346
0.00949533
0.00695383
0.00472182
0.0026446
0.000785798
-0.000798238
-0.0020687
-0.00299065
-0.00353412
-0.00367622
-0.00340148
-0.00270174
-0.00157588
-2.95102e-05
0.00192544
0.00427113
0.00698429
0.0100366
0.0133954
0.0170236
0.0208809
0.0249233
0.0291044
0.0333755
0.037686
0.0419843
0.0462181
0.0503353
0.0542846
0.0580162
0.0614827
0.0646399
0.067448
0.069872
0.0718829
0.0734587
0.0745849
0.0752555
0.0754732
0.0752503
0.0746082
0.0735774
0.0721969
0.0705115
0.0685702
0.0664381
0.0641864
0.0616773
0.0586424
0.0153263
0.0115502
0.00858134
0.00605076
0.00374597
0.00172127
2.25191e-05
-0.00132423
-0.00229512
-0.00286938
-0.00303166
-0.00277258
-0.00208865
-0.000982266
0.000538533
0.00246028
0.00476434
0.00742727
0.0104212
0.0137139
0.0172698
0.0210495
0.0250108
0.0291086
0.0332959
0.0375238
0.0417421
0.0459001
0.0499468
0.0538321
0.057507
0.0609246
0.0640413
0.0668168
0.0692157
0.0712081
0.0727703
0.0738856
0.0745452
0.074748
0.0745014
0.073821
0.0727303
0.0712599
0.0694447
0.0673222
0.0649489
0.0623883
0.0594478
0.055781
0.0177606
0.01336
0.00995512
0.00710402
0.00454323
0.00232146
0.000477049
-0.000974372
-0.00201834
-0.00264212
-0.00283729
-0.00260018
-0.00193195
-0.000838599
0.000669143
0.00257591
0.00486189
0.00750302
0.0104713
0.0137348
0.0172585
0.0210038
0.0249295
0.0289915
0.033144
0.0373389
0.0415273
0.0456591
0.0496841
0.0535526
0.0572158
0.0606268
0.0637413
0.0665184
0.0689215
0.070919
0.0724849
0.0735999
0.0742516
0.0744351
0.0741531
0.0734154
0.0722395
0.0706486
0.0686694
0.066331
0.0636839
0.0607885
0.0574038
0.0531134
0.0198531
0.0148394
0.0109943
0.00780833
0.00497203
0.00253127
0.000519177
-0.00105707
-0.00219094
-0.00287675
-0.00311226
-0.00289919
-0.00224318
-0.00115385
0.000355208
0.0022665
0.00455869
0.00720677
0.0101822
0.0134529
0.016984
0.0207373
0.024672
0.0287448
0.0329103
0.0371211
0.0413286
0.0454832
0.0495347
0.0534333
0.0571297
0.0605764
0.063728
0.0665421
0.0689803
0.0710085
0.0725983
0.0737269
0.0743785
0.0745437
0.0742205
0.0734138
0.072135
0.0704015
0.0682335
0.0656534
0.0627087
0.0594596
0.0556219
0.0507142
0.0215341
0.0159147
0.0116265
0.0080958
0.00497041
0.00229544
0.000100551
-0.001614
-0.00284844
-0.00360321
-0.00388173
-0.00369069
-0.00304004
-0.00194303
-0.000416184
0.00152069
0.00384449
0.00652894
0.00954463
0.0128591
0.0164371
0.0202405
0.0242285
0.0283581
0.032584
0.0368589
0.0411344
0.0453604
0.0494866
0.0534623
0.0572374
0.0607631
0.0639922
0.0668804
0.0693866
0.0714742
0.0731113
0.0742716
0.0749351
0.0750881
0.074724
0.0738425
0.0724502
0.0705592
0.0681846
0.0653437
0.0620834
0.0584655
0.0541662
0.0486424
0.0227435
0.0165204
0.0117853
0.00790215
0.00447791
0.00155831
-0.000829175
-0.0026901
-0.00403051
-0.00485633
-0.0051761
-0.00500122
-0.00434578
-0.00322661
-0.00166323
0.000322087
0.00270427
0.00545553
0.00854533
0.0119404
0.015605
0.0195005
0.0235861
0.0278185
0.0321521
0.0365395
0.0409317
0.0452781
0.0495276
0.0536283
0.0575287
0.061178
0.0645269
0.0675285
0.0701387
0.0723174
0.074029
0.0752431
0.0759354
0.0760876
0.0756882
0.0747323
0.0732217
0.0711642
0.0685707
0.0654549
0.0618641
0.057864
0.0530928
0.0469468
0.0234261
0.0165952
0.0114074
0.00716491
0.00343441
0.000263168
-0.00232263
-0.00433357
-0.00578091
-0.00667554
-0.00703079
-0.00686254
-0.00618889
-0.00503024
-0.00340919
-0.00135059
0.00111835
0.00396812
0.00716684
0.0106802
0.0144716
0.0185018
0.0227295
0.0271108
0.0315997
0.0361483
0.0407065
0.0452232
0.0496455
0.0539203
0.0579941
0.0618136
0.0653271
0.0684841
0.0712374
0.0735427
0.0753602
0.0766549
0.0773978
0.0775657
0.0771422
0.0761176
0.0744894
0.0722615
0.0694411
0.0660395
0.0621056
0.0577102
0.0524536
0.0456715
0.0235281
0.0160792
0.0104306
0.00582173
0.00177891
-0.00164853
-0.00443513
-0.00659608
-0.00814742
-0.00910474
-0.00948595
-0.00931124
-0.00860276
-0.00738445
-0.00568207
-0.00352318
-0.00093729
0.00204421
0.00538786
0.00905814
0.0130173
0.0172255
0.0216403
0.0262174
0.0309099
0.035669
0.0404436
0.0451812
0.0498274
0.0543271
0.0586244
0.0626634
0.0663888
0.0697469
0.0726861
0.0751576
0.0771169
0.078524
0.0793444
0.0795499
0.0791189
0.0780368
0.0762967
0.0738988
0.0708475
0.0671517
0.062863
0.0580582
0.0522991
0.044859
0.0229946
0.0149119
0.00879169
0.00380889
-0.000551574
-0.00423794
-0.00722523
-0.00953299
-0.0111819
-0.0121922
-0.0125863
-0.0123886
-0.0116254
-0.0103243
-0.00851434
-0.00622585
-0.00349081
-0.000342666
0.00318341
0.00705045
0.0112195
0.0156497
0.0202977
0.0251183
0.0300635
0.0350835
0.040126
0.0451367
0.0500595
0.054837
0.0594104
0.0637208
0.0677093
0.0713177
0.0744899
0.0771721
0.0793142
0.0808707
0.0818013
0.0820719
0.0816555
0.0805323
0.078691
0.076128
0.0728448
0.0688485
0.0641939
0.0589642
0.0526816
0.0445538
0.021768
0.0130302
0.00642495
0.00105983
-0.00362315
-0.00756972
-0.0107553
-0.0132038
-0.0149407
-0.0159908
-0.016381
-0.0161405
-0.0152994
-0.0138894
-0.0119427
-0.00949275
-0.00657415
-0.00322253
0.000525093
0.00463019
0.0090525
0.0137499
0.0186782
0.0237908
0.029039
0.0343716
0.0397347
0.0450725
0.0503267
0.0554373
0.0603424
0.0649796
0.0692858
0.0731982
0.0766553
0.0795977
0.0819694
0.0837182
0.0847976
0.0851671
0.0847934
0.0836512
0.0817242
0.0790051
0.0754923
0.0711911
0.0661597
0.0604885
0.0536573
0.0448044
0.0197856
0.0103668
0.00326047
-0.00249614
-0.00750618
-0.0117129
-0.0150921
-0.0176725
-0.0194844
-0.0205576
-0.0209238
-0.0206169
-0.0196714
-0.018123
-0.0160075
-0.0133617
-0.0102227
-0.00662869
-0.00261856
0.00176746
0.00648772
0.0114989
0.0167555
0.0222102
0.0278129
0.033511
0.0392493
0.0449701
0.0506126
0.0561142
0.0614098
0.0664328
0.0711157
0.0753904
0.0791897
0.0824478
0.0851018
0.0870925
0.088366
0.0888746
0.0885783
0.0874453
0.0854538
0.082592
0.0788552
0.0742466
0.0688279
0.062697
0.0552884
0.0456659
0.0169787
0.0068485
-0.000777102
-0.00693509
-0.0122763
-0.0167416
-0.0203077
-0.0230082
-0.0248789
-0.0259548
-0.026273
-0.0258723
-0.0247921
-0.0230723
-0.0207528
-0.0178736
-0.0144749
-0.0105973
-0.00628167
-0.0015701
0.00349435
0.00886709
0.0145017
0.0203495
0.0263594
0.0324776
0.0386473
0.0448088
0.0508992
0.0568527
0.0626008
0.0680727
0.0731958
0.0778965
0.0821011
0.0857367
0.0887327
0.091022
0.0925423
0.0932379
0.0930607
0.0919718
0.0899428
0.0869571
0.0830057
0.0780894
0.0722735
0.0656636
0.0576452
0.0472018
0.0132715
0.00239527
-0.00576991
-0.0123397
-0.0180156
-0.0227364
-0.0264798
-0.0292855
-0.031195
-0.0322492
-0.0324912
-0.0319652
-0.030716
-0.0287881
-0.0262257
-0.0230724
-0.0193716
-0.0151666
-0.0105004
-0.00541675
3.97535e-05
0.00582338
0.0118867
0.01818
0.0246513
0.0312455
0.0379045
0.0445666
0.0511667
0.057636
0.0639023
0.0698904
0.0755223
0.0807183
0.0853976
0.0894796
0.0928849
0.0955375
0.0973657
0.0983044
0.0982962
0.0972939
0.0952616
0.0921762
0.0880241
0.0828029
0.0765811
0.0694722
0.0608082
0.0494859
0.00857918
-0.00308134
-0.0118082
-0.0188004
-0.0248135
-0.0297846
-0.0336932
-0.0365852
-0.0385092
-0.0395128
-0.0396455
-0.0389581
-0.0375008
-0.0353237
-0.0324754
-0.0290038
-0.0249555
-0.0203764
-0.0153121
-0.00980789
-0.00390975
0.00233551
0.00887957
0.0156721
0.0226601
0.0297877
0.0369955
0.0442201
0.0513942
0.0584461
0.0653
0.0718759
0.0780905
0.0838572
0.0890875
0.0936922
0.0975826
0.100672
0.102879
0.104126
0.104346
0.103482
0.101488
0.0983342
0.0940008
0.088481
0.0818462
0.0742179
0.0648697
0.0526044
0.00280759
-0.0096793
-0.0189915
-0.0264167
-0.0327683
-0.037982
-0.0420397
-0.0449949
-0.0469041
-0.0478227
-0.0478077
-0.0469169
-0.0452074
-0.0427348
-0.0395533
-0.0357148
-0.0312698
-0.0262671
-0.0207545
-0.014779
-0.0083879
-0.0016288
0.00544935
0.0127957
0.020357
0.0280765
0.0358939
0.0437446
0.0515594
0.0592637
0.0667781
0.0740181
0.0808944
0.0873135
0.0931785
0.0983908
0.102851
0.106461
0.109126
0.110758
0.111277
0.110612
0.108708
0.105526
0.101037
0.0952299
0.0881777
0.0800098
0.0699365
0.0566579
-0.00414842
-0.0175075
-0.0274303
-0.0352987
-0.041988
-0.0474333
-0.0516196
-0.0546094
-0.0564686
-0.0572613
-0.0570534
-0.0559109
-0.0538986
-0.0510787
-0.047511
-0.0432526
-0.0383577
-0.0328782
-0.0268642
-0.0203645
-0.0134273
-0.00610074
0.00156591
0.00952178
0.0177135
0.0260843
0.0345734
0.0431154
0.0516393
0.0600684
0.0683199
0.0763045
0.0839271
0.0910868
0.097678
0.103592
0.108716
0.112941
0.116158
0.118263
0.119162
0.11877
0.117019
0.113858
0.109248
0.10317
0.0956996
0.0869733
0.0761315
0.0617633
-0.0124061
-0.0266875
-0.0372474
-0.0455683
-0.0525921
-0.0582536
-0.0625425
-0.0655317
-0.0672979
-0.067916
-0.0674621
-0.0660119
-0.0636388
-0.0604127
-0.0564
-0.0516629
-0.0462602
-0.0402469
-0.0336754
-0.0265961
-0.0190577
-0.0111088
-0.0027984
0.00582317
0.0147031
0.023785
0.0330086
0.0423079
0.0516111
0.0608396
0.0699076
0.0787215
0.0871804
0.0951758
0.102593
0.109311
0.115206
0.120153
0.124026
0.126707
0.128082
0.128051
0.126528
0.123449
0.118762
0.112438
0.104554
0.095252
0.0835968
0.0680567
-0.0220965
-0.0373549
-0.0485799
-0.0573617
-0.0647131
-0.0705701
-0.0749282
-0.0778731
-0.0794942
-0.0798793
-0.0791167
-0.0772933
-0.0744925
-0.0707932
-0.0662691
-0.0609885
-0.0550147
-0.0484062
-0.0412177
-0.0335006
-0.0253044
-0.0166771
-0.00766699
0.00167672
0.0113025
0.0211555
0.0311761
0.0412992
0.0514527
0.0615568
0.0715235
0.0812552
0.0906454
0.099578
0.107928
0.115564
0.122347
0.128136
0.132787
0.136161
0.138125
0.138558
0.137355
0.134433
0.129726
0.123191
0.114903
0.105011
0.0924968
0.0756958
-0.033366
-0.0496619
-0.0615819
-0.0708307
-0.0784985
-0.0845232
-0.0889082
-0.0917543
-0.0931668
-0.0932485
-0.0921024
-0.0898288
-0.0865228
-0.0822736
-0.0771633
-0.0712668
-0.0646526
-0.0573826
-0.0495136
-0.0410982
-0.0321855
-0.0228229
-0.0130569
-0.00293493
0.00749389
0.0181769
0.0290566
0.0400694
0.0511441
0.062201
0.0731503
0.0838914
0.0943126
0.104291
0.113691
0.122368
0.130169
0.136933
0.142498
0.146701
0.149386
0.150406
0.149634
0.146962
0.142306
0.135607
0.126934
0.116442
0.103021
0.0848637
-0.0463789
-0.0637803
-0.0764269
-0.0861467
-0.0941133
-0.100269
-0.104626
-0.107306
-0.108432
-0.108125
-0.106506
-0.103691
-0.0997896
-0.0949023
-0.0891207
-0.0825275
-0.0751964
-0.0671931
-0.0585762
-0.0493989
-0.0397096
-0.0295541
-0.0189764
-0.0080209
0.00326664
0.014837
0.0266361
0.0386031
0.0506692
0.0627556
0.0747722
0.0866165
0.0981723
0.109309
0.119883
0.129736
0.138698
0.146589
0.153223
0.158411
0.16197
0.163723
0.163513
0.161206
0.156691
0.149888
0.14086
0.129765
0.11539
0.0957722
-0.0613205
-0.0799046
-0.093312
-0.103503
-0.111743
-0.11798
-0.122242
-0.12467
-0.125412
-0.124613
-0.122414
-0.11895
-0.114347
-0.108719
-0.10217
-0.0947891
-0.0866568
-0.0778422
-0.0684056
-0.0584001
-0.0478727
-0.0368665
-0.0254221
-0.0135795
-0.0013798
0.0111326
0.0239085
0.0368916
0.0500167
0.0632079
0.0763761
0.0894183
0.102215
0.11463
0.12651
0.137684
0.147964
0.157148
0.165026
0.171378
0.175989
0.178646
0.179158
0.177356
0.173095
0.16627
0.15693
0.145235
0.129858
0.108667
-0.0784008
-0.0982574
-0.112463
-0.123121
-0.131599
-0.137852
-0.141929
-0.143998
-0.144237
-0.142819
-0.13991
-0.135668
-0.130239
-0.123753
-0.116325
-0.108055
-0.0990283
-0.0893179
-0.0789852
-0.0680825
-0.0566545
-0.0447403
-0.0323758
-0.0195952
-0.00643337
0.00707185
0.0208778
0.0349345
0.0491826
0.0635506
0.0779528
0.0922871
0.106433
0.120249
0.133574
0.146223
0.157992
0.168656
0.177974
0.185696
0.191565
0.19533
0.196755
0.195628
0.191764
0.185021
0.17543
0.163148
0.146722
0.123834
-0.0978604
-0.119095
-0.134139
-0.145254
-0.153918
-0.160104
-0.16388
-0.165456
-0.165043
-0.162849
-0.159073
-0.1539
-0.147499
-0.140017
-0.131584
-0.122309
-0.112285
-0.101588
-0.090278
-0.0784068
-0.0660151
-0.0531369
-0.0398015
-0.0260358
-0.0118667
0.00267667
0.0175601
0.0327423
0.0481715
0.0637834
0.0794978
0.0952161
0.110818
0.126161
0.141076
0.155366
0.168808
0.181155
0.192136
0.20146
0.208829
0.213942
0.216509
0.216266
0.212977
0.206451
0.196693
0.18385
0.166329
0.141607
-0.119977
-0.142718
-0.158646
-0.170197
-0.178978
-0.184981
-0.188311
-0.18922
-0.187969
-0.184808
-0.179974
-0.173686
-0.166139
-0.157502
-0.14792
-0.137512
-0.126377
-0.114593
-0.102222
-0.0893089
-0.0758912
-0.0619952
-0.0476422
-0.0328495
-0.0176341
-0.00201437
0.0139865
0.0303378
0.0469987
0.0639144
0.0810131
0.0982025
0.115367
0.132362
0.149014
0.165118
0.180434
0.194689
0.207578
0.218772
0.227919
0.234662
0.238648
0.239546
0.237053
0.230918
0.221106
0.207747
0.189086
0.162375
-0.145077
-0.169481
-0.186342
-0.198295
-0.207096
-0.212766
-0.215456
-0.21548
-0.213157
-0.208792
-0.202668
-0.195045
-0.186148
-0.176172
-0.165276
-0.153592
-0.141222
-0.128247
-0.114724
-0.100697
-0.0861921
-0.0712286
-0.0558167
-0.0399623
-0.0236697
-0.00694434
0.0102041
0.0277586
0.0456916
0.0639612
0.0825075
0.101248
0.120074
0.138845
0.157386
0.175485
0.192886
0.209292
0.224366
0.237731
0.24898
0.257688
0.263425
0.265778
0.26436
0.258839
0.249126
0.235319
0.215478
0.1866
-0.173548
-0.199807
-0.217658
-0.22996
-0.238645
-0.243779
-0.245579
-0.244436
-0.240748
-0.234885
-0.22719
-0.217969
-0.207485
-0.195956
-0.183561
-0.170441
-0.156703
-0.142425
-0.127661
-0.112446
-0.0967972
-0.080722
-0.0642176
-0.0472755
-0.0298852
-0.0120362
0.006278
0.0250571
0.0442902
0.0639516
0.0839969
0.104358
0.124937
0.145602
0.166182
0.186461
0.20617
0.224993
0.242555
0.258434
0.272159
0.283226
0.291115
0.29531
0.295318
0.290701
0.281291
0.267137
0.246079
0.214827
-0.205859
-0.234216
-0.253117
-0.265682
-0.274061
-0.278388
-0.278968
-0.276298
-0.270874
-0.263151
-0.253544
-0.242414
-0.230063
-0.21674
-0.202639
-0.187909
-0.172659
-0.156963
-0.140867
-0.124395
-0.107552
-0.0903299
-0.0727094
-0.0546654
-0.0361694
-0.0171924
0.00229148
0.0223016
0.0428473
0.063923
0.085504
0.107541
0.129953
0.152622
0.175386
0.19803
0.220282
0.241803
0.26219
0.280969
0.297601
0.311493
0.322018
0.328534
0.330412
0.327074
0.318242
0.303888
0.281584
0.247714
-0.242587
-0.273351
-0.293362
-0.30606
-0.313866
-0.317016
-0.315941
-0.311279
-0.303652
-0.293624
-0.281694
-0.268285
-0.253747
-0.238354
-0.222318
-0.205791
-0.188881
-0.171652
-0.154138
-0.136348
-0.118269
-0.0998756
-0.0811286
-0.0619828
-0.0423886
-0.0222955
-0.00165525
0.0195746
0.041427
0.0639209
0.0870558
0.110806
0.135115
0.159885
0.184968
0.210162
0.235193
0.259714
0.283291
0.305403
0.325439
0.342708
0.356454
0.365885
0.370196
0.368629
0.360748
0.346404
0.322843
0.286056
-0.284458
-0.318022
-0.3392
-0.351826
-0.358679
-0.360147
-0.356841
-0.349587
-0.339171
-0.326289
-0.311541
-0.295424
-0.278331
-0.260565
-0.242346
-0.223828
-0.205107
-0.186234
-0.167224
-0.148066
-0.128725
-0.109152
-0.089285
-0.0690552
-0.0483889
-0.0272108
-0.00544747
0.0169701
0.0401022
0.0639961
0.0886811
0.114161
0.14041
0.167356
0.194881
0.222799
0.25085
0.278683
0.305846
0.331774
0.355784
0.377079
0.394756
0.40784
0.415308
0.416158
0.409735
0.395709
0.370903
0.330834
-0.332403
-0.369274
-0.391654
-0.40389
-0.409243
-0.408336
-0.402032
-0.39141
-0.377468
-0.361063
-0.342912
-0.323588
-0.303529
-0.283058
-0.262398
-0.241692
-0.221017
-0.200401
-0.179834
-0.159276
-0.138666
-0.117925
-0.0969655
-0.0756911
-0.0540005
-0.0317911
-0.00896075
0.0145889
0.038949
0.0641996
0.0904044
0.117604
0.145808
0.174985
0.20505
0.235851
0.267154
0.298619
0.329789
0.360066
0.388702
0.414786
0.437256
0.454916
0.46647
0.470598
0.466334
0.453075
0.427082
0.383277
-0.387645
-0.428475
-0.452046
-0.463391
-0.466451
-0.462206
-0.45188
-0.43689
-0.418502
-0.397765
-0.375524
-0.352428
-0.328954
-0.305429
-0.282067
-0.258985
-0.23623
-0.213795
-0.191633
-0.169669
-0.147808
-0.125939
-0.10394
-0.0816864
-0.059045
-0.0358832
-0.012068
0.0125314
0.0380403
0.0645752
0.0922393
0.121116
0.151259
0.182687
0.215362
0.249181
0.283951
0.319366
0.354982
0.390189
0.424185
0.455954
0.484258
0.507651
0.524494
0.533055
0.531933
0.520108
0.493066
0.444949
-0.451829
-0.497463
-0.522103
-0.531763
-0.531367
-0.522443
-0.506727
-0.486085
-0.462109
-0.436072
-0.408951
-0.381461
-0.354094
-0.327167
-0.300856
-0.275237
-0.250306
-0.226009
-0.202251
-0.178911
-0.155852
-0.132925
-0.109973
-0.0868339
-0.0633442
-0.0393378
-0.0146484
0.010889
0.0374366
0.065151
0.0941792
0.124653
0.156681
0.190339
0.225653
0.262586
0.301009
0.340674
0.381181
0.421938
0.462114
0.500605
0.536001
0.566574
0.590275
0.604833
0.608244
0.598857
0.571057
0.517895
-0.52723
-0.578746
-0.604119
-0.610818
-0.605247
-0.589769
-0.566838
-0.5389
-0.507942
-0.475472
-0.442587
-0.410037
-0.3783
-0.347641
-0.318174
-0.289901
-0.262751
-0.236599
-0.21129
-0.186649
-0.162489
-0.138614
-0.114829
-0.0909349
-0.0667319
-0.0420201
-0.0165989
0.00973262
0.0371754
0.0659284
0.0961864
0.128135
0.161946
0.197763
0.235693
0.275782
0.317994
0.362173
0.408
0.454944
0.502195
0.548598
0.59259
0.632151
0.664755
0.687447
0.697389
0.691985
0.663989
0.604858
-0.617098
-0.675843
-0.701173
-0.702842
-0.689533
-0.664873
-0.632304
-0.594996
-0.555379
-0.515186
-0.475584
-0.437306
-0.400754
-0.366095
-0.333333
-0.302366
-0.273022
-0.245092
-0.218343
-0.192532
-0.167416
-0.142751
-0.118296
-0.0938137
-0.0690677
-0.0438238
-0.0178466
0.00910116
0.0372593
0.0668708
0.0981808
0.131434
0.166869
0.204713
0.245165
0.28838
0.334445
0.383332
0.43486
0.488618
0.543885
0.599529
0.653894
0.704686
0.748859
0.782615
0.801994
0.802989
0.775877
0.709649
-0.726256
-0.79379
-0.817427
-0.81068
-0.785796
-0.748281
-0.702886
-0.653639
-0.603411
-0.554082
-0.506801
-0.462181
-0.420463
-0.381642
-0.345559
-0.311963
-0.280552
-0.251008
-0.223005
-0.196225
-0.17036
-0.145112
-0.120195
-0.0953322
-0.0702512
-0.0446838
-0.0183611
0.00898899
0.0376447
0.0678926
0.100029
0.134359
0.171198
0.210859
0.253654
0.299868
0.349741
0.403425
0.460935
0.522066
0.586288
0.652606
0.719385
0.784153
0.843348
0.892198
0.925278
0.936512
0.912355
0.837774
-0.862185
-0.939966
-0.958532
-0.937781
-0.895571
-0.840109
-0.777773
-0.713496
-0.650476
-0.590573
-0.534737
-0.483308
-0.436246
-0.393276
-0.354008
-0.317993
-0.284768
-0.253882
-0.224904
-0.197432
-0.171089
-0.145522
-0.1204
-0.0954062
-0.070236
-0.0445894
-0.0181669
0.00933563
0.038232
0.0688501
0.101536
0.136656
0.174601
0.215784
0.260635
0.309592
0.363082
0.421488
0.485096
0.554008
0.628026
0.706465
0.787917
0.869926
0.948556
1.01802
1.07108
1.09875
1.08152
0.997593
-1.03711
-1.12539
-1.13208
-1.0881
-1.01999
-0.93963
-0.855195
-0.772342
-0.694276
-0.622502
-0.557482
-0.499062
-0.446751
-0.399897
-0.357799
-0.31976
-0.285127
-0.253298
-0.223727
-0.195924
-0.169442
-0.143877
-0.118852
-0.094019
-0.0690418
-0.0435944
-0.0173514
0.0100187
0.0388601
0.0695374
0.102442
0.137999
0.176674
0.218977
0.265468
0.316752
0.373475
0.436298
0.505855
0.582684
0.66709
0.758949
0.857398
0.960375
1.06393
1.16146
1.24377
1.29791
1.29529
1.20252
-1.27222
-1.36675
-1.34792
-1.26555
-1.15899
-1.04453
-0.931848
-0.826679
-0.73155
-0.647036
-0.572686
-0.507551
-0.450495
-0.400361
-0.356064
-0.316619
-0.281158
-0.248922
-0.219249
-0.19156
-0.165346
-0.140155
-0.115576
-0.0912311
-0.0667619
-0.0418223
-0.016068
0.0108525
0.0393071
0.0696892
0.102428
0.138
0.176938
0.219847
0.267413
0.320417
0.379739
0.44636
0.521341
0.605778
0.700692
0.806837
0.92436
1.05222
1.18721
1.32262
1.44762
1.5445
1.57144
1.4755
-1.60647
-1.68935
-1.6176
-1.47232
-1.30952
-1.1495
-1.00195
-0.87117
-0.757781
-0.660552
-0.577542
-0.506658
-0.445912
-0.393534
-0.348
-0.308016
-0.272497
-0.240531
-0.21135
-0.184301
-0.158824
-0.134429
-0.11068
-0.0871817
-0.0635621
-0.0394642
-0.0145335
0.0115924
0.0392952
0.0689871
0.101124
0.13622
0.174865
0.217741
0.265651
0.31954
0.380525
0.449925
0.529278
0.620349
0.725087
0.845494
0.983332
1.13952
1.31292
1.49839
1.685
1.8507
1.93666
1.85819
-2.11185
-2.13086
-1.95252
-1.70579
-1.46288
-1.24442
-1.05623
-0.898206
-0.767099
-0.658701
-0.568925
-0.494188
-0.431498
-0.378412
-0.332962
-0.293563
-0.258937
-0.228048
-0.200048
-0.174231
-0.150005
-0.126862
-0.104356
-0.0820835
-0.0596734
-0.0367681
-0.0130139
0.0119517
0.0385119
0.0670849
0.0981379
0.132206
0.169912
0.211997
0.259349
0.313049
0.374421
0.445101
0.527108
0.622932
0.735605
0.868726
1.02636
1.21262
1.43049
1.67965
1.95317
2.22847
2.43008
2.42611
-2.91913
-2.7414
-2.36033
-1.95642
-1.6036
-1.3143
-1.08263
-0.898944
-0.753395
-0.637453
-0.544287
-0.468615
-0.406409
-0.354601
-0.310847
-0.273341
-0.240674
-0.211738
-0.185644
-0.16167
-0.139218
-0.117781
-0.0969213
-0.0762465
-0.0553956
-0.0340239
-0.0117906
0.0116548
0.0366841
0.0637057
0.0931807
0.125643
0.161723
0.202182
0.247955
0.300203
0.360395
0.430408
0.51267
0.610345
0.727575
0.869776
1.04393
1.25871
1.52416
1.85014
2.2419
2.68546
3.10266
3.31346
-4.325
-3.56135
-2.81678
-2.19083
-1.70112
-1.33532
-1.06484
-0.863111
-0.710577
-0.593429
-0.501942
-0.429273
-0.370577
-0.322369
-0.282103
-0.247883
-0.218273
-0.192163
-0.168683
-0.147133
-0.126942
-0.107631
-0.0887879
-0.0700463
-0.0510708
-0.0315417
-0.0111428
0.0104511
0.0335872
0.0586481
0.0860691
0.116358
0.150121
0.1881
0.231215
0.280634
0.337864
0.404889
0.484362
0.579904
0.696537
0.841341
1.02437
1.25989
1.56811
1.9767
2.51546
3.19501
3.99445
4.82497
-7.15931
-4.55984
-3.14082
-2.25477
-1.64776
-1.23745
-0.958432
-0.762538
-0.620433
-0.514448
-0.433408
-0.370018
-0.319392
-0.278159
-0.243927
-0.214954
-0.189938
-0.167886
-0.148024
-0.129736
-0.112519
-0.0959552
-0.0796845
-0.0633887
-0.0467759
-0.0295681
-0.0114893
0.0077437
0.0284348
0.05092
0.0755826
0.102872
0.133326
0.167605
0.206536
0.251176
0.302903
0.363556
0.435651
0.522714
0.629848
0.764648
0.938752
1.17053
1.49034
1.94846
2.61438
3.57269
5.07786
7.79648
-12.0277
-5.64263
-2.97656
-1.87814
-1.28169
-0.927693
-0.708784
-0.563651
-0.461101
-0.385342
-0.327527
-0.282247
-0.245997
-0.216383
-0.191705
-0.170714
-0.152469
-0.136246
-0.121473
-0.107693
-0.0945307
-0.0816705
-0.0688402
-0.0557974
-0.0423186
-0.0281898
-0.0131987
0.00287564
0.020269
0.0392425
0.0600939
0.0831703
0.108887
0.137748
0.170381
0.20758
0.250373
0.300116
0.358653
0.428561
0.5136
0.619517
0.755643
0.938392
1.19974
1.60353
2.26628
3.4596
6.24265
12.7533
)
;

boundaryField
{
    movingWall
    {
        type            zeroGradient;
    }
    fixedWalls
    {
        type            zeroGradient;
    }
    frontAndBack
    {
        type            empty;
    }
}


// ************************************************************************* //
