/*--------------------------------*- C++ -*----------------------------------*\
  =========                 |
  \\      /  F ield         | OpenFOAM: The Open Source CFD Toolbox
   \\    /   O peration     | Website:  https://openfoam.org
    \\  /    A nd           | Version:  7
     \\/     M anipulation  |
\*---------------------------------------------------------------------------*/
FoamFile
{
    version     2.0;
    format      ascii;
    class       volVectorField;
    location    "0.0114";
    object      U;
}
// * * * * * * * * * * * * * * * * * * * * * * * * * * * * * * * * * * * * * //

dimensions      [0 1 -1 0 0 0 0];

internalField   nonuniform List<vector> 
2500
(
(0.290355 -0.152508 0)
(0.389817 -0.128339 0)
(0.565742 -0.0747586 0)
(0.683352 -0.0421551 0)
(0.752449 -0.0243556 0)
(0.796714 -0.0146338 0)
(0.826929 -0.00926597 0)
(0.8483 -0.00620233 0)
(0.863906 -0.00435593 0)
(0.875617 -0.00317395 0)
(0.884582 -0.00237524 0)
(0.891544 -0.00181162 0)
(0.897007 -0.00140073 0)
(0.901329 -0.001094 0)
(0.904769 -0.000860959 0)
(0.90752 -0.000681455 0)
(0.909726 -0.000541533 0)
(0.911498 -0.000431193 0)
(0.912921 -0.000343078 0)
(0.91406 -0.000271655 0)
(0.914963 -0.000212691 0)
(0.915669 -0.000162885 0)
(0.916205 -0.0001196 0)
(0.91659 -8.06701e-05 0)
(0.916837 -4.4238e-05 0)
(0.916953 -8.62646e-06 0)
(0.916938 2.7779e-05 0)
(0.916787 6.66526e-05 0)
(0.91649 0.000109821 0)
(0.91603 0.000159401 0)
(0.915381 0.00021795 0)
(0.914508 0.000288645 0)
(0.913366 0.000375528 0)
(0.911892 0.000483844 0)
(0.910008 0.000620532 0)
(0.907609 0.000794969 0)
(0.904555 0.00102017 0)
(0.900664 0.00131484 0)
(0.895688 0.00170702 0)
(0.889284 0.00224117 0)
(0.880968 0.00299232 0)
(0.870022 0.00409574 0)
(0.855331 0.00581109 0)
(0.835067 0.00866025 0)
(0.806142 0.0137047 0)
(0.763248 0.0230386 0)
(0.695411 0.0406268 0)
(0.577898 0.0736843 0)
(0.398204 0.128779 0)
(0.293964 0.153874 0)
(0.00119225 -0.295168 0)
(0.0170407 -0.298792 0)
(0.152189 -0.21279 0)
(0.281849 -0.144594 0)
(0.385541 -0.098412 0)
(0.466721 -0.0681563 0)
(0.529628 -0.0484652 0)
(0.578218 -0.035422 0)
(0.615944 -0.0265115 0)
(0.645471 -0.0202226 0)
(0.668763 -0.0156534 0)
(0.687261 -0.0122532 0)
(0.702036 -0.00967437 0)
(0.713893 -0.00768901 0)
(0.723444 -0.00614217 0)
(0.731158 -0.00492474 0)
(0.737399 -0.00395761 0)
(0.74245 -0.00318203 0)
(0.746531 -0.00255343 0)
(0.749815 -0.00203746 0)
(0.752434 -0.00160718 0)
(0.754489 -0.00124111 0)
(0.756057 -0.000921741 0)
(0.757192 -0.000634419 0)
(0.757931 -0.000366402 0)
(0.758292 -0.000106067 0)
(0.758279 0.000157795 0)
(0.757881 0.000436673 0)
(0.75707 0.000743032 0)
(0.7558 0.00109109 0)
(0.754003 0.00149772 0)
(0.751587 0.00198354 0)
(0.748431 0.00257435 0)
(0.744374 0.00330304 0)
(0.739208 0.0042123 0)
(0.732663 0.00535853 0)
(0.72439 0.00681794 0)
(0.713932 0.008696 0)
(0.700687 0.0111433 0)
(0.683858 0.0143825 0)
(0.662364 0.0187559 0)
(0.634729 0.0248116 0)
(0.598908 0.0334611 0)
(0.552052 0.0462628 0)
(0.490345 0.065883 0)
(0.409234 0.0966328 0)
(0.303721 0.144629 0)
(0.169391 0.216597 0)
(0.0266689 0.306979 0)
(0.0052168 0.303147 0)
(-0.0328837 -0.250725 0)
(-0.0617818 -0.343913 0)
(-0.012572 -0.309451 0)
(0.0680927 -0.249183 0)
(0.15377 -0.192453 0)
(0.233117 -0.146816 0)
(0.301881 -0.112244 0)
(0.359495 -0.0864945 0)
(0.406998 -0.0672749 0)
(0.445882 -0.052792 0)
(0.47762 -0.0417496 0)
(0.503505 -0.0332321 0)
(0.524625 -0.0265932 0)
(0.541869 -0.0213714 0)
(0.555958 -0.0172315 0)
(0.567475 -0.0139253 0)
(0.576887 -0.0112659 0)
(0.584569 -0.00910997 0)
(0.590821 -0.00734602 0)
(0.595881 -0.0058863 0)
(0.599937 -0.0046607 0)
(0.603134 -0.00361235 0)
(0.605582 -0.00269423 0)
(0.607361 -0.00186645 0)
(0.608525 -0.00109393 0)
(0.609102 -0.000344486 0)
(0.6091 0.000413062 0)
(0.608501 0.0012106 0)
(0.607264 0.00208257 0)
(0.605323 0.00306796 0)
(0.602579 0.00421253 0)
(0.598901 0.00557162 0)
(0.594112 0.00721355 0)
(0.587987 0.00922421 0)
(0.580235 0.0117132 0)
(0.570487 0.0148224 0)
(0.558275 0.0187388 0)
(0.543009 0.0237128 0)
(0.523941 0.030087 0)
(0.500129 0.0383393 0)
(0.470395 0.0491497 0)
(0.433288 0.0634996 0)
(0.38709 0.0828085 0)
(0.329936 0.10909 0)
(0.260272 0.145007 0)
(0.178094 0.193335 0)
(0.0873019 0.254614 0)
(-0.000612377 0.320976 0)
(-0.057716 0.360415 0)
(-0.0322561 0.263885 0)
(-0.0268325 -0.190772 0)
(-0.0660831 -0.332041 0)
(-0.0667306 -0.348714 0)
(-0.0321017 -0.314391 0)
(0.0217102 -0.265098 0)
(0.0816834 -0.216734 0)
(0.140249 -0.174881 0)
(0.193734 -0.140497 0)
(0.240776 -0.112859 0)
(0.281236 -0.0908207 0)
(0.315565 -0.0732695 0)
(0.344442 -0.0592639 0)
(0.368598 -0.0480504 0)
(0.38873 -0.0390379 0)
(0.40546 -0.0317647 0)
(0.419332 -0.0258691 0)
(0.430805 -0.0210662 0)
(0.440264 -0.0171294 0)
(0.448027 -0.0138773 0)
(0.454354 -0.0111634 0)
(0.459455 -0.00886831 0)
(0.463493 -0.00689315 0)
(0.466596 -0.00515495 0)
(0.468858 -0.00358228 0)
(0.470339 -0.00211162 0)
(0.471076 -0.000684146 0)
(0.471074 0.000757328 0)
(0.470314 0.00227136 0)
(0.468746 0.00392095 0)
(0.466291 0.00577688 0)
(0.462833 0.00792146 0)
(0.458218 0.010453 0)
(0.452244 0.013491 0)
(0.444653 0.0171834 0)
(0.435124 0.021715 0)
(0.423258 0.0273191 0)
(0.408568 0.0342937 0)
(0.390464 0.0430227 0)
(0.368248 0.0540051 0)
(0.341106 0.0678929 0)
(0.308142 0.0855371 0)
(0.268442 0.10803 0)
(0.221253 0.136712 0)
(0.166352 0.173043 0)
(0.104753 0.218121 0)
(0.0399623 0.27129 0)
(-0.0201349 0.326804 0)
(-0.0614679 0.367342 0)
(-0.0659641 0.353233 0)
(-0.0274811 0.204163 0)
(-0.018001 -0.148882 0)
(-0.0542124 -0.30059 0)
(-0.0768666 -0.349756 0)
(-0.072981 -0.342108 0)
(-0.0478861 -0.30852 0)
(-0.0107153 -0.26656 0)
(0.0314431 -0.224954 0)
(0.0739645 -0.187388 0)
(0.114159 -0.154992 0)
(0.150684 -0.127718 0)
(0.183038 -0.105051 0)
(0.211212 -0.0863372 0)
(0.235455 -0.0709381 0)
(0.256134 -0.0582804 0)
(0.273657 -0.0478728 0)
(0.288425 -0.0393022 0)
(0.300806 -0.0322247 0)
(0.311133 -0.0263547 0)
(0.319691 -0.0214552 0)
(0.326721 -0.0173292 0)
(0.332423 -0.0138118 0)
(0.33696 -0.0107639 0)
(0.340458 -0.00806625 0)
(0.34301 -0.00561473 0)
(0.34468 -0.00331545 0)
(0.345502 -0.0010806 0)
(0.345482 0.00117564 0)
(0.344598 0.00354121 0)
(0.342797 0.0061104 0)
(0.339995 0.0089883 0)
(0.336072 0.0122958 0)
(0.330868 0.0161752 0)
(0.32418 0.0207969 0)
(0.315755 0.0263668 0)
(0.305284 0.0331365 0)
(0.292403 0.0414136 0)
(0.276682 0.0515764 0)
(0.257641 0.0640889 0)
(0.234759 0.0795172 0)
(0.20752 0.0985421 0)
(0.175483 0.121955 0)
(0.138437 0.15061 0)
(0.0966437 0.185276 0)
(0.0512559 0.226267 0)
(0.00491608 0.272643 0)
(-0.0374881 0.320609 0)
(-0.0681112 0.360623 0)
(-0.0765374 0.373051 0)
(-0.055987 0.323369 0)
(-0.0189085 0.161058 0)
(-0.0116538 -0.11995 0)
(-0.0417346 -0.265747 0)
(-0.0719383 -0.332073 0)
(-0.0855709 -0.345229 0)
(-0.0813686 -0.328104 0)
(-0.0640209 -0.296425 0)
(-0.0385865 -0.259733 0)
(-0.00919464 -0.223262 0)
(0.0211868 -0.189564 0)
(0.0506439 -0.159661 0)
(0.0780689 -0.133754 0)
(0.102912 -0.11164 0)
(0.124983 -0.0929366 0)
(0.144313 -0.0772106 0)
(0.161057 -0.0640308 0)
(0.17543 -0.0529992 0)
(0.18767 -0.0437599 0)
(0.198012 -0.0360018 0)
(0.206675 -0.0294554 0)
(0.213855 -0.0238888 0)
(0.21972 -0.0191025 0)
(0.22441 -0.0149238 0)
(0.228036 -0.0112018 0)
(0.230683 -0.0078022 0)
(0.232407 -0.00460224 0)
(0.233239 -0.00148589 0)
(0.233181 0.00166097 0)
(0.232211 0.00495538 0)
(0.230277 0.0085223 0)
(0.227297 0.0124999 0)
(0.223158 0.0170451 0)
(0.217713 0.0223399 0)
(0.210778 0.0285974 0)
(0.202131 0.03607 0)
(0.191514 0.0450559 0)
(0.178637 0.0559076 0)
(0.163187 0.0690382 0)
(0.14485 0.0849249 0)
(0.123349 0.104104 0)
(0.0985105 0.127149 0)
(0.0703664 0.154611 0)
(0.0393193 0.186892 0)
(0.00637917 0.223985 0)
(-0.0265234 0.264993 0)
(-0.0561996 0.307285 0)
(-0.0780017 0.345136 0)
(-0.0860166 0.367797 0)
(-0.074524 0.357384 0)
(-0.0441714 0.288046 0)
(-0.0124838 0.130632 0)
(-0.00774866 -0.0991063 0)
(-0.0321529 -0.233263 0)
(-0.0632946 -0.306621 0)
(-0.0856783 -0.333748 0)
(-0.0950131 -0.330503 0)
(-0.0926904 -0.309595 0)
(-0.081598 -0.279937 0)
(-0.0647613 -0.247233 0)
(-0.0447766 -0.214849 0)
(-0.0236076 -0.184592 0)
(-0.0026115 -0.157297 0)
(0.0173464 -0.133226 0)
(0.0357667 -0.112315 0)
(0.0524059 -0.0943317 0)
(0.0671908 -0.0789698 0)
(0.0801543 -0.0658984 0)
(0.0913914 -0.0547926 0)
(0.101028 -0.0453484 0)
(0.109199 -0.0372891 0)
(0.116039 -0.0303667 0)
(0.121669 -0.0243608 0)
(0.126195 -0.0190756 0)
(0.129705 -0.014336 0)
(0.132264 -0.00998306 0)
(0.133918 -0.00586922 0)
(0.13469 -0.00185356 0)
(0.134579 0.00220341 0)
(0.133564 0.00644489 0)
(0.131595 0.0110231 0)
(0.128603 0.0161048 0)
(0.124488 0.0218768 0)
(0.119128 0.0285518 0)
(0.112375 0.0363739 0)
(0.104058 0.0456236 0)
(0.0939919 0.0566217 0)
(0.0819871 0.0697309 0)
(0.0678692 0.0853527 0)
(0.0515108 0.103916 0)
(0.0328806 0.125848 0)
(0.0121168 0.151523 0)
(-0.0103708 0.181159 0)
(-0.0337609 0.21464 0)
(-0.0566525 0.251217 0)
(-0.0768993 0.289032 0)
(-0.0915335 0.324403 0)
(-0.0969542 0.350885 0)
(-0.0895628 0.358256 0)
(-0.0673609 0.331921 0)
(-0.0346934 0.253932 0)
(-0.00843805 0.108278 0)
(-0.00543681 -0.0835005 0)
(-0.025365 -0.204555 0)
(-0.0547953 -0.27882 0)
(-0.0808089 -0.314225 0)
(-0.0981941 -0.321402 0)
(-0.106341 -0.310057 0)
(-0.106414 -0.287828 0)
(-0.100276 -0.260186 0)
(-0.0898801 -0.230774 0)
(-0.0769276 -0.201853 0)
(-0.062755 -0.174717 0)
(-0.0483372 -0.150017 0)
(-0.0343409 -0.12799 0)
(-0.0211908 -0.108626 0)
(-0.00913223 -0.0917703 0)
(0.00171617 -0.0771912 0)
(0.0113208 -0.0646254 0)
(0.0197018 -0.0538026 0)
(0.0269108 -0.0444606 0)
(0.0330139 -0.0363537 0)
(0.0380814 -0.0292548 0)
(0.0421792 -0.0229565 0)
(0.0453647 -0.0172682 0)
(0.0476824 -0.0120136 0)
(0.0491625 -0.00702642 0)
(0.0498188 -0.00214591 0)
(0.049648 0.00278799 0)
(0.0486287 0.00793967 0)
(0.0467214 0.013483 0)
(0.0438681 0.0196067 0)
(0.0399935 0.0265189 0)
(0.0350067 0.034452 0)
(0.0288048 0.0436661 0)
(0.0212792 0.0544508 0)
(0.0123265 0.0671246 0)
(0.00186444 0.082029 0)
(-0.0101433 0.099515 0)
(-0.0236516 0.119917 0)
(-0.0384843 0.143509 0)
(-0.054268 0.170422 0)
(-0.0703492 0.200529 0)
(-0.0857015 0.233244 0)
(-0.0988402 0.267242 0)
(-0.10779 0.300056 0)
(-0.110194 0.327571 0)
(-0.103693 0.343484 0)
(-0.0866522 0.338947 0)
(-0.0594646 0.302788 0)
(-0.0277883 0.223058 0)
(-0.00600184 0.0912617 0)
(-0.00403992 -0.0713249 0)
(-0.0205821 -0.17953 0)
(-0.0474655 -0.25126 0)
(-0.0743285 -0.290786 0)
(-0.0960646 -0.305142 0)
(-0.111036 -0.301514 0)
(-0.119238 -0.286126 0)
(-0.121567 -0.263855 0)
(-0.119301 -0.238254 0)
(-0.113749 -0.21175 0)
(-0.106067 -0.185906 0)
(-0.0971905 -0.161649 0)
(-0.0878329 -0.139463 0)
(-0.0785094 -0.119539 0)
(-0.069573 -0.101873 0)
(-0.061251 -0.086347 0)
(-0.0536776 -0.0727737 0)
(-0.0469213 -0.060934 0)
(-0.0410063 -0.0505971 0)
(-0.0359287 -0.0415336 0)
(-0.0316692 -0.0335229 0)
(-0.0282017 -0.0263563 0)
(-0.0255001 -0.019837 0)
(-0.0235425 -0.0137791 0)
(-0.0223146 -0.00800419 0)
(-0.0218119 -0.00233795 0)
(-0.0220411 0.00339429 0)
(-0.0230204 0.00937196 0)
(-0.0247799 0.0157839 0)
(-0.0273602 0.0228325 0)
(-0.030811 0.0307378 0)
(-0.0351872 0.0397401 0)
(-0.0405431 0.050101 0)
(-0.0469238 0.0621017 0)
(-0.0543523 0.0760369 0)
(-0.0628107 0.0922024 0)
(-0.0722154 0.110873 0)
(-0.0823829 0.132265 0)
(-0.0929874 0.15648 0)
(-0.10351 0.183414 0)
(-0.113187 0.212635 0)
(-0.120961 0.243196 0)
(-0.125473 0.273404 0)
(-0.125123 0.300519 0)
(-0.118273 0.320449 0)
(-0.103671 0.327514 0)
(-0.0810903 0.314486 0)
(-0.0522273 0.273136 0)
(-0.022803 0.195693 0)
(-0.00450575 0.0778159 0)
(-0.00315343 -0.0614639 0)
(-0.01713 -0.1577 0)
(-0.0413766 -0.225086 0)
(-0.0676555 -0.265897 0)
(-0.0913765 -0.284775 0)
(-0.110488 -0.286961 0)
(-0.12428 -0.277381 0)
(-0.13294 -0.260189 0)
(-0.137168 -0.238638 0)
(-0.137862 -0.215119 0)
(-0.135928 -0.191297 0)
(-0.132174 -0.168263 0)
(-0.127278 -0.146677 0)
(-0.12177 -0.126889 0)
(-0.116053 -0.109029 0)
(-0.110419 -0.0930855 0)
(-0.10507 -0.0789531 0)
(-0.100142 -0.0664716 0)
(-0.0957186 -0.0554508 0)
(-0.0918492 -0.0456884 0)
(-0.0885588 -0.0369797 0)
(-0.0858578 -0.0291237 0)
(-0.0837486 -0.0219258 0)
(-0.0822312 -0.0151978 0)
(-0.0813061 -0.00875583 0)
(-0.0809775 -0.0024185 0)
(-0.0812543 0.00399709 0)
(-0.0821508 0.0106788 0)
(-0.0836864 0.017823 0)
(-0.0858835 0.0256379 0)
(-0.0887652 0.0343458 0)
(-0.0923503 0.044184 0)
(-0.0966465 0.0554028 0)
(-0.10164 0.0682605 0)
(-0.107284 0.083013 0)
(-0.113476 0.0998952 0)
(-0.12004 0.119093 0)
(-0.126698 0.140699 0)
(-0.133035 0.164652 0)
(-0.138471 0.190646 0)
(-0.142234 0.218016 0)
(-0.143359 0.245583 0)
(-0.140728 0.271476 0)
(-0.133176 0.292943 0)
(-0.119732 0.306195 0)
(-0.100002 0.306375 0)
(-0.0746468 0.287787 0)
(-0.0459411 0.244508 0)
(-0.019117 0.171549 0)
(-0.00353928 0.0668301 0)
(-0.00255641 -0.0532421 0)
(-0.0145506 -0.138551 0)
(-0.0363386 -0.200734 0)
(-0.0613373 -0.240972 0)
(-0.0855797 -0.262343 0)
(-0.106944 -0.268652 0)
(-0.12435 -0.263728 0)
(-0.13751 -0.251015 0)
(-0.146676 -0.233369 0)
(-0.152383 -0.213019 0)
(-0.155277 -0.191614 0)
(-0.156002 -0.170312 0)
(-0.155145 -0.149877 0)
(-0.153205 -0.130769 0)
(-0.150587 -0.113227 0)
(-0.14761 -0.0973312 0)
(-0.144514 -0.0830507 0)
(-0.141477 -0.070285 0)
(-0.138627 -0.0588889 0)
(-0.136053 -0.0486924 0)
(-0.133815 -0.0395133 0)
(-0.131955 -0.0311654 0)
(-0.130498 -0.0234627 0)
(-0.129464 -0.0162209 0)
(-0.128866 -0.00925724 0)
(-0.128716 -0.00238924 0)
(-0.129022 0.00456802 0)
(-0.129796 0.0118043 0)
(-0.131045 0.0195166 0)
(-0.132775 0.0279113 0)
(-0.134983 0.0372047 0)
(-0.137654 0.0476216 0)
(-0.140756 0.0593914 0)
(-0.144226 0.0727397 0)
(-0.147959 0.0878743 0)
(-0.151793 0.104963 0)
(-0.15549 0.124102 0)
(-0.158717 0.14527 0)
(-0.161025 0.168267 0)
(-0.161839 0.192634 0)
(-0.160452 0.217553 0)
(-0.156059 0.24173 0)
(-0.147818 0.26327 0)
(-0.134984 0.279579 0)
(-0.117129 0.28731 0)
(-0.0944545 0.282453 0)
(-0.0681211 0.260619 0)
(-0.0405473 0.217601 0)
(-0.0162961 0.150225 0)
(-0.00287586 0.0576251 0)
(-0.00213027 -0.0462402 0)
(-0.0125539 -0.121645 0)
(-0.0321348 -0.178305 0)
(-0.0555525 -0.216796 0)
(-0.0794386 -0.239177 0)
(-0.101775 -0.24821 0)
(-0.121323 -0.24685 0)
(-0.137508 -0.237897 0)
(-0.150259 -0.223794 0)
(-0.159819 -0.206542 0)
(-0.166596 -0.187696 0)
(-0.171067 -0.168408 0)
(-0.173705 -0.149484 0)
(-0.174944 -0.131453 0)
(-0.175164 -0.114629 0)
(-0.174677 -0.0991622 0)
(-0.173738 -0.085088 0)
(-0.172547 -0.0723594 0)
(-0.171259 -0.0608754 0)
(-0.169988 -0.0505001 0)
(-0.168821 -0.0410775 0)
(-0.167822 -0.0324403 0)
(-0.167037 -0.024416 0)
(-0.166497 -0.0168295 0)
(-0.166228 -0.00950437 0)
(-0.166246 -0.00226239 0)
(-0.16656 0.00507775 0)
(-0.167176 0.0127019 0)
(-0.168092 0.0208016 0)
(-0.169296 0.0295749 0)
(-0.170764 0.0392251 0)
(-0.172455 0.049958 0)
(-0.1743 0.0619754 0)
(-0.176201 0.0754647 0)
(-0.178012 0.0905824 0)
(-0.179533 0.10743 0)
(-0.180491 0.126023 0)
(-0.180537 0.146243 0)
(-0.179229 0.167786 0)
(-0.176042 0.190091 0)
(-0.170379 0.21226 0)
(-0.161616 0.232978 0)
(-0.149184 0.250435 0)
(-0.132692 0.262287 0)
(-0.112119 0.265677 0)
(-0.0880469 0.257367 0)
(-0.0618657 0.234025 0)
(-0.0359083 0.192684 0)
(-0.0140629 0.131339 0)
(-0.00239335 0.049775 0)
(-0.00181063 -0.0401848 0)
(-0.0109603 -0.10663 0)
(-0.0285876 -0.157749 0)
(-0.0503356 -0.193781 0)
(-0.0733609 -0.216118 0)
(-0.095824 -0.226773 0)
(-0.116457 -0.228016 0)
(-0.13453 -0.222102 0)
(-0.149755 -0.211079 0)
(-0.162153 -0.1967 0)
(-0.171936 -0.180381 0)
(-0.179423 -0.163216 0)
(-0.184972 -0.146008 0)
(-0.188939 -0.129317 0)
(-0.191655 -0.1135 0)
(-0.19341 -0.0987605 0)
(-0.194452 -0.0851828 0)
(-0.194986 -0.0727664 0)
(-0.195177 -0.0614498 0)
(-0.195157 -0.0511306 0)
(-0.195028 -0.0416795 0)
(-0.194869 -0.0329506 0)
(-0.194738 -0.0247879 0)
(-0.194679 -0.0170294 0)
(-0.194723 -0.00950916 0)
(-0.194889 -0.00205756 0)
(-0.195187 0.00549844 0)
(-0.195617 0.0133359 0)
(-0.196168 0.021636 0)
(-0.196814 0.0305832 0)
(-0.197513 0.0403632 0)
(-0.198203 0.0511582 0)
(-0.198792 0.063139 0)
(-0.199153 0.0764532 0)
(-0.199118 0.0912079 0)
(-0.198467 0.107445 0)
(-0.196921 0.125112 0)
(-0.194139 0.144016 0)
(-0.189718 0.163784 0)
(-0.183209 0.183799 0)
(-0.17414 0.203145 0)
(-0.16207 0.220555 0)
(-0.146666 0.234368 0)
(-0.12782 0.242532 0)
(-0.105791 0.242663 0)
(-0.0813779 0.232187 0)
(-0.0560335 0.208598 0)
(-0.0318964 0.169809 0)
(-0.0122453 0.114569 0)
(-0.00202538 0.0429975 0)
(-0.00156168 -0.0348877 0)
(-0.0096585 -0.0932237 0)
(-0.0255667 -0.138948 0)
(-0.0456706 -0.172118 0)
(-0.067569 -0.193681 0)
(-0.0896227 -0.205112 0)
(-0.110607 -0.208156 0)
(-0.129722 -0.204614 0)
(-0.146546 -0.196186 0)
(-0.160941 -0.184374 0)
(-0.172964 -0.170437 0)
(-0.182798 -0.155382 0)
(-0.190693 -0.139976 0)
(-0.196924 -0.124778 0)
(-0.201765 -0.110164 0)
(-0.205471 -0.0963693 0)
(-0.20827 -0.0835151 0)
(-0.210359 -0.0716364 0)
(-0.211904 -0.0607056 0)
(-0.213041 -0.0506502 0)
(-0.213879 -0.0413669 0)
(-0.214507 -0.0327315 0)
(-0.21499 -0.0246065 0)
(-0.215378 -0.0168452 0)
(-0.215706 -0.00929501 0)
(-0.215995 -0.00179844 0)
(-0.216254 0.00580575 0)
(-0.216478 0.0136822 0)
(-0.216647 0.0219978 0)
(-0.216726 0.0309203 0)
(-0.216659 0.0406144 0)
(-0.216369 0.0512367 0)
(-0.215747 0.0629263 0)
(-0.214655 0.0757929 0)
(-0.212912 0.0898989 0)
(-0.210296 0.105237 0)
(-0.20654 0.1217 0)
(-0.201332 0.139048 0)
(-0.194325 0.156866 0)
(-0.185158 0.174524 0)
(-0.173484 0.191134 0)
(-0.159027 0.205517 0)
(-0.141649 0.216198 0)
(-0.121449 0.22142 0)
(-0.0988687 0.219226 0)
(-0.0748101 0.207593 0)
(-0.0506892 0.184644 0)
(-0.0284129 0.148915 0)
(-0.0107366 0.099636 0)
(-0.0017349 0.0370944 0)
(-0.00136267 -0.0302118 0)
(-0.00857864 -0.0811945 0)
(-0.0229802 -0.121759 0)
(-0.0415282 -0.151862 0)
(-0.0621871 -0.172156 0)
(-0.0835119 -0.183729 0)
(-0.104357 -0.187923 0)
(-0.123909 -0.186172 0)
(-0.141669 -0.179871 0)
(-0.15739 -0.170292 0)
(-0.171014 -0.158532 0)
(-0.182614 -0.145494 0)
(-0.192343 -0.131889 0)
(-0.200399 -0.118251 0)
(-0.206999 -0.104958 0)
(-0.212355 -0.0922593 0)
(-0.216668 -0.0802976 0)
(-0.220119 -0.0691348 0)
(-0.222865 -0.0587701 0)
(-0.225039 -0.0491568 0)
(-0.226751 -0.0402149 0)
(-0.228092 -0.0318416 0)
(-0.229131 -0.0239179 0)
(-0.22992 -0.0163139 0)
(-0.230497 -0.00889221 0)
(-0.230882 -0.00150969 0)
(-0.231082 0.00598058 0)
(-0.231087 0.0137282 0)
(-0.230873 0.0218835 0)
(-0.230395 0.0305953 0)
(-0.22959 0.0400061 0)
(-0.228371 0.0502466 0)
(-0.226622 0.0614259 0)
(-0.224199 0.0736192 0)
(-0.220924 0.0868517 0)
(-0.216585 0.101077 0)
(-0.210938 0.116152 0)
(-0.203713 0.131808 0)
(-0.194627 0.147618 0)
(-0.183407 0.162966 0)
(-0.169824 0.177024 0)
(-0.153739 0.188729 0)
(-0.135168 0.196798 0)
(-0.114353 0.199755 0)
(-0.0918427 0.196012 0)
(-0.0685686 0.18399 0)
(-0.0458584 0.162289 0)
(-0.0253864 0.12988 0)
(-0.0094696 0.0863044 0)
(-0.00150041 0.0319172 0)
(-0.00120106 -0.0260517 0)
(-0.0076754 -0.0703477 0)
(-0.0207632 -0.106023 0)
(-0.0378782 -0.132986 0)
(-0.0572838 -0.151687 0)
(-0.0777121 -0.162934 0)
(-0.0981096 -0.167762 0)
(-0.117682 -0.167308 0)
(-0.135893 -0.162711 0)
(-0.152428 -0.155035 0)
(-0.167143 -0.145219 0)
(-0.180024 -0.134059 0)
(-0.191144 -0.122197 0)
(-0.200633 -0.110127 0)
(-0.208651 -0.0982124 0)
(-0.215368 -0.0867032 0)
(-0.220954 -0.0757537 0)
(-0.225567 -0.0654424 0)
(-0.22935 -0.0557883 0)
(-0.232429 -0.0467657 0)
(-0.234909 -0.0383151 0)
(-0.236879 -0.030353 0)
(-0.238407 -0.0227788 0)
(-0.239547 -0.0154796 0)
(-0.240333 -0.00833389 0)
(-0.240787 -0.00121441 0)
(-0.240911 0.00601001 0)
(-0.240695 0.0134724 0)
(-0.240107 0.0213054 0)
(-0.2391 0.0296379 0)
(-0.237605 0.0385905 0)
(-0.23553 0.0482691 0)
(-0.23276 0.0587556 0)
(-0.229153 0.0700965 0)
(-0.224541 0.0822871 0)
(-0.21873 0.0952537 0)
(-0.211509 0.108832 0)
(-0.202654 0.122742 0)
(-0.191948 0.136567 0)
(-0.179201 0.149728 0)
(-0.164285 0.161472 0)
(-0.147172 0.170867 0)
(-0.127992 0.176815 0)
(-0.107082 0.178094 0)
(-0.0850445 0.173429 0)
(-0.0627938 0.161592 0)
(-0.0415477 0.14154 0)
(-0.0227645 0.112552 0)
(-0.00840049 0.0743646 0)
(-0.00130873 0.0273486 0)
(-0.00106883 -0.0223222 0)
(-0.00691827 -0.0605147 0)
(-0.0188686 -0.0915811 0)
(-0.0346923 -0.115409 0)
(-0.0528953 -0.132313 0)
(-0.0723645 -0.142896 0)
(-0.0921399 -0.147955 0)
(-0.111463 -0.148392 0)
(-0.129788 -0.145129 0)
(-0.146758 -0.139046 0)
(-0.162171 -0.130941 0)
(-0.175944 -0.121498 0)
(-0.188088 -0.111285 0)
(-0.198672 -0.100749 0)
(-0.207806 -0.0902271 0)
(-0.21562 -0.0799594 0)
(-0.222251 -0.0701015 0)
(-0.227833 -0.0607408 0)
(-0.232492 -0.05191 0)
(-0.236342 -0.0435992 0)
(-0.239481 -0.0357661 0)
(-0.241992 -0.0283446 0)
(-0.24394 -0.0212509 0)
(-0.245376 -0.0143887 0)
(-0.246334 -0.00765284 0)
(-0.246832 -0.000932274 0)
(-0.246871 0.00588776 0)
(-0.246436 0.0129232 0)
(-0.245496 0.0202885 0)
(-0.243998 0.0280931 0)
(-0.241874 0.0364367 0)
(-0.239032 0.0454028 0)
(-0.235361 0.05505 0)
(-0.230725 0.0654014 0)
(-0.224974 0.0764311 0)
(-0.217938 0.0880483 0)
(-0.209439 0.10008 0)
(-0.199304 0.112251 0)
(-0.187374 0.124169 0)
(-0.173535 0.135307 0)
(-0.157741 0.144999 0)
(-0.140055 0.15244 0)
(-0.120685 0.156709 0)
(-0.100024 0.156805 0)
(-0.0786958 0.151711 0)
(-0.0575709 0.140479 0)
(-0.0377523 0.12233 0)
(-0.0205079 0.0967594 0)
(-0.00749914 0.0636287 0)
(-0.00115132 0.0232918 0)
(-0.000960565 -0.0189525 0)
(-0.00628567 -0.0515461 0)
(-0.0172611 -0.0782739 0)
(-0.0319438 -0.0990206 0)
(-0.0490363 -0.114006 0)
(-0.0675567 -0.123682 0)
(-0.0866328 -0.128663 0)
(-0.10555 -0.129661 0)
(-0.123767 -0.127418 0)
(-0.140906 -0.122655 0)
(-0.156723 -0.116037 0)
(-0.171089 -0.108146 0)
(-0.183961 -0.0994721 0)
(-0.195361 -0.0904112 0)
(-0.205354 -0.081267 0)
(-0.214033 -0.072261 0)
(-0.221504 -0.063543 0)
(-0.227877 -0.0552027 0)
(-0.23326 -0.0472805 0)
(-0.237754 -0.039778 0)
(-0.241445 -0.0326667 0)
(-0.24441 -0.0258953 0)
(-0.24671 -0.0193954 0)
(-0.248391 -0.0130865 0)
(-0.249484 -0.00687919 0)
(-0.250005 -0.000678473 0)
(-0.249954 0.00561398 0)
(-0.249313 0.0120971 0)
(-0.248048 0.0188678 0)
(-0.246109 0.0260169 0)
(-0.243426 0.033625 0)
(-0.239912 0.041756 0)
(-0.235462 0.0504496 0)
(-0.229955 0.0597114 0)
(-0.223255 0.0695016 0)
(-0.215221 0.0797218 0)
(-0.205711 0.0902005 0)
(-0.194594 0.10068 0)
(-0.18177 0.110801 0)
(-0.167185 0.120099 0)
(-0.150863 0.127996 0)
(-0.13293 0.133811 0)
(-0.113649 0.136784 0)
(-0.0934469 0.136102 0)
(-0.0729398 0.130964 0)
(-0.0529464 0.120636 0)
(-0.0344598 0.104541 0)
(-0.0185846 0.082325 0)
(-0.00674356 0.0539255 0)
(-0.00102226 0.019664 0)
(-0.000872384 -0.0158815 0)
(-0.00576155 -0.043308 0)
(-0.0159125 -0.0659469 0)
(-0.0296078 -0.0836903 0)
(-0.0457071 -0.0966926 0)
(-0.0633385 -0.105292 0)
(-0.0817077 -0.109961 0)
(-0.100144 -0.111258 0)
(-0.118123 -0.109774 0)
(-0.135254 -0.106092 0)
(-0.151269 -0.10076 0)
(-0.166004 -0.0942621 0)
(-0.179376 -0.0870147 0)
(-0.191367 -0.0793575 0)
(-0.202006 -0.0715571 0)
(-0.211353 -0.0638116 0)
(-0.219485 -0.056259 0)
(-0.226491 -0.0489856 0)
(-0.23246 -0.0420349 0)
(-0.237478 -0.035416 0)
(-0.241623 -0.0291109 0)
(-0.244961 -0.0230807 0)
(-0.247549 -0.0172707 0)
(-0.249427 -0.0116149 0)
(-0.250625 -0.00603894 0)
(-0.251153 -0.000463203 0)
(-0.251012 0.00519472 0)
(-0.250181 0.0110175 0)
(-0.248627 0.0170852 0)
(-0.2463 0.0234717 0)
(-0.243133 0.0302407 0)
(-0.239044 0.0374397 0)
(-0.233938 0.0450935 0)
(-0.227707 0.0531958 0)
(-0.220236 0.0616996 0)
(-0.211408 0.0705064 0)
(-0.201115 0.0794554 0)
(-0.189267 0.0883126 0)
(-0.175811 0.0967624 0)
(-0.160746 0.104402 0)
(-0.144147 0.110745 0)
(-0.126188 0.115226 0)
(-0.107168 0.117224 0)
(-0.0875263 0.116092 0)
(-0.0678632 0.111199 0)
(-0.0489403 0.101988 0)
(-0.0316523 0.0880259 0)
(-0.0169672 0.0690688 0)
(-0.00611672 0.0450975 0)
(-0.000917203 0.0163932 0)
(-0.00080139 -0.013056 0)
(-0.00533341 -0.0356784 0)
(-0.0147996 -0.0544509 0)
(-0.0276599 -0.0692782 0)
(-0.0428988 -0.0802687 0)
(-0.0597338 -0.0876744 0)
(-0.0774377 -0.0918563 0)
(-0.0953818 -0.0932463 0)
(-0.113058 -0.0923092 0)
(-0.130077 -0.0895098 0)
(-0.146153 -0.0852879 0)
(-0.161097 -0.0800403 0)
(-0.174798 -0.0741102 0)
(-0.187206 -0.0677823 0)
(-0.198319 -0.061283 0)
(-0.20817 -0.0547836 0)
(-0.216812 -0.0484059 0)
(-0.224313 -0.0422287 0)
(-0.230746 -0.0362946 0)
(-0.236183 -0.0306168 0)
(-0.24069 -0.0251849 0)
(-0.244328 -0.0199702 0)
(-0.247146 -0.0149299 0)
(-0.24918 -0.010011 0)
(-0.250454 -0.00515333 0)
(-0.25098 -0.00029175 0)
(-0.250753 0.00464107 0)
(-0.249754 0.00971245 0)
(-0.247949 0.014987 0)
(-0.24529 0.0205233 0)
(-0.241715 0.0263704 0)
(-0.237148 0.0325626 0)
(-0.231503 0.0391138 0)
(-0.224686 0.0460105 0)
(-0.216601 0.0532041 0)
(-0.207156 0.0606027 0)
(-0.196272 0.0680618 0)
(-0.183894 0.0753778 0)
(-0.170009 0.0822814 0)
(-0.154656 0.0884355 0)
(-0.137951 0.0934382 0)
(-0.120102 0.0968318 0)
(-0.101428 0.09812 0)
(-0.0823728 0.0967941 0)
(-0.0635117 0.0923672 0)
(-0.0455534 0.0844152 0)
(-0.0293079 0.0726211 0)
(-0.0156316 0.0568141 0)
(-0.00560474 0.0370001 0)
(-0.000832777 0.0134157 0)
(-0.000745344 -0.0104286 0)
(-0.00499125 -0.028546 0)
(-0.0139028 -0.0436428 0)
(-0.0260773 -0.0556399 0)
(-0.0405965 -0.0646126 0)
(-0.0567491 -0.0707463 0)
(-0.073863 -0.0743117 0)
(-0.0913462 -0.0756368 0)
(-0.108709 -0.0750787 0)
(-0.125565 -0.072998 0)
(-0.141619 -0.0697396 0)
(-0.156667 -0.0656177 0)
(-0.170573 -0.0609069 0)
(-0.183265 -0.0558374 0)
(-0.194718 -0.0505943 0)
(-0.20494 -0.0453198 0)
(-0.213965 -0.0401166 0)
(-0.221844 -0.0350525 0)
(-0.228634 -0.0301664 0)
(-0.234396 -0.0254727 0)
(-0.239188 -0.020966 0)
(-0.24306 -0.0166258 0)
(-0.246056 -0.0124198 0)
(-0.248209 -0.00830653 0)
(-0.249539 -0.00423872 0)
(-0.250055 -0.000164903 0)
(-0.249751 0.00396821 0)
(-0.248609 0.00821369 0)
(-0.246594 0.012622 0)
(-0.243661 0.0172383 0)
(-0.239752 0.0220992 0)
(-0.234798 0.0272285 0)
(-0.228722 0.0326327 0)
(-0.221444 0.0382953 0)
(-0.212884 0.044171 0)
(-0.202972 0.0501786 0)
(-0.191653 0.0561953 0)
(-0.178903 0.0620512 0)
(-0.164738 0.0675255 0)
(-0.149232 0.0723457 0)
(-0.132528 0.0761914 0)
(-0.114857 0.0787021 0)
(-0.096551 0.0794921 0)
(-0.0780489 0.0781711 0)
(-0.059903 0.0743706 0)
(-0.0427745 0.067775 0)
(-0.0274027 0.0581536 0)
(-0.0145557 0.0453894 0)
(-0.00519604 0.0294993 0)
(-0.000766306 0.0106747 0)
(-0.000702498 -0.00795687 0)
(-0.00472703 -0.0218079 0)
(-0.0132057 -0.0333863 0)
(-0.0248393 -0.0426305 0)
(-0.038783 -0.0495915 0)
(-0.05438 -0.0544018 0)
(-0.071002 -0.0572577 0)
(-0.0880871 -0.0583993 0)
(-0.105163 -0.0580904 0)
(-0.121845 -0.0565997 0)
(-0.137838 -0.054186 0)
(-0.152923 -0.051087 0)
(-0.16695 -0.0475121 0)
(-0.179829 -0.0436384 0)
(-0.191516 -0.0396095 0)
(-0.202003 -0.0355369 0)
(-0.211308 -0.0315021 0)
(-0.219465 -0.02756 0)
(-0.226522 -0.0237429 0)
(-0.232529 -0.0200644 0)
(-0.237533 -0.0165222 0)
(-0.241582 -0.0131024 0)
(-0.244712 -0.00978114 0)
(-0.246953 -0.00652788 0)
(-0.248322 -0.00330696 0)
(-0.248826 -7.96032e-05 0)
(-0.248457 0.00319442 0)
(-0.247197 0.00655501 0)
(-0.245015 0.0100399 0)
(-0.241865 0.0136822 0)
(-0.237694 0.0175083 0)
(-0.23244 0.0215339 0)
(-0.226033 0.0257611 0)
(-0.218405 0.0301738 0)
(-0.209491 0.0347331 0)
(-0.199236 0.0393726 0)
(-0.187608 0.0439943 0)
(-0.174605 0.0484642 0)
(-0.160268 0.0526109 0)
(-0.144693 0.056225 0)
(-0.128045 0.059063 0)
(-0.11057 0.0608536 0)
(-0.0926057 0.0613094 0)
(-0.0745846 0.0601424 0)
(-0.0570373 0.0570841 0)
(-0.0405854 0.0519071 0)
(-0.0259131 0.0444487 0)
(-0.0137202 0.0346303 0)
(-0.00488097 0.0224715 0)
(-0.000715648 0.00811935 0)
(-0.000671509 -0.00560234 0)
(-0.00453441 -0.0153686 0)
(-0.0126949 -0.0235514 0)
(-0.0239279 -0.0301065 0)
(-0.0374408 -0.035067 0)
(-0.0526169 -0.0385215 0)
(-0.0688599 -0.040603 0)
(-0.085631 -0.0414755 0)
(-0.102471 -0.04132 0)
(-0.119001 -0.0403223 0)
(-0.134922 -0.0386621 0)
(-0.150009 -0.0365058 0)
(-0.164103 -0.0340004 0)
(-0.177099 -0.0312714 0)
(-0.188941 -0.028421 0)
(-0.199608 -0.0255291 0)
(-0.209105 -0.0226547 0)
(-0.217458 -0.0198383 0)
(-0.224704 -0.0171039 0)
(-0.230883 -0.0144623 0)
(-0.23604 -0.0119132 0)
(-0.240214 -0.00944748 0)
(-0.24344 -0.00704903 0)
(-0.245742 -0.00469679 0)
(-0.247136 -0.00236602 0)
(-0.247628 -2.96908e-05 0)
(-0.247209 0.00234022 0)
(-0.245861 0.00477145 0)
(-0.243552 0.00729003 0)
(-0.240242 0.00991867 0)
(-0.235879 0.0126748 0)
(-0.230404 0.0155684 0)
(-0.223758 0.0185992 0)
(-0.21588 0.0217539 0)
(-0.206714 0.025003 0)
(-0.196222 0.0282974 0)
(-0.184386 0.0315658 0)
(-0.171219 0.0347118 0)
(-0.156782 0.0376132 0)
(-0.141186 0.0401222 0)
(-0.124611 0.0420678 0)
(-0.107312 0.0432614 0)
(-0.0896301 0.0435042 0)
(-0.07199 0.0425991 0)
(-0.0549047 0.0403633 0)
(-0.0389662 0.0366436 0)
(-0.0248173 0.0313324 0)
(-0.0131088 0.0243794 0)
(-0.0046517 0.0158018 0)
(-0.000679118 0.0057033 0)
(-0.00065139 -0.00332937 0)
(-0.00440863 -0.00913867 0)
(-0.0123603 -0.0140133 0)
(-0.0233286 -0.0179269 0)
(-0.0365552 -0.0208979 0)
(-0.051449 -0.0229773 0)
(-0.0674351 -0.0242421 0)
(-0.08399 -0.0247877 0)
(-0.100664 -0.0247199 0)
(-0.117082 -0.0241477 0)
(-0.132944 -0.023177 0)
(-0.148021 -0.0219061 0)
(-0.162147 -0.0204222 0)
(-0.175211 -0.0188002 0)
(-0.187146 -0.0171012 0)
(-0.197924 -0.0153732 0)
(-0.207542 -0.013652 0)
(-0.216019 -0.0119621 0)
(-0.223384 -0.0103186 0)
(-0.229674 -0.00872836 0)
(-0.234928 -0.00719154 0)
(-0.239183 -0.00570307 0)
(-0.242469 -0.00425372 0)
(-0.24481 -0.00283113 0)
(-0.24622 -0.00142075 0)
(-0.246702 -6.65994e-06 0)
(-0.246249 0.00142767 0)
(-0.244842 0.00289856 0)
(-0.24245 0.00442126 0)
(-0.239033 0.00600898 0)
(-0.234543 0.00767166 0)
(-0.228925 0.00941469 0)
(-0.222124 0.0112373 0)
(-0.214084 0.0131308 0)
(-0.204759 0.0150767 0)
(-0.194117 0.0170451 0)
(-0.182153 0.0189925 0)
(-0.16889 0.020861 0)
(-0.154399 0.0225774 0)
(-0.138804 0.0240537 0)
(-0.122292 0.0251886 0)
(-0.105124 0.025871 0)
(-0.0876416 0.0259844 0)
(-0.0702643 0.0254136 0)
(-0.0534926 0.0240525 0)
(-0.0378984 0.021813 0)
(-0.0240975 0.0186335 0)
(-0.0127087 0.0144862 0)
(-0.00450223 0.00938253 0)
(-0.000655462 0.00338405 0)
(-0.000641491 -0.00110447 0)
(-0.00434654 -0.00303251 0)
(-0.0121947 -0.00465154 0)
(-0.0230316 -0.00595277 0)
(-0.0361153 -0.00694217 0)
(-0.0508676 -0.00763635 0)