/*--------------------------------*- C++ -*----------------------------------*\
  =========                 |
  \\      /  F ield         | OpenFOAM: The Open Source CFD Toolbox
   \\    /   O peration     | Website:  https://openfoam.org
    \\  /    A nd           | Version:  7
     \\/     M anipulation  |
\*---------------------------------------------------------------------------*/
FoamFile
{
    version     2.0;
    format      ascii;
    class       surfaceScalarField;
    location    "0.066";
    object      phi;
}
// * * * * * * * * * * * * * * * * * * * * * * * * * * * * * * * * * * * * * //

dimensions      [0 3 -1 0 0 0 0];

internalField   nonuniform List<scalar> 
4900
(
-5.55539e-06
5.5554e-06
-1.0161e-05
4.6056e-06
-1.29489e-05
2.78787e-06
-1.46694e-05
1.72053e-06
-1.57723e-05
1.10292e-06
-1.65117e-05
7.39337e-07
-1.70328e-05
5.2114e-07
-1.74177e-05
3.84855e-07
-1.77128e-05
2.9517e-07
-1.79459e-05
2.33048e-07
-1.81339e-05
1.88059e-07
-1.82882e-05
1.54234e-07
-1.84162e-05
1.27986e-07
-1.85232e-05
1.07055e-07
-1.86132e-05
8.99524e-08
-1.86888e-05
7.56589e-08
-1.87523e-05
6.34557e-08
-1.88051e-05
5.28211e-08
-1.88485e-05
4.33671e-08
-1.88833e-05
3.4799e-08
-1.89101e-05
2.68877e-08
-1.89296e-05
1.94512e-08
-1.89419e-05
1.23414e-08
-1.89474e-05
5.4337e-09
-1.8946e-05
-1.38087e-09
-1.89378e-05
-8.19898e-09
-1.89227e-05
-1.51158e-08
-1.89005e-05
-2.22254e-08
-1.88708e-05
-2.96284e-08
-1.88334e-05
-3.74383e-08
-1.87876e-05
-4.5789e-08
-1.87328e-05
-5.48449e-08
-1.86679e-05
-6.48147e-08
-1.8592e-05
-7.59708e-08
-1.85033e-05
-8.86773e-08
-1.83999e-05
-1.03432e-07
-1.82789e-05
-1.20933e-07
-1.81367e-05
-1.42181e-07
-1.79681e-05
-1.68665e-07
-1.77654e-05
-2.02667e-07
-1.75176e-05
-2.4784e-07
-1.72073e-05
-3.10274e-07
-1.68067e-05
-4.00555e-07
-1.6269e-05
-5.3773e-07
-1.55127e-05
-7.56287e-07
-1.43968e-05
-1.11592e-06
-1.26818e-05
-1.71505e-06
-9.94602e-06
-2.73574e-06
-5.45248e-06
-4.49353e-06
-5.45248e-06
-1.18968e-08
5.5673e-06
-2.13075e-06
6.72445e-06
-4.85844e-06
5.51556e-06
-7.27658e-06
4.13867e-06
-9.21607e-06
3.04241e-06
-1.07296e-05
2.25286e-06
-1.19104e-05
1.70195e-06
-1.28415e-05
1.31592e-06
-1.35861e-05
1.03982e-06
-1.41903e-05
8.37208e-07
-1.46867e-05
6.84518e-07
-1.5099e-05
5.66477e-07
-1.5444e-05
4.73017e-07
-1.57343e-05
3.97349e-07
-1.59791e-05
3.3478e-07
-1.61855e-05
2.81987e-07
-1.63586e-05
2.36563e-07
-1.65025e-05
1.96729e-07
-1.66202e-05
1.6114e-07
-1.67142e-05
1.28761e-07
-1.67861e-05
9.87822e-08
-1.68372e-05
7.05523e-08
-1.68684e-05
4.35374e-08
-1.68803e-05
1.72866e-08
-1.6873e-05
-8.59322e-09
-1.68468e-05
-3.44612e-08
-1.68012e-05
-6.06588e-08
-1.67359e-05
-8.75303e-08
-1.66501e-05
-1.15441e-07
-1.65428e-05
-1.44799e-07
-1.64125e-05
-1.76083e-07
-1.62574e-05
-2.09874e-07
-1.60754e-05
-2.46902e-07
-1.58632e-05
-2.88108e-07
-1.56172e-05
-3.34729e-07
-1.53322e-05
-3.88426e-07
-1.50016e-05
-4.51472e-07
-1.46168e-05
-5.27038e-07
-1.41658e-05
-6.19634e-07
-1.36327e-05
-7.35817e-07
-1.29952e-05
-8.85317e-07
-1.22226e-05
-1.08283e-06
-1.12724e-05
-1.3508e-06
-1.00866e-05
-1.72347e-06
-8.5915e-06
-2.25142e-06
-6.70691e-06
-3.00052e-06
-4.39323e-06
-4.02874e-06
-1.81862e-06
-5.31034e-06
1.24321e-07
-6.43647e-06
-5.32816e-06
1.03239e-06
4.53491e-06
5.4663e-07
7.21021e-06
-9.93167e-07
7.05536e-06
-2.88964e-06
6.03515e-06
-4.74901e-06
4.90178e-06
-6.41076e-06
3.91462e-06
-7.83545e-06
3.12664e-06
-9.03611e-06
2.51657e-06
-1.0043e-05
2.04676e-06
-1.08884e-05
1.68256e-06
-1.16005e-05
1.39665e-06
-1.22028e-05
1.1687e-06
-1.27137e-05
9.83908e-07
-1.31478e-05
8.31504e-07
-1.35166e-05
7.03616e-07
-1.38291e-05
5.94425e-07
-1.40921e-05
4.99572e-07
-1.43111e-05
4.15744e-07
-1.44904e-05
3.40387e-07
-1.46331e-05
2.71502e-07
-1.47418e-05
2.07499e-07
-1.48183e-05
1.47085e-07
-1.4864e-05
8.91926e-08
-1.48796e-05
3.29115e-08
-1.48657e-05
-2.2555e-08
-1.48222e-05
-7.79347e-08
-1.47489e-05
-1.33921e-07
-1.46452e-05
-1.91207e-07
-1.45102e-05
-2.50526e-07
-1.43423e-05
-3.12687e-07
-1.41397e-05
-3.78627e-07
-1.39001e-05
-4.49468e-07
-1.36204e-05
-5.26601e-07
-1.32968e-05
-6.11781e-07
-1.29242e-05
-7.07274e-07
-1.24966e-05
-8.16048e-07
-1.2006e-05
-9.42045e-07
-1.14425e-05
-1.09056e-06
-1.07933e-05
-1.2688e-06
-1.00425e-05
-1.48661e-06
-9.17034e-06
-1.75751e-06
-8.15328e-06
-2.09989e-06
-6.96585e-06
-2.53823e-06
-5.58632e-06
-3.103e-06
-4.01136e-06
-3.82637e-06
-2.28771e-06
-4.72417e-06
-5.72558e-07
-5.74389e-06
7.66867e-07
-6.64977e-06
1.08779e-06
-6.7574e-06
-4.24037e-06
9.06113e-07
3.6288e-06
1.22761e-06
6.88871e-06
6.41158e-07
7.64181e-06
-5.27368e-07
7.20367e-06
-1.94906e-06
6.32348e-06
-3.40566e-06
5.37122e-06
-4.78016e-06
4.50114e-06
-6.02274e-06
3.75915e-06
-7.12081e-06
3.14484e-06
-8.0797e-06
2.64145e-06
-8.91195e-06
2.2289e-06
-9.63196e-06
1.88871e-06
-1.02535e-05
1.60546e-06
-1.07888e-05
1.3668e-06
-1.12482e-05
1.16304e-06
-1.16404e-05
9.86601e-07
-1.19724e-05
8.31563e-07
-1.22499e-05
6.93266e-07
-1.24776e-05
5.68021e-07
-1.26589e-05
4.52869e-07
-1.27968e-05
3.45413e-07
-1.28934e-05
2.4368e-07
-1.29503e-05
1.46015e-07
-1.29683e-05
5.09979e-08
-1.29483e-05
-4.26224e-08
-1.28902e-05
-1.35989e-07
-1.2794e-05
-2.3019e-07
-1.26589e-05
-3.26307e-07
-1.24839e-05
-4.25469e-07
-1.22677e-05
-5.28909e-07
-1.20083e-05
-6.38031e-07
-1.17033e-05
-7.54487e-07
-1.13496e-05
-8.80281e-07
-1.09435e-05
-1.01789e-06
-1.04803e-05
-1.17042e-06
-9.95454e-06
-1.34183e-06
-9.3594e-06
-1.53718e-06
-8.68699e-06
-1.76298e-06
-7.92825e-06
-2.02754e-06
-7.0734e-06
-2.34146e-06
-6.11301e-06
-2.7179e-06
-5.04048e-06
-3.17242e-06
-3.85714e-06
-3.72157e-06
-2.5818e-06
-4.37834e-06
-1.26752e-06
-5.14066e-06
-2.65956e-08
-5.96509e-06
9.42823e-07
-6.71331e-06
1.34944e-06
-7.05638e-06
9.17061e-07
-6.32502e-06
-3.32331e-06
6.71401e-07
2.9574e-06
1.24215e-06
6.31796e-06
1.22015e-06
7.66381e-06
6.46146e-07
7.77768e-06
-2.92375e-07
7.262e-06
-1.41304e-06
6.49188e-06
-2.58346e-06
5.67156e-06
-3.72228e-06
4.89797e-06
-4.78597e-06
4.20853e-06
-5.75518e-06
3.61066e-06
-6.62462e-06
3.09834e-06
-7.39645e-06
2.66054e-06
-8.07635e-06
2.28536e-06
-8.67129e-06
1.96174e-06
-9.18833e-06
1.68007e-06
-9.63401e-06
1.43228e-06
-1.00141e-05
1.2117e-06
-1.03337e-05
1.01285e-06
-1.05969e-05
8.31219e-07
-1.08072e-05
6.63112e-07
-1.09672e-05
5.05447e-07
-1.10792e-05
3.55646e-07
-1.11447e-05
2.11514e-07
-1.11648e-05
7.11495e-08
-1.11403e-05
-6.71372e-08
-1.10714e-05
-2.0489e-07
-1.0958e-05
-3.43575e-07
-1.07997e-05
-4.84637e-07
-1.05956e-05
-6.29566e-07
-1.03445e-05
-7.79962e-07
-1.0045e-05
-9.37613e-07
-9.69487e-06
-1.10457e-06
-9.29188e-06
-1.28328e-06
-8.83312e-06
-1.47664e-06
-8.31531e-06
-1.68823e-06
-7.73477e-06
-1.92237e-06
-7.08757e-06
-2.18439e-06
-6.36984e-06
-2.4807e-06
-5.57844e-06
-2.81894e-06
-4.71208e-06
-3.20782e-06
-3.77341e-06
-3.65657e-06
-2.77249e-06
-4.17334e-06
-1.73237e-06
-4.76169e-06
-6.97402e-07
-5.4133e-06
2.5599e-07
-6.09405e-06
1.00982e-06
-6.71892e-06
1.40768e-06
-7.11117e-06
1.29721e-06
-6.94592e-06
6.66592e-07
-5.6944e-06
-2.65672e-06
4.79946e-07
2.47745e-06
1.07429e-06
5.72362e-06
1.33712e-06
7.40098e-06
1.16798e-06
7.94681e-06
6.34542e-07
7.79544e-06
-1.44587e-07
7.27101e-06
-1.05736e-06
6.58433e-06
-2.0184e-06
5.85901e-06
-2.9701e-06
5.16023e-06
-3.87717e-06
4.51773e-06
-4.72008e-06
3.94125e-06
-5.48958e-06
3.43004e-06
-6.18273e-06
2.97851e-06
-6.80019e-06
2.57921e-06
-7.34454e-06
2.22442e-06
-7.81919e-06
1.90693e-06
-8.22777e-06
1.62028e-06
-8.57377e-06
1.35885e-06
-8.86036e-06
1.11781e-06
-9.0903e-06
8.93052e-07
-9.26592e-06
6.81065e-07
-9.3891e-06
4.78832e-07
-9.46134e-06
2.83747e-07
-9.48371e-06
9.35193e-08
-9.45694e-06
-9.38985e-08
-9.38145e-06
-2.80383e-07
-9.25732e-06
-4.67709e-07
-9.08435e-06
-6.57609e-07
-8.86207e-06
-8.51843e-07
-8.58977e-06
-1.05226e-06
-8.26649e-06
-1.26089e-06
-7.89107e-06
-1.47999e-06
-7.46221e-06
-1.71214e-06
-6.97849e-06
-1.96036e-06
-6.43856e-06
-2.22815e-06
-5.84135e-06
-2.51958e-06
-5.18642e-06
-2.83933e-06
-4.47454e-06
-3.19257e-06
-3.70872e-06
-3.58477e-06
-2.89559e-06
-4.02094e-06
-2.04773e-06
-4.50444e-06
-1.18676e-06
-5.03431e-06
-3.47618e-07
-5.60084e-06
4.16691e-07
-6.17761e-06
1.03152e-06
-6.70888e-06
1.40312e-06
-7.09051e-06
1.43721e-06
-7.14527e-06
1.08964e-06
-6.59835e-06
4.69693e-07
-5.07445e-06
-2.18702e-06
3.4752e-07
2.12993e-06
8.88704e-07
5.18243e-06
1.27231e-06
7.01737e-06
1.35096e-06
7.86817e-06
1.11699e-06
8.02941e-06
6.30461e-07
7.75754e-06
-2.9378e-08
7.24417e-06
-7.89106e-07
6.61874e-06
-1.5906e-06
5.96172e-06
-2.39193e-06
5.31906e-06
-3.16493e-06
4.71425e-06
-3.89194e-06
4.15706e-06
-4.56272e-06
3.64929e-06
-5.172e-06
3.18848e-06
-5.7177e-06
2.77013e-06
-6.19973e-06
2.38896e-06
-6.61906e-06
2.03962e-06
-6.97727e-06
1.71705e-06
-7.27611e-06
1.41665e-06
-7.51734e-06
1.13429e-06
-7.70261e-06
8.66328e-07
-7.83333e-06
6.09556e-07
-7.91072e-06
3.61132e-07
-7.93572e-06
1.18527e-07
-7.90908e-06
-1.20541e-07
-7.83129e-06
-3.5817e-07
-7.70267e-06
-5.96333e-07
-7.52334e-06
-8.36939e-07
-7.2933e-06
-1.08189e-06
-7.01242e-06
-1.33314e-06
-6.68057e-06
-1.59275e-06
-6.29759e-06
-1.86297e-06
-5.86349e-06
-2.14624e-06
-5.37855e-06
-2.44531e-06
-4.84356e-06
-2.76314e-06
-4.26015e-06
-3.10299e-06
-3.6313e-06
-3.46817e-06
-2.96203e-06
-3.86184e-06
-2.26042e-06
-4.28638e-06
-1.53898e-06
-4.74238e-06
-8.16521e-07
-5.2269e-06
-1.20294e-07
-5.73054e-06
5.11749e-07
-6.23288e-06
1.02967e-06
-6.69553e-06
1.37325e-06
-7.05246e-06
1.48062e-06
-7.19788e-06
1.3099e-06
-6.97455e-06
8.80444e-07
-6.16889e-06
3.35467e-07
-4.52948e-06
-1.85156e-06
2.60115e-07
1.86982e-06
7.30557e-07
4.71199e-06
1.14891e-06
6.59902e-06
1.36701e-06
7.65007e-06
1.33848e-06
8.05794e-06
1.08085e-06
8.01517e-06
6.41728e-07
7.68329e-06
7.6274e-08
7.18419e-06
-5.64758e-07
6.60275e-06
-1.23991e-06
5.99421e-06
-1.91776e-06
5.3921e-06
-2.57579e-06
4.81509e-06
-3.19863e-06
4.27212e-06
-3.77628e-06
3.76613e-06
-4.3026e-06
3.29646e-06
-4.77415e-06
2.8605e-06
-5.18924e-06
2.45471e-06
-5.54736e-06
2.07517e-06
-5.84868e-06
1.71797e-06
-6.09378e-06
1.37939e-06
-6.28343e-06
1.05597e-06
-6.41845e-06
7.44576e-07
-6.49965e-06
4.42334e-07
-6.52778e-06
1.46658e-07
-6.50351e-06
-1.44817e-07
-6.42741e-06
-4.34268e-07
-6.30001e-06
-7.23735e-07
-6.12178e-06
-1.01516e-06
-5.89322e-06
-1.31045e-06
-5.61488e-06
-1.61148e-06
-5.28744e-06
-1.92019e-06
-4.91184e-06
-2.23856e-06
-4.48943e-06
-2.56866e-06
-4.02213e-06
-2.9126e-06
-3.51275e-06
-3.27252e-06
-2.96537e-06
-3.65038e-06
-2.38579e-06
-4.04775e-06
-1.78228e-06
-4.46536e-06
-1.1664e-06
-4.90226e-06
-5.54091e-07
-5.35469e-06
3.31784e-08
-5.81417e-06
5.67339e-07
-6.2647e-06
1.01327e-06
-6.67881e-06
1.32997e-06
-7.01223e-06
1.47498e-06
-7.19747e-06
1.41456e-06
-7.13746e-06
1.14229e-06
-6.70227e-06
7.07298e-07
-5.7339e-06
2.47085e-07
-4.06926e-06
-1.60447e-06
2.01794e-07
1.66802e-06
6.0529e-07
4.30849e-06
1.01717e-06
6.18714e-06
1.3064e-06
7.36084e-06
1.41129e-06
7.95304e-06
1.32272e-06
8.10374e-06
1.06318e-06
7.94284e-06
6.69579e-07
7.57779e-06
1.81887e-07
7.09045e-06
-3.63212e-07
6.53931e-06
-9.35009e-07
5.9639e-06
-1.50932e-06
5.3894e-06
-2.06795e-06
4.83075e-06
-2.5977e-06
4.29588e-06
-3.08934e-06
3.7881e-06
-3.53662e-06
3.30778e-06
-3.93548e-06
2.85357e-06
-4.28342e-06
2.42311e-06
-4.57906e-06
2.0136e-06
-4.82172e-06
1.62205e-06
-5.01123e-06
1.24549e-06
-5.14775e-06
8.81091e-07
-5.2316e-06
5.26193e-07
-5.26327e-06
1.78327e-07
-5.24331e-06
-1.64785e-07
-5.17232e-06
-5.0525e-07
-5.05103e-06
-8.4503e-07
-4.88023e-06
-1.18596e-06
-4.66089e-06
-1.52979e-06
-4.39419e-06
-1.87818e-06
-4.08162e-06
-2.23275e-06
-3.72515e-06
-2.59504e-06
-3.3273e-06
-2.9665e-06
-2.89147e-06
-3.34844e-06
-2.42213e-06
-3.74186e-06
-1.92524e-06
-4.14727e-06
-1.40867e-06
-4.56432e-06
-8.82772e-07
-4.99126e-06
-3.60972e-07
-5.42406e-06
1.39559e-07
-5.85522e-06
5.97402e-07
-6.27201e-06
9.86777e-07
-6.65408e-06
1.27833e-06
-6.97037e-06
1.4416e-06
-7.1755e-06
1.45025e-06
-7.20612e-06
1.2913e-06
-6.97851e-06
9.78921e-07
-6.3899e-06
5.71791e-07
-5.32677e-06
1.87939e-07
-3.68541e-06
-1.41653e-06
1.61586e-07
1.50644e-06
5.07758e-07
3.96232e-06
8.95369e-07
5.79953e-06
1.21472e-06
7.04149e-06
1.40181e-06
7.76595e-06
1.43288e-06
8.07267e-06
1.31271e-06
8.063e-06
1.06282e-06
7.82768e-06
7.12038e-07
7.44123e-06
2.90312e-07
6.96104e-06
-1.74838e-07
6.42905e-06
-6.5993e-07
5.87449e-06
-1.14592e-06
5.31674e-06
-1.61794e-06
4.7679e-06
-2.06471e-06
4.23487e-06
-2.47793e-06
3.721e-06
-2.85163e-06
3.22727e-06
-3.18163e-06
2.75311e-06
-3.46509e-06
2.29707e-06
-3.7002e-06
1.85715e-06
-3.88585e-06
1.43115e-06
-4.02151e-06
1.01674e-06
-4.107e-06
6.11688e-07
-4.14249e-06
2.13813e-07
-4.12836e-06
-1.78913e-07
-4.06523e-06
-5.68377e-07
-3.95395e-06
-9.56318e-07
-3.79558e-06
-1.34433e-06
-3.5915e-06
-1.73387e-06
-3.34344e-06
-2.12624e-06
-3.0536e-06
-2.52259e-06
-2.72477e-06
-2.92388e-06
-2.36047e-06
-3.3308e-06
-1.96522e-06
-3.74369e-06
-1.54473e-06
-4.16235e-06
-1.10624e-06
-4.58576e-06
-6.58835e-07
-5.01172e-06
-2.13878e-07
-5.43621e-06
2.14689e-07
-5.85262e-06
6.10067e-07
-6.2506e-06
9.52625e-07
-6.61457e-06
1.22044e-06
-6.92189e-06
1.39075e-06
-7.14068e-06
1.44287e-06
-7.22762e-06
1.3631e-06
-7.12635e-06
1.15206e-06
-6.76747e-06
8.34084e-07
-6.07192e-06
4.66907e-07
-4.9596e-06
1.46993e-07
-3.3655e-06
-1.26954e-06
1.32763e-07
1.37367e-06
4.31396e-07
3.66369e-06
7.88389e-07
5.44254e-06
1.11405e-06
6.71583e-06
1.34833e-06
7.53167e-06
1.46082e-06
7.96019e-06
1.44495e-06
8.07887e-06
1.31043e-06
7.96219e-06
1.07626e-06
7.6754e-06
7.65294e-07
7.272e-06
4.0064e-07
6.7937e-06
3.57018e-09
6.27156e-06
-4.07489e-07
5.7278e-06
-8.17257e-07
5.17767e-06
-1.21346e-06
4.63107e-06
-1.58648e-06
4.09403e-06
-1.929e-06
3.56978e-06
-2.23551e-06
3.05962e-06
-2.50201e-06
2.56357e-06
-2.72565e-06
2.0808e-06
-2.90452e-06
1.61001e-06
-3.0374e-06
1.14962e-06
-3.12364e-06
6.97926e-07
-3.16305e-06
2.53226e-07
-3.15585e-06
-1.86118e-07
-3.10258e-06
-6.21638e-07
-3.00418e-06
-1.05472e-06
-2.86191e-06
-1.4866e-06
-2.67745e-06
-1.91832e-06
-2.45298e-06
-2.35071e-06
-2.19121e-06
-2.78435e-06
-1.89558e-06
-3.21951e-06
-1.57032e-06
-3.65605e-06
-1.22072e-06
-4.09329e-06
-8.53256e-07
-4.52981e-06
-4.75859e-07
-4.96316e-06
-9.81343e-08
-5.38945e-06
2.68438e-07
-5.80279e-06
6.10382e-07
-6.19457e-06
9.12288e-07
-6.5525e-06
1.15719e-06
-6.85947e-06
1.32748e-06
-7.09218e-06
1.4066e-06
-7.2198e-06
1.38187e-06
-7.20289e-06
1.24857e-06
-6.99305e-06
1.01533e-06
-6.53423e-06
7.10119e-07
-5.7667e-06
3.8514e-07
-4.63462e-06
1.17551e-07
-3.09791e-06
-1.15199e-06
1.11281e-07
1.26239e-06
3.70662e-07
3.40431e-06
6.95974e-07
5.11722e-06
1.01446e-06
6.39735e-06
1.27251e-06
7.27362e-06
1.43791e-06
7.79479e-06
1.49747e-06
8.01932e-06
1.45256e-06
8.00711e-06
1.31417e-06
7.81378e-06
1.09865e-06
7.48752e-06
8.24405e-07
7.06795e-06
5.09712e-07
6.58625e-06
1.71406e-07
6.06611e-06
-1.75766e-07
5.52484e-06
-5.1936e-07
4.97466e-06
-8.49175e-07
4.42385e-06
-1.15705e-06
3.87765e-06
-1.43659e-06
3.33916e-06
-1.6829e-06
2.80988e-06
-1.89234e-06
2.29024e-06
-2.06226e-06
1.77994e-06
-2.19088e-06
1.27824e-06
-2.27709e-06
7.84138e-07
-2.32038e-06
2.96515e-07
-2.32074e-06
-1.85754e-07
-2.27865e-06
-6.63732e-07
-2.19502e-06
-1.13835e-06
-2.07124e-06
-1.61038e-06
-1.90921e-06
-2.08036e-06
-1.71137e-06
-2.54855e-06
-1.48082e-06
-3.01491e-06
-1.22136e-06
-3.47896e-06
-9.3771e-07
-3.9397e-06
-6.35541e-07
-4.39546e-06
-3.21694e-07
-4.84366e-06
-4.29317e-09
-5.28056e-06
3.07129e-07
-5.70087e-06
6.01582e-07
-6.09724e-06
8.66684e-07
-6.45967e-06
1.08893e-06
-6.77475e-06
1.2543e-06
-7.02484e-06
1.34928e-06
-7.18715e-06
1.36255e-06
-7.23308e-06
1.28747e-06
-7.1278e-06
1.12518e-06
-6.83076e-06
8.8843e-07
-6.29748e-06
6.05117e-07
-5.48339e-06
3.20428e-07
-4.34993e-06
9.55952e-08
-2.87307e-06
-1.05639e-06
9.46827e-08
1.16771e-06
3.2138e-07
3.17761e-06
6.16175e-07
4.82243e-06
9.20038e-07
6.09349e-06
1.18637e-06
7.00729e-06
1.38382e-06
7.59734e-06
1.49586e-06
7.90728e-06
1.51833e-06
7.98464e-06
1.45617e-06
7.87594e-06
1.32021e-06
7.62349e-06
1.12439e-06
7.26377e-06
8.83744e-07
6.8269e-06
6.13011e-07
6.33684e-06
3.25759e-07
5.81209e-06
3.39606e-08
5.26646e-06
-2.52159e-07
4.70997e-06
-5.24101e-07
4.14959e-06
-7.74965e-07
3.59002e-06
-9.99272e-07
3.03419e-06
-1.19278e-06
2.48375e-06
-1.35232e-06
1.93948e-06
-1.47561e-06
1.40153e-06
-1.56115e-06
8.6968e-07
-1.60812e-06
3.43489e-07
-1.61631e-06
-1.77569e-07
-1.58604e-06
-6.93996e-07
-1.5182e-06
-1.20619e-06
-1.4142e-06
-1.71438e-06
-1.27602e-06
-2.21853e-06
-1.10626e-06
-2.71832e-06
-9.08173e-07
-3.213e-06
-6.85788e-07
-3.70135e-06
-4.43969e-07
-4.18152e-06
-1.88521e-07
-4.65091e-06
7.37234e-08
-5.1059e-06
3.34832e-07
-5.54167e-06
5.85757e-07
-5.95179e-06
8.16394e-07
-6.32788e-06
1.01578e-06
-6.65905e-06
1.17248e-06
-6.93145e-06
1.27528e-06
-7.12764e-06
1.31423e-06
-7.2261e-06
1.28214e-06
-7.20099e-06
1.17658e-06
-7.02224e-06
1.00223e-06
-6.65642e-06
7.73413e-07
-6.06866e-06
5.16031e-07
-5.22601e-06
2.68267e-07
-4.10216e-06
7.86698e-08
-2.68348e-06
-9.77723e-07
8.14361e-08
1.08627e-06
2.80526e-07
2.97852e-06
5.46739e-07
4.55622e-06
8.32006e-07
5.80822e-06
1.09637e-06
6.74293e-06
1.31073e-06
7.38297e-06
1.45735e-06
7.76065e-06
1.5287e-06
7.9133e-06
1.52535e-06
7.87929e-06
1.4537e-06
7.69514e-06
1.3238e-06
7.39367e-06
1.14755e-06
7.00314e-06
9.37382e-07
6.54701e-06
7.05326e-07
6.04415e-06
4.62455e-07
5.50933e-06
2.18581e-07
4.95384e-06
-1.78625e-08
4.38604e-06
-2.39807e-07
3.81197e-06
-4.41475e-07
3.23585e-06
-6.18258e-07
2.66053e-06
-7.66596e-07
2.08781e-06
-8.83852e-07
1.51878e-06
-9.68206e-07
9.54033e-07
-1.01856e-06
3.93847e-07
-1.03449e-06
-1.61639e-07
-1.01618e-06
-7.12312e-07
-9.64392e-07
-1.25798e-06
-8.80498e-07
-1.79827e-06
-7.66462e-07
-2.33257e-06
-6.24887e-07
-2.85989e-06
-4.59058e-07
-3.37883e-06
-2.72994e-07
-3.88741e-06
-7.15156e-08
-4.383e-06
1.39708e-07
-4.86213e-06
3.54116e-07
-5.32031e-06
5.64248e-07
-5.7518e-06
7.61803e-07
-6.14935e-06
9.37771e-07
-6.50384e-06
1.08271e-06
-6.80399e-06
1.1872e-06
-7.03594e-06
1.2425e-06
-7.18294e-06
1.24155e-06
-7.22516e-06
1.18023e-06
-7.13967e-06
1.05888e-06
-6.90089e-06
8.8402e-07
-6.48156e-06
6.69969e-07
-5.85461e-06
4.39829e-07
-4.99587e-06
2.25396e-07
-3.88773e-06
6.52296e-08
-2.52331e-06
-9.12494e-07
7.05534e-08
1.01572e-06
2.45921e-07
2.80315e-06
4.85605e-07
4.31653e-06
7.50255e-07
5.54357e-06
1.00586e-06
6.48732e-06
1.22618e-06
7.16266e-06
1.39357e-06
7.59325e-06
1.49866e-06
7.80821e-06
1.53906e-06
7.83888e-06
1.51781e-06
7.71639e-06
1.4417e-06
7.46978e-06
1.3198e-06
7.12505e-06
1.16227e-06
6.70454e-06
9.79448e-07
6.22696e-06
7.81262e-07
5.70752e-06
5.76802e-07
5.1583e-06
3.74134e-07
4.58871e-06
1.80209e-07
4.00589e-06
8.6187e-10
3.4152e-06
-1.59135e-07
2.82053e-06
-2.95998e-07
2.22468e-06
-4.06845e-07
1.62963e-06
-4.89612e-07
1.0368e-06
-5.42979e-07
4.47214e-07
-5.66315e-07
-1.38303e-07
-5.59632e-07
-7.18994e-07
-5.23564e-07
-1.29405e-06
-4.59351e-07
-1.86249e-06
-3.68856e-07
-2.42307e-06
-2.54574e-07
-2.97417e-06
-1.19668e-07
-3.51373e-06
3.20009e-08
-4.03908e-06
1.9584e-07
-4.54684e-06
3.66503e-07
-5.03279e-06
5.37897e-07
-5.4917e-06
7.03213e-07
-5.91712e-06
8.55036e-07
-6.30117e-06
9.85527e-07
-6.63434e-06
1.08673e-06
-6.9052e-06
1.15102e-06
-7.10023e-06
1.17176e-06
-7.20368e-06
1.14411e-06
-7.1975e-06
1.06606e-06
-7.06163e-06
9.39658e-07
-6.77448e-06
7.72113e-07
-6.31402e-06
5.76837e-07
-5.65933e-06
3.73875e-07
-4.79291e-06
1.89452e-07
-3.70331e-06
5.4266e-08
-2.38812e-06
-8.58228e-07
6.13762e-08
9.54344e-07
2.15995e-07
2.64853e-06
4.3104e-07
4.10149e-06
6.7414e-07
5.30047e-06
9.16476e-07
6.24498e-06
1.13478e-06
6.94435e-06
1.31233e-06
7.41571e-06
1.43896e-06
7.68158e-06
1.51039e-06
7.76745e-06
1.52722e-06
7.69956e-06
1.49363e-06
7.50337e-06
1.41626e-06
7.20241e-06
1.30318e-06
6.81762e-06
1.16304e-06
6.3671e-06
1.00449e-06
5.86607e-06
8.3571e-07
5.32708e-06
6.64196e-07
4.76022e-06
4.96562e-07
4.17353e-06
3.38498e-07
3.57326e-06
1.94766e-07
2.96426e-06
6.92278e-08
2.35021e-06
-3.50996e-08
1.73396e-06
-1.15989e-07
1.11769e-06
-1.71944e-07
5.03169e-07
-2.02155e-07
-1.08092e-07
-2.0646e-07
-7.1469e-07
-1.85317e-07
-1.31519e-06
-1.39797e-07
-1.90801e-06
-7.15784e-08
-2.49128e-06
1.70414e-08
-3.06279e-06
1.23134e-07
-3.61983e-06
2.43124e-07
-4.15907e-06
3.72779e-07
-4.6765e-06
5.07216e-07
-5.16723e-06
6.40931e-07
-5.62542e-06
7.6787e-07
-6.04406e-06
8.81558e-07
-6.41486e-06
9.75306e-07
-6.72808e-06
1.04252e-06
-6.97241e-06
1.07713e-06
-7.13485e-06
1.07416e-06
-7.2007e-06
1.0304e-06
-7.15374e-06
9.45266e-07
-6.97649e-06
8.21642e-07
-6.65086e-06
6.66698e-07
-6.15908e-06
4.92471e-07
-5.48511e-06
3.15989e-07
-4.61643e-06
1.58713e-07
-3.54603e-06
4.50971e-08
-2.27451e-06
-8.1313e-07
5.34519e-08
9.00892e-07
1.896e-07
2.51238e-06
3.81641e-07
3.90945e-06
6.02849e-07
5.07926e-06
8.28873e-07
6.01896e-06
1.03937e-06
6.73386e-06
1.21891e-06
7.23616e-06
1.35729e-06
7.54321e-06
1.44917e-06
7.67557e-06
1.4934e-06
7.65532e-06
1.4922e-06
7.50457e-06
1.45019e-06
7.24442e-06
1.37358e-06
6.89424e-06
1.26943e-06
6.47125e-06
1.1451e-06
5.99041e-06
1.00779e-06
5.46439e-06
8.64252e-07
4.90375e-06
7.20631e-07
4.31715e-06
5.82313e-07
3.71158e-06
4.53905e-07
3.09267e-06
3.39226e-07
2.46489e-06
2.41323e-07
1.83186e-06
1.62512e-07
1.1965e-06
1.04414e-07
5.61267e-07
6.79901e-08
-7.16681e-08
5.35763e-08
-7.00276e-07
6.09035e-08
-1.32252e-06
8.91134e-08
-1.93622e-06
1.36764e-07
-2.53893e-06
2.01832e-07
-3.12786e-06
2.81707e-07
-3.6997e-06
3.73191e-07
-4.25055e-06
4.7251e-07
-4.77581e-06
5.75329e-07
-5.27005e-06
6.76809e-07
-5.7269e-06
7.71689e-07
-6.13894e-06
8.54429e-07
-6.4976e-06
9.19419e-07
-6.79307e-06
9.61264e-07
-7.01426e-06
9.75175e-07
-7.14876e-06
9.57447e-07
-7.18297e-06
9.06033e-07
-7.10233e-06
8.21175e-07
-6.89164e-06
7.06046e-07
-6.53573e-06
5.67287e-07
-6.02032e-06
4.15343e-07
-5.33316e-06
2.64414e-07
-4.4655e-06
1.31902e-07
-3.41352e-06
3.72469e-08
-2.17985e-06
-7.75884e-07
4.64606e-08
8.54432e-07
1.65888e-07
2.39296e-06
3.36293e-07
3.73904e-06
5.35571e-07
4.87998e-06
7.4322e-07
5.81131e-06
9.41628e-07
6.53545e-06
1.11691e-06
7.06088e-06
1.25925e-06
7.40086e-06
1.36283e-06
7.57199e-06
1.4254e-06
7.59275e-06
1.44769e-06
7.48228e-06
1.43272e-06
7.2594e-06
1.3851e-06
6.94185e-06
1.31047e-06
6.54588e-06
1.21493e-06
6.08594e-06
1.10468e-06
5.57464e-06
9.85695e-07
5.02274e-06
8.63506e-07
4.43934e-06
7.43098e-07
3.83199e-06
6.2881e-07
3.20695e-06
5.24312e-07
2.56939e-06
4.32597e-07
1.92358e-06
3.55998e-07
1.2731e-06
2.96212e-07
6.21054e-07
2.54321e-07
-2.9777e-08
2.30822e-07
-6.76777e-07
2.25644e-07
-1.31734e-06
2.38167e-07
-1.94874e-06
2.67223e-07
-2.56799e-06
3.11114e-07
-3.17175e-06
3.67606e-07
-3.75619e-06
4.33947e-07
-4.31689e-06
5.06876e-07
-4.84874e-06
5.82664e-07
-5.34584e-06
6.57165e-07
-5.8014e-06
7.25915e-07
-6.20769e-06
7.84265e-07
-6.55595e-06
8.27577e-07
-6.83639e-06
8.51486e-07
-7.03817e-06
8.52232e-07
-7.1495e-06
8.27055e-07
-7.1578e-06
7.74662e-07
-7.04994e-06
6.95705e-07
-6.81268e-06
5.93242e-07
-6.43326e-06
4.73105e-07
-5.90018e-06
3.44071e-07
-5.20413e-06
2.17746e-07
-4.33917e-06
1.08064e-07
-3.30384e-06
3.03741e-08
-2.10216e-06
-7.45509e-07
4.01712e-08
8.14261e-07
1.44227e-07
2.2889e-06
2.94112e-07
3.58916e-06
4.71571e-07
4.70252e-06
6.59428e-07
5.62345e-06
8.42594e-07
6.35228e-06
1.00879e-06
6.89468e-06
1.14891e-06
7.26075e-06
1.25706e-06
7.46384e-06
1.33035e-06
7.51946e-06
1.36847e-06
7.44417e-06
1.37317e-06
7.2547e-06
1.34777e-06
6.96725e-06
1.29663e-06
6.59702e-06
1.22471e-06
6.15786e-06
1.13722e-06
5.66213e-06
1.03931e-06
5.12065e-06
9.35878e-07
4.54277e-06
8.31417e-07
3.93645e-06
7.29915e-07
3.30846e-06
6.3481e-07
2.6645e-06
5.48968e-07
2.00942e-06
4.74676e-07
1.34739e-06
4.13659e-07
6.82071e-07
3.67089e-07
1.67935e-08
3.35606e-07
-6.45295e-07
3.19338e-07
-1.30107e-06
3.17908e-07
-1.94731e-06
3.30454e-07
-2.58054e-06
3.5563e-07
-3.19693e-06
3.91621e-07
-3.79218e-06
4.36154e-07
-4.36143e-06
4.86524e-07
-4.89911e-06
5.39625e-07
-5.39894e-06
5.92014e-07
-5.85379e-06
6.39996e-07
-6.25567e-06
6.79751e-07
-6.5957e-06
7.07506e-07
-6.86414e-06
7.19759e-07
-7.05042e-06
7.13555e-07
-7.1433e-06
6.8681e-07
-7.13105e-06
6.38673e-07
-7.0018e-06
5.69893e-07
-6.7439e-06
4.83148e-07
-6.34652e-06
3.83295e-07
-5.80033e-06
2.77454e-07
-5.09829e-06
1.74864e-07
-4.23658e-06
8.6474e-08
-3.21545e-06
2.42284e-08
-2.03992e-06
-7.21281e-07
3.44127e-08
7.79848e-07
1.24134e-07
2.19918e-06
2.54399e-07
3.45889e-06
4.1021e-07
4.54671e-06
5.77289e-07
5.45638e-06
7.42865e-07
6.18671e-06
8.96267e-07
6.74128e-06
1.02928e-06
7.12773e-06
1.13624e-06
7.35687e-06
1.21396e-06
7.44174e-06
1.26142e-06
7.39671e-06
1.27944e-06
7.23667e-06
1.27027e-06
6.97642e-06
1.2372e-06
6.6301e-06
1.18414e-06
6.21092e-06
1.11537e-06
5.7309e-06
1.03524e-06
5.20078e-06
9.47966e-07
4.63004e-06
8.5751e-07
4.02691e-06
7.67451e-07
3.39852e-06
6.80932e-07
2.75102e-06
6.00629e-07
2.08972e-06
5.28732e-07
1.41929e-06
4.66946e-07
7.43857e-07
4.16501e-07
6.7239e-08
3.7816e-07
-6.06954e-07
3.52237e-07
-1.27515e-06
3.38605e-07
-1.93368e-06
3.36711e-07
-2.57864e-06
3.45583e-07
-3.2058e-06
3.63843e-07
-3.81044e-06
3.89721e-07
-4.38731e-06
4.21079e-07
-4.93047e-06
4.55443e-07
-5.4333e-06
4.90057e-07
-5.8884e-06
5.21961e-07
-6.28757e-06
5.48094e-07
-6.62184e-06
5.65444e-07
-6.88149e-06
5.71224e-07
-7.0562e-06
5.63102e-07
-7.13517e-06
5.39451e-07
-7.1074e-06
4.99629e-07
-6.96198e-06
4.44258e-07
-6.68853e-06
3.7546e-07
-6.27772e-06
2.97031e-07
-5.7219e-06
2.14474e-07
-5.01573e-06
1.34875e-07
-4.15698e-06
6.65743e-08
-3.14715e-06
1.86224e-08
-1.99197e-06
-7.02659e-07
2.90561e-08
7.50792e-07
1.05239e-07
2.123e-06
2.16595e-07
3.34753e-06
3.50938e-07
4.41237e-06
4.9655e-07
5.31076e-06
6.42785e-07
6.04047e-06
7.80553e-07
6.60351e-06
9.02628e-07
7.00566e-06
1.00379e-06
7.25571e-06
1.08081e-06
7.36473e-06
1.13223e-06
7.34528e-06
1.15822e-06
7.21069e-06
1.16016e-06
6.97448e-06
1.14042e-06
6.64984e-06
1.10201e-06
6.24933e-06
1.04834e-06
5.78457e-06
9.82989e-07
5.26614e-06
9.09493e-07
4.70353e-06
8.31248e-07
4.10515e-06
7.51384e-07
3.47838e-06
6.72704e-07
2.8297e-06
5.97645e-07
2.16478e-06
5.28252e-07
1.48868e-06
4.66171e-07
8.05938e-07
4.12654e-07
1.20755e-07
3.68565e-07
-5.62865e-07
3.34388e-07
-1.24097e-06
3.10238e-07
-1.90953e-06
2.9587e-07
-2.56427e-06
2.9069e-07
-3.20062e-06
2.93766e-07
-3.81352e-06
3.03836e-07
-4.39738e-06
3.19332e-07
-4.94597e-06
3.38405e-07
-5.45238e-06
3.58965e-07
-5.90896e-06
3.78745e-07
-6.30735e-06
3.95383e-07
-6.63847e-06
4.06532e-07
-6.89264e-06
4.10003e-07
-7.05967e-06
4.03936e-07
-7.12911e-06
3.86995e-07
-7.09046e-06
3.58579e-07
-6.93356e-06
3.19024e-07
-6.64897e-06
2.69787e-07
-6.22848e-06
2.13555e-07
-5.66567e-06
1.54279e-07
-4.95645e-06
9.70645e-08
-4.09977e-06
4.79303e-08
-3.09801e-06
1.3413e-08
-1.95745e-06
-6.89245e-07
2.40014e-08
7.2679e-07
8.72483e-08
2.05975e-06
1.80247e-07
3.25454e-06
2.93285e-07
4.29933e-06
4.16941e-07
5.18711e-06
5.42535e-07
5.91488e-06
6.62506e-07
6.48354e-06
7.70684e-07
6.89748e-06
8.62428e-07
7.16397e-06
9.34641e-07
7.29252e-06
9.85689e-07
7.29423e-06
1.01523e-06
7.18115e-06
1.02402e-06
6.96569e-06
1.01364e-06
6.66022e-06
9.86314e-07
6.27666e-06
9.44653e-07
5.82623e-06
8.91488e-07
5.3193e-06
8.29703e-07
4.76532e-06
7.62115e-07
4.17274e-06
6.91379e-07
3.54912e-06
6.19922e-07
2.90115e-06
5.49901e-07
2.2348e-06
4.83175e-07
1.55541e-06
4.21296e-07
8.67817e-07
3.65506e-07
1.76545e-07
3.16741e-07
-5.14099e-07
2.75633e-07
-1.19986e-06
2.42526e-07
-1.87642e-06
2.17477e-07
-2.53922e-06
2.00263e-07
-3.18341e-06
1.90393e-07
-3.80365e-06
1.87113e-07
-4.3941e-06
1.89419e-07
-4.94827e-06
1.96072e-07
-5.45903e-06
2.05629e-07
-5.91852e-06
2.16477e-07
-6.3182e-06
2.26897e-07
-6.64889e-06
2.35135e-07
-6.90088e-06
2.39507e-07
-7.06404e-06
2.38515e-07
-7.12812e-06
2.30995e-07
-7.08294e-06
2.16262e-07
-6.91883e-06
1.94266e-07
-6.62698e-06
1.65723e-07
-6.19994e-06
1.32204e-07
-5.63215e-06
9.6159e-08
-4.92041e-06
6.08526e-08
-4.06446e-06
3.01986e-08
-3.06736e-06
8.48918e-09
-1.93574e-06
-6.80756e-07
1.91687e-08
7.07622e-07
6.99246e-08
2.00899e-06
1.44977e-07
3.17948e-06
2.36843e-07
4.20747e-06
3.38195e-07
5.08576e-06
4.42189e-07
5.81089e-06
5.42749e-07
6.38298e-06
6.34786e-07
6.80544e-06
7.14331e-07
7.08442e-06
7.78576e-07
7.22827e-06
8.25839e-07
7.24697e-06
8.55468e-07
7.15152e-06
8.67701e-07
6.95346e-06
8.63495e-07
6.66443e-06
8.4436e-07
6.29579e-06
8.12192e-07
5.85839e-06
7.69121e-07
5.36237e-06
7.17385e-07
4.81705e-06
6.59225e-07
4.2309e-06
5.96803e-07
3.61154e-06
5.32143e-07
2.96581e-06
4.67088e-07
2.29986e-06
4.0328e-07
1.61921e-06
3.4214e-07
9.28957e-07
2.84868e-07
2.33817e-07
2.32443e-07
-4.61674e-07
1.85625e-07
-1.15305e-06
1.44965e-07
-1.83576e-06
1.10805e-07
-2.50506e-06
8.3285e-08
-3.15589e-06
6.23451e-08
-3.78271e-06
4.77292e-08
-4.37948e-06
3.89862e-08
-4.93953e-06
3.54757e-08
-5.45552e-06
3.63772e-08
-5.91942e-06
4.07073e-08
-6.32253e-06
4.73478e-08
-6.65553e-06
5.50871e-08
-6.90862e-06
6.26783e-08
-7.07163e-06
6.89138e-08
-7.13435e-06
7.27169e-08
-7.08674e-06
7.32441e-08
-6.91936e-06
6.99921e-08
-6.62372e-06
6.28964e-08
-6.19285e-06
5.24066e-08
-5.62166e-06
3.95216e-08
-4.90752e-06
2.57666e-08
-4.05071e-06
1.31024e-08
-3.05469e-06
3.7623e-09
-1.9264e-06
-6.76994e-07
1.44921e-08
6.93129e-07
5.30682e-08
1.97042e-06
1.10463e-07
3.12209e-06
1.81247e-07
4.13668e-06
2.60044e-07
5.00696e-06
3.41749e-07
5.72918e-06
4.21729e-07
6.303e-06
4.95992e-07
6.73118e-06
5.61302e-07
7.01911e-06
6.15235e-07
7.17434e-06
6.56181e-07
7.20602e-06
6.83298e-07
7.1244e-06
6.96428e-07
6.94033e-06
6.95996e-07
6.66486e-06
6.82888e-07
6.3089e-06
6.58339e-07
5.88294e-06
6.23819e-07
5.39689e-06
5.80938e-07
4.85993e-06
5.31362e-07
4.28048e-06
4.76748e-07
3.66615e-06
4.18696e-07
3.02386e-06
3.58712e-07
2.35984e-06
2.98186e-07
1.67974e-06
2.38378e-07
9.88765e-07
1.80415e-07
2.9178e-07
1.25291e-07
-4.0655e-07
7.38663e-08
-1.10162e-06
2.68761e-08
-1.78877e-06
-1.50716e-08
-2.46312e-06
-5.14917e-08
-3.11947e-06
-8.20253e-08
-3.75218e-06
-1.06443e-07
-4.35506e-06
-1.24655e-07
-4.92132e-06
-1.36715e-07
-5.44346e-06
-1.42834e-07
-5.9133e-06
-1.43386e-07
-6.32198e-06
-1.38911e-07
-6.66001e-06
-1.30109e-07
-6.91742e-06
-1.17825e-07
-7.08392e-06
-1.03019e-07
-7.14916e-06
-8.67238e-08
-7.10304e-06
-6.99856e-08
-6.93609e-06
-5.37966e-08
-6.63991e-06
-3.90211e-08
-6.20762e-06
-2.63268e-08
-5.63435e-06
-1.61328e-08