/*--------------------------------*- C++ -*----------------------------------*\
  =========                 |
  \\      /  F ield         | OpenFOAM: The Open Source CFD Toolbox
   \\    /   O peration     | Website:  https://openfoam.org
    \\  /    A nd           | Version:  7
     \\/     M anipulation  |
\*---------------------------------------------------------------------------*/
FoamFile
{
    version     2.0;
    format      ascii;
    class       surfaceScalarField;
    location    "0.0238";
    object      phi;
}
// * * * * * * * * * * * * * * * * * * * * * * * * * * * * * * * * * * * * * //

dimensions      [0 3 -1 0 0 0 0];

internalField   nonuniform List<scalar> 
4900
(
5.4556e-06
-5.45562e-06
9.95507e-06
-4.49947e-06
1.26958e-05
-2.74072e-06
1.44126e-05
-1.71683e-06
1.5526e-05
-1.11339e-06
1.62751e-05
-7.49058e-07
1.6801e-05
-5.25912e-07
1.71855e-05
-3.84555e-07
1.74762e-05
-2.90666e-07
1.77015e-05
-2.25286e-07
1.78794e-05
-1.77866e-07
1.80217e-05
-1.42318e-07
1.81366e-05
-1.14966e-07
1.82301e-05
-9.34884e-08
1.83065e-05
-7.63499e-08
1.8369e-05
-6.24919e-08
1.84201e-05
-5.11575e-08
1.84619e-05
-4.17874e-08
1.84959e-05
-3.39563e-08
1.85232e-05
-2.73317e-08
1.85448e-05
-2.1647e-08
1.85615e-05
-1.66824e-08
1.85738e-05
-1.22517e-08
1.8582e-05
-8.19232e-09
1.85863e-05
-4.35758e-09
1.85869e-05
-6.10683e-10
1.85838e-05
3.18278e-09
1.85766e-05
7.15656e-09
1.85652e-05
1.14534e-08
1.85489e-05
1.62288e-08
1.85273e-05
2.16598e-08
1.84993e-05
2.79546e-08
1.84639e-05
3.53659e-08
1.84197e-05
4.42102e-08
1.83648e-05
5.48945e-08
1.82969e-05
6.79579e-08
1.82127e-05
8.41352e-08
1.81083e-05
1.04459e-07
1.79779e-05
1.30433e-07
1.78135e-05
1.64335e-07
1.76037e-05
2.09768e-07
1.7331e-05
2.72729e-07
1.69673e-05
3.63684e-07
1.64656e-05
5.01724e-07
1.57434e-05
7.22233e-07
1.46546e-05
1.08878e-06
1.29445e-05
1.71011e-06
1.01625e-05
2.78197e-06
5.55787e-06
4.60465e-06
5.55787e-06
-1.18291e-07
-5.33733e-06
1.83289e-06
-6.45065e-06
4.41221e-06
-5.32005e-06
6.72325e-06
-4.02786e-06
8.59555e-06
-2.9857e-06
1.00677e-05
-2.22124e-06
1.12198e-05
-1.67802e-06
1.21265e-05
-1.29117e-06
1.28466e-05
-1.01075e-06
1.34242e-05
-8.02891e-07
1.38916e-05
-6.45344e-07
1.42728e-05
-5.23483e-07
1.45854e-05
-4.27552e-07
1.48428e-05
-3.50901e-07
1.50553e-05
-2.88879e-07
1.5231e-05
-2.38143e-07
1.53761e-05
-1.96227e-07
1.54955e-05
-1.61264e-07
1.55934e-05
-1.31808e-07
1.56728e-05
-1.06709e-07
1.57361e-05
-8.50312e-08
1.57855e-05
-6.59953e-08
1.58221e-05
-4.89327e-08
1.58472e-05
-3.32549e-08
1.58613e-05
-1.84265e-08
1.58646e-05
-3.94448e-09
1.58571e-05
1.06823e-08
1.58383e-05
2.59513e-08
1.58074e-05
4.23849e-08
1.5763e-05
6.0554e-08
1.57036e-05
8.11033e-08
1.56268e-05
1.04786e-07
1.55296e-05
1.32506e-07
1.54085e-05
1.65385e-07
1.52585e-05
2.04844e-07
1.50737e-05
2.52736e-07
1.48463e-05
3.11533e-07
1.45662e-05
3.8462e-07
1.42199e-05
4.76754e-07
1.37894e-05
5.94789e-07
1.32503e-05
7.48873e-07
1.25686e-05
9.54377e-07
1.16973e-05
1.23498e-06
1.05718e-05
1.62732e-06
9.10748e-06
2.18651e-06
7.20971e-06
2.98655e-06
4.82416e-06
4.09566e-06
2.11851e-06
5.48762e-06
1.05225e-08
6.71263e-06
5.56839e-06
-1.08237e-06
-4.25496e-06
-7.56073e-07
-6.77695e-06
5.82134e-07
-6.65825e-06
2.28512e-06
-5.73085e-06
3.98329e-06
-4.68387e-06
5.518e-06
-3.75595e-06
6.84253e-06
-3.00256e-06
7.96103e-06
-2.40968e-06
8.8967e-06
-1.94642e-06
9.67692e-06
-1.58311e-06
1.03274e-05
-1.29579e-06
1.08701e-05
-1.06624e-06
1.13235e-05
-8.80966e-07
1.17026e-05
-7.29983e-07
1.20196e-05
-6.05854e-07
1.22844e-05
-5.02963e-07
1.25052e-05
-4.17001e-07
1.26885e-05
-3.44599e-07
1.28398e-05
-2.83077e-07
1.29633e-05
-2.30256e-07
1.30626e-05
-1.8433e-07
1.31404e-05
-1.43765e-07
1.31987e-05
-1.07232e-07
1.3239e-05
-7.35426e-08
1.32622e-05
-4.16078e-08
1.32686e-05
-1.0396e-08
1.32582e-05
2.11044e-08
1.32302e-05
5.39179e-08
1.31835e-05
8.91205e-08
1.31162e-05
1.27881e-07
1.30258e-05
1.71511e-07
1.2909e-05
2.21524e-07
1.27618e-05
2.79719e-07
1.25789e-05
3.48288e-07
1.23538e-05
4.29959e-07
1.20783e-05
5.28208e-07
1.17423e-05
6.47547e-07
1.1333e-05
7.93942e-07
1.08343e-05
9.75409e-07
1.02263e-05
1.20287e-06
9.48384e-06
1.4913e-06
8.57698e-06
1.86123e-06
7.47173e-06
2.34024e-06
6.13576e-06
2.96328e-06
4.55391e-06
3.76836e-06
2.76336e-06
4.77709e-06
9.22385e-07
5.93664e-06
-5.7734e-07
6.98735e-06
-1.03972e-06
7.17501e-06
4.52867e-06
-9.14217e-07
-3.34074e-06
-1.34749e-06
-6.34368e-06
-9.51753e-07
-7.05399e-06
-7.05427e-09
-6.67554e-06
1.19227e-06
-5.88319e-06
2.44759e-06
-5.01127e-06
3.64652e-06
-4.20149e-06
4.73695e-06
-3.5001e-06
5.70173e-06
-2.91119e-06
6.54174e-06
-2.42313e-06
7.26613e-06
-2.02018e-06
7.88708e-06
-1.68719e-06
8.41723e-06
-1.41111e-06
8.86845e-06
-1.18121e-06
9.25141e-06
-9.88809e-07
9.5754e-06
-8.2695e-07
9.84841e-06
-6.90012e-07
1.00772e-05
-5.7342e-07
1.02676e-05
-4.73402e-07
1.04241e-05
-3.86806e-07
1.05507e-05
-3.10954e-07
1.06505e-05
-2.43524e-07
1.07257e-05
-1.82464e-07
1.07781e-05
-1.25916e-07
1.08086e-05
-7.21561e-08
1.08178e-05
-1.9536e-08
1.08053e-05
3.35671e-08
1.07704e-05
8.88e-08
1.07117e-05
1.47888e-07
1.06269e-05
2.12695e-07
1.05131e-05
2.8529e-07
1.03666e-05
3.68035e-07
1.01826e-05
4.63686e-07
9.95534e-06
5.75538e-07
9.67771e-06
7.07591e-07
9.34113e-06
8.64796e-07
8.93533e-06
1.05335e-06
8.44818e-06
1.28109e-06
7.86562e-06
1.55797e-06
7.17187e-06
1.89662e-06
6.35041e-06
2.31275e-06
5.38643e-06
2.82521e-06
4.27217e-06
3.4545e-06
3.01763e-06
4.21783e-06
1.66981e-06
5.11618e-06
3.42838e-07
6.10406e-06
-7.48026e-07
7.02751e-06
-1.27641e-06
7.51573e-06
-9.18605e-07
6.81721e-06
3.61007e-06
-6.67284e-07
-2.67346e-06
-1.30735e-06
-5.70362e-06
-1.44098e-06
-6.92036e-06
-1.08333e-06
-7.03319e-06
-3.88421e-07
-6.5781e-06
4.86382e-07
-5.88608e-06
1.42344e-06
-5.13855e-06
2.34754e-06
-4.4242e-06
3.2162e-06
-3.77985e-06
4.00879e-06
-3.21572e-06
4.71806e-06
-2.72945e-06
5.34441e-06
-2.31355e-06
5.8923e-06
-1.959e-06
6.36805e-06
-1.65696e-06
6.77861e-06
-1.39937e-06
7.13088e-06
-1.17921e-06
7.43128e-06
-9.90415e-07
7.68563e-06
-8.27772e-07
7.89904e-06
-6.86812e-07
8.07589e-06
-5.63658e-07
8.21985e-06
-4.54913e-07
8.33389e-06
-3.57562e-07
8.42031e-06
-2.68878e-07
8.48074e-06
-1.86355e-07
8.51622e-06
-1.07628e-07
8.5271e-06
-3.04193e-08
8.51314e-06
4.75262e-08
8.47344e-06
1.28502e-07
8.40642e-06
2.14903e-07
8.30982e-06
3.09296e-07
8.18061e-06
4.14502e-07
8.01496e-06
5.33686e-07
7.80817e-06
6.70475e-07
7.55462e-06
8.2909e-07
7.2477e-06
1.01451e-06
6.87982e-06
1.23268e-06
6.44247e-06
1.49069e-06
5.92651e-06
1.79704e-06
5.32272e-06
2.16176e-06
4.623e-06
2.59634e-06
3.8226e-06
3.11316e-06
2.92403e-06
3.72378e-06
1.94367e-06
4.43486e-06
9.21846e-07
5.23965e-06
-6.34579e-08
6.10148e-06
-8.83471e-07
6.92407e-06
-1.35929e-06
7.50332e-06
-1.30691e-06
7.46335e-06
-6.88718e-07
6.19902e-06
2.92135e-06
-4.74474e-07
-2.19899e-06
-1.11353e-06
-5.06456e-06
-1.49793e-06
-6.53595e-06
-1.52059e-06
-7.01053e-06
-1.22675e-06
-6.87194e-06
-7.1087e-07
-6.40195e-06
-6.60156e-08
-5.78341e-06
6.34642e-07
-5.12485e-06
1.3402e-06
-4.48541e-06
2.01835e-06
-3.89387e-06
2.65046e-06
-3.36156e-06
3.22723e-06
-2.89031e-06
3.74538e-06
-2.47715e-06
4.20533e-06
-2.11691e-06
4.60964e-06
-1.80368e-06
4.96194e-06
-1.53152e-06
5.26633e-06
-1.2948e-06
5.52693e-06
-1.08837e-06
5.74764e-06
-9.07523e-07
5.93198e-06
-7.48001e-07
6.08301e-06
-6.05946e-07
6.20328e-06
-4.77825e-07
6.29476e-06
-3.60366e-07
6.35891e-06
-2.50498e-07
6.39657e-06
-1.45287e-07
6.40802e-06
-4.187e-08
6.39294e-06
6.26005e-08
6.35042e-06
1.71024e-07
6.27891e-06
2.86417e-07
6.17622e-06
4.11987e-07
6.03951e-06
5.51207e-07
5.86529e-06
7.07908e-07
5.64939e-06
8.86373e-07
5.38703e-06
1.09145e-06
5.07291e-06
1.32863e-06
4.70139e-06
1.60421e-06
4.26683e-06
1.92525e-06
3.76427e-06
2.2996e-06
3.19043e-06
2.7356e-06
2.54545e-06
3.24132e-06
1.83555e-06
3.82307e-06
1.07699e-06
4.48234e-06
3.01562e-07
5.21028e-06
-4.369e-07
5.97811e-06
-1.05697e-06
6.72155e-06
-1.45069e-06
7.3178e-06
-1.50365e-06
7.55628e-06
-1.15226e-06
7.11195e-06
-5.00956e-07
5.54772e-06
2.4204e-06
-3.44451e-07
-1.85454e-06
-9.1865e-07
-4.49036e-06
-1.39926e-06
-6.05534e-06
-1.64402e-06
-6.76578e-06
-1.63372e-06
-6.88224e-06
-1.40974e-06
-6.62593e-06
-1.03272e-06
-6.16043e-06
-5.61048e-07
-5.59653e-06
-4.2272e-08
-5.00418e-06
4.88483e-07
-4.42462e-06
1.00713e-06
-3.8802e-06
1.49827e-06
-3.38145e-06
1.95291e-06
-2.93179e-06
2.36653e-06
-2.53053e-06
2.73761e-06
-2.17476e-06
3.06654e-06
-1.86045e-06
3.35485e-06
-1.58312e-06
3.6047e-06
-1.33822e-06
3.81845e-06
-1.12128e-06
3.99848e-06
-9.28028e-07
4.14696e-06
-7.5443e-07
4.26579e-06
-5.96649e-07
4.35646e-06
-4.5104e-07
4.42007e-06
-3.14105e-07
4.45723e-06
-1.82446e-07
4.46807e-06
-5.27148e-08
4.45223e-06
7.84422e-08
4.40882e-06
2.1444e-07
4.33642e-06
3.58815e-07
4.23312e-06
5.15289e-07
4.09649e-06
6.87836e-07
3.92365e-06
8.80741e-07
3.71136e-06
1.09867e-06
3.4561e-06
1.34671e-06
3.15433e-06
1.6304e-06
2.80286e-06
1.95568e-06
2.39935e-06
2.32876e-06
1.94319e-06
2.75577e-06
1.43669e-06
3.24209e-06
8.86944e-07
3.79107e-06
3.08155e-07
4.40186e-06
-2.75259e-07
5.06575e-06
-8.25371e-07
5.7604e-06
-1.28829e-06
6.44103e-06
-1.59512e-06
7.02837e-06
-1.6712e-06
7.39389e-06
-1.46115e-06
7.34623e-06
-9.77188e-07
6.62799e-06
-3.71346e-07
4.94188e-06
2.04905e-06
-2.60168e-07
-1.59437e-06
-7.59686e-07
-3.99085e-06
-1.26022e-06
-5.55481e-06
-1.62391e-06
-6.40209e-06
-1.80077e-06
-6.70537e-06
-1.79591e-06
-6.63079e-06
-1.64125e-06
-6.31509e-06
-1.37695e-06
-5.86083e-06
-1.04132e-06
-5.33981e-06
-6.66411e-07
-4.79953e-06
-2.76949e-07
-4.26966e-06
1.09131e-07
-3.76753e-06
4.79535e-07
-3.3022e-06
8.26347e-07
-2.87734e-06
1.1449e-06
-2.49331e-06
1.43282e-06
-2.14837e-06
1.68932e-06
-1.83962e-06
1.91462e-06
-1.56352e-06
2.10954e-06
-1.31619e-06
2.27519e-06
-1.09368e-06
2.41279e-06
-8.92023e-07
2.52344e-06
-7.07301e-07
2.60808e-06
-5.35681e-07
2.66737e-06
-3.73396e-07
2.70164e-06
-2.16722e-07
2.71088e-06
-6.19503e-08
2.69467e-06
9.46559e-08
2.6522e-06
2.56902e-07
2.58231e-06
4.28709e-07
2.48344e-06
6.14154e-07
2.35376e-06
8.17517e-07
2.1912e-06
1.0433e-06
1.99361e-06
1.29626e-06
1.75896e-06
1.58136e-06
1.48566e-06
1.90369e-06
1.17299e-06
2.26835e-06
8.21744e-07
2.68001e-06
4.35102e-07
3.14241e-06
1.98253e-08
3.65737e-06
-4.12256e-07
4.22315e-06
-8.42479e-07
4.83208e-06
-1.24358e-06
5.46686e-06
-1.57856e-06
6.09538e-06
-1.80141e-06
6.66388e-06
-1.86187e-06
7.08883e-06
-1.71734e-06
7.24936e-06
-1.35531e-06
6.9842e-06
-8.27135e-07
6.09982e-06
-2.86025e-07
4.40077e-06
1.76302e-06
-2.04898e-07
-1.38947e-06
-6.37783e-07
-3.55796e-06
-1.12447e-06
-5.06812e-06
-1.5453e-06
-5.98126e-06
-1.83972e-06
-6.41095e-06
-1.99138e-06
-6.47914e-06
-2.01077e-06
-6.29569e-06
-1.92145e-06
-5.95015e-06
-1.75079e-06
-5.51047e-06
-1.52481e-06
-5.02551e-06
-1.26575e-06
-4.52872e-06
-9.91362e-07
-4.04193e-06
-7.15077e-07
-3.57848e-06
-4.46613e-07
-3.14581e-06
-1.92672e-07
-2.74725e-06
4.23701e-08
-2.38341e-06
2.55865e-07
-2.05312e-06
4.46394e-07
-1.75404e-06
6.13374e-07
-1.48317e-06
7.56751e-07
-1.23706e-06
8.76762e-07
-1.01203e-06
9.73762e-07
-8.043e-07
1.04809e-06
-6.10006e-07
1.09996e-06
-4.25271e-07
1.12944e-06
-2.46195e-07
1.13633e-06
-6.88448e-08
1.12023e-06
1.10761e-07
1.08045e-06
2.96676e-07
1.01611e-06
4.93047e-07
9.26129e-07
7.04138e-07
8.09315e-07
9.3433e-07
6.645e-07
1.18812e-06
4.90702e-07
1.47006e-06
2.8738e-07
1.78468e-06
5.47776e-08
2.1363e-06
-2.05603e-07
2.52873e-06
-4.90384e-07
2.96479e-06
-7.93524e-07
3.44555e-06
-1.10537e-06
3.96921e-06
-1.4116e-06
4.52938e-06
-1.69227e-06
5.11274e-06
-1.9212e-06
5.69579e-06
-2.06659e-06
6.24077e-06
-2.09359e-06
6.69087e-06
-1.97052e-06
6.96576e-06
-1.6802e-06
6.95904e-06
-1.23703e-06
6.54103e-06
-7.07909e-07
5.5707e-06
-2.29194e-07
3.92205e-06
1.53383e-06
-1.67545e-07
-1.22192e-06
-5.45688e-07
-3.17982e-06
-1.00583e-06
-4.60798e-06
-1.44866e-06
-5.53842e-06
-1.81356e-06
-6.04605e-06
-2.07316e-06
-6.21954e-06
-2.22368e-06
-6.14518e-06
-2.27546e-06
-5.89836e-06
-2.24569e-06
-5.54024e-06
-2.15348e-06
-5.11772e-06
-2.017e-06
-4.66521e-06
-1.85204e-06
-4.20688e-06
-1.6716e-06
-3.75892e-06
-1.48584e-06
-3.33157e-06
-1.30244e-06
-2.93065e-06
-1.127e-06
-2.55885e-06
-9.63445e-07
-2.21667e-06
-8.14436e-07
-1.90305e-06
-6.81686e-07
-1.61592e-06
-5.66245e-07
-1.3525e-06
-4.68721e-07
-1.10956e-06
-3.89455e-07
-8.83566e-07
-3.28656e-07
-6.70805e-07
-2.86501e-07
-4.67426e-07
-2.63206e-07
-2.6949e-07
-2.59072e-07
-7.29792e-08
-2.74502e-07
1.26192e-07
-3.10003e-07
3.32177e-07
-3.66153e-07
5.49197e-07
-4.43543e-07
7.81528e-07
-5.42683e-07
1.03347e-06
-6.63865e-07
1.3093e-06
-8.06965e-07
1.61316e-06
-9.7119e-07
1.9489e-06
-1.15473e-06
2.31983e-06
-1.35431e-06
2.72831e-06
-1.56471e-06
3.17518e-06
-1.77809e-06
3.65893e-06
-1.98339e-06
4.17451e-06
-2.16576e-06
4.71175e-06
-2.30628e-06
5.25326e-06
-2.38232e-06
5.77184e-06
-2.36914e-06
6.22759e-06
-2.24331e-06
6.56504e-06
-1.98882e-06
6.71128e-06
-1.60641e-06
6.57663e-06
-1.12526e-06
6.05988e-06
-6.14752e-07
5.06019e-06
-1.9001e-07
3.49731e-06
1.34382e-06
-1.41399e-07
-1.08052e-06
-4.75804e-07
-2.84541e-06
-9.06395e-07
-4.17739e-06
-1.35208e-06
-5.09273e-06
-1.75679e-06
-5.64135e-06
-2.08869e-06
-5.88763e-06
-2.33528e-06
-5.89859e-06
-2.49734e-06
-5.7363e-06
-2.5836e-06
-5.45398e-06
-2.60663e-06
-5.0947e-06
-2.58001e-06
-4.69183e-06
-2.51672e-06
-4.27016e-06
-2.42825e-06
-3.84739e-06
-2.32425e-06
-3.43557e-06
-2.2125e-06
-3.04239e-06
-2.09913e-06
-2.67222e-06
-1.98879e-06
-2.32701e-06
-1.88495e-06
-2.0069e-06
-1.79013e-06
-1.71074e-06
-1.70614e-06
-1.43649e-06
-1.63427e-06
-1.18143e-06
-1.57543e-06
-9.42407e-07
-1.53028e-06
-7.15949e-07
-1.49935e-06
-4.98359e-07
-1.48306e-06
-2.85781e-07
-1.4818e-06
-7.42417e-08
-1.49592e-06
1.40317e-07
-1.52576e-06
3.62015e-07
-1.57157e-06
5.95002e-07
-1.63345e-06
8.43414e-07
-1.7113e-06
1.11132e-06
-1.8046e-06
1.4026e-06
-1.91227e-06
1.72084e-06
-2.03244e-06
2.06907e-06
-2.16209e-06
2.44948e-06
-2.29675e-06
2.86297e-06
-2.43005e-06
3.30849e-06
-2.5534e-06
3.78228e-06
-2.65556e-06
4.27668e-06
-2.72259e-06
4.77878e-06
-2.73806e-06
5.26873e-06
-2.68405e-06
5.71783e-06
-2.54315e-06
6.08669e-06
-2.30202e-06
6.3239e-06
-1.95662e-06
6.36588e-06
-1.51918e-06
6.13918e-06
-1.02564e-06
5.56634e-06
-5.41483e-07
4.57603e-06
-1.61862e-07
3.11769e-06
1.18196e-06
-1.22457e-07
-9.58068e-07
-4.22082e-07
-2.54579e-06
-8.24264e-07
-3.77521e-06
-1.26283e-06
-4.65416e-06
-1.68783e-06
-5.21635e-06
-2.06668e-06
-5.50878e-06
-2.38207e-06
-5.5832e-06
-2.62832e-06
-5.49006e-06
-2.80764e-06
-5.27465e-06
-2.92697e-06
-4.97537e-06
-2.99553e-06
-4.62327e-06
-3.02317e-06
-4.24252e-06
-3.01935e-06
-3.85122e-06
-2.99255e-06
-3.46237e-06
-2.95008e-06
-3.08486e-06
-2.898e-06
-2.7243e-06
-2.84121e-06
-2.3838e-06
-2.78359e-06
-2.06452e-06
-2.72817e-06
-1.76617e-06
-2.67727e-06
-1.4874e-06
-2.63264e-06
-1.22605e-06
-2.59564e-06
-9.79408e-07
-2.56728e-06
-7.44314e-07
-2.54832e-06
-5.17318e-07
-2.53935e-06
-2.94749e-07
-2.5408e-06
-7.27871e-08
-2.55297e-06
1.52486e-07
-2.57599e-06
3.85035e-07
-2.60981e-06
6.28816e-07
-2.6541e-06
8.87707e-07
-2.7082e-06
1.16541e-06
-2.77093e-06
1.46533e-06
-2.84048e-06
1.79039e-06
-2.91415e-06
2.14274e-06
-2.98814e-06
2.52347e-06
-3.05729e-06
2.93211e-06
-3.11481e-06
3.36602e-06
-3.15213e-06
3.8196e-06
-3.15879e-06
4.28333e-06
-3.12266e-06
4.74264e-06
-3.03055e-06
5.17662e-06
-2.86947e-06
5.55675e-06
-2.62874e-06
5.84597e-06
-2.30317e-06
5.99833e-06
-1.89719e-06
5.95991e-06
-1.42973e-06
5.67173e-06
-9.38624e-07
5.07523e-06
-4.82925e-07
4.12033e-06
-1.40814e-07
2.77558e-06
1.04114e-06
-1.08296e-07
-8.49772e-07
-3.80109e-07
-2.27397e-06
-7.56529e-07
-3.39879e-06
-1.18317e-06
-4.22752e-06
-1.61623e-06
-4.7833e-06
-2.02434e-06
-5.10067e-06
-2.38793e-06
-5.21962e-06
-2.69719e-06
-5.1808e-06
-2.9496e-06
-5.02224e-06
-3.14759e-06
-4.77738e-06
-3.2965e-06
-4.47435e-06
-3.40317e-06
-4.13585e-06
-3.47484e-06
-3.77955e-06
-3.51851e-06
-3.41869e-06
-3.5406e-06
-3.06277e-06
-3.54671e-06
-2.7182e-06
-3.5416e-06
-2.3889e-06
-3.52926e-06
-2.07686e-06
-3.5129e-06
-1.78252e-06
-3.49513e-06
-1.50516e-06
-3.47802e-06
-1.24317e-06
-3.46317e-06
-9.94254e-07
-3.45184e-06
-7.55646e-07
-3.44496e-06
-5.24198e-07
-3.44321e-06
-2.96502e-07
-3.44702e-06
-6.8976e-08
-3.4566e-06
1.62065e-07
-3.4719e-06
4.00338e-07
-3.4926e-06
6.49511e-07
-3.51801e-06
9.13113e-07
-3.547e-06
1.19441e-06
-3.57792e-06
1.49625e-06
-3.60841e-06
1.82087e-06
-3.63526e-06
2.16959e-06
-3.65426e-06
2.54248e-06
-3.66004e-06
2.9379e-06
-3.64596e-06
3.35193e-06
-3.60406e-06
3.7777e-06
-3.52525e-06
4.20452e-06
-3.3997e-06
4.6171e-06
-3.21767e-06
4.99459e-06
-2.9708e-06
5.30988e-06
-2.65409e-06
5.52926e-06
-2.26851e-06
5.61275e-06
-1.82413e-06
5.51553e-06
-1.34329e-06
5.19089e-06
-8.62974e-07
4.59491e-06
-4.3525e-07
3.69261e-06
-1.24506e-07
2.46483e-06
9.16637e-07
-9.74173e-08
-7.52354e-07
-3.46764e-07
-2.02463e-06
-7.00417e-07
-3.04514e-06
-1.11316e-06
-3.81478e-06
-1.54677e-06
-4.34968e-06
-1.97196e-06
-4.67548e-06
-2.36845e-06
-4.82312e-06
-2.72401e-06
-4.82524e-06
-3.03283e-06
-4.71342e-06
-3.29385e-06
-4.51637e-06
-3.50921e-06
-4.25899e-06
-3.68302e-06
-3.96204e-06
-3.82036e-06
-3.6422e-06
-3.92666e-06
-3.3124e-06
-4.0072e-06
-2.98224e-06
-4.06687e-06
-2.65852e-06
-4.11005e-06
-2.34572e-06
-4.14054e-06
-2.04638e-06
-4.16155e-06
-1.76151e-06
-4.17576e-06
-1.49095e-06
-4.18536e-06
-1.23357e-06
-4.1921e-06
-9.87512e-07
-4.19735e-06
-7.50395e-07
-4.20214e-06
-5.19414e-07
-4.20716e-06
-2.91479e-07
-4.21283e-06
-6.33059e-08
-4.21925e-06
1.6849e-07
-4.22622e-06
4.07306e-07
-4.23317e-06
6.56459e-07
-4.23912e-06
9.1907e-07
-4.24264e-06
1.19793e-06
-4.24172e-06
1.49533e-06
-4.23367e-06
1.81282e-06
-4.21507e-06
2.15098e-06
-4.18161e-06
2.50902e-06
-4.12811e-06
2.88439e-06
-4.04843e-06
3.27226e-06
-3.93569e-06
3.66495e-06
-3.78248e-06
4.05131e-06
-3.58142e-06
4.41605e-06
-3.32606e-06
4.73922e-06
-3.01208e-06
4.9959e-06
-2.63902e-06
5.1562e-06
-2.21231e-06
5.18604e-06
-1.74549e-06
5.04871e-06
-1.26216e-06
4.70756e-06
-7.97104e-07
4.12985e-06
-3.95758e-07
3.29126e-06
-1.11496e-07
2.18057e-06
8.05141e-07
-8.88668e-08
-6.63488e-07
-3.19861e-07
-1.79363e-06
-6.53624e-07
-2.71137e-06
-1.05204e-06
-3.41637e-06
-1.48171e-06
-3.92001e-06
-1.91567e-06
-4.24152e-06
-2.33389e-06
-4.4049e-06
-2.72281e-06
-4.43632e-06
-3.07444e-06
-4.36179e-06
-3.38514e-06
-4.20567e-06
-3.6545e-06
-3.98964e-06
-3.88428e-06
-3.73226e-06
-4.07761e-06
-3.44888e-06
-4.23833e-06
-3.15167e-06
-4.37055e-06
-2.85002e-06
-4.47831e-06
-2.55076e-06
-4.56542e-06
-2.25861e-06
-4.63531e-06
-1.97648e-06
-4.69103e-06
-1.7058e-06
-4.73516e-06
-1.44682e-06
-4.76988e-06
-1.19884e-06
-4.79697e-06
-9.60423e-07
-4.81782e-06
-7.29546e-07
-4.83347e-06
-5.0377e-07
-4.8446e-06
-2.8035e-07
-4.85156e-06
-5.6342e-08
-4.85436e-06
1.71295e-07
-4.85266e-06
4.05597e-07
-4.84569e-06
6.49489e-07
-4.83228e-06
9.05662e-07
-4.81077e-06
1.17643e-06
-4.77897e-06
1.46352e-06
-4.73407e-06
1.76793e-06
-4.67264e-06
2.08955e-06
-4.59056e-06
2.42694e-06
-4.48307e-06
2.77691e-06
-4.34487e-06
3.13407e-06
-4.17033e-06
3.49041e-06
-3.95384e-06
3.83482e-06
-3.69041e-06
4.15262e-06
-3.37654e-06
4.42535e-06
-3.01128e-06
4.63063e-06
-2.59763e-06
4.74255e-06
-2.14408e-06
4.73249e-06
-1.66609e-06
4.57073e-06
-1.18726e-06
4.22873e-06
-7.39576e-07
3.68217e-06
-3.62574e-07
2.91426e-06
-1.00881e-07
1.91888e-06
7.04261e-07
-8.20221e-08
-5.81465e-07
-2.97873e-07
-1.57778e-06
-6.14352e-07
-2.39489e-06
-9.98862e-07
-3.03186e-06
-1.42204e-06
-3.49684e-06
-1.85922e-06
-3.80433e-06
-2.29107e-06
-3.97305e-06
-2.70349e-06
-4.0239e-06
-3.08708e-06
-3.9782e-06
-3.43635e-06
-3.85639e-06
-3.74891e-06
-3.67708e-06
-4.02458e-06
-3.45659e-06
-4.26479e-06
-3.20867e-06
-4.47192e-06
-2.94455e-06
-4.6489e-06
-2.67303e-06
-4.7989e-06
-2.40076e-06
-4.92506e-06
-2.13245e-06
-5.03035e-06
-1.87118e-06
-5.1175e-06
-1.61865e-06
-5.18891e-06
-1.37542e-06
-5.24662e-06
-1.14113e-06
-5.29236e-06
-9.14689e-07
-5.32745e-06
-6.94451e-07
-5.3529e-06
-4.78325e-07
-5.36933e-06
-2.63922e-07
-5.37701e-06
-4.86554e-08
-5.37586e-06
1.70147e-07
-5.36541e-06
3.9514e-07
-5.34476e-06
6.28846e-07
-5.31262e-06
8.73523e-07
-5.26722e-06
1.13102e-06
-5.20629e-06
1.4026e-06
-5.12708e-06
1.68871e-06
-5.02631e-06
1.98878e-06
-4.90024e-06
2.30088e-06
-4.74476e-06
2.62142e-06
-4.5555e-06
2.94481e-06
-4.32819e-06
3.2631e-06
-4.05898e-06
3.56561e-06
-3.74509e-06
3.83873e-06
-3.38551e-06
4.06577e-06
-2.982e-06
4.22712e-06
-2.5401e-06
4.30065e-06
-2.07031e-06
4.2627e-06
-1.58898e-06
4.0894e-06
-1.11891e-06
3.75866e-06
-6.89244e-07
3.2525e-06
-3.34405e-07
2.55942e-06
-9.20764e-08
1.67655e-06
6.12184e-07
-7.64685e-08
-5.04997e-07
-2.79732e-07
-1.37452e-06
-5.81249e-07
-2.09338e-06
-9.52728e-07
-2.66038e-06
-1.36813e-06
-3.08143e-06
-1.80492e-06
-3.36755e-06
-2.24465e-06
-3.53332e-06
-2.67314e-06
-3.59541e-06
-3.08016e-06
-3.57118e-06
-3.45894e-06
-3.47761e-06
-3.80554e-06
-3.33048e-06
-4.11829e-06
-3.14385e-06
-4.39711e-06
-2.92984e-06
-4.64314e-06
-2.69853e-06
-4.8582e-06
-2.45797e-06
-5.04459e-06
-2.21438e-06
-5.20475e-06
-1.97229e-06
-5.34115e-06
-1.73478e-06
-5.45613e-06
-1.50367e-06
-5.55181e-06
-1.27973e-06
-5.63006e-06
-1.06287e-06
-5.69245e-06
-8.523e-07
-5.74022e-06
-6.46686e-07
-5.77426e-06
-4.44284e-07
-5.79513e-06
-2.43054e-07
-5.80301e-06
-4.07721e-08
-5.79773e-06
1.64863e-07
-5.77871e-06
3.7612e-07
-5.74499e-06
5.95126e-07
-5.69519e-06
8.23729e-07
-5.62754e-06
1.06336e-06
-5.5398e-06
1.31486e-06
-5.42939e-06
1.57829e-06
-5.29331e-06
1.85271e-06
-5.12834e-06
2.1359e-06
-4.93107e-06
2.42415e-06
-4.69817e-06
2.71191e-06
-4.42668e-06
2.9916e-06
-4.11439e-06
3.25332e-06
-3.76043e-06
3.48477e-06
-3.36589e-06
3.67123e-06
-2.9346e-06
3.79582e-06
-2.47393e-06
3.83998e-06
-1.99558e-06
3.78434e-06
-1.51612e-06
3.60993e-06
-1.05721e-06
3.29975e-06
-6.45247e-07
2.84054e-06
-3.10362e-07
2.22454e-06
-8.47006e-08
1.45089e-06
5.27484e-07
-7.1926e-08
-4.33071e-07
-2.64691e-07
-1.18176e-06
-5.53323e-07
-1.80475e-06
-9.12902e-07
-2.3008e-06
-1.32011e-06
-2.67423e-06
-1.75426e-06
-2.93341e-06
-2.19788e-06
-3.0897e-06
-2.63696e-06
-3.15633e-06
-3.06082e-06
-3.14733e-06
-3.4618e-06
-3.07663e-06
-3.83487e-06
-2.95741e-06
-4.1771e-06
-2.80161e-06
-4.48726e-06
-2.61968e-06
-4.76534e-06
-2.42044e-06
-5.01223e-06
-2.21108e-06
-5.22939e-06
-1.99722e-06
-5.41859e-06
-1.78309e-06
-5.58177e-06
-1.5716e-06
-5.72087e-06
-1.36458e-06
-5.83769e-06
-1.16291e-06
-5.93386e-06
-9.66696e-07
-6.01078e-06
-7.75383e-07
-6.06954e-06
-5.87929e-07
-6.11092e-06
-4.029e-07
-6.13538e-06
-2.18593e-07
-6.14302e-06
-3.31349e-08
-6.13357e-06
1.55413e-07
-6.1064e-06
3.48949e-07
-6.06049e-06
5.49223e-07
-5.99447e-06
7.5771e-07
-5.90659e-06
9.75479e-07
-5.79476e-06
1.20303e-06
-5.65661e-06
1.44014e-06
-5.48954e-06
1.68564e-06
-5.29087e-06
1.93723e-06
-5.05795e-06
2.19123e-06
-4.78846e-06
2.44242e-06
-4.48065e-06
2.6838e-06
-4.1338e-06
2.90647e-06
-3.74864e-06
3.09961e-06
-3.32793e-06
3.25053e-06
-2.87708e-06
3.34497e-06
-2.40472e-06
3.36762e-06
-1.92319e-06
3.30281e-06
-1.44887e-06
3.13562e-06
-1.00216e-06
2.85303e-06
-6.06966e-07
2.44535e-06
-2.89835e-07
1.90741e-06
-7.84975e-08
1.23955e-06
4.48986e-07
-6.82039e-08
-3.64867e-07
-2.5223e-07
-9.97729e-07
-5.29864e-07
-1.52711e-06
-8.78823e-07
-1.95184e-06
-1.27799e-06
-2.27506e-06
-1.70826e-06
-2.50313e-06
-2.15311e-06
-2.64485e-06
-2.59881e-06
-2.71063e-06
-3.03449e-06
-2.71165e-06
-3.45191e-06
-2.65921e-06
-3.84522e-06
-2.5641e-06
-4.21056e-06
-2.43627e-06
-4.54573e-06
-2.28451e-06
-4.8498e-06
-2.11637e-06
-5.12282e-06
-1.93806e-06
-5.3655e-06
-1.75454e-06
-5.57901e-06
-1.56957e-06
-5.76478e-06
-1.38583e-06
-5.92433e-06
-1.20503e-06
-6.05915e-06
-1.0281e-06
-6.17061e-06
-8.55236e-07
-6.2599e-06
-6.86093e-07
-6.32796e-06
-5.19866e-07
-6.37545e-06
-3.55408e-07
-6.40272e-06
-1.91326e-07
-6.40977e-06
-2.60788e-08
-6.39629e-06
1.41927e-07
-6.36158e-06
3.14241e-07
-6.30462e-06
4.92267e-07
-6.22407e-06
6.77154e-07
-6.11825e-06
8.69666e-07
-5.98527e-06
1.07005e-06
-5.82303e-06
1.2779e-06
-5.62935e-06
1.49196e-06
-5.40209e-06
1.70997e-06
-5.13937e-06
1.92852e-06
-4.83979e-06
2.14284e-06
-4.5027e-06
2.34671e-06
-4.12863e-06
2.5324e-06
-3.71963e-06
2.69061e-06
-3.2798e-06
2.81069e-06
-2.81568e-06
2.88086e-06
-2.33673e-06
2.88867e-06
-1.8556e-06
2.82168e-06
-1.38824e-06
2.66826e-06
-9.53779e-07
2.41857e-06
-5.73976e-07
2.06555e-06
-2.72408e-07
1.60584e-06
-7.32946e-08
1.04044e-06
3.75691e-07
-6.51717e-08
-2.99695e-07
-2.4199e-07
-8.20911e-07
-5.10368e-07
-1.25873e-06
-8.50084e-07
-1.61212e-06
-1.24178e-06
-1.88336e-06
-1.66768e-06
-2.07723e-06
-2.11208e-06
-2.20045e-06
-2.56162e-06
-2.26109e-06
-3.00537e-06
-2.2679e-06
-3.43473e-06
-2.22984e-06
-3.84326e-06
-2.15557e-06
-4.22641e-06
-2.05313e-06
-4.58119e-06
-1.92974e-06
-4.90592e-06
-1.79163e-06
-5.19996e-06
-1.64403e-06
-5.46338e-06
-1.49112e-06
-5.69681e-06
-1.33615e-06
-5.9012e-06
-1.18144e-06
-6.07769e-06
-1.02855e-06
-6.22745e-06
-8.7833e-07
-6.35163e-06
-7.31061e-07
-6.45119e-06
-5.86527e-07
-6.52693e-06
-4.44129e-07
-6.57937e-06
-3.0297e-07
-6.60875e-06
-1.61943e-07
-6.61501e-06
-1.98181e-08
-6.59777e-06
1.24679e-07
-6.5563e-06
2.72779e-07
-6.48961e-06
4.25575e-07
-6.39639e-06
5.83934e-07
-6.27511e-06
7.48382e-07
-6.12405e-06
9.18992e-07
-5.9414e-06
1.09526e-06
-5.72541e-06
1.27596e-06
-5.47447e-06
1.45904e-06
-5.18739e-06
1.64144e-06
-4.86358e-06
1.81903e-06
-4.50336e-06
1.98649e-06
-4.10828e-06
2.13731e-06
-3.68146e-06
2.2638e-06
-3.228e-06
2.35723e-06
-2.75529e-06
2.40814e-06
-2.27328e-06
2.40667e-06
-1.79471e-06
2.3431e-06
-1.335e-06
2.20856e-06
-9.12116e-07
1.99568e-06
-5.45991e-07
1.69942e-06
-2.57798e-07
1.31765e-06
-6.8975e-08
8.51615e-07
3.06716e-07
-6.27407e-08
-2.36955e-07
-2.33723e-07
-6.49929e-07
-4.94489e-07
-9.97967e-07
-8.26409e-07
-1.2802e-06
-1.21151e-06
-1.49826e-06
-1.63307e-06
-1.65566e-06
-2.07611e-06
-1.75741e-06
-2.52763e-06
-1.80957e-06
-2.97671e-06
-1.81882e-06
-3.41455e-06
-1.792e-06
-3.8343e-06
-1.73582e-06
-4.23086e-06
-1.65657e-06
-4.60067e-06
-1.55992e-06
-4.94146e-06
-1.45084e-06
-5.252e-06
-1.33349e-06
-5.53184e-06
-1.21128e-06
-5.78114e-06
-1.08684e-06
-6.00046e-06
-9.62121e-07
-6.19059e-06
-8.38419e-07
-6.35242e-06
-7.16492e-07
-6.48687e-06
-5.96618e-07
-6.59471e-06
-4.7868e-07
-6.6766e-06
-3.62248e-07
-6.73292e-06
-2.46646e-07
-6.76383e-06
-1.31028e-07
-6.76921e-06
-1.44449e-08
-6.74861e-06
1.04081e-07
-6.70132e-06
2.25489e-07
-6.62635e-06
3.50604e-07
-6.52247e-06
4.80051e-07
-6.38826e-06
6.14177e-07
-6.22222e-06
7.52949e-07
-6.02282e-06
8.95856e-07
-5.78866e-06
1.04181e-06
-5.51866e-06
1.18903e-06
-5.2122e-06
1.33497e-06
-4.86938e-06
1.47621e-06
-4.49132e-06
1.60843e-06
-4.0804e-06
1.72639e-06
-3.64058e-06
1.82398e-06
-3.1777e-06
1.89435e-06
-2.69973e-06
1.93017e-06
-2.21693e-06
1.92387e-06
-1.74197e-06
1.86814e-06
-1.28975e-06
1.75635e-06
-8.77229e-07
1.58316e-06
-5.22829e-07
1.34502e-06
-2.45817e-07
1.04064e-06
-6.54597e-08
6.71258e-07
2.41257e-07
-6.08507e-08
-1.76104e-07
-2.27261e-07
-4.83519e-07
-4.81994e-07
-7.43234e-07
-8.07614e-07
-9.54583e-07
-1.1872e-06
-1.11868e-06
-1.60487e-06
-1.23799e-06
-2.04622e-06
-1.31607e-06
-2.49854e-06
-1.35725e-06
-2.95102e-06
-1.36634e-06
-3.39471e-06
-1.34831e-06
-3.82247e-06
-1.30806e-06
-4.22884e-06
-1.2502e-06
-4.60981e-06
-1.17895e-06
-4.96267e-06
-1.09798e-06
-5.28571e-06
-1.01044e-06
-5.5781e-06
-9.18893e-07
-5.8396e-06
-8.25342e-07
-6.07044e-06
-7.31281e-07
-6.27113e-06
-6.37729e-07
-6.44234e-06
-5.45288e-07
-6.58475e-06
-4.54203e-07
-6.69901e-06
-3.64419e-07
-6.78562e-06
-2.75641e-07
-6.84488e-06
-1.87388e-07
-6.87686e-06
-9.90489e-08
-6.88137e-06
-9.93673e-09
-6.85794e-06
8.06581e-08
-6.80587e-06
1.73412e-07
-6.72417e-06
2.68909e-07
-6.6117e-06
3.67582e-07
-6.46717e-06
4.69643e-07
-6.28923e-06
5.75012e-07
-6.07662e-06
6.83245e-07
-5.82827e-06
7.93458e-07
-5.54349e-06
9.04251e-07
-5.22216e-06
1.01364e-06
-4.86495e-06
1.11901e-06
-4.4736e-06
1.21708e-06
-4.05113e-06
1.30391e-06
-3.60212e-06
1.37496e-06
-3.13295e-06
1.42519e-06
-2.65198e-06
1.4492e-06
-2.16966e-06
1.44155e-06
-1.69851e-06
1.39698e-06
-1.25299e-06
1.31083e-06
-8.49194e-07
1.17936e-06
-5.04378e-07
1.0002e-06
-2.3634e-07
7.72597e-07
-6.26956e-08
4.97614e-07
1.78561e-07
-5.94619e-08
-1.16642e-07
-2.22493e-07
-3.20487e-07
-4.72729e-07
-4.92998e-07
-7.93587e-07
-6.33724e-07
-1.16891e-06
-7.43358e-07
-1.58343e-06
-8.23469e-07
-2.02316e-06
-8.76333e-07
-2.47567e-06
-9.04744e-07
-2.93019e-06
-9.11813e-07
-3.37773e-06
-9.00776e-07
-3.81095e-06
-8.74833e-07
-4.22414e-06
-8.3702e-07
-4.61298e-06
-7.90109e-07
-4.97441e-06
-7.36548e-07
-5.30643e-06
-6.78426e-07
-5.60787e-06
-6.17458e-07
-5.87821e-06
-5.54999e-07
-6.11743e-06
-4.92058e-07
-6.32583e-06
-4.29332e-07
-6.50387e-06
-3.67241e-07
-6.65211e-06
-3.05965e-07
-6.77105e-06
-2.45482e-07
-6.86108e-06
-1.85609e-07
-6.92243e-06
-1.26038e-07
-6.95511e-06
-6.63744e-08
-6.95887e-06
-6.17134e-09
-6.93325e-06
5.50316e-08
-6.87751e-06
1.17671e-07
-6.79072e-06
1.82121e-07
-6.67179e-06
2.4865e-07
-6.51952e-06
3.17377e-07
-6.33273e-06
3.88222e-07
-6.11034e-06
4.6086e-07
-5.85156e-06
5.34669e-07
-5.55599e-06
6.08684e-07
-5.2239e-06
6.81553e-07
-4.8564e-06
7.51505e-07
-4.45565e-06
8.16341e-07
-4.02517e-06
8.73432e-07
-3.56997e-06
9.19767e-07
-3.09681e-06
9.52025e-07
-2.6143e-06
9.6669e-07
-2.13296e-06
9.60214e-07
-1.6652e-06
9.29217e-07
-1.22509e-06
8.70714e-07
-8.28085e-07
7.82362e-07
-4.90576e-07
6.62695e-07
-2.29287e-07
5.11308e-07
-6.06475e-08
3.28975e-07
1.17914e-07
-5.85484e-08
-5.80934e-08
-2.19349e-07
-1.59687e-07
-4.66597e-07
-2.4575e-07
-7.84264e-07
-3.16057e-07
-1.15668e-06
-3.70941e-07
-1.56899e-06
-4.11162e-07
-2.00749e-06
-4.37832e-07
-2.45992e-06
-4.5232e-07
-2.91558e-06
-4.56153e-07
-3.36542e-06
-4.50927e-07
-3.80204e-06
-4.38223e-07
-4.21951e-06
-4.19543e-07
-4.61335e-06
-3.96268e-07
-4.98029e-06
-3.69615e-07
-5.31808e-06
-3.40628e-07
-5.62537e-06
-3.10167e-07
-5.90146e-06
-2.78913e-07
-6.14614e-06
-2.47376e-07
-6.35957e-06
-2.15908e-07
-6.54208e-06
-1.84726e-07
-6.69412e-06
-1.53924e-07
-6.81611e-06
-1.23495e-07
-6.90836e-06
-9.33538e-08
-6.97105e-06
-6.33488e-08
-7.00414e-06
-3.32864e-08
-7.00737e-06
-2.9471e-09
-6.98023e-06
2.78955e-08
-6.92201e-06
5.94555e-08
-6.83181e-06
9.19148e-08
-6.70856e-06
1.25402e-07
-6.55115e-06
1.59968e-07
-6.3585e-06
1.95567e-07
-6.12966e-06