/*--------------------------------*- C++ -*----------------------------------*\
  =========                 |
  \\      /  F ield         | OpenFOAM: The Open Source CFD Toolbox
   \\    /   O peration     | Website:  https://openfoam.org
    \\  /    A nd           | Version:  7
     \\/     M anipulation  |
\*---------------------------------------------------------------------------*/
FoamFile
{
    version     2.0;
    format      ascii;
    class       surfaceScalarField;
    location    "0.0216";
    object      phi;
}
// * * * * * * * * * * * * * * * * * * * * * * * * * * * * * * * * * * * * * //

dimensions      [0 3 -1 0 0 0 0];

internalField   nonuniform List<scalar> 
4900
(
-5.55681e-06
5.55682e-06
-1.01626e-05
4.60578e-06
-1.29484e-05
2.78582e-06
-1.46647e-05
1.71629e-06
-1.57615e-05
1.09679e-06
-1.64931e-05
7.31633e-07
-1.70053e-05
5.12149e-07
-1.73801e-05
3.74831e-07
-1.76644e-05
2.84342e-07
-1.78861e-05
2.21627e-07
-1.80623e-05
1.76243e-07
-1.82045e-05
1.42214e-07
-1.83205e-05
1.15951e-07
-1.84157e-05
9.51902e-08
-1.84941e-05
7.8438e-08
-1.85588e-05
6.46718e-08
-1.8612e-05
5.31666e-08
-1.86553e-05
4.33928e-08
-1.86903e-05
3.49526e-08
-1.87178e-05
2.75395e-08
-1.87387e-05
2.09108e-08
-1.87536e-05
1.4869e-08
-1.87629e-05
9.24829e-09
-1.87668e-05
3.90512e-09
-1.87655e-05
-1.29033e-09
-1.8759e-05
-6.45808e-09
-1.87473e-05
-1.17172e-08
-1.87301e-05
-1.71881e-08
-1.87071e-05
-2.29993e-08
-1.86778e-05
-2.92935e-08
-1.86416e-05
-3.62348e-08
-1.85976e-05
-4.40193e-08
-1.85447e-05
-5.28874e-08
-1.84815e-05
-6.31436e-08
-1.84064e-05
-7.51834e-08
-1.83168e-05
-8.95347e-08
-1.82099e-05
-1.06922e-07
-1.80815e-05
-1.28373e-07
-1.79261e-05
-1.55394e-07
-1.77359e-05
-1.90279e-07
-1.74992e-05
-2.36686e-07
-1.71985e-05
-3.00695e-07
-1.68056e-05
-3.92865e-07
-1.62734e-05
-5.32189e-07
-1.55203e-05
-7.53066e-07
-1.44053e-05
-1.11504e-06
-1.26891e-05
-1.71626e-06
-9.95061e-06
-2.73845e-06
-5.45402e-06
-4.49659e-06
-5.45402e-06
-1.18743e-08
5.5687e-06
-2.12673e-06
6.72064e-06
-4.84525e-06
5.50434e-06
-7.24905e-06
4.12009e-06
-9.16952e-06
3.01727e-06
-1.066e-05
2.22213e-06
-1.18145e-05
1.66661e-06
-1.27165e-05
1.27687e-06
-1.34301e-05
9.9792e-07
-1.40017e-05
7.93251e-07
-1.44647e-05
6.39268e-07
-1.48432e-05
5.2067e-07
-1.51546e-05
4.27369e-07
-1.5412e-05
3.52559e-07
-1.56251e-05
2.91528e-07
-1.58013e-05
2.40931e-07
-1.59465e-05
1.98333e-07
-1.6065e-05
1.61919e-07
-1.61604e-05
1.30305e-07
-1.62353e-05
1.0241e-07
-1.62917e-05
7.73655e-08
-1.63313e-05
5.44613e-08
-1.63551e-05
3.30952e-08
-1.6364e-05
1.27424e-08
-1.63582e-05
-7.07047e-09
-1.63379e-05
-2.67887e-08
-1.63027e-05
-4.68457e-08
-1.62522e-05
-6.76829e-08
-1.61855e-05
-8.97679e-08
-1.61012e-05
-1.13616e-07
-1.59976e-05
-1.39815e-07
-1.58725e-05
-1.69058e-07
-1.57232e-05
-2.02188e-07
-1.55461e-05
-2.40256e-07
-1.53367e-05
-2.84606e-07
-1.50892e-05
-3.36997e-07
-1.47964e-05
-3.9979e-07
-1.44485e-05
-4.76229e-07
-1.4033e-05
-5.70874e-07
-1.3533e-05
-6.90306e-07
-1.29255e-05
-8.44238e-07
-1.21789e-05
-1.0473e-06
-1.12499e-05
-1.32182e-06
-1.00803e-05
-1.70181e-06
-8.59584e-06
-2.2375e-06
-6.71661e-06
-2.99426e-06
-4.40357e-06
-4.0293e-06
-1.82611e-06
-5.31591e-06
1.21238e-07
-6.44393e-06
-5.33279e-06
1.03517e-06
4.53353e-06
5.59281e-07
7.19653e-06
-9.62781e-07
7.0264e-06
-2.83391e-06
5.99122e-06
-4.6611e-06
4.84445e-06
-6.28477e-06
3.8458e-06
-7.66646e-06
3.0483e-06
-8.82021e-06
2.43061e-06
-9.77728e-06
1.95499e-06
-1.05707e-05
1.58669e-06
-1.12298e-05
1.29833e-06
-1.17786e-05
1.06951e-06
-1.22366e-05
8.85398e-07
-1.26193e-05
7.3517e-07
-1.29386e-05
6.1091e-07
-1.32045e-05
5.06742e-07
-1.34244e-05
4.1824e-07
-1.36045e-05
3.42011e-07
-1.37496e-05
2.75409e-07
-1.38635e-05
2.16326e-07
-1.39492e-05
1.6305e-07
-1.40088e-05
1.14154e-07
-1.40442e-05
6.84224e-08
-1.40562e-05
2.47841e-08
-1.40456e-05
-1.77309e-08
-1.40123e-05
-6.00346e-08
-1.39561e-05
-1.03016e-07
-1.38762e-05
-1.47575e-07
-1.37714e-05
-1.94658e-07
-1.36397e-05
-2.45297e-07
-1.34788e-05
-3.00656e-07
-1.32858e-05
-3.62088e-07
-1.30568e-05
-4.31208e-07
-1.27871e-05
-5.09994e-07
-1.24707e-05
-6.00921e-07
-1.21006e-05
-7.07147e-07
-1.16676e-05
-8.32778e-07
-1.11606e-05
-9.8324e-07
-1.05657e-05
-1.16581e-06
-9.8656e-06
-1.39035e-06
-9.03952e-06
-1.67032e-06
-8.06287e-06
-2.02396e-06
-6.90926e-06
-2.47542e-06
-5.55635e-06
-3.05473e-06
-4.00049e-06
-3.79336e-06
-2.28855e-06
-4.70621e-06
-5.78573e-07
-5.73927e-06
7.60934e-07
-6.65542e-06
1.08496e-06
-6.76795e-06
-4.24783e-06
9.11466e-07
3.62206e-06
1.24914e-06
6.85885e-06
6.8923e-07
7.58631e-06
-4.43081e-07
7.12353e-06
-1.81985e-06
6.22122e-06
-3.22407e-06
5.25002e-06
-4.54003e-06
4.36426e-06
-5.71921e-06
3.60979e-06
-6.75026e-06
2.98604e-06
-7.63972e-06
2.47615e-06
-8.40129e-06
2.0599e-06
-9.0505e-06
1.71872e-06
-9.6022e-06
1.4371e-06
-1.00696e-05
1.20261e-06
-1.04642e-05
1.00548e-06
-1.07955e-05
8.38006e-07
-1.10714e-05
6.94157e-07
-1.12985e-05
5.69127e-07
-1.14822e-05
4.59058e-07
-1.16266e-05
3.60803e-07
-1.17353e-05
2.71752e-07
-1.18109e-05
1.89699e-07
-1.18552e-05
1.12733e-07
-1.18696e-05
3.91599e-08
-1.18547e-05
-3.25656e-08
-1.18109e-05
-1.03899e-07
-1.17376e-05
-1.76257e-07
-1.16341e-05
-2.51066e-07
-1.1499e-05
-3.29811e-07
-1.13302e-05
-4.14091e-07
-1.11252e-05
-5.05682e-07
-1.08806e-05
-6.06609e-07
-1.05926e-05
-7.19241e-07
-1.02562e-05
-8.46404e-07
-9.86558e-06
-9.91538e-07
-9.41384e-06
-1.15889e-06
-8.89286e-06
-1.35376e-06
-8.29327e-06
-1.58283e-06
-7.60456e-06
-1.85452e-06
-6.8155e-06
-2.17942e-06
-5.91529e-06
-2.57053e-06
-4.89613e-06
-3.04312e-06
-3.75833e-06
-3.61322e-06
-2.51999e-06
-4.29306e-06
-1.23386e-06
-5.07949e-06
-1.24345e-08
-5.92763e-06
9.45786e-07
-6.69749e-06
1.34782e-06
-7.05746e-06
9.155e-07
-6.33563e-06
-3.33233e-06
6.79178e-07
2.94288e-06
1.27164e-06
6.26639e-06
1.28419e-06
7.57376e-06
7.56419e-07
7.6513e-06
-1.25592e-07
7.10323e-06
-1.18095e-06
6.30538e-06
-2.27887e-06
5.46218e-06
-3.33955e-06
4.67047e-06
-4.32099e-06
3.96749e-06
-5.20532e-06
3.36047e-06
-5.98863e-06
2.84321e-06
-6.67445e-06
2.40454e-06
-7.26977e-06
2.03242e-06
-7.78279e-06
1.71563e-06
-8.22175e-06
1.44444e-06
-8.59434e-06
1.21059e-06
-8.9074e-06
1.00722e-06
-9.16689e-06
8.28619e-07
-9.37786e-06
6.70026e-07
-9.5445e-06
5.27444e-07
-9.67022e-06
3.97473e-07
-9.7577e-06
2.77179e-07
-9.80896e-06
1.63984e-07
-9.82537e-06
5.55736e-08
-9.80776e-06
-5.01793e-08
-9.75637e-06
-1.55282e-07
-9.67094e-06
-2.61685e-07
-9.55067e-06
-3.71339e-07
-9.39423e-06
-4.86254e-07
-9.19976e-06
-6.08561e-07
-8.96486e-06
-7.40581e-07
-8.68657e-06
-8.84903e-07
-8.36133e-06
-1.04447e-06
-7.98503e-06
-1.22271e-06
-7.55295e-06
-1.42361e-06
-7.05992e-06
-1.65192e-06
-6.50041e-06
-1.91327e-06
-5.86894e-06
-2.21429e-06
-5.16073e-06
-2.56273e-06
-4.3729e-06
-2.96724e-06
-3.50663e-06
-3.4368e-06
-2.57065e-06
-3.9791e-06
-1.58694e-06
-4.59693e-06
-5.99068e-07
-5.28094e-06
3.16967e-07
-5.99553e-06
1.04316e-06
-6.65383e-06
1.42245e-06
-7.07678e-06
1.30151e-06
-6.93652e-06
6.66788e-07
-5.7009e-06
-2.66554e-06
4.89578e-07
2.45331e-06
1.11027e-06
5.6457e-06
1.41443e-06
7.26959e-06
1.30002e-06
7.76572e-06
8.33004e-07
7.57025e-06
1.30216e-07
7.00817e-06
-6.98117e-07
6.29051e-06
-1.56842e-06
5.54077e-06
-2.42486e-06
4.82393e-06
-3.23385e-06
4.16946e-06
-3.97749e-06
3.58685e-06
-4.64808e-06
3.07514e-06
-5.24418e-06
2.62851e-06
-5.76786e-06
2.23932e-06
-6.22305e-06
1.89962e-06
-6.6144e-06
1.60194e-06
-6.94671e-06
1.33954e-06
-7.22455e-06
1.10646e-06
-7.45205e-06
8.9752e-07
-7.6328e-06
7.08193e-07
-7.76984e-06
5.34514e-07
-7.86563e-06
3.72976e-07
-7.92209e-06
2.20439e-07
-7.94056e-06
7.40484e-08
-7.9219e-06
-6.8845e-08
-7.86643e-06
-2.10749e-07
-7.77402e-06
-3.54096e-07
-7.64406e-06
-5.01301e-07
-7.47549e-06
-6.54821e-07
-7.26683e-06
-8.17218e-07
-7.01619e-06
-9.91221e-07
-6.72131e-06
-1.17979e-06
-6.37959e-06
-1.38619e-06
-5.98823e-06
-1.61407e-06
-5.54435e-06
-1.86749e-06
-5.04524e-06
-2.15104e-06
-4.48875e-06
-2.46976e-06
-3.87393e-06
-2.82911e-06
-3.20206e-06
-3.2346e-06
-2.47813e-06
-3.69118e-06
-1.71313e-06
-4.2018e-06
-9.27332e-07
-4.76489e-06
-1.54523e-07
-5.36974e-06
5.53135e-07
-5.98859e-06
1.12151e-06
-6.5639e-06
1.45696e-06
-6.98928e-06
1.46492e-06
-7.08474e-06
1.10053e-06
-6.57212e-06
4.71887e-07
-5.07227e-06
-2.19366e-06
3.58493e-07
2.09481e-06
9.2954e-07
5.07466e-06
1.35973e-06
6.8394e-06
1.49975e-06
7.62569e-06
1.34005e-06
7.72995e-06
9.38685e-07
7.40953e-06
3.72895e-07
6.8563e-06
-2.85944e-07
6.19961e-06
-9.81644e-07
5.51963e-06
-1.67417e-06
4.86199e-06
-2.3372e-06
4.24988e-06
-2.95481e-06
3.69274e-06
-3.51839e-06
3.19209e-06
-4.02422e-06
2.74516e-06
-4.47173e-06
2.34712e-06
-4.86214e-06
1.99236e-06
-5.19773e-06
1.67512e-06
-5.48118e-06
1.38991e-06
-5.71529e-06
1.13163e-06
-5.90271e-06
8.9561e-07
-6.0458e-06
6.7761e-07
-6.1466e-06
4.73774e-07
-6.20673e-06
2.80571e-07
-6.22742e-06
9.47358e-08
-6.20948e-06
-8.67901e-08
-6.15331e-06
-2.66916e-07
-6.05895e-06
-4.48457e-07
-5.92606e-06
-6.34188e-07
-5.75399e-06
-8.26897e-07
-5.54177e-06
-1.02943e-06
-5.28825e-06
-1.24474e-06
-4.9921e-06
-1.47595e-06
-4.65196e-06
-1.72633e-06
-4.26665e-06
-1.99938e-06
-3.83533e-06
-2.2988e-06
-3.35796e-06
-2.62841e-06
-2.83574e-06
-2.99198e-06
-2.27191e-06
-3.39293e-06
-1.67279e-06
-3.83373e-06
-1.0492e-06
-4.31477e-06
-4.18366e-07
-4.83264e-06
1.93868e-07
-5.37713e-06
7.50739e-07
-5.92661e-06
1.20324e-06
-6.44109e-06
1.49178e-06
-6.85245e-06
1.55483e-06
-7.05233e-06
1.35051e-06
-6.88041e-06
8.97893e-07
-6.11951e-06
3.39637e-07
-4.51401e-06
-1.85402e-06
2.71949e-07
1.82286e-06
7.7463e-07
4.57198e-06
1.24319e-06
6.37084e-06
1.52737e-06
7.34152e-06
1.5787e-06
7.67862e-06
1.41261e-06
7.57562e-06
1.07455e-06
7.19436e-06
6.17545e-07
6.65661e-06
9.02074e-08
6.04697e-06
-4.68057e-07
5.42026e-06
-1.0278e-06
4.80962e-06
-1.56838e-06
4.23333e-06
-2.07622e-06
3.69992e-06
-2.54298e-06
3.21192e-06
-2.9641e-06
2.76824e-06
-3.33756e-06
2.36583e-06
-3.66304e-06
2.0006e-06
-3.9412e-06
1.66808e-06
-4.1733e-06
1.36372e-06
-4.36081e-06
1.08312e-06
-4.50527e-06
8.22071e-07
-4.6081e-06
5.76609e-07
-4.67055e-06
3.43015e-07
-4.6936e-06
1.17784e-07
-4.67798e-06
-1.02406e-07
-4.62416e-06
-3.20734e-07
-4.53235e-06
-5.40271e-07
-4.40251e-06
-7.64022e-07
-4.23445e-06
-9.94958e-07
-4.02784e-06
-1.23605e-06
-3.78229e-06
-1.49029e-06
-3.49753e-06
-1.7607e-06
-3.17351e-06
-2.05034e-06
-2.81065e-06
-2.36225e-06
-2.41012e-06
-2.69934e-06
-1.97426e-06
-3.06427e-06
-1.50712e-06
-3.45912e-06
-1.01517e-06
-3.88488e-06
-5.08227e-07
-4.34067e-06
-5.14902e-10
-4.82248e-06
4.88075e-07
-5.32123e-06
9.309e-07
-5.81995e-06
1.29408e-06
-6.28979e-06
1.53764e-06
-6.68464e-06
1.61989e-06
-6.9347e-06
1.50766e-06
-6.9401e-06
1.19487e-06
-6.56762e-06
7.30822e-07
-5.65546e-06
2.53061e-07
-4.03625e-06
-1.60096e-06
2.14057e-07
1.60881e-06
6.51078e-07
4.13496e-06
1.11522e-06
5.9067e-06
1.47325e-06
6.98349e-06
1.66134e-06
7.49053e-06
1.6682e-06
7.56876e-06
1.51413e-06
7.34844e-06
1.23381e-06
6.93693e-06
8.64988e-07
6.41579e-06
4.42178e-07
5.84307e-06
-5.99399e-09
5.25779e-06
-4.57331e-07
4.68466e-06
-8.95519e-07
4.13811e-06
-1.30913e-06
3.62553e-06
-1.69058e-06
3.14969e-06
-2.03511e-06
2.71036e-06
-2.34006e-06
2.30555e-06
-2.60418e-06
1.93219e-06
-2.82715e-06
1.58669e-06
-3.00924e-06
1.26522e-06
-3.15107e-06
9.63896e-07
-3.25337e-06
6.78906e-07
-3.3169e-06
4.0655e-07
-3.34238e-06
1.43264e-07
-3.33041e-06
-1.1438e-07
-3.28146e-06
-3.69678e-07
-3.19592e-06
-6.25816e-07
-3.07406e-06
-8.85884e-07
-2.91612e-06
-1.15289e-06
-2.72241e-06
-1.42976e-06
-2.49334e-06
-1.71936e-06
-2.22961e-06
-2.02443e-06
-1.9324e-06
-2.34756e-06
-1.60356e-06
-2.69108e-06
-1.24596e-06
-3.05694e-06
-8.63839e-07
-3.44639e-06
-4.63332e-07
-3.85962e-06
-5.30165e-08
-4.29519e-06
3.55409e-07
-4.7491e-06
7.46452e-07
-5.21352e-06
1.10027e-06
-5.67504e-06
1.39253e-06
-6.11221e-06
1.59516e-06
-6.49242e-06
1.67882e-06
-6.76831e-06
1.61813e-06
-6.87401e-06
1.40088e-06
-6.72286e-06
1.04194e-06
-6.20868e-06
6.00591e-07
-5.21411e-06
1.95467e-07
-3.63112e-06
-1.40549e-06
1.73896e-07
1.43491e-06
5.5388e-07
3.75497e-06
9.94321e-07
5.46626e-06
1.38333e-06
6.59449e-06
1.65478e-06
7.21908e-06
1.78277e-06
7.44076e-06
1.76992e-06
7.36129e-06
1.63547e-06
7.07138e-06
1.40602e-06
6.64524e-06
1.10931e-06
6.13978e-06
7.70697e-07
5.59641e-06
4.11609e-07
5.04375e-06
4.91426e-08
4.50057e-06
-3.03657e-07
3.97833e-06
-6.37219e-07
3.48325e-06
-9.44796e-07
3.01794e-06
-1.22183e-06
2.58258e-06
-1.4654e-06
2.17576e-06
-1.67379e-06
1.79508e-06
-1.84612e-06
1.43755e-06
-1.98207e-06
1.09985e-06
-2.08169e-06
7.78528e-07
-2.14525e-06
4.70103e-07
-2.17311e-06
1.71129e-07
-2.16573e-06
-1.21762e-07
-2.12357e-06
-4.11838e-07
-2.04713e-06
-7.02255e-07
-1.93697e-06
-9.96049e-07
-1.79374e-06
-1.29612e-06
-1.61828e-06
-1.60522e-06
-1.41174e-06
-1.92591e-06
-1.17567e-06
-2.2605e-06
-9.12259e-07
-2.61097e-06
-6.24523e-07
-2.97882e-06
-3.16595e-07
-3.36487e-06
5.94459e-09
-3.76893e-06
3.35692e-07
-4.18937e-06
6.63014e-07
-4.62252e-06
9.75657e-07
-5.06174e-06
1.25846e-06
-5.49633e-06
1.49336e-06
-5.90994e-06
1.65989e-06
-6.27874e-06
1.73663e-06
-6.56916e-06
1.7041e-06
-6.73578e-06
1.54973e-06
-6.71963e-06
1.27514e-06
-6.44827e-06
9.05648e-07
-5.8392e-06
5.00005e-07
-4.80847e-06
1.55771e-07
-3.28689e-06
-1.24972e-06
1.4479e-07
1.29012e-06
4.76641e-07
3.42312e-06
8.85694e-07
5.0572e-06
1.28016e-06
6.20002e-06
1.59796e-06
6.90128e-06
1.80662e-06
7.2321e-06
1.89747e-06
7.27045e-06
1.87803e-06
7.09082e-06
1.76508e-06
6.75819e-06
1.57926e-06
6.32559e-06
1.34154e-06
5.83413e-06
1.07109e-06
5.3142e-06
7.84357e-07
4.78731e-06
4.94768e-07
4.26792e-06
2.12873e-07
3.76514e-06
-5.33104e-08
3.28412e-06
-2.97875e-07
2.82714e-06
-5.1661e-07
2.3945e-06
-7.06624e-07
1.9851e-06
-8.66025e-07
1.59695e-06
-9.93664e-07
1.22749e-06
-1.08893e-06
8.73789e-07
-1.15158e-06
5.32758e-07
-1.18168e-06
2.01224e-07
-1.17946e-06
-1.23974e-07
-1.14536e-06
-4.45937e-07
-1.07996e-06
-7.67657e-07
-9.84022e-07
-1.09199e-06
-8.58541e-07
-1.4216e-06
-7.04816e-07
-1.75894e-06
-5.24555e-07
-2.10617e-06
-3.20001e-07
-2.46505e-06
-9.41012e-08
-2.83687e-06
1.49301e-07
-3.22222e-06
4.05235e-07
-3.6208e-06
6.6736e-07
-4.03105e-06
9.277e-07
-4.44971e-06
1.17642e-06
-4.87124e-06
1.40169e-06
-5.28701e-06
1.58969e-06
-5.68433e-06
1.72499e-06
-6.04525e-06
1.79146e-06
-6.34521e-06
1.77394e-06
-6.55164e-06
1.66104e-06
-6.62289e-06
1.44931e-06
-6.5079e-06
1.14861e-06
-6.14757e-06
7.88153e-07
-5.47874e-06
4.21484e-07
-4.4418e-06
1.27265e-07
-2.99267e-06
-1.12245e-06
1.22749e-07
1.16737e-06
4.13993e-07
3.13188e-06
7.89428e-07
4.68177e-06
1.17436e-06
5.8151e-06
1.51329e-06
6.56234e-06
1.7721e-06
6.9733e-06
1.93558e-06
7.10696e-06
2.00304e-06
7.02335e-06
1.98337e-06
6.77786e-06
1.89074e-06
6.41822e-06
1.74144e-06
5.98343e-06
1.5517e-06
5.50395e-06
1.33636e-06
5.00264e-06
1.10833e-06
4.49596e-06
8.78296e-07
3.99517e-06
6.54887e-07
3.50753e-06
4.44822e-07
3.03721e-06
2.53211e-07
2.58611e-06
8.38307e-08
2.15448e-06
-6.06169e-08
1.7414e-06
-1.78276e-07
1.34515e-06
-2.67953e-07
9.63466e-07
-3.28966e-07
5.93771e-07
-3.61038e-07
2.33297e-07
-3.64224e-07
-1.20788e-07
-3.38868e-07
-4.71293e-07
-2.85587e-07
-8.20938e-07
-2.0529e-07
-1.17229e-06
-9.92159e-08
-1.52768e-06
3.10021e-08
-1.88916e-06
1.83245e-07
-2.25841e-06
3.54794e-07
-2.6366e-06
5.42196e-07
-3.02427e-06
7.41106e-07
-3.42113e-06
9.46124e-07
-3.82582e-06
1.15063e-06
-4.23555e-06
1.34663e-06
-4.64572e-06
1.52471e-06
-5.04932e-06
1.67406e-06
-5.43636e-06
1.78273e-06
-5.793e-06
1.83821e-06
-6.10073e-06
1.82846e-06
-6.33545e-06
1.7436e-06
-6.46678e-06
1.57837e-06
-6.45765e-06
1.33531e-06
-6.26484e-06
1.02857e-06
-5.84083e-06
6.8753e-07
-5.13769e-06
3.58968e-07
-4.11323e-06
1.05936e-07
-2.73964e-06
-1.01652e-06
1.05367e-07
1.062e-06
3.61944e-07
2.8753e-06
7.03938e-07
4.33977e-06
1.0706e-06
5.44844e-06
1.41362e-06
6.21931e-06
1.69993e-06
6.68699e-06
1.91117e-06
6.89573e-06
2.04127e-06
6.89326e-06
2.09317e-06
6.72596e-06
2.07566e-06
6.43573e-06
2.00065e-06
6.05843e-06
1.88119e-06
5.62341e-06
1.73007e-06
5.15376e-06
1.55903e-06
4.66699e-06
1.37835e-06
4.17586e-06
1.19666e-06
3.68922e-06
1.02104e-06
3.21283e-06
8.57116e-07
2.75003e-06
7.09258e-07
2.30234e-06
5.80757e-07
1.8699e-06
4.74018e-07
1.45189e-06
3.90711e-07
1.04677e-06
3.31905e-07
6.52577e-07
2.9817e-07
2.67031e-07
2.89648e-07
-1.12266e-07
3.06099e-07
-4.87744e-07
3.46916e-07
-8.61755e-07
4.11119e-07
-1.23649e-06
4.97324e-07
-1.61388e-06
6.03691e-07
-1.99553e-06
7.27847e-07
-2.38257e-06
8.668e-07
-2.77555e-06
1.01683e-06
-3.1743e-06
1.17339e-06
-3.57769e-06
1.33098e-06
-3.98341e-06
1.48307e-06
-4.38764e-06
1.62207e-06
-4.78472e-06
1.73936e-06
-5.16662e-06
1.82548e-06
-5.52248e-06
1.87049e-06
-5.83801e-06
1.86467e-06
-6.0949e-06
1.79953e-06
-6.27032e-06
1.66936e-06
-6.33661e-06
1.47318e-06
-6.26147e-06
1.21718e-06
-6.00884e-06
9.17204e-07
-5.54086e-06
6.0082e-07
-4.82131e-06
3.0801e-07
-3.82042e-06
8.93511e-08
-2.52098e-06
-9.27167e-07
9.11622e-08
9.70842e-07
3.17641e-07
2.64882e-06
6.27331e-07
4.03008e-06
9.70684e-07
5.10508e-06
1.30627e-06
5.88373e-06
1.60346e-06
6.38979e-06
1.84292e-06
6.65627e-06
2.01536e-06
6.72082e-06
2.11956e-06
6.62176e-06
2.16003e-06
6.39526e-06
2.14491e-06
6.07356e-06
2.0842e-06
5.68412e-06
1.98848e-06
5.24948e-06
1.86803e-06
4.78745e-06
1.73225e-06
4.31164e-06
1.58942e-06
3.83206e-06
1.44656e-06
3.35569e-06
1.30949e-06
2.8871e-06
1.1829e-06
2.42893e-06
1.07045e-06
1.98235e-06
9.74934e-07
1.5474e-06
8.98376e-07
1.12333e-06
8.4216e-07
7.08793e-07
8.07106e-07
3.02085e-07
7.93542e-07
-9.8702e-08
8.01344e-07
-4.95546e-07
8.2996e-07
-8.90371e-07
8.78406e-07
-1.28493e-06
9.45244e-07
-1.68072e-06
1.02855e-06
-2.07883e-06
1.12584e-06
-2.47986e-06
1.23404e-06
-2.88375e-06
1.34936e-06
-3.28963e-06
1.46729e-06
-3.69562e-06
1.58249e-06
-4.09861e-06
1.68881e-06
-4.49396e-06
1.7793e-06
-4.8752e-06
1.84634e-06
-5.23366e-06
1.88192e-06
-5.55805e-06
1.87804e-06
-5.83413e-06
1.82743e-06
-6.0443e-06
1.7245e-06
-6.16738e-06
1.56659e-06
-6.1787e-06
1.35557e-06
-6.05045e-06
1.09953e-06
-5.75281e-06
8.1444e-07
-5.25577e-06
5.25164e-07
-4.53203e-06
2.6544e-07
-3.5607e-06
7.59954e-08
-2.33154e-06
-8.51172e-07
7.91916e-08
8.9165e-07
2.79077e-07
2.44894e-06
5.57893e-07
3.75127e-06
8.75081e-07
4.78789e-06
1.19541e-06
5.5634e-06
1.49134e-06
6.09386e-06
1.74385e-06
6.40376e-06
1.94205e-06
6.52262e-06
2.08194e-06
6.48187e-06
2.16487e-06
6.31234e-06
2.19586e-06
6.04256e-06
2.18225e-06
5.69774e-06
2.13244e-06
5.29928e-06
2.05512e-06
4.86477e-06
1.9586e-06
4.40816e-06
1.85051e-06
3.94015e-06
1.73755e-06
3.46865e-06
1.62545e-06
2.9992e-06
1.51896e-06
2.53541e-06
1.42195e-06
2.07936e-06
1.33742e-06
1.63194e-06
1.26764e-06
1.19311e-06
1.21422e-06
7.62211e-07
1.17819e-06
3.38118e-07
1.16003e-06
-8.05476e-08
1.15976e-06
-4.95273e-07
1.1769e-06
-9.07511e-07
1.21052e-06
-1.31856e-06
1.25922e-06
-1.72942e-06
1.32109e-06
-2.1407e-06
1.39367e-06
-2.55244e-06
1.47394e-06
-2.96401e-06
1.55823e-06
-3.37392e-06
1.64224e-06
-3.77963e-06
1.72098e-06
-4.17735e-06
1.78883e-06
-4.56182e-06
1.83963e-06
-4.92601e-06
1.86684e-06
-5.26087e-06
1.86385e-06
-5.55505e-06
1.8244e-06
-5.79468e-06
1.74325e-06
-5.96316e-06
1.61703e-06
-6.04116e-06
1.44523e-06
-6.00689e-06
1.2314e-06
-5.83663e-06
9.84401e-07
-5.50581e-06
7.1935e-07
-4.99072e-06
4.5814e-07
-4.27082e-06
2.29014e-07
-3.33157e-06
6.48965e-08
-2.16742e-06
-7.86275e-07
6.88394e-08
8.22811e-07
2.44831e-07
2.27295e-06
4.94212e-07
3.50189e-06
7.83681e-07
4.49843e-06
1.08346e-06
5.26363e-06
1.36923e-06
5.80809e-06
1.62314e-06
6.14986e-06
1.83373e-06
6.31203e-06
1.99536e-06
6.32023e-06
2.10711e-06
6.20058e-06
2.17163e-06
5.97805e-06
2.19394e-06
5.67542e-06
2.18053e-06
5.31269e-06
2.1385e-06
4.90681e-06
2.07498e-06
4.47167e-06
1.99677e-06
4.01836e-06
1.91006e-06
3.55536e-06
1.82029e-06
3.08897e-06
1.7321e-06
2.6236e-06
1.64936e-06
2.16211e-06
1.57515e-06
1.70615e-06
1.51188e-06
1.25638e-06
1.46131e-06
8.1278e-07
1.42461e-06
3.74817e-07
1.40241e-06
-5.83523e-08
1.39485e-06
-4.87708e-07
1.40156e-06
-9.14223e-07
1.42172e-06
-1.33871e-06
1.45401e-06
-1.76171e-06
1.49662e-06
-2.18331e-06
1.54725e-06
-2.60306e-06
1.60302e-06
-3.01979e-06
1.66053e-06
-3.43143e-06
1.71581e-06
-3.8349e-06
1.76434e-06
-4.22588e-06
1.80114e-06
-4.59862e-06
1.82088e-06
-4.94574e-06
1.81806e-06
-5.25805e-06
1.78735e-06
-5.52434e-06
1.72397e-06
-5.73131e-06
1.62432e-06
-5.8635e-06
1.48659e-06
-5.90344e-06
1.31169e-06
-5.83199e-06
1.10405e-06
-5.62898e-06
8.72478e-07
-5.27423e-06
6.3076e-07
-4.749e-06
3.97809e-07
-4.03787e-06
1.97129e-07
-3.13089e-06
5.54102e-08
-2.0257e-06
-7.30865e-07
5.96895e-08
7.63121e-07
2.13895e-07
2.11874e-06
4.35177e-07
3.28061e-06
6.9616e-07
4.23744e-06
9.71796e-07
4.98799e-06
1.24096e-06
5.53893e-06
1.48733e-06
5.90348e-06
1.69967e-06
6.09968e-06
1.8715e-06
6.14841e-06
2.00041e-06
6.07167e-06
2.08725e-06
5.8912e-06
2.13524e-06
5.62743e-06
2.14916e-06
5.29877e-06
2.13466e-06
4.92131e-06
2.0977e-06
4.50863e-06
2.04419e-06
4.07187e-06
1.97967e-06
3.61989e-06
1.90914e-06
3.1595e-06
1.83699e-06
2.69574e-06
1.76695e-06
2.23215e-06
1.7021e-06
1.771e-06
1.64485e-06
1.31363e-06
1.59704e-06
8.60589e-07
1.55994e-06
4.11916e-07
1.53429e-06
-3.27063e-08
1.52035e-06
-4.73762e-07
1.51787e-06
-9.11745e-07
1.52616e-06
-1.34701e-06
1.54406e-06
-1.77961e-06
1.56994e-06
-2.20919e-06
1.60168e-06
-2.6348e-06
1.63669e-06
-3.05479e-06
1.67188e-06
-3.46663e-06
1.70372e-06
-3.86674e-06
1.72824e-06
-4.2504e-06
1.74111e-06
-4.6115e-06
1.73783e-06
-4.94246e-06
1.71388e-06
-5.2341e-06
1.66503e-06
-5.47548e-06
1.5877e-06
-5.65399e-06
1.47951e-06
-5.7553e-06
1.33976e-06
-5.76369e-06
1.17016e-06
-5.66239e-06
9.75408e-07
-5.43424e-06
7.63797e-07
-5.06262e-06
5.47517e-07
-4.53272e-06
3.42651e-07
-3.83301e-06
1.68632e-07
-2.95687e-06
4.70969e-08
-1.90417e-06
-6.83768e-07
5.14538e-08
7.11668e-07
1.8554e-07
1.98465e-06
3.79927e-07
3.08622e-06
6.12138e-07
4.00523e-06
8.61234e-07
4.7389e-06
1.10908e-06
5.29108e-06
1.34115e-06
5.67141e-06
1.54686e-06
5.89397e-06
1.71948e-06
5.97579e-06
1.85573e-06
5.93542e-06
1.95521e-06
5.79172e-06
2.01973e-06
5.56291e-06
2.05265e-06
5.26584e-06
2.05836e-06
4.91561e-06
2.0417e-06
4.52528e-06
2.00768e-06
4.10589e-06
1.96113e-06
3.66643e-06
1.90655e-06
3.21408e-06
1.84796e-06
2.75433e-06
1.78886e-06
2.29125e-06
1.73218e-06
1.82768e-06
1.6803e-06
1.36551e-06
1.63505e-06
9.05832e-07
1.59777e-06
4.49203e-07
1.56926e-06
-4.19772e-09
1.54988e-06
-4.54386e-07
1.53954e-06
-9.01401e-07
1.53769e-06
-1.34515e-06
1.54334e-06
-1.78527e-06
1.5551e-06
-2.22095e-06
1.57112e-06
-2.65082e-06
1.58912e-06
-3.0728e-06
1.60642e-06
-3.48393e-06
1.61995e-06
-3.88027e-06
1.6263e-06
-4.25675e-06
1.62183e-06
-4.60703e-06
1.6028e-06
-4.92344e-06
1.56556e-06
-5.19685e-06
1.5068e-06
-5.41672e-06
1.4239e-06
-5.57109e-06
1.31534e-06
-5.64674e-06
1.18112e-06
-5.62948e-06
1.02332e-06
-5.50459e-06
8.46488e-07
-5.25741e-06
6.58077e-07
-4.87421e-06
4.68592e-07
-4.34323e-06
2.91486e-07
-3.6559e-06
1.42681e-07
-2.80807e-06
3.96485e-08
-1.80113e-06
-6.4412e-07
4.39265e-08
6.67741e-07
1.5923e-07
1.86935e-06
3.2779e-07
2.91766e-06
5.3124e-07
3.80178e-06
7.52222e-07
4.51791e-06
9.75378e-07
5.06792e-06
1.18803e-06
5.45876e-06
1.38057e-06
5.70144e-06
1.54642e-06
5.80993e-06
1.68192e-06
5.79993e-06
1.78583e-06
5.68781e-06
1.85892e-06
5.48982e-06
1.90344e-06
5.22132e-06
1.92267e-06
4.89638e-06
1.92047e-06
4.52749e-06
1.90096e-06
4.12539e-06
1.86828e-06
3.69911e-06
1.82635e-06
3.25601e-06
1.77877e-06
2.80191e-06
1.72873e-06
2.34129e-06
1.67895e-06
1.87746e-06
1.6317e-06
1.41276e-06
1.58875e-06
9.4878e-07
1.55143e-06
4.86523e-07
1.52061e-06
2.66183e-08
1.49674e-06
-4.30518e-07
1.47986e-06
-8.84512e-07
1.46957e-06
-1.33487e-06
1.46512e-06
-1.78082e-06
1.46535e-06
-2.22118e-06
1.46871e-06
-2.65418e-06
1.4733e-06
-3.07739e-06
1.47686e-06
-3.48748e-06
1.4768e-06
-3.88022e-06
1.47031e-06
-4.25026e-06
1.45439e-06
-4.5911e-06
1.42598e-06
-4.89503e-06
1.3822e-06
-5.15307e-06
1.32049e-06
-5.35501e-06
1.23894e-06
-5.48954e-06
1.13662e-06
-5.54441e-06
1.01392e-06
-5.50678e-06
8.72925e-07
-5.36359e-06
7.17781e-07
-5.10226e-06
5.54905e-07
-4.71133e-06
3.93096e-07
-4.18142e-06
2.4339e-07
-3.5062e-06
1.18647e-07
-2.68332e-06
3.28429e-08
-1.71533e-06
-6.11277e-07
3.69565e-08
6.30785e-07
1.3456e-07
1.77175e-06
2.78234e-07
2.77398e-06
4.53116e-07
3.6269e-06
6.44991e-07
4.32604e-06
8.41056e-07
4.87186e-06
1.0305e-06
5.26932e-06
1.20481e-06
5.52713e-06
1.35793e-06
5.65682e-06
1.4861e-06
5.67176e-06
1.58762e-06
5.58629e-06
1.66254e-06
5.4149e-06
1.71225e-06
5.17161e-06
1.7391e-06
4.86953e-06
1.74608e-06
4.5205e-06
1.73653e-06
4.13494e-06
1.71388e-06
3.72177e-06
1.68147e-06
3.28842e-06
1.64243e-06
2.84095e-06
1.5996e-06
2.38413e-06
1.55544e-06
1.92162e-06
1.51204e-06
1.45617e-06
1.47107e-06
9.89745e-07
1.43383e-06
5.23765e-07
1.40121e-06
5.92395e-08
1.37373e-06
-4.03038e-07
1.35154e-06
-8.62325e-07
1.33445e-06
-1.31777e-06
1.3219e-06
-1.76827e-06
1.313e-06
-2.21228e-06
1.30655e-06
-2.64773e-06
1.30102e-06
-3.07185e-06
1.29458e-06
-3.48105e-06
1.28517e-06
-3.87081e-06
1.27052e-06
-4.2356e-06
1.24822e-06
-4.56881e-06
1.21587e-06
-4.86269e-06
1.17121e-06
-5.10841e-06
1.11229e-06
-5.29609e-06
1.03772e-06
-5.41497e-06
9.46921e-07
-5.45362e-06
8.40416e-07
-5.40027e-06
7.20093e-07
-5.24327e-06
5.89463e-07
-4.97163e-06
4.53817e-07
-4.57569e-06
3.2027e-07
-4.04788e-06
1.97628e-07
-3.38355e-06
9.60533e-08
-2.58175e-06
2.65151e-08
-1.64579e-06
-5.84762e-07
3.04285e-08
6.00356e-07
1.11215e-07
1.69096e-06
2.30826e-07
2.65437e-06
3.77436e-07
3.48029e-06
5.3962e-07
4.16385e-06
7.06931e-07
4.70455e-06
8.70362e-07
5.10588e-06
1.02265e-06
5.37484e-06
1.15838e-06
5.52108e-06
1.27399e-06
5.55615e-06
1.3676e-06
5.49268e-06
1.43878e-06
5.34372e-06
1.48826e-06
5.12213e-06
1.51768e-06
4.84011e-06
1.52928e-06
4.50891e-06
1.52566e-06
4.13856e-06
1.50959e-06
3.73783e-06
1.48385e-06
3.31416e-06
1.4511e-06
2.87371e-06
1.41376e-06
2.42146e-06
1.37401e-06
1.96137e-06
1.33371e-06
1.49646e-06
1.29441e-06
1.02905e-06
1.25732e-06
5.60853e-07
1.22334e-06
9.32222e-08
1.19304e-06
-3.72735e-07
1.16668e-06
-8.35969e-07
1.14424e-06
-1.29533e-06
1.12539e-06
-1.74942e-06
1.10953e-06
-2.19642e-06
1.09578e-06
-2.63398e-06
1.083e-06
-3.05907e-06
1.06982e-06
-3.46787e-06
1.05467e-06
-3.85566e-06
1.0358e-06
-4.21673e-06
1.01139e-06
-4.54439e-06
9.79587e-07
-4.83089e-06
9.38667e-07
-5.06749e-06
8.87162e-07
-5.24459e-06
8.24041e-07
-5.35185e-06
7.4891e-07
-5.37849e-06
6.62228e-07
-5.31359e-06
5.65511e-07
-5.14656e-06
4.61513e-07
-4.86763e-06
3.54337e-07
-4.46851e-06
2.49457e-07
-3.943e-06
1.53606e-07
-3.2877e-06
7.4523e-08
-2.50267e-06
2.05387e-08
-1.59181e-06
-5.64223e-07
2.42509e-08
5.76105e-07
8.89381e-08
1.62627e-06
1.85195e-07
2.55812e-06
3.0388e-07
3.36161e-06
4.36077e-07
4.03166e-06
5.73518e-07
4.56711e-06
7.08948e-07
4.97045e-06
8.36373e-07
5.24742e-06
9.5119e-07
5.40627e-06
1.0502e-06
5.45714e-06
1.13154e-06
5.41134e-06
1.1945e-06
5.28076e-06
1.23936e-06
5.07726e-06
1.26718e-06
4.81229e-06
1.27955e-06
4.49653e-06
1.27845e-06
4.13966e-06
1.26603e-06
3.75025e-06
1.24451e-06
3.33568e-06
1.21606e-06
2.90216e-06
1.18271e-06
2.45482e-06
1.14629e-06
1.99778e-06
1.10844e-06
1.53432e-06
1.07052e-06
1.06697e-06
1.03364e-06
5.97725e-07
9.98687e-07
1.2818e-07
9.66255e-07
-3.40303e-07
9.36714e-07
-8.06429e-07
9.10195e-07
-1.26881e-06
8.86597e-07
-1.72582e-06
8.65596e-07
-2.17542e-06
8.46654e-07
-2.61504e-06
8.2903e-07
-3.04145e-06
8.11797e-07
-3.45064e-06
7.93858e-07
-3.83772e-06
7.73987e-07
-4.19686e-06
7.50869e-07
-4.52127e-06
7.23172e-07
-4.80319e-06
6.89626e-07
-5.03394e-06
6.49137e-07
-5.2041e-06
6.00912e-07
-5.30362e-06
5.44608e-07
-5.32218e-06
4.8049e-07
-5.24947e-06
4.09579e-07
-5.07565e-06
3.33787e-07
-4.79184e-06
2.55997e-07
-4.39072e-06
1.80082e-07
-3.86708e-06
1.10828e-07
-3.21845e-06
5.37521e-08
-2.44559e-06
1.48131e-08
-1.55287e-06
-5.4941e-07
1.83475e-08
5.57758e-07
6.75099e-08
1.57711e-06
1.41011e-07
2.48461e-06
2.32129e-07
3.27049e-06
3.34238e-07
3.92955e-06
4.41108e-07
4.46024e-06
5.47172e-07
4.86439e-06
6.47724e-07
5.14687e-06
7.39044e-07
5.31495e-06
8.18434e-07
5.37775e-06
8.84184e-07
5.34559e-06
9.35486e-07
5.22946e-06
9.72304e-07
5.04044e-06
9.95231e-07
4.78937e-06
1.00533e-06
4.48643e-06
1.00401e-06
4.14099e-06
9.9285e-07
3.76141e-06
9.73547e-07
3.35498e-06
9.47785e-07
2.92792e-06
9.1718e-07
2.48542e-06
8.83232e-07
2.03173e-06
8.47289e-07
1.57026e-06
8.10529e-07
1.10373e-06
7.73945e-07
6.34308e-07
7.38352e-07
1.63774e-07
7.04377e-07
-3.06328e-07
6.72473e-07
-7.74526e-07
6.42922e-07
-1.23926e-06
6.15836e-07
-1.69873e-06
5.9117e-07
-2.15075e-06
5.68722e-07
-2.59259e-06
5.48141e-07
-3.02087e-06
5.28934e-07
-3.43143e-06
5.10478e-07
-3.81926e-06
4.92037e-07
-4.17842e-06
4.72786e-07
-4.50202e-06
4.51856e-07
-4.78226e-06
4.28379e-07
-5.01046e-06
4.01558e-07
-5.17728e-06
3.70755e-07
-5.27282e-06
3.35583e-07
-5.28701e-06
2.96019e-07
-5.20991e-06
2.52511e-07
-5.03214e-06
2.06069e-07
-4.7454e-06
1.58341e-07
-4.34299e-06
1.11631e-07
-3.82037e-06
6.88659e-08
-3.17569e-06
3.34848e-08
-2.41021e-06
9.25476e-09
-1.52864e-06
-5.40155e-07
1.26515e-08
5.45106e-07
4.67343e-08
1.54303e-06
9.79657e-08
2.43338e-06
1.61855e-07
3.2066e-06
2.33907e-07
3.8575e-06
3.09815e-07
4.38433e-06
3.85645e-07
4.78856e-06
4.57982e-07
5.07453e-06
5.24035e-07
5.24889e-06
5.81686e-07
5.3201e-06
6.29495e-07
5.29779e-06
6.66654e-07
5.1923e-06
6.92924e-07
5.01417e-06
7.08539e-07
4.77375e-06
7.14108e-07
4.48086e-06
7.1052e-07
4.14458e-06
6.98849e-07
3.77308e-06
6.80272e-07
3.37356e-06
6.56005e-07
2.95219e-06
6.27248e-07
2.51418e-06
5.95143e-07
2.06384e-06
5.60753e-07
1.60465e-06
5.25038e-07
1.13944e-06
4.8885e-07
6.70495e-07
4.5293e-07
1.99694e-07
4.17905e-07
-2.71304e-07
3.84299e-07
-7.40919e-07
3.5253e-07
-1.20749e-06
3.22916e-07
-1.66912e-06
2.95681e-07
-2.12351e-06
2.70954e-07
-2.56786e-06
2.48765e-07
-2.99868e-06
2.29053e-07
-3.41172e-06
2.11655e-07
-3.80186e-06
1.96313e-07
-4.16308e-06
1.82674e-07
-4.48838e-06
1.70303e-07
-4.76989e-06
1.58695e-07
-4.99886e-06
1.47311e-07
-5.16589e-06
1.35609e-07
-5.26112e-06
1.23105e-07
-5.27451e-06
1.0943e-07
-5.19623e-06
9.44032e-08
-5.01711e-06
7.81036e-08
-4.7291e-06
6.09283e-08
-4.32582e-06
4.36334e-08
-3.80308e-06
2.73404e-08
-3.15939e-06
1.34978e-08
-2.39637e-06
3.79187e-09
-1.51893e-06
-5.36363e-07
7.102e-09