/*--------------------------------*- C++ -*----------------------------------*\
  =========                 |
  \\      /  F ield         | OpenFOAM: The Open Source CFD Toolbox
   \\    /   O peration     | Website:  https://openfoam.org
    \\  /    A nd           | Version:  7
     \\/     M anipulation  |
\*---------------------------------------------------------------------------*/
FoamFile
{
    version     2.0;
    format      ascii;
    class       volVectorField;
    location    "0.0318";
    object      U;
}
// * * * * * * * * * * * * * * * * * * * * * * * * * * * * * * * * * * * * * //

dimensions      [0 1 -1 0 0 0 0];

internalField   nonuniform List<vector> 
2500
(
(0.290257 -0.152418 0)
(0.389553 -0.128242 0)
(0.565445 -0.0747353 0)
(0.683258 -0.0422264 0)
(0.752815 -0.0245169 0)
(0.797772 -0.0148687 0)
(0.828865 -0.00955523 0)
(0.851248 -0.00652741 0)
(0.867955 -0.00470026 0)
(0.880811 -0.00352364 0)
(0.890929 -0.00271913 0)
(0.899021 -0.00214108 0)
(0.905567 -0.00170944 0)
(0.910905 -0.00137761 0)
(0.915283 -0.00111679 0)
(0.918883 -0.000908176 0)
(0.921847 -0.000738878 0)
(0.924284 -0.000599669 0)
(0.926278 -0.000483711 0)
(0.927897 -0.000385775 0)
(0.929194 -0.000301736 0)
(0.930208 -0.000228249 0)
(0.930972 -0.000162514 0)
(0.931506 -0.000102114 0)
(0.931827 -4.48827e-05 0)
(0.931941 1.11875e-05 0)
(0.931852 6.7999e-05 0)
(0.931552 0.00012756 0)
(0.93103 0.000191936 0)
(0.930267 0.000263397 0)
(0.929236 0.000344554 0)
(0.9279 0.000438513 0)
(0.926211 0.000549105 0)
(0.924108 0.000681209 0)
(0.921511 0.000841237 0)
(0.918319 0.00103789 0)
(0.914399 0.00128336 0)
(0.909575 0.00159544 0)
(0.90361 0.00200118 0)
(0.896177 0.00254403 0)
(0.886809 0.00329801 0)
(0.87481 0.00439742 0)
(0.859089 0.00610094 0)
(0.837845 0.00892934 0)
(0.808021 0.0139427 0)
(0.764346 0.023233 0)
(0.695883 0.0407628 0)
(0.577945 0.0737442 0)
(0.39806 0.128748 0)
(0.293875 0.153791 0)
(0.00109295 -0.294909 0)
(0.0168723 -0.298629 0)
(0.152319 -0.213004 0)
(0.282788 -0.145269 0)
(0.387839 -0.0995409 0)
(0.470889 -0.0696733 0)
(0.536095 -0.0502866 0)
(0.587316 -0.0374595 0)
(0.627902 -0.0286802 0)
(0.660422 -0.0224465 0)
(0.686748 -0.0178675 0)
(0.708245 -0.0144041 0)
(0.725921 -0.0117202 0)
(0.74053 -0.00959848 0)
(0.752645 -0.00789358 0)
(0.76271 -0.00650447 0)
(0.771071 -0.0053587 0)
(0.778003 -0.00440269 0)
(0.783722 -0.00359566 0)
(0.788403 -0.00290571 0)
(0.792181 -0.00230726 0)
(0.795167 -0.00177917 0)
(0.79744 -0.00130353 0)
(0.799062 -0.000864641 0)
(0.800074 -0.000448347 0)
(0.800497 -4.138e-05 0)
(0.800337 0.00036912 0)
(0.799579 0.000796225 0)
(0.798193 0.00125365 0)
(0.79613 0.00175641 0)
(0.793316 0.00232156 0)
(0.789655 0.00296917 0)
(0.785023 0.00372362 0)
(0.779259 0.00461549 0)
(0.772157 0.00568417 0)
(0.763457 0.00698186 0)
(0.752823 0.00857969 0)
(0.739821 0.0105774 0)
(0.723879 0.0131194 0)
(0.704237 0.0164219 0)
(0.679862 0.0208207 0)
(0.649334 0.0268577 0)
(0.610671 0.035438 0)
(0.561097 0.0481138 0)
(0.496876 0.0675446 0)
(0.413538 0.0980345 0)
(0.306178 0.145695 0)
(0.170462 0.217253 0)
(0.0268923 0.307184 0)
(0.00518862 0.30302 0)
(-0.032914 -0.250416 0)
(-0.0615955 -0.344041 0)
(-0.0115593 -0.310511 0)
(0.0706194 -0.251341 0)
(0.158525 -0.1957 0)
(0.24077 -0.151014 0)
(0.313 -0.117209 0)
(0.374533 -0.0920227 0)
(0.42628 -0.0731621 0)
(0.469603 -0.0588486 0)
(0.505853 -0.0478086 0)
(0.536219 -0.0391523 0)
(0.561694 -0.0322603 0)
(0.583094 -0.0266972 0)
(0.601083 -0.0221518 0)
(0.616198 -0.0183971 0)
(0.628878 -0.0152637 0)
(0.639482 -0.0126226 0)
(0.648298 -0.0103728 0)
(0.655565 -0.00843411 0)
(0.661472 -0.00674063 0)
(0.666169 -0.00523731 0)
(0.669775 -0.00387674 0)
(0.672375 -0.002617 0)
(0.674027 -0.00141984 0)
(0.674764 -0.000249223 0)
(0.674591 0.000930063 0)
(0.67349 0.00215364 0)
(0.671415 0.00345896 0)
(0.668294 0.00488683 0)
(0.664021 0.00648327 0)
(0.65846 0.00830192 0)
(0.65143 0.0104072 0)
(0.642706 0.0128786 0)
(0.632004 0.0158167 0)
(0.618967 0.0193523 0)
(0.603151 0.0236587 0)
(0.583997 0.0289708 0)
(0.560802 0.0356146 0)
(0.532683 0.0440506 0)
(0.49853 0.0549413 0)
(0.456976 0.0692512 0)
(0.406396 0.0883835 0)
(0.345028 0.114337 0)
(0.271436 0.149757 0)
(0.185738 0.197409 0)
(0.0919593 0.257829 0)
(0.00170539 0.323161 0)
(-0.0569722 0.361479 0)
(-0.0321732 0.263989 0)
(-0.0267716 -0.19064 0)
(-0.0654647 -0.332944 0)
(-0.0647033 -0.351279 0)
(-0.0278578 -0.318831 0)
(0.0289755 -0.27137 0)
(0.0927192 -0.224634 0)
(0.155679 -0.184112 0)
(0.214069 -0.150719 0)
(0.266389 -0.123729 0)
(0.312358 -0.102014 0)
(0.352289 -0.0844926 0)
(0.38674 -0.0702649 0)
(0.416334 -0.0586213 0)
(0.441676 -0.0490145 0)
(0.463319 -0.0410242 0)
(0.481749 -0.0343257 0)
(0.497385 -0.0286656 0)
(0.510588 -0.0238432 0)
(0.521659 -0.019697 0)
(0.530852 -0.0160945 0)
(0.538374 -0.012925 0)
(0.544395 -0.0100938 0)
(0.549045 -0.00751818 0)
(0.552422 -0.00512387 0)
(0.554593 -0.0028424 0)
(0.555593 -0.000608684 0)
(0.555429 0.00164115 0)
(0.554076 0.00397188 0)
(0.55148 0.00645145 0)
(0.547553 0.00915348 0)
(0.542173 0.0121603 0)
(0.535179 0.0155668 0)
(0.526365 0.0194851 0)
(0.515475 0.0240512 0)
(0.502196 0.0294335 0)
(0.486147 0.0358445 0)
(0.466871 0.0435575 0)
(0.443818 0.0529281 0)
(0.416345 0.064425 0)
(0.383713 0.0786686 0)
(0.345108 0.0964781 0)
(0.29972 0.118915 0)
(0.246912 0.147291 0)
(0.186589 0.183039 0)
(0.119904 0.227231 0)
(0.050519 0.279193 0)
(-0.0135328 0.333178 0)
(-0.0580391 0.37189 0)
(-0.0647521 0.355764 0)
(-0.0272964 0.204775 0)
(-0.0178566 -0.149165 0)
(-0.0531909 -0.302761 0)
(-0.0738987 -0.354453 0)
(-0.0671624 -0.34953 0)
(-0.0383871 -0.318561 0)
(0.00322017 -0.278937 0)
(0.050456 -0.239252 0)
(0.098573 -0.203134 0)
(0.144744 -0.171697 0)
(0.187483 -0.144917 0)
(0.226153 -0.122316 0)
(0.260617 -0.103296 0)
(0.291008 -0.0872786 0)
(0.317598 -0.0737516 0)
(0.340714 -0.0622829 0)
(0.360694 -0.0525132 0)
(0.37786 -0.0441451 0)
(0.39251 -0.0369319 0)
(0.404908 -0.0306666 0)
(0.415284 -0.0251742 0)
(0.423833 -0.0203038 0)
(0.430716 -0.0159236 0)
(0.43606 -0.0119159 0)
(0.439962 -0.00817334 0)
(0.442486 -0.00459556 0)
(0.443666 -0.00108627 0)
(0.443505 0.00244954 0)
(0.441977 0.0061084 0)
(0.43902 0.0099913 0)
(0.434544 0.0142069 0)
(0.428419 0.0188756 0)
(0.42048 0.0241338 0)
(0.410521 0.0301401 0)
(0.398291 0.0370822 0)
(0.383494 0.0451862 0)
(0.365784 0.0547282 0)
(0.344768 0.0660487 0)
(0.320013 0.079569 0)
(0.291062 0.0958092 0)
(0.257478 0.115402 0)
(0.218921 0.139091 0)
(0.175291 0.167683 0)
(0.126983 0.201904 0)
(0.0752944 0.242028 0)
(0.0230228 0.287079 0)
(-0.0247673 0.333236 0)
(-0.0600598 0.370951 0)
(-0.0722817 0.380627 0)
(-0.0544409 0.327855 0)
(-0.0186604 0.162393 0)
(-0.0114439 -0.120853 0)
(-0.0403932 -0.269605 0)
(-0.0682266 -0.339426 0)
(-0.0785294 -0.356192 0)
(-0.0701743 -0.342489 0)
(-0.0479447 -0.313839 0)
(-0.0170136 -0.279644 0)
(0.0183661 -0.245063 0)
(0.0550954 -0.212632 0)
(0.0911264 -0.183391 0)
(0.125221 -0.157587 0)
(0.156705 -0.135082 0)
(0.185278 -0.11557 0)
(0.210874 -0.0986931 0)
(0.233564 -0.0840971 0)
(0.253499 -0.0714532 0)
(0.270864 -0.0604674 0)
(0.285858 -0.0508799 0)
(0.298673 -0.0424622 0)
(0.309488 -0.0350125 0)
(0.31846 -0.0283512 0)
(0.325726 -0.0223167 0)
(0.331394 -0.0167613 0)
(0.335546 -0.0115476 0)
(0.338239 -0.00654526 0)
(0.339499 -0.00162801 0)
(0.339326 0.0033296 0)
(0.337689 0.00845517 0)
(0.334529 0.0138817 0)
(0.329755 0.0197514 0)
(0.323247 0.0262193 0)
(0.31485 0.0334587 0)
(0.30438 0.041666 0)
(0.291619 0.0510677 0)
(0.276324 0.0619274 0)
(0.258227 0.0745539 0)
(0.237054 0.0893088 0)
(0.212542 0.106611 0)
(0.184485 0.126934 0)
(0.152794 0.150785 0)
(0.117606 0.178651 0)
(0.0794467 0.210869 0)
(0.0394638 0.247372 0)
(-0.00025685 0.287209 0)
(-0.0363585 0.327701 0)
(-0.0640103 0.363092 0)
(-0.077117 0.382618 0)
(-0.0697866 0.368435 0)
(-0.0424366 0.294809 0)
(-0.0122037 0.132834 0)
(-0.00749573 -0.100775 0)
(-0.0306039 -0.239112 0)
(-0.0591091 -0.316999 0)
(-0.0778822 -0.348629 0)
(-0.0828148 -0.349579 0)
(-0.075411 -0.332352 0)
(-0.0586761 -0.305722 0)
(-0.0357554 -0.275317 0)
(-0.00936584 -0.244479 0)
(0.0184076 -0.215036 0)
(0.0460894 -0.187875 0)
(0.0727019 -0.16333 0)
(0.0976424 -0.141423 0)
(0.120576 -0.122015 0)
(0.14135 -0.104889 0)
(0.159933 -0.089797 0)
(0.176367 -0.0764906 0)
(0.190737 -0.064729 0)
(0.203151 -0.0542867 0)
(0.21372 -0.0449538 0)
(0.222553 -0.0365359 0)
(0.229747 -0.0288522 0)
(0.235381 -0.0217328 0)
(0.239518 -0.0150162 0)
(0.242198 -0.00854697 0)
(0.243438 -0.00217248 0)
(0.243233 0.00425961 0)
(0.241552 0.0109045 0)
(0.238338 0.0179231 0)
(0.23351 0.0254861 0)
(0.226965 0.0337767 0)
(0.218573 0.0429954 0)
(0.208187 0.053364 0)
(0.195642 0.0651295 0)
(0.18077 0.0785678 0)
(0.163406 0.0939861 0)
(0.143417 0.11172 0)
(0.12073 0.132123 0)
(0.0953851 0.155545 0)
(0.0676089 0.182274 0)
(0.0379185 0.212447 0)
(0.00725975 0.245864 0)
(-0.0228252 0.281701 0)
(-0.0500325 0.318029 0)
(-0.0712238 0.351108 0)
(-0.082616 0.374451 0)
(-0.0804281 0.37782 0)
(-0.0624882 0.346656 0)
(-0.0329073 0.26312 0)
(-0.00815083 0.111408 0)
(-0.0051644 -0.0860145 0)
(-0.0237299 -0.212555 0)
(-0.0504328 -0.2924 0)
(-0.072771 -0.333176 0)
(-0.0857444 -0.345268 0)
(-0.0888688 -0.338195 0)
(-0.0834267 -0.319465 0)
(-0.0713946 -0.294477 0)
(-0.0548329 -0.266852 0)
(-0.0355494 -0.238874 0)
(-0.0149828 -0.211892 0)
(0.00579441 -0.186635 0)
(0.0260247 -0.163439 0)
(0.0452015 -0.142393 0)
(0.0630077 -0.123446 0)
(0.0792636 -0.106462 0)
(0.0938853 -0.0912646 0)
(0.106853 -0.0776578 0)
(0.118187 -0.0654396 0)
(0.127929 -0.0544099 0)
(0.136134 -0.0443732 0)
(0.142854 -0.0351408 0)
(0.148137 -0.0265298 0)
(0.152019 -0.0183625 0)
(0.154524 -0.0104644 0)
(0.155656 -0.00266253 0)
(0.155405 0.00521695 0)
(0.153741 0.0133511 0)
(0.150615 0.0219228 0)
(0.145961 0.0311235 0)
(0.139697 0.0411557 0)
(0.131729 0.0522356 0)
(0.121955 0.064595 0)
(0.110277 0.0784824 0)
(0.0966068 0.0941612 0)
(0.0808919 0.111905 0)
(0.0631367 0.131985 0)
(0.0434418 0.154646 0)
(0.0220548 0.180065 0)
(-0.000563007 0.208273 0)
(-0.023653 0.23904 0)
(-0.0460667 0.271683 0)
(-0.0661817 0.304782 0)
(-0.0818707 0.335788 0)
(-0.0906124 0.360517 0)
(-0.0898747 0.372615 0)
(-0.0778516 0.363215 0)
(-0.0547722 0.321181 0)
(-0.026072 0.234657 0)
(-0.00572808 0.095312 0)
(-0.00376981 -0.0746988 0)
(-0.0189773 -0.189694 0)
(-0.0432146 -0.268022 0)
(-0.0665508 -0.31373 0)
(-0.0841015 -0.333648 0)
(-0.094359 -0.334808 0)
(-0.097433 -0.323319 0)
(-0.0943223 -0.303998 0)
(-0.0864006 -0.28038 0)
(-0.0750643 -0.254919 0)
(-0.0615532 -0.229237 0)
(-0.0468844 -0.204345 0)
(-0.0318466 -0.180832 0)
(-0.0170245 -0.158997 0)
(-0.00283306 -0.138947 0)
(0.0104463 -0.12067 0)
(0.0226333 -0.104075 0)
(0.0336212 -0.0890256 0)
(0.043355 -0.0753589 0)
(0.051814 -0.0628975 0)
(0.0589979 -0.0514574 0)
(0.0649176 -0.0408523 0)
(0.0695866 -0.0308954 0)
(0.0730159 -0.0214006 0)
(0.07521 -0.0121819 0)
(0.0761639 -0.00305269 0)
(0.0758619 0.00617576 0)
(0.0742763 0.0156955 0)
(0.0713688 0.0257038 0)
(0.067091 0.0364044 0)
(0.0613883 0.0480088 0)
(0.0542046 0.0607369 0)
(0.0454889 0.0748161 0)
(0.0352068 0.0904783 0)
(0.0233543 0.107954 0)
(0.00997849 0.127459 0)
(-0.00479585 0.149175 0)
(-0.0207308 0.173215 0)
(-0.0374318 0.199566 0)
(-0.0542961 0.228009 0)
(-0.0704594 0.257994 0)
(-0.0847516 0.288459 0)
(-0.0956856 0.317603 0)
(-0.101521 0.342593 0)
(-0.10047 0.359257 0)
(-0.0911278 0.361862 0)
(-0.0731143 0.343159 0)
(-0.047983 0.294948 0)
(-0.0212566 0.209541 0)
(-0.00426158 0.0827202 0)
(-0.00290402 -0.0656536 0)
(-0.015657 -0.169903 0)
(-0.037494 -0.244824 0)
(-0.060588 -0.292538 0)
(-0.0805642 -0.317537 0)
(-0.0954959 -0.32494 0)
(-0.104779 -0.319583 0)
(-0.108691 -0.305574 0)
(-0.108007 -0.286156 0)
(-0.103698 -0.263752 0)
(-0.0967332 -0.240091 0)
(-0.0879853 -0.216353 0)
(-0.0781883 -0.193304 0)
(-0.0679298 -0.171408 0)
(-0.0576624 -0.150916 0)
(-0.0477234 -0.131926 0)
(-0.0383554 -0.114437 0)
(-0.0297279 -0.0983763 0)
(-0.0219545 -0.0836292 0)
(-0.0151085 -0.0700497 0)
(-0.00923535 -0.057474 0)
(-0.00436251 -0.0457269 0)
(-0.000507009 -0.0346259 0)
(0.00231866 -0.023984 0)
(0.00410236 -0.0136108 0)
(0.00482942 -0.00331306 0)
(0.00448107 0.00710567 0)
(0.00303399 0.0178452 0)
(0.000461122 0.029109 0)
(-0.00326609 0.0411046 0)
(-0.00817394 0.0540427 0)
(-0.0142807 0.0681358 0)
(-0.0215882 0.0835939 0)
(-0.030071 0.100619 0)
(-0.039661 0.119392 0)
(-0.0502282 0.14006 0)
(-0.0615566 0.162702 0)
(-0.0733153 0.187294 0)
(-0.0850264 0.213648 0)
(-0.0960324 0.241327 0)
(-0.105473 0.269534 0)
(-0.112281 0.296962 0)
(-0.115224 0.321623 0)
(-0.113019 0.34066 0)
(-0.104567 0.350201 0)
(-0.089344 0.345334 0)
(-0.0678879 0.32034 0)
(-0.0423558 0.269323 0)
(-0.0178173 0.187366 0)
(-0.00333647 0.0724767 0)
(-0.00234203 -0.058155 0)
(-0.0132911 -0.152554 0)
(-0.0330339 -0.223078 0)
(-0.0553512 -0.270825 0)
(-0.0764697 -0.298771 0)
(-0.0943795 -0.310633 0)
(-0.108089 -0.310177 0)
(-0.117386 -0.300816 0)
(-0.122579 -0.285408 0)
(-0.124255 -0.26622 0)
(-0.123105 -0.244968 0)
(-0.119818 -0.222902 0)
(-0.115021 -0.200895 0)
(-0.109255 -0.179526 0)
(-0.102961 -0.159155 0)
(-0.0964946 -0.139977 0)
(-0.0901279 -0.122069 0)
(-0.0840685 -0.105425 0)
(-0.07847 -0.0899764 0)
(-0.0734445 -0.0756146 0)
(-0.0690726 -0.0622014 0)
(-0.0654123 -0.0495787 0)
(-0.0625062 -0.0375748 0)
(-0.0603862 -0.0260085 0)
(-0.0590781 -0.0146913 0)
(-0.0586042 -0.00343019 0)
(-0.0589843 0.00797229 0)
(-0.0602365 0.0197165 0)
(-0.0623756 0.0320048 0)
(-0.0654105 0.0450404 0)
(-0.0693405 0.0590244 0)
(-0.0741489 0.0741525 0)
(-0.0797945 0.0906083 0)
(-0.0862014 0.108554 0)
(-0.0932445 0.128115 0)
(-0.100734 0.14936 0)
(-0.108394 0.172271 0)
(-0.115845 0.196697 0)
(-0.122583 0.2223 0)
(-0.127964 0.24848 0)
(-0.131208 0.274274 0)
(-0.131423 0.298251 0)
(-0.127676 0.318392 0)
(-0.119124 0.331991 0)
(-0.105242 0.335619 0)
(-0.0861335 0.325208 0)
(-0.0628652 0.296352 0)
(-0.0377718 0.244866 0)
(-0.0152966 0.167639 0)
(-0.00272208 0.0638689 0)
(-0.00196097 -0.0517464 0)
(-0.0115676 -0.137116 0)
(-0.029564 -0.202759 0)
(-0.0509269 -0.249225 0)
(-0.0724477 -0.278516 0)
(-0.0921995 -0.293339 0)
(-0.109014 -0.296611 0)
(-0.122368 -0.291117 0)
(-0.132231 -0.279315 0)
(-0.138875 -0.263248 0)
(-0.142736 -0.244545 0)
(-0.144315 -0.224448 0)
(-0.144108 -0.203874 0)
(-0.142577 -0.183473 0)
(-0.140123 -0.163679 0)
(-0.137084 -0.144761 0)
(-0.13374 -0.126863 0)
(-0.130314 -0.110034 0)
(-0.12698 -0.0942524 0)
(-0.123875 -0.0794461 0)
(-0.121105 -0.065505 0)
(-0.118749 -0.0522921 0)
(-0.116869 -0.0396509 0)
(-0.115511 -0.027411 0)
(-0.114711 -0.0153918 0)
(-0.114496 -0.00340585 0)
(-0.114886 0.00873897 0)
(-0.115892 0.0212373 0)
(-0.117518 0.0342839 0)
(-0.119753 0.0480706 0)
(-0.122573 0.0627824 0)
(-0.125932 0.0785914 0)
(-0.129754 0.0956486 0)
(-0.133925 0.114072 0)
(-0.13828 0.133929 0)
(-0.142591 0.155215 0)
(-0.146556 0.177822 0)
(-0.149784 0.201495 0)
(-0.151789 0.225782 0)
(-0.151989 0.249973 0)
(-0.14973 0.273018 0)
(-0.144324 0.29346 0)
(-0.135132 0.309359 0)
(-0.121698 0.31826 0)
(-0.103932 0.317223 0)
(-0.0823529 0.302956 0)
(-0.0582928 0.272115 0)
(-0.0340348 0.221752 0)
(-0.0133947 0.149919 0)
(-0.00229253 0.0564497 0)
(-0.00169245 -0.0461294 0)
(-0.0102851 -0.123174 0)
(-0.026852 -0.183725 0)
(-0.0472539 -0.228041 0)
(-0.0687654 -0.257494 0)
(-0.0896128 -0.274072 0)
(-0.108574 -0.280029 0)
(-0.12495 -0.277621 0)
(-0.138468 -0.268922 0)
(-0.149161 -0.255732 0)
(-0.157248 -0.239542 0)
(-0.163053 -0.221541 0)
(-0.166941 -0.20264 0)
(-0.169279 -0.183517 0)
(-0.170407 -0.164651 0)
(-0.17063 -0.146361 0)
(-0.17021 -0.128841 0)
(-0.16937 -0.112186 0)
(-0.16829 -0.0964147 0)
(-0.167118 -0.0814891 0)
(-0.165974 -0.0673271 0)
(-0.16495 -0.0538144 0)
(-0.16412 -0.0408126 0)
(-0.16354 -0.0281657 0)
(-0.163253 -0.0157053 0)
(-0.163287 -0.00325435 0)
(-0.163659 0.00936908 0)
(-0.164376 0.0223487 0)
(-0.165428 0.0358662 0)
(-0.16679 0.0500971 0)
(-0.168418 0.0652053 0)
(-0.170243 0.0813354 0)
(-0.172163 0.0986033 0)
(-0.174039 0.117082 0)
(-0.175682 0.136785 0)
(-0.176852 0.157643 0)
(-0.177243 0.179472 0)
(-0.176482 0.20194 0)
(-0.174134 0.224519 0)
(-0.169711 0.246438 0)
(-0.1627 0.266628 0)
(-0.15262 0.283674 0)
(-0.139098 0.295788 0)
(-0.121987 0.300809 0)
(-0.101514 0.296272 0)
(-0.0784493 0.279556 0)
(-0.0542245 0.248146 0)
(-0.0309632 0.199977 0)
(-0.0119193 0.13385 0)
(-0.00197821 0.049927 0)
(-0.00149709 -0.0411019 0)
(-0.0093122 -0.110409 0)
(-0.0247165 -0.165804 0)
(-0.044226 -0.207399 0)
(-0.0655113 -0.236148 0)
(-0.08697 -0.253528 0)
(-0.107397 -0.261286 0)
(-0.125999 -0.261238 0)
(-0.142348 -0.255118 0)
(-0.156295 -0.244482 0)
(-0.167887 -0.230663 0)
(-0.177295 -0.214763 0)
(-0.184757 -0.197655 0)
(-0.190544 -0.180013 0)
(-0.194927 -0.162332 0)
(-0.198163 -0.14496 0)
(-0.200488 -0.128125 0)
(-0.202105 -0.111956 0)
(-0.203191 -0.0965045 0)
(-0.203895 -0.0817624 0)
(-0.204339 -0.0676735 0)
(-0.204623 -0.0541458 0)
(-0.204826 -0.0410603 0)
(-0.205008 -0.0282779 0)
(-0.205214 -0.0156451 0)
(-0.205474 -0.00299898 0)
(-0.2058 0.00982852 0)
(-0.206192 0.0230061 0)
(-0.206632 0.0366989 0)
(-0.207081 0.0510624 0)
(-0.207481 0.0662369 0)
(-0.207744 0.0823379 0)
(-0.207756 0.0994463 0)
(-0.207361 0.117594 0)
(-0.206367 0.136747 0)
(-0.204533 0.156781 0)
(-0.201573 0.177459 0)
(-0.197154 0.198395 0)
(-0.190911 0.219021 0)
(-0.18246 0.238551 0)
(-0.171438 0.255941 0)
(-0.157551 0.269872 0)
(-0.14065 0.278739 0)
(-0.120827 0.280685 0)
(-0.0985241 0.273676 0)
(-0.0746515 0.255651 0)
(-0.0506388 0.224726 0)
(-0.0284118 0.179464 0)
(-0.0107468 0.119148 0)
(-0.00173944 0.044102 0)
(-0.00135124 -0.0365229 0)
(-0.00856198 -0.0985746 0)
(-0.0230212 -0.148831 0)
(-0.0417342 -0.187326 0)
(-0.0626899 -0.21474 0)
(-0.0844501 -0.23218 0)
(-0.105861 -0.241007 0)
(-0.12609 -0.24268 0)
(-0.144611 -0.238635 0)
(-0.161148 -0.230202 0)
(-0.175611 -0.218551 0)
(-0.188041 -0.204679 0)
(-0.198568 -0.189398 0)
(-0.20737 -0.173353 0)
(-0.214647 -0.157035 0)
(-0.220605 -0.140803 0)
(-0.225439 -0.124902 0)
(-0.229331 -0.109484 0)
(-0.232442 -0.0946254 0)
(-0.234912 -0.0803418 0)
(-0.236862 -0.0665997 0)
(-0.238389 -0.0533284 0)
(-0.239573 -0.040428 0)
(-0.240475 -0.0277773 0)
(-0.24114 -0.0152396 0)
(-0.241594 -0.00266835 0)
(-0.241846 0.010088 0)
(-0.24189 0.0231806 0)
(-0.241698 0.0367555 0)
(-0.241224 0.0509467 0)
(-0.240398 0.0658698 0)
(-0.239124 0.081612 0)
(-0.237279 0.0982222 0)
(-0.234706 0.115696 0)
(-0.231217 0.133961 0)
(-0.226589 0.152853 0)
(-0.220567 0.172099 0)
(-0.212874 0.191285 0)
(-0.203222 0.209833 0)
(-0.191336 0.226974 0)
(-0.17699 0.241728 0)
(-0.160055 0.252895 0)
(-0.140565 0.259072 0)
(-0.118784 0.258686 0)
(-0.0952966 0.250084 0)
(-0.0710737 0.231654 0)
(-0.0474907 0.201994 0)
(-0.0262715 0.160109 0)
(-0.00979659 0.105591 0)
(-0.00155267 0.0388338 0)
(-0.00124011 -0.0322907 0)
(-0.0079755 -0.0874838 0)
(-0.0216648 -0.132657 0)
(-0.0396828 -0.167805 0)
(-0.0602707 -0.193423 0)
(-0.0821374 -0.21035 0)
(-0.104194 -0.21965 0)
(-0.125602 -0.222494 0)
(-0.145779 -0.220067 0)
(-0.164357 -0.213489 0)
(-0.181144 -0.203777 0)
(-0.19608 -0.191811 0)
(-0.209197 -0.178331 0)
(-0.220592 -0.163938 0)
(-0.230396 -0.1491 0)
(-0.23876 -0.134171 0)
(-0.245842 -0.119401 0)
(-0.251791 -0.104955 0)
(-0.256749 -0.0909244 0)
(-0.260842 -0.0773437 0)
(-0.264181 -0.064198 0)
(-0.266858 -0.0514353 0)
(-0.268949 -0.0389741 0)
(-0.270513 -0.026711 0)
(-0.271589 -0.014527 0)
(-0.272202 -0.00229287 0)
(-0.272356 0.0101247 0)
(-0.272038 0.0228583 0)
(-0.271216 0.0360336 0)
(-0.269835 0.049763 0)
(-0.267821 0.064138 0)
(-0.265074 0.0792201 0)
(-0.26147 0.09503 0)
(-0.25686 0.111535 0)
(-0.251069 0.128633 0)
(-0.243901 0.146135 0)
(-0.235144 0.163749 0)
(-0.224579 0.181056 0)
(-0.212 0.197489 0)
(-0.197234 0.212325 0)
(-0.18018 0.224667 0)
(-0.160846 0.233452 0)
(-0.139405 0.237471 0)
(-0.116248 0.235416 0)
(-0.0920413 0.225952 0)
(-0.0677716 0.207828 0)
(-0.0447333 0.180006 0)
(-0.0244625 0.141799 0)
(-0.00901509 0.0929992 0)
(-0.00140339 0.0340185 0)
(-0.00115411 -0.0283304 0)
(-0.00751216 -0.0769906 0)
(-0.020573 -0.117151 0)
(-0.0379927 -0.148792 0)
(-0.058212 -0.172277 0)
(-0.080066 -0.18825 0)
(-0.102533 -0.197544 0)
(-0.124788 -0.201099 0)
(-0.146216 -0.199886 0)
(-0.16639 -0.194841 0)
(-0.185043 -0.186833 0)
(-0.20203 -0.17663 0)
(-0.217307 -0.16489 0)
(-0.230897 -0.152158 0)
(-0.242871 -0.138869 0)
(-0.253328 -0.125359 0)
(-0.262384 -0.111873 0)
(-0.270156 -0.0985784 0)
(-0.276763 -0.085576 0)
(-0.282313 -0.0729114 0)
(-0.286904 -0.0605851 0)
(-0.290619 -0.0485608 0)
(-0.293528 -0.0367737 0)
(-0.295682 -0.0251375 0)
(-0.297119 -0.0135506 0)
(-0.297855 -0.00190175 0)
(-0.297891 0.00992405 0)
(-0.29721 0.0220402 0)
(-0.295774 0.0345525 0)
(-0.293527 0.0475523 0)
(-0.29039 0.0611093 0)
(-0.286266 0.0752625 0)
(-0.281037 0.09001 0)
(-0.274565 0.105298 0)
(-0.266697 0.121005 0)
(-0.25727 0.136932 0)
(-0.246116 0.152781 0)
(-0.233079 0.168146 0)
(-0.21803 0.182493 0)
(-0.200889 0.195159 0)
(-0.181662 0.205343 0)
(-0.160467 0.212123 0)
(-0.137584 0.214474 0)
(-0.11349 0.21132 0)
(-0.0888948 0.201595 0)
(-0.0647718 0.184331 0)
(-0.0423263 0.158762 0)
(-0.022927 0.124422 0)
(-0.00836618 0.0812267 0)
(-0.00128229 0.0295766 0)
(-0.00108684 -0.0245854 0)
(-0.00714358 -0.0669799 0)
(-0.0196912 -0.102205 0)
(-0.0366015 -0.130235 0)
(-0.0564725 -0.151342 0)
(-0.0782448 -0.166022 0)
(-0.100961 -0.174928 0)
(-0.123816 -0.178814 0)
(-0.146183 -0.178468 0)
(-0.167595 -0.174666 0)
(-0.187729 -0.168141 0)
(-0.206378 -0.15955 0)
(-0.223433 -0.149468 0)
(-0.238857 -0.138377 0)
(-0.252665 -0.126672 0)
(-0.264909 -0.114661 0)
(-0.275666 -0.102575 0)
(-0.285024 -0.0905769 0)
(-0.293073 -0.078769 0)
(-0.299903 -0.0672041 0)
(-0.305598 -0.0558929 0)
(-0.310229 -0.0448122 0)
(-0.313857 -0.0339117 0)
(-0.316526 -0.0231211 0)
(-0.318268 -0.0123553 0)
(-0.319093 -0.00152059 0)
(-0.319 0.00948002 0)
(-0.317965 0.0207414 0)
(-0.315949 0.0323503 0)
(-0.312894 0.044379 0)
(-0.308722 0.056878 0)
(-0.303342 0.069868 0)
(-0.296644 0.0833305 0)
(-0.288508 0.0971975 0)
(-0.278806 0.11134 0)
(-0.267408 0.125557 0)
(-0.254194 0.139562 0)
(-0.239066 0.152972 0)
(-0.221966 0.165303 0)
(-0.202898 0.17596 0)
(-0.181952 0.184247 0)
(-0.159337 0.189375 0)
(-0.13541 0.190493 0)
(-0.110704 0.186723 0)
(-0.0859488 0.177221 0)
(-0.0620873 0.161247 0)
(-0.0402375 0.138234 0)
(-0.0216241 0.107871 0)
(-0.00782515 0.0701508 0)
(-0.00118324 0.0254449 0)
(-0.00103396 -0.0210116 0)
(-0.00684977 -0.0573593 0)
(-0.0189794 -0.0877231 0)
(-0.035461 -0.112077 0)
(-0.0550159 -0.130627 0)
(-0.0766713 -0.143755 0)
(-0.0995261 -0.151973 0)
(-0.122801 -0.155879 0)
(-0.145866 -0.156109 0)
(-0.168229 -0.153298 0)
(-0.189527 -0.148053 0)
(-0.209506 -0.140928 0)
(-0.228005 -0.132414 0)
(-0.244936 -0.122929 0)
(-0.260268 -0.112819 0)
(-0.274013 -0.10236 0)
(-0.28621 -0.0917608 0)
(-0.296917 -0.0811737 0)
(-0.306201 -0.0706977 0)
(-0.314133 -0.0603874 0)
(-0.320779 -0.0502603 0)
(-0.3262 -0.0403028 0)
(-0.330445 -0.0304774 0)
(-0.333553 -0.0207276 0)
(-0.335546 -0.0109841 0)
(-0.336432 -0.00116972 0)
(-0.336204 0.00879564 0)
(-0.334835 0.0189894 0)
(-0.332285 0.029481 0)
(-0.328496 0.0403257 0)
(-0.323395 0.0515583 0)
(-0.316896 0.0631856 0)
(-0.308903 0.075178 0)
(-0.299313 0.0874614 0)
(-0.288025 0.099907 0)
(-0.274944 0.112322 0)
(-0.259993 0.124442 0)
(-0.243128 0.13592 0)
(-0.224355 0.146327 0)
(-0.203745 0.155146 0)
(-0.181461 0.161784 0)
(-0.157781 0.165581 0)
(-0.133115 0.165839 0)
(-0.108033 0.161854 0)
(-0.0832676 0.152966 0)
(-0.0597252 0.138608 0)
(-0.038443 0.118369 0)
(-0.0205243 0.0920424 0)
(-0.00737496 0.0596657 0)
(-0.00110211 0.0215713 0)
(-0.00099245 -0.017574 0)
(-0.00661653 -0.0480531 0)
(-0.0184087 -0.0736237 0)
(-0.0345347 -0.0942627 0)
(-0.0538124 -0.110126 0)
(-0.0753387 -0.121505 0)
(-0.0982607 -0.128799 0)
(-0.121824 -0.132476 0)
(-0.145402 -0.133041 0)
(-0.168486 -0.131007 0)
(-0.190687 -0.126866 0)
(-0.211714 -0.121074 0)
(-0.231366 -0.11404 0)
(-0.249515 -0.106116 0)
(-0.266091 -0.0975969 0)
(-0.281069 -0.0887213 0)
(-0.294458 -0.079673 0)
(-0.306289 -0.0705871 0)
(-0.316607 -0.0615543 0)
(-0.325463 -0.0526274 0)
(-0.332909 -0.0438271 0)
(-0.338993 -0.0351471 0)
(-0.343756 -0.0265597 0)
(-0.347226 -0.0180213 0)
(-0.349422 -0.00947647 0)
(-0.350345 -0.000863187 0)
(-0.349983 0.00788275 0)
(-0.348311 0.016823 0)
(-0.345284 0.0260114 0)
(-0.340848 0.0354892 0)
(-0.334935 0.0452787 0)
(-0.327467 0.055377 0)
(-0.318361 0.0657492 0)
(-0.307533 0.0763213 0)
(-0.294906 0.0869721 0)
(-0.280418 0.0975264 0)
(-0.264034 0.107748 0)
(-0.245756 0.117336 0)
(-0.225643 0.125921 0)
(-0.203823 0.133068 0)
(-0.180516 0.138283 0)
(-0.15605 0.141028 0)
(-0.130877 0.140742 0)
(-0.105583 0.136871 0)
(-0.0808982 0.128902 0)
(-0.0576901 0.116411 0)
(-0.0369254 0.0991 0)
(-0.0196072 0.0768358 0)
(-0.00700382 0.0496771 0)
(-0.00103609 0.0179114 0)
(-0.00096022 -0.014244 0)
(-0.0064338 -0.0389978 0)
(-0.0179579 -0.0598349 0)
(-0.0337957 -0.0767363 0)
(-0.0528389 -0.089818 0)
(-0.0742395 -0.0993006 0)
(-0.0971844 -0.105488 0)
(-0.120942 -0.108739 0)
(-0.144889 -0.109448 0)
(-0.168513 -0.108014 0)
(-0.191401 -0.104827 0)
(-0.213237 -0.100251 0)
(-0.23379 -0.0946152 0)
(-0.2529 -0.0882064 0)
(-0.270465 -0.0812667 0)
(-0.286431 -0.0739938 0)
(-0.300782 -0.0665419 0)
(-0.313523 -0.059026 0)
(-0.324681 -0.0515249 0)
(-0.334291 -0.0440863 0)
(-0.34239 -0.0367308 0)
(-0.349015 -0.0294569 0)
(-0.354198 -0.0222452 0)
(-0.35796 -0.0150626 0)
(-0.360313 -0.00786643 0)
(-0.361254 -0.000608397 0)
(-0.36077 0.00676138 0)
(-0.358831 0.0142903 0)
(-0.355395 0.0220191 0)
(-0.350408 0.0299771 0)
(-0.343809 0.0381774 0)
(-0.335528 0.0466118 0)
(-0.325495 0.0552448 0)
(-0.313644 0.064008 0)
(-0.299921 0.0727943 0)
(-0.284292 0.0814522 0)
(-0.266757 0.0897815 0)
(-0.247358 0.0975304 0)
(-0.226197 0.104394 0)
(-0.203448 0.11002 0)
(-0.179375 0.11401 0)
(-0.154343 0.115939 0)
(-0.12883 0.115368 0)
(-0.103435 0.111872 0)
(-0.078876 0.105062 0)
(-0.0559862 0.0946257 0)
(-0.0356729 0.0803502 0)
(-0.0188586 0.0621534 0)
(-0.00670357 0.0400991 0)
(-0.00098324 0.0144261 0)
(-0.000935823 -0.0109971 0)
(-0.00629449 -0.0301382 0)
(-0.017612 -0.0462919 0)
(-0.0332241 -0.0594435 0)
(-0.0520779 -0.0696771 0)
(-0.0733673 -0.0771537 0)
(-0.0963103 -0.0820962 0)
(-0.120194 -0.0847715 0)
(-0.144403 -0.0854715 0)
(-0.168417 -0.084497 0)
(-0.191813 -0.0821425 0)
(-0.214256 -0.0786855 0)
(-0.235491 -0.0743783 0)
(-0.255334 -0.0694424 0)
(-0.273658 -0.0640666 0)
(-0.290388 -0.0584058 0)
(-0.305484 -0.0525825 0)
(-0.318935 -0.0466884 0)
(-0.330751 -0.0407876 0)
(-0.34095 -0.0349197 0)
(-0.349561 -0.0291035 0)
(-0.35661 -0.0233398 0)
(-0.362121 -0.0176157 0)
(-0.366108 -0.0119071 0)
(-0.368579 -0.00618256 0)
(-0.369527 -0.000406252 0)
(-0.368935 0.00545887 0)
(-0.366774 0.0114477 0)
(-0.363003 0.0175895 0)
(-0.357569 0.0239044 0)
(-0.350416 0.0303992 0)
(-0.341483 0.0370637 0)
(-0.330711 0.0438659 0)
(-0.318049 0.0507479 0)
(-0.303463 0.0576214 0)
(-0.286943 0.0643639 0)
(-0.268517 0.0708154 0)
(-0.24826 0.0767773 0)
(-0.226307 0.0820118 0)
(-0.202868 0.0862458 0)
(-0.178238 0.0891762 0)
(-0.15281 0.0904805 0)
(-0.127079 0.089831 0)
(-0.101649 0.0869125 0)
(-0.0772279 0.0814437 0)
(-0.0546173 0.0731996 0)
(-0.0346775 0.0620344 0)
(-0.0182686 0.0478987 0)
(-0.00646861 0.0308513 0)
(-0.000942216 0.0110798 0)
(-0.000918264 -0.00781234 0)
(-0.0061937 -0.0214254 0)
(-0.0173605 -0.0329352 0)
(-0.0328061 -0.0423313 0)
(-0.0515168 -0.0496705 0)
(-0.0727169 -0.0550627 0)
(-0.0956476 -0.0586606 0)
(-0.119611 -0.0606475 0)
(-0.143995 -0.0612257 0)
(-0.16828 -0.0606041 0)
(-0.192034 -0.0589885 0)
(-0.214908 -0.0565741 0)
(-0.236631 -0.0535388 0)
(-0.257002 -0.0500402 0)
(-0.275878 -0.0462131 0)
(-0.293164 -0.0421688 0)
(-0.308805 -0.0379957 0)
(-0.322777 -0.0337607 0)
(-0.335075 -0.0295111 0)
(-0.345709 -0.0252765 0)
(-0.354697 -0.0210715 0)
(-0.362058 -0.0168981 0)
(-0.367809 -0.012748 0)
(-0.37196 -0.00860512 0)
(-0.374514 -0.00444794 0)
(-0.375462 -0.000251775 0)
(-0.374785 0.00400881 0)
(-0.372453 0.00835758 0)
(-0.368425 0.0128142 0)
(-0.362652 0.0173913 0)
(-0.355082 0.0220922 0)
(-0.345659 0.0269073 0)
(-0.334334 0.0318115 0)
(-0.32107 0.0367609 0)
(-0.305845 0.0416897 0)
(-0.288672 0.046508 0)
(-0.269596 0.0510995 0)
(-0.248719 0.055321 0)
(-0.2262 0.0590025 0)
(-0.202273 0.0619499 0)
(-0.177259 0.0639499 0)
(-0.151566 0.0647772 0)
(-0.125702 0.0642047 0)
(-0.100273 0.0620161 0)
(-0.0759746 0.0580204 0)
(-0.053587 0.0520673 0)
(-0.0339342 0.0440618 0)
(-0.0178308 0.0339763 0)
(-0.00629515 0.0218572 0)
(-0.000912116 0.00783959 0)
(-0.000906886 -0.00467052 0)
(-0.00612815 -0.012815 0)
(-0.0171964 -0.0197093 0)
(-0.0325321 -0.0253474 0)
(-0.0511471 -0.0297622 0)
(-0.0722851 -0.0330176 0)
(-0.0952025 -0.0352026 0)
(-0.119211 -0.0364246 0)
(-0.143704 -0.0368023 0)
(-0.168159 -0.0364588 0)
(-0.19214 -0.0355158 0)
(-0.21529 -0.0340891 0)
(-0.237328 -0.0322847 0)
(-0.258041 -0.0301966 0)
(-0.277275 -0.0279058 0)
(-0.294924 -0.0254791 0)
(-0.310922 -0.0229702 0)
(-0.325235 -0.0204196 0)
(-0.33785 -0.0178562 0)
(-0.348769 -0.0152983 0)
(-0.358005 -0.0127553 0)
(-0.365571 -0.0102287 0)
(-0.371479 -0.00771421 0)
(-0.375737 -0.00520242 0)
(-0.378344 -0.00268084 0)
(-0.379289 -0.00013507 0)
(-0.378553 0.00244973 0)
(-0.376104 0.00508735 0)
(-0.371903 0.00778901 0)
(-0.365903 0.0105618 0)
(-0.358053 0.0134067 0)
(-0.348303 0.0163174 0)
(-0.336612 0.0192776 0)
(-0.322948 0.0222602 0)
(-0.307304 0.0252245 0)
(-0.289701 0.0281158 0)
(-0.270202 0.0308634 0)
(-0.248922 0.0333809 0)
(-0.226038 0.0355663 0)
(-0.201802 0.0373038 0)
(-0.176546 0.0384665 0)
(-0.150692 0.0389213 0)
(-0.124754 0.0385349 0)
(-0.0993373 0.0371809 0)
(-0.0751309 0.0347486 0)
(-0.0528983 0.0311518 0)
(-0.0334401 0.0263372 0)
(-0.0175409 0.020291 0)
(-0.00618073 0.0130429 0)
(-0.000892346 0.00467415 0)
(-0.000901291 -0.00155399 0)
(-0.00609584 -0.00426483 0)
(-0.0171154 -0.00656097 0)
(-0.0323966 -0.00844033 0)
(-0.0509635 -0.00991372 0)
(-0.0720696 -0.0110021 0)
(-0.094979 -0.0117348 0)
(-0.119008 -0.012147 0)
(-0.143552 -0.0122781 0)
(-0.168089 -0.0121685 0)
(-0.19218 -0.0118586 0)
(-0.215465 -0.0113867 0)
(-0.237657 -0.010788 0)
(-0.258539 -0.0100939 0)