/*--------------------------------*- C++ -*----------------------------------*\
  =========                 |
  \\      /  F ield         | OpenFOAM: The Open Source CFD Toolbox
   \\    /   O peration     | Website:  https://openfoam.org
    \\  /    A nd           | Version:  7
     \\/     M anipulation  |
\*---------------------------------------------------------------------------*/
FoamFile
{
    version     2.0;
    format      ascii;
    class       volVectorField;
    location    "0.0196";
    object      U;
}
// * * * * * * * * * * * * * * * * * * * * * * * * * * * * * * * * * * * * * //

dimensions      [0 1 -1 0 0 0 0];

internalField   nonuniform List<vector> 
2500
(
(2.36656e-05 -2.37244e-05 0)
(6.15581e-05 -2.22425e-05 0)
(6.22388e-05 -3.19545e-06 0)
(2.57344e-06 1.93458e-05 0)
(-0.000120403 4.05611e-05 0)
(-0.000300858 5.87325e-05 0)
(-0.000530369 7.34346e-05 0)
(-0.000799733 8.4784e-05 0)
(-0.00109978 9.30598e-05 0)
(-0.00142182 9.85725e-05 0)
(-0.00175778 0.000101625 0)
(-0.00210031 0.0001025 0)
(-0.00244277 0.000101459 0)
(-0.00277923 9.87387e-05 0)
(-0.00310444 9.45564e-05 0)
(-0.00341376 8.91068e-05 0)
(-0.00370316 8.25651e-05 0)
(-0.00396915 7.50886e-05 0)
(-0.00420872 6.68173e-05 0)
(-0.00441932 5.78766e-05 0)
(-0.0045988 4.83787e-05 0)
(-0.00474539 3.84255e-05 0)
(-0.00485766 2.81107e-05 0)
(-0.00493451 1.75223e-05 0)
(-0.00497515 6.7451e-06 0)
(-0.00497908 -4.13641e-06 0)
(-0.00494613 -1.50361e-05 0)
(-0.00487643 -2.58633e-05 0)
(-0.00477044 -3.65211e-05 0)
(-0.00462897 -4.69039e-05 0)
(-0.00445324 -5.68954e-05 0)
(-0.00424485 -6.63677e-05 0)
(-0.0040059 -7.51795e-05 0)
(-0.00373895 -8.31751e-05 0)
(-0.00344711 -9.01844e-05 0)
(-0.00313407 -9.60223e-05 0)
(-0.00280414 -0.000100489 0)
(-0.00246228 -0.000103371 0)
(-0.00211412 -0.00010444 0)
(-0.00176599 -0.000103456 0)
(-0.0014249 -0.000100166 0)
(-0.00109857 -9.43051e-05 0)
(-0.000795316 -8.56008e-05 0)
(-0.000524027 -7.37829e-05 0)
(-0.000293907 -5.86227e-05 0)
(-0.000114042 -4.00652e-05 0)
(7.39718e-06 -1.8609e-05 0)
(6.50624e-05 3.97516e-06 0)
(6.2583e-05 2.27727e-05 0)
(2.38088e-05 2.37595e-05 0)
(2.25134e-05 -6.17774e-05 0)
(2.6899e-05 -2.61988e-05 0)
(-7.34597e-05 7.25394e-05 0)
(-0.000310043 0.000188225 0)
(-0.000689367 0.000301024 0)
(-0.00120314 0.000401713 0)
(-0.0018353 0.000486416 0)
(-0.00256614 0.000554043 0)
(-0.00337466 0.000604833 0)
(-0.00423992 0.000639652 0)
(-0.00514181 0.000659665 0)
(-0.0060615 0.000666164 0)
(-0.00698166 0.000660473 0)
(-0.00788655 0.000643893 0)
(-0.00876206 0.000617674 0)
(-0.00959564 0.000582987 0)
(-0.0103762 0.000540924 0)
(-0.0110942 0.000492488 0)
(-0.0117413 0.000438597 0)
(-0.0123103 0.000380089 0)
(-0.0127954 0.000317732 0)
(-0.0131915 0.000252231 0)
(-0.0134946 0.000184247 0)
(-0.0137018 0.000114404 0)
(-0.0138109 4.33097e-05 0)
(-0.0138204 -2.84346e-05 0)
(-0.0137301 -0.000100216 0)
(-0.0135404 -0.000171398 0)
(-0.0132525 -0.000241304 0)
(-0.012869 -0.00030921 0)
(-0.0123932 -0.000374331 0)
(-0.0118298 -0.000435811 0)
(-0.0111845 -0.000492723 0)
(-0.0104644 -0.000544059 0)
(-0.00967828 -0.000588736 0)
(-0.00883609 -0.000625597 0)
(-0.00794954 -0.000653421 0)
(-0.00703197 -0.000670934 0)
(-0.00609837 -0.000676833 0)
(-0.00516539 -0.000669807 0)
(-0.00425127 -0.000648579 0)
(-0.00337563 -0.000611962 0)
(-0.00255919 -0.000558954 0)
(-0.0018233 -0.000488907 0)
(-0.00118905 -0.000401844 0)
(-0.0006759 -0.000299155 0)
(-0.000299328 -0.000185028 0)
(-6.66853e-05 -6.89551e-05 0)
(2.97903e-05 2.8956e-05 0)
(2.30859e-05 6.26177e-05 0)
(4.27006e-06 -6.35512e-05 0)
(-6.9461e-05 7.33324e-05 0)
(-0.000320824 0.000324544 0)
(-0.000767775 0.000611371 0)
(-0.00141325 0.000893843 0)
(-0.00224685 0.00115026 0)
(-0.00324784 0.00136964 0)
(-0.00438985 0.0015474 0)
(-0.00564391 0.00168259 0)
(-0.00698043 0.0017763 0)
(-0.00837039 0.00183077 0)
(-0.00978617 0.00184885 0)
(-0.011202 0.00183371 0)
(-0.0125942 0.0017886 0)
(-0.0139413 0.00171675 0)
(-0.0152242 0.00162124 0)
(-0.0164259 0.00150502 0)
(-0.0175315 0.00137082 0)
(-0.0185281 0.00122118 0)
(-0.0194046 0.00105844 0)
(-0.0201517 0.000884774 0)
(-0.0207617 0.000702178 0)
(-0.0212283 0.000512543 0)
(-0.0215469 0.000317666 0)
(-0.0217141 0.000119293 0)
(-0.0217278 -8.08406e-05 0)
(-0.0215874 -0.000280975 0)
(-0.0212938 -0.000479286 0)
(-0.0208491 -0.00067385 0)
(-0.0202572 -0.000862612 0)
(-0.0195235 -0.00104336 0)
(-0.0186551 -0.00121371 0)
(-0.0176613 -0.00137109 0)
(-0.0165531 -0.00151271 0)
(-0.0153437 -0.00163563 0)
(-0.0140488 -0.00173672 0)
(-0.0126862 -0.0018127 0)
(-0.0112762 -0.00186025 0)
(-0.00984142 -0.00187599 0)
(-0.00840686 -0.00185667 0)
(-0.00699951 -0.00179924 0)
(-0.00564812 -0.00170111 0)
(-0.00438258 -0.00156046 0)
(-0.00323303 -0.00137674 0)
(-0.00222856 -0.00115154 0)
(-0.00139527 -0.000890162 0)
(-0.000753118 -0.000604295 0)
(-0.00031131 -0.00031627 0)
(-6.52883e-05 -6.65435e-05 0)
(5.11558e-06 6.62665e-05 0)
(-1.73376e-05 -6.70023e-06 0)
(-0.000182926 0.000307303 0)
(-0.000605596 0.000770771 0)
(-0.00127794 0.00128175 0)
(-0.00219328 0.00178274 0)
(-0.00333707 0.00223948 0)
(-0.004684 0.00263291 0)
(-0.00620236 0.00295386 0)
(-0.00785727 0.00319932 0)
(-0.00961269 0.00337012 0)
(-0.0114329 0.00346939 0)
(-0.0132834 0.00350169 0)
(-0.0151319 0.00347232 0)
(-0.0169483 0.00338692 0)
(-0.0187053 0.00325125 0)
(-0.0203782 0.0030709 0)
(-0.0219451 0.00285126 0)
(-0.0233866 0.00259742 0)
(-0.024686 0.00231413 0)
(-0.0258287 0.00200582 0)
(-0.0268026 0.00167659 0)
(-0.0275977 0.00133029 0)
(-0.0282056 0.000970538 0)
(-0.0286204 0.000600796 0)
(-0.0288375 0.000224433 0)
(-0.0288544 -0.000155206 0)
(-0.0286703 -0.000534726 0)
(-0.0282864 -0.000910619 0)
(-0.0277056 -0.0012792 0)
(-0.0269329 -0.00163654 0)
(-0.0259756 -0.00197845 0)
(-0.024843 -0.0023004 0)
(-0.0235473 -0.00259754 0)
(-0.0221027 -0.00286468 0)
(-0.0205267 -0.00309631 0)
(-0.0188392 -0.00328667 0)
(-0.0170634 -0.00342979 0)
(-0.0152252 -0.00351961 0)
(-0.0133535 -0.00355016 0)
(-0.0114799 -0.00351577 0)
(-0.00963826 -0.00341135 0)
(-0.00786439 -0.00323284 0)
(-0.0061951 -0.00297782 0)
(-0.00466711 -0.00264641 0)
(-0.00331551 -0.00224274 0)
(-0.00217169 -0.00177718 0)
(-0.00126009 -0.00127005 0)
(-0.00059388 -0.000756649 0)
(-0.000177753 -0.000295294 0)
(-1.62902e-05 1.19502e-05 0)
(-3.78377e-05 0.000112218 0)
(-0.000295792 0.000684541 0)
(-0.000893472 0.00141849 0)
(-0.00179359 0.00219917 0)
(-0.00297616 0.00295642 0)
(-0.00442033 0.00364568 0)
(-0.00609535 0.00424044 0)
(-0.00796433 0.00472688 0)
(-0.00998726 0.00509962 0)
(-0.0121229 0.00535892 0)
(-0.0143301 0.00550865 0)
(-0.0165691 0.00555504 0)
(-0.0188022 0.00550567 0)
(-0.0209942 0.00536884 0)
(-0.023113 0.00515316 0)
(-0.0251294 0.00486714 0)
(-0.0270173 0.00451906 0)
(-0.0287537 0.00411682 0)
(-0.0303186 0.00366783 0)
(-0.0316947 0.00317907 0)
(-0.0328672 0.00265703 0)
(-0.0338242 0.00210781 0)
(-0.0345559 0.0015372 0)
(-0.0350547 0.000950728 0)
(-0.0353155 0.000353783 0)
(-0.0353351 -0.000248272 0)
(-0.0351128 -0.000850008 0)
(-0.0346498 -0.00144582 0)
(-0.0339498 -0.00202983 0)
(-0.0330189 -0.0025958 0)
(-0.0318657 -0.00313708 0)
(-0.0305017 -0.00364654 0)
(-0.0289412 -0.00411656 0)
(-0.0272015 -0.00453901 0)
(-0.0253031 -0.00490533 0)
(-0.0232701 -0.00520659 0)
(-0.0211296 -0.00543364 0)
(-0.0189124 -0.00557729 0)
(-0.0166525 -0.00562859 0)
(-0.0143866 -0.0055792 0)
(-0.0121543 -0.00542185 0)
(-0.00999697 -0.00515105 0)
(-0.00795698 -0.00476399 0)
(-0.00607642 -0.00426184 0)
(-0.00439558 -0.00365162 0)
(-0.00295105 -0.00294897 0)
(-0.00177262 -0.00218219 0)
(-0.000879595 -0.0013975 0)
(-0.000289621 -0.000666277 0)
(-3.65785e-05 -0.000103922 0)
(-5.5929e-05 0.000289157 0)
(-0.000401067 0.00120197 0)
(-0.00116845 0.00226601 0)
(-0.00229087 0.00336123 0)
(-0.00373347 0.0044096 0)
(-0.00546752 0.00535907 0)
(-0.00745577 0.00617717 0)
(-0.00965573 0.00684605 0)
(-0.0120224 0.00735817 0)
(-0.0145099 0.00771322 0)
(-0.0170723 0.00791584 0)
(-0.0196655 0.00797395 0)
(-0.0222472 0.00789755 0)
(-0.0247782 0.00769782 0)
(-0.0272222 0.00738645 0)
(-0.0295464 0.00697521 0)
(-0.0317213 0.00647562 0)
(-0.0337209 0.00589874 0)
(-0.0355224 0.00525505 0)
(-0.0371061 0.00455443 0)
(-0.0384553 0.00380614 0)
(-0.0395562 0.0030189 0)
(-0.0403978 0.00220101 0)
(-0.0409715 0.00136042 0)
(-0.0412713 0.000504885 0)
(-0.0412937 -0.000357879 0)
(-0.0410377 -0.00122006 0)
(-0.0405049 -0.0020736 0)
(-0.0396995 -0.00291007 0)
(-0.0386284 -0.00372055 0)
(-0.0373016 -0.00449554 0)
(-0.0357319 -0.0052249 0)
(-0.0339357 -0.00589779 0)
(-0.0319327 -0.00650276 0)
(-0.0297463 -0.00702774 0)
(-0.0274034 -0.00746025 0)
(-0.0249349 -0.00778754 0)
(-0.0223755 -0.00799693 0)
(-0.0197631 -0.00807622 0)
(-0.0171392 -0.00801417 0)
(-0.0145479 -0.00780124 0)
(-0.0120354 -0.00743045 0)
(-0.00964873 -0.00689865 0)
(-0.00743502 -0.00620805 0)
(-0.00543963 -0.00536847 0)
(-0.00370475 -0.00440023 0)
(-0.00226662 -0.00333831 0)
(-0.00115226 -0.00223707 0)
(-0.000393804 -0.00117638 0)
(-5.44312e-05 -0.000277273 0)
(-7.15379e-05 0.000518529 0)
(-0.000496871 0.00185144 0)
(-0.00142474 0.00330524 0)
(-0.00276015 0.00475974 0)
(-0.00445329 0.00613297 0)
(-0.00646661 0.00736813 0)
(-0.00875554 0.00842858 0)
(-0.0112714 0.00929348 0)
(-0.0139641 0.00995372 0)
(-0.0167829 0.0104088 0)
(-0.0196778 0.0106642 0)
(-0.0226004 0.0107298 0)
(-0.0255047 0.0106182 0)
(-0.0283478 0.0103437 0)
(-0.0310901 0.00992118 0)
(-0.0336957 0.00936609 0)
(-0.0361322 0.00869342 0)
(-0.0383711 0.00791771 0)
(-0.0403873 0.00705282 0)
(-0.0421592 0.00611183 0)
(-0.0436685 0.00510709 0)
(-0.0448998 0.00405024 0)
(-0.0458411 0.00295237 0)
(-0.0464828 0.00182415 0)
(-0.0468183 0.000675971 0)
(-0.0468439 -0.000481806 0)
(-0.0465583 -0.0016387 0)
(-0.0459634 -0.00278393 0)
(-0.0450635 -0.0039062 0)
(-0.0438665 -0.00499359 0)
(-0.0423832 -0.00603343 0)
(-0.0406278 -0.0070122 0)
(-0.0386182 -0.00791555 0)
(-0.0363761 -0.00872828 0)
(-0.033927 -0.0094345 0)
(-0.0313007 -0.0100178 0)
(-0.028531 -0.0104614 0)
(-0.0256557 -0.010749 0)
(-0.0227165 -0.0108647 0)
(-0.0197588 -0.0107943 0)
(-0.0168307 -0.0105257 0)
(-0.0139826 -0.0100502 0)
(-0.0112665 -0.00936429 0)
(-0.00873404 -0.00847088 0)
(-0.00643613 -0.00738203 0)
(-0.00442114 -0.00612184 0)
(-0.00273258 -0.00473028 0)
(-0.00140609 -0.00326725 0)
(-0.000488401 -0.00181735 0)
(-6.97614e-05 -0.000502415 0)
(-8.50599e-05 0.000794945 0)
(-0.000583794 0.00262356 0)
(-0.00166222 0.00452591 0)
(-0.00320044 0.00638447 0)
(-0.00513435 0.00811614 0)
(-0.00741725 0.00966173 0)
(-0.00999667 0.0109822 0)
(-0.0128173 0.0120549 0)
(-0.0158235 0.01287 0)
(-0.0189595 0.0134272 0)
(-0.0221713 0.0137336 0)
(-0.0254063 0.0138012 0)
(-0.0286152 0.0136453 0)
(-0.0317518 0.0132835 0)
(-0.0347735 0.0127346 0)
(-0.0376417 0.0120176 0)
(-0.0403216 0.0111513 0)
(-0.0427827 0.010154 0)
(-0.0449978 0.00904332 0)
(-0.0469439 0.00783571 0)
(-0.0486011 0.00654685 0)
(-0.0499531 0.00519159 0)
(-0.0509868 0.00378402 0)
(-0.0516918 0.00233775 0)
(-0.0520613 0.000866057 0)
(-0.0520908 -0.000617851 0)
(-0.0517792 -0.0021006 0)
(-0.0511282 -0.00356842 0)
(-0.0501427 -0.00500694 0)
(-0.0488308 -0.00640097 0)
(-0.0472042 -0.00773439 0)
(-0.045278 -0.00899005 0)
(-0.0430714 -0.0101497 0)
(-0.0406077 -0.0111942 0)
(-0.0379143 -0.0121034 0)
(-0.0350232 -0.0128565 0)
(-0.0319707 -0.0134329 0)
(-0.0287977 -0.0138117 0)
(-0.0255489 -0.0139735 0)
(-0.0222732 -0.0139004 0)
(-0.0190227 -0.0135778 0)
(-0.0158521 -0.012995 0)
(-0.0128179 -0.0121475 0)
(-0.00997687 -0.0110386 0)
(-0.00738573 -0.00968177 0)
(-0.00509961 -0.00810384 0)
(-0.00316988 -0.00634811 0)
(-0.00164118 -0.00447787 0)
(-0.000574063 -0.00257979 0)
(-8.29724e-05 -0.000773903 0)
(-9.69908e-05 0.00111385 0)
(-0.000663446 0.0035097 0)
(-0.00188366 0.00591819 0)
(-0.00361559 0.00822572 0)
(-0.00578183 0.0103499 0)
(-0.00832652 0.0122309 0)
(-0.011189 0.0138288 0)
(-0.014307 0.0151205 0)
(-0.0176186 0.0160962 0)
(-0.0210633 0.0167568 0)
(-0.0245823 0.0171113 0)
(-0.0281194 0.0171741 0)
(-0.0316217 0.016964 0)
(-0.0350398 0.0165022 0)
(-0.0383286 0.0158113 0)
(-0.041447 0.0149145 0)
(-0.0443584 0.0138347 0)
(-0.04703 0.0125941 0)
(-0.0494335 0.0112142 0)
(-0.0515442 0.00971526 0)
(-0.0533413 0.00811646 0)
(-0.0548074 0.00643598 0)
(-0.0559287 0.00469117 0)
(-0.0566944 0.00289872 0)
(-0.0570969 0.00107497 0)
(-0.0571316 -0.000763843 0)
(-0.0567972 -0.00260129 0)
(-0.0560952 -0.00442045 0)
(-0.0550309 -0.00620364 0)
(-0.0536125 -0.00793223 0)
(-0.0518522 -0.00958641 0)
(-0.0497661 -0.0111451 0)
(-0.0473742 -0.012586 0)
(-0.044701 -0.0138856 0)
(-0.0417757 -0.0150192 0)
(-0.0386319 -0.0159616 0)
(-0.0353085 -0.0166873 0)
(-0.0318486 -0.0171712 0)
(-0.0283003 -0.0173895 0)
(-0.0247157 -0.0173208 0)
(-0.0211509 -0.016947 0)
(-0.0176648 -0.0162554 0)
(-0.0143188 -0.0152398 0)
(-0.0111752 -0.0139031 0)
(-0.00829686 -0.0122597 0)
(-0.00574627 -0.0103378 0)
(-0.00358297 -0.00818264 0)
(-0.00186057 -0.00585937 0)
(-0.000652513 -0.00345514 0)
(-9.45789e-05 -0.00108716 0)
(-0.000107806 0.00147177 0)
(-0.000737788 0.00450291 0)
(-0.00209318 0.00747407 0)
(-0.00401203 0.0102757 0)
(-0.00640462 0.0128272 0)
(-0.0092061 0.0150694 0)
(-0.0123475 0.0169627 0)
(-0.015759 0.0184846 0)
(-0.0193726 0.0196265 0)
(-0.0231221 0.0203912 0)
(-0.026944 0.02079 0)
(-0.0307782 0.0208407 0)
(-0.0345682 0.0205659 0)
(-0.0382617 0.0199907 0)
(-0.0418109 0.019142 0)
(-0.0451727 0.0180475 0)
(-0.0483084 0.0167344 0)
(-0.0511838 0.0152293 0)
(-0.0537692 0.0135576 0)
(-0.0560389 0.0117436 0)
(-0.0579711 0.00981025 0)
(-0.0595477 0.00777917 0)
(-0.0607542 0.00567109 0)
(-0.0615793 0.00350597 0)
(-0.062015 0.00130329 0)
(-0.0620565 -0.00091757 0)
(-0.0617021 -0.00313698 0)
(-0.0609534 -0.00533473 0)
(-0.0598155 -0.00748972 0)
(-0.0582969 -0.00957966 0)
(-0.0564101 -0.0115809 0)
(-0.0541715 -0.0134682 0)
(-0.051602 -0.0152149 0)
(-0.048727 -0.0167929 0)
(-0.0455771 -0.0181726 0)
(-0.0421875 -0.019324 0)
(-0.0385991 -0.0202165 0)
(-0.0348575 -0.0208201 0)
(-0.0310138 -0.0211066 0)
(-0.0271236 -0.0210501 0)
(-0.0232468 -0.0206289 0)
(-0.0194469 -0.0198274 0)
(-0.0157905 -0.0186373 0)
(-0.012346 -0.0170606 0)
(-0.00918282 -0.0151111 0)
(-0.00637117 -0.0128179 0)
(-0.00397901 -0.010227 0)
(-0.00206879 -0.00740434 0)
(-0.000725856 -0.00443675 0)
(-0.00010508 -0.00143878 0)
(-0.000117933 0.00186639 0)
(-0.000808855 0.00559847 0)
(-0.00229544 0.00918818 0)
(-0.00439747 0.0125296 0)
(-0.00701364 0.0155442 0)
(-0.0100703 0.0181743 0)
(-0.0134901 0.0203818 0)
(-0.0171954 0.0221456 0)
(-0.0211114 0.0234594 0)
(-0.0251663 0.0243285 0)
(-0.0292916 0.0247676 0)
(-0.0334227 0.0247984 0)
(-0.0374997 0.0244476 0)
(-0.0414672 0.0237451 0)
(-0.045275 0.0227225 0)
(-0.0488777 0.0214121 0)
(-0.052235 0.0198459 0)
(-0.0553113 0.0180551 0)
(-0.0580758 0.0160694 0)
(-0.060502 0.0139172 0)
(-0.0625672 0.0116254 0)
(-0.0642528 0.00921918 0)
(-0.0655438 0.00672284 0)
(-0.0664286 0.00415961 0)
(-0.0668986 0.00155223 0)
(-0.0669489 -0.00107671 0)
(-0.0665774 -0.00370431 0)
(-0.0657856 -0.00630702 0)
(-0.0645784 -0.00886016 0)
(-0.0629642 -0.0113377 0)
(-0.0609557 -0.0137119 0)
(-0.0585694 -0.0159534 0)
(-0.0558268 -0.0180306 0)
(-0.0527542 -0.0199106 0)
(-0.0493829 -0.0215589 0)
(-0.0457499 -0.0229398 0)
(-0.0418978 -0.0240175 0)
(-0.0378747 -0.0247567 0)
(-0.0337346 -0.0251237 0)
(-0.0295367 -0.0250881 0)
(-0.025345 -0.024624 0)
(-0.0212281 -0.0237118 0)
(-0.0172581 -0.0223409 0)
(-0.0135097 -0.0205109 0)
(-0.0100599 -0.0182351 0)
(-0.00698659 -0.0155418 0)
(-0.00436658 -0.0124776 0)
(-0.00227097 -0.00910828 0)
(-0.000796297 -0.00552039 0)
(-0.000114929 -0.00182657 0)
(-0.000127751 0.00229646 0)
(-0.000878636 0.00679402 0)
(-0.0024953 0.0110582 0)
(-0.00478017 0.0149857 0)
(-0.00762082 0.0185004 0)
(-0.0109349 0.0215465 0)
(-0.0146365 0.0240878 0)
(-0.0186398 0.026106 0)
(-0.0228632 0.0275976 0)
(-0.0272284 0.0285715 0)
(-0.0316616 0.0290466 0)
(-0.0360939 0.029049 0)
(-0.0404613 0.0286105 0)
(-0.0447056 0.0277661 0)
(-0.0487738 0.0265527 0)
(-0.0526187 0.0250077 0)
(-0.0561984 0.0231682 0)
(-0.059476 0.0210703 0)
(-0.0624198 0.0187484 0)
(-0.0650025 0.0162351 0)
(-0.0672009 0.0135612 0)
(-0.0689961 0.0107559 0)
(-0.0703725 0.00784692 0)
(-0.0713182 0.00486083 0)
(-0.0718245 0.00182367 0)
(-0.071886 -0.00123874 0)
(-0.0715003 -0.00430021 0)
(-0.0706686 -0.00733376 0)
(-0.0693954 -0.0103111 0)
(-0.0676892 -0.0132024 0)
(-0.0655621 -0.0159758 0)
(-0.063031 -0.0185971 0)
(-0.0601175 -0.0210303 0)
(-0.0568483 -0.023237 0)
(-0.0532558 -0.025177 0)
(-0.0493781 -0.0268093 0)
(-0.0452596 -0.0280918 0)
(-0.040951 -0.0289835 0)
(-0.036509 -0.0294449 0)
(-0.0319967 -0.0294399 0)
(-0.0274826 -0.0289377 0)
(-0.0230405 -0.0279145 0)
(-0.0187487 -0.0263558 0)
(-0.014689 -0.0242589 0)
(-0.0109459 -0.0216349 0)
(-0.00760603 -0.0185115 0)
(-0.00475494 -0.0149345 0)
(-0.0024725 -0.0109701 0)
(-0.000866013 -0.00670442 0)
(-0.000124534 -0.00224951 0)
(-0.0001376 0.00276178 0)
(-0.000949037 0.00808959 0)
(-0.00269757 0.0130849 0)
(-0.00516854 0.0176463 0)
(-0.00823853 0.0216994 0)
(-0.0118164 0.0251907 0)
(-0.0158073 0.0280868 0)
(-0.0201172 0.0303725 0)
(-0.0246567 0.0320481 0)
(-0.0293412 0.0331271 0)
(-0.034091 0.0336333 0)
(-0.0388324 0.0335983 0)
(-0.0434975 0.0330596 0)
(-0.0480247 0.0320578 0)
(-0.0523588 0.0306358 0)
(-0.0564502 0.0288368 0)
(-0.0602558 0.0267034 0)
(-0.0637376 0.0242767 0)
(-0.0668631 0.021596 0)
(-0.0696043 0.0186984 0)
(-0.071938 0.0156191 0)
(-0.0738446 0.0123909 0)
(-0.0753086 0.00904508 0)
(-0.0763176 0.00561171 0)
(-0.0768628 0.00212004 0)
(-0.0769382 -0.00140089 0)
(-0.0765414 -0.00492165 0)
(-0.0756729 -0.00841185 0)
(-0.0743368 -0.0118396 0)
(-0.0725411 -0.0151711 0)
(-0.0702978 -0.0183701 0)
(-0.0676233 -0.021398 0)
(-0.0645392 -0.0242134 0)
(-0.0610726 -0.0267725 0)
(-0.0572563 -0.0290293 0)
(-0.0531298 -0.0309361 0)
(-0.048739 -0.0324448 0)
(-0.044137 -0.0335075 0)
(-0.0393838 -0.0340783 0)
(-0.0345461 -0.0341148 0)
(-0.0296976 -0.0335804 0)
(-0.0249176 -0.0324459 0)
(-0.0202912 -0.0306925 0)
(-0.0159077 -0.0283139 0)
(-0.0118599 -0.0253188 0)
(-0.00824359 -0.0217332 0)
(-0.00515363 -0.0176024 0)
(-0.00267878 -0.0129924 0)
(-0.000937124 -0.0079899 0)
(-0.000134267 -0.00270772 0)
(-0.000147787 0.00326313 0)
(-0.00102187 0.00948757 0)
(-0.00290699 0.0152726 0)
(-0.00557099 0.0205172 0)
(-0.00887921 0.0251488 0)
(-0.0127315 0.029116 0)
(-0.0170235 0.0323888 0)
(-0.0216527 0.0349556 0)
(-0.0265213 0.0368218 0)
(-0.0315378 0.0380059 0)
(-0.0366165 0.0385379 0)
(-0.0416784 0.0384557 0)
(-0.0466515 0.0378031 0)
(-0.0514709 0.0366276 0)
(-0.0560787 0.0349783 0)
(-0.0604235 0.0329049 0)
(-0.0644607 0.0304558 0)
(-0.0681515 0.0276778 0)
(-0.0714627 0.0246153 0)
(-0.0743662 0.0213101 0)
(-0.0768383 0.0178016 0)
(-0.0788595 0.0141266 0)
(-0.080414 0.01032 0)
(-0.0814895 0.0064151 0)
(-0.0820767 0.00244434 0)
(-0.0821694 -0.00156007 0)
(-0.0817647 -0.00556553 0)
(-0.0808626 -0.00953829 0)
(-0.0794666 -0.0134429 0)
(-0.0775839 -0.0172415 0)
(-0.0752258 -0.0208936 0)
(-0.0724085 -0.0243557 0)
(-0.0691531 -0.0275811 0)
(-0.0654867 -0.03052 0)
(-0.0614425 -0.03312 0)
(-0.0570608 -0.0353267 0)
(-0.0523893 -0.0370848 0)
(-0.0474832 -0.038339 0)
(-0.0424059 -0.039036 0)
(-0.0372282 -0.0391264 0)
(-0.032029 -0.0385665 0)
(-0.0268939 -0.0373211 0)
(-0.0219151 -0.035366 0)
(-0.0171902 -0.0326904 0)
(-0.0128213 -0.0292999 0)
(-0.00891372 -0.0252182 0)
(-0.00557232 -0.0204901 0)
(-0.00289521 -0.0151815 0)
(-0.00101169 -0.00938056 0)
(-0.000144469 -0.00320244 0)
(-0.000158597 0.0038022 0)
(-0.00109889 0.0109927 0)
(-0.00312814 0.0176286 0)
(-0.00599577 0.0236084 0)
(-0.00955525 0.0288604 0)
(-0.0136968 0.0333359 0)
(-0.0183062 0.0370081 0)
(-0.0232713 0.0398704 0)
(-0.0284861 0.0419334 0)
(-0.0338511 0.0432224 0)
(-0.0392742 0.043774 0)
(-0.044671 0.0436336 0)
(-0.0499652 0.0428523 0)
(-0.0550882 0.0414851 0)
(-0.0599796 0.0395886 0)
(-0.0645864 0.037219 0)
(-0.0688624 0.0344315 0)
(-0.0727683 0.0312788 0)
(-0.0762705 0.0278108 0)
(-0.0793407 0.0240741 0)
(-0.0819553 0.0201125 0)
(-0.0840948 0.0159667 0)
(-0.0857436 0.0116752 0)
(-0.0868891 0.00727445 0)
(-0.087522 0.00280007 0)
(-0.0876359 -0.00171279 0)
(-0.0872269 -0.00622845 0)
(-0.0862947 -0.01071 0)
(-0.0848419 -0.0151183 0)
(-0.0828747 -0.0194118 0)
(-0.0804037 -0.0235454 0)
(-0.0774439 -0.0274707 0)
(-0.074016 -0.0311353 0)
(-0.0701466 -0.0344833 0)
(-0.0658692 -0.0374553 0)
(-0.0612246 -0.0399894 0)
(-0.0562619 -0.0420225 0)
(-0.0510388 -0.0434911 0)
(-0.0456216 -0.0443335 0)
(-0.0400859 -0.044492 0)
(-0.0345158 -0.043915 0)
(-0.029004 -0.04256 0)
(-0.0236504 -0.0403963 0)
(-0.0185617 -0.037408 0)
(-0.0138499 -0.0335963 0)
(-0.00963105 -0.0289828 0)
(-0.00602073 -0.0236109 0)
(-0.00312718 -0.0175476 0)
(-0.00109172 -0.0108828 0)
(-0.000155467 -0.00373591 0)
(-0.000170302 0.00438157 0)
(-0.00118177 0.0126119 0)
(-0.00336556 0.0201637 0)
(-0.00645107 0.0269336 0)
(-0.0102789 0.0328505 0)
(-0.0147289 0.037868 0)
(-0.0196761 0.0419635 0)
(-0.0249981 0.0451357 0)
(-0.0305796 0.0474017 0)
(-0.0363129 0.0487943 0)
(-0.0420991 0.0493581 0)
(-0.0478478 0.0491469 0)
(-0.0534781 0.0482205 0)
(-0.058918 0.0466422 0)
(-0.0641045 0.0444766 0)
(-0.0689827 0.0417878 0)
(-0.0735056 0.0386379 0)
(-0.0776333 0.035086 0)
(-0.0813321 0.0311877 0)
(-0.0845738 0.026995 0)
(-0.0873352 0.0225559 0)
(-0.0895972 0.017915 0)
(-0.0913441 0.0131144 0)
(-0.0925637 0.00819365 0)
(-0.0932464 0.00319116 0)
(-0.0933855 -0.0018551 0)
(-0.0929766 -0.00690658 0)
(-0.0920184 -0.0119233 0)
(-0.0905124 -0.0168628 0)
(-0.0884639 -0.0216797 0)
(-0.085882 -0.0263244 0)
(-0.0827807 -0.0307434 0)
(-0.0791793 -0.0348784 0)
(-0.0751039 -0.0386669 0)
(-0.0705876 -0.0420421 0)
(-0.0656717 -0.0449341 0)
(-0.0604063 -0.0472708 0)
(-0.0548513 -0.0489795 0)
(-0.0490764 -0.0499891 0)
(-0.0431617 -0.0502325 0)
(-0.0371972 -0.0496487 0)
(-0.0312829 -0.0481868 0)
(-0.0255275 -0.0458085 0)
(-0.0200475 -0.0424912 0)
(-0.0149658 -0.0382317 0)
(-0.0104104 -0.0330482 0)
(-0.00650867 -0.0269832 0)
(-0.00338007 -0.0201047 0)
(-0.00117922 -0.0125057 0)
(-0.000167578 -0.00431145 0)
(-0.000183165 0.00500467 0)
(-0.00127219 0.0143545 0)
(-0.00362369 0.0228918 0)
(-0.00694497 0.0305102 0)
(-0.0110623 0.037139 0)
(-0.0158441 0.0427343 0)
(-0.0211537 0.0472776 0)
(-0.0268574 0.0507741 0)
(-0.0328298 0.0532485 0)
(-0.0389544 0.0547422 0)
(-0.0451246 0.0553091 0)
(-0.0512442 0.0550128 0)
(-0.0572272 0.0539227 0)
(-0.0629982 0.0521116 0)
(-0.0684917 0.0496533 0)
(-0.0736512 0.0466203 0)
(-0.0784291 0.0430823 0)
(-0.0827852 0.0391054 0)
(-0.086686 0.0347514 0)
(-0.0901039 0.0300774 0)
(-0.0930161 0.0251359 0)
(-0.0954043 0.0199757 0)
(-0.0972533 0.0146418 0)
(-0.0985509 0.00917687 0)
(-0.0992878 0.00362192 0)
(-0.0994566 -0.00198255 0)
(-0.0990526 -0.00759547 0)
(-0.0980733 -0.013174 0)
(-0.0965189 -0.0186727 0)
(-0.0943933 -0.0240422 0)
(-0.0917038 -0.0292287 0)
(-0.0884627 -0.0341734 0)
(-0.084688 -0.0388121 0)
(-0.0804044 -0.043075 0)
(-0.0756442 -0.0468876 0)
(-0.0704486 -0.0501709 0)
(-0.0648687 -0.0528431 0)
(-0.0589662 -0.0548212 0)
(-0.0528141 -0.0560234 0)
(-0.0464971 -0.0563715 0)
(-0.0401117 -0.0557941 0)
(-0.0337655 -0.0542301 0)
(-0.0275768 -0.051632 0)
(-0.0216731 -0.04797 0)
(-0.0161894 -0.0432347 0)
(-0.0112668 -0.0374408 0)
(-0.00704611 -0.0306298 0)
(-0.00365936 -0.0228708 0)
(-0.00127622 -0.0142611 0)
(-0.000181121 -0.00493339 0)
(-0.000197449 0.0056758 0)
(-0.00137179 0.0162318 0)
(-0.00390701 0.0258299 0)
(-0.00748554 0.0343598 0)
(-0.0119177 0.0417505 0)
(-0.0170589 0.0479607 0)
(-0.0227594 0.0529771 0)
(-0.0288732 0.0568119 0)
(-0.0352637 0.0594989 0)
(-0.041805 0.0610894 0)
(-0.0483823 0.0616481 0)
(-0.0548929 0.0612497 0)
(-0.061246 0.0599747 0)
(-0.0673626 0.0579068 0)
(-0.0731749 0.0551297 0)
(-0.0786251 0.0517254 0)
(-0.0836652 0.0477719 0)
(-0.0882552 0.0433429 0)
(-0.0923624 0.0385065 0)
(-0.09596 0.0333253 0)
(-0.0990263 0.0278564 0)
(-0.101544 0.0221523 0)
(-0.103498 0.0162611 0)
(-0.104878 0.0102283 0)
(-0.105673 0.00409695 0)
(-0.105877 -0.00209019 0)
(-0.105483 -0.00828987 0)
(-0.104488 -0.0144569 0)
(-0.102892 -0.0205428 0)
(-0.100694 -0.0264948 0)
(-0.0979023 -0.0322549 0)
(-0.0945253 -0.0377591 0)
(-0.0905792 -0.0429367 0)
(-0.0860868 -0.0477108 0)
(-0.0810792 -0.0519979 0)
(-0.0755969 -0.0557096 0)
(-0.0696913 -0.0587533 0)
(-0.0634257 -0.0610343 0)
(-0.0568762 -0.0624585 0)
(-0.0501323 -0.0629352 0)
(-0.0432969 -0.0623807 0)
(-0.0364862 -0.0607221 0)
(-0.0298288 -0.0579012 0)
(-0.0234643 -0.053879 0)
(-0.0175413 -0.0486393 0)
(-0.0122156 -0.0421925 0)
(-0.00764321 -0.0345783 0)
(-0.00397063 -0.0258679 0)
(-0.0013848 -0.0161635 0)
(-0.000196422 -0.00560711 0)
(-0.000213422 0.0064001 0)
(-0.00148227 0.0182575 0)
(-0.00422001 0.0289985 0)
(-0.0080809 0.0385076 0)
(-0.012857 0.0467133 0)
(-0.0183891 0.0535774 0)
(-0.0245129 0.0590923 0)
(-0.0310685 0.0632787 0)
(-0.0379072 0.0661806 0)
(-0.0448925 0.067861 0)
(-0.0519012 0.0683973 0)
(-0.0588236 0.0678767 0)
(-0.065564 0.0663926 0)
(-0.0720399 0.0640406 0)
(-0.0781814 0.0609159 0)
(-0.0839302 0.0571108 0)
(-0.0892379 0.0527125 0)
(-0.0940656 0.0478027 0)
(-0.0983816 0.0424563 0)
(-0.102161 0.0367414 0)
(-0.105383 0.0307198 0)
(-0.108031 0.0244476 0)
(-0.110093 0.0179757 0)
(-0.111558 0.0113518 0)
(-0.112416 0.00462097 0)
(-0.112659 -0.00217252 0)
(-0.112282 -0.00898366 0)
(-0.111279 -0.0157653 0)
(-0.109648 -0.0224664 0)
(-0.107387 -0.0290313 0)
(-0.104499 -0.0353977 0)
(-0.100993 -0.0414965 0)
(-0.0968801 -0.0472505 0)
(-0.0921812 -0.052575 0)
(-0.0869253 -0.0573776 0)
(-0.0811514 -0.0615588 0)
(-0.0749108 -0.0650144 0)
(-0.0682677 -0.0676365 0)
(-0.0613011 -0.0693171 0)
(-0.0541049 -0.0699512 0)
(-0.046789 -0.0694406 0)
(-0.0394787 -0.0676986 0)
(-0.0323137 -0.0646543 0)
(-0.025447 -0.060258 0)
(-0.0190424 -0.0544849 0)
(-0.0132724 -0.04734 0)
(-0.00831045 -0.0388614 0)
(-0.00431968 -0.029122 0)
(-0.0015071 -0.0182302 0)
(-0.000213824 -0.00633908 0)
(-0.000231364 0.0071836 0)
(-0.00160535 0.0204476 0)
(-0.00456728 0.032421 0)
(-0.00873926 0.0429825 0)
(-0.0138924 0.0520599 0)
(-0.0198509 0.0596182 0)
(-0.0264338 0.0656569 0)
(-0.0334658 0.0702066 0)
(-0.0407847 0.0733233 0)
(-0.0482426 0.0750836 0)
(-0.0557071 0.0755794 0)
(-0.0630616 0.0749127 0)
(-0.0702052 0.0731912 0)
(-0.0770523 0.0705244 0)
(-0.0835313 0.0670201 0)
(-0.0895836 0.062782 0)
(-0.0951616 0.0579075 0)
(-0.100228 0.0524867 0)
(-0.104752 0.0466016 0)
(-0.108711 0.0403263 0)
(-0.112088 0.0337269 0)
(-0.114867 0.0268628 0)
(-0.117037 0.0197878 0)
(-0.118589 0.0125509 0)
(-0.119513 0.00519863 0)
(-0.119802 -0.00222358 0)
(-0.119449 -0.00966967 0)
(-0.118446 -0.0170911 0)
(-0.116789 -0.024435 0)
(-0.114475 -0.0316429 0)
(-0.111503 -0.0386488 0)
(-0.107877 -0.0453784 0)
(-0.103606 -0.0517483 0)
(-0.0987065 -0.0576655 0)
(-0.0932052 -0.0630278 0)
(-0.0871386 -0.0677242 0)
(-0.0805567 -0.0716371 0)
(-0.0735243 -0.0746442 0)
(-0.0661223 -0.0766216 0)
(-0.0584494 -0.0774476 0)
(-0.0506222 -0.0770074 0)
(-0.0427754 -0.0751979 0)
(-0.0350611 -0.0719334 0)
(-0.0276468 -0.067151 0)
(-0.0207137 -0.0608156 0)
(-0.0144532 -0.0529257 0)
(-0.00905861 -0.0435166 0)
(-0.00471251 -0.0326635 0)
(-0.0016454 -0.0204815 0)
(-0.000233691 -0.00713692 0)
(-0.00025157 0.00803325 0)
(-0.00174284 0.0228201 0)
(-0.00495356 0.0361243 0)
(-0.009469 0.0478173 0)
(-0.0150362 0.0578263 0)
(-0.0214601 0.0661204 0)
(-0.0285409 0.0727076 0)
(-0.036086 0.0776299 0)
(-0.0439184 0.0809578 0)
(-0.0518779 0.0827838 0)
(-0.0598221 0.0832165 0)
(-0.0676271 0.082375 0)
(-0.0751873 0.0803834 0)
(-0.0824142 0.0773668 0)
(-0.0892351 0.0734473 0)
(-0.0955918 0.0687411 0)
(-0.101438 0.0633566 0)
(-0.106739 0.0573931 0)
(-0.111467 0.0509401 0)
(-0.115602 0.0440774 0)
(-0.119129 0.0368756 0)
(-0.122035 0.0293972 0)
(-0.124313 0.0216978 0)
(-0.125952 0.0138278 0)
(-0.126945 0.00583428 0)
(-0.127285 -0.00223699 0)
(-0.126962 -0.0103396 0)
(-0.12597 -0.0184244 0)
(-0.1243 -0.0264373 0)
(-0.121946 -0.0343175 0)
(-0.118903 -0.041996 0)
(-0.115172 -0.0493937 0)
(-0.110756 -0.0564206 0)
(-0.105667 -0.0629755 0)
(-0.0999289 -0.0689455 0)
(-0.0935736 -0.0742073 0)
(-0.0866492 -0.0786288 0)
(-0.0792197 -0.082071 0)
(-0.0713677 -0.0843922 0)
(-0.0631957 -0.0854517 0)
(-0.0548271 -0.0851151 0)
(-0.0464066 -0.0832603 0)
(-0.0380994 -0.0797835 0)
(-0.0300893 -0.074606 0)
(-0.0225765 -0.0676805 0)
(-0.0157743 -0.0589966 0)
(-0.00989885 -0.0485864 0)
(-0.00515544 -0.0365268 0)
(-0.00180209 -0.0229408 0)
(-0.000256416 -0.00800942 0)
(-0.000274357 0.00895692 0)
(-0.00189663 0.0253957 0)
(-0.00538374 0.0401384 0)
(-0.0102786 0.0530484 0)
(-0.0163005 0.0640524 0)
(-0.0232321 0.0731247 0)
(-0.0308522 0.0802834 0)
(-0.0389489 0.0855845 0)
(-0.0473284 0.0891155 0)
(-0.0558173 0.0909875 0)
(-0.0642628 0.0913289 0)
(-0.0725337 0.0902781 0)
(-0.0805197 0.0879784 0)
(-0.0881301 0.0845723 0)
(-0.0952919 0.0801978 0)
(-0.101948 0.0749851 0)
(-0.108056 0.0690547 0)
(-0.113582 0.0625154 0)
(-0.118503 0.0554647 0)
(-0.122804 0.0479881 0)
(-0.126472 0.0401604 0)
(-0.129499 0.0320467 0)
(-0.131879 0.0237041 0)
(-0.133603 0.0151834 0)
(-0.134667 0.00653164 0)
(-0.135063 -0.00220614 0)
(-0.13478 -0.010984 0)
(-0.13381 -0.0197531 0)
(-0.132141 -0.028459 0)
(-0.129764 -0.0370396 0)
(-0.12667 -0.0454231 0)
(-0.122852 -0.0535261 0)
(-0.11831 -0.0612523 0)
(-0.113051 -0.068492 0)
(-0.107091 -0.0751215 0)
(-0.100458 -0.0810039 0)
(-0.093196 -0.0859911 0)
(-0.085368 -0.0899258 0)
(-0.0770565 -0.0926458 0)
(-0.0683672 -0.0939886 0)
(-0.05943 -0.093797 0)
(-0.0503996 -0.0919263 0)
(-0.0414554 -0.0882514 0)
(-0.0327989 -0.0826745 0)
(-0.0246519 -0.0751328 0)
(-0.0172523 -0.065605 0)
(-0.0108427 -0.0541183 0)
(-0.00565503 -0.0407511 0)
(-0.0019797 -0.0256345 0)
(-0.000282426 -0.00896667 0)
(-0.000300067 0.00996352 0)
(-0.00206873 0.0281976 0)
(-0.00586294 0.0444969 0)
(-0.011177 0.0587159 0)
(-0.0176976 0.0707813 0)
(-0.0251821 0.0806742 0)
(-0.0333847 0.088425 0)
(-0.0420718 0.0941066 0)
(-0.0510312 0.0978266 0)
(-0.0600749 0.0997184 0)
(-0.0690395 0.0999332 0)
(-0.0777866 0.0986321 0)
(-0.0862015 0.0959799 0)
(-0.0941922 0.0921391 0)
(-0.101686 0.0872654 0)
(-0.10863 0.0815047 0)
(-0.114983 0.07499 0)
(-0.120718 0.0678408 0)
(-0.125816 0.0601624 0)
(-0.130266 0.0520462 0)