/*--------------------------------*- C++ -*----------------------------------*\
  =========                 |
  \\      /  F ield         | OpenFOAM: The Open Source CFD Toolbox
   \\    /   O peration     | Website:  https://openfoam.org
    \\  /    A nd           | Version:  7
     \\/     M anipulation  |
\*---------------------------------------------------------------------------*/
FoamFile
{
    version     2.0;
    format      ascii;
    class       volScalarField;
    location    "0.0418";
    object      p;
}
// * * * * * * * * * * * * * * * * * * * * * * * * * * * * * * * * * * * * * //

dimensions      [0 2 -2 0 0 0 0];

internalField   nonuniform List<scalar> 
2500
(
5.59639e-06
-0.000494337
-0.00200703
-0.00422002
-0.0067935
-0.00943435
-0.0119309
-0.0141149
-0.0158602
-0.0170761
-0.0177002
-0.0176931
-0.0170347
-0.0157209
-0.0137611
-0.0111764
-0.00799744
-0.0042633
-2.02898e-05
0.0046791
0.00977701
0.015211
0.0209146
0.0268182
0.0328494
0.0389337
0.0449953
0.0509577
0.0567445
0.0622802
0.0674913
0.0723074
0.0766622
0.080495
0.0837522
0.0863884
0.0883686
0.08967
0.0902834
0.0902161
0.0894939
0.088164
0.086299
0.0840003
0.0814049
0.0786898
0.0760778
0.0738561
0.0723665
0.0718996
0.000516374
1.44672e-05
-0.00121329
-0.00296273
-0.00497715
-0.00705295
-0.00901981
-0.0107374
-0.0120953
-0.01301
-0.0134212
-0.0132889
-0.0125899
-0.011316
-0.00947168
-0.0070723
-0.00414268
-0.000715808
0.00316826
0.00746335
0.0121179
0.017076
0.0222777
0.0276597
0.0331566
0.0387005
0.0442227
0.0496538
0.0549247
0.0599674
0.0647161
0.069108
0.0730846
0.0765929
0.0795868
0.082028
0.0838884
0.085151
0.0858118
0.0858817
0.0853885
0.0843791
0.0829217
0.0811085
0.0790586
0.07692
0.074869
0.0731086
0.0718954
0.0714331
0.00203814
0.00124381
8.23187e-06
-0.00157105
-0.00333278
-0.00511898
-0.00679253
-0.00823795
-0.00936104
-0.0100882
-0.0103646
-0.0101526
-0.00942954
-0.00818592
-0.00642393
-0.0041559
-0.00140306
0.00180555
0.00543412
0.00944088
0.0137789
0.018397
0.0232398
0.0282493
0.0333646
0.0385232
0.0436614
0.0487151
0.0536204
0.0583148
0.0627377
0.0668318
0.0705437
0.0738256
0.0766362
0.0789417
0.0807179
0.0819509
0.082639
0.0827941
0.0824431
0.0816296
0.0804156
0.0788824
0.0771321
0.0752872
0.07349
0.0718994
0.0706782
0.0699503
0.00427649
0.00301106
0.00156962
-3.70431e-05
-0.00173789
-0.00340898
-0.00493986
-0.00623771
-0.00722474
-0.00783857
-0.00803191
-0.0077716
-0.00703735
-0.00582047
-0.00412267
-0.00195488
0.000663729
0.00370673
0.00714127
0.0109289
0.0150261
0.0193854
0.0239552
0.0286813
0.0335068
0.0383733
0.0432211
0.04799
0.0526204
0.0570536
0.0612333
0.0651057
0.0686214
0.0717359
0.074411
0.0766157
0.0783279
0.0795351
0.0802358
0.0804409
0.0801749
0.0794764
0.0783997
0.0770147
0.075407
0.0736767
0.0719398
0.0703233
0.0689054
0.0677109
0.0069321
0.00507964
0.00333162
0.00159106
-0.00015505
-0.00180958
-0.00328463
-0.00450817
-0.00541829
-0.00596417
-0.00610676
-0.00581851
-0.00508266
-0.00389238
-0.00224997
-0.00016597
0.00234163
0.00524816
0.00852302
0.0121303
0.0160294
0.0201758
0.0245212
0.0290146
0.0336027
0.0382301
0.0428408
0.047378
0.0517853
0.0560074
0.059991
0.0636855
0.0670442
0.070025
0.0725918
0.0747153
0.0763743
0.0775566
0.0782599
0.0784932
0.078277
0.0776446
0.0766418
0.0753274
0.0737713
0.0720534
0.0702681
0.068517
0.0667982
0.0650291
0.00975457
0.00727349
0.00515656
0.00320655
0.00133519
-0.000380458
-0.00187064
-0.0030815
-0.00396565
-0.00448332
-0.00460386
-0.00430579
-0.00357654
-0.00241194
-0.000815712
0.0012012
0.0036212
0.00642065
0.00957045
0.0130366
0.0167808
0.0207608
0.0249311
0.0292432
0.0336465
0.0380887
0.0425162
0.0468752
0.0511117
0.0551732
0.0590084
0.0625689
0.06581
0.068691
0.0711771
0.0732396
0.0748572
0.0760169
0.0767151
0.0769576
0.0767609
0.0761521
0.0751691
0.0738599
0.0722806
0.070494
0.0685771
0.0666132
0.0645277
0.0621402
0.0125643
0.0094455
0.00692348
0.00471145
0.00265548
0.000818623
-0.000743347
-0.00199186
-0.00289231
-0.0034151
-0.00353759
-0.0032445
-0.00252779
-0.00138647
0.000173732
0.00214082
0.00449693
0.00721878
0.0102782
0.0136424
0.0172748
0.0211348
0.0251789
0.0293609
0.0336323
0.0379427
0.0422409
0.0464749
0.0505929
0.0545437
0.058278
0.0617486
0.0649116
0.0677273
0.0701608
0.0721834
0.0737729
0.0749148
0.0756031
0.0758402
0.075638
0.0750178
0.0740097
0.0726522
0.0709896
0.0690704
0.0669592
0.0647268
0.0622355
0.0592183
0.0152226
0.011473
0.00852751
0.00601943
0.00373767
0.00173611
6.01672e-05
-0.00126422
-0.0022134
-0.00276685
-0.0029094
-0.00263177
-0.00193057
-0.000808251
0.000727051
0.0026618
0.00497734
0.00765025
0.0106526
0.0139525
0.0175142
0.0212986
0.0252636
0.0293644
0.033554
0.0377839
0.0420041
0.0461642
0.0502135
0.054102
0.0577811
0.0612042
0.0643278
0.0671118
0.0695211
0.0715257
0.0731021
0.0742336
0.074911
0.0751333
0.0749077
0.0742495
0.073182
0.0717352
0.0699438
0.067845
0.0654946
0.0629559
0.0600372
0.056394
0.017623
0.013255
0.00987743
0.00705155
0.00451583
0.00231869
0.000498096
-0.000930271
-0.00195203
-0.00255463
-0.00272973
-0.00247369
-0.00178773
-0.000677852
0.000845128
0.0027658
0.00506433
0.00771665
0.0106948
0.013967
0.0174981
0.0212498
0.0251809
0.0292477
0.0334043
0.0376031
0.0417951
0.0459307
0.0499598
0.053833
0.0575017
0.0609193
0.0640417
0.0668283
0.0692425
0.0712527
0.0728332
0.0739647
0.0746346
0.074838
0.0745774
0.0738624
0.0727102
0.0711439
0.0691899
0.0668769
0.0642551
0.0613845
0.0580258
0.0537649
0.0196822
0.014707
0.0108933
0.00773537
0.00492631
0.0025118
0.000524728
-0.00102758
-0.00213858
-0.00280264
-0.00301757
-0.00278506
-0.00211074
-0.00100422
0.000520868
0.00244698
0.00475277
0.00741321
0.0103998
0.0136806
0.0172206
0.0209819
0.0249237
0.0290028
0.0331741
0.0373903
0.041603
0.0457627
0.0498197
0.0537241
0.0574272
0.0608815
0.0640418
0.0668661
0.0693159
0.0713574
0.0729622
0.0741077
0.0747778
0.0749633
0.074662
0.0738786
0.0726244
0.0709166
0.0687753
0.0662226
0.0633058
0.0600845
0.0562768
0.0514047
0.0213318
0.0157567
0.0115036
0.00800372
0.00490775
0.00226072
9.21418e-05
-0.00159748
-0.00280824
-0.0035406
-0.00379793
-0.00358684
-0.00291723
-0.0018023
-0.000258594
0.00169403
0.00403246
0.00673042
0.00975849
0.0130843
0.0166726
0.0204854
0.024482
0.0286194
0.0328524
0.0371342
0.0414161
0.0456486
0.0497813
0.0537639
0.0575466
0.0610806
0.0643191
0.067218
0.0697364
0.0718377
0.0734901
0.0746676
0.07535
0.0755237
0.075182
0.0743245
0.0729577
0.0710937
0.0687473
0.0659359
0.0627059
0.0591189
0.0548536
0.0493711
0.0225126
0.0163391
0.0116427
0.00779298
0.00440027
0.00151027
-0.000849614
-0.00268459
-0.00400048
-0.00480316
-0.00510107
-0.00490547
-0.00423036
-0.00309249
-0.00151141
0.000490589
0.00288843
0.00565429
0.00875766
0.0121653
0.0158415
0.0197478
0.0238432
0.0280847
0.0324268
0.0368222
0.041222
0.0455759
0.0498329
0.0539413
0.0578499
0.0615082
0.064867
0.0678796
0.0705023
0.072695
0.0744222
0.0756537
0.0763652
0.0765384
0.0761619
0.0752307
0.0737466
0.0717172
0.0691535
0.0660691
0.0625111
0.058545
0.0538116
0.0477124
0.0231703
0.0163937
0.011248
0.00704131
0.00334428
0.000204184
-0.00235279
-0.0043368
-0.0057588
-0.00662956
-0.00696226
-0.00677257
-0.00607851
-0.00490038
-0.00326076
-0.00118454
0.00130106
0.00416653
0.00737996
0.0109071
0.0147113
0.0187534
0.0229922
0.0273838
0.0318824
0.0364399
0.0410068
0.0455318
0.0499624
0.0542456
0.0583281
0.062157
0.0656806
0.068849
0.0716149
0.0739342
0.0757674
0.0770797
0.0778419
0.0780311
0.0776309
0.0766316
0.0750307
0.072832
0.0700429
0.0666746
0.0627758
0.058417
0.0532019
0.0464717
0.0232519
0.0158615
0.0102579
0.00568698
0.0016793
-0.00171564
-0.00447236
-0.00660549
-0.00813074
-0.00906349
-0.00942145
-0.00922463
-0.00849498
-0.00725639
-0.00553458
-0.00335714
-0.000753574
0.00224468
0.00560417
0.00928935
0.0132625
0.0174837
0.0219108
0.0264993
0.0312024
0.0359714
0.0407555
0.0455021
0.0501572
0.0546657
0.0589721
0.0630207
0.0667565
0.0701259
0.0730776
0.0755632
0.0775382
0.0789627
0.0798025
0.0800294
0.0796218
0.0785655
0.0768533
0.0744857
0.0714669
0.067806
0.0635545
0.0587887
0.0530745
0.0456909
0.0227034
0.0146828
0.00860999
0.00366677
-0.000657179
-0.00430998
-0.0072665
-0.00954572
-0.0111679
-0.012153
-0.0125232
-0.0123028
-0.0115177
-0.0101955
-0.00836523
-0.00605725
-0.00330354
-0.000137584
0.00340542
0.00728848
0.0114727
0.015917
0.0205783
0.0254112
0.030368
0.0353987
0.0404513
0.0454716
0.0504037
0.0551903
0.059773
0.0640931
0.0680918
0.0717114
0.0748959
0.0775919
0.0797495
0.0813232
0.0822729
0.0825648
0.0821719
0.0810747
0.0792618
0.0767297
0.07348
0.0695201
0.0649044
0.059716
0.053481
0.0454138
0.0214679
0.012795
0.00623889
0.000914607
-0.00373089
-0.00764312
-0.0107973
-0.0132167
-0.0149264
-0.0159507
-0.0163166
-0.0160526
-0.015189
-0.0137571
-0.0117893
-0.00931894
-0.00638068
-0.00301021
0.000755411
0.00487761
0.0093161
0.0140287
0.0189712
0.0240971
0.0293577
0.0347016
0.0400755
0.0454233
0.0506871
0.0558069
0.0607213
0.065368
0.0696842
0.0736074
0.0770765
0.0800323
0.0824188
0.0841844
0.0852825
0.0856729
0.0853225
0.0842063
0.0823079
0.0796201
0.0761415
0.0718776
0.0668865
0.0612583
0.0544772
0.0456882
0.0194833
0.0101313
0.00307522
-0.00263984
-0.00761185
-0.0117838
-0.0151313
-0.0176823
-0.0194667
-0.0205138
-0.0208552
-0.0205242
-0.0195556
-0.0179845
-0.0158471
-0.0131799
-0.0100203
-0.00640643
-0.00237725
0.00202693
0.00676441
0.0117918
0.0170636
0.0225324
0.0281481
0.0338582
0.0396077
0.0453387
0.050991
0.0565019
0.0618066
0.0668388
0.0715312
0.0758162
0.0796268
0.0828976
0.0855657
0.0875724
0.088864
0.0893929
0.0891194
0.088012
0.0860489
0.0832186
0.0795163
0.0749456
0.0695681
0.0634814
0.0561247
0.0465688
0.0166815
0.00661886
-0.000956068
-0.00707236
-0.0123755
-0.0168061
-0.0203404
-0.0230115
-0.0248545
-0.0259041
-0.0261971
-0.025772
-0.024668
-0.022925
-0.0205827
-0.0176812
-0.0142609
-0.0103623
-0.00602664
-0.00129586
0.00378682
0.00917673
0.0148274
0.02069
0.0267136
0.0328444
0.0390256
0.0451976
0.0512977
0.0572603
0.0630171
0.0684977
0.0736298
0.0783401
0.0825551
0.0862024
0.0892116
0.0915159
0.0930533
0.0937683
0.0936131
0.092549
0.090548
0.0875933
0.0836763
0.0787982
0.0730239
0.0664589
0.0584934
0.0481184
0.0129869
0.00217801
-0.00593689
-0.0124654
-0.0181037
-0.0227903
-0.0265024
-0.0292788
-0.0311607
-0.0321886
-0.0324052
-0.0318544
-0.0305809
-0.028629
-0.026043
-0.0228667
-0.0191433
-0.0149163
-0.0102289
-0.00512506
0.000350682
0.00615242
0.0122326
0.0185415
0.0250271
0.0316343
0.0383051
0.0449778
0.0515875
0.0580655
0.0643401
0.0703363
0.0759763
0.0811809
0.0858696
0.089962
0.0933793
0.0960456
0.0978896
0.0988464
0.0988591
0.0978806
0.0958753
0.0928202
0.088702
0.0835185
0.0773382
0.0702742
0.0616635
0.0504106
0.00831513
-0.00327956
-0.0119574
-0.0189095
-0.0248861
-0.0298238
-0.0337018
-0.0365651
-0.0384619
-0.0394393
-0.0395465
-0.038834
-0.037352
-0.0351503
-0.0322777
-0.0287821
-0.0247102
-0.0201082
-0.0150216
-0.00949614
-0.00357776
0.00268654
0.00924832
0.0160571
0.02306
0.030201
0.0374207
0.0446559
0.0518394
0.0588997
0.0657613
0.0723444
0.0785661
0.0843402
0.0895786
0.0941923
0.0980931
0.101195
0.103415
0.104679
0.104919
0.104077
0.102109
0.098984
0.0946834
0.0892004
0.0826063
0.0750223
0.0657271
0.053531
0.00257196
-0.00985183
-0.0191172
-0.0265041
-0.0328208
-0.0380025
-0.0420307
-0.0449581
-0.0468407
-0.0477334
-0.047693
-0.0467769
-0.0450423
-0.0425446
-0.039338
-0.0354747
-0.0310052
-0.0259785
-0.0204426
-0.0144448
-0.00803241
-0.00125334
0.00584336
0.0132067
0.0207833
0.0285165
0.0363461
0.0442073
0.0520311
0.0597433
0.0672647
0.074511
0.0813932
0.0878183
0.0936899
0.0989095
0.103378
0.106999
0.109676
0.111323
0.111859
0.111214
0.109335
0.10618
0.101722
0.0959499
0.0889369
0.0808121
0.0707905
0.0575799
-0.00434781
-0.0176479
-0.0275268
-0.0353595
-0.0420161
-0.0474313
-0.0515896
-0.0545528
-0.0563862
-0.0571535
-0.0569204
-0.0557527
-0.0537149
-0.0508694
-0.047276
-0.0429919
-0.0380715
-0.032567
-0.0265287
-0.0200056
-0.0130461
-0.00569865
0.00198736
0.00996091
0.0181685
0.0265533
0.0350546
0.043607
0.0521397
0.060576
0.0688335
0.0768233
0.0844505
0.0916147
0.0982108
0.10413
0.109261
0.113495
0.116721
0.118839
0.119753
0.119379
0.11765
0.114513
0.109932
0.103887
0.0964542
0.0877689
0.0769767
0.0626741
-0.0125618
-0.0267894
-0.0373095
-0.045598
-0.0525919
-0.0582257
-0.0624884
-0.0654525
-0.067194
-0.0677874
-0.0673087
-0.0658334
-0.0634346
-0.0601825
-0.0561434
-0.0513799
-0.0459507
-0.0399114
-0.0333146
-0.0262107
-0.018649
-0.0106783
-0.00234764
0.00629231
0.0151886
0.0242849
0.0335207
0.0428302
0.0521417
0.0613768
0.0704499
0.0792678
0.0877298
0.095728
0.103148
0.109869
0.115769
0.120722
0.124603
0.127293
0.128681
0.128665
0.127161
0.124104
0.119443
0.11315
0.1053
0.0960362
0.0844278
0.0689496
-0.0222014
-0.0374127
-0.048603
-0.0573561
-0.064681
-0.0705131
-0.0748474
-0.0777689
-0.0793667
-0.0797281
-0.0789412
-0.0770928
-0.0742663
-0.0705406
-0.0659896
-0.0606818
-0.0546806
-0.0480451
-0.0408301
-0.0330875
-0.0248668
-0.0162167
-0.00718552
0.00217728
0.01182
0.0216876
0.0317206
0.0418537
0.052015
0.062125
0.0720957
0.0818301
0.0912219
0.100156
0.108507
0.116144
0.122929
0.128721
0.133376
0.136757
0.138731
0.139177
0.13799
0.135086
0.130402
0.123894
0.115637
0.10578
0.093308
0.0765643
-0.0334138
-0.0496707
-0.0615617
-0.0707865
-0.0784316
-0.0844346
-0.0887985
-0.0916233
-0.0930141
-0.0930733
-0.0919037
-0.0896054
-0.0862737
-0.0819979
-0.0768601
-0.0709357
-0.0642932
-0.0569952
-0.0490987
-0.0406565
-0.0317183
-0.0223318
-0.0125439
-0.00240208
0.00804422
0.0187422
0.0296343
0.0406569
0.051739
0.062801
0.0737533
0.0844957
0.0949169
0.104894
0.114293
0.122969
0.130769
0.137534
0.143101
0.147308
0.149999
0.151028
0.150268
0.147611
0.142974
0.136298
0.127651
0.117191
0.103807
0.085701
-0.0463644
-0.0637359
-0.0763602
-0.086061
-0.0940095
-0.100147
-0.104486
-0.107147
-0.108253
-0.107925
-0.106283
-0.103444
-0.0995174
-0.0946032
-0.0887938
-0.082172
-0.0748118
-0.0667794
-0.0581339
-0.0489287
-0.0392128
-0.0290323
-0.0184317
-0.00745555
0.00385006
0.0154358
0.0272473
0.039224
0.051297
0.0633877
0.0754063
0.0872505
0.0988046
0.109939
0.120509
0.130359
0.139317
0.147206
0.153838
0.159027
0.162588
0.164347
0.164145
0.161849
0.157349
0.150565
0.141558
0.130489
0.116146
0.0965722
-0.0612395
-0.079804
-0.0931964
-0.103374
-0.111601
-0.117824
-0.122071
-0.124482
-0.125207
-0.124388
-0.122168
-0.11868
-0.114052
-0.108398
-0.10182
-0.0944099
-0.0862477
-0.077403
-0.0679366
-0.057902
-0.0473469
-0.0363146
-0.0248463
-0.0129822
-0.000763791
0.0117644
0.0245529
0.0375455
0.0506771
0.0638717
0.0770409
0.0900816
0.102875
0.115286
0.12716
0.138327
0.148601
0.15778
0.165653
0.172003
0.176612
0.179271
0.179787
0.177991
0.173741
0.166929
0.157606
0.14593
0.130579
0.109424
-0.0782508
-0.0980989
-0.112297
-0.122948
-0.131418
-0.137662
-0.141727
-0.143783
-0.144007
-0.142571
-0.139641
-0.135377
-0.129923
-0.12341
-0.115954
-0.107654
-0.0985965
-0.0888549
-0.0784913
-0.0675584
-0.0561013
-0.0441599
-0.0317703
-0.0189673
-0.00578612
0.00773529
0.0215541
0.0356202
0.0498743
0.064245
0.0786471
0.0929786
0.107119
0.120929
0.134246
0.146886
0.158646
0.169301
0.178612
0.186327
0.192192
0.195955
0.197379
0.196254
0.192395
0.18566
0.17608
0.163811
0.147403
0.124542
-0.0976402
-0.118879
-0.133924
-0.145038
-0.1537
-0.15988
-0.163649
-0.165214
-0.164789
-0.162579
-0.158785
-0.15359
-0.147164
-0.139656
-0.131194
-0.121889
-0.111834
-0.101104
-0.0897618
-0.0778591
-0.0654371
-0.0525304
-0.0391688
-0.0253797
-0.0111904
0.00336968
0.0182662
0.0334577
0.0488926
0.0645065
0.0802198
0.0959339
0.11153
0.126864
0.141768
0.156047
0.169478
0.181814
0.192783
0.202098
0.209458
0.214564
0.217127
0.216882
0.213592
0.207068
0.197314
0.184478
0.166967
0.142262
-0.119688
-0.142445
-0.158382
-0.169939
-0.178723
-0.184726
-0.188052
-0.188955
-0.187694
-0.184519
-0.179668
-0.17336
-0.165789
-0.157125
-0.147514
-0.137076
-0.125909
-0.114092
-0.101687
-0.0887413
-0.0752918
-0.061366
-0.0469855
-0.0321684
-0.0169319
-0.00129484
0.0147194
0.0310801
0.0477464
0.0646635
0.08176
0.0989441
0.1161
0.133084
0.149725
0.165815
0.181117
0.195358
0.208233
0.219413
0.228549
0.235281
0.239258
0.240149
0.23765
0.23151
0.221696
0.208337
0.189678
0.162973
-0.144722
-0.169153
-0.186033
-0.197999
-0.206809
-0.212484
-0.215174
-0.215195
-0.212865
-0.208488
-0.202349
-0.194707
-0.185788
-0.175785
-0.164861
-0.153145
-0.140743
-0.127733
-0.114176
-0.100114
-0.0855759
-0.0705811
-0.0551404
-0.0392603
-0.0229456
-0.00620219
0.01096
0.028524
0.0464622
0.0647327
0.0832759
0.10201
0.120826
0.139584
0.158112
0.176195
0.193579
0.209969
0.225026
0.238374
0.249608
0.258301
0.264025
0.266366
0.264936
0.259406
0.249684
0.235869
0.216021
0.187137
-0.173131
-0.19943
-0.217309
-0.22963
-0.238329
-0.243474
-0.245278
-0.244136
-0.240443
-0.234572
-0.226864
-0.217626
-0.207119
-0.195565
-0.183142
-0.16999
-0.156218
-0.141904
-0.127104
-0.111853
-0.0961694
-0.0800614
-0.0635266
-0.0465576
-0.029144
-0.0112761
0.00705244
0.0258412
0.0450793
0.0647411
0.0847826
0.105136
0.125703
0.146355
0.166919
0.187179
0.20687
0.225674
0.243217
0.259076
0.272783
0.283832
0.291704
0.295882
0.295874
0.291241
0.281815
0.267646
0.246572
0.215302
-0.205388
-0.233797
-0.252733
-0.265324
-0.273723
-0.278065
-0.278654
-0.275989
-0.270563
-0.262835
-0.253217
-0.242071
-0.2297
-0.216352
-0.202221
-0.187459
-0.172174
-0.156441
-0.140308
-0.123799
-0.106919
-0.0896622
-0.0720097
-0.0539372
-0.0354167
-0.0164198
0.00307911
0.0230993
0.0436498
0.0647256
0.086302
0.10833
0.13073
0.153383
0.176129
0.198754
0.220984
0.242485
0.26285
0.281607
0.298217
0.312089
0.322593
0.329089
0.330945
0.327586
0.318732
0.304355
0.282027
0.248126
-0.242071
-0.272898
-0.292952
-0.305681
-0.313513
-0.316683
-0.315621
-0.310967
-0.303343
-0.293312
-0.281373
-0.267951
-0.253393
-0.237976
-0.221911
-0.205351
-0.188405
-0.171137
-0.153584
-0.135755
-0.117638
-0.0992074
-0.0804265
-0.0612505
-0.0416304
-0.0215163
-0.000860172
0.0203802
0.0422377
0.0647313
0.0878611
0.111602
0.135897
0.160649
0.185714
0.210886
0.235895
0.260392
0.283945
0.306033
0.326046
0.343291
0.357014
0.36642
0.370706
0.369113
0.361203
0.34683
0.323235
0.286406
-0.283908
-0.317544
-0.338772
-0.351435
-0.358319
-0.359811
-0.356523
-0.349281
-0.338871
-0.32599
-0.311236
-0.295107
-0.277995
-0.260205
-0.241957
-0.223406
-0.204647
-0.185734
-0.166684
-0.147484
-0.128102
-0.10849
-0.0885874
-0.0683255
-0.0476316
-0.0264312
-0.00465097
0.0177777
0.0409152
0.0648088
0.0894881
0.114958
0.141191
0.16812
0.195623
0.223518
0.251545
0.279353
0.30649
0.332393
0.356378
0.377647
0.395298
0.408356
0.415794
0.416613
0.410156
0.396094
0.371246
0.331125
-0.331833
-0.368783
-0.391219
-0.403497
-0.408885
-0.408007
-0.401725
-0.391119
-0.377187
-0.360786
-0.342631
-0.323297
-0.303221
-0.282726
-0.262037
-0.241295
-0.220582
-0.199924
-0.179314
-0.158712
-0.138059
-0.117277
-0.0962792
-0.0749706
-0.0532507
-0.0310173
-0.00816887
0.0153927
0.0397586
0.0650091
0.0912079
0.118396
0.146585
0.175742
0.205785
0.236562
0.267838
0.299277
0.33042
0.36067
0.389279
0.415336
0.437778
0.45541
0.466931
0.471025
0.466723
0.453422
0.427379
0.38351
-0.387069
-0.427985
-0.451615
-0.463006
-0.466105
-0.461893
-0.451593
-0.436624
-0.418249
-0.397519
-0.375276
-0.352172
-0.328681
-0.305133
-0.281741
-0.258623
-0.235828
-0.213349
-0.191141
-0.169131
-0.147224
-0.125311
-0.103272
-0.0809815
-0.0583088
-0.0351213
-0.0112865
0.013326
0.0388413
0.0653764
0.0930345
0.121899
0.152026
0.183433
0.216085
0.249878
0.284621
0.320007
0.355595
0.390775
0.424743
0.456484
0.484759
0.508121
0.524932
0.533455
0.532291
0.520419
0.493321
0.44513
-0.451262
-0.496985
-0.521689
-0.531397
-0.531044
-0.522156
-0.506471
-0.485853
-0.461894
-0.435867
-0.408747
-0.381249
-0.353867
-0.326916
-0.300574
-0.274917
-0.249944
-0.225601
-0.201794
-0.178405
-0.155298
-0.132324
-0.109329
-0.0861507
-0.0626272
-0.038593
-0.0138824
0.0116694
0.0382245
0.0659396
0.0949621
0.125424
0.157435
0.191072
0.226362
0.263267
0.301661
0.341297
0.381775
0.422502
0.46265
0.501113
0.53648
0.567021
0.590688
0.605207
0.608573
0.599136
0.571274
0.51803
-0.526689
-0.578296
-0.603733
-0.610482
-0.604957
-0.589519
-0.566623
-0.538712
-0.507774
-0.475317
-0.442434
-0.409879
-0.378125
-0.347442
-0.317943
-0.289631
-0.262436
-0.236235
-0.210876
-0.186182
-0.16197
-0.138046
-0.114215
-0.0902787
-0.0660393
-0.0412973
-0.0158529
0.0104949
0.0379465
0.0667012
0.0969541
0.128892
0.162685
0.19848
0.236384
0.276445
0.318627
0.362775
0.408572
0.455486
0.502707
0.549081
0.593045
0.632575
0.665145
0.687796
0.697693
0.692236
0.664174
0.604956
-0.616599
-0.675432
-0.700826
-0.702547
-0.689286
-0.664669
-0.632137
-0.594861
-0.555268
-0.515088
-0.475491
-0.437208
-0.40064
-0.365955
-0.333159
-0.302151
-0.27276
-0.244778
-0.217975
-0.192109
-0.166939
-0.142221
-0.117716
-0.0931886
-0.0684034
-0.0431267
-0.0171236
0.00984238
0.0380112
0.0676259
0.0989318
0.132174
0.167592
0.205413
0.245839
0.289026
0.335059
0.383914
0.43541
0.489137
0.544374
0.599989
0.654324
0.705087
0.749226
0.782943
0.802276
0.803218
0.776038
0.709717
-0.725814
-0.793431
-0.817131
-0.810435
-0.785601
-0.748132
-0.702779
-0.653566
-0.603363
-0.55405
-0.506774
-0.462148
-0.420414
-0.381567
-0.345448
-0.311808
-0.280347
-0.250749
-0.222689
-0.19585
-0.169927
-0.144623
-0.119653
-0.0947417
-0.0696182
-0.0440149
-0.0176635
0.0097076
0.0383764
0.0686295
0.100763
0.135084
0.171906
0.211546
0.254314
0.300498
0.350339
0.40399
0.461467
0.522565
0.586756
0.653044
0.719794
0.784532
0.843695
0.892507
0.925542
0.936724
0.912498
0.837823
-0.861814
-0.939671
-0.958295
-0.937596
-0.895437
-0.840022
-0.777731
-0.71349
-0.650497
-0.590611
-0.534781
-0.483346
-0.436266
-0.393268
-0.353962
-0.317901
-0.284624
-0.25368
-0.224643
-0.197109
-0.170704
-0.145077
-0.119898
-0.0948526
-0.0696362
-0.0439501
-0.0174954
0.0100314
0.038944
0.06957
0.102256
0.137368
0.175299
0.216461
0.261285
0.310212
0.363669
0.422041
0.485613
0.554492
0.628477
0.706884
0.788307
0.870287
0.948886
1.01831
1.07133
1.09895
1.08166
0.997634
-1.03682
-1.12517
-1.13191
-1.08798
-1.01992
-0.939612
-0.855222
-0.772407
-0.69437
-0.622613
-0.557599
-0.499172
-0.446842
-0.399959
-0.35782
-0.319733
-0.285045
-0.253156
-0.223522
-0.195653
-0.169107
-0.143477
-0.118392
-0.0935032
-0.0684758
-0.0429847
-0.0167054
0.010693
0.0395544
0.0702432
0.103151
0.138703
0.177365
0.219649
0.266115
0.31737
0.374059
0.436846
0.506368
0.58316
0.667532
0.759358
0.857776
0.960723
1.06425
1.16175
1.24401
1.29811
1.29543
1.20256
-1.27202
-1.3666
-1.34782
-1.2655
-1.15899
-1.04458
-0.931946
-0.826816
-0.731716
-0.64722
-0.572875
-0.507733
-0.450657
-0.400492
-0.356153
-0.316658
-0.28114
-0.248841
-0.219101
-0.191343
-0.165061
-0.139802
-0.115159
-0.0907531
-0.0662289
-0.0412409
-0.0154455
0.0115081
0.0399873
0.0703854
0.103132
0.138702
0.177631
0.220524
0.268067
0.321042
0.380331
0.446915
0.521859
0.606258
0.701135
0.807245
0.924735
1.05256
1.18752
1.32291
1.44787
1.5447
1.57159
1.47557
-1.60636
-1.68928
-1.61757
-1.47234
-1.30959
-1.14962
-1.00212
-0.871378
-0.758018
-0.660807
-0.577802
-0.50691
-0.446143
-0.393734
-0.348157
-0.308121
-0.272542
-0.240511
-0.21126
-0.184139
-0.158589
-0.134122
-0.110304
-0.0867402
-0.0630604
-0.0389085
-0.0139312
0.0122335
0.0399665
0.0696798
0.101829
0.136929
0.175568
0.218432
0.266321
0.320184
0.381137
0.4505
0.529815
0.620846
0.725544
0.845912
0.983714
1.13986
1.31323
1.49867
1.68525
1.85092
1.93682
1.85828
-2.11183
-2.13086
-1.95256
-1.70587
-1.46302
-1.2446
-1.05647
-0.89848
-0.767403
-0.659024
-0.569254
-0.494509
-0.431798
-0.37868
-0.333187
-0.293734
-0.259047
-0.22809
-0.200016
-0.174124
-0.149821
-0.126601
-0.10402
-0.0816769
-0.0592004
-0.0362348
-0.0124274
0.0125835
0.0391805
0.0677812
0.0988527
0.13293
0.170636
0.212713
0.260048
0.313724
0.375066
0.445711
0.52768
0.623462
0.736092
0.869171
1.02677
1.21298
1.43082
1.67995
1.95344
2.2287
2.43027
2.42624
-2.91918
-2.74146
-2.36042
-1.95656
-1.60379
-1.31454
-1.08292
-0.899279
-0.753762
-0.63784
-0.544682
-0.469004
-0.406778
-0.354938
-0.31114
-0.27358
-0.24085
-0.211843
-0.185673
-0.161618
-0.139084
-0.117565
-0.0966248
-0.0758722
-0.0549478
-0.0335086
-0.0112146
0.0122836
0.0373571
0.0644136
0.0939139
0.126392
0.162478
0.202934
0.248694
0.300922
0.361087
0.431067
0.51329
0.610923
0.728108
0.870263
1.04437
1.25911
1.52451
1.85046
2.24218
2.68571
3.10288
3.31363
-4.32511
-3.56146
-2.81692
-2.19101
-1.70135
-1.33561
-1.06518
-0.8635
-0.711003
-0.593879
-0.502402
-0.42973
-0.371016
-0.322777
-0.282467
-0.248192
-0.218516
-0.192333
-0.168772
-0.147138
-0.126859
-0.107459
-0.0885279
-0.0697008
-0.0506439
-0.031039
-0.0105711
0.0110839
0.0342723
0.0593761
0.08683
0.117142
0.150918
0.188898
0.232006
0.281409
0.338615
0.405608
0.485043
0.580542
0.697128
0.841884
1.02487
1.26034
1.56851
1.97705
2.51578
3.19529
3.99469
4.82519
-7.15945
-4.55998
-3.14098
-2.25498
-1.64803
-1.23778
-0.958825
-0.762984
-0.620924
-0.514969
-0.433946
-0.370556
-0.319915
-0.278652
-0.244377
-0.215346
-0.190262
-0.168131
-0.148183
-0.129803
-0.11249
-0.0958291
-0.0794611
-0.0630701
-0.0463658
-0.0290719
-0.0109138
0.0083903
0.0291435
0.0516809
0.0763852
0.103705
0.134179
0.168467
0.207396
0.252024
0.303729
0.364353
0.43641
0.52343
0.630514
0.765263
0.939312
1.17103
1.49079
1.94886
2.61473
3.573
5.07814
7.79674
-12.0278
-5.64276
-2.97673
-1.87836
-1.28199
-0.928068
-0.709235
-0.564171
-0.461677
-0.38596
-0.328169
-0.282896
-0.246634
-0.216991
-0.192268
-0.171216
-0.152897
-0.136588
-0.12172
-0.107838
-0.0945685
-0.0815983
-0.0686575
-0.0555058
-0.0419217
-0.0276929
-0.0126089
0.00354981
0.0210179
0.0400555
0.0609594
0.0840764
0.109821
0.138698
0.171335
0.208527
0.251301
0.301016
0.359514
0.429378
0.514364
0.620225
0.756289
0.938974
1.20026
1.60398
2.26667
3.45994
6.24295
12.7536
)
;

boundaryField
{
    movingWall
    {
        type            zeroGradient;
    }
    fixedWalls
    {
        type            zeroGradient;
    }
    frontAndBack
    {
        type            empty;
    }
}


// ************************************************************************* //
