/*--------------------------------*- C++ -*----------------------------------*\
  =========                 |
  \\      /  F ield         | OpenFOAM: The Open Source CFD Toolbox
   \\    /   O peration     | Website:  https://openfoam.org
    \\  /    A nd           | Version:  7
     \\/     M anipulation  |
\*---------------------------------------------------------------------------*/
FoamFile
{
    version     2.0;
    format      ascii;
    class       volVectorField;
    location    "0.054";
    object      U;
}
// * * * * * * * * * * * * * * * * * * * * * * * * * * * * * * * * * * * * * //

dimensions      [0 1 -1 0 0 0 0];

internalField   nonuniform List<vector> 
2500
(
(2.91509e-05 -2.93659e-05 0)
(8.82822e-05 -3.56836e-05 0)
(0.000120982 -1.80849e-05 0)
(8.89297e-05 7.73565e-06 0)
(-1.93636e-05 3.40753e-05 0)
(-0.000202304 5.8247e-05 0)
(-0.000452896 7.91567e-05 0)
(-0.000762114 9.64928e-05 0)
(-0.00111995 0.000110281 0)
(-0.00151612 0.000120674 0)
(-0.00194051 0.000127869 0)
(-0.00238334 0.000132081 0)
(-0.00283533 0.00013353 0)
(-0.00328775 0.000132432 0)
(-0.00373246 0.000129001 0)
(-0.00416196 0.000123444 0)
(-0.00456936 0.000115962 0)
(-0.00494842 0.000106753 0)
(-0.00529355 9.60068e-05 0)
(-0.00559976 8.39115e-05 0)
(-0.00586275 7.06523e-05 0)
(-0.0060788 5.64138e-05 0)
(-0.00624489 4.13815e-05 0)
(-0.00635862 2.57432e-05 0)
(-0.00641827 9.69129e-06 0)
(-0.0064228 -6.57618e-06 0)
(-0.00637188 -2.28543e-05 0)
(-0.0062659 -3.89303e-05 0)
(-0.006106 -5.45832e-05 0)
(-0.00589409 -6.95838e-05 0)
(-0.00563287 -8.36954e-05 0)
(-0.00532586 -9.66748e-05 0)
(-0.00497738 -0.000108274 0)
(-0.0045926 -0.000118242 0)
(-0.00417748 -0.00012633 0)
(-0.0037388 -0.000132289 0)
(-0.00328409 -0.000135878 0)
(-0.00282161 -0.000136868 0)
(-0.00236028 -0.000135042 0)
(-0.00190959 -0.000130198 0)
(-0.00147951 -0.000122158 0)
(-0.00108031 -0.000110771 0)
(-0.000722413 -9.59267e-05 0)
(-0.000416112 -7.75838e-05 0)
(-0.000171084 -5.58547e-05 0)
(4.31329e-06 -3.12251e-05 0)
(0.000104265 -4.96115e-06 0)
(0.000128221 2.00127e-05 0)
(8.96546e-05 3.65887e-05 0)
(2.88634e-05 2.88063e-05 0)
(3.58705e-05 -8.8758e-05 0)
(8.0057e-05 -7.94173e-05 0)
(3.01208e-05 1.92823e-05 0)
(-0.000172226 0.000153182 0)
(-0.000550021 0.000294409 0)
(-0.00110336 0.000428874 0)
(-0.00182053 0.000549225 0)
(-0.00268286 0.00065195 0)
(-0.00366776 0.00073561 0)
(-0.00475072 0.000799882 0)
(-0.00590663 0.000845086 0)
(-0.0071106 0.000871918 0)
(-0.00833848 0.000881304 0)
(-0.0095672 0.000874308 0)
(-0.010775 0.00085208 0)
(-0.0119418 0.000815817 0)
(-0.0130487 0.000766739 0)
(-0.0140787 0.000706083 0)
(-0.0150167 0.000635089 0)
(-0.0158488 0.000555001 0)
(-0.0165632 0.000467069 0)
(-0.0171499 0.000372552 0)
(-0.0176005 0.000272727 0)
(-0.0179084 0.00016889 0)
(-0.018069 6.23687e-05 0)
(-0.0180797 -4.54766e-05 0)
(-0.0179395 -0.000153244 0)
(-0.0176497 -0.00025949 0)
(-0.0172136 -0.000362729 0)
(-0.0166365 -0.000461432 0)
(-0.0159261 -0.000554039 0)
(-0.0150919 -0.000638966 0)
(-0.0141459 -0.000714615 0)
(-0.0131022 -0.000779398 0)
(-0.011977 -0.000831752 0)
(-0.0107885 -0.000870167 0)
(-0.00955708 -0.000893216 0)
(-0.00830462 -0.000899587 0)
(-0.00705472 -0.00088812 0)
(-0.00583219 -0.00085786 0)
(-0.00466273 -0.000808112 0)
(-0.0035724 -0.000738538 0)
(-0.00258696 -0.000649294 0)
(-0.0017309 -0.000541278 0)
(-0.00102609 -0.000416592 0)
(-0.000489686 -0.00027946 0)
(-0.000131074 -0.000137879 0)
(5.28352e-05 -6.56298e-06 0)
(8.81461e-05 8.7127e-05 0)
(3.69195e-05 8.96581e-05 0)
(1.92489e-05 -0.000122949 0)
(-1.52438e-05 -3.04489e-05 0)
(-0.000227113 0.000232605 0)
(-0.000665253 0.000569623 0)
(-0.00135198 0.000926647 0)
(-0.00228765 0.00127106 0)
(-0.0034572 0.00158369 0)
(-0.00483557 0.00185385 0)
(-0.00639151 0.00207608 0)
(-0.00809032 0.00224811 0)
(-0.00989565 0.00236968 0)
(-0.0117709 0.00244188 0)
(-0.0136801 0.0024666 0)
(-0.0155885 0.00244633 0)
(-0.0174631 0.00238392 0)
(-0.0192731 0.00228247 0)
(-0.0209898 0.00214522 0)
(-0.0225869 0.00197552 0)
(-0.0240408 0.00177678 0)
(-0.0253304 0.00155248 0)
(-0.0264373 0.00130613 0)
(-0.0273459 0.00104128 0)
(-0.0280432 0.000761546 0)
(-0.0285192 0.000470619 0)
(-0.0287668 0.000172264 0)
(-0.0287818 -0.000129656 0)
(-0.0285631 -0.000431177 0)
(-0.0281127 -0.000728225 0)
(-0.0274358 -0.00101663 0)
(-0.0265408 -0.00129211 0)
(-0.0254396 -0.00155032 0)
(-0.0241471 -0.00178689 0)
(-0.0226819 -0.00199741 0)
(-0.0210656 -0.00217755 0)
(-0.0193231 -0.00232307 0)
(-0.0174825 -0.00242995 0)
(-0.0155745 -0.00249441 0)
(-0.0136325 -0.00251308 0)
(-0.0116921 -0.00248311 0)
(-0.00979039 -0.0024023 0)
(-0.00796553 -0.00226933 0)
(-0.00625576 -0.00208404 0)
(-0.00469833 -0.00184787 0)
(-0.003328 -0.00156451 0)
(-0.00217505 -0.001241 0)
(-0.00126253 -0.000889597 0)
(-0.00060253 -0.000530896 0)
(-0.00019097 -0.000198585 0)
(-1.34214e-06 5.31327e-05 0)
(2.14596e-05 0.000129777 0)
(-4.9854e-06 -9.4941e-05 0)
(-0.00014538 0.000168013 0)
(-0.000560145 0.000669531 0)
(-0.00127235 0.00127967 0)
(-0.00229465 0.00191948 0)
(-0.00362378 0.00253751 0)
(-0.00524013 0.00310114 0)
(-0.00711286 0.00359072 0)
(-0.00920381 0.00399517 0)
(-0.0114703 0.00430906 0)
(-0.0138672 0.00453084 0)
(-0.0163486 0.00466157 0)
(-0.0188691 0.00470408 0)
(-0.0213845 0.00466246 0)
(-0.0238525 0.00454165 0)
(-0.0262333 0.00434717 0)
(-0.02849 0.00408494 0)
(-0.0305884 0.00376117 0)
(-0.0324979 0.00338224 0)
(-0.034191 0.00295469 0)
(-0.0356437 0.0024852 0)
(-0.0368356 0.00198053 0)
(-0.03775 0.00144761 0)
(-0.0383737 0.000893479 0)
(-0.0386975 0.000325355 0)
(-0.0387162 -0.000249377 0)
(-0.0384282 -0.000823144 0)
(-0.0378364 -0.00138819 0)
(-0.0369476 -0.00193656 0)
(-0.0357729 -0.00246017 0)
(-0.0343277 -0.00295082 0)
(-0.0326317 -0.00340023 0)
(-0.0307088 -0.00380019 0)
(-0.0285873 -0.00414259 0)
(-0.0262994 -0.0044196 0)
(-0.0238813 -0.00462381 0)
(-0.0213724 -0.00474837 0)
(-0.0188158 -0.00478728 0)
(-0.0162565 -0.00473557 0)
(-0.013742 -0.00458969 0)
(-0.0113202 -0.00434782 0)
(-0.0090391 -0.00401053 0)
(-0.00694502 -0.00358145 0)
(-0.00508079 -0.00306844 0)
(-0.00348354 -0.0024853 0)
(-0.00218189 -0.00185438 0)
(-0.00119204 -0.00121074 0)
(-0.000512963 -0.000607624 0)
(-0.000126538 -0.000124566 0)
(-1.65515e-06 0.000110639 0)
(-3.01417e-05 7.40505e-06 0)
(-0.000285868 0.000541695 0)
(-0.0009227 0.00135805 0)
(-0.00192909 0.00230427 0)
(-0.00330245 0.00328145 0)
(-0.00503235 0.00422152 0)
(-0.00709271 0.00507897 0)
(-0.00944631 0.0058248 0)
(-0.0120485 0.00644163 0)
(-0.0148496 0.00692024 0)
(-0.0177974 0.00725719 0)
(-0.0208381 0.00745318 0)
(-0.0239184 0.00751186 0)
(-0.0269865 0.00743898 0)
(-0.0299923 0.00724177 0)
(-0.0328886 0.00692856 0)
(-0.0356315 0.00650839 0)
(-0.0381803 0.00599088 0)
(-0.0404983 0.00538602 0)
(-0.0425527 0.0047041 0)
(-0.0443147 0.00395566 0)
(-0.04576 0.00315147 0)
(-0.0468684 0.00230251 0)
(-0.0476242 0.00142001 0)
(-0.0480165 0.000515465 0)
(-0.0480389 -0.00039938 0)
(-0.0476899 -0.00131248 0)
(-0.0469726 -0.0022115 0)
(-0.0458954 -0.00308388 0)
(-0.0444717 -0.00391679 0)
(-0.0427199 -0.0046973 0)
(-0.0406636 -0.00541242 0)
(-0.0383314 -0.00604925 0)
(-0.035757 -0.00659515 0)
(-0.0329788 -0.00703794 0)
(-0.0300396 -0.00736618 0)
(-0.0269866 -0.00756943 0)
(-0.0238703 -0.00763863 0)
(-0.0207442 -0.00756647 0)
(-0.0176638 -0.00734798 0)
(-0.0146855 -0.00698105 0)
(-0.0118652 -0.00646736 0)
(-0.0092571 -0.00581341 0)
(-0.006911 -0.00503205 0)
(-0.00487068 -0.00414465 0)
(-0.00317101 -0.00318422 0)
(-0.00183437 -0.00219992 0)
(-0.000866387 -0.00126264 0)
(-0.000263004 -0.000472595 0)
(-2.59577e-05 1.93408e-05 0)
(-5.3989e-05 0.000184554 0)
(-0.000425607 0.00109775 0)
(-0.00129018 0.00231016 0)
(-0.00259866 0.00365636 0)
(-0.00433008 0.0050229 0)
(-0.00646413 0.00632819 0)
(-0.00896638 0.00751542 0)
(-0.0117922 0.00854685 0)
(-0.01489 0.00939886 0)
(-0.0182037 0.0100582 0)
(-0.0216741 0.0105195 0)
(-0.0252411 0.0107829 0)
(-0.0288445 0.0108527 0)
(-0.0324257 0.0107365 0)
(-0.0359284 0.0104439 0)
(-0.039299 0.00998646 0)
(-0.0424876 0.00937668 0)
(-0.0454482 0.00862803 0)
(-0.048139 0.00775464 0)
(-0.0505225 0.00677113 0)
(-0.052566 0.00569251 0)
(-0.0542418 0.00453419 0)
(-0.0555269 0.00331189 0)
(-0.0564034 0.00204171 0)
(-0.0568589 0.000740129 0)
(-0.0568859 -0.000576011 0)
(-0.0564828 -0.00188946 0)
(-0.0556533 -0.00318258 0)
(-0.0544068 -0.0044374 0)
(-0.0527586 -0.00563565 0)
(-0.0507297 -0.00675891 0)
(-0.0483468 -0.00778872 0)
(-0.0456425 -0.00870679 0)
(-0.0426549 -0.00949528 0)
(-0.0394277 -0.0101371 0)
(-0.0360095 -0.0106161 0)
(-0.0324536 -0.0109179 0)
(-0.028817 -0.0110299 0)
(-0.0251604 -0.0109424 0)
(-0.0215462 -0.0106487 0)
(-0.0180382 -0.0101467 0)
(-0.0146994 -0.00943925 0)
(-0.011591 -0.00853601 0)
(-0.00876991 -0.00745513 0)
(-0.00628682 -0.00622563 0)
(-0.00418408 -0.00489077 0)
(-0.00249221 -0.00351249 0)
(-0.00122619 -0.00217652 0)
(-0.000399302 -0.000998853 0)
(-4.9079e-05 -0.000144742 0)
(-7.59228e-05 0.000433426 0)
(-0.000560094 0.00183514 0)
(-0.00165083 0.00352787 0)
(-0.00326193 0.00533955 0)
(-0.00535275 0.00714688 0)
(-0.00789136 0.00885803 0)
(-0.0108334 0.010407 0)
(-0.0141256 0.0117484 0)
(-0.0177092 0.0128531 0)
(-0.0215209 0.0137043 0)
(-0.0254954 0.0142944 0)
(-0.029566 0.0146234 0)
(-0.0336669 0.0146963 0)
(-0.0377334 0.0145226 0)
(-0.0417035 0.0141148 0)
(-0.0455185 0.0134876 0)
(-0.0491233 0.0126574 0)
(-0.0524672 0.011642 0)
(-0.0555042 0.0104601 0)
(-0.058193 0.00913101 0)
(-0.0604976 0.00767488 0)
(-0.0623872 0.00611222 0)
(-0.0638364 0.00446407 0)
(-0.0648257 0.00275198 0)
(-0.065341 0.000997983 0)
(-0.0653743 -0.00077536 0)
(-0.0649236 -0.00254498 0)
(-0.0639929 -0.00428732 0)
(-0.0625926 -0.00597836 0)
(-0.0607394 -0.00759375 0)
(-0.0584563 -0.00910895 0)
(-0.0557727 -0.0104994 0)
(-0.0527244 -0.0117409 0)
(-0.0493534 -0.0128096 0)
(-0.0457076 -0.0136831 0)
(-0.0418405 -0.0143401 0)
(-0.0378106 -0.0147617 0)
(-0.033681 -0.0149316 0)
(-0.0295181 -0.0148372 0)
(-0.0253909 -0.0144701 0)
(-0.0213698 -0.0138278 0)
(-0.0175246 -0.0129145 0)
(-0.0139235 -0.0117429 0)
(-0.0106307 -0.0103362 0)
(-0.00770473 -0.00873062 0)
(-0.00519649 -0.00697872 0)
(-0.00314637 -0.00515341 0)
(-0.00158048 -0.00335237 0)
(-0.000530808 -0.00170304 0)
(-7.03615e-05 -0.000378841 0)
(-9.60354e-05 0.000750209 0)
(-0.000688241 0.0027493 0)
(-0.00200038 0.00500818 0)
(-0.0039109 0.00735238 0)
(-0.00635935 0.00965247 0)
(-0.00930119 0.0118093 0)
(-0.012681 0.0137499 0)
(-0.0164359 0.0154229 0)
(-0.020499 0.0167945 0)
(-0.0247999 0.0178449 0)
(-0.0292665 0.0185651 0)
(-0.0338263 0.0189548 0)
(-0.0384075 0.0190204 0)
(-0.0429403 0.0187735 0)
(-0.0473576 0.0182294 0)
(-0.0515959 0.0174066 0)
(-0.055596 0.0163258 0)
(-0.059303 0.0150093 0)
(-0.0626672 0.0134807 0)
(-0.0656443 0.0117647 0)
(-0.0681952 0.00988684 0)
(-0.0702867 0.00787316 0)
(-0.0718916 0.00575053 0)
(-0.0729885 0.00354639 0)
(-0.0735623 0.00128884 0)
(-0.0736041 -0.00099337 0)
(-0.0731117 -0.00327085 0)
(-0.0720893 -0.00551357 0)
(-0.0705478 -0.007691 0)
(-0.068505 -0.00977215 0)
(-0.0659856 -0.0117258 0)
(-0.0630211 -0.0135208 0)
(-0.05965 -0.0151263 0)
(-0.0559173 -0.0165124 0)
(-0.0518746 -0.0176503 0)
(-0.0475795 -0.0185135 0)
(-0.0430954 -0.0190778 0)
(-0.0384903 -0.0193229 0)
(-0.0338362 -0.0192329 0)
(-0.0292082 -0.0187975 0)
(-0.024683 -0.0180134 0)
(-0.0203374 -0.0168859 0)
(-0.0162466 -0.0154302 0)
(-0.0124827 -0.0136742 0)
(-0.00911292 -0.0116603 0)
(-0.006198 -0.0094492 0)
(-0.00378929 -0.00712285 0)
(-0.00192514 -0.00478834 0)
(-0.000656414 -0.00258125 0)
(-8.98606e-05 -0.000679314 0)
(-0.000114667 0.00113126 0)
(-0.000810566 0.00383465 0)
(-0.00233862 0.00674617 0)
(-0.00454413 0.00969135 0)
(-0.00734728 0.0125373 0)
(-0.0106905 0.0151802 0)
(-0.0145064 0.0175419 0)
(-0.018722 0.0195667 0)
(-0.0232614 0.0212174 0)
(-0.0280465 0.0224722 0)
(-0.0329985 0.0233212 0)
(-0.0380386 0.0237647 0)
(-0.0430895 0.0238107 0)
(-0.0480763 0.0234731 0)
(-0.0529274 0.0227708 0)
(-0.0575751 0.0217263 0)
(-0.061956 0.0203648 0)
(-0.0660122 0.0187135 0)
(-0.0696906 0.0168016 0)
(-0.0729441 0.0146592 0)
(-0.0757314 0.0123176 0)
(-0.0780172 0.00980883 0)
(-0.0797724 0.00716598 0)
(-0.0809742 0.00442276 0)
(-0.0816066 0.0016137 0)
(-0.0816599 -0.00122587 0)
(-0.0811314 -0.00405982 0)
(-0.0800254 -0.00685128 0)
(-0.0783533 -0.0095627 0)
(-0.0761334 -0.0121561 0)
(-0.0733918 -0.014593 0)
(-0.0701616 -0.0168352 0)
(-0.0664833 -0.018845 0)
(-0.0624045 -0.0205853 0)
(-0.05798 -0.0220212 0)
(-0.0532711 -0.0231197 0)
(-0.0483452 -0.0238514 0)
(-0.043275 -0.0241913 0)
(-0.038138 -0.0241196 0)
(-0.0330149 -0.0236237 0)
(-0.0279889 -0.0226991 0)
(-0.0231438 -0.0213513 0)
(-0.0185625 -0.0195978 0)
(-0.0143258 -0.01747 0)
(-0.0105103 -0.0150158 0)
(-0.00718736 -0.0123025 0)
(-0.00442035 -0.00941937 0)
(-0.00226035 -0.00648096 0)
(-0.000776754 -0.00362872 0)
(-0.000107924 -0.00104275 0)
(-0.000132203 0.00157359 0)
(-0.000928261 0.00508607 0)
(-0.0026674 0.00873686 0)
(-0.00516379 0.0123527 0)
(-0.0083189 0.015799 0)
(-0.0120619 0.018969 0)
(-0.0163133 0.0217816 0)
(-0.0209891 0.024178 0)
(-0.0260038 0.0261192 0)
(-0.0312713 0.0275822 0)
(-0.0367055 0.0285574 0)
(-0.0422214 0.0290461 0)
(-0.0477362 0.0290585 0)
(-0.0531699 0.0286117 0)
(-0.0584465 0.0277284 0)
(-0.0634945 0.0264355 0)
(-0.0682472 0.0247631 0)
(-0.0726433 0.022744 0)
(-0.0766273 0.0204129 0)
(-0.0801497 0.0178058 0)
(-0.083167 0.0149601 0)
(-0.0856423 0.0119142 0)
(-0.0875449 0.00870767 0)
(-0.088851 0.00538069 0)
(-0.0895433 0.00197457 0)
(-0.0896115 -0.00146847 0)
(-0.0890526 -0.00490525 0)
(-0.0878706 -0.00829173 0)
(-0.0860768 -0.011583 0)
(-0.0836904 -0.0147337 0)
(-0.0807378 -0.0176978 0)
(-0.0772536 -0.0204295 0)
(-0.0732799 -0.0228836 0)
(-0.0688664 -0.0250158 0)
(-0.0640705 -0.026784 0)
(-0.0589567 -0.0281486 0)
(-0.0535961 -0.0290742 0)
(-0.0480661 -0.0295305 0)
(-0.0424491 -0.0294933 0)
(-0.0368318 -0.0289469 0)
(-0.0313038 -0.0278849 0)
(-0.0259565 -0.0263125 0)
(-0.020881 -0.0242483 0)
(-0.0161673 -0.0217265 0)
(-0.0119022 -0.0187994 0)
(-0.00816882 -0.0155393 0)
(-0.0050429 -0.0120418 0)
(-0.00258859 -0.00842714 0)
(-0.000893236 -0.00484141 0)
(-0.000124969 -0.00146647 0)
(-0.000149008 0.002075 0)
(-0.00104275 0.00649959 0)
(-0.00298953 0.0109763 0)
(-0.00577394 0.0153334 0)
(-0.00927941 0.0194358 0)
(-0.0134219 0.0231753 0)
(-0.0181093 0.0264691 0)
(-0.0232462 0.0292572 0)
(-0.0287372 0.0314998 0)
(-0.0344876 0.0331741 0)
(-0.0404037 0.0342716 0)
(-0.046394 0.0347956 0)
(-0.05237 0.0347593 0)
(-0.0582469 0.0341837 0)
(-0.0639445 0.0330957 0)
(-0.0693875 0.0315272 0)
(-0.0745062 0.0295137 0)
(-0.0792366 0.0270939 0)
(-0.0835209 0.0243082 0)
(-0.0873074 0.0211991 0)
(-0.0905511 0.0178103 0)
(-0.0932134 0.0141869 0)
(-0.0952626 0.0103748 0)
(-0.0966735 0.00642119 0)
(-0.0974281 0.00237434 0)
(-0.0975155 -0.00171645 0)
(-0.0969318 -0.00580075 0)
(-0.0956808 -0.00982707 0)
(-0.0937738 -0.0137429 0)
(-0.0912298 -0.0174951 0)
(-0.088076 -0.0210298 0)
(-0.0843474 -0.0242933 0)
(-0.0800875 -0.0272324 0)
(-0.0753476 -0.0297949 0)
(-0.0701874 -0.0319311 0)
(-0.0646741 -0.0335943 0)
(-0.0588825 -0.0347423 0)
(-0.052894 -0.0353386 0)
(-0.0467964 -0.0353542 0)
(-0.0406821 -0.0347693 0)
(-0.0346477 -0.0335747 0)
(-0.0287923 -0.0317744 0)
(-0.023216 -0.0293871 0)
(-0.0180186 -0.0264489 0)
(-0.0132981 -0.023015 0)
(-0.00914978 -0.019162 0)
(-0.00566244 -0.0149905 0)
(-0.00291342 -0.0106253 0)
(-0.00100757 -0.00621677 0)
(-0.000141407 -0.0019487 0)
(-0.000165405 0.00263411 0)
(-0.00115549 0.00807273 0)
(-0.00330817 0.0134622 0)
(-0.00637951 0.018632 0)
(-0.0102353 0.0234473 0)
(-0.0147784 0.0277997 0)
(-0.0199038 0.0316059 0)
(-0.0255044 0.0348061 0)
(-0.0314743 0.0373609 0)
(-0.0377099 0.0392489 0)
(-0.0441094 0.040464 0)
(-0.0505748 0.0410126 0)
(-0.0570116 0.0409116 0)
(-0.0633304 0.0401864 0)
(-0.0694467 0.0388692 0)
(-0.0752818 0.0369974 0)
(-0.0807632 0.0346124 0)
(-0.0858244 0.0317589 0)
(-0.0904055 0.0284838 0)
(-0.0944534 0.0248362 0)
(-0.0979215 0.0208663 0)
(-0.10077 0.0166259 0)
(-0.102966 0.0121679 0)
(-0.104484 0.00754636 0)
(-0.105304 0.00281664 0)
(-0.105415 -0.00196472 0)
(-0.104812 -0.00673988 0)
(-0.1035 -0.0114498 0)
(-0.101487 -0.016034 0)
(-0.0987944 -0.0204315 0)
(-0.095448 -0.0245802 0)
(-0.0914836 -0.0284181 0)
(-0.0869453 -0.0318835 0)
(-0.0818858 -0.0349161 0)
(-0.0763664 -0.0374577 0)
(-0.070457 -0.0394538 0)
(-0.0642356 -0.0408546 0)
(-0.0577878 -0.0416168 0)
(-0.0512063 -0.0417056 0)
(-0.0445897 -0.0410959 0)
(-0.0380418 -0.039775 0)
(-0.03167 -0.0377444 0)
(-0.0255839 -0.0350221 0)
(-0.0198938 -0.0316445 0)
(-0.0147095 -0.027669 0)
(-0.0101393 -0.0231753 0)
(-0.00628555 -0.018268 0)
(-0.00323891 -0.0130762 0)
(-0.00112155 -0.00775418 0)
(-0.000157616 -0.00248871 0)
(-0.000181674 0.00325036 0)
(-0.00126783 0.00980456 0)
(-0.00362647 0.016194 0)
(-0.0069856 0.0222489 0)
(-0.0111936 0.0278351 0)
(-0.0161401 0.0328447 0)
(-0.0217071 0.0371951 0)
(-0.0277753 0.0408278 0)
(-0.0342281 0.0437055 0)
(-0.0409523 0.0458094 0)
(-0.0478381 0.0471367 0)
(-0.0547805 0.047698 0)
(-0.0616791 0.0475152 0)
(-0.0684396 0.0466189 0)
(-0.0749736 0.0450473 0)
(-0.0811991 0.0428438 0)
(-0.0870408 0.0400564 0)
(-0.0924303 0.0367364 0)
(-0.0973061 0.0329374 0)
(-0.101614 0.0287152 0)
(-0.105305 0.0241271 0)
(-0.108339 0.0192315 0)
(-0.110683 0.0140885 0)
(-0.11231 0.00875909 0)
(-0.1132 0.00330573 0)
(-0.11334 -0.00220772 0)
(-0.112725 -0.00771595 0)
(-0.111358 -0.0131522 0)
(-0.109248 -0.0184481 0)
(-0.106415 -0.0235344 0)
(-0.102885 -0.0283407 0)
(-0.0986931 -0.0327961 0)
(-0.093884 -0.0368303 0)
(-0.0885111 -0.0403739 0)
(-0.0826372 -0.04336 0)
(-0.0763343 -0.0457253 0)
(-0.0696834 -0.0474117 0)
(-0.062774 -0.0483682 0)
(-0.055704 -0.0485526 0)
(-0.0485783 -0.047934 0)
(-0.0415081 -0.0464947 0)
(-0.0346095 -0.0442326 0)
(-0.0280022 -0.0411635 0)
(-0.0218079 -0.0373234 0)
(-0.016149 -0.0327703 0)
(-0.0111473 -0.0275865 0)
(-0.0069192 -0.0218796 0)
(-0.00356925 -0.015783 0)
(-0.00123692 -0.00945504 0)
(-0.000173937 -0.00308668 0)
(-0.000198055 0.00392385 0)
(-0.00138105 0.0116957 0)
(-0.00394743 0.0191731 0)
(-0.00759719 0.0261865 0)
(-0.0121612 0.0326024 0)
(-0.0175157 0.0383142 0)
(-0.0235294 0.0432411 0)
(-0.0300703 0.0473271 0)
(-0.0370109 0.050538 0)
(-0.0442281 0.0528591 0)
(-0.0516037 0.0542924 0)
(-0.0590254 0.0548537 0)
(-0.066387 0.0545709 0)
(-0.0735894 0.053481 0)
(-0.0805401 0.0516288 0)
(-0.0871542 0.0490648 0)
(-0.0933542 0.0458438 0)
(-0.0990697 0.0420243 0)
(-0.104238 0.0376672 0)
(-0.108803 0.0328351 0)
(-0.112716 0.0275923 0)
(-0.115937 0.0220046 0)
(-0.11843 0.0161387 0)
(-0.120169 0.0100627 0)
(-0.121132 0.00384633 0)
(-0.121307 -0.00243942 0)
(-0.120686 -0.00872176 0)
(-0.119273 -0.0149262 0)
(-0.117076 -0.0209765 0)
(-0.114112 -0.0267949 0)
(-0.110407 -0.0323024 0)
(-0.105997 -0.0374192 0)
(-0.100925 -0.0420657 0)
(-0.0952459 -0.046163 0)
(-0.0890226 -0.0496346 0)
(-0.082329 -0.0524078 0)
(-0.075249 -0.054415 0)
(-0.0678758 -0.0555964 0)
(-0.0603124 -0.0559016 0)
(-0.0526698 -0.0552921 0)
(-0.0450673 -0.0537442 0)
(-0.03763 -0.0512506 0)
(-0.0304885 -0.0478238 0)
(-0.0237764 -0.0434978 0)
(-0.0176294 -0.0383307 0)
(-0.0121836 -0.0324058 0)
(-0.00757038 -0.0258337 0)
(-0.00390853 -0.0187516 0)
(-0.00135534 -0.0113228 0)
(-0.000190679 -0.00374373 0)
(-0.000214754 0.00465534 0)
(-0.00149625 0.0137482 0)
(-0.00427383 0.0224027 0)
(-0.00821892 0.030449 0)
(-0.0131446 0.0377544 0)
(-0.0189134 0.0442139 0)
(-0.0253801 0.0497498 0)
(-0.0324 0.0543094 0)
(-0.039834 0.0578634 0)
(-0.0475488 0.0604023 0)
(-0.0554176 0.0619341 0)
(-0.0633207 0.0624815 0)
(-0.071146 0.0620793 0)
(-0.0787896 0.0607722 0)
(-0.0861553 0.0586123 0)
(-0.0931555 0.055658 0)
(-0.0997104 0.051972 0)
(-0.105748 0.0476201 0)
(-0.111206 0.0426708 0)
(-0.116026 0.0371941 0)
(-0.12016 0.0312615 0)
(-0.123566 0.0249456 0)
(-0.12621 0.0183203 0)
(-0.128062 0.0114608 0)
(-0.129103 0.0044435 0)
(-0.129318 -0.00265328 0)
(-0.1287 -0.00974945 0)
(-0.12725 -0.0167629 0)
(-0.124974 -0.0236094 0)
(-0.12189 -0.0302028 0)
(-0.118023 -0.0364554 0)
(-0.113405 -0.0422781 0)
(-0.108081 -0.0475814 0)
(-0.102104 -0.0522767 0)
(-0.0955376 -0.056277 0)
(-0.0884579 -0.0594991 0)
(-0.0809504 -0.0618651 0)
(-0.0731121 -0.063305 0)
(-0.0650507 -0.0637589 0)
(-0.0568838 -0.0631794 0)
(-0.0487386 -0.0615348 0)
(-0.0407499 -0.0588116 0)
(-0.0330595 -0.0550173 0)
(-0.025814 -0.0501827 0)
(-0.0191629 -0.0443643 0)
(-0.0132579 -0.0376462 0)
(-0.00824586 -0.0301412 0)
(-0.00426071 -0.0219906 0)
(-0.00147839 -0.013363 0)
(-0.000208122 -0.00446184 0)
(-0.000231949 0.00544612 0)
(-0.00161444 0.0159654 0)
(-0.00460814 0.0258878 0)
(-0.00885501 0.0350424 0)
(-0.0141497 0.0432977 0)
(-0.0203404 0.0505509 0)
(-0.0272678 0.0567279 0)
(-0.0347736 0.0617811 0)
(-0.0427068 0.0656869 0)
(-0.0509236 0.0684428 0)
(-0.0592883 0.0700644 0)
(-0.0676738 0.0705823 0)
(-0.0759621 0.0700399 0)
(-0.0840446 0.0684904 0)
(-0.0918217 0.0659948 0)
(-0.0992032 0.06262 0)
(-0.106108 0.0584369 0)
(-0.112463 0.0535197 0)
(-0.118204 0.0479447 0)
(-0.123275 0.0417894 0)
(-0.127626 0.0351328 0)
(-0.131216 0.0280544 0)
(-0.13401 0.020635 0)
(-0.135979 0.0129566 0)
(-0.137102 0.00510246 0)
(-0.137364 -0.00284225 0)
(-0.136756 -0.0107903 0)
(-0.135278 -0.0186521 0)
(-0.132937 -0.0263357 0)
(-0.129746 -0.0337465 0)
(-0.125728 -0.0407878 0)
(-0.120916 -0.0473612 0)
(-0.115352 -0.0533672 0)
(-0.109088 -0.0587062 0)
(-0.102189 -0.0632805 0)
(-0.0947301 -0.0669952 0)
(-0.0867993 -0.069761 0)
(-0.0784966 -0.0714963 0)
(-0.0699343 -0.0721301 0)
(-0.0612367 -0.0716045 0)
(-0.0525388 -0.0698784 0)
(-0.0439857 -0.0669299 0)
(-0.035731 -0.06276 0)
(-0.0279347 -0.0573947 0)
(-0.0207616 -0.0508881 0)
(-0.0143794 -0.0433237 0)
(-0.00895211 -0.0348162 0)
(-0.00462951 -0.0255111 0)
(-0.00160754 -0.0155829 0)
(-0.000226521 -0.00524377 0)
(-0.000249796 0.006298 0)
(-0.0017365 0.0183518 0)
(-0.00495261 0.0296347 0)
(-0.00950928 0.0399746 0)
(-0.0151819 0.0492407 0)
(-0.0218035 0.0573334 0)
(-0.0291998 0.0641831 0)
(-0.0371988 0.0697485 0)
(-0.0456367 0.0740135 0)
(-0.054359 0.0769839 0)
(-0.063221 0.0786844 0)
(-0.072088 0.0791555 0)
(-0.0808363 0.0784502 0)
(-0.0893526 0.0766318 0)
(-0.0975345 0.073771 0)
(-0.10529 0.0699443 0)
(-0.112536 0.0652318 0)
(-0.119199 0.0597165 0)
(-0.125216 0.0534829 0)
(-0.130531 0.0466162 0)
(-0.135094 0.0392028 0)
(-0.138864 0.0313293 0)
(-0.141806 0.0230832 0)
(-0.143892 0.014553 0)
(-0.145101 0.00582836 0)
(-0.145416 -0.00299884 0)
(-0.144828 -0.0118346 0)
(-0.143334 -0.0205823 0)
(-0.14094 -0.0291422 0)
(-0.137656 -0.0374117 0)
(-0.133505 -0.045285 0)
(-0.128515 -0.0526542 0)
(-0.122727 -0.0594092 0)
(-0.116193 -0.0654394 0)
(-0.108974 -0.0706351 0)
(-0.101147 -0.074889 0)
(-0.0928001 -0.0780989 0)
(-0.0840369 -0.0801702 0)
(-0.0749737 -0.081019 0)
(-0.0657409 -0.0805752 0)
(-0.0564817 -0.0787861 0)
(-0.0473517 -0.0756198 0)
(-0.0385168 -0.0710687 0)
(-0.0301513 -0.0651525 0)
(-0.0224363 -0.0579211 0)
(-0.015557 -0.0494567 0)
(-0.00969522 -0.0398753 0)
(-0.00501848 -0.0293265 0)
(-0.00174418 -0.0179918 0)
(-0.000246116 -0.00609304 0)
(-0.000268432 0.00721321 0)
(-0.00186324 0.0209129 0)
(-0.00530926 0.0336514 0)
(-0.0101851 0.0452545 0)
(-0.0162457 0.0555929 0)
(-0.0233081 0.0645704 0)
(-0.0311823 0.0721234 0)
(-0.0396815 0.0782181 0)
(-0.0486288 0.0828473 0)
(-0.0578588 0.0860273 0)
(-0.0672172 0.0877935 0)
(-0.0765621 0.0881977 0)
(-0.0857639 0.0873046 0)
(-0.0947054 0.0851887 0)
(-0.103282 0.0819319 0)
(-0.111398 0.0776212 0)
(-0.118973 0.0723467 0)
(-0.125933 0.0662006 0)
(-0.132214 0.0592761 0)
(-0.137761 0.0516666 0)
(-0.142526 0.0434656 0)
(-0.14647 0.0347668 0)
(-0.149557 0.0256639 0)
(-0.15176 0.0162517 0)
(-0.153058 0.00662607 0)
(-0.153432 -0.0031152 0)
(-0.152873 -0.0128717 0)
(-0.151377 -0.0225402 0)
(-0.148945 -0.0320136 0)
(-0.145587 -0.0411813 0)
(-0.141322 -0.0499289 0)
(-0.136175 -0.0581386 0)
(-0.130185 -0.0656897 0)
(-0.123399 -0.0724598 0)
(-0.115879 -0.0783265 0)
(-0.107699 -0.0831691 0)
(-0.0989493 -0.0868709 0)
(-0.089734 -0.089323 0)
(-0.0801736 -0.0904264 0)
(-0.0704042 -0.0900969 0)
(-0.0605775 -0.0882679 0)
(-0.0508594 -0.0848953 0)
(-0.0414288 -0.0799607 0)
(-0.0324754 -0.0734756 0)
(-0.0241972 -0.0654842 0)
(-0.0167986 -0.0560659 0)
(-0.010481 -0.0453376 0)
(-0.00543097 -0.0334528 0)
(-0.00188961 -0.0206004 0)
(-0.000267133 -0.00701384 0)
(-0.000287985 0.00819439 0)
(-0.0019954 0.0236553 0)
(-0.00567993 0.0379468 0)
(-0.0108857 0.0508926 0)
(-0.0173454 0.0623647 0)
(-0.0248593 0.0722716 0)
(-0.0332203 0.0805566 0)
(-0.042226 0.0871951 0)
(-0.0516861 0.092191 0)
(-0.0614235 0.0955724 0)
(-0.0712744 0.0973878 0)
(-0.0810897 0.0977022 0)
(-0.0907344 0.0965936 0)
(-0.100088 0.0941495 0)
(-0.109042 0.0904641 0)
(-0.117504 0.085636 0)
(-0.125389 0.0797664 0)
(-0.132627 0.0729573 0)
(-0.139155 0.0653109 0)
(-0.144919 0.0569288 0)
(-0.149874 0.0479119 0)
(-0.153981 0.0383602 0)
(-0.157207 0.028374 0)
(-0.159525 0.0180534 0)
(-0.160912 0.00749985 0)
(-0.161351 -0.00318322 0)
(-0.160832 -0.0138898 0)
(-0.159347 -0.0245105 0)
(-0.156896 -0.0349315 0)
(-0.153486 -0.0450347 0)
(-0.14913 -0.0546971 0)
(-0.143852 -0.0637912 0)
(-0.137685 -0.0721855 0)
(-0.130675 -0.0797454 0)
(-0.122878 -0.0863348 0)
(-0.114368 -0.0918184 0)
(-0.105234 -0.0960641 0)
(-0.0955808 -0.0989462 0)
(-0.0855321 -0.100349 0)
(-0.0752295 -0.100172 0)
(-0.0648323 -0.0983313 0)
(-0.0545174 -0.0947689 0)
(-0.0444769 -0.0894531 0)
(-0.0349167 -0.0823845 0)
(-0.0260534 -0.0735998 0)
(-0.0181118 -0.0631743 0)
(-0.0113147 -0.0512244 0)
(-0.00587018 -0.0379078 0)
(-0.00204512 -0.0234213 0)
(-0.000289792 -0.00801108 0)
(-0.000308578 0.00924453 0)
(-0.00213369 0.0265864 0)
(-0.00606641 0.0425312 0)
(-0.0116138 0.0569004 0)
(-0.0184848 0.0695676 0)
(-0.0264611 0.080447 0)
(-0.0353175 0.0894903 0)
(-0.044835 0.096684 0)
(-0.0548091 0.102045 0)
(-0.0650505 0.105616 0)
(-0.0753862 0.10746 0)
(-0.0856596 0.107658 0)
(-0.0957309 0.106303 0)
(-0.105476 0.103497 0)
(-0.114787 0.0993479 0)
(-0.123569 0.0939681 0)
(-0.131741 0.08747 0)
(-0.139232 0.0799662 0)
(-0.145983 0.0715683 0)
(-0.151944 0.0623862 0)
(-0.157071 0.0525278 0)
(-0.161327 0.0420996 0)
(-0.164681 0.0312074 0)
(-0.167107 0.0199565 0)
(-0.168585 0.00845306 0)
(-0.169095 -0.00319475 0)
(-0.168626 -0.014876 0)
(-0.167169 -0.0264759 0)
(-0.164719 -0.0378747 0)
(-0.161281 -0.0489472 0)
(-0.156864 -0.0595624 0)
(-0.151486 -0.0695833 0)
(-0.145176 -0.0788673 0)
(-0.137974 -0.0872672 0)
(-0.129933 -0.0946329 0)
(-0.121123 -0.100813 0)
(-0.111631 -0.105659 0)
(-0.101561 -0.109025 0)
(-0.0910402 -0.110778 0)
(-0.0802133 -0.110797 0)
(-0.0692477 -0.10898 0)
(-0.0583307 -0.105251 0)
(-0.0476685 -0.0995618 0)
(-0.0374838 -0.0918996 0)
(-0.0280131 -0.0822913 0)
(-0.0195035 -0.0708061 0)
(-0.0122018 -0.0575592 0)
(-0.00633921 -0.0427116 0)
(-0.00221195 -0.0264685 0)
(-0.000314313 -0.00909028 0)
(-0.000330335 0.010367 0)
(-0.00227881 0.0297143 0)
(-0.00647043 0.0474159 0)
(-0.0123723 0.0632901 0)
(-0.0196675 0.0772133 0)
(-0.0281172 0.0891062 0)
(-0.0374769 0.0989308 0)
(-0.0475097 0.106687 0)
(-0.057996 0.112407 0)
(-0.0687343 0.11615 0)
(-0.0795417 0.117997 0)
(-0.0902549 0.118047 0)
(-0.10073 0.11641 0)
(-0.11084 0.113206 0)
(-0.120477 0.108557 0)
(-0.129548 0.10259 0)
(-0.137973 0.0954293 0)
(-0.145685 0.0872001 0)
(-0.15263 0.078023 0)
(-0.158759 0.0680161 0)
(-0.164033 0.0572944 0)
(-0.168418 0.0459705 0)
(-0.171886 0.0341548 0)
(-0.174413 0.0219572 0)
(-0.175978 0.00948771 0)
(-0.176564 -0.0031418 0)
(-0.176156 -0.0158164 0)
(-0.174744 -0.0284169 0)
(-0.17232 -0.0408185 0)
(-0.168884 -0.0528897 0)
(-0.16444 -0.064492 0)
(-0.159 -0.0754793 0)
(-0.152586 -0.0856982 0)
(-0.145234 -0.0949886 0)
(-0.13699 -0.103185 0)
(-0.127919 -0.110121 0)
(-0.118105 -0.115626 0)
(-0.10765 -0.119537 0)
(-0.0966802 -0.121698 0)
(-0.0853456 -0.121965 0)
(-0.0738199 -0.120214 0)
(-0.0623007 -0.116349 0)
(-0.0510082 -0.1103 0)
(-0.0401832 -0.102041 0)
(-0.0300834 -0.0915824 0)
(-0.0209804 -0.0789872 0)
(-0.013147 -0.0643672 0)
(-0.00684113 -0.047886 0)
(-0.00239135 -0.0297575 0)
(-0.000340921 -0.0102576 0)
(-0.000353393 0.0115656 0)
(-0.00243155 0.0330482 0)
(-0.00689389 0.052613 0)
(-0.0131642 0.070075 0)
(-0.0208969 0.085314 0)
(-0.0298311 0.0982585 0)
(-0.0397008 0.108883 0)
(-0.05025 0.117203 0)
(-0.0612431 0.12327 0)
(-0.0724656 0.127161 0)
(-0.0837255 0.128981 0)
(-0.0948529 0.128846 0)
(-0.1057 0.126888 0)
(-0.116139 0.123244 0)
(-0.126063 0.118055 0)
(-0.135381 0.111464 0)
(-0.144017 0.103608 0)
(-0.15191 0.0946233 0)
(-0.159008 0.0846416 0)
(-0.165269 0.0737888 0)
(-0.170658 0.0621868 0)
(-0.175147 0.0499531 0)
(-0.17871 0.0372028 0)
(-0.181325 0.0240487 0)
(-0.182973 0.010604 0)
(-0.183637 -0.00301684 0)
(-0.183301 -0.0166962 0)
(-0.181953 -0.0303117 0)
(-0.179582 -0.0437344 0)
(-0.176181 -0.0568278 0)
(-0.17175 -0.0694467 0)
(-0.166293 -0.0814364 0)
(-0.159826 -0.0926329 0)
(-0.152374 -0.102863 0)
(-0.143979 -0.111947 0)
(-0.134698 -0.119698 0)
(-0.124608 -0.125928 0)
(-0.113809 -0.13045 0)
(-0.102425 -0.133083 0)
(-0.0906089 -0.133658 0)
(-0.0785395 -0.132026 0)
(-0.0664243 -0.128063 0)
(-0.054498 -0.12168 0)
(-0.0430198 -0.112825 0)
(-0.0322706 -0.101497 0)
(-0.0225484 -0.0877443 0)
(-0.0141554 -0.0716752 0)
(-0.00737904 -0.0534547 0)
(-0.00258461 -0.0333055 0)
(-0.000369854 -0.01152 0)
(-0.000377911 0.0128444 0)
(-0.00259279 0.0365983 0)
(-0.00733889 0.058136 0)
(-0.0139927 0.0772693 0)
(-0.0221771 0.0938819 0)
(-0.0316064 0.107912 0)
(-0.041991 0.11935 0)
(-0.0530545 0.128229 0)
(-0.0645441 0.134623 0)
(-0.0762324 0.138632 0)
(-0.0879178 0.140384 0)
(-0.0994247 0.140021 0)
(-0.110602 0.137696 0)
(-0.121324 0.133569 0)
(-0.131485 0.127798 0)
(-0.140997 0.120543 0)
(-0.149791 0.111958 0)
(-0.157812 0.102191 0)
(-0.165014 0.0913819 0)
(-0.171362 0.0796665 0)
(-0.176827 0.0671723 0)
(-0.181386 0.0540216 0)
(-0.185017 0.0403325 0)
(-0.187703 0.0262204 0)
(-0.189426 0.0118 0)
(-0.190169 -0.00281317 0)
(-0.189917 -0.0175 0)
(-0.188654 -0.0321361 0)
(-0.186365 -0.0465903 0)
(-0.183038 -0.0607219 0)
(-0.178666 -0.0743803 0)
(-0.173246 -0.0874033 0)
(-0.166783 -0.0996167 0)
(-0.159294 -0.110835 0)
(-0.150811 -0.120862 0)
(-0.141382 -0.129492 0)
(-0.131077 -0.136515 0)