/*--------------------------------*- C++ -*----------------------------------*\
  =========                 |
  \\      /  F ield         | OpenFOAM: The Open Source CFD Toolbox
   \\    /   O peration     | Website:  https://openfoam.org
    \\  /    A nd           | Version:  7
     \\/     M anipulation  |
\*---------------------------------------------------------------------------*/
FoamFile
{
    version     2.0;
    format      ascii;
    class       volScalarField;
    location    "0.0282";
    object      p;
}
// * * * * * * * * * * * * * * * * * * * * * * * * * * * * * * * * * * * * * //

dimensions      [0 2 -2 0 0 0 0];

internalField   nonuniform List<scalar> 
2500
(
-6.73877e-06
-0.000546458
-0.00196459
-0.00395947
-0.00621295
-0.00845555
-0.0105049
-0.0122152
-0.0134804
-0.0142268
-0.0144061
-0.0139905
-0.0129689
-0.011344
-0.00913003
-0.00635053
-0.00303722
0.000771567
0.00503195
0.00969526
0.0147088
0.0200166
0.0255596
0.0312767
0.0371046
0.0429786
0.0488331
0.0546016
0.0602179
0.0656162
0.070732
0.075503
0.0798699
0.0837773
0.0871752
0.09002
0.0922761
0.0939177
0.09493
0.095312
0.0950785
0.0942627
0.09292
0.0911321
0.089015
0.0867247
0.0844264
0.082433
0.0810363
0.0805341
0.00050379
-2.52624e-05
-0.0011704
-0.002725
-0.00446747
-0.0062086
-0.00779644
-0.00910871
-0.0100512
-0.0105548
-0.0105713
-0.0100705
-0.00903734
-0.00746987
-0.00537687
-0.00277644
0.000305449
0.00383617
0.0077774
0.0120859
0.0167143
0.0216118
0.0267246
0.0319966
0.0373696
0.0427841
0.0481796
0.0534952
0.0586701
0.0636444
0.0683594
0.0727592
0.0767907
0.0804051
0.0835589
0.086215
0.0883443
0.0899267
0.0909532
0.0914273
0.0913669
0.0908068
0.0898009
0.088425
0.0867802
0.0849954
0.0832238
0.0816615
0.0805312
0.0800322
0.00190475
0.00110737
-4.2755e-05
-0.00144222
-0.00295583
-0.00444049
-0.0057734
-0.0068537
-0.00760072
-0.00795288
-0.00786577
-0.00731028
-0.00627084
-0.00474351
-0.00273444
-0.000258569
0.00266163
0.00599721
0.00971364
0.0137715
0.0181273
0.022734
0.0275417
0.0324979
0.0375483
0.0426374
0.0477084
0.0527044
0.0575686
0.0622452
0.06668
0.0708211
0.0746199
0.0780319
0.0810178
0.0835447
0.0855871
0.0871285
0.0881623
0.0886938
0.0887413
0.0883379
0.0875332
0.0863947
0.0850092
0.0834832
0.0819431
0.0805354
0.0793998
0.078637
0.00390685
0.0026641
0.00133189
-9.01837e-05
-0.00154852
-0.00293166
-0.00414127
-0.00509651
-0.00573073
-0.00599166
-0.00584072
-0.00525216
-0.00421186
-0.00271591
-0.000769531
0.00161394
0.00441411
0.00760447
0.0111531
0.0150235
0.019175
0.0235635
0.028142
0.0328612
0.0376698
0.0425151
0.0473436
0.0521014
0.0567348
0.0611912
0.0654195
0.0693708
0.0729996
0.0762643
0.0791286
0.081562
0.0835411
0.0850509
0.0860858
0.0866509
0.0867628
0.0864512
0.0857596
0.0847461
0.0834833
0.0820576
0.0805717
0.0791407
0.077824
0.0766262
0.00622636
0.00444469
0.00283794
0.00129815
-0.000199244
-0.00156773
-0.0027296
-0.00362255
-0.00419368
-0.00440041
-0.00421088
-0.00360371
-0.00256735
-0.00109905
0.000795869
0.00310476
0.00580848
0.00888218
0.012296
0.0160154
0.0200023
0.0242149
0.0286087
0.033137
0.037751
0.0424005
0.0470348
0.0516022
0.0560519
0.0603336
0.0643986
0.0682006
0.0716963
0.0748463
0.0776158
0.0799762
0.0819051
0.0833882
0.0844195
0.0850027
0.085152
0.0848926
0.0842614
0.0833067
0.0820877
0.0806728
0.0791448
0.0775944
0.0760048
0.0742768
0.00861719
0.00628066
0.00434921
0.00262641
0.00102021
-0.000401258
-0.00157669
-0.00245987
-0.00301049
-0.00319534
-0.00298948
-0.00237642
-0.00134784
9.70404e-05
0.00195202
0.00420434
0.00683538
0.00982126
0.0131334
0.016739
0.0206016
0.0246813
0.0289358
0.0333201
0.0377876
0.0422903
0.0467793
0.0512052
0.0555188
0.0596719
0.0636176
0.0673112
0.0707109
0.0737786
0.0764807
0.078789
0.0806815
0.0821435
0.0831678
0.0837563
0.0839197
0.0836783
0.0830624
0.0821113
0.080872
0.0793976
0.0777553
0.0760184
0.0741046
0.0718284
0.0109328
0.00804091
0.00575725
0.00380734
0.00204151
0.000515329
-0.000722203
-0.00163822
-0.00220342
-0.00239324
-0.00218939
-0.00158045
-0.00056171
0.000865169
0.00269247
0.0049067
0.00748912
0.0104162
0.0136601
0.0171891
0.0209678
0.0249579
0.0291183
0.0334058
0.0377752
0.0421801
0.046573
0.0509061
0.0551315
0.0592022
0.0630725
0.0666987
0.0700397
0.0730581
0.0757204
0.0779983
0.0798694
0.0813176
0.0823341
0.0829181
0.0830767
0.0828253
0.0821877
0.0811953
0.0798845
0.0782962
0.0764864
0.0745166
0.0722492
0.0694232
0.0130522
0.00961851
0.00697051
0.00476576
0.00280565
0.00113782
-0.000197615
-0.00117857
-0.00178504
-0.00200012
-0.00181175
-0.00121341
-0.000204157
0.00121158
0.00302417
0.00521891
0.00777642
0.010673
0.0138811
0.0173694
0.0211033
0.0250454
0.0291556
0.0333917
0.0377097
0.042064
0.0464083
0.0506956
0.0548789
0.0589119
0.0627495
0.0663481
0.069667
0.0726684
0.0753185
0.0775883
0.0794539
0.0808976
0.0819085
0.0824824
0.0826229
0.0823405
0.0816532
0.0805852
0.0791649
0.0774231
0.0754082
0.0731753
0.0705402
0.067176
0.0148864
0.0109275
0.00791084
0.0054339
0.00325604
0.00142053
-3.8657e-05
-0.00110796
-0.00177512
-0.00202983
-0.00186568
-0.00128081
-0.000278039
0.00113529
0.00294734
0.00514184
0.00769837
0.0105927
0.0137969
0.0172798
0.0210073
0.0249421
0.0290448
0.0332738
0.0375857
0.0419356
0.0462776
0.0505651
0.0547516
0.0587908
0.0626375
0.066248
0.0695811
0.0725982
0.0752644
0.0775493
0.0794272
0.0808783
0.0818888
0.0824514
0.0825656
0.0822377
0.0814802
0.0803116
0.0787534
0.0768293
0.0745829
0.0720669
0.069057
0.0651688
0.0163687
0.0118981
0.00851101
0.00575039
0.00333845
0.00131678
-0.000284585
-0.00145882
-0.00220001
-0.00250353
-0.00236801
-0.00179596
-0.000793859
0.000627941
0.00245521
0.00466983
0.00725003
0.0101706
0.0134031
0.0169159
0.0206748
0.0246427
0.0287802
0.0330459
0.0373967
0.0417877
0.0461732
0.0505067
0.0547412
0.0588304
0.0627283
0.0663905
0.0697747
0.0728411
0.075553
0.0778781
0.0797885
0.0812616
0.0822805
0.0828346
0.0829194
0.0825371
0.0816955
0.0804082
0.0786914
0.0765636
0.0740662
0.0712521
0.0678624
0.0634603
0.0174466
0.0124716
0.00871187
0.00565888
0.0030009
0.000779763
-0.000976729
-0.00226705
-0.00309056
-0.0034475
-0.00334102
-0.00277772
-0.00176764
-0.000324172
0.00153592
0.00379246
0.00642204
0.0093982
0.0126915
0.0162699
0.0200984
0.0241397
0.0283542
0.0327003
0.0371347
0.0416124
0.0460873
0.0505124
0.0548402
0.0590234
0.0630152
0.0667699
0.0702434
0.073394
0.0761832
0.0785759
0.0805415
0.0820544
0.0830942
0.0836468
0.0837038
0.0832632
0.082329
0.0809105
0.0790199
0.076672
0.0739081
0.0707834
0.0670074
0.0620941
0.018076
0.0125967
0.00845964
0.0051063
0.00219266
-0.00023783
-0.00215838
-0.00357169
-0.00448157
-0.00489254
-0.00481187
-0.00425001
-0.00322046
-0.0017397
0.000172862
0.0024948
0.00520084
0.008263
0.0116507
0.0153307
0.0192673
0.0234228
0.0277568
0.0322273
0.0367904
0.0414006
0.0460111
0.050574
0.055041
0.0593634
0.0634928
0.0673819
0.0709845
0.0742566
0.0771569
0.0796474
0.0816941
0.0832681
0.0843452
0.0849074
0.0849425
0.0844446
0.0834138
0.0818561
0.0797806
0.0771996
0.0741555
0.0707076
0.0665356
0.0611051
0.0182173
0.012226
0.00770339
0.00404104
0.000863085
-0.00178453
-0.00387515
-0.00541502
-0.00641181
-0.00687391
-0.00681246
-0.00624159
-0.00517826
-0.00364207
-0.00165521
0.000757487
0.00356866
0.00674856
0.0102651
0.0140839
0.0181681
0.022479
0.0269756
0.031615
0.0363525
0.0411417
0.0459347
0.0506827
0.0553357
0.0598437
0.0641562
0.0682237
0.0719976
0.0754308
0.0784789
0.0811004
0.0832578
0.0849179
0.0860528
0.0866401
0.0866636
0.0861134
0.0849863
0.0832851
0.0810166
0.0781913
0.0748539
0.071069
0.0664865
0.0605235
0.0178322
0.0113132
0.00639271
0.00241119
-0.00103973
-0.00391099
-0.00617558
-0.00784286
-0.00892408
-0.00943126
-0.00937927
-0.00878593
-0.00767167
-0.00605931
-0.00397397
-0.00144308
0.00150372
0.00483468
0.00851601
0.0125118
0.016784
0.0212927
0.0259959
0.0308495
0.0358079
0.0408235
0.0458472
0.0508286
0.0557163
0.0604579
0.065001
0.0692933
0.073283
0.0769201
0.0801562
0.0829459
0.0852473
0.0870229
0.0882403
0.0888725
0.088899
0.088306
0.0870866
0.0852409
0.0827735
0.0796939
0.0760497
0.0719116
0.0668991
0.0603785
0.0168806
0.00981051
0.00447571
0.000162893
-0.00357014
-0.00667091
-0.00911174
-0.010905
-0.0120655
-0.0126087
-0.0125534
-0.0119211
-0.0107359
-0.00902389
-0.00681339
-0.00413461
-0.00101968
0.00249745
0.00638106
0.0105935
0.0150954
0.0198454
0.0248001
0.0299144
0.0351413
0.040432
0.0457358
0.0510008
0.0561733
0.0611989
0.0660225
0.0705887
0.0748423
0.0787294
0.0821975
0.0851966
0.08768
0.0896052
0.0909346
0.0916364
0.0916852
0.0910629
0.089759
0.0877707
0.0851005
0.0817571
0.0777915
0.0732816
0.0678139
0.060701
0.015319
0.00766706
0.00189717
-0.00276117
-0.00678625
-0.010122
-0.01274
-0.0146558
-0.0158877
-0.0164551
-0.0163807
-0.0156899
-0.0144106
-0.0125727
-0.0102077
-0.00734883
-0.00403105
-0.00029066
0.00383449
0.00830493
0.0130795
0.0181155
0.023368
0.0287908
0.0343352
0.0399511
0.0455862
0.0511865
0.0566964
0.0620587
0.0672155
0.0721079
0.076677
0.0808644
0.084613
0.0878675
0.0905759
0.09269
0.0941663
0.0949674
0.0950628
0.0944294
0.0930526
0.0909265
0.0880516
0.0844353
0.0801329
0.0752292
0.0692758
0.0615263
0.0130985
0.00482682
-0.00140304
-0.00642329
-0.0107512
-0.014327
-0.0171219
-0.0191546
-0.0204476
-0.0210243
-0.0209117
-0.0201396
-0.0187401
-0.0167468
-0.014195
-0.0111214
-0.00756357
-0.00356065
0.000847242
0.00561864
0.0107106
0.0160788
0.021677
0.0274572
0.0333697
0.0393625
0.0453817
0.0513713
0.0572733
0.0630278
0.0685737
0.0738483
0.0787885
0.0833311
0.0874136
0.090975
0.0939571
0.096305
0.0979691
0.0989054
0.0990773
0.0984559
0.0970222
0.0947666
0.0916868
0.0877894
0.0831333
0.0778112
0.0713359
0.0628962
0.0101632
0.00122706
-0.00549164
-0.0108922
-0.0155344
-0.0193551
-0.0223248
-0.0244667
-0.0258076
-0.0263756
-0.0262024
-0.0253226
-0.023773
-0.0215916
-0.0188177
-0.0154914
-0.0116539
-0.00734676
-0.00261277
0.00250448
0.00796026
0.0137085
0.0197015
0.0258898
0.0322223
0.0386455
0.0451035
0.0515385
0.0578899
0.0640951
0.0700893
0.0758061
0.0811775
0.0861352
0.0906107
0.0945364
0.0978472
0.100481
0.10238
0.103494
0.103779
0.103199
0.101729
0.0993557
0.0960738
0.0918877
0.0868604
0.0810926
0.0740537
0.0648611
0.00644827
-0.00320336
-0.0104435
-0.0162445
-0.0212129
-0.0252823
-0.0284235
-0.0306641
-0.0320364
-0.0325738
-0.0323136
-0.031296
-0.0295626
-0.0271566
-0.0241216
-0.0205018
-0.0163417
-0.0116861
-0.00658039
-0.00107033
0.00479741
0.0109751
0.0174136
0.0240623
0.0308683
0.0377768
0.0447304
0.051669
0.0585298
0.0652471
0.0717527
0.0779759
0.0838437
0.0892819
0.0942154
0.0985698
0.102272
0.105251
0.107441
0.108782
0.109223
0.10872
0.107241
0.104767
0.101289
0.0968082
0.0913918
0.0851487
0.0774995
0.0674824
0.00187893
-0.00854553
-0.0163431
-0.0225662
-0.0278728
-0.0321936
-0.0355001
-0.0378258
-0.0392092
-0.0396901
-0.0393121
-0.0381216
-0.0361664
-0.033495
-0.030156
-0.026198
-0.0216694
-0.0166183
-0.0110927
-0.00514073
0.00118904
0.00784732
0.0147837
0.0219461
0.0292807
0.0367312
0.0442388
0.0517415
0.0591742
0.0664685
0.0735522
0.0803504
0.0867848
0.0927749
0.0982387
0.103093
0.107257
0.110649
0.113194
0.114822
0.115471
0.115089
0.113635
0.111083
0.107419
0.10264
0.0968171
0.090067
0.0817562
0.0708341
-0.00363161
-0.0148922
-0.0232862
-0.029954
-0.0356103
-0.0401833
-0.0436461
-0.0460392
-0.0474087
-0.0478019
-0.0472699
-0.0458664
-0.043646
-0.0406635
-0.0369731
-0.0326283
-0.0276816
-0.0221847
-0.0161883
-0.00974306
-0.00289927
0.00429234
0.0117802
0.0195112
0.0274307
0.0354814
0.0436031
0.0517325
0.0598022
0.067741
0.0754735
0.08292
0.0899968
0.0966168
0.10269
0.108125
0.112829
0.116712
0.119687
0.121671
0.12259
0.122382
0.120996
0.118397
0.114562
0.109486
0.10324
0.0959501
0.0869219
0.0750059
-0.0101836
-0.0223494
-0.0313819
-0.0385175
-0.0445336
-0.0493568
-0.0529627
-0.0554005
-0.0567253
-0.0569933
-0.0562647
-0.0546018
-0.0520668
-0.0487219
-0.0446274
-0.0398424
-0.034424
-0.0284274
-0.0219065
-0.0149142
-0.0075024
0.00027685
0.00837112
0.0167268
0.0252886
0.0339987
0.0427961
0.0516163
0.0603903
0.0690444
0.0774999
0.0856726
0.0934732
0.100808
0.107578
0.113682
0.119017
0.123479
0.126969
0.12939
0.130655
0.130686
0.129421
0.126813
0.122831
0.117462
0.11078
0.102917
0.0931123
0.0801051
-0.0178926
-0.0310388
-0.040754
-0.0483804
-0.0547645
-0.059832
-0.0635625
-0.0660157
-0.0672577
-0.0673556
-0.0663801
-0.0644034
-0.0614973
-0.0577317
-0.0531745
-0.0478906
-0.041942
-0.0353881
-0.0282858
-0.02069
-0.0126544
-0.0042317
0.00452507
0.0135622
0.0228244
0.0322538
0.0417894
0.0513659
0.0609133
0.0703559
0.0796121
0.0885934
0.097205
0.105346
0.112908
0.11978
0.125846
0.130989
0.135093
0.138047
0.139745
0.140094
0.139016
0.136451
0.132354
0.126704
0.119575
0.111109
0.100464
0.0862594
-0.0268915
-0.0410992
-0.0515438
-0.059683
-0.06644
-0.0717407
-0.0755703
-0.0780014
-0.0791134
-0.0789866
-0.0777043
-0.0753506
-0.0720079
-0.0677557
-0.0626699
-0.0568221
-0.0502798
-0.0431065
-0.0353622
-0.027104
-0.0183867
-0.00926355
0.000212582
0.00998843
0.0200094
0.0302183
0.0405547
0.0509537
0.0613449
0.0716512
0.0817886
0.0916651
0.10118
0.110226
0.118685
0.126434
0.133344
0.139282
0.144115
0.147712
0.149948
0.150711
0.149902
0.147443
0.143277
0.137367
0.129788
0.120686
0.109136
0.0936208
-0.0373331
-0.0526899
-0.0639125
-0.072585
-0.0797152
-0.0852308
-0.0891248
-0.0914857
-0.0924092
-0.0919913
-0.0903307
-0.0875253
-0.0836702
-0.0788557
-0.073167
-0.0666831
-0.0594774
-0.0516178
-0.0431674
-0.0341851
-0.0247264
-0.0148446
-0.00459182
0.00597991
0.0168175
0.0278656
0.0390653
0.0503528
0.0616584
0.0729048
0.0840064
0.0948681
0.105385
0.11544
0.124909
0.133656
0.141536
0.148399
0.154091
0.158461
0.16136
0.16265
0.162211
0.159942
0.155766
0.149629
0.141602
0.131839
0.119317
0.102368
-0.0493924
-0.0659934
-0.0780444
-0.0872677
-0.0947652
-0.100468
-0.10438
-0.106609
-0.107271
-0.106481
-0.104356
-0.101011
-0.0965546
-0.091091
-0.0847151
-0.0775146
-0.0695689
-0.0609507
-0.0517258
-0.0419547
-0.0316932
-0.0209939
-0.00990728
0.00151681
0.0132279
0.0251735
0.0372973
0.0495383
0.0618284
0.0740914
0.0862413
0.0981809
0.109801
0.120979
0.13158
0.141455
0.150445
0.158379
0.165082
0.170375
0.174083
0.176039
0.176093
0.174118
0.170009
0.163694
0.155235
0.14479
0.131227
0.112713
-0.0632706
-0.0812195
-0.0941507
-0.103939
-0.111789
-0.117639
-0.121507
-0.123525
-0.123834
-0.122573
-0.119879
-0.115889
-0.110728
-0.104515
-0.0973563
-0.0893488
-0.0805788
-0.0711235
-0.0610514
-0.0504241
-0.0392969
-0.0277209
-0.0157439
-0.00341243
0.00922691
0.0221257
0.0352322
0.0484891
0.0618319
0.0751869
0.0884692
0.101581
0.11441
0.126829
0.138692
0.149839
0.160093
0.169262
0.177147
0.183538
0.188228
0.191015
0.191714
0.190163
0.186225
0.179799
0.170936
0.159794
0.145123
0.124904
-0.079199
-0.0986101
-0.112475
-0.122835
-0.131012
-0.136953
-0.140695
-0.142402
-0.142243
-0.140388
-0.137
-0.132239
-0.126252
-0.119173
-0.111122
-0.102206
-0.0925182
-0.0821407
-0.0711442
-0.0595904
-0.0475335
-0.0350218
-0.0220994
-0.008808
0.00481114
0.0187155
0.032859
0.0471904
0.0616506
0.0761702
0.0906675
0.105046
0.119192
0.132973
0.146237
0.15881
0.170498
0.181087
0.190347
0.198038
0.203913
0.20773
0.209259
0.208294
0.204659
0.198214
0.188994
0.177155
0.161307
0.139232
-0.0974444
-0.118446
-0.1333
-0.144232
-0.152693
-0.158646
-0.162155
-0.16342
-0.16265
-0.160049
-0.155815
-0.150133
-0.143175
-0.135095
-0.126027
-0.116088
-0.10538
-0.0939884
-0.0819856
-0.0694327
-0.0563815
-0.0428762
-0.0289557
-0.0146554
-9.36773e-06
0.0149474
0.0301771
0.0456361
0.061273
0.0770252
0.0928164
0.108554
0.124125
0.139394
0.154204
0.168368
0.181674
0.193886
0.204743
0.213966
0.221265
0.226348
0.228931
0.228757
0.225593
0.219256
0.20975
0.197225
0.180136
0.156041
-0.118317
-0.141054
-0.156954
-0.168446
-0.177128
-0.182987
-0.18612
-0.186777
-0.185215
-0.181681
-0.176413
-0.169631
-0.161533
-0.152294
-0.142065
-0.130976
-0.119134
-0.106629
-0.0935336
-0.079907
-0.0657971
-0.0512425
-0.036275
-0.0209218
-0.00520786
0.0108417
0.027199
0.0438311
0.0606966
0.0777425
0.0949009
0.112085
0.129187
0.146072
0.162576
0.178506
0.193631
0.207691
0.220393
0.231415
0.240416
0.247047
0.250959
0.251826
0.249351
0.243286
0.233599
0.220419
0.202027
0.175733
-0.142178
-0.16682
-0.183825
-0.195848
-0.20466
-0.210279
-0.212849
-0.212684
-0.210101
-0.205402
-0.198873
-0.190774
-0.181335
-0.170755
-0.159204
-0.146821
-0.133721
-0.119996
-0.105718
-0.0909418
-0.0757104
-0.0600543
-0.0439961
-0.0275527
-0.0107377
0.00643598
0.0239533
0.0417942
0.0599305
0.0783218
0.096912
0.115625
0.134359
0.152984
0.171336
0.189213
0.206371
0.222526
0.237349
0.250475
0.261504
0.270018
0.275591
0.277814
0.276303
0.27073
0.261004
0.247228
0.227479
0.198786
-0.169457
-0.196204
-0.214373
-0.226877
-0.235687
-0.240866
-0.242627
-0.241363
-0.23747
-0.231318
-0.223252
-0.213577
-0.202561
-0.190431
-0.177372
-0.163537
-0.149044
-0.133986
-0.118433
-0.102433
-0.0860207
-0.0692163
-0.0520309
-0.0344688
-0.0165295
0.00178883
0.0204866
0.0395599
0.0589968
0.0787732
0.0988484
0.11916
0.13962
0.160106
0.180457
0.200469
0.219887
0.238404
0.255658
0.271233
0.284668
0.295463
0.303102
0.30707
0.306875
0.302079
0.292516
0.278237
0.257083
0.225769
-0.200667
-0.229761
-0.249153
-0.262053
-0.270671
-0.275141
-0.275767
-0.273049
-0.267481
-0.259519
-0.249577
-0.238019
-0.225151
-0.211228
-0.196456
-0.180993
-0.164964
-0.148457
-0.131535
-0.11424
-0.0965928
-0.0786014
-0.0602623
-0.041564
-0.0224895
-0.00301937
0.0168653
0.0371799
0.0579321
0.079118
0.100717
0.122686
0.144953
0.16741
0.189908
0.212244
0.234158
0.255325
0.275349
0.293767
0.310045
0.323594
0.333788
0.339985
0.341552
0.337913
0.328787
0.314148
0.291555
0.257363
-0.23643
-0.268172
-0.288841
-0.302003
-0.310161
-0.313553
-0.312612
-0.307978
-0.300272
-0.290059
-0.277835
-0.264028
-0.248988
-0.233
-0.216284
-0.199007
-0.18129
-0.163216
-0.144837
-0.126181
-0.107255
-0.0880488
-0.0685421
-0.0487043
-0.0284989
-0.00788573
0.0131756
0.0347228
0.0567871
0.0793887
0.102532
0.126197
0.150337
0.174865
0.199649
0.224496
0.249148
0.273268
0.296435
0.318134
0.33776
0.354623
0.367967
0.376994
0.380897
0.37891
0.370597
0.355812
0.331764
0.294391
-0.277517
-0.312283
-0.334276
-0.347487
-0.354801
-0.356611
-0.353527
-0.346381
-0.335956
-0.322946
-0.30795
-0.291464
-0.273888
-0.255529
-0.236622
-0.217333
-0.197776
-0.17802
-0.158104
-0.138033
-0.117797
-0.0973639
-0.0766921
-0.0557288
-0.0344148
-0.0126863
0.00952173
0.0322728
0.0556251
0.0796272
0.104313
0.129693
0.155751
0.18243
0.209622
0.237158
0.264791
0.292184
0.318894
0.344365
0.367918
0.388754
0.405968
0.418578
0.425549
0.425872
0.418888
0.404269
0.378784
0.337867
-0.324905
-0.363174
-0.386509
-0.399442
-0.405359
-0.404889
-0.398898
-0.388467
-0.374588
-0.358116
-0.339763
-0.320103
-0.299577
-0.278516
-0.257156
-0.235655
-0.21411
-0.192571
-0.17105
-0.149529
-0.127971
-0.106319
-0.084506
-0.0624525
-0.0400737
-0.0172793
0.00602317
0.0299261
0.0545184
0.079881
0.106082
0.13317
0.161166
0.19005
0.219754
0.25014
0.280989
0.311978
0.342658
0.372441
0.400581
0.426165
0.448124
0.465252
0.476236
0.479745
0.474806
0.460814
0.433959
0.38905
-0.379856
-0.422246
-0.446887
-0.459027
-0.462746
-0.459032
-0.44911
-0.434394
-0.416143
-0.395401
-0.373005
-0.349603
-0.325676
-0.301561
-0.277483
-0.253579
-0.229916
-0.206512
-0.183344
-0.160363
-0.137498
-0.114661
-0.0917552
-0.0686721
-0.0452973
-0.0215115
0.00280798
0.0277852
0.0535426
0.0801977
0.107858
0.136615
0.166535
0.197648
0.229935
0.263309
0.297593
0.332498
0.367592
0.402273
0.435743
0.466981
0.49474
0.517558
0.533779
0.541647
0.539751
0.52707
0.499001
0.449542
-0.444046
-0.491357
-0.517158
-0.527693
-0.528043
-0.51974
-0.504517
-0.484232
-0.460468
-0.434486
-0.407254
-0.379486
-0.351676
-0.324152
-0.297105
-0.27063
-0.244749
-0.219432
-0.194611
-0.170195
-0.146071
-0.122116
-0.0981978
-0.074175
-0.0499018
-0.0252271
4.13438e-06
0.0259495
0.0527678
0.0806161
0.109646
0.139997
0.171791
0.205116
0.240019
0.276479
0.314385
0.353509
0.393464
0.433667
0.473292
0.511231
0.546061
0.576033
0.599076
0.61289
0.615453
0.60511
0.576138
0.521424
-0.519776
-0.573034
-0.599625
-0.607264
-0.602514
-0.58774
-0.565388
-0.537889
-0.507214
-0.474855
-0.441899
-0.409093
-0.376916
-0.345648
-0.315418
-0.286252
-0.258102
-0.230875
-0.204444
-0.178662
-0.153371
-0.128404
-0.10359
-0.0787518
-0.0537095
-0.028279
-0.00227181
0.0245048
0.0522475
0.0811554
0.111427
0.143258
0.176829
0.212301
0.249799
0.289391
0.331058
0.374665
0.41991
0.466275
0.512953
0.558787
0.602202
0.641152
0.673083
0.695002
0.704049
0.697616
0.668333
0.607475
-0.610304
-0.670797
-0.697369
-0.700023
-0.6876
-0.663721
-0.631811
-0.595019
-0.555751
-0.515718
-0.476078
-0.437557
-0.400562
-0.365274
-0.331716
-0.299811
-0.269416
-0.24035
-0.212414
-0.185395
-0.15908
-0.133254
-0.107702
-0.0822101
-0.0565629
-0.0305427
-0.00392749
0.0235108
0.0520073
0.081804
0.113149
0.146296
0.181496
0.218989
0.258996
0.301692
0.347185
0.395471
0.446387
0.499537
0.55421
0.609271
0.663051
0.713234
0.756735
0.789714
0.80818
0.808105
0.779628
0.71154
-0.720449
-0.789675
-0.814543
-0.808807
-0.784861
-0.748197
-0.703535
-0.654872
-0.605048
-0.55592
-0.508622
-0.463762
-0.42159
-0.382114
-0.345197
-0.310614
-0.278096
-0.247354
-0.218097
-0.190039
-0.162903
-0.136421
-0.110335
-0.0843909
-0.0583397
-0.0319304
-0.0049084
0.0229882
0.0520316
0.0825066
0.114712
0.148961
0.185577
0.224894
0.267237
0.312917
0.362195
0.415249
0.472115
0.532607
0.596208
0.661924
0.728112
0.792274
0.850812
0.898902
0.931078
0.941236
0.915678
0.83916
-0.857666
-0.93702
-0.956772
-0.937042
-0.89581
-0.841256
-0.779717
-0.716081
-0.653509
-0.593836
-0.537993
-0.486321
-0.438784
-0.395128
-0.354983
-0.317931
-0.283541
-0.251395
-0.221095
-0.192274
-0.164585
-0.137708
-0.111338
-0.0851863
-0.0589689
-0.0324053
-0.0052112
0.022906
0.0522528
0.083154
0.115957
0.151034
0.188787
0.229641
0.274047
0.322463
0.375342
0.433091
0.496022
0.564259
0.63762
0.71543
0.796275
0.877681
0.955671
1.0244
1.0766
1.10322
1.0846
0.998718
-1.03413
-1.12381
-1.13161
-1.08864
-1.02154
-0.942135
-0.858547
-0.776378
-0.698792
-0.627262
-0.562237
-0.503561
-0.450752
-0.403178
-0.360161
-0.321037
-0.285182
-0.252031
-0.221071
-0.191846
-0.163942
-0.136986
-0.110631
-0.0845546
-0.0584441
-0.0319934
-0.00489384
0.0231732
0.0525432
0.0835762
0.116663
0.152234
0.190761
0.23277
0.278836
0.329587
0.385691
0.447836
0.516684
0.592797
0.676503
0.767692
0.865504
0.967865
1.07079
1.16763
1.24912
1.30227
1.29832
1.20365
-1.27096
-1.36666
-1.34884
-1.26747
-1.16193
-1.04846
-0.936663
-0.832208
-0.737577
-0.653315
-0.578956
-0.513551
-0.455974
-0.40509
-0.359836
-0.31926
-0.282526
-0.248908
-0.217779
-0.188595
-0.16088
-0.134214
-0.108215
-0.0825318
-0.0568319
-0.0307901
-0.00407993
0.0236358
0.0527145
0.0835432
0.116549
0.15221
0.191067
0.233734
0.280915
0.333407
0.392116
0.458048
0.532292
0.615971
0.710134
0.815554
0.93239
1.0596
1.19395
1.3287
1.45294
1.54891
1.57463
1.47691
-1.60702
-1.69081
-1.61995
-1.47564
-1.31387
-1.15486
-1.00822
-0.878174
-0.765296
-0.668323
-0.585303
-0.51414
-0.452859
-0.399708
-0.353188
-0.312034
-0.275194
-0.24179
-0.211088
-0.182469
-0.155407
-0.129444
-0.104176
-0.0792347
-0.0542741
-0.0289601
-0.00295771
0.0240795
0.0525207
0.0827697
0.115278
0.15056
0.18921
0.231918
0.279502
0.332921
0.393317
0.46203
0.540627
0.630903
0.734834
0.854448
0.991529
1.147
1.31972
1.50453
1.69043
1.85532
1.94019
1.86015
-2.11416
-2.1338
-1.95624
-1.71045
-1.46856
-1.25114
-1.06388
-0.906611
-0.776034
-0.66791
-0.578135
-0.503126
-0.439899
-0.386031
-0.339575
-0.298975
-0.262986
-0.230603
-0.201013
-0.173546
-0.147644
-0.122831
-0.0986934
-0.0748584
-0.0509808
-0.026728
-0.00176774
0.0242443
0.0516772
0.0809381
0.112488
0.146859
0.184678
0.226689
0.273793
0.327086
0.38791
0.457922
0.53917
0.634169
0.745981
0.878237
1.03503
1.22048
1.4376
1.68606
1.95888
2.23344
2.43411
2.42885
-2.923
-2.74564
-2.36525
-1.96231
-1.61042
-1.32222
-1.09153
-0.908637
-0.763659
-0.648031
-0.554903
-0.478987
-0.416263
-0.363677
-0.318908
-0.280176
-0.246104
-0.215616
-0.187858
-0.162145
-0.137912
-0.114689
-0.0920705
-0.0696955
-0.0472325
-0.0243633
-0.000770669
0.0238755
0.0499305
0.0777897
0.107905
0.140806
0.177123
0.217621
0.263242
0.31516
0.374861
0.444243
0.525755
0.622588
0.738914
0.880178
1.05339
1.26727
1.53185
1.85703
2.24805
2.6909
3.10731
3.31715
-4.33008
-3.56659
-2.82263
-2.1976
-1.70896
-1.34428
-1.07483
-0.873979
-0.722099
-0.605341
-0.513957
-0.441098
-0.38192
-0.332951
-0.291666
-0.256195
-0.225133
-0.197404
-0.172173
-0.148779
-0.126687
-0.105455
-0.0847056
-0.064107
-0.0433551
-0.0221592
-0.000229048
0.0227379
0.0470695
0.0731332
0.101353
0.132229
0.166367
0.204507
0.247577
0.296755
0.353563
0.42
0.498744
0.593437
0.709131
0.852935
1.03493
1.26943
1.57665
1.98431
2.52223
3.20104
3.9998
4.82963
-7.16507
-4.56564
-3.14723
-2.26219
-1.65638
-1.24732
-0.969506
-0.77465
-0.633351
-0.527891
-0.447065
-0.383566
-0.332508
-0.290534
-0.255271
-0.225005
-0.198466
-0.174696
-0.152962
-0.132686
-0.113406
-0.0947428
-0.0763755
-0.0580226
-0.0394267
-0.0203417
-0.00052092
0.0202934
0.0423832
0.0660664
0.0917123
0.11976
0.150744
0.185323
0.224328
0.268823
0.3202
0.380313
0.451698
0.537905
0.644061
0.777792
0.950763
1.18138
1.50003
1.95704
2.62195
3.57939
5.08386
7.802
-12.0334
-5.6485
-2.98315
-1.88592
-1.29096
-0.93854
-0.721149
-0.577352
-0.475869
-0.400851
-0.343416
-0.298142
-0.261522
-0.231178
-0.205433
-0.183068
-0.16318
-0.145083
-0.128251
-0.112269
-0.096806
-0.0815917
-0.0663963
-0.0510186
-0.0352737
-0.0189839
-0.00196949
0.0159606
0.0350166
0.0554381
0.0775056
0.101554
0.127989
0.157314
0.190157
0.227318
0.269835
0.319081
0.376916
0.445943
0.529942
0.634691
0.769546
0.950956
1.21093
1.61335
2.2748
3.46696
6.24913
12.7593
)
;

boundaryField
{
    movingWall
    {
        type            zeroGradient;
    }
    fixedWalls
    {
        type            zeroGradient;
    }
    frontAndBack
    {
        type            empty;
    }
}


// ************************************************************************* //
