/*--------------------------------*- C++ -*----------------------------------*\
  =========                 |
  \\      /  F ield         | OpenFOAM: The Open Source CFD Toolbox
   \\    /   O peration     | Website:  https://openfoam.org
    \\  /    A nd           | Version:  7
     \\/     M anipulation  |
\*---------------------------------------------------------------------------*/
FoamFile
{
    version     2.0;
    format      ascii;
    class       volVectorField;
    location    "0.0282";
    object      U;
}
// * * * * * * * * * * * * * * * * * * * * * * * * * * * * * * * * * * * * * //

dimensions      [0 1 -1 0 0 0 0];

internalField   nonuniform List<vector> 
2500
(
(2.50948e-05 -2.49464e-05 0)
(7.05275e-05 -2.69898e-05 0)
(8.50545e-05 -9.37208e-06 0)
(4.03022e-05 1.35089e-05 0)
(-7.06762e-05 3.58779e-05 0)
(-0.000244228 5.5902e-05 0)
(-0.000472759 7.27295e-05 0)
(-0.000747751 8.62627e-05 0)
(-0.00106012 9.66568e-05 0)
(-0.00140087 0.000104133 0)
(-0.00176137 0.000108928 0)
(-0.00213352 0.000111277 0)
(-0.00250978 0.000111407 0)
(-0.0028832 0.000109535 0)
(-0.00324745 0.000105868 0)
(-0.0035968 0.000100598 0)
(-0.00392611 9.39079e-05 0)
(-0.00423081 8.5967e-05 0)
(-0.00450686 7.69351e-05 0)
(-0.00475076 6.69625e-05 0)
(-0.00495948 5.61913e-05 0)
(-0.00513051 4.47567e-05 0)
(-0.00526177 3.27897e-05 0)
(-0.00535166 2.04185e-05 0)
(-0.00539901 7.77081e-06 0)
(-0.00540313 -5.0236e-06 0)
(-0.00536377 -1.78314e-05 0)
(-0.00528118 -3.05138e-05 0)
(-0.00515608 -4.29245e-05 0)
(-0.00498974 -5.49089e-05 0)
(-0.00478395 -6.63031e-05 0)
(-0.00454108 -7.69334e-05 0)
(-0.00426411 -8.66165e-05 0)
(-0.00395663 -9.51599e-05 0)
(-0.00362287 -0.000102363 0)
(-0.00326773 -0.00010802 0)
(-0.00289677 -0.000111919 0)
(-0.0025162 -0.000113846 0)
(-0.00213289 -0.000113587 0)
(-0.00175431 -0.00011093 0)
(-0.00138848 -0.000105666 0)
(-0.00104394 -9.75948e-05 0)
(-0.00072959 -8.65276e-05 0)
(-0.000454575 -7.23012e-05 0)
(-0.000227868 -5.48181e-05 0)
(-5.73012e-05 -3.42912e-05 0)
(4.94204e-05 -1.20063e-05 0)
(8.94792e-05 1.07887e-05 0)
(7.15802e-05 2.78043e-05 0)
(2.49809e-05 2.49259e-05 0)
(2.73933e-05 -7.04437e-05 0)
(4.91072e-05 -4.81159e-05 0)
(-2.46316e-05 4.60783e-05 0)
(-0.000235369 0.000164434 0)
(-0.000596625 0.000284474 0)
(-0.00110451 0.000395608 0)
(-0.00174563 0.000492417 0)
(-0.00250176 0.000572741 0)
(-0.00335221 0.000636041 0)
(-0.00427545 0.000682587 0)
(-0.00525006 0.000713085 0)
(-0.00625532 0.00072848 0)
(-0.00727161 0.000729845 0)
(-0.00828057 0.00071831 0)
(-0.00926527 0.000695026 0)
(-0.0102103 0.000661132 0)
(-0.0111015 0.000617741 0)
(-0.0119266 0.000565929 0)
(-0.0126743 0.000506731 0)
(-0.0133351 0.000441144 0)
(-0.0139006 0.000370125 0)
(-0.0143638 0.000294603 0)
(-0.014719 0.000215482 0)
(-0.0149619 0.000133656 0)
(-0.0150892 5.0018e-05 0)
(-0.0150992 -3.45296e-05 0)
(-0.0149912 -0.000119062 0)
(-0.014766 -0.000202624 0)
(-0.0144257 -0.000284219 0)
(-0.0139739 -0.000362806 0)
(-0.0134156 -0.000437293 0)
(-0.0127576 -0.000506539 0)
(-0.0120078 -0.000569356 0)
(-0.0111764 -0.000624513 0)
(-0.0102747 -0.000670752 0)
(-0.00931614 -0.000706797 0)
(-0.00831562 -0.000731377 0)
(-0.00728977 -0.000743248 0)
(-0.00625677 -0.00074122 0)
(-0.00523619 -0.000724198 0)
(-0.00424881 -0.000691223 0)
(-0.00331628 -0.000641546 0)
(-0.00246067 -0.000574735 0)
(-0.00170377 -0.000490859 0)
(-0.00106602 -0.000390839 0)
(-0.000564817 -0.000277324 0)
(-0.0002126 -0.000156614 0)
(-1.16808e-05 -3.87811e-05 0)
(5.39308e-05 5.2984e-05 0)
(2.81465e-05 7.16192e-05 0)
(1.06345e-05 -8.63369e-05 0)
(-4.23277e-05 2.46082e-05 0)
(-0.000264551 0.000269274 0)
(-0.000686902 0.000565066 0)
(-0.00132077 0.000867576 0)
(-0.00216124 0.00115145 0)
(-0.00319116 0.00140254 0)
(-0.00438607 0.0016137 0)
(-0.00571739 0.00178194 0)
(-0.00715466 0.00190673 0)
(-0.0086669 0.00198903 0)
(-0.0102237 0.00203073 0)
(-0.0117958 0.00203424 0)
(-0.0133557 0.00200232 0)
(-0.0148776 0.00193788 0)
(-0.0163379 0.0018439 0)
(-0.0177153 0.00172335 0)
(-0.0189903 0.00157915 0)
(-0.0201458 0.00141417 0)
(-0.0211669 0.00123116 0)
(-0.0220406 0.00103283 0)
(-0.0227562 0.000821794 0)
(-0.0233047 0.000600626 0)
(-0.0236793 0.000371874 0)
(-0.0238752 0.000138086 0)
(-0.0238895 -9.81644e-05 0)
(-0.0237214 -0.000334244 0)
(-0.0233722 -0.000567443 0)
(-0.0228453 -0.000794947 0)
(-0.0221463 -0.00101383 0)
(-0.0212832 -0.00122104 0)
(-0.0202662 -0.00141341 0)
(-0.0191081 -0.00158766 0)
(-0.0178243 -0.00174041 0)
(-0.0164324 -0.00186825 0)
(-0.014953 -0.00196775 0)
(-0.0134088 -0.00203554 0)
(-0.011825 -0.00206838 0)
(-0.0102291 -0.00206327 0)
(-0.00865044 -0.00201755 0)
(-0.0071198 -0.00192909 0)
(-0.00566893 -0.00179652 0)
(-0.0043297 -0.00161959 0)
(-0.00313297 -0.00139967 0)
(-0.00210702 -0.00114075 0)
(-0.00127538 -0.000851044 0)
(-0.0006537 -0.000545839 0)
(-0.000244806 -0.000251028 0)
(-3.4325e-05 -1.14729e-05 0)
(1.21335e-05 9.08619e-05 0)
(-1.11309e-05 -4.50708e-05 0)
(-0.000157728 0.000231884 0)
(-0.000556852 0.000690548 0)
(-0.00121527 0.00122179 0)
(-0.00213533 0.00176138 0)
(-0.00330836 0.00226913 0)
(-0.00471293 0.00272079 0)
(-0.00631929 0.00310286 0)
(-0.00809279 0.00340876 0)
(-0.00999609 0.00363637 0)
(-0.0119909 0.00378646 0)
(-0.0140392 0.00386174 0)
(-0.0161041 0.00386611 0)
(-0.0181505 0.00380424 0)
(-0.0201456 0.00368128 0)
(-0.022059 0.00350258 0)
(-0.023863 0.00327357 0)
(-0.0255325 0.00299967 0)
(-0.0270453 0.00268623 0)
(-0.0283819 0.00233847 0)
(-0.0295253 0.00196149 0)
(-0.0304615 0.0015603 0)
(-0.0311789 0.00113983 0)
(-0.0316685 0.000704939 0)
(-0.0319241 0.000260535 0)
(-0.031942 -0.000188444 0)
(-0.0317212 -0.000636957 0)
(-0.0312635 -0.00107982 0)
(-0.0305733 -0.00151166 0)
(-0.029658 -0.00192693 0)
(-0.0285282 -0.00231983 0)
(-0.0271972 -0.0026844 0)
(-0.0256818 -0.00301446 0)
(-0.0240018 -0.00330373 0)
(-0.0221803 -0.00354586 0)
(-0.0202436 -0.00373453 0)
(-0.0182212 -0.0038636 0)
(-0.0161453 -0.00392725 0)
(-0.014051 -0.0039202 0)
(-0.0119754 -0.00383793 0)
(-0.00995735 -0.00367706 0)
(-0.00803656 -0.0034358 0)
(-0.00625246 -0.00311458 0)
(-0.00464289 -0.00271704 0)
(-0.00324227 -0.00225148 0)
(-0.00207932 -0.00173322 0)
(-0.0011737 -0.00118821 0)
(-0.000531631 -0.000657964 0)
(-0.000147281 -0.000207474 0)
(-9.14751e-06 5.4541e-05 0)
(-3.24899e-05 6.07742e-05 0)
(-0.000276987 0.00058954 0)
(-0.000863563 0.00132572 0)
(-0.00176829 0.00214367 0)
(-0.00298018 0.00296395 0)
(-0.00448423 0.00373366 0)
(-0.00625339 0.00441903 0)
(-0.00825246 0.00499995 0)
(-0.0104413 0.00546577 0)
(-0.0127767 0.00581231 0)
(-0.0152145 0.00603985 0)
(-0.0177103 0.00615173 0)
(-0.0202212 0.00615335 0)
(-0.0227058 0.00605149 0)
(-0.0251255 0.00585375 0)
(-0.0274441 0.00556826 0)
(-0.0296289 0.00520335 0)
(-0.0316499 0.00476742 0)
(-0.0334805 0.00426882 0)
(-0.0350973 0.00371575 0)
(-0.0364803 0.00311631 0)
(-0.0376122 0.0024784 0)
(-0.0384795 0.00180989 0)
(-0.0390712 0.00111854 0)
(-0.03938 0.000412162 0)
(-0.0394014 -0.000301363 0)
(-0.0391342 -0.001014 0)
(-0.0385806 -0.00171748 0)
(-0.037746 -0.00240331 0)
(-0.0366394 -0.00306265 0)
(-0.0352734 -0.00368637 0)
(-0.0336639 -0.00426506 0)
(-0.0318311 -0.00478904 0)
(-0.0297987 -0.00524848 0)
(-0.0275941 -0.00563351 0)
(-0.0252487 -0.00593438 0)
(-0.0227973 -0.00614166 0)
(-0.0202783 -0.00624655 0)
(-0.0177327 -0.00624118 0)
(-0.0152044 -0.00611903 0)
(-0.0127386 -0.00587548 0)
(-0.0103816 -0.00550851 0)
(-0.0081791 -0.00501967 0)
(-0.00617487 -0.00441537 0)
(-0.00440897 -0.00370883 0)
(-0.00291556 -0.00292279 0)
(-0.00171973 -0.00209359 0)
(-0.000833706 -0.00127624 0)
(-0.00026446 -0.000551541 0)
(-3.00834e-05 -4.51653e-05 0)
(-5.22309e-05 0.000229359 0)
(-0.000392308 0.00109927 0)
(-0.00116606 0.00217934 0)
(-0.00231799 0.00333539 0)
(-0.00382146 0.00447745 0)
(-0.00565315 0.00554272 0)
(-0.00777898 0.00648929 0)
(-0.0101576 0.00729103 0)
(-0.0127432 0.00793332 0)
(-0.0154874 0.00840985 0)
(-0.0183403 0.0087203 0)
(-0.0212525 0.00886861 0)
(-0.0241756 0.00886173 0)
(-0.0270631 0.00870865 0)
(-0.0298714 0.00841971 0)
(-0.0325597 0.00800607 0)
(-0.0350908 0.00747934 0)
(-0.0374307 0.00685129 0)
(-0.0395491 0.00613371 0)
(-0.0414195 0.00533824 0)
(-0.0430189 0.00447639 0)
(-0.0443279 0.00355951 0)
(-0.0453306 0.00259882 0)
(-0.0460149 0.00160549 0)
(-0.0463723 0.000590708 0)
(-0.0463975 -0.000434196 0)
(-0.0460895 -0.00145769 0)
(-0.0454505 -0.00246795 0)
(-0.0444867 -0.00345277 0)
(-0.0432085 -0.00439957 0)
(-0.04163 -0.00529531 0)
(-0.0397696 -0.00612661 0)
(-0.0376501 -0.00687974 0)
(-0.0352983 -0.00754081 0)
(-0.0327456 -0.00809592 0)
(-0.0300274 -0.0085314 0)
(-0.0271831 -0.00883415 0)
(-0.0242561 -0.00899202 0)
(-0.0212929 -0.0089943 0)
(-0.0183425 -0.0088323 0)
(-0.015456 -0.00850014 0)
(-0.0126854 -0.00799564 0)
(-0.0100821 -0.00732162 0)
(-0.00769538 -0.00648742 0)
(-0.00557122 -0.00551113 0)
(-0.00374991 -0.00442254 0)
(-0.00226346 -0.00326712 0)
(-0.00113211 -0.00211073 0)
(-0.000377895 -0.00104557 0)
(-4.94257e-05 -0.000206573 0)
(-6.98557e-05 0.000456071 0)
(-0.000500574 0.00175642 0)
(-0.0014564 0.00324841 0)
(-0.00285146 0.00479476 0)
(-0.00464291 0.00629903 0)
(-0.0067978 0.00769135 0)
(-0.00927393 0.00892344 0)
(-0.012023 0.00996416 0)
(-0.0149931 0.0107955 0)
(-0.0181304 0.0114094 0)
(-0.0213799 0.0118049 0)
(-0.0246872 0.0119868 0)
(-0.0279992 0.0119638 0)
(-0.0312649 0.0117471 0)
(-0.0344363 0.0113502 0)
(-0.0374688 0.0107875 0)
(-0.0403212 0.0100741 0)
(-0.0429562 0.00922558 0)
(-0.0453406 0.00825752 0)
(-0.047445 0.00718539 0)
(-0.0492439 0.0060245 0)
(-0.0507161 0.00479001 0)
(-0.0518441 0.00349691 0)
(-0.0526144 0.00216017 0)
(-0.0530174 0.000794782 0)
(-0.0530476 -0.000584087 0)
(-0.0527034 -0.001961 0)
(-0.0519875 -0.00332011 0)
(-0.0509067 -0.00464513 0)
(-0.0494722 -0.00591923 0)
(-0.0476996 -0.00712506 0)
(-0.0456091 -0.00824478 0)
(-0.0432257 -0.00926016 0)
(-0.040579 -0.0101528 0)
(-0.0377035 -0.0109043 0)
(-0.034638 -0.0114967 0)
(-0.0314261 -0.0119127 0)
(-0.0281152 -0.0121367 0)
(-0.0247566 -0.0121547 0)
(-0.0214043 -0.0119558 0)
(-0.0181145 -0.0115325 0)
(-0.0149444 -0.0108825 0)
(-0.011951 -0.0100097 0)
(-0.00918959 -0.00892614 0)
(-0.00671224 -0.00765443 0)
(-0.00456638 -0.00623044 0)
(-0.00279205 -0.00470719 0)
(-0.00141884 -0.00315882 0)
(-0.000484397 -0.00168512 0)
(-6.66518e-05 -0.000425111 0)
(-8.56122e-05 0.00073677 0)
(-0.000601691 0.00255449 0)
(-0.00173291 0.00452682 0)
(-0.00336522 0.0065166 0)
(-0.00543983 0.00842388 0)
(-0.00791356 0.0101742 0)
(-0.0107352 0.0117147 0)
(-0.0138489 0.0130105 0)
(-0.0171961 0.0140411 0)
(-0.020717 0.014797 0)
(-0.0243517 0.0152775 0)
(-0.0280407 0.0154882 0)
(-0.0317266 0.0154397 0)
(-0.0353542 0.0151461 0)
(-0.0388718 0.0146239 0)
(-0.0422311 0.0138912 0)
(-0.0453878 0.012967 0)
(-0.0483016 0.011871 0)
(-0.0509367 0.0106227 0)
(-0.0532614 0.00924175 0)
(-0.0552483 0.0077477 0)
(-0.0568743 0.0061598 0)
(-0.0581206 0.00449715 0)
(-0.0589726 0.00277883 0)
(-0.05942 0.00102396 0)
(-0.0594566 -0.000748123 0)
(-0.0590807 -0.00251772 0)
(-0.058295 -0.00426466 0)
(-0.0571067 -0.00596816 0)
(-0.0555277 -0.00760681 0)
(-0.0535748 -0.00915853 0)
(-0.0512696 -0.0106007 0)
(-0.0486389 -0.01191 0)
(-0.0457146 -0.0130633 0)
(-0.0425336 -0.0140372 0)
(-0.0391381 -0.0148091 0)
(-0.0355749 -0.0153573 0)
(-0.0318954 -0.0156619 0)
(-0.028155 -0.0157056 0)
(-0.0244123 -0.0154748 0)
(-0.0207287 -0.0149604 0)
(-0.0171665 -0.0141595 0)
(-0.0137885 -0.0130767 0)
(-0.0106562 -0.0117264 0)
(-0.00782862 -0.0101348 0)
(-0.00536104 -0.0083428 0)
(-0.00330244 -0.00640948 0)
(-0.00169238 -0.00441499 0)
(-0.000583898 -0.00246399 0)
(-8.20014e-05 -0.000696682 0)
(-9.99376e-05 0.00106767 0)
(-0.000696851 0.00348706 0)
(-0.00199724 0.00600813 0)
(-0.00386123 0.0084954 0)
(-0.0062147 0.0108475 0)
(-0.00900402 0.0129872 0)
(-0.0121686 0.0148589 0)
(-0.015644 0.0164252 0)
(-0.0193648 0.017664 0)
(-0.0232651 0.0185653 0)
(-0.0272792 0.0191289 0)
(-0.031343 0.0193621 0)
(-0.0353945 0.0192776 0)
(-0.0393748 0.0188927 0)
(-0.0432284 0.0182274 0)
(-0.0469039 0.0173037 0)
(-0.0503542 0.0161448 0)
(-0.0535364 0.0147747 0)
(-0.0564125 0.0132175 0)
(-0.0589487 0.0114971 0)
(-0.0611162 0.00963757 0)
(-0.0628902 0.00766248 0)
(-0.0642509 0.00559535 0)
(-0.0651826 0.00345962 0)
(-0.0656743 0.0012788 0)
(-0.0657194 -0.000923338 0)
(-0.0653158 -0.00312258 0)
(-0.0644662 -0.00529413 0)
(-0.063178 -0.00741246 0)
(-0.0614636 -0.00945123 0)
(-0.0593406 -0.0113833 0)
(-0.0568317 -0.0131808 0)
(-0.0539651 -0.0148154 0)
(-0.0507746 -0.0162583 0)
(-0.0472994 -0.017481 0)
(-0.0435843 -0.0184557 0)
(-0.0396792 -0.0191558 0)
(-0.035639 -0.019557 0)
(-0.0315233 -0.0196381 0)
(-0.0273951 -0.0193825 0)
(-0.0233207 -0.0187787 0)
(-0.0193681 -0.017823 0)
(-0.0156062 -0.0165202 0)
(-0.0121032 -0.0148862 0)
(-0.00892569 -0.0129501 0)
(-0.00613755 -0.0107567 0)
(-0.0037973 -0.0083697 0)
(-0.00195478 -0.00587357 0)
(-0.000677712 -0.00337615 0)
(-9.59282e-05 -0.00101759 0)
(-0.000113271 0.00144586 0)
(-0.000787726 0.00454892 0)
(-0.00225271 0.00768702 0)
(-0.00434442 0.0107269 0)
(-0.00697419 0.0135669 0)
(-0.0100779 0.0161286 0)
(-0.0135851 0.0183547 0)
(-0.0174227 0.0202069 0)
(-0.0215174 0.0216624 0)
(-0.0257969 0.0227116 0)
(-0.0301896 0.0233556 0)
(-0.0346263 0.0236038 0)
(-0.0390407 0.0234718 0)
(-0.0433698 0.0229803 0)
(-0.0475549 0.0221533 0)
(-0.0515415 0.0210172 0)
(-0.0552799 0.0195997 0)
(-0.058725 0.0179294 0)
(-0.0618368 0.0160351 0)
(-0.06458 0.0139456 0)
(-0.0669241 0.0116893 0)
(-0.0688433 0.00929464 0)
(-0.0703167 0.00678965 0)
(-0.0713279 0.00420232 0)
(-0.0718651 0.00156076 0)
(-0.0719212 -0.00110662 0)
(-0.0714938 -0.00377091 0)
(-0.0705853 -0.00640246 0)
(-0.0692034 -0.00897075 0)
(-0.0673606 -0.0114443 0)
(-0.0650749 -0.0137906 0)
(-0.0623699 -0.0159762 0)
(-0.059275 -0.0179672 0)
(-0.0558253 -0.0197292 0)
(-0.052062 -0.0212278 0)
(-0.0480323 -0.0224296 0)
(-0.043789 -0.0233028 0)
(-0.0393904 -0.0238181 0)
(-0.0348999 -0.0239499 0)
(-0.0303853 -0.0236777 0)
(-0.0259179 -0.0229877 0)
(-0.0215717 -0.0218742 0)
(-0.0174221 -0.0203418 0)
(-0.0135447 -0.018407 0)
(-0.0100143 -0.0161009 0)
(-0.00690411 -0.0134714 0)
(-0.00428255 -0.0105852 0)
(-0.00220982 -0.00753042 0)
(-0.000767693 -0.00441704 0)
(-0.0001089 -0.00138507 0)
(-0.000126015 0.00186945 0)
(-0.000876135 0.0057367 0)
(-0.00250333 0.00956028 0)
(-0.00482129 0.0132088 0)
(-0.00772734 0.0165812 0)
(-0.0111469 0.0195987 0)
(-0.0149995 0.0222037 0)
(-0.0192027 0.0243576 0)
(-0.0236753 0.0260384 0)
(-0.0283376 0.0272376 0)
(-0.0331122 0.0279586 0)
(-0.0379244 0.0282134 0)
(-0.0427032 0.0280214 0)
(-0.0473819 0.0274072 0)
(-0.0518983 0.0263993 0)
(-0.0561952 0.0250288 0)
(-0.0602203 0.0233285 0)
(-0.0639266 0.0213318 0)
(-0.0672724 0.0190726 0)
(-0.070221 0.0165845 0)
(-0.0727407 0.0139011 0)
(-0.0748047 0.0110553 0)
(-0.0763913 0.00808006 0)
(-0.0774831 0.00500806 0)
(-0.078068 0.00187211 0)
(-0.0781381 -0.00129463 0)
(-0.0776908 -0.00445838 0)
(-0.0767282 -0.00758448 0)
(-0.0752577 -0.0106373 0)
(-0.0732918 -0.0135798 0)
(-0.0708489 -0.0163741 0)
(-0.0679529 -0.0189809 0)
(-0.0646341 -0.0213602 0)
(-0.0609288 -0.0234714 0)
(-0.0568798 -0.0252742 0)
(-0.0525364 -0.026729 0)
(-0.0479541 -0.027798 0)
(-0.0431945 -0.0284464 0)
(-0.0383251 -0.0286435 0)
(-0.0334183 -0.0283647 0)
(-0.028551 -0.0275926 0)
(-0.0238034 -0.026319 0)
(-0.0192581 -0.0245473 0)
(-0.0149987 -0.022294 0)
(-0.0111089 -0.0195912 0)
(-0.00767163 -0.0164888 0)
(-0.00476586 -0.0130561 0)
(-0.00246218 -0.00938391 0)
(-0.000855893 -0.0055842 0)
(-0.000121358 -0.00179752 0)
(-0.000138533 0.00233757 0)
(-0.000963896 0.00704911 0)
(-0.00275343 0.0116273 0)
(-0.00529904 0.015942 0)
(-0.0084844 0.0198928 0)
(-0.0122244 0.0234014 0)
(-0.0164283 0.0264106 0)
(-0.0210039 0.0288828 0)
(-0.0258616 0.0307975 0)
(-0.0309141 0.0321487 0)
(-0.0360773 0.0329426 0)
(-0.041271 0.033195 0)
(-0.0464196 0.0329295 0)
(-0.0514521 0.0321756 0)
(-0.0563032 0.0309667 0)
(-0.0609127 0.0293393 0)
(-0.0652263 0.0273314 0)
(-0.0691952 0.0249818 0)
(-0.072776 0.0223297 0)
(-0.0759309 0.019414 0)
(-0.0786273 0.0162732 0)
(-0.0808375 0.0129453 0)
(-0.082539 0.00946814 0)
(-0.083714 0.0058791 0)
(-0.0843495 0.00221582 0)
(-0.0844373 -0.00148371 0)
(-0.0839743 -0.00518075 0)
(-0.082962 -0.00883557 0)
(-0.0814074 -0.0124072 0)
(-0.079323 -0.0158531 0)
(-0.0767269 -0.0191295 0)
(-0.0736434 -0.0221911 0)
(-0.0701031 -0.0249915 0)
(-0.0661433 -0.0274836 0)
(-0.0618081 -0.0296204 0)
(-0.0571487 -0.0313556 0)
(-0.0522231 -0.032645 0)
(-0.0470964 -0.0334473 0)
(-0.0418399 -0.0337263 0)
(-0.0365311 -0.0334521 0)
(-0.0312528 -0.0326029 0)
(-0.0260919 -0.0311674 0)
(-0.0211386 -0.0291466 0)
(-0.0164854 -0.0265563 0)
(-0.0122256 -0.0234287 0)
(-0.00845244 -0.0198147 0)
(-0.00525581 -0.015786 0)
(-0.0027169 -0.0114355 0)
(-0.000944397 -0.00687759 0)
(-0.000133706 -0.00225447 0)
(-0.000151149 0.00285029 0)
(-0.00105276 0.00848698 0)
(-0.00300733 0.0138901 0)
(-0.00578508 0.0189302 0)
(-0.00925605 0.0235071 0)
(-0.0133245 0.0275434 0)
(-0.0178889 0.0309833 0)
(-0.0228471 0.033791 0)
(-0.0281002 0.0359486 0)
(-0.0335532 0.0374535 0)
(-0.039115 0.0383157 0)
(-0.0446994 0.0385559 0)
(-0.0502258 0.0382027 0)
(-0.0556192 0.037291 0)
(-0.0608108 0.0358601 0)
(-0.0657379 0.0339521 0)
(-0.0703441 0.0316111 0)
(-0.0745788 0.0288817 0)
(-0.0783975 0.0258085 0)
(-0.0817614 0.0224359 0)
(-0.084637 0.0188078 0)
(-0.0869962 0.0149671 0)
(-0.0888156 0.0109566 0)
(-0.090077 0.00681864 0)
(-0.090767 0.00259555 0)
(-0.0908767 -0.0016698 0)
(-0.0904022 -0.00593371 0)
(-0.0893447 -0.0101513 0)
(-0.0877106 -0.0142762 0)
(-0.0855118 -0.0182603 0)
(-0.082766 -0.0220537 0)
(-0.0794975 -0.0256047 0)
(-0.0757369 -0.0288604 0)
(-0.0715221 -0.0317665 0)
(-0.0668984 -0.034269 0)
(-0.0619184 -0.0363142 0)
(-0.0566429 -0.0378505 0)
(-0.05114 -0.0388298 0)
(-0.0454852 -0.039209 0)
(-0.0397613 -0.0389521 0)
(-0.0340571 -0.0380321 0)
(-0.028467 -0.0364334 0)
(-0.0230896 -0.0341539 0)
(-0.0180266 -0.0312072 0)
(-0.0133818 -0.0276251 0)
(-0.00925962 -0.023459 0)
(-0.00576133 -0.0187822 0)
(-0.00297914 -0.0136901 0)
(-0.00103526 -0.00829971 0)
(-0.000146316 -0.00275652 0)
(-0.000164155 0.00340859 0)
(-0.00114439 0.0100533 0)
(-0.00326923 0.0163539 0)
(-0.00628677 0.0221803 0)
(-0.010053 0.0274328 0)
(-0.0144613 0.0320351 0)
(-0.0193988 0.0359333 0)
(-0.0247529 0.0390943 0)
(-0.030415 0.0415038 0)
(-0.0362817 0.0431636 0)
(-0.0422545 0.0440889 0)
(-0.0482411 0.044306 0)
(-0.0541556 0.0438495 0)
(-0.0599189 0.0427608 0)
(-0.0654588 0.0410857 0)
(-0.07071 0.0388728 0)
(-0.0756142 0.0361724 0)
(-0.0801193 0.0330354 0)
(-0.0841799 0.0295125 0)
(-0.0877564 0.0256536 0)
(-0.0908147 0.021508 0)
(-0.0933262 0.017124 0)
(-0.0952673 0.0125491 0)
(-0.0966192 0.00783059 0)
(-0.0973679 0.00301553 0)
(-0.097504 -0.0018484 0)
(-0.097023 -0.00671262 0)
(-0.0959253 -0.0115271 0)
(-0.0942163 -0.0162401 0)
(-0.0919073 -0.0207977 0)
(-0.0890154 -0.0251439 0)
(-0.0855641 -0.0292203 0)
(-0.081584 -0.0329669 0)
(-0.0771131 -0.0363223 0)
(-0.0721975 -0.0392242 0)
(-0.0668914 -0.0416112 0)
(-0.0612576 -0.0434236 0)
(-0.0553674 -0.0446052 0)
(-0.0493007 -0.0451052 0)
(-0.0431456 -0.0448804 0)
(-0.0369976 -0.0438974 0)
(-0.0309589 -0.0421351 0)
(-0.0251371 -0.0395872 0)
(-0.0196443 -0.0362643 0)
(-0.0145953 -0.0321966 0)
(-0.0101065 -0.0274358 0)
(-0.00629146 -0.0220562 0)
(-0.003254 -0.0161559 0)
(-0.00113047 -0.0098556 0)
(-0.000159532 -0.00330538 0)
(-0.00017782 0.00401431 0)
(-0.00124034 0.0117531 0)
(-0.00354319 0.0190264 0)
(-0.00681123 0.0257026 0)
(-0.0108858 0.0316823 0)
(-0.0156487 0.0368902 0)
(-0.0209752 0.041275 0)
(-0.0267415 0.0448074 0)
(-0.0328289 0.0474777 0)
(-0.039125 0.0492932 0)
(-0.0455234 0.0502753 0)
(-0.0519254 0.0504571 0)
(-0.0582398 0.0498806 0)
(-0.0643831 0.0485943 0)
(-0.0702799 0.0466513 0)
(-0.0758625 0.0441077 0)
(-0.0810706 0.0410206 0)
(-0.0858512 0.0374476 0)
(-0.090158 0.0334457 0)
(-0.0939509 0.0290708 0)
(-0.0971955 0.0243777 0)
(-0.0998631 0.0194198 0)
(-0.10193 0.0142497 0)
(-0.103376 0.00891934 0)
(-0.104189 0.00348048 0)
(-0.104356 -0.00201455 0)
(-0.103874 -0.00751236 0)
(-0.102742 -0.0129579 0)
(-0.100963 -0.0182941 0)
(-0.098549 -0.0234613 0)
(-0.0955149 -0.028397 0)
(-0.0918837 -0.0330362 0)
(-0.0876854 -0.0373113 0)
(-0.0829577 -0.0411531 0)
(-0.077747 -0.0444908 0)
(-0.0721086 -0.0472543 0)
(-0.0661073 -0.0493747 0)
(-0.0598177 -0.0507869 0)
(-0.0533239 -0.051431 0)
(-0.0467196 -0.0512555 0)
(-0.0401071 -0.0502191 0)
(-0.0335972 -0.0482942 0)
(-0.0273074 -0.0454686 0)
(-0.0213605 -0.0417493 0)
(-0.0158836 -0.037164 0)
(-0.0110063 -0.0317635 0)
(-0.00685516 -0.0256236 0)
(-0.00354654 -0.0188449 0)
(-0.00123196 -0.0115528 0)
(-0.000173679 -0.00390376 0)
(-0.000192388 0.00467004 0)
(-0.00134209 0.0135933 0)
(-0.00383304 0.0219183 0)
(-0.00736529 0.0295107 0)
(-0.0117645 0.036271 0)
(-0.0169 0.0421256 0)
(-0.0226345 0.0470262 0)
(-0.0288321 0.0509481 0)
(-0.0353635 0.0538875 0)
(-0.0421065 0.0558583 0)
(-0.0489467 0.0568896 0)
(-0.0557785 0.0570225 0)
(-0.0625052 0.0563074 0)
(-0.0690391 0.0548011 0)
(-0.0753014 0.0525652 0)
(-0.0812223 0.0496636 0)
(-0.0867401 0.0461613 0)
(-0.0918007 0.0421229 0)
(-0.0963574 0.0376122 0)
(-0.10037 0.0326913 0)
(-0.103804 0.0274204 0)
(-0.106631 0.0218584 0)
(-0.108827 0.0160626 0)
(-0.110373 0.0100895 0)
(-0.111254 0.00399548 0)
(-0.111458 -0.00216274 0)
(-0.110981 -0.00832718 0)
(-0.10982 -0.014438 0)
(-0.107979 -0.0204327 0)
(-0.105465 -0.026246 0)
(-0.102294 -0.0318091 0)
(-0.0984874 -0.0370498 0)
(-0.0940733 -0.041893 0)
(-0.0890891 -0.0462607 0)
(-0.083581 -0.0500734 0)
(-0.077605 -0.053251 0)
(-0.0712277 -0.0557146 0)
(-0.0645263 -0.0573888 0)
(-0.0575894 -0.0582037 0)
(-0.0505163 -0.0580975 0)
(-0.0434169 -0.0570201 0)
(-0.0364106 -0.0549352 0)
(-0.0296256 -0.0518241 0)
(-0.0231968 -0.0476883 0)
(-0.0172644 -0.0425521 0)
(-0.0119721 -0.0364651 0)
(-0.00746124 -0.0295039 0)
(-0.00386168 -0.0217725 0)
(-0.0013416 -0.0134015 0)
(-0.000189064 -0.00455535 0)
(-0.00020809 0.00537915 0)
(-0.00145105 0.0155828 0)
(-0.00414246 0.0250426 0)
(-0.00795544 0.033621 0)
(-0.0126986 0.0412178 0)
(-0.0182277 0.0477614 0)
(-0.024392 0.0532074 0)
(-0.0310426 0.0575366 0)
(-0.0380384 0.0607522 0)
(-0.0452473 0.0628766 0)
(-0.0525463 0.0639476 0)
(-0.0598226 0.0640158 0)
(-0.0669739 0.0631413 0)
(-0.0739083 0.0613907 0)
(-0.080544 0.0588348 0)
(-0.0868091 0.0555464 0)
(-0.0926407 0.0515991 0)
(-0.0979844 0.0470651 0)
(-0.102793 0.0420151 0)
(-0.107028 0.0365178 0)
(-0.110654 0.0306391 0)
(-0.113642 0.024443 0)
(-0.115971 0.0179915 0)
(-0.117619 0.0113457 0)
(-0.118573 0.00456584 0)
(-0.118821 -0.00228697 0)
(-0.118355 -0.00915051 0)
(-0.117173 -0.0159603 0)
(-0.115276 -0.022649 0)
(-0.112671 -0.0291454 0)
(-0.109371 -0.0353746 0)
(-0.105395 -0.0412571 0)
(-0.10077 -0.0467097 0)
(-0.0955315 -0.0516455 0)
(-0.0897257 -0.055975 0)
(-0.0834085 -0.0596078 0)
(-0.0766477 -0.0624536 0)
(-0.0695233 -0.0644253 0)
(-0.0621276 -0.0654413 0)
(-0.0545659 -0.0654283 0)
(-0.0469556 -0.0643252 0)
(-0.0394258 -0.0620858 0)
(-0.0321159 -0.0586828 0)
(-0.0251739 -0.0541109 0)
(-0.0187543 -0.04839 0)
(-0.0130168 -0.0415676 0)
(-0.00811832 -0.0337209 0)
(-0.00420425 -0.0249575 0)
(-0.00146122 -0.0154139 0)
(-0.000205989 -0.00526482 0)
(-0.000225146 0.0061457 0)
(-0.00156852 0.0177321 0)
(-0.00447491 0.0284151 0)
(-0.00858784 0.0380527 0)
(-0.0136971 0.0465442 0)
(-0.0196437 0.0538204 0)
(-0.0262619 0.0598413 0)
(-0.0333889 0.0645948 0)
(-0.0408712 0.0680925 0)
(-0.0485657 0.0703664 0)
(-0.0563405 0.0714651 0)
(-0.0640754 0.0714503 0)
(-0.0716624 0.0703931 0)
(-0.0790056 0.0683713 0)
(-0.0860203 0.0654661 0)
(-0.0926332 0.0617604 0)
(-0.0987805 0.0573367 0)
(-0.104408 0.0522757 0)
(-0.109469 0.0466557 0)
(-0.113925 0.0405515 0)
(-0.117742 0.0340352 0)
(-0.120894 0.0271757 0)
(-0.123356 0.0200396 0)
(-0.125111 0.0126919 0)
(-0.126142 0.00519688 0)
(-0.126438 -0.00238077 0)
(-0.125992 -0.00997488 0)
(-0.124797 -0.0175168 0)
(-0.122854 -0.0249343 0)
(-0.120168 -0.032151 0)
(-0.116748 -0.0390854 0)
(-0.112612 -0.0456511 0)
(-0.107784 -0.0517563 0)
(-0.102297 -0.0573048 0)
(-0.0961969 -0.0621964 0)
(-0.0895381 -0.066329 0)
(-0.0823891 -0.0696001 0)
(-0.0748322 -0.0719092 0)
(-0.0669635 -0.0731613 0)
(-0.058894 -0.0732698 0)
(-0.0507489 -0.0721605 0)
(-0.0426674 -0.0697753 0)
(-0.0348009 -0.0660765 0)
(-0.0273114 -0.0610503 0)
(-0.0203697 -0.0547107 0)
(-0.0141525 -0.0471022 0)
(-0.00883477 -0.0383022 0)
(-0.00457894 -0.0284219 0)
(-0.00159261 -0.0176051 0)
(-0.000224746 -0.00603775 0)
(-0.000243766 0.00697442 0)
(-0.00169579 0.0200537 0)
(-0.00483371 0.0320538 0)
(-0.00926832 0.0428279 0)
(-0.0147685 0.0522747 0)
(-0.0211588 0.0603277 0)
(-0.0282571 0.0669529 0)
(-0.0358854 0.0721461 0)
(-0.0438766 0.0759293 0)
(-0.0520763 0.078346 0)
(-0.0603429 0.0794574 0)
(-0.0685488 0.0793379 0)
(-0.0765804 0.0780716 0)
(-0.0843379 0.0757487 0)
(-0.0917342 0.0724625 0)
(-0.0986949 0.0683067 0)
(-0.105156 0.0633739 0)
(-0.111064 0.0577537 0)
(-0.116374 0.0515322 0)
(-0.121048 0.0447911 0)
(-0.125054 0.037608 0)
(-0.128366 0.030057 0)
(-0.130962 0.0222086 0)
(-0.132824 0.0141316 0)
(-0.133937 0.00589368 0)
(-0.134288 -0.00243729 0)
(-0.133868 -0.0107918 0)
(-0.132671 -0.0190975 0)
(-0.130694 -0.0272778 0)
(-0.127939 -0.0352513 0)
(-0.124413 -0.0429305 0)
(-0.12013 -0.0502216 0)
(-0.115111 -0.0570243 0)
(-0.109386 -0.0632323 0)
(-0.102999 -0.0687344 0)
(-0.0960018 -0.0734157 0)
(-0.0884641 -0.0771596 0)
(-0.0804689 -0.0798511 0)
(-0.0721159 -0.0813797 0)
(-0.0635213 -0.0816432 0)
(-0.0548185 -0.0805522 0)
(-0.0461568 -0.0780343 0)
(-0.0377007 -0.0740391 0)
(-0.0296277 -0.0685425 0)
(-0.0221259 -0.0615506 0)
(-0.0153912 -0.0531038 0)
(-0.00961873 -0.0432791 0)
(-0.00499038 -0.0321913 0)
(-0.00173754 -0.0199921 0)
(-0.000245629 -0.00688066 0)
(-0.000264157 0.00787068 0)
(-0.00183409 0.0225613 0)
(-0.00522204 0.035979 0)
(-0.0100024 0.047971 0)
(-0.0159206 0.0584359 0)
(-0.0227827 0.0673106 0)
(-0.0303888 0.0745683 0)
(-0.0385438 0.0802146 0)
(-0.0470664 0.0842837 0)
(-0.0557896 0.0868329 0)
(-0.0645621 0.0879378 0)
(-0.0732486 0.087688 0)
(-0.0817301 0.0861823 0)
(-0.0899031 0.0835252 0)
(-0.0976789 0.0798232 0)
(-0.104983 0.0751823 0)
(-0.111751 0.0697061 0)
(-0.117932 0.0634936 0)
(-0.123482 0.0566392 0)
(-0.128365 0.0492314 0)
(-0.132553 0.0413536 0)
(-0.136021 0.0330843 0)
(-0.138748 0.0244981 0)
(-0.140717 0.0156668 0)
(-0.141914 0.00666084 0)
(-0.142326 -0.00244941 0)
(-0.141942 -0.0115917 0)
(-0.140753 -0.0206907 0)
(-0.138756 -0.0296661 0)
(-0.135948 -0.0384318 0)
(-0.132334 -0.0468947 0)
(-0.127921 -0.0549537 0)
(-0.122728 -0.0624999 0)
(-0.116782 -0.0694168 0)
(-0.11012 -0.0755809 0)
(-0.102795 -0.0808636 0)
(-0.0948737 -0.0851331 0)
(-0.0864397 -0.0882576 0)
(-0.0775954 -0.0901092 0)
(-0.0684621 -0.0905676 0)
(-0.0591809 -0.0895254 0)
(-0.0499119 -0.0868935 0)
(-0.0408334 -0.082606 0)
(-0.0321393 -0.0766257 0)
(-0.0240371 -0.0689491 0)
(-0.0167442 -0.0596107 0)
(-0.0104781 -0.0486863 0)
(-0.0054431 -0.036294 0)
(-0.00189776 -0.0225943 0)
(-0.000268933 -0.00780097 0)
(-0.000286525 0.0088405 0)
(-0.00198463 0.0252704 0)
(-0.00564296 0.0402128 0)
(-0.0107952 0.0535086 0)
(-0.0171606 0.0650564 0)
(-0.0245244 0.0747978 0)
(-0.0326666 0.0827143 0)
(-0.0413738 0.0888241 0)
(-0.0504488 0.0931754 0)
(-0.0597117 0.095842 0)
(-0.0690008 0.0969166 0)
(-0.0781731 0.096506 0)
(-0.0871045 0.0947262 0)
(-0.0956885 0.0916976 0)
(-0.103836 0.087542 0)
(-0.111471 0.0823787 0)
(-0.118533 0.076323 0)
(-0.124972 0.0694845 0)
(-0.130748 0.0619658 0)
(-0.135828 0.0538626 0)
(-0.140185 0.0452637 0)
(-0.143799 0.036252 0)
(-0.146651 0.0269053 0)
(-0.148725 0.0172979 0)
(-0.150007 0.00750204 0)
(-0.150484 -0.00240993 0)
(-0.150144 -0.012364 0)
(-0.148978 -0.0222826 0)
(-0.146977 -0.0320826 0)
(-0.144137 -0.0416739 0)
(-0.140455 -0.0509579 0)
(-0.135936 -0.059827 0)
(-0.130594 -0.0681635 0)
(-0.124448 -0.0758402 0)
(-0.117534 -0.0827209 0)
(-0.109898 -0.088662 0)
(-0.101605 -0.0935151 0)
(-0.0927392 -0.0971296 0)
(-0.083403 -0.0993576 0)
(-0.0737228 -0.100058 0)
(-0.0638467 -0.0991028 0)
(-0.0539461 -0.0963824 0)
(-0.0442134 -0.0918123 0)
(-0.0348607 -0.0853394 0)
(-0.0261165 -0.0769479 0)
(-0.018222 -0.0666644 0)
(-0.0114205 -0.0545618 0)
(-0.00594154 -0.0407618 0)
(-0.00207503 -0.0254335 0)
(-0.00029496 -0.008807 0)
(-0.000311081 0.0098905 0)
(-0.00214861 0.028198 0)
(-0.0060995 0.0447795 0)
(-0.011652 0.0594693 0)
(-0.0184953 0.0721665 0)
(-0.0263917 0.0828186 0)
(-0.0350984 0.091418 0)
(-0.0443821 0.0979972 0)
(-0.0540283 0.102622 0)
(-0.0638433 0.105385 0)
(-0.0736546 0.106399 0)
(-0.083312 0.105792 0)
(-0.0926865 0.103698 0)
(-0.10167 0.100256 0)
(-0.110171 0.0956054 0)
(-0.118119 0.0898797 0)
(-0.125453 0.0832073 0)
(-0.132128 0.0757085 0)
(-0.138108 0.0674948 0)
(-0.143363 0.058669 0)
(-0.147873 0.0493252 0)
(-0.151618 0.0395499 0)
(-0.154583 0.0294237 0)
(-0.156755 0.0190225 0)
(-0.158121 0.00841966 0)
(-0.158668 -0.0023118 0)
(-0.158382 -0.0130971 0)
(-0.157253 -0.0238573 0)
(-0.155268 -0.0345074 0)
(-0.152419 -0.0449543 0)
(-0.148698 -0.0550947 0)
(-0.144104 -0.0648146 0)
(-0.138643 -0.073988 0)
(-0.13233 -0.0824767 0)
(-0.125192 -0.0901311 0)
(-0.117273 -0.0967919 0)
(-0.108631 -0.102292 0)
(-0.0993483 -0.10646 0)
(-0.0895285 -0.109126 0)
(-0.0793004 -0.110124 0)
(-0.0688194 -0.109303 0)
(-0.0582673 -0.106527 0)
(-0.0478518 -0.101692 0)
(-0.037804 -0.0947234 0)
(-0.0283756 -0.0855903 0)
(-0.0198347 -0.0743085 0)
(-0.0124532 -0.0609467 0)
(-0.00649012 -0.0456288 0)
(-0.0022711 -0.0285333 0)
(-0.000324022 -0.00990802 0)
(-0.000338048 0.011028 0)
(-0.00232727 0.0313625 0)
(-0.00659469 0.0497053 0)
(-0.0125774 0.0658836 0)
(-0.019931 0.0797978 0)
(-0.0283913 0.0914031 0)
(-0.0376903 0.100705 0)
(-0.0475725 0.107754 0)
(-0.0578049 0.112637 0)
(-0.068179 0.115469 0)
(-0.0785118 0.116385 0)
(-0.0886455 0.115538 0)
(-0.0984475 0.113084 0)
(-0.107808 0.109183 0)
(-0.116638 0.103991 0)
(-0.124868 0.0976604 0)
(-0.132443 0.0903324 0)
(-0.139322 0.0821391 0)
(-0.145474 0.0732009 0)
(-0.150876 0.0636276 0)
(-0.155512 0.0535182 0)
(-0.159367 0.0429625 0)
(-0.16243 0.0320427 0)
(-0.164689 0.0208355 0)
(-0.166135 0.00941426 0)
(-0.166754 -0.00214848 0)
(-0.166532 -0.0137783 0)