/*--------------------------------*- C++ -*----------------------------------*\
  =========                 |
  \\      /  F ield         | OpenFOAM: The Open Source CFD Toolbox
   \\    /   O peration     | Website:  https://openfoam.org
    \\  /    A nd           | Version:  7
     \\/     M anipulation  |
\*---------------------------------------------------------------------------*/
FoamFile
{
    version     2.0;
    format      ascii;
    class       volScalarField;
    location    "0.0142";
    object      p;
}
// * * * * * * * * * * * * * * * * * * * * * * * * * * * * * * * * * * * * * //

dimensions      [0 2 -2 0 0 0 0];

internalField   nonuniform List<scalar> 
2500
(
2.93203e-07
6.38366
9.04475
10.1356
10.7233
11.0687
11.2799
11.419
11.5176
11.5916
11.65
11.6982
11.7395
11.7764
11.8101
11.8418
11.8722
11.9017
11.9307
11.9594
11.9879
12.0165
12.0452
12.074
12.1029
12.1322
12.1617
12.1917
12.2221
12.2533
12.2852
12.3183
12.3527
12.389
12.4277
12.4695
12.5154
12.5667
12.6254
12.6941
12.7764
12.8784
13.0095
13.1861
13.4406
13.837
14.4922
15.6784
18.4556
24.9626
4.86911
7.46755
8.88239
9.76231
10.3624
10.766
11.0392
11.2306
11.37
11.4752
11.5574
11.624
11.6798
11.728
11.7708
11.8098
11.8461
11.8805
11.9135
11.9456
11.977
12.008
12.0388
12.0695
12.1002
12.1312
12.1625
12.1943
12.2267
12.2601
12.2946
12.3307
12.3687
12.4094
12.4534
12.5017
12.5559
12.6176
12.6895
12.7751
12.8796
13.0108
13.1804
13.4069
13.7211
14.1733
14.8335
15.7866
17.2873
20.0023
7.70827
8.47003
9.21043
9.8308
10.3144
10.6743
10.9398
11.1379
11.2885
11.4054
11.4985
11.5747
11.6386
11.6937
11.7423
11.7861
11.8265
11.8643
11.9002
11.9347
11.9682
12.0011
12.0335
12.0657
12.0979
12.1301
12.1628
12.1959
12.2298
12.2648
12.3011
12.3392
12.3797
12.4232
12.4707
12.5232
12.5822
12.6499
12.7288
12.8227
12.9368
13.0782
13.2571
13.4881
13.7916
14.1954
14.7295
15.4047
16.1998
17.0252
9.1219
9.29635
9.67282
10.0712
10.4179
10.7017
10.9288
11.1092
11.2531
11.3692
11.4642
11.5435
11.611
11.6696
11.7215
11.7684
11.8114
11.8516
11.8896
11.9259
11.9611
11.9954
12.0291
12.0624
12.0957
12.129
12.1627
12.1969
12.2319
12.268
12.3056
12.3452
12.3873
12.4326
12.4821
12.5368
12.5984
12.6687
12.7502
12.8462
12.9609
13.1
13.2705
13.4814
13.7428
14.0648
14.4526
14.8919
15.304
15.5081
9.93861
9.91471
10.0878
10.3289
10.5659
10.7789
10.9626
11.1175
11.2471
11.3557
11.4474
11.5258
11.5937
11.6534
11.7069
11.7554
11.8
11.8418
11.8812
11.9189
11.9552
11.9906
12.0254
12.0597
12.0938
12.128
12.1625
12.1975
12.2333
12.2703
12.3088
12.3494
12.3925
12.4389
12.4894
12.5453
12.6077
12.6784
12.7596
12.8537
12.9641
13.0945
13.249
13.4319
13.6464
13.8921
14.1619
14.4328
14.6284
14.6157
10.454
10.3647
10.4306
10.57
10.7269
10.8816
11.0247
11.1524
11.2643
11.3617
11.4466
11.521
11.5868
11.6456
11.6989
11.7477
11.793
11.8354
11.8756
11.914
11.9512
11.9873
12.0227
12.0577
12.0924
12.1272
12.1623
12.1979
12.2343
12.2718
12.3109
12.352
12.3956
12.4423
12.4931
12.5488
12.6107
12.6801
12.7586
12.8482
12.9509
13.069
13.2042
13.3576
13.5281
13.7103
13.8931
14.054
14.1331
14.0443
10.7981
10.6956
10.708
10.7844
10.8852
10.9944
11.1027
11.2048
11.2984
11.383
11.459
11.5275
11.5894
11.6458
11.6976
11.7455
11.7904
11.8327
11.873
11.9117
11.9491
11.9856
12.0213
12.0567
12.0918
12.127
12.1624
12.1983
12.235
12.2728
12.3121
12.3532
12.3968
12.4433
12.4936
12.5483
12.6085
12.6751
12.7495
12.8327
12.926
13.0302
13.1455
13.271
13.4033
13.5355
13.6564
13.748
13.7674
13.6601
11.042
10.9447
10.9311
10.9691
11.0315
11.1067
11.1869
11.2668
11.3433
11.415
11.4816
11.5432
11.6001
11.6529
11.7021
11.7483
11.792
11.8336
11.8734
11.9118
11.9491
11.9855
12.0214
12.0568
12.092
12.1273
12.1628
12.1988
12.2356
12.2734
12.3125
12.3534
12.3966
12.4424
12.4915
12.5445
12.6022
12.6652
12.7344
12.8104
12.8935
12.9838
13.0805
13.1813
13.2823
13.3765
13.4544
13.5029
13.4921
13.3875
11.2244
11.1367
11.1109
11.1257
11.1623
11.2129
11.2712
11.3327
11.3941
11.454
11.5112
11.5656
11.617
11.6656
11.7117
11.7555
11.7975
11.8377
11.8766
11.9143
11.9511
11.9872
12.0227
12.058
12.0931
12.1282
12.1637
12.1995
12.2361
12.2737
12.3125
12.3529
12.3952
12.4399
12.4874
12.5383
12.5929
12.6519
12.7154
12.7838
12.857
12.9342
13.0141
13.0941
13.1702
13.2362
13.2846
13.3063
13.2807
13.1849
11.366
11.2882
11.2571
11.2579
11.2775
11.3103
11.352
11.3986
11.4474
11.4966
11.5453
11.5926
11.6384
11.6826
11.7252
11.7663
11.8061
11.8446
11.8822
11.9189
11.9549
11.9903
12.0254
12.0602
12.095
12.1298
12.165
12.2005
12.2368
12.2738
12.3121
12.3517
12.393
12.4363
12.482
12.5303
12.5816
12.6362
12.694
12.755
12.8187
12.8841
12.9496
13.0124
13.069
13.1143
13.1426
13.1477
13.1153
13.0291
11.479
11.4098
11.3771
11.3696
11.3778
11.3981
11.4273
11.4621
11.5005
11.5406
11.5815
11.6224
11.6629
11.7027
11.7417
11.7798
11.8172
11.8538
11.8898
11.9252
11.9602
11.9948
12.0292
12.0634
12.0977
12.132
12.1667
12.2018
12.2375
12.2739
12.3114
12.35
12.3901
12.4318
12.4754
12.5211
12.569
12.6191
12.6714
12.7254
12.7805
12.8355
12.8887
12.9377
12.9792
13.0093
13.0239
13.0189
12.9838
12.9065
11.5709
11.509
11.4764
11.4641
11.4648
11.4763
11.4961
11.5218
11.5517
11.5842
11.6184
11.6535
11.689
11.7246
11.7601
11.7953
11.8301
11.8647
11.899
11.933
11.9667
12.0003
12.0338
12.0673
12.1009
12.1347
12.1688
12.2032
12.2383
12.274
12.3105
12.3481
12.3868
12.4268
12.4682
12.5111
12.5556
12.6014
12.6484
12.696
12.7434
12.7894
12.8324
12.8703
12.9003
12.9194
12.9246
12.9134
12.8779
12.8086
11.6465
11.5908
11.5591
11.5441
11.54
11.5452
11.5581
11.5768
11.5999
11.6262
11.6547
11.6847
11.7157
11.7474
11.7795
11.8118
11.8442
11.8767
11.9092
11.9417
11.9741
12.0066
12.0392
12.0718
12.1047
12.1377
12.1711
12.2048
12.2391
12.2739
12.3095
12.3458
12.3831
12.4213
12.4605
12.5008
12.5419
12.5837
12.6257
12.6675
12.7082
12.7466
12.7812
12.8102
12.8315
12.8426
12.8415
12.8267
12.7919
12.7295
11.7092
11.6588
11.6285
11.6121
11.6048
11.6056
11.6134
11.6268
11.6445
11.6656
11.6893
11.7149
11.742
11.7702
11.7992
11.8288
11.8589
11.8893
11.92
11.951
11.9821
12.0134
12.045
12.0767
12.1087
12.1409
12.1735
12.2065
12.2399
12.2738
12.3083
12.3434
12.3792
12.4156
12.4527
12.4903
12.5282
12.5662
12.6039
12.6405
12.6754
12.7074
12.7351
12.7572
12.7718
12.7771
12.7718
12.755
12.7216
12.6652
11.7614
11.7156
11.6868
11.6698
11.6605
11.6583
11.6624
11.6716
11.6851
11.702
11.7217
11.7436
11.7673
11.7923
11.8185
11.8457
11.8735
11.902
11.931
11.9605
11.9903
12.0204
12.0509
12.0817
12.1128
12.1443
12.176
12.2082
12.2407
12.2737
12.3071
12.3409
12.3752
12.4098
12.4448
12.4799
12.5149
12.5495
12.5832
12.6154
12.6452
12.6719
12.6941
12.7107
12.7202
12.7214
12.7134
12.6955
12.6639
12.6128
11.8051
11.7631
11.7359
11.7188
11.7083
11.7039
11.7053
11.7114
11.7215
11.7351
11.7515
11.7703
11.791
11.8133
11.8371
11.8619
11.8878
11.9145
11.9419
11.9699
11.9984
12.0274
12.0569
12.0867
12.1169
12.1475
12.1785
12.2098
12.2414
12.2734
12.3057
12.3383
12.3711
12.4041
12.437
12.4698
12.5022
12.5337
12.5639
12.5922
12.6179
12.6401
12.6579
12.6702
12.676
12.6742
12.6644
12.6462
12.6164
12.5699
11.8415
11.8028
11.7771
11.7602
11.749
11.7432
11.7425
11.7463
11.7538
11.7647
11.7784
11.7946
11.8128
11.8328
11.8544
11.8772
11.9013
11.9263
11.9522
11.9789
12.0062
12.0341
12.0626
12.0915
12.1209
12.1506
12.1807
12.2112
12.242
12.273
12.3042
12.3356
12.3671
12.3985
12.4296
12.4603
12.4902
12.519
12.5462
12.5712
12.5934
12.612
12.6262
12.6352
12.6382
12.6344
12.6234
12.6054
12.5773
12.5349
11.8717
11.8359
11.8116
11.7951
11.7835
11.7767
11.7746
11.7765
11.7821
11.7908
11.8023
11.8163
11.8325
11.8505
11.8702
11.8913
11.9137
11.9373
11.9619
11.9873
12.0135
12.0404
12.0679
12.096
12.1245
12.1535
12.1828
12.2125
12.2424
12.2725
12.3028
12.333
12.3632
12.3931
12.4226
12.4515
12.4793
12.5057
12.5303
12.5525
12.5718
12.5875
12.5989
12.6054
12.6062
12.601
12.5894
12.5717
12.5453
12.5063
11.8967
11.8633
11.8403
11.8241
11.8124
11.805
11.8018
11.8024
11.8064
11.8134
11.8232
11.8354
11.8498
11.8662
11.8843
11.9039
11.9249
11.9472
11.9706
11.995
12.0202
12.0462
12.0728
12.1001
12.1279
12.1561
12.1847
12.2136
12.2427
12.272
12.3013
12.3306
12.3596
12.3882
12.4162
12.4434
12.4694
12.4938
12.5162
12.5362
12.5531
12.5664
12.5756
12.5801
12.5794
12.5732
12.5613
12.5441
12.5192
12.4832
11.917
11.8856
11.8637
11.848
11.8362
11.8284
11.8245
11.8241
11.8269
11.8326
11.841
11.8518
11.8647
11.8797
11.8965
11.9149
11.9348
11.9559
11.9783
12.0017
12.026
12.0512
12.0771
12.1037
12.1308
12.1583
12.1863
12.2145
12.2429
12.2714
12.2999
12.3283
12.3563
12.3838
12.4105
12.4363
12.4607
12.4834
12.5041
12.5221
12.5372
12.5486
12.5561
12.5591
12.5573
12.5504
12.5385
12.5217
12.4982
12.4647
11.9332
11.9035
11.8825
11.8672
11.8555
11.8475
11.843
11.8418
11.8437
11.8484
11.8557
11.8653
11.8772
11.8911
11.9068
11.9242
11.943
11.9633
11.9848
12.0074
12.031
12.0555
12.0808
12.1067
12.1332
12.1602
12.1876
12.2152
12.243
12.2709
12.2987
12.3262
12.3534
12.3799
12.4056
12.4302
12.4534
12.4747
12.4939
12.5105
12.524
12.534
12.5402
12.5421
12.5395
12.5322
12.5202
12.504
12.4816
12.4502
11.9457
11.9173
11.8971
11.8822
11.8705
11.8623
11.8575
11.8558
11.857
11.8609
11.8674
11.8762
11.8872
11.9002
11.9151
11.9316
11.9498
11.9693
11.9901
12.0121
12.0351
12.059
12.0838
12.1092
12.1352
12.1617
12.1886
12.2158
12.2431
12.2704
12.2976
12.3245
12.351
12.3768
12.4016
12.4253
12.4474
12.4677
12.4857
12.5011
12.5135
12.5225
12.5277
12.5288
12.5257
12.5181
12.5062
12.4903
12.4689
12.4391
11.9549
11.9274
11.9078
11.8931
11.8816
11.8733
11.8682
11.8661
11.8668
11.8702
11.8761
11.8843
11.8947
11.9071
11.9213
11.9373
11.9548
11.9738
11.9941
12.0156
12.0382
12.0617
12.086
12.1111
12.1367
12.1629
12.1894
12.2162
12.2431
12.27
12.2968
12.3232
12.3491
12.3743
12.3985
12.4215
12.4429
12.4624
12.4796
12.4942
12.5057
12.5139
12.5185
12.519
12.5155
12.5077
12.4959
12.4804
12.4597
12.4311
11.9609
11.934
11.9148
11.9003
11.8888
11.8805
11.8752
11.8729
11.8734
11.8764
11.8819
11.8897
11.8997
11.9116
11.9255
11.941
11.9582
11.9768
11.9968
12.018
12.0403
12.0635
12.0875
12.1123
12.1377
12.1636
12.1899
12.2164
12.2431
12.2697
12.2962
12.3223
12.3479
12.3727
12.3964
12.4189
12.4398
12.4588
12.4755
12.4895
12.5006
12.5083
12.5123
12.5126
12.5088
12.5009
12.4892
12.474
12.4537
12.4259
11.9638
11.9373
11.9182
11.9038
11.8924
11.8841
11.8787
11.8763
11.8766
11.8795
11.8848
11.8924
11.9022
11.9139
11.9276
11.9429
11.9599
11.9784
11.9982
12.0192
12.0413
12.0644
12.0883
12.113
12.1382
12.164
12.1902
12.2166
12.2431
12.2696
12.2959
12.3218
12.3472
12.3718
12.3954
12.4177
12.4383
12.457
12.4734
12.4872
12.498
12.5054
12.5093
12.5094
12.5055
12.4976
12.4859
12.4708
12.4508
12.4233
11.9638
11.9373
11.9182
11.9038
11.8924
11.8841
11.8787
11.8763
11.8766
11.8795
11.8848
11.8924
11.9022
11.9139
11.9276
11.9429
11.9599
11.9784
11.9982
12.0192
12.0413
12.0644
12.0883
12.113
12.1382
12.164
12.1902
12.2166
12.2431
12.2696
12.2959
12.3218
12.3472
12.3718
12.3954
12.4177
12.4383
12.457
12.4734
12.4872
12.498
12.5054
12.5093
12.5094
12.5055
12.4976
12.4859
12.4708
12.4508
12.4233
11.9608
11.934
11.9148
11.9003
11.8888
11.8805
11.8752
11.8729
11.8734
11.8764
11.8819
11.8897
11.8997
11.9116
11.9255
11.941
11.9582
11.9768
11.9968
12.018
12.0402
12.0635
12.0875
12.1123
12.1377
12.1636
12.1899
12.2164
12.2431
12.2697
12.2962
12.3223
12.3479
12.3727
12.3964
12.4189
12.4398
12.4588
12.4755
12.4895
12.5006
12.5083
12.5123
12.5126
12.5088
12.5009
12.4892
12.474
12.4537
12.4259
11.9549
11.9274
11.9078
11.8931
11.8816
11.8733
11.8682
11.8661
11.8668
11.8702
11.8761
11.8843
11.8947
11.9071
11.9213
11.9373
11.9548
11.9738
11.9941
12.0156
12.0382
12.0617
12.086
12.1111
12.1367
12.1629
12.1894
12.2162
12.2431
12.27
12.2968
12.3232
12.3491
12.3743
12.3985
12.4215
12.4429
12.4624
12.4796
12.4942
12.5057
12.5139
12.5185
12.519
12.5155
12.5077
12.4959
12.4804
12.4597
12.4311
11.9457
11.9173
11.8971
11.8821
11.8705
11.8623
11.8575
11.8557
11.857
11.8609
11.8674
11.8762
11.8872
11.9002
11.9151
11.9316
11.9497
11.9693
11.9901
12.0121
12.0351
12.059
12.0838
12.1092
12.1352
12.1617
12.1886
12.2158
12.2431
12.2704
12.2976
12.3245
12.351
12.3768
12.4016
12.4253
12.4474
12.4677
12.4857
12.5011
12.5135
12.5225
12.5277
12.5288
12.5257
12.5181
12.5062
12.4903
12.4689
12.4391
11.9332
11.9035
11.8825
11.8672
11.8555
11.8474
11.843
11.8418
11.8437
11.8484
11.8557
11.8653
11.8772
11.8911
11.9068
11.9242
11.943
11.9633
11.9848
12.0074
12.031
12.0555
12.0808
12.1067
12.1332
12.1602
12.1876
12.2152
12.243
12.2709
12.2987
12.3262
12.3534
12.3799
12.4056
12.4302
12.4534
12.4747
12.4939
12.5105
12.524
12.534
12.5402
12.5421
12.5395
12.5322
12.5202
12.504
12.4816
12.4502
11.917
11.8856
11.8637
11.848
11.8362
11.8284
11.8245
11.8241
11.8268
11.8326
11.8409
11.8517
11.8647
11.8797
11.8965
11.9149
11.9347
11.9559
11.9783
12.0017
12.026
12.0512
12.0771
12.1037
12.1308
12.1583
12.1863
12.2145
12.2429
12.2714
12.2999
12.3283
12.3563
12.3838
12.4105
12.4363
12.4607
12.4834
12.5041
12.5221
12.5372
12.5486
12.5561
12.5591
12.5573
12.5504
12.5385
12.5217
12.4982
12.4647
11.8967
11.8632
11.8403
11.8241
11.8124
11.805
11.8018
11.8024
11.8064
11.8134
11.8232
11.8354
11.8498
11.8661
11.8842
11.9039
11.9249
11.9472
11.9706
11.9949
12.0202
12.0462
12.0728
12.1001
12.1279
12.1561
12.1847
12.2136
12.2427
12.272
12.3013
12.3305
12.3596
12.3882
12.4162
12.4434
12.4694
12.4938
12.5162
12.5362
12.5531
12.5664
12.5756
12.5801
12.5794
12.5732
12.5613
12.5441
12.5192
12.4832
11.8717
11.8359
11.8116
11.795
11.7834
11.7767
11.7746
11.7765
11.7821
11.7908
11.8023
11.8163
11.8324
11.8505
11.8702
11.8913
11.9137
11.9373
11.9619
11.9873
12.0135
12.0404
12.0679
12.096
12.1245
12.1535
12.1828
12.2125
12.2424
12.2725
12.3028
12.333
12.3632
12.3931
12.4226
12.4514
12.4793
12.5057
12.5303
12.5525
12.5718
12.5875
12.5989
12.6054
12.6062
12.601
12.5894
12.5717
12.5453
12.5063
11.8415
11.8028
11.7771
11.7602
11.749
11.7432
11.7425
11.7462
11.7538
11.7647
11.7784
11.7946
11.8128
11.8328
11.8544
11.8772
11.9013
11.9263
11.9522
11.9789
12.0062
12.0341
12.0626
12.0915
12.1209
12.1506
12.1807
12.2112
12.242
12.273
12.3042
12.3356
12.3671
12.3985
12.4296
12.4603
12.4902
12.519
12.5462
12.5712
12.5934
12.612
12.6262
12.6352
12.6382
12.6344
12.6234
12.6054
12.5773
12.5349
11.8051
11.763
11.7359
11.7188
11.7082
11.7039
11.7052
11.7114
11.7215
11.7351
11.7515
11.7702
11.791
11.8133
11.837
11.8619
11.8878
11.9145
11.9418
11.9698
11.9984
12.0274
12.0568
12.0867
12.1169
12.1475
12.1785
12.2097
12.2414
12.2734
12.3057
12.3383
12.3711
12.4041
12.437
12.4698
12.5022
12.5337
12.5639
12.5922
12.6179
12.6401
12.6579
12.6702
12.676
12.6742
12.6644
12.6462
12.6164
12.5699
11.7614
11.7155
11.6868
11.6698
11.6605
11.6583
11.6623
11.6716
11.6851
11.702
11.7217
11.7436
11.7672
11.7923
11.8185
11.8457
11.8735
11.902
11.931
11.9605
11.9903
12.0204
12.0509
12.0817
12.1128
12.1442
12.176
12.2082
12.2407
12.2737
12.3071
12.3409
12.3752
12.4098
12.4448
12.4799
12.5149
12.5495
12.5832
12.6154
12.6452
12.6719
12.6941
12.7107
12.7202
12.7214
12.7134
12.6955
12.6639
12.6128
11.7092
11.6588
11.6285
11.6121
11.6048
11.6056
11.6134
11.6268
11.6445
11.6656
11.6893
11.7149
11.742
11.7702
11.7992
11.8288
11.8589
11.8893
11.92
11.9509
11.9821
12.0134
12.045
12.0767
12.1087
12.1409
12.1735
12.2065
12.2399
12.2738
12.3083
12.3434
12.3792
12.4156
12.4527
12.4903
12.5282
12.5662
12.6039
12.6405
12.6754
12.7074
12.7351
12.7572
12.7718
12.7771
12.7718
12.755
12.7216
12.6652
11.6464
11.5908
11.5591
11.5441
11.5399
11.5452
11.5581
11.5768
11.5999
11.6262
11.6546
11.6846
11.7157
11.7474
11.7795
11.8118
11.8442
11.8767
11.9092
11.9417
11.9741
12.0066
12.0392
12.0718
12.1047
12.1377
12.1711
12.2048
12.2391
12.2739
12.3095
12.3458
12.3831
12.4213
12.4605
12.5008
12.5419
12.5837
12.6257
12.6675
12.7082
12.7466
12.7812
12.8102
12.8315
12.8426
12.8415
12.8267
12.7919
12.7295
11.5708
11.509
11.4763
11.464
11.4648
11.4762
11.496
11.5218
11.5517
11.5842
11.6184
11.6535
11.689
11.7246
11.76
11.7952
11.8301
11.8647
11.899
11.9329
11.9667
12.0003
12.0338
12.0673
12.1009
12.1347
12.1688
12.2032
12.2383
12.274
12.3105
12.3481
12.3868
12.4268
12.4682
12.5111
12.5556
12.6014
12.6484
12.696
12.7434
12.7894
12.8324
12.8703
12.9003
12.9194
12.9246
12.9134
12.8779
12.8086
11.479
11.4098
11.377
11.3696
11.3778
11.3981
11.4272
11.4621
11.5004
11.5406
11.5815
11.6224
11.6629
11.7027
11.7417
11.7798
11.8172
11.8538
11.8898
11.9252
11.9602
11.9948
12.0291
12.0634
12.0976
12.132
12.1667
12.2018
12.2375
12.2739
12.3114
12.35
12.3901
12.4318
12.4754
12.5211
12.569
12.6191
12.6714
12.7254
12.7805
12.8355
12.8887
12.9377
12.9792
13.0093
13.0239
13.0189
12.9838
12.9065
11.366
11.2881
11.2571
11.2579
11.2774
11.3103
11.352
11.3986
11.4474
11.4966
11.5452
11.5926
11.6384
11.6826
11.7252
11.7663
11.8061
11.8446
11.8822
11.9189
11.9548
11.9903
12.0254
12.0602
12.095
12.1298
12.165
12.2005
12.2367
12.2738
12.3121
12.3517
12.393
12.4363
12.482
12.5303
12.5816
12.6362
12.694
12.755
12.8187
12.8841
12.9496
13.0124
13.069
13.1143
13.1426
13.1477
13.1153
13.0291
11.2243
11.1367
11.1109
11.1256
11.1623
11.2129
11.2712
11.3326
11.3941
11.4539
11.5112
11.5656
11.617
11.6656
11.7117
11.7555
11.7974
11.8377
11.8765
11.9143
11.9511
11.9871
12.0227
12.058
12.0931
12.1282
12.1637
12.1995
12.2361
12.2737
12.3125
12.3528
12.3952
12.4399
12.4874
12.5383
12.5929
12.6519
12.7154
12.7838
12.857
12.9342
13.0141
13.0941
13.1702
13.2362
13.2846
13.3063
13.2807
13.1849
11.042
10.9447
10.9311
10.969
11.0314
11.1067
11.1869
11.2668
11.3432
11.415
11.4816
11.5431
11.6001
11.6529
11.7021
11.7483
11.792
11.8336
11.8734
11.9118
11.9491
11.9855
12.0213
12.0568
12.092
12.1273
12.1628
12.1988
12.2356
12.2734
12.3125
12.3534
12.3966
12.4424
12.4915
12.5445
12.6022
12.6652
12.7344
12.8104
12.8935
12.9838
13.0805
13.1813
13.2823
13.3765
13.4544
13.5029
13.4921
13.3875
10.798
10.6956
10.708
10.7844
10.8851
10.9943
11.1027
11.2048
11.2983
11.3829
11.459
11.5275
11.5894
11.6458
11.6975
11.7455
11.7904
11.8327
11.873
11.9117
11.9491
11.9856
12.0213
12.0567
12.0918
12.127
12.1624
12.1983
12.235
12.2728
12.3121
12.3532
12.3968
12.4433
12.4936
12.5483
12.6085
12.6751
12.7495
12.8327
12.926
13.0302
13.1455
13.271
13.4033
13.5355
13.6564
13.748
13.7674
13.6601
10.454
10.3646
10.4305
10.57
10.7269
10.8815
11.0247
11.1523
11.2642
11.3616
11.4465
11.5209
11.5868
11.6456
11.6989
11.7477
11.7929
11.8354
11.8756
11.914
11.9512
11.9873
12.0227
12.0577
12.0924
12.1272
12.1623
12.1979
12.2343
12.2718
12.3109
12.352
12.3956
12.4423
12.4931
12.5488
12.6107
12.6801
12.7586
12.8482
12.9509
13.069
13.2042
13.3576
13.5281
13.7103
13.8931
14.054
14.1331
14.0443
9.93854
9.91464
10.0878
10.3288
10.5658
10.7788
10.9625
11.1174
11.247
11.3556
11.4474
11.5257
11.5937
11.6534
11.7068
11.7553
11.8
11.8417
11.8812
11.9189
11.9552
11.9906
12.0253
12.0597
12.0938
12.128
12.1624
12.1975
12.2333
12.2703
12.3088
12.3494
12.3925
12.4389
12.4894
12.5453
12.6077
12.6784
12.7596
12.8537
12.9641
13.0945
13.249
13.4319
13.6464
13.8921
14.1619
14.4328
14.6284
14.6157
9.12182
9.29628
9.67275
10.0711
10.4179
10.7017
10.9287
11.1092
11.2531
11.3691
11.4642
11.5435
11.6109
11.6695
11.7215
11.7683
11.8114
11.8516
11.8895
11.9259
11.9611
11.9953
12.029
12.0624
12.0957
12.129
12.1627
12.1969
12.2319
12.268
12.3056
12.3452
12.3873
12.4326
12.4821
12.5368
12.5984
12.6687
12.7502
12.8462
12.9609
13.1
13.2705
13.4814
13.7428
14.0648
14.4526
14.8919
15.304
15.5081
7.70818
8.46994
9.21035
9.83073
10.3143
10.6742
10.9398
11.1379
11.2884
11.4054
11.4985
11.5746
11.6386
11.6936
11.7422
11.7861
11.8265
11.8643
11.9002
11.9347
11.9682
12.0011
12.0335
12.0657
12.0978
12.1301
12.1628
12.1959
12.2298
12.2648
12.3011
12.3392
12.3797
12.4232
12.4707
12.5232
12.5822
12.6499
12.7288
12.8227
12.9368
13.0782
13.2571
13.4881
13.7916
14.1954
14.7295
15.4047
16.1998
17.0252
4.86901
7.46745
8.8823
9.76223
10.3624
10.766
11.0391
11.2306
11.3699
11.4751
11.5574
11.624
11.6798
11.728
11.7708
11.8098
11.8461
11.8805
11.9135
11.9455
11.977
12.008
12.0388
12.0695
12.1002
12.1312
12.1625
12.1943
12.2267
12.2601
12.2946
12.3307
12.3687
12.4094
12.4534
12.5017
12.5559
12.6176
12.6895
12.7751
12.8796
13.0108
13.1804
13.4069
13.7211
14.1733
14.8335
15.7866
17.2873
20.0023
-0.000116366
6.38356
9.04466
10.1355
10.7233
11.0686
11.2799
11.419
11.5175
11.5915
11.6499
11.6981
11.7395
11.7763
11.8101
11.8418
11.8721
11.9016
11.9306
11.9593
11.9879
12.0165
12.0452
12.0739
12.1029
12.1321
12.1617
12.1917
12.2221
12.2532
12.2852
12.3183
12.3527
12.389
12.4277
12.4695
12.5154
12.5667
12.6254
12.6941
12.7764
12.8784
13.0095
13.1861
13.4406
13.837
14.4922
15.6784
18.4556
24.9626
)
;

boundaryField
{
    movingWallTop
    {
        type            zeroGradient;
    }
    movingWallBottom
    {
        type            zeroGradient;
    }
    fixedWalls
    {
        type            zeroGradient;
    }
    frontAndBack
    {
        type            empty;
    }
}


// ************************************************************************* //
