/*--------------------------------*- C++ -*----------------------------------*\
  =========                 |
  \\      /  F ield         | OpenFOAM: The Open Source CFD Toolbox
   \\    /   O peration     | Website:  https://openfoam.org
    \\  /    A nd           | Version:  7
     \\/     M anipulation  |
\*---------------------------------------------------------------------------*/
FoamFile
{
    version     2.0;
    format      ascii;
    class       surfaceScalarField;
    location    "0.0778";
    object      phi;
}
// * * * * * * * * * * * * * * * * * * * * * * * * * * * * * * * * * * * * * //

dimensions      [0 3 -1 0 0 0 0];

internalField   nonuniform List<scalar> 
4900
(
5.45461e-06
-5.45462e-06
9.95309e-06
-4.49848e-06
1.26939e-05
-2.7408e-06
1.44122e-05
-1.71833e-06
1.55285e-05
-1.11634e-06
1.62819e-05
-7.53323e-07
1.68131e-05
-5.31276e-07
1.72039e-05
-3.90767e-07
1.75014e-05
-2.97479e-07
1.77339e-05
-2.3247e-07
1.79191e-05
-1.85215e-07
1.80687e-05
-1.49649e-07
1.81909e-05
-1.22125e-07
1.82912e-05
-1.00343e-07
1.8374e-05
-8.27908e-08
1.84424e-05
-6.84305e-08
1.84989e-05
-5.65232e-08
1.85455e-05
-4.65256e-08
1.85835e-05
-3.80259e-08
1.86142e-05
-3.07037e-08
1.86385e-05
-2.43023e-08
1.86571e-05
-1.86106e-08
1.86706e-05
-1.345e-08
1.86792e-05
-8.66451e-09
1.86833e-05
-4.11386e-09
1.8683e-05
3.35904e-10
1.86782e-05
4.80787e-09
1.86688e-05
9.43624e-09
1.86544e-05
1.43556e-08
1.86347e-05
1.97161e-08
1.8609e-05
2.56888e-08
1.85765e-05
3.24757e-08
1.85362e-05
4.03234e-08
1.84867e-05
4.95421e-08
1.84261e-05
6.05329e-08
1.83523e-05
7.38295e-08
1.82621e-05
9.01618e-08
1.81516e-05
1.10558e-07
1.80151e-05
1.36519e-07
1.78447e-05
1.70318e-07
1.76292e-05
2.15559e-07
1.73509e-05
2.7823e-07
1.69822e-05
3.68797e-07
1.64758e-05
5.06339e-07
1.57496e-05
7.26227e-07
1.46576e-05
1.09201e-06
1.29452e-05
1.71242e-06
1.0162e-05
2.7832e-06
5.55722e-06
4.60473e-06
5.55722e-06
-1.1932e-07
-5.3353e-06
1.83181e-06
-6.44961e-06
4.41348e-06
-5.32247e-06
6.72993e-06
-4.03478e-06
8.61081e-06
-2.99722e-06
1.00946e-05
-2.23708e-06
1.12609e-05
-1.69756e-06
1.21837e-05
-1.31366e-06
1.29217e-05
-1.0354e-06
1.35181e-05
-8.28946e-07
1.4005e-05
-6.721e-07
1.44057e-05
-5.50303e-07
1.47374e-05
-4.53877e-07
1.50133e-05
-3.76247e-07
1.52434e-05
-3.12836e-07
1.54353e-05
-2.60369e-07
1.55952e-05
-2.16443e-07
1.5728e-05
-1.79249e-07
1.58373e-05
-1.47389e-07
1.59264e-05
-1.19759e-07
1.59975e-05
-9.54602e-08
1.60527e-05
-7.37471e-08
1.60932e-05
-5.39811e-08
1.61201e-05
-3.55998e-08
1.61341e-05
-1.80919e-08
1.61354e-05
-9.78028e-10
1.6124e-05
1.6215e-08
1.60995e-05
3.39592e-08
1.60611e-05
5.27573e-08
1.60077e-05
7.31576e-08
1.59376e-05
9.57822e-08
1.58487e-05
1.2136e-07
1.57382e-05
1.50774e-07
1.56027e-05
1.8512e-07
1.54374e-05
2.25799e-07
1.52366e-05
2.7464e-07
1.49926e-05
3.34099e-07
1.46957e-05
4.07543e-07
1.43325e-05
4.99714e-07
1.38853e-05
6.17455e-07
1.333e-05
7.709e-07
1.26328e-05
9.75406e-07
1.1747e-05
1.25464e-06
1.06081e-05
1.6452e-06
9.13217e-06
2.20218e-06
7.22466e-06
2.99952e-06
4.83163e-06
4.10545e-06
2.12104e-06
5.49379e-06
1.07201e-08
6.71504e-06
5.56794e-06
-1.08241e-06
-4.25289e-06
-7.53904e-07
-6.77811e-06
5.90067e-07
-6.66645e-06
2.30302e-06
-5.74773e-06
4.01522e-06
-4.70942e-06
5.56803e-06
-3.78989e-06
6.9142e-06
-3.04372e-06
8.05723e-06
-2.45669e-06
9.01964e-06
-1.99782e-06
9.82813e-06
-1.63743e-06
1.05077e-05
-1.35165e-06
1.10797e-05
-1.12236e-06
1.15621e-05
-9.36203e-07
1.19691e-05
-7.83337e-07
1.23128e-05
-6.56462e-07
1.26025e-05
-5.50095e-07
1.28461e-05
-4.60051e-07
1.30499e-05
-3.83077e-07
1.32191e-05
-3.16595e-07
1.33579e-05
-2.58516e-07
1.34696e-05
-2.07117e-07
1.35567e-05
-1.60937e-07
1.36215e-05
-1.18709e-07
1.36652e-05
-7.93034e-08
1.36888e-05
-4.16845e-08
1.36927e-05
-4.87131e-09
1.36768e-05
3.21033e-08
1.36405e-05
7.02136e-08
1.35828e-05
1.10489e-07
1.35019e-05
1.54051e-07
1.33955e-05
2.02161e-07
1.32606e-05
2.56284e-07
1.30932e-05
3.18169e-07
1.28884e-05
3.89956e-07
1.26398e-05
4.74327e-07
1.23398e-05
5.74713e-07
1.19783e-05
6.95584e-07
1.15429e-05
8.4287e-07
1.10181e-05
1.02455e-06
1.0384e-05
1.25152e-06
9.61621e-06
1.53873e-06
8.68492e-06
1.90669e-06
7.55664e-06
2.38292e-06
6.1995e-06
3.00234e-06
4.59878e-06
3.80289e-06
2.79217e-06
4.80613e-06
9.38382e-07
5.95924e-06
-5.70482e-07
7.00266e-06
-1.03811e-06
7.18267e-06
4.52983e-06
-9.12946e-07
-3.33994e-06
-1.3411e-06
-6.34996e-06
-9.35742e-07
-7.0718e-06
2.32753e-08
-6.70675e-06
1.24219e-06
-5.92834e-06
2.52147e-06
-5.06917e-06
3.74831e-06
-4.27057e-06
4.86997e-06
-3.57835e-06
5.86855e-06
-2.99639e-06
6.74415e-06
-2.51303e-06
7.50513e-06
-2.11263e-06
8.16294e-06
-1.78017e-06
8.72953e-06
-1.50279e-06
9.21614e-06
-1.26994e-06
9.63286e-06
-1.07319e-06
9.98852e-06
-9.05749e-07
1.02907e-05
-7.62211e-07
1.05458e-05
-6.38175e-07
1.07592e-05
-5.30038e-07
1.09355e-05
-4.34796e-07
1.10783e-05
-3.49904e-07
1.11905e-05
-2.73163e-07
1.12744e-05
-2.02629e-07
1.13317e-05
-1.36543e-07
1.13633e-05
-7.32708e-08
1.13696e-05
-1.12513e-08
1.13507e-05
5.10578e-08
1.13057e-05
1.15221e-07
1.12333e-05
1.82882e-07
1.11315e-05
2.55824e-07
1.09976e-05
3.36032e-07
1.08281e-05
4.25782e-07
1.06186e-05
5.2775e-07
1.03634e-05
6.45142e-07
1.00558e-05
7.81881e-07
9.68769e-06
9.42838e-07
9.24914e-06
1.13414e-06
8.72844e-06
1.36356e-06
8.11199e-06
1.64101e-06
7.38447e-06
1.97904e-06
6.52987e-06
2.39334e-06
5.53388e-06
2.90268e-06
4.3893e-06
3.5275e-06
3.10666e-06
4.28497e-06
1.73357e-06
5.17599e-06
3.84821e-07
6.15488e-06
-7.23791e-07
7.06785e-06
-1.26537e-06
7.54423e-06
-9.15777e-07
6.83308e-06
3.61406e-06
-6.64602e-07
-2.67534e-06
-1.29656e-06
-5.718e-06
-1.4166e-06
-6.95176e-06
-1.03989e-06
-7.08346e-06
-3.20945e-07
-6.64728e-06
5.82682e-07
-5.9728e-06
1.55272e-06
-5.2406e-06
2.51323e-06
-4.53886e-06
3.42097e-06
-3.90413e-06
4.2545e-06
-3.34657e-06
5.00577e-06
-2.8639e-06
5.67439e-06
-2.44879e-06
6.26407e-06
-2.09246e-06
6.78044e-06
-1.78632e-06
7.22985e-06
-1.5226e-06
7.61863e-06
-1.29453e-06
7.95274e-06
-1.09632e-06
8.23758e-06
-9.23015e-07
8.47792e-06
-7.70375e-07
8.67786e-06
-6.34735e-07
8.84084e-06
-5.12892e-07
8.96969e-06
-4.02005e-07
9.06657e-06
-2.9951e-07
9.13307e-06
-2.03043e-07
9.17017e-06
-1.10377e-07
9.17828e-06
-1.93626e-08
9.15721e-06
7.21333e-08
9.10615e-06
1.66282e-07
9.02367e-06
2.65356e-07
8.9077e-06
3.71802e-07
8.75541e-06
4.88316e-07
8.56326e-06
6.17938e-07
8.32683e-06
7.64171e-07
8.04087e-06
9.3111e-07
7.69913e-06
1.12362e-06
7.29444e-06
1.34752e-06
6.81877e-06
1.60981e-06
6.26345e-06
1.91889e-06
5.61978e-06
2.28468e-06
4.8802e-06
2.71862e-06
4.04054e-06
3.23299e-06
3.10393e-06
3.83929e-06
2.08738e-06
4.54406e-06
1.03189e-06
5.34046e-06
1.61776e-08
6.1917e-06
-8.3046e-07
7.00151e-06
-1.32821e-06
7.5656e-06
-1.2924e-06
7.50843e-06
-6.8481e-07
6.22549e-06
2.92925e-06
-4.70536e-07
-2.2048e-06
-1.09878e-06
-5.08975e-06
-1.46611e-06
-6.58444e-06
-1.46593e-06
-7.08364e-06
-1.14405e-06
-6.96917e-06
-5.95452e-07
-6.52139e-06
8.61547e-08
-5.92221e-06
8.26888e-07
-5.27959e-06
1.57508e-06
-4.65233e-06
2.29765e-06
-4.06913e-06
2.97515e-06
-3.5414e-06
3.5975e-06
-3.07115e-06
4.1607e-06
-2.65566e-06
4.66445e-06
-2.29007e-06
5.11067e-06
-1.96882e-06
5.50243e-06
-1.68629e-06
5.84331e-06
-1.4372e-06
6.137e-06
-1.2167e-06
6.38702e-06
-1.02039e-06
6.59658e-06
-8.44294e-07
6.76849e-06
-6.84799e-07
6.90509e-06
-5.38607e-07
7.00824e-06
-4.02663e-07
7.07929e-06
-2.7409e-07
7.11905e-06
-1.50139e-07
7.12781e-06
-2.81229e-08
7.10531e-06
9.4638e-08
7.05071e-06
2.20876e-07
6.96263e-06
3.53444e-07
6.83905e-06
4.95379e-07
6.67738e-06
6.49989e-07
6.47438e-06
8.20934e-07
6.22622e-06
1.01233e-06
5.92849e-06
1.22884e-06
5.57628e-06
1.47583e-06
5.1644e-06
1.7594e-06
4.68772e-06
2.08649e-06
4.1418e-06
2.46481e-06
3.52391e-06
2.90257e-06
2.8348e-06
3.40772e-06
2.08132e-06
3.98647e-06
1.28042e-06
4.64019e-06
4.6458e-07
5.3599e-06
-3.11621e-07
6.11666e-06
-9.65995e-07
6.84607e-06
-1.38972e-06
7.42523e-06
-1.46762e-06
7.64351e-06
-1.13529e-06
7.17609e-06
-4.96326e-07
5.58653e-06
2.43292e-06
-3.39519e-07
-1.86528e-06
-9.00749e-07
-4.52852e-06
-1.36155e-06
-6.12364e-06
-1.58055e-06
-6.86464e-06
-1.53934e-06
-7.01037e-06
-1.27999e-06
-6.78073e-06
-8.63853e-07
-6.33835e-06
-3.50014e-07
-5.79343e-06
2.13232e-07
-5.21557e-06
7.90017e-07
-4.64592e-06
1.3555e-06
-4.10689e-06
1.89356e-06
-3.60921e-06
2.39449e-06
-3.15658e-06
2.85309e-06
-2.74868e-06
3.26723e-06
-2.38295e-06
3.63672e-06
-2.05578e-06
3.9626e-06
-1.76308e-06
4.24655e-06
-1.50066e-06
4.49058e-06
-1.26442e-06
4.69672e-06
-1.05043e-06
4.86688e-06
-8.54964e-07
5.00275e-06
-6.74474e-07
5.10567e-06
-5.05583e-07
5.17662e-06
-3.45043e-07
5.21617e-06
-1.8969e-07
5.22445e-06
-3.63984e-08
5.20112e-06
1.17968e-07
5.14538e-06
2.76611e-07
5.05597e-06
4.42856e-07
4.93114e-06
6.2021e-07
4.7687e-06
8.12432e-07
4.56604e-06
1.02359e-06
4.32023e-06
1.25813e-06
4.02814e-06
1.52093e-06
3.68665e-06
1.81732e-06
3.29301e-06
2.15304e-06
2.84539e-06
2.53411e-06
2.34372e-06
2.96648e-06
1.79092e-06
3.45536e-06
1.19469e-06
4.00395e-06
5.6992e-07
4.61125e-06
-5.82697e-08
5.26838e-06
-6.51196e-07
5.95283e-06
-1.15417e-06
6.61964e-06
-1.49748e-06
7.18937e-06
-1.60558e-06
7.53334e-06
-1.42224e-06
7.46016e-06
-9.58795e-07
6.71264e-06
-3.66313e-07
4.99405e-06
2.06661e-06
-2.5456e-07
-1.61073e-06
-7.39657e-07
-4.04342e-06
-1.2186e-06
-5.6447e-06
-1.55475e-06
-6.52848e-06
-1.69914e-06
-6.86599e-06
-1.65768e-06
-6.82219e-06
-1.46305e-06
-6.53297e-06
-1.15614e-06
-6.10034e-06
-7.75946e-07
-5.59577e-06
-3.55198e-07
-5.06667e-06
8.06915e-08
-4.54278e-06
5.13122e-07
-4.04164e-06
9.29153e-07
-3.57261e-06
1.32025e-06
-3.13978e-06
1.68118e-06
-2.74388e-06
2.00902e-06
-2.38363e-06
2.30251e-06
-2.05657e-06
2.56144e-06
-1.75958e-06
2.78624e-06
-1.48922e-06
2.97771e-06
-1.2419e-06
3.13678e-06
-1.01404e-06
3.26437e-06
-8.02057e-07
3.36122e-06
-6.02439e-07
3.4279e-06
-4.11717e-07
3.46466e-06
-2.26451e-07
3.47146e-06
-4.32032e-08
3.44793e-06
1.415e-07
3.39334e-06
3.31204e-07
3.30662e-06
5.29571e-07
3.18641e-06
7.40418e-07
3.03109e-06
9.6776e-07
2.83884e-06
1.21584e-06
2.60783e-06
1.48914e-06
2.33639e-06
1.79237e-06
2.02334e-06
2.13038e-06
1.6684e-06
2.50798e-06
1.27288e-06
2.92964e-06
8.4049e-07
3.39887e-06
3.78591e-07
3.91726e-06
-1.00355e-07
4.4829e-06
-5.77001e-07
5.08789e-06
-1.02336e-06
5.71474e-06
-1.40165e-06
6.33112e-06
-1.66507e-06
6.88305e-06
-1.76249e-06
7.2868e-06
-1.65047e-06
7.42133e-06
-1.31561e-06
7.1253e-06
-8.08346e-07
6.20538e-06
-2.80883e-07
4.46659e-06
1.78572e-06
-1.98955e-07
-1.41177e-06
-6.16763e-07
-3.62562e-06
-1.08118e-06
-5.18028e-06
-1.47399e-06
-6.13567e-06
-1.73579e-06
-6.60419e-06
-1.85114e-06
-6.70684e-06
-1.83135e-06
-6.55277e-06
-1.70064e-06
-6.23105e-06
-1.48703e-06
-5.80938e-06
-1.21717e-06
-5.33653e-06
-9.13883e-07
-4.84606e-06
-5.95505e-07
-4.36002e-06
-2.76033e-07
-3.89209e-06
3.42784e-08
-3.45009e-06
3.28217e-07
-3.03781e-06
6.0093e-07
-2.65634e-06
8.49331e-07
-2.30497e-06
1.07161e-06
-1.98186e-06
1.26682e-06
-1.68443e-06
1.43462e-06
-1.4097e-06
1.57497e-06
-1.1544e-06
1.68803e-06
-9.15116e-07
1.77397e-06
-6.88373e-07
1.83289e-06
-4.70633e-07
1.86475e-06
-2.58321e-07
1.86937e-06
-4.78218e-08
1.84634e-06
1.64538e-07
1.79503e-06
3.82507e-07
1.71467e-06
6.0993e-07
1.60433e-06
8.50763e-07
1.46301e-06
1.10908e-06
1.28978e-06
1.38906e-06
1.08396e-06
1.69496e-06
8.45338e-07
2.031e-06
5.74538e-07
2.40118e-06
2.73492e-07
2.80902e-06
-5.39439e-08
3.25707e-06
-4.01205e-07
3.74613e-06
-7.58064e-07
4.27412e-06
-1.10959e-06
4.83442e-06
-1.43514e-06
5.41345e-06
-1.70786e-06
5.98746e-06
-1.89518e-06
6.51843e-06
-1.96144e-06
6.94932e-06
-1.87417e-06
7.19953e-06
-1.61534e-06
7.1625e-06
-1.1985e-06
6.70847e-06
-6.89676e-07
5.69655e-06
-2.24211e-07
4.00112e-06
1.56151e-06
-1.6161e-07
-1.25016e-06
-5.24835e-07
-3.26239e-06
-9.63152e-07
-4.74196e-06
-1.37883e-06
-5.71999e-06
-1.71246e-06
-6.27057e-06
-1.93764e-06
-6.48166e-06
-2.05135e-06
-6.43905e-06
-2.06463e-06
-6.21778e-06
-1.99522e-06
-5.87879e-06
-1.86276e-06
-5.46898e-06
-1.68594e-06
-5.02289e-06
-1.48103e-06
-4.56492e-06
-1.26148e-06
-4.11163e-06
-1.03791e-06
-3.67366e-06
-8.18425e-07
-3.2573e-06
-6.09022e-07
-2.86574e-06
-4.1401e-07
-2.49998e-06
-2.36389e-07
-2.15948e-06
-7.81819e-08
-1.84264e-06
5.92878e-08
-1.54717e-06
1.75178e-07
-1.27029e-06
2.68951e-07
-1.00889e-06
3.40243e-07
-7.59665e-07
3.88759e-07
-5.19149e-07
4.14206e-07
-2.83768e-07
4.16247e-07
-4.98633e-08
3.94482e-07
1.86303e-07
3.4845e-07
4.2854e-07
2.77658e-07
6.80723e-07
1.81641e-07
9.4678e-07
6.00584e-08
1.23066e-06
-8.71677e-08
1.53629e-06
-2.59659e-07
1.86746e-06
-4.5632e-07
2.22766e-06
-6.74992e-07
2.61985e-06
-9.12024e-07
3.04605e-06
-1.16174e-06
3.50679e-06
-1.41582e-06
4.00021e-06
-1.66267e-06
4.52098e-06
-1.88687e-06
5.05861e-06
-2.06886e-06
5.59543e-06
-2.18535e-06
6.10395e-06
-2.21089e-06
6.54397e-06
-2.12131e-06
6.85974e-06
-1.89987e-06
6.97809e-06
-1.54653e-06
6.80915e-06
-1.0897e-06
6.25163e-06
-5.97926e-07
5.20478e-06
-1.85418e-07
3.58861e-06
1.37609e-06
-1.35798e-07
-1.11436e-06
-4.56232e-07
-2.94196e-06
-8.66566e-07
-4.33163e-06
-1.28728e-06
-5.29928e-06
-1.66352e-06
-5.89432e-06
-1.96441e-06
-6.18077e-06
-2.17817e-06
-6.22529e-06
-2.3062e-06
-6.08975e-06
-2.35771e-06
-5.82727e-06
-2.3457e-06
-5.48099e-06
-2.28418e-06
-5.08441e-06
-2.18649e-06
-4.66261e-06
-2.06447e-06
-4.23365e-06
-1.92811e-06
-3.81001e-06
-1.78556e-06
-3.39986e-06
-1.64322e-06
-3.00808e-06
-1.50607e-06
-2.63714e-06
-1.37784e-06
-2.2877e-06
-1.26133e-06
-1.95915e-06
-1.15857e-06
-1.64993e-06
-1.07104e-06
-1.35781e-06
-9.99832e-07
-1.0801e-06
-9.45749e-07
-8.13747e-07
-9.09416e-07
-5.55482e-07
-8.91337e-07
-3.01847e-07
-8.91939e-07
-4.92607e-08
-9.1159e-07
2.05954e-07
-9.50586e-07
4.67535e-07
-1.00911e-06
7.39252e-07
-1.08719e-06
1.02486e-06
-1.18456e-06
1.32803e-06
-1.30053e-06
1.65226e-06
-1.43382e-06
2.00074e-06
-1.58227e-06
2.37611e-06
-1.7426e-06
2.78017e-06
-1.90998e-06
3.21343e-06
-2.07767e-06
3.67448e-06
-2.23663e-06
4.15917e-06
-2.37516e-06
4.65951e-06
-2.4788e-06
5.16226e-06
-2.53058e-06
5.64721e-06
-2.51196e-06
6.08534e-06
-2.40493e-06
6.43694e-06
-2.19549e-06
6.6503e-06
-1.87896e-06
6.66156e-06
-1.4669e-06
6.3971e-06
-9.94593e-07
5.77932e-06
-5.26799e-07
4.73698e-06
-1.57859e-07
3.21967e-06
1.21823e-06
-1.17483e-07
-9.96878e-07
-4.0481e-07
-2.65463e-06
-7.89323e-07
-3.94712e-06
-1.20634e-06
-4.88226e-06
-1.60704e-06
-5.49363e-06
-1.95971e-06
-5.82809e-06
-2.24771e-06
-5.9373e-06
-2.46585e-06
-5.87162e-06
-2.61675e-06
-5.67637e-06
-2.70769e-06
-5.39005e-06
-2.74816e-06
-5.04394e-06
-2.74828e-06
-4.66249e-06
-2.71775e-06
-4.26419e-06
-2.66529e-06
-3.86247e-06
-2.59844e-06
-3.4667e-06
-2.52349e-06
-3.08303e-06
-2.44555e-06
-2.71508e-06
-2.36871e-06
-2.36454e-06
-2.29618e-06
-2.03168e-06
-2.23047e-06
-1.71564e-06
-2.17351e-06
-1.41478e-06
-2.12676e-06
-1.12684e-06
-2.09137e-06
-8.49142e-07
-2.06819e-06
-5.78661e-07
-2.05788e-06
-3.12158e-07
-2.06091e-06
-4.62295e-08
-2.07759e-06
2.22633e-07
-2.10804e-06
4.97987e-07
-2.15217e-06
7.83379e-07
-2.20958e-06
1.08227e-06
-2.27951e-06
1.39795e-06
-2.36064e-06
1.7334e-06
-2.45099e-06
2.09109e-06
-2.54766e-06
2.47278e-06
-2.64661e-06
2.87913e-06
-2.74241e-06
3.30922e-06
-2.82795e-06
3.76002e-06
-2.89431e-06
4.22553e-06
-2.93064e-06
4.69584e-06
-2.92436e-06
5.15598e-06
-2.86184e-06
5.58469e-06
-2.72959e-06
5.95309e-06
-2.51643e-06
6.22378e-06
-2.21663e-06
6.35049e-06
-1.83411e-06
6.27904e-06
-1.38727e-06
5.95026e-06
-9.13402e-07
5.30546e-06
-4.70993e-07
4.29457e-06
-1.37561e-07
2.88624e-06
1.08067e-06
-1.04201e-07
-8.92677e-07
-3.66017e-07
-2.39282e-06
-7.28259e-07
-3.58487e-06
-1.13785e-06
-4.47267e-06
-1.55197e-06
-5.07951e-06
-1.94001e-06
-5.44006e-06
-2.28291e-06
-5.5944e-06
-2.57127e-06
-5.58326e-06
-2.80285e-06
-5.44478e-06
-2.98029e-06
-5.21262e-06
-3.1091e-06
-4.91513e-06
-3.19625e-06
-4.57534e-06
-3.24912e-06
-4.21132e-06
-3.27484e-06
-3.83675e-06
-3.27994e-06
-3.46161e-06
-3.27015e-06
-3.09282e-06
-3.25037e-06
-2.73486e-06
-3.2247e-06
-2.39022e-06
-3.19649e-06
-2.05989e-06
-3.16846e-06
-1.74367e-06
-3.1428e-06
-1.44045e-06
-3.12121e-06
-1.14844e-06
-3.10502e-06
-8.65323e-07
-3.09526e-06
-5.88421e-07
-3.09266e-06
-3.14764e-07
-3.09768e-06
-4.12029e-08
-3.11057e-06
2.35518e-07
-3.13127e-06
5.18688e-07
-3.15944e-06
8.11544e-07
-3.19434e-06
1.11718e-06
-3.23481e-06
1.43842e-06
-3.27907e-06
1.77766e-06
-3.32467e-06
2.13669e-06
-3.36824e-06
2.51636e-06
-3.40543e-06
2.91631e-06
-3.43064e-06
3.33444e-06
-3.437e-06
3.76638e-06
-3.4163e-06
4.20483e-06
-3.35915e-06
4.63869e-06
-3.2554e-06
5.05224e-06
-3.09496e-06
5.42425e-06
-2.8691e-06
5.72723e-06
-2.57245e-06
5.92713e-06
-2.20561e-06
5.98365e-06
-1.77828e-06
5.85171e-06
-1.31241e-06
5.48439e-06
-8.44612e-07
4.83766e-06
-4.26551e-07
3.87651e-06
-1.2213e-07
2.58182e-06
9.58543e-07
-9.44061e-08
-7.98271e-07
-3.36572e-07
-2.15065e-06
-6.80276e-07
-3.24117e-06
-1.08136e-06
-4.07159e-06
-1.50239e-06
-4.65848e-06
-1.91463e-06
-5.02782e-06
-2.2982e-06
-5.21082e-06
-2.64111e-06
-5.24035e-06
-2.93769e-06
-5.1482e-06
-3.18697e-06
-4.96333e-06
-3.39115e-06
-4.71095e-06
-3.55433e-06
-4.41216e-06
-3.68162e-06
-4.08403e-06
-3.77844e-06
-3.73993e-06
-3.85011e-06
-3.38995e-06
-3.90153e-06
-3.0414e-06
-3.93713e-06
-2.69926e-06
-3.96074e-06
-2.36661e-06
-3.97563e-06
-2.04499e-06
-3.98455e-06
-1.73475e-06
-3.98973e-06
-1.43527e-06
-3.99299e-06
-1.14517e-06
-3.99575e-06
-8.62558e-07
-3.9991e-06
-5.85078e-07
-4.00377e-06
-3.10091e-07
-4.01022e-06
-3.47556e-08
-4.01857e-06
2.43873e-07
-4.02864e-06
5.28755e-07
-4.03986e-06
8.22762e-07
-4.05125e-06
1.12857e-06
-4.06133e-06
1.44851e-06
-4.06807e-06
1.7844e-06
-4.06873e-06
2.13734e-06
-4.05979e-06
2.50743e-06
-4.03688e-06
2.89339e-06
-3.99467e-06
3.29222e-06
-3.9269e-06
3.69862e-06
-3.82652e-06
4.10445e-06
-3.68594e-06
4.49811e-06
-3.4976e-06
4.8639e-06
-3.25482e-06
5.18146e-06
-2.95306e-06
5.42547e-06
-2.59164e-06
5.56572e-06
-2.17579e-06
5.5678e-06
-1.71882e-06
5.39474e-06
-1.24416e-06
5.00972e-06
-7.8636e-07
4.37986e-06
-3.90641e-07
3.48079e-06
-1.10086e-07
2.30127e-06
8.48457e-07
-8.70915e-08
-7.11179e-07
-3.14108e-07
-1.92363e-06
-6.42709e-07
-2.91257e-06
-1.03553e-06
-3.67876e-06
-1.45971e-06
-4.2343e-06
-1.88864e-06
-4.59889e-06
-2.30248e-06
-4.79699e-06
-2.68776e-06
-4.85507e-06
-3.03649e-06
-4.79946e-06
-3.34499e-06
-4.65484e-06
-3.61273e-06
-4.44321e-06
-3.84139e-06
-4.1835e-06
-4.03398e-06
-3.89144e-06
-4.19424e-06
-3.57967e-06
-4.32618e-06
-3.25801e-06
-4.43378e-06
-2.9338e-06
-4.52079e-06
-2.61225e-06
-4.59061e-06
-2.29678e-06
-4.64626e-06
-1.98935e-06
-4.69032e-06
-1.6907e-06
-4.72497e-06
-1.40061e-06
-4.75201e-06
-1.11814e-06
-4.77284e-06
-8.41725e-07
-4.78853e-06
-5.69385e-07
-4.7998e-06
-2.9882e-07
-4.80703e-06
-2.75271e-08
-4.81025e-06
2.47095e-07
-4.80914e-06
5.27643e-07
-4.80297e-06
8.16595e-07
-4.7906e-06
1.11619e-06
-4.77036e-06
1.42827e-06
-4.74009e-06
1.75412e-06
-4.69698e-06
2.09423e-06
-4.63758e-06
2.44803e-06
-4.55778e-06
2.81359e-06
-4.45279e-06
3.18723e-06
-4.31728e-06
3.5631e-06
-4.14555e-06
3.93272e-06
-3.93195e-06
4.28451e-06
-3.67144e-06
4.60339e-06
-3.36044e-06
4.87046e-06
-2.99794e-06
5.06297e-06
-2.58689e-06
5.15466e-06
-2.13573e-06
5.11664e-06
-1.65991e-06
4.91892e-06
-1.18298e-06
4.5328e-06
-7.36937e-07
3.93382e-06
-3.61257e-07
3.10511e-06
-1.00492e-07
2.0405e-06
7.47965e-07
-8.15808e-08
-6.29599e-07
-2.96909e-07
-1.7083e-06
-6.13377e-07
-2.5961e-06
-9.988e-07
-3.29334e-06
-1.42406e-06
-3.80904e-06
-1.86461e-06
-4.15834e-06
-2.30112e-06
-4.36048e-06
-2.71938e-06
-4.4368e-06
-3.10986e-06
-4.40899e-06
-3.46685e-06
-4.29784e-06
-3.78774e-06
-4.12232e-06
-4.07214e-06
-3.89911e-06
-4.32122e-06
-3.64236e-06
-4.53716e-06
-3.36372e-06
-4.72271e-06
-3.07246e-06
-4.88086e-06
-2.77565e-06
-5.01459e-06
-2.47852e-06
-5.12677e-06
-2.1846e-06
-5.22002e-06
-1.89609e-06
-5.29669e-06
-1.61403e-06
-5.35876e-06
-1.33854e-06
-5.40793e-06
-1.06898e-06
-5.44551e-06
-8.04147e-07
-5.47249e-06
-5.42404e-07
-5.48952e-06
-2.81791e-07
-5.49689e-06
-2.01525e-08
-5.49455e-06
2.44754e-07
-5.48206e-06
5.1515e-07
-5.45858e-06
7.93119e-07
-5.42286e-06
1.08047e-06
-5.3732e-06
1.37861e-06
-5.30738e-06
1.68831e-06
-5.22273e-06
2.00958e-06
-5.11604e-06
2.34134e-06
-4.98363e-06
2.68119e-06
-4.82147e-06
3.02507e-06
-4.62527e-06
3.3669e-06
-4.39082e-06
3.69827e-06
-4.11437e-06
4.00806e-06
-3.7932e-06
4.28222e-06
-3.4264e-06
4.50366e-06
-3.01583e-06
4.6524e-06
-2.56716e-06
4.70599e-06
-2.09101e-06
4.64049e-06
-1.60388e-06
4.4318e-06
-1.12876e-06
4.05767e-06
-6.94926e-07
3.49999e-06
-3.36983e-07
2.74717e-06
-9.27316e-08
1.79625e-06
6.55233e-07
-7.74055e-08
-5.52193e-07
-2.83717e-07
-1.50199e-06
-5.9054e-07
-2.28928e-06
-9.69632e-07
-2.91425e-06
-1.3949e-06
-3.38377e-06
-1.84366e-06
-3.70958e-06
-2.29727e-06
-3.90687e-06
-2.74126e-06
-3.99281e-06
-3.16508e-06
-3.98517e-06
-3.56162e-06
-3.90131e-06
-3.92658e-06
-3.75735e-06
-4.25793e-06
-3.56776e-06
-4.55528e-06
-3.34502e-06
-4.8194e-06
-3.0996e-06
-5.05186e-06
-2.84e-06
-5.25466e-06
-2.57285e-06
-5.43004e-06
-2.30314e-06
-5.58025e-06
-2.03439e-06
-5.70748e-06
-1.76887e-06
-5.81371e-06
-1.5078e-06
-5.90072e-06
-1.25153e-06
-5.96998e-06
-9.99717e-07
-6.02268e-06
-7.51442e-07
-6.0597e-06
-5.05381e-07
-6.08159e-06
-2.59907e-07
-6.08854e-06
-1.32048e-08
-6.0804e-06
2.36613e-07
-6.05665e-06
4.91404e-07
-6.0164e-06
7.52869e-07
-5.95836e-06
1.02243e-06
-5.88083e-06
1.30108e-06
-5.78172e-06
1.5892e-06
-5.65855e-06
1.88641e-06
-5.5085e-06
2.19129e-06
-5.32847e-06
2.50116e-06
-5.11525e-06
2.81185e-06
-4.86568e-06
3.11734e-06
-4.57701e-06
3.4096e-06
-4.24725e-06
3.67829e-06
-3.87574e-06
3.91071e-06
-3.46383e-06
4.09175e-06
-3.01561e-06
4.20418e-06
-2.53876e-06
4.22914e-06
-2.04527e-06
4.147e-06
-1.55206e-06
3.93858e-06
-1.08112e-06
3.58673e-06
-6.59213e-07
3.07808e-06
-3.16811e-07
2.40477e-06
-8.639e-08
1.56583e-06
5.68843e-07
-7.42336e-08
-4.77959e-07
-2.736e-07
-1.30263e-06
-5.72827e-07
-1.99005e-06
-9.46674e-07
-2.5404e-06
-1.37146e-06
-2.95898e-06
-1.82611e-06
-3.25493e-06
-2.29271e-06
-3.44027e-06
-2.75679e-06
-3.52873e-06
-3.20719e-06
-3.53477e-06
-3.63577e-06
-3.47273e-06
-4.037e-06
-3.35612e-06
-4.40749e-06
-3.19726e-06
-4.74556e-06
-3.00696e-06
-5.05077e-06
-2.79439e-06
-5.32362e-06
-2.56715e-06
-5.56522e-06
-2.33125e-06
-5.77704e-06
-2.09132e-06
-5.96074e-06
-1.85068e-06
-6.11802e-06
-1.61159e-06
-6.2505e-06
-1.37532e-06
-6.35966e-06
-1.14238e-06
-6.44675e-06
-9.12622e-07
-6.5128e-06
-6.85395e-07
-6.55853e-06
-4.5965e-07
-6.58437e-06
-2.34067e-07
-6.59042e-06
-7.15199e-09
-6.57646e-06
2.22647e-07
-6.54189e-06
4.56843e-07
-6.48581e-06
6.96789e-07
-6.40694e-06
9.4356e-07
-6.30368e-06
1.19781e-06
-6.17409e-06
1.45962e-06
-6.01601e-06
1.72833e-06
-5.82706e-06
2.00233e-06
-5.60478e-06
2.27889e-06
-5.34682e-06
2.55389e-06
-5.05115e-06
2.82166e-06
-4.71634e-06
3.07479e-06
-4.34201e-06
3.30396e-06
-3.92926e-06
3.49797e-06
-3.48128e-06
3.64377e-06
-3.0039e-06
3.72679e-06
-2.50618e-06
3.73143e-06
-2.00098e-06
3.6418e-06
-1.50518e-06
3.44278e-06
-1.03968e-06
3.12123e-06
-6.28938e-07
2.66734e-06
-3.00019e-07
2.07585e-06
-8.11828e-08
1.34699e-06
4.8766e-07
-7.18256e-08
-4.06134e-07
-2.65863e-07
-1.10859e-06
-5.59166e-07
-1.69675e-06
-9.28776e-07
-2.17079e-06
-1.35292e-06
-2.53484e-06
-1.81183e-06
-2.79601e-06
-2.28835e-06
-2.96375e-06
-2.76811e-06
-3.04897e-06
-3.2396e-06
-3.06329e-06
-3.69396e-06
-3.01837e-06
-4.12473e-06
-2.92536e-06
-4.52746e-06
-2.79452e-06
-4.89941e-06
-2.63501e-06
-5.23914e-06
-2.45467e-06
-5.5462e-06
-2.26009e-06
-5.82088e-06
-2.05656e-06
-6.06398e-06
-1.84822e-06
-6.27657e-06
-1.63809e-06
-6.45987e-06
-1.42828e-06
-6.61514e-06
-1.22005e-06
-6.74354e-06
-1.01398e-06
-6.8461e-06
-8.10063e-07
-6.92364e-06
-6.07856e-07
-6.97674e-06
-4.06554e-07
-7.00569e-06
-2.05111e-07
-7.01052e-06
-2.32853e-09
-6.99091e-06
2.03038e-07
-6.94625e-06
4.12189e-07
-6.87564e-06
6.26171e-07
-6.77784e-06
8.45763e-07
-6.65139e-06
1.07136e-06
-6.49458e-06
1.30281e-06
-6.30558e-06
1.53933e-06
-6.08249e-06
1.77924e-06
-5.82351e-06
2.01991e-06
-5.52713e-06
2.2575e-06
-5.19233e-06
2.48686e-06
-4.81892e-06
2.70138e-06
-4.40789e-06
2.89293e-06
-3.96182e-06
3.0519e-06
-3.48535e-06
3.1673e-06
-2.98561e-06
3.22706e-06
-2.47267e-06
3.21849e-06
-1.95982e-06
3.12895e-06
-1.46369e-06
2.94665e-06
-1.00408e-06
2.66162e-06
-6.03455e-07
2.26671e-06
-2.86091e-07
1.75849e-06
-7.6911e-08
1.13781e-06
4.10749e-07
-7.00066e-08
-3.36127e-07
-2.59987e-07
-9.18609e-07
-5.48725e-07
-1.40801e-06
-9.14987e-07
-1.80453e-06
-1.33848e-06
-2.11134e-06
-1.80054e-06
-2.33395e-06
-2.28462e-06
-2.47967e-06
-2.77655e-06
-2.55704e-06
-3.26462e-06
-2.57521e-06
-3.7395e-06
-2.54349e-06
-4.19401e-06
-2.47085e-06
-4.6229e-06
-2.36563e-06
-5.02258e-06
-2.23533e-06
-5.39075e-06
-2.0865e-06
-5.7262e-06
-1.92463e-06
-6.02852e-06
-1.75425e-06
-6.29787e-06
-1.57887e-06
-6.53481e-06
-1.40115e-06
-6.74013e-06
-1.22297e-06
-6.9147e-06
-1.04548e-06
-7.05941e-06
-8.69267e-07
-7.17504e-06
-6.9443e-07
-7.26223e-06
-5.20671e-07
-7.32139e-06
-3.47391e-07
-7.35272e-06
-1.73786e-07
-7.35612e-06
1.07829e-09
-7.33126e-06
1.78171e-07
-7.27748e-06
3.58417e-07
-7.19391e-06
5.42599e-07
-7.07941e-06
7.31259e-07
-6.93265e-06
9.24594e-07
-6.75217e-06
1.12234e-06
-6.53649e-06
1.32365e-06
-6.28419e-06
1.52694e-06
-5.99408e-06
1.72981e-06
-5.66542e-06
1.92884e-06
-5.29811e-06
2.11955e-06
-4.89303e-06
2.2963e-06
-4.45232e-06
2.45222e-06
-3.97975e-06
2.57933e-06
-3.4811e-06
2.66865e-06
-2.96447e-06
2.71043e-06
-2.44058e-06
2.69461e-06
-1.92296e-06
2.61132e-06
-1.42784e-06
2.45154e-06
-9.74022e-07
2.2078e-06
-5.82282e-07
1.87498e-06
-2.74653e-07
1.45086e-06
-7.34343e-08
9.36595e-07
3.37315e-07
-6.86486e-08
-2.67479e-07
-2.55582e-07
-7.31675e-07
-5.40861e-07
-1.12273e-06
-9.04547e-07
-1.44084e-06
-1.32748e-06
-1.68841e-06
-1.79185e-06
-1.86958e-06
-2.28164e-06
-1.98987e-06
-2.78291e-06
-2.05577e-06
-3.28383e-06
-2.07429e-06
-3.77473e-06
-2.05259e-06
-4.24795e-06
-1.99763e-06
-4.69762e-06
-1.91596e-06
-5.11945e-06
-1.8135e-06
-5.51051e-06
-1.69544e-06
-5.86893e-06
-1.56621e-06
-6.19371e-06
-1.42946e-06
-6.48449e-06
-1.28808e-06
-6.74138e-06
-1.14427e-06
-6.96476e-06
-9.99583e-07
-7.15521e-06
-8.55033e-07
-7.31332e-06
-7.11153e-07
-7.43967e-06
-5.6808e-07
-7.53471e-06
-4.25632e-07
-7.59872e-06
-2.8338e-07
-7.63178e-06
-1.40726e-07
-7.63373e-06
3.03008e-09
-7.60418e-06
1.48616e-07
-7.54248e-06
2.96717e-07
-7.44778e-06
4.47896e-07
-7.31903e-06
6.02513e-07
-7.15508e-06
7.60639e-07
-6.95469e-06
9.21957e-07
-6.71672e-06
1.08567e-06
-6.44017e-06
1.2504e-06
-6.12443e-06
1.41406e-06
-5.7694e-06
1.57382e-06
-5.37581e-06
1.72596e-06
-4.94538e-06
1.86587e-06
-4.48121e-06
1.98805e-06
-3.98801e-06
2.08614e-06
-3.47242e-06
2.15306e-06
-2.94325e-06
2.18126e-06
-2.41167e-06
2.16302e-06
-1.89122e-06
2.09088e-06
-1.39779e-06
1.95811e-06
-9.49269e-07
1.75928e-06
-5.65066e-07
1.49077e-06
-2.65437e-07
1.15123e-06
-7.06531e-08
7.4181e-07
2.66662e-07
-6.76581e-08
-1.9982e-07
-2.5236e-07
-5.46973e-07
-5.3509e-07
-8.40001e-07
-8.96855e-07
-1.07908e-06
-1.31934e-06
-1.26593e-06
-1.78539e-06
-1.40353e-06
-2.27942e-06
-1.49584e-06
-2.78766e-06
-1.54754e-06
-3.29826e-06
-1.56369e-06
-3.80132e-06
-1.54952e-06
-4.28882e-06
-1.51014e-06
-4.75443e-06
-1.45035e-06
-5.19337e-06
-1.37455e-06
-5.60219e-06
-1.28662e-06
-5.97851e-06
-1.18989e-06
-6.32086e-06
-1.08711e-06
-6.62847e-06
-9.80479e-07
-6.90105e-06
-8.71687e-07
-7.13869e-06
-7.61949e-07
-7.34166e-06
-6.52061e-07
-7.51035e-06
-5.42464e-07
-7.64513e-06
-4.33296e-07
-7.74631e-06
-3.24453e-07
-7.81404e-06
-2.15644e-07
-7.84832e-06
-1.06449e-07
-7.84892e-06
3.62934e-09
-7.81541e-06
1.15106e-07
-7.74715e-06
2.28461e-07
-7.64334e-06
3.44078e-07
-7.503e-06
4.62182e-07
-7.32514e-06
5.82771e-07
-7.10873e-06
7.0555e-07
-6.85291e-06
8.29849e-07
-6.55707e-06
9.54558e-07
-6.22105e-06
1.07804e-06
-5.84534e-06
1.1981e-06
-5.43126e-06
1.31188e-06
-4.98127e-06
1.41588e-06
-4.49918e-06
1.50596e-06
-3.99043e-06
1.57738e-06
-3.46229e-06
1.62492e-06
-2.92407e-06
1.64304e-06
-2.3872e-06
1.62615e-06
-1.86522e-06
1.5689e-06
-1.37365e-06
1.46653e-06
-9.29645e-07
1.31527e-06
-5.51548e-07
1.11268e-06
-2.58253e-07
8.57934e-07
-6.8497e-08
5.52054e-07
1.98165e-07
-6.6968e-08
-1.32853e-07
-2.5011e-07
-3.63831e-07
-5.31051e-07
-5.5906e-07
-8.9146e-07
-7.1867e-07
-1.31361e-06
-8.4378e-07
-1.78084e-06
-9.36307e-07
-2.27787e-06
-9.98816e-07
-2.79107e-06
-1.03434e-06
-3.30859e-06
-1.04617e-06
-3.8204e-06
-1.03771e-06
-4.31822e-06
-1.01232e-06
-4.7954e-06
-9.7316e-07
-5.24682e-06
-9.23135e-07
-5.66863e-06
-8.6482e-07
-6.05809e-06
-8.00432e-07
-6.41338e-06
-7.31817e-07
-6.7334e-06
-6.60457e-07
-7.01759e-06
-5.87496e-07
-7.26578e-06
-5.13763e-07
-7.47803e-06
-4.39808e-07
-7.65455e-06
-3.65945e-07
-7.79557e-06
-2.92281e-07
-7.90126e-06
-2.18763e-07
-7.97169e-06
-1.45213e-07
-8.00677e-06
-7.13646e-08
-8.00624e-06
3.09935e-09
-7.96964e-06
7.85074e-08
-7.89634e-06
1.55163e-07
-7.78557e-06
2.33302e-07
-7.63644e-06
3.13053e-07
-7.44806e-06
3.94389e-07
-7.21959e-06
4.77082e-07
-6.95039e-06
5.60653e-07
-6.64016e-06
6.44327e-07
-6.2891e-06
7.2698e-07
-5.8981e-06
8.07104e-07
-5.469e-06
8.82776e-07
-5.00477e-06
9.51644e-07
-4.50974e-06
1.01094e-06
-3.98988e-06
1.05752e-06
-3.4529e-06
1.08794e-06
-2.90844e-06
1.09858e-06
-2.3681e-06
1.08581e-06
-1.84538e-06
1.04618e-06
-1.35548e-06
9.76639e-07
-9.15025e-07
8.74814e-07
-5.41548e-07
7.39199e-07
-2.52967e-07
5.69353e-07
-6.69172e-08
3.66004e-07
1.31248e-07
-6.65318e-08
-6.63207e-08
-2.48687e-07
-1.81676e-07
-5.28492e-07
-2.79254e-07
-8.88037e-07
-3.59125e-07
-1.30998e-06
-4.21838e-07
-1.77795e-06
-4.68335e-07
-2.27689e-06
-4.99875e-07
-2.79328e-06
-5.17947e-07
-3.31527e-06
-5.24177e-07
-3.83274e-06
-5.20245e-07
-4.33725e-06
-5.07807e-07
-4.82197e-06
-4.88437e-07
-5.28153e-06
-4.63577e-07
-5.71184e-06
-4.34512e-07
-6.10992e-06
-4.0235e-07
-6.47372e-06
-3.68017e-07
-6.80192e-06
-3.32258e-07
-7.09377e-06
-2.95649e-07
-7.34892e-06
-2.58612e-07
-7.5673e-06
-2.21427e-07
-7.74899e-06
-1.84256e-07
-7.89411e-06
-1.47159e-07
-8.00276e-06
-1.10114e-07
-8.07494e-06
-7.30357e-08
-8.11051e-06
-3.57956e-08
-8.10917e-06
1.76024e-09
-8.07045e-06
3.97916e-08
-7.99373e-06
7.8445e-08
-7.87826e-06
1.17833e-07
-7.72322e-06
1.58012e-07
-7.52779e-06
1.98961e-07
-7.29127e-06
2.40557e-07
-7.01317e-06
2.82551e-07
-6.69338e-06