/*--------------------------------*- C++ -*----------------------------------*\
  =========                 |
  \\      /  F ield         | OpenFOAM: The Open Source CFD Toolbox
   \\    /   O peration     | Website:  https://openfoam.org
    \\  /    A nd           | Version:  7
     \\/     M anipulation  |
\*---------------------------------------------------------------------------*/
FoamFile
{
    version     2.0;
    format      ascii;
    class       volVectorField;
    location    "0.0542";
    object      U;
}
// * * * * * * * * * * * * * * * * * * * * * * * * * * * * * * * * * * * * * //

dimensions      [0 1 -1 0 0 0 0];

internalField   nonuniform List<vector> 
2500
(
(2.93624e-05 -2.92036e-05 0)
(8.86637e-05 -3.5634e-05 0)
(0.000121304 -1.80792e-05 0)
(8.92174e-05 7.74232e-06 0)
(-1.91382e-05 3.40958e-05 0)
(-0.0002022 5.82844e-05 0)
(-0.000452974 7.92118e-05 0)
(-0.000762429 9.6565e-05 0)
(-0.00112055 0.000110368 0)
(-0.00151705 0.000120773 0)
(-0.00194179 0.000127977 0)
(-0.00238501 0.000132195 0)
(-0.00283741 0.000133648 0)
(-0.00329024 0.000132552 0)
(-0.00373537 0.000129119 0)
(-0.00416527 0.000123559 0)
(-0.00457307 0.000116072 0)
(-0.0049525 0.000106855 0)
(-0.00529796 9.60989e-05 0)
(-0.00560447 8.39928e-05 0)
(-0.00586771 7.07214e-05 0)
(-0.00608398 5.64691e-05 0)
(-0.00625023 4.14218e-05 0)
(-0.00636407 2.57677e-05 0)
(-0.00642378 9.69958e-06 0)
(-0.00642831 -6.58429e-06 0)
(-0.00637733 -2.28787e-05 0)
(-0.00627124 -3.89707e-05 0)
(-0.00611117 -5.46391e-05 0)
(-0.00589903 -6.96543e-05 0)
(-0.00563755 -8.37793e-05 0)
(-0.00533023 -9.67704e-05 0)
(-0.0049814 -0.000108379 0)
(-0.00459624 -0.000118356 0)
(-0.00418072 -0.000126448 0)
(-0.00374162 -0.00013241 0)
(-0.00328649 -0.000136 0)
(-0.00282359 -0.000136988 0)
(-0.00236185 -0.000135156 0)
(-0.00191078 -0.000130304 0)
(-0.00148034 -0.000122253 0)
(-0.00108082 -0.000110852 0)
(-0.000722665 -9.59904e-05 0)
(-0.000416154 -7.76283e-05 0)
(-0.000170978 -5.58782e-05 0)
(4.50249e-06 -3.12271e-05 0)
(0.000104473 -4.94315e-06 0)
(0.00012839 2.00456e-05 0)
(8.97466e-05 3.66265e-05 0)
(2.88877e-05 2.88279e-05 0)
(3.59992e-05 -8.85562e-05 0)
(8.03502e-05 -7.93748e-05 0)
(3.04347e-05 1.92998e-05 0)
(-0.000172002 0.000153267 0)
(-0.000550027 0.000294596 0)
(-0.00110375 0.000429172 0)
(-0.00182146 0.000549633 0)
(-0.00268447 0.000652462 0)
(-0.00367017 0.000736211 0)
(-0.00475405 0.000800559 0)
(-0.00591097 0.00084582 0)
(-0.00711602 0.000872693 0)
(-0.00834501 0.000882103 0)
(-0.00957488 0.000875115 0)
(-0.0107839 0.000852879 0)
(-0.0119517 0.000816592 0)
(-0.0130597 0.000767477 0)
(-0.0140908 0.000706769 0)
(-0.0150296 0.000635711 0)
(-0.0158625 0.000555547 0)
(-0.0165777 0.00046753 0)
(-0.017165 0.000372921 0)
(-0.017616 0.000272995 0)
(-0.0179242 0.000169052 0)
(-0.018085 6.24209e-05 0)
(-0.0180956 -4.55353e-05 0)
(-0.0179552 -0.000153413 0)
(-0.0176651 -0.000259767 0)
(-0.0172286 -0.000363109 0)
(-0.0166509 -0.000461909 0)
(-0.0159397 -0.000554605 0)
(-0.0151047 -0.00063961 0)
(-0.0141577 -0.000715326 0)
(-0.013113 -0.000780161 0)
(-0.0119867 -0.000832551 0)
(-0.0107971 -0.000870987 0)
(-0.00956447 -0.00089404 0)
(-0.00831085 -0.000900396 0)
(-0.00705982 -0.000888897 0)
(-0.00583622 -0.000858585 0)
(-0.00466577 -0.000808769 0)
(-0.00357455 -0.00073911 0)
(-0.00258834 -0.000649765 0)
(-0.00173166 -0.000541636 0)
(-0.00102637 -0.000416829 0)
(-0.000489656 -0.000279574 0)
(-0.000130885 -0.000137877 0)
(5.3047e-05 -6.47139e-06 0)
(8.82852e-05 8.726e-05 0)
(3.69625e-05 8.97454e-05 0)
(1.93135e-05 -0.000122944 0)
(-1.50916e-05 -3.04806e-05 0)
(-0.000227008 0.000232697 0)
(-0.000665391 0.000569948 0)
(-0.00135258 0.00092726 0)
(-0.00228893 0.00127198 0)
(-0.0034594 0.0015849 0)
(-0.00483888 0.00185534 0)
(-0.00639613 0.00207781 0)
(-0.00809641 0.00225004 0)
(-0.00990334 0.00237177 0)
(-0.0117803 0.00244408 0)
(-0.0136912 0.00246886 0)
(-0.0156014 0.00244861 0)
(-0.0174778 0.00238618 0)
(-0.0192896 0.00228466 0)
(-0.0210079 0.0021473 0)
(-0.0226066 0.00197745 0)
(-0.024062 0.00177854 0)
(-0.0253529 0.00155402 0)
(-0.0264609 0.00130743 0)
(-0.0273704 0.00104231 0)
(-0.0280683 0.000762295 0)
(-0.0285448 0.00047107 0)
(-0.0287926 0.000172407 0)
(-0.0288076 -0.000129826 0)
(-0.0285886 -0.000431658 0)
(-0.0281377 -0.00072901 0)
(-0.0274601 -0.0010177 0)
(-0.0265642 -0.00129345 0)
(-0.0254618 -0.00155192 0)
(-0.024168 -0.0017887 0)
(-0.0227013 -0.00199941 0)
(-0.0210834 -0.0021797 0)
(-0.0193392 -0.00232533 0)
(-0.0174967 -0.00243226 0)
(-0.0155869 -0.00249674 0)
(-0.0136432 -0.00251538 0)
(-0.011701 -0.00248532 0)
(-0.00979758 -0.00240437 0)
(-0.00797114 -0.00227121 0)
(-0.00625994 -0.0020857 0)
(-0.00470126 -0.00184927 0)
(-0.00332989 -0.00156561 0)
(-0.00217611 -0.00124178 0)
(-0.001263 -0.000890061 0)
(-0.000602621 -0.000531061 0)
(-0.000190891 -0.000198508 0)
(-1.24641e-06 5.33449e-05 0)
(2.14965e-05 0.000129943 0)
(-4.95407e-06 -9.50222e-05 0)
(-0.000145363 0.000168021 0)
(-0.000560338 0.000669856 0)
(-0.001273 0.00128046 0)
(-0.00229604 0.00192081 0)
(-0.0036262 0.0025394 0)
(-0.00524385 0.00310358 0)
(-0.00711814 0.00359367 0)
(-0.00921088 0.00399855 0)
(-0.0114793 0.00431281 0)
(-0.0138784 0.00453488 0)
(-0.0163621 0.00466581 0)
(-0.018885 0.00470843 0)
(-0.0214027 0.00466684 0)
(-0.0238731 0.00454598 0)
(-0.0262562 0.00435137 0)
(-0.0285151 0.00408893 0)
(-0.0306156 0.00376487 0)
(-0.032527 0.00338559 0)
(-0.0342218 0.00295764 0)
(-0.0356759 0.00248768 0)
(-0.036869 0.0019825 0)
(-0.0377843 0.00144904 0)
(-0.0384086 0.000894334 0)
(-0.0387328 0.000325621 0)
(-0.0387514 -0.000249708 0)
(-0.0384631 -0.00082407 0)
(-0.0378707 -0.00138969 0)
(-0.0369809 -0.00193862 0)
(-0.0358049 -0.00246276 0)
(-0.0343582 -0.00295387 0)
(-0.0326604 -0.00340371 0)
(-0.0307356 -0.00380402 0)
(-0.028612 -0.0041467 0)
(-0.0263218 -0.00442392 0)
(-0.0239012 -0.00462824 0)
(-0.02139 -0.00475283 0)
(-0.0188309 -0.00479168 0)
(-0.0162693 -0.00473982 0)
(-0.0137525 -0.00459369 0)
(-0.0113286 -0.00435149 0)
(-0.00904557 -0.00401378 0)
(-0.00694977 -0.00358422 0)
(-0.00508407 -0.00307068 0)
(-0.00348563 -0.00248696 0)
(-0.00218306 -0.00185547 0)
(-0.00119257 -0.00121129 0)
(-0.000513118 -0.000607719 0)
(-0.000126531 -0.000124374 0)
(-1.63467e-06 0.000110848 0)
(-3.01389e-05 7.33771e-06 0)
(-0.000285992 0.000541896 0)
(-0.000923236 0.00135882 0)
(-0.00193034 0.00230579 0)
(-0.00330476 0.00328382 0)
(-0.00503604 0.00422476 0)
(-0.00709811 0.00508305 0)
(-0.00945371 0.00582965 0)
(-0.0120582 0.00644716 0)
(-0.0148618 0.00692632 0)
(-0.0178122 0.00726371 0)
(-0.0208557 0.00746001 0)
(-0.023939 0.00751886 0)
(-0.0270099 0.00744602 0)
(-0.0300186 0.00724872 0)
(-0.0329178 0.00693528 0)
(-0.0356634 0.00651477 0)
(-0.0382147 0.0059968 0)
(-0.040535 0.00539138 0)
(-0.0425914 0.0047088 0)
(-0.0443553 0.00395962 0)
(-0.0458019 0.00315461 0)
(-0.0469114 0.00230478 0)
(-0.047668 0.00142137 0)
(-0.0480607 0.000515879 0)
(-0.0480831 -0.000399918 0)
(-0.0477336 -0.00131396 0)
(-0.0470155 -0.00221391 0)
(-0.0459371 -0.00308717 0)
(-0.0445119 -0.00392092 0)
(-0.0427583 -0.00470219 0)
(-0.0406998 -0.00541798 0)
(-0.0383652 -0.00605537 0)
(-0.0357882 -0.00660172 0)
(-0.0330072 -0.00704484 0)
(-0.0300652 -0.00737328 0)
(-0.0270093 -0.00757659 0)
(-0.02389 -0.0076457 0)
(-0.020761 -0.00757331 0)
(-0.0176778 -0.00735444 0)
(-0.0146968 -0.00698701 0)
(-0.0118742 -0.00647269 0)
(-0.00926383 -0.005818 0)
(-0.00691584 -0.00503582 0)
(-0.00487394 -0.00414754 0)
(-0.00317301 -0.00318623 0)
(-0.00183544 -0.0022011 0)
(-0.000866831 -0.0012631 0)
(-0.000263108 -0.000472557 0)
(-2.59572e-05 1.95348e-05 0)
(-5.40127e-05 0.000184576 0)
(-0.000425873 0.00109831 0)
(-0.00129108 0.00231161 0)
(-0.00260055 0.00365892 0)
(-0.00433335 0.00502666 0)
(-0.00646915 0.00633317 0)
(-0.00897352 0.00752157 0)
(-0.0118017 0.00855406 0)
(-0.0149023 0.009407 0)
(-0.018219 0.0100672 0)
(-0.0216926 0.010529 0)
(-0.0252628 0.0107928 0)
(-0.0288696 0.0108629 0)
(-0.0324543 0.0107467 0)
(-0.0359603 0.010454 0)
(-0.0393342 0.00999618 0)
(-0.0425259 0.00938589 0)
(-0.0454895 0.00863657 0)
(-0.0481829 0.00776237 0)
(-0.0505688 0.0067779 0)
(-0.0526144 0.00569821 0)
(-0.0542918 0.00453871 0)
(-0.0555782 0.00331515 0)
(-0.0564556 0.00204366 0)
(-0.0569114 0.000740717 0)
(-0.0569384 -0.000576796 0)
(-0.0565348 -0.00189161 0)
(-0.0557044 -0.00318606 0)
(-0.0544566 -0.00444215 0)
(-0.0528066 -0.0056416 0)
(-0.0507755 -0.00676595 0)
(-0.0483901 -0.00779672 0)
(-0.045683 -0.00871562 0)
(-0.0426925 -0.00950477 0)
(-0.0394621 -0.010147 0)
(-0.0360405 -0.0106264 0)
(-0.0324811 -0.0109282 0)
(-0.0288412 -0.0110402 0)
(-0.0251811 -0.0109523 0)
(-0.0215637 -0.0106582 0)
(-0.0180525 -0.0101554 0)
(-0.0147109 -0.00944712 0)
(-0.0115998 -0.00854286 0)
(-0.00877638 -0.00746085 0)
(-0.00629131 -0.00623014 0)
(-0.00418696 -0.00489405 0)
(-0.00249385 -0.00351458 0)
(-0.00122695 -0.00217758 0)
(-0.000399526 -0.000999121 0)
(-4.90991e-05 -0.000144624 0)
(-7.5971e-05 0.000433611 0)
(-0.000560498 0.00183624 0)
(-0.00165208 0.00353026 0)
(-0.00326446 0.00534345 0)
(-0.00535698 0.00715239 0)
(-0.00789772 0.00886514 0)
(-0.0108423 0.0104156 0)
(-0.0141374 0.0117584 0)
(-0.0177241 0.0128644 0)
(-0.0215393 0.0137165 0)
(-0.0255173 0.0143074 0)
(-0.0295918 0.0146369 0)
(-0.0336965 0.0147101 0)
(-0.0377668 0.0145365 0)
(-0.0417408 0.0141284 0)
(-0.0455594 0.0135007 0)
(-0.0491678 0.0126698 0)
(-0.052515 0.0116535 0)
(-0.055555 0.0104705 0)
(-0.0582465 0.00914013 0)
(-0.0605533 0.00768255 0)
(-0.0624447 0.0061183 0)
(-0.0638954 0.00446845 0)
(-0.0648856 0.00275458 0)
(-0.0654014 0.000998763 0)
(-0.0654346 -0.000776428 0)
(-0.0649834 -0.00254789 0)
(-0.0640517 -0.00429201 0)
(-0.0626499 -0.00598477 0)
(-0.0607946 -0.00760177 0)
(-0.0585091 -0.00911844 0)
(-0.0558228 -0.0105102 0)
(-0.0527714 -0.0117528 0)
(-0.049397 -0.0128224 0)
(-0.0457476 -0.0136966 0)
(-0.0418767 -0.014354 0)
(-0.037843 -0.0147758 0)
(-0.0337094 -0.0149456 0)
(-0.0295427 -0.0148507 0)
(-0.0254118 -0.014483 0)
(-0.021387 -0.0138398 0)
(-0.0175385 -0.0129253 0)
(-0.0139344 -0.0117524 0)
(-0.0106389 -0.0103442 0)
(-0.00771048 -0.00873711 0)
(-0.00520027 -0.00698359 0)
(-0.00314859 -0.00515671 0)
(-0.00158156 -0.00335425 0)
(-0.000531153 -0.00170377 0)
(-7.04018e-05 -0.000378864 0)
(-9.61058e-05 0.000750628 0)
(-0.000688774 0.00275111 0)
(-0.00200196 0.00501175 0)
(-0.00391405 0.00735793 0)
(-0.00636453 0.00966007 0)
(-0.00930886 0.011819 0)
(-0.0126915 0.0137614 0)
(-0.0164498 0.0154362 0)
(-0.0205164 0.0168093 0)
(-0.0248212 0.0178609 0)
(-0.0292919 0.018582 0)
(-0.0338558 0.0189723 0)
(-0.0384413 0.0190383 0)
(-0.0429784 0.0187913 0)
(-0.0473999 0.0182469 0)
(-0.0516423 0.0174235 0)
(-0.0556462 0.0163418 0)
(-0.0593568 0.0150241 0)
(-0.0627243 0.0134941 0)
(-0.0657043 0.0117765 0)
(-0.0682577 0.00989668 0)
(-0.0703513 0.00788097 0)
(-0.0719577 0.00575615 0)
(-0.0730557 0.00354973 0)
(-0.0736299 0.00128983 0)
(-0.0736717 -0.000994752 0)
(-0.0731787 -0.00327458 0)
(-0.0721551 -0.00551961 0)
(-0.070612 -0.00769924 0)
(-0.0685671 -0.00978246 0)
(-0.066045 -0.011738 0)
(-0.0630775 -0.0135347 0)
(-0.059703 -0.0151416 0)
(-0.0559666 -0.0165289 0)
(-0.0519199 -0.0176677 0)
(-0.0476207 -0.0185314 0)
(-0.0431323 -0.0190959 0)
(-0.0385229 -0.0193409 0)
(-0.0338645 -0.0192504 0)
(-0.0292324 -0.0188143 0)
(-0.0247031 -0.0180291 0)
(-0.0203537 -0.0169002 0)
(-0.0162594 -0.0154429 0)
(-0.0124924 -0.013685 0)
(-0.0091199 -0.0116692 0)
(-0.00620266 -0.009456 0)
(-0.00379209 -0.00712764 0)
(-0.00192653 -0.00479127 0)
(-0.000656875 -0.0025826 0)
(-8.99201e-05 -0.00067954 0)
(-0.000114757 0.00113198 0)
(-0.000811217 0.00383734 0)
(-0.00234052 0.00675117 0)
(-0.00454785 0.00969885 0)
(-0.00735335 0.0125474 0)
(-0.0106994 0.0151927 0)
(-0.0145186 0.0175567 0)
(-0.0187379 0.0195835 0)
(-0.0232812 0.0212361 0)
(-0.0280706 0.0224923 0)
(-0.033027 0.0233425 0)
(-0.0380717 0.0237867 0)
(-0.0431272 0.023833 0)
(-0.0481187 0.0234954 0)
(-0.0529744 0.0227927 0)
(-0.0576264 0.0217474 0)
(-0.0620116 0.0203847 0)
(-0.0660716 0.018732 0)
(-0.0697536 0.0168182 0)
(-0.0730102 0.0146737 0)
(-0.0758002 0.0123298 0)
(-0.0780882 0.0098185 0)
(-0.079845 0.00717294 0)
(-0.081048 0.00442689 0)
(-0.0816808 0.00161491 0)
(-0.0817341 -0.00122759 0)
(-0.081205 -0.00406446 0)
(-0.0800978 -0.00685877 0)
(-0.0784238 -0.00957293 0)
(-0.0762017 -0.0121688 0)
(-0.0734573 -0.0146081 0)
(-0.0702238 -0.0168525 0)
(-0.0665418 -0.018864 0)
(-0.062459 -0.0206058 0)
(-0.0580303 -0.0220427 0)
(-0.0533169 -0.023142 0)
(-0.0483863 -0.023874 0)
(-0.0433115 -0.0242138 0)
(-0.0381698 -0.0241416 0)
(-0.0330421 -0.0236448 0)
(-0.0280117 -0.0227189 0)
(-0.0231624 -0.0213694 0)
(-0.0185773 -0.0196139 0)
(-0.0143371 -0.0174839 0)
(-0.0105184 -0.0150274 0)
(-0.00719286 -0.0123115 0)
(-0.00442369 -0.00942594 0)
(-0.00226204 -0.00648517 0)
(-0.000777323 -0.00363085 0)
(-0.000108001 -0.00104324 0)
(-0.00013231 0.00157467 0)
(-0.000929019 0.00508979 0)
(-0.00266959 0.00874351 0)
(-0.00516804 0.0123624 0)
(-0.00832579 0.0158118 0)
(-0.012072 0.0189848 0)
(-0.016327 0.0218 0)
(-0.0210067 0.0241989 0)
(-0.0260258 0.0261422 0)
(-0.031298 0.0276069 0)
(-0.036737 0.0285834 0)
(-0.0422578 0.0290729 0)
(-0.0477775 0.0290856 0)
(-0.0532162 0.0286387 0)
(-0.0584977 0.0277549 0)
(-0.0635503 0.026461 0)
(-0.0683074 0.0247872 0)
(-0.0727077 0.0227663 0)
(-0.0766955 0.020433 0)
(-0.0802212 0.0178233 0)
(-0.0832414 0.0149748 0)
(-0.085719 0.0119259 0)
(-0.0876234 0.00871606 0)
(-0.0889306 0.00538566 0)
(-0.0896234 0.00197603 0)
(-0.0896917 -0.00147055 0)
(-0.0891321 -0.00491085 0)
(-0.0879487 -0.00830077 0)
(-0.0861531 -0.0115954 0)
(-0.0837642 -0.0147491 0)
(-0.0808087 -0.017716 0)
(-0.0773211 -0.0204503 0)
(-0.0733434 -0.0229066 0)
(-0.0689257 -0.0250406 0)
(-0.0641253 -0.0268101 0)
(-0.0590067 -0.0281756 0)
(-0.0536412 -0.0291017 0)
(-0.0481061 -0.0295578 0)
(-0.0424841 -0.0295201 0)
(-0.0368619 -0.0289727 0)
(-0.0313291 -0.0279092 0)
(-0.0259773 -0.0263348 0)
(-0.0208976 -0.0242683 0)
(-0.01618 -0.021744 0)
(-0.0119115 -0.018814 0)
(-0.0081751 -0.0155509 0)
(-0.00504674 -0.0120504 0)
(-0.00259054 -0.00843284 0)
(-0.000893905 -0.00484445 0)
(-0.000125062 -0.00146727 0)
(-0.000149131 0.00207649 0)
(-0.00104361 0.00650447 0)
(-0.00299198 0.0109848 0)
(-0.00577868 0.0153456 0)
(-0.00928703 0.0194516 0)
(-0.013433 0.0231946 0)
(-0.0181243 0.0264915 0)
(-0.0232655 0.0292825 0)
(-0.0287612 0.0315275 0)
(-0.0345165 0.0332037 0)
(-0.0404377 0.0343026 0)
(-0.0464333 0.0348275 0)
(-0.0524145 0.0347916 0)
(-0.0582967 0.0342158 0)
(-0.0639994 0.0331271 0)
(-0.0694473 0.0315574 0)
(-0.0745707 0.0295422 0)
(-0.0793054 0.0271202 0)
(-0.0835936 0.0243319 0)
(-0.0873836 0.0212198 0)
(-0.0906303 0.0178277 0)
(-0.0932951 0.0142006 0)
(-0.0953461 0.0103847 0)
(-0.0967583 0.00642705 0)
(-0.0975135 0.00237606 0)
(-0.0976008 -0.00171891 0)
(-0.0970164 -0.00580736 0)
(-0.095764 -0.00983773 0)
(-0.0938551 -0.0137575 0)
(-0.0913085 -0.0175133 0)
(-0.0881516 -0.0210514 0)
(-0.0844194 -0.0243179 0)
(-0.0801554 -0.0272595 0)
(-0.0754111 -0.0298242 0)
(-0.0702461 -0.031962 0)
(-0.0647278 -0.0336263 0)
(-0.0589309 -0.0347748 0)
(-0.0529372 -0.0353711 0)
(-0.0468342 -0.0353862 0)
(-0.0407147 -0.0348 0)
(-0.0346752 -0.0336038 0)
(-0.028815 -0.0318012 0)
(-0.0232341 -0.0294114 0)
(-0.0180326 -0.0264701 0)
(-0.0133083 -0.0230329 0)
(-0.00915677 -0.0191765 0)
(-0.00566674 -0.0150014 0)
(-0.00291562 -0.0106327 0)
(-0.00100833 -0.00622086 0)
(-0.000141514 -0.00194987 0)
(-0.000165541 0.00263607 0)
(-0.00115642 0.00807889 0)
(-0.00331084 0.0134727 0)
(-0.00638466 0.0186469 0)
(-0.0102436 0.0234664 0)
(-0.0147903 0.0278228 0)
(-0.0199199 0.0316326 0)
(-0.0255251 0.0348359 0)
(-0.0315 0.0373934 0)
(-0.0377407 0.0392837 0)
(-0.0441456 0.0405003 0)
(-0.0506165 0.0410499 0)
(-0.0570588 0.0409492 0)
(-0.0633831 0.0402238 0)
(-0.0695047 0.0389058 0)
(-0.075345 0.0370325 0)
(-0.0808312 0.0346455 0)
(-0.0858969 0.0317894 0)
(-0.0904821 0.0285113 0)
(-0.0945336 0.0248602 0)
(-0.0980048 0.0208864 0)
(-0.100856 0.0166418 0)
(-0.103054 0.0121793 0)
(-0.104573 0.00755315 0)
(-0.105393 0.00281864 0)
(-0.105504 -0.00196756 0)
(-0.104901 -0.00674753 0)
(-0.103587 -0.0114621 0)
(-0.101573 -0.0160509 0)
(-0.0988772 -0.0204526 0)
(-0.0955276 -0.0246052 0)
(-0.0915595 -0.0284466 0)
(-0.0870169 -0.031915 0)
(-0.0819528 -0.0349501 0)
(-0.0764285 -0.0374936 0)
(-0.0705139 -0.039491 0)
(-0.0642871 -0.0408925 0)
(-0.0578338 -0.0416548 0)
(-0.0512467 -0.0417429 0)
(-0.0446246 -0.041132 0)
(-0.0380714 -0.0398092 0)
(-0.0316944 -0.0377762 0)
(-0.0256034 -0.0350508 0)
(-0.0199089 -0.0316699 0)
(-0.0147206 -0.0276906 0)
(-0.010147 -0.0231929 0)
(-0.00629025 -0.0182814 0)
(-0.00324133 -0.0130854 0)
(-0.00112239 -0.00775942 0)
(-0.000157734 -0.00249028 0)
(-0.000181821 0.00325281 0)
(-0.00126884 0.00981211 0)
(-0.00362933 0.0162067 0)
(-0.00699109 0.0222667 0)
(-0.0112024 0.0278577 0)
(-0.0161528 0.0328718 0)
(-0.0217241 0.0372263 0)
(-0.0277971 0.0408626 0)
(-0.0342551 0.0437433 0)
(-0.0409846 0.0458495 0)
(-0.0478761 0.0471785 0)
(-0.0548241 0.0477409 0)
(-0.0617285 0.0475584 0)
(-0.0684946 0.0466619 0)
(-0.0750341 0.0450892 0)
(-0.0812648 0.042884 0)
(-0.0871116 0.0400943 0)
(-0.0925057 0.0367713 0)
(-0.0973857 0.0329688 0)
(-0.101697 0.0287427 0)
(-0.105391 0.0241501 0)
(-0.108428 0.0192497 0)
(-0.110774 0.0141016 0)
(-0.112402 0.00876684 0)
(-0.113293 0.00330802 0)
(-0.113433 -0.00221095 0)
(-0.112817 -0.00772466 0)
(-0.111449 -0.0131662 0)
(-0.109337 -0.0184673 0)
(-0.106501 -0.0235585 0)
(-0.102968 -0.0283692 0)
(-0.0987721 -0.0328286 0)
(-0.0939587 -0.0368663 0)
(-0.088581 -0.0404128 0)
(-0.0827021 -0.0434011 0)
(-0.0763938 -0.045768 0)
(-0.0697373 -0.0474552 0)
(-0.0628222 -0.0484118 0)
(-0.0557465 -0.0485956 0)
(-0.0486151 -0.0479756 0)
(-0.0415392 -0.0465342 0)
(-0.0346353 -0.0442694 0)
(-0.0280229 -0.041197 0)
(-0.021824 -0.0373531 0)
(-0.0161609 -0.0327958 0)
(-0.0111554 -0.0276074 0)
(-0.00692424 -0.0218957 0)
(-0.00357184 -0.0157943 0)
(-0.00123782 -0.00946154 0)
(-0.000174066 -0.00308869 0)
(-0.00019821 0.00392683 0)
(-0.00138211 0.0117047 0)
(-0.00395044 0.0191881 0)
(-0.00760294 0.0262073 0)
(-0.0121704 0.0326287 0)
(-0.0175289 0.0383455 0)
(-0.0235471 0.043277 0)
(-0.030093 0.0473669 0)
(-0.0370389 0.0505811 0)
(-0.0442616 0.0529048 0)
(-0.051643 0.0543399 0)
(-0.0590705 0.0549024 0)
(-0.0664379 0.0546199 0)
(-0.073646 0.0535296 0)
(-0.0806024 0.0516762 0)
(-0.0872219 0.0491101 0)
(-0.0934269 0.0458865 0)
(-0.0991471 0.0420637 0)
(-0.104319 0.0377026 0)
(-0.108888 0.032866 0)
(-0.112805 0.0276183 0)
(-0.116028 0.0220251 0)
(-0.118524 0.0161534 0)
(-0.120264 0.0100715 0)
(-0.121227 0.00384892 0)
(-0.121402 -0.00244303 0)
(-0.120781 -0.00873153 0)
(-0.119366 -0.014942 0)
(-0.117167 -0.0209981 0)
(-0.1142 -0.0268219 0)
(-0.110492 -0.0323345 0)
(-0.106078 -0.0374558 0)
(-0.101002 -0.0421062 0)
(-0.0953179 -0.0462068 0)
(-0.0890894 -0.049681 0)
(-0.0823905 -0.052456 0)
(-0.0753047 -0.0544642 0)
(-0.0679257 -0.0556458 0)
(-0.0603564 -0.0559504 0)
(-0.052708 -0.0553395 0)
(-0.0450997 -0.0537893 0)
(-0.0376569 -0.0512927 0)
(-0.0305101 -0.0478623 0)
(-0.0237932 -0.0435321 0)
(-0.0176418 -0.0383602 0)
(-0.0121922 -0.0324302 0)
(-0.0075757 -0.0258526 0)
(-0.00391128 -0.018765 0)
(-0.0013563 -0.0113307 0)
(-0.000190816 -0.00374622 0)
(-0.000214915 0.00465887 0)
(-0.00149735 0.0137588 0)
(-0.00427693 0.0224201 0)
(-0.00822484 0.0304729 0)
(-0.0131541 0.0377844 0)
(-0.0189269 0.0442496 0)
(-0.0253983 0.0497905 0)
(-0.0324233 0.0543545 0)
(-0.0398627 0.057912 0)
(-0.0475831 0.0604537 0)
(-0.0554576 0.0619875 0)
(-0.0633666 0.062536 0)
(-0.0711979 0.0621341 0)
(-0.0788472 0.0608264 0)
(-0.0862186 0.0586652 0)
(-0.0932242 0.0557087 0)
(-0.0997842 0.0520196 0)
(-0.105827 0.047664 0)
(-0.111288 0.0427103 0)
(-0.116112 0.0372285 0)
(-0.12025 0.0312903 0)
(-0.123659 0.0249684 0)
(-0.126304 0.0183368 0)
(-0.128158 0.0114705 0)
(-0.1292 0.00444642 0)
(-0.129415 -0.00265726 0)
(-0.128796 -0.00976027 0)
(-0.127344 -0.0167804 0)
(-0.125067 -0.0236334 0)
(-0.12198 -0.0302329 0)
(-0.118109 -0.0364911 0)
(-0.113488 -0.0423188 0)
(-0.108159 -0.0476266 0)
(-0.102177 -0.0523255 0)
(-0.0956058 -0.0563287 0)
(-0.0885205 -0.0595529 0)
(-0.0810073 -0.0619201 0)
(-0.0731631 -0.0633604 0)
(-0.0650958 -0.0638136 0)
(-0.056923 -0.0632326 0)
(-0.0487719 -0.0615856 0)
(-0.0407776 -0.0588593 0)
(-0.0330819 -0.0550609 0)
(-0.0258313 -0.0502217 0)
(-0.0191758 -0.044398 0)
(-0.0132668 -0.0376742 0)
(-0.00825138 -0.0301631 0)
(-0.00426356 -0.0220062 0)
(-0.00147939 -0.0133722 0)
(-0.000208265 -0.00446483 0)
(-0.000232114 0.00545022 0)
(-0.00161555 0.0159775 0)
(-0.00461129 0.0259076 0)
(-0.00886102 0.0350695 0)
(-0.0141593 0.0433316 0)
(-0.0203542 0.050591 0)
(-0.0272862 0.0567735 0)
(-0.0347971 0.0618314 0)
(-0.0427357 0.0657411 0)
(-0.0509581 0.0685 0)
(-0.0593286 0.0701236 0)
(-0.06772 0.0706427 0)
(-0.0760142 0.0701006 0)
(-0.0841024 0.0685504 0)
(-0.0918851 0.0660532 0)
(-0.099272 0.0626758 0)
(-0.106182 0.0584894 0)
(-0.112542 0.0535681 0)
(-0.118287 0.0479882 0)
(-0.123362 0.0418274 0)
(-0.127716 0.0351646 0)
(-0.131309 0.0280795 0)
(-0.134104 0.0206531 0)
(-0.136075 0.0129674 0)
(-0.137199 0.00510572 0)
(-0.13746 -0.00284657 0)
(-0.136852 -0.0108022 0)
(-0.135373 -0.0186713 0)
(-0.133029 -0.026362 0)
(-0.129835 -0.0337795 0)
(-0.125814 -0.0408271 0)
(-0.120999 -0.047406 0)
(-0.11543 -0.0534169 0)
(-0.109162 -0.0587601 0)
(-0.102258 -0.0633375 0)
(-0.0947933 -0.0670546 0)
(-0.0868567 -0.0698218 0)
(-0.0785481 -0.0715576 0)
(-0.0699799 -0.0721908 0)
(-0.0612763 -0.0716636 0)
(-0.0525726 -0.069935 0)
(-0.0440139 -0.0669831 0)
(-0.0357537 -0.0628088 0)
(-0.0279524 -0.0574385 0)
(-0.0207747 -0.0509261 0)
(-0.0143885 -0.0433554 0)
(-0.00895776 -0.0348412 0)
(-0.00463244 -0.025529 0)
(-0.00160857 -0.0155936 0)
(-0.000226669 -0.00524728 0)
(-0.000249962 0.00630267 0)
(-0.00173762 0.0183655 0)
(-0.00495575 0.029657 0)
(-0.00951528 0.0400049 0)
(-0.0151914 0.0492784 0)
(-0.0218171 0.0573779 0)
(-0.0292181 0.0642335 0)
(-0.0372221 0.069804 0)
(-0.0456653 0.0740732 0)
(-0.0543933 0.0770468 0)
(-0.0632609 0.0787495 0)
(-0.0721338 0.0792218 0)
(-0.0808878 0.0785167 0)
(-0.0894099 0.0766975 0)
(-0.0975973 0.0738349 0)
(-0.105358 0.0700054 0)
(-0.112609 0.0652893 0)
(-0.119277 0.0597694 0)
(-0.125298 0.0535304 0)
(-0.130616 0.0466577 0)
(-0.135182 0.0392375 0)
(-0.138955 0.0313568 0)
(-0.141899 0.023103 0)
(-0.143987 0.0145648 0)
(-0.145196 0.00583198 0)
(-0.145511 -0.00300349 0)
(-0.144923 -0.0118475 0)
(-0.143428 -0.0206032 0)
(-0.141031 -0.0291709 0)
(-0.137745 -0.0374476 0)
(-0.133591 -0.0453278 0)
(-0.128597 -0.052703 0)
(-0.122805 -0.0594634 0)
(-0.116266 -0.0654982 0)
(-0.109042 -0.0706975 0)
(-0.10121 -0.074954 0)
(-0.0928573 -0.0781655 0)
(-0.0840883 -0.0802374 0)
(-0.0750192 -0.0810856 0)
(-0.0657805 -0.0806402 0)
(-0.0565155 -0.0788484 0)
(-0.0473799 -0.0756785 0)
(-0.0385396 -0.0711227 0)
(-0.0301691 -0.0652011 0)
(-0.0224495 -0.0579634 0)
(-0.0155661 -0.0494922 0)
(-0.00970092 -0.0399034 0)
(-0.00502144 -0.0293468 0)
(-0.00174521 -0.0180039 0)
(-0.000246266 -0.00609707 0)
(-0.000268596 0.00721846 0)
(-0.00186434 0.0209282 0)
(-0.00531234 0.0336761 0)
(-0.010191 0.045288 0)
(-0.016255 0.0556344 0)
(-0.0233215 0.0646192 0)
(-0.0312002 0.0721786 0)
(-0.0397043 0.0782787 0)
(-0.0486568 0.0829124 0)
(-0.0578922 0.0860957 0)
(-0.0672562 0.0878643 0)
(-0.0766067 0.0882697 0)
(-0.0858141 0.0873768 0)
(-0.0947612 0.08526 0)
(-0.103343 0.0820012 0)
(-0.111465 0.0776874 0)
(-0.119044 0.0724088 0)
(-0.126009 0.0662578 0)
(-0.132294 0.0593275 0)
(-0.137844 0.0517115 0)
(-0.142613 0.0435032 0)
(-0.146559 0.0347965 0)
(-0.149648 0.0256854 0)
(-0.151853 0.0162646 0)
(-0.153151 0.00663006 0)
(-0.153525 -0.00312013 0)
(-0.152966 -0.0128855 0)
(-0.151468 -0.0225627 0)
(-0.149034 -0.0320444 0)
(-0.145674 -0.04122 0)
(-0.141406 -0.049975 0)
(-0.136255 -0.0581913 0)
(-0.130261 -0.0657483 0)
(-0.12347 -0.0725234 0)
(-0.115946 -0.0783941 0)
(-0.107761 -0.0832395 0)
(-0.0990055 -0.0869432 0)
(-0.0897845 -0.0893959 0)
(-0.0802184 -0.0904989 0)
(-0.0704433 -0.0901677 0)
(-0.0606109 -0.0883359 0)
(-0.0508873 -0.0849594 0)
(-0.0414514 -0.0800199 0)
(-0.032493 -0.073529 0)
(-0.0242103 -0.0655308 0)
(-0.0168076 -0.0561051 0)
(-0.0104866 -0.0453687 0)
(-0.00543392 -0.0334753 0)
(-0.00189065 -0.020614 0)
(-0.000267283 -0.00701841 0)
(-0.000288144 0.00820019 0)
(-0.00199646 0.0236721 0)
(-0.00568291 0.0379739 0)
(-0.0108913 0.0509292 0)
(-0.0173544 0.06241 0)
(-0.0248721 0.0723247 0)
(-0.0332375 0.0806165 0)
(-0.0422479 0.0872608 0)
(-0.051713 0.0922613 0)
(-0.0614555 0.0956463 0)
(-0.0713119 0.0974641 0)
(-0.0811325 0.0977798 0)
(-0.0907826 0.0966713 0)
(-0.100141 0.0942261 0)
(-0.109101 0.0905385 0)
(-0.117567 0.0857071 0)
(-0.125457 0.0798331 0)
(-0.132699 0.0730187 0)
(-0.139231 0.0653661 0)
(-0.144999 0.056977 0)
(-0.149957 0.0479522 0)
(-0.154066 0.0383922 0)
(-0.157294 0.028397 0)
(-0.159613 0.0180672 0)
(-0.161001 0.00750423 0)
(-0.161441 -0.0031884 0)
(-0.160921 -0.0139045 0)
(-0.159435 -0.0245345 0)
(-0.156982 -0.0349645 0)
(-0.153569 -0.0450761 0)
(-0.149211 -0.0547465 0)
(-0.143929 -0.0638477 0)
(-0.137759 -0.0722483 0)
(-0.130744 -0.0798135 0)
(-0.122942 -0.0864073 0)
(-0.114428 -0.0918941 0)
(-0.105288 -0.0961418 0)
(-0.0956298 -0.0990247 0)
(-0.0855756 -0.100427 0)
(-0.0752674 -0.100248 0)
(-0.0648648 -0.0984049 0)
(-0.0545445 -0.0948384 0)
(-0.044499 -0.0895174 0)
(-0.034934 -0.0824426 0)
(-0.0260662 -0.0736507 0)
(-0.0181206 -0.0632171 0)
(-0.0113203 -0.0512586 0)
(-0.00587307 -0.0379327 0)
(-0.00204614 -0.0234364 0)
(-0.00028994 -0.00801617 0)
(-0.000308728 0.00925086 0)
(-0.00213469 0.0266046 0)
(-0.00606922 0.0425605 0)
(-0.0116191 0.0569399 0)
(-0.0184933 0.0696164 0)
(-0.0264732 0.080504 0)
(-0.0353337 0.0895545 0)
(-0.0448556 0.0967543 0)
(-0.0548344 0.10212 0)
(-0.0650807 0.105695 0)
(-0.0754214 0.107541 0)
(-0.0856999 0.107741 0)
(-0.0957763 0.106385 0)
(-0.105527 0.103578 0)
(-0.114842 0.0994272 0)
(-0.123629 0.0940438 0)
(-0.131805 0.0875411 0)
(-0.1393 0.0800317 0)
(-0.146055 0.0716271 0)
(-0.152019 0.0624375 0)
(-0.157149 0.0525708 0)
(-0.161407 0.0421337 0)
(-0.164763 0.031232 0)
(-0.167191 0.0199713 0)
(-0.168669 0.00845784 0)
(-0.16918 -0.00320014 0)
(-0.16871 -0.0148915 0)
(-0.167251 -0.0265013 0)
(-0.164801 -0.0379096 0)
(-0.16136 -0.0489912 0)
(-0.156941 -0.0596148 0)
(-0.15156 -0.0696433 0)
(-0.145246 -0.078934 0)
(-0.138039 -0.0873397 0)
(-0.129994 -0.0947101 0)
(-0.12118 -0.100894 0)
(-0.111683 -0.105741 0)
(-0.101608 -0.109109 0)
(-0.0910816 -0.110862 0)
(-0.0802495 -0.110879 0)
(-0.0692787 -0.109059 0)
(-0.0583567 -0.105326 0)
(-0.0476896 -0.0996309 0)
(-0.0375003 -0.0919622 0)
(-0.0280254 -0.0823462 0)
(-0.0195121 -0.0708525 0)
(-0.0122071 -0.0575963 0)
(-0.00634201 -0.0427387 0)
(-0.00221293 -0.026485 0)
(-0.000314456 -0.00909588 0)
(-0.000330473 0.0103738 0)
(-0.00227973 0.0297338 0)
(-0.00647302 0.0474472 0)
(-0.0123772 0.0633323 0)
(-0.0196752 0.0772654 0)
(-0.0281283 0.089167 0)
(-0.0374918 0.0989991 0)
(-0.0475287 0.106762 0)
(-0.0580193 0.112487 0)
(-0.068762 0.116233 0)
(-0.0795741 0.118083 0)
(-0.090292 0.118135 0)
(-0.100771 0.116498 0)
(-0.110886 0.113292 0)
(-0.120528 0.108641 0)
(-0.129603 0.10267 0)
(-0.138032 0.0955045 0)
(-0.145748 0.0872693 0)
(-0.152696 0.0780851 0)
(-0.158828 0.0680703 0)
(-0.164105 0.0573399 0)
(-0.168492 0.0460066 0)
(-0.171962 0.034181 0)
(-0.17449 0.021973 0)
(-0.176056 0.00949289 0)
(-0.176642 -0.00314733 0)
(-0.176234 -0.0158326 0)
(-0.17482 -0.0284436 0)
(-0.172395 -0.0408552 0)
(-0.168957 -0.0529359 0)
(-0.16451 -0.0645471 0)
(-0.159068 -0.0755425 0)
(-0.152651 -0.0857686 0)
(-0.145295 -0.0950651 0)
(-0.137047 -0.103267 0)
(-0.127972 -0.110206 0)
(-0.118153 -0.115714 0)
(-0.107693 -0.119626 0)
(-0.096719 -0.121786 0)
(-0.0853796 -0.122051 0)
(-0.073849 -0.120298 0)
(-0.0623251 -0.116428 0)
(-0.0510281 -0.110374 0)
(-0.0401988 -0.102107 0)
(-0.0300951 -0.0916412 0)
(-0.0209885 -0.0790371 0)
(-0.0131521 -0.0644071 0)
(-0.00684379 -0.0479152 0)
(-0.00239228 -0.0297754 0)
(-0.000341058 -0.0102637 0)
(-0.000353517 0.0115728 0)
(-0.00243237 0.033069 0)
(-0.00689619 0.0526462 0)
(-0.0131686 0.0701197 0)
(-0.0209039 0.085369 0)
(-0.0298411 0.0983226 0)
(-0.0397141 0.108955 0)
(-0.0502669 0.117282 0)
(-0.0612639 0.123354 0)
(-0.0724905 0.12725 0)
(-0.0837545 0.129071 0)
(-0.0948861 0.128938 0)
(-0.105737 0.12698 0)
(-0.116181 0.123335 0)
(-0.126109 0.118143 0)
(-0.13543 0.111548 0)
(-0.14407 0.103687 0)
(-0.151966 0.0946959 0)
(-0.159067 0.0847068 0)
(-0.165331 0.0738458 0)
(-0.170723 0.0622346 0)
(-0.175214 0.0499911 0)
(-0.178778 0.0372303 0)
(-0.181394 0.0240654 0)
(-0.183043 0.0106096 0)
(-0.183707 -0.00302246 0)
(-0.183371 -0.016713 0)
(-0.182022 -0.0303394 0)
(-0.17965 -0.0437727 0)
(-0.176248 -0.0568761 0)
(-0.171814 -0.0695043 0)
(-0.166354 -0.0815025 0)
(-0.159884 -0.0927066 0)
(-0.15243 -0.102944 0)
(-0.144031 -0.112033 0)
(-0.134746 -0.119788 0)
(-0.124652 -0.12602 0)
(-0.113848 -0.130543 0)
(-0.102461 -0.133176 0)
(-0.0906401 -0.133749 0)
(-0.0785662 -0.132114 0)
(-0.0664468 -0.128147 0)
(-0.0545163 -0.121758 0)
(-0.0430342 -0.112896 0)
(-0.0322813 -0.101559 0)
(-0.0225559 -0.0877973 0)
(-0.0141601 -0.0717177 0)
(-0.00738151 -0.0534859 0)
(-0.00258548 -0.0333247 0)
(-0.000369982 -0.0115265 0)
(-0.000378017 0.012852 0)
(-0.00259349 0.0366202 0)
(-0.00734086 0.0581709 0)
(-0.0139964 0.0773162 0)
(-0.0221831 0.0939395 0)
(-0.0316149 0.107979 0)
(-0.0420024 0.119425 0)
(-0.053069 0.128312 0)
(-0.064562 0.13471 0)
(-0.0762537 0.138724 0)
(-0.0879427 0.140479 0)
(-0.0994532 0.140117 0)
(-0.110635 0.137792 0)
(-0.12136 0.133663 0)
(-0.131524 0.12789 0)
(-0.14104 0.120631 0)
(-0.149837 0.11204 0)
(-0.157861 0.102266 0)
(-0.165066 0.0914499 0)
(-0.171416 0.0797259 0)
(-0.176883 0.0672222 0)
(-0.181444 0.0540612 0)
(-0.185076 0.0403613 0)
(-0.187763 0.026238 0)
(-0.189487 0.011806 0)
(-0.190231 -0.00281881 0)
(-0.189978 -0.0175172 0)
(-0.188714 -0.0321648 0)
(-0.186424 -0.0466299 0)
(-0.183096 -0.060772 0)
(-0.178722 -0.0744401 0)
(-0.1733 -0.0874719 0)
(-0.166834 -0.0996932 0)
(-0.159343 -0.110918 0)
(-0.150857 -0.120951 0)