/*--------------------------------*- C++ -*----------------------------------*\
  =========                 |
  \\      /  F ield         | OpenFOAM: The Open Source CFD Toolbox
   \\    /   O peration     | Website:  https://openfoam.org
    \\  /    A nd           | Version:  7
     \\/     M anipulation  |
\*---------------------------------------------------------------------------*/
FoamFile
{
    version     2.0;
    format      ascii;
    class       volScalarField;
    location    "0.028";
    object      p;
}
// * * * * * * * * * * * * * * * * * * * * * * * * * * * * * * * * * * * * * //

dimensions      [0 2 -2 0 0 0 0];

internalField   nonuniform List<scalar> 
2500
(
3.09479e-05
6.38502
9.0493
10.1445
10.7367
11.0861
11.3005
11.4415
11.5407
11.614
11.6704
11.7154
11.7525
11.7841
11.812
11.8371
11.8605
11.8826
11.904
11.9251
11.9459
11.9668
11.9879
12.0093
12.0312
12.0535
12.0764
12.1001
12.1247
12.1504
12.1773
12.2059
12.2364
12.2693
12.3053
12.3451
12.3897
12.4405
12.4993
12.5689
12.6529
12.7573
12.8913
13.0714
13.3298
13.7304
14.3898
15.58
18.3604
24.8694
4.86824
7.46782
8.88528
9.76856
10.3721
10.7787
11.054
11.2467
11.3861
11.4903
11.5704
11.6339
11.6856
11.729
11.7663
11.7992
11.8291
11.8567
11.8827
11.9077
11.932
11.956
11.9798
12.0037
12.0279
12.0526
12.0779
12.104
12.1312
12.1596
12.1898
12.2219
12.2566
12.2945
12.3363
12.3831
12.4364
12.4979
12.5702
12.6569
12.7632
12.8966
13.0688
13.2984
13.6159
14.0715
14.7349
15.6909
17.1941
19.9111
7.70424
8.46774
9.21074
9.83408
10.3207
10.6831
10.9503
11.1492
11.2995
11.4152
11.5061
11.5791
11.639
11.6894
11.7328
11.7709
11.8052
11.8366
11.8659
11.8938
11.9207
11.947
11.9729
11.9988
12.0248
12.0513
12.0783
12.1063
12.1353
12.1659
12.1983
12.233
12.2705
12.3117
12.3574
12.4087
12.4672
12.535
12.6146
12.7097
12.8255
12.969
13.1505
13.3842
13.6904
14.097
14.6337
15.3114
16.1089
16.9371
9.11338
9.29041
9.66969
10.0708
10.421
10.7068
10.9353
11.1163
11.2598
11.3745
11.4672
11.5433
11.6069
11.6609
11.7077
11.7491
11.7863
11.8204
11.8522
11.8822
11.9111
11.9392
11.9668
11.9942
12.0217
12.0496
12.0781
12.1074
12.138
12.1701
12.2042
12.2406
12.2802
12.3235
12.3716
12.4255
12.4868
12.5574
12.6397
12.737
12.8534
12.9945
13.1673
13.3806
13.6444
13.9687
14.3588
14.8005
15.2153
15.423
9.92509
9.9047
10.0809
10.3249
10.5647
10.7798
10.9649
11.1203
11.2494
11.3565
11.4459
11.5211
11.5852
11.6405
11.689
11.7322
11.7713
11.8072
11.8407
11.8724
11.9028
11.9323
11.9613
11.99
12.0187
12.0478
12.0775
12.108
12.1398
12.1731
12.2084
12.2461
12.287
12.3317
12.3811
12.4363
12.4987
12.5699
12.6519
12.7474
12.8594
12.9916
13.1482
13.3332
13.5497
13.7975
14.0694
14.3427
14.5414
14.5334
10.4358
10.3507
10.4199
10.5623
10.7218
10.8784
11.0228
11.1509
11.2622
11.3581
11.4407
11.512
11.574
11.6286
11.6771
11.7208
11.7606
11.7975
11.8321
11.8648
11.8963
11.9268
11.9568
11.9865
12.0162
12.0462
12.0767
12.1082
12.1408
12.1749
12.2111
12.2496
12.2912
12.3365
12.3864
12.4416
12.5036
12.5734
12.6529
12.7438
12.848
12.9677
13.1047
13.26
13.4322
13.6164
13.8012
13.9647
14.0473
13.9638
10.7758
10.6782
10.6941
10.7732
10.8764
10.9874
11.0968
11.1991
11.292
11.3751
11.4489
11.5143
11.5726
11.6248
11.6719
11.715
11.7547
11.7917
11.8266
11.8598
11.8919
11.923
11.9536
11.984
12.0143
12.045
12.0761
12.1081
12.1413
12.176
12.2125
12.2514
12.2932
12.3384
12.3878
12.4422
12.5025
12.5697
12.6449
12.7293
12.8239
12.9296
13.0465
13.1736
13.3076
13.4416
13.5646
13.6588
13.6819
13.5802
11.0168
10.9246
10.9145
10.955
11.0196
11.0963
11.1774
11.2573
11.333
11.4032
11.4675
11.5261
11.5794
11.6282
11.673
11.7144
11.7531
11.7896
11.8242
11.8575
11.8896
11.921
11.9519
11.9826
12.0133
12.0443
12.0758
12.1082
12.1416
12.1764
12.2131
12.2519
12.2934
12.338
12.3863
12.4391
12.4968
12.5604
12.6303
12.7073
12.7917
12.8833
12.9814
13.0837
13.1862
13.2821
13.3622
13.4133
13.4063
13.3072
11.1976
11.115
11.0925
11.1096
11.1481
11.1998
11.2587
11.3199
11.3805
11.4386
11.4935
11.5449
11.5928
11.6375
11.6793
11.7186
11.7557
11.791
11.825
11.8577
11.8896
11.9209
11.9518
11.9825
12.0133
12.0444
12.076
12.1084
12.1419
12.1766
12.213
12.2514
12.2922
12.3358
12.3826
12.4332
12.4879
12.5472
12.6115
12.6808
12.755
12.8334
12.9146
12.9959
13.0734
13.1411
13.1916
13.2158
13.1939
13.1032
11.339
11.2659
11.2379
11.2407
11.2616
11.2953
11.3372
11.3833
11.4309
11.4784
11.5246
11.569
11.6113
11.6516
11.69
11.7267
11.7618
11.7957
11.8284
11.8604
11.8917
11.9225
11.9531
11.9836
12.0143
12.0453
12.0768
12.109
12.1423
12.1767
12.2126
12.2503
12.2901
12.3324
12.3774
12.4254
12.4767
12.5316
12.59
12.6518
12.7165
12.7829
12.8495
12.9135
12.9715
13.0183
13.0485
13.056
13.0267
12.945
11.4532
11.3881
11.358
11.3521
11.3613
11.382
11.4109
11.445
11.482
11.5202
11.5585
11.5964
11.6334
11.6693
11.7042
11.738
11.7709
11.803
11.8344
11.8652
11.8956
11.9258
11.9559
11.986
12.0163
12.047
12.0782
12.1101
12.1429
12.1768
12.2121
12.2489
12.2875
12.3282
12.3711
12.4164
12.4643
12.5146
12.5674
12.6221
12.6779
12.7338
12.788
12.8381
12.8808
12.9123
12.9285
12.9254
12.8929
12.8193
11.5474
11.4889
11.4582
11.447
11.4483
11.4598
11.479
11.5037
11.5319
11.5622
11.5937
11.6257
11.6577
11.6895
11.7209
11.7518
11.7823
11.8124
11.8422
11.8718
11.9012
11.9305
11.9599
11.9894
12.0192
12.0494
12.0802
12.1116
12.1438
12.1771
12.2115
12.2473
12.2846
12.3235
12.3643
12.4068
12.4512
12.4972
12.5445
12.5927
12.6407
12.6875
12.7313
12.77
12.801
12.8212
12.8277
12.8179
12.7843
12.7177
11.6264
11.5731
11.5428
11.5283
11.5243
11.5291
11.541
11.5583
11.5795
11.6034
11.629
11.6558
11.6833
11.7111
11.7392
11.7673
11.7954
11.8235
11.8516
11.8798
11.908
11.9364
11.9649
11.9937
12.0229
12.0525
12.0826
12.1135
12.1451
12.1775
12.2111
12.2457
12.2816
12.3187
12.3572
12.397
12.438
12.4799
12.5222
12.5645
12.6056
12.6446
12.6798
12.7095
12.7314
12.7432
12.7429
12.7289
12.6953
12.6345
11.6932
11.6442
11.6146
11.5982
11.5905
11.5905
11.597
11.6086
11.6241
11.6426
11.6633
11.6856
11.709
11.7333
11.7583
11.7837
11.8095
11.8357
11.8621
11.8888
11.9158
11.9431
11.9707
11.9987
12.0271
12.0561
12.0856
12.1157
12.1465
12.1782
12.2107
12.2441
12.2785
12.3139
12.3502
12.3874
12.4251
12.4632
12.501
12.5379
12.5731
12.6055
12.6336
12.656
12.6709
12.6765
12.6714
12.6548
12.6218
12.5659
11.7503
11.7047
11.6758
11.6582
11.6481
11.6446
11.647
11.6542
11.6653
11.6794
11.6959
11.7144
11.7343
11.7555
11.7776
11.8005
11.8242
11.8484
11.8732
11.8984
11.9242
11.9504
11.977
12.0042
12.0318
12.06
12.0888
12.1182
12.1482
12.179
12.2104
12.2427
12.2756
12.3093
12.3435
12.3781
12.4129
12.4474
12.4811
12.5135
12.5435
12.5703
12.5926
12.6091
12.6186
12.6196
12.6112
12.593
12.5608
12.509
11.799
11.7562
11.7281
11.7099
11.698
11.6921
11.6914
11.6952
11.7027
11.7133
11.7264
11.7416
11.7585
11.7769
11.7965
11.8172
11.8388
11.8612
11.8844
11.9083
11.9328
11.9579
11.9836
12.0099
12.0367
12.0641
12.0921
12.1208
12.15
12.1798
12.2103
12.2413
12.2729
12.3048
12.3371
12.3694
12.4014
12.4327
12.4629
12.4912
12.5168
12.5389
12.5565
12.5684
12.5737
12.5712
12.5604
12.5412
12.5101
12.4619
11.8406
11.8
11.7727
11.7542
11.7412
11.7334
11.7304
11.7316
11.7363
11.744
11.7543
11.7668
11.7811
11.7971
11.8145
11.8332
11.853
11.8738
11.8955
11.918
11.9414
11.9654
11.9902
12.0156
12.0416
12.0683
12.0956
12.1234
12.1518
12.1808
12.2102
12.2401
12.2703
12.3007
12.3311
12.3613
12.3909
12.4194
12.4464
12.4712
12.4931
12.5114
12.5251
12.5333
12.5353
12.5302
12.5178
12.4981
12.468
12.4228
11.8759
11.8372
11.8107
11.792
11.7781
11.7691
11.7644
11.7635
11.766
11.7715
11.7794
11.7897
11.8018
11.8158
11.8313
11.8482
11.8663
11.8856
11.906
11.9274
11.9496
11.9727
11.9965
12.0211
12.0464
12.0723
12.0989
12.126
12.1536
12.1817
12.2102
12.239
12.268
12.297
12.3257
12.354
12.3813
12.4074
12.4317
12.4536
12.4724
12.4874
12.498
12.5033
12.5027
12.4957
12.4822
12.4622
12.4331
12.3905
11.9057
11.8685
11.8426
11.8239
11.8095
11.7995
11.7935
11.7911
11.7919
11.7955
11.8016
11.81
11.8204
11.8326
11.8464
11.8618
11.8786
11.8966
11.9158
11.936
11.9573
11.9795
12.0025
12.0263
12.0509
12.0761
12.102
12.1284
12.1553
12.1826
12.2102
12.2381
12.2659
12.2936
12.3209
12.3474
12.3729
12.3969
12.4188
12.4382
12.4545
12.4669
12.4749
12.4779
12.4754
12.467
12.4527
12.4326
12.4044
12.364
11.9304
11.8945
11.8691
11.8504
11.8357
11.825
11.818
11.8144
11.8139
11.8161
11.8207
11.8276
11.8365
11.8473
11.8598
11.8739
11.8894
11.9063
11.9245
11.9438
11.9642
11.9856
12.0079
12.031
12.0549
12.0795
12.1048
12.1306
12.1568
12.1834
12.2103
12.2372
12.2641
12.2907
12.3167
12.3418
12.3656
12.3878
12.4079
12.4252
12.4393
12.4497
12.4557
12.4569
12.4529
12.4434
12.4285
12.4086
12.3812
12.3426
11.9505
11.9155
11.8906
11.872
11.857
11.8458
11.8381
11.8337
11.8321
11.8332
11.8367
11.8424
11.8501
11.8598
11.8712
11.8842
11.8988
11.9147
11.932
11.9505
11.9702
11.9909
12.0126
12.0351
12.0584
12.0825
12.1072
12.1325
12.1581
12.1841
12.2103
12.2365
12.2626
12.2882
12.3131
12.337
12.3595
12.3803
12.3987
12.4144
12.4269
12.4356
12.44
12.4399
12.4347
12.4245
12.4092
12.3894
12.3627
12.3256
11.9662
11.932
11.9074
11.8889
11.8738
11.8622
11.854
11.8489
11.8466
11.8468
11.8495
11.8543
11.8611
11.8699
11.8804
11.8926
11.9064
11.9216
11.9382
11.9561
11.9751
11.9953
12.0164
12.0385
12.0614
12.085
12.1092
12.134
12.1592
12.1847
12.2104
12.236
12.2613
12.2862
12.3102
12.3332
12.3546
12.3742
12.3914
12.4059
12.417
12.4244
12.4277
12.4265
12.4206
12.4098
12.3943
12.3745
12.3484
12.3126
11.9778
11.9441
11.9199
11.9014
11.8862
11.8744
11.8659
11.8603
11.8574
11.8571
11.8591
11.8632
11.8694
11.8775
11.8874
11.899
11.9122
11.9269
11.9429
11.9603
11.9789
11.9986
12.0194
12.0411
12.0636
12.0869
12.1108
12.1352
12.1601
12.1852
12.2104
12.2355
12.2604
12.2846
12.308
12.3303
12.3509
12.3697
12.386
12.3995
12.4097
12.4162
12.4186
12.4167
12.4102
12.399
12.3834
12.3637
12.3381
12.3031
11.9855
11.9522
11.9281
11.9096
11.8944
11.8825
11.8737
11.8678
11.8646
11.8639
11.8655
11.8692
11.875
11.8826
11.8921
11.9033
11.9161
11.9304
11.9461
11.9632
11.9815
12.0009
12.0214
12.0428
12.0651
12.0881
12.1118
12.136
12.1606
12.1855
12.2104
12.2352
12.2597
12.2836
12.3066
12.3283
12.3485
12.3666
12.3824
12.3953
12.4048
12.4107
12.4126
12.4102
12.4033
12.3919
12.3762
12.3566
12.3313
12.2969
11.9893
11.9561
11.9321
11.9137
11.8985
11.8865
11.8776
11.8716
11.8682
11.8673
11.8687
11.8722
11.8778
11.8852
11.8945
11.9055
11.9181
11.9322
11.9477
11.9646
11.9828
12.002
12.0224
12.0437
12.0659
12.0888
12.1123
12.1364
12.1609
12.1856
12.2104
12.2351
12.2594
12.2831
12.3058
12.3274
12.3472
12.3651
12.3806
12.3931
12.4024
12.408
12.4097
12.407
12.4
12.3884
12.3727
12.3531
12.3279
12.2939
11.9893
11.9561
11.9321
11.9137
11.8985
11.8865
11.8776
11.8716
11.8682
11.8673
11.8687
11.8722
11.8778
11.8852
11.8945
11.9055
11.9181
11.9322
11.9477
11.9646
11.9828
12.002
12.0224
12.0437
12.0659
12.0888
12.1123
12.1364
12.1609
12.1856
12.2104
12.2351
12.2594
12.2831
12.3058
12.3274
12.3472
12.3651
12.3806
12.3931
12.4024
12.408
12.4097
12.407
12.4
12.3884
12.3727
12.3531
12.3279
12.2939
11.9855
11.9522
11.9281
11.9096
11.8944
11.8825
11.8737
11.8678
11.8646
11.8639
11.8655
11.8692
11.875
11.8826
11.8921
11.9033
11.9161
11.9304
11.9461
11.9632
11.9815
12.0009
12.0214
12.0428
12.0651
12.0881
12.1118
12.136
12.1606
12.1855
12.2104
12.2352
12.2597
12.2836
12.3066
12.3283
12.3485
12.3666
12.3824
12.3953
12.4048
12.4108
12.4126
12.4102
12.4033
12.3919
12.3762
12.3566
12.3313
12.2969
11.9778
11.9442
11.9199
11.9014
11.8862
11.8744
11.8659
11.8603
11.8574
11.8571
11.8591
11.8632
11.8694
11.8775
11.8874
11.899
11.9122
11.9269
11.9429
11.9603
11.9789
11.9986
12.0194
12.0411
12.0636
12.0869
12.1108
12.1352
12.1601
12.1852
12.2104
12.2355
12.2604
12.2846
12.308
12.3303
12.351
12.3697
12.386
12.3995
12.4097
12.4162
12.4186
12.4167
12.4102
12.399
12.3834
12.3637
12.3381
12.3031
11.9662
11.932
11.9075
11.8889
11.8738
11.8622
11.854
11.8489
11.8466
11.8468
11.8495
11.8543
11.8611
11.8699
11.8804
11.8926
11.9064
11.9216
11.9382
11.9561
11.9751
11.9953
12.0164
12.0385
12.0614
12.085
12.1092
12.134
12.1592
12.1847
12.2104
12.236
12.2613
12.2862
12.3102
12.3332
12.3546
12.3742
12.3915
12.4059
12.417
12.4244
12.4277
12.4265
12.4206
12.4098
12.3943
12.3745
12.3484
12.3126
11.9505
11.9155
11.8906
11.872
11.857
11.8458
11.8381
11.8337
11.8321
11.8332
11.8367
11.8424
11.8501
11.8598
11.8712
11.8842
11.8988
11.9147
11.932
11.9505
11.9702
11.9909
12.0126
12.0351
12.0584
12.0825
12.1072
12.1325
12.1581
12.1841
12.2103
12.2365
12.2626
12.2882
12.3131
12.337
12.3595
12.3803
12.3987
12.4144
12.4269
12.4356
12.44
12.4399
12.4347
12.4245
12.4092
12.3894
12.3627
12.3256
11.9304
11.8945
11.8691
11.8504
11.8357
11.825
11.818
11.8144
11.8139
11.8161
11.8207
11.8276
11.8365
11.8473
11.8598
11.8739
11.8894
11.9064
11.9245
11.9438
11.9642
11.9856
12.0079
12.031
12.0549
12.0795
12.1048
12.1306
12.1568
12.1834
12.2103
12.2372
12.2641
12.2907
12.3167
12.3418
12.3656
12.3878
12.4079
12.4252
12.4393
12.4497
12.4557
12.4569
12.4529
12.4434
12.4285
12.4086
12.3812
12.3426
11.9057
11.8685
11.8426
11.8239
11.8095
11.7995
11.7935
11.7911
11.7919
11.7955
11.8016
11.81
11.8204
11.8326
11.8465
11.8618
11.8786
11.8966
11.9158
11.936
11.9573
11.9795
12.0025
12.0263
12.0509
12.0761
12.102
12.1284
12.1553
12.1826
12.2102
12.2381
12.2659
12.2936
12.3209
12.3474
12.3729
12.3969
12.4188
12.4382
12.4545
12.4669
12.4749
12.4779
12.4754
12.467
12.4527
12.4326
12.4044
12.364
11.876
11.8372
11.8107
11.792
11.7782
11.7691
11.7644
11.7635
11.766
11.7715
11.7795
11.7897
11.8019
11.8158
11.8313
11.8482
11.8663
11.8856
11.906
11.9274
11.9496
11.9727
11.9965
12.0211
12.0464
12.0723
12.0989
12.126
12.1536
12.1817
12.2102
12.239
12.268
12.297
12.3257
12.354
12.3813
12.4074
12.4317
12.4536
12.4724
12.4874
12.498
12.5033
12.5027
12.4958
12.4822
12.4622
12.4331
12.3905
11.8406
11.8
11.7728
11.7542
11.7412
11.7334
11.7304
11.7316
11.7363
11.744
11.7543
11.7668
11.7811
11.7971
11.8145
11.8332
11.853
11.8738
11.8955
11.918
11.9414
11.9654
11.9902
12.0156
12.0416
12.0683
12.0956
12.1234
12.1518
12.1808
12.2102
12.2401
12.2703
12.3007
12.3311
12.3613
12.3909
12.4194
12.4464
12.4712
12.4931
12.5114
12.5251
12.5333
12.5353
12.5302
12.5178
12.4981
12.468
12.4228
11.799
11.7562
11.7281
11.7099
11.698
11.6921
11.6914
11.6952
11.7027
11.7133
11.7264
11.7416
11.7585
11.7769
11.7965
11.8172
11.8388
11.8612
11.8844
11.9083
11.9328
11.9579
11.9836
12.0099
12.0367
12.0641
12.0922
12.1208
12.15
12.1798
12.2103
12.2413
12.2729
12.3048
12.3371
12.3694
12.4014
12.4327
12.4629
12.4912
12.5168
12.5389
12.5565
12.5684
12.5737
12.5712
12.5604
12.5412
12.5101
12.4619
11.7503
11.7047
11.6758
11.6583
11.6481
11.6446
11.647
11.6542
11.6653
11.6794
11.6959
11.7144
11.7343
11.7555
11.7776
11.8006
11.8242
11.8484
11.8732
11.8984
11.9242
11.9504
11.977
12.0042
12.0318
12.06
12.0888
12.1182
12.1482
12.179
12.2104
12.2427
12.2756
12.3093
12.3435
12.3781
12.4129
12.4474
12.4811
12.5135
12.5435
12.5703
12.5926
12.6092
12.6186
12.6196
12.6112
12.593
12.5608
12.5091
11.6933
11.6443
11.6146
11.5982
11.5905
11.5905
11.597
11.6086
11.6241
11.6426
11.6633
11.6856
11.709
11.7334
11.7583
11.7837
11.8096
11.8357
11.8621
11.8888
11.9158
11.9431
11.9707
11.9987
12.0272
12.0561
12.0856
12.1157
12.1465
12.1782
12.2107
12.2441
12.2785
12.3139
12.3503
12.3874
12.4251
12.4632
12.501
12.538
12.5732
12.6055
12.6336
12.656
12.6709
12.6765
12.6714
12.6548
12.6218
12.5659
11.6264
11.5732
11.5428
11.5284
11.5243
11.5291
11.5411
11.5584
11.5795
11.6034
11.629
11.6558
11.6833
11.7111
11.7392
11.7673
11.7954
11.8235
11.8517
11.8798
11.908
11.9364
11.9649
11.9937
12.0229
12.0525
12.0827
12.1135
12.1451
12.1776
12.2111
12.2457
12.2816
12.3187
12.3572
12.397
12.438
12.4799
12.5222
12.5645
12.6056
12.6446
12.6798
12.7095
12.7314
12.7432
12.7429
12.7289
12.6953
12.6345
11.5474
11.4889
11.4583
11.4471
11.4483
11.4598
11.479
11.5037
11.5319
11.5623
11.5938
11.6257
11.6577
11.6895
11.7209
11.7518
11.7823
11.8125
11.8423
11.8718
11.9012
11.9305
11.9599
11.9894
12.0192
12.0494
12.0802
12.1116
12.1438
12.1771
12.2115
12.2473
12.2846
12.3236
12.3643
12.4068
12.4512
12.4972
12.5445
12.5927
12.6407
12.6875
12.7313
12.77
12.801
12.8212
12.8277
12.8179
12.7843
12.7177
11.4532
11.3882
11.358
11.3521
11.3613
11.382
11.411
11.4451
11.482
11.5202
11.5585
11.5964
11.6334
11.6693
11.7042
11.738
11.7709
11.803
11.8344
11.8652
11.8956
11.9258
11.9559
11.986
12.0163
12.047
12.0782
12.1101
12.1429
12.1768
12.2121
12.2489
12.2875
12.3282
12.3711
12.4164
12.4643
12.5147
12.5674
12.6221
12.678
12.7339
12.788
12.8381
12.8808
12.9123
12.9285
12.9254
12.8929
12.8194
11.339
11.266
11.2379
11.2407
11.2617
11.2954
11.3372
11.3833
11.431
11.4784
11.5246
11.569
11.6113
11.6517
11.69
11.7267
11.7618
11.7957
11.8285
11.8604
11.8917
11.9225
11.9531
11.9837
12.0143
12.0453
12.0768
12.1091
12.1423
12.1767
12.2126
12.2503
12.2902
12.3324
12.3774
12.4254
12.4767
12.5316
12.59
12.6518
12.7165
12.7829
12.8495
12.9135
12.9715
13.0183
13.0485
13.056
13.0267
12.945
11.1976
11.1151
11.0926
11.1096
11.1481
11.1998
11.2587
11.3199
11.3805
11.4386
11.4936
11.545
11.5929
11.6375
11.6793
11.7186
11.7557
11.7911
11.825
11.8577
11.8896
11.9209
11.9518
11.9825
12.0133
12.0444
12.076
12.1084
12.1419
12.1766
12.213
12.2514
12.2922
12.3358
12.3826
12.4332
12.4879
12.5472
12.6115
12.6808
12.755
12.8334
12.9146
12.9959
13.0734
13.1411
13.1916
13.2159
13.1939
13.1032
11.0169
10.9247
10.9145
10.9551
11.0196
11.0964
11.1774
11.2573
11.333
11.4032
11.4675
11.5261
11.5794
11.6282
11.673
11.7144
11.7532
11.7896
11.8243
11.8575
11.8896
11.921
11.9519
11.9826
12.0133
12.0443
12.0759
12.1082
12.1416
12.1765
12.2131
12.2519
12.2934
12.338
12.3863
12.4391
12.4968
12.5604
12.6304
12.7074
12.7917
12.8834
12.9814
13.0837
13.1862
13.2822
13.3622
13.4133
13.4063
13.3073
10.7758
10.6782
10.6941
10.7733
10.8764
10.9874
11.0968
11.1991
11.2921
11.3752
11.4489
11.5144
11.5726
11.6248
11.672
11.715
11.7547
11.7917
11.8266
11.8598
11.8919
11.923
11.9536
11.984
12.0143
12.045
12.0761
12.1082
12.1413
12.176
12.2125
12.2514
12.2932
12.3384
12.3878
12.4422
12.5025
12.5697
12.6449
12.7293
12.8239
12.9296
13.0465
13.1736
13.3076
13.4416
13.5646
13.6589
13.6819
13.5802
10.4358
10.3507
10.42
10.5623
10.7218
10.8785
11.0228
11.1509
11.2622
11.3581
11.4407
11.512
11.5741
11.6286
11.6771
11.7208
11.7607
11.7975
11.8321
11.8648
11.8963
11.9268
11.9568
11.9865
12.0162
12.0462
12.0768
12.1082
12.1408
12.1749
12.2111
12.2496
12.2913
12.3366
12.3864
12.4417
12.5036
12.5735
12.6529
12.7438
12.848
12.9678
13.1048
13.26
13.4323
13.6164
13.8012
13.9647
14.0473
13.9638
9.92514
9.90474
10.081
10.3249
10.5647
10.7799
10.9649
11.1203
11.2494
11.3566
11.4459
11.5212
11.5852
11.6405
11.689
11.7322
11.7713
11.8072
11.8407
11.8724
11.9028
11.9323
11.9613
11.99
12.0188
12.0478
12.0775
12.108
12.1398
12.1731
12.2084
12.2462
12.287
12.3317
12.3811
12.4363
12.4987
12.5699
12.6519
12.7474
12.8594
12.9916
13.1482
13.3332
13.5497
13.7975
14.0694
14.3427
14.5414
14.5334
9.11344
9.29047
9.66974
10.0708
10.421
10.7068
10.9354
11.1164
11.2599
11.3745
11.4672
11.5433
11.6069
11.6609
11.7078
11.7491
11.7863
11.8204
11.8522
11.8823
11.9111
11.9392
11.9668
11.9942
12.0217
12.0496
12.0781
12.1075
12.138
12.1701
12.2042
12.2407
12.2802
12.3235
12.3716
12.4255
12.4868
12.5574
12.6397
12.737
12.8534
12.9945
13.1673
13.3806
13.6444
13.9687
14.3588
14.8005
15.2153
15.423
7.7043
8.4678
9.21079
9.83413
10.3207
10.6831
10.9504
11.1493
11.2996
11.4152
11.5061
11.5791
11.6391
11.6895
11.7328
11.7709
11.8052
11.8366
11.866
11.8938
11.9207
11.947
11.9729
11.9988
12.0248
12.0513
12.0783
12.1063
12.1354
12.1659
12.1983
12.233
12.2706
12.3117
12.3574
12.4087
12.4673
12.535
12.6146
12.7097
12.8255
12.969
13.1505
13.3842
13.6904
14.097
14.6338
15.3114
16.1089
16.9371
4.86831
7.46789
8.88534
9.76861
10.3722
10.7787
11.0541
11.2467
11.3862
11.4903
11.5704
11.6339
11.6856
11.729
11.7663
11.7993
11.8291
11.8567
11.8827
11.9077
11.932
11.956
11.9798
12.0037
12.0279
12.0526
12.0779
12.104
12.1312
12.1597
12.1898
12.2219
12.2566
12.2945
12.3363
12.3832
12.4364
12.4979
12.5703
12.6569
12.7632
12.8966
13.0688
13.2985
13.6159
14.0715
14.7349
15.6909
17.1941
19.9111
0.000136882
6.3851
9.04936
10.1445
10.7368
11.0862
11.3005
11.4416
11.5407
11.614
11.6704
11.7154
11.7525
11.7842
11.812
11.8371
11.8605
11.8826
11.9041
11.9251
11.946
11.9669
11.988
12.0094
12.0312
12.0535
12.0765
12.1001
12.1247
12.1504
12.1773
12.2059
12.2364
12.2693
12.3053
12.3451
12.3897
12.4405
12.4994
12.5689
12.653
12.7573
12.8913
13.0714
13.3298
13.7304
14.3898
15.58
18.3604
24.8694
)
;

boundaryField
{
    movingWallTop
    {
        type            zeroGradient;
    }
    movingWallBottom
    {
        type            zeroGradient;
    }
    fixedWalls
    {
        type            zeroGradient;
    }
    frontAndBack
    {
        type            empty;
    }
}


// ************************************************************************* //
