/*--------------------------------*- C++ -*----------------------------------*\
  =========                 |
  \\      /  F ield         | OpenFOAM: The Open Source CFD Toolbox
   \\    /   O peration     | Website:  https://openfoam.org
    \\  /    A nd           | Version:  7
     \\/     M anipulation  |
\*---------------------------------------------------------------------------*/
FoamFile
{
    version     2.0;
    format      ascii;
    class       volVectorField;
    location    "0.0402";
    object      U;
}
// * * * * * * * * * * * * * * * * * * * * * * * * * * * * * * * * * * * * * //

dimensions      [0 1 -1 0 0 0 0];

internalField   nonuniform List<vector> 
2500
(
(-0.293809 0.15373 0)
(-0.397955 0.128727 0)
(-0.577986 0.0737914 0)
(-0.69625 0.0408674 0)
(-0.76519 0.0233818 0)
(-0.809465 0.0141248 0)
(-0.83998 0.00913638 0)
(-0.861988 0.00632637 0)
(-0.878522 0.00463585 0)
(-0.891369 0.00354486 0)
(-0.901604 0.00279522 0)
(-0.909907 0.00225293 0)
(-0.916735 0.00184419 0)
(-0.922402 0.0015257 0)
(-0.927132 0.00127052 0)
(-0.931091 0.00106101 0)
(-0.934401 0.000885085 0)
(-0.937154 0.000734209 0)
(-0.93942 0.000602138 0)
(-0.941252 0.000484191 0)
(-0.94269 0.000376761 0)
(-0.943765 0.000276994 0)
(-0.944497 0.000182561 0)
(-0.944901 9.1502e-05 0)
(-0.944986 2.10176e-06 0)
(-0.944755 -8.72401e-05 0)
(-0.944205 -0.000178027 0)
(-0.94333 -0.0002718 0)
(-0.942117 -0.00037021 0)
(-0.940548 -0.000475117 0)
(-0.938598 -0.000588718 0)
(-0.936235 -0.000713709 0)
(-0.933416 -0.000853519 0)
(-0.930086 -0.00101265 0)
(-0.926176 -0.00119717 0)
(-0.921592 -0.00141553 0)
(-0.916215 -0.00167985 0)
(-0.90988 -0.00200818 0)
(-0.902365 -0.00242862 0)
(-0.893356 -0.00298716 0)
(-0.882397 -0.00376346 0)
(-0.868802 -0.00490297 0)
(-0.851483 -0.00668443 0)
(-0.828636 -0.00965896 0)
(-0.797244 -0.0149137 0)
(-0.752159 -0.0245018 0)
(-0.682637 -0.0421576 0)
(-0.564994 -0.07463 0)
(-0.389338 -0.128138 0)
(-0.290211 -0.152375 0)
(-0.00516629 0.302924 0)
(-0.0270603 0.307342 0)
(-0.171277 0.217754 0)
(-0.308053 0.146508 0)
(-0.416835 0.0991065 0)
(-0.501896 0.0688216 0)
(-0.568081 0.0495485 0)
(-0.6198 0.0369895 0)
(-0.66074 0.0284904 0)
(-0.69363 0.0225031 0)
(-0.72041 0.0181254 0)
(-0.742462 0.0148177 0)
(-0.76078 0.0122457 0)
(-0.776093 0.0101947 0)
(-0.788939 0.0085214 0)
(-0.799723 0.00712734 0)
(-0.808752 0.00594256 0)
(-0.816261 0.00491615 0)
(-0.822431 0.00401013 0)
(-0.8274 0.00319547 0)
(-0.831275 0.00244949 0)
(-0.834134 0.00175397 0)
(-0.836036 0.0010939 0)
(-0.837019 0.000456516 0)
(-0.837108 -0.000169471 0)
(-0.836311 -0.000794457 0)
(-0.834623 -0.00142845 0)
(-0.832028 -0.00208162 0)
(-0.828491 -0.00276477 0)
(-0.823967 -0.00349001 0)
(-0.818392 -0.00427146 0)
(-0.81168 -0.00512623 0)
(-0.803725 -0.00607577 0)
(-0.794386 -0.00714769 0)
(-0.783486 -0.00837845 0)
(-0.770797 -0.00981744 0)
(-0.756022 -0.0115331 0)
(-0.738772 -0.0136229 0)
(-0.718533 -0.0162292 0)
(-0.69461 -0.0195675 0)
(-0.666057 -0.0239733 0)
(-0.631568 -0.0299872 0)
(-0.589325 -0.0385044 0)
(-0.536803 -0.0510353 0)
(-0.470683 -0.0701055 0)
(-0.387112 -0.099659 0)
(-0.281908 -0.145111 0)
(-0.151591 -0.212652 0)
(-0.0164831 -0.298233 0)
(-0.000996025 -0.294697 0)
(0.0321133 0.264065 0)
(0.0564061 0.36229 0)
(-0.00349531 0.324835 0)
(-0.0955841 0.260302 0)
(-0.191723 0.200559 0)
(-0.280223 0.153453 0)
(-0.356973 0.118458 0)
(-0.421769 0.0928208 0)
(-0.47597 0.073906 0)
(-0.521266 0.0597247 0)
(-0.559216 0.0488813 0)
(-0.591127 0.0404175 0)
(-0.618051 0.0336757 0)
(-0.64082 0.0281994 0)
(-0.660086 0.0236667 0)
(-0.676361 0.0198464 0)
(-0.690049 0.0165689 0)
(-0.701463 0.0137076 0)
(-0.710853 0.0111661 0)
(-0.718412 0.00886955 0)
(-0.724291 0.00675851 0)
(-0.728602 0.00478485 0)
(-0.731431 0.00290846 0)
(-0.732835 0.00109497 0)
(-0.73285 -0.000686125 0)
(-0.731491 -0.00246295 0)
(-0.728754 -0.00426262 0)
(-0.724614 -0.00611255 0)
(-0.719028 -0.00804174 0)
(-0.711933 -0.0100823 0)
(-0.703241 -0.0122714 0)
(-0.692838 -0.0146533 0)
(-0.68058 -0.0172829 0)
(-0.666283 -0.0202295 0)
(-0.649717 -0.0235827 0)
(-0.630593 -0.0274614 0)
(-0.608547 -0.0320251 0)
(-0.58312 -0.0374929 0)
(-0.553733 -0.0441697 0)
(-0.519659 -0.0524881 0)
(-0.479987 -0.0630684 0)
(-0.433612 -0.076807 0)
(-0.379256 -0.0949918 0)
(-0.315612 -0.119425 0)
(-0.241807 -0.152436 0)
(-0.158534 -0.196342 0)
(-0.0701097 -0.251298 0)
(0.0121535 -0.309966 0)
(0.0619723 -0.343308 0)
(0.0330214 -0.249955 0)
(0.0271567 0.205238 0)
(0.0637984 0.357722 0)
(0.0552946 0.375435 0)
(0.00819448 0.338174 0)
(-0.0591248 0.285426 0)
(-0.132341 0.234469 0)
(-0.203307 0.191063 0)
(-0.268258 0.155898 0)
(-0.325935 0.127919 0)
(-0.376339 0.105709 0)
(-0.42002 0.0879708 0)
(-0.457708 0.0736546 0)
(-0.490141 0.0619504 0)
(-0.517988 0.0522463 0)
(-0.54183 0.0440817 0)
(-0.562153 0.0371084 0)
(-0.57936 0.0310611 0)
(-0.593781 0.0257353 0)
(-0.605683 0.0209713 0)
(-0.615281 0.0166422 0)
(-0.622744 0.0126458 0)
(-0.628204 0.00889793 0)
(-0.631758 0.00532773 0)
(-0.633479 0.00187395 0)
(-0.633408 -0.00151805 0)
(-0.631568 -0.00489876 0)
(-0.627955 -0.00831678 0)
(-0.622549 -0.0118209 0)
(-0.615302 -0.0154623 0)
(-0.606148 -0.0192972 0)
(-0.594995 -0.0233892 0)
(-0.581724 -0.0278135 0)
(-0.566185 -0.0326609 0)
(-0.548194 -0.0380439 0)
(-0.527525 -0.0441048 0)
(-0.503906 -0.0510261 0)
(-0.477009 -0.0590449 0)
(-0.446448 -0.0684727 0)
(-0.411774 -0.0797209 0)
(-0.372487 -0.0933335 0)
(-0.328065 -0.110024 0)
(-0.278049 -0.130709 0)
(-0.22221 -0.156494 0)
(-0.160894 -0.188554 0)
(-0.095648 -0.227679 0)
(-0.0302751 -0.273043 0)
(0.0275727 -0.319277 0)
(0.0648905 -0.350796 0)
(0.065701 -0.332014 0)
(0.0268604 -0.18998 0)
(0.0184637 0.16343 0)
(0.0531587 0.331414 0)
(0.0686813 0.386689 0)
(0.0531638 0.379272 0)
(0.0137599 0.343482 0)
(-0.03882 0.298895 0)
(-0.0964237 0.255068 0)
(-0.153859 0.215847 0)
(-0.2082 0.182235 0)
(-0.258031 0.15398 0)
(-0.302852 0.13038 0)
(-0.342662 0.110644 0)
(-0.37771 0.0940451 0)
(-0.408349 0.0799653 0)
(-0.434954 0.0678974 0)
(-0.457888 0.0574332 0)
(-0.477477 0.0482455 0)
(-0.494006 0.0400716 0)
(-0.507718 0.0326998 0)
(-0.518815 0.0259573 0)
(-0.527462 0.0197018 0)
(-0.533791 0.0138142 0)
(-0.537902 0.00819246 0)
(-0.539871 0.00274782 0)
(-0.539747 -0.00259959 0)
(-0.537553 -0.0079237 0)
(-0.533296 -0.0132955 0)
(-0.526957 -0.0187857 0)
(-0.518498 -0.024468 0)
(-0.507862 -0.0304214 0)
(-0.494968 -0.0367345 0)
(-0.479715 -0.0435093 0)
(-0.461977 -0.0508664 0)
(-0.441604 -0.0589511 0)
(-0.418422 -0.0679415 0)
(-0.392234 -0.0780581 0)
(-0.362824 -0.0895748 0)
(-0.329968 -0.102833 0)
(-0.293456 -0.118253 0)
(-0.253136 -0.136345 0)
(-0.208986 -0.157696 0)
(-0.161254 -0.18293 0)
(-0.11067 -0.212564 0)
(-0.058796 -0.246693 0)
(-0.0085117 -0.284294 0)
(0.0354132 -0.321864 0)
(0.0657978 -0.350965 0)
(0.0734948 -0.354418 0)
(0.0532019 -0.301892 0)
(0.0179061 -0.148412 0)
(0.0119655 0.134604 0)
(0.0408859 0.300358 0)
(0.0654546 0.377595 0)
(0.068862 0.395 0)
(0.0508837 0.378215 0)
(0.0175655 0.345061 0)
(-0.0248393 0.30631 0)
(-0.0713445 0.267752 0)
(-0.118443 0.232101 0)
(-0.163911 0.200343 0)
(-0.206473 0.172574 0)
(-0.245485 0.148484 0)
(-0.280704 0.127611 0)
(-0.312116 0.109469 0)
(-0.339839 0.0936039 0)
(-0.364049 0.0796176 0)
(-0.384947 0.0671684 0)
(-0.402729 0.0559678 0)
(-0.417579 0.0457734 0)
(-0.429662 0.0363811 0)
(-0.439116 0.0276181 0)
(-0.446058 0.0193364 0)
(-0.450581 0.0114074 0)
(-0.452756 0.00371763 0)
(-0.452632 -0.00383578 0)
(-0.450239 -0.0113483 0)
(-0.445587 -0.0189112 0)
(-0.438671 -0.0266151 0)
(-0.429466 -0.0345525 0)
(-0.417933 -0.0428215 0)
(-0.404018 -0.0515294 0)
(-0.387651 -0.0607967 0)
(-0.368753 -0.0707615 0)
(-0.347234 -0.0815851 0)
(-0.323001 -0.0934575 0)
(-0.295966 -0.106603 0)
(-0.266061 -0.121286 0)
(-0.233259 -0.137811 0)
(-0.197615 -0.15652 0)
(-0.159324 -0.177769 0)
(-0.11881 -0.20188 0)
(-0.0768632 -0.229024 0)
(-0.0348261 -0.259015 0)
(0.00516844 -0.290898 0)
(0.0399588 -0.322258 0)
(0.0652572 -0.348095 0)
(0.0758923 -0.359204 0)
(0.0671183 -0.340311 0)
(0.0401324 -0.269122 0)
(0.0114453 -0.120139 0)
(0.0078819 0.114034 0)
(0.0311405 0.270993 0)
(0.0575459 0.35942 0)
(0.0710152 0.394918 0)
(0.0676556 0.395231 0)
(0.0498069 0.374892 0)
(0.021429 0.344152 0)
(-0.0135172 0.309539 0)
(-0.0517224 0.274834 0)
(-0.0907231 0.242014 0)
(-0.12883 0.211944 0)
(-0.16496 0.184859 0)
(-0.198473 0.160659 0)
(-0.229027 0.139084 0)
(-0.256477 0.119816 0)
(-0.280803 0.102529 0)
(-0.302054 0.0869153 0)
(-0.320315 0.0726966 0)
(-0.335692 0.0596267 0)
(-0.348288 0.0474892 0)
(-0.358203 0.0360949 0)
(-0.365527 0.0252774 0)
(-0.370333 0.0148895 0)
(-0.372684 0.00479864 0)
(-0.372625 -0.00511572 0)
(-0.370189 -0.0149661 0)
(-0.365393 -0.02486 0)
(-0.358245 -0.0349027 0)
(-0.348738 -0.0452004 0)
(-0.336859 -0.0558633 0)
(-0.322587 -0.0670089 0)
(-0.305896 -0.0787648 0)
(-0.286764 -0.0912724 0)
(-0.265173 -0.10469 0)
(-0.241123 -0.119194 0)
(-0.214646 -0.13498 0)
(-0.185824 -0.152262 0)
(-0.154819 -0.171257 0)
(-0.121919 -0.192168 0)
(-0.0875939 -0.215134 0)
(-0.0525777 -0.240154 0)
(-0.0179728 -0.266939 0)
(0.014632 -0.294675 0)
(0.0430552 -0.321641 0)
(0.0645031 -0.34464 0)
(0.075778 -0.358229 0)
(0.0738517 -0.353867 0)
(0.0572303 -0.319333 0)
(0.0300478 -0.239384 0)
(0.00744614 -0.100251 0)
(0.00543637 0.0988913 0)
(0.0241319 0.245129 0)
(0.0493244 0.337983 0)
(0.0674596 0.385601 0)
(0.0733394 0.399743 0)
(0.0669152 0.391519 0)
(0.0501877 0.369812 0)
(0.0258861 0.341017 0)
(-0.00327824 0.309374 0)
(-0.0349985 0.277487 0)
(-0.0674848 0.24683 0)
(-0.0994344 0.218135 0)
(-0.129947 0.19168 0)
(-0.158433 0.167473 0)
(-0.184528 0.145379 0)
(-0.208027 0.125191 0)
(-0.22883 0.106678 0)
(-0.246908 0.089604 0)
(-0.262276 0.0737445 0)
(-0.27497 0.058892 0)
(-0.28504 0.0448568 0)
(-0.292539 0.0314667 0)
(-0.297517 0.0185657 0)
(-0.300021 0.00601086 0)
(-0.30009 -0.00632939 0)
(-0.297756 -0.0185783 0)
(-0.293045 -0.0308531 0)
(-0.285975 -0.0432677 0)
(-0.276564 -0.055935 0)
(-0.264823 -0.0689692 0)
(-0.25077 -0.0824881 0)
(-0.234425 -0.0966149 0)
(-0.215826 -0.11148 0)
(-0.195028 -0.12722 0)
(-0.172123 -0.143978 0)
(-0.147251 -0.161897 0)
(-0.120627 -0.181108 0)
(-0.0925657 -0.201714 0)
(-0.0635253 -0.22375 0)
(-0.0341535 -0.247126 0)
(-0.00534667 -0.271533 0)
(0.0216893 -0.296296 0)
(0.045392 -0.32015 0)
(0.0638435 -0.340937 0)
(0.0748895 -0.3552 0)
(0.0764787 -0.357749 0)
(0.0672777 -0.341336 0)
(0.047749 -0.296751 0)
(0.0228688 -0.213975 0)
(0.0050635 -0.0858394 0)
(0.00395283 0.0873299 0)
(0.0191765 0.222842 0)
(0.0421138 0.316159 0)
(0.0618904 0.371329 0)
(0.0732353 0.39595 0)
(0.0747851 0.398189 0)
(0.0671272 0.385313 0)
(0.0518799 0.363101 0)
(0.0310372 0.335783 0)
(0.00653778 0.306262 0)
(-0.0199454 0.276406 0)
(-0.0470699 0.247337 0)
(-0.0738135 0.219666 0)
(-0.0994303 0.19367 0)
(-0.123396 0.169412 0)
(-0.145358 0.146832 0)
(-0.165087 0.125798 0)
(-0.182448 0.106143 0)
(-0.197365 0.0876886 0)
(-0.209807 0.0702538 0)
(-0.21977 0.0536643 0)
(-0.227266 0.0377555 0)
(-0.232319 0.0223731 0)
(-0.234956 0.00737319 0)
(-0.235206 -0.00737873 0)
(-0.233099 -0.0220092 0)
(-0.228667 -0.0366382 0)
(-0.221941 -0.0513811 0)
(-0.212956 -0.0663498 0)
(-0.201754 -0.0816542 0)
(-0.188385 -0.0974033 0)
(-0.172918 -0.113705 0)
(-0.155441 -0.130666 0)
(-0.13608 -0.14839 0)
(-0.115002 -0.166968 0)
(-0.0924378 -0.186475 0)
(-0.0687018 -0.206948 0)
(-0.0442152 -0.228363 0)
(-0.0195381 -0.250591 0)
(0.00459772 -0.273334 0)
(0.0272568 -0.296034 0)
(0.0472792 -0.317736 0)
(0.063289 -0.336919 0)
(0.0737637 -0.351262 0)
(0.0772152 -0.357413 0)
(0.0725442 -0.350782 0)
(0.0595594 -0.325537 0)
(0.0397115 -0.274979 0)
(0.0178093 -0.192666 0)
(0.00361858 -0.0750323 0)
(0.0030146 0.0781791 0)
(0.0156212 0.203689 0)
(0.0361283 0.295262 0)
(0.0559446 0.354732 0)
(0.0702632 0.386926 0)
(0.0771246 0.397706 0)
(0.0762091 0.392804 0)
(0.0682663 0.377178 0)
(0.0546165 0.354768 0)
(0.0367571 0.328507 0)
(0.0161237 0.300463 0)
(-0.00602755 0.27202 0)
(-0.0286622 0.244051 0)
(-0.050965 0.217062 0)
(-0.0723159 0.19131 0)
(-0.0922574 0.166885 0)
(-0.110462 0.14377 0)
(-0.126702 0.121883 0)
(-0.140825 0.101105 0)
(-0.152737 0.081298 0)
(-0.162379 0.0623173 0)
(-0.169727 0.0440174 0)
(-0.174771 0.0262566 0)
(-0.17752 0.00889917 0)
(-0.177991 -0.00818391 0)
(-0.176211 -0.0251148 0)
(-0.172212 -0.042009 0)
(-0.166038 -0.0589761 0)
(-0.15774 -0.0761195 0)
(-0.147383 -0.0935374 0)
(-0.13505 -0.111322 0)
(-0.120847 -0.129556 0)
(-0.10491 -0.148316 0)
(-0.0874161 -0.167658 0)
(-0.0685936 -0.18762 0)
(-0.0487379 -0.208198 0)
(-0.0282272 -0.229334 0)
(-0.00754214 -0.250885 0)
(0.0127151 -0.272576 0)
(0.0318033 -0.293942 0)
(0.0488338 -0.314248 0)
(0.0627799 -0.332376 0)
(0.0725208 -0.3467 0)
(0.0769429 -0.354944 0)
(0.0751321 -0.354056 0)
(0.0666828 -0.340167 0)
(0.052084 -0.308736 0)
(0.033169 -0.254988 0)
(0.0141844 -0.174837 0)
(0.00270398 -0.0666544 0)
(0.00238949 0.0707163 0)
(0.0130003 0.187152 0)
(0.0312285 0.275815 0)
(0.0502803 0.337358 0)
(0.0659833 0.374799 0)
(0.0762078 0.392283 0)
(0.0801126 0.394227 0)
(0.0778305 0.384744 0)
(0.0701228 0.367333 0)
(0.0580592 0.344786 0)
(0.0427918 0.319213 0)
(0.0254175 0.292139 0)
(0.00690612 0.264616 0)
(-0.0119272 0.237332 0)
(-0.0304231 0.21071 0)
(-0.0480641 0.184982 0)
(-0.0644545 0.160245 0)
(-0.0792992 0.136509 0)
(-0.092384 0.113725 0)
(-0.103557 0.0918096 0)
(-0.112718 0.0706561 0)
(-0.1198 0.0501489 0)
(-0.124768 0.0301683 0)
(-0.127609 0.0105952 0)
(-0.128327 -0.00868616 0)
(-0.126943 -0.0277861 0)
(-0.123491 -0.046809 0)
(-0.11802 -0.0658515 0)
(-0.110595 -0.0850027 0)
(-0.1013 -0.104342 0)
(-0.0902418 -0.123937 0)
(-0.0775571 -0.143844 0)
(-0.0634164 -0.164097 0)
(-0.0480347 -0.184706 0)
(-0.0316809 -0.205647 0)
(-0.0146887 -0.226844 0)
(0.00253114 -0.248149 0)
(0.0194789 -0.269315 0)
(0.0355569 -0.289951 0)
(0.0500659 -0.309474 0)
(0.062214 -0.327039 0)
(0.0711453 -0.341461 0)
(0.0760017 -0.351129 0)
(0.0760312 -0.353926 0)
(0.0707622 -0.347191 0)
(0.0602483 -0.327761 0)
(0.0453313 -0.292169 0)
(0.0278903 -0.237055 0)
(0.011518 -0.159857 0)
(0.00209476 -0.0599793 0)
(0.00195034 0.0644883 0)
(0.0110065 0.172774 0)
(0.0271994 0.257969 0)
(0.0451105 0.320095 0)
(0.0612026 0.361003 0)
(0.0734038 0.383593 0)
(0.0806155 0.391215 0)
(0.0825659 0.387202 0)
(0.0795896 0.374569 0)
(0.0723858 0.355863 0)
(0.0618248 0.333124 0)
(0.0488136 0.307921 0)
(0.0342117 0.281407 0)
(0.0187847 0.2544 0)
(0.0031862 0.227454 0)
(-0.0120448 0.200921 0)
(-0.0264753 0.175009 0)
(-0.0397661 0.149815 0)
(-0.051657 0.125365 0)
(-0.0619541 0.101634 0)
(-0.0705171 0.0785613 0)
(-0.0772488 0.0560694 0)
(-0.0820875 0.0340675 0)
(-0.0850001 0.0124602 0)
(-0.085978 -0.00884793 0)
(-0.0850337 -0.0299494 0)
(-0.0821999 -0.0509308 0)
(-0.0775289 -0.0718709 0)
(-0.0710944 -0.0928383 0)
(-0.0629933 -0.113889 0)
(-0.0533498 -0.135063 0)
(-0.0423197 -0.156381 0)
(-0.0300967 -0.177838 0)
(-0.0169186 -0.199395 0)
(-0.00307551 -0.220968 0)
(0.011083 -0.242414 0)
(0.0251405 -0.263509 0)
(0.0386083 -0.283921 0)
(0.0509251 -0.303177 0)
(0.0614636 -0.320618 0)
(0.0695504 -0.33535 0)
(0.0745049 -0.346192 0)
(0.0757055 -0.351619 0)
(0.0726911 -0.349737 0)
(0.0653049 -0.33829 0)
(0.0538771 -0.314741 0)
(0.0393915 -0.276479 0)
(0.0236062 -0.221158 0)
(0.00949798 -0.147195 0)
(0.00166787 -0.0545477 0)
(0.00162642 0.0592006 0)
(0.00944078 0.16019 0)
(0.0238415 0.241709 0)
(0.0404575 0.303446 0)
(0.0563211 0.346498 0)
(0.0695257 0.372873 0)
(0.0788836 0.385085 0)
(0.0838794 0.385792 0)
(0.0845427 0.377534 0)
(0.0812743 0.362569 0)
(0.0746917 0.342801 0)
(0.0655101 0.319765 0)
(0.0544571 0.294654 0)
(0.0422194 0.268365 0)
(0.0294118 0.241546 0)
(0.0165647 0.214648 0)
(0.00412175 0.18797 0)
(-0.00755504 0.161693 0)
(-0.0181774 0.135916 0)
(-0.0275211 0.110672 0)
(-0.0354169 0.0859525 0)
(-0.0417419 0.0617209 0)
(-0.0464121 0.0379211 0)
(-0.0493768 0.0144871 0)
(-0.0506145 -0.00865119 0)
(-0.0501292 -0.031563 0)
(-0.0479494 -0.0543125 0)
(-0.0441277 -0.0769559 0)
(-0.0387411 -0.0995374 0)
(-0.0318935 -0.122086 0)
(-0.0237181 -0.144611 0)
(-0.0143816 -0.167097 0)
(-0.00408839 -0.189499 0)
(0.00691458 -0.211729 0)
(0.0183324 -0.233652 0)
(0.029818 -0.255065 0)
(0.0409692 -0.275681 0)
(0.0513291 -0.295109 0)
(0.0603914 -0.312818 0)
(0.0676141 -0.328114 0)
(0.0724449 -0.340098 0)
(0.0743636 -0.347637 0)
(0.0729448 -0.349337 0)
(0.0679452 -0.343544 0)
(0.0594165 -0.328381 0)
(0.0478354 -0.301841 0)
(0.0342019 -0.261974 0)
(0.020083 -0.207154 0)
(0.00792186 -0.136434 0)
(0.00135458 -0.0500589 0)
(0.00137709 0.0546554 0)
(0.0081735 0.149118 0)
(0.0209935 0.226958 0)
(0.0362704 0.287691 0)
(0.0515229 0.331923 0)
(0.0650506 0.361027 0)
(0.0756761 0.376872 0)
(0.0827558 0.381558 0)
(0.0861141 0.377189 0)
(0.0859247 0.365727 0)
(0.0825934 0.348901 0)
(0.0766583 0.328166 0)
(0.0687121 0.304706 0)
(0.0593473 0.279452 0)
(0.0491198 0.253114 0)
(0.0385293 0.226216 0)
(0.0280094 0.199132 0)
(0.017926 0.172117 0)
(0.00858026 0.145334 0)
(0.000214056 0.118875 0)
(-0.00698395 0.0927838 0)
(-0.0128717 0.067066 0)
(-0.0173478 0.0417038 0)
(-0.0203468 0.0166638 0)
(-0.021835 -0.00809452 0)
(-0.0218075 -0.0326135 0)
(-0.0202869 -0.0569315 0)
(-0.0173226 -0.0810786 0)
(-0.0129908 -0.105072 0)
(-0.00739645 -0.128912 0)
(-0.000674733 -0.152575 0)
(0.00700577 -0.176012 0)
(0.0154401 -0.199136 0)
(0.0243838 -0.221818 0)
(0.0335501 -0.243875 0)
(0.0426081 -0.265056 0)
(0.0511839 -0.285026 0)
(0.0588643 -0.303351 0)
(0.0652067 -0.319472 0)
(0.0697559 -0.332683 0)
(0.072072 -0.342114 0)
(0.071771 -0.346706 0)
(0.0685804 -0.345214 0)
(0.0624107 -0.336219 0)
(0.0534402 -0.318177 0)
(0.0422048 -0.289515 0)
(0.0296508 -0.248787 0)
(0.0171357 -0.194878 0)
(0.00665667 -0.127253 0)
(0.00111509 -0.0463094 0)
(0.00117797 0.0507157 0)
(0.00711852 0.139345 0)
(0.0185315 0.213623 0)
(0.0324769 0.272983 0)
(0.0468808 0.317705 0)
(0.0602545 0.348713 0)
(0.0714867 0.367385 0)
(0.0798829 0.375363 0)
(0.0851398 0.374375 0)
(0.0872669 0.3661 0)
(0.0865013 0.352077 0)
(0.0832277 0.333655 0)
(0.0779118 0.311972 0)
(0.0710483 0.287963 0)
(0.0631238 0.262368 0)
(0.0545929 0.235762 0)
(0.0458637 0.208576 0)
(0.0372916 0.181125 0)
(0.0291776 0.15363 0)
(0.02177 0.126238 0)
(0.0152678 0.0990397 0)
(0.00982551 0.072086 0)
(0.00555689 0.0453973 0)
(0.00253938 0.0189751 0)
(0.00081727 -0.00718981 0)
(0.000404221 -0.0331104 0)
(0.00128495 -0.058797 0)
(0.003416 -0.0842517 0)
(0.00672569 -0.109463 0)
(0.0111134 -0.134402 0)
(0.016448 -0.159014 0)
(0.0225664 -0.183213 0)
(0.0292716 -0.206879 0)
(0.0363307 -0.229842 0)
(0.0434746 -0.25188 0)
(0.0503984 -0.272703 0)
(0.0567644 -0.291944 0)
(0.062209 -0.309139 0)
(0.0663543 -0.323718 0)
(0.0688269 -0.334989 0)
(0.0692842 -0.342123 0)
(0.0674518 -0.344155 0)
(0.0631705 -0.339985 0)
(0.0564519 -0.328409 0)
(0.0475417 -0.308169 0)
(0.0369791 -0.27804 0)
(0.0256212 -0.236955 0)
(0.0146229 -0.184166 0)
(0.00561315 -0.119409 0)
(0.000925292 -0.0431578 0)
(0.00101374 0.0472841 0)
(0.00621726 0.130708 0)
(0.0163619 0.201614 0)
(0.0290051 0.2594 0)
(0.0424121 0.304134 0)
(0.0552949 0.336413 0)
(0.0666364 0.357246 0)
(0.075742 0.36791 0)
(0.0822372 0.369811 0)
(0.0860195 0.364373 0)
(0.0871971 0.352947 0)
(0.0860282 0.336762 0)
(0.0828654 0.316891 0)
(0.0781098 0.294245 0)
(0.0721753 0.269573 0)
(0.0654638 0.243479 0)
(0.0583479 0.216436 0)
(0.0511616 0.188805 0)
(0.0441952 0.160857 0)
(0.0376942 0.132786 0)
(0.0318602 0.104729 0)
(0.0268535 0.076778 0)
(0.0227957 0.0489907 0)
(0.0197729 0.0214041 0)
(0.0178382 -0.00595885 0)
(0.0170137 -0.0330808 0)
(0.0172923 -0.0599431 0)
(0.0186384 -0.0865194 0)
(0.0209881 -0.11277 0)
(0.0242491 -0.138635 0)
(0.0282997 -0.164029 0)
(0.0329881 -0.188837 0)
(0.0381315 -0.212902 0)
(0.0435158 -0.236024 0)
(0.048896 -0.257946 0)
(0.0539987 -0.27835 0)
(0.0585267 -0.296842 0)
(0.062167 -0.312947 0)
(0.0646033 -0.326097 0)
(0.0655342 -0.33562 0)
(0.0646981 -0.340746 0)
(0.0619048 -0.340599 0)
(0.0570738 -0.33422 0)
(0.0502782 -0.320593 0)
(0.0417889 -0.298697 0)
(0.0321143 -0.267583 0)
(0.0220076 -0.226474 0)
(0.0124374 -0.174878 0)
(0.0047299 -0.112718 0)
(0.000769916 -0.0405034 0)
(0.000874414 0.0442903 0)
(0.00542899 0.123082 0)
(0.0144145 0.190852 0)
(0.0257913 0.246984 0)
(0.038108 0.291405 0)
(0.0502597 0.32448 0)
(0.0613356 0.346938 0)
(0.0706719 0.359765 0)
(0.0778642 0.364101 0)
(0.0827384 0.361145 0)
(0.085309 0.352073 0)
(0.0857336 0.337991 0)
(0.0842686 0.319895 0)
(0.0812298 0.298657 0)
(0.0769605 0.275018 0)
(0.0718071 0.249592 0)
(0.0661009 0.222881 0)
(0.0601473 0.19528 0)
(0.0542182 0.167099 0)
(0.0485487 0.138574 0)
(0.0433364 0.109881 0)
(0.0387419 0.0811513 0)
(0.0348902 0.0524785 0)
(0.031873 0.0239331 0)
(0.02975 -0.00443029 0)
(0.0285512 -0.0325644 0)
(0.028278 -0.0604217 0)
(0.0289042 -0.0879479 0)
(0.0303759 -0.115075 0)
(0.0326122 -0.141715 0)
(0.0355049 -0.167754 0)
(0.0389179 -0.193047 0)
(0.0426874 -0.217408 0)
(0.0466224 -0.240609 0)
(0.0505064 -0.262366 0)
(0.0541005 -0.282338 0)
(0.0571488 -0.300116 0)
(0.0593869 -0.31522 0)
(0.0605544 -0.327091 0)
(0.0604114 -0.335089 0)
(0.0587603 -0.338499 0)
(0.0554727 -0.336535 0)
(0.0505197 -0.328361 0)
(0.0440052 -0.313124 0)
(0.0361973 -0.289998 0)
(0.0275538 -0.258249 0)
(0.0187202 -0.217316 0)
(0.0104985 -0.166898 0)
(0.00396369 -0.107042 0)
(0.000638879 -0.0382738 0)
(0.000753198 0.0416823 0)
(0.00472476 0.116373 0)
(0.0126365 0.181269 0)
(0.0227823 0.235753 0)
(0.0339493 0.279657 0)
(0.0451969 0.313178 0)
(0.0557229 0.336833 0)
(0.0649137 0.351382 0)
(0.072363 0.357747 0)
(0.0778563 0.356931 0)
(0.0813434 0.349955 0)
(0.0829049 0.337805 0)
(0.0827181 0.321398 0)
(0.0810244 0.301556 0)
(0.0781015 0.278998 0)
(0.074241 0.254341 0)
(0.0697307 0.228098 0)
(0.0648429 0.20069 0)
(0.0598257 0.172457 0)
(0.0548986 0.143669 0)
(0.0502496 0.114537 0)
(0.0460349 0.0852247 0)
(0.0423791 0.05586 0)
(0.0393761 0.0265446 0)
(0.0370907 -0.00263699 0)
(0.0355598 -0.031609 0)
(0.034793 -0.0602963 0)
(0.0347741 -0.0886176 0)
(0.0354612 -0.116478 0)
(0.0367871 -0.143765 0)
(0.0386596 -0.170336 0)
(0.0409614 -0.196021 0)
(0.043551 -0.220609 0)
(0.0462634 -0.243845 0)
(0.0489127 -0.265427 0)
(0.0512953 -0.284995 0)
(0.0531957 -0.302132 0)
(0.0543945 -0.316357 0)
(0.0546802 -0.327125 0)
(0.0538636 -0.333831 0)
(0.0517962 -0.335811 0)
(0.0483925 -0.332361 0)
(0.0436539 -0.322753 0)
(0.037693 -0.306269 0)
(0.0307563 -0.282239 0)
(0.0232404 -0.250098 0)
(0.0156852 -0.20945 0)
(0.00874479 -0.160132 0)
(0.00328344 -0.102277 0)
(0.000525291 -0.0364159 0)
(0.00064535 0.0394214 0)
(0.00408359 0.110511 0)
(0.010988 0.17281 0)
(0.0199345 0.225713 0)
(0.0299135 0.268984 0)
(0.0401312 0.3027 0)
(0.0498915 0.32722 0)
(0.0586415 0.343125 0)
(0.0659925 0.35116 0)
(0.0717129 0.352166 0)
(0.0757109 0.347027 0)
(0.0780105 0.336619 0)
(0.0787262 0.321778 0)
(0.0780363 0.303276 0)
(0.0761598 0.281803 0)
(0.0733364 0.257965 0)
(0.0698106 0.23228 0)
(0.0658194 0.205186 0)
(0.0615841 0.177044 0)
(0.0573042 0.148151 0)
(0.0531543 0.118746 0)
(0.0492822 0.0890223 0)
(0.0458087 0.0591376 0)
(0.0428275 0.0292215 0)
(0.0404064 -0.000614027 0)
(0.0385876 -0.0302668 0)
(0.037389 -0.0596364 0)
(0.0368046 -0.0886166 0)
(0.0368051 -0.117089 0)
(0.0373386 -0.144914 0)
(0.0383307 -0.17193 0)
(0.0396851 -0.19794 0)
(0.0412841 -0.222712 0)
(0.0429906 -0.245973 0)
(0.0446497 -0.2674 0)
(0.0460928 -0.286624 0)
(0.0471426 -0.303219 0)
(0.0476204 -0.316708 0)
(0.0473566 -0.326563 0)
(0.0462027 -0.332208 0)
(0.0440466 -0.333031 0)
(0.0408307 -0.328394 0)
(0.0365699 -0.317662 0)
(0.0313701 -0.300225 0)
(0.0254443 -0.27554 0)
(0.0191223 -0.243171 0)
(0.0128431 -0.202847 0)
(0.00712969 -0.154506 0)
(0.00266642 -0.0983433 0)
(0.000424304 -0.0348911 0)
(0.000547462 0.0374785 0)
(0.00348997 0.105439 0)
(0.0094386 0.165433 0)
(0.017213 0.216864 0)
(0.0259791 0.259454 0)
(0.0350746 0.293194 0)
(0.0439049 0.318322 0)
(0.0519833 0.335281 0)
(0.0589515 0.344676 0)
(0.0645779 0.347214 0)
(0.0687471 0.343659 0)
(0.0714441 0.334792 0)
(0.0727345 0.321374 0)
(0.0727445 0.304124 0)
(0.071642 0.2837 0)
(0.0696192 0.260692 0)
(0.0668786 0.235616 0)
(0.0636221 0.208917 0)
(0.0600418 0.180973 0)
(0.056315 0.1521 0)
(0.0525997 0.122559 0)
(0.0490323 0.0925706 0)
(0.045727 0.0623149 0)
(0.0427749 0.0319469 0)
(0.0402447 0.00160276 0)
(0.038183 -0.0285919 0)
(0.0366149 -0.0585137 0)
(0.0355444 -0.0880343 0)
(0.0349556 -0.117013 0)
(0.0348121 -0.145291 0)
(0.0350586 -0.172684 0)
(0.0356205 -0.198976 0)
(0.0364054 -0.223916 0)
(0.0373041 -0.247213 0)
(0.038193 -0.268532 0)
(0.038937 -0.287491 0)
(0.0393944 -0.303663 0)
(0.0394229 -0.316574 0)
(0.0388881 -0.32571 0)
(0.0376738 -0.330523 0)
(0.035694 -0.33044 0)
(0.0329067 -0.324885 0)
(0.0293285 -0.313293 0)
(0.0250477 -0.295142 0)
(0.0202358 -0.269986 0)
(0.0151541 -0.237492 0)
(0.0101462 -0.197479 0)
(0.00561736 -0.149964 0)
(0.00209573 -0.0951835 0)
(0.000332423 -0.0336709 0)
(0.000457024 0.0358319 0)
(0.00293226 0.101115 0)
(0.00796484 0.159101 0)
(0.0145894 0.209204 0)
(0.0221266 0.251117 0)
(0.030032 0.28477 0)
(0.0378077 0.31031 0)
(0.0450352 0.328079 0)
(0.0513952 0.338566 0)
(0.0566684 0.342371 0)
(0.0607301 0.340162 0)
(0.0635395 0.332632 0)
(0.0651258 0.320479 0)
(0.0655734 0.304369 0)
(0.065006 0.284929 0)
(0.0635734 0.262729 0)
(0.0614388 0.238278 0)
(0.0587691 0.212023 0)
(0.0557272 0.184352 0)
(0.0524663 0.155593 0)
(0.0491256 0.126029 0)
(0.045828 0.0958951 0)
(0.0426785 0.065395 0)
(0.0397637 0.0347037 0)
(0.0371512 0.00397766 0)
(0.0348907 -0.0266373 0)
(0.0330135 -0.0569983 0)
(0.0315334 -0.0869579 0)
(0.030447 -0.116357 0)
(0.0297344 -0.145018 0)
(0.0293592 -0.172739 0)
(0.0292693 -0.199288 0)
(0.0293974 -0.224397 0)
(0.0296626 -0.247762 0)
(0.0299715 -0.269035 0)
(0.0302212 -0.287827 0)
(0.0303029 -0.303707 0)
(0.0301065 -0.316204 0)
(0.0295276 -0.324816 0)
(0.0284752 -0.329016 0)
(0.0268809 -0.328264 0)
(0.0247099 -0.322029 0)
(0.0219713 -0.309803 0)
(0.0187283 -0.291131 0)
(0.0151064 -0.265642 0)
(0.011298 -0.233077 0)
(0.00755638 -0.193327 0)
(0.00418011 -0.146463 0)
(0.00155859 -0.0927544 0)
(0.00024707 -0.0327346 0)
(0.000372139 0.0344649 0)
(0.00240149 0.0975077 0)
(0.00654831 0.153788 0)
(0.0120411 0.202729 0)
(0.0183387 0.244008 0)
(0.0250045 0.27751 0)
(0.0316317 0.303318 0)
(0.0378711 0.321694 0)
(0.0434475 0.333043 0)
(0.0481626 0.337879 0)
(0.0518928 0.336789 0)
(0.0545826 0.330397 0)
(0.0562353 0.319341 0)
(0.0569014 0.304244 0)
(0.0566677 0.2857 0)
(0.055646 0.264259 0)
(0.0539631 0.240421 0)
(0.0517527 0.214629 0)
(0.0491482 0.187276 0)
(0.0462778 0.158701 0)
(0.0432605 0.129198 0)
(0.0402039 0.0990177 0)
(0.0372019 0.0683792 0)
(0.0343345 0.0374741 0)
(0.031667 0.00647548 0)
(0.0292503 -0.0244544 0)
(0.027121 -0.0551568 0)
(0.0253018 -0.0854684 0)
(0.0238017 -0.115215 0)
(0.0226165 -0.144204 0)
(0.0217288 -0.17222 0)
(0.0211087 -0.199015 0)
(0.0207143 -0.224311 0)
(0.020492 -0.247789 0)
(0.0203782 -0.269092 0)
(0.0203004 -0.287824 0)
(0.0201804 -0.30355 0)
(0.0199371 -0.3158 0)
(0.0194917 -0.32408 0)
(0.0187729 -0.327877 0)
(0.0177241 -0.326676 0)
(0.0163108 -0.319975 0)
(0.0145288 -0.30731 0)
(0.012411 -0.288276 0)
(0.0100344 -0.262552 0)
(0.00752267 -0.229938 0)
(0.00504323 -0.190374 0)
(0.00279629 -0.143972 0)
(0.00104519 -0.091025 0)
(0.000166298 -0.0320674 0)
(0.00029133 0.0333653 0)
(0.00189058 0.0945929 0)
(0.00517425 0.149472 0)
(0.0095491 0.197436 0)
(0.0146005 0.238152 0)
(0.0199909 0.271474 0)
(0.0254007 0.297443 0)
(0.0305493 0.316263 0)
(0.035209 0.328275 0)
(0.0392088 0.333926 0)
(0.0424339 0.333742 0)
(0.0448225 0.32829 0)
(0.0463594 0.318161 0)
(0.0470692 0.303937 0)
(0.0470072 0.286185 0)
(0.0462516 0.265434 0)
(0.0448957 0.242172 0)
(0.0430413 0.216839 0)
(0.0407928 0.189827 0)
(0.0382532 0.161481 0)
(0.0355204 0.132103 0)
(0.0326849 0.101954 0)
(0.0298281 0.0712644 0)
(0.0270218 0.0402385 0)
(0.0243272 0.00906161 0)
(0.0217953 -0.0220917 0)
(0.0194667 -0.0530502 0)
(0.0173718 -0.0836391 0)
(0.0155314 -0.113672 0)
(0.0139561 -0.142946 0)
(0.0126475 -0.171232 0)
(0.0115974 -0.198274 0)
(0.0107885 -0.223782 0)
(0.0101944 -0.247427 0)
(0.00977992 -0.268845 0)
(0.00950223 -0.287631 0)
(0.00931166 -0.303345 0)
(0.00915384 -0.315517 0)
(0.00897228 -0.323653 0)
(0.00871194 -0.327249 0)
(0.00832358 -0.325803 0)
(0.00776889 -0.318834 0)
(0.00702596 -0.305902 0)
(0.00609469 -0.286635 0)
(0.0050015 -0.260751 0)
(0.00380249 -0.228083 0)
(0.00258229 -0.188609 0)
(0.00144871 -0.142468 0)
(0.000547805 -0.0899735 0)
(8.85952e-05 -0.0316591 0)
(0.000213403 0.0325242 0)
(0.00139374 0.0923528 0)
(0.00383039 0.146137 0)
(0.00709756 0.193321 0)
(0.0108984 0.233565 0)
(0.0149887 0.266707 0)
(0.0191323 0.292759 0)
(0.0231167 0.311886 0)
(0.0267637 0.324384 0)
(0.0299337 0.330655 0)
(0.032526 0.331175 0)
(0.0344787 0.326471 0)
(0.0357647 0.317094 0)
(0.0363875 0.303597 0)
(0.0363759 0.286518 0)
(0.0357781 0.266371 0)
(0.0346564 0.243631 0)
(0.0330822 0.218732 0)
(0.0311316 0.192064 0)
(0.0288821 0.163974 0)
(0.0264095 0.134766 0)
(0.0237865 0.10471 0)
(0.0210806 0.0740421 0)
(0.0183537 0.0429748 0)
(0.0156616 0.0117017 0)
(0.013054 -0.0195943 0)
(0.010574 -0.0507337 0)
(0.00825876 -0.0815335 0)
(0.00613958 -0.1118 0)
(0.00424166 -0.141321 0)
(0.00258429 -0.169862 0)
(0.00118067 -0.197157 0)
(3.75734e-05 -0.222908 0)
(-0.000844917 -0.246781 0)
(-0.00147385 -0.268401 0)
(-0.00186366 -0.287357 0)
(-0.00203632 -0.303202 0)
(-0.00202105 -0.315462 0)
(-0.00185365 -0.323639 0)
(-0.00157515 -0.327229 0)
(-0.00122978 -0.325733 0)
(-0.000862229 -0.318677 0)
(-0.00051425 -0.305636 0)
(-0.000220934 -0.28625 0)
(-6.97699e-06 -0.260258 0)
(0.000116478 -0.227517 0)
(0.000153565 -0.188025 0)
(0.000123415 -0.141939 0)
(6.0216e-05 -0.0895858 0)
(1.27481e-05 -0.031503 0)
(0.000137348 0.0319354 0)
(0.000906001 0.0907756 0)
(0.00250605 0.143774 0)
(0.00467225 0.190382 0)
(0.00721998 0.23026 0)
(0.0099943 0.263239 0)
(0.0128401 0.289315 0)
(0.0156122 0.308632 0)
(0.0181834 0.321458 0)
(0.0204475 0.328164 0)
(0.0223223 0.329197 0)
(0.0237494 0.325052 0)
(0.0246941 0.316252 0)
(0.0251431 0.303326 0)
(0.025102 0.286794 0)
(0.0245918 0.267153 0)
(0.0236456 0.244867 0)
(0.0223057 0.220363 0)
(0.0206203 0.194027 0)
(0.0186413 0.166203 0)
(0.0164221 0.137198 0)
(0.0140162 0.107283 0)