/*--------------------------------*- C++ -*----------------------------------*\
  =========                 |
  \\      /  F ield         | OpenFOAM: The Open Source CFD Toolbox
   \\    /   O peration     | Website:  https://openfoam.org
    \\  /    A nd           | Version:  7
     \\/     M anipulation  |
\*---------------------------------------------------------------------------*/
FoamFile
{
    version     2.0;
    format      ascii;
    class       volVectorField;
    location    "0.0326";
    object      U;
}
// * * * * * * * * * * * * * * * * * * * * * * * * * * * * * * * * * * * * * //

dimensions      [0 1 -1 0 0 0 0];

internalField   nonuniform List<vector> 
2500
(
(0.290256 -0.152417 0)
(0.38955 -0.128241 0)
(0.565441 -0.0747348 0)
(0.683256 -0.0422268 0)
(0.752817 -0.0245181 0)
(0.79778 -0.0148707 0)
(0.82888 -0.00955795 0)
(0.851273 -0.0065306 0)
(0.867991 -0.00470376 0)
(0.880859 -0.00352733 0)
(0.89099 -0.00272289 0)
(0.899094 -0.00214481 0)
(0.905652 -0.00171305 0)
(0.911002 -0.00138104 0)
(0.915391 -0.00111999 0)
(0.919002 -0.000911103 0)
(0.921976 -0.000741499 0)
(0.924421 -0.000601959 0)
(0.926423 -0.000485654 0)
(0.928049 -0.000387358 0)
(0.929351 -0.000302954 0)
(0.930369 -0.000229098 0)
(0.931135 -0.000162995 0)
(0.931671 -0.00010223 0)
(0.931992 -4.46403e-05 0)
(0.932106 1.17805e-05 0)
(0.932014 6.89258e-05 0)
(0.931711 0.000128807 0)
(0.931185 0.000193486 0)
(0.930416 0.000265231 0)
(0.929379 0.000346647 0)
(0.928035 0.000440839 0)
(0.926339 0.000551633 0)
(0.924227 0.000683907 0)
(0.92162 0.000844069 0)
(0.918419 0.00104082 0)
(0.914488 0.00128635 0)
(0.909653 0.00159844 0)
(0.903678 0.00200415 0)
(0.896235 0.00254692 0)
(0.886857 0.00330079 0)
(0.874848 0.00440004 0)
(0.859118 0.00610335 0)
(0.837866 0.00893149 0)
(0.808035 0.0139445 0)
(0.764353 0.0232344 0)
(0.695886 0.0407637 0)
(0.577944 0.0737445 0)
(0.398059 0.128748 0)
(0.293874 0.15379 0)
(0.00109183 -0.294906 0)
(0.0168697 -0.298627 0)
(0.152317 -0.213005 0)
(0.282793 -0.145274 0)
(0.387856 -0.0995504 0)
(0.470923 -0.0696871 0)
(0.53615 -0.0503039 0)
(0.587397 -0.0374796 0)
(0.628012 -0.0287023 0)
(0.660563 -0.0224699 0)
(0.686921 -0.0178915 0)
(0.708452 -0.0144282 0)
(0.726161 -0.0117438 0)
(0.740802 -0.00962121 0)
(0.752948 -0.00791503 0)
(0.763042 -0.00652435 0)
(0.77143 -0.00537675 0)
(0.778385 -0.00441872 0)
(0.784126 -0.00360951 0)
(0.788825 -0.00291729 0)
(0.792619 -0.00231647 0)
(0.795616 -0.00178597 0)
(0.797898 -0.00130788 0)
(0.799526 -0.000866559 0)
(0.800539 -0.000447848 0)
(0.800961 -3.85068e-05 0)
(0.800795 0.000374299 0)
(0.800029 0.000803628 0)
(0.798633 0.00126318 0)
(0.796555 0.00176793 0)
(0.793724 0.00233492 0)
(0.790044 0.0029842 0)
(0.78539 0.00374014 0)
(0.779602 0.00463329 0)
(0.772475 0.00570301 0)
(0.763748 0.00700149 0)
(0.753086 0.00859985 0)
(0.740055 0.0105978 0)
(0.724085 0.0131398 0)
(0.704413 0.0164419 0)
(0.680011 0.0208401 0)
(0.649456 0.0268761 0)
(0.610767 0.0354551 0)
(0.56117 0.0481293 0)
(0.496927 0.0675581 0)
(0.413571 0.0980454 0)
(0.306196 0.145703 0)
(0.17047 0.217258 0)
(0.0268934 0.307185 0)
(0.00518824 0.303018 0)
(-0.0329146 -0.250412 0)
(-0.0615951 -0.34404 0)
(-0.0115526 -0.310518 0)
(0.0706393 -0.251359 0)
(0.158565 -0.195729 0)
(0.240837 -0.151053 0)
(0.3131 -0.117257 0)
(0.374672 -0.0920778 0)
(0.426462 -0.0732225 0)
(0.469832 -0.0589126 0)
(0.506131 -0.0478745 0)
(0.536547 -0.0392185 0)
(0.562072 -0.0323255 0)
(0.58352 -0.0267603 0)
(0.601555 -0.0222117 0)
(0.616715 -0.0184529 0)
(0.629436 -0.0153147 0)
(0.640077 -0.0126681 0)
(0.648927 -0.0104125 0)
(0.656222 -0.00846757 0)
(0.662153 -0.00676761 0)
(0.666869 -0.00525763 0)
(0.670489 -0.00389029 0)
(0.673098 -0.00262375 0)
(0.674754 -0.00141983 0)
(0.675489 -0.000242538 0)
(0.675309 0.000943265 0)
(0.674197 0.00217315 0)
(0.672106 0.0034845 0)
(0.668963 0.00491806 0)
(0.664666 0.0065198 0)
(0.659075 0.00834328 0)
(0.652012 0.0104529 0)
(0.643252 0.012928 0)
(0.632511 0.0158693 0)
(0.619433 0.0194073 0)
(0.603574 0.0237153 0)
(0.584376 0.0290283 0)
(0.561137 0.0356722 0)
(0.532973 0.0441075 0)
(0.498776 0.0549967 0)
(0.457179 0.0693041 0)
(0.406558 0.0884329 0)
(0.345154 0.114382 0)
(0.271526 0.149797 0)
(0.185799 0.197442 0)
(0.0919957 0.257854 0)
(0.001723 0.323177 0)
(-0.0569668 0.361486 0)
(-0.0321727 0.263989 0)
(-0.0267714 -0.190637 0)
(-0.0654603 -0.332949 0)
(-0.0646869 -0.351299 0)
(-0.0278202 -0.318869 0)
(0.0290415 -0.271427 0)
(0.0928209 -0.224709 0)
(0.155824 -0.184202 0)
(0.214265 -0.150822 0)
(0.26664 -0.123842 0)
(0.312668 -0.102133 0)
(0.35266 -0.0846152 0)
(0.387174 -0.0703884 0)
(0.41683 -0.0587432 0)
(0.442234 -0.0491326 0)
(0.463936 -0.0411366 0)
(0.482421 -0.0344308 0)
(0.49811 -0.028762 0)
(0.51136 -0.0239298 0)
(0.522474 -0.0197728 0)
(0.531704 -0.0161588 0)
(0.539258 -0.0129772 0)
(0.545303 -0.0101336 0)
(0.549972 -0.00754531 0)
(0.553361 -0.00513823 0)
(0.555538 -0.00284401 0)
(0.556537 -0.000597672 0)
(0.556365 0.00166452 0)
(0.554998 0.00400723 0)
(0.552382 0.00649829 0)
(0.548429 0.00921121 0)
(0.543017 0.0122282 0)
(0.535986 0.015644 0)
(0.52713 0.0195707 0)
(0.516194 0.0241441 0)
(0.502866 0.0295324 0)
(0.486765 0.0359483 0)
(0.467433 0.0436647 0)
(0.444323 0.0530374 0)
(0.416793 0.0645348 0)
(0.384103 0.0787773 0)
(0.345441 0.0965841 0)
(0.299997 0.119017 0)
(0.247135 0.147386 0)
(0.186763 0.183126 0)
(0.120033 0.227309 0)
(0.0506069 0.279258 0)
(-0.0134786 0.333229 0)
(-0.0580114 0.371925 0)
(-0.0647426 0.355783 0)
(-0.027295 0.204779 0)
(-0.0178555 -0.149166 0)
(-0.0531821 -0.302777 0)
(-0.0738717 -0.354492 0)
(-0.0671076 -0.349597 0)
(-0.038296 -0.318655 0)
(0.00335565 -0.279057 0)
(0.0506437 -0.239394 0)
(0.0988196 -0.203294 0)
(0.145055 -0.171872 0)
(0.187862 -0.145101 0)
(0.226602 -0.122506 0)
(0.261138 -0.103488 0)
(0.291601 -0.087468 0)
(0.318261 -0.0739354 0)
(0.341445 -0.0624582 0)
(0.361489 -0.0526774 0)
(0.378716 -0.0442962 0)
(0.393421 -0.0370679 0)
(0.405869 -0.0307862 0)
(0.416288 -0.025276 0)
(0.424874 -0.020387 0)
(0.431786 -0.0159876 0)
(0.437152 -0.0119602 0)
(0.441069 -0.00819768 0)
(0.4436 -0.00459995 0)
(0.444779 -0.00107089 0)
(0.444611 0.00248433 0)
(0.443066 0.00616206 0)
(0.440088 0.0100631 0)
(0.435581 0.014296 0)
(0.42942 0.0189808 0)
(0.421439 0.0242538 0)
(0.411432 0.0302735 0)
(0.399149 0.0372273 0)
(0.384294 0.0453411 0)
(0.366523 0.0548911 0)
(0.345442 0.0662174 0)
(0.32062 0.0797412 0)
(0.291602 0.0959826 0)
(0.25795 0.115574 0)
(0.219325 0.139259 0)
(0.175629 0.167845 0)
(0.127257 0.202057 0)
(0.0755089 0.242168 0)
(0.0231819 0.287204 0)
(-0.024657 0.333343 0)
(-0.0599905 0.371036 0)
(-0.0722456 0.380688 0)
(-0.054428 0.32789 0)
(-0.0186584 0.162403 0)
(-0.011442 -0.120859 0)
(-0.0403804 -0.269637 0)
(-0.0681902 -0.339491 0)
(-0.078459 -0.356294 0)
(-0.0700608 -0.342627 0)
(-0.04778 -0.314011 0)
(-0.01679 -0.279845 0)
(0.0186548 -0.245289 0)
(0.0554543 -0.212877 0)
(0.0915593 -0.183648 0)
(0.12573 -0.157852 0)
(0.157292 -0.135349 0)
(0.185942 -0.115834 0)
(0.211614 -0.0989497 0)
(0.234377 -0.0843421 0)
(0.254382 -0.0716832 0)
(0.271813 -0.0606794 0)
(0.286867 -0.0510713 0)
(0.299735 -0.0426308 0)
(0.310597 -0.0351566 0)
(0.31961 -0.0284695 0)
(0.326908 -0.0224082 0)
(0.3326 -0.0168253 0)
(0.336769 -0.0115837 0)
(0.33947 -0.00655344 0)
(0.340731 -0.00160841 0)
(0.340549 0.00337654 0)
(0.338896 0.00852874 0)
(0.335711 0.013981 0)
(0.330906 0.019875 0)
(0.324358 0.0263659 0)
(0.315915 0.0336264 0)
(0.305393 0.0418528 0)
(0.292574 0.0512713 0)
(0.277216 0.0621453 0)
(0.259052 0.0747834 0)
(0.237808 0.0895469 0)
(0.213223 0.106855 0)
(0.185091 0.12718 0)
(0.153325 0.15103 0)
(0.118062 0.178891 0)
(0.0798285 0.2111 0)
(0.0397747 0.247591 0)
(-1.2868e-05 0.287411 0)
(-0.0361764 0.327882 0)
(-0.0638832 0.363248 0)
(-0.0770369 0.382744 0)
(-0.0697445 0.368526 0)
(-0.0424214 0.294864 0)
(-0.0122013 0.132851 0)
(-0.00749322 -0.100789 0)
(-0.0305879 -0.239164 0)
(-0.0590651 -0.317095 0)
(-0.0777992 -0.348772 0)
(-0.0826838 -0.349767 0)
(-0.0752238 -0.332582 0)
(-0.0584258 -0.305988 0)
(-0.035436 -0.275613 0)
(-0.00897281 -0.244798 0)
(0.0188777 -0.215371 0)
(0.0466385 -0.188219 0)
(0.073331 -0.163676 0)
(0.0983511 -0.141766 0)
(0.121363 -0.122349 0)
(0.142212 -0.105207 0)
(0.160867 -0.0900963 0)
(0.177368 -0.0767668 0)
(0.1918 -0.0649789 0)
(0.20427 -0.0545073 0)
(0.214888 -0.0451428 0)
(0.223762 -0.0366917 0)
(0.230989 -0.0289732 0)
(0.236649 -0.0218181 0)
(0.240804 -0.0150653 0)
(0.243493 -0.00855963 0)
(0.244734 -0.00214887 0)
(0.24452 0.00431899 0)
(0.242822 0.0109987 0)
(0.239583 0.0180511 0)
(0.234723 0.0256461 0)
(0.228137 0.033967 0)
(0.219698 0.0432137 0)
(0.209257 0.0536076 0)
(0.196652 0.0653955 0)
(0.181714 0.0788531 0)
(0.16428 0.0942869 0)
(0.144217 0.112032 0)
(0.121453 0.132444 0)
(0.0960294 0.155869 0)
(0.0681736 0.182597 0)
(0.0384039 0.212764 0)
(0.0076673 0.24617 0)
(-0.0224927 0.281992 0)
(-0.0497711 0.318298 0)
(-0.0710281 0.35135 0)
(-0.0824791 0.374661 0)
(-0.0803416 0.37799 0)
(-0.0624424 0.346781 0)
(-0.0328908 0.263197 0)
(-0.00814822 0.111434 0)
(-0.00516145 -0.086037 0)
(-0.0237117 -0.21263 0)
(-0.0503837 -0.292532 0)
(-0.0726798 -0.333365 0)
(-0.085602 -0.34551 0)
(-0.0886677 -0.338487 0)
(-0.0831605 -0.319799 0)
(-0.0710582 -0.294846 0)
(-0.0544223 -0.267248 0)
(-0.0350617 -0.239288 0)
(-0.0144164 -0.212316 0)
(0.00644002 -0.187062 0)
(0.026749 -0.16386 0)
(0.0460028 -0.142803 0)
(0.0638834 -0.123838 0)
(0.08021 -0.106831 0)
(0.0948979 -0.0916056 0)
(0.107926 -0.0779666 0)
(0.119315 -0.0657128 0)
(0.129106 -0.0546444 0)
(0.137352 -0.0445669 0)
(0.144106 -0.0352918 0)
(0.149414 -0.026637 0)
(0.153314 -0.018425 0)
(0.155827 -0.0104819 0)
(0.15696 -0.00263512 0)
(0.156701 0.00528867 0)
(0.155021 0.0134661 0)
(0.15187 0.0220797 0)
(0.147183 0.0313204 0)
(0.140879 0.0413903 0)
(0.132864 0.0525052 0)
(0.123036 0.0648964 0)
(0.111297 0.0788121 0)
(0.0975618 0.0945152 0)
(0.0817764 0.112279 0)
(0.0639468 0.132374 0)
(0.0441746 0.155046 0)
(0.0227082 0.180469 0)
(1.01464e-05 0.208676 0)
(-0.02316 0.239437 0)
(-0.0456524 0.272067 0)
(-0.0658435 0.305147 0)
(-0.0816046 0.336127 0)
(-0.0904129 0.360822 0)
(-0.0897349 0.372879 0)
(-0.0777632 0.363432 0)
(-0.0547254 0.321342 0)
(-0.026055 0.234757 0)
(-0.00572541 0.0953462 0)
(-0.00376662 -0.0747311 0)
(-0.018958 -0.189794 0)
(-0.0431631 -0.268192 0)
(-0.066456 -0.313966 0)
(-0.0839548 -0.333946 0)
(-0.0941535 -0.335161 0)
(-0.0971631 -0.32372 0)
(-0.0939838 -0.304438 0)
(-0.0859901 -0.28085 0)
(-0.0745798 -0.25541 0)
(-0.0609934 -0.229739 0)
(-0.0462491 -0.20485 0)
(-0.0311367 -0.181331 0)
(-0.0162416 -0.159481 0)
(-0.00197987 -0.139411 0)
(0.0113663 -0.121106 0)
(0.0236159 -0.104478 0)
(0.0346614 -0.0893913 0)
(0.0444472 -0.0756827 0)
(0.0529518 -0.063176 0)
(0.0601748 -0.0516879 0)
(0.0661262 -0.0410324 0)
(0.0708196 -0.0310238 0)
(0.0742655 -0.0214762 0)
(0.0764682 -0.0122042 0)
(0.0774227 -0.00302172 0)
(0.0771132 0.00625937 0)
(0.0755122 0.0158307 0)
(0.0725812 0.0258888 0)
(0.0682724 0.0366371 0)
(0.0625314 0.0482866 0)
(0.0553022 0.0610567 0)
(0.0465347 0.0751741 0)
(0.0361948 0.0908704 0)
(0.0242791 0.108375 0)
(0.0108354 0.127905 0)
(-0.00401066 0.149639 0)
(-0.0200203 0.173692 0)
(-0.0367979 0.200049 0)
(-0.05374 0.228493 0)
(-0.0699809 0.258469 0)
(-0.0843494 0.28892 0)
(-0.0953572 0.318042 0)
(-0.101262 0.343001 0)
(-0.100276 0.359625 0)
(-0.0909919 0.362182 0)
(-0.0730283 0.343422 0)
(-0.0479374 0.295145 0)
(-0.0212401 0.209665 0)
(-0.004259 0.0827631 0)
(-0.00290079 -0.0656961 0)
(-0.0156377 -0.17003 0)
(-0.0374428 -0.245031 0)
(-0.0604945 -0.292821 0)
(-0.0804206 -0.31789 0)
(-0.095296 -0.325355 0)
(-0.104518 -0.32005 0)
(-0.108366 -0.306083 0)
(-0.107616 -0.286697 0)
(-0.103238 -0.264315 0)
(-0.096204 -0.240666 0)
(-0.0873873 -0.216929 0)
(-0.0775224 -0.193873 0)
(-0.0671978 -0.171962 0)
(-0.0568668 -0.151445 0)
(-0.0468674 -0.132424 0)
(-0.037443 -0.114898 0)
(-0.0287635 -0.0987946 0)
(-0.0209431 -0.0839999 0)
(-0.0140558 -0.0703689 0)
(-0.00814747 -0.0577385 0)
(-0.00324585 -0.0459341 0)
(0.000631677 -0.034774 0)
(0.00347236 -0.0240717 0)
(0.00526387 -0.0136375 0)
(0.00599143 -0.00327876 0)
(0.00563623 0.00720036 0)
(0.00417497 0.017999 0)
(0.00158075 0.0293203 0)
(-0.00217487 0.0413709 0)
(-0.00711791 0.0543611 0)
(-0.0132662 0.0685026 0)
(-0.0206214 0.084005 0)
(-0.0291575 0.101069 0)
(-0.0388056 0.119877 0)
(-0.0494353 0.140573 0)
(-0.0608299 0.163237 0)
(-0.0726577 0.187845 0)
(-0.0844396 0.214206 0)
(-0.0955175 0.241886 0)
(-0.10503 0.270085 0)
(-0.111909 0.297496 0)
(-0.11492 0.322132 0)
(-0.112779 0.341134 0)
(-0.104387 0.350629 0)
(-0.0892181 0.345706 0)
(-0.0678082 0.320647 0)
(-0.0423136 0.269554 0)
(-0.017802 0.187512 0)
(-0.00333409 0.0725278 0)
(-0.00233895 -0.0582074 0)
(-0.0132729 -0.152705 0)
(-0.0329859 -0.223322 0)
(-0.0552638 -0.271153 0)
(-0.0763363 -0.299175 0)
(-0.094195 -0.311103 0)
(-0.10785 -0.310704 0)
(-0.117089 -0.301388 0)
(-0.122223 -0.286014 0)
(-0.123839 -0.266848 0)
(-0.122629 -0.245608 0)
(-0.119283 -0.223543 0)
(-0.114428 -0.201527 0)
(-0.108605 -0.18014 0)
(-0.102257 -0.159742 0)
(-0.0957382 -0.14053 0)
(-0.0893232 -0.122581 0)
(-0.0832194 -0.105889 0)
(-0.0775809 -0.0903884 0)
(-0.0725201 -0.0759696 0)
(-0.0681181 -0.0624958 0)
(-0.0644333 -0.0498097 0)
(-0.0615083 -0.0377402 0)
(-0.0593755 -0.0261068 0)
(-0.0580608 -0.0147219 0)
(-0.0575866 -0.00339285 0)
(-0.0579728 0.00807692 0)
(-0.0592373 0.0198872 0)
(-0.061395 0.0322396 0)
(-0.0644546 0.0453367 0)
(-0.0684153 0.0593791 0)
(-0.0732599 0.0745616 0)
(-0.0789471 0.0910672 0)
(-0.0854004 0.109057 0)
(-0.0924944 0.128657 0)
(-0.100038 0.149935 0)
(-0.107756 0.17287 0)
(-0.115268 0.197314 0)
(-0.122068 0.222927 0)
(-0.127513 0.249107 0)
(-0.13082 0.274892 0)
(-0.131097 0.298851 0)
(-0.127409 0.318964 0)
(-0.118915 0.332523 0)
(-0.105085 0.336101 0)
(-0.0860232 0.325628 0)
(-0.0627954 0.296699 0)
(-0.0377348 0.245128 0)
(-0.0152832 0.167804 0)
(-0.00272 0.0639276 0)
(-0.0019582 -0.0518079 0)
(-0.0115514 -0.13729 0)
(-0.0295215 -0.203035 0)
(-0.0508501 -0.249594 0)
(-0.0723312 -0.278966 0)
(-0.0920395 -0.293859 0)
(-0.108807 -0.297189 0)
(-0.122114 -0.291742 0)
(-0.131929 -0.279975 0)
(-0.138523 -0.263931 0)
(-0.142336 -0.245239 0)
(-0.143866 -0.225142 0)
(-0.143613 -0.204559 0)
(-0.142037 -0.184138 0)
(-0.139539 -0.164314 0)
(-0.13646 -0.145359 0)
(-0.133078 -0.127417 0)
(-0.129616 -0.110537 0)
(-0.12625 -0.0946984 0)
(-0.123118 -0.0798307 0)
(-0.120324 -0.0658242 0)
(-0.117949 -0.0525427 0)
(-0.116053 -0.0398306 0)
(-0.114685 -0.0275181 0)
(-0.11388 -0.0154254 0)
(-0.113665 -0.00336585 0)
(-0.11406 0.00885203 0)
(-0.115077 0.0214222 0)
(-0.116717 0.0345385 0)
(-0.118972 0.0483923 0)
(-0.121818 0.0631677 0)
(-0.125206 0.0790362 0)
(-0.129062 0.0961478 0)
(-0.13327 0.11462 0)
(-0.137666 0.13452 0)
(-0.142023 0.155841 0)
(-0.146035 0.178476 0)
(-0.149313 0.202168 0)
(-0.151368 0.226466 0)
(-0.15162 0.250658 0)
(-0.149413 0.273694 0)
(-0.144057 0.294116 0)
(-0.134915 0.309984 0)
(-0.121527 0.318843 0)
(-0.103804 0.31775 0)
(-0.0822628 0.303416 0)
(-0.0582357 0.272495 0)
(-0.0340046 0.222039 0)
(-0.0133837 0.150101 0)
(-0.00229083 0.0565147 0)
(-0.00169013 -0.0461988 0)
(-0.0102716 -0.123368 0)
(-0.0268172 -0.184029 0)
(-0.0471916 -0.228444 0)
(-0.0686718 -0.257982 0)
(-0.0894853 -0.274632 0)
(-0.108412 -0.280649 0)
(-0.124751 -0.278289 0)
(-0.138233 -0.269625 0)
(-0.14889 -0.256458 0)
(-0.156941 -0.240279 0)
(-0.162712 -0.222276 0)
(-0.166567 -0.203365 0)
(-0.168873 -0.18422 0)
(-0.16997 -0.165323 0)
(-0.170165 -0.146993 0)
(-0.169719 -0.129426 0)
(-0.168854 -0.112717 0)
(-0.167752 -0.0968862 0)
(-0.166561 -0.0818958 0)
(-0.1654 -0.0676648 0)
(-0.164362 -0.0540797 0)
(-0.163522 -0.0410029 0)
(-0.162936 -0.0282793 0)
(-0.162644 -0.0157411 0)
(-0.162678 -0.00321216 0)
(-0.163055 0.00948875 0)
(-0.163779 0.0225445 0)
(-0.164841 0.0361362 0)
(-0.166218 0.0504384 0)
(-0.167865 0.0656144 0)
(-0.169711 0.0818078 0)
(-0.171656 0.0991338 0)
(-0.173559 0.117665 0)
(-0.175233 0.137414 0)
(-0.176435 0.158309 0)
(-0.176861 0.180168 0)
(-0.176136 0.202657 0)
(-0.173826 0.225248 0)
(-0.16944 0.247168 0)
(-0.162467 0.267348 0)
(-0.152424 0.284374 0)
(-0.138938 0.296455 0)
(-0.121861 0.301431 0)
(-0.10142 0.296835 0)
(-0.0783832 0.280048 0)
(-0.0541826 0.248552 0)
(-0.030941 0.200284 0)
(-0.0119112 0.134046 0)
(-0.00197696 0.0499969 0)
(-0.00149533 -0.0411776 0)
(-0.00930229 -0.110617 0)
(-0.0246913 -0.16613 0)
(-0.0441815 -0.207826 0)
(-0.0654454 -0.236663 0)
(-0.0868817 -0.254117 0)
(-0.107286 -0.261936 0)
(-0.125865 -0.261936 0)
(-0.142192 -0.25585 0)
(-0.156119 -0.245236 0)
(-0.167691 -0.231427 0)
(-0.177079 -0.215525 0)
(-0.184523 -0.198405 0)
(-0.190293 -0.18074 0)
(-0.194659 -0.163026 0)
(-0.197881 -0.145614 0)
(-0.200191 -0.12873 0)
(-0.201796 -0.112505 0)
(-0.202871 -0.096992 0)
(-0.203564 -0.082183 0)
(-0.204 -0.0680227 0)
(-0.204277 -0.0544202 0)
(-0.204474 -0.0412573 0)
(-0.204652 -0.0283955 0)
(-0.204857 -0.0156822 0)
(-0.205117 -0.0029552 0)
(-0.205445 0.00995265 0)
(-0.205842 0.0232094 0)
(-0.206287 0.0369791 0)
(-0.206745 0.0514168 0)
(-0.207155 0.0666617 0)
(-0.207431 0.0828287 0)
(-0.207457 0.0999978 0)
(-0.207078 0.1182 0)
(-0.206102 0.1374 0)
(-0.204287 0.157475 0)
(-0.201347 0.178184 0)
(-0.19695 0.199142 0)
(-0.190729 0.219781 0)
(-0.182301 0.239311 0)
(-0.171301 0.256692 0)
(-0.157435 0.270601 0)
(-0.140556 0.279434 0)
(-0.120753 0.281333 0)
(-0.0984684 0.274263 0)
(-0.0746123 0.256163 0)
(-0.0506139 0.22515 0)
(-0.0283985 0.179785 0)
(-0.0107419 0.119353 0)
(-0.00173867 0.0441753 0)
(-0.00135012 -0.0366027 0)
(-0.0085561 -0.0987929 0)
(-0.0230068 -0.14917 0)
(-0.04171 -0.187769 0)
(-0.0626556 -0.215272 0)
(-0.0844061 -0.232786 0)
(-0.105808 -0.241673 0)
(-0.12603 -0.243392 0)
(-0.144545 -0.239381 0)
(-0.161077 -0.230969 0)
(-0.175536 -0.219327 0)
(-0.187963 -0.205452 0)
(-0.198488 -0.190157 0)
(-0.207289 -0.174089 0)
(-0.214565 -0.157738 0)
(-0.220521 -0.141464 0)
(-0.225355 -0.125514 0)
(-0.229246 -0.110039 0)
(-0.232357 -0.0951186 0)
(-0.234827 -0.0807673 0)
(-0.236776 -0.0669531 0)
(-0.238303 -0.0536061 0)
(-0.239487 -0.0406273 0)
(-0.240389 -0.0278962 0)
(-0.241054 -0.0152769 0)
(-0.241508 -0.0026237 0)
(-0.241761 0.0102141 0)
(-0.241806 0.0233871 0)
(-0.241615 0.0370402 0)
(-0.241143 0.0513069 0)
(-0.240319 0.0663017 0)
(-0.239048 0.0821112 0)
(-0.237205 0.0987831 0)
(-0.234636 0.116313 0)
(-0.231151 0.134626 0)
(-0.226527 0.153559 0)
(-0.22051 0.172837 0)
(-0.212823 0.192046 0)
(-0.203176 0.210607 0)
(-0.191295 0.227749 0)
(-0.176955 0.242493 0)
(-0.160026 0.253638 0)
(-0.140541 0.25978 0)
(-0.118765 0.259346 0)
(-0.0952821 0.250683 0)
(-0.0710633 0.232176 0)
(-0.0474839 0.202426 0)
(-0.0262678 0.160437 0)
(-0.00979513 0.1058 0)
(-0.00155242 0.0389087 0)
(-0.0012397 -0.0323725 0)
(-0.00797399 -0.0877063 0)
(-0.0216623 -0.133 0)
(-0.0396804 -0.168252 0)
(-0.0602703 -0.193958 0)
(-0.082141 -0.210957 0)
(-0.104204 -0.220316 0)
(-0.125621 -0.223205 0)
(-0.145807 -0.22081 0)
(-0.164397 -0.214252 0)
(-0.181198 -0.204548 0)
(-0.196148 -0.192578 0)
(-0.20928 -0.179085 0)
(-0.220689 -0.164668 0)
(-0.230507 -0.149797 0)
(-0.238886 -0.134826 0)
(-0.245981 -0.120007 0)
(-0.251942 -0.105505 0)
(-0.256911 -0.0914127 0)
(-0.261014 -0.0777649 0)
(-0.26436 -0.0645479 0)
(-0.267044 -0.0517102 0)
(-0.26914 -0.0391713 0)
(-0.270708 -0.0268286 0)
(-0.271786 -0.0145636 0)
(-0.272399 -0.0022482 0)
(-0.272552 0.0102503 0)
(-0.272232 0.0230637 0)
(-0.271405 0.0363168 0)
(-0.270019 0.0501212 0)
(-0.267998 0.0645676 0)
(-0.265243 0.0797166 0)
(-0.261631 0.0955882 0)
(-0.257011 0.112149 0)
(-0.25121 0.129295 0)
(-0.244032 0.146838 0)
(-0.235263 0.164484 0)
(-0.224687 0.181813 0)
(-0.212095 0.19826 0)
(-0.197318 0.213097 0)
(-0.180252 0.225429 0)
(-0.160906 0.234192 0)
(-0.139454 0.238177 0)
(-0.116286 0.236073 0)
(-0.0920695 0.226548 0)
(-0.067791 0.208349 0)
(-0.0447453 0.180436 0)
(-0.0244685 0.142125 0)
(-0.00901713 0.0932074 0)
(-0.00140366 0.0340933 0)
(-0.00115443 -0.028412 0)
(-0.00751518 -0.0772113 0)
(-0.0205828 -0.117491 0)
(-0.038013 -0.149232 0)
(-0.0582468 -0.172803 0)
(-0.0801189 -0.188845 0)
(-0.102608 -0.198195 0)
(-0.124887 -0.201793 0)
(-0.146342 -0.200609 0)
(-0.166545 -0.195583 0)
(-0.185228 -0.187582 0)
(-0.202247 -0.177375 0)
(-0.217555 -0.165621 0)
(-0.231177 -0.152865 0)
(-0.243181 -0.139544 0)
(-0.253667 -0.125994 0)
(-0.262749 -0.11246 0)
(-0.270546 -0.0991109 0)
(-0.277175 -0.0860486 0)
(-0.282745 -0.0733192 0)
(-0.287352 -0.0609237 0)
(-0.291081 -0.0488268 0)
(-0.294 -0.0369645 0)
(-0.296162 -0.025251 0)
(-0.297601 -0.0135857 0)
(-0.298338 -0.00185799 0)
(-0.298371 0.0100463 0)
(-0.297684 0.02224 0)
(-0.296238 0.0348278 0)
(-0.293978 0.0479006 0)
(-0.290826 0.061527 0)
(-0.286684 0.0757453 0)
(-0.281434 0.0905529 0)
(-0.27494 0.105895 0)
(-0.267047 0.121649 0)
(-0.257594 0.137616 0)
(-0.246412 0.153496 0)
(-0.233346 0.168883 0)
(-0.218267 0.183243 0)
(-0.201098 0.19591 0)
(-0.18184 0.206085 0)
(-0.160617 0.212843 0)
(-0.137706 0.21516 0)
(-0.113585 0.211959 0)
(-0.0889658 0.202174 0)
(-0.064821 0.184837 0)
(-0.042357 0.159181 0)
(-0.0229429 0.12474 0)
(-0.00837171 0.0814293 0)
(-0.00128307 0.0296495 0)
(-0.00108789 -0.0246642 0)
(-0.00715114 -0.0671925 0)
(-0.0197132 -0.102531 0)
(-0.0366445 -0.130657 0)
(-0.0565424 -0.151844 0)
(-0.0783468 -0.166589 0)
(-0.101099 -0.175548 0)
(-0.123995 -0.179474 0)
(-0.146406 -0.179155 0)
(-0.167864 -0.17537 0)
(-0.188045 -0.16885 0)
(-0.206742 -0.160255 0)
(-0.223845 -0.150159 0)
(-0.239316 -0.139046 0)
(-0.253169 -0.12731 0)
(-0.265457 -0.11526 0)
(-0.276254 -0.10313 0)
(-0.285648 -0.0910799 0)
(-0.293731 -0.0792154 0)
(-0.300591 -0.0675892 0)
(-0.30631 -0.0562127 0)
(-0.310962 -0.0450633 0)
(-0.314605 -0.0340917 0)
(-0.317284 -0.023228 0)
(-0.319031 -0.0123881 0)
(-0.319857 -0.00147875 0)
(-0.319758 0.00959621 0)
(-0.318713 0.0209309 0)
(-0.316683 0.0326115 0)
(-0.313607 0.0447093 0)
(-0.309412 0.0572742 0)
(-0.304003 0.070326 0)
(-0.297273 0.0838454 0)
(-0.289102 0.0977638 0)
(-0.279361 0.111951 0)
(-0.267921 0.126206 0)
(-0.254663 0.14024 0)
(-0.23949 0.153672 0)
(-0.222343 0.166014 0)
(-0.203228 0.176673 0)
(-0.182235 0.184951 0)
(-0.159574 0.190059 0)
(-0.135603 0.191144 0)
(-0.110855 0.187329 0)
(-0.0860613 0.177771 0)
(-0.0621655 0.161726 0)
(-0.0402864 0.138631 0)
(-0.0216495 0.108172 0)
(-0.00783405 0.0703431 0)
(-0.00118452 0.0255142 0)
(-0.00103571 -0.0210855 0)
(-0.00686168 -0.0575579 0)
(-0.0190132 -0.0880272 0)
(-0.0355258 -0.11247 0)
(-0.0551195 -0.131094 0)
(-0.0768205 -0.144281 0)
(-0.0997265 -0.152547 0)
(-0.123058 -0.156489 0)
(-0.146182 -0.156743 0)
(-0.168607 -0.153946 0)
(-0.189968 -0.148706 0)
(-0.210011 -0.141577 0)
(-0.228573 -0.13305 0)
(-0.245566 -0.123544 0)
(-0.260958 -0.113405 0)
(-0.27476 -0.10291 0)
(-0.28701 -0.09227 0)
(-0.297765 -0.0816358 0)
(-0.307093 -0.0711077 0)
(-0.315063 -0.0607411 0)
(-0.321742 -0.0505539 0)
(-0.327189 -0.0405334 0)
(-0.331454 -0.0306425 0)
(-0.334575 -0.0208256 0)
(-0.336575 -0.0110139 0)
(-0.337461 -0.00113082 0)
(-0.337226 0.00890299 0)
(-0.335844 0.0191643 0)
(-0.333274 0.0297218 0)
(-0.329458 0.0406303 0)
(-0.324325 0.0519236 0)
(-0.317788 0.0636078 0)
(-0.309752 0.0756529 0)
(-0.300114 0.0879836 0)
(-0.288773 0.100471 0)
(-0.275635 0.112921 0)
(-0.260625 0.125068 0)
(-0.243699 0.136565 0)
(-0.224863 0.146983 0)
(-0.20419 0.155803 0)
(-0.181843 0.162432 0)
(-0.1581 0.166211 0)
(-0.133375 0.166439 0)
(-0.108236 0.162413 0)
(-0.0834194 0.153472 0)
(-0.0598306 0.13905 0)
(-0.0385089 0.118735 0)
(-0.0205586 0.0923203 0)
(-0.00738703 0.059843 0)
(-0.00110387 0.0216352 0)
(-0.000994845 -0.0176407 0)
(-0.00663248 -0.0482321 0)
(-0.0184534 -0.0738972 0)
(-0.0346197 -0.0946154 0)
(-0.0539472 -0.110544 0)
(-0.0755315 -0.121976 0)
(-0.0985182 -0.129312 0)
(-0.122152 -0.13302 0)
(-0.145803 -0.133607 0)
(-0.168964 -0.131585 0)
(-0.191243 -0.127448 0)
(-0.212349 -0.121652 0)
(-0.232079 -0.114605 0)
(-0.250303 -0.106662 0)
(-0.266952 -0.098118 0)
(-0.281999 -0.0892109 0)
(-0.295453 -0.0801257 0)
(-0.307343 -0.0709977 0)
(-0.317714 -0.0619186 0)
(-0.326616 -0.0529417 0)
(-0.334102 -0.044088 0)
(-0.340218 -0.0353519 0)
(-0.345005 -0.0267063 0)
(-0.348492 -0.0181082 0)
(-0.350695 -0.00950264 0)
(-0.351618 -0.000828237 0)
(-0.351248 0.00797864 0)
(-0.349558 0.016979 0)
(-0.346507 0.0262262 0)
(-0.342039 0.0357608 0)
(-0.336086 0.0456043 0)
(-0.32857 0.0557534 0)
(-0.31941 0.0661726 0)
(-0.308523 0.0767869 0)
(-0.295831 0.0874747 0)
(-0.281274 0.0980601 0)
(-0.264817 0.108306 0)
(-0.246463 0.117912 0)
(-0.226272 0.126506 0)
(-0.204373 0.133654 0)
(-0.180988 0.138861 0)
(-0.156445 0.141589 0)
(-0.131198 0.141277 0)
(-0.105834 0.137369 0)
(-0.0810857 0.129354 0)
(-0.0578204 0.116805 0)
(-0.037007 0.0994263 0)
(-0.0196497 0.0770835 0)
(-0.00701878 0.0498351 0)
(-0.00103827 0.0179683 0)
(-0.00096319 -0.0143015 0)
(-0.00645333 -0.0391518 0)
(-0.0180122 -0.0600701 0)
(-0.0338986 -0.0770392 0)
(-0.0530014 -0.0901767 0)
(-0.074471 -0.0997044 0)
(-0.0974924 -0.105927 0)
(-0.121332 -0.109205 0)
(-0.145367 -0.109931 0)
(-0.16908 -0.108507 0)
(-0.192059 -0.105323 0)
(-0.213987 -0.100744 0)
(-0.23463 -0.0950975 0)
(-0.253828 -0.0886723 0)
(-0.271477 -0.0817108 0)
(-0.287524 -0.0744109 0)
(-0.301948 -0.0669275 0)
(-0.314758 -0.0593758 0)
(-0.325978 -0.0518353 0)
(-0.335641 -0.0443539 0)
(-0.343786 -0.0369529 0)
(-0.350448 -0.0296312 0)
(-0.355659 -0.0223699 0)
(-0.359439 -0.0151364 0)
(-0.361801 -0.00788849 0)
(-0.362742 -0.000578339 0)
(-0.362248 0.00684342 0)
(-0.360289 0.0144237 0)
(-0.356824 0.0222026 0)
(-0.3518 0.0302091 0)
(-0.345154 0.0384556 0)
(-0.336818 0.0469334 0)
(-0.326722 0.0556064 0)
(-0.314801 0.0644057 0)
(-0.301002 0.0732236 0)
(-0.285292 0.081908 0)
(-0.267671 0.0902582 0)
(-0.248183 0.0980218 0)
(-0.226931 0.104894 0)
(-0.20409 0.11052 0)
(-0.179926 0.114504 0)
(-0.154804 0.116418 0)
(-0.129205 0.115825 0)
(-0.103728 0.112297 0)
(-0.0790948 0.105448 0)
(-0.0561384 0.094962 0)
(-0.0357681 0.0806287 0)
(-0.0189082 0.0623647 0)
(-0.00672105 0.040234 0)
(-0.000985789 0.0144747 0)
(-0.000939273 -0.0110438 0)
(-0.00631703 -0.0302629 0)
(-0.0176745 -0.0464821 0)
(-0.0333421 -0.0596883 0)
(-0.0522637 -0.0699667 0)
(-0.0736313 -0.0774794 0)
(-0.0966609 -0.0824501 0)
(-0.120638 -0.0851463 0)
(-0.144944 -0.0858606 0)
(-0.169059 -0.0848941 0)
(-0.192557 -0.0825418 0)
(-0.215102 -0.0790815 0)
(-0.236438 -0.0747658 0)
(-0.256378 -0.0698167 0)
(-0.274797 -0.0644233 0)
(-0.291616 -0.0587409 0)
(-0.306795 -0.0528921 0)
(-0.320322 -0.0469692 0)
(-0.332206 -0.0410367 0)
(-0.342465 -0.0351346 0)
(-0.351127 -0.0292818 0)
(-0.358217 -0.0234797 0)
(-0.363758 -0.0177157 0)
(-0.367766 -0.0119662 0)
(-0.370247 -0.00620012 0)
(-0.371195 -0.000381923 0)
(-0.370592 0.00552499 0)
(-0.368409 0.0115551 0)
(-0.364604 0.0177372 0)
(-0.359128 0.024091 0)
(-0.351923 0.030623 0)
(-0.342928 0.0373225 0)
(-0.332085 0.0441569 0)
(-0.319345 0.051068 0)
(-0.304674 0.0579668 0)
(-0.288063 0.0647306 0)
(-0.269541 0.071199 0)
(-0.249184 0.0771727 0)
(-0.22713 0.0824137 0)
(-0.203587 0.0866484 0)
(-0.178855 0.0895735 0)
(-0.153326 0.0908661 0)
(-0.127499 0.0901982 0)
(-0.101978 0.0872546 0)
(-0.0774728 0.0817535 0)
(-0.0547876 0.0734701 0)
(-0.0347841 0.0622583 0)
(-0.0183242 0.0480687 0)
(-0.00648819 0.0309598 0)
(-0.000945073 0.0111189 0)
(-0.000922089 -0.00784668 0)
(-0.00621857 -0.0215172 0)
(-0.0174294 -0.0330751 0)
(-0.0329357 -0.0425112 0)
(-0.0517207 -0.0498832 0)
(-0.0730062 -0.0553018 0)
(-0.0960313 -0.0589201 0)
(-0.120095 -0.0609223 0)
(-0.144586 -0.0615109 0)
(-0.16898 -0.060895 0)
(-0.192844 -0.0592809 0)
(-0.215829 -0.0568639 0)
(-0.237661 -0.0538224 0)
(-0.258138 -0.0503141 0)
(-0.277115 -0.0464741 0)
(-0.294497 -0.0424138 0)
(-0.310228 -0.0382221 0)
(-0.324282 -0.0339661 0)
(-0.336653 -0.0296933 0)
(-0.347352 -0.0254336 0)
(-0.356395 -0.0212019 0)
(-0.3638 -0.0170004 0)
(-0.369584 -0.0128211 0)
(-0.373757 -0.00864832 0)
(-0.376322 -0.0044607 0)
(-0.377269 -0.00023387 0)
(-0.37658 0.0040573 0)
(-0.374223 0.00843629 0)
(-0.37016 0.0129224 0)
(-0.364341 0.0175281 0)
(-0.356714 0.0222562 0)
(-0.347224 0.0270969 0)
(-0.335823 0.0320247 0)
(-0.322474 0.0369953 0)
(-0.307157 0.0419427 0)
(-0.289885 0.0467766 0)
(-0.270705 0.0513805 0)
(-0.24972 0.0556107 0)
(-0.22709 0.0592969 0)
(-0.203052 0.0622448 0)
(-0.177926 0.0642409 0)
(-0.152125 0.0650596 0)
(-0.126156 0.0644737 0)
(-0.100628 0.0622666 0)
(-0.0762397 0.0582473 0)
(-0.0537713 0.0522653 0)
(-0.0340496 0.0442257 0)
(-0.017891 0.0341007 0)
(-0.00631635 0.0219367 0)
(-0.000915211 0.00786821 0)
(-0.000910967 -0.00469155 0)
(-0.00615462 -0.0128711 0)
(-0.0172696 -0.0197949 0)
(-0.0326698 -0.0254574 0)
(-0.0513634 -0.0298922 0)
(-0.0725917 -0.0331636 0)
(-0.0956088 -0.0353611 0)
(-0.119724 -0.0365923 0)
(-0.144328 -0.0369763 0)
(-0.168899 -0.0366363 0)
(-0.192996 -0.0356942 0)
(-0.216262 -0.0342659 0)
(-0.238414 -0.0324576 0)
(-0.259239 -0.0303636 0)
(-0.278579 -0.0280648 0)
(-0.296329 -0.0256285 0)
(-0.312421 -0.0231082 0)
(-0.32682 -0.0205448 0)
(-0.339512 -0.0179672 0)
(-0.350499 -0.015394 0)
(-0.359793 -0.0128347 0)
(-0.367405 -0.0102911 0)
(-0.373348 -0.00775876 0)
(-0.377629 -0.00522871 0)
(-0.380247 -0.00268858 0)
(-0.381191 -0.00012411 0)
(-0.380442 0.00247934 0)
(-0.377968 0.00513538 0)
(-0.373729 0.00785506 0)
(-0.36768 0.0106452 0)
(-0.35977 0.0135068 0)
(-0.349951 0.016433 0)
(-0.338179 0.0194077 0)
(-0.324426 0.0224032 0)
(-0.308685 0.0253789 0)
(-0.290977 0.0282797 0)
(-0.271369 0.0310348 0)
(-0.249975 0.0335576 0)
(-0.226975 0.0357459 0)
(-0.202622 0.0374837 0)
(-0.177249 0.038644 0)
(-0.15128 0.0390936 0)
(-0.125232 0.0386989 0)
(-0.0997116 0.0373337 0)
(-0.0754097 0.034887 0)
(-0.0530922 0.0312726 0)
(-0.0335614 0.0264372 0)
(-0.0176042 0.0203669 0)
(-0.00620303 0.0130914 0)
(-0.000895602 0.0046916 0)
(-0.000905501 -0.00156108 0)
(-0.00612313 -0.00428375 0)
(-0.0171908 -0.00658977 0)
(-0.0325383 -0.00847734 0)
(-0.0511861 -0.00995745 0)
(-0.0723851 -0.0110512 0)
(-0.0953968 -0.0117881 0)
(-0.119535 -0.0122034 0)
(-0.144194 -0.0123366 0)
(-0.168849 -0.0122281 0)
(-0.193059 -0.0119185 0)
(-0.216463 -0.0114461 0)
(-0.238772 -0.0108462 0)
(-0.259768 -0.01015 0)