/*--------------------------------*- C++ -*----------------------------------*\
  =========                 |
  \\      /  F ield         | OpenFOAM: The Open Source CFD Toolbox
   \\    /   O peration     | Website:  https://openfoam.org
    \\  /    A nd           | Version:  7
     \\/     M anipulation  |
\*---------------------------------------------------------------------------*/
FoamFile
{
    version     2.0;
    format      ascii;
    class       surfaceScalarField;
    location    "0.025";
    object      phi;
}
// * * * * * * * * * * * * * * * * * * * * * * * * * * * * * * * * * * * * * //

dimensions      [0 3 -1 0 0 0 0];

internalField   nonuniform List<scalar> 
4900
(
-5.5565e-06
5.5565e-06
-1.01623e-05
4.60578e-06
-1.29486e-05
2.78635e-06
-1.4666e-05
1.71733e-06
-1.57642e-05
1.09826e-06
-1.64977e-05
7.33463e-07
-1.7012e-05
5.14265e-07
-1.73891e-05
3.77171e-07
-1.7676e-05
2.86847e-07
-1.79002e-05
2.24244e-07
-1.80791e-05
1.78923e-07
-1.82241e-05
1.4491e-07
-1.83427e-05
1.18618e-07
-1.84405e-05
9.7785e-08
-1.85214e-05
8.09218e-08
-1.85884e-05
6.70084e-08
-1.86437e-05
5.53229e-08
-1.8689e-05
4.53392e-08
-1.87257e-05
3.6663e-08
-1.87547e-05
2.89915e-08
-1.87768e-05
2.20851e-08
-1.87925e-05
1.57498e-08
-1.88024e-05
9.82288e-09
-1.88065e-05
4.16386e-09
-1.88052e-05
-1.35406e-09
-1.87983e-05
-6.84767e-09
-1.87859e-05
-1.24328e-08
-1.87677e-05
-1.82262e-08
-1.87433e-05
-2.43525e-08
-1.87124e-05
-3.09499e-08
-1.86742e-05
-3.81777e-08
-1.8628e-05
-4.62263e-08
-1.85726e-05
-5.53306e-08
-1.85068e-05
-6.57883e-08
-1.84288e-05
-7.79884e-08
-1.83364e-05
-9.24519e-08
-1.82265e-05
-1.09897e-07
-1.80952e-05
-1.31344e-07
-1.79369e-05
-1.58292e-07
-1.77438e-05
-1.93034e-07
-1.75046e-05
-2.39221e-07
-1.72017e-05
-3.02933e-07
-1.68069e-05
-3.94732e-07
-1.62733e-05
-5.33618e-07
-1.55193e-05
-7.54004e-07
-1.44039e-05
-1.11546e-06
-1.26877e-05
-1.7162e-06
-9.94966e-06
-2.73801e-06
-5.45367e-06
-4.49598e-06
-5.45367e-06
-1.19285e-08
5.56843e-06
-2.1278e-06
6.72165e-06
-4.84855e-06
5.5071e-06
-7.25578e-06
4.12456e-06
-9.18075e-06
3.02323e-06
-1.06766e-05
2.22936e-06
-1.18372e-05
1.67485e-06
-1.2746e-05
1.2859e-06
-1.34666e-05
1.00753e-06
-1.40456e-05
8.03249e-07
-1.45162e-05
6.49462e-07
-1.49022e-05
5.30882e-07
-1.5221e-05
4.37432e-07
-1.54855e-05
3.62315e-07
-1.57054e-05
3.0083e-07
-1.5888e-05
2.49645e-07
-1.60391e-05
2.06337e-07
-1.61628e-05
1.69106e-07
-1.62627e-05
1.36579e-07
-1.63414e-05
1.07689e-07
-1.64009e-05
8.15826e-08
-1.64427e-05
5.75601e-08
-1.6468e-05
3.50324e-08
-1.64773e-05
1.34866e-08
-1.64711e-05
-7.53879e-09
-1.64495e-05
-2.84766e-08
-1.64122e-05
-4.97474e-08
-1.63586e-05
-7.17788e-08
-1.62879e-05
-9.50234e-08
-1.61989e-05
-1.1998e-07
-1.60899e-05
-1.47217e-07
-1.59587e-05
-1.77411e-07
-1.58026e-05
-2.1138e-07
-1.56183e-05
-2.50155e-07
-1.54012e-05
-2.95055e-07
-1.51458e-05
-3.47817e-07
-1.48449e-05
-4.10781e-07
-1.44891e-05
-4.87168e-07
-1.40659e-05
-5.81523e-07
-1.35585e-05
-7.00411e-07
-1.29442e-05
-8.53543e-07
-1.21916e-05
-1.05555e-06
-1.12575e-05
-1.32877e-06
-1.00839e-05
-1.70726e-06
-8.59657e-06
-2.24132e-06
-6.71564e-06
-2.99639e-06
-4.40198e-06
-4.02986e-06
-1.82476e-06
-5.31522e-06
1.21845e-07
-6.44259e-06
-5.33183e-06
1.03447e-06
4.53396e-06
5.56192e-07
7.19993e-06
-9.70078e-07
7.03337e-06
-2.84716e-06
6.00164e-06
-4.68184e-06
4.85791e-06
-6.3143e-06
3.86182e-06
-7.70587e-06
3.06641e-06
-8.87031e-06
2.45034e-06
-9.83867e-06
1.97589e-06
-1.06438e-05
1.60835e-06
-1.13146e-05
1.32034e-06
-1.18753e-05
1.0915e-06
-1.23448e-05
9.07005e-07
-1.27386e-05
7.56062e-07
-1.30685e-05
6.30776e-07
-1.33442e-05
5.25298e-07
-1.35731e-05
4.35231e-07
-1.37612e-05
3.5721e-07
-1.39132e-05
2.88617e-07
-1.40329e-05
2.27376e-07
-1.41231e-05
1.718e-07
-1.41861e-05
1.20492e-07
-1.42233e-05
7.22621e-08
-1.42359e-05
2.60657e-08
-1.42244e-05
-1.90405e-08
-1.41889e-05
-6.39421e-08
-1.41291e-05
-1.095e-07
-1.40443e-05
-1.56583e-07
-1.39333e-05
-2.06107e-07
-1.37942e-05
-2.59068e-07
-1.36248e-05
-3.16592e-07
-1.34222e-05
-3.79991e-07
-1.31828e-05
-4.50837e-07
-1.29018e-05
-5.31063e-07
-1.25738e-05
-6.23097e-07
-1.21916e-05
-7.30054e-07
-1.17464e-05
-8.55996e-07
-1.12272e-05
-1.00631e-06
-1.06205e-05
-1.18825e-06
-9.90925e-06
-1.41165e-06
-9.07283e-06
-1.68996e-06
-8.08693e-06
-2.04145e-06
-6.92539e-06
-2.49031e-06
-5.56602e-06
-3.06664e-06
-4.00529e-06
-3.80204e-06
-2.2901e-06
-4.71158e-06
-5.7832e-07
-5.74164e-06
7.61711e-07
-6.65525e-06
1.08543e-06
-6.76631e-06
-4.2464e-06
9.1018e-07
3.62378e-06
1.24405e-06
6.86606e-06
6.77967e-07
7.59945e-06
-4.62699e-07
7.1423e-06
-1.84976e-06
6.24498e-06
-3.26592e-06
5.27798e-06
-4.59513e-06
4.39563e-06
-5.78858e-06
3.64379e-06
-6.83461e-06
3.02193e-06
-7.73948e-06
2.51322e-06
-8.51662e-06
2.09747e-06
-9.18128e-06
1.75617e-06
-9.74809e-06
1.47382e-06
-1.02301e-05
1.23804e-06
-1.06384e-05
1.03909e-06
-1.09824e-05
8.6933e-07
-1.12699e-05
7.22766e-07
-1.15074e-05
5.94644e-07
-1.16999e-05
4.81155e-07
-1.18517e-05
3.79203e-07
-1.19662e-05
2.86225e-07
-1.20457e-05
2.00063e-07
-1.20923e-05
1.18852e-07
-1.21072e-05
4.09446e-08
-1.20911e-05
-3.51606e-08
-1.20442e-05
-1.10872e-07
-1.19661e-05
-1.87559e-07
-1.18561e-05
-2.66596e-07
-1.17128e-05
-3.49414e-07
-1.15343e-05
-4.37555e-07
-1.13182e-05
-5.3273e-07
-1.10612e-05
-6.36898e-07
-1.07597e-05
-7.52358e-07
-1.04089e-05
-8.81865e-07
-1.00032e-05
-1.02878e-06
-9.536e-06
-1.19729e-06
-8.99936e-06
-1.39263e-06
-8.38425e-06
-1.62142e-06
-7.68045e-06
-1.89205e-06
-6.87704e-06
-2.21507e-06
-5.9635e-06
-2.60349e-06
-4.93233e-06
-3.07263e-06
-3.78407e-06
-3.63857e-06
-2.53701e-06
-4.3137e-06
-1.24399e-06
-5.09506e-06
-1.75152e-08
-5.93806e-06
9.43842e-07
-6.70299e-06
1.34751e-06
-7.05891e-06
9.15638e-07
-6.33444e-06
-3.33076e-06
6.77363e-07
2.94642e-06
1.26483e-06
6.27859e-06
1.2695e-06
7.59478e-06
7.31255e-07
7.68055e-06
-1.63486e-07
7.13972e-06
-1.23348e-06
6.34797e-06
-2.34757e-06
5.50971e-06
-3.42557e-06
4.72179e-06
-4.42514e-06
4.0215e-06
-5.32804e-06
3.41612e-06
-6.13007e-06
2.89951e-06
-6.83444e-06
2.46053e-06
-7.44784e-06
2.08722e-06
-7.97821e-06
1.76841e-06
-8.43355e-06
1.49443e-06
-8.82131e-06
1.25709e-06
-9.14815e-06
1.0496e-06
-9.41984e-06
8.66334e-07
-9.64128e-06
7.02596e-07
-9.81654e-06
5.54465e-07
-9.94893e-06
4.18615e-07
-1.00411e-05
2.92183e-07
-1.00949e-05
1.72661e-07
-1.01117e-05
5.78037e-08
-1.00924e-05
-5.4448e-08
-1.00373e-05
-1.66032e-07
-9.94601e-06
-2.78826e-07
-9.8179e-06
-3.94705e-07
-9.65171e-06
-5.15598e-07
-9.44572e-06
-6.43553e-07
-9.19765e-06
-7.80799e-07
-8.90472e-06
-9.29828e-07
-8.56359e-06
-1.09349e-06
-8.17035e-06
-1.2751e-06
-7.72059e-06
-1.47855e-06
-7.20938e-06
-1.7085e-06
-6.63153e-06
-1.97048e-06
-5.98187e-06
-2.27108e-06
-5.25594e-06
-2.61797e-06
-4.45123e-06
-3.01979e-06
-3.56919e-06
-3.48553e-06
-2.61888e-06
-4.02293e-06
-1.62252e-06
-4.63494e-06
-6.23876e-07
-5.31235e-06
3.00921e-07
-6.01986e-06
1.03381e-06
-6.67095e-06
1.41786e-06
-7.08704e-06
1.29985e-06
-6.9409e-06
6.66514e-07
-5.70111e-06
-2.66425e-06
4.87385e-07
2.45904e-06
1.10215e-06
5.66383e-06
1.39708e-06
7.29985e-06
1.27051e-06
7.80712e-06
7.88807e-07
7.62142e-06
6.92151e-08
7.06756e-06
-7.77602e-07
6.35653e-06
-1.66767e-06
5.61186e-06
-2.54475e-06
4.89858e-06
-3.37487e-06
4.24624e-06
-4.13975e-06
3.66439e-06
-4.83136e-06
3.15214e-06
-5.44791e-06
2.70377e-06
-5.99119e-06
2.31169e-06
-6.46483e-06
1.96807e-06
-6.87327e-06
1.66552e-06
-7.22106e-06
1.3974e-06
-7.51258e-06
1.15785e-06
-7.75179e-06
9.41808e-07
-7.94216e-06
7.44834e-07
-8.08662e-06
5.63068e-07
-8.18754e-06
3.93103e-07
-8.24677e-06
2.31896e-07
-8.26565e-06
7.6687e-08
-8.24502e-06
-7.50779e-08
-8.18525e-06
-2.2581e-07
-8.08623e-06
-3.77843e-07
-7.94744e-06
-5.33488e-07
-7.76795e-06
-6.95095e-07
-7.54639e-06
-8.6511e-07
-7.28105e-06
-1.04614e-06
-6.96986e-06
-1.24102e-06
-6.61046e-06
-1.45289e-06
-6.20031e-06
-1.68525e-06
-5.73681e-06
-1.94205e-06
-5.21755e-06
-2.22776e-06
-4.64072e-06
-2.54732e-06
-4.00571e-06
-2.90608e-06
-3.31415e-06
-3.30953e-06
-2.57137e-06
-3.76257e-06
-1.78869e-06
-4.2682e-06
-9.86687e-07
-4.82494e-06
-1.99394e-07
-5.42223e-06
5.20818e-07
-6.03256e-06
1.09968e-06
-6.59872e-06
1.44348e-06
-7.01476e-06
1.45768e-06
-7.10124e-06
1.09749e-06
-6.58071e-06
4.71189e-07
-5.07481e-06
-2.19306e-06
3.56059e-07
2.10298e-06
9.20546e-07
5.09934e-06
1.34057e-06
6.87983e-06
1.46726e-06
7.68043e-06
1.29149e-06
7.79718e-06
8.71784e-07
7.48727e-06
2.85817e-07
6.9425e-06
-3.94572e-07
6.29225e-06
-1.11276e-06
5.61677e-06
-1.82828e-06
4.96177e-06
-2.51442e-06
4.35053e-06
-3.15487e-06
3.79258e-06
-3.74066e-06
3.28956e-06
-4.26776e-06
2.8388e-06
-4.73528e-06
2.43559e-06
-5.1442e-06
2.07444e-06
-5.49654e-06
1.74974e-06
-5.79479e-06
1.4561e-06
-6.04156e-06
1.18858e-06
-6.23936e-06
9.4263e-07
-6.39044e-06
7.1415e-07
-6.49674e-06
4.9941e-07
-6.55985e-06
2.95005e-07
-6.58096e-06
9.77944e-08
-6.56088e-06
-9.51557e-08
-6.50006e-06
-2.86629e-07
-6.39859e-06
-4.79314e-07
-6.25623e-06
-6.75852e-07
-6.07243e-06
-8.78891e-07
-5.84641e-06
-1.09113e-06
-5.57717e-06
-1.31538e-06
-5.2636e-06
-1.55459e-06
-4.90461e-06
-1.81188e-06
-4.49925e-06
-2.0906e-06
-4.04703e-06
-2.39428e-06
-3.54818e-06
-2.7266e-06
-3.00428e-06
-3.09122e-06
-2.4189e-06
-3.49146e-06
-1.79871e-06
-3.92972e-06
-1.15488e-06
-4.4064e-06
-5.04946e-07
-4.91813e-06
1.24931e-07
-5.45482e-06
6.97738e-07
-5.99504e-06
1.16426e-06
-6.49908e-06
1.46475e-06
-6.89921e-06
1.53759e-06
-7.08759e-06
1.34084e-06
-6.90449e-06
8.93603e-07
-6.13347e-06
3.38555e-07
-4.51976e-06
-1.8545e-06
2.69397e-07
1.83358e-06
7.65188e-07
4.60355e-06
1.22308e-06
6.42194e-06
1.49326e-06
7.41024e-06
1.52774e-06
7.7627e-06
1.34241e-06
7.6726e-06
9.83174e-07
7.30173e-06
5.03534e-07
6.77189e-06
-4.74348e-08
6.16773e-06
-6.29878e-07
5.54421e-06
-1.21392e-06
4.93457e-06
-1.77853e-06
4.35719e-06
-2.30973e-06
3.82076e-06
-2.79886e-06
3.32792e-06
-3.24103e-06
2.87777e-06
-3.63396e-06
2.46737e-06
-3.97706e-06
2.09283e-06
-4.27078e-06
1.74983e-06
-4.51619e-06
1.43399e-06
-4.71462e-06
1.14106e-06
-4.86749e-06
8.67022e-07
-4.97614e-06
6.0806e-07
-5.04175e-06
3.60615e-07
-5.0653e-06
1.21338e-07
-5.04751e-06
-1.12939e-07
-4.9889e-06
-3.45239e-07
-4.88974e-06
-5.78475e-07
-4.75011e-06
-8.15486e-07
-4.56992e-06
-1.05908e-06
-4.34902e-06
-1.31204e-06
-4.08722e-06
-1.57718e-06
-3.78447e-06
-1.85734e-06
-3.44096e-06
-2.15539e-06
-3.0574e-06
-2.47416e-06
-2.63526e-06
-2.81642e-06
-2.17721e-06
-3.18465e-06
-1.68763e-06
-3.5808e-06
-1.17335e-06
-4.00574e-06
-6.44509e-07
-4.45856e-06
-1.15683e-07
-4.93523e-06
3.92923e-07
-5.42674e-06
8.54379e-07
-5.91627e-06
1.23455e-06
-6.37521e-06
1.49323e-06
-6.75776e-06
1.58859e-06
-6.99457e-06
1.4873e-06
-6.98631e-06
1.1832e-06
-6.60039e-06
7.25495e-07
-5.67577e-06
2.51666e-07
-4.04593e-06
-1.60284e-06
2.11499e-07
1.62208e-06
6.41579e-07
4.17347e-06
1.09495e-06
5.96857e-06
1.43884e-06
7.06636e-06
1.60987e-06
7.59166e-06
1.59722e-06
7.68525e-06
1.42164e-06
7.47731e-06
1.1183e-06
7.07523e-06
7.25393e-07
6.56064e-06
2.77907e-07
5.9917e-06
-1.95095e-07
5.40757e-06
-6.71004e-07
4.8331e-06
-1.13312e-06
4.28287e-06
-1.56965e-06
3.76446e-06
-1.97269e-06
3.2808e-06
-2.3372e-06
2.83188e-06
-2.66025e-06
2.41588e-06
-2.94036e-06
2.02994e-06
-3.17703e-06
1.67066e-06
-3.3704e-06
1.33443e-06
-3.52093e-06
1.01755e-06
-3.62929e-06
7.16418e-07
-3.69618e-06
4.27511e-07
-3.7223e-06
1.47457e-07
-3.70826e-06
-1.26983e-07
-3.65458e-06
-3.98919e-07
-3.56171e-06
-6.71348e-07
-3.43003e-06
-9.47164e-07
-3.25993e-06
-1.22917e-06
-3.05186e-06
-1.5201e-06
-2.80645e-06
-1.82259e-06
-2.52463e-06
-2.13917e-06
-2.20781e-06
-2.4722e-06
-1.85814e-06
-2.82384e-06
-1.47877e-06
-3.19579e-06
-1.07428e-06
-3.58914e-06
-6.51127e-07
-4.00395e-06
-2.18217e-07
-4.43865e-06
2.12415e-07
-4.88919e-06
6.24952e-07
-5.34777e-06
9.99247e-07
-5.80103e-06
1.31068e-06
-6.22771e-06
1.53094e-06
-6.59547e-06
1.63047e-06
-6.85728e-06
1.58367e-06
-6.94777e-06
1.3782e-06
-6.78084e-06
1.02877e-06
-6.25095e-06
5.9449e-07
-5.2415e-06
1.9384e-07
-3.64528e-06
-1.409e-06
1.71426e-07
1.45065e-06
5.44666e-07
3.80023e-06
9.74599e-07
5.53864e-06
1.34978e-06
6.69118e-06
1.60451e-06
7.33693e-06
1.71332e-06
7.57644e-06
1.67925e-06
7.51138e-06
1.52203e-06
7.23245e-06
1.26871e-06
6.81396e-06
9.47477e-07
6.31293e-06
5.84135e-07
5.77091e-06
2.00528e-07
5.2167e-06
-1.85856e-07
4.66925e-06
-5.61607e-07
4.14021e-06
-9.16827e-07
3.63602e-06
-1.24447e-06
3.15952e-06
-1.53971e-06
2.71112e-06
-1.79942e-06
2.28964e-06
-2.02167e-06
1.89292e-06
-2.20544e-06
1.51819e-06
-2.35028e-06
1.16239e-06
-2.45615e-06
8.22291e-07
-2.52326e-06
4.94627e-07
-2.55198e-06
1.76177e-07
-2.54276e-06
-1.36208e-07
-2.4961e-06
-4.45576e-07
-2.41259e-06
-7.54863e-07
-2.29287e-06
-1.06688e-06
-2.13776e-06
-1.38429e-06
-1.94825e-06
-1.70961e-06
-1.72569e-06
-2.04516e-06
-1.47184e-06
-2.39301e-06
-1.18916e-06
-2.75489e-06
-8.80921e-07
-3.13207e-06
-5.51554e-07
-3.52515e-06
-2.06945e-07
-3.93375e-06
1.45187e-07
-4.35608e-06
4.94888e-07
-4.78836e-06
8.29588e-07
-5.22389e-06
1.13382e-06
-5.652e-06
1.38923e-06
-6.05644e-06
1.57507e-06
-6.41355e-06
1.66968e-06
-6.69007e-06
1.65336e-06
-6.84096e-06
1.51331e-06
-6.80773e-06
1.25099e-06
-6.51851e-06
8.9151e-07
-5.89147e-06
4.93407e-07
-4.84339e-06
1.53997e-07
-3.30587e-06
-1.255e-06
1.42487e-07
1.30817e-06
4.67997e-07
3.47472e-06
8.67125e-07
5.13951e-06
1.24847e-06
6.30983e-06
1.55035e-06
7.03506e-06
1.74068e-06
7.38612e-06
1.81118e-06
7.44088e-06
1.76981e-06
7.27382e-06
1.63379e-06
6.94998e-06
1.42421e-06
6.52252e-06
1.16243e-06
6.03269e-06
8.68066e-07
5.51107e-06
5.57943e-07
4.97938e-06
2.45849e-07
4.45231e-06
-5.73362e-08
3.93921e-06
-3.43296e-07
3.44548e-06
-6.05861e-07
2.97369e-06
-8.40591e-07
2.52437e-06
-1.0444e-06
2.09673e-06
-1.21525e-06
1.68904e-06
-1.35185e-06
1.299e-06
-1.45351e-06
9.2395e-07
-1.51994e-06
5.61058e-07
-1.55117e-06
2.07403e-07
-1.54745e-06
-1.39923e-07
-1.50926e-06
-4.83769e-07
-1.43724e-06
-8.26878e-07
-1.33228e-06
-1.17184e-06
-1.19548e-06
-1.52108e-06
-1.02833e-06
-1.87676e-06
-8.32706e-07
-2.24078e-06
-6.11075e-07
-2.61464e-06
-3.66622e-07
-2.99934e-06
-1.03451e-07
-3.39525e-06
1.73191e-07
-3.8018e-06
4.56671e-07
-4.21723e-06
7.38716e-07
-4.63813e-06
1.00919e-06
-5.05883e-06
1.25596e-06
-5.47066e-06
1.46492e-06
-5.86096e-06
1.62037e-06
-6.21189e-06
1.70591e-06
-6.49909e-06
1.70612e-06
-6.69029e-06
1.60941e-06
-6.74425e-06
1.41209e-06
-6.61041e-06
1.12382e-06
-6.23024e-06
7.73576e-07
-5.54123e-06
4.14656e-07
-4.48447e-06
1.25424e-07
-3.01664e-06
-1.12958e-06
1.20673e-07
1.18749e-06
4.06149e-07
3.18925e-06
7.72495e-07
4.77317e-06
1.14535e-06
5.93698e-06
1.46955e-06
6.71085e-06
1.7113e-06
7.14437e-06
1.85578e-06
7.2964e-06
1.90267e-06
7.22693e-06
1.86124e-06
6.9914e-06
1.7461e-06
6.63766e-06
1.57394e-06
6.20485e-06
1.36137e-06
5.72364e-06
1.12363e-06
5.21712e-06
8.73955e-07
4.70198e-06
6.23386e-07
4.18978e-06
3.80827e-07
3.68804e-06
1.53265e-07
3.20125e-06
-5.39625e-08
2.7316e-06
-2.36886e-07
2.27965e-06
-3.92645e-07
1.8448e-06
-5.19258e-07
1.42561e-06
-6.15439e-07
1.02013e-06
-6.8045e-07
6.26068e-07
-7.13987e-07
2.40941e-07
-7.16113e-07
-1.37797e-07
-6.87206e-07
-5.12676e-07
-6.27954e-07
-8.8613e-07
-5.39362e-07
-1.26044e-06
-4.22794e-07
-1.63765e-06
-2.80037e-07
-2.01952e-06
-1.13389e-07
-2.40743e-06
7.42289e-08
-2.80226e-06
2.79137e-07
-3.20425e-06
4.96748e-07
-3.61286e-06
7.21399e-07
-4.02645e-06
9.46197e-07
-4.44203e-06
1.16288e-06
-4.85481e-06
1.36175e-06
-5.2577e-06
1.5317e-06
-5.64062e-06
1.66053e-06
-5.98979e-06
1.73545e-06
-6.28681e-06
1.74418e-06
-6.50781e-06
1.6766e-06
-6.62271e-06
1.52721e-06
-6.59486e-06
1.29833e-06
-6.38153e-06
1.00388e-06
-5.93579e-06
6.72979e-07
-5.21033e-06
3.52143e-07
-4.16364e-06
1.04096e-07
-2.76859e-06
-1.02548e-06
1.03563e-07
1.08393e-06
3.55065e-07
2.93774e-06
6.89e-07
4.43923e-06
1.04488e-06
5.5811e-06
1.37467e-06
6.38107e-06
1.64556e-06
6.87348e-06
1.83951e-06
7.10245e-06
1.95077e-06
7.11566e-06
1.98266e-06
6.95951e-06
1.94433e-06
6.67599e-06
1.84806e-06
6.30112e-06
1.70726e-06
5.86444e-06
1.5351e-06
5.38928e-06
1.34366e-06
4.89343e-06
1.1435e-06
4.38993e-06
9.4358e-07
3.88797e-06
7.51213e-07
3.39361e-06
5.72258e-07
2.91055e-06
4.11274e-07
2.44064e-06
2.71714e-07
1.98436e-06
1.56109e-07
1.54121e-06
6.62238e-08
1.11002e-06
3.19136e-09
6.891e-07
-3.23884e-08
2.76521e-07
-4.0373e-08
-1.29813e-07
-2.10333e-08
-5.32015e-07
2.49646e-08
-9.32128e-07
9.65541e-08
-1.33203e-06
1.92237e-07
-1.73333e-06
3.1003e-07
-2.13732e-06
4.47398e-07
-2.5448e-06
6.01161e-07
-2.95602e-06
7.67392e-07
-3.37048e-06
9.41313e-07
-3.78678e-06
1.11719e-06
-4.20232e-06
1.28824e-06
-4.61308e-06
1.44662e-06
-5.01319e-06
1.58345e-06
-5.39453e-06
1.689e-06
-5.74617e-06
1.75309e-06
-6.05388e-06
1.76573e-06
-6.29945e-06
1.71822e-06
-6.4603e-06
1.60458e-06
-6.50908e-06
1.42363e-06
-6.4139e-06
1.1813e-06
-6.13921e-06
8.9322e-07
-5.6477e-06
5.86681e-07
-4.90379e-06
3.01381e-07
-3.87834e-06
8.75682e-08
-2.55478e-06
-9.37913e-07
8.96563e-08
9.94275e-07
3.11837e-07
2.71556e-06
6.14628e-07
4.13644e-06
9.48667e-07
5.24706e-06
1.27271e-06
6.05702e-06
1.55637e-06
6.58982e-06
1.78053e-06
6.87829e-06
1.93619e-06
6.96e-06
2.02242e-06
6.87328e-06
2.04408e-06
6.65434e-06
2.00962e-06
6.33558e-06
1.92939e-06
5.94466e-06
1.81431e-06
5.50436e-06
1.67495e-06
5.03278e-06
1.52104e-06
4.54385e-06
1.36112e-06
4.04789e-06
1.20246e-06
3.55227e-06
1.05112e-06
3.0619e-06
9.11948e-07
2.5798e-06
7.8879e-07
2.10752e-06
6.84557e-07
1.64545e-06
6.01379e-07
1.19319e-06
5.40704e-07
7.49775e-07
5.03391e-07
3.13834e-07
4.89776e-07
-1.16198e-07
4.99716e-07
-5.41955e-07
5.32609e-07
-9.65022e-07
5.87397e-07
-1.38681e-06
6.62543e-07
-1.80848e-06
7.55992e-07
-2.23077e-06
8.65123e-07
-2.65393e-06
9.86678e-07
-3.07757e-06
1.1167e-06
-3.5005e-06
1.25045e-06
-3.92053e-06
1.38239e-06
-4.33426e-06
1.50614e-06
-4.73682e-06
1.6145e-06
-5.12155e-06
1.69962e-06
-5.47965e-06
1.75325e-06
-5.7998e-06
1.76715e-06
-6.06778e-06
1.73383e-06
-6.26613e-06
1.64745e-06
-6.37391e-06
1.50513e-06
-6.36675e-06
1.3085e-06
-6.21728e-06
1.06543e-06
-5.89614e-06
7.91636e-07
-5.37391e-06
5.11727e-07
-4.62388e-06
2.59151e-07
-3.62576e-06
7.43105e-08
-2.36994e-06
-8.63603e-07
7.79964e-08
9.16278e-07
2.74399e-07
2.51916e-06
5.47546e-07
3.86329e-06
8.56985e-07
4.93762e-06
1.16761e-06
5.74639e-06
1.45203e-06
6.3054e-06
1.6914e-06
6.63892e-06
1.87506e-06
6.77635e-06
1.99925e-06
6.74908e-06
2.06559e-06
6.588e-06
2.0794e-06
6.32177e-06
2.0483e-06
5.97576e-06
1.98101e-06
5.57165e-06
1.88651e-06
5.12729e-06
1.77339e-06
4.65697e-06
1.64953e-06
4.17175e-06
1.52187e-06
3.67992e-06
1.39637e-06
3.1874e-06
1.27797e-06
2.69821e-06
1.17067e-06
2.21481e-06
1.07762e-06
1.73849e-06
1.00121e-06
1.26961e-06
9.431e-07
8.07883e-07
9.04373e-07
3.52561e-07
8.85537e-07
-9.73616e-08
8.86586e-07
-5.43004e-07
9.07019e-07
-9.85455e-07
9.45845e-07
-1.42564e-06
1.00157e-06
-1.86421e-06
1.07219e-06
-2.30138e-06
1.1551e-06
-2.73685e-06
1.24715e-06
-3.16962e-06
1.3445e-06
-3.59785e-06
1.44265e-06
-4.01869e-06
1.53644e-06
-4.42805e-06
1.62004e-06
-4.82042e-06
1.68707e-06
-5.18858e-06
1.73077e-06
-5.52335e-06
1.7443e-06
-5.81333e-06
1.72121e-06
-6.04469e-06
1.65602e-06
-6.20095e-06
1.54513e-06
-6.26302e-06
1.38782e-06
-6.20944e-06
1.18741e-06
-6.01687e-06
9.52524e-07
-5.66126e-06
6.98044e-07
-5.11943e-06
4.45601e-07
-4.37144e-06
2.23159e-07
-3.40332e-06
6.33358e-08
-2.21012e-06
-8.00267e-07
6.79531e-08
8.48325e-07
2.41282e-07
2.34583e-06
4.86238e-07
3.61834e-06
7.69553e-07
4.65431e-06
1.0615e-06
5.45445e-06
1.33786e-06
6.02904e-06
1.58087e-06
6.39591e-06
1.77925e-06
6.57797e-06
1.92754e-06
6.60079e-06
2.02506e-06
6.49049e-06
2.07467e-06
6.27216e-06
2.08167e-06
5.96875e-06
2.05281e-06
5.60051e-06
1.99544e-06
5.18465e-06
1.91698e-06
4.73544e-06
1.82444e-06
4.26429e-06
1.72425e-06
3.78011e-06
1.62205e-06
3.2896e-06
1.52267e-06
2.79759e-06
1.43012e-06
2.30736e-06
1.34765e-06
1.82097e-06
1.27775e-06
1.33951e-06
1.22226e-06
8.63365e-07
1.18243e-06
3.92399e-07
1.1589e-06
-7.38308e-08
1.1518e-06
-5.35912e-07
1.16078e-06
-9.94426e-07
1.18494e-06
-1.4498e-06
1.22291e-06
-1.90218e-06
1.2728e-06
-2.35127e-06
1.33219e-06
-2.79623e-06
1.39808e-06
-3.23551e-06
1.46692e-06
-3.6667e-06
1.53459e-06
-4.08636e-06
1.5964e-06
-4.48986e-06
1.64719e-06
-4.87121e-06
1.68143e-06
-5.22282e-06
1.69344e-06
-5.53535e-06
1.67766e-06
-5.79756e-06
1.62913e-06
-5.99616e-06
1.54403e-06
-6.11584e-06
1.42034e-06
-6.13934e-06
1.25875e-06
-6.04784e-06
1.06346e-06
-5.82159e-06
8.43072e-07
-5.44087e-06
6.11121e-07
-4.88748e-06
3.8627e-07
-4.14659e-06
1.91756e-07
-3.2088e-06
5.39859e-08
-2.07235e-06
-7.46281e-07
5.90986e-08
7.89227e-07
2.11434e-07
2.1935e-06
4.29503e-07
3.40027e-06
6.85892e-07
4.39792e-06
9.55546e-07
5.1848e-06
1.21735e-06
5.76723e-06
1.45507e-06
6.15819e-06
1.65754e-06
6.37549e-06
1.81842e-06
6.43991e-06
1.93546e-06
6.37345e-06
2.00973e-06
6.1979e-06
2.04463e-06
5.93385e-06
2.04519e-06
5.59995e-06
2.01728e-06
5.21257e-06
1.96709e-06
4.78562e-06
1.90075e-06
4.33063e-06
1.82402e-06
3.85685e-06
1.74209e-06
3.37153e-06
1.65953e-06
2.88015e-06
1.58023e-06
2.38666e-06
1.50738e-06
1.89381e-06
1.44353e-06
1.40336e-06
1.3906e-06
9.16294e-07
1.34992e-06
4.33075e-07
1.32229e-06
-4.61931e-08
1.30795e-06
-5.21578e-07
1.30669e-06
-9.93161e-07
1.31777e-06
-1.46088e-06
1.33998e-06
-1.92439e-06
1.37164e-06
-2.38292e-06
1.41053e-06
-2.83513e-06
1.45397e-06
-3.27895e-06
1.49876e-06
-3.71148e-06
1.54121e-06
-4.12881e-06
1.57721e-06
-4.52587e-06
1.60229e-06
-4.89629e-06
1.61177e-06
-5.2323e-06
1.60095e-06
-5.52453e-06
1.56541e-06
-5.76202e-06
1.5014e-06
-5.93216e-06
1.40632e-06
-6.02076e-06
1.27929e-06
-6.01231e-06
1.12179e-06
-5.89034e-06
9.38315e-07
-5.63811e-06
7.36927e-07
-5.23948e-06
5.29586e-07
-4.68014e-06
3.32134e-07
-3.94913e-06
1.63749e-07
-3.04042e-06
4.58097e-08
-1.95441e-06
-7.00471e-07
5.11352e-08
7.38091e-07
1.8409e-07
2.06054e-06
3.76402e-07
3.20795e-06
6.05497e-07
4.16882e-06
8.5037e-07
4.93992e-06
1.09285e-06
5.52476e-06
1.31841e-06
5.93263e-06
1.51652e-06
6.17739e-06
1.68051e-06
6.27592e-06
1.80723e-06
6.24672e-06
1.89643e-06
6.1087e-06
1.95007e-06
5.88021e-06
1.97171e-06
5.5783e-06
1.96593e-06
5.21835e-06
1.93778e-06
4.81377e-06
1.89246e-06
4.37595e-06
1.835e-06
3.91431e-06
1.77007e-06
3.43646e-06
1.70188e-06
2.94834e-06
1.63406e-06
2.45448e-06
1.5697e-06
1.95818e-06
1.51128e-06
1.46178e-06
1.46073e-06
9.66842e-07
1.41945e-06
4.74356e-07
1.38831e-06
-1.50551e-08
1.3677e-06
-5.0097e-07
1.35754e-06
-9.82996e-07
1.35727e-06
-1.46061e-06
1.36589e-06
-1.93301e-06
1.38194e-06
-2.39898e-06
1.40352e-06
-2.85671e-06
1.42828e-06
-3.30371e-06
1.45343e-06
-3.73664e-06
1.4758e-06
-4.15118e-06
1.49187e-06
-4.54193e-06
1.49785e-06
-4.90228e-06
1.48985e-06
-5.2243e-06
1.46408e-06
-5.49875e-06
1.41704e-06
-5.71498e-06
1.34595e-06
-5.86107e-06
1.24909e-06
-5.9239e-06
1.12629e-06
-5.88951e-06
9.79406e-07
-5.74346e-06
8.12787e-07
-5.47149e-06
6.3366e-07
-5.06035e-06
4.52306e-07
-4.49878e-06
2.81947e-07
-3.77877e-06
1.38263e-07
-2.89674e-06
3.84896e-08
-1.85463e-06
-6.61982e-07
4.38504e-08
6.94241e-07
1.58688e-07
1.9457e-06
3.26209e-07
3.04043e-06
5.27898e-07
3.96713e-06
7.4628e-07
4.72154e-06
9.65913e-07
5.30512e-06
1.17408e-06
5.72446e-06
1.36114e-06
5.99033e-06
1.52058e-06
6.11648e-06
1.64877e-06
6.11853e-06
1.7446e-06
6.01288e-06
1.80894e-06
5.81586e-06
1.84421e-06
5.54304e-06
1.85382e-06
5.20873e-06
1.84183e-06
4.82576e-06
1.81254e-06
4.40524e-06
1.77024e-06
3.95661e-06
1.71903e-06
3.48767e-06
1.66267e-06
3.0047e-06
1.60449e-06
2.51265e-06
1.54736e-06
2.01531e-06
1.49365e-06
1.51549e-06
1.44525e-06
1.01525e-06
1.40356e-06
5.16051e-07
1.36951e-06
1.89902e-08
1.34361e-06
-4.75067e-07
1.3259e-06
-9.65293e-07
1.31604e-06
-1.45074e-06
1.31324e-06
-1.93021e-06
1.31631e-06
-2.40206e-06
1.3237e-06
-2.86409e-06
1.33342e-06
-3.31343e-06
1.34315e-06
-3.74637e-06
1.35023e-06
-4.15826e-06
1.35174e-06
-4.54343e-06
1.34455e-06
-4.89509e-06
1.32552e-06
-5.20527e-06
1.29158e-06
-5.46482e-06
1.24006e-06
-5.66346e-06
1.16887e-06
-5.78988e-06
1.07691e-06
-5.83194e-06
9.64375e-07
-5.77697e-06
8.33173e-07
-5.61225e-06
6.87229e-07
-5.32555e-06
5.32751e-07
-4.90587e-06
3.78317e-07
-4.34435e-06
2.34737e-07
-3.63519e-06
1.14647e-07
-2.77665e-06
3.1797e-08
-1.77178e-06
-6.30185e-07
3.70883e-08
6.57153e-07
1.34807e-07
1.84799e-06
2.78355e-07
2.89688e-06
4.52681e-07
3.79281e-06
6.43413e-07
4.53081e-06
8.37625e-07
5.11091e-06
1.02441e-06
5.53768e-06
1.19522e-06
5.81952e-06
1.34396e-06
5.96774e-06
1.4669e-06
5.99559e-06
1.5624e-06
5.91738e-06
1.63059e-06
5.74767e-06
1.67296e-06
5.50067e-06
1.692e-06
5.1897e-06
1.69084e-06
4.82692e-06
1.67297e-06
4.42311e-06
1.64196e-06
3.98761e-06
1.60133e-06
3.5283e-06
1.55434e-06
3.05169e-06
1.50397e-06
2.56302e-06
1.45282e-06
2.06646e-06
1.40309e-06
1.56522e-06
1.35656e-06
1.06177e-06
1.31461e-06
5.57998e-07
1.27822e-06
5.53831e-08
1.24796e-06
-4.44807e-07
1.22403e-06
-9.41364e-07
1.20626e-06
-1.43297e-06
1.19412e-06
-1.91806e-06
1.18671e-06
-2.39465e-06
1.18281e-06
-2.86019e-06
1.18086e-06
-3.31148e-06
1.17899e-06
-3.7445e-06
1.17508e-06
-4.15435e-06
1.16678e-06
-4.53513e-06
1.1516e-06
-4.87991e-06
1.12703e-06
-5.1807e-06
1.09069e-06
-5.42848e-06
1.04049e-06
-5.61327e-06
9.74907e-07
-5.72429e-06
8.93193e-07
-5.75022e-06
7.95691e-07
-5.67947e-06
6.84102e-07
-5.50067e-06
5.61736e-07
-5.20318e-06
4.33673e-07
-4.77781e-06
3.06814e-07
-4.21749e-06
1.89745e-07
-3.51812e-06
9.24087e-08
-2.67931e-06
2.55634e-08
-1.70494e-06
-6.04621e-07
3.0732e-08
6.26421e-07
1.12123e-07
1.76659e-06
2.32389e-07
2.77662e-06
3.79486e-07
3.64571e-06
5.41802e-07
4.36849e-06
7.08732e-07
4.94398e-06
8.71145e-07
5.37527e-06
1.02168e-06
5.66898e-06
1.15488e-06
5.83454e-06
1.26716e-06
5.88331e-06
1.35665e-06
5.82789e-06
1.42296e-06
5.68136e-06
1.46691e-06
5.45672e-06
1.49022e-06
5.16639e-06
1.49524e-06
4.82189e-06
1.48471e-06
4.43365e-06
1.46152e-06
4.0108e-06
1.4286e-06
3.56123e-06
1.38872e-06
3.09156e-06
1.34446e-06
2.60728e-06
1.29811e-06
2.11281e-06
1.25166e-06
1.61168e-06
1.20674e-06
1.10669e-06
1.16469e-06
6.00054e-07
1.12647e-06
9.36059e-08
1.09272e-06
-4.11064e-07
1.06378e-06
-9.12426e-07
1.03966e-06
-1.40885e-06
1.02007e-06
-1.89847e-06
1.00442e-06
-2.37899e-06
9.91838e-07
-2.84761e-06
9.81186e-07
-3.30083e-06
9.7107e-07
-3.73439e-06
9.59876e-07
-4.14316e-06
9.45812e-07
-4.52107e-06
9.26979e-07
-4.86108e-06
9.01452e-07
-5.15517e-06
8.67404e-07
-5.39443e-06
8.2325e-07
-5.56911e-06
7.67824e-07
-5.66887e-06
7.00582e-07
-5.68298e-06
6.21815e-07
-5.6007e-06
5.32857e-07
-5.41171e-06
4.36264e-07
-5.10659e-06
3.35936e-07
-4.67748e-06
2.37131e-07
-4.11869e-06
1.46369e-07
-3.42736e-06
7.11699e-08
-2.60411e-06
1.96613e-08
-1.65343e-06
-5.8496e-07
2.46904e-08
6.0173e-07
9.03817e-08
1.7009e-06
1.87941e-07
2.67906e-06
3.07993e-07
3.52566e-06
4.41409e-07
4.23508e-06
5.79743e-07
4.80565e-06
7.15584e-07
5.23943e-06
8.42816e-07
5.54175e-06
9.56748e-07
5.7206e-06
1.05413e-06
5.78593e-06
1.13307e-06
5.74895e-06
1.19288e-06
5.62156e-06
1.23387e-06
5.41572e-06
1.25717e-06
5.14309e-06
1.26445e-06
4.81461e-06
1.25778e-06
4.44031e-06
1.23944e-06
4.02914e-06
1.21175e-06
3.58891e-06
1.17702e-06
3.1263e-06
1.13738e-06
2.64692e-06
1.0948e-06
2.15539e-06
1.05101e-06
1.65547e-06
1.0075e-06
1.1502e-06
9.6548e-07
6.42075e-07
9.25904e-07
1.33182e-07
8.89465e-07
-3.74625e-07
8.56601e-07
-8.79562e-07
8.27503e-07
-1.37976e-06
8.02118e-07
-1.87309e-06
7.80162e-07
-2.35704e-06
7.61125e-07
-2.82857e-06
7.44278e-07
-3.28398e-06
7.28695e-07
-3.7188e-06
7.13268e-07
-4.12773e-06
6.96741e-07
-4.50454e-06
6.77756e-07
-4.84209e-06
6.54917e-07
-5.13233e-06
6.26877e-07
-5.36639e-06
5.9244e-07
-5.53467e-06
5.50694e-07
-5.62712e-06
5.01158e-07
-5.63344e-06
4.43938e-07
-5.54348e-06
3.7988e-07
-5.34765e-06
3.10706e-07
-5.03742e-06
2.39096e-07
-4.60587e-06
1.68711e-07
-4.0483e-06
1.04122e-07
-3.36277e-06
5.06319e-08
-2.55062e-06
1.39921e-08
-1.61679e-06
-5.70968e-07
1.88903e-08
5.8284e-07
6.93722e-08
1.65042e-06
1.447e-07
2.60373e-06
2.3791e-07
3.43245e-06
3.42152e-07
4.13083e-06
4.50996e-07
4.6968e-06
5.58702e-07
5.13172e-06
6.60417e-07
5.44004e-06
7.52305e-07
5.62872e-06
8.31585e-07
5.70665e-06
8.96495e-07
5.68404e-06
9.46206e-07
5.57185e-06
9.8069e-07
5.38124e-06
1.00057e-06
5.12321e-06
1.00698e-06
4.80821e-06
1.00138e-06
4.44591e-06
9.85466e-07
4.04506e-06
9.61011e-07
3.61336e-06
9.29812e-07
3.1575e-06
8.93595e-07
2.68314e-06
8.5397e-07
2.19501e-06
8.12392e-07
1.69704e-06
7.70145e-07
1.19245e-06
7.28324e-07
6.83896e-07
6.87836e-07
1.7367e-07
6.49399e-07
-3.36188e-07
6.13546e-07
-8.43709e-07
5.80631e-07
-1.34684e-06
5.50832e-07
-1.84329e-06
5.24159e-07
-2.33037e-06
5.00456e-07
-2.80487e-06
4.79406e-07
-3.26293e-06
4.60541e-07
-3.69994e-06
4.43245e-07
-4.11043e-06
4.26776e-07
-4.48807e-06
4.1029e-07
-4.82561e-06
3.92874e-07
-5.11492e-06
3.73601e-07
-5.34711e-06
3.51593e-07
-5.51267e-06
3.26107e-07
-5.60164e-06
2.96633e-07
-5.60397e-06
2.63001e-07
-5.50985e-06
2.2549e-07
-5.31014e-06
1.84927e-07
-4.99685e-06
1.42759e-07
-4.56371e-06
1.01082e-07
-4.00662e-06
6.26058e-08
-3.3243e-06
3.05523e-08
-2.51857e-06
8.47616e-09
-1.59471e-06
-5.62492e-07
1.32697e-08
5.6957e-07
4.89152e-08
1.61478e-06
1.02391e-07
2.55026e-06
1.68962e-07
3.36588e-06
2.43904e-07
4.05589e-06
3.22701e-07
4.61801e-06
4.01227e-07
5.05319e-06
4.75905e-07
5.36536e-06
5.43805e-07
5.56082e-06
6.02701e-07
5.64775e-06
6.51073e-07
5.63567e-06
6.88069e-07
5.53485e-06
7.13427e-07
5.35588e-06
7.27389e-07
5.10925e-06
7.30594e-07
4.805e-06
7.23982e-07
4.45252e-06
7.08692e-07
4.06035e-06
6.85981e-07
3.63608e-06
6.57152e-07
3.18633e-06
6.23502e-07
2.71679e-06
5.86273e-07
2.23224e-06
5.46625e-07
1.73669e-06
5.05623e-07
1.23345e-06
4.64215e-07
7.25304e-07
4.23238e-07
2.14647e-07
3.83415e-07
-2.96364e-07
3.45354e-07
-8.05649e-07
3.09559e-07
-1.31105e-06
2.76425e-07
-1.81015e-06
2.46246e-07
-2.30019e-06
2.19213e-07
-2.77783e-06
1.95412e-07
-3.23913e-06
1.74823e-07
-3.67935e-06
1.57315e-07
-4.09293e-06
1.42646e-07
-4.4734e-06
1.30463e-07
-4.81342e-06
1.20312e-07
-5.10477e-06
1.11648e-07
-5.33845e-06
1.0387e-07
-5.50489e-06
9.63514e-08
-5.59412e-06
8.84969e-08
-5.59612e-06
7.9804e-08
-5.50116e-06
6.9936e-08
-5.30027e-06
5.87932e-08
-4.98571e-06
4.65783e-08
-4.55149e-06
3.38392e-08
-3.99388e-06
2.14801e-08
-3.31194e-06
1.07278e-08
-2.50781e-06
3.04746e-09
-1.58703e-06