/*--------------------------------*- C++ -*----------------------------------*\
  =========                 |
  \\      /  F ield         | OpenFOAM: The Open Source CFD Toolbox
   \\    /   O peration     | Website:  https://openfoam.org
    \\  /    A nd           | Version:  7
     \\/     M anipulation  |
\*---------------------------------------------------------------------------*/
FoamFile
{
    version     2.0;
    format      ascii;
    class       surfaceScalarField;
    location    "0.0712";
    object      phi;
}
// * * * * * * * * * * * * * * * * * * * * * * * * * * * * * * * * * * * * * //

dimensions      [0 3 -1 0 0 0 0];

internalField   nonuniform List<scalar> 
4900
(
1.13569e-09
-1.14211e-09
2.30788e-09
-1.17216e-09
2.37416e-09
-6.62948e-11
9.32321e-10
1.44172e-09
-2.09634e-09
3.02868e-09
-6.62809e-09
4.53178e-09
-1.24989e-08
5.87079e-09
-1.95087e-08
7.00981e-09
-2.74445e-08
7.93578e-09
-3.60917e-08
8.64715e-09
-4.52404e-08
9.14866e-09
-5.46891e-08
9.44871e-09
-6.42469e-08
9.55782e-09
-7.37347e-08
9.48784e-09
-8.29862e-08
9.25138e-09
-9.18477e-08
8.8615e-09
-1.00179e-07
8.33145e-09
-1.07854e-07
7.6746e-09
-1.14758e-07
6.90442e-09
-1.20793e-07
6.03444e-09
-1.25871e-07
5.07825e-09
-1.2992e-07
4.04962e-09
-1.32883e-07
2.96252e-09
-1.34714e-07
1.83122e-09
-1.35385e-07
6.70318e-10
-1.34879e-07
-5.05162e-10
-1.332e-07
-1.67973e-09
-1.30362e-07
-2.83742e-09
-1.264e-07
-3.9618e-09
-1.21364e-07
-5.03599e-09
-1.15322e-07
-6.04282e-09
-1.08357e-07
-6.96483e-09
-1.00572e-07
-7.78452e-09
-9.20877e-08
-8.48448e-09
-8.304e-08
-9.04767e-09
-7.35823e-08
-9.45766e-09
-6.38833e-08
-9.69898e-09
-5.41259e-08
-9.75739e-09
-4.45056e-08
-9.62034e-09
-3.52281e-08
-9.27742e-09
-2.65072e-08
-8.72092e-09
-1.85604e-08
-7.94676e-09
-1.16046e-08
-6.9558e-09
-5.84818e-09
-5.7564e-09
-1.4787e-09
-4.36946e-09
1.36128e-09
-2.83996e-09
2.61666e-09
-1.25538e-09
2.38773e-09
2.28924e-10
1.13592e-09
1.25177e-09
1.13589e-09
1.18169e-09
-2.32378e-09
1.32266e-09
-1.3132e-09
-1.22582e-09
2.4822e-09
-7.24035e-09
7.45628e-09
-1.6956e-08
1.27443e-08
-3.02641e-08
1.78398e-08
-4.68505e-08
2.24572e-08
-6.62836e-08
2.64429e-08
-8.80688e-08
2.97211e-08
-1.11684e-07
3.22622e-08
-1.36601e-07
3.40656e-08
-1.623e-07
3.51483e-08
-1.88282e-07
3.55394e-08
-2.14069e-07
3.52754e-08
-2.39216e-07
3.43979e-08
-2.63306e-07
3.29517e-08
-2.85959e-07
3.09839e-08
-3.06827e-07
2.85427e-08
-3.256e-07
2.56776e-08
-3.42004e-07
2.24388e-08
-3.55803e-07
1.88773e-08
-3.66798e-07
1.50449e-08
-3.7483e-07
1.09945e-08
-3.79779e-07
6.78001e-09
-3.81566e-07
2.45676e-09
-3.80152e-07
-1.91848e-09
-3.75545e-07
-6.28735e-09
-3.67792e-07
-1.05899e-08
-3.56989e-07
-1.47647e-08
-3.43276e-07
-1.8749e-08
-3.2684e-07
-2.24791e-08
-3.07914e-07
-2.58908e-08
-2.86779e-07
-2.89199e-08
-2.6376e-07
-3.15035e-08
-2.39228e-07
-3.358e-08
-2.13594e-07
-3.50912e-08
-1.8731e-07
-3.59827e-08
-1.60862e-07
-3.62062e-08
-1.34761e-07
-3.57205e-08
-1.09545e-07
-3.4494e-08
-8.57581e-08
-3.25077e-08
-6.39461e-08
-2.97587e-08
-4.46353e-08
-2.62666e-08
-2.83088e-08
-2.20829e-08
-1.53701e-08
-1.73081e-08
-6.08994e-09
-1.21201e-08
-5.19524e-10
-6.82575e-09
1.65868e-09
-1.94923e-09
1.26327e-09
1.64726e-09
2.39912e-09
1.24648e-10
-2.44844e-09
-2.3771e-09
1.18835e-09
-9.09086e-09
9.19601e-09
-2.08158e-08
1.91812e-08
-3.7798e-08
2.97266e-08
-5.98925e-08
3.99343e-08
-8.66847e-08
4.92493e-08
-1.17587e-07
5.73449e-08
-1.51906e-07
6.40405e-08
-1.88895e-07
6.92507e-08
-2.27782e-07
7.29525e-08
-2.67798e-07
7.51652e-08
-3.08195e-07
7.59362e-08
-3.48253e-07
7.53328e-08
-3.8729e-07
7.34354e-08
-4.24672e-07
7.03337e-08
-4.59812e-07
6.61237e-08
-4.92175e-07
6.09058e-08
-5.21282e-07
5.4784e-08
-5.46707e-07
4.78646e-08
-5.68087e-07
4.02564e-08
-5.85112e-07
3.20704e-08
-5.97537e-07
2.34199e-08
-6.05178e-07
1.4421e-08
-6.07914e-07
5.19253e-09
-6.05689e-07
-4.14362e-09
-5.98514e-07
-1.34623e-08
-5.86469e-07
-2.26354e-08
-5.69701e-07
-3.15318e-08
-5.48432e-07
-4.00181e-08
-5.22952e-07
-4.79593e-08
-4.93623e-07
-5.52199e-08
-4.60878e-07
-6.16652e-08
-4.25218e-07
-6.71633e-08
-3.87211e-07
-7.15867e-08
-3.47487e-07
-7.48154e-08
-3.06731e-07
-7.67391e-08
-2.65676e-07
-7.72611e-08
-2.25094e-07
-7.63021e-08
-1.85783e-07
-7.38052e-08
-1.48549e-07
-6.9742e-08
-1.14185e-07
-6.4122e-08
-8.34472e-08
-5.70046e-08
-5.70119e-08
-4.85182e-08
-3.54303e-08
-3.88896e-08
-1.90585e-08
-2.84919e-08
-7.9639e-09
-1.79204e-08
-1.81254e-09
-8.10061e-09
2.90956e-10
-4.56215e-10
2.69006e-09
-1.34203e-09
-1.1064e-09
-7.27758e-09
7.1239e-09
-1.90117e-08
2.09302e-08
-3.71479e-08
3.73174e-08
-6.18188e-08
5.43975e-08
-9.27812e-08
7.08968e-08
-1.29512e-07
8.59798e-08
-1.7129e-07
9.91235e-08
-2.17268e-07
1.10019e-07
-2.66521e-07
1.18503e-07
-3.18086e-07
1.24518e-07
-3.70998e-07
1.28077e-07
-4.24304e-07
1.29242e-07
-4.77086e-07
1.28115e-07
-5.2847e-07
1.24819e-07
-5.77636e-07
1.195e-07
-6.23825e-07
1.12313e-07
-6.66344e-07
1.03424e-07
-7.04567e-07
9.30074e-08
-7.37944e-07
8.12413e-08
-7.65997e-07
6.83095e-08
-7.88327e-07
5.44002e-08
-8.04613e-07
3.97059e-08
-8.14616e-07
2.4424e-08
-8.1818e-07
8.75652e-09
-8.15234e-07
-7.08922e-09
-8.05795e-07
-2.29009e-08
-7.8997e-07
-3.84612e-08
-7.67953e-07
-5.35487e-08
-7.40033e-07
-6.79381e-08
-7.0659e-07
-8.14023e-08
-6.68096e-07
-9.3714e-08
-6.25113e-07
-1.04648e-07
-5.78291e-07
-1.13985e-07
-5.28363e-07
-1.21514e-07
-4.7614e-07
-1.27038e-07
-4.22503e-07
-1.30377e-07
-3.68388e-07
-1.31376e-07
-3.14778e-07
-1.29912e-07
-2.62682e-07
-1.25901e-07
-2.13113e-07
-1.1931e-07
-1.67064e-07
-1.10172e-07
-1.25467e-07
-9.86017e-08
-8.91556e-08
-8.48292e-08
-5.88093e-08
-6.92358e-08
-3.48844e-08
-5.24168e-08
-1.7534e-08
-3.52708e-08
-6.51803e-09
-1.91166e-08
-1.1193e-09
-5.85495e-09
1.57076e-09
-2.91147e-09
1.8051e-09
-1.2622e-08
1.68344e-08
-2.98014e-08
3.81096e-08
-5.47377e-08
6.22536e-08
-8.7351e-08
8.70107e-08
-1.2724e-07
1.10786e-07
-1.73745e-07
1.32485e-07
-2.26012e-07
1.5139e-07
-2.83051e-07
1.67057e-07
-3.43787e-07
1.79239e-07
-4.071e-07
1.87832e-07
-4.7186e-07
1.92837e-07
-5.3695e-07
1.94332e-07
-6.01285e-07
1.9245e-07
-6.63832e-07
1.87366e-07
-7.23616e-07
1.79284e-07
-7.79734e-07
1.68431e-07
-8.31359e-07
1.55048e-07
-8.77743e-07
1.39392e-07
-9.18227e-07
1.21726e-07
-9.52241e-07
1.02323e-07
-9.79306e-07
8.14648e-08
-9.99038e-07
5.9438e-08
-1.01115e-06
3.65377e-08
-1.01546e-06
1.3066e-08
-1.01188e-06
-1.06672e-08
-1.00044e-06
-3.4345e-08
-9.81257e-07
-5.76435e-08
-9.54572e-07
-8.02328e-08
-9.20732e-07
-1.01778e-07
-8.80191e-07
-1.21944e-07
-8.33513e-07
-1.40392e-07
-7.81369e-07
-1.56792e-07
-7.24535e-07
-1.7082e-07
-6.63881e-07
-1.82168e-07
-6.0037e-07
-1.90549e-07
-5.35043e-07
-1.95703e-07
-4.69008e-07
-1.97411e-07
-4.03422e-07
-1.95499e-07
-3.39467e-07
-1.89855e-07
-2.78332e-07
-1.80446e-07
-2.21171e-07
-1.67332e-07
-1.69075e-07
-1.50698e-07
-1.23019e-07
-1.30885e-07
-8.38149e-08
-1.0844e-07
-5.2051e-08
-8.41807e-08
-2.80275e-08
-5.92943e-08
-1.16997e-08
-3.54445e-08
-2.6356e-09
-1.4919e-08
-1.06485e-09
-4.46046e-09
6.26558e-09
-1.80188e-08
3.03928e-08
-4.07942e-08
6.0885e-08
-7.26934e-08
9.41528e-08
-1.13362e-07
1.27679e-07
-1.62191e-07
1.59615e-07
-2.18353e-07
1.88647e-07
-2.80845e-07
2.13882e-07
-3.48537e-07
2.34749e-07
-4.20213e-07
2.50915e-07
-4.94614e-07
2.62233e-07
-5.70467e-07
2.6869e-07
-6.46514e-07
2.70378e-07
-7.21532e-07
2.67468e-07
-7.94351e-07
2.60186e-07
-8.6387e-07
2.48803e-07
-9.29061e-07
2.33623e-07
-9.88986e-07
2.14973e-07
-1.0428e-06
1.93201e-07
-1.08974e-06
1.68668e-07
-1.12916e-06
1.41749e-07
-1.16053e-06
1.12829e-07
-1.18339e-06
8.23034e-08
-1.19743e-06
5.05791e-08
-1.20244e-06
1.8072e-08
-1.19832e-06
-1.47913e-08
-1.18509e-06
-4.75746e-08
-1.1629e-06
-7.98326e-08
-1.13202e-06
-1.11112e-07
-1.09284e-06
-1.40955e-07
-1.04589e-06
-1.68899e-07
-9.91793e-07
-1.94486e-07
-9.31322e-07
-2.17262e-07
-8.65354e-07
-2.36788e-07
-7.94875e-07
-2.52647e-07
-7.20976e-07
-2.64448e-07
-6.44833e-07
-2.71846e-07
-5.67698e-07
-2.74546e-07
-4.90876e-07
-2.72321e-07
-4.15701e-07
-2.6503e-07
-3.43512e-07
-2.52636e-07
-2.75613e-07
-2.35231e-07
-2.13241e-07
-2.1307e-07
-1.57518e-07
-1.86608e-07
-1.09406e-07
-1.56552e-07
-6.9657e-08
-1.2393e-07
-3.87694e-08
-9.01819e-08
-1.69559e-08
-5.7258e-08
-4.13851e-09
-2.77364e-08
-5.20337e-09
-5.93953e-09
1.22051e-08
-2.32874e-08
4.77407e-08
-5.16472e-08
8.92448e-08
-9.05264e-08
1.33032e-07
-1.39261e-07
1.76414e-07
-1.97002e-07
2.17356e-07
-2.62725e-07
2.54369e-07
-3.35259e-07
2.86417e-07
-4.13324e-07
3.12814e-07
-4.95567e-07
3.33158e-07
-5.80594e-07
3.4726e-07
-6.67005e-07
3.551e-07
-7.53414e-07
3.56788e-07
-8.38481e-07
3.52534e-07
-9.20918e-07
3.42623e-07
-9.99513e-07
3.27398e-07
-1.07314e-06
3.07248e-07
-1.14076e-06
2.82593e-07
-1.20144e-06
2.5388e-07
-1.25435e-06
2.21579e-07
-1.29877e-06
1.86175e-07
-1.33411e-06
1.48169e-07
-1.35989e-06
1.08075e-07
-1.37573e-06
6.64234e-08
-1.38141e-06
2.3755e-08
-1.37683e-06
-1.9375e-08
-1.36201e-06
-6.2399e-08
-1.3371e-06
-1.04738e-07
-1.30241e-06
-1.45804e-07
-1.25836e-06
-1.85001e-07
-1.20553e-06
-2.21731e-07
-1.14461e-06
-2.554e-07
-1.07645e-06
-2.85422e-07
-1.00201e-06
-3.11229e-07
-9.2238e-07
-3.32282e-07
-8.38747e-07
-3.48081e-07
-7.52411e-07
-3.58182e-07
-6.64748e-07
-3.62209e-07
-5.77194e-07
-3.59876e-07
-4.91219e-07
-3.51004e-07
-4.08303e-07
-3.35552e-07
-3.29895e-07
-3.13639e-07
-2.5738e-07
-2.85585e-07
-1.92038e-07
-2.5195e-07
-1.35001e-07
-2.13589e-07
-8.7216e-08
-1.71715e-07
-4.94152e-08
-1.27983e-07
-2.21037e-08
-8.45696e-08
-5.57728e-09
-4.42628e-08
-1.07807e-08
-7.33819e-09
1.95433e-08
-2.83637e-08
6.87661e-08
-6.22159e-08
1.23097e-07
-1.08011e-07
1.78827e-07
-1.64763e-07
2.33167e-07
-2.31359e-07
2.83952e-07
-3.06556e-07
3.29566e-07
-3.88999e-07
3.6886e-07
-4.77248e-07
4.01063e-07
-5.69804e-07
4.25714e-07
-6.65142e-07
4.42598e-07
-7.61738e-07
4.51696e-07
-8.58093e-07
4.53143e-07
-9.52755e-07
4.47196e-07
-1.04434e-06
4.34205e-07
-1.13153e-06
4.14592e-07
-1.21312e-06
3.88837e-07
-1.28799e-06
3.57461e-07
-1.35513e-06
3.21021e-07
-1.41365e-06
2.80099e-07
-1.46278e-06
2.35302e-07
-1.50186e-06
1.87254e-07
-1.53038e-06
1.36598e-07
-1.54795e-06
8.39948e-08
-1.55432e-06
3.01212e-08
-1.54937e-06
-2.43297e-08
-1.53311e-06
-7.86496e-08
-1.50574e-06
-1.32116e-07
-1.46755e-06
-1.83995e-07
-1.419e-06
-2.33544e-07
-1.36072e-06
-2.80018e-07
-1.29344e-06
-3.22676e-07
-1.21808e-06
-3.60788e-07
-1.13566e-06
-3.93648e-07
-1.04735e-06
-4.20586e-07
-9.54453e-07
-4.4098e-07
-8.58355e-07
-4.54279e-07
-7.60548e-07
-4.60016e-07
-6.62587e-07
-4.57836e-07
-5.66074e-07
-4.47518e-07
-4.72623e-07
-4.29003e-07
-3.83831e-07
-4.02431e-07
-3.0124e-07
-3.68176e-07
-2.263e-07
-3.26889e-07
-1.60337e-07
-2.79552e-07
-1.04516e-07
-2.27536e-07
-5.98266e-08
-1.72672e-07
-2.70805e-08
-1.17316e-07
-6.94042e-09
-6.44029e-08
-1.77211e-08
-8.66355e-09
2.82069e-08
-3.3244e-08
9.33466e-08
-7.24687e-08
1.62322e-07
-1.25081e-07
2.3144e-07
-1.89774e-07
2.97859e-07
-2.65157e-07
3.59335e-07
-3.49754e-07
4.14163e-07
-4.42011e-07
4.61117e-07
-5.40315e-07
4.99367e-07
-6.43016e-07
5.28415e-07
-7.48455e-07
5.48037e-07
-8.54985e-07
5.58227e-07
-9.60998e-07
5.59156e-07
-1.06494e-06
5.51139e-07
-1.16533e-06
5.34598e-07
-1.26079e-06
5.10043e-07
-1.35e-06
4.78053e-07
-1.4318e-06
4.39257e-07
-1.50511e-06
3.94328e-07
-1.56898e-06
3.43971e-07
-1.62259e-06
2.88918e-07
-1.66527e-06
2.29926e-07
-1.69644e-06
1.67772e-07
-1.7157e-06
1.03257e-07
-1.72278e-06
3.71995e-08
-1.71755e-06
-2.95626e-08
-1.70003e-06
-9.6172e-08
-1.67039e-06
-1.61755e-07
-1.62896e-06
-2.25423e-07
-1.57622e-06
-2.8628e-07
-1.51282e-06
-3.43422e-07
-1.43954e-06
-3.95954e-07
-1.35734e-06
-4.42992e-07
-1.2673e-06
-4.83681e-07
-1.17068e-06
-5.17209e-07
-1.06884e-06
-5.42822e-07
-9.63266e-07
-5.5985e-07
-8.55558e-07
-5.67725e-07
-7.47385e-07
-5.6601e-07
-6.40473e-07
-5.5443e-07
-5.36577e-07
-5.32899e-07
-4.37447e-07
-5.01562e-07
-3.44792e-07
-4.60831e-07
-2.60251e-07
-4.1143e-07
-1.85358e-07
-3.54446e-07
-1.21516e-07
-2.91378e-07
-6.99851e-08
-2.24203e-07
-3.18883e-08
-1.55413e-07
-8.23617e-09
-8.8055e-08
-2.59572e-08
-9.92934e-09
3.81362e-08
-3.79548e-08
1.21372e-07
-8.24355e-08
2.06802e-07
-1.41765e-07
2.90769e-07
-2.14317e-07
3.70411e-07
-2.98423e-07
4.4344e-07
-3.92362e-07
5.08102e-07
-4.94369e-07
5.63124e-07
-6.02647e-07
6.07645e-07
-7.15387e-07
6.41156e-07
-8.30792e-07
6.63442e-07
-9.47092e-07
6.74527e-07
-1.06257e-06
6.74635e-07
-1.17558e-06
6.64147e-07
-1.28455e-06
6.4357e-07
-1.38802e-06
6.13512e-07
-1.48463e-06
5.74658e-07
-1.57312e-06
5.27754e-07
-1.65239e-06
4.73596e-07
-1.72143e-06
4.13016e-07
-1.7794e-06
3.46881e-07
-1.82556e-06
2.76085e-07
-1.85933e-06
2.01546e-07
-1.88028e-06
1.24208e-07
-1.88812e-06
4.50381e-08
-1.88271e-06
-3.49751e-08
-1.86406e-06
-1.1482e-07
-1.83235e-06
-1.93466e-07
-1.78791e-06
-2.69863e-07
-1.73124e-06
-3.42953e-07
-1.66299e-06
-4.11669e-07
-1.58399e-06
-4.7495e-07
-1.49523e-06
-5.3175e-07
-1.39786e-06
-5.81055e-07
-1.29317e-06
-6.21899e-07
-1.18261e-06
-6.53385e-07
-1.06775e-06
-6.7471e-07
-9.50279e-07
-6.85192e-07
-8.31989e-07
-6.843e-07
-7.14731e-07
-6.71687e-07
-6.00403e-07
-6.47226e-07
-4.90918e-07
-6.11047e-07
-3.88165e-07
-5.63583e-07
-2.93984e-07
-5.05611e-07
-2.10135e-07
-4.38295e-07
-1.38273e-07
-3.6324e-07
-7.99396e-08
-2.82536e-07
-3.65621e-08
-1.9879e-07
-9.48064e-09
-1.15137e-07
-3.54379e-08
-1.11511e-08
4.92874e-08
-4.25352e-08
1.52756e-07
-9.2177e-08
2.56444e-07
-1.58139e-07
3.56731e-07
-2.38485e-07
4.50758e-07
-3.31265e-07
5.3622e-07
-4.34507e-07
6.11345e-07
-5.46226e-07
6.74842e-07
-6.64432e-07
7.25851e-07
-7.87152e-07
7.63875e-07
-9.12441e-07
7.88731e-07
-1.03841e-06
8.00493e-07
-1.16322e-06
7.99453e-07
-1.28515e-06
7.86074e-07
-1.40254e-06
7.60962e-07
-1.51386e-06
7.24831e-07
-1.61769e-06
6.78483e-07
-1.71272e-06
6.2279e-07
-1.79781e-06
5.58677e-07
-1.8719e-06
4.87111e-07
-1.93412e-06
4.09098e-07
-1.98371e-06
3.25673e-07
-2.02006e-06
2.379e-07
-2.04272e-06
1.4687e-07
-2.05139e-06
5.3702e-08
-2.0459e-06
-4.04609e-08
-2.02627e-06
-1.34449e-07
-1.99267e-06
-2.2707e-07
-1.94542e-06
-3.17109e-07
-1.88503e-06
-4.03339e-07
-1.81218e-06
-4.84523e-07
-1.7277e-06
-5.59427e-07
-1.63262e-06
-6.26833e-07
-1.52812e-06
-6.85558e-07
-1.41555e-06
-7.3447e-07
-1.29642e-06
-7.72516e-07
-1.17238e-06
-7.98746e-07
-1.04522e-06
-8.12349e-07
-9.16843e-07
-8.1268e-07
-7.89227e-07
-7.99304e-07
-6.64422e-07
-7.7203e-07
-5.44512e-07
-7.30958e-07
-4.3158e-07
-6.76515e-07
-3.27683e-07
-6.09508e-07
-2.34818e-07
-5.31159e-07
-1.54907e-07
-4.43151e-07
-8.97745e-08
-3.47669e-07
-4.11527e-08
-2.47412e-07
-1.06926e-08
-1.45597e-07
-4.61304e-08
-1.23442e-08
6.16316e-08
-4.70288e-08
1.87441e-07
-1.01767e-07
3.11183e-07
-1.74307e-07
4.2927e-07
-2.62407e-07
5.38858e-07
-3.63834e-07
6.37648e-07
-4.76364e-07
7.23874e-07
-5.9778e-07
7.96259e-07
-7.25897e-07
8.53967e-07
-8.58564e-07
8.96543e-07
-9.93691e-07
9.23858e-07
-1.12926e-06
9.36059e-07
-1.26333e-06
9.33525e-07
-1.39407e-06
9.16819e-07
-1.51977e-06
8.86657e-07
-1.63881e-06
8.43876e-07
-1.74973e-06
7.89404e-07
-1.85119e-06
7.24247e-07
-1.94198e-06
6.49466e-07
-2.02104e-06
5.6617e-07
-2.08745e-06
4.75508e-07
-2.14044e-06
3.7866e-07
-2.17938e-06
2.76839e-07
-2.20379e-06
1.71285e-07
-2.21336e-06
6.32703e-08
-2.20791e-06
-4.5905e-08
-2.18745e-06
-1.54911e-07
-2.15213e-06
-2.62392e-07
-2.10228e-06
-3.66963e-07
-2.03839e-06
-4.67226e-07
-1.96115e-06
-5.61765e-07
-1.87141e-06
-6.49169e-07
-1.7702e-06
-7.28039e-07
-1.65875e-06
-7.9701e-07
-1.53844e-06
-8.54773e-07
-1.41086e-06
-9.00104e-07
-1.27771e-06
-9.3189e-07
-1.14089e-06
-9.4917e-07
-1.0024e-06
-9.51168e-07
-8.64372e-07
-9.37337e-07
-7.28999e-07
-9.07403e-07
-5.98551e-07
-8.61406e-07
-4.75316e-07
-7.9975e-07
-3.61582e-07
-7.23243e-07
-2.59599e-07
-6.33141e-07
-1.71564e-07
-5.31187e-07
-9.95919e-08
-4.1964e-07
-4.57172e-08
-3.01286e-07
-1.18911e-08
-1.79423e-07
-5.80215e-08
-1.35228e-08
7.51544e-08
-5.1479e-08
2.25397e-07
-1.11284e-07
3.70988e-07
-1.90379e-07
5.08364e-07
-2.86222e-07
6.34701e-07
-3.96299e-07
7.47725e-07
-5.18122e-07
8.45697e-07
-6.49245e-07
9.27382e-07
-7.87273e-07
9.91995e-07
-9.29878e-07
1.03915e-06
-1.07482e-06
1.0688e-06
-1.21994e-06
1.08118e-06
-1.3632e-06
1.07679e-06
-1.50268e-06
1.0563e-06
-1.63658e-06
1.02056e-06
-1.76325e-06
9.70544e-07
-1.88116e-06
9.07316e-07
-1.98894e-06
8.32024e-07
-2.08535e-06
7.45875e-07
-2.1693e-06
6.50124e-07
-2.23986e-06
5.46067e-07
-2.29623e-06
4.35032e-07
-2.33777e-06
3.18382e-07
-2.364e-06
1.97507e-07
-2.37456e-06
7.38335e-08
-2.36928e-06
-5.11824e-08
-2.34814e-06
-1.7605e-07
-2.31129e-06
-2.99248e-07
-2.25903e-06
-4.19223e-07
-2.19186e-06
-5.34397e-07
-2.11044e-06
-6.43178e-07
-2.01565e-06
-7.43965e-07
-1.90851e-06
-8.35172e-07
-1.79028e-06
-9.1524e-07
-1.66238e-06
-9.82672e-07
-1.52644e-06
-1.03605e-06
-1.38424e-06
-1.07409e-06
-1.23776e-06
-1.09565e-06
-1.08912e-06
-1.09981e-06
-9.40579e-07
-1.08587e-06
-7.94515e-07
-1.05347e-06
-6.53379e-07
-1.00254e-06
-5.19678e-07
-9.33451e-07
-3.95942e-07
-8.46978e-07
-2.84691e-07
-7.44393e-07
-1.88405e-07
-6.27474e-07
-1.095e-07
-4.98545e-07
-5.03138e-08
-3.60473e-07
-1.30947e-08
-2.16642e-07
-7.11163e-08
-1.46999e-08
8.98543e-08
-5.59266e-08
2.66623e-07
-1.20803e-07
4.35865e-07
-2.06465e-07
5.94027e-07
-3.10074e-07
7.3831e-07
-4.28828e-07
8.66479e-07
-5.59975e-07
9.76844e-07
-7.00829e-07
1.06824e-06
-8.48782e-07
1.13995e-06
-1.00132e-06
1.19169e-06
-1.15605e-06
1.22352e-06
-1.31068e-06
1.23581e-06
-1.46307e-06
1.22917e-06
-1.6112e-06
1.20443e-06
-1.75322e-06
1.16258e-06
-1.88741e-06
1.10473e-06
-2.0122e-06
1.03211e-06
-2.1262e-06
9.4602e-07
-2.22814e-06
8.47815e-07
-2.31692e-06
7.38904e-07
-2.39158e-06
6.20732e-07
-2.45133e-06
4.94778e-07
-2.4955e-06
3.62552e-07
-2.52359e-06
2.25597e-07
-2.53525e-06
8.54902e-08
-2.53027e-06
-5.61578e-08
-2.50862e-06
-1.97697e-07
-2.47043e-06
-3.37442e-07
-2.41598e-06
-4.73669e-07
-2.34576e-06
-6.04623e-07
-2.26041e-06
-7.28526e-07
-2.16079e-06
-8.43587e-07
-2.04794e-06
-9.48019e-07
-1.92312e-06
-1.04006e-06
-1.78777e-06
-1.11802e-06
-1.64357e-06
-1.18026e-06
-1.49237e-06
-1.22529e-06
-1.33623e-06
-1.25179e-06
-1.17739e-06
-1.25865e-06
-1.01825e-06
-1.24502e-06
-8.61345e-07
-1.21037e-06
-7.09342e-07
-1.15454e-06
-5.64976e-07
-1.07782e-06
-4.31032e-07
-9.80922e-07
-3.10311e-07
-8.65113e-07
-2.05594e-07
-7.32191e-07
-1.19607e-07
-5.84532e-07
-5.49997e-08
-4.2508e-07
-1.43209e-08
-2.57321e-07
-8.54372e-08
-1.58869e-08
1.05741e-07
-6.04089e-08
3.11145e-07
-1.30394e-07
5.0585e-07
-2.22672e-07
6.86304e-07
-3.34099e-07
8.49738e-07
-4.61584e-07
9.93963e-07
-6.02103e-07
1.11736e-06
-7.52724e-07
1.21886e-06
-9.10621e-07
1.29785e-06
-1.07309e-06
1.35416e-06
-1.23758e-06
1.38801e-06
-1.40167e-06
1.3999e-06
-1.56311e-06
1.39061e-06
-1.71979e-06
1.36112e-06
-1.8698e-06
1.31259e-06
-2.01138e-06
1.24631e-06
-2.14294e-06
1.16366e-06
-2.26303e-06
1.06611e-06
-2.37039e-06
9.55179e-07
-2.46391e-06
8.32424e-07
-2.54263e-06
6.99447e-07
-2.60572e-06
5.57875e-07
-2.65254e-06
4.09368e-07
-2.68256e-06
2.55616e-07
-2.69541e-06
9.8344e-08
-2.69089e-06
-6.06856e-08
-2.66891e-06
-2.19668e-07
-2.6296e-06
-3.76757e-07
-2.57321e-06
-5.30058e-07
-2.50019e-06
-6.77641e-07
-2.41118e-06
-8.1754e-07
-2.307e-06
-9.47768e-07
-2.18868e-06
-1.06633e-06
-2.05749e-06
-1.17126e-06
-1.91488e-06
-1.26062e-06
-1.76256e-06
-1.33258e-06
-1.60244e-06
-1.38541e-06
-1.43666e-06
-1.41757e-06
-1.26758e-06
-1.42773e-06
-1.09773e-06
-1.41486e-06
-9.2984e-07
-1.37826e-06
-7.66774e-07
-1.31761e-06
-6.11512e-07
-1.23308e-06
-4.67113e-07
-1.12532e-06
-3.36674e-07
-9.95552e-07
-2.23291e-07
-8.45574e-07
-1.30018e-07
-6.77805e-07
-5.98294e-08
-4.95269e-07
-1.55861e-08
-3.01564e-07
-1.01023e-07
-1.70937e-08
1.22835e-07
-6.49594e-08
3.59011e-07
-1.40121e-07
5.81011e-07
-2.39093e-07
7.85277e-07
-3.58422e-07
9.69067e-07
-4.94714e-07
1.13026e-06
-6.44668e-07
1.26732e-06
-8.05097e-07
1.37929e-06
-9.72954e-07
1.4657e-06
-1.14534e-06
1.52655e-06
-1.31954e-06
1.56221e-06
-1.493e-06
1.57336e-06
-1.66337e-06
1.56097e-06
-1.82847e-06
1.52622e-06
-1.98632e-06
1.47044e-06
-2.13512e-06
1.39511e-06
-2.27326e-06
1.3018e-06
-2.39929e-06
1.19214e-06
-2.51193e-06
1.06782e-06
-2.61007e-06
9.30565e-07
-2.69275e-06
7.82125e-07
-2.75915e-06
6.2428e-07
-2.80862e-06
4.58832e-07
-2.84062e-06
2.87617e-07
-2.85477e-06
1.125e-07
-2.85085e-06
-6.46108e-08
-2.82876e-06
-2.41761e-07
-2.78857e-06
-4.16946e-07
-2.73051e-06
-5.88111e-07
-2.65501e-06
-7.53148e-07
-2.56264e-06
-9.09905e-07
-2.45422e-06
-1.05619e-06
-2.33074e-06
-1.18981e-06
-2.19346e-06
-1.30855e-06
-2.04383e-06
-1.41025e-06
-1.88357e-06
-1.49283e-06
-1.71466e-06
-1.55432e-06
-1.53931e-06
-1.59292e-06
-1.35997e-06
-1.60707e-06
-1.17934e-06
-1.59549e-06
-1.00032e-06
-1.55728e-06
-8.25981e-07
-1.49195e-06
-6.59572e-07
-1.39949e-06
-5.04436e-07
-1.28046e-06
-3.63985e-07
-1.136e-06
-2.41651e-07
-9.67908e-07
-1.40835e-07
-7.78622e-07
-6.48549e-08
-5.71249e-07
-1.69053e-08
-3.49513e-07
-1.17929e-07
-1.83295e-08
1.41164e-07
-6.96085e-08
4.1029e-07
-1.50042e-07
6.61445e-07
-2.55817e-07
8.91051e-07
-3.83153e-07
1.0964e-06
-5.28348e-07
1.27545e-06
-6.87808e-07
1.42678e-06
-8.58086e-07
1.54956e-06
-1.0359e-06
1.64352e-06
-1.21817e-06
1.70882e-06
-1.40199e-06
1.74603e-06
-1.5847e-06
1.75607e-06
-1.76383e-06
1.74011e-06
-1.93715e-06
1.69954e-06
-2.10262e-06
1.63591e-06
-2.25841e-06
1.55091e-06
-2.4029e-06
1.44629e-06
-2.53463e-06
1.32388e-06
-2.65235e-06
1.18554e-06
-2.75494e-06
1.03315e-06
-2.84145e-06
8.68638e-07
-2.91108e-06
6.93913e-07
-2.96317e-06
5.10922e-07
-2.99719e-06
3.21636e-07
-3.01275e-06
1.28058e-07
-3.00959e-06
-6.77699e-08
-2.9876e-06
-2.63751e-07
-2.94681e-06
-4.57735e-07
-2.88742e-06
-6.47506e-07
-2.80978e-06
-8.30787e-07
-2.71445e-06
-1.00524e-06
-2.60217e-06
-1.16847e-06
-2.47391e-06
-1.31806e-06
-2.33089e-06
-1.45157e-06
-2.17456e-06
-1.56658e-06
-2.00664e-06
-1.66075e-06
-1.82914e-06
-1.73182e-06
-1.64433e-06
-1.77773e-06
-1.45479e-06
-1.79662e-06
-1.26333e-06
-1.78695e-06
-1.07304e-06
-1.74757e-06
-8.87234e-07
-1.67775e-06
-7.09415e-07
-1.57731e-06
-5.43233e-07
-1.44664e-06
-3.92438e-07
-1.2868e-06
-2.6082e-07
-1.09953e-06
-1.52152e-07
-8.8729e-07
-7.01251e-08
-6.53275e-07
-1.82932e-08
-4.01345e-07
-1.36222e-07
-1.96023e-08
1.60767e-07
-7.43838e-08
4.65071e-07
-1.6021e-07
7.47271e-07
-2.72921e-07
1.00376e-06
-4.08394e-07
1.23188e-06
-5.62598e-07
1.42965e-06
-7.31638e-07
1.59582e-06
-9.11793e-07
1.72972e-06
-1.09954e-06
1.83127e-06
-1.2916e-06
1.90087e-06
-1.48491e-06
1.93934e-06
-1.67668e-06
1.94783e-06
-1.86434e-06
1.92777e-06
-2.0456e-06
1.88079e-06
-2.21838e-06
1.80869e-06
-2.38085e-06
1.71337e-06
-2.53137e-06
1.59681e-06
-2.66851e-06
1.46102e-06
-2.79102e-06
1.30805e-06
-2.89782e-06
1.13995e-06
-2.98797e-06
9.58796e-07
-3.06071e-06
7.66645e-07
-3.11536e-06
5.65577e-07
-3.15141e-06
3.5769e-07
-3.16847e-06
1.4511e-07
-3.16624e-06
-6.99938e-08
-3.1446e-06
-2.85397e-07
-3.10352e-06
-4.9881e-07
-3.04316e-06
-7.0787e-07
-2.96381e-06
-9.10135e-07
-2.86597e-06
-1.10308e-06
-2.75031e-06
-1.28413e-06
-2.61775e-06
-1.45062e-06
-2.46945e-06
-1.59987e-06
-2.30684e-06
-1.7292e-06
-2.13163e-06
-1.83597e-06
-1.94583e-06
-1.91762e-06
-1.75178e-06
-1.97178e-06
-1.55213e-06
-1.99626e-06
-1.34986e-06
-1.98923e-06
-1.14822e-06
-1.94921e-06
-9.50761e-07
-1.87521e-06
-7.61269e-07
-1.7668e-06
-5.83717e-07
-1.62419e-06
-4.22212e-07
-1.4483e-06
-2.80935e-07
-1.2408e-06
-1.6406e-07
-1.00416e-06
-7.56868e-08
-7.41648e-07
-1.97633e-08
-4.57269e-07
-1.55985e-07
-2.09197e-08
1.81687e-07
-7.93112e-08
5.23463e-07
-1.70675e-07
8.38635e-07
-2.90478e-07
1.12356e-06
-4.34233e-07
1.37563e-06
-5.97562e-07
1.59298e-06
-7.7625e-07
1.77451e-06
-9.66289e-07
1.91976e-06
-1.16391e-06
2.0289e-06
-1.36563e-06
2.10259e-06
-1.56823e-06
2.14194e-06
-1.76878e-06
2.14838e-06
-1.96464e-06
2.12364e-06
-2.15346e-06
2.06962e-06
-2.33315e-06
1.98838e-06
-2.50187e-06
1.88209e-06
-2.65799e-06
1.75293e-06
-2.80013e-06
1.60315e-06
-2.92705e-06
1.43497e-06
-3.03773e-06
1.25063e-06
-3.13127e-06
1.05233e-06
-3.20691e-06
8.42284e-07
-3.26402e-06
6.22688e-07
-3.30209e-06
3.95758e-07
-3.32071e-06
1.63732e-07
-3.31959e-06
-7.11106e-08
-3.29856e-06
-3.06431e-07
-3.25755e-06
-5.39818e-07
-3.19665e-06
-7.6877e-07
-3.11609e-06
-9.90694e-07
-3.01628e-06
-1.2029e-06
-2.89782e-06
-1.40258e-06
-2.76156e-06
-1.58688e-06
-2.60856e-06
-1.75286e-06
-2.44022e-06
-1.89754e-06
-2.2582e-06
-2.01799e-06
-2.06452e-06
-2.1113e-06
-1.86155e-06
-2.17475e-06
-1.65201e-06
-2.2058e-06
-1.43901e-06
-2.20223e-06
-1.226e-06
-2.16222e-06
-1.01674e-06
-2.08446e-06
-8.15333e-07
-1.96821e-06
-6.26077e-07
-1.81345e-06
-4.53475e-07
-1.6209e-06
-3.02125e-07
-1.39215e-06
-1.76646e-07
-1.12964e-06
-8.15852e-08
-8.36709e-07
-2.1329e-08
-5.17525e-07
-1.77314e-07
-2.22892e-08
2.03976e-07
-8.44157e-08
5.85589e-07
-1.81483e-07
9.35702e-07
-3.08556e-07
1.25064e-06
-4.60753e-07
1.52783e-06
-6.33325e-07
1.76555e-06
-8.21713e-07
1.96289e-06
-1.02161e-06
2.11965e-06
-1.229e-06
2.23628e-06
-1.44017e-06
2.31376e-06
-1.65176e-06
2.35353e-06
-1.86072e-06
2.35734e-06
-2.06434e-06
2.32726e-06
-2.26023e-06
2.26551e-06
-2.44629e-06
2.17444e-06
-2.62069e-06
2.05649e-06
-2.78186e-06
1.91411e-06
-2.92846e-06
1.74974e-06
-3.05931e-06
1.56582e-06
-3.17343e-06
1.36475e-06
-3.26998e-06
1.14888e-06
-3.34825e-06
9.20556e-07
-3.40765e-06
6.82084e-07
-3.44767e-06
4.3578e-07
-3.46791e-06
1.83978e-07
-3.46807e-06
-7.09505e-08
-3.44793e-06
-3.2657e-07
-3.40739e-06
-5.80363e-07
-3.34645e-06
-8.29712e-07
-3.26526e-06
-1.07188e-06
-3.16414e-06
-1.30402e-06
-3.04359e-06
-1.52313e-06
-2.90434e-06
-1.72613e-06
-2.74738e-06
-1.90982e-06
-2.574e-06
-2.07092e-06
-2.38582e-06
-2.20616e-06
-2.18483e-06
-2.3123e-06
-1.97339e-06
-2.38618e-06
-1.75431e-06
-2.42488e-06
-1.53078e-06
-2.42575e-06
-1.30645e-06
-2.38656e-06
-1.08531e-06
-2.30559e-06
-8.71764e-07
-2.18176e-06
-6.70481e-07
-2.01473e-06
-4.86378e-07
-1.80501e-06
-3.24514e-07
-1.55402e-06
-1.89994e-07
-1.26416e-06
-8.78642e-08
-9.38839e-07
-2.30033e-08
-5.82386e-07
-2.00317e-07
-2.37185e-08
2.27694e-07
-8.97233e-08
6.51594e-07
-1.92684e-07
1.03866e-06
-3.27224e-07
1.38518e-06
-4.88033e-07
1.68864e-06
-6.69959e-07
1.94748e-06
-8.6808e-07
2.16101e-06
-1.07777e-06
2.32934e-06
-1.29474e-06
2.45326e-06
-1.51508e-06
2.53411e-06
-1.73526e-06
2.5737e-06
-1.95213e-06
2.57421e-06
-2.16292e-06
2.53805e-06
-2.36522e-06
2.46781e-06
-2.55695e-06
2.36617e-06
-2.73633e-06
2.23587e-06
-2.90184e-06
2.07962e-06
-3.0522e-06
1.9001e-06
-3.18634e-06
1.69996e-06
-3.30333e-06
1.48175e-06
-3.40243e-06
1.24798e-06
-3.48296e-06
1.00109e-06
-3.54439e-06
7.43515e-07
-3.58625e-06
4.77637e-07
-3.60814e-06
2.05867e-07
-3.60974e-06
-6.93506e-08
-3.5908e-06
-3.45509e-07
-3.55116e-06
-6.20007e-07
-3.49074e-06
-8.9013e-07
-3.4096e-06
-1.15302e-06
-3.30794e-06
-1.40568e-06
-3.18613e-06
-1.64494e-06
-3.04478e-06
-1.86748e-06
-2.88476e-06
-2.06984e-06
-2.70723e-06
-2.24845e-06
-2.51372e-06
-2.39967e-06
-2.30616e-06
-2.51986e-06
-2.08689e-06
-2.60545e-06
-1.85876e-06
-2.65302e-06
-1.62504e-06
-2.65947e-06
-1.38955e-06
-2.62206e-06
-1.15653e-06
-2.53861e-06
-9.30684e-07
-2.40761e-06
-7.17073e-07
-2.22834e-06
-5.21064e-07
-2.00102e-06
-3.4822e-07
-1.72686e-06
-2.04186e-07
-1.4082e-06
-9.45681e-08
-1.04846e-06
-2.47996e-08
-6.52154e-07
-2.25117e-07
-2.52158e-08
2.5291e-07
-9.52623e-08
7.21641e-07
-2.04328e-07
1.14773e-06
-3.46553e-07
1.5274e-06
-5.16154e-07
1.85824e-06
-7.07538e-07
2.13886e-06
-9.1539e-07
2.36887e-06
-1.13474e-06
2.5487e-06
-1.36104e-06
2.67955e-06
-1.59014e-06
2.76321e-06
-1.81838e-06
2.80194e-06
-2.0425e-06
2.79834e-06
-2.25971e-06
2.75526e-06
-2.4676e-06
2.6757e-06
-2.66412e-06
2.5627e-06
-2.84757e-06
2.41932e-06
-3.01652e-06
2.24856e-06
-3.16979e-06
2.05337e-06
-3.30641e-06
1.83657e-06
-3.42556e-06
1.6009e-06
-3.52658e-06
1.349e-06
-3.6089e-06
1.08341e-06
-3.67203e-06
8.06641e-07
-3.71554e-06
5.21145e-07
-3.73905e-06
2.29381e-07
-3.74224e-06
-6.61624e-08
-3.72482e-06
-3.62931e-07
-3.68655e-06
-6.58268e-07
-3.6273e-06
-9.49387e-07
-3.54698e-06
-1.23334e-06
-3.44568e-06
-1.50699e-06
-3.32361e-06
-1.76701e-06
-3.18123e-06
-2.00986e-06
-3.01923e-06
-2.23184e-06
-2.83864e-06
-2.42904e-06
-2.64085e-06
-2.59746e-06
-2.42769e-06
-2.73303e-06
-2.20144e-06
-2.83169e-06
-1.96493e-06
-2.88953e-06
-1.72154e-06
-2.90286e-06
-1.4752e-06
-2.8684e-06
-1.23041e-06
-2.7834e-06
-9.92172e-07
-2.64585e-06
-7.65972e-07
-2.45454e-06
-5.5766e-07
-2.20933e-06
-3.73355e-07
-1.91117e-06
-2.19305e-07
-1.56225e-06
-1.01742e-07
-1.16602e-06
-2.67318e-08
-7.27165e-07
-2.51849e-07
-2.67913e-08
2.79701e-07
-1.01065e-07
7.95915e-07
-2.16477e-07
1.26314e-06
-3.66624e-07
1.67755e-06
-5.45202e-07
2.03682e-06
-7.46133e-07
2.3398e-06
-9.63673e-07
2.58641e-06
-1.19249e-06
2.77752e-06
-1.42774e-06
2.9148e-06
-1.66508e-06
3.00055e-06
-1.90068e-06
3.03753e-06
-2.13122e-06
3.02889e-06
-2.3539e-06
2.97794e-06
-2.56633e-06
2.88813e-06
-2.76655e-06
2.76291e-06
-2.95295e-06
2.60571e-06
-3.12422e-06
2.41984e-06
-3.27933e-06
2.20848e-06
-3.41744e-06
1.97468e-06
-3.53786e-06
1.72132e-06
-3.64004e-06
1.45118e-06
-3.72353e-06
1.1669e-06
-3.7879e-06
8.71015e-07
-3.83279e-06
5.66039e-07
-3.85786e-06
2.54446e-07
-3.86276e-06
-6.12596e-08
-3.84718e-06
-3.78508e-07
-3.81083e-06
-6.94621e-07
-3.75345e-06
-1.00677e-06
-3.67485e-06
-1.31194e-06
-3.57494e-06
-1.60689e-06
-3.45378e-06
-1.88816e-06
-3.31162e-06
-2.15202e-06
-3.14897e-06
-2.39449e-06
-2.96665e-06
-2.61136e-06
-2.76588e-06
-2.79824e-06
-2.54832e-06
-2.95058e-06
-2.31618e-06
-3.06383e-06
-2.07223e-06
-3.13347e-06
-1.81988e-06
-3.15521e-06
-1.56319e-06
-3.12509e-06
-1.30687e-06
-3.03972e-06
-1.05626e-06
-2.89645e-06
-8.17273e-07
-2.69353e-06
-5.96288e-07
-2.43031e-06
-4.00035e-07
-2.10742e-06
-2.35435e-07
-1.72685e-06
-1.09434e-07
-1.29202e-06
-2.88146e-08
-8.07784e-07
-2.80663e-07
-2.84568e-08
3.08158e-07
-1.07172e-07
8.7463e-07
-2.29202e-07
1.38517e-06
-3.87535e-07
1.83588e-06
-5.75281e-07
2.22456e-06
-7.85827e-07
2.55034e-06
-1.01296e-06
2.81354e-06
-1.25095e-06
3.01552e-06
-1.49467e-06
3.15851e-06
-1.73954e-06
3.24541e-06
-1.98161e-06
3.27961e-06
-2.21753e-06
3.26481e-06
-2.44448e-06
3.20489e-06
-2.66017e-06
3.10381e-06
-2.86273e-06
2.96548e-06
-3.05071e-06
2.79369e-06
-3.22296e-06
2.59209e-06
-3.37861e-06
2.36413e-06
-3.51699e-06
2.11306e-06
-3.63759e-06
1.84192e-06
-3.74e-06
1.55359e-06
-3.82388e-06
1.25078e-06