/*--------------------------------*- C++ -*----------------------------------*\
  =========                 |
  \\      /  F ield         | OpenFOAM: The Open Source CFD Toolbox
   \\    /   O peration     | Website:  https://openfoam.org
    \\  /    A nd           | Version:  7
     \\/     M anipulation  |
\*---------------------------------------------------------------------------*/
FoamFile
{
    version     2.0;
    format      ascii;
    class       surfaceScalarField;
    location    "0.028";
    object      phi;
}
// * * * * * * * * * * * * * * * * * * * * * * * * * * * * * * * * * * * * * //

dimensions      [0 3 -1 0 0 0 0];

internalField   nonuniform List<scalar> 
4900
(
8.87604e-10
-8.84143e-10
1.60694e-09
-7.19397e-10
1.30159e-09
3.05384e-10
-2.76259e-10
1.57783e-09
-3.13091e-09
2.85463e-09
-7.15849e-09
4.02759e-09
-1.21988e-08
5.04029e-09
-1.80733e-08
5.87456e-09
-2.46015e-08
6.52819e-09
-3.16078e-08
7.00624e-09
-3.89253e-08
7.3175e-09
-4.6398e-08
7.47274e-09
-5.38817e-08
7.48365e-09
-6.12441e-08
7.36233e-09
-6.8365e-08
7.12089e-09
-7.51362e-08
6.77123e-09
-8.14611e-08
6.32486e-09
-8.72539e-08
5.79286e-09
-9.24398e-08
5.18585e-09
-9.69538e-08
4.51401e-09
-1.00741e-07
3.78707e-09
-1.03755e-07
3.01444e-09
-1.05961e-07
2.20528e-09
-1.07329e-07
1.36863e-09
-1.07843e-07
5.13485e-10
-1.07492e-07
-3.51023e-10
-1.06276e-07
-1.21556e-09
-1.04206e-07
-2.07045e-09
-1.013e-07
-2.90561e-09
-9.75896e-08
-3.71045e-09
-9.31157e-08
-4.47388e-09
-8.79315e-08
-5.18422e-09
-8.21022e-08
-5.82933e-09
-7.57056e-08
-6.39657e-09
-6.88326e-08
-6.87298e-09
-6.15872e-08
-7.24538e-09
-5.40867e-08
-7.50055e-09
-4.64612e-08
-7.62549e-09
-3.88536e-08
-7.60763e-09
-3.14183e-08
-7.43524e-09
-2.43205e-08
-7.09777e-09
-1.7734e-08
-6.58652e-09
-1.18385e-08
-5.89555e-09
-6.81513e-09
-5.02333e-09
-2.83937e-09
-3.97576e-09
-6.34552e-11
-2.77592e-09
1.43235e-09
-1.49581e-09
1.66056e-09
-2.28228e-10
8.91609e-10
7.68929e-10
8.91585e-10
7.3208e-10
-1.61628e-09
2.71824e-10
-2.59084e-10
-2.56787e-09
3.14507e-09
-8.29968e-09
7.30964e-09
-1.70007e-08
1.15557e-08
-2.84929e-08
1.55198e-08
-4.24607e-08
1.90081e-08
-5.85145e-08
2.19283e-08
-7.62321e-08
2.42458e-08
-9.51846e-08
2.59587e-08
-1.14951e-07
2.70844e-08
-1.3513e-07
2.76515e-08
-1.55342e-07
2.76957e-08
-1.75236e-07
2.72559e-08
-1.94488e-07
2.63732e-08
-2.12806e-07
2.50889e-08
-2.29925e-07
2.34441e-08
-2.45611e-07
2.14789e-08
-2.59658e-07
1.92323e-08
-2.71886e-07
1.6742e-08
-2.82143e-07
1.40445e-08
-2.90304e-07
1.11753e-08
-2.96268e-07
8.16906e-09
-2.99959e-07
5.06019e-09
-3.01329e-07
1.88297e-09
-3.00352e-07
-1.32791e-09
-2.97031e-07
-4.53699e-09
-2.91393e-07
-7.70771e-09
-2.83497e-07
-1.08021e-08
-2.73427e-07
-1.37805e-08
-2.61299e-07
-1.66016e-08
-2.47261e-07
-1.92223e-08
-2.31492e-07
-2.15979e-08
-2.14207e-07
-2.36824e-08
-1.95651e-07
-2.54288e-08
-1.76106e-07
-2.67902e-08
-1.55887e-07
-2.77197e-08
-1.3534e-07
-2.81725e-08
-1.14841e-07
-2.81061e-08
-9.47937e-08
-2.74828e-08
-7.56202e-08
-2.62712e-08
-5.77572e-08
-2.44496e-08
-4.16425e-08
-2.20102e-08
-2.76988e-08
-1.8967e-08
-1.63061e-08
-1.53685e-08
-7.75918e-09
-1.13229e-08
-2.21448e-09
-7.04051e-09
4.49973e-10
-2.89267e-09
7.79435e-10
4.39485e-10
1.671e-09
-2.59988e-10
-1.35626e-09
-3.05691e-09
2.53781e-09
-9.50144e-09
9.58958e-09
-2.00636e-08
1.78718e-08
-3.48068e-08
2.62989e-08
-5.35022e-08
3.42151e-08
-7.57321e-08
4.12379e-08
-1.00966e-07
4.71623e-08
-1.28614e-07
5.18937e-08
-1.58062e-07
5.54066e-08
-1.88697e-07
5.77195e-08
-2.19924e-07
5.88788e-08
-2.51177e-07
5.89485e-08
-2.81924e-07
5.80032e-08
-3.11675e-07
5.61238e-08
-3.3998e-07
5.33937e-08
-3.66433e-07
4.98972e-08
-3.90672e-07
4.57178e-08
-4.12377e-07
4.09374e-08
-4.31271e-07
3.56357e-08
-4.47117e-07
2.98905e-08
-4.59719e-07
2.37779e-08
-4.68923e-07
1.73725e-08
-4.74611e-07
1.07483e-08
-4.76707e-07
3.97923e-09
-4.75175e-07
-2.8599e-09
-4.70019e-07
-9.69278e-09
-4.61286e-07
-1.64409e-08
-4.49065e-07
-2.30228e-08
-4.33492e-07
-2.9354e-08
-4.14747e-07
-3.53466e-08
-3.9306e-07
-4.09095e-08
-3.68709e-07
-4.59483e-08
-3.42025e-07
-5.03668e-08
-3.13387e-07
-5.40673e-08
-2.83224e-07
-5.69524e-08
-2.52017e-07
-5.8927e-08
-2.20289e-07
-5.99001e-08
-1.88607e-07
-5.97886e-08
-1.57569e-07
-5.85203e-08
-1.27801e-07
-5.60395e-08
-9.99371e-08
-5.23137e-08
-7.46039e-08
-4.73434e-08
-5.2393e-08
-4.11779e-08
-3.38229e-08
-3.39386e-08
-1.92866e-08
-2.58592e-08
-8.97707e-09
-1.73501e-08
-2.78316e-09
-9.0866e-09
-1.77521e-10
-2.16616e-09
1.49347e-09
-1.4943e-09
1.38036e-10
-7.15616e-09
8.19965e-09
-1.77202e-08
2.01536e-08
-3.34854e-08
3.36371e-08
-5.4405e-08
4.72184e-08
-8.01595e-08
5.99696e-08
-1.10234e-07
7.13128e-08
-1.43986e-07
8.09143e-08
-1.80696e-07
8.86033e-08
-2.19608e-07
9.43185e-08
-2.5996e-07
9.80715e-08
-3.01005e-07
9.99237e-08
-3.42025e-07
9.99689e-08
-3.82344e-07
9.8322e-08
-4.21331e-07
9.51108e-08
-4.58407e-07
9.047e-08
-4.93048e-07
8.45376e-08
-5.24781e-07
7.74515e-08
-5.53192e-07
6.93483e-08
-5.77919e-07
6.03619e-08
-5.98652e-07
5.06238e-08
-6.15137e-07
4.02626e-08
-6.2717e-07
2.94054e-08
-6.34599e-07
1.8178e-08
-6.37327e-07
6.70667e-09
-6.35305e-07
-4.88126e-09
-6.28542e-07
-1.64558e-08
-6.171e-07
-2.78834e-08
-6.01097e-07
-3.90261e-08
-5.8071e-07
-4.97409e-08
-5.56177e-07
-5.98794e-08
-5.27798e-07
-6.92884e-08
-4.95936e-07
-7.78102e-08
-4.61019e-07
-8.52841e-08
-4.23538e-07
-9.15483e-08
-3.84048e-07
-9.64423e-08
-3.43164e-07
-9.98107e-08
-3.01557e-07
-1.01507e-07
-2.59946e-07
-1.01399e-07
-2.1909e-07
-9.93767e-08
-1.79771e-07
-9.53585e-08
-1.42779e-07
-8.93053e-08
-1.08887e-07
-8.12357e-08
-7.88168e-08
-7.12483e-08
-5.31992e-08
-5.95562e-08
-3.2521e-08
-4.65374e-08
-1.70587e-08
-3.28123e-08
-6.80215e-09
-1.93432e-08
-1.38537e-09
-7.58295e-09
1.08098e-10
-2.7526e-09
2.89063e-09
-1.14363e-08
1.68834e-08
-2.63233e-08
3.50407e-08
-4.74466e-08
5.47604e-08
-7.4581e-08
7.43528e-08
-1.07276e-07
9.26648e-08
-1.44906e-07
1.08942e-07
-1.86718e-07
1.22726e-07
-2.3188e-07
1.33766e-07
-2.7952e-07
1.41958e-07
-3.28752e-07
1.47304e-07
-3.78707e-07
1.49879e-07
-4.28543e-07
1.49805e-07
-4.77464e-07
1.47242e-07
-5.24724e-07
1.4237e-07
-5.69636e-07
1.35382e-07
-6.11575e-07
1.26477e-07
-6.49979e-07
1.15856e-07
-6.84351e-07
1.0372e-07
-7.14257e-07
9.02683e-08
-7.39328e-07
7.56948e-08
-7.59257e-07
6.01919e-08
-7.73801e-07
4.39492e-08
-7.82778e-07
2.7155e-08
-7.8607e-07
9.99822e-09
-7.83621e-07
-7.33026e-09
-7.7544e-07
-2.4636e-08
-7.61604e-07
-4.17195e-08
-7.42256e-07
-5.83748e-08
-7.17608e-07
-7.43889e-08
-6.87945e-07
-8.95416e-08
-6.53628e-07
-1.03606e-07
-6.1509e-07
-1.16348e-07
-5.72842e-07
-1.27533e-07
-5.27468e-07
-1.36922e-07
-4.79628e-07
-1.44282e-07
-4.3005e-07
-1.49389e-07
-3.79525e-07
-1.52031e-07
-3.28901e-07
-1.52024e-07
-2.79065e-07
-1.49213e-07
-2.3093e-07
-1.43493e-07
-1.85414e-07
-1.34821e-07
-1.43411e-07
-1.23238e-07
-1.05759e-07
-1.089e-07
-7.31993e-08
-9.21162e-08
-4.63275e-08
-7.34092e-08
-2.5546e-08
-5.35938e-08
-1.10146e-08
-3.38746e-08
-2.62021e-09
-1.59774e-08
-2.51213e-09
-3.95826e-09
6.8489e-09
-1.56278e-08
2.85529e-08
-3.48441e-08
5.4257e-08
-6.13306e-08
8.12469e-08
-9.46417e-08
1.07664e-07
-1.34162e-07
1.32186e-07
-1.79134e-07
1.53914e-07
-2.28688e-07
1.7228e-07
-2.81882e-07
1.8696e-07
-3.37736e-07
1.97812e-07
-3.95259e-07
2.04827e-07
-4.53473e-07
2.08093e-07
-5.11434e-07
2.07766e-07
-5.68244e-07
2.04052e-07
-6.23061e-07
1.97188e-07
-6.75108e-07
1.87429e-07
-7.23675e-07
1.75044e-07
-7.68125e-07
1.60306e-07
-8.07892e-07
1.43487e-07
-8.42481e-07
1.24858e-07
-8.71472e-07
1.04686e-07
-8.94515e-07
8.32345e-08
-9.11331e-07
6.07653e-08
-9.21713e-07
3.75377e-08
-9.25527e-07
1.38123e-08
-9.2271e-07
-1.01479e-08
-9.13271e-07
-3.40748e-08
-8.97297e-07
-5.76934e-08
-8.74951e-07
-8.07206e-08
-8.46477e-07
-1.02864e-07
-8.12198e-07
-1.23821e-07
-7.72523e-07
-1.4328e-07
-7.27946e-07
-1.60925e-07
-6.79046e-07
-1.76433e-07
-6.26488e-07
-1.89481e-07
-5.71017e-07
-1.99753e-07
-5.13457e-07
-2.06948e-07
-4.54702e-07
-2.10786e-07
-3.95707e-07
-2.11019e-07
-3.3747e-07
-2.0745e-07
-2.81017e-07
-1.99946e-07
-2.27381e-07
-1.88458e-07
-1.77567e-07
-1.73052e-07
-1.32529e-07
-1.53938e-07
-9.31249e-08
-1.3152e-07
-6.00833e-08
-1.06451e-07
-3.39664e-08
-7.97107e-08
-1.51462e-08
-5.26948e-08
-3.80598e-09
-2.73177e-08
-6.31812e-09
-5.07785e-09
1.19267e-08
-1.96229e-08
4.30979e-08
-4.30752e-08
7.77092e-08
-7.48473e-08
1.13019e-07
-1.14253e-07
1.47069e-07
-1.6049e-07
1.78422e-07
-2.12646e-07
2.06071e-07
-2.69726e-07
2.29359e-07
-3.30671e-07
2.47906e-07
-3.94396e-07
2.61537e-07
-4.59809e-07
2.7024e-07
-5.25837e-07
2.7412e-07
-5.91441e-07
2.73371e-07
-6.55638e-07
2.68249e-07
-7.17502e-07
2.59052e-07
-7.76179e-07
2.46106e-07
-8.30889e-07
2.29754e-07
-8.80929e-07
2.10346e-07
-9.25675e-07
1.88233e-07
-9.64583e-07
1.63765e-07
-9.97188e-07
1.3729e-07
-1.0231e-06
1.0915e-07
-1.04202e-06
7.96842e-08
-1.05372e-06
4.92311e-08
-1.05803e-06
1.81299e-08
-1.0549e-06
-1.32764e-08
-1.04434e-06
-4.46388e-08
-1.02643e-06
-7.55992e-08
-1.00137e-06
-1.05789e-07
-9.694e-07
-1.34829e-07
-9.30896e-07
-1.62326e-07
-8.863e-07
-1.87876e-07
-8.36156e-07
-2.11069e-07
-7.81102e-07
-2.31487e-07
-7.21868e-07
-2.48715e-07
-6.59273e-07
-2.62348e-07
-5.94225e-07
-2.71996e-07
-5.27707e-07
-2.77304e-07
-4.60766e-07
-2.7796e-07
-3.94503e-07
-2.73713e-07
-3.30049e-07
-2.644e-07
-2.68543e-07
-2.49964e-07
-2.11107e-07
-2.30488e-07
-1.58812e-07
-2.06233e-07
-1.1265e-07
-1.77682e-07
-7.35015e-08
-1.456e-07
-4.21125e-08
-1.111e-07
-1.90874e-08
-7.572e-08
-4.90655e-09
-4.14986e-08
-1.12247e-08
-6.11474e-09
1.80415e-08
-2.34046e-08
6.03878e-08
-5.09663e-08
1.05271e-07
-8.79165e-08
1.49969e-07
-1.33323e-07
1.92476e-07
-1.86183e-07
2.31282e-07
-2.45417e-07
2.65305e-07
-3.09888e-07
2.93829e-07
-3.78414e-07
3.16432e-07
-4.498e-07
3.32923e-07
-5.22854e-07
3.43294e-07
-5.96411e-07
3.47676e-07
-6.69347e-07
3.46307e-07
-7.40598e-07
3.395e-07
-8.09166e-07
3.2762e-07
-8.74129e-07
3.11069e-07
-9.34646e-07
2.90271e-07
-9.89959e-07
2.65659e-07
-1.0394e-06
2.37669e-07
-1.08237e-06
2.06738e-07
-1.11838e-06
1.73298e-07
-1.147e-06
1.37776e-07
-1.16791e-06
1.00595e-07
-1.18086e-06
6.21797e-08
-1.18568e-06
2.29526e-08
-1.1823e-06
-1.66576e-08
-1.17073e-06
-5.62146e-08
-1.15106e-06
-9.52713e-08
-1.12348e-06
-1.33368e-07
-1.08828e-06
-1.70029e-07
-1.04584e-06
-2.04765e-07
-9.96641e-07
-2.37073e-07
-9.41269e-07
-2.66441e-07
-8.80407e-07
-2.92348e-07
-8.14843e-07
-3.14279e-07
-7.45462e-07
-3.31729e-07
-6.73242e-07
-3.44216e-07
-5.99248e-07
-3.51299e-07
-5.24615e-07
-3.52592e-07
-4.50539e-07
-3.47789e-07
-3.78254e-07
-3.36686e-07
-3.09009e-07
-3.19209e-07
-2.44044e-07
-2.95453e-07
-1.84563e-07
-2.65714e-07
-1.31703e-07
-2.30542e-07
-8.65137e-08
-1.90789e-07
-4.99399e-08
-1.47674e-07
-2.2823e-08
-1.02837e-07
-5.92537e-09
-5.83962e-08
-1.71501e-08
-7.08467e-09
2.51262e-08
-2.70023e-08
8.03055e-08
-5.85546e-08
1.36823e-07
-1.00584e-07
1.91998e-07
-1.51915e-07
2.43808e-07
-2.11337e-07
2.90704e-07
-2.77593e-07
3.31561e-07
-3.49391e-07
3.65627e-07
-4.25419e-07
3.9246e-07
-5.04364e-07
4.11868e-07
-5.84932e-07
4.23861e-07
-6.65864e-07
4.28608e-07
-7.45955e-07
4.26398e-07
-8.24065e-07
4.1761e-07
-8.99129e-07
4.02684e-07
-9.70166e-07
3.82106e-07
-1.03628e-06
3.56385e-07
-1.09666e-06
3.26044e-07
-1.15061e-06
2.91612e-07
-1.19748e-06
2.53616e-07
-1.23676e-06
2.12577e-07
-1.268e-06
1.69014e-07
-1.29084e-06
1.23438e-07
-1.30503e-06
7.63629e-08
-1.31038e-06
2.83002e-08
-1.3068e-06
-2.02312e-08
-1.29431e-06
-6.87032e-08
-1.27301e-06
-1.16575e-07
-1.24309e-06
-1.63289e-07
-1.20485e-06
-2.08271e-07
-1.15868e-06
-2.50927e-07
-1.10511e-06
-2.90648e-07
-1.04474e-06
-3.26812e-07
-9.78296e-07
-3.58791e-07
-9.06618e-07
-3.85957e-07
-8.30649e-07
-4.07699e-07
-7.51431e-07
-4.23433e-07
-6.70106e-07
-4.32624e-07
-5.87895e-07
-4.34804e-07
-5.06087e-07
-4.29597e-07
-4.2602e-07
-4.16752e-07
-3.49061e-07
-3.96168e-07
-2.76578e-07
-3.67936e-07
-2.09917e-07
-3.32376e-07
-1.50375e-07
-2.90084e-07
-9.91844e-08
-2.4198e-07
-5.74964e-08
-1.89362e-07
-2.63872e-08
-1.33946e-07
-6.87953e-09
-7.79039e-08
-2.40296e-08
-8.007e-09
3.31332e-08
-3.04664e-08
1.02765e-07
-6.59235e-08
1.7228e-07
-1.12966e-07
2.3904e-07
-1.70183e-07
3.01026e-07
-2.36153e-07
3.56673e-07
-3.0943e-07
4.04838e-07
-3.88561e-07
4.44759e-07
-4.72092e-07
4.75991e-07
-5.58586e-07
4.98362e-07
-6.46639e-07
5.11915e-07
-7.349e-07
5.16869e-07
-8.22079e-07
5.13578e-07
-9.06965e-07
5.02495e-07
-9.88428e-07
4.84147e-07
-1.06543e-06
4.59109e-07
-1.13703e-06
4.27984e-07
-1.20238e-06
3.91394e-07
-1.26073e-06
3.49962e-07
-1.31143e-06
3.04311e-07
-1.35391e-06
2.5506e-07
-1.38771e-06
2.02819e-07
-1.41247e-06
1.48194e-07
-1.4279e-06
9.17892e-08
-1.43381e-06
3.42096e-08
-1.4301e-06
-2.39328e-08
-1.41679e-06
-8.20149e-08
-1.39397e-06
-1.39398e-07
-1.36183e-06
-1.95423e-07
-1.32069e-06
-2.49412e-07
-1.27096e-06
-3.00661e-07
-1.21316e-06
-3.48449e-07
-1.14793e-06
-3.92038e-07
-1.07604e-06
-4.30682e-07
-9.98363e-07
-4.63635e-07
-9.15892e-07
-4.90169e-07
-8.29737e-07
-5.09588e-07
-7.4111e-07
-5.21251e-07
-6.51318e-07
-5.24596e-07
-5.61747e-07
-5.19169e-07
-4.73845e-07
-5.04653e-07
-3.89104e-07
-4.80909e-07
-3.0903e-07
-4.4801e-07
-2.35124e-07
-4.06282e-07
-1.68858e-07
-3.5635e-07
-1.11656e-07
-2.99183e-07
-6.48802e-08
-2.36137e-07
-2.98373e-08
-1.68989e-07
-7.79035e-09
-9.99509e-08
-3.182e-08
-8.90188e-09
4.20351e-08
-3.38563e-08
1.27719e-07
-7.3179e-08
2.11603e-07
-1.25219e-07
2.9108e-07
-1.88337e-07
3.64144e-07
-2.60894e-07
4.2923e-07
-3.41255e-07
4.85199e-07
-4.27793e-07
5.31296e-07
-5.18902e-07
5.671e-07
-6.13013e-07
5.92473e-07
-7.08609e-07
6.07511e-07
-8.04239e-07
6.12499e-07
-8.9853e-07
6.07868e-07
-9.90196e-07
5.94161e-07
-1.07805e-06
5.71999e-07
-1.16099e-06
5.42056e-07
-1.23805e-06
5.0504e-07
-1.30833e-06
4.61674e-07
-1.37105e-06
4.12686e-07
-1.42554e-06
3.588e-07
-1.47122e-06
3.00732e-07
-1.50759e-06
2.39191e-07
-1.53427e-06
1.74878e-07
-1.55097e-06
1.08492e-07
-1.5575e-06
4.07328e-08
-1.55374e-06
-2.7693e-08
-1.53969e-06
-9.60645e-08
-1.51544e-06
-1.63643e-07
-1.4812e-06
-2.29665e-07
-1.43727e-06
-2.93344e-07
-1.38407e-06
-3.53862e-07
-1.32214e-06
-4.10381e-07
-1.25214e-06
-4.62039e-07
-1.17485e-06
-5.07964e-07
-1.09121e-06
-5.47282e-07
-1.00224e-06
-5.79139e-07
-9.09111e-07
-6.02713e-07
-8.13116e-07
-6.17247e-07
-7.15644e-07
-6.22068e-07
-6.18184e-07
-6.16629e-07
-5.22302e-07
-6.00535e-07
-4.29622e-07
-5.7359e-07
-3.41801e-07
-5.3583e-07
-2.6051e-07
-4.87573e-07
-1.87406e-07
-4.29454e-07
-1.24114e-07
-3.62474e-07
-7.22155e-08
-2.88036e-07
-3.32414e-08
-2.07963e-07
-8.68034e-09
-1.24512e-07
-4.05003e-08
-9.78887e-09
5.1824e-08
-3.72337e-08
1.55164e-07
-8.0437e-08
2.54806e-07
-1.37519e-07
3.48162e-07
-2.06612e-07
4.33237e-07
-2.85863e-07
5.08481e-07
-3.73434e-07
5.7277e-07
-4.67518e-07
6.2538e-07
-5.66348e-07
6.65931e-07
-6.68217e-07
6.94342e-07
-7.71486e-07
7.1078e-07
-8.74599e-07
7.15612e-07
-9.76096e-07
7.09365e-07
-1.07462e-06
6.92684e-07
-1.16892e-06
6.66296e-07
-1.25785e-06
6.3099e-07
-1.34039e-06
5.87582e-07
-1.41563e-06
5.36908e-07
-1.48274e-06
4.79804e-07
-1.54105e-06
4.17101e-07
-1.58993e-06
3.49617e-07
-1.6289e-06
2.78162e-07
-1.65756e-06
2.03534e-07
-1.67559e-06
1.26526e-07
-1.68279e-06
4.79359e-08
-1.67905e-06
-3.14349e-08
-1.66435e-06
-1.10767e-07
-1.63877e-06
-1.8922e-07
-1.60251e-06
-2.65924e-07
-1.55588e-06
-3.39981e-07
-1.49928e-06
-4.10456e-07
-1.43328e-06
-4.76386e-07
-1.35854e-06
-5.3678e-07
-1.27587e-06
-5.9063e-07
-1.18623e-06
-6.36926e-07
-1.09069e-06
-6.74673e-07
-9.90493e-07
-7.02913e-07
-8.86986e-07
-7.20753e-07
-7.81657e-07
-7.27398e-07
-6.761e-07
-7.22186e-07
-5.72007e-07
-7.04628e-07
-4.71147e-07
-6.7445e-07
-3.75341e-07
-6.31636e-07
-2.86441e-07
-5.76472e-07
-2.06304e-07
-5.09591e-07
-1.36769e-07
-4.3201e-07
-7.96391e-08
-3.45165e-07
-3.66712e-08
-2.50931e-07
-9.57183e-09
-1.51611e-07
-5.00721e-08
-1.06866e-08
6.25105e-08
-4.06601e-08
1.85138e-07
-8.78157e-08
3.01962e-07
-1.50047e-07
4.10394e-07
-2.25259e-07
5.08449e-07
-3.11374e-07
5.94596e-07
-4.06349e-07
6.67745e-07
-5.08185e-07
7.27216e-07
-6.14946e-07
7.72693e-07
-7.24776e-07
8.04172e-07
-8.35906e-07
8.21911e-07
-9.46675e-07
8.26381e-07
-1.05553e-06
8.18221e-07
-1.16104e-06
7.98193e-07
-1.26189e-06
7.6715e-07
-1.3569e-06
7.26e-07
-1.44501e-06
6.75685e-07
-1.52525e-06
6.17158e-07
-1.59682e-06
5.51372e-07
-1.65899e-06
4.79267e-07
-1.71114e-06
4.01769e-07
-1.75277e-06
3.19789e-07
-1.78346e-06
2.34223e-07
-1.80289e-06
1.45963e-07
-1.81085e-06
5.58973e-08
-1.80722e-06
-3.50737e-08
-1.79195e-06
-1.26034e-07
-1.76513e-06
-2.16039e-07
-1.72694e-06
-3.04116e-07
-1.67767e-06
-3.89249e-07
-1.61774e-06
-4.70384e-07
-1.5477e-06
-5.46428e-07
-1.46823e-06
-6.16253e-07
-1.38015e-06
-6.78709e-07
-1.28444e-06
-7.32636e-07
-1.18223e-06
-7.76885e-07
-1.07479e-06
-8.10345e-07
-9.63574e-07
-8.31973e-07
-8.50142e-07
-8.4083e-07
-7.36208e-07
-8.3612e-07
-6.23598e-07
-8.17238e-07
-5.14238e-07
-7.83811e-07
-4.10125e-07
-7.35748e-07
-3.13309e-07
-6.73288e-07
-2.25859e-07
-5.97041e-07
-1.49842e-07
-5.08027e-07
-8.72926e-08
-4.07714e-07
-4.01995e-08
-2.98024e-07
-1.04865e-08
-1.81324e-07
-6.05586e-08
-1.16124e-08
7.41229e-08
-4.41946e-08
2.1772e-07
-9.54312e-08
3.53199e-07
-1.62986e-07
4.77949e-07
-2.44527e-07
5.8999e-07
-3.37748e-07
6.87817e-07
-4.40385e-07
7.70382e-07
-5.50242e-07
8.37072e-07
-6.65202e-07
8.87653e-07
-7.83249e-07
9.22219e-07
-9.02483e-07
9.41144e-07
-1.02113e-06
9.45023e-07
-1.13753e-06
9.34627e-07
-1.2502e-06
9.10856e-07
-1.35775e-06
8.74701e-07
-1.45895e-06
8.27207e-07
-1.55272e-06
7.69449e-07
-1.63807e-06
7.0251e-07
-1.71416e-06
6.27465e-07
-1.78027e-06
5.45369e-07
-1.83575e-06
4.57257e-07
-1.88011e-06
3.64144e-07
-1.91291e-06
2.67024e-07
-1.93383e-06
1.66884e-07
-1.94264e-06
6.47062e-08
-1.9392e-06
-3.8515e-08
-1.92346e-06
-1.41767e-07
-1.8955e-06
-2.44006e-07
-1.85546e-06
-3.4415e-07
-1.80364e-06
-4.4107e-07
-1.74044e-06
-5.33588e-07
-1.66639e-06
-6.20476e-07
-1.58218e-06
-7.00464e-07
-1.48864e-06
-7.72246e-07
-1.38677e-06
-8.34503e-07
-1.27774e-06
-8.85916e-07
-1.16288e-06
-9.25205e-07
-1.0437e-06
-9.51155e-07
-9.21871e-07
-9.62661e-07
-7.99219e-07
-9.58771e-07
-6.77718e-07
-9.38739e-07
-5.59461e-07
-9.02068e-07
-4.46639e-07
-8.48571e-07
-3.41512e-07
-7.78415e-07
-2.46382e-07
-6.92171e-07
-1.63556e-07
-5.90853e-07
-9.53183e-08
-4.75952e-07
-4.38978e-08
-3.49445e-07
-1.14452e-08
-2.13777e-07
-7.20038e-08
-1.25827e-08
8.67057e-08
-4.78938e-08
2.53031e-07
-1.03396e-07
4.08701e-07
-1.76511e-07
5.51064e-07
-2.64661e-07
6.7814e-07
-3.65294e-07
7.8845e-07
-4.75919e-07
8.81007e-07
-5.94123e-07
9.55277e-07
-7.17602e-07
1.01113e-06
-8.44172e-07
1.04879e-06
-9.71789e-07
1.06876e-06
-1.09856e-06
1.07179e-06
-1.22274e-06
1.05881e-06
-1.34274e-06
1.03086e-06
-1.45715e-06
9.89109e-07
-1.56469e-06
9.34743e-07
-1.66423e-06
8.68986e-07
-1.75477e-06
7.93059e-07
-1.83548e-06
7.08165e-07
-1.90559e-06
6.15482e-07
-1.96449e-06
5.16156e-07
-2.01165e-06
4.11303e-07
-2.04664e-06
3.02019e-07
-2.06914e-06
1.89379e-07
-2.07889e-06
7.44604e-08
-2.07575e-06
-4.16546e-08
-2.05966e-06
-1.5786e-07
-2.03065e-06
-2.73013e-07
-1.98888e-06
-3.85927e-07
-1.93459e-06
-4.95357e-07
-1.86818e-06
-6.00001e-07
-1.79016e-06
-6.98492e-07
-1.70122e-06
-7.89409e-07
-1.60218e-06
-8.71284e-07
-1.49406e-06
-9.42621e-07
-1.37806e-06
-1.00192e-06
-1.25556e-06
-1.04771e-06
-1.12814e-06
-1.07857e-06
-9.97576e-07
-1.09323e-06
-8.6582e-07
-1.09053e-06
-7.34995e-07
-1.06956e-06
-6.07377e-07
-1.02969e-06
-4.85365e-07
-9.70583e-07
-3.7145e-07
-8.9233e-07
-2.68184e-07
-7.95437e-07
-1.78136e-07
-6.80901e-07
-1.03857e-07
-5.50232e-07
-4.78364e-08
-4.05465e-07
-1.24681e-08
-2.49145e-07
-8.44719e-08
-1.36129e-08
1.00319e-07
-5.18116e-08
2.9123e-07
-1.11818e-07
4.68707e-07
-1.90794e-07
6.3004e-07
-2.85896e-07
7.73241e-07
-3.94313e-07
8.96868e-07
-5.13307e-07
1e-06
-6.4024e-07
1.08221e-06
-7.72601e-07
1.14349e-06
-9.08033e-07
1.18422e-06
-1.04434e-06
1.20507e-06
-1.1795e-06
1.20696e-06
-1.31169e-06
1.19099e-06
-1.43923e-06
1.15841e-06
-1.56066e-06
1.11053e-06
-1.67465e-06
1.04874e-06
-1.78007e-06
9.744e-07
-1.8759e-06
8.88889e-07
-1.96128e-06
7.93546e-07
-2.03547e-06
6.89674e-07
-2.09784e-06
5.78531e-07
-2.14788e-06
4.6134e-07
-2.18515e-06
3.39287e-07
-2.20931e-06
2.13542e-07
-2.22011e-06
8.52636e-08
-2.21739e-06
-4.4378e-08
-2.20106e-06
-1.74189e-07
-2.17114e-06
-3.02933e-07
-2.12775e-06
-4.29321e-07
-2.07111e-06
-5.51996e-07
-2.00158e-06
-6.69527e-07
-1.91966e-06
-7.80409e-07
-1.82601e-06
-8.83061e-07
-1.72145e-06
-9.75842e-07
-1.60701e-06
-1.05707e-06
-1.48389e-06
-1.12504e-06
-1.35354e-06
-1.17806e-06
-1.2176e-06
-1.21451e-06
-1.07794e-06
-1.23288e-06
-9.36658e-07
-1.23181e-06
-7.9603e-07
-1.21019e-06
-6.58528e-07
-1.16719e-06
-5.26775e-07
-1.10234e-06
-4.03515e-07
-1.01559e-06
-2.91571e-07
-9.07381e-07
-1.93801e-07
-7.78671e-07
-1.13046e-07
-6.30986e-07
-5.20839e-08
-4.66427e-07
-1.35745e-08
-2.87655e-07
-9.80464e-08
-1.47175e-08
1.15036e-07
-5.59989e-08
3.32511e-07
-1.20799e-07
5.33507e-07
-2.05995e-07
7.15236e-07
-3.08455e-07
8.75701e-07
-4.25087e-07
1.0135e-06
-5.52886e-07
1.1278e-06
-6.8897e-07
1.21829e-06
-8.30613e-07
1.28514e-06
-9.75268e-07
1.32888e-06
-1.12058e-06
1.35038e-06
-1.26442e-06
1.35079e-06
-1.40483e-06
1.3314e-06
-1.54009e-06
1.29367e-06
-1.66867e-06
1.23912e-06
-1.78923e-06
1.16929e-06
-1.90059e-06
1.08576e-06
-2.00176e-06
9.90056e-07
-2.09187e-06
8.83652e-07
-2.17018e-06
7.67985e-07
-2.23608e-06
6.44429e-07
-2.28904e-06
5.14308e-07
-2.32866e-06
3.789e-07
-2.35457e-06
2.39458e-07
-2.36653e-06
9.72218e-08
-2.36435e-06
-4.65608e-08
-2.34792e-06
-1.90614e-07
-2.31724e-06
-3.33616e-07
-2.27238e-06
-4.74179e-07
-2.21354e-06
-6.10837e-07
-2.14103e-06
-7.42034e-07
-2.05532e-06
-8.66119e-07
-1.95703e-06
-9.8135e-07
-1.84697e-06
-1.0859e-06
-1.72615e-06
-1.17789e-06
-1.59581e-06
-1.25538e-06
-1.45741e-06
-1.31646e-06
-1.31268e-06
-1.35925e-06
-1.16358e-06
-1.38198e-06
-1.01233e-06
-1.38306e-06
-8.61384e-07
-1.36113e-06
-7.13427e-07
-1.31515e-06
-5.71321e-07
-1.24444e-06
-4.38085e-07
-1.14883e-06
-3.16841e-07
-1.02862e-06
-2.10765e-07
-8.84747e-07
-1.23022e-07
-7.18729e-07
-5.67072e-08
-5.32742e-07
-1.47835e-08
-3.29578e-07
-1.1283e-07
-1.59104e-08
1.30947e-07
-6.05043e-08
3.77105e-07
-1.30436e-07
6.03439e-07
-2.22268e-07
8.07067e-07
-3.32548e-07
9.85982e-07
-4.57878e-07
1.13883e-06
-5.94962e-07
1.26488e-06
-7.40655e-07
1.36399e-06
-8.91998e-07
1.43648e-06
-1.04625e-06
1.48312e-06
-1.20089e-06
1.50503e-06
-1.35364e-06
1.50355e-06
-1.50248e-06
1.48024e-06
-1.64561e-06
1.43679e-06
-1.78144e-06
1.37495e-06
-1.90861e-06
1.29647e-06
-2.02596e-06
1.20311e-06
-2.13247e-06
1.09657e-06
-2.2273e-06
9.78482e-07
-2.30973e-06
8.50415e-07
-2.37916e-06
7.13858e-07
-2.43508e-06
5.70233e-07
-2.47709e-06
4.20905e-07
-2.50483e-06
2.67204e-07
-2.51805e-06
1.10439e-07
-2.51654e-06
-4.80702e-08
-2.50018e-06
-2.06978e-07
-2.46891e-06
-3.64883e-07
-2.42278e-06
-5.20309e-07
-2.36194e-06
-6.71685e-07
-2.28664e-06
-8.17332e-07
-2.1973e-06
-9.55455e-07
-2.09451e-06
-1.08414e-06
-1.97903e-06
-1.20138e-06
-1.85187e-06
-1.30505e-06
-1.71424e-06
-1.393e-06
-1.56766e-06
-1.46304e-06
-1.41389e-06
-1.51302e-06
-1.255e-06
-1.54087e-06
-1.09335e-06
-1.54472e-06
-9.31563e-07
-1.52292e-06
-7.72547e-07
-1.47416e-06
-6.19427e-07
-1.39756e-06
-4.75521e-07
-1.29273e-06
-3.44282e-07
-1.15986e-06
-2.29237e-07
-9.99792e-07
-1.33915e-07
-8.14051e-07
-6.17721e-08
-6.04885e-07
-1.61137e-08
-3.75237e-07
-1.28944e-07
-1.72047e-08
1.48151e-07
-6.53743e-08
4.25274e-07
-1.40822e-07
6.78888e-07
-2.39755e-07
9.06e-07
-3.58369e-07
1.1046e-06
-4.92924e-07
1.27338e-06
-6.39806e-07
1.41177e-06
-7.95586e-07
1.51977e-06
-9.57056e-07
1.59795e-06
-1.12126e-06
1.64733e-06
-1.28551e-06
1.66928e-06
-1.44741e-06
1.66544e-06
-1.60483e-06
1.63766e-06
-1.75589e-06
1.58786e-06
-1.89901e-06
1.51806e-06
-2.03279e-06
1.43025e-06
-2.15607e-06
1.32639e-06
-2.26786e-06
1.20836e-06
-2.36735e-06
1.07797e-06
-2.45383e-06
9.36902e-07
-2.52675e-06
7.86773e-07
-2.58561e-06
6.29096e-07
-2.63002e-06
4.65318e-07
-2.65965e-06
2.96833e-07
-2.67423e-06
1.25013e-07
-2.67353e-06
-4.87667e-08
-2.65741e-06
-2.231e-07
-2.62577e-06
-3.96519e-07
-2.57861e-06
-5.67469e-07
-2.51602e-06
-7.34281e-07
-2.43819e-06
-8.95159e-07
-2.34548e-06
-1.04817e-06
-2.2384e-06
-1.19122e-06
-2.11768e-06
-1.3221e-06
-1.98427e-06
-1.43846e-06
-1.83939e-06
-1.53788e-06
-1.68455e-06
-1.61788e-06
-1.52157e-06
-1.67599e-06
-1.35261e-06
-1.70983e-06
-1.18015e-06
-1.71718e-06
-1.00701e-06
-1.69606e-06
-8.36314e-07
-1.64485e-06
-6.71484e-07
-1.56239e-06
-5.16162e-07
-1.44805e-06
-3.74167e-07
-1.30186e-06
-2.49418e-07
-1.12454e-06
-1.45855e-07
-9.17614e-07
-6.73429e-08
-6.83397e-07
-1.75835e-08
-4.24996e-07
-1.46527e-07
-1.86134e-08
1.66765e-07
-7.06534e-08
4.77314e-07
-1.52045e-07
7.60279e-07
-2.58593e-07
1.01255e-06
-3.86097e-07
1.2321e-06
-5.30439e-07
1.41773e-06
-6.87656e-07
1.56898e-06
-8.54007e-07
1.68612e-06
-1.02601e-06
1.76996e-06
-1.2005e-06
1.82182e-06
-1.37461e-06
1.84339e-06
-1.5458e-06
1.83664e-06
-1.71186e-06
1.80371e-06
-1.87087e-06
1.74687e-06
-2.0212e-06
1.66839e-06
-2.16148e-06
1.57052e-06
-2.29055e-06
1.45546e-06
-2.40746e-06
1.32528e-06
-2.51144e-06
1.18195e-06
-2.60184e-06
1.0273e-06
-2.67812e-06
8.63056e-07
-2.73985e-06
6.9082e-07
-2.78664e-06
5.12108e-07
-2.81818e-06
3.28371e-07
-2.83419e-06
1.41027e-07
-2.83445e-06
-4.85072e-08
-2.81877e-06
-2.3878e-07
-2.78702e-06
-4.28272e-07
-2.73912e-06
-6.15361e-07
-2.67511e-06
-7.98296e-07
-2.5951e-06
-9.7517e-07
-2.49936e-06
-1.14391e-06
-2.38833e-06
-1.30225e-06
-2.26265e-06
-1.44777e-06
-2.12323e-06
-1.57789e-06
-1.97124e-06
-1.68987e-06
-1.80818e-06
-1.78094e-06
-1.63591e-06
-1.84826e-06
-1.45666e-06
-1.88908e-06
-1.27304e-06
-1.9008e-06
-1.08806e-06
-1.88104e-06
-9.05087e-07
-1.82782e-06
-7.2784e-07
-1.73964e-06
-5.6032e-07
-1.61557e-06
-4.06754e-07
-1.45543e-06
-2.71502e-07
-1.25979e-06
-1.58967e-07
-1.03015e-06
-7.34831e-08
-7.68881e-07
-1.92112e-08
-4.79268e-07
-1.65738e-07
-2.01491e-08
1.86914e-07
-7.63853e-08
5.3355e-07
-1.64188e-07
8.48082e-07
-2.78907e-07
1.12727e-06
-4.15896e-07
1.36909e-06
-5.70611e-07
1.57244e-06
-7.38706e-07
1.73708e-06
-9.16098e-07
1.86351e-06
-1.09902e-06
1.95288e-06
-1.28407e-06
2.00686e-06
-1.4682e-06
2.02752e-06
-1.64874e-06
2.01718e-06
-1.82341e-06
1.97838e-06
-1.99024e-06
1.9137e-06
-2.1476e-06
1.82575e-06
-2.29412e-06
1.71705e-06
-2.42871e-06
1.59005e-06
-2.55047e-06
1.44703e-06
-2.65867e-06
1.29014e-06
-2.75272e-06
1.12136e-06
-2.83216e-06
9.42496e-07
-2.89659e-06
7.55247e-07
-2.94567e-06
5.61184e-07
-2.9791e-06
3.618e-07
-2.99661e-06
1.58541e-07
-2.99797e-06
-4.71493e-08
-2.98295e-06
-2.53795e-07
-2.95138e-06
-4.59843e-07
-2.90312e-06
-6.63623e-07
-2.8381e-06
-8.63314e-07
-2.75636e-06
-1.05691e-06
-2.65806e-06
-1.24221e-06
-2.54354e-06
-1.41677e-06
-2.41334e-06
-1.57797e-06
-2.26828e-06
-1.72295e-06
-2.10947e-06
-1.84868e-06
-1.93838e-06
-1.95203e-06
-1.75688e-06
-2.02977e-06
-1.56724e-06
-2.07872e-06
-1.37221e-06
-2.09583e-06
-1.17497e-06
-2.07828e-06
-9.79153e-07
-2.02365e-06
-7.88789e-07
-1.93e-06
-6.08275e-07
-1.79609e-06
-4.42283e-07
-1.62142e-06
-2.95673e-07
-1.4064e-06
-1.73372e-07
-1.15245e-06
-8.02557e-08
-8.61998e-07
-2.10151e-08
-5.38509e-07
-1.86753e-07
-2.18246e-08
2.08738e-07
-8.26127e-08
5.94338e-07
-1.77334e-07
9.42803e-07
-3.00818e-07
1.25075e-06
-4.47912e-07
1.51618e-06
-6.13601e-07
1.73813e-06
-7.93107e-07
1.91659e-06
-9.81977e-07
2.05238e-06
-1.17614e-06
2.14704e-06
-1.37193e-06
2.20265e-06
-1.56613e-06
2.22172e-06
-1.75597e-06
2.20702e-06
-1.93906e-06
2.16147e-06
-2.11343e-06
2.08807e-06
-2.27746e-06
1.98977e-06
-2.42983e-06
1.86942e-06
-2.56951e-06
1.72972e-06
-2.69567e-06
1.57319e-06
-2.80766e-06
1.40214e-06
-2.905e-06
1.21869e-06
-2.98727e-06
1.02477e-06
-3.05414e-06
8.22122e-07
-3.10534e-06
6.12377e-07
-3.14058e-06
3.97047e-07
-3.15963e-06
1.77587e-07
-3.16222e-06
-4.4557e-08
-3.14811e-06
-2.67905e-07
-3.11706e-06
-4.90893e-07
-3.06886e-06
-7.11822e-07
-3.00335e-06
-9.28823e-07
-2.92046e-06
-1.13981e-06
-2.82021e-06
-1.34245e-06
-2.70282e-06
-1.53416e-06
-2.56871e-06
-1.71208e-06
-2.41858e-06
-1.87308e-06
-2.25343e-06
-2.01383e-06
-2.07469e-06
-2.13077e-06
-1.88418e-06
-2.22028e-06
-1.68423e-06
-2.27867e-06
-1.47767e-06
-2.30238e-06
-1.26787e-06
-2.28808e-06
-1.05871e-06
-2.23281e-06
-8.54568e-07
-2.13414e-06
-6.60266e-07
-1.99039e-06
-4.80974e-07
-1.80071e-06
-3.22105e-07
-1.56527e-06
-1.8919e-07
-1.28537e-06
-8.7723e-08
-9.63465e-07
-2.30139e-08
-6.03218e-07
-2.09767e-07
-2.3653e-08
2.32391e-07
-8.93791e-08
6.60065e-07
-1.91562e-07
1.04499e-06
-3.24437e-07
1.38363e-06
-4.82279e-07
1.67402e-06
-6.59538e-07
1.91539e-06
-8.50962e-07
2.10801e-06
-1.05169e-06
2.2531e-06
-1.25731e-06
2.35266e-06
-1.46392e-06
2.40926e-06
-1.66811e-06
2.42592e-06
-1.86699e-06
2.4059e-06
-2.05815e-06
2.35262e-06
-2.23959e-06
2.26952e-06
-2.40974e-06
2.15992e-06
-2.56735e-06
2.02704e-06
-2.71148e-06
1.87386e-06
-2.84141e-06
1.70312e-06
-2.95661e-06
1.51734e-06
-3.05668e-06
1.31876e-06
-3.14131e-06
1.1094e-06
-3.21026e-06
8.91074e-07
-3.26331e-06
6.65425e-07
-3.30023e-06
4.3397e-07
-3.3208e-06
1.98152e-07
-3.32475e-06
-4.06073e-08
-3.3118e-06
-2.80851e-07
-3.28167e-06
-5.2103e-07
-3.23404e-06
-7.59446e-07
-3.16866e-06
-9.94202e-07
-3.08532e-06
-1.22315e-06
-2.98391e-06
-1.44387e-06
-2.86447e-06
-1.6536e-06
-2.72727e-06
-1.84928e-06
-2.57285e-06
-2.02751e-06
-2.40209e-06
-2.18459e-06
-2.21629e-06
-2.31657e-06
-2.01724e-06
-2.41933e-06
-1.80725e-06
-2.48866e-06
-1.58923e-06
-2.5204e-06
-1.36671e-06
-2.5106e-06
-1.14383e-06
-2.45568e-06
-9.25336e-07
-2.35264e-06
-7.16491e-07
-2.19923e-06
-5.2302e-07
-1.99418e-06
-3.50964e-07
-1.73733e-06
-2.06536e-07
-1.42979e-06
-9.59478e-08
-1.07405e-06
-2.52266e-08
-6.73939e-07
-2.34994e-07
-2.56481e-08
2.5804e-07
-9.67295e-08
7.31146e-07
-2.06953e-07
1.15521e-06
-3.49876e-07
1.52655e-06
-5.19118e-07
1.84327e-06
-7.08527e-07
2.1048e-06
-9.1232e-07
2.3118e-06
-1.12519e-06
2.46597e-06
-1.34238e-06
2.56985e-06
-1.55971e-06
2.6266e-06
-1.77362e-06
2.63982e-06
-1.9811e-06
2.61338e-06
-2.17972e-06
2.55124e-06
-2.36751e-06
2.45731e-06
-2.54298e-06
2.33539e-06
-2.70499e-06
2.18905e-06
-2.85271e-06
2.02157e-06
-2.98556e-06
1.83597e-06
-3.10315e-06
1.63493e-06
-3.20522e-06
1.42083e-06
-3.29159e-06
1.19576e-06
-3.3621e-06