/*--------------------------------*- C++ -*----------------------------------*\
  =========                 |
  \\      /  F ield         | OpenFOAM: The Open Source CFD Toolbox
   \\    /   O peration     | Website:  https://openfoam.org
    \\  /    A nd           | Version:  7
     \\/     M anipulation  |
\*---------------------------------------------------------------------------*/
FoamFile
{
    version     2.0;
    format      ascii;
    class       surfaceScalarField;
    location    "0.0758";
    object      phi;
}
// * * * * * * * * * * * * * * * * * * * * * * * * * * * * * * * * * * * * * //

dimensions      [0 3 -1 0 0 0 0];

internalField   nonuniform List<scalar> 
4900
(
-5.55535e-06
5.55533e-06
-1.01609e-05
4.60558e-06
-1.29489e-05
2.78793e-06
-1.46695e-05
1.72067e-06
-1.57727e-05
1.10312e-06
-1.65122e-05
7.39594e-07
-1.70337e-05
5.21443e-07
-1.74189e-05
3.85196e-07
-1.77144e-05
2.95542e-07
-1.79479e-05
2.33445e-07
-1.81363e-05
1.88474e-07
-1.8291e-05
1.54661e-07
-1.84194e-05
1.28419e-07
-1.85269e-05
1.07489e-07
-1.86173e-05
9.03801e-08
-1.86934e-05
7.60742e-08
-1.87572e-05
6.38521e-08
-1.88104e-05
5.31918e-08
-1.88541e-05
4.37056e-08
-1.88892e-05
3.50989e-08
-1.89164e-05
2.71428e-08
-1.8936e-05
1.9656e-08
-1.89485e-05
1.24906e-08
-1.8954e-05
5.52312e-09
-1.89527e-05
-1.35475e-09
-1.89444e-05
-8.23852e-09
-1.89292e-05
-1.52223e-08
-1.89068e-05
-2.23988e-08
-1.8877e-05
-2.98675e-08
-1.88392e-05
-3.77403e-08
-1.87931e-05
-4.61496e-08
-1.87378e-05
-5.52585e-08
-1.86725e-05
-6.52741e-08
-1.85961e-05
-7.64674e-08
-1.85069e-05
-8.92012e-08
-1.84029e-05
-1.03972e-07
-1.82814e-05
-1.21476e-07
-1.81387e-05
-1.42715e-07
-1.79695e-05
-1.69175e-07
-1.77664e-05
-2.0314e-07
-1.75181e-05
-2.4826e-07
-1.72075e-05
-3.10629e-07
-1.68067e-05
-4.00832e-07
-1.62687e-05
-5.3792e-07
-1.55124e-05
-7.56385e-07
-1.43964e-05
-1.11593e-06
-1.26814e-05
-1.71498e-06
-9.94583e-06
-2.73562e-06
-5.45243e-06
-4.4934e-06
-5.45243e-06
-1.18961e-08
5.56723e-06
-2.13087e-06
6.72455e-06
-4.85885e-06
5.51592e-06
-7.27747e-06
4.13928e-06
-9.21759e-06
3.04325e-06
-1.07319e-05
2.2539e-06
-1.19136e-05
1.70316e-06
-1.28457e-05
1.31726e-06
-1.35914e-05
1.04128e-06
-1.41967e-05
8.38748e-07
-1.46944e-05
6.86119e-07
-1.51078e-05
5.68117e-07
-1.54541e-05
4.74672e-07
-1.57456e-05
3.98995e-07
-1.59916e-05
3.36394e-07
-1.61991e-05
2.83544e-07
-1.63733e-05
2.3804e-07
-1.65182e-05
1.981e-07
-1.66368e-05
1.62381e-07
-1.67316e-05
1.29851e-07
-1.68041e-05
9.96975e-08
-1.68558e-05
7.12736e-08
-1.68873e-05
4.40473e-08
-1.68994e-05
1.75706e-08
-1.68922e-05
-8.54631e-09
-1.68658e-05
-3.46586e-08
-1.68199e-05
-6.11037e-08
-1.67541e-05
-8.82209e-08
-1.66675e-05
-1.16371e-07
-1.65593e-05
-1.45956e-07
-1.6428e-05
-1.77451e-07
-1.62719e-05
-2.11431e-07
-1.60885e-05
-2.48621e-07
-1.5875e-05
-2.89957e-07
-1.56276e-05
-3.3667e-07
-1.53411e-05
-3.90419e-07
-1.50091e-05
-4.53473e-07
-1.46228e-05
-5.28999e-07
-1.41705e-05
-6.21507e-07
-1.36361e-05
-7.37553e-07
-1.29975e-05
-8.86867e-07
-1.2224e-05
-1.08415e-06
-1.12729e-05
-1.35185e-06
-1.00866e-05
-1.72423e-06
-8.59114e-06
-2.25187e-06
-6.7064e-06
-3.00067e-06
-4.39274e-06
-4.02863e-06
-1.81829e-06
-5.31006e-06
1.2445e-07
-6.43615e-06
-5.32798e-06
1.0323e-06
4.53493e-06
5.46218e-07
7.21063e-06
-9.94172e-07
7.05631e-06
-2.8915e-06
6.03661e-06
-4.75198e-06
4.90372e-06
-6.41505e-06
3.91697e-06
-7.84123e-06
3.12934e-06
-9.04353e-06
2.51956e-06
-1.00522e-05
2.04998e-06
-1.08994e-05
1.68595e-06
-1.16135e-05
1.40016e-06
-1.22176e-05
1.17228e-06
-1.27305e-05
9.87503e-07
-1.31665e-05
8.35065e-07
-1.35372e-05
7.07093e-07
-1.38514e-05
5.97765e-07
-1.41161e-05
5.02724e-07
-1.43367e-05
4.18656e-07
-1.45173e-05
3.43009e-07
-1.46613e-05
2.73787e-07
-1.4771e-05
2.09402e-07
-1.48482e-05
1.48566e-07
-1.48944e-05
9.02169e-08
-1.49103e-05
3.34504e-08
-1.48963e-05
-2.25228e-08
-1.48526e-05
-7.84222e-08
-1.47787e-05
-1.34932e-07
-1.46742e-05
-1.92736e-07
-1.4538e-05
-2.52557e-07
-1.43688e-05
-3.15193e-07
-1.41647e-05
-3.81571e-07
-1.39233e-05
-4.52804e-07
-1.36417e-05
-5.30269e-07
-1.33159e-05
-6.15713e-07
-1.29412e-05
-7.11393e-07
-1.25113e-05
-8.20268e-07
-1.20185e-05
-9.46276e-07
-1.14528e-05
-1.09471e-06
-1.08016e-05
-1.27276e-06
-1.00488e-05
-1.49029e-06
-9.17487e-06
-1.76081e-06
-8.15629e-06
-2.10273e-06
-6.96761e-06
-2.54053e-06
-5.58712e-06
-3.10472e-06
-4.0115e-06
-3.82749e-06
-2.28748e-06
-4.7247e-06
-5.72196e-07
-5.74391e-06
7.67162e-07
-6.64942e-06
1.08792e-06
-6.75691e-06
-4.24005e-06
9.05935e-07
3.629e-06
1.22688e-06
6.88969e-06
6.39522e-07
7.64367e-06
-5.30258e-07
7.20639e-06
-1.95352e-06
6.32699e-06
-3.41196e-06
5.37541e-06
-4.78852e-06
4.5059e-06
-6.03336e-06
3.76439e-06
-7.13383e-06
3.15045e-06
-8.09522e-06
2.64734e-06
-8.93004e-06
2.23498e-06
-9.65265e-06
1.89489e-06
-1.02768e-05
1.61165e-06
-1.08146e-05
1.37291e-06
-1.12765e-05
1.16898e-06
-1.16711e-05
9.92289e-07
-1.20052e-05
8.36909e-07
-1.22848e-05
6.98186e-07
-1.25142e-05
5.72431e-07
-1.26971e-05
4.56692e-07
-1.28363e-05
3.48576e-07
-1.29338e-05
2.46117e-07
-1.29913e-05
1.47671e-07
-1.30097e-05
5.18283e-08
-1.29895e-05
-4.26503e-08
-1.29311e-05
-1.36894e-07
-1.2834e-05
-2.31975e-07
-1.26978e-05
-3.28959e-07
-1.25214e-05
-4.28959e-07
-1.23034e-05
-5.3319e-07
-1.20419e-05
-6.43038e-07
-1.17346e-05
-7.60139e-07
-1.13784e-05
-8.8648e-07
-1.09696e-05
-1.02452e-06
-1.05036e-05
-1.17736e-06
-9.97493e-06
-1.34893e-06
-9.37691e-06
-1.5443e-06
-8.70167e-06
-1.76995e-06
-7.94022e-06
-2.03421e-06
-7.08283e-06
-2.34768e-06
-6.12013e-06
-2.72351e-06
-5.04557e-06
-3.17729e-06
-3.86051e-06
-3.72559e-06
-2.58381e-06
-4.38143e-06
-1.26851e-06
-5.14279e-06
-2.69139e-08
-5.96629e-06
9.42862e-07
-6.71369e-06
1.34958e-06
-7.05614e-06
9.17147e-07
-6.32447e-06
-3.32291e-06
6.71135e-07
2.95786e-06
1.24113e-06
6.31969e-06
1.21792e-06
7.66688e-06
6.42278e-07
7.78203e-06
-2.98254e-07
7.26752e-06
-1.42126e-06
6.49841e-06
-2.59428e-06
5.67893e-06
-3.73593e-06
4.90604e-06
-4.80261e-06
4.21713e-06
-5.77493e-06
3.61966e-06
-6.64755e-06
3.1076e-06
-7.42258e-06
2.66992e-06
-8.10566e-06
2.29473e-06
-8.70371e-06
1.97096e-06
-9.22375e-06
1.68901e-06
-9.67227e-06
1.44082e-06
-1.00551e-05
1.2197e-06
-1.03771e-05
1.02018e-06
-1.06424e-05
8.3777e-07
-1.08545e-05
6.68765e-07
-1.1016e-05
5.10099e-07
-1.11291e-05
3.59204e-07
-1.11953e-05
2.13899e-07
-1.12158e-05
7.22987e-08
-1.11912e-05
-6.72669e-08
-1.11217e-05
-2.06322e-07
-1.10074e-05
-3.4631e-07
-1.08477e-05
-4.88652e-07
-1.06419e-05
-6.34814e-07
-1.03887e-05
-7.86372e-07
-1.00866e-05
-9.45086e-07
-9.73377e-06
-1.11299e-06
-9.32776e-06
-1.29249e-06
-8.86579e-06
-1.48649e-06
-8.34463e-06
-1.69852e-06
-7.76066e-06
-1.9329e-06
-7.11002e-06
-2.19494e-06
-6.38891e-06
-2.49106e-06
-5.59426e-06
-2.82887e-06
-4.72483e-06
-3.21711e-06
-3.78334e-06
-3.665e-06
-2.77991e-06
-4.18072e-06
-1.73763e-06
-4.76787e-06
-7.00875e-07
-5.41818e-06
2.53912e-07
-6.09757e-06
1.00875e-06
-6.72113e-06
1.40726e-06
-7.1122e-06
1.29713e-06
-6.94601e-06
6.66613e-07
-5.69395e-06
-2.65629e-06
4.79607e-07
2.47826e-06
1.07301e-06
5.72628e-06
1.33436e-06
7.40554e-06
1.16325e-06
7.95315e-06
6.27391e-07
7.80337e-06
-1.54524e-07
7.28032e-06
-1.0704e-06
6.59481e-06
-2.03478e-06
5.87042e-06
-2.99001e-06
5.17236e-06
-3.90073e-06
4.53039e-06
-4.74737e-06
3.95423e-06
-5.52061e-06
3.44316e-06
-6.21746e-06
2.99158e-06
-6.83854e-06
2.59204e-06
-7.38636e-06
2.23684e-06
-7.8643e-06
1.91875e-06
-8.27592e-06
1.63132e-06
-8.62469e-06
1.36895e-06
-8.91372e-06
1.1268e-06
-9.14575e-06
9.00789e-07
-9.32305e-06
6.87405e-07
-9.4475e-06
4.83653e-07
-9.52055e-06
2.86946e-07
-9.54327e-06
9.50159e-08
-9.51637e-06
-9.41586e-08
-9.44027e-06
-2.82427e-07
-9.31505e-06
-4.71532e-07
-9.14052e-06
-6.63177e-07
-8.91625e-06
-8.59089e-07
-8.64153e-06
-1.06109e-06
-8.31546e-06
-1.27116e-06
-7.93692e-06
-1.49153e-06
-7.50465e-06
-1.72476e-06
-7.0173e-06
-1.97384e-06
-6.47359e-06
-2.24223e-06
-5.8725e-06
-2.53399e-06
-5.21366e-06
-2.85378e-06
-4.49793e-06
-3.20678e-06
-3.72838e-06
-3.59842e-06
-2.91173e-06
-4.03376e-06
-2.06059e-06
-4.51614e-06
-1.19666e-06
-5.04465e-06
-3.54918e-07
-5.60962e-06
4.11597e-07
-6.18469e-06
1.02822e-06
-6.7142e-06
1.40119e-06
-7.0941e-06
1.43626e-06
-7.14727e-06
1.08929e-06
-6.59905e-06
4.69633e-07
-5.0743e-06
-2.18666e-06
3.47124e-07
2.13113e-06
8.87215e-07
5.18619e-06
1.26911e-06
7.02364e-06
1.34548e-06
7.87678e-06
1.10876e-06
8.0401e-06
6.19052e-07
7.77003e-06
-4.43047e-08
7.25816e-06
-8.07834e-07
6.63395e-06
-1.61333e-06
5.97786e-06
-2.41879e-06
5.33585e-06
-3.196e-06
4.73144e-06
-3.92723e-06
4.17439e-06
-4.60216e-06
3.66652e-06
-5.21549e-06
3.20536e-06
-5.76508e-06
2.78643e-06
-6.25077e-06
2.40444e-06
-6.6735e-06
2.05406e-06
-7.03478e-06
1.73023e-06
-7.33633e-06
1.42835e-06
-7.57987e-06
1.14433e-06
-7.767e-06
8.74532e-07
-7.89912e-06
6.15769e-07
-7.9774e-06
3.65227e-07
-8.00279e-06
1.20407e-07
-7.976e-06
-1.20942e-07
-7.89755e-06
-3.60881e-07
-7.76774e-06
-6.01345e-07
-7.58671e-06
-8.44201e-07
-7.35449e-06
-1.09131e-06
-7.07099e-06
-1.34459e-06
-6.73609e-06
-1.60605e-06
-6.34971e-06
-1.87791e-06
-5.9119e-06
-2.16258e-06
-5.423e-06
-2.46274e-06
-4.88387e-06
-2.78136e-06
-4.29622e-06
-3.12165e-06
-3.66309e-06
-3.48691e-06
-2.98958e-06
-3.88029e-06
-2.28383e-06
-4.30416e-06
-1.55846e-06
-4.75914e-06
-8.32303e-07
-5.24229e-06
-1.32697e-07
-5.74426e-06
5.02364e-07
-6.24468e-06
1.0229e-06
-6.70523e-06
1.36867e-06
-7.05997e-06
1.47779e-06
-7.20322e-06
1.30838e-06
-6.97786e-06
8.79807e-07
-6.17048e-06
3.35322e-07
-4.52981e-06
-1.85134e-06
2.59674e-07
1.87146e-06
7.28904e-07
4.71696e-06
1.14535e-06
6.60719e-06
1.36095e-06
7.66118e-06
1.32937e-06
8.07167e-06
1.06825e-06
8.03116e-06
6.25247e-07
7.70116e-06
5.56189e-08
7.20357e-06
-5.89807e-07
6.62328e-06
-1.2695e-06
6.01554e-06
-1.95196e-06
5.4139e-06
-2.61461e-06
4.83703e-06
-3.242e-06
4.2939e-06
-3.82407e-06
3.78744e-06
-4.35463e-06
3.31699e-06
-4.83016e-06
2.87997e-06
-5.24894e-06
2.47284e-06
-5.6104e-06
2.09168e-06
-5.91466e-06
1.73261e-06
-6.16226e-06
1.39193e-06
-6.35393e-06
1.0662e-06
-6.49046e-06
7.523e-07
-6.57264e-06
4.47407e-07
-6.6012e-06
1.48964e-07
-6.57679e-06
-1.45351e-07
-6.5e-06
-4.37673e-07
-6.37135e-06
-7.29994e-07
-6.19134e-06
-1.02421e-06
-5.96048e-06
-1.32217e-06
-5.67935e-06
-1.62571e-06
-5.3487e-06
-1.93671e-06
-4.96949e-06
-2.25711e-06
-4.54314e-06
-2.58893e-06
-4.07164e-06
-2.93424e-06
-3.55786e-06
-3.29514e-06
-3.00593e-06
-3.67357e-06
-2.42177e-06
-4.07108e-06
-1.81369e-06
-4.48837e-06
-1.19334e-06
-4.92451e-06
-5.76735e-07
-5.37574e-06
1.45948e-08
-5.83362e-06
5.52516e-07
-6.28218e-06
1.00186e-06
-6.69402e-06
1.32156e-06
-7.02494e-06
1.46915e-06
-7.20755e-06
1.41084e-06
-7.14491e-06
1.14021e-06
-6.70722e-06
7.06379e-07
-5.73665e-06
2.46857e-07
-4.07029e-06
-1.60448e-06
2.01322e-07
1.67014e-06
6.03519e-07
4.31476e-06
1.01337e-06
6.19734e-06
1.29991e-06
7.37464e-06
1.40154e-06
7.97004e-06
1.30922e-06
8.12348e-06
1.04552e-06
7.96486e-06
6.47452e-07
7.60164e-06
1.55051e-07
7.11568e-06
-3.94912e-07
6.56551e-06
-9.71649e-07
5.99064e-06
-1.5509e-06
5.41628e-06
-2.11439e-06
4.8574e-06
-2.64888e-06
4.32192e-06
-3.14504e-06
3.81316e-06
-3.59658e-06
3.33151e-06
-3.99937e-06
2.87563e-06
-4.35087e-06
2.44318e-06
-4.64963e-06
2.03138e-06
-4.89496e-06
1.63725e-06
-5.08663e-06
1.25787e-06
-5.22476e-06
8.90437e-07
-5.30968e-06
5.32326e-07
-5.34183e-06
1.81116e-07
-5.32176e-06
-1.65423e-07
-5.25009e-06
-5.09347e-07
-5.12752e-06
-8.52559e-07
-4.95489e-06
-1.19684e-06
-4.73318e-06
-1.54388e-06
-4.46361e-06
-1.89528e-06
-4.14772e-06
-2.2526e-06
-3.7875e-06
-2.61733e-06
-3.38557e-06
-2.99086e-06
-2.94536e-06
-3.37446e-06
-2.47142e-06
-3.76908e-06
-1.96978e-06
-4.17521e-06
-1.44838e-06
-4.59247e-06
-9.1766e-07
-5.01909e-06
-3.91112e-07
-5.45105e-06
1.14016e-07
-5.88087e-06
5.76239e-07
-6.29584e-06
9.6971e-07
-6.67565e-06
1.26502e-06
-6.98933e-06
1.43165e-06
-7.19157e-06
1.44323e-06
-7.21913e-06
1.28673e-06
-6.98841e-06
9.76312e-07
-6.3968e-06
5.70609e-07
-5.33095e-06
1.87635e-07
-3.68731e-06
-1.41685e-06
1.61095e-07
1.50904e-06
5.05911e-07
3.96995e-06
8.91396e-07
5.81186e-06
1.20794e-06
7.0581e-06
1.39162e-06
7.78635e-06
1.41877e-06
8.09633e-06
1.29426e-06
8.08937e-06
1.03968e-06
7.85622e-06
6.83958e-07
7.4714e-06
2.5713e-07
6.99233e-06
-2.13203e-07
6.46097e-06
-7.03481e-07
5.90656e-06
-1.19458e-06
5.3485e-06
-1.67156e-06
4.79889e-06
-2.12308e-06
4.26467e-06
-2.54076e-06
3.7492e-06
-2.91859e-06
3.25345e-06
-3.25232e-06
2.77691e-06
-3.53907e-06
2.31813e-06
-3.77697e-06
1.87516e-06
-3.96491e-06
1.4458e-06
-4.10228e-06
1.02781e-06
-4.18892e-06
6.18962e-07
-4.22495e-06
2.17146e-07
-4.21076e-06
-1.79611e-07
-4.14697e-06
-5.73136e-07
-4.03442e-06
-9.65105e-07
-3.87422e-06
-1.35705e-06
-3.66775e-06
-1.75035e-06
-3.41679e-06
-2.14624e-06
-3.12357e-06
-2.54582e-06
-2.79093e-06
-2.94997e-06
-2.42246e-06
-3.35933e-06
-2.02273e-06
-3.77419e-06
-1.59751e-06
-4.1943e-06
-1.15412e-06
-4.6186e-06
-7.01727e-07
-5.04486e-06
-2.51756e-07
-5.46906e-06
1.81773e-07
-5.88458e-06
5.81989e-07
-6.28109e-06
9.29189e-07
-6.64304e-06
1.20138e-06
-6.94785e-06
1.37575e-06
-7.1637e-06
1.43155e-06
-7.24737e-06
1.35503e-06
-7.14261e-06
1.14675e-06
-6.78013e-06
8.31005e-07
-6.08106e-06
4.6549e-07
-4.96543e-06
1.4662e-07
-3.36844e-06
-1.27023e-06
1.32263e-07
1.37678e-06
4.29513e-07
3.6727e-06
7.84335e-07
5.45704e-06
1.10712e-06
6.73531e-06
1.33791e-06
7.55556e-06
1.44638e-06
7.98786e-06
1.42605e-06
8.10971e-06
1.28672e-06
7.99555e-06
1.04748e-06
7.71065e-06
7.31256e-07
7.30856e-06
3.61261e-07
6.83097e-06
-4.1153e-08
6.30898e-06
-4.57485e-07
5.76483e-06
-8.72374e-07
5.21378e-06
-1.27347e-06
4.66577e-06
-1.65111e-06
4.12684e-06
-1.99789e-06
3.60023e-06
-2.30826e-06
3.08728e-06
-2.57817e-06
2.58804e-06
-2.80472e-06
2.10172e-06
-2.98596e-06
1.62705e-06
-3.12065e-06
1.16249e-06
-3.2081e-06
7.06417e-07
-3.24813e-06
2.57172e-07
-3.24092e-06
-1.86816e-07
-3.18705e-06
-6.2701e-07
-3.08743e-06
-1.06473e-06
-2.94335e-06
-1.50112e-06
-2.75653e-06
-1.93716e-06
-2.52917e-06
-2.37361e-06
-2.26403e-06
-2.81096e-06
-1.96458e-06
-3.24942e-06
-1.63512e-06
-3.68879e-06
-1.281e-06
-4.12832e-06
-9.08754e-07
-4.56654e-06
-5.26385e-07
-5.00097e-06
-1.43569e-07
-5.42768e-06
2.28141e-07
-5.84077e-06
5.75197e-07
-6.23164e-06
8.82116e-07
-6.58801e-06
1.13186e-06
-6.89279e-06
1.30676e-06
-7.12274e-06
1.39019e-06
-7.24712e-06
1.36939e-06
-7.22658e-06
1.2396e-06
-7.01281e-06
1.00938e-06
-6.54991e-06
7.06639e-07
-5.77831e-06
3.83524e-07
-4.64232e-06
1.17122e-07
-3.10204e-06
-1.15311e-06
1.10783e-07
1.26599e-06
3.6878e-07
3.4147e-06
6.91915e-07
5.1339e-06
1.00752e-06
6.41971e-06
1.26207e-06
7.30101e-06
1.42343e-06
7.8265e-06
1.47849e-06
8.05464e-06
1.42872e-06
8.04532e-06
1.2852e-06
7.85417e-06
1.06437e-06
7.52939e-06
7.84711e-07
7.11062e-06
4.64595e-07
6.62909e-06
1.20937e-07
6.10849e-06
-2.31438e-07
5.56616e-06
-5.80016e-07
5.01435e-06
-9.14528e-07
4.46135e-06
-1.22675e-06
3.91245e-06
-1.51023e-06
3.37076e-06
-1.76002e-06
2.83783e-06
-1.97244e-06
2.31413e-06
-2.14481e-06
1.79942e-06
-2.27531e-06
1.29299e-06
-2.36281e-06
7.93917e-07
-2.40678e-06
3.01143e-07
-2.40721e-06
-1.86385e-07
-2.36457e-06
-6.69649e-07
-2.27979e-06
-1.14951e-06
-2.15428e-06
-1.62663e-06
-1.98995e-06
-2.1015e-06
-1.78928e-06
-2.57428e-06
-1.5554e-06
-3.04484e-06
-1.29218e-06
-3.51264e-06
-1.00436e-06
-3.9766e-06
-6.97692e-07
-4.43498e-06
-3.79071e-07
-4.88516e-06
-5.66873e-08
-5.32335e-06
2.59858e-07
-5.74423e-06
5.59506e-07
-6.14042e-06
8.29802e-07
-6.50194e-06
1.05717e-06
-6.81538e-06
1.22752e-06
-7.06313e-06
1.32726e-06
-7.22248e-06
1.34502e-06
-7.26489e-06
1.27407e-06
-7.15562e-06
1.11549e-06
-6.85424e-06
8.8197e-07
-6.31639e-06
6.0132e-07
-5.49766e-06
3.18654e-07
-4.35965e-06
9.51202e-08
-2.87851e-06
-1.05798e-06
9.41954e-08
1.1718e-06
3.19534e-07
3.18936e-06
6.12186e-07
4.84125e-06
9.13208e-07
6.11869e-06
1.17608e-06
7.03814e-06
1.36953e-06
7.63305e-06
1.47712e-06
7.94705e-06
1.49478e-06
8.02767e-06
1.42752e-06
7.92142e-06
1.28627e-06
7.67064e-06
1.08505e-06
7.31184e-06
8.38997e-07
6.87515e-06
5.62913e-07
6.38457e-06
2.7045e-07
5.85862e-06
-2.63446e-08
5.31115e-06
-3.17179e-07
4.75218e-06
-5.93491e-07
4.18876e-06
-8.48323e-07
3.62559e-06
-1.07615e-06
3.06566e-06
-1.27268e-06
2.51067e-06
-1.43471e-06
1.96144e-06
-1.55993e-06
1.41821e-06
-1.64682e-06
8.80805e-07
-1.69454e-06
3.48864e-07
-1.70287e-06
-1.78057e-07
-1.67214e-06
-7.00377e-07
-1.60324e-06
-1.21841e-06
-1.49759e-06
-1.73228e-06
-1.35721e-06
-2.24188e-06
-1.18472e-06
-2.74678e-06
-9.83407e-07
-3.24615e-06
-7.5735e-07
-3.7387e-06
-5.11459e-07
-4.22249e-06
-2.51593e-07
-4.69485e-06
1.53561e-08
-5.15211e-06
2.81395e-07
-5.58939e-06
5.37409e-07
-6.00024e-06
7.73228e-07
-6.37624e-06
9.77818e-07
-6.70653e-06
1.13968e-06
-6.97724e-06
1.24752e-06
-7.17098e-06
1.29133e-06
-7.26629e-06
1.26383e-06
-7.23739e-06
1.16253e-06
-7.05432e-06
9.9204e-07
-6.68375e-06
7.66586e-07
-6.09094e-06
5.12002e-07
-5.24308e-06
2.66378e-07
-4.11403e-06
7.8162e-08
-2.69029e-06
-9.79823e-07
8.09672e-08
1.09083e-06
2.78745e-07
2.99158e-06
5.42887e-07
4.57711e-06
8.25402e-07
5.83618e-06
1.0864e-06
6.77713e-06
1.29688e-06
7.42257e-06
1.43918e-06
7.80476e-06
1.50582e-06
7.96102e-06
1.49749e-06
7.92975e-06
1.42066e-06
7.74747e-06
1.28547e-06
7.44703e-06
1.1039e-06
7.05672e-06
8.88461e-07
6.60001e-06
6.51266e-07
6.09582e-06
4.03459e-07
5.55895e-06
1.54919e-07
5.00072e-06
-8.58578e-08
4.42954e-06
-3.11748e-07
3.85148e-06
-5.16922e-07
3.27083e-06
-6.96731e-07
2.69048e-06
-8.47577e-07
2.11229e-06
-9.66794e-07
1.53743e-06
-1.05254e-06
9.66551e-07
-1.10371e-06
4.00031e-07
-1.11985e-06
-1.61909e-07
-1.10117e-06
-7.19066e-07
-1.04842e-06
-1.27115e-06
-9.63e-07
-1.8177e-06
-8.46889e-07
-2.35799e-06
-7.02719e-07
-2.89095e-06
-5.33807e-07
-3.41507e-06
-3.44216e-07
-3.92829e-06
-1.38808e-07
-4.4279e-06
7.66951e-08
-4.91035e-06
2.95677e-07
-5.3711e-06
5.10623e-07
-5.80434e-06
7.13166e-07
-6.20278e-06
8.94234e-07
-6.55731e-06
1.04432e-06
-6.85661e-06
1.15393e-06
-7.08685e-06
1.21426e-06
-7.23131e-06
1.21819e-06
-7.27021e-06
1.1615e-06
-7.1807e-06
1.04446e-06
-6.93728e-06
8.73527e-07
-6.51281e-06
6.62922e-07
-5.88033e-06
4.35659e-07
-5.01582e-06
2.23435e-07
-3.9018e-06
6.47014e-08
-2.53156e-06
-9.15121e-07
7.01101e-08
1.02072e-06
2.44234e-07
2.81746e-06
4.81951e-07
4.33939e-06
7.43981e-07
5.57415e-06
9.96388e-07
6.52473e-06
1.21299e-06
7.20597e-06
1.37624e-06
7.64151e-06
1.47682e-06
7.86044e-06
1.51244e-06
7.89414e-06
1.4862e-06
7.77371e-06
1.40498e-06
7.52826e-06
1.27793e-06
7.18377e-06
1.11529e-06
6.76265e-06
9.27479e-07
6.28363e-06
7.24488e-07
5.76194e-06
5.15477e-07
5.20973e-06
3.08573e-07
4.63644e-06
1.10781e-07
4.04928e-06
-7.20137e-08
3.45363e-06
-2.34998e-07
2.85346e-06
-3.74353e-07
2.25165e-06
-4.87167e-07
1.65024e-06
-5.71355e-07
1.05074e-06
-6.25582e-07
4.54258e-07
-6.49209e-07
-1.38282e-07
-6.42249e-07
-7.26026e-07
-6.05339e-07
-1.30806e-06
-5.39736e-07
-1.8833e-06
-4.47318e-07
-2.45041e-06
-3.30608e-07
-3.00766e-06
-1.92799e-07
-3.55287e-06
-3.77897e-08
-4.0833e-06
1.29786e-07
-4.59548e-06
3.04537e-07
-5.0851e-06
4.80317e-07
-5.54688e-06
6.50266e-07
-5.97429e-06
8.06911e-07
-6.35943e-06
9.42352e-07
-6.69275e-06
1.04857e-06
-6.96283e-06
1.11788e-06
-7.15616e-06
1.14356e-06
-7.25699e-06
1.12071e-06
-7.24736e-06
1.04726e-06
-7.10725e-06
9.25155e-07
-6.81517e-06
7.61533e-07
-6.34919e-06
5.69717e-07
-5.68852e-06
3.69653e-07
-4.81575e-06
1.87464e-07
-3.71961e-06
5.37296e-08
-2.39782e-06
-8.61392e-07
6.09651e-08
9.59756e-07
2.14427e-07
2.664e-06
4.27639e-07
4.12618e-06
6.68293e-07
5.33349e-06
9.07634e-07
6.28539e-06
1.12246e-06
6.99114e-06
1.29611e-06
7.46786e-06
1.41849e-06
7.73806e-06
1.48541e-06
7.82722e-06
1.49751e-06
7.76161e-06
1.45907e-06
7.56669e-06
1.37681e-06
7.26603e-06
1.25886e-06
6.8806e-06
1.11395e-06
6.42853e-06
9.50794e-07
5.9251e-06
7.77648e-07
5.38288e-06
6.02056e-07
4.81204e-06
4.30687e-07
4.22064e-06
2.69281e-07
3.61503e-06
1.2264e-07
3.0001e-06
-5.33966e-09
2.37963e-06
-1.11613e-07
1.75652e-06
-1.93932e-07
1.13306e-06
-2.50786e-07
5.11112e-07
-2.81357e-07
-1.07711e-07
-2.85482e-07
-7.21902e-07
-2.63623e-07
-1.32992e-06
-2.16863e-07
-1.93006e-06
-1.46898e-07
-2.52037e-06
-5.60466e-08
-3.09851e-06
5.27345e-08
-3.66165e-06
1.75837e-07
-4.2064e-06
3.08992e-07
-4.72863e-06
4.47273e-07
-5.22339e-06
5.85131e-07
-5.68473e-06
7.16462e-07
-6.10562e-06
8.3474e-07
-6.47771e-06
9.33219e-07
-6.79123e-06
1.00525e-06
-7.03486e-06
1.04469e-06
-7.1956e-06
1.0465e-06
-7.2588e-06
1.00741e-06
-7.20827e-06
9.26748e-07
-7.02659e-06
8.0733e-07
-6.69576e-06
6.56239e-07
-6.1981e-06
4.8542e-07
-5.5177e-06
3.11803e-07
-4.64214e-06
1.56739e-07
-3.56455e-06
4.45642e-08
-2.28565e-06
-8.16827e-07
5.30789e-08
9.06677e-07
1.88175e-07
2.5289e-06
3.78544e-07
3.93581e-06
5.97515e-07
5.11452e-06
8.20795e-07
6.06211e-06
1.02809e-06
6.78384e-06
1.20405e-06
7.2919e-06
1.33851e-06
7.60361e-06
1.4262e-06
7.73953e-06
1.46605e-06
7.72176e-06
1.46033e-06
7.57241e-06
1.41375e-06
7.31261e-06
1.33258e-06
6.96177e-06
1.22396e-06
6.53716e-06
1.09529e-06
6.05377e-06
9.53847e-07
5.52432e-06
8.0645e-07
4.95943e-06
6.59281e-07
4.36781e-06
5.17775e-07
3.75654e-06
3.86578e-07
3.1313e-06
2.69542e-07
2.49666e-06
1.69742e-07
1.85632e-06
8.95138e-08
1.21329e-06
3.04924e-08
5.70134e-07
-6.35211e-09
-7.08661e-08
-2.06825e-08
-7.07572e-07
-1.27711e-08
-1.33783e-06
1.65144e-08
-1.95935e-06
6.57179e-08
-2.56958e-06
1.32796e-07
-3.16559e-06
2.15113e-07
-3.74397e-06
3.09445e-07
-4.30073e-06
4.11982e-07
-4.83117e-06
5.18353e-07
-5.32976e-06
6.23679e-07
-5.79006e-06
7.22653e-07
-6.20459e-06
8.09689e-07
-6.56474e-06
8.79123e-07
-6.86066e-06
9.25508e-07
-7.08124e-06
9.43994e-07
-7.21409e-06
9.30813e-07
-7.24562e-06
8.83851e-07
-7.16131e-06
8.03281e-07
-6.94602e-06
6.92193e-07
-6.58467e-06
5.57149e-07
-6.06306e-06
4.08499e-07
-5.36905e-06
2.60347e-07
-4.49398e-06
1.29983e-07
-3.43419e-06
3.67284e-08
-2.19239e-06
-7.80099e-07
4.61311e-08
8.60546e-07
1.64626e-07
2.41041e-06
3.33545e-07
3.76689e-06
5.3083e-07
4.91723e-06
7.36026e-07
5.85691e-06
9.31568e-07
6.5883e-06
1.10362e-06
7.11985e-06
1.24242e-06
7.4648e-06
1.34221e-06
7.63975e-06
1.4008e-06
7.66317e-06
1.41897e-06
7.55423e-06
1.39982e-06
7.33177e-06
1.34802e-06
7.01357e-06
1.26927e-06
6.61591e-06
1.16973e-06
6.15331e-06
1.05566e-06
5.63839e-06
9.33077e-07
5.08201e-06
8.07577e-07
4.49331e-06
6.8418e-07
3.87994e-06
5.67264e-07
3.24822e-06
4.60529e-07
2.6034e-06
3.66994e-07
1.94985e-06
2.89013e-07
1.29127e-06
2.28295e-07
6.30852e-07
1.85931e-07
-2.85024e-08
1.62422e-07
-6.84062e-07
1.57694e-07
-1.3331e-06
1.71118e-07
-1.97277e-06
2.01517e-07
-2.59997e-06
2.47173e-07
-3.21124e-06
3.05835e-07
-3.80263e-06
3.74723e-07
-4.36962e-06
4.5055e-07
-4.907e-06
5.29553e-07
-5.40876e-06
6.07552e-07
-5.86806e-06
6.80043e-07
-6.27708e-06
7.42334e-07
-6.62703e-06
7.89741e-07
-6.90807e-06
8.17851e-07
-7.10935e-06
8.22845e-07
-7.21908e-06
8.01909e-07
-7.22469e-06
7.53684e-07
-7.11308e-06
6.78753e-07
-6.87109e-06
5.80099e-07
-6.48602e-06
4.63472e-07
-5.94643e-06
3.37561e-07
-5.24314e-06
2.13873e-07
-4.3703e-06
1.06236e-07
-3.32655e-06
2.988e-08
-2.11604e-06
-7.50219e-07
3.98899e-08
8.20656e-07
1.43146e-07
2.30715e-06
2.91754e-07
3.61828e-06
4.67493e-07
4.7415e-06
6.53223e-07
5.67118e-06
8.33895e-07
6.40763e-06
9.97268e-07
6.95647e-06
1.13428e-06
7.32779e-06
1.23909e-06
7.53493e-06
1.30886e-06
7.5934e-06
1.34332e-06
7.51977e-06
1.34429e-06
7.3308e-06
1.31514e-06
7.04272e-06
1.2603e-06
6.67076e-06
1.18477e-06
6.22884e-06
1.09381e-06
5.72935e-06
9.92635e-07
5.18319e-06
8.86178e-07
4.59977e-06
7.78972e-07
3.98714e-06
6.75041e-07
3.35215e-06
5.77852e-07
2.70059e-06
4.90296e-07
2.03741e-06
4.1468e-07
1.36688e-06
3.52739e-07
6.92793e-07
3.05655e-07
1.85816e-08
2.74072e-07
-6.5248e-07
2.58117e-07
-1.31715e-06
2.57408e-07
-1.97206e-06
2.71072e-07
-2.61364e-06
2.97751e-07
-3.23792e-06
3.35612e-07
-3.8405e-06
3.82363e-07
-4.41637e-06
4.35274e-07
-4.95991e-06
4.91212e-07
-5.4647e-06
5.46704e-07
-5.92355e-06
5.98022e-07
-6.3284e-06
6.41309e-07
-6.67032e-06
6.72751e-07
-6.93951e-06
6.88801e-07
-7.1254e-06
6.86456e-07
-7.21673e-06
6.63578e-07
-7.20181e-06
6.19258e-07
-7.06876e-06
5.54177e-07
-6.80601e-06
4.70945e-07
-6.40278e-06
3.7434e-07
-5.84983e-06
2.71394e-07
-5.14019e-06
1.71256e-07
-4.27016e-06
8.47694e-08
-3.24006e-06
2.37676e-08
-2.05504e-06
-7.26451e-07
3.41838e-08
7.86472e-07
1.23252e-07
2.21808e-06
2.52466e-07
3.48907e-06
4.06854e-07
4.58711e-06
5.72165e-07
5.50587e-06
7.35655e-07
6.24414e-06
8.86682e-07
6.80545e-06
1.01707e-06
7.19741e-06
1.12119e-06
7.43081e-06
1.19589e-06
7.5187e-06
1.2402e-06
7.47546e-06
1.25499e-06
7.316e-06
1.24257e-06
7.05514e-06
1.20626e-06
6.70708e-06
1.15003e-06
6.28506e-06
1.0782e-06
5.80117e-06
9.95175e-07
5.26622e-06
9.05208e-07
4.68974e-06
8.12292e-07
4.08006e-06
7.2004e-07
3.4444e-06
6.31623e-07
2.789e-06
5.49738e-07
2.11929e-06
4.76595e-07
1.44003e-06
4.1391e-07
7.55478e-07
3.62921e-07
6.95703e-08
3.24397e-07
-6.13956e-07
2.98651e-07
-1.2914e-06
2.85553e-07
-1.95897e-06
2.84543e-07
-2.61263e-06
2.94638e-07
-3.24802e-06
3.14448e-07
-3.8603e-06
3.42187e-07
-4.44411e-06
3.75696e-07
-4.99342e-06
4.12481e-07
-5.50148e-06
4.49762e-07
-5.96083e-06
4.8455e-07
-6.36319e-06
5.13755e-07
-6.69952e-06
5.34329e-07
-6.96009e-06
5.43449e-07
-7.13452e-06
5.38736e-07
-7.21202e-06
5.18518e-07
-7.18159e-06
4.821e-07
-7.03234e-06
4.30042e-07
-6.75395e-06
3.64403e-07
-6.33715e-06
2.88903e-07
-5.77433e-06
2.08967e-07
-5.06026e-06
1.31593e-07
-4.19278e-06
6.50225e-08
-3.17349e-06
1.82028e-08
-2.00822e-06
-7.08248e-07
2.88832e-08
7.57589e-07
1.04568e-07
2.1424e-06
2.15116e-07
3.37852e-06
3.48356e-07
4.45387e-06
4.92584e-07
5.36164e-06
6.37171e-07
6.09955e-06
7.73046e-07
6.66957e-06
8.93008e-07
7.07744e-06
9.91867e-07
7.33195e-06
1.06641e-06
7.44416e-06
1.11525e-06
7.42662e-06
1.13855e-06
7.29269e-06
1.13777e-06
7.05592e-06
1.11531e-06
6.72954e-06
1.07422e-06
6.32615e-06
1.01795e-06
5.85744e-06
9.50112e-07
5.33405e-06
8.74289e-07
4.76556e-06
7.93903e-07
4.16044e-06
7.12114e-07
3.52619e-06
6.31751e-07
2.86937e-06
5.55268e-07
2.19577e-06
4.84727e-07
1.51057e-06
4.21788e-07
8.18417e-07
3.67711e-07
1.23648e-07
3.23362e-07
-5.69608e-07
2.89229e-07
-1.25727e-06
2.65423e-07
-1.93516e-06
2.51696e-07
-2.5989e-06
2.47447e-07
-3.24377e-06
2.51734e-07
-3.86459e-06
2.63284e-07
-4.45566e-06
2.80514e-07
-5.01065e-06
3.0156e-07
-5.52253e-06
3.24314e-07
-5.98358e-06
3.46486e-07
-6.38536e-06
3.65691e-07
-6.71873e-06
3.79553e-07
-6.97395e-06
3.85853e-07
-7.14082e-06
3.82694e-07
-7.20886e-06
3.68699e-07
-7.16759e-06
3.4322e-07
-7.00686e-06
3.0654e-07
-6.71727e-06
2.60055e-07
-6.29066e-06
2.06388e-07
-5.72066e-06
1.49415e-07
-5.00328e-06
9.4161e-08
-4.13753e-06
4.65562e-08
-3.12589e-06
1.30412e-08
-1.9747e-06
-6.95207e-07
2.38875e-08
7.33702e-07
8.68e-08
2.07949e-06
1.79247e-07
3.28607e-06
2.91518e-07
4.3416e-06
4.14196e-07
5.23896e-06
5.38604e-07
5.97514e-06
6.57191e-07
6.55099e-06
7.638e-07
6.97083e-06
8.53805e-07
7.24195e-06
9.24136e-07
7.37383e-06
9.73182e-07
7.37758e-06
1.00064e-06
7.26524e-06
1.00727e-06
7.04928e-06
9.94723e-07
6.74209e-06
9.65236e-07
6.35564e-06
9.21461e-07
5.90121e-06
8.66261e-07
5.38925e-06
8.0255e-07
4.82927e-06
7.33173e-07
4.22982e-06
6.60811e-07
3.59855e-06
5.8791e-07
2.94227e-06
5.16646e-07
2.26704e-06
4.48892e-07
1.57832e-06
3.86212e-07
8.81098e-07
3.29854e-07
1.80005e-07
2.8076e-07
-5.20513e-07
2.39565e-07
-1.21607e-06
2.06612e-07
-1.90221e-06
1.81955e-07
-2.57424e-06
1.6537e-07
-3.22718e-06
1.56358e-07
-3.85558e-06
1.5416e-07
-4.45346e-06
1.5776e-07
-5.01425e-06
1.65911e-07
-5.53068e-06
1.77156e-07
-5.99483e-06
1.8987e-07
-6.39808e-06
2.02313e-07
-6.73117e-06
2.12714e-07
-6.98435e-06
2.19362e-07
-7.14747e-06
2.20731e-07
-7.21023e-06
2.15622e-07
-7.16249e-06
2.03313e-07
-6.99455e-06
1.83707e-07
-6.69767e-06
1.57468e-07
-6.26442e-06
1.26109e-07
-5.6893e-06
9.20123e-08
-4.96919e-06
5.83721e-08
-4.10389e-06
2.90228e-08
-3.09654e-06
8.17058e-09
-1.95385e-06
-6.87037e-07
1.91162e-08
7.14585e-07
6.97078e-08
2.02889e-06
1.44475e-07
3.21131e-06
2.35923e-07
4.25015e-06
3.36717e-07
5.13817e-06
4.40005e-07
5.87186e-06
5.39709e-07
6.45128e-06
6.30744e-07
6.8798e-06
7.09144e-07
7.16355e-06
7.72115e-07
7.31086e-06
8.17992e-07
7.3317e-06
8.46144e-07
7.23709e-06
8.56829e-07
7.0386e-06
8.51033e-07
6.74789e-06
8.30292e-07
6.37638e-06
7.96529e-07
5.93498e-06
7.51899e-07
5.43388e-06
6.98668e-07
4.8825e-06
6.39097e-07
4.28939e-06
5.75371e-07
3.66228e-06
5.09529e-07
3.00811e-06
4.43432e-07
2.33313e-06
3.78731e-07
1.64302e-06
3.1686e-07
9.42969e-07
2.59025e-07
2.3784e-07
2.0621e-07
-4.67698e-07
1.59179e-07
-1.16904e-06
1.18483e-07
-1.86151e-06
8.44657e-08
-2.54023e-06
5.72652e-08
-3.19998e-06
3.68207e-08
-3.83514e-06
2.2873e-08
-4.43952e-06
1.49675e-08
-5.00634e-06
1.24588e-08
-5.52817e-06
1.45203e-08
-5.99689e-06
2.01607e-08
-6.40372e-06
2.82515e-08
-6.73926e-06
3.7568e-08
-6.99367e-06
4.68466e-08
-7.15675e-06
5.48589e-08
-7.21825e-06
6.05022e-08
-7.16813e-06
6.2902e-08
-6.99695e-06
6.15176e-08
-6.69628e-06
5.62409e-08
-6.25914e-06
4.74717e-08
-5.68053e-06
3.61521e-08
-4.95787e-06
2.37446e-08
-4.09148e-06
1.21412e-08
-3.08493e-06
3.50119e-09
-1.94521e-06
-6.83535e-07
1.45025e-08
7.00083e-07
5.30886e-08
1.99031e-06
1.1047e-07
3.15393e-06
1.81193e-07
4.17942e-06
2.59862e-07
5.0595e-06
3.41353e-07
5.79036e-06
4.21018e-07
6.37161e-06
4.94859e-07
6.80596e-06
5.59633e-07
7.09877e-06
6.12919e-07
7.25757e-06
6.53113e-07
7.2915e-06
6.79384e-07
7.21082e-06
6.91588e-07
7.02639e-06
6.90168e-07
6.74931e-06
6.76029e-07
6.39052e-06
6.50424e-07
5.96058e-06
6.14845e-07
5.46946e-06
5.70919e-07
4.92643e-06
5.2033e-07
4.33998e-06
4.64753e-07
3.71785e-06
4.05801e-07
3.06706e-06
3.44991e-07
2.39394e-06
2.83724e-07
1.70429e-06
2.23268e-07
1.00342e-06
1.64758e-07
2.96351e-07
1.0919e-07
-4.12131e-07
5.7432e-08
-1.11728e-06
1.02193e-08
-1.8143e-06
-3.18363e-08
-2.49817e-06
-6.8248e-08
-3.16357e-06
-9.86546e-08
-3.80473e-06
-1.22826e-07
-4.41534e-06
-1.40669e-07
-4.9885e-06
-1.52237e-07
-5.5166e-06
-1.57743e-07
-5.99139e-06
-1.5756e-07
-6.4039e-06
-1.52232e-07
-6.74459e-06
-1.42463e-07
-7.00344e-06
-1.29107e-07
-7.1701e-06
-1.13136e-07
-7.23422e-06
-9.56013e-08
-7.18566e-06
-7.75709e-08
-7.01498e-06
-6.00654e-08
-6.71379e-06
-4.39832e-08
-6.27523e-06
-3.00327e-08
-5.69448e-06