/*--------------------------------*- C++ -*----------------------------------*\
  =========                 |
  \\      /  F ield         | OpenFOAM: The Open Source CFD Toolbox
   \\    /   O peration     | Website:  https://openfoam.org
    \\  /    A nd           | Version:  7
     \\/     M anipulation  |
\*---------------------------------------------------------------------------*/
FoamFile
{
    version     2.0;
    format      ascii;
    class       surfaceScalarField;
    location    "0.03";
    object      phi;
}
// * * * * * * * * * * * * * * * * * * * * * * * * * * * * * * * * * * * * * //

dimensions      [0 3 -1 0 0 0 0];

internalField   nonuniform List<scalar> 
4900
(
5.45518e-06
-5.45517e-06
9.95422e-06
-4.49903e-06
1.2695e-05
-2.74076e-06
1.44125e-05
-1.71749e-06
1.55272e-05
-1.1147e-06
1.62781e-05
-7.50942e-07
1.68064e-05
-5.28272e-07
1.71937e-05
-3.87281e-07
1.74873e-05
-2.93649e-07
1.77157e-05
-2.28427e-07
1.78968e-05
-1.81074e-07
1.80423e-05
-1.45514e-07
1.81604e-05
-1.18084e-07
1.82569e-05
-9.64738e-08
1.8336e-05
-7.91567e-08
1.84011e-05
-6.50838e-08
1.84546e-05
-5.35063e-08
1.84985e-05
-4.38719e-08
1.85343e-05
-3.57609e-08
1.85631e-05
-2.88457e-08
1.8586e-05
-2.28633e-08
1.86036e-05
-1.75971e-08
1.86164e-05
-1.28635e-08
1.86249e-05
-8.50169e-09
1.86293e-05
-4.36677e-09
1.86296e-05
-3.24066e-10
1.86259e-05
3.76089e-09
1.86179e-05
8.01862e-09
1.86053e-05
1.25906e-08
1.85876e-05
1.76302e-08
1.85643e-05
2.33117e-08
1.85345e-05
2.98405e-08
1.8497e-05
3.7466e-08
1.84505e-05
4.65012e-08
1.83932e-05
5.73496e-08
1.83226e-05
7.05466e-08
1.82358e-05
8.68233e-08
1.81286e-05
1.07209e-07
1.79954e-05
1.33206e-07
1.78283e-05
1.67086e-07
1.76158e-05
2.12453e-07
1.73405e-05
2.75299e-07
1.69745e-05
3.6609e-07
1.64705e-05
5.03909e-07
1.57464e-05
7.24136e-07
1.46561e-05
1.09033e-06
1.29449e-05
1.71123e-06
1.01623e-05
2.78258e-06
5.55757e-06
4.6047e-06
5.55757e-06
-1.18728e-07
-5.33644e-06
1.83245e-06
-6.45021e-06
4.41282e-06
-5.32114e-06
6.72626e-06
-4.03093e-06
8.60236e-06
-2.99081e-06
1.00797e-05
-2.22823e-06
1.1238e-05
-1.68662e-06
1.21518e-05
-1.30104e-06
1.28797e-05
-1.02155e-06
1.34655e-05
-8.14286e-07
1.39415e-05
-6.57029e-07
1.43311e-05
-5.35184e-07
1.46521e-05
-4.3903e-07
1.49176e-05
-3.61951e-07
1.51377e-05
-2.9933e-07
1.53205e-05
-2.47854e-07
1.54721e-05
-2.05086e-07
1.55974e-05
-1.69183e-07
1.57004e-05
-1.3872e-07
1.57841e-05
-1.12564e-07
1.5851e-05
-8.97964e-08
1.59031e-05
-6.96479e-08
1.59417e-05
-5.14608e-08
1.59678e-05
-3.46548e-08
1.59821e-05
-1.87017e-08
1.59849e-05
-3.10529e-09
1.59761e-05
1.26198e-08
1.59551e-05
2.89635e-08
1.59213e-05
4.6441e-08
1.58733e-05
6.56146e-08
1.58095e-05
8.71192e-08
1.57276e-05
1.11697e-07
1.56249e-05
1.40241e-07
1.54975e-05
1.73858e-07
1.53409e-05
2.13957e-07
1.51491e-05
2.62377e-07
1.49143e-05
3.21577e-07
1.46266e-05
3.94931e-07
1.42726e-05
4.87182e-07
1.38345e-05
6.05176e-07
1.32879e-05
7.5905e-07
1.25991e-05
9.64164e-07
1.1721e-05
1.24419e-06
1.05891e-05
1.63574e-06
9.11932e-06
2.19394e-06
7.21692e-06
2.99273e-06
4.82779e-06
4.10036e-06
2.11976e-06
5.49061e-06
1.06345e-08
6.71383e-06
5.5682e-06
-1.08237e-06
-4.25407e-06
-7.55073e-07
-6.77751e-06
5.85693e-07
-6.66191e-06
2.29304e-06
-5.73827e-06
3.99745e-06
-4.69522e-06
5.54013e-06
-3.77091e-06
6.87416e-06
-3.02065e-06
8.00341e-06
-2.4303e-06
8.95079e-06
-1.96892e-06
9.74337e-06
-1.60687e-06
1.04065e-05
-1.32018e-06
1.09621e-05
-1.09073e-06
1.14281e-05
-9.05057e-07
1.18194e-05
-7.53253e-07
1.2148e-05
-6.27941e-07
1.24237e-05
-5.23567e-07
1.26545e-05
-4.35875e-07
1.28469e-05
-3.61548e-07
1.30061e-05
-2.97947e-07
1.31365e-05
-2.42932e-07
1.32414e-05
-1.94727e-07
1.33236e-05
-1.51826e-07
1.3385e-05
-1.12921e-07
1.34272e-05
-7.68435e-08
1.3451e-05
-4.25201e-08
1.34569e-05
-8.93463e-09
1.34446e-05
2.49101e-08
1.34135e-05
6.00229e-08
1.33625e-05
9.74633e-08
1.32897e-05
1.38381e-07
1.31928e-05
1.84067e-07
1.30685e-05
2.36012e-07
1.29127e-05
2.9599e-07
1.27204e-05
3.66164e-07
1.24851e-05
4.49236e-07
1.21989e-05
5.48653e-07
1.18515e-05
6.68897e-07
1.14306e-05
8.1591e-07
1.09201e-05
9.97683e-07
1.03001e-05
1.22511e-06
9.54602e-06
1.51316e-06
8.62786e-06
1.88233e-06
7.51188e-06
2.36017e-06
6.16599e-06
2.98163e-06
4.57526e-06
3.78467e-06
2.77712e-06
4.79087e-06
9.30052e-07
5.94742e-06
-5.74035e-07
6.9947e-06
-1.03894e-06
7.17873e-06
4.52927e-06
-9.13639e-07
-3.34043e-06
-1.34463e-06
-6.34652e-06
-9.44606e-07
-7.06193e-06
6.53547e-09
-6.68941e-06
1.21435e-06
-5.90303e-06
2.48015e-06
-5.03671e-06
3.6913e-06
-4.23181e-06
4.7954e-06
-3.53439e-06
5.77495e-06
-2.94848e-06
6.63051e-06
-2.46242e-06
7.37087e-06
-2.06054e-06
8.0079e-06
-1.72776e-06
8.55393e-06
-1.45109e-06
9.02059e-06
-1.21991e-06
9.41829e-06
-1.02564e-06
9.75613e-06
-8.61404e-07
1.00419e-05
-7.21673e-07
1.02823e-05
-6.01948e-07
1.04829e-05
-4.98529e-07
1.06483e-05
-4.08325e-07
1.07823e-05
-3.28708e-07
1.08879e-05
-2.57402e-07
1.09673e-05
-1.92394e-07
1.10223e-05
-1.31858e-07
1.10539e-05
-7.40974e-08
1.10625e-05
-1.74923e-08
1.10478e-05
3.95547e-08
1.10092e-05
9.86634e-08
1.09451e-05
1.6153e-07
1.08535e-05
2.29987e-07
1.07315e-05
3.06068e-07
1.05754e-05
3.92094e-07
1.03806e-05
4.90782e-07
1.01414e-05
6.05379e-07
9.85083e-06
7.3984e-07
9.50041e-06
8.99066e-07
9.0801e-06
1.08921e-06
8.57796e-06
1.31806e-06
7.9801e-06
1.59554e-06
7.27099e-06
1.93422e-06
6.43435e-06
2.3498e-06
5.4556e-06
2.86107e-06
4.32728e-06
3.4885e-06
3.05963e-06
4.24928e-06
1.69996e-06
5.14433e-06
3.62744e-07
6.12809e-06
-7.36504e-07
7.04667e-06
-1.27114e-06
7.52933e-06
-9.1725e-07
6.82484e-06
3.61202e-06
-6.66093e-07
-2.67433e-06
-1.30258e-06
-5.71003e-06
-1.43024e-06
-6.93427e-06
-1.06428e-06
-7.05538e-06
-3.58785e-07
-6.60852e-06
5.28636e-07
-5.92414e-06
1.4801e-06
-5.18327e-06
2.42011e-06
-4.4744e-06
3.30582e-06
-3.83419e-06
4.11626e-06
-3.27286e-06
4.84383e-06
-2.78811e-06
5.48859e-06
-2.37252e-06
6.05468e-06
-2.01718e-06
6.54814e-06
-1.71337e-06
6.97565e-06
-1.45315e-06
7.34388e-06
-1.22963e-06
7.65906e-06
-1.03685e-06
7.92684e-06
-8.69731e-07
8.1522e-06
-7.23882e-07
8.33939e-06
-5.95519e-07
8.492e-06
-4.8132e-07
8.61293e-06
-3.78334e-07
8.70443e-06
-2.83893e-07
8.76811e-06
-1.95536e-07
8.80496e-06
-1.10945e-07
8.81535e-06
-2.78812e-08
8.79903e-06
5.58703e-08
8.75513e-06
1.42562e-07
8.68212e-06
2.34545e-07
8.57777e-06
3.34339e-07
8.43912e-06
4.44711e-07
8.26245e-06
5.68771e-07
8.04315e-06
7.10081e-07
7.77573e-06
8.72797e-07
7.45374e-06
1.06183e-06
7.06975e-06
1.28305e-06
6.61547e-06
1.54349e-06
6.08195e-06
1.85158e-06
5.46022e-06
2.21727e-06
4.74242e-06
2.65201e-06
3.92409e-06
3.16813e-06
3.00804e-06
3.77712e-06
2.01095e-06
4.48559e-06
9.73492e-07
5.28674e-06
-2.59943e-08
6.14382e-06
-8.58482e-07
6.96057e-06
-1.34461e-06
7.53279e-06
-1.30004e-06
7.48477e-06
-6.86863e-07
6.21166e-06
2.92516e-06
-4.72742e-07
-2.20159e-06
-1.10706e-06
-5.07571e-06
-1.484e-06
-6.55733e-06
-1.49669e-06
-7.04269e-06
-1.1906e-06
-6.91461e-06
-6.60444e-07
-6.45429e-06
4.51498e-10
-5.84416e-06
7.18529e-07
-5.19248e-06
1.44263e-06
-4.55829e-06
2.1401e-06
-3.97033e-06
2.79194e-06
-3.43996e-06
3.38853e-06
-2.96911e-06
3.92626e-06
-2.55492e-06
4.40528e-06
-2.19238e-06
4.82785e-06
-1.87572e-06
5.19738e-06
-1.59916e-06
5.51776e-06
-1.35723e-06
5.79293e-06
-1.1449e-06
6.02663e-06
-9.57584e-07
6.22226e-06
-7.91151e-07
6.38278e-06
-6.41837e-07
6.51064e-06
-5.06195e-07
6.60777e-06
-3.8103e-07
6.67557e-06
-2.63336e-07
6.71487e-06
-1.50239e-07
6.72592e-06
-3.89332e-08
6.70842e-06
7.3374e-08
6.66145e-06
1.89526e-07
6.58352e-06
3.12478e-07
6.47249e-06
4.45372e-07
6.32559e-06
5.91611e-07
6.13941e-06
7.54947e-07
5.90991e-06
9.3958e-07
5.63245e-06
1.15026e-06
5.30187e-06
1.39241e-06
4.91272e-06
1.6722e-06
4.45959e-06
1.99662e-06
3.93774e-06
2.37343e-06
3.34414e-06
2.81087e-06
2.67922e-06
3.31694e-06
1.94948e-06
3.89786e-06
1.17154e-06
4.55507e-06
3.77511e-07
5.27962e-06
-3.78405e-07
6.04265e-06
-1.01441e-06
6.77982e-06
-1.42211e-06
7.36828e-06
-1.48674e-06
7.59742e-06
-1.14428e-06
7.14231e-06
-4.98774e-07
5.56616e-06
2.42638e-06
-3.42297e-07
-1.85929e-06
-9.10846e-07
-4.50716e-06
-1.38284e-06
-6.08534e-06
-1.6164e-06
-6.80912e-06
-1.59268e-06
-6.93833e-06
-1.35334e-06
-6.69362e-06
-9.5936e-07
-6.23815e-06
-4.69386e-07
-5.68245e-06
6.86733e-08
-5.09635e-06
6.19383e-07
-4.52104e-06
1.15833e-06
-3.97891e-06
1.66982e-06
-3.48059e-06
2.14454e-06
-3.02964e-06
2.57769e-06
-2.62553e-06
2.9675e-06
-2.26553e-06
3.31412e-06
-1.94578e-06
3.61886e-06
-1.66198e-06
3.88371e-06
-1.40974e-06
4.11087e-06
-1.18474e-06
4.30257e-06
-9.82858e-07
4.4609e-06
-8.00164e-07
4.58764e-06
-6.32936e-07
4.68423e-06
-4.77623e-07
4.75171e-06
-3.30813e-07
4.79065e-06
-1.89184e-07
4.80118e-06
-4.94601e-08
4.78292e-06
9.16394e-08
4.73498e-06
2.37456e-07
4.65601e-06
3.9145e-07
4.54413e-06
5.57259e-07
4.39697e-06
7.38764e-07
4.21177e-06
9.40152e-07
3.98537e-06
1.16598e-06
3.71441e-06
1.42122e-06
3.39552e-06
1.7113e-06
3.02568e-06
2.04204e-06
2.60277e-06
2.41953e-06
2.12642e-06
2.84978e-06
1.59923e-06
3.33806e-06
1.02855e-06
3.88762e-06
4.28914e-07
4.4975e-06
-1.74914e-07
5.1589e-06
-7.44646e-07
5.84935e-06
-1.22601e-06
6.52401e-06
-1.54969e-06
7.1035e-06
-1.64063e-06
7.45922e-06
-1.44299e-06
7.39978e-06
-9.68592e-07
6.66791e-06
-3.6899e-07
4.96656e-06
2.05739e-06
-2.57735e-07
-1.60156e-06
-7.51009e-07
-4.01389e-06
-1.2422e-06
-5.59414e-06
-1.59399e-06
-6.45733e-06
-1.75682e-06
-6.7755e-06
-1.73615e-06
-6.71429e-06
-1.56424e-06
-6.41007e-06
-1.28154e-06
-5.96515e-06
-9.26666e-07
-5.45123e-06
-5.31963e-07
-4.91574e-06
-1.22449e-07
-4.38842e-06
2.83661e-07
-3.8867e-06
6.73798e-07
-3.41978e-06
1.03979e-06
-2.99153e-06
1.37672e-06
-2.60246e-06
1.68201e-06
-2.25107e-06
1.95467e-06
-1.93464e-06
2.19472e-06
-1.6498e-06
2.40286e-06
-1.39287e-06
2.58005e-06
-1.16005e-06
2.72738e-06
-9.47499e-07
2.84589e-06
-7.51444e-07
2.93643e-06
-5.6816e-07
2.99959e-06
-3.93982e-07
3.03569e-06
-2.25281e-07
3.04467e-06
-5.84347e-08
3.0261e-06
1.10204e-07
2.97921e-06
2.84351e-07
2.90283e-06
4.6783e-07
2.79547e-06
6.64618e-07
2.65535e-06
8.78881e-07
2.4805e-06
1.115e-06
2.26887e-06
1.37761e-06
2.01858e-06
1.67151e-06
1.72819e-06
2.00169e-06
1.39716e-06
2.37306e-06
1.02651e-06
2.79018e-06
6.19646e-07
3.25664e-06
1.83604e-07
3.7741e-06
-2.69494e-07
4.34072e-06
-7.20666e-07
4.94867e-06
-1.1423e-06
5.58053e-06
-1.49704e-06
6.20409e-06
-1.73846e-06
6.76544e-06
-1.81591e-06
7.18095e-06
-1.68637e-06
7.32968e-06
-1.3369e-06
7.05031e-06
-8.18412e-07
6.14942e-06
-2.83635e-07
4.43178e-06
1.77376e-06
-2.02338e-07
-1.39922e-06
-6.28738e-07
-3.58749e-06
-1.10586e-06
-5.11703e-06
-1.51465e-06
-6.04854e-06
-1.79506e-06
-6.49509e-06
-1.93113e-06
-6.57822e-06
-1.9337e-06
-6.4075e-06
-1.8266e-06
-6.07224e-06
-1.6375e-06
-5.64033e-06
-1.39266e-06
-5.16058e-06
-1.11459e-06
-4.6665e-06
-8.2127e-07
-4.18002e-06
-5.26381e-07
-3.71467e-06
-2.39861e-07
-3.27805e-06
3.13753e-08
-2.8737e-06
2.82757e-07
-2.50245e-06
5.11455e-07
-2.16333e-06
7.15887e-07
-1.85423e-06
8.95328e-07
-1.57231e-06
1.0496e-06
-1.31432e-06
1.17882e-06
-1.07672e-06
1.28326e-06
-8.55887e-07
1.36319e-06
-6.48085e-07
1.41876e-06
-4.49554e-07
1.44998e-06
-2.56502e-07
1.45665e-06
-6.51019e-08
1.43833e-06
1.28524e-07
1.39436e-06
3.28323e-07
1.32386e-06
5.3833e-07
1.22579e-06
7.62686e-07
1.09903e-06
1.00564e-06
9.4248e-07
1.27155e-06
7.5527e-07
1.56482e-06
5.3698e-07
1.8898e-06
2.88005e-07
2.25067e-06
1.00236e-08
2.65105e-06
-2.93381e-07
3.09359e-06
-6.15941e-07
3.5792e-06
-9.47745e-07
4.10591e-06
-1.27419e-06
4.66716e-06
-1.57501e-06
5.24949e-06
-1.82371e-06
5.82923e-06
-1.98811e-06
6.36849e-06
-2.03298e-06
6.81031e-06
-1.92627e-06
7.07424e-06
-1.65037e-06
7.05379e-06
-1.21929e-06
6.61923e-06
-6.99508e-07
5.62963e-06
-2.26896e-07
3.95917e-06
1.54686e-06
-1.65008e-07
-1.23421e-06
-5.36783e-07
-3.21572e-06
-9.87611e-07
-4.6662e-06
-1.41887e-06
-5.61728e-06
-1.77043e-06
-6.14353e-06
-2.01535e-06
-6.3333e-06
-2.15018e-06
-6.27268e-06
-2.18553e-06
-6.03689e-06
-2.13884e-06
-5.68702e-06
-2.02944e-06
-5.26997e-06
-1.87571e-06
-4.82023e-06
-1.69366e-06
-4.36207e-06
-1.49646e-06
-3.91187e-06
-1.29446e-06
-3.48004e-06
-1.09552e-06
-3.07264e-06
-9.05409e-07
-2.69257e-06
-7.28202e-07
-2.34054e-06
-5.66701e-07
-2.01573e-06
-4.22747e-07
-1.71627e-06
-2.97505e-07
-1.43956e-06
-1.9168e-07
-1.18255e-06
-1.057e-07
-9.41867e-07
-3.98452e-08
-7.13939e-07
5.64857e-09
-4.95048e-07
3.05242e-08
-2.81377e-07
3.44484e-08
-6.90261e-08
1.70014e-08
1.45971e-07
-2.23227e-08
3.67647e-07
-8.40868e-08
6.00094e-07
-1.6885e-07
8.47449e-07
-2.77072e-07
1.11386e-06
-4.08974e-07
1.40345e-06
-5.64342e-07
1.72018e-06
-7.42268e-07
2.06773e-06
-9.40803e-07
2.4492e-06
-1.15652e-06
2.86677e-06
-1.38401e-06
3.32107e-06
-1.61522e-06
3.81041e-06
-1.83884e-06
4.32953e-06
-2.03977e-06
4.86809e-06
-2.1988e-06
5.40851e-06
-2.29298e-06
5.92342e-06
-2.29724e-06
6.37275e-06
-2.1878e-06
6.70086e-06
-1.9483e-06
6.83474e-06
-1.5791e-06
6.68459e-06
-1.10903e-06
6.14916e-06
-6.07067e-07
5.12767e-06
-1.87912e-07
3.54001e-06
1.35895e-06
-1.39027e-07
-1.09519e-06
-4.6752e-07
-2.88722e-06
-8.89542e-07
-4.24417e-06
-1.32467e-06
-5.18215e-06
-1.71734e-06
-5.75086e-06
-2.03613e-06
-6.01451e-06
-2.26884e-06
-6.03997e-06
-2.41649e-06
-5.88923e-06
-2.48805e-06
-5.61547e-06
-2.49622e-06
-5.2618e-06
-2.45479e-06
-4.86166e-06
-2.37689e-06
-4.43998e-06
-2.27413e-06
-4.01462e-06
-2.15632e-06
-3.59785e-06
-2.03139e-06
-3.19757e-06
-1.90557e-06
-2.81838e-06
-1.78365e-06
-2.46246e-06
-1.66921e-06
-2.13018e-06
-1.56487e-06
-1.8206e-06
-1.47256e-06
-1.53187e-06
-1.39363e-06
-1.26148e-06
-1.32908e-06
-1.00642e-06
-1.27964e-06
-7.63386e-07
-1.24586e-06
-5.2882e-07
-1.22824e-06
-2.99001e-07
-1.22718e-06
-7.00868e-08
-1.24306e-06
1.61852e-07
-1.27621e-06
4.00799e-07
-1.32688e-06
6.5076e-07
-1.39515e-06
9.1572e-07
-1.48086e-06
1.19958e-06
-1.58345e-06
1.50604e-06
-1.70177e-06
1.8385e-06
-1.83383e-06
2.19979e-06
-1.97651e-06
2.59188e-06
-2.12518e-06
3.01544e-06
-2.27334e-06
3.46923e-06
-2.41219e-06
3.94925e-06
-2.53028e-06
4.44763e-06
-2.61344e-06
4.95125e-06
-2.64499e-06
5.44006e-06
-2.60672e-06
5.88515e-06
-2.48095e-06
6.24698e-06
-2.25402e-06
6.47393e-06
-1.9216e-06
6.50232e-06
-1.49558e-06
6.25857e-06
-1.01162e-06
5.66519e-06
-5.34848e-07
4.6509e-06
-1.60054e-07
3.16522e-06
1.19889e-06
-1.20374e-07
-9.74812e-07
-4.1485e-07
-2.59275e-06
-8.09638e-07
-3.84939e-06
-1.23919e-06
-4.7526e-06
-1.65402e-06
-5.33603e-06
-2.02193e-06
-5.6466e-06
-2.32586e-06
-5.73604e-06
-2.56035e-06
-5.65475e-06
-2.72777e-06
-5.44805e-06
-2.83519e-06
-5.15437e-06
-2.89196e-06
-4.80489e-06
-2.90802e-06
-4.42391e-06
-2.89293e-06
-4.02971e-06
-2.85529e-06
-3.6355e-06
-2.80247e-06
-3.25039e-06
-2.74063e-06
-2.88022e-06
-2.67477e-06
-2.52832e-06
-2.60885e-06
-2.19609e-06
-2.54598e-06
-1.88347e-06
-2.48854e-06
-1.58931e-06
-2.43838e-06
-1.31164e-06
-2.39689e-06
-1.04791e-06
-2.36515e-06
-7.95128e-07
-2.34397e-06
-5.50001e-07
-2.33397e-06
-3.08999e-07
-2.33562e-06
-6.84408e-08
-2.34922e-06
1.75451e-07
-2.37491e-06
4.26495e-07
-2.41265e-06
6.88494e-07
-2.46209e-06
9.6516e-07
-2.52253e-06
1.26002e-06
-2.59276e-06
1.57628e-06
-2.6709e-06
1.91664e-06
-2.75417e-06
2.28306e-06
-2.83868e-06
2.67639e-06
-2.91916e-06
3.09592e-06
-2.98869e-06
3.53877e-06
-3.03854e-06
3.9991e-06
-3.05807e-06
4.46716e-06
-3.03496e-06
4.92814e-06
-2.95581e-06
5.36091e-06
-2.80742e-06
5.73676e-06
-2.57887e-06
6.01842e-06
-2.2647e-06
6.15977e-06
-1.86913e-06
6.10675e-06
-1.41084e-06
5.80028e-06
-9.27397e-07
5.18176e-06
-4.77614e-07
4.20112e-06
-1.39367e-07
2.82697e-06
1.05953e-06
-1.06605e-07
-8.68207e-07
-3.74294e-07
-2.32506e-06
-7.44868e-07
-3.47881e-06
-1.16448e-06
-4.33298e-06
-1.58975e-06
-4.91076e-06
-1.9896e-06
-5.24675e-06
-2.34469e-06
-5.38096e-06
-2.64535e-06
-5.35409e-06
-2.88919e-06
-5.2042e-06
-3.07871e-06
-4.96485e-06
-3.21933e-06
-4.66427e-06
-3.31792e-06
-4.32532e-06
-3.38179e-06
-3.96585e-06
-3.41799e-06
-3.5993e-06
-3.43297e-06
-3.23541e-06
-3.43239e-06
-2.8808e-06
-3.42107e-06
-2.53964e-06
-3.40304e-06
-2.21413e-06
-3.38157e-06
-1.90494e-06
-3.35932e-06
-1.61156e-06
-3.3384e-06
-1.33256e-06
-3.32047e-06
-1.06584e-06
-3.30681e-06
-8.08779e-07
-3.29841e-06
-5.584e-07
-3.29598e-06
-3.11438e-07
-3.29996e-06
-6.4459e-08
-3.31058e-06
1.86076e-07
-3.32782e-06
4.43729e-07
-3.35133e-06
7.12007e-07
-3.38043e-06
9.94261e-07
-3.41398e-06
1.29357e-06
-3.45029e-06
1.61258e-06
-3.48694e-06
1.9533e-06
-3.5207e-06
2.31682e-06
-3.54728e-06
2.70297e-06
-3.56122e-06
3.10986e-06
-3.55577e-06
3.53332e-06
-3.52288e-06
3.96621e-06
-3.45333e-06
4.3976e-06
-3.33714e-06
4.81196e-06
-3.16441e-06
5.18818e-06
-2.92662e-06
5.49897e-06
-2.6186e-06
5.7104e-06
-2.24116e-06
5.78232e-06
-1.80419e-06
5.66978e-06
-1.32986e-06
5.32595e-06
-8.5499e-07
4.70689e-06
-4.3147e-07
3.7776e-06
-1.23474e-07
2.51898e-06
9.36053e-07
-9.62014e-08
-7.72005e-07
-3.42654e-07
-2.07861e-06
-6.92308e-07
-3.12916e-06
-1.10038e-06
-3.92491e-06
-1.52896e-06
-4.48218e-06
-1.94899e-06
-4.82672e-06
-2.34035e-06
-4.9896e-06
-2.6909e-06
-5.00354e-06
-2.99488e-06
-4.90022e-06
-3.25126e-06
-4.70848e-06
-3.46219e-06
-4.45334e-06
-3.63179e-06
-4.15572e-06
-3.76514e-06
-3.8325e-06
-3.86765e-06
-3.49679e-06
-3.94461e-06
-3.15844e-06
-4.00094e-06
-2.82447e-06
-4.04102e-06
-2.49956e-06
-4.06867e-06
-2.18649e-06
-4.08711e-06
-1.8865e-06
-4.09906e-06
-1.59961e-06
-4.10674e-06
-1.32488e-06
-4.11192e-06
-1.06066e-06
-4.11599e-06
-8.04703e-07
-4.12002e-06
-5.54377e-07
-4.12472e-06
-3.06739e-07
-4.13052e-06
-5.8655e-08
-4.13755e-06
1.93107e-07
-4.14561e-06
4.51788e-07
-4.15414e-06
7.20534e-07
-4.16216e-06
1.00229e-06
-4.16824e-06
1.29964e-06
-4.17033e-06
1.61468e-06
-4.16576e-06
1.94872e-06
-4.15104e-06
2.3021e-06
-4.12186e-06
2.67379e-06
-4.07296e-06
3.06096e-06
-3.99817e-06
3.45853e-06
-3.89051e-06
3.85855e-06
-3.74251e-06
4.2496e-06
-3.54671e-06
4.61616e-06
-3.29656e-06
4.93803e-06
-2.98765e-06
5.19006e-06
-2.61942e-06
5.34217e-06
-2.19721e-06
5.36011e-06
-1.73447e-06
5.20704e-06
-1.25473e-06
4.84621e-06
-7.92676e-07
4.24483e-06
-3.93652e-07
3.37858e-06
-1.10917e-07
2.23624e-06
8.25136e-07
-8.81842e-08
-6.83821e-07
-3.17666e-07
-1.84913e-06
-6.49492e-07
-2.79733e-06
-1.04585e-06
-3.52856e-06
-1.47354e-06
-4.05448e-06
-1.90575e-06
-4.39451e-06
-2.32251e-06
-4.57284e-06
-2.7103e-06
-4.61575e-06
-3.06111e-06
-4.54942e-06
-3.37127e-06
-4.39831e-06
-3.64033e-06
-4.18428e-06
-3.86999e-06
-3.92606e-06
-4.06334e-06
-3.63915e-06
-4.22417e-06
-3.33596e-06
-4.35654e-06
-3.02607e-06
-4.46447e-06
-2.71654e-06
-4.55174e-06
-2.41229e-06
-4.62178e-06
-2.11645e-06
-4.67761e-06
-1.83067e-06
-4.72181e-06
-1.5554e-06
-4.75659e-06
-1.29011e-06
-4.78371e-06
-1.03354e-06
-4.80458e-06
-7.83831e-07
-4.82025e-06
-5.38706e-07
-4.83142e-06
-2.95565e-07
-4.83846e-06
-5.1614e-08
-4.84139e-06
1.96034e-07
-4.83986e-06
4.50257e-07
-4.83314e-06
7.1381e-07
-4.82005e-06
9.89201e-07
-4.79894e-06
1.27854e-06
-4.76763e-06
1.58336e-06
-4.7233e-06
1.90439e-06
-4.66251e-06
2.24132e-06
-4.58116e-06
2.59243e-06
-4.47446e-06
2.95426e-06
-4.3371e-06
3.32117e-06
-4.16343e-06
3.68488e-06
-3.94782e-06
4.034e-06
-3.68528e-06
4.35361e-06
-3.37225e-06
4.625e-06
-3.00777e-06
4.82558e-06
-2.59484e-06
4.92924e-06
-2.14193e-06
4.9072e-06
-1.66451e-06
4.72962e-06
-1.18616e-06
4.36786e-06
-7.38887e-07
3.79756e-06
-3.62223e-07
3.00191e-06
-1.00773e-07
1.97479e-06
7.24363e-07
-8.19074e-08
-6.01914e-07
-2.97717e-07
-1.63332e-06
-6.14452e-07
-2.4806e-06
-9.99673e-07
-3.14334e-06
-1.4241e-06
-3.63005e-06
-1.86311e-06
-3.9555e-06
-2.29736e-06
-4.13859e-06
-2.71269e-06
-4.20042e-06
-3.09963e-06
-4.16248e-06
-3.45261e-06
-4.04533e-06
-3.76911e-06
-3.86778e-06
-4.04888e-06
-3.64629e-06
-4.29322e-06
-3.39481e-06
-4.50444e-06
-3.12475e-06
-4.68539e-06
-2.84512e-06
-4.83914e-06
-2.56278e-06
-4.96879e-06
-2.28264e-06
-5.07727e-06
-2.00798e-06
-5.16724e-06
-1.7407e-06
-5.2411e-06
-1.48154e-06
-5.30087e-06
-1.23034e-06
-5.34825e-06
-9.86157e-07
-5.38458e-06
-7.47505e-07
-5.41084e-06
-5.12444e-07
-5.42767e-06
-2.78732e-07
-5.43536e-06
-4.39277e-08
-5.43381e-06
1.94491e-07
-5.42258e-06
4.39021e-07
-5.40079e-06
6.92017e-07
-5.36714e-06
9.55557e-07
-5.3199e-06
1.23129e-06
-5.25681e-06
1.52027e-06
-5.17515e-06
1.82273e-06
-5.07167e-06
2.13783e-06
-4.94265e-06
2.46341e-06
-4.78399e-06
2.79561e-06
-4.5914e-06
3.12857e-06
-4.3606e-06
3.45408e-06
-4.0878e-06
3.7612e-06
-3.77026e-06
4.03607e-06
-3.40702e-06
4.26177e-06
-2.99989e-06
4.41845e-06
-2.55449e-06
4.48384e-06
-2.08138e-06
4.43409e-06
-1.597e-06
4.24524e-06
-1.12425e-06
3.89511e-06
-6.92353e-07
3.36566e-06
-3.35832e-07
2.64539e-06
-9.24457e-08
1.73141e-06
6.31917e-07
-7.69337e-08
-5.2498e-07
-2.81659e-07
-1.42859e-06
-5.85674e-07
-2.17658e-06
-9.6069e-07
-2.76832e-06
-1.38063e-06
-3.21011e-06
-1.82288e-06
-3.51325e-06
-2.26891e-06
-3.69257e-06
-2.70439e-06
-3.76494e-06
-3.11896e-06
-3.74791e-06
-3.50569e-06
-3.6586e-06
-3.8605e-06
-3.51297e-06
-4.18154e-06
-3.32525e-06
-4.46861e-06
-3.10774e-06
-4.72268e-06
-2.87067e-06
-4.94548e-06
-2.62232e-06
-5.13918e-06
-2.36908e-06
-5.30614e-06
-2.11568e-06
-5.44872e-06
-1.86539e-06
-5.56922e-06
-1.6202e-06
-5.6697e-06
-1.38106e-06
-5.75199e-06
-1.14805e-06
-5.81761e-06
-9.20531e-07
-5.8678e-06
-6.97322e-07
-5.90342e-06
-4.76818e-07
-5.92503e-06
-2.57119e-07
-5.93282e-06
-3.61408e-08
-5.9266e-06
1.88274e-07
-5.90583e-06
4.18244e-07
-5.86954e-06
6.55734e-07
-5.8164e-06
9.02417e-07
-5.74465e-06
1.15953e-06
-5.6521e-06
1.42773e-06
-5.53619e-06
1.70683e-06
-5.39402e-06
1.99566e-06
-5.22239e-06
2.29178e-06
-5.01798e-06
2.5912e-06
-4.77754e-06
2.88813e-06
-4.49819e-06
3.17473e-06
-4.17783e-06
3.44084e-06
-3.81569e-06
3.67393e-06
-3.413e-06
3.85907e-06
-2.97369e-06
3.97915e-06
-2.50532e-06
4.01547e-06
-2.01971e-06
3.94849e-06
-1.53363e-06
3.75915e-06
-1.06889e-06
3.43037e-06
-6.52095e-07
2.94886e-06
-3.13536e-07
2.30683e-06
-8.55366e-08
1.50341e-06
5.4638e-07
-7.29615e-08
-4.52019e-07
-2.6867e-07
-1.23288e-06
-5.62009e-07
-1.88324e-06
-9.27907e-07
-2.40242e-06
-1.34288e-06
-2.79514e-06
-1.78606e-06
-3.07006e-06
-2.2398e-06
-3.23883e-06
-2.68986e-06
-3.31487e-06
-3.12536e-06
-3.3124e-06
-3.53844e-06
-3.24553e-06
-3.92384e-06
-3.12757e-06
-4.27844e-06
-2.97065e-06
-4.60082e-06
-2.78536e-06
-4.89078e-06
-2.58071e-06
-5.14905e-06
-2.36405e-06
-5.37695e-06
-2.14119e-06
-5.57612e-06
-1.91651e-06
-5.74839e-06
-1.69312e-06
-5.89559e-06
-1.473e-06
-6.01946e-06
-1.25719e-06
-6.12157e-06
-1.04594e-06
-6.20325e-06
-8.38854e-07
-6.26555e-06
-6.35014e-07
-6.30925e-06
-4.33122e-07
-6.33477e-06
-2.31602e-07
-6.3422e-06
-2.87111e-08
-6.33128e-06
1.77354e-07
-6.30138e-06
3.8835e-07
-6.25153e-06
6.05875e-07
-6.18035e-06
8.31242e-07
-6.08615e-06
1.06534e-06
-5.96691e-06
1.30848e-06
-5.8203e-06
1.56022e-06
-5.64383e-06
1.81919e-06
-5.43488e-06
2.08284e-06
-5.19095e-06
2.34727e-06
-4.90983e-06
2.60701e-06
-4.58992e-06
2.85481e-06
-4.23064e-06
3.08156e-06
-3.83291e-06
3.2762e-06
-3.39969e-06
3.42584e-06
-2.93658e-06
3.51605e-06
-2.45244e-06
3.53133e-06
-1.95987e-06
3.45591e-06
-1.47548e-06
3.27476e-06
-1.01992e-06
2.97482e-06
-6.17392e-07
2.54633e-06
-2.94678e-07
1.98412e-06
-7.97778e-08
1.28851e-06
4.66603e-07
-6.97807e-08
-3.82238e-07
-2.5816e-07
-1.0445e-06
-5.42601e-07
-1.5988e-06
-9.00526e-07
-2.0445e-06
-1.31053e-06
-2.38513e-06
-1.75323e-06
-2.62737e-06
-2.2118e-06
-2.78025e-06
-2.67227e-06
-2.85441e-06
-3.12346e-06
-2.86121e-06
-3.55688e-06
-2.8121e-06
-3.96642e-06
-2.71803e-06
-4.34796e-06
-2.5891e-06
-4.69908e-06
-2.43425e-06
-5.01863e-06
-2.26116e-06
-5.30644e-06
-2.07623e-06
-5.56308e-06
-1.88456e-06
-5.78954e-06
-1.69005e-06
-5.9871e-06
-1.49555e-06
-6.15718e-06
-1.30293e-06
-6.30115e-06
-1.11322e-06
-6.42031e-06
-9.26779e-07
-6.51578e-06
-7.43384e-07
-6.58845e-06
-5.6235e-07
-6.63892e-06
-3.82647e-07
-6.66752e-06
-2.02999e-07
-6.67425e-06
-2.19823e-08
-6.65877e-06
1.61874e-07
-6.62042e-06
3.49992e-07
-6.55818e-06
5.43638e-07
-6.47075e-06
7.43809e-07
-6.35652e-06
9.5111e-07
-6.21365e-06
1.16561e-06
-6.04014e-06
1.38671e-06
-5.83392e-06
1.61296e-06
-5.59299e-06
1.8419e-06
-5.3156e-06
2.06988e-06
-5.00052e-06
2.29193e-06
-4.64732e-06
2.50161e-06
-4.25672e-06
2.69096e-06
-3.83103e-06
2.85051e-06
-3.37459e-06
2.9694e-06
-2.89423e-06
3.03569e-06
-2.39971e-06
3.03681e-06
-1.90397e-06
2.96018e-06
-1.42332e-06
2.79411e-06
-9.77205e-07
2.5287e-06
-5.87724e-07
2.15685e-06
-2.78797e-07
1.67519e-06
-7.49858e-08
1.08469e-06
3.91617e-07
-6.7244e-08
-3.14994e-07
-2.49707e-07
-8.6204e-07
-5.26819e-07
-1.32169e-06
-8.77928e-07
-1.69339e-06
-1.28328e-06
-1.97978e-06
-1.72471e-06
-2.18594e-06
-2.18615e-06
-2.31881e-06
-2.6539e-06
-2.38666e-06
-3.1167e-06
-2.39841e-06
-3.56563e-06
-2.36317e-06
-3.99394e-06
-2.28973e-06
-4.39678e-06
-2.18626e-06
-4.7709e-06
-2.06012e-06
-5.11438e-06
-1.91768e-06
-5.42632e-06
-1.76429e-06
-5.70661e-06
-1.60427e-06
-5.95567e-06
-1.44099e-06
-6.17431e-06
-1.27691e-06
-6.36352e-06
-1.11372e-06
-6.52435e-06
-9.52388e-07
-6.65783e-06
-7.93301e-07
-6.76485e-06
-6.36359e-07
-6.84614e-06
-4.81066e-07
-6.90216e-06
-3.26628e-07
-6.93311e-06
-1.72039e-07
-6.93893e-06
-1.61708e-08
-6.9192e-06
1.42145e-07
-6.87323e-06
3.04024e-07
-6.80003e-06
4.70443e-07
-6.69836e-06
6.42133e-07
-6.56673e-06
8.19481e-07
-6.40352e-06
1.0024e-06
-6.20703e-06
1.19023e-06
-5.97564e-06
1.38157e-06
-5.70791e-06
1.57417e-06
-5.40282e-06
1.76479e-06
-5.06e-06
1.94911e-06
-4.68001e-06
2.12162e-06
-4.26466e-06
2.27562e-06
-3.8174e-06
2.40324e-06
-3.34361e-06
2.49562e-06
-2.85104e-06
2.54312e-06
-2.35002e-06
2.53578e-06
-1.85363e-06
2.46379e-06
-1.37772e-06
2.3182e-06
-9.40634e-07
2.09161e-06
-5.62726e-07
1.77894e-06
-2.65576e-07
1.37804e-06
-7.10343e-08
8.90152e-07
3.20583e-07
-6.52477e-08
-2.49746e-07
-2.43009e-07
-6.84279e-07
-5.14205e-07
-1.05049e-06
-8.59653e-07
-1.34794e-06
-1.26088e-06
-1.57856e-06
-1.7007e-06
-1.74611e-06
-2.1637e-06
-1.85581e-06
-2.63646e-06
-1.9139e-06
-3.1077e-06
-1.92718e-06
-3.56823e-06
-1.90264e-06
-4.01086e-06
-1.8471e-06
-4.43017e-06
-1.76696e-06
-4.82229e-06
-1.668e-06
-5.18468e-06
-1.5553e-06
-5.51583e-06
-1.43313e-06
-5.81509e-06
-1.30502e-06
-6.08238e-06
-1.17369e-06
-6.31809e-06
-1.04121e-06
-6.52284e-06
-9.08969e-07
-6.6974e-06
-7.7783e-07
-6.84254e-06
-6.48163e-07
-6.95895e-06
-5.19943e-07
-7.0472e-06
-3.92822e-07
-7.10761e-06
-2.66211e-07
-7.14031e-06
-1.39345e-07
-7.14511e-06
-1.13634e-08
-7.1216e-06
1.18626e-07
-7.06904e-06
2.51468e-07
-6.98648e-06
3.87887e-07
-6.87275e-06
5.28399e-07
-6.7265e-06
6.73232e-07
-6.54632e-06
8.22223e-07
-6.33082e-06
9.74726e-07
-6.07875e-06
1.1295e-06
-5.78921e-06
1.28463e-06
-5.4618e-06
1.43738e-06
-5.0969e-06
1.5842e-06
-4.69587e-06
1.7206e-06
-4.26143e-06
1.84118e-06
-3.79788e-06
1.93969e-06
-3.31143e-06
2.00917e-06
-2.81044e-06
2.04214e-06
-2.30562e-06
2.03095e-06
-1.81004e-06
1.96822e-06
-1.33909e-06
1.84725e-06
-9.10161e-07
1.66268e-06
-5.4215e-07
1.41093e-06
-2.54796e-07
1.09069e-06
-6.78367e-08
7.03193e-07
2.52746e-07
-6.37198e-08
-1.86027e-07
-2.37856e-07
-5.10143e-07
-5.04432e-07
-7.83916e-07
-8.45363e-07
-1.00701e-06
-1.24314e-06
-1.18078e-06
-1.68135e-06
-1.3079e-06
-2.14509e-06
-1.39208e-06
-2.62119e-06
-1.43779e-06
-3.0984e-06
-1.44996e-06
-3.56739e-06
-1.43366e-06
-4.02062e-06
-1.39387e-06
-4.45227e-06
-1.3353e-06
-4.85802e-06
-1.26225e-06
-5.23484e-06
-1.17848e-06
-5.58076e-06
-1.08722e-06
-5.89467e-06
-9.91109e-07
-6.17611e-06
-8.92247e-07
-6.42512e-06
-7.92203e-07
-6.64201e-06
-6.92072e-07
-6.82731e-06
-5.92533e-07
-6.98157e-06
-4.93903e-07
-7.10532e-06
-3.96194e-07
-7.19896e-06
-2.99178e-07
-7.26274e-06
-2.02438e-07
-7.29665e-06
-1.05428e-07
-7.30049e-06
-7.52506e-09
-7.27378e-06
9.19109e-08
-7.21579e-06
1.93484e-07
-7.12561e-06
2.97702e-07
-7.00212e-06
4.04911e-07
-6.84412e-06
5.15232e-07
-6.65038e-06
6.28485e-07
-6.41978e-06
7.44121e-07
-6.15142e-06
8.61141e-07
-5.84482e-06
9.78026e-07
-5.5001e-06
1.09267e-06
-5.11824e-06
1.20234e-06
-4.70126e-06
1.30362e-06
-4.25255e-06
1.39247e-06
-3.77708e-06
1.46422e-06
-3.28165e-06
1.51374e-06
-2.77506e-06
1.53555e-06
-2.26822e-06
1.52412e-06
-1.77415e-06
1.47414e-06
-1.30779e-06
1.3809e-06
-8.85763e-07
1.24065e-06
-5.2583e-07
1.051e-06
-2.46307e-07
8.11165e-07
-6.53336e-08
5.22219e-07
1.87412e-07
-6.26106e-08
-1.23416e-07
-2.341e-07
-3.38653e-07
-4.97274e-07
-5.20743e-07
-8.34823e-07
-6.69462e-07
-1.22994e-06
-7.85672e-07
-1.66676e-06
-8.7108e-07
-2.13076e-06
-9.28078e-07
-2.609e-06
-9.59553e-07
-3.09026e-06
-9.68698e-07
-3.5651e-06
-9.58816e-07
-4.02579e-06
-9.33174e-07
-4.46623e-06
-8.94866e-07
-4.88175e-06
-8.46723e-07
-5.26898e-06
-7.91251e-07
-5.62561e-06
-7.30594e-07
-5.95019e-06
-6.66527e-07
-6.24198e-06
-6.00456e-07
-6.50073e-06
-5.33448e-07
-6.72655e-06
-4.66252e-07
-6.91975e-06
-3.99338e-07
-7.08072e-06
-3.32934e-07
-7.20985e-06
-2.67065e-07
-7.30743e-06
-2.01592e-07
-7.37362e-06
-1.36253e-07
-7.40835e-06
-7.06938e-08
-7.41136e-06
-4.51402e-09
-7.38215e-06
6.27008e-08
-7.32001e-06
1.31338e-07
-7.22402e-06
2.01719e-07
-7.09317e-06
2.74054e-07
-6.92633e-06
3.48398e-07
-6.72245e-06
4.24606e-07
-6.48061e-06
5.02278e-07
-6.20018e-06
5.80716e-07
-5.88103e-06
6.58873e-07
-5.52368e-06
7.35314e-07
-5.12952e-06
8.08186e-07
-4.7011e-06
8.75203e-07
-4.24229e-06
9.33659e-07
-3.75854e-06
9.80468e-07
-3.25704e-06
1.01224e-06
-2.74688e-06
1.0254e-06
-2.23911e-06
1.01634e-06
-1.74664e-06
9.81664e-07
-1.28408e-06
9.18341e-07
-8.67446e-07
8.24016e-07
-5.13661e-07
6.97211e-07
-2.40011e-07
5.37515e-07
-6.34853e-08
3.45693e-07
1.23927e-07
-6.18876e-08
-6.15283e-08
-2.31645e-07
-1.68895e-07
-4.92577e-07
-2.59811e-07
-8.27875e-07
-3.34164e-07
-1.22117e-06
-3.92373e-07
-1.65698e-06
-4.35271e-07
-2.12104e-06
-4.64027e-07
-2.60053e-06
-4.8006e-07
-3.08429e-06
-4.84939e-07
-3.56281e-06
-4.80293e-07
-4.02825e-06
-4.67736e-07
-4.47431e-06
-4.48803e-07
-4.89613e-06
-4.24902e-07
-5.2901e-06
-3.9728e-07
-5.65369e-06
-3.6701e-07
-5.98523e-06
-3.34981e-07
-6.28379e-06
-3.019e-07
-6.54893e-06
-2.68306e-07
-6.78061e-06
-2.34577e-07
-6.97899e-06
-2.00956e-07
-7.14436e-06
-1.6756e-07
-7.27702e-06
-1.34408e-07
-7.37718e-06
-1.01434e-07
-7.44492e-06
-6.85113e-08
-7.48014e-06
-3.54667e-08
-7.48255e-06
-2.1038e-09
-7.45163e-06
3.17805e-08
-7.38667e-06
6.63752e-08
-7.28679e-06
1.01835e-07
-7.15099e-06
1.3826e-07
-6.97826e-06
1.75669e-07
-6.76764e-06
2.13982e-07
-6.51835e-06
2.52989e-07