/*--------------------------------*- C++ -*----------------------------------*\
  =========                 |
  \\      /  F ield         | OpenFOAM: The Open Source CFD Toolbox
   \\    /   O peration     | Website:  https://openfoam.org
    \\  /    A nd           | Version:  7
     \\/     M anipulation  |
\*---------------------------------------------------------------------------*/
FoamFile
{
    version     2.0;
    format      ascii;
    class       volVectorField;
    location    "0.03";
    object      U;
}
// * * * * * * * * * * * * * * * * * * * * * * * * * * * * * * * * * * * * * //

dimensions      [0 1 -1 0 0 0 0];

internalField   nonuniform List<vector> 
2500
(
(0.29026 -0.15242 0)
(0.389561 -0.128244 0)
(0.565454 -0.0747365 0)
(0.683264 -0.0422253 0)
(0.752812 -0.0245136 0)
(0.797754 -0.0148634 0)
(0.828826 -0.00954833 0)
(0.851184 -0.00651932 0)
(0.867863 -0.00469137 0)
(0.880689 -0.00351429 0)
(0.890776 -0.00270961 0)
(0.898836 -0.00213164 0)
(0.90535 -0.00170029 0)
(0.910658 -0.00136891 0)
(0.915007 -0.00110868 0)
(0.918581 -0.000900758 0)
(0.92152 -0.000732232 0)
(0.923935 -0.000593855 0)
(0.92591 -0.000478773 0)
(0.927512 -0.000381739 0)
(0.928795 -0.000298619 0)
(0.9298 -0.000226056 0)
(0.930556 -0.000161245 0)
(0.931086 -0.000101759 0)
(0.931406 -4.54286e-05 0)
(0.931523 9.76083e-06 0)
(0.931438 6.57283e-05 0)
(0.931146 0.000124478 0)
(0.930635 0.000188082 0)
(0.929886 0.00025882 0)
(0.928871 0.00033931 0)
(0.927554 0.000432666 0)
(0.925885 0.000542729 0)
(0.923804 0.000674385 0)
(0.921231 0.000834055 0)
(0.918064 0.00103044 0)
(0.91417 0.00127576 0)
(0.909372 0.00158778 0)
(0.903434 0.00199358 0)
(0.896028 0.0025366 0)
(0.886686 0.00329086 0)
(0.874711 0.00439068 0)
(0.859014 0.00609472 0)
(0.837791 0.00892378 0)
(0.807986 0.013938 0)
(0.764326 0.0232294 0)
(0.695876 0.0407605 0)
(0.577945 0.0737434 0)
(0.398064 0.128749 0)
(0.293877 0.153793 0)
(0.00109579 -0.294916 0)
(0.0168787 -0.298636 0)
(0.152321 -0.213002 0)
(0.282774 -0.145256 0)
(0.387796 -0.0995167 0)
(0.470803 -0.0696383 0)
(0.535953 -0.0502426 0)
(0.587109 -0.0374084 0)
(0.627622 -0.028624 0)
(0.660062 -0.022387 0)
(0.686306 -0.0178064 0)
(0.707719 -0.014343 0)
(0.725311 -0.0116602 0)
(0.739839 -0.00954086 0)
(0.751876 -0.00783919 0)
(0.761867 -0.00645407 0)
(0.770161 -0.00531291 0)
(0.777031 -0.00436199 0)
(0.782696 -0.00356042 0)
(0.78733 -0.00287622 0)
(0.79107 -0.00228371 0)
(0.794025 -0.00176169 0)
(0.796276 -0.00129216 0)
(0.797885 -0.000859401 0)
(0.798892 -0.000449183 0)
(0.799318 -4.81956e-05 0)
(0.799169 0.00035648 0)
(0.798432 0.000777956 0)
(0.797074 0.00123 0)
(0.795045 0.00172767 0)
(0.792274 0.00228809 0)
(0.788662 0.00293137 0)
(0.784085 0.00368197 0)
(0.77838 0.0045705 0)
(0.771343 0.00563642 0)
(0.762711 0.00693198 0)
(0.752148 0.00852835 0)
(0.739219 0.0105253 0)
(0.72335 0.0130673 0)
(0.703781 0.0163706 0)
(0.679479 0.0207709 0)
(0.649021 0.0268102 0)
(0.610424 0.0353938 0)
(0.560911 0.0480737 0)
(0.496744 0.0675098 0)
(0.413454 0.0980061 0)
(0.306131 0.145674 0)
(0.170443 0.217241 0)
(0.0268893 0.307182 0)
(0.00518957 0.303023 0)
(-0.0329126 -0.250425 0)
(-0.0615966 -0.344044 0)
(-0.0115763 -0.310492 0)
(0.0705683 -0.251294 0)
(0.158423 -0.195628 0)
(0.2406 -0.150916 0)
(0.312744 -0.117088 0)
(0.374178 -0.091883 0)
(0.425814 -0.0730087 0)
(0.469019 -0.0586862 0)
(0.505146 -0.0476414 0)
(0.535385 -0.0389841 0)
(0.560735 -0.0320947 0)
(0.582012 -0.0265372 0)
(0.599882 -0.0220001 0)
(0.614885 -0.0182557 0)
(0.627462 -0.0151345 0)
(0.63797 -0.0125069 0)
(0.646703 -0.0102719 0)
(0.653896 -0.00834883 0)
(0.659742 -0.00667165 0)
(0.664391 -0.00518507 0)
(0.667961 -0.0038415 0)
(0.670538 -0.00259884 0)
(0.67218 -0.00141871 0)
(0.672919 -0.000264902 0)
(0.672762 0.000897926 0)
(0.67169 0.00210554 0)
(0.669655 0.00339555 0)
(0.666586 0.0048089 0)
(0.662377 0.00639177 0)
(0.656888 0.00819796 0)
(0.649941 0.010292 0)
(0.641309 0.0127536 0)
(0.630704 0.0156836 0)
(0.617772 0.0192128 0)
(0.602065 0.0235145 0)
(0.583023 0.028824 0)
(0.559942 0.0354672 0)
(0.531937 0.0439048 0)
(0.497897 0.0547994 0)
(0.456452 0.0691154 0)
(0.405976 0.0882563 0)
(0.344706 0.114221 0)
(0.271201 0.149655 0)
(0.18558 0.197325 0)
(0.0918651 0.257764 0)
(0.00165978 0.323118 0)
(-0.0569861 0.36146 0)
(-0.0321745 0.263989 0)
(-0.0267723 -0.190647 0)
(-0.065476 -0.332931 0)
(-0.0647451 -0.351228 0)
(-0.027954 -0.318733 0)
(0.0288068 -0.271225 0)
(0.0924608 -0.224444 0)
(0.155309 -0.183882 0)
(0.213572 -0.150458 0)
(0.265751 -0.123444 0)
(0.311571 -0.101712 0)
(0.351347 -0.0841814 0)
(0.385639 -0.0699515 0)
(0.415074 -0.058312 0)
(0.440261 -0.0487148 0)
(0.461754 -0.0407389 0)
(0.480041 -0.034059 0)
(0.495546 -0.0284209 0)
(0.508627 -0.0236233 0)
(0.51959 -0.0195043 0)
(0.528688 -0.0159307 0)
(0.536131 -0.0127915 0)
(0.542088 -0.00999151 0)
(0.54669 -0.00744773 0)
(0.550036 -0.00508554 0)
(0.552192 -0.00283617 0)
(0.553194 -0.000634246 0)
(0.553047 0.00158438 0)
(0.551728 0.00388478 0)
(0.549182 0.00633516 0)
(0.54532 0.00900944 0)
(0.540019 0.0119903 0)
(0.533117 0.0153728 0)
(0.524408 0.0192695 0)
(0.513634 0.0238166 0)
(0.50048 0.0291828 0)
(0.484565 0.035581 0)
(0.465428 0.0432845 0)
(0.44252 0.0526495 0)
(0.415195 0.0641445 0)
(0.38271 0.0783903 0)
(0.344252 0.0962063 0)
(0.299007 0.118654 0)
(0.246335 0.147045 0)
(0.186141 0.182813 0)
(0.119574 0.227031 0)
(0.050292 0.279024 0)
(-0.0136728 0.333046 0)
(-0.0581106 0.371798 0)
(-0.0647767 0.355715 0)
(-0.0272999 0.204765 0)
(-0.0178595 -0.149165 0)
(-0.0532135 -0.30272 0)
(-0.0739673 -0.354353 0)
(-0.067302 -0.349362 0)
(-0.038619 -0.318321 0)
(0.00287594 -0.278633 0)
(0.0499787 -0.238891 0)
(0.0979464 -0.202726 0)
(0.143955 -0.171254 0)
(0.186522 -0.144448 0)
(0.225013 -0.121834 0)
(0.259295 -0.10281 0)
(0.289504 -0.0867984 0)
(0.315916 -0.0732855 0)
(0.33886 -0.0618383 0)
(0.358675 -0.0520965 0)
(0.375689 -0.0437618 0)
(0.390198 -0.0365864 0)
(0.402471 -0.0303626 0)
(0.412737 -0.0249147 0)
(0.421192 -0.0200911 0)
(0.427999 -0.0157593 0)
(0.433286 -0.0118011 0)
(0.43715 -0.00810864 0)
(0.439654 -0.00458105 0)
(0.440834 -0.0011216 0)
(0.440693 0.00236518 0)
(0.439202 0.00597627 0)
(0.436302 0.0098131 0)
(0.431899 0.0139848 0)
(0.425865 0.0186122 0)
(0.418032 0.0238323 0)
(0.408194 0.0298041 0)
(0.396099 0.0367156 0)
(0.381447 0.0447937 0)
(0.363893 0.0543147 0)
(0.343041 0.0656195 0)
(0.318455 0.0791299 0)
(0.289677 0.0953662 0)
(0.256267 0.114961 0)
(0.217883 0.138659 0)
(0.174423 0.167268 0)
(0.126278 0.201512 0)
(0.0747424 0.241666 0)
(0.0226127 0.286756 0)
(-0.0250519 0.33296 0)
(-0.0602383 0.37073 0)
(-0.0723748 0.380469 0)
(-0.0544741 0.327765 0)
(-0.0186656 0.162368 0)
(-0.0114488 -0.120838 0)
(-0.0404258 -0.269524 0)
(-0.0683192 -0.33926 0)
(-0.0787084 -0.355934 0)
(-0.0704624 -0.342138 0)
(-0.0483628 -0.313402 0)
(-0.0175819 -0.279133 0)
(0.0176326 -0.24449 0)
(0.0541848 -0.212011 0)
(0.090028 -0.182737 0)
(0.123928 -0.156915 0)
(0.155216 -0.134405 0)
(0.183593 -0.1149 0)
(0.208996 -0.0980425 0)
(0.231501 -0.0834756 0)
(0.251259 -0.0708696 0)
(0.268459 -0.0599294 0)
(0.2833 -0.0503939 0)
(0.295978 -0.0420334 0)
(0.306673 -0.0346452 0)
(0.315543 -0.0280488 0)
(0.322726 -0.0220817 0)
(0.32833 -0.0165954 0)
(0.33244 -0.0114517 0)
(0.33511 -0.00651982 0)
(0.336369 -0.00167261 0)
(0.336215 0.00321596 0)
(0.334618 0.00827413 0)
(0.331518 0.0136356 0)
(0.326824 0.019443 0)
(0.320413 0.0258523 0)
(0.312131 0.0330374 0)
(0.301793 0.0411953 0)
(0.289178 0.0505532 0)
(0.274042 0.0613753 0)
(0.256116 0.0739713 0)
(0.235122 0.088703 0)
(0.210797 0.10599 0)
(0.182931 0.126306 0)
(0.151433 0.15016 0)
(0.116437 0.178037 0)
(0.0784659 0.210276 0)
(0.0386646 0.246811 0)
(-0.000884335 0.28669 0)
(-0.0368273 0.327236 0)
(-0.0643374 0.362691 0)
(-0.0773232 0.382294 0)
(-0.0698953 0.368198 0)
(-0.0424759 0.294667 0)
(-0.0122098 0.13279 0)
(-0.00750213 -0.100741 0)
(-0.0306444 -0.238979 0)
(-0.0592207 -0.316753 0)
(-0.0780926 -0.348265 0)
(-0.0831472 -0.3491 0)
(-0.0758858 -0.331769 0)
(-0.0593114 -0.305047 0)
(-0.0365656 -0.274565 0)
(-0.0103622 -0.243669 0)
(0.0172161 -0.214186 0)
(0.0446975 -0.187002 0)
(0.0711073 -0.162451 0)
(0.0958461 -0.140555 0)
(0.118582 -0.121171 0)
(0.139165 -0.104081 0)
(0.157566 -0.0890377 0)
(0.173829 -0.0757895 0)
(0.188043 -0.0640945 0)
(0.200316 -0.0537257 0)
(0.210761 -0.044472 0)
(0.219488 -0.036138 0)
(0.226594 -0.0285415 0)
(0.232162 -0.0215117 0)
(0.236254 -0.0148863 0)
(0.23891 -0.00850879 0)
(0.240148 -0.00222574 0)
(0.239962 0.00411605 0)
(0.238321 0.0106726 0)
(0.235168 0.0176057 0)
(0.230423 0.0250869 0)
(0.223978 0.0333002 0)
(0.215706 0.0424472 0)
(0.205456 0.0527503 0)
(0.193064 0.0644574 0)
(0.178357 0.0778457 0)
(0.161172 0.0932226 0)
(0.14137 0.110925 0)
(0.118879 0.131307 0)
(0.0937345 0.154718 0)
(0.0661613 0.181449 0)
(0.0366735 0.211635 0)
(0.00621381 0.245079 0)
(-0.0236788 0.280956 0)
(-0.0507039 0.317337 0)
(-0.0717267 0.350485 0)
(-0.0829681 0.373913 0)
(-0.0806506 0.377381 0)
(-0.0626059 0.346331 0)
(-0.03295 0.262922 0)
(-0.00815756 0.111343 0)
(-0.00517188 -0.0859574 0)
(-0.0237759 -0.212363 0)
(-0.0505572 -0.292064 0)
(-0.0730023 -0.332697 0)
(-0.0861052 -0.344652 0)
(-0.0893783 -0.337456 0)
(-0.0841011 -0.318619 0)
(-0.0722469 -0.293542 0)
(-0.055873 -0.26585 0)
(-0.0367844 -0.237825 0)
(-0.016417 -0.210816 0)
(0.00415963 -0.185553 0)
(0.0241908 -0.162369 0)
(0.0431726 -0.141354 0)
(0.0607906 -0.122451 0)
(0.0768673 -0.105526 0)
(0.0913211 -0.0903994 0)
(0.104134 -0.0768737 0)
(0.115328 -0.0647453 0)
(0.124948 -0.0538124 0)
(0.133048 -0.0438784 0)
(0.139683 -0.0347531 0)
(0.1449 -0.0262525 0)
(0.148737 -0.0181975 0)
(0.151217 -0.0104126 0)
(0.152346 -0.00272384 0)
(0.152114 0.00504375 0)
(0.150489 0.0130683 0)
(0.147424 0.0215337 0)
(0.14285 0.0306325 0)
(0.136687 0.0405683 0)
(0.128837 0.0515584 0)
(0.1192 0.0638357 0)
(0.107673 0.0776498 0)
(0.0941693 0.0932652 0)
(0.0786327 0.110957 0)
(0.061066 0.130996 0)
(0.0415676 0.153629 0)
(0.0203825 0.179033 0)
(-0.0020306 0.207242 0)
(-0.0249161 0.238024 0)
(-0.0471286 0.270698 0)
(-0.067049 0.303846 0)
(-0.0825534 0.334918 0)
(-0.0911244 0.359731 0)
(-0.0902335 0.371933 0)
(-0.0780787 0.362657 0)
(-0.0548926 0.320764 0)
(-0.0261157 0.234399 0)
(-0.00573494 0.0952239 0)
(-0.00377788 -0.0746166 0)
(-0.019026 -0.189438 0)
(-0.043345 -0.267591 0)
(-0.0667909 -0.31313 0)
(-0.0844726 -0.332892 0)
(-0.0948788 -0.333911 0)
(-0.0981155 -0.322301 0)
(-0.0951786 -0.302881 0)
(-0.0874388 -0.279187 0)
(-0.0762899 -0.253675 0)
(-0.0629692 -0.227964 0)
(-0.0484911 -0.203067 0)
(-0.0336422 -0.179569 0)
(-0.0190046 -0.157769 0)
(-0.00499108 -0.137772 0)
(0.0081191 -0.119564 0)
(0.0201476 -0.103051 0)
(0.0309895 -0.0880971 0)
(0.0405915 -0.0745356 0)
(0.0489342 -0.062188 0)
(0.0560189 -0.0508688 0)
(0.0618571 -0.0403898 0)
(0.0664635 -0.0305632 0)
(0.0698497 -0.0212012 0)
(0.0720206 -0.0121166 0)
(0.0729716 -0.00312152 0)
(0.072687 0.00597404 0)
(0.0711391 0.0153634 0)
(0.0682891 0.0252451 0)
(0.0640884 0.035824 0)
(0.0584816 0.0473132 0)
(0.0514114 0.0599338 0)
(0.0428261 0.0739144 0)
(0.0326897 0.0894884 0)
(0.0209967 0.106887 0)
(0.00779246 0.126328 0)
(-0.00680025 0.147995 0)
(-0.0225458 0.172 0)
(-0.0390517 0.198333 0)
(-0.0557182 0.226775 0)
(-0.0716837 0.256776 0)
(-0.0857811 0.287278 0)
(-0.0965266 0.316479 0)
(-0.102183 0.341546 0)
(-0.100967 0.35831 0)
(-0.0914762 0.361039 0)
(-0.0733349 0.342482 0)
(-0.0480999 0.29444 0)
(-0.021299 0.209223 0)
(-0.00426821 0.0826097 0)
(-0.00291218 -0.0655457 0)
(-0.0157057 -0.169582 0)
(-0.0376232 -0.244297 0)
(-0.0608243 -0.291819 0)
(-0.0809272 -0.316642 0)
(-0.0960008 -0.32389 0)
(-0.105438 -0.3184 0)
(-0.109512 -0.304284 0)
(-0.108997 -0.284784 0)
(-0.104861 -0.262325 0)
(-0.09807 -0.238634 0)
(-0.0894959 -0.214891 0)
(-0.0798703 -0.191861 0)
(-0.0697788 -0.170006 0)
(-0.0596722 -0.149574 0)
(-0.0498858 -0.130662 0)
(-0.0406609 -0.113267 0)
(-0.0321651 -0.0973144 0)
(-0.0245106 -0.0826868 0)
(-0.0177694 -0.0692367 0)
(-0.0119861 -0.0567985 0)
(-0.00718682 -0.0451952 0)
(-0.00338796 -0.0342428 0)
(-0.000601279 -0.0237527 0)
(0.00116147 -0.013533 0)
(0.00188592 -0.00338889 0)
(0.00155352 0.00687736 0)
(0.000140853 0.017467 0)
(-0.00237936 0.0285852 0)
(-0.00603609 0.0404407 0)
(-0.0108562 0.0532459 0)
(-0.0168588 0.0672146 0)
(-0.0240467 0.0825585 0)
(-0.0323956 0.0994809 0)
(-0.0418389 0.118165 0)
(-0.052248 0.138758 0)
(-0.063409 0.161341 0)
(-0.0749929 0.185892 0)
(-0.0865239 0.212224 0)
(-0.0973471 0.2399 0)
(-0.106605 0.268125 0)
(-0.113233 0.295595 0)
(-0.116001 0.32032 0)
(-0.113631 0.339446 0)
(-0.105026 0.349102 0)
(-0.089666 0.344376 0)
(-0.0680918 0.319551 0)
(-0.0424639 0.268729 0)
(-0.0178565 0.186991 0)
(-0.00334257 0.0723448 0)
(-0.00234981 -0.058022 0)
(-0.0133371 -0.15217 0)
(-0.0331552 -0.22246 0)
(-0.0555716 -0.269992 0)
(-0.0768062 -0.297746 0)
(-0.0948447 -0.30944 0)
(-0.108692 -0.308843 0)
(-0.118134 -0.299368 0)
(-0.123476 -0.283875 0)
(-0.125302 -0.264629 0)
(-0.124303 -0.243348 0)
(-0.121167 -0.221279 0)
(-0.116518 -0.199294 0)
(-0.110895 -0.177971 0)
(-0.104739 -0.157666 0)
(-0.0984024 -0.138575 0)
(-0.0921577 -0.120771 0)
(-0.0862106 -0.104246 0)
(-0.0807136 -0.0889293 0)
(-0.0757776 -0.0747105 0)
(-0.0714823 -0.0614494 0)
(-0.0678849 -0.0489861 0)
(-0.0650271 -0.037147 0)
(-0.0629403 -0.0257491 0)
(-0.0616501 -0.0146026 0)
(-0.0611781 -0.00351243 0)
(-0.0615443 0.00772018 0)
(-0.0627665 0.0192973 0)
(-0.0648597 0.0314229 0)
(-0.0678334 0.0443018 0)
(-0.0716871 0.058137 0)
(-0.0764047 0.0731256 0)
(-0.0819461 0.0894531 0)
(-0.0882361 0.107283 0)
(-0.0951511 0.126744 0)
(-0.102502 0.147904 0)
(-0.110016 0.170748 0)
(-0.117314 0.195127 0)
(-0.123894 0.220704 0)
(-0.129115 0.24688 0)
(-0.132199 0.272694 0)
(-0.132256 0.296716 0)
(-0.128356 0.316928 0)
(-0.11966 0.330626 0)
(-0.105644 0.334382 0)
(-0.0864151 0.324129 0)
(-0.0630436 0.295462 0)
(-0.0378663 0.244194 0)
(-0.0153308 0.167213 0)
(-0.00272739 0.063718 0)
(-0.00196795 -0.0515904 0)
(-0.0116085 -0.136675 0)
(-0.029671 -0.202058 0)
(-0.0511202 -0.248291 0)
(-0.0727408 -0.277376 0)
(-0.0926022 -0.292021 0)
(-0.109532 -0.295145 0)
(-0.123007 -0.289533 0)
(-0.132992 -0.277643 0)
(-0.139759 -0.261519 0)
(-0.143743 -0.242786 0)
(-0.145442 -0.222689 0)
(-0.145354 -0.202141 0)
(-0.143936 -0.18179 0)
(-0.141591 -0.162069 0)
(-0.138656 -0.143245 0)
(-0.135409 -0.125459 0)
(-0.132071 -0.108758 0)
(-0.128817 -0.093119 0)
(-0.125783 -0.078467 0)
(-0.123073 -0.0646901 0)
(-0.120767 -0.0516492 0)
(-0.118925 -0.0391862 0)
(-0.117593 -0.0271286 0)
(-0.116807 -0.0152942 0)
(-0.116594 -0.00349375 0)
(-0.116972 0.00846666 0)
(-0.117954 0.0207834 0)
(-0.119542 0.033653 0)
(-0.121727 0.0472691 0)
(-0.124486 0.0618185 0)
(-0.127771 0.0774753 0)
(-0.131509 0.0943922 0)
(-0.135584 0.112689 0)
(-0.139834 0.132436 0)
(-0.144033 0.153629 0)
(-0.147879 0.176162 0)
(-0.150982 0.199782 0)
(-0.152858 0.22404 0)
(-0.152928 0.248225 0)
(-0.150538 0.271292 0)
(-0.145002 0.291782 0)
(-0.135686 0.307758 0)
(-0.122134 0.316768 0)
(-0.104259 0.315869 0)
(-0.0825822 0.301775 0)
(-0.058438 0.271139 0)
(-0.0341118 0.221013 0)
(-0.0134225 0.14945 0)
(-0.00229686 0.0562827 0)
(-0.00169829 -0.0459537 0)
(-0.0103187 -0.122685 0)
(-0.0269392 -0.182955 0)
(-0.0474101 -0.227023 0)
(-0.0690003 -0.25626 0)
(-0.0899326 -0.272653 0)
(-0.108983 -0.278459 0)
(-0.125448 -0.27593 0)
(-0.139057 -0.267143 0)
(-0.14984 -0.253896 0)
(-0.158015 -0.237679 0)
(-0.163906 -0.219679 0)
(-0.167878 -0.200807 0)
(-0.170296 -0.181739 0)
(-0.1715 -0.16295 0)
(-0.171795 -0.144759 0)
(-0.171443 -0.127358 0)
(-0.170664 -0.110838 0)
(-0.16964 -0.0952168 0)
(-0.168518 -0.0804538 0)
(-0.167415 -0.066465 0)
(-0.166426 -0.053134 0)
(-0.165623 -0.0403204 0)
(-0.165061 -0.0278663 0)
(-0.164783 -0.0156014 0)
(-0.164817 -0.00334695 0)
(-0.165181 0.00908097 0)
(-0.16588 0.0218678 0)
(-0.166905 0.0351973 0)
(-0.168231 0.0492469 0)
(-0.169815 0.0641822 0)
(-0.171586 0.0801502 0)
(-0.173444 0.0972683 0)
(-0.175251 0.115612 0)
(-0.176818 0.135197 0)
(-0.177906 0.155955 0)
(-0.178209 0.177705 0)
(-0.177357 0.200116 0)
(-0.174915 0.222663 0)
(-0.170395 0.244576 0)
(-0.163289 0.264787 0)
(-0.153115 0.281885 0)
(-0.139502 0.294082 0)
(-0.122305 0.299217 0)
(-0.101752 0.294829 0)
(-0.0786166 0.278296 0)
(-0.0543306 0.247103 0)
(-0.0310195 0.199187 0)
(-0.0119397 0.133348 0)
(-0.0019814 0.0497474 0)
(-0.0015015 -0.0409107 0)
(-0.00933695 -0.109882 0)
(-0.0247796 -0.164981 0)
(-0.0443371 -0.206318 0)
(-0.0656757 -0.234845 0)
(-0.0871903 -0.252037 0)
(-0.107674 -0.259641 0)
(-0.126331 -0.259474 0)
(-0.142735 -0.253266 0)
(-0.156734 -0.242574 0)
(-0.168377 -0.228731 0)
(-0.177832 -0.212834 0)
(-0.185339 -0.195759 0)
(-0.191169 -0.178174 0)
(-0.195592 -0.160573 0)
(-0.198867 -0.143305 0)
(-0.201226 -0.126592 0)
(-0.202876 -0.110563 0)
(-0.203991 -0.0952663 0)
(-0.20472 -0.0806922 0)
(-0.205186 -0.066782 0)
(-0.205488 -0.053442 0)
(-0.205705 -0.040551 0)
(-0.205896 -0.0279681 0)
(-0.206107 -0.0155377 0)
(-0.206366 -0.00309505 0)
(-0.206688 0.00952975 0)
(-0.20707 0.0225074 0)
(-0.207493 0.0360049 0)
(-0.207922 0.0501799 0)
(-0.208296 0.0651746 0)
(-0.208529 0.0811067 0)
(-0.208505 0.0980591 0)
(-0.20807 0.116066 0)
(-0.207031 0.135095 0)
(-0.20515 0.155025 0)
(-0.202138 0.17562 0)
(-0.197666 0.196497 0)
(-0.191368 0.217089 0)
(-0.182861 0.236612 0)
(-0.171782 0.254025 0)
(-0.15784 0.268009 0)
(-0.140886 0.276962 0)
(-0.121013 0.279027 0)
(-0.0986638 0.272173 0)
(-0.0747497 0.254337 0)
(-0.0507013 0.223639 0)
(-0.0284451 0.17864 0)
(-0.010759 0.118624 0)
(-0.00174138 0.0439139 0)
(-0.001354 -0.0363212 0)
(-0.00857654 -0.0980228 0)
(-0.0230566 -0.147975 0)
(-0.0417941 -0.186207 0)
(-0.0627746 -0.213397 0)
(-0.0845583 -0.23065 0)
(-0.10599 -0.239324 0)
(-0.126237 -0.240879 0)
(-0.144773 -0.23675 0)
(-0.161322 -0.228263 0)
(-0.175793 -0.21659 0)
(-0.18823 -0.202723 0)
(-0.198762 -0.187476 0)
(-0.207567 -0.171491 0)
(-0.214846 -0.155256 0)
(-0.220805 -0.139128 0)
(-0.22564 -0.123351 0)
(-0.229533 -0.108075 0)
(-0.232644 -0.0933731 0)
(-0.235116 -0.0792591 0)
(-0.237066 -0.0656978 0)
(-0.238593 -0.0526163 0)
(-0.239778 -0.0399127 0)
(-0.240681 -0.0274639 0)
(-0.241345 -0.0151313 0)
(-0.241798 -0.00276635 0)
(-0.242049 0.00978431 0)
(-0.242091 0.022674 0)
(-0.241896 0.0360505 0)
(-0.241418 0.05005 0)
(-0.240587 0.0647901 0)
(-0.239307 0.0803604 0)
(-0.237454 0.0968116 0)
(-0.234873 0.114142 0)
(-0.231374 0.13228 0)
(-0.226735 0.151066 0)
(-0.220701 0.170227 0)
(-0.212996 0.189353 0)
(-0.20333 0.207866 0)
(-0.191431 0.225 0)
(-0.177071 0.239776 0)
(-0.160124 0.250998 0)
(-0.140621 0.257262 0)
(-0.118829 0.256998 0)
(-0.0953305 0.248553 0)
(-0.071098 0.230316 0)
(-0.0475066 0.200887 0)
(-0.0262804 0.159269 0)
(-0.00980004 0.105056 0)
(-0.00155329 0.0386415 0)
(-0.00124109 -0.032084 0)
(-0.00797902 -0.0869219 0)
(-0.0216704 -0.131789 0)
(-0.0396873 -0.166675 0)
(-0.0602696 -0.192071 0)
(-0.0821252 -0.208814 0)
(-0.104165 -0.217966 0)
(-0.125552 -0.220697 0)
(-0.145701 -0.218189 0)
(-0.164248 -0.211561 0)
(-0.181001 -0.201829 0)
(-0.195901 -0.189871 0)
(-0.20898 -0.176427 0)
(-0.220337 -0.162094 0)
(-0.230103 -0.147339 0)
(-0.238432 -0.132513 0)
(-0.24548 -0.117866 0)
(-0.251398 -0.10356 0)
(-0.256327 -0.0896849 0)
(-0.260396 -0.0762721 0)
(-0.263713 -0.0633053 0)
(-0.266373 -0.0507304 0)
(-0.268452 -0.0384642 0)
(-0.270006 -0.0264012 0)
(-0.271078 -0.0144204 0)
(-0.27169 -0.00239101 0)
(-0.271846 0.00982246 0)
(-0.271535 0.0223544 0)
(-0.270723 0.0353326 0)
(-0.269356 0.0488714 0)
(-0.267358 0.0630644 0)
(-0.26463 0.0779752 0)
(-0.261049 0.0936268 0)
(-0.256463 0.109988 0)
(-0.250698 0.12696 0)
(-0.243559 0.144357 0)
(-0.234831 0.161886 0)
(-0.224296 0.179132 0)
(-0.211747 0.195531 0)
(-0.197013 0.210359 0)
(-0.17999 0.222724 0)
(-0.160687 0.231563 0)
(-0.139275 0.23567 0)
(-0.116147 0.233735 0)
(-0.0919662 0.224428 0)
(-0.0677198 0.206497 0)
(-0.0447014 0.178903 0)
(-0.0244462 0.140962 0)
(-0.00900959 0.0924658 0)
(-0.00140267 0.0338267 0)
(-0.00115326 -0.0281247 0)
(-0.00750425 -0.0764338 0)
(-0.0205477 -0.116294 0)
(-0.03794 -0.147679 0)
(-0.0581223 -0.17095 0)
(-0.0799297 -0.186747 0)
(-0.102342 -0.1959 0)
(-0.124534 -0.199348 0)
(-0.145892 -0.198058 0)
(-0.165993 -0.192968 0)
(-0.184567 -0.184942 0)
(-0.201475 -0.174749 0)
(-0.216672 -0.163045 0)
(-0.230184 -0.150371 0)
(-0.242081 -0.137164 0)
(-0.252465 -0.123755 0)
(-0.261451 -0.110388 0)
(-0.26916 -0.0972289 0)
(-0.27571 -0.0843765 0)
(-0.28121 -0.0718746 0)
(-0.285759 -0.0597214 0)
(-0.289439 -0.047879 0)
(-0.292321 -0.0362806 0)
(-0.294458 -0.0248382 0)
(-0.295884 -0.0134483 0)
(-0.296619 -0.00199799 0)
(-0.296663 0.00962979 0)
(-0.295997 0.0215503 0)
(-0.294585 0.0338711 0)
(-0.292368 0.0466857 0)
(-0.28927 0.0600657 0)
(-0.285192 0.0740523 0)
(-0.280014 0.0886457 0)
(-0.2736 0.103794 0)
(-0.265795 0.119379 0)
(-0.256435 0.135202 0)
(-0.245352 0.150969 0)
(-0.232389 0.166274 0)
(-0.217414 0.180588 0)
(-0.20035 0.193247 0)
(-0.181199 0.203454 0)
(-0.160079 0.210286 0)
(-0.137268 0.212722 0)
(-0.113242 0.209686 0)
(-0.0887106 0.200113 0)
(-0.064644 0.183037 0)
(-0.0422465 0.15769 0)
(-0.0228857 0.123608 0)
(-0.00835178 0.0807077 0)
(-0.00128024 0.0293899 0)
(-0.00108416 -0.0243865 0)
(-0.00712429 -0.0664435 0)
(-0.0196351 -0.101382 0)
(-0.0364918 -0.129169 0)
(-0.0562946 -0.150074 0)
(-0.0779851 -0.164588 0)
(-0.100608 -0.173363 0)
(-0.12336 -0.177149 0)
(-0.145616 -0.176733 0)
(-0.166911 -0.17289 0)
(-0.186925 -0.16635 0)
(-0.205453 -0.15777 0)
(-0.222386 -0.147722 0)
(-0.237691 -0.136688 0)
(-0.251384 -0.125061 0)
(-0.263519 -0.113146 0)
(-0.274173 -0.101173 0)
(-0.283436 -0.0893026 0)
(-0.291401 -0.0776365 0)
(-0.298157 -0.0662252 0)
(-0.303788 -0.0550775 0)
(-0.308368 -0.0441686 0)
(-0.311956 -0.0334466 0)
(-0.314599 -0.0228391 0)
(-0.316326 -0.0122596 0)
(-0.31715 -0.00161273 0)
(-0.317069 0.00920044 0)
(-0.316058 0.0202765 0)
(-0.314079 0.0317041 0)
(-0.311072 0.0435572 0)
(-0.306961 0.0558885 0)
(-0.301651 0.0687205 0)
(-0.295035 0.0820367 0)
(-0.28699 0.0957714 0)
(-0.277386 0.109798 0)
(-0.266094 0.123916 0)
(-0.252991 0.137843 0)
(-0.237979 0.151197 0)
(-0.220998 0.163496 0)
(-0.202049 0.174147 0)
(-0.181224 0.182455 0)
(-0.158727 0.187634 0)
(-0.134914 0.188832 0)
(-0.110314 0.185174 0)
(-0.0856587 0.175817 0)
(-0.0618857 0.16002 0)
(-0.0401114 0.137218 0)
(-0.0215585 0.1071 0)
(-0.00780215 0.0696587 0)
(-0.00117992 0.0252678 0)
(-0.00102952 -0.0208254 0)
(-0.00681954 -0.0568586 0)
(-0.0188938 -0.0869562 0)
(-0.0352966 -0.111086 0)
(-0.0547533 -0.12945 0)
(-0.0762933 -0.142427 0)
(-0.0990182 -0.150526 0)
(-0.122152 -0.154341 0)
(-0.145066 -0.154508 0)
(-0.167272 -0.151661 0)
(-0.188409 -0.146404 0)
(-0.208227 -0.139291 0)
(-0.226565 -0.130809 0)
(-0.243339 -0.121377 0)
(-0.25852 -0.111338 0)
(-0.272121 -0.100967 0)
(-0.284184 -0.0904723 0)
(-0.294767 -0.0800033 0)
(-0.303941 -0.0696576 0)
(-0.311775 -0.0594885 0)
(-0.318338 -0.0495116 0)
(-0.323691 -0.0397121 0)
(-0.327885 -0.0300506 0)
(-0.330958 -0.0204692 0)
(-0.332933 -0.0108972 0)
(-0.333818 -0.00125549 0)
(-0.333606 0.00853736 0)
(-0.33227 0.0185605 0)
(-0.329769 0.028885 0)
(-0.326046 0.039568 0)
(-0.321026 0.050646 0)
(-0.314622 0.0621276 0)
(-0.306738 0.0739853 0)
(-0.29727 0.0861466 0)
(-0.286114 0.0984849 0)
(-0.273175 0.110809 0)
(-0.258374 0.122857 0)
(-0.241666 0.134283 0)
(-0.223052 0.144661 0)
(-0.202605 0.153474 0)
(-0.180483 0.160132 0)
(-0.15696 0.163975 0)
(-0.132448 0.164308 0)
(-0.10751 0.160427 0)
(-0.0828778 0.151672 0)
(-0.0594541 0.137478 0)
(-0.0382733 0.117433 0)
(-0.0204359 0.0913318 0)
(-0.0073439 0.0592122 0)
(-0.0010976 0.021408 0)
(-0.000986393 -0.0174061 0)
(-0.0065762 -0.0476024 0)
(-0.0182956 -0.0729345 0)
(-0.0343198 -0.0933736 0)
(-0.0534715 -0.109071 0)
(-0.0748512 -0.120316 0)
(-0.0976097 -0.127505 0)
(-0.120996 -0.131103 0)
(-0.144386 -0.131614 0)
(-0.167277 -0.129549 0)
(-0.18928 -0.125398 0)
(-0.210109 -0.119616 0)
(-0.229565 -0.112612 0)
(-0.247522 -0.104735 0)
(-0.263913 -0.0962803 0)
(-0.278716 -0.0874837 0)
(-0.291942 -0.0785281 0)
(-0.303623 -0.0695471 0)
(-0.313806 -0.0606302 0)
(-0.322544 -0.0518289 0)
(-0.329889 -0.0431621 0)
(-0.335892 -0.0346225 0)
(-0.340592 -0.0261809 0)
(-0.34402 -0.0177923 0)
(-0.346194 -0.00939992 0)
(-0.347116 -0.000940352 0)
(-0.346775 0.00765205 0)
(-0.345143 0.0164403 0)
(-0.342178 0.02548 0)
(-0.337823 0.0348138 0)
(-0.332009 0.0444654 0)
(-0.324659 0.0544339 0)
(-0.315687 0.064686 0)
(-0.305009 0.0751493 0)
(-0.292547 0.0857044 0)
(-0.278235 0.0961779 0)
(-0.262036 0.106335 0)
(-0.243952 0.115877 0)
(-0.224036 0.124436 0)
(-0.202417 0.131578 0)
(-0.179309 0.136811 0)
(-0.155039 0.139598 0)
(-0.130054 0.139378 0)
(-0.104938 0.135599 0)
(-0.0804176 0.12775 0)
(-0.0573559 0.115405 0)
(-0.0367161 0.0982663 0)
(-0.0194982 0.0762029 0)
(-0.00696544 0.0492732 0)
(-0.0010305 0.0177659 0)
(-0.000952731 -0.0140992 0)
(-0.00638452 -0.0386098 0)
(-0.0178206 -0.0592424 0)
(-0.0335359 -0.075973 0)
(-0.0524286 -0.0889138 0)
(-0.0736551 -0.0982827 0)
(-0.0964066 -0.10438 0)
(-0.119956 -0.107566 0)
(-0.143684 -0.108229 0)
(-0.16708 -0.106769 0)
(-0.189738 -0.103574 0)
(-0.211344 -0.0990078 0)
(-0.231669 -0.0933979 0)
(-0.250557 -0.08703 0)
(-0.267908 -0.080145 0)
(-0.283672 -0.0729395 0)
(-0.297834 -0.0655668 0)
(-0.310402 -0.0581404 0)
(-0.321404 -0.0507381 0)
(-0.330877 -0.0434063 0)
(-0.33886 -0.0361646 0)
(-0.345391 -0.0290104 0)
(-0.350502 -0.0219229 0)
(-0.354216 -0.014868 0)
(-0.356544 -0.0078018 0)
(-0.357485 -0.000674837 0)
(-0.357024 0.00656399 0)
(-0.355133 0.0139633 0)
(-0.351768 0.0215652 0)
(-0.346877 0.0294002 0)
(-0.340394 0.037483 0)
(-0.332251 0.0458065 0)
(-0.322375 0.0543369 0)
(-0.310699 0.0630072 0)
(-0.297167 0.0717117 0)
(-0.281744 0.0803006 0)
(-0.264426 0.0885751 0)
(-0.245252 0.0962847 0)
(-0.224323 0.103126 0)
(-0.201808 0.108748 0)
(-0.177968 0.112753 0)
(-0.153164 0.114718 0)
(-0.127871 0.114204 0)
(-0.102683 0.110787 0)
(-0.0783159 0.104079 0)
(-0.0555967 0.0937666 0)
(-0.035429 0.0796389 0)
(-0.0187314 0.0616134 0)
(-0.00665881 0.0397544 0)
(-0.000976711 0.0143019 0)
(-0.000927133 -0.0108798 0)
(-0.0062377 -0.0298241 0)
(-0.0174544 -0.0458128 0)
(-0.0329267 -0.0588269 0)
(-0.0516093 -0.0689473 0)
(-0.0727014 -0.0763327 0)
(-0.0954261 -0.081204 0)
(-0.119075 -0.0838262 0)
(-0.143038 -0.0844902 0)
(-0.166798 -0.0834954 0)
(-0.189936 -0.0811353 0)
(-0.212122 -0.0776865 0)
(-0.233102 -0.0734003 0)
(-0.252697 -0.0684975 0)
(-0.270784 -0.0631658 0)
(-0.287289 -0.0575593 0)
(-0.302175 -0.0517996 0)
(-0.315434 -0.0459774 0)
(-0.327076 -0.040156 0)
(-0.337123 -0.034374 0)
(-0.345605 -0.0286491 0)
(-0.35255 -0.0229815 0)
(-0.35798 -0.0173572 0)
(-0.361914 -0.0117511 0)
(-0.364357 -0.00613106 0)
(-0.365306 -0.000460076 0)
(-0.364741 0.0052998 0)
(-0.362634 0.0111844 0)
(-0.358942 0.0172242 0)
(-0.353615 0.0234402 0)
(-0.346593 0.0298404 0)
(-0.337814 0.0364158 0)
(-0.327218 0.0431355 0)
(-0.314753 0.0499427 0)
(-0.300381 0.0567505 0)
(-0.284091 0.0634374 0)
(-0.265908 0.0698449 0)
(-0.245904 0.0757752 0)
(-0.22421 0.0809919 0)
(-0.201033 0.0852227 0)
(-0.176664 0.0881654 0)
(-0.151491 0.0894986 0)
(-0.126007 0.088895 0)
(-0.100809 0.0860402 0)
(-0.0766018 0.080653 0)
(-0.0541819 0.072509 0)
(-0.0344048 0.0614626 0)
(-0.0181265 0.0474646 0)
(-0.00641855 0.0305742 0)
(-0.00093491 0.01098 0)
(-0.000908642 -0.00772597 0)
(-0.00613107 -0.0211944 0)
(-0.0171871 -0.032583 0)
(-0.0324794 -0.0418783 0)
(-0.0510029 -0.0491347 0)
(-0.0719878 -0.0544604 0)
(-0.0946807 -0.0580063 0)
(-0.118389 -0.0599547 0)
(-0.142506 -0.0605068 0)
(-0.166516 -0.0598705 0)
(-0.18999 -0.0582511 0)
(-0.212586 -0.0558429 0)
(-0.234034 -0.0528232 0)
(-0.254138 -0.0493489 0)
(-0.272757 -0.0455542 0)
(-0.289801 -0.0415496 0)
(-0.305216 -0.0374231 0)
(-0.31898 -0.0332408 0)
(-0.331091 -0.0290492 0)
(-0.341562 -0.0248774 0)
(-0.350411 -0.0207393 0)
(-0.357659 -0.0166362 0)
(-0.363324 -0.0125591 0)
(-0.367417 -0.00849127 0)
(-0.369942 -0.0044105 0)
(-0.37089 -0.000291411 0)
(-0.370243 0.00389213 0)
(-0.367969 0.00816465 0)
(-0.364028 0.0125465 0)
(-0.35837 0.0170513 0)
(-0.350942 0.0216829 0)
(-0.341686 0.0264327 0)
(-0.330553 0.0312765 0)
(-0.317501 0.0361711 0)
(-0.302509 0.0410517 0)
(-0.285585 0.0458294 0)
(-0.266773 0.0503887 0)
(-0.246169 0.0545871 0)
(-0.22393 0.0582555 0)
(-0.200288 0.0612007 0)
(-0.175555 0.0632098 0)
(-0.150139 0.0640583 0)
(-0.124542 0.0635195 0)
(-0.0993641 0.0613775 0)
(-0.0752974 0.0574416 0)
(-0.0531161 0.0515617 0)
(-0.0336394 0.0436432 0)
(-0.0176771 0.0336585 0)
(-0.00624101 0.0216544 0)
(-0.000904212 0.00776653 0)
(-0.000896627 -0.00461765 0)
(-0.00606153 -0.0126736 0)
(-0.0170122 -0.019494 0)
(-0.0321854 -0.0250705 0)
(-0.0506022 -0.0294348 0)
(-0.0715127 -0.0326497 0)
(-0.0941791 -0.0348031 0)
(-0.117918 -0.0360017 0)
(-0.142129 -0.0363636 0)
(-0.166295 -0.0360113 0)
(-0.189982 -0.0350661 0)
(-0.212839 -0.0336432 0)
(-0.234589 -0.0318484 0)
(-0.255022 -0.0297752 0)
(-0.273986 -0.0275041 0)
(-0.29138 -0.0251018 0)
(-0.307141 -0.0226212 0)
(-0.321236 -0.0201027 0)
(-0.333655 -0.0175747 0)
(-0.344403 -0.0150551 0)
(-0.353493 -0.0125529 0)
(-0.360941 -0.0100692 0)
(-0.366759 -0.00759914 0)
(-0.370956 -0.0051331 0)
(-0.373533 -0.00265811 0)
(-0.374479 -0.00015934 0)
(-0.373774 0.00237848 0)
(-0.371386 0.00496959 0)
(-0.367277 0.00762569 0)
(-0.361398 0.0103543 0)
(-0.353697 0.013157 0)
(-0.344124 0.0160278 0)
(-0.332634 0.0189512 0)
(-0.319194 0.0219003 0)
(-0.303794 0.0248353 0)
(-0.286453 0.0277018 0)
(-0.267232 0.0304298 0)
(-0.24624 0.0329332 0)
(-0.223652 0.0351107 0)
(-0.199714 0.0368467 0)
(-0.174755 0.038015 0)
(-0.149192 0.0384828 0)
(-0.123535 0.038117 0)
(-0.0983821 0.0367914 0)
(-0.074419 0.0343956 0)
(-0.0524032 0.0308435 0)
(-0.0331301 0.0260819 0)
(-0.0173793 0.0200973 0)
(-0.00612381 0.0129193 0)
(-0.000884035 0.0046296 0)
(-0.000890709 -0.00153618 0)
(-0.0060272 -0.00421724 0)
(-0.0169257 -0.00648847 0)
(-0.0320397 -0.00834714 0)
(-0.0504029 -0.00980359 0)
(-0.0712753 -0.0108784 0)
(-0.0939268 -0.0116004 0)
(-0.11768 -0.0120049 0)
(-0.141935 -0.0121306 0)
(-0.166175 -0.0120181 0)
(-0.189965 -0.0117074 0)
(-0.21295 -0.0112369 0)
(-0.234846 -0.0106415 0)
(-0.25544 -0.00995235 0)