/*--------------------------------*- C++ -*----------------------------------*\
  =========                 |
  \\      /  F ield         | OpenFOAM: The Open Source CFD Toolbox
   \\    /   O peration     | Website:  https://openfoam.org
    \\  /    A nd           | Version:  7
     \\/     M anipulation  |
\*---------------------------------------------------------------------------*/
FoamFile
{
    version     2.0;
    format      ascii;
    class       volScalarField;
    location    "0.0046";
    object      p;
}
// * * * * * * * * * * * * * * * * * * * * * * * * * * * * * * * * * * * * * //

dimensions      [0 2 -2 0 0 0 0];

internalField   nonuniform List<scalar> 
2500
(
1.30547e-07
6.37215
9.01501
10.0862
10.6578
10.9932
11.2016
11.3448
11.4537
11.5432
11.6211
11.6915
11.7568
11.8185
11.8774
11.9342
11.9891
12.0425
12.0947
12.1458
12.1961
12.2457
12.2948
12.3435
12.392
12.4404
12.4888
12.5375
12.5866
12.6362
12.6866
12.7379
12.7905
12.8447
12.9009
12.9596
13.0215
13.0875
13.1591
13.2382
13.328
13.4338
13.5644
13.7359
13.9805
14.3624
14.9995
16.1656
18.9241
25.4168
4.87938
7.46684
8.86745
9.73327
10.3222
10.7194
10.9917
11.1878
11.3368
11.4557
11.5549
11.6409
11.7177
11.7879
11.8533
11.9149
11.9736
12.03
12.0846
12.1377
12.1897
12.2408
12.2911
12.341
12.3906
12.4401
12.4896
12.5394
12.5896
12.6405
12.6924
12.7455
12.8002
12.857
12.9165
12.9794
13.0468
13.1203
13.2019
13.2949
13.4039
13.5363
13.7036
13.9244
14.2293
14.6697
15.3162
16.2552
17.7419
20.4423
7.73724
8.48485
9.21174
9.81999
10.2943
10.6495
10.9152
11.1183
11.278
11.4076
11.5162
11.61
11.6931
11.7682
11.8374
11.9021
11.9633
12.0217
12.0779
12.1323
12.1854
12.2375
12.2887
12.3394
12.3897
12.4398
12.4901
12.5406
12.5916
12.6433
12.6961
12.7503
12.8063
12.8647
12.9261
12.9915
13.0621
13.1395
13.2262
13.3254
13.4421
13.5833
13.7591
13.9841
14.2793
14.6729
15.196
15.8598
16.6418
17.4487
9.17128
9.32885
9.69128
10.0784
10.4168
10.6965
10.9241
11.1094
11.262
11.39
11.4995
11.5951
11.6802
11.7574
11.8284
11.8947
11.9572
12.0167
12.0738
12.1291
12.1829
12.2355
12.2873
12.3384
12.3892
12.4397
12.4904
12.5413
12.5928
12.645
12.6984
12.7532
12.8099
12.8691
12.9315
12.9979
13.0697
13.1485
13.2365
13.3366
13.453
13.5912
13.7584
13.9638
14.2179
14.5313
14.9097
15.3385
15.7363
15.9191
10.0059
9.96312
10.1226
10.3535
10.5832
10.7928
10.9773
11.1369
11.2747
11.3944
11.4995
11.593
11.6772
11.7542
11.8254
11.892
11.9548
12.0147
12.0722
12.1277
12.1818
12.2347
12.2867
12.3381
12.3891
12.4399
12.4908
12.5419
12.5936
12.6461
12.6997
12.7547
12.8117
12.8711
12.9337
13.0003
13.072
13.1503
13.2371
13.3347
13.4464
13.5757
13.7273
13.9055
14.1139
14.3523
14.6138
14.8748
15.0557
15.0197
10.5336
10.4254
10.4789
10.6097
10.7608
10.913
11.0573
11.1896
11.3093
11.417
11.5144
11.6028
11.6838
11.7587
11.8285
11.8941
11.9564
12.0158
12.0731
12.1285
12.1824
12.2353
12.2872
12.3386
12.3896
12.4404
12.4912
12.5424
12.594
12.6465
12.7
12.7549
12.8117
12.8709
12.933
12.9988
13.0693
13.1457
13.2294
13.3222
13.4262
13.5436
13.6765
13.8261
13.9915
14.1676
14.343
14.4946
14.5596
14.4484
10.8834
10.7643
10.7662
10.836
10.9326
11.0405
11.1507
11.2577
11.3588
11.4532
11.5409
11.6225
11.6986
11.7699
11.8371
11.9009
11.9617
12.0201
12.0765
12.1313
12.1848
12.2372
12.2888
12.3399
12.3906
12.4411
12.4918
12.5427
12.5941
12.6462
12.6994
12.7539
12.8101
12.8685
12.9295
12.9938
13.0622
13.1356
13.2149
13.3014
13.3962
13.5003
13.614
13.7366
13.8648
13.9919
14.1064
14.1898
14.1968
14.0705
11.1274
11.0169
10.9955
11.0289
11.089
11.1644
11.2474
11.3325
11.4165
11.4978
11.5755
11.6494
11.7197
11.7866
11.8504
11.9115
11.9703
12.0271
12.0823
12.136
12.1886
12.2403
12.2913
12.3419
12.3921
12.4422
12.4924
12.5429
12.5938
12.6454
12.698
12.7517
12.807
12.8641
12.9236
12.9859
13.0515
13.121
13.1952
13.2746
13.3596
13.4503
13.5461
13.6449
13.7429
13.8331
13.9059
13.9477
13.9276
13.8088
11.3055
11.2091
11.1783
11.1907
11.2269
11.2791
11.3411
11.4084
11.4776
11.5468
11.6148
11.6811
11.7453
11.8073
11.8672
11.9253
11.9816
12.0364
12.0899
12.1423
12.1938
12.2445
12.2947
12.3445
12.3941
12.4436
12.4931
12.543
12.5932
12.6441
12.6958
12.7485
12.8025
12.8581
12.9156
12.9754
13.0378
13.1031
13.1717
13.2437
13.3191
13.3973
13.4771
13.5561
13.6302
13.6935
13.7384
13.7557
13.7242
13.6199
11.4403
11.3582
11.3251
11.3256
11.3464
11.3823
11.4287
11.4817
11.5385
11.5971
11.6564
11.7153
11.7735
11.8306
11.8865
11.9412
11.9948
12.0474
12.099
12.1498
12.1999
12.2495
12.2987
12.3476
12.3963
12.445
12.4938
12.5428
12.5922
12.6422
12.6928
12.7443
12.7968
12.8506
12.9059
12.9629
13.0217
13.0826
13.1456
13.2104
13.2768
13.3438
13.4099
13.4726
13.5285
13.5725
13.5992
13.6024
13.5676
13.4786
11.5453
11.476
11.4439
11.4381
11.4492
11.4737
11.5084
11.5503
11.597
11.6467
11.6981
11.7504
11.8029
11.8552
11.9072
11.9585
12.0093
12.0595
12.1091
12.1582
12.2068
12.2551
12.3032
12.351
12.3988
12.4465
12.4944
12.5425
12.5909
12.6398
12.6892
12.7392
12.7901
12.8419
12.8948
12.9489
13.0041
13.0605
13.1179
13.176
13.2342
13.2914
13.3461
13.396
13.4381
13.4686
13.4835
13.4789
13.4448
13.3698
11.6292
11.5708
11.5411
11.5322
11.5371
11.5538
11.58
11.6133
11.6519
11.6941
11.7388
11.7851
11.8325
11.8804
11.9285
11.9765
12.0245
12.0723
12.1198
12.1671
12.2142
12.2611
12.3079
12.3546
12.4013
12.4481
12.4949
12.542
12.5893
12.6369
12.685
12.7335
12.7826
12.8323
12.8827
12.9338
12.9854
13.0375
13.0897
13.1417
13.1926
13.2415
13.2868
13.3266
13.3585
13.3795
13.387
13.3785
13.3469
13.2839
11.6977
11.6482
11.6215
11.6112
11.6124
11.6237
11.6436
11.6704
11.7024
11.7384
11.7774
11.8186
11.8613
11.9051
11.9497
11.9947
12.0399
12.0853
12.1308
12.1763
12.2218
12.2673
12.3128
12.3583
12.4038
12.4495
12.4953
12.5412
12.5873
12.6337
12.6803
12.7273
12.7745
12.8221
12.87
12.9181
12.9663
13.0143
13.0618
13.1083
13.1529
13.1948
13.2326
13.2646
13.2889
13.3034
13.3063
13.296
13.2675
13.2146
11.7545
11.7123
11.6884
11.6778
11.6767
11.6844
11.6997
11.7214
11.7482
11.7792
11.8134
11.8502
11.8889
11.9291
11.9703
12.0124
12.0551
12.0983
12.1418
12.1855
12.2294
12.2734
12.3176
12.3619
12.4063
12.4508
12.4955
12.5402
12.5851
12.6302
12.6754
12.7207
12.7661
12.8116
12.8571
12.9024
12.9473
12.9916
13.0348
13.0764
13.1157
13.1518
13.1835
13.2096
13.2284
13.2384
13.2385
13.2277
13.2023
13.1575
11.8022
11.7659
11.7445
11.7341
11.7317
11.7369
11.7489
11.7667
11.7895
11.8163
11.8466
11.8795
11.9147
11.9517
11.99
12.0295
12.0698
12.1108
12.1524
12.1944
12.2368
12.2794
12.3223
12.3654
12.4086
12.452
12.4955
12.5391
12.5828
12.6265
12.6703
12.714
12.7577
12.8011
12.8443
12.8869
12.9289
12.9698
13.0092
13.0467
13.0815
13.1128
13.1397
13.1612
13.1759
13.1829
13.1813
13.1706
13.1481
13.1097
11.8427
11.811
11.7918
11.7819
11.7788
11.7822
11.7917
11.8066
11.8261
11.8496
11.8766
11.9064
11.9385
11.9727
12.0084
12.0455
12.0837
12.1228
12.1626
12.203
12.2439
12.2852
12.3268
12.3687
12.4108
12.4531
12.4955
12.5379
12.5804
12.6228
12.6652
12.7074
12.7493
12.7909
12.8319
12.8721
12.9113
12.9492
12.9854
13.0193
13.0503
13.0778
13.1009
13.1188
13.1306
13.1355
13.1329
13.1228
13.1027
13.0694
11.8772
11.849
11.8318
11.8224
11.8188
11.8211
11.8287
11.8414
11.8584
11.8792
11.9034
11.9306
11.9601
11.9918
12.0253
12.0603
12.0966
12.1339
12.1721
12.211
12.2505
12.2906
12.331
12.3718
12.4128
12.454
12.4953
12.5367
12.578
12.6192
12.6602
12.701
12.7413
12.7811
12.8201
12.8582
12.895
12.9303
12.9636
12.9945
13.0225
13.0468
13.0669
13.0822
13.0918
13.0952
13.0921
13.0825
13.0645
13.0352
11.9064
11.8811
11.8654
11.8565
11.8528
11.8542
11.8605
11.8714
11.8864
11.9051
11.9271
11.952
11.9795
12.0091
12.0406
12.0738
12.1083
12.144
12.1808
12.2184
12.2567
12.2955
12.3349
12.3746
12.4146
12.4548
12.4951
12.5354
12.5757
12.6157
12.6556
12.695
12.7338
12.772
12.8093
12.8454
12.8802
12.9132
12.9441
12.9725
12.9979
13.0197
13.0375
13.0506
13.0586
13.061
13.0577
13.0487
13.0324
13.0062
11.9311
11.908
11.8935
11.8851
11.8813
11.8822
11.8875
11.8971
11.9105
11.9275
11.9477
11.9708
11.9964
12.0243
12.0541
12.0857
12.1188
12.1531
12.1886
12.225
12.2622
12.3
12.3383
12.3771
12.4162
12.4555
12.4948
12.5342
12.5735
12.6125
12.6512
12.6894
12.727
12.7638
12.7995
12.834
12.8669
12.898
12.9269
12.9532
12.9765
12.9964
13.0123
13.0239
13.0307
13.0324
13.029
13.0205
13.0055
12.9817
11.9516
11.9303
11.9167
11.9088
11.905
11.9054
11.91
11.9186
11.9308
11.9464
11.9652
11.9868
12.0109
12.0373
12.0658
12.096
12.1279
12.161
12.1954
12.2307
12.267
12.3039
12.3414
12.3793
12.4175
12.456
12.4946
12.5331
12.5715
12.6096
12.6474
12.6845
12.721
12.7565
12.7909
12.824
12.8554
12.8849
12.9121
12.9368
12.9584
12.9767
12.9912
13.0015
13.0075
13.0087
13.0052
12.9972
12.9833
12.9614
11.9684
11.9483
11.9355
11.9279
11.9241
11.9243
11.9283
11.9361
11.9474
11.962
11.9796
12
12.023
12.0483
12.0756
12.1047
12.1355
12.1677
12.2012
12.2356
12.271
12.3072
12.3439
12.3811
12.4187
12.4564
12.4943
12.5321
12.5698
12.6071
12.644
12.6803
12.7158
12.7503
12.7836
12.8155
12.8457
12.8739
12.8998
12.9231
12.9434
12.9605
12.9739
12.9833
12.9886
12.9895
12.9861
12.9784
12.9653
12.9448
11.9815
11.9624
11.9501
11.9428
11.9391
11.9391
11.9427
11.9499
11.9605
11.9743
11.9911
12.0106
12.0327
12.057
12.0835
12.1118
12.1417
12.1731
12.2058
12.2396
12.2743
12.3098
12.346
12.3826
12.4196
12.4568
12.4941
12.5313
12.5684
12.6051
12.6413
12.6769
12.7116
12.7453
12.7777
12.8087
12.8379
12.8651
12.8899
12.9122
12.9315
12.9476
12.9602
12.969
12.9739
12.9745
12.9711
12.9638
12.9513
12.9318
11.9912
11.9728
11.961
11.9538
11.9501
11.95
11.9534
11.9602
11.9703
11.9835
11.9997
12.0185
12.0399
12.0636
12.0894
12.117
12.1464
12.1772
12.2093
12.2426
12.2768
12.3118
12.3475
12.3837
12.4203
12.457
12.4939
12.5307
12.5673
12.6035
12.6392
12.6742
12.7084
12.7415
12.7732
12.8035
12.832
12.8584
12.8825
12.9041
12.9227
12.9381
12.9501
12.9585
12.963
12.9635
12.9601
12.953
12.941
12.9222
11.9976
11.9796
11.9681
11.9611
11.9574
11.9572
11.9604
11.967
11.9768
11.9896
12.0053
12.0238
12.0447
12.068
12.0933
12.1206
12.1495
12.1799
12.2117
12.2446
12.2785
12.3132
12.3486
12.3845
12.4207
12.4572
12.4937
12.5302
12.5665
12.6024
12.6378
12.6725
12.7062
12.7389
12.7702
12.8
12.828
12.854
12.8776
12.8986
12.9168
12.9318
12.9434
12.9515
12.9558
12.9562
12.9528
12.9459
12.9341
12.9158
12.0008
11.983
11.9716
11.9647
11.961
11.9607
11.9639
11.9703
11.98
11.9926
12.0082
12.0264
12.0471
12.0702
12.0953
12.1223
12.1511
12.1813
12.2129
12.2456
12.2793
12.3139
12.3491
12.3848
12.4209
12.4573
12.4937
12.53
12.5661
12.6019
12.6371
12.6716
12.7051
12.7376
12.7687
12.7983
12.8261
12.8518
12.8751
12.8959
12.9139
12.9287
12.9401
12.948
12.9522
12.9526
12.9492
12.9423
12.9307
12.9127
12.0008
11.983
11.9716
11.9647
11.961
11.9607
11.9639
11.9703
11.98
11.9926
12.0082
12.0264
12.0471
12.0702
12.0953
12.1223
12.1511
12.1813
12.2129
12.2456
12.2793
12.3139
12.3491
12.3848
12.4209
12.4573
12.4937
12.53
12.5661
12.6019
12.6371
12.6716
12.7051
12.7376
12.7687
12.7983
12.8261
12.8518
12.8751
12.8959
12.9139
12.9287
12.9401
12.948
12.9522
12.9526
12.9492
12.9423
12.9307
12.9127
11.9976
11.9796
11.9681
11.9611
11.9574
11.9572
11.9604
11.967
11.9768
11.9896
12.0053
12.0238
12.0447
12.068
12.0933
12.1206
12.1495
12.1799
12.2117
12.2446
12.2785
12.3132
12.3486
12.3845
12.4207
12.4572
12.4937
12.5302
12.5665
12.6024
12.6378
12.6725
12.7062
12.7389
12.7702
12.8
12.828
12.854
12.8776
12.8986
12.9168
12.9318
12.9434
12.9515
12.9558
12.9562
12.9528
12.9458
12.9341
12.9158
11.9912
11.9728
11.961
11.9538
11.9501
11.95
11.9534
11.9602
11.9703
11.9835
11.9997
12.0185
12.0399
12.0636
12.0894
12.117
12.1464
12.1772
12.2093
12.2426
12.2768
12.3118
12.3475
12.3837
12.4203
12.457
12.4939
12.5307
12.5673
12.6035
12.6392
12.6742
12.7084
12.7415
12.7732
12.8035
12.832
12.8584
12.8825
12.904
12.9227
12.9381
12.9501
12.9585
12.963
12.9635
12.9601
12.953
12.9409
12.9222
11.9815
11.9624
11.9502
11.9428
11.9391
11.9391
11.9427
11.9499
11.9606
11.9743
11.9911
12.0106
12.0327
12.057
12.0835
12.1118
12.1417
12.1731
12.2058
12.2396
12.2743
12.3098
12.346
12.3826
12.4196
12.4568
12.4941
12.5313
12.5684
12.6051
12.6413
12.6769
12.7116
12.7453
12.7777
12.8087
12.8379
12.865
12.8899
12.9122
12.9315
12.9476
12.9602
12.969
12.9739
12.9745
12.9711
12.9637
12.9513
12.9318
11.9684
11.9483
11.9355
11.9279
11.9241
11.9243
11.9283
11.9361
11.9474
11.962
11.9796
12.0001
12.023
12.0483
12.0756
12.1048
12.1355
12.1677
12.2012
12.2356
12.271
12.3072
12.3439
12.3811
12.4187
12.4564
12.4943
12.5321
12.5698
12.6071
12.644
12.6803
12.7158
12.7503
12.7836
12.8155
12.8457
12.8739
12.8998
12.9231
12.9434
12.9604
12.9739
12.9833
12.9886
12.9895
12.9861
12.9784
12.9653
12.9448
11.9516
11.9303
11.9167
11.9088
11.905
11.9054
11.91
11.9186
11.9308
11.9464
11.9652
11.9868
12.0109
12.0374
12.0658
12.0961
12.1279
12.161
12.1954
12.2308
12.267
12.3039
12.3414
12.3793
12.4175
12.456
12.4946
12.5331
12.5715
12.6096
12.6474
12.6845
12.721
12.7565
12.7909
12.824
12.8554
12.8849
12.9121
12.9367
12.9584
12.9767
12.9912
13.0015
13.0075
13.0087
13.0052
12.9972
12.9833
12.9614
11.9311
11.908
11.8935
11.8851
11.8813
11.8822
11.8875
11.8971
11.9105
11.9275
11.9477
11.9708
11.9964
12.0243
12.0541
12.0857
12.1188
12.1531
12.1886
12.225
12.2622
12.3
12.3383
12.3771
12.4162
12.4555
12.4948
12.5342
12.5735
12.6125
12.6512
12.6894
12.727
12.7638
12.7995
12.834
12.8669
12.898
12.9269
12.9532
12.9765
12.9964
13.0123
13.0239
13.0307
13.0324
13.0289
13.0205
13.0055
12.9817
11.9064
11.8811
11.8654
11.8565
11.8528
11.8542
11.8605
11.8714
11.8864
11.9052
11.9272
11.952
11.9795
12.0091
12.0406
12.0738
12.1083
12.144
12.1808
12.2184
12.2567
12.2955
12.3349
12.3746
12.4146
12.4548
12.4951
12.5354
12.5757
12.6157
12.6556
12.695
12.7338
12.772
12.8093
12.8454
12.8802
12.9132
12.9441
12.9725
12.9978
13.0197
13.0375
13.0506
13.0586
13.061
13.0577
13.0487
13.0323
13.0062
11.8772
11.8491
11.8318
11.8224
11.8188
11.8211
11.8288
11.8414
11.8584
11.8792
11.9035
11.9306
11.9602
11.9919
12.0253
12.0603
12.0966
12.1339
12.1721
12.211
12.2506
12.2906
12.331
12.3718
12.4128
12.454
12.4953
12.5367
12.578
12.6192
12.6602
12.701
12.7413
12.7811
12.8201
12.8582
12.895
12.9303
12.9636
12.9945
13.0224
13.0468
13.0669
13.0821
13.0917
13.0952
13.0921
13.0825
13.0645
13.0352
11.8427
11.811
11.7918
11.7819
11.7788
11.7822
11.7917
11.8066
11.8261
11.8497
11.8766
11.9064
11.9385
11.9727
12.0084
12.0455
12.0837
12.1228
12.1626
12.203
12.2439
12.2852
12.3268
12.3687
12.4108
12.4531
12.4955
12.5379
12.5804
12.6228
12.6652
12.7074
12.7493
12.7909
12.8318
12.8721
12.9113
12.9492
12.9854
13.0193
13.0503
13.0778
13.1009
13.1188
13.1306
13.1355
13.1329
13.1227
13.1027
13.0694
11.8022
11.7659
11.7445
11.7342
11.7318
11.7369
11.7489
11.7667
11.7895
11.8163
11.8466
11.8795
11.9147
11.9517
11.99
12.0295
12.0698
12.1108
12.1524
12.1944
12.2368
12.2795
12.3223
12.3654
12.4086
12.452
12.4955
12.5391
12.5828
12.6265
12.6703
12.714
12.7576
12.8011
12.8442
12.8869
12.9288
12.9697
13.0092
13.0466
13.0814
13.1128
13.1397
13.1611
13.1759
13.1829
13.1812
13.1706
13.1481
13.1097
11.7545
11.7123
11.6884
11.6778
11.6767
11.6844
11.6997
11.7214
11.7483
11.7792
11.8134
11.8502
11.8889
11.9291
11.9703
12.0124
12.0551
12.0983
12.1418
12.1855
12.2294
12.2734
12.3176
12.3619
12.4063
12.4508
12.4955
12.5402
12.5851
12.6302
12.6754
12.7207
12.7661
12.8116
12.8571
12.9024
12.9473
12.9916
13.0348
13.0764
13.1157
13.1518
13.1835
13.2095
13.2284
13.2384
13.2384
13.2277
13.2023
13.1574
11.6977
11.6482
11.6215
11.6112
11.6124
11.6237
11.6436
11.6704
11.7024
11.7384
11.7774
11.8186
11.8613
11.9052
11.9497
11.9947
12.0399
12.0853
12.1308
12.1763
12.2218
12.2673
12.3128
12.3583
12.4038
12.4495
12.4953
12.5412
12.5873
12.6337
12.6803
12.7273
12.7745
12.8221
12.87
12.9181
12.9663
13.0143
13.0618
13.1083
13.1529
13.1948
13.2325
13.2645
13.2889
13.3034
13.3063
13.296
13.2675
13.2145
11.6292
11.5708
11.5412
11.5322
11.5371
11.5539
11.58
11.6133
11.6519
11.6941
11.7388
11.7851
11.8325
11.8804
11.9285
11.9766
12.0245
12.0723
12.1198
12.1671
12.2142
12.2611
12.3079
12.3546
12.4013
12.4481
12.4949
12.542
12.5893
12.6369
12.6849
12.7335
12.7826
12.8323
12.8827
12.9338
12.9854
13.0375
13.0897
13.1417
13.1926
13.2415
13.2868
13.3266
13.3585
13.3795
13.387
13.3785
13.3469
13.2839
11.5453
11.476
11.4439
11.4381
11.4492
11.4737
11.5084
11.5503
11.597
11.6467
11.6981
11.7504
11.8029
11.8553
11.9072
11.9586
12.0093
12.0595
12.1091
12.1582
12.2069
12.2552
12.3032
12.351
12.3988
12.4465
12.4944
12.5425
12.5909
12.6398
12.6892
12.7392
12.7901
12.8419
12.8948
12.9488
13.0041
13.0605
13.1179
13.176
13.2342
13.2914
13.346
13.3959
13.438
13.4685
13.4834
13.4789
13.4448
13.3698
11.4403
11.3582
11.3251
11.3256
11.3464
11.3823
11.4287
11.4817
11.5385
11.5972
11.6564
11.7153
11.7735
11.8306
11.8865
11.9412
11.9948
12.0474
12.099
12.1498
12.1999
12.2495
12.2987
12.3476
12.3963
12.445
12.4938
12.5428
12.5922
12.6422
12.6928
12.7443
12.7968
12.8506
12.9059
12.9629
13.0217
13.0826
13.1455
13.2104
13.2768
13.3437
13.4098
13.4726
13.5284
13.5725
13.5991
13.6023
13.5675
13.4785
11.3055
11.2091
11.1783
11.1907
11.2269
11.2791
11.3411
11.4084
11.4776
11.5468
11.6149
11.6811
11.7453
11.8073
11.8673
11.9253
11.9816
12.0364
12.0899
12.1423
12.1938
12.2445
12.2947
12.3445
12.3941
12.4436
12.4931
12.543
12.5932
12.6441
12.6958
12.7485
12.8025
12.8581
12.9156
12.9754
13.0377
13.1031
13.1717
13.2437
13.3191
13.3973
13.4771
13.556
13.6301
13.6934
13.7383
13.7556
13.7241
13.6198
11.1274
11.017
10.9955
11.0289
11.089
11.1644
11.2474
11.3325
11.4165
11.4978
11.5755
11.6495
11.7197
11.7866
11.8504
11.9116
11.9704
12.0272
12.0823
12.136
12.1886
12.2403
12.2914
12.3419
12.3921
12.4422
12.4924
12.5429
12.5938
12.6454
12.698
12.7517
12.807
12.8641
12.9236
12.9858
13.0514
13.121
13.1952
13.2746
13.3596
13.4503
13.5461
13.6449
13.7428
13.833
13.9058
13.9477
13.9276
13.8088
10.8834
10.7643
10.7662
10.836
10.9326
11.0405
11.1507
11.2577
11.3588
11.4532
11.5409
11.6225
11.6986
11.7699
11.8371
11.9009
11.9617
12.0201
12.0766
12.1313
12.1848
12.2372
12.2888
12.3399
12.3906
12.4412
12.4918
12.5427
12.5941
12.6462
12.6994
12.7539
12.8101
12.8684
12.9295
12.9938
13.0622
13.1355
13.2149
13.3014
13.3962
13.5002
13.6139
13.7365
13.8648
13.9919
14.1064
14.1897
14.1968
14.0704
10.5336
10.4254
10.4789
10.6097
10.7608
10.913
11.0573
11.1897
11.3093
11.417
11.5144
11.6028
11.6838
11.7587
11.8285
11.8941
11.9564
12.0159
12.0731
12.1285
12.1825
12.2353
12.2872
12.3386
12.3896
12.4404
12.4912
12.5424
12.594
12.6465
12.7
12.7549
12.8117
12.8708
12.9329
12.9988
13.0693
13.1456
13.2294
13.3222
13.4262
13.5436
13.6765
13.8261
13.9915
14.1676
14.343
14.4946
14.5596
14.4483
10.0059
9.96312
10.1226
10.3535
10.5832
10.7929
10.9773
11.1369
11.2747
11.3944
11.4995
11.593
11.6773
11.7542
11.8254
11.892
11.9548
12.0147
12.0722
12.1278
12.1818
12.2347
12.2867
12.3381
12.3891
12.4399
12.4908
12.5419
12.5936
12.6461
12.6996
12.7547
12.8117
12.8711
12.9337
13.0003
13.072
13.1503
13.237
13.3347
13.4463
13.5757
13.7273
13.9055
14.1139
14.3523
14.6138
14.8748
15.0557
15.0197
9.17129
9.32885
9.69129
10.0784
10.4168
10.6965
10.9241
11.1094
11.2621
11.39
11.4995
11.5951
11.6803
11.7574
11.8285
11.8947
11.9572
12.0167
12.0739
12.1291
12.1829
12.2355
12.2873
12.3384
12.3892
12.4398
12.4904
12.5413
12.5928
12.645
12.6984
12.7532
12.8099
12.8691
12.9315
12.9979
13.0697
13.1485
13.2364
13.3366
13.453
13.5911
13.7584
13.9637
14.2179
14.5313
14.9096
15.3385
15.7363
15.9191
7.73725
8.48486
9.21174
9.81999
10.2944
10.6495
10.9152
11.1183
11.278
11.4076
11.5163
11.61
11.6931
11.7682
11.8374
11.9021
11.9633
12.0217
12.0779
12.1324
12.1855
12.2375
12.2887
12.3394
12.3897
12.4398
12.4901
12.5406
12.5916
12.6433
12.6961
12.7503
12.8063
12.8647
12.9261
12.9915
13.0621
13.1395
13.2262
13.3254
13.4421
13.5833
13.7591
13.9841
14.2792
14.6729
15.1959
15.8597
16.6418
17.4487
4.87938
7.46684
8.86745
9.73327
10.3222
10.7194
10.9918
11.1878
11.3368
11.4557
11.5549
11.6409
11.7177
11.788
11.8533
11.9149
11.9736
12.03
12.0846
12.1378
12.1897
12.2408
12.2912
12.341
12.3906
12.4401
12.4896
12.5394
12.5896
12.6405
12.6924
12.7455
12.8002
12.857
12.9164
12.9794
13.0468
13.1203
13.2019
13.2948
13.4038
13.5362
13.7036
13.9243
14.2293
14.6696
15.3161
16.2552
17.7419
20.4423
1.48849e-06
6.37215
9.01501
10.0862
10.6578
10.9932
11.2016
11.3449
11.4538
11.5433
11.6211
11.6915
11.7568
11.8185
11.8775
11.9342
11.9891
12.0425
12.0947
12.1458
12.1961
12.2457
12.2948
12.3435
12.392
12.4404
12.4889
12.5375
12.5866
12.6362
12.6865
12.7379
12.7905
12.8447
12.9009
12.9596
13.0215
13.0875
13.159
13.2381
13.328
13.4338
13.5643
13.7359
13.9804
14.3623
14.9994
16.1656
18.9241
25.4168
)
;

boundaryField
{
    movingWallTop
    {
        type            zeroGradient;
    }
    movingWallBottom
    {
        type            zeroGradient;
    }
    fixedWalls
    {
        type            zeroGradient;
    }
    frontAndBack
    {
        type            empty;
    }
}


// ************************************************************************* //
