/*--------------------------------*- C++ -*----------------------------------*\
  =========                 |
  \\      /  F ield         | OpenFOAM: The Open Source CFD Toolbox
   \\    /   O peration     | Website:  https://openfoam.org
    \\  /    A nd           | Version:  7
     \\/     M anipulation  |
\*---------------------------------------------------------------------------*/
FoamFile
{
    version     2.0;
    format      ascii;
    class       surfaceScalarField;
    location    "0.0778";
    object      phi;
}
// * * * * * * * * * * * * * * * * * * * * * * * * * * * * * * * * * * * * * //

dimensions      [0 3 -1 0 0 0 0];

internalField   nonuniform List<scalar> 
4900
(
-5.55535e-06
5.55532e-06
-1.01609e-05
4.60558e-06
-1.29489e-05
2.78794e-06
-1.46696e-05
1.72069e-06
-1.57727e-05
1.10315e-06
-1.65123e-05
7.39631e-07
-1.70338e-05
5.21488e-07
-1.74191e-05
3.85246e-07
-1.77147e-05
2.95597e-07
-1.79482e-05
2.33503e-07
-1.81367e-05
1.88535e-07
-1.82914e-05
1.54724e-07
-1.84199e-05
1.28484e-07
-1.85275e-05
1.07553e-07
-1.86179e-05
9.04435e-08
-1.8694e-05
7.61359e-08
-1.8758e-05
6.39109e-08
-1.88112e-05
5.32469e-08
-1.8855e-05
4.3756e-08
-1.88901e-05
3.51436e-08
-1.89173e-05
2.71809e-08
-1.8937e-05
1.96866e-08
-1.89495e-05
1.2513e-08
-1.8955e-05
5.53671e-09
-1.89537e-05
-1.35055e-09
-1.89454e-05
-8.24405e-09
-1.89302e-05
-1.52378e-08
-1.89078e-05
-2.24242e-08
-1.88779e-05
-2.99027e-08
-1.88401e-05
-3.77849e-08
-1.87939e-05
-4.6203e-08
-1.87386e-05
-5.53197e-08
-1.86732e-05
-6.53422e-08
-1.85967e-05
-7.65411e-08
-1.85074e-05
-8.9279e-08
-1.84033e-05
-1.04052e-07
-1.82818e-05
-1.21557e-07
-1.8139e-05
-1.42795e-07
-1.79697e-05
-1.69251e-07
-1.77665e-05
-2.0321e-07
-1.75182e-05
-2.48323e-07
-1.72075e-05
-3.10682e-07
-1.68066e-05
-4.00874e-07
-1.62687e-05
-5.37949e-07
-1.55123e-05
-7.564e-07
-1.43964e-05
-1.11593e-06
-1.26814e-05
-1.71497e-06
-9.9458e-06
-2.7356e-06
-5.45242e-06
-4.49338e-06
-5.45242e-06
-1.18965e-08
5.56722e-06
-2.13088e-06
6.72457e-06
-4.85891e-06
5.51597e-06
-7.2776e-06
4.13937e-06
-9.21782e-06
3.04337e-06
-1.07322e-05
2.25406e-06
-1.19141e-05
1.70334e-06
-1.28463e-05
1.31746e-06
-1.35922e-05
1.04149e-06
-1.41977e-05
8.38976e-07
-1.46955e-05
6.86357e-07
-1.51091e-05
5.6836e-07
-1.54556e-05
4.74917e-07
-1.57473e-05
3.9924e-07
-1.59934e-05
3.36633e-07
-1.62011e-05
2.83776e-07
-1.63754e-05
2.3826e-07
-1.65205e-05
1.98304e-07
-1.66393e-05
1.62566e-07
-1.67342e-05
1.30013e-07
-1.68068e-05
9.98343e-08
-1.68585e-05
7.13818e-08
-1.68901e-05
4.41242e-08
-1.69022e-05
1.76139e-08
-1.6895e-05
-8.53819e-09
-1.68686e-05
-3.46868e-08
-1.68226e-05
-6.11686e-08
-1.67567e-05
-8.83224e-08
-1.66701e-05
-1.16508e-07
-1.65618e-05
-1.46128e-07
-1.64303e-05
-1.77654e-07
-1.6274e-05
-2.11662e-07
-1.60905e-05
-2.48876e-07
-1.58768e-05
-2.90231e-07
-1.56291e-05
-3.36959e-07
-1.53424e-05
-3.90715e-07
-1.50102e-05
-4.53771e-07
-1.46237e-05
-5.29291e-07
-1.41712e-05
-6.21786e-07
-1.36366e-05
-7.37811e-07
-1.29978e-05
-8.87098e-07
-1.22242e-05
-1.08435e-06
-1.1273e-05
-1.35201e-06
-1.00866e-05
-1.72435e-06
-8.59108e-06
-2.25194e-06
-6.70632e-06
-3.00069e-06
-4.39267e-06
-4.02862e-06
-1.81825e-06
-5.31002e-06
1.24469e-07
-6.4361e-06
-5.32795e-06
1.03228e-06
4.53494e-06
5.46157e-07
7.2107e-06
-9.94321e-07
7.05644e-06
-2.89178e-06
6.03683e-06
-4.75242e-06
4.90401e-06
-6.41568e-06
3.91732e-06
-7.84208e-06
3.12974e-06
-9.04463e-06
2.52e-06
-1.00536e-05
2.05045e-06
-1.09011e-05
1.68645e-06
-1.16154e-05
1.40068e-06
-1.22198e-05
1.17281e-06
-1.27329e-05
9.88036e-07
-1.31693e-05
8.35593e-07
-1.35403e-05
7.07609e-07
-1.38548e-05
5.98262e-07
-1.41197e-05
5.03192e-07
-1.43405e-05
4.19089e-07
-1.45213e-05
3.434e-07
-1.46654e-05
2.74128e-07
-1.47753e-05
2.09686e-07
-1.48527e-05
1.48788e-07
-1.48989e-05
9.03713e-08
-1.49149e-05
3.35328e-08
-1.49009e-05
-2.25156e-08
-1.48571e-05
-7.84922e-08
-1.47832e-05
-1.3508e-07
-1.46785e-05
-1.92961e-07
-1.45422e-05
-2.52857e-07
-1.43727e-05
-3.15564e-07
-1.41684e-05
-3.82007e-07
-1.39267e-05
-4.53298e-07
-1.36448e-05
-5.30813e-07
-1.33187e-05
-6.16296e-07
-1.29437e-05
-7.12004e-07
-1.25135e-05
-8.20896e-07
-1.20204e-05
-9.46905e-07
-1.14543e-05
-1.09533e-06
-1.08028e-05
-1.27335e-06
-1.00498e-05
-1.49084e-06
-9.17555e-06
-1.7613e-06
-8.15674e-06
-2.10316e-06
-6.96787e-06
-2.54088e-06
-5.58724e-06
-3.10498e-06
-4.01152e-06
-3.82765e-06
-2.28744e-06
-4.72478e-06
-5.72142e-07
-5.74392e-06
7.67205e-07
-6.64937e-06
1.08794e-06
-6.75684e-06
-4.24001e-06
9.05909e-07
3.62903e-06
1.22677e-06
6.88983e-06
6.39279e-07
7.64394e-06
-5.30686e-07
7.2068e-06
-1.95418e-06
6.3275e-06
-3.41289e-06
5.37603e-06
-4.78976e-06
4.50661e-06
-6.03493e-06
3.76517e-06
-7.13576e-06
3.15128e-06
-8.09752e-06
2.64821e-06
-8.93272e-06
2.23588e-06
-9.65572e-06
1.8958e-06
-1.02802e-05
1.61256e-06
-1.08185e-05
1.37382e-06
-1.12807e-05
1.16986e-06
-1.16756e-05
9.93134e-07
-1.20101e-05
8.37704e-07
-1.22899e-05
6.98919e-07
-1.25196e-05
5.73088e-07
-1.27028e-05
4.57262e-07
-1.28421e-05
3.49048e-07
-1.29398e-05
2.46483e-07
-1.29974e-05
1.47921e-07
-1.30158e-05
5.19555e-08
-1.29957e-05
-4.26505e-08
-1.29371e-05
-1.37024e-07
-1.284e-05
-2.32236e-07
-1.27036e-05
-3.2935e-07
-1.2527e-05
-4.29474e-07
-1.23087e-05
-5.33823e-07
-1.20469e-05
-6.4378e-07
-1.17392e-05
-7.60977e-07
-1.13827e-05
-8.874e-07
-1.09735e-05
-1.0255e-06
-1.05071e-05
-1.17839e-06
-9.97797e-06
-1.34999e-06
-9.37952e-06
-1.54536e-06
-8.70386e-06
-1.77099e-06
-7.942e-06
-2.03521e-06
-7.08424e-06
-2.34861e-06
-6.12119e-06
-2.72435e-06
-5.04633e-06
-3.17802e-06
-3.86102e-06
-3.72619e-06
-2.58411e-06
-4.38189e-06
-1.26866e-06
-5.14311e-06
-2.69621e-08
-5.96647e-06
9.42867e-07
-6.71375e-06
1.3496e-06
-7.05611e-06
9.1716e-07
-6.32439e-06
-3.32285e-06
6.71095e-07
2.95793e-06
1.24098e-06
6.31994e-06
1.21759e-06
7.66734e-06
6.41705e-07
7.78268e-06
-2.99124e-07
7.26833e-06
-1.42247e-06
6.49938e-06
-2.59589e-06
5.68003e-06
-3.73795e-06
4.90723e-06
-4.80507e-06
4.21841e-06
-5.77786e-06
3.621e-06
-6.65095e-06
3.10897e-06
-7.42645e-06
2.67131e-06
-8.11001e-06
2.29612e-06
-8.70852e-06
1.97233e-06
-9.229e-06
1.69034e-06
-9.67795e-06
1.44208e-06
-1.00611e-05
1.22089e-06
-1.03835e-05
1.02127e-06
-1.06491e-05
8.38746e-07
-1.08615e-05
6.69608e-07
-1.10232e-05
5.10794e-07
-1.11365e-05
3.59737e-07
-1.12028e-05
2.14258e-07
-1.12233e-05
7.24749e-08
-1.11987e-05
-6.72805e-08
-1.11292e-05
-2.06529e-07
-1.10147e-05
-3.4671e-07
-1.08548e-05
-4.89243e-07
-1.06487e-05
-6.35589e-07
-1.03952e-05
-7.8732e-07
-1.00928e-05
-9.46193e-07
-9.73956e-06
-1.11424e-06
-9.3331e-06
-1.29386e-06
-8.87065e-06
-1.48795e-06
-8.349e-06
-1.70005e-06
-7.76452e-06
-1.93447e-06
-7.11336e-06
-2.19651e-06
-6.39176e-06
-2.4926e-06
-5.59661e-06
-2.83035e-06
-4.72673e-06
-3.21849e-06
-3.78483e-06
-3.66625e-06
-2.78102e-06
-4.18182e-06
-1.73841e-06
-4.76879e-06
-7.01395e-07
-5.41891e-06
2.53601e-07
-6.0981e-06
1.00859e-06
-6.72146e-06
1.4072e-06
-7.11236e-06
1.29712e-06
-6.94603e-06
6.66615e-07
-5.69389e-06
-2.65623e-06
4.79557e-07
2.47837e-06
1.07282e-06
5.72668e-06
1.33395e-06
7.40621e-06
1.16254e-06
7.95408e-06
6.26331e-07
7.80455e-06
-1.55996e-07
7.2817e-06
-1.07233e-06
6.59636e-06
-2.0372e-06
5.87211e-06
-2.99296e-06
5.17416e-06
-3.90423e-06
4.53227e-06
-4.75142e-06
3.95616e-06
-5.52521e-06
3.44511e-06
-6.22261e-06
2.99352e-06
-6.84422e-06
2.59394e-06
-7.39256e-06
2.23868e-06
-7.87099e-06
1.92051e-06
-8.28307e-06
1.63297e-06
-8.63224e-06
1.37045e-06
-8.92164e-06
1.12814e-06
-9.15398e-06
9.01944e-07
-9.33154e-06
6.88352e-07
-9.45617e-06
4.84376e-07
-9.52934e-06
2.87428e-07
-9.55211e-06
9.52456e-08
-9.5252e-06
-9.41897e-08
-9.44901e-06
-2.82723e-07
-9.32363e-06
-4.72093e-07
-9.14887e-06
-6.63998e-07
-8.9243e-06
-8.60159e-07
-8.64923e-06
-1.06239e-06
-8.32275e-06
-1.27268e-06
-7.94374e-06
-1.49324e-06
-7.51097e-06
-1.72664e-06
-7.02308e-06
-1.97584e-06
-6.4788e-06
-2.24432e-06
-5.87714e-06
-2.53614e-06
-5.21772e-06
-2.85593e-06
-4.50142e-06
-3.20889e-06
-3.73132e-06
-3.60045e-06
-2.91414e-06
-4.03567e-06
-2.06251e-06
-4.51788e-06
-1.19814e-06
-5.0462e-06
-3.56008e-07
-5.61093e-06
4.10836e-07
-6.18575e-06
1.02773e-06
-6.71499e-06
1.4009e-06
-7.09463e-06
1.43611e-06
-7.14757e-06
1.08924e-06
-6.59915e-06
4.69624e-07
-5.07427e-06
-2.18661e-06
3.47065e-07
2.13131e-06
8.86995e-07
5.18675e-06
1.26864e-06
7.02457e-06
1.34467e-06
7.87805e-06
1.10754e-06
8.04168e-06
6.17361e-07
7.77188e-06
-4.65178e-08
7.26024e-06
-8.1061e-07
6.6362e-06
-1.6167e-06
5.98025e-06
-2.42277e-06
5.33834e-06
-3.20061e-06
4.73399e-06
-3.93246e-06
4.17696e-06
-4.60802e-06
3.66907e-06
-5.22194e-06
3.20787e-06
-5.77211e-06
2.78885e-06
-6.25835e-06
2.40674e-06
-6.68158e-06
2.0562e-06
-7.04332e-06
1.73219e-06
-7.34527e-06
1.4301e-06
-7.58916e-06
1.14583e-06
-7.77656e-06
8.75758e-07
-7.90889e-06
6.167e-07
-7.9873e-06
3.65844e-07
-8.01275e-06
1.20695e-07
-7.98595e-06
-1.20993e-07
-7.9074e-06
-3.61275e-07
-7.77741e-06
-6.02081e-07
-7.59614e-06
-8.45272e-07
-7.36359e-06
-1.0927e-06
-7.0797e-06
-1.34628e-06
-6.74436e-06
-1.60802e-06
-6.35747e-06
-1.88013e-06
-5.91911e-06
-2.165e-06
-5.42962e-06
-2.46533e-06
-4.88987e-06
-2.78407e-06
-4.30159e-06
-3.12442e-06
-3.66782e-06
-3.4897e-06
-2.99368e-06
-3.88303e-06
-2.28732e-06
-4.30681e-06
-1.56136e-06
-4.76163e-06
-8.34656e-07
-5.24458e-06
-1.34546e-07
-5.7463e-06
5.00964e-07
-6.24644e-06
1.02189e-06
-6.70668e-06
1.36798e-06
-7.06109e-06
1.47737e-06
-7.20401e-06
1.30815e-06
-6.97835e-06
8.79712e-07
-6.17071e-06
3.353e-07
-4.52986e-06
-1.85131e-06
2.59608e-07
1.8717e-06
7.28659e-07
4.7177e-06
1.14483e-06
6.6084e-06
1.36005e-06
7.66283e-06
1.32802e-06
8.0737e-06
1.06638e-06
8.03353e-06
6.22803e-07
7.70381e-06
5.25554e-08
7.20645e-06
-5.93523e-07
6.62633e-06
-1.27389e-06
6.01871e-06
-1.95704e-06
5.41714e-06
-2.62037e-06
4.84029e-06
-3.24843e-06
4.29714e-06
-3.83116e-06
3.7906e-06
-4.36235e-06
3.32004e-06
-4.83848e-06
2.88287e-06
-5.25781e-06
2.47553e-06
-5.61976e-06
2.09414e-06
-5.92446e-06
1.7348e-06
-6.17243e-06
1.3938e-06
-6.3644e-06
1.06773e-06
-6.50116e-06
7.53458e-07
-6.58348e-06
4.48171e-07
-6.61211e-06
1.49318e-07
-6.58768e-06
-1.45419e-07
-6.51079e-06
-4.38168e-07
-6.38195e-06
-7.30914e-07
-6.20168e-06
-1.02554e-06
-5.97048e-06
-1.3239e-06
-5.68895e-06
-1.62782e-06
-5.35781e-06
-1.93916e-06
-4.97807e-06
-2.25986e-06
-4.55114e-06
-2.59194e-06
-4.07901e-06
-2.93746e-06
-3.56457e-06
-3.2985e-06
-3.01197e-06
-3.67702e-06
-2.42712e-06
-4.07455e-06
-1.81837e-06
-4.49179e-06
-1.19736e-06
-4.92782e-06
-5.80109e-07
-5.37888e-06
1.18247e-08
-5.83651e-06
5.50306e-07
-6.28479e-06
1.00015e-06
-6.69628e-06
1.32031e-06
-7.02683e-06
1.46827e-06
-7.20905e-06
1.41028e-06
-7.14602e-06
1.1399e-06
-6.70796e-06
7.06242e-07
-5.73706e-06
2.46823e-07
-4.07044e-06
-1.60448e-06
2.01252e-07
1.67045e-06
6.03256e-07
4.31569e-06
1.0128e-06
6.19885e-06
1.29894e-06
7.37669e-06
1.40009e-06
7.97255e-06
1.30722e-06
8.1264e-06
1.0429e-06
7.96813e-06
6.44169e-07
7.60518e-06
1.51069e-07
7.11943e-06
-3.99617e-07
6.56939e-06
-9.77086e-07
5.99461e-06
-1.55707e-06
5.42027e-06
-2.12129e-06
4.86135e-06
-2.65647e-06
4.32578e-06
-3.15331e-06
3.81688e-06
-3.60548e-06
3.33504e-06
-4.00885e-06
2.87891e-06
-4.36088e-06
2.44617e-06
-4.66011e-06
2.03403e-06
-4.90583e-06
1.63952e-06
-5.09783e-06
1.25972e-06
-5.23621e-06
8.91837e-07
-5.32129e-06
5.33249e-07
-5.35351e-06
1.81543e-07
-5.33342e-06
-1.65505e-07
-5.26165e-06
-5.09943e-07
-5.1389e-06
-8.53665e-07
-4.966e-06
-1.19845e-06
-4.74394e-06
-1.54596e-06
-4.47394e-06
-1.89781e-06
-4.15756e-06
-2.25554e-06
-3.79678e-06
-2.62064e-06
-3.39424e-06
-2.99448e-06
-2.95338e-06
-3.37832e-06
-2.47875e-06
-3.77313e-06
-1.97641e-06
-4.17936e-06
-1.4543e-06
-4.59666e-06
-9.22856e-07
-5.02323e-06
-3.95602e-07
-5.45507e-06
1.10211e-07
-5.88469e-06
5.73085e-07
-6.29939e-06
9.67167e-07
-6.67887e-06
1.26304e-06
-6.99215e-06
1.43017e-06
-7.19397e-06
1.44219e-06
-7.22107e-06
1.28605e-06
-6.98989e-06
9.75923e-07
-6.39783e-06
5.70433e-07
-5.33157e-06
1.87589e-07
-3.6876e-06
-1.41689e-06
1.61022e-07
1.50943e-06
5.05637e-07
3.97108e-06
8.90807e-07
5.81368e-06
1.20693e-06
7.06056e-06
1.39011e-06
7.78938e-06
1.41667e-06
8.09984e-06
1.29152e-06
8.09328e-06
1.03624e-06
7.86045e-06
6.7979e-07
7.47588e-06
2.52204e-07
6.99698e-06
-2.18899e-07
6.46571e-06
-7.09947e-07
5.91132e-06
-1.20181e-06
5.35321e-06
-1.67952e-06
4.8035e-06
-2.13174e-06
4.2691e-06
-2.5501e-06
3.75339e-06
-2.92853e-06
3.25735e-06
-3.26282e-06
2.78045e-06
-3.55006e-06
2.32127e-06
-3.78838e-06
1.87784e-06
-3.97665e-06
1.44799e-06
-4.11429e-06
1.02947e-06
-4.20109e-06
6.20056e-07
-4.23721e-06
2.17656e-07
-4.22301e-06
-1.797e-07
-4.15912e-06
-5.73829e-07
-4.04639e-06
-9.66397e-07
-3.88592e-06
-1.35892e-06
-3.6791e-06
-1.75278e-06
-3.4277e-06
-2.14921e-06
-3.13398e-06
-2.54926e-06
-2.80078e-06
-2.95384e-06
-2.43169e-06
-3.36357e-06
-2.03129e-06
-3.77872e-06
-1.60537e-06
-4.19904e-06
-1.16125e-06
-4.62348e-06
-7.08114e-07
-5.04979e-06
-2.57397e-07
-5.47395e-06
1.7687e-07
-5.88934e-06
5.77806e-07
-6.28563e-06
9.25697e-07
-6.64728e-06
1.19854e-06
-6.95171e-06
1.37352e-06
-7.16713e-06
1.42986e-06
-7.25031e-06
1.35382e-06
-7.14503e-06
1.14596e-06
-6.78202e-06
8.30545e-07
-6.08242e-06
4.65279e-07
-4.9663e-06
1.46565e-07
-3.36888e-06
-1.27033e-06
1.32189e-07
1.37724e-06
4.29234e-07
3.67403e-06
7.83733e-07
5.45919e-06
1.10609e-06
6.7382e-06
1.33637e-06
7.5591e-06
1.44424e-06
7.99197e-06
1.42325e-06
8.11428e-06
1.2832e-06
8.00049e-06
1.0432e-06
7.71588e-06
7.26201e-07
7.31398e-06
3.55412e-07
6.8365e-06
-4.77963e-08
6.31453e-06
-4.64912e-07
5.77033e-06
-8.80562e-07
5.21915e-06
-1.28239e-06
4.67093e-06
-1.66072e-06
4.13171e-06
-2.00813e-06
3.60476e-06
-2.31907e-06
3.0914e-06
-2.58948e-06
2.59168e-06
-2.81647e-06
2.10483e-06
-2.99807e-06
1.62959e-06
-3.13302e-06
1.16442e-06
-3.22066e-06
7.07694e-07
-3.26078e-06
2.57774e-07
-3.25357e-06
-1.86904e-07
-3.19961e-06
-6.27792e-07
-3.09981e-06
-1.0662e-06
-2.95547e-06
-1.50327e-06
-2.7683e-06
-1.93995e-06
-2.54051e-06
-2.377e-06
-2.27486e-06
-2.81491e-06
-1.97484e-06
-3.25386e-06
-1.64477e-06
-3.69364e-06
-1.28997e-06
-4.13352e-06
-9.17015e-07
-4.572e-06
-5.33907e-07
-5.00659e-06
-1.50334e-07
-5.43337e-06
2.22141e-07
-5.84642e-06
5.69957e-07
-6.23716e-06
8.77622e-07
-6.59329e-06
1.12809e-06
-6.89775e-06
1.30367e-06
-7.1273e-06
1.38774e-06
-7.2512e-06
1.36753e-06
-7.23011e-06
1.23826e-06
-7.01576e-06
1.00849e-06
-6.55225e-06
7.06121e-07
-5.78005e-06
3.83284e-07
-4.64347e-06
1.17057e-07
-3.10266e-06
-1.15327e-06
1.10709e-07
1.26653e-06
3.68501e-07
3.41624e-06
6.91313e-07
5.13637e-06
1.00648e-06
6.42303e-06
1.26052e-06
7.30507e-06
1.42128e-06
7.83121e-06
1.47567e-06
8.05988e-06
1.42518e-06
8.05099e-06
1.2809e-06
7.86016e-06
1.05927e-06
7.5356e-06
7.78813e-07
7.11696e-06
4.57891e-07
6.63545e-06
1.13437e-07
6.11478e-06
-2.39712e-07
5.5723e-06
-5.89031e-07
5.02025e-06
-9.24241e-07
4.46692e-06
-1.23711e-06
3.91763e-06
-1.52117e-06
3.37547e-06
-1.77149e-06
2.842e-06
-1.98435e-06
2.3177e-06
-2.15709e-06
1.80232e-06
-2.28786e-06
1.2952e-06
-2.37555e-06
7.95386e-07
-2.41963e-06
3.01847e-07
-2.42007e-06
-1.86461e-07
-2.37735e-06
-6.70511e-07
-2.2924e-06
-1.15115e-06
-2.16663e-06
-1.62904e-06
-2.00196e-06
-2.10462e-06
-1.80087e-06
-2.57809e-06
-1.5665e-06
-3.04928e-06
-1.30272e-06
-3.51764e-06
-1.01428e-06
-3.98208e-06
-7.06943e-07
-4.44086e-06
-3.87612e-07
-4.89133e-06
-6.4487e-08
-5.32972e-06
2.52821e-07
-5.75067e-06
5.53241e-07
-6.14685e-06
8.2431e-07
-6.50823e-06
1.05244e-06
-6.82143e-06
1.22353e-06
-7.06883e-06
1.32398e-06
-7.22775e-06
1.34241e-06
-7.26963e-06
1.27207e-06
-7.15977e-06
1.11405e-06
-6.85774e-06
8.81007e-07
-6.31921e-06
6.00754e-07
-5.49979e-06
3.18389e-07
-4.3611e-06
9.50495e-08
-2.87932e-06
-1.05822e-06
9.4123e-08
1.17241e-06
3.19259e-07
3.19111e-06
6.11593e-07
4.84404e-06
9.12193e-07
6.12243e-06
1.17455e-06
7.04271e-06
1.36741e-06
7.63835e-06
1.47434e-06
7.95295e-06
1.49127e-06
8.03405e-06
1.42327e-06
7.92817e-06
1.28123e-06
7.67764e-06
1.07921e-06
7.31898e-06
8.32344e-07
6.88232e-06
5.55465e-07
6.39166e-06
2.62227e-07
5.86553e-06
-3.53107e-08
5.31779e-06
-3.26846e-07
4.75846e-06
-6.03808e-07
4.19459e-06
-8.59231e-07
3.63089e-06
-1.08758e-06
3.07035e-06
-1.28456e-06
2.51468e-06
-1.44696e-06
1.96472e-06
-1.57247e-06
1.4207e-06
-1.65956e-06
8.82475e-07
-1.70739e-06
3.49681e-07
-1.71574e-06
-1.78112e-07
-1.68495e-06
-7.01308e-07
-1.61589e-06
-1.22021e-06
-1.51e-06
-1.73492e-06
-1.36929e-06
-2.24533e-06
-1.19639e-06
-2.75099e-06
-9.94601e-07
-3.25107e-06
-7.67999e-07
-3.74424e-06
-5.21503e-07
-4.22858e-06
-2.6098e-07
-4.70138e-06
6.66854e-09
-5.15898e-06
2.7344e-07
-5.59649e-06
5.30212e-07
-6.00745e-06
7.66802e-07
-6.38344e-06
9.72166e-07
-6.71359e-06
1.13479e-06
-6.98405e-06
1.24339e-06
-7.17743e-06
1.28792e-06
-7.27227e-06
1.26111e-06
-7.24282e-06
1.16044e-06
-7.0591e-06
9.90522e-07
-6.68782e-06
7.65569e-07
-6.09426e-06
5.11402e-07
-5.24563e-06
2.66096e-07
-4.1158e-06
7.80864e-08
-2.69131e-06
-9.80136e-07
8.08975e-08
1.09151e-06
2.7848e-07
2.99352e-06
5.42314e-07
4.58021e-06
8.24419e-07
5.84032e-06
1.08492e-06
6.78221e-06
1.29482e-06
7.42845e-06
1.43647e-06
7.8113e-06
1.50242e-06
7.96811e-06
1.49334e-06
7.93724e-06
1.41575e-06
7.75524e-06
1.27977e-06
7.45496e-06
1.09741e-06
7.06468e-06
8.81184e-07
6.60788e-06
6.43225e-07
6.10349e-06
3.94684e-07
5.56633e-06
1.45449e-07
5.00769e-06
-9.59718e-08
4.43601e-06
-3.22449e-07
3.85736e-06
-5.28145e-07
3.27604e-06
-7.08404e-07
2.69494e-06
-8.59623e-07
2.11594e-06
-9.79132e-07
1.54021e-06
-1.06509e-06
9.68429e-07
-1.11637e-06
4.00968e-07
-1.13255e-06
-1.61931e-07
-1.11381e-06
-7.20052e-07
-1.06092e-06
-1.27309e-06
-9.75276e-07
-1.82057e-06
-8.58856e-07
-2.36175e-06
-7.143e-07
-2.89555e-06
-5.4493e-07
-3.42044e-06
-3.54814e-07
-3.93436e-06
-1.48822e-07
-4.43457e-06
6.73173e-08
-4.91752e-06
2.8698e-07
-5.37864e-06
5.02641e-07
-5.81215e-06
7.05926e-07
-6.21073e-06
8.87754e-07
-6.56526e-06
1.03861e-06
-6.86444e-06
1.14898e-06
-7.09443e-06
1.21006e-06
-7.23851e-06
1.21471e-06
-7.27692e-06
1.15871e-06
-7.18681e-06
1.04231e-06
-6.9427e-06
8.71965e-07
-6.51747e-06
6.61873e-07
-5.88417e-06
4.35038e-07
-5.01879e-06
2.23143e-07
-3.9039e-06
6.46228e-08
-2.53279e-06
-9.15513e-07
7.00442e-08
1.02146e-06
2.43983e-07
2.81958e-06
4.81407e-07
4.34278e-06
7.43047e-07
5.57868e-06
9.94978e-07
6.53028e-06
1.21103e-06
7.2124e-06
1.37366e-06
7.64867e-06
1.47357e-06
7.8682e-06
1.50847e-06
7.90234e-06
1.48149e-06
7.78222e-06
1.39951e-06
7.53694e-06
1.2717e-06
7.19249e-06
1.1083e-06
6.77128e-06
9.19745e-07
6.29205e-06
7.16039e-07
5.77003e-06
5.06351e-07
5.21738e-06
2.98817e-07
4.64354e-06
1.0045e-07
4.05573e-06
-8.28577e-08
3.45935e-06
-2.46287e-07
2.85837e-06
-3.86012e-07
2.25567e-06
-4.99119e-07
1.65332e-06
-5.83518e-07
1.05283e-06
-6.37873e-07
4.55323e-07
-6.61544e-07
-1.38261e-07
-6.54542e-07
-7.27053e-07
-6.17507e-07
-1.31013e-06
-5.51697e-07
-1.88638e-06
-4.58993e-07
-2.45446e-06
-3.41922e-07
-3.01262e-06
-2.03681e-07
-3.55868e-06
-4.81749e-08
-4.08986e-06
1.19957e-07
-4.6027e-06
2.95316e-07
-5.09288e-06
4.71749e-07
-5.55508e-06
6.42387e-07
-5.98279e-06
7.99749e-07
-6.36809e-06
9.35927e-07
-6.70144e-06
1.04289e-06
-6.97141e-06
1.11295e-06
-7.16448e-06
1.13936e-06
-7.26493e-06
1.11723e-06
-7.25479e-06
1.04446e-06
-7.11405e-06
9.22996e-07
-6.82124e-06
7.59958e-07
-6.35443e-06
5.68657e-07
-5.69287e-06
3.69025e-07
-4.81916e-06
1.87168e-07
-3.72205e-06
5.36498e-08
-2.39927e-06
-8.61864e-07
6.0904e-08
9.6056e-07
2.14194e-07
2.66629e-06
4.27132e-07
4.12984e-06
6.67422e-07
5.33839e-06
9.06317e-07
6.29139e-06
1.12063e-06
6.99809e-06
1.2937e-06
7.4756e-06
1.41544e-06
7.74645e-06
1.48169e-06
7.8361e-06
1.49309e-06
7.77082e-06
1.45393e-06
7.5761e-06
1.37094e-06
7.27548e-06
1.25226e-06
6.88996e-06
1.10664e-06
6.43766e-06
9.428e-07
5.93388e-06
7.69004e-07
5.39118e-06
5.92805e-07
4.81974e-06
4.20881e-07
4.22766e-06
2.58978e-07
3.62125e-06
1.11904e-07
3.00544e-06
-1.64386e-08
2.38401e-06
-1.23001e-07
1.75988e-06
-2.05532e-07
1.13536e-06
-2.6252e-07
5.12311e-07
-2.93144e-07
-1.07636e-07
-2.97241e-07
-7.22956e-07
-2.75276e-07
-1.33209e-06
-2.28332e-07
-1.93333e-06
-1.58106e-07
-2.52468e-06
-6.69221e-08
-3.1038e-06
4.22593e-08
-3.66786e-06
1.65825e-07
-4.21343e-06
2.995e-07
-4.73638e-06
4.38354e-07
-5.23173e-06
5.76828e-07
-5.69355e-06
7.08813e-07
-6.11477e-06
8.27773e-07
-6.48705e-06
9.26957e-07
-6.80062e-06
9.99701e-07
-7.04415e-06
1.03986e-06
-7.20464e-06
1.04238e-06
-7.26745e-06
1.00398e-06
-7.21639e-06
9.23992e-07
-7.03405e-06
8.05201e-07
-6.70245e-06
6.54683e-07
-6.20392e-06
4.84371e-07
-5.52255e-06
3.1118e-07
-4.64597e-06
1.56446e-07
-3.56731e-06
4.44849e-08
-2.28731e-06
-8.17379e-07
5.30234e-08
9.07537e-07
1.87962e-07
2.53136e-06
3.78082e-07
3.93972e-06
5.9672e-07
5.11976e-06
8.19591e-07
6.06851e-06
1.02641e-06
6.79127e-06
1.20183e-06
7.30018e-06
1.33571e-06
7.61258e-06
1.42277e-06
7.74903e-06
1.46197e-06
7.73162e-06
1.45558e-06
7.58248e-06
1.40832e-06
7.32274e-06
1.32647e-06
6.97181e-06
1.21718e-06
6.54696e-06
1.08787e-06
6.06319e-06
9.45812e-07
5.53323e-06
7.97841e-07
4.96771e-06
6.50144e-07
4.37535e-06
5.08164e-07
3.76323e-06
3.76553e-07
3.13705e-06
2.59167e-07
2.5014e-06
1.59085e-07
1.85997e-06
7.86467e-08
1.2158e-06
1.94887e-08
5.71469e-07
-1.74177e-08
-7.07297e-08
-3.17349e-08
-7.08639e-07
-2.37358e-08
-1.34009e-06
5.71067e-09
-1.96277e-06
5.51459e-08
-2.57412e-06
1.22523e-07
-3.17118e-06
2.05205e-07
-3.75054e-06
2.99961e-07
-4.30819e-06
4.02977e-07
-4.83939e-06
5.09877e-07
-5.33863e-06
6.15775e-07
-5.79945e-06
7.15358e-07
-6.21436e-06
8.03033e-07
-6.57473e-06
8.73129e-07
-6.87072e-06
9.20189e-07
-7.09121e-06
9.39355e-07
-7.22381e-06
9.26851e-07
-7.25495e-06
8.80552e-07
-7.17009e-06
8.00618e-07
-6.95412e-06
6.90132e-07
-6.59196e-06
5.5564e-07
-6.06942e-06
4.07481e-07
-5.37439e-06
2.59742e-07
-4.49823e-06
1.29697e-07
-3.43727e-06
3.66513e-08
-2.19426e-06
-7.80727e-07
4.6082e-08
8.61455e-07
1.64438e-07
2.413e-06
3.33135e-07
3.77103e-06
5.30122e-07
4.92277e-06
7.34952e-07
5.86368e-06
9.30067e-07
6.59615e-06
1.10164e-06
7.12861e-06
1.23991e-06
7.4743e-06
1.33914e-06
7.64981e-06
1.39713e-06
7.67363e-06
1.41469e-06
7.56492e-06
1.39491e-06
7.34252e-06
1.34249e-06
7.02423e-06
1.26312e-06
6.62632e-06
1.16299e-06
6.16332e-06
1.04835e-06
5.64787e-06
9.25236e-07
5.09083e-06
7.99244e-07
4.50135e-06
6.75403e-07
3.88707e-06
5.58096e-07
3.25436e-06
4.51029e-07
2.60846e-06
3.57224e-07
1.95377e-06
2.79039e-07
1.29398e-06
2.18183e-07
6.32325e-07
1.7575e-07
-2.82969e-08
1.5224e-07
-6.8513e-07
1.4758e-07
-1.33543e-06
1.6114e-07
-1.97633e-06
1.91739e-07
-2.60472e-06
2.3766e-07
-3.2171e-06
2.96645e-07
-3.80953e-06
3.65913e-07
-4.37745e-06
4.42172e-07
-4.91565e-06
5.21653e-07
-5.41811e-06
6.00173e-07
-5.87797e-06
6.73221e-07
-6.2874e-06
7.36098e-07
-6.63761e-06
7.84115e-07
-6.91874e-06
8.12849e-07
-7.11994e-06
8.18475e-07
-7.22944e-06
7.9817e-07
-7.23464e-06
7.50565e-07
-7.12248e-06
6.76232e-07
-6.87979e-06
5.78144e-07
-6.49387e-06
4.6204e-07
-5.95332e-06
3.36593e-07
-5.24895e-06
2.13297e-07
-4.37493e-06
1.05964e-07
-3.32993e-06
2.98065e-08
-2.11811e-06
-7.50921e-07
3.98479e-08
8.21607e-07
1.42985e-07
2.30986e-06
2.91401e-07
3.62261e-06
4.66883e-07
4.74729e-06
6.52296e-07
5.67827e-06
8.32595e-07
6.41585e-06
9.95547e-07
6.96566e-06
1.1321e-06
7.33775e-06
1.23641e-06
7.5455e-06
1.30565e-06
7.60439e-06
1.33957e-06
7.53101e-06
1.33998e-06
7.34211e-06
1.31028e-06
7.05393e-06
1.25488e-06
6.68173e-06
1.17881e-06
6.23939e-06
1.08734e-06
5.73934e-06
9.85675e-07
5.19249e-06
8.7877e-07
4.60825e-06
7.71155e-07
3.99469e-06
6.66863e-07
3.35865e-06
5.69366e-07
2.70596e-06
4.81556e-07
2.04158e-06
4.05744e-07
1.3698e-06
3.43667e-07
6.94402e-07
2.96508e-07
1.88619e-08
2.64912e-07
-6.53534e-07
2.49005e-07
-1.31952e-06
2.48405e-07
-1.97573e-06
2.62237e-07
-2.61855e-06
2.8914e-07
-3.24401e-06
3.27281e-07
-3.84767e-06
3.74363e-07
-4.42454e-06
4.27652e-07
-4.96894e-06
4.84013e-07
-5.47447e-06
5.39967e-07
-5.93392e-06
5.91782e-07
-6.33922e-06
6.35594e-07
-6.68142e-06
6.67584e-07
-6.95073e-06
6.842e-07
-7.13656e-06
6.82428e-07
-7.22766e-06
6.60125e-07
-7.21234e-06
6.16372e-07
-7.07873e-06
5.51841e-07
-6.81526e-06
4.69131e-07
-6.41116e-06
3.73008e-07
-5.8572e-06
2.70493e-07
-5.14643e-06
1.70719e-07
-4.27516e-06
8.4516e-08
-3.24373e-06
2.36992e-08
-2.05729e-06
-7.27222e-07
3.41496e-08
7.87457e-07
1.2312e-07
2.22089e-06
2.52176e-07
3.49355e-06
4.06352e-07
4.59311e-06
5.71398e-07
5.51323e-06
7.34576e-07
6.25267e-06
8.85249e-07
6.81498e-06
1.01524e-06
7.20776e-06
1.11894e-06
7.4418e-06
1.19318e-06
7.53014e-06
1.23703e-06
7.48716e-06
1.25134e-06
7.32779e-06
1.23843e-06
7.06684e-06
1.20164e-06
6.71852e-06
1.14494e-06
6.29609e-06
1.07266e-06
5.81162e-06
9.89198e-07
5.27595e-06
8.9883e-07
4.69862e-06
8.05549e-07
4.08797e-06
7.12971e-07
3.45123e-06
6.24273e-07
2.79466e-06
5.42155e-07
2.1237e-06
4.68827e-07
1.44312e-06
4.0601e-07
7.57218e-07
3.54943e-07
6.99296e-08
3.16393e-07
-6.14985e-07
2.90676e-07
-1.29381e-06
2.77659e-07
-1.96271e-06
2.76782e-07
-2.61767e-06
2.87061e-07
-3.25428e-06
3.07103e-07
-3.86771e-06
3.35119e-07
-4.45255e-06
3.68949e-07
-5.00277e-06
4.06096e-07
-5.51162e-06
4.43774e-07
-5.9716e-06
4.78991e-07
-6.37443e-06
5.08653e-07
-6.71108e-06
5.29707e-07
-6.97178e-06
5.39322e-07
-7.14617e-06
5.35117e-07
-7.22346e-06
5.15409e-07
-7.19263e-06
4.79496e-07
-7.04282e-06
4.2793e-07
-6.76369e-06
3.6276e-07
-6.34599e-06
2.87696e-07
-5.78213e-06
2.08149e-07
-5.06689e-06
1.31105e-07
-4.19812e-06
6.47918e-08
-3.17742e-06
1.81404e-08
-2.01064e-06
-7.09081e-07
2.88573e-08
7.586e-07
1.04467e-07
2.14528e-06
2.14894e-07
3.38313e-06
3.47969e-07
4.46004e-06
4.91989e-07
5.36921e-06
6.3633e-07
6.10833e-06
7.71921e-07
6.67939e-06
8.91567e-07
7.08811e-06
9.90081e-07
7.34329e-06
1.06426e-06
7.45597e-06
1.11271e-06
7.43871e-06
1.13561e-06
7.30489e-06
1.13442e-06
7.06803e-06
1.11155e-06
6.74139e-06
1.07006e-06
6.33758e-06
1.01341e-06
5.86828e-06
9.45202e-07
5.34416e-06
8.69033e-07
4.77479e-06
7.8833e-07
4.16867e-06
7.06256e-07
3.5333e-06
6.25643e-07
2.87527e-06
5.48951e-07
2.20039e-06
4.78241e-07
1.51383e-06
4.15177e-07
8.20283e-07
3.61018e-07
1.24088e-07
3.16633e-07
-5.706e-07
2.82508e-07
-1.25968e-06
2.58755e-07
-1.93896e-06
2.45126e-07
-2.60404e-06
2.41017e-07
-3.25018e-06
2.45486e-07
-3.87218e-06
2.57257e-07
-4.46432e-06
2.74747e-07
-5.02026e-06
2.96087e-07
-5.53296e-06
3.19167e-07
-5.99468e-06
3.41696e-07
-6.39696e-06
3.61282e-07
-6.73067e-06
3.75548e-07
-6.98605e-06
3.82268e-07
-7.15289e-06
3.79541e-07
-7.22073e-06
3.65983e-07
-7.17907e-06
3.4094e-07
-7.01777e-06
3.04686e-07
-6.72744e-06
2.5861e-07
-6.29992e-06
2.05324e-07
-5.72885e-06
1.48693e-07
-5.01026e-06
9.373e-08
-4.14315e-06
4.63521e-08
-3.13004e-06
1.2986e-08
-1.97727e-06
-6.96095e-07
2.38704e-08
7.3473e-07
8.67325e-08
2.08242e-06
1.79096e-07
3.29076e-06
2.91252e-07
4.34788e-06
4.13782e-07
5.24668e-06
5.38012e-07
5.9841e-06
6.56392e-07
6.56101e-06
7.62765e-07
6.98174e-06
8.52511e-07
7.25354e-06
9.22559e-07
7.38592e-06
9.71306e-07
7.38997e-06
9.98446e-07
7.27775e-06
1.00476e-06
7.06171e-06
9.91889e-07
6.75427e-06
9.62081e-07
6.36739e-06
9.17991e-07
5.91237e-06
8.62488e-07
5.39966e-06
7.98492e-07
4.83878e-06
7.2885e-07
4.23831e-06
6.56247e-07
3.60591e-06
5.83133e-07
2.94839e-06
5.11686e-07
2.27184e-06
4.43781e-07
1.58174e-06
3.80984e-07
8.83081e-07
3.24544e-07
1.80528e-07
2.75403e-07
-5.21459e-07
2.34198e-07
-1.21847e-06
2.0127e-07
-1.90603e-06
1.76674e-07
-2.57945e-06
1.60184e-07
-3.23369e-06
1.51302e-07
-3.8633e-06
1.49265e-07
-4.46229e-06
1.5306e-07
-5.02405e-06
1.61435e-07
-5.54133e-06
1.72931e-07
-6.00618e-06
1.85922e-07
-6.40995e-06
1.98667e-07
-6.74341e-06
2.09389e-07
-6.99677e-06
2.16374e-07
-7.15988e-06
2.18094e-07
-7.22245e-06
2.13343e-07
-7.17432e-06
2.01393e-07
-7.00582e-06
1.82141e-07
-6.70819e-06
1.56244e-07
-6.27402e-06
1.25205e-07
-5.69781e-06
9.13973e-08
-4.97645e-06
5.80043e-08
-4.10976e-06
2.88483e-08
-3.10088e-06
8.12333e-09
-1.95655e-06
-6.87972e-07
1.91082e-08
7.15622e-07
6.96747e-08
2.03185e-06
1.44398e-07
3.21604e-06
2.35783e-07
4.2565e-06
3.36492e-07
5.14597e-06
4.39673e-07
5.88092e-06
5.39249e-07
6.46144e-06
6.30132e-07
6.89086e-06
7.0836e-07
7.17531e-06
7.7114e-07
7.32314e-06
8.16809e-07
7.3443e-06
8.44739e-07
7.24982e-06
8.55193e-07
7.05126e-06
8.4916e-07
6.7603e-06
8.2818e-07
6.38837e-06
7.94179e-07
5.94637e-06
7.49318e-07
5.44452e-06
6.95865e-07
4.89224e-06
6.36086e-07
4.29809e-06
5.72166e-07
3.66983e-06
5.06151e-07
3.0144e-06
4.399e-07
2.33809e-06
3.7507e-07
1.64657e-06
3.13092e-07
9.45058e-07
2.55176e-07
2.38444e-07
2.02306e-07
-4.68589e-07
1.55246e-07
-1.17141e-06
1.14547e-07
-1.86534e-06
8.05526e-08
-2.54545e-06
5.34017e-08
-3.20654e-06
3.30327e-08
-3.84293e-06
1.91859e-08
-4.44844e-06
1.14061e-08
-5.01627e-06
9.04713e-09
-5.53898e-06
1.12816e-08
-6.00841e-06
1.71169e-08
-6.41579e-06
2.54232e-08
-6.75172e-06
3.49737e-08
-7.00632e-06
4.45024e-08
-7.16941e-06
5.27779e-08
-7.23073e-06
5.86938e-08
-7.18024e-06
6.13708e-08
-7.0085e-06
6.02629e-08
-6.70708e-06
5.52555e-08
-6.26901e-06
4.67409e-08
-5.68929e-06
3.56532e-08
-4.96536e-06
2.34452e-08
-4.09755e-06
1.19987e-08
-3.08944e-06
3.46251e-09
-1.94801e-06
-6.84509e-07
1.45038e-08
7.01118e-07
5.30908e-08
1.99327e-06
1.10469e-07
3.15866e-06
1.81182e-07
4.18578e-06
2.5983e-07
5.06732e-06
3.41287e-07
5.79947e-06
4.20904e-07
6.38182e-06
4.9468e-07
6.81708e-06
5.59372e-07
7.11062e-06
6.1256e-07
7.26995e-06
6.52641e-07
7.30422e-06
6.78784e-07
7.22367e-06
6.9085e-07
7.03919e-06
6.89282e-07
6.76187e-06
6.74989e-07
6.40266e-06
6.49228e-07
5.97213e-06
6.13491e-07
5.48026e-06
5.6941e-07
4.93632e-06
5.18673e-07
4.34883e-06
4.62954e-07
3.72555e-06
4.0387e-07
3.07349e-06
3.42939e-07
2.39902e-06
2.81564e-07
1.70794e-06
2.21015e-07
1.00561e-06
1.62425e-07
2.97033e-07
1.06795e-07
-4.12958e-07
5.49896e-08
-1.11961e-06
7.74647e-09
-1.81809e-06
-3.43229e-08
-2.50338e-06
-7.07311e-08
-3.17013e-06
-1.01117e-07
-3.81254e-06
-1.2525e-07
-4.42431e-06
-1.43037e-07
-4.99849e-06
-1.54532e-07
-5.52748e-06
-1.59946e-07
-6.003e-06
-1.59654e-07
-6.41608e-06
-1.54199e-07
-6.75717e-06
-1.44287e-07
-7.01623e-06
-1.30772e-07
-7.18292e-06
-1.1463e-07
-7.24687e-06
-9.69121e-08
-7.19796e-06
-7.86909e-08
-7.02672e-06
-6.09911e-08
-6.72478e-06
-4.47161e-08
-6.28529e-06
-3.05801e-08
-5.70343e-06
-1.90557e-08