/*--------------------------------*- C++ -*----------------------------------*\
  =========                 |
  \\      /  F ield         | OpenFOAM: The Open Source CFD Toolbox
   \\    /   O peration     | Website:  https://openfoam.org
    \\  /    A nd           | Version:  7
     \\/     M anipulation  |
\*---------------------------------------------------------------------------*/
FoamFile
{
    version     2.0;
    format      ascii;
    class       volScalarField;
    location    "0.047";
    object      p;
}
// * * * * * * * * * * * * * * * * * * * * * * * * * * * * * * * * * * * * * //

dimensions      [0 2 -2 0 0 0 0];

internalField   nonuniform List<scalar> 
2500
(
-1.67903e-05
6.38524
9.05035
10.1467
10.7402
11.0909
11.3062
11.4479
11.5474
11.6206
11.6766
11.7208
11.7568
11.787
11.8131
11.8363
11.8575
11.8774
11.8965
11.9151
11.9335
11.952
11.9707
11.9897
12.0093
12.0295
12.0505
12.0723
12.0953
12.1195
12.1452
12.1727
12.2023
12.2346
12.2702
12.3098
12.3544
12.4054
12.4647
12.5349
12.6196
12.7248
12.8597
13.0409
13.3004
13.702
14.3625
15.5536
18.3348
24.8443
4.86795
7.46778
8.88592
9.77014
10.3747
10.7822
11.0582
11.2513
11.3909
11.4949
11.5745
11.6371
11.6877
11.7297
11.7654
11.7966
11.8244
11.8499
11.8738
11.8966
11.9187
11.9404
11.9621
11.9839
12.0061
12.0288
12.0523
12.0768
12.1025
12.1297
12.1588
12.19
12.224
12.2614
12.3029
12.3497
12.403
12.4648
12.5375
12.6248
12.7316
12.8658
13.0389
13.2694
13.5877
14.0442
14.7084
15.6652
17.1689
19.8863
7.7031
8.467
9.21069
9.83492
10.3223
10.6855
10.9534
11.1526
11.3029
11.4183
11.5086
11.5807
11.6396
11.6886
11.7304
11.7668
11.7992
11.8286
11.856
11.8818
11.9066
11.9308
11.9547
11.9786
12.0028
12.0275
12.053
12.0795
12.1072
12.1367
12.1681
12.202
12.239
12.2798
12.3252
12.3766
12.4352
12.5032
12.5832
12.6789
12.7953
12.9396
13.1218
13.3562
13.6632
14.0705
14.6079
15.2862
16.0842
16.913
9.11098
9.28865
9.66873
10.0709
10.4214
10.7082
10.9373
11.1185
11.262
11.3763
11.4684
11.5436
11.6061
11.6588
11.7041
11.7438
11.7792
11.8114
11.8412
11.8693
11.8962
11.9223
11.948
11.9737
11.9995
12.0257
12.0528
12.0808
12.1102
12.1413
12.1745
12.2104
12.2494
12.2924
12.3404
12.3943
12.4558
12.5267
12.6095
12.7073
12.8243
12.9661
13.1395
13.3535
13.6179
13.9429
14.3335
14.7757
15.1912
15.3998
9.92123
9.90176
10.0789
10.3237
10.5643
10.7801
10.9657
11.1213
11.2503
11.3571
11.4458
11.5202
11.5831
11.6371
11.6841
11.7257
11.763
11.7971
11.8288
11.8586
11.8871
11.9148
11.942
11.969
11.9962
12.0238
12.0521
12.0814
12.1121
12.1445
12.1791
12.2163
12.2568
12.3013
12.3507
12.4059
12.4685
12.54
12.6225
12.7185
12.8311
12.9639
13.121
13.3066
13.5237
13.7721
14.0444
14.3183
14.5178
14.5108
10.4304
10.3465
10.4168
10.56
10.7203
10.8776
11.0224
11.1506
11.2618
11.3574
11.4393
11.5097
11.5707
11.6239
11.671
11.7131
11.7513
11.7864
11.8191
11.8501
11.8798
11.9086
11.9369
11.965
11.9933
12.0219
12.0512
12.0815
12.1132
12.1466
12.1821
12.2202
12.2615
12.3066
12.3564
12.4118
12.474
12.5442
12.6241
12.7154
12.8202
12.9405
13.078
13.2337
13.4065
13.5911
13.7765
13.9405
14.024
13.9418
10.7692
10.673
10.6899
10.7699
10.8738
10.9854
11.0952
11.1977
11.2905
11.3732
11.4463
11.5109
11.5681
11.619
11.6647
11.7062
11.7442
11.7795
11.8127
11.8443
11.8746
11.9041
11.9332
11.962
11.991
12.0203
12.0504
12.0814
12.1137
12.1476
12.1836
12.2221
12.2636
12.3088
12.3582
12.4127
12.4733
12.5408
12.6164
12.7012
12.7964
12.9025
13.0199
13.1474
13.2818
13.4163
13.5399
13.6348
13.6588
13.5586
11.0092
10.9185
10.9095
10.9509
11.0161
11.0934
11.1748
11.2548
11.3303
11.4001
11.4637
11.5214
11.5737
11.6212
11.6646
11.7046
11.7417
11.7765
11.8095
11.8411
11.8716
11.9015
11.9309
11.9601
11.9896
12.0193
12.0498
12.0812
12.1138
12.1481
12.1842
12.2227
12.2639
12.3085
12.3569
12.4098
12.4678
12.5317
12.602
12.6794
12.7642
12.8563
12.9547
13.0574
13.1604
13.2568
13.3374
13.3892
13.3833
13.2856
11.1893
11.1084
11.087
11.1048
11.1439
11.1961
11.2552
11.3164
11.3768
11.4345
11.4887
11.5392
11.586
11.6295
11.6699
11.7077
11.7433
11.7771
11.8094
11.8406
11.8709
11.9007
11.9301
11.9595
11.9891
12.0191
12.0497
12.0813
12.114
12.1481
12.1841
12.2222
12.2628
12.3063
12.3532
12.4039
12.4589
12.5185
12.5831
12.6528
12.7274
12.8062
12.8878
12.9695
13.0474
13.1156
13.1667
13.1916
13.1706
13.0814
11.3305
11.259
11.232
11.2355
11.257
11.291
11.333
11.379
11.4264
11.4733
11.5188
11.5623
11.6036
11.6427
11.6797
11.7149
11.7486
11.7809
11.8121
11.8425
11.8724
11.9018
11.931
11.9603
11.9897
12.0197
12.0502
12.0817
12.1142
12.1481
12.1836
12.221
12.2607
12.3029
12.3479
12.3961
12.4477
12.5029
12.5616
12.6238
12.6888
12.7556
12.8225
12.8869
12.9453
12.9925
13.0233
13.0315
13.0031
12.9228
11.4448
11.3813
11.352
11.3467
11.3564
11.3773
11.4063
11.4402
11.4768
11.5144
11.552
11.5889
11.6248
11.6596
11.6931
11.7255
11.757
11.7875
11.8174
11.8468
11.8758
11.9046
11.9333
11.9622
11.9914
12.0211
12.0514
12.0825
12.1147
12.1481
12.183
12.2196
12.258
12.2987
12.3416
12.3871
12.4352
12.4858
12.5389
12.5939
12.6501
12.7063
12.7608
12.8112
12.8543
12.8862
12.903
12.9005
12.8688
12.7964
11.5396
11.4825
11.4526
11.4419
11.4435
11.455
11.4742
11.4985
11.5263
11.556
11.5867
11.6177
11.6486
11.6791
11.7092
11.7387
11.7678
11.7965
11.8248
11.8529
11.8809
11.9089
11.937
11.9654
11.9941
12.0234
12.0532
12.0839
12.1156
12.1484
12.1824
12.218
12.2551
12.294
12.3348
12.3775
12.4221
12.4683
12.516
12.5644
12.6128
12.6598
12.704
12.743
12.7743
12.7949
12.8018
12.7926
12.7596
12.6939
11.6196
11.5675
11.5377
11.5236
11.5197
11.5245
11.5362
11.5531
11.5737
11.5969
11.6216
11.6474
11.6737
11.7003
11.7271
11.7538
11.7805
11.8072
11.8339
11.8606
11.8875
11.9146
11.9419
11.9696
11.9977
12.0264
12.0557
12.0858
12.1168
12.1488
12.182
12.2164
12.2521
12.2893
12.3278
12.3678
12.4089
12.451
12.4937
12.5362
12.5776
12.6168
12.6523
12.6822
12.7044
12.7165
12.7165
12.703
12.6699
12.6098
11.6878
11.6396
11.6103
11.5941
11.5864
11.5862
11.5924
11.6035
11.6184
11.6361
11.6558
11.677
11.6993
11.7224
11.746
11.77
11.7944
11.8191
11.8442
11.8695
11.8952
11.9212
11.9476
11.9745
12.0019
12.03
12.0587
12.0881
12.1184
12.1496
12.1818
12.215
12.2493
12.2846
12.321
12.3583
12.3962
12.4344
12.4725
12.5097
12.5451
12.5777
12.6061
12.6286
12.6437
12.6495
12.6446
12.6283
12.5955
12.54
11.7465
11.7013
11.6726
11.655
11.6447
11.6409
11.6429
11.6495
11.6598
11.673
11.6886
11.7059
11.7246
11.7445
11.7652
11.7868
11.809
11.8318
11.8552
11.8791
11.9035
11.9285
11.954
11.9801
12.0067
12.034
12.062
12.0908
12.1203
12.1506
12.1817
12.2137
12.2466
12.2802
12.3145
12.3492
12.3841
12.4188
12.4528
12.4853
12.5156
12.5425
12.565
12.5817
12.5912
12.5922
12.5839
12.5657
12.5336
12.482
11.797
11.7542
11.7261
11.7077
11.6955
11.6891
11.6878
11.6909
11.6976
11.7072
11.7193
11.7333
11.749
11.766
11.7843
11.8035
11.8237
11.8448
11.8666
11.8891
11.9123
11.9362
11.9607
11.986
12.0118
12.0384
12.0657
12.0936
12.1223
12.1518
12.1819
12.2127
12.2442
12.2761
12.3084
12.3408
12.373
12.4045
12.4348
12.4633
12.4891
12.5113
12.5289
12.5409
12.5461
12.5435
12.5327
12.5133
12.482
12.4336
11.8406
11.7996
11.772
11.7531
11.7395
11.7312
11.7275
11.7279
11.7317
11.7384
11.7476
11.7589
11.7719
11.7865
11.8026
11.8198
11.8382
11.8575
11.8779
11.8991
11.9211
11.944
11.9676
11.992
12.0171
12.0429
12.0694
12.0966
12.1245
12.1531
12.1823
12.2119
12.242
12.2724
12.3029
12.3331
12.3628
12.3915
12.4186
12.4436
12.4656
12.4839
12.4976
12.5057
12.5075
12.5022
12.4895
12.4695
12.439
12.3933
11.8779
11.8384
11.8113
11.792
11.7775
11.7677
11.7622
11.7605
11.762
11.7664
11.7732
11.7822
11.793
11.8056
11.8197
11.8351
11.8519
11.8698
11.8888
11.9088
11.9297
11.9516
11.9743
11.9979
12.0222
12.0473
12.0731
12.0996
12.1268
12.1545
12.1827
12.2113
12.2402
12.2692
12.2979
12.3263
12.3537
12.3799
12.4043
12.4263
12.4451
12.4601
12.4706
12.4757
12.4748
12.4675
12.4534
12.433
12.4032
12.3598
11.9096
11.8713
11.8445
11.825
11.8099
11.799
11.7921
11.7888
11.7885
11.791
11.7959
11.803
11.8121
11.8229
11.8353
11.8492
11.8645
11.8811
11.8989
11.9178
11.9378
11.9588
11.9807
12.0035
12.0271
12.0515
12.0767
12.1025
12.1289
12.1559
12.1832
12.2109
12.2386
12.2663
12.2936
12.3202
12.3458
12.3699
12.3919
12.4113
12.4275
12.4398
12.4476
12.4503
12.4474
12.4385
12.4235
12.4028
12.3737
12.3322
11.9362
11.8988
11.8723
11.8526
11.837
11.8253
11.8174
11.8128
11.8112
11.8122
11.8156
11.8212
11.8287
11.8381
11.8491
11.8618
11.8758
11.8913
11.9081
11.926
11.9451
11.9653
11.9865
12.0086
12.0316
12.0554
12.08
12.1052
12.131
12.1572
12.1838
12.2106
12.2373
12.2639
12.2899
12.3151
12.339
12.3613
12.3813
12.3986
12.4127
12.4228
12.4285
12.4293
12.4248
12.4146
12.399
12.3781
12.3497
12.3097
11.9579
11.9211
11.8949
11.8752
11.8592
11.8469
11.8382
11.8327
11.83
11.8299
11.8321
11.8365
11.8428
11.851
11.861
11.8725
11.8856
11.9001
11.916
11.9332
11.9516
11.971
11.9916
12.0131
12.0356
12.0588
12.0829
12.1075
12.1327
12.1584
12.1843
12.2104
12.2363
12.2619
12.2868
12.3108
12.3334
12.3541
12.3726
12.3882
12.4005
12.4089
12.413
12.4123
12.4065
12.3955
12.3793
12.3584
12.3305
12.2918
11.975
11.9388
11.9127
11.8929
11.8767
11.864
11.8547
11.8485
11.845
11.844
11.8453
11.8488
11.8542
11.8615
11.8706
11.8813
11.8936
11.9074
11.9226
11.9391
11.9569
11.9758
11.9958
12.0169
12.0389
12.0617
12.0853
12.1095
12.1342
12.1594
12.1848
12.2102
12.2355
12.2603
12.2844
12.3074
12.3289
12.3485
12.3656
12.3799
12.3909
12.398
12.4008
12.399
12.3923
12.3806
12.3641
12.3431
12.3157
12.278
11.9877
11.9518
11.9259
11.9061
11.8897
11.8767
11.867
11.8603
11.8562
11.8546
11.8553
11.8581
11.8629
11.8695
11.878
11.8881
11.8997
11.913
11.9276
11.9436
11.961
11.9795
11.9991
12.0198
12.0414
12.0639
12.0871
12.111
12.1354
12.1602
12.1852
12.2101
12.2349
12.2591
12.2825
12.3048
12.3255
12.3442
12.3605
12.3738
12.3837
12.3899
12.3918
12.3891
12.3818
12.3697
12.3529
12.332
12.3049
12.268
11.9961
11.9604
11.9346
11.9148
11.8983
11.8851
11.8752
11.8681
11.8637
11.8617
11.862
11.8644
11.8687
11.8749
11.8829
11.8926
11.9039
11.9167
11.931
11.9467
11.9637
11.982
12.0013
12.0217
12.0431
12.0654
12.0884
12.1121
12.1362
12.1607
12.1854
12.2101
12.2345
12.2583
12.2813
12.3031
12.3233
12.3414
12.357
12.3697
12.379
12.3845
12.3858
12.3827
12.3749
12.3625
12.3456
12.3247
12.2978
12.2614
12.0003
11.9647
11.939
11.9191
11.9026
11.8893
11.8792
11.872
11.8674
11.8653
11.8653
11.8675
11.8716
11.8776
11.8854
11.8949
11.906
11.9186
11.9328
11.9483
11.9651
11.9832
12.0024
12.0227
12.044
12.0661
12.089
12.1126
12.1366
12.161
12.1856
12.2101
12.2343
12.2579
12.2807
12.3022
12.3221
12.34
12.3553
12.3677
12.3767
12.3818
12.3829
12.3795
12.3715
12.359
12.342
12.3211
12.2943
12.2581
12.0003
11.9647
11.939
11.9191
11.9026
11.8893
11.8792
11.872
11.8674
11.8653
11.8653
11.8675
11.8716
11.8776
11.8854
11.8949
11.906
11.9186
11.9328
11.9483
11.9651
11.9832
12.0024
12.0227
12.044
12.0661
12.089
12.1126
12.1366
12.161
12.1856
12.2101
12.2343
12.2579
12.2807
12.3022
12.3221
12.34
12.3553
12.3677
12.3767
12.3818
12.3829
12.3795
12.3715
12.3589
12.342
12.3211
12.2943
12.2581
11.9961
11.9604
11.9346
11.9148
11.8983
11.8851
11.8752
11.8681
11.8637
11.8617
11.862
11.8644
11.8687
11.8749
11.8829
11.8926
11.9039
11.9167
11.931
11.9467
11.9637
11.982
12.0013
12.0217
12.0431
12.0654
12.0884
12.112
12.1362
12.1607
12.1854
12.2101
12.2345
12.2583
12.2813
12.3031
12.3233
12.3414
12.357
12.3697
12.379
12.3845
12.3858
12.3827
12.3749
12.3625
12.3456
12.3247
12.2978
12.2614
11.9877
11.9518
11.9259
11.9061
11.8897
11.8767
11.867
11.8603
11.8562
11.8546
11.8553
11.8581
11.8629
11.8695
11.8779
11.888
11.8997
11.913
11.9276
11.9436
11.9609
11.9795
11.9991
12.0198
12.0414
12.0639
12.0871
12.111
12.1354
12.1602
12.1852
12.2101
12.2349
12.2591
12.2825
12.3048
12.3255
12.3442
12.3605
12.3738
12.3837
12.3898
12.3918
12.3891
12.3818
12.3697
12.3529
12.332
12.3049
12.268
11.975
11.9388
11.9127
11.8929
11.8767
11.864
11.8547
11.8485
11.845
11.844
11.8453
11.8488
11.8542
11.8615
11.8706
11.8813
11.8936
11.9074
11.9226
11.9391
11.9569
11.9758
11.9958
12.0169
12.0388
12.0617
12.0853
12.1095
12.1342
12.1594
12.1848
12.2102
12.2355
12.2603
12.2844
12.3074
12.3289
12.3484
12.3656
12.3799
12.3909
12.3979
12.4008
12.3989
12.3923
12.3806
12.364
12.3431
12.3157
12.278
11.9579
11.9211
11.8949
11.8752
11.8592
11.8469
11.8382
11.8327
11.83
11.8298
11.8321
11.8364
11.8428
11.851
11.861
11.8725
11.8856
11.9001
11.916
11.9332
11.9515
11.971
11.9916
12.0131
12.0356
12.0588
12.0828
12.1075
12.1327
12.1584
12.1843
12.2103
12.2363
12.2619
12.2868
12.3108
12.3334
12.3541
12.3726
12.3882
12.4005
12.4089
12.413
12.4123
12.4065
12.3955
12.3793
12.3584
12.3305
12.2918
11.9362
11.8987
11.8723
11.8526
11.837
11.8253
11.8174
11.8128
11.8111
11.8122
11.8156
11.8211
11.8287
11.8381
11.8491
11.8617
11.8758
11.8913
11.9081
11.926
11.9451
11.9653
11.9865
12.0086
12.0316
12.0554
12.08
12.1052
12.1309
12.1572
12.1838
12.2106
12.2373
12.2639
12.2899
12.3151
12.339
12.3613
12.3813
12.3986
12.4127
12.4228
12.4285
12.4293
12.4248
12.4146
12.3989
12.3781
12.3496
12.3097
11.9096
11.8713
11.8445
11.825
11.8099
11.799
11.7921
11.7888
11.7885
11.791
11.7959
11.803
11.812
11.8229
11.8353
11.8492
11.8645
11.8811
11.8989
11.9178
11.9378
11.9588
11.9807
12.0035
12.0271
12.0515
12.0767
12.1025
12.1289
12.1559
12.1832
12.2109
12.2386
12.2663
12.2936
12.3202
12.3458
12.3699
12.3919
12.4113
12.4275
12.4398
12.4476
12.4503
12.4474
12.4385
12.4235
12.4027
12.3737
12.3322
11.8779
11.8384
11.8113
11.792
11.7775
11.7677
11.7622
11.7605
11.762
11.7664
11.7732
11.7822
11.793
11.8056
11.8197
11.8351
11.8519
11.8698
11.8887
11.9087
11.9297
11.9516
11.9743
11.9979
12.0222
12.0473
12.0731
12.0996
12.1268
12.1545
12.1827
12.2113
12.2402
12.2691
12.2979
12.3262
12.3537
12.3799
12.4043
12.4263
12.4451
12.4601
12.4705
12.4757
12.4748
12.4675
12.4534
12.4329
12.4032
12.3598
11.8406
11.7996
11.772
11.7531
11.7395
11.7312
11.7275
11.7279
11.7317
11.7384
11.7476
11.7588
11.7719
11.7865
11.8025
11.8198
11.8381
11.8575
11.8779
11.8991
11.9211
11.944
11.9676
11.992
12.0171
12.0429
12.0694
12.0966
12.1245
12.1531
12.1822
12.2119
12.242
12.2724
12.3029
12.3331
12.3628
12.3915
12.4186
12.4436
12.4656
12.4839
12.4975
12.5057
12.5075
12.5022
12.4895
12.4695
12.4389
12.3932
11.797
11.7542
11.7261
11.7077
11.6955
11.6891
11.6878
11.6909
11.6976
11.7072
11.7193
11.7333
11.749
11.766
11.7843
11.8035
11.8237
11.8448
11.8666
11.8891
11.9123
11.9362
11.9607
11.9859
12.0118
12.0384
12.0657
12.0936
12.1223
12.1518
12.1819
12.2127
12.2442
12.2761
12.3084
12.3408
12.3729
12.4045
12.4348
12.4633
12.4891
12.5113
12.5289
12.5409
12.5461
12.5435
12.5326
12.5133
12.482
12.4336
11.7465
11.7013
11.6726
11.655
11.6447
11.6409
11.6429
11.6495
11.6598
11.673
11.6885
11.7059
11.7246
11.7444
11.7652
11.7868
11.809
11.8318
11.8552
11.8791
11.9035
11.9285
11.954
11.98
12.0067
12.034
12.062
12.0907
12.1202
12.1506
12.1817
12.2137
12.2466
12.2802
12.3144
12.3492
12.3841
12.4188
12.4528
12.4853
12.5156
12.5425
12.565
12.5817
12.5912
12.5922
12.5839
12.5657
12.5336
12.482
11.6878
11.6396
11.6103
11.5941
11.5864
11.5862
11.5924
11.6035
11.6184
11.6361
11.6558
11.677
11.6993
11.7223
11.746
11.77
11.7944
11.8191
11.8441
11.8695
11.8951
11.9212
11.9476
11.9745
12.0019
12.03
12.0586
12.0881
12.1184
12.1496
12.1817
12.2149
12.2492
12.2846
12.321
12.3582
12.3962
12.4344
12.4725
12.5097
12.5451
12.5777
12.606
12.6286
12.6437
12.6494
12.6446
12.6282
12.5955
12.54
11.6196
11.5675
11.5377
11.5236
11.5197
11.5244
11.5362
11.5531
11.5737
11.5968
11.6216
11.6474
11.6737
11.7003
11.727
11.7538
11.7805
11.8072
11.8339
11.8606
11.8875
11.9145
11.9419
11.9695
11.9977
12.0263
12.0557
12.0858
12.1168
12.1488
12.182
12.2164
12.2521
12.2892
12.3278
12.3677
12.4089
12.451
12.4936
12.5361
12.5776
12.6168
12.6523
12.6822
12.7044
12.7165
12.7165
12.7029
12.6699
12.6097
11.5396
11.4825
11.4526
11.4419
11.4434
11.455
11.4741
11.4985
11.5263
11.556
11.5867
11.6177
11.6486
11.6791
11.7092
11.7387
11.7678
11.7965
11.8248
11.8529
11.8809
11.9089
11.937
11.9654
11.9941
12.0233
12.0532
12.0839
12.1156
12.1483
12.1824
12.2179
12.2551
12.294
12.3348
12.3775
12.422
12.4683
12.5159
12.5644
12.6127
12.6598
12.7039
12.743
12.7743
12.7948
12.8017
12.7925
12.7596
12.6939
11.4448
11.3813
11.352
11.3467
11.3563
11.3773
11.4063
11.4402
11.4768
11.5144
11.552
11.5889
11.6248
11.6596
11.6931
11.7255
11.7569
11.7875
11.8174
11.8468
11.8758
11.9046
11.9333
11.9622
11.9914
12.0211
12.0514
12.0825
12.1147
12.1481
12.183
12.2195
12.258
12.2986
12.3416
12.3871
12.4352
12.4858
12.5388
12.5939
12.6501
12.7063
12.7608
12.8112
12.8543
12.8862
12.9029
12.9005
12.8688
12.7964
11.3305
11.259
11.232
11.2355
11.2569
11.291
11.333
11.379
11.4264
11.4733
11.5188
11.5623
11.6036
11.6426
11.6797
11.7149
11.7486
11.7809
11.8121
11.8425
11.8723
11.9017
11.931
11.9602
11.9897
12.0196
12.0502
12.0816
12.1142
12.1481
12.1836
12.221
12.2607
12.3029
12.3479
12.3961
12.4477
12.5028
12.5616
12.6237
12.6887
12.7555
12.8224
12.8869
12.9452
12.9925
13.0233
13.0314
13.0031
12.9227
11.1893
11.1084
11.0869
11.1048
11.1438
11.196
11.2551
11.3164
11.3767
11.4345
11.4887
11.5392
11.586
11.6295
11.6699
11.7077
11.7433
11.7771
11.8094
11.8405
11.8709
11.9007
11.9301
11.9595
11.9891
12.0191
12.0497
12.0812
12.1139
12.1481
12.1841
12.2221
12.2628
12.3063
12.3532
12.4039
12.4589
12.5185
12.5831
12.6528
12.7274
12.8062
12.8877
12.9695
13.0474
13.1156
13.1666
13.1916
13.1706
13.0813
11.0092
10.9185
10.9095
10.9508
11.016
11.0933
11.1747
11.2547
11.3303
11.4001
11.4637
11.5214
11.5737
11.6212
11.6646
11.7045
11.7417
11.7765
11.8095
11.8411
11.8716
11.9014
11.9308
11.9601
11.9895
12.0193
12.0498
12.0812
12.1138
12.148
12.1842
12.2226
12.2639
12.3084
12.3568
12.4097
12.4678
12.5316
12.602
12.6794
12.7642
12.8562
12.9547
13.0574
13.1603
13.2568
13.3374
13.3892
13.3832
13.2856
10.7691
10.673
10.6899
10.7699
10.8738
10.9854
11.0952
11.1977
11.2905
11.3732
11.4463
11.5109
11.568
11.6189
11.6647
11.7061
11.7442
11.7795
11.8127
11.8442
11.8746
11.9041
11.9331
11.962
11.991
12.0203
12.0503
12.0813
12.1136
12.1476
12.1836
12.2221
12.2636
12.3087
12.3582
12.4127
12.4732
12.5408
12.6164
12.7012
12.7963
12.9025
13.0199
13.1474
13.2818
13.4163
13.5399
13.6348
13.6588
13.5585
10.4304
10.3465
10.4167
10.5599
10.7202
10.8775
11.0224
11.1506
11.2618
11.3574
11.4393
11.5097
11.5707
11.6239
11.671
11.7131
11.7512
11.7864
11.8191
11.8501
11.8798
11.9086
11.9369
11.965
11.9932
12.0219
12.0512
12.0815
12.1132
12.1465
12.182
12.2201
12.2614
12.3066
12.3564
12.4118
12.4739
12.5442
12.6241
12.7154
12.8202
12.9404
13.0779
13.2337
13.4064
13.591
13.7764
13.9405
14.0239
13.9418
9.92121
9.90174
10.0789
10.3237
10.5643
10.7801
10.9657
11.1213
11.2503
11.3571
11.4458
11.5201
11.5831
11.6371
11.6841
11.7256
11.763
11.7971
11.8287
11.8586
11.8871
11.9148
11.942
11.969
11.9962
12.0237
12.0521
12.0814
12.1121
12.1445
12.1791
12.2163
12.2568
12.3013
12.3506
12.4059
12.4685
12.54
12.6225
12.7185
12.831
12.9639
13.121
13.3066
13.5236
13.772
14.0444
14.3182
14.5178
14.5108
9.11096
9.28863
9.66871
10.0709
10.4214
10.7082
10.9372
11.1185
11.2619
11.3763
11.4684
11.5436
11.606
11.6588
11.7041
11.7437
11.7791
11.8114
11.8412
11.8693
11.8962
11.9223
11.948
11.9736
11.9994
12.0257
12.0527
12.0808
12.1102
12.1413
12.1745
12.2103
12.2494
12.2924
12.3403
12.3943
12.4558
12.5267
12.6094
12.7072
12.8243
12.966
13.1395
13.3534
13.6179
13.9428
14.3334
14.7757
15.1912
15.3997
7.70308
8.46698
9.21067
9.8349
10.3223
10.6855
10.9533
11.1525
11.3029
11.4183
11.5086
11.5807
11.6395
11.6886
11.7304
11.7668
11.7992
11.8286
11.8559
11.8817
11.9065
11.9307
11.9547
11.9786
12.0028
12.0275
12.0529
12.0794
12.1072
12.1366
12.1681
12.202
12.239
12.2798
12.3252
12.3765
12.4352
12.5032
12.5832
12.6789
12.7953
12.9395
13.1217
13.3562
13.6632
14.0705
14.6079
15.2861
16.0842
16.913
4.86793
7.46776
8.8859
9.77012
10.3747
10.7822
11.0582
11.2513
11.3909
11.4948
11.5745
11.6371
11.6877
11.7297
11.7654
11.7965
11.8244
11.8499
11.8738
11.8966
11.9186
11.9404
11.962
11.9838
12.006
12.0288
12.0523
12.0768
12.1025
12.1297
12.1587
12.19
12.224
12.2614
12.3029
12.3496
12.403
12.4647
12.5375
12.6247
12.7316
12.8658
13.0389
13.2694
13.5877
14.0441
14.7084
15.6651
17.1689
19.8863
-4.15101e-05
6.38522
9.05033
10.1467
10.7402
11.0908
11.3062
11.4479
11.5474
11.6206
11.6765
11.7207
11.7567
11.7869
11.813
11.8363
11.8575
11.8774
11.8965
11.9151
11.9335
11.952
11.9706
11.9897
12.0093
12.0295
12.0504
12.0723
12.0952
12.1194
12.1451
12.1726
12.2023
12.2346
12.2702
12.3097
12.3544
12.4054
12.4647
12.5348
12.6196
12.7247
12.8597
13.0409
13.3003
13.702
14.3625
15.5536
18.3348
24.8442
)
;

boundaryField
{
    movingWallTop
    {
        type            zeroGradient;
    }
    movingWallBottom
    {
        type            zeroGradient;
    }
    fixedWalls
    {
        type            zeroGradient;
    }
    frontAndBack
    {
        type            empty;
    }
}


// ************************************************************************* //
