/*--------------------------------*- C++ -*----------------------------------*\
  =========                 |
  \\      /  F ield         | OpenFOAM: The Open Source CFD Toolbox
   \\    /   O peration     | Website:  https://openfoam.org
    \\  /    A nd           | Version:  7
     \\/     M anipulation  |
\*---------------------------------------------------------------------------*/
FoamFile
{
    version     2.0;
    format      ascii;
    class       volVectorField;
    location    "0.0668";
    object      U;
}
// * * * * * * * * * * * * * * * * * * * * * * * * * * * * * * * * * * * * * //

dimensions      [0 1 -1 0 0 0 0];

internalField   nonuniform List<vector> 
2500
(
(-0.293796 0.153718 0)
(-0.397927 0.128718 0)
(-0.577968 0.0737926 0)
(-0.69627 0.0408782 0)
(-0.765275 0.0234004 0)
(-0.809638 0.0141499 0)
(-0.840261 0.00916676 0)
(-0.862391 0.00636102 0)
(-0.87906 0.004674 0)
(-0.892053 0.00358582 0)
(-0.902441 0.00283836 0)
(-0.910903 0.00229764 0)
(-0.917892 0.00188984 0)
(-0.92372 0.00157165 0)
(-0.928611 0.00131609 0)
(-0.932726 0.00110549 0)
(-0.936186 0.000927766 0)
(-0.939079 0.00077435 0)
(-0.941474 0.000639007 0)
(-0.943421 0.000517071 0)
(-0.944958 0.000404967 0)
(-0.946113 0.000299888 0)
(-0.946906 0.000199572 0)
(-0.947349 0.000102136 0)
(-0.94745 5.96278e-06 0)
(-0.947211 -9.04439e-05 0)
(-0.946629 -0.00018846 0)
(-0.945698 -0.000289492 0)
(-0.944405 -0.000395047 0)
(-0.942732 -0.000506833 0)
(-0.940657 -0.000626887 0)
(-0.938148 -0.000757742 0)
(-0.935167 -0.000902663 0)
(-0.93166 -0.00106599 0)
(-0.927562 -0.00125363 0)
(-0.922783 -0.00147388 0)
(-0.917207 -0.00173872 0)
(-0.910676 -0.00206607 0)
(-0.902971 -0.00248392 0)
(-0.893783 -0.00303821 0)
(-0.882662 -0.00380852 0)
(-0.868927 -0.00494036 0)
(-0.851494 -0.00671256 0)
(-0.828563 -0.00967647 0)
(-0.797119 -0.0149197 0)
(-0.752016 -0.0244963 0)
(-0.682508 -0.042142 0)
(-0.564903 -0.0746081 0)
(-0.389296 -0.128117 0)
(-0.290202 -0.152368 0)
(-0.00515785 0.302899 0)
(-0.0270654 0.307345 0)
(-0.171361 0.21781 0)
(-0.308286 0.146617 0)
(-0.417282 0.0992621 0)
(-0.502613 0.0690173 0)
(-0.569118 0.0497776 0)
(-0.621199 0.037246 0)
(-0.662534 0.0287688 0)
(-0.695843 0.0227984 0)
(-0.723062 0.0184329 0)
(-0.745564 0.0151328 0)
(-0.764338 0.0125638 0)
(-0.780104 0.0105111 0)
(-0.793396 0.0088315 0)
(-0.804611 0.00742632 0)
(-0.814048 0.00622562 0)
(-0.821938 0.00517853 0)
(-0.828453 0.00424718 0)
(-0.833727 0.00340276 0)
(-0.837859 0.00262285 0)
(-0.840925 0.00188964 0)
(-0.842976 0.00118862 0)
(-0.844048 0.000507577 0)
(-0.844163 -0.0001641 0)
(-0.843327 -0.000836065 0)
(-0.841535 -0.00151751 0)
(-0.838769 -0.0022177 0)
(-0.834998 -0.00294654 0)
(-0.830179 -0.00371517 0)
(-0.824252 -0.00453671 0)
(-0.817138 -0.00542731 0)
(-0.808735 -0.00640742 0)
(-0.798912 -0.00750371 0)
(-0.787502 -0.00875178 0)
(-0.774286 -0.0102002 0)
(-0.758978 -0.0119167 0)
(-0.741201 -0.0139981 0)
(-0.720454 -0.0165867 0)
(-0.696054 -0.0198974 0)
(-0.667067 -0.0242663 0)
(-0.632199 -0.0302343 0)
(-0.589641 -0.0386978 0)
(-0.536877 -0.0511692 0)
(-0.470593 -0.0701769 0)
(-0.386935 -0.0996696 0)
(-0.281714 -0.145069 0)
(-0.151439 -0.212575 0)
(-0.0164041 -0.298152 0)
(-0.000976973 -0.294655 0)
(0.0321092 0.264053 0)
(0.056338 0.362375 0)
(-0.00373706 0.325056 0)
(-0.0961034 0.26066 0)
(-0.192616 0.201041 0)
(-0.281575 0.154044 0)
(-0.358857 0.119139 0)
(-0.424245 0.0935764 0)
(-0.479087 0.0747205 0)
(-0.525062 0.0605838 0)
(-0.563716 0.0497711 0)
(-0.596346 0.0413246 0)
(-0.623993 0.0345866 0)
(-0.647479 0.0291008 0)
(-0.667445 0.0245452 0)
(-0.684393 0.0206885 0)
(-0.698715 0.0173612 0)
(-0.710717 0.014437 0)
(-0.720636 0.0118199 0)
(-0.728659 0.0094358 0)
(-0.734925 0.00722618 0)
(-0.739542 0.00514406 0)
(-0.742587 0.00315077 0)
(-0.744113 0.00121362 0)
(-0.744152 -0.000696018 0)
(-0.742717 -0.00260415 0)
(-0.739802 -0.00453562 0)
(-0.735384 -0.0065154 0)
(-0.729424 -0.00856997 0)
(-0.721863 -0.0107288 0)
(-0.71262 -0.0130265 0)
(-0.70159 -0.0155047 0)
(-0.688639 -0.0182156 0)
(-0.673596 -0.0212261 0)
(-0.656245 -0.0246239 0)
(-0.636312 -0.0285255 0)
(-0.613449 -0.033089 0)
(-0.587216 -0.0385321 0)
(-0.557052 -0.0451594 0)
(-0.522245 -0.0534033 0)
(-0.481904 -0.0638851 0)
(-0.434937 -0.0775033 0)
(-0.380081 -0.0955492 0)
(-0.31604 -0.119831 0)
(-0.241945 -0.152685 0)
(-0.158489 -0.196439 0)
(-0.0699805 -0.251264 0)
(0.0122845 -0.309841 0)
(0.0620509 -0.343154 0)
(0.033043 -0.249863 0)
(0.0271389 0.205276 0)
(0.0636626 0.357972 0)
(0.054885 0.37594 0)
(0.00737309 0.338932 0)
(-0.0604811 0.286414 0)
(-0.134341 0.235656 0)
(-0.206044 0.192417 0)
(-0.271808 0.157389 0)
(-0.330359 0.129518 0)
(-0.381682 0.107388 0)
(-0.426313 0.0897032 0)
(-0.464966 0.0754138 0)
(-0.498364 0.0637105 0)
(-0.527165 0.0539815 0)
(-0.551934 0.0457661 0)
(-0.573143 0.0387166 0)
(-0.591183 0.0325678 0)
(-0.60637 0.027116 0)
(-0.618959 0.0222024 0)
(-0.629154 0.0177018 0)
(-0.637114 0.0135136 0)
(-0.64296 0.00955617 0)
(-0.646784 0.00576138 0)
(-0.648649 0.00207121 0)
(-0.648596 -0.00156533 0)
(-0.646642 -0.00519477 0)
(-0.642786 -0.0088614 0)
(-0.637006 -0.0126095 0)
(-0.629263 -0.0164856 0)
(-0.619496 -0.0205409 0)
(-0.607621 -0.0248344 0)
(-0.593532 -0.0294364 0)
(-0.577093 -0.0344332 0)
(-0.558134 -0.0399331 0)
(-0.536449 -0.0460744 0)
(-0.511784 -0.0530361 0)
(-0.483832 -0.061053 0)
(-0.452228 -0.0704344 0)
(-0.416544 -0.0815912 0)
(-0.376303 -0.0950679 0)
(-0.331003 -0.111581 0)
(-0.280203 -0.132049 0)
(-0.223689 -0.157587 0)
(-0.161819 -0.189377 0)
(-0.0961478 -0.228225 0)
(-0.0304768 -0.273322 0)
(0.0275496 -0.319322 0)
(0.0649429 -0.35067 0)
(0.0657523 -0.331814 0)
(0.0268783 -0.189847 0)
(0.018435 0.163553 0)
(0.0529619 0.33191 0)
(0.0681142 0.387596 0)
(0.0520574 0.380574 0)
(0.0119659 0.345143 0)
(-0.0414319 0.300866 0)
(-0.0999641 0.2573 0)
(-0.158418 0.218292 0)
(-0.213848 0.184844 0)
(-0.264819 0.15671 0)
(-0.310813 0.133186 0)
(-0.35181 0.113484 0)
(-0.388042 0.0968782 0)
(-0.419844 0.0827494 0)
(-0.447577 0.0705917 0)
(-0.471585 0.0599972 0)
(-0.49218 0.0506395 0)
(-0.509631 0.0422574 0)
(-0.524166 0.0346408 0)
(-0.535975 0.0276196 0)
(-0.545211 0.0210547 0)
(-0.551995 0.0148306 0)
(-0.55642 0.00885004 0)
(-0.558553 0.00302929 0)
(-0.558439 -0.00270573 0)
(-0.5561 -0.0084227 0)
(-0.551543 -0.0141859 0)
(-0.544752 -0.020059 0)
(-0.535695 -0.0261083 0)
(-0.524323 -0.0324056 0)
(-0.510566 -0.039032 0)
(-0.494337 -0.0460825 0)
(-0.475526 -0.0536706 0)
(-0.454003 -0.0619355 0)
(-0.429614 -0.0710493 0)
(-0.402183 -0.0812278 0)
(-0.371517 -0.0927414 0)
(-0.337418 -0.105929 0)
(-0.299699 -0.12121 0)
(-0.258232 -0.139096 0)
(-0.213018 -0.160179 0)
(-0.164325 -0.185089 0)
(-0.112899 -0.214353 0)
(-0.0603162 -0.248081 0)
(-0.00946322 -0.285269 0)
(0.0348887 -0.322439 0)
(0.0655648 -0.351184 0)
(0.0734314 -0.354365 0)
(0.0532083 -0.301695 0)
(0.017916 -0.148258 0)
(0.0119284 0.134841 0)
(0.0406379 0.301175 0)
(0.0647511 0.37901 0)
(0.0675053 0.396982 0)
(0.0487031 0.380706 0)
(0.0144105 0.347993 0)
(-0.0290947 0.30961 0)
(-0.0768024 0.27135 0)
(-0.125182 0.235928 0)
(-0.171988 0.204333 0)
(-0.215921 0.176665 0)
(-0.256319 0.152614 0)
(-0.292914 0.131719 0)
(-0.325677 0.113495 0)
(-0.354703 0.0974897 0)
(-0.380152 0.0833055 0)
(-0.402206 0.0706022 0)
(-0.421044 0.0590936 0)
(-0.436836 0.0485403 0)
(-0.44973 0.0387418 0)
(-0.459853 0.0295301 0)
(-0.46731 0.0207628 0)
(-0.472185 0.012318 0)
(-0.474542 0.00408949 0)
(-0.474426 -0.00401741 0)
(-0.471864 -0.0120892 0)
(-0.46687 -0.0202079 0)
(-0.459439 -0.0284541 0)
(-0.449556 -0.0369101 0)
(-0.43719 -0.0456641 0)
(-0.4223 -0.054813 0)
(-0.404832 -0.0644675 0)
(-0.384724 -0.0747565 0)
(-0.361908 -0.0858327 0)
(-0.336312 -0.0978786 0)
(-0.307872 -0.111112 0)
(-0.276546 -0.125793 0)
(-0.242334 -0.142224 0)
(-0.205314 -0.160745 0)
(-0.165709 -0.181716 0)
(-0.123965 -0.205462 0)
(-0.080894 -0.232169 0)
(-0.0378569 -0.261659 0)
(0.00299943 -0.293 0)
(0.0385041 -0.323801 0)
(0.0643659 -0.349093 0)
(0.075416 -0.35971 0)
(0.0669184 -0.340423 0)
(0.040085 -0.268994 0)
(0.0114453 -0.119991 0)
(0.00783858 0.11441 0)
(0.0308517 0.272191 0)
(0.0567311 0.361435 0)
(0.0694518 0.397695 0)
(0.0651525 0.39869 0)
(0.0461965 0.378937 0)
(0.0165708 0.348687 0)
(-0.0197366 0.314466 0)
(-0.0593901 0.280062 0)
(-0.0998993 0.247452 0)
(-0.13955 0.217506 0)
(-0.177236 0.190461 0)
(-0.212293 0.166218 0)
(-0.244357 0.144522 0)
(-0.273264 0.125053 0)
(-0.29897 0.107488 0)
(-0.321506 0.0915217 0)
(-0.34094 0.07688 0)
(-0.35736 0.0633204 0)
(-0.370853 0.0506318 0)
(-0.381508 0.0386315 0)
(-0.389399 0.0271608 0)
(-0.394595 0.0160811 0)
(-0.397147 0.00527007 0)
(-0.397099 -0.0053822 0)
(-0.394481 -0.0159765 0)
(-0.389314 -0.0266079 0)
(-0.381606 -0.0373687 0)
(-0.371362 -0.0483522 0)
(-0.358578 -0.0596553 0)
(-0.343247 -0.0713824 0)
(-0.32536 -0.0836487 0)
(-0.304913 -0.0965836 0)
(-0.28191 -0.110335 0)
(-0.256376 -0.125069 0)
(-0.228366 -0.140975 0)
(-0.19799 -0.158261 0)
(-0.165436 -0.17714 0)
(-0.131019 -0.197816 0)
(-0.095234 -0.220431 0)
(-0.0588409 -0.244992 0)
(-0.0229639 -0.271223 0)
(0.0107893 -0.298327 0)
(0.0402212 -0.324606 0)
(0.0625273 -0.346893 0)
(0.0745031 -0.359782 0)
(0.073119 -0.354777 0)
(0.0568859 -0.319709 0)
(0.0299436 -0.239394 0)
(0.00743584 -0.100139 0)
(0.0053886 0.0994237 0)
(0.0238127 0.246757 0)
(0.0484247 0.340672 0)
(0.0657362 0.389268 0)
(0.070584 0.404281 0)
(0.0629457 0.396805 0)
(0.0448507 0.375721 0)
(0.0190583 0.347424 0)
(-0.0116912 0.316157 0)
(-0.0450616 0.28453 0)
(-0.0792355 0.25402 0)
(-0.112883 0.225364 0)
(-0.14508 0.198842 0)
(-0.175211 0.174465 0)
(-0.20289 0.1521 0)
(-0.227887 0.131545 0)
(-0.250086 0.11257 0)
(-0.269435 0.0949455 0)
(-0.285932 0.078452 0)
(-0.299598 0.0628893 0)
(-0.310469 0.0480761 0)
(-0.318584 0.0338502 0)
(-0.323986 0.0200667 0)
(-0.326714 0.00659537 0)
(-0.326804 -0.00668175 0)
(-0.324285 -0.0198732 0)
(-0.319186 -0.0330808 0)
(-0.311532 -0.0464025 0)
(-0.301345 -0.0599348 0)
(-0.288651 -0.0737758 0)
(-0.273481 -0.0880272 0)
(-0.255873 -0.102797 0)
(-0.235883 -0.118202 0)
(-0.21359 -0.134364 0)
(-0.189109 -0.151417 0)
(-0.162607 -0.169494 0)
(-0.134324 -0.18872 0)
(-0.104603 -0.209194 0)
(-0.0739284 -0.230952 0)
(-0.0429747 -0.253909 0)
(-0.0126633 -0.277766 0)
(0.015777 -0.301861 0)
(0.0407637 -0.324952 0)
(0.0603616 -0.344906 0)
(0.0724028 -0.358302 0)
(0.0748261 -0.35999 0)
(0.0662922 -0.34277 0)
(0.0472622 -0.297491 0)
(0.0227088 -0.214194 0)
(0.00504328 -0.0857934 0)
(0.00390224 0.0880321 0)
(0.0188367 0.224937 0)
(0.0411548 0.319577 0)
(0.0600532 0.375959 0)
(0.0702986 0.401655 0)
(0.0705549 0.404817 0)
(0.0614397 0.392707 0)
(0.044603 0.371104 0)
(0.0220701 0.344245 0)
(-0.00418934 0.315037 0)
(-0.0324725 0.285353 0)
(-0.0614081 0.25632 0)
(-0.0899468 0.228555 0)
(-0.117316 0.202335 0)
(-0.142968 0.177731 0)
(-0.166526 0.154684 0)
(-0.187739 0.13307 0)
(-0.206451 0.112727 0)
(-0.22257 0.0934838 0)
(-0.236047 0.0751687 0)
(-0.246863 0.0576181 0)
(-0.255021 0.0406796 0)
(-0.260531 0.0242127 0)
(-0.263417 0.008089 0)
(-0.263703 -0.00780954 0)
(-0.261419 -0.0235917 0)
(-0.256597 -0.0393589 0)
(-0.249276 -0.0552074 0)
(-0.239498 -0.0712296 0)
(-0.227317 -0.0875163 0)
(-0.212798 -0.104157 0)
(-0.196026 -0.121243 0)
(-0.177111 -0.138863 0)
(-0.156199 -0.157105 0)
(-0.133483 -0.17605 0)
(-0.109219 -0.19576 0)
(-0.0837464 -0.216266 0)
(-0.0575149 -0.237541 0)
(-0.0311111 -0.259456 0)
(-0.00529318 -0.281718 0)
(0.0189781 -0.303782 0)
(0.0405193 -0.324709 0)
(0.0579334 -0.343001 0)
(0.0696788 -0.356368 0)
(0.0742514 -0.361495 0)
(0.0705382 -0.353835 0)
(0.0583371 -0.32761 0)
(0.0390917 -0.276178 0)
(0.0175977 -0.193164 0)
(0.00358934 -0.075081 0)
(0.00296259 0.079059 0)
(0.0152696 0.206274 0)
(0.035134 0.299447 0)
(0.0540382 0.360375 0)
(0.0672143 0.393858 0)
(0.0727306 0.405744 0)
(0.0702984 0.40176 0)
(0.0606997 0.386864 0)
(0.0452874 0.365001 0)
(0.0255909 0.339109 0)
(0.00307754 0.311264 0)
(-0.0209661 0.282855 0)
(-0.045477 0.254761 0)
(-0.0696125 0.227493 0)
(-0.092726 0.201314 0)
(-0.114336 0.176319 0)
(-0.134093 0.152498 0)
(-0.151747 0.129778 0)
(-0.16713 0.108049 0)
(-0.180127 0.0871838 0)
(-0.190669 0.0670511 0)
(-0.198716 0.0475198 0)
(-0.204252 0.028465 0)
(-0.207277 0.00976887 0)
(-0.207805 -0.00867789 0)
(-0.205863 -0.0269767 0)
(-0.201486 -0.0452214 0)
(-0.194721 -0.0634993 0)
(-0.185629 -0.0818913 0)
(-0.174288 -0.100473 0)
(-0.160794 -0.119315 0)
(-0.145269 -0.138481 0)
(-0.127871 -0.158026 0)
(-0.108797 -0.177991 0)
(-0.0883006 -0.198397 0)
(-0.066701 -0.219231 0)
(-0.0444028 -0.240427 0)
(-0.0219131 -0.261837 0)
(0.000139264 -0.283187 0)
(0.0209869 -0.30402 0)
(0.0397159 -0.323612 0)
(0.0552756 -0.340865 0)
(0.0665226 -0.354177 0)
(0.072323 -0.361305 0)
(0.0717436 -0.359236 0)
(0.0643617 -0.344149 0)
(0.0506507 -0.311553 0)
(0.0324308 -0.256736 0)
(0.0139272 -0.175676 0)
(0.0026669 -0.0668234 0)
(0.00233726 0.0717776 0)
(0.012645 0.190238 0)
(0.0302212 0.280787 0)
(0.0483465 0.34404 0)
(0.0628876 0.382991 0)
(0.0717426 0.401773 0)
(0.0741012 0.404793 0)
(0.0701286 0.396165 0)
(0.0606189 0.379394 0)
(0.0466747 0.357278 0)
(0.0294803 0.331933 0)
(0.0101646 0.304891 0)
(-0.0102736 0.277212 0)
(-0.0309906 0.249592 0)
(-0.0512994 0.22246 0)
(-0.0706579 0.196055 0)
(-0.0886473 0.170484 0)
(-0.104951 0.145767 0)
(-0.119337 0.121865 0)
(-0.131636 0.0987094 0)
(-0.141731 0.0762085 0)
(-0.149546 0.054264 0)
(-0.155037 0.0327755 0)
(-0.158182 0.0116448 0)
(-0.158984 -0.00922133 0)
(-0.157461 -0.0299094 0)
(-0.153651 -0.050499 0)
(-0.147608 -0.0710615 0)
(-0.139405 -0.0916604 0)
(-0.129138 -0.11235 0)
(-0.116928 -0.133174 0)
(-0.102927 -0.154164 0)
(-0.0873252 -0.175334 0)
(-0.070359 -0.196676 0)
(-0.0523197 -0.218148 0)
(-0.0335652 -0.239661 0)
(-0.0145316 -0.26106 0)
(0.00425567 -0.282093 0)
(0.0221729 -0.30237 0)
(0.0384952 -0.321316 0)
(0.0524053 -0.338099 0)
(0.0630229 -0.351554 0)
(0.0694663 -0.360095 0)
(0.0709616 -0.361642 0)
(0.0670155 -0.353571 0)
(0.0576609 -0.332769 0)
(0.0437195 -0.295822 0)
(0.0270522 -0.239429 0)
(0.0112225 -0.161092 0)
(0.00205118 -0.0602906 0)
(0.00189895 0.0657309 0)
(0.0106547 0.176363 0)
(0.0261994 0.263731 0)
(0.0431879 0.327823 0)
(0.0581212 0.370466 0)
(0.0689544 0.394547 0)
(0.0746192 0.403408 0)
(0.0748754 0.400381 0)
(0.0700901 0.388484 0)
(0.0609952 0.370272 0)
(0.0484932 0.347794 0)
(0.0335233 0.322625 0)
(0.0169748 0.295926 0)
(-0.000357257 0.268526 0)
(-0.0177919 0.240987 0)
(-0.0347648 0.213671 0)
(-0.0508194 0.186795 0)
(-0.0655949 0.16047 0)
(-0.0788124 0.134735 0)
(-0.0902609 0.10958 0)
(-0.0997856 0.0849637 0)
(-0.107278 0.0608274 0)
(-0.112666 0.0371027 0)
(-0.115911 0.0137179 0)
(-0.117002 -0.00939701 0)
(-0.115948 -0.0323077 0)
(-0.112786 -0.0550731 0)
(-0.107573 -0.0777437 0)
(-0.100391 -0.10036 0)
(-0.0913463 -0.122949 0)
(-0.0805777 -0.145526 0)
(-0.0682566 -0.168083 0)
(-0.0545945 -0.190594 0)
(-0.0398493 -0.212998 0)
(-0.0243328 -0.235194 0)
(-0.00841764 -0.257024 0)
(0.0074555 -0.278255 0)
(0.0227732 -0.298551 0)
(0.036949 -0.317441 0)
(0.0493301 -0.334271 0)
(0.0592183 -0.348163 0)
(0.065908 -0.357954 0)
(0.0687536 -0.362149 0)
(0.0672697 -0.358887 0)
(0.0612762 -0.345952 0)
(0.051079 -0.320856 0)
(0.0376382 -0.281042 0)
(0.0226889 -0.224219 0)
(0.00917222 -0.148871 0)
(0.00161921 -0.0550192 0)
(0.00157679 0.0606208 0)
(0.00909893 0.164274 0)
(0.0228673 0.248249 0)
(0.0385812 0.312206 0)
(0.0533099 0.357218 0)
(0.0651725 0.385278 0)
(0.0730099 0.398892 0)
(0.0763373 0.400717 0)
(0.0752157 0.393296 0)
(0.0700775 0.378893 0)
(0.0615722 0.35942 0)
(0.0504463 0.336423 0)
(0.0374579 0.311103 0)
(0.0233226 0.284366 0)
(0.00868277 0.256874 0)
(-0.00590559 0.229087 0)
(-0.0199752 0.201318 0)
(-0.0331428 0.173763 0)
(-0.0451008 0.146534 0)
(-0.0556083 0.119685 0)
(-0.0644819 0.0932272 0)
(-0.0715867 0.0671463 0)
(-0.0768297 0.041411 0)
(-0.080154 0.0159818 0)
(-0.0815342 -0.00918315 0)
(-0.0809736 -0.0341234 0)
(-0.0785026 -0.0588726 0)
(-0.0741784 -0.0834559 0)
(-0.0680856 -0.107886 0)
(-0.0603379 -0.132162 0)
(-0.0510812 -0.156264 0)
(-0.0404967 -0.180148 0)
(-0.0288057 -0.203743 0)
(-0.0162741 -0.22694 0)
(-0.00321713 -0.249582 0)
(0.00999638 -0.271454 0)
(0.0229414 -0.292258 0)
(0.0351374 -0.311595 0)
(0.0460536 -0.328939 0)
(0.0551234 -0.343601 0)
(0.0617698 -0.354695 0)
(0.0654476 -0.361109 0)
(0.0657065 -0.361479 0)
(0.0622779 -0.354183 0)
(0.0551879 -0.337384 0)
(0.0448865 -0.309124 0)
(0.0323466 -0.267504 0)
(0.0191084 -0.210953 0)
(0.00757419 -0.138584 0)
(0.00130227 -0.0507042 0)
(0.00133 0.0562464 0)
(0.0078473 0.15368 0)
(0.0200615 0.234252 0)
(0.0344723 0.297453 0)
(0.048633 0.343864 0)
(0.060867 0.374844 0)
(0.0700239 0.392254 0)
(0.0754886 0.398189 0)
(0.0771152 0.394759 0)
(0.0751078 0.383929 0)
(0.0699027 0.367437 0)
(0.0620685 0.346749 0)
(0.0522277 0.323058 0)
(0.0410013 0.297308 0)
(0.0289726 0.270221 0)
(0.0166663 0.242334 0)
(0.00453955 0.214036 0)
(-0.00702056 0.185599 0)
(-0.0176938 0.157203 0)
(-0.027222 0.128963 0)
(-0.0354021 0.100944 0)
(-0.0420806 0.0731769 0)
(-0.047147 0.0456715 0)
(-0.0505295 0.0184237 0)
(-0.0521905 -0.00857622 0)
(-0.0521243 -0.0353382 0)
(-0.0503548 -0.0618673 0)
(-0.0469356 -0.08816 0)
(-0.0419496 -0.1142 0)
(-0.0355108 -0.139954 0)
(-0.0277658 -0.165367 0)
(-0.0188967 -0.19036 0)
(-0.00912406 -0.214818 0)
(0.00129029 -0.238589 0)
(0.0120406 -0.261468 0)
(0.0227758 -0.283187 0)
(0.0331004 -0.303403 0)
(0.0425789 -0.321672 0)
(0.0507454 -0.337437 0)
(0.0571208 -0.349999 0)
(0.061241 -0.358501 0)
(0.062697 -0.361905 0)
(0.0611909 -0.358992 0)
(0.056607 -0.348378 0)
(0.0490966 -0.328557 0)
(0.0391667 -0.298004 0)
(0.0277338 -0.25532 0)
(0.0161261 -0.199445 0)
(0.00629548 -0.1299 0)
(0.00106053 -0.0471377 0)
(0.00113409 0.0524681 0)
(0.00681297 0.14436 0)
(0.0176564 0.221634 0)
(0.0307854 0.283698 0)
(0.044158 0.330811 0)
(0.0563069 0.363881 0)
(0.0661455 0.384275 0)
(0.0730057 0.393634 0)
(0.0766114 0.393686 0)
(0.0770005 0.386115 0)
(0.074439 0.372469 0)
(0.0693406 0.354106 0)
(0.0621995 0.332177 0)
(0.053538 0.307627 0)
(0.0438693 0.281213 0)
(0.0336725 0.253524 0)
(0.0233787 0.225008 0)
(0.013364 0.195999 0)
(0.00394803 0.166737 0)
(-0.00460471 0.137395 0)
(-0.0120812 0.108087 0)
(-0.0183156 0.0788927 0)
(-0.0231852 0.0498612 0)
(-0.0266061 0.0210264 0)
(-0.0285302 -0.00758745 0)
(-0.0289423 -0.0359583 0)
(-0.0278587 -0.0640607 0)
(-0.0253265 -0.0918606 0)
(-0.0214231 -0.119311 0)
(-0.0162573 -0.146346 0)
(-0.00997036 -0.172878 0)
(-0.00273754 -0.198791 0)
(0.00522991 -0.223932 0)
(0.0136835 -0.248107 0)
(0.0223366 -0.271072 0)
(0.0308657 -0.292519 0)
(0.0389131 -0.312067 0)
(0.0460943 -0.329247 0)
(0.0520094 -0.34349 0)
(0.056262 -0.354106 0)
(0.0584859 -0.360281 0)
(0.0583822 -0.361069 0)
(0.0557658 -0.355397 0)
(0.050622 -0.342093 0)
(0.0431681 -0.319938 0)
(0.0339131 -0.287749 0)
(0.0236827 -0.244509 0)
(0.0135999 -0.189518 0)
(0.0052466 -0.122565 0)
(0.000869804 -0.0441738 0)
(0.000973683 0.0491862 0)
(0.00593679 0.136144 0)
(0.0155565 0.210293 0)
(0.0274455 0.271007 0)
(0.0398972 0.318331 0)
(0.0516426 0.352849 0)
(0.0616867 0.375557 0)
(0.0693582 0.387728 0)
(0.0743076 0.39077 0)
(0.076458 0.386109 0)
(0.0759444 0.375104 0)
(0.073052 0.358995 0)
(0.0681603 0.338867 0)
(0.0616965 0.315643 0)
(0.0540998 0.29009 0)
(0.0457958 0.262828 0)
(0.0371793 0.234347 0)
(0.0286042 0.205032 0)
(0.0203789 0.175174 0)
(0.0127648 0.144994 0)
(0.00597697 0.114656 0)
(0.000186894 0.0842821 0)
(-0.00447492 0.053963 0)
(-0.00791596 0.0237695 0)
(-0.0100791 -0.00623941 0)
(-0.0109403 -0.0360091 0)
(-0.0105073 -0.0654827 0)
(-0.00881849 -0.0945954 0)
(-0.00594255 -0.123269 0)
(-0.00197887 -0.151407 0)
(0.00294197 -0.178888 0)
(0.00865738 -0.205561 0)
(0.014972 -0.231241 0)
(0.0216576 -0.255698 0)
(0.0284536 -0.278653 0)
(0.0350696 -0.299768 0)
(0.0411902 -0.318637 0)
(0.0464827 -0.334774 0)
(0.0506105 -0.347611 0)
(0.0532504 -0.356483 0)
(0.0541179 -0.360628 0)
(0.0529987 -0.359191 0)
(0.0497872 -0.351237 0)
(0.0445295 -0.335782 0)
(0.0374678 -0.311841 0)
(0.0290798 -0.278507 0)
(0.020086 -0.235046 0)
(0.0114221 -0.181015 0)
(0.00436572 -0.116384 0)
(0.000714739 -0.041708 0)
(0.000838682 0.0463281 0)
(0.00517746 0.128901 0)
(0.0136902 0.20014 0)
(0.0243859 0.259406 0)
(0.0358371 0.306604 0)
(0.0469554 0.342083 0)
(0.0568485 0.36656 0)
(0.0648735 0.381016 0)
(0.0706476 0.38659 0)
(0.0740196 0.384483 0)
(0.0750281 0.37588 0)
(0.0738553 0.361894 0)
(0.0707824 0.343536 0)
(0.0661495 0.321692 0)
(0.0603236 0.297117 0)
(0.0536733 0.270447 0)
(0.0465513 0.242202 0)
(0.0392818 0.212801 0)
(0.0321541 0.182579 0)
(0.0254185 0.151798 0)
(0.0192857 0.120666 0)
(0.0139273 0.0893455 0)
(0.00947679 0.0579648 0)
(0.00603233 0.0266312 0)
(0.00365806 -0.00456264 0)
(0.0023861 -0.0355298 0)
(0.00221786 -0.0661824 0)
(0.003125 -0.0964256 0)
(0.00504992 -0.126151 0)
(0.00790589 -0.155232 0)
(0.011577 -0.183516 0)
(0.0159178 -0.210822 0)
(0.0207538 -0.236934 0)
(0.0258815 -0.261591 0)
(0.0310707 -0.284487 0)
(0.0360671 -0.305259 0)
(0.0405986 -0.323484 0)
(0.0443828 -0.338673 0)
(0.0471405 -0.350263 0)
(0.0486113 -0.357619 0)
(0.0485759 -0.360035 0)
(0.0468828 -0.356742 0)
(0.0434785 -0.34693 0)
(0.0384401 -0.329773 0)
(0.0320074 -0.304481 0)
(0.0246071 -0.270357 0)
(0.0168519 -0.226885 0)
(0.00951038 -0.173805 0)
(0.00360906 -0.111209 0)
(0.00058514 -0.0396636 0)
(0.000722237 0.0438401 0)
(0.0045055 0.122533 0)
(0.0120032 0.1911 0)
(0.0215503 0.248904 0)
(0.0319537 0.295753 0)
(0.0422861 0.33183 0)
(0.0517607 0.357638 0)
(0.0597811 0.373931 0)
(0.0659595 0.381626 0)
(0.0701012 0.381731 0)
(0.072177 0.375272 0)
(0.0722895 0.363244 0)
(0.0706382 0.346576 0)
(0.0674866 0.326105 0)
(0.0631342 0.302569 0)
(0.0578934 0.276602 0)
(0.0520715 0.248741 0)
(0.0459588 0.21943 0)
(0.0398198 0.189038 0)
(0.0338884 0.157863 0)
(0.028365 0.126148 0)
(0.0234164 0.0940918 0)
(0.0191756 0.0618585 0)
(0.015743 0.0295887 0)
(0.0131879 -0.00259292 0)
(0.0115495 -0.0345688 0)
(0.0108382 -0.0662217 0)
(0.0110366 -0.0974278 0)
(0.0120997 -0.128051 0)
(0.0139559 -0.157935 0)
(0.0165065 -0.186901 0)
(0.0196268 -0.21474 0)
(0.0231659 -0.241207 0)
(0.0269484 -0.266018 0)
(0.0307763 -0.288842 0)
(0.0344328 -0.3093 0)
(0.0376878 -0.326956 0)
(0.0403061 -0.341321 0)
(0.0420588 -0.351844 0)
(0.042738 -0.357923 0)
(0.0421749 -0.358903 0)
(0.0402622 -0.354096 0)
(0.0369774 -0.342795 0)
(0.0324074 -0.324309 0)
(0.0267709 -0.298001 0)
(0.0204339 -0.263343 0)
(0.0139039 -0.219977 0)
(0.00780192 -0.16778 0)
(0.0029449 -0.106927 0)
(0.000473997 -0.0379844 0)
(0.000619542 0.041682 0)
(0.00389946 0.116963 0)
(0.0104541 0.18311 0)
(0.0188924 0.239495 0)
(0.02822 0.285861 0)
(0.0376531 0.32227 0)
(0.0465074 0.349064 0)
(0.0542437 0.366818 0)
(0.0604881 0.376271 0)
(0.0650256 0.378267 0)
(0.0677821 0.373694 0)
(0.0688007 0.363436 0)
(0.0682151 0.348342 0)
(0.0662234 0.329198 0)
(0.063064 0.306712 0)
(0.0589955 0.281512 0)
(0.0542804 0.254138 0)
(0.0491721 0.225054 0)
(0.0439073 0.19465 0)
(0.0386987 0.163254 0)
(0.0337329 0.131139 0)
(0.0291676 0.0985355 0)
(0.0251318 0.0656386 0)
(0.0217255 0.0326191 0)
(0.0190211 -0.000368997 0)
(0.0170636 -0.0331801 0)
(0.0158721 -0.0656697 0)
(0.0154402 -0.0976874 0)
(0.0157366 -0.129071 0)
(0.0167061 -0.159639 0)
(0.0182693 -0.189188 0)
(0.0203238 -0.217483 0)
(0.0227447 -0.244257 0)
(0.0253859 -0.269204 0)
(0.0280827 -0.291974 0)
(0.0306552 -0.312174 0)
(0.0329135 -0.329361 0)
(0.0346651 -0.343047 0)
(0.035725 -0.352698 0)
(0.0359276 -0.357738 0)
(0.0351426 -0.357561 0)
(0.0332917 -0.351546 0)
(0.0303675 -0.339076 0)
(0.0264516 -0.319565 0)
(0.02173 -0.292501 0)
(0.0165032 -0.257483 0)
(0.011179 -0.214276 0)
(0.0062482 -0.162854 0)
(0.0023498 -0.10345 0)
(0.000376338 -0.0366283 0)
(0.000527135 0.0398233 0)
(0.00334338 0.112132 0)
(0.00901114 0.176121 0)
(0.0163745 0.231172 0)
(0.0246102 0.276987 0)
(0.0330619 0.313537 0)
(0.0411434 0.341047 0)
(0.0483778 0.35995 0)
(0.0544181 0.370845 0)
(0.0590457 0.374438 0)
(0.0621595 0.371498 0)
(0.0637601 0.362813 0)
(0.0639294 0.349155 0)
(0.0628109 0.331258 0)
(0.0605892 0.309798 0)
(0.0574733 0.285387 0)
(0.0536817 0.258565 0)
(0.0494312 0.229805 0)
(0.0449278 0.199513 0)
(0.0403612 0.168038 0)
(0.0359001 0.13568 0)
(0.0316905 0.102693 0)
(0.0278542 0.0693009 0)
(0.0244885 0.0356995 0)
(0.0216668 0.00206901 0)
(0.0194388 -0.0314199 0)
(0.0178311 -0.0645985 0)
(0.0168484 -0.0972927 0)
(0.0164735 -0.129317 0)
(0.016668 -0.160468 0)
(0.0173729 -0.19052 0)
(0.0185094 -0.219217 0)
(0.0199792 -0.246271 0)
(0.0216664 -0.271358 0)
(0.0234394 -0.294114 0)
(0.0251539 -0.314133 0)
(0.0266579 -0.330969 0)
(0.0277973 -0.344135 0)
(0.0284244 -0.353109 0)
(0.0284082 -0.357343 0)
(0.0276461 -0.356269 0)
(0.0260775 -0.349322 0)
(0.0236985 -0.335955 0)
(0.0205746 -0.31567 0)
(0.0168522 -0.288048 0)
(0.0127647 -0.252786 0)
(0.0086262 -0.20974 0)
(0.00481146 -0.158958 0)
(0.00180611 -0.100712 0)
(0.000288542 -0.0355642 0)
(0.000442448 0.0382411 0)
(0.00282517 0.107995 0)
(0.00764952 0.170092 0)
(0.0139658 0.223926 0)
(0.0211002 0.26917 0)
(0.028511 0.305732 0)
(0.0357045 0.333747 0)
(0.0422685 0.353543 0)
(0.0478909 0.365604 0)
(0.0523618 0.370527 0)
(0.0555673 0.36898 0)
(0.0574787 0.361667 0)
(0.0581386 0.349292 0)
(0.0576453 0.332539 0)
(0.0561371 0.312051 0)
(0.0537778 0.28842 0)
(0.0507445 0.262181 0)
(0.0472174 0.233808 0)
(0.0433716 0.203721 0)
(0.0393715 0.172282 0)
(0.035366 0.13981 0)
(0.0314868 0.106582 0)
(0.027846 0.0728408 0)
(0.0245361 0.0388065 0)
(0.0216296 0.0046807 0)
(0.0191791 -0.0293446 0)
(0.0172183 -0.0630797 0)
(0.015762 -0.0963303 0)
(0.0148068 -0.128891 0)
(0.0143317 -0.16054 0)
(0.0142982 -0.19103 0)
(0.0146513 -0.220091 0)
(0.0153198 -0.247416 0)
(0.0162179 -0.272666 0)
(0.0172464 -0.295463 0)
(0.0182953 -0.315394 0)
(0.0192478 -0.332007 0)
(0.0199842 -0.344816 0)
(0.0203893 -0.353311 0)
(0.0203592 -0.356961 0)
(0.0198115 -0.355232 0)
(0.0186949 -0.347599 0)
(0.017 -0.333572 0)
(0.0147694 -0.312717 0)
(0.0121054 -0.284687 0)
(0.00917493 -0.249253 0)
(0.00620369 -0.206337 0)
(0.00346202 -0.156039 0)
(0.00130029 -0.0986641 0)
(0.000207907 -0.0347689 0)
(0.000363531 0.0369181 0)
(0.00233542 0.104517 0)
(0.00634952 0.164992 0)
(0.0116408 0.217748 0)
(0.0176686 0.262438 0)
(0.0239951 0.298929 0)
(0.0302141 0.327288 0)
(0.0359783 0.347764 0)
(0.0410163 0.360752 0)
(0.0451352 0.366762 0)
(0.0482187 0.366382 0)
(0.0502199 0.360242 0)
(0.0511521 0.348989 0)
(0.0510768 0.33326 0)
(0.0500923 0.313666 0)
(0.0483222 0.29078 0)
(0.0459049 0.265126 0)
(0.0429852 0.237178 0)
(0.0397071 0.207359 0)
(0.0362085 0.176044 0)
(0.0326172 0.143565 0)
(0.0290484 0.110213 0)
(0.0256028 0.0762517 0)
(0.0223657 0.041916 0)
(0.019407 0.00742595 0)
(0.0167812 -0.0270089 0)
(0.0145273 -0.0611817 0)
(0.0126697 -0.0948817 0)
(0.0112183 -0.127887 0)
(0.0101687 -0.15996 0)
(0.00950317 -0.19084 0)
(0.00919026 -0.220239 0)
(0.00918583 -0.247839 0)
(0.0094335 -0.273286 0)
(0.00986574 -0.296193 0)
(0.0104055 -0.316136 0)
(0.0109687 -0.332659 0)
(0.0114673 -0.345278 0)
(0.0118138 -0.353486 0)
(0.0119269 -0.356766 0)
(0.0117382 -0.354605 0)
(0.0111993 -0.34651 0)
(0.0102899 -0.332029 0)
(0.00902479 -0.310774 0)
(0.00746019 -0.28245 0)
(0.00569692 -0.246881 0)
(0.00387741 -0.204037 0)
(0.00217625 -0.154059 0)
(0.000821805 -0.0972691 0)
(0.000132365 -0.0342257 0)
(0.00028885 0.0358411 0)
(0.00186662 0.101672 0)
(0.00509503 0.160796 0)
(0.00937799 0.212629 0)
(0.014296 0.256813 0)
(0.0195067 0.293184 0)
(0.024687 0.321763 0)
(0.0295543 0.342741 0)
(0.0338809 0.356447 0)
(0.0374974 0.363325 0)
(0.0402926 0.363896 0)
(0.0422098 0.358734 0)
(0.0432406 0.348436 0)
(0.0434173 0.333599 0)
(0.0428038 0.314806 0)
(0.0414875 0.292608 0)
(0.0395708 0.267518 0)
(0.0371646 0.240007 0)
(0.0343821 0.210498 0)
(0.0313344 0.179372 0)
(0.0281268 0.14697 0)
(0.0248566 0.113596 0)
(0.021611 0.0795235 0)
(0.0184669 0.0450022 0)
(0.0154898 0.010265 0)
(0.0127342 -0.0244651 0)
(0.0102436 -0.0589685 0)
(0.0080505 -0.0930216 0)
(0.00617729 -0.126391 0)
(0.00463594 -0.158825 0)
(0.00342842 -0.190053 0)
(0.0025468 -0.219774 0)
(0.00197332 -0.24766 0)
(0.0016806 -0.273347 0)
(0.00163193 -0.296437 0)
(0.00178192 -0.316499 0)
(0.00207759 -0.33307 0)
(0.00246005 -0.345663 0)
(0.00286695 -0.353772 0)
(0.00323584 -0.356886 0)
(0.00350831 -0.354505 0)
(0.0036349 -0.346151 0)
(0.00358045 -0.331397 0)
(0.00332939 -0.309886 0)
(0.0028904 -0.281357 0)
(0.00229943 -0.245668 0)
(0.00161925 -0.202822 0)
(0.000935004 -0.152986 0)
(0.000362218 -0.0965009 0)
(6.02977e-05 -0.0339226 0)
(0.000217153 0.035001 0)
(0.0014125 0.0994419 0)
(0.00387241 0.157488 0)
(0.00715874 0.208564 0)
(0.0109645 0.252308 0)
(0.0150368 0.288536 0)
(0.0191321 0.317241 0)
(0.0230321 0.33857 0)
(0.0265546 0.352809 0)
(0.029558 0.360351 0)
(0.0319416 0.36167 0)
(0.033645 0.357294 0)
(0.0346446 0.347781 0)
(0.0349485 0.333697 0)
(0.0345911 0.315596 0)
(0.0336271 0.294013 0)
(0.0321254 0.269449 0)
(0.0301642 0.242367 0)
(0.0278266 0.213189 0)
(0.0251964 0.182299 0)
(0.0223555 0.150043 0)
(0.0193822 0.116729 0)
(0.0163489 0.0826412 0)
(0.0133222 0.048037 0)
(0.0103617 0.0131585 0)
(0.00752056 -0.0217628 0)
(0.004845 -0.0564983 0)
(0.00237491 -0.0908158 0)
(0.000143818 -0.124473 0)
(-0.00182091 -0.157212 0)
(-0.00349815 -0.188752 0)
(-0.00487311 -0.218785 0)
(-0.00593768 -0.246973 0)
(-0.00669083 -0.272946 0)
(-0.00713909 -0.296295 0)
(-0.00729699 -0.316583 0)
(-0.00718739 -0.333339 0)
(-0.00684137 -0.346068 0)
(-0.00629784 -0.354263 0)
(-0.0056024 -0.357408 0)
(-0.00480555 -0.355005 0)
(-0.00396015 -0.346582 0)
(-0.0031182 -0.331723 0)
(-0.00232719 -0.310083 0)
(-0.00162645 -0.281418 0)
(-0.001044 -0.245608 0)
(-0.000594288 -0.202675 0)
(-0.000277586 -0.152802 0)
(-8.5385e-05 -0.0963417 0)
(-9.61268e-06 -0.0338517 0)
(0.000147365 0.0343913 0)
(0.000967619 0.0978138 0)
(0.00266955 0.155056 0)
(0.00496599 0.205551 0)
(0.00765691 0.248934 0)
(0.010575 0.285015 0)
(0.0135539 0.313768 0)
(0.0164389 0.335318 0)
(0.0190947 0.349921 0)
(0.02141 0.357938 0)
(0.0232985 0.359809 0)
(0.0247004 0.356031 0)
(0.025581 0.347132 0)
(0.0259284 0.333652 0)
(0.0257509 0.316127 0)
(0.0250731 0.295074 0)
(0.0239323 0.270981 0)
(0.0223754 0.244305 0)
(0.0204554 0.215465 0)
(0.0182287 0.184843 0)
(0.0157535 0.152784 0)