/*--------------------------------*- C++ -*----------------------------------*\
  =========                 |
  \\      /  F ield         | OpenFOAM: The Open Source CFD Toolbox
   \\    /   O peration     | Website:  https://openfoam.org
    \\  /    A nd           | Version:  7
     \\/     M anipulation  |
\*---------------------------------------------------------------------------*/
FoamFile
{
    version     2.0;
    format      ascii;
    class       volScalarField;
    location    "0.026";
    object      p;
}
// * * * * * * * * * * * * * * * * * * * * * * * * * * * * * * * * * * * * * //

dimensions      [0 2 -2 0 0 0 0];

internalField   nonuniform List<scalar> 
2500
(
-4.92327e-06
-0.000537254
-0.00193198
-0.003882
-0.00606601
-0.00822572
-0.0101784
-0.011783
-0.012938
-0.0135734
-0.013644
-0.0131247
-0.0120068
-0.0102947
-0.00800385
-0.00515876
-0.00179158
0.00205936
0.00635048
0.0110338
0.0160576
0.021367
0.0269048
0.0326113
0.0384253
0.0442841
0.050124
0.0558807
0.0614901
0.0668883
0.0720127
0.0768025
0.0811997
0.0851499
0.0886036
0.0915173
0.0938551
0.0955898
0.0967056
0.097199
0.0970822
0.0963851
0.0951591
0.0934817
0.0914623
0.0892499
0.0870279
0.0850657
0.0836777
0.0831626
0.00053262
8.43084e-07
-0.00112588
-0.00263805
-0.00432208
-0.00599106
-0.00749526
-0.00871586
-0.00956195
-0.00996729
-0.00988641
-0.00929145
-0.00816945
-0.00651984
-0.0043526
-0.00168662
0.00145164
0.00502943
0.00900861
0.0133464
0.0179963
0.0229085
0.0280303
0.0333071
0.0386821
0.0440976
0.0494948
0.0548143
0.0599971
0.0649849
0.0697205
0.0741491
0.0782187
0.0818812
0.0850935
0.0878184
0.0900263
0.0916963
0.0928179
0.0933927
0.0934364
0.0929808
0.0920768
0.0907965
0.089237
0.0875231
0.0858079
0.0842802
0.0831596
0.0826475
0.00193279
0.00113012
-4.34676e-06
-0.0013664
-0.00282717
-0.00424614
-0.00550312
-0.0065001
-0.00715907
-0.00742095
-0.00724357
-0.00659993
-0.00547617
-0.00386967
-0.00178762
0.000754289
0.00373312
0.00711977
0.0108798
0.0149742
0.01936
0.0239911
0.0288184
0.0337907
0.0388551
0.0439572
0.0490417
0.0540532
0.0589363
0.0636364
0.0681007
0.0722781
0.0761209
0.0795852
0.082632
0.0852281
0.0873477
0.0889733
0.0900973
0.090723
0.0908669
0.0905596
0.0898479
0.0887964
0.0874887
0.0860281
0.0845387
0.0831638
0.082038
0.0812622
0.00390638
0.00265659
0.00134227
-4.28997e-05
-0.00145029
-0.0027709
-0.00390871
-0.00478534
-0.00533648
-0.00551198
-0.00527523
-0.00460221
-0.00348027
-0.0019067
0.000112339
0.00256284
0.00542396
0.00866902
0.0122662
0.0161792
0.0203678
0.0247887
0.0293956
0.0341403
0.0389724
0.0438404
0.0486921
0.0534747
0.0581359
0.0626239
0.0668888
0.0708826
0.0745604
0.0778812
0.0808086
0.0833121
0.085368
0.0869604
0.0880826
0.0887381
0.0889419
0.0887215
0.088118
0.0871869
0.0859982
0.0846355
0.0831992
0.0818016
0.0804977
0.0792885
0.00616374
0.00438706
0.00280345
0.00130277
-0.00014308
-0.00144982
-0.00254177
-0.00335867
-0.00384965
-0.00397397
-0.00370142
-0.00301209
-0.00189564
-0.00035037
0.00161758
0.00399494
0.00676216
0.00989421
0.0133612
0.017129
0.0211596
0.0254119
0.0298421
0.0344042
0.0390504
0.0437315
0.0483975
0.0529982
0.0574835
0.0618041
0.0659123
0.0697624
0.0733118
0.0765213
0.0793564
0.0817883
0.0837943
0.0853592
0.0864763
0.0871478
0.0873863
0.0872154
0.0866696
0.0857952
0.084649
0.083297
0.0818198
0.0803057
0.0787338
0.0769997
0.00847728
0.00615616
0.00425504
0.00257581
0.001024
-0.000334311
-0.0014396
-0.00224736
-0.00271897
-0.00282278
-0.0025352
-0.00184096
-0.000732776
0.000789291
0.0027183
0.00504097
0.00773828
0.0107862
0.0141561
0.0178154
0.0217278
0.025854
0.030152
0.0345777
0.0390852
0.0436272
0.0481557
0.0526223
0.0569785
0.0611771
0.0651719
0.0689187
0.0723763
0.075507
0.0782773
0.0806588
0.0826294
0.0841734
0.0852831
0.0859591
0.0862107
0.0860569
0.0855259
0.0846552
0.0834897
0.0820804
0.0804926
0.0787972
0.0769089
0.0746391
0.0106955
0.00783392
0.00559037
0.0036906
0.00198404
0.000524421
-0.000640871
-0.00148037
-0.00196611
-0.00207478
-0.00178918
-0.00109886
1.10182e-08
0.00150507
0.00340799
0.00569482
0.00834649
0.0113393
0.0146454
0.0182332
0.0220674
0.0261101
0.0303206
0.0346563
0.0390726
0.0435237
0.047963
0.0523433
0.0566176
0.0607396
0.0646642
0.0683483
0.0717513
0.074836
0.0775691
0.0799223
0.0818727
0.083404
0.0845066
0.0851786
0.0854259
0.0852628
0.0847114
0.0838012
0.0825674
0.0810486
0.0792989
0.0773781
0.0751466
0.0723423
0.0127021
0.00931628
0.00672024
0.00457402
0.00267975
0.0010835
-0.000176053
-0.00107791
-0.0016031
-0.00173565
-0.00146435
-0.000783451
0.000307295
0.00180289
0.00369322
0.00596319
0.00859315
0.0115593
0.0148339
0.0183858
0.0221806
0.0261809
0.0303472
0.0346377
0.0390087
0.0434156
0.0478123
0.0521528
0.0563906
0.06048
0.0643766
0.0680374
0.0714219
0.0744928
0.0772164
0.0795636
0.0815105
0.0830389
0.0841373
0.0848007
0.0850316
0.0848396
0.0842412
0.0832592
0.0819204
0.0802542
0.0783072
0.0761327
0.0735458
0.0702211
0.014412
0.0105203
0.00756898
0.00516043
0.00305636
0.00129872
-7.96917e-05
-0.00106612
-0.00164902
-0.00181877
-0.00156956
-0.000900107
0.000186243
0.00168171
0.00357408
0.00584678
0.00847917
0.0114468
0.0147219
0.0182731
0.0220664
0.0260648
0.0302292
0.0345182
0.0388888
0.0432968
0.0476968
0.0520427
0.0562886
0.0603889
0.0642989
0.0679754
0.0713775
0.0744671
0.0772095
0.0795742
0.0815356
0.0830734
0.0841734
0.0848278
0.0850352
0.0848008
0.0841361
0.0830585
0.0815881
0.0797472
0.0775779
0.0751311
0.0721837
0.0683548
0.0157618
0.011379
0.00807187
0.00539058
0.00306148
0.001125
-0.000389724
-0.00147633
-0.00212937
-0.00234464
-0.00212114
-0.00146179
-0.000373427
0.0011333
0.00304389
0.00533999
0.00799965
0.0109975
0.0143051
0.0178908
0.0217204
0.0257569
0.0299611
0.0342921
0.0387068
0.043161
0.0476094
0.052006
0.0563044
0.0604588
0.0644237
0.0681554
0.0716118
0.0747534
0.0775441
0.0799514
0.0819476
0.0835097
0.0846207
0.0852694
0.0854508
0.085166
0.0844222
0.0832319
0.0816102
0.0795745
0.0771648
0.0744321
0.0711206
0.0667992
0.0167022
0.0118367
0.00817226
0.00521029
0.00264497
0.000517135
-0.00114608
-0.00234329
-0.00307403
-0.00333875
-0.00314078
-0.0024869
-0.00138736
0.000144257
0.00209103
0.00443262
0.00714546
0.010203
0.0135757
0.0172314
0.0211352
0.0252499
0.029536
0.0339521
0.0384553
0.0430008
0.0475431
0.0520355
0.0564311
0.0606832
0.0647454
0.0685725
0.072121
0.0753495
0.0782198
0.0806971
0.0827508
0.0843552
0.08549
0.0861404
0.0862978
0.0859594
0.0851286
0.0838139
0.0820267
0.0797807
0.077116
0.074086
0.070405
0.0655953
0.0171924
0.0118449
0.00781889
0.00456874
0.00175808
-0.000570464
-0.00239057
-0.00370477
-0.00451678
-0.00483108
-0.00465491
-0.00399874
-0.00287614
-0.00130362
0.000699295
0.00311009
0.00590337
0.00905104
0.0125224
0.0162842
0.0203007
0.0245341
0.0289443
0.0334893
0.0381256
0.0428079
0.0474897
0.0521238
0.0566621
0.0610565
0.0652593
0.0692235
0.0729035
0.0762557
0.0792392
0.0818164
0.0839535
0.0856215
0.0867964
0.0874599
0.0875995
0.0872088
0.0862875
0.084841
0.0828777
0.0804092
0.0774766
0.0741376
0.0700781
0.0647752
0.0171958
0.0113589
0.00696338
0.0034166
0.00035218
-0.00218458
-0.00416731
-0.00560177
-0.00649527
-0.00685592
-0.00669463
-0.00602539
-0.00486507
-0.00323323
-0.00115206
0.00135354
0.0042561
0.00752577
0.0111304
0.0150353
0.0192039
0.0235973
0.0281744
0.0328926
0.0377073
0.0425725
0.0474405
0.052263
0.0569905
0.0615732
0.0659616
0.0701064
0.0739595
0.0774747
0.0806078
0.0833179
0.0855677
0.0873241
0.0885595
0.0892514
0.0893836
0.0889459
0.0879345
0.0863522
0.0842051
0.0815032
0.0782901
0.0746287
0.0701772
0.0643666
0.0166773
0.0103351
0.00555786
0.00170424
-0.00162261
-0.00437412
-0.00652332
-0.00807879
-0.00905115
-0.00945192
-0.00929555
-0.00859953
-0.0073841
-0.00567193
-0.00348809
-0.00086006
0.00218245
0.00560757
0.00938138
0.0134678
0.0178289
0.0224243
0.0272123
0.0321488
0.0371882
0.0422834
0.0473854
0.0524443
0.057409
0.0622277
0.0668486
0.0712199
0.0752905
0.0790109
0.0823333
0.0852129
0.0876083
0.0894823
0.0908026
0.0915426
0.0916818
0.0912062
0.0901089
0.0883897
0.086053
0.0831078
0.0796009
0.0756013
0.0707384
0.0643956
0.0156001
0.00872886
0.00355295
-0.000619952
-0.00421868
-0.00719103
-0.00950914
-0.0111843
-0.0122304
-0.0126622
-0.0124978
-0.0117584
-0.0104676
-0.00865149
-0.00633811
-0.00355775
-0.000342619
0.00327321
0.00725383
0.0115615
0.0161566
0.0209977
0.0260413
0.0312424
0.0365541
0.0419276
0.0473128
0.0526578
0.0579095
0.0630141
0.0679169
0.0725633
0.0768987
0.0808699
0.0844251
0.087515
0.0900935
0.0921184
0.0935528
0.094365
0.0945301
0.0940299
0.0928539
0.0909995
0.088469
0.0852711
0.0814557
0.0770991
0.0717999
0.0648904
0.0139239
0.00649206
0.000896011
-0.00361105
-0.00749216
-0.0106913
-0.0131797
-0.0149713
-0.0160835
-0.0165346
-0.0163464
-0.015544
-0.0141546
-0.012208
-0.00973558
-0.00677056
-0.0033479
0.000495874
0.00472272
0.00929298
0.0141653
0.0192967
0.0246423
0.0301556
0.0357883
0.0414902
0.0472092
0.0528918
0.0584827
0.0639253
0.0691623
0.0741355
0.0787868
0.0830585
0.0868942
0.0902397
0.0930435
0.095258
0.0968405
0.0977542
0.0979688
0.0974615
0.096218
0.0942327
0.0915059
0.0880456
0.0839059
0.0791701
0.0734037
0.0658832
0.0116034
0.0035716
-0.00247061
-0.00732917
-0.0115043
-0.0149361
-0.0175949
-0.019498
-0.0206662
-0.0211219
-0.020891
-0.0200027
-0.0184886
-0.016382
-0.013718
-0.0105334
-0.00686586
-0.00275467
0.00175977
0.00663574
0.0118301
0.0172981
0.0229934
0.028868
0.034872
0.0409537
0.0470593
0.053133
0.0591173
0.0649531
0.0705795
0.075935
0.080957
0.0855833
0.0897524
0.093404
0.096481
0.0989293
0.1007
0.10175
0.102043
0.101551
0.100255
0.0981461
0.0952223
0.0914904
0.0870088
0.0818685
0.075598
0.0674123
0.00858579
-9.24369e-05
-0.00661119
-0.0118409
-0.0163227
-0.0199929
-0.0228211
-0.0248284
-0.0260399
-0.0264824
-0.0261866
-0.0251862
-0.0235174
-0.021218
-0.018327
-0.0148848
-0.0109324
-0.00651194
-0.00166636
0.00356041
0.00912327
0.0149758
0.0210701
0.0273566
0.0337839
0.0402986
0.0468451
0.0533658
0.0598006
0.0660873
0.072162
0.077959
0.0834112
0.0884513
0.0930117
0.0970261
0.10043
0.103163
0.105169
0.106396
0.106803
0.106354
0.105025
0.102804
0.0996842
0.0956722
0.09083
0.0852567
0.0784395
0.0695247
0.00480989
-0.00456844
-0.0115983
-0.017221
-0.0220228
-0.0259365
-0.0289315
-0.0310334
-0.0322724
-0.0326803
-0.0322934
-0.0311508
-0.0292938
-0.0267649
-0.0236079
-0.0198669
-0.0155867
-0.0108124
-0.00558981
3.49263e-05
0.00601469
0.0123013
0.0188454
0.0255959
0.0325
0.0395027
0.0465467
0.0535723
0.060517
0.0673159
0.0739012
0.0802032
0.0861499
0.0916682
0.0966843
0.101125
0.104917
0.107993
0.110287
0.111741
0.112303
0.111932
0.110596
0.108277
0.104967
0.100667
0.095445
0.0894075
0.0819954
0.072278
0.000204015
-0.00993488
-0.0175142
-0.0235536
-0.0286891
-0.0328504
-0.0360075
-0.0381913
-0.0394381
-0.0397861
-0.0392776
-0.0379581
-0.0358747
-0.0330756
-0.0296094
-0.0255249
-0.0208706
-0.0156952
-0.0100471
-0.00397507
0.00247191
0.00924397
0.0162902
0.0235584
0.0309942
0.0385415
0.0461413
0.0537321
0.061249
0.0686241
0.0757863
0.0826613
0.089172
0.0952392
0.100782
0.105719
0.109969
0.113454
0.1161
0.117838
0.118606
0.118355
0.117044
0.114649
0.111155
0.106563
0.100941
0.0944061
0.0863454
0.0757426
-0.00531547
-0.0162821
-0.024453
-0.0309339
-0.0364166
-0.0408281
-0.0441396
-0.0463888
-0.0476193
-0.0478767
-0.0472108
-0.0456744
-0.0433215
-0.0402064
-0.0363836
-0.0319066
-0.0268285
-0.0212013
-0.0150766
-0.00850555
-0.00153909
0.00577139
0.0133737
0.0212145
0.0292385
0.0373885
0.0456042
0.0538223
0.0619762
0.0699949
0.077804
0.0853246
0.0924742
0.0991671
0.105315
0.110827
0.115613
0.119584
0.122654
0.124743
0.125779
0.125698
0.124453
0.12201
0.118347
0.11346
0.10742
0.100352
0.0915846
0.0800041
-0.011846
-0.0237142
-0.0325219
-0.0394702
-0.0453127
-0.0499744
-0.0534286
-0.0557216
-0.056906
-0.0570362
-0.0561709
-0.0543714
-0.0516996
-0.0482172
-0.0439849
-0.0390619
-0.0335059
-0.0273729
-0.0207175
-0.0135933
-0.00605303
0.00185047
0.0100641
0.0185337
0.0272034
0.0360153
0.0449083
0.053818
0.0626757
0.0714084
0.079938
0.0881815
0.0960508
0.103453
0.110292
0.116467
0.121877
0.126421
0.13
0.13252
0.133894
0.134048
0.13292
0.130466
0.126654
0.121474
0.115
0.107363
0.0978256
0.0851659
-0.0195009
-0.032351
-0.0418439
-0.0492856
-0.0554987
-0.0604067
-0.063987
-0.066296
-0.0673972
-0.0673558
-0.0662412
-0.0641248
-0.0610776
-0.0571698
-0.0524692
-0.0470414
-0.0409489
-0.034252
-0.0270086
-0.0192745
-0.0111042
-0.00255157
0.0063297
0.0154852
0.0248589
0.0343928
0.0440256
0.0536921
0.0633227
0.0728422
0.0821696
0.0912177
0.0998929
0.108095
0.11572
0.122655
0.128789
0.134005
0.13819
0.141234
0.143034
0.143499
0.142551
0.140134
0.136203
0.130739
0.123817
0.115576
0.105202
0.0913522
-0.0284113
-0.0423306
-0.0525597
-0.0605203
-0.0671116
-0.0722572
-0.0759399
-0.0782288
-0.0792008
-0.0789343
-0.0775111
-0.0750148
-0.0715271
-0.0671277
-0.0618929
-0.055895
-0.0492022
-0.0418791
-0.0339868
-0.0255834
-0.0167249
-0.00746566
0.00214047
0.0120394
0.0221757
0.032492
0.0429274
0.0534169
0.0638905
0.0742716
0.0844771
0.0944158
0.103989
0.113089
0.121602
0.129406
0.136374
0.142376
0.147279
0.150956
0.153285
0.154153
0.153466
0.151147
0.147139
0.141409
0.134031
0.125152
0.113871
0.0987113
-0.0387292
-0.0538121
-0.0648306
-0.0733341
-0.0803071
-0.0856745
-0.0894269
-0.0916492
-0.0924347
-0.0918774
-0.0900749
-0.0871244
-0.0831206
-0.0781542
-0.0723109
-0.0656705
-0.0583074
-0.0502908
-0.041685
-0.0325502
-0.0229434
-0.012919
-0.00253029
0.00816959
0.0191268
0.0302853
0.0415858
0.0529644
0.0643517
0.0756707
0.0868367
0.0977557
0.108324
0.118427
0.127941
0.136733
0.14466
0.151575
0.157326
0.161764
0.164743
0.166127
0.165798
0.163657
0.159628
0.153661
0.145827
0.136279
0.124018
0.107419
-0.0506298
-0.0669786
-0.078842
-0.0879099
-0.0952616
-0.100826
-0.104603
-0.106699
-0.107226
-0.106298
-0.104031
-0.100539
-0.0959305
-0.0903103
-0.0837742
-0.0764107
-0.0683006
-0.0595178
-0.0501298
-0.0401985
-0.0297815
-0.0189325
-0.00770368
0.00385409
0.0156893
0.0277486
0.0399754
0.0523082
0.0646792
0.0770126
0.0892231
0.101215
0.112879
0.124097
0.134733
0.144643
0.153668
0.161641
0.168389
0.173737
0.17751
0.179546
0.179695
0.177834
0.173859
0.1677
0.15942
0.149176
0.135862
0.117685
-0.0643156
-0.0820417
-0.0948071
-0.104457
-0.112176
-0.117899
-0.121642
-0.123534
-0.123713
-0.122316
-0.119481
-0.115342
-0.110026
-0.103652
-0.0963277
-0.0881506
-0.0792088
-0.0695811
-0.0593379
-0.0485423
-0.0372516
-0.0255185
-0.0133924
-0.000921289
0.0118471
0.0248635
0.0380753
0.0514249
0.064848
0.0782711
0.0916101
0.104768
0.117635
0.130084
0.141973
0.153142
0.163419
0.172614
0.180529
0.186958
0.191698
0.194548
0.195325
0.19387
0.190048
0.18376
0.175058
0.164101
0.14966
0.129756
-0.0800207
-0.099246
-0.112972
-0.123215
-0.131279
-0.137107
-0.140736
-0.142325
-0.142042
-0.140055
-0.136527
-0.131617
-0.125472
-0.118228
-0.110006
-0.100914
-0.0910468
-0.0804889
-0.0693128
-0.0575822
-0.0453534
-0.0326766
-0.0195977
-0.00616009
0.00759357
0.0216196
0.0358713
0.0502967
0.0648367
0.0794223
0.0939724
0.108392
0.122568
0.13637
0.149649
0.162233
0.173929
0.184529
0.193804
0.201516
0.207423
0.211284
0.212871
0.211983
0.208442
0.202115
0.193034
0.181356
0.165714
0.143923
-0.0980161
-0.118876
-0.133624
-0.144463
-0.152832
-0.15869
-0.162099
-0.163257
-0.16237
-0.159642
-0.155269
-0.149439
-0.142322
-0.134073
-0.124828
-0.114707
-0.103812
-0.0922314
-0.0800401
-0.0673014
-0.0540693
-0.0403904
-0.0263055
-0.0118519
0.00293465
0.0180178
0.0333588
0.0489135
0.0646302
0.0804465
0.0962869
0.112059
0.127653
0.142935
0.157748
0.17191
0.185212
0.197419
0.208274
0.217501
0.224812
0.229918
0.232539
0.232417
0.229325
0.223079
0.213686
0.201294
0.184379
0.160529
-0.118618
-0.141265
-0.157096
-0.168523
-0.177137
-0.18292
-0.185969
-0.186531
-0.184861
-0.181206
-0.175803
-0.168872
-0.160614
-0.151203
-0.140793
-0.129515
-0.117479
-0.104776
-0.0914828
-0.0776609
-0.0633607
-0.0486233
-0.0334827
-0.0179685
-0.00210751
0.0140737
0.0305461
0.047276
0.0642215
0.08133
0.098534
0.115748
0.132866
0.149753
0.166251
0.182166
0.197272
0.211312
0.223994
0.235001
0.243995
0.250627
0.254554
0.25545
0.25302
0.247018
0.237411
0.224332
0.206077
0.17998
-0.142196
-0.166806
-0.183781
-0.195771
-0.204541
-0.210105
-0.212609
-0.212362
-0.209681
-0.204869
-0.19821
-0.189964
-0.180364
-0.16961
-0.157873
-0.145295
-0.131993
-0.118061
-0.103576
-0.0885946
-0.0731628
-0.057314
-0.0410735
-0.0244607
-0.00749139
0.00981981
0.0274565
0.0453978
0.0636149
0.0820677
0.1007
0.119438
0.13818
0.1568
0.175134
0.192984
0.21011
0.226228
0.241015
0.254108
0.265109
0.273602
0.279166
0.281392
0.279897
0.274355
0.264677
0.250964
0.231308
0.202756
-0.169188
-0.195966
-0.214149
-0.226653
-0.235448
-0.240596
-0.242309
-0.24098
-0.237001
-0.230745
-0.222554
-0.212736
-0.20156
-0.189253
-0.176004
-0.161967
-0.147264
-0.131991
-0.11622
-0.100004
-0.0833805
-0.0663729
-0.0489954
-0.0312547
-0.0131531
0.00530934
0.0241315
0.0433084
0.0628274
0.0826646
0.10278
0.123112
0.143573
0.164045
0.184368
0.204341
0.223713
0.242179
0.25938
0.274904
0.288291
0.299044
0.306649
0.310593
0.310384
0.305587
0.296034
0.281778
0.260668
0.229432
-0.200117
-0.229309
-0.248761
-0.261695
-0.270328
-0.274792
-0.275391
-0.272623
-0.266983
-0.258927
-0.248869
-0.237172
-0.224145
-0.210044
-0.195077
-0.179406
-0.163158
-0.146426
-0.129277
-0.111754
-0.0938845
-0.0756785
-0.0571364
-0.0382496
-0.0190041
0.000617468
0.0206322
0.0410542
0.0618905
0.083137
0.104773
0.126758
0.149021
0.171456
0.193917
0.216203
0.238058
0.259159
0.279115
0.297463
0.313674
0.327161
0.337298
0.343444
0.344968
0.341293
0.332138
0.31748
0.294878
0.260693
-0.235618
-0.267525
-0.288302
-0.301533
-0.309735
-0.313148
-0.312201
-0.307537
-0.299775
-0.289479
-0.277147
-0.263206
-0.24801
-0.231842
-0.214928
-0.197436
-0.179492
-0.161183
-0.142565
-0.12367
-0.104508
-0.0850752
-0.0653537
-0.0453167
-0.0249305
-0.00415782
0.01704
0.0386991
0.06085
0.0835128
0.106692
0.130369
0.1545
0.178998
0.203735
0.228521
0.253102
0.277144
0.300227
0.321842
0.341384
0.358165
0.371429
0.380381
0.384211
0.382154
0.373773
0.358924
0.334813
0.297372
-0.276477
-0.311474
-0.333619
-0.346935
-0.354323
-0.35618
-0.353114
-0.345957
-0.335493
-0.322414
-0.307319
-0.290707
-0.272975
-0.254437
-0.235327
-0.215816
-0.196023
-0.176022
-0.155853
-0.135531
-0.115046
-0.0943726
-0.0734733
-0.0522991
-0.0307938
-0.00889665
0.0134551
0.0363235
0.0597656
0.08383
0.108551
0.13394
0.159984
0.186626
0.213763
0.241228
0.268779
0.29608
0.322694
0.348067
0.37152
0.392257
0.409373
0.421884
0.428755
0.428976
0.421886
0.407158
0.381553
0.34049
-0.323682
-0.362244
-0.385774
-0.398844
-0.404866
-0.40447
-0.398521
-0.3881
-0.3742
-0.357674
-0.339233
-0.319452
-0.298774
-0.277532
-0.255965
-0.234235
-0.212445
-0.190648
-0.168861
-0.147074
-0.125253
-0.103347
-0.0812924
-0.059015
-0.0364333
-0.0134603
0.00999422
0.0340208
0.0587071
0.084134
0.11037
0.137465
0.165441
0.194282
0.223923
0.25423
0.284987
0.315873
0.346445
0.376118
0.404145
0.429615
0.451459
0.468469
0.479329
0.482706
0.477624
0.463481
0.43645
0.391319
-0.378507
-0.421246
-0.446121
-0.458429
-0.462282
-0.458669
-0.448813
-0.43413
-0.415877
-0.395095
-0.372623
-0.349108
-0.325031
-0.300733
-0.276443
-0.252301
-0.228382
-0.204706
-0.181259
-0.157997
-0.134853
-0.111746
-0.0885841
-0.0652629
-0.0416725
-0.0176969
0.00678406
0.0318922
0.057749
0.0844713
0.112167
0.140929
0.170826
0.201891
0.234108
0.267394
0.301576
0.336369
0.371344
0.405904
0.43925
0.470363
0.497994
0.520678
0.536755
0.544465
0.542396
0.529523
0.501225
0.451469
-0.442643
-0.490347
-0.516415
-0.527146
-0.527657
-0.519481
-0.504349
-0.48412
-0.460373
-0.434368
-0.407071
-0.379195
-0.351238
-0.323528
-0.296263
-0.269541
-0.243391
-0.217789
-0.192673
-0.167958
-0.143539
-0.119297
-0.0951063
-0.0708303
-0.0463274
-0.0214502
0.00395312
0.0300382
0.0569623
0.0848821
0.113949
0.144306
0.176074
0.209347
0.244173
0.280536
0.318332
0.357334
0.397161
0.437233
0.476725
0.51453
0.549222
0.579049
0.601934
0.61557
0.617932
0.607364
0.578115
0.523034
-0.518399
-0.572082
-0.598966
-0.606823
-0.602259
-0.587637
-0.565402
-0.537981
-0.507343
-0.474976
-0.441965
-0.409057
-0.376733
-0.345276
-0.31482
-0.285395
-0.256963
-0.229435
-0.202692
-0.176594
-0.15099
-0.125718
-0.100614
-0.0755059
-0.0502184
-0.0245714
0.00162027
0.028547
0.0564038
0.0853892
0.115702
0.147539
0.181083
0.216499
0.253916
0.293403
0.334951
0.378428
0.423536
0.469761
0.516298
0.561991
0.605261
0.644059
0.675822
0.69755
0.706377
0.699692
0.670092
0.608805
-0.60904
-0.669976
-0.696856
-0.699747
-0.687531
-0.663829
-0.63206
-0.595368
-0.556156
-0.516129
-0.476442
-0.437823
-0.40068
-0.365197
-0.331403
-0.299228
-0.268535
-0.239153
-0.210886
-0.183533
-0.156885
-0.130735
-0.104874
-0.0790939
-0.0531844
-0.026932
-0.000117981
0.027483
0.0561041
0.0859862
0.117379
0.150535
0.185709
0.223144
0.263065
0.305652
0.351018
0.399165
0.449934
0.502936
0.55746
0.612373
0.666004
0.71603
0.75936
0.792142
0.810375
0.810029
0.781204
0.712639
-0.719388
-0.789055
-0.814239
-0.808754
-0.785034
-0.748568
-0.70407
-0.655528
-0.605776
-0.556666
-0.509327
-0.464371
-0.422047
-0.382369
-0.345205
-0.310339
-0.277507
-0.24643
-0.216825
-0.188412
-0.160923
-0.134097
-0.107682
-0.0814305
-0.0550981
-0.0284386
-0.00120125
0.026873
0.0560541
0.0866259
0.118887
0.153152
0.189746
0.229005
0.271261
0.316826
0.36597
0.418877
0.475587
0.535921
0.599365
0.664926
0.73096
0.794965
0.853331
0.901224
0.933164
0.943042
0.917116
0.840086
-0.856895
-0.936672
-0.956735
-0.937264
-0.896275
-0.84194
-0.780584
-0.717087
-0.654601
-0.594953
-0.539074
-0.487304
-0.43961
-0.395743
-0.35534
-0.31799
-0.283271
-0.250771
-0.220104
-0.190907
-0.162845
-0.135602
-0.108882
-0.0824014
-0.0558819
-0.0290478
-0.00161903
0.0266938
0.0561949
0.0872075
0.120079
0.155182
0.192919
0.23372
0.278039
0.326339
0.379079
0.436673
0.499438
0.567506
0.6407
0.718346
0.799033
0.880278
0.958099
1.02664
1.07861
1.10494
1.08595
0.999542
-1.03372
-1.12379
-1.13189
-1.08919
-1.02234
-0.943169
-0.859781
-0.777766
-0.700275
-0.628777
-0.563716
-0.504939
-0.451967
-0.404173
-0.360886
-0.321449
-0.285248
-0.251726
-0.220379
-0.190758
-0.16246
-0.135115
-0.108388
-0.0819584
-0.0555224
-0.0287782
-0.00142138
0.0268629
0.0564077
0.0875708
0.120743
0.156353
0.194877
0.236841
0.282826
0.333462
0.389424
0.451407
0.520081
0.596014
0.67954
0.770554
0.868197
0.970393
1.07315
1.1698
1.25108
1.30396
1.29964
1.20444
-1.27099
-1.36702
-1.34948
-1.26837
-1.16309
-1.04987
-0.938286
-0.833994
-0.739465
-0.655238
-0.580843
-0.515333
-0.457586
-0.406473
-0.360938
-0.320036
-0.28294
-0.248934
-0.217399
-0.187798
-0.159666
-0.132588
-0.106191
-0.0801306
-0.0540791
-0.0277174
-0.000723699
0.0272352
0.0565134
0.0874958
0.120608
0.156329
0.195199
0.237835
0.284943
0.337327
0.395896
0.461664
0.535726
0.619213
0.713181
0.818411
0.935065
1.0621
1.19628
1.33085
1.45488
1.5506
1.57597
1.47777
-1.60751
-1.69156
-1.62096
-1.47691
-1.31541
-1.15665
-1.01023
-0.88036
-0.767589
-0.670653
-0.587597
-0.516326
-0.45487
-0.401483
-0.354672
-0.313181
-0.275965
-0.242156
-0.211028
-0.181972
-0.154468
-0.128069
-0.102376
-0.0770283
-0.0516866
-0.0260225
0.000293868
0.0276045
0.0562751
0.0867067
0.119349
0.154716
0.193401
0.236098
0.283625
0.336947
0.397208
0.465758
0.544169
0.634243
0.737964
0.85737
0.994249
1.14953
1.32207
1.50669
1.69239
1.85706
1.94162
1.86114
-2.11512
-2.13495
-1.95761
-1.71208
-1.47046
-1.2533
-1.06628
-0.909182
-0.778718
-0.670635
-0.580827
-0.505711
-0.442309
-0.3882
-0.341446
-0.300499
-0.264121
-0.231317
-0.201281
-0.173354
-0.146985
-0.121708
-0.0971146
-0.0728412
-0.0485489
-0.0239115
0.001398
0.0277189
0.0554162
0.084894
0.116611
0.151098
0.188981
0.231006
0.278075
0.331286
0.391988
0.461843
0.542903
0.637694
0.749284
0.881311
1.03788
1.22311
1.44002
1.6883
1.96092
2.23527
2.43567
2.43004
-2.92438
-2.74714
-2.36696
-1.9643
-1.61261
-1.32472
-1.09427
-0.911567
-0.766713
-0.651137
-0.557984
-0.481969
-0.419071
-0.366245
-0.321174
-0.282085
-0.247612
-0.216685
-0.188461
-0.162262
-0.137534
-0.113815
-0.0907066
-0.0678569
-0.0449411
-0.0216479
0.00233408
0.0273295
0.0536891
0.0818045
0.112125
0.145178
0.181592
0.222134
0.267747
0.319607
0.379203
0.448437
0.529766
0.626388
0.74248
0.883497
1.05646
1.27009
1.53443
1.8594
2.25021
2.69286
3.10905
3.3186
-4.33181
-3.56837
-2.82459
-2.19982
-1.71145
-1.34707
-1.07788
-0.87724
-0.725505
-0.608818
-0.517427
-0.444481
-0.385137
-0.33593
-0.29434
-0.258504
-0.227025
-0.198838
-0.173117
-0.149209
-0.126589
-0.104824
-0.0835465
-0.0624319
-0.0411843
-0.0195201
0.00284431
0.0262056
0.0508865
0.0772502
0.105717
0.136786
0.171058
0.209277
0.252369
0.301514
0.358237
0.424542
0.50311
0.597591
0.713044
0.856586
1.03831
1.27253
1.57947
1.98688
2.52457
3.20317
4.00174
4.83135
-7.167
-4.5676
-3.14936
-2.26459
-1.6591
-1.25038
-0.972867
-0.778264
-0.637151
-0.531796
-0.45099
-0.387423
-0.336211
-0.294
-0.258426
-0.227781
-0.200804
-0.17655
-0.154291
-0.133462
-0.113611
-0.0943687
-0.0754233
-0.0565023
-0.037357
-0.0177492
0.00256079
0.0238241
0.0463168
0.070352
0.096295
0.124582
0.155745
0.190441
0.229502
0.273994
0.325308
0.385305
0.456524
0.542521
0.648428
0.781879
0.954549
1.18485
1.50318
1.95989
2.62451
3.58171
5.08598
7.80397
-12.0354
-5.65048
-2.98534
-1.88845
-1.29389
-0.941887
-0.724886
-0.581422
-0.480193
-0.405335
-0.34796
-0.302643
-0.265881
-0.235299
-0.209228
-0.18646
-0.1661
-0.147474
-0.130066
-0.113475
-0.0973789
-0.081519
-0.065676
-0.0496586
-0.0332914
-0.0164054
0.00117111
0.0196219
0.0391507
0.0599913
0.0824194
0.106766
0.133434
0.162924
0.195864
0.233055
0.275536
0.324682
0.382359
0.451172
0.53491
0.639356
0.773874
0.954922
1.21452
1.61656
2.27764
3.46947
6.25139
12.7614
)
;

boundaryField
{
    movingWall
    {
        type            zeroGradient;
    }
    fixedWalls
    {
        type            zeroGradient;
    }
    frontAndBack
    {
        type            empty;
    }
}


// ************************************************************************* //
