/*--------------------------------*- C++ -*----------------------------------*\
  =========                 |
  \\      /  F ield         | OpenFOAM: The Open Source CFD Toolbox
   \\    /   O peration     | Website:  https://openfoam.org
    \\  /    A nd           | Version:  7
     \\/     M anipulation  |
\*---------------------------------------------------------------------------*/
FoamFile
{
    version     2.0;
    format      ascii;
    class       volVectorField;
    location    "0.026";
    object      U;
}
// * * * * * * * * * * * * * * * * * * * * * * * * * * * * * * * * * * * * * //

dimensions      [0 1 -1 0 0 0 0];

internalField   nonuniform List<vector> 
2500
(
(2.47293e-05 -2.45919e-05 0)
(6.84487e-05 -2.59008e-05 0)
(8.00186e-05 -8.0239e-06 0)
(3.22655e-05 1.46724e-05 0)
(-8.08006e-05 3.67421e-05 0)
(-0.000255139 5.63046e-05 0)
(-0.00048309 7.26306e-05 0)
(-0.000755984 8.56681e-05 0)
(-0.00106475 9.55928e-05 0)
(-0.00140049 0.000102641 0)
(-0.00175473 0.000107063 0)
(-0.00211952 0.000109101 0)
(-0.00248755 0.000108989 0)
(-0.0028521 0.000106947 0)
(-0.00320707 0.000103183 0)
(-0.00354698 9.78897e-05 0)
(-0.00386693 9.12484e-05 0)
(-0.00416258 8.3426e-05 0)
(-0.00443014 7.45783e-05 0)
(-0.0046663 6.48503e-05 0)
(-0.00486824 5.43777e-05 0)
(-0.00503361 4.32885e-05 0)
(-0.00516047 3.17053e-05 0)
(-0.00524734 1.97475e-05 0)
(-0.00529315 7.53326e-06 0)
(-0.00529722 -4.81799e-06 0)
(-0.00525935 -1.71837e-05 0)
(-0.00517974 -2.94358e-05 0)
(-0.00505908 -4.14394e-05 0)
(-0.0048985 -5.30508e-05 0)
(-0.00469969 -6.41167e-05 0)
(-0.00446483 -7.44734e-05 0)
(-0.00419671 -8.39467e-05 0)
(-0.0038987 -9.23522e-05 0)
(-0.00357477 -9.9496e-05 0)
(-0.00322955 -0.000105176 0)
(-0.00286833 -0.000109184 0)
(-0.00249704 -0.000111306 0)
(-0.00212226 -0.000111325 0)
(-0.00175122 -0.000109025 0)
(-0.00139171 -0.000104189 0)
(-0.00105205 -9.66035e-05 0)
(-0.000741015 -8.60657e-05 0)
(-0.000467631 -7.23964e-05 0)
(-0.000240907 -5.54879e-05 0)
(-6.91611e-05 -3.54819e-05 0)
(4.02904e-05 -1.32623e-05 0)
(8.4119e-05 9.35911e-06 0)
(6.94825e-05 2.66791e-05 0)
(2.4655e-05 2.4604e-05 0)
(2.63139e-05 -6.84025e-05 0)
(4.44337e-05 -4.34535e-05 0)
(-3.46269e-05 5.13638e-05 0)
(-0.000250093 0.000168756 0)
(-0.00061379 0.000286924 0)
(-0.00112108 0.000395511 0)
(-0.00175812 0.000489489 0)
(-0.00250641 0.00056693 0)
(-0.0033453 0.000627449 0)
(-0.00425343 0.000671433 0)
(-0.00520973 0.000699675 0)
(-0.00619393 0.000713188 0)
(-0.00718695 0.000713089 0)
(-0.00817102 0.000700543 0)
(-0.00912984 0.000676716 0)
(-0.0100486 0.000642753 0)
(-0.0109139 0.00059976 0)
(-0.011714 0.0005488 0)
(-0.0124383 0.000490883 0)
(-0.0130778 0.000426971 0)
(-0.0136246 0.000357981 0)
(-0.0140723 0.000284792 0)
(-0.0144155 0.000208257 0)
(-0.0146502 0.000129207 0)
(-0.0147733 4.84723e-05 0)
(-0.0147832 -3.31128e-05 0)
(-0.0146793 -0.000114694 0)
(-0.0144623 -0.000195389 0)
(-0.0141341 -0.000274272 0)
(-0.0136981 -0.000350374 0)
(-0.013159 -0.000422672 0)
(-0.0125229 -0.000490086 0)
(-0.0117975 -0.000551486 0)
(-0.010992 -0.000605689 0)
(-0.0101174 -0.000651476 0)
(-0.00918622 -0.000687597 0)
(-0.00821269 -0.000712792 0)
(-0.00721271 -0.000725814 0)
(-0.00620372 -0.000725452 0)
(-0.00520466 -0.000710568 0)
(-0.00423571 -0.000680143 0)
(-0.00331802 -0.000633341 0)
(-0.00247333 -0.000569618 0)
(-0.00172324 -0.000488904 0)
(-0.0010883 -0.000391953 0)
(-0.000586334 -0.000281113 0)
(-0.000230191 -0.000161917 0)
(-2.31652e-05 -4.48868e-05 0)
(4.87164e-05 4.78282e-05 0)
(2.69891e-05 6.94924e-05 0)
(9.26176e-06 -8.1317e-05 0)
(-4.77279e-05 3.46126e-05 0)
(-0.000275153 0.0002797 0)
(-0.000701172 0.000572621 0)
(-0.00133519 0.000869961 0)
(-0.00217125 0.00114719 0)
(-0.00319157 0.00139089 0)
(-0.00437138 0.00159446 0)
(-0.00568214 0.00175535 0)
(-0.00709366 0.00187334 0)
(-0.00857548 0.00194965 0)
(-0.0100978 0.00198634 0)
(-0.0116323 0.00198599 0)
(-0.0131522 0.00195143 0)
(-0.0146328 0.00188564 0)
(-0.0160515 0.00179161 0)
(-0.0173878 0.0016723 0)
(-0.0186233 0.00153061 0)
(-0.0197419 0.00136932 0)
(-0.0207295 0.0011911 0)
(-0.0215739 0.000998543 0)
(-0.0222651 0.000794124 0)
(-0.0227947 0.000580271 0)
(-0.0231564 0.000359362 0)
(-0.0233456 0.000133765 0)
(-0.0233598 -9.41349e-05 0)
(-0.0231982 -0.000321903 0)
(-0.0228618 -0.000547027 0)
(-0.0223539 -0.000766896 0)
(-0.0216797 -0.000978777 0)
(-0.0208466 -0.00117981 0)
(-0.0198641 -0.00136699 0)
(-0.0187442 -0.0015372 0)
(-0.0175012 -0.00168719 0)
(-0.016152 -0.00181365 0)
(-0.0147159 -0.00191321 0)
(-0.0132146 -0.00198254 0)
(-0.0116722 -0.00201837 0)
(-0.010115 -0.00201764 0)
(-0.00857149 -0.00197757 0)
(-0.00707149 -0.00189586 0)
(-0.00564605 -0.00177088 0)
(-0.00432654 -0.00160205 0)
(-0.00314356 -0.00139038 0)
(-0.00212548 -0.00113933 0)
(-0.00129628 -0.00085648 0)
(-0.000672382 -0.000556215 0)
(-0.00025791 -0.000263788 0)
(-4.07186e-05 -2.29506e-05 0)
(1.05828e-05 8.53785e-05 0)
(-1.23563e-05 -3.68791e-05 0)
(-0.000162303 0.000246788 0)
(-0.000564832 0.000704705 0)
(-0.00122375 0.00122984 0)
(-0.0021395 0.00175956 0)
(-0.00330227 0.00225502 0)
(-0.00468991 0.00269314 0)
(-0.00627242 0.00306135 0)
(-0.0080152 0.0033538 0)
(-0.00988134 0.00356897 0)
(-0.0118332 0.00370812 0)
(-0.0138336 0.00377429 0)
(-0.0158466 0.00377166 0)
(-0.0178385 0.00370511 0)
(-0.0197775 0.00357986 0)
(-0.0216346 0.00340134 0)
(-0.0233832 0.00317495 0)
(-0.0249997 0.00290605 0)
(-0.026463 0.00259984 0)
(-0.0277547 0.00226138 0)
(-0.028859 0.00189557 0)
(-0.0297626 0.00150714 0)
(-0.0304547 0.00110074 0)
(-0.0309271 0.000680921 0)
(-0.0311738 0.000252243 0)
(-0.0311915 -0.000180716 0)
(-0.0309792 -0.000613286 0)
(-0.0305385 -0.00104066 0)
(-0.0298736 -0.00145785 0)
(-0.0289913 -0.00185966 0)
(-0.0279014 -0.00224067 0)
(-0.0266164 -0.00259521 0)
(-0.0251519 -0.00291741 0)
(-0.0235267 -0.00320122 0)
(-0.0217624 -0.00344048 0)
(-0.0198841 -0.00362899 0)
(-0.0179197 -0.00376066 0)
(-0.0159002 -0.00382962 0)
(-0.0138591 -0.00383046 0)
(-0.0118324 -0.00375843 0)
(-0.0098577 -0.00360983 0)
(-0.00797384 -0.00338239 0)
(-0.00621955 -0.00307596 0)
(-0.00463234 -0.00269346 0)
(-0.00324663 -0.00224229 0)
(-0.0020916 -0.0017367 0)
(-0.0011878 -0.00120135 0)
(-0.000542854 -0.000676389 0)
(-0.000153205 -0.000225159 0)
(-1.06557e-05 4.54785e-05 0)
(-3.35104e-05 7.12769e-05 0)
(-0.000279871 0.000607135 0)
(-0.000866496 0.00134013 0)
(-0.00176689 0.00214742 0)
(-0.00296822 0.00295177 0)
(-0.00445439 0.00370221 0)
(-0.0061977 0.00436657 0)
(-0.00816273 0.00492609 0)
(-0.0103095 0.00537122 0)
(-0.0125955 0.00569867 0)
(-0.0149771 0.00590945 0)
(-0.0174112 0.00600747 0)
(-0.0198559 0.00599854 0)
(-0.0222714 0.00588973 0)
(-0.0246204 0.00568886 0)
(-0.0268685 0.00540409 0)
(-0.0289842 0.00504377 0)
(-0.0309391 0.00461616 0)
(-0.0327082 0.00412942 0)
(-0.0342694 0.0035915 0)
(-0.0356038 0.00301012 0)
(-0.0366954 0.00239282 0)
(-0.0375314 0.00174697 0)
(-0.0381018 0.00107987 0)
(-0.0383995 0.000398759 0)
(-0.0384205 -0.000289032 0)
(-0.0381637 -0.000976061 0)
(-0.037631 -0.00165467 0)
(-0.0368275 -0.00231693 0)
(-0.0357614 -0.00295461 0)
(-0.0344445 -0.00355912 0)
(-0.0328918 -0.00412155 0)
(-0.0311221 -0.00463268 0)
(-0.0291575 -0.00508305 0)
(-0.0270242 -0.00546308 0)
(-0.0247517 -0.0057632 0)
(-0.0223733 -0.00597406 0)
(-0.0199255 -0.00608678 0)
(-0.0174479 -0.00609328 0)
(-0.0149826 -0.00598668 0)
(-0.0125736 -0.00576184 0)
(-0.010266 -0.00541604 0)
(-0.00810477 -0.00494991 0)
(-0.00613309 -0.0043688 0)
(-0.00439093 -0.0036846 0)
(-0.00291285 -0.0029185 0)
(-0.00172479 -0.00210506 0)
(-0.000840373 -0.00129726 0)
(-0.000268763 -0.000573658 0)
(-3.13137e-05 -5.72702e-05 0)
(-5.28135e-05 0.000240875 0)
(-0.000392629 0.00111646 0)
(-0.00116207 0.00218925 0)
(-0.0023035 0.00332853 0)
(-0.00378874 0.00444719 0)
(-0.00559343 0.00548487 0)
(-0.00768304 0.00640175 0)
(-0.0100161 0.00717345 0)
(-0.0125473 0.00778683 0)
(-0.0152286 0.00823681 0)
(-0.0180115 0.00852405 0)
(-0.0208475 0.00865328 0)
(-0.0236898 0.00863205 0)
(-0.0264935 0.00846977 0)
(-0.0292166 0.00817703 0)
(-0.0318202 0.00776512 0)
(-0.0342686 0.00724561 0)
(-0.0365297 0.00663012 0)
(-0.0385749 0.00593014 0)
(-0.0403792 0.00515695 0)
(-0.0419209 0.00432157 0)
(-0.043182 0.00343477 0)
(-0.0441477 0.00250711 0)
(-0.0448066 0.00154904 0)
(-0.0451507 0.000571007 0)
(-0.0451753 -0.000416501 0)
(-0.0448792 -0.00140278 0)
(-0.0442646 -0.00237686 0)
(-0.0433374 -0.00332739 0)
(-0.0421068 -0.0042426 0)
(-0.0405863 -0.00511024 0)
(-0.038793 -0.00591764 0)
(-0.0367481 -0.00665173 0)
(-0.0344771 -0.00729912 0)
(-0.0320093 -0.00784634 0)
(-0.0293785 -0.00827998 0)
(-0.0266221 -0.00858702 0)
(-0.0237814 -0.00875523 0)
(-0.0209011 -0.0087736 0)
(-0.0180286 -0.00863294 0)
(-0.0152133 -0.00832663 0)
(-0.0125058 -0.00785153 0)
(-0.00995644 -0.00720921 0)
(-0.00761399 -0.00640755 0)
(-0.00552403 -0.00546287 0)
(-0.00372712 -0.00440292 0)
(-0.00225601 -0.00327084 0)
(-0.00113224 -0.00212988 0)
(-0.00037984 -0.00106932 0)
(-5.02835e-05 -0.000220684 0)
(-6.99321e-05 0.000467265 0)
(-0.000497836 0.00176946 0)
(-0.00144413 0.00324801 0)
(-0.00282145 0.00476976 0)
(-0.00458574 0.00624162 0)
(-0.00670327 0.00759669 0)
(-0.00913154 0.00878921 0)
(-0.0118224 0.00979027 0)
(-0.0147245 0.0105837 0)
(-0.0177847 0.0111628 0)
(-0.0209494 0.0115283 0)
(-0.0241655 0.0116856 0)
(-0.0273815 0.0116444 0)
(-0.0305483 0.0114164 0)
(-0.0336198 0.0110153 0)
(-0.0365532 0.0104559 0)
(-0.0393094 0.0097531 0)
(-0.041853 0.00892233 0)
(-0.0441526 0.00797877 0)
(-0.0461804 0.00693737 0)
(-0.0479128 0.00581281 0)
(-0.0493296 0.00461947 0)
(-0.0504147 0.00337147 0)
(-0.0511554 0.00208283 0)
(-0.051543 0.000767507 0)
(-0.0515721 -0.000560422 0)
(-0.0512414 -0.00188663 0)
(-0.0505532 -0.00319643 0)
(-0.049514 -0.00447463 0)
(-0.048134 -0.00570552 0)
(-0.0464279 -0.00687278 0)
(-0.0444145 -0.00795953 0)
(-0.0421172 -0.00894839 0)
(-0.0395639 -0.00982167 0)
(-0.036787 -0.0105615 0)
(-0.0338234 -0.0111503 0)
(-0.0307144 -0.011571 0)
(-0.0275054 -0.0118076 0)
(-0.0242454 -0.011846 0)
(-0.0209866 -0.0116744 0)
(-0.0177832 -0.0112846 0)
(-0.014691 -0.0106729 0)
(-0.0117657 -0.00984169 0)
(-0.00906157 -0.00880115 0)
(-0.00663033 -0.0075716 0)
(-0.0045194 -0.00618641 0)
(-0.00276936 -0.00469571 0)
(-0.00141091 -0.00317044 0)
(-0.000483424 -0.00170683 0)
(-6.70495e-05 -0.000439797 0)
(-8.51487e-05 0.000745964 0)
(-0.000595557 0.002559 0)
(-0.00171134 0.00450947 0)
(-0.0033178 0.00646486 0)
(-0.00535533 0.0083291 0)
(-0.00778023 0.0100311 0)
(-0.0105413 0.011521 0)
(-0.013583 0.0127666 0)
(-0.0168475 0.0137495 0)
(-0.0202763 0.0144621 0)
(-0.0238106 0.0149052 0)
(-0.0273928 0.0150857 0)
(-0.030967 0.0150152 0)
(-0.0344803 0.0147084 0)
(-0.0378829 0.0141822 0)
(-0.0411287 0.013455 0)
(-0.0441754 0.0125456 0)
(-0.046985 0.0114735 0)
(-0.0495236 0.0102577 0)
(-0.0517613 0.00891732 0)
(-0.0536726 0.00747093 0)
(-0.0552358 0.00593683 0)
(-0.0564334 0.00433303 0)
(-0.0572517 0.00267739 0)
(-0.0576812 0.000987704 0)
(-0.0577161 -0.000718056 0)
(-0.0573549 -0.00242163 0)
(-0.0566001 -0.00410428 0)
(-0.0554582 -0.00574668 0)
(-0.0539404 -0.0073288 0)
(-0.0520623 -0.00882988 0)
(-0.049844 -0.0102285 0)
(-0.0473107 -0.0115026 0)
(-0.0444923 -0.0126296 0)
(-0.0414238 -0.0135872 0)
(-0.0381448 -0.0143529 0)
(-0.0347 -0.0149053 0)
(-0.0311384 -0.0152246 0)
(-0.0275129 -0.0152928 0)
(-0.0238802 -0.0150955 0)
(-0.0202993 -0.0146226 0)
(-0.0168309 -0.0138694 0)
(-0.0135362 -0.0128389 0)
(-0.0104756 -0.0115431 0)
(-0.00770733 -0.0100054 0)
(-0.00528649 -0.00826396 0)
(-0.00326232 -0.00637415 0)
(-0.00167525 -0.00441244 0)
(-0.000579597 -0.00247935 0)
(-8.18832e-05 -0.000710317 0)
(-9.8906e-05 0.00107303 0)
(-0.000687067 0.0034782 0)
(-0.00196563 0.00596648 0)
(-0.00379493 0.0084075 0)
(-0.00610056 0.0107042 0)
(-0.0088287 0.0127832 0)
(-0.011919 0.0145921 0)
(-0.0153078 0.0160967 0)
(-0.0189306 0.0172773 0)
(-0.0227227 0.0181263 0)
(-0.0266202 0.018645 0)
(-0.0305608 0.0188423 0)
(-0.0344845 0.0187322 0)
(-0.0383345 0.0183326 0)
(-0.0420577 0.017664 0)
(-0.045605 0.0167486 0)
(-0.0489314 0.0156097 0)
(-0.0519965 0.0142707 0)
(-0.0547642 0.0127553 0)
(-0.0572031 0.0110866 0)
(-0.0592858 0.00928742 0)
(-0.0609894 0.00738035 0)
(-0.0622953 0.00538748 0)
(-0.0631891 0.00333073 0)
(-0.0636603 0.001232 0)
(-0.063703 -0.000886628 0)
(-0.0633151 -0.0030027 0)
(-0.0624992 -0.0050932 0)
(-0.0612621 -0.00713435 0)
(-0.0596153 -0.00910155 0)
(-0.0575752 -0.0109693 0)
(-0.055163 -0.0127112 0)
(-0.0524051 -0.0143003 0)
(-0.0493332 -0.0157089 0)
(-0.0459843 -0.0169093 0)
(-0.0424006 -0.0178744 0)
(-0.0386297 -0.0185777 0)
(-0.034724 -0.018995 0)
(-0.0307402 -0.0191045 0)
(-0.0267392 -0.0188884 0)
(-0.0227848 -0.0183343 0)
(-0.0189429 -0.0174363 0)
(-0.0152807 -0.0161972 0)
(-0.0118649 -0.0146302 0)
(-0.00876109 -0.0127611 0)
(-0.00603262 -0.0106315 0)
(-0.00373797 -0.00830085 0)
(-0.00192749 -0.00584941 0)
(-0.000669768 -0.00338031 0)
(-9.52558e-05 -0.00102837 0)
(-0.000111648 0.00144544 0)
(-0.000774096 0.00452152 0)
(-0.00221045 0.00761321 0)
(-0.00425811 0.0105927 0)
(-0.00682865 0.013363 0)
(-0.0098581 0.01585 0)
(-0.0132767 0.0180002 0)
(-0.0170122 0.0197783 0)
(-0.0209928 0.0211646 0)
(-0.0251475 0.022152 0)
(-0.0294068 0.0227436 0)
(-0.0337034 0.0229502 0)
(-0.0379733 0.0227892 0)
(-0.0421559 0.0222819 0)
(-0.0461948 0.0214529 0)
(-0.0500382 0.0203288 0)
(-0.0536386 0.0189373 0)
(-0.0569535 0.0173065 0)
(-0.059945 0.0154645 0)
(-0.0625801 0.013439 0)
(-0.0648303 0.0112574 0)
(-0.0666714 0.00894651 0)
(-0.0680839 0.0065328 0)
(-0.0690526 0.00404247 0)
(-0.0695666 0.00150166 0)
(-0.0696193 -0.00106324 0)
(-0.0692085 -0.0036254 0)
(-0.0683364 -0.00615732 0)
(-0.0670099 -0.00863058 0)
(-0.0652409 -0.0110158 0)
(-0.0630461 -0.0132823 0)
(-0.0604474 -0.0153987 0)
(-0.0574723 -0.0173325 0)
(-0.0541539 -0.0190506 0)
(-0.0505309 -0.0205199 0)
(-0.0466479 -0.0217076 0)
(-0.042555 -0.0225822 0)
(-0.0383079 -0.0231144 0)
(-0.033967 -0.0232779 0)
(-0.0295974 -0.0230513 0)
(-0.0252681 -0.0224192 0)
(-0.0210505 -0.0213738 0)
(-0.0170179 -0.0199171 0)
(-0.0132443 -0.0180628 0)
(-0.00980309 -0.0158382 0)
(-0.00676646 -0.0132872 0)
(-0.00420252 -0.0104723 0)
(-0.00217162 -0.00747654 0)
(-0.000755849 -0.00440474 0)
(-0.000107643 -0.00139106 0)
(-0.000123784 0.00186125 0)
(-0.000858515 0.00568534 0)
(-0.00245001 0.00944604 0)
(-0.00471415 0.0130178 0)
(-0.00754908 0.0163044 0)
(-0.0108808 0.0192317 0)
(-0.0146298 0.0217462 0)
(-0.018715 0.0238129 0)
(-0.0230567 0.0254128 0)
(-0.0275773 0.0265405 0)
(-0.0322011 0.0272012 0)
(-0.036856 0.0274091 0)
(-0.0414734 0.0271849 0)
(-0.045989 0.0265543 0)
(-0.0503433 0.0255464 0)
(-0.0544816 0.0241925 0)
(-0.0583545 0.0225252 0)
(-0.0619174 0.0205774 0)
(-0.065131 0.0183821 0)
(-0.0679607 0.0159719 0)
(-0.0703771 0.0133788 0)
(-0.0723551 0.0106341 0)
(-0.0738745 0.00776884 0)
(-0.0749192 0.00481353 0)
(-0.0754779 0.00179873 0)
(-0.0755435 -0.00124476 0)
(-0.0751133 -0.00428563 0)
(-0.0741894 -0.00729172 0)
(-0.0727786 -0.0102298 0)
(-0.0708925 -0.0130655 0)
(-0.0685481 -0.0157629 0)
(-0.0657679 -0.0182851 0)
(-0.0625801 -0.0205939 0)
(-0.0590187 -0.0226504 0)
(-0.0551241 -0.0244155 0)
(-0.0509427 -0.0258505 0)
(-0.0465273 -0.0269181 0)
(-0.0419365 -0.0275833 0)
(-0.0372348 -0.0278151 0)
(-0.0324917 -0.0275876 0)
(-0.0277812 -0.0268815 0)
(-0.0231808 -0.0256867 0)
(-0.0187708 -0.0240035 0)
(-0.0146326 -0.0218451 0)
(-0.0108482 -0.0192396 0)
(-0.00749926 -0.0162323 0)
(-0.00466388 -0.0128879 0)
(-0.00241242 -0.00929164 0)
(-0.000839931 -0.00554981 0)
(-0.000119488 -0.00179667 0)
(-0.000135681 0.00231949 0)
(-0.000942188 0.00696818 0)
(-0.00268876 0.011464 0)
(-0.00517052 0.0156831 0)
(-0.00827257 0.01953 0)
(-0.0119108 0.0229314 0)
(-0.0159958 0.0258344 0)
(-0.0204371 0.0282054 0)
(-0.025147 0.0300271 0)
(-0.0300403 0.0312966 0)
(-0.0350353 0.0320225 0)
(-0.0400543 0.0322227 0)
(-0.0450242 0.0319224 0)
(-0.049877 0.031152 0)
(-0.0545499 0.0299458 0)
(-0.0589858 0.0283402 0)
(-0.0631328 0.0263733 0)
(-0.066945 0.0240832 0)
(-0.0703815 0.021508 0)
(-0.0734068 0.0186853 0)
(-0.0759904 0.0156519 0)
(-0.0781066 0.012444 0)
(-0.0797345 0.00909699 0)
(-0.0808575 0.00564599 0)
(-0.0814637 0.00212597 0)
(-0.0815455 -0.00142779 0)
(-0.0810999 -0.00497942 0)
(-0.0801284 -0.00849204 0)
(-0.0786374 -0.0119275 0)
(-0.0766384 -0.0152462 0)
(-0.0741484 -0.0184069 0)
(-0.0711899 -0.0213669 0)
(-0.0677914 -0.0240819 0)
(-0.063988 -0.0265068 0)
(-0.0598212 -0.0285961 0)
(-0.0553392 -0.0303046 0)
(-0.0505971 -0.0315886 0)
(-0.0456569 -0.0324071 0)
(-0.0405865 -0.032723 0)
(-0.0354605 -0.0325052 0)
(-0.0303581 -0.0317303 0)
(-0.0253637 -0.0303844 0)
(-0.0205646 -0.0284655 0)
(-0.0160507 -0.0259854 0)
(-0.0119132 -0.0229722 0)
(-0.00824375 -0.0194719 0)
(-0.00513086 -0.0155507 0)
(-0.00265505 -0.0112957 0)
(-0.000924132 -0.00681521 0)
(-0.000131199 -0.0022446 0)
(-0.000147668 0.00282023 0)
(-0.00102691 0.00837078 0)
(-0.00293116 0.0136692 0)
(-0.00563493 0.0185922 0)
(-0.00901028 0.0230452 0)
(-0.0129629 0.0269557 0)
(-0.017393 0.0302726 0)
(-0.0222005 0.0329642 0)
(-0.0272888 0.0350161 0)
(-0.0325652 0.036429 0)
(-0.0379413 0.0372154 0)
(-0.0433336 0.0373983 0)
(-0.0486643 0.0370078 0)
(-0.0538614 0.0360802 0)
(-0.058859 0.0346553 0)
(-0.0635973 0.0327756 0)
(-0.0680227 0.0304846 0)
(-0.0720876 0.0278262 0)
(-0.07575 0.0248441 0)
(-0.0789735 0.021581 0)
(-0.0817269 0.0180788 0)
(-0.083984 0.0143783 0)
(-0.0857233 0.0105198 0)
(-0.0869279 0.00654285 0)
(-0.0875851 0.00248681 0)
(-0.0876871 -0.00160854 0)
(-0.08723 -0.00570274 0)
(-0.0862151 -0.00975418 0)
(-0.0846481 -0.0137197 0)
(-0.08254 -0.0175545 0)
(-0.0799074 -0.0212115 0)
(-0.0767726 -0.0246422 0)
(-0.0731644 -0.0277958 0)
(-0.0691182 -0.0306208 0)
(-0.0646766 -0.0330645 0)
(-0.0598893 -0.0350747 0)
(-0.0548139 -0.0366006 0)
(-0.049515 -0.0375942 0)
(-0.0440649 -0.0380118 0)
(-0.0385428 -0.0378162 0)
(-0.0330342 -0.0369786 0)
(-0.0276301 -0.0354805 0)
(-0.0224261 -0.0333167 0)
(-0.017521 -0.0304966 0)
(-0.013016 -0.0270473 0)
(-0.00901337 -0.0230151 0)
(-0.0056126 -0.0184674 0)
(-0.00290476 -0.0134932 0)
(-0.00101054 -0.00820317 0)
(-0.000143149 -0.00273541 0)
(-0.000160043 0.00336442 0)
(-0.0011144 0.00989608 0)
(-0.00318159 0.0160665 0)
(-0.00611504 0.021752 0)
(-0.00977345 0.0268585 0)
(-0.0140519 0.031315 0)
(-0.0188399 0.0350721 0)
(-0.0240271 0.0381013 0)
(-0.0295076 0.040392 0)
(-0.0351806 0.0419492 0)
(-0.0409505 0.0427911 0)
(-0.046728 0.0429459 0)
(-0.0524301 0.0424503 0)
(-0.0579808 0.0413468 0)
(-0.0633111 0.0396818 0)
(-0.0683588 0.0375042 0)
(-0.0730684 0.0348637 0)
(-0.0773908 0.0318106 0)
(-0.0812834 0.028394 0)
(-0.0847089 0.0246623 0)
(-0.0876357 0.0206626 0)
(-0.0900373 0.0164405 0)
(-0.0918917 0.0120409 0)
(-0.0931816 0.00750788 0)
(-0.0938941 0.00288525 0)
(-0.0940205 -0.00178281 0)
(-0.0935566 -0.00645132 0)
(-0.0925028 -0.011074 0)
(-0.090864 -0.0156026 0)
(-0.0886506 -0.0199869 0)
(-0.0858783 -0.0241744 0)
(-0.0825691 -0.0281099 0)
(-0.0787514 -0.0317363 0)
(-0.0744609 -0.0349947 0)
(-0.0697407 -0.0378251 0)
(-0.064642 -0.0401675 0)
(-0.0592243 -0.0419632 0)
(-0.0535556 -0.0431562 0)
(-0.0477119 -0.0436954 0)
(-0.0417777 -0.0435362 0)
(-0.0358448 -0.0426433 0)
(-0.0300117 -0.0409928 0)
(-0.0243828 -0.0385748 0)
(-0.0190666 -0.0353957 0)
(-0.014175 -0.0314808 0)
(-0.00982186 -0.0268759 0)
(-0.00611842 -0.0216492 0)
(-0.0031668 -0.0158922 0)
(-0.00110118 -0.00971857 0)
(-0.000155685 -0.00327071 0)
(-0.000173081 0.0039539 0)
(-0.00120627 0.0115491 0)
(-0.00344427 0.0186639 0)
(-0.00661835 0.025173 0)
(-0.0105731 0.0309827 0)
(-0.0151926 0.0360232 0)
(-0.0203548 0.0402479 0)
(-0.0259385 0.0436321 0)
(-0.0318281 0.0461699 0)
(-0.0379139 0.047872 0)
(-0.0440929 0.048763 0)
(-0.0502694 0.048878 0)
(-0.0563554 0.0482609 0)
(-0.0622706 0.0469614 0)
(-0.0679429 0.0450335 0)
(-0.0733078 0.042533 0)
(-0.0783081 0.0395168 0)
(-0.0828937 0.0360414 0)
(-0.0870212 0.0321623 0)
(-0.0906529 0.0279334 0)
(-0.0937572 0.0234073 0)
(-0.096307 0.0186344 0)
(-0.0982806 0.0136643 0)
(-0.0996602 0.00854535 0)
(-0.100432 0.00332582 0)
(-0.100588 -0.00194589 0)
(-0.100123 -0.0072204 0)
(-0.0990348 -0.0124468 0)
(-0.0973291 -0.0175719 0)
(-0.0950146 -0.0225402 0)
(-0.0921061 -0.027293 0)
(-0.0886246 -0.0317691 0)
(-0.084598 -0.0359041 0)
(-0.0800615 -0.0396316 0)
(-0.0750587 -0.0428835 0)
(-0.0696419 -0.0455912 0)
(-0.0638723 -0.0476872 0)
(-0.0578208 -0.0491068 0)
(-0.0515678 -0.0497899 0)
(-0.0452029 -0.0496836 0)
(-0.0388247 -0.0487448 0)
(-0.0325398 -0.0469428 0)
(-0.026462 -0.044262 0)
(-0.0207104 -0.0407046 0)
(-0.0154086 -0.0362931 0)
(-0.010683 -0.0310724 0)
(-0.00665756 -0.0251116 0)
(-0.00344636 -0.0185045 0)
(-0.00119803 -0.0113689 0)
(-0.000169138 -0.00385316 0)
(-0.000187039 0.00459132 0)
(-0.00130408 0.0133371 0)
(-0.00372326 0.0214723 0)
(-0.00715207 0.028869 0)
(-0.0114201 0.0354335 0)
(-0.0163992 0.0410977 0)
(-0.0219553 0.0458182 0)
(-0.0279556 0.0495748 0)
(-0.0342738 0.0523676 0)
(-0.040791 0.0542143 0)
(-0.0473963 0.0551467 0)
(-0.0539872 0.0552085 0)
(-0.0604705 0.0544517 0)
(-0.0667618 0.0529346 0)
(-0.0727858 0.0507192 0)
(-0.0784759 0.0478695 0)
(-0.0837734 0.0444498 0)
(-0.0886275 0.0405238 0)
(-0.0929943 0.0361533 0)
(-0.0968363 0.0313984 0)
(-0.100122 0.0263168 0)
(-0.102824 0.020964 0)
(-0.10492 0.0153941 0)
(-0.106394 0.00965985 0)
(-0.107231 0.00381343 0)
(-0.107421 -0.00209259 0)
(-0.106959 -0.00800463 0)
(-0.105844 -0.0138673 0)
(-0.104077 -0.0196227 0)
(-0.101666 -0.0252099 0)
(-0.0986263 -0.0305644 0)
(-0.0949758 -0.0356181 0)
(-0.0907417 -0.0402995 0)
(-0.0859586 -0.044534 0)
(-0.0806699 -0.0482448 0)
(-0.0749284 -0.0513541 0)
(-0.0687972 -0.0537844 0)
(-0.0623497 -0.0554609 0)
(-0.0556704 -0.0563135 0)
(-0.0488545 -0.0562796 0)
(-0.0420076 -0.0553067 0)
(-0.035245 -0.0533559 0)
(-0.0286906 -0.0504045 0)
(-0.0224752 -0.0464494 0)
(-0.0167351 -0.0415093 0)
(-0.0116105 -0.0356277 0)
(-0.00723922 -0.0288742 0)
(-0.00374855 -0.0213454 0)
(-0.00130302 -0.0131641 0)
(-0.000183823 -0.00448645 0)
(-0.000202158 0.00528013 0)
(-0.0014093 0.0152691 0)
(-0.00402245 0.0245051 0)
(-0.00772318 0.0328571 0)
(-0.0123245 0.0402307 0)
(-0.0176854 0.0465596 0)
(-0.0236583 0.0518045 0)
(-0.0300979 0.0559507 0)
(-0.0368667 0.0590055 0)
(-0.0438357 0.0609947 0)
(-0.0508856 0.0619594 0)
(-0.0579071 0.0619524 0)
(-0.0648015 0.0610356 0)
(-0.0714802 0.0592769 0)
(-0.0778651 0.0567476 0)
(-0.0838874 0.0535206 0)
(-0.0894877 0.0496685 0)
(-0.0946146 0.0452624 0)
(-0.0992241 0.0403712 0)
(-0.103279 0.0350608 0)
(-0.106748 0.0293946 0)
(-0.109605 0.0234331 0)
(-0.111828 0.0172346 0)
(-0.1134 0.010856 0)
(-0.114307 0.00435327 0)
(-0.114537 -0.00221718 0)
(-0.114086 -0.0087979 0)
(-0.112949 -0.0153293 0)
(-0.111128 -0.0217489 0)
(-0.108629 -0.0279905 0)
(-0.105463 -0.0339837 0)
(-0.101649 -0.0396537 0)
(-0.0972104 -0.0449213 0)
(-0.0921818 -0.0497034 0)
(-0.0866055 -0.0539137 0)
(-0.0805345 -0.057464 0)
(-0.0740327 -0.0602662 0)
(-0.0671763 -0.0622338 0)
(-0.0600537 -0.0632853 0)
(-0.0527655 -0.0633467 0)
(-0.0454249 -0.0623547 0)
(-0.0381563 -0.0602602 0)
(-0.0310946 -0.0570322 0)
(-0.0243832 -0.0526604 0)
(-0.0181725 -0.0471591 0)
(-0.0126178 -0.0405692 0)
(-0.00787243 -0.0329609 0)
(-0.00407841 -0.0244338 0)
(-0.00141806 -0.0151167 0)
(-0.000200048 -0.00517523 0)
(-0.00021867 0.00602452 0)
(-0.00152335 0.017356 0)
(-0.00434561 0.0277788 0)
(-0.00833835 0.0371573 0)
(-0.0132964 0.0453967 0)
(-0.0190641 0.0524329 0)
(-0.0254796 0.058231 0)
(-0.0323837 0.0627833 0)
(-0.0396266 0.0661056 0)
(-0.0470689 0.0682334 0)
(-0.0545824 0.0692184 0)
(-0.0620506 0.0691246 0)
(-0.069369 0.0680249 0)
(-0.0764454 0.0659983 0)
(-0.0831986 0.0631265 0)
(-0.0895586 0.0594922 0)
(-0.0954651 0.055177 0)
(-0.100867 0.0502603 0)
(-0.10572 0.044818 0)
(-0.109989 0.0389227 0)
(-0.113643 0.032643 0)
(-0.116657 0.0260443 0)
(-0.119009 0.0191891 0)
(-0.120682 0.012138 0)
(-0.121662 0.00495061 0)
(-0.121939 -0.00231346 0)
(-0.121505 -0.00959319 0)
(-0.120354 -0.0168252 0)
(-0.118488 -0.0239427 0)
(-0.115909 -0.0308745 0)
(-0.112627 -0.0375443 0)
(-0.108656 -0.0438706 0)
(-0.10402 -0.0497661 0)
(-0.0987505 -0.0551389 0)
(-0.0928878 -0.0598923 0)
(-0.0864846 -0.0639271 0)
(-0.0796058 -0.0671427 0)
(-0.0723292 -0.0694402 0)
(-0.064747 -0.0707246 0)
(-0.0569656 -0.0709086 0)
(-0.0491055 -0.0699163 0)
(-0.0413009 -0.0676866 0)
(-0.0336986 -0.064178 0)
(-0.0264557 -0.0593719 0)
(-0.0197382 -0.0532762 0)
(-0.0137181 -0.0459288 0)
(-0.00856612 -0.0373998 0)
(-0.00444092 -0.0277923 0)
(-0.00154502 -0.0172418 0)
(-0.000218121 -0.00592514 0)
(-0.000236804 0.0068294 0)
(-0.00164763 0.0196108 0)
(-0.00469635 0.0313123 0)
(-0.00900399 0.041793 0)
(-0.0143449 0.0509575 0)
(-0.0205475 0.0587443 0)
(-0.0274336 0.0651244 0)
(-0.0348291 0.070098 0)
(-0.0425711 0.0736911 0)
(-0.0505086 0.0759508 0)
(-0.0585041 0.0769412 0)
(-0.0664337 0.0767392 0)
(-0.0741875 0.0754306 0)
(-0.0816693 0.0731066 0)
(-0.0887958 0.069861 0)
(-0.0954956 0.0657872 0)
(-0.101709 0.0609768 0)
(-0.107384 0.0555178 0)
(-0.11248 0.0494938 0)
(-0.11696 0.0429838 0)
(-0.120798 0.0360622 0)
(-0.123967 0.0287987 0)
(-0.126448 0.0212599 0)
(-0.128225 0.0135097 0)
(-0.129283 0.0056106 0)
(-0.129612 -0.00237478 0)
(-0.129203 -0.0103825 0)
(-0.128049 -0.0183459 0)
(-0.126147 -0.0261942 0)
(-0.1235 -0.0338517 0)
(-0.120113 -0.0412364 0)
(-0.115998 -0.0482599 0)
(-0.111174 -0.054827 0)
(-0.105671 -0.0608361 0)
(-0.0995272 -0.0661797 0)
(-0.0927934 -0.0707462 0)
(-0.0855344 -0.0744217 0)
(-0.0778294 -0.0770927 0)
(-0.0697739 -0.0786492 0)
(-0.0614795 -0.0789886 0)
(-0.0530745 -0.0780197 0)
(-0.0447034 -0.0756676 0)
(-0.0365255 -0.0718778 0)
(-0.028713 -0.0666213 0)
(-0.021449 -0.0598984 0)
(-0.0149242 -0.0517425 0)
(-0.00932903 -0.0422231 0)
(-0.00484102 -0.0314468 0)
(-0.0016858 -0.0195568 0)
(-0.000238351 -0.00674281 0)
(-0.000256785 0.0077004 0)
(-0.00178347 0.022048 0)
(-0.00507818 0.0351268 0)
(-0.00972625 0.0467899 0)
(-0.015479 0.0569414 0)
(-0.0221468 0.0655232 0)
(-0.0295335 0.072513 0)
(-0.0374486 0.0779211 0)
(-0.0457146 0.0817854 0)
(-0.0541686 0.0841667 0)
(-0.0626631 0.0851437 0)
(-0.0710667 0.0848082 0)
(-0.079264 0.0832607 0)
(-0.0871553 0.0806066 0)
(-0.0946556 0.0769529 0)
(-0.101693 0.0724051 0)
(-0.108208 0.0670654 0)
(-0.114152 0.0610314 0)
(-0.119483 0.0543946 0)
(-0.12417 0.0472408 0)
(-0.128185 0.0396494 0)
(-0.131506 0.031695 0)
(-0.134115 0.0234474 0)
(-0.135996 0.0149734 0)
(-0.137135 0.00633796 0)
(-0.137522 -0.00239419 0)
(-0.137145 -0.0111568 0)
(-0.135998 -0.0198804 0)
(-0.134075 -0.0284911 0)
(-0.131374 -0.0369089 0)
(-0.127898 -0.0450465 0)
(-0.123654 -0.0528089 0)
(-0.118658 -0.0600926 0)
(-0.112935 -0.0667859 0)
(-0.106521 -0.0727701 0)
(-0.0994631 -0.07792 0)
(-0.0918259 -0.0821068 0)
(-0.083689 -0.0852008 0)
(-0.0751501 -0.0870748 0)
(-0.0663259 -0.0876084 0)
(-0.0573525 -0.0866928 0)
(-0.0483848 -0.0842362 0)
(-0.0395957 -0.0801689 0)
(-0.0311737 -0.074449 0)
(-0.0233207 -0.0670668 0)
(-0.0162486 -0.0580501 0)
(-0.0101698 -0.0474667 0)
(-0.0052836 -0.0354268 0)
(-0.00184226 -0.0220816 0)
(-0.00026105 -0.00763581 0)
(-0.000278841 0.00864382 0)
(-0.00193223 0.0246839 0)
(-0.00549456 0.039246 0)
(-0.0105111 0.0521766 0)
(-0.0167071 0.0633793 0)
(-0.0238723 0.0728006 0)
(-0.031791 0.0804266 0)
(-0.0402541 0.0862794 0)
(-0.0490686 0.0904114 0)
(-0.0580585 0.0928995 0)
(-0.0670661 0.0938394 0)
(-0.0759523 0.0933402 0)
(-0.0845966 0.0915194 0)
(-0.0928964 0.0884983 0)
(-0.100765 0.0843988 0)
(-0.108132 0.0793398 0)
(-0.114939 0.0734353 0)
(-0.121139 0.0667927 0)
(-0.126694 0.059512 0)
(-0.131576 0.0516855 0)
(-0.135758 0.0433984 0)
(-0.139224 0.0347288 0)
(-0.141955 0.0257498 0)
(-0.143938 0.0165302 0)
(-0.14516 0.00713665 0)
(-0.145609 -0.0023646 0)
(-0.145275 -0.0119058 0)
(-0.144147 -0.0214159 0)
(-0.142218 -0.0308181 0)
(-0.139482 -0.0400291 0)
(-0.135936 -0.0489567 0)
(-0.131585 -0.0574994 0)
(-0.126438 -0.0655455 0)
(-0.120515 -0.0729734 0)
(-0.113848 -0.0796516 0)
(-0.106481 -0.0854409 0)
(-0.0984747 -0.0901959 0)
(-0.0899087 -0.0937687 0)
(-0.0808822 -0.0960126 0)
(-0.0715163 -0.0967865 0)
(-0.0619544 -0.0959613 0)
(-0.0523622 -0.0934249 0)
(-0.0429269 -0.0890895 0)
(-0.0338546 -0.082897 0)
(-0.0253681 -0.0748256 0)
(-0.017703 -0.0648949 0)
(-0.0110967 -0.0531703 0)
(-0.00577352 -0.0397648 0)
(-0.0020163 -0.0248387 0)
(-0.000286544 -0.00861272 0)
(-0.000303205 0.0096667 0)
(-0.00209526 0.0275366 0)
(-0.00594888 0.0436958 0)
(-0.0113641 0.0579837 0)
(-0.0180368 0.0703042 0)
(-0.0257335 0.0806091 0)
(-0.0342158 0.0888952 0)
(-0.0432549 0.095199 0)
(-0.0526404 0.0995901 0)
(-0.0621825 0.102164 0)
(-0.0717129 0.103038 0)
(-0.081085 0.102339 0)
(-0.0901735 0.100205 0)
(-0.0988736 0.0967755 0)
(-0.107099 0.0921889 0)
(-0.114779 0.0865789 0)
(-0.12186 0.080072 0)
(-0.128297 0.0727866 0)
(-0.134057 0.0648311 0)
(-0.139114 0.0563047 0)
(-0.143449 0.0472975 0)
(-0.147045 0.0378914 0)
(-0.14989 0.0281617 0)
(-0.15197 0.0181786 0)
(-0.153274 0.00800945 0)
(-0.15379 -0.00227898 0)
(-0.153508 -0.0126185 0)
(-0.152413 -0.0229371 0)
(-0.150497 -0.0331566 0)
(-0.147747 -0.0431907 0)
(-0.144158 -0.0529433 0)
(-0.139727 -0.0623069 0)
(-0.134458 -0.0711617 0)
(-0.128364 -0.0793756 0)
(-0.121471 -0.0868044 0)
(-0.113817 -0.0932934 0)
(-0.10546 -0.0986792 0)
(-0.096476 -0.102794 0)
(-0.0869656 -0.105467 0)
(-0.0770528 -0.106537 0)
(-0.0668879 -0.105847 0)
(-0.0566473 -0.103264 0)
(-0.046533 -0.0986771 0)
(-0.0367703 -0.0920084 0)
(-0.0276049 -0.0832208 0)
(-0.0192988 -0.0723233 0)
(-0.012118 -0.0593769 0)
(-0.00631564 -0.0444968 0)
(-0.00220987 -0.0278527 0)
(-0.000315168 -0.00968308 0)
(-0.000330124 0.0107767 0)
(-0.00227395 0.0306257 0)
(-0.00644457 0.0485043 0)
(-0.0122911 0.0642443 0)
(-0.0194757 0.0777503 0)
(-0.0277385 0.0889818 0)
(-0.0368162 0.0979485 0)
(-0.0464573 0.104704 0)
(-0.056433 0.109339 0)
(-0.0665389 0.111972 0)
(-0.0765956 0.112742 0)
(-0.0864494 0.111801 0)
(-0.0959709 0.109308 0)
(-0.105054 0.105424 0)
(-0.113613 0.100305 0)
(-0.121581 0.0941007 0)
(-0.128908 0.0869527 0)
(-0.135553 0.0789897 0)
(-0.14149 0.0703295 0)
(-0.146698 0.0610779 0)
(-0.151162 0.0513295 0)
(-0.15487 0.0411692 0)
(-0.157813 0.0306739 0)
(-0.159981 0.0199143 0)
(-0.161364 0.00895746 0)