/*--------------------------------*- C++ -*----------------------------------*\
  =========                 |
  \\      /  F ield         | OpenFOAM: The Open Source CFD Toolbox
   \\    /   O peration     | Website:  https://openfoam.org
    \\  /    A nd           | Version:  7
     \\/     M anipulation  |
\*---------------------------------------------------------------------------*/
FoamFile
{
    version     2.0;
    format      ascii;
    class       volVectorField;
    location    "0.0588";
    object      U;
}
// * * * * * * * * * * * * * * * * * * * * * * * * * * * * * * * * * * * * * //

dimensions      [0 1 -1 0 0 0 0];

internalField   nonuniform List<vector> 
2500
(
(-0.293799 0.15372 0)
(-0.397932 0.128719 0)
(-0.577971 0.0737924 0)
(-0.696268 0.0408764 0)
(-0.765262 0.0233974 0)
(-0.80961 0.0141457 0)
(-0.840215 0.00916175 0)
(-0.862325 0.0063553 0)
(-0.878972 0.00466769 0)
(-0.89194 0.00357904 0)
(-0.902303 0.0028312 0)
(-0.910738 0.00229021 0)
(-0.9177 0.00188223 0)
(-0.923502 0.00156396 0)
(-0.928366 0.00130844 0)
(-0.932455 0.00109799 0)
(-0.935889 0.000920537 0)
(-0.938758 0.000767515 0)
(-0.941131 0.00063269 0)
(-0.943058 0.000511396 0)
(-0.944578 0.000400052 0)
(-0.945719 0.000295847 0)
(-0.946501 0.000196506 0)
(-0.946937 0.000100136 0)
(-0.947034 5.10234e-06 0)
(-0.946796 -9.01078e-05 0)
(-0.946219 -0.000186893 0)
(-0.945297 -0.000286682 0)
(-0.944016 -0.000391007 0)
(-0.942361 -0.000501604 0)
(-0.940307 -0.000620536 0)
(-0.937822 -0.000750366 0)
(-0.934868 -0.000894387 0)
(-0.931391 -0.00105697 0)
(-0.927325 -0.00124405 0)
(-0.922579 -0.00146395 0)
(-0.917037 -0.00172867 0)
(-0.91054 -0.00205617 0)
(-0.902867 -0.00247445 0)
(-0.89371 -0.00302945 0)
(-0.882617 -0.00380078 0)
(-0.868906 -0.00493393 0)
(-0.851492 -0.00670771 0)
(-0.828575 -0.00967344 0)
(-0.797141 -0.0149186 0)
(-0.752041 -0.0244973 0)
(-0.68253 -0.0421447 0)
(-0.564919 -0.0746119 0)
(-0.389303 -0.128121 0)
(-0.290203 -0.152369 0)
(-0.00515949 0.302902 0)
(-0.0270651 0.307345 0)
(-0.171348 0.217801 0)
(-0.308248 0.146599 0)
(-0.417209 0.0992364 0)
(-0.502495 0.068985 0)
(-0.568947 0.0497397 0)
(-0.620968 0.0372035 0)
(-0.662237 0.0287226 0)
(-0.695477 0.0227494 0)
(-0.722623 0.0183818 0)
(-0.745049 0.0150802 0)
(-0.763747 0.0125106 0)
(-0.779438 0.010458 0)
(-0.792655 0.00877933 0)
(-0.803796 0.00737582 0)
(-0.813165 0.0061776 0)
(-0.82099 0.00513379 0)
(-0.827446 0.00420651 0)
(-0.832667 0.00336693 0)
(-0.836755 0.00259258 0)
(-0.839784 0.00186561 0)
(-0.841808 0.0011714 0)
(-0.842864 0.000497672 0)
(-0.842972 -0.000166304 0)
(-0.842141 -0.000830306 0)
(-0.840365 -0.00150367 0)
(-0.837626 -0.00219581 0)
(-0.833894 -0.00291679 0)
(-0.829124 -0.00367791 0)
(-0.823255 -0.00449249 0)
(-0.816208 -0.00537683 0)
(-0.80788 -0.00635156 0)
(-0.798139 -0.00744352 0)
(-0.786816 -0.00868846 0)
(-0.773689 -0.0101351 0)
(-0.758471 -0.0118513 0)
(-0.740785 -0.013934 0)
(-0.720124 -0.0165255 0)
(-0.695806 -0.0198409 0)
(-0.666893 -0.024216 0)
(-0.63209 -0.0301918 0)
(-0.589586 -0.0386645 0)
(-0.536865 -0.0511461 0)
(-0.470608 -0.0701646 0)
(-0.386965 -0.0996678 0)
(-0.281747 -0.145077 0)
(-0.151465 -0.212588 0)
(-0.0164177 -0.298166 0)
(-0.000980265 -0.294662 0)
(0.0321097 0.264055 0)
(0.0563489 0.362361 0)
(-0.00369757 0.32502 0)
(-0.0960181 0.260601 0)
(-0.192469 0.200962 0)
(-0.281351 0.153946 0)
(-0.358545 0.119026 0)
(-0.423835 0.093451 0)
(-0.47857 0.0745852 0)
(-0.524432 0.0604408 0)
(-0.562968 0.0496228 0)
(-0.595478 0.041173 0)
(-0.623004 0.034434 0)
(-0.646369 0.0289494 0)
(-0.666217 0.0243972 0)
(-0.683052 0.0205461 0)
(-0.697266 0.0172267 0)
(-0.709168 0.0143125 0)
(-0.718997 0.0117077 0)
(-0.726939 0.00933786 0)
(-0.733138 0.00714446 0)
(-0.737701 0.00508031 0)
(-0.740707 0.00310652 0)
(-0.74221 0.0011901 0)
(-0.742243 -0.000697848 0)
(-0.740818 -0.00258371 0)
(-0.73793 -0.00449273 0)
(-0.733557 -0.00645028 0)
(-0.727659 -0.00848328 0)
(-0.720174 -0.0106217 0)
(-0.711023 -0.0129005 0)
(-0.700098 -0.0153618 0)
(-0.687264 -0.0180584 0)
(-0.672347 -0.0210576 0)
(-0.655129 -0.0244473 0)
(-0.635333 -0.0283446 0)
(-0.612609 -0.0329077 0)
(-0.586514 -0.0383547 0)
(-0.556482 -0.0449902 0)
(-0.521801 -0.0532465 0)
(-0.481574 -0.063745 0)
(-0.434709 -0.0773837 0)
(-0.379939 -0.0954533 0)
(-0.315966 -0.119761 0)
(-0.241921 -0.152642 0)
(-0.158497 -0.196422 0)
(-0.0700028 -0.251269 0)
(0.0122619 -0.309862 0)
(0.0620373 -0.34318 0)
(0.0330393 -0.249878 0)
(0.0271418 0.20527 0)
(0.0636848 0.357931 0)
(0.0549526 0.375857 0)
(0.00750899 0.338807 0)
(-0.0602563 0.28625 0)
(-0.134009 0.235459 0)
(-0.20559 0.192192 0)
(-0.271218 0.157141 0)
(-0.329623 0.129252 0)
(-0.380793 0.107108 0)
(-0.425264 0.089414 0)
(-0.463755 0.0751195 0)
(-0.496992 0.0634154 0)
(-0.525632 0.0536897 0)
(-0.550244 0.0454821 0)
(-0.571304 0.0384444 0)
(-0.589202 0.0323118 0)
(-0.604258 0.0268802 0)
(-0.61673 0.0219909 0)
(-0.626822 0.0175184 0)
(-0.634695 0.0133619 0)
(-0.640473 0.00943921 0)
(-0.644249 0.00568193 0)
(-0.646086 0.00203146 0)
(-0.646026 -0.00156381 0)
(-0.644088 -0.00515105 0)
(-0.640271 -0.00877531 0)
(-0.634551 -0.0124816 0)
(-0.62689 -0.0163173 0)
(-0.617224 -0.0203345 0)
(-0.60547 -0.024593 0)
(-0.591518 -0.029164 0)
(-0.57523 -0.0341345 0)
(-0.556435 -0.0396136 0)
(-0.534922 -0.0457403 0)
(-0.510434 -0.0526944 0)
(-0.482662 -0.0607108 0)
(-0.451236 -0.0700995 0)
(-0.415725 -0.0812713 0)
(-0.375647 -0.0947708 0)
(-0.330498 -0.111314 0)
(-0.279832 -0.131819 0)
(-0.223434 -0.157399 0)
(-0.16166 -0.189236 0)
(-0.0960614 -0.228131 0)
(-0.0304419 -0.273274 0)
(0.0275536 -0.319314 0)
(0.0649339 -0.350692 0)
(0.0657435 -0.331848 0)
(0.0268752 -0.18987 0)
(0.0184397 0.163533 0)
(0.0529945 0.331828 0)
(0.0682083 0.387446 0)
(0.0522413 0.380358 0)
(0.0122645 0.344867 0)
(-0.0409968 0.300539 0)
(-0.0993738 0.256929 0)
(-0.157658 0.217885 0)
(-0.212905 0.184409 0)
(-0.263685 0.156254 0)
(-0.309482 0.132717 0)
(-0.35028 0.113008 0)
(-0.386313 0.0964025 0)
(-0.417919 0.0822807 0)
(-0.445461 0.0701368 0)
(-0.469287 0.0595628 0)
(-0.489711 0.0502323 0)
(-0.507004 0.0418839 0)
(-0.521398 0.0343072 0)
(-0.533084 0.0273318 0)
(-0.542217 0.020818 0)
(-0.548921 0.0146498 0)
(-0.553289 0.00872931 0)
(-0.555391 0.00297178 0)
(-0.555271 -0.00269776 0)
(-0.552953 -0.00834805 0)
(-0.548443 -0.0140445 0)
(-0.541725 -0.019852 0)
(-0.532767 -0.0258382 0)
(-0.521517 -0.032076 0)
(-0.507904 -0.0386481 0)
(-0.491839 -0.0456504 0)
(-0.473209 -0.0531978 0)
(-0.451881 -0.0614306 0)
(-0.427696 -0.0705221 0)
(-0.400476 -0.0806888 0)
(-0.370025 -0.0922018 0)
(-0.336138 -0.1054 0)
(-0.298625 -0.120705 0)
(-0.257355 -0.138625 0)
(-0.212324 -0.159753 0)
(-0.163795 -0.184718 0)
(-0.112514 -0.214046 0)
(-0.0600536 -0.247842 0)
(-0.00929869 -0.285101 0)
(0.0349795 -0.32234 0)
(0.0656052 -0.351146 0)
(0.0734424 -0.354374 0)
(0.0532072 -0.301729 0)
(0.0179142 -0.148284 0)
(0.0119345 0.134802 0)
(0.0406791 0.30104 0)
(0.0648684 0.378775 0)
(0.0677318 0.396653 0)
(0.0490674 0.380292 0)
(0.014938 0.347505 0)
(-0.0283825 0.30906 0)
(-0.0758885 0.27075 0)
(-0.124054 0.235289 0)
(-0.170635 0.203666 0)
(-0.214337 0.17598 0)
(-0.254501 0.151921 0)
(-0.290864 0.131028 0)
(-0.323398 0.112816 0)
(-0.352204 0.0968329 0)
(-0.377442 0.0826801 0)
(-0.399299 0.0700177 0)
(-0.417957 0.0585591 0)
(-0.433587 0.0480644 0)
(-0.44634 0.0383328 0)
(-0.456347 0.0291955 0)
(-0.463713 0.0205091 0)
(-0.468525 0.0121507 0)
(-0.470847 0.00401275 0)
(-0.470725 -0.00400057 0)
(-0.468188 -0.0119774 0)
(-0.463248 -0.0200013 0)
(-0.455901 -0.0281545 0)
(-0.446129 -0.0365214 0)
(-0.433902 -0.0451915 0)
(-0.419175 -0.0542638 0)
(-0.401892 -0.0638506 0)
(-0.381988 -0.0740826 0)
(-0.359391 -0.0851139 0)
(-0.334027 -0.0971283 0)
(-0.305827 -0.110345 0)
(-0.274743 -0.125025 0)
(-0.240771 -0.14147 0)
(-0.203988 -0.160022 0)
(-0.164607 -0.181039 0)
(-0.123075 -0.204848 0)
(-0.0801977 -0.231628 0)
(-0.0373329 -0.261204 0)
(0.00337475 -0.292637 0)
(0.038756 -0.323535 0)
(0.0645204 -0.348921 0)
(0.0754986 -0.359622 0)
(0.066953 -0.340404 0)
(0.0400932 -0.269016 0)
(0.0114453 -0.120016 0)
(0.0078458 0.114348 0)
(0.0309 0.271992 0)
(0.0568676 0.361099 0)
(0.0697139 0.397233 0)
(0.0655723 0.398113 0)
(0.0468023 0.378262 0)
(0.0173873 0.34793 0)
(-0.0186911 0.313643 0)
(-0.0581013 0.279187 0)
(-0.0983561 0.246541 0)
(-0.137746 0.216572 0)
(-0.175169 0.189519 0)
(-0.209965 0.165282 0)
(-0.241773 0.143604 0)
(-0.270432 0.124166 0)
(-0.295903 0.106646 0)
(-0.31822 0.0907368 0)
(-0.337453 0.076164 0)
(-0.353693 0.0626847 0)
(-0.367031 0.0500871 0)
(-0.377557 0.0381874 0)
(-0.385348 0.0268257 0)
(-0.390474 0.015862 0)
(-0.392988 0.00517226 0)
(-0.392934 -0.00535515 0)
(-0.390342 -0.015823 0)
(-0.385234 -0.0263285 0)
(-0.377617 -0.0369663 0)
(-0.367495 -0.0478317 0)
(-0.354862 -0.0590242 0)
(-0.339709 -0.0706502 0)
(-0.322023 -0.0828273 0)
(-0.301798 -0.095687 0)
(-0.279035 -0.109379 0)
(-0.253753 -0.124071 0)
(-0.226005 -0.139955 0)
(-0.195894 -0.157237 0)
(-0.163605 -0.176135 0)
(-0.129448 -0.196849 0)
(-0.093914 -0.219523 0)
(-0.0577579 -0.244162 0)
(-0.0221001 -0.270486 0)
(0.0114549 -0.297698 0)
(0.0407125 -0.324095 0)
(0.06287 -0.346504 0)
(0.0747244 -0.359513 0)
(0.0732463 -0.35462 0)
(0.0569457 -0.319643 0)
(0.0299617 -0.239392 0)
(0.00743762 -0.100158 0)
(0.00539661 0.0993352 0)
(0.0238664 0.246486 0)
(0.0485761 0.340223 0)
(0.0660264 0.388656 0)
(0.0710483 0.403523 0)
(0.0636147 0.395921 0)
(0.045751 0.374732 0)
(0.0202104 0.34635 0)
(-0.0102714 0.315019 0)
(-0.0433626 0.283348 0)
(-0.0772507 0.252812 0)
(-0.110611 0.224147 0)
(-0.142522 0.197634 0)
(-0.172373 0.173283 0)
(-0.199782 0.150961 0)
(-0.224524 0.130465 0)
(-0.246483 0.111565 0)
(-0.265614 0.0940304 0)
(-0.281917 0.0776413 0)
(-0.295414 0.062196 0)
(-0.306145 0.0475122 0)
(-0.314152 0.0334261 0)
(-0.319477 0.0197908 0)
(-0.322163 0.00647402 0)
(-0.322245 -0.00664441 0)
(-0.319753 -0.0196756 0)
(-0.314716 -0.0327239 0)
(-0.307157 -0.04589 0)
(-0.297099 -0.0592734 0)
(-0.284565 -0.0729748 0)
(-0.269582 -0.0870989 0)
(-0.252188 -0.101756 0)
(-0.232434 -0.117066 0)
(-0.210395 -0.133154 0)
(-0.186182 -0.150153 0)
(-0.159958 -0.1682 0)
(-0.131959 -0.18742 0)
(-0.102523 -0.207914 0)
(-0.072129 -0.229718 0)
(-0.0414476 -0.252745 0)
(-0.0113956 -0.276695 0)
(0.0168023 -0.300903 0)
(0.0415669 -0.324124 0)
(0.0609663 -0.344221 0)
(0.072835 -0.357766 0)
(0.0751135 -0.359602 0)
(0.0664636 -0.342522 0)
(0.0473469 -0.297362 0)
(0.0227367 -0.214156 0)
(0.00504679 -0.0858012 0)
(0.00391077 0.087915 0)
(0.0188941 0.224587 0)
(0.041317 0.319005 0)
(0.0603641 0.375184 0)
(0.0707957 0.400699 0)
(0.0712712 0.403706 0)
(0.0624032 0.391467 0)
(0.045836 0.36976 0)
(0.0235899 0.342823 0)
(-0.00237074 0.313561 0)
(-0.030348 0.283846 0)
(-0.0589756 0.254805 0)
(-0.0872086 0.227053 0)
(-0.114279 0.200868 0)
(-0.139643 0.176319 0)
(-0.162927 0.153348 0)
(-0.183886 0.131828 0)
(-0.202366 0.111598 0)
(-0.218277 0.092485 0)
(-0.231574 0.0743158 0)
(-0.242242 0.0569255 0)
(-0.250282 0.0401594 0)
(-0.255711 0.0238749 0)
(-0.25855 0.00794099 0)
(-0.258826 -0.00776313 0)
(-0.256568 -0.0233492 0)
(-0.251809 -0.0389219 0)
(-0.244585 -0.0545807 0)
(-0.234939 -0.0704214 0)
(-0.222922 -0.0865381 0)
(-0.208597 -0.103024 0)
(-0.192046 -0.119973 0)
(-0.173375 -0.137477 0)
(-0.152727 -0.155627 0)
(-0.130291 -0.174505 0)
(-0.106318 -0.194177 0)
(-0.0811432 -0.214674 0)
(-0.0552115 -0.23597 0)
(-0.029105 -0.257936 0)
(-0.00357727 -0.280278 0)
(0.0204155 -0.302449 0)
(0.0416939 -0.323508 0)
(0.0588647 -0.341951 0)
(0.0703896 -0.355486 0)
(0.0747674 -0.360788 0)
(0.0708876 -0.353306 0)
(0.0585501 -0.32725 0)
(0.0391997 -0.27597 0)
(0.0176346 -0.193077 0)
(0.00359443 -0.0750723 0)
(0.00297141 0.0789118 0)
(0.0153293 0.205841 0)
(0.035303 0.298745 0)
(0.0543624 0.359428 0)
(0.0677329 0.392694 0)
(0.0734783 0.404394 0)
(0.0713044 0.400254 0)
(0.0619877 0.385235 0)
(0.0468757 0.363278 0)
(0.0274924 0.337322 0)
(0.00529977 0.309441 0)
(-0.0184209 0.281024 0)
(-0.0426112 0.252948 0)
(-0.0664329 0.225724 0)
(-0.0892444 0.199613 0)
(-0.110568 0.174711 0)
(-0.130058 0.151006 0)
(-0.147468 0.128423 0)
(-0.162633 0.106851 0)
(-0.175442 0.086162 0)
(-0.185826 0.0662217 0)
(-0.19375 0.046897 0)
(-0.199198 0.0280601 0)
(-0.202172 0.00959043 0)
(-0.202687 -0.00862483 0)
(-0.200768 -0.0266905 0)
(-0.196452 -0.0447043 0)
(-0.189785 -0.062757 0)
(-0.180826 -0.0809338 0)
(-0.16965 -0.0993143 0)
(-0.156352 -0.117972 0)
(-0.141052 -0.136976 0)
(-0.123903 -0.156382 0)
(-0.105099 -0.176237 0)
(-0.0848887 -0.196562 0)
(-0.0635883 -0.217348 0)
(-0.0415975 -0.23853 0)
(-0.0194187 -0.259961 0)
(0.00232385 -0.281366 0)
(0.0228674 -0.302288 0)
(0.0413023 -0.321999 0)
(0.0565821 -0.3394 0)
(0.0675676 -0.352886 0)
(0.0731284 -0.360205 0)
(0.0723347 -0.358339 0)
(0.0647668 -0.343458 0)
(0.0509009 -0.311064 0)
(0.0325597 -0.256431 0)
(0.0139722 -0.17553 0)
(0.00267337 -0.0667938 0)
(0.00234618 0.0715996 0)
(0.0127057 0.18972 0)
(0.0303934 0.279951 0)
(0.0486772 0.342916 0)
(0.063417 0.381612 0)
(0.0725063 0.400174 0)
(0.0751295 0.403013 0)
(0.0714461 0.394239 0)
(0.0622448 0.377359 0)
(0.0486227 0.355168 0)
(0.0317585 0.329782 0)
(0.0127751 0.302732 0)
(-0.00733253 0.275076 0)
(-0.0277258 0.247509 0)
(-0.047723 0.22046 0)
(-0.0667858 0.194165 0)
(-0.0844995 0.168731 0)
(-0.100551 0.144176 0)
(-0.114711 0.12046 0)
(-0.126814 0.0975109 0)
(-0.136746 0.0752356 0)
(-0.144433 0.0535327 0)
(-0.14983 0.0322986 0)
(-0.15292 0.0114317 0)
(-0.153703 -0.00916505 0)
(-0.152201 -0.0295822 0)
(-0.148449 -0.0499035 0)
(-0.1425 -0.0702048 0)
(-0.134428 -0.090554 0)
(-0.124325 -0.11101 0)
(-0.112311 -0.13162 0)
(-0.0985343 -0.152421 0)
(-0.0831824 -0.173429 0)
(-0.0664877 -0.194641 0)
(-0.0487379 -0.216017 0)
(-0.0302867 -0.237471 0)
(-0.0115658 -0.25885 0)
(0.00690376 -0.279901 0)
(0.0245028 -0.300236 0)
(0.0405109 -0.319278 0)
(0.0541152 -0.336192 0)
(0.0644398 -0.349811 0)
(0.0706071 -0.358545 0)
(0.071847 -0.360306 0)
(0.0676702 -0.352465 0)
(0.0581132 -0.331899 0)
(0.0440014 -0.295187 0)
(0.0271988 -0.239015 0)
(0.0112742 -0.160876 0)
(0.00205881 -0.0602361 0)
(0.00190778 0.0655217 0)
(0.0107152 0.175758 0)
(0.0263714 0.262759 0)
(0.0435186 0.326519 0)
(0.0586512 0.368869 0)
(0.0697196 0.392698 0)
(0.0756505 0.401348 0)
(0.076198 0.398153 0)
(0.0717238 0.386131 0)
(0.0629542 0.367833 0)
(0.0507862 0.345309 0)
(0.0361532 0.32013 0)
(0.0199399 0.29346 0)
(0.0029363 0.266122 0)
(-0.0141817 0.238679 0)
(-0.0308537 0.211492 0)
(-0.0466275 0.184775 0)
(-0.0611459 0.158637 0)
(-0.0741331 0.133116 0)
(-0.0853811 0.108199 0)
(-0.0947377 0.0838418 0)
(-0.102096 0.0599825 0)
(-0.107387 0.0365489 0)
(-0.110572 0.0134657 0)
(-0.11164 -0.0093417 0)
(-0.110602 -0.0319434 0)
(-0.107494 -0.054403 0)
(-0.102371 -0.076776 0)
(-0.095315 -0.0991075 0)
(-0.0864309 -0.12143 0)
(-0.0758543 -0.143763 0)
(-0.0637541 -0.166104 0)
(-0.0503389 -0.188429 0)
(-0.0358632 -0.210682 0)
(-0.020635 -0.232766 0)
(-0.00502309 -0.254525 0)
(0.0105361 -0.275728 0)
(0.0255335 -0.296039 0)
(0.0393868 -0.314987 0)
(0.051448 -0.331918 0)
(0.0610228 -0.345952 0)
(0.0674104 -0.355921 0)
(0.0699692 -0.360326 0)
(0.0682182 -0.3573 0)
(0.0619813 -0.344621 0)
(0.0515689 -0.319793 0)
(0.0379453 -0.280247 0)
(0.0228496 -0.223685 0)
(0.00922931 -0.148578 0)
(0.00162774 -0.0549367 0)
(0.00158538 0.060381 0)
(0.00915812 0.163584 0)
(0.0230359 0.247144 0)
(0.038906 0.310725 0)
(0.0538311 0.355404 0)
(0.0659258 0.383179 0)
(0.0740261 0.396554 0)
(0.0776419 0.398188 0)
(0.0768288 0.390624 0)
(0.0720137 0.376124 0)
(0.0638407 0.356599 0)
(0.0530508 0.333591 0)
(0.0403971 0.308303 0)
(0.02659 0.281639 0)
(0.0122674 0.254256 0)
(-0.0020194 0.226616 0)
(-0.015807 0.199027 0)
(-0.0287157 0.171684 0)
(-0.0404415 0.144698 0)
(-0.0507463 0.118118 0)
(-0.059449 0.0919526 0)
(-0.066417 0.0661838 0)
(-0.0715588 0.0407762 0)
(-0.0748187 0.015686 0)
(-0.0761719 -0.00913354 0)
(-0.0756219 -0.0337269 0)
(-0.073199 -0.058133 0)
(-0.0689595 -0.0823824 0)
(-0.0629867 -0.106493 0)
(-0.0553929 -0.13047 0)
(-0.0463216 -0.154297 0)
(-0.0359517 -0.177936 0)
(-0.0245016 -0.201321 0)
(-0.0122338 -0.224347 0)
(0.000539725 -0.24686 0)
(0.013454 -0.268647 0)
(0.026088 -0.289413 0)
(0.0379651 -0.308761 0)
(0.048559 -0.326163 0)
(0.0573073 -0.340929 0)
(0.0636373 -0.352173 0)
(0.0670082 -0.358778 0)
(0.0669741 -0.359374 0)
(0.0632708 -0.352336 0)
(0.0559291 -0.335819 0)
(0.0454036 -0.307856 0)
(0.032672 -0.26654 0)
(0.0192794 -0.21029 0)
(0.00763522 -0.138208 0)
(0.00131146 -0.0505912 0)
(0.00133822 0.0559769 0)
(0.0079042 0.152907 0)
(0.0202241 0.233016 0)
(0.0347857 0.295797 0)
(0.0491365 0.341838 0)
(0.0615956 0.372499 0)
(0.071008 0.389643 0)
(0.0767534 0.395365 0)
(0.0786809 0.391774 0)
(0.0769893 0.380835 0)
(0.0721096 0.364284 0)
(0.0646051 0.343584 0)
(0.0550933 0.319929 0)
(0.0441901 0.294259 0)
(0.0324743 0.267294 0)
(0.0204661 0.239571 0)
(0.00861867 0.211475 0)
(-0.00268456 0.183275 0)
(-0.0131267 0.155149 0)
(-0.0224523 0.127208 0)
(-0.0304609 0.0995143 0)
(-0.0370009 0.0720939 0)
(-0.0419636 0.0449521 0)
(-0.0452782 0.0180801 0)
(-0.0469077 -0.00853725 0)
(-0.0468467 -0.0349151 0)
(-0.0451189 -0.0610645 0)
(-0.0417772 -0.0869875 0)
(-0.0369034 -0.112674 0)
(-0.0306099 -0.138095 0)
(-0.0230415 -0.163204 0)
(-0.0143779 -0.187924 0)
(-0.0048369 -0.212148 0)
(0.00532253 -0.235726 0)
(0.0157979 -0.258457 0)
(0.0262417 -0.280078 0)
(0.0362622 -0.300245 0)
(0.0454277 -0.318518 0)
(0.0532763 -0.334339 0)
(0.0593331 -0.347009 0)
(0.0631383 -0.355666 0)
(0.0642873 -0.359272 0)
(0.0624866 -0.356602 0)
(0.0576251 -0.346265 0)
(0.0498588 -0.326751 0)
(0.0397 -0.296524 0)
(0.0280705 -0.25418 0)
(0.0163034 -0.198647 0)
(0.00635896 -0.129437 0)
(0.00107012 -0.0469925 0)
(0.00114182 0.0521704 0)
(0.0068667 0.143508 0)
(0.0178102 0.220272 0)
(0.0310825 0.281876 0)
(0.0446359 0.328582 0)
(0.0569993 0.3613 0)
(0.0670818 0.381401 0)
(0.0742106 0.390524 0)
(0.0781048 0.390398 0)
(0.0787975 0.382705 0)
(0.0765494 0.368992 0)
(0.0717693 0.350616 0)
(0.0649465 0.328725 0)
(0.0565984 0.304264 0)
(0.0472337 0.277985 0)
(0.0373272 0.250475 0)
(0.0273061 0.222181 0)
(0.0175429 0.193432 0)
(0.00835381 0.164468 0)
(7.23988e-07 0.135454 0)
(-0.00730579 0.106503 0)
(-0.013402 0.0776879 0)
(-0.0181665 0.0490547 0)
(-0.0215167 0.0206311 0)
(-0.0234052 -0.00756411 0)
(-0.0238169 -0.0355149 0)
(-0.0227682 -0.0632019 0)
(-0.0203053 -0.0905975 0)
(-0.0165049 -0.117661 0)
(-0.0114741 -0.144332 0)
(-0.00535259 -0.17053 0)
(0.00168648 -0.196142 0)
(0.00943429 -0.221023 0)
(0.0176451 -0.244984 0)
(0.0260353 -0.267783 0)
(0.0342846 -0.289116 0)
(0.0420387 -0.308605 0)
(0.0489169 -0.325782 0)
(0.0545229 -0.340076 0)
(0.0584644 -0.3508 0)
(0.0603794 -0.357137 0)
(0.0599732 -0.358136 0)
(0.0570652 -0.35272 0)
(0.0516455 -0.339713 0)
(0.0439362 -0.317888 0)
(0.0344517 -0.286056 0)
(0.0240234 -0.24319 0)
(0.0137798 -0.188582 0)
(0.00531108 -0.122012 0)
(0.000879575 -0.0439956 0)
(0.000980806 0.048862 0)
(0.00598655 0.135217 0)
(0.0156993 0.208813 0)
(0.0277216 0.269028 0)
(0.0403421 0.31591 0)
(0.0522882 0.350046 0)
(0.0625609 0.372434 0)
(0.0704848 0.384347 0)
(0.0757059 0.387193 0)
(0.0781429 0.382397 0)
(0.077926 0.371318 0)
(0.0753358 0.355193 0)
(0.0707469 0.335105 0)
(0.064582 0.311977 0)
(0.0572761 0.28657 0)
(0.0492504 0.259502 0)
(0.040896 0.231262 0)
(0.0325633 0.202229 0)
(0.0245577 0.172693 0)
(0.0171375 0.14287 0)
(0.0105158 0.112918 0)
(0.00486201 0.0829558 0)
(0.000305108 0.0530679 0)
(-0.0030635 0.0233195 0)
(-0.00518736 -0.00623643 0)
(-0.00604279 -0.0355516 0)
(-0.00563736 -0.0645758 0)
(-0.00400894 -0.0932508 0)
(-0.00122541 -0.121505 0)
(0.00261507 -0.149248 0)
(0.00738351 -0.176366 0)
(0.0129192 -0.202713 0)
(0.0190289 -0.228109 0)
(0.0254869 -0.25233 0)
(0.0320353 -0.2751 0)
(0.0383866 -0.296086 0)
(0.0442286 -0.314883 0)
(0.0492322 -0.331009 0)
(0.053064 -0.343894 0)
(0.0554048 -0.352873 0)
(0.055974 -0.357182 0)
(0.0545616 -0.355964 0)
(0.0510664 -0.348279 0)
(0.045539 -0.333138 0)
(0.0382269 -0.30955 0)
(0.0296131 -0.2766 0)
(0.0204239 -0.233548 0)
(0.0116007 -0.179941 0)
(0.00442982 -0.115742 0)
(0.000724462 -0.0414966 0)
(0.000845105 0.0459797 0)
(0.00522253 0.127906 0)
(0.0138198 0.198552 0)
(0.024637 0.257283 0)
(0.0362424 0.304006 0)
(0.0475444 0.339074 0)
(0.0576475 0.363205 0)
(0.0659049 0.377382 0)
(0.0719299 0.382743 0)
(0.0755674 0.38049 0)
(0.0768515 0.371804 0)
(0.0759602 0.3578 0)
(0.0731701 0.339483 0)
(0.0688173 0.317738 0)
(0.0632646 0.293319 0)
(0.0568767 0.266858 0)
(0.0500025 0.23887 0)
(0.042963 0.209773 0)
(0.0360443 0.179895 0)
(0.0294944 0.149497 0)
(0.0235216 0.118779 0)
(0.0182954 0.0878995 0)
(0.0139482 0.0569809 0)
(0.0105768 0.0261242 0)
(0.00824479 -0.00458439 0)
(0.00698386 -0.0350646 0)
(0.00679549 -0.0652357 0)
(0.00765172 -0.0950096 0)
(0.00949567 -0.124285 0)
(0.0122417 -0.152942 0)
(0.0157751 -0.180835 0)
(0.0199524 -0.207789 0)
(0.0246006 -0.233593 0)
(0.0295187 -0.257993 0)
(0.0344787 -0.280686 0)
(0.0392291 -0.301313 0)
(0.0435005 -0.319455 0)
(0.0470138 -0.334622 0)
(0.0494929 -0.346255 0)
(0.0506809 -0.353716 0)
(0.0503625 -0.356299 0)
(0.04839 -0.353232 0)
(0.0447143 -0.3437 0)
(0.0394171 -0.326874 0)
(0.0327432 -0.301955 0)
(0.0251248 -0.268243 0)
(0.0171803 -0.225211 0)
(0.00968415 -0.172596 0)
(0.00367147 -0.110479 0)
(0.00059461 -0.0394196 0)
(0.000727875 0.0434701 0)
(0.00454525 0.121477 0)
(0.0121178 0.189414 0)
(0.0217727 0.24665 0)
(0.0323134 0.292994 0)
(0.0428101 0.328633 0)
(0.0524729 0.354072 0)
(0.0607023 0.370066 0)
(0.0671072 0.377533 0)
(0.0714893 0.377479 0)
(0.0738156 0.370929 0)
(0.0741848 0.358878 0)
(0.0727923 0.342251 0)
(0.069898 0.321885 0)
(0.0657973 0.298513 0)
(0.060799 0.272766 0)
(0.0552071 0.245178 0)
(0.0493086 0.216189 0)
(0.0433653 0.186163 0)
(0.0376084 0.155393 0)
(0.0322364 0.124118 0)
(0.0274143 0.0925299 0)
(0.0232735 0.060787 0)
(0.0199135 0.0290233 0)
(0.0174028 -0.00264322 0)
(0.0157802 -0.0341022 0)
(0.0150562 -0.0652438 0)
(0.0152136 -0.0959513 0)
(0.016208 -0.126096 0)
(0.0179686 -0.155528 0)
(0.020398 -0.184077 0)
(0.0233727 -0.21154 0)
(0.0267436 -0.237677 0)
(0.030337 -0.26221 0)
(0.0339571 -0.284814 0)
(0.0373894 -0.305111 0)
(0.0404064 -0.322671 0)
(0.0427755 -0.337005 0)
(0.044271 -0.347565 0)
(0.0446879 -0.353746 0)
(0.0438613 -0.354895 0)
(0.0416875 -0.350318 0)
(0.038148 -0.339307 0)
(0.0333344 -0.321166 0)
(0.0274701 -0.295251 0)
(0.0209264 -0.261029 0)
(0.0142166 -0.218135 0)
(0.00796757 -0.166441 0)
(0.00300442 -0.106112 0)
(0.00048303 -0.037709 0)
(0.000624317 0.0412932 0)
(0.00393332 0.115854 0)
(0.010552 0.18134 0)
(0.019083 0.237127 0)
(0.0285291 0.282961 0)
(0.0381044 0.318908 0)
(0.0471225 0.345312 0)
(0.0550414 0.362748 0)
(0.0614846 0.371958 0)
(0.0662341 0.373783 0)
(0.0692124 0.369111 0)
(0.0704592 0.358825 0)
(0.0701048 0.343772 0)
(0.0683437 0.324735 0)
(0.0654109 0.30242 0)
(0.0615618 0.27745 0)
(0.0570553 0.250362 0)
(0.0521425 0.221616 0)
(0.047057 0.191596 0)
(0.0420094 0.160627 0)
(0.0371843 0.128974 0)
(0.0327376 0.096863 0)
(0.028797 0.0644821 0)
(0.0254616 0.0319951 0)
(0.0228028 -0.000451037 0)
(0.0208656 -0.0327182 0)
(0.0196687 -0.0646693 0)
(0.0192059 -0.0961618 0)
(0.0194465 -0.127041 0)
(0.0203358 -0.157133 0)
(0.0217954 -0.18624 0)
(0.0237241 -0.214136 0)
(0.0259982 -0.240559 0)
(0.0284733 -0.265209 0)
(0.0309864 -0.287741 0)
(0.0333596 -0.307766 0)
(0.0354051 -0.324844 0)
(0.036933 -0.33849 0)
(0.0377606 -0.34817 0)
(0.0377256 -0.353309 0)
(0.0367005 -0.353301 0)
(0.0346108 -0.34752 0)
(0.0314529 -0.335347 0)
(0.0273125 -0.316194 0)
(0.0223803 -0.289541 0)
(0.0169619 -0.254983 0)
(0.0114706 -0.212276 0)
(0.00640275 -0.161392 0)
(0.00240536 -0.102554 0)
(0.00038477 -0.0363232 0)
(0.000530976 0.0394189 0)
(0.00337085 0.110978 0)
(0.00909089 0.174279 0)
(0.0165304 0.228707 0)
(0.024864 0.273967 0)
(0.0334339 0.310034 0)
(0.0416525 0.337134 0)
(0.0490406 0.355704 0)
(0.0552493 0.366341 0)
(0.0600573 0.369752 0)
(0.0633612 0.366705 0)
(0.0651583 0.357987 0)
(0.0655279 0.344369 0)
(0.0646102 0.32658 0)
(0.0625868 0.305296 0)
(0.0596638 0.281123 0)
(0.0560568 0.254598 0)
(0.05198 0.226188 0)
(0.0476371 0.196297 0)
(0.0432154 0.165267 0)
(0.0388821 0.133391 0)
(0.0347815 0.100918 0)
(0.0310341 0.0680633 0)
(0.0277363 0.0350176 0)
(0.0249608 0.00195275 0)
(0.0227567 -0.0309682 0)
(0.0211508 -0.0635844 0)
(0.0201475 -0.0957296 0)
(0.01973 -0.127226 0)
(0.0198605 -0.157878 0)
(0.0204808 -0.187467 0)
(0.0215126 -0.215744 0)
(0.0228589 -0.242428 0)
(0.0244051 -0.2672 0)
(0.0260209 -0.289702 0)
(0.0275637 -0.309532 0)
(0.0288832 -0.326247 0)
(0.0298273 -0.339363 0)
(0.0302508 -0.34836 0)
(0.0300249 -0.352688 0)
(0.02905 -0.351782 0)
(0.0272687 -0.345071 0)
(0.0246806 -0.332009 0)
(0.021355 -0.312091 0)
(0.0174426 -0.284896 0)
(0.0131818 -0.250114 0)
(0.00889167 -0.207595 0)
(0.0049523 -0.157383 0)
(0.00185677 -0.0997427 0)
(0.000296233 -0.0352317 0)
(0.000445296 0.0378245 0)
(0.00284582 0.106806 0)
(0.00770992 0.168193 0)
(0.0140847 0.221384 0)
(0.021295 0.266054 0)
(0.0287983 0.302115 0)
(0.0361001 0.329704 0)
(0.0427867 0.349151 0)
(0.0485447 0.360941 0)
(0.0531623 0.365672 0)
(0.0565233 0.364011 0)
(0.0585969 0.35666 0)
(0.0594234 0.344322 0)
(0.0590983 0.327678 0)
(0.0577573 0.307368 0)
(0.0555617 0.283981 0)
(0.0526862 0.258047 0)
(0.0493087 0.230036 0)
(0.0456022 0.200362 0)
(0.0417289 0.169382 0)
(0.0378365 0.137409 0)
(0.0340549 0.104711 0)
(0.0304953 0.0715274 0)
(0.0272491 0.0380685 0)
(0.0243882 0.00452848 0)
(0.0219649 -0.0289084 0)
(0.0200126 -0.0620604 0)
(0.018546 -0.0947415 0)
(0.0175619 -0.126754 0)
(0.0170396 -0.157884 0)
(0.0169411 -0.187893 0)
(0.017212 -0.216516 0)
(0.017782 -0.243453 0)
(0.018566 -0.268373 0)
(0.0194659 -0.290902 0)
(0.020373 -0.31063 0)
(0.0211718 -0.32711 0)
(0.0217445 -0.33986 0)
(0.0219773 -0.34837 0)
(0.0217689 -0.35211 0)
(0.021039 -0.350546 0)
(0.0197391 -0.343151 0)
(0.0178629 -0.329433 0)
(0.0154566 -0.308954 0)
(0.0126265 -0.281364 0)
(0.00954369 -0.246427 0)
(0.00643876 -0.204061 0)
(0.00358689 -0.154363 0)
(0.00134525 -0.0976283 0)
(0.000214737 -0.0344118 0)
(0.000365335 0.0364927 0)
(0.0023489 0.103302 0)
(0.00638959 0.163052 0)
(0.0117207 0.215148 0)
(0.0178013 0.25925 0)
(0.0241933 0.295226 0)
(0.0304903 0.323145 0)
(0.0363444 0.343259 0)
(0.0414832 0.355965 0)
(0.0457129 0.361774 0)
(0.0489155 0.361271 0)
(0.0510425 0.355088 0)
(0.0521051 0.343868 0)
(0.0521631 0.328247 0)
(0.0513126 0.308833 0)
(0.0496748 0.286195 0)
(0.0473863 0.260852 0)
(0.0445899 0.233273 0)
(0.0414277 0.203877 0)
(0.038036 0.173033 0)
(0.0345412 0.141065 0)
(0.0310572 0.108259 0)
(0.0276836 0.0748691 0)
(0.0245051 0.0411246 0)
(0.0215908 0.00723678 0)
(0.0189947 -0.0265928 0)
(0.0167557 -0.0601658 0)
(0.014898 -0.0932794 0)
(0.0134314 -0.12572 0)
(0.0123519 -0.157258 0)
(0.0116418 -0.18764 0)
(0.0112701 -0.216586 0)
(0.0111932 -0.243783 0)
(0.0113551 -0.268886 0)
(0.0116892 -0.291511 0)
(0.0121192 -0.31124 0)
(0.0125618 -0.327621 0)
(0.0129304 -0.340171 0)
(0.0131389 -0.348386 0)
(0.0131076 -0.351751 0)
(0.0127701 -0.349752 0)
(0.0120802 -0.341895 0)
(0.0110202 -0.327726 0)
(0.00960826 -0.306853 0)
(0.00790382 -0.278979 0)
(0.00601168 -0.243923 0)
(0.0040785 -0.201649 0)
(0.00228328 -0.152294 0)
(0.000860403 -0.0961753 0)
(0.000138241 -0.033847 0)
(0.00028957 0.0354108 0)
(0.00187267 0.100443 0)
(0.00511403 0.158831 0)
(0.00941756 0.209994 0)
(0.0143643 0.253579 0)
(0.0196125 0.289423 0)
(0.0248394 0.317553 0)
(0.0297626 0.338158 0)
(0.0341541 0.351573 0)
(0.037844 0.35824 0)
(0.0407202 0.358682 0)
(0.0427249 0.35347 0)
(0.0438486 0.343201 0)
(0.0441219 0.328471 0)
(0.0436071 0.309857 0)
(0.04239 0.287907 0)
(0.0405713 0.263132 0)
(0.0382604 0.235995 0)
(0.0355689 0.206916 0)
(0.0326065 0.176269 0)
(0.0294775 0.144387 0)
(0.0262778 0.111569 0)
(0.0230941 0.0780795 0)
(0.0200022 0.0441612 0)
(0.0170674 0.0100387 0)
(0.0143434 -0.0240735 0)
(0.0118736 -0.057964 0)
(0.00969036 -0.0914177 0)
(0.00781582 -0.124209 0)
(0.00626197 -0.156095 0)
(0.00503083 -0.186812 0)
(0.00411455 -0.216068 0)
(0.00349556 -0.24354 0)
(0.00314671 -0.26887 0)
(0.00303161 -0.291667 0)
(0.00310532 -0.311504 0)
(0.00331541 -0.327923 0)
(0.00360372 -0.340439 0)
(0.00390885 -0.348548 0)
(0.00416953 -0.351742 0)
(0.00432882 -0.349519 0)
(0.00433906 -0.341401 0)
(0.00416726 -0.32696 0)
(0.00380039 -0.305837 0)
(0.00325007 -0.277765 0)
(0.00255562 -0.242599 0)
(0.0017835 -0.20034 0)
(0.00102269 -0.151147 0)
(0.000393932 -0.0953585 0)
(6.51459e-05 -0.0335259 0)
(0.00021676 0.0345696 0)
(0.00141095 0.0982084 0)
(0.00386985 0.155515 0)
(0.00715704 0.205916 0)
(0.010967 0.249054 0)
(0.0150482 0.284749 0)
(0.0191581 0.312995 0)
(0.0230791 0.333945 0)
(0.0266297 0.347884 0)
(0.0296681 0.355208 0)
(0.0320936 0.356391 0)
(0.0338454 0.35196 0)
(0.034899 0.342471 0)
(0.0352616 0.328489 0)
(0.0349665 0.310565 0)
(0.0340672 0.289231 0)
(0.0326314 0.264981 0)
(0.0307362 0.238276 0)
(0.0284633 0.209531 0)
(0.0258956 0.179124 0)
(0.0231141 0.147393 0)
(0.020196 0.114642 0)
(0.0172133 0.0811446 0)
(0.0142317 0.0471511 0)
(0.0113105 0.0128954 0)
(0.00850228 -0.0213993 0)
(0.00585305 -0.055513 0)
(0.00340238 -0.089222 0)
(0.00118359 -0.122292 0)
(-0.000776171 -0.154474 0)
(-0.00245592 -0.185494 0)
(-0.00384103 -0.215051 0)
(-0.00492351 -0.242816 0)
(-0.00570244 -0.268423 0)
(-0.00618438 -0.291471 0)
(-0.00638387 -0.311525 0)
(-0.0063236 -0.32812 0)
(-0.00603443 -0.340765 0)
(-0.00555479 -0.348953 0)
(-0.00492962 -0.352172 0)
(-0.00420847 -0.349922 0)
(-0.00344293 -0.341734 0)
(-0.00268339 -0.327186 0)
(-0.00197534 -0.305935 0)
(-0.00135576 -0.277733 0)
(-0.000849878 -0.242454 0)
(-0.00046907 -0.200119 0)
(-0.000210374 -0.150905 0)
(-6.09425e-05 -0.0951605 0)
(-5.84424e-06 -0.0334406 0)
(0.000145844 0.0339627 0)
(0.000958374 0.0965869 0)
(0.00264523 0.153091 0)
(0.00492268 0.202911 0)
(0.00759316 0.245686 0)
(0.0104913 0.281231 0)
(0.0134525 0.309522 0)
(0.0163234 0.330687 0)
(0.0189701 0.344984 0)
(0.0212817 0.352776 0)
(0.0231727 0.354504 0)
(0.0245832 0.350665 0)
(0.0254783 0.341785 0)
(0.0258459 0.328403 0)
(0.0256935 0.311051 0)
(0.025045 0.290242 0)
(0.0239372 0.266463 0)
(0.022416 0.240163 0)
(0.0205336 0.211756 0)
(0.0183457 0.181618 0)
(0.0159097 0.150087 0)
(0.0132828 0.11747 0)