/*--------------------------------*- C++ -*----------------------------------*\
  =========                 |
  \\      /  F ield         | OpenFOAM: The Open Source CFD Toolbox
   \\    /   O peration     | Website:  https://openfoam.org
    \\  /    A nd           | Version:  7
     \\/     M anipulation  |
\*---------------------------------------------------------------------------*/
FoamFile
{
    version     2.0;
    format      ascii;
    class       surfaceScalarField;
    location    "0.0014";
    object      phi;
}
// * * * * * * * * * * * * * * * * * * * * * * * * * * * * * * * * * * * * * //

dimensions      [0 3 -1 0 0 0 0];

internalField   nonuniform List<scalar> 
4900
(
5.47056e-06
-5.47056e-06
9.87334e-06
-4.40278e-06
1.24161e-05
-2.54272e-06
1.38807e-05
-1.46462e-06
1.47316e-05
-8.50953e-07
1.52361e-05
-5.04433e-07
1.55482e-05
-3.1216e-07
1.57527e-05
-2.04499e-07
1.58946e-05
-1.41842e-07
1.59978e-05
-1.03286e-07
1.60759e-05
-7.80853e-08
1.61366e-05
-6.06697e-08
1.61847e-05
-4.80635e-08
1.62233e-05
-3.85996e-08
1.62546e-05
-3.12889e-08
1.62801e-05
-2.55088e-08
1.63009e-05
-2.08461e-08
1.63179e-05
-1.70155e-08
1.63317e-05
-1.38124e-08
1.63428e-05
-1.10858e-08
1.63515e-05
-8.72033e-09
1.63582e-05
-6.62569e-09
1.63629e-05
-4.72908e-09
1.63659e-05
-2.96919e-09
1.63672e-05
-1.29227e-09
1.63668e-05
3.51681e-10
1.63648e-05
2.00876e-09
1.63611e-05
3.72827e-09
1.63555e-05
5.56172e-09
1.63479e-05
7.56799e-09
1.63381e-05
9.8167e-09
1.63257e-05
1.23931e-08
1.63103e-05
1.54056e-08
1.62913e-05
1.89966e-08
1.6268e-05
2.33597e-08
1.62392e-05
2.87647e-08
1.62036e-05
3.5602e-08
1.61591e-05
4.44621e-08
1.61029e-05
5.62825e-08
1.60302e-05
7.26398e-08
1.59339e-05
9.6347e-08
1.58012e-05
1.3268e-07
1.56093e-05
1.91921e-07
1.53149e-05
2.94404e-07
1.48351e-05
4.79722e-07
1.40148e-05
8.20383e-07
1.25752e-05
1.43958e-06
1.0023e-05
2.55216e-06
5.55339e-06
4.46963e-06
5.55339e-06
-2.10803e-07
-5.25976e-06
1.4456e-06
-6.05918e-06
3.55841e-06
-4.65554e-06
5.29782e-06
-3.20402e-06
6.56449e-06
-2.11763e-06
7.45137e-06
-1.39131e-06
8.07006e-06
-9.30846e-07
8.50828e-06
-6.42724e-07
8.82634e-06
-4.599e-07
9.06342e-06
-3.40368e-07
9.24457e-06
-2.59235e-07
9.3859e-06
-2.02e-07
9.49801e-06
-1.60172e-07
9.58807e-06
-1.28655e-07
9.66106e-06
-1.04283e-07
9.72057e-06
-8.50121e-08
9.76919e-06
-6.9469e-08
9.80887e-06
-5.67003e-08
9.84108e-06
-4.60225e-08
9.86693e-06
-3.69302e-08
9.88725e-06
-2.90392e-08
9.90267e-06
-2.2049e-08
9.91366e-06
-1.57163e-08
9.92052e-06
-9.83714e-09
9.92346e-06
-4.23279e-09
9.92256e-06
1.26047e-09
9.91776e-06
6.80049e-09
9.90894e-06
1.25481e-08
9.89583e-06
1.86764e-08
9.87802e-06
2.5381e-08
9.85494e-06
3.28932e-08
9.82584e-06
4.14971e-08
9.78969e-06
5.15538e-08
9.74515e-06
6.35383e-08
9.69041e-06
7.80941e-08
9.62306e-06
9.61196e-08
9.53975e-06
1.18911e-07
9.4358e-06
1.48408e-07
9.30446e-06
1.87627e-07
9.13564e-06
2.41457e-07
8.91387e-06
3.18117e-07
8.61475e-06
4.31797e-07
8.19939e-06
6.07281e-07
7.60658e-06
8.87214e-07
6.74471e-06
1.34159e-06
5.49327e-06
2.07183e-06
3.74635e-06
3.1865e-06
1.59472e-06
4.7038e-06
-1.31558e-07
6.1959e-06
5.42183e-06
-1.23868e-06
-4.02108e-06
-1.30412e-06
-5.99374e-06
-5.46586e-07
-5.41307e-06
4.52444e-07
-4.20305e-06
1.39191e-06
-3.0571e-06
2.17145e-06
-2.17084e-06
2.78419e-06
-1.54359e-06
3.25649e-06
-1.11502e-06
3.6201e-06
-8.23514e-07
3.90231e-06
-6.22576e-07
4.1239e-06
-4.80828e-07
4.30001e-06
-3.78111e-07
4.4415e-06
-3.0166e-07
4.55619e-06
-2.43339e-07
4.64975e-06
-1.9785e-07
4.7264e-06
-1.61657e-07
4.78925e-06
-1.32326e-07
4.84069e-06
-1.0814e-07
4.88252e-06
-8.78517e-08
4.91612e-06
-7.05296e-08
4.94255e-06
-5.54618e-08
4.96258e-06
-4.20873e-08
4.97682e-06
-2.99501e-08
4.98565e-06
-1.86659e-08
4.98931e-06
-7.89731e-09
4.98791e-06
2.66561e-09
4.98138e-06
1.33226e-08
4.96955e-06
2.4379e-08
4.95207e-06
3.61633e-08
4.9284e-06
4.90457e-08
4.89783e-06
6.34624e-08
4.85938e-06
7.99473e-08
4.81176e-06
9.9176e-08
4.75327e-06
1.2203e-07
4.68167e-06
1.49695e-07
4.59398e-06
1.83808e-07
4.4862e-06
2.2669e-07
4.35286e-06
2.81748e-07
4.18637e-06
3.54116e-07
3.97606e-06
4.51763e-07
3.70681e-06
5.87369e-07
3.35739e-06
7.8122e-07
2.89903e-06
1.06564e-06
2.2968e-06
1.48944e-06
1.51879e-06
2.11961e-06
5.64764e-07
3.02585e-06
-4.69107e-07
4.22037e-06
-1.27453e-06
5.50922e-06
-1.24659e-06
6.16796e-06
4.17524e-06
-1.06516e-06
-2.95592e-06
-1.87225e-06
-5.18664e-06
-2.02234e-06
-5.26298e-06
-1.74992e-06
-4.47547e-06
-1.29605e-06
-3.51096e-06
-8.0992e-07
-2.65698e-06
-3.6312e-07
-1.99039e-06
2.00626e-08
-1.4982e-06
3.38357e-07
-1.14181e-06
5.99294e-07
-8.83513e-07
8.12473e-07
-6.94007e-07
9.86867e-07
-5.52505e-07
1.12999e-06
-4.44788e-07
1.24787e-06
-3.6121e-07
1.34519e-06
-2.95177e-07
1.42565e-06
-2.42113e-07
1.49209e-06
-1.98771e-07
1.54676e-06
-1.62803e-07
1.59138e-06
-1.32473e-07
1.62731e-06
-1.06464e-07
1.65561e-06
-8.37561e-08
1.67706e-06
-6.35364e-08
1.69224e-06
-4.51391e-08
1.70158e-06
-2.79985e-08
1.7053e-06
-1.16154e-08
1.70349e-06
4.47116e-09
1.6961e-06
2.07079e-08
1.68293e-06
3.75506e-08
1.66361e-06
5.54878e-08
1.63759e-06
7.50686e-08
1.60411e-06
9.69359e-08
1.56219e-06
1.21871e-07
1.51051e-06
1.50852e-07
1.4474e-06
1.85145e-07
1.37067e-06
2.26421e-07
1.27753e-06
2.76948e-07
1.16434e-06
3.39883e-07
1.02638e-06
4.19709e-07
8.57545e-07
5.22949e-07
6.50044e-07
6.59264e-07
3.94317e-07
8.43096e-07
7.95423e-08
1.09599e-06
-3.03686e-07
1.44887e-06
-7.57149e-07
1.9429e-06
-1.25972e-06
2.62218e-06
-1.74092e-06
3.50705e-06
-2.04611e-06
4.52556e-06
-1.91875e-06
5.38186e-06
-1.10341e-06
5.35262e-06
3.07183e-06
-7.77576e-07
-2.17834e-06
-1.69457e-06
-4.26965e-06
-2.24687e-06
-4.71068e-06
-2.42545e-06
-4.29689e-06
-2.35324e-06
-3.58318e-06
-2.15051e-06
-2.8597e-06
-1.89969e-06
-2.24122e-06
-1.64694e-06
-1.75095e-06
-1.41397e-06
-1.37478e-06
-1.20863e-06
-1.08886e-06
-1.03181e-06
-8.70824e-07
-8.81409e-07
-7.02904e-07
-7.54296e-07
-5.71901e-07
-6.47243e-07
-4.68263e-07
-5.5731e-07
-3.85111e-07
-4.81965e-07
-3.17457e-07
-4.19092e-07
-2.61644e-07
-3.66951e-07
-2.14945e-07
-3.2413e-07
-1.75294e-07
-2.89498e-07
-1.41096e-07
-2.6216e-07
-1.11094e-07
-2.41426e-07
-8.4271e-08
-2.26781e-07
-5.97841e-08
-2.17869e-07
-3.69099e-08
-2.1448e-07
-1.5005e-08
-2.16537e-07
6.52809e-09
-2.24099e-07
2.82702e-08
-2.37362e-07
5.08138e-08
-2.56667e-07
7.47923e-08
-2.82512e-07
1.00913e-07
-3.15575e-07
1.29999e-07
-3.56741e-07
1.63037e-07
-4.0714e-07
2.01251e-07
-4.68189e-07
2.46194e-07
-5.41652e-07
2.99884e-07
-6.29702e-07
3.64999e-07
-7.34975e-07
4.45156e-07
-8.60597e-07
5.45331e-07
-1.01011e-06
6.72464e-07
-1.18717e-06
8.36322e-07
-1.3947e-06
1.05062e-06
-1.63292e-06
1.33422e-06
-1.89549e-06
1.71144e-06
-2.1619e-06
2.20931e-06
-2.38593e-06
2.84621e-06
-2.4817e-06
3.60282e-06
-2.31989e-06
4.36376e-06
-1.76422e-06
4.82618e-06
-8.15504e-07
4.40391e-06
2.25632e-06
-5.33341e-07
-1.645e-06
-1.33458e-06
-3.46841e-06
-1.98249e-06
-4.06278e-06
-2.36763e-06
-3.91175e-06
-2.52408e-06
-3.42672e-06
-2.52513e-06
-2.85866e-06
-2.43736e-06
-2.32898e-06
-2.30775e-06
-1.88057e-06
-2.165e-06
-1.51753e-06
-2.02488e-06
-1.22897e-06
-1.89512e-06
-1.00059e-06
-1.77879e-06
-8.19229e-07
-1.67655e-06
-6.74139e-07
-1.58784e-06
-5.56976e-07
-1.51157e-06
-4.6138e-07
-1.44651e-06
-3.8252e-07
-1.39144e-06
-3.16711e-07
-1.34526e-06
-2.6112e-07
-1.30702e-06
-2.13538e-07
-1.2759e-06
-1.72221e-07
-1.25122e-06
-1.35765e-07
-1.23248e-06
-1.03017e-07
-1.21926e-06
-7.30042e-08
-1.21128e-06
-4.48838e-08
-1.20839e-06
-1.78979e-08
-1.21052e-06
8.66143e-09
-1.21774e-06
3.54848e-08
-1.2302e-06
6.32764e-08
-1.2482e-06
9.27861e-08
-1.27213e-06
1.24845e-07
-1.30254e-06
1.6041e-07
-1.34012e-06
2.00614e-07
-1.3857e-06
2.4684e-07
-1.44032e-06
3.0081e-07
-1.50515e-06
3.64712e-07
-1.58152e-06
4.41372e-07
-1.67086e-06
5.34492e-07
-1.7745e-06
6.48976e-07
-1.89339e-06
7.91356e-07
-2.0274e-06
9.70332e-07
-2.17408e-06
1.1973e-06
-2.32642e-06
1.48655e-06
-2.46914e-06
1.85416e-06
-2.57319e-06
2.31337e-06
-2.58954e-06
2.86256e-06
-2.4466e-06
3.45988e-06
-2.06315e-06
3.98031e-06
-1.39767e-06
4.1607e-06
-5.61395e-07
3.56764e-06
1.69493e-06
-3.61324e-07
-1.28368e-06
-9.97796e-07
-2.83194e-06
-1.601e-06
-3.45957e-06
-2.04232e-06
-3.47042e-06
-2.30754e-06
-3.16151e-06
-2.43108e-06
-2.73512e-06
-2.4574e-06
-2.30265e-06
-2.42445e-06
-1.91352e-06
-2.35946e-06
-1.58251e-06
-2.28018e-06
-1.30826e-06
-2.19732e-06
-1.08345e-06
-2.11699e-06
-8.99561e-07
-2.04237e-06
-7.48759e-07
-1.97492e-06
-6.24431e-07
-1.91509e-06
-5.21208e-07
-1.8628e-06
-4.34804e-07
-1.81771e-06
-3.61807e-07
-1.77933e-06
-2.99497e-07
-1.74718e-06
-2.4569e-07
-1.72079e-06
-1.98616e-07
-1.69974e-06
-1.56814e-07
-1.68369e-06
-1.19065e-07
-1.67237e-06
-8.43201e-08
-1.6656e-06
-5.16592e-08
-1.66325e-06
-2.02456e-08
-1.6653e-06
1.07078e-08
-1.67178e-06
4.19713e-08
-1.68284e-06
7.43298e-08
-1.69867e-06
1.08615e-07
-1.71956e-06
1.45741e-07
-1.7459e-06
1.86746e-07
-1.77812e-06
2.32843e-07
-1.81677e-06
2.85484e-07
-1.8624e-06
3.46438e-07
-1.91558e-06
4.17898e-07
-1.97682e-06
5.02613e-07
-2.04639e-06
6.04062e-07
-2.12408e-06
7.26661e-07
-2.20874e-06
8.76014e-07
-2.29754e-06
1.05913e-06
-2.38474e-06
1.2845e-06
-2.45979e-06
1.56161e-06
-2.50472e-06
1.89908e-06
-2.49108e-06
2.29973e-06
-2.37831e-06
2.74979e-06
-2.11754e-06
3.1991e-06
-1.66919e-06
3.53197e-06
-1.04502e-06
3.53652e-06
-3.79524e-07
2.90214e-06
1.3154e-06
-2.49326e-07
-1.03435e-06
-7.3842e-07
-2.34285e-06
-1.25253e-06
-2.94546e-06
-1.67686e-06
-3.04609e-06
-1.97731e-06
-2.86106e-06
-2.16332e-06
-2.54911e-06
-2.26043e-06
-2.20554e-06
-2.29544e-06
-1.87851e-06
-2.29045e-06
-1.5875e-06
-2.26167e-06
-1.33703e-06
-2.2202e-06
-1.12492e-06
-2.17326e-06
-9.46501e-07
-2.12537e-06
-7.96649e-07
-2.07924e-06
-6.70559e-07
-2.03641e-06
-5.64039e-07
-1.99768e-06
-4.7354e-07
-1.96338e-06
-3.96106e-07
-1.93359e-06
-3.29286e-07
-1.90824e-06
-2.71042e-07
-1.88718e-06
-2.19677e-07
-1.87023e-06
-1.73756e-07
-1.85725e-06
-1.32051e-07
-1.84808e-06
-9.34897e-08
-1.84262e-06
-5.71163e-08
-1.84082e-06
-2.20511e-08
-1.84265e-06
1.25396e-08
-1.84815e-06
4.74744e-08
-1.85741e-06
8.35864e-08
-1.87055e-06
1.21753e-07
-1.88773e-06
1.62929e-07
-1.90917e-06
2.08186e-07
-1.93508e-06
2.58753e-07
-1.96567e-06
3.1607e-07
-2.00109e-06
3.81853e-07
-2.04136e-06
4.58168e-07
-2.08627e-06
5.47523e-07
-2.13518e-06
6.52971e-07
-2.18673e-06
7.78217e-07
-2.23842e-06
9.27703e-07
-2.2859e-06
1.10661e-06
-2.32201e-06
1.32061e-06
-2.33549e-06
1.57509e-06
-2.3095e-06
1.87309e-06
-2.22054e-06
2.21078e-06
-2.0395e-06
2.56875e-06
-1.7378e-06
2.8974e-06
-1.30338e-06
3.09755e-06
-7.70608e-07
3.00375e-06
-2.60438e-07
2.39197e-06
1.05497e-06
-1.78354e-07
-8.55996e-07
-5.53957e-07
-1.96724e-06
-9.78209e-07
-2.52121e-06
-1.35836e-06
-2.66594e-06
-1.65591e-06
-2.56351e-06
-1.86675e-06
-2.33827e-06
-2.00312e-06
-2.06916e-06
-2.0822e-06
-1.79944e-06
-2.12025e-06
-1.54945e-06
-2.13054e-06
-1.32674e-06
-2.12304e-06
-1.13242e-06
-2.10488e-06
-9.64656e-07
-2.081e-06
-8.20538e-07
-2.05468e-06
-6.96877e-07
-2.0281e-06
-5.90621e-07
-2.00262e-06
-4.99011e-07
-1.97911e-06
-4.19623e-07
-1.95804e-06
-3.50354e-07
-1.93968e-06
-2.89399e-07
-1.92416e-06
-2.35197e-07
-1.91152e-06
-1.864e-07
-1.90175e-06
-1.41822e-07
-1.89483e-06
-1.00412e-07
-1.89073e-06
-6.12118e-08
-1.88945e-06
-2.33339e-08
-1.89098e-06
1.40719e-08
-1.89535e-06
5.18424e-08
-1.90259e-06
9.08278e-08
-1.91275e-06
1.31918e-07
-1.9259e-06
1.76073e-07
-1.94206e-06
2.2435e-07
-1.96125e-06
2.77942e-07
-1.9834e-06
3.38218e-07
-2.00831e-06
4.06764e-07
-2.03557e-06
4.85431e-07
-2.06444e-06
5.76391e-07
-2.09365e-06
6.82175e-07
-2.12113e-06
8.05701e-07
-2.14368e-06
9.50249e-07
-2.15639e-06
1.11932e-06
-2.15203e-06
1.31625e-06
-2.12028e-06
1.54335e-06
-2.04716e-06
1.79996e-06
-1.91516e-06
2.07878e-06
-1.70544e-06
2.35903e-06
-1.40396e-06
2.59592e-06
-1.01386e-06
2.70745e-06
-5.74993e-07
2.56488e-06
-1.85015e-07
2.002e-06
8.6995e-07
-1.33259e-07
-7.22737e-07
-4.26598e-07
-1.67391e-06
-7.75043e-07
-2.17277e-06
-1.10631e-06
-2.33468e-06
-1.38435e-06
-2.28547e-06
-1.59888e-06
-2.12374e-06
-1.75392e-06
-1.91413e-06
-1.85946e-06
-1.69389e-06
-1.9267e-06
-1.48221e-06
-1.96574e-06
-1.28771e-06
-1.98483e-06
-1.11333e-06
-1.99034e-06
-9.59151e-07
-1.98699e-06
-8.23889e-07
-1.9782e-06
-7.0566e-07
-1.96641e-06
-6.0241e-07
-1.95331e-06
-5.12115e-07
-1.94005e-06
-4.32882e-07
-1.92741e-06
-3.6299e-07
-1.91592e-06
-3.00897e-07
-1.90589e-06
-2.45227e-07
-1.89753e-06
-1.94752e-07
-1.89099e-06
-1.48369e-07
-1.88632e-06
-1.05077e-07
-1.88358e-06
-6.39502e-08
-1.8828e-06
-2.41187e-08
-1.88398e-06
1.52564e-08
-1.88714e-06
5.50038e-08
-1.89228e-06
9.5964e-08
-1.89937e-06
1.39011e-07
-1.90837e-06
1.85075e-07
-1.91919e-06
2.35169e-07
-1.93166e-06
2.9041e-07
-1.94549e-06
3.5205e-07
-1.96023e-06
4.21499e-07
-1.97515e-06
5.00351e-07
-1.98916e-06
5.904e-07
-2.00063e-06
6.93643e-07
-2.00717e-06
8.12244e-07
-2.00537e-06
9.48451e-07
-1.99044e-06
1.10438e-06
-1.95581e-06
1.28162e-06
-1.89284e-06
1.48038e-06
-1.7908e-06
1.69791e-06
-1.63755e-06
1.92553e-06
-1.42201e-06
2.1435e-06
-1.13926e-06
2.31317e-06
-7.99485e-07
2.36767e-06
-4.40247e-07
2.20565e-06
-1.37311e-07
1.69906e-06
7.32639e-07
-1.03937e-07
-6.188e-07
-3.3872e-07
-1.43912e-06
-6.27514e-07
-1.88397e-06
-9.14225e-07
-2.04797e-06
-1.16752e-06
-2.03218e-06
-1.37507e-06
-1.91618e-06
-1.53625e-06
-1.75295e-06
-1.65622e-06
-1.57393e-06
-1.74222e-06
-1.39621e-06
-1.80157e-06
-1.22836e-06
-1.84072e-06
-1.07418e-06
-1.865e-06
-9.34867e-07
-1.87863e-06
-8.1026e-07
-1.88484e-06
-6.99451e-07
-1.88606e-06
-6.01187e-07
-1.8841e-06
-5.14077e-07
-1.88027e-06
-4.36716e-07
-1.87551e-06
-3.67747e-07
-1.87051e-06
-3.059e-07
-1.86574e-06
-2.49999e-07
-1.86153e-06
-1.98959e-07
-1.85811e-06
-1.51783e-07
-1.85565e-06
-1.07544e-07
-1.85423e-06
-6.53708e-08
-1.85391e-06
-2.44339e-08
-1.85473e-06
1.60727e-08
-1.85667e-06
5.69477e-08
-1.85971e-06
9.89993e-08
-1.86376e-06
1.43062e-07
-1.8687e-06
1.90016e-07
-1.87433e-06
2.40799e-07
-1.88035e-06
2.9643e-07
-1.88632e-06
3.58018e-07
-1.8916e-06
4.26776e-07
-1.89527e-06
5.04028e-07
-1.89607e-06
5.91196e-07
-1.89221e-06
6.89781e-07
-1.88125e-06
8.0129e-07
-1.85993e-06
9.27128e-07
-1.82391e-06
1.06837e-06
-1.76766e-06
1.22537e-06
-1.68434e-06
1.39707e-06
-1.56616e-06
1.57973e-06
-1.40522e-06
1.76459e-06
-1.1957e-06
1.93397e-06
-9.3787e-07
2.05534e-06
-6.44332e-07
2.07413e-06
-3.47729e-07
1.90904e-06
-1.06499e-07
1.45783e-06
6.2614e-07
-8.41809e-08
-5.34619e-07
-2.77077e-07
-1.24623e-06
-5.2011e-07
-1.64094e-06
-7.69185e-07
-1.79889e-06
-9.97836e-07
-1.80353e-06
-1.19376e-06
-1.72025e-06
-1.35394e-06
-1.59277e-06
-1.48048e-06
-1.44739e-06
-1.57779e-06
-1.2989e-06
-1.65092e-06
-1.15522e-06
-1.70475e-06
-1.02035e-06
-1.74352e-06
-8.96093e-07
-1.77081e-06
-7.82968e-07
-1.7895e-06
-6.8076e-07
-1.80187e-06
-5.88822e-07
-1.80967e-06
-5.06272e-07
-1.81427e-06
-4.3212e-07
-1.81668e-06
-3.65338e-07
-1.81766e-06
-3.04914e-07
-1.8178e-06
-2.49867e-07
-1.81749e-06
-1.99267e-07
-1.81704e-06
-1.52232e-07
-1.81666e-06
-1.07923e-07
-1.81649e-06
-6.5541e-08
-1.81661e-06
-2.43121e-08
-1.81706e-06
1.65199e-08
-1.81782e-06
5.77067e-08
-1.81883e-06
1.00007e-07
-1.81996e-06
1.44201e-07
-1.82105e-06
1.91097e-07
-1.82179e-06
2.41548e-07
-1.82182e-06
2.96455e-07
-1.82058e-06
3.56778e-07
-1.81733e-06
4.23531e-07
-1.81108e-06
4.97775e-07
-1.80048e-06
5.80598e-07
-1.78377e-06
6.73068e-07
-1.75864e-06
7.76161e-07
-1.72214e-06
8.90632e-07
-1.67059e-06
1.01682e-06
-1.59952e-06
1.15429e-06
-1.50378e-06
1.30133e-06
-1.37793e-06
1.45388e-06
-1.21714e-06
1.6038e-06
-1.01896e-06
1.73579e-06
-7.86319e-07
1.8227e-06
-5.31908e-07
1.81972e-06
-2.83218e-07
1.66035e-06
-8.58883e-08
1.2605e-06
5.40251e-07
-7.03376e-08
-4.64281e-07
-2.32772e-07
-1.08379e-06
-4.40835e-07
-1.43288e-06
-6.59122e-07
-1.5806e-06
-8.65417e-07
-1.59723e-06
-1.04831e-06
-1.53736e-06
-1.20373e-06
-1.43735e-06
-1.33193e-06
-1.31919e-06
-1.4354e-06
-1.19544e-06
-1.51748e-06
-1.07314e-06
-1.58171e-06
-9.56119e-07
-1.63139e-06
-8.46411e-07
-1.66943e-06
-7.44932e-07
-1.69828e-06
-6.51908e-07
-1.71998e-06
-5.67125e-07
-1.73616e-06
-4.90091e-07
-1.74813e-06
-4.20151e-07
-1.75691e-06
-3.56558e-07
-1.76329e-06
-2.98528e-07
-1.7679e-06
-2.45266e-07
-1.77117e-06
-1.9599e-07
-1.77347e-06
-1.49936e-07
-1.77503e-06
-1.06363e-07
-1.77602e-06
-6.45492e-08
-1.77654e-06
-2.37899e-08
-1.77663e-06
1.66102e-08
-1.77627e-06
5.73441e-08
-1.77537e-06
9.91101e-08
-1.77379e-06
1.4262e-07
-1.7713e-06
1.88603e-07
-1.76757e-06
2.37817e-07
-1.76216e-06
2.91044e-07
-1.75447e-06
3.49093e-07
-1.74373e-06
4.12791e-07
-1.72892e-06
4.82963e-07
-1.70873e-06
5.60408e-07
-1.68151e-06
6.45844e-07
-1.64518e-06
7.39831e-07
-1.5972e-06
8.4266e-07
-1.53457e-06
9.54177e-07
-1.45379e-06
1.07352e-06
-1.35113e-06
1.19867e-06
-1.22295e-06
1.3257e-06
-1.06653e-06
1.44737e-06
-8.8143e-07
1.55069e-06
-6.71771e-07
1.61305e-06
-4.49341e-07
1.59729e-06
-2.3712e-07
1.44813e-06
-7.15379e-08
1.09492e-06
4.68713e-07
-6.02803e-08
-4.04001e-07
-2.001e-07
-9.43973e-07
-3.81275e-07
-1.2517e-06
-5.74679e-07
-1.3872e-06
-7.61557e-07
-1.41035e-06
-9.31652e-07
-1.36726e-06
-1.08058e-06
-1.28842e-06
-1.20754e-06
-1.19222e-06
-1.31373e-06
-1.08926e-06
-1.40127e-06
-9.85597e-07
-1.47264e-06
-8.84742e-07
-1.53034e-06
-7.88716e-07
-1.57665e-06
-6.9862e-07
-1.61362e-06
-6.14942e-07
-1.64298e-06
-5.3776e-07
-1.66621e-06
-4.66864e-07
-1.6845e-06
-4.01857e-07
-1.69884e-06
-3.42223e-07
-1.71e-06
-2.87371e-07
-1.71859e-06
-2.36672e-07
-1.7251e-06
-1.89481e-07
-1.72989e-06
-1.45151e-07
-1.73321e-06
-1.03035e-07
-1.73526e-06
-6.2498e-08
-1.73615e-06
-2.29071e-08
-1.7359e-06
1.63647e-08
-1.7345e-06
5.5944e-08
-1.73185e-06
9.64612e-08
-1.72779e-06
1.38554e-07
-1.72205e-06
1.82869e-07
-1.7143e-06
2.30064e-07
-1.70406e-06
2.80807e-07
-1.69073e-06
3.35765e-07
-1.67354e-06
3.95595e-07
-1.6515e-06
4.60923e-07
-1.6234e-06
5.32308e-07
-1.58775e-06
6.10194e-07
-1.54276e-06
6.9484e-07
-1.48632e-06
7.86219e-07
-1.41602e-06
8.83884e-07
-1.32926e-06
9.86756e-07
-1.22338e-06
1.09279e-06
-1.09608e-06
1.19839e-06
-9.46003e-07
1.2973e-06
-7.73892e-07
1.37858e-06
-5.84227e-07
1.42338e-06
-3.87589e-07
1.40066e-06
-2.03295e-07
1.26384e-06
-6.11648e-08
9.52788e-07
4.07549e-07
-5.27533e-08
-3.51248e-07
-1.75442e-07
-8.21284e-07
-3.35739e-07
-1.09141e-06
-5.09091e-07
-1.21385e-06
-6.79476e-07
-1.23997e-06
-8.37779e-07
-1.20896e-06
-9.79666e-07
-1.14654e-06
-1.10378e-06
-1.06811e-06
-1.21048e-06
-9.82562e-07
-1.30103e-06
-8.95048e-07
-1.37711e-06
-8.08657e-07
-1.44055e-06
-7.25279e-07
-1.49311e-06
-6.46055e-07
-1.53644e-06
-5.7161e-07
-1.57201e-06
-5.02198e-07
-1.60106e-06
-4.37806e-07
-1.62469e-06
-3.78228e-07
-1.64379e-06
-3.23126e-07
-1.65909e-06
-2.7207e-07
-1.67119e-06
-2.24572e-07
-1.68056e-06
-1.80112e-07
-1.68756e-06
-1.38147e-07
-1.69247e-06
-9.81276e-08
-1.69547e-06
-5.94987e-08
-1.69667e-06
-2.17048e-08
-1.69612e-06
1.58102e-08
-1.69378e-06
5.36032e-08
-1.68955e-06
9.22331e-08
-1.68326e-06
1.32261e-07
-1.67464e-06
1.74251e-07
-1.66334e-06
2.18765e-07
-1.64889e-06
2.66362e-07
-1.63071e-06
3.17582e-07
-1.60805e-06
3.72937e-07
-1.58002e-06
4.32885e-07
-1.54551e-06
4.97798e-07
-1.50323e-06
5.67915e-07
-1.45167e-06
6.43285e-07
-1.38914e-06
7.23684e-07
-1.31376e-06
8.08509e-07
-1.22362e-06
8.9662e-07
-1.11692e-06
9.86091e-07
-9.92273e-07
1.07374e-06
-8.49233e-07
1.15426e-06
-6.89148e-07
1.2185e-06
-5.16463e-07
1.2507e-06
-3.40558e-07
1.22475e-06
-1.77869e-07
1.10115e-06
-5.34307e-08
8.28349e-07
3.54118e-07
-4.69915e-08
-3.04256e-07
-1.56481e-07
-7.11795e-07
-3.00402e-07
-9.47484e-07
-4.57586e-07
-1.05666e-06
-6.14133e-07
-1.08342e-06
-7.61949e-07
-1.06114e-06
-8.96918e-07
-1.01157e-06
-1.01741e-06
-9.47613e-07
-1.12328e-06
-8.767e-07
-1.21517e-06
-8.03157e-07
-1.29419e-06
-7.29638e-07
-1.36162e-06
-6.57841e-07
-1.41882e-06
-5.8886e-07
-1.46706e-06
-5.23365e-07
-1.50755e-06
-4.61708e-07
-1.54136e-06
-4.03999e-07
-1.56942e-06
-3.50169e-07
-1.59253e-06
-3.00013e-07
-1.61138e-06
-2.53228e-07
-1.6265e-06
-2.09446e-07
-1.63836e-06
-1.68252e-07
-1.64731e-06
-1.29201e-07
-1.6536e-06
-9.18302e-08
-1.65744e-06
-5.56649e-08
-1.65892e-06
-2.0224e-08
-1.65809e-06
1.4977e-08
-1.65491e-06
5.04247e-08
-1.64928e-06
8.66064e-08
-1.64103e-06
1.24008e-07
-1.62989e-06
1.63113e-07
-1.61552e-06
2.04393e-07
-1.59747e-06
2.48309e-07
-1.57517e-06
2.95292e-07
-1.54797e-06
3.4573e-07
-1.51503e-06
3.99947e-07
-1.47541e-06
4.58174e-07
-1.428e-06
5.20505e-07
-1.37156e-06
5.86852e-07
-1.30476e-06
6.56881e-07
-1.22618e-06
7.2993e-07
-1.13446e-06
8.04895e-07
-1.0284e-06
8.80038e-07
-9.07285e-07
9.52628e-07
-7.71222e-07
1.0182e-06
-6.21854e-07
1.06913e-06
-4.63403e-07
1.09224e-06
-3.04177e-07
1.06553e-06
-1.58379e-07
9.55351e-07
-4.75267e-08
7.17497e-07
3.06591e-07
-4.2511e-08
-2.61745e-07
-1.41697e-07
-6.12609e-07
-2.72673e-07
-8.16508e-07
-4.16801e-07
-9.12536e-07
-5.61833e-07
-9.3839e-07
-7.00535e-07
-9.22443e-07
-8.29068e-07
-8.83034e-07
-9.45705e-07
-8.30977e-07
-1.04997e-06
-7.72435e-07
-1.14212e-06
-7.11011e-07
-1.22281e-06
-6.48942e-07
-1.29294e-06
-5.87708e-07
-1.3535e-06
-5.28305e-07
-1.40547e-06
-4.7139e-07
-1.44983e-06
-4.17354e-07
-1.48745e-06
-3.66379e-07
-1.51913e-06
-3.18484e-07
-1.54559e-06
-2.73561e-07
-1.56741e-06
-2.31406e-07
-1.58511e-06
-1.91747e-07
-1.5991e-06
-1.54259e-07
-1.60972e-06
-1.18581e-07
-1.61722e-06
-8.43308e-08
-1.62178e-06
-5.11084e-08
-1.6235e-06
-1.85043e-08
-1.62242e-06
1.38969e-08
-1.6185e-06
4.65131e-08
-1.61166e-06
7.9762e-08
-1.60171e-06
1.14057e-07
-1.5884e-06
1.49806e-07
-1.57141e-06
1.874e-07
-1.55031e-06
2.27212e-07
-1.5246e-06
2.69578e-07
-1.49366e-06
3.14789e-07
-1.45677e-06
3.63065e-07
-1.41313e-06
4.14532e-07
-1.36182e-06
4.69188e-07
-1.30183e-06
5.26866e-07
-1.23213e-06
5.87183e-07
-1.15169e-06
6.49483e-07
-1.05954e-06
7.12752e-07
-9.54979e-07
7.75475e-07
-8.37697e-07
8.35346e-07
-7.08154e-07
8.88654e-07
-5.68106e-07
9.29083e-07
-4.21487e-07
9.45625e-07
-2.75699e-07
9.19737e-07
-1.43219e-07
8.22872e-07
-4.29445e-08
6.17222e-07
2.63647e-07
-3.89934e-08
-2.22752e-07
-1.30072e-07
-5.2153e-07
-2.50764e-07
-6.95816e-07
-3.84352e-07
-7.78947e-07
-5.19869e-07
-8.02873e-07
-6.50787e-07
-7.91525e-07
-7.73548e-07
-7.60274e-07
-8.86412e-07
-7.18113e-07
-9.88719e-07
-6.70128e-07
-1.08045e-06
-6.19282e-07
-1.16196e-06
-5.67434e-07
-1.23383e-06
-5.15836e-07
-1.29677e-06
-4.65366e-07
-1.35153e-06
-4.16629e-07
-1.39887e-06
-3.70015e-07
-1.43951e-06
-3.25738e-07
-1.47412e-06
-2.83872e-07
-1.50331e-06
-2.44374e-07
-1.5276e-06
-2.07115e-07
-1.54745e-06
-1.71895e-07
-1.56324e-06
-1.38466e-07
-1.57528e-06
-1.06542e-07
-1.58381e-06
-7.58086e-08
-1.58898e-06
-4.59366e-08
-1.5909e-06
-1.65829e-08
-1.5896e-06
1.26021e-08
-1.58506e-06
4.19709e-08
-1.57717e-06
7.18749e-08
-1.56578e-06
1.02661e-07
-1.55064e-06
1.34665e-07
-1.53144e-06
1.68207e-07
-1.50781e-06
2.03583e-07
-1.47929e-06
2.41054e-07
-1.44533e-06
2.80829e-07
-1.40532e-06
3.23053e-07
-1.35856e-06
3.67778e-07
-1.30432e-06
4.14945e-07
-1.2418e-06
4.64348e-07
-1.17022e-06
5.15598e-07
-1.08882e-06
5.68087e-07
-9.9699e-07
6.20921e-07
-8.94326e-07
6.72811e-07
-7.80826e-07
7.21845e-07
-6.57146e-07
7.64974e-07
-5.25058e-07
7.96995e-07
-3.88204e-07
8.08771e-07
-2.53242e-07
7.84776e-07
-1.3132e-07
7.0095e-07
-3.93521e-08
5.25254e-07
2.24295e-07
-3.62221e-08
-1.8653e-07
-1.20903e-07
-4.36849e-07
-2.33423e-07
-5.83296e-07
-3.58532e-07
-6.53837e-07
-4.86254e-07
-6.75152e-07
-6.10632e-07
-6.67147e-07
-7.2836e-07
-6.42545e-07
-8.37736e-07
-6.08736e-07
-9.37997e-07
-5.69868e-07
-1.02894e-06
-5.28343e-07
-1.11069e-06
-4.85676e-07
-1.18362e-06
-4.42905e-07
-1.24821e-06
-4.00776e-07
-1.30502e-06
-3.59821e-07
-1.35463e-06
-3.20404e-07
-1.39763e-06
-2.82741e-07
-1.43457e-06
-2.46934e-07
-1.46596e-06
-2.12983e-07
-1.49227e-06
-1.80808e-07
-1.51389e-06
-1.50271e-07
-1.53117e-06
-1.21183e-07
-1.5444e-06
-9.33194e-08
-1.55377e-06
-6.64315e-08
-1.55946e-06
-4.025e-08
-1.56155e-06
-1.44942e-08
-1.56007e-06
1.11241e-08
-1.55499e-06
3.68959e-08
-1.54623e-06
6.31112e-08
-1.53362e-06
9.00538e-08
-1.51696e-06
1.17997e-07
-1.49595e-06
1.47197e-07
-1.47025e-06
1.77885e-07
-1.43945e-06
2.10258e-07
-1.40309e-06
2.44464e-07
-1.36063e-06
2.80592e-07
-1.3115e-06
3.1865e-07
-1.2551e-06
3.58546e-07
-1.19082e-06
4.00066e-07
-1.11807e-06
4.42847e-07
-1.03633e-06
4.8635e-07
-9.4522e-07
5.29812e-07
-8.44577e-07
5.72168e-07
-7.34589e-07
6.11858e-07
-6.16027e-07
6.46412e-07
-4.90626e-07
6.71594e-07
-3.61761e-07
6.79906e-07
-2.35496e-07
6.58511e-07
-1.21949e-07
5.87403e-07
-3.6525e-08
4.3983e-07
1.8777e-07
-3.40463e-08
-1.52484e-07
-1.13699e-07
-3.57197e-07
-2.19761e-07
-4.77234e-07
-3.38106e-07
-5.35492e-07
-4.59521e-07
-5.53737e-07
-5.78501e-07
-5.48166e-07
-6.91961e-07
-5.29085e-07
-7.98251e-07
-5.02447e-07
-8.96553e-07
-4.71565e-07
-9.86543e-07
-4.38353e-07
-1.06821e-06
-4.04013e-07
-1.14173e-06
-3.69384e-07
-1.20743e-06
-3.35076e-07
-1.26571e-06
-3.01539e-07
-1.31702e-06
-2.69092e-07
-1.36183e-06
-2.37936e-07
-1.40058e-06
-2.08179e-07
-1.43372e-06
-1.79843e-07
-1.46164e-06
-1.52888e-07
-1.4847e-06
-1.27215e-07
-1.50319e-06
-1.02686e-07
-1.51738e-06
-7.91312e-08
-1.52746e-06
-5.63538e-08
-1.53357e-06
-3.41413e-08
-1.53579e-06
-1.22694e-08
-1.53416e-06
9.49315e-09
-1.52865e-06
3.13806e-08
-1.51916e-06
5.36255e-08
-1.50556e-06
7.64548e-08
-1.48765e-06
1.00085e-07
-1.46517e-06
1.24716e-07
-1.43781e-06
1.50525e-07
-1.40521e-06
1.77657e-07
-1.36696e-06
2.06215e-07
-1.32262e-06
2.36249e-07
-1.27171e-06
2.6774e-07
-1.21375e-06
3.00588e-07
-1.14827e-06
3.34589e-07
-1.07485e-06
3.69427e-07
-9.93145e-07
4.04643e-07
-9.02944e-07
4.39612e-07
-8.0425e-07
4.73473e-07
-6.9738e-07
5.04988e-07
-5.83161e-07
5.32193e-07
-4.63275e-07
5.51708e-07
-3.40868e-07
5.575e-07
-2.21533e-07
5.39175e-07
-1.14594e-07
4.80465e-07
-3.43072e-08
3.59543e-07
1.53463e-07
-3.23594e-08
-1.20124e-07
-1.0811e-07
-2.81446e-07
-2.0914e-07
-3.76204e-07
-3.22177e-07
-4.22456e-07
-4.38587e-07
-4.37327e-07
-5.5322e-07
-4.33533e-07
-6.63168e-07
-4.19137e-07
-7.66839e-07
-3.98776e-07
-8.63391e-07
-3.75014e-07
-9.52422e-07
-3.49322e-07
-1.03381e-06
-3.22627e-07
-1.10762e-06
-2.95577e-07
-1.17404e-06
-2.68654e-07
-1.23336e-06
-2.42219e-07
-1.28592e-06
-2.16533e-07
-1.33208e-06
-1.91772e-07
-1.37223e-06
-1.68033e-07
-1.40672e-06
-1.4535e-07
-1.4359e-06
-1.23704e-07
-1.46009e-06
-1.0303e-07
-1.47955e-06
-8.32289e-08
-1.4945e-06
-6.41737e-08
-1.50514e-06
-4.57168e-08
-1.51159e-06
-2.76954e-08
-1.51392e-06
-9.93676e-09
-1.51216e-06
7.7381e-09
-1.50629e-06
2.55106e-08
-1.49623e-06
4.35607e-08
-1.48184e-06
6.20631e-08
-1.46294e-06
8.11834e-08
-1.43929e-06
1.01073e-07
-1.41063e-06
1.21862e-07
-1.37663e-06
1.43656e-07
-1.33694e-06
1.66523e-07
-1.29118e-06
1.90488e-07
-1.23896e-06
2.15521e-07
-1.17989e-06
2.41526e-07
-1.11363e-06
2.68328e-07
-1.03987e-06
2.95666e-07
-9.58397e-07
3.23169e-07
-8.69132e-07
3.50346e-07
-7.72189e-07
3.7653e-07
-6.67968e-07
4.00767e-07
-5.57324e-07
4.21549e-07
-4.41878e-07
4.36262e-07
-3.24591e-07
4.40213e-07
-2.10688e-07
4.25272e-07
-1.08893e-07
3.7867e-07
-3.25886e-08
2.83238e-07
1.20874e-07
-3.10855e-08
-8.90387e-08
-1.03888e-07
-2.08644e-07
-2.01104e-07
-2.78987e-07
-3.10093e-07
-3.13466e-07
-4.22658e-07
-3.24763e-07
-5.33912e-07
-3.22278e-07
-6.41087e-07
-3.11962e-07
-7.42643e-07
-2.9722e-07
-8.37728e-07
-2.79929e-07
-9.25893e-07
-2.61157e-07
-1.00694e-06
-2.41579e-07
-1.08085e-06
-2.21668e-07
-1.14772e-06
-2.0178e-07
-1.20776e-06
-1.82186e-07
-1.2612e-06
-1.63085e-07
-1.30836e-06
-1.44615e-07
-1.34954e-06
-1.26856e-07
-1.38505e-06
-1.09841e-07
-1.41519e-06
-9.35652e-08
-1.44023e-06
-7.79859e-08
-1.46042e-06
-6.30356e-08
-1.47597e-06
-4.86252e-08
-1.48704e-06
-3.4649e-08
-1.49374e-06
-2.09897e-08
-1.49616e-06
-7.52143e-09
-1.49431e-06
5.88615e-09
-1.48816e-06
1.93656e-08
-1.47765e-06
3.3048e-08
-1.46265e-06
4.70605e-08
-1.44299e-06
6.15226e-08
-1.41846e-06
7.65423e-08
-1.38881e-06
9.22118e-08
-1.35375e-06
1.08602e-07
-1.31299e-06
1.25758e-07
-1.26619e-06
1.43689e-07
-1.21303e-06
1.62364e-07
-1.15321e-06
1.81704e-07
-1.08645e-06
2.01571e-07
-1.01255e-06
2.21764e-07
-9.3139e-07
2.42006e-07
-8.42976e-07
2.61933e-07
-7.47504e-07
2.81058e-07
-6.45426e-07
2.98689e-07
-5.37605e-07
3.13728e-07
-4.2561e-07
3.24267e-07
-3.12254e-07
3.26857e-07
-2.02488e-07
3.15505e-07
-1.04589e-07
2.80772e-07
-3.12914e-08
2.09941e-07
8.95826e-08
-3.01711e-08
-5.88676e-08
-1.00856e-07
-1.37959e-07
-1.95328e-07
-1.84516e-07
-3.01393e-07
-2.07401e-07
-4.11162e-07
-2.14994e-07
-5.19939e-07
-2.13501e-07
-6.25058e-07
-2.06844e-07
-7.25019e-07
-1.97259e-07
-8.18971e-07
-1.85976e-07
-9.06434e-07
-1.73693e-07
-9.87164e-07
-1.60849e-07
-1.06108e-06
-1.47753e-07
-1.12822e-06
-1.34639e-07
-1.18872e-06
-1.21687e-07
-1.24277e-06
-1.09032e-07
-1.29062e-06
-9.67684e-08
-1.33252e-06
-8.49526e-08
-1.36875e-06
-7.3611e-08
-1.39957e-06
-6.27423e-08
-1.42524e-06
-5.23227e-08
-1.44596e-06
-4.23102e-08
-1.46194e-06
-3.26481e-08
-1.47332e-06
-2.32685e-08
-1.48022e-06
-1.40952e-08
-1.48269e-06
-5.04647e-09
-1.48077e-06
3.96296e-09
-1.47442e-06
1.30196e-08
-1.46358e-06
2.2209e-08
-1.44814e-06
3.16139e-08
-1.42792e-06
4.13118e-08
-1.40275e-06
5.13721e-08
-1.3724e-06
6.18535e-08
-1.33659e-06
7.27999e-08
-1.29507e-06
8.42373e-08
-1.24755e-06
9.61688e-08
-1.19376e-06
1.0857e-07
-1.13344e-06
1.21383e-07
-1.06638e-06
1.34516e-07
-9.92448e-07
1.4783e-07
-9.11584e-07
1.61143e-07
-8.23865e-07
1.74214e-07
-7.29533e-07
1.86726e-07
-6.2907e-07
1.98226e-07
-5.23342e-07
2.08001e-07
-4.13875e-07
2.148e-07
-3.03376e-07
2.16358e-07
-1.96597e-07
2.08726e-07
-1.015e-07
1.85674e-07
-3.03607e-08
1.38801e-07
5.92219e-08
-2.958e-08
-2.92876e-08
-9.88959e-08
-6.86434e-08
-1.9159e-07
-9.18214e-08
-2.95758e-07
-1.03233e-07
-4.03704e-07
-1.07048e-07
-5.10857e-07
-1.06349e-07
-6.14616e-07
-1.03084e-07
-7.13512e-07
-9.83632e-08
-8.06695e-07
-9.2794e-08
-8.93667e-07
-8.67208e-08
-9.74156e-07
-8.03601e-08
-1.04804e-06
-7.38649e-08
-1.11533e-06
-6.73512e-08
-1.17611e-06
-6.09089e-08
-1.23054e-06
-5.46055e-08
-1.27882e-06
-4.84888e-08
-1.32118e-06
-4.25884e-08
-1.35787e-06
-3.69183e-08
-1.38914e-06
-3.1479e-08
-1.4152e-06
-2.62596e-08
-1.43627e-06
-2.124e-08
-1.45253e-06
-1.63927e-08
-1.46411e-06
-1.16844e-08
-1.47113e-06
-7.07786e-09
-1.47364e-06
-2.53278e-09
-1.47167e-06
1.99305e-09
-1.46519e-06
6.54234e-09
-1.45414e-06