/*--------------------------------*- C++ -*----------------------------------*\
  =========                 |
  \\      /  F ield         | OpenFOAM: The Open Source CFD Toolbox
   \\    /   O peration     | Website:  https://openfoam.org
    \\  /    A nd           | Version:  7
     \\/     M anipulation  |
\*---------------------------------------------------------------------------*/
FoamFile
{
    version     2.0;
    format      ascii;
    class       volScalarField;
    location    "0.0718";
    object      p;
}
// * * * * * * * * * * * * * * * * * * * * * * * * * * * * * * * * * * * * * //

dimensions      [0 2 -2 0 0 0 0];

internalField   nonuniform List<scalar> 
2500
(
1.06717e-05
-6.51219
-9.29779
-10.4942
-11.1603
-11.5673
-11.8317
-12.0171
-12.1555
-12.2632
-12.3495
-12.4201
-12.4787
-12.5279
-12.5695
-12.6047
-12.6347
-12.6602
-12.6818
-12.7001
-12.7156
-12.7286
-12.7395
-12.7486
-12.7562
-12.7628
-12.7685
-12.7738
-12.779
-12.7845
-12.7907
-12.798
-12.807
-12.8183
-12.8326
-12.8506
-12.8735
-12.9024
-12.9393
-12.9863
-13.0469
-13.1265
-13.2336
-13.3838
-13.6079
-13.9669
-14.5676
-15.669
-18.3365
-24.7212
-4.95526
-7.67548
-9.18262
-10.1432
-10.8116
-11.2723
-11.5946
-11.8286
-12.0047
-12.1411
-12.2494
-12.3372
-12.4095
-12.4698
-12.5205
-12.5635
-12.6002
-12.6316
-12.6585
-12.6817
-12.7016
-12.7188
-12.7337
-12.7467
-12.7582
-12.7686
-12.7783
-12.7876
-12.797
-12.8068
-12.8177
-12.8301
-12.8446
-12.8621
-12.8834
-12.9095
-12.9419
-12.9823
-13.0331
-13.0978
-13.181
-13.29
-13.4359
-13.6359
-13.9193
-14.3337
-14.9443
-15.833
-17.2533
-19.8523
-7.92428
-8.75709
-9.55848
-10.2399
-10.7807
-11.1914
-11.5017
-11.7391
-11.9239
-12.0702
-12.1879
-12.2842
-12.364
-12.4308
-12.4873
-12.5354
-12.5766
-12.612
-12.6427
-12.6693
-12.6925
-12.7128
-12.7307
-12.7466
-12.761
-12.7743
-12.7868
-12.7991
-12.8115
-12.8246
-12.8388
-12.8548
-12.8733
-12.895
-12.921
-12.9524
-12.9907
-13.038
-13.0967
-13.1703
-13.2636
-13.3834
-13.5392
-13.7446
-14.019
-14.3886
-14.8816
-15.5101
-16.2559
-17.0192
-9.43322
-9.6471
-10.0666
-10.5121
-10.9056
-11.2333
-11.5005
-11.7169
-11.8926
-12.0361
-12.1544
-12.2528
-12.3354
-12.4053
-12.465
-12.5161
-12.5603
-12.5985
-12.6319
-12.661
-12.6867
-12.7094
-12.7296
-12.7478
-12.7645
-12.78
-12.7949
-12.8094
-12.8242
-12.8397
-12.8565
-12.8751
-12.8964
-12.921
-12.9501
-12.9848
-13.0266
-13.0774
-13.1394
-13.2159
-13.3107
-13.4291
-13.5777
-13.7649
-14.0004
-14.2934
-14.6495
-15.0559
-15.4384
-15.6162
-10.3182
-10.3183
-10.5228
-10.8001
-11.0754
-11.326
-11.5453
-11.7329
-11.8918
-12.026
-12.1396
-12.2361
-12.3185
-12.3892
-12.4501
-12.5029
-12.5489
-12.5891
-12.6244
-12.6555
-12.683
-12.7076
-12.7297
-12.7499
-12.7684
-12.7858
-12.8026
-12.819
-12.8358
-12.8532
-12.8719
-12.8926
-12.9159
-12.9426
-12.9737
-13.0103
-13.0538
-13.1058
-13.1683
-13.2437
-13.3351
-13.4459
-13.5801
-13.7416
-13.9336
-14.1558
-14.4021
-14.6515
-14.8316
-14.8133
-10.8843
-10.8109
-10.9003
-11.0684
-11.2568
-11.4437
-11.6183
-11.7755
-11.9143
-12.0356
-12.1411
-12.2328
-12.3125
-12.3819
-12.4425
-12.4957
-12.5424
-12.5835
-12.62
-12.6524
-12.6813
-12.7073
-12.7309
-12.7525
-12.7725
-12.7914
-12.8096
-12.8275
-12.8457
-12.8646
-12.8847
-12.9068
-12.9313
-12.9592
-12.9913
-13.0285
-13.0721
-13.1235
-13.1841
-13.2557
-13.3404
-13.44
-13.5566
-13.691
-13.8424
-14.0063
-14.1727
-14.3209
-14.3948
-14.3134
-11.266
-11.176
-11.2069
-11.3066
-11.4336
-11.5705
-11.7066
-11.8353
-11.9536
-12.0604
-12.1559
-12.2407
-12.3159
-12.3825
-12.4415
-12.4938
-12.5402
-12.5816
-12.6185
-12.6515
-12.6813
-12.7082
-12.7327
-12.7553
-12.7763
-12.7963
-12.8155
-12.8345
-12.8537
-12.8735
-12.8945
-12.9173
-12.9425
-12.9707
-13.0028
-13.0396
-13.0821
-13.1313
-13.1883
-13.2543
-13.3305
-13.4176
-13.516
-13.625
-13.7417
-13.8602
-13.9705
-14.0561
-14.0777
-13.9855
-11.5388
-11.4527
-11.4546
-11.512
-11.5966
-11.6958
-11.8005
-11.9042
-12.0033
-12.0955
-12.1803
-12.2573
-12.3269
-12.3896
-12.4459
-12.4964
-12.5418
-12.5826
-12.6193
-12.6524
-12.6825
-12.7098
-12.7349
-12.7581
-12.7798
-12.8004
-12.8202
-12.8398
-12.8596
-12.8799
-12.9013
-12.9243
-12.9495
-12.9775
-13.0088
-13.0444
-13.0848
-13.1308
-13.1833
-13.2428
-13.3098
-13.3844
-13.4659
-13.5527
-13.6414
-13.726
-13.7981
-13.8457
-13.8423
-13.7573
-11.7444
-11.6677
-11.6556
-11.6869
-11.7427
-11.814
-11.8939
-11.9767
-12.0586
-12.1372
-12.2114
-12.2802
-12.3437
-12.4017
-12.4546
-12.5027
-12.5464
-12.586
-12.622
-12.6547
-12.6846
-12.7119
-12.7371
-12.7605
-12.7825
-12.8034
-12.8236
-12.8434
-12.8634
-12.8838
-12.9052
-12.9279
-12.9526
-12.9798
-13.0099
-13.0435
-13.0813
-13.1237
-13.1711
-13.2238
-13.2818
-13.3447
-13.4114
-13.4799
-13.5466
-13.6066
-13.6531
-13.6778
-13.6631
-13.5897
-11.9058
-11.839
-11.8203
-11.8357
-11.8718
-11.9229
-11.9835
-12.049
-12.1162
-12.1826
-12.2467
-12.3076
-12.3647
-12.4177
-12.4668
-12.512
-12.5534
-12.5914
-12.6262
-12.6581
-12.6874
-12.7143
-12.7393
-12.7626
-12.7844
-12.8053
-12.8254
-12.8452
-12.865
-12.8852
-12.9062
-12.9284
-12.9522
-12.9781
-13.0066
-13.038
-13.0728
-13.1112
-13.1535
-13.1996
-13.2493
-13.3018
-13.3559
-13.4095
-13.4595
-13.5017
-13.5312
-13.5423
-13.5232
-13.461
-12.0363
-11.9783
-11.9571
-11.9626
-11.9854
-12.0217
-12.0675
-12.1191
-12.1739
-12.2295
-12.2845
-12.3377
-12.3886
-12.4366
-12.4816
-12.5235
-12.5624
-12.5983
-12.6316
-12.6622
-12.6906
-12.7168
-12.7412
-12.764
-12.7855
-12.806
-12.8258
-12.8452
-12.8646
-12.8843
-12.9046
-12.9259
-12.9486
-12.973
-12.9996
-13.0285
-13.0602
-13.0946
-13.132
-13.172
-13.2142
-13.2578
-13.3014
-13.3432
-13.3806
-13.4102
-13.4284
-13.4315
-13.4114
-13.359
-12.1443
-12.0937
-12.072
-12.0715
-12.0853
-12.1108
-12.1452
-12.1858
-12.2302
-12.2765
-12.3233
-12.3694
-12.4143
-12.4573
-12.4981
-12.5366
-12.5727
-12.6064
-12.6377
-12.6669
-12.694
-12.7192
-12.7427
-12.7648
-12.7857
-12.8056
-12.8248
-12.8436
-12.8623
-12.8812
-12.9006
-12.9209
-12.9422
-12.965
-12.9895
-13.0159
-13.0445
-13.0751
-13.1078
-13.1423
-13.1779
-13.2139
-13.2491
-13.2817
-13.3096
-13.3302
-13.341
-13.3396
-13.3201
-13.276
-12.2353
-12.191
-12.1698
-12.1656
-12.1732
-12.1908
-12.2166
-12.2484
-12.2842
-12.3225
-12.3621
-12.4019
-12.4411
-12.4793
-12.516
-12.551
-12.5841
-12.6153
-12.6445
-12.6719
-12.6975
-12.7215
-12.7439
-12.765
-12.785
-12.8041
-12.8226
-12.8406
-12.8584
-12.8764
-12.8947
-12.9137
-12.9335
-12.9546
-12.977
-13.0009
-13.0264
-13.0535
-13.082
-13.1115
-13.1415
-13.1712
-13.1995
-13.2249
-13.2458
-13.2601
-13.2661
-13.2622
-13.2441
-13.2068
-12.313
-12.274
-12.2539
-12.2475
-12.2509
-12.2628
-12.282
-12.3067
-12.3355
-12.3671
-12.4003
-12.4343
-12.4684
-12.502
-12.5346
-12.5661
-12.5962
-12.6248
-12.6518
-12.6772
-12.7012
-12.7236
-12.7448
-12.7648
-12.7837
-12.8018
-12.8192
-12.8362
-12.8531
-12.8699
-12.887
-12.9046
-12.923
-12.9422
-12.9625
-12.984
-13.0067
-13.0305
-13.0552
-13.0804
-13.1056
-13.1301
-13.1529
-13.1728
-13.1884
-13.1983
-13.2012
-13.1961
-13.1797
-13.1482
-12.3801
-12.3458
-12.327
-12.3194
-12.3199
-12.3277
-12.3418
-12.3609
-12.3839
-12.4098
-12.4375
-12.4664
-12.4957
-12.525
-12.5538
-12.5818
-12.6089
-12.6348
-12.6594
-12.6828
-12.7049
-12.7257
-12.7454
-12.764
-12.7817
-12.7987
-12.815
-12.8309
-12.8465
-12.8622
-12.878
-12.8942
-12.9109
-12.9283
-12.9466
-12.9658
-12.9858
-13.0066
-13.0279
-13.0494
-13.0706
-13.0908
-13.1092
-13.1248
-13.1366
-13.1434
-13.1443
-13.1388
-13.1243
-13.0978
-12.4387
-12.4084
-12.3911
-12.383
-12.3816
-12.3863
-12.3965
-12.4112
-12.4295
-12.4505
-12.4735
-12.4977
-12.5228
-12.548
-12.5732
-12.5979
-12.6219
-12.6451
-12.6674
-12.6886
-12.7087
-12.7278
-12.7459
-12.763
-12.7794
-12.795
-12.81
-12.8247
-12.8391
-12.8534
-12.8678
-12.8826
-12.8977
-12.9133
-12.9296
-12.9466
-12.9642
-12.9822
-13.0006
-13.0189
-13.0367
-13.0533
-13.0682
-13.0806
-13.0895
-13.0942
-13.094
-13.0886
-13.0759
-13.0536
-12.4903
-12.4636
-12.4478
-12.4397
-12.437
-12.4396
-12.4468
-12.4579
-12.4723
-12.4892
-12.508
-12.5283
-12.5494
-12.571
-12.5927
-12.6142
-12.6353
-12.6558
-12.6756
-12.6946
-12.7127
-12.7299
-12.7463
-12.7619
-12.7768
-12.791
-12.8046
-12.8179
-12.831
-12.8439
-12.8569
-12.8701
-12.8836
-12.8975
-12.9119
-12.9268
-12.9421
-12.9577
-12.9734
-12.989
-13.0039
-13.0177
-13.0298
-13.0396
-13.0464
-13.0497
-13.0489
-13.0439
-13.0331
-13.0145
-12.5361
-12.5127
-12.4984
-12.4905
-12.4872
-12.4881
-12.493
-12.5013
-12.5125
-12.526
-12.5413
-12.5579
-12.5755
-12.5937
-12.6122
-12.6307
-12.6489
-12.6668
-12.6842
-12.7009
-12.7169
-12.7323
-12.7469
-12.7608
-12.774
-12.7868
-12.799
-12.8109
-12.8225
-12.834
-12.8455
-12.8572
-12.869
-12.8812
-12.8938
-12.9067
-12.9199
-12.9333
-12.9466
-12.9597
-12.9722
-12.9836
-12.9935
-13.0014
-13.0067
-13.009
-13.008
-13.0036
-12.9946
-12.9794
-12.5772
-12.5568
-12.544
-12.5366
-12.5329
-12.5327
-12.5359
-12.5419
-12.5504
-12.561
-12.5732
-12.5866
-12.6011
-12.6162
-12.6316
-12.6472
-12.6627
-12.6781
-12.693
-12.7075
-12.7215
-12.7348
-12.7476
-12.7598
-12.7714
-12.7825
-12.7933
-12.8036
-12.8138
-12.8238
-12.8338
-12.8439
-12.8541
-12.8646
-12.8754
-12.8864
-12.8976
-12.909
-12.9202
-12.9312
-12.9416
-12.951
-12.9591
-12.9654
-12.9697
-12.9714
-12.9705
-12.9668
-12.9595
-12.9473
-12.6143
-12.5967
-12.5855
-12.5786
-12.5748
-12.5739
-12.5757
-12.58
-12.5863
-12.5943
-12.6038
-12.6145
-12.6261
-12.6383
-12.651
-12.6639
-12.6768
-12.6896
-12.7022
-12.7145
-12.7263
-12.7377
-12.7486
-12.7591
-12.769
-12.7785
-12.7876
-12.7965
-12.8051
-12.8135
-12.822
-12.8304
-12.8391
-12.8479
-12.8569
-12.8661
-12.8755
-12.8849
-12.8943
-12.9034
-12.9119
-12.9196
-12.9263
-12.9314
-12.9348
-12.9362
-12.9355
-12.9327
-12.9271
-12.9177
-12.6482
-12.6332
-12.6235
-12.6174
-12.6137
-12.6123
-12.6131
-12.6158
-12.6203
-12.6262
-12.6334
-12.6416
-12.6506
-12.6602
-12.6703
-12.6806
-12.691
-12.7015
-12.7118
-12.7219
-12.7317
-12.7411
-12.7501
-12.7587
-12.7669
-12.7748
-12.7823
-12.7895
-12.7965
-12.8034
-12.8102
-12.8171
-12.824
-12.8311
-12.8384
-12.8459
-12.8535
-12.8611
-12.8687
-12.8761
-12.883
-12.8893
-12.8946
-12.8988
-12.9017
-12.903
-12.9026
-12.9007
-12.8967
-12.89
-12.6794
-12.667
-12.6588
-12.6534
-12.65
-12.6483
-12.6483
-12.6499
-12.6528
-12.6569
-12.662
-12.668
-12.6746
-12.6818
-12.6895
-12.6974
-12.7055
-12.7137
-12.7218
-12.7297
-12.7375
-12.7449
-12.7521
-12.7589
-12.7653
-12.7715
-12.7773
-12.7829
-12.7882
-12.7935
-12.7987
-12.8039
-12.8091
-12.8145
-12.8201
-12.8258
-12.8317
-12.8376
-12.8435
-12.8492
-12.8547
-12.8597
-12.8639
-12.8674
-12.8698
-12.8711
-12.8712
-12.8701
-12.8677
-12.8635
-12.7085
-12.6985
-12.6918
-12.6873
-12.6842
-12.6824
-12.6819
-12.6825
-12.6841
-12.6866
-12.6898
-12.6938
-12.6983
-12.7033
-12.7087
-12.7144
-12.7203
-12.7262
-12.7322
-12.7381
-12.7438
-12.7493
-12.7546
-12.7596
-12.7643
-12.7687
-12.7728
-12.7767
-12.7804
-12.7839
-12.7874
-12.7909
-12.7945
-12.7981
-12.8019
-12.8059
-12.81
-12.8143
-12.8185
-12.8228
-12.8268
-12.8306
-12.8339
-12.8366
-12.8387
-12.8401
-12.8407
-12.8406
-12.8397
-12.838
-12.736
-12.7284
-12.7232
-12.7195
-12.7169
-12.7151
-12.7141
-12.7139
-12.7144
-12.7154
-12.717
-12.7191
-12.7217
-12.7246
-12.7279
-12.7315
-12.7353
-12.7391
-12.7431
-12.7469
-12.7507
-12.7543
-12.7578
-12.7609
-12.7638
-12.7665
-12.7689
-12.771
-12.773
-12.7748
-12.7766
-12.7783
-12.7801
-12.782
-12.784
-12.7862
-12.7886
-12.7911
-12.7937
-12.7964
-12.7991
-12.8017
-12.8041
-12.8063
-12.8081
-12.8096
-12.8107
-12.8115
-12.8122
-12.8128
-12.7623
-12.757
-12.7533
-12.7506
-12.7484
-12.7467
-12.7454
-12.7445
-12.7439
-12.7436
-12.7437
-12.7442
-12.7449
-12.7459
-12.7472
-12.7488
-12.7505
-12.7524
-12.7544
-12.7563
-12.7582
-12.76
-12.7615
-12.7629
-12.764
-12.7649
-12.7656
-12.766
-12.7662
-12.7662
-12.7662
-12.7661
-12.7661
-12.7661
-12.7663
-12.7666
-12.7672
-12.768
-12.769
-12.7701
-12.7715
-12.7729
-12.7744
-12.776
-12.7775
-12.7791
-12.7808
-12.7826
-12.7848
-12.7877
-12.7877
-12.7848
-12.7826
-12.7808
-12.7791
-12.7775
-12.776
-12.7744
-12.7729
-12.7715
-12.7702
-12.769
-12.768
-12.7672
-12.7666
-12.7663
-12.7661
-12.7661
-12.7661
-12.7662
-12.7662
-12.7662
-12.766
-12.7656
-12.7649
-12.764
-12.7629
-12.7615
-12.76
-12.7582
-12.7563
-12.7544
-12.7524
-12.7505
-12.7488
-12.7472
-12.7459
-12.7449
-12.7441
-12.7437
-12.7436
-12.7439
-12.7444
-12.7453
-12.7466
-12.7484
-12.7506
-12.7533
-12.7569
-12.7622
-12.8128
-12.8122
-12.8116
-12.8107
-12.8096
-12.8081
-12.8063
-12.8041
-12.8017
-12.7991
-12.7964
-12.7937
-12.7911
-12.7886
-12.7862
-12.784
-12.782
-12.7801
-12.7783
-12.7766
-12.7748
-12.773
-12.771
-12.7689
-12.7665
-12.7638
-12.7609
-12.7578
-12.7543
-12.7507
-12.7469
-12.7431
-12.7391
-12.7353
-12.7315
-12.7279
-12.7246
-12.7217
-12.7191
-12.717
-12.7154
-12.7143
-12.7139
-12.7141
-12.7151
-12.7168
-12.7195
-12.7232
-12.7283
-12.736
-12.838
-12.8397
-12.8406
-12.8407
-12.8401
-12.8387
-12.8366
-12.8339
-12.8306
-12.8268
-12.8228
-12.8185
-12.8143
-12.81
-12.8059
-12.8019
-12.7981
-12.7945
-12.7909
-12.7874
-12.7839
-12.7804
-12.7767
-12.7728
-12.7687
-12.7643
-12.7596
-12.7546
-12.7493
-12.7438
-12.7381
-12.7322
-12.7262
-12.7203
-12.7144
-12.7087
-12.7033
-12.6983
-12.6938
-12.6898
-12.6866
-12.6841
-12.6825
-12.6819
-12.6824
-12.6842
-12.6873
-12.6918
-12.6985
-12.7085
-12.8635
-12.8677
-12.8701
-12.8712
-12.8711
-12.8698
-12.8674
-12.864
-12.8597
-12.8547
-12.8493
-12.8435
-12.8376
-12.8317
-12.8258
-12.8201
-12.8145
-12.8091
-12.8039
-12.7987
-12.7935
-12.7882
-12.7829
-12.7773
-12.7715
-12.7653
-12.7589
-12.7521
-12.7449
-12.7375
-12.7297
-12.7218
-12.7137
-12.7055
-12.6974
-12.6895
-12.6818
-12.6746
-12.6679
-12.662
-12.6569
-12.6528
-12.6499
-12.6483
-12.6483
-12.6499
-12.6534
-12.6588
-12.6669
-12.6794
-12.89
-12.8967
-12.9007
-12.9026
-12.903
-12.9017
-12.8989
-12.8946
-12.8893
-12.883
-12.8761
-12.8687
-12.8611
-12.8535
-12.8459
-12.8384
-12.8311
-12.824
-12.8171
-12.8102
-12.8034
-12.7965
-12.7895
-12.7823
-12.7748
-12.7669
-12.7587
-12.7501
-12.7411
-12.7317
-12.7219
-12.7118
-12.7015
-12.691
-12.6806
-12.6702
-12.6602
-12.6506
-12.6416
-12.6334
-12.6262
-12.6203
-12.6158
-12.6131
-12.6123
-12.6136
-12.6174
-12.6235
-12.6332
-12.6482
-12.9177
-12.9271
-12.9327
-12.9355
-12.9362
-12.9348
-12.9314
-12.9263
-12.9197
-12.9119
-12.9034
-12.8943
-12.8849
-12.8755
-12.8661
-12.8569
-12.8479
-12.8391
-12.8304
-12.822
-12.8135
-12.8051
-12.7965
-12.7876
-12.7785
-12.769
-12.7591
-12.7486
-12.7377
-12.7263
-12.7145
-12.7022
-12.6896
-12.6768
-12.6638
-12.651
-12.6383
-12.6261
-12.6145
-12.6038
-12.5943
-12.5862
-12.5799
-12.5757
-12.5739
-12.5748
-12.5786
-12.5854
-12.5967
-12.6143
-12.9473
-12.9595
-12.9668
-12.9705
-12.9714
-12.9697
-12.9655
-12.9591
-12.951
-12.9416
-12.9312
-12.9202
-12.909
-12.8976
-12.8864
-12.8754
-12.8646
-12.8541
-12.8439
-12.8338
-12.8238
-12.8138
-12.8036
-12.7933
-12.7825
-12.7714
-12.7598
-12.7476
-12.7348
-12.7214
-12.7075
-12.693
-12.678
-12.6627
-12.6472
-12.6316
-12.6161
-12.6011
-12.5866
-12.5731
-12.5609
-12.5504
-12.5419
-12.5358
-12.5327
-12.5328
-12.5366
-12.544
-12.5567
-12.5772
-12.9794
-12.9946
-13.0036
-13.008
-13.009
-13.0067
-13.0014
-12.9935
-12.9836
-12.9722
-12.9597
-12.9466
-12.9333
-12.9199
-12.9067
-12.8938
-12.8812
-12.869
-12.8572
-12.8455
-12.834
-12.8225
-12.8109
-12.799
-12.7867
-12.774
-12.7608
-12.7469
-12.7322
-12.7169
-12.7009
-12.6841
-12.6668
-12.6489
-12.6306
-12.6122
-12.5937
-12.5755
-12.5579
-12.5412
-12.5259
-12.5125
-12.5013
-12.493
-12.4881
-12.4871
-12.4905
-12.4984
-12.5127
-12.5361
-13.0145
-13.0331
-13.0439
-13.0489
-13.0497
-13.0464
-13.0396
-13.0298
-13.0177
-13.0039
-12.989
-12.9734
-12.9577
-12.9421
-12.9268
-12.9119
-12.8975
-12.8836
-12.8701
-12.8569
-12.8439
-12.831
-12.8179
-12.8046
-12.791
-12.7767
-12.7619
-12.7463
-12.7299
-12.7127
-12.6946
-12.6756
-12.6558
-12.6353
-12.6142
-12.5927
-12.571
-12.5494
-12.5283
-12.508
-12.4892
-12.4722
-12.4579
-12.4467
-12.4395
-12.437
-12.4396
-12.4477
-12.4636
-12.4903
-13.0536
-13.0759
-13.0886
-13.094
-13.0942
-13.0895
-13.0806
-13.0683
-13.0533
-13.0367
-13.0189
-13.0006
-12.9822
-12.9642
-12.9466
-12.9296
-12.9133
-12.8977
-12.8826
-12.8678
-12.8534
-12.8391
-12.8247
-12.81
-12.795
-12.7794
-12.763
-12.7459
-12.7278
-12.7087
-12.6886
-12.6674
-12.6451
-12.6219
-12.5979
-12.5732
-12.548
-12.5227
-12.4977
-12.4734
-12.4505
-12.4294
-12.4112
-12.3965
-12.3863
-12.3816
-12.383
-12.391
-12.4084
-12.4387
-13.0978
-13.1243
-13.1388
-13.1443
-13.1434
-13.1366
-13.1248
-13.1092
-13.0908
-13.0706
-13.0494
-13.0279
-13.0066
-12.9858
-12.9658
-12.9466
-12.9283
-12.9109
-12.8942
-12.878
-12.8622
-12.8465
-12.8309
-12.815
-12.7987
-12.7817
-12.764
-12.7454
-12.7257
-12.7049
-12.6828
-12.6594
-12.6348
-12.6089
-12.5818
-12.5538
-12.525
-12.4957
-12.4663
-12.4375
-12.4097
-12.3839
-12.3609
-12.3417
-12.3277
-12.3199
-12.3194
-12.3269
-12.3457
-12.3801
-13.1482
-13.1797
-13.1961
-13.2012
-13.1983
-13.1884
-13.1728
-13.1529
-13.1301
-13.1056
-13.0804
-13.0552
-13.0305
-13.0067
-12.984
-12.9625
-12.9422
-12.923
-12.9046
-12.887
-12.8699
-12.8531
-12.8362
-12.8192
-12.8018
-12.7837
-12.7647
-12.7448
-12.7236
-12.7011
-12.6772
-12.6518
-12.6248
-12.5962
-12.5661
-12.5346
-12.5019
-12.4684
-12.4343
-12.4003
-12.367
-12.3355
-12.3067
-12.282
-12.2628
-12.2509
-12.2475
-12.2539
-12.274
-12.3129
-13.2068
-13.2441
-13.2622
-13.2661
-13.2601
-13.2458
-13.2249
-13.1995
-13.1712
-13.1415
-13.1115
-13.082
-13.0535
-13.0264
-13.0009
-12.977
-12.9546
-12.9335
-12.9137
-12.8947
-12.8764
-12.8584
-12.8406
-12.8226
-12.8041
-12.785
-12.765
-12.7439
-12.7215
-12.6975
-12.6719
-12.6445
-12.6153
-12.5841
-12.5509
-12.516
-12.4793
-12.4411
-12.4018
-12.3621
-12.3225
-12.2842
-12.2483
-12.2166
-12.1908
-12.1731
-12.1656
-12.1698
-12.191
-12.2353
-13.276
-13.3201
-13.3396
-13.341
-13.3302
-13.3096
-13.2817
-13.2491
-13.2139
-13.1779
-13.1423
-13.1078
-13.0751
-13.0445
-13.0159
-12.9895
-12.965
-12.9422
-12.9209
-12.9006
-12.8812
-12.8623
-12.8436
-12.8248
-12.8056
-12.7857
-12.7648
-12.7427
-12.7192
-12.694
-12.6669
-12.6377
-12.6064
-12.5727
-12.5366
-12.4981
-12.4573
-12.4143
-12.3694
-12.3232
-12.2764
-12.2301
-12.1857
-12.1452
-12.1107
-12.0852
-12.0714
-12.072
-12.0937
-12.1443
-13.359
-13.4114
-13.4315
-13.4284
-13.4102
-13.3806
-13.3432
-13.3014
-13.2578
-13.2142
-13.172
-13.132
-13.0946
-13.0602
-13.0285
-12.9996
-12.973
-12.9486
-12.9259
-12.9046
-12.8843
-12.8646
-12.8452
-12.8258
-12.806
-12.7855
-12.764
-12.7412
-12.7168
-12.6905
-12.6622
-12.6315
-12.5983
-12.5624
-12.5235
-12.4815
-12.4365
-12.3885
-12.3377
-12.2844
-12.2295
-12.1738
-12.1191
-12.0674
-12.0216
-11.9854
-11.9625
-11.9571
-11.9782
-12.0363
-13.461
-13.5232
-13.5423
-13.5312
-13.5017
-13.4595
-13.4095
-13.3559
-13.3018
-13.2493
-13.1996
-13.1535
-13.1112
-13.0728
-13.038
-13.0066
-12.9781
-12.9522
-12.9284
-12.9062
-12.8852
-12.865
-12.8452
-12.8254
-12.8053
-12.7844
-12.7625
-12.7393
-12.7143
-12.6874
-12.6581
-12.6262
-12.5914
-12.5534
-12.512
-12.4668
-12.4177
-12.3646
-12.3075
-12.2467
-12.1826
-12.1162
-12.049
-11.9834
-11.9228
-11.8718
-11.8356
-11.8203
-11.8389
-11.9057
-13.5897
-13.6631
-13.6778
-13.6531
-13.6066
-13.5466
-13.4799
-13.4114
-13.3447
-13.2818
-13.2238
-13.1711
-13.1237
-13.0813
-13.0435
-13.0099
-12.9798
-12.9526
-12.9279
-12.9052
-12.8838
-12.8634
-12.8434
-12.8236
-12.8034
-12.7825
-12.7605
-12.7371
-12.7119
-12.6846
-12.6547
-12.622
-12.586
-12.5464
-12.5027
-12.4546
-12.4017
-12.3436
-12.2802
-12.2113
-12.1372
-12.0585
-11.9766
-11.8939
-11.814
-11.7426
-11.6869
-11.6555
-11.6677
-11.7444
-13.7573
-13.8423
-13.8457
-13.7981
-13.726
-13.6414
-13.5527
-13.4659
-13.3844
-13.3098
-13.2428
-13.1833
-13.1308
-13.0848
-13.0444
-13.0088
-12.9775
-12.9495
-12.9243
-12.9013
-12.8799
-12.8596
-12.8398
-12.8202
-12.8003
-12.7797
-12.7581
-12.7349
-12.7098
-12.6825
-12.6524
-12.6193
-12.5825
-12.5417
-12.4964
-12.4458
-12.3895
-12.3269
-12.2573
-12.1802
-12.0955
-12.0032
-11.9042
-11.8004
-11.6958
-11.5966
-11.5119
-11.4546
-11.4526
-11.5387
-13.9855
-14.0777
-14.0561
-13.9705
-13.8602
-13.7417
-13.625
-13.516
-13.4176
-13.3305
-13.2543
-13.1883
-13.1313
-13.0821
-13.0396
-13.0028
-12.9707
-12.9425
-12.9173
-12.8945
-12.8735
-12.8537
-12.8345
-12.8155
-12.7963
-12.7763
-12.7553
-12.7327
-12.7082
-12.6812
-12.6515
-12.6184
-12.5815
-12.5402
-12.4937
-12.4414
-12.3824
-12.3159
-12.2407
-12.1558
-12.0604
-11.9536
-11.8353
-11.7065
-11.5704
-11.4335
-11.3065
-11.2069
-11.1759
-11.2659
-14.3134
-14.3948
-14.3209
-14.1727
-14.0063
-13.8424
-13.691
-13.5566
-13.44
-13.3404
-13.2557
-13.1841
-13.1235
-13.0721
-13.0285
-12.9913
-12.9592
-12.9313
-12.9068
-12.8847
-12.8646
-12.8457
-12.8275
-12.8095
-12.7913
-12.7725
-12.7524
-12.7309
-12.7073
-12.6813
-12.6524
-12.62
-12.5835
-12.5423
-12.4956
-12.4425
-12.3819
-12.3124
-12.2327
-12.1411
-12.0356
-11.9143
-11.7755
-11.6182
-11.4436
-11.2567
-11.0683
-10.9003
-10.8109
-10.8842
-14.8133
-14.8316
-14.6515
-14.4021
-14.1558
-13.9336
-13.7416
-13.5801
-13.4459
-13.3351
-13.2438
-13.1683
-13.1058
-13.0538
-13.0103
-12.9737
-12.9426
-12.9159
-12.8926
-12.8719
-12.8532
-12.8357
-12.819
-12.8025
-12.7858
-12.7684
-12.7498
-12.7297
-12.7076
-12.683
-12.6555
-12.6243
-12.5891
-12.5489
-12.5029
-12.4501
-12.3891
-12.3185
-12.2361
-12.1396
-12.026
-11.8917
-11.7328
-11.5452
-11.326
-11.0753
-10.8001
-10.5227
-10.3183
-10.3181
-15.6162
-15.4384
-15.0559
-14.6495
-14.2934
-14.0004
-13.7649
-13.5777
-13.4291
-13.3107
-13.2159
-13.1394
-13.0774
-13.0266
-12.9848
-12.9501
-12.921
-12.8964
-12.8751
-12.8565
-12.8397
-12.8242
-12.8094
-12.7948
-12.78
-12.7645
-12.7478
-12.7296
-12.7093
-12.6867
-12.661
-12.6319
-12.5985
-12.5602
-12.5161
-12.4649
-12.4053
-12.3354
-12.2527
-12.1543
-12.036
-11.8925
-11.7168
-11.5004
-11.2333
-10.9056
-10.512
-10.0666
-9.64703
-9.43315
-17.0192
-16.2559
-15.5101
-14.8816
-14.3886
-14.019
-13.7446
-13.5392
-13.3834
-13.2636
-13.1703
-13.0967
-13.038
-12.9907
-12.9524
-12.921
-12.895
-12.8733
-12.8548
-12.8388
-12.8246
-12.8115
-12.7991
-12.7868
-12.7743
-12.761
-12.7466
-12.7306
-12.7128
-12.6925
-12.6693
-12.6427
-12.612
-12.5765
-12.5353
-12.4872
-12.4308
-12.3639
-12.2842
-12.1879
-12.0701
-11.9238
-11.7391
-11.5016
-11.1913
-10.7807
-10.2399
-9.55841
-8.75702
-7.92421
-19.8523
-17.2533
-15.833
-14.9443
-14.3337
-13.9193
-13.6359
-13.4359
-13.29
-13.181
-13.0978
-13.0331
-12.9823
-12.9419
-12.9095
-12.8834
-12.8621
-12.8446
-12.8301
-12.8177
-12.8068
-12.797
-12.7876
-12.7783
-12.7686
-12.7582
-12.7467
-12.7337
-12.7188
-12.7016
-12.6817
-12.6585
-12.6316
-12.6002
-12.5635
-12.5205
-12.4697
-12.4095
-12.3372
-12.2494
-12.1411
-12.0046
-11.8286
-11.5945
-11.2722
-10.8116
-10.1432
-9.18254
-7.6754
-4.95518
-24.7212
-18.3365
-15.669
-14.5676
-13.9669
-13.6079
-13.3838
-13.2336
-13.1265
-13.0469
-12.9863
-12.9393
-12.9024
-12.8735
-12.8506
-12.8326
-12.8183
-12.807
-12.798
-12.7907
-12.7845
-12.779
-12.7738
-12.7685
-12.7628
-12.7562
-12.7486
-12.7395
-12.7286
-12.7156
-12.7001
-12.6818
-12.6601
-12.6347
-12.6047
-12.5694
-12.5279
-12.4787
-12.4201
-12.3495
-12.2631
-12.1554
-12.017
-11.8316
-11.5672
-11.1602
-10.4942
-9.29772
-6.51211
0.000100038
)
;

boundaryField
{
    movingWallTop
    {
        type            zeroGradient;
    }
    movingWallBottom
    {
        type            zeroGradient;
    }
    fixedWalls
    {
        type            zeroGradient;
    }
    frontAndBack
    {
        type            empty;
    }
}


// ************************************************************************* //
