/*--------------------------------*- C++ -*----------------------------------*\
  =========                 |
  \\      /  F ield         | OpenFOAM: The Open Source CFD Toolbox
   \\    /   O peration     | Website:  https://openfoam.org
    \\  /    A nd           | Version:  7
     \\/     M anipulation  |
\*---------------------------------------------------------------------------*/
FoamFile
{
    version     2.0;
    format      ascii;
    class       surfaceScalarField;
    location    "0.0124";
    object      phi;
}
// * * * * * * * * * * * * * * * * * * * * * * * * * * * * * * * * * * * * * //

dimensions      [0 3 -1 0 0 0 0];

internalField   nonuniform List<scalar> 
4900
(
5.45797e-06
-5.45797e-06
9.9592e-06
-4.50123e-06
1.26988e-05
-2.73956e-06
1.44109e-05
-1.71209e-06
1.5516e-05
-1.10519e-06
1.6254e-05
-7.37946e-07
1.67665e-05
-5.12554e-07
1.71362e-05
-3.69632e-07
1.7411e-05
-2.74818e-07
1.76201e-05
-2.09081e-07
1.77819e-05
-1.61783e-07
1.79086e-05
-1.26745e-07
1.80088e-05
-1.00205e-07
1.80886e-05
-7.97608e-08
1.81524e-05
-6.38053e-08
1.82036e-05
-5.12196e-08
1.82448e-05
-4.11974e-08
1.82779e-05
-3.31412e-08
1.83045e-05
-2.65982e-08
1.83258e-05
-2.12182e-08
1.83425e-05
-1.67259e-08
1.83554e-05
-1.29002e-08
1.83649e-05
-9.56024e-09
1.83715e-05
-6.55311e-09
1.83752e-05
-3.74519e-09
1.83762e-05
-1.01412e-09
1.83745e-05
1.75874e-09
1.83698e-05
4.69421e-09
1.83619e-05
7.92339e-09
1.83503e-05
1.15946e-08
1.83344e-05
1.58827e-08
1.83134e-05
2.09999e-08
1.82862e-05
2.721e-08
1.82513e-05
3.48479e-08
1.8207e-05
4.43471e-08
1.81507e-05
5.62802e-08
1.80793e-05
7.14215e-08
1.79884e-05
9.08489e-08
1.78723e-05
1.16113e-07
1.77228e-05
1.49541e-07
1.7528e-05
1.94784e-07
1.72701e-05
2.57885e-07
1.69208e-05
3.49355e-07
1.64324e-05
4.8833e-07
1.57222e-05
7.10244e-07
1.46435e-05
1.07872e-06
1.29409e-05
1.70258e-06
1.01633e-05
2.77758e-06
5.55954e-06
4.60377e-06
5.55954e-06
-1.16428e-07
-5.34154e-06
1.83333e-06
-6.45099e-06
4.40485e-06
-5.31108e-06
6.70056e-06
-4.0078e-06
8.55003e-06
-2.95466e-06
9.99276e-06
-2.18068e-06
1.11101e-05
-1.62987e-06
1.1978e-05
-1.23751e-06
1.26568e-05
-9.53639e-07
1.31919e-05
-7.44219e-07
1.36169e-05
-5.86765e-07
1.39565e-05
-4.66381e-07
1.42294e-05
-3.73034e-07
1.44494e-05
-2.99811e-07
1.46274e-05
-2.4182e-07
1.47717e-05
-1.95506e-07
1.48887e-05
-1.58225e-07
1.49836e-05
-1.27972e-07
1.50602e-05
-1.03194e-07
1.51216e-05
-8.26704e-08
1.51703e-05
-6.54267e-08
1.52081e-05
-5.06702e-08
1.52363e-05
-3.77427e-08
1.52558e-05
-2.6083e-08
1.52673e-05
-1.51957e-08
1.52709e-05
-4.62419e-09
1.52666e-05
6.07365e-09
1.52539e-05
1.73506e-08
1.52321e-05
2.96926e-08
1.52001e-05
4.36472e-08
1.51561e-05
5.98538e-08
1.5098e-05
7.90812e-08
1.5023e-05
1.02276e-07
1.49272e-05
1.30624e-07
1.48059e-05
1.65641e-07
1.46529e-05
2.093e-07
1.44601e-05
2.64214e-07
1.4217e-05
3.33928e-07
1.39097e-05
4.23367e-07
1.35197e-05
5.39564e-07
1.30217e-05
6.92837e-07
1.23808e-05
8.98725e-07
1.15491e-05
1.18107e-06
1.04608e-05
1.57664e-06
9.03031e-06
2.14073e-06
7.16158e-06
2.94746e-06
4.79903e-06
4.06513e-06
2.10921e-06
5.4674e-06
9.27706e-09
6.7037e-06
5.56882e-06
-1.08332e-06
-4.25823e-06
-7.64455e-07
-6.76985e-06
5.57264e-07
-6.6328e-06
2.23394e-06
-5.68447e-06
3.89581e-06
-4.61653e-06
5.38563e-06
-3.6705e-06
6.65806e-06
-2.9023e-06
7.719e-06
-2.29845e-06
8.59347e-06
-1.82811e-06
9.31063e-06
-1.46138e-06
9.89776e-06
-1.17389e-06
1.03783e-05
-9.46962e-07
1.07719e-05
-7.66592e-07
1.10944e-05
-6.22292e-07
1.13587e-05
-5.06157e-07
1.15754e-05
-4.1215e-07
1.17527e-05
-3.35606e-07
1.18976e-05
-2.72866e-07
1.20155e-05
-2.21028e-07
1.21106e-05
-1.77761e-07
1.21863e-05
-1.41165e-07
1.22453e-05
-1.09673e-07
1.22895e-05
-8.19619e-08
1.23203e-05
-5.68912e-08
1.23386e-05
-3.34431e-08
1.23446e-05
-1.06731e-08
1.23384e-05
1.23382e-08
1.23192e-05
3.65303e-08
1.2286e-05
6.29102e-08
1.2237e-05
9.26044e-08
1.21699e-05
1.26917e-07
1.20816e-05
1.67398e-07
1.1968e-05
2.15934e-07
1.18237e-05
2.74853e-07
1.16423e-05
3.47078e-07
1.14153e-05
4.36329e-07
1.11321e-05
5.47406e-07
1.07794e-05
6.86603e-07
1.03405e-05
8.62284e-07
9.79432e-06
1.08573e-06
9.11489e-06
1.37227e-06
8.27084e-06
1.74278e-06
7.22675e-06
2.22516e-06
5.94874e-06
2.85465e-06
4.41993e-06
3.66954e-06
2.67572e-06
4.69167e-06
8.72613e-07
5.86823e-06
-5.99339e-07
6.93936e-06
-1.04516e-06
7.14952e-06
4.52365e-06
-9.18412e-07
-3.33981e-06
-1.36616e-06
-6.3221e-06
-9.96128e-07
-7.00283e-06
-8.87687e-08
-6.59183e-06
1.06308e-06
-5.76838e-06
2.26097e-06
-4.86839e-06
3.39433e-06
-4.03566e-06
4.41298e-06
-3.3171e-06
5.30177e-06
-2.7169e-06
6.06354e-06
-2.22315e-06
6.70927e-06
-1.81961e-06
7.25276e-06
-1.49046e-06
7.70806e-06
-1.22189e-06
8.08818e-06
-1.00242e-06
8.40468e-06
-8.22648e-07
8.6675e-06
-6.7497e-07
8.88508e-06
-5.53194e-07
9.0645e-06
-4.52278e-07
9.21156e-06
-3.6809e-07
9.33102e-06
-2.97221e-07
9.42668e-06
-2.36831e-07
9.50154e-06
-1.84526e-07
9.55783e-06
-1.38257e-07
9.59717e-06
-9.62263e-08
9.62053e-06
-5.68127e-08
9.62836e-06
-1.84975e-08
9.62049e-06
2.0204e-08
9.59621e-06
6.08107e-08
9.55418e-06
1.04945e-07
9.49237e-06
1.54409e-07
9.40802e-06
2.11269e-07
9.29747e-06
2.77951e-07
9.15605e-06
3.57356e-07
8.97789e-06
4.53005e-07
8.75576e-06
5.69217e-07
8.48075e-06
7.11337e-07
8.14212e-06
8.86033e-07
7.72705e-06
1.10167e-06
7.22056e-06
1.36878e-06
6.60573e-06
1.70055e-06
5.8647e-06
2.1133e-06
4.98108e-06
2.6264e-06
3.94535e-06
3.26088e-06
2.76557e-06
4.03444e-06
1.48666e-06
4.94845e-06
2.20557e-07
5.95777e-06
-8.19705e-07
6.90849e-06
-1.30967e-06
7.42932e-06
-9.27359e-07
6.76721e-06
3.59629e-06
-6.74645e-07
-2.66517e-06
-1.33559e-06
-5.66116e-06
-1.503e-06
-6.83543e-06
-1.19121e-06
-6.90361e-06
-5.5364e-07
-6.40595e-06
2.54106e-07
-5.67614e-06
1.11595e-06
-4.89751e-06
1.95853e-06
-4.15968e-06
2.74135e-06
-3.49972e-06
3.44576e-06
-2.92756e-06
4.06637e-06
-2.44023e-06
4.6053e-06
-2.02939e-06
5.06848e-06
-1.68507e-06
5.46348e-06
-1.39741e-06
5.79825e-06
-1.15742e-06
6.08044e-06
-9.57164e-07
6.31704e-06
-7.89791e-07
6.51421e-06
-6.49449e-07
6.67727e-06
-5.31151e-07
6.8107e-06
-4.30648e-07
6.91817e-06
-3.44304e-07
7.00263e-06
-2.68986e-07
7.06633e-06
-2.01957e-07
7.11088e-06
-1.40776e-07
7.13728e-06
-8.32138e-08
7.14595e-06
-2.71587e-08
7.13669e-06
2.94633e-08
7.10872e-06
8.87763e-08
7.06062e-06
1.53042e-07
6.99028e-06
2.24752e-07
6.89482e-06
3.06732e-07
6.77052e-06
4.02249e-07
6.61273e-06
5.15142e-07
6.41578e-06
6.49963e-07
6.17285e-06
8.12148e-07
5.87598e-06
1.0082e-06
5.51612e-06
1.2459e-06
5.08331e-06
1.53448e-06
4.5673e-06
1.88478e-06
3.95872e-06
2.30913e-06
3.25128e-06
2.82074e-06
2.44575e-06
3.43194e-06
1.55649e-06
4.15014e-06
6.21648e-07
4.96928e-06
-2.83163e-07
5.85326e-06
-1.03157e-06
6.70618e-06
-1.4472e-06
7.32412e-06
-1.34848e-06
7.33061e-06
-7.00133e-07
6.11886e-06
2.89616e-06
-4.84295e-07
-2.18087e-06
-1.14933e-06
-4.99612e-06
-1.57382e-06
-6.41094e-06
-1.64908e-06
-6.82836e-06
-1.41891e-06
-6.63612e-06
-9.76148e-07
-6.1189e-06
-4.12165e-07
-5.46149e-06
2.01666e-07
-4.77352e-06
8.16319e-07
-4.11437e-06
1.40135e-06
-3.51259e-06
1.93993e-06
-2.9788e-06
2.4244e-06
-2.51386e-06
2.85295e-06
-2.11362e-06
3.22727e-06
-1.77173e-06
3.55093e-06
-1.48108e-06
3.82838e-06
-1.23462e-06
4.06433e-06
-1.02574e-06
4.26331e-06
-8.48434e-07
4.42951e-06
-6.97347e-07
4.5666e-06
-5.67735e-07
4.67771e-06
-4.55415e-07
4.76541e-06
-3.56688e-07
4.8317e-06
-2.68248e-07
4.87802e-06
-1.87097e-07
4.90526e-06
-1.10452e-07
4.91375e-06
-3.56525e-08
4.90329e-06
3.99313e-08
4.87307e-06
1.18996e-07
4.82171e-06
2.044e-07
4.74719e-06
2.99269e-07
4.64683e-06
4.07097e-07
4.51721e-06
5.3186e-07
4.35423e-06
6.78131e-07
4.15299e-06
8.51195e-07
3.90798e-06
1.05716e-06
3.61313e-06
1.30305e-06
3.26221e-06
1.59682e-06
2.84938e-06
1.94731e-06
2.37027e-06
2.3639e-06
1.82364e-06
2.85576e-06
1.21408e-06
3.43029e-06
5.55988e-07
4.09003e-06
-1.20968e-07
4.8271e-06
-7.65286e-07
5.6136e-06
-1.29802e-06
6.38599e-06
-1.61388e-06
7.02203e-06
-1.60105e-06
7.31129e-06
-1.19863e-06
6.92819e-06
-5.13791e-07
5.43402e-06
2.38237e-06
-3.55851e-07
-1.82502e-06
-9.59276e-07
-4.39269e-06
-1.48379e-06
-5.88643e-06
-1.78482e-06
-6.52733e-06
-1.84128e-06
-6.57966e-06
-1.69276e-06
-6.26741e-06
-1.39822e-06
-5.75603e-06
-1.01435e-06
-5.15739e-06
-5.86988e-07
-4.54174e-06
-1.49565e-07
-3.95002e-06
2.75455e-07
-3.40382e-06
6.74197e-07
-2.9126e-06
1.03903e-06
-2.47846e-06
1.36663e-06
-2.09933e-06
1.65647e-06
-1.77092e-06
1.90975e-06
-1.4879e-06
2.12863e-06
-1.24462e-06
2.31571e-06
-1.03552e-06
2.4737e-06
-8.55339e-07
2.60518e-06
-6.99214e-07
2.71247e-06
-5.62698e-07
2.79752e-06
-4.41741e-07
2.86191e-06
-3.32639e-07
2.90678e-06
-2.31963e-07
2.93281e-06
-1.36483e-07
2.94023e-06
-4.30749e-08
2.92879e-06
5.13678e-08
2.89776e-06
1.50032e-07
2.84588e-06
2.56281e-07
2.77139e-06
3.73758e-07
2.67201e-06
5.06477e-07
2.54495e-06
6.58923e-07
2.38695e-06
8.36131e-07
2.19439e-06
1.04375e-06
1.96349e-06
1.28806e-06
1.6906e-06
1.57594e-06
1.37273e-06
1.91469e-06
1.00837e-06
2.31167e-06
5.98728e-07
2.77354e-06
1.49472e-07
3.30502e-06
-3.26839e-07
3.9066e-06
-8.07702e-07
4.57089e-06
-1.25734e-06
5.27674e-06
-1.62421e-06
5.98047e-06
-1.84194e-06
6.60372e-06
-1.83851e-06
7.0186e-06
-1.56117e-06
7.03395e-06
-1.02489e-06
6.39191e-06
-3.84549e-07
4.79368e-06
1.99782e-06
-2.72213e-07
-1.55281e-06
-8.02132e-07
-3.86277e-06
-1.34761e-06
-5.34096e-06
-1.76801e-06
-6.10692e-06
-2.01119e-06
-6.33649e-06
-2.08037e-06
-6.19823e-06
-2.00583e-06
-5.83057e-06
-1.82618e-06
-5.33704e-06
-1.57821e-06
-4.78971e-06
-1.29251e-06
-4.23572e-06
-9.92391e-07
-3.70394e-06
-6.94471e-07
-3.21052e-06
-4.09837e-07
-2.76309e-06
-1.45332e-07
-2.36383e-06
9.52893e-08
-2.01154e-06
3.10425e-07
-1.70303e-06
4.9989e-07
-1.43408e-06
6.64377e-07
-1.20001e-06
8.0506e-07
-9.96022e-07
9.23314e-07
-8.17468e-07
1.02052e-06
-6.59904e-07
1.09793e-06
-5.19155e-07
1.15659e-06
-3.91298e-07
1.19726e-06
-2.72629e-07
1.22037e-06
-1.59597e-07
1.22603e-06
-4.87326e-08
1.21396e-06
6.34363e-08
1.18352e-06
1.80472e-07
1.13368e-06
3.06117e-07
1.06306e-06
4.4438e-07
9.69926e-07
5.99613e-07
8.52273e-07
7.76576e-07
7.0793e-07
9.80474e-07
5.34733e-07
1.21695e-06
3.308e-07
1.49199e-06
9.49521e-08
1.81179e-06
-1.72678e-07
2.18232e-06
-4.69793e-07
2.60878e-06
-7.90762e-07
3.09451e-06
-1.12513e-06
3.63938e-06
-1.45585e-06
4.23733e-06
-1.75753e-06
4.87257e-06
-1.99524e-06
5.51445e-06
-2.12525e-06
6.11048e-06
-2.09971e-06
6.57818e-06
-1.87849e-06
6.79738e-06
-1.45162e-06
6.60708e-06
-8.73024e-07
5.81331e-06
-2.9869e-07
4.21935e-06
1.69913e-06
-2.16705e-07
-1.33611e-06
-6.79147e-07
-3.40033e-06
-1.20909e-06
-4.81102e-06
-1.6839e-06
-5.63211e-06
-2.04073e-06
-5.97966e-06
-2.26138e-06
-5.97757e-06
-2.35482e-06
-5.73714e-06
-2.34319e-06
-5.34867e-06
-2.2526e-06
-4.8803e-06
-2.10783e-06
-4.38048e-06
-1.92999e-06
-3.88179e-06
-1.73571e-06
-3.40479e-06
-1.53743e-06
-2.96137e-06
-1.34395e-06
-2.55731e-06
-1.16118e-06
-2.19431e-06
-9.92811e-07
-1.8714e-06
-8.40921e-07
-1.58597e-06
-7.06474e-07
-1.33445e-06
-5.89692e-07
-1.1128e-06
-4.90346e-07
-9.16813e-07
-4.07982e-07
-7.42269e-07
-3.42069e-07
-5.85068e-07
-2.92122e-07
-4.41246e-07
-2.57778e-07
-3.06973e-07
-2.38855e-07
-1.7852e-07
-2.35388e-07
-5.21996e-08
-2.47649e-07
7.56971e-08
-2.76154e-07
2.08977e-07
-3.21652e-07
3.51615e-07
-3.85094e-07
5.07822e-07
-4.67575e-07
6.82094e-07
-5.70235e-07
8.79236e-07
-6.94109e-07
1.10435e-06
-8.39904e-07
1.36274e-06
-1.00768e-06
1.65977e-06
-1.19639e-06
2.00051e-06
-1.40333e-06
2.38926e-06
-1.6233e-06
2.82875e-06
-1.84772e-06
3.31893e-06
-2.06358e-06
3.85524e-06
-2.25244e-06
4.42618e-06
-2.38988e-06
5.01001e-06
-2.446e-06
5.57057e-06
-2.38802e-06
6.0525e-06
-2.18644e-06
6.37659e-06
-1.82628e-06
6.43723e-06
-1.32419e-06
6.10498e-06
-7.49345e-07
5.23847e-06
-2.40581e-07
3.71058e-06
1.45855e-06
-1.7835e-07
-1.15776e-06
-5.83406e-07
-2.99528e-06
-1.08263e-06
-4.31179e-06
-1.57382e-06
-5.14092e-06
-1.99411e-06
-5.55936e-06
-2.31443e-06
-5.65726e-06
-2.5296e-06
-5.52197e-06
-2.64879e-06
-5.22947e-06
-2.68817e-06
-4.84092e-06
-2.66589e-06
-4.40276e-06
-2.59922e-06
-3.94846e-06
-2.50312e-06
-3.50089e-06
-2.38979e-06
-3.0747e-06
-2.26866e-06
-2.67844e-06
-2.14677e-06
-2.31621e-06
-2.02912e-06
-1.98905e-06
-1.91916e-06
-1.69593e-06
-1.81912e-06
-1.43449e-06
-1.73036e-06
-1.20156e-06
-1.65365e-06
-9.93527e-07
-1.58934e-06
-8.06572e-07
-1.53759e-06
-6.36822e-07
-1.49841e-06
-4.8042e-07
-1.47183e-06
-3.33554e-07
-1.45791e-06
-1.92448e-07
-1.45678e-06
-5.33265e-08
-1.46871e-06
8.76264e-08
-1.49406e-06
2.34325e-07
-1.53327e-06
3.90833e-07
-1.58685e-06
5.614e-07
-1.65524e-06
7.50484e-07
-1.73874e-06
9.62732e-07
-1.8373e-06
1.20291e-06
-1.95032e-06
1.47576e-06
-2.0763e-06
1.78575e-06
-2.21243e-06
2.13664e-06
-2.3541e-06
2.53093e-06
-2.49428e-06
2.96892e-06
-2.62288e-06
3.44753e-06
-2.72623e-06
3.95859e-06
-2.78677e-06
4.48672e-06
-2.78341e-06
5.00665e-06
-2.69307e-06
5.48023e-06
-2.49407e-06
5.85351e-06
-2.17228e-06
6.05479e-06
-1.73022e-06
5.99517e-06
-1.19893e-06
5.5737e-06
-6.49659e-07
4.6892e-06
-1.9955e-07
3.26047e-06
1.259e-06
-1.50595e-07
-1.00716e-06
-5.07795e-07
-2.63807e-06
-9.71259e-07
-3.84833e-06
-1.45726e-06
-4.65492e-06
-1.90774e-06
-5.10889e-06
-2.28937e-06
-5.27563e-06
-2.58847e-06
-5.22286e-06
-2.80494e-06
-5.013e-06
-2.94674e-06
-4.69912e-06
-3.02574e-06
-4.32376e-06
-3.05492e-06
-3.91928e-06
-3.04668e-06
-3.50913e-06
-3.01193e-06
-3.10945e-06
-2.95979e-06
-2.73058e-06
-2.89756e-06
-2.37843e-06
-2.83091e-06
-2.05571e-06
-2.76406e-06
-1.76278e-06
-2.70014e-06
-1.49842e-06
-2.64133e-06
-1.26037e-06
-2.58918e-06
-1.04568e-06
-2.54471e-06
-8.5104e-07
-2.50862e-06
-6.72906e-07
-2.4814e-06
-5.07649e-07
-2.46336e-06
-3.5159e-07
-2.45478e-06
-2.01025e-07
-2.4559e-06
-5.22119e-08
-2.46692e-06
9.86521e-08
-2.48806e-06
2.55462e-07
-2.51946e-06
4.22233e-07
-2.56117e-06
6.03111e-07
-2.61304e-06
8.02359e-07
-2.67462e-06
1.0243e-06
-2.74492e-06
1.27322e-06
-2.82228e-06
1.55312e-06
-2.90398e-06
1.86745e-06
-2.98599e-06
2.21865e-06
-3.06252e-06
2.60746e-06
-3.12566e-06
3.03206e-06
-3.16504e-06
3.48691e-06
-3.16771e-06
3.96127e-06
-3.1184e-06
4.43741e-06
-3.00043e-06
4.88868e-06
-2.79775e-06
5.27755e-06
-2.4984e-06
5.55416e-06
-2.09976e-06
5.65615e-06
-1.61541e-06
5.51083e-06
-1.08267e-06
5.04096e-06
-5.68383e-07
4.17491e-06
-1.69163e-07
2.86125e-06
1.08984e-06
-1.29606e-07
-8.77555e-07
-4.46821e-07
-2.32086e-06
-8.7412e-07
-3.42103e-06
-1.34314e-06
-4.1859e-06
-1.80229e-06
-4.64974e-06
-2.21782e-06
-4.8601e-06
-2.57154e-06
-4.86915e-06
-2.85714e-06
-4.7274e-06
-3.07636e-06
-4.4799e-06
-3.23576e-06
-4.16437e-06
-3.34419e-06
-3.81085e-06
-3.41118e-06
-3.44214e-06
-3.44585e-06
-3.07478e-06
-3.45637e-06
-2.72005e-06
-3.44971e-06
-2.38509e-06
-3.43162e-06
-2.0738e-06
-3.40667e-06
-1.78772e-06
-3.37846e-06
-1.52663e-06
-3.34973e-06
-1.2891e-06
-3.32254e-06
-1.07287e-06
-3.29843e-06
-8.75148e-07
-3.27852e-06
-6.92816e-07
-3.26363e-06
-5.22543e-07
-3.25434e-06
-3.60877e-07
-3.25109e-06
-2.04282e-07
-3.25415e-06
-4.91508e-08
-3.2637e-06
1.08199e-07
-3.27977e-06
2.71533e-07
-3.30224e-06
4.44703e-07
-3.33076e-06
6.31632e-07
-3.36467e-06
8.36271e-07
-3.40287e-06
1.06251e-06
-3.44368e-06
1.31402e-06
-3.48461e-06
1.59404e-06
-3.52214e-06
1.90499e-06
-3.55152e-06
2.24802e-06
-3.56644e-06
2.62238e-06
-3.55891e-06
3.02453e-06
-3.51916e-06
3.44716e-06
-3.43585e-06
3.87796e-06
-3.29666e-06
4.29822e-06
-3.08953e-06
4.68156e-06
-2.80476e-06
4.99277e-06
-2.43809e-06
5.18749e-06
-1.99491e-06
5.21297e-06
-1.49502e-06
5.01093e-06
-9.77065e-07
4.523e-06
-5.00924e-07
3.69877e-06
-1.45649e-07
2.50598e-06
9.44188e-07
-1.13129e-07
-7.64426e-07
-3.96628e-07
-2.03736e-06
-7.89404e-07
-3.02825e-06
-1.23543e-06
-3.73987e-06
-1.68972e-06
-4.19545e-06
-2.12009e-06
-4.42973e-06
-2.50645e-06
-4.48279e-06
-2.83867e-06
-4.39518e-06
-3.11406e-06
-4.20451e-06
-3.33492e-06
-3.94351e-06
-3.50654e-06
-3.63923e-06
-3.63566e-06
-3.31302e-06
-3.72943e-06
-2.98101e-06
-3.79473e-06
-2.65475e-06
-3.83781e-06
-2.34201e-06
-3.86408e-06
-2.04753e-06
-3.87813e-06
-1.77368e-06
-3.88369e-06
-1.52107e-06
-3.88378e-06
-1.289e-06
-3.8808e-06
-1.07586e-06
-3.87657e-06
-8.79373e-07
-3.87253e-06
-6.96862e-07
-3.86972e-06
-5.25351e-07
-3.86892e-06
-3.61677e-07
-3.87065e-06
-2.02548e-07
-3.87523e-06
-4.45699e-08
-3.88277e-06
1.15733e-07
-3.89314e-06
2.81909e-07
-3.90599e-06
4.57554e-07
-3.92064e-06
6.46282e-07
-3.93602e-06
8.51649e-07
-3.95055e-06
1.07704e-06
-3.96203e-06
1.3255e-06
-3.96746e-06
1.59947e-06
-3.96289e-06
1.90042e-06
-3.94327e-06
2.22841e-06
-3.90234e-06
2.58145e-06
-3.83259e-06
2.95478e-06
-3.72542e-06
3.33999e-06
-3.57154e-06
3.72408e-06
-3.36175e-06
4.08844e-06
-3.08828e-06
4.40808e-06
-2.74667e-06
4.65116e-06
-2.3384e-06
4.77922e-06
-1.87397e-06
4.74854e-06
-1.37607e-06
4.51303e-06
-8.8197e-07
4.0289e-06
-4.43995e-07
3.26079e-06
-1.26801e-07
2.18879e-06
8.17387e-07
-9.98185e-08
-6.64607e-07
-3.54617e-07
-1.78256e-06
-7.15371e-07
-2.6675e-06
-1.13583e-06
-3.31941e-06
-1.57708e-06
-3.7542e-06
-2.00944e-06
-3.99737e-06
-2.41248e-06
-4.07975e-06
-2.77396e-06
-4.03369e-06
-3.08821e-06
-3.89026e-06
-3.35433e-06
-3.67739e-06
-3.57466e-06
-3.41889e-06
-3.75348e-06
-3.13421e-06
-3.89598e-06
-2.83851e-06
-4.00766e-06
-2.54307e-06
-4.09381e-06
-2.25586e-06
-4.15929e-06
-1.98204e-06
-4.20839e-06
-1.72458e-06
-4.24477e-06
-1.48469e-06
-4.2715e-06
-1.26228e-06
-4.29108e-06
-1.05628e-06
-4.30553e-06
-8.64923e-07
-4.31643e-06
-6.85964e-07
-4.32498e-06
-5.16801e-07
-4.33205e-06
-3.546e-07
-4.33824e-06
-1.96361e-07
-4.34385e-06
-3.89622e-08
-4.34892e-06
1.20801e-07
-4.3532e-06
2.86193e-07
-4.35614e-06
4.60494e-07
-4.3568e-06
6.46947e-07
-4.35383e-06
8.4867e-07
-4.34531e-06
1.06853e-06
-4.32873e-06
1.30893e-06
-4.30085e-06
1.57158e-06
-4.25757e-06
1.85715e-06
-4.19395e-06
2.16478e-06
-4.10412e-06
2.49162e-06
-3.98146e-06
2.83211e-06
-3.81883e-06
3.17736e-06
-3.60911e-06
3.51436e-06
-3.34608e-06
3.82541e-06
-3.0256e-06
4.08761e-06
-2.64734e-06
4.2729e-06
-2.21675e-06
4.34863e-06
-1.74731e-06
4.27911e-06
-1.26248e-06
4.0282e-06
-7.96776e-07
3.5632e-06
-3.9536e-07
2.85938e-06
-1.11306e-07
1.90473e-06
7.06082e-07
-8.88518e-08
-5.75755e-07
-3.19054e-07
-1.55236e-06
-6.50621e-07
-2.33593e-06
-1.04502e-06
-2.92501e-06
-1.46868e-06
-3.33054e-06
-1.89467e-06
-3.57138e-06
-2.30317e-06
-3.67125e-06
-2.68098e-06
-3.65589e-06
-3.02051e-06
-3.55073e-06
-3.31858e-06
-3.37931e-06
-3.57522e-06
-3.16226e-06
-3.79259e-06
-2.91684e-06
-3.97415e-06
-2.65695e-06
-4.12401e-06
-2.39322e-06
-4.24644e-06
-2.13343e-06
-4.3456e-06
-1.88289e-06
-4.4253e-06
-1.64487e-06
-4.48897e-06
-1.42102e-06
-4.53956e-06
-1.21169e-06
-4.57954e-06
-1.01629e-06
-4.61097e-06
-8.33495e-07
-4.63548e-06
-6.61453e-07
-4.65434e-06
-4.97943e-07
-4.66846e-06
-3.40476e-07
-4.67845e-06
-1.86374e-07
-4.68458e-06
-3.28273e-08
-4.68684e-06
1.23059e-07
-4.68486e-06
2.8422e-07
-4.67795e-06
4.53581e-07
-4.665e-06
6.33989e-07
-4.64443e-06
8.28109e-07
-4.6142e-06
1.03829e-06
-4.57163e-06
1.26636e-06
-4.51344e-06
1.51339e-06
-4.43567e-06
1.77938e-06
-4.33371e-06
2.06282e-06
-4.20237e-06
2.36027e-06
-4.03608e-06
2.66583e-06
-3.82928e-06
2.97056e-06
-3.57695e-06
3.26204e-06
-3.27547e-06
3.52392e-06
-2.92368e-06
3.73582e-06
-2.52427e-06
3.87349e-06
-2.08532e-06
3.90968e-06
-1.62175e-06
3.81554e-06
-1.1565e-06
3.56295e-06
-7.20844e-07
3.12754e-06
-3.53525e-07
2.49206e-06
-9.83607e-08
1.64957e-06
6.07721e-07
-7.97085e-08
-4.96047e-07
-2.88775e-07
-1.34329e-06
-5.94093e-07
-2.03061e-06
-9.63252e-07
-2.55585e-06
-1.36721e-06
-2.92658e-06
-1.78176e-06
-3.15682e-06
-2.18816e-06
-3.26485e-06
-2.57297e-06
-3.27108e-06
-2.9275e-06
-3.19621e-06
-3.24698e-06
-3.05983e-06
-3.52969e-06
-2.87955e-06
-3.77609e-06
-2.67044e-06
-3.98812e-06
-2.44491e-06
-4.16862e-06
-2.21272e-06
-4.32085e-06
-1.9812e-06
-4.44821e-06
-1.75553e-06
-4.55398e-06
-1.53911e-06
-4.6412e-06
-1.3338e-06
-4.7126e-06
-1.1403e-06
-4.77052e-06
-9.58369e-07
-4.81696e-06
-7.87059e-07
-4.85352e-06
-6.24894e-07
-4.88145e-06
-4.70006e-07
-4.90168e-06
-3.20251e-07
-4.91477e-06
-1.73283e-07
-4.92097e-06
-2.66243e-08
-4.9202e-06
1.22286e-07
-4.91201e-06
2.76035e-07
-4.89561e-06
4.37177e-07
-4.86977e-06
6.08152e-07
-4.83285e-06
7.91187e-07
-4.78271e-06
9.8815e-07
-4.71672e-06
1.20037e-06
-4.63171e-06
1.42838e-06
-4.52402e-06
1.67169e-06
-4.38954e-06
1.92834e-06
-4.22389e-06
2.19463e-06
-4.02266e-06
2.46459e-06
-3.78179e-06
2.72969e-06
-3.49817e-06
2.97841e-06
-3.17033e-06
3.19609e-06
-2.79945e-06
3.36494e-06
-2.39036e-06
3.46441e-06
-1.95269e-06
3.47201e-06
-1.50183e-06
3.36467e-06
-1.05948e-06
3.1206e-06
-6.53628e-07
2.72169e-06
-3.17475e-07
2.15591e-06
-8.74573e-08
1.41955e-06
5.20264e-07
-7.20481e-08
-4.23999e-07
-2.62979e-07
-1.15236e-06
-5.44995e-07
-1.7486e-06
-8.90534e-07
-2.21031e-06
-1.27435e-06
-2.54276e-06
-1.67477e-06
-2.75641e-06
-2.07428e-06
-2.86534e-06
-2.45967e-06
-2.88569e-06
-2.82169e-06
-2.83419e-06
-3.15452e-06
-2.72699e-06
-3.45517e-06
-2.5789e-06
-3.72274e-06
-2.40287e-06
-3.95793e-06
-2.20973e-06
-4.16243e-06
-2.00822e-06
-4.33858e-06
-1.80504e-06
-4.48903e-06
-1.60509e-06
-4.61648e-06
-1.41165e-06
-4.72356e-06
-1.22672e-06
-4.81269e-06
-1.05117e-06
-4.88602e-06
-8.85041e-07
-4.94539e-06
-7.27684e-07
-4.99234e-06
-5.77945e-07
-5.02806e-06
-4.34288e-07
-5.05341e-06
-2.94899e-07
-5.06893e-06
-1.57764e-07
-5.07482e-06
-2.07377e-08
-5.07093e-06
1.18398e-07
-5.05677e-06
2.61875e-07
-5.03147e-06
4.11879e-07
-4.99378e-06
5.70459e-07
-4.94202e-06
7.39431e-07
-4.87411e-06
9.20238e-07
-4.78753e-06
1.11378e-06
-4.67935e-06
1.32021e-06
-4.54631e-06
1.53865e-06
-4.38492e-06
1.76696e-06
-4.19165e-06
2.00135e-06
-3.96319e-06
2.23614e-06
-3.69688e-06
2.46339e-06
-3.39123e-06
2.67276e-06
-3.04655e-06
2.8514e-06
-2.66572e-06
2.98411e-06
-2.25502e-06
3.05371e-06
-1.82491e-06
3.0419e-06
-1.39057e-06
2.93034e-06
-9.72204e-07
2.70224e-06
-5.94667e-07
2.34415e-06
-2.86503e-07
1.84774e-06
-7.82579e-08
1.21131e-06
4.42006e-07
-6.56378e-08
-3.58361e-07
-2.411e-07
-9.769e-07
-5.02713e-07
-1.48698e-06
-8.26768e-07
-1.88626e-06
-1.19116e-06
-2.17837e-06
-1.57643e-06
-2.37114e-06
-1.96636e-06
-2.47541e-06
-2.34818e-06
-2.50386e-06
-2.71246e-06
-2.46991e-06
-3.05273e-06
-2.38672e-06
-3.36506e-06
-2.26657e-06
-3.64755e-06
-2.12038e-06
-3.89985e-06
-1.95743e-06
-4.12272e-06
-1.78535e-06
-4.31766e-06
-1.6101e-06
-4.48661e-06
-1.43613e-06
-4.63172e-06
-1.26653e-06
-4.75519e-06
-1.10325e-06
-4.8591e-06
-9.47266e-07
-4.94535e-06
-7.98787e-07
-5.01563e-06
-6.57407e-07
-5.07132e-06
-5.22247e-07
-5.11355e-06
-3.92065e-07
-5.14309e-06
-2.65356e-07
-5.16043e-06
-1.40426e-07
-5.16571e-06
-1.54572e-08
-5.15874e-06
1.11433e-07
-5.139e-06
2.42133e-07
-5.10559e-06
3.78468e-07
-5.05726e-06
5.22125e-07
-4.99238e-06
6.7455e-07
-4.90896e-06
8.36823e-07
-4.80469e-06
1.00951e-06
-4.67695e-06
1.19247e-06
-4.52294e-06
1.38464e-06
-4.33979e-06
1.58381e-06
-4.1248e-06
1.78636e-06
-3.87571e-06
1.98704e-06
-3.59106e-06
2.17874e-06
-3.2707e-06
2.3524e-06
-2.91632e-06
2.49702e-06
-2.53205e-06
2.59983e-06
-2.12507e-06
2.64673e-06
-1.70615e-06
2.62298e-06
-1.28995e-06
2.51414e-06
-8.95062e-07
2.30735e-06
-5.43553e-07
1.99264e-06
-2.60086e-07
1.56428e-06
-7.05262e-08
1.02175e-06
3.71479e-07
-6.03109e-08
-2.9805e-07
-2.22719e-07
-8.14492e-07
-4.6676e-07
-1.24294e-06
-7.71776e-07
-1.58124e-06
-1.11822e-06
-1.83192e-06
-1.48856e-06
-2.00081e-06
-1.86777e-06
-2.0962e-06
-2.24365e-06
-2.12798e-06
-2.60678e-06
-2.10678e-06
-2.95033e-06
-2.04318e-06
-3.26973e-06
-1.94718e-06
-3.56231e-06
-1.8278e-06
-3.82691e-06
-1.69283e-06
-4.0635e-06
-1.54876e-06
-4.27287e-06
-1.40073e-06
-4.45634e-06
-1.25266e-06
-4.61555e-06
-1.10733e-06
-4.75225e-06
-9.66548e-07
-4.86821e-06
-8.31308e-07
-4.96507e-06
-7.0192e-07
-5.04433e-06
-5.78153e-07
-5.10722e-06
-4.59351e-07
-5.15476e-06
-3.44534e-07
-5.18763e-06
-2.3248e-07
-5.20626e-06
-1.21794e-07
-5.21075e-06
-1.09705e-08
-5.20087e-06
1.01551e-07
-5.17606e-06
2.17327e-07
-5.13545e-06
3.37853e-07
-5.0778e-06
4.64482e-07
-5.00159e-06
5.98337e-07
-4.90497e-06
7.40204e-07
-4.78585e-06
8.90393e-07
-4.64197e-06
1.04858e-06
-4.47098e-06
1.21365e-06
-4.27063e-06
1.38346e-06
-4.03899e-06
1.55472e-06
-3.77469e-06
1.72274e-06
-3.47732e-06
1.88136e-06
-3.14779e-06
2.02287e-06
-2.78883e-06
2.13806e-06
-2.40544e-06
2.21644e-06
-2.00533e-06
2.24663e-06
-1.59927e-06
2.21691e-06
-1.20121e-06
2.11608e-06
-8.28197e-07
1.93434e-06
-4.99907e-07
1.66435e-06
-2.37818e-07
1.30219e-06
-6.40869e-08
8.48014e-07
3.07393e-07
-5.59429e-08
-2.42107e-07
-2.07509e-07
-6.62926e-07
-4.36727e-07
-1.01373e-06
-7.2533e-07
-1.29264e-06
-1.05584e-06
-1.50141e-06
-1.41231e-06
-1.64434e-06
-1.7808e-06
-1.7277e-06
-2.14969e-06
-1.7591e-06
-2.5097e-06
-1.74677e-06
-2.8538e-06
-1.69907e-06
-3.17701e-06
-1.62396e-06
-3.4761e-06
-1.52871e-06
-3.74927e-06
-1.41966e-06
-3.99586e-06
-1.30217e-06
-4.21608e-06
-1.18052e-06
-4.4107e-06
-1.05804e-06
-4.5809e-06
-9.37125e-07
-4.72806e-06
-8.19386e-07
-4.85363e-06
-7.05741e-07
-4.95901e-06
-5.96541e-07
-5.04549e-06
-4.91677e-07
-5.11416e-06
-3.90675e-07
-5.16592e-06
-2.92779e-07
-5.20137e-06
-1.97022e-07
-5.22088e-06
-1.02288e-07
-5.22449e-06
-7.36464e-09
-5.21194e-06
8.90049e-08
-5.18268e-06
1.88071e-07
-5.13585e-06
2.91021e-07
-5.07028e-06
3.98912e-07
-4.98454e-06
5.12596e-07
-4.87696e-06
6.32619e-07
-4.74568e-06
7.59118e-07
-4.58878e-06
8.91685e-07
-4.40437e-06
1.02923e-06
-4.19074e-06
1.16984e-06
-3.94664e-06
1.31062e-06
-3.67147e-06
1.44757e-06
-3.36564e-06
1.57554e-06
-3.03093e-06
1.68816e-06
-2.67082e-06
1.77795e-06
-2.29089e-06
1.83651e-06
-1.89912e-06
1.85486e-06
-1.50609e-06
1.82388e-06
-1.12501e-06
1.735e-06
-7.71552e-07
1.58088e-06
-4.63363e-07
1.35616e-06
-2.19364e-07
1.05819e-06
-5.88032e-08
6.87453e-07
2.48589e-07
-5.24378e-08
-1.8967e-07
-1.95215e-07
-5.20149e-07
-4.12264e-07
-7.96676e-07
-6.87174e-07
-1.01773e-06
-1.0041e-06
-1.18449e-06
-1.34837e-06
-1.30007e-06
-1.70697e-06
-1.3691e-06
-2.06881e-06
-1.39725e-06
-2.42482e-06
-1.39077e-06
-2.76788e-06
-1.35601e-06
-3.09275e-06
-1.29909e-06
-3.39579e-06
-1.22567e-06
-3.67473e-06
-1.14072e-06
-3.92842e-06
-1.04847e-06
-4.15658e-06
-9.52362e-07
-4.35955e-06
-8.55065e-07
-4.53812e-06
-7.58554e-07
-4.69334e-06
-6.64171e-07
-4.82637e-06
-5.72711e-07
-4.93839e-06
-4.84516e-07
-5.03052e-06
-3.99551e-07
-5.10371e-06
-3.17485e-07
-5.15873e-06
-2.37755e-07
-5.19613e-06
-1.59623e-07
-5.21619e-06
-8.223e-08
-5.21892e-06
-4.63564e-09
-5.20405e-06
7.41338e-08
-5.17102e-06
1.55044e-07
-5.119e-06
2.39004e-07
-5.0469e-06
3.2681e-07
-4.95339e-06
4.19084e-07
-4.83697e-06
5.16194e-07
-4.69602e-06
6.18166e-07
-4.52891e-06
7.24583e-07
-4.33416e-06
8.34481e-07
-4.11055e-06
9.46231e-07
-3.85738e-06
1.05744e-06
-3.57469e-06
1.16488e-06
-3.26354e-06
1.26439e-06
-2.92634e-06
1.35096e-06
-2.56714e-06
1.41875e-06
-2.19187e-06
1.46125e-06
-1.80863e-06
1.47161e-06
-1.42772e-06
1.44297e-06
-1.06167e-06
1.36895e-06
-7.24944e-07
1.24415e-06
-4.33567e-07
1.06478e-06
-2.0444e-07
8.2906e-07
-5.45649e-08
5.37578e-07
1.94025e-07
-4.97203e-08
-1.39949e-07
-1.85627e-07
-3.84242e-07
-3.93073e-07
-5.8923e-07
-6.57044e-07
-7.53759e-07
-9.62931e-07
-8.78603e-07
-1.29708e-06
-9.65919e-07
-1.64721e-06
-1.01897e-06
-2.00268e-06
-1.04178e-06
-2.35463e-06
-1.03883e-06
-2.69594e-06
-1.0147e-06
-3.02118e-06
-9.73848e-07
-3.32645e-06
-9.20409e-07
-3.60912e-06
-8.58052e-07
-3.86768e-06
-7.89915e-07
-4.10147e-06
-7.1857e-07
-4.3105e-06
-6.46039e-07
-4.49522e-06
-5.73825e-07
-4.65643e-06
-5.02964e-07
-4.79506e-06
-4.34087e-07
-4.91209e-06
-3.67484e-07
-5.00848e-06
-3.03159e-07
-5.08507e-06
-2.40894e-07
-5.14253e-06
-1.8029e-07
-5.18134e-06
-1.20817e-07
-5.20172e-06
-6.1849e-08
-5.20366e-06
-2.70128e-09
-5.18686e-06
5.73372e-08
-5.15078e-06
1.18969e-07
-5.09463e-06
1.8285e-07
-5.01737e-06
2.49548e-07
-4.91778e-06
3.19494e-07
-4.7945e-06
3.92921e-07
-4.64614e-06
4.698e-07
-4.47132e-06
5.49768e-07
-4.26889e-06
6.32047e-07
-4.03803e-06
7.15366e-07
-3.77847e-06
7.9789e-07
-3.49076e-06
8.77167e-07
-3.17647e-06
9.50098e-07
-2.83845e-06
1.01295e-06
-2.48114e-06
1.06143e-06
-2.1107e-06
1.09081e-06
-1.73523e-06
1.09614e-06
-1.36477e-06
1.07251e-06
-1.01122e-06
1.0154e-06
-6.88118e-07
9.2105e-07
-4.10191e-07
7.86857e-07
-1.92806e-07
6.11675e-07
-5.12825e-08
3.96055e-07
1.42742e-07
-4.77322e-08
-9.22169e-08
-1.78581e-07
-2.53393e-07
-3.78908e-07
-3.88903e-07
-6.34695e-07
-4.97972e-07
-9.3223e-07
-5.81068e-07
-1.2586e-06
-6.39549e-07
-1.60208e-06
-6.7549e-07
-1.95238e-06
-6.9148e-07
-2.30081e-06
-6.90399e-07
-2.64028e-06
-6.75223e-07
-2.96527e-06
-6.48858e-07
-3.27167e-06
-6.14007e-07
-3.55664e-06
-5.73087e-07
-3.81838e-06
-5.28172e-07
-4.05597e-06
-4.80974e-07
-4.26917e-06
-4.32845e-07
-4.4582e-06
-3.84796e-07
-4.62363e-06
-3.37534e-07
-4.76622e-06
-2.91494e-07
-4.88682e-06
-2.46885e-07
-4.98625e-06
-2.03725e-07
-5.06527e-06
-1.61882e-07
-5.12445e-06
-1.21102e-07
-5.16423e-06
-8.10429e-08
-5.18478e-06
-4.12967e-08
-5.18607e-06
-1.4168e-09
-5.16779e-06
3.90609e-08
-5.12941e-06
8.05938e-08
-5.07017e-06
1.23607e-07
-4.98909e-06
1.68464e-07
-4.88503e-06
2.15434e-07
-4.75676e-06
2.64653e-07
-4.60304e-06
3.16079e-07
-4.42271e-06
3.69445e-07
-4.21487e-06
4.24207e-07
-3.979e-06
4.79495e-07
-3.71518e-06
5.34068e-07
-3.4243e-06
5.86283e-07
-3.10828e-06
6.34077e-07
-2.77031e-06
6.74986e-07
-2.41507e-06
7.06189e-07
-2.04886e-06
7.24604e-07
-1.67974e-06
7.27018e-07
-1.3175e-06
7.10274e-07
-9.73588e-07
6.71483e-07
-6.60802e-07
6.08265e-07
-3.92941e-07
5.18995e-07
-1.84262e-07
4.02996e-07
-4.88843e-08
2.60678e-07
9.38577e-08
-4.64306e-08
-4.57863e-08
-1.73953e-07
-1.25871e-07
-3.69575e-07
-1.9328e-07
-6.1992e-07
-2.47627e-07
-9.11859e-07
-2.8913e-07
-1.23296e-06
-3.18445e-07
-1.57187e-06
-3.36583e-07
-1.91854e-06
-3.44806e-07
-2.26441e-06
-3.44528e-07
-2.60243e-06
-3.37211e-07
-2.927e-06
-3.24287e-07
-3.23391e-06
-3.07094e-07
-3.52017e-06
-2.86831e-07
-3.78381e-06
-2.64528e-07
-4.02374e-06
-2.41041e-07
-4.23954e-06
-2.17047e-07
-4.43128e-06
-1.93054e-07
-4.5994e-06
-1.69419e-07
-4.74452e-06
-1.46365e-07
-4.86741e-06
-1.24001e-07
-4.96879e-06
-1.0234e-07
-5.04936e-06
-8.13199e-08
-5.10964e-06
-6.08182e-08
-5.15002e-06
-4.06665e-08
-5.17065e-06
-2.06643e-08
-5.17148e-06
-5.90965e-10
-5.1522e-06
1.97823e-08
-5.11228e-06
4.06809e-08
-5.05099e-06
6.23134e-08
-4.96738e-06
8.48574e-08
-4.86039e-06