/*--------------------------------*- C++ -*----------------------------------*\
  =========                 |
  \\      /  F ield         | OpenFOAM: The Open Source CFD Toolbox
   \\    /   O peration     | Website:  https://openfoam.org
    \\  /    A nd           | Version:  7
     \\/     M anipulation  |
\*---------------------------------------------------------------------------*/
FoamFile
{
    version     2.0;
    format      ascii;
    class       volScalarField;
    location    "0.0524";
    object      p;
}
// * * * * * * * * * * * * * * * * * * * * * * * * * * * * * * * * * * * * * //

dimensions      [0 2 -2 0 0 0 0];

internalField   nonuniform List<scalar> 
2500
(
1.46145e-05
-6.51202
-9.29731
-10.4933
-11.1589
-11.5654
-11.8292
-12.0141
-12.152
-12.2592
-12.3451
-12.4153
-12.4735
-12.5224
-12.5637
-12.5988
-12.6287
-12.6542
-12.676
-12.6945
-12.7103
-12.7237
-12.735
-12.7447
-12.753
-12.7602
-12.7667
-12.7728
-12.7787
-12.785
-12.7919
-12.7999
-12.8095
-12.8214
-12.836
-12.8544
-12.8774
-12.9064
-12.9431
-12.9898
-13.05
-13.1291
-13.2356
-13.3851
-13.6085
-13.9668
-14.5669
-15.6679
-18.3352
-24.72
-4.95541
-7.67546
-9.18236
-10.1426
-10.8107
-11.2709
-11.5927
-11.8263
-12.0019
-12.1379
-12.2458
-12.3332
-12.4051
-12.465
-12.5155
-12.5584
-12.5949
-12.6263
-12.6533
-12.6765
-12.6967
-12.7142
-12.7295
-12.7429
-12.755
-12.766
-12.7763
-12.7862
-12.7962
-12.8068
-12.8183
-12.8312
-12.8463
-12.8643
-12.8859
-12.9123
-12.9449
-12.9853
-13.0361
-13.1005
-13.1834
-13.292
-13.4373
-13.6368
-13.9196
-14.3335
-14.9436
-15.8319
-17.2521
-19.8511
-7.92475
-8.75731
-9.55846
-10.2396
-10.7801
-11.1904
-11.5003
-11.7373
-11.9217
-12.0675
-12.1849
-12.2808
-12.3602
-12.4266
-12.4828
-12.5307
-12.5718
-12.6071
-12.6378
-12.6645
-12.6878
-12.7083
-12.7265
-12.7428
-12.7577
-12.7715
-12.7846
-12.7974
-12.8104
-12.8241
-12.8389
-12.8554
-12.8744
-12.8965
-12.9229
-12.9545
-12.993
-13.0403
-13.099
-13.1724
-13.2655
-13.3849
-13.5403
-13.7452
-14.0191
-14.3881
-14.8807
-15.5088
-16.2545
-17.0178
-9.43405
-9.64759
-10.0669
-10.512
-10.9053
-11.2327
-11.4995
-11.7155
-11.8908
-12.0339
-12.1518
-12.2498
-12.3321
-12.4016
-12.461
-12.5119
-12.5558
-12.594
-12.6273
-12.6564
-12.6822
-12.705
-12.7255
-12.744
-12.761
-12.777
-12.7923
-12.8074
-12.8227
-12.8388
-12.8561
-12.8752
-12.8969
-12.922
-12.9514
-12.9864
-13.0284
-13.0792
-13.1412
-13.2176
-13.3121
-13.4302
-13.5784
-13.7652
-14.0001
-14.2926
-14.6483
-15.0544
-15.4367
-15.6145
-10.3194
-10.3191
-10.5232
-10.8002
-11.0752
-11.3256
-11.5445
-11.7318
-11.8903
-12.0242
-12.1374
-12.2335
-12.3155
-12.3859
-12.4465
-12.499
-12.5448
-12.5848
-12.6199
-12.651
-12.6786
-12.7033
-12.7256
-12.7459
-12.7648
-12.7826
-12.7997
-12.8167
-12.8339
-12.8518
-12.8711
-12.8922
-12.9159
-12.943
-12.9745
-13.0114
-13.055
-13.1071
-13.1696
-13.2449
-13.3361
-13.4465
-13.5803
-13.7414
-13.9329
-14.1546
-14.4004
-14.6495
-14.8293
-14.8109
-10.8859
-10.8119
-10.9009
-11.0686
-11.2567
-11.4433
-11.6177
-11.7746
-11.9131
-12.0341
-12.1392
-12.2305
-12.3098
-12.3788
-12.4391
-12.4919
-12.5384
-12.5794
-12.6156
-12.648
-12.6769
-12.7029
-12.7266
-12.7484
-12.7686
-12.7878
-12.8064
-12.8248
-12.8434
-12.8627
-12.8834
-12.9058
-12.9309
-12.9591
-12.9915
-13.029
-13.0728
-13.1242
-13.1848
-13.2563
-13.3408
-13.4401
-13.5563
-13.6902
-13.8412
-14.0046
-14.1705
-14.3183
-14.3919
-14.3103
-11.2678
-11.1771
-11.2076
-11.3069
-11.4336
-11.5702
-11.706
-11.8345
-11.9525
-12.0589
-12.1541
-12.2385
-12.3134
-12.3796
-12.4382
-12.4902
-12.5363
-12.5774
-12.6141
-12.6471
-12.6767
-12.7036
-12.7282
-12.751
-12.7722
-12.7925
-12.812
-12.8314
-12.851
-12.8712
-12.8927
-12.9159
-12.9415
-12.9701
-13.0025
-13.0396
-13.0822
-13.1315
-13.1885
-13.2544
-13.3303
-13.4171
-13.5151
-13.6236
-13.7399
-13.8579
-13.9677
-14.0529
-14.0741
-13.9816
-11.5408
-11.4539
-11.4553
-11.5122
-11.5966
-11.6954
-11.7998
-11.9033
-12.0021
-12.0941
-12.1785
-12.2552
-12.3244
-12.3867
-12.4426
-12.4928
-12.5379
-12.5784
-12.6149
-12.6479
-12.6778
-12.7051
-12.7302
-12.7535
-12.7754
-12.7962
-12.8164
-12.8363
-12.8564
-12.8772
-12.899
-12.9224
-12.948
-12.9763
-13.008
-13.0437
-13.0843
-13.1304
-13.1828
-13.2422
-13.309
-13.3832
-13.4644
-13.5507
-13.6389
-13.723
-13.7947
-13.8418
-13.838
-13.7526
-11.7465
-11.669
-11.6562
-11.6871
-11.7425
-11.8136
-11.8931
-11.9756
-12.0573
-12.1357
-12.2095
-12.278
-12.3411
-12.3988
-12.4513
-12.4991
-12.5424
-12.5817
-12.6175
-12.65
-12.6797
-12.707
-12.7322
-12.7557
-12.7778
-12.7989
-12.8193
-12.8395
-12.8598
-12.8806
-12.9023
-12.9255
-12.9506
-12.978
-13.0084
-13.0423
-13.0802
-13.1226
-13.17
-13.2226
-13.2804
-13.343
-13.4092
-13.4772
-13.5435
-13.6029
-13.6489
-13.6732
-13.658
-13.584
-11.9079
-11.8401
-11.8209
-11.8357
-11.8715
-11.9222
-11.9825
-12.0478
-12.1147
-12.1808
-12.2446
-12.3052
-12.3619
-12.4146
-12.4634
-12.5082
-12.5493
-12.587
-12.6215
-12.6532
-12.6823
-12.7091
-12.7341
-12.7574
-12.7794
-12.8004
-12.8208
-12.8408
-12.8609
-12.8815
-12.9028
-12.9254
-12.9496
-12.9758
-13.0045
-13.0362
-13.071
-13.1095
-13.1517
-13.1977
-13.2472
-13.2994
-13.3531
-13.4062
-13.4557
-13.4974
-13.5264
-13.537
-13.5174
-13.4546
-12.0383
-11.9793
-11.9575
-11.9625
-11.9849
-12.0208
-12.0662
-12.1176
-12.1721
-12.2275
-12.2821
-12.3351
-12.3856
-12.4332
-12.4779
-12.5194
-12.558
-12.5936
-12.6266
-12.657
-12.6852
-12.7113
-12.7356
-12.7585
-12.7801
-12.8007
-12.8207
-12.8404
-12.8601
-12.8801
-12.9007
-12.9224
-12.9454
-12.9701
-12.9969
-13.0261
-13.0578
-13.0923
-13.1296
-13.1694
-13.2114
-13.2547
-13.2979
-13.3393
-13.3762
-13.4052
-13.423
-13.4256
-13.4049
-13.3518
-12.1461
-12.0946
-12.0723
-12.0712
-12.0845
-12.1096
-12.1437
-12.184
-12.2281
-12.2741
-12.3206
-12.3665
-12.411
-12.4537
-12.4942
-12.5323
-12.568
-12.6014
-12.6325
-12.6614
-12.6883
-12.7133
-12.7368
-12.7589
-12.7798
-12.7999
-12.8193
-12.8384
-12.8573
-12.8765
-12.8963
-12.9168
-12.9385
-12.9615
-12.9863
-13.0129
-13.0415
-13.0722
-13.1048
-13.1391
-13.1745
-13.2102
-13.245
-13.2772
-13.3046
-13.3247
-13.335
-13.3331
-13.313
-13.268
-12.2368
-12.1916
-12.1698
-12.165
-12.1721
-12.1894
-12.2148
-12.2462
-12.2818
-12.3198
-12.3591
-12.3986
-12.4375
-12.4753
-12.5117
-12.5463
-12.5791
-12.61
-12.6389
-12.6661
-12.6915
-12.7153
-12.7377
-12.7588
-12.7788
-12.798
-12.8166
-12.8348
-12.8529
-12.8712
-12.8898
-12.9091
-12.9292
-12.9505
-12.9732
-12.9972
-13.0228
-13.0499
-13.0783
-13.1077
-13.1375
-13.167
-13.1949
-13.2199
-13.2403
-13.2541
-13.2596
-13.2552
-13.2364
-13.1983
-12.3141
-12.2743
-12.2535
-12.2466
-12.2495
-12.2611
-12.2799
-12.3043
-12.3328
-12.364
-12.397
-12.4307
-12.4644
-12.4977
-12.53
-12.5611
-12.5909
-12.6191
-12.6459
-12.6711
-12.6948
-12.7171
-12.7382
-12.7581
-12.7771
-12.7952
-12.8128
-12.83
-12.8471
-12.8642
-12.8816
-12.8995
-12.9181
-12.9376
-12.9581
-12.9798
-13.0025
-13.0263
-13.051
-13.0761
-13.1011
-13.1253
-13.1478
-13.1673
-13.1825
-13.1919
-13.1943
-13.1886
-13.1716
-13.1392
-12.3808
-12.3456
-12.3262
-12.3182
-12.3182
-12.3256
-12.3393
-12.3581
-12.3808
-12.4064
-12.4338
-12.4624
-12.4914
-12.5203
-12.5488
-12.5765
-12.6032
-12.6288
-12.6531
-12.6763
-12.6981
-12.7188
-12.7384
-12.757
-12.7747
-12.7917
-12.8082
-12.8242
-12.8401
-12.856
-12.8721
-12.8885
-12.9055
-12.9232
-12.9417
-12.961
-12.9811
-13.0019
-13.0232
-13.0446
-13.0656
-13.0856
-13.1037
-13.1189
-13.1303
-13.1367
-13.1371
-13.131
-13.1159
-13.0884
-12.4388
-12.4078
-12.3899
-12.3814
-12.3795
-12.3839
-12.3937
-12.4081
-12.426
-12.4467
-12.4694
-12.4934
-12.5181
-12.543
-12.5678
-12.5922
-12.6159
-12.6388
-12.6608
-12.6817
-12.7016
-12.7206
-12.7385
-12.7557
-12.772
-12.7877
-12.8028
-12.8177
-12.8323
-12.8468
-12.8615
-12.8765
-12.8918
-12.9077
-12.9242
-12.9413
-12.959
-12.9771
-12.9954
-13.0136
-13.0313
-13.0477
-13.0624
-13.0744
-13.0829
-13.0872
-13.0865
-13.0805
-13.0673
-13.0441
-12.4899
-12.4625
-12.4462
-12.4376
-12.4346
-12.4367
-12.4436
-12.4544
-12.4685
-12.4851
-12.5036
-12.5236
-12.5444
-12.5656
-12.587
-12.6082
-12.629
-12.6492
-12.6687
-12.6874
-12.7053
-12.7224
-12.7387
-12.7542
-12.769
-12.7833
-12.7971
-12.8105
-12.8238
-12.8369
-12.8502
-12.8636
-12.8773
-12.8915
-12.9061
-12.9211
-12.9365
-12.9522
-12.9679
-12.9833
-12.9981
-13.0117
-13.0236
-13.0332
-13.0397
-13.0425
-13.0413
-13.0357
-13.0243
-13.0048
-12.5351
-12.5111
-12.4963
-12.4881
-12.4843
-12.4849
-12.4895
-12.4975
-12.5084
-12.5215
-12.5365
-12.5529
-12.5702
-12.588
-12.6062
-12.6243
-12.6423
-12.6599
-12.6769
-12.6934
-12.7092
-12.7244
-12.7389
-12.7527
-12.766
-12.7788
-12.7911
-12.8031
-12.8149
-12.8266
-12.8384
-12.8502
-12.8624
-12.8748
-12.8875
-12.9006
-12.9139
-12.9274
-12.9408
-12.9538
-12.9662
-12.9775
-12.9872
-12.9948
-12.9998
-13.0017
-13.0003
-12.9954
-12.9858
-12.9697
-12.5755
-12.5546
-12.5414
-12.5337
-12.5296
-12.5291
-12.532
-12.5377
-12.546
-12.5562
-12.5681
-12.5813
-12.5954
-12.6102
-12.6253
-12.6406
-12.6558
-12.6708
-12.6855
-12.6998
-12.7135
-12.7267
-12.7394
-12.7515
-12.7631
-12.7743
-12.785
-12.7956
-12.8059
-12.8161
-12.8263
-12.8366
-12.8471
-12.8578
-12.8688
-12.88
-12.8913
-12.9028
-12.9141
-12.9251
-12.9354
-12.9447
-12.9526
-12.9587
-12.9627
-12.9641
-12.9628
-12.9586
-12.9508
-12.9378
-12.612
-12.5939
-12.5824
-12.5752
-12.5711
-12.57
-12.5715
-12.5755
-12.5815
-12.5893
-12.5985
-12.6089
-12.6202
-12.6321
-12.6444
-12.657
-12.6696
-12.6822
-12.6945
-12.7065
-12.7182
-12.7294
-12.7402
-12.7505
-12.7604
-12.77
-12.7792
-12.7881
-12.7969
-12.8055
-12.8142
-12.8229
-12.8317
-12.8408
-12.85
-12.8594
-12.8689
-12.8785
-12.8879
-12.897
-12.9056
-12.9132
-12.9197
-12.9247
-12.9279
-12.929
-12.9279
-12.9247
-12.9186
-12.9085
-12.6451
-12.6298
-12.6199
-12.6135
-12.6095
-12.6079
-12.6085
-12.611
-12.6153
-12.6209
-12.6278
-12.6357
-12.6444
-12.6537
-12.6635
-12.6735
-12.6837
-12.6938
-12.7039
-12.7137
-12.7233
-12.7325
-12.7414
-12.75
-12.7581
-12.766
-12.7736
-12.7809
-12.7881
-12.7951
-12.8022
-12.8093
-12.8165
-12.8238
-12.8313
-12.839
-12.8467
-12.8545
-12.8622
-12.8696
-12.8766
-12.8828
-12.8881
-12.8921
-12.8948
-12.8958
-12.8952
-12.8929
-12.8884
-12.8811
-12.6756
-12.6629
-12.6546
-12.6491
-12.6454
-12.6436
-12.6434
-12.6448
-12.6475
-12.6514
-12.6562
-12.6619
-12.6683
-12.6752
-12.6825
-12.6902
-12.698
-12.7059
-12.7137
-12.7214
-12.7289
-12.7362
-12.7432
-12.7499
-12.7564
-12.7625
-12.7684
-12.7741
-12.7796
-12.785
-12.7904
-12.7959
-12.8014
-12.807
-12.8128
-12.8187
-12.8248
-12.8309
-12.8369
-12.8427
-12.8482
-12.8532
-12.8574
-12.8608
-12.863
-12.8641
-12.864
-12.8626
-12.8598
-12.8551
-12.704
-12.6939
-12.6871
-12.6825
-12.6792
-12.6773
-12.6767
-12.6771
-12.6785
-12.6808
-12.6838
-12.6875
-12.6918
-12.6965
-12.7016
-12.707
-12.7126
-12.7183
-12.724
-12.7296
-12.7352
-12.7405
-12.7456
-12.7505
-12.7552
-12.7596
-12.7638
-12.7677
-12.7716
-12.7753
-12.779
-12.7828
-12.7866
-12.7905
-12.7945
-12.7987
-12.803
-12.8075
-12.8119
-12.8162
-12.8204
-12.8242
-12.8275
-12.8302
-12.8322
-12.8334
-12.8338
-12.8335
-12.8323
-12.8301
-12.7307
-12.7231
-12.7179
-12.7142
-12.7115
-12.7096
-12.7086
-12.7083
-12.7086
-12.7094
-12.7108
-12.7127
-12.715
-12.7177
-12.7207
-12.724
-12.7275
-12.7311
-12.7348
-12.7384
-12.742
-12.7454
-12.7487
-12.7518
-12.7547
-12.7573
-12.7597
-12.762
-12.7641
-12.7661
-12.7681
-12.7701
-12.7721
-12.7742
-12.7765
-12.7789
-12.7815
-12.7843
-12.7871
-12.7899
-12.7928
-12.7954
-12.7979
-12.8
-12.8018
-12.8032
-12.8042
-12.8048
-12.8052
-12.8055
-12.7563
-12.7511
-12.7475
-12.7448
-12.7426
-12.7409
-12.7396
-12.7386
-12.7379
-12.7375
-12.7374
-12.7376
-12.7381
-12.7389
-12.74
-12.7413
-12.7427
-12.7444
-12.746
-12.7478
-12.7494
-12.751
-12.7525
-12.7537
-12.7548
-12.7557
-12.7564
-12.7569
-12.7572
-12.7575
-12.7577
-12.7578
-12.758
-12.7583
-12.7588
-12.7594
-12.7602
-12.7612
-12.7624
-12.7637
-12.7652
-12.7667
-12.7683
-12.7699
-12.7715
-12.773
-12.7746
-12.7763
-12.7783
-12.7811
-12.7811
-12.7783
-12.7763
-12.7746
-12.773
-12.7715
-12.7699
-12.7683
-12.7668
-12.7652
-12.7637
-12.7624
-12.7612
-12.7602
-12.7594
-12.7588
-12.7583
-12.758
-12.7578
-12.7577
-12.7575
-12.7572
-12.7569
-12.7564
-12.7557
-12.7548
-12.7537
-12.7525
-12.751
-12.7494
-12.7478
-12.746
-12.7444
-12.7427
-12.7413
-12.74
-12.7389
-12.7381
-12.7376
-12.7374
-12.7375
-12.7379
-12.7386
-12.7395
-12.7409
-12.7426
-12.7448
-12.7475
-12.7511
-12.7563
-12.8055
-12.8052
-12.8048
-12.8042
-12.8032
-12.8018
-12.8
-12.7979
-12.7954
-12.7928
-12.7899
-12.7871
-12.7843
-12.7815
-12.7789
-12.7765
-12.7742
-12.7721
-12.7701
-12.7681
-12.7661
-12.7641
-12.762
-12.7597
-12.7573
-12.7547
-12.7518
-12.7487
-12.7454
-12.742
-12.7384
-12.7348
-12.7311
-12.7275
-12.724
-12.7207
-12.7177
-12.715
-12.7127
-12.7108
-12.7094
-12.7085
-12.7082
-12.7086
-12.7096
-12.7115
-12.7142
-12.7179
-12.7231
-12.7307
-12.8301
-12.8323
-12.8335
-12.8338
-12.8334
-12.8322
-12.8302
-12.8275
-12.8242
-12.8204
-12.8162
-12.8119
-12.8075
-12.803
-12.7987
-12.7945
-12.7905
-12.7866
-12.7828
-12.779
-12.7753
-12.7716
-12.7677
-12.7638
-12.7596
-12.7552
-12.7505
-12.7456
-12.7405
-12.7352
-12.7296
-12.724
-12.7183
-12.7126
-12.707
-12.7016
-12.6965
-12.6918
-12.6875
-12.6838
-12.6808
-12.6785
-12.6771
-12.6767
-12.6773
-12.6792
-12.6825
-12.6871
-12.6939
-12.704
-12.8551
-12.8598
-12.8627
-12.864
-12.8641
-12.863
-12.8608
-12.8574
-12.8532
-12.8482
-12.8427
-12.8369
-12.8309
-12.8248
-12.8187
-12.8128
-12.807
-12.8014
-12.7959
-12.7904
-12.785
-12.7796
-12.7741
-12.7684
-12.7625
-12.7564
-12.7499
-12.7432
-12.7362
-12.7289
-12.7214
-12.7137
-12.7059
-12.698
-12.6902
-12.6825
-12.6752
-12.6683
-12.6619
-12.6562
-12.6514
-12.6475
-12.6448
-12.6434
-12.6436
-12.6454
-12.6491
-12.6546
-12.6629
-12.6756
-12.8811
-12.8884
-12.8929
-12.8952
-12.8958
-12.8948
-12.8922
-12.8881
-12.8828
-12.8766
-12.8696
-12.8622
-12.8545
-12.8467
-12.839
-12.8313
-12.8238
-12.8165
-12.8093
-12.8022
-12.7951
-12.7881
-12.7809
-12.7736
-12.766
-12.7581
-12.75
-12.7414
-12.7325
-12.7233
-12.7137
-12.7039
-12.6938
-12.6837
-12.6735
-12.6635
-12.6537
-12.6444
-12.6357
-12.6278
-12.6209
-12.6152
-12.611
-12.6085
-12.6079
-12.6095
-12.6135
-12.6199
-12.6298
-12.6451
-12.9085
-12.9186
-12.9247
-12.9279
-12.929
-12.9279
-12.9247
-12.9197
-12.9132
-12.9056
-12.897
-12.8879
-12.8785
-12.8689
-12.8594
-12.85
-12.8408
-12.8317
-12.8229
-12.8142
-12.8055
-12.7969
-12.7881
-12.7792
-12.77
-12.7604
-12.7505
-12.7402
-12.7294
-12.7182
-12.7065
-12.6945
-12.6822
-12.6696
-12.657
-12.6444
-12.6321
-12.6202
-12.6089
-12.5985
-12.5893
-12.5815
-12.5755
-12.5715
-12.5699
-12.5711
-12.5752
-12.5824
-12.5939
-12.612
-12.9378
-12.9508
-12.9587
-12.9628
-12.9641
-12.9627
-12.9587
-12.9526
-12.9447
-12.9354
-12.9251
-12.9141
-12.9028
-12.8913
-12.88
-12.8688
-12.8578
-12.8471
-12.8366
-12.8263
-12.8161
-12.8059
-12.7956
-12.785
-12.7743
-12.7631
-12.7515
-12.7393
-12.7267
-12.7135
-12.6998
-12.6855
-12.6708
-12.6558
-12.6406
-12.6253
-12.6102
-12.5954
-12.5813
-12.5681
-12.5562
-12.5459
-12.5377
-12.532
-12.5291
-12.5296
-12.5337
-12.5414
-12.5546
-12.5755
-12.9697
-12.9858
-12.9954
-13.0003
-13.0017
-12.9998
-12.9948
-12.9872
-12.9775
-12.9662
-12.9538
-12.9408
-12.9274
-12.9139
-12.9006
-12.8875
-12.8748
-12.8624
-12.8502
-12.8384
-12.8266
-12.8149
-12.8031
-12.7911
-12.7788
-12.766
-12.7527
-12.7389
-12.7244
-12.7092
-12.6934
-12.6769
-12.6599
-12.6423
-12.6243
-12.6062
-12.588
-12.5702
-12.5529
-12.5365
-12.5215
-12.5084
-12.4975
-12.4895
-12.4849
-12.4843
-12.4881
-12.4963
-12.5111
-12.5351
-13.0048
-13.0243
-13.0357
-13.0413
-13.0425
-13.0397
-13.0332
-13.0236
-13.0117
-12.9981
-12.9833
-12.9679
-12.9522
-12.9365
-12.9211
-12.9061
-12.8915
-12.8773
-12.8636
-12.8502
-12.8369
-12.8238
-12.8105
-12.7971
-12.7833
-12.769
-12.7542
-12.7387
-12.7224
-12.7053
-12.6874
-12.6687
-12.6492
-12.629
-12.6082
-12.587
-12.5656
-12.5444
-12.5236
-12.5036
-12.4851
-12.4685
-12.4544
-12.4436
-12.4367
-12.4346
-12.4376
-12.4462
-12.4625
-12.4899
-13.0441
-13.0673
-13.0806
-13.0865
-13.0872
-13.0829
-13.0744
-13.0624
-13.0477
-13.0313
-13.0136
-12.9954
-12.9771
-12.959
-12.9413
-12.9242
-12.9077
-12.8918
-12.8765
-12.8615
-12.8468
-12.8323
-12.8177
-12.8028
-12.7877
-12.772
-12.7557
-12.7385
-12.7206
-12.7016
-12.6817
-12.6608
-12.6388
-12.6159
-12.5922
-12.5678
-12.543
-12.5181
-12.4934
-12.4694
-12.4467
-12.426
-12.4081
-12.3937
-12.3839
-12.3795
-12.3814
-12.3899
-12.4078
-12.4388
-13.0884
-13.1159
-13.131
-13.1371
-13.1367
-13.1303
-13.1189
-13.1037
-13.0856
-13.0656
-13.0446
-13.0232
-13.0019
-12.9811
-12.961
-12.9417
-12.9232
-12.9055
-12.8885
-12.8721
-12.856
-12.8401
-12.8242
-12.8082
-12.7917
-12.7747
-12.757
-12.7384
-12.7188
-12.6981
-12.6763
-12.6531
-12.6288
-12.6032
-12.5765
-12.5488
-12.5203
-12.4914
-12.4624
-12.4338
-12.4064
-12.3808
-12.3581
-12.3393
-12.3256
-12.3182
-12.3182
-12.3262
-12.3456
-12.3808
-13.1392
-13.1716
-13.1886
-13.1943
-13.1919
-13.1825
-13.1673
-13.1478
-13.1253
-13.1011
-13.0761
-13.051
-13.0263
-13.0025
-12.9798
-12.9581
-12.9376
-12.9181
-12.8995
-12.8816
-12.8642
-12.8471
-12.83
-12.8128
-12.7952
-12.7771
-12.7581
-12.7382
-12.7171
-12.6948
-12.671
-12.6459
-12.6191
-12.5909
-12.5611
-12.53
-12.4977
-12.4644
-12.4307
-12.397
-12.364
-12.3327
-12.3043
-12.2799
-12.2611
-12.2495
-12.2466
-12.2535
-12.2743
-12.3141
-13.1983
-13.2364
-13.2552
-13.2596
-13.2541
-13.2403
-13.2199
-13.1949
-13.167
-13.1375
-13.1077
-13.0783
-13.0499
-13.0228
-12.9972
-12.9732
-12.9505
-12.9292
-12.9091
-12.8898
-12.8711
-12.8529
-12.8348
-12.8166
-12.798
-12.7788
-12.7588
-12.7376
-12.7153
-12.6915
-12.6661
-12.6389
-12.61
-12.5791
-12.5463
-12.5117
-12.4753
-12.4375
-12.3986
-12.3591
-12.3198
-12.2818
-12.2462
-12.2148
-12.1894
-12.1721
-12.165
-12.1698
-12.1916
-12.2368
-13.268
-13.313
-13.3331
-13.335
-13.3247
-13.3046
-13.2772
-13.245
-13.2102
-13.1745
-13.1391
-13.1048
-13.0722
-13.0415
-13.0129
-12.9863
-12.9615
-12.9385
-12.9168
-12.8962
-12.8765
-12.8573
-12.8383
-12.8193
-12.7999
-12.7798
-12.7589
-12.7368
-12.7133
-12.6883
-12.6614
-12.6325
-12.6014
-12.568
-12.5323
-12.4942
-12.4537
-12.411
-12.3665
-12.3206
-12.2741
-12.2281
-12.184
-12.1437
-12.1096
-12.0845
-12.0711
-12.0722
-12.0946
-12.1461
-13.3518
-13.4049
-13.4256
-13.423
-13.4053
-13.3762
-13.3393
-13.2979
-13.2547
-13.2114
-13.1694
-13.1296
-13.0923
-13.0578
-13.0261
-12.9969
-12.9701
-12.9454
-12.9224
-12.9007
-12.8801
-12.8601
-12.8404
-12.8207
-12.8007
-12.7801
-12.7584
-12.7356
-12.7113
-12.6852
-12.657
-12.6266
-12.5936
-12.558
-12.5194
-12.4779
-12.4332
-12.3855
-12.335
-12.2821
-12.2274
-12.1721
-12.1176
-12.0662
-12.0208
-11.9849
-11.9625
-11.9575
-11.9793
-12.0383
-13.4546
-13.5174
-13.537
-13.5264
-13.4974
-13.4557
-13.4062
-13.3531
-13.2994
-13.2472
-13.1977
-13.1517
-13.1095
-13.071
-13.0362
-13.0045
-12.9758
-12.9496
-12.9254
-12.9028
-12.8815
-12.8609
-12.8408
-12.8208
-12.8004
-12.7794
-12.7574
-12.7341
-12.7091
-12.6823
-12.6532
-12.6215
-12.587
-12.5493
-12.5082
-12.4633
-12.4146
-12.3619
-12.3052
-12.2446
-12.1808
-12.1147
-12.0478
-11.9825
-11.9222
-11.8715
-11.8357
-11.8209
-11.8401
-11.9078
-13.584
-13.658
-13.6732
-13.6489
-13.6029
-13.5435
-13.4772
-13.4092
-13.343
-13.2804
-13.2226
-13.17
-13.1226
-13.0802
-13.0423
-13.0084
-12.978
-12.9506
-12.9255
-12.9023
-12.8806
-12.8598
-12.8395
-12.8193
-12.7989
-12.7778
-12.7557
-12.7322
-12.707
-12.6797
-12.65
-12.6175
-12.5817
-12.5424
-12.4991
-12.4513
-12.3988
-12.3411
-12.278
-12.2095
-12.1356
-12.0573
-11.9756
-11.8931
-11.8135
-11.7425
-11.6871
-11.6562
-11.669
-11.7465
-13.7526
-13.838
-13.8418
-13.7947
-13.723
-13.6389
-13.5507
-13.4644
-13.3832
-13.309
-13.2422
-13.1829
-13.1304
-13.0843
-13.0437
-13.008
-12.9763
-12.948
-12.9224
-12.899
-12.8772
-12.8564
-12.8363
-12.8164
-12.7962
-12.7754
-12.7535
-12.7302
-12.7051
-12.6778
-12.6479
-12.6149
-12.5784
-12.5379
-12.4928
-12.4426
-12.3867
-12.3244
-12.2551
-12.1785
-12.0941
-12.0021
-11.9033
-11.7998
-11.6954
-11.5965
-11.5122
-11.4553
-11.4539
-11.5408
-13.9816
-14.0741
-14.0529
-13.9677
-13.8579
-13.7399
-13.6236
-13.5151
-13.4171
-13.3303
-13.2544
-13.1885
-13.1315
-13.0822
-13.0396
-13.0025
-12.9701
-12.9415
-12.9159
-12.8927
-12.8712
-12.851
-12.8314
-12.812
-12.7925
-12.7722
-12.751
-12.7282
-12.7036
-12.6767
-12.647
-12.6141
-12.5774
-12.5363
-12.4902
-12.4382
-12.3796
-12.3134
-12.2385
-12.1541
-12.0589
-11.9525
-11.8345
-11.706
-11.5702
-11.4336
-11.3068
-11.2076
-11.1771
-11.2678
-14.3103
-14.3919
-14.3183
-14.1705
-14.0046
-13.8412
-13.6902
-13.5563
-13.4401
-13.3408
-13.2563
-13.1848
-13.1242
-13.0728
-13.029
-12.9915
-12.9591
-12.9309
-12.9058
-12.8834
-12.8627
-12.8434
-12.8248
-12.8064
-12.7878
-12.7686
-12.7483
-12.7266
-12.7029
-12.6769
-12.6479
-12.6156
-12.5793
-12.5384
-12.4919
-12.4391
-12.3788
-12.3098
-12.2305
-12.1392
-12.0341
-11.9131
-11.7746
-11.6176
-11.4433
-11.2567
-11.0686
-10.9009
-10.8119
-10.8858
-14.8109
-14.8293
-14.6495
-14.4004
-14.1546
-13.9329
-13.7414
-13.5803
-13.4465
-13.3361
-13.2449
-13.1696
-13.1071
-13.055
-13.0114
-12.9745
-12.943
-12.9159
-12.8922
-12.8711
-12.8518
-12.8339
-12.8167
-12.7997
-12.7826
-12.7648
-12.7459
-12.7256
-12.7033
-12.6786
-12.651
-12.6199
-12.5848
-12.5447
-12.499
-12.4465
-12.3859
-12.3155
-12.2335
-12.1374
-12.0242
-11.8903
-11.7318
-11.5445
-11.3255
-11.0752
-10.8002
-10.5232
-10.3191
-10.3194
-15.6145
-15.4367
-15.0544
-14.6483
-14.2926
-14.0001
-13.7652
-13.5784
-13.4302
-13.3121
-13.2176
-13.1412
-13.0792
-13.0284
-12.9864
-12.9514
-12.922
-12.8969
-12.8752
-12.8561
-12.8388
-12.8227
-12.8074
-12.7923
-12.777
-12.761
-12.744
-12.7254
-12.705
-12.6821
-12.6564
-12.6272
-12.594
-12.5558
-12.5119
-12.461
-12.4016
-12.332
-12.2498
-12.1518
-12.0339
-11.8908
-11.7155
-11.4995
-11.2327
-10.9052
-10.512
-10.0668
-9.64757
-9.43403
-17.0178
-16.2545
-15.5088
-14.8807
-14.3881
-14.0191
-13.7452
-13.5403
-13.3849
-13.2655
-13.1724
-13.099
-13.0403
-12.993
-12.9545
-12.9229
-12.8965
-12.8744
-12.8554
-12.8389
-12.8241
-12.8104
-12.7974
-12.7846
-12.7715
-12.7577
-12.7428
-12.7265
-12.7083
-12.6878
-12.6645
-12.6378
-12.6071
-12.5718
-12.5307
-12.4828
-12.4266
-12.3602
-12.2808
-12.1849
-12.0675
-11.9217
-11.7373
-11.5003
-11.1904
-10.7801
-10.2396
-9.55844
-8.75729
-7.92472
-19.8511
-17.2521
-15.8319
-14.9436
-14.3335
-13.9196
-13.6368
-13.4373
-13.292
-13.1834
-13.1005
-13.0361
-12.9853
-12.9449
-12.9123
-12.8859
-12.8643
-12.8463
-12.8312
-12.8182
-12.8068
-12.7962
-12.7862
-12.7763
-12.766
-12.755
-12.7429
-12.7295
-12.7142
-12.6967
-12.6765
-12.6533
-12.6263
-12.5949
-12.5584
-12.5155
-12.465
-12.4051
-12.3332
-12.2458
-12.1379
-12.0019
-11.8263
-11.5927
-11.2709
-10.8107
-10.1426
-9.18233
-7.67544
-4.95538
-24.72
-18.3352
-15.6679
-14.5669
-13.9668
-13.6085
-13.3851
-13.2356
-13.1291
-13.0501
-12.9898
-12.9431
-12.9064
-12.8774
-12.8544
-12.836
-12.8214
-12.8095
-12.7999
-12.7919
-12.785
-12.7787
-12.7728
-12.7667
-12.7602
-12.753
-12.7447
-12.735
-12.7237
-12.7103
-12.6945
-12.676
-12.6542
-12.6287
-12.5988
-12.5637
-12.5224
-12.4735
-12.4153
-12.3451
-12.2592
-12.152
-12.0141
-11.8292
-11.5654
-11.1589
-10.4933
-9.29728
-6.51199
5.3327e-05
)
;

boundaryField
{
    movingWallTop
    {
        type            zeroGradient;
    }
    movingWallBottom
    {
        type            zeroGradient;
    }
    fixedWalls
    {
        type            zeroGradient;
    }
    frontAndBack
    {
        type            empty;
    }
}


// ************************************************************************* //
