/*--------------------------------*- C++ -*----------------------------------*\
  =========                 |
  \\      /  F ield         | OpenFOAM: The Open Source CFD Toolbox
   \\    /   O peration     | Website:  https://openfoam.org
    \\  /    A nd           | Version:  7
     \\/     M anipulation  |
\*---------------------------------------------------------------------------*/
FoamFile
{
    version     2.0;
    format      ascii;
    class       volScalarField;
    location    "0.0348";
    object      p;
}
// * * * * * * * * * * * * * * * * * * * * * * * * * * * * * * * * * * * * * //

dimensions      [0 2 -2 0 0 0 0];

internalField   nonuniform List<scalar> 
2500
(
-8.08862e-06
-0.000522207
-0.00198107
-0.00408255
-0.00650678
-0.00895798
-0.0112477
-0.0132168
-0.014748
-0.0157581
-0.0161907
-0.0160114
-0.015204
-0.0137669
-0.0117115
-0.00905972
-0.00584236
-0.00209794
0.00212851
0.00678641
0.0118204
0.017171
0.0227753
0.0285675
0.0344795
0.0404412
0.0463816
0.0522287
0.0579107
0.0633569
0.0684978
0.0732668
0.077601
0.0814423
0.0847388
0.0874464
0.0895301
0.0909658
0.0917426
0.0918641
0.0913514
0.090246
0.0886127
0.0865444
0.0841675
0.0816486
0.0791941
0.0770856
0.0756455
0.075168
0.000495105
-1.31411e-05
-0.00119598
-0.0028487
-0.00473354
-0.0066525
-0.00844539
-0.00998009
-0.0111535
-0.0118885
-0.0121303
-0.011843
-0.011007
-0.00961647
-0.00767767
-0.00520694
-0.00222939
0.00122234
0.00510917
0.0093864
0.0140046
0.0189101
0.024046
0.0293523
0.0347669
0.0402259
0.0456642
0.0510165
0.0562176
0.0612031
0.0659107
0.0702808
0.0742575
0.0777899
0.0808332
0.0833502
0.0853122
0.0867014
0.0875117
0.0877509
0.0874426
0.0866286
0.0853706
0.0837535
0.0818882
0.0799135
0.0779955
0.0763306
0.0751644
0.0746902
0.00195169
0.00116653
-2.34585e-05
-0.00151455
-0.00315831
-0.00480414
-0.00632206
-0.00760336
-0.00856005
-0.00912385
-0.00924467
-0.00888855
-0.00803579
-0.00667918
-0.00482252
-0.00247913
0.000329411
0.00357431
0.00722047
0.0112274
0.0155498
0.0201384
0.0249406
0.0299008
0.0349613
0.0400628
0.0451449
0.0501467
0.0550078
0.0596688
0.0640721
0.068163
0.0718904
0.0752083
0.0780762
0.0804613
0.0823389
0.0836941
0.0845234
0.0848357
0.0846544
0.0840186
0.0829846
0.0816277
0.0800429
0.0783452
0.0766694
0.0751683
0.0739975
0.0732508
0.00407477
0.00283088
0.00144738
-6.89971e-05
-0.00165499
-0.0031926
-0.00457718
-0.00572152
-0.00655296
-0.00701356
-0.00705995
-0.00666215
-0.00580244
-0.00447413
-0.00268037
-0.00043302
0.00224841
0.00533763
0.00880238
0.0126052
0.016704
0.0210528
0.0256025
0.030301
0.0350941
0.039926
0.0447399
0.0494787
0.0540855
0.0585045
0.0626818
0.0665661
0.0701099
0.0732701
0.0760096
0.0782978
0.0801122
0.0814395
0.0822765
0.0826317
0.0825262
0.0819948
0.0810869
0.0798672
0.0784154
0.0768252
0.0752064
0.0736803
0.0723172
0.0711299
0.00656864
0.00476286
0.00308873
0.00144601
-0.000182634
-0.00170501
-0.00303791
-0.00411379
-0.00487488
-0.00527394
-0.00527509
-0.00485346
-0.0039944
-0.0026928
-0.000952219
0.00121601
0.00379356
0.00675585
0.0100727
0.0137091
0.0176255
0.0217789
0.0261227
0.030608
0.0351835
0.0397965
0.0443933
0.0489196
0.0533217
0.0575466
0.0615432
0.0652631
0.0686611
0.0716967
0.0743345
0.0765456
0.0783086
0.0796104
0.0804474
0.0808263
0.080765
0.0802932
0.0794528
0.0782979
0.0768937
0.0753148
0.0736502
0.0719964
0.0703459
0.0686109
0.00918988
0.00679102
0.00476898
0.00292904
0.00118253
-0.000397602
-0.00174539
-0.00281036
-0.00354832
-0.00392229
-0.00390411
-0.00347444
-0.00262242
-0.00134529
0.000352212
0.00245846
0.00495556
0.00781993
0.0110228
0.0145309
0.0183068
0.0223094
0.0264946
0.030816
0.0352246
0.0396702
0.0441014
0.0484665
0.0527139
0.0567931
0.0606549
0.0642527
0.0675433
0.0704874
0.0730507
0.0752051
0.0769291
0.0782092
0.0790402
0.0794264
0.0793819
0.0789309
0.0781078
0.076957
0.0755304
0.0738865
0.072098
0.0702435
0.0682463
0.0659261
0.0117737
0.00877608
0.00637356
0.0042875
0.00236753
0.000673303
-0.000742375
-0.00184335
-0.00259729
-0.00297665
-0.0029607
-0.00253575
-0.0016951
-0.000438816
0.00122656
0.00328849
0.00572887
0.00852448
0.0116474
0.0150653
0.0187423
0.022639
0.0267131
0.0309198
0.0352121
0.0395416
0.0438589
0.0481139
0.0522568
0.0562384
0.0600111
0.0635294
0.066751
0.0696371
0.0721538
0.0742726
0.0759715
0.0772355
0.0780574
0.0784384
0.0783883
0.077926
0.0770788
0.0758822
0.0743771
0.0726086
0.0706376
0.0685307
0.066152
0.0632394
0.0141903
0.0106031
0.00780415
0.00544052
0.00330861
0.00145958
-6.34037e-05
-0.00123591
-0.00203576
-0.00244381
-0.00244621
-0.00203481
-0.00120712
3.36256e-05
0.0016787
0.00371418
0.00612122
0.00887641
0.0119521
0.0153166
0.018935
0.0227688
0.0267771
0.0309163
0.0351408
0.0394036
0.0436565
0.0478505
0.0519369
0.0558675
0.0595953
0.0630753
0.0662653
0.0691264
0.0716243
0.0737295
0.0754186
0.0766745
0.0774876
0.0778555
0.0777838
0.077286
0.0763831
0.0751027
0.0734767
0.0715397
0.0693443
0.0669504
0.0641712
0.0606731
0.0163417
0.0121783
0.0089758
0.00631447
0.00394428
0.00191149
0.000252522
-0.00101764
-0.00188538
-0.00233888
-0.00237057
-0.00197749
-0.0011614
7.12204e-05
0.00170918
0.00373679
0.00613408
0.00887703
0.0119378
0.0152849
0.0188837
0.0226965
0.026683
0.0308006
0.0350045
0.0392484
0.0434848
0.0476657
0.0517426
0.0556677
0.0593939
0.0628763
0.066072
0.0689415
0.0714491
0.073564
0.0752605
0.0765194
0.0773276
0.0776794
0.0775759
0.0770256
0.0760437
0.0746513
0.0728729
0.0707351
0.0682855
0.0655809
0.0623906
0.058317
0.0181525
0.0134244
0.00981447
0.00684201
0.00421519
0.0019781
0.000162629
-0.00122381
-0.00217474
-0.00268473
-0.00275184
-0.002378
-0.00156902
-0.000334747
0.001311
0.00335053
0.00576242
0.00852166
0.0115998
0.0149652
0.0185832
0.0224163
0.0264244
0.0305654
0.034795
0.0390671
0.0433347
0.0475496
0.0516635
0.0556282
0.0593963
0.062922
0.0661614
0.0690736
0.0716211
0.0737709
0.0754949
0.0767708
0.0775822
0.0779195
0.0777796
0.0771661
0.0760891
0.0745643
0.0726103
0.0702477
0.0675217
0.0644889
0.0608797
0.0562375
0.0195617
0.014275
0.0102544
0.00696097
0.00406431
0.00160829
-0.000378013
-0.00189331
-0.00293715
-0.00350962
-0.00361388
-0.0032564
-0.00244696
-0.00119874
0.000471705
0.00254445
0.00499635
0.00780114
0.0109295
0.0143491
0.0180249
0.0219194
0.0259924
0.0302016
0.0345029
0.0388501
0.0431959
0.047492
0.0516895
0.0557395
0.0595935
0.0632044
0.0665267
0.0695175
0.072137
0.0743496
0.0761241
0.0774347
0.0782615
0.0785907
0.0784149
0.0777333
0.0765513
0.07488
0.0727335
0.070128
0.067108
0.0637325
0.059696
0.0544859
0.020517
0.0146717
0.0102353
0.00661249
0.00343586
0.000750388
-0.00141642
-0.00306833
-0.00421005
-0.00484656
-0.00498566
-0.00463812
-0.00381754
-0.00254045
-0.000826264
0.00130272
0.00382144
0.00670207
0.00991409
0.0134243
0.0171971
0.0211943
0.0253754
0.0296978
0.0341169
0.0385862
0.0430578
0.0474826
0.0518109
0.0559924
0.0599775
0.0637169
0.0671631
0.0702707
0.072997
0.0753032
0.0771546
0.0785216
0.0793802
0.0797123
0.0795062
0.0787568
0.0774653
0.0756387
0.0732875
0.0704249
0.0670962
0.0633645
0.0588896
0.0531044
0.0209705
0.0145595
0.00969981
0.00573925
0.00227414
-0.000648529
-0.00300202
-0.0047944
-0.00603496
-0.00673313
-0.00690105
-0.0065536
-0.00570816
-0.00438461
-0.00260533
-0.00039513
0.0022188
0.00520689
0.00853717
0.0121753
0.0160848
0.0202265
0.0245594
0.0290403
0.0336238
0.0382626
0.0429081
0.0475101
0.0520174
0.0563783
0.060541
0.0644543
0.0680677
0.0713329
0.0742039
0.0766381
0.0785967
0.080046
0.0809573
0.0813081
0.0810824
0.0802704
0.0788694
0.0768832
0.0743189
0.0711877
0.0675369
0.0634346
0.0585067
0.0521304
0.0208755
0.0138851
0.00859109
0.00428371
0.000522354
-0.00264342
-0.00518706
-0.00712058
-0.00845746
-0.00921136
-0.00939862
-0.00903813
-0.00815106
-0.00676073
-0.00489257
-0.00257405
0.000165314
0.00329401
0.00677842
0.0105829
0.0146696
0.0189985
0.0235278
0.0282131
0.0330083
0.0378651
0.0427336
0.0475623
0.0522983
0.056888
0.0612772
0.065412
0.0692388
0.0727057
0.0757629
0.0783633
0.0804638
0.0820257
0.0830156
0.083406
0.083176
0.0823115
0.0808058
0.0786593
0.0758765
0.0724671
0.068481
0.0639925
0.0585924
0.0516005
0.0201842
0.0125937
0.00685107
0.00218657
-0.00187865
-0.00529212
-0.00802724
-0.0100998
-0.0115274
-0.0123278
-0.0125215
-0.0121317
-0.0111831
-0.00970287
-0.00771946
-0.00526325
-0.00236622
0.000937967
0.00461388
0.00862428
0.01293
0.0174899
0.0222609
0.0271976
0.0322529
0.0373771
0.0425191
0.0476256
0.0526418
0.0575119
0.0621789
0.0665857
0.0706753
0.0743918
0.0776807
0.0804903
0.0827721
0.0844823
0.0855818
0.0860378
0.0858241
0.0849221
0.0833207
0.0810169
0.078013
0.0743171
0.0699825
0.0650901
0.0591939
0.0515529
0.0188448
0.0106274
0.00441856
-0.00061476
-0.00499155
-0.00865632
-0.0115824
-0.0137893
-0.015299
-0.0161335
-0.0163177
-0.0158788
-0.0148458
-0.0132495
-0.0111217
-0.00849599
-0.00540686
-0.00189033
0.00201616
0.00627365
0.0108415
0.0156772
0.0207365
0.0259728
0.0313377
0.0367802
0.0422476
0.0476847
0.0530348
0.0582393
0.0632382
0.067971
0.0723767
0.0763946
0.0799656
0.0830321
0.0855403
0.0874398
0.0886857
0.089239
0.089068
0.0881484
0.0864648
0.0840107
0.0807856
0.0767961
0.0720993
0.0667833
0.0603625
0.0520307
0.0168006
0.00792365
0.00122767
-0.00418753
-0.00888374
-0.0128025
-0.0159171
-0.0182513
-0.0198316
-0.0206845
-0.0208396
-0.0203286
-0.0191849
-0.0174432
-0.0151391
-0.0123093
-0.00899124
-0.00522341
-0.00104539
0.00350201
0.00837657
0.0135344
0.0189298
0.0245152
0.0302405
0.0360537
0.0419001
0.0477228
0.0534626
0.0590582
0.0644464
0.0695628
0.0743419
0.0787181
0.0826265
0.0860036
0.0887888
0.0909252
0.0923607
0.0930495
0.0929533
0.0920419
0.0902946
0.087701
0.0842573
0.0799687
0.0748958
0.0691344
0.0621559
0.0530833
0.013988
0.00441336
-0.0027936
-0.00860498
-0.0136285
-0.017803
-0.0211018
-0.0235536
-0.0251897
-0.0260419
-0.0261447
-0.0255349
-0.0242506
-0.0223308
-0.0198151
-0.0167438
-0.0131573
-0.00909685
-0.00460429
0.000277656
0.00550511
0.0110327
0.0168136
0.0227987
0.0289369
0.0351745
0.0414554
0.0477206
0.0539086
0.059955
0.0657934
0.0713549
0.0765694
0.0813657
0.0856728
0.0894203
0.0925402
0.0949678
0.0966433
0.0975129
0.0975307
0.0966595
0.0948727
0.0921548
0.0884987
0.083907
0.0784442
0.0722138
0.0646402
0.0547691
0.010335
1.96853e-05
-0.0077248
-0.0139477
-0.0193063
-0.0237367
-0.0272133
-0.0297699
-0.0314437
-0.032272
-0.0322953
-0.0315559
-0.030097
-0.0279626
-0.0251966
-0.021843
-0.0179458
-0.0135489
-0.0086965
-0.00343344
0.0021948
0.00814148
0.0143584
0.0207954
0.0274002
0.0341178
0.0408904
0.0476572
0.0543543
0.0609143
0.0672672
0.0733397
0.0790566
0.0843407
0.0891139
0.0932985
0.0968182
0.0995994
0.101573
0.102677
0.102856
0.102064
0.100269
0.0974474
0.0935887
0.0886925
0.0828264
0.0761021
0.067892
0.0571573
0.00576042
-0.0053435
-0.0136545
-0.0203048
-0.0260056
-0.0306907
-0.0343357
-0.0369808
-0.0386699
-0.039447
-0.0393588
-0.0384542
-0.0367823
-0.0343924
-0.0313334
-0.0276532
-0.0233997
-0.0186196
-0.0133598
-0.00766693
-0.00158825
0.00482827
0.0115333
0.0184757
0.0256022
0.0328567
0.04018
0.0475096
0.0547792
0.0619187
0.0688542
0.0755082
0.0817997
0.0876451
0.0929589
0.097655
0.101648
0.104854
0.107194
0.108594
0.10899
0.108326
0.10656
0.103663
0.0996165
0.0944173
0.0881359
0.0808919
0.0720004
0.0603297
0.000171828
-0.011773
-0.0206815
-0.0277756
-0.0338246
-0.0387606
-0.0425613
-0.0452744
-0.0469515
-0.0476444
-0.0474076
-0.0462968
-0.0443682
-0.0416771
-0.0382776
-0.0342225
-0.0295634
-0.0243504
-0.0186328
-0.0124593
-0.00587865
0.00106001
0.00830649
0.015809
0.0235135
0.0313631
0.0392976
0.0472531
0.0551611
0.0629489
0.0705391
0.0778493
0.084793
0.0912798
0.0972161
0.102506
0.107055
0.110767
0.11355
0.115321
0.116
0.115522
0.113833
0.110895
0.106683
0.101187
0.0944799
0.0866902
0.0770693
0.0643832
-0.00653529
-0.0193778
-0.0289168
-0.0364708
-0.0428723
-0.0480522
-0.0519915
-0.0547467
-0.0563786
-0.0569482
-0.0565187
-0.0551544
-0.0529192
-0.0498752
-0.0460828
-0.0415997
-0.0364817
-0.0307825
-0.0245539
-0.0178466
-0.0107106
-0.00319605
0.00464644
0.0127647
0.0211044
0.0296084
0.0382159
0.0468618
0.0554763
0.0639841
0.0723042
0.0803502
0.0880294
0.0952444
0.101893
0.107869
0.113066
0.117375
0.120693
0.122919
0.12396
0.123738
0.122184
0.11925
0.114901
0.10912
0.101981
0.0936206
0.0832195
0.0694322
-0.0144793
-0.0282809
-0.038485
-0.0465143
-0.0532701
-0.0586829
-0.0627381
-0.0655027
-0.0670488
-0.067448
-0.0667741
-0.0651012
-0.0625021
-0.0590469
-0.0548027
-0.0498331
-0.0441984
-0.0379558
-0.0311599
-0.0238631
-0.0161166
-0.00797089
0.000523097
0.00931346
0.0183462
0.0275644
0.0369074
0.0463096
0.0557001
0.0650018
0.0741309
0.0829962
0.0914998
0.0995365
0.106995
0.113759
0.119707
0.124719
0.128673
0.131454
0.132951
0.133067
0.131721
0.128848
0.124401
0.118354
0.110781
0.101826
0.0905919
0.0756105
-0.0237939
-0.038621
-0.0495264
-0.0580453
-0.0651536
-0.0707827
-0.0749238
-0.0776569
-0.0790673
-0.0792395
-0.0782597
-0.0762138
-0.0731847
-0.0692519
-0.0644901
-0.0589692
-0.0527545
-0.045907
-0.0384839
-0.0305393
-0.0221251
-0.013292
-0.00409031
0.00542885
0.0152125
0.0252049
0.035346
0.0455708
0.055808
0.0659795
0.0759988
0.0857714
0.0951933
0.104152
0.112527
0.12019
0.127006
0.132838
0.137547
0.140997
0.143059
0.143615
0.142563
0.139822
0.135329
0.129045
0.121043
0.111472
0.0993502
0.083075
-0.0346305
-0.0505551
-0.0621995
-0.0712202
-0.0786746
-0.0844963
-0.0886842
-0.0913341
-0.0925473
-0.092424
-0.0910651
-0.0885702
-0.0850346
-0.0805481
-0.0751942
-0.0690499
-0.0621859
-0.0546671
-0.0465533
-0.0378998
-0.0287591
-0.0191812
-0.00921525
0.00108922
0.0116812
0.0225069
0.0335082
0.0446216
0.0557765
0.0668944
0.0778877
0.0886583
0.0990977
0.109086
0.118492
0.127176
0.134989
0.141773
0.147371
0.151625
0.15438
0.155495
0.154845
0.152325
0.147852
0.141372
0.132952
0.122749
0.109685
0.0920087
-0.0471601
-0.0642613
-0.0766839
-0.086216
-0.0940037
-0.0999847
-0.104168
-0.10667
-0.10761
-0.107108
-0.105282
-0.102249
-0.0981169
-0.0929892
-0.0869587
-0.0801104
-0.0725208
-0.0642588
-0.0553865
-0.0459605
-0.0360326
-0.0256519
-0.0148653
-0.00371989
0.00773655
0.0194533
0.0313754
0.0434419
0.0555845
0.0677256
0.0797773
0.0916395
0.103199
0.11433
0.124892
0.134731
0.143681
0.151567
0.158207
0.163418
0.167018
0.168835
0.168715
0.166526
0.16216
0.155539
0.146726
0.135879
0.121816
0.102625
-0.061577
-0.0799425
-0.0931845
-0.103233
-0.111333
-0.117428
-0.121542
-0.123812
-0.124385
-0.123402
-0.121003
-0.117324
-0.112492
-0.106622
-0.0998186
-0.0921759
-0.0837765
-0.0746933
-0.0649905
-0.0547251
-0.0439481
-0.0327063
-0.0210436
-0.00900303
0.00337174
0.0160346
0.0289353
0.0420171
0.0552152
0.0684549
0.0816493
0.0946977
0.107484
0.119876
0.131725
0.142862
0.153107
0.162261
0.170118
0.176463
0.181084
0.183772
0.184339
0.182617
0.178467
0.171782
0.162613
0.151119
0.136002
0.115172
-0.0781025
-0.0978311
-0.111936
-0.122502
-0.130881
-0.137028
-0.140985
-0.14292
-0.143008
-0.141419
-0.13832
-0.133869
-0.128212
-0.121482
-0.113796
-0.105258
-0.0959552
-0.0859661
-0.0753562
-0.064182
-0.0524928
-0.040332
-0.0277391
-0.0147519
-0.00140817
0.0122522
0.0261851
0.0403402
0.0546581
0.0690687
0.0834881
0.0978171
0.111938
0.125715
0.138988
0.15158
0.16329
0.173897
0.183167
0.190851
0.196698
0.20046
0.201902
0.200816
0.197019
0.19037
0.180901
0.168769
0.152542
0.129939
-0.0969902
-0.118196
-0.133209
-0.144284
-0.152896
-0.159013
-0.162701
-0.164167
-0.163623
-0.161274
-0.157319
-0.151943
-0.145317
-0.137591
-0.128897
-0.119348
-0.10904
-0.098053
-0.0864547
-0.0743
-0.061635
-0.0484983
-0.0349237
-0.020942
-0.00658343
0.0081204
0.0231337
0.0384143
0.0539107
0.0695596
0.0852828
0.100984
0.116548
0.131834
0.146679
0.16089
0.17425
0.186515
0.197418
0.206675
0.213989
0.219063
0.221609
0.221366
0.218098
0.211617
0.201927
0.189177
0.171789
0.147266
-0.118534
-0.141349
-0.157319
-0.168887
-0.177663
-0.183638
-0.186912
-0.18774
-0.186379
-0.18308
-0.17808
-0.171598
-0.16383
-0.15495
-0.145103
-0.134415
-0.122988
-0.110905
-0.0982327
-0.0850238
-0.0713197
-0.0571527
-0.0425487
-0.0275299
-0.0121166
0.00366978
0.0198041
0.0362547
0.0529806
0.0699282
0.0870277
0.10419
0.121301
0.138224
0.154788
0.170792
0.186002
0.20015
0.212935
0.224032
0.233092
0.239761
0.243688
0.244543
0.242024
0.235882
0.226082
0.212754
0.194154
0.167548
-0.143075
-0.16766
-0.184639
-0.196667
-0.205512
-0.211194
-0.213864
-0.213836
-0.211427
-0.206943
-0.200668
-0.19286
-0.18375
-0.173531
-0.162369
-0.150399
-0.137728
-0.124443
-0.110607
-0.0962699
-0.0814651
-0.0662169
-0.0505414
-0.0344495
-0.0179496
-0.00105062
0.0162356
0.033891
0.0518877
0.0701848
0.0887245
0.107427
0.126188
0.144871
0.163306
0.181285
0.198559
0.214834
0.229778
0.243018
0.254149
0.262749
0.268389
0.270657
0.269166
0.263586
0.253826
0.239986
0.220128
0.191255
-0.171021
-0.197569
-0.215613
-0.228046
-0.236824
-0.242014
-0.24383
-0.242666
-0.238918
-0.232957
-0.225127
-0.215734
-0.205042
-0.193274
-0.180611
-0.1672
-0.153152
-0.138552
-0.123462
-0.107922
-0.0919586
-0.075584
-0.0588021
-0.0416101
-0.024002
-0.00597129
0.0124862
0.0313686
0.0506647
0.07035
0.0903821
0.110696
0.131197
0.15176
0.172217
0.192358
0.21192
0.230589
0.247998
0.263726
0.277305
0.288232
0.295989
0.300059
0.299947
0.295218
0.285702
0.271449
0.250294
0.218942
-0.202858
-0.231609
-0.250776
-0.263529
-0.272051
-0.276476
-0.277109
-0.27445
-0.268994
-0.261196
-0.251472
-0.240183
-0.227633
-0.214073
-0.199702
-0.184675
-0.169106
-0.153076
-0.13664
-0.119828
-0.102654
-0.0851157
-0.0672024
-0.0488947
-0.0301692
-0.0110012
0.00863244
0.0287494
0.0493584
0.0704552
0.0920172
0.113998
0.136321
0.158875
0.1815
0.203989
0.226074
0.247423
0.267635
0.286239
0.302699
0.316424
0.326784
0.333138
0.334853
0.331352
0.322355
0.307836
0.285355
0.251276
-0.239184
-0.27044
-0.290787
-0.303726
-0.311722
-0.315012
-0.314029
-0.309411
-0.301782
-0.291704
-0.279676
-0.266122
-0.251393
-0.235767
-0.21946
-0.202629
-0.185389
-0.167813
-0.149943
-0.131796
-0.113368
-0.0946409
-0.0755844
-0.0561596
-0.0363228
-0.016028
0.00476972
0.026111
0.0480283
0.0705415
0.0936525
0.117339
0.141549
0.16619
0.19112
0.216143
0.240991
0.265321
0.288704
0.310622
0.330465
0.347542
0.361095
0.37033
0.37444
0.372662
0.36456
0.349987
0.326169
0.289065
-0.280743
-0.314888
-0.336463
-0.34938
-0.356468
-0.358118
-0.354942
-0.347767
-0.337379
-0.324473
-0.309648
-0.2934
-0.276126
-0.258129
-0.239637
-0.220807
-0.201745
-0.18251
-0.163127
-0.143593
-0.123883
-0.103957
-0.0837619
-0.0632362
-0.0423125
-0.0209206
0.00100952
0.0235446
0.0467443
0.070657
0.0953143
0.120724
0.146864
0.17367
0.201029
0.228761
0.256613
0.284239
0.311192
0.336909
0.360709
0.381791
0.399253
0.412115
0.419346
0.419944
0.413249
0.398934
0.373793
0.333303
-0.328482
-0.366009
-0.388842
-0.401413
-0.407042
-0.406357
-0.40022
-0.389713
-0.37583
-0.359428
-0.341221
-0.321781
-0.301549
-0.28085
-0.259912
-0.238885
-0.217856
-0.196861
-0.175901
-0.154947
-0.133946
-0.112831
-0.0915235
-0.0699345
-0.04797
-0.0255328
-0.00252476
0.0211501
0.0455822
0.0708526
0.0970274
0.124151
0.152239
0.181264
0.211151
0.241754
0.272843
0.304087
0.335033
0.365085
0.393496
0.419354
0.441591
0.459007
0.470298
0.474138
0.469559
0.455956
0.429556
0.38523
-0.38364
-0.425186
-0.449251
-0.460969
-0.464343
-0.460358
-0.450236
-0.435397
-0.4171
-0.396392
-0.374116
-0.350919
-0.327277
-0.303525
-0.279879
-0.256466
-0.233341
-0.210508
-0.187932
-0.165549
-0.143274
-0.121008
-0.098639
-0.0760497
-0.0531159
-0.0297104
-0.00570443
0.0190299
0.0446172
0.0711749
0.0988084
0.127605
0.157626
0.188893
0.221379
0.254986
0.28953
0.324711
0.36009
0.395061
0.428822
0.460353
0.488414
0.511548
0.52811
0.536357
0.534882
0.522666
0.495155
0.446425
-0.447873
-0.494261
-0.519427
-0.52949
-0.529441
-0.520813
-0.505338
-0.48488
-0.461028
-0.435046
-0.407909
-0.380329
-0.3528
-0.325643
-0.29904
-0.273076
-0.247758
-0.223042
-0.198846
-0.175062
-0.151564
-0.128215
-0.104868
-0.0813713
-0.0575684
-0.0333
-0.00840461
0.01728
0.043915
0.0716575
0.100657
0.13105
0.16295
0.19644
0.231556
0.268265
0.306449
0.345868
0.386127
0.426637
0.46657
0.504817
0.539963
0.57027
0.59368
0.607906
0.610938
0.601124
0.5728
0.518946
-0.523463
-0.57575
-0.601666
-0.608789
-0.603594
-0.588444
-0.565789
-0.538069
-0.507263
-0.474873
-0.441988
-0.409358
-0.37746
-0.346566
-0.316796
-0.288163
-0.260605
-0.234011
-0.20824
-0.183128
-0.158501
-0.134178
-0.109972
-0.085695
-0.0611557
-0.036161
-0.0105155
0.0159787
0.0435209
0.0723107
0.102545
0.134415
0.168095
0.20374
0.241462
0.281318
0.32328
0.3672
0.412768
0.459456
0.506455
0.552609
0.59635
0.635644
0.667954
0.690306
0.699855
0.693999
0.665438
0.605552
-0.613662
-0.673168
-0.699043
-0.701151
-0.688241
-0.663939
-0.631678
-0.594619
-0.555182
-0.515087
-0.475499
-0.437146
-0.400432
-0.36553
-0.332451
-0.301105
-0.271332
-0.242935
-0.215697
-0.189388
-0.163777
-0.138634
-0.11373
-0.0888373
-0.0637293
-0.0381785
-0.0119551
0.0151743
0.043448
0.073109
0.104405
0.137584
0.172891
0.210559
0.250798
0.293772
0.339575
0.388192
0.439449
0.49294
0.547948
0.603339
0.657451
0.70798
0.751862
0.785282
0.804265
0.804796
0.777094
0.710064
-0.723287
-0.791546
-0.815718
-0.809415
-0.784948
-0.747817
-0.70276
-0.653789
-0.603761
-0.554548
-0.507288
-0.462594
-0.420709
-0.381634
-0.345218
-0.311224
-0.27936
-0.249323
-0.220803
-0.193496
-0.167106
-0.14135
-0.115954
-0.0906513
-0.0651794
-0.0392776
-0.012683
0.0148724
0.0436647
0.07398
0.106116
0.140383
0.1771
0.216589
0.259169
0.305136
0.354735
0.408139
0.465365
0.526216
0.590169
0.656227
0.722753
0.787261
0.846175
0.894699
0.92739
0.938164
0.913408
0.838003
-0.859805
-0.938251
-0.957325
-0.937018
-0.895239
-0.840182
-0.778208
-0.714229
-0.651427
-0.59165
-0.535839
-0.484334
-0.437096
-0.393859
-0.35424
-0.317805
-0.284103
-0.252699
-0.223177
-0.195147
-0.168249
-0.142142
-0.116508
-0.0910425
-0.0654491
-0.0394364
-0.0127115
0.0150254
0.044085
0.0747945
0.107501
0.142575
0.180411
0.221429
0.266067
0.314774
0.367987
0.4261
0.489409
0.558028
0.631762
0.709931
0.791124
0.872876
0.951234
1.02039
1.07308
1.1003
1.08249
0.997736
-1.03541
-1.12428
-1.13144
-1.0879
-1.02023
-0.940289
-0.856234
-0.773695
-0.695859
-0.624216
-0.559221
-0.500719
-0.448222
-0.401087
-0.358621
-0.320141
-0.285009
-0.252636
-0.222493
-0.194102
-0.167034
-0.140895
-0.115325
-0.0899836
-0.064547
-0.0386971
-0.0121155
0.0155239
0.044562
0.0753619
0.108315
0.14385
0.182435
0.224588
0.270876
0.321914
0.378356
0.440877
0.510124
0.586641
0.670746
0.762318
0.860496
0.963212
1.0665
1.16374
1.2457
1.29943
1.29625
1.20268
-1.27128
-1.36629
-1.34789
-1.26595
-1.15982
-1.0458
-0.93351
-0.828666
-0.733773
-0.649392
-0.575065
-0.509841
-0.45259
-0.402162
-0.357481
-0.317578
-0.281596
-0.248792
-0.218519
-0.190213
-0.16338
-0.13758
-0.112418
-0.0875252
-0.0625555
-0.0371715
-0.0110364
0.0161953
0.0448874
0.075431
0.108255
0.143837
0.182714
0.225496
0.272875
0.325642
0.384687
0.451001
0.52566
0.609768
0.704358
0.810194
0.927426
1.05501
1.18973
1.32487
1.44955
1.54604
1.57248
1.4758
-1.60631
-1.68956
-1.61818
-1.47331
-1.31096
-1.15137
-1.00423
-0.873779
-0.76063
-0.663535
-0.580547
-0.509571
-0.448624
-0.395943
-0.350013
-0.309555
-0.273497
-0.24094
-0.211132
-0.183435
-0.157303
-0.132261
-0.107888
-0.0837974
-0.0596306
-0.0350399
-0.00967918
0.0168074
0.0447965
0.0746972
0.106964
0.142112
0.180731
0.223512
0.27126
0.32493
0.385648
0.454742
0.533764
0.62449
0.728882
0.84895
0.986468
1.14235
1.31547
1.50066
1.68697
1.85234
1.93785
1.85873
-2.11245
-2.1317
-1.95368
-1.70735
-1.46488
-1.24686
-1.05909
-0.901401
-0.770542
-0.662285
-0.572536
-0.49771
-0.434818
-0.381426
-0.335574
-0.295688
-0.260506
-0.229004
-0.200348
-0.17385
-0.148932
-0.125099
-0.10192
-0.0790058
-0.0559948
-0.0325409
-0.00829944
0.0170844
0.0439882
0.0728256
0.104062
0.138231
0.175958
0.217987
0.26521
0.318716
0.379838
0.450221
0.531894
0.627361
0.739664
0.872416
1.02969
1.21561
1.43317
1.68204
1.95527
2.23026
2.43148
2.42698
-2.92038
-2.74279
-2.362
-1.95849
-1.60608
-1.31725
-1.08601
-0.902676
-0.757391
-0.641607
-0.548484
-0.472736
-0.410337
-0.358226
-0.314067
-0.276064
-0.242824
-0.213251
-0.186471
-0.161779
-0.138591
-0.116416
-0.0948294
-0.0734538
-0.0519404
-0.0299563
-0.0071704
0.016759
0.0421969
0.0695465
0.0992655
0.131886
0.168039
0.208489
0.254173
0.30626
0.366225
0.435954
0.517886
0.615195
0.732036
0.873837
1.04759
1.26199
1.52708
1.85273
2.24418
2.68745
3.10432
3.31473
-4.32675
-3.56316
-2.81884
-2.19327
-1.70401
-1.3387
-1.06867
-0.867329
-0.715095
-0.598138
-0.506721
-0.434
-0.375127
-0.326624
-0.285953
-0.251227
-0.221025
-0.194251
-0.170049
-0.147737
-0.126759
-0.106652
-0.0870199
-0.0675107
-0.0478027
-0.0275889
-0.00656431
0.0155869
0.0392037
0.0646626
0.0923942
0.122904
0.156798
0.194818
0.237888
0.287181
0.344212
0.41097
0.49012
0.585292
0.70152
0.845898
1.02849
1.26358
1.57138
1.97958
2.518
3.19724
3.9964
4.82664
-7.16134
-4.56187
-3.1431
-2.25747
-1.65097
-1.2412
-0.962704
-0.767268
-0.625528
-0.519792
-0.438871
-0.375465
-0.324685
-0.283167
-0.248526
-0.219031
-0.193394
-0.170637
-0.150002
-0.130891
-0.112818
-0.0953827
-0.0782416
-0.0610926
-0.043659
-0.0256767
-0.00688222
0.0129966
0.0342545
0.05722
0.0822707
0.109852
0.140501
0.174878
0.213813
0.258366
0.309921
0.370325
0.442102
0.528791
0.635502
0.769845
0.943468
1.17475
1.49408
1.95174
2.61724
3.5752
5.08008
7.7985
-12.0297
-5.64468
-2.9789
-1.88098
-1.28516
-0.931834
-0.71358
-0.569033
-0.46696
-0.391543
-0.33392
-0.288676
-0.252301
-0.22241
-0.197309
-0.175765
-0.156849
-0.139855
-0.12423
-0.109536
-0.0954169
-0.081576
-0.0677601
-0.0537449
-0.0393241
-0.0242993
-0.0084725
0.00836436
0.0264362
0.0459951
0.0673317
0.0907884
0.116777
0.145802
0.178493
0.215646
0.258295
0.307804
0.366024
0.435543
0.520131
0.625548
0.761134
0.94332
1.20409
1.60731
2.26953
3.46237
6.24506
12.7555
)
;

boundaryField
{
    movingWall
    {
        type            zeroGradient;
    }
    fixedWalls
    {
        type            zeroGradient;
    }
    frontAndBack
    {
        type            empty;
    }
}


// ************************************************************************* //
