/*--------------------------------*- C++ -*----------------------------------*\
  =========                 |
  \\      /  F ield         | OpenFOAM: The Open Source CFD Toolbox
   \\    /   O peration     | Website:  https://openfoam.org
    \\  /    A nd           | Version:  7
     \\/     M anipulation  |
\*---------------------------------------------------------------------------*/
FoamFile
{
    version     2.0;
    format      ascii;
    class       volScalarField;
    location    "0.0212";
    object      p;
}
// * * * * * * * * * * * * * * * * * * * * * * * * * * * * * * * * * * * * * //

dimensions      [0 2 -2 0 0 0 0];

internalField   nonuniform List<scalar> 
2500
(
1.15034e-07
-6.51063
-9.29334
-10.4859
-11.1477
-11.5501
-11.8099
-11.9908
-12.1248
-12.2285
-12.3112
-12.3787
-12.4347
-12.4819
-12.5222
-12.5568
-12.587
-12.6135
-12.6369
-12.6578
-12.6766
-12.6936
-12.7092
-12.7236
-12.737
-12.7498
-12.762
-12.7739
-12.7858
-12.7979
-12.8104
-12.8236
-12.838
-12.8539
-12.8719
-12.8928
-12.9174
-12.947
-12.9832
-13.0285
-13.0862
-13.1619
-13.2642
-13.409
-13.6275
-13.981
-14.5769
-15.6748
-18.3404
-24.7252
-4.95683
-7.67548
-9.18033
-10.138
-10.8031
-11.26
-11.5784
-11.8085
-11.9806
-12.1134
-12.2182
-12.3029
-12.3725
-12.4307
-12.4798
-12.5219
-12.5583
-12.5901
-12.6182
-12.6432
-12.6656
-12.686
-12.7047
-12.7222
-12.7385
-12.7542
-12.7694
-12.7845
-12.7997
-12.8153
-12.8317
-12.8493
-12.8687
-12.8903
-12.9151
-12.9438
-12.978
-13.0191
-13.0698
-13.1331
-13.2142
-13.3201
-13.4621
-13.6578
-13.9366
-14.3465
-14.9531
-15.8387
-17.2574
-19.8567
-7.92877
-8.75927
-9.55841
-10.2374
-10.7754
-11.1829
-11.4898
-11.7237
-11.9049
-12.0477
-12.1621
-12.2553
-12.3323
-12.3968
-12.4514
-12.4983
-12.5388
-12.5742
-12.6055
-12.6333
-12.6584
-12.6813
-12.7023
-12.7219
-12.7405
-12.7583
-12.7758
-12.7932
-12.8108
-12.8291
-12.8484
-12.8692
-12.892
-12.9177
-12.947
-12.9809
-13.0211
-13.0692
-13.1279
-13.2006
-13.2921
-13.4093
-13.5618
-13.7635
-14.0338
-14.3993
-14.8887
-15.5143
-16.2586
-17.0219
-9.441
-9.65168
-10.0686
-10.5116
-10.9026
-11.2276
-11.4918
-11.7051
-11.8775
-12.0177
-12.1327
-12.2281
-12.3079
-12.3753
-12.4328
-12.4824
-12.5255
-12.5633
-12.5968
-12.6267
-12.6537
-12.6784
-12.7012
-12.7225
-12.7428
-12.7624
-12.7816
-12.8007
-12.8203
-12.8406
-12.862
-12.8852
-12.9106
-12.939
-12.9713
-13.0085
-13.0521
-13.1039
-13.1661
-13.2419
-13.3352
-13.4512
-13.5968
-13.7805
-14.0121
-14.3012
-14.6539
-15.0575
-15.4382
-15.6155
-10.3292
-10.3251
-10.5264
-10.8012
-11.074
-11.3222
-11.5389
-11.7237
-11.8796
-12.0108
-12.1213
-12.2148
-12.2943
-12.3623
-12.421
-12.4719
-12.5165
-12.5558
-12.5908
-12.6222
-12.6506
-12.6767
-12.7009
-12.7236
-12.7452
-12.7662
-12.7868
-12.8075
-12.8285
-12.8504
-12.8735
-12.8984
-12.9257
-12.956
-12.9902
-13.0293
-13.0746
-13.1277
-13.1904
-13.2653
-13.3553
-13.4639
-13.5951
-13.7533
-13.9415
-14.1599
-14.4027
-14.6492
-14.8272
-14.8077
-10.8981
-10.8194
-10.9051
-11.0704
-11.2563
-11.4409
-11.6132
-11.7679
-11.9041
-12.0225
-12.1251
-12.2137
-12.2905
-12.3572
-12.4154
-12.4665
-12.5115
-12.5515
-12.5872
-12.6195
-12.6489
-12.676
-12.7011
-12.7248
-12.7475
-12.7695
-12.7912
-12.8129
-12.8351
-12.8581
-12.8824
-12.9084
-12.9368
-12.9681
-13.0032
-13.0429
-13.0882
-13.1406
-13.2015
-13.2726
-13.3559
-13.4534
-13.5671
-13.6981
-13.8459
-14.006
-14.1688
-14.3139
-14.3854
-14.3019
-11.2818
-11.1857
-11.2124
-11.3089
-11.4334
-11.5679
-11.7018
-11.8282
-11.9441
-12.0482
-12.1409
-12.2229
-12.2953
-12.3591
-12.4156
-12.4656
-12.5101
-12.55
-12.5859
-12.6185
-12.6484
-12.6759
-12.7017
-12.726
-12.7494
-12.772
-12.7944
-12.8169
-12.8397
-12.8634
-12.8883
-12.9148
-12.9436
-12.9751
-13.0101
-13.0492
-13.0934
-13.1436
-13.2008
-13.2662
-13.341
-13.4259
-13.5215
-13.6271
-13.7402
-13.855
-13.9617
-14.0441
-14.0627
-13.9676
-11.5557
-11.463
-11.4603
-11.5142
-11.596
-11.6928
-11.7952
-11.8968
-11.9935
-12.0834
-12.1655
-12.2398
-12.3067
-12.3666
-12.4203
-12.4685
-12.5118
-12.5509
-12.5864
-12.6189
-12.6487
-12.6764
-12.7023
-12.7269
-12.7506
-12.7736
-12.7963
-12.819
-12.8422
-12.8661
-12.8911
-12.9177
-12.9463
-12.9773
-13.0114
-13.0491
-13.0911
-13.1381
-13.1906
-13.2495
-13.315
-13.3874
-13.4661
-13.5496
-13.6347
-13.7156
-13.7841
-13.8283
-13.8216
-13.7329
-11.7616
-11.678
-11.6609
-11.6885
-11.7412
-11.81
-11.8876
-11.9682
-12.0479
-12.1243
-12.1959
-12.2622
-12.323
-12.3784
-12.4287
-12.4744
-12.516
-12.5538
-12.5884
-12.6202
-12.6496
-12.677
-12.7028
-12.7274
-12.751
-12.774
-12.7967
-12.8194
-12.8425
-12.8663
-12.891
-12.9172
-12.945
-12.9751
-13.0077
-13.0434
-13.0826
-13.1257
-13.1731
-13.2251
-13.2816
-13.3424
-13.4063
-13.4715
-13.5347
-13.5909
-13.6338
-13.655
-13.6367
-13.5588
-11.9223
-11.8485
-11.8248
-11.8362
-11.8691
-11.9174
-11.9756
-12.039
-12.104
-12.1682
-12.23
-12.2884
-12.3429
-12.3935
-12.44
-12.4828
-12.5221
-12.5582
-12.5914
-12.6222
-12.6509
-12.6777
-12.7031
-12.7272
-12.7505
-12.7732
-12.7957
-12.8181
-12.8408
-12.864
-12.8881
-12.9134
-12.9403
-12.9689
-12.9997
-13.0329
-13.069
-13.108
-13.1502
-13.1955
-13.2437
-13.2941
-13.3454
-13.3959
-13.4424
-13.481
-13.5069
-13.5144
-13.4913
-13.4241
-12.0514
-11.9865
-11.9602
-11.9617
-11.9812
-12.0145
-12.0578
-12.1073
-12.1599
-12.2133
-12.266
-12.3169
-12.3653
-12.4108
-12.4534
-12.493
-12.5297
-12.5637
-12.5954
-12.6248
-12.6524
-12.6783
-12.703
-12.7265
-12.7492
-12.7713
-12.7932
-12.815
-12.837
-12.8595
-12.8827
-12.9069
-12.9324
-12.9593
-12.988
-13.0186
-13.0514
-13.0863
-13.1235
-13.1626
-13.2033
-13.2448
-13.2858
-13.3246
-13.3586
-13.3847
-13.3993
-13.3988
-13.3745
-13.3166
-12.1572
-12.1
-12.0733
-12.0688
-12.0791
-12.1017
-12.1336
-12.1719
-12.2141
-12.2582
-12.3028
-12.3467
-12.3893
-12.4299
-12.4683
-12.5045
-12.5385
-12.5702
-12.6
-12.6278
-12.6541
-12.6789
-12.7025
-12.7252
-12.747
-12.7684
-12.7895
-12.8104
-12.8316
-12.8531
-12.8751
-12.898
-12.9219
-12.947
-12.9734
-13.0014
-13.0309
-13.0619
-13.0944
-13.128
-13.1621
-13.1961
-13.2288
-13.2585
-13.2832
-13.3004
-13.3077
-13.3025
-13.2787
-13.2287
-12.2453
-12.1947
-12.1688
-12.1608
-12.1649
-12.1797
-12.2028
-12.2323
-12.2659
-12.3021
-12.3395
-12.3771
-12.4141
-12.45
-12.4844
-12.5171
-12.5482
-12.5775
-12.6051
-12.6312
-12.6559
-12.6794
-12.7018
-12.7233
-12.7442
-12.7645
-12.7846
-12.8046
-12.8246
-12.8449
-12.8657
-12.8871
-12.9093
-12.9324
-12.9566
-12.9819
-13.0082
-13.0356
-13.0639
-13.0926
-13.1212
-13.149
-13.1749
-13.1976
-13.2154
-13.2265
-13.229
-13.2213
-13.1988
-13.1555
-12.3195
-12.2748
-12.2503
-12.2403
-12.2404
-12.2494
-12.266
-12.2884
-12.315
-12.3445
-12.3756
-12.4075
-12.4394
-12.4707
-12.5012
-12.5306
-12.5586
-12.5854
-12.6108
-12.635
-12.6579
-12.6799
-12.7009
-12.7212
-12.7408
-12.76
-12.7789
-12.7977
-12.8165
-12.8355
-12.8548
-12.8747
-12.8951
-12.9163
-12.9382
-12.9609
-12.9843
-13.0084
-13.0328
-13.0572
-13.0812
-13.1039
-13.1245
-13.1418
-13.1546
-13.1614
-13.1608
-13.152
-13.1312
-13.0937
-12.3827
-12.3433
-12.3204
-12.3095
-12.3069
-12.312
-12.3235
-12.3404
-12.3613
-12.385
-12.4107
-12.4375
-12.4647
-12.4919
-12.5186
-12.5446
-12.5697
-12.5938
-12.6169
-12.639
-12.6602
-12.6804
-12.6999
-12.7187
-12.737
-12.7549
-12.7725
-12.79
-12.8074
-12.825
-12.8429
-12.8611
-12.8797
-12.8989
-12.9186
-12.9389
-12.9596
-12.9806
-13.0017
-13.0225
-13.0425
-13.0611
-13.0775
-13.0907
-13.0998
-13.1037
-13.1014
-13.0922
-13.0734
-13.0408
-12.437
-12.4023
-12.3814
-12.3703
-12.366
-12.3682
-12.376
-12.3885
-12.4047
-12.4237
-12.4447
-12.467
-12.49
-12.5132
-12.5364
-12.5591
-12.5813
-12.6028
-12.6235
-12.6435
-12.6627
-12.6812
-12.699
-12.7163
-12.7331
-12.7495
-12.7657
-12.7817
-12.7977
-12.8138
-12.8301
-12.8467
-12.8635
-12.8808
-12.8984
-12.9164
-12.9346
-12.9529
-12.9711
-12.9887
-13.0054
-13.0207
-13.0338
-13.0439
-13.0504
-13.0523
-13.049
-13.0401
-13.0232
-12.995
-12.4841
-12.4536
-12.4347
-12.4239
-12.4188
-12.419
-12.424
-12.433
-12.4454
-12.4605
-12.4774
-12.4957
-12.5149
-12.5346
-12.5544
-12.5741
-12.5934
-12.6123
-12.6306
-12.6484
-12.6656
-12.6822
-12.6982
-12.7139
-12.7291
-12.744
-12.7587
-12.7732
-12.7877
-12.8023
-12.8169
-12.8318
-12.8469
-12.8622
-12.8779
-12.8937
-12.9096
-12.9255
-12.9411
-12.956
-12.97
-12.9825
-12.993
-13.0009
-13.0055
-13.0061
-13.0024
-12.9941
-12.9792
-12.955
-12.5253
-12.4987
-12.4819
-12.4718
-12.4662
-12.4651
-12.468
-12.4744
-12.4838
-12.4954
-12.5089
-12.5238
-12.5396
-12.5559
-12.5726
-12.5893
-12.6059
-12.6222
-12.6382
-12.6537
-12.6689
-12.6835
-12.6978
-12.7117
-12.7252
-12.7385
-12.7516
-12.7646
-12.7775
-12.7905
-12.8035
-12.8167
-12.83
-12.8436
-12.8573
-12.8711
-12.8849
-12.8986
-12.9119
-12.9246
-12.9362
-12.9466
-12.955
-12.9611
-12.9644
-12.9643
-12.9605
-12.953
-12.9402
-12.9197
-12.5616
-12.5388
-12.524
-12.5147
-12.5091
-12.5072
-12.5086
-12.513
-12.5198
-12.5287
-12.5393
-12.5511
-12.5638
-12.5772
-12.5909
-12.6049
-12.6188
-12.6326
-12.6463
-12.6596
-12.6727
-12.6854
-12.6978
-12.7099
-12.7217
-12.7333
-12.7448
-12.7561
-12.7674
-12.7788
-12.7901
-12.8016
-12.8132
-12.825
-12.8368
-12.8487
-12.8606
-12.8722
-12.8835
-12.8942
-12.904
-12.9125
-12.9193
-12.9241
-12.9265
-12.9261
-12.9226
-12.9161
-12.9052
-12.8881
-12.5939
-12.5746
-12.5619
-12.5536
-12.5484
-12.546
-12.5464
-12.5491
-12.554
-12.5605
-12.5685
-12.5777
-12.5877
-12.5983
-12.6094
-12.6207
-12.6321
-12.6435
-12.6549
-12.666
-12.677
-12.6877
-12.6983
-12.7085
-12.7186
-12.7285
-12.7383
-12.748
-12.7576
-12.7672
-12.7769
-12.7867
-12.7966
-12.8066
-12.8166
-12.8267
-12.8367
-12.8466
-12.8561
-12.865
-12.8731
-12.8801
-12.8856
-12.8895
-12.8913
-12.8907
-12.8878
-12.8823
-12.8734
-12.8596
-12.6231
-12.6071
-12.5965
-12.5893
-12.5845
-12.582
-12.5817
-12.5832
-12.5864
-12.5911
-12.5969
-12.6037
-12.6112
-12.6194
-12.6279
-12.6368
-12.6458
-12.6549
-12.664
-12.6731
-12.682
-12.6907
-12.6993
-12.7077
-12.716
-12.7242
-12.7322
-12.7402
-12.7481
-12.7561
-12.7641
-12.7721
-12.7803
-12.7885
-12.7968
-12.8051
-12.8134
-12.8215
-12.8293
-12.8367
-12.8433
-12.849
-12.8536
-12.8567
-12.8581
-12.8577
-12.8554
-12.8511
-12.8442
-12.8334
-12.6498
-12.637
-12.6283
-12.6224
-12.6182
-12.6158
-12.615
-12.6156
-12.6175
-12.6205
-12.6244
-12.6291
-12.6345
-12.6403
-12.6466
-12.6532
-12.6599
-12.6668
-12.6738
-12.6807
-12.6876
-12.6943
-12.701
-12.7076
-12.714
-12.7204
-12.7267
-12.7329
-12.7391
-12.7453
-12.7516
-12.7579
-12.7643
-12.7708
-12.7774
-12.784
-12.7906
-12.7971
-12.8033
-12.8092
-12.8145
-12.8191
-12.8228
-12.8254
-12.8267
-12.8265
-12.8249
-12.8218
-12.8168
-12.8091
-12.6745
-12.6648
-12.6581
-12.6534
-12.65
-12.6478
-12.6467
-12.6466
-12.6474
-12.649
-12.6513
-12.6541
-12.6575
-12.6613
-12.6654
-12.6698
-12.6745
-12.6792
-12.6841
-12.6889
-12.6938
-12.6986
-12.7034
-12.7081
-12.7127
-12.7173
-12.7218
-12.7262
-12.7307
-12.7352
-12.7397
-12.7442
-12.7489
-12.7536
-12.7585
-12.7633
-12.7683
-12.7731
-12.7779
-12.7824
-12.7865
-12.7901
-12.793
-12.7951
-12.7964
-12.7966
-12.7957
-12.7939
-12.7909
-12.786
-12.6978
-12.691
-12.6864
-12.683
-12.6804
-12.6785
-12.6773
-12.6766
-12.6765
-12.6769
-12.6777
-12.6789
-12.6804
-12.6823
-12.6844
-12.6868
-12.6894
-12.6921
-12.6949
-12.6978
-12.7007
-12.7036
-12.7065
-12.7094
-12.7121
-12.7149
-12.7176
-12.7202
-12.7229
-12.7256
-12.7283
-12.7311
-12.7339
-12.7369
-12.7399
-12.7431
-12.7463
-12.7496
-12.7529
-12.756
-12.7589
-12.7616
-12.7638
-12.7656
-12.7668
-12.7674
-12.7674
-12.7669
-12.7658
-12.7638
-12.7201
-12.7163
-12.7136
-12.7115
-12.7097
-12.7083
-12.707
-12.7059
-12.7051
-12.7044
-12.7038
-12.7035
-12.7034
-12.7034
-12.7037
-12.7041
-12.7048
-12.7055
-12.7064
-12.7073
-12.7083
-12.7093
-12.7104
-12.7113
-12.7123
-12.7132
-12.7141
-12.7149
-12.7158
-12.7166
-12.7175
-12.7184
-12.7195
-12.7206
-12.7219
-12.7232
-12.7248
-12.7264
-12.7281
-12.7299
-12.7316
-12.7333
-12.7349
-12.7363
-12.7376
-12.7386
-12.7395
-12.7403
-12.7411
-12.742
-12.742
-12.7411
-12.7403
-12.7395
-12.7386
-12.7376
-12.7363
-12.7349
-12.7333
-12.7316
-12.7299
-12.7281
-12.7264
-12.7247
-12.7232
-12.7218
-12.7206
-12.7195
-12.7184
-12.7175
-12.7166
-12.7158
-12.7149
-12.7141
-12.7132
-12.7123
-12.7113
-12.7104
-12.7094
-12.7083
-12.7073
-12.7064
-12.7055
-12.7048
-12.7042
-12.7037
-12.7035
-12.7034
-12.7035
-12.7039
-12.7044
-12.7051
-12.706
-12.707
-12.7083
-12.7098
-12.7115
-12.7136
-12.7163
-12.7201
-12.7638
-12.7657
-12.7669
-12.7674
-12.7674
-12.7668
-12.7656
-12.7638
-12.7615
-12.7589
-12.756
-12.7528
-12.7496
-12.7463
-12.7431
-12.7399
-12.7369
-12.7339
-12.731
-12.7283
-12.7256
-12.7229
-12.7202
-12.7176
-12.7149
-12.7121
-12.7094
-12.7065
-12.7036
-12.7007
-12.6978
-12.6949
-12.6921
-12.6894
-12.6868
-12.6845
-12.6823
-12.6805
-12.6789
-12.6777
-12.6769
-12.6766
-12.6767
-12.6773
-12.6785
-12.6804
-12.683
-12.6864
-12.6911
-12.6978
-12.786
-12.7908
-12.7939
-12.7957
-12.7965
-12.7963
-12.7951
-12.793
-12.7901
-12.7865
-12.7823
-12.7779
-12.7731
-12.7683
-12.7633
-12.7584
-12.7536
-12.7489
-12.7442
-12.7397
-12.7352
-12.7307
-12.7262
-12.7218
-12.7173
-12.7127
-12.7081
-12.7034
-12.6986
-12.6938
-12.6889
-12.6841
-12.6792
-12.6745
-12.6699
-12.6655
-12.6613
-12.6575
-12.6542
-12.6513
-12.649
-12.6475
-12.6467
-12.6467
-12.6478
-12.65
-12.6535
-12.6581
-12.6648
-12.6745
-12.809
-12.8168
-12.8218
-12.8249
-12.8265
-12.8266
-12.8254
-12.8228
-12.8191
-12.8145
-12.8092
-12.8033
-12.7971
-12.7906
-12.784
-12.7774
-12.7708
-12.7643
-12.7579
-12.7516
-12.7453
-12.7391
-12.7329
-12.7267
-12.7204
-12.714
-12.7076
-12.701
-12.6943
-12.6876
-12.6807
-12.6738
-12.6668
-12.66
-12.6532
-12.6466
-12.6404
-12.6345
-12.6291
-12.6244
-12.6205
-12.6175
-12.6156
-12.615
-12.6158
-12.6183
-12.6224
-12.6284
-12.637
-12.6498
-12.8334
-12.8441
-12.8511
-12.8554
-12.8577
-12.8581
-12.8567
-12.8536
-12.849
-12.8433
-12.8367
-12.8293
-12.8215
-12.8134
-12.8051
-12.7968
-12.7885
-12.7803
-12.7721
-12.7641
-12.7561
-12.7481
-12.7402
-12.7322
-12.7242
-12.716
-12.7077
-12.6993
-12.6907
-12.682
-12.6731
-12.6641
-12.655
-12.6459
-12.6368
-12.628
-12.6194
-12.6112
-12.6037
-12.5969
-12.5911
-12.5865
-12.5833
-12.5817
-12.5821
-12.5846
-12.5894
-12.5965
-12.6072
-12.6231
-12.8596
-12.8734
-12.8823
-12.8878
-12.8907
-12.8912
-12.8895
-12.8856
-12.88
-12.8731
-12.865
-12.856
-12.8466
-12.8367
-12.8267
-12.8166
-12.8066
-12.7966
-12.7867
-12.7769
-12.7672
-12.7576
-12.748
-12.7383
-12.7285
-12.7186
-12.7085
-12.6983
-12.6878
-12.677
-12.6661
-12.6549
-12.6436
-12.6321
-12.6207
-12.6094
-12.5983
-12.5877
-12.5777
-12.5686
-12.5606
-12.554
-12.5492
-12.5464
-12.546
-12.5484
-12.5537
-12.5619
-12.5747
-12.594
-12.8881
-12.9052
-12.9161
-12.9226
-12.926
-12.9265
-12.9241
-12.9193
-12.9125
-12.904
-12.8942
-12.8835
-12.8722
-12.8606
-12.8487
-12.8368
-12.8249
-12.8132
-12.8016
-12.7901
-12.7788
-12.7675
-12.7562
-12.7448
-12.7333
-12.7217
-12.7099
-12.6978
-12.6854
-12.6727
-12.6596
-12.6463
-12.6327
-12.6188
-12.6049
-12.591
-12.5772
-12.5638
-12.5511
-12.5393
-12.5288
-12.5199
-12.513
-12.5087
-12.5073
-12.5092
-12.5147
-12.524
-12.5388
-12.5616
-12.9197
-12.9402
-12.953
-12.9605
-12.9643
-12.9644
-12.9611
-12.955
-12.9465
-12.9362
-12.9245
-12.9119
-12.8986
-12.8849
-12.8711
-12.8573
-12.8436
-12.83
-12.8167
-12.8035
-12.7905
-12.7776
-12.7646
-12.7517
-12.7386
-12.7253
-12.7117
-12.6978
-12.6836
-12.6689
-12.6538
-12.6382
-12.6222
-12.6059
-12.5893
-12.5726
-12.556
-12.5396
-12.5238
-12.509
-12.4955
-12.4838
-12.4745
-12.468
-12.4651
-12.4662
-12.4718
-12.4819
-12.4988
-12.5253
-12.955
-12.9792
-12.994
-13.0024
-13.0061
-13.0054
-13.0009
-12.993
-12.9825
-12.97
-12.956
-12.9411
-12.9255
-12.9096
-12.8937
-12.8779
-12.8622
-12.8469
-12.8318
-12.8169
-12.8023
-12.7877
-12.7732
-12.7587
-12.744
-12.7291
-12.7139
-12.6983
-12.6822
-12.6656
-12.6484
-12.6306
-12.6123
-12.5934
-12.5741
-12.5544
-12.5346
-12.515
-12.4958
-12.4775
-12.4605
-12.4455
-12.4331
-12.424
-12.419
-12.4188
-12.424
-12.4348
-12.4537
-12.4842
-12.995
-13.0232
-13.0401
-13.049
-13.0523
-13.0504
-13.0439
-13.0337
-13.0207
-13.0054
-12.9887
-12.9711
-12.9529
-12.9346
-12.9164
-12.8984
-12.8808
-12.8635
-12.8467
-12.8301
-12.8139
-12.7978
-12.7817
-12.7657
-12.7495
-12.7331
-12.7163
-12.699
-12.6812
-12.6627
-12.6435
-12.6236
-12.6028
-12.5813
-12.5592
-12.5364
-12.5133
-12.49
-12.467
-12.4447
-12.4237
-12.4047
-12.3885
-12.376
-12.3682
-12.3661
-12.3703
-12.3814
-12.4023
-12.4371
-13.0408
-13.0733
-13.0922
-13.1014
-13.1037
-13.0998
-13.0907
-13.0775
-13.0611
-13.0425
-13.0225
-13.0017
-12.9806
-12.9596
-12.9389
-12.9186
-12.8989
-12.8797
-12.8611
-12.8429
-12.825
-12.8074
-12.79
-12.7725
-12.7549
-12.737
-12.7188
-12.6999
-12.6805
-12.6602
-12.6391
-12.617
-12.5939
-12.5697
-12.5446
-12.5186
-12.4919
-12.4648
-12.4376
-12.4108
-12.3851
-12.3613
-12.3404
-12.3236
-12.312
-12.307
-12.3096
-12.3205
-12.3433
-12.3828
-13.0937
-13.1312
-13.152
-13.1608
-13.1614
-13.1546
-13.1418
-13.1245
-13.1039
-13.0812
-13.0572
-13.0328
-13.0084
-12.9843
-12.9609
-12.9382
-12.9163
-12.8951
-12.8747
-12.8548
-12.8355
-12.8165
-12.7977
-12.7789
-12.76
-12.7408
-12.7212
-12.7009
-12.6799
-12.658
-12.635
-12.6108
-12.5854
-12.5587
-12.5306
-12.5013
-12.4708
-12.4394
-12.4075
-12.3757
-12.3445
-12.3151
-12.2884
-12.2661
-12.2495
-12.2404
-12.2403
-12.2504
-12.2749
-12.3196
-13.1555
-13.1988
-13.2213
-13.229
-13.2265
-13.2154
-13.1976
-13.1749
-13.149
-13.1212
-13.0926
-13.0639
-13.0356
-13.0083
-12.9819
-12.9566
-12.9324
-12.9093
-12.8871
-12.8657
-12.8449
-12.8246
-12.8046
-12.7846
-12.7646
-12.7442
-12.7234
-12.7018
-12.6794
-12.656
-12.6313
-12.6052
-12.5775
-12.5482
-12.5172
-12.4844
-12.45
-12.4141
-12.3772
-12.3396
-12.3022
-12.266
-12.2323
-12.2029
-12.1797
-12.165
-12.1608
-12.1689
-12.1948
-12.2453
-13.2287
-13.2786
-13.3025
-13.3077
-13.3004
-13.2832
-13.2585
-13.2288
-13.1961
-13.1621
-13.128
-13.0944
-13.0619
-13.0309
-13.0014
-12.9734
-12.947
-12.9219
-12.898
-12.8751
-12.8531
-12.8316
-12.8105
-12.7895
-12.7684
-12.7471
-12.7252
-12.7025
-12.6789
-12.6541
-12.6279
-12.6
-12.5703
-12.5385
-12.5046
-12.4684
-12.4299
-12.3893
-12.3468
-12.3029
-12.2583
-12.2141
-12.1719
-12.1336
-12.1017
-12.0792
-12.0689
-12.0734
-12.1
-12.1573
-13.3166
-13.3744
-13.3988
-13.3993
-13.3847
-13.3586
-13.3246
-13.2858
-13.2448
-13.2033
-13.1626
-13.1235
-13.0864
-13.0514
-13.0186
-12.988
-12.9593
-12.9324
-12.9069
-12.8827
-12.8595
-12.837
-12.815
-12.7932
-12.7714
-12.7492
-12.7265
-12.703
-12.6784
-12.6524
-12.6248
-12.5954
-12.5638
-12.5297
-12.493
-12.4534
-12.4109
-12.3654
-12.317
-12.2661
-12.2134
-12.1599
-12.1073
-12.0579
-12.0146
-11.9812
-11.9618
-11.9603
-11.9865
-12.0515
-13.4241
-13.4913
-13.5144
-13.5068
-13.481
-13.4424
-13.3959
-13.3454
-13.2941
-13.2437
-13.1955
-13.1502
-13.108
-13.069
-13.0329
-12.9997
-12.9689
-12.9403
-12.9135
-12.8882
-12.864
-12.8408
-12.8181
-12.7957
-12.7733
-12.7506
-12.7273
-12.7031
-12.6777
-12.6509
-12.6222
-12.5915
-12.5582
-12.5221
-12.4828
-12.4401
-12.3935
-12.343
-12.2884
-12.23
-12.1683
-12.1041
-12.0391
-11.9757
-11.9175
-11.8692
-11.8363
-11.8249
-11.8486
-11.9224
-13.5588
-13.6367
-13.655
-13.6338
-13.5909
-13.5347
-13.4715
-13.4063
-13.3424
-13.2816
-13.2251
-13.1731
-13.1257
-13.0826
-13.0434
-13.0077
-12.9751
-12.9451
-12.9172
-12.891
-12.8663
-12.8425
-12.8195
-12.7967
-12.774
-12.751
-12.7274
-12.7028
-12.677
-12.6496
-12.6202
-12.5884
-12.5538
-12.516
-12.4745
-12.4288
-12.3785
-12.3231
-12.2623
-12.196
-12.1243
-12.048
-11.9682
-11.8876
-11.8101
-11.7413
-11.6886
-11.661
-11.6781
-11.7617
-13.7329
-13.8216
-13.8283
-13.7841
-13.7156
-13.6347
-13.5496
-13.4661
-13.3874
-13.315
-13.2495
-13.1906
-13.1381
-13.0911
-13.0492
-13.0114
-12.9774
-12.9463
-12.9177
-12.8911
-12.8661
-12.8422
-12.8191
-12.7963
-12.7736
-12.7506
-12.727
-12.7024
-12.6764
-12.6487
-12.6189
-12.5865
-12.551
-12.5119
-12.4685
-12.4204
-12.3667
-12.3067
-12.2399
-12.1656
-12.0834
-11.9936
-11.8969
-11.7953
-11.6928
-11.5961
-11.5143
-11.4604
-11.4631
-11.5558
-13.9676
-14.0627
-14.0441
-13.9617
-13.855
-13.7402
-13.6271
-13.5215
-13.4259
-13.341
-13.2662
-13.2008
-13.1436
-13.0934
-13.0492
-13.0101
-12.9752
-12.9436
-12.9149
-12.8883
-12.8634
-12.8397
-12.8169
-12.7944
-12.7721
-12.7494
-12.7261
-12.7017
-12.676
-12.6484
-12.6186
-12.586
-12.5501
-12.5102
-12.4656
-12.4156
-12.3592
-12.2953
-12.223
-12.141
-12.0483
-11.9441
-11.8283
-11.7019
-11.568
-11.4334
-11.309
-11.2125
-11.1858
-11.2819
-14.3019
-14.3854
-14.3139
-14.1688
-14.006
-13.8459
-13.6981
-13.5671
-13.4534
-13.3559
-13.2726
-13.2015
-13.1406
-13.0883
-13.0429
-13.0032
-12.9681
-12.9368
-12.9084
-12.8824
-12.8581
-12.8351
-12.813
-12.7912
-12.7695
-12.7475
-12.7249
-12.7012
-12.676
-12.6489
-12.6196
-12.5873
-12.5515
-12.5115
-12.4665
-12.4155
-12.3573
-12.2906
-12.2138
-12.1251
-12.0226
-11.9041
-11.768
-11.6132
-11.441
-11.2564
-11.0705
-10.9052
-10.8195
-10.8982
-14.8077
-14.8272
-14.6492
-14.4027
-14.1599
-13.9415
-13.7533
-13.5951
-13.4639
-13.3553
-13.2653
-13.1905
-13.1277
-13.0746
-13.0293
-12.9902
-12.956
-12.9257
-12.8984
-12.8735
-12.8504
-12.8285
-12.8075
-12.7868
-12.7662
-12.7453
-12.7236
-12.7009
-12.6767
-12.6506
-12.6222
-12.5908
-12.5558
-12.5165
-12.472
-12.421
-12.3624
-12.2943
-12.2148
-12.1214
-12.0109
-11.8797
-11.7238
-11.539
-11.3223
-11.0741
-10.8013
-10.5265
-10.3252
-10.3293
-15.6155
-15.4382
-15.0575
-14.6539
-14.3012
-14.0121
-13.7805
-13.5968
-13.4512
-13.3352
-13.2419
-13.1662
-13.1039
-13.0522
-13.0085
-12.9713
-12.939
-12.9106
-12.8852
-12.862
-12.8406
-12.8203
-12.8008
-12.7816
-12.7624
-12.7428
-12.7226
-12.7012
-12.6784
-12.6537
-12.6267
-12.5968
-12.5634
-12.5256
-12.4825
-12.4329
-12.3754
-12.3079
-12.2281
-12.1328
-12.0178
-11.8776
-11.7052
-11.4919
-11.2277
-10.9027
-10.5117
-10.0687
-9.6518
-9.44112
-17.0219
-16.2586
-15.5143
-14.8887
-14.3993
-14.0338
-13.7635
-13.5618
-13.4093
-13.2922
-13.2006
-13.1279
-13.0692
-13.0211
-12.981
-12.947
-12.9177
-12.8921
-12.8692
-12.8484
-12.8291
-12.8108
-12.7932
-12.7758
-12.7584
-12.7405
-12.7219
-12.7023
-12.6813
-12.6584
-12.6334
-12.6055
-12.5742
-12.5388
-12.4983
-12.4515
-12.3969
-12.3324
-12.2554
-12.1622
-12.0478
-11.905
-11.7238
-11.4899
-11.183
-10.7755
-10.2375
-9.55853
-8.7594
-7.92891
-19.8567
-17.2574
-15.8387
-14.9531
-14.3465
-13.9366
-13.6578
-13.4621
-13.3201
-13.2142
-13.1331
-13.0698
-13.0192
-12.978
-12.9439
-12.9151
-12.8904
-12.8687
-12.8494
-12.8317
-12.8153
-12.7997
-12.7845
-12.7695
-12.7542
-12.7386
-12.7222
-12.7048
-12.6861
-12.6657
-12.6432
-12.6182
-12.5902
-12.5584
-12.522
-12.4799
-12.4307
-12.3726
-12.303
-12.2183
-12.1134
-11.9807
-11.8085
-11.5785
-11.2601
-10.8032
-10.1382
-9.18047
-7.67563
-4.95699
-24.7252
-18.3404
-15.6748
-14.5769
-13.981
-13.6275
-13.409
-13.2642
-13.1619
-13.0862
-13.0285
-12.9832
-12.947
-12.9174
-12.8928
-12.8719
-12.8539
-12.838
-12.8236
-12.8104
-12.7979
-12.7858
-12.774
-12.762
-12.7498
-12.737
-12.7236
-12.7092
-12.6936
-12.6766
-12.6578
-12.6369
-12.6135
-12.5871
-12.5569
-12.5222
-12.482
-12.4348
-12.3788
-12.3113
-12.2286
-12.1249
-11.9909
-11.81
-11.5502
-11.1478
-10.4861
-9.29348
-6.5108
-0.000191541
)
;

boundaryField
{
    movingWallTop
    {
        type            zeroGradient;
    }
    movingWallBottom
    {
        type            zeroGradient;
    }
    fixedWalls
    {
        type            zeroGradient;
    }
    frontAndBack
    {
        type            empty;
    }
}


// ************************************************************************* //
