/*--------------------------------*- C++ -*----------------------------------*\
  =========                 |
  \\      /  F ield         | OpenFOAM: The Open Source CFD Toolbox
   \\    /   O peration     | Website:  https://openfoam.org
    \\  /    A nd           | Version:  7
     \\/     M anipulation  |
\*---------------------------------------------------------------------------*/
FoamFile
{
    version     2.0;
    format      ascii;
    class       surfaceScalarField;
    location    "0.0212";
    object      phi;
}
// * * * * * * * * * * * * * * * * * * * * * * * * * * * * * * * * * * * * * //

dimensions      [0 3 -1 0 0 0 0];

internalField   nonuniform List<scalar> 
4900
(
-5.55686e-06
5.55686e-06
-1.01626e-05
4.60578e-06
-1.29484e-05
2.78574e-06
-1.46645e-05
1.71614e-06
-1.57611e-05
1.09658e-06
-1.64925e-05
7.31371e-07
-1.70043e-05
5.11848e-07
-1.73788e-05
3.745e-07
-1.76628e-05
2.83989e-07
-1.78841e-05
2.2126e-07
-1.80599e-05
1.75868e-07
-1.82018e-05
1.41839e-07
-1.83174e-05
1.15583e-07
-1.84122e-05
9.48332e-08
-1.84903e-05
7.80981e-08
-1.85546e-05
6.43539e-08
-1.86075e-05
5.28748e-08
-1.86506e-05
4.31308e-08
-1.86854e-05
3.47235e-08
-1.87127e-05
2.73459e-08
-1.87335e-05
2.07549e-08
-1.87482e-05
1.47525e-08
-1.87574e-05
9.17251e-09
-1.87613e-05
3.87111e-09
-1.876e-05
-1.28188e-09
-1.87536e-05
-6.40678e-09
-1.8742e-05
-1.1623e-08
-1.87249e-05
-1.70513e-08
-1.87021e-05
-2.28206e-08
-1.8673e-05
-2.90742e-08
-1.8637e-05
-3.59768e-08
-1.85933e-05
-4.37249e-08
-1.85407e-05
-5.25601e-08
-1.8478e-05
-6.27876e-08
-1.84032e-05
-7.48037e-08
-1.8314e-05
-8.91375e-08
-1.82075e-05
-1.06515e-07
-1.80795e-05
-1.27964e-07
-1.79245e-05
-1.54991e-07
-1.77347e-05
-1.89893e-07
-1.74983e-05
-2.36327e-07
-1.7198e-05
-3.00375e-07
-1.68054e-05
-3.92594e-07
-1.62734e-05
-5.31978e-07
-1.55205e-05
-7.52922e-07
-1.44055e-05
-1.11496e-06
-1.26892e-05
-1.71625e-06
-9.95074e-06
-2.7385e-06
-5.45407e-06
-4.49667e-06
-5.45407e-06
-1.18681e-08
5.56873e-06
-2.12658e-06
6.72048e-06
-4.84477e-06
5.50393e-06
-7.24808e-06
4.11945e-06
-9.16791e-06
3.01641e-06
-1.06576e-05
2.22111e-06
-1.18112e-05
1.66544e-06
-1.27123e-05
1.27559e-06
-1.34249e-05
9.96567e-07
-1.39955e-05
7.9185e-07
-1.44575e-05
6.37846e-07
-1.48349e-05
5.19252e-07
-1.51453e-05
4.25978e-07
-1.54017e-05
3.51217e-07
-1.56138e-05
2.90255e-07
-1.57892e-05
2.39744e-07
-1.59336e-05
1.97249e-07
-1.60514e-05
1.60951e-07
-1.61462e-05
1.29464e-07
-1.62205e-05
1.01705e-07
-1.62766e-05
7.68046e-08
-1.63159e-05
5.40505e-08
-1.63395e-05
3.28393e-08
-1.63483e-05
1.26446e-08
-1.63426e-05
-7.00819e-09
-1.63224e-05
-2.65655e-08
-1.62876e-05
-4.64622e-08
-1.62375e-05
-6.71411e-08
-1.61712e-05
-8.90716e-08
-1.60875e-05
-1.12771e-07
-1.59847e-05
-1.38829e-07
-1.58605e-05
-1.67942e-07
-1.57121e-05
-2.00954e-07
-1.55359e-05
-2.38921e-07
-1.53276e-05
-2.83189e-07
-1.50812e-05
-3.35521e-07
-1.47894e-05
-3.98283e-07
-1.44426e-05
-4.74719e-07
-1.40282e-05
-5.69394e-07
-1.35292e-05
-6.8889e-07
-1.29227e-05
-8.42924e-07
-1.21769e-05
-1.04613e-06
-1.12487e-05
-1.32081e-06
-1.00797e-05
-1.70101e-06
-8.59565e-06
-2.23693e-06
-6.71668e-06
-2.99393e-06
-4.40376e-06
-4.02918e-06
-1.82628e-06
-5.31598e-06
1.21156e-07
-6.4441e-06
-5.33292e-06
1.03527e-06
4.53346e-06
5.59724e-07
7.19603e-06
-9.61736e-07
7.02539e-06
-2.83202e-06
5.98973e-06
-4.65815e-06
4.84254e-06
-6.28057e-06
3.84353e-06
-7.66087e-06
3.04574e-06
-8.81311e-06
2.42783e-06
-9.7686e-06
1.95206e-06
-1.05604e-05
1.58366e-06
-1.12178e-05
1.29526e-06
-1.1765e-05
1.06647e-06
-1.22215e-05
8.82415e-07
-1.26026e-05
7.323e-07
-1.29205e-05
6.08193e-07
-1.3185e-05
5.04217e-07
-1.34037e-05
4.15939e-07
-1.35827e-05
3.39962e-07
-1.37268e-05
2.73636e-07
-1.384e-05
2.14849e-07
-1.39251e-05
1.61885e-07
-1.39843e-05
1.13313e-07
-1.40194e-05
6.79147e-08
-1.40314e-05
2.46158e-08
-1.40208e-05
-1.75564e-08
-1.39879e-05
-5.95168e-08
-1.39322e-05
-1.02157e-07
-1.38529e-05
-1.46381e-07
-1.37489e-05
-1.93138e-07
-1.36182e-05
-2.43465e-07
-1.34585e-05
-2.9853e-07
-1.32667e-05
-3.59691e-07
-1.30391e-05
-4.28569e-07
-1.27709e-05
-5.07149e-07
-1.24562e-05
-5.97912e-07
-1.20877e-05
-7.04023e-07
-1.16564e-05
-8.29593e-07
-1.1151e-05
-9.80056e-07
-1.05577e-05
-1.16269e-06
-9.85923e-06
-1.38737e-06
-9.03461e-06
-1.66755e-06
-8.05926e-06
-2.02147e-06
-6.9068e-06
-2.47328e-06
-5.55482e-06
-3.05299e-06
-3.99969e-06
-3.79206e-06
-2.28824e-06
-4.70538e-06
-5.7855e-07
-5.73887e-06
7.60853e-07
-6.65539e-06
1.0849e-06
-6.76814e-06
-4.24802e-06
9.11649e-07
3.62181e-06
1.24987e-06
6.85782e-06
6.90832e-07
7.58443e-06
-4.40296e-07
7.12086e-06
-1.81561e-06
6.21785e-06
-3.21816e-06
5.24607e-06
-4.53226e-06
4.35984e-06
-5.70944e-06
3.60501e-06
-6.7384e-06
2.98102e-06
-7.62571e-06
2.47098e-06
-8.38512e-06
2.05467e-06
-9.03219e-06
1.71353e-06
-9.58182e-06
1.43204e-06
-1.00473e-05
1.19775e-06
-1.044e-05
1.00088e-06
-1.07695e-05
8.33747e-07
-1.10438e-05
6.90285e-07
-1.12696e-05
5.65688e-07
-1.1452e-05
4.56092e-07
-1.15955e-05
3.58343e-07
-1.17035e-05
2.69825e-07
-1.17785e-05
1.88323e-07
-1.18225e-05
1.11924e-07
-1.18368e-05
3.89264e-08
-1.18221e-05
-3.22192e-08
-1.17787e-05
-1.02973e-07
-1.17061e-05
-1.74758e-07
-1.16034e-05
-2.49005e-07
-1.14694e-05
-3.27206e-07
-1.13019e-05
-4.10967e-07
-1.10983e-05
-5.02071e-07
-1.08555e-05
-6.02552e-07
-1.05692e-05
-7.14788e-07
-1.02348e-05
-8.41616e-07
-9.84621e-06
-9.86485e-07
-9.39658e-06
-1.15365e-06
-8.87774e-06
-1.34843e-06
-8.2803e-06
-1.5775e-06
-7.59368e-06
-1.84931e-06
-6.80661e-06
-2.17444e-06
-5.90827e-06
-2.56589e-06
-4.8908e-06
-3.03893e-06
-3.75449e-06
-3.60959e-06
-2.51742e-06
-4.29006e-06
-1.23229e-06
-5.07719e-06
-1.16174e-08
-5.92605e-06
9.46128e-07
-6.69661e-06
1.3479e-06
-7.05716e-06
9.15491e-07
-6.33573e-06
-3.33253e-06
6.79436e-07
2.94237e-06
1.2726e-06
6.26465e-06
1.28626e-06
7.57077e-06
7.59968e-07
7.64716e-06
-1.20257e-07
7.09808e-06
-1.17356e-06
6.29938e-06
-2.26923e-06
5.4555e-06
-3.3275e-06
4.66328e-06
-4.30642e-06
3.95994e-06
-5.18817e-06
3.35272e-06
-5.96889e-06
2.8354e-06
-6.65217e-06
2.39681e-06
-7.245e-06
2.02487e-06
-7.75565e-06
1.7084e-06
-8.19239e-06
1.43762e-06
-8.56292e-06
1.20428e-06
-8.87412e-06
1.00149e-06
-9.13197e-06
8.2354e-07
-9.34154e-06
6.65658e-07
-9.50703e-06
5.23834e-07
-9.63186e-06
3.94658e-07
-9.71873e-06
2.75189e-07
-9.76964e-06
1.62838e-07
-9.786e-06
5.52835e-08
-9.76861e-06
-4.96085e-08
-9.71773e-06
-1.53854e-07
-9.63308e-06
-2.5941e-07
-9.51385e-06
-3.68236e-07
-9.3587e-06
-4.82352e-07
-9.16577e-06
-6.03899e-07
-8.93263e-06
-7.3521e-07
-8.6563e-06
-8.78885e-07
-8.3332e-06
-1.03789e-06
-7.95918e-06
-1.21564e-06
-7.5295e-06
-1.41616e-06
-7.03894e-06
-1.64422e-06
-6.48193e-06
-1.90543e-06
-5.85296e-06
-2.20648e-06
-5.14719e-06
-2.55508e-06
-4.36171e-06
-2.95992e-06
-3.49763e-06
-3.42997e-06
-2.56367e-06
-3.9729e-06
-1.58175e-06
-4.59151e-06
-5.95406e-07
-5.2764e-06
3.19368e-07
-5.99197e-06
1.04459e-06
-6.65127e-06
1.42317e-06
-7.07519e-06
1.30178e-06
-6.93578e-06
6.66839e-07
-5.70079e-06
-2.66569e-06
4.89887e-07
2.45249e-06
1.11141e-06
5.64313e-06
1.41686e-06
7.26531e-06
1.30415e-06
7.75987e-06
8.39184e-07
7.56304e-06
1.38733e-07
6.99983e-06
-6.87032e-07
6.28127e-06
-1.55459e-06
5.53084e-06
-2.40818e-06
4.81353e-06
-3.21427e-06
4.15881e-06
-3.95499e-06
3.57612e-06
-4.6227e-06
3.06452e-06
-5.21601e-06
2.61818e-06
-5.73702e-06
2.22942e-06
-6.1897e-06
1.8903e-06
-6.57875e-06
1.59332e-06
-6.90898e-06
1.33172e-06
-7.18498e-06
1.09955e-06
-7.41091e-06
8.91585e-07
-7.59038e-06
7.03302e-07
-7.72644e-06
5.30716e-07
-7.82156e-06
3.70308e-07
-7.87765e-06
2.18928e-07
-7.89607e-06
7.37083e-08
-7.87767e-06
-6.801e-08
-7.82278e-06
-2.08746e-07
-7.73124e-06
-3.50942e-07
-7.60246e-06
-4.97025e-07
-7.43534e-06
-6.49465e-07
-7.2284e-06
-8.10838e-07
-6.97973e-06
-9.83888e-07
-6.68702e-06
-1.17159e-06
-6.34767e-06
-1.37723e-06
-5.95885e-06
-1.60446e-06
-5.51762e-06
-1.85739e-06
-5.02123e-06
-2.1406e-06
-4.46751e-06
-2.45916e-06
-3.85545e-06
-2.81853e-06
-3.18628e-06
-3.22425e-06
-2.46494e-06
-3.68126e-06
-1.70239e-06
-4.19251e-06
-9.18856e-07
-4.75644e-06
-1.48076e-07
-5.36229e-06
5.57812e-07
-5.98229e-06
1.1247e-06
-6.55885e-06
1.45895e-06
-6.98553e-06
1.46601e-06
-7.08224e-06
1.10099e-06
-6.57076e-06
4.71998e-07
-5.07179e-06
-2.19369e-06
3.58833e-07
2.09365e-06
9.30793e-07
5.07117e-06
1.3624e-06
6.83371e-06
1.50427e-06
7.618e-06
1.34679e-06
7.72052e-06
9.47956e-07
7.39866e-06
3.84947e-07
6.84428e-06
-2.70927e-07
6.18672e-06
-9.6354e-07
5.50615e-06
-1.65292e-06
4.84818e-06
-2.3128e-06
4.236e-06
-2.92729e-06
3.67902e-06
-3.48785e-06
3.17874e-06
-3.99081e-06
2.73238e-06
-4.43561e-06
2.3351e-06
-4.82353e-06
1.98125e-06
-5.15687e-06
1.66506e-06
-5.43835e-06
1.38102e-06
-5.67078e-06
1.12401e-06
-5.85682e-06
8.89341e-07
-5.99886e-06
6.72756e-07
-6.09893e-06
4.70382e-07
-6.15867e-06
2.78672e-07
-6.17931e-06
9.43459e-08
-6.16165e-06
-8.56675e-08
-6.10611e-06
-2.64292e-07
-6.01269e-06
-4.44357e-07
-5.88106e-06
-6.28653e-07
-5.71054e-06
-8.19984e-07
-5.50017e-06
-1.02121e-06
-5.24874e-06
-1.23532e-06
-4.95491e-06
-1.46542e-06
-4.6173e-06
-1.71484e-06
-4.23467e-06
-1.9871e-06
-3.80616e-06
-2.28589e-06
-3.33169e-06
-2.61508e-06
-2.8124e-06
-2.97844e-06
-2.25151e-06
-3.37943e-06
-1.65526e-06
-3.8205e-06
-1.03444e-06
-4.30208e-06
-4.06223e-07
-4.82073e-06
2.03577e-07
-5.36623e-06
7.58237e-07
-5.91695e-06
1.20878e-06
-6.43284e-06
1.49565e-06
-6.84572e-06
1.55732e-06
-7.04719e-06
1.35191e-06
-6.87684e-06
8.98523e-07
-6.11737e-06
3.39798e-07
-4.51307e-06
-1.85389e-06
2.72302e-07
1.82135e-06
7.75933e-07
4.56754e-06
1.24596e-06
6.36368e-06
1.53206e-06
7.33191e-06
1.5857e-06
7.66688e-06
1.42225e-06
7.56212e-06
1.08708e-06
7.17944e-06
6.3317e-07
6.64063e-06
1.09052e-07
6.03026e-06
-4.45926e-07
5.40316e-06
-1.00237e-06
4.79244e-06
-1.53971e-06
4.21635e-06
-2.04439e-06
3.68342e-06
-2.50814e-06
3.19613e-06
-2.92643e-06
2.75339e-06
-3.29729e-06
2.35211e-06
-3.62042e-06
1.98819e-06
-3.89652e-06
1.65712e-06
-4.12684e-06
1.35434e-06
-4.31291e-06
1.07541e-06
-4.45627e-06
8.1611e-07
-4.55834e-06
5.72455e-07
-4.62037e-06
3.40705e-07
-4.64336e-06
1.17337e-07
-4.62804e-06
-1.0099e-07
-4.57486e-06
-3.17471e-07
-4.48402e-06
-5.35196e-07
-4.35549e-06
-7.57188e-07
-4.18904e-06
-9.86438e-07
-3.98431e-06
-1.22594e-06
-3.74092e-06
-1.47871e-06
-3.45856e-06
-1.74779e-06
-3.13713e-06
-2.03627e-06
-2.77703e-06
-2.3472e-06
-2.37939e-06
-2.68354e-06
-1.94651e-06
-3.04796e-06
-1.48238e-06
-3.44256e-06
-9.93454e-07
-3.86836e-06
-4.89469e-07
-4.32449e-06
1.53772e-08
-4.80692e-06
5.01241e-07
-5.30659e-06
9.41522e-07
-5.80652e-06
1.30237e-06
-6.2778e-06
1.54384e-06
-6.67431e-06
1.62429e-06
-6.92616e-06
1.51054e-06
-6.93344e-06
1.19653e-06
-6.56283e-06
7.31584e-07
-5.65243e-06
2.53263e-07
-4.03475e-06
-1.60063e-06
2.14407e-07
1.60694e-06
6.52374e-07
4.12957e-06
1.11799e-06
5.89806e-06
1.47793e-06
6.97196e-06
1.66834e-06
7.47648e-06
1.67785e-06
7.5526e-06
1.52668e-06
7.3306e-06
1.24948e-06
6.91784e-06
8.8391e-07
6.39584e-06
4.64426e-07
5.82265e-06
1.95957e-08
5.23727e-06
-4.28443e-07
4.66439e-06
-8.63427e-07
4.1184e-06
-1.27398e-06
3.60668e-06
-1.65254e-06
3.13196e-06
-1.99443e-06
2.69399e-06
-2.29698e-06
2.29074e-06
-2.55898e-06
1.91912e-06
-2.78014e-06
1.5755e-06
-2.96076e-06
1.25603e-06
-3.10144e-06
9.56795e-07
-3.20295e-06
6.73963e-07
-3.26605e-06
4.03808e-07
-3.29146e-06
1.42742e-07
-3.27977e-06
-1.12683e-07
-3.23145e-06
-3.65784e-07
-3.14688e-06
-6.19769e-07
-3.02631e-06
-8.77752e-07
-2.86999e-06
-1.14276e-06
-2.67817e-06
-1.41776e-06
-2.45126e-06
-1.70562e-06
-2.18993e-06
-2.00912e-06
-1.89532e-06
-2.33088e-06
-1.56924e-06
-2.67327e-06
-1.21453e-06
-3.03825e-06
-8.35391e-07
-3.4271e-06
-4.37907e-07
-3.84005e-06
-3.06141e-08
-4.27566e-06
3.74834e-07
-4.72994e-06
7.62988e-07
-5.19508e-06
1.11405e-06
-5.65765e-06
1.40371e-06
-6.09618e-06
1.60396e-06
-6.47805e-06
1.68546e-06
-6.75581e-06
1.62288e-06
-6.86357e-06
1.40402e-06
-6.71459e-06
1.04377e-06
-6.20259e-06
6.01443e-07
-5.2101e-06
1.95696e-07
-3.629e-06
-1.40494e-06
1.74229e-07
1.43271e-06
5.5512e-07
3.74868e-06
9.96972e-07
5.45621e-06
1.38783e-06
6.5811e-06
1.66153e-06
7.20279e-06
1.79209e-06
7.42204e-06
1.78207e-06
7.34062e-06
1.65067e-06
7.04924e-06
1.42441e-06
6.62209e-06
1.13097e-06
6.11609e-06
7.95658e-07
5.57259e-06
4.39832e-07
5.02022e-06
8.05422e-08
4.47769e-06
-2.69215e-07
3.95644e-06
-5.99914e-07
3.46266e-06
-9.04842e-07
2.99892e-06
-1.17948e-06
2.56537e-06
-1.42093e-06
2.16057e-06
-1.62751e-06
1.78208e-06
-1.79834e-06
1.42687e-06
-1.93314e-06
1.09159e-06
-2.03195e-06
7.72776e-07
-2.09505e-06
4.66905e-07
-2.12282e-06
1.70507e-07
-2.11569e-06
-1.19812e-07
-2.07413e-06
-4.07345e-07
-1.99862e-06
-6.95274e-07
-1.88971e-06
-9.86659e-07
-1.74805e-06
-1.28443e-06
-1.57444e-06
-1.59136e-06
-1.37e-06
-1.91005e-06
-1.13627e-06
-2.24285e-06
-8.75401e-07
-2.59175e-06
-5.90367e-07
-2.9583e-06
-2.85268e-07
-3.34335e-06
3.43551e-08
-3.74672e-06
3.61141e-07
-4.16683e-06
6.85498e-07
-4.60001e-06
9.95215e-07
-5.03965e-06
1.27517e-06
-5.47504e-06
1.50734e-06
-5.88982e-06
1.6713e-06
-6.26013e-06
1.74565e-06
-6.55239e-06
1.71095e-06
-6.72112e-06
1.55465e-06
-6.70728e-06
1.27841e-06
-6.43835e-06
9.07572e-07
-5.83175e-06
5.00906e-07
-4.80343e-06
1.56015e-07
-3.28411e-06
-1.24892e-06
1.45095e-07
1.28762e-06
4.77783e-07
3.41599e-06
8.88148e-07
5.04585e-06
1.28434e-06
6.1849e-06
1.60425e-06
6.88288e-06
1.81533e-06
7.21095e-06
1.90887e-06
7.24709e-06
1.89232e-06
7.06578e-06
1.78242e-06
6.732e-06
1.59974e-06
6.29876e-06
1.36518e-06
5.80715e-06
1.09788e-06
5.28752e-06
8.14228e-07
4.76135e-06
5.27594e-07
4.24307e-06
2.48489e-07
3.74176e-06
-1.51062e-08
3.26252e-06
-2.57321e-07
2.80759e-06
-4.73972e-07
2.37722e-06
-6.62193e-07
1.9703e-06
-8.20111e-07
1.58478e-06
-9.46592e-07
1.21807e-06
-1.04103e-06
8.67216e-07
-1.10321e-06
5.2908e-07
-1.13317e-06
2.00466e-07
-1.13116e-06
-1.21818e-07
-1.09761e-06
-4.40901e-07
-1.03307e-06
-7.59805e-07
-9.38318e-07
-1.08141e-06
-8.14317e-07
-1.40843e-06
-6.62348e-07
-1.74333e-06
-4.84095e-07
-2.08831e-06
-2.81772e-07
-2.44517e-06
-5.82968e-08
-2.81523e-06
1.8252e-07
-3.19912e-06
4.35746e-07
-3.59657e-06
6.95075e-07
-4.00605e-06
9.52573e-07
-4.42433e-06
1.19844e-06
-4.84589e-06
1.42089e-06
-5.2621e-06
1.60614e-06
-5.66028e-06
1.7388e-06
-6.02248e-06
1.80276e-06
-6.3241e-06
1.78291e-06
-6.53254e-06
1.66788e-06
-6.60609e-06
1.45425e-06
-6.49364e-06
1.1519e-06
-6.136e-06
7.90094e-07
-5.46994e-06
4.22395e-07
-4.43573e-06
1.27512e-07
-2.98923e-06
-1.12141e-06
1.23018e-07
1.1646e-06
4.15008e-07
3.124e-06
7.91619e-07
4.66924e-06
1.17811e-06
5.79841e-06
1.51896e-06
6.54203e-06
1.77998e-06
6.94994e-06
1.94593e-06
7.08113e-06
2.01607e-06
6.99564e-06
1.99923e-06
6.74885e-06
1.90953e-06
6.38846e-06
1.76321e-06
5.95347e-06
1.57643e-06
5.47429e-06
1.36401e-06
4.97377e-06
1.13878e-06
4.4683e-06
9.1142e-07
3.96913e-06
6.90492e-07
3.48344e-06
4.82691e-07
3.01539e-06
2.93098e-07
2.56682e-06
1.25464e-07
2.13793e-06
-1.75282e-08
1.72778e-06
-1.3404e-07
1.33459e-06
-2.22887e-07
9.56063e-07
-2.83394e-07
5.89588e-07
-3.15289e-07
2.32361e-07
-3.18624e-07
-1.18483e-07
-2.93736e-07
-4.65788e-07
-2.41237e-07
-8.12305e-07
-1.62021e-07
-1.16063e-06
-5.73103e-08
-1.51314e-06
7.12801e-08
-1.87192e-06
2.21655e-07
-2.23868e-06
3.91121e-07
-2.61464e-06
5.76255e-07
-3.00036e-06
7.72743e-07
-3.39561e-06
9.75218e-07
-3.79905e-06
1.17709e-06
-4.20792e-06
1.37042e-06
-4.61766e-06
1.54581e-06
-5.02128e-06
1.69249e-06
-5.40878e-06
1.79856e-06
-5.76635e-06
1.85152e-06
-6.07544e-06
1.83937e-06
-6.31196e-06
1.75228e-06
-6.44545e-06
1.585e-06
-6.43881e-06
1.34011e-06
-6.24875e-06
1.03178e-06
-5.82768e-06
6.89422e-07
-5.12758e-06
3.59857e-07
-4.10617e-06
1.06176e-07
-2.73555e-06
-1.01523e-06
1.05594e-07
1.05901e-06
3.62809e-07
2.86679e-06
7.0582e-07
4.32623e-06
1.07385e-06
5.43038e-06
1.41855e-06
6.19733e-06
1.70682e-06
6.66167e-06
1.92027e-06
6.86769e-06
2.05277e-06
6.86314e-06
2.10723e-06
6.69438e-06
2.09239e-06
6.4033e-06
2.02011e-06
6.02575e-06
1.90338e-06
5.59102e-06
1.75496e-06
5.12219e-06
1.58655e-06
4.63672e-06
1.40836e-06
4.14731e-06
1.22901e-06
3.66279e-06
1.05553e-06
3.18886e-06
8.93534e-07
2.72881e-06
7.47354e-07
2.28411e-06
6.20264e-07
1.85487e-06
5.14654e-07
1.4402e-06
4.3218e-07
1.03854e-06
3.73907e-07
6.47861e-07
3.40399e-07
2.65869e-07
3.31799e-07
-1.09883e-07
3.4787e-07
-4.81859e-07
3.88014e-07
-8.52449e-07
4.51262e-07
-1.22388e-06
5.36246e-07
-1.59813e-06
6.41143e-07
-1.97682e-06
7.63601e-07
-2.36114e-06
9.00653e-07
-2.75169e-06
1.04861e-06
-3.14832e-06
1.20294e-06
-3.54994e-06
1.35819e-06
-3.95429e-06
1.50785e-06
-4.35759e-06
1.64437e-06
-4.75418e-06
1.75917e-06
-5.13608e-06
1.84281e-06
-5.49242e-06
1.88539e-06
-5.80893e-06
1.87722e-06
-6.06727e-06
1.80984e-06
-6.24458e-06
1.67757e-06
-6.31317e-06
1.47946e-06
-6.2407e-06
1.22173e-06
-5.99102e-06
9.20245e-07
-5.5262e-06
6.02613e-07
-4.80994e-06
3.08851e-07
-3.8124e-06
8.95775e-08
-2.51627e-06
-9.25655e-07
9.13436e-08
9.67664e-07
3.18345e-07
2.63978e-06
6.28877e-07
4.01569e-06
9.73373e-07
5.08589e-06
1.31038e-06
5.86032e-06
1.60926e-06
6.36279e-06
1.85062e-06
6.62633e-06
2.02516e-06
6.6886e-06
2.13161e-06
6.58793e-06
2.17445e-06
6.36047e-06
2.16176e-06
6.03843e-06
2.10352e-06
5.64926e-06
2.01025e-06
5.21545e-06
1.89219e-06
4.75478e-06
1.75871e-06
4.2808e-06
1.61804e-06
3.80346e-06
1.47719e-06
3.32972e-06
1.34193e-06
2.86407e-06
1.21693e-06
2.40911e-06
1.10584e-06
1.96596e-06
1.01142e-06
1.53461e-06
9.35701e-07
1.11426e-06
8.80045e-07
7.03517e-07
8.45272e-07
3.00642e-07
8.31708e-07
-9.63188e-08
8.39232e-07
-4.89384e-07
8.67299e-07
-8.80516e-07
9.14934e-07
-1.27151e-06
9.80714e-07
-1.66391e-06
1.06273e-06
-2.05883e-06
1.15851e-06
-2.45693e-06
1.26501e-06
-2.85819e-06
1.37848e-06
-3.26178e-06
1.4944e-06
-3.66587e-06
1.60749e-06
-4.06738e-06
1.71161e-06
-4.46171e-06
1.79985e-06
-4.84242e-06
1.86461e-06
-5.20084e-06
1.89792e-06
-5.52573e-06
1.89181e-06
-5.80282e-06
1.83905e-06
-6.0145e-06
1.73405e-06
-6.13958e-06
1.5742e-06
-6.15333e-06
1.36139e-06
-6.02789e-06
1.10375e-06
-5.73337e-06
8.17256e-07
-5.2397e-06
5.26822e-07
-4.51951e-06
2.66216e-07
-3.5518e-06
7.62029e-08
-2.32626e-06
-8.49452e-07
7.93273e-08
8.88336e-07
2.79614e-07
2.4395e-06
5.59092e-07
3.73621e-06
8.77194e-07
4.76778e-06
1.19868e-06
5.53884e-06
1.49599e-06
6.06548e-06
1.75009e-06
6.37223e-06
1.95005e-06
6.48863e-06
2.09187e-06
6.44611e-06
2.17684e-06
6.2755e-06
2.20996e-06
6.00531e-06
2.19851e-06
5.66071e-06
2.15088e-06
5.26308e-06
2.0757e-06
4.82996e-06
1.98126e-06
4.37524e-06
1.87514e-06
3.90958e-06
1.76402e-06
3.44084e-06
1.6536e-06
2.97449e-06
1.54862e-06
2.5141e-06
1.4529e-06
2.06168e-06
1.36943e-06
1.61807e-06
1.30049e-06
1.1832e-06
1.24766e-06
7.56346e-07
1.21196e-06
3.36337e-07
1.19389e-06
-7.82489e-08
1.19345e-06
-4.88942e-07
1.21018e-06
-8.97241e-07
1.24315e-06
-1.30448e-06
1.29096e-06
-1.71172e-06
1.35173e-06
-2.1196e-06
1.42302e-06
-2.52822e-06
1.50181e-06
-2.93698e-06
1.58447e-06
-3.34444e-06
1.66671e-06
-3.74811e-06
1.74357e-06
-4.14425e-06
1.80947e-06
-4.52761e-06
1.85826e-06
-4.89121e-06
1.88343e-06
-5.22601e-06
1.87839e-06
-5.52069e-06
1.83693e-06
-5.76136e-06
1.75383e-06
-5.9314e-06
1.62573e-06
-6.01149e-06
1.45216e-06
-5.97975e-06
1.23671e-06
-5.81243e-06
9.88237e-07
-5.4849e-06
7.21909e-07
-4.97338e-06
4.59643e-07
-4.25724e-06
2.29714e-07
-3.32187e-06
6.50825e-08
-2.16163e-06
-7.8437e-07
6.89306e-08
8.19406e-07
2.45206e-07
2.26322e-06
4.9507e-07
3.48635e-06
7.85224e-07
4.47763e-06
1.08589e-06
5.23817e-06
1.37275e-06
5.77862e-06
1.62792e-06
6.11706e-06
1.83995e-06
6.2766e-06
2.00316e-06
6.2829e-06
2.11662e-06
6.16204e-06
2.18294e-06
5.939e-06
2.20711e-06
5.63653e-06
2.19559e-06
5.27461e-06
2.15544e-06
4.87011e-06
2.09376e-06
4.43691e-06
2.01732e-06
3.98602e-06
1.93229e-06
3.52588e-06
1.84406e-06
3.06272e-06
1.75726e-06
2.60089e-06
1.67574e-06
2.14321e-06
1.60256e-06
1.69125e-06
1.54012e-06
1.24564e-06
1.49017e-06
8.06299e-07
1.45387e-06
3.72639e-07
1.43185e-06
-5.62255e-08
1.42423e-06
-4.81325e-07
1.43066e-06
-9.03676e-07
1.45033e-06
-1.32415e-06
1.48191e-06
-1.74331e-06
1.52363e-06
-2.16132e-06
1.57318e-06
-2.57776e-06
1.6277e-06
-2.9915e-06
1.68382e-06
-3.40055e-06
1.73757e-06
-3.80186e-06
1.78447e-06
-4.19115e-06
1.81957e-06
-4.5627e-06
1.83753e-06
-4.90917e-06
1.83291e-06
-5.22139e-06
1.80039e-06
-5.48817e-06
1.73523e-06
-5.69619e-06
1.63382e-06
-5.83e-06
1.49442e-06
-5.87208e-06
1.31793e-06
-5.80326e-06
1.10882e-06
-5.60332e-06
8.7592e-07
-5.25201e-06
6.33052e-07
-4.73051e-06
3.99151e-07
-4.02334e-06
1.97751e-07
-3.12047e-06
5.55741e-08
-2.01945e-06
-7.28796e-07
5.97393e-08
7.59667e-07
2.14118e-07
2.10884e-06
4.35714e-07
3.26475e-06
6.97164e-07
4.21618e-06
9.73429e-07
4.96191e-06
1.24338e-06
5.50867e-06
1.49071e-06
5.86973e-06
1.70417e-06
6.06315e-06
1.87725e-06
6.10982e-06
2.00753e-06
6.03175e-06
2.09585e-06
5.85068e-06
2.1454e-06
5.58699e-06
2.16092e-06
5.25909e-06
2.14803e-06
4.883e-06
2.11268e-06
4.47226e-06
2.06073e-06
4.03797e-06
1.9977e-06
3.58891e-06
1.92857e-06
3.13184e-06
1.85771e-06
2.67175e-06
1.78883e-06
2.21209e-06
1.72497e-06
1.75511e-06
1.66854e-06
1.30206e-06
1.62138e-06
8.53463e-07
1.58473e-06
4.09283e-07
1.55935e-06
-3.08393e-08
1.54546e-06
-4.6744e-07
1.54285e-06
-9.01063e-07
1.55081e-06
-1.33211e-06
1.5682e-06
-1.76069e-06
1.59338e-06
-2.1865e-06
1.62425e-06
-2.60863e-06
1.65824e-06
-3.02549e-06
1.69228e-06
-3.43459e-06
1.72284e-06
-3.83242e-06
1.74597e-06
-4.21428e-06
1.75738e-06
-4.57411e-06
1.75257e-06
-4.90437e-06
1.72706e-06
-5.19587e-06
1.67661e-06
-5.43773e-06
1.59771e-06
-5.61729e-06
1.48797e-06
-5.72025e-06
1.34673e-06
-5.73084e-06
1.17571e-06
-5.63225e-06
9.79654e-07
-5.40726e-06
7.66859e-07
-5.03921e-06
5.49552e-07
-4.5132e-06
3.43839e-07
-3.81763e-06
1.6918e-07
-2.94581e-06
4.72399e-08
-1.89751e-06
-6.81556e-07
5.14666e-08
7.082e-07
1.85626e-07
1.97468e-06
3.80173e-07
3.07021e-06
6.1265e-07
3.9837e-06
8.62138e-07
4.71242e-06
1.11051e-06
5.26029e-06
1.34325e-06
5.63699e-06
1.54976e-06
5.85663e-06
1.72332e-06
5.93626e-06
1.86063e-06
5.89444e-06
1.96128e-06
5.75003e-06
2.02705e-06
5.52122e-06
2.06129e-06
5.22484e-06
2.06835e-06
4.87594e-06
2.05307e-06
4.48755e-06
2.02041e-06
4.07063e-06
1.97518e-06
3.63413e-06
1.92186e-06
3.18516e-06
1.86445e-06
2.72916e-06
1.80643e-06
2.27012e-06
1.7507e-06
1.81084e-06
1.69964e-06
1.35313e-06
1.65507e-06
8.98035e-07
1.61829e-06
4.4606e-07
1.59013e-06
-2.67557e-09
1.57093e-06
-4.48239e-07
1.56058e-06
-8.90722e-07
1.55856e-06
-1.33009e-06
1.56388e-06
-1.76601e-06
1.57515e-06
-2.19776e-06
1.59051e-06
-2.624e-06
1.60772e-06
-3.0427e-06
1.62409e-06
-3.45097e-06
1.63657e-06
-3.8449e-06
1.64177e-06
-4.21948e-06
1.63607e-06
-4.56841e-06
1.61575e-06
-4.88404e-06
1.57716e-06
-5.15729e-06
1.51703e-06
-5.3776e-06
1.43276e-06
-5.53302e-06
1.32284e-06
-5.61033e-06
1.18731e-06
-5.59531e-06
1.02825e-06
-5.47319e-06
8.50258e-07
-5.22927e-06
6.60795e-07
-4.84975e-06
4.70394e-07
-4.3228e-06
2.92535e-07
-3.63977e-06
1.43162e-07
-2.79644e-06
3.97732e-08
-1.79412e-06
-6.41782e-07
4.39077e-08
6.64292e-07
1.59197e-07
1.85939e-06
3.27782e-07
2.90162e-06
5.31322e-07
3.78016e-06
7.52483e-07
4.49126e-06
9.75923e-07
5.03685e-06
1.18898e-06
5.42393e-06
1.38204e-06
5.66357e-06
1.54855e-06
5.76975e-06
1.68481e-06
5.75818e-06
1.7896e-06
5.64524e-06
1.86367e-06
5.44715e-06
1.90924e-06
5.17926e-06
1.92958e-06
4.8556e-06
1.92853e-06
4.4886e-06
1.91019e-06
4.08897e-06
1.87866e-06
3.66566e-06
1.83786e-06
3.22597e-06
1.79135e-06
2.77567e-06
1.74231e-06
2.31916e-06
1.69344e-06
1.8597e-06
1.647e-06
1.39957e-06
1.60474e-06
9.40291e-07
1.56799e-06
4.82816e-07
1.53759e-06
2.7715e-08
1.51401e-06
-4.24653e-07
1.49725e-06
-8.73966e-07
1.48695e-06
-1.31979e-06
1.48234e-06
-1.7614e-06
1.48225e-06
-2.19767e-06
1.48517e-06
-2.62691e-06
1.48917e-06
-3.0467e-06
1.49202e-06
-3.45381e-06
1.49115e-06
-3.84403e-06
1.48373e-06
-4.21207e-06
1.46679e-06
-4.55148e-06
1.43731e-06
-4.85456e-06
1.39239e-06
-5.11237e-06
1.32951e-06
-5.31472e-06
1.24678e-06
-5.45029e-06
1.14327e-06
-5.50683e-06
1.01942e-06
-5.47145e-06
8.77319e-07
-5.33109e-06
7.21141e-07
-5.07309e-06
5.57328e-07
-4.68594e-06
3.94702e-07
-4.16017e-06
2.44323e-07
-3.48939e-06
1.19074e-07
-2.67119e-06
3.29528e-08
-1.708e-06
-6.0883e-07
3.6912e-08
6.2738e-07
1.3443e-07
1.76188e-06
2.78015e-07
2.75804e-06
4.52836e-07
3.60534e-06
6.44707e-07
4.29939e-06
8.40848e-07
4.84071e-06
1.03046e-06
5.23432e-06
1.20505e-06
5.48898e-06
1.35856e-06
5.61624e-06
1.48724e-06
5.6295e-06
1.58938e-06
5.5431e-06
1.66502e-06
5.37151e-06
1.71553e-06
5.12875e-06
1.74327e-06
4.82787e-06
1.75119e-06
4.48068e-06
1.74262e-06
4.09754e-06
1.72096e-06
3.68732e-06
1.68954e-06
3.25739e-06
1.65148e-06
2.81373e-06
1.60958e-06
2.36106e-06
1.56629e-06
1.90299e-06
1.52368e-06
1.44218e-06
1.48343e-06
9.80548e-07
1.44679e-06
5.1945e-07
1.41467e-06
5.98381e-08
1.38757e-06
-3.97551e-07
1.36564e-06
-8.52034e-07
1.34867e-06
-1.30282e-06
1.33611e-06
-1.74884e-06
1.32708e-06
-2.18865e-06
1.32037e-06
-2.6202e-06
1.31445e-06
-3.04079e-06
1.30751e-06
-3.44687e-06
1.29749e-06
-3.83401e-06
1.28212e-06
-4.1967e-06
1.25901e-06
-4.52837e-06
1.22578e-06
-4.82133e-06
1.18018e-06
-5.06676e-06
1.12027e-06
-5.25481e-06
1.04468e-06
-5.3747e-06
9.52858e-07
-5.41501e-06
8.4534e-07
-5.36393e-06
7.2404e-07
-5.20979e-06
5.92489e-07
-4.94154e-06
4.56002e-07
-4.54945e-06
3.2172e-07
-4.02589e-06
1.98471e-07
-3.36614e-06
9.64388e-08
-2.56915e-06
2.66141e-08
-1.63818e-06
-5.82215e-07
3.03644e-08
5.97016e-07
1.11009e-07
1.68123e-06
2.30439e-07
2.63861e-06
3.76866e-07
3.45891e-06
5.38895e-07
4.13736e-06
7.06105e-07
4.6735e-06
8.69511e-07
5.07092e-06
1.02186e-06
5.33663e-06
1.15776e-06
5.48034e-06
1.27365e-06
5.51362e-06
1.36764e-06
5.4491e-06
1.43931e-06
5.29985e-06
1.48939e-06
5.07868e-06
1.51948e-06
4.79777e-06
1.53182e-06
4.46833e-06
1.52901e-06
4.10036e-06
1.51379e-06
3.70254e-06
1.48892e-06
3.28226e-06
1.45703e-06
2.84562e-06
1.42055e-06
2.39755e-06
1.38163e-06
1.94191e-06
1.34211e-06
1.48169e-06
1.30353e-06
1.01913e-06
1.26709e-06
5.55892e-07
1.23367e-06
9.32601e-08
1.20383e-06
-3.67715e-07
1.17784e-06
-8.26042e-07
1.15565e-06
-1.28063e-06
1.13695e-06
-1.73014e-06
1.12111e-06
-2.17281e-06
1.10727e-06
-2.60635e-06
1.09428e-06
-3.0278e-06
1.08079e-06
-3.43338e-06
1.06521e-06
-3.81843e-06
1.04582e-06
-4.17731e-06
1.02079e-06
-4.50334e-06
9.8829e-07
-4.78883e-06
9.466e-07
-5.02507e-06
8.94269e-07
-5.20248e-06
8.30281e-07
-5.31071e-06
7.54262e-07
-5.33899e-06
6.66691e-07
-5.27636e-06
5.69105e-07
-5.11221e-06
4.6428e-07
-4.83671e-06
3.56343e-07
-4.44151e-06
2.50792e-07
-3.92034e-06
1.54385e-07
-3.26974e-06
7.48801e-08
-2.48965e-06
2.06307e-08
-1.58393e-06
-5.61585e-07
2.41731e-08
5.72843e-07
8.8676e-08
1.61673e-06
1.84683e-07
2.5426e-06
3.0309e-07
3.34051e-06
4.35011e-07
4.00544e-06
5.72209e-07
4.5363e-06
7.07452e-07
4.93567e-06
8.34764e-07
5.20932e-06
9.49559e-07
5.36555e-06
1.04865e-06
5.41453e-06
1.13017e-06
5.36759e-06
1.19342e-06
5.2366e-06
1.23868e-06
5.03342e-06
1.26698e-06
4.76947e-06
1.27993e-06
4.45539e-06
1.27947e-06
4.10081e-06
1.26776e-06
3.71425e-06
1.24698e-06
3.30303e-06
1.2193e-06
2.8733e-06
1.18673e-06
2.43012e-06
1.1511e-06
1.97755e-06
1.114e-06
1.51879e-06
1.0768e-06
1.05633e-06
1.0406e-06
5.92091e-07
1.00625e-06
1.27606e-07
9.74362e-07
-3.35822e-07
9.4528e-07
-7.96961e-07
9.1913e-07
-1.25448e-06
8.95805e-07
-1.70681e-06
8.74976e-07
-2.15198e-06
8.56102e-07
-2.58748e-06
8.38441e-07
-3.01014e-06
8.21062e-07
-3.416e-06
8.02873e-07
-3.80024e-06
7.8265e-07
-4.15708e-06
7.59084e-07
-4.47978e-06
7.30851e-07
-4.7606e-06
6.96691e-07
-4.99091e-06
6.55521e-07
-5.16131e-06
6.06564e-07
-5.26176e-06
5.49493e-07
-5.28192e-06
4.84592e-07
-5.21146e-06
4.12905e-07
-5.04052e-06
3.36363e-07
-4.76017e-06
2.57876e-07
-4.36303e-06
1.81341e-07
-3.8438e-06
1.11566e-07
-3.19996e-06
5.40927e-08
-2.43218e-06
1.49015e-08
-1.54474e-06
-5.46683e-07
1.82612e-08
5.54582e-07
6.72109e-08
1.56778e-06
1.40413e-07
2.4694e-06
2.31182e-07
3.24974e-06
3.32924e-07
3.9037e-06
4.39438e-07
4.42979e-06
5.45184e-07
4.82993e-06
6.45479e-07
5.10902e-06
7.36619e-07
5.27441e-06
8.1592e-07
5.33522e-06
8.81681e-07
5.30182e-06
9.33097e-07
5.18518e-06
9.70134e-07
4.99638e-06
9.9338e-07
4.74622e-06
1.00389e-06
4.44487e-06
1.00307e-06
4.10164e-06
9.9248e-07
3.72484e-06
9.73807e-07
3.3217e-06
9.48721e-07
2.89838e-06
9.18824e-07
2.46001e-06
8.856e-07
2.01077e-06
8.50383e-07
1.55401e-06
8.14335e-07
1.09238e-06
7.78439e-07
6.27987e-07
7.43495e-07
1.62551e-07
7.10119e-07
-3.02446e-07
6.78753e-07
-7.65595e-07
6.49667e-07
-1.2254e-06
6.22969e-07
-1.68011e-06
5.98603e-07
-2.12761e-06
5.76363e-07
-2.56524e-06
5.55893e-07
-2.98967e-06
5.36696e-07
-3.39681e-06
5.18148e-07
-3.78169e-06
4.99512e-07
-4.13845e-06
4.7997e-07
-4.46023e-06
4.58654e-07
-4.73928e-06
4.34705e-07
-4.96696e-06
4.07336e-07
-5.13394e-06
3.75921e-07
-5.23034e-06
3.4009e-07
-5.24609e-06
2.99839e-07
-5.17121e-06
2.55633e-07
-4.99631e-06
2.08508e-07
-4.71305e-06
1.60134e-07
-4.31465e-06
1.12841e-07
-3.79651e-06
6.95813e-08
-3.1567e-06
3.38181e-08
-2.39641e-06
9.34251e-09
-1.52026e-06
-5.37341e-07
1.2561e-08
5.42021e-07
4.64139e-08
1.53393e-06
9.73134e-08
2.4185e-06
1.60803e-07
3.18625e-06
2.3242e-07
3.83208e-06
3.07888e-07
4.35432e-06
3.83298e-07
4.75452e-06
4.5526e-07
5.03706e-06
5.21002e-07
5.20866e-06
5.78423e-07
5.2778e-06
6.26093e-07
5.25415e-06
6.63214e-07
5.14806e-06
6.89547e-07
4.97005e-06
7.05328e-07
4.73044e-06
7.11163e-07
4.43904e-06
7.07934e-07
4.10487e-06
6.96705e-07
3.73607e-06
6.78644e-07
3.33976e-06
6.54954e-07
2.92207e-06
6.26823e-07
2.48814e-06
5.95381e-07
2.04221e-06
5.61676e-07
1.58771e-06
5.26654e-07
1.1274e-06
4.91155e-07
6.63486e-07
4.55906e-07
1.978e-07
4.21523e-07
-2.68064e-07
3.88517e-07
-7.32589e-07
3.57295e-07
-1.19417e-06
3.28166e-07
-1.65098e-06
3.01344e-07
-2.10079e-06
2.76948e-07
-2.54084e-06
2.55004e-07
-2.96773e-06
2.35442e-07
-3.37724e-06
2.18097e-07
-3.76435e-06
2.02707e-07
-4.12306e-06
1.8892e-07
-4.44645e-06
1.76303e-07
-4.72666e-06
1.64357e-07
-4.95502e-06
1.52548e-07
-5.12213e-06
1.40349e-07
-5.21814e-06
1.27286e-07
-5.23302e-06
1.1301e-07
-5.15693e-06
9.73599e-08
-4.98066e-06
8.04357e-08
-4.69612e-06
6.26594e-08
-4.29688e-06
4.48131e-08
-3.77867e-06
2.80448e-08
-3.13993e-06
1.38298e-08
-2.3822e-06
3.88069e-09
-1.51031e-06
-5.3346e-07
7.01047e-09