/*--------------------------------*- C++ -*----------------------------------*\
  =========                 |
  \\      /  F ield         | OpenFOAM: The Open Source CFD Toolbox
   \\    /   O peration     | Website:  https://openfoam.org
    \\  /    A nd           | Version:  7
     \\/     M anipulation  |
\*---------------------------------------------------------------------------*/
FoamFile
{
    version     2.0;
    format      ascii;
    class       volScalarField;
    location    "0.0058";
    object      p;
}
// * * * * * * * * * * * * * * * * * * * * * * * * * * * * * * * * * * * * * //

dimensions      [0 2 -2 0 0 0 0];

internalField   nonuniform List<scalar> 
2500
(
4.04735e-07
6.37647
9.02525
10.1021
10.6777
11.0146
11.222
11.3621
11.4661
11.5495
11.6205
11.6836
11.7417
11.7963
11.8483
11.8985
11.9472
11.9947
12.0412
12.087
12.1321
12.1767
12.2209
12.2648
12.3086
12.3523
12.3961
12.4401
12.4845
12.5293
12.5749
12.6214
12.669
12.7182
12.7692
12.8227
12.8793
12.9402
13.0067
13.0812
13.1671
13.2698
13.3986
13.5699
13.8159
14.2011
14.843
16.0152
18.7797
25.2774
4.87536
7.46701
8.87214
9.74186
10.3333
10.7313
11.0025
11.1957
11.3405
11.4543
11.5478
11.6276
11.6982
11.7621
11.8213
11.877
11.9299
11.9808
12.0301
12.0781
12.125
12.1712
12.2168
12.262
12.307
12.3518
12.3968
12.442
12.4876
12.534
12.5812
12.6296
12.6796
12.7317
12.7864
12.8447
12.9076
12.9767
13.0543
13.1437
13.2499
13.3804
13.5469
13.7681
14.0747
14.5179
15.1681
16.1113
17.6024
20.3079
7.72713
8.47986
9.21094
9.82244
10.2988
10.6544
10.9189
11.1193
11.2753
11.4004
11.5039
11.5923
11.6697
11.7392
11.8029
11.8621
11.9179
11.9711
12.0222
12.0718
12.12
12.1673
12.2139
12.26
12.3058
12.3514
12.3972
12.4432
12.4897
12.537
12.5853
12.635
12.6865
12.7405
12.7975
12.8586
12.925
12.9986
13.0819
13.1783
13.2929
13.4328
13.6083
13.8341
14.1309
14.527
15.053
15.7202
16.5063
17.3194
9.15535
9.31856
9.68518
10.0752
10.4153
10.6953
10.9217
11.1046
11.2539
11.3777
11.4826
11.5733
11.6534
11.7254
11.7913
11.8525
11.91
11.9646
12.017
12.0675
12.1167
12.1647
12.212
12.2587
12.305
12.3512
12.3975
12.444
12.4911
12.539
12.588
12.6384
12.6909
12.7458
12.804
12.8665
12.9345
13.0098
13.0948
13.1925
13.3071
13.4444
13.6115
13.8176
14.0732
14.3886
14.7696
15.2014
15.6035
15.793
9.98564
9.9486
10.1118
10.3451
10.5762
10.7859
10.9692
11.1266
11.2613
11.3773
11.4783
11.5673
11.647
11.7193
11.7858
11.8476
11.9058
11.9611
12.014
12.0651
12.1148
12.1633
12.2109
12.258
12.3046
12.3512
12.3978
12.4447
12.4921
12.5403
12.5897
12.6405
12.6934
12.7487
12.8073
12.8702
12.9384
13.0135
13.0975
13.193
13.3031
13.4316
13.5831
13.7619
13.9715
14.2116
14.4752
14.7388
14.9239
14.8947
10.5112
10.4081
10.4646
10.5973
10.7492
10.9012
11.0442
11.1745
11.2913
11.3956
11.4892
11.5736
11.6504
11.721
11.7864
11.8477
11.9056
11.9608
12.0137
12.0648
12.1146
12.1632
12.2109
12.2581
12.3049
12.3515
12.3982
12.4452
12.4927
12.5411
12.5905
12.6414
12.6942
12.7494
12.8077
12.87
12.9371
13.0105
13.0917
13.1825
13.285
13.4015
13.5342
13.6841
13.8505
14.0278
14.205
14.3589
14.4274
14.322
10.8611
10.7456
10.7497
10.8205
10.9174
11.0248
11.1336
11.2385
11.3369
11.4281
11.5124
11.5903
11.6625
11.7298
11.793
11.8527
11.9094
11.9637
12.0161
12.0667
12.1161
12.1645
12.212
12.259
12.3057
12.3522
12.3988
12.4457
12.4931
12.5412
12.5904
12.641
12.6934
12.748
12.8054
12.8663
12.9315
13.002
13.0789
13.1634
13.2568
13.3599
13.4732
13.5959
13.7247
13.8527
13.9685
14.0536
14.0632
13.9409
11.1065
10.9981
10.9777
11.0115
11.0713
11.1457
11.2272
11.3101
11.3915
11.4698
11.5442
11.6147
11.6813
11.7445
11.8045
11.8618
11.9167
11.9696
12.0208
12.0706
12.1193
12.1671
12.2142
12.2608
12.3071
12.3533
12.3996
12.4462
12.4932
12.5409
12.5896
12.6396
12.6912
12.7447
12.8007
12.8597
12.9223
12.9891
13.0609
13.1384
13.2219
13.3116
13.4068
13.5054
13.6036
13.6943
13.7678
13.8106
13.7919
13.6752
11.2868
11.1908
11.1601
11.1721
11.2074
11.2583
11.3186
11.3836
11.4503
11.5166
11.5815
11.6444
11.7051
11.7636
11.8199
11.8743
11.9269
11.978
12.0277
12.0763
12.124
12.1709
12.2173
12.2633
12.3091
12.3547
12.4005
12.4466
12.493
12.5402
12.5881
12.6372
12.6877
12.7399
12.7941
12.8507
12.9102
12.9729
13.0392
13.1093
13.1832
13.2602
13.3392
13.4178
13.4917
13.555
13.6
13.6175
13.5862
13.4819
11.4237
11.3406
11.3067
11.3062
11.3258
11.3601
11.4045
11.4552
11.5094
11.5652
11.6214
11.6771
11.732
11.7856
11.8381
11.8893
11.9393
11.9882
12.0362
12.0833
12.1298
12.1757
12.2212
12.2664
12.3114
12.3564
12.4015
12.4469
12.4926
12.5389
12.586
12.634
12.6831
12.7336
12.7857
12.8397
12.8958
12.9542
13.0149
13.0778
13.1426
13.2084
13.2735
13.3355
13.3908
13.4344
13.4606
13.4632
13.4274
13.3368
11.5305
11.4591
11.4255
11.4183
11.4277
11.4504
11.4831
11.5226
11.5667
11.6135
11.662
11.7111
11.7604
11.8094
11.8579
11.9059
11.9532
11.9998
12.0459
12.0914
12.1365
12.1812
12.2256
12.2699
12.314
12.3582
12.4025
12.447
12.4919
12.5373
12.5832
12.63
12.6776
12.7262
12.7761
12.8273
12.8798
12.9338
12.9891
13.0453
13.1018
13.1576
13.2111
13.26
13.3012
13.3308
13.3447
13.3389
13.303
13.2251
11.6155
11.5543
11.5226
11.5119
11.515
11.5297
11.5537
11.5846
11.6205
11.66
11.7017
11.745
11.7892
11.8339
11.8786
11.9234
11.9679
12.0123
12.0564
12.1002
12.1438
12.1872
12.2305
12.2737
12.3168
12.3601
12.4035
12.4471
12.4909
12.5352
12.58
12.6253
12.6712
12.7179
12.7654
12.8137
12.8628
12.9126
12.9627
13.0127
13.062
13.1093
13.1533
13.1918
13.2225
13.2422
13.2482
13.238
13.204
13.1374
11.6843
11.6318
11.6027
11.5905
11.5897
11.5989
11.6166
11.6409
11.6703
11.7036
11.7397
11.7779
11.8175
11.8581
11.8994
11.9411
11.9831
12.0251
12.0672
12.1093
12.1513
12.1934
12.2355
12.2775
12.3197
12.3619
12.4043
12.4469
12.4897
12.5328
12.5763
12.6201
12.6643
12.709
12.7541
12.7996
12.8453
12.891
12.9364
12.9809
13.0238
13.0641
13.1003
13.1309
13.1537
13.1666
13.1677
13.1554
13.1242
13.0673
11.7408
11.6955
11.6692
11.6566
11.6534
11.6589
11.672
11.6912
11.7155
11.7438
11.7751
11.8089
11.8446
11.8816
11.9197
11.9586
11.998
12.0379
12.078
12.1184
12.159
12.1997
12.2405
12.2814
12.3225
12.3637
12.405
12.4465
12.4882
12.5301
12.5722
12.6145
12.6571
12.6997
12.7425
12.7853
12.8278
12.8698
12.9109
12.9506
12.9881
13.0225
13.0525
13.0769
13.094
13.1022
13.1002
13.0873
13.0591
13.0103
11.7878
11.7485
11.7248
11.7123
11.7078
11.7108
11.7205
11.7359
11.7561
11.7803
11.8078
11.8378
11.87
11.9039
11.9391
11.9754
12.0126
12.0503
12.0887
12.1274
12.1665
12.2058
12.2454
12.2852
12.3252
12.3653
12.4056
12.446
12.4866
12.5272
12.568
12.6088
12.6496
12.6904
12.7309
12.7711
12.8107
12.8493
12.8867
12.9222
12.9551
12.9846
13.0098
13.0294
13.0424
13.0474
13.0436
13.0307
13.0055
12.9633
11.8272
11.7927
11.7713
11.7594
11.7541
11.7554
11.7627
11.7752
11.7922
11.8132
11.8373
11.8643
11.8935
11.9246
11.9573
11.9913
12.0263
12.0622
12.0988
12.136
12.1736
12.2117
12.2501
12.2888
12.3277
12.3668
12.406
12.4454
12.4848
12.5243
12.5637
12.6031
12.6422
12.6811
12.7196
12.7574
12.7943
12.83
12.8641
12.896
12.9251
12.9507
12.972
12.988
12.9979
13.0007
12.996
12.9836
12.961
12.9243
11.8604
11.8298
11.8104
11.7991
11.7935
11.7936
11.7991
11.8094
11.824
11.8423
11.8638
11.8881
11.9148
11.9436
11.974
12.0059
12.0391
12.0733
12.1083
12.144
12.1804
12.2172
12.2545
12.2921
12.33
12.3681
12.4063
12.4446
12.483
12.5213
12.5595
12.5974
12.6351
12.6723
12.7088
12.7445
12.779
12.8121
12.8433
12.8722
12.8982
12.9207
12.9389
12.9522
12.9598
12.9612
12.956
12.9443
12.9239
12.8916
11.8884
11.8609
11.8432
11.8325
11.8268
11.8261
11.8303
11.8389
11.8516
11.8678
11.8871
11.9093
11.9339
11.9606
11.9891
12.0192
12.0507
12.0834
12.117
12.1514
12.1866
12.2223
12.2586
12.2952
12.3321
12.3692
12.4065
12.4438
12.4812
12.5184
12.5554
12.5921
12.6283
12.664
12.6988
12.7326
12.7651
12.7959
12.8247
12.8511
12.8745
12.8944
12.9102
12.9215
12.9275
12.9279
12.9225
12.9115
12.8929
12.8642
11.9118
11.8867
11.8704
11.8603
11.8547
11.8535
11.8568
11.8641
11.8752
11.8897
11.9073
11.9277
11.9505
11.9756
12.0025
12.0311
12.0611
12.0924
12.1248
12.1581
12.1922
12.2269
12.2622
12.2979
12.3339
12.3702
12.4066
12.443
12.4794
12.5157
12.5516
12.5872
12.6221
12.6564
12.6897
12.7219
12.7525
12.7815
12.8083
12.8326
12.8539
12.8718
12.8858
12.8954
12.9003
12.9
12.8946
12.8842
12.8673
12.8412
11.9312
11.9081
11.8929
11.8833
11.8777
11.8762
11.8788
11.8851
11.8951
11.9083
11.9245
11.9434
11.9648
11.9884
12.014
12.0413
12.0701
12.1003
12.1316
12.1639
12.197
12.2309
12.2653
12.3002
12.3355
12.371
12.4066
12.4423
12.4778
12.5132
12.5482
12.5827
12.6166
12.6497
12.6817
12.7125
12.7416
12.769
12.7941
12.8167
12.8364
12.8527
12.8653
12.8737
12.8777
12.8771
12.8717
12.8619
12.8462
12.8223
11.9469
11.9253
11.911
11.9018
11.8963
11.8946
11.8967
11.9023
11.9114
11.9236
11.9387
11.9565
11.9767
11.9992
12.0237
12.0499
12.0777
12.1069
12.1373
12.1688
12.2011
12.2343
12.268
12.3022
12.3368
12.3716
12.4066
12.4416
12.4764
12.511
12.5453
12.5789
12.6119
12.644
12.6749
12.7045
12.7325
12.7585
12.7823
12.8036
12.8219
12.837
12.8485
12.8561
12.8595
12.8585
12.8533
12.8439
12.8292
12.8069
11.9592
11.9387
11.925
11.9162
11.9108
11.909
11.9107
11.9158
11.9242
11.9356
11.9499
11.9669
11.9862
12.0078
12.0314
12.0568
12.0838
12.1123
12.142
12.1728
12.2045
12.237
12.2701
12.3038
12.3378
12.3721
12.4065
12.441
12.4752
12.5092
12.5428
12.5758
12.608
12.6393
12.6694
12.698
12.725
12.7501
12.7729
12.7931
12.8105
12.8246
12.8353
12.8422
12.8452
12.8441
12.8389
12.8299
12.8159
12.7949
11.9683
11.9485
11.9354
11.9268
11.9215
11.9196
11.9211
11.9258
11.9337
11.9446
11.9583
11.9746
11.9933
12.0143
12.0372
12.062
12.0884
12.1163
12.1455
12.1758
12.207
12.239
12.2718
12.305
12.3386
12.3725
12.4065
12.4405
12.4743
12.5079
12.5409
12.5734
12.6051
12.6357
12.6652
12.6932
12.7194
12.7438
12.7658
12.7853
12.8019
12.8154
12.8255
12.832
12.8347
12.8334
12.8283
12.8197
12.8062
12.786
11.9743
11.955
11.9422
11.9338
11.9285
11.9266
11.9279
11.9324
11.9401
11.9506
11.9639
11.9798
11.9981
12.0186
12.0411
12.0655
12.0915
12.119
12.1478
12.1778
12.2087
12.2404
12.2728
12.3058
12.3391
12.3727
12.4064
12.4402
12.4737
12.5069
12.5397
12.5718
12.6031
12.6333
12.6624
12.6899
12.7157
12.7395
12.7611
12.7801
12.7963
12.8093
12.8191
12.8253
12.8277
12.8264
12.8214
12.8129
12.7998
12.7801
11.9773
11.9583
11.9456
11.9373
11.932
11.93
11.9313
11.9357
11.9432
11.9536
11.9667
11.9824
12.0004
12.0207
12.0431
12.0672
12.0931
12.1204
12.149
12.1788
12.2095
12.2411
12.2734
12.3062
12.3394
12.3728
12.4064
12.44
12.4734
12.5065
12.539
12.571
12.6021
12.6321
12.6609
12.6882
12.7138
12.7374
12.7587
12.7775
12.7934
12.8063
12.8159
12.8219
12.8243
12.823
12.818
12.8096
12.7966
12.7772
11.9773
11.9583
11.9456
11.9373
11.932
11.93
11.9313
11.9357
11.9432
11.9536
11.9667
11.9824
12.0004
12.0207
12.0431
12.0672
12.0931
12.1204
12.149
12.1788
12.2095
12.2411
12.2734
12.3062
12.3394
12.3728
12.4064
12.44
12.4734
12.5065
12.539
12.571
12.6021
12.6321
12.6609
12.6882
12.7138
12.7374
12.7587
12.7775
12.7934
12.8063
12.8158
12.8219
12.8243
12.823
12.818
12.8096
12.7966
12.7772
11.9743
11.955
11.9422
11.9338
11.9285
11.9266
11.9279
11.9324
11.9401
11.9506
11.9639
11.9798
11.9981
12.0186
12.0411
12.0655
12.0915
12.119
12.1478
12.1778
12.2087
12.2404
12.2728
12.3058
12.3391
12.3727
12.4064
12.4402
12.4737
12.5069
12.5397
12.5718
12.6031
12.6333
12.6624
12.6899
12.7157
12.7395
12.7611
12.7801
12.7962
12.8093
12.8191
12.8252
12.8277
12.8264
12.8214
12.8129
12.7998
12.7801
11.9683
11.9485
11.9354
11.9268
11.9215
11.9196
11.9211
11.9258
11.9337
11.9446
11.9583
11.9746
11.9933
12.0143
12.0372
12.062
12.0885
12.1163
12.1455
12.1758
12.207
12.239
12.2718
12.305
12.3386
12.3725
12.4065
12.4405
12.4743
12.5079
12.5409
12.5734
12.6051
12.6357
12.6652
12.6932
12.7194
12.7437
12.7658
12.7853
12.8019
12.8154
12.8255
12.832
12.8347
12.8334
12.8283
12.8197
12.8062
12.786
11.9592
11.9387
11.925
11.9162
11.9108
11.909
11.9107
11.9158
11.9242
11.9356
11.9499
11.9669
11.9862
12.0078
12.0314
12.0568
12.0838
12.1123
12.142
12.1728
12.2045
12.237
12.2701
12.3038
12.3378
12.3721
12.4065
12.441
12.4752
12.5092
12.5428
12.5758
12.608
12.6393
12.6694
12.698
12.725
12.7501
12.7729
12.7931
12.8105
12.8246
12.8353
12.8422
12.8452
12.844
12.8389
12.8299
12.8159
12.7949
11.9469
11.9253
11.911
11.9018
11.8963
11.8946
11.8967
11.9023
11.9114
11.9236
11.9387
11.9565
11.9767
11.9992
12.0237
12.0499
12.0777
12.1069
12.1373
12.1688
12.2011
12.2343
12.268
12.3022
12.3368
12.3716
12.4066
12.4416
12.4764
12.511
12.5453
12.5789
12.6119
12.644
12.6749
12.7045
12.7325
12.7585
12.7823
12.8036
12.8219
12.837
12.8485
12.8561
12.8595
12.8585
12.8532
12.8439
12.8292
12.8069
11.9312
11.9081
11.8929
11.8833
11.8777
11.8762
11.8788
11.8851
11.8951
11.9083
11.9245
11.9434
11.9648
11.9884
12.014
12.0413
12.0701
12.1003
12.1316
12.1639
12.197
12.2309
12.2653
12.3002
12.3355
12.371
12.4066
12.4423
12.4778
12.5132
12.5482
12.5827
12.6166
12.6497
12.6817
12.7125
12.7416
12.769
12.7941
12.8167
12.8364
12.8527
12.8653
12.8737
12.8777
12.877
12.8717
12.8619
12.8461
12.8222
11.9118
11.8867
11.8704
11.8603
11.8547
11.8535
11.8568
11.8641
11.8752
11.8897
11.9073
11.9277
11.9505
11.9756
12.0025
12.0311
12.0611
12.0924
12.1248
12.1581
12.1922
12.2269
12.2622
12.2979
12.3339
12.3702
12.4066
12.443
12.4794
12.5157
12.5516
12.5872
12.6221
12.6564
12.6897
12.7218
12.7525
12.7815
12.8083
12.8326
12.8539
12.8718
12.8858
12.8954
12.9003
12.9
12.8946
12.8842
12.8672
12.8412
11.8884
11.8609
11.8432
11.8325
11.8268
11.8261
11.8303
11.839
11.8516
11.8678
11.8871
11.9093
11.9339
11.9606
11.9891
12.0193
12.0507
12.0834
12.117
12.1514
12.1866
12.2223
12.2586
12.2952
12.3321
12.3692
12.4065
12.4438
12.4812
12.5184
12.5554
12.5921
12.6283
12.664
12.6988
12.7326
12.765
12.7959
12.8247
12.8511
12.8745
12.8944
12.9102
12.9214
12.9275
12.9279
12.9225
12.9115
12.8929
12.8641
11.8604
11.8298
11.8104
11.7991
11.7935
11.7936
11.7991
11.8094
11.824
11.8423
11.8638
11.8881
11.9148
11.9436
11.974
12.006
12.0391
12.0733
12.1083
12.144
12.1804
12.2173
12.2545
12.2921
12.33
12.3681
12.4063
12.4446
12.483
12.5213
12.5595
12.5974
12.6351
12.6723
12.7088
12.7445
12.779
12.8121
12.8433
12.8722
12.8982
12.9206
12.9389
12.9522
12.9598
12.9612
12.956
12.9443
12.9238
12.8916
11.8272
11.7927
11.7713
11.7594
11.7541
11.7554
11.7627
11.7752
11.7922
11.8132
11.8374
11.8643
11.8935
11.9246
11.9573
11.9913
12.0263
12.0622
12.0988
12.136
12.1737
12.2117
12.2501
12.2888
12.3277
12.3668
12.406
12.4454
12.4848
12.5243
12.5637
12.6031
12.6422
12.6811
12.7196
12.7574
12.7943
12.83
12.8641
12.896
12.9251
12.9507
12.972
12.988
12.9979
13.0007
12.996
12.9836
12.9609
12.9243
11.7878
11.7485
11.7248
11.7123
11.7078
11.7108
11.7205
11.7359
11.7561
11.7803
11.8078
11.8379
11.87
11.9039
11.9392
11.9754
12.0126
12.0503
12.0887
12.1274
12.1665
12.2058
12.2454
12.2852
12.3252
12.3653
12.4056
12.446
12.4866
12.5272
12.568
12.6088
12.6496
12.6904
12.7309
12.7711
12.8107
12.8493
12.8867
12.9222
12.9551
12.9846
13.0098
13.0294
13.0423
13.0473
13.0436
13.0307
13.0054
12.9633
11.7408
11.6955
11.6692
11.6566
11.6534
11.6589
11.672
11.6912
11.7155
11.7438
11.7752
11.809
11.8446
11.8817
11.9198
11.9586
11.998
12.0379
12.078
12.1184
12.159
12.1997
12.2405
12.2814
12.3225
12.3637
12.405
12.4465
12.4882
12.5301
12.5722
12.6145
12.6571
12.6997
12.7425
12.7852
12.8278
12.8698
12.9109
12.9506
12.9881
13.0224
13.0525
13.0769
13.094
13.1022
13.1002
13.0872
13.0591
13.0103
11.6843
11.6318
11.6027
11.5905
11.5897
11.5989
11.6166
11.6409
11.6703
11.7036
11.7397
11.7779
11.8175
11.8582
11.8994
11.9411
11.9831
12.0251
12.0672
12.1093
12.1514
12.1934
12.2355
12.2776
12.3197
12.3619
12.4043
12.4469
12.4897
12.5328
12.5763
12.6201
12.6643
12.709
12.7541
12.7996
12.8453
12.891
12.9364
12.9809
13.0238
13.0641
13.1003
13.1308
13.1537
13.1666
13.1676
13.1553
13.1242
13.0672
11.6155
11.5543
11.5226
11.5119
11.515
11.5298
11.5537
11.5846
11.6206
11.66
11.7018
11.745
11.7892
11.8339
11.8787
11.9234
11.968
12.0123
12.0564
12.1002
12.1438
12.1872
12.2305
12.2737
12.3168
12.3601
12.4035
12.4471
12.4909
12.5352
12.58
12.6253
12.6712
12.7179
12.7654
12.8137
12.8628
12.9125
12.9627
13.0127
13.0619
13.1093
13.1532
13.1918
13.2224
13.2422
13.2482
13.2379
13.204
13.1374
11.5305
11.4591
11.4255
11.4183
11.4277
11.4504
11.4831
11.5226
11.5667
11.6136
11.662
11.7111
11.7604
11.8094
11.858
11.9059
11.9532
11.9998
12.0459
12.0914
12.1365
12.1812
12.2256
12.2699
12.3141
12.3582
12.4025
12.447
12.4919
12.5373
12.5832
12.63
12.6776
12.7262
12.7761
12.8273
12.8798
12.9338
12.9891
13.0453
13.1018
13.1576
13.2111
13.26
13.3012
13.3307
13.3446
13.3388
13.303
13.2251
11.4237
11.3406
11.3067
11.3062
11.3258
11.3601
11.4045
11.4552
11.5094
11.5652
11.6214
11.6771
11.732
11.7856
11.8381
11.8893
11.9393
11.9882
12.0362
12.0834
12.1298
12.1757
12.2212
12.2664
12.3114
12.3564
12.4015
12.4469
12.4926
12.5389
12.586
12.634
12.6831
12.7336
12.7857
12.8397
12.8958
12.9542
13.0149
13.0778
13.1426
13.2083
13.2734
13.3355
13.3908
13.4343
13.4605
13.4631
13.4274
13.3367
11.2868
11.1908
11.1601
11.1721
11.2075
11.2583
11.3186
11.3837
11.4503
11.5166
11.5815
11.6444
11.7051
11.7636
11.8199
11.8743
11.9269
11.978
12.0277
12.0763
12.124
12.1709
12.2173
12.2633
12.3091
12.3547
12.4005
12.4466
12.493
12.5402
12.5881
12.6372
12.6877
12.7398
12.794
12.8507
12.9102
12.9729
13.0392
13.1093
13.1831
13.2602
13.3392
13.4177
13.4917
13.5549
13.6
13.6175
13.5861
13.4818
11.1065
10.9981
10.9777
11.0115
11.0713
11.1457
11.2272
11.3101
11.3916
11.4698
11.5442
11.6147
11.6814
11.7445
11.8045
11.8618
11.9167
11.9696
12.0208
12.0707
12.1193
12.1671
12.2142
12.2608
12.3071
12.3533
12.3996
12.4462
12.4932
12.5409
12.5896
12.6396
12.6912
12.7447
12.8007
12.8597
12.9223
12.9891
13.0609
13.1383
13.2219
13.3116
13.4067
13.5054
13.6036
13.6942
13.7678
13.8106
13.7919
13.6751
10.8611
10.7456
10.7497
10.8205
10.9174
11.0248
11.1336
11.2385
11.3369
11.4281
11.5124
11.5903
11.6625
11.7298
11.793
11.8527
11.9094
11.9637
12.0161
12.0668
12.1161
12.1645
12.212
12.259
12.3057
12.3522
12.3988
12.4457
12.4931
12.5412
12.5904
12.641
12.6934
12.748
12.8054
12.8663
12.9315
13.002
13.0789
13.1634
13.2567
13.3599
13.4732
13.5959
13.7247
13.8527
13.9684
14.0535
14.0632
13.9409
10.5112
10.4081
10.4646
10.5973
10.7492
10.9012
11.0443
11.1745
11.2913
11.3957
11.4892
11.5736
11.6504
11.721
11.7864
11.8477
11.9056
11.9608
12.0137
12.0649
12.1146
12.1632
12.2109
12.2581
12.3049
12.3515
12.3982
12.4452
12.4927
12.541
12.5905
12.6414
12.6941
12.7494
12.8077
12.8699
12.9371
13.0105
13.0917
13.1825
13.285
13.4015
13.5342
13.6841
13.8504
14.0278
14.2049
14.3588
14.4274
14.3219
9.98564
9.9486
10.1118
10.3451
10.5762
10.7859
10.9692
11.1266
11.2613
11.3773
11.4783
11.5673
11.647
11.7193
11.7858
11.8476
11.9058
11.9611
12.014
12.0651
12.1148
12.1633
12.2109
12.258
12.3047
12.3512
12.3978
12.4447
12.4921
12.5403
12.5897
12.6405
12.6934
12.7487
12.8073
12.8701
12.9383
13.0135
13.0975
13.193
13.3031
13.4316
13.583
13.7619
13.9714
14.2115
14.4751
14.7388
14.9238
14.8946
9.15535
9.31856
9.68518
10.0752
10.4153
10.6953
10.9217
11.1046
11.2539
11.3777
11.4826
11.5733
11.6534
11.7254
11.7913
11.8525
11.91
11.9646
12.017
12.0675
12.1167
12.1647
12.212
12.2587
12.305
12.3512
12.3975
12.444
12.4911
12.539
12.588
12.6384
12.6908
12.7458
12.804
12.8665
12.9345
13.0098
13.0947
13.1924
13.3071
13.4443
13.6114
13.8175
14.0732
14.3886
14.7695
15.2014
15.6035
15.793
7.72713
8.47986
9.21094
9.82244
10.2988
10.6544
10.9189
11.1193
11.2753
11.4004
11.5039
11.5923
11.6697
11.7392
11.8029
11.8621
11.9179
11.9711
12.0222
12.0718
12.12
12.1673
12.2139
12.26
12.3058
12.3514
12.3972
12.4432
12.4897
12.537
12.5853
12.635
12.6865
12.7404
12.7975
12.8585
12.925
12.9986
13.0819
13.1783
13.2929
13.4328
13.6083
13.8341
14.1308
14.527
15.053
15.7201
16.5063
17.3194
4.87536
7.46701
8.87214
9.74186
10.3333
10.7313
11.0025
11.1957
11.3406
11.4543
11.5478
11.6276
11.6982
11.7621
11.8213
11.877
11.9299
11.9808
12.0301
12.0781
12.125
12.1712
12.2168
12.262
12.307
12.3518
12.3968
12.442
12.4876
12.534
12.5812
12.6296
12.6796
12.7317
12.7864
12.8447
12.9075
12.9767
13.0543
13.1437
13.2499
13.3804
13.5469
13.768
14.0747
14.5178
15.168
16.1112
17.6024
20.3079
-6.80985e-07
6.37647
9.02525
10.1021
10.6777
11.0146
11.222
11.3621
11.4661
11.5495
11.6205
11.6836
11.7417
11.7963
11.8483
11.8985
11.9472
11.9947
12.0413
12.087
12.1321
12.1767
12.2209
12.2648
12.3086
12.3523
12.3961
12.4401
12.4845
12.5293
12.5749
12.6214
12.669
12.7182
12.7692
12.8227
12.8793
12.9402
13.0067
13.0812
13.1671
13.2698
13.3986
13.5698
13.8159
14.201
14.843
16.0152
18.7797
25.2774
)
;

boundaryField
{
    movingWallTop
    {
        type            zeroGradient;
    }
    movingWallBottom
    {
        type            zeroGradient;
    }
    fixedWalls
    {
        type            zeroGradient;
    }
    frontAndBack
    {
        type            empty;
    }
}


// ************************************************************************* //
