/*--------------------------------*- C++ -*----------------------------------*\
  =========                 |
  \\      /  F ield         | OpenFOAM: The Open Source CFD Toolbox
   \\    /   O peration     | Website:  https://openfoam.org
    \\  /    A nd           | Version:  7
     \\/     M anipulation  |
\*---------------------------------------------------------------------------*/
FoamFile
{
    version     2.0;
    format      ascii;
    class       volVectorField;
    location    "0.0394";
    object      U;
}
// * * * * * * * * * * * * * * * * * * * * * * * * * * * * * * * * * * * * * //

dimensions      [0 1 -1 0 0 0 0];

internalField   nonuniform List<vector> 
2500
(
(0.290251 -0.152412 0)
(0.389533 -0.128234 0)
(0.565418 -0.0747318 0)
(0.68324 -0.0422292 0)
(0.752823 -0.0245259 0)
(0.797823 -0.0148834 0)
(0.828974 -0.0095745 0)
(0.851427 -0.00655005 0)
(0.868212 -0.00472519 0)
(0.881153 -0.0035499 0)
(0.891359 -0.00274587 0)
(0.899539 -0.00216761 0)
(0.906173 -0.00173517 0)
(0.911596 -0.00140205 0)
(0.916055 -0.00113957 0)
(0.919731 -0.000928986 0)
(0.922764 -0.00075748 0)
(0.925262 -0.000615882 0)
(0.92731 -0.000497407 0)
(0.928975 -0.000396866 0)
(0.930308 -0.000310172 0)
(0.93135 -0.000234009 0)
(0.932132 -0.000165604 0)
(0.932676 -0.000102556 0)
(0.932998 -4.26927e-05 0)
(0.933104 1.59879e-05 0)
(0.932998 7.50961e-05 0)
(0.932673 0.000136884 0)
(0.932118 0.000203384 0)
(0.931315 0.000276818 0)
(0.930237 0.000359766 0)
(0.928848 0.00045531 0)
(0.927101 0.00056726 0)
(0.924934 0.000700477 0)
(0.922271 0.000861356 0)
(0.919009 0.00105858 0)
(0.915016 0.00130435 0)
(0.910119 0.00161643 0)
(0.904081 0.00202188 0)
(0.896577 0.00256414 0)
(0.887139 0.00331725 0)
(0.875072 0.0044155 0)
(0.859289 0.00611754 0)
(0.837988 0.00894415 0)
(0.808113 0.0139553 0)
(0.764395 0.0232426 0)
(0.695901 0.0407689 0)
(0.577942 0.0737461 0)
(0.39805 0.128745 0)
(0.29387 0.153786 0)
(0.00108506 -0.29489 0)
(0.0168541 -0.298612 0)
(0.152311 -0.21301 0)
(0.282825 -0.145306 0)
(0.387959 -0.0996087 0)
(0.471129 -0.0697711 0)
(0.536489 -0.0504098 0)
(0.587893 -0.0376025 0)
(0.628685 -0.0288376 0)
(0.661426 -0.0226132 0)
(0.687984 -0.0180387 0)
(0.709716 -0.0145757 0)
(0.727627 -0.0118884 0)
(0.742464 -0.00976022 0)
(0.754798 -0.00804616 0)
(0.765069 -0.00664569 0)
(0.77362 -0.00548675 0)
(0.780723 -0.00451613 0)
(0.786593 -0.00369337 0)
(0.791403 -0.00298687 0)
(0.795288 -0.00237128 0)
(0.798355 -0.0018257 0)
(0.800687 -0.00133241 0)
(0.802343 -0.000875896 0)
(0.803364 -0.000442145 0)
(0.803772 -1.80528e-05 0)
(0.803572 0.000408849 0)
(0.802753 0.000851704 0)
(0.801284 0.00132407 0)
(0.799116 0.00184079 0)
(0.796179 0.00241874 0)
(0.792378 0.00307784 0)
(0.787589 0.00384235 0)
(0.781654 0.0047427 0)
(0.774371 0.00581816 0)
(0.76548 0.00712084 0)
(0.754649 0.00872179 0)
(0.741445 0.0107207 0)
(0.725301 0.0132619 0)
(0.705458 0.0165615 0)
(0.680888 0.0209555 0)
(0.650171 0.0269854 0)
(0.611331 0.0355566 0)
(0.561593 0.048221 0)
(0.497223 0.0676378 0)
(0.41376 0.0981092 0)
(0.306299 0.145749 0)
(0.170512 0.217284 0)
(0.0268998 0.307191 0)
(0.00518595 0.30301 0)
(-0.0329181 -0.250388 0)
(-0.0615926 -0.344034 0)
(-0.011512 -0.310563 0)
(0.07076 -0.251468 0)
(0.158808 -0.195902 0)
(0.241244 -0.15129 0)
(0.313712 -0.117549 0)
(0.375524 -0.092414 0)
(0.427579 -0.0735918 0)
(0.471234 -0.0593041 0)
(0.507832 -0.0482777 0)
(0.538551 -0.039624 0)
(0.564379 -0.0327248 0)
(0.586125 -0.027146 0)
(0.604446 -0.0225774 0)
(0.619875 -0.0187932 0)
(0.632846 -0.0156251 0)
(0.643713 -0.0129449 0)
(0.652764 -0.0106527 0)
(0.660233 -0.00866892 0)
(0.666307 -0.00692847 0)
(0.671137 -0.00537689 0)
(0.674838 -0.00396738 0)
(0.677496 -0.00265855 0)
(0.679169 -0.00141267 0)
(0.679889 -0.000194184 0)
(0.679663 0.00103169 0)
(0.678474 0.00230007 0)
(0.676277 0.00364797 0)
(0.673002 0.00511575 0)
(0.668545 0.006749 0)
(0.662771 0.00860092 0)
(0.655505 0.0107355 0)
(0.646522 0.0132319 0)
(0.635542 0.0161905 0)
(0.622213 0.0197415 0)
(0.606093 0.0240581 0)
(0.586628 0.0293751 0)
(0.56312 0.0360181 0)
(0.534689 0.0444477 0)
(0.50023 0.0553262 0)
(0.45838 0.0696179 0)
(0.407518 0.0887259 0)
(0.345889 0.114649 0)
(0.272058 0.150032 0)
(0.186155 0.197633 0)
(0.0922085 0.257999 0)
(0.00182582 0.323272 0)
(-0.0569356 0.361528 0)
(-0.0321698 0.263989 0)
(-0.0267699 -0.190619 0)
(-0.0654329 -0.332978 0)
(-0.0645862 -0.35142 0)
(-0.0275923 -0.319102 0)
(0.0294434 -0.271775 0)
(0.0934419 -0.225165 0)
(0.156713 -0.184753 0)
(0.215461 -0.15145 0)
(0.268172 -0.124529 0)
(0.314561 -0.102861 0)
(0.354929 -0.0853655 0)
(0.389825 -0.0711441 0)
(0.419863 -0.0594891 0)
(0.445642 -0.0498551 0)
(0.467705 -0.0418237 0)
(0.486533 -0.0350723 0)
(0.50254 -0.0293493 0)
(0.51608 -0.0244556 0)
(0.527452 -0.0202314 0)
(0.536906 -0.0165457 0)
(0.544647 -0.0132889 0)
(0.550841 -0.0103677 0)
(0.555618 -0.00770046 0)
(0.559076 -0.00521393 0)
(0.561279 -0.00284062 0)
(0.562265 -0.000516397 0)
(0.562039 0.00182174 0)
(0.56058 0.00423765 0)
(0.557833 0.00679841 0)
(0.553714 0.0095768 0)
(0.548103 0.0126543 0)
(0.540842 0.0161251 0)
(0.531727 0.0201003 0)
(0.520508 0.0247154 0)
(0.506875 0.030138 0)
(0.490452 0.0365801 0)
(0.470785 0.0443145 0)
(0.447332 0.0536963 0)
(0.419454 0.065194 0)
(0.386415 0.0794276 0)
(0.347411 0.0972161 0)
(0.301635 0.119621 0)
(0.248458 0.147953 0)
(0.187789 0.183646 0)
(0.120783 0.227772 0)
(0.0511195 0.279637 0)
(-0.0131591 0.333528 0)
(-0.0578484 0.372132 0)
(-0.0646867 0.355892 0)
(-0.027287 0.204801 0)
(-0.0178487 -0.149167 0)
(-0.0531279 -0.302874 0)
(-0.0737068 -0.354732 0)
(-0.0667734 -0.350001 0)
(-0.0377396 -0.31923 0)
(0.00418399 -0.279787 0)
(0.0517919 -0.240262 0)
(0.100328 -0.204276 0)
(0.146955 -0.172941 0)
(0.190178 -0.146231 0)
(0.22935 -0.123669 0)
(0.264324 -0.10466 0)
(0.295226 -0.0886261 0)
(0.322317 -0.075059 0)
(0.345917 -0.063529 0)
(0.366355 -0.0536797 0)
(0.38395 -0.0452163 0)
(0.398991 -0.0378944 0)
(0.411739 -0.0315096 0)
(0.42242 -0.025889 0)
(0.431225 -0.0208839 0)
(0.438313 -0.0163642 0)
(0.443809 -0.0122141 0)
(0.447809 -0.00832774 0)
(0.450376 -0.00460639 0)
(0.451544 -0.00095524 0)
(0.451318 0.00271928 0)
(0.44967 0.00651229 0)
(0.446544 0.0105234 0)
(0.441849 0.0148599 0)
(0.435459 0.0196409 0)
(0.427212 0.0250016 0)
(0.416906 0.0310991 0)
(0.404295 0.0381202 0)
(0.389086 0.0462898 0)
(0.370939 0.0558833 0)
(0.349467 0.06724 0)
(0.324242 0.0807808 0)
(0.294813 0.0970252 0)
(0.260751 0.116605 0)
(0.22172 0.140264 0)
(0.17763 0.168808 0)
(0.128882 0.202962 0)
(0.0767805 0.243 0)
(0.0241118 0.287945 0)
(-0.0240159 0.333973 0)
(-0.0595784 0.371539 0)
(-0.0720309 0.381046 0)
(-0.0543519 0.328095 0)
(-0.0186467 0.162459 0)
(-0.0114304 -0.120895 0)
(-0.040302 -0.269831 0)
(-0.0679673 -0.33989 0)
(-0.0780283 -0.356916 0)
(-0.0693666 -0.343472 0)
(-0.0467712 -0.315061 0)
(-0.0154208 -0.281076 0)
(0.0204231 -0.24667 0)
(0.0576528 -0.214373 0)
(0.094211 -0.185225 0)
(0.12885 -0.159474 0)
(0.160886 -0.136983 0)
(0.190011 -0.117449 0)
(0.216147 -0.100518 0)
(0.239359 -0.0858394 0)
(0.25979 -0.073087 0)
(0.277619 -0.0619706 0)
(0.293038 -0.0522339 0)
(0.306233 -0.0436514 0)
(0.31738 -0.0360245 0)
(0.326633 -0.0291762 0)
(0.334124 -0.0229476 0)
(0.339961 -0.0171934 0)
(0.344223 -0.0117785 0)
(0.346967 -0.00657495 0)
(0.348219 -0.00145837 0)
(0.347978 0.00369457 0)
(0.346215 0.00900946 0)
(0.342873 0.0146174 0)
(0.337864 0.0206585 0)
(0.331069 0.0272861 0)
(0.322339 0.0346716 0)
(0.311491 0.0430097 0)
(0.298314 0.0525252 0)
(0.282568 0.0634802 0)
(0.263993 0.0761823 0)
(0.242318 0.0909916 0)
(0.217288 0.108326 0)
(0.188704 0.128659 0)
(0.156482 0.152496 0)
(0.120769 0.180323 0)
(0.0820953 0.212476 0)
(0.0416193 0.248888 0)
(0.0014334 0.288605 0)
(-0.0351032 0.328947 0)
(-0.0631367 0.364173 0)
(-0.0765628 0.383488 0)
(-0.0694948 0.369067 0)
(-0.0423315 0.295185 0)
(-0.0121872 0.132951 0)
(-0.00747781 -0.10087 0)
(-0.03049 -0.239483 0)
(-0.0587957 -0.317687 0)
(-0.077291 -0.349647 0)
(-0.0818805 -0.350918 0)
(-0.0740758 -0.333988 0)
(-0.0568901 -0.307616 0)
(-0.0334769 -0.277424 0)
(-0.00656208 -0.246751 0)
(0.0217607 -0.217422 0)
(0.0500068 -0.190325 0)
(0.0771896 -0.165797 0)
(0.102698 -0.143863 0)
(0.126187 -0.124386 0)
(0.147499 -0.107153 0)
(0.166592 -0.091923 0)
(0.183503 -0.0784497 0)
(0.198311 -0.0664968 0)
(0.211118 -0.0558427 0)
(0.222032 -0.0462814 0)
(0.231156 -0.037622 0)
(0.238584 -0.029687 0)
(0.244394 -0.0223096 0)
(0.248648 -0.0153315 0)
(0.251383 -0.00859994 0)
(0.252617 -0.00196521 0)
(0.252345 0.0047224 0)
(0.250535 0.0116154 0)
(0.247135 0.0188722 0)
(0.242065 0.0266609 0)
(0.235224 0.0351622 0)
(0.226486 0.0445744 0)
(0.215707 0.0551167 0)
(0.20273 0.067034 0)
(0.187387 0.0806005 0)
(0.169523 0.0961213 0)
(0.149008 0.11393 0)
(0.125777 0.13438 0)
(0.099877 0.157818 0)
(0.0715414 0.184534 0)
(0.041295 0.214659 0)
(0.0100919 0.247996 0)
(-0.0205171 0.283718 0)
(-0.0482197 0.319893 0)
(-0.0698695 0.35278 0)
(-0.0816697 0.375899 0)
(-0.0798296 0.378997 0)
(-0.0621717 0.347524 0)
(-0.0327928 0.26365 0)
(-0.00813281 0.111583 0)
(-0.00514334 -0.086174 0)
(-0.0236003 -0.213092 0)
(-0.0500823 -0.29334 0)
(-0.0721193 -0.334519 0)
(-0.0847274 -0.346994 0)
(-0.0874321 -0.340269 0)
(-0.0815249 -0.321841 0)
(-0.068991 -0.297102 0)
(-0.0518992 -0.269668 0)
(-0.0320655 -0.241822 0)
(-0.0109368 -0.214913 0)
(0.010406 -0.189674 0)
(0.0311975 -0.166442 0)
(0.0509235 -0.145312 0)
(0.0692594 -0.126236 0)
(0.0860186 -0.109083 0)
(0.101111 -0.0936829 0)
(0.11451 -0.0798429 0)
(0.126232 -0.0673662 0)
(0.136316 -0.0560569 0)
(0.144809 -0.0457241 0)
(0.151762 -0.036183 0)
(0.157221 -0.0272547 0)
(0.161219 -0.0187649 0)
(0.16378 -0.0105429 0)
(0.164907 -0.00241907 0)
(0.164591 0.00577703 0)
(0.162801 0.0142192 0)
(0.159491 0.0230871 0)
(0.154596 0.0325691 0)
(0.148038 0.0428644 0)
(0.139726 0.0541865 0)
(0.129561 0.0667642 0)
(0.117449 0.0808433 0)
(0.103309 0.0966847 0)
(0.0870913 0.11456 0)
(0.0688078 0.134737 0)
(0.0485654 0.157461 0)
(0.0266182 0.182904 0)
(0.00343523 0.211098 0)
(-0.0202173 0.241812 0)
(-0.0431826 0.274358 0)
(-0.0638294 0.307318 0)
(-0.0800215 0.338138 0)
(-0.089228 0.362632 0)
(-0.0889057 0.374447 0)
(-0.0772386 0.364714 0)
(-0.0544476 0.322296 0)
(-0.0259543 0.235348 0)
(-0.00570962 0.0955472 0)
(-0.00374702 -0.0749288 0)
(-0.0188395 -0.190411 0)
(-0.0428462 -0.269231 0)
(-0.0658721 -0.315413 0)
(-0.0830517 -0.335773 0)
(-0.0928885 -0.337328 0)
(-0.095502 -0.32618 0)
(-0.0918997 -0.307137 0)
(-0.0834633 -0.283732 0)
(-0.071597 -0.258417 0)
(-0.0575475 -0.232815 0)
(-0.0423393 -0.207939 0)
(-0.0267682 -0.184382 0)
(-0.0114254 -0.162446 0)
(0.00326747 -0.142245 0)
(0.0170229 -0.12377 0)
(0.0296549 -0.106937 0)
(0.0410514 -0.0916139 0)
(0.0511527 -0.0776436 0)
(0.0599338 -0.0648537 0)
(0.0673911 -0.0530651 0)
(0.0735322 -0.042096 0)
(0.0783682 -0.0317644 0)
(0.0819084 -0.0218883 0)
(0.0841561 -0.012286 0)
(0.0851058 -0.00277488 0)
(0.0847416 0.00682971 0)
(0.0830367 0.016716 0)
(0.0799538 0.0270773 0)
(0.0754465 0.0381136 0)
(0.0694626 0.050033 0)
(0.0619489 0.0630515 0)
(0.052858 0.0773932 0)
(0.0421595 0.0932868 0)
(0.0298542 0.110959 0)
(0.0159942 0.130625 0)
(0.000710066 0.152461 0)
(-0.0157542 0.176579 0)
(-0.0329972 0.202965 0)
(-0.0504092 0.231396 0)
(-0.0671182 0.26132 0)
(-0.0819459 0.291674 0)
(-0.0933965 0.320655 0)
(-0.0997204 0.345425 0)
(-0.0991212 0.361811 0)
(-0.090183 0.36408 0)
(-0.0725164 0.344979 0)
(-0.0476663 0.296311 0)
(-0.0211419 0.210394 0)
(-0.00424364 0.0830161 0)
(-0.00288089 -0.0659565 0)
(-0.0155188 -0.170806 0)
(-0.0371273 -0.246303 0)
(-0.0599173 -0.29456 0)
(-0.079534 -0.320054 0)
(-0.0940625 -0.327895 0)
(-0.102909 -0.322911 0)
(-0.106359 -0.309205 0)
(-0.105197 -0.290017 0)
(-0.100398 -0.267768 0)
(-0.0929389 -0.24419 0)
(-0.0836983 -0.220464 0)
(-0.0734159 -0.197361 0)
(-0.0626848 -0.175349 0)
(-0.0519634 -0.154683 0)
(-0.0415937 -0.135469 0)
(-0.0318236 -0.117708 0)
(-0.0228269 -0.101338 0)
(-0.0147214 -0.0862454 0)
(-0.00758413 -0.0722922 0)
(-0.00146387 -0.0593196 0)
(0.00360925 -0.0471575 0)
(0.00761593 -0.0356287 0)
(0.010542 -0.0245509 0)
(0.0123741 -0.0137386 0)
(0.0130969 -0.00300316 0)
(0.0126916 0.00784726 0)
(0.0111353 0.019008 0)
(0.00840196 0.0306781 0)
(0.0044645 0.0430609 0)
(-0.000701275 0.0563628 0)
(-0.00711101 0.070792 0)
(-0.0147635 0.0865547 0)
(-0.0236296 0.103849 0)
(-0.0336369 0.122853 0)
(-0.044651 0.143708 0)
(-0.0564505 0.166493 0)
(-0.0686989 0.19118 0)
(-0.080912 0.217577 0)
(-0.0924257 0.245246 0)
(-0.102372 0.273387 0)
(-0.109677 0.30069 0)
(-0.113099 0.325164 0)
(-0.111348 0.34395 0)
(-0.103314 0.353172 0)
(-0.0884665 0.347917 0)
(-0.0673325 0.322466 0)
(-0.0420616 0.270922 0)
(-0.0177108 0.188372 0)
(-0.00331988 0.0728301 0)
(-0.00231987 -0.0585291 0)
(-0.01316 -0.153634 0)
(-0.0326883 -0.224818 0)
(-0.0547229 -0.27317 0)
(-0.0755105 -0.301658 0)
(-0.0930531 -0.313992 0)
(-0.106369 -0.313936 0)
(-0.115254 -0.304896 0)
(-0.120023 -0.289729 0)
(-0.121269 -0.270702 0)
(-0.119688 -0.249533 0)
(-0.115974 -0.227474 0)
(-0.110758 -0.205403 0)
(-0.104585 -0.183902 0)
(-0.0979021 -0.163337 0)
(-0.0910663 -0.143909 0)
(-0.0843554 -0.125702 0)
(-0.0779802 -0.108714 0)
(-0.0720979 -0.0928844 0)
(-0.0668234 -0.0781091 0)
(-0.0622402 -0.0642564 0)
(-0.0584088 -0.0511739 0)
(-0.0553735 -0.0386953 0)
(-0.0531679 -0.0266448 0)
(-0.0518189 -0.0148395 0)
(-0.0513494 -0.00309114 0)
(-0.0517796 0.00879247 0)
(-0.0531271 0.0210067 0)
(-0.0554059 0.0337491 0)
(-0.058624 0.0472179 0)
(-0.0627789 0.0616096 0)
(-0.0678516 0.0771152 0)
(-0.0737986 0.0939137 0)
(-0.0805406 0.112163 0)
(-0.0879492 0.131985 0)
(-0.09583 0.153444 0)
(-0.103904 0.176518 0)
(-0.111785 0.201053 0)
(-0.118964 0.226709 0)
(-0.124792 0.25288 0)
(-0.128482 0.278603 0)
(-0.129134 0.302443 0)
(-0.125808 0.322376 0)
(-0.117655 0.335695 0)
(-0.104141 0.338967 0)
(-0.0853618 0.328123 0)
(-0.0623768 0.298755 0)
(-0.037513 0.246678 0)
(-0.015203 0.168783 0)
(-0.00270753 0.0642745 0)
(-0.00194097 -0.0521862 0)
(-0.0114505 -0.13836 0)
(-0.0292574 -0.204735 0)
(-0.0503731 -0.251859 0)
(-0.0716077 -0.281731 0)
(-0.0910456 -0.297054 0)
(-0.107527 -0.300744 0)
(-0.120537 -0.295583 0)
(-0.130049 -0.284029 0)
(-0.136341 -0.268125 0)
(-0.139851 -0.249502 0)
(-0.141085 -0.229405 0)
(-0.140542 -0.208757 0)
(-0.138686 -0.18821 0)
(-0.135921 -0.168205 0)
(-0.132589 -0.149016 0)
(-0.128972 -0.130795 0)
(-0.125295 -0.113595 0)
(-0.121736 -0.0974013 0)
(-0.118435 -0.0821487 0)
(-0.115497 -0.0677329 0)
(-0.113006 -0.054023 0)
(-0.111023 -0.0408683 0)
(-0.109598 -0.0281043 0)
(-0.108767 -0.0155559 0)
(-0.108556 -0.00304144 0)
(-0.108987 0.00962589 0)
(-0.110071 0.0226353 0)
(-0.11181 0.0361761 0)
(-0.114195 0.0504351 0)
(-0.117198 0.0655918 0)
(-0.120772 0.0818135 0)
(-0.12484 0.099246 0)
(-0.129284 0.118003 0)
(-0.133937 0.138147 0)
(-0.138569 0.159669 0)
(-0.142873 0.182457 0)
(-0.146454 0.206252 0)
(-0.14882 0.2306 0)
(-0.149388 0.254784 0)
(-0.147494 0.277754 0)
(-0.142446 0.298046 0)
(-0.133601 0.31372 0)
(-0.120494 0.322317 0)
(-0.103029 0.320892 0)
(-0.0817199 0.306153 0)
(-0.057892 0.274753 0)
(-0.0338224 0.223744 0)
(-0.0133178 0.151182 0)
(-0.00228058 0.0568997 0)
(-0.00167562 -0.046626 0)
(-0.0101879 -0.124558 0)
(-0.0266002 -0.1859 0)
(-0.046803 -0.230918 0)
(-0.0680874 -0.260981 0)
(-0.0886894 -0.278078 0)
(-0.107395 -0.284465 0)
(-0.123509 -0.282395 0)
(-0.136766 -0.273945 0)
(-0.147199 -0.260917 0)
(-0.155031 -0.244803 0)
(-0.160588 -0.226794 0)
(-0.164236 -0.207809 0)
(-0.166343 -0.188529 0)
(-0.167252 -0.169437 0)
(-0.167269 -0.15086 0)
(-0.166658 -0.132997 0)
(-0.165643 -0.11595 0)
(-0.164406 -0.0997446 0)
(-0.163096 -0.0843479 0)
(-0.161835 -0.0696847 0)
(-0.160717 -0.055647 0)
(-0.159816 -0.0421024 0)
(-0.15919 -0.0289011 0)
(-0.158881 -0.0158804 0)
(-0.158919 -0.0028694 0)
(-0.159322 0.0103082 0)
(-0.160095 0.0238304 0)
(-0.16123 0.0378732 0)
(-0.162701 0.0526066 0)
(-0.164463 0.0681888 0)
(-0.166444 0.0847591 0)
(-0.168544 0.102428 0)
(-0.170619 0.121264 0)
(-0.172482 0.141275 0)
(-0.173887 0.162386 0)
(-0.174527 0.18441 0)
(-0.174026 0.207011 0)
(-0.171945 0.229656 0)
(-0.167792 0.251571 0)
(-0.161051 0.271681 0)
(-0.151235 0.288571 0)
(-0.137969 0.300445 0)
(-0.121099 0.305142 0)
(-0.100848 0.300192 0)
(-0.077982 0.282973 0)
(-0.0539283 0.250968 0)
(-0.030806 0.202112 0)
(-0.0118622 0.135206 0)
(-0.00196931 0.0504118 0)
(-0.00148426 -0.0416435 0)
(-0.00924005 -0.111902 0)
(-0.0245327 -0.168133 0)
(-0.0439017 -0.210458 0)
(-0.065031 -0.239836 0)
(-0.086326 -0.257745 0)
(-0.106587 -0.265936 0)
(-0.125025 -0.266227 0)
(-0.141214 -0.260353 0)
(-0.155008 -0.249873 0)
(-0.166453 -0.236124 0)
(-0.17572 -0.220209 0)
(-0.183049 -0.203009 0)
(-0.18871 -0.185199 0)
(-0.192975 -0.167283 0)
(-0.196102 -0.149613 0)
(-0.198325 -0.132423 0)
(-0.19985 -0.115848 0)
(-0.200853 -0.0999482 0)
(-0.201484 -0.0847194 0)
(-0.201867 -0.0701126 0)
(-0.202101 -0.0560421 0)
(-0.202267 -0.0423953 0)
(-0.202425 -0.0290391 0)
(-0.202621 -0.0158261 0)
(-0.202884 -0.0025994 0)
(-0.203229 0.010803 0)
(-0.203654 0.0245439 0)
(-0.204141 0.0387825 0)
(-0.204653 0.0536687 0)
(-0.20513 0.0693366 0)
(-0.205485 0.0858965 0)
(-0.205601 0.103424 0)
(-0.205324 0.121944 0)
(-0.204458 0.141419 0)
(-0.202763 0.16172 0)
(-0.199951 0.182603 0)
(-0.195687 0.203679 0)
(-0.189603 0.224376 0)
(-0.181314 0.243902 0)
(-0.170452 0.261211 0)
(-0.156723 0.274978 0)
(-0.139974 0.283597 0)
(-0.120295 0.285204 0)
(-0.0981245 0.277766 0)
(-0.0743704 0.259217 0)
(-0.0504599 0.227673 0)
(-0.0283164 0.181696 0)
(-0.0107119 0.120568 0)
(-0.00173389 0.0446107 0)
(-0.00134304 -0.0370954 0)
(-0.00851863 -0.10014 0)
(-0.0229153 -0.151259 0)
(-0.0415548 -0.190498 0)
(-0.0624349 -0.218547 0)
(-0.0841229 -0.236517 0)
(-0.105468 -0.245773 0)
(-0.12564 -0.247778 0)
(-0.144114 -0.243972 0)
(-0.160612 -0.235687 0)
(-0.175043 -0.224099 0)
(-0.18745 -0.210205 0)
(-0.19796 -0.194825 0)
(-0.206748 -0.178607 0)
(-0.214015 -0.162049 0)
(-0.219965 -0.145513 0)
(-0.224793 -0.129252 0)
(-0.22868 -0.113424 0)
(-0.231786 -0.0981107 0)
(-0.234253 -0.0833346 0)
(-0.236199 -0.0690685 0)
(-0.237724 -0.0552478 0)
(-0.238906 -0.0417791 0)
(-0.239808 -0.028547 0)
(-0.240474 -0.0154212 0)
(-0.24093 -0.00226113 0)
(-0.241187 0.0110787 0)
(-0.241238 0.0247435 0)
(-0.241056 0.0388733 0)
(-0.240595 0.0535963 0)
(-0.239786 0.0690219 0)
(-0.238532 0.0852319 0)
(-0.23671 0.102269 0)
(-0.234165 0.120124 0)
(-0.230707 0.138718 0)
(-0.226113 0.157883 0)
(-0.220129 0.17734 0)
(-0.212476 0.19667 0)
(-0.202866 0.215291 0)
(-0.191022 0.232429 0)
(-0.17672 0.2471 0)
(-0.159828 0.258102 0)
(-0.140378 0.264024 0)
(-0.118636 0.263295 0)
(-0.0951838 0.254255 0)
(-0.0709928 0.235292 0)
(-0.0474379 0.205002 0)
(-0.0262423 0.162388 0)
(-0.00978531 0.107042 0)
(-0.00155069 0.0393547 0)
(-0.00123696 -0.0328783 0)
(-0.00796351 -0.0890804 0)
(-0.0216438 -0.135122 0)
(-0.0396605 -0.171013 0)
(-0.0602595 -0.197258 0)
(-0.0821521 -0.214705 0)
(-0.10425 -0.224422 0)
(-0.125715 -0.227588 0)
(-0.145962 -0.225388 0)
(-0.164622 -0.21895 0)
(-0.181501 -0.209292 0)
(-0.196534 -0.197299 0)
(-0.209753 -0.183716 0)
(-0.22125 -0.169148 0)
(-0.231155 -0.154069 0)
(-0.239617 -0.138838 0)
(-0.246791 -0.12371 0)
(-0.252825 -0.108857 0)
(-0.25786 -0.094376 0)
(-0.262019 -0.0803074 0)
(-0.265415 -0.0666427 0)
(-0.268137 -0.0533358 0)
(-0.270263 -0.0403113 0)
(-0.27185 -0.0274719 0)
(-0.272938 -0.0147044 0)
(-0.273552 -0.00188596 0)
(-0.273696 0.0111111 0)
(-0.273358 0.0244133 0)
(-0.272505 0.0381404 0)
(-0.271085 0.0523989 0)
(-0.269024 0.0672744 0)
(-0.266222 0.0828226 0)
(-0.262557 0.0990586 0)
(-0.25788 0.115944 0)
(-0.252018 0.133371 0)
(-0.244775 0.151146 0)
(-0.23594 0.168971 0)
(-0.225296 0.186422 0)
(-0.212636 0.202929 0)
(-0.197789 0.217763 0)
(-0.180655 0.230023 0)
(-0.161243 0.238642 0)
(-0.139726 0.242408 0)
(-0.116498 0.240009 0)
(-0.0922262 0.23011 0)
(-0.0678984 0.211455 0)
(-0.0448111 0.183004 0)
(-0.0245018 0.144072 0)
(-0.0090282 0.0944477 0)
(-0.00140505 0.0345392 0)
(-0.00115622 -0.0289164 0)
(-0.00753283 -0.0785753 0)
(-0.0206403 -0.119589 0)
(-0.0381337 -0.151954 0)
(-0.0584539 -0.176047 0)
(-0.080435 -0.192519 0)
(-0.103054 -0.202211 0)
(-0.125481 -0.206071 0)
(-0.1471 -0.20507 0)
(-0.16748 -0.200154 0)
(-0.186347 -0.192192 0)
(-0.203555 -0.181958 0)
(-0.219054 -0.170114 0)
(-0.232864 -0.157209 0)
(-0.24505 -0.143684 0)
(-0.255711 -0.12988 0)
(-0.264956 -0.116046 0)
(-0.272904 -0.102357 0)
(-0.279668 -0.0889178 0)
(-0.285355 -0.0757807 0)
(-0.290062 -0.0629516 0)
(-0.293871 -0.0504001 0)
(-0.296849 -0.0380672 0)
(-0.29905 -0.0258723 0)
(-0.300509 -0.0137196 0)
(-0.301243 -0.00150383 0)
(-0.301254 0.0108845 0)
(-0.300525 0.0235529 0)
(-0.299018 0.0366014 0)
(-0.296678 0.0501157 0)
(-0.293429 0.0641597 0)
(-0.289175 0.0787667 0)
(-0.283798 0.0939292 0)
(-0.277164 0.109588 0)
(-0.269121 0.125616 0)
(-0.259508 0.141809 0)
(-0.248159 0.157865 0)
(-0.234921 0.17337 0)
(-0.219666 0.18779 0)
(-0.20232 0.200453 0)
(-0.182887 0.210558 0)
(-0.161493 0.217176 0)
(-0.138417 0.21928 0)
(-0.114141 0.215792 0)
(-0.0893789 0.205642 0)
(-0.0651071 0.187862 0)
(-0.042535 0.161682 0)
(-0.023035 0.126636 0)
(-0.00840367 0.0826383 0)
(-0.00128758 0.0300845 0)
(-0.00109422 -0.0251527 0)
(-0.00719696 -0.0685084 0)
(-0.0198469 -0.10455 0)
(-0.036906 -0.133268 0)
(-0.0569675 -0.154949 0)
(-0.0789677 -0.170098 0)
(-0.101944 -0.179377 0)
(-0.125088 -0.183544 0)
(-0.147765 -0.183393 0)
(-0.169503 -0.179707 0)
(-0.189973 -0.17322 0)
(-0.208964 -0.164595 0)
(-0.226359 -0.154411 0)
(-0.242116 -0.143155 0)
(-0.256246 -0.131225 0)
(-0.268797 -0.118934 0)
(-0.27984 -0.106519 0)
(-0.289459 -0.094147 0)
(-0.297743 -0.0819263 0)
(-0.304779 -0.0699146 0)
(-0.310647 -0.0581281 0)
(-0.315418 -0.046549 0)
(-0.319151 -0.0351324 0)
(-0.321889 -0.0238133 0)
(-0.323662 -0.0125122 0)
(-0.324483 -0.00114079 0)
(-0.324349 0.0103925 0)
(-0.323238 0.0221771 0)
(-0.32111 0.0342943 0)
(-0.31791 0.0468109 0)
(-0.313563 0.059772 0)
(-0.307977 0.0731928 0)
(-0.301047 0.0870495 0)
(-0.292655 0.101269 0)
(-0.282675 0.115717 0)
(-0.270982 0.130187 0)
(-0.257458 0.144388 0)
(-0.242009 0.157933 0)
(-0.224582 0.170331 0)
(-0.205184 0.180987 0)
(-0.183911 0.189198 0)
(-0.160977 0.194172 0)
(-0.136743 0.195055 0)
(-0.111746 0.190967 0)
(-0.0867247 0.181063 0)
(-0.0626259 0.164597 0)
(-0.0405739 0.141006 0)
(-0.0217988 0.109973 0)
(-0.00788633 0.0714915 0)
(-0.00119205 0.0259276 0)
(-0.00104641 -0.0215434 0)
(-0.00693471 -0.0587881 0)
(-0.0192204 -0.0899098 0)
(-0.0359232 -0.1149 0)
(-0.0557548 -0.133978 0)
(-0.0777352 -0.147535 0)
(-0.100956 -0.156092 0)
(-0.12463 -0.160252 0)
(-0.148118 -0.160657 0)
(-0.170923 -0.157948 0)
(-0.192674 -0.152734 0)
(-0.213108 -0.145575 0)
(-0.232059 -0.136964 0)
(-0.249432 -0.127324 0)
(-0.265189 -0.117006 0)
(-0.279337 -0.106288 0)
(-0.291911 -0.0953857 0)
(-0.302962 -0.0844547 0)
(-0.312555 -0.0735988 0)
(-0.320757 -0.0628777 0)
(-0.32763 -0.0523135 0)
(-0.333234 -0.0418977 0)
(-0.337616 -0.0315976 0)
(-0.340813 -0.0213617 0)
(-0.342847 -0.0111257 0)
(-0.343726 -0.000817262 0)
(-0.343441 0.00963859 0)
(-0.341969 0.0203143 0)
(-0.339269 0.0312743 0)
(-0.335286 0.0425688 0)
(-0.329948 0.0542276 0)
(-0.323172 0.0662523 0)
(-0.314866 0.0786087 0)
(-0.30493 0.0912174 0)
(-0.293267 0.103945 0)
(-0.279785 0.116594 0)
(-0.264414 0.128895 0)
(-0.247116 0.140497 0)
(-0.227899 0.150967 0)
(-0.206843 0.159784 0)
(-0.184116 0.166351 0)
(-0.160002 0.170006 0)
(-0.13492 0.170048 0)
(-0.109445 0.16577 0)
(-0.0843195 0.156509 0)
(-0.0604559 0.141699 0)
(-0.0388998 0.120926 0)
(-0.0207621 0.0939819 0)
(-0.00745847 0.0609029 0)
(-0.00111423 0.0220169 0)
(-0.00100961 -0.0180545 0)
(-0.00673078 -0.0493411 0)
(-0.0187288 -0.0755915 0)
(-0.0351434 -0.096799 0)
(-0.0547778 -0.113131 0)
(-0.0767189 -0.124891 0)
(-0.100104 -0.132483 0)
(-0.124168 -0.136383 0)
(-0.148275 -0.137101 0)
(-0.171908 -0.135154 0)
(-0.194668 -0.131037 0)
(-0.216256 -0.125212 0)
(-0.236462 -0.11809 0)
(-0.255152 -0.110026 0)
(-0.272247 -0.101321 0)
(-0.287718 -0.0922146 0)
(-0.301566 -0.082896 0)
(-0.313816 -0.0735037 0)
(-0.32451 -0.064133 0)
(-0.333695 -0.0548407 0)
(-0.341418 -0.0456516 0)
(-0.347724 -0.0365638 0)
(-0.352653 -0.0275542 0)
(-0.356231 -0.0185833 0)
(-0.358475 -0.00960011 0)
(-0.359387 -0.000547051 0)
(-0.358956 0.00863566 0)
(-0.357155 0.0180052 0)
(-0.353943 0.027611 0)
(-0.349266 0.0374897 0)
(-0.343059 0.0476591 0)
(-0.335249 0.0581119 0)
(-0.325755 0.0688088 0)
(-0.314498 0.0796712 0)
(-0.301406 0.0905737 0)
(-0.286423 0.101337 0)
(-0.269518 0.11172 0)
(-0.250702 0.121419 0)
(-0.230038 0.13006 0)
(-0.207665 0.137205 0)
(-0.183808 0.142357 0)
(-0.158804 0.144975 0)
(-0.133114 0.144495 0)
(-0.107334 0.140362 0)
(-0.0822024 0.132062 0)
(-0.0585963 0.119167 0)
(-0.0374923 0.10138 0)
(-0.0199025 0.0785653 0)
(-0.00710769 0.0507805 0)
(-0.00105122 0.0183089 0)
(-0.000981563 -0.0146586 0)
(-0.00657409 -0.0401074 0)
(-0.0183484 -0.0615279 0)
(-0.0345345 -0.0789157 0)
(-0.0540055 -0.0923976 0)
(-0.0759007 -0.102203 0)
(-0.0993945 -0.108643 0)
(-0.123743 -0.112082 0)
(-0.148313 -0.112919 0)
(-0.172579 -0.111556 0)
(-0.19612 -0.108388 0)
(-0.21861 -0.103782 0)
(-0.239809 -0.0980698 0)
(-0.259547 -0.091541 0)
(-0.277714 -0.0844412 0)
(-0.294251 -0.0769711 0)
(-0.309133 -0.0692883 0)
(-0.32236 -0.0615111 0)
(-0.333954 -0.0537218 0)
(-0.343943 -0.0459715 0)
(-0.352362 -0.0382846 0)
(-0.359244 -0.0306632 0)
(-0.364618 -0.0230915 0)
(-0.368504 -0.0155401 0)
(-0.370913 -0.00797009 0)
(-0.37184 -0.00033692 0)
(-0.371273 0.00740552 0)
(-0.369183 0.0153008 0)
(-0.365529 0.0233859 0)
(-0.360261 0.0316862 0)
(-0.353319 0.0402111 0)
(-0.344638 0.0489484 0)
(-0.334151 0.0578588 0)
(-0.321797 0.0668701 0)
(-0.30753 0.0758714 0)
(-0.29132 0.0847077 0)
(-0.273176 0.0931753 0)
(-0.253146 0.101019 0)
(-0.231341 0.107931 0)
(-0.207944 0.113554 0)
(-0.183227 0.11749 0)
(-0.157565 0.11931 0)
(-0.131448 0.118574 0)
(-0.105483 0.114853 0)
(-0.0804018 0.10776 0)
(-0.0570466 0.0969792 0)
(-0.0363364 0.0822971 0)
(-0.0192043 0.0636304 0)
(-0.00682529 0.0410416 0)
(-0.00100099 0.0147657 0)
(-0.00096068 -0.0113334 0)
(-0.00645669 -0.031037 0)
(-0.0180618 -0.0476619 0)
(-0.0340725 -0.0612054 0)
(-0.0534138 -0.0717606 0)
(-0.0752649 -0.0794959 0)
(-0.0988293 -0.0846402 0)
(-0.123381 -0.087465 0)
(-0.14829 -0.0882663 0)
(-0.173026 -0.0873479 0)
(-0.197154 -0.0850075 0)
(-0.220328 -0.081525 0)
(-0.242284 -0.0771552 0)
(-0.262828 -0.0721222 0)
(-0.281825 -0.0666171 0)
(-0.299191 -0.0607975 0)
(-0.314878 -0.0547884 0)
(-0.32887 -0.0486841 0)
(-0.34117 -0.0425517 0)
(-0.351792 -0.0364335 0)
(-0.360759 -0.0303509 0)
(-0.368094 -0.024308 0)
(-0.373817 -0.0182946 0)
(-0.377941 -0.0122896 0)
(-0.380473 -0.00626467 0)
(-0.381405 -0.000186798 0)
(-0.380719 0.00597795 0)
(-0.378389 0.0122614 0)
(-0.374373 0.0186898 0)
(-0.368623 0.02528 0)
(-0.361085 0.032036 0)
(-0.351703 0.0389443 0)
(-0.340421 0.0459698 0)
(-0.327196 0.0530515 0)
(-0.311999 0.0600981 0)
(-0.294828 0.0669841 0)
(-0.275718 0.0735469 0)
(-0.254752 0.0795849 0)
(-0.232077 0.084858 0)
(-0.20791 0.0890903 0)
(-0.182557 0.091977 0)
(-0.156423 0.0931935 0)
(-0.130014 0.0924106 0)
(-0.103946 0.0893118 0)
(-0.0789386 0.0836145 0)
(-0.0558063 0.0750931 0)
(-0.0354216 0.0636008 0)
(-0.0186564 0.0490871 0)
(-0.0066052 0.0316096 0)
(-0.000962159 0.0113531 0)
(-0.000945858 -0.00806009 0)
(-0.00637298 -0.0220871 0)
(-0.0178566 -0.033943 0)
(-0.0337398 -0.0436264 0)
(-0.0529847 -0.051201 0)
(-0.0747988 -0.0567822 0)
(-0.0984073 -0.0605271 0)
(-0.123097 -0.0626227 0)
(-0.148242 -0.0632742 0)
(-0.173311 -0.0626929 0)
(-0.197858 -0.0610868 0)
(-0.221523 -0.0586531 0)
(-0.244027 -0.0555715 0)
(-0.265155 -0.0520014 0)
(-0.284757 -0.0480794 0)
(-0.30273 -0.0439186 0)
(-0.31901 -0.0396094 0)
(-0.333565 -0.0352206 0)
(-0.346385 -0.0308014 0)
(-0.357475 -0.0263836 0)
(-0.366847 -0.0219837 0)
(-0.374516 -0.017606 0)
(-0.380495 -0.0132442 0)
(-0.384794 -0.00888444 0)
(-0.387413 -0.00450734 0)
(-0.388343 -9.04211e-05 0)
(-0.387564 0.00438952 0)
(-0.385047 0.00895403 0)
(-0.380754 0.0136205 0)
(-0.374638 0.0183993 0)
(-0.36665 0.0232915 0)
(-0.35674 0.0282852 0)
(-0.344863 0.033353 0)
(-0.330987 0.0384487 0)
(-0.315101 0.0435043 0)
(-0.29722 0.0484279 0)
(-0.277403 0.0531009 0)
(-0.255757 0.0573781 0)
(-0.232454 0.0610877 0)
(-0.207738 0.0640339 0)
(-0.18194 0.0660018 0)
(-0.155482 0.0667647 0)
(-0.128883 0.0660944 0)
(-0.102762 0.0637736 0)
(-0.0778285 0.0596105 0)
(-0.0548755 0.0534541 0)
(-0.0347407 0.045209 0)
(-0.0182512 0.0348467 0)
(-0.00644325 0.0224127 0)
(-0.000933752 0.00803979 0)
(-0.000936355 -0.00482225 0)
(-0.00631912 -0.01322 0)
(-0.0177241 -0.0203259 0)
(-0.0335244 -0.0261394 0)
(-0.0527054 -0.0306977 0)
(-0.0744932 -0.0340682 0)
(-0.098127 -0.0363425 0)
(-0.122902 -0.0376305 0)
(-0.148198 -0.0380526 0)
(-0.173479 -0.0377333 0)
(-0.198294 -0.0367959 0)
(-0.222277 -0.0353571 0)
(-0.245135 -0.0335242 0)
(-0.266645 -0.0313924 0)
(-0.286642 -0.0290436 0)
(-0.305012 -0.0265458 0)
(-0.32168 -0.0239539 0)
(-0.336606 -0.0213094 0)
(-0.349769 -0.0186426 0)
(-0.361167 -0.015973 0)
(-0.370805 -0.0133112 0)
(-0.378694 -0.0106601 0)
(-0.384842 -0.00801647 0)
(-0.389255 -0.00537242 0)
(-0.391929 -0.00271674 0)
(-0.392855 -3.63516e-05 0)
(-0.392011 0.00268223 0)
(-0.389367 0.00545144 0)
(-0.384887 0.00828112 0)
(-0.378525 0.0111769 0)
(-0.370235 0.0141386 0)
(-0.359973 0.0171582 0)
(-0.3477 0.0202183 0)
(-0.333392 0.0232901 0)
(-0.31705 0.0263319 0)
(-0.298702 0.0292873 0)
(-0.278422 0.0320847 0)
(-0.256333 0.0346362 0)
(-0.232623 0.0368387 0)
(-0.207556 0.0385754 0)
(-0.181475 0.0397184 0)
(-0.154815 0.0401339 0)
(-0.128103 0.0396878 0)
(-0.101958 0.038253 0)
(-0.0770824 0.0357186 0)
(-0.0542546 0.0319978 0)
(-0.034289 0.027037 0)
(-0.0179835 0.020822 0)
(-0.00633666 0.0133818 0)
(-0.000915134 0.00479628 0)
(-0.000931711 -0.00160511 0)
(-0.00629276 -0.00440124 0)
(-0.0176592 -0.00676856 0)
(-0.0334185 -0.00870692 0)
(-0.0525677 -0.0102285 0)
(-0.0743419 -0.0113556 0)
(-0.0979872 -0.0121182 0)
(-0.122804 -0.0125526 0)
(-0.148172 -0.0126984 0)
(-0.173556 -0.0125969 0)
(-0.198503 -0.0122888 0)
(-0.222642 -0.0118129 0)
(-0.245674 -0.0112046 0)
(-0.267372 -0.0104958 0)
(-0.287563 -0.0097136 0)