/*--------------------------------*- C++ -*----------------------------------*\
  =========                 |
  \\      /  F ield         | OpenFOAM: The Open Source CFD Toolbox
   \\    /   O peration     | Website:  https://openfoam.org
    \\  /    A nd           | Version:  7
     \\/     M anipulation  |
\*---------------------------------------------------------------------------*/
FoamFile
{
    version     2.0;
    format      ascii;
    class       volVectorField;
    location    "0.0424";
    object      U;
}
// * * * * * * * * * * * * * * * * * * * * * * * * * * * * * * * * * * * * * //

dimensions      [0 1 -1 0 0 0 0];

internalField   nonuniform List<vector> 
2500
(
(-0.293807 0.153728 0)
(-0.39795 0.128725 0)
(-0.577983 0.0737917 0)
(-0.696253 0.0408691 0)
(-0.765203 0.0233846 0)
(-0.809491 0.0141286 0)
(-0.840023 0.00914103 0)
(-0.862049 0.00633165 0)
(-0.878604 0.00464166 0)
(-0.891473 0.00355108 0)
(-0.901731 0.00280176 0)
(-0.910059 0.00225969 0)
(-0.916911 0.00185107 0)
(-0.922602 0.0015326 0)
(-0.927356 0.00127734 0)
(-0.931338 0.00106764 0)
(-0.934671 0.000891417 0)
(-0.937444 0.000740132 0)
(-0.939729 0.000607545 0)
(-0.941578 0.000488978 0)
(-0.94303 0.00038083 0)
(-0.944116 0.000280254 0)
(-0.944857 0.000184933 0)
(-0.945266 9.29185e-05 0)
(-0.945353 2.51019e-06 0)
(-0.94512 -8.78769e-05 0)
(-0.944565 -0.000179728 0)
(-0.943682 -0.000274563 0)
(-0.942456 -0.000374014 0)
(-0.940872 -0.00047992 0)
(-0.938903 -0.000594453 0)
(-0.936518 -0.000720287 0)
(-0.933674 -0.000860828 0)
(-0.930318 -0.00102055 0)
(-0.92638 -0.00120551 0)
(-0.921768 -0.00142414 0)
(-0.916361 -0.00168852 0)
(-0.909998 -0.00201669 0)
(-0.902455 -0.00243674 0)
(-0.893419 -0.00299465 0)
(-0.882437 -0.00377007 0)
(-0.868821 -0.00490846 0)
(-0.851485 -0.00668857 0)
(-0.828626 -0.00966155 0)
(-0.797226 -0.0149146 0)
(-0.752138 -0.0245011 0)
(-0.682619 -0.0421553 0)
(-0.564981 -0.0746269 0)
(-0.389332 -0.128135 0)
(-0.290209 -0.152374 0)
(-0.00516496 0.302921 0)
(-0.027061 0.307343 0)
(-0.17129 0.217763 0)
(-0.308089 0.146525 0)
(-0.416904 0.0991303 0)
(-0.502005 0.0688515 0)
(-0.568239 0.0495834 0)
(-0.620013 0.0370285 0)
(-0.661013 0.0285326 0)
(-0.693966 0.0225478 0)
(-0.720812 0.0181719 0)
(-0.742931 0.0148652 0)
(-0.761318 0.0122935 0)
(-0.776699 0.0102421 0)
(-0.789612 0.0085677 0)
(-0.80046 0.00717181 0)
(-0.80955 0.00598448 0)
(-0.817115 0.00495482 0)
(-0.823335 0.00404485 0)
(-0.828349 0.00322561 0)
(-0.832261 0.00247445 0)
(-0.835149 0.00177322 0)
(-0.837072 0.00110699 0)
(-0.838067 0.000463081 0)
(-0.838159 -0.000169699 0)
(-0.837354 -0.000801633 0)
(-0.83565 -0.00144261 0)
(-0.833028 -0.00210267 0)
(-0.829456 -0.00279248 0)
(-0.824887 -0.00352402 0)
(-0.819259 -0.00431127 0)
(-0.812487 -0.0051712 0)
(-0.804465 -0.00612512 0)
(-0.795054 -0.00720049 0)
(-0.784078 -0.00843368 0)
(-0.771311 -0.00987394 0)
(-0.756457 -0.0115896 0)
(-0.73913 -0.0136781 0)
(-0.718816 -0.0162818 0)
(-0.694823 -0.019616 0)
(-0.666207 -0.0240164 0)
(-0.631662 -0.0300235 0)
(-0.589372 -0.0385328 0)
(-0.536815 -0.051055 0)
(-0.47067 -0.0701161 0)
(-0.387087 -0.0996607 0)
(-0.28188 -0.145105 0)
(-0.151569 -0.212641 0)
(-0.0164716 -0.298222 0)
(-0.000993251 -0.29469 0)
(0.0321127 0.264064 0)
(0.0563957 0.362304 0)
(-0.0035322 0.324869 0)
(-0.0956632 0.260356 0)
(-0.191859 0.200632 0)
(-0.280428 0.153543 0)
(-0.357259 0.118561 0)
(-0.422144 0.0929352 0)
(-0.476442 0.0740292 0)
(-0.52184 0.0598544 0)
(-0.559896 0.0490154 0)
(-0.591915 0.0405539 0)
(-0.618947 0.0338123 0)
(-0.641823 0.0283342 0)
(-0.661194 0.0237977 0)
(-0.677569 0.0199715 0)
(-0.691351 0.0166861 0)
(-0.702852 0.013815 0)
(-0.712319 0.0112618 0)
(-0.719946 0.00895183 0)
(-0.72588 0.00682579 0)
(-0.730235 0.00483574 0)
(-0.733094 0.00294179 0)
(-0.734515 0.00110983 0)
(-0.734531 -0.000690362 0)
(-0.733159 -0.0024866 0)
(-0.730393 -0.00430567 0)
(-0.72621 -0.00617462 0)
(-0.720567 -0.0081221 0)
(-0.713402 -0.0101799 0)
(-0.704627 -0.0123846 0)
(-0.694131 -0.0147804 0)
(-0.681769 -0.0174217 0)
(-0.667362 -0.0203773 0)
(-0.650679 -0.0237368 0)
(-0.631435 -0.0276185 0)
(-0.609269 -0.032182 0)
(-0.583723 -0.0376459 0)
(-0.554222 -0.0443153 0)
(-0.52004 -0.0526226 0)
(-0.48027 -0.0631884 0)
(-0.433808 -0.0769093 0)
(-0.379378 -0.0950737 0)
(-0.315676 -0.119485 0)
(-0.241829 -0.152473 0)
(-0.158528 -0.196357 0)
(-0.0700915 -0.251293 0)
(0.0121722 -0.309948 0)
(0.0619836 -0.343285 0)
(0.0330245 -0.249941 0)
(0.027154 0.205244 0)
(0.0637777 0.357761 0)
(0.0552324 0.375512 0)
(0.00806999 0.33829 0)
(-0.0593302 0.285576 0)
(-0.132643 0.234649 0)
(-0.203721 0.191268 0)
(-0.268794 0.156123 0)
(-0.326602 0.12816 0)
(-0.377144 0.105962 0)
(-0.420968 0.0882314 0)
(-0.4588 0.0739187 0)
(-0.491378 0.0622141 0)
(-0.519368 0.0525055 0)
(-0.543347 0.0443325 0)
(-0.563802 0.037347 0)
(-0.581132 0.0312838 0)
(-0.595666 0.0259384 0)
(-0.607668 0.0211513 0)
(-0.617353 0.016796 0)
(-0.624888 0.0127705 0)
(-0.630402 0.00899106 0)
(-0.633995 0.00538717 0)
(-0.635734 0.00189812 0)
(-0.635663 -0.00153018 0)
(-0.633803 -0.00494765 0)
(-0.630152 -0.00840224 0)
(-0.624688 -0.0119421 0)
(-0.617366 -0.0156178 0)
(-0.60812 -0.0194847 0)
(-0.596858 -0.0236058 0)
(-0.583465 -0.0280557 0)
(-0.567792 -0.0329244 0)
(-0.549658 -0.0383241 0)
(-0.528838 -0.0443962 0)
(-0.505065 -0.0513229 0)
(-0.478012 -0.0593409 0)
(-0.447298 -0.0687615 0)
(-0.412475 -0.079996 0)
(-0.373048 -0.0935884 0)
(-0.328497 -0.110253 0)
(-0.278366 -0.130906 0)
(-0.222428 -0.156655 0)
(-0.161031 -0.188675 0)
(-0.0957224 -0.22776 0)
(-0.0303056 -0.273085 0)
(0.0275685 -0.319284 0)
(0.0648977 -0.350778 0)
(0.0657083 -0.331985 0)
(0.0268629 -0.189961 0)
(0.0184593 0.16345 0)
(0.0531289 0.33149 0)
(0.0685956 0.386827 0)
(0.0529969 0.379469 0)
(0.0134894 0.343734 0)
(-0.0392134 0.299193 0)
(-0.0969566 0.255405 0)
(-0.154545 0.216216 0)
(-0.209049 0.182628 0)
(-0.259051 0.15439 0)
(-0.304047 0.130801 0)
(-0.344035 0.111069 0)
(-0.379259 0.0944687 0)
(-0.410071 0.0803805 0)
(-0.436844 0.0682981 0)
(-0.459937 0.0578133 0)
(-0.479674 0.048599 0)
(-0.496338 0.0403929 0)
(-0.510171 0.0329834 0)
(-0.521371 0.0261985 0)
(-0.530103 0.0198961 0)
(-0.536496 0.0139578 0)
(-0.540652 0.00828236 0)
(-0.542642 0.00278166 0)
(-0.542516 -0.00262325 0)
(-0.540298 -0.00800538 0)
(-0.535993 -0.0134347 0)
(-0.529584 -0.0189811 0)
(-0.521035 -0.0247168 0)
(-0.510288 -0.0307202 0)
(-0.497265 -0.0370786 0)
(-0.481866 -0.0438931 0)
(-0.463969 -0.0512832 0)
(-0.443425 -0.0593935 0)
(-0.420065 -0.0684012 0)
(-0.393694 -0.0785259 0)
(-0.364099 -0.0900415 0)
(-0.33106 -0.103289 0)
(-0.294371 -0.118688 0)
(-0.253882 -0.136749 0)
(-0.209577 -0.15806 0)
(-0.161704 -0.183246 0)
(-0.110996 -0.212827 0)
(-0.0590191 -0.246897 0)
(-0.0086516 -0.284437 0)
(0.0353358 -0.321949 0)
(0.0657631 -0.350998 0)
(0.0734851 -0.354411 0)
(0.0532026 -0.301864 0)
(0.0179075 -0.14839 0)
(0.0119599 0.13464 0)
(0.0408486 0.300483 0)
(0.0653488 0.377809 0)
(0.0686582 0.3953 0)
(0.0505564 0.378591 0)
(0.0170922 0.345503 0)
(-0.0254772 0.306807 0)
(-0.0721622 0.268293 0)
(-0.119452 0.232676 0)
(-0.16512 0.200942 0)
(-0.207886 0.173187 0)
(-0.247105 0.149102 0)
(-0.282528 0.128224 0)
(-0.31414 0.110068 0)
(-0.342056 0.0941809 0)
(-0.366449 0.0801635 0)
(-0.387517 0.0676748 0)
(-0.405454 0.0564267 0)
(-0.420442 0.0461774 0)
(-0.432642 0.0367233 0)
(-0.442192 0.0278925 0)
(-0.449207 0.0195378 0)
(-0.453779 0.0115317 0)
(-0.455978 0.00376168 0)
(-0.455852 -0.00387376 0)
(-0.45343 -0.0114688 0)
(-0.448725 -0.0191134 0)
(-0.44173 -0.0268967 0)
(-0.432422 -0.0349097 0)
(-0.420764 -0.0432491 0)
(-0.406703 -0.0520208 0)
(-0.390172 -0.0613438 0)
(-0.371095 -0.071355 0)
(-0.349384 -0.0822144 0)
(-0.324949 -0.094111 0)
(-0.297708 -0.107268 0)
(-0.267594 -0.12195 0)
(-0.234585 -0.13846 0)
(-0.198739 -0.157141 0)
(-0.160256 -0.178348 0)
(-0.119562 -0.202405 0)
(-0.0774513 -0.229485 0)
(-0.0352682 -0.259402 0)
(0.00485191 -0.291206 0)
(0.0397463 -0.322485 0)
(0.0651269 -0.348242 0)
(0.0758225 -0.359279 0)
(0.0670889 -0.340328 0)
(0.0401253 -0.269104 0)
(0.0114453 -0.120118 0)
(0.00787539 0.114091 0)
(0.0310972 0.271174 0)
(0.057424 0.359724 0)
(0.0707814 0.395337 0)
(0.0672816 0.395752 0)
(0.0492678 0.3755 0)
(0.0207039 0.344834 0)
(-0.014445 0.310278 0)
(-0.0528656 0.275618 0)
(-0.0920906 0.242828 0)
(-0.130426 0.212776 0)
(-0.166788 0.185695 0)
(-0.200529 0.161487 0)
(-0.231306 0.139893 0)
(-0.258972 0.120593 0)
(-0.283501 0.103262 0)
(-0.304939 0.0875937 0)
(-0.323373 0.0733101 0)
(-0.338901 0.0601654 0)
(-0.351627 0.0479443 0)
(-0.361648 0.0364586 0)
(-0.369053 0.0255432 0)
(-0.373913 0.0150519 0)
(-0.37629 0.00485397 0)
(-0.37623 -0.00516964 0)
(-0.373763 -0.0151297 0)
(-0.368909 -0.0251319 0)
(-0.361675 -0.0352796 0)
(-0.352057 -0.0456773 0)
(-0.340042 -0.0564331 0)
(-0.325612 -0.0676627 0)
(-0.308744 -0.079492 0)
(-0.289417 -0.0920606 0)
(-0.267617 -0.105525 0)
(-0.243349 -0.120061 0)
(-0.216647 -0.135864 0)
(-0.187597 -0.153145 0)
(-0.156365 -0.172122 0)
(-0.123243 -0.192996 0)
(-0.088705 -0.215911 0)
(-0.0534881 -0.240863 0)
(-0.018698 -0.267566 0)
(0.0140739 -0.295209 0)
(0.0426436 -0.322075 0)
(0.0642161 -0.34497 0)
(0.0755928 -0.358456 0)
(0.0737451 -0.354001 0)
(0.0571801 -0.319389 0)
(0.0300326 -0.239387 0)
(0.00744461 -0.100235 0)
(0.00542923 0.0989719 0)
(0.0240844 0.245374 0)
(0.0491905 0.338388 0)
(0.0672033 0.386152 0)
(0.0729298 0.400424 0)
(0.0663254 0.392312 0)
(0.0493951 0.370698 0)
(0.0248725 0.341977 0)
(-0.00452674 0.310389 0)
(-0.0364912 0.27854 0)
(-0.0692271 0.247903 0)
(-0.101428 0.219212 0)
(-0.132189 0.192745 0)
(-0.160917 0.16851 0)
(-0.187245 0.146373 0)
(-0.210963 0.126129 0)
(-0.23197 0.107545 0)
(-0.250234 0.0903862 0)
(-0.265766 0.0744303 0)
(-0.2786 0.0594703 0)
(-0.288785 0.045318 0)
(-0.296371 0.0318028 0)
(-0.301408 0.0187702 0)
(-0.303942 0.00607926 0)
(-0.30401 -0.00639953 0)
(-0.301645 -0.0187873 0)
(-0.296874 -0.0311989 0)
(-0.289715 -0.0437461 0)
(-0.280187 -0.0565394 0)
(-0.268304 -0.0696905 0)
(-0.254084 -0.0833152 0)
(-0.237553 -0.0975345 0)
(-0.218748 -0.112476 0)
(-0.19773 -0.128277 0)
(-0.174593 -0.145076 0)
(-0.149482 -0.163015 0)
(-0.122615 -0.182227 0)
(-0.0943119 -0.202812 0)
(-0.0650334 -0.224805 0)
(-0.0354314 -0.248119 0)
(-0.00640593 -0.272444 0)
(0.0208338 -0.297109 0)
(0.0447227 -0.320851 0)
(0.0633401 -0.341516 0)
(0.0745301 -0.355653 0)
(0.0762398 -0.358076 0)
(0.0671352 -0.341546 0)
(0.0476786 -0.29686 0)
(0.0228456 -0.214007 0)
(0.00506055 -0.0858331 0)
(0.00394532 0.0874358 0)
(0.0191262 0.223157 0)
(0.0419719 0.316672 0)
(0.0616187 0.372023 0)
(0.0728011 0.396804 0)
(0.0741599 0.399181 0)
(0.066287 0.386419 0)
(0.0508051 0.364296 0)
(0.0297133 0.337046 0)
(0.00495454 0.30757 0)
(-0.0217936 0.277738 0)
(-0.0491845 0.248672 0)
(-0.0761918 0.220985 0)
(-0.102066 0.194953 0)
(-0.126278 0.170641 0)
(-0.148473 0.147989 0)
(-0.168419 0.126865 0)
(-0.185976 0.107106 0)
(-0.201067 0.0885317 0)
(-0.213658 0.0709641 0)
(-0.223743 0.0542303 0)
(-0.231333 0.0381676 0)
(-0.23645 0.0226238 0)
(-0.239119 0.00745724 0)
(-0.239371 -0.007464 0)
(-0.237235 -0.0222639 0)
(-0.232742 -0.0370597 0)
(-0.225926 -0.0519641 0)
(-0.216822 -0.067086 0)
(-0.205474 -0.0825327 0)
(-0.191935 -0.0984105 0)
(-0.176274 -0.114825 0)
(-0.158586 -0.13188 0)
(-0.138997 -0.149677 0)
(-0.117679 -0.168306 0)
(-0.0948669 -0.18784 0)
(-0.0708778 -0.208316 0)
(-0.0461373 -0.229708 0)
(-0.0212093 -0.251888 0)
(0.00317049 -0.27456 0)
(0.026063 -0.297165 0)
(0.046305 -0.318753 0)
(0.0625177 -0.337805 0)
(0.0731756 -0.352006 0)
(0.0767886 -0.358007 0)
(0.0722555 -0.351226 0)
(0.0593835 -0.325839 0)
(0.0396223 -0.275154 0)
(0.0177788 -0.192739 0)
(0.00361435 -0.0750397 0)
(0.00300694 0.0783112 0)
(0.0155695 0.204076 0)
(0.0359821 0.295888 0)
(0.0556644 0.355576 0)
(0.0698152 0.387961 0)
(0.0764791 0.398906 0)
(0.075341 0.394139 0)
(0.0671552 0.378621 0)
(0.0532468 0.356291 0)
(0.0351181 0.330084 0)
(0.0142093 0.302067 0)
(-0.008219 0.273627 0)
(-0.031128 0.245637 0)
(-0.0536985 0.218604 0)
(-0.0753064 0.192785 0)
(-0.0954907 0.168273 0)
(-0.113921 0.145049 0)
(-0.130365 0.123036 0)
(-0.144671 0.102114 0)
(-0.156738 0.0821477 0)
(-0.166509 0.0629944 0)
(-0.173956 0.0445108 0)
(-0.179069 0.0265577 0)
(-0.181855 0.00900217 0)
(-0.182331 -0.00828197 0)
(-0.180523 -0.0254138 0)
(-0.176466 -0.0425057 0)
(-0.170202 -0.0596639 0)
(-0.161786 -0.0769888 0)
(-0.151283 -0.0945752 0)
(-0.138778 -0.112512 0)
(-0.124381 -0.13088 0)
(-0.10823 -0.149751 0)
(-0.0905044 -0.169182 0)
(-0.0714377 -0.189205 0)
(-0.051328 -0.209818 0)
(-0.0305577 -0.23096 0)
(-0.00961092 -0.252488 0)
(0.0109061 -0.274126 0)
(0.0302486 -0.295413 0)
(0.0475242 -0.315612 0)
(0.0617028 -0.333611 0)
(0.0716603 -0.347788 0)
(0.0762805 -0.355869 0)
(0.0746464 -0.354808 0)
(0.0663502 -0.340745 0)
(0.0518786 -0.309144 0)
(0.0330632 -0.255241 0)
(0.0141476 -0.174959 0)
(0.00269865 -0.0666792 0)
(0.00238185 0.070875 0)
(0.0129484 0.187612 0)
(0.0310814 0.276557 0)
(0.049998 0.338353 0)
(0.0655314 0.376018 0)
(0.075556 0.393695 0)
(0.0792352 0.395798 0)
(0.0767065 0.386441 0)
(0.0687359 0.369124 0)
(0.0563981 0.346639 0)
(0.0408499 0.321098 0)
(0.0231927 0.294026 0)
(0.00440101 0.266477 0)
(-0.0147061 0.23914 0)
(-0.0334652 0.212439 0)
(-0.0513552 0.186607 0)
(-0.0679769 0.161743 0)
(-0.0830324 0.137858 0)
(-0.0963043 0.114906 0)
(-0.107639 0.0928045 0)
(-0.116933 0.0714496 0)
(-0.124119 0.0507285 0)
(-0.12916 0.0305243 0)
(-0.132042 0.010721 0)
(-0.132769 -0.00879358 0)
(-0.131362 -0.0281265 0)
(-0.127854 -0.0473784 0)
(-0.122297 -0.0666424 0)
(-0.114756 -0.0860036 0)
(-0.105318 -0.105538 0)
(-0.0940905 -0.125311 0)
(-0.0812129 -0.145372 0)
(-0.0668589 -0.165756 0)
(-0.0512465 -0.186468 0)
(-0.0346477 -0.207483 0)
(-0.0173999 -0.228723 0)
(8.23634e-05 -0.250038 0)
(0.0172959 -0.271181 0)
(0.0336391 -0.291762 0)
(0.0484092 -0.311198 0)
(0.0608106 -0.328647 0)
(0.0699839 -0.342927 0)
(0.0750678 -0.35243 0)
(0.0753071 -0.355044 0)
(0.0702273 -0.348115 0)
(0.059879 -0.328486 0)
(0.0451013 -0.292698 0)
(0.0277707 -0.237399 0)
(0.0114758 -0.160036 0)
(0.00208854 -0.0600244 0)
(0.00194289 0.0646734 0)
(0.0109555 0.173307 0)
(0.0270545 0.258825 0)
(0.0448318 0.321242 0)
(0.060756 0.362407 0)
(0.0727589 0.385218 0)
(0.0797464 0.393023 0)
(0.0814511 0.389155 0)
(0.0782126 0.376629 0)
(0.0707346 0.357994 0)
(0.0598923 0.335292 0)
(0.0465973 0.310091 0)
(0.0317135 0.283547 0)
(0.016011 0.256478 0)
(0.000147074 0.229441 0)
(-0.0153354 0.202789 0)
(-0.03 0.17673 0)
(-0.0435043 0.151366 0)
(-0.0555856 0.126723 0)
(-0.0660475 0.102778 0)
(-0.0747474 0.0794756 0)
(-0.0815867 0.0567395 0)
(-0.0865024 0.0344826 0)
(-0.0894605 0.0126133 0)
(-0.0904518 -0.0089604 0)
(-0.0894889 -0.0303268 0)
(-0.0866049 -0.0515686 0)
(-0.081853 -0.0727605 0)
(-0.0753079 -0.0939669 0)
(-0.0670683 -0.11524 0)
(-0.0572602 -0.136616 0)
(-0.046042 -0.158111 0)
(-0.0336098 -0.179718 0)
(-0.0202046 -0.201394 0)
(-0.00611937 -0.223054 0)
(0.00829283 -0.244552 0)
(0.022612 -0.265663 0)
(0.036346 -0.286054 0)
(0.0489298 -0.305253 0)
(0.0597326 -0.322602 0)
(0.0680774 -0.33721 0)
(0.07328 -0.347897 0)
(0.0747156 -0.353144 0)
(0.0719196 -0.351061 0)
(0.0647318 -0.339396 0)
(0.0534792 -0.315623 0)
(0.0391423 -0.277137 0)
(0.0234758 -0.221599 0)
(0.00945168 -0.147437 0)
(0.00166095 -0.0546156 0)
(0.00161929 0.0594113 0)
(0.00939167 0.160795 0)
(0.0237015 0.242677 0)
(0.0401878 0.304743 0)
(0.0558881 0.348084 0)
(0.0688997 0.374708 0)
(0.0780386 0.387126 0)
(0.0827941 0.387997 0)
(0.0832003 0.379861 0)
(0.0796625 0.364978 0)
(0.0728029 0.345251 0)
(0.0633411 0.322218 0)
(0.0520095 0.297073 0)
(0.0394986 0.270714 0)
(0.0264275 0.243791 0)
(0.0133301 0.216759 0)
(0.000653588 0.189915 0)
(-0.0112369 0.163447 0)
(-0.0220504 0.137452 0)
(-0.0315603 0.111968 0)
(-0.0395952 0.0869907 0)
(-0.0460306 0.0624851 0)
(-0.0507813 0.0383995 0)
(-0.0537957 0.0146719 0)
(-0.0550517 -0.0087637 0)
(-0.0545534 -0.0319721 0)
(-0.0523295 -0.0550131 0)
(-0.0484333 -0.0779383 0)
(-0.0429432 -0.100787 0)
(-0.0359642 -0.123585 0)
(-0.0276318 -0.146337 0)
(-0.0181145 -0.169023 0)
(-0.00761914 -0.191594 0)
(0.00360435 -0.213961 0)
(0.0152582 -0.235984 0)
(0.0269922 -0.257459 0)
(0.0384008 -0.278098 0)
(0.0490239 -0.297508 0)
(0.0583515 -0.315161 0)
(0.0658381 -0.330361 0)
(0.0709281 -0.342213 0)
(0.0730975 -0.349586 0)
(0.0719175 -0.351091 0)
(0.0671413 -0.34508 0)
(0.058817 -0.329679 0)
(0.0474175 -0.302889 0)
(0.0339391 -0.262769 0)
(0.019945 -0.2077 0)
(0.00787263 -0.136743 0)
(0.00134718 -0.0501515 0)
(0.0013704 0.0548905 0)
(0.00812709 0.149792 0)
(0.0208608 0.228034 0)
(0.0360142 0.289131 0)
(0.051111 0.333684 0)
(0.064454 0.363064 0)
(0.0748697 0.379139 0)
(0.0817184 0.384008 0)
(0.0848289 0.379776 0)
(0.0843793 0.368405 0)
(0.0807797 0.351626 0)
(0.0745726 0.330895 0)
(0.0663551 0.307398 0)
(0.0567237 0.282067 0)
(0.0462384 0.255615 0)
(0.0354024 0.228567 0)
(0.0246526 0.201301 0)
(0.0143582 0.174073 0)
(0.00482297 0.147048 0)
(-0.00370884 0.120325 0)
(-0.0110465 0.0939477 0)
(-0.0170464 0.0679271 0)
(-0.0216059 0.0422491 0)
(-0.0246584 0.0168849 0)
(-0.0261699 -0.00820167 0)
(-0.0261353 -0.033048 0)
(-0.0245776 -0.0576878 0)
(-0.0215467 -0.0821462 0)
(-0.0171199 -0.106436 0)
(-0.0114033 -0.130551 0)
(-0.004534 -0.154466 0)
(0.00331762 -0.178125 0)
(0.0119443 -0.201438 0)
(0.021099 -0.224274 0)
(0.0304922 -0.246445 0)
(0.0397902 -0.267699 0)
(0.048616 -0.287701 0)
(0.0565531 -0.306013 0)
(0.0631555 -0.322078 0)
(0.0679647 -0.335191 0)
(0.0705374 -0.344483 0)
(0.0704861 -0.348901 0)
(0.0675346 -0.347201 0)
(0.0615897 -0.33797 0)
(0.0528261 -0.31967 0)
(0.0417755 -0.290734 0)
(0.02938 -0.249724 0)
(0.0169932 -0.195532 0)
(0.0066057 -0.127632 0)
(0.0011074 -0.0464278 0)
(0.00117181 0.0509736 0)
(0.00707551 0.140083 0)
(0.0184082 0.214801 0)
(0.0322383 0.274558 0)
(0.0464964 0.319632 0)
(0.0596967 0.350942 0)
(0.0707314 0.369866 0)
(0.0789097 0.378046 0)
(0.083932 0.37721 0)
(0.0858121 0.369037 0)
(0.0847911 0.355067 0)
(0.0812577 0.33665 0)
(0.0756819 0.314929 0)
(0.0685623 0.290836 0)
(0.0603893 0.265117 0)
(0.051621 0.238348 0)
(0.0426689 0.210963 0)
(0.0338913 0.183279 0)
(0.0255919 0.155521 0)
(0.0180212 0.12784 0)
(0.0113805 0.10033 0)
(0.00582559 0.0730457 0)
(0.00147171 0.0460126 0)
(-0.0016028 0.0192368 0)
(-0.00335312 -0.00728599 0)
(-0.00376543 -0.0335636 0)
(-0.00285517 -0.0596012 0)
(-0.000666313 -0.0853957 0)
(0.00272862 -0.110931 0)
(0.00722778 -0.136171 0)
(0.0126987 -0.161058 0)
(0.0189764 -0.185502 0)
(0.0258618 -0.209377 0)
(0.0331198 -0.232511 0)
(0.0404789 -0.254679 0)
(0.0476313 -0.275587 0)
(0.0542366 -0.294867 0)
(0.0599281 -0.312055 0)
(0.0643249 -0.326581 0)
(0.0670501 -0.337753 0)
(0.0677579 -0.344744 0)
(0.0661706 -0.346593 0)
(0.0621249 -0.342203 0)
(0.0556291 -0.330376 0)
(0.0469248 -0.309858 0)
(0.0365468 -0.279431 0)
(0.0253481 -0.238037 0)
(0.0144788 -0.184931 0)
(0.00556156 -0.11986 0)
(0.000917494 -0.0433027 0)
(0.00100819 0.047563 0)
(0.00617825 0.131504 0)
(0.0162497 0.202886 0)
(0.0287875 0.261101 0)
(0.0420608 0.306214 0)
(0.0547841 0.338821 0)
(0.0659434 0.359928 0)
(0.0748472 0.370812 0)
(0.0811246 0.372879 0)
(0.0846766 0.367553 0)
(0.0856153 0.356187 0)
(0.0842027 0.34001 0)
(0.0807951 0.320099 0)
(0.0757975 0.297364 0)
(0.0696273 0.27256 0)
(0.0626898 0.246291 0)
(0.0553608 0.219033 0)
(0.0479772 0.191152 0)
(0.0408319 0.16292 0)
(0.0341724 0.134538 0)
(0.0282026 0.106145 0)
(0.0230843 0.0778368 0)
(0.0189403 0.0496783 0)
(0.0158577 0.0217104 0)
(0.0138901 -0.00603847 0)
(0.01306 -0.0335456 0)
(0.0133602 -0.0607867 0)
(0.0147546 -0.08773 0)
(0.0171787 -0.11433 0)
(0.0205392 -0.140522 0)
(0.0247132 -0.166215 0)
(0.0295471 -0.191289 0)
(0.0348566 -0.215584 0)
(0.0404254 -0.238894 0)
(0.0460063 -0.26096 0)
(0.0513236 -0.281462 0)
(0.0560773 -0.300003 0)
(0.0599517 -0.316107 0)
(0.0626275 -0.329207 0)
(0.0638004 -0.338632 0)
(0.0632054 -0.343611 0)
(0.0606487 -0.343274 0)
(0.0560466 -0.336665 0)
(0.0494682 -0.322772 0)
(0.0411803 -0.30058 0)
(0.0316872 -0.269146 0)
(0.0217373 -0.227699 0)
(0.0122947 -0.175754 0)
(0.00467875 -0.113241 0)
(0.00076218 -0.0406748 0)
(0.000869539 0.0445879 0)
(0.00539449 0.123931 0)
(0.0143149 0.192208 0)
(0.0255976 0.248799 0)
(0.0377946 0.293625 0)
(0.0498028 0.327051 0)
(0.0607142 0.349803 0)
(0.0698677 0.362868 0)
(0.0768618 0.367384 0)
(0.0815258 0.364551 0)
(0.0838773 0.355546 0)
(0.0840776 0.341475 0)
(0.0823863 0.323338 0)
(0.0791228 0.302008 0)
(0.0746339 0.278228 0)
(0.0692689 0.252617 0)
(0.0633623 0.225678 0)
(0.0572221 0.19781 0)
(0.0511227 0.169327 0)
(0.0453015 0.14047 0)
(0.0399579 0.111419 0)
(0.0352541 0.0823088 0)
(0.0313164 0.0532398 0)
(0.0282373 0.0242875 0)
(0.0260773 -0.00448799 0)
(0.0248667 -0.0330335 0)
(0.0246069 -0.0612958 0)
(0.0252714 -0.0892146 0)
(0.0268059 -0.116716 0)
(0.0291288 -0.143707 0)
(0.0321305 -0.170067 0)
(0.0356738 -0.195647 0)
(0.0395933 -0.220258 0)
(0.0436963 -0.243664 0)
(0.0477644 -0.26558 0)
(0.0515564 -0.285662 0)
(0.0548141 -0.3035 0)
(0.0572706 -0.31861 0)
(0.0586627 -0.330435 0)
(0.0587476 -0.338336 0)
(0.0573248 -0.341598 0)
(0.0542623 -0.339438 0)
(0.0495279 -0.331025 0)
(0.0432216 -0.31551 0)
(0.0356076 -0.29207 0)
(0.0271393 -0.259979 0)
(0.0184575 -0.218681 0)
(0.0103597 -0.167882 0)
(0.00391393 -0.107635 0)
(0.000631356 -0.0384712 0)
(0.00074905 0.0419962 0)
(0.00469517 0.11727 0)
(0.0125507 0.1827 0)
(0.0226149 0.237667 0)
(0.0336776 0.282 0)
(0.0447997 0.315894 0)
(0.0551811 0.339863 0)
(0.0642104 0.354666 0)
(0.0714838 0.361224 0)
(0.0767895 0.360541 0)
(0.0800803 0.353639 0)
(0.0814397 0.341505 0)
(0.0810481 0.325057 0)
(0.07915 0.30512 0)
(0.0760263 0.282416 0)
(0.0719714 0.257565 0)
(0.0672759 0.231082 0)
(0.0622147 0.203393 0)
(0.0570383 0.174842 0)
(0.0519681 0.145704 0)
(0.047194 0.116193 0)
(0.0428737 0.086479 0)
(0.0391331 0.0566956 0)
(0.0360671 0.0269499 0)
(0.0337411 -0.00266776 0)
(0.0321924 -0.0320753 0)
(0.0314309 -0.0611917 0)
(0.0314402 -0.0899294 0)
(0.0321779 -0.118188 0)
(0.0335765 -0.145847 0)
(0.0355426 -0.172762 0)
(0.0379581 -0.198754 0)
(0.0406801 -0.223608 0)
(0.0435423 -0.247068 0)
(0.0463569 -0.268823 0)
(0.0489185 -0.288515 0)
(0.0510095 -0.305721 0)
(0.0524083 -0.31996 0)
(0.0529008 -0.330688 0)
(0.0522951 -0.337298 0)
(0.05044 -0.339129 0)
(0.0472468 -0.33548 0)
(0.0427133 -0.325625 0)
(0.0369486 -0.308851 0)
(0.0301953 -0.284491 0)
(0.0228456 -0.251988 0)
(0.0154347 -0.21095 0)
(0.00861234 -0.16122 0)
(0.00323594 -0.102937 0)
(0.000518112 -0.0366384 0)
(0.000641972 0.0397491 0)
(0.00405923 0.111446 0)
(0.010917 0.174304 0)
(0.0197955 0.227713 0)
(0.0296868 0.271433 0)
(0.0397984 0.305541 0)
(0.0494357 0.330392 0)
(0.0580474 0.346566 0)
(0.0652469 0.354807 0)
(0.0708048 0.355956 0)
(0.0746315 0.350898 0)
(0.0767538 0.34051 0)
(0.0772888 0.32563 0)
(0.0764174 0.307032 0)
(0.0743614 0.285409 0)
(0.0713633 0.261369 0)
(0.0676698 0.235436 0)
(0.0635207 0.208049 0)
(0.0591391 0.179575 0)
(0.0547265 0.150315 0)
(0.0504594 0.120514 0)
(0.0464869 0.0903702 0)
(0.042931 0.0600468 0)
(0.0398866 0.0296796 0)
(0.037422 -0.000613377 0)
(0.0355801 -0.0307235 0)
(0.0343788 -0.0605439 0)
(0.0338122 -0.0899621 0)
(0.033851 -0.118853 0)
(0.0344427 -0.147072 0)
(0.0355123 -0.17445 0)
(0.0369626 -0.200787 0)
(0.0386751 -0.225844 0)
(0.0405114 -0.249343 0)
(0.0423152 -0.270959 0)
(0.0439164 -0.290318 0)
(0.0451357 -0.306993 0)
(0.0457926 -0.320505 0)
(0.0457152 -0.330325 0)
(0.0447525 -0.335878 0)
(0.04279 -0.336552 0)
(0.0397668 -0.331713 0)
(0.0356948 -0.320728 0)
(0.0306764 -0.30299 0)
(0.0249206 -0.277961 0)
(0.0187532 -0.245211 0)
(0.0126088 -0.204474 0)
(0.00700567 -0.155693 0)
(0.00262193 -0.0990681 0)
(0.000417582 -0.0351372 0)
(0.000544885 0.0378172 0)
(0.00347111 0.106406 0)
(0.00938319 0.166978 0)
(0.0171037 0.218934 0)
(0.0257999 0.261991 0)
(0.0348099 0.296139 0)
(0.0435402 0.321612 0)
(0.0515051 0.338855 0)
(0.0583479 0.348467 0)
(0.0638386 0.351157 0)
(0.0678637 0.347691 0)
(0.0704102 0.338849 0)
(0.0715459 0.325395 0)
(0.0713995 0.308049 0)
(0.0701411 0.287472 0)
(0.0679653 0.264257 0)
(0.0650768 0.238925 0)
(0.0616796 0.211925 0)
(0.0579679 0.183637 0)
(0.0541207 0.154384 0)
(0.0502975 0.124433 0)
(0.0466363 0.0940076 0)
(0.0432523 0.063296 0)
(0.0402378 0.0324589 0)
(0.037662 0.00163868 0)
(0.0355723 -0.0290323 0)
(0.0339938 -0.0594242 0)
(0.0329311 -0.0894022 0)
(0.0323679 -0.118819 0)
(0.0322678 -0.147509 0)
(0.032575 -0.175283 0)
(0.0332143 -0.201918 0)
(0.0340927 -0.227159 0)
(0.0351 -0.25071 0)
(0.0361114 -0.272231 0)
(0.0369907 -0.291338 0)
(0.0375945 -0.3076 0)
(0.0377791 -0.320543 0)
(0.0374079 -0.32965 0)
(0.0363627 -0.334375 0)
(0.0345549 -0.334145 0)
(0.0319401 -0.328386 0)
(0.0285317 -0.316535 0)
(0.0244148 -0.298075 0)
(0.0197572 -0.272563 0)
(0.0148163 -0.239671 0)
(0.00993147 -0.199224 0)
(0.00550361 -0.151242 0)
(0.00205491 -0.0959678 0)
(0.000326255 -0.0339389 0)
(0.000455273 0.0361786 0)
(0.00291907 0.102106 0)
(0.00792556 0.160685 0)
(0.0145111 0.211328 0)
(0.0219967 0.253723 0)
(0.0298381 0.287796 0)
(0.0375377 0.313696 0)
(0.0446778 0.331758 0)
(0.0509398 0.342474 0)
(0.0561056 0.346441 0)
(0.0600518 0.344327 0)
(0.0627391 0.336829 0)
(0.0641987 0.324642 0)
(0.0645166 0.308438 0)
(0.0638188 0.288844 0)
(0.0622567 0.266435 0)
(0.0599956 0.241722 0)
(0.0572044 0.215158 0)
(0.0540476 0.187134 0)
(0.05068 0.157986 0)
(0.0472424 0.127998 0)
(0.0438589 0.0974155 0)
(0.0406357 0.0664453 0)
(0.0376601 0.0352698 0)
(0.0350009 0.00405196 0)
(0.0327081 -0.0270556 0)
(0.0308135 -0.0579032 0)
(0.0293312 -0.0883367 0)
(0.028258 -0.11819 0)
(0.0275738 -0.14728 0)
(0.0272421 -0.175398 0)
(0.0272104 -0.202306 0)
(0.0274111 -0.227731 0)
(0.0277625 -0.251363 0)
(0.0281705 -0.272852 0)
(0.0285312 -0.291803 0)
(0.0287345 -0.307783 0)
(0.0286692 -0.320321 0)
(0.0282291 -0.328911 0)
(0.0273213 -0.333027 0)
(0.0258754 -0.332131 0)
(0.0238542 -0.32569 0)
(0.0212641 -0.313202 0)
(0.0181652 -0.294214 0)
(0.0146797 -0.268358 0)
(0.0109962 -0.235381 0)
(0.00736424 -0.195178 0)
(0.0040782 -0.147823 0)
(0.00152198 -0.0935927 0)
(0.000241535 -0.0330225 0)
(0.00037123 0.0348168 0)
(0.0023941 0.0985144 0)
(0.00652553 0.155398 0)
(0.0119944 0.20489 0)
(0.0182593 0.246661 0)
(0.0248832 0.280595 0)
(0.0314591 0.306772 0)
(0.0376379 0.325452 0)
(0.0431446 0.337039 0)
(0.0477816 0.342046 0)
(0.051426 0.341058 0)
(0.0540236 0.334703 0)
(0.0555786 0.323618 0)
(0.0561433 0.308429 0)
(0.0558059 0.289733 0)
(0.0546798 0.268081 0)
(0.0528935 0.243978 0)
(0.0505821 0.217873 0)
(0.0478806 0.190162 0)
(0.0449187 0.161189 0)
(0.0418168 0.131254 0)
(0.0386834 0.100614 0)
(0.0356137 0.0694947 0)
(0.0326884 0.0380935 0)
(0.0299738 0.0065905 0)
(0.0275214 -0.0248452 0)
(0.0253682 -0.0560477 0)
(0.0235373 -0.0868472 0)
(0.0220381 -0.117062 0)
(0.0208663 -0.146494 0)
(0.0200047 -0.17492 0)
(0.0194234 -0.202088 0)
(0.01908 -0.227712 0)
(0.0189208 -0.251471 0)
(0.0188815 -0.273001 0)
(0.0188892 -0.291903 0)
(0.0188646 -0.30774 0)
(0.0187257 -0.320039 0)
(0.0183924 -0.328304 0)
(0.017792 -0.332022 0)
(0.0168659 -0.330679 0)
(0.0155778 -0.323774 0)
(0.0139208 -0.310845 0)
(0.0119254 -0.291489 0)
(0.00966527 -0.265391 0)
(0.00726098 -0.232352 0)
(0.00487624 -0.192319 0)
(0.00270755 -0.145405 0)
(0.00101326 -0.0919109 0)
(0.000161461 -0.032373 0)
(0.000291271 0.0337195 0)
(0.00188906 0.0956068 0)
(0.00516817 0.151095 0)
(0.00953446 0.199616 0)
(0.0145723 0.240831 0)
(0.0199431 0.274594 0)
(0.0253268 0.30094 0)
(0.030442 0.320073 0)
(0.035061 0.33233 0)
(0.0390126 0.33816 0)
(0.0421825 0.338086 0)
(0.0445092 0.332677 0)
(0.0459787 0.322523 0)
(0.0466163 0.308211 0)
(0.0464785 0.290308 0)
(0.0456447 0.269347 0)
(0.0442094 0.24582 0)
(0.0422759 0.220172 0)
(0.0399497 0.192798 0)
(0.0373351 0.16405 0)
(0.034531 0.134234 0)
(0.0316291 0.103619 0)
(0.0287117 0.0724402 0)
(0.0258515 0.0409095 0)
(0.0231104 0.0092188 0)
(0.0205401 -0.0224503 0)
(0.0181817 -0.0539196 0)
(0.0160662 -0.0850071 0)
(0.0142146 -0.11552 0)
(0.0126381 -0.145248 0)
(0.0113383 -0.173956 0)
(0.0103071 -0.201382 0)
(0.00952743 -0.227229 0)
(0.00897262 -0.251166 0)
(0.00860748 -0.272821 0)
(0.00838869 -0.291787 0)
(0.00826615 -0.307621 0)
(0.00818479 -0.31985 0)
(0.00808724 -0.327978 0)
(0.00791731 -0.331501 0)
(0.00762434 -0.329917 0)
(0.00716831 -0.322745 0)
(0.00652531 -0.309549 0)
(0.0056929 -0.289957 0)
(0.00469485 -0.263691 0)
(0.00358424 -0.23059 0)
(0.00244254 -0.190633 0)
(0.00137425 -0.143964 0)
(0.000520935 -0.0909001 0)
(8.45067e-05 -0.0319798 0)
(0.000214198 0.0328776 0)
(0.00139811 0.0933657 0)
(0.00384104 0.147761 0)
(0.00711503 0.195503 0)
(0.0109215 0.236251 0)
(0.0150147 0.269838 0)
(0.0191574 0.296273 0)
(0.0231358 0.315718 0)
(0.0267712 0.328469 0)
(0.0299232 0.334925 0)
(0.0324911 0.335562 0)
(0.034413 0.330907 0)
(0.0356621 0.321511 0)
(0.0362425 0.30793 0)
(0.0361837 0.290704 0)
(0.0355348 0.27035 0)
(0.0343588 0.247347 0)
(0.0327283 0.222133 0)
(0.0307203 0.195103 0)
(0.0284132 0.166608 0)
(0.0258839 0.13696 0)
(0.0232059 0.106434 0)
(0.0204476 0.0752722 0)
(0.0176716 0.0436946 0)
(0.0149346 0.0119016 0)
(0.0122867 -0.0199168 0)
(0.00977186 -0.0515743 0)
(0.00742775 -0.0828806 0)
(0.00528605 -0.113635 0)
(0.00337249 -0.143619 0)
(0.00170677 -0.17259 0)
(0.000302392 -0.200278 0)
(-0.000833544 -0.226379 0)
(-0.00170077 -0.250552 0)
(-0.00230623 -0.272418 0)
(-0.00266435 -0.291563 0)
(-0.00279726 -0.307537 0)
(-0.00273449 -0.319861 0)
(-0.00251236 -0.328037 0)
(-0.00217265 -0.33156 0)
(-0.00176062 -0.32993 0)
(-0.00132225 -0.322675 0)
(-0.0009009 -0.309369 0)
(-0.00053358 -0.289657 0)
(-0.000247228 -0.26328 0)
(-5.56096e-05 -0.230098 0)
(4.27479e-05 -0.190112 0)
(6.40932e-05 -0.143485 0)
(3.8701e-05 -0.0905459 0)
(9.44648e-06 -0.0318361 0)
(0.000138993 0.032285 0)
(0.000916204 0.091779 0)
(0.0025333 0.145384 0)
(0.00472155 0.192549 0)
(0.0072939 0.232931 0)
(0.0100934 0.266357 0)
(0.0129633 0.29282 0)
(0.0157567 0.312459 0)
(0.0183451 0.325543 0)
(0.0206215 0.33244 0)
(0.0225026 0.333596 0)
(0.02393 0.329506 0)
(0.0248687 0.320693 0)
(0.0253055 0.307689 0)
(0.0252462 0.291016 0)
(0.0247123 0.271172 0)
(0.0237376 0.248627 0)
(0.0223648 0.22381 0)
(0.0206431 0.197113 0)
(0.0186248 0.168886 0)
(0.0163643 0.139441 0)
(0.0139158 0.109055 0)