/*--------------------------------*- C++ -*----------------------------------*\
  =========                 |
  \\      /  F ield         | OpenFOAM: The Open Source CFD Toolbox
   \\    /   O peration     | Website:  https://openfoam.org
    \\  /    A nd           | Version:  7
     \\/     M anipulation  |
\*---------------------------------------------------------------------------*/
FoamFile
{
    version     2.0;
    format      ascii;
    class       volVectorField;
    location    "0.0236";
    object      U;
}
// * * * * * * * * * * * * * * * * * * * * * * * * * * * * * * * * * * * * * //

dimensions      [0 1 -1 0 0 0 0];

internalField   nonuniform List<vector> 
2500
(
(2.43433e-05 -2.4225e-05 0)
(6.5997e-05 -2.45951e-05 0)
(7.39233e-05 -6.35637e-06 0)
(2.22877e-05 1.61894e-05 0)
(-9.37495e-05 3.79182e-05 0)
(-0.000269651 5.69721e-05 0)
(-0.00049756 7.27263e-05 0)
(-0.000768641 8.5181e-05 0)
(-0.00107381 9.45442e-05 0)
(-0.00140427 0.000101075 0)
(-0.00175168 0.000105039 0)
(-0.00210832 0.000106691 0)
(-0.0024671 0.000106274 0)
(-0.00282157 0.000104013 0)
(-0.00316593 0.000100117 0)
(-0.00349499 9.47812e-05 0)
(-0.00380414 8.81837e-05 0)
(-0.00408932 8.04895e-05 0)
(-0.00434702 7.18488e-05 0)
(-0.00457418 6.24e-05 0)
(-0.00476823 5.22712e-05 0)
(-0.004927 4.15821e-05 0)
(-0.00504874 3.04451e-05 0)
(-0.0051321 1.89685e-05 0)
(-0.00517609 7.2592e-06 0)
(-0.00518013 -4.57572e-06 0)
(-0.005144 -1.64264e-05 0)
(-0.00506788 -2.81778e-05 0)
(-0.00495238 -3.97084e-05 0)
(-0.00479854 -5.08877e-05 0)
(-0.00460786 -6.15753e-05 0)
(-0.00438233 -7.16193e-05 0)
(-0.0041245 -8.08566e-05 0)
(-0.00383745 -8.91124e-05 0)
(-0.00352487 -9.62007e-05 0)
(-0.00319107 -0.000101925 0)
(-0.00284099 -0.00010608 0)
(-0.00248024 -0.000108451 0)
(-0.00211507 -0.000108819 0)
(-0.0017524 -0.000106959 0)
(-0.00139975 -0.000102644 0)
(-0.00106523 -9.56435e-05 0)
(-0.000757443 -8.5733e-05 0)
(-0.000485343 -7.27057e-05 0)
(-0.000257987 -5.64176e-05 0)
(-8.39756e-05 -3.69449e-05 0)
(2.91946e-05 -1.50137e-05 0)
(7.75986e-05 7.49786e-06 0)
(6.70611e-05 2.53342e-05 0)
(2.43213e-05 2.42707e-05 0)
(2.50464e-05 -6.60851e-05 0)
(3.8685e-05 -3.76706e-05 0)
(-4.72763e-05 5.81917e-05 0)
(-0.000269314 0.000174729 0)
(-0.000637215 0.000290854 0)
(-0.00114535 0.000396583 0)
(-0.00177921 0.000487296 0)
(-0.00251995 0.000561343 0)
(-0.00334684 0.00061854 0)
(-0.00423871 0.000659424 0)
(-0.00517486 0.000684906 0)
(-0.00613554 0.000696086 0)
(-0.00710227 0.000694147 0)
(-0.00805798 0.000680295 0)
(-0.00898712 0.00065572 0)
(-0.00987565 0.000621579 0)
(-0.010711 0.000578972 0)
(-0.0114821 0.000528942 0)
(-0.0121792 0.000472471 0)
(-0.0127939 0.000410479 0)
(-0.013319 0.000343833 0)
(-0.0137486 0.000273356 0)
(-0.0140777 0.000199831 0)
(-0.0143027 0.000124021 0)
(-0.0144209 4.66767e-05 0)
(-0.0144307 -3.14478e-05 0)
(-0.0143316 -0.000109583 0)
(-0.0141242 -0.000186932 0)
(-0.0138103 -0.000262657 0)
(-0.0133928 -0.000335874 0)
(-0.012876 -0.000405639 0)
(-0.0122655 -0.000470951 0)
(-0.0115683 -0.000530747 0)
(-0.010793 -0.000583905 0)
(-0.00994973 -0.000629248 0)
(-0.00905011 -0.000665558 0)
(-0.00810755 -0.000691589 0)
(-0.00713705 -0.000706086 0)
(-0.00615523 -0.000707806 0)
(-0.00518023 -0.000695558 0)
(-0.00423154 -0.000668238 0)
(-0.00332978 -0.0006249 0)
(-0.00249631 -0.000564852 0)
(-0.00175259 -0.000487837 0)
(-0.00111931 -0.000394371 0)
(-0.000614817 -0.000286475 0)
(-0.000252757 -0.000169169 0)
(-3.75186e-05 -5.26968e-05 0)
(4.2452e-05 4.15829e-05 0)
(2.56444e-05 6.70825e-05 0)
(7.57617e-06 -7.52596e-05 0)
(-5.47008e-05 4.73187e-05 0)
(-0.000289382 0.000293698 0)
(-0.000721291 0.000583905 0)
(-0.00135747 0.000875637 0)
(-0.0021906 0.00114536 0)
(-0.003202 0.0013805 0)
(-0.00436646 0.00157514 0)
(-0.00565536 0.00172724 0)
(-0.0070388 0.001837 0)
(-0.00848684 0.00190598 0)
(-0.0099705 0.00193647 0)
(-0.0114623 0.00193125 0)
(-0.0129365 0.00189327 0)
(-0.0143696 0.0018256 0)
(-0.0157401 0.00173125 0)
(-0.0170288 0.00161319 0)
(-0.0182185 0.00147426 0)
(-0.0192941 0.00131715 0)
(-0.0202426 0.00114443 0)
(-0.0210528 0.000958549 0)
(-0.0217154 0.000761827 0)
(-0.0222229 0.000556502 0)
(-0.0225695 0.000344754 0)
(-0.022751 0.000128733 0)
(-0.0227651 -8.94027e-05 0)
(-0.022611 -0.000307453 0)
(-0.0222897 -0.000523147 0)
(-0.0218041 -0.000734112 0)
(-0.0211589 -0.000937851 0)
(-0.0203607 -0.00113172 0)
(-0.0194185 -0.00131294 0)
(-0.018343 -0.00147857 0)
(-0.0171476 -0.00162551 0)
(-0.0158479 -0.00175058 0)
(-0.0144618 -0.00185049 0)
(-0.0130099 -0.00192192 0)
(-0.0115148 -0.0019616 0)
(-0.0100016 -0.00196635 0)
(-0.0084976 -0.00193324 0)
(-0.00703162 -0.00185973 0)
(-0.00563389 -0.00174389 0)
(-0.00433521 -0.00158474 0)
(-0.00316599 -0.00138276 0)
(-0.00215475 -0.00114081 0)
(-0.00132612 -0.000865684 0)
(-0.000697599 -0.000570818 0)
(-0.000274877 -0.000280459 0)
(-4.86874e-05 -3.73305e-05 0)
(8.69867e-06 7.88487e-05 0)
(-1.39636e-05 -2.68224e-05 0)
(-0.000168632 0.000266187 0)
(-0.000576701 0.00072466 0)
(-0.00123833 0.00124378 0)
(-0.00215156 0.00176272 0)
(-0.00330508 0.00224425 0)
(-0.00467579 0.00266666 0)
(-0.00623321 0.00301851 0)
(-0.00794276 0.00329489 0)
(-0.00976788 0.00349502 0)
(-0.0116716 0.00362077 0)
(-0.0136179 0.00367566 0)
(-0.0155719 0.00366422 0)
(-0.0175011 0.00359157 0)
(-0.0193755 0.00346312 0)
(-0.0211673 0.00328432 0)
(-0.0228518 0.0030606 0)
(-0.0244066 0.00279722 0)
(-0.0258121 0.00249922 0)
(-0.0270514 0.00217147 0)
(-0.0281099 0.00181859 0)
(-0.0289753 0.00144502 0)
(-0.0296379 0.00105504 0)
(-0.0300901 0.000652846 0)
(-0.0303264 0.000242568 0)
(-0.0303439 -0.000171642 0)
(-0.0301416 -0.00058556 0)
(-0.0297209 -0.00099483 0)
(-0.0290855 -0.00139492 0)
(-0.0282418 -0.00178107 0)
(-0.0271986 -0.00214828 0)
(-0.0259673 -0.00249127 0)
(-0.0245623 -0.00280453 0)
(-0.0230008 -0.00308228 0)
(-0.021303 -0.00331859 0)
(-0.0194923 -0.00350741 0)
(-0.0175949 -0.00364267 0)
(-0.01564 -0.00371846 0)
(-0.0136597 -0.00372918 0)
(-0.0116882 -0.00366979 0)
(-0.0097621 -0.00353612 0)
(-0.00791895 -0.00332534 0)
(-0.00619683 -0.00303656 0)
(-0.0046329 -0.00267178 0)
(-0.00326173 -0.00223731 0)
(-0.00211315 -0.00174611 0)
(-0.0012089 -0.00122133 0)
(-0.000558389 -0.000701455 0)
(-0.000160902 -0.000248078 0)
(-1.24851e-05 3.41185e-05 0)
(-3.48561e-05 8.45896e-05 0)
(-0.000284358 0.000631089 0)
(-0.000873001 0.00136244 0)
(-0.00177087 0.00215888 0)
(-0.00296283 0.00294571 0)
(-0.00443128 0.00367422 0)
(-0.0061476 0.00431414 0)
(-0.00807601 0.00484838 0)
(-0.0101766 0.00526875 0)
(-0.0124074 0.0055731 0)
(-0.0147257 0.00576337 0)
(-0.0170896 0.00584418 0)
(-0.0194587 0.00582194 0)
(-0.0217946 0.0057041 0)
(-0.024062 0.00549871 0)
(-0.0262282 0.00521407 0)
(-0.0282635 0.0048585 0)
(-0.0301415 0.00444015 0)
(-0.0318387 0.00396692 0)
(-0.0333348 0.00344644 0)
(-0.0346123 0.00288603 0)
(-0.0356567 0.00229272 0)
(-0.0364561 0.00167336 0)
(-0.0370014 0.00103462 0)
(-0.0372862 0.0003831 0)
(-0.0373067 -0.000274554 0)
(-0.0370621 -0.000931601 0)
(-0.0365539 -0.0015811 0)
(-0.0357867 -0.00221584 0)
(-0.0347682 -0.00282827 0)
(-0.0335089 -0.00341048 0)
(-0.0320226 -0.00395416 0)
(-0.0303265 -0.00445063 0)
(-0.0284412 -0.00489088 0)
(-0.0263908 -0.00526568 0)
(-0.0242029 -0.00556567 0)
(-0.0219089 -0.00578156 0)
(-0.0195431 -0.00590438 0)
(-0.0171433 -0.00592577 0)
(-0.0147497 -0.00583836 0)
(-0.0124048 -0.00563634 0)
(-0.0101523 -0.00531608 0)
(-0.00803628 -0.00487709 0)
(-0.00609942 -0.00432335 0)
(-0.00438174 -0.00366513 0)
(-0.00291835 -0.00292176 0)
(-0.00173638 -0.00212566 0)
(-0.000851292 -0.00132746 0)
(-0.000275062 -0.00060314 0)
(-3.30308e-05 -7.27286e-05 0)
(-5.36998e-05 0.000256123 0)
(-0.000394319 0.00114165 0)
(-0.00116093 0.0022087 0)
(-0.00229296 0.00333053 0)
(-0.00376014 0.00442325 0)
(-0.00553677 0.0054294 0)
(-0.00758753 0.00631166 0)
(-0.00987078 0.00704782 0)
(-0.0123413 0.00762658 0)
(-0.0149521 0.00804439 0)
(-0.0176554 0.0083032 0)
(-0.0204044 0.00840875 0)
(-0.0231538 0.00836937 0)
(-0.0258607 0.00819504 0)
(-0.0284851 0.00789671 0)
(-0.03099 0.00748582 0)
(-0.0333421 0.00697392 0)
(-0.0355112 0.00637246 0)
(-0.0374708 0.00569259 0)
(-0.0391976 0.00494512 0)
(-0.0406718 0.00414049 0)
(-0.0418767 0.00328876 0)
(-0.0427988 0.00239971 0)
(-0.0434278 0.00148295 0)
(-0.0437564 0.000547963 0)
(-0.0437803 -0.000395713 0)
(-0.0434983 -0.00133839 0)
(-0.0429125 -0.00227011 0)
(-0.042028 -0.00318054 0)
(-0.0408534 -0.00405889 0)
(-0.0394009 -0.00489387 0)
(-0.0376862 -0.00567367 0)
(-0.0357287 -0.00638596 0)
(-0.033552 -0.00701803 0)
(-0.0311834 -0.00755687 0)
(-0.0286541 -0.00798937 0)
(-0.0259996 -0.00830262 0)
(-0.0232587 -0.00848423 0)
(-0.0204739 -0.00852281 0)
(-0.0176904 -0.00840851 0)
(-0.0149559 -0.00813376 0)
(-0.0123193 -0.00769417 0)
(-0.00982992 -0.00708976 0)
(-0.00753574 -0.00632656 0)
(-0.0054822 -0.00541874 0)
(-0.00371029 -0.00439155 0)
(-0.00225379 -0.00328534 0)
(-0.00113599 -0.00216028 0)
(-0.000383531 -0.00110227 0)
(-5.15568e-05 -0.000238933 0)
(-7.02631e-05 0.000482863 0)
(-0.000496097 0.00179165 0)
(-0.00143363 0.00325808 0)
(-0.00279329 0.00475373 0)
(-0.00452931 0.00618943 0)
(-0.00660681 0.00750178 0)
(-0.00898276 0.00864809 0)
(-0.011609 0.00960213 0)
(-0.0144346 0.01035 0)
(-0.0174076 0.0108871 0)
(-0.0204755 0.0112156 0)
(-0.0235868 0.0113425 0)
(-0.0266921 0.0112781 0)
(-0.0297443 0.0110352 0)
(-0.0326996 0.0106278 0)
(-0.0355175 0.0100709 0)
(-0.0381613 0.00937949 0)
(-0.0405978 0.00856865 0)
(-0.0427979 0.00765313 0)
(-0.044736 0.00664728 0)
(-0.0463901 0.00556498 0)
(-0.0477419 0.00441968 0)
(-0.0487766 0.00322447 0)
(-0.0494826 0.00199219 0)
(-0.049852 0.000735571 0)
(-0.0498798 -0.000532604 0)
(-0.049565 -0.00179936 0)
(-0.0489095 -0.00305135 0)
(-0.0479191 -0.00427476 0)
(-0.0466033 -0.00545518 0)
(-0.0449753 -0.00657755 0)
(-0.0430524 -0.00762614 0)
(-0.0408561 -0.0085846 0)
(-0.0384121 -0.00943607 0)
(-0.0357505 -0.0101634 0)
(-0.0329057 -0.0107493 0)
(-0.0299164 -0.0111768 0)
(-0.0268255 -0.01143 0)
(-0.0236795 -0.011494 0)
(-0.0205281 -0.0113563 0)
(-0.0174235 -0.0110074 0)
(-0.0144195 -0.010442 0)
(-0.0115705 -0.00966064 0)
(-0.00892993 -0.00867101 0)
(-0.0065489 -0.00749072 0)
(-0.00447509 -0.00615005 0)
(-0.00274991 -0.00469568 0)
(-0.0014056 -0.00319471 0)
(-0.000483806 -0.00173927 0)
(-6.77805e-05 -0.000459493 0)
(-8.48672e-05 0.000760008 0)
(-0.000589936 0.00257318 0)
(-0.00169019 0.00450253 0)
(-0.0032696 0.00642093 0)
(-0.00526733 0.00823685 0)
(-0.00763885 0.00988328 0)
(-0.0103327 0.011314 0)
(-0.0132936 0.0125 0)
(-0.0164646 0.0134255 0)
(-0.0197882 0.0140856 0)
(-0.0232073 0.0144828 0)
(-0.0266661 0.0146257 0)
(-0.0301109 0.0145272 0)
(-0.0334912 0.0142028 0)
(-0.0367596 0.0136702 0)
(-0.0398726 0.0129477 0)
(-0.0427906 0.0120545 0)
(-0.0454779 0.0110093 0)
(-0.0479031 0.00983092 0)
(-0.0500387 0.00853746 0)
(-0.051861 0.00714658 0)
(-0.0533502 0.00567537 0)
(-0.0544904 0.00414051 0)
(-0.055269 0.00255838 0)
(-0.0556775 0.000945213 0)
(-0.0557105 -0.000682686 0)
(-0.0553666 -0.00230876 0)
(-0.0546481 -0.003916 0)
(-0.0535609 -0.0054868 0)
(-0.0521152 -0.00700282 0)
(-0.0503251 -0.00844489 0)
(-0.0482091 -0.00979302 0)
(-0.0457903 -0.0110265 0)
(-0.0430963 -0.0121239 0)
(-0.0401595 -0.0130635 0)
(-0.0370168 -0.0138237 0)
(-0.0337102 -0.0143831 0)
(-0.0302857 -0.0147215 0)
(-0.0267937 -0.0148206 0)
(-0.0232879 -0.0146649 0)
(-0.019825 -0.0142427 0)
(-0.0164636 -0.0135475 0)
(-0.0132632 -0.0125796 0)
(-0.010283 -0.0113484 0)
(-0.0075804 -0.00987399 0)
(-0.00521043 -0.0081906 0)
(-0.00322287 -0.00634964 0)
(-0.00165939 -0.00442301 0)
(-0.000576174 -0.00250637 0)
(-8.20206e-05 -0.000729619 0)
(-9.79699e-05 0.00108341 0)
(-0.000677216 0.00347879 0)
(-0.00193279 0.00593401 0)
(-0.00372475 0.00832468 0)
(-0.00597798 0.0105588 0)
(-0.00863819 0.0125676 0)
(-0.0116451 0.014303 0)
(-0.0149358 0.0157342 0)
(-0.0184466 0.0168449 0)
(-0.0221146 0.0176302 0)
(-0.0258775 0.0180938 0)
(-0.0296752 0.0182464 0)
(-0.0334501 0.0181036 0)
(-0.037148 0.0176842 0)
(-0.0407186 0.0170095 0)
(-0.0441154 0.0161021 0)
(-0.0472963 0.014985 0)
(-0.0502236 0.0136814 0)
(-0.0528638 0.0122141 0)
(-0.0551879 0.0106053 0)
(-0.0571706 0.00887664 0)
(-0.0587912 0.00704918 0)
(-0.0600325 0.00514338 0)
(-0.0608815 0.00317937 0)
(-0.0613286 0.00117709 0)
(-0.0613684 -0.000843403 0)
(-0.0609991 -0.00286176 0)
(-0.060223 -0.00485707 0)
(-0.0590462 -0.00680771 0)
(-0.0574793 -0.00869111 0)
(-0.0555369 -0.0104838 0)
(-0.0532387 -0.0121611 0)
(-0.0506088 -0.0136976 0)
(-0.0476765 -0.0150672 0)
(-0.044476 -0.0162431 0)
(-0.0410467 -0.0171988 0)
(-0.037433 -0.0179083 0)
(-0.0336842 -0.0183468 0)
(-0.0298542 -0.0184922 0)
(-0.0260007 -0.0183253 0)
(-0.0221848 -0.017832 0)
(-0.0184702 -0.0170041 0)
(-0.0149217 -0.0158415 0)
(-0.0116047 -0.014354 0)
(-0.00858357 -0.0125637 0)
(-0.00592119 -0.0105077 0)
(-0.00367621 -0.00824064 0)
(-0.00189988 -0.00583768 0)
(-0.000662136 -0.00339635 0)
(-9.47542e-05 -0.00104519 0)
(-0.000110024 0.00144991 0)
(-0.000759746 0.00450248 0)
(-0.00216513 0.00754599 0)
(-0.0041644 0.0104591 0)
(-0.00666904 0.0131505 0)
(-0.00961503 0.0155509 0)
(-0.0129331 0.0176116 0)
(-0.016552 0.0193016 0)
(-0.0204013 0.0206046 0)
(-0.0244119 0.0215167 0)
(-0.0285163 0.0220436 0)
(-0.0326497 0.0221985 0)
(-0.0367507 0.0220003 0)
(-0.0407616 0.0214716 0)
(-0.0446288 0.0206377 0)
(-0.0483035 0.0195257 0)
(-0.0517414 0.0181629 0)
(-0.0549026 0.016577 0)
(-0.0577523 0.0147953 0)
(-0.0602597 0.0128444 0)
(-0.0623987 0.01075 0)
(-0.0641474 0.00853736 0)
(-0.0654879 0.00623084 0)
(-0.0664064 0.00385451 0)
(-0.066893 0.00143222 0)
(-0.0669416 -0.0010121 0)
(-0.0665504 -0.00345415 0)
(-0.0657213 -0.00586893 0)
(-0.0644606 -0.0082306 0)
(-0.0627789 -0.0105122 0)
(-0.0606915 -0.0126855 0)
(-0.0582184 -0.0147212 0)
(-0.055385 -0.0165888 0)
(-0.0522215 -0.0182569 0)
(-0.0487639 -0.0196936 0)
(-0.0450536 -0.0208669 0)
(-0.0411375 -0.0217458 0)
(-0.0370679 -0.0223006 0)
(-0.032902 -0.0225045 0)
(-0.0287017 -0.0223346 0)
(-0.0245327 -0.0217735 0)
(-0.0204637 -0.0208108 0)
(-0.0165658 -0.0194453 0)
(-0.0129107 -0.0176867 0)
(-0.00957055 -0.015558 0)
(-0.00661651 -0.0130981 0)
(-0.00411646 -0.0103641 0)
(-0.00213123 -0.00743303 0)
(-0.000743666 -0.00440365 0)
(-0.000106462 -0.00140316 0)
(-0.000121445 0.00185743 0)
(-0.000839452 0.00564027 0)
(-0.00239158 0.00933429 0)
(-0.00459569 0.0128208 0)
(-0.00735052 0.0160097 0)
(-0.0105825 0.0188322 0)
(-0.0142129 0.02124 0)
(-0.0181622 0.0232025 0)
(-0.0223526 0.024705 0)
(-0.0267082 0.0257453 0)
(-0.0311562 0.0263318 0)
(-0.0356269 0.026481 0)
(-0.0400547 0.0262156 0)
(-0.0443783 0.0255625 0)
(-0.0485415 0.0245517 0)
(-0.0524927 0.0232148 0)
(-0.0561856 0.0215843 0)
(-0.0595788 0.0196925 0)
(-0.0626357 0.0175713 0)
(-0.0653246 0.0152519 0)
(-0.0676185 0.0127645 0)
(-0.0694945 0.0101385 0)
(-0.0709341 0.00740248 0)
(-0.071923 0.0045845 0)
(-0.0724506 0.00171238 0)
(-0.0725107 -0.00118595 0)
(-0.0721009 -0.00408209 0)
(-0.0712229 -0.00694691 0)
(-0.0698828 -0.00975014 0)
(-0.0680914 -0.0124603 0)
(-0.0658639 -0.0150443 0)
(-0.063221 -0.0174677 0)
(-0.0601882 -0.0196947 0)
(-0.0567972 -0.0216884 0)
(-0.0530852 -0.0234112 0)
(-0.0490953 -0.0248254 0)
(-0.0448768 -0.0258942 0)
(-0.0404849 -0.0265826 0)
(-0.0359803 -0.0268587 0)
(-0.031429 -0.026695 0)
(-0.0269016 -0.0260702 0)
(-0.0224725 -0.0249712 0)
(-0.0182191 -0.0233946 0)
(-0.0142205 -0.0213493 0)
(-0.0105567 -0.0188585 0)
(-0.00730804 -0.015962 0)
(-0.0045518 -0.0127183 0)
(-0.00235837 -0.00920611 0)
(-0.000822897 -0.005525 0)
(-0.00011759 -0.00180162 0)
(-0.000132605 0.00230493 0)
(-0.000918246 0.0068904 0)
(-0.00261673 0.0112975 0)
(-0.0050264 0.0154095 0)
(-0.00803361 0.0191376 0)
(-0.0115552 0.022414 0)
(-0.015503 0.0251915 0)
(-0.0197886 0.0274413 0)
(-0.0243263 0.0291507 0)
(-0.0290334 0.0303205 0)
(-0.033831 0.0309624 0)
(-0.0386444 0.0310972 0)
(-0.0434036 0.0307519 0)
(-0.048044 0.0299586 0)
(-0.052506 0.0287523 0)
(-0.0567359 0.02717 0)
(-0.0606853 0.0252491 0)
(-0.0643114 0.0230273 0)
(-0.0675764 0.0205414 0)
(-0.0704476 0.0178274 0)
(-0.0728971 0.01492 0)
(-0.0749014 0.0118531 0)
(-0.0764417 0.00865941 0)
(-0.0775029 0.00537109 0)
(-0.0780741 0.00202002 0)
(-0.0781487 -0.00136183 0)
(-0.0777237 -0.00474196 0)
(-0.0768007 -0.00808694 0)
(-0.0753853 -0.0113621 0)
(-0.073488 -0.0145311 0)
(-0.0711241 -0.017556 0)
(-0.0683141 -0.020397 0)
(-0.0650842 -0.0230127 0)
(-0.0614666 -0.0253601 0)
(-0.0574997 -0.0273957 0)
(-0.0532282 -0.0290754 0)
(-0.0487036 -0.0303564 0)
(-0.0439838 -0.0311974 0)
(-0.0391333 -0.0315607 0)
(-0.0342224 -0.0314136 0)
(-0.0293268 -0.0307302 0)
(-0.0245272 -0.0294935 0)
(-0.0199079 -0.0276974 0)
(-0.0155557 -0.0253491 0)
(-0.0115594 -0.0224711 0)
(-0.00800886 -0.0191034 0)
(-0.00499123 -0.0153054 0)
(-0.00258653 -0.0111573 0)
(-0.000901974 -0.00675964 0)
(-0.000128547 -0.00223987 0)
(-0.000143837 0.00279238 0)
(-0.000997972 0.00825343 0)
(-0.00284521 0.0134374 0)
(-0.00546453 0.0182285 0)
(-0.00872998 0.0225389 0)
(-0.0125486 0.0263024 0)
(-0.0168226 0.0294735 0)
(-0.0214542 0.0320259 0)
(-0.0263492 0.03395 0)
(-0.0314179 0.0352502 0)
(-0.0365748 0.035943 0)
(-0.0417398 0.0360539 0)
(-0.0468386 0.0356153 0)
(-0.0518025 0.034665 0)
(-0.0565694 0.0332438 0)
(-0.0610829 0.0313944 0)
(-0.0652931 0.02916 0)
(-0.0691554 0.0265836 0)
(-0.0726314 0.0237076 0)
(-0.0756874 0.0205727 0)
(-0.0782949 0.0172185 0)
(-0.0804302 0.0136832 0)
(-0.0820738 0.010004 0)
(-0.0832102 0.00621704 0)
(-0.0838284 0.00235827 0)
(-0.0839209 -0.0015363 0)
(-0.0834846 -0.00543006 0)
(-0.0825203 -0.0092853 0)
(-0.0810333 -0.0130628 0)
(-0.0790335 -0.0167215 0)
(-0.0765358 -0.0202182 0)
(-0.0735606 -0.0235076 0)
(-0.0701342 -0.0265423 0)
(-0.0662891 -0.0292731 0)
(-0.0620645 -0.0316498 0)
(-0.0575067 -0.0336217 0)
(-0.0526692 -0.0351387 0)
(-0.0476129 -0.0361531 0)
(-0.0424057 -0.0366203 0)
(-0.0371227 -0.0365016 0)
(-0.0318452 -0.0357656 0)
(-0.0266602 -0.0343904 0)
(-0.0216598 -0.0323664 0)
(-0.0169394 -0.0296979 0)
(-0.0125971 -0.0264061 0)
(-0.00873275 -0.0225306 0)
(-0.00544412 -0.0181316 0)
(-0.00282109 -0.0132903 0)
(-0.000983009 -0.00810944 0)
(-0.000139708 -0.00271831 0)
(-0.000155447 0.0033207 0)
(-0.00108039 0.00973214 0)
(-0.00308154 0.0157587 0)
(-0.00591806 0.0212844 0)
(-0.00945138 0.0262222 0)
(-0.0135785 0.0305075 0)
(-0.0181913 0.0340972 0)
(-0.0231822 0.0369681 0)
(-0.0284484 0.0391146 0)
(-0.0338921 0.0405462 0)
(-0.0394212 0.0412846 0)
(-0.0449498 0.0413611 0)
(-0.0503988 0.0408148 0)
(-0.0556959 0.0396896 0)
(-0.0607758 0.0380329 0)
(-0.0655801 0.0358938 0)
(-0.0700568 0.0333217 0)
(-0.0741605 0.0303657 0)
(-0.0778517 0.0270734 0)
(-0.0810964 0.0234911 0)
(-0.0838657 0.019663 0)
(-0.0861354 0.0156321 0)
(-0.0878857 0.0114395 0)
(-0.0891012 0.00712582 0)
(-0.0897701 0.00273081 0)
(-0.0898847 -0.00170553 0)
(-0.0894411 -0.00614251 0)
(-0.0884397 -0.0105382 0)
(-0.0868848 -0.0148489 0)
(-0.0847857 -0.0190286 0)
(-0.0821566 -0.0230289 0)
(-0.0790175 -0.0267987 0)
(-0.0753943 -0.0302843 0)
(-0.0713197 -0.0334299 0)
(-0.0668334 -0.0361782 0)
(-0.0619829 -0.0384709 0)
(-0.0568237 -0.0402504 0)
(-0.0514194 -0.0414611 0)
(-0.0458418 -0.0420511 0)
(-0.0401708 -0.0419744 0)
(-0.0344936 -0.0411929 0)
(-0.0289044 -0.0396791 0)
(-0.0235034 -0.0374185 0)
(-0.0183953 -0.0344121 0)
(-0.0136886 -0.0306786 0)
(-0.00949384 -0.0262569 0)
(-0.00591997 -0.0212073 0)
(-0.00306737 -0.015613 0)
(-0.00106806 -0.00957896 0)
(-0.000151421 -0.00323843 0)
(-0.000167713 0.00389169 0)
(-0.00116719 0.0113316 0)
(-0.00333013 0.0182693 0)
(-0.00639484 0.0245876 0)
(-0.0102095 0.0301999 0)
(-0.0146604 0.0350433 0)
(-0.0196285 0.0390774 0)
(-0.024996 0.0422832 0)
(-0.0306504 0.04466 0)
(-0.0364857 0.0462232 0)
(-0.0424027 0.0470009 0)
(-0.0483093 0.0470317 0)
(-0.0541215 0.0463616 0)
(-0.0597631 0.0450422 0)
(-0.0651658 0.0431281 0)
(-0.0702691 0.0406755 0)
(-0.0750194 0.0377406 0)
(-0.0793705 0.0343787 0)
(-0.0832821 0.0306436 0)
(-0.0867199 0.0265867 0)
(-0.089655 0.0222576 0)
(-0.0920631 0.0177034 0)
(-0.0939244 0.0129699 0)
(-0.095223 0.00810151 0)
(-0.095947 0.00314185 0)
(-0.0960881 -0.00186519 0)
(-0.0956419 -0.00687504 0)
(-0.0946078 -0.0118416 0)
(-0.0929892 -0.0167168 0)
(-0.0907945 -0.0214496 0)
(-0.0880368 -0.0259864 0)
(-0.0847352 -0.0302699 0)
(-0.080915 -0.0342402 0)
(-0.0766085 -0.0378341 0)
(-0.0718559 -0.0409867 0)
(-0.0667054 -0.0436315 0)
(-0.0612142 -0.0457024 0)
(-0.0554488 -0.0471352 0)
(-0.0494848 -0.0478692 0)
(-0.0434069 -0.0478502 0)
(-0.037309 -0.0470322 0)
(-0.0312928 -0.0453809 0)
(-0.0254674 -0.0428757 0)
(-0.0199477 -0.039513 0)
(-0.0148531 -0.0353086 0)
(-0.0103064 -0.0302999 0)
(-0.00642834 -0.0245475 0)
(-0.00333072 -0.0181365 0)
(-0.00115914 -0.0111754 0)
(-0.000164019 -0.00380281 0)
(-0.000180903 0.00450803 0)
(-0.00125999 0.0130589 0)
(-0.00359526 0.0209802 0)
(-0.00690254 0.0281522 0)
(-0.0110156 0.0344884 0)
(-0.0158095 0.0399276 0)
(-0.0211533 0.044433 0)
(-0.0269179 0.0479901 0)
(-0.0329809 0.0506046 0)
(-0.0392273 0.0522987 0)
(-0.04555 0.0531083 0)
(-0.0518509 0.0530801 0)
(-0.0580407 0.0522688 0)
(-0.0640393 0.0507341 0)
(-0.0697754 0.048539 0)
(-0.0751865 0.0457475 0)
(-0.0802178 0.0424233 0)
(-0.0848222 0.0386285 0)
(-0.0889593 0.034423 0)
(-0.0925948 0.0298641 0)
(-0.0956998 0.0250063 0)
(-0.0982503 0.0199015 0)
(-0.100226 0.0145995 0)
(-0.101613 0.00914853 0)
(-0.102396 0.00359606 0)
(-0.102569 -0.00201049 0)
(-0.102125 -0.0076228 0)
(-0.101064 -0.0131908 0)
(-0.0993866 -0.0186621 0)
(-0.0971008 -0.023981 0)
(-0.0942181 -0.0290882 0)
(-0.0907563 -0.0339205 0)
(-0.0867396 -0.038411 0)
(-0.0821996 -0.0424892 0)
(-0.0771762 -0.0460814 0)
(-0.0717182 -0.0491126 0)
(-0.0658844 -0.0515071 0)
(-0.0597437 -0.0531908 0)
(-0.0533755 -0.0540933 0)
(-0.0468699 -0.0541504 0)
(-0.0403274 -0.0533073 0)
(-0.0338579 -0.051521 0)
(-0.0275803 -0.0487639 0)
(-0.0216204 -0.0450267 0)
(-0.0161099 -0.0403211 0)
(-0.0111847 -0.0346824 0)
(-0.00697875 -0.0281717 0)
(-0.00361639 -0.020876 0)
(-0.00125823 -0.0129085 0)
(-0.000177822 -0.00441502 0)
(-0.000195268 0.00517321 0)
(-0.00136034 0.0149234 0)
(-0.00388106 0.0239053 0)
(-0.00744859 0.0319957 0)
(-0.011881 0.0391077 0)
(-0.0170406 0.0451821 0)
(-0.022784 0.0501861 0)
(-0.0289697 0.054111 0)
(-0.0354643 0.0569696 0)
(-0.0421434 0.0587925 0)
(-0.0488917 0.0596247 0)
(-0.0556043 0.0595225 0)
(-0.0621869 0.0585502 0)
(-0.0685551 0.0567771 0)
(-0.0746351 0.0542755 0)
(-0.0803624 0.051118 0)
(-0.0856814 0.0473764 0)
(-0.0905445 0.0431204 0)
(-0.0949114 0.0384163 0)
(-0.0987482 0.0333273 0)
(-0.102027 0.0279131 0)
(-0.104723 0.0222302 0)
(-0.106818 0.0163324 0)
(-0.108296 0.0102715 0)
(-0.109144 0.00409839 0)
(-0.109353 -0.00213608 0)
(-0.108918 -0.00838021 0)
(-0.107835 -0.0145803 0)
(-0.106106 -0.0206797 0)
(-0.103735 -0.0266181 0)
(-0.100732 -0.0323308 0)
(-0.0971139 -0.0377485 0)
(-0.0929028 -0.0427969 0)
(-0.0881291 -0.0473976 0)
(-0.0828318 -0.0514681 0)
(-0.0770599 -0.0549233 0)
(-0.0708733 -0.0576771 0)
(-0.064343 -0.0596443 0)
(-0.0575523 -0.0607433 0)
(-0.0505966 -0.0608986 0)
(-0.0435833 -0.0600446 0)
(-0.0366314 -0.0581283 0)
(-0.02987 -0.0551135 0)
(-0.0234372 -0.0509837 0)
(-0.0174781 -0.0457456 0)
(-0.012143 -0.039432 0)
(-0.00758071 -0.0321036 0)
(-0.00392967 -0.0238504 0)
(-0.00136731 -0.0147908 0)
(-0.000193148 -0.00507969 0)
(-0.000211057 0.00589151 0)
(-0.00146978 0.0169364 0)
(-0.0041916 0.0270615 0)
(-0.00804027 0.0361389 0)
(-0.0128163 0.0440814 0)
(-0.0183682 0.0508319 0)
(-0.0245381 0.0563622 0)
(-0.0311716 0.0606707 0)
(-0.0381233 0.0637786 0)
(-0.0452584 0.0657263 0)
(-0.0524531 0.0665695 0)
(-0.0595954 0.0663755 0)
(-0.0665856 0.0652198 0)
(-0.0733356 0.0631826 0)
(-0.0797689 0.0603465 0)
(-0.0858195 0.0567939 0)
(-0.0914312 0.0526055 0)
(-0.0965566 0.0478586 0)
(-0.101156 0.0426269 0)
(-0.105196 0.0369794 0)
(-0.10865 0.0309811 0)
(-0.111494 0.0246928 0)
(-0.113711 0.0181723 0)
(-0.115284 0.0114747 0)
(-0.116201 0.00465398 0)
(-0.116453 -0.00223612 0)
(-0.116033 -0.00914085 0)
(-0.114936 -0.0160032 0)
(-0.113162 -0.0227626 0)
(-0.110713 -0.0293545 0)
(-0.107598 -0.0357087 0)
(-0.10383 -0.0417497 0)
(-0.099429 -0.0473959 0)
(-0.0944237 -0.0525603 0)
(-0.0888518 -0.0571506 0)
(-0.0827617 -0.0610712 0)
(-0.0762136 -0.0642242 0)
(-0.0692805 -0.066512 0)
(-0.0620493 -0.0678399 0)
(-0.0546207 -0.0681197 0)
(-0.0471093 -0.0672729 0)
(-0.0396434 -0.0652347 0)
(-0.0323636 -0.0619585 0)
(-0.0254213 -0.057419 0)
(-0.0189763 -0.0516168 0)
(-0.0131953 -0.0445808 0)
(-0.0082437 -0.0363717 0)
(-0.00427581 -0.0270822 0)
(-0.00148836 -0.0168372 0)
(-0.000210315 -0.00580242 0)
(-0.000228515 0.006668 0)
(-0.00158982 0.0191112 0)
(-0.00453085 0.0304683 0)
(-0.00868466 0.0406061 0)
(-0.013832 0.0494366 0)
(-0.0198057 0.0569054 0)
(-0.0264323 0.0629898 0)
(-0.0335427 0.0676965 0)
(-0.0409786 0.0710567 0)
(-0.0485939 0.0731225 0)
(-0.0562559 0.0739619 0)
(-0.0638453 0.0736552 0)
(-0.0712569 0.0722906 0)
(-0.0783989 0.0699606 0)
(-0.0851927 0.0667594 0)
(-0.0915711 0.0627804 0)
(-0.097478 0.0581137 0)
(-0.102867 0.0528452 0)
(-0.107698 0.047056 0)
(-0.111941 0.0408213 0)
(-0.11557 0.0342113 0)
(-0.118563 0.0272911 0)
(-0.120902 0.020122 0)
(-0.122573 0.0127621 0)
(-0.123564 0.00526793 0)
(-0.123864 -0.0023043 0)
(-0.123466 -0.00989732 0)
(-0.122364 -0.0174513 0)
(-0.120554 -0.0249023 0)
(-0.118039 -0.0321816 0)
(-0.114821 -0.0392139 0)
(-0.110912 -0.0459174 0)
(-0.10633 -0.0522031 0)
(-0.101099 -0.0579748 0)
(-0.0952551 -0.0631302 0)
(-0.0888456 -0.0675616 0)
(-0.0819303 -0.0711584 0)
(-0.0745837 -0.0738087 0)
(-0.0668956 -0.0754034 0)
(-0.0589718 -0.075839 0)
(-0.0509346 -0.0750222 0)
(-0.042922 -0.0728744 0)
(-0.0350868 -0.069336 0)
(-0.027595 -0.0643715 0)
(-0.0206231 -0.0579732 0)
(-0.0143557 -0.0501658 0)
(-0.00897717 -0.0410087 0)
(-0.00466011 -0.0305979 0)
(-0.00162338 -0.0190656 0)
(-0.000229648 -0.00658989 0)
(-0.000247889 0.00750853 0)
(-0.00172195 0.0214631 0)
(-0.00490274 0.0341482 0)
(-0.00938868 0.0454247 0)
(-0.0149381 0.0552036 0)
(-0.0213662 0.0634338 0)
(-0.028482 0.0700996 0)
(-0.0361002 0.0752172 0)
(-0.0440482 0.0788301 0)
(-0.0521681 0.0810038 0)
(-0.0603174 0.081821 0)
(-0.0683695 0.0813766 0)
(-0.0762138 0.0797736 0)
(-0.0837551 0.0771185 0)
(-0.090913 0.0735187 0)
(-0.0976199 0.0690793 0)
(-0.10382 0.063901 0)
(-0.109469 0.0580789 0)
(-0.114529 0.0517018 0)
(-0.118971 0.0448512 0)
(-0.122771 0.0376025 0)
(-0.12591 0.0300249 0)
(-0.128371 0.0221827 0)
(-0.130141 0.0141366 0)
(-0.131209 0.00594505 0)
(-0.131563 -0.00233393 0)
(-0.131195 -0.0106412 0)
(-0.130097 -0.0189146 0)
(-0.128265 -0.0270876 0)
(-0.125695 -0.0350876 0)
(-0.122389 -0.0428347 0)
(-0.118353 -0.0502409 0)
(-0.113601 -0.0572094 0)
(-0.108155 -0.0636349 0)
(-0.102048 -0.0694039 0)
(-0.0953225 -0.074396 0)
(-0.0880389 -0.0784862 0)
(-0.0802718 -0.0815469 0)
(-0.0721134 -0.0834521 0)
(-0.0636745 -0.0840811 0)
(-0.0550847 -0.0833231 0)
(-0.0464924 -0.081083 0)
(-0.0380635 -0.0772859 0)
(-0.0299798 -0.0718833 0)
(-0.0224362 -0.0648579 0)
(-0.0156378 -0.0562281 0)
(-0.00979056 -0.0460516 0)
(-0.00508791 -0.0344276 0)
(-0.0017744 -0.0214962 0)
(-0.000251485 -0.00744979 0)
(-0.000269433 0.0084197 0)
(-0.00186769 0.0240091 0)
(-0.00531117 0.0381263 0)
(-0.0101591 0.0506249 0)
(-0.0161444 0.0614155 0)
(-0.023062 0.070451 0)
(-0.0307014 0.0777242 0)
(-0.0388591 0.0832629 0)
(-0.0473472 0.087125 0)
(-0.0559949 0.089392 0)
(-0.0646495 0.0901635 0)
(-0.0731768 0.0895518 0)
(-0.0814612 0.0876763 0)
(-0.0894045 0.0846599 0)
(-0.096925 0.0806243 0)
(-0.103956 0.0756878 0)
(-0.110443 0.0699627 0)
(-0.116343 0.0635539 0)
(-0.121622 0.0565581 0)
(-0.126254 0.0490634 0)
(-0.130218 0.0411501 0)
(-0.133496 0.0328912 0)
(-0.136076 0.0243536 0)
(-0.137944 0.0155998 0)
(-0.13909 0.00668957 0)
(-0.139504 -0.00231806 0)
(-0.139174 -0.0113628 0)
(-0.138093 -0.0203813 0)
(-0.136252 -0.0293047 0)
(-0.133644 -0.0380575 0)
(-0.130267 -0.0465554 0)
(-0.126124 -0.0547046 0)
(-0.121221 -0.0624006 0)
(-0.115577 -0.0695285 0)
(-0.10922 -0.0759631 0)
(-0.102189 -0.0815704 0)
(-0.0945424 -0.0862091 0)
(-0.0863536 -0.0897344 0)
(-0.0777166 -0.092001 0)
(-0.0687464 -0.0928681 0)
(-0.05958 -0.0922048 0)
(-0.0503762 -0.0898962 0)
(-0.041315 -0.0858492 0)
(-0.0325954 -0.0799994 0)
(-0.0244328 -0.0723172 0)
(-0.0170553 -0.0628129 0)
(-0.0106932 -0.0515416 0)
(-0.00556459 -0.038605 0)
(-0.0019435 -0.0241519 0)
(-0.000276175 -0.00839087 0)
(-0.00029341 0.00940895 0)
(-0.00202857 0.0267686 0)
(-0.00576006 0.0424302 0)
(-0.0110027 0.0562399 0)
(-0.0174601 0.0681079 0)
(-0.0249044 0.0779928 0)
(-0.0331029 0.0858972 0)
(-0.0418322 0.0918634 0)
(-0.0508872 0.0959663 0)
(-0.0600835 0.0983064 0)
(-0.0692576 0.0990031 0)
(-0.0782679 0.0981884 0)
(-0.086994 0.0960013 0)
(-0.0953355 0.0925824 0)
(-0.10321 0.08807 0)
(-0.110553 0.0825969 0)
(-0.117312 0.0762879 0)
(-0.123448 0.0692582 0)
(-0.128931 0.061613 0)
(-0.133738 0.0534469 0)
(-0.137852 0.0448449 0)
(-0.14126 0.0358832 0)
(-0.14395 0.0266308 0)
(-0.145913 0.0171512 0)
(-0.147138 0.00750467 0)
(-0.147615 -0.00224975 0)
(-0.147334 -0.0120517 0)
(-0.146282 -0.0218373 0)
(-0.144449 -0.0315366 0)
(-0.141824 -0.0410717 0)
(-0.1384 -0.0503549 0)
(-0.134173 -0.0592868 0)
(-0.129145 -0.0677556 0)
(-0.123328 -0.0756365 0)
(-0.116743 -0.082792 0)
(-0.109425 -0.0890733 0)
(-0.101429 -0.0943218 0)
(-0.0928251 -0.0983728 0)
(-0.0837082 -0.10106 0)
(-0.0741967 -0.102218 0)
(-0.0644342 -0.101694 0)
(-0.0545902 -0.0993486 0)
(-0.0448594 -0.0950673 0)
(-0.0354597 -0.0887663 0)
(-0.0266288 -0.0804004 0)
(-0.018621 -0.0699693 0)
(-0.0116945 -0.0575236 0)
(-0.00609557 -0.0431674 0)
(-0.00213283 -0.0270584 0)
(-0.000304086 -0.009423 0)
(-0.000320097 0.0104845 0)
(-0.00220618 0.0297625 0)
(-0.00625336 0.0470902 0)
(-0.0119259 0.0623054 0)
(-0.0188942 0.0753189 0)
(-0.026904 0.086096 0)
(-0.0356976 0.0946525 0)
(-0.0450292 0.101048 0)
(-0.0546754 0.105377 0)
(-0.0644369 0.107763 0)
(-0.0741393 0.108348 0)
(-0.0836337 0.107288 0)
(-0.0927955 0.104744 0)
(-0.101523 0.100876 0)
(-0.109735 0.0958419 0)
(-0.117369 0.0897896 0)
(-0.124377 0.0828577 0)
(-0.130725 0.0751725 0)
(-0.136387 0.0668477 0)
(-0.141346 0.0579844 0)
(-0.145591 0.048672 0)
(-0.149111 0.0389894 0)
(-0.1519 0.0290067 0)
(-0.15395 0.0187878 0)
(-0.155252 0.0083921 0)