/*--------------------------------*- C++ -*----------------------------------*\
  =========                 |
  \\      /  F ield         | OpenFOAM: The Open Source CFD Toolbox
   \\    /   O peration     | Website:  https://openfoam.org
    \\  /    A nd           | Version:  7
     \\/     M anipulation  |
\*---------------------------------------------------------------------------*/
FoamFile
{
    version     2.0;
    format      ascii;
    class       volVectorField;
    location    "0.0004";
    object      U;
}
// * * * * * * * * * * * * * * * * * * * * * * * * * * * * * * * * * * * * * //

dimensions      [0 1 -1 0 0 0 0];

internalField   nonuniform List<vector> 
2500
(
(-0.284275 0.144055 0)
(-0.353566 0.10397 0)
(-0.47898 0.0509932 0)
(-0.550649 0.0248489 0)
(-0.585167 0.0130511 0)
(-0.604572 0.00750948 0)
(-0.616929 0.00475188 0)
(-0.625368 0.0032643 0)
(-0.631473 0.00238539 0)
(-0.636096 0.00182157 0)
(-0.639714 0.00143506 0)
(-0.642614 0.00115647 0)
(-0.644979 0.000947189 0)
(-0.646933 0.000784552 0)
(-0.64856 0.000654473 0)
(-0.649923 0.000547884 0)
(-0.651066 0.000458603 0)
(-0.652021 0.000382231 0)
(-0.652815 0.00031557 0)
(-0.653467 0.000256243 0)
(-0.65399 0.000202433 0)
(-0.654396 0.000152767 0)
(-0.654692 0.000106074 0)
(-0.654885 6.13552e-05 0)
(-0.654977 1.77415e-05 0)
(-0.65497 -2.55423e-05 0)
(-0.654865 -6.92441e-05 0)
(-0.654659 -0.000114173 0)
(-0.654348 -0.000161252 0)
(-0.653928 -0.000211529 0)
(-0.653388 -0.00026621 0)
(-0.652719 -0.000326706 0)
(-0.651905 -0.000394914 0)
(-0.650926 -0.000473339 0)
(-0.649756 -0.00056531 0)
(-0.648362 -0.000675365 0)
(-0.646696 -0.000810017 0)
(-0.644695 -0.000979006 0)
(-0.642271 -0.00119725 0)
(-0.639297 -0.00148848 0)
(-0.635581 -0.00189371 0)
(-0.63083 -0.00248676 0)
(-0.624549 -0.00341347 0)
(-0.615866 -0.00498238 0)
(-0.603175 -0.00788193 0)
(-0.583337 -0.0136557 0)
(-0.548197 -0.0257568 0)
(-0.475813 -0.0521072 0)
(-0.350934 -0.104654 0)
(-0.282378 -0.14401 0)
(0.00391018 0.262207 0)
(0.0304444 0.219428 0)
(-0.026556 0.126978 0)
(-0.0782577 0.071606 0)
(-0.114066 0.0422163 0)
(-0.139266 0.0265131 0)
(-0.157388 0.0178083 0)
(-0.1707 0.0126871 0)
(-0.180756 0.00946652 0)
(-0.188565 0.0073157 0)
(-0.194767 0.00580419 0)
(-0.199785 0.00469783 0)
(-0.203904 0.00385846 0)
(-0.207321 0.00320225 0)
(-0.210177 0.00267543 0)
(-0.212574 0.0022425 0)
(-0.214588 0.001879 0)
(-0.216275 0.00156747 0)
(-0.217679 0.00129521 0)
(-0.218832 0.00105274 0)
(-0.219759 0.000832738 0)
(-0.220479 0.000629599 0)
(-0.221006 0.00043856 0)
(-0.22135 0.000255618 0)
(-0.221516 7.72934e-05 0)
(-0.221508 -9.95928e-05 0)
(-0.221326 -0.000278169 0)
(-0.220965 -0.000461746 0)
(-0.220421 -0.000653957 0)
(-0.219682 -0.000858896 0)
(-0.218735 -0.00108136 0)
(-0.21756 -0.0013271 0)
(-0.216131 -0.00160367 0)
(-0.214415 -0.00192087 0)
(-0.212369 -0.00229173 0)
(-0.209933 -0.00273412 0)
(-0.207032 -0.00327329 0)
(-0.20356 -0.00394612 0)
(-0.199375 -0.00480809 0)
(-0.194274 -0.00594521 0)
(-0.187967 -0.00749988 0)
(-0.180028 -0.0097118 0)
(-0.169808 -0.0130197 0)
(-0.156296 -0.0182629 0)
(-0.137951 -0.0271233 0)
(-0.112554 -0.0429561 0)
(-0.076621 -0.0722127 0)
(-0.0248487 -0.126793 0)
(0.0319354 -0.217877 0)
(0.00579736 -0.259787 0)
(0.0343744 0.194739 0)
(0.0859186 0.211391 0)
(0.0892373 0.152241 0)
(0.0735195 0.10131 0)
(0.0543191 0.067447 0)
(0.0367191 0.0462564 0)
(0.0220107 0.0329871 0)
(0.010101 0.0244243 0)
(0.000502523 0.0186743 0)
(-0.00728025 0.014659 0)
(-0.0136472 0.0117524 0)
(-0.0189057 0.00957934 0)
(-0.0232875 0.00790706 0)
(-0.0269631 0.00658619 0)
(-0.030061 0.00551794 0)
(-0.0326779 0.00463506 0)
(-0.0348874 0.00389036 0)
(-0.0367462 0.00324987 0)
(-0.0382977 0.00268856 0)
(-0.0395757 0.0021876 0)
(-0.0406057 0.00173244 0)
(-0.0414074 0.00131153 0)
(-0.0419956 0.000915325 0)
(-0.0423806 0.000535754 0)
(-0.0425689 0.000165704 0)
(-0.0425636 -0.000201372 0)
(-0.0423645 -0.000571894 0)
(-0.0419683 -0.000952566 0)
(-0.0413684 -0.00135068 0)
(-0.0405543 -0.00177444 0)
(-0.039511 -0.00223343 0)
(-0.0382186 -0.00273942 0)
(-0.036651 -0.0033073 0)
(-0.0347744 -0.00395634 0)
(-0.0325449 -0.00471203 0)
(-0.0299053 -0.00560893 0)
(-0.0267814 -0.00669528 0)
(-0.0230761 -0.0080399 0)
(-0.0186602 -0.00974347 0)
(-0.0133635 -0.0119577 0)
(-0.00695473 -0.0149187 0)
(0.000870851 -0.0190058 0)
(0.0105052 -0.0248475 0)
(0.022428 -0.0335183 0)
(0.0370951 -0.0468881 0)
(0.0545504 -0.0680893 0)
(0.0734764 -0.101673 0)
(0.0888381 -0.151747 0)
(0.0851537 -0.209443 0)
(0.0342192 -0.191658 0)
(0.0246494 0.129753 0)
(0.0677751 0.174102 0)
(0.0901946 0.146378 0)
(0.0937594 0.109671 0)
(0.0880122 0.0801188 0)
(0.0791116 0.0589989 0)
(0.0698375 0.0443202 0)
(0.0612724 0.0340494 0)
(0.0537419 0.0267205 0)
(0.0472571 0.0213663 0)
(0.0417178 0.0173595 0)
(0.0369954 0.0142874 0)
(0.032967 0.0118785 0)
(0.0295267 0.0099483 0)
(0.0265871 0.00836996 0)
(0.0240773 0.00705403 0)
(0.02194 0.0059362 0)
(0.0201299 0.00496933 0)
(0.0186108 0.00411815 0)
(0.0173542 0.00335571 0)
(0.0163376 0.00266107 0)
(0.0155439 0.00201716 0)
(0.01496 0.00141005 0)
(0.0145764 0.000827805 0)
(0.0143874 0.000259857 0)
(0.0143901 -0.000303587 0)
(0.0145846 -0.000872139 0)
(0.0149739 -0.00145576 0)
(0.0155638 -0.00206522 0)
(0.0163636 -0.00271252 0)
(0.0173867 -0.00341168 0)
(0.0186502 -0.00417995 0)
(0.0201764 -0.0050387 0)
(0.021994 -0.00601527 0)
(0.0241389 -0.00714535 0)
(0.0266565 -0.0084767 0)
(0.0296034 -0.0100745 0)
(0.0330498 -0.0120294 0)
(0.0370822 -0.0144696 0)
(0.0418037 -0.0175811 0)
(0.0473332 -0.0216366 0)
(0.0537922 -0.0270495 0)
(0.0612694 -0.0344442 0)
(0.069736 -0.0447759 0)
(0.0788419 -0.0594795 0)
(0.0874834 -0.0805182 0)
(0.0929041 -0.10976 0)
(0.0890574 -0.145804 0)
(0.066608 -0.172602 0)
(0.0241971 -0.127957 0)
(0.0146114 0.0923367 0)
(0.0446425 0.140448 0)
(0.0680931 0.130467 0)
(0.0787756 0.106347 0)
(0.0806226 0.0834135 0)
(0.0779517 0.0650729 0)
(0.0733017 0.0511342 0)
(0.0680228 0.0406588 0)
(0.0627922 0.0327498 0)
(0.0579163 0.0267092 0)
(0.0535101 0.0220273 0)
(0.0495947 0.018338 0)
(0.0461485 0.0153814 0)
(0.0431341 0.0129711 0)
(0.0405098 0.0109725 0)
(0.0382359 0.00928727 0)
(0.0362769 0.00784251 0)
(0.0346021 0.00658341 0)
(0.0331861 0.00546811 0)
(0.0320078 0.0044641 0)
(0.03105 0.00354558 0)
(0.0302992 0.00269148 0)
(0.029745 0.00188428 0)
(0.0293799 0.00110889 0)
(0.0291991 0.00035188 0)
(0.0292003 -0.000399299 0)
(0.0293834 -0.00115697 0)
(0.0297509 -0.00193384 0)
(0.0303074 -0.0027435 0)
(0.0310606 -0.00360109 0)
(0.0320207 -0.00452418 0)
(0.0332012 -0.00553404 0)
(0.0346188 -0.00665683 0)
(0.0362946 -0.00792535 0)
(0.0382538 -0.00938173 0)
(0.0405263 -0.0110813 0)
(0.0431469 -0.0130974 0)
(0.0461539 -0.0155291 0)
(0.0495872 -0.0185113 0)
(0.0534814 -0.0222306 0)
(0.0578533 -0.0269466 0)
(0.0626756 -0.0330224 0)
(0.0678245 -0.0409615 0)
(0.0729834 -0.0514473 0)
(0.0774663 -0.0653484 0)
(0.0799279 -0.0835549 0)
(0.077873 -0.106196 0)
(0.0670919 -0.129848 0)
(0.043805 -0.13935 0)
(0.0143095 -0.0913463 0)
(0.00857843 0.0705064 0)
(0.028783 0.114834 0)
(0.0484173 0.113803 0)
(0.0604405 0.0985861 0)
(0.0657347 0.0816558 0)
(0.0667668 0.0667273 0)
(0.0653573 0.0544744 0)
(0.0626806 0.0446681 0)
(0.059455 0.0368725 0)
(0.0560951 0.030662 0)
(0.0528275 0.0256792 0)
(0.0497675 0.0216408 0)
(0.0469672 0.0183287 0)
(0.0444433 0.0155769 0)
(0.0421943 0.0132591 0)
(0.0402094 0.0112792 0)
(0.0384741 0.00956337 0)
(0.0369732 0.00805451 0)
(0.0356921 0.006708 0)
(0.0346181 0.00548838 0)
(0.0337399 0.00436699 0)
(0.0330481 0.00332012 0)
(0.0325356 0.00232777 0)
(0.032197 0.00137261 0)
(0.0320287 0.000438997 0)
(0.0320291 -0.000487743 0)
(0.0321981 -0.00142204 0)
(0.0325372 -0.00237865 0)
(0.0330501 -0.00337334 0)
(0.0337421 -0.0044235 0)
(0.0346205 -0.00554917 0)
(0.035694 -0.00677419 0)
(0.0369736 -0.00812746 0)
(0.0384722 -0.00964464 0)
(0.0402036 -0.0113705 0)
(0.0421825 -0.0133624 0)
(0.0444223 -0.0156943 0)
(0.0469327 -0.0184624 0)
(0.0497135 -0.0217926 0)
(0.0527452 -0.0258503 0)
(0.0559726 -0.0308517 0)
(0.0592763 -0.0370762 0)
(0.0624254 -0.0448739 0)
(0.0650022 -0.0546581 0)
(0.0662905 -0.066844 0)
(0.0651313 -0.081634 0)
(0.0597445 -0.098333 0)
(0.047735 -0.11325 0)
(0.0282923 -0.114057 0)
(0.00841942 -0.0699245 0)
(0.0053389 0.056789 0)
(0.019247 0.0960102 0)
(0.0347083 0.099235 0)
(0.0458457 0.0898076 0)
(0.0522723 0.0775348 0)
(0.0552247 0.0657524 0)
(0.055853 0.0554192 0)
(0.0550299 0.0466793 0)
(0.0533711 0.0394007 0)
(0.0512855 0.0333705 0)
(0.0490332 0.0283698 0)
(0.0467741 0.0242029 0)
(0.0446029 0.0207047 0)
(0.0425733 0.0177405 0)
(0.040713 0.0152021 0)
(0.0390344 0.013003 0)
(0.0375409 0.0110743 0)
(0.0362308 0.00936137 0)
(0.0351001 0.00781981 0)
(0.0341436 0.00641371 0)
(0.0333558 0.00511339 0)
(0.0327318 0.00389394 0)
(0.0322675 0.00273401 0)
(0.0319598 0.00161488 0)
(0.0318064 0.000519484 0)
(0.0318063 -0.000568338 0)
(0.0319594 -0.00166443 0)
(0.0322665 -0.00278492 0)
(0.03273 -0.00394693 0)
(0.0333531 -0.0051693 0)
(0.0341396 -0.00647342 0)
(0.0350941 -0.00788424 0)
(0.0362217 -0.00943155 0)
(0.0375275 -0.0111514 0)
(0.0390151 -0.0130881 0)
(0.0406854 -0.0152965 0)
(0.0425343 -0.0178452 0)
(0.0445485 -0.0208205 0)
(0.0466986 -0.0243298 0)
(0.0489294 -0.0285067 0)
(0.0511442 -0.0335139 0)
(0.0531812 -0.0395434 0)
(0.0547793 -0.0468076 0)
(0.0555308 -0.0555106 0)
(0.0548264 -0.0657722 0)
(0.051809 -0.0774365 0)
(0.0453575 -0.0895432 0)
(0.0342751 -0.0987898 0)
(0.0189713 -0.0954691 0)
(0.00525829 -0.0564281 0)
(0.00358263 0.0476037 0)
(0.0135477 0.0821224 0)
(0.0255937 0.0872172 0)
(0.0352218 0.0814268 0)
(0.0416563 0.0725428 0)
(0.0454382 0.0633575 0)
(0.0472345 0.05483 0)
(0.0476379 0.0472606 0)
(0.0471214 0.0406889 0)
(0.0460354 0.035045 0)
(0.0446274 0.0302175 0)
(0.0430669 0.0260863 0)
(0.0414668 0.0225376 0)
(0.0399006 0.0194707 0)
(0.0384149 0.0167993 0)
(0.0370385 0.014451 0)
(0.0357881 0.0123658 0)
(0.0346732 0.0104938 0)
(0.0336982 0.00879391 0)
(0.0328646 0.00723153 0)
(0.0321724 0.00577761 0)
(0.0316206 0.00440729 0)
(0.031208 0.00309891 0)
(0.0309335 0.00183319 0)
(0.0307963 0.000592352 0)
(0.0307958 -0.000640525 0)
(0.030932 -0.00188204 0)
(0.0312052 -0.003149 0)
(0.0316162 -0.00445915 0)
(0.0321662 -0.00583192 0)
(0.0328563 -0.00728905 0)
(0.0336868 -0.00885538 0)
(0.0346577 -0.01056 0)
(0.0357673 -0.0124373 0)
(0.0370107 -0.0145286 0)
(0.0383781 -0.0168835 0)
(0.0398517 -0.0195617 0)
(0.0414024 -0.0226351 0)
(0.0429826 -0.0261893 0)
(0.0445176 -0.0303235 0)
(0.0458938 -0.0351493 0)
(0.0469413 -0.0407836 0)
(0.0474133 -0.0473333 0)
(0.0469627 -0.0548623 0)
(0.0451228 -0.0633253 0)
(0.0413135 -0.072418 0)
(0.0348855 -0.0811876 0)
(0.0253177 -0.0868704 0)
(0.0133874 -0.0817395 0)
(0.00353949 -0.0473645 0)
(0.00256726 0.0410726 0)
(0.00999411 0.0716527 0)
(0.0194553 0.0774584 0)
(0.0275694 0.0739399 0)
(0.0335324 0.0674578 0)
(0.0375285 0.0603058 0)
(0.0399173 0.0533345 0)
(0.0410771 0.0468813 0)
(0.0413477 0.0410675 0)
(0.0410062 0.0359089 0)
(0.0402659 0.0313681 0)
(0.039285 0.0273831 0)
(0.0381777 0.0238836 0)
(0.037025 0.0208002 0)
(0.0358829 0.0180687 0)
(0.0347902 0.015632 0)
(0.0337728 0.0134406 0)
(0.0328478 0.0114517 0)
(0.0320265 0.00962836 0)
(0.0313158 0.0079392 0)
(0.03072 0.00635696 0)
(0.0302414 0.00485781 0)
(0.0298816 0.00342065 0)
(0.0296413 0.00202636 0)
(0.0295207 0.000657167 0)
(0.0295199 -0.00070397 0)
(0.0296388 -0.00207378 0)
(0.0298774 -0.00346914 0)
(0.030235 -0.00490778 0)
(0.0307111 -0.00640892 0)
(0.0313041 -0.00799378 0)
(0.0320112 -0.00968608 0)
(0.0328278 -0.0115129 0)
(0.0337468 -0.0135059 0)
(0.034757 -0.0157016 0)
(0.0358405 -0.0181425 0)
(0.036971 -0.0208778 0)
(0.0381092 -0.0239642 0)
(0.0391987 -0.0274649 0)
(0.040158 -0.0314482 0)
(0.0408728 -0.0359822 0)
(0.0411853 -0.0411268 0)
(0.0408838 -0.0469163 0)
(0.0396943 -0.0533317 0)
(0.0372829 -0.0602489 0)
(0.0332796 -0.0673312 0)
(0.0273352 -0.0737355 0)
(0.019274 -0.0771894 0)
(0.00989521 -0.0713735 0)
(0.00254208 -0.0409037 0)
(0.00193304 0.0361915 0)
(0.00765471 0.0635573 0)
(0.0151911 0.0695278 0)
(0.0219795 0.0674406 0)
(0.0273087 0.0626489 0)
(0.0311952 0.0570488 0)
(0.0338164 0.0513586 0)
(0.0354016 0.0458964 0)
(0.0361841 0.0408119 0)
(0.0363717 0.036166 0)
(0.0361373 0.0319674 0)
(0.035618 0.028195 0)
(0.0349193 0.024812 0)
(0.0341211 0.0217752 0)
(0.0332821 0.0190404 0)
(0.0324457 0.0165653 0)
(0.0316429 0.0143108 0)
(0.0308961 0.0122418 0)
(0.0302209 0.010327 0)
(0.0296284 0.00853868 0)
(0.0291261 0.00685223 0)
(0.0287194 0.00524569 0)
(0.0284116 0.00369912 0)
(0.0282051 0.00219425 0)
(0.028101 0.000713871 0)
(0.0280999 -0.000758603 0)
(0.0282018 -0.0022395 0)
(0.0284062 -0.00374525 0)
(0.0287114 -0.005293 0)
(0.0291152 -0.00690114 0)
(0.0296141 -0.00858963 0)
(0.0302026 -0.0103803 0)
(0.0308729 -0.0122977 0)
(0.0316136 -0.0143694 0)
(0.0324091 -0.0166266 0)
(0.0332368 -0.0191041 0)
(0.0340651 -0.0218405 0)
(0.0348503 -0.0248775 0)
(0.0355335 -0.0282587 0)
(0.0360354 -0.0320265 0)
(0.0362502 -0.0362158 0)
(0.0360414 -0.0408462 0)
(0.0352382 -0.0459071 0)
(0.0336354 -0.0513362 0)
(0.0310043 -0.0569831 0)
(0.0271207 -0.0625315 0)
(0.0218129 -0.06727 0)
(0.0150676 -0.0693177 0)
(0.00758997 -0.0633479 0)
(0.00191704 -0.0360666 0)
(0.00150829 0.0324069 0)
(0.00603347 0.0571533 0)
(0.0121256 0.0630377 0)
(0.0178075 0.0618651 0)
(0.022486 0.0582675 0)
(0.0261068 0.0538394 0)
(0.0287447 0.0491777 0)
(0.030532 0.0445604 0)
(0.0316229 0.0401374 0)
(0.032168 0.0359882 0)
(0.0323012 0.0321475 0)
(0.0321359 0.0286206 0)
(0.0317642 0.0253949 0)
(0.0312597 0.0224478 0)
(0.0306793 0.0197515 0)
(0.0300669 0.0172767 0)
(0.0294555 0.0149942 0)
(0.0288702 0.0128765 0)
(0.0283296 0.0108981 0)
(0.0278472 0.00903533 0)
(0.0274332 0.00726688 0)
(0.0270945 0.00557301 0)
(0.0268364 0.00393552 0)
(0.0266623 0.00233741 0)
(0.0265741 0.000762541 0)
(0.0265727 -0.000804777 0)
(0.0266584 -0.00238004 0)
(0.0268301 -0.0039788 0)
(0.0270853 -0.00561719 0)
(0.0274207 -0.00731226 0)
(0.0278311 -0.00908221 0)
(0.0283093 -0.0109466 0)
(0.0288449 -0.0129267 0)
(0.0294242 -0.015046 0)
(0.0300285 -0.0173299 0)
(0.0306329 -0.0198056 0)
(0.0312038 -0.0225019 0)
(0.0316972 -0.0254474 0)
(0.0320559 -0.0286695 0)
(0.0322072 -0.0321899 0)
(0.0320591 -0.0360206 0)
(0.0314993 -0.0401545 0)
(0.0303952 -0.0445563 0)
(0.0285983 -0.0491456 0)
(0.0259576 -0.0537733 0)
(0.0223442 -0.0581633 0)
(0.0176862 -0.0617242 0)
(0.0120385 -0.062872 0)
(0.00598894 -0.0569926 0)
(0.0014974 -0.0323116 0)
(0.00120714 0.0293935 0)
(0.00485907 0.0519906 0)
(0.00984882 0.0576803 0)
(0.0146212 0.0571016 0)
(0.0186919 0.0543551 0)
(0.0219831 0.0508103 0)
(0.0245146 0.0469638 0)
(0.0263581 0.0430501 0)
(0.0276122 0.0392057 0)
(0.0283828 0.0355138 0)
(0.0287707 0.0320212 0)
(0.0288664 0.0287492 0)
(0.0287476 0.0257016 0)
(0.0284787 0.0228706 0)
(0.0281121 0.0202413 0)
(0.0276895 0.0177952 0)
(0.0272438 0.0155121 0)
(0.026801 0.0133712 0)
(0.0263807 0.0113526 0)
(0.0259982 0.00943704 0)
(0.0256649 0.00760635 0)
(0.0253891 0.00584344 0)
(0.0251771 0.00413213 0)
(0.0250332 0.00245705 0)
(0.0249599 0.000803451 0)
(0.0249584 -0.00084311 0)
(0.0250289 -0.00249696 0)
(0.0251701 -0.00417248 0)
(0.025379 -0.00588441 0)
(0.0256513 -0.00764817 0)
(0.0259808 -0.00947987 0)
(0.0263592 -0.0113965 0)
(0.0267745 -0.013416 0)
(0.0272115 -0.0155576 0)
(0.0276506 -0.0178411 0)
(0.0280659 -0.0202869 0)
(0.0284243 -0.0229149 0)
(0.0286838 -0.0257433 0)
(0.0287921 -0.0287864 0)
(0.0286853 -0.032051 0)
(0.0282865 -0.0355333 0)
(0.027506 -0.0392111 0)
(0.0262438 -0.0430371 0)
(0.0243959 -0.046928 0)
(0.0218655 -0.050748 0)
(0.0185832 -0.0542647 0)
(0.0145307 -0.0569855 0)
(0.0097854 -0.0575484 0)
(0.00482724 -0.0518648 0)
(0.00119939 -0.0293189 0)
(0.000983745 0.0269473 0)
(0.00397604 0.0477657 0)
(0.00810694 0.0532213 0)
(0.0121318 0.0530343 0)
(0.0156572 0.0509018 0)
(0.0186036 0.0480244 0)
(0.020963 0.0448204 0)
(0.0227702 0.0414842 0)
(0.0240861 0.0381345 0)
(0.0249835 0.0348499 0)
(0.0255368 0.0316813 0)
(0.0258164 0.0286583 0)
(0.0258858 0.0257948 0)
(0.0257996 0.0230933 0)
(0.0256042 0.0205487 0)
(0.0253378 0.018151 0)
(0.0250316 0.0158874 0)
(0.024711 0.0137432 0)
(0.0243956 0.0117036 0)
(0.0241012 0.00975338 0)
(0.0238398 0.00787757 0)
(0.0236205 0.00606182 0)
(0.0234502 0.00429214 0)
(0.0233338 0.00255498 0)
(0.0232741 0.000837185 0)
(0.0232725 -0.000874208 0)
(0.0233292 -0.00259214 0)
(0.0234428 -0.00432958 0)
(0.0236098 -0.00609965 0)
(0.0238254 -0.0079159 0)
(0.024083 -0.00979228 0)
(0.0243733 -0.0117431 0)
(0.024684 -0.013783 0)
(0.0249993 -0.0159271 0)
(0.0252994 -0.0181903 0)
(0.0255592 -0.0205869 0)
(0.0257475 -0.0231295 0)
(0.0258259 -0.0258277 0)
(0.0257483 -0.028686 0)
(0.0254603 -0.0317019 0)
(0.0248991 -0.0348606 0)
(0.023995 -0.0381325 0)
(0.0226746 -0.0414666 0)
(0.0208662 -0.0447843 0)
(0.01851 -0.0479678 0)
(0.0155727 -0.0508242 0)
(0.0120628 -0.0529385 0)
(0.00805945 -0.0531152 0)
(0.00395246 -0.0476658 0)
(0.000977987 -0.026888 0)
(0.000811898 0.0249339 0)
(0.00329062 0.0442688 0)
(0.00673813 0.0494849 0)
(0.0101441 0.0495597 0)
(0.0131886 0.0478757 0)
(0.0157989 0.0455057 0)
(0.0179546 0.0428071 0)
(0.0196687 0.039941 0)
(0.0209774 0.0370078 0)
(0.0219295 0.0340781 0)
(0.0225791 0.0312021 0)
(0.0229799 0.0284125 0)
(0.0231827 0.0257291 0)
(0.0232327 0.0231611 0)
(0.0231699 0.0207103 0)
(0.0230281 0.0183734 0)
(0.0228361 0.0161433 0)
(0.0226173 0.0140108 0)
(0.0223909 0.0119652 0)
(0.0221722 0.00999498 0)
(0.0219734 0.00808845 0)
(0.0218037 0.00623384 0)
(0.0216702 0.00441939 0)
(0.0215782 0.00263343 0)
(0.0215307 0.000864512 0)
(0.0215291 -0.000898718 0)
(0.0215735 -0.00266768 0)
(0.0216626 -0.00445379 0)
(0.0217927 -0.00626846 0)
(0.0219587 -0.00812327 0)
(0.0221537 -0.01003 0)
(0.0223685 -0.0120003 0)
(0.0225904 -0.0140458 0)
(0.0228042 -0.0161779 0)
(0.0229909 -0.018407 0)
(0.0231268 -0.0207422 0)
(0.0231836 -0.0231904 0)
(0.0231272 -0.0257548 0)
(0.0229179 -0.028433 0)
(0.0225109 -0.0312158 0)
(0.0218558 -0.0340829 0)
(0.0208993 -0.0370014 0)
(0.0195885 -0.0399215 0)
(0.017875 -0.0427727 0)
(0.0157235 -0.0454554 0)
(0.0131218 -0.0478097 0)
(0.0100904 -0.0494806 0)
(0.00670159 -0.0493989 0)
(0.00327253 -0.0441885 0)
(0.000807412 -0.0248861 0)
(0.000675592 0.0232609 0)
(0.00274364 0.0413514 0)
(0.00563599 0.0463388 0)
(0.00852379 0.0465907 0)
(0.0111462 0.0452384 0)
(0.0134398 0.0432565 0)
(0.01538 0.0409558 0)
(0.0169675 0.0384704 0)
(0.0182227 0.0358842 0)
(0.0191778 0.0332591 0)
(0.0198712 0.0306415 0)
(0.0203435 0.0280646 0)
(0.0206343 0.0255509 0)
(0.0207808 0.0231136 0)
(0.0208165 0.0207595 0)
(0.0207708 0.0184898 0)
(0.0206691 0.0163023 0)
(0.0205328 0.0141919 0)
(0.0203798 0.0121515 0)
(0.0202244 0.010173 0)
(0.0200786 0.00824754 0)
(0.0199514 0.00636579 0)
(0.0198498 0.00451817 0)
(0.0197789 0.00269493 0)
(0.019742 0.000886311 0)
(0.0197403 -0.000917385 0)
(0.0197741 -0.00272597 0)
(0.019842 -0.00454929 0)
(0.0199403 -0.00639702 0)
(0.0200639 -0.00827877 0)
(0.0202059 -0.0102041 0)
(0.0203575 -0.0121824 0)
(0.0205065 -0.0142224 0)
(0.0206382 -0.0163321 0)
(0.020735 -0.0185182 0)
(0.0207758 -0.020786 0)
(0.020735 -0.0231373 0)
(0.0205833 -0.0255709 0)
(0.0202874 -0.0280797 0)
(0.0198105 -0.0306502 0)
(0.0191134 -0.0332599 0)
(0.0181558 -0.0358755 0)
(0.0168999 -0.0384508 0)
(0.015314 -0.0409242 0)
(0.0133783 -0.0432126 0)
(0.0110925 -0.0451827 0)
(0.00848124 -0.0465253 0)
(0.00560723 -0.0462687 0)
(0.00272944 -0.0412863 0)
(0.000672035 -0.023222 0)
(0.000564565 0.0218627 0)
(0.00229629 0.0389061 0)
(0.00472853 0.0436832 0)
(0.00717682 0.0440558 0)
(0.0094276 0.0429517 0)
(0.0114274 0.0412685 0)
(0.0131514 0.0392815 0)
(0.014594 0.0371035 0)
(0.0157655 0.0348044 0)
(0.0166867 0.0324374 0)
(0.0173846 0.0300444 0)
(0.0178893 0.0276572 0)
(0.0182316 0.0252989 0)
(0.0184413 0.0229851 0)
(0.0185461 0.0207257 0)
(0.018571 0.0185254 0)
(0.0185381 0.0163852 0)
(0.0184665 0.0143034 0)
(0.0183721 0.0122763 0)
(0.0182683 0.0102983 0)
(0.0181661 0.00836318 0)
(0.0180743 0.00646383 0)
(0.0179994 0.00459273 0)
(0.0179464 0.00274192 0)
(0.0179184 0.000903339 0)
(0.0179168 -0.000931104 0)
(0.0179416 -0.00276961 0)
(0.0179916 -0.0046204 0)
(0.0180632 -0.00649154 0)
(0.0181516 -0.00839077 0)
(0.0182501 -0.0103256 0)
(0.0183502 -0.0123031 0)
(0.0184408 -0.0143297 0)
(0.0185084 -0.0164105 0)
(0.018537 -0.0185492 0)
(0.0185077 -0.0207474 0)
(0.0183987 -0.0230042 0)
(0.0181848 -0.0253142 0)
(0.0178386 -0.027668 0)
(0.0173306 -0.0300495 0)
(0.0166303 -0.0324357 0)
(0.0157079 -0.0347947 0)
(0.0145367 -0.0370849 0)
(0.0130962 -0.0392533 0)
(0.0113766 -0.0412307 0)
(0.00938384 -0.0429049 0)
(0.00714249 -0.0440018 0)
(0.00470552 -0.0436259 0)
(0.00228501 -0.0388529 0)
(0.000561769 -0.0218309 0)
(0.000472025 0.0206919 0)
(0.00192223 0.0368537 0)
(0.00396567 0.0414423 0)
(0.00603572 0.0418975 0)
(0.00795724 0.0409807 0)
(0.0096859 0.0395287 0)
(0.0111988 0.0377893 0)
(0.0124875 0.0358589 0)
(0.0135562 0.0337959 0)
(0.0144178 0.0316456 0)
(0.0150909 0.0294451 0)
(0.0155979 0.0272239 0)
(0.0159623 0.0250047 0)
(0.0162077 0.0228045 0)
(0.0163567 0.0206345 0)
(0.0164303 0.018502 0)
(0.0164472 0.0164106 0)
(0.0164239 0.0143612 0)
(0.0163746 0.0123523 0)
(0.0163114 0.010381 0)
(0.0162442 0.00844321 0)
(0.016181 0.00653377 0)
(0.0161279 0.004647 0)
(0.0160895 0.00277666 0)
(0.016069 0.000916263 0)
(0.0160674 -0.000940766 0)
(0.0160849 -0.00280108 0)
(0.0161201 -0.00467135 0)
(0.01617 -0.00655807 0)
(0.0162299 -0.00846732 0)
(0.0162936 -0.0104047 0)
(0.0163533 -0.0123755 0)
(0.0163991 -0.0143836 0)
(0.0164187 -0.016432 0)
(0.0163981 -0.0185219 0)
(0.0163208 -0.0206523 0)
(0.0161682 -0.0228197 0)
(0.0159195 -0.0250165 0)
(0.0155521 -0.0272315 0)
(0.0150428 -0.0294477 0)
(0.0143681 -0.0316424 0)
(0.0135062 -0.0337861 0)
(0.0124384 -0.035842 0)
(0.0111521 -0.0377647 0)
(0.00964342 -0.0394965 0)
(0.00792102 -0.0409416 0)
(0.00600755 -0.0418529 0)
(0.0039469 -0.0413953 0)
(0.00191305 -0.0368102 0)
(0.000469775 -0.0206658 0)
(0.000393267 0.0197132 0)
(0.00160288 0.0351351 0)
(0.00331158 0.0395578 0)
(0.00505113 0.0400698 0)
(0.00667825 0.0392953 0)
(0.00815668 0.0380227 0)
(0.0094663 0.0364789 0)
(0.0105978 0.0347474 0)
(0.0115518 0.0328772 0)
(0.0123358 0.0309069 0)
(0.0129628 0.0288691 0)
(0.013449 0.0267908 0)
(0.0138122 0.0246939 0)
(0.0140711 0.0225953 0)
(0.0142437 0.0205073 0)
(0.0143471 0.0184388 0)
(0.0143972 0.016395 0)
(0.0144081 0.0143789 0)
(0.0143919 0.0123911 0)
(0.0143592 0.0104306 0)
(0.0143189 0.00849507 0)
(0.0142781 0.00658118 0)
(0.0142423 0.00468483 0)
(0.0142156 0.00280136 0)
(0.014201 0.000925742 0)
(0.0141994 -0.000947229 0)
(0.014211 -0.00282281 0)
(0.0142346 -0.0047062 0)
(0.0142673 -0.00660241 0)
(0.0143049 -0.00851605 0)
(0.0143419 -0.0104511 0)
(0.0143713 -0.012411 0)
(0.0143843 -0.014398 0)
(0.0143701 -0.0164129 0)
(0.0143167 -0.0184552 0)
(0.01421 -0.0205218 0)
(0.0140345 -0.0226073 0)
(0.013773 -0.024703 0)
(0.0134075 -0.0267962 0)
(0.0129196 -0.0288702 0)
(0.0122918 -0.0309031 0)
(0.0115079 -0.032868 0)
(0.0105553 -0.0347323 0)
(0.00942637 -0.0364578 0)
(0.00812075 -0.0379956 0)
(0.00664785 -0.0392627 0)
(0.00502758 -0.040033 0)
(0.00329585 -0.0395194 0)
(0.00159512 -0.0350996 0)
(0.000391324 -0.0196919 0)
(0.000324828 0.0189002 0)
(0.00132471 0.0337055 0)
(0.0027399 0.037985 0)
(0.00418625 0.0385358 0)
(0.00554735 0.0378699 0)
(0.00679393 0.0367368 0)
(0.00790888 0.035347 0)
(0.00888314 0.0337743 0)
(0.00971527 0.0320601 0)
(0.0104096 0.0302377 0)
(0.0109749 0.0283356 0)
(0.0114227 0.0263784 0)
(0.0117667 0.0243866 0)
(0.0120211 0.0223768 0)
(0.0122002 0.0203619 0)
(0.012318 0.0183515 0)
(0.0123873 0.0163524 0)
(0.01242 0.0143688 0)
(0.0124263 0.012403 0)
(0.0124153 0.0104555 0)
(0.0123947 0.00852554 0)
(0.0123707 0.00661122 0)
(0.0123481 0.00470987 0)
(0.0123304 0.0028182 0)
(0.0123204 0.000932501 0)
(0.0123188 -0.000951165 0)
(0.0123259 -0.00283682 0)
(0.0123405 -0.00472839 0)
(0.0123601 -0.00662952 0)
(0.0123811 -0.0085435 0)
(0.0123986 -0.010473 0)
(0.0124065 -0.0124198 0)
(0.0123972 -0.0143848 0)
(0.0123615 -0.0163673 0)
(0.0122892 -0.0183649 0)
(0.0121687 -0.0203736 0)
(0.0119871 -0.0223863 0)
(0.0117306 -0.0243935 0)
(0.0113849 -0.0263821 0)
(0.0109359 -0.0283357 0)
(0.0103703 -0.0302337 0)
(0.00967647 -0.0320517 0)
(0.00884592 -0.0337611 0)
(0.0078743 -0.0353291 0)
(0.00676309 -0.0367142 0)
(0.00552142 -0.0378432 0)
(0.0041662 -0.0385059 0)
(0.00272644 -0.0379538 0)
(0.00131798 -0.0336767 0)
(0.00032309 -0.018883 0)
(0.000264116 0.0182328 0)
(0.00107766 0.0325308 0)
(0.00223089 0.0366893 0)
(0.00341313 0.0372666 0)
(0.00453104 0.0366834 0)
(0.00556131 0.0356581 0)
(0.00648982 0.0343888 0)
(0.00730841 0.0329415 0)
(0.00801478 0.0313522 0)
(0.0086112 0.0296495 0)
(0.00910348 0.0278586 0)
(0.00949998 0.0260019 0)
(0.00981067 0.0240986 0)
(0.0100464 0.0221646 0)
(0.0102184 0.020213 0)
(0.0103377 0.0182539 0)
(0.0104145 0.016295 0)
(0.0104587 0.0143416 0)
(0.0104786 0.0123971 0)
(0.0104817 0.0104634 0)
(0.0104746 0.00854079 0)
(0.0104624 0.00662869 0)
(0.0104493 0.00472558 0)
(0.0104383 0.00282936 0)
(0.0104316 0.000937458 0)
(0.0104301 -0.000952942 0)
(0.0104338 -0.00284478 0)
(0.0104419 -0.00474089 0)
(0.0104522 -0.0066438 0)
(0.0104614 -0.00855558 0)
(0.0104656 -0.0104778 0)
(0.0104595 -0.0124109 0)
(0.0104369 -0.0143547 0)
(0.01039 -0.0163071 0)
(0.0103104 -0.0182647 0)
(0.0101887 -0.0202223 0)
(0.0100146 -0.0221719 0)
(0.00977715 -0.0241037 0)
(0.00946522 -0.0260044 0)
(0.00906805 -0.0278581 0)
(0.00857579 -0.0296456 0)
(0.0079801 -0.0313447 0)
(0.00727536 -0.0329303 0)
(0.00645933 -0.0343739 0)
(0.0055343 -0.0356397 0)
(0.00450847 -0.0366618 0)
(0.0033958 -0.0372426 0)
(0.00221928 -0.0366644 0)
(0.00107185 -0.0325077 0)
(0.000262612 -0.0182192 0)
(0.000209233 0.0176961 0)
(0.000854161 0.0315852 0)
(0.00176946 0.0356443 0)
(0.00271002 0.0362394 0)
(0.0036027 0.0357185 0)
(0.00442939 0.0347756 0)
(0.0051788 0.0335991 0)
(0.00584408 0.0322493 0)
(0.00642277 0.030758 0)
(0.00691591 0.0291502 0)
(0.00732728 0.0274485 0)
(0.0076627 0.0256733 0)
(0.00792943 0.0238424 0)
(0.00813553 0.0219712 0)
(0.00828956 0.0200727 0)
(0.00840003 0.0181573 0)
(0.00847499 0.0162332 0)
(0.00852205 0.0143064 0)
(0.00854808 0.0123814 0)
(0.008559 0.0104608 0)
(0.00856006 0.00854607 0)
(0.00855554 0.00663757 0)
(0.00854873 0.00473474 0)
(0.00854232 0.00283643 0)
(0.00853807 0.000941028 0)
(0.00853661 -0.000953336 0)
(0.00853795 -0.00284864 0)
(0.00854146 -0.00474684 0)
(0.00854546 -0.00664956 0)
(0.00854719 -0.00855785 0)
(0.00854325 -0.0104722 0)
(0.00852957 -0.0123924 0)
(0.00850101 -0.0143167 0)
(0.00845147 -0.0162427 0)
(0.00837407 -0.0181658 0)
(0.00826147 -0.0200798 0)
(0.00810565 -0.0219767 0)
(0.00789813 -0.023846 0)
(0.00763047 -0.0256748 0)
(0.00729467 -0.0274477 0)
(0.00688359 -0.0291468 0)
(0.00639132 -0.0307518 0)
(0.00581424 -0.0322402 0)
(0.00515143 -0.0335871 0)
(0.00440529 -0.0347609 0)
(0.00358269 -0.0357015 0)
(0.00269477 -0.0362206 0)
(0.00175933 -0.0356247 0)
(0.000849127 -0.0315671 0)
(0.000207967 -0.0176855 0)
(0.000158739 0.0172786 0)
(0.000648264 0.0308492 0)
(0.00134362 0.0348296 0)
(0.00205945 0.0354367 0)
(0.00274071 0.0349616 0)
(0.00337388 0.03408 0)
(0.00395042 0.0329731 0)
(0.00446494 0.0316971 0)
(0.00491524 0.0302805 0)
(0.00530166 0.0287456 0)
(0.00562653 0.027113 0)
(0.00589383 0.0254013 0)
(0.00610865 0.0236274 0)
(0.00627678 0.0218062 0)
(0.00640449 0.0199503 0)
(0.00649812 0.0180702 0)
(0.00656366 0.0161746 0)
(0.00660686 0.0142701 0)
(0.00663295 0.0123616 0)
(0.00664647 0.0104526 0)
(0.00665142 0.00854524 0)
(0.00665113 0.00664071 0)
(0.00664814 0.00473922 0)
(0.00664458 0.00284038 0)
(0.00664187 0.000943295 0)
(0.00664047 -0.00095314 0)
(0.00664032 -0.00285011 0)
(0.00664097 -0.0047488 0)
(0.00664117 -0.00665016 0)
(0.00663878 -0.00855449 0)
(0.00663108 -0.0104615 0)
(0.00661498 -0.0123701 0)
(0.00658651 -0.014278 0)
(0.006541 -0.0161818 0)
(0.00647326 -0.0180766 0)
(0.00637772 -0.0199556 0)
(0.00624841 -0.0218103 0)
(0.00607909 -0.0236301 0)
(0.00586353 -0.0254024 0)
(0.00559605 -0.0271123 0)
(0.00527167 -0.028743 0)
(0.00488628 -0.0302757 0)
(0.00443763 -0.0316901 0)
(0.0039255 -0.0329639 0)
(0.00335204 -0.0340688 0)
(0.00272264 -0.0349486 0)
(0.00204573 -0.0354223 0)
(0.00133455 -0.0348148 0)
(0.000643787 -0.0308355 0)
(0.00015763 -0.0172707 0)
(0.000111419 0.0169721 0)
(0.000455059 0.0303084 0)
(0.000943512 0.0342304 0)
(0.00144697 0.0348449 0)
(0.00192704 0.0344021 0)
(0.0023744 0.033564 0)
(0.00278305 0.0325069 0)
(0.00314913 0.0312839 0)
(0.00347092 0.0299213 0)
(0.0037484 0.0284396 0)
(0.00398297 0.0268574 0)
(0.00417713 0.0251925 0)
(0.00433431 0.0234607 0)
(0.00445838 0.0216766 0)
(0.00455361 0.0198526 0)
(0.00462439 0.0179993 0)
(0.00467487 0.0161255 0)
(0.00470901 0.0142381 0)
(0.00473055 0.0123426 0)
(0.00474267 0.0104429 0)
(0.00474821 0.00854175 0)
(0.00474952 0.00664087 0)
(0.00474841 0.00474109 0)
(0.0047464 0.00284258 0)
(0.00474456 0.000944987 0)
(0.00474321 -0.000952264 0)
(0.00474229 -0.00284979 0)
(0.00474143 -0.00474815 0)
(0.00473978 -0.00664775 0)
(0.00473586 -0.00854842 0)
(0.00472769 -0.0104493 0)
(0.00471308 -0.0123486 0)
(0.00468925 -0.0142437 0)
(0.00465286 -0.0161306 0)
(0.00460033 -0.0180038 0)
(0.00452777 -0.0198563 0)
(0.00443109 -0.0216795 0)
(0.00430603 -0.0234626 0)
(0.00414829 -0.0251932 0)
(0.00395406 -0.0268568 0)
(0.00372013 -0.0284376 0)
(0.00344379 -0.029918 0)
(0.00312369 -0.0312791 0)
(0.00275996 -0.0325005 0)
(0.00235426 -0.0335562 0)
(0.00191043 -0.0343931 0)
(0.00143435 -0.0348349 0)
(0.000935175 -0.03422 0)
(0.00045096 -0.0302988 0)
(0.000110387 -0.0169665 0)
(6.61988e-05 0.0167705 0)
(0.000270388 0.0299526 0)
(0.000560791 0.0338358 0)
(0.000860349 0.0344547 0)
(0.00114637 0.0340326 0)
(0.00141334 0.0332225 0)
(0.00165771 0.0321975 0)
(0.00187713 0.031009 0)
(0.00207048 0.0296815 0)
(0.00223767 0.0282343 0)
(0.00237942 0.0266852 0)
(0.00249713 0.025051 0)
(0.0025928 0.0233471 0)
(0.00266867 0.0215876 0)
(0.00272719 0.019785 0)
(0.00277099 0.0179496 0)
(0.00280248 0.0160905 0)
(0.00282398 0.0142149 0)
(0.00283773 0.0123284 0)
(0.00284565 0.0104353 0)
(0.00284942 0.00853866 0)
(0.00285047 0.00664059 0)
(0.00284985 0.00474229 0)
(0.00284848 0.00284432 0)