/*--------------------------------*- C++ -*----------------------------------*\
  =========                 |
  \\      /  F ield         | OpenFOAM: The Open Source CFD Toolbox
   \\    /   O peration     | Website:  https://openfoam.org
    \\  /    A nd           | Version:  7
     \\/     M anipulation  |
\*---------------------------------------------------------------------------*/
FoamFile
{
    version     2.0;
    format      ascii;
    class       volVectorField;
    location    "0.0534";
    object      U;
}
// * * * * * * * * * * * * * * * * * * * * * * * * * * * * * * * * * * * * * //

dimensions      [0 1 -1 0 0 0 0];

internalField   nonuniform List<vector> 
2500
(
(2.91306e-05 -2.92367e-05 0)
(8.80912e-05 -3.55351e-05 0)
(0.000120545 -1.79776e-05 0)
(8.84012e-05 7.78162e-06 0)
(-1.97836e-05 3.40515e-05 0)
(-0.000202413 5.81553e-05 0)
(-0.000452493 7.90026e-05 0)
(-0.00076102 9.62837e-05 0)
(-0.001118 0.000110026 0)
(-0.00151319 0.000120381 0)
(-0.00193649 0.000127547 0)
(-0.00237815 0.000131738 0)
(-0.00282892 0.000133174 0)
(-0.00328009 0.000132072 0)
(-0.00372355 0.000128643 0)
(-0.00415182 0.000123096 0)
(-0.00455804 0.000115631 0)
(-0.00493599 0.000106444 0)
(-0.00528009 9.57262e-05 0)
(-0.0055854 8.36644e-05 0)
(-0.00584759 7.04431e-05 0)
(-0.006063 5.62465e-05 0)
(-0.00622859 4.12593e-05 0)
(-0.00634198 2.56687e-05 0)
(-0.00640146 9.66619e-06 0)
(-0.006406 -6.5512e-06 0)
(-0.00635526 -2.27793e-05 0)
(-0.00624962 -3.88062e-05 0)
(-0.00609024 -5.4412e-05 0)
(-0.005879 -6.93684e-05 0)
(-0.0056186 -8.34397e-05 0)
(-0.00531253 -9.63834e-05 0)
(-0.00496512 -0.000107953 0)
(-0.00458149 -0.000117897 0)
(-0.0041676 -0.000125968 0)
(-0.00373019 -0.000131917 0)
(-0.00327677 -0.000135506 0)
(-0.00281557 -0.000136504 0)
(-0.00235548 -0.000134694 0)
(-0.00190597 -0.000129875 0)
(-0.00147697 -0.00012187 0)
(-0.00107872 -0.000110526 0)
(-0.000721639 -9.57323e-05 0)
(-0.000415977 -7.74475e-05 0)
(-0.000171402 -5.57821e-05 0)
(3.74323e-06 -3.12185e-05 0)
(0.000103638 -5.01818e-06 0)
(0.000127717 1.99053e-05 0)
(8.93861e-05 3.64626e-05 0)
(2.87949e-05 2.87345e-05 0)
(3.57774e-05 -8.8401e-05 0)
(7.97264e-05 -7.89859e-05 0)
(2.96323e-05 1.95178e-05 0)
(-0.000172532 0.000153098 0)
(-0.000549699 0.000293953 0)
(-0.00110193 0.000428038 0)
(-0.00181751 0.00054803 0)
(-0.00267781 0.00065043 0)
(-0.00366027 0.000733808 0)
(-0.00474045 0.000797848 0)
(-0.00589331 0.000842871 0)
(-0.00709403 0.000869574 0)
(-0.00831851 0.000878883 0)
(-0.00954377 0.000871861 0)
(-0.0107482 0.000849655 0)
(-0.0119115 0.000813461 0)
(-0.0130151 0.000764497 0)
(-0.0140422 0.000703997 0)
(-0.0149773 0.000633196 0)
(-0.0158069 0.000553336 0)
(-0.0165192 0.000465663 0)
(-0.0171041 0.000371432 0)
(-0.0175532 0.000271913 0)
(-0.0178602 0.000168399 0)
(-0.0180204 6.22101e-05 0)
(-0.0180311 -4.52975e-05 0)
(-0.0178914 -0.000152729 0)
(-0.0176026 -0.000258646 0)
(-0.0171679 -0.000361568 0)
(-0.0165927 -0.000459976 0)
(-0.0158845 -0.000552314 0)
(-0.0150529 -0.000637002 0)
(-0.0141099 -0.000712451 0)
(-0.0130693 -0.000777074 0)
(-0.0119475 -0.000829315 0)
(-0.0107625 -0.000867668 0)
(-0.0095346 -0.000890707 0)
(-0.00828566 -0.000897123 0)
(-0.00703919 -0.000885756 0)
(-0.00581993 -0.000855652 0)
(-0.00465348 -0.000806114 0)
(-0.00356586 -0.000736801 0)
(-0.00258275 -0.000647863 0)
(-0.0017286 -0.00054019 0)
(-0.00102522 -0.000415872 0)
(-0.00048978 -0.000279113 0)
(-0.000131655 -0.000137883 0)
(5.21887e-05 -6.84528e-06 0)
(8.7734e-05 8.67111e-05 0)
(3.67984e-05 8.93838e-05 0)
(1.91695e-05 -0.000122418 0)
(-1.5426e-05 -2.98804e-05 0)
(-0.000227114 0.000232656 0)
(-0.00066454 0.000568864 0)
(-0.00134991 0.000924942 0)
(-0.00228353 0.00126838 0)
(-0.00345035 0.00158007 0)
(-0.00482534 0.00184937 0)
(-0.00637733 0.00207086 0)
(-0.00807168 0.00224227 0)
(-0.00987215 0.00236336 0)
(-0.0117422 0.00243521 0)
(-0.0136461 0.00245972 0)
(-0.015549 0.00243939 0)
(-0.0174182 0.00237706 0)
(-0.0192229 0.00227581 0)
(-0.0209345 0.00213888 0)
(-0.0225268 0.00196962 0)
(-0.0239764 0.00177144 0)
(-0.0252621 0.00154779 0)
(-0.0263656 0.00130217 0)
(-0.0272714 0.00103813 0)
(-0.0279665 0.000759262 0)
(-0.0284411 0.000469246 0)
(-0.028688 0.000171831 0)
(-0.0287031 -0.000129137 0)
(-0.0284851 -0.00042971 0)
(-0.0280363 -0.000725833 0)
(-0.0273616 -0.00101335 0)
(-0.0264695 -0.00128799 0)
(-0.0253718 -0.00154545 0)
(-0.0240834 -0.00178135 0)
(-0.0226227 -0.00199131 0)
(-0.0210114 -0.002171 0)
(-0.0192741 -0.0023162 0)
(-0.017439 -0.00242289 0)
(-0.0155365 -0.00248732 0)
(-0.0136001 -0.00250611 0)
(-0.0116651 -0.0024764 0)
(-0.00976853 -0.002396 0)
(-0.00794847 -0.00226359 0)
(-0.00624304 -0.002079 0)
(-0.00468942 -0.00184364 0)
(-0.00332227 -0.00156118 0)
(-0.00217182 -0.00123863 0)
(-0.00126113 -0.000888196 0)
(-0.000602257 -0.000530398 0)
(-0.000191218 -0.000198818 0)
(-1.6329e-06 5.24869e-05 0)
(2.13519e-05 0.000129269 0)
(-5.02021e-06 -9.43459e-05 0)
(-0.000145269 0.000168381 0)
(-0.000559344 0.000668862 0)
(-0.00127014 0.00127751 0)
(-0.00229021 0.00191561 0)
(-0.00361625 0.00253189 0)
(-0.00522867 0.00309382 0)
(-0.00709667 0.00358185 0)
(-0.00918217 0.00398494 0)
(-0.0114426 0.0042977 0)
(-0.013833 0.0045186 0)
(-0.0163075 0.0046487 0)
(-0.0188208 0.00469085 0)
(-0.021329 0.00464912 0)
(-0.0237898 0.00452847 0)
(-0.0261636 0.00433439 0)
(-0.0284135 0.0040728 0)
(-0.0305056 0.00374989 0)
(-0.0324093 0.00337202 0)
(-0.0340972 0.00294572 0)
(-0.0355455 0.00247764 0)
(-0.0367337 0.00197452 0)
(-0.0376453 0.00144326 0)
(-0.0382672 0.000890872 0)
(-0.0385901 0.000324546 0)
(-0.0386089 -0.000248366 0)
(-0.038322 -0.000820323 0)
(-0.0377322 -0.0013836 0)
(-0.0368463 -0.00193028 0)
(-0.0356754 -0.00245231 0)
(-0.0342348 -0.0029415 0)
(-0.0325442 -0.00338964 0)
(-0.0306273 -0.00378851 0)
(-0.0285124 -0.00413005 0)
(-0.0262314 -0.00440644 0)
(-0.0238204 -0.00461029 0)
(-0.0213189 -0.00473477 0)
(-0.0187696 -0.00477387 0)
(-0.0162176 -0.00472264 0)
(-0.0137099 -0.00457751 0)
(-0.0112946 -0.00433666 0)
(-0.00901941 -0.00400063 0)
(-0.00693057 -0.00357303 0)
(-0.00507081 -0.00306166 0)
(-0.00347721 -0.00248025 0)
(-0.00217835 -0.00185109 0)
(-0.00119042 -0.00120909 0)
(-0.000512499 -0.000607345 0)
(-0.000126562 -0.000125157 0)
(-1.71634e-06 0.000110003 0)
(-3.01145e-05 7.87844e-06 0)
(-0.000285389 0.000541415 0)
(-0.000920933 0.001356 0)
(-0.00192511 0.00229987 0)
(-0.00329528 0.00327442 0)
(-0.00502098 0.00421181 0)
(-0.00707618 0.00506667 0)
(-0.0094237 0.00581014 0)
(-0.012019 0.0064249 0)
(-0.0148126 0.00690178 0)
(-0.0177521 0.00723739 0)
(-0.0207843 0.00743244 0)
(-0.0238559 0.00749058 0)
(-0.0269151 0.00741757 0)
(-0.0299121 0.00722064 0)
(-0.0327998 0.00690809 0)
(-0.0355345 0.00648897 0)
(-0.0380756 0.00597285 0)
(-0.0403865 0.0053697 0)
(-0.0424346 0.00468979 0)
(-0.0441913 0.00394361 0)
(-0.0456321 0.00314189 0)
(-0.0467372 0.00229559 0)
(-0.0474908 0.00141588 0)
(-0.047882 0.000514197 0)
(-0.0479045 -0.000397743 0)
(-0.0475567 -0.00130795 0)
(-0.0468419 -0.00220416 0)
(-0.0457683 -0.00307383 0)
(-0.0443492 -0.00390422 0)
(-0.042603 -0.00468242 0)
(-0.0405532 -0.0053955 0)
(-0.0382283 -0.0060306 0)
(-0.0356619 -0.00657511 0)
(-0.0328921 -0.0070169 0)
(-0.0299617 -0.00734454 0)
(-0.0269177 -0.00754763 0)
(-0.0238104 -0.00761709 0)
(-0.0206931 -0.00754565 0)
(-0.0176212 -0.00732829 0)
(-0.0146509 -0.00696292 0)
(-0.0118381 -0.00645115 0)
(-0.00923661 -0.00579945 0)
(-0.00689629 -0.00502058 0)
(-0.0048608 -0.00413584 0)
(-0.00316495 -0.0031781 0)
(-0.00183114 -0.00219634 0)
(-0.000865037 -0.00126124 0)
(-0.000262688 -0.000472722 0)
(-2.59593e-05 1.87477e-05 0)
(-5.38952e-05 0.000184702 0)
(-0.000424734 0.00109631 0)
(-0.00128738 0.002306 0)
(-0.0025928 0.00364881 0)
(-0.00432001 0.00501165 0)
(-0.00644873 0.0063132 0)
(-0.00894456 0.00749685 0)
(-0.0117629 0.008525 0)
(-0.0148525 0.00937416 0)
(-0.0181571 0.0100312 0)
(-0.0216179 0.0104906 0)
(-0.0251748 0.0107527 0)
(-0.0287679 0.0108218 0)
(-0.0323387 0.0107054 0)
(-0.0358311 0.0104133 0)
(-0.0391918 0.00995688 0)
(-0.0423708 0.00934863 0)
(-0.0453225 0.00860201 0)
(-0.0480051 0.00773111 0)
(-0.0503813 0.0067505 0)
(-0.0524187 0.00567515 0)
(-0.0540894 0.00452041 0)
(-0.0553706 0.00330194 0)
(-0.0562445 0.00203578 0)
(-0.0566987 0.000738333 0)
(-0.0567259 -0.000573625 0)
(-0.0563243 -0.00188292 0)
(-0.0554976 -0.00317198 0)
(-0.0542553 -0.00442291 0)
(-0.0526125 -0.00561752 0)
(-0.05059 -0.00673746 0)
(-0.0482146 -0.00776432 0)
(-0.0455188 -0.00867989 0)
(-0.0425404 -0.00946637 0)
(-0.039323 -0.0101067 0)
(-0.035915 -0.0105848 0)
(-0.0323695 -0.0108863 0)
(-0.0287435 -0.0109987 0)
(-0.0250972 -0.0109121 0)
(-0.0214931 -0.01062 0)
(-0.0179946 -0.0101201 0)
(-0.0146646 -0.0094153 0)
(-0.0115643 -0.00851517 0)
(-0.00875022 -0.00743774 0)
(-0.00627315 -0.00621193 0)
(-0.00417531 -0.00488082 0)
(-0.00248722 -0.00350613 0)
(-0.00122388 -0.00217333 0)
(-0.00039862 -0.000998055 0)
(-4.90177e-05 -0.000145103 0)
(-7.57629e-05 0.000433039 0)
(-0.000558827 0.00183203 0)
(-0.00164698 0.00352083 0)
(-0.00325416 0.0053279 0)
(-0.00533976 0.00713031 0)
(-0.0078719 0.00883656 0)
(-0.0108063 0.0103808 0)
(-0.0140898 0.011718 0)
(-0.0176637 0.0128191 0)
(-0.021465 0.0136671 0)
(-0.0254284 0.0142549 0)
(-0.0294876 0.0145823 0)
(-0.0335767 0.0146543 0)
(-0.0376314 0.0144806 0)
(-0.04159 0.0140734 0)
(-0.0453937 0.0134476 0)
(-0.0489878 0.0126195 0)
(-0.0523217 0.0116069 0)
(-0.0553495 0.0104283 0)
(-0.0580302 0.00910321 0)
(-0.0603278 0.0076515 0)
(-0.0622117 0.00609367 0)
(-0.0636566 0.0044507 0)
(-0.064643 0.00274402 0)
(-0.0651569 0.000995595 0)
(-0.0651904 -0.000772116 0)
(-0.0647413 -0.00253614 0)
(-0.0638138 -0.00427301 0)
(-0.0624181 -0.00595882 0)
(-0.0605709 -0.00756931 0)
(-0.0582951 -0.00908003 0)
(-0.0556199 -0.0104665 0)
(-0.0525811 -0.0117046 0)
(-0.0492205 -0.0127706 0)
(-0.0455857 -0.013642 0)
(-0.04173 -0.0142978 0)
(-0.037712 -0.014719 0)
(-0.0335942 -0.0148892 0)
(-0.0294431 -0.014796 0)
(-0.0253274 -0.0144309 0)
(-0.0213172 -0.0137913 0)
(-0.0174822 -0.0128814 0)
(-0.0138905 -0.0117138 0)
(-0.010606 -0.0103116 0)
(-0.00768722 -0.00871089 0)
(-0.00518498 -0.00696391 0)
(-0.0031396 -0.00514338 0)
(-0.0015772 -0.00334668 0)
(-0.000529759 -0.00170083 0)
(-7.02385e-05 -0.000378775 0)
(-9.58127e-05 0.000749085 0)
(-0.000686593 0.002744 0)
(-0.00199551 0.00499752 0)
(-0.00390127 0.0073357 0)
(-0.00634351 0.00962952 0)
(-0.00927777 0.0117802 0)
(-0.0126487 0.013715 0)
(-0.0163937 0.0153827 0)
(-0.0204458 0.0167497 0)
(-0.024735 0.0177963 0)
(-0.0291892 0.0185136 0)
(-0.0337362 0.0189014 0)
(-0.0383044 0.0189661 0)
(-0.0428242 0.0187191 0)
(-0.0472287 0.0181759 0)
(-0.0514546 0.017355 0)
(-0.0554428 0.016277 0)
(-0.0591388 0.014964 0)
(-0.0624931 0.0134399 0)
(-0.0654612 0.011729 0)
(-0.0680045 0.00985681 0)
(-0.0700898 0.00784936 0)
(-0.07169 0.00573338 0)
(-0.0727837 0.0035362 0)
(-0.073356 0.0012858 0)
(-0.073398 -0.000989173 0)
(-0.0729074 -0.00325946 0)
(-0.0718884 -0.00549518 0)
(-0.070352 -0.00766589 0)
(-0.0683158 -0.00974073 0)
(-0.0658044 -0.0116886 0)
(-0.0628491 -0.0134785 0)
(-0.0594884 -0.0150796 0)
(-0.055767 -0.0164621 0)
(-0.0517364 -0.0175974 0)
(-0.047454 -0.0184589 0)
(-0.0429829 -0.0190225 0)
(-0.0383909 -0.019268 0)
(-0.0337499 -0.0191794 0)
(-0.0291347 -0.0187464 0)
(-0.0246217 -0.0179657 0)
(-0.0202875 -0.0168424 0)
(-0.0162074 -0.0153917 0)
(-0.0124531 -0.0136412 0)
(-0.00909165 -0.0116334 0)
(-0.00618379 -0.00942851 0)
(-0.00378078 -0.00710828 0)
(-0.0019209 -0.00477943 0)
(-0.000655011 -0.00257715 0)
(-8.96799e-05 -0.000678633 0)
(-0.000114387 0.00112921 0)
(-0.000808561 0.00382668 0)
(-0.00233279 0.00673116 0)
(-0.00453273 0.00966874 0)
(-0.00732873 0.012507 0)
(-0.0106633 0.0151423 0)
(-0.0144692 0.0174969 0)
(-0.0186737 0.0195154 0)
(-0.0232009 0.0211606 0)
(-0.0279731 0.0224109 0)
(-0.0329115 0.0232566 0)
(-0.0379376 0.0236978 0)
(-0.0429743 0.0237427 0)
(-0.047947 0.0234052 0)
(-0.0527842 0.0227042 0)
(-0.0574185 0.0216621 0)
(-0.0617867 0.0203041 0)
(-0.0658309 0.0186574 0)
(-0.0694986 0.0167509 0)
(-0.0727425 0.0146149 0)
(-0.0755216 0.0122803 0)
(-0.0778007 0.00977933 0)
(-0.0795508 0.00714474 0)
(-0.0807492 0.00441015 0)
(-0.08138 0.00160996 0)
(-0.0814334 -0.00122064 0)
(-0.0809069 -0.00404568 0)
(-0.0798047 -0.00682845 0)
(-0.0781379 -0.00953155 0)
(-0.0759252 -0.0121171 0)
(-0.0731921 -0.0145469 0)
(-0.0699718 -0.0167827 0)
(-0.0663047 -0.018787 0)
(-0.0622381 -0.0205229 0)
(-0.0578267 -0.0219554 0)
(-0.0531315 -0.0230517 0)
(-0.0482197 -0.0237825 0)
(-0.0431638 -0.0241227 0)
(-0.038041 -0.0240526 0)
(-0.0329319 -0.0235595 0)
(-0.0279193 -0.0226388 0)
(-0.0230869 -0.0212961 0)
(-0.0185175 -0.0195485 0)
(-0.0142915 -0.0174275 0)
(-0.0104854 -0.0149807 0)
(-0.00717058 -0.0122749 0)
(-0.00441017 -0.00939939 0)
(-0.00225522 -0.00646816 0)
(-0.000775019 -0.00362227 0)
(-0.00010769 -0.00104128 0)
(-0.000131871 0.00157043 0)
(-0.00092593 0.00507495 0)
(-0.00266069 0.00871682 0)
(-0.00515077 0.0123233 0)
(-0.00829785 0.0157603 0)
(-0.0120313 0.0189213 0)
(-0.0162717 0.0217255 0)
(-0.0209352 0.0241145 0)
(-0.0259367 0.0260493 0)
(-0.0311901 0.0275071 0)
(-0.0366097 0.0284784 0)
(-0.0421105 0.0289646 0)
(-0.04761 0.0289758 0)
(-0.0530286 0.0285293 0)
(-0.0582904 0.0276476 0)
(-0.0633241 0.0263577 0)
(-0.0680631 0.0246897 0)
(-0.0724466 0.0226762 0)
(-0.0764192 0.0203517 0)
(-0.0799314 0.0177522 0)
(-0.08294 0.0149151 0)
(-0.0854082 0.0118787 0)
(-0.0873055 0.00868206 0)
(-0.0886079 0.0053655 0)
(-0.0892985 0.00197008 0)
(-0.0893669 -0.00146214 0)
(-0.0888101 -0.00488819 0)
(-0.0876319 -0.00826419 0)
(-0.0858439 -0.0115454 0)
(-0.0834649 -0.0146866 0)
(-0.0805215 -0.0176421 0)
(-0.0770478 -0.0203661 0)
(-0.0730859 -0.0228135 0)
(-0.0686854 -0.0249403 0)
(-0.0639034 -0.0267043 0)
(-0.0588042 -0.0280662 0)
(-0.0534587 -0.0289906 0)
(-0.047944 -0.029447 0)
(-0.0423423 -0.0294116 0)
(-0.03674 -0.0288684 0)
(-0.0312266 -0.027811 0)
(-0.0258931 -0.0262444 0)
(-0.0208305 -0.0241872 0)
(-0.0161286 -0.0216734 0)
(-0.011874 -0.0187549 0)
(-0.00814964 -0.0155039 0)
(-0.00503117 -0.0120156 0)
(-0.00258262 -0.0084098 0)
(-0.000891196 -0.00483217 0)
(-0.000124688 -0.00146403 0)
(-0.000148631 0.00207057 0)
(-0.00104013 0.00648491 0)
(-0.00298204 0.0109506 0)
(-0.00575947 0.0152964 0)
(-0.00925611 0.0193878 0)
(-0.0133881 0.0231168 0)
(-0.0180636 0.0264009 0)
(-0.0231873 0.0291804 0)
(-0.0286641 0.0314157 0)
(-0.0343995 0.0330841 0)
(-0.0403 0.0341772 0)
(-0.0462743 0.0346984 0)
(-0.0522341 0.034661 0)
(-0.058095 0.0340858 0)
(-0.063777 0.0329999 0)
(-0.0692049 0.0314351 0)
(-0.0743094 0.0294269 0)
(-0.0790265 0.0270136 0)
(-0.0832987 0.0242359 0)
(-0.0870745 0.0211359 0)
(-0.0903091 0.0177573 0)
(-0.092964 0.0141449 0)
(-0.0950075 0.0103446 0)
(-0.0964147 0.00640327 0)
(-0.0971675 0.00236905 0)
(-0.097255 -0.00170899 0)
(-0.0966735 -0.00578063 0)
(-0.0954266 -0.00979457 0)
(-0.0935255 -0.0136986 0)
(-0.0909893 -0.0174396 0)
(-0.087845 -0.0209641 0)
(-0.0841275 -0.0242184 0)
(-0.0798799 -0.0271495 0)
(-0.0751537 -0.0297056 0)
(-0.070008 -0.0318368 0)
(-0.0645101 -0.0334967 0)
(-0.0587344 -0.034643 0)
(-0.0527621 -0.0352394 0)
(-0.0466807 -0.0352569 0)
(-0.0405824 -0.0346755 0)
(-0.0345635 -0.033486 0)
(-0.0287229 -0.0316924 0)
(-0.0231606 -0.0293132 0)
(-0.0179759 -0.0263841 0)
(-0.0132669 -0.0229603 0)
(-0.00912843 -0.019118 0)
(-0.00564931 -0.0149573 0)
(-0.0029067 -0.0106029 0)
(-0.00100526 -0.00620436 0)
(-0.000141083 -0.00194516 0)
(-0.000164988 0.00262828 0)
(-0.00115261 0.00805412 0)
(-0.00329999 0.0134303 0)
(-0.00636377 0.0185868 0)
(-0.0102101 0.0233893 0)
(-0.0147419 0.0277296 0)
(-0.0198546 0.0315247 0)
(-0.0254411 0.0347151 0)
(-0.0313961 0.0372617 0)
(-0.0376157 0.0391431 0)
(-0.0439989 0.0403534 0)
(-0.0504474 0.0408989 0)
(-0.0568675 0.0407968 0)
(-0.0631695 0.0400724 0)
(-0.0692695 0.0387577 0)
(-0.075089 0.0368903 0)
(-0.0805555 0.0345114 0)
(-0.0856029 0.0316657 0)
(-0.0901715 0.0283999 0)
(-0.0942084 0.0247629 0)
(-0.097667 0.0208048 0)
(-0.100508 0.0165772 0)
(-0.102698 0.0121329 0)
(-0.104212 0.0075256 0)
(-0.10503 0.0028105 0)
(-0.105141 -0.00195609 0)
(-0.104541 -0.00671659 0)
(-0.103232 -0.0114121 0)
(-0.101226 -0.0159827 0)
(-0.0985413 -0.0203672 0)
(-0.0952046 -0.024504 0)
(-0.0912516 -0.0283312 0)
(-0.0867262 -0.0317874 0)
(-0.0816808 -0.0348124 0)
(-0.0761766 -0.0373481 0)
(-0.0702832 -0.0393401 0)
(-0.0640783 -0.0407388 0)
(-0.0576475 -0.041501 0)
(-0.0510829 -0.0415917 0)
(-0.0444831 -0.0409859 0)
(-0.0379516 -0.0396707 0)
(-0.0315955 -0.0376476 0)
(-0.0255241 -0.0349343 0)
(-0.0198476 -0.0315672 0)
(-0.0146756 -0.0276032 0)
(-0.0101161 -0.0231219 0)
(-0.00627118 -0.0182272 0)
(-0.00323153 -0.0130481 0)
(-0.00111899 -0.00773823 0)
(-0.000157255 -0.00248392 0)
(-0.000181223 0.003243 0)
(-0.00126475 0.00978172 0)
(-0.00361772 0.0161554 0)
(-0.00696882 0.0221949 0)
(-0.0111668 0.0277664 0)
(-0.0161014 0.0327622 0)
(-0.021655 0.0371002 0)
(-0.0277085 0.040722 0)
(-0.0341456 0.0435905 0)
(-0.0408533 0.0456871 0)
(-0.0477221 0.0470091 0)
(-0.054647 0.0475672 0)
(-0.0615283 0.0473833 0)
(-0.0682715 0.0464881 0)
(-0.0747887 0.0449195 0)
(-0.080998 0.0427212 0)
(-0.0868245 0.0399409 0)
(-0.0921999 0.0366298 0)
(-0.0970628 0.0328415 0)
(-0.101359 0.0286315 0)
(-0.10504 0.0240569 0)
(-0.108067 0.019176 0)
(-0.110405 0.0140485 0)
(-0.112028 0.00873537 0)
(-0.112915 0.00329868 0)
(-0.113055 -0.00219793 0)
(-0.112443 -0.00768944 0)
(-0.11108 -0.0131093 0)
(-0.108977 -0.0183896 0)
(-0.106152 -0.0234611 0)
(-0.102632 -0.0282537 0)
(-0.0984516 -0.0326969 0)
(-0.0936556 -0.0367205 0)
(-0.0882971 -0.0402553 0)
(-0.0824388 -0.0432346 0)
(-0.0761524 -0.0455951 0)
(-0.0695185 -0.047279 0)
(-0.0626267 -0.0482351 0)
(-0.0555743 -0.0484215 0)
(-0.048466 -0.047807 0)
(-0.0414128 -0.046374 0)
(-0.0345305 -0.0441201 0)
(-0.0279387 -0.0410612 0)
(-0.0217588 -0.0372328 0)
(-0.0161128 -0.0326927 0)
(-0.0111224 -0.0275229 0)
(-0.00690379 -0.0218306 0)
(-0.0035613 -0.0157488 0)
(-0.00123415 -0.00943525 0)
(-0.000173544 -0.00308054 0)
(-0.000197578 0.00391487 0)
(-0.0013778 0.0116684 0)
(-0.00393825 0.0191275 0)
(-0.0075796 0.0261233 0)
(-0.0121332 0.0325225 0)
(-0.0174754 0.0382188 0)
(-0.0234751 0.0431319 0)
(-0.0300009 0.0472058 0)
(-0.0369253 0.0504066 0)
(-0.0441255 0.0527198 0)
(-0.0514836 0.0541473 0)
(-0.0588875 0.0547053 0)
(-0.0662313 0.0544214 0)
(-0.0734161 0.0533329 0)
(-0.0803497 0.0514844 0)
(-0.0869474 0.0489263 0)
(-0.0931318 0.0457135 0)
(-0.0988329 0.0419041 0)
(-0.103988 0.037559 0)
(-0.108541 0.0327407 0)
(-0.112445 0.0275132 0)
(-0.115658 0.021942 0)
(-0.118145 0.0160936 0)
(-0.119879 0.010036 0)
(-0.12084 0.00383833 0)
(-0.121015 -0.00242848 0)
(-0.120397 -0.008692 0)
(-0.118988 -0.014878 0)
(-0.116797 -0.0209106 0)
(-0.113841 -0.0267124 0)
(-0.110147 -0.0322045 0)
(-0.105748 -0.0373075 0)
(-0.10069 -0.0419419 0)
(-0.0950253 -0.0460292 0)
(-0.0888178 -0.049493 0)
(-0.082141 -0.0522606 0)
(-0.0750784 -0.0542648 0)
(-0.0677231 -0.0554456 0)
(-0.0601776 -0.0557526 0)
(-0.052553 -0.0551476 0)
(-0.044968 -0.0536064 0)
(-0.0375476 -0.0511219 0)
(-0.0304221 -0.0477063 0)
(-0.0237249 -0.0433933 0)
(-0.0175913 -0.0382407 0)
(-0.0121574 -0.0323315 0)
(-0.00755412 -0.025776 0)
(-0.00390013 -0.0187109 0)
(-0.00135241 -0.0112989 0)
(-0.000190261 -0.00373614 0)
(-0.000214258 0.00464466 0)
(-0.00149289 0.0137162 0)
(-0.00426434 0.0223498 0)
(-0.00820078 0.0303761 0)
(-0.0131157 0.0376628 0)
(-0.0188719 0.0441053 0)
(-0.0253244 0.0496258 0)
(-0.0323289 0.0541722 0)
(-0.0397464 0.0577152 0)
(-0.047444 0.0602455 0)
(-0.055295 0.0617712 0)
(-0.0631801 0.0623151 0)
(-0.0709874 0.061912 0)
(-0.0786132 0.0606066 0)
(-0.0859617 0.058451 0)
(-0.0929453 0.0555035 0)
(-0.0994845 0.0518266 0)
(-0.105508 0.0474861 0)
(-0.110952 0.0425503 0)
(-0.115761 0.0370889 0)
(-0.119885 0.0311733 0)
(-0.123283 0.0248759 0)
(-0.12592 0.0182701 0)
(-0.127769 0.0114309 0)
(-0.128808 0.00443449 0)
(-0.129023 -0.00264122 0)
(-0.128407 -0.00971646 0)
(-0.126961 -0.0167094 0)
(-0.124691 -0.0235363 0)
(-0.121616 -0.0301111 0)
(-0.117758 -0.0363465 0)
(-0.113152 -0.0421537 0)
(-0.107841 -0.0474436 0)
(-0.101879 -0.0521276 0)
(-0.0953288 -0.056119 0)
(-0.088266 -0.0593347 0)
(-0.080776 -0.0616971 0)
(-0.0729558 -0.0631361 0)
(-0.0649126 -0.0635918 0)
(-0.0567639 -0.0630169 0)
(-0.0486365 -0.0613797 0)
(-0.0406651 -0.0586663 0)
(-0.0329911 -0.0548841 0)
(-0.0257607 -0.0500638 0)
(-0.0191235 -0.0442614 0)
(-0.0132307 -0.0375609 0)
(-0.00822896 -0.0300744 0)
(-0.00425196 -0.0219431 0)
(-0.00147534 -0.0133348 0)
(-0.000207683 -0.00445272 0)
(-0.000231443 0.00543371 0)
(-0.00161102 0.0159286 0)
(-0.0045985 0.0258274 0)
(-0.00883661 0.0349598 0)
(-0.0141205 0.0431944 0)
(-0.0202985 0.0504288 0)
(-0.0272115 0.056589 0)
(-0.0347018 0.0616278 0)
(-0.0426185 0.0655218 0)
(-0.050818 0.0682685 0)
(-0.0591649 0.0698835 0)
(-0.0675324 0.0703979 0)
(-0.0758028 0.0698547 0)
(-0.0838675 0.0683073 0)
(-0.0916273 0.0658166 0)
(-0.0989923 0.0624493 0)
(-0.105881 0.0582764 0)
(-0.112222 0.0533719 0)
(-0.11795 0.0478117 0)
(-0.123009 0.0416735 0)
(-0.127351 0.0350356 0)
(-0.130933 0.0279775 0)
(-0.13372 0.0205796 0)
(-0.135685 0.0129236 0)
(-0.136806 0.00509239 0)
(-0.137068 -0.00282913 0)
(-0.136462 -0.0107541 0)
(-0.134989 -0.0185934 0)
(-0.132653 -0.0262553 0)
(-0.12947 -0.0336456 0)
(-0.125462 -0.040668 0)
(-0.120662 -0.0472243 0)
(-0.115111 -0.0532153 0)
(-0.108862 -0.0585418 0)
(-0.101979 -0.0631061 0)
(-0.0945366 -0.0668136 0)
(-0.0866233 -0.0695751 0)
(-0.0783386 -0.0713092 0)
(-0.0697946 -0.0719448 0)
(-0.0611152 -0.071424 0)
(-0.0524352 -0.0697056 0)
(-0.0438995 -0.0667676 0)
(-0.0356613 -0.0626109 0)
(-0.0278804 -0.0572611 0)
(-0.0207213 -0.0507721 0)
(-0.0143516 -0.043227 0)
(-0.00893479 -0.0347401 0)
(-0.00462053 -0.0254565 0)
(-0.0016044 -0.0155503 0)
(-0.000226069 -0.00523307 0)
(-0.000249287 0.00628383 0)
(-0.00173308 0.0183102 0)
(-0.00494297 0.0295669 0)
(-0.00949091 0.0398822 0)
(-0.0151527 0.0491256 0)
(-0.0217616 0.0571977 0)
(-0.0291438 0.0640293 0)
(-0.0371274 0.0695793 0)
(-0.0455489 0.0738315 0)
(-0.0542541 0.0767921 0)
(-0.0630986 0.0784858 0)
(-0.0719478 0.0789531 0)
(-0.0806783 0.0782472 0)
(-0.0891772 0.0764312 0)
(-0.0973421 0.0735759 0)
(-0.105081 0.0697576 0)
(-0.112312 0.0650564 0)
(-0.118961 0.059555 0)
(-0.124965 0.0533377 0)
(-0.130268 0.0464896 0)
(-0.134821 0.0390966 0)
(-0.138583 0.0312453 0)
(-0.14152 0.0230226 0)
(-0.143602 0.0145168 0)
(-0.144808 0.00581719 0)
(-0.145123 -0.00298475 0)
(-0.144537 -0.0117954 0)
(-0.143047 -0.0205185 0)
(-0.140659 -0.0290548 0)
(-0.137383 -0.0373019 0)
(-0.133242 -0.0451545 0)
(-0.128263 -0.0525049 0)
(-0.122488 -0.0592435 0)
(-0.115968 -0.0652599 0)
(-0.108765 -0.0704445 0)
(-0.100954 -0.0746903 0)
(-0.0926247 -0.0778953 0)
(-0.0838793 -0.079965 0)
(-0.0748341 -0.0808155 0)
(-0.0656193 -0.0803766 0)
(-0.0563779 -0.0785956 0)
(-0.0472652 -0.0754406 0)
(-0.0384468 -0.0709035 0)
(-0.0300967 -0.0650041 0)
(-0.0223958 -0.0577917 0)
(-0.0155289 -0.0493484 0)
(-0.00967773 -0.0397897 0)
(-0.0050094 -0.0292648 0)
(-0.001741 -0.0179546 0)
(-0.000245656 -0.00608072 0)
(-0.00026793 0.00719729 0)
(-0.00185987 0.0208665 0)
(-0.00529978 0.0335762 0)
(-0.0101671 0.0451524 0)
(-0.016217 0.0554661 0)
(-0.0232671 0.0644214 0)
(-0.0311275 0.0719549 0)
(-0.0396116 0.078033 0)
(-0.048543 0.0826487 0)
(-0.0577562 0.0858183 0)
(-0.0670975 0.0875773 0)
(-0.0764251 0.0879778 0)
(-0.0856097 0.0870842 0)
(-0.0945343 0.0849711 0)
(-0.103094 0.0817204 0)
(-0.111195 0.0774189 0)
(-0.118755 0.0721567 0)
(-0.125701 0.0660257 0)
(-0.131969 0.0591189 0)
(-0.137505 0.0515295 0)
(-0.142261 0.0433507 0)
(-0.146197 0.0346757 0)
(-0.149278 0.0255982 0)
(-0.151477 0.0162124 0)
(-0.152772 0.00661374 0)
(-0.153146 -0.00310024 0)
(-0.152589 -0.0128297 0)
(-0.151097 -0.0224715 0)
(-0.14867 -0.0319193 0)
(-0.14532 -0.0410628 0)
(-0.141064 -0.049788 0)
(-0.135929 -0.0579774 0)
(-0.129951 -0.0655106 0)
(-0.123179 -0.0722656 0)
(-0.115673 -0.0781201 0)
(-0.10751 -0.0829537 0)
(-0.0987769 -0.0866501 0)
(-0.0895789 -0.0891001 0)
(-0.080036 -0.090205 0)
(-0.0702843 -0.0898805 0)
(-0.060475 -0.08806 0)
(-0.0507739 -0.0846992 0)
(-0.0413595 -0.0797797 0)
(-0.0324212 -0.0733125 0)
(-0.024157 -0.0653416 0)
(-0.0167707 -0.0559462 0)
(-0.0104635 -0.0452425 0)
(-0.00542192 -0.0333839 0)
(-0.00188644 -0.0205587 0)
(-0.000266672 -0.0069999 0)
(-0.000287499 0.00817676 0)
(-0.00199215 0.0236043 0)
(-0.00567079 0.0378644 0)
(-0.0108683 0.0507811 0)
(-0.0173178 0.0622267 0)
(-0.0248198 0.0721098 0)
(-0.0331675 0.080374 0)
(-0.0421587 0.0869948 0)
(-0.0516036 0.0919764 0)
(-0.0613249 0.0953468 0)
(-0.0711595 0.0971548 0)
(-0.0809582 0.0974653 0)
(-0.0905864 0.0963564 0)
(-0.0999233 0.0939154 0)
(-0.108862 0.0902367 0)
(-0.117308 0.0854186 0)
(-0.12518 0.0795622 0)
(-0.132404 0.0727694 0)
(-0.13892 0.0651421 0)
(-0.144674 0.0567815 0)
(-0.14962 0.0477883 0)
(-0.153719 0.0382624 0)
(-0.156939 0.0283032 0)
(-0.159253 0.0180109 0)
(-0.160638 0.00748633 0)
(-0.161077 -0.00316752 0)
(-0.160559 -0.0138451 0)
(-0.159078 -0.0244372 0)
(-0.156632 -0.0348308 0)
(-0.153229 -0.044908 0)
(-0.148882 -0.0545463 0)
(-0.143615 -0.0636185 0)
(-0.13746 -0.0719935 0)
(-0.130462 -0.079537 0)
(-0.12268 -0.0861132 0)
(-0.114185 -0.0915871 0)
(-0.105067 -0.0958265 0)
(-0.0954303 -0.0987061 0)
(-0.0853986 -0.10011 0)
(-0.0751129 -0.099938 0)
(-0.0647326 -0.0981065 0)
(-0.054434 -0.0945565 0)
(-0.0444093 -0.0892565 0)
(-0.0348639 -0.082207 0)
(-0.0260141 -0.0734442 0)
(-0.0180844 -0.0630432 0)
(-0.0112977 -0.05112 0)
(-0.00586128 -0.0378319 0)
(-0.002042 -0.0233751 0)
(-0.000289337 -0.00799552 0)
(-0.000308117 0.00922527 0)
(-0.00213061 0.0265308 0)
(-0.00605777 0.0424419 0)
(-0.0115974 0.0567798 0)
(-0.0184588 0.0694188 0)
(-0.0264238 0.0802729 0)
(-0.0352677 0.0892941 0)
(-0.0447716 0.0964692 0)
(-0.0547313 0.101815 0)
(-0.0649577 0.105374 0)
(-0.0752779 0.107211 0)
(-0.0855358 0.107405 0)
(-0.0955915 0.106049 0)
(-0.105321 0.103247 0)
(-0.114617 0.0991054 0)
(-0.123385 0.0937364 0)
(-0.131543 0.0872524 0)
(-0.139022 0.079766 0)
(-0.145762 0.0713885 0)
(-0.151713 0.0622292 0)
(-0.156831 0.0523961 0)
(-0.16108 0.0419952 0)
(-0.164428 0.0311318 0)
(-0.166851 0.0199109 0)
(-0.168326 0.0084383 0)
(-0.168836 -0.00317845 0)
(-0.168368 -0.0148288 0)
(-0.166914 -0.0263984 0)
(-0.16447 -0.037768 0)
(-0.161038 -0.0488129 0)
(-0.15663 -0.0594023 0)
(-0.151261 -0.0693998 0)
(-0.144962 -0.0786631 0)
(-0.137772 -0.0870455 0)
(-0.129744 -0.0943969 0)
(-0.120949 -0.100567 0)
(-0.111472 -0.105405 0)
(-0.101418 -0.108769 0)
(-0.0909126 -0.110523 0)
(-0.0801018 -0.110547 0)
(-0.0691521 -0.108739 0)
(-0.0582508 -0.105023 0)
(-0.0476035 -0.0993503 0)
(-0.037433 -0.0917082 0)
(-0.0279752 -0.0821231 0)
(-0.0194772 -0.0706641 0)
(-0.0121853 -0.0574457 0)
(-0.00633061 -0.0426287 0)
(-0.00220892 -0.0264179 0)
(-0.000313871 -0.00907315 0)
(-0.000329908 0.0103462 0)
(-0.00227597 0.0296546 0)
(-0.00646247 0.0473201 0)
(-0.0123572 0.0631611 0)
(-0.0196435 0.0770544 0)
(-0.0280829 0.0889206 0)
(-0.0374311 0.098722 0)
(-0.0474514 0.106459 0)
(-0.0579244 0.112163 0)
(-0.0686488 0.115894 0)
(-0.079442 0.117733 0)
(-0.0901409 0.117779 0)
(-0.100601 0.116142 0)
(-0.110697 0.112941 0)
(-0.120321 0.1083 0)
(-0.129378 0.102344 0)
(-0.137791 0.0951993 0)
(-0.145492 0.0869884 0)
(-0.152426 0.0778327 0)
(-0.158545 0.06785 0)
(-0.163811 0.0571551 0)
(-0.16819 0.0458599 0)
(-0.171653 0.0340747 0)
(-0.174176 0.0219087 0)
(-0.175739 0.00947168 0)
(-0.176325 -0.00312506 0)
(-0.175918 -0.0157671 0)
(-0.174508 -0.0283356 0)
(-0.172089 -0.0407063 0)
(-0.168659 -0.0527483 0)
(-0.164222 -0.0643234 0)
(-0.15879 -0.0752859 0)
(-0.152387 -0.0854828 0)
(-0.145046 -0.0947545 0)
(-0.136814 -0.102936 0)
(-0.127757 -0.10986 0)
(-0.117956 -0.115358 0)
(-0.107516 -0.119265 0)
(-0.0965607 -0.121427 0)
(-0.085241 -0.121699 0)
(-0.0737301 -0.119958 0)
(-0.0622254 -0.116106 0)
(-0.050947 -0.110075 0)
(-0.0401352 -0.101836 0)
(-0.0300476 -0.0914023 0)
(-0.0209554 -0.0788348 0)
(-0.0131314 -0.0642451 0)
(-0.00683296 -0.0477966 0)
(-0.00238846 -0.0297027 0)
(-0.000340498 -0.010239 0)
(-0.000353011 0.0115434 0)
(-0.00242901 0.0329848 0)
(-0.00688677 0.0525113 0)
(-0.0131506 0.0699385 0)
(-0.0208755 0.0851459 0)
(-0.0298005 0.0980625 0)
(-0.0396598 0.108663 0)
(-0.0501978 0.116963 0)
(-0.061179 0.123013 0)
(-0.0723892 0.126892 0)
(-0.0836363 0.128703 0)
(-0.0947508 0.128564 0)
(-0.105585 0.126606 0)
(-0.116011 0.122966 0)
(-0.125923 0.117786 0)
(-0.135229 0.111206 0)
(-0.143854 0.103366 0)
(-0.151736 0.094401 0)
(-0.158825 0.0844418 0)
(-0.165077 0.0736144 0)
(-0.170459 0.0620403 0)
(-0.174942 0.0498368 0)
(-0.1785 0.0371183 0)
(-0.181111 0.0239974 0)
(-0.182757 0.0105867 0)
(-0.183421 -0.00299985 0)
(-0.183086 -0.0166451 0)
(-0.181741 -0.0302271 0)
(-0.179373 -0.0436175 0)
(-0.175977 -0.0566802 0)
(-0.171552 -0.0692704 0)
(-0.166103 -0.0812341 0)
(-0.159645 -0.0924075 0)
(-0.152203 -0.102618 0)
(-0.143819 -0.111686 0)
(-0.13455 -0.119425 0)
(-0.124472 -0.125647 0)
(-0.113686 -0.130164 0)
(-0.102316 -0.132798 0)
(-0.090513 -0.133378 0)
(-0.078457 -0.131755 0)
(-0.0663551 -0.127807 0)
(-0.0544415 -0.121441 0)
(-0.0429755 -0.112608 0)
(-0.0322374 -0.101305 0)
(-0.0225252 -0.0875821 0)
(-0.0141409 -0.0715449 0)
(-0.00737143 -0.0533591 0)
(-0.00258192 -0.0332468 0)
(-0.000369458 -0.0114999 0)
(-0.000377582 0.012821 0)
(-0.0025906 0.0365316 0)
(-0.00733278 0.0580292 0)
(-0.0139811 0.0771261 0)
(-0.0221587 0.0937058 0)
(-0.0315801 0.107707 0)
(-0.0419558 0.11912 0)
(-0.0530096 0.127978 0)
(-0.0644889 0.134354 0)
(-0.0761665 0.138351 0)
(-0.0878408 0.140095 0)
(-0.0993365 0.139727 0)
(-0.110503 0.137403 0)
(-0.121214 0.133279 0)
(-0.131363 0.127517 0)
(-0.140865 0.120275 0)
(-0.14965 0.111706 0)
(-0.157661 0.101959 0)
(-0.164855 0.0911736 0)
(-0.171195 0.0794846 0)
(-0.176654 0.0670195 0)
(-0.181207 0.0539001 0)
(-0.184834 0.0402441 0)
(-0.187517 0.0261665 0)
(-0.189238 0.0117814 0)
(-0.189981 -0.00279611 0)
(-0.189729 -0.0174474 0)
(-0.188468 -0.0320488 0)
(-0.186182 -0.0464692 0)
(-0.18286 -0.0605689 0)
(-0.178493 -0.0741975 0)
(-0.173079 -0.0871932 0)
(-0.166623 -0.0993825 0)
(-0.159144 -0.11058 0)
(-0.15067 -0.12059 0)
(-0.141251 -0.129207 0)