/*--------------------------------*- C++ -*----------------------------------*\
  =========                 |
  \\      /  F ield         | OpenFOAM: The Open Source CFD Toolbox
   \\    /   O peration     | Website:  https://openfoam.org
    \\  /    A nd           | Version:  7
     \\/     M anipulation  |
\*---------------------------------------------------------------------------*/
FoamFile
{
    version     2.0;
    format      ascii;
    class       surfaceScalarField;
    location    "0.0714";
    object      phi;
}
// * * * * * * * * * * * * * * * * * * * * * * * * * * * * * * * * * * * * * //

dimensions      [0 3 -1 0 0 0 0];

internalField   nonuniform List<scalar> 
4900
(
-5.55537e-06
5.55535e-06
-1.0161e-05
4.60559e-06
-1.29489e-05
2.78791e-06
-1.46695e-05
1.72062e-06
-1.57725e-05
1.10304e-06
-1.6512e-05
7.39494e-07
-1.70333e-05
5.21326e-07
-1.74184e-05
3.85064e-07
-1.77138e-05
2.95398e-07
-1.79471e-05
2.33292e-07
-1.81354e-05
1.88314e-07
-1.82899e-05
1.54496e-07
-1.84182e-05
1.28252e-07
-1.85255e-05
1.07321e-07
-1.86157e-05
9.02148e-08
-1.86916e-05
7.59136e-08
-1.87553e-05
6.36987e-08
-1.88084e-05
5.30483e-08
-1.88519e-05
4.35745e-08
-1.88869e-05
3.49826e-08
-1.8914e-05
2.70438e-08
-1.89335e-05
1.95764e-08
-1.8946e-05
1.24325e-08
-1.89515e-05
5.48809e-09
-1.89501e-05
-1.36531e-09
-1.89419e-05
-8.22369e-09
-1.89267e-05
-1.51816e-08
-1.89044e-05
-2.23322e-08
-1.88746e-05
-2.97754e-08
-1.8837e-05
-3.76238e-08
-1.87909e-05
-4.60105e-08
-1.87358e-05
-5.50988e-08
-1.86708e-05
-6.50966e-08
-1.85945e-05
-7.62754e-08
-1.85055e-05
-8.89986e-08
-1.84017e-05
-1.03763e-07
-1.82804e-05
-1.21266e-07
-1.81379e-05
-1.42509e-07
-1.7969e-05
-1.68978e-07
-1.7766e-05
-2.02957e-07
-1.75179e-05
-2.48097e-07
-1.72074e-05
-3.10491e-07
-1.68067e-05
-4.00725e-07
-1.62688e-05
-5.37846e-07
-1.55125e-05
-7.56347e-07
-1.43966e-05
-1.11593e-06
-1.26816e-05
-1.71501e-06
-9.9459e-06
-2.73566e-06
-5.45245e-06
-4.49345e-06
-5.45245e-06
-1.18987e-08
5.56725e-06
-2.13082e-06
6.72451e-06
-4.85869e-06
5.51578e-06
-7.27712e-06
4.13905e-06
-9.21701e-06
3.04292e-06
-1.0731e-05
2.2535e-06
-1.19124e-05
1.70269e-06
-1.28441e-05
1.31674e-06
-1.35894e-05
1.04072e-06
-1.41942e-05
8.38153e-07
-1.46914e-05
6.85501e-07
-1.51044e-05
5.67483e-07
-1.54502e-05
4.74032e-07
-1.57412e-05
3.98359e-07
-1.59868e-05
3.3577e-07
-1.61938e-05
2.82942e-07
-1.63676e-05
2.37469e-07
-1.65121e-05
1.97569e-07
-1.66304e-05
1.619e-07
-1.67249e-05
1.29428e-07
-1.67972e-05
9.93424e-08
-1.68486e-05
7.09933e-08
-1.688e-05
4.38487e-08
-1.6892e-05
1.74593e-08
-1.68848e-05
-8.56605e-09
-1.68584e-05
-3.45839e-08
-1.68127e-05
-6.09332e-08
-1.6747e-05
-8.79552e-08
-1.66608e-05
-1.16012e-07
-1.65529e-05
-1.4551e-07
-1.6422e-05
-1.76923e-07
-1.62663e-05
-2.1083e-07
-1.60834e-05
-2.47957e-07
-1.58704e-05
-2.89242e-07
-1.56235e-05
-3.35919e-07
-1.53376e-05
-3.89648e-07
-1.50062e-05
-4.52699e-07
-1.46205e-05
-5.2824e-07
-1.41687e-05
-6.20782e-07
-1.36348e-05
-7.36881e-07
-1.29966e-05
-8.86266e-07
-1.22234e-05
-1.08364e-06
-1.12727e-05
-1.35144e-06
-1.00866e-05
-1.72394e-06
-8.59128e-06
-2.2517e-06
-6.7066e-06
-3.00061e-06
-4.39293e-06
-4.02867e-06
-1.81842e-06
-5.31017e-06
1.244e-07
-6.43627e-06
-5.32805e-06
1.03233e-06
4.53492e-06
5.46375e-07
7.21047e-06
-9.93786e-07
7.05594e-06
-2.89079e-06
6.03605e-06
-4.75083e-06
4.90297e-06
-6.41339e-06
3.91606e-06
-7.839e-06
3.1283e-06
-9.04066e-06
2.51841e-06
-1.00487e-05
2.04874e-06
-1.08952e-05
1.68464e-06
-1.16085e-05
1.3988e-06
-1.22119e-05
1.1709e-06
-1.2724e-05
9.86114e-07
-1.31593e-05
8.33689e-07
-1.35293e-05
7.05749e-07
-1.38428e-05
5.96474e-07
-1.41068e-05
5.01504e-07
-1.43268e-05
4.17528e-07
-1.45069e-05
3.41994e-07
-1.46504e-05
2.72902e-07
-1.47597e-05
2.08663e-07
-1.48367e-05
1.47991e-07
-1.48827e-05
8.98177e-08
-1.48984e-05
3.32387e-08
-1.48845e-05
-2.25386e-08
-1.48408e-05
-7.82371e-08
-1.47672e-05
-1.34544e-07
-1.4663e-05
-1.92148e-07
-1.45272e-05
-2.51774e-07
-1.43585e-05
-3.14226e-07
-1.4155e-05
-3.80434e-07
-1.39143e-05
-4.51515e-07
-1.36334e-05
-5.28851e-07
-1.33085e-05
-6.14193e-07
-1.29346e-05
-7.098e-07
-1.25056e-05
-8.18636e-07
-1.20137e-05
-9.44638e-07
-1.14488e-05
-1.0931e-06
-1.07984e-05
-1.27123e-06
-1.00464e-05
-1.48887e-06
-9.17312e-06
-1.75953e-06
-8.15512e-06
-2.10163e-06
-6.96692e-06
-2.53964e-06
-5.58681e-06
-3.10406e-06
-4.01145e-06
-3.82705e-06
-2.28757e-06
-4.72449e-06
-5.72336e-07
-5.7439e-06
7.67048e-07
-6.64955e-06
1.08787e-06
-6.7571e-06
-4.24018e-06
9.06003e-07
3.62892e-06
1.22716e-06
6.88931e-06
6.40152e-07
7.64295e-06
-5.29144e-07
7.20534e-06
-1.9518e-06
6.32563e-06
-3.40953e-06
5.37379e-06
-4.78529e-06
4.50406e-06
-6.02926e-06
3.76237e-06
-7.1288e-06
3.14828e-06
-8.08923e-06
2.64506e-06
-8.92306e-06
2.23263e-06
-9.64466e-06
1.8925e-06
-1.02678e-05
1.60926e-06
-1.08047e-05
1.37055e-06
-1.12656e-05
1.16668e-06
-1.16592e-05
9.90089e-07
-1.19926e-05
8.34841e-07
-1.22713e-05
6.96282e-07
-1.25e-05
5.70723e-07
-1.26823e-05
4.5521e-07
-1.2821e-05
3.47349e-07
-1.29182e-05
2.4517e-07
-1.29754e-05
1.47025e-07
-1.29937e-05
5.15018e-08
-1.29736e-05
-4.2645e-08
-1.29153e-05
-1.3655e-07
-1.28185e-05
-2.3129e-07
-1.26827e-05
-3.27939e-07
-1.25069e-05
-4.27614e-07
-1.22896e-05
-5.31539e-07
-1.20289e-05
-6.41105e-07
-1.17225e-05
-7.57956e-07
-1.13672e-05
-8.84084e-07
-1.09595e-05
-1.02196e-06
-1.04946e-05
-1.17468e-06
-9.96704e-06
-1.34619e-06
-9.37013e-06
-1.54155e-06
-8.69598e-06
-1.76725e-06
-7.93558e-06
-2.03163e-06
-7.07918e-06
-2.34527e-06
-6.11737e-06
-2.72134e-06
-5.04359e-06
-3.1754e-06
-3.8592e-06
-3.72403e-06
-2.58303e-06
-4.38023e-06
-1.26812e-06
-5.14196e-06
-2.67895e-08
-5.96583e-06
9.42847e-07
-6.71354e-06
1.34953e-06
-7.05623e-06
9.17114e-07
-6.32469e-06
-3.32306e-06
6.71237e-07
2.95768e-06
1.24153e-06
6.31902e-06
1.21878e-06
7.6657e-06
6.4377e-07
7.78035e-06
-2.95985e-07
7.26539e-06
-1.41808e-06
6.49589e-06
-2.59011e-06
5.67609e-06
-3.73066e-06
4.90292e-06
-4.79618e-06
4.21381e-06
-5.7673e-06
3.61619e-06
-6.63869e-06
3.10402e-06
-7.41249e-06
2.6663e-06
-8.09434e-06
2.29111e-06
-8.69119e-06
1.9674e-06
-9.21006e-06
1.68556e-06
-9.65749e-06
1.43752e-06
-1.00393e-05
1.2166e-06
-1.03603e-05
1.01734e-06
-1.06248e-05
8.35233e-07
-1.08362e-05
6.66574e-07
-1.09971e-05
5.08294e-07
-1.11098e-05
3.57821e-07
-1.11757e-05
2.12969e-07
-1.11961e-05
7.18465e-08
-1.11715e-05
-6.72247e-08
-1.11023e-05
-2.05776e-07
-1.09883e-05
-3.4526e-07
-1.08291e-05
-4.87106e-07
-1.0624e-05
-6.32791e-07
-1.03716e-05
-7.83899e-07
-1.00705e-05
-9.42201e-07
-9.71871e-06
-1.10974e-06
-9.31387e-06
-1.28893e-06
-8.85314e-06
-1.48268e-06
-8.33328e-06
-1.69454e-06
-7.75064e-06
-1.92883e-06
-7.10132e-06
-2.19086e-06
-6.38153e-06
-2.48705e-06
-5.58813e-06
-2.82503e-06
-4.71989e-06
-3.21351e-06
-3.77949e-06
-3.66174e-06
-2.77703e-06
-4.17787e-06
-1.73559e-06
-4.76548e-06
-6.99528e-07
-5.41629e-06
2.54719e-07
-6.09621e-06
1.00916e-06
-6.72027e-06
1.40742e-06
-7.1118e-06
1.29716e-06
-6.94597e-06
6.66605e-07
-5.69413e-06
-2.65646e-06
4.79738e-07
2.47794e-06
1.07351e-06
5.72525e-06
1.33542e-06
7.40378e-06
1.16507e-06
7.9507e-06
6.30152e-07
7.80031e-06
-1.50687e-07
7.27673e-06
-1.06536e-06
6.59076e-06
-2.02845e-06
5.86601e-06
-2.98232e-06
5.16767e-06
-3.89163e-06
4.5255e-06
-4.73683e-06
3.94922e-06
-5.50863e-06
3.43809e-06
-6.20404e-06
2.98653e-06
-6.82372e-06
2.58708e-06
-7.3702e-06
2.23204e-06
-7.84687e-06
1.91418e-06
-8.25732e-06
1.62705e-06
-8.60501e-06
1.36504e-06
-8.8931e-06
1.12332e-06
-9.12431e-06
8.9779e-07
-9.30096e-06
6.84945e-07
-9.42492e-06
4.8178e-07
-9.49765e-06
2.85699e-07
-9.52023e-06
9.44268e-08
-9.49339e-06
-9.40686e-08
-9.41752e-06
-2.81647e-07
-9.29271e-06
-4.70064e-07
-9.11879e-06
-6.61033e-07
-8.89528e-06
-8.56295e-07
-8.6215e-06
-1.05768e-06
-8.29651e-06
-1.26719e-06
-7.91918e-06
-1.48707e-06
-7.48822e-06
-1.71989e-06
-7.00227e-06
-1.96863e-06
-6.46003e-06
-2.23679e-06
-5.86044e-06
-2.52842e-06
-5.20311e-06
-2.84819e-06
-4.48887e-06
-3.20128e-06
-3.72076e-06
-3.59313e-06
-2.90548e-06
-4.0288e-06
-2.05561e-06
-4.5116e-06
-1.19283e-06
-5.04065e-06
-3.52088e-07
-5.60622e-06
4.13572e-07
-6.18195e-06
1.0295e-06
-6.71214e-06
1.40194e-06
-7.09271e-06
1.43663e-06
-7.14649e-06
1.08943e-06
-6.59877e-06
4.69657e-07
-5.07436e-06
-2.1868e-06
3.47277e-07
2.13067e-06
8.8779e-07
5.18474e-06
1.27035e-06
7.02122e-06
1.3476e-06
7.87345e-06
1.11194e-06
8.03597e-06
6.23458e-07
7.76521e-06
-3.85388e-08
7.25276e-06
-8.006e-07
6.62807e-06
-1.60455e-06
5.97162e-06
-2.40841e-06
5.32936e-06
-3.18399e-06
4.7248e-06
-3.91359e-06
4.16769e-06
-4.58692e-06
3.65986e-06
-5.19868e-06
3.19884e-06
-5.74677e-06
2.78013e-06
-6.23105e-06
2.39845e-06
-6.65246e-06
2.04847e-06
-7.01255e-06
1.72513e-06
-7.31305e-06
1.42382e-06
-7.5557e-06
1.14044e-06
-7.74211e-06
8.71349e-07
-7.87368e-06
6.13355e-07
-7.95161e-06
3.63631e-07
-7.97685e-06
1.19667e-07
-7.95012e-06
-1.208e-07
-7.87192e-06
-3.59846e-07
-7.74257e-06
-5.9942e-07
-7.56219e-06
-8.41405e-07
-7.33081e-06
-1.08768e-06
-7.04833e-06
-1.34017e-06
-6.7146e-06
-1.60092e-06
-6.32954e-06
-1.87214e-06
-5.89316e-06
-2.15626e-06
-5.40579e-06
-2.456e-06
-4.86826e-06
-2.77432e-06
-4.28225e-06
-3.11443e-06
-3.65078e-06
-3.47966e-06
-2.97891e-06
-3.87315e-06
-2.27476e-06
-4.29728e-06
-1.55091e-06
-4.75265e-06
-8.26188e-07
-5.23633e-06
-1.27891e-07
-5.73895e-06
5.06001e-07
-6.24011e-06
1.02552e-06
-6.70147e-06
1.37044e-06
-7.05706e-06
1.47889e-06
-7.20115e-06
1.30897e-06
-6.97657e-06
8.80054e-07
-6.16986e-06
3.35378e-07
-4.52968e-06
-1.85142e-06
2.59844e-07
1.87082e-06
7.29543e-07
4.71504e-06
1.14673e-06
6.60404e-06
1.36329e-06
7.65689e-06
1.33289e-06
8.06636e-06
1.07312e-06
8.02498e-06
6.31615e-07
7.69426e-06
6.35992e-08
7.19609e-06
-5.80129e-07
6.61535e-06
-1.25807e-06
6.0073e-06
-1.93875e-06
5.40548e-06
-2.59961e-06
4.82855e-06
-3.22524e-06
4.28549e-06
-3.8056e-06
3.7792e-06
-4.33452e-06
3.30905e-06
-4.80851e-06
2.87244e-06
-5.22587e-06
2.46582e-06
-5.58603e-06
2.08529e-06
-5.88915e-06
1.72694e-06
-6.13579e-06
1.38707e-06
-6.32667e-06
1.06223e-06
-6.46261e-06
7.49299e-07
-6.54441e-06
4.4543e-07
-6.5728e-06
1.48057e-07
-6.54844e-06
-1.4516e-07
-6.47192e-06
-4.36372e-07
-6.34375e-06
-7.27589e-07
-6.16443e-06
-1.02073e-06
-5.93445e-06
-1.31765e-06
-5.6544e-06
-1.62022e-06
-5.32499e-06
-1.93033e-06
-4.94718e-06
-2.24995e-06
-4.52235e-06
-2.58109e-06
-4.05247e-06
-2.92588e-06
-3.54039e-06
-3.28639e-06
-2.99023e-06
-3.6646e-06
-2.40783e-06
-4.06206e-06
-1.80152e-06
-4.47946e-06
-1.18291e-06
-4.91589e-06
-5.67964e-07
-5.36759e-06
2.17942e-08
-5.82609e-06
5.58259e-07
-6.27541e-06
1.00628e-06
-6.68813e-06
1.32482e-06
-7.02001e-06
1.47141e-06
-7.20364e-06
1.41228e-06
-7.14202e-06
1.14101e-06
-6.7053e-06
7.06735e-07
-5.73558e-06
2.46945e-07
-4.06989e-06
-1.60448e-06
2.01504e-07
1.66932e-06
6.04203e-07
4.31234e-06
1.01484e-06
6.1934e-06
1.30242e-06
7.36931e-06
1.40531e-06
7.96347e-06
1.31444e-06
8.11585e-06
1.05234e-06
7.95636e-06
6.56003e-07
7.59243e-06
1.65422e-07
7.10593e-06
-3.82661e-07
6.55538e-06
-9.57488e-07
5.98031e-06
-1.53483e-06
5.40589e-06
-2.09644e-06
4.8471e-06
-2.6291e-06
4.31185e-06
-3.12351e-06
3.80347e-06
-3.5734e-06
3.32233e-06
-3.97467e-06
2.86709e-06
-4.32479e-06
2.43542e-06
-4.62234e-06
2.02449e-06
-4.86663e-06
1.63136e-06
-5.05747e-06
1.25307e-06
-5.19498e-06
8.86807e-07
-5.27948e-06
5.29937e-07
-5.31145e-06
1.80019e-07
-5.29141e-06
-1.65195e-07
-5.22e-06
-5.07781e-07
-5.09793e-06
-8.49665e-07
-4.926e-06
-1.19265e-06
-4.70521e-06
-1.53845e-06
-4.43674e-06
-1.88868e-06
-4.12214e-06
-2.24494e-06
-3.76337e-06
-2.60872e-06
-3.36301e-06
-2.98145e-06
-2.92449e-06
-3.3644e-06
-2.45233e-06
-3.75855e-06
-1.95253e-06
-4.1644e-06
-1.43301e-06
-4.58158e-06
-9.04149e-07
-5.00832e-06
-3.79439e-07
-5.4406e-06
1.2391e-07
-5.87094e-06
5.84437e-07
-6.28661e-06
9.76322e-07
-6.6673e-06
1.27018e-06
-6.98198e-06
1.43551e-06
-7.18535e-06
1.44595e-06
-7.21409e-06
1.2885e-06
-6.98457e-06
9.77323e-07
-6.39412e-06
5.71067e-07
-5.32933e-06
1.87753e-07
-3.68657e-06
-1.41672e-06
1.61284e-07
1.50803e-06
5.06625e-07
3.967e-06
8.92932e-07
5.80709e-06
1.21056e-06
7.05168e-06
1.39556e-06
7.77847e-06
1.42422e-06
8.08719e-06
1.30139e-06
8.07919e-06
1.04862e-06
7.84519e-06
6.94813e-07
7.45974e-06
2.69957e-07
6.98024e-06
-1.98372e-07
6.44863e-06
-6.86645e-07
5.89417e-06
-1.17577e-06
5.33622e-06
-1.65083e-06
4.78691e-06
-2.10051e-06
4.25315e-06
-2.51647e-06
3.73829e-06
-2.8927e-06
3.24332e-06
-3.22498e-06
2.7677e-06
-3.51046e-06
2.30997e-06
-3.74728e-06
1.86818e-06
-3.93433e-06
1.44012e-06
-4.07104e-06
1.02351e-06
-4.15723e-06
6.16129e-07
-4.19305e-06
2.15837e-07
-4.17888e-06
-1.79361e-07
-4.11535e-06
-5.71316e-07
-4.00329e-06
-9.61726e-07
-3.84379e-06
-1.35215e-06
-3.63824e-06
-1.74399e-06
-3.3884e-06
-2.13852e-06
-3.09649e-06
-2.53685e-06
-2.76532e-06
-2.93989e-06
-2.39847e-06
-3.3483e-06
-2.00047e-06
-3.7624e-06
-1.57708e-06
-4.18194e-06
-1.13558e-06
-4.6059e-06
-6.85119e-07
-5.03204e-06
-2.37088e-07
-5.45635e-06
1.9452e-07
-5.87221e-06
5.92863e-07
-6.26928e-06
9.38266e-07
-6.63202e-06
1.20876e-06
-6.93779e-06
1.38156e-06
-7.15478e-06
1.43594e-06
-7.23972e-06
1.35816e-06
-7.13631e-06
1.14881e-06
-6.77522e-06
8.32198e-07
-6.07751e-06
4.66039e-07
-4.96317e-06
1.46765e-07
-3.3673e-06
-1.26996e-06
1.32456e-07
1.37558e-06
4.30241e-07
3.66922e-06
7.85902e-07
5.45143e-06
1.1098e-06
6.72779e-06
1.34194e-06
7.54633e-06
1.45196e-06
7.97717e-06
1.43336e-06
8.09779e-06
1.29589e-06
7.98266e-06
1.05861e-06
7.69703e-06
7.44418e-07
7.29443e-06
3.76488e-07
6.81656e-06
-2.38587e-08
6.29451e-06
-4.38152e-07
5.75052e-06
-8.5106e-07
5.19982e-06
-1.25026e-06
4.65235e-06
-1.62612e-06
4.11415e-06
-1.97125e-06
3.58845e-06
-2.28012e-06
3.07657e-06
-2.54871e-06
2.57856e-06
-2.77414e-06
2.09361e-06
-2.95446e-06
1.62044e-06
-3.08844e-06
1.1575e-06
-3.17543e-06
7.03112e-07
-3.21521e-06
2.55624e-07
-3.20801e-06
-1.86569e-07
-3.15437e-06
-6.24954e-07
-3.05521e-06
-1.06088e-06
-2.91183e-06
-1.49553e-06
-2.72593e-06
-1.9299e-06
-2.49968e-06
-2.36477e-06
-2.23584e-06
-2.80068e-06
-1.93787e-06
-3.23786e-06
-1.61004e-06
-3.67613e-06
-1.25766e-06
-4.11477e-06
-8.87268e-07
-4.55234e-06
-5.06823e-07
-4.98634e-06
-1.25977e-07
-5.41289e-06
2.43745e-07
-5.82607e-06
5.88822e-07
-6.21729e-06
8.93801e-07
-6.57426e-06
1.14167e-06
-6.87989e-06
1.31478e-06
-7.11091e-06
1.39654e-06
-7.23654e-06
1.37423e-06
-7.2174e-06
1.24307e-06
-7.00516e-06
1.01169e-06
-6.54384e-06
7.07987e-07
-5.77381e-06
3.8415e-07
-4.63933e-06
1.17288e-07
-3.10044e-06
-1.15267e-06
1.10976e-07
1.2646e-06
3.69508e-07
3.41069e-06
6.93485e-07
5.12746e-06
1.0102e-06
6.41107e-06
1.26611e-06
7.29042e-06
1.42903e-06
7.81425e-06
1.48583e-06
8.04099e-06
1.43794e-06
8.03055e-06
1.29641e-06
7.83856e-06
1.07763e-06
7.51321e-06
8.00064e-07
7.09413e-06
4.82045e-07
6.61253e-06
1.40458e-07
6.0921e-06
-2.09904e-07
5.55018e-06
-5.56554e-07
4.999e-06
-8.89249e-07
4.44684e-06
-1.19979e-06
3.89898e-06
-1.48174e-06
3.35853e-06
-1.73019e-06
2.82701e-06
-1.94145e-06
2.30487e-06
-2.11287e-06
1.79186e-06
-2.24264e-06
1.28727e-06
-2.32964e-06
7.90112e-07
-2.37335e-06
2.99329e-07
-2.37375e-06
-1.86165e-07
-2.33132e-06
-6.67384e-07
-2.24699e-06
-1.14521e-06
-2.12215e-06
-1.62037e-06
-1.9587e-06
-2.09334e-06
-1.75913e-06
-2.56435e-06
-1.52653e-06
-3.03328e-06
-1.26477e-06
-3.49963e-06
-9.7856e-07
-3.96234e-06
-6.73632e-07
-4.4197e-06
-3.56858e-07
-4.86911e-06
-3.64025e-08
-5.3068e-06
2.7816e-07
-5.72745e-06
5.75798e-07
-6.12371e-06
8.44084e-07
-6.48558e-06
1.06947e-06
-6.79965e-06
1.23789e-06
-7.0483e-06
1.33579e-06
-7.2088e-06
1.35181e-06
-7.25257e-06
1.27926e-06
-7.14485e-06
1.11924e-06
-6.84514e-06
8.84472e-07
-6.30906e-06
6.02791e-07
-5.49213e-06
3.19341e-07
-4.35588e-06
9.53043e-08
-2.8764e-06
-1.05737e-06
9.43839e-08
1.17022e-06
3.20248e-07
3.18482e-06
6.13729e-07
4.83398e-06
9.15851e-07
6.10895e-06
1.18006e-06
7.02621e-06
1.37506e-06
7.61925e-06
1.48437e-06
7.93168e-06
1.50389e-06
8.01104e-06
1.43861e-06
7.90384e-06
1.2994e-06
7.65242e-06
1.10027e-06
7.29326e-06
8.56309e-07
6.85649e-06
5.82295e-07
6.36612e-06
2.91848e-07
5.84063e-06
-3.01374e-09
5.29386e-06
-2.92023e-07
4.73585e-06
-5.66644e-07
4.17361e-06
-8.1994e-07
3.61183e-06
-1.0464e-06
3.05347e-06
-1.24177e-06
2.50024e-06
-1.40283e-06
1.95293e-06
-1.5273e-06
1.41174e-06
-1.61367e-06
8.76479e-07
-1.6611e-06
3.4676e-07
-1.66937e-06
-1.77893e-07
-1.63882e-06
-6.97934e-07
-1.57033e-06
-1.21371e-06
-1.46532e-06
-1.72538e-06
-1.32579e-06
-2.23287e-06
-1.15435e-06
-2.73579e-06
-9.54286e-07
-3.23334e-06
-7.29649e-07
-3.72426e-06
-4.85334e-07
-4.20665e-06
-2.27177e-07
-4.67786e-06
3.79518e-08
-5.13424e-06
3.02083e-07
-5.57093e-06
5.56128e-07
-5.98149e-06
7.89941e-07
-6.35752e-06
9.92516e-07
-6.68815e-06
1.15238e-06
-6.95951e-06
1.25827e-06
-7.1542e-06
1.30019e-06
-7.25073e-06
1.27092e-06
-7.2233e-06
1.16797e-06
-7.04189e-06
9.95988e-07
-6.67316e-06
7.6923e-07
-6.08231e-06
5.13562e-07
-5.23647e-06
2.6711e-07
-4.10943e-06
7.83587e-08
-2.68765e-06
-9.79009e-07
8.11486e-08
1.08907e-06
2.79434e-07
2.98654e-06
5.44378e-07
4.56903e-06
8.27958e-07
5.82537e-06
1.09026e-06
6.76391e-06
1.30224e-06
7.40727e-06
1.44621e-06
7.78771e-06
1.51467e-06
7.94257e-06
1.50827e-06
7.91024e-06
1.43345e-06
7.72724e-06
1.3003e-06
7.4264e-06
1.12079e-06
7.036e-06
9.07393e-07
6.57952e-06
6.72186e-07
6.07583e-06
4.2629e-07
5.53976e-06
1.79555e-07
4.98259e-06
-5.95443e-08
4.41271e-06
-2.83907e-07
3.83619e-06
-4.87724e-07
3.25729e-06
-6.66362e-07
2.67888e-06
-8.16237e-07
2.1028e-06
-9.34695e-07
1.53019e-06
-1.0199e-06
9.61685e-07
-1.07075e-06
3.97614e-07
-1.08682e-06
-1.61831e-07
-1.06827e-06
-7.16479e-07
-1.0159e-06
-1.26608e-06
-9.31068e-07
-1.81021e-06
-8.15759e-07
-2.34818e-06
-6.72593e-07
-2.87895e-06
-5.04873e-07
-3.40106e-06
-3.16647e-07
-3.91249e-06
-1.12759e-07
-4.41054e-06
1.01088e-07
-4.8917e-06
3.183e-07
-5.35145e-06
5.31382e-07
-5.78401e-06
7.31995e-07
-6.18211e-06
9.11089e-07
-6.53662e-06
1.05918e-06
-6.83624e-06
1.16681e-06
-7.06714e-06
1.2252e-06
-7.21258e-06
1.22724e-06
-7.25277e-06
1.16875e-06
-7.16481e-06
1.05004e-06
-6.92319e-06
8.7759e-07
-6.50071e-06
6.65651e-07
-5.87037e-06
4.37274e-07
-5.00809e-06
2.24194e-07
-3.89635e-06
6.4906e-08
-2.52836e-06
-9.14103e-07
7.02817e-08
1.01879e-06
2.44888e-07
2.81193e-06
4.83366e-07
4.33055e-06
7.4641e-07
5.56233e-06
1.00006e-06
6.51027e-06
1.2181e-06
7.18923e-06
1.38295e-06
7.62285e-06
1.48528e-06
7.84025e-06
1.52275e-06
7.87278e-06
1.49844e-06
7.75155e-06
1.41919e-06
7.50565e-06
1.29414e-06
7.16106e-06
1.13347e-06
6.74018e-06
9.47596e-07
6.26171e-06
7.46464e-07
5.74089e-06
5.39215e-07
5.18983e-06
3.3395e-07
4.61797e-06
1.37655e-07
4.03248e-06
-4.38055e-08
3.43875e-06
-2.05634e-07
2.8407e-06
-3.44024e-07
2.24119e-06
-4.56077e-07
1.64225e-06
-5.39715e-07
1.04532e-06
-5.93609e-07
4.51508e-07
-6.17124e-07
-1.38316e-07
-6.10271e-07
-7.23332e-07
-5.73686e-07
-1.30266e-06
-5.08621e-07
-1.87527e-06
-4.16947e-07
-2.43985e-06
-3.01177e-07
-2.99472e-06
-1.64491e-07
-3.53775e-06
-1.07749e-08
-4.06621e-06
1.55354e-07
-4.57667e-06
3.28524e-07
-5.06487e-06
5.02606e-07
-5.52553e-06
6.70762e-07
-5.95217e-06
8.25541e-07
-6.33689e-06
9.59066e-07
-6.67014e-06
1.06334e-06
-6.94052e-06
1.13071e-06
-7.13451e-06
1.15448e-06
-7.23635e-06
1.12977e-06
-7.22806e-06
1.05454e-06
-7.08958e-06
9.3077e-07
-6.79941e-06
7.65629e-07
-6.33557e-06
5.72474e-07
-5.67721e-06
3.71288e-07
-4.8069e-06
1.88234e-07
-3.7133e-06
5.39374e-08
-2.39406e-06
-8.60165e-07
6.11244e-08
9.57664e-07
2.15035e-07
2.65802e-06
4.28956e-07
4.11663e-06
6.70558e-07
5.32072e-06
9.11058e-07
6.26977e-06
1.12723e-06
6.97305e-06
1.30239e-06
7.44769e-06
1.42642e-06
7.71623e-06
1.49508e-06
7.80411e-06
1.50901e-06
7.73762e-06
1.47245e-06
7.54221e-06
1.39209e-06
7.24143e-06
1.27602e-06
6.85624e-06
1.13296e-06
6.40477e-06
9.71583e-07
5.90227e-06
8.00129e-07
5.36129e-06
6.26115e-07
4.79198e-06
4.56192e-07
4.20241e-06
2.96079e-07
3.59886e-06
1.50563e-07
2.98622e-06
2.35282e-08
2.36823e-06
-8.19926e-08
1.74777e-06
-1.63758e-07
1.12709e-06
-2.20265e-07
5.08015e-07
-2.50698e-07
-1.07883e-07
-2.54892e-07
-7.19137e-07
-2.33311e-07
-1.32425e-06
-1.87032e-07
-1.92155e-06
-1.17743e-07
-2.50914e-06
-2.77557e-08
-3.08471e-06
7.99845e-08
-3.64549e-06
2.01882e-07
-4.1881e-06
3.33682e-07
-4.70847e-06
4.70475e-07
-5.20167e-06
6.06729e-07
-5.66179e-06
7.36361e-07
-6.0818e-06
8.52862e-07
-6.45339e-06
9.4951e-07
-6.76679e-06
1.01968e-06
-7.01069e-06
1.05725e-06
-7.17208e-06
1.0572e-06
-7.23631e-06
1.01631e-06
-7.18716e-06
9.33916e-07
-7.00719e-06
8.1287e-07
-6.67837e-06
6.60288e-07
-6.18299e-06
4.8815e-07
-5.50507e-06
3.13424e-07
-4.63218e-06
1.57503e-07
-3.55738e-06
4.47706e-08
-2.28133e-06
-8.15395e-07
5.32235e-08
9.0444e-07
1.88727e-07
2.52252e-06
3.79744e-07
3.92561e-06
5.99582e-07
5.10089e-06
8.23926e-07
6.04542e-06
1.03246e-06
6.76451e-06
1.20981e-06
7.27035e-06
1.34579e-06
7.58025e-06
1.43509e-06
7.7148e-06
1.47664e-06
7.69607e-06
1.47268e-06
7.54617e-06
1.42787e-06
7.28624e-06
1.34846e-06
6.93565e-06
1.24157e-06
6.51167e-06
1.11458e-06
6.02926e-06
9.74737e-07
5.50113e-06
8.28835e-07
4.93789e-06
6.83039e-07
4.3482e-06
5.42767e-07
3.73913e-06
4.12649e-07
3.11634e-06
2.96524e-07
2.48435e-06
1.97457e-07
1.84683e-06
1.17777e-07
1.20677e-06
5.91117e-08
5.6668e-07
2.2429e-08
-7.12007e-08
8.06529e-09
-7.04774e-07
1.57494e-08
-1.33193e-06
4.46175e-08
-1.95042e-06
9.32192e-08
-2.55774e-06
1.59518e-07
-3.15101e-06
2.40889e-07
-3.72686e-06
3.34118e-07
-4.28133e-06
4.35409e-07
-4.80976e-06
5.40405e-07
-5.30666e-06
6.44242e-07
-5.76562e-06
7.41631e-07
-6.17919e-06
8.27005e-07
-6.53876e-06
8.94719e-07
-6.8345e-06
9.39346e-07
-7.05531e-06
9.56062e-07
-7.1888e-06
9.41121e-07
-7.22137e-06
8.92436e-07
-7.13847e-06
8.10206e-07
-6.92496e-06
6.97555e-07
-6.56572e-06
5.61073e-07
-6.0465e-06
4.11148e-07
-5.35515e-06
2.61921e-07
-4.48295e-06
1.30726e-07
-3.42618e-06
3.69291e-08
-2.18754e-06
-7.78466e-07
4.62589e-08
8.58182e-07
1.65116e-07
2.40366e-06
3.3461e-07
3.75612e-06
5.32668e-07
4.90283e-06
7.38815e-07
5.83928e-06
9.35468e-07
6.56786e-06
1.10877e-06
7.09704e-06
1.24895e-06
7.44008e-06
1.3502e-06
7.61354e-06
1.41033e-06
7.63594e-06
1.4301e-06
7.5264e-06
1.41257e-06
7.30378e-06
1.36239e-06
6.98583e-06
1.28523e-06
6.58882e-06
1.18724e-06
6.12724e-06
1.07465e-06
5.61372e-06
9.5346e-07
5.05908e-06
8.29242e-07
4.47242e-06
7.07001e-07
3.86137e-06
5.91101e-07
3.23224e-06
4.85231e-07
2.59022e-06
3.92399e-07
1.93967e-06
3.14952e-07
1.28422e-06
2.54592e-07
6.27039e-07
2.1241e-07
-2.90183e-08
1.88903e-07
-6.81267e-07
1.84e-07
-1.32703e-06
1.97073e-07
-1.96349e-06
2.26951e-07
-2.58762e-06
2.71922e-07
-3.19598e-06
3.29743e-07
-3.78468e-06
3.97644e-07
-4.34923e-06
4.72349e-07
-4.88447e-06
5.50107e-07
-5.38442e-06
6.26752e-07
-5.84227e-06
6.97794e-07
-6.25023e-06
7.58559e-07
-6.59952e-06
8.04382e-07
-6.88033e-06
8.30866e-07
-7.0818e-06
8.34216e-07
-7.19215e-06
8.11639e-07
-7.19879e-06
7.61802e-07
-7.08863e-06
6.85312e-07
-6.84847e-06
5.85185e-07
-6.46559e-06
4.672e-07
-5.92852e-06
3.4008e-07
-5.22803e-06
2.15372e-07
-4.35824e-06
1.06943e-07
-3.31775e-06
3.00713e-08
-2.11066e-06
-7.48394e-07
3.99991e-08
8.18183e-07
1.43566e-07
2.30009e-06
2.92669e-07
3.60702e-06
4.69075e-07
4.72642e-06
6.5563e-07
5.65272e-06
8.37269e-07
6.38622e-06
1.00174e-06
6.93258e-06
1.13995e-06
7.30186e-06
1.24606e-06
7.50743e-06
1.3172e-06
7.5648e-06
1.35307e-06
7.49053e-06
1.35549e-06
7.30136e-06
1.32779e-06
7.01352e-06
1.27438e-06
6.64224e-06
1.20025e-06
6.20138e-06
1.11063e-06
5.70334e-06
1.01072e-06
5.15899e-06
9.05436e-07
4.57771e-06
7.99291e-07
3.96752e-06
6.96299e-07
3.33523e-06
5.99916e-07
2.68661e-06
5.13021e-07
2.02656e-06
4.37916e-07
1.35932e-06
3.7633e-07
6.88625e-07
3.29443e-07
1.78691e-08
2.97897e-07
-6.49721e-07
2.81818e-07
-1.31095e-06
2.80828e-07
-1.96251e-06
2.94057e-07
-2.60085e-06
3.20153e-07
-3.22208e-06
3.57288e-07
-3.82182e-06
4.0318e-07
-4.39513e-06
4.55105e-07
-4.93639e-06
5.09945e-07
-5.43926e-06
5.64236e-07
-5.89656e-06
6.14262e-07
-6.30026e-06
6.56182e-07
-6.64144e-06
6.86197e-07
-6.91034e-06
7.00778e-07
-7.09638e-06
6.96939e-07
-7.18831e-06
6.72566e-07
-7.17442e-06
6.26769e-07
-7.04284e-06
5.60257e-07
-6.78196e-06
4.75666e-07
-6.381e-06
3.77804e-07
-5.83066e-06
2.73738e-07
-5.12396e-06
1.72652e-07
-4.25715e-06
8.54289e-08
-3.23053e-06
2.3946e-08
-2.04918e-06
-7.24448e-07
3.42728e-08
7.8391e-07
1.23594e-07
2.21077e-06
2.53217e-07
3.47739e-06
4.08157e-07
4.57148e-06
5.74155e-07
5.48672e-06
7.38454e-07
6.22192e-06
8.90403e-07
6.78063e-06
1.02181e-06
7.17045e-06
1.12703e-06
7.40221e-06
1.2029e-06
7.48893e-06
1.24843e-06
7.445e-06
1.26448e-06
7.28531e-06
1.25332e-06
7.02468e-06
1.21826e-06
6.6773e-06
1.16325e-06
6.25638e-06
1.09261e-06
5.77398e-06
1.01071e-06
5.24089e-06
9.21782e-07
4.66663e-06
8.29817e-07
4.05948e-06
7.38412e-07
3.42664e-06
6.50728e-07
2.77429e-06
5.69453e-07
2.10783e-06
4.9679e-07
1.43199e-06
4.3445e-07
7.50964e-07
3.83669e-07
6.86502e-08
3.45213e-07
-6.11265e-07
3.19396e-07
-1.28513e-06
3.06089e-07
-1.9492e-06
3.04734e-07
-2.59949e-06
3.14354e-07
-3.2317e-06
3.33562e-07
-3.84102e-06
3.60579e-07
-4.42214e-06
3.93254e-07
-4.96907e-06
4.29101e-07
-5.47511e-06
4.65349e-07
-5.93281e-06
4.99021e-07
-6.33393e-06
5.27037e-07
-6.66946e-06
5.46363e-07
-6.92967e-06
5.54191e-07
-7.10421e-06
5.4816e-07
-7.18228e-06
5.26614e-07
-7.15287e-06
4.88879e-07
-7.0051e-06
4.3554e-07
-6.72862e-06
3.68679e-07
-6.31414e-06
2.92046e-07
-5.75402e-06
2.11097e-07
-5.04301e-06
1.32863e-07
-4.17892e-06
6.56227e-08
-3.16329e-06
1.83651e-08
-2.00192e-06
-7.06083e-07
2.89505e-08
7.54959e-07
1.04829e-07
2.13489e-06
2.15692e-07
3.36653e-06
3.4936e-07
4.43781e-06
4.94126e-07
5.34196e-06
6.39353e-07
6.0767e-06
7.75963e-07
6.64402e-06
8.96746e-07
7.04967e-06
9.965e-07
7.30246e-06
1.072e-06
7.41343e-06
1.12184e-06
7.39515e-06
1.14619e-06
7.26097e-06
1.14646e-06
7.02441e-06
1.12505e-06
6.69871e-06
1.085e-06
6.29643e-06
1.02974e-06
5.82924e-06
9.62864e-07
5.30777e-06
8.87941e-07
4.74155e-06
8.08382e-07
4.13904e-06
7.27336e-07
3.50768e-06
6.47623e-07
2.85401e-06
5.71689e-07
2.18377e-06
5.01589e-07
1.50209e-06
4.38979e-07
8.13574e-07
3.85116e-07
1.22514e-07
3.40865e-07
-5.67014e-07
3.06711e-07
-1.25098e-06
2.82769e-07
-1.92526e-06
2.68791e-07
-2.58552e-06
2.6418e-07
-3.22708e-06
2.67995e-07
-3.84484e-06
2.78971e-07
-4.43312e-06
2.95528e-07
-4.98563e-06
3.15809e-07
-5.49539e-06
3.37713e-07
-5.95471e-06
3.58959e-07
-6.35518e-06
3.77171e-07
-6.68767e-06
3.89983e-07
-6.94248e-06
3.95189e-07
-7.10941e-06
3.90906e-07
-7.17799e-06
3.75772e-07
-7.13774e-06
3.49157e-07
-6.97849e-06
3.11366e-07
-6.69083e-06
2.63817e-07
-6.26659e-06
2.09159e-07
-5.69937e-06
1.51295e-07
-4.98515e-06
9.52835e-08
-4.12291e-06
4.70874e-08
-3.11509e-06
1.3185e-08
-1.96802e-06
-6.92898e-07
2.3932e-08
7.31027e-07
8.69749e-08
2.07185e-06
1.79637e-07
3.27387e-06
2.92207e-07
4.32524e-06
4.15266e-07
5.2189e-06
5.40135e-07
5.95183e-06
6.59261e-07
6.52489e-06
7.6648e-07
6.94245e-06
8.57161e-07
7.21178e-06
9.28222e-07
7.34237e-06
9.78046e-07
7.34533e-06
1.00631e-06
7.23271e-06
1.01378e-06
7.01694e-06
1.00207e-06
6.71041e-06
9.73422e-07
6.32508e-06
9.30466e-07
5.8722e-06
8.76053e-07
5.36219e-06
8.13086e-07
4.80452e-06
7.44401e-07
4.20773e-06
6.72666e-07
3.57942e-06
6.00322e-07
2.92635e-06
5.29536e-07
2.25455e-06
4.62176e-07
1.56944e-06
3.99803e-07
8.75948e-07
3.43662e-07
1.78655e-07
2.94691e-07
-5.18043e-07
2.53527e-07
-1.20981e-06
2.20511e-07
-1.89224e-06
1.95699e-07
-2.5607e-06
1.78867e-07
-3.21025e-06
1.69521e-07
-3.83549e-06
1.66902e-07
-4.4305e-06
1.7e-07
-4.98872e-06
1.7757e-07
-5.50296e-06
1.88161e-07
-5.9653e-06
2.00152e-07
-6.36717e-06
2.11813e-07
-6.69933e-06
2.21377e-07
-6.95205e-06
2.27145e-07
-7.11518e-06
2.27602e-07
-7.17845e-06
2.21561e-07
-7.1317e-06
2.08315e-07
-6.96524e-06
1.87786e-07
-6.6703e-06
1.60658e-07
-6.23946e-06
1.28464e-07
-5.66717e-06
9.36144e-08
-4.9503e-06
5.93305e-08
-4.08862e-06
2.94771e-08
-3.08524e-06
8.29373e-09
-1.94684e-06
-6.84605e-07
1.91369e-08
7.1189e-07
6.9793e-08
2.02119e-06
1.44672e-07
3.19899e-06
2.36284e-07
4.23363e-06
3.37296e-07
5.11789e-06
4.4086e-07
5.84826e-06
5.40899e-07
6.42485e-06
6.32324e-07
6.85103e-06
7.1117e-07
7.13293e-06
7.74636e-07
7.2789e-06
8.21052e-07
7.29891e-06
8.49778e-07
7.20398e-06
8.61064e-07
7.00565e-06
8.55884e-07
6.71559e-06
8.35766e-07
6.3452e-06
8.02619e-07
5.90534e-06
7.58593e-07
5.40621e-06
7.05939e-07
4.85717e-06
6.46913e-07
4.26675e-06
5.83689e-07
3.64264e-06
5.18302e-07
2.99174e-06
4.52605e-07
2.32025e-06
3.88247e-07
1.6338e-06
3.26655e-07
9.3754e-07
2.69034e-07
2.36275e-07
2.16366e-07
-4.65375e-07
1.69414e-07
-1.16286e-06
1.28729e-07
-1.85155e-06
9.46526e-08
-2.52663e-06
6.73253e-08
-3.18293e-06
4.66866e-08
-3.81486e-06
3.24782e-08
-4.41629e-06
2.42469e-08
-4.98049e-06
2.13493e-08
-5.50006e-06
2.29612e-08
-5.96691e-06
2.80944e-08
-6.3723e-06
3.56243e-08
-6.70686e-06
4.43313e-08
-6.96075e-06
5.29581e-08
-7.12381e-06
6.02842e-08
-7.18578e-06
6.52171e-08
-7.13663e-06
6.68939e-08
-6.96692e-06
6.47887e-08
-6.6682e-06
5.881e-08
-6.23348e-06
4.93767e-08
-5.65774e-06
3.74529e-08
-4.93838e-06
2.45252e-08
-4.0757e-06
1.25123e-08
-3.07323e-06
3.60204e-09
-1.93793e-06
-6.81003e-07
1.44988e-08
6.97392e-07
5.3082e-08
1.98261e-06
1.1047e-07
3.1416e-06
1.81219e-07
4.16288e-06
2.5994e-07
5.03917e-06
3.41515e-07
5.76669e-06
4.21306e-07
6.34506e-06
4.95312e-07
6.77702e-06
5.60297e-07
7.06794e-06
6.13836e-07
7.22536e-06
6.54323e-07
7.25843e-06
6.80923e-07
7.17738e-06
6.93488e-07
6.99309e-06
6.92451e-07
6.71663e-06
6.78712e-07
6.35894e-06
6.53515e-07
5.93054e-06
6.18345e-07
5.44138e-06
5.74822e-07
4.9007e-06
5.24624e-07
4.31695e-06
4.69417e-07
3.69785e-06
4.10811e-07
3.05034e-06
3.50317e-07
2.38075e-06
2.89333e-07
1.69479e-06
2.29124e-07
9.97748e-07
1.70822e-07
2.94578e-07
1.15422e-07
-4.09975e-07
6.37891e-08
-1.11123e-06
1.66589e-08
-1.80442e-06
-2.53584e-08
-2.48461e-06
-6.17764e-08
-3.14651e-06
-9.22347e-08
-3.7844e-06
-1.16504e-07
-4.39202e-06
-1.34491e-07
-4.9625e-06
-1.46251e-07
-5.4883e-06
-1.51994e-07
-5.96117e-06
-1.52096e-07
-6.3722e-06
-1.47097e-07
-6.71186e-06
-1.37701e-07
-6.97015e-06
-1.24759e-07
-7.13675e-06
-1.09237e-07
-7.2013e-06
-9.21799e-08
-7.15369e-06
-7.46475e-08
-6.98445e-06
-5.76492e-08
-6.68519e-06
-4.20705e-08
-6.24906e-06
-2.86041e-08
-5.67121e-06
-1.76977e-08
-4.94928e-06