/*--------------------------------*- C++ -*----------------------------------*\
  =========                 |
  \\      /  F ield         | OpenFOAM: The Open Source CFD Toolbox
   \\    /   O peration     | Website:  https://openfoam.org
    \\  /    A nd           | Version:  7
     \\/     M anipulation  |
\*---------------------------------------------------------------------------*/
FoamFile
{
    version     2.0;
    format      ascii;
    class       volScalarField;
    location    "0.0596";
    object      p;
}
// * * * * * * * * * * * * * * * * * * * * * * * * * * * * * * * * * * * * * //

dimensions      [0 2 -2 0 0 0 0];

internalField   nonuniform List<scalar> 
2500
(
2.7619e-05
-6.51209
-9.29753
-10.4938
-11.1596
-11.5663
-11.8304
-12.0156
-12.1537
-12.2612
-12.3473
-12.4177
-12.4761
-12.5251
-12.5665
-12.6017
-12.6316
-12.6571
-12.6788
-12.6973
-12.7129
-12.7261
-12.7372
-12.7466
-12.7546
-12.7615
-12.7676
-12.7733
-12.7788
-12.7847
-12.7913
-12.7989
-12.8083
-12.8198
-12.8343
-12.8525
-12.8754
-12.9044
-12.9412
-12.9881
-13.0485
-13.1278
-13.2346
-13.3844
-13.6082
-13.9668
-14.5672
-15.6684
-18.3358
-24.7206
-4.95532
-7.67545
-9.18247
-10.1429
-10.8111
-11.2716
-11.5936
-11.8274
-12.0033
-12.1395
-12.2476
-12.3352
-12.4072
-12.4674
-12.518
-12.5609
-12.5975
-12.6289
-12.6558
-12.6791
-12.6991
-12.7164
-12.7315
-12.7448
-12.7566
-12.7673
-12.7772
-12.7869
-12.7966
-12.8068
-12.8179
-12.8306
-12.8455
-12.8632
-12.8846
-12.9109
-12.9434
-12.9838
-13.0346
-13.0991
-13.1822
-13.291
-13.4366
-13.6364
-13.9194
-14.3336
-14.9439
-15.8325
-17.2527
-19.8517
-7.9245
-8.75718
-9.55845
-10.2398
-10.7804
-11.1909
-11.501
-11.7382
-11.9228
-12.0688
-12.1864
-12.2825
-12.362
-12.4287
-12.485
-12.533
-12.5741
-12.6095
-12.6402
-12.6668
-12.6901
-12.7105
-12.7285
-12.7447
-12.7593
-12.7728
-12.7857
-12.7982
-12.8109
-12.8243
-12.8388
-12.8551
-12.8738
-12.8958
-12.9219
-12.9534
-12.9919
-13.0392
-13.0978
-13.1713
-13.2645
-13.3841
-13.5397
-13.7449
-14.019
-14.3883
-14.8811
-15.5094
-16.2552
-17.0185
-9.43362
-9.64733
-10.0667
-10.5121
-10.9054
-11.233
-11.5
-11.7162
-11.8916
-12.035
-12.1531
-12.2513
-12.3337
-12.4034
-12.4629
-12.514
-12.558
-12.5962
-12.6295
-12.6587
-12.6844
-12.7071
-12.7275
-12.7458
-12.7627
-12.7785
-12.7935
-12.8084
-12.8234
-12.8392
-12.8562
-12.8751
-12.8966
-12.9215
-12.9508
-12.9856
-13.0275
-13.0783
-13.1403
-13.2167
-13.3114
-13.4296
-13.578
-13.765
-14.0002
-14.293
-14.6488
-15.0551
-15.4375
-15.6153
-10.3188
-10.3187
-10.523
-10.8002
-11.0753
-11.3258
-11.5449
-11.7323
-11.891
-12.0251
-12.1385
-12.2348
-12.317
-12.3875
-12.4483
-12.5009
-12.5468
-12.5869
-12.6221
-12.6532
-12.6808
-12.7054
-12.7276
-12.7478
-12.7665
-12.7842
-12.8011
-12.8178
-12.8348
-12.8525
-12.8715
-12.8924
-12.9159
-12.9428
-12.9741
-13.0108
-13.0544
-13.1064
-13.1689
-13.2443
-13.3356
-13.4462
-13.5802
-13.7415
-13.9332
-14.1552
-14.4012
-14.6505
-14.8304
-14.812
-10.8851
-10.8114
-10.9006
-11.0685
-11.2567
-11.4435
-11.618
-11.7751
-11.9137
-12.0348
-12.1402
-12.2316
-12.3111
-12.3803
-12.4408
-12.4938
-12.5403
-12.5814
-12.6178
-12.6501
-12.679
-12.7051
-12.7287
-12.7504
-12.7705
-12.7895
-12.8079
-12.8261
-12.8445
-12.8636
-12.884
-12.9063
-12.9311
-12.9591
-12.9914
-13.0288
-13.0725
-13.1238
-13.1844
-13.256
-13.3405
-13.4401
-13.5564
-13.6906
-13.8418
-14.0054
-14.1715
-14.3195
-14.3933
-14.3118
-11.2669
-11.1765
-11.2073
-11.3067
-11.4336
-11.5703
-11.7063
-11.8349
-11.953
-12.0597
-12.1549
-12.2396
-12.3146
-12.381
-12.4398
-12.4919
-12.5382
-12.5794
-12.6163
-12.6492
-12.6789
-12.7059
-12.7304
-12.7531
-12.7742
-12.7943
-12.8137
-12.8329
-12.8523
-12.8723
-12.8936
-12.9166
-12.942
-12.9704
-13.0027
-13.0396
-13.0821
-13.1314
-13.1884
-13.2543
-13.3304
-13.4173
-13.5155
-13.6243
-13.7408
-13.859
-13.9691
-14.0545
-14.0758
-13.9835
-11.5398
-11.4533
-11.455
-11.5121
-11.5966
-11.6956
-11.8001
-11.9038
-12.0027
-12.0948
-12.1794
-12.2562
-12.3256
-12.3881
-12.4442
-12.4946
-12.5398
-12.5804
-12.617
-12.6501
-12.6801
-12.7074
-12.7325
-12.7557
-12.7775
-12.7982
-12.8183
-12.838
-12.858
-12.8785
-12.9001
-12.9233
-12.9487
-12.9768
-13.0084
-13.044
-13.0845
-13.1306
-13.183
-13.2425
-13.3094
-13.3838
-13.4651
-13.5517
-13.6401
-13.7245
-13.7964
-13.8437
-13.8401
-13.7549
-11.7455
-11.6683
-11.6559
-11.687
-11.7426
-11.8138
-11.8935
-11.9761
-12.0579
-12.1364
-12.2104
-12.2791
-12.3424
-12.4002
-12.4529
-12.5009
-12.5444
-12.5838
-12.6197
-12.6523
-12.6821
-12.7094
-12.7346
-12.7581
-12.7801
-12.8011
-12.8214
-12.8414
-12.8615
-12.8821
-12.9037
-12.9267
-12.9516
-12.9789
-13.0091
-13.0429
-13.0807
-13.1231
-13.1705
-13.2232
-13.2811
-13.3438
-13.4103
-13.4785
-13.545
-13.6047
-13.6509
-13.6754
-13.6605
-13.5868
-11.9068
-11.8395
-11.8206
-11.8357
-11.8717
-11.9225
-11.983
-12.0484
-12.1154
-12.1817
-12.2456
-12.3063
-12.3633
-12.4162
-12.4651
-12.51
-12.5513
-12.5892
-12.6238
-12.6556
-12.6848
-12.7117
-12.7366
-12.7599
-12.7818
-12.8028
-12.823
-12.843
-12.8629
-12.8833
-12.9044
-12.9268
-12.9508
-12.9769
-13.0055
-13.037
-13.0719
-13.1103
-13.1526
-13.1986
-13.2482
-13.3006
-13.3545
-13.4078
-13.4576
-13.4995
-13.5287
-13.5396
-13.5203
-13.4577
-12.0373
-11.9788
-11.9573
-11.9625
-11.9851
-12.0212
-12.0668
-12.1184
-12.173
-12.2285
-12.2833
-12.3364
-12.387
-12.4349
-12.4797
-12.5214
-12.5601
-12.5959
-12.629
-12.6596
-12.6878
-12.714
-12.7383
-12.7612
-12.7827
-12.8033
-12.8232
-12.8428
-12.8623
-12.8821
-12.9026
-12.9241
-12.9469
-12.9715
-12.9982
-13.0273
-13.059
-13.0934
-13.1307
-13.1707
-13.2127
-13.2562
-13.2996
-13.3412
-13.3783
-13.4076
-13.4256
-13.4285
-13.4081
-13.3553
-12.1452
-12.0942
-12.0721
-12.0713
-12.0849
-12.1102
-12.1444
-12.1849
-12.2291
-12.2753
-12.3219
-12.3679
-12.4126
-12.4555
-12.4961
-12.5344
-12.5703
-12.6038
-12.635
-12.6641
-12.691
-12.7162
-12.7397
-12.7618
-12.7827
-12.8027
-12.822
-12.8409
-12.8598
-12.8788
-12.8984
-12.9188
-12.9403
-12.9632
-12.9878
-13.0144
-13.0429
-13.0736
-13.1063
-13.1406
-13.1762
-13.212
-13.247
-13.2794
-13.307
-13.3274
-13.338
-13.3363
-13.3165
-13.2719
-12.236
-12.1913
-12.1698
-12.1653
-12.1726
-12.1901
-12.2157
-12.2473
-12.283
-12.3212
-12.3606
-12.4002
-12.4393
-12.4773
-12.5138
-12.5486
-12.5815
-12.6126
-12.6417
-12.6689
-12.6944
-12.7183
-12.7407
-12.7618
-12.7819
-12.801
-12.8195
-12.8376
-12.8556
-12.8737
-12.8922
-12.9113
-12.9313
-12.9525
-12.975
-12.999
-13.0246
-13.0517
-13.0801
-13.1096
-13.1395
-13.169
-13.1971
-13.2224
-13.243
-13.2571
-13.2628
-13.2586
-13.2402
-13.2025
-12.3135
-12.2742
-12.2537
-12.2471
-12.2502
-12.2619
-12.2809
-12.3055
-12.3341
-12.3655
-12.3986
-12.4325
-12.4664
-12.4998
-12.5323
-12.5636
-12.5935
-12.6219
-12.6488
-12.6741
-12.6979
-12.7203
-12.7414
-12.7613
-12.7803
-12.7984
-12.8159
-12.8331
-12.85
-12.867
-12.8842
-12.902
-12.9205
-12.9399
-12.9603
-12.9818
-13.0046
-13.0283
-13.053
-13.0782
-13.1033
-13.1277
-13.1503
-13.17
-13.1854
-13.195
-13.1977
-13.1923
-13.1756
-13.1436
-12.3804
-12.3457
-12.3266
-12.3188
-12.3191
-12.3266
-12.3405
-12.3595
-12.3823
-12.408
-12.4356
-12.4643
-12.4935
-12.5226
-12.5512
-12.5791
-12.606
-12.6317
-12.6562
-12.6794
-12.7014
-12.7222
-12.7418
-12.7604
-12.7781
-12.7951
-12.8115
-12.8275
-12.8432
-12.859
-12.8749
-12.8913
-12.9081
-12.9257
-12.9441
-12.9633
-12.9834
-13.0042
-13.0255
-13.0469
-13.068
-13.0881
-13.1064
-13.1218
-13.1334
-13.14
-13.1406
-13.1348
-13.12
-13.093
-12.4388
-12.4081
-12.3905
-12.3822
-12.3805
-12.3851
-12.3951
-12.4096
-12.4277
-12.4486
-12.4714
-12.4955
-12.5204
-12.5455
-12.5705
-12.595
-12.6189
-12.6419
-12.664
-12.6851
-12.7051
-12.7241
-12.7421
-12.7593
-12.7756
-12.7912
-12.8063
-12.8211
-12.8356
-12.85
-12.8646
-12.8794
-12.8947
-12.9105
-12.9269
-12.9439
-12.9615
-12.9796
-12.9979
-13.0162
-13.0339
-13.0505
-13.0652
-13.0774
-13.0862
-13.0906
-13.0902
-13.0845
-13.0715
-13.0487
-12.4901
-12.4631
-12.447
-12.4386
-12.4358
-12.4381
-12.4451
-12.4561
-12.4703
-12.4871
-12.5058
-12.5259
-12.5468
-12.5683
-12.5898
-12.6111
-12.6321
-12.6524
-12.6721
-12.6909
-12.7089
-12.7261
-12.7424
-12.7579
-12.7728
-12.787
-12.8008
-12.8141
-12.8273
-12.8403
-12.8535
-12.8668
-12.8804
-12.8944
-12.9089
-12.9239
-12.9392
-12.9549
-12.9706
-12.9861
-13.0009
-13.0146
-13.0266
-13.0363
-13.043
-13.046
-13.045
-13.0397
-13.0286
-13.0096
-12.5356
-12.5119
-12.4973
-12.4893
-12.4857
-12.4865
-12.4912
-12.4994
-12.5104
-12.5237
-12.5388
-12.5553
-12.5728
-12.5908
-12.6091
-12.6274
-12.6455
-12.6632
-12.6804
-12.697
-12.713
-12.7282
-12.7428
-12.7566
-12.7699
-12.7826
-12.7949
-12.8069
-12.8186
-12.8302
-12.8418
-12.8536
-12.8656
-12.8779
-12.8906
-12.9035
-12.9168
-12.9302
-12.9436
-12.9567
-12.9691
-12.9805
-12.9903
-12.998
-13.0032
-13.0053
-13.0041
-12.9994
-12.9901
-12.9744
-12.5764
-12.5557
-12.5427
-12.5351
-12.5312
-12.5309
-12.5339
-12.5398
-12.5481
-12.5585
-12.5706
-12.5839
-12.5982
-12.6131
-12.6284
-12.6438
-12.6592
-12.6744
-12.6892
-12.7035
-12.7174
-12.7306
-12.7434
-12.7555
-12.7671
-12.7783
-12.789
-12.7995
-12.8097
-12.8198
-12.8299
-12.8401
-12.8505
-12.8611
-12.872
-12.8831
-12.8944
-12.9058
-12.9171
-12.9281
-12.9384
-12.9478
-12.9558
-12.962
-12.9661
-12.9677
-12.9665
-12.9626
-12.9551
-12.9425
-12.6131
-12.5953
-12.5839
-12.5769
-12.5729
-12.5719
-12.5736
-12.5777
-12.5838
-12.5917
-12.6011
-12.6116
-12.6231
-12.6351
-12.6476
-12.6603
-12.6731
-12.6858
-12.6982
-12.7104
-12.7221
-12.7334
-12.7443
-12.7547
-12.7646
-12.7741
-12.7833
-12.7922
-12.8008
-12.8094
-12.818
-12.8266
-12.8353
-12.8442
-12.8533
-12.8626
-12.8721
-12.8816
-12.891
-12.9001
-12.9087
-12.9164
-12.9229
-12.928
-12.9313
-12.9325
-12.9317
-12.9286
-12.9227
-12.913
-12.6466
-12.6315
-12.6217
-12.6154
-12.6116
-12.6101
-12.6108
-12.6134
-12.6177
-12.6235
-12.6305
-12.6386
-12.6474
-12.6569
-12.6668
-12.677
-12.6873
-12.6975
-12.7077
-12.7177
-12.7274
-12.7367
-12.7456
-12.7542
-12.7624
-12.7702
-12.7778
-12.7851
-12.7922
-12.7991
-12.8061
-12.8131
-12.8201
-12.8274
-12.8348
-12.8423
-12.85
-12.8577
-12.8654
-12.8728
-12.8797
-12.886
-12.8913
-12.8954
-12.8982
-12.8993
-12.8988
-12.8967
-12.8925
-12.8854
-12.6775
-12.6649
-12.6566
-12.6512
-12.6476
-12.6459
-12.6458
-12.6473
-12.6501
-12.6541
-12.659
-12.6649
-12.6714
-12.6784
-12.6859
-12.6937
-12.7017
-12.7097
-12.7176
-12.7255
-12.7331
-12.7405
-12.7475
-12.7543
-12.7607
-12.7668
-12.7727
-12.7783
-12.7838
-12.7891
-12.7944
-12.7997
-12.8051
-12.8107
-12.8163
-12.8222
-12.8281
-12.8341
-12.8401
-12.8459
-12.8514
-12.8564
-12.8606
-12.864
-12.8663
-12.8675
-12.8675
-12.8663
-12.8637
-12.8592
-12.7062
-12.6962
-12.6894
-12.6849
-12.6817
-12.6798
-12.6792
-12.6797
-12.6812
-12.6836
-12.6868
-12.6906
-12.695
-12.6998
-12.7051
-12.7106
-12.7163
-12.7221
-12.728
-12.7337
-12.7394
-12.7448
-12.75
-12.7549
-12.7596
-12.764
-12.7681
-12.7721
-12.7758
-12.7795
-12.7831
-12.7867
-12.7904
-12.7942
-12.7981
-12.8022
-12.8064
-12.8108
-12.8151
-12.8194
-12.8235
-12.8273
-12.8306
-12.8333
-12.8354
-12.8367
-12.8372
-12.837
-12.8359
-12.8339
-12.7333
-12.7257
-12.7205
-12.7168
-12.7141
-12.7123
-12.7113
-12.711
-12.7114
-12.7124
-12.7139
-12.7158
-12.7183
-12.7211
-12.7242
-12.7277
-12.7313
-12.735
-12.7388
-12.7425
-12.7462
-12.7498
-12.7531
-12.7562
-12.7591
-12.7617
-12.7642
-12.7664
-12.7684
-12.7703
-12.7722
-12.7741
-12.776
-12.778
-12.7802
-12.7825
-12.785
-12.7876
-12.7903
-12.7931
-12.7959
-12.7985
-12.8009
-12.8031
-12.8049
-12.8063
-12.8074
-12.8081
-12.8087
-12.8091
-12.7592
-12.754
-12.7503
-12.7476
-12.7454
-12.7437
-12.7424
-12.7414
-12.7408
-12.7405
-12.7405
-12.7408
-12.7414
-12.7423
-12.7435
-12.7449
-12.7465
-12.7483
-12.7501
-12.7519
-12.7537
-12.7553
-12.7569
-12.7582
-12.7593
-12.7602
-12.7608
-12.7613
-12.7616
-12.7617
-12.7618
-12.7618
-12.7619
-12.7621
-12.7624
-12.7629
-12.7636
-12.7645
-12.7656
-12.7669
-12.7683
-12.7698
-12.7713
-12.7729
-12.7744
-12.776
-12.7777
-12.7794
-12.7815
-12.7843
-12.7843
-12.7815
-12.7794
-12.7777
-12.776
-12.7744
-12.7729
-12.7713
-12.7698
-12.7683
-12.7669
-12.7656
-12.7645
-12.7636
-12.7629
-12.7624
-12.7621
-12.7619
-12.7619
-12.7618
-12.7617
-12.7616
-12.7613
-12.7608
-12.7602
-12.7593
-12.7582
-12.7569
-12.7553
-12.7537
-12.7519
-12.7501
-12.7483
-12.7465
-12.7449
-12.7435
-12.7423
-12.7414
-12.7408
-12.7405
-12.7405
-12.7408
-12.7414
-12.7424
-12.7437
-12.7454
-12.7476
-12.7503
-12.754
-12.7592
-12.8091
-12.8087
-12.8081
-12.8074
-12.8063
-12.8049
-12.8031
-12.8009
-12.7985
-12.7959
-12.7931
-12.7903
-12.7876
-12.785
-12.7825
-12.7802
-12.778
-12.776
-12.7741
-12.7722
-12.7703
-12.7684
-12.7664
-12.7642
-12.7617
-12.7591
-12.7562
-12.7531
-12.7497
-12.7462
-12.7425
-12.7388
-12.735
-12.7313
-12.7277
-12.7242
-12.7211
-12.7183
-12.7158
-12.7139
-12.7124
-12.7114
-12.711
-12.7113
-12.7123
-12.7141
-12.7168
-12.7205
-12.7257
-12.7333
-12.8339
-12.8359
-12.837
-12.8372
-12.8367
-12.8354
-12.8333
-12.8306
-12.8273
-12.8235
-12.8194
-12.8151
-12.8108
-12.8064
-12.8022
-12.7981
-12.7942
-12.7904
-12.7867
-12.7831
-12.7795
-12.7758
-12.7721
-12.7681
-12.764
-12.7596
-12.7549
-12.75
-12.7448
-12.7394
-12.7337
-12.728
-12.7221
-12.7163
-12.7106
-12.7051
-12.6998
-12.695
-12.6906
-12.6868
-12.6836
-12.6812
-12.6797
-12.6792
-12.6798
-12.6817
-12.6849
-12.6894
-12.6961
-12.7062
-12.8592
-12.8637
-12.8663
-12.8675
-12.8675
-12.8663
-12.864
-12.8606
-12.8564
-12.8514
-12.8459
-12.8401
-12.8341
-12.8281
-12.8222
-12.8163
-12.8107
-12.8051
-12.7997
-12.7944
-12.7891
-12.7838
-12.7783
-12.7727
-12.7668
-12.7607
-12.7543
-12.7475
-12.7404
-12.7331
-12.7255
-12.7176
-12.7097
-12.7017
-12.6937
-12.6859
-12.6784
-12.6714
-12.6649
-12.659
-12.6541
-12.6501
-12.6473
-12.6458
-12.6459
-12.6476
-12.6512
-12.6566
-12.6649
-12.6775
-12.8854
-12.8925
-12.8967
-12.8988
-12.8993
-12.8982
-12.8954
-12.8913
-12.886
-12.8797
-12.8728
-12.8654
-12.8577
-12.85
-12.8423
-12.8348
-12.8274
-12.8201
-12.8131
-12.8061
-12.7991
-12.7922
-12.7851
-12.7778
-12.7702
-12.7624
-12.7542
-12.7456
-12.7367
-12.7274
-12.7177
-12.7077
-12.6975
-12.6873
-12.677
-12.6668
-12.6569
-12.6474
-12.6386
-12.6305
-12.6235
-12.6177
-12.6134
-12.6107
-12.6101
-12.6116
-12.6154
-12.6217
-12.6315
-12.6466
-12.913
-12.9227
-12.9286
-12.9317
-12.9325
-12.9313
-12.928
-12.9229
-12.9164
-12.9087
-12.9001
-12.891
-12.8816
-12.8721
-12.8626
-12.8533
-12.8442
-12.8353
-12.8266
-12.818
-12.8094
-12.8008
-12.7922
-12.7833
-12.7741
-12.7646
-12.7547
-12.7443
-12.7334
-12.7221
-12.7104
-12.6982
-12.6858
-12.6731
-12.6603
-12.6476
-12.6351
-12.6231
-12.6116
-12.6011
-12.5917
-12.5838
-12.5777
-12.5736
-12.5719
-12.5729
-12.5769
-12.5839
-12.5953
-12.6131
-12.9425
-12.9551
-12.9626
-12.9665
-12.9677
-12.9661
-12.962
-12.9558
-12.9478
-12.9384
-12.9281
-12.9171
-12.9058
-12.8944
-12.8831
-12.872
-12.8611
-12.8505
-12.8401
-12.8299
-12.8198
-12.8097
-12.7995
-12.789
-12.7783
-12.7671
-12.7555
-12.7434
-12.7306
-12.7174
-12.7035
-12.6892
-12.6744
-12.6592
-12.6438
-12.6284
-12.6131
-12.5982
-12.5839
-12.5706
-12.5585
-12.5481
-12.5398
-12.5339
-12.5309
-12.5312
-12.5351
-12.5427
-12.5557
-12.5763
-12.9744
-12.9901
-12.9994
-13.0041
-13.0053
-13.0032
-12.998
-12.9903
-12.9805
-12.9691
-12.9567
-12.9436
-12.9302
-12.9168
-12.9035
-12.8906
-12.8779
-12.8656
-12.8536
-12.8418
-12.8302
-12.8186
-12.8069
-12.7949
-12.7826
-12.7699
-12.7566
-12.7428
-12.7282
-12.713
-12.697
-12.6804
-12.6632
-12.6455
-12.6274
-12.6091
-12.5908
-12.5728
-12.5553
-12.5388
-12.5237
-12.5104
-12.4994
-12.4912
-12.4865
-12.4857
-12.4893
-12.4973
-12.5119
-12.5356
-13.0096
-13.0286
-13.0397
-13.045
-13.046
-13.043
-13.0363
-13.0266
-13.0146
-13.0009
-12.9861
-12.9706
-12.9549
-12.9392
-12.9239
-12.9089
-12.8944
-12.8804
-12.8668
-12.8535
-12.8403
-12.8273
-12.8141
-12.8008
-12.787
-12.7728
-12.7579
-12.7424
-12.7261
-12.7089
-12.6909
-12.6721
-12.6524
-12.6321
-12.6111
-12.5898
-12.5683
-12.5468
-12.5259
-12.5058
-12.4871
-12.4703
-12.4561
-12.4451
-12.4381
-12.4358
-12.4386
-12.4469
-12.463
-12.4901
-13.0487
-13.0715
-13.0845
-13.0902
-13.0906
-13.0862
-13.0774
-13.0652
-13.0505
-13.0339
-13.0162
-12.9979
-12.9796
-12.9615
-12.9439
-12.9269
-12.9105
-12.8947
-12.8794
-12.8646
-12.85
-12.8356
-12.8211
-12.8063
-12.7912
-12.7756
-12.7593
-12.7421
-12.7241
-12.7051
-12.685
-12.664
-12.6419
-12.6189
-12.595
-12.5705
-12.5455
-12.5204
-12.4955
-12.4714
-12.4486
-12.4277
-12.4096
-12.3951
-12.3851
-12.3805
-12.3822
-12.3905
-12.4081
-12.4388
-13.093
-13.12
-13.1348
-13.1407
-13.14
-13.1334
-13.1218
-13.1064
-13.0881
-13.068
-13.0469
-13.0255
-13.0042
-12.9834
-12.9633
-12.9441
-12.9257
-12.9081
-12.8913
-12.8749
-12.859
-12.8432
-12.8275
-12.8115
-12.7951
-12.7781
-12.7604
-12.7418
-12.7222
-12.7014
-12.6794
-12.6562
-12.6317
-12.606
-12.5791
-12.5512
-12.5226
-12.4935
-12.4643
-12.4356
-12.408
-12.3823
-12.3595
-12.3405
-12.3266
-12.3191
-12.3188
-12.3266
-12.3457
-12.3804
-13.1436
-13.1756
-13.1923
-13.1977
-13.195
-13.1854
-13.17
-13.1503
-13.1277
-13.1033
-13.0782
-13.053
-13.0283
-13.0046
-12.9818
-12.9603
-12.9399
-12.9205
-12.902
-12.8842
-12.867
-12.85
-12.8331
-12.8159
-12.7984
-12.7803
-12.7613
-12.7414
-12.7203
-12.6979
-12.6741
-12.6488
-12.6219
-12.5935
-12.5636
-12.5323
-12.4998
-12.4664
-12.4325
-12.3986
-12.3655
-12.3341
-12.3055
-12.2809
-12.2619
-12.2502
-12.2471
-12.2537
-12.2742
-12.3135
-13.2025
-13.2402
-13.2586
-13.2628
-13.2571
-13.243
-13.2224
-13.1971
-13.169
-13.1395
-13.1096
-13.0801
-13.0517
-13.0246
-12.999
-12.975
-12.9525
-12.9313
-12.9113
-12.8922
-12.8737
-12.8556
-12.8376
-12.8195
-12.801
-12.7818
-12.7618
-12.7407
-12.7183
-12.6944
-12.6689
-12.6417
-12.6126
-12.5815
-12.5486
-12.5138
-12.4773
-12.4393
-12.4002
-12.3606
-12.3211
-12.283
-12.2473
-12.2157
-12.1901
-12.1726
-12.1653
-12.1698
-12.1913
-12.236
-13.2719
-13.3165
-13.3363
-13.338
-13.3274
-13.307
-13.2794
-13.247
-13.212
-13.1762
-13.1406
-13.1063
-13.0736
-13.0429
-13.0144
-12.9878
-12.9632
-12.9403
-12.9188
-12.8984
-12.8788
-12.8598
-12.8409
-12.822
-12.8027
-12.7827
-12.7618
-12.7397
-12.7162
-12.691
-12.6641
-12.635
-12.6038
-12.5703
-12.5344
-12.4961
-12.4555
-12.4126
-12.3679
-12.3219
-12.2753
-12.2291
-12.1849
-12.1444
-12.1101
-12.0848
-12.0713
-12.0721
-12.0942
-12.1452
-13.3553
-13.4081
-13.4285
-13.4256
-13.4076
-13.3783
-13.3412
-13.2996
-13.2562
-13.2127
-13.1707
-13.1307
-13.0934
-13.059
-13.0273
-12.9982
-12.9715
-12.9469
-12.9241
-12.9026
-12.8821
-12.8623
-12.8428
-12.8232
-12.8033
-12.7827
-12.7612
-12.7383
-12.714
-12.6878
-12.6596
-12.629
-12.5959
-12.5601
-12.5214
-12.4797
-12.4349
-12.387
-12.3364
-12.2833
-12.2284
-12.173
-12.1184
-12.0668
-12.0212
-11.9851
-11.9625
-11.9573
-11.9788
-12.0373
-13.4577
-13.5203
-13.5396
-13.5287
-13.4995
-13.4576
-13.4078
-13.3545
-13.3006
-13.2482
-13.1986
-13.1526
-13.1103
-13.0719
-13.037
-13.0055
-12.9769
-12.9508
-12.9268
-12.9044
-12.8833
-12.8629
-12.843
-12.823
-12.8028
-12.7818
-12.7599
-12.7366
-12.7117
-12.6848
-12.6556
-12.6238
-12.5892
-12.5513
-12.51
-12.465
-12.4162
-12.3632
-12.3063
-12.2456
-12.1817
-12.1154
-12.0484
-11.983
-11.9225
-11.8717
-11.8357
-11.8206
-11.8395
-11.9068
-13.5868
-13.6605
-13.6754
-13.6509
-13.6047
-13.545
-13.4785
-13.4103
-13.3438
-13.2811
-13.2232
-13.1705
-13.1231
-13.0807
-13.0429
-13.0091
-12.9789
-12.9516
-12.9267
-12.9037
-12.8821
-12.8615
-12.8414
-12.8214
-12.8011
-12.7801
-12.7581
-12.7346
-12.7094
-12.6821
-12.6523
-12.6197
-12.5838
-12.5444
-12.5009
-12.4529
-12.4002
-12.3423
-12.2791
-12.2104
-12.1364
-12.0579
-11.9761
-11.8935
-11.8138
-11.7426
-11.687
-11.6559
-11.6683
-11.7454
-13.7549
-13.8401
-13.8437
-13.7964
-13.7245
-13.6401
-13.5517
-13.4651
-13.3838
-13.3094
-13.2425
-13.183
-13.1306
-13.0845
-13.044
-13.0084
-12.9768
-12.9487
-12.9233
-12.9001
-12.8785
-12.858
-12.838
-12.8183
-12.7982
-12.7775
-12.7557
-12.7325
-12.7074
-12.6801
-12.6501
-12.617
-12.5804
-12.5398
-12.4946
-12.4442
-12.3881
-12.3256
-12.2562
-12.1793
-12.0948
-12.0026
-11.9038
-11.8001
-11.6956
-11.5966
-11.5121
-11.4549
-11.4533
-11.5398
-13.9835
-14.0758
-14.0545
-13.9691
-13.859
-13.7408
-13.6243
-13.5155
-13.4173
-13.3304
-13.2543
-13.1884
-13.1314
-13.0821
-13.0396
-13.0027
-12.9704
-12.942
-12.9166
-12.8936
-12.8723
-12.8523
-12.8329
-12.8137
-12.7943
-12.7742
-12.7531
-12.7304
-12.7059
-12.6789
-12.6492
-12.6162
-12.5794
-12.5382
-12.4919
-12.4398
-12.381
-12.3146
-12.2396
-12.1549
-12.0596
-11.953
-11.8349
-11.7063
-11.5703
-11.4336
-11.3067
-11.2072
-11.1765
-11.2669
-14.3118
-14.3933
-14.3195
-14.1715
-14.0054
-13.8418
-13.6906
-13.5564
-13.4401
-13.3405
-13.256
-13.1844
-13.1238
-13.0725
-13.0288
-12.9914
-12.9591
-12.9311
-12.9063
-12.884
-12.8636
-12.8445
-12.8261
-12.8079
-12.7895
-12.7705
-12.7504
-12.7287
-12.7051
-12.679
-12.6501
-12.6178
-12.5814
-12.5403
-12.4938
-12.4408
-12.3803
-12.3111
-12.2316
-12.1402
-12.0348
-11.9137
-11.7751
-11.6179
-11.4435
-11.2567
-11.0685
-10.9006
-10.8114
-10.8851
-14.812
-14.8304
-14.6505
-14.4012
-14.1552
-13.9332
-13.7415
-13.5802
-13.4462
-13.3356
-13.2443
-13.1689
-13.1064
-13.0544
-13.0108
-12.9741
-12.9428
-12.9159
-12.8924
-12.8715
-12.8525
-12.8348
-12.8178
-12.8011
-12.7842
-12.7665
-12.7478
-12.7276
-12.7054
-12.6808
-12.6532
-12.6221
-12.5869
-12.5468
-12.5009
-12.4483
-12.3875
-12.317
-12.2348
-12.1385
-12.0251
-11.891
-11.7323
-11.5449
-11.3258
-11.0753
-10.8002
-10.523
-10.3187
-10.3188
-15.6153
-15.4375
-15.0551
-14.6488
-14.293
-14.0002
-13.765
-13.578
-13.4296
-13.3114
-13.2167
-13.1403
-13.0783
-13.0275
-12.9856
-12.9508
-12.9215
-12.8966
-12.8751
-12.8562
-12.8392
-12.8234
-12.8084
-12.7935
-12.7785
-12.7627
-12.7458
-12.7275
-12.7071
-12.6844
-12.6587
-12.6295
-12.5962
-12.558
-12.514
-12.4629
-12.4034
-12.3337
-12.2513
-12.153
-12.035
-11.8916
-11.7162
-11.4999
-11.233
-10.9054
-10.512
-10.0667
-9.64732
-9.43361
-17.0185
-16.2552
-15.5094
-14.8811
-14.3883
-14.019
-13.7449
-13.5397
-13.3841
-13.2645
-13.1713
-13.0978
-13.0392
-12.9919
-12.9534
-12.9219
-12.8958
-12.8738
-12.8551
-12.8388
-12.8243
-12.8109
-12.7982
-12.7857
-12.7728
-12.7593
-12.7447
-12.7285
-12.7105
-12.6901
-12.6668
-12.6402
-12.6095
-12.5741
-12.533
-12.485
-12.4287
-12.362
-12.2825
-12.1864
-12.0688
-11.9228
-11.7382
-11.5009
-11.1909
-10.7804
-10.2398
-9.55844
-8.75717
-7.92448
-19.8517
-17.2527
-15.8325
-14.9439
-14.3336
-13.9194
-13.6364
-13.4366
-13.291
-13.1822
-13.0991
-13.0346
-12.9838
-12.9434
-12.9109
-12.8846
-12.8632
-12.8455
-12.8306
-12.8179
-12.8068
-12.7966
-12.7869
-12.7772
-12.7673
-12.7566
-12.7448
-12.7315
-12.7164
-12.6991
-12.679
-12.6558
-12.6289
-12.5975
-12.5609
-12.518
-12.4674
-12.4072
-12.3351
-12.2476
-12.1395
-12.0033
-11.8274
-11.5936
-11.2716
-10.8111
-10.1429
-9.18245
-7.67544
-4.9553
-24.7206
-18.3358
-15.6684
-14.5672
-13.9668
-13.6082
-13.3844
-13.2346
-13.1278
-13.0485
-12.9881
-12.9412
-12.9044
-12.8754
-12.8525
-12.8343
-12.8198
-12.8083
-12.7989
-12.7913
-12.7847
-12.7788
-12.7733
-12.7676
-12.7615
-12.7546
-12.7466
-12.7372
-12.7261
-12.7129
-12.6973
-12.6788
-12.6571
-12.6316
-12.6017
-12.5665
-12.5251
-12.4761
-12.4176
-12.3473
-12.2612
-12.1537
-12.0156
-11.8304
-11.5663
-11.1596
-10.4938
-9.29751
-6.51207
6.1733e-05
)
;

boundaryField
{
    movingWallTop
    {
        type            zeroGradient;
    }
    movingWallBottom
    {
        type            zeroGradient;
    }
    fixedWalls
    {
        type            zeroGradient;
    }
    frontAndBack
    {
        type            empty;
    }
}


// ************************************************************************* //
