/*--------------------------------*- C++ -*----------------------------------*\
  =========                 |
  \\      /  F ield         | OpenFOAM: The Open Source CFD Toolbox
   \\    /   O peration     | Website:  https://openfoam.org
    \\  /    A nd           | Version:  7
     \\/     M anipulation  |
\*---------------------------------------------------------------------------*/
FoamFile
{
    version     2.0;
    format      ascii;
    class       surfaceScalarField;
    location    "0.0596";
    object      phi;
}
// * * * * * * * * * * * * * * * * * * * * * * * * * * * * * * * * * * * * * //

dimensions      [0 3 -1 0 0 0 0];

internalField   nonuniform List<scalar> 
4900
(
-5.55545e-06
5.55544e-06
-1.01611e-05
4.60561e-06
-1.29489e-05
2.78781e-06
-1.46693e-05
1.7204e-06
-1.5772e-05
1.10272e-06
-1.65111e-05
7.3908e-07
-1.70319e-05
5.20837e-07
-1.74164e-05
3.84514e-07
-1.77112e-05
2.94798e-07
-1.79439e-05
2.32653e-07
-1.81315e-05
1.87646e-07
-1.82853e-05
1.53808e-07
-1.84129e-05
1.27555e-07
-1.85195e-05
1.06624e-07
-1.8609e-05
8.95278e-08
-1.86843e-05
7.52471e-08
-1.87473e-05
6.30634e-08
-1.87998e-05
5.24547e-08
-1.88428e-05
4.30332e-08
-1.88773e-05
3.45039e-08
-1.8904e-05
2.66374e-08
-1.89232e-05
1.92514e-08
-1.89354e-05
1.21969e-08
-1.89408e-05
5.34874e-09
-1.89394e-05
-1.40299e-09
-1.89312e-05
-8.15601e-09
-1.89162e-05
-1.50066e-08
-1.88942e-05
-2.205e-08
-1.88648e-05
-2.93884e-08
-1.88276e-05
-3.71364e-08
-1.87822e-05
-4.54295e-08
-1.87278e-05
-5.44334e-08
-1.86634e-05
-6.43584e-08
-1.85879e-05
-7.54783e-08
-1.84998e-05
-8.81584e-08
-1.83969e-05
-1.02898e-07
-1.82765e-05
-1.20395e-07
-1.81348e-05
-1.41654e-07
-1.79667e-05
-1.68161e-07
-1.77645e-05
-2.02201e-07
-1.7517e-05
-2.47425e-07
-1.72071e-05
-3.09924e-07
-1.68068e-05
-4.00282e-07
-1.62693e-05
-5.37542e-07
-1.55131e-05
-7.56191e-07
-1.43972e-05
-1.11592e-06
-1.26821e-05
-1.71512e-06
-9.9462e-06
-2.73586e-06
-5.45254e-06
-4.49366e-06
-5.45254e-06
-1.19097e-08
5.56735e-06
-2.13064e-06
6.72434e-06
-4.85803e-06
5.5152e-06
-7.27569e-06
4.13806e-06
-9.21454e-06
3.04157e-06
-1.07273e-05
2.25183e-06
-1.19072e-05
1.70075e-06
-1.28373e-05
1.31458e-06
-1.35808e-05
1.03837e-06
-1.41839e-05
8.35673e-07
-1.46791e-05
6.82922e-07
-1.50902e-05
5.64844e-07
-1.5434e-05
4.71371e-07
-1.57231e-05
3.95713e-07
-1.59667e-05
3.33177e-07
-1.61719e-05
2.80443e-07
-1.6344e-05
2.35102e-07
-1.64869e-05
1.95374e-07
-1.66038e-05
1.59915e-07
-1.66969e-05
1.27689e-07
-1.67682e-05
9.78848e-08
-1.68188e-05
6.98487e-08
-1.68496e-05
4.30445e-08
-1.68613e-05
1.70185e-08
-1.68541e-05
-8.62594e-09
-1.6828e-05
-3.42517e-08
-1.67828e-05
-6.02046e-08
-1.6718e-05
-8.68333e-08
-1.66329e-05
-1.14508e-07
-1.65264e-05
-1.43642e-07
-1.63971e-05
-1.74718e-07
-1.62432e-05
-2.08324e-07
-1.60624e-05
-2.45195e-07
-1.58516e-05
-2.86275e-07
-1.56069e-05
-3.32805e-07
-1.53234e-05
-3.86453e-07
-1.49943e-05
-4.49494e-07
-1.46108e-05
-5.251e-07
-1.41612e-05
-6.17785e-07
-1.36293e-05
-7.34105e-07
-1.29929e-05
-8.83789e-07
-1.22213e-05
-1.08153e-06
-1.12718e-05
-1.34976e-06
-1.00867e-05
-1.72273e-06
-8.59188e-06
-2.25098e-06
-6.70743e-06
-3.00037e-06
-4.39371e-06
-4.02884e-06
-1.81895e-06
-5.31062e-06
1.24194e-07
-6.4368e-06
-5.32835e-06
1.03247e-06
4.53488e-06
5.47035e-07
7.20977e-06
-9.9217e-07
7.05441e-06
-2.88778e-06
6.03367e-06
-4.74605e-06
4.89984e-06
-6.4065e-06
3.91227e-06
-7.82969e-06
3.12395e-06
-9.02871e-06
2.51359e-06
-1.00339e-05
2.04356e-06
-1.08774e-05
1.67919e-06
-1.15876e-05
1.39316e-06
-1.21879e-05
1.16514e-06
-1.26969e-05
9.80335e-07
-1.31292e-05
8.27966e-07
-1.34962e-05
7.00166e-07
-1.38068e-05
5.91115e-07
-1.40682e-05
4.96452e-07
-1.42857e-05
4.12866e-07
-1.44636e-05
3.37801e-07
-1.46051e-05
2.69255e-07
-1.47129e-05
2.05633e-07
-1.47887e-05
1.45641e-07
-1.48338e-05
8.82034e-08
-1.48492e-05
3.24051e-08
-1.48353e-05
-2.25584e-08
-1.47921e-05
-7.74232e-08
-1.47194e-05
-1.32891e-07
-1.46166e-05
-1.89666e-07
-1.44826e-05
-2.4849e-07
-1.43161e-05
-3.10183e-07
-1.41151e-05
-3.75692e-07
-1.38773e-05
-4.46151e-07
-1.35995e-05
-5.22959e-07
-1.32779e-05
-6.07882e-07
-1.29075e-05
-7.03194e-07
-1.24821e-05
-8.1187e-07
-1.19937e-05
-9.37861e-07
-1.14323e-05
-1.08647e-06
-1.07852e-05
-1.26489e-06
-1.00364e-05
-1.48298e-06
-9.1659e-06
-1.75425e-06
-8.15033e-06
-2.0971e-06
-6.96413e-06
-2.53596e-06
-5.58554e-06
-3.10131e-06
-4.01124e-06
-3.82528e-06
-2.28796e-06
-4.72365e-06
-5.7292e-07
-5.74388e-06
7.66574e-07
-6.65011e-06
1.08767e-06
-6.75789e-06
-4.24068e-06
9.06288e-07
3.62859e-06
1.22833e-06
6.88773e-06
6.42786e-07
7.63995e-06
-5.2449e-07
7.20095e-06
-1.94462e-06
6.31997e-06
-3.39939e-06
5.36703e-06
-4.77182e-06
4.49638e-06
-6.01216e-06
3.75393e-06
-7.10784e-06
3.13924e-06
-8.06424e-06
2.63558e-06
-8.89393e-06
2.22285e-06
-9.61136e-06
1.88257e-06
-1.02303e-05
1.59931e-06
-1.07631e-05
1.36074e-06
-1.12201e-05
1.15715e-06
-1.16099e-05
9.80965e-07
-1.19398e-05
8.26272e-07
-1.22153e-05
6.88405e-07
-1.24412e-05
5.63671e-07
-1.2621e-05
4.49109e-07
-1.27577e-05
3.42313e-07
-1.28534e-05
2.41304e-07
-1.29096e-05
1.44417e-07
-1.29274e-05
5.02207e-08
-1.29074e-05
-4.25479e-08
-1.28498e-05
-1.35046e-07
-1.27543e-05
-2.28377e-07
-1.26203e-05
-3.23637e-07
-1.24468e-05
-4.21973e-07
-1.22324e-05
-5.24634e-07
-1.1975e-05
-6.33042e-07
-1.16723e-05
-7.48866e-07
-1.13212e-05
-8.74125e-07
-1.09177e-05
-1.01131e-06
-1.04574e-05
-1.16355e-06
-9.93444e-06
-1.3348e-06
-9.34215e-06
-1.53015e-06
-8.67254e-06
-1.75608e-06
-7.91648e-06
-2.02095e-06
-7.06413e-06
-2.33533e-06
-6.10601e-06
-2.71237e-06
-5.03549e-06
-3.16762e-06
-3.85383e-06
-3.71762e-06
-2.57984e-06
-4.3753e-06
-1.26656e-06
-5.13857e-06
-2.62907e-08
-5.96391e-06
9.42779e-07
-6.71295e-06
1.34929e-06
-7.05663e-06
9.16976e-07
-6.32557e-06
-3.32371e-06
6.71665e-07
2.95693e-06
1.24317e-06
6.31623e-06
1.22237e-06
7.66074e-06
6.49997e-07
7.77333e-06
-2.86522e-07
7.25649e-06
-1.40486e-06
6.48537e-06
-2.57269e-06
5.6642e-06
-3.70869e-06
4.88994e-06
-4.7694e-06
4.19996e-06
-5.73552e-06
3.6017e-06
-6.6018e-06
3.08913e-06
-7.37045e-06
2.65122e-06
-8.0472e-06
2.27606e-06
-8.63905e-06
1.95259e-06
-9.15311e-06
1.6712e-06
-9.59597e-06
1.42383e-06
-9.97349e-06
1.20379e-06
-1.02907e-05
1.0056e-06
-1.05518e-05
8.2476e-07
-1.07602e-05
6.57551e-07
-1.09188e-05
5.00887e-07
-1.10297e-05
3.52178e-07
-1.10945e-05
2.09214e-07
-1.11143e-05
7.00766e-08
-1.10899e-05
-6.69412e-08
-1.10216e-05
-2.03404e-07
-1.09091e-05
-3.408e-07
-1.07522e-05
-4.80597e-07
-1.05498e-05
-6.2431e-07
-1.03009e-05
-7.73563e-07
-1.00038e-05
-9.30168e-07
-9.65645e-06
-1.09621e-06
-9.25645e-06
-1.27413e-06
-8.80088e-06
-1.46688e-06
-8.28639e-06
-1.67803e-06
-7.70925e-06
-1.91195e-06
-7.06544e-06
-2.17395e-06
-6.35106e-06
-2.47047e-06
-5.56287e-06
-2.80913e-06
-4.69954e-06
-3.19866e-06
-3.76364e-06
-3.64827e-06
-2.76519e-06
-4.16607e-06
-1.7272e-06
-4.75561e-06
-6.93996e-07
-5.40851e-06
2.58024e-07
-6.09059e-06
1.01086e-06
-6.71675e-06
1.40809e-06
-7.11017e-06
1.29729e-06
-6.94583e-06
6.66571e-07
-5.69485e-06
-2.65714e-06
4.80282e-07
2.47664e-06
1.07556e-06
5.72095e-06
1.33987e-06
7.39643e-06
1.1727e-06
7.9405e-06
6.41658e-07
7.78753e-06
-1.34699e-07
7.26173e-06
-1.04439e-06
6.57389e-06
-2.00211e-06
5.84765e-06
-2.9503e-06
5.14815e-06
-3.85373e-06
4.50514e-06
-4.69294e-06
3.92834e-06
-5.45873e-06
3.417e-06
-6.1482e-06
2.96553e-06
-6.76208e-06
2.56647e-06
-7.30299e-06
2.21211e-06
-7.77439e-06
1.89523e-06
-8.17995e-06
1.60935e-06
-8.52321e-06
1.34887e-06
-8.80739e-06
1.10894e-06
-9.03528e-06
8.85441e-07
-9.20924e-06
6.74849e-07
-9.3312e-06
4.74132e-07
-9.40264e-06
2.80661e-07
-9.42469e-06
9.21243e-08
-9.39808e-06
-9.35507e-08
-9.32322e-06
-2.78269e-07
-9.20018e-06
-4.63834e-07
-9.02877e-06
-6.5201e-07
-8.80849e-06
-8.4459e-07
-8.5386e-06
-1.04346e-06
-8.21809e-06
-1.25067e-06
-7.84579e-06
-1.46851e-06
-7.4203e-06
-1.69961e-06
-6.94018e-06
-1.947e-06
-6.40401e-06
-2.2142e-06
-5.81064e-06
-2.50532e-06
-5.15956e-06
-2.82503e-06
-4.45149e-06
-3.17854e-06
-3.68934e-06
-3.57128e-06
-2.87971e-06
-4.0083e-06
-2.03508e-06
-4.4929e-06
-1.17703e-06
-5.02412e-06
-3.40444e-07
-5.59219e-06
4.21693e-07
-6.17064e-06
1.03476e-06
-6.70366e-06
1.40501e-06
-7.08699e-06
1.43815e-06
-7.14331e-06
1.08999e-06
-6.59767e-06
4.69752e-07
-5.07462e-06
-2.18738e-06
3.47915e-07
2.12873e-06
8.90184e-07
5.17868e-06
1.2755e-06
7.01112e-06
1.3564e-06
7.8596e-06
1.12518e-06
8.01876e-06
6.41802e-07
7.7451e-06
-1.45479e-08
7.23024e-06
-7.7049e-07
6.6036e-06
-1.56801e-06
5.94567e-06
-2.36522e-06
5.30235e-06
-3.13405e-06
4.69716e-06
-3.85688e-06
4.13984e-06
-4.52353e-06
3.63218e-06
-5.12879e-06
3.17173e-06
-5.67065e-06
2.75397e-06
-6.14905e-06
2.37362e-06
-6.56503e-06
2.02533e-06
-6.9202e-06
1.70404e-06
-7.21636e-06
1.4051e-06
-7.45533e-06
1.12441e-06
-7.63876e-06
8.58283e-07
-7.76813e-06
6.03495e-07
-7.84465e-06
3.57179e-07
-7.8693e-06
1.16776e-07
-7.84282e-06
-1.2003e-07
-7.76572e-06
-3.55372e-07
-7.63829e-06
-5.91259e-07
-7.46066e-06
-8.29641e-07
-7.23279e-06
-1.07246e-06
-6.95454e-06
-1.32171e-06
-6.6257e-06
-1.5795e-06
-6.24611e-06
-1.84811e-06
-5.81569e-06
-2.13003e-06
-5.33467e-06
-2.42802e-06
-4.80378e-06
-2.7451e-06
-4.22458e-06
-3.08452e-06
-3.59997e-06
-3.44964e-06
-2.93489e-06
-3.84361e-06
-2.23735e-06
-4.26882e-06
-1.51981e-06
-4.72584e-06
-8.00987e-07
-5.21172e-06
-1.08092e-07
-5.71702e-06
5.20978e-07
-6.22126e-06
1.03632e-06
-6.68599e-06
1.37774e-06
-7.04508e-06
1.4834e-06
-7.19265e-06
1.31139e-06
-6.97131e-06
8.81068e-07
-6.16735e-06
3.35609e-07
-4.52916e-06
-1.85178e-06
2.60552e-07
1.86818e-06
7.32199e-07
4.70704e-06
1.15243e-06
6.59088e-06
1.37303e-06
7.639e-06
1.34752e-06
8.04426e-06
1.09337e-06
7.99925e-06
6.58105e-07
7.66551e-06
9.67929e-08
7.16491e-06
-5.39876e-07
6.58233e-06
-1.21052e-06
5.973e-06
-1.8838e-06
5.37044e-06
-2.53725e-06
4.79329e-06
-3.15557e-06
4.2505e-06
-3.72884e-06
3.74499e-06
-4.25097e-06
3.2761e-06
-4.71857e-06
2.84122e-06
-5.13001e-06
2.43678e-06
-5.48484e-06
2.05886e-06
-5.78326e-06
1.70353e-06
-6.0259e-06
1.36705e-06
-6.21357e-06
1.04595e-06
-6.34711e-06
7.37038e-07
-6.42736e-06
4.37434e-07
-6.45509e-06
1.44505e-07
-6.43097e-06
-1.44152e-07
-6.35558e-06
-4.3076e-07
-6.22944e-06
-7.17404e-07
-6.053e-06
-1.00608e-06
-5.82674e-06
-1.29872e-06
-5.55116e-06
-1.59729e-06
-5.22692e-06
-1.90374e-06
-4.8549e-06
-2.22013e-06
-4.4364e-06
-2.54854e-06
-3.97327e-06
-2.89115e-06
-3.46826e-06
-3.25011e-06
-2.92536e-06
-3.62742e-06
-2.35032e-06
-4.02469e-06
-1.75132e-06
-4.44261e-06
-1.13986e-06
-4.88028e-06
-5.3179e-07
-5.33391e-06
5.14751e-08
-5.79499e-06
5.81928e-07
-6.24747e-06
1.02451e-06
-6.66383e-06
1.33824e-06
-6.99973e-06
1.48072e-06
-7.18756e-06
1.41822e-06
-7.13015e-06
1.14434e-06
-6.69742e-06
7.082e-07
-5.73121e-06
2.47308e-07
-4.06826e-06
-1.60447e-06
2.02262e-07
1.66591e-06
6.07049e-07
4.30225e-06
1.02095e-06
6.17698e-06
1.31285e-06
7.34711e-06
1.42098e-06
7.93614e-06
1.33612e-06
8.0841e-06
1.0807e-06
7.92093e-06
6.91542e-07
7.55407e-06
2.08522e-07
7.06535e-06
-3.31753e-07
6.51328e-06
-8.98652e-07
5.93733e-06
-1.46806e-06
5.3627e-06
-2.02187e-06
4.80431e-06
-2.54694e-06
4.27006e-06
-3.0341e-06
3.76327e-06
-3.47717e-06
3.28429e-06
-3.87214e-06
2.83175e-06
-4.21657e-06
2.40329e-06
-4.50912e-06
1.99607e-06
-4.74916e-06
1.60709e-06
-4.93655e-06
1.23334e-06
-5.07148e-06
8.71968e-07
-5.15431e-06
5.20263e-07
-5.18552e-06
1.75718e-07
-5.16568e-06
-1.63996e-07
-5.0954e-06
-5.01037e-07
-4.97539e-06
-8.37421e-07
-4.80642e-06
-1.17504e-06
-4.58944e-06
-1.5157e-06
-4.32559e-06
-1.86113e-06
-4.01634e-06
-2.213e-06
-3.66357e-06
-2.57289e-06
-3.26979e-06
-2.94233e-06
-2.83829e-06
-3.32264e-06
-2.37351e-06
-3.71489e-06
-1.88132e-06
-4.11961e-06
-1.36952e-06
-4.53648e-06
-8.48385e-07
-4.96375e-06
-3.31272e-07
-5.39739e-06
1.64721e-07
-5.8299e-06
6.18244e-07
-6.24851e-06
1.00358e-06
-6.63281e-06
1.29143e-06
-6.95169e-06
1.45139e-06
-7.15968e-06
1.45716e-06
-7.19333e-06
1.29578e-06
-6.96877e-06
9.81485e-07
-6.38312e-06
5.72953e-07
-5.32268e-06
1.88239e-07
-3.68355e-06
-1.41623e-06
1.62073e-07
1.50384e-06
5.0959e-07
3.95473e-06
8.9931e-07
5.78726e-06
1.22145e-06
7.02497e-06
1.41192e-06
7.74567e-06
1.44687e-06
8.04915e-06
1.33102e-06
8.03679e-06
1.08577e-06
7.79931e-06
7.39882e-07
7.41124e-06
3.23213e-07
6.92995e-06
-1.368e-07
6.39735e-06
-6.16757e-07
5.84266e-06
-1.09769e-06
5.28524e-06
-1.56479e-06
4.73717e-06
-2.00687e-06
4.20534e-06
-2.41568e-06
3.6931e-06
-2.7853e-06
3.20137e-06
-3.11161e-06
2.7296e-06
-3.39183e-06
2.27629e-06
-3.62418e-06
1.83944e-06
-3.8076e-06
1.41676e-06
-3.94156e-06
1.00594e-06
-4.02595e-06
6.04649e-07
-4.06092e-06
2.10684e-07
-4.04687e-06
-1.78045e-07
-3.98442e-06
-5.63487e-07
-3.87439e-06
-9.47445e-07
-3.71786e-06
-1.33158e-06
-3.51615e-06
-1.71741e-06
-3.27099e-06
-2.1063e-06
-2.98451e-06
-2.49948e-06
-2.65945e-06
-2.89795e-06
-2.29929e-06
-3.30248e-06
-1.90848e-06
-3.71345e-06
-1.49267e-06
-4.13071e-06
-1.05901e-06
-4.55327e-06
-6.16545e-07
-4.97895e-06
-1.76541e-07
-5.40375e-06
2.47127e-07
-5.82106e-06
6.37731e-07
-6.22051e-06
9.75709e-07
-6.58649e-06
1.2392e-06
-6.8963e-06
1.40551e-06
-7.118e-06
1.45401e-06
-7.20818e-06
1.37105e-06
-7.11036e-06
1.15729e-06
-6.75502e-06
8.37113e-07
-6.06294e-06
4.68301e-07
-4.95387e-06
1.47359e-07
-3.36261e-06
-1.26887e-06
1.33257e-07
1.37058e-06
4.33261e-07
3.65473e-06
7.92407e-07
5.42812e-06
1.12091e-06
6.69646e-06
1.35865e-06
7.50793e-06
1.47512e-06
7.93268e-06
1.46366e-06
8.04824e-06
1.33392e-06
7.92906e-06
1.10478e-06
7.64038e-06
7.99012e-07
7.23571e-06
4.39647e-07
6.75671e-06
4.78718e-08
6.23443e-06
-3.57972e-07
5.69108e-06
-7.62673e-07
5.14187e-06
-1.15403e-06
4.5967e-06
-1.52249e-06
4.06156e-06
-1.86079e-06
3.53967e-06
-2.16349e-06
3.0323e-06
-2.42663e-06
2.53943e-06
-2.64741e-06
2.06022e-06
-2.82395e-06
1.5933e-06
-2.95505e-06
1.13704e-06
-3.0401e-06
6.89698e-07
-3.07893e-06
2.49508e-07
-3.07174e-06
-1.85233e-07
-3.0191e-06
-6.16125e-07
-2.92191e-06
-1.04463e-06
-2.78144e-06
-1.47205e-06
-2.59934e-06
-1.89951e-06
-2.37773e-06
-2.3279e-06
-2.11932e-06
-2.75789e-06
-1.82747e-06
-3.18981e-06
-1.50637e-06
-3.62357e-06
-1.16125e-06
-4.05858e-06
-7.98511e-07
-4.49344e-06
-4.2603e-07
-4.92575e-06
-5.33361e-08
-5.35164e-06
3.08161e-07
-5.76525e-06
6.45059e-07
-6.15796e-06
9.42017e-07
-6.51747e-06
1.18214e-06
-6.82661e-06
1.34789e-06
-7.06205e-06
1.42277e-06
-7.19288e-06
1.39416e-06
-7.17957e-06
1.2574e-06
-6.97361e-06
1.02119e-06
-6.5188e-06
7.13542e-07
-5.75529e-06
3.8673e-07
-4.62706e-06
1.17974e-07
-3.09385e-06
-1.1509e-06
1.11773e-07
1.25881e-06
3.72524e-07
3.39398e-06
6.99989e-07
5.10065e-06
1.02132e-06
6.37513e-06
1.28285e-06
7.2464e-06
1.45225e-06
7.76328e-06
1.51626e-06
7.98423e-06
1.47615e-06
7.96917e-06
1.34284e-06
7.77369e-06
1.13258e-06
7.44597e-06
8.63686e-07
7.0256e-06
5.54356e-07
6.54376e-06
2.21344e-07
6.02409e-06
-1.20681e-07
5.48389e-06
-4.59347e-07
4.93536e-06
-7.84522e-07
4.38674e-06
-1.0881e-06
3.84325e-06
-1.36375e-06
3.30795e-06
-1.60663e-06
2.78231e-06
-1.81312e-06
2.26671e-06
-1.98064e-06
1.76081e-06
-2.10741e-06
1.26381e-06
-2.19236e-06
7.7465e-07
-2.23499e-06
2.92137e-07
-2.2353e-06
-1.84923e-07
-2.19376e-06
-6.57667e-07
-2.11128e-06
-1.12711e-06
-1.98923e-06
-1.5941e-06
-1.82949e-06
-2.05925e-06
-1.63446e-06
-2.52293e-06
-1.4072e-06
-2.98516e-06
-1.15148e-06
-3.44552e-06
-8.71942e-07
-3.90311e-06
-5.74225e-07
-4.35629e-06
-2.65098e-07
-4.80257e-06
4.7378e-08
-5.23823e-06
3.53738e-07
-5.658e-06
6.43062e-07
-6.05457e-06
9.03038e-07
-6.41793e-06
1.12023e-06
-6.73466e-06
1.28069e-06
-6.98706e-06
1.37096e-06
-7.15232e-06
1.37982e-06
-7.20174e-06
1.30066e-06
-7.10041e-06
1.13471e-06
-6.80766e-06
8.94791e-07
-6.27888e-06
6.08856e-07
-5.46936e-06
3.22174e-07
-4.34038e-06
9.60626e-08
-2.86774e-06
-1.05483e-06
9.51642e-08
1.16365e-06
3.23205e-07
3.16594e-06
6.20117e-07
4.80374e-06
9.26788e-07
6.06846e-06
1.19654e-06
6.97666e-06
1.39794e-06
7.56188e-06
1.51438e-06
7.86779e-06
1.54161e-06
7.94193e-06
1.4845e-06
7.8308e-06
1.35376e-06
7.57671e-06
1.16327e-06
7.21609e-06
9.2798e-07
6.77905e-06
6.62536e-07
6.28954e-06
3.80433e-07
5.766e-06
9.35718e-08
5.22223e-06
-1.87891e-07
4.6682e-06
-4.55518e-07
4.11088e-06
-7.02463e-07
3.5549e-06
-9.23298e-07
3.00314e-06
-1.11383e-06
2.45724e-06
-1.27091e-06
1.91789e-06
-1.3923e-06
1.3852e-06
-1.47652e-06
8.5887e-07
-1.52276e-06
3.38381e-07
-1.53081e-06
-1.76868e-07
-1.50102e-06
-6.87464e-07
-1.43424e-06
-1.19389e-06
-1.33187e-06
-1.69646e-06
-1.19588e-06
-2.19525e-06
-1.02882e-06
-2.68999e-06
-8.33924e-07
-3.18005e-06
-6.15173e-07
-3.66427e-06
-3.77381e-07
-4.1409e-06
-1.263e-07
-4.60738e-06
1.31295e-07
-5.06016e-06
3.87534e-07
-5.49447e-06
6.33432e-07
-5.9039e-06
8.58953e-07
-6.28009e-06
1.0532e-06
-6.61218e-06
1.20481e-06
-6.88627e-06
1.30264e-06
-7.08489e-06
1.3368e-06
-7.18648e-06
1.30018e-06
-7.16512e-06
1.19042e-06
-6.99065e-06
1.01228e-06
-6.62952e-06
7.80136e-07
-6.04674e-06
5.19998e-07
-5.20922e-06
2.70127e-07
-4.0905e-06
7.91698e-08
-2.67678e-06
-9.75663e-07
8.18987e-08
1.08175e-06
2.82283e-07
2.96555e-06
5.50541e-07
4.53548e-06
8.38525e-07
5.78047e-06
1.1062e-06
6.70898e-06
1.3244e-06
7.34368e-06
1.4753e-06
7.71689e-06
1.55128e-06
7.86595e-06
1.55285e-06
7.82924e-06
1.48632e-06
7.64324e-06
1.36165e-06
7.34077e-06
1.19066e-06
6.95005e-06
9.85693e-07
6.4945e-06
7.58713e-07
5.99298e-06
5.20717e-07
5.46022e-06
2.81451e-07
4.90747e-06
4.9286e-08
4.34304e-06
-1.68765e-07
3.77295e-06
-3.66971e-07
3.20135e-06
-5.40769e-07
2.63104e-06
-6.86634e-07
2.06376e-06
-8.01957e-07
1.50053e-06
-8.8494e-07
9.41852e-07
-9.34504e-07
3.87945e-07
-9.50224e-07
-1.61148e-07
-9.32283e-07
-7.05405e-07
-8.81448e-07
-1.24473e-06
-7.99067e-07
-1.77885e-06
-6.87086e-07
-2.30723e-06
-5.4808e-07
-2.829e-06
-3.85298e-07
-3.34283e-06
-2.02723e-07
-3.84685e-06
-5.12627e-09
-4.3385e-06
2.01869e-07
-4.81437e-06
4.11758e-07
-5.27005e-06
6.17138e-07
-5.69985e-06
8.09767e-07
-6.09653e-06
9.807e-07
-6.45103e-06
1.12056e-06
-6.75204e-06
1.21999e-06
-6.9857e-06
1.27033e-06
-7.13523e-06
1.26458e-06
-7.18074e-06
1.19869e-06
-7.09923e-06
1.07308e-06
-6.86504e-06
8.94359e-07
-6.45079e-06
6.76912e-07
-5.82929e-06
4.43937e-07
-4.97625e-06
2.27327e-07
-3.87389e-06
6.57499e-08
-2.51521e-06
-9.09913e-07
7.099e-08
1.01076e-06
2.47584e-07
2.78896e-06
4.89207e-07
4.29386e-06
7.56439e-07
5.51324e-06
1.0152e-06
6.45022e-06
1.23918e-06
7.11971e-06
1.41066e-06
7.5454e-06
1.52019e-06
7.75642e-06
1.56532e-06
7.78411e-06
1.549e-06
7.65957e-06
1.47792e-06
7.41184e-06
1.3611e-06
7.06687e-06
1.20861e-06
6.64699e-06
1.03072e-06
6.17087e-06
8.37273e-07
5.65367e-06
6.37305e-07
5.10743e-06
4.3882e-07
4.54153e-06
2.48712e-07
3.96305e-06
7.27692e-08
3.37729e-06
-8.42782e-08
2.78809e-06
-2.18682e-07
2.19816e-06
-3.27587e-07
1.60943e-06
-4.08951e-07
1.02322e-06
-4.61469e-07
4.40463e-07
-4.84518e-07
-1.38099e-07
-4.78111e-07
-7.11812e-07
-4.42873e-07
-1.27997e-06
-3.80035e-07
-1.84168e-06
-2.91438e-07
-2.39583e-06
-1.79554e-07
-2.94088e-06
-4.75141e-08
-3.47487e-06
1.00856e-07
-3.99522e-06
2.61005e-07
-4.49865e-06
4.27633e-07
-4.981e-06
5.94695e-07
-5.43711e-06
7.55438e-07
-5.86059e-06
9.02502e-07
-6.2436e-06
1.02811e-06
-6.57663e-06
1.12436e-06
-6.84829e-06
1.18371e-06
-7.04505e-06
1.19957e-06
-7.15109e-06
1.16717e-06
-7.14834e-06
1.0846e-06
-7.01666e-06
9.53955e-07
-6.73439e-06
7.82541e-07
-6.27938e-06
5.83855e-07
-5.63061e-06
3.78035e-07
-4.77043e-06
1.91411e-07
-3.68727e-06
5.47946e-08
-2.37859e-06
-8.55118e-07
6.17805e-08
9.48978e-07
2.17537e-07
2.6332e-06
4.34387e-07
4.07701e-06
6.79895e-07
5.26773e-06
9.25178e-07
6.20493e-06
1.14691e-06
6.89797e-06
1.3283e-06
7.36402e-06
1.45911e-06
7.62561e-06
1.535e-06
7.70822e-06
1.55648e-06
7.63809e-06
1.52767e-06
7.44065e-06
1.45513e-06
7.13941e-06
1.34685e-06
6.75527e-06
1.21142e-06
6.3063e-06
1.0574e-06
5.80768e-06
8.92938e-07
5.2719e-06
7.2545e-07
4.70902e-06
5.61502e-07
4.127e-06
4.06739e-07
3.53206e-06
2.6588e-07
2.92894e-06
1.42755e-07
2.32129e-06
4.03524e-08
1.71183e-06
-3.91212e-08
1.10269e-06
-9.41851e-08
4.95527e-07
-1.24037e-07
-1.08248e-07
-1.28515e-07
-7.07335e-07
-1.08074e-07
-1.30041e-06
-6.3773e-08
-1.88598e-06
2.72506e-09
-2.46232e-06
8.91452e-08
-3.0273e-06
1.92587e-07
-3.57831e-06
3.09507e-07
-4.11214e-06
4.35711e-07
-4.62485e-06
5.66356e-07
-5.11165e-06
6.95983e-07
-5.56674e-06
8.18587e-07
-5.98319e-06
9.27746e-07
-6.35275e-06
1.01683e-06
-6.66571e-06
1.07929e-06
-6.91076e-06
1.10914e-06
-7.07489e-06
1.10144e-06
-7.14339e-06
1.05308e-06
-7.09998e-06
9.63529e-07
-6.92711e-06
8.35756e-07
-6.60662e-06
6.77011e-07
-6.12064e-06
4.99423e-07
-5.45302e-06
3.20116e-07
-4.59112e-06
1.60658e-07
-3.52781e-06
4.56225e-08
-2.26355e-06
-8.09496e-07
5.38179e-08
8.9516e-07
1.90999e-07
2.49602e-06
3.84683e-07
3.88333e-06
6.08088e-07
5.04433e-06
8.36809e-07
5.97621e-06
1.05044e-06
6.68434e-06
1.23352e-06
7.18094e-06
1.37576e-06
7.48337e-06
1.47175e-06
7.61222e-06
1.52031e-06
7.58953e-06
1.52355e-06
7.43741e-06
1.48605e-06
7.17691e-06
1.41393e-06
6.82739e-06
1.3142e-06
6.40603e-06
1.19414e-06
5.92774e-06
1.06089e-06
5.40514e-06
9.2117e-07
4.84874e-06
7.81053e-07
4.26712e-06
6.45885e-07
3.66722e-06
5.20235e-07
3.05459e-06
4.07887e-07
2.43364e-06
3.11864e-07
1.80786e-06
2.34461e-07
1.18009e-06
1.77283e-07
5.52705e-07
1.41284e-07
-7.22489e-08
1.26797e-07
-6.92848e-07
1.33558e-07
-1.30717e-06
1.60715e-07
-1.91314e-06
2.06842e-07
-2.50845e-06
2.69934e-07
-3.0904e-06
3.47405e-07
-3.65578e-06
4.36086e-07
-4.20082e-06
5.32233e-07
-4.721e-06
6.31551e-07
-5.21096e-06
7.29238e-07
-5.66443e-06
8.20079e-07
-6.07403e-06
8.98582e-07
-6.43126e-06
9.59186e-07
-6.72632e-06
9.96552e-07
-6.94813e-06
1.00595e-06
-7.08429e-06
9.83731e-07
-7.12118e-06
9.27921e-07
-7.04417e-06
8.38833e-07
-6.83803e-06
7.19714e-07
-6.4875e-06
5.7729e-07
-5.97821e-06
4.22095e-07
-5.29782e-06
2.68427e-07
-4.43745e-06
1.33795e-07
-3.39318e-06
3.77583e-08
-2.16752e-06
-7.71737e-07
4.67833e-08
8.48377e-07
1.67125e-07
2.37568e-06
3.38986e-07
3.71147e-06
5.40218e-07
4.8431e-06
7.50274e-07
5.76616e-06
9.51495e-07
6.48312e-06
1.12995e-06
7.00249e-06
1.27576e-06
7.33756e-06
1.38307e-06
7.50491e-06
1.44956e-06
7.52304e-06
1.47589e-06
7.41107e-06
1.46503e-06
7.18777e-06
1.42154e-06
6.87089e-06
1.35097e-06
6.4766e-06
1.25937e-06
6.01933e-06
1.1529e-06
5.51162e-06
1.03745e-06
4.96418e-06
9.18534e-07
4.38604e-06
8.0108e-07
3.78468e-06
6.89393e-07
3.16628e-06
5.87112e-07
2.53592e-06
4.97204e-07
1.89776e-06
4.21982e-07
1.25532e-06
3.63129e-07
6.11559e-07
3.21719e-07
-3.08385e-08
2.98245e-07
-6.69374e-07
2.92639e-07
-1.30156e-06
3.04285e-07
-1.92479e-06
3.32031e-07
-2.5362e-06
3.74191e-07
-3.13256e-06
4.28554e-07
-3.71015e-06
4.92389e-07
-4.26466e-06
5.62467e-07
-4.79107e-06
6.35088e-07
-5.28358e-06
7.06142e-07
-5.73548e-06
7.71203e-07
-6.13909e-06
8.25664e-07
-6.48572e-06
8.64935e-07
-6.76559e-06
8.84699e-07
-6.96789e-06
8.81249e-07
-7.08084e-06
8.51886e-07
-7.09181e-06
7.95377e-07
-6.98766e-06
7.12443e-07
-6.75509e-06
6.06218e-07
-6.38127e-06
4.82614e-07
-5.85461e-06
3.50497e-07
-5.16571e-06
2.21569e-07
-4.30852e-06
1.09869e-07
-3.28148e-06
3.08617e-08
-2.08851e-06
-7.40876e-07
4.04459e-08
8.07931e-07
1.45283e-07
2.27084e-06
2.96418e-07
3.56033e-06
4.7556e-07
4.66395e-06
6.65497e-07
5.57622e-06
8.51106e-07
6.29751e-06
1.02007e-06
6.83353e-06
1.16323e-06
7.19439e-06
1.27466e-06
7.39348e-06
1.35142e-06
7.44629e-06
1.39312e-06
7.36936e-06
1.40149e-06
7.17941e-06
1.37978e-06
6.8926e-06
1.33228e-06
6.5241e-06
1.26392e-06
6.08769e-06
1.17985e-06
5.5957e-06
1.08516e-06
5.05887e-06
9.84721e-07
4.48648e-06
8.82976e-07
3.88642e-06
7.8388e-07
3.26538e-06
6.90844e-07
2.62895e-06
6.06708e-07
1.9819e-06
5.33742e-07
1.32828e-06
4.73655e-07
6.71646e-07
4.2761e-07
1.52062e-08
3.96245e-07
-6.38009e-07
3.79687e-07
-1.285e-06
3.77566e-07
-1.92267e-06
3.89026e-07
-2.54766e-06
4.12735e-07
-3.15626e-06
4.46894e-07
-3.74431e-06
4.89252e-07
-4.30702e-06
5.37125e-07
-4.83895e-06
5.87435e-07
-5.33389e-06
6.36767e-07
-5.78481e-06
6.81461e-07
-6.18379e-06
7.17731e-07
-6.52199e-06
7.41847e-07
-6.78971e-06
7.5035e-07
-6.9764e-06
7.40334e-07
-7.07082e-06
7.09768e-07
-7.06125e-06
6.5786e-07
-6.93575e-06
5.85423e-07
-6.68266e-06
4.95207e-07
-6.29106e-06
3.92145e-07
-5.75155e-06
2.83441e-07
-5.057e-06
1.78429e-07
-4.20351e-06
8.81581e-08
-3.19121e-06
2.46835e-08
-2.02504e-06
-7.16192e-07
3.46354e-08
7.73296e-07
1.24994e-07
2.18048e-06
2.56283e-07
3.42904e-06
4.13481e-07
4.50676e-06
5.82286e-07
5.40742e-06
7.49899e-07
6.1299e-06
9.05622e-07
6.67781e-06
1.0412e-06
7.05881e-06
1.15095e-06
7.28373e-06
1.23163e-06
7.36562e-06
1.28217e-06
7.31882e-06
1.30336e-06
7.15822e-06
1.29739e-06
6.89857e-06
1.2675e-06
6.55399e-06
1.21756e-06
6.13763e-06
1.15181e-06
5.66145e-06
1.07453e-06
5.13614e-06
9.8993e-07
4.57108e-06
9.01913e-07
3.97444e-06
8.1403e-07
3.35326e-06
7.294e-07
2.71358e-06
6.50676e-07
2.06062e-06
5.8003e-07
1.39893e-06
5.19153e-07
7.32523e-07
4.69267e-07
6.50924e-08
4.31131e-07
-5.99873e-07
4.05056e-07
-1.25893e-06
3.90921e-07
-1.90853e-06
3.88176e-07
-2.54491e-06
3.95861e-07
-3.16395e-06
4.12609e-07
-3.76105e-06
4.36667e-07
-4.33107e-06
4.65914e-07
-4.86819e-06
4.97898e-07
-5.36588e-06
5.29887e-07
-5.8168e-06
5.58947e-07
-6.21285e-06
5.8205e-07
-6.54509e-06
5.96216e-07
-6.80387e-06
5.98698e-07
-6.97888e-06
5.87205e-07
-7.05933e-06
5.60159e-07
-7.0342e-06
5.16971e-07
-6.89256e-06
4.58321e-07
-6.62401e-06
3.86399e-07
-6.21914e-06
3.0507e-07
-5.67022e-06
2.1992e-07
-4.97185e-06
1.38122e-07
-4.12171e-06
6.8109e-08
-3.1212e-06
1.90372e-08
-1.97596e-06
-6.97155e-07
2.92233e-08
7.44072e-07
1.05889e-07
2.10382e-06
2.18029e-07
3.3169e-06
3.53442e-07
4.37134e-06
5.00399e-07
5.26046e-06
6.48238e-07
5.98206e-06
7.87849e-07
6.5382e-06
9.11986e-07
6.93467e-06
1.0154e-06
7.18032e-06
1.09483e-06
7.28619e-06
1.14879e-06
7.26485e-06
1.1774e-06
7.12961e-06
1.18201e-06
6.89396e-06
1.16495e-06
6.57106e-06
1.12918e-06
6.1734e-06
1.07808e-06
5.71255e-06
1.01518e-06
5.19904e-06
9.43988e-07
4.64227e-06
8.67866e-07
4.05056e-06
7.89916e-07
3.43121e-06
7.12917e-07
2.79058e-06
6.39284e-07
2.13426e-06
5.71046e-07
1.46717e-06
5.09838e-07
7.93731e-07
4.56903e-07
1.18028e-07
4.13098e-07
-5.56068e-07
3.78906e-07
-1.22474e-06
3.54442e-07
-1.88407e-06
3.39466e-07
-2.52994e-06
3.33391e-07
-3.15787e-06
3.35292e-07
-3.76295e-06
3.43919e-07
-4.3397e-06
3.57717e-07
-4.88199e-06
3.74852e-07
-5.38301e-06
3.93255e-07
-5.8352e-06
4.10677e-07
-6.23027e-06
4.24782e-07
-6.5592e-06
4.33249e-07
-6.81234e-06
4.33923e-07
-6.97955e-06
4.24978e-07
-7.05038e-06
4.05121e-07
-7.01434e-06
3.73796e-07
-6.86124e-06
3.31394e-07
-6.5816e-06
2.79428e-07
-6.16717e-06
2.20655e-07
-5.61145e-06
1.59097e-07
-4.91029e-06
9.99404e-08
-4.06256e-06
4.92912e-08
-3.07055e-06
1.37812e-08
-1.94045e-06
-6.83374e-07
2.41103e-08
7.19962e-07
8.76779e-08
2.04025e-06
1.81207e-07
3.22337e-06
2.94983e-07
4.25757e-06
4.19584e-07
5.13586e-06
5.46323e-07
5.85532e-06
6.67635e-07
6.41688e-06
7.77336e-07
6.82497e-06
8.70769e-07
7.08688e-06
9.44817e-07
7.21214e-06
9.9782e-07
7.21185e-06
1.02941e-06
7.09802e-06
1.0403e-06
6.88307e-06
1.03205e-06
6.5793e-06
1.00685e-06
6.1986e-06
9.67276e-07
5.75213e-06
9.16121e-07
5.25019e-06
8.56245e-07
4.70215e-06
7.90435e-07
4.11637e-06
7.21322e-07
3.50032e-06
6.51311e-07
2.86059e-06
5.82541e-07
2.20303e-06
5.16857e-07
1.53285e-06
4.55798e-07
8.54789e-07
4.00599e-07
1.73227e-07
3.52189e-07
-5.07658e-07
3.11199e-07
-1.18375e-06
2.77969e-07
-1.85084e-06
2.52559e-07
-2.50453e-06
2.3475e-07
-3.14006e-06
2.24056e-07
-3.75226e-06
2.19728e-07
-4.33537e-06
2.20771e-07
-4.88303e-06
2.25956e-07
-5.3882e-06
2.33852e-07
-5.8431e-06
2.42862e-07
-6.23928e-06
2.51283e-07
-6.56762e-06
2.57382e-07
-6.81844e-06
2.595e-07
-6.98167e-06
2.56168e-07
-7.04705e-06
2.46255e-07
-7.00443e-06
2.29117e-07
-6.8441e-06
2.04749e-07
-6.55723e-06
1.73919e-07
-6.13634e-06
1.38255e-07
-5.57578e-06
1.00275e-07
-4.87231e-06
6.33143e-08
-4.02559e-06
3.13654e-08
-3.0386e-06
8.80523e-09
-1.91789e-06
-6.74568e-07
1.92172e-08
7.00745e-07
7.01258e-08
1.98934e-06
1.45446e-07
3.14805e-06
2.37706e-07
4.16531e-06
3.39587e-07
5.03398e-06
4.44253e-07
5.75065e-06
5.45631e-07
6.31551e-06
6.38633e-07
6.73197e-06
7.19281e-07
7.00623e-06
7.84758e-07
7.14667e-06
8.33367e-07
7.16324e-06
8.64438e-07
7.06695e-06
8.78182e-07
6.86932e-06
8.75535e-07
6.58195e-06
8.5798e-07
6.21615e-06
8.27385e-07
5.78272e-06
7.85856e-07
5.29172e-06
7.35606e-07
4.7524e-06
6.78853e-07
4.17313e-06
6.17738e-07
3.56144e-06
5.54267e-07
2.92406e-06
4.90269e-07
2.26703e-06
4.2737e-07
1.59575e-06
3.66983e-07
9.15176e-07
3.103e-07
2.2991e-07
2.58293e-07
-4.55651e-07
2.1172e-07
-1.13717e-06
1.71127e-07
-1.81025e-06
1.36856e-07
-2.47025e-06
1.09047e-07
-3.11226e-06
8.76411e-08
-3.73085e-06
7.23849e-08
-4.32012e-06
6.28304e-08
-4.87348e-06
5.83416e-08
-5.38371e-06
5.8104e-08
-5.84286e-06
6.11422e-08
-6.24232e-06
6.63484e-08
-6.57282e-06
7.25243e-08
-6.82461e-06
7.844e-08
-6.98758e-06
8.2909e-08
-7.05152e-06
8.48808e-08
-7.0064e-06
8.35436e-08
-6.84276e-06
7.84314e-08
-6.55212e-06
6.95235e-08
-6.12743e-06
5.73198e-08
-5.56358e-06
4.28758e-08
-4.85787e-06
2.77792e-08
-4.0105e-06
1.4059e-08
-3.02488e-06
4.02204e-09
-1.90786e-06
-6.70546e-07
1.44785e-08
6.86266e-07
5.30357e-08
1.95078e-06
1.1043e-07
3.09066e-06
1.81255e-07
4.09448e-06
2.60157e-07
4.95507e-06
3.4205e-07
5.66876e-06
4.22315e-07
6.23524e-06
4.9697e-07
6.65732e-06
5.62785e-07
6.94042e-06
6.17333e-07
7.09212e-06
6.59e-07
7.12157e-06
6.86934e-07
7.03902e-06
7.00964e-07
6.85529e-06
7.01497e-07
6.58142e-06
6.89403e-07
6.22825e-06
6.65896e-07
5.80623e-06
6.32428e-07
5.32519e-06
5.90589e-07
4.79424e-06
5.42028e-07
4.22169e-06
4.88386e-07
3.61508e-06
4.31248e-07
2.9812e-06
3.72108e-07
2.32617e-06
3.12344e-07
1.65551e-06
2.53209e-07
9.74311e-07
1.95821e-07
2.87297e-07
1.4117e-07
-4.00999e-07
9.01097e-08
-1.08611e-06
4.33718e-08
-1.76351e-06
1.56129e-09
-2.42844e-06
-3.484e-08
-3.07585e-06
-6.54753e-08
-3.70022e-06
-9.01179e-08
-4.29547e-06
-1.08678e-07
-4.85492e-06
-1.21213e-07
-5.37117e-06
-1.27933e-07
-5.83614e-06
-1.29211e-07
-6.24104e-06
-1.25583e-07
-6.57645e-06
-1.17745e-07
-6.83245e-06
-1.06531e-07
-6.9988e-06
-9.28897e-08
-7.06516e-06
-7.78352e-08
-7.02146e-06
-6.23914e-08
-6.85821e-06
-4.75215e-08
-6.56699e-06
-3.40552e-08
-6.1409e-06
-2.26191e-08
-5.57501e-06
-1.35855e-08
-4.8669e-06
-7.05031e-09
-4.01703e-06