/*--------------------------------*- C++ -*----------------------------------*\
  =========                 |
  \\      /  F ield         | OpenFOAM: The Open Source CFD Toolbox
   \\    /   O peration     | Website:  https://openfoam.org
    \\  /    A nd           | Version:  7
     \\/     M anipulation  |
\*---------------------------------------------------------------------------*/
FoamFile
{
    version     2.0;
    format      ascii;
    class       volVectorField;
    location    "0.0374";
    object      U;
}
// * * * * * * * * * * * * * * * * * * * * * * * * * * * * * * * * * * * * * //

dimensions      [0 1 -1 0 0 0 0];

internalField   nonuniform List<vector> 
2500
(
(2.67308e-05 -2.66008e-05 0)
(7.8357e-05 -3.08678e-05 0)
(0.000102134 -1.36678e-05 0)
(6.52791e-05 1.01879e-05 0)
(-4.16515e-05 3.40641e-05 0)
(-0.000216177 5.58434e-05 0)
(-0.000451099 7.44795e-05 0)
(-0.000737937 8.97515e-05 0)
(-0.00106735 0.000101742 0)
(-0.00142987 0.000110629 0)
(-0.00181629 0.00011662 0)
(-0.00221778 0.000119933 0)
(-0.00262604 0.000120783 0)
(-0.00303333 0.000119382 0)
(-0.00343248 0.000115933 0)
(-0.00381693 0.000110634 0)
(-0.00418071 0.000103673 0)
(-0.00451846 9.52312e-05 0)
(-0.00482539 8.54817e-05 0)
(-0.00509727 7.45922e-05 0)
(-0.00533046 6.27251e-05 0)
(-0.00552186 5.00395e-05 0)
(-0.00566892 3.66931e-05 0)
(-0.00576966 2.28436e-05 0)
(-0.00582264 8.65059e-06 0)
(-0.00582699 -5.72271e-06 0)
(-0.00578243 -2.01077e-05 0)
(-0.00568927 -3.43291e-05 0)
(-0.00554844 -4.82042e-05 0)
(-0.00536152 -6.15419e-05 0)
(-0.00513076 -7.4143e-05 0)
(-0.00485906 -8.58002e-05 0)
(-0.00455008 -9.62993e-05 0)
(-0.00420815 -0.000105421 0)
(-0.00383835 -0.000112942 0)
(-0.00344646 -0.000118638 0)
(-0.00303899 -0.000122286 0)
(-0.00262311 -0.000123668 0)
(-0.00220663 -0.000122572 0)
(-0.00179795 -0.000118799 0)
(-0.00140595 -0.000112159 0)
(-0.00103991 -0.000102486 0)
(-0.000709354 -8.96385e-05 0)
(-0.000423808 -7.35262e-05 0)
(-0.000192433 -5.41749e-05 0)
(-2.33473e-05 -3.19095e-05 0)
(7.722e-05 -7.76056e-06 0)
(0.000108062 1.58754e-05 0)
(7.97184e-05 3.19841e-05 0)
(2.6526e-05 2.64704e-05 0)
(3.13376e-05 -7.83521e-05 0)
(6.45342e-05 -6.34256e-05 0)
(5.19713e-06 3.08696e-05 0)
(-0.000195936 0.000154608 0)
(-0.000557295 0.000282986 0)
(-0.00107731 0.000403986 0)
(-0.0017438 0.000511172 0)
(-0.0025388 0.000601686 0)
(-0.00344114 0.000674508 0)
(-0.00442824 0.000729574 0)
(-0.00547721 0.000767353 0)
(-0.00656558 0.000788625 0)
(-0.00767175 0.000794351 0)
(-0.00877527 0.000785594 0)
(-0.009857 0.000763474 0)
(-0.0108992 0.000729134 0)
(-0.0118858 0.00068372 0)
(-0.0128021 0.000628372 0)
(-0.0136348 0.000564214 0)
(-0.0143726 0.000492354 0)
(-0.0150052 0.000413889 0)
(-0.0155243 0.000329903 0)
(-0.0159228 0.000241483 0)
(-0.0161954 0.000149718 0)
(-0.016338 5.5713e-05 0)
(-0.0163484 -3.94044e-05 0)
(-0.016226 -0.000134476 0)
(-0.0159717 -0.000228308 0)
(-0.0155881 -0.000319665 0)
(-0.0150799 -0.000407269 0)
(-0.0144531 -0.000489802 0)
(-0.0137159 -0.00056591 0)
(-0.0128784 -0.000634211 0)
(-0.0119523 -0.000693308 0)
(-0.0109516 -0.000741805 0)
(-0.00989179 -0.000778329 0)
(-0.0087904 -0.000801549 0)
(-0.00766655 -0.000810212 0)
(-0.0065409 -0.000803169 0)
(-0.00543541 -0.000779425 0)
(-0.00437302 -0.000738187 0)
(-0.00337728 -0.000678949 0)
(-0.00247171 -0.00060161 0)
(-0.00167907 -0.000506693 0)
(-0.00102008 -0.000395748 0)
(-0.000511624 -0.000272172 0)
(-0.000164078 -0.000142784 0)
(2.30286e-05 -2.03129e-05 0)
(7.09352e-05 7.00651e-05 0)
(3.22442e-05 7.96871e-05 0)
(1.51472e-05 -0.000103639 0)
(-2.66e-05 -5.25585e-06 0)
(-0.000237946 0.000243245 0)
(-0.000658361 0.000553907 0)
(-0.00130506 0.000878291 0)
(-0.00217617 0.00118787 0)
(-0.00325612 0.00146609 0)
(-0.00452076 0.00170407 0)
(-0.00594083 0.00189753 0)
(-0.00748432 0.00204498 0)
(-0.00911816 0.0021467 0)
(-0.0108093 0.00220404 0)
(-0.0125256 0.00221909 0)
(-0.0142362 0.00219436 0)
(-0.0159122 0.00213268 0)
(-0.0175265 0.002037 0)
(-0.0190542 0.00191038 0)
(-0.0204729 0.00175591 0)
(-0.0217622 0.00157668 0)
(-0.0229042 0.00137578 0)
(-0.0238834 0.00115629 0)
(-0.0246865 0.000921267 0)
(-0.0253027 0.000673793 0)
(-0.0257236 0.000416969 0)
(-0.0259434 0.000153934 0)
(-0.0259584 -0.000112105 0)
(-0.0257677 -0.000377867 0)
(-0.0253729 -0.000639976 0)
(-0.0247783 -0.000894954 0)
(-0.0239909 -0.00113922 0)
(-0.0230204 -0.00136911 0)
(-0.0218796 -0.00158086 0)
(-0.0205838 -0.00177066 0)
(-0.0191515 -0.0019347 0)
(-0.0176039 -0.0020692 0)
(-0.0159648 -0.00217046 0)
(-0.0142611 -0.00223498 0)
(-0.0125216 -0.00225952 0)
(-0.0107776 -0.00224121 0)
(-0.00906193 -0.0021777 0)
(-0.00740864 -0.00206736 0)
(-0.00585227 -0.0019095 0)
(-0.00442686 -0.00170479 0)
(-0.00316465 -0.00145585 0)
(-0.00209434 -0.00116821 0)
(-0.00123866 -0.000852084 0)
(-0.000610914 -0.000525216 0)
(-0.000210207 -0.000217221 0)
(-1.56237e-05 2.32989e-05 0)
(1.70934e-05 0.000109523 0)
(-7.45346e-06 -7.04815e-05 0)
(-0.000146989 0.000192059 0)
(-0.000544592 0.000662447 0)
(-0.00121557 0.00122307 0)
(-0.00216794 0.0018034 0)
(-0.00339624 0.00235825 0)
(-0.0048806 0.00285946 0)
(-0.00659145 0.00329049 0)
(-0.00849313 0.00364246 0)
(-0.0105464 0.00391149 0)
(-0.0127101 0.00409702 0)
(-0.014943 0.00420076 0)
(-0.0172044 0.00422593 0)
(-0.0194551 0.00417676 0)
(-0.021658 0.00405814 0)
(-0.0237784 0.00387538 0)
(-0.025784 0.00363407 0)
(-0.0276457 0.00333992 0)
(-0.0293371 0.00299872 0)
(-0.0308349 0.0026163 0)
(-0.0321187 0.00219847 0)
(-0.0331714 0.0017511 0)
(-0.0339788 0.00128006 0)
(-0.03453 0.000791287 0)
(-0.0348174 0.000290794 0)
(-0.0348363 -0.000215282 0)
(-0.0345855 -0.000720664 0)
(-0.0340674 -0.00121891 0)
(-0.0332874 -0.0017034 0)
(-0.0322549 -0.00216735 0)
(-0.0309826 -0.0026038 0)
(-0.029487 -0.00300568 0)
(-0.0277884 -0.00336586 0)
(-0.0259105 -0.00367721 0)
(-0.0238808 -0.00393271 0)
(-0.0217303 -0.00412558 0)
(-0.0194933 -0.00424943 0)
(-0.0172069 -0.00429846 0)
(-0.014911 -0.00426767 0)
(-0.0126473 -0.00415316 0)
(-0.0104587 -0.00395248 0)
(-0.00838853 -0.00366514 0)
(-0.00647897 -0.00329331 0)
(-0.00476972 -0.00284284 0)
(-0.00329589 -0.00232481 0)
(-0.00208545 -0.001758 0)
(-0.00115574 -0.00117266 0)
(-0.000508896 -0.000615655 0)
(-0.000132427 -0.000158178 0)
(-4.74742e-06 8.31599e-05 0)
(-3.03501e-05 3.0708e-05 0)
(-0.000274632 0.000549305 0)
(-0.0008735 0.00131045 0)
(-0.00181047 0.00217739 0)
(-0.0030795 0.00306222 0)
(-0.00466853 0.00390521 0)
(-0.00655175 0.00466706 0)
(-0.00869378 0.00532332 0)
(-0.011053 0.0058599 0)
(-0.0135839 0.00626993 0)
(-0.0162388 0.00655164 0)
(-0.0189695 0.00670679 0)
(-0.0217285 0.00673969 0)
(-0.0244695 0.00665636 0)
(-0.0271487 0.00646402 0)
(-0.029725 0.0061707 0)
(-0.03216 0.00578495 0)
(-0.0344189 0.00531561 0)
(-0.0364703 0.00477175 0)
(-0.0382861 0.0041625 0)
(-0.039842 0.0034971 0)
(-0.0411176 0.00278483 0)
(-0.0420957 0.00203502 0)
(-0.0427634 0.00125714 0)
(-0.0431114 0.00046077 0)
(-0.0431343 -0.000344316 0)
(-0.0428306 -0.00114813 0)
(-0.0422032 -0.00194043 0)
(-0.0412587 -0.00271072 0)
(-0.0400083 -0.00344825 0)
(-0.0384673 -0.00414206 0)
(-0.0366555 -0.004781 0)
(-0.034597 -0.00535389 0)
(-0.0323203 -0.00584958 0)
(-0.0298582 -0.00625718 0)
(-0.0272474 -0.0065662 0)
(-0.0245286 -0.00676689 0)
(-0.0217459 -0.00685045 0)
(-0.018946 -0.0068095 0)
(-0.0161783 -0.00663847 0)
(-0.0134929 -0.00633422 0)
(-0.0109403 -0.00589677 0)
(-0.00856978 -0.00533031 0)
(-0.00642744 -0.00464461 0)
(-0.00455441 -0.00385701 0)
(-0.00298447 -0.00299528 0)
(-0.00174066 -0.00210186 0)
(-0.000831327 -0.00123903 0)
(-0.000257235 -0.000496144 0)
(-2.70905e-05 -9.50866e-06 0)
(-5.17764e-05 0.000199475 0)
(-0.00040015 0.00107105 0)
(-0.00120346 0.00219581 0)
(-0.00241135 0.00342612 0)
(-0.0040011 0.00466161 0)
(-0.00595169 0.00583089 0)
(-0.00822976 0.00688499 0)
(-0.0107932 0.00779207 0)
(-0.0135943 0.00853293 0)
(-0.0165814 0.0090976 0)
(-0.0197011 0.0094829 0)
(-0.022899 0.00969059 0)
(-0.0261217 0.00972603 0)
(-0.0293171 0.00959715 0)
(-0.0324357 0.00931371 0)
(-0.0354308 0.00888673 0)
(-0.0382591 0.0083281 0)
(-0.040881 0.00765022 0)
(-0.0432605 0.00686589 0)
(-0.0453659 0.00598809 0)
(-0.0471695 0.00502998 0)
(-0.0486478 0.0040048 0)
(-0.0497814 0.00292596 0)
(-0.0505555 0.00180699 0)
(-0.0509594 0.000661664 0)
(-0.0509869 -0.000496013 0)
(-0.0506366 -0.00165172 0)
(-0.0499115 -0.0027908 0)
(-0.0488192 -0.00389824 0)
(-0.0473724 -0.0049587 0)
(-0.0455886 -0.00595655 0)
(-0.0434903 -0.00687596 0)
(-0.0411048 -0.00770106 0)
(-0.0384646 -0.0084161 0)
(-0.0356069 -0.00900573 0)
(-0.0325732 -0.00945527 0)
(-0.0294098 -0.00975114 0)
(-0.0261663 -0.00988122 0)
(-0.0228959 -0.00983549 0)
(-0.0196539 -0.00960661 0)
(-0.0164971 -0.00919075 0)
(-0.0134823 -0.00858856 0)
(-0.0106651 -0.0078065 0)
(-0.00809791 -0.00685848 0)
(-0.00582825 -0.00576811 0)
(-0.00389664 -0.00457183 0)
(-0.00233355 -0.00332297 0)
(-0.00115587 -0.00209664 0)
(-0.000380266 -0.000995698 0)
(-4.79854e-05 -0.000168294 0)
(-7.12584e-05 0.000432258 0)
(-0.000519899 0.00175492 0)
(-0.00152488 0.0033186 0)
(-0.00300265 0.00497067 0)
(-0.00491284 0.00660251 0)
(-0.00722399 0.00813406 0)
(-0.00989381 0.00950852 0)
(-0.0128725 0.0106878 0)
(-0.0161056 0.0116481 0)
(-0.0195355 0.0123767 0)
(-0.0231027 0.0128691 0)
(-0.0267476 0.0131273 0)
(-0.0304111 0.0131576 0)
(-0.0340361 0.0129702 0)
(-0.0375682 0.0125775 0)
(-0.0409559 0.0119939 0)
(-0.0441516 0.0112349 0)
(-0.0471115 0.0103168 0)
(-0.0497961 0.00925651 0)
(-0.0521705 0.00807136 0)
(-0.0542039 0.00677883 0)
(-0.0558704 0.00539663 0)
(-0.0571487 0.00394267 0)
(-0.0580222 0.00243507 0)
(-0.0584792 0.000892269 0)
(-0.0585129 -0.000666986 0)
(-0.0581215 -0.00222353 0)
(-0.0573081 -0.00375776 0)
(-0.0560814 -0.00524962 0)
(-0.054455 -0.00667863 0)
(-0.0524483 -0.00802397 0)
(-0.0500859 -0.00926456 0)
(-0.047398 -0.0103793 0)
(-0.0444201 -0.0113474 0)
(-0.0411931 -0.0121484 0)
(-0.037763 -0.0127631 0)
(-0.0341805 -0.0131736 0)
(-0.0305004 -0.0133642 0)
(-0.0267811 -0.0133218 0)
(-0.0230837 -0.0130372 0)
(-0.0194708 -0.0125058 0)
(-0.0160053 -0.0117288 0)
(-0.0127492 -0.0107147 0)
(-0.0097613 -0.00948138 0)
(-0.00709623 -0.00805841 0)
(-0.00480231 -0.00648988 0)
(-0.00291885 -0.00483844 0)
(-0.00147284 -0.00318931 0)
(-0.000497831 -0.00165498 0)
(-6.69682e-05 -0.000389888 0)
(-8.89767e-05 0.00072525 0)
(-0.00063334 0.00259588 0)
(-0.00183494 0.00467502 0)
(-0.00357891 0.00680859 0)
(-0.00580728 0.00888307 0)
(-0.00847728 0.0108123 0)
(-0.0115367 0.0125337 0)
(-0.0149272 0.0140041 0)
(-0.018587 0.0151963 0)
(-0.022452 0.0160951 0)
(-0.0264567 0.0166954 0)
(-0.0305361 0.0169993 0)
(-0.0346261 0.017015 0)
(-0.0386647 0.0167546 0)
(-0.0425931 0.0162338 0)
(-0.0463557 0.0154704 0)
(-0.0499011 0.0144839 0)
(-0.053182 0.013295 0)
(-0.0561559 0.0119251 0)
(-0.0587848 0.010396 0)
(-0.0610358 0.00873006 0)
(-0.0628807 0.00694975 0)
(-0.0642965 0.00507791 0)
(-0.0652653 0.00313765 0)
(-0.0657744 0.00115245 0)
(-0.0658162 -0.000853748 0)
(-0.0653886 -0.00285653 0)
(-0.064495 -0.00483093 0)
(-0.0631445 -0.0067514 0)
(-0.0613516 -0.00859186 0)
(-0.0591371 -0.0103258 0)
(-0.0565272 -0.0119265 0)
(-0.0535545 -0.0133671 0)
(-0.0502572 -0.0146212 0)
(-0.0466793 -0.0156631 0)
(-0.0428704 -0.0164682 0)
(-0.0388853 -0.0170141 0)
(-0.0347833 -0.017281 0)
(-0.0306278 -0.0172527 0)
(-0.0264851 -0.0169174 0)
(-0.0224237 -0.0162696 0)
(-0.0185125 -0.0153106 0)
(-0.0148201 -0.0140508 0)
(-0.0114123 -0.0125116 0)
(-0.00835149 -0.0107275 0)
(-0.00569484 -0.00874929 0)
(-0.00349154 -0.00664714 0)
(-0.00177958 -0.00451415 0)
(-0.000609413 -0.00246946 0)
(-8.42092e-05 -0.000670553 0)
(-0.000105317 0.00107496 0)
(-0.000741347 0.00358851 0)
(-0.00213445 0.00626016 0)
(-0.00414058 0.0089364 0)
(-0.00668463 0.011501 0)
(-0.0097122 0.013864 0)
(-0.0131605 0.0159586 0)
(-0.0169619 0.0177383 0)
(-0.0210466 0.0191731 0)
(-0.0253435 0.0202467 0)
(-0.0297812 0.0209536 0)
(-0.0342888 0.0212969 0)
(-0.0387974 0.0212866 0)
(-0.0432405 0.0209376 0)
(-0.047555 0.0202689 0)
(-0.0516817 0.0193022 0)
(-0.0555657 0.0180614 0)
(-0.0591568 0.0165718 0)
(-0.0624097 0.0148595 0)
(-0.065284 0.0129514 0)
(-0.0677448 0.0108749 0)
(-0.0697621 0.00865754 0)
(-0.0713114 0.00632745 0)
(-0.0723736 0.00391304 0)
(-0.0729349 0.00144318 0)
(-0.0729874 -0.00105273 0)
(-0.0725285 -0.00354465 0)
(-0.0715615 -0.0060019 0)
(-0.0700958 -0.00839308 0)
(-0.0681466 -0.0106861 0)
(-0.0657355 -0.0128485 0)
(-0.0628904 -0.0148473 0)
(-0.0596453 -0.0166496 0)
(-0.0560409 -0.0182229 0)
(-0.0521238 -0.0195355 0)
(-0.0479468 -0.0205574 0)
(-0.0435684 -0.0212611 0)
(-0.0390522 -0.021622 0)
(-0.034466 -0.0216204 0)
(-0.0298816 -0.0212417 0)
(-0.0253732 -0.0204788 0)
(-0.021016 -0.0193327 0)
(-0.0168855 -0.0178151 0)
(-0.0130554 -0.0159501 0)
(-0.00959656 -0.0137763 0)
(-0.00657572 -0.01135 0)
(-0.00405283 -0.0087473 0)
(-0.00207728 -0.00606747 0)
(-0.000716 -0.00343437 0)
(-0.000100104 -0.00100697 0)
(-0.000120691 0.00147869 0)
(-0.000845362 0.00472824 0)
(-0.00242603 0.0080698 0)
(-0.00469134 0.0113511 0)
(-0.00754965 0.0144549 0)
(-0.0109348 0.0172887 0)
(-0.014773 0.0197835 0)
(-0.0189867 0.0218904 0)
(-0.0234977 0.0235782 0)
(-0.0282273 0.02483 0)
(-0.0330976 0.025641 0)
(-0.038032 0.0260158 0)
(-0.0429565 0.0259669 0)
(-0.0478002 0.0255125 0)
(-0.052496 0.0246752 0)
(-0.0569812 0.0234813 0)
(-0.0611978 0.0219593 0)
(-0.0650931 0.0201392 0)
(-0.0686192 0.0180525 0)
(-0.0717339 0.0157313 0)
(-0.0744002 0.0132083 0)
(-0.0765869 0.0105165 0)
(-0.0782681 0.00768952 0)
(-0.0794236 0.00476132 0)
(-0.0800389 0.00176637 0)
(-0.0801051 -0.00126016 0)
(-0.0796195 -0.00428239 0)
(-0.0785852 -0.00726364 0)
(-0.0770115 -0.0101663 0)
(-0.074914 -0.0129522 0)
(-0.072315 -0.0155822 0)
(-0.0692433 -0.0180169 0)
(-0.0657344 -0.0202168 0)
(-0.0618308 -0.022143 0)
(-0.0575814 -0.0237573 0)
(-0.0530419 -0.0250238 0)
(-0.048274 -0.0259091 0)
(-0.0433454 -0.0263838 0)
(-0.0383287 -0.0264235 0)
(-0.0333008 -0.0260106 0)
(-0.0283418 -0.0251355 0)
(-0.0235338 -0.0237985 0)
(-0.0189598 -0.0220116 0)
(-0.0147018 -0.0198007 0)
(-0.0108399 -0.0172078 0)
(-0.00745141 -0.0142932 0)
(-0.00460747 -0.0111382 0)
(-0.00236913 -0.00784658 0)
(-0.000819231 -0.00454603 0)
(-0.000115091 -0.00139668 0)
(-0.000135479 0.00193463 0)
(-0.000947015 0.00601204 0)
(-0.00271315 0.0101013 0)
(-0.00523655 0.0140514 0)
(-0.00840958 0.0177448 0)
(-0.0121543 0.021088 0)
(-0.0163856 0.0240106 0)
(-0.0210155 0.0264631 0)
(-0.0259568 0.0284139 0)
(-0.0311229 0.0298469 0)
(-0.036429 0.0307586 0)
(-0.0417925 0.0311561 0)
(-0.0471341 0.031055 0)
(-0.0523785 0.0304772 0)
(-0.0574548 0.0294501 0)
(-0.0622969 0.0280043 0)
(-0.0668442 0.0261736 0)
(-0.0710412 0.0239934 0)
(-0.0748382 0.0215005 0)
(-0.0781911 0.0187326 0)
(-0.0810616 0.0157281 0)
(-0.083417 0.0125255 0)
(-0.0852304 0.00916425 0)
(-0.0864806 0.00568389 0)
(-0.0871523 0.00212479 0)
(-0.0872361 -0.001472 0)
(-0.0867285 -0.00506456 0)
(-0.0856324 -0.00860996 0)
(-0.083957 -0.0120643 0)
(-0.0817179 -0.0153827 0)
(-0.0789377 -0.0185193 0)
(-0.0756459 -0.021428 0)
(-0.071879 -0.0240623 0)
(-0.0676808 -0.0263761 0)
(-0.0631025 -0.0283246 0)
(-0.058202 -0.029865 0)
(-0.0530445 -0.0309578 0)
(-0.0477013 -0.0315676 0)
(-0.0422498 -0.0316653 0)
(-0.0367723 -0.031229 0)
(-0.0313552 -0.030246 0)
(-0.0260878 -0.0287149 0)
(-0.0210612 -0.0266473 0)
(-0.0163663 -0.0240701 0)
(-0.0120936 -0.0210273 0)
(-0.00833118 -0.0175826 0)
(-0.00516214 -0.0138212 0)
(-0.00265929 -0.00985088 0)
(-0.000920993 -0.00580261 0)
(-0.000129596 -0.00183825 0)
(-0.000150024 0.0024419 0)
(-0.00104794 0.00743865 0)
(-0.00299956 0.012354 0)
(-0.00578229 0.017038 0)
(-0.00927287 0.021373 0)
(-0.0133815 0.0252655 0)
(-0.0180113 0.0286448 0)
(-0.0230639 0.0314617 0)
(-0.0284421 0.0336858 0)
(-0.0340512 0.0353024 0)
(-0.039799 0.0363107 0)
(-0.0455966 0.0367211 0)
(-0.0513595 0.0365532 0)
(-0.0570077 0.0358334 0)
(-0.0624666 0.0345939 0)
(-0.0676669 0.0328709 0)
(-0.0725453 0.0307037 0)
(-0.0770442 0.0281334 0)
(-0.0811122 0.0252026 0)
(-0.0847035 0.0219549 0)
(-0.0877786 0.0184343 0)
(-0.0903037 0.0146854 0)
(-0.0922509 0.0107532 0)
(-0.0935984 0.00668332 0)
(-0.0943299 0.00252193 0)
(-0.0944354 -0.00168387 0)
(-0.0939109 -0.00588597 0)
(-0.0927587 -0.0100351 0)
(-0.0909874 -0.0140809 0)
(-0.0886127 -0.0179715 0)
(-0.0856569 -0.0216543 0)
(-0.08215 -0.0250757 0)
(-0.0781291 -0.028182 0)
(-0.0736391 -0.0309196 0)
(-0.0687327 -0.0332363 0)
(-0.0634704 -0.035082 0)
(-0.0579202 -0.03641 0)
(-0.0521572 -0.0371787 0)
(-0.0462635 -0.0373528 0)
(-0.040327 -0.0369055 0)
(-0.0344409 -0.0358202 0)
(-0.028702 -0.0340927 0)
(-0.0232102 -0.0317332 0)
(-0.0180664 -0.0287684 0)
(-0.0133715 -0.0252437 0)
(-0.00922581 -0.021225 0)
(-0.00572442 -0.0168008 0)
(-0.00295231 -0.0120825 0)
(-0.00102322 -0.00720445 0)
(-0.000144008 -0.00233132 0)
(-0.000164628 0.00300051 0)
(-0.0011497 0.0090087 0)
(-0.00328899 0.0148299 0)
(-0.00633486 0.0203142 0)
(-0.0101484 0.0253444 0)
(-0.0146278 0.0298273 0)
(-0.0196642 0.0336931 0)
(-0.025148 0.036894 0)
(-0.0309721 0.0394014 0)
(-0.0370328 0.0412039 0)
(-0.0432303 0.0423041 0)
(-0.0494693 0.0427168 0)
(-0.0556596 0.0424663 0)
(-0.0617167 0.0415846 0)
(-0.0675621 0.0401095 0)
(-0.0731237 0.0380832 0)
(-0.0783355 0.0355511 0)
(-0.083138 0.0325604 0)
(-0.0874782 0.0291599 0)
(-0.0913093 0.0253992 0)
(-0.0945906 0.0213284 0)
(-0.0972874 0.0169981 0)
(-0.0993712 0.0124591 0)
(-0.100819 0.00776298 0)
(-0.101615 0.00296193 0)
(-0.101747 -0.00189093 0)
(-0.10121 -0.00674128 0)
(-0.100008 -0.0115334 0)
(-0.0981467 -0.0162103 0)
(-0.0956421 -0.0207131 0)
(-0.0925163 -0.024982 0)
(-0.0887988 -0.028956 0)
(-0.0845272 -0.0325733 0)
(-0.0797471 -0.0357726 0)
(-0.0745126 -0.0384934 0)
(-0.068886 -0.0406778 0)
(-0.0629381 -0.0422712 0)
(-0.0567481 -0.0432246 0)
(-0.0504025 -0.0434957 0)
(-0.0439953 -0.0430518 0)
(-0.0376264 -0.0418712 0)
(-0.0314012 -0.0399458 0)
(-0.0254287 -0.0372832 0)
(-0.0198203 -0.0339089 0)
(-0.0146888 -0.0298688 0)
(-0.0101467 -0.0252303 0)
(-0.00630227 -0.0200845 0)
(-0.00325285 -0.0145464 0)
(-0.00112781 -0.00875417 0)
(-0.000158683 -0.00287655 0)
(-0.000179556 0.00361124 0)
(-0.00125373 0.0107246 0)
(-0.00358503 0.017533 0)
(-0.00690035 0.0238859 0)
(-0.0110449 0.0296665 0)
(-0.0159044 0.0347822 0)
(-0.0213579 0.0391651 0)
(-0.0272837 0.0427697 0)
(-0.0335645 0.0455708 0)
(-0.0400874 0.0475608 0)
(-0.0467443 0.0487474 0)
(-0.0534332 0.0491506 0)
(-0.0600582 0.0488007 0)
(-0.0665302 0.0477361 0)
(-0.0727671 0.046001 0)
(-0.0786936 0.0436444 0)
(-0.0842416 0.0407182 0)
(-0.08935 0.0372763 0)
(-0.0939645 0.0333741 0)
(-0.0980371 0.0290674 0)
(-0.101527 0.0244126 0)
(-0.104398 0.0194662 0)
(-0.106621 0.0142851 0)
(-0.108173 0.00892685 0)
(-0.109037 0.00344944 0)
(-0.109201 -0.00208791 0)
(-0.108659 -0.00762472 0)
(-0.107412 -0.0130989 0)
(-0.105467 -0.0184465 0)
(-0.102839 -0.0236019 0)
(-0.0995492 -0.0284977 0)
(-0.0956261 -0.0330649 0)
(-0.0911074 -0.0372337 0)
(-0.086039 -0.0409344 0)
(-0.0804759 -0.0440976 0)
(-0.0744823 -0.0466566 0)
(-0.0681315 -0.0485481 0)
(-0.0615061 -0.0497145 0)
(-0.0546976 -0.0501058 0)
(-0.0478061 -0.0496818 0)
(-0.0409388 -0.0484146 0)
(-0.0342097 -0.0462908 0)
(-0.0277381 -0.0433143 0)
(-0.0216466 -0.0395085 0)
(-0.0160604 -0.0349183 0)
(-0.0111054 -0.0296121 0)
(-0.00690363 -0.0236834 0)
(-0.00356549 -0.0172507 0)
(-0.00123658 -0.0104567 0)
(-0.000173946 -0.00347561 0)
(-0.000195044 0.00427561 0)
(-0.00136138 0.0125905 0)
(-0.00389103 0.0204698 0)
(-0.00748456 0.0277616 0)
(-0.0119706 0.0343492 0)
(-0.0172223 0.0401414 0)
(-0.0231053 0.0450726 0)
(-0.0294861 0.0491007 0)
(-0.0362361 0.0522052 0)
(-0.0432327 0.0543838 0)
(-0.0503596 0.0556501 0)
(-0.0575076 0.0560309 0)
(-0.064575 0.0555635 0)
(-0.0714682 0.0542936 0)
(-0.0781012 0.052273 0)
(-0.0843961 0.0495579 0)
(-0.090283 0.0462077 0)
(-0.0956992 0.0422834 0)
(-0.100589 0.0378471 0)
(-0.104905 0.0329614 0)
(-0.108604 0.027689 0)
(-0.111652 0.0220925 0)
(-0.114017 0.0162348 0)
(-0.115678 0.0101792 0)
(-0.116615 0.00398952 0)
(-0.116816 -0.00226904 0)
(-0.116274 -0.00852992 0)
(-0.11499 -0.0147247 0)
(-0.11297 -0.0207828 0)
(-0.110226 -0.0266313 0)
(-0.106778 -0.0321954 0)
(-0.102656 -0.0373978 0)
(-0.0978944 -0.0421604 0)
(-0.0925407 -0.0464041 0)
(-0.0866497 -0.0500503 0)
(-0.0802869 -0.0530225 0)
(-0.073528 -0.0552477 0)
(-0.0664591 -0.0566586 0)
(-0.0591764 -0.057196 0)
(-0.0517861 -0.056811 0)
(-0.0444033 -0.0554678 0)
(-0.0371511 -0.0531468 0)
(-0.0301595 -0.0498465 0)
(-0.0235633 -0.0455869 0)
(-0.0175011 -0.0404111 0)
(-0.0121132 -0.0343878 0)
(-0.00753625 -0.0276122 0)
(-0.00389466 -0.0202067 0)
(-0.00135126 -0.0123192 0)
(-0.000190094 -0.00413107 0)
(-0.000211299 0.00499581 0)
(-0.00147384 0.0146122 0)
(-0.00421008 0.0236489 0)
(-0.00809286 0.0319521 0)
(-0.0129335 0.0394049 0)
(-0.0185913 0.0459181 0)
(-0.0249186 0.0514291 0)
(-0.0317687 0.0559006 0)
(-0.0390016 0.0593175 0)
(-0.0464843 0.0616844 0)
(-0.054092 0.0630224 0)
(-0.0617081 0.0633662 0)
(-0.0692251 0.0627615 0)
(-0.0765447 0.0612623 0)
(-0.0835775 0.0589291 0)
(-0.0902432 0.0558264 0)
(-0.0964701 0.0520213 0)
(-0.102194 0.0475828 0)
(-0.10736 0.04258 0)
(-0.111919 0.0370825 0)
(-0.115829 0.0311594 0)
(-0.119054 0.0248794 0)
(-0.121564 0.0183113 0)
(-0.123336 0.0115241 0)
(-0.124351 0.00458743 0)
(-0.124595 -0.00242804 0)
(-0.124062 -0.00944979 0)
(-0.122749 -0.0164032 0)
(-0.120661 -0.0232111 0)
(-0.11781 -0.0297936 0)
(-0.114213 -0.0360679 0)
(-0.109899 -0.0419487 0)
(-0.104903 -0.0473487 0)
(-0.0992684 -0.0521792 0)
(-0.0930521 -0.0563515 0)
(-0.08632 -0.0597784 0)
(-0.0791495 -0.0623761 0)
(-0.07163 -0.0640663 0)
(-0.0638623 -0.0647791 0)
(-0.0559589 -0.0644553 0)
(-0.0480428 -0.0630499 0)
(-0.0402469 -0.0605349 0)
(-0.0327125 -0.0569023 0)
(-0.0255877 -0.0521671 0)
(-0.0190252 -0.0463696 0)
(-0.013181 -0.0395778 0)
(-0.00820757 -0.0318887 0)
(-0.0042446 -0.0234284 0)
(-0.00147349 -0.014351 0)
(-0.000207407 -0.00484639 0)
(-0.000228509 0.00577463 0)
(-0.00159222 0.0167969 0)
(-0.00454502 0.0270811 0)
(-0.00873017 0.0364705 0)
(-0.0139404 0.0448485 0)
(-0.0200205 0.0521278 0)
(-0.0268083 0.0582502 0)
(-0.0341433 0.0631839 0)
(-0.0418733 0.066921 0)
(-0.0498547 0.0694744 0)
(-0.0579535 0.070874 0)
(-0.0660457 0.0711642 0)
(-0.074018 0.0704002 0)
(-0.0817675 0.0686461 0)
(-0.0892017 0.0659716 0)
(-0.0962381 0.0624506 0)
(-0.102804 0.058159 0)
(-0.108834 0.0531738 0)
(-0.114274 0.0475721 0)
(-0.119074 0.0414302 0)
(-0.123193 0.0348239 0)
(-0.126595 0.0278281 0)
(-0.129251 0.0205172 0)
(-0.131137 0.0129657 0)
(-0.132234 0.0052485 0)
(-0.132528 -0.00255818 0)
(-0.13201 -0.0103763 0)
(-0.130677 -0.0181254 0)
(-0.128532 -0.0257218 0)
(-0.125585 -0.0330787 0)
(-0.121851 -0.0401056 0)
(-0.117356 -0.0467087 0)
(-0.112134 -0.0527913 0)
(-0.106228 -0.0582545 0)
(-0.0996919 -0.0629988 0)
(-0.0925931 -0.0669252 0)
(-0.0850103 -0.0699378 0)
(-0.0770354 -0.071946 0)
(-0.0687737 -0.0728673 0)
(-0.0603438 -0.0726308 0)
(-0.051877 -0.0711802 0)
(-0.0435163 -0.0684774 0)
(-0.0354152 -0.064506 0)
(-0.0277355 -0.0592746 0)
(-0.0206459 -0.0528192 0)
(-0.014319 -0.0452063 0)
(-0.00892467 -0.0365342 0)
(-0.00461932 -0.0269329 0)
(-0.00160482 -0.0165634 0)
(-0.000226147 -0.00562587 0)
(-0.000246845 0.0066154 0)
(-0.00171753 0.0191531 0)
(-0.00489843 0.0307786 0)
(-0.00940098 0.0413318 0)
(-0.0149977 0.0506962 0)
(-0.0215179 0.0587875 0)
(-0.0287836 0.0655522 0)
(-0.0366198 0.0709658 0)
(-0.0448612 0.0750291 0)
(-0.053353 0.0777648 0)
(-0.0619519 0.0792136 0)
(-0.0705263 0.0794309 0)
(-0.0789571 0.0784834 0)
(-0.0871371 0.0764462 0)
(-0.094971 0.0733999 0)
(-0.102375 0.0694285 0)
(-0.109274 0.0646176 0)
(-0.115605 0.059053 0)
(-0.121313 0.0528197 0)
(-0.126349 0.0460015 0)
(-0.130673 0.0386807 0)
(-0.13425 0.030938 0)
(-0.137051 0.0228536 0)
(-0.139053 0.0145069 0)
(-0.140235 0.00597787 0)
(-0.140584 -0.00265234 0)
(-0.14009 -0.0113005 0)
(-0.138748 -0.0198807 0)
(-0.136559 -0.0283032 0)
(-0.133529 -0.0364743 0)
(-0.129673 -0.044296 0)
(-0.125012 -0.0516658 0)
(-0.119578 -0.0584775 0)
(-0.113412 -0.0646214 0)
(-0.106566 -0.0699861 0)
(-0.0991081 -0.0744601 0)
(-0.091116 -0.077934 0)
(-0.0826845 -0.0803031 0)
(-0.0739228 -0.0814709 0)
(-0.0649554 -0.0813523 0)
(-0.0559219 -0.0798778 0)
(-0.0469757 -0.0769971 0)
(-0.0382833 -0.0726834 0)
(-0.0300214 -0.0669368 0)
(-0.0223755 -0.0597878 0)
(-0.0155368 -0.0513002 0)
(-0.00969427 -0.0415727 0)
(-0.0050227 -0.0307397 0)
(-0.00174674 -0.0189697 0)
(-0.000246564 -0.00647458 0)
(-0.000266466 0.00752195 0)
(-0.0018507 0.0216906 0)
(-0.00527269 0.0347556 0)
(-0.0101093 0.046553 0)
(-0.0161113 0.0569665 0)
(-0.0230906 0.0659153 0)
(-0.0308524 0.0733523 0)
(-0.039206 0.0792616 0)
(-0.0479723 0.0836545 0)
(-0.0569849 0.0865653 0)
(-0.0660905 0.0880475 0)
(-0.0751502 0.0881695 0)
(-0.0840389 0.0870111 0)
(-0.0926458 0.0846601 0)
(-0.100873 0.0812092 0)
(-0.108636 0.0767538 0)
(-0.115859 0.0713899 0)
(-0.122481 0.0652127 0)
(-0.128447 0.0583158 0)
(-0.133709 0.0507902 0)
(-0.13823 0.0427248 0)
(-0.141976 0.0342064 0)
(-0.144919 0.0253199 0)
(-0.147036 0.0161497 0)
(-0.148306 0.00678021 0)
(-0.148717 -0.00270309 0)
(-0.148256 -0.0122124 0)
(-0.146917 -0.0216567 0)
(-0.144697 -0.0309408 0)
(-0.141602 -0.0399645 0)
(-0.137642 -0.0486225 0)
(-0.132834 -0.0568036 0)
(-0.127207 -0.0643916 0)
(-0.120799 -0.0712659 0)
(-0.11366 -0.0773023 0)
(-0.105855 -0.0823757 0)
(-0.0974626 -0.0863615 0)
(-0.0885783 -0.0891394 0)
(-0.0793149 -0.0905967 0)
(-0.0698025 -0.0906321 0)
(-0.0601888 -0.0891603 0)
(-0.0506381 -0.0861164 0)
(-0.0413302 -0.0814607 0)
(-0.0324581 -0.0751828 0)
(-0.0242254 -0.0673056 0)
(-0.0168436 -0.0578889 0)
(-0.0105227 -0.0470313 0)
(-0.00545839 -0.0348712 0)
(-0.00190069 -0.0215851 0)
(-0.000268903 -0.00739836 0)
(-0.000287522 0.0084986 0)
(-0.0019926 0.0244204 0)
(-0.00567003 0.0390276 0)
(-0.010859 0.0521523 0)
(-0.017286 0.0636787 0)
(-0.0247444 0.0735303 0)
(-0.0330207 0.0816679 0)
(-0.0419074 0.0880859 0)
(-0.0512107 0.0928082 0)
(-0.0607517 0.0958831 0)
(-0.0703674 0.097379 0)
(-0.0799111 0.0973794 0)
(-0.0892524 0.0959791 0)
(-0.0982771 0.0932804 0)
(-0.106886 0.0893897 0)
(-0.114993 0.0844149 0)
(-0.122525 0.0784633 0)
(-0.129421 0.0716402 0)
(-0.135628 0.064048 0)
(-0.141103 0.0557853 0)
(-0.145809 0.0469475 0)
(-0.149713 0.0376268 0)
(-0.152791 0.027913 0)
(-0.15502 0.0178944 0)
(-0.156381 0.00765939 0)
(-0.156858 -0.0027029 0)
(-0.156439 -0.0131008 0)
(-0.155116 -0.023439 0)
(-0.152885 -0.0336174 0)
(-0.149745 -0.0435299 0)
(-0.145703 -0.053064 0)
(-0.140773 -0.0621003 0)
(-0.134978 -0.0705124 0)
(-0.128353 -0.0781681 0)
(-0.120943 -0.08493 0)
(-0.112811 -0.0906579 0)
(-0.104034 -0.0952109 0)
(-0.0947076 -0.098451 0)
(-0.0849469 -0.100247 0)
(-0.0748871 -0.100479 0)
(-0.0646839 -0.0990426 0)
(-0.0545124 -0.0958561 0)
(-0.0445666 -0.0908638 0)
(-0.0350564 -0.0840422 0)
(-0.0262055 -0.0754044 0)
(-0.0182474 -0.0650043 0)
(-0.011416 -0.0529394 0)
(-0.00592993 -0.0393518 0)
(-0.00206806 -0.0244266 0)
(-0.000293407 -0.00840378 0)
(-0.000310163 0.00955008 0)
(-0.00214411 0.0273544 0)
(-0.00609256 0.0436117 0)
(-0.0116535 0.0581495 0)
(-0.0185266 0.0708531 0)
(-0.0264843 0.0816518 0)
(-0.0352933 0.0905157 0)
(-0.0447275 0.0974518 0)
(-0.0545772 0.102499 0)
(-0.0646509 0.105722 0)
(-0.0747752 0.107207 0)
(-0.084796 0.107055 0)
(-0.0945782 0.105377 0)
(-0.104005 0.102293 0)
(-0.112975 0.0979248 0)
(-0.121404 0.0923932 0)
(-0.129222 0.0858183 0)
(-0.136368 0.0783161 0)
(-0.142795 0.069998 0)
(-0.14846 0.0609704 0)
(-0.153332 0.051335 0)
(-0.157381 0.041189 0)
(-0.160583 0.0306264 0)
(-0.162917 0.019739 0)
(-0.164367 0.00861809 0)
(-0.164915 -0.00264431 0)
(-0.164549 -0.0139536 0)
(-0.163258 -0.0252111 0)
(-0.161034 -0.0363125 0)
(-0.157874 -0.0471465 0)
(-0.153779 -0.0575942 0)
(-0.148758 -0.0675279 0)
(-0.142828 -0.0768114 0)
(-0.136018 -0.0853005 0)
(-0.128369 -0.0928439 0)
(-0.119939 -0.099285 0)
(-0.110802 -0.104465 0)
(-0.101052 -0.108227 0)
(-0.0908063 -0.110417 0)
(-0.0802038 -0.110896 0)
(-0.0694074 -0.109536 0)
(-0.0586032 -0.106234 0)
(-0.0479997 -0.100917 0)
(-0.0378251 -0.0935445 0)
(-0.0283245 -0.0841168 0)
(-0.0197561 -0.07268 0)
(-0.0123798 -0.0593287 0)
(-0.00644075 -0.0442083 0)
(-0.00225025 -0.0275127 0)
(-0.000320322 -0.00949815 0)
(-0.000334545 0.0106816 0)
(-0.00230609 0.0305056 0)
(-0.0065424 0.048526 0)
(-0.012496 0.0645654 0)
(-0.0198371 0.078511 0)
(-0.0283148 0.0902991 0)
(-0.0376734 0.0999113 0)
(-0.0476671 0.10737 0)
(-0.0580694 0.112732 0)
(-0.068675 0.116081 0)
(-0.0793005 0.117524 0)
(-0.0897845 0.117182 0)
(-0.0999876 0.115188 0)
(-0.109791 0.111677 0)
(-0.119094 0.106789 0)
(-0.127815 0.100662 0)
(-0.135885 0.0934272 0)
(-0.143249 0.085213 0)
(-0.149863 0.07614 0)
(-0.155691 0.0663223 0)
(-0.160703 0.0558675 0)
(-0.164874 0.0448775 0)
(-0.168185 0.0334498 0)
(-0.170616 0.0216786 0)
(-0.172151 0.00965738 0)
(-0.172774 -0.00252019 0)
(-0.172471 -0.0147576 0)
(-0.171228 -0.0269539 0)
(-0.169035 -0.0390017 0)
(-0.165884 -0.0507854 0)
(-0.16177 -0.0621803 0)
(-0.156695 -0.0730511 0)
(-0.150671 -0.083252 0)
(-0.143718 -0.0926266 0)
(-0.135872 -0.101009 0)
(-0.127183 -0.108226 0)
(-0.117721 -0.114098 0)
(-0.107578 -0.118447 0)
(-0.0968696 -0.121095 0)
(-0.085738 -0.121878 0)
(-0.0743525 -0.120644 0)
(-0.06291 -0.117264 0)
(-0.0516335 -0.111643 0)
(-0.0407707 -0.103718 0)
(-0.0305898 -0.0934759 0)
(-0.0213764 -0.0809508 0)
(-0.0134195 -0.0662329 0)
(-0.00699426 -0.0494696 0)
(-0.00244866 -0.030864 0)
(-0.000349902 -0.0106895 0)
(-0.000360835 0.0118988 0)
(-0.00247946 0.0338881 0)
(-0.00702176 0.0537899 0)
(-0.0133902 0.0714217 0)
(-0.0212216 0.0866735 0)
(-0.0302393 0.0994904 0)
(-0.0401631 0.109868 0)
(-0.0507253 0.117848 0)
(-0.0616813 0.123507 0)
(-0.072812 0.126953 0)
(-0.0839234 0.128317 0)
(-0.0948477 0.127742 0)
(-0.105442 0.125383 0)
(-0.115587 0.1214 0)
(-0.125183 0.115949 0)
(-0.134153 0.109184 0)
(-0.142432 0.101253 0)
(-0.149971 0.0922942 0)
(-0.156731 0.0824394 0)
(-0.162682 0.0718097 0)
(-0.1678 0.0605183 0)
(-0.172067 0.048671 0)
(-0.175464 0.0363679 0)
(-0.177977 0.023705 0)
(-0.179591 0.0107762 0)
(-0.18029 -0.00232414 0)
(-0.18006 -0.015499 0)
(-0.178885 -0.0286463 0)
(-0.17675 -0.0416569 0)
(-0.173641 -0.0544122 0)
(-0.169548 -0.0667827 0)