/*--------------------------------*- C++ -*----------------------------------*\
  =========                 |
  \\      /  F ield         | OpenFOAM: The Open Source CFD Toolbox
   \\    /   O peration     | Website:  https://openfoam.org
    \\  /    A nd           | Version:  7
     \\/     M anipulation  |
\*---------------------------------------------------------------------------*/
FoamFile
{
    version     2.0;
    format      ascii;
    class       volScalarField;
    location    "0.0358";
    object      p;
}
// * * * * * * * * * * * * * * * * * * * * * * * * * * * * * * * * * * * * * //

dimensions      [0 2 -2 0 0 0 0];

internalField   nonuniform List<scalar> 
2500
(
-7.23992e-06
-0.000519434
-0.00198631
-0.00410522
-0.00655139
-0.00903254
-0.0113549
-0.0133583
-0.014924
-0.0159676
-0.0164318
-0.0162813
-0.0154993
-0.0140838
-0.0120459
-0.00940717
-0.00619842
-0.00245823
0.00176816
0.00642987
0.0114711
0.016832
0.0224492
0.0282561
0.034184
0.0401622
0.0461188
0.0519812
0.0576769
0.0631343
0.0682835
0.0730571
0.0773917
0.0812289
0.0845165
0.0872103
0.0892752
0.0906876
0.0914365
0.0915264
0.0909792
0.0898373
0.0881666
0.0860615
0.0836502
0.0811007
0.0786225
0.0764982
0.0750503
0.074575
0.000495453
-1.14412e-05
-0.00120099
-0.0028685
-0.00477328
-0.00671683
-0.00853728
-0.0101012
-0.0113044
-0.0120688
-0.0123386
-0.0120773
-0.0112646
-0.00989453
-0.00797283
-0.00551568
-0.0025481
0.000897245
0.00478109
0.00905852
0.0136797
0.0185908
0.0237343
0.0290498
0.0344745
0.0399441
0.0453928
0.0507548
0.055964
0.0609558
0.0656671
0.0700378
0.0740118
0.0775378
0.0805709
0.0830734
0.0850172
0.0863843
0.0871691
0.08738
0.0870412
0.0861952
0.084905
0.0832566
0.0813621
0.0793617
0.0774231
0.0757431
0.0745711
0.0740994
0.00196055
0.00117512
-2.16454e-05
-0.00152622
-0.00318825
-0.00485613
-0.00639877
-0.00770638
-0.00869002
-0.00928059
-0.00942719
-0.00909525
-0.00826462
-0.00692776
-0.00508814
-0.00275884
3.86215e-05
0.00327542
0.00691635
0.0109207
0.0152429
0.0198335
0.0246394
0.0296046
0.034671
0.0397788
0.044867
0.0498742
0.0547396
0.0594031
0.0638068
0.0678955
0.0716179
0.0749275
0.077784
0.0801542
0.0820136
0.0833476
0.0841527
0.0844387
0.0842293
0.0835644
0.0825013
0.0811161
0.079505
0.0777842
0.0760896
0.074575
0.0733976
0.0726534
0.00410081
0.0028546
0.00146265
-6.74791e-05
-0.00167126
-0.00322986
-0.00463775
-0.00580674
-0.00666344
-0.0071492
-0.00721997
-0.00684526
-0.00600699
-0.00469812
-0.00292152
-0.000688851
0.00198046
0.00506009
0.00851768
0.0123156
0.0164116
0.0207595
0.0253096
0.0300098
0.0348053
0.0396399
0.0444565
0.0491973
0.0538051
0.0582237
0.0623987
0.0662785
0.0698153
0.0729658
0.0756928
0.0779656
0.0797618
0.0810682
0.0818819
0.0822119
0.0820798
0.081521
0.0805856
0.0793394
0.0778627
0.0762505
0.0746135
0.0730736
0.0717029
0.0705154
0.00661889
0.00480731
0.00312242
0.00146482
-0.000182038
-0.00172523
-0.00308084
-0.00418047
-0.00496578
-0.00538899
-0.00541366
-0.00501446
-0.00417645
-0.00289422
-0.00117109
0.000981778
0.00354614
0.0064974
0.00980532
0.0134347
0.0173459
0.0214955
0.025837
0.0303209
0.0348957
0.0395083
0.0441046
0.0486299
0.0530302
0.057252
0.061244
0.0649573
0.0683466
0.0713711
0.0739954
0.0761905
0.077935
0.0792161
0.0800302
0.0803846
0.0802975
0.0797993
0.0789325
0.0777519
0.0763234
0.0747226
0.0730393
0.0713707
0.0697104
0.0679715
0.0092713
0.00686118
0.0048252
0.00296847
0.00120255
-0.000398974
-0.00176954
-0.002858
-0.00361974
-0.00401741
-0.00402234
-0.00361482
-0.00278376
-0.00152616
0.000153438
0.00224357
0.00472639
0.00757832
0.0107705
0.0142696
0.018038
0.0220345
0.0262148
0.0305321
0.0349373
0.0393796
0.0438076
0.0481691
0.0524122
0.0564859
0.0603409
0.0639303
0.0672106
0.0701424
0.0726912
0.074829
0.0765342
0.0777933
0.0786017
0.0789636
0.0788938
0.0784167
0.0775676
0.0763911
0.0749401
0.0732737
0.0714652
0.069594
0.0675839
0.0652547
0.0118907
0.00887575
0.00645545
0.00435006
0.00240889
0.000692107
-0.000746995
-0.00187175
-0.00264958
-0.00305265
-0.00305981
-0.00265708
-0.00183756
-0.00060118
0.0010457
0.00309067
0.00551566
0.00829744
0.011408
0.0148151
0.0184827
0.0223711
0.0264379
0.0306381
0.0349245
0.0392484
0.04356
0.047809
0.0519453
0.0559195
0.0596836
0.0631919
0.0664018
0.0692744
0.0717757
0.0738772
0.0755568
0.0767996
0.0775986
0.0779553
0.0778799
0.0773915
0.076518
0.0752953
0.0737649
0.0719725
0.0699796
0.0678533
0.0654579
0.0625306
0.0143458
0.0107348
0.0079138
0.00552786
0.00337251
0.00149932
-4.82076e-05
-0.00124525
-0.00206951
-0.00250165
-0.00252749
-0.00213862
-0.00133248
-0.00011217
0.0015137
0.00353128
0.0059218
0.00866183
0.0117237
0.0150757
0.0186827
0.0225063
0.0265052
0.0306358
0.0348522
0.0391072
0.0433522
0.0475383
0.0516162
0.0555376
0.0592552
0.0627237
0.0659007
0.0687473
0.0712289
0.0733161
0.0749853
0.0762197
0.0770095
0.0773528
0.0772554
0.076731
0.0758011
0.0744936
0.072841
0.0708782
0.0686585
0.0662422
0.0634419
0.0599227
0.0165375
0.0123436
0.0091144
0.00642751
0.00403131
0.0019724
0.000287426
-0.00100838
-0.00190137
-0.00237963
-0.00243532
-0.00206534
-0.00127138
-5.98864e-05
0.00155802
0.00356674
0.00594636
0.00867283
0.0117183
0.0150513
0.018637
0.0224377
0.026413
0.03052
0.0347138
0.038948
0.0431748
0.0473459
0.0514126
0.0553269
0.0590416
0.0625112
0.0656929
0.0685469
0.0710375
0.0731336
0.0748098
0.0760465
0.076831
0.0771576
0.0770278
0.0764502
0.0754402
0.0740195
0.0722127
0.0700469
0.06757
0.0648395
0.0616235
0.0575219
0.0183892
0.0136236
0.00998234
0.00698089
0.00432529
0.00205986
0.000216661
-0.00119677
-0.00217403
-0.00270965
-0.00280154
-0.0024515
-0.00166541
-0.000453089
0.00117168
0.00319126
0.00558428
0.00832573
0.0113872
0.0147369
0.0183402
0.0221595
0.0261547
0.0302834
0.0345012
0.0387619
0.0430181
0.0472216
0.0513239
0.0552766
0.0590319
0.0625438
0.0657683
0.0686641
0.0711939
0.0733243
0.0750274
0.0762806
0.0770678
0.0773793
0.0772122
0.0765704
0.0754642
0.0739094
0.071925
0.0695318
0.0667754
0.0637129
0.060073
0.0553958
0.0198386
0.0145076
0.0104509
0.00712496
0.00419663
0.00170994
-0.000305964
-0.00184974
-0.00292111
-0.00352024
-0.00365018
-0.00331738
-0.00253169
-0.00130635
0.000342099
0.00239379
0.00482563
0.00761134
0.0107216
0.014124
0.0177837
0.0216628
0.0257213
0.0299167
0.0342045
0.0385388
0.0428719
0.0471552
0.0513399
0.0553766
0.0592168
0.0628131
0.0661197
0.0690935
0.0716947
0.0738874
0.0756404
0.0769278
0.0777297
0.0780324
0.0778286
0.0771176
0.075905
0.074202
0.0720229
0.0693841
0.0663304
0.0629213
0.058849
0.0535968
0.0208324
0.0149361
0.0104589
0.0068001
0.00358888
0.00087036
-0.00132795
-0.00300989
-0.00418042
-0.00484468
-0.00501046
-0.00468856
-0.0038927
-0.00263949
-0.000948371
0.00115842
0.00365586
0.00651614
0.00970873
0.0132005
0.0169556
0.020936
0.0251011
0.0294081
0.0338124
0.0382674
0.042725
0.047136
0.0514503
0.0556177
0.0595881
0.0633122
0.0667421
0.0698322
0.0725398
0.0748256
0.0766551
0.0779984
0.0788316
0.0791365
0.0789016
0.0781217
0.076798
0.074938
0.0725519
0.0696532
0.0662874
0.0625181
0.0580024
0.052168
0.0213215
0.0148532
0.00994817
0.00594822
0.00244573
-0.000512293
-0.00289914
-0.00472309
-0.00599375
-0.00672082
-0.00691647
-0.00659569
-0.00577599
-0.00447739
-0.00272229
-0.000535442
0.00205598
0.00502244
0.00833197
0.0119503
0.0158407
0.0199643
0.0242798
0.028744
0.0333114
0.0379347
0.0425651
0.0471522
0.0516448
0.0559908
0.0601382
0.0640356
0.0676323
0.0708797
0.0737316
0.0761452
0.0780815
0.0795068
0.0803922
0.0807153
0.0804599
0.0796163
0.0781819
0.0761603
0.0735589
0.0703889
0.0666977
0.062554
0.0575802
0.0511478
0.0212584
0.0142045
0.00886104
0.00451113
0.00070979
-0.00249346
-0.00507221
-0.00703874
-0.00840701
-0.00919094
-0.009407
-0.00907424
-0.00821399
-0.00684971
-0.00500686
-0.00271289
2.72571e-06
0.0031085
0.00657085
0.0103541
0.0144204
0.0187299
0.0232405
0.0279079
0.0326858
0.0375261
0.0423785
0.0471915
0.0519121
0.0564863
0.0608599
0.0649784
0.0687882
0.0722372
0.0752751
0.0778549
0.079933
0.0814707
0.0824345
0.0827967
0.0825363
0.0816393
0.0800988
0.0779153
0.0750934
0.0716425
0.0676129
0.0630792
0.0576283
0.0505736
0.020594
0.0129346
0.00713871
0.00242888
-0.00167863
-0.00513148
-0.00790327
-0.0100102
-0.0114703
-0.0123019
-0.0125255
-0.0121644
-0.0112438
-0.00979066
-0.00783374
-0.00540329
-0.00253127
0.000748707
0.00440124
0.0083891
0.0126732
0.0172123
0.0219634
0.026881
0.031918
0.0370248
0.0421498
0.04724
0.0522402
0.0570944
0.0617455
0.066136
0.0702086
0.0739071
0.0771769
0.0799659
0.0822255
0.0839115
0.0849847
0.0854123
0.0851679
0.0842325
0.0825953
0.0802531
0.0772082
0.0734684
0.0690873
0.0641462
0.0581949
0.0504848
0.0192757
0.0109846
0.00471927
-0.000361739
-0.00478276
-0.00848852
-0.0114526
-0.013695
-0.0152383
-0.016105
-0.01632
-0.0159109
-0.014907
-0.0133389
-0.0112388
-0.00864006
-0.00557722
-0.00208622
0.00179556
0.0060292
0.0105741
0.0153878
0.020426
0.0256422
0.0309878
0.036412
0.0418618
0.047282
0.0526157
0.0578041
0.0627871
0.0675036
0.0718925
0.0758928
0.0794449
0.0824913
0.0849775
0.0868531
0.088073
0.0885979
0.0883959
0.0874425
0.0857223
0.0832286
0.0799608
0.0759255
0.0711797
0.0658119
0.0593318
0.0509251
0.017246
0.00829133
0.00153622
-0.00392853
-0.0086705
-0.0126315
-0.0157851
-0.0181558
-0.0197706
-0.0206565
-0.0208434
-0.0203632
-0.0192495
-0.0175372
-0.015262
-0.0124604
-0.00916992
-0.00542895
-0.00127699
0.00324523
0.00809553
0.0132301
0.0186033
0.0241675
0.0298727
0.0356667
0.041495
0.0473004
0.0530237
0.0586031
0.0639755
0.0690759
0.0738386
0.0781977
0.0820879
0.0854454
0.0882093
0.0903224
0.0917324
0.0923932
0.0922661
0.0913207
0.0895364
0.0869024
0.0834149
0.0790787
0.0739547
0.0681389
0.0610976
0.051945
0.0144401
0.00478493
-0.00248303
-0.00834524
-0.0134156
-0.0176331
-0.0209717
-0.0234606
-0.0251319
-0.0260178
-0.0261532
-0.025575
-0.0243217
-0.0224324
-0.0199468
-0.016905
-0.0133474
-0.0093152
-0.00485007
5.34744e-06
0.00520724
0.0107104
0.0164679
0.0224308
0.0285481
0.034766
0.0410282
0.0472759
0.0534472
0.0594776
0.0653004
0.0708465
0.0760452
0.0808253
0.085115
0.0888438
0.0919434
0.0943486
0.0959994
0.0968417
0.0968291
0.0959243
0.0941004
0.0913419
0.0876411
0.0830008
0.0774852
0.0711984
0.063559
0.0536037
0.0107857
0.000387986
-0.00741852
-0.0136928
-0.0190987
-0.0235725
-0.0270892
-0.0296832
-0.0313926
-0.0322553
-0.0323118
-0.0316048
-0.0301779
-0.0280751
-0.0253403
-0.0220175
-0.0181505
-0.0137832
-0.00895971
-0.00372455
0.0018768
0.00779778
0.0139902
0.0204041
0.0269872
0.0336844
0.0404381
0.0471872
0.0538676
0.060412
0.0667497
0.0728075
0.0785096
0.0837783
0.0885354
0.0927026
0.0962032
0.0989633
0.100914
0.101991
0.102141
0.101316
0.0994839
0.0966222
0.0927188
0.0877732
0.0818535
0.0750713
0.0667934
0.0559711
0.00620063
-0.00498611
-0.0133592
-0.0200608
-0.0258086
-0.0305369
-0.0342218
-0.0369045
-0.0386293
-0.039441
-0.0393866
-0.0385152
-0.0368762
-0.0345189
-0.0314922
-0.0278442
-0.0236222
-0.0188732
-0.0136437
-0.00798015
-0.00192969
0.00445986
0.0111393
0.0180577
0.0251617
0.0323952
0.0396993
0.0470111
0.0542643
0.0613885
0.0683097
0.0749497
0.0812275
0.0870589
0.092358
0.0970383
0.101014
0.1042
0.106518
0.107894
0.108262
0.107566
0.105764
0.102827
0.0987371
0.0934888
0.0871535
0.079851
0.0708904
0.05913
0.000592141
-0.0114345
-0.0204041
-0.0275485
-0.0336436
-0.038622
-0.0424621
-0.0452123
-0.0469251
-0.0476527
-0.0474499
-0.046373
-0.0444781
-0.0418206
-0.0384546
-0.034433
-0.0298069
-0.0246264
-0.0189405
-0.0127978
-0.00624679
0.000663622
0.0078834
0.0153609
0.0230421
0.0308703
0.0387853
0.046723
0.0546149
0.062388
0.0699646
0.077262
0.0841934
0.0906677
0.096591
0.101867
0.1064
0.110095
0.112859
0.114606
0.11526
0.114752
0.113029
0.110052
0.105797
0.100253
0.0934926
0.0856447
0.0759545
0.0631778
-0.00614459
-0.0190663
-0.0286643
-0.0362667
-0.0427126
-0.0479337
-0.0519112
-0.0547027
-0.0563699
-0.056974
-0.0565788
-0.0552488
-0.053048
-0.0500386
-0.0462809
-0.0418325
-0.036749
-0.0310838
-0.0248885
-0.0182135
-0.0111085
-0.00362352
0.00419108
0.0122833
0.020599
0.0290811
0.0376688
0.0462971
0.0548958
0.0633895
0.0716971
0.0797315
0.0874
0.0946042
0.101242
0.107206
0.11239
0.116684
0.119985
0.12219
0.123208
0.122958
0.121373
0.118403
0.114012
0.108185
0.100994
0.0925764
0.0821069
0.0682295
-0.0141279
-0.0280044
-0.0382641
-0.0463392
-0.053137
-0.0585888
-0.0626806
-0.0654804
-0.067061
-0.0674943
-0.0668547
-0.0652164
-0.0626524
-0.0592327
-0.0550244
-0.0500908
-0.0444921
-0.038285
-0.0315239
-0.024261
-0.016547
-0.00843226
3.26298e-05
0.00879596
0.0178039
0.0269997
0.0363227
0.0457073
0.0550825
0.064371
0.0734885
0.0823438
0.0908382
0.0988663
0.106316
0.11307
0.119008
0.124008
0.127948
0.130711
0.132187
0.132279
0.130904
0.127998
0.123513
0.117421
0.109799
0.100789
0.0894888
0.0744195
-0.0234915
-0.0383873
-0.0493438
-0.0579047
-0.0650518
-0.0707173
-0.0748929
-0.0776596
-0.0791033
-0.079309
-0.0783633
-0.0763521
-0.0733587
-0.0694623
-0.0647374
-0.0592538
-0.0530765
-0.0462662
-0.0388795
-0.0309704
-0.0225903
-0.0137896
-0.00461831
0.00487275
0.0146308
0.0246002
0.0347211
0.0449284
0.0551508
0.0653098
0.0753189
0.0850828
0.0944976
0.10345
0.111819
0.119475
0.126283
0.132106
0.136804
0.14024
0.142285
0.14282
0.141743
0.138972
0.134444
0.128119
0.120071
0.110448
0.098264
0.0819048
-0.034386
-0.0503715
-0.062061
-0.0711191
-0.0786084
-0.084463
-0.0886828
-0.0913643
-0.0926094
-0.0925186
-0.0911934
-0.0887334
-0.0852339
-0.0807845
-0.0754686
-0.0693629
-0.0625378
-0.0550577
-0.046982
-0.0383658
-0.0292608
-0.0197168
-0.0097826
0.000492629
0.0110582
0.0218603
0.0328412
0.0439371
0.0550777
0.066184
0.0771682
0.0879319
0.098366
0.10835
0.117753
0.126434
0.134241
0.14102
0.146611
0.150854
0.153596
0.154695
0.154023
0.151477
0.146974
0.140457
0.131996
0.121745
0.108623
0.0908687
-0.0469818
-0.0641341
-0.0765949
-0.0861587
-0.0939766
-0.0999866
-0.104199
-0.10673
-0.1077
-0.107229
-0.105436
-0.102438
-0.0983423
-0.0932524
-0.0872609
-0.0804525
-0.0729032
-0.0646816
-0.0558492
-0.0464621
-0.0365717
-0.0262264
-0.0154731
-0.00435813
0.00707088
0.0187635
0.0306648
0.042714
0.0548427
0.0669731
0.079017
0.090874
0.102431
0.11356
0.124121
0.133959
0.142908
0.150793
0.15743
0.162634
0.166225
0.16803
0.167893
0.165683
0.161291
0.15464
0.14579
0.134902
0.120787
0.101524
-0.0614719
-0.0798771
-0.0931491
-0.103223
-0.111348
-0.117467
-0.121606
-0.123903
-0.124503
-0.12355
-0.121184
-0.117539
-0.112743
-0.106912
-0.100148
-0.0925468
-0.0841892
-0.075148
-0.0654869
-0.0552623
-0.0445245
-0.0333199
-0.021692
-0.00968319
0.00266312
0.0153012
0.0281807
0.0412452
0.0544299
0.0676598
0.0808476
0.0938925
0.106678
0.119071
0.130921
0.142062
0.152309
0.161465
0.169323
0.175667
0.180283
0.182964
0.183519
0.181782
0.177611
0.170901
0.161703
0.150174
0.135012
0.11412
-0.0780762
-0.0978316
-0.111957
-0.122541
-0.130939
-0.137106
-0.141084
-0.143042
-0.143155
-0.141594
-0.138526
-0.134109
-0.128489
-0.121797
-0.114152
-0.105656
-0.0963968
-0.0864514
-0.0758851
-0.0647536
-0.0531055
-0.0409837
-0.0284272
-0.0154732
-0.00215907
0.0114756
0.0253871
0.0395248
0.0538297
0.0682312
0.0826455
0.0969727
0.111095
0.124875
0.138154
0.150751
0.162467
0.173081
0.182355
0.190042
0.19589
0.19965
0.201086
0.199991
0.19618
0.189513
0.180021
0.167861
0.151599
0.128945
-0.0970464
-0.118264
-0.133288
-0.144374
-0.152998
-0.159128
-0.162833
-0.164319
-0.163798
-0.161475
-0.157549
-0.152206
-0.145616
-0.137929
-0.129277
-0.119771
-0.109508
-0.0985665
-0.0870135
-0.0749035
-0.0622816
-0.0491859
-0.0356495
-0.0217025
-0.00737476
0.0073025
0.0222938
0.037557
0.0530407
0.0686813
0.0844005
0.100102
0.115669
0.130961
0.145813
0.160034
0.173404
0.185679
0.196591
0.205856
0.213176
0.218253
0.220799
0.220553
0.217278
0.210786
0.201081
0.188312
0.170898
0.146337
-0.118674
-0.141486
-0.157456
-0.169026
-0.177807
-0.18379
-0.187076
-0.187919
-0.186578
-0.183303
-0.17833
-0.17188
-0.164148
-0.155307
-0.145503
-0.13486
-0.123479
-0.111443
-0.0988177
-0.0856555
-0.0719967
-0.0578727
-0.0433088
-0.0283263
-0.0129452
0.00281355
0.0189251
0.0353582
0.0520717
0.0690118
0.0861084
0.103272
0.120389
0.13732
0.153895
0.169912
0.185135
0.199297
0.212096
0.223204
0.232276
0.238953
0.242886
0.243744
0.241226
0.23508
0.225274
0.211937
0.193321
0.166692
-0.143299
-0.167864
-0.184832
-0.196853
-0.205695
-0.21138
-0.214056
-0.214039
-0.211647
-0.207183
-0.200934
-0.193157
-0.184082
-0.173902
-0.162783
-0.150858
-0.138236
-0.124999
-0.111213
-0.0969247
-0.0821674
-0.0669645
-0.051331
-0.0352773
-0.0188112
-0.00194095
0.0153219
0.0329593
0.0509437
0.069234
0.0877719
0.106478
0.125245
0.143939
0.162388
0.180383
0.197673
0.213967
0.228928
0.242185
0.253332
0.261945
0.267598
0.269875
0.268392
0.262817
0.253059
0.239219
0.219358
0.190476
-0.171324
-0.197836
-0.215857
-0.228275
-0.237043
-0.242228
-0.244045
-0.242888
-0.239152
-0.233209
-0.225403
-0.216039
-0.205382
-0.193653
-0.181033
-0.167668
-0.153669
-0.13912
-0.124082
-0.108594
-0.0926799
-0.0763529
-0.0596153
-0.0424635
-0.0248909
-0.00689022
0.0115429
0.030407
0.0496908
0.0693697
0.089401
0.109719
0.13023
0.150806
0.171279
0.191438
0.21102
0.229711
0.247142
0.26289
0.276489
0.287435
0.295209
0.299295
0.299199
0.294483
0.284979
0.270736
0.24959
0.218246
-0.203234
-0.231933
-0.251065
-0.263794
-0.272298
-0.276712
-0.277341
-0.274684
-0.269236
-0.261453
-0.25175
-0.240488
-0.227972
-0.21445
-0.200123
-0.185144
-0.169625
-0.153648
-0.137266
-0.120508
-0.103386
-0.0858985
-0.068032
-0.0497668
-0.0310786
-0.0119421
0.00766609
0.027764
0.0483607
0.0694514
0.0910134
0.113
0.135334
0.157902
0.180546
0.203057
0.225165
0.246538
0.266775
0.285404
0.301889
0.315637
0.32602
0.332396
0.334132
0.330653
0.321677
0.307179
0.28472
0.250665
-0.239623
-0.270812
-0.291112
-0.304019
-0.31199
-0.315263
-0.314269
-0.309649
-0.302023
-0.291956
-0.279946
-0.266418
-0.251721
-0.236134
-0.21987
-0.203089
-0.185901
-0.16838
-0.150566
-0.132476
-0.114103
-0.0954294
-0.0764223
-0.0570424
-0.037245
-0.0169835
0.00378756
0.0251091
0.0470136
0.0695209
0.0926327
0.116327
0.140549
0.165206
0.190158
0.215204
0.240078
0.264436
0.287847
0.309792
0.329663
0.346767
0.360348
0.369611
0.373749
0.372
0.363928
0.349386
0.325602
0.288541
-0.281232
-0.315295
-0.336815
-0.349692
-0.356748
-0.358374
-0.355181
-0.347998
-0.337609
-0.324711
-0.309901
-0.293676
-0.276433
-0.258474
-0.240026
-0.221247
-0.202239
-0.183061
-0.163738
-0.144263
-0.124612
-0.104742
-0.0845991
-0.064121
-0.0432391
-0.0218824
1.94797e-05
0.0225337
0.0457202
0.0696271
0.0942856
0.119703
0.145857
0.172682
0.200064
0.227822
0.255702
0.283359
0.310342
0.33609
0.35992
0.381033
0.398527
0.41142
0.418686
0.419319
0.412663
0.398388
0.373294
0.332863
-0.329007
-0.36644
-0.389207
-0.401731
-0.407322
-0.406606
-0.400447
-0.389926
-0.376038
-0.359639
-0.341444
-0.322025
-0.301823
-0.281162
-0.260269
-0.239294
-0.218321
-0.197387
-0.176489
-0.155597
-0.134658
-0.113603
-0.0923508
-0.0708123
-0.0488922
-0.0264925
-0.00351447
0.0201383
0.0445564
0.0698207
0.095997
0.123129
0.151232
0.180278
0.21019
0.240821
0.271941
0.303217
0.334195
0.364281
0.392725
0.418616
0.440887
0.45834
0.469669
0.473551
0.469017
0.455464
0.429123
0.384871
-0.384183
-0.425624
-0.449617
-0.461281
-0.464611
-0.460589
-0.45044
-0.435581
-0.417273
-0.396565
-0.374297
-0.351119
-0.327506
-0.303792
-0.280192
-0.256832
-0.233766
-0.210997
-0.188486
-0.16617
-0.14396
-0.121757
-0.0994471
-0.0769116
-0.0540251
-0.0306596
-0.00668575
0.0180249
0.0435971
0.0701482
0.0977833
0.126589
0.156626
0.187915
0.220427
0.254065
0.288642
0.323857
0.359271
0.394277
0.428073
0.45964
0.487736
0.510909
0.527513
0.535806
0.534383
0.522224
0.494783
0.446142
-0.448413
-0.494689
-0.519778
-0.529781
-0.529683
-0.521012
-0.505504
-0.485021
-0.461153
-0.435167
-0.408035
-0.380472
-0.352972
-0.325853
-0.299298
-0.273389
-0.248133
-0.223483
-0.199356
-0.175643
-0.152215
-0.128932
-0.105648
-0.0822087
-0.0584565
-0.034231
-0.00937007
0.016289
0.0429074
0.0706424
0.0996432
0.130045
0.161962
0.195475
0.230619
0.267361
0.30558
0.345035
0.385331
0.425878
0.465846
0.504131
0.539315
0.569661
0.593114
0.60739
0.610479
0.600728
0.572483
0.518732
-0.52398
-0.57615
-0.601985
-0.609046
-0.603796
-0.588598
-0.565905
-0.538154
-0.507329
-0.474929
-0.442048
-0.409433
-0.377563
-0.346709
-0.316988
-0.288412
-0.260919
-0.234396
-0.208698
-0.18366
-0.159107
-0.134855
-0.110716
-0.0865003
-0.0620153
-0.0370668
-0.0114586
0.0150076
0.0425314
0.0713123
0.101547
0.133426
0.167123
0.202792
0.240543
0.280433
0.322432
0.36639
0.411997
0.458723
0.50576
0.551952
0.595731
0.635066
0.66742
0.689823
0.699431
0.693644
0.665168
0.605396
-0.614133
-0.673523
-0.699316
-0.701358
-0.68839
-0.664035
-0.63173
-0.594636
-0.555174
-0.515068
-0.475481
-0.437143
-0.400457
-0.365595
-0.332568
-0.301282
-0.271577
-0.243255
-0.216093
-0.189863
-0.164331
-0.139264
-0.114431
-0.0896039
-0.0645541
-0.0390532
-0.0128706
0.0142278
0.0424806
0.0721309
0.103426
0.136613
0.171936
0.209629
0.249899
0.292908
0.338749
0.387407
0.438704
0.492235
0.547282
0.602712
0.656862
0.707432
0.751358
0.784829
0.803872
0.804473
0.776862
0.709955
-0.72369
-0.791839
-0.815929
-0.809559
-0.785031
-0.747843
-0.702736
-0.653726
-0.603671
-0.554443
-0.507183
-0.462504
-0.420647
-0.381615
-0.345253
-0.311321
-0.279529
-0.249571
-0.221133
-0.193908
-0.167602
-0.141926
-0.116606
-0.0913737
-0.0659645
-0.0401169
-0.013567
0.0139538
0.0427218
0.0730236
0.105157
0.13943
0.176163
0.215675
0.258286
0.304288
0.35393
0.407375
0.464643
0.525537
0.58953
0.655628
0.722193
0.786741
0.845697
0.894271
0.927022
0.937867
0.913203
0.837925
-0.860122
-0.938465
-0.957462
-0.937088
-0.895244
-0.840126
-0.778099
-0.714077
-0.651244
-0.591451
-0.535639
-0.48415
-0.436941
-0.393748
-0.354186
-0.317818
-0.284192
-0.25287
-0.223433
-0.195492
-0.168681
-0.14266
-0.117107
-0.0917169
-0.0661912
-0.0402377
-0.0135622
0.0141355
0.0431668
0.0738591
0.106559
0.141637
0.179487
0.220527
0.265196
0.313939
0.367194
0.425351
0.488705
0.557368
0.631145
0.709355
0.790588
0.87238
0.950779
1.01998
1.07273
1.10002
1.0823
0.997673
-1.03563
-1.12441
-1.13149
-1.08788
-1.02015
-0.940145
-0.856033
-0.773449
-0.69558
-0.623919
-0.558923
-0.500437
-0.447972
-0.400883
-0.358476
-0.320067
-0.285013
-0.252726
-0.222674
-0.194376
-0.167401
-0.141352
-0.115869
-0.0906081
-0.0652449
-0.0394597
-0.0129332
0.0146617
0.0436664
0.0744442
0.107387
0.142922
0.181518
0.223692
0.270008
0.321082
0.377566
0.440132
0.509426
0.58599
0.670141
0.761758
0.859977
0.962733
1.06606
1.16335
1.24536
1.29915
1.29606
1.20262
-1.27138
-1.36632
-1.34785
-1.26584
-1.15965
-1.04556
-0.933213
-0.828321
-0.733395
-0.648996
-0.574668
-0.509462
-0.452243
-0.401863
-0.357244
-0.317414
-0.281515
-0.248801
-0.218622
-0.190414
-0.163678
-0.137975
-0.112905
-0.0880994
-0.0632094
-0.0378966
-0.0118231
0.0153577
0.04401
0.0745256
0.107333
0.142911
0.181794
0.224593
0.271999
0.3248
0.383886
0.450247
0.524954
0.609112
0.703752
0.809635
0.926912
1.05454
1.1893
1.32448
1.44921
1.54576
1.57228
1.47572
-1.60629
-1.68949
-1.61805
-1.47312
-1.31069
-1.15104
-1.00383
-0.873338
-0.760155
-0.663042
-0.580053
-0.509094
-0.448181
-0.39555
-0.349684
-0.309301
-0.273328
-0.240865
-0.211156
-0.183561
-0.157533
-0.132593
-0.108319
-0.084322
-0.0602422
-0.0357302
-0.0104386
0.0159894
0.0439313
0.0737966
0.10604
0.141177
0.179798
0.22259
0.270361
0.324063
0.38482
0.45396
0.533032
0.623811
0.728255
0.848376
0.985942
1.14187
1.31503
1.50027
1.68663
1.85205
1.93763
1.85861
-2.11231
-2.13153
-1.95346
-1.70706
-1.46453
-1.24644
-1.05861
-0.90087
-0.769974
-0.661699
-0.571948
-0.497139
-0.434281
-0.380939
-0.335151
-0.295343
-0.260249
-0.228844
-0.200292
-0.173901
-0.149092
-0.125369
-0.102296
-0.079483
-0.0565673
-0.0332007
-0.00903724
0.0162791
0.0431269
0.0719204
0.103125
0.137276
0.174997
0.217031
0.264272
0.317806
0.378965
0.449392
0.531116
0.626636
0.738996
0.871805
1.02914
1.21511
1.43271
1.68163
1.9549
2.22994
2.43123
2.42681
-2.92014
-2.74253
-2.3617
-1.95812
-1.60566
-1.31675
-1.08544
-0.902061
-0.756737
-0.640932
-0.547805
-0.472071
-0.409705
-0.357643
-0.31355
-0.275626
-0.242478
-0.213005
-0.186334
-0.161755
-0.138682
-0.116624
-0.0951519
-0.0738869
-0.0524783
-0.0305913
-0.00789348
0.0159583
0.0413302
0.0686261
0.0983042
0.130897
0.167036
0.207485
0.25318
0.305289
0.365287
0.435059
0.517041
0.614405
0.731306
0.873168
1.04698
1.26145
1.52658
1.85229
2.24378
2.6871
3.10403
3.3145
-4.32644
-3.56283
-2.81847
-2.19285
-1.70352
-1.33813
-1.06803
-0.866638
-0.71436
-0.597376
-0.505951
-0.433241
-0.374398
-0.325944
-0.285338
-0.250693
-0.220585
-0.193915
-0.169827
-0.147636
-0.126782
-0.1068
-0.087292
-0.0679037
-0.0483113
-0.0282058
-0.00728051
0.0147818
0.0383213
0.0637157
0.0913962
0.121869
0.155739
0.19375
0.236824
0.286135
0.343194
0.409992
0.48919
0.584418
0.700708
0.845151
1.02781
1.26297
1.57083
1.9791
2.51756
3.19685
3.99606
4.82635
-7.16098
-4.56152
-3.1427
-2.25701
-1.65043
-1.24057
-0.962001
-0.766496
-0.624702
-0.51893
-0.437994
-0.374593
-0.32384
-0.282369
-0.247795
-0.218383
-0.192845
-0.170199
-0.149686
-0.130704
-0.112766
-0.0954675
-0.0784631
-0.0614482
-0.0441437
-0.0262835
-0.00760226
0.012174
0.0333413
0.0562295
0.081217
0.10875
0.139365
0.173724
0.212656
0.257219
0.308799
0.369239
0.441064
0.527809
0.634584
0.768998
0.942696
1.17406
1.49346
1.95119
2.61675
3.57477
5.07969
7.79815
-12.0293
-5.64432
-2.9785
-1.88049
-1.28458
-0.931148
-0.712794
-0.568158
-0.466014
-0.390548
-0.332898
-0.287652
-0.2513
-0.221454
-0.196422
-0.174966
-0.156157
-0.139284
-0.123794
-0.109243
-0.0952738
-0.0815865
-0.067925
-0.0540622
-0.0397891
-0.0249051
-0.00921003
0.00750618
0.0254701
0.0449353
0.0661936
0.089588
0.115531
0.144528
0.177206
0.214364
0.257032
0.306575
0.364841
0.434419
0.519076
0.624569
0.760239
0.942512
1.20338
1.60668
2.26898
3.4619
6.24465
12.7551
)
;

boundaryField
{
    movingWall
    {
        type            zeroGradient;
    }
    fixedWalls
    {
        type            zeroGradient;
    }
    frontAndBack
    {
        type            empty;
    }
}


// ************************************************************************* //
