/*--------------------------------*- C++ -*----------------------------------*\
  =========                 |
  \\      /  F ield         | OpenFOAM: The Open Source CFD Toolbox
   \\    /   O peration     | Website:  https://openfoam.org
    \\  /    A nd           | Version:  7
     \\/     M anipulation  |
\*---------------------------------------------------------------------------*/
FoamFile
{
    version     2.0;
    format      ascii;
    class       volScalarField;
    location    "0.0164";
    object      p;
}
// * * * * * * * * * * * * * * * * * * * * * * * * * * * * * * * * * * * * * //

dimensions      [0 2 -2 0 0 0 0];

internalField   nonuniform List<scalar> 
2500
(
3.00662e-05
-6.50969
-9.29088
-10.4816
-11.1412
-11.5416
-11.7993
-11.9782
-12.1106
-12.2128
-12.2942
-12.3607
-12.4161
-12.463
-12.5032
-12.5382
-12.569
-12.5964
-12.621
-12.6434
-12.6639
-12.6829
-12.7007
-12.7174
-12.7334
-12.7488
-12.7638
-12.7786
-12.7933
-12.8083
-12.8236
-12.8395
-12.8565
-12.8748
-12.8949
-12.9175
-12.9436
-12.9742
-13.0109
-13.0562
-13.1135
-13.1882
-13.2891
-13.4321
-13.6484
-13.9997
-14.5934
-15.6895
-18.354
-24.7386
-4.9576
-7.67536
-9.17905
-10.1353
-10.7987
-11.254
-11.5706
-11.799
-11.9696
-12.1009
-12.2045
-12.2882
-12.3571
-12.4147
-12.4637
-12.5059
-12.5426
-12.5751
-12.6041
-12.6302
-12.6541
-12.6761
-12.6967
-12.7161
-12.7347
-12.7527
-12.7704
-12.7879
-12.8057
-12.8238
-12.8428
-12.8629
-12.8845
-12.9083
-12.9349
-12.9654
-13.0008
-13.043
-13.0941
-13.1577
-13.2384
-13.3437
-13.4846
-13.6788
-13.9559
-14.3641
-14.969
-15.8531
-17.2709
-19.87
-7.93096
-8.76021
-9.55822
-10.236
-10.7727
-11.1787
-11.4841
-11.7165
-11.8963
-12.0377
-12.1509
-12.243
-12.3192
-12.383
-12.4373
-12.484
-12.5247
-12.5606
-12.5925
-12.6213
-12.6476
-12.6718
-12.6944
-12.7158
-12.7364
-12.7563
-12.7759
-12.7956
-12.8155
-12.8361
-12.8577
-12.8807
-12.9057
-12.9334
-12.9644
-13
-13.0414
-13.0905
-13.1498
-13.2228
-13.3141
-13.4308
-13.5824
-13.7828
-14.0517
-14.4157
-14.9036
-15.5278
-16.2711
-17.0342
-9.44469
-9.65372
-10.0693
-10.5112
-10.9011
-11.2248
-11.4877
-11.6996
-11.8707
-12.0096
-12.1234
-12.2176
-12.2965
-12.3632
-12.4203
-12.4696
-12.5127
-12.5507
-12.5847
-12.6153
-12.6433
-12.6691
-12.6933
-12.7162
-12.7382
-12.7597
-12.7808
-12.8021
-12.8238
-12.8462
-12.8698
-12.895
-12.9224
-12.9527
-12.9867
-13.0255
-13.0703
-13.123
-13.1859
-13.2619
-13.3551
-13.4707
-13.6156
-13.7982
-14.0284
-14.3159
-14.6674
-15.0696
-15.4492
-15.6259
-10.3343
-10.328
-10.5278
-10.8014
-11.0732
-11.3203
-11.5359
-11.7194
-11.8741
-12.0041
-12.1134
-12.2058
-12.2843
-12.3516
-12.4096
-12.4602
-12.5046
-12.544
-12.5793
-12.6112
-12.6404
-12.6675
-12.6929
-12.717
-12.7401
-12.7628
-12.7852
-12.8077
-12.8307
-12.8546
-12.8797
-12.9066
-12.9357
-12.9678
-13.0036
-13.0442
-13.0907
-13.1447
-13.2081
-13.2833
-13.3732
-13.4814
-13.6119
-13.769
-13.956
-14.173
-14.4144
-14.6595
-14.8364
-14.8159
-10.9042
-10.8231
-10.907
-11.071
-11.2559
-11.4395
-11.6107
-11.7644
-11.8994
-12.0167
-12.1181
-12.2058
-12.2816
-12.3475
-12.405
-12.4555
-12.5003
-12.5402
-12.5761
-12.6088
-12.6388
-12.6667
-12.6929
-12.7178
-12.7418
-12.7653
-12.7886
-12.8121
-12.8361
-12.8609
-12.887
-12.9149
-12.945
-12.978
-13.0146
-13.0557
-13.1022
-13.1555
-13.217
-13.2883
-13.3716
-13.4687
-13.5817
-13.7118
-13.8583
-14.017
-14.1784
-14.3223
-14.3925
-14.3077
-11.2885
-11.1897
-11.2146
-11.3097
-11.433
-11.5666
-11.6995
-11.8249
-11.9398
-12.0429
-12.1345
-12.2155
-12.2869
-12.3499
-12.4057
-12.4551
-12.4993
-12.5391
-12.575
-12.6079
-12.6382
-12.6665
-12.6931
-12.7185
-12.743
-12.767
-12.7909
-12.8149
-12.8394
-12.8648
-12.8914
-12.9197
-12.9501
-12.9832
-13.0196
-13.06
-13.1053
-13.1563
-13.2141
-13.2798
-13.3544
-13.439
-13.5339
-13.6386
-13.7505
-13.8639
-13.9693
-14.0504
-14.0677
-13.971
-11.5626
-11.4671
-11.4624
-11.5149
-11.5955
-11.6912
-11.7928
-11.8934
-11.9892
-12.0781
-12.1593
-12.2327
-12.2986
-12.3577
-12.4107
-12.4583
-12.5012
-12.5401
-12.5756
-12.6082
-12.6384
-12.6666
-12.6933
-12.7188
-12.7436
-12.7678
-12.7918
-12.816
-12.8407
-12.8662
-12.8928
-12.921
-12.9511
-12.9836
-13.019
-13.0579
-13.1009
-13.1486
-13.2017
-13.2607
-13.3262
-13.3982
-13.4763
-13.5589
-13.6428
-13.7225
-13.7897
-13.8326
-13.8245
-13.734
-11.7681
-11.6818
-11.6628
-11.6889
-11.7404
-11.8081
-11.8848
-11.9645
-12.0434
-12.1189
-12.1896
-12.255
-12.315
-12.3696
-12.4192
-12.4643
-12.5054
-12.543
-12.5775
-12.6093
-12.639
-12.6669
-12.6934
-12.7187
-12.7433
-12.7674
-12.7914
-12.8154
-12.8399
-12.8651
-12.8913
-12.9189
-12.9482
-12.9796
-13.0135
-13.0502
-13.0903
-13.1341
-13.182
-13.2342
-13.2906
-13.3509
-13.4142
-13.4785
-13.5407
-13.5958
-13.6375
-13.6575
-13.6377
-13.5579
-11.9281
-11.8517
-11.8262
-11.8362
-11.8679
-11.9151
-11.9724
-12.035
-12.0992
-12.1625
-12.2235
-12.281
-12.3348
-12.3845
-12.4304
-12.4726
-12.5115
-12.5473
-12.5804
-12.6112
-12.6401
-12.6673
-12.6932
-12.7181
-12.7423
-12.766
-12.7895
-12.8131
-12.8371
-12.8616
-12.8871
-12.9138
-12.9419
-12.9717
-13.0036
-13.0379
-13.0747
-13.1144
-13.157
-13.2024
-13.2505
-13.3005
-13.3513
-13.401
-13.4466
-13.4841
-13.5088
-13.5152
-13.4907
-13.4215
-12.0561
-11.9889
-11.9609
-11.961
-11.9793
-12.0117
-12.0541
-12.1028
-12.1546
-12.2072
-12.2592
-12.3093
-12.3569
-12.4018
-12.4437
-12.4827
-12.519
-12.5527
-12.5842
-12.6137
-12.6414
-12.6677
-12.6928
-12.7169
-12.7404
-12.7635
-12.7863
-12.8092
-12.8324
-12.8561
-12.8805
-12.9059
-12.9326
-12.9606
-12.9903
-13.0218
-13.0553
-13.0908
-13.1283
-13.1676
-13.2082
-13.2493
-13.2898
-13.3279
-13.3611
-13.3862
-13.3997
-13.3981
-13.3724
-13.3126
-12.1605
-12.1013
-12.0732
-12.0674
-12.0767
-12.0983
-12.1294
-12.1669
-12.2083
-12.2518
-12.2956
-12.3388
-12.3807
-12.4206
-12.4585
-12.4942
-12.5277
-12.5592
-12.5888
-12.6166
-12.643
-12.6681
-12.6921
-12.7153
-12.7379
-12.76
-12.782
-12.8039
-12.8261
-12.8487
-12.8719
-12.8958
-12.9208
-12.9469
-12.9742
-13.003
-13.0331
-13.0646
-13.0974
-13.131
-13.1651
-13.1988
-13.231
-13.2601
-13.2841
-13.3004
-13.3067
-13.3006
-13.2754
-13.2237
-12.247
-12.1949
-12.1678
-12.1587
-12.1619
-12.1757
-12.1981
-12.2268
-12.2598
-12.2953
-12.332
-12.369
-12.4053
-12.4406
-12.4745
-12.5068
-12.5374
-12.5665
-12.5939
-12.62
-12.6448
-12.6685
-12.6913
-12.7133
-12.7347
-12.7558
-12.7767
-12.7975
-12.8185
-12.8398
-12.8616
-12.8839
-12.9071
-12.9311
-12.9561
-12.982
-13.009
-13.0368
-13.0653
-13.094
-13.1226
-13.1501
-13.1756
-13.1978
-13.2149
-13.2252
-13.2269
-13.2183
-13.1946
-13.1498
-12.3196
-12.2738
-12.2482
-12.2374
-12.2366
-12.2449
-12.2608
-12.2825
-12.3085
-12.3373
-12.3679
-12.3991
-12.4305
-12.4613
-12.4913
-12.5202
-12.548
-12.5744
-12.5997
-12.6238
-12.6469
-12.669
-12.6904
-12.7111
-12.7312
-12.751
-12.7706
-12.7902
-12.8099
-12.8297
-12.85
-12.8707
-12.892
-12.9139
-12.9365
-12.9598
-12.9837
-13.0081
-13.0328
-13.0573
-13.0811
-13.1036
-13.1238
-13.1407
-13.1529
-13.159
-13.1578
-13.1481
-13.1263
-13.0874
-12.3811
-12.3409
-12.3174
-12.3058
-12.3025
-12.3069
-12.3179
-12.3341
-12.3544
-12.3777
-12.4028
-12.4291
-12.4558
-12.4825
-12.5088
-12.5344
-12.5592
-12.5831
-12.6061
-12.6281
-12.6493
-12.6698
-12.6895
-12.7087
-12.7275
-12.7459
-12.7641
-12.7823
-12.8005
-12.8188
-12.8374
-12.8564
-12.8758
-12.8957
-12.916
-12.9368
-12.9579
-12.9792
-13.0005
-13.0213
-13.0412
-13.0596
-13.0757
-13.0885
-13.0971
-13.1004
-13.0974
-13.0876
-13.0678
-13.0341
-12.4338
-12.3986
-12.3773
-12.3657
-12.361
-12.3626
-12.3699
-12.3819
-12.3976
-12.4161
-12.4367
-12.4585
-12.4811
-12.5039
-12.5267
-12.5491
-12.5711
-12.5923
-12.613
-12.6329
-12.6521
-12.6708
-12.6888
-12.7064
-12.7236
-12.7405
-12.7573
-12.7739
-12.7906
-12.8073
-12.8243
-12.8415
-12.859
-12.8768
-12.895
-12.9134
-12.9319
-12.9505
-12.9688
-12.9865
-13.0031
-13.0181
-13.0309
-13.0408
-13.0468
-13.0482
-13.0443
-13.0348
-13.0171
-12.9881
-12.4794
-12.4488
-12.4297
-12.4186
-12.4131
-12.4129
-12.4175
-12.4262
-12.4382
-12.4528
-12.4694
-12.4873
-12.5061
-12.5255
-12.5449
-12.5643
-12.5834
-12.6022
-12.6204
-12.6382
-12.6554
-12.6721
-12.6884
-12.7043
-12.7199
-12.7352
-12.7503
-12.7654
-12.7805
-12.7956
-12.8108
-12.8262
-12.8419
-12.8577
-12.8738
-12.89
-12.9062
-12.9222
-12.9379
-12.9529
-12.9668
-12.9791
-12.9894
-12.9969
-13.0011
-13.0013
-12.9971
-12.9882
-12.9727
-12.9478
-12.5191
-12.4928
-12.4759
-12.4657
-12.4599
-12.4585
-12.4612
-12.4673
-12.4763
-12.4877
-12.5009
-12.5154
-12.5309
-12.547
-12.5634
-12.5799
-12.5963
-12.6125
-12.6284
-12.644
-12.6591
-12.6739
-12.6884
-12.7025
-12.7164
-12.73
-12.7435
-12.7569
-12.7703
-12.7837
-12.7973
-12.8109
-12.8247
-12.8386
-12.8527
-12.8668
-12.8808
-12.8946
-12.908
-12.9206
-12.9322
-12.9423
-12.9506
-12.9564
-12.9593
-12.9588
-12.9547
-12.9467
-12.9334
-12.9123
-12.5543
-12.5319
-12.5172
-12.508
-12.5024
-12.5003
-12.5015
-12.5057
-12.5123
-12.521
-12.5313
-12.5428
-12.5554
-12.5685
-12.5821
-12.5959
-12.6097
-12.6234
-12.637
-12.6503
-12.6634
-12.6762
-12.6888
-12.7011
-12.7132
-12.7251
-12.7369
-12.7486
-12.7603
-12.772
-12.7838
-12.7957
-12.8076
-12.8197
-12.8318
-12.8439
-12.8559
-12.8677
-12.879
-12.8896
-12.8993
-12.9076
-12.9142
-12.9188
-12.9208
-12.9201
-12.9162
-12.9093
-12.898
-12.8804
-12.5857
-12.5669
-12.5545
-12.5464
-12.5411
-12.5387
-12.539
-12.5417
-12.5464
-12.5528
-12.5606
-12.5696
-12.5794
-12.5899
-12.6009
-12.6121
-12.6234
-12.6348
-12.6461
-12.6573
-12.6683
-12.6791
-12.6897
-12.7002
-12.7105
-12.7206
-12.7306
-12.7406
-12.7506
-12.7605
-12.7706
-12.7806
-12.7908
-12.801
-12.8113
-12.8215
-12.8316
-12.8415
-12.851
-12.8598
-12.8678
-12.8746
-12.88
-12.8836
-12.8851
-12.8843
-12.881
-12.8752
-12.8659
-12.8516
-12.6141
-12.5988
-12.5885
-12.5816
-12.577
-12.5745
-12.5741
-12.5757
-12.5788
-12.5833
-12.5891
-12.5958
-12.6032
-12.6113
-12.6198
-12.6286
-12.6376
-12.6466
-12.6557
-12.6648
-12.6737
-12.6825
-12.6912
-12.6998
-12.7082
-12.7166
-12.7248
-12.733
-12.7412
-12.7494
-12.7577
-12.766
-12.7743
-12.7827
-12.7912
-12.7996
-12.8079
-12.816
-12.8238
-12.8311
-12.8376
-12.8431
-12.8475
-12.8503
-12.8515
-12.8509
-12.8482
-12.8436
-12.8363
-12.8251
-12.6403
-12.6282
-12.62
-12.6144
-12.6104
-12.6081
-12.6073
-12.608
-12.6099
-12.6128
-12.6167
-12.6214
-12.6267
-12.6326
-12.6388
-12.6453
-12.6521
-12.659
-12.6659
-12.6728
-12.6797
-12.6866
-12.6933
-12.7
-12.7066
-12.7131
-12.7196
-12.726
-12.7324
-12.7388
-12.7452
-12.7517
-12.7583
-12.7649
-12.7715
-12.7782
-12.7848
-12.7912
-12.7974
-12.8032
-12.8084
-12.8128
-12.8163
-12.8186
-12.8197
-12.8193
-12.8174
-12.814
-12.8086
-12.8004
-12.6647
-12.6557
-12.6496
-12.6452
-12.642
-12.64
-12.639
-12.639
-12.6398
-12.6415
-12.6438
-12.6466
-12.65
-12.6538
-12.658
-12.6624
-12.667
-12.6717
-12.6766
-12.6815
-12.6864
-12.6913
-12.6961
-12.7009
-12.7056
-12.7102
-12.7148
-12.7194
-12.724
-12.7286
-12.7332
-12.7379
-12.7427
-12.7475
-12.7523
-12.7573
-12.7621
-12.767
-12.7716
-12.776
-12.78
-12.7834
-12.7861
-12.7881
-12.789
-12.789
-12.7879
-12.7858
-12.7823
-12.777
-12.6879
-12.6819
-12.6777
-12.6746
-12.6723
-12.6706
-12.6695
-12.669
-12.669
-12.6695
-12.6704
-12.6716
-12.6732
-12.6751
-12.6773
-12.6797
-12.6823
-12.685
-12.6878
-12.6907
-12.6936
-12.6966
-12.6995
-12.7023
-12.7052
-12.708
-12.7108
-12.7135
-12.7162
-12.719
-12.7218
-12.7246
-12.7275
-12.7305
-12.7336
-12.7367
-12.7399
-12.7431
-12.7463
-12.7493
-12.7521
-12.7546
-12.7567
-12.7582
-12.7592
-12.7596
-12.7594
-12.7585
-12.757
-12.7544
-12.7103
-12.7072
-12.7049
-12.7032
-12.7017
-12.7004
-12.6993
-12.6984
-12.6977
-12.6971
-12.6967
-12.6964
-12.6964
-12.6965
-12.6968
-12.6973
-12.6979
-12.6987
-12.6996
-12.7005
-12.7015
-12.7025
-12.7035
-12.7045
-12.7055
-12.7064
-12.7073
-12.7082
-12.7091
-12.7099
-12.7109
-12.7118
-12.7129
-12.714
-12.7153
-12.7166
-12.7181
-12.7197
-12.7213
-12.7229
-12.7246
-12.7261
-12.7275
-12.7288
-12.7298
-12.7306
-12.7313
-12.7317
-12.7321
-12.7323
-12.7323
-12.7321
-12.7317
-12.7313
-12.7306
-12.7298
-12.7288
-12.7275
-12.7261
-12.7246
-12.7229
-12.7213
-12.7197
-12.7181
-12.7166
-12.7153
-12.714
-12.7129
-12.7118
-12.7109
-12.7099
-12.7091
-12.7082
-12.7073
-12.7064
-12.7055
-12.7045
-12.7035
-12.7025
-12.7015
-12.7005
-12.6996
-12.6987
-12.6979
-12.6973
-12.6968
-12.6965
-12.6964
-12.6964
-12.6967
-12.6971
-12.6977
-12.6984
-12.6993
-12.7004
-12.7017
-12.7032
-12.7049
-12.7072
-12.7103
-12.7544
-12.757
-12.7585
-12.7594
-12.7596
-12.7592
-12.7582
-12.7567
-12.7546
-12.7521
-12.7493
-12.7463
-12.7431
-12.7399
-12.7367
-12.7336
-12.7305
-12.7275
-12.7246
-12.7218
-12.719
-12.7162
-12.7135
-12.7108
-12.708
-12.7052
-12.7023
-12.6995
-12.6966
-12.6936
-12.6907
-12.6878
-12.685
-12.6823
-12.6797
-12.6773
-12.6751
-12.6732
-12.6716
-12.6704
-12.6695
-12.669
-12.669
-12.6695
-12.6706
-12.6723
-12.6746
-12.6777
-12.6819
-12.6879
-12.777
-12.7823
-12.7858
-12.7879
-12.789
-12.789
-12.7881
-12.7861
-12.7834
-12.78
-12.776
-12.7716
-12.767
-12.7621
-12.7572
-12.7523
-12.7475
-12.7427
-12.7379
-12.7332
-12.7286
-12.724
-12.7194
-12.7148
-12.7102
-12.7056
-12.7009
-12.6961
-12.6913
-12.6864
-12.6815
-12.6766
-12.6717
-12.667
-12.6624
-12.658
-12.6538
-12.65
-12.6466
-12.6438
-12.6415
-12.6398
-12.639
-12.639
-12.64
-12.642
-12.6452
-12.6496
-12.6557
-12.6647
-12.8004
-12.8086
-12.814
-12.8174
-12.8193
-12.8197
-12.8186
-12.8163
-12.8128
-12.8084
-12.8032
-12.7974
-12.7912
-12.7848
-12.7782
-12.7715
-12.7649
-12.7583
-12.7517
-12.7452
-12.7388
-12.7324
-12.726
-12.7196
-12.7131
-12.7066
-12.7
-12.6933
-12.6866
-12.6797
-12.6728
-12.6659
-12.659
-12.6521
-12.6453
-12.6388
-12.6326
-12.6267
-12.6214
-12.6167
-12.6128
-12.6099
-12.608
-12.6073
-12.6081
-12.6104
-12.6144
-12.62
-12.6282
-12.6403
-12.8251
-12.8363
-12.8436
-12.8482
-12.8509
-12.8515
-12.8503
-12.8475
-12.8431
-12.8376
-12.8311
-12.8238
-12.816
-12.8079
-12.7996
-12.7912
-12.7827
-12.7743
-12.766
-12.7577
-12.7494
-12.7412
-12.733
-12.7248
-12.7166
-12.7082
-12.6998
-12.6912
-12.6825
-12.6737
-12.6648
-12.6557
-12.6466
-12.6376
-12.6286
-12.6198
-12.6113
-12.6032
-12.5958
-12.5891
-12.5833
-12.5788
-12.5757
-12.5741
-12.5745
-12.577
-12.5816
-12.5885
-12.5988
-12.6141
-12.8516
-12.8659
-12.8752
-12.881
-12.8843
-12.8851
-12.8836
-12.88
-12.8746
-12.8678
-12.8598
-12.851
-12.8415
-12.8316
-12.8215
-12.8113
-12.801
-12.7908
-12.7806
-12.7706
-12.7605
-12.7506
-12.7406
-12.7306
-12.7206
-12.7105
-12.7002
-12.6897
-12.6791
-12.6683
-12.6573
-12.6461
-12.6348
-12.6234
-12.6121
-12.6009
-12.5899
-12.5794
-12.5696
-12.5606
-12.5528
-12.5464
-12.5417
-12.539
-12.5387
-12.5411
-12.5464
-12.5545
-12.5669
-12.5857
-12.8804
-12.898
-12.9093
-12.9162
-12.9201
-12.9208
-12.9188
-12.9142
-12.9076
-12.8993
-12.8896
-12.879
-12.8677
-12.8559
-12.8439
-12.8318
-12.8197
-12.8076
-12.7957
-12.7838
-12.772
-12.7603
-12.7486
-12.7369
-12.7251
-12.7132
-12.7011
-12.6888
-12.6762
-12.6634
-12.6503
-12.637
-12.6234
-12.6097
-12.5959
-12.5821
-12.5685
-12.5554
-12.5428
-12.5313
-12.521
-12.5123
-12.5057
-12.5015
-12.5003
-12.5024
-12.508
-12.5172
-12.5319
-12.5543
-12.9123
-12.9334
-12.9467
-12.9547
-12.9588
-12.9593
-12.9564
-12.9506
-12.9423
-12.9322
-12.9206
-12.908
-12.8946
-12.8808
-12.8668
-12.8527
-12.8386
-12.8247
-12.8109
-12.7973
-12.7837
-12.7703
-12.7569
-12.7435
-12.73
-12.7164
-12.7025
-12.6884
-12.6739
-12.6591
-12.644
-12.6284
-12.6125
-12.5963
-12.5799
-12.5634
-12.547
-12.5309
-12.5154
-12.5009
-12.4877
-12.4763
-12.4673
-12.4612
-12.4585
-12.4599
-12.4657
-12.4759
-12.4928
-12.5191
-12.9478
-12.9727
-12.9882
-12.9971
-13.0013
-13.0011
-12.9969
-12.9894
-12.9791
-12.9668
-12.9529
-12.9379
-12.9222
-12.9062
-12.89
-12.8738
-12.8577
-12.8419
-12.8262
-12.8108
-12.7956
-12.7805
-12.7654
-12.7503
-12.7352
-12.7199
-12.7043
-12.6884
-12.6721
-12.6554
-12.6382
-12.6204
-12.6022
-12.5834
-12.5643
-12.5449
-12.5255
-12.5061
-12.4873
-12.4694
-12.4528
-12.4382
-12.4262
-12.4175
-12.4129
-12.4131
-12.4186
-12.4297
-12.4488
-12.4794
-12.9881
-13.0171
-13.0348
-13.0443
-13.0482
-13.0468
-13.0408
-13.0309
-13.0181
-13.0031
-12.9865
-12.9688
-12.9505
-12.9319
-12.9134
-12.895
-12.8768
-12.859
-12.8415
-12.8243
-12.8073
-12.7906
-12.7739
-12.7573
-12.7405
-12.7236
-12.7064
-12.6888
-12.6708
-12.6521
-12.6329
-12.613
-12.5923
-12.5711
-12.5491
-12.5267
-12.5039
-12.4811
-12.4585
-12.4367
-12.4161
-12.3976
-12.3819
-12.3699
-12.3626
-12.361
-12.3657
-12.3773
-12.3986
-12.4338
-13.0341
-13.0678
-13.0876
-13.0974
-13.1004
-13.0971
-13.0885
-13.0757
-13.0596
-13.0412
-13.0213
-13.0005
-12.9792
-12.9579
-12.9368
-12.916
-12.8957
-12.8758
-12.8564
-12.8374
-12.8188
-12.8005
-12.7823
-12.7641
-12.7459
-12.7275
-12.7087
-12.6895
-12.6698
-12.6493
-12.6281
-12.6061
-12.5831
-12.5592
-12.5344
-12.5088
-12.4825
-12.4558
-12.4291
-12.4028
-12.3777
-12.3544
-12.3341
-12.3179
-12.3069
-12.3025
-12.3058
-12.3174
-12.3409
-12.3811
-13.0874
-13.1263
-13.1481
-13.1578
-13.159
-13.1529
-13.1407
-13.1238
-13.1036
-13.0811
-13.0573
-13.0328
-13.0081
-12.9837
-12.9598
-12.9365
-12.9139
-12.892
-12.8707
-12.85
-12.8297
-12.8099
-12.7902
-12.7706
-12.751
-12.7312
-12.7111
-12.6904
-12.669
-12.6469
-12.6238
-12.5997
-12.5745
-12.548
-12.5202
-12.4913
-12.4613
-12.4305
-12.3992
-12.3679
-12.3373
-12.3085
-12.2825
-12.2608
-12.2449
-12.2366
-12.2374
-12.2483
-12.2738
-12.3196
-13.1498
-13.1946
-13.2183
-13.2269
-13.2252
-13.2149
-13.1978
-13.1756
-13.1501
-13.1226
-13.094
-13.0653
-13.0368
-13.009
-12.9821
-12.9561
-12.9311
-12.9071
-12.8839
-12.8616
-12.8398
-12.8185
-12.7975
-12.7767
-12.7558
-12.7347
-12.7133
-12.6913
-12.6685
-12.6448
-12.62
-12.5939
-12.5665
-12.5374
-12.5068
-12.4745
-12.4406
-12.4053
-12.369
-12.332
-12.2953
-12.2598
-12.2268
-12.1981
-12.1757
-12.1619
-12.1587
-12.1678
-12.1949
-12.247
-13.2237
-13.2754
-13.3006
-13.3067
-13.3004
-13.2841
-13.2601
-13.231
-13.1988
-13.1651
-13.131
-13.0974
-13.0646
-13.0331
-13.003
-12.9742
-12.9469
-12.9208
-12.8958
-12.8719
-12.8487
-12.8261
-12.8039
-12.782
-12.76
-12.7379
-12.7153
-12.6921
-12.6681
-12.643
-12.6166
-12.5888
-12.5592
-12.5277
-12.4942
-12.4585
-12.4206
-12.3807
-12.3388
-12.2956
-12.2518
-12.2083
-12.1669
-12.1294
-12.0983
-12.0767
-12.0674
-12.0732
-12.1013
-12.1605
-13.3126
-13.3724
-13.3981
-13.3997
-13.3862
-13.3611
-13.3279
-13.2898
-13.2493
-13.2082
-13.1676
-13.1283
-13.0908
-13.0553
-13.0218
-12.9903
-12.9606
-12.9326
-12.9059
-12.8805
-12.8561
-12.8324
-12.8092
-12.7863
-12.7635
-12.7404
-12.7169
-12.6928
-12.6677
-12.6414
-12.6137
-12.5842
-12.5527
-12.519
-12.4827
-12.4437
-12.4018
-12.3569
-12.3093
-12.2592
-12.2072
-12.1546
-12.1028
-12.0541
-12.0117
-11.9793
-11.961
-11.9609
-11.9889
-12.0561
-13.4215
-13.4907
-13.5152
-13.5088
-13.4841
-13.4466
-13.401
-13.3513
-13.3005
-13.2505
-13.2024
-13.157
-13.1144
-13.0747
-13.0379
-13.0036
-12.9717
-12.9419
-12.9138
-12.8871
-12.8616
-12.8371
-12.8131
-12.7895
-12.766
-12.7423
-12.7181
-12.6932
-12.6673
-12.6401
-12.6112
-12.5804
-12.5473
-12.5115
-12.4726
-12.4304
-12.3845
-12.3348
-12.281
-12.2235
-12.1625
-12.0992
-12.035
-11.9724
-11.9151
-11.8679
-11.8362
-11.8262
-11.8517
-11.9281
-13.5579
-13.6377
-13.6575
-13.6375
-13.5958
-13.5407
-13.4786
-13.4142
-13.3509
-13.2906
-13.2342
-13.182
-13.1341
-13.0903
-13.0502
-13.0135
-12.9796
-12.9482
-12.9189
-12.8913
-12.8651
-12.8399
-12.8154
-12.7914
-12.7674
-12.7433
-12.7187
-12.6934
-12.6669
-12.639
-12.6093
-12.5775
-12.543
-12.5054
-12.4643
-12.4192
-12.3696
-12.315
-12.255
-12.1896
-12.1189
-12.0434
-11.9645
-11.8848
-11.8081
-11.7404
-11.6889
-11.6628
-11.6818
-11.7681
-13.734
-13.8245
-13.8326
-13.7897
-13.7225
-13.6428
-13.5589
-13.4763
-13.3982
-13.3262
-13.2607
-13.2017
-13.1486
-13.1009
-13.0579
-13.019
-12.9836
-12.9511
-12.921
-12.8928
-12.8662
-12.8407
-12.816
-12.7918
-12.7678
-12.7436
-12.7188
-12.6933
-12.6666
-12.6384
-12.6082
-12.5756
-12.5401
-12.5012
-12.4583
-12.4107
-12.3577
-12.2986
-12.2327
-12.1593
-12.0781
-11.9892
-11.8934
-11.7928
-11.6912
-11.5955
-11.5149
-11.4624
-11.4671
-11.5626
-13.971
-14.0677
-14.0504
-13.9693
-13.8639
-13.7505
-13.6386
-13.5339
-13.439
-13.3544
-13.2798
-13.2141
-13.1563
-13.1053
-13.06
-13.0196
-12.9832
-12.9501
-12.9197
-12.8914
-12.8648
-12.8394
-12.8149
-12.7909
-12.7671
-12.743
-12.7185
-12.6931
-12.6665
-12.6382
-12.6079
-12.575
-12.5391
-12.4993
-12.4551
-12.4057
-12.3499
-12.2869
-12.2155
-12.1345
-12.0429
-11.9398
-11.8249
-11.6995
-11.5666
-11.433
-11.3097
-11.2146
-11.1897
-11.2885
-14.3077
-14.3925
-14.3223
-14.1784
-14.017
-13.8583
-13.7118
-13.5817
-13.4687
-13.3716
-13.2883
-13.217
-13.1555
-13.1022
-13.0557
-13.0146
-12.978
-12.945
-12.9149
-12.887
-12.8609
-12.8361
-12.8121
-12.7886
-12.7653
-12.7418
-12.7178
-12.6929
-12.6667
-12.6388
-12.6088
-12.5761
-12.5402
-12.5003
-12.4555
-12.405
-12.3475
-12.2816
-12.2058
-12.1181
-12.0167
-11.8994
-11.7644
-11.6107
-11.4395
-11.2559
-11.071
-10.907
-10.8231
-10.9042
-14.8159
-14.8364
-14.6595
-14.4144
-14.173
-13.956
-13.769
-13.6119
-13.4814
-13.3732
-13.2833
-13.2081
-13.1447
-13.0907
-13.0442
-13.0036
-12.9678
-12.9357
-12.9066
-12.8797
-12.8546
-12.8307
-12.8077
-12.7852
-12.7628
-12.7401
-12.717
-12.6929
-12.6675
-12.6404
-12.6112
-12.5793
-12.544
-12.5046
-12.4602
-12.4096
-12.3516
-12.2843
-12.2058
-12.1134
-12.0041
-11.8741
-11.7195
-11.5359
-11.3203
-11.0732
-10.8014
-10.5278
-10.328
-10.3343
-15.6259
-15.4492
-15.0696
-14.6674
-14.3159
-14.0284
-13.7982
-13.6156
-13.4707
-13.3551
-13.2619
-13.1859
-13.123
-13.0703
-13.0255
-12.9867
-12.9527
-12.9224
-12.895
-12.8698
-12.8462
-12.8238
-12.8021
-12.7808
-12.7597
-12.7382
-12.7162
-12.6933
-12.6692
-12.6433
-12.6153
-12.5847
-12.5507
-12.5127
-12.4696
-12.4203
-12.3632
-12.2965
-12.2176
-12.1234
-12.0096
-11.8707
-11.6996
-11.4877
-11.2248
-10.9011
-10.5112
-10.0693
-9.65372
-9.44469
-17.0342
-16.2711
-15.5278
-14.9036
-14.4157
-14.0517
-13.7828
-13.5824
-13.4308
-13.3141
-13.2228
-13.1498
-13.0905
-13.0414
-13
-12.9644
-12.9334
-12.9057
-12.8807
-12.8577
-12.8361
-12.8155
-12.7956
-12.7759
-12.7563
-12.7364
-12.7158
-12.6944
-12.6718
-12.6476
-12.6213
-12.5925
-12.5606
-12.5247
-12.484
-12.4373
-12.383
-12.3192
-12.243
-12.1509
-12.0377
-11.8963
-11.7165
-11.4841
-11.1787
-10.7727
-10.236
-9.55822
-8.76021
-7.93096
-19.87
-17.2709
-15.8531
-14.969
-14.3641
-13.9559
-13.6788
-13.4846
-13.3437
-13.2384
-13.1577
-13.0941
-13.043
-13.0008
-12.9654
-12.9349
-12.9083
-12.8845
-12.8629
-12.8428
-12.8238
-12.8057
-12.7879
-12.7704
-12.7527
-12.7347
-12.7161
-12.6967
-12.6761
-12.6541
-12.6302
-12.6041
-12.5751
-12.5426
-12.5059
-12.4637
-12.4147
-12.3571
-12.2882
-12.2045
-12.1009
-11.9696
-11.799
-11.5706
-11.254
-10.7987
-10.1353
-9.17905
-7.67536
-4.9576
-24.7386
-18.354
-15.6895
-14.5934
-13.9997
-13.6484
-13.4321
-13.2891
-13.1882
-13.1135
-13.0562
-13.0109
-12.9742
-12.9436
-12.9175
-12.8949
-12.8748
-12.8565
-12.8395
-12.8236
-12.8083
-12.7934
-12.7786
-12.7638
-12.7488
-12.7334
-12.7174
-12.7007
-12.6829
-12.6639
-12.6434
-12.621
-12.5964
-12.569
-12.5382
-12.5032
-12.463
-12.4161
-12.3607
-12.2942
-12.2128
-12.1106
-11.9782
-11.7993
-11.5416
-11.1412
-10.4816
-9.29088
-6.50969
4.4572e-05
)
;

boundaryField
{
    movingWallTop
    {
        type            zeroGradient;
    }
    movingWallBottom
    {
        type            zeroGradient;
    }
    fixedWalls
    {
        type            zeroGradient;
    }
    frontAndBack
    {
        type            empty;
    }
}


// ************************************************************************* //
