/*--------------------------------*- C++ -*----------------------------------*\
  =========                 |
  \\      /  F ield         | OpenFOAM: The Open Source CFD Toolbox
   \\    /   O peration     | Website:  https://openfoam.org
    \\  /    A nd           | Version:  7
     \\/     M anipulation  |
\*---------------------------------------------------------------------------*/
FoamFile
{
    version     2.0;
    format      ascii;
    class       volVectorField;
    location    "0.0606";
    object      U;
}
// * * * * * * * * * * * * * * * * * * * * * * * * * * * * * * * * * * * * * //

dimensions      [0 1 -1 0 0 0 0];

internalField   nonuniform List<vector> 
2500
(
(2.99224e-05 -3.00465e-05 0)
(9.09623e-05 -3.6785e-05 0)
(0.000125578 -1.88572e-05 0)
(9.41141e-05 7.44897e-06 0)
(-1.55112e-05 3.44113e-05 0)
(-0.000201708 5.92176e-05 0)
(-0.000457435 8.07169e-05 0)
(-0.000773504 9.85709e-05 0)
(-0.00113968 0.000112796 0)
(-0.00154546 0.000123541 0)
(-0.00198045 0.000131006 0)
(-0.00243462 0.000135407 0)
(-0.00289843 0.000136966 0)
(-0.0033629 0.000135905 0)
(-0.00381965 0.00013244 0)
(-0.00426092 0.000126781 0)
(-0.00467963 0.000119136 0)
(-0.00506932 0.000109705 0)
(-0.00542419 9.86828e-05 0)
(-0.00573911 8.62636e-05 0)
(-0.00600959 7.26382e-05 0)
(-0.0062318 5.79971e-05 0)
(-0.00640258 4.2532e-05 0)
(-0.00651947 2.64382e-05 0)
(-0.00658067 9.91575e-06 0)
(-0.00658511 -6.82926e-06 0)
(-0.00653245 -2.35837e-05 0)
(-0.00642309 -4.01264e-05 0)
(-0.00625825 -5.62276e-05 0)
(-0.00603989 -7.16492e-05 0)
(-0.00577084 -8.61458e-05 0)
(-0.00545475 -9.94657e-05 0)
(-0.00509612 -0.000111353 0)
(-0.00470029 -0.00012155 0)
(-0.00427345 -0.000129799 0)
(-0.00382261 -0.000135848 0)
(-0.00335554 -0.000139451 0)
(-0.00288078 -0.000140373 0)
(-0.00240751 -0.000138395 0)
(-0.0019455 -0.000133315 0)
(-0.00150498 -0.000124954 0)
(-0.00109649 -0.000113165 0)
(-0.000730708 -9.78389e-05 0)
(-0.00041813 -7.89437e-05 0)
(-0.000168612 -5.66066e-05 0)
(9.37547e-06 -3.1345e-05 0)
(0.000110033 -4.47102e-06 0)
(0.000132961 2.09909e-05 0)
(9.22415e-05 3.77506e-05 0)
(2.95431e-05 2.94841e-05 0)
(3.7049e-05 -9.13097e-05 0)
(8.36715e-05 -8.28951e-05 0)
(3.48628e-05 1.761e-05 0)
(-0.00016973 0.000154492 0)
(-0.000554054 0.000299261 0)
(-0.00111858 0.000437345 0)
(-0.00185152 0.000561123 0)
(-0.00273389 0.000666929 0)
(-0.00374261 0.000753237 0)
(-0.0048526 0.000819684 0)
(-0.00603812 0.000866568 0)
(-0.0072736 0.000894579 0)
(-0.00853422 0.000904649 0)
(-0.00979625 0.000897854 0)
(-0.0110373 0.00087536 0)
(-0.0122365 0.000838386 0)
(-0.0133746 0.000788177 0)
(-0.0144339 0.000725998 0)
(-0.0153986 0.000653122 0)
(-0.0162546 0.000570827 0)
(-0.0169897 0.000480404 0)
(-0.0175932 0.000383153 0)
(-0.0180566 0.000280396 0)
(-0.0183731 0.00017348 0)
(-0.0185379 6.37828e-05 0)
(-0.0185482 -4.72796e-05 0)
(-0.0184031 -0.00015825 0)
(-0.018104 -0.000267627 0)
(-0.0176542 -0.000373867 0)
(-0.0170594 -0.000475383 0)
(-0.0163274 -0.00057056 0)
(-0.0154683 -0.000657757 0)
(-0.0144944 -0.000735328 0)
(-0.0134204 -0.000801637 0)
(-0.012263 -0.000855081 0)
(-0.0110411 -0.000894115 0)
(-0.00977572 -0.000917285 0)
(-0.00848944 -0.000923258 0)
(-0.00720658 -0.000910866 0)
(-0.00595266 -0.000879154 0)
(-0.00475408 -0.000827442 0)
(-0.00363756 -0.000755418 0)
(-0.00262948 -0.000663284 0)
(-0.00175482 -0.00055201 0)
(-0.00103584 -0.000423812 0)
(-0.000489888 -0.000283093 0)
(-0.000126236 -0.000138122 0)
(5.86443e-05 -4.08537e-06 0)
(9.19934e-05 9.09531e-05 0)
(3.80925e-05 9.22455e-05 0)
(2.01129e-05 -0.000127483 0)
(-1.34333e-05 -3.51168e-05 0)
(-0.00022746 0.000233021 0)
(-0.000673039 0.00057794 0)
(-0.00137346 0.000944103 0)
(-0.0023295 0.00129788 0)
(-0.003526 0.00161945 0)
(-0.00493747 0.00189774 0)
(-0.00653201 0.00212701 0)
(-0.00827409 0.00230486 0)
(-0.0101264 0.00243094 0)
(-0.0120515 0.00250629 0)
(-0.0140122 0.00253281 0)
(-0.0159729 0.00251302 0)
(-0.0178997 0.00244979 0)
(-0.0197605 0.00234627 0)
(-0.0215259 0.00220577 0)
(-0.0231687 0.00203173 0)
(-0.0246645 0.00182764 0)
(-0.0259913 0.00159708 0)
(-0.0271303 0.00134367 0)
(-0.028065 0.00107107 0)
(-0.0287823 0.000783055 0)
(-0.0292716 0.00048343 0)
(-0.0295255 0.000176115 0)
(-0.0295399 -0.000134875 0)
(-0.0293135 -0.000445416 0)
(-0.0288484 -0.000751275 0)
(-0.0281502 -0.00104811 0)
(-0.0272275 -0.0013315 0)
(-0.0260926 -0.00159693 0)
(-0.0247612 -0.00183988 0)
(-0.0232525 -0.0020558 0)
(-0.0215889 -0.00224024 0)
(-0.0197962 -0.00238885 0)
(-0.0179034 -0.00249751 0)
(-0.0159423 -0.00256238 0)
(-0.0139473 -0.00258005 0)
(-0.0119551 -0.00254763 0)
(-0.0100039 -0.00246295 0)
(-0.00813279 -0.00232474 0)
(-0.00638106 -0.00213293 0)
(-0.00478682 -0.00188911 0)
(-0.00338555 -0.00159719 0)
(-0.00220805 -0.00126452 0)
(-0.00127763 -0.000903835 0)
(-0.000606235 -0.000536403 0)
(-0.000189222 -0.000196933 0)
(1.21221e-06 5.89475e-05 0)
(2.24681e-05 0.000134527 0)
(-4.64143e-06 -0.000100123 0)
(-0.000146613 0.000165548 0)
(-0.000568485 0.000677391 0)
(-0.00129489 0.0013021 0)
(-0.00233936 0.00195844 0)
(-0.00369894 0.00259336 0)
(-0.00535386 0.00317318 0)
(-0.00727271 0.0036775 0)
(-0.00941654 0.00409477 0)
(-0.0117416 0.00441928 0)
(-0.0142018 0.00464928 0)
(-0.0167498 0.00478573 0)
(-0.019339 0.00483144 0)
(-0.0219238 0.00479053 0)
(-0.0244608 0.00466799 0)
(-0.0269089 0.00446943 0)
(-0.0292298 0.0042009 0)
(-0.0313886 0.00386873 0)
(-0.0333532 0.00347949 0)
(-0.0350953 0.00303991 0)
(-0.0365901 0.00255686 0)
(-0.0378165 0.00203735 0)
(-0.038757 0.00148856 0)
(-0.0393981 0.000917785 0)
(-0.0397302 0.000332528 0)
(-0.0397479 -0.000259535 0)
(-0.0394497 -0.00085053 0)
(-0.0388385 -0.00143239 0)
(-0.0379215 -0.00199686 0)
(-0.0367103 -0.00253556 0)
(-0.0352208 -0.00303997 0)
(-0.0334735 -0.00350156 0)
(-0.0314933 -0.00391185 0)
(-0.0293095 -0.00426249 0)
(-0.0269553 -0.00454547 0)
(-0.0244683 -0.00475318 0)
(-0.0218892 -0.00487868 0)
(-0.0192623 -0.00491587 0)
(-0.0166342 -0.00485978 0)
(-0.0140535 -0.00470687 0)
(-0.0115696 -0.00445546 0)
(-0.0092316 -0.00410629 0)
(-0.00708696 -0.00366329 0)
(-0.00517939 -0.00313474 0)
(-0.00354668 -0.00253503 0)
(-0.00221778 -0.00188734 0)
(-0.0012088 -0.00122784 0)
(-0.000518184 -0.000611383 0)
(-0.000126623 -0.000119627 0)
(-1.1222e-06 0.000116469 0)
(-3.04391e-05 3.49715e-06 0)
(-0.00029075 0.000545846 0)
(-0.000940502 0.0013798 0)
(-0.0019688 0.00234897 0)
(-0.0033736 0.00335158 0)
(-0.00514458 0.00431744 0)
(-0.00725536 0.00519956 0)
(-0.00966802 0.00596787 0)
(-0.0123369 0.00660426 0)
(-0.0152113 0.00709904 0)
(-0.0182374 0.00744848 0)
(-0.0213602 0.0076531 0)
(-0.0245249 0.00771648 0)
(-0.0276779 0.00764438 0)
(-0.030768 0.00744414 0)
(-0.0337463 0.00712418 0)
(-0.0365674 0.00669376 0)
(-0.0391895 0.0061627 0)
(-0.0415744 0.00554126 0)
(-0.0436882 0.00484003 0)
(-0.0455012 0.00406988 0)
(-0.0469881 0.00324195 0)
(-0.0481281 0.00236762 0)
(-0.0489049 0.00145854 0)
(-0.0493071 0.000526653 0)
(-0.0493282 -0.000415831 0)
(-0.0489666 -0.00135639 0)
(-0.0482257 -0.00228221 0)
(-0.0471143 -0.00318024 0)
(-0.0456462 -0.00403718 0)
(-0.0438407 -0.00483964 0)
(-0.0417222 -0.00557419 0)
(-0.0393205 -0.00622753 0)
(-0.0366704 -0.00678666 0)
(-0.0338117 -0.00723909 0)
(-0.0307887 -0.00757312 0)
(-0.02765 -0.00777813 0)
(-0.0244479 -0.00784495 0)
(-0.0212373 -0.00776626 0)
(-0.0180754 -0.00753713 0)
(-0.0150201 -0.00715568 0)
(-0.0121288 -0.00662388 0)
(-0.00945672 -0.0059487 0)
(-0.00705493 -0.00514364 0)
(-0.00496792 -0.00423096 0)
(-0.00323105 -0.00324486 0)
(-0.00186672 -0.00223609 0)
(-0.000880134 -0.00127764 0)
(-0.00026637 -0.000472509 0)
(-2.60083e-05 2.45867e-05 0)
(-5.49498e-05 0.000183934 0)
(-0.000434328 0.0011134 0)
(-0.001318 0.00235283 0)
(-0.00265654 0.00373209 0)
(-0.00442901 0.00513437 0)
(-0.006615 0.00647555 0)
(-0.00917952 0.00769693 0)
(-0.0120771 0.00875941 0)
(-0.015255 0.00963841 0)
(-0.0186557 0.0103201 0)
(-0.0222187 0.0107984 0)
(-0.0258821 0.0110735 0)
(-0.0295842 0.0111494 0)
(-0.0332646 0.0110338 0)
(-0.0368652 0.0107365 0)
(-0.040331 0.010269 0)
(-0.0436103 0.00964411 0)
(-0.0466557 0.00887571 0)
(-0.0494237 0.00797826 0)
(-0.0518759 0.00696679 0)
(-0.0539783 0.0058568 0)
(-0.055702 0.00466421 0)
(-0.0570234 0.00340534 0)
(-0.057924 0.00209687 0)
(-0.0583907 0.000755922 0)
(-0.0584162 -0.000599991 0)
(-0.0579985 -0.00195294 0)
(-0.0571417 -0.0032846 0)
(-0.0558557 -0.00457631 0)
(-0.0541562 -0.00580912 0)
(-0.0520652 -0.00696397 0)
(-0.0496105 -0.00802178 0)
(-0.0468258 -0.00896371 0)
(-0.0437507 -0.00977138 0)
(-0.0404303 -0.0104273 0)
(-0.0369148 -0.0109149 0)
(-0.0332594 -0.0112197 0)
(-0.0295228 -0.0113288 0)
(-0.0257674 -0.0112325 0)
(-0.0220576 -0.0109244 0)
(-0.0184586 -0.0104024 0)
(-0.0150352 -0.00967003 0)
(-0.01185 -0.00873748 0)
(-0.00896099 -0.00762381 0)
(-0.00641994 -0.00635926 0)
(-0.00426976 -0.00498862 0)
(-0.00254123 -0.00357584 0)
(-0.00124909 -0.00220924 0)
(-0.000406163 -0.00100804 0)
(-4.97325e-05 -0.000141904 0)
(-7.75242e-05 0.000438118 0)
(-0.000572609 0.00186731 0)
(-0.00168865 0.00359871 0)
(-0.00333799 0.00545527 0)
(-0.00547948 0.00730999 0)
(-0.00808077 0.00906816 0)
(-0.0110967 0.0106616 0)
(-0.0144729 0.0120433 0)
(-0.0181493 0.0131829 0)
(-0.0220611 0.0140627 0)
(-0.0261414 0.0146747 0)
(-0.0303217 0.0150184 0)
(-0.0345343 0.0150988 0)
(-0.0387128 0.0149252 0)
(-0.0427934 0.0145103 0)
(-0.0467153 0.0138691 0)
(-0.0504219 0.0130182 0)
(-0.0538608 0.0119759 0)
(-0.0569843 0.0107613 0)
(-0.0597499 0.00939437 0)
(-0.0621201 0.00789585 0)
(-0.0640631 0.00628696 0)
(-0.0655528 0.00458952 0)
(-0.0665688 0.00282586 0)
(-0.0670967 0.00101888 0)
(-0.0671281 -0.000807968 0)
(-0.0666611 -0.00263072 0)
(-0.0656999 -0.00442488 0)
(-0.0642554 -0.00616553 0)
(-0.0623448 -0.00782744 0)
(-0.0599923 -0.00938518 0)
(-0.0572284 -0.0108134 0)
(-0.0540902 -0.0120871 0)
(-0.0506211 -0.0131819 0)
(-0.0468708 -0.0140747 0)
(-0.0428945 -0.0147438 0)
(-0.0387526 -0.01517 0)
(-0.0345101 -0.0153367 0)
(-0.0302353 -0.0152314 0)
(-0.0259994 -0.0148459 0)
(-0.0218743 -0.014178 0)
(-0.0179317 -0.0132325 0)
(-0.0142414 -0.0120229 0)
(-0.0108689 -0.0105736 0)
(-0.00787386 -0.00892233 0)
(-0.00530802 -0.00712345 0)
(-0.0032122 -0.00525229 0)
(-0.00161258 -0.00340948 0)
(-0.000541146 -0.0017261 0)
(-7.16e-05 -0.000380264 0)
(-9.82323e-05 0.00076215 0)
(-0.000704362 0.00280287 0)
(-0.00204779 0.00511431 0)
(-0.0040045 0.00751689 0)
(-0.00651294 0.00987729 0)
(-0.00952781 0.0120933 0)
(-0.0129926 0.0140893 0)
(-0.0168432 0.0158123 0)
(-0.021011 0.017227 0)
(-0.0254242 0.0183126 0)
(-0.0300088 0.0190595 0)
(-0.0346904 0.0194668 0)
(-0.0393952 0.0195409 0)
(-0.0440516 0.0192932 0)
(-0.0485903 0.0187393 0)
(-0.0529461 0.0178978 0)
(-0.0570578 0.0167899 0)
(-0.0608687 0.0154384 0)
(-0.0643276 0.0138676 0)
(-0.0673884 0.0121028 0)
(-0.0700109 0.0101703 0)
(-0.0721608 0.00809716 0)
(-0.0738098 0.00591117 0)
(-0.0749358 0.00364082 0)
(-0.0755231 0.00131528 0)
(-0.0755629 -0.00103556 0)
(-0.0750526 -0.00338117 0)
(-0.0739969 -0.00569036 0)
(-0.0724071 -0.00793143 0)
(-0.0703018 -0.0100723 0)
(-0.0677067 -0.0120806 0)
(-0.0646545 -0.0139242 0)
(-0.061185 -0.0155713 0)
(-0.057345 -0.0169911 0)
(-0.0531877 -0.0181543 0)
(-0.0487728 -0.0190335 0)
(-0.0441655 -0.0196045 0)
(-0.0394359 -0.0198465 0)
(-0.0346581 -0.0197437 0)
(-0.0299093 -0.019286 0)
(-0.0252681 -0.0184705 0)
(-0.0208131 -0.0173033 0)
(-0.0166214 -0.0158006 0)
(-0.0127665 -0.0139916 0)
(-0.009317 -0.0119206 0)
(-0.00633462 -0.00965034 0)
(-0.00387142 -0.00726552 0)
(-0.00196611 -0.00487647 0)
(-0.000670065 -0.00262269 0)
(-9.16417e-05 -0.000686775 0)
(-0.000117404 0.00115226 0)
(-0.00083002 0.00391426 0)
(-0.00239498 0.00689437 0)
(-0.00465413 0.00991307 0)
(-0.00752603 0.0128335 0)
(-0.010952 0.0155484 0)
(-0.0148633 0.0179771 0)
(-0.0191854 0.020062 0)
(-0.0238406 0.0217642 0)
(-0.0287491 0.0230608 0)
(-0.0338301 0.0239413 0)
(-0.0390029 0.0244052 0)
(-0.0441881 0.0244603 0)
(-0.0493087 0.0241207 0)
(-0.0542911 0.0234053 0)
(-0.0590653 0.0223368 0)
(-0.0635664 0.020941 0)
(-0.0677343 0.0192459 0)
(-0.0715143 0.0172812 0)
(-0.0748578 0.015078 0)
(-0.0777219 0.0126685 0)
(-0.0800701 0.010086 0)
(-0.0818725 0.00736459 0)
(-0.0831055 0.00453933 0)
(-0.0837523 0.00164608 0)
(-0.0838034 -0.00127844 0)
(-0.0832558 -0.00419672 0)
(-0.0821141 -0.00707044 0)
(-0.0803903 -0.00986067 0)
(-0.0781035 -0.012528 0)
(-0.0752807 -0.0150327 0)
(-0.0719564 -0.0173353 0)
(-0.0681725 -0.0193969 0)
(-0.0639785 -0.0211795 0)
(-0.0594307 -0.0226472 0)
(-0.0545926 -0.0237664 0)
(-0.0495336 -0.0245073 0)
(-0.0443286 -0.0248445 0)
(-0.0390572 -0.0247584 0)
(-0.0338024 -0.0242364 0)
(-0.0286493 -0.0232746 0)
(-0.0236839 -0.0218795 0)
(-0.0189909 -0.0200697 0)
(-0.0146527 -0.0178781 0)
(-0.0107473 -0.0153547 0)
(-0.00734762 -0.0125691 0)
(-0.0045178 -0.00961376 0)
(-0.00230962 -0.00660646 0)
(-0.000793474 -0.00369283 0)
(-0.000110196 -0.00105791 0)
(-0.000135421 0.00160529 0)
(-0.000950722 0.00519597 0)
(-0.00273187 0.00893342 0)
(-0.00528871 0.0126394 0)
(-0.00852058 0.0161753 0)
(-0.0123552 0.0194311 0)
(-0.0167114 0.0223228 0)
(-0.0215034 0.0247897 0)
(-0.0266439 0.026791 0)
(-0.0320448 0.0283024 0)
(-0.0376179 0.0293135 0)
(-0.0432761 0.0298251 0)
(-0.0489344 0.0298471 0)
(-0.0545108 0.0293965 0)
(-0.0599271 0.0284962 0)
(-0.0651096 0.0271735 0)
(-0.0699897 0.0254591 0)
(-0.0745041 0.0233865 0)
(-0.0785957 0.0209913 0)
(-0.0822132 0.0183105 0)
(-0.0853117 0.0153828 0)
(-0.0878529 0.0122479 0)
(-0.0898054 0.00894662 0)
(-0.0911443 0.00552079 0)
(-0.0918519 0.00201327 0)
(-0.0919178 -0.00153206 0)
(-0.0913388 -0.00507036 0)
(-0.0901192 -0.0085559 0)
(-0.0882709 -0.0119421 0)
(-0.0858138 -0.0151819 0)
(-0.0827756 -0.0182278 0)
(-0.079192 -0.0210325 0)
(-0.0751067 -0.0235494 0)
(-0.0705711 -0.0257331 0)
(-0.0656445 -0.0275404 0)
(-0.0603935 -0.028931 0)
(-0.0548913 -0.0298688 0)
(-0.0492175 -0.0303232 0)
(-0.0434567 -0.0302702 0)
(-0.037698 -0.0296942 0)
(-0.0320332 -0.0285894 0)
(-0.0265556 -0.026962 0)
(-0.0213585 -0.0248319 0)
(-0.0165336 -0.0222353 0)
(-0.0121695 -0.0192262 0)
(-0.00835078 -0.01588 0)
(-0.00515438 -0.0122953 0)
(-0.00264543 -0.0085959 0)
(-0.000912735 -0.00493216 0)
(-0.000127678 -0.00149084 0)
(-0.000152646 0.00211887 0)
(-0.00106785 0.00664359 0)
(-0.00306115 0.0112269 0)
(-0.00591204 0.0156921 0)
(-0.00950132 0.0199002 0)
(-0.0137432 0.0237399 0)
(-0.0185437 0.0271254 0)
(-0.0238054 0.0299945 0)
(-0.0294309 0.0323058 0)
(-0.0353232 0.034035 0)
(-0.0413866 0.0351728 0)
(-0.0475273 0.0357219 0)
(-0.0536547 0.0356953 0)
(-0.0596818 0.0351136 0)
(-0.0655261 0.0340043 0)
(-0.0711102 0.0323996 0)
(-0.0763623 0.0303358 0)
(-0.0812165 0.0278522 0)
(-0.0856132 0.0249904 0)
(-0.089499 0.0217941 0)
(-0.0928274 0.0183084 0)
(-0.0955586 0.0145798 0)
(-0.0976598 0.0106561 0)
(-0.099105 0.006586 0)
(-0.0998757 0.00241973 0)
(-0.0999607 -0.00179152 0)
(-0.0993562 -0.00599536 0)
(-0.0980661 -0.0101383 0)
(-0.0961024 -0.014166 0)
(-0.093485 -0.0180233 0)
(-0.0902419 -0.0216546 0)
(-0.0864097 -0.0250044 0)
(-0.0820332 -0.0280179 0)
(-0.0771658 -0.0306418 0)
(-0.0718688 -0.032825 0)
(-0.0662116 -0.0345199 0)
(-0.0602712 -0.0356836 0)
(-0.0541314 -0.0362794 0)
(-0.047882 -0.0362782 0)
(-0.041618 -0.0356603 0)
(-0.0354381 -0.0344174 0)
(-0.0294438 -0.0325544 0)
(-0.0237373 -0.0300917 0)
(-0.0184202 -0.0270672 0)
(-0.0135925 -0.0235382 0)
(-0.00935112 -0.0195846 0)
(-0.00578642 -0.0153098 0)
(-0.00297698 -0.0108427 0)
(-0.00102953 -0.00633773 0)
(-0.000144497 -0.00198365 0)
(-0.000169398 0.00269142 0)
(-0.00118283 0.00825412 0)
(-0.00338585 0.0137716 0)
(-0.00652877 0.0190687 0)
(-0.0104744 0.0240069 0)
(-0.0151235 0.0284743 0)
(-0.020369 0.032385 0)
(-0.0261014 0.0356769 0)
(-0.032213 0.0383089 0)
(-0.0385975 0.0402583 0)
(-0.0451512 0.0415179 0)
(-0.0517736 0.0420935 0)
(-0.0583682 0.0420017 0)
(-0.0648431 0.0412681 0)
(-0.0711116 0.0399248 0)
(-0.077093 0.0380099 0)
(-0.0827125 0.0355656 0)
(-0.0879017 0.0326376 0)
(-0.092599 0.0292739 0)
(-0.0967494 0.0255249 0)
(-0.100305 0.0214426 0)
(-0.103225 0.0170804 0)
(-0.105474 0.0124931 0)
(-0.107027 0.00773689 0)
(-0.107864 0.00286908 0)
(-0.107973 -0.00205153 0)
(-0.107349 -0.00696489 0)
(-0.105997 -0.0118097 0)
(-0.103926 -0.0165233 0)
(-0.101158 -0.0210425 0)
(-0.0977192 -0.0253031 0)
(-0.0936481 -0.0292413 0)
(-0.0889896 -0.0327935 0)
(-0.0837983 -0.0358978 0)
(-0.0781374 -0.0384948 0)
(-0.072079 -0.0405288 0)
(-0.0657032 -0.0419493 0)
(-0.0590979 -0.0427127 0)
(-0.0523581 -0.0427839 0)
(-0.045585 -0.0421383 0)
(-0.0388846 -0.0407638 0)
(-0.0323666 -0.0386631 0)
(-0.0261428 -0.0358557 0)
(-0.0203258 -0.0323801 0)
(-0.0150273 -0.0282961 0)
(-0.0103574 -0.0236865 0)
(-0.00642033 -0.018659 0)
(-0.00330828 -0.0133469 0)
(-0.00114561 -0.00790846 0)
(-0.000161031 -0.00253539 0)
(-0.000185955 0.00332215 0)
(-0.00129698 0.0100261 0)
(-0.00370904 0.0165663 0)
(-0.00714384 0.0227687 0)
(-0.0114464 0.0284954 0)
(-0.0165042 0.0336354 0)
(-0.0221967 0.0381034 0)
(-0.0284023 0.0418386 0)
(-0.0350022 0.044802 0)
(-0.0418808 0.0469734 0)
(-0.048926 0.0483491 0)
(-0.0560303 0.0489391 0)
(-0.0630913 0.0487649 0)
(-0.0700122 0.0478572 0)
(-0.0767024 0.0462544 0)
(-0.0830777 0.0440006 0)
(-0.0890609 0.0411447 0)
(-0.0945814 0.0377389 0)
(-0.0995759 0.0338383 0)
(-0.103988 0.0295002 0)
(-0.107769 0.0247837 0)
(-0.110876 0.0197493 0)
(-0.113275 0.014459 0)
(-0.114938 0.00897614 0)
(-0.115845 0.00336559 0)
(-0.115983 -0.00230636 0)
(-0.115347 -0.00797188 0)
(-0.113939 -0.0135617 0)
(-0.111771 -0.019005 0)
(-0.108861 -0.02423 0)
(-0.105237 -0.0291641 0)
(-0.100936 -0.0337342 0)
(-0.0960045 -0.0378679 0)
(-0.090497 -0.0414941 0)
(-0.0844784 -0.0445445 0)
(-0.0780228 -0.0469544 0)
(-0.0712134 -0.048665 0)
(-0.0641421 -0.0496247 0)
(-0.0569091 -0.0497913 0)
(-0.0496216 -0.0491341 0)
(-0.0423934 -0.0476361 0)
(-0.0353428 -0.0452965 0)
(-0.028592 -0.0421327 0)
(-0.0222649 -0.0381828 0)
(-0.016486 -0.0335075 0)
(-0.0113792 -0.028192 0)
(-0.00706294 -0.0223474 0)
(-0.00364342 -0.0161109 0)
(-0.00126273 -0.00964531 0)
(-0.000177621 -0.0031461 0)
(-0.000202554 0.00401094 0)
(-0.00141155 0.0119595 0)
(-0.00403362 0.0196114 0)
(-0.00776203 0.0267931 0)
(-0.0124241 0.0333678 0)
(-0.0178936 0.0392256 0)
(-0.0240365 0.0442832 0)
(-0.0307188 0.0484825 0)
(-0.0378102 0.0517875 0)
(-0.0451853 0.0541822 0)
(-0.0527235 0.0556676 0)
(-0.0603103 0.056259 0)
(-0.0678371 0.0559838 0)
(-0.0752024 0.0548793 0)
(-0.0823117 0.0529905 0)
(-0.0890778 0.0503686 0)
(-0.0954209 0.0470695 0)
(-0.101269 0.0431527 0)
(-0.106557 0.0386807 0)
(-0.111228 0.033718 0)
(-0.115232 0.0283307 0)
(-0.118527 0.0225867 0)
(-0.121076 0.0165552 0)
(-0.122851 0.0103069 0)
(-0.123832 0.00391399 0)
(-0.124005 -0.00254974 0)
(-0.123363 -0.00900874 0)
(-0.121909 -0.0153857 0)
(-0.119653 -0.0216016 0)
(-0.116612 -0.0275761 0)
(-0.112813 -0.0332275 0)
(-0.108293 -0.0384737 0)
(-0.103098 -0.0432328 0)
(-0.0972827 -0.047424 0)
(-0.090913 -0.0509691 0)
(-0.0840648 -0.053794 0)
(-0.0768239 -0.0558302 0)
(-0.0692861 -0.0570173 0)
(-0.0615564 -0.0573047 0)
(-0.0537487 -0.0566543 0)
(-0.0459843 -0.0550429 0)
(-0.0383911 -0.0524647 0)
(-0.0311018 -0.0489337 0)
(-0.0242526 -0.0444863 0)
(-0.0179812 -0.0391829 0)
(-0.0124263 -0.0331102 0)
(-0.00772109 -0.0263822 0)
(-0.00398647 -0.0191401 0)
(-0.00138253 -0.0115512 0)
(-0.000194575 -0.00381669 0)
(-0.000219397 0.00475831 0)
(-0.00152761 0.0140557 0)
(-0.00436229 0.0229092 0)
(-0.00838783 0.0311451 0)
(-0.0134136 0.0386276 0)
(-0.0192994 0.045249 0)
(-0.0258975 0.0509287 0)
(-0.0330607 0.0556123 0)
(-0.0406473 0.0592686 0)
(-0.0485215 0.0618869 0)
(-0.0565543 0.0634743 0)
(-0.0646236 0.0640529 0)
(-0.0726151 0.0636572 0)
(-0.0804223 0.062332 0)
(-0.0879471 0.0601299 0)
(-0.0950996 0.05711 0)
(-0.101798 0.0533361 0)
(-0.107969 0.0488753 0)
(-0.113546 0.0437978 0)
(-0.118473 0.0381755 0)
(-0.122697 0.0320821 0)
(-0.126177 0.0255926 0)
(-0.128877 0.0187835 0)
(-0.130767 0.0117326 0)
(-0.131826 0.00451936 0)
(-0.132039 -0.00277494 0)
(-0.131401 -0.0100672 0)
(-0.12991 -0.0172721 0)
(-0.127576 -0.0243027 0)
(-0.124416 -0.0310696 0)
(-0.120454 -0.0374824 0)
(-0.115728 -0.0434493 0)
(-0.11028 -0.0488786 0)
(-0.104167 -0.0536792 0)
(-0.0974547 -0.0577625 0)
(-0.09022 -0.0610437 0)
(-0.0825511 -0.0634439 0)
(-0.0745473 -0.0648924 0)
(-0.0663185 -0.0653289 0)
(-0.057985 -0.0647064 0)
(-0.049676 -0.062994 0)
(-0.0415292 -0.0601793 0)
(-0.0336886 -0.0562715 0)
(-0.0263031 -0.0513037 0)
(-0.019525 -0.0453351 0)
(-0.013508 -0.0384529 0)
(-0.00840148 -0.0307734 0)
(-0.00434132 -0.0224419 0)
(-0.00150656 -0.0136311 0)
(-0.000212172 -0.00454894 0)
(-0.000236659 0.00556529 0)
(-0.00164615 0.0163174 0)
(-0.00469745 0.0264634 0)
(-0.00902534 0.0358293 0)
(-0.0144206 0.0442801 0)
(-0.0207287 0.0517108 0)
(-0.0277877 0.0580447 0)
(-0.0354367 0.0632323 0)
(-0.0435222 0.0672485 0)
(-0.051898 0.0700894 0)
(-0.0604259 0.0717698 0)
(-0.0689767 0.0723198 0)
(-0.07743 0.0717826 0)
(-0.0856749 0.0702115 0)
(-0.0936097 0.0676679 0)
(-0.101142 0.0642196 0)
(-0.108189 0.0599388 0)
(-0.114676 0.0549012 0)
(-0.120536 0.0491847 0)
(-0.125712 0.042869 0)
(-0.130153 0.0360354 0)
(-0.133816 0.0287661 0)
(-0.136665 0.0211448 0)
(-0.138672 0.0132562 0)
(-0.139813 0.0051869 0)
(-0.140074 -0.00297467 0)
(-0.139447 -0.011138 0)
(-0.13793 -0.0192103 0)
(-0.135531 -0.0270961 0)
(-0.132265 -0.0346978 0)
(-0.128155 -0.0419156 0)
(-0.123236 -0.0486481 0)
(-0.11755 -0.0547933 0)
(-0.111153 -0.0602493 0)
(-0.104109 -0.0649162 0)
(-0.0964967 -0.0686977 0)
(-0.0884058 -0.0715031 0)
(-0.0799386 -0.0732502 0)
(-0.0712098 -0.0738673 0)
(-0.0623459 -0.0732972 0)
(-0.0534844 -0.071499 0)
(-0.0447729 -0.0684525 0)
(-0.0363674 -0.06416 0)
(-0.0284303 -0.0586501 0)
(-0.021129 -0.0519794 0)
(-0.0146336 -0.0442346 0)
(-0.00911046 -0.035534 0)
(-0.00471167 -0.0260268 0)
(-0.0016363 -0.0158918 0)
(-0.000230666 -0.00534543 0)
(-0.000254492 0.00643343 0)
(-0.00176804 0.0187484 0)
(-0.0050413 0.0302796 0)
(-0.00967823 0.0408519 0)
(-0.0154503 0.0503319 0)
(-0.0221879 0.0586174 0)
(-0.029714 0.0656368 0)
(-0.0378541 0.0713469 0)
(-0.0464419 0.07573 0)
(-0.0553205 0.0787908 0)
(-0.0643428 0.0805532 0)
(-0.073372 0.0810571 0)
(-0.082282 0.0803555 0)
(-0.0909575 0.0785118 0)
(-0.0992939 0.0755973 0)
(-0.107197 0.0716894 0)
(-0.114582 0.0668696 0)
(-0.121374 0.0612224 0)
(-0.127508 0.0548341 0)
(-0.132925 0.0477926 0)
(-0.137576 0.0401864 0)
(-0.141418 0.0321051 0)
(-0.144415 0.0236392 0)
(-0.146538 0.0148803 0)
(-0.147766 0.00592179 0)
(-0.14808 -0.00314124 0)
(-0.147474 -0.0122112 0)
(-0.145943 -0.0211878 0)
(-0.143493 -0.0299679 0)
(-0.140137 -0.0384453 0)
(-0.135897 -0.0465112 0)
(-0.130803 -0.0540542 0)
(-0.124897 -0.0609617 0)
(-0.118232 -0.0671205 0)
(-0.110872 -0.0724186 0)
(-0.102895 -0.076747 0)
(-0.0943913 -0.0800021 0)
(-0.0854669 -0.0820885 0)
(-0.07624 -0.0829219 0)
(-0.0668434 -0.0824321 0)
(-0.0574229 -0.0805673 0)
(-0.0481362 -0.0772967 0)
(-0.0391518 -0.0726144 0)
(-0.0306466 -0.0665424 0)
(-0.0228039 -0.0591333 0)
(-0.0158116 -0.0504724 0)
(-0.00985408 -0.0406793 0)
(-0.00510101 -0.0299073 0)
(-0.0017731 -0.0183419 0)
(-0.000250297 -0.00620944 0)
(-0.000273032 0.00736467 0)
(-0.00189406 0.0213534 0)
(-0.00539579 0.0343643 0)
(-0.0103498 0.0462207 0)
(-0.0165071 0.0567907 0)
(-0.0236823 0.0659761 0)
(-0.0316825 0.073711 0)
(-0.0403185 0.0799602 0)
(-0.0494111 0.084715 0)
(-0.0587924 0.0879905 0)
(-0.0683059 0.0898214 0)
(-0.0778076 0.0902591 0)
(-0.0871658 0.0893682 0)
(-0.0962612 0.0872234 0)
(-0.104987 0.0839073 0)
(-0.113246 0.0795078 0)
(-0.120955 0.0741166 0)
(-0.12804 0.0678275 0)
(-0.134433 0.0607357 0)
(-0.14008 0.0529372 0)
(-0.144931 0.0445281 0)
(-0.148944 0.0356051 0)
(-0.152084 0.0262653 0)
(-0.154324 0.0166067 0)
(-0.155639 0.00672888 0)
(-0.156014 -0.00326656 0)
(-0.155438 -0.0132755 0)
(-0.153907 -0.0231908 0)
(-0.151422 -0.0329018 0)
(-0.147996 -0.0422941 0)
(-0.143645 -0.0512498 0)
(-0.138399 -0.0596478 0)
(-0.132295 -0.0673644 0)
(-0.125384 -0.0742745 0)
(-0.117728 -0.0802534 0)
(-0.109404 -0.0851782 0)
(-0.100503 -0.088931 0)
(-0.0911322 -0.0914017 0)
(-0.0814132 -0.0924911 0)
(-0.0714848 -0.0921146 0)
(-0.0615011 -0.0902066 0)
(-0.0516302 -0.0867239 0)
(-0.0420536 -0.08165 0)
(-0.0329632 -0.0749984 0)
(-0.0245598 -0.066816 0)
(-0.0170501 -0.0571856 0)
(-0.010638 -0.0462272 0)
(-0.00551268 -0.0340983 0)
(-0.0019183 -0.0209917 0)
(-0.000271289 -0.00714499 0)
(-0.000292403 0.00836137 0)
(-0.00202493 0.0241382 0)
(-0.00576277 0.0387254 0)
(-0.0110432 0.0519446 0)
(-0.0175953 0.0636654 0)
(-0.0252167 0.0737944 0)
(-0.0336979 0.0822732 0)
(-0.042834 0.0890755 0)
(-0.0524325 0.094204 0)
(-0.0623139 0.0976857 0)
(-0.0723126 0.0995685 0)
(-0.0822771 0.099917 0)
(-0.0920706 0.0988091 0)
(-0.10157 0.0963325 0)
(-0.110667 0.0925824 0)
(-0.119264 0.0876583 0)
(-0.127277 0.081663 0)
(-0.134634 0.0747003 0)
(-0.141269 0.0668746 0)
(-0.147128 0.05829 0)
(-0.152165 0.0490503 0)
(-0.156339 0.039259 0)
(-0.159616 0.0290193 0)
(-0.161968 0.0184354 0)
(-0.163374 0.00761241 0)
(-0.163815 -0.00334232 0)
(-0.16328 -0.0143188 0)
(-0.161763 -0.0252034 0)
(-0.159263 -0.0358786 0)
(-0.155788 -0.0462223 0)
(-0.151353 -0.0561078 0)
(-0.145981 -0.0654042 0)
(-0.139708 -0.0739765 0)
(-0.132578 -0.0816875 0)
(-0.124653 -0.0883985 0)
(-0.116007 -0.0939721 0)
(-0.106729 -0.0982746 0)
(-0.0969271 -0.101179 0)
(-0.0867272 -0.102569 0)
(-0.0762725 -0.102345 0)
(-0.0657249 -0.100422 0)
(-0.0552633 -0.0967447 0)
(-0.0450823 -0.0912818 0)
(-0.0353901 -0.0840366 0)
(-0.0264057 -0.0750483 0)
(-0.0183564 -0.0643954 0)
(-0.0114677 -0.0521978 0)
(-0.00594986 -0.0386168 0)
(-0.00207314 -0.023853 0)
(-0.000293863 -0.00815673 0)
(-0.000312728 0.00942624 0)
(-0.00216137 0.0271094 0)
(-0.00614398 0.043372 0)
(-0.0117612 0.0580333 0)
(-0.0187186 0.0709654 0)
(-0.0267953 0.0820804 0)
(-0.035764 0.0913285 0)
(-0.0454033 0.0986949 0)
(-0.0555066 0.104195 0)
(-0.0658826 0.107871 0)
(-0.0763562 0.109785 0)
(-0.0867691 0.110017 0)
(-0.0969793 0.108661 0)
(-0.106861 0.10582 0)
(-0.116305 0.101601 0)
(-0.125214 0.0961186 0)
(-0.133505 0.0894863 0)
(-0.141108 0.081819 0)
(-0.14796 0.0732304 0)
(-0.15401 0.0638332 0)
(-0.159213 0.0537384 0)
(-0.163532 0.0430559 0)
(-0.166935 0.031895 0)
(-0.169395 0.0203648 0)
(-0.17089 0.00857571 0)
(-0.171403 -0.00336017 0)
(-0.17092 -0.0153276 0)
(-0.169434 -0.0272076 0)
(-0.166941 -0.0388762 0)
(-0.163443 -0.0502043 0)
(-0.158953 -0.0610568 0)
(-0.153489 -0.071293 0)
(-0.14708 -0.080767 0)
(-0.139768 -0.0893287 0)
(-0.131608 -0.0968252 0)
(-0.12267 -0.103103 0)
(-0.113044 -0.108011 0)
(-0.102836 -0.111404 0)
(-0.0921727 -0.113146 0)
(-0.081203 -0.113117 0)
(-0.0700958 -0.111216 0)
(-0.0590404 -0.107367 0)
(-0.0482453 -0.101524 0)
(-0.0379354 -0.0936755 0)
(-0.0283497 -0.0838518 0)
(-0.0197376 -0.072125 0)
(-0.0123484 -0.0586134 0)
(-0.00641566 -0.0434819 0)
(-0.00223887 -0.0269393 0)
(-0.000318237 -0.00925 0)
(-0.000334133 0.0105623 0)
(-0.00230408 0.0302745 0)
(-0.00654121 0.0483141 0)
(-0.0125068 0.0644979 0)
(-0.0198806 0.0787008 0)
(-0.0284219 0.0908417 0)
(-0.0378839 0.100881 0)
(-0.0480278 0.108818 0)
(-0.058632 0.114683 0)
(-0.069493 0.118535 0)
(-0.0804263 0.120455 0)
(-0.0912669 0.12054 0)
(-0.101869 0.118901 0)
(-0.112104 0.115658 0)
(-0.121863 0.110935 0)
(-0.13105 0.104859 0)
(-0.139585 0.0975567 0)
(-0.147399 0.0891547 0)
(-0.154436 0.0797765 0)
(-0.160647 0.0695431 0)
(-0.165992 0.0585725 0)
(-0.170435 0.0469808 0)
(-0.173949 0.0348823 0)
(-0.176508 0.0223909 0)
(-0.178091 0.00962073 0)
(-0.17868 -0.00331193 0)
(-0.178261 -0.0162878 0)
(-0.176823 -0.0291832 0)
(-0.17436 -0.0418691 0)
(-0.170871 -0.0542097 0)
(-0.166361 -0.0660624 0)
(-0.160844 -0.0772774 0)
(-0.154341 -0.0876975 0)
(-0.146889 -0.0971597 0)
(-0.138537 -0.105496 0)
(-0.129351 -0.112536 0)
(-0.119414 -0.118109 0)
(-0.108832 -0.122051 0)
(-0.0977323 -0.124202 0)
(-0.0862665 -0.124422 0)
(-0.0746102 -0.122585 0)
(-0.062963 -0.118596 0)
(-0.0515474 -0.112387 0)
(-0.040606 -0.103933 0)
(-0.030399 -0.0932485 0)
(-0.0212002 -0.0803984 0)
(-0.0132849 -0.0654979 0)
(-0.00691315 -0.0487145 0)
(-0.00241676 -0.0302656 0)
(-0.000344638 -0.0104307 0)
(-0.000356754 0.0117732 0)
(-0.00245387 0.0336418 0)
(-0.00695636 0.0535628 0)
(-0.0132828 0.0713501 0)
(-0.0210851 0.086882 0)
(-0.0301001 0.100086 0)
(-0.0400602 0.110935 0)
(-0.0507077 0.119443 0)
(-0.0618051 0.12566 0)
(-0.0731365 0.129665 0)
(-0.0845082 0.131559 0)
(-0.0957487 0.13146 0)
(-0.106709 0.129498 0)
(-0.117259 0.125813 0)
(-0.127292 0.120547 0)
(-0.136713 0.11384 0)
(-0.145448 0.105836 0)
(-0.153432 0.0966705 0)
(-0.160613 0.0864784 0)
(-0.166948 0.0753887 0)
(-0.172401 0.0635265 0)
(-0.176943 0.0510131 0)
(-0.180547 0.0379673 0)
(-0.183191 0.0245064 0)
(-0.184856 0.0107476 0)
(-0.185525 -0.00318991 0)
(-0.185181 -0.0171841 0)
(-0.183812 -0.0311079 0)
(-0.181407 -0.0448279 0)
(-0.177961 -0.0582032 0)
(-0.173473 -0.0710844 0)
(-0.167948 -0.0833129 0)
(-0.161403 -0.094721 0)
(-0.153864 -0.105132 0)
(-0.145374 -0.114364 0)
(-0.13599 -0.122226 0)
(-0.125791 -0.12853 0)
(-0.114879 -0.133085 0)
(-0.103379 -0.135712 0)
(-0.0914456 -0.13624 0)
(-0.0792588 -0.13452 0)
(-0.0670283 -0.13043 0)
(-0.0549906 -0.123881 0)
(-0.0434068 -0.114825 0)
(-0.0325599 -0.10326 0)
(-0.0227503 -0.0892409 0)
(-0.0142823 -0.0728769 0)
(-0.00744545 -0.0543373 0)
(-0.0026081 -0.0338483 0)
(-0.000373306 -0.0117056 0)
(-0.000380753 0.0130626 0)
(-0.00261164 0.0372208 0)
(-0.00739164 0.0591304 0)
(-0.0140929 0.0786025 0)
(-0.0223361 0.0955197 0)
(-0.0318338 0.109819 0)
(-0.0422952 0.121489 0)
(-0.0534421 0.130563 0)
(-0.0650206 0.137112 0)
(-0.0768018 0.141239 0)
(-0.0885828 0.143067 0)
(-0.100187 0.142741 0)
(-0.111461 0.140412 0)
(-0.122279 0.136241 0)
(-0.132533 0.130389 0)
(-0.142135 0.123015 0)
(-0.151014 0.114275 0)
(-0.159114 0.10432 0)
(-0.166388 0.0932925 0)
(-0.172801 0.0813312 0)
(-0.178322 0.0685671 0)
(-0.182927 0.0551263 0)
(-0.186595 0.0411308 0)
(-0.189308 0.0267005 0)
(-0.191047 0.0119543 0)
(-0.191796 -0.00298729 0)
(-0.191538 -0.0180006 0)
(-0.190259 -0.0329568 0)
(-0.187943 -0.0477196 0)
(-0.184579 -0.0621442 0)
(-0.180159 -0.0760755 0)
(-0.174682 -0.0893471 0)
(-0.168154 -0.101781 0)
(-0.160592 -0.113189 0)
(-0.152028 -0.12337 0)
(-0.142512 -0.132118 0)