/*--------------------------------*- C++ -*----------------------------------*\
  =========                 |
  \\      /  F ield         | OpenFOAM: The Open Source CFD Toolbox
   \\    /   O peration     | Website:  https://openfoam.org
    \\  /    A nd           | Version:  7
     \\/     M anipulation  |
\*---------------------------------------------------------------------------*/
FoamFile
{
    version     2.0;
    format      ascii;
    class       surfaceScalarField;
    location    "0.0242";
    object      phi;
}
// * * * * * * * * * * * * * * * * * * * * * * * * * * * * * * * * * * * * * //

dimensions      [0 3 -1 0 0 0 0];

internalField   nonuniform List<scalar> 
4900
(
-5.55657e-06
5.55657e-06
-1.01623e-05
4.60578e-06
-1.29486e-05
2.78624e-06
-1.46657e-05
1.71712e-06
-1.57637e-05
1.09796e-06
-1.64968e-05
7.33087e-07
-1.70106e-05
5.13829e-07
-1.73873e-05
3.76687e-07
-1.76736e-05
2.86328e-07
-1.78973e-05
2.23701e-07
-1.80757e-05
1.78364e-07
-1.822e-05
1.44346e-07
-1.83381e-05
1.18058e-07
-1.84353e-05
9.72387e-08
-1.85157e-05
8.03969e-08
-1.85822e-05
6.65128e-08
-1.86371e-05
5.4864e-08
-1.8682e-05
4.49234e-08
-1.87183e-05
3.62965e-08
-1.8747e-05
2.86793e-08
-1.87688e-05
2.1832e-08
-1.87844e-05
1.55594e-08
-1.87941e-05
9.69839e-09
-1.87982e-05
4.10761e-09
-1.87968e-05
-1.34046e-09
-1.87901e-05
-6.76342e-09
-1.87778e-05
-1.22779e-08
-1.87598e-05
-1.80016e-08
-1.87357e-05
-2.406e-08
-1.87051e-05
-3.05923e-08
-1.86674e-05
-3.77591e-08
-1.86216e-05
-4.57519e-08
-1.85668e-05
-5.48068e-08
-1.85016e-05
-6.52232e-08
-1.84242e-05
-7.73911e-08
-1.83324e-05
-9.1833e-08
-1.82231e-05
-1.09269e-07
-1.80924e-05
-1.30719e-07
-1.79347e-05
-1.57686e-07
-1.77422e-05
-1.92461e-07
-1.75036e-05
-2.38697e-07
-1.72011e-05
-3.02474e-07
-1.68067e-05
-3.94353e-07
-1.62734e-05
-5.33333e-07
-1.55196e-05
-7.53822e-07
-1.44042e-05
-1.11538e-06
-1.2688e-05
-1.71622e-06
-9.94986e-06
-2.73811e-06
-5.45375e-06
-4.49611e-06
-5.45375e-06
-1.19201e-08
5.56849e-06
-2.12759e-06
6.72145e-06
-4.84788e-06
5.50654e-06
-7.25441e-06
4.12364e-06
-9.17845e-06
3.02201e-06
-1.06732e-05
2.22787e-06
-1.18325e-05
1.67315e-06
-1.27399e-05
1.28403e-06
-1.34591e-05
1.00554e-06
-1.40366e-05
8.01168e-07
-1.45055e-05
6.47334e-07
-1.48899e-05
5.28744e-07
-1.52072e-05
4.35319e-07
-1.54702e-05
3.60259e-07
-1.56887e-05
2.98863e-07
-1.587e-05
2.47796e-07
-1.60197e-05
2.04633e-07
-1.61424e-05
1.67571e-07
-1.62413e-05
1.35235e-07
-1.63192e-05
1.06555e-07
-1.6378e-05
8.06742e-08
-1.64194e-05
5.6891e-08
-1.64443e-05
3.46132e-08
-1.64535e-05
1.33248e-08
-1.64474e-05
-7.43827e-09
-1.64261e-05
-2.8112e-08
-1.63892e-05
-4.91202e-08
-1.63363e-05
-7.08937e-08
-1.62665e-05
-9.38887e-08
-1.61785e-05
-1.18608e-07
-1.60706e-05
-1.45624e-07
-1.59407e-05
-1.75617e-07
-1.57861e-05
-2.09412e-07
-1.56033e-05
-2.48041e-07
-1.53879e-05
-2.92831e-07
-1.51342e-05
-3.45523e-07
-1.4835e-05
-4.0846e-07
-1.44809e-05
-4.84868e-07
-1.40592e-05
-5.79294e-07
-1.35534e-05
-6.98307e-07
-1.29405e-05
-8.51617e-07
-1.21891e-05
-1.05386e-06
-1.12561e-05
-1.32736e-06
-1.00833e-05
-1.70617e-06
-8.59651e-06
-2.24057e-06
-6.71591e-06
-2.99599e-06
-4.40235e-06
-4.02978e-06
-1.82506e-06
-5.31539e-06
1.21715e-07
-6.44289e-06
-5.33203e-06
1.03461e-06
4.53388e-06
5.56823e-07
7.19924e-06
-9.68582e-07
7.03194e-06
-2.84443e-06
5.9995e-06
-4.67757e-06
4.85514e-06
-6.30821e-06
3.85851e-06
-7.69773e-06
3.06266e-06
-8.85995e-06
2.44625e-06
-9.82595e-06
1.97155e-06
-1.06286e-05
1.60383e-06
-1.1297e-05
1.31574e-06
-1.18552e-05
1.08689e-06
-1.23223e-05
9.02462e-07
-1.27137e-05
7.51655e-07
-1.30414e-05
6.26572e-07
-1.3315e-05
5.21359e-07
-1.3542e-05
4.31612e-07
-1.37284e-05
3.53963e-07
-1.38789e-05
2.85788e-07
-1.39974e-05
2.25002e-07
-1.40866e-05
1.69916e-07
-1.41488e-05
1.19124e-07
-1.41856e-05
7.14313e-08
-1.41981e-05
2.57867e-08
-1.41868e-05
-1.87593e-08
-1.41518e-05
-6.30989e-08
-1.40928e-05
-1.08099e-07
-1.40091e-05
-1.54638e-07
-1.38993e-05
-2.03637e-07
-1.37618e-05
-2.56101e-07
-1.35943e-05
-3.13165e-07
-1.33938e-05
-3.76149e-07
-1.31565e-05
-4.46635e-07
-1.2878e-05
-5.26566e-07
-1.25525e-05
-6.18379e-07
-1.21728e-05
-7.25196e-07
-1.17302e-05
-8.5109e-07
-1.12136e-05
-1.00146e-06
-1.06093e-05
-1.18355e-06
-9.90042e-06
-1.40721e-06
-9.06615e-06
-1.68589e-06
-8.08215e-06
-2.03785e-06
-6.92224e-06
-2.48727e-06
-5.56418e-06
-3.06423e-06
-4.00443e-06
-3.80031e-06
-2.28987e-06
-4.71055e-06
-5.78433e-07
-5.74122e-06
7.61521e-07
-6.65535e-06
1.08532e-06
-6.76669e-06
-4.24671e-06
9.10443e-07
3.62343e-06
1.2451e-06
6.86458e-06
6.8029e-07
7.59675e-06
-4.58647e-07
7.13843e-06
-1.84358e-06
6.24007e-06
-3.25725e-06
5.27219e-06
-4.58371e-06
4.38912e-06
-5.77418e-06
3.63672e-06
-6.81709e-06
3.01445e-06
-7.71873e-06
2.50547e-06
-8.4926e-06
2.08961e-06
-9.15401e-06
1.7483e-06
-9.71763e-06
1.46609e-06
-1.01965e-05
1.23056e-06
-1.06019e-05
1.03197e-06
-1.09432e-05
8.62675e-07
-1.12283e-05
7.1667e-07
-1.14635e-05
5.89191e-07
-1.16542e-05
4.7642e-07
-1.18044e-05
3.7525e-07
-1.19176e-05
2.83108e-07
-1.19963e-05
1.97826e-07
-1.20424e-05
1.17528e-07
-1.20572e-05
4.0555e-08
-1.20413e-05
-3.46037e-08
-1.19951e-05
-1.09369e-07
-1.1918e-05
-1.8512e-07
-1.18094e-05
-2.63245e-07
-1.16679e-05
-3.45187e-07
-1.14915e-05
-4.32502e-07
-1.12777e-05
-5.26914e-07
-1.10235e-05
-6.30399e-07
-1.07248e-05
-7.45269e-07
-1.03771e-05
-8.74294e-07
-9.97464e-06
-1.02086e-06
-9.51069e-06
-1.18915e-06
-8.97737e-06
-1.38441e-06
-8.36553e-06
-1.61329e-06
-7.6649e-06
-1.88418e-06
-6.86449e-06
-2.20763e-06
-5.95373e-06
-2.59665e-06
-4.92504e-06
-3.06653e-06
-3.77894e-06
-3.63338e-06
-2.53366e-06
-4.30951e-06
-1.24204e-06
-5.09194e-06
-1.65663e-08
-5.93601e-06
9.44174e-07
-6.70196e-06
1.34753e-06
-7.05871e-06
9.15598e-07
-6.33475e-06
-3.33111e-06
6.77738e-07
2.9457e-06
1.26624e-06
6.27608e-06
1.27255e-06
7.59044e-06
7.36478e-07
7.6745e-06
-1.55613e-07
7.13216e-06
-1.22255e-06
6.33913e-06
-2.33326e-06
5.49983e-06
-3.40764e-06
4.7111e-06
-4.40341e-06
4.01022e-06
-5.30241e-06
3.40448e-06
-6.1005e-06
2.8877e-06
-6.80096e-06
2.44876e-06
-7.41054e-06
2.07566e-06
-7.93723e-06
1.75725e-06
-8.38909e-06
1.48383e-06
-8.77362e-06
1.2472e-06
-9.09751e-06
1.04057e-06
-9.36659e-06
8.58269e-07
-9.58578e-06
6.95613e-07
-9.75919e-06
5.48657e-07
-9.89014e-06
4.1406e-07
-9.98126e-06
2.88943e-07
-1.00345e-05
1.70781e-07
-1.00513e-05
5.73145e-08
-1.00323e-05
-5.35327e-08
-9.978e-06
-1.63715e-07
-9.88799e-06
-2.75128e-07
-9.76157e-06
-3.89664e-07
-9.59748e-06
-5.09272e-07
-9.39397e-06
-6.36018e-07
-9.14873e-06
-7.72151e-07
-8.85894e-06
-9.20187e-07
-8.52122e-06
-1.08299e-06
-8.1316e-06
-1.26391e-06
-7.68561e-06
-1.46685e-06
-7.17827e-06
-1.69649e-06
-6.60431e-06
-1.95838e-06
-5.95849e-06
-2.25911e-06
-5.2363e-06
-2.60637e-06
-4.43513e-06
-3.0088e-06
-3.55639e-06
-3.47539e-06
-2.60906e-06
-4.01386e-06
-1.61532e-06
-4.62712e-06
-6.18896e-07
-5.30594e-06
3.04109e-07
-6.01494e-06
1.03564e-06
-6.66755e-06
1.41874e-06
-7.08506e-06
1.30015e-06
-6.94012e-06
6.66558e-07
-5.70116e-06
-2.66455e-06
4.87841e-07
2.45786e-06
1.10384e-06
5.66008e-06
1.40069e-06
7.29359e-06
1.27666e-06
7.79853e-06
7.98035e-07
7.61078e-06
8.19637e-08
7.0552e-06
-7.60977e-07
6.34277e-06
-1.64689e-06
5.59701e-06
-2.51963e-06
4.88296e-06
-3.3453e-06
4.23014e-06
-4.10569e-06
3.64809e-06
-4.79285e-06
3.13592e-06
-5.40506e-06
2.68787e-06
-5.94418e-06
2.29637e-06
-6.41389e-06
1.95354e-06
-6.81867e-06
1.65199e-06
-7.16315e-06
1.38505e-06
-7.45174e-06
1.14685e-06
-7.68843e-06
9.32304e-07
-7.87672e-06
7.36952e-07
-8.01958e-06
5.56911e-07
-8.11938e-06
3.88752e-07
-8.17801e-06
2.29411e-07
-8.1968e-06
7.61044e-08
-8.17659e-06
-7.37429e-08
-8.11774e-06
-2.22566e-07
-8.02015e-06
-3.72721e-07
-7.88327e-06
-5.26545e-07
-7.70613e-06
-6.86412e-07
-7.48735e-06
-8.54795e-07
-7.22517e-06
-1.03433e-06
-6.91749e-06
-1.22788e-06
-6.56188e-06
-1.4386e-06
-6.15576e-06
-1.67003e-06
-5.69645e-06
-1.92616e-06
-5.18148e-06
-2.21145e-06
-4.60898e-06
-2.53088e-06
-3.97826e-06
-2.88983e-06
-3.29086e-06
-3.29376e-06
-2.55205e-06
-3.74761e-06
-1.77309e-06
-4.25435e-06
-9.74475e-07
-4.81247e-06
-1.90203e-07
-5.41139e-06
5.27404e-07
-6.02354e-06
1.1041e-06
-6.59164e-06
1.44619e-06
-7.00964e-06
1.45912e-06
-7.09799e-06
1.09808e-06
-6.57909e-06
4.71322e-07
-5.0744e-06
-2.19323e-06
3.56568e-07
2.10129e-06
9.22429e-07
5.09422e-06
1.34458e-06
6.87143e-06
1.47408e-06
7.66904e-06
1.30169e-06
7.78317e-06
8.85839e-07
7.47105e-06
3.04126e-07
6.92448e-06
-3.71715e-07
6.27285e-06
-1.08515e-06
5.59639e-06
-1.7958e-06
4.9408e-06
-2.47704e-06
4.32933e-06
-3.11264e-06
3.77151e-06
-3.6937e-06
3.26893e-06
-4.21626e-06
2.81893e-06
-4.67951e-06
2.41678e-06
-5.08446e-06
2.05694e-06
-5.4332e-06
1.73379e-06
-5.72827e-06
1.44192e-06
-5.97231e-06
1.17634e-06
-6.16786e-06
9.32504e-07
-6.31721e-06
7.06262e-07
-6.42232e-06
4.93861e-07
-6.48478e-06
2.91868e-07
-6.50579e-06
9.71135e-08
-6.48616e-06
-9.33661e-08
-6.42635e-06
-2.82384e-07
-6.32641e-06
-4.72659e-07
-6.18609e-06
-6.66863e-07
-6.00482e-06
-8.67678e-07
-5.78178e-06
-1.07784e-06
-5.51593e-06
-1.30018e-06
-5.20611e-06
-1.53769e-06
-4.85117e-06
-1.79354e-06
-4.45012e-06
-2.07108e-06
-4.00237e-06
-2.37391e-06
-3.50812e-06
-2.7057e-06
-2.96885e-06
-3.07016e-06
-2.38806e-06
-3.47062e-06
-1.77234e-06
-3.90948e-06
-1.1328e-06
-4.38715e-06
-4.86902e-07
-4.90024e-06
1.39258e-07
-5.43863e-06
7.08718e-07
-5.98085e-06
1.1723e-06
-6.48713e-06
1.47031e-06
-6.88964e-06
1.54111e-06
-7.08045e-06
1.34281e-06
-6.89968e-06
8.94469e-07
-6.13075e-06
3.38771e-07
-4.5187e-06
-1.85446e-06
2.69935e-07
1.83135e-06
7.67179e-07
4.59698e-06
1.22732e-06
6.41129e-06
1.50046e-06
7.3959e-06
1.53851e-06
7.74513e-06
1.35725e-06
7.65231e-06
1.0025e-06
7.27923e-06
5.27666e-07
6.74769e-06
-1.82843e-08
6.14234e-06
-5.95581e-07
5.5181e-06
-1.17445e-06
4.9082e-06
-1.73392e-06
4.33099e-06
-2.26013e-06
3.79514e-06
-2.74447e-06
3.30327e-06
-3.18212e-06
2.85444e-06
-3.57087e-06
2.44569e-06
-3.91016e-06
2.07309e-06
-4.20053e-06
1.73228e-06
-4.44305e-06
1.41887e-06
-4.63912e-06
1.12857e-06
-4.79016e-06
8.57305e-07
-4.89754e-06
6.01242e-07
-4.96246e-06
3.56783e-07
-4.98588e-06
1.2054e-07
-4.96856e-06
-1.10689e-07
-4.91098e-06
-3.39964e-07
-4.81341e-06
-5.70234e-07
-4.67589e-06
-8.0438e-07
-4.49833e-06
-1.04524e-06
-4.28051e-06
-1.29565e-06
-4.02222e-06
-1.55847e-06
-3.72335e-06
-1.83656e-06
-3.38405e-06
-2.13284e-06
-3.00495e-06
-2.45019e-06
-2.58745e-06
-2.7914e-06
-2.13417e-06
-3.15899e-06
-1.6494e-06
-3.55493e-06
-1.1399e-06
-3.98012e-06
-6.15732e-07
-4.43365e-06
-9.14065e-08
-4.91148e-06
4.12943e-07
-5.40459e-06
8.70446e-07
-5.89613e-06
1.24702e-06
-6.35743e-06
1.50251e-06
-6.74262e-06
1.59511e-06
-6.98224e-06
1.49153e-06
-6.97687e-06
1.18561e-06
-6.59376e-06
7.26591e-07
-5.67173e-06
2.51951e-07
-4.04406e-06
-1.60251e-06
2.12042e-07
1.61931e-06
6.43597e-07
4.16542e-06
1.09926e-06
5.95563e-06
1.44616e-06
7.049e-06
1.62083e-06
7.57046e-06
1.61234e-06
7.66079e-06
1.44135e-06
7.45022e-06
1.14292e-06
7.04612e-06
7.55162e-07
6.5301e-06
3.12956e-07
5.9603e-06
-1.54725e-07
5.37588e-06
-6.25362e-07
4.80162e-06
-1.08233e-06
4.25211e-06
-1.51394e-06
3.73487e-06
-1.91232e-06
3.25282e-06
-2.27251e-06
2.80588e-06
-2.59164e-06
2.39222e-06
-2.86829e-06
2.00892e-06
-3.10199e-06
1.65257e-06
-3.2929e-06
1.31948e-06
-3.44153e-06
1.00594e-06
-3.54856e-06
7.08272e-07
-3.61471e-06
4.22936e-07
-3.64068e-06
1.46508e-07
-3.62707e-06
-1.24294e-07
-3.57441e-06
-3.92625e-07
-3.48312e-06
-6.61524e-07
-3.35357e-06
-9.33933e-07
-3.18611e-06
-1.2127e-06
-2.98115e-06
-1.50061e-06
-2.73928e-06
-1.80034e-06
-2.46137e-06
-2.11447e-06
-2.1488e-06
-2.44542e-06
-1.80363e-06
-2.79536e-06
-1.42897e-06
-3.16606e-06
-1.0293e-06
-3.55865e-06
-6.11026e-07
-3.9732e-06
-1.82977e-07
-4.40817e-06
2.42883e-07
-4.85951e-06
6.50809e-07
-5.3194e-06
1.02072e-06
-5.7745e-06
1.32805e-06
-6.20347e-06
1.54455e-06
-6.57392e-06
1.64069e-06
-6.83876e-06
1.59094e-06
-6.93249e-06
1.38298e-06
-6.7689e-06
1.03153e-06
-6.24232e-06
5.95766e-07
-5.23596e-06
1.94179e-07
-3.64247e-06
-1.40833e-06
1.71956e-07
1.44736e-06
5.46642e-07
3.79074e-06
9.78831e-07
5.52344e-06
1.35698e-06
6.67085e-06
1.6153e-06
7.31214e-06
1.72823e-06
7.54786e-06
1.69873e-06
7.47972e-06
1.54641e-06
7.19844e-06
1.29823e-06
6.77828e-06
9.82273e-07
6.27626e-06
6.24264e-07
5.73389e-06
2.45951e-07
5.17994e-06
-1.35263e-07
4.63332e-06
-5.06047e-07
4.10566e-06
-8.56573e-07
3.60334e-06
-1.17986e-06
3.12917e-06
-1.47114e-06
2.6835e-06
-1.72733e-06
2.26511e-06
-1.94656e-06
1.8718e-06
-2.12782e-06
1.50074e-06
-2.27072e-06
1.14883e-06
-2.37521e-06
8.12768e-07
-2.44154e-06
4.8926e-07
-2.47006e-06
1.75027e-07
-2.46122e-06
-1.33131e-07
-2.41553e-06
-4.38313e-07
-2.33355e-06
-7.43507e-07
-2.21591e-06
-1.05157e-06
-2.06337e-06
-1.36524e-06
-1.87692e-06
-1.68706e-06
-1.65784e-06
-2.01942e-06
-1.40786e-06
-2.36444e-06
-1.12937e-06
-2.72391e-06
-8.2558e-07
-3.09914e-06
-5.00867e-07
-3.49078e-06
-1.61045e-07
-3.89847e-06
1.86236e-07
-4.32048e-06
5.31091e-07
-4.75302e-06
8.61018e-07
-5.18943e-06
1.16062e-06
-5.61901e-06
1.4116e-06
-6.02548e-06
1.59327e-06
-6.38514e-06
1.68403e-06
-6.66468e-06
1.66422e-06
-6.81895e-06
1.5211e-06
-6.78937e-06
1.25614e-06
-6.50395e-06
8.94522e-07
-5.8807e-06
4.94809e-07
-4.83625e-06
1.54373e-07
-3.30203e-06
-1.25396e-06
1.42986e-07
1.30437e-06
4.69872e-07
3.46385e-06
8.71153e-07
5.12216e-06
1.25535e-06
6.28666e-06
1.56068e-06
7.00681e-06
1.75498e-06
7.35356e-06
1.82989e-06
7.40481e-06
1.79329e-06
7.23505e-06
1.66227e-06
6.90929e-06
1.45785e-06
6.48068e-06
1.2013e-06
5.99044e-06
9.12131e-07
5.4691e-06
6.07098e-07
4.93836e-06
2.99906e-07
4.41285e-06
1.36302e-09
3.90189e-06
-2.80279e-07
3.41081e-06
-5.38908e-07
2.94213e-06
-7.70136e-07
2.49634e-06
-9.70921e-07
2.07258e-06
-1.13925e-06
1.66907e-06
-1.27388e-06
1.28345e-06
-1.37412e-06
9.13012e-07
-1.43971e-06
5.54849e-07
-1.47067e-06
2.0599e-07
-1.46727e-06
-1.36531e-07
-1.42996e-06
-4.75623e-07
-1.35938e-06
-8.14086e-07
-1.25638e-06
-1.15458e-06
-1.12206e-06
-1.49956e-06
-9.57832e-07
-1.85129e-06
-7.65564e-07
-2.21169e-06
-5.47663e-07
-2.58234e-06
-3.07262e-07
-2.96431e-06
-4.84077e-08
-3.358e-06
2.23713e-07
-3.7629e-06
5.02532e-07
-4.17729e-06
7.79841e-07
-4.59779e-06
1.04557e-06
-5.01875e-06
1.28765e-06
-5.43151e-06
1.49204e-06
-5.8234e-06
1.6431e-06
-6.17654e-06
1.72449e-06
-6.46653e-06
1.72084e-06
-6.66103e-06
1.62061e-06
-6.71872e-06
1.42016e-06
-6.58892e-06
1.12919e-06
-6.21297e-06
7.76727e-07
-5.52824e-06
4.16129e-07
-4.47565e-06
1.2582e-07
-3.01172e-06
-1.12814e-06
1.2113e-07
1.18324e-06
4.07874e-07
3.17711e-06
7.76217e-07
4.75382e-06
1.15172e-06
5.91116e-06
1.47916e-06
6.67937e-06
1.72465e-06
7.10807e-06
1.87329e-06
7.25617e-06
1.92469e-06
7.18365e-06
1.88803e-06
6.94595e-06
1.77782e-06
6.59089e-06
1.61067e-06
6.15759e-06
1.4031e-06
5.67667e-06
1.17027e-06
5.17119e-06
9.25338e-07
4.65778e-06
6.79277e-07
4.14795e-06
4.40926e-07
3.64916e-06
2.17213e-07
3.16584e-06
1.34245e-08
2.70013e-06
-1.66513e-07
2.25252e-06
-3.19772e-07
1.82233e-06
-4.44402e-07
1.40808e-06
-5.39138e-07
1.00775e-06
-6.03254e-07
6.18964e-07
-6.36454e-07
2.3919e-07
-6.38798e-07
-1.34187e-07
-6.10659e-07
-5.03763e-07
-5.52708e-07
-8.72037e-07
-4.65929e-07
-1.24135e-06
-3.5166e-07
-1.61383e-06
-2.11653e-07
-1.99129e-06
-4.81668e-08
-2.37518e-06
1.35922e-07
-2.76643e-06
3.36985e-07
-3.16538e-06
5.50486e-07
-3.5715e-06
7.70823e-07
-3.98323e-06
9.91159e-07
-4.39763e-06
1.2033e-06
-4.80993e-06
1.39759e-06
-5.21305e-06
1.56302e-06
-5.59694e-06
1.68741e-06
-5.94779e-06
1.75805e-06
-6.24718e-06
1.76271e-06
-6.47119e-06
1.69133e-06
-6.58965e-06
1.53845e-06
-6.56584e-06
1.30645e-06
-6.35692e-06
1.0093e-06
-5.91582e-06
6.76172e-07
-5.19511e-06
3.5364e-07
-4.15312e-06
1.04499e-07
-2.76258e-06
-1.02364e-06
1.03968e-07
1.07927e-06
3.56605e-07
2.92447e-06
6.92339e-07
4.41808e-06
1.05062e-06
5.55288e-06
1.38335e-06
6.34664e-06
1.65767e-06
6.83375e-06
1.85545e-06
7.05838e-06
1.97089e-06
7.06821e-06
2.00721e-06
6.90963e-06
1.97348e-06
6.62462e-06
1.88192e-06
6.24916e-06
1.74584e-06
5.81275e-06
1.57833e-06
5.3387e-06
1.3914e-06
4.84471e-06
1.19555e-06
4.34379e-06
9.99659e-07
3.84505e-06
8.11e-07
3.3545e-06
6.35377e-07
2.87575e-06
4.77303e-07
2.41059e-06
3.402e-07
1.95944e-06
2.26567e-07
1.52172e-06
1.3815e-07
1.09617e-06
7.60657e-08
6.81049e-07
4.09075e-08
2.74348e-07
3.28172e-08
-1.26097e-07
5.15303e-08
-5.22476e-07
9.63936e-08
-9.16901e-07
1.66359e-07
-1.31132e-06
2.59954e-07
-1.70743e-06
3.75226e-07
-2.10657e-06
5.09677e-07
-2.50963e-06
6.60167e-07
-2.91692e-06
8.22816e-07
-3.32802e-06
9.92895e-07
-3.74158e-06
1.16472e-06
-4.15506e-06
1.33157e-06
-4.56448e-06
1.48566e-06
-4.96401e-06
1.61815e-06
-5.34554e-06
1.71939e-06
-5.69818e-06
1.77924e-06
-6.00764e-06
1.78778e-06
-6.25572e-06
1.73634e-06
-6.41975e-06
1.61902e-06
-6.47233e-06
1.43468e-06
-6.3815e-06
1.1893e-06
-6.11155e-06
8.98568e-07
-5.62509e-06
5.89834e-07
-4.88637e-06
3.02859e-07
-3.86614e-06
8.79658e-08
-2.54769e-06
-9.35672e-07
9.00022e-08
9.8927e-07
3.13165e-07
2.70131e-06
6.17527e-07
4.11372e-06
9.53679e-07
5.21672e-06
1.28034e-06
6.01998e-06
1.56705e-06
6.54704e-06
1.79465e-06
6.83078e-06
1.95408e-06
6.90878e-06
2.04434e-06
6.81937e-06
2.0702e-06
6.59875e-06
2.04007e-06
6.27929e-06
1.9642e-06
5.88862e-06
1.85344e-06
5.44946e-06
1.7183e-06
4.97985e-06
1.56843e-06
4.49366e-06
1.41231e-06
4.00117e-06
1.25718e-06
3.50963e-06
1.10902e-06
3.02392e-06
9.72659e-07
2.54696e-06
8.51891e-07
2.08021e-06
7.49607e-07
1.624e-06
6.67911e-07
1.17786e-06
6.08238e-07
7.40722e-07
5.71437e-07
3.11149e-07
5.57843e-07
-1.12503e-07
5.67316e-07
-5.31949e-07
5.99266e-07
-9.4885e-07
6.52649e-07
-1.3647e-06
7.25952e-07
-1.78073e-06
8.17147e-07
-2.19776e-06
9.23644e-07
-2.61613e-06
1.04222e-06
-3.0355e-06
1.16897e-06
-3.45477e-06
1.29919e-06
-3.8718e-06
1.4274e-06
-4.28327e-06
1.54725e-06
-4.68433e-06
1.65161e-06
-5.06837e-06
1.73268e-06
-5.42662e-06
1.78226e-06
-5.74776e-06
1.79218e-06
-6.01755e-06
1.75497e-06
-6.21851e-06
1.66486e-06
-6.32964e-06
1.51902e-06
-6.3265e-06
1.31915e-06
-6.18162e-06
1.07315e-06
-5.86555e-06
7.96802e-07
-5.34874e-06
5.14774e-07
-4.60434e-06
2.60578e-07
-3.61195e-06
7.46932e-08
-2.36181e-06
-8.60979e-07
7.82801e-08
9.1099e-07
2.75501e-07
2.50409e-06
5.49973e-07
3.83925e-06
8.61212e-07
4.90548e-06
1.17408e-06
5.70711e-06
1.46114e-06
6.25998e-06
1.70353e-06
6.5884e-06
1.8905e-06
6.72181e-06
2.01827e-06
6.6916e-06
2.08836e-06
6.52865e-06
2.10606e-06
6.26159e-06
2.07891e-06
5.91577e-06
2.01557e-06
5.5128e-06
1.92493e-06
5.07049e-06
1.81555e-06
4.60305e-06
1.69523e-06
4.12149e-06
1.57087e-06
3.63399e-06
1.44838e-06
3.14641e-06
1.33265e-06
2.66268e-06
1.22766e-06
2.1852e-06
1.13652e-06
1.71514e-06
1.0616e-06
1.25279e-06
1.00454e-06
7.97775e-07
9.66424e-07
3.49269e-07
9.47744e-07
-9.3823e-08
9.485e-07
-5.32705e-07
9.68198e-07
-9.68549e-07
1.00586e-06
-1.40237e-06
1.06002e-06
-1.83488e-06
1.12867e-06
-2.26641e-06
1.20927e-06
-2.69672e-06
1.29867e-06
-3.1249e-06
1.39308e-06
-3.54918e-06
1.48805e-06
-3.96677e-06
1.57845e-06
-4.37366e-06
1.65849e-06
-4.76438e-06
1.72186e-06
-5.13173e-06
1.76183e-06
-5.46659e-06
1.77162e-06
-5.75754e-06
1.74481e-06
-5.99075e-06
1.67599e-06
-6.1497e-06
1.56161e-06
-6.21526e-06
1.40099e-06
-6.16588e-06
1.19751e-06
-5.97815e-06
9.59854e-07
-5.62789e-06
7.0295e-07
-5.09183e-06
4.48493e-07
-4.34989e-06
2.24511e-07
-3.38797e-06
6.36971e-08
-2.20099e-06
-7.97282e-07
6.81738e-08
8.42816e-07
2.42154e-07
2.33011e-06
4.88181e-07
3.59322e-06
7.72969e-07
4.6207e-06
1.06677e-06
5.41331e-06
1.34535e-06
5.9814e-06
1.59091e-06
6.34284e-06
1.79213e-06
6.52059e-06
1.94351e-06
6.54022e-06
2.04431e-06
6.42786e-06
2.09734e-06
6.20856e-06
2.10785e-06
5.90526e-06
2.08251e-06
5.53814e-06
2.02863e-06
5.12437e-06
1.95355e-06
4.67813e-06
1.86426e-06
4.21077e-06
1.76712e-06
3.73113e-06
1.66773e-06
3.24581e-06
1.57087e-06
2.75954e-06
1.48053e-06
2.27553e-06
1.39992e-06
1.79575e-06
1.33151e-06
1.3212e-06
1.27713e-06
8.52154e-07
1.238e-06
3.88404e-07
1.21476e-06
-7.05884e-08
1.20756e-06
-5.25502e-07
1.21602e-06
-9.77005e-07
1.23927e-06
-1.42562e-06
1.27595e-06
-1.87157e-06
1.32419e-06
-2.31466e-06
1.38159e-06
-2.75412e-06
1.44519e-06
-3.1885e-06
1.51146e-06
-3.61545e-06
1.57631e-06
-4.03163e-06
1.6351e-06
-4.43245e-06
1.6827e-06
-4.81198e-06
1.71363e-06
-5.16266e-06
1.72225e-06
-5.4752e-06
1.70305e-06
-5.73835e-06
1.65112e-06
-5.93881e-06
1.56266e-06
-6.06124e-06
1.43574e-06
-6.08834e-06
1.27107e-06
-6.00121e-06
1.07293e-06
-5.78e-06
8.49939e-07
-5.40491e-06
6.15716e-07
-4.85761e-06
3.88976e-07
-4.12315e-06
1.93019e-07
-3.19201e-06
5.43221e-08
-2.06229e-06
-7.42959e-07
5.92579e-08
7.83558e-07
2.1208e-07
2.17728e-06
4.30967e-07
3.37433e-06
6.88505e-07
4.36316e-06
9.59633e-07
5.14218e-06
1.22323e-06
5.7178e-06
1.46303e-06
6.10304e-06
1.66785e-06
6.31576e-06
1.83132e-06
6.37676e-06
1.95115e-06
6.30803e-06
2.02834e-06
6.13137e-06
2.06628e-06
5.86732e-06
2.06993e-06
5.5345e-06
2.04509e-06
5.1492e-06
1.99794e-06
4.72528e-06
1.93453e-06
4.27418e-06
1.86058e-06
3.80509e-06
1.78124e-06
3.32515e-06
1.70104e-06
2.83974e-06
1.62383e-06
2.35274e-06
1.55279e-06
1.8668e-06
1.49043e-06
1.38356e-06
1.43864e-06
9.03936e-07
1.39876e-06
4.28283e-07
1.37156e-06
-4.33874e-08
1.3573e-06
-5.1124e-07
1.35575e-06
-9.75449e-07
1.36618e-06
-1.43605e-06
1.3874e-06
-1.89279e-06
1.41772e-06
-2.34498e-06
1.45497e-06
-2.79137e-06
1.49648e-06
-3.23e-06
1.53906e-06
-3.65804e-06
1.57907e-06
-4.07164e-06
1.61243e-06
-4.46581e-06
1.6347e-06
-4.83425e-06
1.64123e-06
-5.1692e-06
1.62738e-06
-5.46135e-06
1.58876e-06
-5.69972e-06
1.52166e-06
-5.87171e-06
1.42353e-06
-5.96311e-06
1.29353e-06
-5.95834e-06
1.1332e-06
-5.84088e-06
9.47085e-07
-5.59389e-06
7.43293e-07
-5.20112e-06
5.33845e-07
-4.64816e-06
3.34639e-07
-3.92394e-06
1.64917e-07
-3.02229e-06
4.61192e-08
-1.9435e-06
-6.9684e-07
5.12366e-08
7.32322e-07
1.84521e-07
2.044e-06
3.7741e-07
3.18145e-06
6.07339e-07
4.13323e-06
8.53311e-07
4.89621e-06
1.09716e-06
5.47396e-06
1.32434e-06
5.87585e-06
1.52432e-06
6.11579e-06
1.6904e-06
6.21067e-06
1.81941e-06
6.17902e-06
1.91105e-06
6.03973e-06
1.96725e-06
5.81112e-06
1.99154e-06
5.51021e-06
1.98843e-06
5.15231e-06
1.96294e-06
4.75077e-06
1.92022e-06
4.3169e-06
1.86526e-06
3.86005e-06
1.8027e-06
3.38771e-06
1.73669e-06
2.90575e-06
1.67085e-06
2.41858e-06
1.60822e-06
1.92943e-06
1.55127e-06
1.44051e-06
1.50191e-06
9.53297e-07
1.46151e-06
4.6868e-07
1.43095e-06
-1.28223e-08
1.41059e-06
-4.90886e-07
1.40036e-06
-9.65215e-07
1.3997e-06
-1.43539e-06
1.40761e-06
-1.9007e-06
1.42266e-06
-2.36002e-06
1.44294e-06
-2.81165e-06
1.46612e-06
-3.25319e-06
1.48945e-06
-3.68136e-06
1.50976e-06
-4.09195e-06
1.52356e-06
-4.47961e-06
1.52711e-06
-4.8378e-06
1.51654e-06
-5.15863e-06
1.48809e-06
-5.43289e-06
1.43831e-06
-5.64995e-06
1.36445e-06
-5.79786e-06
1.26484e-06
-5.8635e-06
1.13935e-06
-5.83285e-06
9.89887e-07
-5.69141e-06
8.20849e-07
-5.42485e-06
6.39517e-07
-5.01978e-06
4.56224e-07
-4.46487e-06
2.8425e-07
-3.75197e-06
1.39335e-07
-2.87737e-06
3.87727e-08
-1.84293e-06
-6.58068e-07
4.38988e-08
6.88423e-07
1.58921e-07
1.92898e-06
3.26792e-07
3.01357e-06
5.2902e-07
3.931e-06
7.48148e-07
4.67708e-06
9.68746e-07
5.25336e-06
1.1781e-06
5.6665e-06
1.36656e-06
5.92732e-06
1.52762e-06
6.04962e-06
1.65761e-06
6.04903e-06
1.7554e-06
5.94194e-06
1.82184e-06
5.74467e-06
1.85931e-06
5.47274e-06
1.87119e-06
5.14043e-06
1.86149e-06
4.76047e-06
1.83446e-06
4.34392e-06
1.79438e-06
3.90013e-06
1.7453e-06
3.43679e-06
1.69094e-06
2.9601e-06
1.63461e-06
2.47491e-06
1.57914e-06
1.9849e-06
1.52688e-06
1.49277e-06
1.47969e-06
1.00049e-06
1.43896e-06
5.09409e-07
1.40562e-06
2.05221e-08
1.38014e-06
-4.65408e-07
1.36258e-06
-9.47658e-07
1.35258e-06
-1.42539e-06
1.34936e-06
-1.89748e-06
1.35174e-06
-2.36241e-06
1.35816e-06
-2.81807e-06
1.36666e-06
-3.26169e-06
1.37493e-06
-3.68963e-06
1.38033e-06
-4.09735e-06
1.37995e-06
-4.47923e-06
1.3707e-06
-4.82855e-06
1.34946e-06
-5.13739e-06
1.31321e-06
-5.39663e-06
1.25927e-06
-5.59602e-06
1.18564e-06
-5.72422e-06
1.09122e-06
-5.76908e-06
9.76273e-07
-5.7179e-06
8.42741e-07
-5.55788e-06
6.94601e-07
-5.27671e-06
5.38112e-07
-4.8633e-06
3.81905e-07
-4.30866e-06
2.36846e-07
-3.60691e-06
1.15627e-07
-2.75615e-06
3.20554e-08
-1.75936e-06
-6.26012e-07
3.70898e-08
6.51333e-07
1.34862e-07
1.8312e-06
2.78555e-07
2.86988e-06
4.5315e-07
3.75641e-06
6.44302e-07
4.48593e-06
8.39105e-07
5.05856e-06
1.02667e-06
5.47894e-06
1.19844e-06
5.75555e-06
1.34834e-06
5.89972e-06
1.47262e-06
5.92475e-06
1.56963e-06
5.84494e-06
1.63947e-06
5.67483e-06
1.68361e-06
5.4286e-06
1.70451e-06
5.11953e-06
1.70527e-06
4.75971e-06
1.68934e-06
4.35985e-06
1.66028e-06
3.9292e-06
1.62153e-06
3.47553e-06
1.57636e-06
3.00527e-06
1.5277e-06
2.52357e-06
1.47812e-06
2.03447e-06
1.42981e-06
1.54109e-06
1.38451e-06
1.04578e-06
1.3436e-06
5.50322e-07
1.30803e-06
5.60983e-08
1.27835e-06
-4.35735e-07
1.25477e-06
-9.24076e-07
1.2371e-06
-1.40772e-06
1.22481e-06
-1.88519e-06
1.217e-06
-2.3546e-06
1.21246e-06
-2.81353e-06
1.20963e-06
-3.25886e-06
1.20666e-06
-3.68666e-06
1.20143e-06
-4.09212e-06
1.19161e-06
-4.46941e-06
1.17473e-06
-4.81167e-06
1.14832e-06
-5.11097e-06
1.10999e-06
-5.35831e-06
1.05772e-06
-5.54375e-06
9.90002e-07
-5.6565e-06
9.06125e-07
-5.68521e-06
8.06475e-07
-5.61825e-06
6.92798e-07
-5.44421e-06
5.68451e-07
-5.15236e-06
4.38566e-07
-4.73341e-06
3.10094e-07
-4.18019e-06
1.91674e-07
-3.48849e-06
9.33054e-08
-2.65778e-06
2.57995e-08
-1.69186e-06
-6.00213e-07
3.06929e-08
6.2064e-07
1.12023e-07
1.74987e-06
2.32251e-07
2.74965e-06
3.79376e-07
3.60928e-06
5.41817e-07
4.32349e-06
7.08999e-07
4.89138e-06
8.71812e-07
5.31613e-06
1.02291e-06
5.60445e-06
1.15685e-06
5.76578e-06
1.27004e-06
5.81156e-06
1.3606e-06
5.75437e-06
1.42814e-06
5.6073e-06
1.47345e-06
5.38329e-06
1.49823e-06
5.09475e-06
1.50481e-06
4.75313e-06
1.4959e-06
4.36876e-06
1.47437e-06
3.95073e-06
1.4431e-06
3.5068e-06
1.40485e-06
3.04353e-06
1.36215e-06
2.56627e-06
1.31729e-06
2.07934e-06
1.2722e-06
1.58617e-06
1.22853e-06
1.08945e-06
1.18756e-06
5.91291e-07
1.15026e-06
9.34048e-08
1.11724e-06
-4.02722e-07
1.08884e-06
-8.9567e-07
1.06504e-06
-1.38392e-06
1.04555e-06
-1.8657e-06
1.02979e-06
-2.33884e-06
1.01688e-06
-2.80062e-06
1.00567e-06
-3.24765e-06
9.94791e-07
-3.67578e-06
9.82624e-07
-4.07995e-06
9.67395e-07
-4.45418e-06
9.47216e-07
-4.79149e-06
9.20184e-07
-5.08394e-06
8.84492e-07
-5.32262e-06
8.38583e-07
-5.49784e-06
7.81321e-07
-5.59924e-06
7.12198e-07
-5.61608e-06
6.31542e-07
-5.5376e-06
5.4073e-07
-5.35339e-06
4.42365e-07
-5.054e-06
3.40393e-07
-4.63144e-06
2.40126e-07
-4.07992e-06
1.48134e-07
-3.3965e-06
7.1992e-08
-2.58164e-06
1.98782e-08
-1.63974e-06
-5.80334e-07
2.46173e-08
5.96023e-07
9.0149e-08
1.68434e-06
1.87513e-07
2.65229e-06
3.07379e-07
3.48942e-06
4.4066e-07
4.19021e-06
5.78942e-07
4.75309e-06
7.14844e-07
5.18023e-06
8.42274e-07
5.47702e-06
9.56555e-07
5.6515e-06
1.05444e-06
5.71367e-06
1.13405e-06
5.67476e-06
1.19469e-06
5.54666e-06
1.23666e-06
5.34132e-06
1.26106e-06
5.07035e-06
1.26956e-06
4.74463e-06
1.2642e-06
4.37412e-06
1.24723e-06
3.9677e-06
1.22096e-06
3.53307e-06
1.18765e-06
3.07684e-06
1.14943e-06
2.60449e-06
1.10823e-06
2.12054e-06
1.06575e-06
1.62864e-06
1.02347e-06
1.13173e-06
9.82573e-07
6.3219e-07
9.43993e-07
1.31985e-07
9.08407e-07
-3.67136e-07
8.76238e-07
-8.63501e-07
8.47663e-07
-1.35534e-06
8.22619e-07
-1.84066e-06
8.00814e-07
-2.31703e-06
7.81731e-07
-2.78153e-06
7.64641e-07
-3.23056e-06
7.48615e-07
-3.65975e-06
7.32549e-07
-4.06389e-06
7.15193e-07
-4.43683e-06
6.95201e-07
-4.7715e-06
6.7119e-07
-5.05992e-06
6.41829e-07
-5.29326e-06
6.05948e-07
-5.46195e-06
5.6266e-07
-5.55595e-06
5.11516e-07
-5.56494e-06
4.52659e-07
-5.47874e-06
3.86975e-07
-5.28771e-06
3.16228e-07
-4.98325e-06
2.43148e-07
-4.55836e-06
1.71444e-07
-4.00822e-06
1.05739e-07
-3.33079e-06
5.13874e-08
-2.52729e-06
1.41922e-08
-1.60255e-06
-5.66142e-07
1.87892e-08
5.77233e-07
6.90287e-08
1.6341e-06
1.44026e-07
2.57729e-06
2.36866e-07
3.39658e-06
3.40743e-07
4.08633e-06
4.49267e-07
4.64457e-06
5.56731e-07
5.07276e-06
6.58312e-07
5.37543e-06
7.50198e-07
5.55962e-06
8.2962e-07
5.63425e-06
8.94827e-07
5.60956e-06
9.44992e-07
5.49649e-06
9.80085e-07
5.30623e-06
1.00072e-06
5.04971e-06
1.00802e-06
4.73733e-06
1.00342e-06
4.37872e-06
9.88603e-07
3.98252e-06
9.65322e-07
3.55635e-06
9.35348e-07
3.10681e-06
9.00385e-07
2.63945e-06
8.62018e-07
2.15891e-06
8.21681e-07
1.66898e-06
7.80633e-07
1.17278e-06
7.39949e-07
6.72873e-07
7.00516e-07
1.71418e-07
6.63032e-07
-3.29652e-07
6.28013e-07
-8.28482e-07
5.95797e-07
-1.32313e-06
5.66549e-07
-1.81141e-06
5.40267e-07
-2.29075e-06
5.16785e-07
-2.75805e-06
4.95779e-07
-3.20956e-06
4.76775e-07
-3.64075e-06
4.59156e-07
-4.04627e-06
4.42183e-07
-4.41985e-06
4.25015e-07
-4.75433e-06
4.06749e-07
-5.04166e-06
3.86471e-07
-5.27298e-06
3.63323e-07
-5.43881e-06
3.36583e-07
-5.52921e-06
3.05771e-07
-5.53413e-06
2.70749e-07
-5.44372e-06
2.31834e-07
-5.24879e-06
1.89896e-07
-4.94131e-06
1.46426e-07
-4.51489e-06
1.03569e-07
-3.96536e-06
6.40849e-08
-3.29131e-06
3.12472e-08
-2.49445e-06
8.66157e-09
-1.57996e-06
-5.57481e-07
1.3146e-08
5.64087e-07
4.84797e-08
1.59877e-06
1.0151e-07
2.52426e-06
1.67552e-07
3.33053e-06
2.41929e-07
4.01195e-06
3.20169e-07
4.56633e-06
3.98184e-07
4.99475e-06
4.72431e-07
5.30119e-06
5.40007e-07
5.49204e-06
5.9871e-07
5.57555e-06
6.47035e-07
5.56123e-06
6.84136e-07
5.45939e-06
7.09758e-07
5.28061e-06
7.24138e-07
5.03533e-06
7.2791e-07
4.73356e-06
7.22e-07
4.38463e-06
7.07535e-07
3.99698e-06
6.85753e-07
3.57814e-06
6.57941e-07
3.13462e-06
6.25371e-07
2.67202e-06
5.89267e-07
2.19501e-06
5.50767e-07
1.70748e-06
5.10912e-07
1.21264e-06
4.70633e-07
7.13153e-07
4.30744e-07
2.11307e-07
3.91948e-07
-2.90856e-07
3.54835e-07
-7.91369e-07
3.1989e-07
-1.28818e-06
2.87492e-07
-1.77901e-06
2.57921e-07
-2.26118e-06
2.31354e-07
-2.73149e-06
2.07865e-07
-3.18607e-06
1.87424e-07
-3.62031e-06
1.69896e-07
-4.02874e-06
1.55033e-07
-4.40499e-06
1.42484e-07
-4.74179e-06
1.31798e-07
-5.03097e-06
1.22441e-07
-5.26362e-06
1.13823e-07
-5.43019e-06
1.05339e-07
-5.52072e-06
9.64156e-08
-5.5252e-06
8.65814e-08
-5.43388e-06
7.55339e-08
-5.23775e-06
6.32131e-08
-4.92899e-06
4.98651e-08
-4.50154e-06
3.60848e-08
-3.95158e-06
2.28255e-08
-3.27805e-06
1.13649e-08
-2.48299e-06
3.21914e-09
-1.57182e-06
-5.54262e-07