/*--------------------------------*- C++ -*----------------------------------*\
  =========                 |
  \\      /  F ield         | OpenFOAM: The Open Source CFD Toolbox
   \\    /   O peration     | Website:  https://openfoam.org
    \\  /    A nd           | Version:  7
     \\/     M anipulation  |
\*---------------------------------------------------------------------------*/
FoamFile
{
    version     2.0;
    format      ascii;
    class       volScalarField;
    location    "0.0576";
    object      p;
}
// * * * * * * * * * * * * * * * * * * * * * * * * * * * * * * * * * * * * * //

dimensions      [0 2 -2 0 0 0 0];

internalField   nonuniform List<scalar> 
2500
(
3.96091e-05
-6.51205
-9.29746
-10.4936
-11.1594
-11.5661
-11.8301
-12.0152
-12.1533
-12.2607
-12.3467
-12.4171
-12.4754
-12.5244
-12.5658
-12.601
-12.6309
-12.6564
-12.6781
-12.6966
-12.7122
-12.7255
-12.7367
-12.7461
-12.7542
-12.7611
-12.7673
-12.7731
-12.7788
-12.7847
-12.7914
-12.7992
-12.8086
-12.8202
-12.8347
-12.8529
-12.8759
-12.9049
-12.9416
-12.9885
-13.0489
-13.1281
-13.2348
-13.3846
-13.6083
-13.9668
-14.5671
-15.6683
-18.3356
-24.7204
-4.95532
-7.67543
-9.18242
-10.1428
-10.811
-11.2714
-11.5934
-11.8272
-12.0029
-12.1391
-12.2471
-12.3347
-12.4067
-12.4668
-12.5174
-12.5603
-12.5969
-12.6283
-12.6552
-12.6784
-12.6985
-12.7159
-12.731
-12.7443
-12.7562
-12.7669
-12.777
-12.7867
-12.7965
-12.8067
-12.818
-12.8308
-12.8457
-12.8634
-12.8849
-12.9112
-12.9437
-12.9841
-13.0349
-13.0994
-13.1825
-13.2912
-13.4368
-13.6365
-13.9194
-14.3336
-14.9438
-15.8323
-17.2525
-19.8515
-7.92454
-8.75719
-9.55843
-10.2397
-10.7803
-11.1908
-11.5008
-11.738
-11.9225
-12.0685
-12.186
-12.282
-12.3616
-12.4282
-12.4845
-12.5324
-12.5735
-12.6089
-12.6396
-12.6662
-12.6895
-12.7099
-12.728
-12.7442
-12.7589
-12.7725
-12.7854
-12.798
-12.8108
-12.8242
-12.8388
-12.8551
-12.8739
-12.8959
-12.9221
-12.9537
-12.9921
-13.0394
-13.0981
-13.1716
-13.2647
-13.3843
-13.5398
-13.7449
-14.019
-14.3883
-14.881
-15.5093
-16.255
-17.0183
-9.43371
-9.64738
-10.0667
-10.512
-10.9054
-11.2329
-11.4998
-11.716
-11.8914
-12.0347
-12.1527
-12.2509
-12.3333
-12.403
-12.4624
-12.5134
-12.5575
-12.5957
-12.629
-12.6581
-12.6838
-12.7066
-12.727
-12.7454
-12.7623
-12.7781
-12.7932
-12.8081
-12.8232
-12.8391
-12.8562
-12.8751
-12.8967
-12.9216
-12.9509
-12.9858
-13.0277
-13.0785
-13.1405
-13.2169
-13.3116
-13.4297
-13.5781
-13.765
-14.0002
-14.2929
-14.6487
-15.0549
-15.4373
-15.6151
-10.3189
-10.3188
-10.523
-10.8002
-11.0752
-11.3257
-11.5448
-11.7322
-11.8908
-12.0248
-12.1382
-12.2345
-12.3166
-12.3871
-12.4478
-12.5005
-12.5463
-12.5864
-12.6216
-12.6526
-12.6802
-12.7049
-12.7271
-12.7474
-12.7661
-12.7838
-12.8007
-12.8175
-12.8345
-12.8523
-12.8713
-12.8923
-12.9159
-12.9428
-12.9742
-13.0109
-13.0545
-13.1066
-13.1691
-13.2444
-13.3357
-13.4463
-13.5802
-13.7414
-13.9331
-14.155
-14.401
-14.6502
-14.8301
-14.8117
-10.8852
-10.8115
-10.9006
-11.0685
-11.2567
-11.4434
-11.6179
-11.7749
-11.9136
-12.0346
-12.1399
-12.2313
-12.3108
-12.3799
-12.4404
-12.4933
-12.5398
-12.5809
-12.6172
-12.6496
-12.6785
-12.7045
-12.7282
-12.7498
-12.77
-12.7891
-12.8075
-12.8257
-12.8442
-12.8634
-12.8838
-12.9061
-12.931
-12.9591
-12.9914
-13.0288
-13.0725
-13.1239
-13.1845
-13.2561
-13.3406
-13.4401
-13.5563
-13.6905
-13.8416
-14.0052
-14.1712
-14.3192
-14.393
-14.3114
-11.2671
-11.1766
-11.2073
-11.3067
-11.4336
-11.5703
-11.7062
-11.8348
-11.9529
-12.0595
-12.1547
-12.2393
-12.3143
-12.3806
-12.4394
-12.4915
-12.5377
-12.5789
-12.6157
-12.6487
-12.6784
-12.7053
-12.7299
-12.7525
-12.7737
-12.7938
-12.8133
-12.8325
-12.8519
-12.872
-12.8933
-12.9164
-12.9418
-12.9703
-13.0026
-13.0396
-13.0821
-13.1314
-13.1884
-13.2543
-13.3303
-13.4173
-13.5154
-13.6241
-13.7405
-13.8587
-13.9687
-14.0541
-14.0754
-13.983
-11.54
-11.4534
-11.455
-11.5121
-11.5966
-11.6956
-11.8001
-11.9037
-12.0025
-12.0946
-12.1791
-12.2559
-12.3253
-12.3877
-12.4438
-12.4941
-12.5393
-12.5799
-12.6165
-12.6495
-12.6795
-12.7068
-12.7319
-12.7552
-12.777
-12.7977
-12.8178
-12.8376
-12.8576
-12.8782
-12.8998
-12.9231
-12.9485
-12.9767
-13.0083
-13.0439
-13.0845
-13.1305
-13.183
-13.2424
-13.3093
-13.3836
-13.4649
-13.5515
-13.6398
-13.7241
-13.7959
-13.8432
-13.8396
-13.7543
-11.7457
-11.6685
-11.656
-11.687
-11.7426
-11.8137
-11.8934
-11.976
-12.0577
-12.1362
-12.2101
-12.2788
-12.342
-12.3998
-12.4525
-12.5004
-12.5439
-12.5833
-12.6191
-12.6518
-12.6815
-12.7088
-12.734
-12.7575
-12.7795
-12.8005
-12.8209
-12.8409
-12.8611
-12.8817
-12.9033
-12.9264
-12.9513
-12.9786
-13.0089
-13.0427
-13.0806
-13.123
-13.1704
-13.223
-13.2809
-13.3436
-13.41
-13.4782
-13.5446
-13.6042
-13.6504
-13.6749
-13.6599
-13.5861
-11.9071
-11.8397
-11.8207
-11.8357
-11.8716
-11.9224
-11.9828
-12.0482
-12.1152
-12.1815
-12.2454
-12.306
-12.3629
-12.4158
-12.4646
-12.5096
-12.5508
-12.5886
-12.6232
-12.655
-12.6841
-12.711
-12.736
-12.7593
-12.7812
-12.8022
-12.8225
-12.8424
-12.8624
-12.8828
-12.904
-12.9265
-12.9505
-12.9766
-13.0053
-13.0368
-13.0716
-13.1101
-13.1523
-13.1984
-13.2479
-13.3003
-13.3541
-13.4074
-13.4571
-13.499
-13.5281
-13.539
-13.5195
-13.4569
-12.0375
-11.9789
-11.9573
-11.9625
-11.9851
-12.0211
-12.0667
-12.1182
-12.1727
-12.2282
-12.283
-12.336
-12.3866
-12.4344
-12.4792
-12.5209
-12.5596
-12.5954
-12.6284
-12.6589
-12.6871
-12.7133
-12.7377
-12.7605
-12.782
-12.8027
-12.8226
-12.8422
-12.8617
-12.8816
-12.9021
-12.9236
-12.9465
-12.9712
-12.9979
-13.027
-13.0587
-13.0931
-13.1304
-13.1703
-13.2124
-13.2558
-13.2992
-13.3407
-13.3778
-13.407
-13.4249
-13.4278
-13.4073
-13.3544
-12.1454
-12.0943
-12.0722
-12.0713
-12.0847
-12.11
-12.1442
-12.1846
-12.2288
-12.275
-12.3216
-12.3676
-12.4122
-12.455
-12.4956
-12.5339
-12.5697
-12.6032
-12.6344
-12.6634
-12.6904
-12.7155
-12.739
-12.7611
-12.782
-12.802
-12.8213
-12.8403
-12.8592
-12.8782
-12.8978
-12.9183
-12.9398
-12.9628
-12.9874
-13.014
-13.0426
-13.0732
-13.1059
-13.1402
-13.1758
-13.2116
-13.2465
-13.2788
-13.3064
-13.3267
-13.3372
-13.3355
-13.3156
-13.2709
-12.2362
-12.1914
-12.1698
-12.1652
-12.1725
-12.1899
-12.2155
-12.247
-12.2827
-12.3208
-12.3602
-12.3998
-12.4388
-12.4768
-12.5133
-12.548
-12.5809
-12.6119
-12.641
-12.6682
-12.6937
-12.7175
-12.7399
-12.7611
-12.7811
-12.8003
-12.8188
-12.8369
-12.8549
-12.873
-12.8916
-12.9107
-12.9308
-12.952
-12.9745
-12.9986
-13.0241
-13.0512
-13.0797
-13.1091
-13.139
-13.1685
-13.1966
-13.2217
-13.2423
-13.2563
-13.262
-13.2577
-13.2393
-13.2014
-12.3137
-12.2742
-12.2537
-12.247
-12.25
-12.2617
-12.2806
-12.3052
-12.3338
-12.3651
-12.3982
-12.432
-12.4659
-12.4992
-12.5317
-12.563
-12.5928
-12.6212
-12.648
-12.6733
-12.6971
-12.7195
-12.7406
-12.7605
-12.7795
-12.7976
-12.8152
-12.8323
-12.8493
-12.8663
-12.8836
-12.9014
-12.9199
-12.9393
-12.9597
-12.9813
-13.004
-13.0278
-13.0525
-13.0776
-13.1028
-13.1271
-13.1496
-13.1693
-13.1847
-13.1943
-13.1968
-13.1914
-13.1746
-13.1425
-12.3805
-12.3457
-12.3265
-12.3186
-12.3188
-12.3264
-12.3402
-12.3591
-12.382
-12.4076
-12.4352
-12.4638
-12.493
-12.522
-12.5506
-12.5785
-12.6053
-12.631
-12.6554
-12.6787
-12.7006
-12.7214
-12.741
-12.7596
-12.7773
-12.7943
-12.8107
-12.8267
-12.8425
-12.8582
-12.8742
-12.8906
-12.9075
-12.9251
-12.9435
-12.9627
-12.9828
-13.0036
-13.0249
-13.0464
-13.0674
-13.0875
-13.1057
-13.1211
-13.1326
-13.1391
-13.1398
-13.1339
-13.119
-13.0918
-12.4388
-12.408
-12.3903
-12.382
-12.3803
-12.3848
-12.3947
-12.4092
-12.4273
-12.4481
-12.4709
-12.495
-12.5198
-12.5449
-12.5698
-12.5943
-12.6181
-12.6411
-12.6632
-12.6842
-12.7042
-12.7232
-12.7412
-12.7584
-12.7747
-12.7903
-12.8055
-12.8202
-12.8347
-12.8492
-12.8638
-12.8787
-12.894
-12.9098
-12.9262
-12.9432
-12.9609
-12.979
-12.9973
-13.0155
-13.0332
-13.0498
-13.0645
-13.0767
-13.0854
-13.0898
-13.0893
-13.0835
-13.0705
-13.0476
-12.49
-12.4629
-12.4467
-12.4384
-12.4355
-12.4378
-12.4447
-12.4557
-12.4699
-12.4866
-12.5053
-12.5253
-12.5462
-12.5676
-12.5891
-12.6104
-12.6313
-12.6516
-12.6712
-12.69
-12.708
-12.7252
-12.7415
-12.757
-12.7718
-12.7861
-12.7998
-12.8132
-12.8264
-12.8395
-12.8526
-12.866
-12.8796
-12.8937
-12.9082
-12.9232
-12.9386
-12.9542
-12.9699
-12.9854
-13.0002
-13.0139
-13.0259
-13.0355
-13.0421
-13.0451
-13.0441
-13.0387
-13.0275
-13.0084
-12.5355
-12.5117
-12.4971
-12.489
-12.4854
-12.4861
-12.4908
-12.4989
-12.5099
-12.5232
-12.5383
-12.5547
-12.5721
-12.5901
-12.6084
-12.6266
-12.6447
-12.6624
-12.6796
-12.6961
-12.712
-12.7273
-12.7418
-12.7557
-12.7689
-12.7817
-12.794
-12.8059
-12.8177
-12.8293
-12.841
-12.8528
-12.8648
-12.8771
-12.8898
-12.9028
-12.9161
-12.9295
-12.9429
-12.956
-12.9684
-12.9797
-12.9895
-12.9972
-13.0023
-13.0044
-13.0031
-12.9984
-12.989
-12.9733
-12.5761
-12.5554
-12.5424
-12.5347
-12.5308
-12.5304
-12.5334
-12.5393
-12.5476
-12.558
-12.57
-12.5833
-12.5975
-12.6124
-12.6276
-12.643
-12.6584
-12.6735
-12.6883
-12.7026
-12.7164
-12.7297
-12.7424
-12.7545
-12.7661
-12.7773
-12.788
-12.7985
-12.8087
-12.8189
-12.829
-12.8393
-12.8496
-12.8603
-12.8712
-12.8823
-12.8936
-12.905
-12.9164
-12.9273
-12.9377
-12.947
-12.955
-12.9612
-12.9653
-12.9668
-12.9656
-12.9617
-12.954
-12.9413
-12.6128
-12.5949
-12.5835
-12.5765
-12.5725
-12.5714
-12.5731
-12.5771
-12.5832
-12.5911
-12.6005
-12.6109
-12.6223
-12.6344
-12.6468
-12.6595
-12.6722
-12.6849
-12.6973
-12.7094
-12.7211
-12.7324
-12.7433
-12.7536
-12.7635
-12.7731
-12.7822
-12.7911
-12.7998
-12.8084
-12.817
-12.8256
-12.8344
-12.8433
-12.8525
-12.8618
-12.8713
-12.8808
-12.8903
-12.8994
-12.9079
-12.9156
-12.9221
-12.9272
-12.9304
-12.9317
-12.9307
-12.9277
-12.9217
-12.9119
-12.6463
-12.6311
-12.6212
-12.6149
-12.6111
-12.6095
-12.6102
-12.6128
-12.6171
-12.6229
-12.6299
-12.6379
-12.6467
-12.6561
-12.666
-12.6761
-12.6864
-12.6966
-12.7068
-12.7167
-12.7263
-12.7357
-12.7446
-12.7532
-12.7613
-12.7692
-12.7767
-12.784
-12.7911
-12.7981
-12.8051
-12.8121
-12.8192
-12.8265
-12.8339
-12.8415
-12.8492
-12.8569
-12.8646
-12.872
-12.8789
-12.8852
-12.8905
-12.8946
-12.8973
-12.8985
-12.8979
-12.8958
-12.8915
-12.8844
-12.677
-12.6644
-12.6561
-12.6507
-12.6471
-12.6453
-12.6452
-12.6467
-12.6495
-12.6534
-12.6583
-12.6641
-12.6706
-12.6776
-12.6851
-12.6928
-12.7007
-12.7087
-12.7166
-12.7244
-12.732
-12.7394
-12.7465
-12.7532
-12.7596
-12.7658
-12.7716
-12.7773
-12.7827
-12.7881
-12.7934
-12.7988
-12.8042
-12.8098
-12.8155
-12.8213
-12.8273
-12.8333
-12.8393
-12.8451
-12.8506
-12.8556
-12.8598
-12.8632
-12.8655
-12.8667
-12.8666
-12.8654
-12.8627
-12.8582
-12.7057
-12.6956
-12.6888
-12.6843
-12.6811
-12.6792
-12.6786
-12.6791
-12.6806
-12.6829
-12.686
-12.6898
-12.6942
-12.699
-12.7042
-12.7097
-12.7154
-12.7212
-12.727
-12.7327
-12.7383
-12.7437
-12.7489
-12.7538
-12.7585
-12.7629
-12.767
-12.771
-12.7748
-12.7785
-12.7821
-12.7857
-12.7894
-12.7933
-12.7972
-12.8013
-12.8056
-12.8099
-12.8143
-12.8186
-12.8227
-12.8265
-12.8298
-12.8326
-12.8346
-12.8358
-12.8363
-12.8361
-12.835
-12.833
-12.7327
-12.725
-12.7198
-12.7162
-12.7135
-12.7116
-12.7106
-12.7103
-12.7107
-12.7116
-12.7131
-12.7151
-12.7175
-12.7203
-12.7234
-12.7268
-12.7303
-12.734
-12.7378
-12.7415
-12.7452
-12.7487
-12.752
-12.7551
-12.758
-12.7606
-12.7631
-12.7653
-12.7673
-12.7693
-12.7712
-12.7731
-12.775
-12.7771
-12.7792
-12.7816
-12.7841
-12.7868
-12.7895
-12.7923
-12.7951
-12.7977
-12.8002
-12.8023
-12.8041
-12.8055
-12.8066
-12.8073
-12.8078
-12.8082
-12.7585
-12.7533
-12.7496
-12.7469
-12.7447
-12.743
-12.7417
-12.7407
-12.7401
-12.7398
-12.7397
-12.74
-12.7406
-12.7415
-12.7426
-12.744
-12.7456
-12.7473
-12.7491
-12.7509
-12.7526
-12.7543
-12.7558
-12.7571
-12.7582
-12.7591
-12.7597
-12.7602
-12.7605
-12.7607
-12.7608
-12.7608
-12.761
-12.7612
-12.7615
-12.762
-12.7627
-12.7637
-12.7648
-12.7661
-12.7675
-12.769
-12.7706
-12.7721
-12.7737
-12.7753
-12.7769
-12.7786
-12.7807
-12.7835
-12.7835
-12.7807
-12.7786
-12.7769
-12.7753
-12.7737
-12.7721
-12.7706
-12.769
-12.7675
-12.7661
-12.7648
-12.7637
-12.7627
-12.762
-12.7615
-12.7612
-12.761
-12.7608
-12.7608
-12.7607
-12.7605
-12.7602
-12.7597
-12.7591
-12.7582
-12.7571
-12.7558
-12.7543
-12.7526
-12.7509
-12.7491
-12.7473
-12.7456
-12.744
-12.7426
-12.7415
-12.7406
-12.74
-12.7397
-12.7398
-12.7401
-12.7407
-12.7417
-12.743
-12.7447
-12.7469
-12.7496
-12.7533
-12.7585
-12.8082
-12.8078
-12.8073
-12.8066
-12.8055
-12.8041
-12.8023
-12.8002
-12.7977
-12.7951
-12.7923
-12.7895
-12.7868
-12.7841
-12.7816
-12.7792
-12.7771
-12.775
-12.7731
-12.7712
-12.7693
-12.7673
-12.7653
-12.7631
-12.7606
-12.758
-12.7551
-12.752
-12.7487
-12.7452
-12.7415
-12.7378
-12.734
-12.7303
-12.7268
-12.7234
-12.7203
-12.7175
-12.7151
-12.7131
-12.7116
-12.7107
-12.7103
-12.7106
-12.7116
-12.7135
-12.7162
-12.7198
-12.725
-12.7327
-12.833
-12.835
-12.8361
-12.8363
-12.8358
-12.8346
-12.8326
-12.8298
-12.8265
-12.8227
-12.8186
-12.8143
-12.8099
-12.8056
-12.8013
-12.7972
-12.7933
-12.7894
-12.7857
-12.7821
-12.7785
-12.7748
-12.771
-12.767
-12.7629
-12.7585
-12.7538
-12.7489
-12.7437
-12.7383
-12.7327
-12.727
-12.7212
-12.7154
-12.7097
-12.7042
-12.699
-12.6942
-12.6898
-12.686
-12.6829
-12.6806
-12.6791
-12.6786
-12.6792
-12.6811
-12.6843
-12.6888
-12.6956
-12.7057
-12.8582
-12.8628
-12.8654
-12.8666
-12.8667
-12.8655
-12.8632
-12.8598
-12.8556
-12.8506
-12.8451
-12.8393
-12.8333
-12.8273
-12.8213
-12.8155
-12.8098
-12.8042
-12.7988
-12.7934
-12.7881
-12.7827
-12.7773
-12.7716
-12.7658
-12.7596
-12.7532
-12.7465
-12.7394
-12.732
-12.7244
-12.7166
-12.7087
-12.7007
-12.6928
-12.6851
-12.6776
-12.6706
-12.6641
-12.6583
-12.6534
-12.6495
-12.6467
-12.6452
-12.6453
-12.6471
-12.6507
-12.6561
-12.6644
-12.677
-12.8844
-12.8915
-12.8958
-12.8979
-12.8985
-12.8973
-12.8946
-12.8905
-12.8852
-12.8789
-12.872
-12.8646
-12.8569
-12.8492
-12.8415
-12.8339
-12.8265
-12.8192
-12.8121
-12.8051
-12.7981
-12.7911
-12.784
-12.7767
-12.7692
-12.7613
-12.7532
-12.7446
-12.7356
-12.7263
-12.7167
-12.7068
-12.6966
-12.6864
-12.6761
-12.666
-12.6561
-12.6467
-12.6379
-12.6299
-12.6229
-12.6171
-12.6128
-12.6102
-12.6095
-12.6111
-12.6149
-12.6212
-12.6311
-12.6463
-12.9119
-12.9217
-12.9277
-12.9307
-12.9317
-12.9304
-12.9272
-12.9221
-12.9156
-12.9079
-12.8994
-12.8903
-12.8808
-12.8713
-12.8618
-12.8525
-12.8433
-12.8344
-12.8256
-12.817
-12.8084
-12.7998
-12.7911
-12.7822
-12.7731
-12.7635
-12.7536
-12.7433
-12.7324
-12.7211
-12.7094
-12.6973
-12.6849
-12.6722
-12.6595
-12.6468
-12.6344
-12.6223
-12.6109
-12.6005
-12.5911
-12.5832
-12.5771
-12.5731
-12.5714
-12.5725
-12.5765
-12.5835
-12.5949
-12.6128
-12.9413
-12.954
-12.9617
-12.9656
-12.9668
-12.9653
-12.9612
-12.955
-12.947
-12.9377
-12.9273
-12.9164
-12.905
-12.8936
-12.8823
-12.8712
-12.8603
-12.8496
-12.8393
-12.829
-12.8189
-12.8087
-12.7985
-12.788
-12.7773
-12.7661
-12.7545
-12.7424
-12.7297
-12.7164
-12.7026
-12.6883
-12.6735
-12.6584
-12.643
-12.6276
-12.6124
-12.5975
-12.5833
-12.57
-12.5579
-12.5476
-12.5393
-12.5334
-12.5304
-12.5308
-12.5347
-12.5424
-12.5554
-12.5761
-12.9733
-12.989
-12.9984
-13.0031
-13.0044
-13.0023
-12.9972
-12.9895
-12.9797
-12.9684
-12.956
-12.9429
-12.9295
-12.9161
-12.9028
-12.8898
-12.8771
-12.8648
-12.8528
-12.841
-12.8293
-12.8177
-12.8059
-12.794
-12.7817
-12.7689
-12.7557
-12.7418
-12.7273
-12.712
-12.6961
-12.6796
-12.6624
-12.6447
-12.6266
-12.6084
-12.5901
-12.5721
-12.5547
-12.5383
-12.5232
-12.5099
-12.4989
-12.4908
-12.4861
-12.4854
-12.489
-12.4971
-12.5117
-12.5355
-13.0084
-13.0275
-13.0387
-13.0441
-13.0451
-13.0421
-13.0355
-13.0259
-13.0139
-13.0002
-12.9854
-12.9699
-12.9542
-12.9386
-12.9232
-12.9082
-12.8937
-12.8796
-12.866
-12.8526
-12.8395
-12.8264
-12.8132
-12.7998
-12.7861
-12.7718
-12.757
-12.7415
-12.7251
-12.708
-12.69
-12.6712
-12.6516
-12.6313
-12.6104
-12.5891
-12.5676
-12.5462
-12.5253
-12.5053
-12.4866
-12.4699
-12.4557
-12.4447
-12.4378
-12.4355
-12.4384
-12.4467
-12.4629
-12.49
-13.0476
-13.0705
-13.0835
-13.0893
-13.0898
-13.0854
-13.0767
-13.0645
-13.0498
-13.0332
-13.0155
-12.9973
-12.979
-12.9609
-12.9432
-12.9262
-12.9098
-12.894
-12.8787
-12.8638
-12.8492
-12.8347
-12.8202
-12.8055
-12.7903
-12.7747
-12.7584
-12.7412
-12.7232
-12.7042
-12.6842
-12.6632
-12.6411
-12.6181
-12.5943
-12.5698
-12.5449
-12.5198
-12.495
-12.4709
-12.4481
-12.4273
-12.4092
-12.3947
-12.3848
-12.3803
-12.382
-12.3903
-12.408
-12.4388
-13.0918
-13.119
-13.1339
-13.1398
-13.1391
-13.1326
-13.1211
-13.1057
-13.0875
-13.0674
-13.0464
-13.0249
-13.0036
-12.9828
-12.9627
-12.9435
-12.9251
-12.9075
-12.8906
-12.8742
-12.8582
-12.8425
-12.8267
-12.8107
-12.7943
-12.7773
-12.7596
-12.741
-12.7214
-12.7006
-12.6787
-12.6554
-12.631
-12.6053
-12.5784
-12.5506
-12.522
-12.493
-12.4638
-12.4352
-12.4076
-12.382
-12.3591
-12.3402
-12.3264
-12.3188
-12.3186
-12.3265
-12.3457
-12.3805
-13.1425
-13.1746
-13.1914
-13.1968
-13.1943
-13.1847
-13.1693
-13.1496
-13.1271
-13.1028
-13.0776
-13.0525
-13.0278
-13.004
-12.9813
-12.9597
-12.9393
-12.9199
-12.9014
-12.8836
-12.8663
-12.8493
-12.8323
-12.8152
-12.7976
-12.7795
-12.7605
-12.7406
-12.7195
-12.6971
-12.6733
-12.648
-12.6212
-12.5928
-12.563
-12.5317
-12.4992
-12.4659
-12.432
-12.3982
-12.3651
-12.3338
-12.3051
-12.2806
-12.2617
-12.25
-12.247
-12.2536
-12.2742
-12.3136
-13.2014
-13.2393
-13.2577
-13.262
-13.2563
-13.2423
-13.2217
-13.1966
-13.1685
-13.139
-13.1091
-13.0797
-13.0512
-13.0241
-12.9986
-12.9745
-12.952
-12.9308
-12.9107
-12.8916
-12.873
-12.8549
-12.8369
-12.8188
-12.8003
-12.7811
-12.7611
-12.7399
-12.7175
-12.6937
-12.6682
-12.641
-12.6119
-12.5809
-12.548
-12.5133
-12.4768
-12.4388
-12.3998
-12.3602
-12.3208
-12.2827
-12.247
-12.2155
-12.1899
-12.1725
-12.1652
-12.1698
-12.1914
-12.2362
-13.2709
-13.3156
-13.3355
-13.3372
-13.3267
-13.3064
-13.2788
-13.2465
-13.2116
-13.1758
-13.1402
-13.1059
-13.0732
-13.0426
-13.014
-12.9874
-12.9628
-12.9398
-12.9183
-12.8978
-12.8782
-12.8592
-12.8403
-12.8213
-12.802
-12.782
-12.7611
-12.739
-12.7155
-12.6903
-12.6634
-12.6344
-12.6032
-12.5697
-12.5339
-12.4956
-12.455
-12.4122
-12.3676
-12.3216
-12.275
-12.2288
-12.1846
-12.1442
-12.11
-12.0847
-12.0712
-12.0721
-12.0943
-12.1454
-13.3544
-13.4073
-13.4278
-13.4249
-13.407
-13.3778
-13.3407
-13.2992
-13.2558
-13.2124
-13.1703
-13.1304
-13.0932
-13.0587
-13.027
-12.9979
-12.9712
-12.9465
-12.9236
-12.9021
-12.8816
-12.8617
-12.8422
-12.8226
-12.8027
-12.782
-12.7605
-12.7377
-12.7133
-12.6871
-12.6589
-12.6284
-12.5954
-12.5596
-12.5209
-12.4792
-12.4344
-12.3866
-12.336
-12.283
-12.2282
-12.1727
-12.1182
-12.0667
-12.0211
-11.9851
-11.9625
-11.9573
-11.9789
-12.0375
-13.4569
-13.5195
-13.539
-13.5281
-13.499
-13.4571
-13.4074
-13.3541
-13.3003
-13.2479
-13.1984
-13.1523
-13.1101
-13.0716
-13.0368
-13.0053
-12.9766
-12.9505
-12.9265
-12.904
-12.8828
-12.8624
-12.8424
-12.8225
-12.8022
-12.7812
-12.7593
-12.736
-12.711
-12.6841
-12.655
-12.6232
-12.5886
-12.5508
-12.5096
-12.4646
-12.4158
-12.3629
-12.306
-12.2454
-12.1815
-12.1152
-12.0482
-11.9828
-11.9224
-11.8716
-11.8357
-11.8207
-11.8397
-11.9071
-13.5861
-13.6599
-13.6749
-13.6504
-13.6042
-13.5446
-13.4782
-13.41
-13.3436
-13.2809
-13.223
-13.1704
-13.123
-13.0806
-13.0427
-13.0089
-12.9786
-12.9513
-12.9264
-12.9033
-12.8817
-12.8611
-12.8409
-12.8209
-12.8005
-12.7795
-12.7575
-12.734
-12.7088
-12.6815
-12.6518
-12.6191
-12.5833
-12.5439
-12.5004
-12.4525
-12.3998
-12.342
-12.2788
-12.2101
-12.1362
-12.0577
-11.976
-11.8934
-11.8137
-11.7425
-11.687
-11.656
-11.6685
-11.7457
-13.7543
-13.8396
-13.8432
-13.7959
-13.7241
-13.6398
-13.5515
-13.4649
-13.3836
-13.3093
-13.2424
-13.183
-13.1305
-13.0845
-13.0439
-13.0083
-12.9767
-12.9485
-12.9231
-12.8998
-12.8782
-12.8576
-12.8376
-12.8178
-12.7977
-12.777
-12.7552
-12.7319
-12.7068
-12.6795
-12.6495
-12.6165
-12.5799
-12.5393
-12.4941
-12.4438
-12.3877
-12.3253
-12.2559
-12.1791
-12.0946
-12.0025
-11.9036
-11.8
-11.6955
-11.5965
-11.5121
-11.455
-11.4534
-11.54
-13.983
-14.0754
-14.0541
-13.9687
-13.8587
-13.7405
-13.6241
-13.5154
-13.4173
-13.3303
-13.2543
-13.1884
-13.1314
-13.0821
-13.0396
-13.0026
-12.9703
-12.9418
-12.9164
-12.8933
-12.872
-12.8519
-12.8325
-12.8133
-12.7938
-12.7737
-12.7525
-12.7299
-12.7053
-12.6784
-12.6487
-12.6157
-12.5789
-12.5377
-12.4915
-12.4394
-12.3806
-12.3143
-12.2393
-12.1547
-12.0595
-11.9529
-11.8348
-11.7062
-11.5703
-11.4335
-11.3067
-11.2073
-11.1766
-11.2671
-14.3114
-14.393
-14.3192
-14.1712
-14.0052
-13.8416
-13.6905
-13.5563
-13.4401
-13.3406
-13.2561
-13.1845
-13.1239
-13.0725
-13.0288
-12.9914
-12.9591
-12.931
-12.9061
-12.8838
-12.8634
-12.8442
-12.8257
-12.8075
-12.7891
-12.77
-12.7498
-12.7282
-12.7045
-12.6785
-12.6496
-12.6172
-12.5809
-12.5398
-12.4933
-12.4404
-12.3799
-12.3108
-12.2313
-12.1399
-12.0346
-11.9136
-11.7749
-11.6179
-11.4434
-11.2567
-11.0685
-10.9006
-10.8115
-10.8852
-14.8117
-14.8301
-14.6502
-14.401
-14.155
-13.9331
-13.7414
-13.5802
-13.4463
-13.3357
-13.2444
-13.1691
-13.1066
-13.0545
-13.0109
-12.9742
-12.9428
-12.9159
-12.8923
-12.8713
-12.8523
-12.8345
-12.8175
-12.8007
-12.7837
-12.7661
-12.7474
-12.7271
-12.7049
-12.6802
-12.6526
-12.6215
-12.5863
-12.5463
-12.5005
-12.4478
-12.3871
-12.3166
-12.2345
-12.1382
-12.0248
-11.8908
-11.7322
-11.5448
-11.3257
-11.0752
-10.8002
-10.523
-10.3188
-10.3189
-15.6151
-15.4373
-15.0549
-14.6487
-14.2929
-14.0002
-13.765
-13.5781
-13.4297
-13.3116
-13.2169
-13.1405
-13.0785
-13.0277
-12.9858
-12.9509
-12.9216
-12.8967
-12.8751
-12.8562
-12.8391
-12.8232
-12.8081
-12.7932
-12.7781
-12.7623
-12.7454
-12.727
-12.7066
-12.6838
-12.6581
-12.6289
-12.5957
-12.5575
-12.5134
-12.4624
-12.403
-12.3333
-12.2509
-12.1527
-12.0347
-11.8914
-11.716
-11.4998
-11.2329
-10.9054
-10.512
-10.0667
-9.64736
-9.43369
-17.0183
-16.255
-15.5093
-14.881
-14.3883
-14.019
-13.7449
-13.5398
-13.3843
-13.2647
-13.1716
-13.0981
-13.0394
-12.9921
-12.9537
-12.9221
-12.8959
-12.8739
-12.8551
-12.8388
-12.8242
-12.8108
-12.798
-12.7854
-12.7725
-12.7589
-12.7442
-12.728
-12.7099
-12.6895
-12.6662
-12.6396
-12.6089
-12.5735
-12.5324
-12.4845
-12.4282
-12.3616
-12.282
-12.186
-12.0685
-11.9225
-11.738
-11.5008
-11.1907
-10.7803
-10.2397
-9.55842
-8.75718
-7.92452
-19.8515
-17.2525
-15.8323
-14.9438
-14.3336
-13.9194
-13.6365
-13.4368
-13.2912
-13.1825
-13.0994
-13.0349
-12.9841
-12.9437
-12.9112
-12.8849
-12.8634
-12.8457
-12.8308
-12.818
-12.8067
-12.7965
-12.7867
-12.777
-12.7669
-12.7562
-12.7443
-12.731
-12.7159
-12.6985
-12.6784
-12.6552
-12.6282
-12.5969
-12.5603
-12.5174
-12.4668
-12.4067
-12.3346
-12.2471
-12.1391
-12.0029
-11.8271
-11.5934
-11.2714
-10.811
-10.1428
-9.18241
-7.67542
-4.9553
-24.7204
-18.3356
-15.6683
-14.5671
-13.9668
-13.6083
-13.3846
-13.2348
-13.1281
-13.0489
-12.9885
-12.9416
-12.9049
-12.8759
-12.8529
-12.8347
-12.8202
-12.8086
-12.7992
-12.7914
-12.7847
-12.7788
-12.7731
-12.7673
-12.7611
-12.7542
-12.7461
-12.7366
-12.7255
-12.7122
-12.6966
-12.6781
-12.6564
-12.6309
-12.601
-12.5658
-12.5244
-12.4754
-12.4171
-12.3467
-12.2607
-12.1533
-12.0152
-11.8301
-11.5661
-11.1594
-10.4936
-9.29744
-6.51203
7.74278e-05
)
;

boundaryField
{
    movingWallTop
    {
        type            zeroGradient;
    }
    movingWallBottom
    {
        type            zeroGradient;
    }
    fixedWalls
    {
        type            zeroGradient;
    }
    frontAndBack
    {
        type            empty;
    }
}


// ************************************************************************* //
