/*--------------------------------*- C++ -*----------------------------------*\
  =========                 |
  \\      /  F ield         | OpenFOAM: The Open Source CFD Toolbox
   \\    /   O peration     | Website:  https://openfoam.org
    \\  /    A nd           | Version:  7
     \\/     M anipulation  |
\*---------------------------------------------------------------------------*/
FoamFile
{
    version     2.0;
    format      ascii;
    class       volScalarField;
    location    "0.0302";
    object      p;
}
// * * * * * * * * * * * * * * * * * * * * * * * * * * * * * * * * * * * * * //

dimensions      [0 2 -2 0 0 0 0];

internalField   nonuniform List<scalar> 
2500
(
2.84794e-05
-6.51135
-9.29542
-10.4898
-11.1536
-11.5581
-11.82
-12.0029
-12.1389
-12.2444
-12.3286
-12.3974
-12.4544
-12.5023
-12.5429
-12.5776
-12.6075
-12.6333
-12.6557
-12.6752
-12.6923
-12.7074
-12.7207
-12.7326
-12.7433
-12.7532
-12.7625
-12.7713
-12.7802
-12.7892
-12.7988
-12.8093
-12.8211
-12.8348
-12.851
-12.8704
-12.894
-12.9231
-12.9593
-13.0052
-13.064
-13.1412
-13.2455
-13.3925
-13.6135
-13.9694
-14.5674
-15.667
-18.3335
-24.7184
-4.956
-7.67541
-9.18135
-10.1404
-10.807
-11.2657
-11.5858
-11.8177
-11.9916
-12.1259
-12.2323
-12.3183
-12.3889
-12.4479
-12.4976
-12.5399
-12.5762
-12.6077
-12.635
-12.659
-12.6801
-12.6989
-12.7157
-12.731
-12.7451
-12.7583
-12.771
-12.7833
-12.7958
-12.8088
-12.8226
-12.8378
-12.8549
-12.8745
-12.8976
-12.925
-12.9581
-12.9988
-13.0493
-13.113
-13.1948
-13.3019
-13.4455
-13.643
-13.9237
-14.3356
-14.944
-15.8311
-17.2505
-19.8497
-7.92653
-8.75815
-9.55835
-10.2385
-10.7778
-11.1867
-11.4952
-11.7307
-11.9135
-12.0578
-12.1737
-12.2682
-12.3463
-12.4117
-12.467
-12.5142
-12.5548
-12.5901
-12.6209
-12.648
-12.672
-12.6936
-12.713
-12.7309
-12.7475
-12.7631
-12.7783
-12.7933
-12.8085
-12.8244
-12.8413
-12.8598
-12.8806
-12.9044
-12.932
-12.9647
-13.0039
-13.0514
-13.1099
-13.1828
-13.275
-13.3931
-13.5469
-13.7501
-14.0222
-14.3895
-14.8805
-15.5074
-16.2524
-17.0158
-9.43722
-9.64944
-10.0676
-10.5118
-10.9039
-11.2302
-11.4957
-11.7104
-11.8842
-12.0259
-12.1423
-12.239
-12.3199
-12.3884
-12.4467
-12.4968
-12.5402
-12.578
-12.6113
-12.6407
-12.6669
-12.6905
-12.712
-12.7318
-12.7503
-12.7679
-12.7851
-12.8021
-12.8194
-12.8375
-12.8567
-12.8778
-12.9012
-12.9278
-12.9586
-12.9945
-13.0372
-13.0883
-13.1503
-13.2261
-13.3199
-13.4368
-13.5836
-13.7687
-14.002
-14.2928
-14.6469
-15.0518
-15.4334
-15.611
-10.3239
-10.3218
-10.5246
-10.8006
-11.0745
-11.3238
-11.5417
-11.7278
-11.885
-12.0175
-12.1294
-12.2241
-12.3048
-12.3739
-12.4335
-12.4851
-12.5301
-12.5697
-12.6046
-12.6357
-12.6635
-12.6888
-12.7119
-12.7333
-12.7534
-12.7726
-12.7914
-12.8101
-12.8291
-12.8489
-12.87
-12.8929
-12.9183
-12.9469
-12.9796
-13.0175
-13.0618
-13.1142
-13.1767
-13.2516
-13.342
-13.4514
-13.5838
-13.7433
-13.9331
-14.1532
-14.3975
-14.6453
-14.8243
-14.8054
-10.8916
-10.8154
-10.9028
-11.0694
-11.2564
-11.442
-11.6155
-11.7713
-11.9086
-12.0283
-12.1321
-12.2221
-12.3001
-12.3679
-12.427
-12.4788
-12.5244
-12.5648
-12.6007
-12.6328
-12.6618
-12.6882
-12.7125
-12.7351
-12.7564
-12.7769
-12.7969
-12.8169
-12.8372
-12.8583
-12.8806
-12.9048
-12.9314
-12.961
-12.9947
-13.0331
-13.0776
-13.1293
-13.1899
-13.2611
-13.3448
-13.4431
-13.5579
-13.6903
-13.8395
-14.0012
-14.1656
-14.3121
-14.3847
-14.3022
-11.2744
-11.1812
-11.2099
-11.3078
-11.4334
-11.569
-11.7039
-11.8313
-11.9482
-12.0536
-12.1475
-12.2307
-12.3042
-12.3692
-12.4266
-12.4775
-12.5227
-12.563
-12.5992
-12.6318
-12.6614
-12.6885
-12.7135
-12.7369
-12.7591
-12.7804
-12.8013
-12.8221
-12.8432
-12.8651
-12.8882
-12.913
-12.9401
-12.9701
-13.0037
-13.0417
-13.0849
-13.1345
-13.1915
-13.257
-13.3322
-13.4179
-13.5146
-13.6215
-13.7361
-13.8524
-13.9607
-14.0445
-14.0644
-13.9707
-11.548
-11.4583
-11.4577
-11.5131
-11.5962
-11.694
-11.7975
-11.9
-11.9977
-12.0887
-12.1719
-12.2474
-12.3154
-12.3764
-12.4311
-12.4802
-12.5243
-12.5639
-12.5998
-12.6323
-12.662
-12.6894
-12.7148
-12.7386
-12.7612
-12.783
-12.8044
-12.8256
-12.8472
-12.8694
-12.8928
-12.9177
-12.9447
-12.9743
-13.0071
-13.0437
-13.0849
-13.1313
-13.1836
-13.2426
-13.3086
-13.3818
-13.4616
-13.5464
-13.6329
-13.7153
-13.7853
-13.8309
-13.8257
-13.7387
-11.7539
-11.6734
-11.6585
-11.6877
-11.7418
-11.8117
-11.8903
-11.9718
-12.0525
-12.1299
-12.2026
-12.2699
-12.3318
-12.3883
-12.4396
-12.4862
-12.5285
-12.567
-12.602
-12.634
-12.6634
-12.6906
-12.7159
-12.7398
-12.7625
-12.7845
-12.806
-12.8273
-12.849
-12.8712
-12.8944
-12.919
-12.9454
-12.974
-13.0055
-13.0402
-13.0786
-13.1212
-13.1685
-13.2206
-13.2776
-13.3391
-13.4041
-13.4705
-13.5351
-13.5929
-13.6372
-13.6599
-13.6431
-13.5672
-11.9151
-11.8443
-11.8228
-11.8359
-11.8702
-11.9197
-11.9789
-12.0433
-12.1092
-12.1743
-12.2371
-12.2965
-12.3521
-12.4036
-12.4512
-12.4948
-12.5349
-12.5716
-12.6054
-12.6364
-12.6652
-12.6919
-12.7168
-12.7405
-12.763
-12.7848
-12.8061
-12.8272
-12.8486
-12.8704
-12.8931
-12.917
-12.9424
-12.9698
-12.9995
-13.0318
-13.0672
-13.1058
-13.1479
-13.1934
-13.2421
-13.2932
-13.3456
-13.3972
-13.4451
-13.4851
-13.5124
-13.5214
-13.5
-13.4349
-12.045
-11.983
-11.9588
-11.962
-11.9829
-12.0175
-12.0618
-12.1122
-12.1657
-12.2201
-12.2738
-12.3256
-12.375
-12.4215
-12.465
-12.5054
-12.5429
-12.5776
-12.6097
-12.6395
-12.6672
-12.6931
-12.7174
-12.7405
-12.7625
-12.7838
-12.8047
-12.8253
-12.8461
-12.8673
-12.8892
-12.9121
-12.9363
-12.9621
-12.9898
-13.0196
-13.0518
-13.0864
-13.1235
-13.1628
-13.204
-13.2462
-13.2882
-13.3281
-13.3634
-13.3908
-13.4068
-13.4078
-13.3851
-13.3295
-12.152
-12.0974
-12.0728
-12.0699
-12.0816
-12.1054
-12.1383
-12.1776
-12.2207
-12.2657
-12.3112
-12.3561
-12.3995
-12.4411
-12.4804
-12.5174
-12.5521
-12.5845
-12.6148
-12.643
-12.6694
-12.6942
-12.7176
-12.7398
-12.7611
-12.7817
-12.8019
-12.8219
-12.8419
-12.8622
-12.883
-12.9047
-12.9275
-12.9515
-12.9771
-13.0043
-13.0333
-13.064
-13.0965
-13.1303
-13.1649
-13.1996
-13.2331
-13.2639
-13.2898
-13.3083
-13.3169
-13.3132
-13.2911
-13.2434
-12.2415
-12.1934
-12.1693
-12.1628
-12.1683
-12.1842
-12.2084
-12.2388
-12.2733
-12.3104
-12.3487
-12.3871
-12.425
-12.4617
-12.497
-12.5305
-12.5623
-12.5922
-12.6204
-12.6468
-12.6717
-12.6952
-12.7174
-12.7386
-12.7589
-12.7786
-12.7979
-12.8169
-12.836
-12.8552
-12.8749
-12.8953
-12.9164
-12.9386
-12.962
-12.9866
-13.0125
-13.0397
-13.0679
-13.0968
-13.1259
-13.1543
-13.1811
-13.2048
-13.2237
-13.236
-13.2398
-13.2335
-13.2127
-13.1717
-12.3174
-12.2748
-12.2519
-12.2433
-12.2446
-12.2548
-12.2724
-12.2957
-12.3232
-12.3535
-12.3854
-12.4181
-12.4509
-12.483
-12.5143
-12.5444
-12.5732
-12.6005
-12.6264
-12.6509
-12.6741
-12.696
-12.7169
-12.7369
-12.7561
-12.7747
-12.7929
-12.8109
-12.8288
-12.8468
-12.8652
-12.8841
-12.9036
-12.9239
-12.9451
-12.9672
-12.9903
-13.0141
-13.0386
-13.0632
-13.0876
-13.1109
-13.1323
-13.1505
-13.1643
-13.1722
-13.173
-13.1655
-13.1464
-13.111
-12.3824
-12.3447
-12.3233
-12.3136
-12.3122
-12.3182
-12.3307
-12.3485
-12.3702
-12.3947
-12.4212
-12.4488
-12.4768
-12.5047
-12.5321
-12.5588
-12.5846
-12.6092
-12.6328
-12.6552
-12.6766
-12.6969
-12.7163
-12.7349
-12.7528
-12.7701
-12.7871
-12.8038
-12.8205
-12.8372
-12.8542
-12.8715
-12.8894
-12.9078
-12.9269
-12.9467
-12.9671
-12.988
-13.0091
-13.0301
-13.0505
-13.0696
-13.0867
-13.1008
-13.1108
-13.1157
-13.1146
-13.1068
-13.0894
-13.059
-12.4386
-12.4053
-12.3855
-12.3755
-12.3723
-12.3753
-12.384
-12.3973
-12.4143
-12.434
-12.4557
-12.4787
-12.5025
-12.5264
-12.5502
-12.5736
-12.5964
-12.6184
-12.6396
-12.6598
-12.6792
-12.6978
-12.7155
-12.7326
-12.7491
-12.7651
-12.7807
-12.7961
-12.8114
-12.8268
-12.8423
-12.8581
-12.8742
-12.8908
-12.9079
-12.9255
-12.9434
-12.9616
-12.9798
-12.9976
-13.0147
-13.0304
-13.0442
-13.0551
-13.0624
-13.0653
-13.0631
-13.0554
-13.04
-13.0139
-12.4876
-12.4582
-12.4403
-12.4303
-12.426
-12.427
-12.4328
-12.4426
-12.4557
-12.4713
-12.489
-12.508
-12.5278
-12.5481
-12.5685
-12.5888
-12.6086
-12.628
-12.6467
-12.6648
-12.6822
-12.6988
-12.7149
-12.7303
-12.7453
-12.7598
-12.774
-12.788
-12.8019
-12.8158
-12.8298
-12.844
-12.8584
-12.8732
-12.8884
-12.9038
-12.9195
-12.9353
-12.9509
-12.9661
-12.9804
-12.9934
-13.0044
-13.013
-13.0183
-13.0199
-13.0172
-13.01
-12.9965
-12.9743
-12.5307
-12.5049
-12.4888
-12.4793
-12.4744
-12.474
-12.4776
-12.4846
-12.4945
-12.5068
-12.5209
-12.5364
-12.5527
-12.5697
-12.5869
-12.6041
-12.6212
-12.638
-12.6543
-12.6701
-12.6854
-12.7002
-12.7144
-12.7282
-12.7415
-12.7545
-12.7672
-12.7797
-12.7921
-12.8045
-12.8169
-12.8295
-12.8423
-12.8553
-12.8686
-12.8821
-12.8957
-12.9093
-12.9227
-12.9355
-12.9475
-12.9582
-12.9672
-12.9739
-12.9779
-12.9787
-12.9759
-12.9694
-12.9579
-12.9391
-12.5688
-12.5465
-12.5322
-12.5234
-12.5184
-12.517
-12.5189
-12.5238
-12.5312
-12.5406
-12.5517
-12.564
-12.5772
-12.5911
-12.6054
-12.6198
-12.6341
-12.6484
-12.6623
-12.6759
-12.6891
-12.7019
-12.7143
-12.7263
-12.738
-12.7493
-12.7604
-12.7714
-12.7822
-12.7931
-12.8039
-12.8149
-12.826
-12.8374
-12.8489
-12.8605
-12.8722
-12.8838
-12.8951
-12.906
-12.916
-12.9248
-12.9321
-12.9375
-12.9405
-12.9409
-12.9383
-12.9327
-12.923
-12.9075
-12.603
-12.5838
-12.5714
-12.5634
-12.5585
-12.5566
-12.5573
-12.5605
-12.5658
-12.5728
-12.5812
-12.5908
-12.6013
-12.6123
-12.6238
-12.6356
-12.6474
-12.6592
-12.6708
-12.6822
-12.6933
-12.7041
-12.7147
-12.7249
-12.7348
-12.7445
-12.754
-12.7633
-12.7725
-12.7818
-12.791
-12.8004
-12.8099
-12.8195
-12.8292
-12.8391
-12.849
-12.8587
-12.8683
-12.8773
-12.8856
-12.8929
-12.8989
-12.9033
-12.9056
-12.9058
-12.9036
-12.8991
-12.8912
-12.8789
-12.6338
-12.6177
-12.6071
-12.6002
-12.5956
-12.5933
-12.5933
-12.5952
-12.5987
-12.6037
-12.6099
-12.617
-12.6249
-12.6335
-12.6424
-12.6516
-12.661
-12.6704
-12.6798
-12.689
-12.6981
-12.7069
-12.7155
-12.7239
-12.7321
-12.7401
-12.7479
-12.7556
-12.7632
-12.7708
-12.7784
-12.7861
-12.7939
-12.8018
-12.8099
-12.818
-12.8261
-12.8342
-12.842
-12.8495
-12.8563
-12.8623
-12.8672
-12.8707
-12.8727
-12.8729
-12.8713
-12.8678
-12.8618
-12.8524
-12.6619
-12.6489
-12.6401
-12.6342
-12.6301
-12.6278
-12.6272
-12.628
-12.6302
-12.6334
-12.6376
-12.6426
-12.6483
-12.6545
-12.661
-12.6679
-12.675
-12.6821
-12.6893
-12.6964
-12.7035
-12.7103
-12.7171
-12.7236
-12.73
-12.7362
-12.7423
-12.7483
-12.7543
-12.7602
-12.7661
-12.7721
-12.7783
-12.7845
-12.7908
-12.7973
-12.8037
-12.8101
-12.8164
-12.8223
-12.8278
-12.8327
-12.8366
-12.8396
-12.8413
-12.8417
-12.8407
-12.8383
-12.8342
-12.8277
-12.688
-12.6778
-12.6709
-12.6661
-12.6627
-12.6605
-12.6594
-12.6595
-12.6604
-12.6622
-12.6647
-12.6677
-12.6714
-12.6754
-12.6798
-12.6845
-12.6893
-12.6943
-12.6994
-12.7045
-12.7095
-12.7144
-12.7193
-12.724
-12.7286
-12.733
-12.7374
-12.7417
-12.7459
-12.7501
-12.7543
-12.7586
-12.763
-12.7675
-12.7722
-12.7769
-12.7817
-12.7865
-12.7912
-12.7957
-12.8
-12.8037
-12.8069
-12.8093
-12.8109
-12.8116
-12.8113
-12.8101
-12.8078
-12.8041
-12.7125
-12.7051
-12.7001
-12.6965
-12.6937
-12.6917
-12.6905
-12.6898
-12.6898
-12.6903
-12.6912
-12.6926
-12.6943
-12.6964
-12.6987
-12.7013
-12.7041
-12.707
-12.7101
-12.7132
-12.7162
-12.7193
-12.7222
-12.7251
-12.7279
-12.7306
-12.7332
-12.7357
-12.7382
-12.7406
-12.7431
-12.7457
-12.7483
-12.751
-12.7539
-12.7569
-12.76
-12.7632
-12.7664
-12.7695
-12.7725
-12.7752
-12.7777
-12.7796
-12.7812
-12.7822
-12.7826
-12.7827
-12.7822
-12.7812
-12.7359
-12.7313
-12.7281
-12.7257
-12.7236
-12.722
-12.7206
-12.7195
-12.7186
-12.7179
-12.7174
-12.7172
-12.7172
-12.7174
-12.7178
-12.7185
-12.7193
-12.7203
-12.7214
-12.7225
-12.7237
-12.7248
-12.726
-12.727
-12.728
-12.7289
-12.7297
-12.7304
-12.7311
-12.7318
-12.7325
-12.7332
-12.734
-12.7349
-12.736
-12.7372
-12.7386
-12.7401
-12.7417
-12.7434
-12.7452
-12.7469
-12.7486
-12.7502
-12.7516
-12.753
-12.7542
-12.7555
-12.7569
-12.7587
-12.7587
-12.7569
-12.7555
-12.7543
-12.753
-12.7516
-12.7502
-12.7486
-12.7469
-12.7452
-12.7434
-12.7417
-12.7401
-12.7386
-12.7372
-12.736
-12.7349
-12.734
-12.7332
-12.7325
-12.7318
-12.7311
-12.7304
-12.7297
-12.7289
-12.728
-12.727
-12.726
-12.7248
-12.7237
-12.7225
-12.7213
-12.7203
-12.7193
-12.7185
-12.7178
-12.7174
-12.7172
-12.7172
-12.7174
-12.7179
-12.7186
-12.7194
-12.7206
-12.722
-12.7236
-12.7257
-12.7281
-12.7313
-12.7359
-12.7812
-12.7822
-12.7827
-12.7826
-12.7822
-12.7812
-12.7797
-12.7777
-12.7752
-12.7725
-12.7695
-12.7664
-12.7632
-12.76
-12.7569
-12.7539
-12.751
-12.7483
-12.7457
-12.7431
-12.7406
-12.7382
-12.7357
-12.7332
-12.7306
-12.7279
-12.7251
-12.7222
-12.7193
-12.7162
-12.7132
-12.7101
-12.707
-12.7041
-12.7013
-12.6987
-12.6963
-12.6943
-12.6926
-12.6912
-12.6903
-12.6898
-12.6898
-12.6904
-12.6917
-12.6937
-12.6964
-12.7001
-12.7051
-12.7125
-12.8041
-12.8078
-12.8101
-12.8113
-12.8116
-12.8109
-12.8093
-12.8069
-12.8037
-12.8
-12.7957
-12.7912
-12.7865
-12.7817
-12.7769
-12.7722
-12.7675
-12.763
-12.7586
-12.7543
-12.7501
-12.7459
-12.7417
-12.7374
-12.733
-12.7286
-12.724
-12.7193
-12.7144
-12.7095
-12.7045
-12.6994
-12.6943
-12.6893
-12.6845
-12.6798
-12.6754
-12.6713
-12.6677
-12.6647
-12.6622
-12.6604
-12.6595
-12.6594
-12.6604
-12.6626
-12.6661
-12.6709
-12.6778
-12.688
-12.8277
-12.8342
-12.8383
-12.8407
-12.8417
-12.8413
-12.8396
-12.8366
-12.8327
-12.8278
-12.8223
-12.8164
-12.8101
-12.8037
-12.7973
-12.7908
-12.7845
-12.7783
-12.7721
-12.7661
-12.7602
-12.7543
-12.7483
-12.7423
-12.7362
-12.73
-12.7236
-12.7171
-12.7103
-12.7035
-12.6964
-12.6893
-12.6821
-12.675
-12.6679
-12.661
-12.6544
-12.6483
-12.6426
-12.6376
-12.6334
-12.6301
-12.628
-12.6272
-12.6278
-12.6301
-12.6342
-12.6401
-12.6489
-12.6619
-12.8524
-12.8618
-12.8678
-12.8713
-12.8729
-12.8727
-12.8707
-12.8672
-12.8623
-12.8563
-12.8495
-12.842
-12.8342
-12.8261
-12.818
-12.8099
-12.8018
-12.7939
-12.7861
-12.7784
-12.7708
-12.7632
-12.7556
-12.7479
-12.7401
-12.7321
-12.7239
-12.7155
-12.7069
-12.6981
-12.689
-12.6798
-12.6704
-12.661
-12.6516
-12.6424
-12.6334
-12.6249
-12.617
-12.6098
-12.6037
-12.5987
-12.5951
-12.5933
-12.5933
-12.5956
-12.6002
-12.6071
-12.6177
-12.6338
-12.8789
-12.8912
-12.8991
-12.9036
-12.9058
-12.9056
-12.9033
-12.8989
-12.8929
-12.8856
-12.8773
-12.8683
-12.8587
-12.849
-12.8391
-12.8292
-12.8195
-12.8099
-12.8004
-12.791
-12.7818
-12.7725
-12.7633
-12.754
-12.7445
-12.7348
-12.7249
-12.7147
-12.7041
-12.6933
-12.6822
-12.6708
-12.6592
-12.6474
-12.6356
-12.6238
-12.6123
-12.6013
-12.5908
-12.5812
-12.5728
-12.5658
-12.5605
-12.5573
-12.5565
-12.5585
-12.5634
-12.5714
-12.5838
-12.6029
-12.9075
-12.923
-12.9327
-12.9383
-12.9409
-12.9405
-12.9375
-12.9322
-12.9248
-12.916
-12.906
-12.8951
-12.8838
-12.8722
-12.8605
-12.8489
-12.8374
-12.826
-12.8149
-12.8039
-12.7931
-12.7822
-12.7714
-12.7604
-12.7493
-12.738
-12.7263
-12.7143
-12.7019
-12.6891
-12.6759
-12.6623
-12.6483
-12.6341
-12.6197
-12.6053
-12.5911
-12.5772
-12.564
-12.5516
-12.5406
-12.5312
-12.5238
-12.5189
-12.5169
-12.5183
-12.5234
-12.5322
-12.5465
-12.5688
-12.9391
-12.9579
-12.9694
-12.9759
-12.9787
-12.9779
-12.9739
-12.9672
-12.9582
-12.9475
-12.9355
-12.9227
-12.9093
-12.8957
-12.8821
-12.8686
-12.8553
-12.8423
-12.8295
-12.8169
-12.8044
-12.7921
-12.7797
-12.7672
-12.7545
-12.7415
-12.7282
-12.7144
-12.7002
-12.6854
-12.6701
-12.6543
-12.638
-12.6212
-12.6041
-12.5869
-12.5697
-12.5527
-12.5364
-12.5209
-12.5068
-12.4945
-12.4846
-12.4775
-12.474
-12.4744
-12.4793
-12.4888
-12.5049
-12.5307
-12.9743
-12.9965
-13.01
-13.0172
-13.0199
-13.0183
-13.013
-13.0044
-12.9934
-12.9804
-12.9661
-12.9509
-12.9353
-12.9195
-12.9038
-12.8884
-12.8732
-12.8584
-12.844
-12.8298
-12.8158
-12.8019
-12.788
-12.774
-12.7598
-12.7453
-12.7303
-12.7149
-12.6988
-12.6822
-12.6648
-12.6467
-12.628
-12.6086
-12.5888
-12.5685
-12.5481
-12.5278
-12.508
-12.489
-12.4713
-12.4556
-12.4425
-12.4327
-12.427
-12.426
-12.4303
-12.4402
-12.4582
-12.4876
-13.0139
-13.04
-13.0554
-13.0631
-13.0653
-13.0624
-13.0551
-13.0442
-13.0304
-13.0147
-12.9976
-12.9798
-12.9616
-12.9434
-12.9255
-12.9079
-12.8908
-12.8742
-12.8581
-12.8423
-12.8268
-12.8114
-12.7961
-12.7807
-12.7651
-12.7491
-12.7326
-12.7155
-12.6978
-12.6792
-12.6598
-12.6396
-12.6184
-12.5964
-12.5736
-12.5502
-12.5264
-12.5025
-12.4787
-12.4557
-12.434
-12.4142
-12.3973
-12.384
-12.3753
-12.3722
-12.3755
-12.3855
-12.4052
-12.4386
-13.059
-13.0894
-13.1068
-13.1146
-13.1157
-13.1108
-13.1008
-13.0867
-13.0696
-13.0505
-13.0301
-13.0091
-12.988
-12.9671
-12.9467
-12.9269
-12.9078
-12.8894
-12.8715
-12.8542
-12.8372
-12.8205
-12.8038
-12.7871
-12.7701
-12.7528
-12.7349
-12.7163
-12.6969
-12.6765
-12.6552
-12.6328
-12.6092
-12.5845
-12.5588
-12.5321
-12.5047
-12.4767
-12.4487
-12.4212
-12.3947
-12.3701
-12.3484
-12.3307
-12.3182
-12.3122
-12.3136
-12.3233
-12.3447
-12.3824
-13.111
-13.1464
-13.1655
-13.173
-13.1722
-13.1643
-13.1505
-13.1323
-13.1109
-13.0876
-13.0633
-13.0386
-13.0142
-12.9903
-12.9672
-12.9451
-12.9239
-12.9036
-12.8841
-12.8652
-12.8468
-12.8288
-12.8108
-12.7929
-12.7747
-12.7561
-12.7369
-12.7169
-12.696
-12.6741
-12.6509
-12.6264
-12.6005
-12.5731
-12.5444
-12.5143
-12.483
-12.4508
-12.4181
-12.3854
-12.3535
-12.3232
-12.2957
-12.2724
-12.2548
-12.2446
-12.2433
-12.2519
-12.2748
-12.3174
-13.1717
-13.2127
-13.2335
-13.2398
-13.236
-13.2237
-13.2048
-13.1811
-13.1543
-13.1259
-13.0968
-13.0679
-13.0397
-13.0125
-12.9866
-12.962
-12.9386
-12.9164
-12.8953
-12.8749
-12.8552
-12.836
-12.8169
-12.7979
-12.7786
-12.7589
-12.7386
-12.7174
-12.6952
-12.6717
-12.6468
-12.6203
-12.5922
-12.5623
-12.5305
-12.497
-12.4617
-12.425
-12.3871
-12.3486
-12.3104
-12.2733
-12.2388
-12.2084
-12.1842
-12.1683
-12.1627
-12.1693
-12.1934
-12.2415
-13.2434
-13.2911
-13.3132
-13.3169
-13.3083
-13.2898
-13.2639
-13.2331
-13.1996
-13.1649
-13.1303
-13.0965
-13.064
-13.0333
-13.0043
-12.9771
-12.9515
-12.9275
-12.9047
-12.883
-12.8622
-12.8419
-12.8218
-12.8019
-12.7817
-12.7611
-12.7398
-12.7176
-12.6942
-12.6694
-12.643
-12.6148
-12.5845
-12.5521
-12.5174
-12.4804
-12.4411
-12.3995
-12.3561
-12.3112
-12.2657
-12.2207
-12.1776
-12.1383
-12.1054
-12.0816
-12.0698
-12.0728
-12.0974
-12.1519
-13.3295
-13.3851
-13.4078
-13.4068
-13.3908
-13.3634
-13.3281
-13.2882
-13.2462
-13.204
-13.1628
-13.1235
-13.0864
-13.0518
-13.0196
-12.9898
-12.9621
-12.9363
-12.9121
-12.8892
-12.8673
-12.8461
-12.8253
-12.8047
-12.7838
-12.7625
-12.7405
-12.7174
-12.6931
-12.6672
-12.6395
-12.6097
-12.5776
-12.5429
-12.5054
-12.465
-12.4215
-12.375
-12.3256
-12.2737
-12.2201
-12.1657
-12.1122
-12.0618
-12.0174
-11.9829
-11.962
-11.9588
-11.9829
-12.045
-13.4349
-13.5
-13.5214
-13.5124
-13.4851
-13.4451
-13.3972
-13.3456
-13.2932
-13.2421
-13.1934
-13.1479
-13.1058
-13.0672
-13.0318
-12.9995
-12.9698
-12.9424
-12.917
-12.8931
-12.8704
-12.8486
-12.8272
-12.8061
-12.7847
-12.763
-12.7404
-12.7168
-12.6918
-12.6651
-12.6364
-12.6054
-12.5716
-12.5349
-12.4948
-12.4512
-12.4036
-12.3521
-12.2965
-12.2371
-12.1743
-12.1092
-12.0432
-11.9789
-11.9196
-11.8702
-11.8359
-11.8228
-11.8443
-11.9151
-13.5672
-13.6431
-13.6599
-13.6372
-13.5929
-13.5351
-13.4705
-13.4041
-13.3391
-13.2776
-13.2206
-13.1685
-13.1212
-13.0786
-13.0402
-13.0055
-12.974
-12.9454
-12.9189
-12.8944
-12.8712
-12.8489
-12.8273
-12.806
-12.7845
-12.7625
-12.7398
-12.7159
-12.6906
-12.6634
-12.634
-12.602
-12.5669
-12.5285
-12.4862
-12.4396
-12.3883
-12.3318
-12.2699
-12.2025
-12.1298
-12.0525
-11.9718
-11.8902
-11.8116
-11.7417
-11.6877
-11.6585
-11.6734
-11.7539
-13.7387
-13.8257
-13.8309
-13.7853
-13.7153
-13.6329
-13.5464
-13.4616
-13.3818
-13.3086
-13.2426
-13.1836
-13.1313
-13.0849
-13.0437
-13.0071
-12.9743
-12.9447
-12.9177
-12.8928
-12.8694
-12.8472
-12.8256
-12.8044
-12.783
-12.7612
-12.7386
-12.7148
-12.6894
-12.662
-12.6323
-12.5998
-12.5639
-12.5243
-12.4802
-12.4311
-12.3764
-12.3153
-12.2474
-12.1719
-12.0886
-11.9977
-11.9
-11.7974
-11.694
-11.5962
-11.5131
-11.4576
-11.4582
-11.548
-13.9707
-14.0644
-14.0445
-13.9607
-13.8524
-13.7361
-13.6215
-13.5146
-13.4179
-13.3322
-13.257
-13.1915
-13.1345
-13.0849
-13.0417
-13.0037
-12.9701
-12.9401
-12.913
-12.8882
-12.8651
-12.8432
-12.8221
-12.8013
-12.7804
-12.7591
-12.7369
-12.7135
-12.6885
-12.6614
-12.6318
-12.5992
-12.563
-12.5227
-12.4775
-12.4266
-12.3691
-12.3042
-12.2306
-12.1474
-12.0535
-11.9482
-11.8313
-11.7038
-11.5689
-11.4333
-11.3077
-11.2098
-11.1811
-11.2744
-14.3022
-14.3847
-14.3121
-14.1656
-14.0012
-13.8395
-13.6903
-13.5579
-13.4431
-13.3448
-13.2611
-13.1899
-13.1293
-13.0776
-13.0331
-12.9947
-12.961
-12.9314
-12.9048
-12.8806
-12.8582
-12.8372
-12.8169
-12.7969
-12.7769
-12.7564
-12.7351
-12.7125
-12.6882
-12.6618
-12.6328
-12.6006
-12.5648
-12.5244
-12.4788
-12.427
-12.3679
-12.3
-12.222
-12.1321
-12.0283
-11.9086
-11.7713
-11.6155
-11.4419
-11.2564
-11.0693
-10.9028
-10.8154
-10.8916
-14.8054
-14.8243
-14.6453
-14.3975
-14.1532
-13.9331
-13.7433
-13.5838
-13.4514
-13.342
-13.2516
-13.1767
-13.1142
-13.0618
-13.0175
-12.9796
-12.9469
-12.9183
-12.8929
-12.87
-12.8489
-12.8291
-12.8101
-12.7914
-12.7726
-12.7534
-12.7332
-12.7118
-12.6888
-12.6635
-12.6356
-12.6046
-12.5696
-12.5301
-12.4851
-12.4335
-12.3739
-12.3048
-12.2241
-12.1294
-12.0175
-11.885
-11.7278
-11.5417
-11.3238
-11.0745
-10.8006
-10.5246
-10.3218
-10.3239
-15.611
-15.4334
-15.0518
-14.6469
-14.2928
-14.002
-13.7687
-13.5836
-13.4368
-13.3199
-13.2261
-13.1503
-13.0883
-13.0372
-12.9945
-12.9586
-12.9278
-12.9012
-12.8778
-12.8567
-12.8375
-12.8194
-12.8021
-12.7851
-12.7679
-12.7503
-12.7318
-12.712
-12.6905
-12.6669
-12.6406
-12.6113
-12.578
-12.5402
-12.4968
-12.4467
-12.3884
-12.3199
-12.239
-12.1423
-12.0259
-11.8842
-11.7104
-11.4957
-11.2301
-10.9039
-10.5117
-10.0675
-9.6494
-9.43718
-17.0158
-16.2524
-15.5074
-14.8805
-14.3895
-14.0222
-13.7501
-13.5469
-13.3931
-13.275
-13.1828
-13.1099
-13.0514
-13.0039
-12.9647
-12.932
-12.9044
-12.8806
-12.8598
-12.8413
-12.8243
-12.8085
-12.7933
-12.7783
-12.7631
-12.7475
-12.7309
-12.713
-12.6936
-12.672
-12.648
-12.6209
-12.5901
-12.5548
-12.5142
-12.467
-12.4117
-12.3463
-12.2681
-12.1736
-12.0578
-11.9135
-11.7307
-11.4951
-11.1867
-10.7777
-10.2385
-9.55832
-8.75811
-7.92649
-19.8497
-17.2505
-15.8311
-14.944
-14.3356
-13.9237
-13.643
-13.4455
-13.3019
-13.1948
-13.113
-13.0493
-12.9988
-12.9581
-12.925
-12.8976
-12.8745
-12.8549
-12.8378
-12.8226
-12.8088
-12.7958
-12.7833
-12.771
-12.7583
-12.7451
-12.731
-12.7157
-12.6989
-12.6801
-12.6589
-12.635
-12.6076
-12.5762
-12.5399
-12.4976
-12.4479
-12.3889
-12.3182
-12.2323
-12.1259
-11.9916
-11.8177
-11.5858
-11.2656
-10.807
-10.1404
-9.1813
-7.67537
-4.95595
-24.7184
-18.3335
-15.667
-14.5674
-13.9694
-13.6135
-13.3925
-13.2455
-13.1412
-13.064
-13.0052
-12.9593
-12.9231
-12.894
-12.8704
-12.851
-12.8348
-12.8211
-12.8093
-12.7988
-12.7892
-12.7802
-12.7713
-12.7624
-12.7532
-12.7433
-12.7326
-12.7207
-12.7074
-12.6923
-12.6752
-12.6557
-12.6333
-12.6075
-12.5776
-12.5429
-12.5023
-12.4544
-12.3973
-12.3286
-12.2444
-12.1389
-12.0029
-11.82
-11.5581
-11.1535
-10.4898
-9.29538
-6.51129
0.000103025
)
;

boundaryField
{
    movingWallTop
    {
        type            zeroGradient;
    }
    movingWallBottom
    {
        type            zeroGradient;
    }
    fixedWalls
    {
        type            zeroGradient;
    }
    frontAndBack
    {
        type            empty;
    }
}


// ************************************************************************* //
