/*--------------------------------*- C++ -*----------------------------------*\
  =========                 |
  \\      /  F ield         | OpenFOAM: The Open Source CFD Toolbox
   \\    /   O peration     | Website:  https://openfoam.org
    \\  /    A nd           | Version:  7
     \\/     M anipulation  |
\*---------------------------------------------------------------------------*/
FoamFile
{
    version     2.0;
    format      ascii;
    class       surfaceScalarField;
    location    "0.0732";
    object      phi;
}
// * * * * * * * * * * * * * * * * * * * * * * * * * * * * * * * * * * * * * //

dimensions      [0 3 -1 0 0 0 0];

internalField   nonuniform List<scalar> 
4900
(
-5.55534e-06
5.55537e-06
-1.01609e-05
4.6056e-06
-1.29489e-05
2.78792e-06
-1.46695e-05
1.72064e-06
-1.57726e-05
1.10308e-06
-1.65121e-05
7.39539e-07
-1.70335e-05
5.21378e-07
-1.74186e-05
3.85122e-07
-1.77141e-05
2.95461e-07
-1.79474e-05
2.33359e-07
-1.81358e-05
1.88384e-07
-1.82904e-05
1.54568e-07
-1.84187e-05
1.28325e-07
-1.85261e-05
1.07395e-07
-1.86164e-05
9.02871e-08
-1.86924e-05
7.59839e-08
-1.87561e-05
6.37658e-08
-1.88093e-05
5.31111e-08
-1.88529e-05
4.36318e-08
-1.88879e-05
3.50334e-08
-1.8915e-05
2.70871e-08
-1.89346e-05
1.96112e-08
-1.89471e-05
1.24579e-08
-1.89526e-05
5.50338e-09
-1.89512e-05
-1.36073e-09
-1.8943e-05
-8.2302e-09
-1.89278e-05
-1.51994e-08
-1.89054e-05
-2.23613e-08
-1.88756e-05
-2.98156e-08
-1.88379e-05
-3.76747e-08
-1.87919e-05
-4.60713e-08
-1.87367e-05
-5.51685e-08
-1.86715e-05
-6.51741e-08
-1.85952e-05
-7.63593e-08
-1.85061e-05
-8.9087e-08
-1.84022e-05
-1.03854e-07
-1.82809e-05
-1.21358e-07
-1.81383e-05
-1.42599e-07
-1.79692e-05
-1.69064e-07
-1.77662e-05
-2.03036e-07
-1.7518e-05
-2.48169e-07
-1.72074e-05
-3.10551e-07
-1.68067e-05
-4.00772e-07
-1.62688e-05
-5.37879e-07
-1.55124e-05
-7.56364e-07
-1.43965e-05
-1.11593e-06
-1.26815e-05
-1.71499e-06
-9.94587e-06
-2.73564e-06
-5.45244e-06
-4.49343e-06
-5.45244e-06
-1.18885e-08
5.56725e-06
-2.13083e-06
6.72454e-06
-4.85876e-06
5.51584e-06
-7.27727e-06
4.13915e-06
-9.21726e-06
3.04307e-06
-1.07314e-05
2.25368e-06
-1.19129e-05
1.7029e-06
-1.28448e-05
1.31697e-06
-1.35903e-05
1.04096e-06
-1.41953e-05
8.38414e-07
-1.46927e-05
6.85771e-07
-1.51059e-05
5.6776e-07
-1.54519e-05
4.74312e-07
-1.57431e-05
3.98637e-07
-1.59889e-05
3.36043e-07
-1.61961e-05
2.83205e-07
-1.63701e-05
2.37718e-07
-1.65147e-05
1.97801e-07
-1.66332e-05
1.62111e-07
-1.67278e-05
1.29613e-07
-1.68002e-05
9.94975e-08
-1.68517e-05
7.11157e-08
-1.68832e-05
4.39353e-08
-1.68952e-05
1.75078e-08
-1.6888e-05
-8.5576e-09
-1.68616e-05
-3.46167e-08
-1.68158e-05
-6.10078e-08
-1.67501e-05
-8.80714e-08
-1.66637e-05
-1.16169e-07
-1.65557e-05
-1.45705e-07
-1.64246e-05
-1.77154e-07
-1.62687e-05
-2.11092e-07
-1.60856e-05
-2.48247e-07
-1.58724e-05
-2.89554e-07
-1.56253e-05
-3.36247e-07
-1.53392e-05
-3.89985e-07
-1.50075e-05
-4.53037e-07
-1.46215e-05
-5.28571e-07
-1.41695e-05
-6.21098e-07
-1.36353e-05
-7.37174e-07
-1.2997e-05
-8.86529e-07
-1.22237e-05
-1.08386e-06
-1.12728e-05
-1.35162e-06
-1.00866e-05
-1.72407e-06
-8.59122e-06
-2.25177e-06
-6.70651e-06
-3.00064e-06
-4.39285e-06
-4.02866e-06
-1.81837e-06
-5.31012e-06
1.24422e-07
-6.43622e-06
-5.32802e-06
1.03232e-06
4.53494e-06
5.46312e-07
7.21055e-06
-9.9395e-07
7.0561e-06
-2.89109e-06
6.0363e-06
-4.75133e-06
4.9033e-06
-6.41411e-06
3.91646e-06
-7.83997e-06
3.12876e-06
-9.04191e-06
2.51891e-06
-1.00502e-05
2.04928e-06
-1.0897e-05
1.68521e-06
-1.16107e-05
1.39939e-06
-1.22144e-05
1.1715e-06
-1.27268e-05
9.86721e-07
-1.31625e-05
8.3429e-07
-1.35328e-05
7.06336e-07
-1.38466e-05
5.97038e-07
-1.41109e-05
5.02037e-07
-1.43311e-05
4.18021e-07
-1.45114e-05
3.42437e-07
-1.46551e-05
2.73289e-07
-1.47646e-05
2.08986e-07
-1.48417e-05
1.48242e-07
-1.48878e-05
8.99918e-08
-1.49036e-05
3.33308e-08
-1.48896e-05
-2.25321e-08
-1.48459e-05
-7.83184e-08
-1.47722e-05
-1.34714e-07
-1.46679e-05
-1.92406e-07
-1.4532e-05
-2.52117e-07
-1.4363e-05
-3.14649e-07
-1.41592e-05
-3.80931e-07
-1.39182e-05
-4.52078e-07
-1.3637e-05
-5.29471e-07
-1.33117e-05
-6.14857e-07
-1.29375e-05
-7.10496e-07
-1.25081e-05
-8.19349e-07
-1.20158e-05
-9.45354e-07
-1.14506e-05
-1.09381e-06
-1.07998e-05
-1.2719e-06
-1.00474e-05
-1.48949e-06
-9.17388e-06
-1.76009e-06
-8.15563e-06
-2.10211e-06
-6.96722e-06
-2.54003e-06
-5.58694e-06
-3.10435e-06
-4.01147e-06
-3.82724e-06
-2.28753e-06
-4.72458e-06
-5.72274e-07
-5.74391e-06
7.67098e-07
-6.6495e-06
1.08789e-06
-6.75702e-06
-4.24012e-06
9.05976e-07
3.62896e-06
1.22704e-06
6.88948e-06
6.3988e-07
7.64327e-06
-5.29627e-07
7.20581e-06
-1.95255e-06
6.32623e-06
-3.41059e-06
5.3745e-06
-4.7867e-06
4.50487e-06
-6.03105e-06
3.76326e-06
-7.131e-06
3.14923e-06
-8.09185e-06
2.64606e-06
-8.92611e-06
2.23366e-06
-9.64815e-06
1.89355e-06
-1.02717e-05
1.6103e-06
-1.0809e-05
1.37158e-06
-1.12704e-05
1.16769e-06
-1.16644e-05
9.91051e-07
-1.19981e-05
8.35745e-07
-1.22772e-05
6.97114e-07
-1.25062e-05
5.71469e-07
-1.26888e-05
4.55857e-07
-1.28277e-05
3.47884e-07
-1.2925e-05
2.45584e-07
-1.29823e-05
1.47307e-07
-1.30007e-05
5.16438e-08
-1.29805e-05
-4.2648e-08
-1.29222e-05
-1.36701e-07
-1.28253e-05
-2.3159e-07
-1.26893e-05
-3.28385e-07
-1.25132e-05
-4.28202e-07
-1.22956e-05
-5.32261e-07
-1.20346e-05
-6.4195e-07
-1.17278e-05
-7.5891e-07
-1.13721e-05
-8.85131e-07
-1.09639e-05
-1.02308e-06
-1.04985e-05
-1.17585e-06
-9.97048e-06
-1.34739e-06
-9.37309e-06
-1.54275e-06
-8.69846e-06
-1.76843e-06
-7.93761e-06
-2.03276e-06
-7.08077e-06
-2.34632e-06
-6.11857e-06
-2.72229e-06
-5.04446e-06
-3.17623e-06
-3.85978e-06
-3.72471e-06
-2.58337e-06
-4.38075e-06
-1.26829e-06
-5.14232e-06
-2.68436e-08
-5.96603e-06
9.42854e-07
-6.71361e-06
1.34955e-06
-7.05619e-06
9.17128e-07
-6.32459e-06
-3.32299e-06
6.71194e-07
2.95777e-06
1.24136e-06
6.31932e-06
1.2184e-06
7.66622e-06
6.43121e-07
7.78109e-06
-2.96974e-07
7.26632e-06
-1.41947e-06
6.49699e-06
-2.59193e-06
5.67733e-06
-3.73296e-06
4.90428e-06
-4.79899e-06
4.21526e-06
-5.77064e-06
3.61771e-06
-6.64256e-06
3.10558e-06
-7.4169e-06
2.66788e-06
-8.09929e-06
2.29269e-06
-8.69666e-06
1.96895e-06
-9.21604e-06
1.68707e-06
-9.66395e-06
1.43896e-06
-1.00462e-05
1.21796e-06
-1.03676e-05
1.01858e-06
-1.06325e-05
8.36341e-07
-1.08442e-05
6.67531e-07
-1.10054e-05
5.09082e-07
-1.11182e-05
3.58425e-07
-1.11843e-05
2.13375e-07
-1.12047e-05
7.20431e-08
-1.11801e-05
-6.72442e-08
-1.11108e-05
-2.06016e-07
-1.09966e-05
-3.45719e-07
-1.08372e-05
-4.87783e-07
-1.06318e-05
-6.33676e-07
-1.03791e-05
-7.8498e-07
-1.00775e-05
-9.43462e-07
-9.72529e-06
-1.11116e-06
-9.31993e-06
-1.29049e-06
-8.85866e-06
-1.48435e-06
-8.33824e-06
-1.69628e-06
-7.75501e-06
-1.93061e-06
-7.10512e-06
-2.19264e-06
-6.38475e-06
-2.4888e-06
-5.5908e-06
-2.8267e-06
-4.72205e-06
-3.21508e-06
-3.78118e-06
-3.66316e-06
-2.77829e-06
-4.17911e-06
-1.73648e-06
-4.76652e-06
-7.00116e-07
-5.41711e-06
2.54367e-07
-6.0968e-06
1.00898e-06
-6.72064e-06
1.40735e-06
-7.11198e-06
1.29715e-06
-6.94599e-06
6.66608e-07
-5.69405e-06
-2.65639e-06
4.79681e-07
2.47808e-06
1.07329e-06
5.72571e-06
1.33496e-06
7.40455e-06
1.16428e-06
7.95177e-06
6.28947e-07
7.80165e-06
-1.52362e-07
7.2783e-06
-1.06756e-06
6.59253e-06
-2.03122e-06
5.86794e-06
-2.98568e-06
5.16972e-06
-3.89561e-06
4.52764e-06
-4.74144e-06
3.95141e-06
-5.51386e-06
3.44031e-06
-6.20991e-06
2.98873e-06
-6.8302e-06
2.58925e-06
-7.37726e-06
2.23414e-06
-7.85448e-06
1.91618e-06
-8.26545e-06
1.62892e-06
-8.61361e-06
1.36675e-06
-8.90211e-06
1.12484e-06
-9.13368e-06
8.991e-07
-9.31062e-06
6.86019e-07
-9.43479e-06
4.82597e-07
-9.50766e-06
2.86243e-07
-9.5303e-06
9.46828e-08
-9.50343e-06
-9.41093e-08
-9.42746e-06
-2.81989e-07
-9.30247e-06
-4.70707e-07
-9.12828e-06
-6.61971e-07
-8.90444e-06
-8.57517e-07
-8.63025e-06
-1.05917e-06
-8.30479e-06
-1.26893e-06
-7.92693e-06
-1.48902e-06
-7.49539e-06
-1.72202e-06
-7.00884e-06
-1.9709e-06
-6.46595e-06
-2.23916e-06
-5.8657e-06
-2.53085e-06
-5.20771e-06
-2.85063e-06
-4.49283e-06
-3.20368e-06
-3.72409e-06
-3.59544e-06
-2.90821e-06
-4.03096e-06
-2.05779e-06
-4.51358e-06
-1.1945e-06
-5.0424e-06
-3.53324e-07
-5.6077e-06
4.1271e-07
-6.18315e-06
1.02894e-06
-6.71304e-06
1.40161e-06
-7.09331e-06
1.43647e-06
-7.14683e-06
1.08937e-06
-6.59889e-06
4.69646e-07
-5.07433e-06
-2.18674e-06
3.4721e-07
2.13087e-06
8.8754e-07
5.18538e-06
1.26981e-06
7.02228e-06
1.34667e-06
7.87491e-06
1.11055e-06
8.03778e-06
6.21534e-07
7.76732e-06
-4.10572e-08
7.25512e-06
-8.0376e-07
6.63064e-06
-1.60839e-06
5.97435e-06
-2.41295e-06
5.3322e-06
-3.18924e-06
4.7277e-06
-3.91955e-06
4.17062e-06
-4.59358e-06
3.66277e-06
-5.20603e-06
3.20169e-06
-5.75477e-06
2.78288e-06
-6.23967e-06
2.40107e-06
-6.66166e-06
2.05091e-06
-7.02227e-06
1.72735e-06
-7.32323e-06
1.4258e-06
-7.56626e-06
1.14214e-06
-7.75298e-06
8.72739e-07
-7.88479e-06
6.14408e-07
-7.96288e-06
3.64327e-07
-7.98818e-06
1.19988e-07
-7.96143e-06
-1.20864e-07
-7.88312e-06
-3.603e-07
-7.75356e-06
-6.00263e-07
-7.57291e-06
-8.42628e-07
-7.34116e-06
-1.08927e-06
-7.05823e-06
-1.3421e-06
-6.72399e-06
-1.60316e-06
-6.33835e-06
-1.87466e-06
-5.90135e-06
-2.15902e-06
-5.41331e-06
-2.45894e-06
-4.87508e-06
-2.77739e-06
-4.28835e-06
-3.11758e-06
-3.65615e-06
-3.48283e-06
-2.98357e-06
-3.87627e-06
-2.27873e-06
-4.30028e-06
-1.55421e-06
-4.75548e-06
-8.28858e-07
-5.23893e-06
-1.29989e-07
-5.74127e-06
5.04413e-07
-6.2421e-06
1.02438e-06
-6.70311e-06
1.36967e-06
-7.05833e-06
1.47841e-06
-7.20205e-06
1.30871e-06
-6.97713e-06
8.79946e-07
-6.17013e-06
3.35353e-07
-4.52974e-06
-1.85139e-06
2.5977e-07
1.8711e-06
7.29264e-07
4.71588e-06
1.14613e-06
6.60542e-06
1.36227e-06
7.65877e-06
1.33136e-06
8.06869e-06
1.07099e-06
8.02768e-06
6.28833e-07
7.69728e-06
6.01129e-08
7.19936e-06
-5.84357e-07
6.61882e-06
-1.26306e-06
6.0109e-06
-1.94452e-06
5.40916e-06
-2.60616e-06
4.83226e-06
-3.23256e-06
4.28917e-06
-3.81367e-06
3.7828e-06
-4.34331e-06
3.31252e-06
-4.81797e-06
2.87573e-06
-5.23595e-06
2.46889e-06
-5.59668e-06
2.08808e-06
-5.9003e-06
1.72942e-06
-6.14735e-06
1.38919e-06
-6.33858e-06
1.06396e-06
-6.47478e-06
7.50609e-07
-6.55674e-06
4.46292e-07
-6.58521e-06
1.48451e-07
-6.56083e-06
-1.45246e-07
-6.48418e-06
-4.36943e-07
-6.3558e-06
-7.28642e-07
-6.17618e-06
-1.02225e-06
-5.94582e-06
-1.31963e-06
-5.6653e-06
-1.62262e-06
-5.33534e-06
-1.93312e-06
-4.95692e-06
-2.25308e-06
-4.53143e-06
-2.58452e-06
-4.06084e-06
-2.92953e-06
-3.54802e-06
-3.29021e-06
-2.99709e-06
-3.66852e-06
-2.41392e-06
-4.066e-06
-1.80683e-06
-4.48335e-06
-1.18746e-06
-4.91966e-06
-5.71794e-07
-5.37115e-06
1.86507e-08
-5.82938e-06
5.55752e-07
-6.27837e-06
1.00435e-06
-6.6907e-06
1.3234e-06
-7.02216e-06
1.47042e-06
-7.20535e-06
1.41165e-06
-7.14328e-06
1.14066e-06
-6.70614e-06
7.0658e-07
-5.73605e-06
2.46907e-07
-4.07006e-06
-1.60448e-06
2.01425e-07
1.66968e-06
6.03905e-07
4.3134e-06
1.01419e-06
6.19513e-06
1.30132e-06
7.37164e-06
1.40366e-06
7.96634e-06
1.31216e-06
8.11919e-06
1.04936e-06
7.96008e-06
6.52268e-07
7.59646e-06
1.60891e-07
7.1102e-06
-3.88014e-07
6.55981e-06
-9.63675e-07
5.98482e-06
-1.54185e-06
5.41044e-06
-2.10429e-06
4.8516e-06
-2.63774e-06
4.31625e-06
-3.13292e-06
3.8077e-06
-3.58352e-06
3.32634e-06
-3.98546e-06
2.87082e-06
-4.33619e-06
2.43881e-06
-4.63427e-06
2.0275e-06
-4.87901e-06
1.63393e-06
-5.07021e-06
1.25517e-06
-5.20799e-06
8.88391e-07
-5.29268e-06
5.30978e-07
-5.32472e-06
1.80496e-07
-5.30467e-06
-1.65297e-07
-5.23315e-06
-5.08467e-07
-5.11086e-06
-8.50932e-07
-4.93862e-06
-1.19448e-06
-4.71743e-06
-1.54082e-06
-4.44848e-06
-1.89157e-06
-4.13331e-06
-2.24829e-06
-3.77391e-06
-2.61248e-06
-3.37287e-06
-2.98556e-06
-2.93361e-06
-3.36879e-06
-2.46067e-06
-3.76315e-06
-1.96006e-06
-4.16912e-06
-1.43972e-06
-4.58634e-06
-9.1005e-07
-5.01303e-06
-3.84537e-07
-5.44517e-06
1.19589e-07
-5.87528e-06
5.80857e-07
-6.29064e-06
9.73435e-07
-6.67095e-06
1.26792e-06
-6.98519e-06
1.43382e-06
-7.18806e-06
1.44477e-06
-7.21629e-06
1.28773e-06
-6.98625e-06
9.76882e-07
-6.39529e-06
5.70867e-07
-5.33003e-06
1.87701e-07
-3.6869e-06
-1.41678e-06
1.61202e-07
1.50848e-06
5.06313e-07
3.96829e-06
8.92262e-07
5.80918e-06
1.20942e-06
7.05449e-06
1.39384e-06
7.78192e-06
1.42184e-06
8.09119e-06
1.29827e-06
8.08364e-06
1.04472e-06
7.85001e-06
6.90071e-07
7.46484e-06
2.64353e-07
6.98553e-06
-2.04852e-07
6.45403e-06
-6.94001e-07
5.89958e-06
-1.18399e-06
5.34159e-06
-1.65988e-06
4.79215e-06
-2.11037e-06
4.25819e-06
-2.52708e-06
3.74306e-06
-2.90401e-06
3.24775e-06
-3.23692e-06
2.77172e-06
-3.52296e-06
2.31354e-06
-3.76025e-06
1.87123e-06
-3.94769e-06
1.4426e-06
-4.08469e-06
1.02539e-06
-4.17107e-06
6.17364e-07
-4.20698e-06
2.16406e-07
-4.19281e-06
-1.79473e-07
-4.12916e-06
-5.72114e-07
-4.01689e-06
-9.63205e-07
-3.85708e-06
-1.35429e-06
-3.65113e-06
-1.74677e-06
-3.4008e-06
-2.1419e-06
-3.10832e-06
-2.54077e-06
-2.77651e-06
-2.94429e-06
-2.40895e-06
-3.35312e-06
-2.01019e-06
-3.76755e-06
-1.586e-06
-4.18734e-06
-1.14368e-06
-4.61145e-06
-6.92372e-07
-5.03764e-06
-2.43494e-07
-5.4619e-06
1.88953e-07
-5.87762e-06
5.88114e-07
-6.27444e-06
9.34302e-07
-6.63683e-06
1.20554e-06
-6.94218e-06
1.37903e-06
-7.15867e-06
1.43402e-06
-7.24306e-06
1.35679e-06
-7.13906e-06
1.14791e-06
-6.77737e-06
8.31677e-07
-6.07906e-06
4.658e-07
-4.96416e-06
1.46702e-07
-3.3678e-06
-1.27008e-06
1.32372e-07
1.3761e-06
4.29924e-07
3.67074e-06
7.85218e-07
5.45388e-06
1.10863e-06
6.73108e-06
1.34018e-06
7.55037e-06
1.44953e-06
7.98184e-06
1.43017e-06
8.103e-06
1.29189e-06
7.98829e-06
1.05375e-06
7.70298e-06
7.38668e-07
7.3006e-06
3.69836e-07
6.82286e-06
-3.14142e-08
6.30084e-06
-4.46598e-07
5.75677e-06
-8.60372e-07
5.20592e-06
-1.2604e-06
4.65822e-06
-1.63704e-06
4.11969e-06
-1.98289e-06
3.5936e-06
-2.29242e-06
3.08125e-06
-2.56158e-06
2.5827e-06
-2.7875e-06
2.09715e-06
-2.96822e-06
1.62333e-06
-3.10251e-06
1.15968e-06
-3.1897e-06
7.04554e-07
-3.22959e-06
2.56297e-07
-3.22239e-06
-1.8668e-07
-3.16864e-06
-6.25855e-07
-3.06929e-06
-1.06256e-06
-2.9256e-06
-1.49798e-06
-2.7393e-06
-1.93307e-06
-2.51256e-06
-2.36863e-06
-2.24815e-06
-2.80518e-06
-1.94953e-06
-3.24291e-06
-1.621e-06
-3.68166e-06
-1.26786e-06
-4.12069e-06
-8.96652e-07
-4.55854e-06
-5.15366e-07
-4.99273e-06
-1.3366e-07
-5.41935e-06
2.3693e-07
-5.83249e-06
5.82872e-07
-6.22356e-06
8.88698e-07
-6.58027e-06
1.13739e-06
-6.88552e-06
1.31128e-06
-7.11607e-06
1.39377e-06
-7.24116e-06
1.37212e-06
-7.22141e-06
1.24156e-06
-7.0085e-06
1.01068e-06
-6.54649e-06
7.07399e-07
-5.77578e-06
3.83877e-07
-4.64063e-06
1.17215e-07
-3.10114e-06
-1.15286e-06
1.10892e-07
1.26521e-06
3.6919e-07
3.41244e-06
6.928e-07
5.13028e-06
1.00903e-06
6.41485e-06
1.26434e-06
7.29505e-06
1.42658e-06
7.81961e-06
1.48263e-06
8.04696e-06
1.43391e-06
8.03701e-06
1.29151e-06
7.84538e-06
1.07184e-06
7.52028e-06
7.93357e-07
7.10134e-06
4.74422e-07
6.61977e-06
1.3193e-07
6.09926e-06
-2.19312e-07
5.55716e-06
-5.66804e-07
5.00571e-06
-9.00292e-07
4.45318e-06
-1.21156e-06
3.90487e-06
-1.49419e-06
3.36387e-06
-1.74322e-06
2.83174e-06
-1.95499e-06
2.30892e-06
-2.12683e-06
1.79516e-06
-2.25691e-06
1.28976e-06
-2.34413e-06
7.91771e-07
-2.38795e-06
3.00119e-07
-2.38837e-06
-1.86264e-07
-2.34585e-06
-6.68377e-07
-2.26132e-06
-1.14709e-06
-2.13618e-06
-1.62311e-06
-1.97235e-06
-2.09691e-06
-1.7723e-06
-2.56869e-06
-1.53914e-06
-3.03834e-06
-1.27674e-06
-3.50531e-06
-9.89829e-07
-3.96857e-06
-6.84141e-07
-4.42638e-06
-3.6656e-07
-4.87612e-06
-4.5262e-08
-5.31403e-06
2.70167e-07
-5.73478e-06
5.68682e-07
-6.13101e-06
8.37847e-07
-6.49272e-06
1.0641e-06
-6.80652e-06
1.23336e-06
-7.05478e-06
1.33206e-06
-7.21478e-06
1.34885e-06
-7.25795e-06
1.27699e-06
-7.14955e-06
1.1176e-06
-6.84911e-06
8.8338e-07
-6.31226e-06
6.02148e-07
-5.49455e-06
3.19041e-07
-4.35753e-06
9.52239e-08
-2.87732e-06
-1.05764e-06
9.43017e-08
1.17091e-06
3.19937e-07
3.18681e-06
6.13056e-07
4.83716e-06
9.14697e-07
6.11321e-06
1.17832e-06
7.03143e-06
1.37265e-06
7.62528e-06
1.4812e-06
7.9384e-06
1.49991e-06
8.01831e-06
1.43377e-06
7.91152e-06
1.29367e-06
7.66038e-06
1.09362e-06
7.30138e-06
8.48746e-07
6.86465e-06
5.73828e-07
6.37418e-06
2.82501e-07
5.84849e-06
-1.32048e-08
5.30141e-06
-3.03012e-07
4.74299e-06
-5.78371e-07
4.18023e-06
-8.32339e-07
3.61784e-06
-1.0594e-06
3.05879e-06
-1.25527e-06
2.50479e-06
-1.41676e-06
1.95665e-06
-1.54155e-06
1.41456e-06
-1.62815e-06
8.78366e-07
-1.67571e-06
3.47676e-07
-1.684e-06
-1.77968e-07
-1.65337e-06
-6.99005e-07
-1.5847e-06
-1.21576e-06
-1.47942e-06
-1.7284e-06
-1.33952e-06
-2.23681e-06
-1.16761e-06
-2.74059e-06
-9.67006e-07
-3.23894e-06
-7.41748e-07
-3.73057e-06
-4.96745e-07
-4.21358e-06
-2.37841e-07
-4.68528e-06
2.80826e-08
-5.14205e-06
2.93047e-07
-5.579e-06
5.47952e-07
-5.98968e-06
7.82642e-07
-6.3657e-06
9.86096e-07
-6.69618e-06
1.14683e-06
-6.96726e-06
1.25358e-06
-7.16152e-06
1.29632e-06
-7.25752e-06
1.26783e-06
-7.22945e-06
1.1656e-06
-7.04732e-06
9.94264e-07
-6.67778e-06
7.68075e-07
-6.08607e-06
5.12881e-07
-5.23935e-06
2.6679e-07
-4.11144e-06
7.82729e-08
-2.6888e-06
-9.79364e-07
8.10696e-08
1.08984e-06
2.79133e-07
2.98874e-06
5.43727e-07
4.57256e-06
8.26842e-07
5.83009e-06
1.08858e-06
6.76969e-06
1.2999e-06
7.41396e-06
1.44314e-06
7.79516e-06
1.51081e-06
7.95064e-06
1.50356e-06
7.91877e-06
1.42786e-06
7.73608e-06
1.29382e-06
7.43542e-06
1.11341e-06
7.04506e-06
8.99124e-07
6.58847e-06
6.63048e-07
6.08457e-06
4.16317e-07
5.54815e-06
1.68794e-07
4.99051e-06
-7.1038e-08
4.42006e-06
-2.96068e-07
3.84287e-06
-5.00478e-07
3.2632e-06
-6.79627e-07
2.68394e-06
-8.29926e-07
2.10695e-06
-9.48716e-07
1.53335e-06
-1.03416e-06
9.63808e-07
-1.08515e-06
3.98666e-07
-1.10125e-06
-1.61869e-07
-1.08264e-06
-7.17613e-07
-1.0301e-06
-1.2683e-06
-9.45016e-07
-1.81348e-06
-8.29357e-07
-2.35247e-06
-6.85752e-07
-2.8842e-06
-5.17511e-07
-3.40718e-06
-3.28689e-07
-3.91939e-06
-1.24137e-07
-4.41813e-06
9.04335e-08
-4.89985e-06
3.08419e-07
-5.36003e-06
5.22315e-07
-5.79289e-06
7.23771e-07
-6.19114e-06
9.03727e-07
-6.54566e-06
1.05269e-06
-6.84514e-06
1.16118e-06
-7.07575e-06
1.22042e-06
-7.22076e-06
1.22329e-06
-7.26038e-06
1.16558e-06
-7.17175e-06
1.0476e-06
-6.92934e-06
8.75816e-07
-6.506e-06
6.64459e-07
-5.87472e-06
4.36569e-07
-5.01146e-06
2.23863e-07
-3.89873e-06
6.48167e-08
-2.52976e-06
-9.14547e-07
7.0207e-08
1.01963e-06
2.44603e-07
2.81435e-06
4.82748e-07
4.33442e-06
7.4535e-07
5.56749e-06
9.98455e-07
6.51659e-06
1.21587e-06
7.19654e-06
1.38002e-06
7.63101e-06
1.48159e-06
7.84907e-06
1.51824e-06
7.88211e-06
1.49309e-06
7.76123e-06
1.41298e-06
7.51553e-06
1.28706e-06
7.17098e-06
1.12553e-06
6.75e-06
9.3881e-07
6.27129e-06
7.36866e-07
5.75009e-06
5.28847e-07
5.19853e-06
3.22866e-07
4.62604e-06
1.25917e-07
4.03982e-06
-5.61262e-08
3.44525e-06
-2.1846e-07
2.84628e-06
-3.57272e-07
2.24576e-06
-4.69657e-07
1.64574e-06
-5.53535e-07
1.04769e-06
-6.07574e-07
4.52706e-07
-6.31138e-07
-1.38305e-07
-6.24239e-07
-7.24512e-07
-5.87512e-07
-1.30503e-06
-5.22212e-07
-1.87879e-06
-4.30213e-07
-2.44447e-06
-3.14032e-07
-3.00038e-06
-1.76856e-07
-3.54436e-06
-2.25748e-08
-4.07368e-06
1.44186e-07
-4.58489e-06
3.18047e-07
-5.07371e-06
4.92871e-07
-5.53486e-06
6.6181e-07
-5.96183e-06
8.17404e-07
-6.34673e-06
9.51766e-07
-6.68002e-06
1.05689e-06
-6.95026e-06
1.12511e-06
-7.14396e-06
1.14971e-06
-7.24537e-06
1.12581e-06
-7.23649e-06
1.05136e-06
-7.0973e-06
9.28317e-07
-6.8063e-06
7.6384e-07
-6.34152e-06
5.7127e-07
-5.68215e-06
3.70574e-07
-4.81077e-06
1.87898e-07
-3.71605e-06
5.38467e-08
-2.39571e-06
-8.60701e-07
6.1055e-08
9.5858e-07
2.1477e-07
2.66063e-06
4.28381e-07
4.12081e-06
6.69569e-07
5.3263e-06
9.09563e-07
6.27659e-06
1.12515e-06
6.98096e-06
1.29965e-06
7.45651e-06
1.42296e-06
7.72577e-06
1.49086e-06
7.81421e-06
1.50399e-06
7.7481e-06
1.46661e-06
7.55291e-06
1.38542e-06
7.25218e-06
1.26853e-06
6.86689e-06
1.12466e-06
6.41516e-06
9.62504e-07
5.91224e-06
7.90311e-07
5.37072e-06
6.15607e-07
4.80074e-06
4.45053e-07
4.21037e-06
2.84375e-07
3.60593e-06
1.38368e-07
2.99228e-06
1.09199e-08
2.37321e-06
-9.49299e-08
1.75159e-06
-1.76937e-07
1.12969e-06
-2.33596e-07
5.09365e-07
-2.64089e-07
-1.07811e-07
-2.68253e-07
-7.20349e-07
-2.46551e-07
-1.32673e-06
-2.00062e-07
-1.92527e-06
-1.30478e-07
-2.51405e-06
-4.0113e-08
-3.09074e-06
6.80818e-08
-3.65255e-06
1.90506e-07
-4.1961e-06
3.22897e-07
-4.71728e-06
4.6034e-07
-5.21116e-06
5.97295e-07
-5.67181e-06
7.27669e-07
-6.0922e-06
8.44946e-07
-6.46401e-06
9.42394e-07
-6.77747e-06
1.01337e-06
-7.02124e-06
1.05176e-06
-7.18235e-06
1.05253e-06
-7.24613e-06
1.01242e-06
-7.19638e-06
9.30785e-07
-7.01566e-06
8.10451e-07
-6.68596e-06
6.5852e-07
-6.18959e-06
4.86958e-07
-5.51059e-06
3.12716e-07
-4.63653e-06
1.5717e-07
-3.56051e-06
4.46805e-08
-2.28322e-06
-8.1602e-07
5.31605e-08
9.05419e-07
1.88486e-07
2.52531e-06
3.7922e-07
3.93007e-06
5.9868e-07
5.10684e-06
8.22559e-07
6.05271e-06
1.03055e-06
6.77296e-06
1.20729e-06
7.27977e-06
1.34261e-06
7.59046e-06
1.43121e-06
7.72561e-06
1.47202e-06
7.70729e-06
1.46729e-06
7.55764e-06
1.4217e-06
7.29776e-06
1.34153e-06
6.94706e-06
1.23388e-06
6.52281e-06
1.10616e-06
6.03997e-06
9.65614e-07
5.51126e-06
8.1906e-07
4.9473e-06
6.72664e-07
4.35677e-06
5.31852e-07
3.74674e-06
4.01263e-07
3.12287e-06
2.8474e-07
2.48973e-06
1.85353e-07
1.85097e-06
1.05433e-07
1.20961e-06
4.6612e-08
5.68186e-07
9.8585e-09
-7.10578e-08
-4.49064e-09
-7.05999e-07
3.29251e-09
-1.33451e-06
3.23425e-08
-1.95432e-06
8.12069e-08
-2.56291e-06
1.47846e-07
-3.15738e-06
2.2963e-07
-3.73434e-06
3.23341e-07
-4.28981e-06
4.25176e-07
-4.81911e-06
5.30773e-07
-5.31675e-06
6.35259e-07
-5.7763e-06
7.33341e-07
-6.19029e-06
8.19441e-07
-6.55011e-06
8.87906e-07
-6.84593e-06
9.33301e-07
-7.06664e-06
9.5079e-07
-7.19984e-06
9.36618e-07
-7.23196e-06
8.88686e-07
-7.14845e-06
8.07181e-07
-6.93416e-06
6.95213e-07
-6.57399e-06
5.59359e-07
-6.05373e-06
4.09991e-07
-5.36122e-06
2.61233e-07
-4.48777e-06
1.30401e-07
-3.42968e-06
3.68415e-08
-2.18966e-06
-7.79179e-07
4.62032e-08
8.59216e-07
1.64902e-07
2.40661e-06
3.34145e-07
3.76083e-06
5.31866e-07
4.90912e-06
7.37598e-07
5.84698e-06
9.33766e-07
6.57679e-06
1.10652e-06
7.10701e-06
1.2461e-06
7.45088e-06
1.34671e-06
7.62499e-06
1.40617e-06
7.64784e-06
1.42524e-06
7.53856e-06
1.407e-06
7.31601e-06
1.35611e-06
6.99795e-06
1.27826e-06
6.60066e-06
1.1796e-06
6.13863e-06
1.06636e-06
5.6245e-06
9.4456e-07
5.0691e-06
8.19782e-07
4.48155e-06
6.97036e-07
3.86948e-06
5.80692e-07
3.23922e-06
4.74443e-07
2.59598e-06
3.81304e-07
1.94411e-06
3.03623e-07
1.28729e-06
2.43107e-07
6.28702e-07
2.00845e-07
-2.87959e-08
1.77337e-07
-6.82491e-07
1.7251e-07
-1.32968e-06
1.85736e-07
-1.96755e-06
2.15841e-07
-2.59302e-06
2.61112e-07
-3.20265e-06
3.193e-07
-3.79253e-06
3.87632e-07
-4.35814e-06
4.62827e-07
-4.89431e-06
5.41128e-07
-5.39505e-06
6.18365e-07
-5.85354e-06
6.9004e-07
-6.26196e-06
7.51471e-07
-6.61154e-06
7.97986e-07
-6.89245e-06
8.2518e-07
-7.09383e-06
8.29249e-07
-7.20391e-06
8.07389e-07
-7.2101e-06
7.58256e-07
-7.09931e-06
6.82447e-07
-6.85835e-06
5.82963e-07
-6.47451e-06
4.65571e-07
-5.93634e-06
3.3898e-07
-5.23463e-06
2.14717e-07
-4.36351e-06
1.06634e-07
-3.32159e-06
2.99877e-08
-2.11301e-06
-7.49191e-07
3.99515e-08
8.19265e-07
1.43383e-07
2.30318e-06
2.9227e-07
3.61194e-06
4.68385e-07
4.73301e-06
6.5458e-07
5.66079e-06
8.35797e-07
6.39558e-06
9.99786e-07
6.94302e-06
1.13748e-06
7.31319e-06
1.24302e-06
7.51945e-06
1.31356e-06
7.5773e-06
1.34882e-06
7.50331e-06
1.3506e-06
7.31422e-06
1.32227e-06
7.02628e-06
1.26823e-06
6.6547e-06
1.19349e-06
6.21337e-06
1.10329e-06
5.7147e-06
1.00282e-06
5.16956e-06
8.97028e-07
4.58735e-06
7.90419e-07
3.97609e-06
6.87016e-07
3.34262e-06
5.90281e-07
2.69271e-06
5.03097e-07
2.0313e-06
4.27768e-07
1.36262e-06
3.66027e-07
6.90443e-07
3.19053e-07
1.81777e-08
2.87491e-07
-6.50929e-07
2.71466e-07
-1.31366e-06
2.70599e-07
-1.96668e-06
2.84018e-07
-2.60644e-06
3.10367e-07
-3.229e-06
3.4782e-07
-3.82998e-06
3.94086e-07
-4.40441e-06
4.46442e-07
-4.94667e-06
5.01761e-07
-5.45037e-06
5.56577e-07
-5.90835e-06
6.07167e-07
-6.31255e-06
6.49684e-07
-6.65406e-06
6.80323e-07
-6.92308e-06
6.95546e-07
-7.10906e-06
6.92359e-07
-7.20072e-06
6.68639e-07
-7.18638e-06
6.23487e-07
-7.05416e-06
5.57601e-07
-6.79246e-06
4.73603e-07
-6.39051e-06
3.76291e-07
-5.83903e-06
2.72714e-07
-5.13105e-06
1.72042e-07
-4.26283e-06
8.51409e-08
-3.23469e-06
2.38681e-08
-2.05174e-06
-7.25323e-07
3.4234e-08
7.85031e-07
1.23445e-07
2.21397e-06
2.52889e-07
3.4825e-06
4.07589e-07
4.57831e-06
5.73287e-07
5.49509e-06
7.37233e-07
6.23163e-06
8.8878e-07
6.79147e-06
1.01974e-06
7.18223e-06
1.12448e-06
7.41471e-06
1.19984e-06
7.50194e-06
1.24484e-06
7.45831e-06
1.26034e-06
7.29872e-06
1.24863e-06
7.03799e-06
1.21302e-06
6.69031e-06
1.15748e-06
6.26891e-06
1.08632e-06
5.78586e-06
1.00393e-06
5.25196e-06
9.14546e-07
4.67672e-06
8.22166e-07
4.06847e-06
7.3039e-07
3.43439e-06
6.42386e-07
2.78072e-06
5.60845e-07
2.11284e-06
4.87971e-07
1.4355e-06
4.2548e-07
7.52934e-07
3.74608e-07
6.90499e-08
3.36122e-07
-6.12443e-07
3.10335e-07
-1.28787e-06
2.97119e-07
-1.95347e-06
2.95915e-07
-2.60523e-06
3.05742e-07
-3.23883e-06
3.25212e-07
-3.84945e-06
3.52544e-07
-4.43174e-06
3.85583e-07
-4.9797e-06
4.2184e-07
-5.48663e-06
4.58539e-07
-5.94505e-06
4.92698e-07
-6.34671e-06
5.21234e-07
-6.68259e-06
5.41105e-07
-6.94296e-06
5.49497e-07
-7.11745e-06
5.44042e-07
-7.19527e-06
5.23076e-07
-7.16541e-06
4.85917e-07
-7.017e-06
4.33138e-07
-6.73969e-06
3.66811e-07
-6.32419e-06
2.90673e-07
-5.76289e-06
2.10166e-07
-5.05054e-06
1.32308e-07
-4.18497e-06
6.53605e-08
-3.16774e-06
1.82942e-08
-2.00467e-06
-7.07029e-07
2.89213e-08
7.56109e-07
1.04715e-07
2.13817e-06
2.15441e-07
3.37177e-06
3.48922e-07
4.44483e-06
4.93453e-07
5.35056e-06
6.38402e-07
6.08668e-06
7.74691e-07
6.65518e-06
8.95116e-07
7.06181e-06
9.94479e-07
7.31534e-06
1.06956e-06
7.42686e-06
1.11897e-06
7.4089e-06
1.14286e-06
7.27483e-06
1.14267e-06
7.03818e-06
1.1208e-06
6.71218e-06
1.0803e-06
6.30941e-06
1.0246e-06
5.84156e-06
9.57298e-07
5.31925e-06
8.81982e-07
4.75204e-06
8.02061e-07
4.14839e-06
7.20691e-07
3.51577e-06
6.40693e-07
2.86071e-06
5.64519e-07
2.18901e-06
4.94226e-07
1.50579e-06
4.31472e-07
8.15688e-07
3.77515e-07
1.23007e-07
3.33221e-07
-5.68149e-07
2.99075e-07
-1.25373e-06
2.75192e-07
-1.92958e-06
2.61323e-07
-2.59137e-06
2.5687e-07
-3.23437e-06
2.60891e-07
-3.85347e-06
2.72117e-07
-4.44297e-06
2.88969e-07
-4.99656e-06
3.09583e-07
-5.50725e-06
3.31858e-07
-5.96732e-06
3.53509e-07
-6.36836e-06
3.72154e-07
-6.70124e-06
3.85426e-07
-6.95623e-06
3.9111e-07
-7.12313e-06
3.87317e-07
-7.19148e-06
3.72681e-07
-7.15078e-06
3.46562e-07
-6.99088e-06
3.09257e-07
-6.70238e-06
2.62173e-07
-6.2771e-06
2.07948e-07
-5.70867e-06
1.50474e-07
-4.99307e-06
9.4793e-08
-4.12929e-06
4.68553e-08
-3.11981e-06
1.31222e-08
-1.97094e-06
-6.93907e-07
2.39127e-08
7.32197e-07
8.68988e-08
2.07519e-06
1.79467e-07
3.2792e-06
2.91907e-07
4.33239e-06
4.14799e-07
5.22767e-06
5.39468e-07
5.96201e-06
6.58359e-07
6.53629e-06
7.65311e-07
6.95485e-06
8.55698e-07
7.22496e-06
9.26441e-07
7.35611e-06
9.75925e-07
7.35942e-06
1.00384e-06
7.24692e-06
1.01094e-06
7.03107e-06
9.98867e-07
6.72425e-06
9.69851e-07
6.33843e-06
9.26537e-07
5.88487e-06
8.7178e-07
5.37401e-06
8.08488e-07
4.81533e-06
7.39501e-07
4.21738e-06
6.67491e-07
3.58777e-06
5.94904e-07
2.9333e-06
5.23908e-07
2.26001e-06
4.56376e-07
1.57332e-06
3.93868e-07
8.78196e-07
3.37632e-07
1.79243e-07
2.88606e-07
-5.19124e-07
2.47428e-07
-1.21255e-06
2.14439e-07
-1.8966e-06
1.89695e-07
-2.56662e-06
1.7297e-07
-3.21765e-06
1.6377e-07
-3.84427e-06
1.61334e-07
-4.44053e-06
1.64651e-07
-4.99987e-06
1.72475e-07
-5.51507e-06
1.83352e-07
-5.9782e-06
1.95659e-07
-6.38067e-06
2.07661e-07
-6.71324e-06
2.17591e-07
-6.96616e-06
2.23743e-07
-7.12928e-06
2.24599e-07
-7.19233e-06
2.18966e-07
-7.14515e-06
2.06129e-07
-6.97804e-06
1.86004e-07
-6.68225e-06
1.59264e-07
-6.25036e-06
1.27434e-07
-5.67684e-06
9.29143e-08
-4.95855e-06
5.89117e-08
-4.09529e-06
2.92786e-08
-3.09017e-06
8.23993e-09
-1.9499e-06
-6.85667e-07
1.9128e-08
7.13069e-07
6.97561e-08
2.02456e-06
1.44587e-07
3.20437e-06
2.36127e-07
4.24085e-06
3.37044e-07
5.12675e-06
4.40488e-07
5.85857e-06
5.40381e-07
6.4364e-06
6.31636e-07
6.8636e-06
7.10288e-07
7.14631e-06
7.73539e-07
7.29286e-06
8.19719e-07
7.31324e-06
8.48195e-07
7.21845e-06
8.59218e-07
7.02005e-06
8.5377e-07
6.7297e-06
8.33379e-07
6.35882e-06
7.99963e-07
5.91829e-06
7.55674e-07
5.4183e-06
7.02767e-07
4.86824e-06
6.43503e-07
4.27664e-06
5.80059e-07
3.65122e-06
5.14473e-07
2.99889e-06
4.48601e-07
2.32588e-06
3.84092e-07
1.63783e-06
3.22378e-07
9.39911e-07
2.64663e-07
2.36958e-07
2.1193e-07
-4.66391e-07
1.64943e-07
-1.16556e-06
1.24253e-07
-1.8559e-06
9.02018e-08
-2.53257e-06
6.29294e-08
-3.19038e-06
4.23751e-08
-3.82372e-06
2.82803e-08
-4.42644e-06
2.01911e-08
-4.99178e-06
1.74632e-08
-5.51234e-06
1.92714e-08
-5.98001e-06
2.46262e-08
-6.38602e-06
3.24012e-08
-6.72102e-06
4.13745e-08
-6.97513e-06
5.02862e-08
-7.1382e-06
5.79123e-08
-7.19996e-06
6.31557e-08
-7.15039e-06
6.51487e-08
-6.98004e-06
6.33587e-08
-6.68046e-06
5.76869e-08
-6.24469e-06
4.85439e-08
-5.66769e-06
3.68843e-08
-4.94689e-06
2.4184e-08
-4.08259e-06
1.23501e-08
-3.07834e-06
3.55797e-09
-1.94111e-06
-6.82109e-07
1.45005e-08
6.98568e-07
5.30852e-08
1.98597e-06
1.1047e-07
3.14699e-06
1.81208e-07
4.17011e-06
2.59907e-07
5.04805e-06
3.41446e-07
5.77703e-06
4.21182e-07
6.35666e-06
4.95117e-07
6.78966e-06
5.6001e-07
7.08141e-06
6.13439e-07
7.23943e-06
6.53798e-07
7.27288e-06
6.80255e-07
7.19199e-06
6.92662e-07
7.00764e-06
6.91458e-07
6.73091e-06
6.77544e-07
6.37273e-06
6.5217e-07
5.94366e-06
6.16821e-07
5.45365e-06
5.73121e-07
4.91194e-06
5.22752e-07
4.32701e-06
4.67384e-07
3.70659e-06
4.08625e-07
3.05765e-06
3.47993e-07
2.38651e-06
2.86885e-07
1.69894e-06
2.26568e-07
1.00023e-06
1.68174e-07
2.95352e-07
1.127e-07
-4.10917e-07
6.10119e-08
-1.11387e-06
1.3845e-08
-1.80874e-06
-2.81895e-08
-2.49053e-06
-6.46052e-08
-3.15396e-06
-9.50413e-08
-3.79328e-06
-1.19268e-07
-4.40221e-06
-1.37192e-07
-4.97386e-06
-1.48869e-07
-5.50067e-06
-1.54508e-07
-5.97437e-06
-1.54486e-07
-6.38605e-06
-1.49343e-07
-6.72616e-06
-1.39784e-07
-6.98469e-06
-1.2666e-07
-7.15132e-06
-1.10943e-07
-7.21568e-06
-9.36765e-08
-7.16765e-06
-7.59262e-08
-6.99779e-06
-5.8706e-08
-6.69768e-06
-4.29071e-08
-6.26049e-06
-2.92289e-08
-5.68137e-06
-1.8127e-08