/*--------------------------------*- C++ -*----------------------------------*\
  =========                 |
  \\      /  F ield         | OpenFOAM: The Open Source CFD Toolbox
   \\    /   O peration     | Website:  https://openfoam.org
    \\  /    A nd           | Version:  7
     \\/     M anipulation  |
\*---------------------------------------------------------------------------*/
FoamFile
{
    version     2.0;
    format      ascii;
    class       volVectorField;
    location    "0.0126";
    object      U;
}
// * * * * * * * * * * * * * * * * * * * * * * * * * * * * * * * * * * * * * //

dimensions      [0 1 -1 0 0 0 0];

internalField   nonuniform List<vector> 
2500
(
(-0.293905 0.153819 0)
(-0.398137 0.128776 0)
(-0.578023 0.0737522 0)
(-0.695903 0.0407501 0)
(-0.764247 0.0232021 0)
(-0.807753 0.0138968 0)
(-0.837366 0.00887173 0)
(-0.858368 0.00603472 0)
(-0.873825 0.00432559 0)
(-0.885549 0.00322343 0)
(-0.894639 0.00246935 0)
(-0.9018 0.00192873 0)
(-0.907505 0.00152712 0)
(-0.912088 0.00122061 0)
(-0.915789 0.000981618 0)
(-0.918786 0.000791857 0)
(-0.921213 0.000638666 0)
(-0.923171 0.000512958 0)
(-0.924737 0.000408024 0)
(-0.925971 0.000318794 0)
(-0.926917 0.000241355 0)
(-0.927609 0.000172618 0)
(-0.928071 0.000110088 0)
(-0.928321 5.16812e-05 0)
(-0.928369 -4.41204e-06 0)
(-0.928219 -5.98721e-05 0)
(-0.927869 -0.000116311 0)
(-0.927314 -0.000175408 0)
(-0.926539 -0.000239018 0)
(-0.925527 -0.000309282 0)
(-0.924248 -0.00038878 0)
(-0.922666 -0.00048071 0)
(-0.920734 -0.000589134 0)
(-0.918388 -0.000719321 0)
(-0.915546 -0.000878259 0)
(-0.912103 -0.00107544 0)
(-0.90792 -0.00132415 0)
(-0.902811 -0.0016437 0)
(-0.896531 -0.00206352 0)
(-0.888737 -0.00263099 0)
(-0.878941 -0.00342703 0)
(-0.866424 -0.00459829 0)
(-0.850062 -0.00642438 0)
(-0.828014 -0.00945664 0)
(-0.797231 -0.0147812 0)
(-0.752539 -0.0244483 0)
(-0.68318 -0.0421849 0)
(-0.565484 -0.074726 0)
(-0.389623 -0.128263 0)
(-0.29029 -0.152448 0)
(-0.00521217 0.30309 0)
(-0.0269104 0.307212 0)
(-0.170351 0.217174 0)
(-0.305793 0.145502 0)
(-0.412741 0.0977372 0)
(-0.495543 0.0671591 0)
(-0.559129 0.0476587 0)
(-0.60799 0.0349327 0)
(-0.64589 0.0263212 0)
(-0.675628 0.0202713 0)
(-0.699212 0.0158763 0)
(-0.718083 0.0125924 0)
(-0.733289 0.0100811 0)
(-0.745609 0.00812316 0)
(-0.755621 0.00657112 0)
(-0.763767 0.00532217 0)
(-0.770386 0.0043024 0)
(-0.775736 0.00345729 0)
(-0.780019 0.00274566 0)
(-0.78339 0.00213578 0)
(-0.785968 0.00160274 0)
(-0.787841 0.00112656 0)
(-0.789074 0.000690799 0)
(-0.789713 0.000281548 0)
(-0.789785 -0.00011347 0)
(-0.789299 -0.000505616 0)
(-0.788253 -0.000905981 0)
(-0.786625 -0.00132604 0)
(-0.784381 -0.00177829 0)
(-0.781467 -0.00227701 0)
(-0.777808 -0.00283909 0)
(-0.773305 -0.00348504 0)
(-0.76783 -0.00424044 0)
(-0.761219 -0.00513775 0)
(-0.75326 -0.00621896 0)
(-0.743686 -0.00753956 0)
(-0.73215 -0.00917457 0)
(-0.718209 -0.0112282 0)
(-0.701281 -0.0138496 0)
(-0.680601 -0.0172604 0)
(-0.655144 -0.0218014 0)
(-0.623523 -0.0280165 0)
(-0.583837 -0.0368018 0)
(-0.533484 -0.0496643 0)
(-0.469077 -0.0691191 0)
(-0.386719 -0.0990898 0)
(-0.282213 -0.144956 0)
(-0.152117 -0.212847 0)
(-0.0168645 -0.298621 0)
(-0.00111524 -0.294977 0)
(0.0321771 0.264047 0)
(0.0570829 0.361369 0)
(-0.00128544 0.322778 0)
(-0.0910283 0.257158 0)
(-0.184107 0.196473 0)
(-0.268936 0.148594 0)
(-0.341523 0.112994 0)
(-0.40178 0.0869127 0)
(-0.451184 0.0677029 0)
(-0.491529 0.0533643 0)
(-0.524475 0.04249 0)
(-0.551419 0.0341101 0)
(-0.573498 0.027555 0)
(-0.591615 0.0223563 0)
(-0.606489 0.0181798 0)
(-0.618688 0.0147825 0)
(-0.628659 0.0119837 0)
(-0.636757 0.0096467 0)
(-0.643263 0.00766606 0)
(-0.648393 0.0059592 0)
(-0.652318 0.00446027 0)
(-0.655165 0.00311578 0)
(-0.65703 0.00188127 0)
(-0.657977 0.000718706 0)
(-0.658047 -0.000405691 0)
(-0.657254 -0.00152327 0)
(-0.655592 -0.00266468 0)
(-0.653033 -0.00386148 0)
(-0.649524 -0.00514781 0)
(-0.644988 -0.00656218 0)
(-0.639319 -0.00814959 0)
(-0.632375 -0.00996396 0)
(-0.62398 -0.0120713 0)
(-0.613906 -0.014554 0)
(-0.601872 -0.0175164 0)
(-0.587525 -0.0210928 0)
(-0.570428 -0.0254594 0)
(-0.550036 -0.0308519 0)
(-0.525676 -0.0375909 0)
(-0.496516 -0.0461227 0)
(-0.461535 -0.0570779 0)
(-0.419516 -0.0713574 0)
(-0.369069 -0.0902461 0)
(-0.308788 -0.115532 0)
(-0.237718 -0.149512 0)
(-0.156497 -0.194451 0)
(-0.0694316 -0.25042 0)
(0.0121221 -0.309954 0)
(0.0617594 -0.343839 0)
(0.0329256 -0.250452 0)
(0.0273284 0.204744 0)
(0.064986 0.355362 0)
(0.0587386 0.370995 0)
(0.0149361 0.331779 0)
(-0.0481984 0.27733 0)
(-0.116477 0.224972 0)
(-0.181899 0.180467 0)
(-0.240846 0.144498 0)
(-0.292204 0.115991 0)
(-0.336111 0.0935104 0)
(-0.373241 0.075739 0)
(-0.404443 0.061605 0)
(-0.430559 0.0502768 0)
(-0.452354 0.0411199 0)
(-0.47049 0.0336509 0)
(-0.485525 0.0274997 0)
(-0.497923 0.02238 0)
(-0.508064 0.0180681 0)
(-0.516254 0.0143871 0)
(-0.522741 0.0111953 0)
(-0.527719 0.00837793 0)
(-0.531336 0.00584025 0)
(-0.533705 0.00350257 0)
(-0.534902 0.00129607 0)
(-0.534976 -0.000840783 0)
(-0.533945 -0.00296529 0)
(-0.531804 -0.00513336 0)
(-0.528518 -0.0074023 0)
(-0.524029 -0.0098335 0)
(-0.518248 -0.0124955 0)
(-0.511053 -0.0154669 0)
(-0.502289 -0.0188408 0)
(-0.49176 -0.0227288 0)
(-0.479223 -0.0272669 0)
(-0.464385 -0.0326235 0)
(-0.446892 -0.0390086 0)
(-0.426321 -0.0466881 0)
(-0.402182 -0.0560013 0)
(-0.373908 -0.0673853 0)
(-0.340874 -0.0814052 0)
(-0.302429 -0.0987891 0)
(-0.257982 -0.120456 0)
(-0.207181 -0.147501 0)
(-0.150259 -0.181068 0)
(-0.0886739 -0.221891 0)
(-0.0261752 -0.26905 0)
(0.0296041 -0.317042 0)
(0.0656193 -0.350092 0)
(0.065791 -0.332364 0)
(0.0268213 -0.190553 0)
(0.0187099 0.162216 0)
(0.0547509 0.327044 0)
(0.0731454 0.379076 0)
(0.0617212 0.368663 0)
(0.0274371 0.330275 0)
(-0.0191552 0.283548 0)
(-0.070074 0.238047 0)
(-0.1203 0.197606 0)
(-0.167075 0.163201 0)
(-0.209143 0.134554 0)
(-0.246151 0.110933 0)
(-0.278235 0.0915133 0)
(-0.305768 0.0755348 0)
(-0.329212 0.0623437 0)
(-0.349043 0.0513981 0)
(-0.365706 0.0422551 0)
(-0.379599 0.0345548 0)
(-0.391067 0.0280046 0)
(-0.400399 0.0223653 0)
(-0.407836 0.0174407 0)
(-0.413573 0.013068 0)
(-0.417761 0.00911079 0)
(-0.420516 0.00545247 0)
(-0.421919 0.00199125 0)
(-0.422023 -0.00136448 0)
(-0.420847 -0.00470034 0)
(-0.418389 -0.00809975 0)
(-0.414616 -0.0116477 0)
(-0.409468 -0.0154341 0)
(-0.402859 -0.0195583 0)
(-0.394671 -0.0241322 0)
(-0.384755 -0.0292855 0)
(-0.372928 -0.0351704 0)
(-0.35897 -0.0419678 0)
(-0.342625 -0.0498945 0)
(-0.3236 -0.0592112 0)
(-0.301571 -0.0702333 0)
(-0.276195 -0.0833412 0)
(-0.247132 -0.0989906 0)
(-0.214091 -0.117718 0)
(-0.176913 -0.140128 0)
(-0.135704 -0.166842 0)
(-0.0910661 -0.198358 0)
(-0.0444462 -0.234719 0)
(0.00136804 -0.274816 0)
(0.041666 -0.31502 0)
(0.0692896 -0.346708 0)
(0.0750668 -0.352465 0)
(0.0536391 -0.30165 0)
(0.0179355 -0.148871 0)
(0.0122584 0.132484 0)
(0.0427576 0.293548 0)
(0.0706491 0.366191 0)
(0.078736 0.379415 0)
(0.0665696 0.359021 0)
(0.0400209 0.322898 0)
(0.00515545 0.281829 0)
(-0.0332325 0.241586 0)
(-0.0718226 0.204852 0)
(-0.108567 0.172575 0)
(-0.142354 0.144808 0)
(-0.172694 0.121197 0)
(-0.199479 0.101232 0)
(-0.222821 0.0843769 0)
(-0.242946 0.07013 0)
(-0.260126 0.058044 0)
(-0.274641 0.0477313 0)
(-0.286755 0.0388608 0)
(-0.296707 0.0311515 0)
(-0.304702 0.0243653 0)
(-0.310913 0.0182998 0)
(-0.315481 0.0127816 0)
(-0.318512 0.0076602 0)
(-0.320085 0.00280253 0)
(-0.32025 -0.00191217 0)
(-0.319031 -0.00659716 0)
(-0.316426 -0.0113626 0)
(-0.312409 -0.0163199 0)
(-0.306928 -0.0215859 0)
(-0.299909 -0.0272871 0)
(-0.29125 -0.033564 0)
(-0.280829 -0.0405753 0)
(-0.268497 -0.0485026 0)
(-0.254086 -0.0575552 0)
(-0.23741 -0.0679747 0)
(-0.218277 -0.0800388 0)
(-0.196501 -0.0940647 0)
(-0.171927 -0.110407 0)
(-0.144475 -0.129451 0)
(-0.114196 -0.151584 0)
(-0.0813716 -0.177142 0)
(-0.0466528 -0.206293 0)
(-0.0112517 -0.238814 0)
(0.0228122 -0.27368 0)
(0.0524686 -0.308368 0)
(0.0734944 -0.337713 0)
(0.0807506 -0.352294 0)
(0.0694884 -0.336561 0)
(0.0408995 -0.267877 0)
(0.0115395 -0.120296 0)
(0.00819834 0.110894 0)
(0.0331681 0.261457 0)
(0.0631631 0.343809 0)
(0.0816658 0.373839 0)
(0.0845425 0.369448 0)
(0.0739516 0.34524 0)
(0.0536555 0.311482 0)
(0.0274129 0.274679 0)
(-0.00166424 0.238575 0)
(-0.0313007 0.205096 0)
(-0.0599831 0.175055 0)
(-0.0867929 0.148627 0)
(-0.111237 0.125649 0)
(-0.133108 0.105799 0)
(-0.152381 0.0886921 0)
(-0.169136 0.0739406 0)
(-0.183511 0.0611762 0)
(-0.195665 0.0500645 0)
(-0.205762 0.0403077 0)
(-0.213955 0.0316442 0)
(-0.220378 0.0238446 0)
(-0.225146 0.0167079 0)
(-0.22835 0.0100561 0)
(-0.230058 0.00372981 0)
(-0.230316 -0.00241708 0)
(-0.229148 -0.00852214 0)
(-0.226556 -0.014719 0)
(-0.222522 -0.0211417 0)
(-0.217009 -0.0279293 0)
(-0.20996 -0.0352298 0)
(-0.201302 -0.043204 0)
(-0.190948 -0.0520291 0)
(-0.1788 -0.0619019 0)
(-0.164754 -0.0730407 0)
(-0.148713 -0.0856866 0)
(-0.130596 -0.100101 0)
(-0.110364 -0.116561 0)
(-0.0880496 -0.135343 0)
(-0.0638006 -0.156699 0)
(-0.0379459 -0.180802 0)
(-0.0110788 -0.207664 0)
(0.0158343 -0.236983 0)
(0.0413304 -0.267898 0)
(0.063338 -0.298599 0)
(0.0791546 -0.325754 0)
(0.0856521 -0.343734 0)
(0.0798476 -0.343758 0)
(0.0602679 -0.313303 0)
(0.0310897 -0.236769 0)
(0.00759331 -0.0999413 0)
(0.00575672 0.094683 0)
(0.0262019 0.232733 0)
(0.0550721 0.317962 0)
(0.0783638 0.358765 0)
(0.0906362 0.367055 0)
(0.0916616 0.354017 0)
(0.0832439 0.328549 0)
(0.0679085 0.297024 0)
(0.0481659 0.263636 0)
(0.0261296 0.230933 0)
(0.00340624 0.200322 0)
(-0.0188717 0.172461 0)
(-0.0399604 0.147551 0)
(-0.0594105 0.125522 0)
(-0.0769831 0.106157 0)
(-0.0925816 0.0891722 0)
(-0.106201 0.0742587 0)
(-0.117891 0.061111 0)
(-0.12773 0.0494401 0)
(-0.135805 0.0389803 0)
(-0.142207 0.0294905 0)
(-0.147014 0.0207534 0)
(-0.150295 0.0125729 0)
(-0.152105 0.00477011 0)
(-0.15248 -0.0028204 0)
(-0.151443 -0.0103552 0)
(-0.149 -0.0179861 0)
(-0.145144 -0.0258644 0)
(-0.139854 -0.0341451 0)
(-0.133095 -0.0429899 0)
(-0.124828 -0.0525707 0)
(-0.115007 -0.0630717 0)
(-0.103587 -0.0746899 0)
(-0.0905365 -0.0876349 0)
(-0.0758426 -0.102125 0)
(-0.059534 -0.118379 0)
(-0.0417015 -0.136604 0)
(-0.0225309 -0.156966 0)
(-0.00234392 -0.179555 0)
(0.018349 -0.204317 0)
(0.0387869 -0.230951 0)
(0.0578936 -0.258761 0)
(0.0742262 -0.286422 0)
(0.0859725 -0.311672 0)
(0.0910685 -0.330901 0)
(0.0875379 -0.338715 0)
(0.0741058 -0.327608 0)
(0.051277 -0.288063 0)
(0.0241116 -0.209701 0)
(0.00524874 -0.0849341 0)
(0.00426094 0.0820606 0)
(0.0211909 0.207589 0)
(0.0477326 0.291722 0)
(0.0725767 0.338719 0)
(0.0902211 0.356322 0)
(0.0991343 0.352777 0)
(0.0997167 0.335369 0)
(0.09339 0.309855 0)
(0.0819519 0.280419 0)
(0.0671487 0.249899 0)
(0.0504694 0.220083 0)
(0.0330834 0.192009 0)
(0.0158531 0.166197 0)
(-0.000620496 0.142826 0)
(-0.015943 0.121866 0)
(-0.0298749 0.10316 0)
(-0.0422869 0.0864862 0)
(-0.0531249 0.0715931 0)
(-0.0623834 0.058222 0)
(-0.0700854 0.0461214 0)
(-0.0762689 0.0350535 0)
(-0.0809768 0.0247971 0)
(-0.0842504 0.0151477 0)
(-0.0861257 0.00591544 0)
(-0.086631 -0.00307732 0)
(-0.0857852 -0.0119995 0)
(-0.0835987 -0.021015 0)
(-0.0800734 -0.0302858 0)
(-0.0752047 -0.0399756 0)
(-0.0689842 -0.0502521 0)
(-0.0614032 -0.0612888 0)
(-0.0524579 -0.0732658 0)
(-0.042157 -0.0863679 0)
(-0.0305312 -0.100781 0)
(-0.0176464 -0.116685 0)
(-0.00362097 -0.134239 0)
(0.0113524 -0.153563 0)
(0.0269789 -0.174704 0)
(0.0428287 -0.197588 0)
(0.0583009 -0.221952 0)
(0.072588 -0.247244 0)
(0.0846519 -0.27248 0)
(0.0932294 -0.296066 0)
(0.096899 -0.315565 0)
(0.0942619 -0.327458 0)
(0.0842983 -0.326941 0)
(0.0668864 -0.307916 0)
(0.0435373 -0.263379 0)
(0.0191741 -0.186539 0)
(0.00382655 -0.0734461 0)
(0.00329784 0.0719021 0)
(0.0175001 0.185701 0)
(0.0414018 0.266577 0)
(0.0660142 0.316547 0)
(0.086322 0.340574 0)
(0.100216 0.344599 0)
(0.107207 0.33438 0)
(0.107863 0.31486 0)
(0.103319 0.28993 0)
(0.0948888 0.262453 0)
(0.0838279 0.234412 0)
(0.0712215 0.207094 0)
(0.0579448 0.181265 0)
(0.0446664 0.157324 0)
(0.0318746 0.135415 0)
(0.01991 0.115518 0)
(0.00899848 0.0975099 0)
(-0.000719455 0.0812083 0)
(-0.00916417 0.0664012 0)
(-0.0162978 0.0528664 0)
(-0.0221094 0.0403824 0)
(-0.0266044 0.0287356 0)
(-0.0297964 0.0177228 0)
(-0.0317027 0.00715183 0)
(-0.0323399 -0.00315959 0)
(-0.0317234 -0.0133859 0)
(-0.0298656 -0.0236961 0)
(-0.0267778 -0.0342563 0)
(-0.022471 -0.045232 0)
(-0.0169591 -0.056789 0)
(-0.0102631 -0.0690945 0)
(-0.00241677 -0.0823152 0)
(0.00652562 -0.0966141 0)
(0.0164797 -0.112143 0)
(0.0273183 -0.129034 0)
(0.0388561 -0.147379 0)
(0.0508313 -0.167207 0)
(0.0628845 -0.188449 0)
(0.0745369 -0.21089 0)
(0.0851702 -0.234097 0)
(0.0940151 -0.257335 0)
(0.100158 -0.27945 0)
(0.102585 -0.298736 0)
(0.100277 -0.312787 0)
(0.0924086 -0.318378 0)
(0.0786567 -0.311418 0)
(0.0595873 -0.2871 0)
(0.0371073 -0.240351 0)
(0.0155967 -0.166758 0)
(0.00292066 -0.0643439 0)
(0.00263866 0.0635214 0)
(0.0146827 0.166645 0)
(0.0359885 0.243196 0)
(0.0594184 0.293979 0)
(0.0806236 0.322147 0)
(0.0973487 0.33193 0)
(0.108606 0.327777 0)
(0.114368 0.313793 0)
(0.115229 0.293434 0)
(0.112086 0.26942 0)
(0.105924 0.243772 0)
(0.0976734 0.217908 0)
(0.0881496 0.192763 0)
(0.0780228 0.168903 0)
(0.0678203 0.146626 0)
(0.0579416 0.126039 0)
(0.0486784 0.107118 0)
(0.0402362 0.0897569 0)
(0.0327541 0.0738011 0)
(0.0263219 0.0590673 0)
(0.0209935 0.0453607 0)
(0.0167981 0.0324848 0)
(0.0137483 0.0202468 0)
(0.0118455 0.00845983 0)
(0.0110845 -0.00305561 0)
(0.0114551 -0.0144727 0)
(0.0129434 -0.0259593 0)
(0.015531 -0.0376791 0)
(0.0191938 -0.049793 0)
(0.0238989 -0.0624586 0)
(0.0296004 -0.0758298 0)
(0.036234 -0.0900534 0)
(0.0437094 -0.105264 0)
(0.0519017 -0.121574 0)
(0.0606406 -0.139063 0)
(0.0696976 -0.157755 0)
(0.0787727 -0.177597 0)
(0.0874803 -0.198419 0)
(0.0953382 -0.219888 0)
(0.101761 -0.241451 0)
(0.106068 -0.262261 0)
(0.107509 -0.281088 0)
(0.105323 -0.296233 0)
(0.0988496 -0.305444 0)
(0.0877035 -0.305879 0)
(0.0720213 -0.294151 0)
(0.0527266 -0.266533 0)
(0.0317791 -0.219376 0)
(0.0129135 -0.149812 0)
(0.00230847 -0.0569384 0)
(0.00215948 0.0564912 0)
(0.0124504 0.150038 0)
(0.0313266 0.221837 0)
(0.0530904 0.272045 0)
(0.074066 0.302646 0)
(0.0920831 0.316631 0)
(0.105924 0.317394 0)
(0.115182 0.308272 0)
(0.120046 0.292241 0)
(0.121062 0.271782 0)
(0.118946 0.248844 0)
(0.11445 0.224882 0)
(0.108287 0.200926 0)
(0.101082 0.17766 0)
(0.0933578 0.155501 0)
(0.0855374 0.134663 0)
(0.0779485 0.115217 0)
(0.0708393 0.0971339 0)
(0.0643919 0.0803164 0)
(0.0587361 0.0646277 0)
(0.0539611 0.0499067 0)
(0.0501253 0.0359813 0)
(0.0472645 0.0226759 0)
(0.0453971 0.00981614 0)
(0.0445289 -0.00276858 0)
(0.0446552 -0.0152441 0)
(0.0457621 -0.0277713 0)
(0.0478264 -0.0405061 0)
(0.0508139 -0.0535993 0)
(0.0546771 -0.0671952 0)
(0.0593515 -0.0814294 0)
(0.0647499 -0.0964244 0)
(0.0707568 -0.112283 0)
(0.0772204 -0.129076 0)
(0.0839444 -0.146833 0)
(0.0906786 -0.165515 0)
(0.0971103 -0.184996 0)
(0.102858 -0.205025 0)
(0.107466 -0.225185 0)
(0.110413 -0.244846 0)
(0.111128 -0.263106 0)
(0.109028 -0.278733 0)
(0.103581 -0.29011 0)
(0.094414 -0.295202 0)
(0.0814524 -0.291568 0)
(0.0651087 -0.276448 0)
(0.0464498 -0.246977 0)
(0.0273161 -0.200532 0)
(0.0108261 -0.135246 0)
(0.00186974 -0.0508007 0)
(0.00179251 0.0505338 0)
(0.0106222 0.135563 0)
(0.0272645 0.20256 0)
(0.0471393 0.251345 0)
(0.0671809 0.283146 0)
(0.085414 0.300073 0)
(0.100561 0.304698 0)
(0.111999 0.299693 0)
(0.119637 0.287575 0)
(0.123745 0.270539 0)
(0.124802 0.250399 0)
(0.123385 0.228578 0)
(0.120084 0.20614 0)
(0.115451 0.183839 0)
(0.109978 0.162175 0)
(0.10408 0.141451 0)
(0.0980961 0.121818 0)
(0.0922968 0.103315 0)
(0.0868909 0.0859052 0)
(0.0820359 0.0694987 0)
(0.077847 0.0539719 0)
(0.0744056 0.0391818 0)
(0.0717662 0.0249753 0)
(0.0699619 0.0111957 0)
(0.0690085 -0.00231348 0)
(0.0689067 -0.0157057 0)
(0.069644 -0.0291303 0)
(0.0711942 -0.0427308 0)
(0.0735169 -0.0566438 0)
(0.0765547 -0.0709965 0)
(0.0802303 -0.0859032 0)
(0.0844422 -0.10146 0)
(0.0890597 -0.117736 0)
(0.0939165 -0.134764 0)
(0.0988054 -0.152525 0)
(0.103472 -0.170927 0)
(0.10761 -0.189783 0)
(0.110862 -0.208784 0)
(0.112819 -0.227456 0)
(0.113036 -0.245129 0)
(0.111054 -0.260894 0)
(0.106442 -0.273562 0)
(0.0988614 -0.281642 0)
(0.0881489 -0.283335 0)
(0.0744356 -0.276579 0)
(0.0582781 -0.259144 0)
(0.0407574 -0.228833 0)
(0.0235214 -0.183755 0)
(0.00914721 -0.122695 0)
(0.00153864 -0.0456528 0)
(0.00149971 0.0454587 0)
(0.00908468 0.122961 0)
(0.0236846 0.185331 0)
(0.0415944 0.232215 0)
(0.060276 0.264358 0)
(0.0779898 0.283245 0)
(0.0934983 0.29082 0)
(0.106079 0.28921 0)
(0.115462 0.280509 0)
(0.121714 0.26663 0)
(0.125123 0.249215 0)
(0.126103 0.22961 0)
(0.125124 0.208868 0)
(0.122654 0.187771 0)
(0.119132 0.166877 0)
(0.114947 0.146548 0)
(0.11043 0.127003 0)
(0.105856 0.10834 0)
(0.101446 0.0905782 0)
(0.0973743 0.0736721 0)
(0.093772 0.0575373 0)
(0.090737 0.0420623 0)
(0.0883378 0.0271196 0)
(0.0866191 0.0125738 0)
(0.0856049 -0.00171345 0)
(0.0853014 -0.0158798 0)
(0.0856982 -0.0300591 0)
(0.0867684 -0.0443795 0)
(0.0884684 -0.0589603 0)
(0.0907355 -0.0739094 0)
(0.0934858 -0.0893182 0)
(0.0966107 -0.105255 0)
(0.0999729 -0.121759 0)
(0.103403 -0.138825 0)
(0.106694 -0.156393 0)
(0.109601 -0.174326 0)
(0.111838 -0.192393 0)
(0.113081 -0.210242 0)
(0.112979 -0.227369 0)
(0.111163 -0.243093 0)
(0.107281 -0.256527 0)
(0.101031 -0.266556 0)
(0.0922188 -0.271832 0)
(0.0808319 -0.270788 0)
(0.0671236 -0.261695 0)
(0.051706 -0.24276 0)
(0.0356023 -0.212295 0)
(0.0202468 -0.16893 0)
(0.00775846 -0.111876 0)
(0.00127807 -0.0413055 0)
(0.00125883 0.0411289 0)
(0.0077655 0.112023 0)
(0.0205007 0.170066 0)
(0.0364539 0.214827 0)
(0.0535333 0.246737 0)
(0.0702393 0.266842 0)
(0.0854294 0.276613 0)
(0.0983583 0.277738 0)
(0.108655 0.271949 0)
(0.116245 0.260888 0)
(0.12127 0.246019 0)
(0.124009 0.228585 0)
(0.124818 0.209596 0)
(0.124082 0.189835 0)
(0.122176 0.169886 0)
(0.119452 0.150156 0)
(0.11622 0.13091 0)
(0.112744 0.112299 0)
(0.109248 0.0943875 0)
(0.105908 0.0771734 0)
(0.102867 0.0606094 0)
(0.100231 0.044616 0)
(0.0980782 0.0290931 0)
(0.0964611 0.0139283 0)
(0.0954106 -0.000996135 0)
(0.0949376 -0.0157994 0)
(0.0950344 -0.0305979 0)
(0.0956754 -0.0455018 0)
(0.0968165 -0.0606119 0)
(0.0983938 -0.0760152 0)
(0.100322 -0.09178 0)
(0.102491 -0.107949 0)
(0.104766 -0.124531 0)
(0.10698 -0.141489 0)
(0.108938 -0.158727 0)
(0.110412 -0.176076 0)
(0.111144 -0.19327 0)
(0.110852 -0.209932 0)
(0.10924 -0.225546 0)
(0.106014 -0.239441 0)
(0.100911 -0.250771 0)
(0.0937335 -0.25851 0)
(0.0843948 -0.261452 0)
(0.0729786 -0.258246 0)
(0.0598016 -0.247447 0)
(0.0454746 -0.227612 0)
(0.0309272 -0.197436 0)
(0.0173845 -0.155923 0)
(0.00658382 -0.102566 0)
(0.00106626 -0.0376243 0)
(0.0010563 0.0374404 0)
(0.00661735 0.102572 0)
(0.0176505 0.15666 0)
(0.0317042 0.199246 0)
(0.0470612 0.23056 0)
(0.0624483 0.25134 0)
(0.0768438 0.262702 0)
(0.0895288 0.265989 0)
(0.100086 0.262629 0)
(0.108353 0.254022 0)
(0.114364 0.241458 0)
(0.118291 0.226068 0)
(0.120392 0.2088 0)
(0.12097 0.190418 0)
(0.120341 0.171509 0)
(0.118809 0.152507 0)
(0.116655 0.133712 0)
(0.114125 0.115313 0)
(0.111432 0.097415 0)
(0.108752 0.0800532 0)
(0.106226 0.0632149 0)
(0.103966 0.0468513 0)
(0.102054 0.0308894 0)
(0.100548 0.015241 0)
(0.0994832 -0.000190434 0)
(0.0988749 -0.0155042 0)
(0.0987184 -0.0307977 0)
(0.0989904 -0.0461625 0)
(0.0996489 -0.0616798 0)
(0.100632 -0.0774161 0)
(0.101857 -0.0934172 0)
(0.103219 -0.109701 0)
(0.104588 -0.126251 0)
(0.10581 -0.143001 0)
(0.106704 -0.159828 0)
(0.107066 -0.176536 0)
(0.106669 -0.192839 0)
(0.105275 -0.208344 0)
(0.102641 -0.222538 0)
(0.0985372 -0.234772 0)
(0.0927758 -0.244254 0)
(0.0852364 -0.250046 0)
(0.0759076 -0.251082 0)
(0.0649297 -0.246197 0)
(0.0526406 -0.234184 0)
(0.0396164 -0.213876 0)
(0.0266773 -0.184259 0)
(0.0148561 -0.1446 0)
(0.00557292 -0.0945833 0)
(0.000889856 -0.0345092 0)
(0.000883318 0.0343107 0)
(0.00560788 0.0944584 0)
(0.0150874 0.144997 0)
(0.0273265 0.185471 0)
(0.0409216 0.215981 0)
(0.0548051 0.237051 0)
(0.0680848 0.249532 0)
(0.0800968 0.254498 0)
(0.0904171 0.253129 0)
(0.098834 0.246615 0)
(0.105308 0.236086 0)
(0.10993 0.222562 0)
(0.112879 0.20692 0)
(0.114386 0.189889 0)
(0.114707 0.17205 0)
(0.1141 0.153845 0)
(0.11281 0.135596 0)
(0.111061 0.117523 0)
(0.109048 0.0997617 0)
(0.106937 0.08238 0)
(0.104868 0.0653956 0)
(0.102948 0.0487883 0)
(0.101263 0.0325108 0)
(0.0998708 0.0164984 0)
(0.0988107 0.000676188 0)
(0.0981003 -0.0150353 0)
(0.0977383 -0.0307142 0)
(0.0977051 -0.0464333 0)
(0.0979623 -0.0622547 0)
(0.0984528 -0.0782248 0)
(0.0990996 -0.0943685 0)
(0.0998056 -0.110682 0)
(0.100452 -0.127124 0)
(0.1009 -0.143607 0)
(0.100987 -0.159986 0)
(0.100536 -0.176045 0)
(0.0993535 -0.191484 0)
(0.0972397 -0.205908 0)
(0.0940007 -0.218814 0)
(0.0894628 -0.229582 0)
(0.0834947 -0.237476 0)
(0.0760334 -0.241646 0)
(0.0671146 -0.241148 0)
(0.0569058 -0.23498 0)
(0.0457389 -0.222126 0)
(0.0341353 -0.201639 0)
(0.0228033 -0.172722 0)
(0.012603 -0.134833 0)
(0.004691 -0.0877808 0)
(0.000740173 -0.031883 0)
(0.000733877 0.0316727 0)
(0.00471369 0.0875502 0)
(0.0127747 0.134959 0)
(0.0232986 0.173459 0)
(0.0351449 0.203072 0)
(0.0474288 0.224169 0)
(0.0593866 0.23741 0)
(0.0704249 0.243658 0)
(0.0801387 0.243894 0)
(0.0882962 0.239134 0)
(0.0948128 0.230365 0)
(0.0997199 0.2185 0)
(0.103134 0.204347 0)
(0.105225 0.188592 0)
(0.106197 0.171798 0)
(0.106262 0.154406 0)
(0.105628 0.136753 0)
(0.104493 0.119077 0)
(0.10303 0.101539 0)
(0.101395 0.0842333 0)
(0.0997137 0.0672041 0)
(0.098092 0.0504564 0)
(0.0966109 0.0339668 0)
(0.0953299 0.0176927 0)
(0.094288 0.00157961 0)
(0.0935054 -0.0144325 0)
(0.0929838 -0.0304033 0)
(0.0927076 -0.0463874 0)
(0.0926436 -0.0624286 0)
(0.092741 -0.0785548 0)
(0.0929313 -0.0947717 0)
(0.0931279 -0.111056 0)
(0.0932258 -0.127347 0)
(0.0931023 -0.143539 0)
(0.0926186 -0.159468 0)
(0.0916222 -0.174906 0)
(0.089952 -0.189546 0)
(0.0874458 -0.202995 0)
(0.0839509 -0.214765 0)
(0.0793379 -0.22427 0)
(0.0735193 -0.230828 0)
(0.0664705 -0.233669 0)
(0.0582538 -0.231956 0)
(0.0490428 -0.224821 0)
(0.0391448 -0.211406 0)
(0.0290175 -0.190932 0)
(0.0192597 -0.162765 0)
(0.0105795 -0.126501 0)
(0.00391278 -0.0820353 0)
(0.000611249 -0.0296845 0)
(0.000603571 0.0294703 0)
(0.0039167 0.0817328 0)
(0.0106814 0.126428 0)
(0.0195946 0.163141 0)
(0.0297378 0.191843 0)
(0.040387 0.212802 0)
(0.0509006 0.226535 0)
(0.0607629 0.233747 0)
(0.069604 0.235259 0)
(0.077193 0.231943 0)
(0.0834211 0.224665 0)
(0.0882801 0.214244 0)
(0.0918386 0.201417 0)
(0.0942191 0.186828 0)
(0.0955769 0.171016 0)
(0.0960834 0.154415 0)
(0.0959125 0.137367 0)
(0.0952313 0.120122 0)
(0.0941934 0.10286 0)
(0.0929346 0.0856972 0)
(0.0915714 0.0686985 0)
(0.0902 0.0518911 0)
(0.0888967 0.0352728 0)
(0.0877183 0.0188211 0)
(0.0867037 0.00250026 0)
(0.085874 -0.0137317 0)
(0.085234 -0.0299172 0)
(0.0847722 -0.046094 0)
(0.0844613 -0.0622891 0)
(0.0842584 -0.0785138 0)
(0.0841047 -0.0947568 0)
(0.0839259 -0.110978 0)
(0.0836323 -0.1271 0)
(0.0831198 -0.143003 0)
(0.0822716 -0.158509 0)
(0.0809613 -0.173381 0)
(0.0790575 -0.187311 0)
(0.0764309 -0.19991 0)
(0.0729635 -0.210709 0)
(0.0685607 -0.219153 0)
(0.0631664 -0.224611 0)
(0.05678 -0.226382 0)
(0.0494743 -0.223721 0)
(0.0414143 -0.215869 0)
(0.032872 -0.202095 0)
(0.0242364 -0.181747 0)
(0.0160038 -0.154316 0)
(0.00874804 -0.119498 0)
(0.00321879 -0.0772436 0)
(0.000498717 -0.0278643 0)
(0.000488959 0.0276563 0)
(0.00320191 0.0769052 0)
(0.00877934 0.119294 0)
(0.0161852 0.154436 0)
(0.0246891 0.182273 0)
(0.0337082 0.203 0)
(0.0427145 0.217032 0)
(0.0512717 0.224955 0)
(0.0590549 0.227465 0)
(0.0658482 0.225318 0)
(0.0715346 0.21928 0)
(0.0760819 0.210085 0)
(0.0795245 0.19841 0)
(0.0819462 0.184856 0)
(0.0834633 0.169935 0)
(0.0842101 0.154072 0)
(0.0843278 0.137606 0)
(0.0839552 0.120797 0)
(0.0832225 0.103836 0)
(0.0822473 0.0868557 0)
(0.0811317 0.0699389 0)
(0.0799618 0.0531312 0)
(0.0788066 0.0364485 0)
(0.077719 0.0198855 0)
(0.0767359 0.00342359 0)
(0.075879 -0.0129633 0)
(0.0751554 -0.0293021 0)
(0.074558 -0.0456154 0)
(0.0740659 -0.0619156 0)
(0.0736446 -0.0781992 0)
(0.0732463 -0.0944404 0)
(0.0728098 -0.110585 0)
(0.0722615 -0.126543 0)
(0.0715164 -0.14218 0)
(0.0704794 -0.157311 0)
(0.069049 -0.171694 0)
(0.0671208 -0.185018 0)
(0.0645941 -0.196903 0)
(0.0613793 -0.206897 0)
(0.0574084 -0.214475 0)
(0.0526466 -0.219049 0)
(0.0471055 -0.219977 0)
(0.0408575 -0.21659 0)
(0.0340483 -0.208217 0)
(0.0269078 -0.194223 0)
(0.0197562 -0.174057 0)
(0.0129935 -0.147304 0)
(0.00707574 -0.113727 0)
(0.00259309 -0.0733196 0)
(0.000399179 -0.0263824 0)
(0.000387192 0.0261908 0)
(0.00255615 0.0729799 0)
(0.00704184 0.113456 0)
(0.013037 0.147259 0)
(0.019973 0.174315 0)
(0.0273907 0.194772 0)
(0.0348665 0.20897 0)
(0.0420427 0.217406 0)
(0.0486442 0.220682 0)
(0.0544796 0.219464 0)
(0.0594359 0.214433 0)
(0.0634684 0.206255 0)
(0.0665885 0.195554 0)
(0.0688504 0.182891 0)
(0.0703383 0.168753 0)
(0.0711546 0.153552 0)
(0.0714103 0.137622 0)
(0.0712174 0.121228 0)
(0.0706829 0.104569 0)
(0.0699053 0.0877884 0)
(0.0689715 0.0709843 0)
(0.0679555 0.0542164 0)
(0.0669182 0.0375157 0)
(0.0659069 0.0208917 0)
(0.0649556 0.00434003 0)
(0.0640858 -0.0121515 0)
(0.0633066 -0.0285967 0)
(0.0626151 -0.0450051 0)
(0.0619969 -0.0613765 0)
(0.0614265 -0.077695 0)
(0.0608672 -0.0939229 0)
(0.0602717 -0.109994 0)
(0.0595829 -0.125808 0)
(0.0587344 -0.141222 0)
(0.0576526 -0.156043 0)
(0.0562589 -0.170024 0)
(0.0544734 -0.182858 0)
(0.05222 -0.19417 0)
(0.0494323 -0.203525 0)
(0.0460618 -0.210422 0)
(0.0420868 -0.214308 0)
(0.037523 -0.214593 0)
(0.0324335 -0.210663 0)
(0.026938 -0.201918 0)
(0.0212207 -0.187798 0)
(0.0155334 -0.167828 0)
(0.0101871 -0.141658 0)
(0.00553262 -0.109106 0)
(0.00202189 -0.0701924 0)
(0.000309833 -0.0252065 0)
(0.000295785 0.025041 0)
(0.0019673 0.069882 0)
(0.0054426 0.108823 0)
(0.0101138 0.141527 0)
(0.0155524 0.167915 0)
(0.0214094 0.188103 0)
(0.0273569 0.202379 0)
(0.0331126 0.211177 0)
(0.038454 0.215028 0)
(0.0432205 0.214527 0)
(0.0473106 0.210292 0)
(0.0506765 0.202933 0)
(0.0533153 0.193029 0)
(0.0552592 0.181107 0)
(0.0565666 0.167632 0)
(0.0573123 0.153001 0)
(0.0575805 0.137544 0)
(0.057458 0.121525 0)
(0.0570295 0.105149 0)
(0.0563742 0.0885676 0)
(0.0555631 0.071889 0)
(0.0546577 0.0551847 0)
(0.0537093 0.0384972 0)
(0.0527587 0.0218481 0)
(0.0518365 0.00524451 0)
(0.0509631 -0.0113144 0)
(0.050149 -0.0278316 0)
(0.0493957 -0.0443062 0)
(0.0486951 -0.0607276 0)
(0.0480307 -0.0770701 0)
(0.0473774 -0.0932864 0)
(0.0467018 -0.109302 0)
(0.0459629 -0.125006 0)
(0.0451131 -0.140251 0)
(0.044099 -0.154837 0)
(0.0428638 -0.168516 0)
(0.0413497 -0.18098 0)
(0.0395015 -0.191863 0)
(0.0372717 -0.20074 0)
(0.0346259 -0.20713 0)
(0.0315497 -0.21051 0)
(0.0280563 -0.210324 0)
(0.0241935 -0.206005 0)
(0.0200507 -0.197003 0)
(0.015764 -0.182814 0)
(0.0115186 -0.16302 0)
(0.00754214 -0.13732 0)
(0.00409037 -0.105569 0)
(0.00149276 -0.0678054 0)
(0.000228255 -0.0243114 0)
(0.000212494 0.02418 0)
(0.00142385 0.0675497 0)
(0.00395541 0.105317 0)
(0.00737616 0.137167 0)
(0.0113819 0.163017 0)
(0.0157219 0.182965 0)
(0.020157 0.197266 0)
(0.024477 0.206309 0)
(0.0285125 0.210575 0)
(0.0321371 0.210608 0)
(0.035267 0.206977 0)
(0.0378575 0.200251 0)
(0.0398977 0.190972 0)
(0.0414042 0.17964 0)
(0.0424145 0.166701 0)
(0.04298 0.152539 0)
(0.0431608 0.137477 0)
(0.0430205 0.12178 0)
(0.0426225 0.105653 0)
(0.0420268 0.0892553 0)
(0.0412885 0.0727012 0)
(0.040456 0.0560705 0)
(0.0395705 0.0394148 0)
(0.0386656 0.0227645 0)
(0.0377677 0.00613562 0)
(0.0368955 -0.0104642 0)
(0.036061 -0.0270295 0)
(0.035269 -0.0435515 0)
(0.0345181 -0.0600119 0)
(0.0338008 -0.0763777 0)
(0.0331031 -0.0925945 0)
(0.0324058 -0.10858 0)
(0.0316841 -0.12422 0)
(0.0309083 -0.139359 0)
(0.0300448 -0.153795 0)
(0.0290572 -0.167276 0)
(0.0279076 -0.179496 0)
(0.0265598 -0.190093 0)
(0.0249815 -0.19865 0)
(0.0231486 -0.2047 0)
(0.0210497 -0.207739 0)
(0.0186907 -0.207236 0)
(0.0161004 -0.202657 0)
(0.0133348 -0.193487 0)
(0.0104807 -0.179263 0)
(0.00765814 -0.159603 0)
(0.00501567 -0.134242 0)
(0.00272156 -0.103063 0)
(0.000994071 -0.0661155 0)
(0.000152264 -0.0236781 0)
(0.000135235 0.023587 0)
(0.000914707 0.0659342 0)
(0.00255401 0.102876 0)
(0.00478283 0.134114 0)
(0.00740946 0.159568 0)
(0.0102731 0.179326 0)
(0.0132171 0.193624 0)
(0.0161007 0.202821 0)
(0.0188071 0.207368 0)
(0.0212462 0.207772 0)
(0.0233551 0.204572 0)
(0.0250967 0.198303 0)
(0.0264571 0.189483 0)
(0.0274416 0.178591 0)
(0.0280705 0.166057 0)
(0.0283754 0.152255 0)
(0.0283946 0.137504 0)
(0.0281701 0.122064 0)
(0.0277448 0.106143 0)
(0.0271604 0.0899018 0)
(0.0264559 0.0734601 0)
(0.0256663 0.0569029 0)
(0.0248223 0.0402877 0)
(0.02395 0.0236509 0)
(0.0230707 0.00701461 0)
(0.0222014 -0.00960773 0)
(0.0213545 -0.0262052 0)
(0.0205386 -0.0427635 0)
(0.0197583 -0.0592596 0)
(0.0190148 -0.0756554 0)
(0.0183058 -0.0918919 0)
(0.0176255 -0.107883 0)
(0.0169653 -0.123509 0)
(0.0163133 -0.138612 0)
(0.0156549 -0.152987 0)
(0.0149732 -0.166379 0)
(0.0142495 -0.178483 0)
(0.0134644 -0.188938 0)
(0.0125989 -0.197329 0)
(0.0116368 -0.203199 0)
(0.0105666 -0.206053 0)
(0.00938435 -0.205374 0)
(0.00809702 -0.200648 0)
(0.0067252 -0.191382 0)
(0.00530598 -0.177136 0)
(0.00389478 -0.157553 0)
(0.00256408 -0.132392 0)
(0.00139928 -0.101551 0)
(0.000514727 -0.0650933 0)
(7.9834e-05 -0.0232935 0)
(6.20307e-05 0.0232469 0)
(0.000429016 0.0649993 0)
(0.00121203 0.101452 0)
(0.00229093 0.132319 0)
(0.00357872 0.157525 0)
(0.0049989 0.177156 0)
(0.00647306 0.191438 0)
(0.00792722 0.200719 0)
(0.00929665 0.205429 0)
(0.0105283 0.20606 0)
(0.0115823 0.203127 0)
(0.0124317 0.197149 0)
(0.0130626 0.188628 0)
(0.0134718 0.178027 0)
(0.0136657 0.165767 0)
(0.0136576 0.152215 0)
(0.0134662 0.137683 0)
(0.0131132 0.12243 0)
(0.0126219 0.106663 0)
(0.0120161 0.0905443 0)
(0.0113185 0.0741955 0)
(0.010551 0.0577042 0)
(0.00973326 0.0411312 0)
(0.0088834 0.0245162 0)
(0.00801757 0.00788431 0)
(0.00715019 -0.0087479 0)