/*--------------------------------*- C++ -*----------------------------------*\
  =========                 |
  \\      /  F ield         | OpenFOAM: The Open Source CFD Toolbox
   \\    /   O peration     | Website:  https://openfoam.org
    \\  /    A nd           | Version:  7
     \\/     M anipulation  |
\*---------------------------------------------------------------------------*/
FoamFile
{
    version     2.0;
    format      ascii;
    class       volScalarField;
    location    "0.0476";
    object      p;
}
// * * * * * * * * * * * * * * * * * * * * * * * * * * * * * * * * * * * * * //

dimensions      [0 2 -2 0 0 0 0];

internalField   nonuniform List<scalar> 
2500
(
9.78775e-06
-6.51195
-9.29708
-10.4929
-11.1583
-11.5645
-11.8281
-12.0128
-12.1504
-12.2574
-12.343
-12.413
-12.4711
-12.5199
-12.5611
-12.5961
-12.626
-12.6515
-12.6733
-12.692
-12.7079
-12.7215
-12.7331
-12.743
-12.7516
-12.7591
-12.7659
-12.7723
-12.7786
-12.7852
-12.7925
-12.8008
-12.8107
-12.8227
-12.8376
-12.8561
-12.8791
-12.9081
-12.9448
-12.9914
-13.0514
-13.1302
-13.2364
-13.3856
-13.6087
-13.9667
-14.5666
-15.6674
-18.3346
-24.7194
-4.95548
-7.67546
-9.18223
-10.1424
-10.8102
-11.2703
-11.5919
-11.8253
-12.0007
-12.1364
-12.2441
-12.3313
-12.403
-12.4629
-12.5132
-12.556
-12.5925
-12.6239
-12.6509
-12.6742
-12.6945
-12.7121
-12.7276
-12.7413
-12.7535
-12.7648
-12.7754
-12.7856
-12.7959
-12.8067
-12.8185
-12.8318
-12.8471
-12.8653
-12.8871
-12.9136
-12.9462
-12.9867
-13.0374
-13.1017
-13.1845
-13.2929
-13.438
-13.6372
-13.9197
-14.3334
-14.9433
-15.8315
-17.2515
-19.8505
-7.92496
-8.75741
-9.55844
-10.2395
-10.7798
-11.19
-11.4996
-11.7365
-11.9207
-12.0663
-12.1835
-12.2792
-12.3584
-12.4247
-12.4808
-12.5286
-12.5696
-12.6049
-12.6356
-12.6623
-12.6857
-12.7063
-12.7247
-12.7411
-12.7562
-12.7702
-12.7835
-12.7966
-12.8099
-12.8238
-12.8389
-12.8557
-12.8749
-12.8972
-12.9237
-12.9555
-12.9941
-13.0414
-13.1
-13.1734
-13.2663
-13.3856
-13.5407
-13.7455
-14.0191
-14.3879
-14.8803
-15.5083
-16.2539
-17.0172
-9.43442
-9.64781
-10.0669
-10.512
-10.9051
-11.2323
-11.499
-11.7149
-11.89
-12.0329
-12.1506
-12.2484
-12.3305
-12.3999
-12.4591
-12.5099
-12.5538
-12.5919
-12.6251
-12.6543
-12.6801
-12.703
-12.7236
-12.7423
-12.7595
-12.7756
-12.7912
-12.8065
-12.8221
-12.8383
-12.8559
-12.8753
-12.8972
-12.9225
-12.952
-12.9871
-13.0292
-13.08
-13.1421
-13.2183
-13.3128
-13.4307
-13.5787
-13.7652
-14
-14.2923
-14.6477
-15.0537
-15.4359
-15.6137
-10.3199
-10.3194
-10.5234
-10.8003
-11.0751
-11.3253
-11.5442
-11.7313
-11.8896
-12.0233
-12.1364
-12.2323
-12.3142
-12.3843
-12.4448
-12.4972
-12.5429
-12.5828
-12.6179
-12.6489
-12.6766
-12.7013
-12.7237
-12.7442
-12.7632
-12.7811
-12.7985
-12.8156
-12.833
-12.8512
-12.8707
-12.892
-12.9159
-12.9432
-12.9748
-13.0118
-13.0556
-13.1077
-13.1702
-13.2454
-13.3365
-13.4468
-13.5804
-13.7413
-13.9325
-14.154
-14.3997
-14.6486
-14.8283
-14.8098
-10.8865
-10.8123
-10.9011
-11.0687
-11.2567
-11.4432
-11.6174
-11.7742
-11.9125
-12.0333
-12.1383
-12.2294
-12.3085
-12.3774
-12.4376
-12.4902
-12.5366
-12.5774
-12.6137
-12.6459
-12.6748
-12.7009
-12.7247
-12.7465
-12.7669
-12.7863
-12.805
-12.8235
-12.8424
-12.8619
-12.8828
-12.9054
-12.9306
-12.9591
-12.9916
-13.0292
-13.0731
-13.1246
-13.1851
-13.2566
-13.3409
-13.4402
-13.5561
-13.6899
-13.8406
-14.0038
-14.1695
-14.3171
-14.3906
-14.3089
-11.2686
-11.1776
-11.2078
-11.307
-11.4335
-11.57
-11.7057
-11.8341
-11.9519
-12.0583
-12.1532
-12.2375
-12.3122
-12.3782
-12.4367
-12.4885
-12.5345
-12.5755
-12.6122
-12.645
-12.6747
-12.7016
-12.7262
-12.749
-12.7704
-12.7907
-12.8105
-12.83
-12.8497
-12.8702
-12.8919
-12.9153
-12.9411
-12.9698
-13.0024
-13.0396
-13.0823
-13.1316
-13.1885
-13.2544
-13.3302
-13.4169
-13.5147
-13.623
-13.739
-13.8568
-13.9665
-14.0515
-14.0725
-13.9798
-11.5417
-11.4544
-11.4556
-11.5123
-11.5965
-11.6952
-11.7995
-11.9029
-12.0015
-12.0934
-12.1776
-12.2542
-12.3232
-12.3853
-12.4411
-12.4912
-12.5361
-12.5765
-12.6129
-12.6458
-12.6757
-12.703
-12.7281
-12.7514
-12.7734
-12.7943
-12.8146
-12.8347
-12.855
-12.876
-12.898
-12.9216
-12.9473
-12.9758
-13.0076
-13.0435
-13.0841
-13.1302
-13.1826
-13.242
-13.3086
-13.3827
-13.4637
-13.5498
-13.6378
-13.7217
-13.7931
-13.8401
-13.836
-13.7504
-11.7474
-11.6695
-11.6565
-11.6872
-11.7424
-11.8133
-11.8927
-11.9751
-12.0566
-12.1349
-12.2086
-12.277
-12.3399
-12.3974
-12.4498
-12.4974
-12.5406
-12.5798
-12.6154
-12.6479
-12.6775
-12.7048
-12.73
-12.7535
-12.7757
-12.7968
-12.8174
-12.8377
-12.8582
-12.8791
-12.9011
-12.9244
-12.9496
-12.9773
-13.0078
-13.0418
-13.0797
-13.1222
-13.1695
-13.222
-13.2797
-13.3421
-13.4083
-13.476
-13.5421
-13.6013
-13.6471
-13.6711
-13.6558
-13.5815
-11.9088
-11.8407
-11.8211
-11.8357
-11.8713
-11.9219
-11.982
-12.0472
-12.114
-12.18
-12.2436
-12.304
-12.3606
-12.4132
-12.4618
-12.5064
-12.5474
-12.5849
-12.6193
-12.6509
-12.68
-12.7068
-12.7317
-12.755
-12.7771
-12.7982
-12.8187
-12.8389
-12.8591
-12.8798
-12.9013
-12.9241
-12.9484
-12.9748
-13.0036
-13.0353
-13.0703
-13.1087
-13.1509
-13.1969
-13.2462
-13.2983
-13.3518
-13.4047
-13.454
-13.4955
-13.5242
-13.5347
-13.5148
-13.4517
-12.0391
-11.9798
-11.9577
-11.9624
-11.9846
-12.0203
-12.0657
-12.1169
-12.1713
-12.2265
-12.281
-12.3338
-12.3842
-12.4317
-12.4762
-12.5176
-12.556
-12.5915
-12.6243
-12.6547
-12.6827
-12.7088
-12.7331
-12.756
-12.7776
-12.7983
-12.8185
-12.8382
-12.8581
-12.8782
-12.899
-12.9208
-12.944
-12.9688
-12.9957
-13.025
-13.0568
-13.0913
-13.1285
-13.1683
-13.2101
-13.2533
-13.2963
-13.3375
-13.3742
-13.403
-13.4205
-13.423
-13.402
-13.3485
-12.1468
-12.095
-12.0723
-12.071
-12.0841
-12.109
-12.143
-12.1831
-12.2271
-12.273
-12.3194
-12.3651
-12.4095
-12.452
-12.4923
-12.5303
-12.5659
-12.5991
-12.6301
-12.6589
-12.6857
-12.7107
-12.7342
-12.7563
-12.7772
-12.7973
-12.8168
-12.836
-12.8551
-12.8744
-12.8943
-12.915
-12.9368
-12.96
-12.9848
-13.0115
-13.0402
-13.0708
-13.1034
-13.1377
-13.173
-13.2086
-13.2432
-13.2751
-13.3024
-13.3223
-13.3323
-13.3302
-13.3098
-13.2645
-12.2374
-12.1918
-12.1697
-12.1647
-12.1716
-12.1887
-12.214
-12.2453
-12.2807
-12.3186
-12.3577
-12.3971
-12.4358
-12.4735
-12.5097
-12.5442
-12.5768
-12.6076
-12.6364
-12.6634
-12.6888
-12.7125
-12.7349
-12.756
-12.776
-12.7953
-12.814
-12.8323
-12.8505
-12.8688
-12.8876
-12.907
-12.9273
-12.9487
-12.9714
-12.9956
-13.0212
-13.0483
-13.0767
-13.106
-13.1357
-13.165
-13.1928
-13.2176
-13.2378
-13.2515
-13.2567
-13.252
-13.233
-13.1945
-12.3145
-12.2744
-12.2533
-12.2462
-12.2489
-12.2602
-12.2789
-12.3031
-12.3315
-12.3626
-12.3954
-12.429
-12.4626
-12.4957
-12.5279
-12.5589
-12.5885
-12.6166
-12.6432
-12.6683
-12.6919
-12.7142
-12.7352
-12.7551
-12.7741
-12.7923
-12.81
-12.8273
-12.8445
-12.8617
-12.8792
-12.8972
-12.916
-12.9356
-12.9562
-12.9779
-13.0007
-13.0245
-13.0491
-13.0741
-13.0991
-13.1232
-13.1455
-13.1648
-13.1798
-13.189
-13.1912
-13.1853
-13.168
-13.1352
-12.381
-12.3455
-12.3259
-12.3176
-12.3174
-12.3246
-12.3382
-12.3568
-12.3794
-12.4048
-12.4321
-12.4605
-12.4894
-12.5182
-12.5465
-12.5741
-12.6007
-12.6261
-12.6504
-12.6734
-12.6951
-12.7158
-12.7353
-12.7539
-12.7716
-12.7887
-12.8052
-12.8213
-12.8373
-12.8533
-12.8695
-12.886
-12.9032
-12.9209
-12.9395
-12.9589
-12.979
-12.9998
-13.0211
-13.0424
-13.0634
-13.0832
-13.1012
-13.1163
-13.1275
-13.1336
-13.1339
-13.1276
-13.1121
-13.0842
-12.4389
-12.4075
-12.3893
-12.3806
-12.3786
-12.3827
-12.3924
-12.4066
-12.4244
-12.445
-12.4676
-12.4914
-12.516
-12.5408
-12.5654
-12.5897
-12.6132
-12.636
-12.6578
-12.6787
-12.6985
-12.7174
-12.7353
-12.7524
-12.7687
-12.7845
-12.7997
-12.8146
-12.8292
-12.8439
-12.8587
-12.8738
-12.8892
-12.9052
-12.9218
-12.939
-12.9567
-12.9748
-12.9931
-13.0113
-13.0288
-13.0452
-13.0597
-13.0716
-13.08
-13.084
-13.0832
-13.077
-13.0634
-13.0398
-12.4896
-12.462
-12.4454
-12.4367
-12.4334
-12.4354
-12.4421
-12.4528
-12.4667
-12.4832
-12.5017
-12.5215
-12.5421
-12.5632
-12.5845
-12.6055
-12.6262
-12.6462
-12.6656
-12.6842
-12.7021
-12.7191
-12.7353
-12.7508
-12.7656
-12.7799
-12.7938
-12.8073
-12.8206
-12.8339
-12.8472
-12.8607
-12.8746
-12.8888
-12.9035
-12.9186
-12.934
-12.9497
-12.9654
-12.9808
-12.9956
-13.0091
-13.0209
-13.0303
-13.0366
-13.0393
-13.0378
-13.0321
-13.0204
-13.0005
-12.5346
-12.5103
-12.4954
-12.4869
-12.483
-12.4835
-12.4879
-12.4958
-12.5065
-12.5195
-12.5344
-12.5506
-12.5678
-12.5855
-12.6035
-12.6215
-12.6393
-12.6568
-12.6737
-12.6901
-12.7059
-12.7209
-12.7354
-12.7492
-12.7625
-12.7752
-12.7876
-12.7997
-12.8116
-12.8234
-12.8352
-12.8472
-12.8594
-12.8719
-12.8847
-12.8979
-12.9112
-12.9247
-12.9381
-12.9512
-12.9635
-12.9747
-12.9843
-12.9918
-12.9967
-12.9984
-12.9968
-12.9917
-12.9818
-12.9654
-12.5747
-12.5536
-12.5402
-12.5323
-12.5281
-12.5275
-12.5302
-12.5358
-12.5439
-12.5541
-12.5659
-12.5789
-12.5929
-12.6075
-12.6225
-12.6377
-12.6528
-12.6677
-12.6822
-12.6964
-12.71
-12.7231
-12.7357
-12.7478
-12.7594
-12.7706
-12.7815
-12.792
-12.8024
-12.8127
-12.823
-12.8334
-12.844
-12.8548
-12.8658
-12.8771
-12.8885
-12.9
-12.9114
-12.9223
-12.9326
-12.9419
-12.9497
-12.9557
-12.9595
-12.9608
-12.9593
-12.955
-12.9469
-12.9336
-12.6108
-12.5926
-12.5809
-12.5737
-12.5694
-12.5681
-12.5696
-12.5734
-12.5793
-12.587
-12.5961
-12.6064
-12.6175
-12.6293
-12.6415
-12.654
-12.6665
-12.6789
-12.6911
-12.703
-12.7146
-12.7257
-12.7365
-12.7468
-12.7567
-12.7662
-12.7755
-12.7845
-12.7933
-12.802
-12.8108
-12.8196
-12.8285
-12.8376
-12.8469
-12.8564
-12.866
-12.8756
-12.8851
-12.8942
-12.9027
-12.9103
-12.9167
-12.9216
-12.9247
-12.9257
-12.9245
-12.9211
-12.9147
-12.9043
-12.6437
-12.6283
-12.6182
-12.6117
-12.6077
-12.606
-12.6064
-12.6089
-12.613
-12.6185
-12.6253
-12.6331
-12.6417
-12.6509
-12.6605
-12.6704
-12.6804
-12.6905
-12.7004
-12.7101
-12.7196
-12.7288
-12.7376
-12.7461
-12.7543
-12.7622
-12.7698
-12.7772
-12.7844
-12.7915
-12.7987
-12.8059
-12.8131
-12.8206
-12.8282
-12.8359
-12.8437
-12.8516
-12.8593
-12.8667
-12.8737
-12.8799
-12.8851
-12.8891
-12.8917
-12.8926
-12.8918
-12.8894
-12.8847
-12.8771
-12.6738
-12.6611
-12.6527
-12.6471
-12.6434
-12.6414
-12.6412
-12.6425
-12.6451
-12.6489
-12.6536
-12.6592
-12.6655
-12.6723
-12.6795
-12.687
-12.6947
-12.7024
-12.7102
-12.7178
-12.7252
-12.7324
-12.7394
-12.7461
-12.7525
-12.7586
-12.7645
-12.7703
-12.7758
-12.7814
-12.7868
-12.7924
-12.798
-12.8037
-12.8096
-12.8156
-12.8217
-12.8279
-12.8339
-12.8398
-12.8453
-12.8503
-12.8545
-12.8578
-12.86
-12.861
-12.8607
-12.8593
-12.8563
-12.8513
-12.7019
-12.6917
-12.6849
-12.6803
-12.677
-12.675
-12.6743
-12.6747
-12.676
-12.6782
-12.6811
-12.6847
-12.6889
-12.6935
-12.6985
-12.7038
-12.7092
-12.7148
-12.7204
-12.7259
-12.7314
-12.7367
-12.7417
-12.7466
-12.7512
-12.7556
-12.7598
-12.7639
-12.7678
-12.7716
-12.7754
-12.7792
-12.7831
-12.7871
-12.7913
-12.7955
-12.8
-12.8044
-12.8089
-12.8133
-12.8175
-12.8213
-12.8246
-12.8272
-12.8292
-12.8303
-12.8307
-12.8302
-12.8289
-12.8265
-12.7283
-12.7207
-12.7155
-12.7118
-12.7091
-12.7072
-12.7061
-12.7057
-12.706
-12.7068
-12.7081
-12.7099
-12.7121
-12.7147
-12.7176
-12.7208
-12.7241
-12.7276
-12.7312
-12.7347
-12.7382
-12.7416
-12.7448
-12.7478
-12.7507
-12.7533
-12.7558
-12.7581
-12.7603
-12.7623
-12.7644
-12.7665
-12.7686
-12.7708
-12.7732
-12.7757
-12.7784
-12.7812
-12.7841
-12.787
-12.7899
-12.7926
-12.795
-12.7972
-12.7989
-12.8002
-12.8012
-12.8018
-12.8021
-12.8022
-12.7535
-12.7484
-12.7449
-12.7422
-12.74
-12.7383
-12.7369
-12.7359
-12.7352
-12.7348
-12.7346
-12.7347
-12.7352
-12.7358
-12.7368
-12.738
-12.7393
-12.7408
-12.7424
-12.744
-12.7456
-12.7471
-12.7485
-12.7498
-12.7508
-12.7517
-12.7524
-12.753
-12.7534
-12.7537
-12.7539
-12.7542
-12.7545
-12.7549
-12.7554
-12.7562
-12.7571
-12.7582
-12.7594
-12.7608
-12.7624
-12.764
-12.7656
-12.7672
-12.7687
-12.7703
-12.7718
-12.7735
-12.7754
-12.778
-12.778
-12.7754
-12.7735
-12.7719
-12.7703
-12.7687
-12.7672
-12.7656
-12.764
-12.7624
-12.7609
-12.7594
-12.7582
-12.7571
-12.7562
-12.7555
-12.7549
-12.7545
-12.7542
-12.7539
-12.7537
-12.7534
-12.753
-12.7524
-12.7517
-12.7508
-12.7498
-12.7485
-12.7471
-12.7456
-12.744
-12.7424
-12.7408
-12.7393
-12.738
-12.7368
-12.7358
-12.7351
-12.7347
-12.7346
-12.7347
-12.7352
-12.7359
-12.7369
-12.7383
-12.74
-12.7422
-12.7448
-12.7484
-12.7535
-12.8022
-12.8021
-12.8018
-12.8012
-12.8003
-12.7989
-12.7972
-12.7951
-12.7926
-12.7899
-12.7871
-12.7841
-12.7812
-12.7784
-12.7757
-12.7732
-12.7708
-12.7686
-12.7665
-12.7644
-12.7624
-12.7603
-12.7581
-12.7558
-12.7533
-12.7507
-12.7478
-12.7448
-12.7416
-12.7382
-12.7347
-12.7311
-12.7276
-12.7241
-12.7207
-12.7176
-12.7147
-12.7121
-12.7099
-12.7081
-12.7067
-12.7059
-12.7057
-12.7061
-12.7072
-12.709
-12.7118
-12.7155
-12.7207
-12.7283
-12.8265
-12.8289
-12.8302
-12.8307
-12.8304
-12.8292
-12.8273
-12.8246
-12.8213
-12.8175
-12.8133
-12.8089
-12.8045
-12.8
-12.7956
-12.7913
-12.7871
-12.7831
-12.7792
-12.7754
-12.7716
-12.7678
-12.7639
-12.7598
-12.7556
-12.7512
-12.7466
-12.7417
-12.7367
-12.7314
-12.7259
-12.7204
-12.7148
-12.7092
-12.7037
-12.6985
-12.6935
-12.6889
-12.6847
-12.6811
-12.6782
-12.676
-12.6746
-12.6743
-12.675
-12.677
-12.6802
-12.6849
-12.6917
-12.7019
-12.8513
-12.8563
-12.8593
-12.8608
-12.861
-12.86
-12.8578
-12.8545
-12.8503
-12.8454
-12.8398
-12.834
-12.8279
-12.8217
-12.8156
-12.8096
-12.8037
-12.798
-12.7924
-12.7868
-12.7814
-12.7759
-12.7703
-12.7645
-12.7586
-12.7525
-12.7461
-12.7394
-12.7324
-12.7252
-12.7178
-12.7101
-12.7024
-12.6947
-12.687
-12.6795
-12.6722
-12.6654
-12.6592
-12.6536
-12.6488
-12.6451
-12.6425
-12.6412
-12.6414
-12.6433
-12.647
-12.6526
-12.6611
-12.6738
-12.8771
-12.8847
-12.8894
-12.8919
-12.8926
-12.8917
-12.8892
-12.8851
-12.8799
-12.8737
-12.8668
-12.8593
-12.8516
-12.8438
-12.8359
-12.8282
-12.8206
-12.8132
-12.8059
-12.7987
-12.7915
-12.7844
-12.7772
-12.7698
-12.7622
-12.7543
-12.7461
-12.7376
-12.7288
-12.7196
-12.7101
-12.7004
-12.6904
-12.6804
-12.6704
-12.6605
-12.6509
-12.6417
-12.6331
-12.6253
-12.6185
-12.6129
-12.6088
-12.6064
-12.6059
-12.6076
-12.6117
-12.6181
-12.6282
-12.6436
-12.9044
-12.9148
-12.9211
-12.9245
-12.9258
-12.9247
-12.9217
-12.9168
-12.9104
-12.9027
-12.8942
-12.8851
-12.8756
-12.866
-12.8564
-12.847
-12.8377
-12.8285
-12.8196
-12.8108
-12.802
-12.7933
-12.7845
-12.7755
-12.7662
-12.7567
-12.7468
-12.7365
-12.7257
-12.7146
-12.703
-12.6911
-12.6789
-12.6665
-12.654
-12.6415
-12.6293
-12.6175
-12.6064
-12.5961
-12.587
-12.5793
-12.5734
-12.5695
-12.5681
-12.5694
-12.5736
-12.5809
-12.5926
-12.6108
-12.9336
-12.9469
-12.955
-12.9593
-12.9608
-12.9596
-12.9558
-12.9497
-12.9419
-12.9326
-12.9223
-12.9114
-12.9
-12.8886
-12.8771
-12.8659
-12.8548
-12.844
-12.8334
-12.823
-12.8127
-12.8024
-12.792
-12.7815
-12.7706
-12.7594
-12.7478
-12.7357
-12.7231
-12.71
-12.6963
-12.6822
-12.6676
-12.6528
-12.6377
-12.6225
-12.6075
-12.5929
-12.5789
-12.5658
-12.554
-12.5439
-12.5358
-12.5302
-12.5275
-12.5281
-12.5323
-12.5402
-12.5535
-12.5747
-12.9654
-12.9819
-12.9917
-12.9969
-12.9985
-12.9967
-12.9918
-12.9843
-12.9747
-12.9635
-12.9512
-12.9382
-12.9248
-12.9113
-12.8979
-12.8848
-12.8719
-12.8594
-12.8472
-12.8352
-12.8234
-12.8116
-12.7997
-12.7876
-12.7752
-12.7625
-12.7492
-12.7354
-12.7209
-12.7058
-12.6901
-12.6737
-12.6568
-12.6393
-12.6215
-12.6035
-12.5855
-12.5677
-12.5506
-12.5344
-12.5195
-12.5065
-12.4957
-12.4879
-12.4834
-12.483
-12.4869
-12.4953
-12.5103
-12.5345
-13.0005
-13.0204
-13.0321
-13.0379
-13.0393
-13.0366
-13.0303
-13.0209
-13.0091
-12.9956
-12.9809
-12.9654
-12.9497
-12.934
-12.9186
-12.9035
-12.8888
-12.8746
-12.8607
-12.8472
-12.8339
-12.8206
-12.8073
-12.7938
-12.7799
-12.7656
-12.7508
-12.7353
-12.719
-12.702
-12.6842
-12.6656
-12.6462
-12.6261
-12.6055
-12.5844
-12.5632
-12.5421
-12.5214
-12.5016
-12.4832
-12.4667
-12.4528
-12.4421
-12.4354
-12.4334
-12.4366
-12.4454
-12.4619
-12.4896
-13.0398
-13.0634
-13.077
-13.0832
-13.0841
-13.08
-13.0716
-13.0597
-13.0452
-13.0289
-13.0113
-12.9931
-12.9748
-12.9567
-12.939
-12.9218
-12.9053
-12.8893
-12.8738
-12.8587
-12.8439
-12.8293
-12.8146
-12.7997
-12.7845
-12.7687
-12.7524
-12.7353
-12.7174
-12.6985
-12.6786
-12.6578
-12.636
-12.6132
-12.5897
-12.5654
-12.5407
-12.5159
-12.4914
-12.4675
-12.445
-12.4244
-12.4066
-12.3924
-12.3827
-12.3785
-12.3806
-12.3893
-12.4075
-12.4388
-13.0842
-13.1121
-13.1276
-13.1339
-13.1337
-13.1275
-13.1163
-13.1012
-13.0832
-13.0634
-13.0425
-13.0211
-12.9999
-12.979
-12.9589
-12.9395
-12.921
-12.9032
-12.8861
-12.8695
-12.8533
-12.8373
-12.8213
-12.8052
-12.7887
-12.7716
-12.7539
-12.7353
-12.7158
-12.6951
-12.6733
-12.6503
-12.6261
-12.6006
-12.5741
-12.5465
-12.5182
-12.4894
-12.4605
-12.4321
-12.4048
-12.3794
-12.3568
-12.3381
-12.3246
-12.3174
-12.3176
-12.3258
-12.3455
-12.381
-13.1352
-13.168
-13.1853
-13.1912
-13.1891
-13.1799
-13.1648
-13.1455
-13.1232
-13.0991
-13.0742
-13.0491
-13.0245
-13.0007
-12.9779
-12.9562
-12.9356
-12.916
-12.8972
-12.8792
-12.8617
-12.8445
-12.8273
-12.81
-12.7923
-12.7741
-12.7551
-12.7352
-12.7142
-12.6919
-12.6683
-12.6432
-12.6166
-12.5885
-12.5589
-12.5279
-12.4957
-12.4626
-12.429
-12.3954
-12.3626
-12.3314
-12.3031
-12.2788
-12.2602
-12.2488
-12.2462
-12.2533
-12.2743
-12.3145
-13.1945
-13.233
-13.252
-13.2567
-13.2515
-13.2379
-13.2177
-13.1928
-13.165
-13.1358
-13.1061
-13.0767
-13.0484
-13.0213
-12.9956
-12.9715
-12.9487
-12.9273
-12.907
-12.8876
-12.8688
-12.8505
-12.8323
-12.814
-12.7953
-12.776
-12.756
-12.7348
-12.7125
-12.6888
-12.6634
-12.6364
-12.6075
-12.5768
-12.5442
-12.5097
-12.4735
-12.4358
-12.397
-12.3577
-12.3185
-12.2806
-12.2452
-12.2139
-12.1886
-12.1716
-12.1647
-12.1697
-12.1918
-12.2373
-13.2645
-13.3098
-13.3302
-13.3324
-13.3223
-13.3024
-13.2751
-13.2432
-13.2086
-13.173
-13.1377
-13.1035
-13.0709
-13.0402
-13.0115
-12.9848
-12.96
-12.9368
-12.915
-12.8943
-12.8744
-12.8551
-12.836
-12.8168
-12.7973
-12.7772
-12.7563
-12.7342
-12.7107
-12.6857
-12.6589
-12.6301
-12.5991
-12.5659
-12.5303
-12.4923
-12.452
-12.4095
-12.3651
-12.3193
-12.273
-12.2271
-12.1831
-12.1429
-12.109
-12.084
-12.0709
-12.0723
-12.0949
-12.1468
-13.3486
-13.402
-13.423
-13.4206
-13.4031
-13.3742
-13.3375
-13.2964
-13.2533
-13.2102
-13.1683
-13.1285
-13.0913
-13.0568
-13.025
-12.9958
-12.9689
-12.944
-12.9208
-12.899
-12.8782
-12.8581
-12.8383
-12.8185
-12.7983
-12.7776
-12.756
-12.7331
-12.7088
-12.6827
-12.6546
-12.6243
-12.5915
-12.556
-12.5176
-12.4761
-12.4317
-12.3841
-12.3338
-12.281
-12.2265
-12.1712
-12.1169
-12.0656
-12.0203
-11.9846
-11.9623
-11.9576
-11.9797
-12.0391
-13.4517
-13.5148
-13.5347
-13.5243
-13.4955
-13.454
-13.4047
-13.3518
-13.2983
-13.2462
-13.1969
-13.151
-13.1088
-13.0703
-13.0353
-13.0036
-12.9748
-12.9484
-12.9241
-12.9013
-12.8798
-12.8591
-12.8389
-12.8187
-12.7982
-12.7771
-12.755
-12.7317
-12.7068
-12.6799
-12.6509
-12.6193
-12.5849
-12.5474
-12.5064
-12.4617
-12.4132
-12.3606
-12.304
-12.2436
-12.1799
-12.1139
-12.0472
-11.982
-11.9218
-11.8713
-11.8357
-11.8211
-11.8406
-11.9087
-13.5815
-13.6558
-13.6711
-13.6471
-13.6013
-13.5421
-13.4761
-13.4083
-13.3422
-13.2797
-13.222
-13.1695
-13.1222
-13.0797
-13.0418
-13.0078
-12.9773
-12.9497
-12.9244
-12.9011
-12.8791
-12.8582
-12.8377
-12.8174
-12.7968
-12.7757
-12.7535
-12.73
-12.7048
-12.6775
-12.6479
-12.6154
-12.5798
-12.5406
-12.4974
-12.4498
-12.3974
-12.3399
-12.2769
-12.2085
-12.1349
-12.0566
-11.9751
-11.8927
-11.8133
-11.7424
-11.6871
-11.6565
-11.6694
-11.7473
-13.7504
-13.8361
-13.8401
-13.7931
-13.7217
-13.6378
-13.5499
-13.4637
-13.3827
-13.3086
-13.242
-13.1827
-13.1303
-13.0841
-13.0435
-13.0076
-12.9758
-12.9473
-12.9216
-12.898
-12.876
-12.855
-12.8347
-12.8146
-12.7943
-12.7734
-12.7514
-12.7281
-12.703
-12.6757
-12.6458
-12.6129
-12.5765
-12.5361
-12.4911
-12.4411
-12.3853
-12.3232
-12.2541
-12.1776
-12.0933
-12.0015
-11.9029
-11.7995
-11.6952
-11.5964
-11.5123
-11.4555
-11.4543
-11.5416
-13.9799
-14.0725
-14.0515
-13.9665
-13.8568
-13.7391
-13.623
-13.5147
-13.4169
-13.3302
-13.2544
-13.1886
-13.1316
-13.0823
-13.0396
-13.0024
-12.9699
-12.9411
-12.9153
-12.8919
-12.8702
-12.8497
-12.83
-12.8105
-12.7907
-12.7704
-12.749
-12.7262
-12.7016
-12.6747
-12.645
-12.6121
-12.5755
-12.5345
-12.4885
-12.4367
-12.3782
-12.3121
-12.2375
-12.1532
-12.0582
-11.9519
-11.834
-11.7057
-11.57
-11.4335
-11.3069
-11.2078
-11.1775
-11.2685
-14.3089
-14.3907
-14.3172
-14.1695
-14.0038
-13.8406
-13.6899
-13.5561
-13.4402
-13.341
-13.2566
-13.1851
-13.1246
-13.0731
-13.0293
-12.9916
-12.9591
-12.9307
-12.9055
-12.8828
-12.8619
-12.8424
-12.8235
-12.805
-12.7862
-12.7669
-12.7465
-12.7246
-12.7009
-12.6748
-12.6459
-12.6136
-12.5774
-12.5365
-12.4902
-12.4375
-12.3774
-12.3085
-12.2294
-12.1383
-12.0333
-11.9125
-11.7741
-11.6173
-11.4431
-11.2566
-11.0686
-10.901
-10.8122
-10.8865
-14.8099
-14.8284
-14.6486
-14.3997
-14.1541
-13.9326
-13.7413
-13.5804
-13.4468
-13.3365
-13.2455
-13.1702
-13.1077
-13.0556
-13.0118
-12.9748
-12.9433
-12.916
-12.892
-12.8707
-12.8512
-12.833
-12.8156
-12.7985
-12.7811
-12.7631
-12.7441
-12.7237
-12.7013
-12.6765
-12.6489
-12.6179
-12.5828
-12.5428
-12.4972
-12.4448
-12.3843
-12.3141
-12.2323
-12.1364
-12.0233
-11.8896
-11.7312
-11.5441
-11.3253
-11.075
-10.8002
-10.5233
-10.3193
-10.3199
-15.6137
-15.4359
-15.0537
-14.6477
-14.2923
-14
-13.7653
-13.5787
-13.4307
-13.3128
-13.2183
-13.1421
-13.0801
-13.0292
-12.9871
-12.9521
-12.9225
-12.8972
-12.8753
-12.8559
-12.8383
-12.8221
-12.8065
-12.7912
-12.7756
-12.7595
-12.7423
-12.7236
-12.703
-12.6801
-12.6543
-12.6251
-12.5919
-12.5538
-12.5099
-12.4591
-12.3999
-12.3305
-12.2484
-12.1506
-12.0329
-11.8899
-11.7148
-11.4989
-11.2323
-10.905
-10.5119
-10.0669
-9.64774
-9.43435
-17.0172
-16.2539
-15.5083
-14.8803
-14.388
-14.0191
-13.7455
-13.5408
-13.3856
-13.2663
-13.1734
-13.1001
-13.0414
-12.9941
-12.9555
-12.9237
-12.8972
-12.8749
-12.8557
-12.8389
-12.8238
-12.8099
-12.7966
-12.7835
-12.7702
-12.7562
-12.7411
-12.7246
-12.7063
-12.6857
-12.6623
-12.6356
-12.6049
-12.5695
-12.5286
-12.4808
-12.4247
-12.3584
-12.2791
-12.1834
-12.0663
-11.9206
-11.7365
-11.4996
-11.1899
-10.7798
-10.2394
-9.55837
-8.75733
-7.92488
-19.8506
-17.2515
-15.8315
-14.9433
-14.3334
-13.9198
-13.6373
-13.438
-13.2929
-13.1845
-13.1017
-13.0374
-12.9867
-12.9462
-12.9136
-12.8871
-12.8653
-12.8471
-12.8318
-12.8185
-12.8067
-12.7959
-12.7856
-12.7753
-12.7648
-12.7535
-12.7412
-12.7276
-12.7121
-12.6944
-12.6742
-12.6508
-12.6238
-12.5925
-12.556
-12.5132
-12.4628
-12.403
-12.3313
-12.2441
-12.1364
-12.0006
-11.8252
-11.5918
-11.2702
-10.8102
-10.1423
-9.18216
-7.67538
-4.95539
-24.7194
-18.3346
-15.6674
-14.5666
-13.9667
-13.6088
-13.3857
-13.2365
-13.1303
-13.0515
-12.9914
-12.9448
-12.9082
-12.8792
-12.8561
-12.8376
-12.8228
-12.8107
-12.8008
-12.7925
-12.7852
-12.7787
-12.7723
-12.7659
-12.7591
-12.7516
-12.743
-12.733
-12.7214
-12.7079
-12.692
-12.6733
-12.6515
-12.626
-12.5961
-12.561
-12.5198
-12.4711
-12.413
-12.343
-12.2574
-12.1504
-12.0127
-11.828
-11.5645
-11.1582
-10.4928
-9.297
-6.51186
0.000114876
)
;

boundaryField
{
    movingWallTop
    {
        type            zeroGradient;
    }
    movingWallBottom
    {
        type            zeroGradient;
    }
    fixedWalls
    {
        type            zeroGradient;
    }
    frontAndBack
    {
        type            empty;
    }
}


// ************************************************************************* //
