/*--------------------------------*- C++ -*----------------------------------*\
  =========                 |
  \\      /  F ield         | OpenFOAM: The Open Source CFD Toolbox
   \\    /   O peration     | Website:  https://openfoam.org
    \\  /    A nd           | Version:  7
     \\/     M anipulation  |
\*---------------------------------------------------------------------------*/
FoamFile
{
    version     2.0;
    format      ascii;
    class       volScalarField;
    location    "0.0212";
    object      p;
}
// * * * * * * * * * * * * * * * * * * * * * * * * * * * * * * * * * * * * * //

dimensions      [0 2 -2 0 0 0 0];

internalField   nonuniform List<scalar> 
2500
(
4.9598e-06
-0.000558166
-0.00193406
-0.00380362
-0.00584308
-0.00781201
-0.00953408
-0.0108796
-0.0117578
-0.0121087
-0.0118958
-0.0111013
-0.00972273
-0.00776932
-0.00526032
-0.00222286
0.00130951
0.00529808
0.00969981
0.0144682
0.0195538
0.0249048
0.0304676
0.0361866
0.0420052
0.0478654
0.0537086
0.0594757
0.0651074
0.0705446
0.075729
0.0806036
0.0851134
0.0892061
0.0928334
0.0959517
0.0985236
0.100519
0.101918
0.102712
0.102904
0.102517
0.101591
0.100193
0.0984198
0.0964071
0.0943357
0.0924511
0.091075
0.0905202
0.000575935
1.14825e-05
-0.00109172
-0.00252828
-0.00408758
-0.00559078
-0.00689539
-0.00789081
-0.00849449
-0.00864804
-0.00831315
-0.0074682
-0.00610547
-0.00422876
-0.00185139
0.00100535
0.00431357
0.00803993
0.0121465
0.0165917
0.0213305
0.0263154
0.0314968
0.0368233
0.0422418
0.0476983
0.0531382
0.0585062
0.0637473
0.0688069
0.0736313
0.0781686
0.0823691
0.0861861
0.0895772
0.0925049
0.0949381
0.0968532
0.0982359
0.0990826
0.0994029
0.0992212
0.0985801
0.0975427
0.0961967
0.0946576
0.0930719
0.0916222
0.0905174
0.0899654
0.00195618
0.00111497
4.78675e-06
-0.0012834
-0.00262858
-0.00389557
-0.00497043
-0.00576199
-0.00619913
-0.00622915
-0.00581598
-0.00493789
-0.0035856
-0.00176029
0.000527789
0.00326076
0.00641432
0.00995867
0.0138594
0.0180783
0.0225736
0.0273009
0.0322138
0.0372636
0.0424003
0.0475728
0.0527292
0.0578173
0.0627853
0.0675817
0.0721562
0.0764602
0.0804479
0.0840762
0.0873067
0.0901058
0.0924461
0.0943077
0.0956793
0.0965601
0.0969609
0.096906
0.0964353
0.0956057
0.094493
0.0931931
0.0918236
0.0905227
0.0894131
0.0885911
0.00384736
0.00256365
0.00127712
-3.25819e-05
-0.00132675
-0.00250138
-0.00346593
-0.00414801
-0.00448918
-0.00444474
-0.00398321
-0.00308511
-0.00174176
4.62176e-05
0.00226996
0.00491345
0.00795456
0.0113659
0.0151156
0.0191677
0.0234831
0.0280198
0.0327337
0.0375785
0.0425065
0.0474689
0.0524161
0.0572984
0.062066
0.0666701
0.0710628
0.0751981
0.0790326
0.0825262
0.0856426
0.0883508
0.0906257
0.0924493
0.0938117
0.0947124
0.0951615
0.0951812
0.0948064
0.0940861
0.0930834
0.0918755
0.0905569
0.0892346
0.0879514
0.0866923
0.00595506
0.00416488
0.00262085
0.00120256
-0.000126963
-0.00128819
-0.0022103
-0.00283818
-0.00312593
-0.00303743
-0.0025468
-0.00163801
-0.000304096
0.00145375
0.00362704
0.0062007
0.00915398
0.0124612
0.0160921
0.020013
0.0241865
0.0285727
0.0331295
0.0378124
0.0425758
0.0473728
0.0521557
0.0568767
0.061488
0.0659426
0.0701946
0.0742001
0.0779174
0.0813083
0.0843383
0.086978
0.0892035
0.0909977
0.0923508
0.0932618
0.0937391
0.0938013
0.0934778
0.0928091
0.0918461
0.0906489
0.0892927
0.0878606
0.0863212
0.0845602
0.00806721
0.00575908
0.00391544
0.00233073
0.000903502
-0.000304648
-0.00123849
-0.00185788
-0.00212837
-0.00202215
-0.00151928
-0.000607756
0.000716885
0.00245212
0.00458895
0.00711252
0.0100028
0.0132349
0.0167801
0.0206057
0.0246761
0.0289529
0.0333954
0.0379607
0.0426047
0.0472821
0.0519467
0.056552
0.0610518
0.0654006
0.0695538
0.0734687
0.0771051
0.0804257
0.0833972
0.0859908
0.0881832
0.089957
0.091302
0.0922156
0.0927038
0.092781
0.0924711
0.0918064
0.0908267
0.0895778
0.0881198
0.0865187
0.08468
0.0824059
0.0100343
0.00722087
0.00505858
0.00327021
0.00170114
0.000400962
-0.000586743
-0.00123412
-0.00151668
-0.00141423
-0.000912612
-4.05322e-06
0.00131293
0.00303395
0.00514893
0.00764255
0.0104947
0.0136812
0.0171737
0.0209405
0.0249469
0.0291556
0.033527
0.0380194
0.0425897
0.0471936
0.0517862
0.0563219
0.0607555
0.0650424
0.0691387
0.0730027
0.0765946
0.0798777
0.0828189
0.0853894
0.0875656
0.0893294
0.0906692
0.0915804
0.0920659
0.0921361
0.0918092
0.0911104
0.0900701
0.0887224
0.0871166
0.0853076
0.0831496
0.0803744
0.0117479
0.00845211
0.00596612
0.00395238
0.00221261
0.000789091
-0.000282845
-0.000985115
-0.0013015
-0.00121856
-0.000727505
0.000175286
0.00148817
0.00320449
0.00531265
0.00779641
0.0106352
0.0138047
0.0172768
0.0210202
0.0250007
0.0291816
0.0335239
0.0379867
0.0425277
0.0471031
0.0516687
0.0561795
0.0605909
0.0648586
0.0689391
0.0727907
0.0763738
0.0796515
0.0825904
0.0851611
0.0873389
0.0891044
0.0904442
0.0913512
0.0918251
0.0918723
0.0915059
0.0907448
0.0896118
0.088132
0.0863477
0.0843075
0.0818236
0.0785693
0.013131
0.00937613
0.00656772
0.00431635
0.0023873
0.000819057
-0.00035843
-0.00113466
-0.00150019
-0.00144728
-0.000971995
-7.46944e-05
0.00123984
0.0029625
0.00507987
0.00757441
0.0104247
0.0136059
0.0170896
0.0208445
0.0248365
0.0290291
0.0333836
0.0378596
0.0424148
0.0470059
0.0515888
0.0561188
0.0605513
0.0648418
0.0689469
0.0728245
0.0764345
0.0797392
0.0827042
0.0852991
0.0874976
0.0892785
0.0906261
0.0915306
0.0919885
0.0920023
0.0915805
0.0907368
0.0894882
0.0878531
0.0858696
0.0835839
0.0807736
0.0770622
0.0141279
0.00993239
0.00680418
0.00430775
0.0021771
0.00044949
-0.000848323
-0.00171154
-0.00213614
-0.00211926
-0.00166122
-0.00076609
0.000558244
0.00230013
0.00444412
0.00697107
0.00985839
0.0130803
0.0166078
0.0204092
0.0244501
0.0286939
0.0331019
0.0376333
0.0422461
0.0468969
0.0515412
0.0561343
0.0606311
0.0649868
0.0691572
0.0730995
0.0767723
0.0801371
0.0831579
0.0858024
0.0880426
0.0898548
0.091221
0.0921282
0.0925698
0.0925445
0.092057
0.0911168
0.0897361
0.087929
0.0857317
0.0831908
0.0800546
0.0759027
0.0146962
0.0100716
0.00662462
0.00387753
0.00153636
-0.000360901
-0.00178908
-0.00274763
-0.0032369
-0.00325807
-0.00281529
-0.00191606
-0.000571293
0.00120474
0.00339439
0.0059767
0.0089276
0.0122201
0.0158242
0.0197076
0.0238352
0.0281699
0.0326725
0.037302
0.0420159
0.0467704
0.0515205
0.0562208
0.0608257
0.0652892
0.0695663
0.0736126
0.0773857
0.080845
0.0839526
0.0866742
0.0889792
0.0908415
0.0922398
0.0931585
0.0935873
0.0935217
0.0929627
0.0919167
0.0903923
0.0884008
0.0859782
0.0831737
0.0797099
0.0751258
0.0148023
0.00975154
0.00598359
0.00298006
0.000420947
-0.00165367
-0.00321899
-0.00427769
-0.00483363
-0.00489149
-0.00445881
-0.00354637
-0.00216804
-0.000340773
0.00191546
0.00457765
0.00761999
0.011014
0.0147285
0.01873
0.0229826
0.0274484
0.0320875
0.0368581
0.0417171
0.0466198
0.0515206
0.0563731
0.0611303
0.0657454
0.0701715
0.0743629
0.0782749
0.0818648
0.0850926
0.0879211
0.0903167
0.0922505
0.093698
0.0946402
0.0950634
0.09496
0.0943278
0.0931703
0.0914938
0.0893078
0.0866496
0.0835724
0.079775
0.0747575
0.0144169
0.00893412
0.00483854
0.0015713
-0.00121305
-0.00347143
-0.0051785
-0.0063395
-0.00696121
-0.0070514
-0.00662081
-0.00568331
-0.00425576
-0.00235786
-1.2096e-05
0.0027563
0.00591952
0.00944733
0.0133071
0.017464
0.0218809
0.0265188
0.0313368
0.0362923
0.0413411
0.0464375
0.0515348
0.0565853
0.0615406
0.0663522
0.0709714
0.0753503
0.079442
0.0832012
0.0865848
0.0895527
0.0920679
0.094098
0.095615
0.0965963
0.0970249
0.0968896
0.0961856
0.0949139
0.0930791
0.0906894
0.0877849
0.0844239
0.0802818
0.0748197
0.0135117
0.00758233
0.00314757
-0.00039301
-0.00341069
-0.00585877
-0.00771084
-0.00897423
-0.00965837
-0.0097739
-0.00933462
-0.00835754
-0.00686254
-0.00487222
-0.00241176
0.000491148
0.0038065
0.00750205
0.0115434
0.0158941
0.0205157
0.0253679
0.0304085
0.0355937
0.0408781
0.0462147
0.0515555
0.0568511
0.0620517
0.0671065
0.0719648
0.0765761
0.0808908
0.0848605
0.0884387
0.0915817
0.0942488
0.0964037
0.0980142
0.0990541
0.0995023
0.0993447
0.0985732
0.0971868
0.0951886
0.0925866
0.0894238
0.0857648
0.0812607
0.0753325
0.0120575
0.00565814
0.000867422
-0.00295894
-0.00621941
-0.00886326
-0.0108627
-0.0122269
-0.012968
-0.0130994
-0.0126381
-0.0116042
-0.0100208
-0.00791377
-0.00531106
-0.00224311
0.00125763
0.00515668
0.00941763
0.0140022
0.0188704
0.0239802
0.0292882
0.0347491
0.0403161
0.0459409
0.0515736
0.0571633
0.062658
0.0680048
0.0731505
0.0780418
0.0826256
0.0868503
0.0906654
0.0940231
0.0968784
0.0991904
0.100923
0.102044
0.102531
0.102363
0.101532
0.100032
0.0978667
0.095043
0.0916081
0.0876332
0.0827439
0.0763174
0.0100219
0.00312044
-0.00204833
-0.006176
-0.0096904
-0.0125365
-0.014685
-0.0161472
-0.0169377
-0.0170731
-0.0165735
-0.0154628
-0.0137675
-0.0115166
-0.00874155
-0.00547559
-0.00175397
0.00238636
0.00690677
0.011767
0.016925
0.0223375
0.0279591
0.0337432
0.0396414
0.0456036
0.0515785
0.0575131
0.063353
0.0690432
0.0745273
0.0797489
0.0846516
0.0891794
0.0932777
0.0968939
0.0999781
0.102484
0.104371
0.105603
0.106149
0.105989
0.105107
0.103498
0.101162
0.0981069
0.0943839
0.0900714
0.0847669
0.0777996
0.00736756
-7.67622e-05
-0.00565099
-0.0100987
-0.0138799
-0.0169353
-0.0192341
-0.0207897
-0.0216201
-0.021745
-0.0211884
-0.0199778
-0.0181438
-0.0157192
-0.0127388
-0.00923921
-0.00525874
-0.000837058
0.00398473
0.00916416
0.0146573
0.0204189
0.026402
0.0325583
0.0388378
0.0451887
0.0515578
0.05789
0.0641287
0.070216
0.0760927
0.0816987
0.0869736
0.0918569
0.0962893
0.100213
0.103572
0.106315
0.108394
0.109768
0.110402
0.110269
0.10935
0.107637
0.105129
0.101833
0.0978033
0.0931275
0.087371
0.0798097
0.0040502
-0.00398607
-0.00999848
-0.014788
-0.0188508
-0.0221229
-0.0245723
-0.0262155
-0.0270738
-0.0271709
-0.0265351
-0.0251985
-0.0231958
-0.0205641
-0.0173423
-0.0135705
-0.00929053
-0.00454496
0.000622402
0.00616672
0.012042
0.0182009
0.024595
0.0311742
0.0378868
0.0446794
0.0514967
0.0582816
0.0649752
0.0715165
0.0778432
0.0838913
0.089596
0.0948922
0.0997147
0.104
0.107685
0.110713
0.113029
0.114584
0.115338
0.115257
0.11432
0.112512
0.109831
0.106282
0.101926
0.0968572
0.0906053
0.0823859
1.74332e-05
-0.0086684
-0.0151569
-0.0203132
-0.0246736
-0.0281701
-0.0307695
-0.0324922
-0.0333637
-0.0334125
-0.032672
-0.0311792
-0.0289741
-0.0260983
-0.0225954
-0.0185097
-0.0138865
-0.00877178
-0.00321221
0.00274487
0.00905124
0.0156577
0.022514
0.0295684
0.0367676
0.0440565
0.0513781
0.0586732
0.0658802
0.0729355
0.0797732
0.0863253
0.0925224
0.0982937
0.103568
0.108275
0.112346
0.115714
0.118317
0.1201
0.121012
0.121016
0.120081
0.11819
0.115337
0.111527
0.106822
0.101326
0.0945286
0.0855763
-0.00479327
-0.0141948
-0.0212024
-0.0267531
-0.0314285
-0.0351565
-0.0379038
-0.0396953
-0.040562
-0.0405381
-0.039663
-0.0379796
-0.0355339
-0.032373
-0.0285454
-0.0241003
-0.0190868
-0.0135547
-0.00755364
-0.00113362
0.00565492
0.0127609
0.0201323
0.0277158
0.0354568
0.0432986
0.0511826
0.0590474
0.0668293
0.0744616
0.0818751
0.0889974
0.0957542
0.102069
0.107864
0.113061
0.117582
0.121354
0.124304
0.126367
0.127486
0.127611
0.126707
0.124751
0.121731
0.117649
0.112572
0.106612
0.099212
0.0894404
-0.0104564
-0.0206482
-0.028223
-0.034198
-0.0392063
-0.0431722
-0.046063
-0.0479092
-0.0487488
-0.048623
-0.0475783
-0.0456648
-0.0429352
-0.0394431
-0.0352429
-0.0303887
-0.0249343
-0.0189333
-0.0124386
-0.00550293
0.00182096
0.00948018
0.0174212
0.0255894
0.0339289
0.0423817
0.0508878
0.0593842
0.0678049
0.0760806
0.0841383
0.0919018
0.0992912
0.106224
0.112614
0.118377
0.123424
0.127672
0.131037
0.133444
0.134824
0.135119
0.134283
0.132284
0.129105
0.124744
0.119271
0.112808
0.104741
0.0940525
-0.0170602
-0.0281259
-0.0363206
-0.0427518
-0.048111
-0.0523194
-0.0553456
-0.057228
-0.0580129
-0.0577501
-0.0564946
-0.0543053
-0.0512426
-0.0473677
-0.0427415
-0.0374238
-0.0314736
-0.0249486
-0.017905
-0.0103986
-0.00248405
0.00578399
0.0143507
0.0231604
0.0321563
0.0412797
0.0504694
0.059661
0.0687869
0.0777751
0.0865495
0.0950295
0.10313
0.110761
0.117831
0.124243
0.129901
0.134707
0.138568
0.141394
0.143103
0.143624
0.1429
0.14089
0.137566
0.132922
0.127031
0.120021
0.111219
0.0995037
-0.0247096
-0.0367414
-0.0456134
-0.0525341
-0.0582612
-0.0627135
-0.0658627
-0.0677568
-0.0684525
-0.0680101
-0.0664953
-0.0639769
-0.0605248
-0.0562088
-0.0510971
-0.0452563
-0.0387508
-0.0316425
-0.0239917
-0.0158565
-0.0072939
0.00164016
0.0108898
0.0203989
0.0301102
0.0399646
0.0499004
0.0598525
0.0697519
0.0795246
0.0890916
0.0983682
0.107264
0.115682
0.123522
0.130678
0.137041
0.142501
0.14695
0.150282
0.152401
0.15322
0.152665
0.150685
0.14724
0.142314
0.135983
0.128383
0.118769
0.105906
-0.0335281
-0.0466277
-0.0562384
-0.0636825
-0.0697924
-0.0744858
-0.0777391
-0.0796125
-0.0801758
-0.0795022
-0.0776701
-0.0747604
-0.0708541
-0.0660307
-0.0603672
-0.0539373
-0.0468114
-0.0390566
-0.0307364
-0.0219118
-0.0126416
-0.00298282
0.00700819
0.0172752
0.0277612
0.0384075
0.0491526
0.0599313
0.070674
0.0813054
0.0917441
0.101902
0.111682
0.120983
0.129694
0.137698
0.144874
0.151096
0.15624
0.160183
0.162807
0.164009
0.163697
0.1618
0.158266
0.153068
0.14628
0.138047
0.127539
0.113394
-0.0436612
-0.0579399
-0.0683549
-0.0763558
-0.0828598
-0.087785
-0.091115
-0.0929254
-0.0933021
-0.0923341
-0.0901154
-0.0867411
-0.0823053
-0.0768989
-0.0706088
-0.0635168
-0.0556998
-0.0472298
-0.0381744
-0.0285969
-0.0185576
-0.0081142
0.0026771
0.0137607
0.0250807
0.0365795
0.0481969
0.0598685
0.071525
0.0830908
0.0944828
0.10561
0.116371
0.126657
0.136347
0.145315
0.153424
0.160532
0.166496
0.17117
0.174417
0.176107
0.176127
0.174385
0.17081
0.165359
0.158103
0.149193
0.137706
0.122134
-0.0552803
-0.0708594
-0.0821477
-0.0907373
-0.0976412
-0.10278
-0.106148
-0.10784
-0.107962
-0.106622
-0.103933
-0.100007
-0.0949545
-0.0888785
-0.0818772
-0.0740417
-0.0654558
-0.0561969
-0.0463362
-0.0359394
-0.0250677
-0.0137789
-0.00212826
0.0098302
0.0220425
0.0344534
0.0470049
0.0596349
0.0722756
0.0848519
0.0972805
0.109468
0.12131
0.13269
0.143479
0.153538
0.162715
0.17085
0.177777
0.183326
0.187333
0.189639
0.190105
0.18861
0.185059
0.179388
0.171662
0.162037
0.149482
0.132322
-0.0685865
-0.0855986
-0.0978322
-0.107039
-0.11434
-0.119663
-0.123016
-0.124516
-0.124297
-0.122489
-0.119229
-0.114649
-0.108877
-0.102031
-0.0942229
-0.0855529
-0.0761127
-0.065985
-0.0552447
-0.0439592
-0.0321903
-0.0199948
-0.00742626
0.00546396
0.0186251
0.0320055
0.0455508
0.0592026
0.0728961
0.0865585
0.100107
0.113449
0.126475
0.139065
0.151081
0.162371
0.172766
0.182087
0.190142
0.196734
0.201665
0.204744
0.205795
0.204666
0.201227
0.195389
0.187204
0.176831
0.163116
0.144197
-0.0838158
-0.102406
-0.115659
-0.125506
-0.133192
-0.138653
-0.141915
-0.14313
-0.14246
-0.140067
-0.136113
-0.130756
-0.124143
-0.116413
-0.107688
-0.0980818
-0.0876931
-0.0766104
-0.0649115
-0.0526652
-0.0399329
-0.0267696
-0.0132259
0.000650796
0.0148143
0.0292182
0.0438135
0.058547
0.0733588
0.0881804
0.102932
0.117521
0.131839
0.14576
0.159139
0.17181
0.18359
0.194276
0.203649
0.211479
0.217531
0.221572
0.223384
0.22277
0.219563
0.213633
0.205018
0.193875
0.178907
0.158042
-0.101246
-0.121573
-0.135923
-0.146424
-0.154465
-0.159996
-0.16307
-0.163876
-0.162617
-0.159492
-0.154694
-0.148412
-0.140818
-0.132068
-0.122302
-0.111646
-0.100205
-0.0880736
-0.0753325
-0.0620508
-0.0482883
-0.0340971
-0.0195232
-0.00460873
0.0106065
0.026083
0.041779
0.0576488
0.0736396
0.0896893
0.105724
0.121653
0.13737
0.152747
0.167631
0.181848
0.195195
0.207447
0.218354
0.227649
0.235054
0.240286
0.243074
0.243168
0.240348
0.234437
0.225445
0.213521
0.197209
0.174199
-0.121204
-0.143444
-0.158967
-0.170127
-0.178472
-0.183975
-0.186726
-0.186965
-0.184942
-0.180901
-0.175078
-0.167694
-0.15895
-0.149025
-0.138077
-0.126242
-0.113635
-0.100355
-0.0864835
-0.0720898
-0.0572304
-0.041953
-0.0262975
-0.0102988
0.00601167
0.0226032
0.0394438
0.0564972
0.0737205
0.0910607
0.108452
0.12581
0.143033
0.159992
0.176532
0.192467
0.20758
0.221621
0.234308
0.245331
0.254362
0.261061
0.265092
0.266137
0.263908
0.258167
0.248883
0.23619
0.218445
0.193072
-0.144076
-0.168428
-0.185202
-0.197004
-0.205572
-0.210911
-0.21316
-0.212624
-0.209615
-0.204432
-0.197361
-0.188663
-0.178572
-0.167292
-0.154999
-0.141842
-0.127944
-0.113407
-0.0983141
-0.0827307
-0.0667092
-0.0502907
-0.0335073
-0.0163842
0.00105726
0.0187978
0.0368175
0.0550925
0.0735924
0.0922765
0.11109
0.12996
0.14879
0.167458
0.185805
0.203642
0.220735
0.236811
0.251553
0.264608
0.275589
0.284087
0.289687
0.291989
0.290617
0.28525
0.275803
0.262379
0.24312
0.215148
-0.170322
-0.197011
-0.215111
-0.227517
-0.236185
-0.24117
-0.242679
-0.241099
-0.236821
-0.230214
-0.221623
-0.211356
-0.199685
-0.186841
-0.17302
-0.158383
-0.143058
-0.127151
-0.110742
-0.0938915
-0.0766457
-0.0590366
-0.0410857
-0.0228069
-0.00420829
0.0147046
0.0339265
0.053449
0.0732575
0.0933271
0.113618
0.134072
0.154605
0.175102
0.195411
0.215337
0.234638
0.253017
0.270125
0.285558
0.298866
0.309559
0.317131
0.321074
0.320902
0.316187
0.306763
0.292684
0.271839
0.241011
-0.200493
-0.229782
-0.249279
-0.262213
-0.2708
-0.275169
-0.275618
-0.272645
-0.266739
-0.258358
-0.247915
-0.235775
-0.222251
-0.207605
-0.19205
-0.175758
-0.158862
-0.141466
-0.123646
-0.105454
-0.0869273
-0.0680856
-0.0489375
-0.0294822
-0.00971251
0.0103829
0.0308163
0.0515977
0.0727319
0.0942136
0.116023
0.13812
0.160439
0.182879
0.205298
0.227505
0.249251
0.270224
0.29004
0.308245
0.32432
0.337684
0.347716
0.353783
0.355257
0.351563
0.342426
0.327822
0.305335
0.271361
-0.235257
-0.267458
-0.288416
-0.301748
-0.309991
-0.313381
-0.312346
-0.307524
-0.299537
-0.288945
-0.276248
-0.261874
-0.246182
-0.229462
-0.211944
-0.193809
-0.175189
-0.156184
-0.13686
-0.117259
-0.0974037
-0.0772984
-0.0569356
-0.0362971
-0.015357
0.00591532
0.0275529
0.0495876
0.0720468
0.0949492
0.118299
0.142082
0.166255
0.190738
0.215408
0.240085
0.264522
0.288395
0.311294
0.332717
0.352068
0.368666
0.381758
0.390553
0.394244
0.392067
0.383586
0.36866
0.344502
0.307053
-0.275438
-0.310929
-0.333394
-0.346914
-0.354433
-0.356343
-0.353255
-0.345995
-0.335349
-0.322009
-0.306572
-0.28954
-0.271315
-0.252217
-0.232489
-0.212312
-0.191814
-0.171083
-0.150171
-0.129104
-0.107885
-0.0864995
-0.0649207
-0.0431091
-0.0210173
0.00140793
0.0242232
0.0474854
0.0712484
0.0955589
0.120451
0.14594
0.172013
0.198622
0.225669
0.252996
0.28037
0.307466
0.333854
0.35899
0.382203
0.402701
0.419582
0.431863
0.43851
0.438509
0.431202
0.416262
0.390438
0.349133
-0.322063
-0.361317
-0.385302
-0.39868
-0.404922
-0.40466
-0.398757
-0.388293
-0.374261
-0.357511
-0.338755
-0.318569
-0.297402
-0.275593
-0.253392
-0.23097
-0.208444
-0.185881
-0.163312
-0.140737
-0.118139
-0.0954776
-0.0727017
-0.049748
-0.0265443
-0.00301175
0.0209327
0.045374
0.0703962
0.0960779
0.122488
0.149677
0.177673
0.206465
0.235994
0.266136
0.296685
0.327331
0.357641
0.387036
0.414779
0.439961
0.461515
0.47823
0.488788
0.491848
0.486434
0.471943
0.444519
0.398904
-0.37645
-0.420065
-0.445522
-0.458236
-0.462398
-0.459
-0.449262
-0.434601
-0.416269
-0.395305
-0.372546
-0.348643
-0.32408
-0.299208
-0.274265
-0.249405
-0.224716
-0.200235
-0.175961
-0.151865
-0.127897
-0.103989
-0.0800603
-0.0560204
-0.031769
-0.00719921
0.0178012
0.0433482
0.0695586
0.0965473
0.124422
0.153277
0.183185
0.214186
0.246271
0.279368
0.313313
0.347834
0.382513
0.41676
0.449783
0.480567
0.507861
0.530196
0.545902
0.553212
0.550704
0.537356
0.508494
0.458012
-0.440331
-0.489071
-0.515833
-0.527062
-0.527968
-0.520088
-0.50515
-0.485008
-0.461239
-0.435095
-0.407541
-0.379293
-0.350852
-0.322557
-0.294618
-0.267148
-0.24019
-0.213738
-0.187749
-0.162151
-0.136857
-0.111764
-0.0867579
-0.0617169
-0.0365102
-0.0110006
0.0149556
0.041507
0.0688064
0.0970074
0.126261
0.156712
0.188485
0.221682
0.256358
0.292509
0.330042
0.368743
0.408242
0.447968
0.487106
0.524547
0.558866
0.588301
0.610762
0.623926
0.625759
0.614599
0.584626
0.528588
-0.516049
-0.570896
-0.598566
-0.607002
-0.602914
-0.58867
-0.566704
-0.539439
-0.508835
-0.476373
-0.443134
-0.409866
-0.377058
-0.345001
-0.313846
-0.283638
-0.254357
-0.225932
-0.198264
-0.17123
-0.144696
-0.118519
-0.0925472
-0.0666239
-0.0405858
-0.0142637
0.0125185
0.0399438
0.0682019
0.0974878
0.128
0.159936
0.193483
0.228814
0.266065
0.30532
0.346579
0.389726
0.434476
0.480326
0.526479
0.571782
0.614651
0.653027
0.684328
0.705532
0.713757
0.706382
0.675918
0.613464
-0.606902
-0.669085
-0.69682
-0.700357
-0.688693
-0.665445
-0.63402
-0.597552
-0.558429
-0.518347
-0.478456
-0.439486
-0.401852
-0.365752
-0.33123
-0.298232
-0.266645
-0.236314
-0.207067
-0.178721
-0.151086
-0.123972
-0.0971876
-0.0705379
-0.0438265
-0.0168513
0.0105963
0.0387336
0.0677876
0.0979957
0.129606
0.162872
0.198052
0.235397
0.275141
0.317476
0.36253
0.410319
0.460702
0.513299
0.567412
0.621911
0.67512
0.724704
0.76755
0.799775
0.817358
0.816249
0.786447
0.716536
-0.717727
-0.788674
-0.814753
-0.809967
-0.786865
-0.750926
-0.706844
-0.658589
-0.608977
-0.559846
-0.512323
-0.467018
-0.424192
-0.383872
-0.345945
-0.310214
-0.276438
-0.24436
-0.213716
-0.184251
-0.155713
-0.127862
-0.100463
-0.0732827
-0.0460917
-0.018656
0.00926437
0.0379195
0.0675727
0.0985031
0.131007
0.1654
0.202011
0.241182
0.283254
0.328555
0.377366
0.429889
0.486182
0.546081
0.609085
0.674207
0.739801
0.803351
0.861224
0.908548
0.939814
0.948887
0.921903
0.843395
-0.855979
-0.937011
-0.957979
-0.939246
-0.898931
-0.845189
-0.784315
-0.721161
-0.658857
-0.599216
-0.543162
-0.49104
-0.442826
-0.398289
-0.357086
-0.318826
-0.283111
-0.249553
-0.217789
-0.187477
-0.158302
-0.12997
-0.102201
-0.0747271
-0.0472864
-0.019616
0.00855276
0.0374996
0.0675208
0.0989343
0.132084
0.167344
0.205118
0.245842
0.28998
0.338007
0.390399
0.447585
0.509903
0.577504
0.650225
0.727403
0.807628
0.888407
0.965732
1.03371
1.085
1.11052
1.09044
1.00247
-1.0338
-1.12505
-1.13403
-1.09208
-1.02596
-0.947436
-0.864586
-0.78296
-0.705683
-0.634209
-0.568976
-0.509837
-0.456324
-0.407829
-0.363702
-0.323309
-0.286062
-0.251425
-0.21892
-0.188121
-0.158643
-0.130141
-0.102295
-0.0748035
-0.047377
-0.0197285
0.00843422
0.0374154
0.0675392
0.0991572
0.132656
0.168463
0.207057
0.248968
0.294785
0.345151
0.400756
0.462313
0.530513
0.605943
0.688957
0.779466
0.876618
0.978329
1.08059
1.17669
1.25731
1.3094
1.30399
1.20723
-1.27227
-1.36934
-1.35263
-1.2723
-1.16777
-1.05524
-0.944241
-0.840373
-0.746081
-0.661887
-0.587317
-0.521432
-0.463122
-0.411278
-0.364865
-0.322964
-0.284771
-0.249595
-0.216841
-0.185997
-0.156618
-0.12831
-0.10072
-0.0735205
-0.0464015
-0.0190583
0.00881748
0.0375475
0.0674762
0.098981
0.132482
0.168456
0.207443
0.250065
0.297034
0.349164
0.407379
0.472711
0.546276
0.629226
0.72264
0.827318
0.943438
1.06996
1.20362
1.33764
1.46106
1.55603
1.58037
1.48066
-1.61014
-1.69504
-1.6252
-1.48192
-1.32119
-1.16317
-1.01737
-0.887939
-0.77542
-0.678524
-0.595291
-0.523636
-0.461599
-0.407455
-0.359734
-0.317203
-0.278844
-0.24381
-0.211403
-0.181036
-0.152213
-0.124507
-0.0975399
-0.0709693
-0.0444737
-0.0177404
0.00954615
0.0377152
0.0671217
0.0981579
0.131267
0.166959
0.205827
0.248565
0.295997
0.349099
0.409025
0.477142
0.555043
0.644551
0.747675
0.866475
1.00276
1.15747
1.32945
1.51354
1.69864
1.86262
1.94624
1.86439
-2.11914
-2.13959
-1.96295
-1.71823
-1.47729
-1.26093
-1.07456
-0.917929
-0.787736
-0.679705
-0.589727
-0.514225
-0.450234
-0.395352
-0.347662
-0.30564
-0.268073
-0.233991
-0.202614
-0.173305
-0.145539
-0.11887
-0.0929126
-0.0673221
-0.0417782
-0.0159715
0.0104094
0.0376901
0.0662238
0.0964043
0.128683
0.163584
0.201732
0.243872
0.29091
0.343952
0.404355
0.473797
0.554348
0.648554
0.759508
0.890873
1.04678
1.23136
1.44761
1.69539
1.96738
2.24109
2.44068
2.43389
-2.92969
-2.75286
-2.37333
-1.97171
-1.62017
-1.33333
-1.10361
-0.921411
-0.776861
-0.661368
-0.568068
-0.491681
-0.428199
-0.374592
-0.328566
-0.288371
-0.252664
-0.220403
-0.19077
-0.163112
-0.136901
-0.111697
-0.0871237
-0.062851
-0.0385734
-0.0139979
0.0111704
0.0372413
0.0645522
0.0934836
0.124475
0.158048
0.194826
0.235574
0.281236
0.332994
0.392345
0.461202
0.542038
0.638069
0.753497
0.8938
1.06603
1.27892
1.54255
1.86686
2.25705
2.69908
3.11456
3.32323
-4.33817
-3.57496
-2.83173
-2.20776
-1.72013
-1.35663
-1.08819
-0.888109
-0.736739
-0.620189
-0.528696
-0.455409
-0.395497
-0.34551
-0.302948
-0.265972
-0.233212
-0.203628
-0.176422
-0.150968
-0.126767
-0.10341
-0.0805547
-0.0578981
-0.0351655
-0.0120926
0.0115862
0.0361517
0.0619121
0.0892181
0.118479
0.150186
0.184933
0.223461
0.266695
0.315818
0.372362
0.438338
0.516442
0.610341
0.725111
0.867895
1.04881
1.2822
1.58833
1.99495
2.53193
3.20989
4.00786
4.83681
-7.174
-4.57471
-3.15703
-2.27309
-1.66855
-1.26079
-0.984142
-0.790236
-0.649602
-0.54448
-0.463645
-0.399786
-0.348028
-0.305034
-0.268461
-0.236627
-0.208299
-0.18256
-0.158714
-0.136223
-0.114664
-0.0936948
-0.0730284
-0.0524171
-0.0316345
-0.0104633
0.0113168
0.0339398
0.0576657
0.0827938
0.109677
0.138741
0.17051
0.205636
0.244948
0.289511
0.340723
0.40045
0.47124
0.556665
0.661875
0.794525
0.966314
1.19568
1.51307
1.96884
2.63259
3.58903
5.09268
7.81021
-12.0425
-5.65772
-2.99324
-1.89738
-1.30401
-0.953232
-0.737357
-0.594823
-0.494268
-0.419794
-0.362496
-0.316949
-0.27966
-0.248276
-0.221152
-0.19711
-0.175287
-0.155043
-0.135894
-0.117472
-0.0994873
-0.0817099
-0.0639487
-0.0460389
-0.0278295
-0.00917403
0.0100785
0.0300926
0.0510546
0.0731824
0.0967373
0.122038
0.149477
0.179547
0.212871
0.250247
0.292716
0.341656
0.398941
0.46719
0.550204
0.653787
0.787325
0.9673
1.22577
1.62665
2.28661
3.47742
6.25853
12.7681
)
;

boundaryField
{
    movingWall
    {
        type            zeroGradient;
    }
    fixedWalls
    {
        type            zeroGradient;
    }
    frontAndBack
    {
        type            empty;
    }
}


// ************************************************************************* //
