/*--------------------------------*- C++ -*----------------------------------*\
  =========                 |
  \\      /  F ield         | OpenFOAM: The Open Source CFD Toolbox
   \\    /   O peration     | Website:  https://openfoam.org
    \\  /    A nd           | Version:  7
     \\/     M anipulation  |
\*---------------------------------------------------------------------------*/
FoamFile
{
    version     2.0;
    format      ascii;
    class       surfaceScalarField;
    location    "0.0078";
    object      phi;
}
// * * * * * * * * * * * * * * * * * * * * * * * * * * * * * * * * * * * * * //

dimensions      [0 3 -1 0 0 0 0];

internalField   nonuniform List<scalar> 
4900
(
-5.56085e-06
5.56085e-06
-1.01639e-05
4.60305e-06
-1.2938e-05
2.77412e-06
-1.46348e-05
1.69675e-06
-1.5706e-05
1.07118e-06
-1.64076e-05
7.01626e-07
-1.68868e-05
4.79258e-07
-1.72272e-05
3.40393e-07
-1.74767e-05
2.49512e-07
-1.76641e-05
1.87379e-07
-1.78075e-05
1.43365e-07
-1.79188e-05
1.11312e-07
-1.80063e-05
8.74541e-08
-1.80756e-05
6.93695e-08
-1.81311e-05
5.54313e-08
-1.81756e-05
4.45086e-08
-1.82114e-05
3.57962e-08
-1.82401e-05
2.87104e-08
-1.82629e-05
2.28229e-08
-1.82807e-05
1.78159e-08
-1.82942e-05
1.34509e-08
-1.83037e-05
9.54635e-09
-1.83097e-05
5.96063e-09
-1.83122e-05
2.57995e-09
-1.83116e-05
-6.92578e-10
-1.83076e-05
-3.94194e-09
-1.83004e-05
-7.25298e-09
-1.82896e-05
-1.07128e-08
-1.82752e-05
-1.44202e-08
-1.82567e-05
-1.84931e-08
-1.82337e-05
-2.30789e-08
-1.82053e-05
-2.83674e-08
-1.81707e-05
-3.46078e-08
-1.81285e-05
-4.21315e-08
-1.80772e-05
-5.13845e-08
-1.80142e-05
-6.29723e-08
-1.79365e-05
-7.77283e-08
-1.78396e-05
-9.68199e-08
-1.77177e-05
-1.21926e-07
-1.75622e-05
-1.55543e-07
-1.73606e-05
-2.01548e-07
-1.70944e-05
-2.66251e-07
-1.67339e-05
-3.60428e-07
-1.62307e-05
-5.03246e-07
-1.55015e-05
-7.29187e-07
-1.44038e-05
-1.09772e-06
-1.26972e-05
-1.70663e-06
-9.96045e-06
-2.73671e-06
-5.45937e-06
-4.50108e-06
-5.45937e-06
-8.17896e-09
5.56903e-06
-2.10174e-06
6.69661e-06
-4.77938e-06
5.45176e-06
-7.12464e-06
4.04201e-06
-8.97221e-06
2.91876e-06
-1.03791e-05
2.10853e-06
-1.14429e-05
1.54301e-06
-1.22504e-05
1.14791e-06
-1.28686e-05
8.67698e-07
-1.33464e-05
6.65243e-07
-1.37194e-05
5.16317e-07
-1.40131e-05
4.0498e-07
-1.42461e-05
3.20532e-07
-1.44324e-05
2.55607e-07
-1.4582e-05
2.05016e-07
-1.47025e-05
1.65026e-07
-1.47996e-05
1.32911e-07
-1.48775e-05
1.06656e-07
-1.49395e-05
8.47551e-08
-1.49877e-05
6.60785e-08
-1.50241e-05
4.97657e-08
-1.50497e-05
3.51539e-08
-1.50654e-05
2.1721e-08
-1.50719e-05
9.04242e-09
-1.50693e-05
-3.2431e-09
-1.50578e-05
-1.54623e-08
-1.50371e-05
-2.79328e-08
-1.50069e-05
-4.09864e-08
-1.49663e-05
-5.49954e-08
-1.49144e-05
-7.04011e-08
-1.48497e-05
-8.77482e-08
-1.47703e-05
-1.07729e-07
-1.46737e-05
-1.31237e-07
-1.45564e-05
-1.59442e-07
-1.44139e-05
-1.9389e-07
-1.42402e-05
-2.36634e-07
-1.40275e-05
-2.90426e-07
-1.37654e-05
-3.59005e-07
-1.34398e-05
-4.47521e-07
-1.30321e-05
-5.63218e-07
-1.25171e-05
-7.16511e-07
-1.18607e-05
-9.2272e-07
-1.10163e-05
-1.20476e-06
-9.92252e-06
-1.59705e-06
-8.50185e-06
-2.14986e-06
-6.67152e-06
-2.92805e-06
-4.39068e-06
-3.98747e-06
-1.82882e-06
-5.29856e-06
1.16629e-07
-6.44653e-06
-5.34274e-06
1.04945e-06
4.51958e-06
6.15961e-07
7.1301e-06
-8.35836e-07
6.90355e-06
-2.61212e-06
5.8183e-06
-4.32456e-06
4.63119e-06
-5.81848e-06
3.60246e-06
-7.06044e-06
2.78497e-06
-8.06913e-06
2.15661e-06
-8.88004e-06
1.67861e-06
-9.52985e-06
1.31505e-06
-1.00508e-05
1.03729e-06
-1.04695e-05
8.23667e-07
-1.08071e-05
6.58091e-07
-1.10801e-05
5.28626e-07
-1.13014e-05
4.26375e-07
-1.14811e-05
3.44665e-07
-1.16266e-05
2.78462e-07
-1.17439e-05
2.23949e-07
-1.18374e-05
1.78219e-07
-1.19104e-05
1.39048e-07
-1.19653e-05
1.04718e-07
-1.2004e-05
7.38912e-08
-1.20278e-05
4.54996e-08
-1.20375e-05
1.86671e-08
-1.20333e-05
-7.35755e-09
-1.20155e-05
-3.32566e-08
-1.19838e-05
-5.9694e-08
-1.19374e-05
-8.73613e-08
-1.18754e-05
-1.17029e-07
-1.17962e-05
-1.49599e-07
-1.16978e-05
-1.86174e-07
-1.15773e-05
-2.28131e-07
-1.14314e-05
-2.77223e-07
-1.12551e-05
-3.35702e-07
-1.10425e-05
-4.06474e-07
-1.07858e-05
-4.93313e-07
-1.04751e-05
-6.01124e-07
-1.00978e-05
-7.36324e-07
-9.63801e-06
-9.07336e-07
-9.07594e-06
-1.12529e-06
-8.38752e-06
-1.40493e-06
-7.54452e-06
-1.76572e-06
-6.51649e-06
-2.23279e-06
-5.27684e-06
-2.8367e-06
-3.81795e-06
-3.60874e-06
-2.18344e-06
-4.56256e-06
-5.29003e-07
-5.64191e-06
7.76691e-07
-6.60426e-06
1.08626e-06
-6.75609e-06
-4.25649e-06
9.33625e-07
3.58596e-06
1.33252e-06
6.73121e-06
8.67772e-07
7.3683e-06
-1.40137e-07
6.82621e-06
-1.3685e-06
5.85955e-06
-2.60641e-06
4.84037e-06
-3.74407e-06
3.92263e-06
-4.73854e-06
3.15108e-06
-5.58357e-06
2.52363e-06
-6.29011e-06
2.02159e-06
-6.8756e-06
1.62277e-06
-7.35851e-06
1.30658e-06
-7.75597e-06
1.05554e-06
-8.08276e-06
8.55416e-07
-8.35122e-06
6.94842e-07
-8.5714e-06
5.64842e-07
-8.75131e-06
4.58368e-07
-8.89726e-06
3.69906e-07
-9.01419e-06
2.95151e-07
-9.10589e-06
2.30739e-07
-9.17519e-06
1.74027e-07
-9.22423e-06
1.22924e-07
-9.25447e-06
7.57394e-08
-9.26687e-06
3.10733e-08
-9.26194e-06
-1.22858e-08
-9.23976e-06
-5.5442e-08
-9.19998e-06
-9.94692e-08
-9.14186e-06
-1.45481e-07
-9.06419e-06
-1.94707e-07
-8.96521e-06
-2.48572e-07
-8.8426e-06
-3.08785e-07
-8.69328e-06
-3.77454e-07
-8.51329e-06
-4.57207e-07
-8.29765e-06
-5.51349e-07
-8.04007e-06
-6.64047e-07
-7.73284e-06
-8.00546e-07
-7.36653e-06
-9.67431e-07
-6.92993e-06
-1.17293e-06
-6.41004e-06
-1.42723e-06
-5.79251e-06
-1.74281e-06
-5.06286e-06
-2.13458e-06
-4.20907e-06
-2.61951e-06
-3.22694e-06
-3.21492e-06
-2.13003e-06
-3.93361e-06
-9.66816e-07
-4.77196e-06
1.53794e-07
-5.68317e-06
1.03479e-06
-6.5229e-06
1.38455e-06
-6.95402e-06
9.2351e-07
-6.29506e-06
-3.33298e-06
7.07184e-07
2.87877e-06
1.37298e-06
6.06541e-06
1.49762e-06
7.24367e-06
1.11474e-06
7.20909e-06
4.04055e-07
6.57023e-06
-4.60002e-07
5.70443e-06
-1.3531e-06
4.81572e-06
-2.20158e-06
3.99957e-06
-2.96908e-06
3.29113e-06
-3.64265e-06
2.69516e-06
-4.2226e-06
2.20272e-06
-4.71584e-06
1.79983e-06
-5.13199e-06
1.47169e-06
-5.48112e-06
1.20455e-06
-5.7727e-06
9.86427e-07
-6.01509e-06
8.07224e-07
-6.21534e-06
6.58619e-07
-6.37929e-06
5.33857e-07
-6.51164e-06
4.27503e-07
-6.61611e-06
3.35207e-07
-6.69556e-06
2.53482e-07
-6.75216e-06
1.79518e-07
-6.78743e-06
1.11013e-07
-6.80239e-06
4.60372e-08
-6.79759e-06
-1.70937e-08
-6.77311e-06
-7.99213e-08
-6.72863e-06
-1.43943e-07
-6.66341e-06
-2.10704e-07
-6.57622e-06
-2.81892e-07
-6.46536e-06
-3.59435e-07
-6.32853e-06
-4.45613e-07
-6.16281e-06
-5.43179e-07
-5.96451e-06
-6.55501e-07
-5.72916e-06
-7.86707e-07
-5.45134e-06
-9.41861e-07
-5.12477e-06
-1.12712e-06
-4.7423e-06
-1.3499e-06
-4.29628e-06
-1.61895e-06
-3.77913e-06
-1.94438e-06
-3.18461e-06
-2.33734e-06
-2.50995e-06
-2.80924e-06
-1.75959e-06
-3.36987e-06
-9.50955e-07
-4.02355e-06
-1.23177e-07
-4.76139e-06
6.51812e-07
-5.54695e-06
1.2593e-06
-6.29066e-06
1.54496e-06
-6.80856e-06
1.35654e-06
-6.76559e-06
6.80937e-07
-5.61946e-06
-2.65204e-06
5.19994e-07
2.35878e-06
1.21978e-06
5.36562e-06
1.64403e-06
6.81941e-06
1.68418e-06
7.16894e-06
1.39967e-06
6.85474e-06
9.0071e-07
6.20339e-06
2.90899e-07
5.42553e-06
-3.52486e-07
4.64296e-06
-9.79473e-07
3.91812e-06
-1.56168e-06
3.27737e-06
-2.08569e-06
2.72673e-06
-2.54749e-06
2.26164e-06
-2.94856e-06
1.87275e-06
-3.29313e-06
1.54912e-06
-3.58661e-06
1.2799e-06
-3.83456e-06
1.05517e-06
-4.0422e-06
8.66258e-07
-4.21414e-06
7.05795e-07
-4.35429e-06
5.67653e-07
-4.46586e-06
4.46785e-07
-4.55143e-06
3.39052e-07
-4.61297e-06
2.41051e-07
-4.65191e-06
1.49953e-07
-4.66922e-06
6.33493e-08
-4.66544e-06
-2.0877e-08
-4.64068e-06
-1.04674e-07
-4.5947e-06
-1.89932e-07
-4.52681e-06
-2.78589e-07
-4.43597e-06
-3.72738e-07
-4.32067e-06
-4.74735e-07
-4.17896e-06
-5.87318e-07
-4.00842e-06
-7.13723e-07
-3.8061e-06
-8.57818e-07
-3.56858e-06
-1.02422e-06
-3.29203e-06
-1.21841e-06
-2.97236e-06
-1.44679e-06
-2.60556e-06
-1.7167e-06
-2.1883e-06
-2.03621e-06
-1.71891e-06
-2.41377e-06
-1.19894e-06
-2.85731e-06
-6.35522e-07
-3.37266e-06
-4.47381e-08
-3.96065e-06
5.43838e-07
-4.61213e-06
1.08221e-06
-5.29976e-06
1.49998e-06
-5.96472e-06
1.70671e-06
-6.49739e-06
1.61043e-06
-6.71229e-06
1.16829e-06
-6.32345e-06
4.90265e-07
-4.94143e-06
-2.16178e-06
3.88531e-07
1.97025e-06
1.03807e-06
4.71607e-06
1.58757e-06
6.26992e-06
1.88135e-06
6.87515e-06
1.90366e-06
6.83243e-06
1.70627e-06
6.40078e-06
1.36011e-06
5.77169e-06
9.30386e-07
5.07268e-06
4.675e-07
4.381e-06
6.24144e-09
3.73863e-06
-4.31658e-07
3.16462e-06
-8.34128e-07
2.66411e-06
-1.19569e-06
2.23432e-06
-1.51506e-06
1.86849e-06
-1.79336e-06
1.55821e-06
-2.03301e-06
1.29482e-06
-2.23692e-06
1.07017e-06
-2.40806e-06
8.76935e-07
-2.54919e-06
7.08783e-07
-2.66273e-06
5.60324e-07
-2.75069e-06
4.2702e-07
-2.81471e-06
3.05064e-07
-2.85598e-06
1.91228e-07
-2.87536e-06
8.27276e-08
-2.87333e-06
-2.29089e-08
-2.85003e-06
-1.27968e-07
-2.8053e-06
-2.34666e-07
-2.73863e-06
-3.4526e-07
-2.64921e-06
-4.6216e-07
-2.53591e-06
-5.88036e-07
-2.3973e-06
-7.25928e-07
-2.23166e-06
-8.79355e-07
-2.03707e-06
-1.05241e-06
-1.81146e-06
-1.24984e-06
-1.55281e-06
-1.47706e-06
-1.25947e-06
-1.74013e-06
-9.3063e-07
-2.04554e-06
-5.67031e-07
-2.39981e-06
-1.72037e-07
-2.80876e-06
2.46869e-07
-3.27622e-06
6.76126e-07
-3.80192e-06
1.0937e-06
-4.37823e-06
1.46669e-06
-4.98511e-06
1.7497e-06
-5.58277e-06
1.88649e-06
-6.10151e-06
1.81846e-06
-6.42936e-06
1.50633e-06
-6.40016e-06
9.71695e-07
-5.78881e-06
3.60062e-07
-4.3298e-06
-1.80171e-06
2.99382e-07
1.67087e-06
8.74552e-07
4.1409e-06
1.45397e-06
5.69051e-06
1.88183e-06
6.44729e-06
2.1043e-06
6.60996e-06
2.13127e-06
6.3738e-06
2.00253e-06
5.90044e-06
1.76544e-06
5.30978e-06
1.46315e-06
4.68329e-06
1.13003e-06
4.07175e-06
7.90983e-07
3.50367e-06
4.62735e-07
2.99235e-06
1.55615e-07
2.54144e-06
-1.2466e-07
2.14876e-06
-3.75507e-07
1.80905e-06
-5.96336e-07
1.51565e-06
-7.87735e-07
1.26157e-06
-9.50907e-07
1.04011e-06
-1.0873e-06
8.45175e-07
-1.19837e-06
6.71397e-07
-1.28547e-06
5.14115e-07
-1.34972e-06
3.69322e-07
-1.39205e-06
2.33555e-07
-1.4131e-06
1.03781e-07
-1.41329e-06
-2.27226e-08
-1.39277e-06
-1.48487e-07
-1.35147e-06
-2.75965e-07
-1.28909e-06
-4.07638e-07
-1.20513e-06
-5.46123e-07
-1.0989e-06
-6.9427e-07
-9.69566e-07
-8.55259e-07
-8.16238e-07
-1.03268e-06
-6.38047e-07
-1.2306e-06
-4.34323e-07
-1.45356e-06
-2.04843e-07
-1.70654e-06
4.98075e-08
-1.99478e-06
3.27711e-07
-2.32344e-06
6.24909e-07
-2.69701e-06
9.34457e-07
-3.11831e-06
1.24526e-06
-3.58702e-06
1.54077e-06
-4.09742e-06
1.79772e-06
-4.63518e-06
1.98556e-06
-5.17295e-06
2.0674e-06
-5.66462e-06
2.00443e-06
-6.03853e-06
1.76603e-06
-6.19096e-06
1.34861e-06
-5.98274e-06
8.04136e-07
-5.24434e-06
2.73476e-07
-3.79914e-06
-1.52824e-06
2.37274e-07
1.43359e-06
7.36681e-07
3.6415e-06
1.29729e-06
5.1299e-06
1.78159e-06
5.96298e-06
2.12159e-06
6.26996e-06
2.30157e-06
6.19383e-06
2.33707e-06
5.86493e-06
2.25793e-06
5.38892e-06
2.09699e-06
4.84422e-06
1.88412e-06
4.28463e-06
1.64362e-06
3.74417e-06
1.39385e-06
3.24212e-06
1.14781e-06
2.78748e-06
9.14172e-07
2.3824e-06
6.98339e-07
2.02489e-06
5.03372e-07
1.71062e-06
3.30746e-07
1.43419e-06
1.80913e-07
1.18994e-06
5.37168e-08
9.72371e-07
-5.13212e-08
7.76435e-07
-1.34813e-07
5.97607e-07
-1.97374e-07
4.31883e-07
-2.39552e-07
2.75733e-07
-2.61784e-07
1.26013e-07
-2.64373e-07
-2.01337e-08
-2.47481e-07
-1.6538e-07
-2.11134e-07
-3.12312e-07
-1.55241e-07
-4.63532e-07
-7.96155e-08
-6.21748e-07
1.59758e-08
-7.89861e-07
1.31752e-07
-9.71036e-07
2.67823e-07
-1.16875e-06
4.24047e-07
-1.38683e-06
5.99839e-07
-1.62935e-06
7.93897e-07
-1.9006e-06
1.00384e-06
-2.20472e-06
1.2257e-06
-2.54531e-06
1.45338e-06
-2.92468e-06
1.67788e-06
-3.34281e-06
1.88657e-06
-3.79572e-06
2.06257e-06
-4.27342e-06
2.18444e-06
-4.75706e-06
2.2269e-06
-5.21541e-06
2.16314e-06
-5.60086e-06
1.97011e-06
-5.8455e-06
1.63775e-06
-5.8586e-06
1.18311e-06
-5.5281e-06
6.67959e-07
-4.72919e-06
2.14192e-07
-3.34537e-06
-1.31405e-06
1.91906e-07
1.24169e-06
6.21509e-07
3.21189e-06
1.14001e-06
4.6114e-06
1.63283e-06
5.47016e-06
2.03108e-06
5.87171e-06
2.3057e-06
5.91921e-06
2.45574e-06
5.71489e-06
2.49655e-06
5.34812e-06
2.4506e-06
4.89017e-06
2.34152e-06
4.3937e-06
2.19073e-06
3.89495e-06
2.016e-06
3.41685e-06
1.83116e-06
2.97232e-06
1.64642e-06
2.56714e-06
1.46899e-06
2.20232e-06
1.30372e-06
1.87589e-06
1.1537e-06
1.58421e-06
1.02077e-06
1.32287e-06
9.05912e-07
1.08722e-06
8.09561e-07
8.72786e-07
7.31803e-07
6.75365e-07
6.72539e-07
4.91146e-07
6.31587e-07
3.16685e-07
6.08745e-07
1.48856e-07
6.03828e-07
-1.52165e-08
6.16687e-07
-1.78239e-07
6.47208e-07
-3.42833e-07
6.95293e-07
-5.11617e-07
7.6083e-07
-6.87285e-07
8.43637e-07
-8.72668e-07
9.43387e-07
-1.07079e-06
1.0595e-06
-1.28486e-06
1.19097e-06
-1.5183e-06
1.33622e-06
-1.77461e-06
1.49279e-06
-2.05716e-06
1.657e-06
-2.36894e-06
1.82363e-06
-2.71194e-06
1.9854e-06
-3.08645e-06
2.13256e-06
-3.48996e-06
2.25252e-06
-3.91568e-06
2.32976e-06
-4.35065e-06
2.34623e-06
-4.77352e-06
2.28274e-06
-5.15192e-06
2.12183e-06
-5.43995e-06
1.85267e-06
-5.57634e-06
1.47857e-06
-5.4845e-06
1.02657e-06
-5.07611e-06
5.57485e-07
-4.2601e-06
1.71623e-07
-2.95951e-06
-1.14242e-06
1.57177e-07
1.08451e-06
5.24597e-07
2.84447e-06
9.91257e-07
4.14474e-06
1.46433e-06
4.99709e-06
1.88045e-06
5.45559e-06
2.2054e-06
5.59426e-06
2.42816e-06
5.49213e-06
2.55343e-06
5.22285e-06
2.59477e-06
4.84883e-06
2.5694e-06
4.41907e-06
2.49481e-06
3.96954e-06
2.38682e-06
3.52484e-06
2.25874e-06
3.1004e-06
2.12116e-06
2.70472e-06
1.98217e-06
2.34131e-06
1.84771e-06
2.01035e-06
1.72197e-06
1.70995e-06
1.60785e-06
1.43699e-06
1.50724e-06
1.18784e-06
1.42133e-06
9.58699e-07
1.35082e-06
7.4588e-07
1.29607e-06
5.45891e-07
1.25725e-06
3.55501e-07
1.23439e-06
1.71717e-07
1.22742e-06
-8.2481e-09
1.23623e-06
-1.8704e-07
1.26062e-06
-3.67222e-07
1.30034e-06
-5.5134e-07
1.35503e-06
-7.41977e-07
1.42417e-06
-9.41801e-07
1.50696e-06
-1.15358e-06
1.60229e-06
-1.38019e-06
1.70852e-06
-1.62453e-06
1.82331e-06
-1.8894e-06
1.94344e-06
-2.17729e-06
2.0645e-06
-2.48999e-06
2.18061e-06
-2.82805e-06
2.28416e-06
-3.19001e-06
2.36559e-06
-3.57139e-06
2.41334e-06
-3.96343e-06
2.41414e-06
-4.35145e-06
2.35379e-06
-4.71318e-06
2.21887e-06
-5.01699e-06
1.99945e-06
-5.22052e-06
1.69331e-06
-5.27021e-06
1.31146e-06
-5.10265e-06
8.84283e-07
-4.64893e-06
4.66777e-07
-3.84259e-06
1.39578e-07
-2.63231e-06
-1.00284e-06
1.29585e-07
9.54925e-07
4.42293e-07
2.53177e-06
8.54573e-07
3.73246e-06
1.29228e-06
4.55938e-06
1.70011e-06
5.04776e-06
2.04349e-06
5.25088e-06
2.30616e-06
5.22946e-06
2.48568e-06
5.04333e-06
2.58866e-06
4.74585e-06
2.62662e-06
4.38111e-06
2.61295e-06
3.98322e-06
2.56088e-06
3.57691e-06
2.48236e-06
3.17893e-06
2.38751e-06
2.79956e-06
2.28456e-06
2.44426e-06
2.1799e-06
2.11502e-06
2.07837e-06
1.81147e-06
1.98355e-06
1.53181e-06
1.89797e-06
1.27341e-06
1.82341e-06
1.03326e-06
1.76105e-06
8.0824e-07
1.71166e-06
5.95283e-07
1.67569e-06
3.9147e-07
1.65337e-06
1.94035e-07
1.64476e-06
3.62688e-10
1.64977e-06
-1.9205e-07
1.66818e-06
-3.85628e-07
1.6996e-06
-5.82769e-07
1.7435e-06
-7.85873e-07
1.79907e-06
-9.97371e-07
1.86521e-06
-1.21972e-06
1.94038e-06
-1.45537e-06
2.02253e-06
-1.70667e-06
2.10888e-06
-1.97574e-06
2.19576e-06
-2.26418e-06
2.27845e-06
-2.57269e-06
2.35098e-06
-2.90058e-06
2.40598e-06
-3.24501e-06
2.43468e-06
-3.60009e-06
2.42707e-06
-3.95581e-06
2.37239e-06
-4.29678e-06
2.26017e-06
-4.60095e-06
2.08176e-06
-4.83859e-06
1.83287e-06
-4.97164e-06
1.51679e-06
-4.95413e-06
1.14827e-06
-4.73413e-06
7.57256e-07
-4.25792e-06
3.91295e-07
-3.47663e-06
1.14511e-07
-2.35553e-06
-8.88334e-07
1.07107e-07
8.47818e-07
3.71964e-07
2.26691e-06
7.31182e-07
3.37324e-06
1.12597e-06
4.16459e-06
1.50951e-06
4.66423e-06
1.84951e-06
4.91088e-06
2.12771e-06
4.95126e-06
2.33734e-06
4.83369e-06
2.48003e-06
4.60316e-06
2.56265e-06
4.29849e-06
2.59484e-06
3.95103e-06
2.58709e-06
3.58465e-06
2.5496e-06
3.21642e-06
2.49149e-06
2.85767e-06
2.42056e-06
2.51519e-06
2.34321e-06
2.19237e-06
2.26449e-06
1.89019e-06
2.18832e-06
1.60798e-06
2.11764e-06
1.34409e-06
2.05461e-06
1.09629e-06
2.00078e-06
8.62074e-07
1.9572e-06
6.38862e-07
1.92457e-06
4.24103e-07
1.90328e-06
2.15324e-07
1.89349e-06
1.01461e-08
1.89517e-06
-1.93725e-07
1.90806e-06
-3.98519e-07
1.93172e-06
-6.06427e-07
1.96546e-06
-8.19613e-07
2.00831e-06
-1.04022e-06
2.05895e-06
-1.27036e-06
2.11561e-06
-1.51203e-06
2.17599e-06
-1.76705e-06
2.23709e-06
-2.03684e-06
2.29513e-06
-2.32222e-06
2.34541e-06
-2.62297e-06
2.38221e-06
-2.93738e-06
2.39879e-06
-3.26158e-06
2.38748e-06
-3.58878e-06
2.34e-06
-3.90833e-06
2.24803e-06
-4.20481e-06
2.10426e-06
-4.45718e-06
1.90381e-06
-4.63813e-06
1.64624e-06
-4.71406e-06
1.33801e-06
-4.6459e-06
9.95074e-07
-4.39119e-06
6.4501e-07
-3.90785e-06
3.27851e-07
-3.15947e-06
9.43605e-08
-2.12203e-06
-7.93973e-07
8.85219e-08
7.59296e-07
3.11733e-07
2.0437e-06
6.21232e-07
3.06374e-06
9.70588e-07
3.81524e-06
1.32092e-06
4.3139e-06
1.64348e-06
4.58832e-06
1.91998e-06
4.67477e-06
2.14142e-06
4.61225e-06
2.30611e-06
4.43848e-06
2.41741e-06
4.18719e-06
2.48179e-06
3.88665e-06
2.5072e-06
3.55924e-06
2.50195e-06
3.22167e-06
2.47391e-06
2.8857e-06
2.43014e-06
2.55896e-06
2.37666e-06
2.24586e-06
2.31843e-06
1.94841e-06
2.25944e-06
1.66697e-06
2.20281e-06
1.40072e-06
2.15091e-06
1.14819e-06
2.10551e-06
9.07479e-07
2.06786e-06
6.7651e-07
2.03883e-06
4.53133e-07
2.01895e-06
2.35208e-07
2.00846e-06
2.0637e-08
2.00736e-06
-1.92624e-07
2.0154e-06
-4.06567e-07
2.03211e-06
-6.23136e-07
2.05673e-06
-8.44228e-07
2.08818e-06
-1.07168e-06
2.12505e-06
-1.30722e-06
2.16544e-06
-1.55243e-06
2.20699e-06
-1.80859e-06
2.24667e-06
-2.07653e-06
2.28081e-06
-2.35636e-06
2.30496e-06
-2.64711e-06
2.31389e-06
-2.94631e-06
2.30168e-06
-3.24937e-06
2.26187e-06
-3.54897e-06
2.18785e-06
-3.83431e-06
2.07347e-06
-4.09044e-06
1.91395e-06
-4.29766e-06
1.70715e-06
-4.43132e-06
1.45509e-06
-4.462e-06
1.16576e-06
-4.35658e-06
8.54783e-07
-4.08022e-06
5.46545e-07
-3.59961e-06
2.74203e-07
-2.88713e-06
7.78779e-08
-1.92571e-06
-7.16095e-07
7.3038e-08
6.86258e-07
2.60176e-07
1.85656e-06
5.24284e-07
2.79964e-06
8.28775e-07
3.51074e-06
1.1418e-06
4.00087e-06
1.43851e-06
4.29161e-06
1.70178e-06
4.41149e-06
1.92181e-06
4.39222e-06
2.09488e-06
4.26541e-06
2.22187e-06
4.0602e-06
2.30674e-06
3.80178e-06
2.35526e-06
3.51072e-06
2.37392e-06
3.20301e-06
2.3693e-06
2.89033e-06
2.3475e-06
2.58076e-06
2.31398e-06
2.27938e-06
2.27338e-06
1.98901e-06
2.22956e-06
1.71079e-06
2.18562e-06
1.44466e-06
2.144e-06
1.18981e-06
2.10656e-06
9.44922e-07
2.07467e-06
7.08398e-07
2.0493e-06
4.78501e-07
2.03107e-06
2.53439e-07
2.02029e-06
3.14184e-08
2.017e-06
-1.8933e-07
2.02096e-06
-4.10537e-07
2.03171e-06
-6.33878e-07
2.04844e-06
-8.60966e-07
2.07009e-06
-1.09332e-06
2.09518e-06
-1.33231e-06
2.12185e-06
-1.5791e-06
2.14777e-06
-1.83451e-06
2.17005e-06
-2.09882e-06
2.18526e-06
-2.37156e-06
2.18933e-06
-2.65119e-06
2.17769e-06
-2.93466e-06
2.14527e-06
-3.21695e-06
2.0868e-06
-3.4905e-06
1.99718e-06
-3.74469e-06
1.87204e-06
-3.96529e-06
1.70853e-06
-4.13416e-06
1.50638e-06
-4.22917e-06
1.26903e-06
-4.22465e-06
1.0049e-06
-4.09245e-06
7.28446e-07
-3.80376e-06
4.60653e-07
-3.33182e-06
2.28692e-07
-2.65517e-06
6.42517e-08
-1.76127e-06
-6.51843e-07
6.00902e-08
6.26168e-07
2.16117e-07
1.70053e-06
4.39509e-07
2.57624e-06
7.0149e-07
3.24876e-06
9.76226e-07
3.72613e-06
1.2427e-06
4.02514e-06
1.48554e-06
4.16865e-06
1.69504e-06
4.18272e-06
1.86646e-06
4.09399e-06
1.99902e-06
3.92764e-06
2.09483e-06
3.70597e-06
2.15783e-06
3.44772e-06
2.19296e-06
3.16787e-06
2.2055e-06
2.87779e-06
2.20061e-06
2.58565e-06
2.18304e-06
2.29695e-06
2.15699e-06
2.01507e-06
2.12602e-06
1.74176e-06
2.09309e-06
1.47759e-06
2.06058e-06
1.22232e-06
2.03035e-06
9.75146e-07
2.00382e-06
7.3493e-07
1.98199e-06
5.0033e-07
1.96553e-06
2.69899e-07
1.9548e-06
4.2152e-08
1.94986e-06
-1.84398e-07
1.95054e-06
-4.11207e-07
1.95634e-06
-6.39683e-07
1.96653e-06
-8.71151e-07
1.98003e-06
-1.10682e-06
1.99544e-06
-1.34773e-06
2.01099e-06
-1.59465e-06
2.02447e-06
-1.84798e-06
2.03322e-06
-2.10757e-06
2.03415e-06
-2.37249e-06
2.02369e-06
-2.64073e-06
1.99789e-06
-2.90887e-06
1.95257e-06
-3.17163e-06
1.88353e-06
-3.42147e-06
1.78694e-06
-3.6481e-06
1.65983e-06
-3.83818e-06
1.50075e-06
-3.97508e-06
1.31062e-06
-4.03904e-06
1.09354e-06
-4.00758e-06
8.577e-07
-3.85661e-06
6.15951e-07
-3.56202e-06
3.86028e-07
-3.1019e-06
1.90007e-07
-2.45915e-06
5.29087e-08
-1.62417e-06
-5.98935e-07
4.92377e-08
5.7693e-07
1.78517e-07
1.57125e-06
3.65814e-07
2.38895e-06
5.88547e-07
3.02603e-06
8.25929e-07
3.48875e-06
1.06047e-06
3.7906e-06
1.27881e-06
3.95031e-06
1.47187e-06
3.98965e-06
1.63457e-06
3.9313e-06
1.76512e-06
3.79709e-06
1.86432e-06
3.60677e-06
1.93471e-06
3.37733e-06
1.97992e-06
3.12267e-06
2.00406e-06
2.85364e-06
2.01138e-06
2.57833e-06
2.0059e-06
2.30243e-06
1.99129e-06
2.02968e-06
1.97074e-06
1.7623e-06
1.94699e-06
1.50135e-06
1.92226e-06
1.24705e-06
1.89833e-06
9.99075e-07
1.87658e-06
7.56678e-07
1.85802e-06
5.18888e-07
1.84333e-06
2.84588e-07
1.83289e-06
5.25904e-08
1.82681e-06
-1.78313e-07
1.82492e-06
-4.09314e-07
1.82679e-06
-6.41553e-07
1.83172e-06
-8.76082e-07
1.83872e-06
-1.11382e-06
1.84648e-06
-1.35549e-06
1.85338e-06
-1.60154e-06
1.8574e-06
-1.85201e-06
1.8562e-06
-2.10637e-06
1.84703e-06
-2.36332e-06
1.82685e-06
-2.62055e-06
1.79235e-06
-2.87437e-06
1.74014e-06
-3.11942e-06
1.66695e-06
-3.34828e-06
1.56998e-06
-3.55113e-06
1.44732e-06
-3.71551e-06
1.29848e-06
-3.82625e-06
1.12504e-06
-3.8656e-06
9.31273e-07
-3.81381e-06
7.24699e-07
-3.65003e-06
5.16461e-07
-3.35378e-06
3.21305e-07
-2.90674e-06
1.57046e-07
-2.29489e-06
4.34111e-08
-1.51054e-06
-5.55524e-07
4.01132e-08
5.36817e-07
1.46416e-07
1.46495e-06
3.01937e-07
2.23343e-06
4.89009e-07
2.83896e-06
6.91042e-07
3.28672e-06
8.93695e-07
3.58795e-06
1.08561e-06
3.7584e-06
1.25866e-06
3.8166e-06
1.40786e-06
3.7821e-06
1.53092e-06
3.67402e-06
1.62777e-06
3.50992e-06
1.6999e-06
3.3052e-06
1.74988e-06
3.0727e-06
1.78085e-06
2.82267e-06
1.7962e-06
2.56298e-06
1.79927e-06
2.29936e-06
1.79316e-06
2.03578e-06
1.78068e-06
1.77478e-06
1.76424e-06
1.51778e-06
1.74587e-06
1.26542e-06
1.72722e-06
1.01772e-06
1.70959e-06
7.74314e-07
1.69393e-06
5.34546e-07
1.68092e-06
2.97603e-07
1.67093e-06
6.25768e-08
1.6641e-06
-1.71482e-07
1.66029e-06
-4.05512e-07
1.65915e-06
-6.40405e-07
1.66003e-06
-8.76961e-07
1.66204e-06
-1.11584e-06
1.66403e-06
-1.35748e-06
1.66453e-06
-1.60204e-06
1.66179e-06
-1.84927e-06
1.65375e-06
-2.09834e-06
1.6381e-06
-2.34767e-06
1.61226e-06
-2.59471e-06
1.57354e-06
-2.83565e-06
1.51924e-06
-3.06512e-06
1.44687e-06
-3.27591e-06
1.35442e-06
-3.45868e-06
1.24076e-06
-3.60184e-06
1.106e-06
-3.69149e-06
9.52019e-07
-3.71162e-06
7.82906e-07
-3.64469e-06
6.05319e-07
-3.47245e-06
4.28689e-07
-3.17715e-06
2.6511e-07
-2.74316e-06
1.28846e-07
-2.15863e-06
3.54054e-08
-1.4171e-06
-5.20118e-07
3.24007e-08
5.04417e-07
1.18925e-07
1.37843e-06
2.46532e-07
2.10582e-06
4.0148e-07
2.68401e-06
5.70649e-07
3.11755e-06
7.42446e-07
3.41615e-06
9.0742e-07
3.59342e-06
1.05854e-06
3.66548e-06
1.1912e-06
3.64945e-06
1.30296e-06
3.56226e-06
1.39319e-06
3.41969e-06
1.46268e-06
3.23571e-06
1.51317e-06
3.02221e-06
1.54699e-06
2.78884e-06
1.5668e-06
2.54317e-06
1.57528e-06
2.29089e-06
1.57502e-06
2.03605e-06
1.56839e-06
1.78141e-06
1.55748e-06
1.52869e-06
1.54409e-06
1.27882e-06
1.52968e-06
1.03213e-06
1.51543e-06
7.8856e-07
1.50224e-06
5.47738e-07
1.49073e-06
3.09117e-07
1.48127e-06
7.20352e-08
1.474e-06
-1.64218e-07
1.46885e-06
-4.00356e-07
1.46549e-06
-6.37044e-07
1.46338e-06
-8.74856e-07
1.46176e-06
-1.11422e-06
1.45962e-06
-1.35534e-06
1.4557e-06
-1.59813e-06
1.44852e-06
-1.84208e-06
1.43633e-06
-2.08615e-06
1.41721e-06
-2.32854e-06
1.38905e-06
-2.56656e-06
1.3497e-06
-2.7963e-06
1.29706e-06
-3.01247e-06
1.22925e-06
-3.2081e-06
1.14489e-06
-3.37432e-06
1.04334e-06
-3.5003e-06
9.25087e-07
-3.57323e-06
7.92033e-07
-3.57857e-06
6.47867e-07
-3.50053e-06
4.98293e-07
-3.32287e-06
3.51115e-07
-3.02997e-06
2.16099e-07
-2.60815e-06
1.04552e-07
-2.04708e-06
2.8596e-08
-1.34114e-06
-4.91522e-07
2.58249e-08
4.78592e-07
9.5223e-08
1.30903e-06
1.98251e-07
2.00279e-06
3.24327e-07
2.55793e-06
4.63207e-07
2.97867e-06
6.05676e-07
3.27368e-06
7.44044e-07
3.45506e-06
8.7241e-07
3.53711e-06
9.8671e-07
3.53515e-06
1.08459e-06
3.46438e-06
1.16516e-06
3.33912e-06
1.2287e-06
3.17217e-06
1.27636e-06
2.97456e-06
1.30981e-06
2.75539e-06
1.33109e-06
2.5219e-06
1.3423e-06
2.27967e-06
1.34555e-06
2.0328e-06
1.34279e-06
1.78417e-06
1.33579e-06
1.53569e-06
1.32606e-06
1.28854e-06
1.31489e-06
1.0433e-06
1.30332e-06
8.00136e-07
1.29213e-06
5.58926e-07
1.2819e-06
3.19347e-07
1.27298e-06
8.09558e-08
1.26551e-06
-1.56755e-07
1.25946e-06
-3.94299e-07
1.25456e-06
-6.32145e-07
1.25038e-06
-8.70674e-07
1.24627e-06
-1.11011e-06
1.24141e-06
-1.35047e-06
1.23475e-06
-1.59147e-06
1.22506e-06
-1.83239e-06
1.21093e-06
-2.07202e-06
1.19079e-06
-2.30841e-06
1.16299e-06
-2.53875e-06
1.12583e-06
-2.75914e-06
1.07769e-06
-2.96434e-06
1.01722e-06
-3.14763e-06
9.43465e-07
-3.30056e-06
8.56129e-07
-3.41296e-06
7.55825e-07
-3.47293e-06
6.4433e-07
-3.46707e-06
5.24807e-07
-3.38101e-06
4.01973e-07
-3.20004e-06
2.82123e-07
-2.91012e-06
1.72991e-07
-2.49902e-06
8.34063e-08
-1.95749e-06
2.27324e-08
-1.28047e-06
-4.6879e-07
2.0147e-08
4.58445e-07
7.45662e-08
1.25461e-06
1.55798e-07
1.92156e-06
2.55838e-07
2.45789e-06
3.66845e-07
2.86766e-06
4.81661e-07
3.15886e-06
5.94197e-07
3.34252e-06
6.9966e-07
3.43165e-06
7.94625e-07
3.44018e-06
8.76974e-07
3.38203e-06
9.45743e-07
3.27035e-06
1.00091e-06
3.117e-06
1.04317e-06
2.9323e-06
1.07372e-06
2.72484e-06
1.09405e-06
2.50158e-06
1.10578e-06
2.26794e-06
1.11056e-06
2.02801e-06
1.10996e-06
1.78476e-06
1.10542e-06
1.54024e-06
1.09819e-06
1.29578e-06
1.08934e-06
1.05215e-06
1.07975e-06
8.09719e-07
1.07012e-06
5.68562e-07
1.06093e-06
3.28537e-07
1.05251e-06
8.9379e-08
1.045e-06
-1.49247e-07
1.03839e-06
-3.87688e-07
1.03249e-06
-6.26251e-07
1.02697e-06
-8.65156e-07
1.02133e-06
-1.10447e-06
1.0149e-06
-1.34404e-06
1.00686e-06
-1.58343e-06
9.9624e-07
-1.82178e-06
9.8194e-07
-2.05772e-06
9.62742e-07
-2.28921e-06
9.37366e-07
-2.51338e-06
9.0453e-07
-2.7263e-06
8.63041e-07
-2.92285e-06
8.11912e-07
-3.0965e-06
7.50511e-07
-3.23916e-06
6.78734e-07
-3.34119e-06
5.97194e-07
-3.39139e-06
5.07404e-07
-3.37728e-06
4.11939e-07
-3.28554e-06
3.14539e-07
-3.10264e-06
2.20109e-07
-2.81569e-06
1.34599e-07
-2.41351e-06
6.47357e-08
-1.88763e-06
1.76013e-08
-1.23333e-06
-4.51189e-07
1.51604e-08
4.43284e-07
5.62894e-08
1.21348e-06
1.17966e-07
1.85988e-06
1.94326e-07
2.38153e-06
2.7957e-07
2.78242e-06
3.68332e-07
3.0701e-06
4.55972e-07
3.25488e-06
5.38759e-07
3.34886e-06
6.13949e-07
3.36499e-06
6.79761e-07
3.31622e-06
7.35282e-07
3.21483e-06
7.80333e-07
3.07195e-06
8.15305e-07
2.89733e-06
8.40998e-07
2.69915e-06
8.58478e-07
2.4841e-06
8.68947e-07
2.25747e-06
8.73649e-07
2.02331e-06
8.7379e-07
1.78462e-06
8.70488e-07
1.54354e-06
8.64742e-07
1.30152e-06
8.57412e-07
1.05948e-06
8.49212e-07
8.1792e-07
8.40705e-07
5.77069e-07
8.32311e-07
3.36931e-07
8.24311e-07
9.73794e-08
8.16848e-07
-1.41784e-07
8.09935e-07
-3.80775e-07
8.03459e-07
-6.19775e-07
7.97179e-07
-8.58876e-07
7.90732e-07
-1.09802e-06
7.83634e-07
-1.33694e-06
7.7528e-07
-1.57507e-06
7.64956e-07
-1.81145e-06
7.51849e-07
-2.04461e-06
7.35068e-07
-2.27243e-06
7.13682e-07
-2.49199e-06
6.86764e-07
-2.69938e-06
6.53465e-07
-2.88955e-06
6.13094e-07
-3.05613e-06
5.65236e-07
-3.1913e-06
5.0987e-07
-3.28582e-06
4.47509e-07
-3.32902e-06
3.79327e-07
-3.3091e-06
3.07273e-07
-3.21349e-06
2.34134e-07
-3.0295e-06
1.63533e-07
-2.74509e-06
9.98351e-08
-2.34981e-06
4.79469e-08
-1.83574e-06
1.30203e-08
-1.1984e-06
-4.38168e-07
1.06874e-08
4.32597e-07
3.98031e-08
1.18436e-06
8.36495e-08
1.81604e-06
1.38193e-07
2.32699e-06
1.994e-07
2.72121e-06
2.63492e-07
3.00601e-06
3.27148e-07
3.19122e-06
3.87649e-07
3.28836e-06
4.42941e-07
3.3097e-06
4.91639e-07
3.26752e-06
5.32974e-07
3.17349e-06
5.66707e-07
3.03822e-06
5.93024e-07
2.87101e-06
6.12427e-07
2.67974e-06
6.25631e-07
2.47089e-06
6.33471e-07
2.24963e-06
6.3683e-07
2.01995e-06
6.36579e-07
1.78487e-06
6.33541e-07
1.54658e-06
6.28457e-07
1.30661e-06
6.21976e-07
1.06596e-06
6.14643e-07
8.25254e-07
6.06896e-07
5.84816e-07
5.9907e-07
3.44756e-07
5.91399e-07
1.05051e-07
5.84017e-07
-1.34402e-07
5.76965e-07
-3.73723e-07
5.70195e-07
-6.13004e-07
5.63566e-07
-8.52248e-07
5.56854e-07
-1.09131e-06
5.4975e-07
-1.32984e-06
5.41861e-07
-1.56719e-06
5.32721e-07
-1.80231e-06
5.21797e-07
-2.03369e-06
5.08501e-07
-2.25914e-06
4.92221e-07
-2.47571e-06
4.72344e-07
-2.67951e-06
4.48308e-07
-2.86552e-06
4.19661e-07
-3.02748e-06
3.86126e-07
-3.15777e-06
3.47695e-07
-3.24739e-06
3.04711e-07
-3.28604e-06
2.5796e-07
-3.26235e-06
2.08746e-07
-3.16427e-06
1.58933e-07
-2.97968e-06
1.10945e-07
-2.6971e-06
6.77082e-08
-2.30657e-06
3.25152e-08
-1.80055e-06
8.83239e-09
-1.17472e-06
-4.29336e-07
6.57448e-09
4.26022e-07
2.45853e-08
1.16635e-06
5.18488e-08
1.78877e-06
8.5947e-08
2.29289e-06
1.24423e-07
2.68274e-06
1.64933e-07
2.9655e-06
2.05379e-07
3.15078e-06
2.44003e-07
3.24974e-06
2.7944e-07
3.27426e-06
3.10732e-07
3.23623e-06
3.37308e-07
3.14691e-06
3.58939e-07
3.01659e-06
3.75678e-07
2.85427e-06
3.87793e-07
2.66763e-06
3.95705e-07
2.46298e-06
3.99927e-07
2.24541e-06
4.01017e-07
2.01886e-06
3.99537e-07
1.78635e-06
3.96025e-07
1.55009e-06
3.90975e-07
1.31165e-06
3.84826e-07
1.07211e-06
3.77951e-07
8.32128e-07
3.70663e-07
5.92104e-07
3.63205e-07
3.52214e-07
3.5576e-07
1.12496e-07
3.48451e-07
-1.27092e-07
3.41344e-07
-3.66616e-07
3.34451e-07
-6.06111e-07
3.27732e-07
-8.45529e-07
3.21099e-07
-1.08468e-06
3.14416e-07
-1.32316e-06
3.075e-07
-1.56027e-06
3.00125e-07
-1.79494e-06
2.92029e-07
-2.02559e-06
2.82914e-07
-2.25002e-06
2.72462e-07
-2.46526e-06
2.60349e-07
-2.66739e-06
2.46268e-07
-2.85143e-06
2.29954e-07
-3.01116e-06
2.11231e-07
-3.13905e-06
1.90049e-07
-3.22621e-06
1.66542e-07
-3.26253e-06
1.41076e-07
-3.23688e-06
1.14299e-07
-3.1375e-06
8.71739e-08
-2.95256e-06
6.09841e-08
-2.67091e-06
3.73116e-08
-2.2829e-06
1.79703e-08
-1.78121e-06
4.90019e-09
-1.16165e-06
-4.24436e-07
2.68636e-09
4.23336e-07
1.01678e-08
1.15887e-06
2.16499e-08
1.77729e-06
3.62003e-08