/*--------------------------------*- C++ -*----------------------------------*\
  =========                 |
  \\      /  F ield         | OpenFOAM: The Open Source CFD Toolbox
   \\    /   O peration     | Website:  https://openfoam.org
    \\  /    A nd           | Version:  7
     \\/     M anipulation  |
\*---------------------------------------------------------------------------*/
FoamFile
{
    version     2.0;
    format      ascii;
    class       volVectorField;
    location    "0.0078";
    object      U;
}
// * * * * * * * * * * * * * * * * * * * * * * * * * * * * * * * * * * * * * //

dimensions      [0 1 -1 0 0 0 0];

internalField   nonuniform List<vector> 
2500
(
(-0.294001 0.153909 0)
(-0.398267 0.128794 0)
(-0.577885 0.0736618 0)
(-0.695231 0.0405738 0)
(-0.762827 0.0229643 0)
(-0.805431 0.0136181 0)
(-0.834043 0.00856949 0)
(-0.853996 0.00572367 0)
(-0.868396 0.00401787 0)
(-0.879091 0.00292876 0)
(-0.887207 0.00219501 0)
(-0.893468 0.00167964 0)
(-0.898362 0.00130604 0)
(-0.902229 0.00102845 0)
(-0.905309 0.000817789 0)
(-0.907778 0.000654713 0)
(-0.909764 0.000525879 0)
(-0.911361 0.000421866 0)
(-0.912638 0.000335908 0)
(-0.913645 0.000263081 0)
(-0.91442 0.000199758 0)
(-0.914991 0.000143224 0)
(-0.915375 9.1398e-05 0)
(-0.915587 4.26343e-05 0)
(-0.915634 -4.4312e-06 0)
(-0.915518 -5.10337e-05 0)
(-0.915239 -9.83266e-05 0)
(-0.914793 -0.000147528 0)
(-0.914168 -0.00020002 0)
(-0.913351 -0.000257479 0)
(-0.912319 -0.000322032 0)
(-0.911042 -0.00039648 0)
(-0.909481 -0.000484583 0)
(-0.90758 -0.000591473 0)
(-0.905266 -0.000724239 0)
(-0.902438 -0.000892796 0)
(-0.898963 -0.00111127 0)
(-0.894657 -0.00140031 0)
(-0.889268 -0.00179119 0)
(-0.882442 -0.0023337 0)
(-0.873674 -0.00311176 0)
(-0.862216 -0.00427541 0)
(-0.846906 -0.00610798 0)
(-0.825859 -0.00916455 0)
(-0.795973 -0.0145344 0)
(-0.752013 -0.0242692 0)
(-0.683169 -0.0420937 0)
(-0.565729 -0.0747326 0)
(-0.389876 -0.128353 0)
(-0.290389 -0.152541 0)
(-0.00522696 0.303201 0)
(-0.0265782 0.3069 0)
(-0.168967 0.216338 0)
(-0.302762 0.144214 0)
(-0.407582 0.0961043 0)
(-0.487894 0.0652879 0)
(-0.548753 0.0456477 0)
(-0.594768 0.0328688 0)
(-0.629806 0.0242784 0)
(-0.656757 0.0183096 0)
(-0.677696 0.0140417 0)
(-0.694116 0.0109166 0)
(-0.707103 0.008583 0)
(-0.71745 0.0068104 0)
(-0.725744 0.00544227 0)
(-0.73242 0.00436909 0)
(-0.737804 0.00351252 0)
(-0.742137 0.00281564 0)
(-0.745602 0.00223655 0)
(-0.748333 0.00174412 0)
(-0.75043 0.00131492 0)
(-0.751966 0.000931073 0)
(-0.752992 0.00057861 0)
(-0.753543 0.000246268 0)
(-0.753639 -7.54822e-05 0)
(-0.753288 -0.000395231 0)
(-0.752487 -0.000721288 0)
(-0.75122 -0.00106237 0)
(-0.749459 -0.0014283 0)
(-0.747162 -0.0018308 0)
(-0.744268 -0.0022845 0)
(-0.740694 -0.00280817 0)
(-0.73633 -0.00342639 0)
(-0.731028 -0.00417176 0)
(-0.724594 -0.00508796 0)
(-0.71677 -0.00623408 0)
(-0.707217 -0.00769108 0)
(-0.695485 -0.00957165 0)
(-0.680975 -0.0120362 0)
(-0.662887 -0.01532 0)
(-0.640145 -0.0197794 0)
(-0.611291 -0.0259754 0)
(-0.574332 -0.0348205 0)
(-0.526562 -0.047836 0)
(-0.464475 -0.0675461 0)
(-0.384059 -0.0978734 0)
(-0.281014 -0.14418 0)
(-0.151837 -0.212543 0)
(-0.0169749 -0.298726 0)
(-0.00120524 -0.295222 0)
(0.0322916 0.263842 0)
(0.0580035 0.359999 0)
(0.00147988 0.320131 0)
(-0.0855942 0.253397 0)
(-0.175348 0.191847 0)
(-0.256356 0.143359 0)
(-0.324793 0.1074 0)
(-0.380738 0.081183 0)
(-0.425812 0.0620319 0)
(-0.461936 0.0479117 0)
(-0.490869 0.0373788 0)
(-0.514086 0.0294271 0)
(-0.532774 0.0233534 0)
(-0.547867 0.0186594 0)
(-0.560093 0.0149873 0)
(-0.570015 0.0120756 0)
(-0.578066 0.00973169 0)
(-0.584576 0.00781178 0)
(-0.5898 0.00620807 0)
(-0.593926 0.00483898 0)
(-0.597099 0.00364227 0)
(-0.599423 0.00256975 0)
(-0.600974 0.00158335 0)
(-0.601802 0.000651988 0)
(-0.601937 -0.000250835 0)
(-0.60139 -0.00114913 0)
(-0.600157 -0.00206622 0)
(-0.598214 -0.00302653 0)
(-0.595519 -0.00405736 0)
(-0.59201 -0.00519101 0)
(-0.587598 -0.00646717 0)
(-0.582166 -0.00793605 0)
(-0.575556 -0.00966221 0)
(-0.567564 -0.0117296 0)
(-0.557925 -0.0142484 0)
(-0.546298 -0.0173637 0)
(-0.532246 -0.0212684 0)
(-0.515212 -0.0262206 0)
(-0.494491 -0.0325704 0)
(-0.469196 -0.040798 0)
(-0.438232 -0.0515722 0)
(-0.40028 -0.065833 0)
(-0.353828 -0.0849014 0)
(-0.297329 -0.110593 0)
(-0.229682 -0.145218 0)
(-0.151385 -0.191026 0)
(-0.0666218 -0.248044 0)
(0.0133161 -0.308689 0)
(0.062029 -0.343561 0)
(0.0329141 -0.250703 0)
(0.0275508 0.203924 0)
(0.0663823 0.352289 0)
(0.062605 0.365674 0)
(0.0222698 0.324519 0)
(-0.0366269 0.268555 0)
(-0.100087 0.215129 0)
(-0.160302 0.169991 0)
(-0.213847 0.133786 0)
(-0.259783 0.105389 0)
(-0.298394 0.0833056 0)
(-0.330478 0.0661556 0)
(-0.356975 0.0528031 0)
(-0.378795 0.0423567 0)
(-0.39674 0.0341289 0)
(-0.411489 0.0275931 0)
(-0.423598 0.0223461 0)
(-0.433515 0.0180788 0)
(-0.441594 0.0145543 0)
(-0.448115 0.0115904 0)
(-0.453291 0.00904678 0)
(-0.457286 0.00681427 0)
(-0.460223 0.00480732 0)
(-0.462191 0.00295743 0)
(-0.463248 0.00120816 0)
(-0.463432 -0.000489051 0)
(-0.462756 -0.00217838 0)
(-0.461213 -0.00390277 0)
(-0.458778 -0.00570694 0)
(-0.455401 -0.00764053 0)
(-0.451009 -0.00976149 0)
(-0.445502 -0.0121401 0)
(-0.438746 -0.0148639 0)
(-0.430567 -0.0180431 0)
(-0.420744 -0.0218186 0)
(-0.408998 -0.0263704 0)
(-0.39498 -0.0319294 0)
(-0.378265 -0.0387917 0)
(-0.358337 -0.0473377 0)
(-0.334587 -0.0580549 0)
(-0.306323 -0.0715674 0)
(-0.272802 -0.0886664 0)
(-0.233317 -0.110333 0)
(-0.187378 -0.137721 0)
(-0.135067 -0.172011 0)
(-0.077686 -0.213948 0)
(-0.0188421 -0.262584 0)
(0.0339575 -0.312328 0)
(0.0677414 -0.347244 0)
(0.0664694 -0.331232 0)
(0.0269008 -0.190578 0)
(0.0189867 0.160581 0)
(0.056423 0.321825 0)
(0.077677 0.370493 0)
(0.0702001 0.357215 0)
(0.0407008 0.316586 0)
(-0.00046977 0.268277 0)
(-0.0455382 0.221834 0)
(-0.0896918 0.181038 0)
(-0.130358 0.146796 0)
(-0.166442 0.118744 0)
(-0.197727 0.0960557 0)
(-0.224453 0.0778156 0)
(-0.247067 0.0631738 0)
(-0.26608 0.0513984 0)
(-0.28199 0.0418823 0)
(-0.295247 0.0341325 0)
(-0.306235 0.0277541 0)
(-0.315277 0.0224334 0)
(-0.322634 0.0179221 0)
(-0.328515 0.0140245 0)
(-0.333083 0.0105857 0)
(-0.336463 0.00748202 0)
(-0.338744 0.00461308 0)
(-0.339991 0.00189527 0)
(-0.340241 -0.000743973 0)
(-0.33951 -0.00337093 0)
(-0.337793 -0.00604999 0)
(-0.335063 -0.00884785 0)
(-0.33127 -0.0118378 0)
(-0.326343 -0.0151043 0)
(-0.320183 -0.018748 0)
(-0.312659 -0.0228923 0)
(-0.303608 -0.0276893 0)
(-0.292826 -0.0333286 0)
(-0.280068 -0.0400466 0)
(-0.26504 -0.0481362 0)
(-0.247403 -0.0579586 0)
(-0.226784 -0.0699545 0)
(-0.20279 -0.0846529 0)
(-0.175055 -0.102673 0)
(-0.143322 -0.124707 0)
(-0.107576 -0.151463 0)
(-0.0682799 -0.183508 0)
(-0.0267329 -0.220933 0)
(0.0144258 -0.262638 0)
(0.0506228 -0.304944 0)
(0.0748171 -0.33911 0)
(0.0779152 -0.347525 0)
(0.0546412 -0.299247 0)
(0.0180857 -0.148458 0)
(0.0125474 0.129935 0)
(0.0445063 0.285979 0)
(0.0753716 0.354067 0)
(0.0875405 0.363447 0)
(0.0803155 0.340045 0)
(0.0593718 0.301789 0)
(0.0305684 0.259437 0)
(-0.00150506 0.218698 0)
(-0.0337157 0.182162 0)
(-0.0641817 0.150667 0)
(-0.0919309 0.124147 0)
(-0.116584 0.102121 0)
(-0.138117 0.0839645 0)
(-0.156698 0.0690365 0)
(-0.172581 0.0567472 0)
(-0.186051 0.0465808 0)
(-0.197381 0.0381013 0)
(-0.206819 0.0309476 0)
(-0.214578 0.0248245 0)
(-0.220837 0.0194931 0)
(-0.225738 0.0147596 0)
(-0.229395 0.010467 0)
(-0.231893 0.00648546 0)
(-0.23329 0.00270557 0)
(-0.233624 -0.000968458 0)
(-0.232912 -0.0046245 0)
(-0.231149 -0.00834788 0)
(-0.228313 -0.0122264 0)
(-0.22436 -0.0163555 0)
(-0.219227 -0.0208435 0)
(-0.212829 -0.0258175 0)
(-0.205056 -0.0314296 0)
(-0.195773 -0.037864 0)
(-0.184821 -0.0453438 0)
(-0.172018 -0.0541385 0)
(-0.157163 -0.0645704 0)
(-0.140046 -0.0770181 0)
(-0.120477 -0.0919159 0)
(-0.0983147 -0.109743 0)
(-0.0735328 -0.130992 0)
(-0.0463145 -0.156108 0)
(-0.017194 -0.185362 0)
(0.0127465 -0.218613 0)
(0.041623 -0.254888 0)
(0.0664974 -0.291665 0)
(0.0832706 -0.323717 0)
(0.0869097 -0.341486 0)
(0.0727477 -0.329202 0)
(0.0420904 -0.263921 0)
(0.0117315 -0.119298 0)
(0.00846786 0.107442 0)
(0.0348204 0.251559 0)
(0.0676445 0.328177 0)
(0.090038 0.353387 0)
(0.0976431 0.345215 0)
(0.0924431 0.318304 0)
(0.0780119 0.282896 0)
(0.0579187 0.24542 0)
(0.035097 0.209515 0)
(0.0116613 0.176971 0)
(-0.0110134 0.148456 0)
(-0.0321222 0.123993 0)
(-0.0512595 0.103276 0)
(-0.0682806 0.0858515 0)
(-0.0831989 0.0712263 0)
(-0.0961142 0.0589246 0)
(-0.107167 0.0485158 0)
(-0.116508 0.0396256 0)
(-0.124283 0.0319361 0)
(-0.130623 0.0251818 0)
(-0.135639 0.0191427 0)
(-0.139421 0.0136358 0)
(-0.142041 0.00850794 0)
(-0.143549 0.00362778 0)
(-0.143979 -0.00112057 0)
(-0.143346 -0.00584397 0)
(-0.14165 -0.0106461 0)
(-0.138873 -0.0156329 0)
(-0.134982 -0.0209182 0)
(-0.12993 -0.0266293 0)
(-0.123651 -0.0329125 0)
(-0.116068 -0.0399394 0)
(-0.107087 -0.0479123 0)
(-0.096607 -0.0570696 0)
(-0.0845234 -0.0676892 0)
(-0.0707399 -0.0800891 0)
(-0.0551875 -0.0946223 0)
(-0.0378538 -0.111662 0)
(-0.0188261 -0.131573 0)
(0.00164522 -0.154654 0)
(0.0230606 -0.18104 0)
(0.0445599 -0.210546 0)
(0.0647953 -0.242399 0)
(0.0818121 -0.274843 0)
(0.0930203 -0.304541 0)
(0.095397 -0.325792 0)
(0.0860523 -0.329664 0)
(0.063593 -0.303415 0)
(0.0323238 -0.231146 0)
(0.00779745 -0.0982932 0)
(0.00598371 0.0904199 0)
(0.027624 0.22072 0)
(0.0589664 0.299125 0)
(0.0856867 0.334194 0)
(0.102163 0.33796 0)
(0.108028 0.32165 0)
(0.104928 0.294142 0)
(0.0952245 0.261729 0)
(0.0812692 0.228488 0)
(0.065028 0.196816 0)
(0.047976 0.16795 0)
(0.0311342 0.142376 0)
(0.0151564 0.120126 0)
(0.000423953 0.100976 0)
(-0.0128714 0.0845792 0)
(-0.024662 0.0705469 0)
(-0.0349559 0.0584934 0)
(-0.0438036 0.0480627 0)
(-0.0512747 0.0389387 0)
(-0.0574441 0.0308481 0)
(-0.0623832 0.0235577 0)
(-0.0661546 0.0168696 0)
(-0.0688097 0.0106143 0)
(-0.0703878 0.00464493 0)
(-0.0709154 -0.00116995 0)
(-0.0704066 -0.006952 0)
(-0.0688635 -0.0128191 0)
(-0.0662766 -0.0188911 0)
(-0.0626255 -0.025295 0)
(-0.0578799 -0.0321704 0)
(-0.0520016 -0.0396749 0)
(-0.0449462 -0.0479887 0)
(-0.036668 -0.0573186 0)
(-0.0271262 -0.0679004 0)
(-0.0162947 -0.0799982 0)
(-0.00417733 -0.0938986 0)
(0.00917085 -0.109897 0)
(0.0236129 -0.128273 0)
(0.0388892 -0.149243 0)
(0.054564 -0.17289 0)
(0.0699621 -0.199052 0)
(0.0841005 -0.227155 0)
(0.0956333 -0.25597 0)
(0.102844 -0.283281 0)
(0.103759 -0.305469 0)
(0.096486 -0.317061 0)
(0.0798266 -0.3104 0)
(0.0543564 -0.27575 0)
(0.0252592 -0.202461 0)
(0.00543932 -0.0826497 0)
(0.00443097 0.0771375 0)
(0.022293 0.193824 0)
(0.0508009 0.270195 0)
(0.0784156 0.310648 0)
(0.0995118 0.323046 0)
(0.112461 0.315683 0)
(0.117546 0.295832 0)
(0.116061 0.269175 0)
(0.109671 0.239774 0)
(0.0999954 0.210304 0)
(0.0884031 0.182373 0)
(0.0759581 0.156826 0)
(0.0634334 0.133993 0)
(0.0513578 0.113882 0)
(0.0400712 0.0963133 0)
(0.0297748 0.0810091 0)
(0.0205742 0.067657 0)
(0.0125115 0.0559438 0)
(0.00559001 0.0455762 0)
(-0.000209046 0.0362902 0)
(-0.00491469 0.0278533 0)
(-0.00855879 0.0200628 0)
(-0.0111712 0.0127419 0)
(-0.012777 0.00573443 0)
(-0.0133947 -0.0011005 0)
(-0.0130361 -0.00789434 0)
(-0.0117056 -0.0147743 0)
(-0.00940137 -0.0218689 0)
(-0.00611611 -0.0293124 0)
(-0.00183866 -0.0372504 0)
(0.00344329 -0.0458432 0)
(0.00973933 -0.0552696 0)
(0.0170507 -0.0657288 0)
(0.025362 -0.0774394 0)
(0.03463 -0.090635 0)
(0.0447676 -0.105553 0)
(0.0556231 -0.122413 0)
(0.0669528 -0.141385 0)
(0.0783879 -0.162535 0)
(0.0893971 -0.185748 0)
(0.0992485 -0.210613 0)
(0.106983 -0.236275 0)
(0.111415 -0.261233 0)
(0.111197 -0.283095 0)
(0.104997 -0.298324 0)
(0.0918584 -0.302032 0)
(0.0717147 -0.287972 0)
(0.0461325 -0.24893 0)
(0.0201377 -0.177871 0)
(0.00398494 -0.0706014 0)
(0.00340454 0.0665044 0)
(0.0182366 0.170635 0)
(0.0435162 0.243009 0)
(0.0701283 0.285765 0)
(0.0929988 0.30399 0)
(0.109969 0.303692 0)
(0.120478 0.290628 0)
(0.125006 0.269674 0)
(0.124588 0.244604 0)
(0.120433 0.218118 0)
(0.113697 0.19201 0)
(0.105367 0.16736 0)
(0.0962319 0.144734 0)
(0.0868874 0.124342 0)
(0.0777607 0.106164 0)
(0.0691457 0.0900446 0)
(0.0612341 0.0757568 0)
(0.0541437 0.0630466 0)
(0.0479409 0.0516589 0)
(0.0426579 0.0413525 0)
(0.0383054 0.0319075 0)
(0.0348817 0.0231264 0)
(0.0323787 0.014833 0)
(0.0307862 0.00686905 0)
(0.0300942 -0.000910084 0)
(0.0302944 -0.00864016 0)
(0.0313801 -0.0164526 0)
(0.0333464 -0.0244792 0)
(0.0361886 -0.0328561 0)
(0.0399002 -0.0417281 0)
(0.0444694 -0.0512512 0)
(0.0498752 -0.0615944 0)
(0.0560802 -0.0729399 0)
(0.0630227 -0.0854789 0)
(0.0706049 -0.099404 0)
(0.0786781 -0.114894 0)
(0.0870251 -0.132087 0)
(0.0953386 -0.151046 0)
(0.103198 -0.171701 0)
(0.110049 -0.193773 0)
(0.115186 -0.216672 0)
(0.11776 -0.239371 0)
(0.116815 -0.260252 0)
(0.111388 -0.276948 0)
(0.100696 -0.28621 0)
(0.0844548 -0.28386 0)
(0.0632659 -0.264941 0)
(0.0390695 -0.224183 0)
(0.0163168 -0.156948 0)
(0.00303612 -0.0610565 0)
(0.00268259 0.0578463 0)
(0.0150482 0.150769 0)
(0.0371232 0.218295 0)
(0.0617488 0.261353 0)
(0.0845811 0.283231 0)
(0.103363 0.28824 0)
(0.11708 0.28085 0)
(0.125659 0.265114 0)
(0.129628 0.244385 0)
(0.12981 0.221224 0)
(0.127105 0.19746 0)
(0.122361 0.174304 0)
(0.116313 0.152481 0)
(0.109558 0.132359 0)
(0.102559 0.114058 0)
(0.0956618 0.0975371 0)
(0.0891141 0.0826595 0)
(0.0830891 0.069237 0)
(0.0777024 0.0570618 0)
(0.073028 0.0459255 0)
(0.069111 0.0356294 0)
(0.0659763 0.0259895 0)
(0.0636363 0.0168375 0)
(0.0620946 0.00801912 0)
(0.06135 -0.000608311 0)
(0.0613977 -0.00917974 0)
(0.0622301 -0.0178259 0)
(0.0638366 -0.0266768 0)
(0.0662023 -0.0358656 0)
(0.0693058 -0.0455306 0)
(0.0731155 -0.0558178 0)
(0.0775853 -0.0668803 0)
(0.082648 -0.0788768 0)
(0.0882071 -0.0919654 0)
(0.0941267 -0.106293 0)
(0.100219 -0.121977 0)
(0.10623 -0.13908 0)
(0.111827 -0.157569 0)
(0.116582 -0.177261 0)
(0.119965 -0.197757 0)
(0.121349 -0.218354 0)
(0.120034 -0.237944 0)
(0.115302 -0.25491 0)
(0.106525 -0.26703 0)
(0.0933413 -0.271432 0)
(0.075905 -0.264635 0)
(0.0551509 -0.242762 0)
(0.033049 -0.201976 0)
(0.0133677 -0.139197 0)
(0.00237753 -0.053347 0)
(0.00214661 0.0507286 0)
(0.0124716 0.133831 0)
(0.031541 0.196304 0)
(0.0537318 0.238442 0)
(0.0754306 0.262378 0)
(0.0945088 0.271207 0)
(0.109766 0.268365 0)
(0.120787 0.25716 0)
(0.127732 0.240481 0)
(0.131098 0.220664 0)
(0.131539 0.199475 0)
(0.129739 0.178163 0)
(0.126338 0.157545 0)
(0.121892 0.138101 0)
(0.116858 0.120064 0)
(0.111599 0.103492 0)
(0.106393 0.0883303 0)
(0.101448 0.0744586 0)
(0.0969116 0.06172 0)
(0.0928902 0.0499438 0)
(0.0894554 0.0389589 0)
(0.0866543 0.0286008 0)
(0.0845162 0.0187145 0)
(0.0830573 0.00915519 0)
(0.0822843 -0.000213232 0)
(0.0821962 -0.00952027 0)
(0.0827852 -0.0188916 0)
(0.0840366 -0.0284515 0)
(0.0859279 -0.0383255 0)
(0.088426 -0.0486417 0)
(0.0914846 -0.0595314 0)
(0.0950393 -0.0711281 0)
(0.0990019 -0.0835635 0)
(0.103253 -0.0969603 0)
(0.107635 -0.11142 0)
(0.11194 -0.127003 0)
(0.115903 -0.143703 0)
(0.11919 -0.161408 0)
(0.121399 -0.179854 0)
(0.122055 -0.19856 0)
(0.120631 -0.216766 0)
(0.11658 -0.233353 0)
(0.109398 -0.246776 0)
(0.0987275 -0.255022 0)
(0.0844985 -0.255609 0)
(0.0671199 -0.245677 0)
(0.0476484 -0.22221 0)
(0.0279114 -0.182397 0)
(0.0110232 -0.124171 0)
(0.00189469 -0.0470461 0)
(0.00173245 0.0448518 0)
(0.010349 0.119457 0)
(0.0266805 0.177037 0)
(0.0463008 0.217567 0)
(0.0662549 0.242445 0)
(0.0846458 0.253906 0)
(0.10025 0.25459 0)
(0.112472 0.247171 0)
(0.121222 0.234095 0)
(0.126749 0.217434 0)
(0.129492 0.198833 0)
(0.129974 0.179515 0)
(0.128723 0.160336 0)
(0.126229 0.141844 0)
(0.122916 0.124354 0)
(0.119139 0.108004 0)
(0.115182 0.0928118 0)
(0.111268 0.0787192 0)
(0.107566 0.0656194 0)
(0.104201 0.0533816 0)
(0.101264 0.0418651 0)
(0.0988178 0.0309284 0)
(0.096906 0.0204341 0)
(0.0955546 0.0102506 0)
(0.0947771 0.000252437 0)
(0.0945761 -0.00968099 0)
(0.0949445 -0.0196668 0)
(0.0958651 -0.0298201 0)
(0.0973101 -0.0402557 0)
(0.0992389 -0.0510884 0)
(0.101595 -0.0624324 0)
(0.104302 -0.0743995 0)
(0.107261 -0.0870934 0)
(0.110339 -0.100602 0)
(0.11337 -0.114984 0)
(0.116142 -0.130251 0)
(0.118396 -0.146338 0)
(0.119819 -0.163075 0)
(0.12005 -0.180138 0)
(0.118684 -0.197005 0)
(0.115296 -0.212898 0)
(0.109481 -0.226733 0)
(0.100912 -0.23708 0)
(0.0894283 -0.24215 0)
(0.0751489 -0.239829 0)
(0.0586092 -0.227779 0)
(0.0408608 -0.203647 0)
(0.0235174 -0.165352 0)
(0.00911827 -0.111481 0)
(0.00152575 -0.0418637 0)
(0.00140398 0.0399942 0)
(0.0085802 0.107317 0)
(0.0224621 0.160361 0)
(0.0395578 0.19895 0)
(0.0574756 0.22402 0)
(0.0745824 0.237207 0)
(0.0897242 0.240549 0)
(0.102235 0.236201 0)
(0.111874 0.226218 0)
(0.118709 0.212407 0)
(0.123009 0.196261 0)
(0.125152 0.17894 0)
(0.125556 0.161297 0)
(0.124631 0.143914 0)
(0.122755 0.127158 0)
(0.120256 0.111228 0)
(0.117408 0.0962022 0)
(0.114435 0.0820754 0)
(0.111511 0.0687876 0)
(0.108772 0.0562462 0)
(0.106321 0.044342 0)
(0.104232 0.0329583 0)
(0.102557 0.0219774 0)
(0.101329 0.0112836 0)
(0.100569 0.00076468 0)
(0.10028 -0.00968831 0)
(0.100458 -0.0201813 0)
(0.101085 -0.030818 0)
(0.102129 -0.0417003 0)
(0.103546 -0.0529278 0)
(0.105274 -0.0645966 0)
(0.107232 -0.076796 0)
(0.109313 -0.0896028 0)
(0.111385 -0.103073 0)
(0.113281 -0.117227 0)
(0.114798 -0.132035 0)
(0.115694 -0.147388 0)
(0.115689 -0.163072 0)
(0.114469 -0.178729 0)
(0.111704 -0.193818 0)
(0.107063 -0.207577 0)
(0.100261 -0.218983 0)
(0.091107 -0.226737 0)
(0.0795759 -0.229269 0)
(0.0658976 -0.224787 0)
(0.0506484 -0.211379 0)
(0.0348066 -0.187191 0)
(0.0197553 -0.150661 0)
(0.00754838 -0.100796 0)
(0.00123581 -0.0375891 0)
(0.00113936 0.0359831 0)
(0.00709793 0.0971152 0)
(0.0188158 0.146071 0)
(0.0335335 0.182621 0)
(0.0493291 0.207406 0)
(0.0648281 0.221649 0)
(0.0789927 0.226942 0)
(0.0911565 0.225029 0)
(0.100998 0.21763 0)
(0.108467 0.206308 0)
(0.113701 0.192398 0)
(0.116958 0.176976 0)
(0.118556 0.160863 0)
(0.118828 0.14465 0)
(0.118096 0.128732 0)
(0.116651 0.113353 0)
(0.114745 0.0986349 0)
(0.112592 0.0846178 0)
(0.110364 0.0712822 0)
(0.108199 0.0585711 0)
(0.106203 0.0464052 0)
(0.104455 0.0346927 0)
(0.103014 0.0233366 0)
(0.101918 0.0122385 0)
(0.101191 0.00130098 0)
(0.10084 -0.00957153 0)
(0.100862 -0.0204722 0)
(0.101237 -0.0314919 0)
(0.101936 -0.0427182 0)
(0.102911 -0.054235 0)
(0.104099 -0.0661199 0)
(0.105419 -0.0784408 0)
(0.106766 -0.0912496 0)
(0.10801 -0.104573 0)
(0.108993 -0.118401 0)
(0.109529 -0.132669 0)
(0.1094 -0.147235 0)
(0.108362 -0.161858 0)
(0.106155 -0.176162 0)
(0.102513 -0.189608 0)
(0.0971899 -0.201465 0)
(0.0899951 -0.210786 0)
(0.0808362 -0.216403 0)
(0.0697767 -0.216946 0)
(0.0570996 -0.210895 0)
(0.0433698 -0.196677 0)
(0.0294607 -0.172813 0)
(0.0165341 -0.138103 0)
(0.00624315 -0.0918299 0)
(0.00100378 -0.0340614 0)
(0.000924231 0.0326785 0)
(0.00585256 0.0885881 0)
(0.0156764 0.133937 0)
(0.0282135 0.168492 0)
(0.0419273 0.192712 0)
(0.05568 0.207534 0)
(0.0685675 0.214222 0)
(0.0799644 0.214201 0)
(0.0895193 0.208914 0)
(0.0971082 0.199711 0)
(0.102778 0.187776 0)
(0.106692 0.174091 0)
(0.109081 0.159432 0)
(0.110207 0.144378 0)
(0.110337 0.129338 0)
(0.10972 0.114581 0)
(0.108582 0.100262 0)
(0.107116 0.0864575 0)
(0.105485 0.0731815 0)
(0.103823 0.0604083 0)
(0.102235 0.0480861 0)
(0.100801 0.0361468 0)
(0.0995822 0.0245138 0)
(0.0986188 0.0131062 0)
(0.0979363 0.00184226 0)
(0.0975454 -0.00935959 0)
(0.097443 -0.020579 0)
(0.0976124 -0.031893 0)
(0.0980233 -0.043375 0)
(0.0986306 -0.0550931 0)
(0.0993731 -0.0671071 0)
(0.100172 -0.0794649 0)
(0.100927 -0.0921961 0)
(0.101518 -0.105303 0)
(0.101802 -0.11875 0)
(0.10161 -0.132445 0)
(0.100754 -0.146226 0)
(0.0990286 -0.159833 0)
(0.0962201 -0.172885 0)
(0.0921225 -0.18486 0)
(0.0865585 -0.195066 0)
(0.0794086 -0.202635 0)
(0.070649 -0.206524 0)
(0.0603937 -0.205534 0)
(0.0489411 -0.198372 0)
(0.0368148 -0.183728 0)
(0.0247724 -0.160404 0)
(0.0137761 -0.127453 0)
(0.00515157 -0.0843384 0)
(0.000815833 -0.0311536 0)
(0.000748231 0.0299653 0)
(0.0048045 0.0815016 0)
(0.012981 0.123722 0)
(0.023553 0.156416 0)
(0.0352977 0.179928 0)
(0.0472852 0.195 0)
(0.0587463 0.202657 0)
(0.0691183 0.20408 0)
(0.0780531 0.20049 0)
(0.0853886 0.193054 0)
(0.0911103 0.18282 0)
(0.0953105 0.170678 0)
(0.0981514 0.157352 0)
(0.0998327 0.143397 0)
(0.100568 0.129222 0)
(0.100566 0.115111 0)
(0.100021 0.101241 0)
(0.0991057 0.0877152 0)
(0.0979678 0.0745753 0)
(0.0967309 0.0618219 0)
(0.095495 0.0494274 0)
(0.0943385 0.0373457 0)
(0.0933206 0.0255192 0)
(0.0924829 0.0138841 0)
(0.0918518 0.00237385 0)
(0.0914391 -0.00907881 0)
(0.0912433 -0.02054 0)
(0.0912497 -0.0320731 0)
(0.0914301 -0.0437375 0)
(0.0917425 -0.0555861 0)
(0.0921298 -0.0676625 0)
(0.0925187 -0.0799967 0)
(0.0928186 -0.0925987 0)
(0.0929206 -0.105451 0)
(0.0926971 -0.118496 0)
(0.0920028 -0.131625 0)
(0.0906775 -0.144658 0)
(0.0885514 -0.157328 0)
(0.0854547 -0.16926 0)
(0.0812309 -0.179951 0)
(0.0757559 -0.188755 0)
(0.0689628 -0.19488 0)
(0.0608709 -0.19739 0)
(0.0516183 -0.195238 0)
(0.0414944 -0.187308 0)
(0.030966 -0.172497 0)
(0.020676 -0.149814 0)
(0.0114124 -0.118493 0)
(0.00423397 -0.0781105 0)
(0.000662146 -0.0287631 0)
(0.000603374 0.0277483 0)
(0.00392021 0.075652 0)
(0.0106685 0.1152 0)
(0.0194881 0.146213 0)
(0.0294113 0.16897 0)
(0.0396865 0.184078 0)
(0.0496717 0.192387 0)
(0.0588768 0.194895 0)
(0.066977 0.192646 0)
(0.073797 0.186657 0)
(0.0792848 0.177858 0)
(0.0834828 0.167054 0)
(0.0864991 0.154913 0)
(0.0884818 0.141965 0)
(0.0895979 0.128608 0)
(0.0900182 0.115129 0)
(0.0899055 0.101724 0)
(0.0894087 0.0885121 0)
(0.0886583 0.0755572 0)
(0.0877655 0.0628818 0)
(0.0868219 0.0504788 0)
(0.085901 0.0383213 0)
(0.0850586 0.0263693 0)
(0.0843354 0.0145748 0)
(0.0837572 0.00288572 0)
(0.0833368 -0.00875161 0)
(0.083074 -0.0203902 0)
(0.0829565 -0.0320806 0)
(0.0829591 -0.0438688 0)
(0.0830442 -0.0557939 0)
(0.0831604 -0.0678846 0)
(0.0832424 -0.0801554 0)
(0.0832099 -0.0926 0)
(0.0829676 -0.105184 0)
(0.0824057 -0.117834 0)
(0.0814011 -0.130429 0)
(0.0798209 -0.142778 0)
(0.077528 -0.154613 0)
(0.0743895 -0.165568 0)
(0.0702893 -0.175164 0)
(0.0651437 -0.182801 0)
(0.0589215 -0.187752 0)
(0.0516669 -0.18918 0)
(0.0435234 -0.186157 0)
(0.0347563 -0.177712 0)
(0.0257693 -0.162901 0)
(0.017098 -0.140883 0)
(0.00938044 -0.111021 0)
(0.00345785 -0.0729678 0)
(0.000535263 -0.026807 0)
(0.00048321 0.0259492 0)
(0.00317048 0.0708652 0)
(0.00867988 0.108165 0)
(0.0159444 0.137704 0)
(0.0242037 0.159721 0)
(0.0328574 0.174733 0)
(0.0413793 0.183465 0)
(0.0493538 0.186775 0)
(0.0564913 0.185571 0)
(0.0626196 0.180748 0)
(0.0676675 0.173137 0)
(0.0716441 0.163467 0)
(0.0746173 0.152355 0)
(0.0766937 0.140301 0)
(0.078001 0.127688 0)
(0.0786751 0.114805 0)
(0.0788497 0.101852 0)
(0.0786498 0.0889637 0)
(0.0781875 0.0762194 0)
(0.0775599 0.0636589 0)
(0.0768485 0.0512924 0)
(0.0761194 0.0391093 0)
(0.0754242 0.0270848 0)
(0.0748004 0.0151854 0)
(0.074273 0.0033722 0)
(0.0738546 -0.008396 0)
(0.0735467 -0.0201601 0)
(0.073339 -0.0319588 0)
(0.0732104 -0.0438261 0)
(0.0731283 -0.0557884 0)
(0.0730482 -0.0678619 0)
(0.0729137 -0.0800475 0)
(0.0726561 -0.0923255 0)
(0.0721944 -0.104648 0)
(0.0714367 -0.116931 0)
(0.0702812 -0.129042 0)
(0.0686203 -0.140787 0)
(0.0663454 -0.1519 0)
(0.0633547 -0.162024 0)
(0.0595635 -0.170708 0)
(0.0549175 -0.177389 0)
(0.0494084 -0.181404 0)
(0.0430915 -0.181992 0)
(0.036103 -0.178325 0)
(0.0286758 -0.169547 0)
(0.0211494 -0.154831 0)
(0.0139618 -0.133452 0)
(0.00762287 -0.104861 0)
(0.00279576 -0.0687612 0)
(0.000429295 -0.0252185 0)
(0.000382418 0.0245047 0)
(0.00252958 0.0669951 0)
(0.00695944 0.102435 0)
(0.0128432 0.130715 0)
(0.0195903 0.15205 0)
(0.0267282 0.166896 0)
(0.0338339 0.175889 0)
(0.0405642 0.179782 0)
(0.0466702 0.179381 0)
(0.0519941 0.175482 0)
(0.0564583 0.168835 0)
(0.0600517 0.160106 0)
(0.0628133 0.149866 0)
(0.0648175 0.138583 0)
(0.0661597 0.126628 0)
(0.0669455 0.114282 0)
(0.0672819 0.101751 0)
(0.0672711 0.0891755 0)
(0.0670067 0.0766481 0)
(0.0665711 0.0642215 0)
(0.0660344 0.0519198 0)
(0.0654546 0.039746 0)
(0.0648771 0.0276885 0)
(0.064336 0.015726 0)
(0.0638542 0.00383135 0)
(0.0634441 -0.00802557 0)
(0.0631079 -0.019875 0)
(0.0628383 -0.0317449 0)
(0.0626179 -0.0436588 0)
(0.0624199 -0.0556324 0)
(0.0622073 -0.067671 0)
(0.0619332 -0.0797644 0)
(0.0615408 -0.091882 0)
(0.0609638 -0.103966 0)
(0.0601273 -0.115923 0)
(0.0589498 -0.127614 0)
(0.0573462 -0.138844 0)
(0.0552325 -0.14935 0)
(0.0525321 -0.158788 0)
(0.0491845 -0.166729 0)
(0.0451557 -0.172647 0)
(0.0404504 -0.175927 0)
(0.0351252 -0.175874 0)
(0.029301 -0.171739 0)
(0.0231739 -0.162753 0)
(0.0170209 -0.14818 0)
(0.011192 -0.127378 0)
(0.00608786 -0.0998628 0)
(0.00222422 -0.0653684 0)
(0.000339479 -0.0239445 0)
(0.000296585 0.0233642 0)
(0.00197499 0.0639221 0)
(0.00545579 0.0978589 0)
(0.0101068 0.125093 0)
(0.0154779 0.145831 0)
(0.0212053 0.160484 0)
(0.0269571 0.169627 0)
(0.0324582 0.173938 0)
(0.0375031 0.174141 0)
(0.0419546 0.170961 0)
(0.0457381 0.16508 0)
(0.0488317 0.157113 0)
(0.0512552 0.147591 0)
(0.0530584 0.136956 0)
(0.0543105 0.125562 0)
(0.0550913 0.113684 0)
(0.0554842 0.101528 0)
(0.0555701 0.08924 0)
(0.0554249 0.0769204 0)
(0.055116 0.0646319 0)
(0.054702 0.0524094 0)
(0.0542316 0.0402669 0)
(0.0537438 0.0282036 0)
(0.0532682 0.0162084 0)
(0.052825 0.00426414 0)
(0.0524259 -0.00764985 0)
(0.0520742 -0.0195546 0)
(0.0517648 -0.0314692 0)
(0.0514847 -0.0434082 0)
(0.0512129 -0.0553784 0)
(0.0509201 -0.067376 0)
(0.0505694 -0.0793819 0)
(0.0501158 -0.0913572 0)
(0.0495073 -0.103236 0)
(0.0486853 -0.114919 0)
(0.0475869 -0.126262 0)
(0.0461471 -0.137071 0)
(0.0443027 -0.147087 0)
(0.0419975 -0.155978 0)
(0.0391892 -0.163332 0)
(0.0358569 -0.168656 0)
(0.0320112 -0.171373 0)
(0.0277029 -0.170842 0)
(0.0230325 -0.166372 0)
(0.0181573 -0.157262 0)
(0.0132951 -0.142845 0)
(0.0087168 -0.122537 0)
(0.00472875 -0.0959003 0)
(0.00172306 -0.0626911 0)
(0.000261923 -0.0229432 0)
(0.000222044 0.0224882 0)
(0.00148713 0.0615507 0)
(0.00412235 0.0943099 0)
(0.00766137 0.120709 0)
(0.0117722 0.140948 0)
(0.0161842 0.155413 0)
(0.0206466 0.164635 0)
(0.0249477 0.169236 0)
(0.0289251 0.169884 0)
(0.0324665 0.167248 0)
(0.0355062 0.161959 0)
(0.0380187 0.15459 0)
(0.0400115 0.14564 0)
(0.0415161 0.135529 0)
(0.0425811 0.124596 0)
(0.0432645 0.11311 0)
(0.0436284 0.101273 0)
(0.043735 0.0892357 0)
(0.0436428 0.077103 0)
(0.0434051 0.064945 0)
(0.0430685 0.0528047 0)
(0.0426724 0.0407045 0)
(0.0422486 0.0286522 0)
(0.0418219 0.016645 0)
(0.0414094 0.00467363 0)
(0.0410219 -0.00727484 0)
(0.0406632 -0.019214 0)
(0.0403307 -0.0311557 0)
(0.0400155 -0.0431072 0)
(0.0397026 -0.0550683 0)
(0.0393707 -0.0670281 0)
(0.0389926 -0.0789607 0)
(0.0385351 -0.0908206 0)
(0.0379598 -0.102536 0)
(0.037224 -0.114004 0)
(0.0362814 -0.125077 0)
(0.0350849 -0.135561 0)
(0.0335891 -0.145201 0)
(0.0317544 -0.153676 0)
(0.0295516 -0.160589 0)
(0.0269682 -0.165469 0)
(0.0240148 -0.167772 0)
(0.0207321 -0.166895 0)
(0.0171969 -0.162192 0)
(0.0135274 -0.153012 0)
(0.00988506 -0.138736 0)
(0.00646928 -0.118826 0)
(0.00350394 -0.0928745 0)
(0.00127493 -0.0606529 0)
(0.000193425 -0.0221829 0)
(0.000155748 0.0218469 0)
(0.001049 0.0598074 0)
(0.00291749 0.0916896 0)
(0.00543837 0.117456 0)
(0.00838167 0.137305 0)
(0.0115581 0.151607 0)
(0.0147896 0.160863 0)
(0.0179234 0.165659 0)
(0.0208395 0.166622 0)
(0.0234525 0.16438 0)
(0.0257093 0.159528 0)
(0.027586 0.152608 0)
(0.0290826 0.144094 0)
(0.0302178 0.134387 0)
(0.0310231 0.123814 0)
(0.0315384 0.112638 0)
(0.0318073 0.101058 0)
(0.0318744 0.0892263 0)
(0.0317825 0.0772509 0)
(0.0315708 0.0652067 0)
(0.0312744 0.0531426 0)
(0.0309229 0.0410871 0)
(0.0305412 0.0290543 0)
(0.0301484 0.0170478 0)
(0.0297587 0.00506417 0)
(0.0293813 -0.00690357 0)
(0.0290206 -0.0188634 0)
(0.0286762 -0.0308217 0)
(0.0283435 -0.0427803 0)
(0.0280133 -0.0547339 0)
(0.0276722 -0.0666663 0)
(0.0273027 -0.0785468 0)
(0.0268832 -0.090325 0)
(0.0263885 -0.101925 0)
(0.0257905 -0.113241 0)
(0.0250587 -0.124124 0)
(0.024162 -0.13438 0)
(0.0230706 -0.143757 0)
(0.0217581 -0.151941 0)
(0.0202054 -0.158546 0)
(0.0184044 -0.163119 0)
(0.0163622 -0.165137 0)
(0.014106 -0.164023 0)
(0.0116874 -0.159166 0)
(0.00918517 -0.149948 0)
(0.00670754 -0.135783 0)
(0.00438789 -0.116166 0)
(0.00237622 -0.0907101 0)
(0.000864795 -0.059197 0)
(0.000131319 -0.0216402 0)
(9.51441e-05 0.0214187 0)
(0.000645832 0.058638 0)
(0.00180401 0.0899241 0)
(0.00337513 0.115253 0)
(0.00521999 0.134826 0)
(0.00722223 0.149003 0)
(0.00927041 0.158269 0)
(0.0112668 0.163185 0)
(0.0131327 0.164355 0)
(0.0148103 0.162378 0)
(0.0162618 0.157825 0)
(0.0174678 0.151217 0)
(0.0184249 0.143009 0)
(0.0191417 0.133589 0)
(0.0196364 0.123276 0)
(0.019933 0.112326 0)
(0.0200587 0.100938 0)
(0.0200421 0.0892611 0)
(0.0199109 0.0774071 0)
(0.019691 0.0654535 0)
(0.019406 0.0534529 0)
(0.0190762 0.041438 0)
(0.0187187 0.029427 0)
(0.0183474 0.0174277 0)
(0.017973 0.00544082 0)
(0.017603 -0.00653663 0)
(0.0172422 -0.0185089 0)
(0.0168924 -0.0304787 0)
(0.0165529 -0.0424444 0)
(0.0162205 -0.0543972 0)
(0.0158896 -0.0663177 0)
(0.0155521 -0.078172 0)
(0.0151979 -0.0899068 0)
(0.0148145 -0.101444 0)
(0.014388 -0.112674 0)
(0.0139028 -0.123449 0)
(0.0133426 -0.133573 0)
(0.0126913 -0.142798 0)
(0.0119341 -0.150811 0)
(0.0110597 -0.157235 0)
(0.0100616 -0.161626 0)
(0.00894136 -0.163474 0)
(0.00771088 -0.162219 0)
(0.00639498 -0.15727 0)
(0.00503366 -0.14803 0)
(0.00368342 -0.133936 0)
(0.00241563 -0.114501 0)
(0.00131206 -0.0893543 0)
(0.000479406 -0.0582838 0)
(7.33449e-05 -0.0212991 0)
(3.80417e-05 0.021189 0)
(0.00026455 0.0580057 0)
(0.000748362 0.0889625 0)
(0.00141401 0.114045 0)
(0.00220608 0.133457 0)
(0.00307589 0.147556 0)
(0.00397434 0.156818 0)
(0.00485617 0.161796 0)
(0.00568301 0.163078 0)
(0.00642473 0.161251 0)
(0.00705997 0.156871 0)
(0.00757594 0.150446 0)
(0.00796755 0.142421 0)
(0.0082362 0.133176 0)
(0.00838832 0.123023 0)
(0.00843394 0.112216 0)
(0.00838531 0.100949 0)
(0.00825581 0.0893746 0)
(0.00805899 0.0776023 0)
(0.00780792 0.0657119 0)
(0.00751474 0.0537577 0)
(0.00719036 0.0417746 0)
(0.00684439 0.0297833 0)