/*--------------------------------*- C++ -*----------------------------------*\
  =========                 |
  \\      /  F ield         | OpenFOAM: The Open Source CFD Toolbox
   \\    /   O peration     | Website:  https://openfoam.org
    \\  /    A nd           | Version:  7
     \\/     M anipulation  |
\*---------------------------------------------------------------------------*/
FoamFile
{
    version     2.0;
    format      ascii;
    class       surfaceScalarField;
    location    "0.0792";
    object      phi;
}
// * * * * * * * * * * * * * * * * * * * * * * * * * * * * * * * * * * * * * //

dimensions      [0 3 -1 0 0 0 0];

internalField   nonuniform List<scalar> 
4900
(
1.15577e-09
-1.15586e-09
2.34806e-09
-1.19228e-09
2.42384e-09
-7.57581e-11
9.70604e-10
1.45327e-09
-2.09169e-09
3.06228e-09
-6.67896e-09
4.58727e-09
-1.26255e-08
5.94655e-09
-1.97288e-08
7.10331e-09
-2.77729e-08
8.04415e-09
-3.65403e-08
8.76733e-09
-4.58179e-08
9.27763e-09
-5.54014e-08
9.58345e-09
-6.50969e-08
9.69545e-09
-7.47225e-08
9.62557e-09
-8.4109e-08
9.38656e-09
-9.31006e-08
8.9916e-09
-1.01555e-07
8.45415e-09
-1.09343e-07
7.78778e-09
-1.16349e-07
7.00615e-09
-1.22472e-07
6.12298e-09
-1.27624e-07
5.15211e-09
-1.31731e-07
4.10755e-09
-1.34735e-07
3.00352e-09
-1.36589e-07
1.85456e-09
-1.37265e-07
6.75559e-10
-1.36747e-07
-5.18171e-10
-1.35036e-07
-1.71083e-09
-1.3215e-07
-2.88615e-09
-1.28123e-07
-4.02739e-09
-1.23005e-07
-5.1174e-09
-1.16866e-07
-6.13864e-09
-1.09793e-07
-7.07341e-09
-1.01889e-07
-7.90393e-09
-9.32766e-08
-8.61254e-09
-8.40946e-08
-9.18197e-09
-7.4499e-08
-9.59564e-09
-6.46611e-08
-9.83788e-09
-5.47667e-08
-9.89437e-09
-4.50143e-08
-9.75248e-09
-3.56125e-08
-9.40177e-09
-2.67779e-08
-8.83457e-09
-1.8731e-08
-8.04688e-09
-1.16912e-08
-7.03978e-09
-5.86929e-09
-5.82193e-09
-1.45452e-09
-4.41478e-09
1.40972e-09
-2.86425e-09
2.66896e-09
-1.25925e-09
2.42605e-09
2.42912e-10
1.15147e-09
1.27459e-09
1.15148e-09
1.20508e-09
-2.36093e-09
1.36164e-09
-1.34886e-09
-1.20595e-09
2.49181e-09
-7.28548e-09
7.53283e-09
-1.7119e-08
1.28958e-08
-3.05979e-08
1.80662e-08
-4.74049e-08
2.27535e-08
-6.71029e-08
2.68013e-08
-8.91907e-08
3.0132e-08
-1.13139e-07
3.27154e-08
-1.38411e-07
3.45502e-08
-1.64481e-07
3.56536e-08
-1.90841e-07
3.60549e-08
-2.17006e-07
3.57908e-08
-2.42523e-07
3.49035e-08
-2.6697e-07
3.34382e-08
-2.89958e-07
3.14425e-08
-3.11136e-07
2.89655e-08
-3.30187e-07
2.60574e-08
-3.46833e-07
2.27692e-08
-3.60834e-07
1.91526e-08
-3.71987e-07
1.52606e-08
-3.8013e-07
1.11468e-08
-3.85142e-07
6.86625e-09
-3.86941e-07
2.47535e-09
-3.85492e-07
-1.96802e-09
-3.80798e-07
-6.40439e-09
-3.72912e-07
-1.07727e-08
-3.61929e-07
-1.50103e-08
-3.47993e-07
-1.90534e-08
-3.31294e-07
-2.28371e-08
-3.12072e-07
-2.62962e-08
-2.9061e-07
-2.93656e-08
-2.67241e-07
-3.19814e-08
-2.42342e-07
-3.40813e-08
-2.16331e-07
-3.56062e-08
-1.89668e-07
-3.65016e-08
-1.62843e-07
-3.67185e-08
-1.3638e-07
-3.62156e-08
-1.10821e-07
-3.49614e-08
-8.67184e-08
-3.29369e-08
-6.46253e-08
-3.014e-08
-4.50741e-08
-2.6591e-08
-2.85531e-08
-2.2343e-08
-1.54695e-08
-1.74983e-08
-6.0954e-09
-1.22384e-08
-4.79862e-10
-6.8748e-09
1.70333e-09
-1.94026e-09
1.28602e-09
1.69192e-09
2.43751e-09
1.35524e-10
-2.49644e-09
-2.38374e-09
1.17045e-09
-9.16938e-09
9.27742e-09
-2.10348e-08
1.93983e-08
-3.82328e-08
3.00938e-08
-6.06184e-08
4.04518e-08
-8.77729e-08
4.9908e-08
-1.19101e-07
5.81295e-08
-1.53901e-07
6.49323e-08
-1.91415e-07
7.02288e-08
-2.30859e-07
7.3995e-08
-2.71456e-07
7.62499e-08
-3.12442e-07
7.70411e-08
-3.53087e-07
7.64364e-08
-3.92701e-07
7.4517e-08
-4.30637e-07
7.13737e-08
-4.66298e-07
6.71037e-08
-4.99141e-07
6.1809e-08
-5.28679e-07
5.55948e-08
-5.54479e-07
4.85695e-08
-5.7617e-07
4.08434e-08
-5.93439e-07
3.25296e-08
-6.06035e-07
2.37436e-08
-6.13773e-07
1.46035e-08
-6.16528e-07
5.23055e-09
-6.14245e-07
-4.25104e-09
-6.06936e-07
-1.37138e-08
-5.94681e-07
-2.3027e-08
-5.77634e-07
-3.20572e-08
-5.56019e-07
-4.06687e-08
-5.30132e-07
-4.87241e-08
-5.00343e-07
-5.60857e-08
-4.67091e-07
-6.26168e-08
-4.30889e-07
-6.81837e-08
-3.92313e-07
-7.26572e-08
-3.52003e-07
-7.5916e-08
-3.10656e-07
-7.78487e-08
-2.69017e-07
-7.8358e-08
-2.27868e-07
-7.73642e-08
-1.88019e-07
-7.48105e-08
-1.50287e-07
-7.06693e-08
-1.15475e-07
-6.49514e-08
-8.43481e-08
-5.77182e-08
-5.759e-08
-4.91011e-08
-3.57566e-08
-3.93316e-08
-1.92058e-08
-2.87892e-08
-8.00182e-09
-1.80788e-08
-1.80246e-09
-8.13964e-09
3.05139e-10
-4.15677e-10
2.74263e-09
-1.35192e-09
-1.14452e-09
-7.35112e-09
7.16971e-09
-1.92254e-08
2.11517e-08
-3.75902e-08
3.77631e-08
-6.25833e-08
5.50869e-08
-9.39605e-08
7.1829e-08
-1.31193e-07
8.71402e-08
-1.73551e-07
1.00488e-07
-2.20175e-07
1.11557e-07
-2.70128e-07
1.20181e-07
-3.22434e-07
1.26301e-07
-3.76111e-07
1.29927e-07
-4.30194e-07
1.31124e-07
-4.83749e-07
1.29992e-07
-5.3589e-07
1.26657e-07
-5.85782e-07
1.21266e-07
-6.32654e-07
1.13976e-07
-6.758e-07
1.04956e-07
-7.14587e-07
9.43816e-08
-7.48453e-07
8.24351e-08
-7.76912e-07
6.93029e-08
-7.99559e-07
5.51765e-08
-8.16068e-07
4.02522e-08
-8.26195e-07
2.47308e-08
-8.29783e-07
8.81837e-09
-8.2676e-07
-7.27382e-09
-8.17145e-07
-2.33294e-08
-8.01045e-07
-3.9127e-08
-7.78661e-07
-5.44409e-08
-7.50288e-07
-6.90421e-08
-7.16312e-07
-8.26996e-08
-6.77215e-07
-9.51824e-08
-6.3357e-07
-1.06262e-07
-5.86038e-07
-1.15716e-07
-5.35364e-07
-1.23331e-07
-4.82374e-07
-1.28906e-07
-4.2796e-07
-1.32262e-07
-3.73076e-07
-1.33242e-07
-3.18717e-07
-1.31723e-07
-2.65908e-07
-1.2762e-07
-2.15674e-07
-1.20903e-07
-1.69021e-07
-1.11605e-07
-1.26892e-07
-9.98467e-08
-9.01309e-08
-8.58624e-08
-5.94216e-08
-7.00409e-08
-3.52231e-08
-5.29876e-08
-1.76865e-08
-3.56155e-08
-6.56323e-09
-1.92629e-08
-1.12196e-09
-5.85696e-09
1.62067e-09
-2.94371e-09
1.79918e-09
-1.27711e-08
1.69972e-08
-3.01667e-08
3.85474e-08
-5.54264e-08
6.30227e-08
-8.84723e-08
8.81327e-08
-1.289e-07
1.12257e-07
-1.76043e-07
1.34283e-07
-2.29035e-07
1.5348e-07
-2.86875e-07
1.69396e-07
-3.48471e-07
1.81778e-07
-4.1269e-07
1.90519e-07
-4.78382e-07
1.9562e-07
-5.44415e-07
1.97156e-07
-6.09687e-07
1.95264e-07
-6.73148e-07
1.90118e-07
-7.33809e-07
1.81926e-07
-7.9075e-07
1.70917e-07
-8.43131e-07
1.57337e-07
-8.90193e-07
1.41444e-07
-9.31265e-07
1.23507e-07
-9.65767e-07
1.03804e-07
-9.93212e-07
8.26212e-08
-1.01321e-06
6.02503e-08
-1.02547e-06
3.69921e-08
-1.02981e-06
1.31547e-08
-1.02614e-06
-1.09464e-08
-1.01448e-06
-3.49881e-08
-9.94963e-07
-5.86405e-08
-9.67836e-07
-8.15676e-08
-9.33449e-07
-1.03429e-07
-8.92267e-07
-1.23882e-07
-8.44863e-07
-1.42586e-07
-7.91921e-07
-1.59204e-07
-7.3423e-07
-1.73407e-07
-6.72677e-07
-1.84884e-07
-6.08238e-07
-1.93345e-07
-5.41972e-07
-1.98528e-07
-4.75004e-07
-2.00211e-07
-4.08506e-07
-1.98221e-07
-3.4368e-07
-1.92447e-07
-2.81726e-07
-1.82856e-07
-2.23816e-07
-1.69514e-07
-1.71052e-07
-1.52611e-07
-1.24421e-07
-1.32494e-07
-8.47419e-08
-1.0972e-07
-5.26054e-08
-8.51241e-08
-2.83117e-08
-5.99092e-08
-1.18102e-08
-3.57645e-08
-2.65741e-09
-1.50098e-08
-1.03674e-09
-4.5151e-09
6.31426e-09
-1.82448e-08
3.07269e-08
-4.13144e-08
6.16169e-08
-7.3633e-08
9.53413e-08
-1.14844e-07
1.29344e-07
-1.64333e-07
1.61746e-07
-2.21263e-07
1.91213e-07
-2.84619e-07
2.16836e-07
-3.53254e-07
2.38032e-07
-4.25938e-07
2.54462e-07
-5.01393e-07
2.65974e-07
-5.78327e-07
2.72554e-07
-6.55464e-07
2.74293e-07
-7.31562e-07
2.71362e-07
-8.05434e-07
2.6399e-07
-8.75959e-07
2.52452e-07
-9.42096e-07
2.37054e-07
-1.00289e-06
2.18129e-07
-1.05747e-06
1.96029e-07
-1.10509e-06
1.71121e-07
-1.14507e-06
1.43787e-07
-1.17687e-06
1.14418e-07
-1.20003e-06
8.34184e-08
-1.21424e-06
5.12006e-08
-1.21928e-06
1.81895e-08
-1.21504e-06
-1.51805e-08
-1.20157e-06
-4.84649e-08
-1.179e-06
-8.12099e-08
-1.14761e-06
-1.12955e-07
-1.10781e-06
-1.43232e-07
-1.06012e-06
-1.71573e-07
-1.00519e-06
-1.97512e-07
-9.43806e-07
-2.20589e-07
-8.76855e-07
-2.40358e-07
-8.05342e-07
-2.56396e-07
-7.30376e-07
-2.68311e-07
-6.53151e-07
-2.75753e-07
-5.74938e-07
-2.78424e-07
-4.97059e-07
-2.76099e-07
-4.20868e-07
-2.68637e-07
-3.47721e-07
-2.56004e-07
-2.78938e-07
-2.38297e-07
-2.15771e-07
-2.15778e-07
-1.59353e-07
-1.88912e-07
-1.10654e-07
-1.58419e-07
-7.04333e-08
-1.25345e-07
-3.91899e-08
-9.11526e-08
-1.71338e-08
-5.78206e-08
-4.17983e-09
-2.79637e-08
-5.21654e-09
-6.01536e-09
1.23296e-08
-2.35872e-08
4.82987e-08
-5.2317e-08
9.03467e-08
-9.17087e-08
1.34733e-07
-1.41092e-07
1.78728e-07
-1.99609e-07
2.20263e-07
-2.66222e-07
2.57826e-07
-3.39747e-07
2.90361e-07
-4.18887e-07
3.17172e-07
-5.0227e-07
3.37845e-07
-5.88484e-07
3.52188e-07
-6.76107e-07
3.60177e-07
-7.63736e-07
3.61922e-07
-8.50008e-07
3.57633e-07
-9.33617e-07
3.47599e-07
-1.01333e-06
3.32166e-07
-1.088e-06
3.11727e-07
-1.15659e-06
2.8671e-07
-1.21812e-06
2.57567e-07
-1.27178e-06
2.24775e-07
-1.31682e-06
1.88829e-07
-1.35264e-06
1.50236e-07
-1.37874e-06
1.09523e-07
-1.39477e-06
6.7228e-08
-1.40048e-06
2.39024e-08
-1.39577e-06
-1.98878e-08
-1.38068e-06
-6.35644e-08
-1.35535e-06
-1.06538e-07
-1.32009e-06
-1.48209e-07
-1.27535e-06
-1.87973e-07
-1.2217e-06
-2.25221e-07
-1.15987e-06
-2.59349e-07
-1.09069e-06
-2.89764e-07
-1.01516e-06
-3.15889e-07
-9.34377e-07
-3.3718e-07
-8.49556e-07
-3.53132e-07
-7.62014e-07
-3.63295e-07
-6.73145e-07
-3.67293e-07
-5.84406e-07
-3.64839e-07
-4.97287e-07
-3.55755e-07
-4.13287e-07
-3.40005e-07
-3.33871e-07
-3.17713e-07
-2.60442e-07
-2.89208e-07
-1.94291e-07
-2.55063e-07
-1.36561e-07
-2.16148e-07
-8.82084e-08
-1.73698e-07
-4.99682e-08
-1.29393e-07
-2.23466e-08
-8.54423e-08
-5.63723e-09
-4.4673e-08
-1.08538e-08
-7.43331e-09
1.97629e-08
-2.87314e-08
6.95968e-08
-6.30244e-08
1.2464e-07
-1.09419e-07
1.81128e-07
-1.66919e-07
2.36227e-07
-2.34397e-07
2.87741e-07
-3.10597e-07
3.34025e-07
-3.94147e-07
3.7391e-07
-4.83587e-07
4.06612e-07
-5.77401e-07
4.31659e-07
-6.74043e-07
4.4883e-07
-7.71967e-07
4.58101e-07
-8.69653e-07
4.59608e-07
-9.65627e-07
4.53608e-07
-1.05848e-06
4.40454e-07
-1.14689e-06
4.20574e-07
-1.22962e-06
3.94452e-07
-1.30552e-06
3.62618e-07
-1.37359e-06
3.25636e-07
-1.43291e-06
2.84097e-07
-1.4827e-06
2.38618e-07
-1.5223e-06
1.89836e-07
-1.55118e-06
1.38404e-07
-1.56895e-06
8.49951e-08
-1.57535e-06
3.02993e-08
-1.57026e-06
-2.49775e-08
-1.55371e-06
-8.01136e-08
-1.52587e-06
-1.34373e-07
-1.48707e-06
-1.87009e-07
-1.43778e-06
-2.37267e-07
-1.37861e-06
-2.84389e-07
-1.31034e-06
-3.27623e-07
-1.23387e-06
-3.66229e-07
-1.15027e-06
-3.99491e-07
-1.06072e-06
-4.26731e-07
-9.66531e-07
-4.47322e-07
-8.6912e-07
-4.60706e-07
-7.69996e-07
-4.66417e-07
-6.70739e-07
-4.64096e-07
-5.72968e-07
-4.53526e-07
-4.7832e-07
-4.34653e-07
-3.88409e-07
-4.07624e-07
-3.04794e-07
-3.72822e-07
-2.28942e-07
-3.30915e-07
-1.62189e-07
-2.82901e-07
-1.0571e-07
-2.30176e-07
-6.05029e-08
-1.746e-07
-2.73835e-08
-1.18562e-07
-7.01733e-09
-6.50392e-08
-1.78711e-08
-8.7757e-09
2.85386e-08
-3.36724e-08
9.44934e-08
-7.34015e-08
1.64369e-07
-1.26692e-07
2.34418e-07
-1.92221e-07
3.01756e-07
-2.68582e-07
3.64102e-07
-3.54282e-07
4.19725e-07
-4.47748e-07
4.67377e-07
-5.47347e-07
5.06211e-07
-6.51408e-07
5.35721e-07
-7.5825e-07
5.55672e-07
-8.66206e-07
5.66057e-07
-9.73644e-07
5.67046e-07
-1.07899e-06
5.58952e-07
-1.18074e-06
5.42204e-07
-1.27748e-06
5.17317e-07
-1.3679e-06
4.84875e-07
-1.45081e-06
4.45518e-07
-1.5251e-06
3.99927e-07
-1.58982e-06
3.48818e-07
-1.64414e-06
2.92936e-07
-1.68735e-06
2.33052e-07
-1.7189e-06
1.69956e-07
-1.73837e-06
1.04463e-07
-1.74548e-06
3.74085e-08
-1.7401e-06
-3.03548e-08
-1.72226e-06
-9.79534e-08
-1.69214e-06
-1.64498e-07
-1.65006e-06
-2.29084e-07
-1.59653e-06
-2.908e-07
-1.53219e-06
-3.48729e-07
-1.45785e-06
-4.01961e-07
-1.37448e-06
-4.496e-07
-1.28319e-06
-4.90781e-07
-1.18524e-06
-5.2468e-07
-1.08203e-06
-5.50539e-07
-9.75052e-07
-5.6768e-07
-8.65935e-07
-5.75533e-07
-7.56369e-07
-5.73662e-07
-6.48103e-07
-5.61792e-07
-5.42912e-07
-5.39844e-07
-4.42565e-07
-5.07971e-07
-3.48791e-07
-4.66596e-07
-2.63244e-07
-4.16462e-07
-1.87472e-07
-3.58674e-07
-1.22891e-07
-2.94758e-07
-7.0772e-08
-2.26719e-07
-3.22449e-08
-1.57089e-07
-8.32802e-09
-8.89561e-08
-2.61991e-08
-1.0056e-08
3.85946e-08
-3.84352e-08
1.22873e-07
-8.34754e-08
2.09409e-07
-1.4355e-07
2.94493e-07
-2.17015e-07
3.75221e-07
-3.02182e-07
4.49268e-07
-3.97309e-07
5.14853e-07
-5.00611e-07
5.70679e-07
-6.10271e-07
6.15871e-07
-7.24457e-07
6.49907e-07
-8.41348e-07
6.72563e-07
-9.59153e-07
6.83862e-07
-1.07613e-06
6.84025e-07
-1.19061e-06
6.73434e-07
-1.30101e-06
6.52601e-07
-1.40583e-06
6.22139e-07
-1.5037e-06
5.82743e-07
-1.59335e-06
5.35168e-07
-1.67364e-06
4.80221e-07
-1.74357e-06
4.18749e-07
-1.80227e-06
3.51631e-07
-1.84899e-06
2.79777e-07
-1.88316e-06
2.04122e-07
-1.90432e-06
1.25628e-07
-1.91219e-06
4.52782e-08
-1.90663e-06
-3.59187e-08
-1.88765e-06
-1.16933e-07
-1.85543e-06
-1.96715e-07
-1.81032e-06
-2.74199e-07
-1.75281e-06
-3.48305e-07
-1.68359e-06
-4.17953e-07
-1.60349e-06
-4.82064e-07
-1.51351e-06
-5.39578e-07
-1.41482e-06
-5.89469e-07
-1.30874e-06
-6.3076e-07
-1.19673e-06
-6.62544e-07
-1.0804e-06
-6.84015e-07
-9.61447e-07
-6.94485e-07
-8.41687e-07
-6.93423e-07
-7.22994e-07
-6.80485e-07
-6.07289e-07
-6.55549e-07
-4.96504e-07
-6.18756e-07
-3.92549e-07
-5.70551e-07
-2.97282e-07
-5.11729e-07
-2.12478e-07
-4.43478e-07
-1.39807e-07
-3.67429e-07
-8.08223e-08
-2.85703e-07
-3.69649e-08
-2.00946e-07
-9.58523e-09
-1.16336e-07
-3.57843e-08
-1.12896e-08
4.98842e-08
-4.30583e-08
1.54641e-07
-9.33051e-08
2.59656e-07
-1.60069e-07
3.61257e-07
-2.41391e-07
4.56543e-07
-3.35299e-07
5.43176e-07
-4.39798e-07
6.19352e-07
-5.52882e-07
6.83763e-07
-6.72538e-07
7.35527e-07
-7.9677e-07
7.74138e-07
-9.23609e-07
7.99403e-07
-1.05114e-06
8.11394e-07
-1.17752e-06
8.104e-07
-1.30097e-06
7.96887e-07
-1.41983e-06
7.71465e-07
-1.53255e-06
7.34856e-07
-1.63768e-06
6.87871e-07
-1.7339e-06
6.31393e-07
-1.82004e-06
5.6636e-07
-1.89505e-06
4.93755e-07
-1.95802e-06
4.14599e-07
-2.00819e-06
3.29946e-07
-2.04494e-06
2.40879e-07
-2.06782e-06
1.48508e-07
-2.07652e-06
5.39735e-08
-2.07088e-06
-4.15607e-08
-2.05091e-06
-1.36904e-07
-2.01678e-06
-2.30841e-07
-1.96884e-06
-3.22139e-07
-1.9076e-06
-4.09547e-07
-1.83374e-06
-4.91812e-07
-1.74812e-06
-5.6768e-07
-1.65178e-06
-6.35919e-07
-1.54593e-06
-6.95328e-07
-1.43192e-06
-7.44766e-07
-1.3113e-06
-7.83168e-07
-1.18573e-06
-8.0958e-07
-1.05703e-06
-8.23183e-07
-9.27123e-07
-8.23334e-07
-7.98009e-07
-8.09599e-07
-6.71762e-07
-7.81796e-07
-5.50485e-07
-7.40032e-07
-4.36285e-07
-6.84752e-07
-3.31234e-07
-6.1678e-07
-2.37351e-07
-5.37361e-07
-1.56571e-07
-4.48208e-07
-9.07369e-08
-3.51538e-07
-4.15938e-08
-2.50089e-07
-1.08076e-08
-1.47122e-07
-4.6592e-08
-1.24919e-08
6.23761e-08
-4.75851e-08
1.89734e-07
-1.02964e-07
3.15035e-07
-1.76347e-07
4.34641e-07
-2.65471e-07
5.45667e-07
-3.68077e-07
6.45782e-07
-4.81916e-07
7.33191e-07
-6.04749e-07
8.06596e-07
-7.34365e-07
8.65143e-07
-8.68591e-07
9.08365e-07
-1.00531e-06
9.36125e-07
-1.14249e-06
9.48566e-07
-1.27815e-06
9.46067e-07
-1.41046e-06
9.29192e-07
-1.53766e-06
8.98665e-07
-1.65813e-06
8.55327e-07
-1.77038e-06
8.00119e-07
-1.87304e-06
7.3406e-07
-1.96491e-06
6.58224e-07
-2.04489e-06
5.7374e-07
-2.11206e-06
4.81773e-07
-2.16564e-06
3.83524e-07
-2.20499e-06
2.80227e-07
-2.22963e-06
1.73145e-07
-2.23923e-06
6.35739e-08
-2.23363e-06
-4.7163e-08
-2.21282e-06
-1.57712e-07
-2.17697e-06
-2.66692e-07
-2.12641e-06
-3.72697e-07
-2.06165e-06
-4.74303e-07
-1.98339e-06
-5.70075e-07
-1.89249e-06
-6.58581e-07
-1.79e-06
-7.38403e-07
-1.67717e-06
-8.08161e-07
-1.5554e-06
-8.66533e-07
-1.42629e-06
-9.12281e-07
-1.29159e-06
-9.44286e-07
-1.15319e-06
-9.61582e-07
-1.01313e-06
-9.63393e-07
-8.7355e-07
-9.49175e-07
-7.36688e-07
-9.18658e-07
-6.04824e-07
-8.71896e-07
-4.8027e-07
-8.09306e-07
-3.65332e-07
-7.31718e-07
-2.62281e-07
-6.40412e-07
-1.73331e-07
-5.37158e-07
-1.00617e-07
-4.24252e-07
-4.61883e-08
-3.04518e-07
-1.20144e-08
-1.81296e-07
-5.86063e-08
-1.3677e-08
7.60531e-08
-5.20583e-08
2.28116e-07
-1.12528e-07
3.75504e-07
-1.92495e-07
5.14608e-07
-2.89395e-07
6.42566e-07
-4.00683e-07
7.5707e-07
-5.23848e-07
8.56356e-07
-6.56418e-07
9.39166e-07
-7.95975e-07
1.0047e-06
-9.40166e-07
1.05256e-06
-1.08672e-06
1.08268e-06
-1.23347e-06
1.09531e-06
-1.37834e-06
1.09094e-06
-1.5194e-06
1.07025e-06
-1.65482e-06
1.03409e-06
-1.78293e-06
9.83431e-07
-1.90217e-06
9.19367e-07
-2.01117e-06
8.43053e-07
-2.10866e-06
7.55715e-07
-2.19354e-06
6.58625e-07
-2.26487e-06
5.53099e-07
-2.32183e-06
4.40489e-07
-2.36379e-06
3.22181e-07
-2.39023e-06
1.99591e-07
-2.40083e-06
7.41701e-08
-2.39539e-06
-5.25981e-08
-2.37391e-06
-1.79197e-07
-2.33652e-06
-3.04077e-07
-2.28356e-06
-4.25661e-07
-2.21552e-06
-5.42345e-07
-2.13308e-06
-6.52512e-07
-2.03712e-06
-7.5454e-07
-1.9287e-06
-8.46821e-07
-1.80908e-06
-9.27781e-07
-1.67971e-06
-9.95905e-07
-1.54222e-06
-1.04977e-06
-1.39844e-06
-1.08806e-06
-1.25036e-06
-1.10966e-06
-1.10013e-06
-1.11363e-06
-9.50026e-07
-1.09928e-06
-8.02443e-07
-1.06624e-06
-6.5986e-07
-1.01448e-06
-5.24807e-07
-9.4436e-07
-3.99833e-07
-8.56691e-07
-2.8748e-07
-7.52765e-07
-1.90247e-07
-6.34392e-07
-1.1057e-07
-5.03929e-07
-5.08067e-08
-3.64281e-07
-1.3224e-08
-2.18879e-07
-7.18303e-08
-1.48577e-08
9.09108e-08
-5.65185e-08
2.69777e-07
-1.22072e-07
4.41057e-07
-2.08623e-07
6.01159e-07
-3.13302e-07
7.47246e-07
-4.33282e-07
8.7705e-07
-5.65784e-07
9.88858e-07
-7.08096e-07
1.08148e-06
-8.57586e-07
1.15419e-06
-1.01172e-06
1.20669e-06
-1.16807e-06
1.23903e-06
-1.32433e-06
1.25157e-06
-1.47832e-06
1.24494e-06
-1.62803e-06
1.21995e-06
-1.77156e-06
1.17761e-06
-1.90718e-06
1.11905e-06
-2.0333e-06
1.04549e-06
-2.14851e-06
9.58259e-07
-2.25152e-06
8.5873e-07
-2.34123e-06
7.48329e-07
-2.41665e-06
6.28526e-07
-2.47699e-06
5.00824e-07
-2.52157e-06
3.6676e-07
-2.54988e-06
2.27904e-07
-2.56157e-06
8.58613e-08
-2.55644e-06
-5.77279e-08
-2.53445e-06
-2.01185e-07
-2.49574e-06
-3.42794e-07
-2.44059e-06
-4.80804e-07
-2.36951e-06
-6.13433e-07
-2.28314e-06
-7.38874e-07
-2.18237e-06
-8.55314e-07
-2.06825e-06
-9.60945e-07
-1.94204e-06
-1.05399e-06
-1.80523e-06
-1.13272e-06
-1.6595e-06
-1.1955e-06
-1.50672e-06
-1.24084e-06
-1.34898e-06
-1.2674e-06
-1.18854e-06
-1.27407e-06
-1.02783e-06
-1.26e-06
-8.694e-07
-1.22467e-06
-7.15939e-07
-1.16794e-06
-5.70204e-07
-1.09009e-06
-4.35005e-07
-9.9189e-07
-3.13164e-07
-8.74606e-07
-2.07481e-07
-7.40074e-07
-1.20705e-07
-5.90705e-07
-5.55061e-08
-4.29481e-07
-1.44539e-08
-2.59931e-07
-8.62842e-08
-1.60454e-08
1.06956e-07
-6.1003e-08
3.14734e-07
-1.31666e-07
5.1172e-07
-2.24832e-07
6.94325e-07
-3.37329e-07
8.59743e-07
-4.66035e-07
1.00576e-06
-6.07902e-07
1.13072e-06
-7.5997e-07
1.23355e-06
-9.19391e-07
1.31361e-06
-1.08344e-06
1.37074e-06
-1.24953e-06
1.40512e-06
-1.41522e-06
1.41727e-06
-1.57825e-06
1.40796e-06
-1.73648e-06
1.37819e-06
-1.88798e-06
1.32911e-06
-2.03097e-06
1.26203e-06
-2.16383e-06
1.17835e-06
-2.28511e-06
1.07954e-06
-2.39353e-06
9.67149e-07
-2.48796e-06
8.42757e-07
-2.56742e-06
7.07989e-07
-2.6311e-06
5.64501e-07
-2.67832e-06
4.13979e-07
-2.70856e-06
2.58144e-07
-2.72145e-06
9.87517e-08
-2.71677e-06
-6.24041e-08
-2.69447e-06
-2.23487e-07
-2.65464e-06
-3.82618e-07
-2.59758e-06
-5.37873e-07
-2.52372e-06
-6.87292e-07
-2.43371e-06
-8.28881e-07
-2.3284e-06
-9.60624e-07
-2.20884e-06
-1.08051e-06
-2.07629e-06
-1.18654e-06
-1.93224e-06
-1.27676e-06
-1.77841e-06
-1.34933e-06
-1.61674e-06
-1.40251e-06
-1.44938e-06
-1.43475e-06
-1.27872e-06
-1.44473e-06
-1.10731e-06
-1.4314e-06
-9.37907e-07
-1.39407e-06
-7.7339e-07
-1.33246e-06
-6.16763e-07
-1.24672e-06
-4.71109e-07
-1.13754e-06
-3.39547e-07
-1.00617e-06
-2.25195e-07
-8.54427e-07
-1.31127e-07
-6.84772e-07
-6.03412e-08
-5.00267e-07
-1.57205e-08
-3.04551e-07
-1.02005e-07
-1.72502e-08
1.24206e-07
-6.55453e-08
3.63029e-07
-1.41374e-07
5.87549e-07
-2.4122e-07
7.94171e-07
-3.61598e-07
9.80121e-07
-4.99088e-07
1.14325e-06
-6.50362e-07
1.282e-06
-8.12207e-07
1.39539e-06
-9.81551e-07
1.48295e-06
-1.15548e-06
1.54466e-06
-1.33124e-06
1.58088e-06
-1.50626e-06
1.5923e-06
-1.67818e-06
1.57987e-06
-1.84478e-06
1.5448e-06
-2.00408e-06
1.48841e-06
-2.15425e-06
1.4122e-06
-2.29365e-06
1.31775e-06
-2.42083e-06
1.20672e-06
-2.5345e-06
1.08081e-06
-2.63352e-06
9.41779e-07
-2.71692e-06
7.91395e-07
-2.78389e-06
6.3147e-07
-2.83375e-06
4.63837e-07
-2.86597e-06
2.90362e-07
-2.88016e-06
1.12946e-07
-2.8761e-06
-6.64686e-08
-2.85369e-06
-2.45895e-07
-2.81301e-06
-4.23296e-07
-2.75431e-06
-5.9658e-07
-2.67799e-06
-7.6361e-07
-2.58467e-06
-9.22201e-07
-2.47515e-06
-1.07014e-06
-2.35047e-06
-1.20519e-06
-2.21187e-06
-1.32513e-06
-2.06085e-06
-1.42779e-06
-1.89913e-06
-1.51105e-06
-1.72871e-06
-1.57293e-06
-1.55182e-06
-1.61164e-06
-1.37095e-06
-1.62561e-06
-1.18879e-06
-1.61356e-06
-1.00828e-06
-1.57459e-06
-8.3252e-07
-1.50822e-06
-6.64769e-07
-1.41447e-06
-5.08396e-07
-1.29392e-06
-3.66835e-07
-1.14773e-06
-2.43542e-07
-9.77721e-07
-1.41937e-07
-7.86377e-07
-6.53641e-08
-5.7684e-07
-1.70392e-08
-3.52876e-07
-1.19044e-07
-1.84811e-08
1.42688e-07
-7.01757e-08
4.14724e-07
-1.51255e-07
6.68628e-07
-2.57873e-07
9.00789e-07
-3.86223e-07
1.10847e-06
-5.32572e-07
1.2896e-06
-6.93303e-07
1.44273e-06
-8.64943e-07
1.56703e-06
-1.04419e-06
1.6622e-06
-1.22793e-06
1.7284e-06
-1.41325e-06
1.7662e-06
-1.59746e-06
1.7765e-06
-1.77808e-06
1.76049e-06
-1.95284e-06
1.71955e-06
-2.11969e-06
1.65526e-06
-2.27679e-06
1.5693e-06
-2.42249e-06
1.46346e-06
-2.55533e-06
1.33956e-06
-2.67403e-06
1.19951e-06
-2.77746e-06
1.04521e-06
-2.86467e-06
8.78607e-07
-2.93485e-06
7.01645e-07
-2.98732e-06
5.16306e-07
-3.02155e-06
3.24594e-07
-3.03715e-06
1.28547e-07
-3.03386e-06
-6.97553e-08
-3.01158e-06
-2.68182e-07
-2.97033e-06
-4.64544e-07
-2.91032e-06
-6.56593e-07
-2.83191e-06
-8.42016e-07
-2.73567e-06
-1.01844e-06
-2.62235e-06
-1.18345e-06
-2.49295e-06
-1.33459e-06
-2.34868e-06
-1.46941e-06
-2.19101e-06
-1.58545e-06
-2.02169e-06
-1.68036e-06
-1.84275e-06
-1.75188e-06
-1.65647e-06
-1.79792e-06
-1.46544e-06
-1.81664e-06
-1.27251e-06
-1.80649e-06
-1.08079e-06
-1.76631e-06
-8.93602e-07
-1.6954e-06
-7.14482e-07
-1.59359e-06
-5.47098e-07
-1.4613e-06
-3.95223e-07
-1.2996e-06
-2.62669e-07
-1.11027e-06
-1.53231e-07
-8.95815e-07
-7.0624e-08
-6.59446e-07
-1.84245e-08
-4.05076e-07
-1.37468e-07
-1.97463e-08
1.62434e-07
-7.49222e-08
4.699e-07
-1.61361e-07
7.55066e-07
-2.74871e-07
1.0143e-06
-4.11303e-07
1.2449e-06
-5.666e-07
1.44489e-06
-7.36842e-07
1.61297e-06
-9.18284e-07
1.74847e-06
-1.10739e-06
1.8513e-06
-1.30084e-06
1.92185e-06
-1.49556e-06
1.96093e-06
-1.68874e-06
1.96968e-06
-1.87781e-06
1.94955e-06
-2.06042e-06
1.90217e-06
-2.23451e-06
1.82935e-06
-2.39821e-06
1.733e-06
-2.54988e-06
1.61512e-06
-2.68806e-06
1.47775e-06
-2.8115e-06
1.32295e-06
-2.91909e-06
1.15281e-06
-3.00991e-06
9.69425e-07
-3.08316e-06
7.74892e-07
-3.13818e-06
5.71324e-07
-3.17444e-06
3.60853e-07
-3.19153e-06
1.45645e-07
-3.1892e-06
-7.20924e-08
-3.16728e-06
-2.90098e-07
-3.12578e-06
-5.06044e-07
-3.06484e-06
-7.17531e-07
-2.98478e-06
-9.22079e-07
-2.88609e-06
-1.11714e-06
-2.76946e-06
-1.30008e-06
-2.63583e-06
-1.46823e-06
-2.48636e-06
-1.61888e-06
-2.32249e-06
-1.74932e-06
-2.14596e-06
-1.8569e-06
-1.9588e-06
-1.93905e-06
-1.76336e-06
-1.99336e-06
-1.56231e-06
-2.01769e-06
-1.35864e-06
-2.01015e-06
-1.15564e-06
-1.96931e-06
-9.56866e-07
-1.89417e-06
-7.66133e-07
-1.78433e-06
-5.87431e-07
-1.64e-06
-4.24891e-07
-1.46214e-06
-2.82715e-07
-1.25245e-06
-1.651e-07
-1.01343e-06
-7.61681e-08
-7.48378e-07
-1.989e-08
-4.61354e-07
-1.57358e-07
-2.10535e-08
1.83487e-07
-7.98108e-08
5.28657e-07
-1.71742e-07
8.46997e-07
-2.92286e-07
1.13484e-06
-4.3693e-07
1.38955e-06
-6.01272e-07
1.60923e-06
-7.81072e-07
1.79277e-06
-9.72303e-07
1.9397e-06
-1.17118e-06
2.05018e-06
-1.37419e-06
2.12486e-06
-1.57809e-06
2.16483e-06
-1.77995e-06
2.17154e-06
-1.97711e-06
2.14671e-06
-2.16719e-06
2.09226e-06
-2.34809e-06
2.01025e-06
-2.51795e-06
1.90286e-06
-2.67514e-06
1.77231e-06
-2.81824e-06
1.62085e-06
-2.94603e-06
1.45074e-06
-3.05745e-06
1.26423e-06
-3.1516e-06
1.06358e-06
-3.22772e-06
8.51013e-07
-3.28517e-06
6.28776e-07
-3.32344e-06
3.99119e-07
-3.34211e-06
1.64319e-07
-3.3409e-06
-7.33053e-08
-3.31962e-06
-3.11374e-07
-3.27823e-06
-5.47436e-07
-3.21681e-06
-7.78952e-07
-3.1356e-06
-1.00329e-06
-3.03501e-06
-1.21772e-06
-2.91567e-06
-1.41942e-06
-2.77842e-06
-1.60548e-06
-2.62434e-06
-1.77295e-06
-2.45484e-06
-1.91882e-06
-2.27161e-06
-2.04013e-06
-2.07666e-06
-2.13399e-06
-1.8724e-06
-2.19763e-06
-1.66156e-06
-2.22852e-06
-1.44727e-06
-2.22445e-06
-1.23298e-06
-2.1836e-06
-1.0225e-06
-2.10465e-06
-8.1992e-07
-1.9869e-06
-6.29585e-07
-1.83034e-06
-4.56008e-07
-1.63572e-06
-3.0381e-07
-1.40465e-06
-1.77632e-07
-1.13961e-06
-8.20416e-08
-8.43969e-07
-2.14493e-08
-5.21946e-07
-1.78808e-07
-2.24101e-08
2.05898e-07
-8.48671e-08
5.91114e-07
-1.82447e-07
9.44577e-07
-3.10189e-07
1.26259e-06
-4.63189e-07
1.54255e-06
-6.36674e-07
1.78272e-06
-8.26068e-07
1.98217e-06
-1.02704e-06
2.14068e-06
-1.23556e-06
2.2587e-06
-1.4479e-06
2.3372e-06
-1.66068e-06
2.3776e-06
-1.87082e-06
2.38169e-06
-2.07561e-06
2.3515e-06
-2.27264e-06
2.28929e-06
-2.4598e-06
2.19741e-06
-2.63524e-06
2.0783e-06
-2.79738e-06
1.93445e-06
-2.94485e-06
1.76832e-06
-3.07648e-06
1.58237e-06
-3.19128e-06
1.37903e-06
-3.2884e-06
1.16069e-06
-3.36711e-06
9.29729e-07
-3.42683e-06
6.88489e-07
-3.46704e-06
4.39328e-07
-3.48734e-06
1.8462e-07
-3.48742e-06
-7.32219e-08
-3.46707e-06
-3.31721e-07
-3.42619e-06
-5.88318e-07
-3.36479e-06
-8.40354e-07
-3.28302e-06
-1.08506e-06
-3.18121e-06
-1.31953e-06
-3.05987e-06
-1.54076e-06
-2.91973e-06
-1.74562e-06
-2.7618e-06
-1.93087e-06
-2.58739e-06
-2.09324e-06
-2.39811e-06
-2.22941e-06
-2.19597e-06
-2.33613e-06
-1.98336e-06
-2.41023e-06
-1.76309e-06
-2.44879e-06
-1.53839e-06
-2.44916e-06
-1.31289e-06
-2.4091e-06
-1.09063e-06
-2.32691e-06
-8.76008e-07
-2.20152e-06
-6.73731e-07
-2.03262e-06
-4.88728e-07
-1.82072e-06
-3.26079e-07
-1.5673e-06
-1.90911e-07
-1.27478e-06
-8.82891e-08
-9.4659e-07
-2.31154e-08
-5.8712e-07
-2.01923e-07
-2.38241e-08
2.29722e-07
-9.01175e-08
6.57407e-07
-1.93525e-07
1.04799e-06
-3.2865e-07
1.39771e-06
-4.90162e-07
1.70406e-06
-6.72887e-07
1.96545e-06
-8.71888e-07
2.18117e-06
-1.08252e-06
2.35131e-06
-1.30049e-06
2.47666e-06
-1.52185e-06
2.55856e-06
-1.74307e-06
2.59882e-06
-1.96098e-06
2.5996e-06
-2.17281e-06
2.56333e-06
-2.37612e-06
2.4926e-06
-2.56882e-06
2.39011e-06
-2.74911e-06
2.2586e-06
-2.91548e-06
2.10081e-06
-3.06662e-06
1.91946e-06
-3.20145e-06
1.7172e-06
-3.31905e-06
1.49663e-06
-3.41865e-06
1.26029e-06
-3.49959e-06
1.01067e-06
-3.56131e-06
7.5021e-07
-3.60334e-06
4.81362e-07
-3.62529e-06
2.0657e-07
-3.62684e-06
-7.16772e-08
-3.60773e-06
-3.5083e-07
-3.5678e-06
-6.28245e-07
-3.50699e-06
-9.01165e-07
-3.42535e-06
-1.1667e-06
-3.32309e-06
-1.42179e-06
-3.2006e-06
-1.66326e-06
-3.05848e-06
-1.88774e-06
-2.89761e-06
-2.09174e-06
-2.71917e-06
-2.27168e-06
-2.5247e-06
-2.42388e-06
-2.31613e-06
-2.54469e-06
-2.09583e-06
-2.63053e-06
-1.86665e-06
-2.67798e-06
-1.63188e-06
-2.68392e-06
-1.39535e-06
-2.64563e-06
-1.16133e-06
-2.56093e-06
-9.34521e-07
-2.42833e-06
-7.20015e-07
-2.24712e-06
-5.23195e-07
-2.01754e-06
-3.49641e-07
-1.74085e-06
-2.0502e-07
-1.4194e-06
-9.49552e-08
-1.05666e-06
-2.49019e-08
-6.57173e-07
-2.26825e-07
-2.53039e-08
2.55026e-07
-9.55912e-08
7.27695e-07
-2.05031e-07
1.15743e-06
-3.47744e-07
1.54042e-06
-5.17932e-07
1.87425e-06
-7.09987e-07
2.1575e-06
-9.18578e-07
2.38976e-06
-1.13873e-06
2.57146e-06
-1.36586e-06
2.70379e-06
-1.59583e-06
2.78853e-06
-1.82494e-06
2.82794e-06
-2.04995e-06
2.82462e-06
-2.26804e-06
2.78142e-06
-2.47679e-06
2.70134e-06
-2.67414e-06
2.58745e-06
-2.85837e-06
2.44283e-06
-3.02805e-06
2.27049e-06
-3.18199e-06
2.0734e-06
-3.3192e-06
1.85442e-06
-3.43888e-06
1.61631e-06
-3.54035e-06
1.36175e-06
-3.62302e-06
1.09334e-06
-3.6864e-06
8.13595e-07
-3.73007e-06
5.25033e-07
-3.75365e-06
2.3015e-07
-3.75681e-06
-6.85211e-08
-3.73926e-06
-3.68381e-07
-3.70077e-06
-6.66731e-07
-3.6412e-06
-9.60739e-07
-3.56048e-06
-1.24742e-06
-3.45868e-06
-1.52359e-06
-3.33604e-06
-1.78589e-06
-3.19302e-06
-2.03076e-06
-3.03031e-06
-2.25445e-06
-2.84896e-06
-2.45303e-06
-2.65035e-06
-2.62249e-06
-2.43633e-06
-2.75872e-06
-2.20921e-06
-2.85766e-06
-1.9718e-06
-2.91538e-06
-1.72751e-06
-2.92821e-06
-1.48028e-06
-2.89286e-06
-1.23461e-06
-2.8066e-06
-9.95543e-07
-2.6674e-06
-7.68562e-07
-2.4741e-06
-5.5954e-07
-2.22657e-06
-3.74612e-07
-1.92578e-06
-2.20044e-07
-1.57397e-06
-1.02086e-07
-1.17461e-06
-2.68228e-08
-7.32436e-07
-2.53648e-07
-2.68599e-08
2.81885e-07
-1.01322e-07
8.02156e-07
-2.17025e-07
1.27313e-06
-3.67555e-07
1.69095e-06
-5.46593e-07
2.05329e-06
-7.48053e-07
2.35896e-06
-9.66176e-07
2.60788e-06
-1.19563e-06
2.80091e-06
-1.43154e-06
2.93971e-06
-1.66957e-06
3.02656e-06
-1.90587e-06
3.06424e-06
-2.13713e-06
3.05588e-06
-2.36052e-06
3.0048e-06
-2.57364e-06
2.91447e-06
-2.77453e-06
2.78834e-06
-2.96157e-06
2.62986e-06
-3.13344e-06
2.44237e-06
-3.2891e-06
2.22906e-06
-3.4277e-06
1.99302e-06
-3.54856e-06
1.73717e-06
-3.65111e-06
1.46431e-06
-3.7349e-06
1.17712e-06
-3.7995e-06
8.78194e-07
-3.84454e-06
5.70075e-07
-3.86967e-06
2.55285e-07
-3.87457e-06
-6.3626e-08
-3.8589e-06
-3.84045e-07
-3.82239e-06
-7.03247e-07
-3.76477e-06
-1.01836e-06
-3.68586e-06
-1.32633e-06
-3.58557e-06
-1.62388e-06
-3.46397e-06
-1.9075e-06
-3.3213e-06
-2.17343e-06
-3.15809e-06
-2.41766e-06
-2.97517e-06
-2.63596e-06
-2.77374e-06
-2.82391e-06
-2.5555e-06
-2.97696e-06
-2.32265e-06
-3.09051e-06
-2.07797e-06
-3.16006e-06
-1.82488e-06
-3.1813e-06
-1.56746e-06
-3.15029e-06
-1.31041e-06
-3.06364e-06
-1.05911e-06
-2.9187e-06
-8.19471e-07
-2.71374e-06
-5.97888e-07
-2.44815e-06
-4.01107e-07
-2.12256e-06
-2.36067e-07
-1.73901e-06
-1.09729e-07
-1.30095e-06
-2.8893e-08
-8.13272e-07
-2.82541e-07
-2.85042e-08
3.1039e-07
-1.0735e-07
8.81002e-07
-2.29583e-07
1.39536e-06
-3.88183e-07
1.84955e-06
-5.76254e-07
2.24136e-06
-7.87175e-07
2.56988e-06
-1.01472e-06
2.83543e-06
-1.25317e-06
3.03936e-06
-1.49737e-06
3.1839e-06
-1.74274e-06
3.27193e-06
-1.98533e-06
3.30684e-06
-2.22178e-06
3.29232e-06
-2.44926e-06
3.23228e-06
-2.66546e-06
3.13067e-06
-2.86853e-06
2.99141e-06
-3.05699e-06
2.81833e-06
-3.2297e-06
2.61507e-06
-3.38577e-06
2.38513e-06
-3.52454e-06
2.13178e-06
-3.64548e-06
1.85811e-06
-3.74818e-06
1.56701e-06
-3.8323e-06