/*--------------------------------*- C++ -*----------------------------------*\
  =========                 |
  \\      /  F ield         | OpenFOAM: The Open Source CFD Toolbox
   \\    /   O peration     | Website:  https://openfoam.org
    \\  /    A nd           | Version:  7
     \\/     M anipulation  |
\*---------------------------------------------------------------------------*/
FoamFile
{
    version     2.0;
    format      ascii;
    class       volVectorField;
    location    "0.0072";
    object      U;
}
// * * * * * * * * * * * * * * * * * * * * * * * * * * * * * * * * * * * * * //

dimensions      [0 1 -1 0 0 0 0];

internalField   nonuniform List<vector> 
2500
(
(2.18498e-05 -2.19317e-05 0)
(3.79716e-05 -8.44942e-06 0)
(-9.90535e-06 1.74242e-05 0)
(-0.000126562 4.14422e-05 0)
(-0.000302278 6.02745e-05 0)
(-0.000523857 7.37152e-05 0)
(-0.00077816 8.25002e-05 0)
(-0.00105363 8.75514e-05 0)
(-0.00134068 8.9706e-05 0)
(-0.00163162 8.96532e-05 0)
(-0.00192039 8.7937e-05 0)
(-0.00220225 8.49745e-05 0)
(-0.00247355 8.1076e-05 0)
(-0.00273147 7.64669e-05 0)
(-0.00297377 7.1308e-05 0)
(-0.00319872 6.57124e-05 0)
(-0.00340489 5.976e-05 0)
(-0.00359112 5.35087e-05 0)
(-0.00375642 4.70024e-05 0)
(-0.00389996 4.02769e-05 0)
(-0.00402105 3.33644e-05 0)
(-0.0041191 2.62951e-05 0)
(-0.00419364 1.90986e-05 0)
(-0.00424428 1.18049e-05 0)
(-0.00427077 4.44458e-06 0)
(-0.00427293 -2.95163e-06 0)
(-0.00425072 -1.03519e-05 0)
(-0.00420417 -1.77242e-05 0)
(-0.00413346 -2.50362e-05 0)
(-0.00403884 -3.22552e-05 0)
(-0.00392071 -3.93473e-05 0)
(-0.00377958 -4.62774e-05 0)
(-0.00361607 -5.3008e-05 0)
(-0.00343096 -5.94964e-05 0)
(-0.00322523 -6.56905e-05 0)
(-0.00300002 -7.15242e-05 0)
(-0.00275679 -7.69086e-05 0)
(-0.00249734 -8.17208e-05 0)
(-0.00222396 -8.57901e-05 0)
(-0.00193959 -8.8882e-05 0)
(-0.00164801 -9.06783e-05 0)
(-0.00135408 -9.0757e-05 0)
(-0.00106405 -8.85716e-05 0)
(-0.000785759 -8.34341e-05 0)
(-0.00052893 -7.45133e-05 0)
(-0.000305252 -6.08978e-05 0)
(-0.000127951 -4.1867e-05 0)
(-1.02317e-05 -1.76492e-05 0)
(3.81211e-05 8.36596e-06 0)
(2.20432e-05 2.19859e-05 0)
(8.65852e-06 -3.8055e-05 0)
(-4.58276e-05 4.63518e-05 0)
(-0.000248515 0.000170514 0)
(-0.000597496 0.000288647 0)
(-0.00107581 0.000386432 0)
(-0.00165941 0.000460445 0)
(-0.00232162 0.00051182 0)
(-0.00303702 0.00054349 0)
(-0.00378323 0.000558795 0)
(-0.00454135 0.000560895 0)
(-0.0052959 0.000552544 0)
(-0.00603439 0.000536015 0)
(-0.00674692 0.000513115 0)
(-0.00742565 0.000485239 0)
(-0.00806433 0.000453436 0)
(-0.00865797 0.000418489 0)
(-0.00920253 0.000380977 0)
(-0.00969469 0.00034134 0)
(-0.0101317 0.000299919 0)
(-0.0105112 0.000256993 0)
(-0.0108313 0.000212806 0)
(-0.0110904 0.000167578 0)
(-0.0112872 0.000121521 0)
(-0.0114207 7.48406e-05 0)
(-0.0114902 2.77417e-05 0)
(-0.0114952 -1.95696e-05 0)
(-0.0114358 -6.68849e-05 0)
(-0.0113119 -0.000113992 0)
(-0.0111241 -0.000160676 0)
(-0.0108731 -0.000206714 0)
(-0.0105599 -0.000251874 0)
(-0.0101861 -0.000295908 0)
(-0.00975338 -0.000338542 0)
(-0.00926393 -0.000379458 0)
(-0.00872048 -0.000418274 0)
(-0.00812634 -0.000454505 0)
(-0.00748563 -0.00048752 0)
(-0.00680345 -0.000516487 0)
(-0.00608622 -0.000540306 0)
(-0.00534202 -0.000557536 0)
(-0.00458105 -0.000566332 0)
(-0.00381612 -0.000564393 0)
(-0.00306307 -0.000548957 0)
(-0.00234113 -0.000516873 0)
(-0.00167301 -0.000464832 0)
(-0.00108441 -0.000389956 0)
(-0.000602173 -0.000291181 0)
(-0.000250443 -0.000172025 0)
(-4.61844e-05 -4.69496e-05 0)
(8.76273e-06 3.8227e-05 0)
(-1.66023e-05 8.85391e-06 0)
(-0.000168749 0.000248519 0)
(-0.000545835 0.000547129 0)
(-0.00112195 0.00083073 0)
(-0.00187098 0.00107046 0)
(-0.00276286 0.00125657 0)
(-0.00376325 0.00138916 0)
(-0.00483837 0.00147322 0)
(-0.00595759 0.00151557 0)
(-0.00709435 0.00152332 0)
(-0.00822634 0.001503 0)
(-0.00933524 0.00146028 0)
(-0.0104062 0.0013998 0)
(-0.0114273 0.00132525 0)
(-0.0123888 0.00123951 0)
(-0.0132831 0.00114474 0)
(-0.0141039 0.00104261 0)
(-0.0148459 0.000934396 0)
(-0.0155048 0.000821105 0)
(-0.0160771 0.000703563 0)
(-0.0165597 0.000582479 0)
(-0.0169502 0.000458498 0)
(-0.0172467 0.000332223 0)
(-0.0174476 0.000204236 0)
(-0.0175518 7.51126e-05 0)
(-0.0175588 -5.45707e-05 0)
(-0.0174684 -0.000184235 0)
(-0.0172808 -0.000313291 0)
(-0.0169967 -0.000441136 0)
(-0.0166173 -0.000567147 0)
(-0.0161443 -0.000690665 0)
(-0.0155799 -0.000810982 0)
(-0.0149268 -0.000927305 0)
(-0.0141886 -0.00103871 0)
(-0.0133695 -0.0011441 0)
(-0.0124745 -0.00124207 0)
(-0.0115102 -0.00133084 0)
(-0.0104845 -0.0014081 0)
(-0.0094072 -0.00147088 0)
(-0.00829056 -0.00151535 0)
(-0.00714985 -0.00153679 0)
(-0.00600383 -0.00152947 0)
(-0.00487529 -0.00148683 0)
(-0.00379124 -0.00140181 0)
(-0.00278273 -0.00126765 0)
(-0.00188393 -0.00107949 0)
(-0.00112938 -0.000837415 0)
(-0.000549295 -0.000551385 0)
(-0.000169788 -0.000250509 0)
(-1.66897e-05 -9.03212e-06 0)
(-4.01927e-05 0.00012387 0)
(-0.000287142 0.000597268 0)
(-0.000832965 0.00112373 0)
(-0.00162093 0.00161471 0)
(-0.00261222 0.00203064 0)
(-0.00377089 0.00235636 0)
(-0.005057 0.00259095 0)
(-0.00643113 0.00274141 0)
(-0.00785722 0.00281827 0)
(-0.00930358 0.00283302 0)
(-0.0107431 0.00279665 0)
(-0.0121534 0.0027189 0)
(-0.0135157 0.00260798 0)
(-0.014815 0.00247053 0)
(-0.0160391 0.00231179 0)
(-0.0171779 0.00213583 0)
(-0.0182233 0.00194579 0)
(-0.0191686 0.0017441 0)
(-0.020008 0.00153273 0)
(-0.0207371 0.00131327 0)
(-0.0213518 0.0010871 0)
(-0.0218492 0.000855473 0)
(-0.0222266 0.000619533 0)
(-0.0224821 0.000380396 0)
(-0.0226143 0.000139152 0)
(-0.0226226 -0.000103113 0)
(-0.0225066 -0.000345305 0)
(-0.0222668 -0.000586316 0)
(-0.021904 -0.000825007 0)
(-0.0214198 -0.00106019 0)
(-0.0208164 -0.00129063 0)
(-0.0200967 -0.00151494 0)
(-0.0192641 -0.00173162 0)
(-0.0183234 -0.0019389 0)
(-0.0172798 -0.00213463 0)
(-0.0161403 -0.00231619 0)
(-0.014913 -0.00248021 0)
(-0.0136082 -0.0026224 0)
(-0.0122384 -0.00273732 0)
(-0.0108191 -0.00281813 0)
(-0.00936933 -0.00285647 0)
(-0.00791211 -0.00284249 0)
(-0.00647507 -0.00276517 0)
(-0.00509045 -0.00261308 0)
(-0.0037948 -0.00237581 0)
(-0.00262794 -0.00204662 0)
(-0.00163011 -0.00162671 0)
(-0.000837374 -0.00113161 0)
(-0.000288561 -0.000601271 0)
(-4.03654e-05 -0.000124671 0)
(-5.91144e-05 0.000298436 0)
(-0.000388563 0.00107923 0)
(-0.00108578 0.00188015 0)
(-0.00206337 0.00261011 0)
(-0.00326842 0.0032249 0)
(-0.00465832 0.00370684 0)
(-0.00618797 0.00405524 0)
(-0.00781347 0.00427954 0)
(-0.00949487 0.0043942 0)
(-0.0111968 0.00441535 0)
(-0.0128891 0.00435873 0)
(-0.0145459 0.00423852 0)
(-0.0161462 0.00406686 0)
(-0.0176725 0.00385374 0)
(-0.0191104 0.00360713 0)
(-0.0204484 0.00333331 0)
(-0.0216766 0.00303718 0)
(-0.0227872 0.00272262 0)
(-0.0237735 0.00239271 0)
(-0.02463 0.00205003 0)
(-0.0253522 0.00169678 0)
(-0.0259363 0.00133494 0)
(-0.0263793 0.000966353 0)
(-0.0266791 0.000592778 0)
(-0.026834 0.000215935 0)
(-0.0268431 -0.00016247 0)
(-0.0267062 -0.000540721 0)
(-0.0264238 -0.000917076 0)
(-0.0259969 -0.00128974 0)
(-0.0254273 -0.00165686 0)
(-0.0247177 -0.00201644 0)
(-0.0238715 -0.00236632 0)
(-0.0228928 -0.0027041 0)
(-0.0217871 -0.00302695 0)
(-0.0205609 -0.0033315 0)
(-0.0192222 -0.0036136 0)
(-0.0177807 -0.00386802 0)
(-0.0162483 -0.00408816 0)
(-0.0146397 -0.00426573 0)
(-0.0129728 -0.00439046 0)
(-0.0112693 -0.00445 0)
(-0.00955527 -0.00442999 0)
(-0.00786178 -0.00431467 0)
(-0.00622468 -0.00408799 0)
(-0.00468451 -0.00373569 0)
(-0.0032856 -0.00324869 0)
(-0.00207337 -0.0026281 0)
(-0.00109055 -0.00189214 0)
(-0.000390076 -0.00108557 0)
(-5.92934e-05 -0.000300008 0)
(-7.34464e-05 0.000521594 0)
(-0.00047114 0.0016762 0)
(-0.00129845 0.0027954 0)
(-0.0024411 0.00379311 0)
(-0.00383243 0.00462574 0)
(-0.00542271 0.00527638 0)
(-0.00716153 0.00574636 0)
(-0.00900094 0.00604856 0)
(-0.0108977 0.00620187 0)
(-0.0128137 0.00622738 0)
(-0.0147163 0.00614584 0)
(-0.0165776 0.00597613 0)
(-0.0183744 0.00573458 0)
(-0.0200876 0.00543477 0)
(-0.0217014 0.00508766 0)
(-0.0232028 0.00470198 0)
(-0.024581 0.00428459 0)
(-0.025827 0.00384096 0)
(-0.0269335 0.00337551 0)
(-0.0278943 0.00289191 0)
(-0.0287042 0.00239333 0)
(-0.0293592 0.00188259 0)
(-0.0298559 0.00136234 0)
(-0.0301918 0.000835057 0)
(-0.0303652 0.000303195 0)
(-0.030375 -0.000230833 0)
(-0.0302211 -0.000764603 0)
(-0.0299039 -0.00129565 0)
(-0.0294246 -0.00182143 0)
(-0.0287852 -0.00233931 0)
(-0.0279888 -0.00284647 0)
(-0.027039 -0.00333982 0)
(-0.0259408 -0.00381592 0)
(-0.0246999 -0.00427077 0)
(-0.0233239 -0.00469956 0)
(-0.0218216 -0.00509645 0)
(-0.0202039 -0.00545411 0)
(-0.018484 -0.0057634 0)
(-0.0166781 -0.00601293 0)
(-0.0148059 -0.00618874 0)
(-0.0128911 -0.00627421 0)
(-0.010962 -0.00625024 0)
(-0.00905216 -0.00609603 0)
(-0.00720025 -0.00579061 0)
(-0.00545012 -0.00531537 0)
(-0.0038502 -0.00465791 0)
(-0.00245126 -0.00381748 0)
(-0.00130317 -0.00281172 0)
(-0.000472544 -0.00168494 0)
(-7.35799e-05 -0.000523905 0)
(-8.41178e-05 0.000783099 0)
(-0.000537146 0.002369 0)
(-0.00147402 0.00384662 0)
(-0.00275846 0.00513877 0)
(-0.00431144 0.00620636 0)
(-0.00607607 0.00703611 0)
(-0.00799653 0.00763336 0)
(-0.0100208 0.00801561 0)
(-0.0121027 0.00820694 0)
(-0.0142016 0.00823386 0)
(-0.0162829 0.00812243 0)
(-0.0183171 0.00789649 0)
(-0.0202794 0.00757677 0)
(-0.0221496 0.0071806 0)
(-0.0239106 0.00672214 0)
(-0.0255484 0.00621268 0)
(-0.0270515 0.00566124 0)
(-0.0284103 0.00507501 0)
(-0.0296166 0.00445985 0)
(-0.030664 0.00382064 0)
(-0.0315468 0.00316161 0)
(-0.0322605 0.00248654 0)
(-0.0328017 0.00179891 0)
(-0.0331677 0.00110204 0)
(-0.0333564 0.000399157 0)
(-0.033367 -0.000306547 0)
(-0.0331991 -0.00101187 0)
(-0.0328532 -0.00171357 0)
(-0.0323307 -0.00240828 0)
(-0.0316337 -0.00309252 0)
(-0.0307654 -0.00376253 0)
(-0.0297298 -0.00441423 0)
(-0.0285323 -0.00504304 0)
(-0.0271791 -0.00564364 0)
(-0.0256782 -0.0062097 0)
(-0.0240392 -0.00673349 0)
(-0.0222739 -0.00720547 0)
(-0.0203965 -0.00761376 0)
(-0.0184243 -0.00794369 0)
(-0.0163783 -0.00817742 0)
(-0.0142837 -0.00829384 0)
(-0.0121706 -0.00826885 0)
(-0.0100747 -0.00807634 0)
(-0.00803693 -0.00768994 0)
(-0.00610435 -0.00708592 0)
(-0.00432948 -0.00624739 0)
(-0.0027685 -0.0051698 0)
(-0.00147847 -0.00386734 0)
(-0.000538338 -0.00238007 0)
(-8.41793e-05 -0.00078603 0)
(-9.21698e-05 0.00107477 0)
(-0.000590275 0.00314097 0)
(-0.00161952 0.00501319 0)
(-0.0030261 0.00662473 0)
(-0.00472037 0.00794343 0)
(-0.00663858 0.00896192 0)
(-0.00871953 0.00969128 0)
(-0.0109071 0.0101549 0)
(-0.0131521 0.0103829 0)
(-0.0154116 0.0104079 0)
(-0.0176491 0.0102615 0)
(-0.0198337 0.00997288 0)
(-0.0219395 0.00956731 0)
(-0.0239451 0.00906609 0)
(-0.0258328 0.00848667 0)
(-0.0275877 0.00784309 0)
(-0.0291977 0.00714658 0)
(-0.0306527 0.00640619 0)
(-0.0319442 0.00562931 0)
(-0.0330652 0.00482211 0)
(-0.0340099 0.00398995 0)
(-0.0347737 0.00313761 0)
(-0.0353527 0.0022695 0)
(-0.0357443 0.0013898 0)
(-0.0359463 0.000502568 0)
(-0.0359578 -0.000388182 0)
(-0.0357783 -0.00127843 0)
(-0.0354084 -0.0021641 0)
(-0.0348496 -0.00304098 0)
(-0.034104 -0.00390465 0)
(-0.0331749 -0.00475039 0)
(-0.0320667 -0.00557304 0)
(-0.0307847 -0.00636681 0)
(-0.0293357 -0.00712497 0)
(-0.027728 -0.00783956 0)
(-0.0259718 -0.00850088 0)
(-0.0240795 -0.00909702 0)
(-0.0220659 -0.00961323 0)
(-0.0199493 -0.0100314 0)
(-0.0177517 -0.0103296 0)
(-0.0154996 -0.0104822 0)
(-0.0132247 -0.0104596 0)
(-0.0109644 -0.01023 0)
(-0.00876213 -0.00976112 0)
(-0.00666806 -0.00902329 0)
(-0.00473884 -0.00799385 0)
(-0.00303609 -0.00666269 0)
(-0.00162371 -0.00503834 0)
(-0.000591243 -0.00315422 0)
(-9.21539e-05 -0.00107818 0)
(-9.85056e-05 0.00139074 0)
(-0.00063434 0.00397926 0)
(-0.00174309 0.00627885 0)
(-0.00325697 0.00823337 0)
(-0.00507724 0.00981895 0)
(-0.00713384 0.0110357 0)
(-0.00936029 0.011902 0)
(-0.0116963 0.0124483 0)
(-0.0140896 0.0127116 0)
(-0.0164948 0.0127311 0)
(-0.0188738 0.0125448 0)
(-0.0211942 0.0121872 0)
(-0.023429 0.0116884 0)
(-0.0255559 0.011074 0)
(-0.0275566 0.0103649 0)
(-0.0294156 0.00957778 0)
(-0.0311204 0.00872637 0)
(-0.0326605 0.00782159 0)
(-0.0340271 0.00687245 0)
(-0.035213 0.00588647 0)
(-0.0362123 0.00487019 0)
(-0.0370201 0.00382943 0)
(-0.0376325 0.00276957 0)
(-0.0380468 0.00169568 0)
(-0.0382608 0.000612678 0)
(-0.0382733 -0.000474575 0)
(-0.0380842 -0.00156122 0)
(-0.0376937 -0.00264232 0)
(-0.0371035 -0.00371278 0)
(-0.0363157 -0.00476722 0)
(-0.0353337 -0.00579992 0)
(-0.0341618 -0.00680459 0)
(-0.0328056 -0.00777415 0)
(-0.0312721 -0.00870042 0)
(-0.0295699 -0.0095737 0)
(-0.0277095 -0.0103822 0)
(-0.0257036 -0.0111116 0)
(-0.0235678 -0.0117442 0)
(-0.0213211 -0.0122581 0)
(-0.0189863 -0.0126274 0)
(-0.0165912 -0.0128211 0)
(-0.0141689 -0.0128044 0)
(-0.0117586 -0.0125391 0)
(-0.00940635 -0.0119864 0)
(-0.00716543 -0.0111097 0)
(-0.00509676 -0.00987949 0)
(-0.00326727 -0.00827867 0)
(-0.0017472 -0.00630857 0)
(-0.000635152 -0.00399462 0)
(-9.84232e-05 -0.00139449 0)
(-0.000103846 0.00172716 0)
(-0.000672777 0.00487506 0)
(-0.00185262 0.00763216 0)
(-0.00346402 0.00995227 0)
(-0.00540037 0.0118205 0)
(-0.00758576 0.0132454 0)
(-0.00994857 0.0142538 0)
(-0.0124244 0.0148843 0)
(-0.0149574 0.0151816 0)
(-0.0175002 0.0151923 0)
(-0.0200124 0.014961 0)
(-0.0224603 0.0145282 0)
(-0.024816 0.0139293 0)
(-0.0270563 0.0131938 0)
(-0.029162 0.0123465 0)
(-0.0311176 0.0114071 0)
(-0.0329101 0.0103916 0)
(-0.0345286 0.00931297 0)
(-0.0359642 0.00818193 0)
(-0.0372097 0.00700738 0)
(-0.038259 0.00579707 0)
(-0.0391072 0.00455791 0)
(-0.0397504 0.00329624 0)
(-0.0401856 0.00201806 0)
(-0.0404108 0.000729155 0)
(-0.0404249 -0.000564778 0)
(-0.0402274 -0.00185803 0)
(-0.0398188 -0.00314479 0)
(-0.0392004 -0.00441905 0)
(-0.0383747 -0.00567451 0)
(-0.0373447 -0.00690436 0)
(-0.0361149 -0.00810117 0)
(-0.034691 -0.00925655 0)
(-0.03308 -0.0103608 0)
(-0.0312905 -0.0114024 0)
(-0.0293334 -0.0123674 0)
(-0.0272218 -0.0132389 0)
(-0.0249717 -0.0139959 0)
(-0.0226027 -0.0146131 0)
(-0.0201386 -0.0150597 0)
(-0.0176082 -0.0152998 0)
(-0.0150462 -0.0152924 0)
(-0.012494 -0.0149926 0)
(-0.00999995 -0.0143544 0)
(-0.00762086 -0.0133334 0)
(-0.0054219 -0.0118922 0)
(-0.00347523 -0.0100056 0)
(-0.00185699 -0.00766678 0)
(-0.000673551 -0.00489257 0)
(-0.000103718 -0.00173117 0)
(-0.000108747 0.00208194 0)
(-0.000708485 0.00582322 0)
(-0.00195514 0.00906638 0)
(-0.00365913 0.0117742 0)
(-0.0057068 0.0139409 0)
(-0.00801669 0.0155845 0)
(-0.0105122 0.0167407 0)
(-0.0131245 0.0174573 0)
(-0.0157945 0.0177876 0)
(-0.0184721 0.0177863 0)
(-0.0211149 0.0175051 0)
(-0.0236876 0.0169909 0)
(-0.0261612 0.0162845 0)
(-0.0285118 0.0154202 0)
(-0.0307196 0.0144264 0)
(-0.0327685 0.0133259 0)
(-0.0346454 0.0121374 0)
(-0.0363393 0.0108759 0)
(-0.0378412 0.00955372 0)
(-0.0391437 0.00818134 0)
(-0.0402408 0.0067677 0)
(-0.0411276 0.00532082 0)
(-0.0418002 0.00384801 0)
(-0.0422557 0.00235619 0)
(-0.0424921 0.000851996 0)
(-0.042508 -0.000658028 0)
(-0.0423032 -0.00216734 0)
(-0.0418779 -0.00366927 0)
(-0.0412335 -0.00515691 0)
(-0.0403722 -0.006623 0)
(-0.0392971 -0.00805969 0)
(-0.0380126 -0.00945834 0)
(-0.0365242 -0.0108092 0)
(-0.0348389 -0.012101 0)
(-0.0329656 -0.0133204 0)
(-0.0309151 -0.0144511 0)
(-0.0287008 -0.0154735 0)
(-0.0263392 -0.0163635 0)
(-0.0238505 -0.0170914 0)
(-0.0212594 -0.017622 0)
(-0.0185959 -0.0179136 0)
(-0.0158964 -0.0179188 0)
(-0.0132044 -0.0175855 0)
(-0.0105712 -0.0168596 0)
(-0.00805707 -0.0156883 0)
(-0.00573159 -0.0140254 0)
(-0.00367206 -0.0118367 0)
(-0.00196017 -0.00910652 0)
(-0.000709376 -0.00584312 0)
(-0.000108599 -0.00208621 0)
(-0.000113628 0.00245434 0)
(-0.000743823 0.00682183 0)
(-0.0020566 0.010579 0)
(-0.00385262 0.0136968 0)
(-0.00601153 0.0161783 0)
(-0.0084465 0.0180514 0)
(-0.0110758 0.0193617 0)
(-0.0138263 0.0201668 0)
(-0.0166354 0.0205294 0)
(-0.0194498 0.0205129 0)
(-0.0222251 0.0201767 0)
(-0.0249244 0.0195748 0)
(-0.0275173 0.0187535 0)
(-0.0299791 0.0177523 0)
(-0.0322896 0.0166034 0)
(-0.0344322 0.015333 0)
(-0.0363935 0.0139624 0)
(-0.0381626 0.0125089 0)
(-0.0397303 0.0109865 0)
(-0.0410895 0.0094071 0)
(-0.042234 0.00778104 0)
(-0.0431592 0.00611738 0)
(-0.0438611 0.00442442 0)
(-0.0443369 0.00270995 0)
(-0.0445846 0.000981464 0)
(-0.0446029 -0.000753691 0)
(-0.0443914 -0.00248816 0)
(-0.0439503 -0.00421445 0)
(-0.0432809 -0.00592479 0)
(-0.0423851 -0.00761094 0)
(-0.0412661 -0.00926402 0)
(-0.0399278 -0.0108742 0)
(-0.0383758 -0.0124303 0)
(-0.0366169 -0.0139195 0)
(-0.0346599 -0.0153263 0)
(-0.0325158 -0.0166323 0)
(-0.0301981 -0.0178149 0)
(-0.0277238 -0.0188464 0)
(-0.0251137 -0.0196931 0)
(-0.0223934 -0.0203145 0)
(-0.0195943 -0.0206629 0)
(-0.0167546 -0.0206841 0)
(-0.0139201 -0.020318 0)
(-0.0111454 -0.0195018 0)
(-0.0084943 -0.0181736 0)
(-0.00604108 -0.0162775 0)
(-0.0038682 -0.0137699 0)
(-0.00206279 -0.0106257 0)
(-0.000745011 -0.00684458 0)
(-0.000113487 -0.00245896 0)
(-0.000118803 0.00284477 0)
(-0.000780676 0.00787165 0)
(-0.00216189 0.0121713 0)
(-0.00405318 0.0157217 0)
(-0.00632742 0.0185352 0)
(-0.00889235 0.0206494 0)
(-0.011661 0.0221206 0)
(-0.0145557 0.0230169 0)
(-0.0175098 0.0234113 0)
(-0.0204672 0.0233762 0)
(-0.0233808 0.0229799 0)
(-0.026212 0.0222833 0)
(-0.0289291 0.0213394 0)
(-0.0315064 0.0201926 0)
(-0.0339231 0.0188796 0)
(-0.0361623 0.01743 0)
(-0.0382105 0.0158679 0)
(-0.0400566 0.0142128 0)
(-0.0416918 0.0124807 0)
(-0.0431088 0.0106851 0)
(-0.0443017 0.00883744 0)
(-0.0452659 0.00694791 0)
(-0.0459978 0.0050258 0)
(-0.0464945 0.00307974 0)
(-0.0467541 0.00111803 0)
(-0.0467754 -0.000851225 0)
(-0.0465577 -0.00281991 0)
(-0.0461013 -0.00477974 0)
(-0.0454071 -0.00672212 0)
(-0.0444771 -0.00863787 0)
(-0.0433139 -0.0105171 0)
(-0.0419214 -0.0123487 0)
(-0.0403048 -0.0141202 0)
(-0.0384708 -0.015817 0)
(-0.0364281 -0.0174216 0)
(-0.0341875 -0.018913 0)
(-0.0317629 -0.0202657 0)
(-0.0291714 -0.0214481 0)
(-0.0264346 -0.0224221 0)
(-0.0235792 -0.0231416 0)
(-0.0206381 -0.0235526 0)
(-0.0176513 -0.0235932 0)
(-0.0146675 -0.0231949 0)
(-0.0117444 -0.0222856 0)
(-0.00895001 -0.0207933 0)
(-0.00636344 -0.0186519 0)
(-0.00407248 -0.0158075 0)
(-0.0021698 -0.0122258 0)
(-0.000782355 -0.00789798 0)
(-0.000118698 -0.0028499 0)
(-0.000124505 0.00325444 0)
(-0.000820532 0.00897564 0)
(-0.00227501 0.0138475 0)
(-0.00426803 0.0178545 0)
(-0.0066653 0.021018 0)
(-0.00936885 0.0233857 0)
(-0.0122862 0.0250252 0)
(-0.0153347 0.0260157 0)
(-0.0184437 0.0264411 0)
(-0.0215534 0.026384 0)
(-0.0246143 0.0259217 0)
(-0.0275857 0.0251232 0)
(-0.0304345 0.0240481 0)
(-0.0331339 0.0227464 0)
(-0.0356626 0.0212594 0)
(-0.0380034 0.0196206 0)
(-0.0401426 0.0178569 0)
(-0.0420693 0.0159903 0)
(-0.0437747 0.0140387 0)
(-0.0452517 0.0120171 0)
(-0.0464949 0.00993826 0)
(-0.0474998 0.00781354 0)
(-0.0482628 0.00565308 0)
(-0.0487815 0.00346634 0)
(-0.0490538 0.00126233 0)
(-0.0490785 -0.000950129 0)
(-0.0488551 -0.00316223 0)
(-0.0483835 -0.00536499 0)
(-0.0476645 -0.00754899 0)
(-0.0466997 -0.00970423 0)
(-0.0454915 -0.0118197 0)
(-0.0440433 -0.0138833 0)
(-0.04236 -0.0158809 0)
(-0.040448 -0.0177963 0)
(-0.0383157 -0.0196097 0)
(-0.0359738 -0.0212977 0)
(-0.0334363 -0.0228312 0)
(-0.0307208 -0.0241748 0)
(-0.0278494 -0.0252855 0)
(-0.02485 -0.0261112 0)
(-0.0217571 -0.026591 0)
(-0.018613 -0.0266549 0)
(-0.0154691 -0.0262251 0)
(-0.012387 -0.0252195 0)
(-0.00943917 -0.0235553 0)
(-0.00670973 -0.0211556 0)
(-0.00429226 -0.0179558 0)
(-0.00228528 -0.0139117 0)
(-0.000822918 -0.00900656 0)
(-0.000124465 -0.00326038 0)
(-0.000130911 0.00368528 0)
(-0.00086459 0.0101386 0)
(-0.00239928 0.0156146 0)
(-0.00450323 0.0201039 0)
(-0.00703435 0.0236365 0)
(-0.00988849 0.0262711 0)
(-0.0129672 0.0280867 0)
(-0.0161825 0.0291745 0)
(-0.019459 0.0296301 0)
(-0.0227334 0.0295471 0)
(-0.0259532 0.0290124 0)
(-0.0290755 0.0281036 0)
(-0.0320656 0.0268878 0)
(-0.0348957 0.0254209 0)
(-0.0375438 0.0237492 0)
(-0.0399925 0.0219101 0)
(-0.0422281 0.0199339 0)
(-0.0442398 0.017845 0)
(-0.046019 0.0156633 0)
(-0.0475592 0.0134054 0)
(-0.048855 0.0110855 0)
(-0.0499024 0.00871587 0)
(-0.0506981 0.00630755 0)
(-0.0512399 0.00387074 0)
(-0.0515259 0.00141512 0)
(-0.0515548 -0.0010499 0)
(-0.051326 -0.00351491 0)
(-0.0508393 -0.00597027 0)
(-0.0500952 -0.00840591 0)
(-0.0490948 -0.010811 0)
(-0.0478402 -0.0131736 0)
(-0.0463342 -0.0154802 0)
(-0.0445814 -0.0177156 0)
(-0.0425875 -0.0198614 0)
(-0.0403607 -0.0218958 0)
(-0.0379114 -0.0237925 0)
(-0.0352537 -0.0255188 0)
(-0.0324053 -0.0270352 0)
(-0.0293892 -0.028293 0)
(-0.0262345 -0.0292342 0)
(-0.0229773 -0.0297899 0)
(-0.0196625 -0.0298813 0)
(-0.0163449 -0.029421 0)
(-0.0130898 -0.0283158 0)
(-0.00997468 -0.0264714 0)
(-0.00708941 -0.0237993 0)
(-0.00453377 -0.0202239 0)
(-0.00241258 -0.0156909 0)
(-0.00086792 -0.0101754 0)
(-0.00013097 -0.00369242 0)
(-0.000138165 0.00413976 0)
(-0.000913854 0.0113667 0)
(-0.00253751 0.0174817 0)
(-0.00476402 0.0224811 0)
(-0.00744261 0.0264038 0)
(-0.0104623 0.0293195 0)
(-0.013718 0.0313194 0)
(-0.0171158 0.0325077 0)
(-0.0205753 0.0329922 0)
(-0.0240292 0.0328785 0)
(-0.0274217 0.032264 0)
(-0.0307074 0.0312357 0)
(-0.03385 0.0298684 0)
(-0.0368207 0.0282248 0)
(-0.0395968 0.0263564 0)
(-0.0421607 0.024305 0)
(-0.0444987 0.0221043 0)
(-0.0466003 0.0197813 0)
(-0.0484575 0.0173581 0)
(-0.050064 0.0148531 0)
(-0.0514151 0.0122815 0)
(-0.0525071 0.00965678 0)
(-0.0533373 0.00699069 0)
(-0.0539036 0.0042941 0)
(-0.0542042 0.00157724 0)
(-0.054238 -0.00114999 0)
(-0.0540043 -0.0038777 0)
(-0.0535026 -0.00659576 0)
(-0.0527331 -0.00929347 0)
(-0.0516964 -0.0119593 0)
(-0.0503939 -0.0145804 0)
(-0.048828 -0.0171422 0)
(-0.0470024 -0.0196277 0)
(-0.0449224 -0.0220171 0)
(-0.0425954 -0.0242859 0)
(-0.0400319 -0.0264048 0)
(-0.0372453 -0.0283375 0)
(-0.034254 -0.0300394 0)
(-0.0310815 -0.0314565 0)
(-0.0277581 -0.0325234 0)
(-0.0243219 -0.0331632 0)
(-0.0208206 -0.0332875 0)
(-0.0173124 -0.0327981 0)
(-0.0138673 -0.0315899 0)
(-0.010568 -0.0295566 0)
(-0.00751087 -0.0265971 0)
(-0.00480244 -0.0226241 0)
(-0.00255465 -0.0175731 0)
(-0.000918392 -0.0114112 0)
(-0.000138356 -0.00414861 0)
(-0.00014639 0.00462079 0)
(-0.000969222 0.0126675 0)
(-0.00269224 0.0194601 0)
(-0.0050552 0.0250001 0)
(-0.00789746 0.0293354 0)
(-0.0111004 0.0325475 0)
(-0.0145515 0.0347405 0)
(-0.0181503 0.0360321 0)
(-0.0218108 0.0365438 0)
(-0.025461 0.0363936 0)
(-0.0290418 0.0356908 0)
(-0.032505 0.0345322 0)
(-0.0358127 0.0330012 0)
(-0.0389347 0.0311678 0)
(-0.0418479 0.0290893 0)
(-0.0445346 0.0268122 0)
(-0.0469814 0.0243737 0)
(-0.0491781 0.0218039 0)
(-0.0511173 0.019127 0)
(-0.0527935 0.0163631 0)
(-0.0542024 0.0135287 0)
(-0.0553411 0.0106382 0)
(-0.0562074 0.00770401 0)
(-0.0567993 0.00473762 0)
(-0.0571157 0.00174962 0)
(-0.0571553 -0.00124976 0)
(-0.0569172 -0.00425028 0)
(-0.0564009 -0.00724146 0)
(-0.0556058 -0.0102122 0)
(-0.0545322 -0.0131502 0)
(-0.0531807 -0.016042 0)
(-0.0515528 -0.0188718 0)
(-0.0496514 -0.0216212 0)
(-0.047481 -0.0242684 0)
(-0.0450484 -0.0267864 0)
(-0.0423631 -0.0291427 0)
(-0.0394386 -0.0312968 0)
(-0.0362933 -0.0331992 0)
(-0.0329514 -0.0347892 0)
(-0.0294444 -0.035994 0)
(-0.0258126 -0.0367276 0)
(-0.0221065 -0.0368911 0)
(-0.0183884 -0.0363746 0)
(-0.0147333 -0.0350604 0)
(-0.0112301 -0.0328288 0)
(-0.00798195 -0.0295656 0)
(-0.00510335 -0.0251711 0)
(-0.00271415 -0.0195703 0)
(-0.000975274 -0.0127219 0)
(-0.000146749 -0.00463203 0)
(-0.000155706 0.00513176 0)
(-0.00103157 0.01405 0)
(-0.00286598 0.0215628 0)
(-0.00538144 0.0276769 0)
(-0.00840612 0.0324497 0)
(-0.0118126 0.0359745 0)
(-0.0154803 0.0383696 0)
(-0.019301 0.0397672 0)
(-0.0231826 0.0403033 0)
(-0.0270482 0.0401098 0)
(-0.0308344 0.0393083 0)
(-0.0344905 0.0380068 0)
(-0.0379765 0.0362982 0)
(-0.0412612 0.0342602 0)
(-0.0443211 0.0319565 0)
(-0.0471384 0.0294386 0)
(-0.0497001 0.0267479 0)
(-0.0519968 0.0239173 0)
(-0.0540218 0.0209735 0)
(-0.0557704 0.0179382 0)
(-0.0572394 0.0148293 0)
(-0.0584266 0.0116618 0)
(-0.0593303 0.00844895 0)
(-0.0599492 0.00520247 0)
(-0.0602823 0.00193321 0)
(-0.0603286 -0.00134842 0)
(-0.060087 -0.00463209 0)
(-0.0595566 -0.00790712 0)
(-0.0587364 -0.0111621 0)
(-0.0576258 -0.0143844 0)
(-0.0562246 -0.0175598 0)
(-0.0545333 -0.0206714 0)
(-0.0525536 -0.0236996 0)
(-0.050289 -0.0266202 0)
(-0.0477452 -0.029404 0)
(-0.0449309 -0.0320146 0)
(-0.0418593 -0.0344073 0)
(-0.0385485 -0.0365269 0)
(-0.0350232 -0.0383057 0)
(-0.0313164 -0.0396625 0)
(-0.0274705 -0.0405014 0)
(-0.0235393 -0.040712 0)
(-0.0195895 -0.0401716 0)
(-0.0157017 -0.0387486 0)
(-0.0119716 -0.0363091 0)
(-0.00851045 -0.0327246 0)
(-0.00544154 -0.0278824 0)
(-0.00289376 -0.0216963 0)
(-0.0010395 -0.0141168 0)
(-0.000156278 -0.0051462 0)
(-0.000166242 0.00567645 0)
(-0.00110181 0.0155241 0)
(-0.00306133 0.0238048 0)
(-0.00574766 0.0305302 0)
(-0.00897616 0.0357674 0)
(-0.0126095 0.0396227 0)
(-0.0165175 0.0422291 0)
(-0.0205837 0.0437347 0)
(-0.0247088 0.0442913 0)
(-0.0288103 0.0440457 0)
(-0.0328207 0.0431334 0)
(-0.036686 0.0416745 0)
(-0.0403642 0.0397721 0)
(-0.0438232 0.0375125 0)
(-0.047039 0.0349666 0)
(-0.0499943 0.0321913 0)
(-0.0526766 0.0292322 0)
(-0.0550775 0.0261257 0)
(-0.0571914 0.0229007 0)
(-0.0590148 0.0195808 0)
(-0.0605456 0.016185 0)
(-0.0617824 0.012729 0)
(-0.0627245 0.00922665 0)
(-0.0633713 0.00568969 0)
(-0.0637221 0.00212903 0)
(-0.0637761 -0.00144503 0)
(-0.0635321 -0.00502224 0)
(-0.0629887 -0.00859201 0)
(-0.0621444 -0.0121429 0)
(-0.0609975 -0.015662 0)
(-0.0595468 -0.0191345 0)
(-0.0577916 -0.0225427 0)
(-0.055732 -0.0258655 0)
(-0.0533702 -0.0290769 0)
(-0.0507104 -0.0321446 0)
(-0.0477605 -0.0350287 0)
(-0.0445326 -0.0376794 0)
(-0.0410445 -0.0400355 0)
(-0.0373215 -0.0420215 0)
(-0.0333976 -0.043547 0)
(-0.0293176 -0.044505 0)
(-0.025139 -0.0447725 0)
(-0.0209331 -0.0442126 0)
(-0.0167869 -0.0426788 0)
(-0.012804 -0.0400213 0)
(-0.00910473 -0.0360965 0)
(-0.00582242 -0.0307778 0)
(-0.00309635 -0.0239671 0)
(-0.00111206 -0.0156066 0)
(-0.000167079 -0.00569512 0)
(-0.000178145 0.00625918 0)
(-0.001181 0.0171014 0)
(-0.00328126 0.0262032 0)
(-0.00615935 0.0335811 0)
(-0.00961596 0.0393124 0)
(-0.0135023 0.0435171 0)
(-0.0176775 0.0463441 0)
(-0.0220153 0.0479588 0)
(-0.0264087 0.0485303 0)
(-0.0307686 0.0482219 0)
(-0.0350229 0.0471841 0)
(-0.0391143 0.0455505 0)
(-0.042999 0.0434356 0)
(-0.0466436 0.0409352 0)
(-0.0500244 0.0381277 0)
(-0.0531243 0.0350763 0)
(-0.055932 0.0318312 0)
(-0.0584403 0.0284322 0)
(-0.0606452 0.0249109 0)
(-0.0625446 0.0212924 0)
(-0.0641378 0.0175968 0)
(-0.0654247 0.0138408 0)
(-0.0664057 0.0100379 0)
(-0.067081 0.00620015 0)
(-0.0674504 0.00233806 0)
(-0.0675132 -0.0015384 0)
(-0.0672683 -0.00541943 0)
(-0.0667136 -0.00929479 0)
(-0.0658469 -0.0131532 0)
(-0.0646655 -0.0169819 0)
(-0.0631667 -0.0207657 0)
(-0.0613482 -0.0244862 0)
(-0.0592085 -0.0281209 0)
(-0.0567477 -0.0316418 0)
(-0.0539686 -0.0350136 0)
(-0.0508773 -0.0381925 0)
(-0.0474846 -0.0411235 0)
(-0.0438079 -0.0437381 0)
(-0.0398724 -0.0459529 0)
(-0.0357134 -0.0476667 0)
(-0.031378 -0.0487604 0)
(-0.0269273 -0.049097 0)
(-0.0224384 -0.048524 0)
(-0.0180053 -0.0468781 0)
(-0.0137403 -0.0439926 0)
(-0.00977422 -0.0397071 0)
(-0.0062521 -0.03388 0)
(-0.00332518 -0.026401 0)
(-0.00119412 -0.0172036 0)
(-0.000179314 -0.00628333 0)
(-0.000191595 0.00688481 0)
(-0.00127037 0.0187948 0)
(-0.0035292 0.0287773 0)
(-0.0066229 0.0368535 0)
(-0.0103353 0.0431114 0)
(-0.0145043 0.0476856 0)
(-0.0189766 0.0507425 0)
(-0.0236151 0.0524662 0)
(-0.0283037 0.0530449 0)
(-0.0329463 0.0526602 0)
(-0.0374655 0.0514794 0)
(-0.0418006 0.0496508 0)
(-0.0459057 0.0473016 0)
(-0.049747 0.0445381 0)
(-0.0533006 0.0414473 0)
(-0.0565505 0.0380989 0)
(-0.059487 0.0345483 0)
(-0.0621046 0.030839 0)
(-0.0644011 0.027005 0)
(-0.0663763 0.0230734 0)
(-0.0680314 0.0190651 0)
(-0.0693679 0.014997 0)
(-0.0703875 0.010883 0)
(-0.0710914 0.00673441 0)
(-0.07148 0.00256132 0)
(-0.071553 -0.00162711 0)
(-0.0713089 -0.00582182 0)
(-0.0707454 -0.0100133 0)
(-0.0698592 -0.0141909 0)
(-0.0686463 -0.0183421 0)
(-0.0671023 -0.0224517 0)
(-0.065223 -0.0265009 0)
(-0.0630046 -0.0304659 0)
(-0.0604452 -0.0343167 0)
(-0.0575449 -0.0380151 0)
(-0.0543079 -0.0415127 0)
(-0.0507433 -0.0447489 0)
(-0.0468672 -0.0476478 0)
(-0.0427047 -0.0501163 0)
(-0.0382919 -0.0520418 0)
(-0.0336784 -0.0532914 0)
(-0.0289293 -0.0537125 0)
(-0.0241277 -0.0531351 0)
(-0.0193755 -0.0513774 0)
(-0.0147953 -0.0482538 0)
(-0.01053 -0.0435857 0)
(-0.00673784 -0.0372153 0)
(-0.00358415 -0.0290191 0)
(-0.00128705 -0.0189217 0)
(-0.000193177 -0.006916 0)
(-0.000206814 0.00755888 0)
(-0.00137144 0.0206193 0)
(-0.00380936 0.0315495 0)
(-0.00714601 0.0403749 0)
(-0.0111456 0.0471949 0)
(-0.015631 0.05216 0)
(-0.0204342 0.0554555 0)
(-0.0254056 0.0572863 0)
(-0.0304188 0.0578618 0)
(-0.03537 0.057384 0)
(-0.040176 0.0560388 0)
(-0.0447725 0.053991 0)
(-0.0491118 0.0513822 0)
(-0.0531594 0.0483302 0)
(-0.0568924 0.0449314 0)
(-0.0602961 0.0412628 0)
(-0.0633629 0.0373853 0)
(-0.0660895 0.0333463 0)
(-0.0684763 0.0291826 0)
(-0.0705255 0.0249227 0)
(-0.0722404 0.0205884 0)
(-0.0736247 0.0161969 0)
(-0.0746815 0.0117614 0)
(-0.0754134 0.00729267 0)
(-0.0758217 0.00279973 0)
(-0.0759062 -0.0017094 0)
(-0.0756655 -0.00622689 0)
(-0.0750966 -0.0107444 0)
(-0.074195 -0.0152523 0)
(-0.0729552 -0.0197387 0)
(-0.0713709 -0.024189 0)
(-0.0694353 -0.0285839 0)
(-0.0671422 -0.0328987 0)
(-0.0644865 -0.0371015 0)
(-0.0614657 -0.0411509 0)
(-0.0580808 -0.0449942 0)
(-0.0543388 -0.0485642 0)
(-0.050254 -0.0517769 0)
(-0.0458506 -0.0545284 0)
(-0.0411653 -0.0566933 0)
(-0.03625 -0.0581234 0)
(-0.031174 -0.0586482 0)
(-0.026027 -0.0580783 0)
(-0.0209201 -0.0562111 0)
(-0.0159873 -0.0528398 0)
(-0.0113854 -0.0477658 0)
(-0.00728848 -0.0408135 0)
(-0.00387804 -0.0318454 0)
(-0.00139258 -0.020777 0)
(-0.000208918 -0.00759907 0)
(-0.000224082 0.00828779 0)
(-0.0014861 0.022592 0)
(-0.00412689 0.0345452 0)
(-0.00773811 0.0441767 0)
(-0.0120612 0.0515977 0)
(-0.0169011 0.0569758 0)
(-0.0220731 0.0605177 0)
(-0.0274132 0.0624514 0)
(-0.0327833 0.0630098 0)
(-0.0380705 0.0624177 0)
(-0.0431859 0.0608823 0)
(-0.0480613 0.0585868 0)