/*--------------------------------*- C++ -*----------------------------------*\
  =========                 |
  \\      /  F ield         | OpenFOAM: The Open Source CFD Toolbox
   \\    /   O peration     | Website:  https://openfoam.org
    \\  /    A nd           | Version:  7
     \\/     M anipulation  |
\*---------------------------------------------------------------------------*/
FoamFile
{
    version     2.0;
    format      ascii;
    class       volScalarField;
    location    "0.0292";
    object      p;
}
// * * * * * * * * * * * * * * * * * * * * * * * * * * * * * * * * * * * * * //

dimensions      [0 2 -2 0 0 0 0];

internalField   nonuniform List<scalar> 
2500
(
3.10267e-05
6.38506
9.04944
10.1448
10.7372
11.0867
11.3012
11.4423
11.5415
11.6148
11.6712
11.7161
11.7531
11.7845
11.8121
11.837
11.8601
11.882
11.9031
11.9238
11.9444
11.965
11.9858
12.0069
12.0284
12.0505
12.0732
12.0967
12.121
12.1465
12.1733
12.2017
12.2321
12.2649
12.3008
12.3406
12.3851
12.436
12.4949
12.5645
12.6486
12.7531
12.8872
13.0675
13.326
13.7267
14.3863
15.5766
18.3571
24.8662
4.86821
7.46783
8.88537
9.76877
10.3725
10.7791
11.0546
11.2473
11.3867
11.4909
11.5709
11.6343
11.6859
11.7291
11.7662
11.7989
11.8285
11.8558
11.8816
11.9063
11.9304
11.954
11.9776
12.0013
12.0252
12.0496
12.0747
12.1006
12.1276
12.1559
12.1859
12.2179
12.2525
12.2903
12.332
12.3789
12.4321
12.4937
12.566
12.6528
12.7591
12.8926
13.065
13.2947
13.6122
14.068
14.7315
15.6876
17.1909
19.9079
7.7041
8.46766
9.21074
9.8342
10.3209
10.6834
10.9507
11.1497
11.3
11.4156
11.5064
11.5793
11.6391
11.6893
11.7325
11.7704
11.8044
11.8356
11.8647
11.8923
11.919
11.945
11.9706
11.9963
12.0221
12.0483
12.0751
12.1029
12.1318
12.1622
12.1945
12.229
12.2665
12.3076
12.3533
12.4046
12.4631
12.5309
12.6105
12.7058
12.8216
12.9652
13.1468
13.3806
13.6869
14.0936
14.6304
15.3081
16.1057
16.934
9.11309
9.2902
9.66958
10.0708
10.421
10.707
10.9356
11.1166
11.2601
11.3747
11.4674
11.5434
11.6068
11.6607
11.7073
11.7484
11.7854
11.8193
11.8508
11.8806
11.9093
11.9371
11.9644
11.9916
12.0189
12.0466
12.0749
12.1041
12.1345
12.1665
12.2004
12.2368
12.2763
12.3196
12.3676
12.4215
12.4828
12.5534
12.6358
12.7332
12.8497
12.9909
13.1638
13.3771
13.641
13.9654
14.3555
14.7973
15.2122
15.42
9.92461
9.90433
10.0807
10.3248
10.5646
10.7799
10.965
11.1204
11.2495
11.3566
11.4459
11.521
11.5849
11.6401
11.6884
11.7314
11.7702
11.8059
11.8392
11.8707
11.9009
11.9301
11.9589
11.9874
12.0159
12.0448
12.0743
12.1047
12.1363
12.1695
12.2047
12.2424
12.2832
12.3278
12.3772
12.4324
12.4948
12.566
12.6481
12.7437
12.8558
12.9881
13.1447
13.3298
13.5464
13.7942
14.0662
14.3395
14.5384
14.5305
10.4351
10.3502
10.4195
10.562
10.7216
10.8783
11.0228
11.1508
11.2621
11.358
11.4405
11.5117
11.5736
11.628
11.6763
11.7198
11.7595
11.7961
11.8304
11.863
11.8942
11.9246
11.9543
11.9838
12.0133
12.0431
12.0735
12.1048
12.1373
12.1713
12.2074
12.2459
12.2874
12.3327
12.3825
12.4378
12.4998
12.5697
12.6492
12.7401
12.8444
12.9642
13.1013
13.2566
13.4289
13.6131
13.7981
13.9616
14.0443
13.961
10.775
10.6775
10.6935
10.7728
10.8761
10.9871
11.0966
11.1989
11.2919
11.3749
11.4486
11.5139
11.572
11.6241
11.671
11.7139
11.7534
11.7902
11.8248
11.8579
11.8897
11.9207
11.9511
11.9812
12.0114
12.0419
12.0729
12.1048
12.1378
12.1724
12.2089
12.2477
12.2894
12.3346
12.384
12.4384
12.4987
12.566
12.6412
12.7257
12.8204
12.9261
13.0431
13.1703
13.3043
13.4383
13.5615
13.6558
13.6789
13.5775
11.0159
10.9239
10.9139
10.9545
11.0191
11.096
11.1771
11.257
11.3327
11.4028
11.467
11.5255
11.5787
11.6273
11.6719
11.7132
11.7517
11.788
11.8224
11.8554
11.8874
11.9186
11.9493
11.9798
12.0103
12.0412
12.0726
12.1048
12.1381
12.1728
12.2094
12.2482
12.2896
12.3342
12.3826
12.4353
12.4931
12.5567
12.6267
12.7038
12.7882
12.8799
12.9779
13.0803
13.1829
13.2789
13.359
13.4102
13.4034
13.3045
11.1965
11.1142
11.0919
11.109
11.1475
11.1993
11.2582
11.3195
11.38
11.4381
11.4929
11.5442
11.592
11.6365
11.6781
11.7172
11.7542
11.7893
11.823
11.8556
11.8873
11.9184
11.9491
11.9796
12.0103
12.0412
12.0727
12.105
12.1383
12.173
12.2093
12.2477
12.2885
12.332
12.3789
12.4294
12.4842
12.5435
12.6078
12.6772
12.7515
12.8299
12.9111
12.9925
13.0701
13.1378
13.1884
13.2127
13.1909
13.1004
11.338
11.2651
11.2372
11.24
11.2611
11.2948
11.3367
11.3827
11.4304
11.4777
11.5238
11.5681
11.6103
11.6505
11.6887
11.7252
11.7602
11.7938
11.8264
11.8582
11.8893
11.9199
11.9504
11.9807
12.0112
12.0421
12.0735
12.1056
12.1387
12.1731
12.2089
12.2466
12.2864
12.3286
12.3736
12.4216
12.473
12.5279
12.5864
12.6482
12.7129
12.7794
12.846
12.9101
12.9681
13.015
13.0452
13.0528
13.0237
12.9422
11.4521
11.3873
11.3572
11.3514
11.3606
11.3814
11.4104
11.4444
11.4813
11.5194
11.5577
11.5955
11.6323
11.6681
11.7028
11.7365
11.7692
11.8011
11.8322
11.8629
11.8931
11.9232
11.9531
11.983
12.0132
12.0437
12.0748
12.1066
12.1393
12.1732
12.2084
12.2452
12.2838
12.3244
12.3673
12.4127
12.4605
12.5109
12.5637
12.6184
12.6744
12.7303
12.7845
12.8346
12.8774
12.9089
12.9252
12.9222
12.8898
12.8164
11.5464
11.4881
11.4575
11.4464
11.4477
11.4592
11.4784
11.503
11.5312
11.5615
11.5929
11.6247
11.6566
11.6882
11.7194
11.7502
11.7805
11.8105
11.8401
11.8694
11.8987
11.9278
11.957
11.9864
12.0161
12.0461
12.0768
12.1081
12.1403
12.1735
12.2078
12.2436
12.2808
12.3198
12.3605
12.4031
12.4474
12.4935
12.5409
12.589
12.6371
12.6839
12.7278
12.7666
12.7976
12.8178
12.8243
12.8147
12.7812
12.7146
11.6255
11.5724
11.5422
11.5278
11.5237
11.5285
11.5404
11.5577
11.5788
11.6025
11.6281
11.6547
11.6821
11.7098
11.7377
11.7656
11.7936
11.8215
11.8494
11.8774
11.9055
11.9337
11.962
11.9907
12.0197
12.0492
12.0793
12.11
12.1415
12.1739
12.2074
12.242
12.2778
12.315
12.3535
12.3933
12.4343
12.4762
12.5186
12.5608
12.602
12.641
12.6763
12.7059
12.7279
12.7397
12.7395
12.7256
12.692
12.6313
11.6926
11.6437
11.614
11.5977
11.59
11.5899
11.5964
11.608
11.6234
11.6418
11.6624
11.6845
11.7078
11.732
11.7568
11.782
11.8077
11.8336
11.8599
11.8864
11.9132
11.9404
11.9678
11.9957
12.024
12.0528
12.0822
12.1122
12.143
12.1746
12.207
12.2404
12.2748
12.3102
12.3465
12.3837
12.4214
12.4595
12.4973
12.5343
12.5695
12.6019
12.6301
12.6525
12.6674
12.673
12.668
12.6514
12.6184
12.5625
11.7498
11.7042
11.6754
11.6578
11.6476
11.6441
11.6465
11.6536
11.6646
11.6786
11.695
11.7133
11.7331
11.7541
11.7761
11.7988
11.8223
11.8463
11.8709
11.896
11.9216
11.9476
11.9742
12.0012
12.0287
12.0568
12.0854
12.1147
12.1447
12.1754
12.2068
12.239
12.2719
12.3056
12.3398
12.3744
12.4092
12.4437
12.4775
12.5098
12.5399
12.5667
12.589
12.6056
12.6151
12.616
12.6077
12.5894
12.5573
12.5055
11.7987
11.7559
11.7278
11.7096
11.6977
11.6917
11.6909
11.6947
11.7021
11.7125
11.7255
11.7405
11.7573
11.7755
11.795
11.8155
11.8369
11.8592
11.8822
11.9059
11.9302
11.9552
11.9807
12.0069
12.0336
12.0609
12.0888
12.1174
12.1465
12.1763
12.2067
12.2377
12.2692
12.3012
12.3334
12.3657
12.3978
12.4291
12.4593
12.4876
12.5133
12.5354
12.5529
12.5649
12.5701
12.5676
12.5568
12.5376
12.5065
12.4582
11.8406
11.8
11.7726
11.754
11.7409
11.7331
11.7301
11.7311
11.7357
11.7433
11.7535
11.7658
11.78
11.7958
11.813
11.8315
11.8511
11.8717
11.8933
11.9157
11.9388
11.9628
11.9874
12.0126
12.0386
12.0651
12.0923
12.12
12.1484
12.1773
12.2067
12.2365
12.2667
12.2971
12.3275
12.3577
12.3873
12.4158
12.4428
12.4677
12.4896
12.5078
12.5215
12.5297
12.5317
12.5266
12.5142
12.4944
12.4642
12.419
11.8762
11.8374
11.8107
11.7919
11.778
11.7689
11.7641
11.7631
11.7655
11.7708
11.7787
11.7887
11.8007
11.8145
11.8298
11.8465
11.8645
11.8837
11.9039
11.925
11.9471
11.9701
11.9938
12.0182
12.0434
12.0692
12.0956
12.1227
12.1502
12.1783
12.2067
12.2355
12.2645
12.2934
12.3222
12.3504
12.3778
12.4039
12.4282
12.4501
12.4689
12.4839
12.4944
12.4997
12.4991
12.4921
12.4785
12.4584
12.4292
12.3865
11.9062
11.8688
11.8428
11.824
11.8095
11.7994
11.7933
11.7908
11.7914
11.7949
11.8009
11.8091
11.8193
11.8314
11.845
11.8602
11.8768
11.8947
11.9137
11.9338
11.9549
11.9769
11.9998
12.0235
12.0479
12.073
12.0988
12.1251
12.152
12.1792
12.2068
12.2346
12.2625
12.2901
12.3174
12.344
12.3694
12.3934
12.4154
12.4348
12.451
12.4634
12.4714
12.4744
12.4718
12.4633
12.4489
12.4288
12.4005
12.3599
11.9311
11.895
11.8695
11.8506
11.8358
11.825
11.8179
11.8142
11.8135
11.8155
11.82
11.8268
11.8355
11.8461
11.8585
11.8724
11.8877
11.9045
11.9224
11.9416
11.9618
11.9831
12.0052
12.0282
12.052
12.0765
12.1017
12.1274
12.1536
12.1801
12.2069
12.2339
12.2607
12.2873
12.3132
12.3384
12.3622
12.3844
12.4044
12.4218
12.4359
12.4462
12.4522
12.4533
12.4493
12.4397
12.4247
12.4046
12.3771
12.3384
11.9514
11.9162
11.8911
11.8723
11.8573
11.8459
11.8381
11.8335
11.8318
11.8327
11.8361
11.8416
11.8492
11.8587
11.8699
11.8827
11.8971
11.9129
11.93
11.9484
11.9679
11.9884
12.0099
12.0323
12.0556
12.0795
12.1042
12.1293
12.1549
12.1809
12.207
12.2332
12.2592
12.2848
12.3097
12.3337
12.3562
12.3769
12.3954
12.4111
12.4235
12.4321
12.4365
12.4363
12.4311
12.4207
12.4054
12.3853
12.3585
12.3213
11.9673
11.9328
11.9081
11.8893
11.8741
11.8624
11.8541
11.8488
11.8464
11.8465
11.8489
11.8536
11.8602
11.8688
11.8792
11.8912
11.9048
11.9198
11.9363
11.954
11.9728
11.9928
12.0138
12.0358
12.0585
12.082
12.1062
12.1309
12.1561
12.1815
12.2071
12.2327
12.258
12.2829
12.3069
12.3299
12.3513
12.3709
12.3881
12.4025
12.4137
12.421
12.4242
12.423
12.4169
12.406
12.3904
12.3705
12.3442
12.3081
11.979
11.9451
11.9206
11.9019
11.8866
11.8747
11.866
11.8602
11.8572
11.8567
11.8586
11.8626
11.8686
11.8765
11.8862
11.8976
11.9106
11.9251
11.941
11.9582
11.9767
11.9962
12.0168
12.0384
12.0608
12.084
12.1078
12.1322
12.157
12.182
12.2072
12.2323
12.2571
12.2814
12.3048
12.327
12.3477
12.3664
12.3827
12.3962
12.4063
12.4128
12.4152
12.4131
12.4065
12.3952
12.3794
12.3596
12.3338
12.2986
11.9867
11.9531
11.9288
11.9102
11.8948
11.8827
11.8738
11.8678
11.8645
11.8636
11.865
11.8686
11.8742
11.8817
11.8909
11.9019
11.9146
11.9287
11.9442
11.9611
11.9792
11.9985
12.0189
12.0402
12.0623
12.0853
12.1089
12.133
12.1575
12.1823
12.2072
12.232
12.2565
12.2804
12.3033
12.3251
12.3452
12.3634
12.3791
12.392
12.4015
12.4074
12.4092
12.4067
12.3997
12.3881
12.3723
12.3525
12.3269
12.2923
11.9906
11.9572
11.9329
11.9143
11.8989
11.8868
11.8777
11.8716
11.8681
11.867
11.8682
11.8716
11.877
11.8842
11.8933
11.9041
11.9165
11.9305
11.9459
11.9626
11.9805
11.9997
12.0199
12.0411
12.0631
12.0859
12.1094
12.1334
12.1578
12.1825
12.2073
12.2319
12.2562
12.2799
12.3026
12.3241
12.344
12.3619
12.3773
12.3899
12.3991
12.4047
12.4062
12.4035
12.3963
12.3846
12.3687
12.349
12.3236
12.2893
11.9906
11.9572
11.933
11.9143
11.8989
11.8868
11.8777
11.8716
11.8681
11.867
11.8682
11.8716
11.877
11.8842
11.8933
11.9041
11.9165
11.9305
11.9459
11.9626
11.9805
11.9997
12.0199
12.0411
12.0631
12.0859
12.1094
12.1334
12.1578
12.1825
12.2073
12.2319
12.2562
12.2799
12.3026
12.3241
12.344
12.3619
12.3773
12.3899
12.3991
12.4047
12.4062
12.4035
12.3963
12.3846
12.3687
12.349
12.3236
12.2893
11.9867
11.9531
11.9288
11.9102
11.8948
11.8828
11.8738
11.8678
11.8645
11.8636
11.865
11.8686
11.8742
11.8817
11.891
11.9019
11.9146
11.9287
11.9442
11.9611
11.9792
11.9985
12.0189
12.0402
12.0623
12.0853
12.1089
12.133
12.1575
12.1823
12.2072
12.232
12.2565
12.2804
12.3033
12.3251
12.3452
12.3634
12.3791
12.392
12.4015
12.4074
12.4092
12.4067
12.3997
12.3881
12.3723
12.3525
12.3269
12.2923
11.979
11.9451
11.9206
11.9019
11.8866
11.8747
11.866
11.8602
11.8572
11.8567
11.8586
11.8626
11.8686
11.8765
11.8862
11.8976
11.9106
11.9251
11.941
11.9582
11.9767
11.9962
12.0168
12.0384
12.0608
12.084
12.1078
12.1322
12.157
12.182
12.2072
12.2323
12.2571
12.2814
12.3048
12.327
12.3477
12.3664
12.3827
12.3962
12.4063
12.4128
12.4152
12.4131
12.4065
12.3952
12.3794
12.3596
12.3338
12.2986
11.9673
11.9328
11.9081
11.8893
11.8741
11.8624
11.8541
11.8488
11.8464
11.8465
11.8489
11.8536
11.8602
11.8688
11.8792
11.8912
11.9048
11.9198
11.9363
11.954
11.9728
11.9928
12.0138
12.0358
12.0585
12.082
12.1062
12.1309
12.1561
12.1815
12.2071
12.2327
12.258
12.2829
12.3069
12.3299
12.3513
12.3709
12.3881
12.4025
12.4137
12.421
12.4242
12.423
12.4169
12.406
12.3904
12.3705
12.3442
12.3081
11.9514
11.9162
11.8911
11.8723
11.8573
11.8459
11.8381
11.8335
11.8318
11.8327
11.8361
11.8416
11.8492
11.8587
11.8699
11.8827
11.8971
11.9129
11.93
11.9484
11.9679
11.9884
12.0099
12.0324
12.0556
12.0795
12.1042
12.1293
12.1549
12.1809
12.207
12.2332
12.2592
12.2848
12.3097
12.3337
12.3562
12.3769
12.3954
12.4111
12.4235
12.4321
12.4365
12.4363
12.4311
12.4207
12.4054
12.3853
12.3585
12.3213
11.9311
11.895
11.8695
11.8506
11.8358
11.825
11.8179
11.8142
11.8135
11.8156
11.8201
11.8268
11.8355
11.8461
11.8585
11.8724
11.8877
11.9045
11.9225
11.9416
11.9618
11.9831
12.0052
12.0282
12.052
12.0765
12.1017
12.1274
12.1536
12.1801
12.2069
12.2339
12.2607
12.2873
12.3133
12.3384
12.3622
12.3844
12.4045
12.4218
12.4359
12.4462
12.4522
12.4533
12.4493
12.4397
12.4247
12.4046
12.3771
12.3384
11.9062
11.8688
11.8428
11.824
11.8095
11.7994
11.7933
11.7908
11.7914
11.7949
11.8009
11.8091
11.8193
11.8314
11.8451
11.8602
11.8768
11.8947
11.9137
11.9338
11.9549
11.9769
11.9998
12.0235
12.0479
12.073
12.0988
12.1251
12.152
12.1792
12.2068
12.2346
12.2625
12.2901
12.3174
12.344
12.3694
12.3934
12.4154
12.4348
12.451
12.4634
12.4714
12.4744
12.4718
12.4633
12.4489
12.4288
12.4005
12.3599
11.8762
11.8374
11.8107
11.792
11.7781
11.7689
11.7641
11.7631
11.7655
11.7708
11.7787
11.7887
11.8007
11.8145
11.8298
11.8465
11.8645
11.8837
11.9039
11.9251
11.9471
11.9701
11.9938
12.0182
12.0434
12.0692
12.0956
12.1227
12.1502
12.1783
12.2067
12.2355
12.2645
12.2934
12.3222
12.3504
12.3778
12.4039
12.4282
12.4501
12.4689
12.4839
12.4944
12.4997
12.4991
12.4921
12.4785
12.4584
12.4292
12.3865
11.8406
11.8
11.7727
11.7541
11.741
11.7331
11.7301
11.7311
11.7357
11.7433
11.7535
11.7658
11.78
11.7958
11.813
11.8315
11.8511
11.8717
11.8933
11.9157
11.9388
11.9628
11.9874
12.0126
12.0386
12.0651
12.0923
12.12
12.1484
12.1773
12.2067
12.2365
12.2667
12.2971
12.3275
12.3577
12.3873
12.4158
12.4428
12.4677
12.4896
12.5078
12.5215
12.5297
12.5317
12.5266
12.5142
12.4944
12.4642
12.419
11.7988
11.7559
11.7279
11.7096
11.6977
11.6917
11.691
11.6947
11.7021
11.7125
11.7255
11.7406
11.7573
11.7755
11.795
11.8155
11.8369
11.8592
11.8822
11.9059
11.9302
11.9552
11.9808
12.0069
12.0336
12.0609
12.0888
12.1174
12.1465
12.1763
12.2067
12.2377
12.2692
12.3012
12.3334
12.3657
12.3978
12.4291
12.4593
12.4876
12.5133
12.5354
12.5529
12.5649
12.5701
12.5676
12.5568
12.5376
12.5065
12.4582
11.7498
11.7043
11.6754
11.6579
11.6477
11.6442
11.6465
11.6536
11.6646
11.6786
11.695
11.7133
11.7331
11.7541
11.7761
11.7988
11.8223
11.8464
11.8709
11.896
11.9216
11.9476
11.9742
12.0012
12.0287
12.0568
12.0854
12.1147
12.1447
12.1754
12.2068
12.239
12.2719
12.3056
12.3398
12.3744
12.4092
12.4437
12.4775
12.5098
12.5399
12.5667
12.589
12.6056
12.6151
12.616
12.6077
12.5894
12.5573
12.5055
11.6926
11.6437
11.6141
11.5977
11.59
11.59
11.5964
11.608
11.6234
11.6418
11.6624
11.6845
11.7078
11.732
11.7568
11.782
11.8077
11.8336
11.8599
11.8864
11.9132
11.9404
11.9678
11.9957
12.024
12.0528
12.0822
12.1122
12.143
12.1746
12.207
12.2404
12.2748
12.3102
12.3465
12.3837
12.4214
12.4595
12.4973
12.5343
12.5695
12.6019
12.6301
12.6525
12.6674
12.673
12.668
12.6514
12.6184
12.5625
11.6255
11.5725
11.5422
11.5278
11.5237
11.5285
11.5404
11.5577
11.5788
11.6026
11.6281
11.6547
11.6821
11.7098
11.7377
11.7656
11.7936
11.8215
11.8495
11.8774
11.9055
11.9337
11.962
11.9907
12.0197
12.0492
12.0793
12.11
12.1415
12.1739
12.2074
12.242
12.2778
12.315
12.3535
12.3933
12.4343
12.4762
12.5186
12.5608
12.602
12.641
12.6763
12.706
12.7279
12.7397
12.7395
12.7256
12.6921
12.6313
11.5464
11.4881
11.4576
11.4464
11.4477
11.4592
11.4784
11.503
11.5312
11.5615
11.5929
11.6247
11.6566
11.6882
11.7194
11.7502
11.7805
11.8105
11.8401
11.8695
11.8987
11.9278
11.957
11.9864
12.0161
12.0462
12.0768
12.1081
12.1403
12.1735
12.2078
12.2436
12.2809
12.3198
12.3605
12.4031
12.4474
12.4935
12.5409
12.589
12.6371
12.6839
12.7278
12.7666
12.7976
12.8178
12.8243
12.8147
12.7812
12.7146
11.4522
11.3873
11.3572
11.3514
11.3607
11.3814
11.4104
11.4444
11.4813
11.5195
11.5577
11.5955
11.6323
11.6681
11.7028
11.7365
11.7692
11.8011
11.8323
11.8629
11.8932
11.9232
11.9531
11.983
12.0132
12.0437
12.0748
12.1066
12.1393
12.1732
12.2084
12.2452
12.2838
12.3244
12.3673
12.4127
12.4605
12.511
12.5637
12.6184
12.6744
12.7303
12.7845
12.8346
12.8774
12.9089
12.9252
12.9222
12.8898
12.8164
11.338
11.2651
11.2372
11.2401
11.2611
11.2948
11.3367
11.3828
11.4304
11.4778
11.5239
11.5681
11.6104
11.6505
11.6888
11.7252
11.7602
11.7938
11.8264
11.8582
11.8893
11.9199
11.9504
11.9807
12.0112
12.0421
12.0735
12.1056
12.1387
12.1731
12.209
12.2466
12.2864
12.3286
12.3736
12.4216
12.473
12.5279
12.5864
12.6482
12.7129
12.7794
12.846
12.9101
12.9681
13.015
13.0452
13.0528
13.0237
12.9422
11.1966
11.1142
11.0919
11.109
11.1476
11.1994
11.2583
11.3195
11.38
11.4381
11.493
11.5442
11.592
11.6365
11.6781
11.7172
11.7542
11.7893
11.823
11.8556
11.8873
11.9184
11.9491
11.9796
12.0103
12.0412
12.0727
12.105
12.1383
12.173
12.2094
12.2477
12.2885
12.332
12.3789
12.4294
12.4842
12.5435
12.6078
12.6772
12.7515
12.8299
12.9111
12.9925
13.0701
13.1378
13.1884
13.2127
13.1909
13.1004
11.0159
10.9239
10.9139
10.9546
11.0191
11.096
11.1771
11.257
11.3327
11.4029
11.4671
11.5255
11.5787
11.6273
11.6719
11.7132
11.7517
11.788
11.8224
11.8554
11.8874
11.9186
11.9493
11.9798
12.0104
12.0412
12.0726
12.1048
12.1381
12.1729
12.2094
12.2482
12.2896
12.3342
12.3826
12.4353
12.4931
12.5567
12.6267
12.7038
12.7882
12.8799
12.9779
13.0803
13.1829
13.2789
13.359
13.4102
13.4034
13.3045
10.775
10.6776
10.6936
10.7729
10.8761
10.9871
11.0966
11.199
11.2919
11.3749
11.4486
11.5139
11.5721
11.6241
11.6711
11.7139
11.7534
11.7902
11.8249
11.8579
11.8897
11.9207
11.9511
11.9812
12.0114
12.0419
12.0729
12.1048
12.1378
12.1724
12.2089
12.2477
12.2894
12.3346
12.3841
12.4384
12.4987
12.566
12.6412
12.7257
12.8204
12.9261
13.0431
13.1703
13.3043
13.4383
13.5615
13.6558
13.679
13.5775
10.4351
10.3502
10.4196
10.562
10.7216
10.8783
11.0228
11.1509
11.2622
11.358
11.4405
11.5117
11.5736
11.628
11.6764
11.7198
11.7595
11.7961
11.8305
11.863
11.8943
11.9246
11.9543
11.9838
12.0133
12.0431
12.0735
12.1048
12.1373
12.1714
12.2074
12.2459
12.2875
12.3327
12.3825
12.4378
12.4998
12.5697
12.6492
12.7401
12.8444
12.9642
13.1013
13.2566
13.4289
13.6131
13.7981
13.9616
14.0443
13.961
9.92465
9.90438
10.0807
10.3248
10.5647
10.7799
10.965
11.1205
11.2495
11.3566
11.4459
11.521
11.585
11.6401
11.6884
11.7314
11.7703
11.806
11.8392
11.8707
11.9009
11.9301
11.9589
11.9874
12.0159
12.0448
12.0743
12.1047
12.1363
12.1695
12.2047
12.2424
12.2832
12.3279
12.3772
12.4324
12.4948
12.566
12.6481
12.7437
12.8558
12.9881
13.1447
13.3298
13.5464
13.7942
14.0662
14.3395
14.5384
14.5305
9.11314
9.29024
9.66962
10.0709
10.421
10.707
10.9356
11.1166
11.2601
11.3747
11.4674
11.5434
11.6068
11.6607
11.7073
11.7485
11.7855
11.8193
11.8508
11.8807
11.9093
11.9371
11.9644
11.9916
12.0189
12.0466
12.0749
12.1041
12.1345
12.1665
12.2004
12.2368
12.2763
12.3196
12.3676
12.4215
12.4828
12.5535
12.6358
12.7332
12.8497
12.9909
13.1638
13.3771
13.641
13.9654
14.3555
14.7973
15.2122
15.4201
7.70416
8.46771
9.21078
9.83424
10.321
10.6835
10.9508
11.1497
11.3
11.4156
11.5065
11.5793
11.6391
11.6894
11.7325
11.7704
11.8044
11.8356
11.8647
11.8924
11.919
11.945
11.9707
11.9963
12.0221
12.0483
12.0752
12.1029
12.1318
12.1622
12.1945
12.2291
12.2665
12.3077
12.3533
12.4046
12.4632
12.5309
12.6106
12.7058
12.8216
12.9653
13.1468
13.3806
13.6869
14.0936
14.6304
15.3082
16.1057
16.934
4.86828
7.46788
8.88542
9.76882
10.3725
10.7792
11.0546
11.2473
11.3868
11.4909
11.571
11.6343
11.6859
11.7291
11.7662
11.7989
11.8285
11.8559
11.8816
11.9063
11.9304
11.954
11.9776
12.0013
12.0252
12.0496
12.0747
12.1006
12.1276
12.1559
12.1859
12.2179
12.2525
12.2903
12.332
12.3789
12.4321
12.4937
12.566
12.6528
12.7591
12.8926
13.065
13.2947
13.6122
14.068
14.7315
15.6876
17.1909
19.9079
0.000127405
6.38513
9.0495
10.1448
10.7372
11.0868
11.3013
11.4424
11.5416
11.6148
11.6712
11.7161
11.7531
11.7845
11.8121
11.8371
11.8601
11.882
11.9031
11.9239
11.9444
11.965
11.9858
12.0069
12.0285
12.0505
12.0732
12.0967
12.121
12.1465
12.1733
12.2017
12.2321
12.2649
12.3008
12.3406
12.3852
12.436
12.4949
12.5645
12.6487
12.7531
12.8872
13.0675
13.326
13.7267
14.3863
15.5766
18.3572
24.8662
)
;

boundaryField
{
    movingWallTop
    {
        type            zeroGradient;
    }
    movingWallBottom
    {
        type            zeroGradient;
    }
    fixedWalls
    {
        type            zeroGradient;
    }
    frontAndBack
    {
        type            empty;
    }
}


// ************************************************************************* //
