/*--------------------------------*- C++ -*----------------------------------*\
  =========                 |
  \\      /  F ield         | OpenFOAM: The Open Source CFD Toolbox
   \\    /   O peration     | Website:  https://openfoam.org
    \\  /    A nd           | Version:  7
     \\/     M anipulation  |
\*---------------------------------------------------------------------------*/
FoamFile
{
    version     2.0;
    format      ascii;
    class       volScalarField;
    location    "0.0266";
    object      p;
}
// * * * * * * * * * * * * * * * * * * * * * * * * * * * * * * * * * * * * * //

dimensions      [0 2 -2 0 0 0 0];

internalField   nonuniform List<scalar> 
2500
(
3.04075e-05
6.38497
9.0491
10.1441
10.7361
11.0853
11.2995
11.4404
11.5395
11.6128
11.6693
11.7145
11.7518
11.7837
11.8118
11.8372
11.8609
11.8834
11.9052
11.9267
11.9479
11.9692
11.9907
12.0125
12.0347
12.0574
12.0807
12.1047
12.1296
12.1555
12.1827
12.2114
12.2421
12.2751
12.3112
12.351
12.3956
12.4464
12.5052
12.5747
12.6586
12.7628
12.8967
13.0766
13.3348
13.7352
14.3945
15.5845
18.3648
24.8737
4.86827
7.46781
8.88515
9.76828
10.3717
10.7781
11.0533
11.2459
11.3853
11.4895
11.5697
11.6333
11.6852
11.7288
11.7664
11.7997
11.8298
11.8577
11.8841
11.9095
11.9342
11.9585
11.9827
12.007
12.0315
12.0565
12.0821
12.1085
12.1359
12.1646
12.1949
12.2272
12.2621
12.3
12.3419
12.3888
12.4421
12.5035
12.5758
12.6624
12.7685
12.9018
13.0739
13.3034
13.6207
14.0761
14.7394
15.6953
17.1984
19.9153
7.70441
8.46785
9.21072
9.8339
10.3204
10.6827
10.9498
11.1487
11.299
11.4147
11.5057
11.5788
11.6389
11.6896
11.7331
11.7716
11.8061
11.8379
11.8676
11.8958
11.923
11.9496
11.9759
12.0021
12.0284
12.0552
12.0825
12.1107
12.14
12.1707
12.2033
12.2381
12.2758
12.3171
12.3628
12.4142
12.4727
12.5404
12.6199
12.715
12.8306
12.9741
13.1554
13.3889
13.6951
14.1015
14.6381
15.3157
16.113
16.9411
9.11376
9.29069
9.66981
10.0706
10.421
10.7066
10.935
11.116
11.2595
11.3742
11.467
11.5433
11.607
11.6613
11.7083
11.75
11.7875
11.8219
11.854
11.8843
11.9135
11.9419
11.9698
11.9976
12.0254
12.0535
12.0822
12.1118
12.1426
12.1749
12.2091
12.2457
12.2853
12.3287
12.3768
12.4308
12.4921
12.5626
12.6449
12.7421
12.8584
12.9994
13.1721
13.3852
13.6489
13.9731
14.3631
14.8047
15.2194
15.4269
9.92571
9.90517
10.0813
10.325
10.5648
10.7798
10.9648
11.1201
11.2492
11.3564
11.4459
11.5213
11.5855
11.6411
11.6898
11.7332
11.7726
11.8088
11.8426
11.8747
11.9054
11.9352
11.9644
11.9934
12.0225
12.0518
12.0817
12.1124
12.1443
12.1778
12.2132
12.2511
12.2921
12.3368
12.3863
12.4415
12.5038
12.5749
12.6569
12.7523
12.8642
12.9964
13.1528
13.3377
13.5542
13.8018
14.0736
14.3468
14.5454
14.5372
10.4366
10.3513
10.4204
10.5626
10.722
10.8785
11.0229
11.1509
11.2622
11.3582
11.4409
11.5123
11.5746
11.6293
11.6781
11.722
11.7622
11.7993
11.8342
11.8672
11.899
11.9298
11.9601
11.99
12.02
12.0502
12.081
12.1126
12.1454
12.1797
12.2159
12.2546
12.2962
12.3416
12.3914
12.4467
12.5086
12.5784
12.6578
12.7486
12.8528
12.9724
13.1093
13.2644
13.4366
13.6207
13.8054
13.9687
14.0512
13.9675
10.7769
10.679
10.6947
10.7738
10.8768
10.9877
11.097
11.1993
11.2923
11.3754
11.4493
11.5149
11.5733
11.6257
11.6731
11.7164
11.7564
11.7936
11.8288
11.8624
11.8947
11.9261
11.957
11.9876
12.0182
12.049
12.0804
12.1126
12.1459
12.1807
12.2174
12.2563
12.2982
12.3434
12.3928
12.4472
12.5074
12.5746
12.6497
12.734
12.8286
12.9342
13.0511
13.1781
13.312
13.4459
13.5688
13.6629
13.6858
13.5839
11.0181
10.9256
10.9153
10.9557
11.0201
11.0968
11.1778
11.2577
11.3335
11.4037
11.4681
11.5268
11.5803
11.6293
11.6743
11.716
11.755
11.7917
11.8266
11.8601
11.8926
11.9242
11.9554
11.9863
12.0172
12.0484
12.0801
12.1126
12.1462
12.1812
12.2179
12.2568
12.2983
12.343
12.3913
12.444
12.5018
12.5653
12.6352
12.7121
12.7964
12.888
12.9859
13.0881
13.1906
13.2865
13.3664
13.4174
13.4102
13.3109
11.1989
11.1161
11.0935
11.1104
11.1487
11.2004
11.2593
11.3205
11.3811
11.4393
11.4943
11.5459
11.594
11.6388
11.6808
11.7203
11.7577
11.7933
11.8275
11.8605
11.8927
11.9242
11.9553
11.9863
12.0173
12.0486
12.0804
12.1129
12.1465
12.1814
12.2179
12.2563
12.2972
12.3408
12.3876
12.4381
12.4928
12.5521
12.6163
12.6856
12.7597
12.838
12.9191
13.0004
13.0778
13.1454
13.1958
13.22
13.1978
13.1069
11.3404
11.2671
11.2389
11.2415
11.2624
11.296
11.3379
11.384
11.4317
11.4792
11.5255
11.5701
11.6126
11.6531
11.6917
11.7286
11.764
11.7981
11.8311
11.8633
11.8948
11.9259
11.9567
11.9875
12.0183
12.0495
12.0812
12.1136
12.1469
12.1815
12.2175
12.2553
12.2951
12.3374
12.3823
12.4303
12.4817
12.5365
12.5949
12.6566
12.7212
12.7876
12.8541
12.9181
12.9759
13.0227
13.0528
13.0601
13.0307
12.9488
11.4545
11.3893
11.3589
11.3529
11.3621
11.3828
11.4117
11.4458
11.4828
11.5211
11.5596
11.5976
11.6348
11.6709
11.706
11.7401
11.7732
11.8055
11.8371
11.8682
11.8989
11.9293
11.9596
11.9899
12.0204
12.0512
12.0826
12.1147
12.1476
12.1816
12.2169
12.2538
12.2925
12.3332
12.3761
12.4214
12.4692
12.5195
12.5722
12.6269
12.6827
12.7385
12.7927
12.8426
12.8853
12.9167
12.9328
12.9296
12.897
12.8232
11.5486
11.4899
11.4592
11.4479
11.4491
11.4606
11.4798
11.5045
11.5328
11.5633
11.5949
11.627
11.6592
11.6912
11.7228
11.7539
11.7847
11.815
11.8451
11.8749
11.9045
11.934
11.9636
11.9933
12.0233
12.0537
12.0846
12.1162
12.1485
12.1819
12.2164
12.2522
12.2896
12.3285
12.3692
12.4118
12.4561
12.5021
12.5494
12.5975
12.6455
12.6922
12.736
12.7746
12.8056
12.8257
12.8321
12.8223
12.7886
12.7218
11.6274
11.5741
11.5436
11.5291
11.525
11.5298
11.5418
11.5592
11.5805
11.6044
11.6302
11.6572
11.6848
11.7129
11.7411
11.7695
11.7978
11.8262
11.8545
11.8829
11.9114
11.9399
11.9687
11.9977
12.027
12.0568
12.0871
12.118
12.1497
12.1823
12.2159
12.2506
12.2865
12.3237
12.3622
12.402
12.4429
12.4848
12.5271
12.5693
12.6104
12.6493
12.6845
12.7141
12.736
12.7477
12.7474
12.7334
12.6997
12.6387
11.6941
11.645
11.6153
11.5989
11.5912
11.5912
11.5977
11.6094
11.6251
11.6437
11.6645
11.687
11.7106
11.7351
11.7603
11.786
11.812
11.8384
11.865
11.892
11.9192
11.9467
11.9745
12.0027
12.0313
12.0604
12.09
12.1203
12.1512
12.1829
12.2155
12.249
12.2834
12.3189
12.3552
12.3923
12.43
12.468
12.5058
12.5428
12.5779
12.6102
12.6383
12.6607
12.6755
12.6811
12.676
12.6594
12.6263
12.5703
11.7509
11.7052
11.6763
11.6588
11.6486
11.6452
11.6477
11.655
11.6662
11.6805
11.6971
11.7158
11.7359
11.7573
11.7796
11.8028
11.8266
11.8511
11.8761
11.9016
11.9275
11.9539
11.9808
12.0081
12.0359
12.0643
12.0932
12.1227
12.1528
12.1837
12.2152
12.2475
12.2805
12.3141
12.3484
12.383
12.4177
12.4522
12.4859
12.5182
12.5483
12.575
12.5973
12.6138
12.6233
12.6242
12.6158
12.5976
12.5655
12.5137
11.7993
11.7565
11.7284
11.7103
11.6985
11.6926
11.692
11.6959
11.7036
11.7143
11.7276
11.7429
11.7601
11.7787
11.7985
11.8194
11.8412
11.8639
11.8873
11.9114
11.9361
11.9614
11.9873
12.0138
12.0408
12.0684
12.0965
12.1252
12.1546
12.1845
12.215
12.2461
12.2777
12.3097
12.3419
12.3742
12.4062
12.4375
12.4677
12.4959
12.5216
12.5436
12.5612
12.5731
12.5784
12.5759
12.5652
12.546
12.5149
12.4667
11.8406
11.8001
11.7729
11.7544
11.7415
11.7338
11.7309
11.7322
11.7371
11.745
11.7554
11.7681
11.7827
11.7988
11.8165
11.8354
11.8554
11.8764
11.8983
11.9211
11.9447
11.9689
11.9939
12.0194
12.0457
12.0725
12.0999
12.1278
12.1563
12.1854
12.2149
12.2448
12.2751
12.3055
12.3359
12.366
12.3956
12.4241
12.4511
12.4759
12.4978
12.5161
12.5297
12.538
12.54
12.535
12.5227
12.503
12.473
12.4279
11.8756
11.837
11.8106
11.792
11.7783
11.7693
11.7647
11.764
11.7667
11.7723
11.7805
11.7909
11.8033
11.8174
11.8332
11.8503
11.8687
11.8882
11.9088
11.9304
11.9528
11.9761
12.0002
12.0249
12.0504
12.0764
12.1031
12.1303
12.158
12.1862
12.2148
12.2436
12.2727
12.3016
12.3304
12.3586
12.386
12.4121
12.4363
12.4582
12.477
12.4921
12.5026
12.508
12.5075
12.5006
12.4871
12.4672
12.4382
12.3958
11.9051
11.8681
11.8423
11.8237
11.8095
11.7996
11.7937
11.7915
11.7924
11.7962
11.8026
11.8111
11.8218
11.8342
11.8483
11.8639
11.8809
11.8991
11.9185
11.939
11.9605
11.9828
12.0061
12.0301
12.0548
12.0801
12.1061
12.1327
12.1597
12.1871
12.2147
12.2426
12.2705
12.2982
12.3255
12.352
12.3775
12.4015
12.4234
12.4428
12.4591
12.4715
12.4796
12.4827
12.4802
12.4719
12.4577
12.4378
12.4097
12.3695
11.9295
11.8938
11.8686
11.8501
11.8355
11.8249
11.8181
11.8147
11.8143
11.8167
11.8216
11.8287
11.8378
11.8488
11.8616
11.8759
11.8917
11.9088
11.9272
11.9467
11.9673
11.9889
12.0114
12.0347
12.0588
12.0835
12.1089
12.1348
12.1611
12.1878
12.2147
12.2417
12.2686
12.2952
12.3212
12.3463
12.3702
12.3923
12.4124
12.4297
12.4439
12.4543
12.4603
12.4616
12.4577
12.4484
12.4336
12.4138
12.3866
12.3483
11.9494
11.9146
11.89
11.8715
11.8567
11.8457
11.8382
11.8339
11.8325
11.8338
11.8375
11.8434
11.8514
11.8612
11.8729
11.8861
11.9009
11.9171
11.9347
11.9534
11.9732
11.9941
12.016
12.0387
12.0622
12.0864
12.1112
12.1366
12.1624
12.1884
12.2147
12.2409
12.267
12.2926
12.3175
12.3414
12.364
12.3847
12.4032
12.4189
12.4314
12.4401
12.4446
12.4446
12.4396
12.4295
12.4144
12.3947
12.3682
12.3315
11.9648
11.931
11.9066
11.8883
11.8734
11.862
11.854
11.849
11.8469
11.8474
11.8502
11.8552
11.8623
11.8713
11.882
11.8945
11.9085
11.9239
11.9408
11.9589
11.9781
11.9985
12.0198
12.042
12.0651
12.0888
12.1132
12.1381
12.1634
12.189
12.2146
12.2403
12.2656
12.2905
12.3146
12.3375
12.359
12.3786
12.3958
12.4103
12.4215
12.429
12.4323
12.4312
12.4254
12.4148
12.3995
12.3799
12.3541
12.3185
11.9763
11.943
11.919
11.9007
11.8857
11.8741
11.8657
11.8603
11.8577
11.8575
11.8597
11.8641
11.8705
11.8789
11.889
11.9008
11.9142
11.9291
11.9455
11.9631
11.9819
12.0018
12.0227
12.0446
12.0672
12.0907
12.1147
12.1392
12.1642
12.1893
12.2146
12.2398
12.2646
12.2889
12.3123
12.3346
12.3553
12.374
12.3904
12.4039
12.4141
12.4207
12.4232
12.4214
12.415
12.404
12.3886
12.3692
12.3438
12.3091
11.9838
11.9509
11.9271
11.9088
11.8938
11.8821
11.8735
11.8678
11.8648
11.8643
11.8661
11.87
11.876
11.8839
11.8937
11.9051
11.9181
11.9327
11.9486
11.9659
11.9844
12.004
12.0247
12.0463
12.0687
12.0919
12.1157
12.14
12.1647
12.1896
12.2146
12.2395
12.264
12.2878
12.3108
12.3326
12.3528
12.3709
12.3867
12.3996
12.4093
12.4152
12.4172
12.4149
12.4082
12.397
12.3815
12.3621
12.337
12.303
11.9875
11.9548
11.9311
11.9129
11.8979
11.8861
11.8774
11.8715
11.8684
11.8677
11.8693
11.873
11.8788
11.8865
11.896
11.9072
11.9201
11.9344
11.9502
11.9673
11.9857
12.0051
12.0257
12.0471
12.0695
12.0925
12.1162
12.1404
12.165
12.1897
12.2146
12.2393
12.2636
12.2873
12.3101
12.3316
12.3515
12.3694
12.3849
12.3975
12.4068
12.4125
12.4142
12.4117
12.4048
12.3935
12.378
12.3586
12.3337
12.3
11.9875
11.9548
11.9311
11.9129
11.8979
11.8861
11.8774
11.8715
11.8684
11.8677
11.8693
11.873
11.8788
11.8865
11.896
11.9072
11.9201
11.9344
11.9502
11.9673
11.9857
12.0051
12.0257
12.0471
12.0695
12.0925
12.1162
12.1404
12.165
12.1897
12.2146
12.2393
12.2636
12.2873
12.3101
12.3316
12.3515
12.3694
12.3849
12.3975
12.4068
12.4125
12.4142
12.4117
12.4048
12.3935
12.378
12.3586
12.3337
12.3
11.9838
11.9509
11.9271
11.9088
11.8938
11.8821
11.8735
11.8678
11.8648
11.8643
11.8661
11.87
11.876
11.8839
11.8937
11.9051
11.9181
11.9327
11.9486
11.9659
11.9844
12.004
12.0247
12.0463
12.0687
12.0919
12.1157
12.14
12.1647
12.1896
12.2146
12.2395
12.264
12.2878
12.3108
12.3326
12.3528
12.3709
12.3867
12.3996
12.4093
12.4152
12.4172
12.4149
12.4082
12.397
12.3815
12.3621
12.337
12.303
11.9763
11.943
11.919
11.9007
11.8857
11.8741
11.8657
11.8603
11.8577
11.8575
11.8597
11.8641
11.8705
11.8789
11.889
11.9008
11.9142
11.9291
11.9455
11.9631
11.9819
12.0018
12.0227
12.0446
12.0672
12.0907
12.1147
12.1392
12.1642
12.1894
12.2146
12.2398
12.2646
12.2889
12.3123
12.3346
12.3553
12.374
12.3904
12.4039
12.4141
12.4207
12.4232
12.4214
12.415
12.404
12.3886
12.3692
12.3438
12.3091
11.9649
11.931
11.9067
11.8883
11.8734
11.862
11.854
11.849
11.8469
11.8474
11.8502
11.8552
11.8623
11.8713
11.882
11.8945
11.9085
11.924
11.9408
11.9589
11.9781
11.9985
12.0198
12.042
12.0651
12.0888
12.1132
12.1381
12.1634
12.189
12.2146
12.2403
12.2656
12.2905
12.3146
12.3375
12.359
12.3786
12.3958
12.4103
12.4215
12.429
12.4323
12.4312
12.4254
12.4148
12.3995
12.3799
12.3541
12.3185
11.9494
11.9147
11.89
11.8715
11.8567
11.8457
11.8382
11.8339
11.8325
11.8338
11.8375
11.8434
11.8514
11.8612
11.8729
11.8861
11.9009
11.9171
11.9347
11.9534
11.9733
11.9941
12.016
12.0387
12.0622
12.0864
12.1112
12.1366
12.1624
12.1884
12.2147
12.2409
12.267
12.2926
12.3175
12.3414
12.364
12.3847
12.4032
12.4189
12.4314
12.4401
12.4446
12.4446
12.4396
12.4295
12.4144
12.3947
12.3682
12.3315
11.9296
11.8938
11.8686
11.8501
11.8355
11.8249
11.8181
11.8147
11.8144
11.8167
11.8216
11.8287
11.8378
11.8488
11.8616
11.8759
11.8917
11.9088
11.9272
11.9467
11.9673
11.9889
12.0114
12.0347
12.0588
12.0835
12.1089
12.1348
12.1611
12.1878
12.2147
12.2417
12.2686
12.2952
12.3212
12.3463
12.3702
12.3923
12.4124
12.4297
12.4439
12.4543
12.4603
12.4616
12.4577
12.4484
12.4336
12.4138
12.3866
12.3483
11.9051
11.8681
11.8423
11.8237
11.8095
11.7996
11.7937
11.7915
11.7924
11.7962
11.8026
11.8112
11.8218
11.8342
11.8483
11.8639
11.8809
11.8991
11.9185
11.939
11.9605
11.9829
12.0061
12.0301
12.0548
12.0802
12.1061
12.1327
12.1597
12.1871
12.2147
12.2426
12.2705
12.2982
12.3255
12.352
12.3775
12.4015
12.4234
12.4428
12.4591
12.4715
12.4796
12.4827
12.4802
12.4719
12.4577
12.4378
12.4097
12.3695
11.8757
11.8371
11.8106
11.792
11.7783
11.7693
11.7647
11.764
11.7667
11.7723
11.7805
11.7909
11.8033
11.8175
11.8332
11.8503
11.8687
11.8882
11.9088
11.9304
11.9529
11.9761
12.0002
12.0249
12.0504
12.0764
12.1031
12.1303
12.1581
12.1862
12.2148
12.2437
12.2727
12.3016
12.3304
12.3586
12.386
12.4121
12.4363
12.4582
12.477
12.4921
12.5026
12.508
12.5075
12.5006
12.4871
12.4672
12.4382
12.3958
11.8406
11.8001
11.7729
11.7544
11.7415
11.7338
11.7309
11.7322
11.7371
11.745
11.7554
11.7681
11.7827
11.7989
11.8165
11.8354
11.8554
11.8764
11.8983
11.9211
11.9447
11.9689
11.9939
12.0195
12.0457
12.0725
12.0999
12.1278
12.1563
12.1854
12.2149
12.2448
12.2751
12.3055
12.3359
12.3661
12.3956
12.4241
12.4511
12.4759
12.4978
12.5161
12.5297
12.538
12.54
12.535
12.5227
12.503
12.473
12.4279
11.7993
11.7565
11.7285
11.7103
11.6985
11.6926
11.692
11.6959
11.7036
11.7143
11.7276
11.743
11.7601
11.7787
11.7985
11.8194
11.8413
11.8639
11.8873
11.9114
11.9361
11.9614
11.9873
12.0138
12.0408
12.0684
12.0965
12.1253
12.1546
12.1845
12.215
12.2461
12.2777
12.3097
12.3419
12.3742
12.4062
12.4375
12.4677
12.4959
12.5216
12.5437
12.5612
12.5731
12.5784
12.5759
12.5652
12.546
12.5149
12.4667
11.7509
11.7052
11.6763
11.6588
11.6486
11.6452
11.6477
11.655
11.6662
11.6805
11.6972
11.7158
11.7359
11.7573
11.7796
11.8028
11.8267
11.8511
11.8761
11.9016
11.9275
11.9539
11.9808
12.0081
12.0359
12.0643
12.0932
12.1227
12.1528
12.1837
12.2152
12.2475
12.2805
12.3142
12.3484
12.383
12.4177
12.4522
12.486
12.5182
12.5483
12.575
12.5973
12.6138
12.6233
12.6242
12.6158
12.5976
12.5655
12.5137
11.6941
11.645
11.6153
11.5989
11.5912
11.5912
11.5978
11.6094
11.6251
11.6437
11.6645
11.687
11.7106
11.7352
11.7603
11.786
11.812
11.8384
11.865
11.892
11.9192
11.9467
11.9745
12.0027
12.0313
12.0604
12.09
12.1203
12.1512
12.1829
12.2155
12.249
12.2835
12.3189
12.3552
12.3923
12.43
12.4681
12.5058
12.5428
12.5779
12.6102
12.6383
12.6607
12.6755
12.6811
12.676
12.6594
12.6263
12.5703
11.6275
11.5741
11.5436
11.5291
11.5251
11.5299
11.5418
11.5592
11.5805
11.6044
11.6302
11.6572
11.6848
11.7129
11.7411
11.7695
11.7978
11.8262
11.8546
11.8829
11.9114
11.9399
11.9687
11.9977
12.027
12.0568
12.0871
12.1181
12.1498
12.1823
12.2159
12.2506
12.2865
12.3237
12.3622
12.402
12.4429
12.4848
12.5271
12.5693
12.6104
12.6493
12.6845
12.7141
12.736
12.7477
12.7474
12.7334
12.6997
12.6387
11.5486
11.49
11.4592
11.4479
11.4491
11.4606
11.4798
11.5045
11.5328
11.5633
11.5949
11.6271
11.6592
11.6912
11.7228
11.754
11.7847
11.8151
11.8451
11.8749
11.9045
11.934
11.9636
11.9934
12.0233
12.0537
12.0846
12.1162
12.1485
12.1819
12.2164
12.2522
12.2896
12.3285
12.3692
12.4118
12.4561
12.5021
12.5494
12.5975
12.6455
12.6922
12.736
12.7747
12.8056
12.8257
12.8321
12.8223
12.7886
12.7218
11.4545
11.3893
11.3589
11.3529
11.3621
11.3828
11.4117
11.4458
11.4828
11.5211
11.5596
11.5976
11.6348
11.6709
11.706
11.7401
11.7732
11.8055
11.8371
11.8682
11.8989
11.9293
11.9596
11.9899
12.0204
12.0513
12.0826
12.1147
12.1476
12.1816
12.217
12.2538
12.2925
12.3332
12.3761
12.4214
12.4692
12.5196
12.5722
12.6269
12.6827
12.7385
12.7927
12.8426
12.8853
12.9167
12.9328
12.9296
12.897
12.8233
11.3404
11.2671
11.2389
11.2416
11.2624
11.2961
11.3379
11.384
11.4317
11.4792
11.5255
11.5701
11.6126
11.6531
11.6917
11.7286
11.764
11.7981
11.8311
11.8633
11.8948
11.9259
11.9567
11.9875
12.0184
12.0495
12.0812
12.1136
12.1469
12.1815
12.2175
12.2553
12.2951
12.3374
12.3823
12.4303
12.4817
12.5365
12.5949
12.6566
12.7212
12.7876
12.8541
12.9181
12.9759
13.0227
13.0528
13.0601
13.0307
12.9488
11.199
11.1162
11.0935
11.1104
11.1488
11.2005
11.2593
11.3205
11.3811
11.4393
11.4944
11.5459
11.594
11.6388
11.6808
11.7203
11.7577
11.7933
11.8275
11.8605
11.8927
11.9242
11.9553
11.9863
12.0173
12.0486
12.0804
12.1129
12.1465
12.1814
12.2179
12.2563
12.2972
12.3408
12.3876
12.4381
12.4928
12.5521
12.6163
12.6856
12.7597
12.8381
12.9191
13.0004
13.0778
13.1454
13.1959
13.22
13.1978
13.1069
11.0181
10.9256
10.9153
10.9557
11.0201
11.0968
11.1778
11.2577
11.3335
11.4037
11.4681
11.5268
11.5804
11.6293
11.6743
11.7161
11.755
11.7917
11.8267
11.8602
11.8926
11.9242
11.9554
11.9863
12.0173
12.0484
12.0802
12.1127
12.1462
12.1812
12.2179
12.2568
12.2983
12.343
12.3913
12.444
12.5018
12.5653
12.6352
12.7121
12.7964
12.888
12.9859
13.0881
13.1906
13.2865
13.3664
13.4174
13.4102
13.3109
10.7769
10.6791
10.6948
10.7738
10.8768
10.9877
11.097
11.1994
11.2923
11.3755
11.4493
11.5149
11.5734
11.6258
11.6731
11.7164
11.7564
11.7937
11.8288
11.8624
11.8947
11.9261
11.957
11.9876
12.0182
12.049
12.0804
12.1126
12.1459
12.1807
12.2174
12.2563
12.2982
12.3434
12.3928
12.4472
12.5075
12.5746
12.6497
12.7341
12.8286
12.9342
13.0511
13.1781
13.312
13.4459
13.5688
13.6629
13.6858
13.5839
10.4367
10.3514
10.4205
10.5627
10.722
10.8786
11.0229
11.1509
11.2622
11.3582
11.4409
11.5123
11.5746
11.6294
11.6781
11.722
11.7622
11.7993
11.8342
11.8672
11.899
11.9298
11.9601
11.99
12.02
12.0502
12.081
12.1126
12.1454
12.1797
12.2159
12.2546
12.2963
12.3416
12.3914
12.4467
12.5086
12.5784
12.6578
12.7486
12.8528
12.9724
13.1093
13.2645
13.4366
13.6207
13.8054
13.9688
14.0512
13.9675
9.92576
9.90521
10.0813
10.3251
10.5648
10.7798
10.9648
11.1201
11.2492
11.3565
11.4459
11.5213
11.5855
11.6411
11.6898
11.7333
11.7726
11.8088
11.8427
11.8747
11.9054
11.9352
11.9644
11.9934
12.0225
12.0518
12.0817
12.1124
12.1444
12.1778
12.2133
12.2511
12.2921
12.3369
12.3863
12.4415
12.5038
12.5749
12.6569
12.7523
12.8642
12.9964
13.1528
13.3377
13.5542
13.8018
14.0736
14.3468
14.5454
14.5372
9.11381
9.29074
9.66985
10.0707
10.421
10.7066
10.935
11.116
11.2595
11.3742
11.467
11.5433
11.607
11.6613
11.7084
11.75
11.7875
11.8219
11.854
11.8844
11.9136
11.9419
11.9698
11.9976
12.0254
12.0535
12.0823
12.1119
12.1426
12.1749
12.2091
12.2457
12.2854
12.3288
12.3768
12.4308
12.4921
12.5626
12.6449
12.7421
12.8584
12.9994
13.1721
13.3852
13.6489
13.9731
14.3631
14.8047
15.2194
15.427
7.70447
8.4679
9.21077
9.83394
10.3205
10.6827
10.9498
11.1487
11.299
11.4147
11.5057
11.5788
11.639
11.6896
11.7332
11.7716
11.8061
11.8379
11.8676
11.8958
11.923
11.9496
11.9759
12.0021
12.0284
12.0552
12.0825
12.1107
12.14
12.1708
12.2033
12.2382
12.2758
12.3171
12.3628
12.4142
12.4727
12.5404
12.6199
12.715
12.8306
12.9741
13.1554
13.389
13.6951
14.1015
14.6381
15.3157
16.113
16.9411
4.86834
7.46787
8.88521
9.76832
10.3717
10.7781
11.0534
11.2459
11.3854
11.4895
11.5697
11.6334
11.6853
11.7288
11.7664
11.7997
11.8298
11.8578
11.8842
11.9095
11.9342
11.9585
11.9827
12.007
12.0315
12.0565
12.0821
12.1085
12.1359
12.1646
12.1949
12.2272
12.2621
12.3
12.3419
12.3888
12.4421
12.5036
12.5758
12.6624
12.7685
12.9018
13.074
13.3034
13.6207
14.0761
14.7394
15.6953
17.1984
19.9153
0.000128055
6.38504
9.04916
10.1441
10.7362
11.0854
11.2996
11.4405
11.5396
11.6129
11.6693
11.7145
11.7518
11.7837
11.8118
11.8372
11.8609
11.8835
11.9053
11.9267
11.948
11.9693
11.9908
12.0125
12.0347
12.0574
12.0807
12.1047
12.1296
12.1555
12.1827
12.2114
12.2421
12.2751
12.3112
12.351
12.3956
12.4464
12.5053
12.5747
12.6587
12.7628
12.8967
13.0767
13.3348
13.7352
14.3945
15.5845
18.3648
24.8737
)
;

boundaryField
{
    movingWallTop
    {
        type            zeroGradient;
    }
    movingWallBottom
    {
        type            zeroGradient;
    }
    fixedWalls
    {
        type            zeroGradient;
    }
    frontAndBack
    {
        type            empty;
    }
}


// ************************************************************************* //
