/*--------------------------------*- C++ -*----------------------------------*\
  =========                 |
  \\      /  F ield         | OpenFOAM: The Open Source CFD Toolbox
   \\    /   O peration     | Website:  https://openfoam.org
    \\  /    A nd           | Version:  7
     \\/     M anipulation  |
\*---------------------------------------------------------------------------*/
FoamFile
{
    version     2.0;
    format      ascii;
    class       volScalarField;
    location    "0.0302";
    object      p;
}
// * * * * * * * * * * * * * * * * * * * * * * * * * * * * * * * * * * * * * //

dimensions      [0 2 -2 0 0 0 0];

internalField   nonuniform List<scalar> 
2500
(
-1.92081e-05
6.385
9.04945
10.1449
10.7374
11.0871
11.3017
11.4428
11.542
11.6153
11.6716
11.7164
11.7533
11.7847
11.8121
11.8368
11.8597
11.8814
11.9023
11.9228
11.9431
11.9635
11.984
12.0049
12.0263
12.0481
12.0706
12.0939
12.1181
12.1434
12.1701
12.1984
12.2287
12.2615
12.2973
12.337
12.3816
12.4324
12.4914
12.5611
12.6453
12.7498
12.884
13.0644
13.323
13.7238
14.3835
15.5739
18.3545
24.8636
4.8681
7.46773
8.88533
9.76882
10.3726
10.7794
11.0549
11.2476
11.3871
11.4912
11.5712
11.6345
11.686
11.729
11.766
11.7985
11.8279
11.8551
11.8806
11.9051
11.929
11.9524
11.9758
11.9992
12.023
12.0472
12.0721
12.0979
12.1247
12.1529
12.1828
12.2147
12.2492
12.2869
12.3287
12.3755
12.4288
12.4903
12.5627
12.6495
12.7559
12.8895
13.0619
13.2917
13.6094
14.0652
14.7288
15.685
17.1883
19.9054
7.7039
8.46749
9.21063
9.83417
10.321
10.6835
10.9509
11.1498
11.3002
11.4158
11.5065
11.5793
11.639
11.6891
11.7321
11.7699
11.8037
11.8347
11.8636
11.8911
11.9175
11.9433
11.9688
11.9942
12.0198
12.0459
12.0726
12.1002
12.129
12.1593
12.1914
12.2259
12.2634
12.3044
12.35
12.4014
12.4599
12.5277
12.6074
12.7026
12.8185
12.9622
13.1439
13.3777
13.6841
14.0909
14.6278
15.3056
16.1032
16.9315
9.11276
9.28993
9.66938
10.0707
10.4209
10.707
10.9356
11.1167
11.2602
11.3748
11.4673
11.5433
11.6066
11.6603
11.7068
11.7478
11.7846
11.8183
11.8497
11.8793
11.9077
11.9353
11.9625
11.9895
12.0167
12.0442
12.0724
12.1014
12.1317
12.1636
12.1974
12.2338
12.2732
12.3164
12.3644
12.4184
12.4797
12.5503
12.6328
12.7301
12.8467
12.988
13.1609
13.3743
13.6383
13.9628
14.3529
14.7947
15.2098
15.4177
9.92414
9.90395
10.0804
10.3245
10.5645
10.7798
10.965
11.1204
11.2495
11.3565
11.4458
11.5208
11.5846
11.6396
11.6878
11.7306
11.7693
11.8048
11.838
11.8693
11.8992
11.9283
11.9569
11.9852
12.0136
12.0424
12.0717
12.102
12.1335
12.1666
12.2017
12.2394
12.2801
12.3248
12.3742
12.4294
12.4918
12.563
12.6451
12.7407
12.8529
12.9852
13.1419
13.3271
13.5437
13.7916
14.0636
14.337
14.536
14.5282
10.4345
10.3497
10.4191
10.5616
10.7213
10.8781
11.0226
11.1507
11.262
11.3578
11.4402
11.5114
11.5732
11.6274
11.6756
11.719
11.7585
11.7949
11.8291
11.8615
11.8925
11.9227
11.9523
11.9816
12.011
12.0407
12.071
12.1021
12.1345
12.1685
12.2045
12.2429
12.2844
12.3297
12.3795
12.4348
12.4968
12.5667
12.6463
12.7372
12.8416
12.9614
13.0986
13.2539
13.4263
13.6105
13.7955
13.9591
14.0419
13.9587
10.7742
10.6769
10.693
10.7724
10.8757
10.9868
11.0963
11.1987
11.2916
11.3746
11.4482
11.5135
11.5715
11.6234
11.6702
11.7129
11.7522
11.7889
11.8234
11.8563
11.8879
11.9187
11.949
11.979
12.009
12.0394
12.0703
12.1021
12.135
12.1695
12.2059
12.2447
12.2864
12.3316
12.381
12.4354
12.4958
12.563
12.6383
12.7228
12.8176
12.9234
13.0404
13.1676
13.3016
13.4357
13.5589
13.6533
13.6766
13.5752
11.015
10.9232
10.9133
10.954
11.0187
11.0955
11.1767
11.2566
11.3323
11.4024
11.4665
11.5249
11.578
11.6265
11.671
11.7121
11.7505
11.7866
11.8209
11.8537
11.8855
11.9166
11.9472
11.9775
12.0079
12.0387
12.0699
12.1021
12.1353
12.17
12.2065
12.2452
12.2866
12.3312
12.3796
12.4323
12.4902
12.5538
12.6238
12.7009
12.7854
12.8771
12.9752
13.0776
13.1802
13.2763
13.3565
13.4077
13.401
13.3022
11.1956
11.1135
11.0912
11.1084
11.147
11.1989
11.2578
11.319
11.3795
11.4376
11.4924
11.5435
11.5912
11.6356
11.6771
11.716
11.7528
11.7879
11.8214
11.8538
11.8854
11.9163
11.9469
11.9773
12.0078
12.0387
12.0701
12.1023
12.1355
12.1701
12.2064
12.2447
12.2855
12.329
12.3759
12.4264
12.4812
12.5406
12.6049
12.6744
12.7486
12.8271
12.9084
12.9898
13.0674
13.1352
13.1858
13.2102
13.1885
13.0981
11.337
11.2643
11.2365
11.2394
11.2605
11.2943
11.3361
11.3822
11.4298
11.4771
11.5232
11.5674
11.6095
11.6495
11.6876
11.724
11.7588
11.7923
11.8247
11.8563
11.8873
11.9178
11.9481
11.9784
12.0088
12.0395
12.0708
12.1028
12.1359
12.1702
12.206
12.2437
12.2834
12.3256
12.3706
12.4187
12.4701
12.525
12.5835
12.6454
12.7101
12.7766
12.8432
12.9074
12.9654
13.0123
13.0427
13.0503
13.0212
12.9399
11.4512
11.3865
11.3565
11.3508
11.3601
11.3808
11.4098
11.4438
11.4807
11.5188
11.557
11.5946
11.6314
11.6671
11.7016
11.7352
11.7677
11.7995
11.8305
11.861
11.8911
11.921
11.9508
11.9806
12.0107
12.0411
12.0721
12.1038
12.1365
12.1703
12.2055
12.2422
12.2808
12.3214
12.3643
12.4097
12.4576
12.508
12.5608
12.6156
12.6715
12.7275
12.7817
12.8319
12.8747
12.9062
12.9226
12.9196
12.8873
12.814
11.5456
11.4874
11.4569
11.4458
11.4471
11.4586
11.4778
11.5024
11.5305
11.5607
11.5921
11.6238
11.6556
11.6871
11.7182
11.7488
11.779
11.8088
11.8383
11.8675
11.8966
11.9256
11.9547
11.984
12.0136
12.0435
12.0741
12.1053
12.1374
12.1706
12.2049
12.2406
12.2779
12.3168
12.3575
12.4001
12.4445
12.4905
12.538
12.5862
12.6343
12.6811
12.725
12.7638
12.7948
12.8151
12.8217
12.8121
12.7786
12.7122
11.6248
11.5718
11.5415
11.5272
11.5231
11.5279
11.5398
11.5571
11.5781
11.6018
11.6272
11.6538
11.681
11.7086
11.7364
11.7642
11.792
11.8198
11.8476
11.8755
11.9034
11.9315
11.9597
11.9883
12.0172
12.0466
12.0766
12.1072
12.1387
12.171
12.2044
12.239
12.2748
12.312
12.3505
12.3903
12.4313
12.4732
12.5157
12.5579
12.5992
12.6382
12.6735
12.7032
12.7251
12.737
12.7368
12.7229
12.6894
12.6288
11.6919
11.6431
11.6135
11.5971
11.5894
11.5894
11.5958
11.6073
11.6227
11.641
11.6615
11.6836
11.7068
11.7308
11.7555
11.7806
11.8061
11.8319
11.858
11.8844
11.9111
11.9381
11.9655
11.9933
12.0215
12.0502
12.0795
12.1095
12.1402
12.1717
12.2041
12.2375
12.2719
12.3072
12.3435
12.3807
12.4185
12.4566
12.4944
12.5314
12.5667
12.5991
12.6272
12.6497
12.6646
12.6702
12.6652
12.6487
12.6157
12.5599
11.7493
11.7038
11.675
11.6574
11.6472
11.6436
11.646
11.653
11.6639
11.6779
11.6942
11.7124
11.732
11.7529
11.7748
11.7974
11.8207
11.8446
11.8691
11.8941
11.9195
11.9454
11.9718
11.9987
12.0262
12.0542
12.0827
12.112
12.1419
12.1725
12.2039
12.2361
12.269
12.3026
12.3368
12.3715
12.4063
12.4408
12.4746
12.507
12.5371
12.5639
12.5862
12.6028
12.6123
12.6132
12.6049
12.5866
12.5545
12.5028
11.7984
11.7556
11.7275
11.7093
11.6973
11.6913
11.6905
11.6941
11.7014
11.7118
11.7247
11.7396
11.7563
11.7744
11.7937
11.8141
11.8354
11.8575
11.8804
11.9039
11.9282
11.953
11.9784
12.0045
12.0311
12.0583
12.0862
12.1146
12.1437
12.1735
12.2038
12.2348
12.2663
12.2983
12.3305
12.3628
12.3949
12.4262
12.4564
12.4847
12.5104
12.5326
12.5501
12.5621
12.5673
12.5648
12.554
12.5348
12.5036
12.4553
11.8404
11.7998
11.7724
11.7538
11.7406
11.7327
11.7296
11.7306
11.7351
11.7426
11.7527
11.7649
11.779
11.7946
11.8117
11.8301
11.8496
11.8701
11.8915
11.9137
11.9368
11.9606
11.9851
12.0103
12.0361
12.0626
12.0896
12.1173
12.1456
12.1745
12.2039
12.2337
12.2639
12.2943
12.3247
12.3548
12.3844
12.413
12.44
12.4648
12.4868
12.505
12.5187
12.5269
12.5288
12.5237
12.5113
12.4915
12.4612
12.4159
11.8762
11.8373
11.8106
11.7918
11.7778
11.7686
11.7637
11.7627
11.765
11.7702
11.7779
11.7879
11.7998
11.8134
11.8286
11.8452
11.863
11.882
11.9021
11.9231
11.9451
11.9679
11.9915
12.0159
12.0409
12.0667
12.093
12.12
12.1475
12.1755
12.204
12.2327
12.2617
12.2906
12.3194
12.3476
12.375
12.4011
12.4254
12.4473
12.4661
12.4811
12.4916
12.4969
12.4963
12.4892
12.4755
12.4554
12.4262
12.3834
11.9064
11.8689
11.8428
11.8239
11.8094
11.7992
11.793
11.7904
11.791
11.7943
11.8002
11.8083
11.8184
11.8303
11.8438
11.8589
11.8753
11.893
11.9119
11.9319
11.9529
11.9748
11.9976
12.0212
12.0455
12.0706
12.0962
12.1225
12.1493
12.1765
12.2041
12.2319
12.2597
12.2874
12.3146
12.3412
12.3667
12.3907
12.4126
12.432
12.4482
12.4606
12.4686
12.4715
12.4689
12.4604
12.4459
12.4257
12.3973
12.3567
11.9315
11.8952
11.8696
11.8507
11.8358
11.8249
11.8177
11.8139
11.8131
11.815
11.8194
11.826
11.8346
11.8451
11.8573
11.8711
11.8863
11.9029
11.9208
11.9398
11.9599
11.981
12.003
12.0259
12.0496
12.0741
12.0992
12.1248
12.1509
12.1775
12.2042
12.2311
12.258
12.2845
12.3105
12.3356
12.3595
12.3817
12.4017
12.4191
12.4332
12.4435
12.4494
12.4505
12.4464
12.4368
12.4217
12.4015
12.3739
12.335
11.9519
11.9165
11.8913
11.8725
11.8573
11.8459
11.838
11.8332
11.8314
11.8323
11.8355
11.8409
11.8484
11.8577
11.8688
11.8815
11.8957
11.9114
11.9284
11.9466
11.966
11.9864
12.0078
12.0301
12.0533
12.0771
12.1017
12.1268
12.1524
12.1783
12.2044
12.2306
12.2565
12.2821
12.3071
12.331
12.3535
12.3742
12.3927
12.4084
12.4208
12.4294
12.4337
12.4335
12.4282
12.4178
12.4023
12.3822
12.3552
12.3178
11.9679
11.9333
11.9084
11.8896
11.8742
11.8624
11.854
11.8486
11.846
11.846
11.8484
11.8529
11.8594
11.8679
11.8781
11.89
11.9034
11.9183
11.9346
11.9522
11.971
11.9908
12.0117
12.0336
12.0562
12.0797
12.1038
12.1284
12.1535
12.179
12.2045
12.2301
12.2554
12.2802
12.3043
12.3272
12.3487
12.3683
12.3855
12.3999
12.411
12.4183
12.4215
12.4201
12.414
12.403
12.3873
12.3672
12.3408
12.3046
11.9798
11.9456
11.921
11.9022
11.8868
11.8747
11.8659
11.8601
11.857
11.8563
11.8581
11.8619
11.8678
11.8756
11.8852
11.8964
11.9093
11.9236
11.9394
11.9565
11.9748
11.9943
12.0148
12.0362
12.0585
12.0816
12.1054
12.1297
12.1544
12.1795
12.2046
12.2297
12.2545
12.2788
12.3022
12.3244
12.3451
12.3638
12.3801
12.3935
12.4037
12.4101
12.4124
12.4103
12.4036
12.3922
12.3763
12.3564
12.3304
12.295
11.9876
11.9537
11.9293
11.9105
11.895
11.8828
11.8738
11.8677
11.8642
11.8632
11.8645
11.868
11.8734
11.8808
11.8899
11.9008
11.9132
11.9272
11.9427
11.9594
11.9774
11.9966
12.0168
12.038
12.0601
12.083
12.1065
12.1306
12.1551
12.1798
12.2047
12.2295
12.2539
12.2778
12.3008
12.3225
12.3427
12.3608
12.3765
12.3893
12.3989
12.4047
12.4064
12.4038
12.3968
12.3851
12.3691
12.3492
12.3235
12.2887
11.9914
11.9578
11.9334
11.9147
11.8992
11.8869
11.8777
11.8715
11.8678
11.8666
11.8677
11.871
11.8762
11.8834
11.8923
11.903
11.9152
11.929
11.9443
11.9609
11.9787
11.9978
12.0178
12.0389
12.0609
12.0836
12.107
12.131
12.1554
12.18
12.2047
12.2293
12.2536
12.2773
12.3
12.3216
12.3414
12.3593
12.3747
12.3872
12.3964
12.402
12.4034
12.4006
12.3934
12.3816
12.3656
12.3457
12.3202
12.2856
11.9914
11.9578
11.9334
11.9147
11.8992
11.8869
11.8777
11.8715
11.8678
11.8666
11.8677
11.871
11.8762
11.8834
11.8923
11.903
11.9152
11.929
11.9443
11.9609
11.9787
11.9978
12.0178
12.0389
12.0609
12.0836
12.107
12.131
12.1554
12.18
12.2047
12.2293
12.2536
12.2773
12.3
12.3216
12.3414
12.3593
12.3747
12.3872
12.3964
12.402
12.4034
12.4006
12.3934
12.3816
12.3656
12.3457
12.3202
12.2856
11.9876
11.9537
11.9293
11.9105
11.895
11.8828
11.8738
11.8677
11.8642
11.8632
11.8645
11.868
11.8734
11.8808
11.8899
11.9008
11.9132
11.9272
11.9427
11.9594
11.9774
11.9966
12.0168
12.038
12.0601
12.083
12.1065
12.1306
12.1551
12.1798
12.2047
12.2295
12.2539
12.2778
12.3008
12.3225
12.3427
12.3608
12.3765
12.3893
12.3989
12.4047
12.4064
12.4038
12.3968
12.3851
12.3691
12.3492
12.3235
12.2887
11.9798
11.9456
11.921
11.9022
11.8868
11.8747
11.8659
11.8601
11.857
11.8563
11.8581
11.8619
11.8678
11.8756
11.8852
11.8964
11.9093
11.9236
11.9394
11.9565
11.9748
11.9943
12.0148
12.0362
12.0585
12.0816
12.1054
12.1297
12.1544
12.1795
12.2046
12.2297
12.2545
12.2788
12.3022
12.3244
12.3451
12.3638
12.3801
12.3935
12.4037
12.4101
12.4124
12.4103
12.4036
12.3922
12.3763
12.3564
12.3304
12.295
11.9679
11.9333
11.9084
11.8896
11.8742
11.8624
11.854
11.8486
11.846
11.846
11.8484
11.8529
11.8594
11.8679
11.8781
11.89
11.9034
11.9183
11.9346
11.9522
11.971
11.9908
12.0117
12.0336
12.0562
12.0797
12.1038
12.1284
12.1535
12.179
12.2045
12.2301
12.2554
12.2802
12.3043
12.3272
12.3487
12.3683
12.3855
12.3999
12.411
12.4183
12.4215
12.4201
12.414
12.403
12.3873
12.3672
12.3408
12.3046
11.9519
11.9165
11.8913
11.8725
11.8573
11.8459
11.838
11.8332
11.8314
11.8323
11.8355
11.8409
11.8484
11.8577
11.8688
11.8815
11.8957
11.9114
11.9284
11.9466
11.966
11.9864
12.0078
12.0301
12.0533
12.0771
12.1017
12.1268
12.1524
12.1783
12.2044
12.2306
12.2565
12.2821
12.3071
12.331
12.3535
12.3742
12.3927
12.4084
12.4208
12.4294
12.4337
12.4335
12.4282
12.4178
12.4023
12.3822
12.3552
12.3178
11.9315
11.8952
11.8696
11.8507
11.8358
11.8248
11.8177
11.8139
11.8131
11.815
11.8194
11.826
11.8346
11.8451
11.8573
11.8711
11.8863
11.9029
11.9207
11.9398
11.9599
11.981
12.003
12.0259
12.0496
12.0741
12.0992
12.1248
12.1509
12.1775
12.2043
12.2312
12.258
12.2845
12.3105
12.3356
12.3595
12.3817
12.4017
12.4191
12.4332
12.4435
12.4494
12.4505
12.4464
12.4368
12.4217
12.4015
12.3739
12.335
11.9064
11.8689
11.8428
11.8239
11.8094
11.7992
11.793
11.7904
11.791
11.7943
11.8002
11.8083
11.8184
11.8303
11.8438
11.8589
11.8753
11.893
11.9119
11.9319
11.9529
11.9748
11.9976
12.0212
12.0455
12.0706
12.0962
12.1225
12.1493
12.1765
12.2041
12.2319
12.2597
12.2874
12.3146
12.3412
12.3667
12.3907
12.4126
12.432
12.4482
12.4606
12.4686
12.4715
12.469
12.4604
12.4459
12.4257
12.3973
12.3567
11.8762
11.8373
11.8106
11.7918
11.7778
11.7686
11.7637
11.7627
11.765
11.7702
11.7779
11.7879
11.7998
11.8134
11.8286
11.8452
11.863
11.882
11.9021
11.9231
11.9451
11.9679
11.9915
12.0159
12.0409
12.0667
12.093
12.12
12.1475
12.1755
12.204
12.2327
12.2617
12.2906
12.3194
12.3476
12.375
12.4011
12.4254
12.4473
12.4661
12.4811
12.4916
12.4969
12.4963
12.4892
12.4755
12.4554
12.4262
12.3834
11.8404
11.7998
11.7724
11.7538
11.7406
11.7327
11.7296
11.7306
11.7351
11.7426
11.7527
11.7649
11.779
11.7946
11.8117
11.8301
11.8496
11.8701
11.8915
11.9137
11.9368
11.9606
11.9851
12.0103
12.0361
12.0626
12.0896
12.1173
12.1456
12.1745
12.2039
12.2337
12.2639
12.2943
12.3247
12.3548
12.3844
12.413
12.44
12.4648
12.4868
12.505
12.5187
12.5269
12.5288
12.5237
12.5113
12.4915
12.4612
12.4159
11.7984
11.7556
11.7275
11.7093
11.6973
11.6912
11.6905
11.6941
11.7014
11.7118
11.7247
11.7396
11.7563
11.7744
11.7937
11.8141
11.8354
11.8575
11.8804
11.9039
11.9282
11.953
11.9784
12.0045
12.0311
12.0583
12.0862
12.1146
12.1437
12.1735
12.2038
12.2348
12.2663
12.2983
12.3305
12.3628
12.3949
12.4262
12.4564
12.4847
12.5104
12.5326
12.5501
12.5621
12.5673
12.5648
12.554
12.5348
12.5036
12.4553
11.7493
11.7038
11.6749
11.6574
11.6472
11.6436
11.646
11.653
11.6639
11.6778
11.6942
11.7124
11.732
11.7529
11.7748
11.7974
11.8207
11.8446
11.8691
11.8941
11.9195
11.9454
11.9718
11.9987
12.0262
12.0542
12.0827
12.112
12.1419
12.1725
12.2039
12.2361
12.269
12.3026
12.3368
12.3715
12.4063
12.4408
12.4746
12.507
12.5371
12.5639
12.5862
12.6028
12.6123
12.6132
12.6049
12.5866
12.5545
12.5028
11.6919
11.6431
11.6135
11.5971
11.5894
11.5894
11.5958
11.6073
11.6227
11.641
11.6615
11.6836
11.7068
11.7308
11.7555
11.7806
11.8061
11.8319
11.858
11.8844
11.9111
11.9381
11.9655
11.9933
12.0215
12.0502
12.0795
12.1095
12.1402
12.1717
12.2041
12.2375
12.2719
12.3072
12.3435
12.3807
12.4185
12.4566
12.4944
12.5314
12.5667
12.5991
12.6272
12.6497
12.6646
12.6702
12.6652
12.6487
12.6157
12.5599
11.6247
11.5718
11.5415
11.5272
11.5231
11.5279
11.5398
11.5571
11.5781
11.6018
11.6272
11.6538
11.681
11.7086
11.7364
11.7642
11.792
11.8198
11.8476
11.8755
11.9034
11.9314
11.9597
11.9883
12.0172
12.0466
12.0766
12.1072
12.1387
12.171
12.2044
12.239
12.2748
12.312
12.3505
12.3903
12.4313
12.4732
12.5157
12.5579
12.5992
12.6382
12.6735
12.7032
12.7251
12.737
12.7368
12.7229
12.6894
12.6288
11.5456
11.4874
11.4569
11.4458
11.4471
11.4586
11.4778
11.5024
11.5305
11.5607
11.5921
11.6238
11.6556
11.6871
11.7182
11.7488
11.779
11.8088
11.8383
11.8675
11.8966
11.9256
11.9547
11.984
12.0136
12.0435
12.0741
12.1053
12.1374
12.1706
12.2049
12.2406
12.2779
12.3168
12.3575
12.4001
12.4445
12.4905
12.538
12.5862
12.6343
12.6811
12.725
12.7638
12.7948
12.8151
12.8217
12.8121
12.7786
12.7122
11.4512
11.3865
11.3565
11.3508
11.36
11.3808
11.4098
11.4438
11.4807
11.5188
11.5569
11.5946
11.6314
11.6671
11.7016
11.7352
11.7677
11.7995
11.8305
11.861
11.8911
11.921
11.9508
11.9806
12.0107
12.0411
12.0721
12.1039
12.1365
12.1703
12.2055
12.2422
12.2808
12.3214
12.3643
12.4097
12.4576
12.508
12.5608
12.6156
12.6715
12.7275
12.7817
12.8319
12.8747
12.9062
12.9226
12.9196
12.8873
12.814
11.337
11.2643
11.2365
11.2394
11.2605
11.2943
11.3361
11.3822
11.4298
11.4771
11.5232
11.5674
11.6095
11.6495
11.6876
11.724
11.7588
11.7923
11.8247
11.8563
11.8873
11.9178
11.9481
11.9784
12.0088
12.0395
12.0708
12.1028
12.1359
12.1702
12.206
12.2437
12.2834
12.3256
12.3706
12.4187
12.4701
12.525
12.5835
12.6454
12.7101
12.7766
12.8432
12.9074
12.9654
13.0123
13.0427
13.0503
13.0212
12.9399
11.1956
11.1135
11.0912
11.1084
11.147
11.1989
11.2578
11.319
11.3795
11.4376
11.4924
11.5435
11.5912
11.6356
11.6771
11.716
11.7528
11.7879
11.8214
11.8538
11.8854
11.9163
11.9469
11.9773
12.0078
12.0387
12.0701
12.1023
12.1355
12.1701
12.2064
12.2447
12.2855
12.329
12.3759
12.4265
12.4812
12.5406
12.6049
12.6744
12.7486
12.8271
12.9084
12.9898
13.0674
13.1352
13.1858
13.2102
13.1885
13.0981
11.015
10.9232
10.9133
10.954
11.0187
11.0955
11.1767
11.2566
11.3323
11.4024
11.4665
11.5249
11.578
11.6265
11.671
11.7121
11.7505
11.7866
11.8209
11.8537
11.8855
11.9166
11.9472
11.9775
12.0079
12.0387
12.0699
12.1021
12.1353
12.17
12.2065
12.2452
12.2866
12.3312
12.3796
12.4323
12.4902
12.5538
12.6238
12.7009
12.7854
12.8771
12.9752
13.0776
13.1802
13.2763
13.3565
13.4077
13.401
13.3022
10.7742
10.6769
10.693
10.7724
10.8757
10.9868
11.0963
11.1987
11.2916
11.3746
11.4482
11.5135
11.5715
11.6234
11.6702
11.7129
11.7522
11.7889
11.8234
11.8563
11.8879
11.9187
11.949
11.979
12.009
12.0394
12.0703
12.1021
12.135
12.1695
12.2059
12.2447
12.2864
12.3316
12.381
12.4354
12.4958
12.563
12.6383
12.7228
12.8176
12.9234
13.0404
13.1676
13.3016
13.4357
13.5589
13.6533
13.6766
13.5752
10.4345
10.3497
10.4191
10.5616
10.7213
10.8781
11.0226
11.1507
11.262
11.3578
11.4402
11.5114
11.5732
11.6274
11.6756
11.719
11.7585
11.7949
11.8291
11.8615
11.8925
11.9227
11.9523
11.9816
12.011
12.0407
12.071
12.1021
12.1345
12.1685
12.2045
12.2429
12.2844
12.3297
12.3795
12.4348
12.4968
12.5667
12.6463
12.7372
12.8416
12.9614
13.0986
13.2539
13.4263
13.6105
13.7955
13.9591
14.0419
13.9587
9.92413
9.90394
10.0804
10.3245
10.5645
10.7798
10.965
11.1204
11.2495
11.3565
11.4458
11.5208
11.5846
11.6396
11.6878
11.7306
11.7693
11.8048
11.838
11.8692
11.8992
11.9283
11.9569
11.9852
12.0136
12.0424
12.0717
12.102
12.1335
12.1666
12.2017
12.2394
12.2801
12.3248
12.3742
12.4294
12.4918
12.563
12.6451
12.7407
12.8529
12.9852
13.1419
13.3271
13.5437
13.7916
14.0636
14.337
14.536
14.5282
9.11275
9.28992
9.66938
10.0707
10.4209
10.707
10.9356
11.1167
11.2602
11.3748
11.4673
11.5433
11.6066
11.6603
11.7068
11.7478
11.7846
11.8183
11.8497
11.8793
11.9077
11.9353
11.9625
11.9895
12.0167
12.0442
12.0724
12.1014
12.1317
12.1636
12.1974
12.2338
12.2732
12.3164
12.3644
12.4184
12.4797
12.5503
12.6328
12.7302
12.8467
12.988
13.1609
13.3743
13.6383
13.9628
14.3529
14.7948
15.2098
15.4177
7.70389
8.46748
9.21062
9.83417
10.3209
10.6835
10.9509
11.1498
11.3002
11.4158
11.5065
11.5793
11.639
11.6891
11.7321
11.7699
11.8037
11.8347
11.8636
11.8911
11.9175
11.9433
11.9688
11.9942
12.0198
12.0459
12.0726
12.1002
12.129
12.1593
12.1914
12.2259
12.2634
12.3044
12.35
12.4014
12.4599
12.5277
12.6074
12.7026
12.8186
12.9622
13.1439
13.3777
13.6841
14.0909
14.6278
15.3056
16.1032
16.9315
4.86809
7.46772
8.88532
9.76881
10.3726
10.7794
11.0549
11.2476
11.3871
11.4912
11.5712
11.6345
11.686
11.729
11.766
11.7985
11.8279
11.8551
11.8806
11.9051
11.929
11.9524
11.9758
11.9992
12.023
12.0472
12.0721
12.0979
12.1247
12.1529
12.1828
12.2147
12.2492
12.2869
12.3287
12.3755
12.4288
12.4903
12.5627
12.6495
12.7559
12.8895
13.0619
13.2917
13.6094
14.0652
14.7288
15.685
17.1883
19.9054
-3.94974e-05
6.38499
9.04944
10.1449
10.7374
11.0871
11.3017
11.4428
11.542
11.6153
11.6716
11.7164
11.7533
11.7847
11.8121
11.8368
11.8597
11.8814
11.9023
11.9228
11.9431
11.9635
11.984
12.0049
12.0263
12.0481
12.0706
12.0939
12.1181
12.1434
12.1701
12.1984
12.2287
12.2615
12.2973
12.337
12.3816
12.4324
12.4914
12.5611
12.6453
12.7498
12.884
13.0644
13.323
13.7238
14.3835
15.5739
18.3545
24.8636
)
;

boundaryField
{
    movingWallTop
    {
        type            zeroGradient;
    }
    movingWallBottom
    {
        type            zeroGradient;
    }
    fixedWalls
    {
        type            zeroGradient;
    }
    frontAndBack
    {
        type            empty;
    }
}


// ************************************************************************* //
