/*--------------------------------*- C++ -*----------------------------------*\
  =========                 |
  \\      /  F ield         | OpenFOAM: The Open Source CFD Toolbox
   \\    /   O peration     | Website:  https://openfoam.org
    \\  /    A nd           | Version:  7
     \\/     M anipulation  |
\*---------------------------------------------------------------------------*/
FoamFile
{
    version     2.0;
    format      ascii;
    class       volVectorField;
    location    "0.0302";
    object      U;
}
// * * * * * * * * * * * * * * * * * * * * * * * * * * * * * * * * * * * * * //

dimensions      [0 1 -1 0 0 0 0];

internalField   nonuniform List<vector> 
2500
(
(0.29026 -0.15242 0)
(0.38956 -0.128244 0)
(0.565453 -0.0747364 0)
(0.683264 -0.0422255 0)
(0.752813 -0.024514 0)
(0.797756 -0.014864 0)
(0.82883 -0.00954916 0)
(0.851192 -0.00652029 0)
(0.867874 -0.00469243 0)
(0.880704 -0.00351541 0)
(0.890794 -0.00271074 0)
(0.898858 -0.00213277 0)
(0.905376 -0.00170138 0)
(0.910688 -0.00136995 0)
(0.91504 -0.00110964 0)
(0.918617 -0.000901643 0)
(0.921559 -0.000733027 0)
(0.923976 -0.000594551 0)
(0.925954 -0.000479364 0)
(0.927558 -0.000382222 0)
(0.928843 -0.000298993 0)
(0.929848 -0.000226321 0)
(0.930605 -0.0001614 0)
(0.931136 -0.000101806 0)
(0.931456 -4.53684e-05 0)
(0.931573 9.92569e-06 0)
(0.931488 6.59938e-05 0)
(0.931195 0.000124841 0)
(0.930683 0.000188536 0)
(0.929932 0.000259361 0)
(0.928915 0.000339932 0)
(0.927595 0.000433361 0)
(0.925924 0.000543489 0)
(0.923841 0.000675199 0)
(0.921265 0.000834913 0)
(0.918095 0.00103133 0)
(0.914198 0.00127667 0)
(0.909397 0.0015887 0)
(0.903455 0.00199449 0)
(0.896046 0.00253749 0)
(0.8867 0.00329172 0)
(0.874723 0.00439149 0)
(0.859023 0.00609547 0)
(0.837797 0.00892445 0)
(0.80799 0.0139385 0)
(0.764329 0.0232298 0)
(0.695877 0.0407608 0)
(0.577945 0.0737435 0)
(0.398064 0.128749 0)
(0.293877 0.153793 0)
(0.00109544 -0.294915 0)
(0.0168779 -0.298635 0)
(0.152321 -0.213002 0)
(0.282776 -0.145257 0)
(0.387801 -0.0995196 0)
(0.470813 -0.0696425 0)
(0.53597 -0.0502479 0)
(0.587133 -0.0374145 0)
(0.627655 -0.0286307 0)
(0.660105 -0.0223941 0)
(0.686358 -0.0178137 0)
(0.707782 -0.0143503 0)
(0.725384 -0.0116674 0)
(0.739921 -0.00954774 0)
(0.751968 -0.00784568 0)
(0.761968 -0.00646009 0)
(0.77027 -0.00531838 0)
(0.777147 -0.00436685 0)
(0.782819 -0.00356463 0)
(0.787458 -0.00287975 0)
(0.791203 -0.00228654 0)
(0.794161 -0.00176379 0)
(0.796415 -0.00129354 0)
(0.798026 -0.000860054 0)
(0.799033 -0.000449114 0)
(0.799459 -4.74156e-05 0)
(0.799309 0.000357954 0)
(0.798569 0.000780101 0)
(0.797208 0.00123279 0)
(0.795175 0.00173107 0)
(0.792399 0.00229205 0)
(0.788781 0.00293586 0)
(0.784197 0.00368692 0)
(0.778486 0.00457586 0)
(0.771441 0.00564212 0)
(0.762801 0.00693794 0)
(0.752229 0.0085345 0)
(0.739291 0.0105316 0)
(0.723414 0.0130736 0)
(0.703836 0.0163767 0)
(0.679525 0.0207769 0)
(0.649058 0.0268159 0)
(0.610454 0.0353991 0)
(0.560933 0.0480786 0)
(0.49676 0.0675141 0)
(0.413464 0.0980096 0)
(0.306137 0.145677 0)
(0.170446 0.217243 0)
(0.0268896 0.307182 0)
(0.00518946 0.303023 0)
(-0.0329127 -0.250424 0)
(-0.0615965 -0.344044 0)
(-0.0115743 -0.310495 0)
(0.0705744 -0.2513 0)
(0.158435 -0.195637 0)
(0.24062 -0.150927 0)
(0.312775 -0.117102 0)
(0.374221 -0.0918997 0)
(0.42587 -0.073027 0)
(0.469089 -0.0587056 0)
(0.50523 -0.0476613 0)
(0.535485 -0.0390042 0)
(0.56085 -0.0321145 0)
(0.582141 -0.0265563 0)
(0.600025 -0.0220182 0)
(0.615042 -0.0182726 0)
(0.627631 -0.0151499 0)
(0.638151 -0.0125207 0)
(0.646893 -0.010284 0)
(0.654096 -0.00835904 0)
(0.659948 -0.00667993 0)
(0.664603 -0.00519135 0)
(0.668178 -0.00384577 0)
(0.670757 -0.00260108 0)
(0.672401 -0.00141893 0)
(0.67314 -0.000263122 0)
(0.672981 0.000901666 0)
(0.671905 0.00211119 0)
(0.669866 0.00340302 0)
(0.666791 0.00481811 0)
(0.662574 0.00640261 0)
(0.657077 0.0082103 0)
(0.65012 0.0103057 0)
(0.641476 0.0127685 0)
(0.63086 0.0156995 0)
(0.617915 0.0192295 0)
(0.602195 0.0235318 0)
(0.58314 0.0288416 0)
(0.560046 0.0354849 0)
(0.532027 0.0439223 0)
(0.497974 0.0548165 0)
(0.456515 0.0691318 0)
(0.406026 0.0882716 0)
(0.344745 0.114235 0)
(0.271229 0.149668 0)
(0.1856 0.197335 0)
(0.0918765 0.257771 0)
(0.0016653 0.323123 0)
(-0.0569844 0.361462 0)
(-0.0321743 0.263989 0)
(-0.0267722 -0.190647 0)
(-0.0654747 -0.332933 0)
(-0.0647401 -0.351234 0)
(-0.0279425 -0.318745 0)
(0.028827 -0.271242 0)
(0.0924917 -0.224467 0)
(0.155353 -0.18391 0)
(0.213632 -0.150489 0)
(0.265828 -0.123478 0)
(0.311665 -0.101748 0)
(0.351459 -0.0842185 0)
(0.385771 -0.0699889 0)
(0.415225 -0.0583489 0)
(0.44043 -0.0487506 0)
(0.461941 -0.040773 0)
(0.480245 -0.0340908 0)
(0.495765 -0.0284501 0)
(0.508861 -0.0236496 0)
(0.519837 -0.0195273 0)
(0.528947 -0.0159503 0)
(0.5364 -0.0128075 0)
(0.542364 -0.0100038 0)
(0.546972 -0.00745625 0)
(0.550321 -0.00509025 0)
(0.552479 -0.00283707 0)
(0.553481 -0.000631363 0)
(0.553332 0.00159098 0)
(0.552009 0.00389499 0)
(0.549457 0.00634886 0)
(0.545588 0.00902647 0)
(0.540278 0.0120104 0)
(0.533365 0.0153958 0)
(0.524643 0.0192951 0)
(0.513855 0.0238445 0)
(0.500686 0.0292127 0)
(0.484755 0.0356125 0)
(0.465602 0.0433172 0)
(0.442676 0.0526829 0)
(0.415333 0.0641782 0)
(0.382831 0.0784238 0)
(0.344355 0.096239 0)
(0.299093 0.118686 0)
(0.246405 0.147075 0)
(0.186195 0.18284 0)
(0.119614 0.227056 0)
(0.0503194 0.279045 0)
(-0.0136559 0.333062 0)
(-0.0581019 0.371809 0)
(-0.0647738 0.355721 0)
(-0.0272995 0.204766 0)
(-0.0178592 -0.149165 0)
(-0.0532108 -0.302725 0)
(-0.0739591 -0.354365 0)
(-0.0672853 -0.349383 0)
(-0.0385913 -0.31835 0)
(0.00291709 -0.278669 0)
(0.0500359 -0.238934 0)
(0.0980215 -0.202775 0)
(0.14405 -0.171307 0)
(0.186637 -0.144504 0)
(0.22515 -0.121891 0)
(0.259453 -0.102868 0)
(0.289684 -0.0868558 0)
(0.316117 -0.0733412 0)
(0.339081 -0.0618914 0)
(0.358916 -0.0521463 0)
(0.375948 -0.0438076 0)
(0.390475 -0.0366277 0)
(0.402762 -0.030399 0)
(0.413041 -0.0249457 0)
(0.421508 -0.0201166 0)
(0.428324 -0.015779 0)
(0.433618 -0.011815 0)
(0.437486 -0.00811658 0)
(0.439993 -0.00458302 0)
(0.441173 -0.00111764 0)
(0.44103 0.00237498 0)
(0.439534 0.00599176 0)
(0.436628 0.00983409 0)
(0.432216 0.0140111 0)
(0.426171 0.0186435 0)
(0.418326 0.0238681 0)
(0.408473 0.029844 0)
(0.396362 0.0367593 0)
(0.381693 0.0448405 0)
(0.36412 0.0543641 0)
(0.343248 0.0656709 0)
(0.318642 0.0791825 0)
(0.289844 0.0954193 0)
(0.256413 0.115014 0)
(0.218008 0.138711 0)
(0.174527 0.167318 0)
(0.126363 0.201559 0)
(0.0748089 0.24171 0)
(0.0226621 0.286795 0)
(-0.0250176 0.332993 0)
(-0.0602168 0.370757 0)
(-0.0723636 0.380488 0)
(-0.0544701 0.327776 0)
(-0.018665 0.162371 0)
(-0.0114482 -0.12084 0)
(-0.0404219 -0.269533 0)
(-0.0683081 -0.33928 0)
(-0.078687 -0.355965 0)
(-0.070428 -0.34218 0)
(-0.048313 -0.313455 0)
(-0.0175136 -0.279194 0)
(0.0177206 -0.244559 0)
(0.0542934 -0.212086 0)
(0.0901592 -0.182815 0)
(0.124083 -0.156995 0)
(0.155394 -0.134486 0)
(0.183794 -0.11498 0)
(0.209221 -0.0981202 0)
(0.231747 -0.0835498 0)
(0.251526 -0.0709393 0)
(0.268746 -0.0599937 0)
(0.283606 -0.0504519 0)
(0.2963 -0.0420847 0)
(0.307009 -0.0346892 0)
(0.315892 -0.0280851 0)
(0.323084 -0.02211 0)
(0.328696 -0.0166154 0)
(0.332811 -0.0114635 0)
(0.335484 -0.00652319 0)
(0.336744 -0.00166765 0)
(0.336587 0.00322914 0)
(0.334986 0.00829535 0)
(0.331878 0.0136646 0)
(0.327175 0.0194795 0)
(0.320752 0.0258958 0)
(0.312457 0.0330874 0)
(0.302103 0.0412513 0)
(0.289471 0.0506145 0)
(0.274316 0.0614412 0)
(0.256369 0.0740409 0)
(0.235354 0.0887754 0)
(0.211007 0.106064 0)
(0.183118 0.126381 0)
(0.151597 0.150235 0)
(0.116578 0.178111 0)
(0.078584 0.210347 0)
(0.0387608 0.246878 0)
(-0.000808756 0.286752 0)
(-0.0367708 0.327292 0)
(-0.064298 0.362739 0)
(-0.0772984 0.382333 0)
(-0.0698822 0.368226 0)
(-0.0424711 0.294685 0)
(-0.0122091 0.132796 0)
(-0.00750137 -0.100745 0)
(-0.0306396 -0.238995 0)
(-0.0592073 -0.316782 0)
(-0.0780675 -0.348308 0)
(-0.0831075 -0.349157 0)
(-0.0758291 -0.331839 0)
(-0.0592354 -0.305128 0)
(-0.0364687 -0.274656 0)
(-0.0102433 -0.243766 0)
(0.0173584 -0.214287 0)
(0.0448636 -0.187107 0)
(0.0712977 -0.162556 0)
(0.0960606 -0.140658 0)
(0.11882 -0.121272 0)
(0.139426 -0.104178 0)
(0.157848 -0.0891284 0)
(0.174132 -0.0758732 0)
(0.188365 -0.0641703 0)
(0.200654 -0.0537928 0)
(0.211114 -0.0445297 0)
(0.219854 -0.0361857 0)
(0.226971 -0.0285789 0)
(0.232547 -0.0215385 0)
(0.236644 -0.0149022 0)
(0.239303 -0.00851378 0)
(0.240542 -0.00221985 0)
(0.240354 0.00413269 0)
(0.238708 0.0106997 0)
(0.235548 0.0176431 0)
(0.230792 0.025134 0)
(0.224336 0.0333567 0)
(0.216049 0.0425123 0)
(0.205783 0.0528232 0)
(0.193373 0.0645375 0)
(0.178647 0.0779318 0)
(0.16144 0.0933138 0)
(0.141616 0.11102 0)
(0.119101 0.131405 0)
(0.0939328 0.154817 0)
(0.0663353 0.181548 0)
(0.0368232 0.211732 0)
(0.00633962 0.245173 0)
(-0.0235761 0.281045 0)
(-0.0506231 0.317421 0)
(-0.0716661 0.35056 0)
(-0.0829257 0.373978 0)
(-0.0806238 0.377434 0)
(-0.0625917 0.34637 0)
(-0.0329449 0.262946 0)
(-0.00815675 0.111351 0)
(-0.00517099 -0.0859642 0)
(-0.0237704 -0.212386 0)
(-0.0505424 -0.292105 0)
(-0.0729747 -0.332754 0)
(-0.0860621 -0.344726 0)
(-0.0893175 -0.337545 0)
(-0.0840206 -0.31872 0)
(-0.0721451 -0.293654 0)
(-0.0557488 -0.26597 0)
(-0.036637 -0.23795 0)
(-0.0162458 -0.210945 0)
(0.00435468 -0.185683 0)
(0.0244096 -0.162497 0)
(0.0434147 -0.141478 0)
(0.0610551 -0.12257 0)
(0.0771532 -0.105638 0)
(0.0916271 -0.0905028 0)
(0.104459 -0.0769674 0)
(0.115669 -0.0648283 0)
(0.125304 -0.0538839 0)
(0.133417 -0.0439377 0)
(0.140061 -0.0347997 0)
(0.145286 -0.026286 0)
(0.149129 -0.0182177 0)
(0.151612 -0.0104193 0)
(0.152742 -0.00271711 0)
(0.152507 0.00506381 0)
(0.150878 0.0131014 0)
(0.147805 0.0215796 0)
(0.143222 0.0306905 0)
(0.137047 0.0406379 0)
(0.129183 0.0516388 0)
(0.11953 0.063926 0)
(0.107985 0.077749 0)
(0.0944615 0.0933721 0)
(0.0789036 0.11107 0)
(0.0613144 0.131114 0)
(0.0417926 0.153751 0)
(0.0205833 0.179157 0)
(-0.00185433 0.207365 0)
(-0.0247644 0.238146 0)
(-0.047001 0.270817 0)
(-0.0669447 0.303959 0)
(-0.0824713 0.335023 0)
(-0.0910628 0.359826 0)
(-0.0901903 0.372015 0)
(-0.0780514 0.362724 0)
(-0.0548781 0.320815 0)
(-0.0261104 0.23443 0)
(-0.00573411 0.0952345 0)
(-0.00377691 -0.0746264 0)
(-0.0190202 -0.189468 0)
(-0.0433294 -0.267643 0)
(-0.0667622 -0.313202 0)
(-0.0844283 -0.332982 0)
(-0.0948168 -0.334018 0)
(-0.0980341 -0.322423 0)
(-0.0950764 -0.303014 0)
(-0.0873149 -0.27933 0)
(-0.0761437 -0.253824 0)
(-0.0628004 -0.228116 0)
(-0.0482996 -0.20322 0)
(-0.0334282 -0.17972 0)
(-0.0187686 -0.157915 0)
(-0.00473379 -0.137912 0)
(0.00839657 -0.119696 0)
(0.0204439 -0.103174 0)
(0.0313033 -0.088208 0)
(0.0409211 -0.074634 0)
(0.0492777 -0.062273 0)
(0.0563742 -0.0509393 0)
(0.0622222 -0.0404454 0)
(0.0668361 -0.0306033 0)
(0.0702275 -0.0212256 0)
(0.0724013 -0.0121251 0)
(0.0733528 -0.003114 0)
(0.0730662 0.00599739 0)
(0.0715139 0.0154023 0)
(0.0686572 0.0252991 0)
(0.0644474 0.0358926 0)
(0.0588292 0.0473956 0)
(0.0517456 0.0600291 0)
(0.0431448 0.0740216 0)
(0.0329911 0.0896063 0)
(0.0212791 0.107014 0)
(0.0080544 0.126463 0)
(-0.00655998 0.148136 0)
(-0.0223281 0.172145 0)
(-0.0388574 0.19848 0)
(-0.0555475 0.226923 0)
(-0.0715367 0.256922 0)
(-0.0856575 0.28742 0)
(-0.0964256 0.316614 0)
(-0.102103 0.341672 0)
(-0.100907 0.358424 0)
(-0.0914343 0.361138 0)
(-0.0733084 0.342563 0)
(-0.0480859 0.294502 0)
(-0.0212939 0.209262 0)
(-0.00426742 0.082623 0)
(-0.0029112 -0.0655586 0)
(-0.0156999 -0.169621 0)
(-0.0376078 -0.24436 0)
(-0.0607961 -0.291904 0)
(-0.0808839 -0.316749 0)
(-0.0959406 -0.324015 0)
(-0.105359 -0.318542 0)
(-0.109414 -0.304438 0)
(-0.108879 -0.284948 0)
(-0.104722 -0.262495 0)
(-0.0979107 -0.238808 0)
(-0.089316 -0.215066 0)
(-0.0796699 -0.192033 0)
(-0.0695585 -0.170173 0)
(-0.0594328 -0.149734 0)
(-0.0496282 -0.130813 0)
(-0.0403863 -0.113407 0)
(-0.0318747 -0.0974413 0)
(-0.024206 -0.0827995 0)
(-0.0174523 -0.069334 0)
(-0.0116582 -0.0568795 0)
(-0.00685015 -0.0452591 0)
(-0.00304447 -0.0342891 0)
(-0.000253089 -0.0237809 0)
(0.00151224 -0.013543 0)
(0.00223712 -0.00338063 0)
(0.00190291 0.00690378 0)
(0.000486244 0.0175113 0)
(-0.00204014 0.0286468 0)
(-0.00570517 0.0405192 0)
(-0.0105357 0.0533403 0)
(-0.0165505 0.0673239 0)
(-0.0237527 0.0826816 0)
(-0.0321175 0.0996164 0)
(-0.0415782 0.118312 0)
(-0.0520062 0.138914 0)
(-0.0631871 0.161504 0)
(-0.0747919 0.18606 0)
(-0.0863444 0.212394 0)
(-0.0971895 0.240071 0)
(-0.106469 0.268294 0)
(-0.113118 0.295759 0)
(-0.115908 0.320477 0)
(-0.113557 0.339592 0)
(-0.104971 0.349234 0)
(-0.0896274 0.344491 0)
(-0.0680674 0.319646 0)
(-0.0424509 0.2688 0)
(-0.0178518 0.187037 0)
(-0.00334184 0.0723607 0)
(-0.00234888 -0.0580379 0)
(-0.0133317 -0.152216 0)
(-0.0331407 -0.222534 0)
(-0.0555454 -0.270092 0)
(-0.0767662 -0.297868 0)
(-0.0947894 -0.309582 0)
(-0.108621 -0.309002 0)
(-0.118045 -0.299541 0)
(-0.123369 -0.284058 0)
(-0.125178 -0.264819 0)
(-0.124161 -0.243541 0)
(-0.121006 -0.221473 0)
(-0.11634 -0.199485 0)
(-0.110699 -0.178156 0)
(-0.104527 -0.157844 0)
(-0.0981754 -0.138742 0)
(-0.0919161 -0.120926 0)
(-0.0859557 -0.104387 0)
(-0.0804466 -0.0890545 0)
(-0.0754998 -0.0748187 0)
(-0.0711954 -0.0615396 0)
(-0.0675904 -0.0490573 0)
(-0.0647268 -0.0371987 0)
(-0.0626361 -0.0257807 0)
(-0.0613436 -0.0146139 0)
(-0.0608713 -0.00350349 0)
(-0.061239 0.00774934 0)
(-0.0624648 0.0193463 0)
(-0.0645634 0.0314914 0)
(-0.0675442 0.0443891 0)
(-0.0714069 0.0582421 0)
(-0.0761353 0.0732475 0)
(-0.0816891 0.0895904 0)
(-0.087993 0.107434 0)
(-0.0949232 0.126907 0)
(-0.102291 0.148078 0)
(-0.109822 0.17093 0)
(-0.117138 0.195315 0)
(-0.123737 0.220895 0)
(-0.128977 0.247071 0)
(-0.13208 0.272883 0)
(-0.132156 0.2969 0)
(-0.128274 0.317104 0)
(-0.119596 0.33079 0)
(-0.105596 0.334531 0)
(-0.0863814 0.324259 0)
(-0.0630222 0.295569 0)
(-0.037855 0.244275 0)
(-0.0153267 0.167264 0)
(-0.00272676 0.0637362 0)
(-0.00196712 -0.051609 0)
(-0.0116037 -0.136728 0)
(-0.0296583 -0.202142 0)
(-0.0510972 -0.248402 0)
(-0.0727059 -0.277512 0)
(-0.0925543 -0.292179 0)
(-0.109471 -0.29532 0)
(-0.122931 -0.289722 0)
(-0.132902 -0.277843 0)
(-0.139654 -0.261725 0)
(-0.143623 -0.242996 0)
(-0.145308 -0.222898 0)
(-0.145206 -0.202348 0)
(-0.143775 -0.181991 0)
(-0.141417 -0.162261 0)
(-0.138469 -0.143426 0)
(-0.13521 -0.125627 0)
(-0.131862 -0.10891 0)
(-0.128599 -0.0932545 0)
(-0.125556 -0.0785841 0)
(-0.122839 -0.0647877 0)
(-0.120527 -0.0517265 0)
(-0.11868 -0.0392423 0)
(-0.117345 -0.0271631 0)
(-0.116558 -0.0153067 0)
(-0.116344 -0.00348422 0)
(-0.116724 0.00849814 0)
(-0.117708 0.0208365 0)
(-0.119301 0.0337272 0)
(-0.121492 0.0473638 0)
(-0.124258 0.0619327 0)
(-0.127552 0.0776077 0)
(-0.131299 0.0945415 0)
(-0.135386 0.112854 0)
(-0.139649 0.132614 0)
(-0.143861 0.153818 0)
(-0.147721 0.17636 0)
(-0.150839 0.199987 0)
(-0.15273 0.224249 0)
(-0.152815 0.248435 0)
(-0.150441 0.271499 0)
(-0.144921 0.291983 0)
(-0.13562 0.30795 0)
(-0.122082 0.316947 0)
(-0.10422 0.316032 0)
(-0.0825547 0.301917 0)
(-0.0584207 0.271256 0)
(-0.0341026 0.221102 0)
(-0.0134192 0.149507 0)
(-0.00229634 0.0563028 0)
(-0.0016976 -0.0459746 0)
(-0.0103147 -0.122743 0)
(-0.0269289 -0.183046 0)
(-0.0473916 -0.227145 0)
(-0.0689724 -0.256407 0)
(-0.0898947 -0.272823 0)
(-0.108934 -0.278646 0)
(-0.125389 -0.276132 0)
(-0.138987 -0.267355 0)
(-0.149759 -0.254115 0)
(-0.157924 -0.237901 0)
(-0.163805 -0.219901 0)
(-0.167767 -0.201026 0)
(-0.170175 -0.181951 0)
(-0.171371 -0.163153 0)
(-0.171657 -0.144951 0)
(-0.171297 -0.127535 0)
(-0.170511 -0.110999 0)
(-0.16948 -0.0953599 0)
(-0.168352 -0.0805777 0)
(-0.167244 -0.0665683 0)
(-0.166251 -0.0532158 0)
(-0.165444 -0.0403798 0)
(-0.16488 -0.0279028 0)
(-0.164601 -0.0156148 0)
(-0.164635 -0.00333692 0)
(-0.165 0.00911427 0)
(-0.165701 0.0219241 0)
(-0.166729 0.035276 0)
(-0.16806 0.0493473 0)
(-0.169649 0.0643034 0)
(-0.171426 0.0802908 0)
(-0.173292 0.0974269 0)
(-0.175106 0.115787 0)
(-0.176683 0.135386 0)
(-0.17778 0.156156 0)
(-0.178094 0.177916 0)
(-0.177253 0.200334 0)
(-0.174822 0.222885 0)
(-0.170314 0.244799 0)
(-0.163219 0.265008 0)
(-0.153056 0.2821 0)
(-0.139454 0.294287 0)
(-0.122267 0.299409 0)
(-0.101724 0.295002 0)
(-0.0785967 0.278448 0)
(-0.0543179 0.247229 0)
(-0.0310128 0.199282 0)
(-0.0119373 0.133408 0)
(-0.00198102 0.049769 0)
(-0.00150098 -0.0409335 0)
(-0.00933402 -0.109944 0)
(-0.0247721 -0.16508 0)
(-0.0443239 -0.206447 0)
(-0.0656563 -0.235 0)
(-0.0871643 -0.252215 0)
(-0.107641 -0.259838 0)
(-0.126292 -0.259684 0)
(-0.142689 -0.253487 0)
(-0.156683 -0.242802 0)
(-0.168319 -0.228961 0)
(-0.177769 -0.213064 0)
(-0.185271 -0.195985 0)
(-0.191095 -0.178393 0)
(-0.195514 -0.160783 0)
(-0.198784 -0.143502 0)
(-0.201139 -0.126775 0)
(-0.202785 -0.110729 0)
(-0.203897 -0.0954143 0)
(-0.204623 -0.0808202 0)
(-0.205086 -0.0668888 0)
(-0.205386 -0.0535266 0)
(-0.205601 -0.0406125 0)
(-0.205791 -0.0280059 0)
(-0.206002 -0.0155515 0)
(-0.206261 -0.00308464 0)
(-0.206583 0.00956428 0)
(-0.206966 0.0225658 0)
(-0.207392 0.0360865 0)
(-0.207823 0.0502841 0)
(-0.208199 0.0653003 0)
(-0.208436 0.0812527 0)
(-0.208416 0.0982239 0)
(-0.207986 0.116248 0)
(-0.206953 0.135292 0)
(-0.205077 0.155235 0)
(-0.202071 0.17584 0)
(-0.197606 0.196724 0)
(-0.191314 0.21732 0)
(-0.182813 0.236844 0)
(-0.171742 0.254254 0)
(-0.157806 0.268232 0)
(-0.140858 0.277175 0)
(-0.120991 0.279226 0)
(-0.0986472 0.272353 0)
(-0.0747381 0.254495 0)
(-0.0506939 0.223769 0)
(-0.0284412 0.178739 0)
(-0.0107575 0.118687 0)
(-0.00174115 0.0439365 0)
(-0.00135368 -0.0363452 0)
(-0.00857483 -0.0980886 0)
(-0.0230524 -0.148077 0)
(-0.041787 -0.186341 0)
(-0.0627647 -0.213557 0)
(-0.0845457 -0.230832 0)
(-0.105975 -0.239525 0)
(-0.12622 -0.241094 0)
(-0.144754 -0.236975 0)
(-0.161302 -0.228494 0)
(-0.175772 -0.216824 0)
(-0.188208 -0.202957 0)
(-0.198739 -0.187705 0)
(-0.207544 -0.171713 0)
(-0.214823 -0.155468 0)
(-0.220782 -0.139328 0)
(-0.225617 -0.123536 0)
(-0.22951 -0.108243 0)
(-0.232621 -0.0935227 0)
(-0.235092 -0.0793886 0)
(-0.237042 -0.0658059 0)
(-0.23857 -0.0527018 0)
(-0.239754 -0.0399749 0)
(-0.240657 -0.0275022 0)
(-0.241322 -0.0151452 0)
(-0.241775 -0.00275574 0)
(-0.242026 0.0098194 0)
(-0.242068 0.0227332 0)
(-0.241874 0.0361334 0)
(-0.241396 0.0501559 0)
(-0.240565 0.0649179 0)
(-0.239286 0.0805088 0)
(-0.237434 0.0969791 0)
(-0.234854 0.114327 0)
(-0.231356 0.13248 0)
(-0.226718 0.151279 0)
(-0.220686 0.170451 0)
(-0.212982 0.189584 0)
(-0.203318 0.208101 0)
(-0.19142 0.225236 0)
(-0.177062 0.24001 0)
(-0.160116 0.251226 0)
(-0.140615 0.257479 0)
(-0.118824 0.257201 0)
(-0.0953267 0.248737 0)
(-0.0710953 0.230477 0)
(-0.0475048 0.20102 0)
(-0.0262794 0.15937 0)
(-0.00979965 0.10512 0)
(-0.00155322 0.0386646 0)
(-0.00124098 -0.0321086 0)
(-0.00797862 -0.0869889 0)
(-0.0216698 -0.131892 0)
(-0.0396869 -0.166809 0)
(-0.0602699 -0.192232 0)
(-0.0821269 -0.208997 0)
(-0.104169 -0.218167 0)
(-0.125558 -0.220911 0)
(-0.145711 -0.218412 0)
(-0.164262 -0.211791 0)
(-0.181019 -0.202061 0)
(-0.195923 -0.190103 0)
(-0.209007 -0.176654 0)
(-0.220368 -0.162313 0)
(-0.230139 -0.147549 0)
(-0.238472 -0.132711 0)
(-0.245524 -0.118049 0)
(-0.251446 -0.103727 0)
(-0.256379 -0.089833 0)
(-0.26045 -0.0764002 0)
(-0.26377 -0.0634122 0)
(-0.266432 -0.0508151 0)
(-0.268512 -0.0385257 0)
(-0.270068 -0.026439 0)
(-0.27114 -0.0144341 0)
(-0.271752 -0.00238037 0)
(-0.271908 0.00985738 0)
(-0.271596 0.0224134 0)
(-0.270783 0.035415 0)
(-0.269414 0.0489766 0)
(-0.267414 0.0631914 0)
(-0.264684 0.0781228 0)
(-0.2611 0.0937934 0)
(-0.256511 0.110172 0)
(-0.250744 0.127159 0)
(-0.2436 0.144569 0)
(-0.234869 0.162109 0)
(-0.224331 0.179361 0)
(-0.211778 0.195765 0)
(-0.19704 0.210595 0)
(-0.180013 0.222957 0)
(-0.160706 0.23179 0)
(-0.139291 0.235886 0)
(-0.116159 0.233937 0)
(-0.0919754 0.224611 0)
(-0.0677262 0.206657 0)
(-0.0447053 0.179036 0)
(-0.0244482 0.141063 0)
(-0.00901028 0.0925299 0)
(-0.00140276 0.0338498 0)
(-0.00115336 -0.0281491 0)
(-0.00750521 -0.0765001 0)
(-0.0205507 -0.116396 0)
(-0.0379464 -0.147812 0)
(-0.0581331 -0.171108 0)
(-0.0799461 -0.186926 0)
(-0.102365 -0.196096 0)
(-0.124564 -0.199556 0)
(-0.145931 -0.198276 0)
(-0.166041 -0.193191 0)
(-0.184624 -0.185168 0)
(-0.201542 -0.174973 0)
(-0.216749 -0.163264 0)
(-0.230269 -0.150584 0)
(-0.242176 -0.137367 0)
(-0.252568 -0.123946 0)
(-0.261563 -0.110565 0)
(-0.26928 -0.0973899 0)
(-0.275837 -0.0845198 0)
(-0.281343 -0.0719986 0)
(-0.285896 -0.0598249 0)
(-0.289581 -0.0479609 0)
(-0.292466 -0.0363401 0)
(-0.294605 -0.0248748 0)
(-0.296032 -0.0134615 0)
(-0.296767 -0.00198755 0)
(-0.29681 0.00966378 0)
(-0.296143 0.0216076 0)
(-0.294728 0.0339512 0)
(-0.292508 0.046788 0)
(-0.289405 0.0601892 0)
(-0.285321 0.0741957 0)
(-0.280138 0.0888077 0)
(-0.273716 0.103973 0)
(-0.265904 0.119572 0)
(-0.256536 0.135408 0)
(-0.245444 0.151185 0)
(-0.232472 0.166498 0)
(-0.217489 0.180816 0)
(-0.200416 0.193476 0)
(-0.181255 0.20368 0)
(-0.160126 0.210506 0)
(-0.137307 0.212932 0)
(-0.113272 0.209882 0)
(-0.0887329 0.200291 0)
(-0.0646595 0.183192 0)
(-0.0422562 0.157819 0)
(-0.0228907 0.123706 0)
(-0.00835353 0.08077 0)
(-0.00128049 0.0294123 0)
(-0.00108449 -0.0244102 0)
(-0.0071266 -0.0665074 0)
(-0.0196418 -0.10148 0)
(-0.036505 -0.129296 0)
(-0.0563159 -0.150225 0)
(-0.0780162 -0.164759 0)
(-0.10065 -0.17355 0)
(-0.123414 -0.177347 0)
(-0.145684 -0.176939 0)
(-0.166993 -0.173102 0)
(-0.187021 -0.166563 0)
(-0.205563 -0.157982 0)
(-0.222512 -0.14793 0)
(-0.23783 -0.13689 0)
(-0.251537 -0.125253 0)
(-0.263685 -0.113326 0)
(-0.274352 -0.10134 0)
(-0.283626 -0.0894546 0)
(-0.291601 -0.0777717 0)
(-0.298366 -0.0663422 0)
(-0.304004 -0.0551752 0)
(-0.30859 -0.0442459 0)
(-0.312183 -0.0335027 0)
(-0.314829 -0.0228735 0)
(-0.316558 -0.0122719 0)
(-0.317383 -0.00160272 0)
(-0.3173 0.00923274 0)
(-0.316287 0.0203309 0)
(-0.314303 0.03178 0)
(-0.31129 0.0436542 0)
(-0.307172 0.0560055 0)
(-0.301854 0.0688565 0)
(-0.295228 0.0821903 0)
(-0.287172 0.095941 0)
(-0.277557 0.109981 0)
(-0.266252 0.124112 0)
(-0.253136 0.138048 0)
(-0.23811 0.151409 0)
(-0.221114 0.163712 0)
(-0.202152 0.174364 0)
(-0.181311 0.18267 0)
(-0.1588 0.187842 0)
(-0.134973 0.189031 0)
(-0.110361 0.18536 0)
(-0.0856937 0.175985 0)
(-0.06191 0.160167 0)
(-0.0401266 0.13734 0)
(-0.0215664 0.107192 0)
(-0.00780493 0.0697178 0)
(-0.00118032 0.025289 0)
(-0.00103006 -0.0208476 0)
(-0.00682316 -0.0569182 0)
(-0.018904 -0.0870475 0)
(-0.0353162 -0.111204 0)
(-0.0547846 -0.129591 0)
(-0.0763384 -0.142585 0)
(-0.0990788 -0.150698 0)
(-0.122229 -0.154524 0)
(-0.145161 -0.154699 0)
(-0.167386 -0.151856 0)
(-0.188543 -0.1466 0)
(-0.208379 -0.139486 0)
(-0.226737 -0.131 0)
(-0.24353 -0.121562 0)
(-0.258729 -0.111515 0)
(-0.272347 -0.101133 0)
(-0.284426 -0.0906259 0)
(-0.295024 -0.0801429 0)
(-0.304211 -0.0697818 0)
(-0.312056 -0.0595959 0)
(-0.31863 -0.0496012 0)
(-0.323991 -0.039783 0)
(-0.328191 -0.0301021 0)
(-0.331268 -0.0205008 0)
(-0.333245 -0.0109084 0)
(-0.334131 -0.00124617 0)
(-0.333916 0.0085672 0)
(-0.332577 0.0186107 0)
(-0.33007 0.0289551 0)
(-0.326339 0.0396574 0)
(-0.321309 0.0507539 0)
(-0.314895 0.062253 0)
(-0.306998 0.0741268 0)
(-0.297515 0.0863029 0)
(-0.286344 0.0986541 0)
(-0.273387 0.11099 0)
(-0.258568 0.123046 0)
(-0.241841 0.134479 0)
(-0.223209 0.14486 0)
(-0.202742 0.153674 0)
(-0.1806 0.160329 0)
(-0.157059 0.164168 0)
(-0.132528 0.164491 0)
(-0.107573 0.160598 0)
(-0.0829247 0.151827 0)
(-0.0594867 0.137613 0)
(-0.0382938 0.117545 0)
(-0.0204466 0.0914171 0)
(-0.00734764 0.0592666 0)
(-0.00109815 0.0214276 0)
(-0.000987116 -0.0174261 0)
(-0.00658101 -0.047656 0)
(-0.0183091 -0.0730165 0)
(-0.0343454 -0.0934794 0)
(-0.0535121 -0.109197 0)
(-0.0749094 -0.120458 0)
(-0.0976873 -0.127659 0)
(-0.121095 -0.131266 0)
(-0.144507 -0.131784 0)
(-0.167421 -0.129722 0)
(-0.189448 -0.125572 0)
(-0.2103 -0.11979 0)
(-0.229779 -0.112782 0)
(-0.247759 -0.1049 0)
(-0.264173 -0.0964371 0)
(-0.278997 -0.0876311 0)
(-0.292242 -0.0786646 0)
(-0.303941 -0.0696712 0)
(-0.31414 -0.0607405 0)
(-0.322892 -0.0519243 0)
(-0.33025 -0.0432417 0)
(-0.336262 -0.0346854 0)
(-0.340969 -0.0262266 0)
(-0.344403 -0.0178202 0)
(-0.346579 -0.00940978 0)
(-0.347501 -0.000931953 0)
(-0.347158 0.0076787 0)
(-0.345521 0.0164851 0)
(-0.342549 0.0255425 0)
(-0.338184 0.0348934 0)
(-0.332359 0.0445616 0)
(-0.324995 0.0545456 0)
(-0.316007 0.0648122 0)
(-0.305312 0.0752885 0)
(-0.292829 0.0858552 0)
(-0.278497 0.0963385 0)
(-0.262276 0.106504 0)
(-0.244168 0.116052 0)
(-0.224229 0.124613 0)
(-0.202585 0.131756 0)
(-0.179454 0.136987 0)
(-0.15516 0.139769 0)
(-0.130153 0.139542 0)
(-0.105016 0.135752 0)
(-0.0804754 0.127888 0)
(-0.057396 0.115525 0)
(-0.0367413 0.0983663 0)
(-0.0195113 0.0762788 0)
(-0.00697006 0.0493216 0)
(-0.00103118 0.0177834 0)
(-0.000953623 -0.0141164 0)
(-0.00639039 -0.0386559 0)
(-0.0178369 -0.0593129 0)
(-0.0335668 -0.0760638 0)
(-0.0524774 -0.0890214 0)
(-0.0737247 -0.0984038 0)
(-0.0964992 -0.104512 0)
(-0.120073 -0.107705 0)
(-0.143827 -0.108374 0)
(-0.167251 -0.106917 0)
(-0.189936 -0.103723 0)
(-0.211569 -0.0991558 0)
(-0.231922 -0.0935429 0)
(-0.250836 -0.08717 0)
(-0.268213 -0.0802786 0)
(-0.284001 -0.0730651 0)
(-0.298185 -0.065683 0)
(-0.310774 -0.058246 0)
(-0.321795 -0.050832 0)
(-0.331284 -0.0434876 0)
(-0.339281 -0.0362324 0)
(-0.345823 -0.029064 0)
(-0.350943 -0.0219618 0)
(-0.354662 -0.0148917 0)
(-0.356993 -0.00781012 0)
(-0.357935 -0.000667598 0)
(-0.357471 0.00658679 0)
(-0.355574 0.0140016 0)
(-0.352201 0.0216185 0)
(-0.347299 0.0294683 0)
(-0.340802 0.0375651 0)
(-0.332643 0.0459019 0)
(-0.322748 0.0544446 0)
(-0.311052 0.0631261 0)
(-0.297497 0.0718405 0)
(-0.282049 0.0804378 0)
(-0.264705 0.088719 0)
(-0.245505 0.0964334 0)
(-0.224547 0.103278 0)
(-0.202004 0.1089 0)
(-0.178136 0.112904 0)
(-0.153305 0.114864 0)
(-0.127986 0.114344 0)
(-0.102774 0.110917 0)
(-0.0783832 0.104197 0)
(-0.0556435 0.0938696 0)
(-0.0354583 0.0797242 0)
(-0.0187467 0.0616781 0)
(-0.00666419 0.0397958 0)
(-0.000977495 0.0143168 0)
(-0.000928167 -0.0108938 0)
(-0.00624446 -0.0298615 0)
(-0.0174731 -0.0458698 0)
(-0.0329621 -0.0589002 0)
(-0.0516651 -0.0690341 0)
(-0.0727807 -0.0764304 0)
(-0.0955314 -0.0813102 0)
(-0.119209 -0.0839387 0)
(-0.1432 -0.084607 0)
(-0.166991 -0.0836146 0)
(-0.19016 -0.0812552 0)
(-0.212376 -0.0778054 0)
(-0.233387 -0.0735167 0)
(-0.253011 -0.06861 0)
(-0.271126 -0.063273 0)
(-0.287658 -0.0576602 0)
(-0.302569 -0.0518929 0)
(-0.315851 -0.0460622 0)
(-0.327513 -0.0402313 0)
(-0.337579 -0.0344392 0)
(-0.346077 -0.0287035 0)
(-0.353033 -0.0230245 0)
(-0.358474 -0.0173883 0)
(-0.362414 -0.0117702 0)
(-0.364861 -0.0061377 0)
(-0.365809 -0.000454209 0)
(-0.365241 0.00531817 0)
(-0.363128 0.0112152 0)
(-0.359427 0.0172671 0)
(-0.354087 0.0234949 0)
(-0.347049 0.0299065 0)
(-0.338252 0.0364925 0)
(-0.327636 0.0432221 0)
(-0.315147 0.0500384 0)
(-0.300749 0.0568541 0)
(-0.284433 0.0635477 0)
(-0.266221 0.0699606 0)
(-0.246186 0.0758948 0)
(-0.224461 0.0811137 0)
(-0.201253 0.0853449 0)
(-0.176853 0.0882863 0)
(-0.151649 0.0896161 0)
(-0.126135 0.0890071 0)
(-0.10091 0.0861447 0)
(-0.0766769 0.0807477 0)
(-0.0542341 0.0725918 0)
(-0.0344376 0.0615311 0)
(-0.0181435 0.0475166 0)
(-0.00642456 0.0306075 0)
(-0.000935786 0.0109919 0)
(-0.000909785 -0.00773623 0)
(-0.00613852 -0.0212219 0)
(-0.0172077 -0.0326249 0)
(-0.0325182 -0.0419321 0)
(-0.051064 -0.0491984 0)
(-0.0720745 -0.054532 0)
(-0.0947957 -0.0580841 0)
(-0.118534 -0.0600372 0)
(-0.142683 -0.0605923 0)
(-0.166726 -0.0599578 0)
(-0.190234 -0.0583389 0)
(-0.212862 -0.0559299 0)
(-0.234343 -0.0529083 0)
(-0.254479 -0.0494312 0)
(-0.273129 -0.0456326 0)
(-0.290201 -0.0416234 0)
(-0.305643 -0.0374913 0)
(-0.319432 -0.0333028 0)
(-0.331565 -0.0291043 0)
(-0.342056 -0.0249251 0)
(-0.350921 -0.0207791 0)
(-0.358183 -0.0166676 0)
(-0.363858 -0.0125819 0)
(-0.367959 -0.00850516 0)
(-0.370487 -0.00441533 0)
(-0.371435 -0.00028709 0)
(-0.370785 0.00390561 0)
(-0.368504 0.0081872 0)
(-0.364553 0.012578 0)
(-0.358881 0.0170914 0)
(-0.351436 0.0217313 0)
(-0.342161 0.0264889 0)
(-0.331005 0.0313399 0)
(-0.317927 0.0362411 0)
(-0.302908 0.0411276 0)
(-0.285954 0.0459102 0)
(-0.267111 0.0504734 0)
(-0.246474 0.0546747 0)
(-0.224202 0.0583447 0)
(-0.200526 0.0612902 0)
(-0.175759 0.0632983 0)
(-0.15031 0.0641443 0)
(-0.124681 0.0636015 0)
(-0.0994731 0.061454 0)
(-0.0753786 0.057511 0)
(-0.0531726 0.0516223 0)
(-0.0336747 0.0436934 0)
(-0.0176955 0.0336966 0)
(-0.0062475 0.0216788 0)
(-0.000905159 0.00777528 0)
(-0.000897846 -0.00462393 0)
(-0.00606945 -0.0126904 0)
(-0.0170341 -0.0195196 0)
(-0.0322267 -0.0251034 0)
(-0.050667 -0.0294738 0)
(-0.0716045 -0.0326934 0)
(-0.0943008 -0.0348506 0)
(-0.118072 -0.036052 0)
(-0.142317 -0.0364158 0)
(-0.166517 -0.0360646 0)
(-0.190239 -0.0351196 0)
(-0.213131 -0.0336963 0)
(-0.234915 -0.0319003 0)
(-0.255381 -0.0298254 0)
(-0.274377 -0.0275519 0)
(-0.291802 -0.0251467 0)
(-0.307591 -0.0226628 0)
(-0.321712 -0.0201405 0)
(-0.334154 -0.0176083 0)
(-0.344923 -0.0150842 0)
(-0.35403 -0.0125771 0)
(-0.361492 -0.0100883 0)
(-0.367321 -0.00761302 0)
(-0.371526 -0.00514156 0)
(-0.374106 -0.00266104 0)
(-0.375052 -0.000156696 0)
(-0.374343 0.00238671 0)
(-0.371949 0.00498336 0)
(-0.367829 0.00764488 0)
(-0.361935 0.0103787 0)
(-0.354217 0.0131865 0)
(-0.344623 0.0160621 0)
(-0.333109 0.0189899 0)
(-0.319643 0.0219431 0)
(-0.304214 0.0248816 0)
(-0.286842 0.0277511 0)
(-0.267587 0.0304814 0)
(-0.246561 0.0329866 0)
(-0.223937 0.0351651 0)
(-0.199964 0.0369013 0)
(-0.174969 0.038069 0)
(-0.149372 0.0385353 0)
(-0.123681 0.038167 0)
(-0.0984966 0.0368381 0)
(-0.0745043 0.0344379 0)
(-0.0524626 0.0308804 0)
(-0.0331673 0.0261125 0)
(-0.0173987 0.0201205 0)
(-0.00613063 0.0129341 0)
(-0.00088503 0.00463494 0)
(-0.000891966 -0.0015383 0)
(-0.00603536 -0.0042229 0)
(-0.0169482 -0.00649709 0)
(-0.0320821 -0.00835822 0)
(-0.0504695 -0.00981668 0)
(-0.0713697 -0.0108931 0)
(-0.0940519 -0.0116164 0)
(-0.117838 -0.0120218 0)
(-0.142127 -0.0121481 0)
(-0.166403 -0.012036 0)
(-0.190229 -0.0117254 0)
(-0.213249 -0.0112547 0)
(-0.235181 -0.0106589 0)