/*--------------------------------*- C++ -*----------------------------------*\
  =========                 |
  \\      /  F ield         | OpenFOAM: The Open Source CFD Toolbox
   \\    /   O peration     | Website:  https://openfoam.org
    \\  /    A nd           | Version:  7
     \\/     M anipulation  |
\*---------------------------------------------------------------------------*/
FoamFile
{
    version     2.0;
    format      ascii;
    class       volVectorField;
    location    "0.0136";
    object      U;
}
// * * * * * * * * * * * * * * * * * * * * * * * * * * * * * * * * * * * * * //

dimensions      [0 1 -1 0 0 0 0];

internalField   nonuniform List<vector> 
2500
(
(-0.293894 0.153809 0)
(-0.398118 0.128772 0)
(-0.578027 0.0737596 0)
(-0.69596 0.0407669 0)
(-0.764382 0.0232262 0)
(-0.807985 0.0139262 0)
(-0.837708 0.00890478 0)
(-0.858831 0.00607005 0)
(-0.874413 0.004362 0)
(-0.886263 0.00325986 0)
(-0.895479 0.0025049 0)
(-0.902759 0.00196265 0)
(-0.908578 0.00155883 0)
(-0.913266 0.00124968 0)
(-0.917062 0.00100778 0)
(-0.920145 0.000814985 0)
(-0.922646 0.00065874 0)
(-0.924668 0.000530047 0)
(-0.926288 0.000422258 0)
(-0.927566 0.00033034 0)
(-0.928546 0.000250389 0)
(-0.929264 0.000179307 0)
(-0.929744 0.000114572 0)
(-0.930004 5.40606e-05 0)
(-0.930053 -4.08268e-06 0)
(-0.929897 -6.15911e-05 0)
(-0.929534 -0.00012013 0)
(-0.928957 -0.000181432 0)
(-0.928153 -0.000247394 0)
(-0.927102 -0.000320194 0)
(-0.925775 -0.000402435 0)
(-0.924137 -0.000497315 0)
(-0.922137 -0.000608876 0)
(-0.919713 -0.00074234 0)
(-0.916782 -0.000904612 0)
(-0.91324 -0.00110507 0)
(-0.908948 -0.00135685 0)
(-0.903722 -0.00167909 0)
(-0.897318 -0.002101 0)
(-0.889394 -0.0026697 0)
(-0.879469 -0.00346587 0)
(-0.866825 -0.00463587 0)
(-0.850342 -0.00645905 0)
(-0.828186 -0.00948653 0)
(-0.797313 -0.0148043 0)
(-0.752552 -0.0244627 0)
(-0.683152 -0.0421892 0)
(-0.565442 -0.0747204 0)
(-0.389592 -0.128251 0)
(-0.290279 -0.152438 0)
(-0.00520841 0.303074 0)
(-0.0269375 0.307237 0)
(-0.170483 0.217256 0)
(-0.306097 0.145634 0)
(-0.413274 0.0979108 0)
(-0.496351 0.0673642 0)
(-0.560247 0.0478861 0)
(-0.609441 0.0351738 0)
(-0.647686 0.0265684 0)
(-0.677773 0.0205179 0)
(-0.701699 0.0161166 0)
(-0.720899 0.0128216 0)
(-0.736417 0.0102953 0)
(-0.749025 0.00831973 0)
(-0.759299 0.00674821 0)
(-0.76768 0.0054788 0)
(-0.774503 0.0044383 0)
(-0.78003 0.00357274 0)
(-0.784461 0.00284132 0)
(-0.787952 0.00221256 0)
(-0.790623 0.00166162 0)
(-0.792565 0.00116848 0)
(-0.793843 0.000716578 0)
(-0.794503 0.000291773 0)
(-0.794573 -0.000118464 0)
(-0.794065 -0.000525784 0)
(-0.792973 -0.00094157 0)
(-0.791278 -0.00137756 0)
(-0.788943 -0.00184649 0)
(-0.785913 -0.00236279 0)
(-0.782112 -0.00294339 0)
(-0.777442 -0.00360876 0)
(-0.771773 -0.00438428 0)
(-0.76494 -0.00530203 0)
(-0.756732 -0.00640346 0)
(-0.746882 -0.00774333 0)
(-0.735048 -0.00939574 0)
(-0.720787 -0.0114638 0)
(-0.703525 -0.0140956 0)
(-0.682502 -0.0175112 0)
(-0.656703 -0.0220504 0)
(-0.624747 -0.0282558 0)
(-0.584746 -0.0370223 0)
(-0.534109 -0.0498566 0)
(-0.46946 -0.0692738 0)
(-0.386911 -0.0991988 0)
(-0.282274 -0.145014 0)
(-0.152107 -0.212856 0)
(-0.0168369 -0.298594 0)
(-0.00110304 -0.294946 0)
(0.032167 0.264059 0)
(0.0569911 0.3615 0)
(-0.00157224 0.323049 0)
(-0.091605 0.257556 0)
(-0.185053 0.196977 0)
(-0.270317 0.14918 0)
(-0.343387 0.113638 0)
(-0.404161 0.0875927 0)
(-0.454097 0.0683983 0)
(-0.494978 0.0540571 0)
(-0.528451 0.0431645 0)
(-0.555903 0.0347532 0)
(-0.57846 0.0281564 0)
(-0.597021 0.0229084 0)
(-0.612299 0.0186775 0)
(-0.624858 0.0152229 0)
(-0.635145 0.0123658 0)
(-0.643515 0.00997106 0)
(-0.650248 0.00793425 0)
(-0.655562 0.00617344 0)
(-0.65963 0.00462303 0)
(-0.662581 0.00322948 0)
(-0.664511 0.00194802 0)
(-0.665487 0.000740065 0)
(-0.665549 -0.000428804 0)
(-0.664713 -0.00159066 0)
(-0.662974 -0.00277686 0)
(-0.660301 -0.00401962 0)
(-0.656643 -0.00535361 0)
(-0.651919 -0.00681766 0)
(-0.646023 -0.00845684 0)
(-0.638813 -0.0103248 0)
(-0.630111 -0.012487 0)
(-0.619691 -0.0150246 0)
(-0.60727 -0.0180405 0)
(-0.5925 -0.0216671 0)
(-0.574946 -0.0260782 0)
(-0.55407 -0.0315065 0)
(-0.529206 -0.03827 0)
(-0.499532 -0.0468115 0)
(-0.464039 -0.0577588 0)
(-0.421521 -0.0720102 0)
(-0.370604 -0.0908486 0)
(-0.309897 -0.116061 0)
(-0.238458 -0.149947 0)
(-0.156937 -0.194773 0)
(-0.0696497 -0.25062 0)
(0.0120462 -0.310036 0)
(0.0617532 -0.343828 0)
(0.0329314 -0.250409 0)
(0.0273056 0.20482 0)
(0.0648363 0.355675 0)
(0.058315 0.371559 0)
(0.0141203 0.332568 0)
(-0.0495027 0.278307 0)
(-0.118348 0.226095 0)
(-0.184395 0.181695 0)
(-0.244006 0.145788 0)
(-0.296048 0.117308 0)
(-0.340642 0.0948211 0)
(-0.378447 0.0770144 0)
(-0.410298 0.0628211 0)
(-0.437027 0.0514145 0)
(-0.459391 0.0421648 0)
(-0.478046 0.0345934 0)
(-0.493545 0.0283342 0)
(-0.50635 0.0231043 0)
(-0.51684 0.0186827 0)
(-0.525323 0.0148946 0)
(-0.532047 0.0115996 0)
(-0.537208 0.00868321 0)
(-0.540956 0.00605081 0)
(-0.543406 0.00362216 0)
(-0.544636 0.00132755 0)
(-0.544694 -0.000895661 0)
(-0.543602 -0.003106 0)
(-0.541353 -0.00536061 0)
(-0.537913 -0.00771786 0)
(-0.533222 -0.01024 0)
(-0.52719 -0.012996 0)
(-0.519695 -0.0160647 0)
(-0.510582 -0.0195382 0)
(-0.499654 -0.0235271 0)
(-0.486669 -0.0281655 0)
(-0.471335 -0.0336187 0)
(-0.453301 -0.0400934 0)
(-0.432151 -0.047851 0)
(-0.407401 -0.0572262 0)
(-0.378495 -0.0686508 0)
(-0.344819 -0.0826848 0)
(-0.305735 -0.100051 0)
(-0.260667 -0.121665 0)
(-0.209279 -0.14862 0)
(-0.151822 -0.182058 0)
(-0.0897671 -0.222716 0)
(-0.0268747 -0.269683 0)
(0.0292101 -0.317467 0)
(0.06544 -0.350314 0)
(0.0657412 -0.332418 0)
(0.0268181 -0.19052 0)
(0.0186794 0.162381 0)
(0.0545607 0.327599 0)
(0.0726219 0.380013 0)
(0.0607303 0.36994 0)
(0.0258715 0.331835 0)
(-0.0213836 0.285327 0)
(-0.0730312 0.239981 0)
(-0.124029 0.199635 0)
(-0.171597 0.165269 0)
(-0.214462 0.136611 0)
(-0.252254 0.112933 0)
(-0.285092 0.0934213 0)
(-0.313338 0.0773207 0)
(-0.337446 0.0639852 0)
(-0.357882 0.0528798 0)
(-0.375088 0.0435679 0)
(-0.389458 0.0356948 0)
(-0.401335 0.0289721 0)
(-0.411011 0.0231637 0)
(-0.418726 0.0180754 0)
(-0.424677 0.0135452 0)
(-0.429017 0.00943674 0)
(-0.431865 0.00563277 0)
(-0.433303 0.00203027 0)
(-0.433384 -0.00146395 0)
(-0.432132 -0.00493724 0)
(-0.42954 -0.00847474 0)
(-0.425579 -0.0121629 0)
(-0.420187 -0.0160929 0)
(-0.413278 -0.0203644 0)
(-0.404733 -0.0250894 0)
(-0.394403 -0.0303964 0)
(-0.382106 -0.0364357 0)
(-0.367624 -0.0433851 0)
(-0.350702 -0.0514569 0)
(-0.331053 -0.0609068 0)
(-0.30836 -0.0720438 0)
(-0.282286 -0.0852412 0)
(-0.252503 -0.100948 0)
(-0.218733 -0.119692 0)
(-0.180831 -0.142072 0)
(-0.138919 -0.168706 0)
(-0.0936159 -0.200086 0)
(-0.0463838 -0.236257 0)
(-2.55653e-05 -0.276116 0)
(0.0407365 -0.316042 0)
(0.0687343 -0.347431 0)
(0.0747917 -0.352893 0)
(0.0535482 -0.301821 0)
(0.0179237 -0.148874 0)
(0.0122242 0.132754 0)
(0.0425459 0.294382 0)
(0.0700702 0.367554 0)
(0.0776473 0.381245 0)
(0.0648566 0.361236 0)
(0.03759 0.325412 0)
(0.00193628 0.284554 0)
(-0.0372867 0.244441 0)
(-0.0767366 0.20776 0)
(-0.114346 0.175465 0)
(-0.148984 0.147621 0)
(-0.180145 0.123881 0)
(-0.207708 0.103746 0)
(-0.231776 0.0866899 0)
(-0.252564 0.07222 0)
(-0.27034 0.0598976 0)
(-0.28538 0.0493422 0)
(-0.297947 0.0402287 0)
(-0.308278 0.0322802 0)
(-0.316581 0.0252616 0)
(-0.32303 0.0189716 0)
(-0.327766 0.0132372 0)
(-0.330898 0.00790707 0)
(-0.332508 0.0028467 0)
(-0.332646 -0.00206669 0)
(-0.331337 -0.00694852 0)
(-0.328581 -0.0119111 0)
(-0.32435 -0.0170677 0)
(-0.318595 -0.0225365 0)
(-0.31124 -0.0284447 0)
(-0.302185 -0.0349321 0)
(-0.291306 -0.0421561 0)
(-0.278458 -0.0502954 0)
(-0.263473 -0.0595549 0)
(-0.24617 -0.0701704 0)
(-0.226362 -0.0824127 0)
(-0.203869 -0.0965905 0)
(-0.178548 -0.11305 0)
(-0.150328 -0.132165 0)
(-0.119273 -0.154317 0)
(-0.0856802 -0.179832 0)
(-0.0502148 -0.208872 0)
(-0.0141049 -0.241211 0)
(0.0206144 -0.275827 0)
(0.0508595 -0.310201 0)
(0.0723952 -0.339183 0)
(0.0800733 -0.353373 0)
(0.0691392 -0.337247 0)
(0.0407765 -0.268207 0)
(0.0115211 -0.120355 0)
(0.00816375 0.111278 0)
(0.0329523 0.262586 0)
(0.0625731 0.345623 0)
(0.0805572 0.376248 0)
(0.0827987 0.37235 0)
(0.0714768 0.348524 0)
(0.0503766 0.315039 0)
(0.0232801 0.278402 0)
(-0.00667881 0.242367 0)
(-0.0372043 0.208868 0)
(-0.0667644 0.178728 0)
(-0.0944241 0.152134 0)
(-0.119677 0.128938 0)
(-0.142303 0.108828 0)
(-0.16227 0.0914332 0)
(-0.17965 0.0763746 0)
(-0.194578 0.063294 0)
(-0.20721 0.0518643 0)
(-0.217709 0.0417936 0)
(-0.226228 0.0328236 0)
(-0.232904 0.0247271 0)
(-0.237851 0.0173035 0)
(-0.241162 0.0103741 0)
(-0.242909 0.00377795 0)
(-0.243137 -0.00263349 0)
(-0.241873 -0.00900023 0)
(-0.239119 -0.0154584 0)
(-0.234857 -0.0221441 0)
(-0.229051 -0.029198 0)
(-0.221646 -0.0367685 0)
(-0.212569 -0.0450155 0)
(-0.201734 -0.0541143 0)
(-0.189046 -0.0642578 0)
(-0.174403 -0.0756588 0)
(-0.157712 -0.0885512 0)
(-0.1389 -0.103188 0)
(-0.117935 -0.119835 0)
(-0.0948571 -0.138759 0)
(-0.0698275 -0.160199 0)
(-0.0431869 -0.184321 0)
(-0.0155423 -0.211125 0)
(0.0121255 -0.240303 0)
(0.0383392 -0.270991 0)
(0.0610135 -0.301382 0)
(0.0774334 -0.328152 0)
(0.0844597 -0.345688 0)
(0.0791002 -0.345229 0)
(0.0598746 -0.314283 0)
(0.0309473 -0.237287 0)
(0.00757084 -0.100071 0)
(0.00572433 0.0951771 0)
(0.0259974 0.234152 0)
(0.0545104 0.320218 0)
(0.0773058 0.361746 0)
(0.0889683 0.370636 0)
(0.0892891 0.358065 0)
(0.080093 0.332932 0)
(0.063927 0.301614 0)
(0.0433228 0.268314 0)
(0.0204136 0.23559 0)
(-0.00317551 0.204862 0)
(-0.0262958 0.176803 0)
(-0.0481893 0.151629 0)
(-0.0683949 0.129283 0)
(-0.0866643 0.109566 0)
(-0.102894 0.0922039 0)
(-0.117074 0.0769005 0)
(-0.129251 0.0633591 0)
(-0.139501 0.0512977 0)
(-0.147913 0.0404553 0)
(-0.154574 0.0305936 0)
(-0.159567 0.0214961 0)
(-0.162961 0.012966 0)
(-0.164811 0.00482286 0)
(-0.165157 -0.00310124 0)
(-0.164023 -0.0109655 0)
(-0.161415 -0.0189246 0)
(-0.157327 -0.027132 0)
(-0.151738 -0.035744 0)
(-0.144618 -0.0449227 0)
(-0.135927 -0.0548391 0)
(-0.12562 -0.0656741 0)
(-0.113658 -0.0776205 0)
(-0.10001 -0.090881 0)
(-0.084671 -0.105665 0)
(-0.0676745 -0.122182 0)
(-0.0491197 -0.140626 0)
(-0.0292016 -0.161152 0)
(-0.00825281 -0.183837 0)
(0.0132045 -0.208613 0)
(0.0343966 -0.235173 0)
(0.0542346 -0.262812 0)
(0.0712629 -0.290204 0)
(0.0836571 -0.315088 0)
(0.0893425 -0.333866 0)
(0.0863325 -0.341159 0)
(0.0733433 -0.329483 0)
(0.0508716 -0.289351 0)
(0.023963 -0.21042 0)
(0.00522482 -0.0851407 0)
(0.00423277 0.0826555 0)
(0.0210099 0.209276 0)
(0.0472315 0.294388 0)
(0.071628 0.342232 0)
(0.0887186 0.360539 0)
(0.0969876 0.357544 0)
(0.0968534 0.340534 0)
(0.0897566 0.31527 0)
(0.0775139 0.285946 0)
(0.0618902 0.255408 0)
(0.0443916 0.225463 0)
(0.0262033 0.197164 0)
(0.00820147 0.171046 0)
(-0.00900074 0.147308 0)
(-0.0249993 0.125935 0)
(-0.0395475 0.106786 0)
(-0.0525099 0.0896516 0)
(-0.0638288 0.0742913 0)
(-0.073496 0.0604549 0)
(-0.0815335 0.0478965 0)
(-0.0879787 0.0363818 0)
(-0.0928751 0.0256911 0)
(-0.0962649 0.0156195 0)
(-0.0981852 0.00597564 0)
(-0.0986654 -0.00342062 0)
(-0.0977259 -0.012741 0)
(-0.0953784 -0.0221519 0)
(-0.0916263 -0.0318178 0)
(-0.0864665 -0.0419035 0)
(-0.0798922 -0.0525769 0)
(-0.071897 -0.0640098 0)
(-0.06248 -0.0763788 0)
(-0.0516533 -0.0898633 0)
(-0.0394521 -0.104642 0)
(-0.0259478 -0.120883 0)
(-0.0112655 -0.138736 0)
(0.00439416 -0.158307 0)
(0.0207272 -0.179629 0)
(0.0372938 -0.202615 0)
(0.0534822 -0.22699 0)
(0.0684737 -0.25219 0)
(0.081219 -0.277226 0)
(0.0904441 -0.300502 0)
(0.094717 -0.319586 0)
(0.09263 -0.330966 0)
(0.0831542 -0.329857 0)
(0.0661596 -0.310185 0)
(0.0431493 -0.264971 0)
(0.0190314 -0.187459 0)
(0.00380349 -0.0737298 0)
(0.00327527 0.0725827 0)
(0.0173513 0.187618 0)
(0.0409852 0.2696 0)
(0.0652187 0.320528 0)
(0.0850526 0.345353 0)
(0.0983895 0.350008 0)
(0.104754 0.34025 0)
(0.10473 0.321025 0)
(0.0994692 0.296233 0)
(0.0903001 0.26875 0)
(0.0784949 0.240574 0)
(0.0651534 0.21301 0)
(0.0511637 0.186843 0)
(0.0372065 0.162491 0)
(0.0237797 0.140117 0)
(0.0112319 0.119717 0)
(-0.000204609 0.101183 0)
(-0.0103845 0.084346 0)
(-0.019225 0.069003 0)
(-0.026686 0.0549386 0)
(-0.0327555 0.0419359 0)
(-0.0374386 0.029783 0)
(-0.0407494 0.0182771 0)
(-0.0427056 0.00722454 0)
(-0.043325 -0.00355906 0)
(-0.0426241 -0.0142508 0)
(-0.0406169 -0.0250224 0)
(-0.0373161 -0.0360419 0)
(-0.0327348 -0.0474757 0)
(-0.026889 -0.0594897 0)
(-0.0198026 -0.0722486 0)
(-0.0115127 -0.0859152 0)
(-0.00207749 -0.100646 0)
(0.00841358 -0.116584 0)
(0.0198275 -0.133851 0)
(0.0319722 -0.152525 0)
(0.0445779 -0.172622 0)
(0.0572768 -0.194059 0)
(0.0695806 -0.216604 0)
(0.0808615 -0.239815 0)
(0.0903403 -0.262943 0)
(0.0970945 -0.28483 0)
(0.1001 -0.303768 0)
(0.09833 -0.317357 0)
(0.0909519 -0.322381 0)
(0.0776349 -0.314766 0)
(0.058938 -0.289729 0)
(0.0367607 -0.242222 0)
(0.0154695 -0.167862 0)
(0.00290024 -0.0646987 0)
(0.00262245 0.0642689 0)
(0.0145715 0.168747 0)
(0.0356711 0.246508 0)
(0.058804 0.298345 0)
(0.0796312 0.327395 0)
(0.0959045 0.337881 0)
(0.106646 0.334249 0)
(0.11184 0.320606 0)
(0.112091 0.300416 0)
(0.108314 0.276413 0)
(0.101504 0.250633 0)
(0.092606 0.224511 0)
(0.0824472 0.199004 0)
(0.0717091 0.1747 0)
(0.060929 0.151914 0)
(0.0505144 0.130773 0)
(0.0407642 0.11127 0)
(0.0318892 0.093313 0)
(0.0240328 0.0767572 0)
(0.0172876 0.0614278 0)
(0.0117095 0.0471352 0)
(0.00732886 0.0336858 0)
(0.00415845 0.0208873 0)
(0.0021997 0.00855221 0)
(0.00144657 -0.00350103 0)
(0.0018879 -0.0154479 0)
(0.0035083 -0.0274585 0)
(0.00628772 -0.0396985 0)
(0.0101999 -0.0523291 0)
(0.0152091 -0.0655075 0)
(0.0212665 -0.0793847 0)
(0.0283039 -0.0941028 0)
(0.0362265 -0.109789 0)
(0.0449043 -0.126547 0)
(0.0541608 -0.144443 0)
(0.0637607 -0.163489 0)
(0.0733964 -0.183617 0)
(0.0826745 -0.20464 0)
(0.0911043 -0.226214 0)
(0.0980922 -0.24777 0)
(0.102949 -0.268452 0)
(0.104915 -0.287024 0)
(0.103225 -0.301786 0)
(0.0972104 -0.310492 0)
(0.0864801 -0.310312 0)
(0.0711655 -0.297874 0)
(0.0521845 -0.269475 0)
(0.031491 -0.221489 0)
(0.0128085 -0.151076 0)
(0.0022919 -0.0573539 0)
(0.00214985 0.0572852 0)
(0.0123789 0.152273 0)
(0.0311149 0.225362 0)
(0.0526697 0.2767 0)
(0.073371 0.308255 0)
(0.0910511 0.323008 0)
(0.104498 0.324349 0)
(0.11331 0.315614 0)
(0.117687 0.299788 0)
(0.118186 0.279362 0)
(0.115532 0.256302 0)
(0.11049 0.232081 0)
(0.103783 0.20775 0)
(0.0960463 0.184017 0)
(0.0878136 0.161316 0)
(0.0795149 0.139885 0)
(0.071486 0.119811 0)
(0.063981 0.101079 0)
(0.057187 0.0836057 0)
(0.0512375 0.0672627 0)
(0.0462245 0.0518953 0)
(0.0422082 0.0373347 0)
(0.0392255 0.0234068 0)
(0.0372951 0.00993708 0)
(0.0364227 -0.00324654 0)
(0.0366026 -0.0163118 0)
(0.0378198 -0.0294214 0)
(0.0400492 -0.0427326 0)
(0.0432542 -0.0563964 0)
(0.0473847 -0.0705558 0)
(0.0523725 -0.085343 0)
(0.0581265 -0.100875 0)
(0.0645263 -0.117247 0)
(0.0714148 -0.13452 0)
(0.0785896 -0.15271 0)
(0.0857938 -0.171765 0)
(0.0927078 -0.191543 0)
(0.0989419 -0.211776 0)
(0.104034 -0.232036 0)
(0.107456 -0.251677 0)
(0.108628 -0.26979 0)
(0.106961 -0.285135 0)
(0.101919 -0.296097 0)
(0.0931234 -0.300647 0)
(0.0804953 -0.296354 0)
(0.0644438 -0.280478 0)
(0.0460317 -0.250172 0)
(0.027096 -0.202839 0)
(0.010747 -0.136636 0)
(0.00185763 -0.0512641 0)
(0.0017892 0.0513535 0)
(0.0105895 0.137877 0)
(0.027157 0.206221 0)
(0.0469108 0.256192 0)
(0.0667824 0.289005 0)
(0.0847948 0.306756 0)
(0.0996706 0.312009 0)
(0.11079 0.307438 0)
(0.118068 0.295561 0)
(0.121781 0.278587 0)
(0.122417 0.258343 0)
(0.120561 0.236272 0)
(0.116813 0.213457 0)
(0.111736 0.190676 0)
(0.105829 0.16845 0)
(0.0995168 0.147104 0)
(0.0931456 0.126806 0)
(0.0869924 0.107614 0)
(0.0812718 0.0895018 0)
(0.0761456 0.0723911 0)
(0.0717327 0.0561651 0)
(0.0681171 0.0406853 0)
(0.0653549 0.0258008 0)
(0.0634802 0.0113554 0)
(0.062509 -0.00280821 0)
(0.0624414 -0.0168448 0)
(0.063264 -0.0309048 0)
(0.0649488 -0.0451327 0)
(0.067453 -0.0596647 0)
(0.0707163 -0.074626 0)
(0.0746578 -0.090127 0)
(0.0791719 -0.106258 0)
(0.0841229 -0.123079 0)
(0.0893391 -0.140612 0)
(0.0946075 -0.158826 0)
(0.0996672 -0.177613 0)
(0.104206 -0.196772 0)
(0.107858 -0.215976 0)
(0.110208 -0.23474 0)
(0.110806 -0.252379 0)
(0.109187 -0.267975 0)
(0.104916 -0.280336 0)
(0.0976476 -0.287971 0)
(0.0872174 -0.289089 0)
(0.0737536 -0.281637 0)
(0.0578107 -0.263406 0)
(0.040468 -0.232218 0)
(0.0233718 -0.186206 0)
(0.00909487 -0.124177 0)
(0.0015311 -0.0461497 0)
(0.00150209 0.0462848 0)
(0.00908742 0.125304 0)
(0.0236733 0.189052 0)
(0.0415446 0.237161 0)
(0.0601548 0.270358 0)
(0.0777584 0.290114 0)
(0.0931144 0.298363 0)
(0.105499 0.29723 0)
(0.114646 0.288811 0)
(0.120623 0.275026 0)
(0.123725 0.257533 0)
(0.124374 0.237694 0)
(0.123046 0.216583 0)
(0.12022 0.195006 0)
(0.116342 0.17354 0)
(0.111808 0.152572 0)
(0.106959 0.132337 0)
(0.102076 0.112954 0)
(0.0973854 0.0944535 0)
(0.0930667 0.0768024 0)
(0.0892559 0.0599242 0)
(0.0860538 0.0437128 0)
(0.0835313 0.0280438 0)
(0.0817346 0.0127831 0)
(0.0806882 -0.00220776 0)
(0.0803984 -0.0170669 0)
(0.0808538 -0.0319289 0)
(0.0820261 -0.0469219 0)
(0.0838692 -0.0621644 0)
(0.0863178 -0.0777614 0)
(0.0892843 -0.0937998 0)
(0.0926559 -0.110342 0)
(0.0962906 -0.127416 0)
(0.100013 -0.145008 0)
(0.103612 -0.163042 0)
(0.106835 -0.181368 0)
(0.109391 -0.19974 0)
(0.11095 -0.217788 0)
(0.111154 -0.234995 0)
(0.10963 -0.250669 0)
(0.106021 -0.263913 0)
(0.10002 -0.27361 0)
(0.0914326 -0.278414 0)
(0.0802431 -0.276764 0)
(0.066704 -0.266945 0)
(0.051427 -0.247183 0)
(0.0354356 -0.215808 0)
(0.0201642 -0.171474 0)
(0.00773143 -0.113416 0)
(0.00127477 -0.0418222 0)
(0.001266 0.0419441 0)
(0.00779875 0.11435 0)
(0.0205731 0.17378 0)
(0.0365604 0.219785 0)
(0.0536561 0.252777 0)
(0.070351 0.273788 0)
(0.0854958 0.284273 0)
(0.098341 0.285915 0)
(0.108514 0.280448 0)
(0.115941 0.269518 0)
(0.120767 0.254601 0)
(0.123277 0.236958 0)
(0.123832 0.217617 0)
(0.122824 0.197385 0)
(0.120637 0.176866 0)
(0.11763 0.15649 0)
(0.11412 0.136541 0)
(0.110379 0.117188 0)
(0.106636 0.0985116 0)
(0.103075 0.0805211 0)
(0.0998416 0.0631783 0)
(0.0970461 0.04641 0)
(0.0947698 0.03012 0)
(0.0930672 0.0141983 0)
(0.0919703 -0.00147232 0)
(0.0914902 -0.0170107 0)
(0.0916187 -0.032533 0)
(0.0923289 -0.0481489 0)
(0.0935746 -0.0639573 0)
(0.0952892 -0.0800422 0)
(0.0973839 -0.0964666 0)
(0.0997452 -0.113266 0)
(0.102232 -0.130439 0)
(0.104675 -0.147937 0)
(0.106872 -0.165652 0)
(0.108589 -0.183397 0)
(0.109564 -0.200893 0)
(0.109508 -0.217746 0)
(0.108121 -0.233428 0)
(0.105104 -0.247255 0)
(0.100192 -0.258375 0)
(0.093183 -0.265758 0)
(0.0839896 -0.268203 0)
(0.0726946 -0.264366 0)
(0.0596149 -0.252815 0)
(0.0453625 -0.232127 0)
(0.0308687 -0.201018 0)
(0.0173609 -0.158514 0)
(0.00657886 -0.104131 0)
(0.00106662 -0.0381482 0)
(0.00106718 0.0382303 0)
(0.00667497 0.104845 0)
(0.0177906 0.160309 0)
(0.0319384 0.204142 0)
(0.0473848 0.236554 0)
(0.0628446 0.258265 0)
(0.0772864 0.270375 0)
(0.0899841 0.274217 0)
(0.100516 0.271217 0)
(0.108719 0.26278 0)
(0.114628 0.250204 0)
(0.118416 0.234635 0)
(0.120348 0.217041 0)
(0.120733 0.198205 0)
(0.119893 0.178737 0)
(0.118139 0.159092 0)
(0.115758 0.13959 0)
(0.113006 0.120439 0)
(0.110099 0.101758 0)
(0.107222 0.0835977 0)
(0.104519 0.0659537 0)
(0.102108 0.0487847 0)
(0.100072 0.0320226 0)
(0.0984741 0.0155822 0)
(0.0973495 -0.000631154 0)
(0.0967141 -0.0167158 0)
(0.0965632 -0.0327683 0)
(0.0968726 -0.0488787 0)
(0.0975986 -0.0651258 0)
(0.0986768 -0.0815721 0)
(0.100021 -0.0982575 0)
(0.101523 -0.115192 0)
(0.103049 -0.132349 0)
(0.104439 -0.149651 0)
(0.105509 -0.16696 0)
(0.106048 -0.184065 0)
(0.105825 -0.200664 0)
(0.104597 -0.216351 0)
(0.102116 -0.230598 0)
(0.098151 -0.242748 0)
(0.092509 -0.251999 0)
(0.0850689 -0.257414 0)
(0.0758181 -0.257931 0)
(0.0648972 -0.252392 0)
(0.0526454 -0.239606 0)
(0.0396409 -0.218426 0)
(0.026707 -0.18786 0)
(0.0148801 -0.147198 0)
(0.00558564 -0.0961478 0)
(0.000893068 -0.0350299 0)
(0.000896798 0.0350646 0)
(0.00568321 0.0966479 0)
(0.0152776 0.148535 0)
(0.0276566 0.190246 0)
(0.0413978 0.22186 0)
(0.0554198 0.243877 0)
(0.0688189 0.257133 0)
(0.0809218 0.262688 0)
(0.0912982 0.261716 0)
(0.0997329 0.255411 0)
(0.106186 0.244909 0)
(0.110748 0.231242 0)
(0.113602 0.215304 0)
(0.114983 0.197844 0)
(0.115154 0.179464 0)
(0.114379 0.160627 0)
(0.11291 0.141675 0)
(0.110976 0.122848 0)
(0.108781 0.104296 0)
(0.106496 0.0861016 0)
(0.104266 0.0682926 0)
(0.102202 0.0508569 0)
(0.100394 0.0337533 0)
(0.0989036 0.0169209 0)
(0.0977708 0.000287246 0)
(0.0970148 -0.016225 0)
(0.0966343 -0.0326924 0)
(0.096609 -0.0491853 0)
(0.0968992 -0.0657627 0)
(0.0974457 -0.0824664 0)
(0.0981688 -0.0993148 0)
(0.0989679 -0.116295 0)
(0.0997207 -0.133357 0)
(0.100283 -0.1504 0)
(0.10049 -0.167263 0)
(0.100159 -0.183717 0)
(0.0990912 -0.199447 0)
(0.0970841 -0.214042 0)
(0.0939396 -0.226987 0)
(0.0894812 -0.237654 0)
(0.0835753 -0.245298 0)
(0.0761577 -0.249072 0)
(0.0672639 -0.248035 0)
(0.0570623 -0.241194 0)
(0.0458865 -0.227552 0)
(0.034261 -0.206179 0)
(0.0228977 -0.176303 0)
(0.0126617 -0.137407 0)
(0.00471638 -0.0893238 0)
(0.000745367 -0.0323926 0)
(0.000748853 0.0323833 0)
(0.00480006 0.0896357 0)
(0.0129973 0.138353 0)
(0.023692 0.17807 0)
(0.0357239 0.208782 0)
(0.0481934 0.230836 0)
(0.0603239 0.244872 0)
(0.0715115 0.251739 0)
(0.0813432 0.252409 0)
(0.0895821 0.247896 0)
(0.096141 0.239193 0)
(0.101051 0.227223 0)
(0.10443 0.212809 0)
(0.106453 0.196655 0)
(0.107327 0.179344 0)
(0.10727 0.161338 0)
(0.106498 0.142994 0)
(0.105212 0.124569 0)
(0.103595 0.106239 0)
(0.101805 0.0881136 0)
(0.099977 0.0702481 0)
(0.0982189 0.0526561 0)
(0.0966162 0.0353211 0)
(0.0952314 0.0182051 0)
(0.0941059 0.00125717 0)
(0.0932611 -0.0155799 0)
(0.0926994 -0.0323634 0)
(0.0924047 -0.0491446 0)
(0.0923429 -0.0659636 0)
(0.0924616 -0.082843 0)
(0.0926899 -0.0997813 0)
(0.0929383 -0.116746 0)
(0.0930987 -0.133667 0)
(0.0930447 -0.150423 0)
(0.0926337 -0.166838 0)
(0.0917091 -0.182669 0)
(0.0901063 -0.197593 0)
(0.0876594 -0.211203 0)
(0.0842127 -0.222999 0)
(0.0796344 -0.232387 0)
(0.0738353 -0.238679 0)
(0.0667898 -0.241106 0)
(0.0585605 -0.238837 0)
(0.049322 -0.231014 0)
(0.0393839 -0.216798 0)
(0.0292069 -0.195429 0)
(0.0193943 -0.1663 0)
(0.0106593 -0.12903 0)
(0.00394568 -0.0835427 0)
(0.00061755 -0.0301777 0)
(0.000619032 0.0301337 0)
(0.00400785 0.0837024 0)
(0.0109194 0.129659 0)
(0.0200203 0.167561 0)
(0.0303718 0.197351 0)
(0.0412352 0.21927 0)
(0.0519553 0.233814 0)
(0.0620054 0.241669 0)
(0.0710067 0.243647 0)
(0.078722 0.240615 0)
(0.0850389 0.233443 0)
(0.0899477 0.222955 0)
(0.0935177 0.209904 0)
(0.0958737 0.19495 0)
(0.097175 0.178649 0)
(0.0975976 0.161458 0)
(0.0973212 0.143735 0)
(0.0965186 0.125752 0)
(0.0953492 0.107703 0)
(0.0939545 0.08972 0)
(0.0924562 0.0718793 0)
(0.0909552 0.0542178 0)
(0.0895314 0.0367406 0)
(0.0882453 0.0194308 0)
(0.0871377 0.00225709 0)
(0.0862317 -0.014819 0)
(0.0855328 -0.0318367 0)
(0.0850296 -0.0488297 0)
(0.0846943 -0.0658206 0)
(0.0844828 -0.0828146 0)
(0.0843345 -0.0997929 0)
(0.0841728 -0.116706 0)
(0.0839053 -0.133465 0)
(0.083425 -0.149937 0)
(0.0826118 -0.16593 0)
(0.081336 -0.181193 0)
(0.0794631 -0.1954 0)
(0.0768608 -0.208152 0)
(0.0734085 -0.218965 0)
(0.0690097 -0.227279 0)
(0.0636067 -0.232456 0)
(0.0571983 -0.233798 0)
(0.0498577 -0.230567 0)
(0.0417509 -0.222016 0)
(0.0331518 -0.207431 0)
(0.024453 -0.186183 0)
(0.0161546 -0.157789 0)
(0.00883588 -0.121971 0)
(0.00325426 -0.0787084 0)
(0.000505307 -0.0283387 0)
(0.000504028 0.0282717 0)
(0.00329229 0.0787551 0)
(0.00901773 0.122354 0)
(0.016615 0.158652 0)
(0.0253346 0.187561 0)
(0.0345793 0.209247 0)
(0.0438078 0.224101 0)
(0.0525726 0.232688 0)
(0.0605396 0.235693 0)
(0.0674861 0.233865 0)
(0.0732908 0.227969 0)
(0.077919 0.218746 0)
(0.081405 0.206885 0)
(0.083834 0.192999 0)
(0.0853252 0.177621 0)
(0.0860171 0.161194 0)
(0.0860554 0.144074 0)
(0.0855843 0.126542 0)
(0.0847393 0.108804 0)
(0.0836432 0.091007 0)
(0.0824032 0.0732477 0)
(0.0811096 0.055581 0)
(0.0798356 0.0380309 0)
(0.078637 0.0205986 0)
(0.0775535 0.00327037 0)
(0.0766085 -0.0139755 0)
(0.0758103 -0.0311619 0)
(0.0751524 -0.0483069 0)
(0.0746137 -0.0654177 0)
(0.074159 -0.0824842 0)
(0.0737392 -0.0994725 0)
(0.0732916 -0.116319 0)
(0.0727404 -0.13292 0)
(0.0719983 -0.149131 0)
(0.0709678 -0.164751 0)
(0.0695446 -0.179522 0)
(0.0676217 -0.19312 0)
(0.0650961 -0.205151 0)
(0.061876 -0.215151 0)
(0.0578917 -0.222588 0)
(0.053107 -0.226869 0)
(0.0475331 -0.227357 0)
(0.0412423 -0.223389 0)
(0.0343812 -0.214307 0)
(0.0271815 -0.199495 0)
(0.0199659 -0.178426 0)
(0.0131384 -0.15071 0)
(0.00715953 -0.116141 0)
(0.00262665 -0.0747408 0)
(0.000405333 -0.0268379 0)
(0.000401149 0.0267602 0)
(0.00264109 0.0747133 0)
(0.00726771 0.116348 0)
(0.0134469 0.151273 0)
(0.0205925 0.179382 0)
(0.028232 0.200792 0)
(0.0359296 0.215819 0)
(0.0433164 0.224937 0)
(0.0501086 0.228734 0)
(0.0561079 0.227865 0)
(0.0611964 0.223011 0)
(0.0653264 0.214842 0)
(0.0685086 0.203991 0)
(0.0707978 0.191031 0)
(0.0722804 0.176467 0)
(0.0730619 0.160729 0)
(0.0732574 0.144169 0)
(0.0729833 0.127069 0)
(0.0723517 0.109645 0)
(0.0714654 0.0920566 0)
(0.0704159 0.0744132 0)
(0.0692817 0.0567856 0)
(0.0681272 0.0392133 0)
(0.0670028 0.0217128 0)
(0.0659453 0.00428533 0)
(0.0649781 -0.0130763 0)
(0.0641117 -0.0303811 0)
(0.0633441 -0.0476337 0)
(0.0626613 -0.0648279 0)
(0.0620375 -0.081941 0)
(0.0614354 -0.0989265 0)
(0.0608068 -0.115708 0)
(0.0600929 -0.132174 0)
(0.0592259 -0.148166 0)
(0.0581304 -0.163478 0)
(0.0567257 -0.177849 0)
(0.0549301 -0.190954 0)
(0.0526653 -0.202408 0)
(0.0498633 -0.211763 0)
(0.0464739 -0.218511 0)
(0.0424744 -0.222098 0)
(0.0378797 -0.221934 0)
(0.0327525 -0.217415 0)
(0.027213 -0.207954 0)
(0.0214464 -0.193011 0)
(0.0157063 -0.172135 0)
(0.0103067 -0.145005 0)
(0.00560185 -0.111468 0)
(0.00204967 -0.0715748 0)
(0.000314938 -0.0256454 0)
(0.000308073 0.0255682 0)
(0.00204309 0.0715078 0)
(0.00564561 0.111558 0)
(0.0104843 0.145351 0)
(0.0161154 0.172772 0)
(0.0221779 0.193906 0)
(0.028333 0.209015 0)
(0.0342883 0.218508 0)
(0.039813 0.222901 0)
(0.0447397 0.222778 0)
(0.0489623 0.218751 0)
(0.0524298 0.211435 0)
(0.0551377 0.201414 0)
(0.0571187 0.189229 0)
(0.0584321 0.175358 0)
(0.0591555 0.160218 0)
(0.0593763 0.144154 0)
(0.059185 0.127448 0)
(0.0586704 0.110322 0)
(0.0579159 0.0929431 0)
(0.0569965 0.0754316 0)
(0.0559774 0.0578699 0)
(0.0549136 0.0403099 0)
(0.0538488 0.0227804 0)
(0.0528162 0.00529488 0)
(0.0518383 -0.0121421 0)
(0.0509274 -0.0295282 0)
(0.0500858 -0.046857 0)
(0.0493065 -0.0641117 0)
(0.0485731 -0.0812589 0)
(0.0478606 -0.0982426 0)
(0.0471352 -0.114977 0)
(0.0463552 -0.131341 0)
(0.0454721 -0.14717 0)
(0.0444315 -0.162252 0)
(0.0431751 -0.176323 0)
(0.0416437 -0.189061 0)
(0.0397809 -0.200085 0)
(0.0375374 -0.20896 0)
(0.0348777 -0.2152 0)
(0.031786 -0.218276 0)
(0.0282745 -0.217636 0)
(0.0243902 -0.212722 0)
(0.0202221 -0.202999 0)
(0.0159066 -0.187984 0)
(0.0116296 -0.167282 0)
(0.00762009 -0.140623 0)
(0.00413628 -0.107892 0)
(0.00151155 -0.0691585 0)
(0.000231815 -0.0247375 0)
(0.000222715 0.0246707 0)
(0.00148775 0.0690816 0)
(0.00412781 0.107915 0)
(0.0076925 0.140821 0)
(0.011865 0.167685 0)
(0.0163844 0.188572 0)
(0.0210021 0.203708 0)
(0.0254994 0.213457 0)
(0.0296993 0.218283 0)
(0.0334693 0.218716 0)
(0.036721 0.215321 0)
(0.0394065 0.208667 0)
(0.0415134 0.199303 0)
(0.0430578 0.187737 0)
(0.0440779 0.174431 0)
(0.0446271 0.159785 0)
(0.0447679 0.14414 0)
(0.0445668 0.127775 0)
(0.0440906 0.110915 0)
(0.043403 0.0937309 0)
(0.0425623 0.0763519 0)
(0.0416204 0.0588686 0)
(0.0406215 0.041342 0)
(0.0396022 0.0238101 0)
(0.0385912 0.00629576 0)
(0.0376096 -0.0111876 0)
(0.0366708 -0.0286288 0)
(0.0357814 -0.0460131 0)
(0.034941 -0.0633157 0)
(0.0341429 -0.0804956 0)
(0.0333738 -0.0974891 0)
(0.0326147 -0.114204 0)
(0.0318408 -0.130511 0)
(0.0310223 -0.146243 0)
(0.0301252 -0.161182 0)
(0.0291124 -0.175062 0)
(0.0279455 -0.187561 0)
(0.0265869 -0.198303 0)
(0.0250033 -0.20686 0)
(0.0231694 -0.212761 0)
(0.0210724 -0.215496 0)
(0.0187167 -0.214538 0)
(0.0161298 -0.209362 0)
(0.0133664 -0.199469 0)
(0.0105124 -0.184415 0)
(0.00768712 -0.163845 0)
(0.00503913 -0.137524 0)
(0.00273723 -0.105366 0)
(0.00100137 -0.0674529 0)
(0.000153894 -0.0240969 0)
(0.000143132 0.0240481 0)
(0.000964878 0.0673887 0)
(0.0026905 0.105359 0)
(0.00503484 0.137627 0)
(0.00779634 0.164078 0)
(0.0108063 0.184767 0)
(0.0139004 0.1999 0)
(0.0169307 0.209811 0)
(0.019774 0.214932 0)
(0.022335 0.215756 0)
(0.0245468 0.212814 0)
(0.0263691 0.206643 0)
(0.0277863 0.197763 0)
(0.028803 0.186665 0)
(0.0294398 0.173789 0)
(0.0297293 0.159528 0)
(0.0297116 0.144214 0)
(0.0294311 0.128126 0)
(0.0289333 0.111486 0)
(0.0282626 0.0944717 0)
(0.0274607 0.0772144 0)
(0.0265657 0.0598109 0)
(0.0256109 0.0423281 0)
(0.0246248 0.0248107 0)
(0.0236313 0.00728754 0)
(0.0226492 -0.0102217 0)
(0.021693 -0.0277002 0)
(0.0207729 -0.0451274 0)
(0.0198951 -0.0624734 0)
(0.0190621 -0.079692 0)
(0.0182726 -0.0967148 0)
(0.017522 -0.113444 0)
(0.0168022 -0.129749 0)
(0.0161021 -0.145455 0)
(0.0154073 -0.160343 0)
(0.0147011 -0.174144 0)
(0.0139645 -0.186536 0)
(0.0131776 -0.197144 0)
(0.0123206 -0.205544 0)
(0.0113761 -0.211269 0)
(0.010331 -0.213823 0)
(0.0091796 -0.212693 0)
(0.00792673 -0.207371 0)
(0.00659076 -0.197381 0)
(0.00520652 -0.182303 0)
(0.00382728 -0.161807 0)
(0.00252367 -0.135681 0)
(0.00137969 -0.103858 0)
(0.000508706 -0.0664314 0)
(7.92535e-05 -0.0237116 0)
(6.74739e-05 0.0236859 0)
(0.000464466 0.0663954 0)
(0.00130968 0.103848 0)
(0.00247283 0.135724 0)
(0.00386007 0.161913 0)
(0.00538921 0.182467 0)
(0.00697607 0.197584 0)
(0.00854116 0.207583 0)
(0.0100147 0.212878 0)
(0.0113395 0.213943 0)
(0.0124719 0.211288 0)
(0.0133825 0.205428 0)
(0.0140555 0.196869 0)
(0.0144868 0.186084 0)
(0.0146826 0.173505 0)
(0.0146568 0.159514 0)
(0.0144292 0.144438 0)
(0.0140229 0.128554 0)
(0.0134632 0.112083 0)
(0.0127758 0.0952036 0)
(0.0119858 0.0780489 0)
(0.0111171 0.0607186 0)
(0.0101917 0.0432829 0)
(0.00922994 0.0257898 0)
(0.00824996 0.00827147 0)
(0.00726826 -0.00924927 0)