/*--------------------------------*- C++ -*----------------------------------*\
  =========                 |
  \\      /  F ield         | OpenFOAM: The Open Source CFD Toolbox
   \\    /   O peration     | Website:  https://openfoam.org
    \\  /    A nd           | Version:  7
     \\/     M anipulation  |
\*---------------------------------------------------------------------------*/
FoamFile
{
    version     2.0;
    format      ascii;
    class       volScalarField;
    location    "0.0262";
    object      p;
}
// * * * * * * * * * * * * * * * * * * * * * * * * * * * * * * * * * * * * * //

dimensions      [0 2 -2 0 0 0 0];

internalField   nonuniform List<scalar> 
2500
(
3.29034e-05
6.38496
9.04905
10.1439
10.7359
11.0851
11.2992
11.4401
11.5392
11.6125
11.669
11.7142
11.7516
11.7835
11.8117
11.8373
11.8611
11.8837
11.9056
11.9272
11.9486
11.97
11.9916
12.0135
12.0358
12.0586
12.082
12.1061
12.1311
12.1571
12.1843
12.2131
12.2439
12.277
12.313
12.3529
12.3975
12.4483
12.5071
12.5765
12.6604
12.7646
12.8984
13.0783
13.3364
13.7367
14.3959
15.5859
18.3662
24.8751
4.86829
7.46782
8.88512
9.76819
10.3715
10.7779
11.0531
11.2456
11.3851
11.4893
11.5695
11.6332
11.6851
11.7288
11.7664
11.7998
11.83
11.8581
11.8846
11.91
11.9348
11.9593
11.9836
12.008
12.0326
12.0577
12.0834
12.1099
12.1374
12.1661
12.1965
12.2289
12.2638
12.3017
12.3437
12.3906
12.4438
12.5053
12.5776
12.6641
12.7702
12.9035
13.0756
13.305
13.6222
14.0776
14.7408
15.6967
17.1997
19.9166
7.70447
8.46789
9.21073
9.83386
10.3203
10.6825
10.9497
11.1485
11.2988
11.4145
11.5055
11.5787
11.6389
11.6896
11.7333
11.7718
11.8064
11.8383
11.8681
11.8964
11.9237
11.9504
11.9768
12.0031
12.0295
12.0564
12.0838
12.1121
12.1415
12.1723
12.2049
12.2398
12.2775
12.3188
12.3645
12.4159
12.4744
12.542
12.6216
12.7166
12.8323
12.9756
13.1569
13.3904
13.6965
14.1029
14.6395
15.317
16.1144
16.9424
9.11389
9.29078
9.66986
10.0706
10.4209
10.7065
10.9349
11.1158
11.2594
11.3741
11.4669
11.5432
11.607
11.6614
11.7085
11.7502
11.7878
11.8223
11.8545
11.885
11.9143
11.9428
11.9708
11.9986
12.0265
12.0547
12.0836
12.1132
12.1441
12.1764
12.2106
12.2473
12.287
12.3304
12.3785
12.4324
12.4937
12.5642
12.6465
12.7436
12.86
13.0009
13.1736
13.3867
13.6504
13.9745
14.3644
14.806
15.2207
15.4282
9.92592
9.90532
10.0814
10.3251
10.5648
10.7798
10.9647
11.1201
11.2492
11.3564
11.4459
11.5213
11.5856
11.6412
11.69
11.7336
11.773
11.8093
11.8433
11.8754
11.9062
11.9361
11.9654
11.9945
12.0236
12.053
12.083
12.1138
12.1458
12.1793
12.2148
12.2527
12.2937
12.3384
12.3879
12.4431
12.5054
12.5765
12.6585
12.7539
12.8658
12.9978
13.1543
13.3392
13.5556
13.8032
14.0749
14.3481
14.5467
14.5384
10.4369
10.3516
10.4206
10.5627
10.7221
10.8786
11.0229
11.1509
11.2622
11.3582
11.4409
11.5124
11.5747
11.6296
11.6784
11.7224
11.7626
11.7999
11.8348
11.868
11.8998
11.9307
11.9611
11.9911
12.0212
12.0514
12.0823
12.114
12.1468
12.1811
12.2174
12.2561
12.2978
12.3432
12.393
12.4483
12.5102
12.58
12.6593
12.7501
12.8542
12.9739
13.1107
13.2659
13.438
13.622
13.8068
13.97
14.0524
13.9687
10.7772
10.6793
10.6949
10.774
10.8769
10.9878
11.0971
11.1994
11.2924
11.3755
11.4495
11.5151
11.5736
11.626
11.6735
11.7169
11.7569
11.7943
11.8295
11.8632
11.8956
11.9271
11.958
11.9887
12.0194
12.0503
12.0817
12.114
12.1473
12.1822
12.2189
12.2579
12.2997
12.345
12.3944
12.4488
12.509
12.5761
12.6512
12.7355
12.8301
12.9357
13.0525
13.1795
13.3133
13.4472
13.5701
13.6642
13.687
13.585
11.0185
10.9259
10.9156
10.9559
11.0203
11.097
11.1779
11.2578
11.3336
11.4039
11.4683
11.5271
11.5806
11.6297
11.6748
11.7165
11.7556
11.7924
11.8274
11.861
11.8935
11.9252
11.9565
11.9875
12.0185
12.0497
12.0815
12.114
12.1477
12.1827
12.2194
12.2583
12.2999
12.3445
12.3929
12.4456
12.5033
12.5668
12.6367
12.7136
12.7979
12.8894
12.9873
13.0895
13.192
13.2878
13.3678
13.4187
13.4115
13.312
11.1993
11.1165
11.0937
11.1106
11.149
11.2006
11.2594
11.3207
11.3813
11.4395
11.4946
11.5462
11.5943
11.6392
11.6813
11.7209
11.7584
11.794
11.8283
11.8614
11.8936
11.9252
11.9564
11.9874
12.0185
12.0499
12.0817
12.1143
12.148
12.1829
12.2194
12.2579
12.2987
12.3423
12.3892
12.4397
12.4944
12.5536
12.6178
12.6871
12.7612
12.8395
12.9206
13.0018
13.0792
13.1468
13.1972
13.2213
13.199
13.108
11.3408
11.2674
11.2392
11.2418
11.2626
11.2963
11.3381
11.3842
11.4319
11.4795
11.5258
11.5704
11.613
11.6536
11.6922
11.7292
11.7647
11.7988
11.8319
11.8642
11.8958
11.927
11.9579
11.9887
12.0196
12.0508
12.0826
12.115
12.1484
12.183
12.219
12.2568
12.2967
12.3389
12.3839
12.4319
12.4832
12.538
12.5964
12.6581
12.7227
12.789
12.8555
12.9195
12.9773
13.024
13.0541
13.0614
13.032
12.95
11.4549
11.3896
11.3592
11.3532
11.3623
11.383
11.412
11.4461
11.4831
11.5214
11.5599
11.598
11.6352
11.6714
11.7066
11.7407
11.7739
11.8063
11.838
11.8691
11.8999
11.9304
11.9607
11.9911
12.0217
12.0526
12.084
12.1161
12.149
12.1831
12.2185
12.2554
12.294
12.3347
12.3776
12.4229
12.4708
12.5211
12.5738
12.6284
12.6842
12.74
12.7941
12.8441
12.8867
12.9181
12.9342
12.931
12.8983
12.8245
11.549
11.4903
11.4594
11.4481
11.4494
11.4608
11.4801
11.5048
11.5331
11.5636
11.5953
11.6275
11.6597
11.6917
11.7234
11.7546
11.7854
11.8159
11.846
11.8758
11.9055
11.9351
11.9648
11.9946
12.0246
12.055
12.086
12.1176
12.15
12.1834
12.2179
12.2538
12.2911
12.3301
12.3708
12.4133
12.4577
12.5036
12.5509
12.599
12.647
12.6937
12.7374
12.7761
12.807
12.8271
12.8335
12.8236
12.7899
12.723
11.6278
11.5743
11.5439
11.5294
11.5253
11.5301
11.5421
11.5595
11.5808
11.6048
11.6306
11.6576
11.6853
11.7134
11.7418
11.7702
11.7986
11.827
11.8554
11.8839
11.9124
11.941
11.9699
11.9989
12.0283
12.0581
12.0885
12.1195
12.1512
12.1838
12.2174
12.2521
12.288
12.3252
12.3638
12.4035
12.4445
12.4863
12.5286
12.5708
12.6119
12.6508
12.686
12.7156
12.7374
12.7491
12.7488
12.7348
12.7011
12.6401
11.6944
11.6452
11.6155
11.5991
11.5914
11.5914
11.598
11.6097
11.6254
11.644
11.6649
11.6874
11.7111
11.7357
11.7609
11.7867
11.8128
11.8392
11.8659
11.8929
11.9202
11.9478
11.9757
12.0039
12.0326
12.0617
12.0914
12.1217
12.1527
12.1844
12.217
12.2505
12.285
12.3204
12.3567
12.3939
12.4316
12.4696
12.5074
12.5443
12.5794
12.6117
12.6398
12.6621
12.677
12.6825
12.6774
12.6608
12.6277
12.5717
11.7511
11.7054
11.6765
11.659
11.6488
11.6454
11.6479
11.6553
11.6665
11.6808
11.6975
11.7162
11.7364
11.7578
11.7803
11.8035
11.8274
11.8519
11.877
11.9026
11.9286
11.955
11.982
12.0094
12.0372
12.0656
12.0946
12.1241
12.1543
12.1851
12.2167
12.249
12.282
12.3157
12.3499
12.3845
12.4193
12.4537
12.4875
12.5197
12.5498
12.5765
12.5988
12.6153
12.6247
12.6257
12.6173
12.5991
12.5669
12.5152
11.7994
11.7566
11.7286
11.7104
11.6986
11.6927
11.6922
11.6962
11.7038
11.7146
11.7279
11.7434
11.7606
11.7792
11.7991
11.8201
11.842
11.8648
11.8882
11.9124
11.9372
11.9625
11.9885
12.015
12.0421
12.0697
12.0979
12.1266
12.156
12.186
12.2165
12.2476
12.2792
12.3112
12.3434
12.3757
12.4077
12.439
12.4692
12.4974
12.523
12.5451
12.5627
12.5746
12.5799
12.5774
12.5667
12.5475
12.5164
12.4683
11.8406
11.8001
11.7729
11.7545
11.7416
11.7339
11.7311
11.7324
11.7373
11.7453
11.7558
11.7685
11.7831
11.7994
11.8171
11.8361
11.8561
11.8772
11.8992
11.9221
11.9457
11.97
11.995
12.0207
12.0469
12.0738
12.1012
12.1292
12.1577
12.1868
12.2163
12.2463
12.2765
12.307
12.3374
12.3675
12.3971
12.4256
12.4526
12.4774
12.4993
12.5175
12.5312
12.5395
12.5415
12.5365
12.5242
12.5045
12.4745
12.4295
11.8756
11.837
11.8106
11.792
11.7783
11.7694
11.7649
11.7642
11.7669
11.7726
11.7808
11.7913
11.8038
11.818
11.8338
11.851
11.8694
11.889
11.9097
11.9313
11.9539
11.9772
12.0013
12.0261
12.0516
12.0777
12.1044
12.1317
12.1594
12.1876
12.2162
12.2451
12.2741
12.3031
12.3319
12.3601
12.3875
12.4135
12.4378
12.4597
12.4785
12.4935
12.5041
12.5095
12.509
12.5021
12.4887
12.4688
12.4399
12.3975
11.9049
11.868
11.8422
11.8237
11.8095
11.7996
11.7938
11.7916
11.7926
11.7965
11.8029
11.8115
11.8222
11.8347
11.8489
11.8645
11.8816
11.8999
11.9194
11.9399
11.9615
11.9839
12.0072
12.0312
12.056
12.0814
12.1074
12.134
12.161
12.1884
12.2162
12.244
12.2719
12.2996
12.3269
12.3535
12.3789
12.4029
12.4249
12.4443
12.4605
12.473
12.4811
12.4842
12.4818
12.4735
12.4593
12.4394
12.4114
12.3713
11.9293
11.8936
11.8685
11.85
11.8355
11.8249
11.8182
11.8148
11.8145
11.8169
11.8219
11.829
11.8382
11.8493
11.8621
11.8765
11.8924
11.9096
11.928
11.9476
11.9683
11.9899
12.0125
12.0358
12.06
12.0847
12.1101
12.1361
12.1624
12.1892
12.2161
12.2431
12.27
12.2966
12.3226
12.3477
12.3716
12.3938
12.4138
12.4312
12.4453
12.4557
12.4618
12.4631
12.4593
12.4499
12.4352
12.4154
12.3883
12.3501
11.949
11.9144
11.8898
11.8713
11.8566
11.8456
11.8382
11.8339
11.8326
11.8339
11.8377
11.8437
11.8518
11.8617
11.8734
11.8867
11.9016
11.9179
11.9355
11.9543
11.9742
11.9952
12.0171
12.0398
12.0634
12.0876
12.1125
12.1379
12.1637
12.1898
12.216
12.2423
12.2684
12.294
12.3189
12.3428
12.3654
12.3861
12.4046
12.4203
12.4328
12.4416
12.4461
12.4461
12.4411
12.431
12.416
12.3963
12.3699
12.3333
11.9644
11.9306
11.9064
11.8881
11.8733
11.8619
11.854
11.8491
11.847
11.8475
11.8504
11.8555
11.8627
11.8717
11.8826
11.8951
11.9091
11.9247
11.9416
11.9597
11.9791
11.9995
12.0209
12.0431
12.0662
12.09
12.1144
12.1394
12.1647
12.1903
12.216
12.2416
12.267
12.2919
12.3159
12.3389
12.3604
12.38
12.3972
12.4117
12.4229
12.4304
12.4338
12.4327
12.427
12.4164
12.4011
12.3816
12.3558
12.3204
11.9758
11.9426
11.9187
11.9005
11.8856
11.874
11.8657
11.8604
11.8578
11.8577
11.8599
11.8644
11.8709
11.8793
11.8895
11.9014
11.9149
11.9299
11.9462
11.9639
11.9828
12.0028
12.0238
12.0457
12.0684
12.0918
12.1159
12.1405
12.1655
12.1907
12.2159
12.2411
12.266
12.2903
12.3137
12.3359
12.3566
12.3754
12.3917
12.4053
12.4155
12.4221
12.4247
12.4229
12.4166
12.4056
12.3902
12.3709
12.3456
12.311
11.9833
11.9505
11.9268
11.9086
11.8937
11.882
11.8734
11.8678
11.8649
11.8644
11.8663
11.8703
11.8764
11.8844
11.8941
11.9056
11.9187
11.9334
11.9494
11.9667
11.9853
12.005
12.0257
12.0474
12.0699
12.0931
12.1169
12.1413
12.166
12.1909
12.2159
12.2408
12.2653
12.2892
12.3122
12.3339
12.3541
12.3723
12.3881
12.401
12.4106
12.4167
12.4187
12.4164
12.4098
12.3986
12.3831
12.3638
12.3388
12.305
11.987
11.9544
11.9308
11.9127
11.8977
11.8859
11.8773
11.8716
11.8684
11.8678
11.8695
11.8733
11.8791
11.8869
11.8965
11.9078
11.9207
11.9351
11.951
11.9682
11.9866
12.0061
12.0267
12.0482
12.0706
12.0937
12.1174
12.1416
12.1662
12.191
12.2159
12.2406
12.2649
12.2886
12.3114
12.3329
12.3529
12.3708
12.3862
12.3989
12.4082
12.4139
12.4157
12.4132
12.4064
12.3951
12.3796
12.3604
12.3355
12.302
11.987
11.9544
11.9308
11.9127
11.8977
11.8859
11.8773
11.8716
11.8684
11.8678
11.8695
11.8733
11.8791
11.8869
11.8965
11.9078
11.9207
11.9351
11.951
11.9682
11.9866
12.0061
12.0267
12.0482
12.0706
12.0937
12.1174
12.1416
12.1662
12.191
12.2159
12.2406
12.2649
12.2886
12.3114
12.3329
12.3529
12.3708
12.3862
12.3989
12.4082
12.4139
12.4157
12.4132
12.4064
12.3951
12.3796
12.3604
12.3355
12.302
11.9833
11.9505
11.9268
11.9086
11.8937
11.882
11.8734
11.8678
11.8649
11.8644
11.8663
11.8703
11.8764
11.8844
11.8941
11.9056
11.9187
11.9334
11.9494
11.9667
11.9853
12.005
12.0257
12.0474
12.0699
12.0931
12.1169
12.1413
12.166
12.1909
12.2159
12.2408
12.2653
12.2892
12.3122
12.3339
12.3541
12.3723
12.3881
12.401
12.4106
12.4167
12.4187
12.4164
12.4098
12.3986
12.3831
12.3638
12.3388
12.305
11.9758
11.9426
11.9187
11.9005
11.8856
11.874
11.8657
11.8604
11.8578
11.8577
11.8599
11.8644
11.8709
11.8793
11.8895
11.9014
11.9149
11.9299
11.9462
11.9639
11.9828
12.0028
12.0238
12.0457
12.0684
12.0918
12.1159
12.1405
12.1655
12.1907
12.2159
12.2411
12.266
12.2903
12.3137
12.3359
12.3566
12.3754
12.3917
12.4053
12.4155
12.4221
12.4247
12.4229
12.4166
12.4056
12.3902
12.3709
12.3456
12.311
11.9644
11.9306
11.9064
11.8881
11.8733
11.8619
11.854
11.8491
11.847
11.8475
11.8504
11.8555
11.8627
11.8717
11.8826
11.8951
11.9091
11.9247
11.9416
11.9597
11.9791
11.9995
12.0209
12.0431
12.0662
12.09
12.1144
12.1394
12.1647
12.1903
12.216
12.2416
12.267
12.2919
12.316
12.3389
12.3604
12.38
12.3972
12.4117
12.4229
12.4304
12.4338
12.4327
12.427
12.4164
12.4011
12.3816
12.3558
12.3204
11.949
11.9144
11.8898
11.8714
11.8567
11.8456
11.8382
11.8339
11.8326
11.834
11.8377
11.8437
11.8518
11.8617
11.8734
11.8867
11.9016
11.9179
11.9355
11.9543
11.9742
11.9952
12.0171
12.0398
12.0634
12.0876
12.1125
12.1379
12.1637
12.1898
12.216
12.2423
12.2684
12.294
12.3189
12.3428
12.3654
12.3861
12.4046
12.4203
12.4328
12.4416
12.4461
12.4461
12.4411
12.431
12.416
12.3963
12.3699
12.3333
11.9293
11.8936
11.8685
11.85
11.8355
11.825
11.8182
11.8148
11.8145
11.8169
11.8219
11.829
11.8382
11.8493
11.8621
11.8765
11.8924
11.9096
11.928
11.9476
11.9683
11.9899
12.0125
12.0358
12.06
12.0848
12.1102
12.1361
12.1625
12.1892
12.2161
12.2431
12.27
12.2966
12.3226
12.3477
12.3716
12.3938
12.4138
12.4312
12.4453
12.4557
12.4618
12.4631
12.4593
12.4499
12.4352
12.4154
12.3883
12.3501
11.9049
11.868
11.8422
11.8237
11.8095
11.7996
11.7938
11.7916
11.7926
11.7965
11.8029
11.8115
11.8222
11.8347
11.8489
11.8645
11.8816
11.8999
11.9194
11.9399
11.9615
11.9839
12.0072
12.0312
12.056
12.0814
12.1074
12.134
12.161
12.1884
12.2162
12.244
12.2719
12.2996
12.3269
12.3535
12.379
12.4029
12.4249
12.4443
12.4605
12.473
12.4811
12.4842
12.4818
12.4735
12.4593
12.4394
12.4114
12.3713
11.8756
11.837
11.8106
11.792
11.7783
11.7694
11.7649
11.7642
11.7669
11.7726
11.7808
11.7913
11.8038
11.818
11.8338
11.851
11.8694
11.8891
11.9097
11.9314
11.9539
11.9772
12.0013
12.0261
12.0516
12.0777
12.1044
12.1317
12.1594
12.1877
12.2162
12.2451
12.2741
12.3031
12.3319
12.3601
12.3875
12.4135
12.4378
12.4597
12.4785
12.4935
12.5041
12.5095
12.509
12.5021
12.4887
12.4688
12.4399
12.3975
11.8406
11.8001
11.7729
11.7545
11.7416
11.7339
11.7311
11.7324
11.7373
11.7453
11.7558
11.7685
11.7831
11.7994
11.8171
11.8361
11.8561
11.8772
11.8992
11.9221
11.9457
11.97
11.995
12.0207
12.0469
12.0738
12.1012
12.1292
12.1577
12.1868
12.2163
12.2463
12.2765
12.307
12.3374
12.3675
12.3971
12.4256
12.4526
12.4774
12.4993
12.5175
12.5312
12.5395
12.5415
12.5365
12.5242
12.5045
12.4745
12.4295
11.7994
11.7566
11.7286
11.7104
11.6986
11.6928
11.6922
11.6962
11.7039
11.7146
11.728
11.7434
11.7606
11.7792
11.7991
11.8201
11.842
11.8648
11.8882
11.9124
11.9372
11.9626
11.9885
12.015
12.0421
12.0697
12.0979
12.1267
12.156
12.186
12.2165
12.2476
12.2792
12.3112
12.3434
12.3757
12.4077
12.439
12.4692
12.4974
12.523
12.5451
12.5627
12.5746
12.5799
12.5774
12.5667
12.5475
12.5164
12.4683
11.7511
11.7054
11.6765
11.659
11.6488
11.6454
11.6479
11.6553
11.6665
11.6808
11.6975
11.7162
11.7364
11.7578
11.7803
11.8035
11.8274
11.852
11.877
11.9026
11.9286
11.9551
11.982
12.0094
12.0372
12.0656
12.0946
12.1241
12.1543
12.1851
12.2167
12.249
12.282
12.3157
12.3499
12.3845
12.4193
12.4537
12.4875
12.5197
12.5498
12.5765
12.5988
12.6153
12.6248
12.6257
12.6173
12.5991
12.5669
12.5152
11.6944
11.6453
11.6155
11.5991
11.5914
11.5914
11.598
11.6097
11.6254
11.6441
11.6649
11.6874
11.7111
11.7357
11.761
11.7867
11.8128
11.8392
11.866
11.893
11.9202
11.9478
11.9757
12.0039
12.0326
12.0617
12.0914
12.1217
12.1527
12.1844
12.217
12.2505
12.285
12.3204
12.3567
12.3939
12.4316
12.4696
12.5074
12.5443
12.5794
12.6117
12.6398
12.6621
12.677
12.6825
12.6774
12.6608
12.6277
12.5717
11.6278
11.5744
11.5439
11.5294
11.5253
11.5301
11.5421
11.5595
11.5808
11.6048
11.6306
11.6576
11.6853
11.7134
11.7418
11.7702
11.7986
11.827
11.8555
11.8839
11.9124
11.9411
11.9699
11.9989
12.0283
12.0581
12.0885
12.1195
12.1512
12.1838
12.2174
12.2521
12.2881
12.3252
12.3638
12.4035
12.4445
12.4863
12.5286
12.5708
12.6119
12.6508
12.686
12.7156
12.7374
12.7491
12.7488
12.7348
12.7011
12.6401
11.549
11.4903
11.4595
11.4482
11.4494
11.4608
11.4801
11.5048
11.5331
11.5636
11.5953
11.6275
11.6597
11.6917
11.7234
11.7546
11.7854
11.8159
11.846
11.8758
11.9055
11.9351
11.9648
11.9946
12.0246
12.0551
12.086
12.1176
12.15
12.1834
12.2179
12.2538
12.2911
12.3301
12.3708
12.4133
12.4577
12.5036
12.5509
12.599
12.647
12.6937
12.7375
12.7761
12.807
12.8271
12.8335
12.8236
12.7899
12.723
11.455
11.3896
11.3592
11.3532
11.3623
11.383
11.412
11.4461
11.4831
11.5214
11.5599
11.598
11.6352
11.6714
11.7066
11.7407
11.7739
11.8063
11.838
11.8691
11.8999
11.9304
11.9607
11.9911
12.0217
12.0526
12.084
12.1161
12.1491
12.1831
12.2185
12.2554
12.294
12.3347
12.3776
12.4229
12.4708
12.5211
12.5738
12.6284
12.6842
12.74
12.7941
12.8441
12.8867
12.9181
12.9342
12.931
12.8983
12.8245
11.3409
11.2674
11.2392
11.2418
11.2627
11.2963
11.3381
11.3842
11.4319
11.4795
11.5258
11.5704
11.613
11.6536
11.6923
11.7292
11.7647
11.7988
11.832
11.8642
11.8958
11.927
11.9579
11.9887
12.0196
12.0508
12.0826
12.115
12.1484
12.183
12.219
12.2568
12.2967
12.3389
12.3839
12.4319
12.4832
12.538
12.5964
12.6581
12.7227
12.789
12.8555
12.9195
12.9773
13.0241
13.0541
13.0614
13.032
12.95
11.1994
11.1165
11.0938
11.1107
11.149
11.2007
11.2595
11.3207
11.3813
11.4396
11.4946
11.5462
11.5943
11.6393
11.6813
11.7209
11.7584
11.7941
11.8283
11.8614
11.8936
11.9252
11.9564
11.9875
12.0185
12.0499
12.0818
12.1144
12.148
12.1829
12.2194
12.2579
12.2987
12.3423
12.3892
12.4397
12.4944
12.5536
12.6178
12.6871
12.7612
12.8395
12.9206
13.0018
13.0792
13.1468
13.1972
13.2213
13.199
13.108
11.0185
10.926
10.9156
10.956
11.0203
11.097
11.178
11.2579
11.3336
11.4039
11.4683
11.5271
11.5807
11.6297
11.6748
11.7166
11.7556
11.7924
11.8274
11.861
11.8935
11.9252
11.9565
11.9875
12.0185
12.0497
12.0815
12.1141
12.1477
12.1827
12.2194
12.2583
12.2999
12.3445
12.3929
12.4456
12.5033
12.5668
12.6367
12.7136
12.7979
12.8894
12.9873
13.0895
13.192
13.2878
13.3678
13.4187
13.4115
13.3121
10.7772
10.6793
10.695
10.774
10.877
10.9878
11.0971
11.1994
11.2924
11.3756
11.4495
11.5151
11.5736
11.6261
11.6735
11.7169
11.7569
11.7943
11.8295
11.8632
11.8956
11.9271
11.9581
11.9887
12.0194
12.0503
12.0817
12.114
12.1474
12.1822
12.2189
12.2579
12.2997
12.345
12.3944
12.4488
12.509
12.5761
12.6513
12.7356
12.8301
12.9357
13.0525
13.1795
13.3133
13.4472
13.5702
13.6642
13.6871
13.5851
10.4369
10.3516
10.4206
10.5628
10.7221
10.8786
11.0229
11.1509
11.2623
11.3583
11.441
11.5125
11.5748
11.6296
11.6784
11.7224
11.7627
11.7999
11.8348
11.868
11.8998
11.9308
11.9611
11.9911
12.0212
12.0515
12.0823
12.114
12.1468
12.1812
12.2174
12.2561
12.2978
12.3432
12.393
12.4483
12.5102
12.58
12.6594
12.7501
12.8543
12.9739
13.1108
13.2659
13.438
13.622
13.8068
13.97
14.0524
13.9687
9.92596
9.90537
10.0814
10.3251
10.5648
10.7798
10.9648
11.1201
11.2492
11.3564
11.4459
11.5214
11.5857
11.6413
11.6901
11.7336
11.7731
11.8094
11.8433
11.8754
11.9062
11.9361
11.9654
11.9945
12.0236
12.053
12.083
12.1138
12.1458
12.1793
12.2148
12.2527
12.2937
12.3385
12.3879
12.4431
12.5054
12.5765
12.6585
12.7539
12.8658
12.9979
13.1543
13.3392
13.5556
13.8032
14.0749
14.3481
14.5467
14.5384
9.11394
9.29083
9.66991
10.0707
10.421
10.7065
10.9349
11.1159
11.2594
11.3741
11.467
11.5433
11.6071
11.6614
11.7085
11.7503
11.7879
11.8224
11.8545
11.885
11.9143
11.9428
11.9708
11.9986
12.0265
12.0548
12.0836
12.1132
12.1441
12.1764
12.2107
12.2473
12.287
12.3304
12.3785
12.4324
12.4937
12.5642
12.6465
12.7436
12.86
13.0009
13.1736
13.3867
13.6504
13.9745
14.3644
14.806
15.2207
15.4282
7.70453
8.46794
9.21078
9.8339
10.3204
10.6826
10.9497
11.1485
11.2988
11.4146
11.5056
11.5787
11.6389
11.6896
11.7333
11.7718
11.8064
11.8383
11.8681
11.8964
11.9238
11.9505
11.9768
12.0031
12.0296
12.0564
12.0838
12.1121
12.1415
12.1723
12.2049
12.2398
12.2775
12.3188
12.3645
12.4159
12.4744
12.5421
12.6216
12.7166
12.8323
12.9756
13.1569
13.3904
13.6965
14.1029
14.6395
15.317
16.1144
16.9424
4.86836
7.46788
8.88517
9.76824
10.3716
10.778
11.0531
11.2457
11.3851
11.4893
11.5695
11.6332
11.6852
11.7288
11.7665
11.7998
11.8301
11.8581
11.8846
11.9101
11.9349
11.9593
11.9836
12.008
12.0326
12.0577
12.0834
12.1099
12.1374
12.1662
12.1965
12.2289
12.2638
12.3018
12.3437
12.3906
12.4438
12.5053
12.5776
12.6642
12.7702
12.9035
13.0756
13.305
13.6222
14.0776
14.7408
15.6967
17.1997
19.9166
0.000135219
6.38503
9.04911
10.144
10.736
11.0851
11.2993
11.4401
11.5392
11.6125
11.669
11.7142
11.7516
11.7835
11.8117
11.8373
11.8611
11.8837
11.9056
11.9272
11.9486
11.97
11.9916
12.0135
12.0358
12.0586
12.082
12.1061
12.1311
12.1571
12.1844
12.2132
12.2439
12.277
12.313
12.3529
12.3975
12.4483
12.5071
12.5765
12.6604
12.7646
12.8984
13.0783
13.3364
13.7367
14.3959
15.5859
18.3662
24.8751
)
;

boundaryField
{
    movingWallTop
    {
        type            zeroGradient;
    }
    movingWallBottom
    {
        type            zeroGradient;
    }
    fixedWalls
    {
        type            zeroGradient;
    }
    frontAndBack
    {
        type            empty;
    }
}


// ************************************************************************* //
