/*--------------------------------*- C++ -*----------------------------------*\
  =========                 |
  \\      /  F ield         | OpenFOAM: The Open Source CFD Toolbox
   \\    /   O peration     | Website:  https://openfoam.org
    \\  /    A nd           | Version:  7
     \\/     M anipulation  |
\*---------------------------------------------------------------------------*/
FoamFile
{
    version     2.0;
    format      ascii;
    class       volScalarField;
    location    "0.0274";
    object      p;
}
// * * * * * * * * * * * * * * * * * * * * * * * * * * * * * * * * * * * * * //

dimensions      [0 2 -2 0 0 0 0];

internalField   nonuniform List<scalar> 
2500
(
-7.47552e-06
-6.51122
-9.29497
-10.489
-11.1522
-11.5563
-11.8176
-12.0001
-12.1356
-12.2406
-12.3245
-12.3929
-12.4496
-12.4973
-12.5378
-12.5725
-12.6024
-12.6283
-12.651
-12.6708
-12.6883
-12.7038
-12.7176
-12.7301
-12.7415
-12.7521
-12.762
-12.7717
-12.7812
-12.791
-12.8012
-12.8124
-12.8248
-12.839
-12.8556
-12.8753
-12.8991
-12.9283
-12.9645
-13.0101
-13.0686
-13.1454
-13.2492
-13.3957
-13.616
-13.9713
-14.5689
-15.668
-18.3343
-24.7192
-4.95622
-7.67546
-9.18114
-10.1399
-10.8061
-11.2644
-11.5841
-11.8155
-11.989
-12.1229
-12.2289
-12.3145
-12.385
-12.4437
-12.4932
-12.5354
-12.5718
-12.6032
-12.6307
-12.6549
-12.6763
-12.6955
-12.7128
-12.7286
-12.7432
-12.757
-12.7703
-12.7833
-12.7964
-12.81
-12.8245
-12.8402
-12.8578
-12.878
-12.9014
-12.9291
-12.9624
-13.0031
-13.0536
-13.1172
-13.1988
-13.3056
-13.4487
-13.6458
-13.926
-14.3374
-14.9454
-15.8321
-17.2514
-19.8506
-7.92708
-8.75845
-9.5584
-10.2383
-10.7772
-11.1858
-11.4939
-11.729
-11.9114
-12.0554
-12.1709
-12.265
-12.3429
-12.408
-12.4631
-12.5102
-12.5508
-12.5861
-12.617
-12.6442
-12.6685
-12.6903
-12.7102
-12.7284
-12.7455
-12.7617
-12.7774
-12.7929
-12.8087
-12.8251
-12.8426
-12.8617
-12.883
-12.9072
-12.9352
-12.9682
-13.0075
-13.0552
-13.1137
-13.1865
-13.2784
-13.3963
-13.5498
-13.7526
-14.0242
-14.391
-14.8817
-15.5083
-16.2531
-17.0165
-9.43813
-9.64999
-10.0678
-10.5118
-10.9036
-11.2296
-11.4948
-11.7091
-11.8826
-12.0239
-12.14
-12.2363
-12.317
-12.3852
-12.4433
-12.4932
-12.5365
-12.5743
-12.6076
-12.6371
-12.6635
-12.6873
-12.7091
-12.7292
-12.7482
-12.7663
-12.7839
-12.8014
-12.8193
-12.8379
-12.8576
-12.8792
-12.9031
-12.9301
-12.9612
-12.9974
-13.0403
-13.0915
-13.1535
-13.2293
-13.3229
-13.4396
-13.5861
-13.7708
-14.0036
-14.294
-14.6478
-15.0524
-15.4338
-15.6114
-10.3252
-10.3226
-10.5251
-10.8008
-11.0744
-11.3235
-11.5411
-11.7268
-11.8837
-12.0159
-12.1274
-12.2219
-12.3022
-12.3711
-12.4304
-12.4818
-12.5267
-12.5661
-12.601
-12.6322
-12.6602
-12.6856
-12.7089
-12.7306
-12.7511
-12.7707
-12.79
-12.8091
-12.8286
-12.8489
-12.8705
-12.8939
-12.9197
-12.9487
-12.9817
-13.0199
-13.0644
-13.1169
-13.1794
-13.2543
-13.3446
-13.4537
-13.5858
-13.745
-13.9344
-14.154
-14.398
-14.6455
-14.8242
-14.8052
-10.8932
-10.8164
-10.9034
-11.0696
-11.2564
-11.4418
-11.6149
-11.7705
-11.9075
-12.0269
-12.1304
-12.22
-12.2977
-12.3652
-12.4241
-12.4757
-12.5212
-12.5614
-12.5972
-12.6294
-12.6584
-12.685
-12.7094
-12.7323
-12.7539
-12.7748
-12.7952
-12.8156
-12.8363
-12.8578
-12.8807
-12.9053
-12.9323
-12.9623
-12.9963
-13.035
-13.0797
-13.1315
-13.1921
-13.2632
-13.3468
-13.4449
-13.5594
-13.6914
-13.8403
-14.0016
-14.1656
-14.3117
-14.3841
-14.3014
-11.2762
-11.1823
-11.2105
-11.3081
-11.4334
-11.5687
-11.7034
-11.8306
-11.9472
-12.0523
-12.1459
-12.2288
-12.302
-12.3667
-12.4238
-12.4745
-12.5195
-12.5597
-12.5958
-12.6284
-12.658
-12.6852
-12.7104
-12.734
-12.7564
-12.7781
-12.7993
-12.8205
-12.842
-12.8643
-12.8878
-12.9131
-12.9406
-12.9709
-13.0048
-13.043
-13.0865
-13.1362
-13.1932
-13.2586
-13.3337
-13.4192
-13.5156
-13.6222
-13.7363
-13.8522
-13.9601
-14.0436
-14.0632
-13.9692
-11.5499
-11.4594
-11.4583
-11.5134
-11.5962
-11.6937
-11.7969
-11.8992
-11.9967
-12.0874
-12.1703
-12.2455
-12.3132
-12.374
-12.4284
-12.4773
-12.5211
-12.5606
-12.5963
-12.6288
-12.6585
-12.6859
-12.7114
-12.7354
-12.7583
-12.7804
-12.802
-12.8236
-12.8456
-12.8682
-12.892
-12.9173
-12.9447
-12.9746
-13.0077
-13.0446
-13.0859
-13.1324
-13.1848
-13.2437
-13.3095
-13.3825
-13.462
-13.5464
-13.6326
-13.7146
-13.7842
-13.8295
-13.8239
-13.7365
-11.7558
-11.6745
-11.6591
-11.6879
-11.7417
-11.8113
-11.8896
-11.9709
-12.0514
-12.1285
-12.2009
-12.268
-12.3296
-12.3858
-12.4369
-12.4832
-12.5253
-12.5636
-12.5984
-12.6304
-12.6597
-12.687
-12.7124
-12.7364
-12.7594
-12.7816
-12.8033
-12.825
-12.847
-12.8696
-12.8931
-12.9181
-12.9448
-12.9739
-13.0056
-13.0405
-13.0791
-13.1218
-13.1691
-13.2211
-13.278
-13.3393
-13.4039
-13.47
-13.5342
-13.5916
-13.6356
-13.6579
-13.6407
-13.5643
-11.9169
-11.8454
-11.8233
-11.836
-11.87
-11.9191
-11.9781
-12.0422
-12.1079
-12.1728
-12.2353
-12.2945
-12.3498
-12.4011
-12.4483
-12.4918
-12.5316
-12.5682
-12.6017
-12.6327
-12.6614
-12.6881
-12.7131
-12.7369
-12.7596
-12.7815
-12.8031
-12.8246
-12.8462
-12.8684
-12.8914
-12.9157
-12.9414
-12.9691
-12.9991
-13.0316
-13.0671
-13.1058
-13.1479
-13.1933
-13.2418
-13.2927
-13.3448
-13.3961
-13.4436
-13.4833
-13.5102
-13.5188
-13.497
-13.4314
-12.0467
-11.9839
-11.9592
-11.9619
-11.9825
-12.0167
-12.0608
-12.111
-12.1643
-12.2184
-12.2718
-12.3234
-12.3725
-12.4188
-12.462
-12.5022
-12.5395
-12.574
-12.606
-12.6356
-12.6633
-12.6891
-12.7135
-12.7366
-12.7588
-12.7803
-12.8014
-12.8224
-12.8435
-12.865
-12.8872
-12.9104
-12.9349
-12.9609
-12.9889
-13.0189
-13.0511
-13.0858
-13.1229
-13.1622
-13.2032
-13.2452
-13.2869
-13.3265
-13.3614
-13.3885
-13.4041
-13.4047
-13.3816
-13.3254
-12.1534
-12.0981
-12.073
-12.0696
-12.081
-12.1044
-12.1371
-12.1761
-12.219
-12.2638
-12.3091
-12.3537
-12.3969
-12.4382
-12.4773
-12.5141
-12.5486
-12.5808
-12.6109
-12.639
-12.6653
-12.6901
-12.7135
-12.7358
-12.7572
-12.778
-12.7984
-12.8186
-12.8389
-12.8595
-12.8806
-12.9026
-12.9256
-12.9499
-12.9757
-13.003
-13.0321
-13.0629
-13.0953
-13.1291
-13.1636
-13.1981
-13.2313
-13.2618
-13.2874
-13.3055
-13.3138
-13.3097
-13.2871
-13.2388
-12.2426
-12.1938
-12.1692
-12.1623
-12.1674
-12.183
-12.207
-12.2371
-12.2714
-12.3083
-12.3463
-12.3845
-12.4222
-12.4587
-12.4937
-12.527
-12.5586
-12.5883
-12.6163
-12.6426
-12.6674
-12.6909
-12.7131
-12.7344
-12.7548
-12.7747
-12.7941
-12.8134
-12.8327
-12.8522
-12.8721
-12.8927
-12.9142
-12.9366
-12.9601
-12.9849
-13.0109
-13.0381
-13.0663
-13.0951
-13.1241
-13.1523
-13.1788
-13.2022
-13.2208
-13.2328
-13.2362
-13.2296
-13.2083
-13.1667
-12.3181
-12.2749
-12.2516
-12.2426
-12.2435
-12.2534
-12.2707
-12.2938
-12.3211
-12.3511
-12.3829
-12.4153
-12.4478
-12.4798
-12.5109
-12.5407
-12.5693
-12.5964
-12.6222
-12.6466
-12.6697
-12.6916
-12.7125
-12.7325
-12.7518
-12.7706
-12.7889
-12.8071
-12.8252
-12.8435
-12.8621
-12.8812
-12.9009
-12.9215
-12.9428
-12.9651
-12.9882
-13.0121
-13.0365
-13.0611
-13.0853
-13.1085
-13.1296
-13.1476
-13.1611
-13.1687
-13.1691
-13.1612
-13.1416
-13.1057
-12.3826
-12.3444
-12.3226
-12.3126
-12.3108
-12.3166
-12.3288
-12.3463
-12.3678
-12.3922
-12.4184
-12.4458
-12.4736
-12.5013
-12.5285
-12.555
-12.5806
-12.6051
-12.6285
-12.6508
-12.672
-12.6923
-12.7117
-12.7303
-12.7483
-12.7658
-12.7829
-12.7998
-12.8167
-12.8336
-12.8508
-12.8684
-12.8864
-12.905
-12.9243
-12.9442
-12.9646
-12.9855
-13.0066
-13.0275
-13.0478
-13.0668
-13.0836
-13.0975
-13.1073
-13.1119
-13.1104
-13.1022
-13.0844
-13.0534
-12.4384
-12.4046
-12.3845
-12.3742
-12.3706
-12.3734
-12.3819
-12.395
-12.4117
-12.4312
-12.4528
-12.4756
-12.4991
-12.5229
-12.5465
-12.5697
-12.5923
-12.6141
-12.6351
-12.6553
-12.6746
-12.6931
-12.7109
-12.728
-12.7445
-12.7606
-12.7764
-12.7919
-12.8074
-12.823
-12.8387
-12.8546
-12.871
-12.8877
-12.9049
-12.9226
-12.9406
-12.9588
-12.9769
-12.9947
-13.0117
-13.0273
-13.0408
-13.0515
-13.0586
-13.0612
-13.0587
-13.0506
-13.0348
-13.0081
-12.4869
-12.4571
-12.4389
-12.4287
-12.4241
-12.4249
-12.4304
-12.44
-12.4529
-12.4684
-12.4858
-12.5046
-12.5243
-12.5444
-12.5646
-12.5847
-12.6044
-12.6236
-12.6422
-12.6602
-12.6775
-12.6941
-12.7101
-12.7256
-12.7406
-12.7552
-12.7695
-12.7837
-12.7977
-12.8117
-12.8259
-12.8403
-12.8549
-12.8699
-12.8851
-12.9007
-12.9164
-12.9322
-12.9478
-12.9629
-12.9771
-12.9899
-13.0008
-13.0092
-13.0143
-13.0156
-13.0126
-13.0051
-12.9912
-12.9684
-12.5295
-12.5034
-12.487
-12.4773
-12.4723
-12.4716
-12.475
-12.4818
-12.4916
-12.5037
-12.5176
-12.5329
-12.5491
-12.5659
-12.5829
-12.6
-12.6169
-12.6335
-12.6497
-12.6655
-12.6807
-12.6954
-12.7096
-12.7234
-12.7368
-12.7498
-12.7626
-12.7752
-12.7877
-12.8003
-12.8129
-12.8256
-12.8386
-12.8517
-12.8651
-12.8787
-12.8924
-12.906
-12.9193
-12.9321
-12.944
-12.9546
-12.9634
-12.97
-12.9737
-12.9742
-12.9712
-12.9644
-12.9524
-12.9332
-12.5671
-12.5446
-12.5301
-12.5211
-12.5159
-12.5143
-12.5161
-12.5208
-12.5281
-12.5373
-12.5482
-12.5604
-12.5735
-12.5872
-12.6013
-12.6155
-12.6298
-12.6439
-12.6577
-12.6712
-12.6844
-12.6971
-12.7095
-12.7215
-12.7332
-12.7446
-12.7558
-12.7668
-12.7778
-12.7887
-12.7997
-12.8109
-12.8221
-12.8336
-12.8452
-12.8569
-12.8686
-12.8802
-12.8916
-12.9023
-12.9123
-12.921
-12.9282
-12.9334
-12.9363
-12.9363
-12.9335
-12.9276
-12.9176
-12.9016
-12.6007
-12.5815
-12.5689
-12.5608
-12.5558
-12.5537
-12.5543
-12.5574
-12.5625
-12.5694
-12.5777
-12.5871
-12.5974
-12.6084
-12.6197
-12.6313
-12.643
-12.6546
-12.6662
-12.6775
-12.6885
-12.6993
-12.7098
-12.72
-12.73
-12.7397
-12.7492
-12.7587
-12.768
-12.7774
-12.7867
-12.7962
-12.8058
-12.8155
-12.8254
-12.8353
-12.8452
-12.855
-12.8645
-12.8736
-12.8818
-12.889
-12.8949
-12.8991
-12.9013
-12.9013
-12.8988
-12.894
-12.8859
-12.873
-12.6311
-12.615
-12.6043
-12.5972
-12.5926
-12.5902
-12.5901
-12.5918
-12.5953
-12.6001
-12.6062
-12.6132
-12.621
-12.6294
-12.6382
-12.6473
-12.6566
-12.6659
-12.6751
-12.6843
-12.6933
-12.7021
-12.7107
-12.7191
-12.7273
-12.7353
-12.7431
-12.7509
-12.7586
-12.7663
-12.774
-12.7818
-12.7897
-12.7977
-12.8059
-12.8141
-12.8223
-12.8303
-12.8382
-12.8456
-12.8524
-12.8583
-12.8631
-12.8665
-12.8684
-12.8684
-12.8665
-12.8628
-12.8566
-12.8467
-12.6588
-12.6457
-12.6369
-12.631
-12.6269
-12.6245
-12.6238
-12.6245
-12.6266
-12.6297
-12.6338
-12.6387
-12.6443
-12.6504
-12.6568
-12.6636
-12.6705
-12.6776
-12.6847
-12.6917
-12.6987
-12.7055
-12.7122
-12.7188
-12.7251
-12.7314
-12.7375
-12.7436
-12.7496
-12.7556
-12.7617
-12.7678
-12.774
-12.7803
-12.7867
-12.7932
-12.7997
-12.8062
-12.8125
-12.8184
-12.8239
-12.8286
-12.8325
-12.8353
-12.8369
-12.8372
-12.836
-12.8335
-12.8291
-12.8221
-12.6844
-12.6743
-12.6674
-12.6626
-12.6591
-12.6569
-12.6559
-12.6558
-12.6567
-12.6584
-12.6608
-12.6638
-12.6673
-12.6713
-12.6756
-12.6801
-12.6849
-12.6898
-12.6948
-12.6998
-12.7047
-12.7096
-12.7144
-12.7191
-12.7237
-12.7282
-12.7326
-12.7369
-12.7412
-12.7455
-12.7498
-12.7542
-12.7587
-12.7633
-12.768
-12.7728
-12.7776
-12.7825
-12.7872
-12.7917
-12.796
-12.7997
-12.8028
-12.8051
-12.8066
-12.8072
-12.8067
-12.8054
-12.8029
-12.7988
-12.7085
-12.7013
-12.6963
-12.6927
-12.6899
-12.688
-12.6867
-12.6861
-12.686
-12.6864
-12.6873
-12.6886
-12.6902
-12.6922
-12.6945
-12.697
-12.6997
-12.7025
-12.7055
-12.7085
-12.7115
-12.7145
-12.7174
-12.7203
-12.723
-12.7257
-12.7284
-12.7309
-12.7335
-12.736
-12.7386
-12.7412
-12.7439
-12.7467
-12.7497
-12.7527
-12.7559
-12.7591
-12.7623
-12.7655
-12.7685
-12.7712
-12.7736
-12.7755
-12.777
-12.7779
-12.7782
-12.7781
-12.7775
-12.7762
-12.7315
-12.7271
-12.724
-12.7217
-12.7197
-12.7181
-12.7167
-12.7156
-12.7147
-12.714
-12.7135
-12.7132
-12.7131
-12.7132
-12.7136
-12.7142
-12.7149
-12.7158
-12.7168
-12.7179
-12.719
-12.7201
-12.7212
-12.7222
-12.7231
-12.724
-12.7249
-12.7257
-12.7264
-12.7271
-12.7279
-12.7287
-12.7296
-12.7306
-12.7317
-12.733
-12.7344
-12.736
-12.7377
-12.7395
-12.7412
-12.743
-12.7446
-12.7462
-12.7476
-12.7489
-12.75
-12.7511
-12.7524
-12.7539
-12.7539
-12.7524
-12.7512
-12.75
-12.7489
-12.7476
-12.7462
-12.7446
-12.743
-12.7412
-12.7395
-12.7377
-12.736
-12.7344
-12.733
-12.7317
-12.7306
-12.7296
-12.7287
-12.7279
-12.7271
-12.7264
-12.7257
-12.7249
-12.724
-12.7231
-12.7222
-12.7211
-12.7201
-12.719
-12.7179
-12.7168
-12.7158
-12.7149
-12.7142
-12.7136
-12.7132
-12.7131
-12.7132
-12.7134
-12.7139
-12.7147
-12.7156
-12.7167
-12.7181
-12.7197
-12.7217
-12.724
-12.7271
-12.7315
-12.7762
-12.7775
-12.7781
-12.7782
-12.7779
-12.777
-12.7756
-12.7736
-12.7712
-12.7685
-12.7655
-12.7623
-12.7591
-12.7559
-12.7527
-12.7497
-12.7467
-12.7439
-12.7412
-12.7386
-12.736
-12.7335
-12.7309
-12.7284
-12.7257
-12.723
-12.7203
-12.7174
-12.7145
-12.7115
-12.7085
-12.7055
-12.7025
-12.6997
-12.697
-12.6945
-12.6922
-12.6902
-12.6886
-12.6873
-12.6864
-12.686
-12.6861
-12.6867
-12.688
-12.6899
-12.6927
-12.6963
-12.7012
-12.7085
-12.7988
-12.8029
-12.8054
-12.8067
-12.8072
-12.8066
-12.8052
-12.8028
-12.7997
-12.796
-12.7918
-12.7872
-12.7825
-12.7776
-12.7728
-12.768
-12.7633
-12.7587
-12.7542
-12.7498
-12.7455
-12.7412
-12.7369
-12.7326
-12.7282
-12.7237
-12.7191
-12.7144
-12.7096
-12.7047
-12.6998
-12.6948
-12.6898
-12.6849
-12.6801
-12.6756
-12.6713
-12.6673
-12.6638
-12.6608
-12.6584
-12.6567
-12.6558
-12.6559
-12.6569
-12.6591
-12.6626
-12.6674
-12.6743
-12.6844
-12.8222
-12.8291
-12.8335
-12.836
-12.8372
-12.837
-12.8354
-12.8325
-12.8286
-12.8239
-12.8184
-12.8125
-12.8062
-12.7997
-12.7932
-12.7867
-12.7803
-12.774
-12.7678
-12.7617
-12.7556
-12.7496
-12.7436
-12.7375
-12.7314
-12.7251
-12.7188
-12.7122
-12.7055
-12.6987
-12.6917
-12.6847
-12.6776
-12.6705
-12.6636
-12.6568
-12.6503
-12.6443
-12.6387
-12.6338
-12.6297
-12.6266
-12.6245
-12.6238
-12.6245
-12.6268
-12.631
-12.6369
-12.6457
-12.6588
-12.8467
-12.8566
-12.8628
-12.8665
-12.8684
-12.8684
-12.8665
-12.8631
-12.8583
-12.8524
-12.8456
-12.8382
-12.8304
-12.8223
-12.8141
-12.8059
-12.7977
-12.7897
-12.7818
-12.774
-12.7663
-12.7586
-12.7509
-12.7431
-12.7353
-12.7273
-12.7191
-12.7107
-12.7021
-12.6933
-12.6843
-12.6751
-12.6659
-12.6566
-12.6473
-12.6382
-12.6294
-12.621
-12.6132
-12.6062
-12.6001
-12.5953
-12.5918
-12.5901
-12.5902
-12.5926
-12.5972
-12.6043
-12.615
-12.6311
-12.873
-12.8859
-12.894
-12.8988
-12.9013
-12.9013
-12.8991
-12.8949
-12.889
-12.8818
-12.8736
-12.8645
-12.855
-12.8452
-12.8353
-12.8254
-12.8155
-12.8058
-12.7962
-12.7867
-12.7774
-12.768
-12.7587
-12.7492
-12.7397
-12.73
-12.72
-12.7098
-12.6993
-12.6885
-12.6775
-12.6662
-12.6546
-12.643
-12.6313
-12.6197
-12.6084
-12.5974
-12.5871
-12.5777
-12.5694
-12.5625
-12.5574
-12.5543
-12.5537
-12.5558
-12.5608
-12.5689
-12.5815
-12.6007
-12.9016
-12.9176
-12.9276
-12.9335
-12.9364
-12.9363
-12.9334
-12.9282
-12.921
-12.9123
-12.9023
-12.8916
-12.8802
-12.8686
-12.8569
-12.8452
-12.8336
-12.8221
-12.8109
-12.7997
-12.7887
-12.7778
-12.7668
-12.7558
-12.7446
-12.7332
-12.7215
-12.7095
-12.6971
-12.6844
-12.6712
-12.6577
-12.6439
-12.6298
-12.6155
-12.6013
-12.5872
-12.5735
-12.5604
-12.5482
-12.5373
-12.528
-12.5208
-12.5161
-12.5143
-12.5159
-12.5211
-12.5301
-12.5446
-12.5671
-12.9332
-12.9524
-12.9644
-12.9712
-12.9742
-12.9737
-12.97
-12.9634
-12.9546
-12.944
-12.9321
-12.9193
-12.906
-12.8924
-12.8787
-12.8651
-12.8517
-12.8386
-12.8256
-12.8129
-12.8003
-12.7877
-12.7752
-12.7626
-12.7498
-12.7368
-12.7234
-12.7096
-12.6954
-12.6807
-12.6655
-12.6497
-12.6335
-12.6169
-12.6
-12.5829
-12.5659
-12.5491
-12.5329
-12.5176
-12.5037
-12.4916
-12.4818
-12.475
-12.4716
-12.4722
-12.4773
-12.487
-12.5034
-12.5294
-12.9684
-12.9912
-13.0051
-13.0126
-13.0156
-13.0143
-13.0092
-13.0008
-12.99
-12.9771
-12.9629
-12.9478
-12.9322
-12.9164
-12.9007
-12.8851
-12.8699
-12.8549
-12.8403
-12.8259
-12.8117
-12.7977
-12.7837
-12.7695
-12.7552
-12.7406
-12.7256
-12.7101
-12.6941
-12.6775
-12.6602
-12.6422
-12.6236
-12.6044
-12.5847
-12.5646
-12.5444
-12.5243
-12.5046
-12.4858
-12.4684
-12.4529
-12.44
-12.4304
-12.4248
-12.4241
-12.4287
-12.4389
-12.4571
-12.4869
-13.0081
-13.0348
-13.0506
-13.0587
-13.0612
-13.0586
-13.0515
-13.0408
-13.0273
-13.0117
-12.9947
-12.977
-12.9588
-12.9406
-12.9226
-12.9049
-12.8877
-12.871
-12.8546
-12.8387
-12.8229
-12.8074
-12.7919
-12.7764
-12.7606
-12.7445
-12.728
-12.7109
-12.6931
-12.6746
-12.6553
-12.6351
-12.6141
-12.5923
-12.5697
-12.5465
-12.5228
-12.4991
-12.4756
-12.4528
-12.4312
-12.4117
-12.3949
-12.3819
-12.3734
-12.3706
-12.3742
-12.3845
-12.4046
-12.4384
-13.0534
-13.0844
-13.1022
-13.1104
-13.1119
-13.1073
-13.0975
-13.0836
-13.0668
-13.0478
-13.0275
-13.0066
-12.9855
-12.9646
-12.9442
-12.9243
-12.905
-12.8864
-12.8684
-12.8508
-12.8336
-12.8167
-12.7998
-12.7829
-12.7658
-12.7483
-12.7303
-12.7117
-12.6923
-12.672
-12.6508
-12.6285
-12.605
-12.5805
-12.555
-12.5285
-12.5013
-12.4736
-12.4458
-12.4184
-12.3921
-12.3678
-12.3463
-12.3288
-12.3166
-12.3108
-12.3126
-12.3226
-12.3444
-12.3826
-13.1057
-13.1416
-13.1612
-13.1691
-13.1687
-13.1611
-13.1476
-13.1296
-13.1085
-13.0853
-13.0611
-13.0365
-13.0121
-12.9882
-12.9651
-12.9428
-12.9215
-12.9009
-12.8812
-12.8621
-12.8435
-12.8252
-12.8071
-12.7889
-12.7705
-12.7518
-12.7325
-12.7125
-12.6916
-12.6697
-12.6466
-12.6222
-12.5964
-12.5693
-12.5407
-12.5108
-12.4798
-12.4478
-12.4153
-12.3829
-12.3511
-12.321
-12.2938
-12.2707
-12.2534
-12.2435
-12.2425
-12.2516
-12.2749
-12.318
-13.1667
-13.2083
-13.2296
-13.2362
-13.2328
-13.2209
-13.2022
-13.1788
-13.1523
-13.1241
-13.0951
-13.0663
-13.0381
-13.0109
-12.9849
-12.9601
-12.9366
-12.9142
-12.8927
-12.8721
-12.8522
-12.8327
-12.8134
-12.7941
-12.7747
-12.7548
-12.7344
-12.7131
-12.6909
-12.6674
-12.6426
-12.6163
-12.5883
-12.5586
-12.527
-12.4937
-12.4587
-12.4222
-12.3845
-12.3463
-12.3082
-12.2714
-12.2371
-12.207
-12.183
-12.1674
-12.1623
-12.1692
-12.1938
-12.2425
-13.2388
-13.2871
-13.3097
-13.3138
-13.3055
-13.2874
-13.2618
-13.2313
-13.1981
-13.1636
-13.1291
-13.0953
-13.0629
-13.0321
-13.003
-12.9757
-12.9499
-12.9256
-12.9026
-12.8806
-12.8595
-12.8389
-12.8186
-12.7984
-12.778
-12.7572
-12.7358
-12.7135
-12.6901
-12.6653
-12.639
-12.6108
-12.5808
-12.5486
-12.5141
-12.4773
-12.4382
-12.3969
-12.3537
-12.3091
-12.2638
-12.219
-12.1761
-12.1371
-12.1044
-12.081
-12.0696
-12.073
-12.0981
-12.1534
-13.3254
-13.3816
-13.4047
-13.4041
-13.3885
-13.3614
-13.3265
-13.2869
-13.2452
-13.2032
-13.1622
-13.1229
-13.0858
-13.0511
-13.0189
-12.9889
-12.9609
-12.9349
-12.9104
-12.8872
-12.865
-12.8434
-12.8224
-12.8014
-12.7803
-12.7588
-12.7366
-12.7135
-12.6891
-12.6633
-12.6356
-12.6059
-12.574
-12.5395
-12.5022
-12.462
-12.4188
-12.3725
-12.3234
-12.2718
-12.2184
-12.1642
-12.111
-12.0608
-12.0167
-11.9824
-11.9619
-11.9592
-11.9839
-12.0467
-13.4314
-13.497
-13.5188
-13.5102
-13.4833
-13.4436
-13.3961
-13.3448
-13.2927
-13.2418
-13.1933
-13.1479
-13.1058
-13.0671
-13.0316
-12.9991
-12.9691
-12.9414
-12.9157
-12.8914
-12.8684
-12.8462
-12.8246
-12.8031
-12.7815
-12.7596
-12.7369
-12.7131
-12.6881
-12.6614
-12.6327
-12.6017
-12.5681
-12.5316
-12.4918
-12.4483
-12.4011
-12.3498
-12.2945
-12.2353
-12.1728
-12.1079
-12.0422
-11.9781
-11.9191
-11.8699
-11.836
-11.8233
-11.8454
-11.9169
-13.5643
-13.6407
-13.6579
-13.6356
-13.5916
-13.5342
-13.47
-13.4039
-13.3393
-13.278
-13.2211
-13.1691
-13.1218
-13.0791
-13.0405
-13.0056
-12.9739
-12.9448
-12.9181
-12.8931
-12.8696
-12.847
-12.825
-12.8033
-12.7815
-12.7594
-12.7364
-12.7124
-12.687
-12.6597
-12.6304
-12.5984
-12.5636
-12.5253
-12.4832
-12.4369
-12.3858
-12.3296
-12.268
-12.2009
-12.1285
-12.0513
-11.9709
-11.8896
-11.8113
-11.7416
-11.6879
-11.6591
-11.6745
-11.7558
-13.7365
-13.8239
-13.8295
-13.7842
-13.7146
-13.6326
-13.5464
-13.462
-13.3825
-13.3095
-13.2437
-13.1848
-13.1324
-13.0859
-13.0446
-13.0077
-12.9746
-12.9447
-12.9173
-12.892
-12.8682
-12.8456
-12.8236
-12.802
-12.7804
-12.7583
-12.7354
-12.7114
-12.6859
-12.6585
-12.6288
-12.5963
-12.5606
-12.5211
-12.4772
-12.4284
-12.374
-12.3132
-12.2455
-12.1703
-12.0874
-11.9967
-11.8992
-11.7969
-11.6937
-11.5961
-11.5134
-11.4583
-11.4594
-11.5499
-13.9692
-14.0632
-14.0436
-13.9601
-13.8522
-13.7363
-13.6222
-13.5156
-13.4192
-13.3337
-13.2586
-13.1932
-13.1362
-13.0865
-13.043
-13.0048
-12.9709
-12.9406
-12.9131
-12.8878
-12.8643
-12.842
-12.8205
-12.7993
-12.7781
-12.7564
-12.734
-12.7104
-12.6852
-12.658
-12.6284
-12.5958
-12.5597
-12.5195
-12.4745
-12.4238
-12.3667
-12.302
-12.2288
-12.1459
-12.0523
-11.9472
-11.8306
-11.7034
-11.5687
-11.4334
-11.3081
-11.2105
-11.1823
-11.2762
-14.3014
-14.3841
-14.3117
-14.1656
-14.0016
-13.8403
-13.6914
-13.5594
-13.4449
-13.3468
-13.2632
-13.1921
-13.1315
-13.0797
-13.035
-12.9963
-12.9623
-12.9323
-12.9053
-12.8806
-12.8578
-12.8363
-12.8156
-12.7952
-12.7748
-12.7539
-12.7323
-12.7094
-12.685
-12.6584
-12.6294
-12.5972
-12.5614
-12.5212
-12.4757
-12.4241
-12.3652
-12.2977
-12.22
-12.1304
-12.0269
-11.9075
-11.7705
-11.6149
-11.4418
-11.2564
-11.0696
-10.9034
-10.8164
-10.8932
-14.8052
-14.8242
-14.6455
-14.398
-14.154
-13.9344
-13.745
-13.5858
-13.4537
-13.3446
-13.2543
-13.1794
-13.1169
-13.0644
-13.0199
-12.9817
-12.9487
-12.9197
-12.8939
-12.8705
-12.8489
-12.8286
-12.8091
-12.7899
-12.7707
-12.7511
-12.7306
-12.7089
-12.6856
-12.6602
-12.6322
-12.601
-12.5661
-12.5267
-12.4818
-12.4304
-12.3711
-12.3022
-12.2218
-12.1274
-12.0159
-11.8837
-11.7268
-11.5411
-11.3235
-11.0744
-10.8008
-10.525
-10.3226
-10.3252
-15.6114
-15.4338
-15.0524
-14.6478
-14.294
-14.0036
-13.7708
-13.5861
-13.4396
-13.3229
-13.2293
-13.1535
-13.0915
-13.0403
-12.9974
-12.9612
-12.9301
-12.9031
-12.8792
-12.8576
-12.8379
-12.8193
-12.8014
-12.7839
-12.7663
-12.7482
-12.7292
-12.7091
-12.6873
-12.6634
-12.6371
-12.6076
-12.5743
-12.5365
-12.4932
-12.4433
-12.3851
-12.317
-12.2363
-12.14
-12.0239
-11.8826
-11.7091
-11.4948
-11.2296
-10.9036
-10.5117
-10.0678
-9.64997
-9.4381
-17.0165
-16.2531
-15.5083
-14.8817
-14.391
-14.0242
-13.7526
-13.5498
-13.3963
-13.2784
-13.1865
-13.1137
-13.0552
-13.0075
-12.9682
-12.9352
-12.9072
-12.883
-12.8617
-12.8426
-12.8251
-12.8087
-12.7929
-12.7774
-12.7617
-12.7455
-12.7284
-12.7102
-12.6903
-12.6685
-12.6442
-12.617
-12.5861
-12.5508
-12.5102
-12.4631
-12.408
-12.3429
-12.265
-12.1709
-12.0554
-11.9114
-11.729
-11.4939
-11.1858
-10.7772
-10.2382
-9.55837
-8.75842
-7.92705
-19.8506
-17.2514
-15.8321
-14.9454
-14.3374
-13.926
-13.6458
-13.4487
-13.3056
-13.1988
-13.1172
-13.0536
-13.0031
-12.9624
-12.9291
-12.9014
-12.878
-12.8578
-12.8402
-12.8245
-12.81
-12.7964
-12.7833
-12.7703
-12.757
-12.7432
-12.7286
-12.7128
-12.6955
-12.6763
-12.6549
-12.6307
-12.6032
-12.5718
-12.5354
-12.4932
-12.4437
-12.3849
-12.3145
-12.2289
-12.1229
-11.989
-11.8155
-11.5841
-11.2643
-10.8061
-10.1399
-9.18112
-7.67543
-4.95619
-24.7192
-18.3343
-15.668
-14.5689
-13.9713
-13.616
-13.3957
-13.2492
-13.1454
-13.0686
-13.0101
-12.9645
-12.9283
-12.8991
-12.8753
-12.8556
-12.839
-12.8248
-12.8124
-12.8012
-12.791
-12.7812
-12.7717
-12.762
-12.7521
-12.7415
-12.7301
-12.7176
-12.7038
-12.6882
-12.6708
-12.6509
-12.6283
-12.6024
-12.5725
-12.5378
-12.4973
-12.4496
-12.3928
-12.3244
-12.2406
-12.1356
-12.0001
-11.8176
-11.5563
-11.1522
-10.4889
-9.29495
-6.51119
2.85641e-05
)
;

boundaryField
{
    movingWallTop
    {
        type            zeroGradient;
    }
    movingWallBottom
    {
        type            zeroGradient;
    }
    fixedWalls
    {
        type            zeroGradient;
    }
    frontAndBack
    {
        type            empty;
    }
}


// ************************************************************************* //
