/*--------------------------------*- C++ -*----------------------------------*\
  =========                 |
  \\      /  F ield         | OpenFOAM: The Open Source CFD Toolbox
   \\    /   O peration     | Website:  https://openfoam.org
    \\  /    A nd           | Version:  7
     \\/     M anipulation  |
\*---------------------------------------------------------------------------*/
FoamFile
{
    version     2.0;
    format      ascii;
    class       surfaceScalarField;
    location    "0.0274";
    object      phi;
}
// * * * * * * * * * * * * * * * * * * * * * * * * * * * * * * * * * * * * * //

dimensions      [0 3 -1 0 0 0 0];

internalField   nonuniform List<scalar> 
4900
(
-5.55632e-06
5.55633e-06
-1.01621e-05
4.60577e-06
-1.29487e-05
2.78662e-06
-1.46666e-05
1.71788e-06
-1.57656e-05
1.09904e-06
-1.65001e-05
7.34436e-07
-1.70155e-05
5.15395e-07
-1.73939e-05
3.78425e-07
-1.76821e-05
2.88196e-07
-1.79078e-05
2.25661e-07
-1.80881e-05
1.80381e-07
-1.82345e-05
1.46386e-07
-1.83546e-05
1.20087e-07
-1.84538e-05
9.92248e-08
-1.85361e-05
8.23096e-08
-1.86045e-05
6.8323e-08
-1.8661e-05
5.65444e-08
-1.87075e-05
4.64492e-08
-1.87451e-05
3.76448e-08
-1.87749e-05
2.98298e-08
-1.87977e-05
2.2767e-08
-1.8814e-05
1.6264e-08
-1.88241e-05
1.01602e-08
-1.88284e-05
4.31724e-09
-1.88271e-05
-1.38938e-09
-1.882e-05
-7.07415e-09
-1.88071e-05
-1.28504e-08
-1.87883e-05
-1.88323e-08
-1.87632e-05
-2.51416e-08
-1.87312e-05
-3.19135e-08
-1.86919e-05
-3.93041e-08
-1.86444e-05
-4.75006e-08
-1.85877e-05
-5.67341e-08
-1.85204e-05
-6.7299e-08
-1.84408e-05
-7.95805e-08
-1.83467e-05
-9.40961e-08
-1.82352e-05
-1.11561e-07
-1.81022e-05
-1.32991e-07
-1.79423e-05
-1.59885e-07
-1.77478e-05
-1.94531e-07
-1.75072e-05
-2.40582e-07
-1.72031e-05
-3.04116e-07
-1.68074e-05
-3.95699e-07
-1.6273e-05
-5.34336e-07
-1.55186e-05
-7.54449e-07
-1.44029e-05
-1.11563e-06
-1.26868e-05
-1.71611e-06
-9.94912e-06
-2.73772e-06
-5.45349e-06
-4.49564e-06
-5.45349e-06
-1.19436e-08
5.56827e-06
-2.12834e-06
6.72217e-06
-4.85027e-06
5.50855e-06
-7.25931e-06
4.12692e-06
-9.18667e-06
3.02641e-06
-1.06855e-05
2.23322e-06
-1.18493e-05
1.67927e-06
-1.27617e-05
1.29077e-06
-1.34862e-05
1.01274e-06
-1.40692e-05
8.08683e-07
-1.45439e-05
6.55031e-07
-1.4934e-05
5.36493e-07
-1.52569e-05
4.42993e-07
-1.55254e-05
3.67739e-07
-1.57491e-05
3.06035e-07
-1.59354e-05
2.54552e-07
-1.60897e-05
2.10873e-07
-1.62164e-05
1.73204e-07
-1.6319e-05
1.40178e-07
-1.63999e-05
1.10735e-07
-1.64611e-05
8.40277e-08
-1.65042e-05
5.93658e-08
-1.65303e-05
3.61675e-08
-1.65399e-05
1.39279e-08
-1.65334e-05
-7.8056e-09
-1.65111e-05
-2.94571e-08
-1.64725e-05
-5.14377e-08
-1.64171e-05
-7.41649e-08
-1.63442e-05
-9.8081e-08
-1.62524e-05
-1.23673e-07
-1.61403e-05
-1.515e-07
-1.60055e-05
-1.82224e-07
-1.58456e-05
-2.16652e-07
-1.56571e-05
-2.55801e-07
-1.54357e-05
-3.00979e-07
-1.51759e-05
-3.53912e-07
-1.48705e-05
-4.16927e-07
-1.45103e-05
-4.93237e-07
-1.40828e-05
-5.87378e-07
-1.35714e-05
-7.05913e-07
-1.29534e-05
-8.58551e-07
-1.21976e-05
-1.05993e-06
-1.12609e-05
-1.3324e-06
-1.00852e-05
-1.71004e-06
-8.59649e-06
-2.24318e-06
-6.71478e-06
-2.99733e-06
-4.40092e-06
-4.02997e-06
-1.82395e-06
-5.31469e-06
1.22196e-07
-6.44178e-06
-5.33129e-06
1.0341e-06
4.53417e-06
5.54569e-07
7.2017e-06
-9.73944e-07
7.03706e-06
-2.8542e-06
6.00718e-06
-4.69291e-06
4.86511e-06
-6.33012e-06
3.87043e-06
-7.72702e-06
3.07617e-06
-8.89727e-06
2.46101e-06
-9.87178e-06
1.98725e-06
-1.06833e-05
1.62016e-06
-1.13606e-05
1.3324e-06
-1.19278e-05
1.10362e-06
-1.24037e-05
9.18977e-07
-1.28037e-05
7.67704e-07
-1.31396e-05
6.41913e-07
-1.34208e-05
5.35764e-07
-1.36548e-05
4.44871e-07
-1.38475e-05
3.65883e-07
-1.40035e-05
2.96197e-07
-1.41265e-05
2.3375e-07
-1.42193e-05
1.76873e-07
-1.42842e-05
1.24184e-07
-1.43225e-05
7.45116e-08
-1.43354e-05
2.68285e-08
-1.43234e-05
-1.979e-08
-1.42867e-05
-6.62101e-08
-1.42248e-05
-1.13272e-07
-1.41372e-05
-1.61825e-07
-1.40225e-05
-2.12761e-07
-1.38791e-05
-2.67054e-07
-1.37048e-05
-3.25805e-07
-1.34967e-05
-3.90301e-07
-1.32513e-05
-4.6209e-07
-1.2964e-05
-5.4308e-07
-1.26293e-05
-6.35674e-07
-1.22403e-05
-7.42962e-07
-1.17882e-05
-8.68989e-07
-1.12623e-05
-1.01913e-06
-1.06491e-05
-1.20061e-06
-9.93174e-06
-1.42327e-06
-9.08972e-06
-1.70057e-06
-8.09887e-06
-2.05078e-06
-6.93314e-06
-2.49813e-06
-5.57041e-06
-3.07277e-06
-4.00722e-06
-3.80637e-06
-2.29045e-06
-4.71411e-06
-5.77881e-07
-5.74254e-06
7.62283e-07
-6.65485e-06
1.08573e-06
-6.76522e-06
-4.24556e-06
9.09498e-07
3.62467e-06
1.24133e-06
6.86987e-06
6.71928e-07
7.60646e-06
-4.73248e-07
7.15236e-06
-1.86589e-06
6.25775e-06
-3.28852e-06
5.29306e-06
-4.62495e-06
4.4126e-06
-5.82619e-06
3.66226e-06
-6.88044e-06
3.0415e-06
-7.79379e-06
2.53351e-06
-8.57953e-06
2.11814e-06
-9.25278e-06
1.77686e-06
-9.82802e-06
1.49422e-06
-1.03181e-05
1.25783e-06
-1.07342e-05
1.05797e-06
-1.10855e-05
8.87028e-07
-1.13796e-05
7.39022e-07
-1.1623e-05
6.09223e-07
-1.18206e-05
4.93848e-07
-1.19767e-05
3.89825e-07
-1.20944e-05
2.94621e-07
-1.21764e-05
2.06104e-07
-1.22243e-05
1.22441e-07
-1.22395e-05
4.20138e-08
-1.22226e-05
-3.6647e-08
-1.21739e-05
-1.14917e-07
-1.2093e-05
-1.94131e-07
-1.19792e-05
-2.75629e-07
-1.18312e-05
-3.60803e-07
-1.16471e-05
-4.51158e-07
-1.14245e-05
-5.48365e-07
-1.11605e-05
-6.54344e-07
-1.08512e-05
-7.71351e-07
-1.04922e-05
-9.02102e-07
-1.0078e-05
-1.04993e-06
-9.60195e-06
-1.21896e-06
-9.05652e-06
-1.41442e-06
-8.43275e-06
-1.6429e-06
-7.72059e-06
-1.91277e-06
-6.90927e-06
-2.23458e-06
-5.98848e-06
-2.62136e-06
-4.95082e-06
-3.08844e-06
-3.79697e-06
-3.65198e-06
-2.54532e-06
-4.32442e-06
-1.24875e-06
-5.10294e-06
-1.97377e-08
-5.94312e-06
9.43143e-07
-6.70542e-06
1.34752e-06
-7.05923e-06
9.15771e-07
-6.33347e-06
-3.32979e-06
6.76386e-07
2.94829e-06
1.26115e-06
6.28511e-06
1.26154e-06
7.60607e-06
7.17592e-07
7.69631e-06
-1.841e-07
7.15944e-06
-1.2621e-06
6.37105e-06
-2.38506e-06
5.53557e-06
-3.4726e-06
4.74979e-06
-4.48217e-06
4.05107e-06
-5.39537e-06
3.44671e-06
-6.20781e-06
2.93058e-06
-6.92254e-06
2.49159e-06
-7.54608e-06
2.11776e-06
-8.08623e-06
1.79798e-06
-8.55084e-06
1.52258e-06
-8.94723e-06
1.28342e-06
-9.28195e-06
1.07373e-06
-9.56064e-06
8.8792e-07
-9.78813e-06
7.21332e-07
-9.96839e-06
5.70085e-07
-1.01047e-05
4.30895e-07
-1.01995e-05
3.00941e-07
-1.02548e-05
1.77761e-07
-1.0272e-05
5.91536e-08
-1.02517e-05
-5.68912e-08
-1.01944e-05
-1.72263e-07
-1.00997e-05
-2.88789e-07
-9.96705e-06
-4.08291e-07
-9.7952e-06
-5.32646e-07
-9.58252e-06
-6.63844e-07
-9.32683e-06
-8.04057e-07
-9.02545e-06
-9.5572e-07
-8.67517e-06
-1.12163e-06
-8.27225e-06
-1.30503e-06
-7.81239e-06
-1.50978e-06
-7.29088e-06
-1.74048e-06
-6.70267e-06
-2.00263e-06
-6.0428e-06
-2.30277e-06
-5.307e-06
-2.64857e-06
-4.49292e-06
-3.04866e-06
-3.60223e-06
-3.51206e-06
-2.6441e-06
-4.04657e-06
-1.6409e-06
-4.65518e-06
-6.365e-07
-5.32882e-06
2.92918e-07
-6.03236e-06
1.02929e-06
-6.67948e-06
1.41574e-06
-7.09187e-06
1.29914e-06
-6.94264e-06
6.66429e-07
-5.70076e-06
-2.66336e-06
4.86191e-07
2.4621e-06
1.09771e-06
5.67359e-06
1.38757e-06
7.31621e-06
1.25432e-06
7.82956e-06
7.64526e-07
7.64923e-06
3.5646e-08
7.09993e-06
-8.21394e-07
6.39261e-06
-1.72243e-06
5.65083e-06
-2.611e-06
4.93964e-06
-3.45291e-06
4.28863e-06
-4.22969e-06
3.70736e-06
-4.93311e-06
3.19501e-06
-5.56121e-06
2.74586e-06
-6.1156e-06
2.35237e-06
-6.59976e-06
2.00674e-06
-7.01796e-06
1.70162e-06
-7.37465e-06
1.43042e-06
-7.67407e-06
1.18734e-06
-7.92007e-06
9.67338e-07
-8.11605e-06
7.66057e-07
-8.26484e-06
5.79686e-07
-8.36877e-06
4.04877e-07
-8.42966e-06
2.3865e-07
-8.44882e-06
7.83071e-08
-8.42707e-06
-7.864e-08
-8.36479e-06
-2.34536e-07
-8.26194e-06
-3.91646e-07
-8.11802e-06
-5.52209e-07
-7.93216e-06
-7.18503e-07
-7.70311e-06
-8.92899e-07
-7.42924e-06
-1.07793e-06
-7.10861e-06
-1.27635e-06
-6.73901e-06
-1.49122e-06
-6.31805e-06
-1.72599e-06
-5.8433e-06
-1.98453e-06
-5.31255e-06
-2.27123e-06
-4.72417e-06
-2.59101e-06
-4.07777e-06
-2.94917e-06
-3.37514e-06
-3.35119e-06
-2.62183e-06
-3.80198e-06
-1.82933e-06
-4.30456e-06
-1.01838e-06
-4.85751e-06
-2.23161e-07
-5.4504e-06
5.03866e-07
-6.05585e-06
1.08836e-06
-6.61685e-06
1.4366e-06
-7.02772e-06
1.45405e-06
-7.10932e-06
1.09601e-06
-6.5846e-06
4.70868e-07
-5.07562e-06
-2.1925e-06
3.54716e-07
2.10738e-06
9.15573e-07
5.11273e-06
1.32996e-06
6.90183e-06
1.44923e-06
7.71029e-06
1.26452e-06
7.83394e-06
8.34588e-07
7.52987e-06
2.3734e-07
6.98985e-06
-4.55122e-07
6.34329e-06
-1.18594e-06
5.67045e-06
-1.91441e-06
5.01711e-06
-2.61361e-06
4.40656e-06
-3.267e-06
3.8484e-06
-3.86542e-06
3.34429e-06
-4.40467e-06
2.89162e-06
-4.88367e-06
2.48574e-06
-5.30325e-06
2.1212e-06
-5.66527e-06
1.79244e-06
-5.97211e-06
1.49418e-06
-6.22626e-06
1.22149e-06
-6.43014e-06
9.69933e-07
-6.58592e-06
7.3547e-07
-6.6955e-06
5.14449e-07
-6.76039e-06
3.03547e-07
-6.78179e-06
9.97052e-08
-6.76051e-06
-9.99268e-08
-6.697e-06
-2.98046e-07
-6.59139e-06
-4.97253e-07
-6.4435e-06
-7.00097e-07
-6.25287e-06
-9.09135e-07
-6.01879e-06
-1.12697e-06
-5.7404e-06
-1.35632e-06
-5.41671e-06
-1.60004e-06
-5.04678e-06
-1.86115e-06
-4.62984e-06
-2.14292e-06
-4.16556e-06
-2.44881e-06
-3.65439e-06
-2.7824e-06
-3.09809e-06
-3.14731e-06
-2.50043e-06
-3.54683e-06
-1.86829e-06
-3.98333e-06
-1.21303e-06
-4.45724e-06
-5.52376e-07
-4.96521e-06
8.73584e-08
-5.49725e-06
6.69017e-07
-6.03206e-06
1.14327e-06
-6.53011e-06
1.45031e-06
-6.92389e-06
1.52846e-06
-7.10587e-06
1.33578e-06
-6.91665e-06
8.91392e-07
-6.1402e-06
3.38011e-07
-4.52224e-06
-1.85449e-06
2.67971e-07
1.83941e-06
7.59897e-07
4.6208e-06
1.21179e-06
6.44994e-06
1.4741e-06
7.44797e-06
1.49909e-06
7.80895e-06
1.30289e-06
7.72607e-06
9.31689e-07
7.36106e-06
4.3923e-07
6.83575e-06
-1.25149e-07
6.23483e-06
-7.21348e-07
5.6133e-06
-1.31925e-06
5.00446e-06
-1.8976e-06
4.42675e-06
-2.44222e-06
3.8889e-06
-2.94423e-06
3.39363e-06
-3.39857e-06
2.94009e-06
-3.8028e-06
2.52542e-06
-4.15615e-06
2.1458e-06
-4.45898e-06
1.797e-06
-4.7122e-06
1.47472e-06
-4.91708e-06
1.17481e-06
-5.07494e-06
8.93331e-07
-5.18707e-06
6.26575e-07
-5.2546e-06
3.71081e-07
-5.2785e-06
1.236e-07
-5.25949e-06
-1.18932e-07
-5.19811e-06
-3.59429e-07
-5.09467e-06
-6.00695e-07
-4.9493e-06
-8.45462e-07
-4.76202e-06
-1.09642e-06
-4.53276e-06
-1.35624e-06
-4.26145e-06
-1.62763e-06
-3.94818e-06
-1.91331e-06
-3.59331e-06
-2.21602e-06
-3.1977e-06
-2.53853e-06
-2.76302e-06
-2.88349e-06
-2.29213e-06
-3.2533e-06
-1.7896e-06
-3.64984e-06
-1.26247e-06
-4.07396e-06
-7.21082e-07
-4.52472e-06
-1.80196e-07
-4.99812e-06
3.39801e-07
-5.48521e-06
8.11814e-07
-5.96926e-06
1.20157e-06
-6.42181e-06
1.46875e-06
-6.79729e-06
1.57142e-06
-7.02657e-06
1.4762e-06
-7.01065e-06
1.17688e-06
-6.61732e-06
7.22638e-07
-5.68596e-06
2.50928e-07
-4.05053e-06
-1.60356e-06
2.10046e-07
1.62936e-06
6.36171e-07
4.19468e-06
1.0834e-06
6.00271e-06
1.41921e-06
7.11216e-06
1.58051e-06
7.64766e-06
1.5567e-06
7.74987e-06
1.3688e-06
7.54895e-06
1.05225e-06
7.1523e-06
6.45517e-07
6.64157e-06
1.83829e-07
6.07499e-06
-3.03496e-07
5.49179e-06
-7.93614e-07
4.91686e-06
-1.2696e-06
4.36489e-06
-1.71947e-06
3.8435e-06
-2.1351e-06
3.35572e-06
-2.51131e-06
2.90162e-06
-2.84499e-06
2.47948e-06
-3.13453e-06
2.08654e-06
-3.37933e-06
1.71951e-06
-3.57939e-06
1.37488e-06
-3.73513e-06
1.04907e-06
-3.84715e-06
7.38588e-07
-3.91611e-06
4.40039e-07
-3.94268e-06
1.50171e-07
-3.92748e-06
-1.34131e-07
-3.87106e-06
-4.15849e-07
-3.7739e-06
-6.97852e-07
-3.63646e-06
-9.829e-07
-3.45921e-06
-1.27367e-06
-3.2427e-06
-1.57275e-06
-2.98767e-06
-1.88265e-06
-2.69521e-06
-2.20577e-06
-2.36687e-06
-2.54436e-06
-2.00498e-06
-2.90042e-06
-1.61287e-06
-3.27559e-06
-1.19531e-06
-3.67086e-06
-7.58951e-07
-4.0862e-06
-3.12898e-07
-4.52002e-06
1.3062e-07
-4.96824e-06
5.55599e-07
-5.4231e-06
9.41716e-07
-5.87132e-06
1.26419e-06
-6.29174e-06
1.49457e-06
-6.65219e-06
1.60316e-06
-6.90588e-06
1.56429e-06
-6.98769e-06
1.3655e-06
-6.81186e-06
1.02142e-06
-6.27324e-06
5.91109e-07
-5.25565e-06
1.92947e-07
-3.65236e-06
-1.41061e-06
1.69996e-07
1.45937e-06
5.39323e-07
3.82535e-06
9.63159e-07
5.57887e-06
1.33031e-06
6.745e-06
1.57533e-06
7.40264e-06
1.67299e-06
7.65221e-06
1.62661e-06
7.59534e-06
1.45614e-06
7.32276e-06
1.18892e-06
6.90879e-06
8.53385e-07
6.41053e-06
4.75597e-07
5.86958e-06
7.76373e-08
5.31482e-06
-3.22778e-07
4.7653e-06
-7.12029e-07
4.23275e-06
-1.08002e-06
3.72372e-06
-1.41953e-06
3.24114e-06
-1.72558e-06
2.78553e-06
-1.99489e-06
2.35585e-06
-2.22543e-06
1.95005e-06
-2.41607e-06
1.56551e-06
-2.56627e-06
1.19928e-06
-2.67595e-06
8.48268e-07
-2.74528e-06
5.09364e-07
-2.77459e-06
1.79485e-07
-2.76435e-06
-1.44373e-07
-2.71509e-06
-4.65112e-07
-2.62742e-06
-7.85517e-07
-2.50208e-06
-1.10824e-06
-2.33993e-06
-1.43581e-06
-2.1421e-06
-1.77058e-06
-1.91004e-06
-2.11472e-06
-1.64566e-06
-2.47015e-06
-1.35156e-06
-2.83846e-06
-1.03118e-06
-3.2208e-06
-6.89138e-07
-3.61764e-06
-3.31492e-07
-4.0285e-06
3.38459e-08
-4.45154e-06
3.96732e-07
-4.8829e-06
7.44409e-07
-5.31592e-06
1.06123e-06
-5.73992e-06
1.32867e-06
-6.13876e-06
1.52582e-06
-6.48889e-06
1.63087e-06
-6.75725e-06
1.62401e-06
-6.89901e-06
1.4923e-06
-6.85599e-06
1.2371e-06
-6.55665e-06
8.83403e-07
-5.91955e-06
4.89639e-07
-4.86189e-06
1.52991e-07
-3.31572e-06
-1.25762e-06
1.41122e-07
1.31825e-06
4.62875e-07
3.5036e-06
8.56121e-07
5.18563e-06
1.2297e-06
6.37142e-06
1.52216e-06
7.11018e-06
1.70164e-06
7.47273e-06
1.76011e-06
7.53687e-06
1.70579e-06
7.37709e-06
1.55612e-06
7.05846e-06
1.33246e-06
6.63419e-06
1.05643e-06
6.14561e-06
7.47873e-07
5.62338e-06
4.23846e-07
5.08933e-06
9.83482e-08
4.55825e-06
-2.17545e-07
4.03961e-06
-5.15338e-07
3.53893e-06
-7.88703e-07
3.0589e-06
-1.03306e-06
2.60021e-06
-1.24521e-06
2.1622e-06
-1.42299e-06
1.74329e-06
-1.56506e-06
1.34135e-06
-1.67065e-06
9.5386e-07
-1.73945e-06
5.78157e-07
-1.77144e-06
2.11485e-07
-1.76692e-06
-1.48902e-07
-1.72634e-06
-5.05684e-07
-1.65043e-06
-8.61432e-07
-1.5401e-06
-1.21857e-06
-1.39657e-06
-1.57934e-06
-1.2214e-06
-1.94576e-06
-1.01659e-06
-2.31952e-06
-7.84743e-07
-2.70199e-06
-5.29189e-07
-3.09402e-06
-2.54189e-07
-3.4958e-06
3.48417e-08
-3.90667e-06
3.31094e-07
-4.32475e-06
6.26116e-07
-4.74656e-06
9.09593e-07
-5.16638e-06
1.16921e-06
-5.57553e-06
1.39069e-06
-5.9614e-06
1.55816e-06
-6.30623e-06
1.65507e-06
-6.5858e-06
1.66586e-06
-6.76804e-06
1.5788e-06
-6.81194e-06
1.39006e-06
-6.66725e-06
1.10916e-06
-6.27576e-06
7.64975e-07
-5.57536e-06
4.10637e-07
-4.50755e-06
1.24344e-07
-3.02942e-06
-1.13328e-06
1.19408e-07
1.19884e-06
4.01374e-07
3.22163e-06
7.622e-07
4.8248e-06
1.12773e-06
6.00589e-06
1.44303e-06
6.79489e-06
1.67448e-06
7.24128e-06
1.80749e-06
7.40386e-06
1.84198e-06
7.3426e-06
1.78745e-06
7.11298e-06
1.65876e-06
6.76288e-06
1.47282e-06
6.33154e-06
1.24649e-06
5.84971e-06
9.95236e-07
5.34059e-06
7.32494e-07
4.82099e-06
4.695e-07
4.3026e-06
2.15337e-07
3.79309e-06
-2.28514e-08
3.29709e-06
-2.39587e-07
2.81695e-06
-4.30781e-07
2.35339e-06
-5.93471e-07
1.90598e-06
-7.25598e-07
1.47347e-06
-8.25815e-07
1.05408e-06
-8.93345e-07
6.45687e-07
-9.27865e-07
2.46005e-07
-9.29437e-07
-1.47331e-07
-8.9846e-07
-5.3666e-07
-8.35661e-07
-9.24231e-07
-7.42103e-07
-1.31213e-06
-6.19225e-07
-1.70222e-06
-4.68909e-07
-2.09607e-06
-2.9356e-07
-2.49487e-06
-9.62246e-08
-2.89933e-06
1.19281e-07
-3.30952e-06
3.48219e-07
-3.72474e-06
5.84771e-07
-4.14322e-06
8.21878e-07
-4.56186e-06
1.05111e-06
-4.97579e-06
1.26259e-06
-5.37786e-06
1.44507e-06
-5.75801e-06
1.58615e-06
-6.10248e-06
1.6729e-06
-6.39298e-06
1.69287e-06
-6.60578e-06
1.63581e-06
-6.71098e-06
1.49607e-06
-6.6722e-06
1.27583e-06
-6.44701e-06
9.88866e-07
-5.9888e-06
6.6414e-07
-5.25064e-06
3.48002e-07
-4.19141e-06
1.02982e-07
-2.7844e-06
-1.03029e-06
1.02424e-07
1.09641e-06
3.50737e-07
2.97332e-06
6.79629e-07
4.49591e-06
1.02879e-06
5.65673e-06
1.35035e-06
6.47333e-06
1.61169e-06
6.97993e-06
1.79496e-06
7.22059e-06
1.89463e-06
7.24294e-06
1.91422e-06
7.0934e-06
1.86309e-06
6.81401e-06
1.75378e-06
6.44086e-06
1.5999e-06
6.00358e-06
1.41484e-06
5.52565e-06
1.21087e-06
5.02496e-06
9.98773e-07
4.5147e-06
7.87646e-07
4.00422e-06
5.84977e-07
3.49976e-06
3.96758e-07
3.00516e-06
2.27666e-07
2.52248e-06
8.12556e-08
2.05239e-06
-3.98626e-08
1.59459e-06
-1.33863e-07
1.14808e-06
-1.99572e-07
7.11396e-07
-2.36367e-07
2.828e-07
-2.44104e-07
-1.39594e-07
-2.23068e-07
-5.57696e-07
-1.73961e-07
-9.73339e-07
-9.79008e-08
-1.38819e-06
3.54491e-09
-1.80367e-06
1.28309e-07
-2.22084e-06
2.73754e-07
-2.64032e-06
4.36587e-07
-3.06216e-06
6.12754e-07
-3.48569e-06
7.9734e-07
-3.90932e-06
9.84463e-07
-4.33034e-06
1.16719e-06
-4.74459e-06
1.33753e-06
-5.14612e-06
1.48642e-06
-5.52676e-06
1.60399e-06
-5.87559e-06
1.6799e-06
-6.17839e-06
1.70401e-06
-6.41709e-06
1.66745e-06
-6.56921e-06
1.56411e-06
-6.60764e-06
1.39265e-06
-6.50074e-06
1.15886e-06
-6.21322e-06
8.7821e-07
-5.70814e-06
5.77829e-07
-4.95025e-06
2.9723e-07
-3.91081e-06
8.64518e-08
-2.57362e-06
-9.43842e-07
8.86617e-08
1.00775e-06
3.08029e-07
2.75395e-06
6.06339e-07
4.1976e-06
9.34367e-07
5.3287e-06
1.25102e-06
6.15668e-06
1.52604e-06
6.70491e-06
1.74048e-06
7.00614e-06
1.88553e-06
7.09789e-06
1.96046e-06
7.01847e-06
1.9703e-06
6.80417e-06
1.92372e-06
6.48743e-06
1.83129e-06
6.09602e-06
1.70412e-06
5.65283e-06
1.55297e-06
5.1761e-06
1.38775e-06
4.67992e-06
1.21717e-06
4.1748e-06
1.04867e-06
3.66826e-06
8.88408e-07
3.16542e-06
7.41384e-07
2.66951e-06
6.11522e-07
2.18226e-06
5.01822e-07
1.70429e-06
4.14473e-07
1.23543e-06
3.50967e-07
7.74901e-07
3.12189e-07
3.21578e-07
2.98482e-07
-1.25887e-07
3.09692e-07
-5.68905e-07
3.4519e-07
-1.00884e-06
4.03872e-07
-1.44687e-06
4.84141e-07
-1.88394e-06
5.83868e-07
-2.32056e-06
7.0034e-07
-2.75679e-06
8.30198e-07
-3.19202e-06
9.69368e-07
-3.62486e-06
1.113e-06
-4.05295e-06
1.2554e-06
-4.47275e-06
1.39006e-06
-4.87925e-06
1.50963e-06
-5.2657e-06
1.60613e-06
-5.62326e-06
1.67114e-06
-5.9406e-06
1.6963e-06
-6.20354e-06
1.67393e-06
-6.39472e-06
1.59806e-06
-6.49335e-06
1.46567e-06
-6.47525e-06
1.27824e-06
-6.31331e-06
1.04348e-06
-5.97846e-06
7.76934e-07
-5.4416e-06
5.03051e-07
-4.67637e-06
2.55083e-07
-3.66285e-06
7.32181e-08
-2.39176e-06
-8.70624e-07
7.71579e-08
9.30593e-07
2.71158e-07
2.55995e-06
5.40443e-07
3.92832e-06
8.44661e-07
5.02448e-06
1.14881e-06
5.85253e-06
1.42562e-06
6.4281e-06
1.65638e-06
6.77538e-06
1.83056e-06
6.9237e-06
1.94459e-06
6.90445e-06
2.00023e-06
6.74852e-06
2.00302e-06
6.48464e-06
1.96076e-06
6.13829e-06
1.88234e-06
5.73124e-06
1.77691e-06
5.28152e-06
1.65326e-06
4.80358e-06
1.51942e-06
4.30865e-06
1.38247e-06
3.80521e-06
1.2485e-06
3.2994e-06
1.12256e-06
2.79545e-06
1.00877e-06
2.29605e-06
9.1034e-07
1.80272e-06
8.29719e-07
1.31605e-06
7.68634e-07
8.35986e-07
7.28184e-07
3.62028e-07
7.08893e-07
-1.06595e-07
7.1075e-07
-5.70762e-07
7.33234e-07
-1.03132e-06
7.75318e-07
-1.48896e-06
8.35461e-07
-1.94408e-06
9.11581e-07
-2.39668e-06
1.00102e-06
-2.84623e-06
1.10051e-06
-3.29151e-06
1.20613e-06
-3.73047e-06
1.31326e-06
-4.16009e-06
1.41663e-06
-4.57611e-06
1.51027e-06
-4.97289e-06
1.58768e-06
-5.34311e-06
1.64195e-06
-5.67754e-06
1.66613e-06
-5.96477e-06
1.65359e-06
-6.191e-06
1.59874e-06
-6.33987e-06
1.49782e-06
-6.39243e-06
1.34995e-06
-6.32738e-06
1.15832e-06
-6.12168e-06
9.31398e-07
-5.75153e-06
6.83887e-07
-5.19409e-06
4.37246e-07
-4.42973e-06
2.19245e-07
-3.44484e-06
6.22872e-08
-2.2348e-06
-8.08337e-07
6.72755e-08
8.63318e-07
2.3863e-07
2.3886e-06
4.80375e-07
3.68657e-06
7.59303e-07
4.74555e-06
1.04576e-06
5.56607e-06
1.3156e-06
6.15826e-06
1.55117e-06
6.53981e-06
1.74131e-06
6.73357e-06
1.88069e-06
6.76507e-06
1.96875e-06
6.66045e-06
2.00854e-06
6.44485e-06
2.00553e-06
6.1413e-06
1.96661e-06
5.77016e-06
1.89931e-06
5.34882e-06
1.81119e-06
4.89169e-06
1.70943e-06
4.4104e-06
1.60059e-06
3.91405e-06
1.49044e-06
3.40955e-06
1.38391e-06
2.90197e-06
1.28512e-06
2.39484e-06
1.19739e-06
1.89045e-06
1.12328e-06
1.39016e-06
1.06468e-06
8.94581e-07
1.02286e-06
4.03846e-07
9.98502e-07
-8.22348e-08
9.91734e-07
-5.63995e-07
1.00217e-06
-1.04176e-06
1.02892e-06
-1.5157e-06
1.07055e-06
-1.98571e-06
1.12512e-06
-2.45126e-06
1.19015e-06
-2.91126e-06
1.26257e-06
-3.36393e-06
1.33874e-06
-3.80664e-06
1.41443e-06
-4.23578e-06
1.48485e-06
-4.64654e-06
1.54474e-06
-5.03277e-06
1.58844e-06
-5.38681e-06
1.61014e-06
-5.69924e-06
1.60418e-06
-5.95881e-06
1.56544e-06
-6.15227e-06
1.48995e-06
-6.26439e-06
1.3756e-06
-6.27807e-06
1.22288e-06
-6.17467e-06
1.03589e-06
-5.93468e-06
8.23024e-07
-5.53867e-06
5.97682e-07
-4.96875e-06
3.78341e-07
-4.21039e-06
1.88046e-07
-3.25455e-06
5.29949e-08
-2.09975e-06
-7.55342e-07
5.85811e-08
8.04737e-07
2.09372e-07
2.23781e-06
4.24888e-07
3.47105e-06
6.7774e-07
4.4927e-06
9.42908e-07
5.30091e-06
1.19933e-06
5.90184e-06
1.43083e-06
6.30831e-06
1.62633e-06
6.53806e-06
1.77959e-06
6.61181e-06
1.8885e-06
6.55155e-06
1.95422e-06
6.37912e-06
1.98033e-06
6.11519e-06
1.97197e-06
5.77852e-06
1.93518e-06
5.38561e-06
1.8763e-06
4.95058e-06
1.80158e-06
4.48512e-06
1.7169e-06
3.99873e-06
1.62759e-06
3.49886e-06
1.53833e-06
2.99124e-06
1.45307e-06
2.48009e-06
1.37512e-06
1.96841e-06
1.30708e-06
1.4582e-06
1.25092e-06
9.50742e-07
1.20801e-06
4.46752e-07
1.17917e-06
-5.33935e-08
1.16467e-06
-5.49494e-07
1.16427e-06
-1.04136e-06
1.17724e-06
-1.52867e-06
1.20234e-06
-2.01081e-06
1.23782e-06
-2.48674e-06
1.28145e-06
-2.95488e-06
1.33045e-06
-3.41293e-06
1.38157e-06
-3.85776e-06
1.43104e-06
-4.28525e-06
1.47465e-06
-4.69015e-06
1.50784e-06
-5.06596e-06
1.52581e-06
-5.40478e-06
1.52375e-06
-5.69718e-06
1.49714e-06
-5.93219e-06
1.44209e-06
-6.09722e-06
1.35587e-06
-6.17817e-06
1.23746e-06
-6.15966e-06
1.08822e-06
-6.02542e-06
9.12468e-07
-5.75894e-06
7.18123e-07
-5.34433e-06
5.16979e-07
-4.7676e-06
3.24698e-07
-4.01811e-06
1.60274e-07
-3.09012e-06
4.48841e-08
-1.98436e-06
-7.10458e-07
5.0772e-08
7.53965e-07
1.82602e-07
2.10598e-06
3.73007e-07
3.28065e-06
5.99402e-07
4.26631e-06
8.40787e-07
5.05952e-06
1.07901e-06
5.66362e-06
1.29957e-06
6.08775e-06
1.492e-06
6.34564e-06
1.6497e-06
6.45411e-06
1.76961e-06
6.43164e-06
1.85157e-06
6.29716e-06
1.89767e-06
6.06909e-06
1.9116e-06
5.76459e-06
1.89804e-06
5.39917e-06
1.86219e-06
4.98643e-06
1.80937e-06
4.53794e-06
1.74472e-06
4.06337e-06
1.67304e-06
3.57055e-06
1.59861e-06
3.06567e-06
1.52518e-06
2.55352e-06
1.4559e-06
2.03769e-06
1.39332e-06
1.52077e-06
1.33945e-06
1.00462e-06
1.2957e-06
4.90496e-07
1.263e-06
-2.06898e-08
1.24174e-06
-5.28236e-07
1.23185e-06
-1.03147e-06
1.23277e-06
-1.52959e-06
1.24348e-06
-2.02152e-06
1.2625e-06
-2.50576e-06
1.28789e-06
-2.98027e-06
1.31724e-06
-3.44229e-06
1.34773e-06
-3.88824e-06
1.37609e-06
-4.31361e-06
1.39873e-06
-4.71279e-06
1.4118e-06
-5.07903e-06
1.4113e-06
-5.40428e-06
1.39332e-06
-5.67921e-06
1.3543e-06
-5.89316e-06
1.2913e-06
-6.03422e-06
1.2025e-06
-6.08937e-06
1.08759e-06
-6.04475e-06
9.48287e-07
-5.88612e-06
7.88798e-07
-5.59945e-06
6.16194e-07
-5.17172e-06
4.4059e-07
-4.592e-06
2.75038e-07
-3.85256e-06
1.35038e-07
-2.95012e-06
3.76327e-08
-1.88696e-06
-6.72825e-07
4.36318e-08
7.10333e-07
1.57742e-07
1.99187e-06
3.23972e-07
3.11442e-06
5.23768e-07
4.06651e-06
7.39626e-07
4.84366e-06
9.56094e-07
5.44715e-06
1.16046e-06
5.88338e-06
1.3431e-06
6.16299e-06
1.49756e-06
6.29966e-06
1.62026e-06
6.30894e-06
1.71015e-06
6.20727e-06
1.76823e-06
6.01101e-06
1.79698e-06
5.73583e-06
1.79995e-06
5.3962e-06
1.78128e-06
5.00509e-06
1.74539e-06
4.57383e-06
1.69669e-06
4.11208e-06
1.63937e-06
3.62787e-06
1.57728e-06
3.12776e-06
1.51385e-06
2.61695e-06
1.45202e-06
2.09952e-06
1.39423e-06
1.57856e-06
1.34243e-06
1.05642e-06
1.29807e-06
5.34861e-07
1.26212e-06
1.52601e-08
1.2351e-06
-5.0122e-07
1.21709e-06
-1.01346e-06
1.20774e-06
-1.52023e-06
1.20626e-06
-2.02004e-06
1.21145e-06
-2.51096e-06
1.22172e-06
-2.99054e-06
1.23507e-06
-3.45564e-06
1.24913e-06
-3.90229e-06
1.26117e-06
-4.32566e-06
1.26822e-06
-4.71984e-06
1.2671e-06
-5.0779e-06
1.25455e-06
-5.39173e-06
1.22745e-06
-5.65211e-06
1.183e-06
-5.84871e-06
1.11902e-06
-5.97025e-06
1.03429e-06
-6.00464e-06
9.28892e-07
-5.93935e-06
8.04584e-07
-5.76181e-06
6.65154e-07
-5.46002e-06
5.16658e-07
-5.02323e-06
3.67514e-07
-4.44285e-06
2.28365e-07
-3.71341e-06
1.11673e-07
-2.83343e-06
3.10084e-08
-1.80629e-06
-6.41817e-07
3.70023e-08
6.73331e-07
1.34361e-07
1.89451e-06
2.77195e-07
2.97159e-06
4.50385e-07
3.89332e-06
6.39507e-07
4.65454e-06
8.31594e-07
5.25506e-06
1.01572e-06
5.69926e-06
1.18333e-06
5.99538e-06
1.32835e-06
6.15464e-06
1.44708e-06
6.19022e-06
1.53793e-06
6.11642e-06
1.6011e-06
5.94785e-06
1.63815e-06
5.69878e-06
1.65166e-06
5.38269e-06
1.64485e-06
5.0119e-06
1.6213e-06
4.59738e-06
1.58469e-06
4.14869e-06
1.53862e-06
3.67395e-06
1.48644e-06
3.17993e-06
1.43121e-06
2.67218e-06
1.37561e-06
2.15512e-06
1.3219e-06
1.63227e-06
1.27194e-06
1.10638e-06
1.22715e-06
5.79651e-07
1.18855e-06
5.38624e-08
1.15675e-06
-4.69419e-07
1.13197e-06
-9.88685e-07
1.11406e-06
-1.50232e-06
1.10249e-06
-2.00847e-06
1.09637e-06
-2.50484e-06
1.09446e-06
-2.98863e-06
1.09519e-06
-3.45636e-06
1.09666e-06
-3.90376e-06
1.0967e-06
-4.3257e-06
1.09292e-06
-4.71606e-06
1.08278e-06
-5.06775e-06
1.06369e-06
-5.37265e-06
1.0332e-06
-5.62162e-06
9.8915e-07
-5.80466e-06
9.29893e-07
-5.91099e-06
8.54584e-07
-5.92933e-06
7.63447e-07
-5.84821e-06
6.58055e-07
-5.65642e-06
5.41578e-07
-5.34354e-06
4.18951e-07
-4.9006e-06
2.96918e-07
-4.32082e-06
1.83903e-07
-3.60039e-06
8.96813e-08
-2.73921e-06
2.48403e-08
-1.74145e-06
-6.16977e-07
3.07647e-08
6.42566e-07
1.1213e-07
1.81314e-06
2.32209e-07
2.85151e-06
3.78869e-07
3.74666e-06
5.40423e-07
4.49299e-06
7.06203e-07
5.08928e-06
8.67032e-07
5.53843e-06
1.01552e-06
5.84689e-06
1.14621e-06
6.02395e-06
1.25551e-06
6.08092e-06
1.34158e-06
6.03035e-06
1.40407e-06
5.88535e-06
1.44387e-06
5.65899e-06
1.46275e-06
5.36381e-06
1.46314e-06
5.01151e-06
1.44785e-06
4.61267e-06
1.41987e-06
4.17667e-06
1.38219e-06
3.71163e-06
1.33767e-06
3.22445e-06
1.28897e-06
2.72088e-06
1.23846e-06
2.20564e-06
1.18817e-06
1.68255e-06
1.13983e-06
1.15472e-06
1.0948e-06
6.2468e-07
1.05411e-06
9.4556e-08
1.01844e-06
-4.33748e-07
9.88148e-07
-9.58396e-07
9.63279e-07
-1.47746e-06
9.43558e-07
-1.98875e-06
9.28409e-07
-2.48969e-06
9.16963e-07
-2.97719e-06
9.08073e-07
-3.44747e-06
9.00332e-07
-3.89602e-06
8.92101e-07
-4.31747e-06
8.81557e-07
-4.70552e-06
8.66756e-07
-5.05295e-06
8.45722e-07
-5.35161e-06
8.16563e-07
-5.59246e-06
7.77617e-07
-5.76571e-06
7.27632e-07
-5.86101e-06
6.65964e-07
-5.86766e-06
5.92794e-07
-5.77504e-06
5.09332e-07
-5.57296e-06
4.18004e-07
-5.25221e-06
3.22564e-07
-4.80516e-06
2.28123e-07
-4.22638e-06
1.4104e-07
-3.51331e-06
6.86787e-08
-2.66685e-06
1.90001e-08
-1.69177e-06
-5.97977e-07
2.48276e-08
6.17738e-07
9.07918e-08
1.74718e-06
1.8864e-07
2.75366e-06
3.08891e-07
3.62641e-06
4.42322e-07
4.35956e-06
5.80404e-07
4.9512e-06
7.15659e-07
5.40317e-06
8.41923e-07
5.72063e-06
9.5447e-07
5.9114e-06
1.05004e-06
5.98535e-06
1.12673e-06
5.95365e-06
1.18389e-06
5.82819e-06
1.22185e-06
5.62102e-06
1.24179e-06
5.34388e-06
1.24544e-06
5.00786e-06
1.23493e-06
4.62318e-06
1.2126e-06
4.19899e-06
1.18086e-06
3.74337e-06
1.14206e-06
3.26325e-06
1.09844e-06
2.76451e-06
1.05201e-06
2.25206e-06
1.00458e-06
1.72998e-06
9.57691e-07
1.20161e-06
9.12615e-07
6.69756e-07
8.70359e-07
1.36812e-07
8.3166e-07
-3.9505e-07
7.96998e-07
-9.23733e-07
7.66596e-07
-1.44705e-06
7.4043e-07
-1.96258e-06
7.18237e-07
-2.4675e-06
6.9952e-07
-2.95847e-06
6.8356e-07
-3.43151e-06
6.69428e-07
-3.88189e-06
6.56006e-07
-4.30404e-06
6.4202e-07
-4.69153e-06
6.26083e-07
-5.03702e-06
6.06761e-07
-5.33229e-06
5.82651e-07
-5.56835e-06
5.52496e-07
-5.73556e-06
5.15308e-07
-5.82382e-06
4.70515e-07
-5.82287e-06
4.18121e-07
-5.72265e-06
3.58858e-07
-5.5137e-06
2.9432e-07
-5.18767e-06
2.27052e-07
-4.73789e-06
1.6057e-07
-4.1599e-06
9.92922e-08
-3.45203e-06
4.83669e-08
-2.61592e-06
1.33889e-08
-1.65679e-06
-5.84588e-07
1.91184e-08
5.9862e-07
7.0137e-08
1.69616e-06
1.46179e-07
2.67762e-06
2.40161e-07
3.53243e-06
3.45123e-07
4.2546e-06
4.54536e-07
4.84179e-06
5.62575e-07
5.29513e-06
6.64319e-07
5.61888e-06
7.55879e-07
5.81984e-06
8.34437e-07
5.90679e-06
8.98214e-07
5.88987e-06
9.46378e-07
5.78003e-06
9.78917e-07
5.58848e-06
9.96484e-07
5.32631e-06
1.00024e-06
5.00411e-06
9.91702e-07
4.63171e-06
9.72611e-07
4.21809e-06
9.44812e-07
3.77117e-06
9.10157e-07
3.2979e-06
8.70436e-07
2.80423e-06
8.27322e-07
2.29518e-06
7.82334e-07
1.77497e-06
7.36814e-07
1.24713e-06
6.91915e-07
7.14654e-07
6.48599e-07
1.80129e-07
6.07632e-07
-3.54083e-07
5.69593e-07
-8.85695e-07
5.34879e-07
-1.41234e-06
5.03704e-07
-1.9314e-06
4.76109e-07
-2.4399e-06
4.51963e-07
-2.93433e-06
4.3097e-07
-3.41052e-06
4.1267e-07
-3.86359e-06
3.96454e-07
-4.28783e-06
3.81575e-07
-4.67665e-06
3.67172e-07
-5.02261e-06
3.52307e-07
-5.31742e-06
3.36014e-07
-5.55206e-06
3.17365e-07
-5.71691e-06
2.95552e-07
-5.802e-06
2.69985e-07
-5.7973e-06
2.40401e-07
-5.69306e-06
2.06975e-07
-5.48027e-06
1.70414e-07
-5.15111e-06
1.32037e-07
-4.69952e-06
9.37986e-08
-4.12166e-06
5.82648e-08
-3.4165e-06
2.85072e-08
-2.58617e-06
7.92841e-09
-1.63621e-06
-5.76659e-07
1.35765e-08
5.85043e-07
4.99909e-08
1.65974e-06
1.04559e-07
2.62305e-06
1.72416e-07
3.46457e-06
2.48716e-07
4.1783e-06
3.2883e-07
4.76167e-06
4.08534e-07
5.21543e-06
4.84162e-07
5.54326e-06
5.52716e-07
5.75129e-06
6.11916e-07
5.84759e-06
6.60205e-07
5.84158e-06
6.96709e-07
5.74353e-06
7.21162e-07
5.56403e-06
7.33814e-07
5.31366e-06
7.35328e-07
5.00259e-06
7.26674e-07
4.64037e-06
7.09031e-07
4.23573e-06
6.83704e-07
3.7965e-06
6.52049e-07
3.32956e-06
6.15415e-07
2.84086e-06
5.75103e-07
2.33549e-06
5.32331e-07
1.81774e-06
4.88218e-07
1.29124e-06
4.43772e-07
7.591e-07
3.99884e-07
2.24018e-07
3.57327e-07
-3.11526e-07
3.16762e-07
-8.4513e-07
2.78738e-07
-1.37431e-06
2.43695e-07
-1.89636e-06
2.11967e-07
-2.40818e-06
1.83781e-07
-2.90614e-06
1.59251e-07
-3.38599e-06
1.38383e-07
-3.84272e-06
1.21062e-07
-4.27051e-06
1.07054e-07
-4.66265e-06
9.60047e-08
-5.01156e-06
8.74476e-08
-5.30887e-06
8.08156e-08
-5.54543e-06
7.54674e-08
-5.71156e-06
7.07256e-08
-5.79726e-06
6.5928e-08
-5.79251e-06
6.04908e-08
-5.68763e-06
5.39812e-08
-5.47376e-06
4.61904e-08
-5.14332e-06
3.71995e-08
-4.69052e-06
2.74251e-08
-4.11188e-06
1.76321e-08
-3.40671e-06
8.90267e-09
-2.57744e-06
2.55446e-09
-1.62987e-06
-5.74105e-07
8.14932e-09