/*--------------------------------*- C++ -*----------------------------------*\
  =========                 |
  \\      /  F ield         | OpenFOAM: The Open Source CFD Toolbox
   \\    /   O peration     | Website:  https://openfoam.org
    \\  /    A nd           | Version:  7
     \\/     M anipulation  |
\*---------------------------------------------------------------------------*/
FoamFile
{
    version     2.0;
    format      ascii;
    class       volVectorField;
    location    "0.0538";
    object      U;
}
// * * * * * * * * * * * * * * * * * * * * * * * * * * * * * * * * * * * * * //

dimensions      [0 1 -1 0 0 0 0];

internalField   nonuniform List<vector> 
2500
(
(0.290246 -0.152407 0)
(0.389519 -0.128228 0)
(0.565398 -0.0747292 0)
(0.683226 -0.0422313 0)
(0.75283 -0.0245327 0)
(0.797862 -0.0148944 0)
(0.829055 -0.00958889 0)
(0.85156 -0.00656696 0)
(0.868404 -0.00474379 0)
(0.881408 -0.00356947 0)
(0.891679 -0.00276578 0)
(0.899925 -0.00218733 0)
(0.906624 -0.00175425 0)
(0.912111 -0.00142013 0)
(0.916629 -0.00115635 0)
(0.92036 -0.000944228 0)
(0.923443 -0.000770999 0)
(0.925986 -0.000627542 0)
(0.928072 -0.000507109 0)
(0.929769 -0.000404547 0)
(0.931127 -0.0003158 0)
(0.932188 -0.000237579 0)
(0.932981 -0.000167138 0)
(0.93353 -0.00010211 0)
(0.933849 -4.03895e-05 0)
(0.933947 1.99782e-05 0)
(0.933825 8.10119e-05 0)
(0.933479 0.000144531 0)
(0.932898 0.000212567 0)
(0.932063 0.000287371 0)
(0.930948 0.000371522 0)
(0.929518 0.000468093 0)
(0.927727 0.000580886 0)
(0.925513 0.000714752 0)
(0.9228 0.000876081 0)
(0.919487 0.00107356 0)
(0.915442 0.00131937 0)
(0.910493 0.00163129 0)
(0.904404 0.0020364 0)
(0.896849 0.00257813 0)
(0.887362 0.0033305 0)
(0.875249 0.00442784 0)
(0.859424 0.00612876 0)
(0.838083 0.008954 0)
(0.808175 0.0139635 0)
(0.764429 0.0232491 0)
(0.695912 0.040773 0)
(0.577939 0.0737472 0)
(0.398043 0.128743 0)
(0.293866 0.153783 0)
(0.00107915 -0.294875 0)
(0.0168407 -0.298599 0)
(0.152305 -0.213013 0)
(0.282853 -0.145333 0)
(0.388048 -0.0996595 0)
(0.471308 -0.0698441 0)
(0.536783 -0.0505016 0)
(0.588324 -0.0377091 0)
(0.629269 -0.0289549 0)
(0.662175 -0.0227373 0)
(0.688904 -0.018166 0)
(0.710811 -0.014703 0)
(0.728895 -0.0120129 0)
(0.743901 -0.00987957 0)
(0.756397 -0.00815831 0)
(0.766818 -0.00674894 0)
(0.775507 -0.00557972 0)
(0.782734 -0.00459773 0)
(0.788712 -0.00376275 0)
(0.793613 -0.00304342 0)
(0.797571 -0.00241461 0)
(0.800694 -0.00185559 0)
(0.803062 -0.00134882 0)
(0.804735 -0.000878985 0)
(0.805755 -0.00043224 0)
(0.806145 4.36499e-06 0)
(0.805909 0.000443508 0)
(0.805037 0.00089787 0)
(0.803499 0.00138089 0)
(0.801248 0.00190733 0)
(0.798214 0.00249398 0)
(0.794305 0.00316069 0)
(0.789397 0.00393162 0)
(0.783335 0.00483714 0)
(0.775918 0.00591648 0)
(0.766887 0.00722171 0)
(0.755914 0.00882385 0)
(0.742566 0.0108226 0)
(0.726278 0.0133623 0)
(0.706294 0.0166591 0)
(0.681587 0.0210489 0)
(0.65074 0.0270733 0)
(0.611777 0.0356375 0)
(0.561927 0.0482933 0)
(0.497459 0.0676998 0)
(0.41391 0.0981602 0)
(0.306381 0.145786 0)
(0.170544 0.217304 0)
(0.0269045 0.307194 0)
(0.00518405 0.303004 0)
(-0.0329211 -0.250367 0)
(-0.0615904 -0.344028 0)
(-0.0114768 -0.310601 0)
(0.0708641 -0.251562 0)
(0.159018 -0.196053 0)
(0.241597 -0.151496 0)
(0.314243 -0.117802 0)
(0.376261 -0.0927055 0)
(0.428547 -0.0739116 0)
(0.472449 -0.0596426 0)
(0.509304 -0.0486259 0)
(0.540286 -0.0399736 0)
(0.566375 -0.0330683 0)
(0.588376 -0.0274768 0)
(0.606941 -0.0228899 0)
(0.622599 -0.0190826 0)
(0.635782 -0.0158873 0)
(0.64684 -0.0131767 0)
(0.656059 -0.0108516 0)
(0.66367 -0.0088329 0)
(0.66986 -0.00705622 0)
(0.674778 -0.0054676 0)
(0.67854 -0.00402074 0)
(0.68123 -0.00267472 0)
(0.682907 -0.00139224 0)
(0.683604 -0.000138136 0)
(0.683328 0.00112188 0)
(0.682062 0.00242267 0)
(0.679765 0.00380088 0)
(0.676366 0.00529654 0)
(0.671765 0.00695495 0)
(0.665828 0.00882904 0)
(0.658382 0.0109826 0)
(0.649205 0.0134945 0)
(0.63802 0.0164651 0)
(0.624477 0.0200244 0)
(0.608138 0.0243455 0)
(0.58845 0.0296633 0)
(0.564719 0.0363033 0)
(0.536067 0.044726 0)
(0.501394 0.0555939 0)
(0.459337 0.069871 0)
(0.408281 0.0889603 0)
(0.346474 0.11486 0)
(0.272483 0.150215 0)
(0.18644 0.197788 0)
(0.0923765 0.258116 0)
(0.00190634 0.323347 0)
(-0.0569113 0.36156 0)
(-0.0321677 0.263989 0)
(-0.0267686 -0.190602 0)
(-0.0654091 -0.333003 0)
(-0.0644985 -0.351526 0)
(-0.0273957 -0.319304 0)
(0.029791 -0.272077 0)
(0.0939809 -0.225561 0)
(0.157484 -0.18523 0)
(0.216497 -0.151995 0)
(0.269501 -0.125125 0)
(0.3162 -0.10349 0)
(0.356893 -0.0860133 0)
(0.392118 -0.0717954 0)
(0.422485 -0.0601304 0)
(0.448586 -0.0504744 0)
(0.470958 -0.0424105 0)
(0.490077 -0.0356175 0)
(0.506354 -0.0298453 0)
(0.520138 -0.0248961 0)
(0.531726 -0.0206113 0)
(0.541364 -0.0168611 0)
(0.549256 -0.0135371 0)
(0.555567 -0.0105468 0)
(0.560425 -0.00780969 0)
(0.563928 -0.00525333 0)
(0.566142 -0.00281109 0)
(0.567102 -0.00041959 0)
(0.566817 0.00198335 0)
(0.565265 0.00446094 0)
(0.562394 0.00707958 0)
(0.558121 0.00991144 0)
(0.552329 0.0130375 0)
(0.544861 0.0165511 0)
(0.535519 0.0205634 0)
(0.524053 0.0252092 0)
(0.510158 0.0306559 0)
(0.493461 0.0371152 0)
(0.473511 0.0448598 0)
(0.44977 0.0542447 0)
(0.421603 0.0657383 0)
(0.388278 0.0799606 0)
(0.348993 0.0977305 0)
(0.302947 0.120109 0)
(0.249512 0.148407 0)
(0.188605 0.184057 0)
(0.121388 0.22813 0)
(0.0515355 0.279948 0)
(-0.0129081 0.333769 0)
(-0.0577212 0.372296 0)
(-0.064643 0.355977 0)
(-0.0272807 0.204818 0)
(-0.0178428 -0.149168 0)
(-0.053081 -0.302957 0)
(-0.0735639 -0.354941 0)
(-0.066484 -0.350352 0)
(-0.0372574 -0.319727 0)
(0.0049027 -0.280421 0)
(0.052788 -0.241014 0)
(0.101635 -0.205126 0)
(0.148602 -0.173866 0)
(0.192184 -0.147207 0)
(0.23173 -0.124673 0)
(0.267083 -0.10567 0)
(0.298361 -0.0896215 0)
(0.325822 -0.0760219 0)
(0.349777 -0.0644433 0)
(0.370551 -0.0545312 0)
(0.388457 -0.0459931 0)
(0.403781 -0.0385865 0)
(0.41678 -0.0321089 0)
(0.427675 -0.0263892 0)
(0.436658 -0.0212802 0)
(0.443884 -0.0166535 0)
(0.449478 -0.0123948 0)
(0.453535 -0.00839963 0)
(0.456117 -0.00457055 0)
(0.45726 -0.000814015 0)
(0.456969 0.00296236 0)
(0.455217 0.00685257 0)
(0.45195 0.0109552 0)
(0.447079 0.0153765 0)
(0.440482 0.0202347 0)
(0.431998 0.0256641 0)
(0.421428 0.0318214 0)
(0.408531 0.0388923 0)
(0.393017 0.0471017 0)
(0.37455 0.0567241 0)
(0.352747 0.068099 0)
(0.327184 0.0816469 0)
(0.297414 0.097887 0)
(0.263013 0.117452 0)
(0.223649 0.141083 0)
(0.179236 0.169589 0)
(0.130179 0.203693 0)
(0.0777889 0.243667 0)
(0.0248736 0.288536 0)
(-0.0234855 0.334474 0)
(-0.0592591 0.371936 0)
(-0.0718649 0.381329 0)
(-0.0542925 0.328255 0)
(-0.0186375 0.162503 0)
(-0.0114204 -0.120925 0)
(-0.0402341 -0.27 0)
(-0.067774 -0.340237 0)
(-0.0776546 -0.357455 0)
(-0.0687639 -0.344204 0)
(-0.0458953 -0.315972 0)
(-0.0142322 -0.282144 0)
(0.0219578 -0.247866 0)
(0.05956 -0.215668 0)
(0.0965104 -0.186587 0)
(0.131554 -0.160873 0)
(0.164 -0.13839 0)
(0.193531 -0.118837 0)
(0.220066 -0.101863 0)
(0.243662 -0.0871173 0)
(0.264456 -0.0742793 0)
(0.282622 -0.0630607 0)
(0.298347 -0.0532075 0)
(0.311815 -0.044497 0)
(0.323196 -0.0367328 0)
(0.332644 -0.0297404 0)
(0.340288 -0.023363 0)
(0.346233 -0.0174573 0)
(0.35056 -0.0118902 0)
(0.353323 -0.00653564 0)
(0.354551 -0.00127099 0)
(0.354241 0.00402539 0)
(0.352369 0.00947752 0)
(0.348876 0.015215 0)
(0.343678 0.0213765 0)
(0.336658 0.0281142 0)
(0.32767 0.0355981 0)
(0.316536 0.044022 0)
(0.303047 0.0536099 0)
(0.286967 0.0646231 0)
(0.26804 0.0773686 0)
(0.246001 0.0922061 0)
(0.220598 0.109553 0)
(0.191636 0.129883 0)
(0.159039 0.153701 0)
(0.122954 0.181492 0)
(0.0839208 0.213594 0)
(0.0431001 0.249938 0)
(0.00259143 0.28957 0)
(-0.0342346 0.32981 0)
(-0.0625306 0.364899 0)
(-0.0761865 0.384073 0)
(-0.0692974 0.369493 0)
(-0.0422603 0.295437 0)
(-0.012176 0.133029 0)
(-0.00746447 -0.100941 0)
(-0.030405 -0.239759 0)
(-0.0585617 -0.3182 0)
(-0.0768493 -0.350407 0)
(-0.0811822 -0.351918 0)
(-0.0730779 -0.335207 0)
(-0.0555554 -0.309027 0)
(-0.0317748 -0.278993 0)
(-0.0044684 -0.24844 0)
(0.0242633 -0.219194 0)
(0.0529287 -0.192143 0)
(0.0805344 -0.167624 0)
(0.106462 -0.145664 0)
(0.130362 -0.126131 0)
(0.152068 -0.108814 0)
(0.171535 -0.0934744 0)
(0.188793 -0.0798701 0)
(0.203918 -0.0677679 0)
(0.217006 -0.0569492 0)
(0.228162 -0.047211 0)
(0.237488 -0.0383654 0)
(0.245075 -0.0302376 0)
(0.251 -0.0226637 0)
(0.255322 -0.0154877 0)
(0.258079 -0.00855942 0)
(0.25929 -0.00173138 0)
(0.258949 0.00514388 0)
(0.257027 0.0122168 0)
(0.253472 0.0196439 0)
(0.248208 0.0275912 0)
(0.241134 0.036238 0)
(0.232129 0.0457808 0)
(0.221053 0.0564376 0)
(0.20775 0.0684521 0)
(0.192059 0.0820974 0)
(0.173827 0.0976778 0)
(0.152929 0.115527 0)
(0.129306 0.135996 0)
(0.103008 0.159434 0)
(0.0742748 0.186127 0)
(0.0436358 0.216209 0)
(0.0120505 0.249481 0)
(-0.0189246 0.285115 0)
(-0.0469711 0.321179 0)
(-0.068935 0.353932 0)
(-0.0810167 0.376884 0)
(-0.0794191 0.379795 0)
(-0.0619553 0.348111 0)
(-0.0327144 0.264007 0)
(-0.00812052 0.111699 0)
(-0.00512763 -0.0862925 0)
(-0.0235033 -0.213493 0)
(-0.0498201 -0.294042 0)
(-0.0716315 -0.335522 0)
(-0.083966 -0.348282 0)
(-0.0863565 -0.341817 0)
(-0.0801014 -0.323612 0)
(-0.0671924 -0.299057 0)
(-0.0497049 -0.271763 0)
(-0.0294611 -0.244013 0)
(-0.00791438 -0.217155 0)
(0.0138483 -0.191924 0)
(0.0350554 -0.16866 0)
(0.0551867 -0.147461 0)
(0.0739121 -0.128282 0)
(0.0910395 -0.110996 0)
(0.106474 -0.0954362 0)
(0.120186 -0.081414 0)
(0.132186 -0.0687361 0)
(0.142509 -0.0572103 0)
(0.151202 -0.0466492 0)
(0.158314 -0.0368714 0)
(0.163886 -0.0277012 0)
(0.167953 -0.0189675 0)
(0.170537 -0.0105026 0)
(0.171642 -0.00213964 0)
(0.171259 0.00628903 0)
(0.169358 0.0149546 0)
(0.165895 0.0240344 0)
(0.160807 0.0337142 0)
(0.154018 0.0441915 0)
(0.145439 0.0556776 0)
(0.134978 0.0683996 0)
(0.12254 0.0826018 0)
(0.10805 0.0985439 0)
(0.0914637 0.116496 0)
(0.0727954 0.136727 0)
(0.0521572 0.159478 0)
(0.0298083 0.184923 0)
(0.00622272 0.213094 0)
(-0.017828 0.243756 0)
(-0.0411815 0.276224 0)
(-0.0622006 0.309077 0)
(-0.0787429 0.339761 0)
(-0.0882711 0.364087 0)
(-0.0882363 0.375701 0)
(-0.0768162 0.365735 0)
(-0.0542244 0.323054 0)
(-0.0258735 0.235815 0)
(-0.00569697 0.0957055 0)
(-0.00372998 -0.0751001 0)
(-0.0187362 -0.190947 0)
(-0.0425698 -0.270134 0)
(-0.0653629 -0.31667 0)
(-0.0822641 -0.33736 0)
(-0.0917853 -0.339209 0)
(-0.0940535 -0.328314 0)
(-0.0900831 -0.309477 0)
(-0.081262 -0.286228 0)
(-0.0689998 -0.261018 0)
(-0.0545494 -0.235471 0)
(-0.0389403 -0.210602 0)
(-0.0229737 -0.187004 0)
(-0.00724619 -0.164986 0)
(0.00781572 -0.144663 0)
(0.0219198 -0.126032 0)
(0.0348756 -0.109011 0)
(0.0465673 -0.0934748 0)
(0.0569316 -0.0792683 0)
(0.0659404 -0.0662238 0)
(0.0735874 -0.0541664 0)
(0.0798781 -0.0429182 0)
(0.0848223 -0.032301 0)
(0.088428 -0.0221365 0)
(0.0906981 -0.0122465 0)
(0.0916268 -0.00245169 0)
(0.091199 0.00742922 0)
(0.0893886 0.0175814 0)
(0.0861597 0.0281953 0)
(0.0814678 0.0394682 0)
(0.075263 0.0516054 0)
(0.0674945 0.064821 0)
(0.0581182 0.0793368 0)
(0.0471069 0.0953796 0)
(0.034465 0.113175 0)
(0.0202486 0.132935 0)
(0.0045924 0.154838 0)
(-0.012255 0.178993 0)
(-0.0298876 0.205384 0)
(-0.0476906 0.23379 0)
(-0.0647868 0.263656 0)
(-0.0799923 0.29392 0)
(-0.0918056 0.322775 0)
(-0.0984711 0.347383 0)
(-0.0981859 0.36357 0)
(-0.0895284 0.365601 0)
(-0.0721028 0.346222 0)
(-0.0474475 0.29724 0)
(-0.0210627 0.210972 0)
(-0.0042313 0.0832161 0)
(-0.00286355 -0.0661826 0)
(-0.0154149 -0.17148 0)
(-0.0368515 -0.24741 0)
(-0.0594127 -0.296073 0)
(-0.078759 -0.321936 0)
(-0.0929844 -0.330103 0)
(-0.101503 -0.325396 0)
(-0.104607 -0.311913 0)
(-0.103086 -0.292892 0)
(-0.0979203 -0.270756 0)
(-0.0900922 -0.247234 0)
(-0.0804847 -0.223511 0)
(-0.0698418 -0.200359 0)
(-0.0587611 -0.178252 0)
(-0.047705 -0.157447 0)
(-0.0370197 -0.138054 0)
(-0.0269566 -0.120081 0)
(-0.017693 -0.103467 0)
(-0.00934974 -0.0881058 0)
(-0.0020067 -0.0738629 0)
(0.00428512 -0.0605841 0)
(0.00949365 -0.0481038 0)
(0.0135982 -0.0362488 0)
(0.0165834 -0.0248413 0)
(0.0184355 -0.0136997 0)
(0.019139 -0.00263911 0)
(0.0186754 0.0085285 0)
(0.0170225 0.0199949 0)
(0.0141554 0.031956 0)
(0.0100488 0.0446117 0)
(0.00468027 0.0581656 0)
(-0.00196349 0.0728232 0)
(-0.00987865 0.0887883 0)
(-0.019033 0.106257 0)
(-0.029351 0.125405 0)
(-0.0406945 0.146373 0)
(-0.0528384 0.169237 0)
(-0.0654421 0.193969 0)
(-0.0780168 0.220377 0)
(-0.0898938 0.248019 0)
(-0.1002 0.276096 0)
(-0.107857 0.303297 0)
(-0.111617 0.327628 0)
(-0.110183 0.346229 0)
(-0.102443 0.355222 0)
(-0.0878563 0.349693 0)
(-0.0669468 0.323922 0)
(-0.0418576 0.272013 0)
(-0.017637 0.189057 0)
(-0.00330842 0.0730699 0)
(-0.0023032 -0.0588087 0)
(-0.0130612 -0.154443 0)
(-0.0324277 -0.226121 0)
(-0.0542488 -0.274925 0)
(-0.0747868 -0.303818 0)
(-0.0920523 -0.316505 0)
(-0.105072 -0.316744 0)
(-0.113646 -0.307941 0)
(-0.118097 -0.29295 0)
(-0.119021 -0.274038 0)
(-0.117117 -0.252925 0)
(-0.113084 -0.230864 0)
(-0.107556 -0.208735 0)
(-0.101082 -0.187126 0)
(-0.0941111 -0.166406 0)
(-0.0870044 -0.14678 0)
(-0.0800425 -0.128337 0)
(-0.0734388 -0.11108 0)
(-0.0673531 -0.0949525 0)
(-0.0619026 -0.0798565 0)
(-0.0571727 -0.0656646 0)
(-0.0532256 -0.0522293 0)
(-0.0501068 -0.0393889 0)
(-0.0478509 -0.0269722 0)
(-0.0464853 -0.0148006 0)
(-0.0460331 -0.00269024 0)
(-0.0465143 0.00954693 0)
(-0.047946 0.0221024 0)
(-0.0503413 0.03517 0)
(-0.0537069 0.0489445 0)
(-0.0580387 0.0636189 0)
(-0.0633158 0.0793814 0)
(-0.0694925 0.0964083 0)
(-0.0764869 0.114855 0)
(-0.084168 0.134841 0)
(-0.0923382 0.156429 0)
(-0.100715 0.179594 0)
(-0.108909 0.204183 0)
(-0.116407 0.229853 0)
(-0.122556 0.255998 0)
(-0.126563 0.281651 0)
(-0.127526 0.305377 0)
(-0.124498 0.325152 0)
(-0.116626 0.338264 0)
(-0.103371 0.34128 0)
(-0.0848226 0.33013 0)
(-0.0620358 0.300404 0)
(-0.0373326 0.247918 0)
(-0.0151377 0.169565 0)
(-0.00269742 0.0645505 0)
(-0.00192585 -0.0525154 0)
(-0.0113619 -0.139292 0)
(-0.0290253 -0.206216 0)
(-0.0499537 -0.253833 0)
(-0.0709714 -0.284139 0)
(-0.0901716 -0.299836 0)
(-0.106401 -0.303835 0)
(-0.119151 -0.29892 0)
(-0.128399 -0.287545 0)
(-0.134425 -0.271758 0)
(-0.137672 -0.253187 0)
(-0.138647 -0.233083 0)
(-0.137853 -0.212369 0)
(-0.135755 -0.191702 0)
(-0.13276 -0.171527 0)
(-0.129213 -0.152124 0)
(-0.125396 -0.133647 0)
(-0.121538 -0.116156 0)
(-0.117818 -0.0996411 0)
(-0.114377 -0.0840421 0)
(-0.111323 -0.0692598 0)
(-0.10874 -0.0551684 0)
(-0.106692 -0.0416222 0)
(-0.105227 -0.0284615 0)
(-0.104383 -0.0155162 0)
(-0.104187 -0.00260896 0)
(-0.10466 0.0104424 0)
(-0.105813 0.023823 0)
(-0.107647 0.037718 0)
(-0.110151 0.0523102 0)
(-0.113298 0.0677759 0)
(-0.117039 0.0842788 0)
(-0.121294 0.101962 0)
(-0.125945 0.120936 0)
(-0.130821 0.141261 0)
(-0.135691 0.162926 0)
(-0.140243 0.185817 0)
(-0.144082 0.209674 0)
(-0.146711 0.234039 0)
(-0.147542 0.258196 0)
(-0.145911 0.281092 0)
(-0.14112 0.301262 0)
(-0.13252 0.316763 0)
(-0.119645 0.325135 0)
(-0.102394 0.323431 0)
(-0.0812748 0.308358 0)
(-0.0576104 0.276567 0)
(-0.0336733 0.225112 0)
(-0.0132639 0.152047 0)
(-0.00227222 0.0572066 0)
(-0.00166284 -0.0469983 0)
(-0.010114 -0.125597 0)
(-0.0264086 -0.187533 0)
(-0.0464597 -0.233076 0)
(-0.0675712 -0.263596 0)
(-0.0879864 -0.28108 0)
(-0.106497 -0.287785 0)
(-0.122413 -0.285965 0)
(-0.135471 -0.277696 0)
(-0.145708 -0.264781 0)
(-0.153347 -0.248716 0)
(-0.158717 -0.230693 0)
(-0.162185 -0.211635 0)
(-0.16412 -0.192224 0)
(-0.164866 -0.172951 0)
(-0.164731 -0.154146 0)
(-0.163979 -0.136013 0)
(-0.162836 -0.118659 0)
(-0.161486 -0.102114 0)
(-0.160079 -0.0863509 0)
(-0.158737 -0.0713006 0)
(-0.157555 -0.0568597 0)
(-0.156608 -0.0429012 0)
(-0.155955 -0.0292802 0)
(-0.155638 -0.0158392 0)
(-0.155688 -0.00241185 0)
(-0.156122 0.0111733 0)
(-0.156945 0.0250896 0)
(-0.158149 0.039509 0)
(-0.159707 0.0545972 0)
(-0.161574 0.0705089 0)
(-0.163677 0.0873796 0)
(-0.165914 0.105317 0)
(-0.168142 0.124385 0)
(-0.170169 0.144591 0)
(-0.171749 0.165857 0)
(-0.172573 0.187994 0)
(-0.172263 0.210661 0)
(-0.170377 0.233328 0)
(-0.166419 0.255215 0)
(-0.159873 0.275248 0)
(-0.150248 0.292008 0)
(-0.137164 0.303699 0)
(-0.120466 0.308156 0)
(-0.100374 0.302909 0)
(-0.07765 0.285334 0)
(-0.0537179 0.252912 0)
(-0.0306944 0.203579 0)
(-0.0118218 0.136136 0)
(-0.001963 0.0507433 0)
(-0.00147444 -0.0420501 0)
(-0.00918475 -0.113023 0)
(-0.0243916 -0.169883 0)
(-0.0436527 -0.212756 0)
(-0.0646622 -0.242604 0)
(-0.0858313 -0.260908 0)
(-0.105965 -0.26942 0)
(-0.124276 -0.26996 0)
(-0.140343 -0.264265 0)
(-0.154019 -0.253894 0)
(-0.165351 -0.240189 0)
(-0.174511 -0.224254 0)
(-0.181739 -0.206973 0)
(-0.187305 -0.189026 0)
(-0.191482 -0.17092 0)
(-0.194526 -0.153013 0)
(-0.196674 -0.135542 0)
(-0.198131 -0.11865 0)
(-0.199075 -0.102399 0)
(-0.199654 -0.0867915 0)
(-0.199994 -0.0717844 0)
(-0.200194 -0.0572971 0)
(-0.200336 -0.043222 0)
(-0.20048 -0.0294313 0)
(-0.200673 -0.0157828 0)
(-0.200943 -0.00212455 0)
(-0.201306 0.0117006 0)
(-0.201761 0.0258509 0)
(-0.202288 0.040481 0)
(-0.202851 0.0557365 0)
(-0.203389 0.0717478 0)
(-0.203815 0.0886212 0)
(-0.204012 0.106429 0)
(-0.203824 0.125193 0)
(-0.203056 0.144873 0)
(-0.201466 0.165336 0)
(-0.198764 0.186338 0)
(-0.194615 0.207486 0)
(-0.188648 0.228207 0)
(-0.180478 0.247705 0)
(-0.169734 0.264934 0)
(-0.156121 0.278567 0)
(-0.139483 0.286995 0)
(-0.119908 0.288353 0)
(-0.0978343 0.280606 0)
(-0.0741664 0.261685 0)
(-0.0503301 0.229707 0)
(-0.0282471 0.183233 0)
(-0.0106866 0.121543 0)
(-0.00172988 0.0449594 0)
(-0.00133668 -0.0375258 0)
(-0.00848487 -0.101317 0)
(-0.0228327 -0.153085 0)
(-0.0414144 -0.192884 0)
(-0.0622349 -0.221407 0)
(-0.0838655 -0.239772 0)
(-0.105158 -0.249347 0)
(-0.125284 -0.251597 0)
(-0.143719 -0.247964 0)
(-0.160185 -0.239783 0)
(-0.17459 -0.228232 0)
(-0.186977 -0.214312 0)
(-0.19747 -0.198846 0)
(-0.206246 -0.182487 0)
(-0.213504 -0.165734 0)
(-0.219446 -0.148956 0)
(-0.224269 -0.13241 0)
(-0.228151 -0.11626 0)
(-0.231254 -0.100591 0)
(-0.233717 -0.0854322 0)
(-0.235661 -0.0707609 0)
(-0.237184 -0.0565181 0)
(-0.238365 -0.0426155 0)
(-0.239267 -0.0289432 0)
(-0.239934 -0.0153758 0)
(-0.240393 -0.00177788 0)
(-0.240654 0.0119912 0)
(-0.240711 0.026072 0)
(-0.240538 0.0405999 0)
(-0.240088 0.055699 0)
(-0.239292 0.0714745 0)
(-0.238054 0.0880045 0)
(-0.236252 0.105328 0)
(-0.233729 0.123433 0)
(-0.230295 0.142237 0)
(-0.225729 0.161569 0)
(-0.219775 0.181148 0)
(-0.212154 0.200553 0)
(-0.202578 0.219199 0)
(-0.190769 0.236311 0)
(-0.176501 0.250901 0)
(-0.159643 0.261766 0)
(-0.140226 0.267494 0)
(-0.118515 0.26651 0)
(-0.0950919 0.257155 0)
(-0.0709271 0.237813 0)
(-0.047395 0.207081 0)
(-0.0262187 0.16396 0)
(-0.00977625 0.108041 0)
(-0.00154911 0.0397124 0)
(-0.00123439 -0.0333207 0)
(-0.00795334 -0.090283 0)
(-0.021625 -0.136978 0)
(-0.0396384 -0.173428 0)
(-0.0602431 -0.200143 0)
(-0.0821521 -0.217978 0)
(-0.104278 -0.228005 0)
(-0.125782 -0.231406 0)
(-0.146079 -0.229371 0)
(-0.164797 -0.22303 0)
(-0.181741 -0.213403 0)
(-0.196844 -0.20138 0)
(-0.210136 -0.187708 0)
(-0.221706 -0.172997 0)
(-0.231684 -0.157723 0)
(-0.240217 -0.142251 0)
(-0.247456 -0.12684 0)
(-0.253551 -0.111666 0)
(-0.258639 -0.0968333 0)
(-0.262846 -0.0823851 0)
(-0.26628 -0.0683188 0)
(-0.269033 -0.0545935 0)
(-0.271181 -0.0411389 0)
(-0.272782 -0.0278629 0)
(-0.273876 -0.0146573 0)
(-0.274486 -0.00140413 0)
(-0.27462 0.0120193 0)
(-0.274263 0.025735 0)
(-0.273386 0.0398583 0)
(-0.271935 0.0544912 0)
(-0.269837 0.0697155 0)
(-0.266994 0.0855829 0)
(-0.263284 0.102105 0)
(-0.258558 0.11924 0)
(-0.252645 0.136877 0)
(-0.245349 0.15482 0)
(-0.23646 0.172768 0)
(-0.22576 0.190295 0)
(-0.213045 0.206828 0)
(-0.198145 0.221635 0)
(-0.180958 0.233815 0)
(-0.161494 0.242298 0)
(-0.139929 0.24587 0)
(-0.116655 0.243218 0)
(-0.0923413 0.233004 0)
(-0.0679767 0.213972 0)
(-0.0448587 0.185081 0)
(-0.0245256 0.145643 0)
(-0.00903601 0.0954465 0)
(-0.00140599 0.0348974 0)
(-0.00115762 -0.0293582 0)
(-0.00754734 -0.0797704 0)
(-0.0206882 -0.121427 0)
(-0.0382351 -0.154337 0)
(-0.0586287 -0.178885 0)
(-0.0807027 -0.19573 0)
(-0.103432 -0.205718 0)
(-0.125987 -0.2098 0)
(-0.147746 -0.208954 0)
(-0.168276 -0.204126 0)
(-0.187301 -0.19619 0)
(-0.204671 -0.185922 0)
(-0.220332 -0.173988 0)
(-0.234302 -0.160942 0)
(-0.246644 -0.147226 0)
(-0.257452 -0.133187 0)
(-0.266835 -0.119079 0)
(-0.274908 -0.105078 0)
(-0.281784 -0.0912976 0)
(-0.287567 -0.0777926 0)
(-0.292354 -0.0645743 0)
(-0.296226 -0.0516173 0)
(-0.29925 -0.0388674 0)
(-0.301478 -0.0262492 0)
(-0.302946 -0.0136715 0)
(-0.303672 -0.00103387 0)
(-0.303657 0.0117685 0)
(-0.302885 0.0248387 0)
(-0.301319 0.0382723 0)
(-0.298906 0.0521509 0)
(-0.29557 0.0665345 0)
(-0.291215 0.0814526 0)
(-0.285727 0.0968943 0)
(-0.278973 0.112797 0)
(-0.270801 0.129031 0)
(-0.261052 0.145388 0)
(-0.249563 0.161564 0)
(-0.236182 0.177144 0)
(-0.220783 0.191589 0)
(-0.203292 0.204227 0)
(-0.183718 0.214254 0)
(-0.162185 0.220739 0)
(-0.138978 0.222655 0)
(-0.114578 0.218919 0)
(-0.089703 0.208463 0)
(-0.065331 0.190315 0)
(-0.042674 0.163707 0)
(-0.0231066 0.128168 0)
(-0.00842844 0.0836131 0)
(-0.00129104 0.0304345 0)
(-0.00109962 -0.0255809 0)
(-0.0072363 -0.0696624 0)
(-0.0199619 -0.106319 0)
(-0.0371315 -0.135556 0)
(-0.0573342 -0.157668 0)
(-0.0795037 -0.173167 0)
(-0.102674 -0.182722 0)
(-0.126031 -0.187095 0)
(-0.148938 -0.187086 0)
(-0.170919 -0.183479 0)
(-0.191638 -0.177012 0)
(-0.21088 -0.168352 0)
(-0.228526 -0.15808 0)
(-0.244528 -0.146688 0)
(-0.258894 -0.134576 0)
(-0.271668 -0.122062 0)
(-0.282918 -0.109386 0)
(-0.292726 -0.0967195 0)
(-0.301179 -0.0841753 0)
(-0.308359 -0.0718156 0)
(-0.314348 -0.0596611 0)
(-0.319213 -0.0476983 0)
(-0.323013 -0.0358874 0)
(-0.325791 -0.0241676 0)
(-0.327577 -0.0124643 0)
(-0.328383 -0.000693459 0)
(-0.328207 0.0112321 0)
(-0.327029 0.0233974 0)
(-0.324809 0.0358798 0)
(-0.321493 0.0487421 0)
(-0.317008 0.0620257 0)
(-0.311265 0.0757421 0)
(-0.304159 0.0898642 0)
(-0.295575 0.104316 0)
(-0.28539 0.118959 0)
(-0.27348 0.133586 0)
(-0.259732 0.147902 0)
(-0.244053 0.161518 0)
(-0.226393 0.173941 0)
(-0.206762 0.184573 0)
(-0.18526 0.19271 0)
(-0.162102 0.197559 0)
(-0.137655 0.198262 0)
(-0.112458 0.193939 0)
(-0.0872534 0.183744 0)
(-0.0629921 0.166929 0)
(-0.0408021 0.14293 0)
(-0.0219171 0.11143 0)
(-0.00792764 0.0724187 0)
(-0.00119796 0.0262607 0)
(-0.00105567 -0.0219453 0)
(-0.0069981 -0.059868 0)
(-0.0194004 -0.091562 0)
(-0.0362687 -0.117032 0)
(-0.0563072 -0.136506 0)
(-0.0785305 -0.150383 0)
(-0.102024 -0.159191 0)
(-0.125996 -0.163538 0)
(-0.149801 -0.164069 0)
(-0.172935 -0.161429 0)
(-0.195021 -0.156231 0)
(-0.215794 -0.149037 0)
(-0.235079 -0.140343 0)
(-0.252777 -0.130576 0)
(-0.268847 -0.120089 0)
(-0.28329 -0.109165 0)
(-0.296137 -0.0980218 0)
(-0.307437 -0.0868196 0)
(-0.317251 -0.0756661 0)
(-0.325643 -0.0646247 0)
(-0.332674 -0.0537219 0)
(-0.338402 -0.0429533 0)
(-0.342872 -0.0322903 0)
(-0.346121 -0.0216858 0)
(-0.34817 -0.0110795 0)
(-0.349028 -0.000403276 0)
(-0.348688 0.0104139 0)
(-0.347124 0.0214405 0)
(-0.3443 0.0327371 0)
(-0.34016 0.0443505 0)
(-0.334636 0.0563068 0)
(-0.327648 0.0686046 0)
(-0.319104 0.0812061 0)
(-0.308908 0.0940294 0)
(-0.296967 0.106938 0)
(-0.283192 0.119732 0)
(-0.267516 0.132139 0)
(-0.249904 0.143808 0)
(-0.23037 0.1543 0)
(-0.208997 0.163096 0)
(-0.185957 0.169595 0)
(-0.161539 0.173133 0)
(-0.136166 0.173009 0)
(-0.110418 0.168514 0)
(-0.0850425 0.158984 0)
(-0.0609571 0.143852 0)
(-0.0392127 0.122703 0)
(-0.0209246 0.0953273 0)
(-0.00751545 0.0617596 0)
(-0.00112245 0.0223249 0)
(-0.00102247 -0.0184179 0)
(-0.00681656 -0.0503155 0)
(-0.0189694 -0.0770794 0)
(-0.0356007 -0.0987156 0)
(-0.0555029 -0.1154 0)
(-0.0777554 -0.127444 0)
(-0.101487 -0.135257 0)
(-0.125927 -0.13932 0)
(-0.150429 -0.140149 0)
(-0.174472 -0.13826 0)
(-0.197648 -0.134155 0)
(-0.219653 -0.128297 0)
(-0.240271 -0.121099 0)
(-0.259361 -0.112921 0)
(-0.276839 -0.104064 0)
(-0.29267 -0.0947738 0)
(-0.306852 -0.0852406 0)
(-0.319406 -0.0756068 0)
(-0.33037 -0.0659709 0)
(-0.339786 -0.0563936 0)
(-0.347701 -0.0469032 0)
(-0.354158 -0.0375015 0)
(-0.359193 -0.028169 0)
(-0.362834 -0.01887 0)
(-0.365096 -0.00955722 0)
(-0.365982 -0.000176667 0)
(-0.36548 0.00932785 0)
(-0.363566 0.01901 0)
(-0.3602 0.0289159 0)
(-0.35533 0.039079 0)
(-0.348893 0.0495139 0)
(-0.340818 0.0602103 0)
(-0.331029 0.0711262 0)
(-0.31945 0.0821802 0)
(-0.306013 0.0932445 0)
(-0.290665 0.104137 0)
(-0.27338 0.114616 0)
(-0.254174 0.124374 0)
(-0.233116 0.133035 0)
(-0.210347 0.140161 0)
(-0.186101 0.145252 0)
(-0.160719 0.147766 0)
(-0.134666 0.147138 0)
(-0.108546 0.142811 0)
(-0.0831036 0.134271 0)
(-0.0592215 0.121089 0)
(-0.0378828 0.102966 0)
(-0.0201056 0.0797663 0)
(-0.007179 0.0515454 0)
(-0.00106155 0.018584 0)
(-0.00099763 -0.0149725 0)
(-0.00667984 -0.0409475 0)
(-0.0186429 -0.062809 0)
(-0.0350915 -0.0805637 0)
(-0.0548846 -0.0943463 0)
(-0.077152 -0.104393 0)
(-0.101059 -0.11102 0)
(-0.125851 -0.114597 0)
(-0.150888 -0.115525 0)
(-0.175635 -0.114211 0)
(-0.199664 -0.111051 0)
(-0.222641 -0.106415 0)
(-0.244318 -0.100638 0)
(-0.264521 -0.0940102 0)
(-0.283134 -0.0867809 0)
(-0.300089 -0.079153 0)
(-0.315358 -0.0712868 0)
(-0.328937 -0.0633034 0)
(-0.340842 -0.055288 0)
(-0.3511 -0.0472946 0)
(-0.359741 -0.0393508 0)
(-0.366797 -0.0314616 0)
(-0.372294 -0.0236146 0)
(-0.376252 -0.0157834 0)
(-0.378681 -0.00793217 0)
(-0.379577 -1.95845e-05 0)
(-0.378927 0.00799751 0)
(-0.376704 0.0161597 0)
(-0.37287 0.0245011 0)
(-0.367375 0.0330443 0)
(-0.360164 0.041796 0)
(-0.351173 0.0507416 0)
(-0.34034 0.0598392 0)
(-0.327609 0.0690144 0)
(-0.312937 0.0781542 0)
(-0.2963 0.0871015 0)
(-0.27771 0.0956507 0)
(-0.257223 0.103545 0)
(-0.234954 0.110474 0)
(-0.211093 0.116081 0)
(-0.185918 0.119965 0)
(-0.159812 0.121696 0)
(-0.13327 0.120833 0)
(-0.106906 0.116947 0)
(-0.0814599 0.109649 0)
(-0.0577808 0.0986219 0)
(-0.0367952 0.0836529 0)
(-0.0194431 0.0646571 0)
(-0.00690922 0.0416956 0)
(-0.00101319 0.015001 0)
(-0.000979452 -0.0115882 0)
(-0.00657929 -0.031718 0)
(-0.0184018 -0.0486992 0)
(-0.0347135 -0.0625385 0)
(-0.0544228 -0.0733354 0)
(-0.0766974 -0.0812641 0)
(-0.10073 -0.086558 0)
(-0.125783 -0.0894923 0)
(-0.151218 -0.0903661 0)
(-0.176495 -0.0894856 0)
(-0.201171 -0.0871506 0)
(-0.224891 -0.0836432 0)
(-0.247383 -0.07922 0)
(-0.268446 -0.0741071 0)
(-0.28794 -0.0684975 0)
(-0.305772 -0.0625507 0)
(-0.321892 -0.056394 0)
(-0.336276 -0.0501239 0)
(-0.348923 -0.0438096 0)
(-0.359843 -0.037496 0)
(-0.369057 -0.031207 0)
(-0.376585 -0.0249489 0)
(-0.382445 -0.0187141 0)
(-0.38665 -0.0124843 0)
(-0.389203 -0.00623327 0)
(-0.390098 6.92604e-05 0)
(-0.38932 0.00645488 0)
(-0.38684 0.012953 0)
(-0.382621 0.0195876 0)
(-0.376617 0.0263733 0)
(-0.368777 0.0333119 0)
(-0.359047 0.0403878 0)
(-0.347378 0.0475641 0)
(-0.333729 0.0547779 0)
(-0.318076 0.0619361 0)
(-0.300425 0.0689116 0)
(-0.280814 0.0755401 0)
(-0.259335 0.0816188 0)
(-0.236138 0.0869061 0)
(-0.21145 0.0911251 0)
(-0.185583 0.0939697 0)
(-0.158949 0.0951146 0)
(-0.132062 0.0942295 0)
(-0.105546 0.0909972 0)
(-0.0801281 0.0851347 0)
(-0.0566318 0.0764156 0)
(-0.0359375 0.0646923 0)
(-0.018925 0.0499137 0)
(-0.00669966 0.0321363 0)
(-0.000975905 0.0115426 0)
(-0.000966741 -0.00824788 0)
(-0.00650872 -0.0225886 0)
(-0.0182321 -0.0347064 0)
(-0.0344465 -0.0446068 0)
(-0.0540951 -0.0523583 0)
(-0.0763727 -0.0580808 0)
(-0.100492 -0.0619347 0)
(-0.125729 -0.0641099 0)
(-0.151447 -0.0648138 0)
(-0.177103 -0.0642595 0)
(-0.202244 -0.062657 0)
(-0.226501 -0.0602044 0)
(-0.249584 -0.0570834 0)
(-0.271275 -0.0534545 0)
(-0.291414 -0.0494556 0)
(-0.309891 -0.0452016 0)
(-0.326637 -0.0407842 0)
(-0.341616 -0.036274 0)
(-0.354811 -0.0317216 0)
(-0.366223 -0.0271608 0)
(-0.375861 -0.0226098 0)
(-0.383738 -0.0180745 0)
(-0.389865 -0.0135508 0)
(-0.394249 -0.00902637 0)
(-0.396891 -0.00448379 0)
(-0.397781 9.76127e-05 0)
(-0.3969 0.00473927 0)
(-0.394222 0.00946101 0)
(-0.389708 0.0142785 0)
(-0.383317 0.0192005 0)
(-0.375001 0.0242265 0)
(-0.364714 0.0293431 0)
(-0.352416 0.0345214 0)
(-0.33808 0.0397139 0)
(-0.321699 0.0448514 0)
(-0.303297 0.0498405 0)
(-0.282936 0.0545618 0)
(-0.260732 0.0588688 0)
(-0.236863 0.0625889 0)
(-0.211581 0.0655253 0)
(-0.185225 0.0674623 0)
(-0.158223 0.0681726 0)
(-0.131106 0.0674274 0)
(-0.104498 0.0650087 0)
(-0.0791198 0.0607245 0)
(-0.0557718 0.0544232 0)
(-0.0353009 0.0460089 0)
(-0.0185429 0.0354525 0)
(-0.00654587 0.0227987 0)
(-0.0009487 0.00817869 0)
(-0.000958684 -0.00493731 0)
(-0.00646388 -0.0135271 0)
(-0.018124 -0.0207931 0)
(-0.0342761 -0.0267391 0)
(-0.0538853 -0.0314054 0)
(-0.0761641 -0.0348618 0)
(-0.100338 -0.0372025 0)
(-0.125692 -0.0385388 0)
(-0.151591 -0.0389925 0)
(-0.177491 -0.0386896 0)
(-0.202933 -0.037754 0)
(-0.227538 -0.0363036 0)
(-0.251007 -0.0344464 0)
(-0.273108 -0.0322786 0)
(-0.293669 -0.0298828 0)
(-0.312569 -0.0273281 0)
(-0.329728 -0.0246701 0)
(-0.345098 -0.0219515 0)
(-0.358654 -0.0192035 0)
(-0.370391 -0.0164467 0)
(-0.380309 -0.0136927 0)
(-0.388416 -0.0109455 0)
(-0.394719 -0.00820314 0)
(-0.399221 -0.0054587 0)
(-0.401919 -0.0027021 0)
(-0.402802 7.86152e-05 0)
(-0.401851 0.00289584 0)
(-0.399037 0.00576095 0)
(-0.394324 0.00868277 0)
(-0.387672 0.0116659 0)
(-0.379036 0.0147092 0)
(-0.368376 0.0178038 0)
(-0.35566 0.0209314 0)
(-0.340868 0.0240623 0)
(-0.324004 0.027154 0)
(-0.305107 0.0301495 0)
(-0.284254 0.0329763 0)
(-0.261576 0.035546 0)
(-0.237271 0.0377549 0)
(-0.211606 0.0394855 0)
(-0.184936 0.0406097 0)
(-0.157704 0.0409931 0)
(-0.130446 0.0405012 0)
(-0.103788 0.0390068 0)
(-0.0784433 0.0363984 0)
(-0.0551992 0.0325892 0)
(-0.0348795 0.0275251 0)
(-0.018291 0.0211916 0)
(-0.00644486 0.0136173 0)
(-0.000930902 0.00488105 0)
(-0.000954777 -0.00164387 0)
(-0.00644211 -0.0045047 0)
(-0.0180715 -0.00692593 0)
(-0.0341931 -0.00890885 0)
(-0.053783 -0.0104668 0)
(-0.076062 -0.0116227 0)
(-0.100263 -0.0124076 0)
(-0.125673 -0.0128581 0)
(-0.151661 -0.0130146 0)
(-0.177681 -0.0129185 0)
(-0.20327 -0.0126109 0)
(-0.228047 -0.012131 0)
(-0.251706 -0.0115146 0)
(-0.274009 -0.0107936 0)
(-0.294779 -0.00999559 0)
(-0.313888 -0.0091437 0)