/*--------------------------------*- C++ -*----------------------------------*\
  =========                 |
  \\      /  F ield         | OpenFOAM: The Open Source CFD Toolbox
   \\    /   O peration     | Website:  https://openfoam.org
    \\  /    A nd           | Version:  7
     \\/     M anipulation  |
\*---------------------------------------------------------------------------*/
FoamFile
{
    version     2.0;
    format      ascii;
    class       volScalarField;
    location    "0.0236";
    object      p;
}
// * * * * * * * * * * * * * * * * * * * * * * * * * * * * * * * * * * * * * //

dimensions      [0 2 -2 0 0 0 0];

internalField   nonuniform List<scalar> 
2500
(
-1.55774e-07
-6.51089
-9.29406
-10.4873
-11.1497
-11.5529
-11.8133
-11.9949
-12.1296
-12.2339
-12.3171
-12.385
-12.4413
-12.4887
-12.529
-12.5637
-12.5937
-12.6199
-12.6429
-12.6633
-12.6815
-12.6978
-12.7126
-12.7262
-12.7387
-12.7505
-12.7617
-12.7726
-12.7834
-12.7945
-12.8059
-12.8182
-12.8317
-12.8468
-12.8642
-12.8845
-12.9087
-12.9381
-12.9742
-13.0196
-13.0777
-13.1538
-13.2567
-13.4023
-13.6216
-13.9759
-14.5725
-15.671
-18.3369
-24.7218
-4.95653
-7.67545
-9.18067
-10.1388
-10.8044
-11.2619
-11.5809
-11.8116
-11.9844
-12.1176
-12.2229
-12.308
-12.378
-12.4364
-12.4857
-12.5278
-12.5641
-12.5958
-12.6236
-12.6482
-12.6701
-12.69
-12.708
-12.7247
-12.7403
-12.7551
-12.7695
-12.7836
-12.7979
-12.8126
-12.8281
-12.8449
-12.8634
-12.8844
-12.9085
-12.9368
-12.9705
-13.0114
-13.062
-13.1254
-13.2066
-13.3129
-13.4554
-13.6517
-13.9311
-14.3417
-14.9489
-15.835
-17.254
-19.8533
-7.92797
-8.75886
-9.55837
-10.2378
-10.7762
-11.1842
-11.4916
-11.726
-11.9078
-12.0511
-12.166
-12.2596
-12.3369
-12.4017
-12.4565
-12.5034
-12.544
-12.5793
-12.6104
-12.6379
-12.6626
-12.685
-12.7055
-12.7245
-12.7424
-12.7595
-12.7762
-12.7927
-12.8095
-12.8269
-12.8454
-12.8654
-12.8876
-12.9126
-12.9412
-12.9748
-13.0145
-13.0624
-13.121
-13.1937
-13.2854
-13.4028
-13.5557
-13.7579
-14.0288
-14.3949
-14.8848
-15.5109
-16.2554
-17.0188
-9.43966
-9.65088
-10.0682
-10.5116
-10.9031
-11.2285
-11.4931
-11.7069
-11.8797
-12.0204
-12.1359
-12.2317
-12.3118
-12.3796
-12.4374
-12.4871
-12.5302
-12.568
-12.6014
-12.6311
-12.6578
-12.6821
-12.7044
-12.7252
-12.7449
-12.7638
-12.7822
-12.8007
-12.8195
-12.839
-12.8597
-12.8821
-12.9068
-12.9346
-12.9663
-13.0031
-13.0463
-13.0978
-13.1599
-13.2357
-13.3291
-13.4454
-13.5913
-13.7755
-14.0076
-14.2973
-14.6504
-15.0545
-15.4355
-15.6129
-10.3274
-10.3239
-10.5257
-10.801
-11.0742
-11.3228
-11.5398
-11.7251
-11.8814
-12.013
-12.124
-12.2178
-12.2977
-12.3661
-12.425
-12.4762
-12.5209
-12.5602
-12.5951
-12.6264
-12.6546
-12.6804
-12.7042
-12.7264
-12.7475
-12.7679
-12.7879
-12.8078
-12.8282
-12.8494
-12.8718
-12.896
-12.9226
-12.9523
-12.986
-13.0246
-13.0696
-13.1224
-13.185
-13.2598
-13.3499
-13.4587
-13.5903
-13.7489
-13.9376
-14.1566
-14.3999
-14.6468
-14.8252
-14.8059
-10.8958
-10.818
-10.9043
-11.07
-11.2563
-11.4413
-11.6139
-11.769
-11.9055
-12.0244
-12.1274
-12.2165
-12.2937
-12.3607
-12.4192
-12.4704
-12.5156
-12.5557
-12.5915
-12.6237
-12.6529
-12.6797
-12.7045
-12.7278
-12.75
-12.7715
-12.7926
-12.8137
-12.8353
-12.8576
-12.8812
-12.9066
-12.9343
-12.9651
-12.9996
-13.0389
-13.0839
-13.136
-13.1968
-13.2678
-13.3512
-13.449
-13.563
-13.6944
-13.8427
-14.0033
-14.1666
-14.3123
-14.3841
-14.301
-11.2792
-11.1841
-11.2115
-11.3085
-11.4333
-11.5682
-11.7024
-11.8292
-11.9454
-12.05
-12.1431
-12.2254
-12.2982
-12.3624
-12.4191
-12.4694
-12.5141
-12.5541
-12.5901
-12.6227
-12.6524
-12.6798
-12.7052
-12.7292
-12.7522
-12.7744
-12.7962
-12.8181
-12.8403
-12.8634
-12.8877
-12.9136
-12.9418
-12.9728
-13.0073
-13.046
-13.0898
-13.1398
-13.1969
-13.2623
-13.3371
-13.4223
-13.5182
-13.6242
-13.7378
-13.853
-13.9603
-14.0431
-14.0622
-13.9676
-11.5531
-11.4614
-11.4594
-11.5138
-11.596
-11.6931
-11.7959
-11.8978
-11.9949
-12.0851
-12.1676
-12.2423
-12.3095
-12.3698
-12.4238
-12.4722
-12.5158
-12.555
-12.5906
-12.623
-12.6528
-12.6803
-12.7061
-12.7304
-12.7536
-12.7762
-12.7985
-12.8207
-12.8433
-12.8666
-12.8911
-12.9171
-12.9451
-12.9757
-13.0093
-13.0466
-13.0883
-13.135
-13.1875
-13.2463
-13.312
-13.3846
-13.4636
-13.5475
-13.633
-13.7144
-13.7834
-13.8281
-13.8219
-13.7338
-11.759
-11.6764
-11.6601
-11.6882
-11.7414
-11.8105
-11.8884
-11.9693
-12.0494
-12.1261
-12.1981
-12.2647
-12.3258
-12.3816
-12.4322
-12.4782
-12.5199
-12.5579
-12.5926
-12.6244
-12.6538
-12.6811
-12.7067
-12.731
-12.7543
-12.777
-12.7993
-12.8215
-12.8441
-12.8673
-12.8915
-12.9171
-12.9445
-12.9741
-13.0063
-13.0416
-13.0805
-13.1235
-13.1708
-13.2228
-13.2794
-13.3404
-13.4046
-13.4701
-13.5338
-13.5905
-13.6338
-13.6555
-13.6377
-13.5605
-11.9199
-11.8471
-11.8241
-11.8361
-11.8694
-11.9181
-11.9767
-12.0404
-12.1057
-12.1702
-12.2323
-12.291
-12.3459
-12.3967
-12.4435
-12.4866
-12.5261
-12.5624
-12.5958
-12.6266
-12.6552
-12.682
-12.7072
-12.7311
-12.7542
-12.7765
-12.7986
-12.8205
-12.8428
-12.8655
-12.8892
-12.914
-12.9403
-12.9685
-12.9989
-13.0319
-13.0676
-13.1065
-13.1486
-13.194
-13.2423
-13.2928
-13.3445
-13.3953
-13.4422
-13.4813
-13.5076
-13.5156
-13.4931
-13.4265
-12.0493
-11.9853
-11.9597
-11.9617
-11.9817
-12.0154
-12.0591
-12.1088
-12.1617
-12.2155
-12.2685
-12.3197
-12.3684
-12.4142
-12.457
-12.4969
-12.5338
-12.568
-12.5998
-12.6293
-12.6569
-12.6828
-12.7073
-12.7306
-12.7531
-12.7749
-12.7964
-12.8178
-12.8394
-12.8615
-12.8843
-12.908
-12.933
-12.9596
-12.9879
-13.0182
-13.0508
-13.0856
-13.1227
-13.1618
-13.2027
-13.2443
-13.2856
-13.3247
-13.3592
-13.3856
-13.4007
-13.4006
-13.3768
-13.3196
-12.1555
-12.0991
-12.0731
-12.0691
-12.0799
-12.1028
-12.135
-12.1736
-12.2161
-12.2606
-12.3055
-12.3497
-12.3925
-12.4334
-12.4721
-12.5085
-12.5427
-12.5746
-12.6045
-12.6324
-12.6587
-12.6835
-12.707
-12.7295
-12.7511
-12.7722
-12.793
-12.8136
-12.8343
-12.8554
-12.8771
-12.8996
-12.9231
-12.9478
-12.9739
-13.0016
-13.0309
-13.0618
-13.0942
-13.1279
-13.1622
-13.1963
-13.2292
-13.2592
-13.2843
-13.3019
-13.3096
-13.3049
-13.2815
-13.2323
-12.2441
-12.1943
-12.169
-12.1614
-12.1659
-12.181
-12.2045
-12.2343
-12.2682
-12.3047
-12.3424
-12.3802
-12.4175
-12.4536
-12.4883
-12.5213
-12.5525
-12.582
-12.6097
-12.6359
-12.6606
-12.6841
-12.7064
-12.7278
-12.7485
-12.7686
-12.7884
-12.808
-12.8277
-12.8477
-12.8681
-12.8891
-12.911
-12.9338
-12.9577
-12.9827
-13.0089
-13.0362
-13.0644
-13.0931
-13.1218
-13.1498
-13.1759
-13.1989
-13.2171
-13.2285
-13.2314
-13.2242
-13.2021
-13.1595
-12.3189
-12.2749
-12.2508
-12.2412
-12.2417
-12.251
-12.2679
-12.2906
-12.3175
-12.3472
-12.3786
-12.4107
-12.4429
-12.4745
-12.5052
-12.5348
-12.563
-12.5899
-12.6155
-12.6397
-12.6627
-12.6846
-12.7056
-12.7257
-12.7452
-12.7642
-12.7828
-12.8013
-12.8198
-12.8385
-12.8575
-12.877
-12.8972
-12.918
-12.9397
-12.9622
-12.9855
-13.0094
-13.0338
-13.0583
-13.0824
-13.1052
-13.126
-13.1436
-13.1567
-13.1638
-13.1637
-13.1553
-13.1349
-13.098
-12.3827
-12.3438
-12.3213
-12.3108
-12.3085
-12.3138
-12.3257
-12.3428
-12.3639
-12.388
-12.4139
-12.4409
-12.4684
-12.4958
-12.5227
-12.5489
-12.5741
-12.5984
-12.6216
-12.6438
-12.665
-12.6852
-12.7046
-12.7234
-12.7415
-12.7592
-12.7766
-12.7938
-12.811
-12.8283
-12.8458
-12.8637
-12.8821
-12.9011
-12.9206
-12.9407
-12.9613
-12.9822
-13.0033
-13.0241
-13.0442
-13.0629
-13.0795
-13.093
-13.1024
-13.1065
-13.1045
-13.0958
-13.0773
-13.0454
-12.4377
-12.4033
-12.3827
-12.3719
-12.3679
-12.3703
-12.3784
-12.3911
-12.4075
-12.4268
-12.448
-12.4705
-12.4937
-12.5172
-12.5405
-12.5634
-12.5858
-12.6074
-12.6282
-12.6482
-12.6675
-12.6859
-12.7037
-12.7209
-12.7376
-12.7538
-12.7698
-12.7857
-12.8014
-12.8173
-12.8333
-12.8496
-12.8662
-12.8833
-12.9007
-12.9185
-12.9367
-12.9549
-12.973
-12.9907
-13.0076
-13.0229
-13.0362
-13.0466
-13.0533
-13.0554
-13.0524
-13.0439
-13.0274
-12.9998
-12.4854
-12.4551
-12.4365
-12.4259
-12.421
-12.4214
-12.4266
-12.4359
-12.4485
-12.4637
-12.4808
-12.4993
-12.5187
-12.5386
-12.5585
-12.5783
-12.5978
-12.6168
-12.6353
-12.6531
-12.6703
-12.6869
-12.7029
-12.7185
-12.7336
-12.7483
-12.7629
-12.7772
-12.7915
-12.8058
-12.8203
-12.8349
-12.8498
-12.865
-12.8805
-12.8962
-12.912
-12.9278
-12.9434
-12.9584
-12.9725
-12.9851
-12.9958
-13.0038
-13.0086
-13.0095
-13.0061
-12.9981
-12.9836
-12.9599
-12.5271
-12.5007
-12.484
-12.4741
-12.4687
-12.4677
-12.4708
-12.4774
-12.4869
-12.4988
-12.5124
-12.5274
-12.5434
-12.5599
-12.5767
-12.5936
-12.6103
-12.6267
-12.6428
-12.6584
-12.6735
-12.6882
-12.7024
-12.7162
-12.7297
-12.7429
-12.7558
-12.7687
-12.7814
-12.7942
-12.807
-12.82
-12.8332
-12.8465
-12.8601
-12.8738
-12.8876
-12.9012
-12.9145
-12.9272
-12.939
-12.9494
-12.958
-12.9643
-12.9678
-12.9679
-12.9644
-12.9572
-12.9447
-12.9247
-12.564
-12.5412
-12.5265
-12.5173
-12.5119
-12.5101
-12.5116
-12.5161
-12.5231
-12.5322
-12.5428
-12.5548
-12.5676
-12.5811
-12.595
-12.6091
-12.6231
-12.637
-12.6507
-12.6641
-12.6772
-12.6899
-12.7023
-12.7143
-12.7261
-12.7376
-12.749
-12.7602
-12.7713
-12.7825
-12.7937
-12.805
-12.8165
-12.8281
-12.8398
-12.8517
-12.8635
-12.8751
-12.8864
-12.8972
-12.907
-12.9156
-12.9226
-12.9275
-12.9301
-12.9298
-12.9266
-12.9203
-12.9098
-12.8931
-12.5968
-12.5775
-12.5648
-12.5566
-12.5514
-12.5491
-12.5496
-12.5524
-12.5574
-12.5641
-12.5722
-12.5814
-12.5915
-12.6023
-12.6134
-12.6248
-12.6364
-12.6479
-12.6592
-12.6705
-12.6814
-12.6922
-12.7027
-12.7129
-12.7229
-12.7327
-12.7424
-12.752
-12.7615
-12.771
-12.7806
-12.7902
-12.8
-12.8098
-12.8198
-12.8298
-12.8398
-12.8497
-12.8592
-12.8681
-12.8763
-12.8834
-12.889
-12.893
-12.895
-12.8946
-12.8919
-12.8867
-12.8781
-12.8646
-12.6265
-12.6104
-12.5997
-12.5925
-12.5878
-12.5853
-12.585
-12.5866
-12.5899
-12.5946
-12.6005
-12.6074
-12.615
-12.6233
-12.6319
-12.6409
-12.65
-12.6592
-12.6683
-12.6774
-12.6863
-12.695
-12.7036
-12.712
-12.7202
-12.7283
-12.7363
-12.7442
-12.752
-12.7599
-12.7677
-12.7757
-12.7837
-12.7919
-12.8001
-12.8084
-12.8167
-12.8248
-12.8326
-12.84
-12.8467
-12.8525
-12.8571
-12.8604
-12.862
-12.8617
-12.8596
-12.8555
-12.8488
-12.8384
-12.6535
-12.6406
-12.6318
-12.6259
-12.6217
-12.6193
-12.6185
-12.6191
-12.6211
-12.6241
-12.6281
-12.6329
-12.6383
-12.6442
-12.6505
-12.6572
-12.664
-12.6709
-12.6779
-12.6849
-12.6918
-12.6985
-12.7052
-12.7118
-12.7182
-12.7245
-12.7307
-12.7369
-12.743
-12.7491
-12.7553
-12.7616
-12.7679
-12.7743
-12.7808
-12.7874
-12.794
-12.8005
-12.8067
-12.8126
-12.818
-12.8227
-12.8265
-12.8291
-12.8305
-12.8305
-12.8291
-12.8262
-12.8215
-12.814
-12.6785
-12.6686
-12.6619
-12.6571
-12.6536
-12.6514
-12.6503
-12.6503
-12.6511
-12.6527
-12.655
-12.6579
-12.6613
-12.6651
-12.6693
-12.6738
-12.6784
-12.6832
-12.6881
-12.693
-12.6979
-12.7027
-12.7075
-12.7122
-12.7168
-12.7213
-12.7258
-12.7302
-12.7346
-12.739
-12.7434
-12.7479
-12.7525
-12.7572
-12.762
-12.7668
-12.7717
-12.7766
-12.7814
-12.7859
-12.79
-12.7937
-12.7967
-12.7989
-12.8003
-12.8006
-12.7999
-12.7983
-12.7955
-12.7909
-12.7021
-12.6951
-12.6903
-12.6868
-12.6841
-12.6822
-12.681
-12.6803
-12.6802
-12.6806
-12.6814
-12.6826
-12.6842
-12.6861
-12.6883
-12.6907
-12.6933
-12.696
-12.6989
-12.7018
-12.7047
-12.7077
-12.7106
-12.7134
-12.7162
-12.7189
-12.7216
-12.7242
-12.7268
-12.7294
-12.7321
-12.7348
-12.7376
-12.7405
-12.7435
-12.7467
-12.7499
-12.7532
-12.7564
-12.7596
-12.7626
-12.7652
-12.7676
-12.7694
-12.7707
-12.7714
-12.7716
-12.7712
-12.7703
-12.7686
-12.7247
-12.7206
-12.7177
-12.7155
-12.7136
-12.7121
-12.7108
-12.7097
-12.7088
-12.7081
-12.7075
-12.7072
-12.7071
-12.7071
-12.7074
-12.7079
-12.7086
-12.7094
-12.7103
-12.7112
-12.7123
-12.7133
-12.7143
-12.7153
-12.7163
-12.7172
-12.7181
-12.7189
-12.7197
-12.7205
-12.7213
-12.7222
-12.7232
-12.7243
-12.7255
-12.7269
-12.7284
-12.73
-12.7317
-12.7335
-12.7353
-12.737
-12.7387
-12.7401
-12.7414
-12.7426
-12.7436
-12.7445
-12.7455
-12.7467
-12.7467
-12.7455
-12.7445
-12.7436
-12.7426
-12.7414
-12.7401
-12.7386
-12.737
-12.7353
-12.7335
-12.7317
-12.73
-12.7284
-12.7269
-12.7255
-12.7243
-12.7232
-12.7222
-12.7213
-12.7205
-12.7197
-12.7189
-12.7181
-12.7172
-12.7163
-12.7153
-12.7143
-12.7133
-12.7123
-12.7112
-12.7103
-12.7094
-12.7086
-12.7079
-12.7074
-12.7071
-12.7071
-12.7072
-12.7075
-12.7081
-12.7088
-12.7097
-12.7108
-12.7121
-12.7136
-12.7155
-12.7177
-12.7206
-12.7247
-12.7686
-12.7703
-12.7712
-12.7716
-12.7714
-12.7707
-12.7694
-12.7676
-12.7652
-12.7625
-12.7596
-12.7564
-12.7532
-12.7499
-12.7467
-12.7435
-12.7405
-12.7376
-12.7348
-12.7321
-12.7294
-12.7268
-12.7242
-12.7216
-12.7189
-12.7162
-12.7134
-12.7106
-12.7077
-12.7047
-12.7018
-12.6989
-12.696
-12.6933
-12.6907
-12.6883
-12.6861
-12.6842
-12.6826
-12.6814
-12.6806
-12.6802
-12.6803
-12.681
-12.6822
-12.6841
-12.6868
-12.6903
-12.6951
-12.7021
-12.7909
-12.7955
-12.7983
-12.7999
-12.8006
-12.8003
-12.7989
-12.7967
-12.7937
-12.79
-12.7859
-12.7814
-12.7766
-12.7717
-12.7668
-12.762
-12.7572
-12.7525
-12.7479
-12.7434
-12.739
-12.7346
-12.7302
-12.7258
-12.7213
-12.7168
-12.7122
-12.7075
-12.7027
-12.6979
-12.693
-12.6881
-12.6832
-12.6784
-12.6738
-12.6693
-12.6651
-12.6613
-12.6579
-12.655
-12.6527
-12.6511
-12.6503
-12.6503
-12.6514
-12.6537
-12.6571
-12.6619
-12.6686
-12.6785
-12.814
-12.8215
-12.8262
-12.8291
-12.8305
-12.8305
-12.8291
-12.8265
-12.8227
-12.818
-12.8126
-12.8067
-12.8005
-12.794
-12.7874
-12.7808
-12.7743
-12.7679
-12.7616
-12.7553
-12.7491
-12.743
-12.7369
-12.7307
-12.7245
-12.7182
-12.7118
-12.7052
-12.6986
-12.6918
-12.6849
-12.6779
-12.6709
-12.664
-12.6572
-12.6505
-12.6442
-12.6383
-12.6329
-12.6281
-12.6241
-12.6211
-12.6191
-12.6185
-12.6193
-12.6217
-12.6259
-12.6318
-12.6406
-12.6535
-12.8384
-12.8488
-12.8555
-12.8596
-12.8617
-12.862
-12.8604
-12.8571
-12.8525
-12.8467
-12.84
-12.8326
-12.8248
-12.8167
-12.8084
-12.8001
-12.7919
-12.7837
-12.7757
-12.7677
-12.7599
-12.752
-12.7442
-12.7363
-12.7283
-12.7202
-12.712
-12.7036
-12.695
-12.6863
-12.6774
-12.6683
-12.6592
-12.65
-12.6409
-12.6319
-12.6233
-12.615
-12.6074
-12.6005
-12.5946
-12.5899
-12.5866
-12.585
-12.5853
-12.5878
-12.5925
-12.5997
-12.6104
-12.6265
-12.8646
-12.8781
-12.8867
-12.8919
-12.8946
-12.895
-12.893
-12.889
-12.8834
-12.8763
-12.8681
-12.8592
-12.8497
-12.8398
-12.8298
-12.8198
-12.8098
-12.8
-12.7902
-12.7806
-12.771
-12.7615
-12.752
-12.7424
-12.7327
-12.7229
-12.7129
-12.7027
-12.6922
-12.6815
-12.6705
-12.6593
-12.6479
-12.6364
-12.6248
-12.6134
-12.6023
-12.5915
-12.5814
-12.5722
-12.5641
-12.5574
-12.5524
-12.5496
-12.5491
-12.5514
-12.5566
-12.5648
-12.5775
-12.5968
-12.8931
-12.9098
-12.9203
-12.9266
-12.9298
-12.9301
-12.9275
-12.9226
-12.9156
-12.907
-12.8972
-12.8864
-12.8751
-12.8635
-12.8517
-12.8398
-12.8281
-12.8165
-12.805
-12.7937
-12.7825
-12.7713
-12.7602
-12.749
-12.7376
-12.7261
-12.7144
-12.7023
-12.6899
-12.6772
-12.6641
-12.6507
-12.6371
-12.6231
-12.6091
-12.595
-12.5811
-12.5676
-12.5548
-12.5428
-12.5322
-12.5231
-12.5161
-12.5116
-12.5101
-12.5119
-12.5173
-12.5265
-12.5412
-12.564
-12.9247
-12.9447
-12.9572
-12.9644
-12.9679
-12.9678
-12.9643
-12.958
-12.9494
-12.939
-12.9272
-12.9145
-12.9012
-12.8876
-12.8738
-12.8601
-12.8465
-12.8332
-12.82
-12.807
-12.7942
-12.7814
-12.7687
-12.7558
-12.7429
-12.7297
-12.7162
-12.7024
-12.6882
-12.6735
-12.6584
-12.6428
-12.6267
-12.6103
-12.5936
-12.5767
-12.5599
-12.5434
-12.5274
-12.5124
-12.4988
-12.4869
-12.4774
-12.4708
-12.4677
-12.4687
-12.4741
-12.484
-12.5007
-12.5271
-12.9599
-12.9836
-12.9981
-13.0061
-13.0095
-13.0086
-13.0038
-12.9958
-12.9851
-12.9725
-12.9584
-12.9434
-12.9278
-12.912
-12.8962
-12.8805
-12.865
-12.8498
-12.8349
-12.8203
-12.8058
-12.7915
-12.7772
-12.7629
-12.7483
-12.7336
-12.7185
-12.7029
-12.6869
-12.6703
-12.6531
-12.6353
-12.6168
-12.5978
-12.5783
-12.5585
-12.5386
-12.5187
-12.4993
-12.4808
-12.4637
-12.4485
-12.4359
-12.4266
-12.4214
-12.421
-12.4259
-12.4365
-12.4551
-12.4854
-12.9998
-13.0274
-13.0439
-13.0524
-13.0554
-13.0533
-13.0466
-13.0362
-13.0229
-13.0076
-12.9907
-12.973
-12.9549
-12.9367
-12.9185
-12.9007
-12.8833
-12.8662
-12.8496
-12.8333
-12.8173
-12.8014
-12.7857
-12.7698
-12.7538
-12.7376
-12.7209
-12.7037
-12.6859
-12.6675
-12.6482
-12.6282
-12.6074
-12.5858
-12.5634
-12.5405
-12.5172
-12.4937
-12.4705
-12.448
-12.4268
-12.4075
-12.3911
-12.3784
-12.3703
-12.3679
-12.3719
-12.3827
-12.4033
-12.4377
-13.0454
-13.0773
-13.0958
-13.1045
-13.1065
-13.1024
-13.093
-13.0795
-13.0629
-13.0442
-13.0241
-13.0033
-12.9822
-12.9613
-12.9407
-12.9206
-12.9011
-12.8821
-12.8637
-12.8458
-12.8283
-12.811
-12.7938
-12.7766
-12.7592
-12.7415
-12.7234
-12.7046
-12.6852
-12.665
-12.6438
-12.6216
-12.5984
-12.5741
-12.5489
-12.5227
-12.4958
-12.4684
-12.4409
-12.4139
-12.388
-12.3639
-12.3428
-12.3257
-12.3138
-12.3085
-12.3108
-12.3213
-12.3438
-12.3827
-13.098
-13.1349
-13.1553
-13.1637
-13.1638
-13.1567
-13.1436
-13.126
-13.1052
-13.0824
-13.0583
-13.0338
-13.0094
-12.9855
-12.9622
-12.9397
-12.918
-12.8972
-12.877
-12.8575
-12.8385
-12.8198
-12.8013
-12.7828
-12.7642
-12.7452
-12.7257
-12.7056
-12.6846
-12.6627
-12.6397
-12.6155
-12.5899
-12.563
-12.5348
-12.5052
-12.4745
-12.4429
-12.4107
-12.3786
-12.3472
-12.3175
-12.2906
-12.2679
-12.251
-12.2417
-12.2412
-12.2508
-12.2749
-12.3189
-13.1595
-13.2021
-13.2242
-13.2314
-13.2285
-13.2171
-13.1989
-13.1759
-13.1498
-13.1218
-13.0931
-13.0644
-13.0362
-13.0089
-12.9827
-12.9577
-12.9338
-12.911
-12.8891
-12.8681
-12.8477
-12.8277
-12.808
-12.7884
-12.7686
-12.7485
-12.7278
-12.7064
-12.6841
-12.6606
-12.6359
-12.6097
-12.582
-12.5525
-12.5213
-12.4883
-12.4536
-12.4175
-12.3802
-12.3424
-12.3047
-12.2682
-12.2343
-12.2045
-12.181
-12.1659
-12.1614
-12.169
-12.1943
-12.2441
-13.2323
-13.2815
-13.3049
-13.3096
-13.3019
-13.2843
-13.2592
-13.2292
-13.1963
-13.1622
-13.1279
-13.0942
-13.0618
-13.0309
-13.0016
-12.9739
-12.9478
-12.9231
-12.8996
-12.8771
-12.8554
-12.8343
-12.8136
-12.793
-12.7722
-12.7511
-12.7295
-12.707
-12.6835
-12.6587
-12.6324
-12.6045
-12.5746
-12.5427
-12.5085
-12.4721
-12.4334
-12.3925
-12.3497
-12.3055
-12.2606
-12.2161
-12.1736
-12.135
-12.1028
-12.0799
-12.0691
-12.0731
-12.0991
-12.1555
-13.3196
-13.3768
-13.4006
-13.4007
-13.3856
-13.3592
-13.3247
-13.2856
-13.2443
-13.2027
-13.1618
-13.1227
-13.0856
-13.0508
-13.0182
-12.9879
-12.9596
-12.933
-12.908
-12.8843
-12.8615
-12.8394
-12.8178
-12.7964
-12.7749
-12.7531
-12.7306
-12.7073
-12.6828
-12.6569
-12.6293
-12.5998
-12.568
-12.5338
-12.4969
-12.457
-12.4142
-12.3684
-12.3197
-12.2685
-12.2155
-12.1617
-12.1088
-12.0591
-12.0154
-11.9816
-11.9617
-11.9597
-11.9853
-12.0493
-13.4265
-13.4931
-13.5156
-13.5076
-13.4813
-13.4422
-13.3953
-13.3445
-13.2928
-13.2423
-13.194
-13.1486
-13.1065
-13.0676
-13.0319
-12.9989
-12.9685
-12.9403
-12.914
-12.8892
-12.8655
-12.8428
-12.8205
-12.7986
-12.7765
-12.7542
-12.7311
-12.7072
-12.682
-12.6552
-12.6266
-12.5958
-12.5624
-12.5261
-12.4866
-12.4435
-12.3967
-12.3459
-12.291
-12.2323
-12.1702
-12.1057
-12.0403
-11.9767
-11.9181
-11.8694
-11.8361
-11.8241
-11.8471
-11.9199
-13.5605
-13.6377
-13.6555
-13.6338
-13.5905
-13.5338
-13.4701
-13.4046
-13.3404
-13.2794
-13.2228
-13.1708
-13.1235
-13.0805
-13.0416
-13.0063
-12.9741
-12.9445
-12.9171
-12.8915
-12.8673
-12.8441
-12.8215
-12.7993
-12.777
-12.7543
-12.731
-12.7067
-12.6811
-12.6538
-12.6244
-12.5926
-12.5579
-12.5199
-12.4782
-12.4322
-12.3816
-12.3258
-12.2647
-12.1981
-12.1261
-12.0494
-11.9693
-11.8884
-11.8105
-11.7414
-11.6882
-11.6601
-11.6764
-11.759
-13.7338
-13.8219
-13.8281
-13.7834
-13.7144
-13.633
-13.5475
-13.4636
-13.3846
-13.312
-13.2463
-13.1875
-13.135
-13.0883
-13.0466
-13.0093
-12.9757
-12.9451
-12.9171
-12.8911
-12.8666
-12.8433
-12.8207
-12.7985
-12.7762
-12.7536
-12.7304
-12.7061
-12.6803
-12.6528
-12.623
-12.5906
-12.555
-12.5158
-12.4722
-12.4238
-12.3698
-12.3095
-12.2423
-12.1676
-12.0851
-11.9949
-11.8978
-11.7959
-11.6931
-11.596
-11.5138
-11.4594
-11.4614
-11.5531
-13.9676
-14.0622
-14.0431
-13.9603
-13.853
-13.7378
-13.6242
-13.5182
-13.4223
-13.3371
-13.2623
-13.1969
-13.1398
-13.0898
-13.046
-13.0073
-12.9728
-12.9418
-12.9136
-12.8877
-12.8634
-12.8403
-12.8181
-12.7962
-12.7744
-12.7522
-12.7292
-12.7052
-12.6798
-12.6524
-12.6227
-12.5901
-12.5541
-12.5141
-12.4694
-12.4191
-12.3624
-12.2982
-12.2254
-12.1431
-12.05
-11.9454
-11.8292
-11.7024
-11.5682
-11.4333
-11.3085
-11.2115
-11.1841
-11.2792
-14.301
-14.3841
-14.3123
-14.1666
-14.0033
-13.8427
-13.6944
-13.563
-13.449
-13.3512
-13.2678
-13.1968
-13.136
-13.0839
-13.0389
-12.9996
-12.9651
-12.9343
-12.9066
-12.8812
-12.8576
-12.8353
-12.8137
-12.7926
-12.7715
-12.75
-12.7278
-12.7045
-12.6797
-12.6529
-12.6237
-12.5915
-12.5557
-12.5156
-12.4704
-12.4192
-12.3607
-12.2936
-12.2165
-12.1274
-12.0244
-11.9055
-11.769
-11.6139
-11.4413
-11.2563
-11.07
-10.9043
-10.818
-10.8958
-14.8059
-14.8252
-14.6468
-14.3999
-14.1566
-13.9376
-13.7489
-13.5903
-13.4587
-13.3499
-13.2598
-13.185
-13.1224
-13.0696
-13.0246
-12.986
-12.9523
-12.9226
-12.896
-12.8718
-12.8494
-12.8282
-12.8078
-12.7879
-12.7679
-12.7475
-12.7264
-12.7042
-12.6804
-12.6546
-12.6264
-12.5951
-12.5602
-12.5209
-12.4762
-12.425
-12.3661
-12.2977
-12.2178
-12.124
-12.013
-11.8814
-11.725
-11.5398
-11.3228
-11.0742
-10.801
-10.5257
-10.3239
-10.3274
-15.6129
-15.4355
-15.0545
-14.6504
-14.2973
-14.0076
-13.7755
-13.5913
-13.4454
-13.3291
-13.2357
-13.1599
-13.0978
-13.0463
-13.0031
-12.9663
-12.9346
-12.9068
-12.8821
-12.8597
-12.839
-12.8195
-12.8007
-12.7822
-12.7638
-12.7449
-12.7252
-12.7044
-12.6821
-12.6578
-12.6311
-12.6014
-12.568
-12.5302
-12.4871
-12.4374
-12.3796
-12.3118
-12.2317
-12.1359
-12.0204
-11.8797
-11.7068
-11.4931
-11.2285
-10.903
-10.5116
-10.0682
-9.65087
-9.43965
-17.0188
-16.2554
-15.5109
-14.8848
-14.3949
-14.0288
-13.7579
-13.5557
-13.4028
-13.2854
-13.1937
-13.121
-13.0624
-13.0145
-12.9748
-12.9412
-12.9126
-12.8876
-12.8654
-12.8454
-12.8269
-12.8095
-12.7927
-12.7762
-12.7595
-12.7424
-12.7245
-12.7055
-12.685
-12.6626
-12.6379
-12.6104
-12.5793
-12.544
-12.5034
-12.4565
-12.4017
-12.3369
-12.2596
-12.166
-12.0511
-11.9078
-11.726
-11.4916
-11.1842
-10.7762
-10.2378
-9.55836
-8.75886
-7.92796
-19.8533
-17.254
-15.835
-14.9489
-14.3417
-13.9311
-13.6517
-13.4554
-13.3129
-13.2066
-13.1254
-13.062
-13.0114
-12.9705
-12.9368
-12.9085
-12.8844
-12.8634
-12.8449
-12.8281
-12.8126
-12.7979
-12.7836
-12.7695
-12.7551
-12.7403
-12.7247
-12.708
-12.69
-12.6701
-12.6482
-12.6236
-12.5958
-12.5641
-12.5278
-12.4857
-12.4364
-12.378
-12.308
-12.2229
-12.1176
-11.9844
-11.8116
-11.5809
-11.2619
-10.8044
-10.1388
-9.18067
-7.67544
-4.95653
-24.7218
-18.3369
-15.671
-14.5725
-13.9759
-13.6216
-13.4023
-13.2567
-13.1538
-13.0777
-13.0196
-12.9742
-12.9381
-12.9087
-12.8845
-12.8642
-12.8468
-12.8317
-12.8182
-12.8059
-12.7945
-12.7834
-12.7726
-12.7617
-12.7505
-12.7387
-12.7262
-12.7126
-12.6978
-12.6815
-12.6633
-12.6429
-12.6199
-12.5937
-12.5637
-12.529
-12.4887
-12.4413
-12.385
-12.3171
-12.2339
-12.1296
-11.9949
-11.8133
-11.5529
-11.1497
-10.4873
-9.29406
-6.51089
4.99955e-06
)
;

boundaryField
{
    movingWallTop
    {
        type            zeroGradient;
    }
    movingWallBottom
    {
        type            zeroGradient;
    }
    fixedWalls
    {
        type            zeroGradient;
    }
    frontAndBack
    {
        type            empty;
    }
}


// ************************************************************************* //
