/*--------------------------------*- C++ -*----------------------------------*\
  =========                 |
  \\      /  F ield         | OpenFOAM: The Open Source CFD Toolbox
   \\    /   O peration     | Website:  https://openfoam.org
    \\  /    A nd           | Version:  7
     \\/     M anipulation  |
\*---------------------------------------------------------------------------*/
FoamFile
{
    version     2.0;
    format      ascii;
    class       volScalarField;
    location    "0.0316";
    object      p;
}
// * * * * * * * * * * * * * * * * * * * * * * * * * * * * * * * * * * * * * //

dimensions      [0 2 -2 0 0 0 0];

internalField   nonuniform List<scalar> 
2500
(
-7.32111e-06
-0.000522432
-0.0019523
-0.00399195
-0.00634837
-0.00869418
-0.0108698
-0.0127194
-0.0141291
-0.0150199
-0.015339
-0.0150551
-0.0141539
-0.0126358
-0.0105133
-0.00780903
-0.00455412
-0.000786856
0.00344827
0.00810159
0.013119
0.0184426
0.0240114
0.0297617
0.0356275
0.0415414
0.0474346
0.0532379
0.058882
0.0642983
0.0694198
0.0741819
0.0785233
0.0823872
0.0857226
0.0884858
0.0906416
0.0921652
0.0930441
0.0932798
0.0928908
0.0919148
0.0904124
0.0884715
0.0862133
0.0837989
0.0814223
0.0793672
0.0779499
0.0774628
0.000506719
-5.48691e-06
-0.00116474
-0.00276663
-0.00458442
-0.00641811
-0.00811491
-0.00954692
-0.0106149
-0.0112453
-0.0113862
-0.0110044
-0.010082
-0.00861505
-0.00661079
-0.0040863
-0.00106697
0.00241464
0.00631981
0.0106046
0.0152204
0.0201152
0.0252332
0.0305165
0.0359046
0.0413356
0.0467467
0.0520746
0.0572559
0.0622286
0.066932
0.0713081
0.0753025
0.0788651
0.081952
0.0845258
0.0865581
0.0880298
0.0889337
0.0892757
0.0890771
0.0883763
0.0872316
0.0857239
0.0839593
0.0820722
0.0802235
0.0786076
0.0774596
0.076976
0.00194068
0.00115456
-1.24932e-05
-0.00145757
-0.00303886
-0.00460837
-0.00603995
-0.00722864
-0.00808976
-0.00855798
-0.00858578
-0.00814142
-0.00720691
-0.00577646
-0.00385491
-0.00145624
0.00139766
0.004678
0.00834999
0.0123736
0.0167045
0.0212944
0.026092
0.0310431
0.0360918
0.0411801
0.0462496
0.0512412
0.0560962
0.0607569
0.0651671
0.0692737
0.0730265
0.0763804
0.0792956
0.0817391
0.083686
0.0851208
0.0860386
0.0864468
0.0863665
0.0858342
0.0849031
0.083645
0.0821511
0.0805325
0.0789201
0.0774635
0.0763104
0.0755602
0.00400863
0.00277091
0.00141503
-5.47832e-05
-0.00157979
-0.00304466
-0.00434788
-0.00540528
-0.00614703
-0.00651761
-0.00647585
-0.0059937
-0.00505493
-0.00365405
-0.00179516
0.000509277
0.00323946
0.00636908
0.00986605
0.0136933
0.0178096
0.0221697
0.0267256
0.0314264
0.0362194
0.0410501
0.0458633
0.0506033
0.0552149
0.0596436
0.0638369
0.0677447
0.0713203
0.0745215
0.0773115
0.0796598
0.0815437
0.082949
0.0838717
0.0843186
0.084309
0.0838753
0.0830643
0.0819378
0.080572
0.0790575
0.0775007
0.0760198
0.0746802
0.0734909
0.00642653
0.00463519
0.00299551
0.00140292
-0.000163362
-0.00161365
-0.00286737
-0.00385942
-0.00453433
-0.00484684
-0.00476295
-0.00425937
-0.00332273
-0.00194893
-0.000142342
0.00208515
0.00471496
0.00772246
0.0110776
0.0147457
0.0186878
0.0228614
0.0272212
0.0317191
0.0363051
0.0409276
0.0455342
0.050072
0.0544885
0.0587321
0.0627529
0.0665032
0.069939
0.0730202
0.0757118
0.077985
0.0798182
0.0811975
0.0821186
0.0825867
0.0826182
0.0822407
0.0814939
0.0804293
0.0791093
0.0776057
0.0760047
0.0744
0.0727802
0.0710534
0.00894211
0.00657678
0.00459994
0.00281642
0.00113619
-0.000369986
-0.0016383
-0.00262024
-0.00327344
-0.00356249
-0.00346075
-0.00295018
-0.00202095
-0.000671132
0.00109384
0.00326188
0.00581486
0.00872913
0.011976
0.0155225
0.0193315
0.0233627
0.0275728
0.0319159
0.0363444
0.040809
0.0452594
0.049645
0.0539154
0.0580211
0.0619142
0.0655488
0.0688825
0.0718765
0.0744969
0.0767156
0.0785109
0.0798689
0.0807836
0.081258
0.081305
0.0809469
0.0802164
0.0791555
0.077814
0.0762478
0.0745273
0.0727284
0.0707724
0.0684773
0.0114048
0.0084612
0.00611683
0.00409568
0.00224808
0.000631811
-0.000702043
-0.00171881
-0.00238759
-0.00268204
-0.00258258
-0.00207658
-0.0011581
0.000172133
0.001907
0.00403357
0.00653356
0.00938365
0.012556
0.0160185
0.0197356
0.0236683
0.0277751
0.0320118
0.0363323
0.0406892
0.0450338
0.0493173
0.0534907
0.0575058
0.0613161
0.0648768
0.0681461
0.0710861
0.073663
0.0758485
0.0776204
0.0789633
0.0798694
0.0803389
0.0803806
0.0800117
0.079258
0.0781532
0.0767362
0.0750502
0.0731539
0.0711116
0.0687869
0.0659193
0.0136884
0.0101773
0.00745109
0.00516252
0.0031108
0.00134545
-9.1719e-05
-0.00117729
-0.00189014
-0.00221194
-0.00212973
-0.00163608
-0.000729087
0.000587528
0.00230459
0.00440785
0.00687833
0.00969255
0.0128229
0.0162378
0.0199026
0.0237793
0.0278274
0.0320039
0.0362642
0.0405617
0.0448492
0.0490786
0.0532021
0.0571723
0.0609432
0.0644705
0.0677125
0.0706312
0.0731922
0.0753666
0.0771306
0.078467
0.0793655
0.0798232
0.0798447
0.0794421
0.0786353
0.0774502
0.0759173
0.0740694
0.0719574
0.0696389
0.0669289
0.0634976
0.0156991
0.011635
0.00852099
0.00594612
0.00366517
0.00172308
0.000155177
-0.00102413
-0.00180188
-0.00216676
-0.00211175
-0.00163441
-0.00073684
0.000574131
0.00228697
0.00438577
0.00685044
0.00965691
0.0127773
0.0161803
0.0198315
0.0236934
0.0277263
0.0318878
0.0361341
0.0404193
0.0446968
0.0489192
0.0530389
0.0570089
0.0607831
0.064317
0.0675686
0.0704989
0.0730725
0.0752589
0.0770325
0.0783737
0.0792693
0.0797128
0.0797048
0.0792526
0.0783705
0.0770784
0.0753994
0.0733589
0.0710028
0.068386
0.0652813
0.061298
0.0173654
0.0127604
0.00925565
0.00638186
0.0038542
0.00171568
-2.5736e-06
-0.00129335
-0.00215046
-0.00256862
-0.0025462
-0.0020854
-0.0011922
0.000123376
0.00184727
0.00396162
0.00644493
0.00927217
0.0124149
0.0158414
0.0195173
0.0234053
0.0274658
0.0316569
0.0359347
0.0402541
0.0445683
0.04883
0.0529917
0.057006
0.0608262
0.0644072
0.0677059
0.0706817
0.0732977
0.0755213
0.0773245
0.0786847
0.0795857
0.0800172
0.0799757
0.0794641
0.0784915
0.0770728
0.0752256
0.0729696
0.0703483
0.0674167
0.0639106
0.0593834
0.0186303
0.0134911
0.00959245
0.00641028
0.00362318
0.00127414
-0.000608237
-0.00202247
-0.00296803
-0.00344489
-0.00345623
-0.00300859
-0.00211173
-0.000778879
0.00097324
0.00312463
0.00565212
0.00852938
0.0117271
0.0152129
0.0189519
0.0229067
0.0270375
0.0313023
0.0356573
0.0400569
0.0444544
0.048802
0.0530517
0.0571551
0.0610648
0.0647341
0.0681184
0.0711753
0.0738657
0.076154
0.0780096
0.0794067
0.0803252
0.0807513
0.0806772
0.0801016
0.0790293
0.0774706
0.0754389
0.0729499
0.0700466
0.0667865
0.0628713
0.0578015
0.0194454
0.0137716
0.00947412
0.00597521
0.00291864
0.000348765
-0.00170713
-0.00325225
-0.00429088
-0.0048276
-0.00487002
-0.00442874
-0.00351721
-0.0021519
-0.000352266
0.00185937
0.00445792
0.00741552
0.0107016
0.014283
0.018124
0.0221867
0.0264307
0.0308137
0.0352913
0.0398177
0.0443453
0.0488258
0.0532099
0.0574483
0.0614918
0.0652923
0.0688027
0.0719783
0.0747772
0.0771609
0.079095
0.0805503
0.0815028
0.0819345
0.0818336
0.0811944
0.080018
0.0783109
0.0760829
0.0733471
0.0701475
0.0665455
0.0622105
0.0565912
0.0197665
0.0135506
0.00884616
0.00502188
0.00168715
-0.00111142
-0.00334702
-0.00502681
-0.00615931
-0.00675333
-0.00682058
-0.00637559
-0.00543545
-0.00401986
-0.00215117
0.000145834
0.00284394
0.00591353
0.0093226
0.0130367
0.0170193
0.0212313
0.025632
0.030178
0.0348245
0.0395246
0.04423
0.0488911
0.0534573
0.0578778
0.0621013
0.0660775
0.0697568
0.0730914
0.0760362
0.0785489
0.0805916
0.0821306
0.0831377
0.0835906
0.0834732
0.0827757
0.0814952
0.0796351
0.0772026
0.0742085
0.0706991
0.0667409
0.0619714
0.0557865
0.0195509
0.0127777
0.00765464
0.00349526
-0.000125917
-0.00315946
-0.0055785
-0.00739376
-0.00861771
-0.00926309
-0.00934561
-0.00888366
-0.00789798
-0.00641163
-0.00444994
-0.00204035
0.000787623
0.0040024
0.00757029
0.0114554
0.01562
0.020024
0.0246254
0.0293803
0.0342426
0.0391644
0.0440961
0.0489868
0.0537843
0.0584356
0.0628874
0.0670863
0.0709799
0.074517
0.0776485
0.0803281
0.0825133
0.0841659
0.085253
0.0857475
0.0856285
0.0848824
0.0835022
0.0814883
0.0788454
0.0755831
0.0717504
0.0674201
0.0621964
0.0554207
0.0187539
0.0114015
0.00584422
0.00133848
-0.00257757
-0.00585136
-0.00845567
-0.0104047
-0.0117147
-0.0124023
-0.0124874
-0.0119921
-0.010941
-0.00936062
-0.00727947
-0.00472779
-0.00173762
0.00165731
0.00542141
0.00951723
0.0139055
0.0185449
0.0233924
0.0284028
0.0335288
0.0387214
0.0439295
0.0491005
0.0541802
0.0591133
0.0638439
0.0683156
0.0724723
0.0762589
0.079622
0.0825106
0.084877
0.0866781
0.0878755
0.0884368
0.0883364
0.0875558
0.0860843
0.083919
0.0810625
0.077523
0.073353
0.0686322
0.0629297
0.0555289
0.0173277
0.00936708
0.00335635
-0.00150874
-0.00572849
-0.00924707
-0.0120368
-0.0141156
-0.0155035
-0.0162213
-0.0162929
-0.0157447
-0.0146052
-0.0129046
-0.0106748
-0.00794911
-0.0047622
-0.00115021
0.00284923
0.00719688
0.0118519
0.0167716
0.0219116
0.0272254
0.0326645
0.0381784
0.0437144
0.049218
0.054633
0.0599014
0.0649643
0.0697619
0.0742341
0.0783215
0.0819656
0.0851102
0.087702
0.0896918
0.0910353
0.0916945
0.0916379
0.090842
0.0892917
0.086981
0.0839097
0.080085
0.0755631
0.0704309
0.0642197
0.0561507
0.0152189
0.00661466
0.000127591
-0.00511155
-0.00964431
-0.0134116
-0.0163854
-0.0185875
-0.0200423
-0.020775
-0.0208139
-0.0201899
-0.0189358
-0.0170857
-0.0146751
-0.0117408
-0.00832017
-0.00445204
-0.000176228
0.00446613
0.00943247
0.0146787
0.0201589
0.0258254
0.0316283
0.0375155
0.0434327
0.0493234
0.055129
0.0607889
0.0662408
0.0714211
0.0762655
0.0807095
0.0846892
0.0881424
0.0910093
0.0932343
0.0947662
0.0955602
0.0955785
0.0947919
0.0931802
0.0907335
0.0874489
0.083332
0.0784429
0.072876
0.0661215
0.0573322
0.0123669
0.00307783
-0.00391187
-0.00954135
-0.0143967
-0.0184157
-0.0215706
-0.0238872
-0.0253949
-0.0261239
-0.0261073
-0.0253809
-0.0239823
-0.02195
-0.0193234
-0.0161428
-0.0124489
-0.00828323
-0.00368791
0.00129387
0.00661781
0.0122383
0.018108
0.0241778
0.0303966
0.0367107
0.0430642
0.0493986
0.0556527
0.0617632
0.0676642
0.0732882
0.0785659
0.0834275
0.087803
0.0916235
0.0948222
0.0973355
0.0991049
0.100078
0.100209
0.0994621
0.0978117
0.0952429
0.0917493
0.0873346
0.0820626
0.0760356
0.0686983
0.0591284
0.00870307
-0.0013179
-0.00883966
-0.0148771
-0.0200648
-0.0243376
-0.0276682
-0.0300877
-0.031631
-0.0323337
-0.0322347
-0.0313755
-0.0297986
-0.0275475
-0.0246662
-0.0211985
-0.0171889
-0.0126816
-0.00772136
-0.00235345
0.00337608
0.00942006
0.0157299
0.0222552
0.0289435
0.0357398
0.0425866
0.0494233
0.0561865
0.0628098
0.0692237
0.0753564
0.0811336
0.0864794
0.0913172
0.0955707
0.0991648
0.102028
0.104092
0.105295
0.105584
0.104915
0.103255
0.100583
0.0968889
0.0921728
0.0865024
0.0799881
0.072024
0.0616051
0.00414845
-0.00665667
-0.0147427
-0.0212067
-0.0267361
-0.0312632
-0.0347618
-0.037269
-0.0388264
-0.0394761
-0.0392634
-0.0382361
-0.0364427
-0.0339321
-0.0307531
-0.026954
-0.0225829
-0.0176872
-0.0123142
-0.00651131
-0.000326373
0.00619204
0.0129941
0.0200284
0.0272412
0.0345766
0.0419753
0.0493752
0.0567105
0.0639119
0.0709063
0.0776173
0.0839653
0.089868
0.0952415
0.100001
0.104063
0.107345
0.109769
0.111265
0.111767
0.111221
0.109588
0.106838
0.102956
0.0979376
0.0918543
0.0848242
0.0761853
0.0648413
-0.00138711
-0.0130338
-0.0217189
-0.0286286
-0.0345081
-0.0392878
-0.0429433
-0.0455191
-0.0470644
-0.0476289
-0.0472657
-0.0460297
-0.0439762
-0.0411604
-0.0376365
-0.0334575
-0.0286755
-0.0233414
-0.0175051
-0.0112163
-0.00452423
0.00252107
0.00986884
0.0174668
0.0252605
0.033193
0.0412041
0.04923
0.0572029
0.0650507
0.0726969
0.0800604
0.087056
0.0935948
0.0995847
0.104932
0.109543
0.113323
0.116185
0.118043
0.118823
0.118457
0.116896
0.114101
0.11005
0.104733
0.0982238
0.0906491
0.0812838
0.0689307
-0.00800669
-0.0205574
-0.0298786
-0.0372532
-0.0434897
-0.0485173
-0.0523143
-0.0549342
-0.0564352
-0.0568762
-0.0563192
-0.0548275
-0.0524643
-0.0492918
-0.0453704
-0.0407584
-0.0355122
-0.0296862
-0.0233332
-0.0165049
-0.00925219
-0.001626
0.00632217
0.0145395
0.0229714
0.0315603
0.0402453
0.0489617
0.0576399
0.0662053
0.0745782
0.082673
0.0903988
0.0976594
0.104354
0.11038
0.115631
0.120001
0.123388
0.125693
0.126826
0.126709
0.125275
0.122479
0.118284
0.112678
0.105733
0.0975847
0.0874384
0.0739852
-0.0158279
-0.0293501
-0.0393463
-0.0472046
-0.0538028
-0.0590694
-0.0629871
-0.0656199
-0.0670371
-0.0673085
-0.0665065
-0.0647045
-0.0619747
-0.0583873
-0.0540097
-0.0489061
-0.0431375
-0.0367623
-0.0298361
-0.0224124
-0.0145435
-0.00628108
0.0023232
0.0112166
0.0203445
0.0296496
0.0390711
0.0485435
0.0579964
0.0673532
0.0765311
0.0854404
0.0939843
0.10206
0.109557
0.116361
0.122354
0.127417
0.13143
0.134279
0.135858
0.13607
0.134834
0.132089
0.127789
0.121908
0.114522
0.105773
0.0947883
0.0801365
-0.0249847
-0.0395512
-0.0502632
-0.0586228
-0.0655838
-0.0710753
-0.0750856
-0.0776918
-0.0789766
-0.0790227
-0.077915
-0.0757387
-0.0725765
-0.068508
-0.0636084
-0.0579483
-0.0515941
-0.044608
-0.0370485
-0.0289709
-0.0204285
-0.0114731
-0.00215623
0.00747004
0.0173521
0.0274335
0.037654
0.0479488
0.0582468
0.0684705
0.0785346
0.0883456
0.0978012
0.106791
0.115195
0.122889
0.129739
0.13561
0.140367
0.143874
0.146005
0.146644
0.145691
0.143067
0.138709
0.13258
0.124753
0.115378
0.103496
0.0875398
-0.0356296
-0.0513193
-0.0627893
-0.0716661
-0.0789863
-0.0846811
-0.088747
-0.0912765
-0.0923685
-0.0921217
-0.0906359
-0.08801
-0.0843393
-0.0797139
-0.0742179
-0.0679292
-0.06092
-0.0532564
-0.0449997
-0.0362069
-0.0269318
-0.0172258
-0.00713957
0.00327637
0.0139701
0.0248872
0.035969
0.0471521
0.0583662
0.0695334
0.0805669
0.0913701
0.101836
0.111846
0.121273
0.129977
0.137812
0.144623
0.150256
0.154553
0.157363
0.158548
0.157982
0.155563
0.151211
0.144871
0.136614
0.126592
0.113752
0.0963772
-0.0479361
-0.0648347
-0.0771068
-0.0865135
-0.0941832
-0.10005
-0.104123
-0.106512
-0.107337
-0.106714
-0.104763
-0.101599
-0.0973307
-0.0920611
-0.0858844
-0.0788867
-0.071146
-0.0627329
-0.0537112
-0.044139
-0.0340702
-0.0235554
-0.012643
-0.00138142
0.0101804
0.0219911
0.033995
0.0461311
0.0583312
0.0705185
0.0826059
0.0944946
0.106073
0.117218
0.127789
0.137636
0.146596
0.154497
0.161157
0.166396
0.170036
0.171906
0.171853
0.169749
0.165486
0.158988
0.150318
0.139635
0.125776
0.106861
-0.062102
-0.0803038
-0.0934236
-0.103369
-0.11137
-0.117366
-0.121381
-0.123548
-0.124013
-0.122914
-0.120393
-0.116584
-0.111614
-0.105599
-0.0986462
-0.0908491
-0.0822927
-0.0730519
-0.0631928
-0.0527744
-0.0418496
-0.0304672
-0.0186728
-0.00651105
0.00597317
0.0187328
0.0317167
0.0448682
0.0581224
0.0714052
0.0846306
0.0976993
0.110497
0.122893
0.134741
0.145875
0.156117
0.16527
0.173132
0.17949
0.184133
0.186857
0.187473
0.185816
0.181748
0.175165
0.166118
0.154765
0.139826
0.119241
-0.0783535
-0.0979638
-0.111979
-0.122466
-0.130768
-0.136834
-0.140706
-0.142549
-0.142537
-0.140839
-0.13762
-0.13304
-0.127246
-0.120369
-0.112529
-0.103831
-0.0943663
-0.084213
-0.0734397
-0.0621053
-0.050261
-0.0379527
-0.0252218
-0.0121079
0.00134963
0.0151099
0.0291279
0.0433529
0.0577257
0.0721764
0.0866223
0.100965
0.11509
0.128861
0.142123
0.1547
0.166392
0.176985
0.186243
0.193923
0.199775
0.203553
0.205024
0.203982
0.200245
0.193674
0.184301
0.172282
0.156203
0.133808
-0.0969506
-0.118089
-0.133048
-0.144073
-0.152631
-0.158686
-0.162305
-0.163692
-0.163057
-0.160606
-0.156536
-0.151034
-0.14427
-0.136395
-0.127544
-0.117831
-0.107354
-0.0961965
-0.0844274
-0.0721048
-0.0592771
-0.0459856
-0.0322663
-0.018152
-0.00367465
0.0111327
0.0262333
0.0415844
0.0571346
0.0728209
0.0885661
0.104276
0.119835
0.135107
0.149929
0.164112
0.177442
0.189677
0.200553
0.209788
0.217089
0.222159
0.224713
0.22449
0.221257
0.214827
0.205205
0.192538
0.175262
0.150901
-0.118194
-0.140998
-0.156954
-0.168501
-0.177248
-0.183182
-0.186404
-0.187166
-0.185726
-0.182333
-0.177224
-0.170618
-0.162714
-0.153684
-0.143678
-0.132821
-0.121219
-0.108958
-0.0961076
-0.0827228
-0.0688479
-0.0545182
-0.0397622
-0.0246043
-0.00906683
0.00682708
0.0230512
0.0395734
0.0563525
0.0733351
0.0904525
0.107617
0.124716
0.141615
0.158146
0.174111
0.189278
0.203381
0.216123
0.22718
0.236209
0.242853
0.246766
0.247617
0.245107
0.238987
0.229223
0.215945
0.197418
0.170923
-0.142436
-0.167068
-0.184074
-0.196113
-0.204955
-0.21062
-0.213256
-0.213177
-0.210701
-0.206132
-0.199754
-0.191828
-0.182582
-0.172213
-0.160889
-0.148746
-0.135895
-0.122425
-0.108403
-0.0938808
-0.0788966
-0.0634772
-0.0476418
-0.0314037
-0.0147738
0.00223735
0.0196166
0.037345
0.0553945
0.0737246
0.0922783
0.110978
0.129719
0.148369
0.166761
0.184689
0.201907
0.218124
0.233009
0.246193
0.257274
0.26583
0.271433
0.273673
0.272164
0.266576
0.256818
0.242991
0.223163
0.194344
-0.170091
-0.196748
-0.214861
-0.227338
-0.236141
-0.241337
-0.243138
-0.24194
-0.238138
-0.232103
-0.224178
-0.214671
-0.203847
-0.191929
-0.179101
-0.165512
-0.151278
-0.136486
-0.121201
-0.105468
-0.0893156
-0.0727608
-0.0558104
-0.0384646
-0.0207198
-0.00257169
0.0159824
0.0349398
0.054289
0.0740057
0.0940484
0.114353
0.134829
0.155351
0.175756
0.195834
0.215327
0.233925
0.251261
0.266917
0.280428
0.291292
0.29899
0.303009
0.302852
0.298084
0.288535
0.274257
0.253086
0.221727
-0.201659
-0.23058
-0.249859
-0.262688
-0.271262
-0.275717
-0.276356
-0.273681
-0.268185
-0.260326
-0.250516
-0.239118
-0.226439
-0.212729
-0.198192
-0.182983
-0.167221
-0.150991
-0.134351
-0.117336
-0.0999631
-0.0822351
-0.064144
-0.0456741
-0.0268046
-0.00751328
0.0122213
0.0324158
0.0530786
0.0742057
0.0957754
0.117743
0.140034
0.162539
0.185102
0.207519
0.229524
0.250788
0.270914
0.289433
0.305809
0.319453
0.329735
0.336014
0.337657
0.334087
0.325023
0.310439
0.287894
0.253745
-0.237747
-0.269232
-0.289732
-0.302779
-0.310855
-0.3142
-0.313244
-0.308629
-0.300976
-0.290848
-0.278744
-0.265089
-0.250235
-0.23446
-0.217983
-0.200967
-0.183527
-0.165742
-0.147659
-0.129298
-0.110661
-0.0917332
-0.0724888
-0.0528924
-0.0329036
-0.0124788
0.0084249
0.029847
0.0518194
0.0743623
0.0974787
0.121148
0.14532
0.169905
0.194765
0.219705
0.244463
0.268698
0.291983
0.313802
0.333547
0.350527
0.363984
0.373124
0.377137
0.375261
0.367058
0.352382
0.328451
0.291212
-0.279111
-0.31354
-0.335308
-0.348363
-0.355558
-0.357286
-0.354159
-0.347006
-0.336611
-0.32367
-0.30878
-0.292438
-0.275042
-0.256897
-0.238233
-0.219213
-0.199944
-0.180491
-0.160884
-0.141124
-0.121194
-0.101055
-0.0806613
-0.0599538
-0.0388691
-0.0173397
0.00470216
0.027322
0.0505789
0.0745215
0.0991823
0.124571
0.150668
0.177412
0.204692
0.232333
0.260085
0.287606
0.31445
0.340058
0.363747
0.38472
0.402071
0.414819
0.421932
0.422405
0.415577
0.401121
0.37582
0.335129
-0.326709
-0.36457
-0.38763
-0.400366
-0.406128
-0.405544
-0.399479
-0.389014
-0.375142
-0.358719
-0.340459
-0.320933
-0.300583
-0.279736
-0.258624
-0.2374
-0.216155
-0.194933
-0.173737
-0.152545
-0.13131
-0.109971
-0.0884522
-0.0666702
-0.0445347
-0.0219516
0.00117504
0.0249395
0.0494318
0.0747331
0.10091
0.12801
0.15605
0.185007
0.214808
0.245312
0.276293
0.307423
0.33825
0.368184
0.396475
0.422212
0.444326
0.461615
0.472769
0.476461
0.471719
0.457941
0.431336
0.386745
-0.381791
-0.423711
-0.448032
-0.459939
-0.46347
-0.45961
-0.449582
-0.434805
-0.416537
-0.395824
-0.373505
-0.350229
-0.326473
-0.302573
-0.278749
-0.255132
-0.231783
-0.208711
-0.185887
-0.163253
-0.14073
-0.118225
-0.0956317
-0.0728371
-0.0497212
-0.0261602
-0.00202779
0.0228023
0.0484537
0.0750442
0.10268
0.131451
0.16142
0.192614
0.225007
0.258509
0.292936
0.327994
0.363247
0.398091
0.431724
0.463128
0.491056
0.514052
0.530464
0.538543
0.536883
0.524461
0.496702
0.447649
-0.446019
-0.492811
-0.518256
-0.528528
-0.528658
-0.520177
-0.504818
-0.484443
-0.460637
-0.434665
-0.407496
-0.379844
-0.352204
-0.324897
-0.298111
-0.271935
-0.246382
-0.221414
-0.196957
-0.172907
-0.149147
-0.125544
-0.101958
-0.0782428
-0.0542456
-0.0298109
-0.00477976
0.021008
0.0477125
0.0754913
0.104495
0.134861
0.166707
0.200119
0.235136
0.271733
0.309793
0.349081
0.389207
0.429583
0.469382
0.507495
0.542504
0.572666
0.595916
0.609962
0.61279
0.602744
0.574137
0.519907
-0.521683
-0.57439
-0.6006
-0.60795
-0.602951
-0.58797
-0.565452
-0.537835
-0.507094
-0.474726
-0.441819
-0.409123
-0.377114
-0.346068
-0.316108
-0.287254
-0.259449
-0.23259
-0.206542
-0.181149
-0.156244
-0.131651
-0.107191
-0.0826805
-0.0579332
-0.0327597
-0.0069677
0.0196387
0.0472576
0.0760888
0.10633
0.138174
0.171799
0.207362
0.244981
0.284718
0.326549
0.370331
0.415758
0.462306
0.509166
0.555183
0.598783
0.637929
0.670075
0.69224
0.701571
0.695466
0.666593
0.606287
-0.612036
-0.671966
-0.698142
-0.700487
-0.687791
-0.663676
-0.631572
-0.594635
-0.555279
-0.515219
-0.475618
-0.437201
-0.400376
-0.365316
-0.33204
-0.300462
-0.270429
-0.241753
-0.214221
-0.187615
-0.161709
-0.136279
-0.111105
-0.0859625
-0.0606313
-0.0348876
-0.00850506
0.0187477
0.0471075
0.0768174
0.108125
0.141281
0.176534
0.21412
0.254252
0.297102
0.342767
0.391239
0.442347
0.495691
0.550554
0.605804
0.659774
0.710154
0.753873
0.787104
0.805864
0.806135
0.778102
0.710619
-0.721895
-0.790567
-0.815037
-0.808979
-0.784739
-0.747812
-0.70293
-0.654098
-0.604165
-0.554997
-0.507729
-0.462973
-0.420974
-0.381736
-0.345113
-0.310873
-0.278737
-0.248405
-0.219576
-0.191954
-0.165251
-0.139191
-0.113507
-0.0879369
-0.0622249
-0.0361142
-0.00934538
0.018347
0.0472375
0.0776118
0.109768
0.144019
0.180684
0.220091
0.262563
0.308401
0.35786
0.41111
0.468179
0.528876
0.592677
0.658589
0.724971
0.789331
0.848085
0.896424
0.928896
0.939407
0.914309
0.838431
-0.858722
-0.937553
-0.956916
-0.936856
-0.895313
-0.840475
-0.778692
-0.714866
-0.65217
-0.592445
-0.536629
-0.485062
-0.437704
-0.394296
-0.35446
-0.317769
-0.28378
-0.252065
-0.222217
-0.193856
-0.166626
-0.140196
-0.114255
-0.0885035
-0.0626511
-0.0364112
-0.00949437
0.0183961
0.0475692
0.0783514
0.11109
0.146156
0.183948
0.224888
0.26942
0.317997
0.371063
0.429018
0.492163
0.560617
0.634191
0.712207
0.793252
0.874857
0.953059
1.02203
1.07452
1.10148
1.08333
0.998099
-1.0347
-1.12391
-1.13134
-1.08804
-1.02062
-0.940912
-0.857061
-0.774686
-0.696964
-0.625377
-0.560377
-0.501809
-0.449187
-0.401873
-0.359179
-0.320432
-0.284998
-0.2523
-0.221815
-0.193074
-0.165656
-0.139175
-0.113276
-0.0876285
-0.0619118
-0.0358136
-0.00901944
0.0187936
0.0479644
0.0788545
0.111856
0.147397
0.185949
0.228033
0.274219
0.325129
0.381422
0.443779
0.512853
0.589197
0.673131
0.76454
0.862563
0.965128
1.06826
1.16533
1.2471
1.30058
1.29708
1.20304
-1.27099
-1.36629
-1.34813
-1.26643
-1.16055
-1.04677
-0.934693
-0.830021
-0.735246
-0.650924
-0.57659
-0.511298
-0.453916
-0.403302
-0.358385
-0.318202
-0.281906
-0.248762
-0.21813
-0.189456
-0.162254
-0.136092
-0.110579
-0.0853568
-0.0600832
-0.0344267
-0.0080548
0.0193746
0.0482226
0.0788787
0.111771
0.147378
0.186238
0.228963
0.276251
0.328895
0.387792
0.45394
0.528419
0.612343
0.706751
0.81241
0.929474
1.0569
1.19146
1.32644
1.45093
1.54721
1.57334
1.47623
-1.60646
-1.68993
-1.61877
-1.47414
-1.31203
-1.15269
-1.00576
-0.875493
-0.762466
-0.665431
-0.582437
-0.51139
-0.450309
-0.397436
-0.351263
-0.310516
-0.274132
-0.241221
-0.211039
-0.182956
-0.156434
-0.131007
-0.106259
-0.0818128
-0.0573153
-0.0324243
-0.00679844
0.0199142
0.0480871
0.0781272
0.110488
0.145684
0.184308
0.22705
0.274722
0.328279
0.388854
0.457782
0.536621
0.627154
0.731349
0.851224
0.988557
1.14427
1.31722
1.50225
1.68839
1.85355
1.93879
1.85929
-2.11302
-2.13243
-1.9546
-1.7085
-1.46628
-1.24851
-1.06096
-0.903458
-0.772726
-0.664533
-0.57478
-0.499885
-0.436859
-0.383273
-0.337172
-0.29699
-0.261472
-0.229602
-0.200555
-0.173652
-0.148321
-0.124078
-0.100497
-0.0771978
-0.0538252
-0.0300389
-0.00549947
0.0201434
0.0472637
0.0762726
0.107633
0.14188
0.179638
0.221651
0.268816
0.322225
0.383215
0.453436
0.534925
0.630191
0.742285
0.874826
1.0319
1.21762
1.43499
1.68369
1.95675
2.23156
2.43255
2.42773
-2.92133
-2.74383
-2.36321
-1.95994
-1.60776
-1.31919
-1.08819
-0.905048
-0.7599
-0.64419
-0.551072
-0.475262
-0.412733
-0.360429
-0.316019
-0.277714
-0.244128
-0.214173
-0.186985
-0.161864
-0.138238
-0.115624
-0.0936049
-0.0718109
-0.0499007
-0.0275475
-0.00442622
0.0197999
0.0454919
0.0730495
0.102928
0.135659
0.171873
0.212336
0.257985
0.309994
0.369841
0.439417
0.521167
0.618272
0.734893
0.876465
1.04999
1.26417
1.52904
1.8545
2.24577
2.68886
3.10554
3.31571
-4.32801
-3.56445
-2.82028
-2.19494
-1.70594
-1.34089
-1.07112
-0.869989
-0.717912
-0.601046
-0.509653
-0.436882
-0.377888
-0.329196
-0.288272
-0.253239
-0.222678
-0.195506
-0.170874
-0.148109
-0.126664
-0.106085
-0.0859837
-0.0660178
-0.0458728
-0.0252487
-0.00384665
0.0186434
0.0425558
0.0682632
0.0961934
0.12685
0.160838
0.198901
0.241963
0.2912
0.34813
0.414746
0.493719
0.588685
0.704684
0.848818
1.03116
1.266
1.57355
1.98153
2.51974
3.1988
3.99779
4.82786
-7.16276
-4.5633
-3.14468
-2.2593
-1.65309
-1.24362
-0.965418
-0.770233
-0.628687
-0.523075
-0.442204
-0.378767
-0.327879
-0.286177
-0.251282
-0.221468
-0.195456
-0.172276
-0.151182
-0.131582
-0.113003
-0.0950514
-0.0773952
-0.0597406
-0.0418195
-0.0233754
-0.00415205
0.0161166
0.0377199
0.0609817
0.0862763
0.114047
0.144828
0.179282
0.218238
0.262758
0.314229
0.374504
0.446109
0.53259
0.639063
0.773145
0.946492
1.17749
1.49654
1.95393
2.61918
3.57692
5.08163
7.79994
-12.0311
-5.64613
-2.98053
-1.88289
-1.28744
-0.934496
-0.716611
-0.572387
-0.470572
-0.395333
-0.3378
-0.292553
-0.256085
-0.226012
-0.200648
-0.178764
-0.159445
-0.14199
-0.12586
-0.110625
-0.0959414
-0.0815226
-0.0671261
-0.0525376
-0.0375601
-0.0220042
-0.0056797
0.0116142
0.030096
0.0500126
0.0716501
0.095348
0.121516
0.150658
0.183403
0.220551
0.263135
0.312524
0.370574
0.43988
0.524215
0.629346
0.764623
0.946481
1.20692
1.6098
2.2717
3.46426
6.24673
12.757
)
;

boundaryField
{
    movingWall
    {
        type            zeroGradient;
    }
    fixedWalls
    {
        type            zeroGradient;
    }
    frontAndBack
    {
        type            empty;
    }
}


// ************************************************************************* //
