/*--------------------------------*- C++ -*----------------------------------*\
  =========                 |
  \\      /  F ield         | OpenFOAM: The Open Source CFD Toolbox
   \\    /   O peration     | Website:  https://openfoam.org
    \\  /    A nd           | Version:  7
     \\/     M anipulation  |
\*---------------------------------------------------------------------------*/
FoamFile
{
    version     2.0;
    format      ascii;
    class       surfaceScalarField;
    location    "0.0164";
    object      phi;
}
// * * * * * * * * * * * * * * * * * * * * * * * * * * * * * * * * * * * * * //

dimensions      [0 3 -1 0 0 0 0];

internalField   nonuniform List<scalar> 
4900
(
7.75508e-10
-7.81186e-10
1.14506e-09
-3.69555e-10
3.87078e-10
7.57987e-10
-1.6179e-09
2.00493e-09
-4.801e-09
3.18306e-09
-9.00179e-09
4.20079e-09
-1.40316e-08
5.02987e-09
-1.97013e-08
5.66962e-09
-2.58317e-08
6.13041e-09
-3.22586e-08
6.4269e-09
-3.88339e-08
6.57526e-09
-4.54256e-08
6.59175e-09
-5.19177e-08
6.49207e-09
-5.82086e-08
6.2909e-09
-6.42104e-08
6.0018e-09
-6.98474e-08
5.637e-09
-7.5055e-08
5.20752e-09
-7.97781e-08
4.72314e-09
-8.39706e-08
4.19252e-09
-8.75939e-08
3.6233e-09
-9.06162e-08
3.02225e-09
-9.30116e-08
2.39545e-09
-9.476e-08
1.74838e-09
-9.58462e-08
1.08616e-09
-9.62598e-08
4.1364e-10
-9.59954e-08
-2.64402e-10
-9.50523e-08
-9.43121e-10
-9.34349e-08
-1.61745e-09
-9.11529e-08
-2.28198e-09
-8.82221e-08
-2.93077e-09
-8.46648e-08
-3.55729e-09
-8.05106e-08
-4.15424e-09
-7.57971e-08
-4.71347e-09
-7.05713e-08
-5.22586e-09
-6.489e-08
-5.68129e-09
-5.88214e-08
-6.06856e-09
-5.2446e-08
-6.37544e-09
-4.58573e-08
-6.58863e-09
-3.91634e-08
-6.69393e-09
-3.2487e-08
-6.67636e-09
-2.59666e-08
-6.5204e-09
-1.97561e-08
-6.21049e-09
-1.40244e-08
-5.73168e-09
-8.95342e-09
-5.07101e-09
-4.73305e-09
-4.22035e-09
-1.55007e-09
-3.18297e-09
4.39905e-10
-1.98996e-09
1.17494e-09
-7.35028e-10
7.85571e-10
3.89365e-10
7.85564e-10
3.77006e-10
-1.1582e-09
-8.0699e-10
8.14434e-10
-4.49266e-09
4.44374e-09
-1.09715e-08
8.48382e-09
-2.0149e-08
1.23605e-08
-3.17375e-08
1.57893e-08
-4.5352e-08
1.86443e-08
-6.0571e-08
2.08887e-08
-7.69725e-08
2.25318e-08
-9.41524e-08
2.36068e-08
-1.11735e-07
2.41582e-08
-1.2938e-07
2.42359e-08
-1.46778e-07
2.38907e-08
-1.6366e-07
2.31723e-08
-1.79785e-07
2.21275e-08
-1.94948e-07
2.07998e-08
-2.08969e-07
1.92288e-08
-2.21697e-07
1.74504e-08
-2.33001e-07
1.54966e-08
-2.42774e-07
1.33961e-08
-2.50926e-07
1.11744e-08
-2.57385e-07
8.85465e-09
-2.62095e-07
6.45806e-09
-2.65013e-07
4.00428e-09
-2.66111e-07
1.51213e-09
-2.65376e-07
-9.99914e-10
-2.62806e-07
-3.51313e-09
-2.58415e-07
-6.00805e-09
-2.52233e-07
-8.46396e-09
-2.44305e-07
-1.08584e-08
-2.34696e-07
-1.31665e-08
-2.23489e-07
-1.53612e-08
-2.10791e-07
-1.7412e-08
-1.96731e-07
-1.92854e-08
-1.81468e-07
-2.09443e-08
-1.65188e-07
-2.23483e-08
-1.4811e-07
-2.34536e-08
-1.30486e-07
-2.42134e-08
-1.12601e-07
-2.45784e-08
-9.4779e-08
-2.44984e-08
-7.73763e-08
-2.39231e-08
-6.07816e-08
-2.28051e-08
-4.54093e-08
-2.11039e-08
-3.16883e-08
-1.87921e-08
-2.00412e-08
-1.58674e-08
-1.08494e-08
-1.23748e-08
-4.39086e-09
-8.44851e-09
-7.44759e-10
-4.38114e-09
3.99232e-10
-7.54642e-10
1.18479e-09
-7.22701e-10
-4.35501e-10
-4.38044e-09
4.47209e-09
-1.17293e-08
1.17926e-08
-2.29776e-08
1.97322e-08
-3.79802e-08
2.73631e-08
-5.63616e-08
3.41707e-08
-7.76135e-08
3.98962e-08
-1.01164e-07
4.44392e-08
-1.26424e-07
4.77919e-08
-1.52817e-07
4.99999e-08
-1.79798e-07
5.11387e-08
-2.06861e-07
5.12989e-08
-2.33548e-07
5.05776e-08
-2.59448e-07
4.90723e-08
-2.84198e-07
4.68773e-08
-3.07479e-07
4.4081e-08
-3.29016e-07
4.07657e-08
-3.48571e-07
3.70059e-08
-3.65944e-07
3.28694e-08
-3.80965e-07
2.84171e-08
-3.93494e-07
2.37038e-08
-4.03419e-07
1.87793e-08
-4.1065e-07
1.36894e-08
-4.15123e-07
8.47697e-09
-4.16794e-07
3.18283e-09
-4.15641e-07
-2.15271e-09
-4.11665e-07
-7.48897e-09
-4.04889e-07
-1.27837e-08
-3.95361e-07
-1.79922e-08
-3.83154e-07
-2.3066e-08
-3.68368e-07
-2.79521e-08
-3.51137e-07
-3.25925e-08
-3.31626e-07
-3.69227e-08
-3.10039e-07
-4.08721e-08
-2.8662e-07
-4.43633e-08
-2.61657e-07
-4.7312e-08
-2.35482e-07
-4.96283e-08
-2.08479e-07
-5.12167e-08
-1.81078e-07
-5.19788e-08
-1.53761e-07
-5.18156e-08
-1.27053e-07
-5.06315e-08
-1.01517e-07
-4.83404e-08
-7.77461e-08
-4.48751e-08
-5.6337e-08
-4.02011e-08
-3.78643e-08
-3.434e-08
-2.28316e-08
-2.74075e-08
-1.16016e-08
-1.96785e-08
-4.30003e-09
-1.16827e-08
-6.94258e-10
-4.36043e-09
4.90519e-10
-1.94514e-09
1.50969e-09
-8.39059e-09
1.09175e-08
-1.96631e-08
2.30651e-08
-3.57691e-08
3.58381e-08
-5.64362e-08
4.80302e-08
-8.11865e-08
5.8921e-08
-1.09408e-07
6.8118e-08
-1.40417e-07
7.54479e-08
-1.73502e-07
8.08767e-08
-2.07959e-07
8.44569e-08
-2.43113e-07
8.62933e-08
-2.78335e-07
8.65207e-08
-3.13046e-07
8.52883e-08
-3.46723e-07
8.27497e-08
-3.78902e-07
7.90557e-08
-4.09171e-07
7.43506e-08
-4.37175e-07
6.8769e-08
-4.62603e-07
6.24347e-08
-4.85195e-07
5.54609e-08
-5.04728e-07
4.795e-08
-5.21019e-07
3.99948e-08
-5.3392e-07
3.16801e-08
-5.43314e-07
2.30841e-08
-5.49117e-07
1.42799e-08
-5.51272e-07
5.3378e-09
-5.49752e-07
-3.67306e-09
-5.44558e-07
-1.2683e-08
-5.35722e-07
-2.16196e-08
-5.23307e-07
-3.04067e-08
-5.07412e-07
-3.89617e-08
-4.88169e-07
-4.71951e-08
-4.65753e-07
-5.50086e-08
-4.40381e-07
-6.22942e-08
-4.1232e-07
-6.89336e-08
-3.81885e-07
-7.47983e-08
-3.49447e-07
-7.97491e-08
-3.15437e-07
-8.36385e-08
-2.80342e-07
-8.63118e-08
-2.4471e-07
-8.76114e-08
-2.09144e-07
-8.73811e-08
-1.74301e-07
-8.54741e-08
-1.40878e-07
-8.17634e-08
-1.09597e-07
-7.61568e-08
-8.11785e-08
-6.86194e-08
-5.63116e-08
-5.9207e-08
-3.56022e-08
-4.81169e-08
-1.95138e-08
-3.57669e-08
-8.29582e-09
-2.29007e-08
-1.91212e-09
-1.07442e-08
-1.42161e-09
-3.12157e-09
4.63129e-09
-1.2338e-08
2.01339e-08
-2.7521e-08
3.82481e-08
-4.83991e-08
5.67163e-08
-7.45204e-08
7.41514e-08
-1.05278e-07
8.96785e-08
-1.39954e-07
1.02794e-07
-1.77763e-07
1.13257e-07
-2.17896e-07
1.2101e-07
-2.59548e-07
1.26109e-07
-3.01943e-07
1.28689e-07
-3.44353e-07
1.28931e-07
-3.86105e-07
1.2704e-07
-4.26587e-07
1.23231e-07
-4.6525e-07
1.17719e-07
-5.01609e-07
1.1071e-07
-5.35241e-07
1.024e-07
-5.65776e-07
9.29705e-08
-5.92902e-07
8.25867e-08
-6.16353e-07
7.14006e-08
-6.35908e-07
5.95504e-08
-6.51391e-07
4.71624e-08
-6.6266e-07
3.43538e-08
-6.69615e-07
2.12345e-08
-6.72188e-07
7.91027e-09
-6.70346e-07
-5.51512e-09
-6.64092e-07
-1.89367e-08
-6.53465e-07
-3.22461e-08
-6.38543e-07
-4.53287e-08
-6.19443e-07
-5.80616e-08
-5.96327e-07
-7.0311e-08
-5.69405e-07
-8.19312e-08
-5.38937e-07
-9.27624e-08
-5.0524e-07
-1.0263e-07
-4.68692e-07
-1.11347e-07
-4.29732e-07
-1.18708e-07
-3.88869e-07
-1.24502e-07
-3.46675e-07
-1.28505e-07
-3.03792e-07
-1.30494e-07
-2.60923e-07
-1.30251e-07
-2.18825e-07
-1.27572e-07
-1.783e-07
-1.22288e-07
-1.40174e-07
-1.14283e-07
-1.05269e-07
-1.03524e-07
-7.43739e-08
-9.01016e-08
-4.82023e-08
-7.42886e-08
-2.73442e-08
-5.66249e-08
-1.22255e-08
-3.80194e-08
-3.08215e-09
-1.98875e-08
-4.50376e-09
-4.18361e-09
8.81489e-09
-1.60124e-08
3.19628e-08
-3.49381e-08
5.71739e-08
-6.03936e-08
8.21717e-08
-9.17189e-08
1.05477e-07
-1.28156e-07
1.26116e-07
-1.6887e-07
1.43507e-07
-2.12975e-07
1.57363e-07
-2.59571e-07
1.67605e-07
-3.07765e-07
1.74303e-07
-3.567e-07
1.77623e-07
-4.05564e-07
1.77795e-07
-4.53607e-07
1.75083e-07
-5.00146e-07
1.6977e-07
-5.44564e-07
1.62137e-07
-5.86315e-07
1.52461e-07
-6.24919e-07
1.41005e-07
-6.5996e-07
1.28012e-07
-6.91081e-07
1.13708e-07
-7.1798e-07
9.83003e-08
-7.40408e-07
8.19782e-08
-7.58161e-07
6.49154e-08
-7.71081e-07
4.72731e-08
-7.79049e-07
2.92035e-08
-7.81992e-07
1.08524e-08
-7.7987e-07
-7.63636e-09
-7.72689e-07
-2.61178e-08
-7.60493e-07
-4.44421e-08
-7.43371e-07
-6.24513e-08
-7.21456e-07
-7.99761e-08
-6.94934e-07
-9.6833e-08
-6.64043e-07
-1.12822e-07
-6.2908e-07
-1.27726e-07
-5.90404e-07
-1.41306e-07
-5.48442e-07
-1.53308e-07
-5.03692e-07
-1.63458e-07
-4.56724e-07
-1.7147e-07
-4.08183e-07
-1.77047e-07
-3.58785e-07
-1.79892e-07
-3.09315e-07
-1.79721e-07
-2.60615e-07
-1.76272e-07
-2.13574e-07
-1.69329e-07
-1.69107e-07
-1.5875e-07
-1.28131e-07
-1.445e-07
-9.15374e-08
-1.26696e-07
-6.01554e-08
-1.05671e-07
-3.47252e-08
-8.20551e-08
-1.58767e-08
-5.6868e-08
-4.13577e-09
-3.16285e-08
-8.63953e-09
-5.1221e-09
1.3937e-08
-1.93536e-08
4.61944e-08
-4.17889e-08
7.96091e-08
-7.15776e-08
1.11961e-07
-1.07844e-07
1.41743e-07
-1.49667e-07
1.67938e-07
-1.9608e-07
1.8992e-07
-2.46093e-07
2.07377e-07
-2.98715e-07
2.20227e-07
-3.52971e-07
2.28559e-07
-4.07927e-07
2.32579e-07
-4.62703e-07
2.32571e-07
-5.16482e-07
2.28862e-07
-5.68519e-07
2.21807e-07
-6.18143e-07
2.11761e-07
-6.64757e-07
1.99075e-07
-7.07836e-07
1.84083e-07
-7.46923e-07
1.67098e-07
-7.81627e-07
1.48412e-07
-8.11616e-07
1.2829e-07
-8.36616e-07
1.06978e-07
-8.56402e-07
8.47016e-08
-8.708e-07
6.16714e-08
-8.79682e-07
3.80851e-08
-8.82963e-07
1.41332e-08
-8.80602e-07
-9.99686e-09
-8.72604e-07
-3.41159e-08
-8.59017e-07
-5.80286e-08
-8.39939e-07
-8.15293e-08
-8.15518e-07
-1.04398e-07
-7.85955e-07
-1.26396e-07
-7.51512e-07
-1.47264e-07
-7.12516e-07
-1.66722e-07
-6.69361e-07
-1.84462e-07
-6.22514e-07
-2.00155e-07
-5.7252e-07
-2.13453e-07
-5.20001e-07
-2.23988e-07
-4.65663e-07
-2.31385e-07
-4.10286e-07
-2.3527e-07
-3.54724e-07
-2.35283e-07
-2.99895e-07
-2.31101e-07
-2.46766e-07
-2.22458e-07
-1.96339e-07
-2.09177e-07
-1.49626e-07
-1.91213e-07
-1.07623e-07
-1.68698e-07
-7.12917e-08
-1.42002e-07
-4.15334e-08
-1.11813e-07
-1.91902e-08
-7.92112e-08
-5.06393e-09
-4.57547e-08
-1.37035e-08
-5.95181e-09
1.98888e-08
-2.23798e-08
6.26224e-08
-4.80854e-08
1.05315e-07
-8.19622e-08
1.45837e-07
-1.22924e-07
1.82705e-07
-1.69877e-07
2.14892e-07
-2.21722e-07
2.41764e-07
-2.77353e-07
2.63008e-07
-3.35685e-07
2.78558e-07
-3.9566e-07
2.88534e-07
-4.56272e-07
2.93192e-07
-5.16575e-07
2.92874e-07
-5.75694e-07
2.87981e-07
-6.32831e-07
2.78943e-07
-6.87266e-07
2.66196e-07
-7.38359e-07
2.50169e-07
-7.85548e-07
2.31272e-07
-8.28344e-07
2.09894e-07
-8.66326e-07
1.86394e-07
-8.9914e-07
1.61104e-07
-9.2649e-07
1.34328e-07
-9.48137e-07
1.06348e-07
-9.63891e-07
7.74261e-08
-9.73616e-07
4.78097e-08
-9.7722e-07
1.77367e-08
-9.74658e-07
-1.25585e-08
-9.65934e-07
-4.28396e-08
-9.511e-07
-7.28627e-08
-9.30259e-07
-1.02371e-07
-9.03567e-07
-1.31089e-07
-8.71242e-07
-1.58721e-07
-8.33563e-07
-1.84944e-07
-7.90878e-07
-2.09406e-07
-7.43611e-07
-2.31729e-07
-6.92262e-07
-2.51505e-07
-6.37414e-07
-2.683e-07
-5.79738e-07
-2.81664e-07
-5.19987e-07
-2.91136e-07
-4.59001e-07
-2.96255e-07
-3.97698e-07
-2.96586e-07
-3.37065e-07
-2.91734e-07
-2.78149e-07
-2.81373e-07
-2.22038e-07
-2.65288e-07
-1.69842e-07
-2.4341e-07
-1.22674e-07
-2.15866e-07
-8.16318e-08
-1.83045e-07
-4.77867e-08
-1.45659e-07
-2.21866e-08
-1.04811e-07
-5.88213e-09
-6.20592e-08
-1.95856e-08
-6.69524e-09
2.6584e-08
-2.51446e-08
8.10718e-08
-5.39118e-08
1.34082e-07
-9.16638e-08
1.83589e-07
-1.37114e-07
2.28155e-07
-1.89001e-07
2.66779e-07
-2.4608e-07
2.98843e-07
-3.07128e-07
3.24057e-07
-3.70958e-07
3.42388e-07
-4.36429e-07
3.54005e-07
-5.02458e-07
3.59221e-07
-5.68038e-07
3.58453e-07
-6.32235e-07
3.52179e-07
-6.94204e-07
3.40912e-07
-7.53183e-07
3.25175e-07
-8.08494e-07
3.0548e-07
-8.59544e-07
2.82322e-07
-9.05816e-07
2.56166e-07
-9.46866e-07
2.27445e-07
-9.82321e-07
1.96559e-07
-1.01187e-06
1.63876e-07
-1.03526e-06
1.29736e-07
-1.05229e-06
9.44561e-08
-1.06281e-06
5.83351e-08
-1.06674e-06
2.16607e-08
-1.06401e-06
-1.52838e-08
-1.05464e-06
-5.22127e-08
-1.03867e-06
-8.8831e-08
-1.01621e-06
-1.24828e-07
-9.8743e-07
-1.59872e-07
-9.52548e-07
-1.93603e-07
-9.1186e-07
-2.25632e-07
-8.65731e-07
-2.55535e-07
-8.14607e-07
-2.82853e-07
-7.59017e-07
-3.07095e-07
-6.99578e-07
-3.27739e-07
-6.36999e-07
-3.44243e-07
-5.72081e-07
-3.56053e-07
-5.05719e-07
-3.62618e-07
-4.38891e-07
-3.63415e-07
-3.72655e-07
-3.57969e-07
-3.08139e-07
-3.45889e-07
-2.46522e-07
-3.26906e-07
-1.89019e-07
-3.00912e-07
-1.36866e-07
-2.68018e-07
-9.13057e-08
-2.28605e-07
-5.3577e-08
-1.83387e-07
-2.49235e-08
-1.33465e-07
-6.614e-09
-8.03686e-08
-2.61996e-08
-7.37643e-09
3.39605e-08
-2.77158e-08
1.01411e-07
-5.93869e-08
1.65753e-07
-1.00856e-07
2.25058e-07
-1.50649e-07
2.77949e-07
-2.07338e-07
3.23467e-07
-2.69531e-07
3.61036e-07
-3.35881e-07
3.90407e-07
-4.05095e-07
4.11602e-07
-4.75941e-07
4.2485e-07
-5.4726e-07
4.30541e-07
-6.17978e-07
4.29171e-07
-6.87108e-07
4.21309e-07
-7.53756e-07
4.07561e-07
-8.17121e-07
3.8854e-07
-8.76492e-07
3.64852e-07
-9.31249e-07
3.37078e-07
-9.80851e-07
3.05768e-07
-1.02484e-06
2.71431e-07
-1.06282e-06
2.3454e-07
-1.09447e-06
1.95527e-07
-1.11953e-06
1.54795e-07
-1.13779e-06
1.12716e-07
-1.1491e-06
6.96434e-08
-1.15335e-06
2.5915e-08
-1.1505e-06
-1.81352e-08
-1.14054e-06
-6.21709e-08
-1.12353e-06
-1.05844e-07
-1.09957e-06
-1.4879e-07
-1.06882e-06
-1.90615e-07
-1.03153e-06
-2.30897e-07
-9.87988e-07
-2.69174e-07
-9.38577e-07
-3.04946e-07
-8.83759e-07
-3.37671e-07
-8.24087e-07
-3.66767e-07
-7.60207e-07
-3.91619e-07
-6.92866e-07
-4.11585e-07
-6.22909e-07
-4.2601e-07
-5.51283e-07
-4.34244e-07
-4.79029e-07
-4.35668e-07
-4.0728e-07
-4.29718e-07
-3.37246e-07
-4.15923e-07
-2.70206e-07
-3.93947e-07
-2.07487e-07
-3.63631e-07
-1.50456e-07
-3.25049e-07
-1.00502e-07
-2.78559e-07
-5.90327e-08
-2.24857e-07
-2.74733e-08
-1.65024e-07
-7.28486e-09
-1.00557e-07
-3.34844e-08
-8.0187e-09
4.19792e-08
-3.01657e-08
1.23558e-07
-6.46441e-08
2.00232e-07
-1.0974e-07
2.70154e-07
-1.63802e-07
3.32011e-07
-2.25236e-07
3.84902e-07
-2.92505e-07
4.28304e-07
-3.6413e-07
4.62032e-07
-4.38704e-07
4.86176e-07
-5.149e-07
5.01046e-07
-5.91479e-07
5.0712e-07
-6.67298e-07
5.04989e-07
-7.41312e-07
4.95324e-07
-8.12582e-07
4.78831e-07
-8.80269e-07
4.56226e-07
-9.43631e-07
4.28214e-07
-1.00202e-06
3.9547e-07
-1.05489e-06
3.58631e-07
-1.10174e-06
3.18288e-07
-1.14219e-06
2.7499e-07
-1.1759e-06
2.29237e-07
-1.2026e-06
1.81494e-07
-1.22208e-06
1.32192e-07
-1.23417e-06
8.17376e-08
-1.23878e-06
3.05209e-08
-1.23584e-06
-2.10737e-08
-1.22535e-06
-7.26584e-08
-1.20736e-06
-1.23833e-07
-1.18198e-06
-1.74174e-07
-1.14937e-06
-2.23229e-07
-1.10976e-06
-2.70507e-07
-1.06346e-06
-3.15473e-07
-1.01086e-06
-3.57547e-07
-9.52429e-07
-3.96097e-07
-8.88749e-07
-4.30447e-07
-8.20488e-07
-4.5988e-07
-7.48427e-07
-4.83646e-07
-6.73455e-07
-5.00981e-07
-5.96573e-07
-5.11127e-07
-5.18888e-07
-5.13353e-07
-4.4161e-07
-5.06996e-07
-3.66041e-07
-4.91492e-07
-2.93565e-07
-4.66423e-07
-2.25631e-07
-4.31565e-07
-1.63742e-07
-3.86938e-07
-1.09441e-07
-3.3286e-07
-6.42978e-08
-2.7e-07
-2.99133e-08
-1.99409e-07
-7.9194e-09
-1.22551e-07
-4.14038e-08
-8.64393e-09
5.06231e-08
-3.25658e-08
1.4748e-07
-6.98209e-08
2.37487e-07
-1.18527e-07
3.1886e-07
-1.76864e-07
3.90348e-07
-2.43072e-07
4.5111e-07
-3.15462e-07
5.00694e-07
-3.9242e-07
5.38991e-07
-4.72421e-07
5.66177e-07
-5.54033e-07
5.82659e-07
-6.35931e-07
5.89018e-07
-7.169e-07
5.85958e-07
-7.95837e-07
5.74261e-07
-8.71755e-07
5.54749e-07
-9.43777e-07
5.28248e-07
-1.01113e-06
4.9557e-07
-1.07316e-06
4.57492e-07
-1.12927e-06
4.14744e-07
-1.17899e-06
3.68005e-07
-1.2219e-06
3.17899e-07
-1.25766e-06
2.65e-07
-1.286e-06
2.09835e-07
-1.3067e-06
1.52895e-07
-1.3196e-06
9.46391e-08
-1.32459e-06
3.55101e-08
-1.32161e-06
-2.40574e-08
-1.31064e-06
-8.36248e-08
-1.29174e-06
-1.42738e-07
-1.26499e-06
-2.00919e-07
-1.23057e-06
-2.57651e-07
-1.1887e-06
-3.12375e-07
-1.1397e-06
-3.6448e-07
-1.08394e-06
-4.13299e-07
-1.02193e-06
-4.5811e-07
-9.54245e-07
-4.98133e-07
-8.81584e-07
-5.32541e-07
-8.04761e-07
-5.60469e-07
-7.2471e-07
-5.81032e-07
-6.42487e-07
-5.9335e-07
-5.59269e-07
-5.96571e-07
-4.7635e-07
-5.89915e-07
-3.9513e-07
-5.72712e-07
-3.17108e-07
-5.44445e-07
-2.43864e-07
-5.04809e-07
-1.77046e-07
-4.53756e-07
-1.18352e-07
-3.91554e-07
-6.95215e-08
-3.1883e-07
-3.23205e-08
-2.3661e-07
-8.54098e-09
-1.4633e-07
-4.99448e-08
-9.2724e-09
5.98955e-08
-3.49852e-08
1.73193e-07
-7.50536e-08
2.77555e-07
-1.27433e-07
3.7124e-07
-1.90133e-07
4.53048e-07
-2.6123e-07
5.22206e-07
-3.38875e-07
5.78339e-07
-4.21313e-07
6.21429e-07
-5.0689e-07
6.51754e-07
-5.94068e-07
6.69836e-07
-6.81427e-07
6.76377e-07
-7.67675e-07
6.72206e-07
-8.51649e-07
6.58235e-07
-9.32311e-07
6.35411e-07
-1.00875e-06
6.04684e-07
-1.08016e-06
5.66984e-07
-1.14587e-06
5.23196e-07
-1.20527e-06
4.74149e-07
-1.25788e-06
4.20615e-07
-1.30328e-06
3.63297e-07
-1.34112e-06
3.02844e-07
-1.37113e-06
2.39848e-07
-1.3931e-06
1.74857e-07
-1.40684e-06
1.08384e-07
-1.41226e-06
4.09241e-08
-1.40927e-06
-2.70406e-08
-1.39788e-06
-9.50215e-08
-1.3781e-06
-1.62513e-07
-1.35004e-06
-2.28978e-07
-1.31385e-06
-2.93841e-07
-1.26976e-06
-3.5647e-07
-1.21806e-06
-4.16178e-07
-1.15915e-06
-4.72207e-07
-1.09352e-06
-5.23737e-07
-1.02178e-06
-5.69878e-07
-9.44635e-07
-6.09685e-07
-8.62937e-07
-6.42167e-07
-7.77664e-07
-6.66306e-07
-6.8993e-07
-6.81083e-07
-6.00989e-07
-6.85513e-07
-5.12222e-07
-6.78682e-07
-4.25139e-07
-6.59794e-07
-3.41364e-07
-6.28221e-07
-2.62616e-07
-5.83557e-07
-1.90698e-07
-5.25675e-07
-1.27474e-07
-4.54778e-07
-7.48532e-08
-3.71451e-07
-3.47701e-08
-2.76693e-07
-9.17148e-09
-1.71929e-07
-5.91163e-08
-9.92304e-09
6.98186e-08
-3.74902e-08
2.0076e-07
-8.04754e-08
3.2054e-07
-1.36669e-07
4.27434e-07
-2.03909e-07
5.20287e-07
-2.80095e-07
5.98393e-07
-3.63218e-07
6.61462e-07
-4.51369e-07
7.09579e-07
-5.42759e-07
7.43145e-07
-6.35731e-07
7.62809e-07
-7.28768e-07
7.69413e-07
-8.20495e-07
7.63934e-07
-9.09684e-07
7.47424e-07
-9.95246e-07
7.20973e-07
-1.07623e-06
6.8567e-07
-1.15182e-06
6.42569e-07
-1.2213e-06
5.92675e-07
-1.28407e-06
5.36925e-07
-1.33964e-06
4.76183e-07
-1.38759e-06
4.11242e-07
-1.42756e-06
3.42822e-07
-1.4593e-06
2.71581e-07
-1.48257e-06
1.98126e-07
-1.4972e-06
1.23023e-07
-1.50309e-06
4.68134e-08
-1.50016e-06
-2.99724e-08
-1.48839e-06
-1.06799e-07
-1.46779e-06
-1.83109e-07
-1.43845e-06
-2.58313e-07
-1.40052e-06
-3.31771e-07
-1.35421e-06
-4.02782e-07
-1.29982e-06
-4.70575e-07
-1.23772e-06
-5.34304e-07
-1.16841e-06
-5.93041e-07
-1.09251e-06
-6.4578e-07
-1.01075e-06
-6.91448e-07
-9.24002e-07
-7.28913e-07
-8.33296e-07
-7.57011e-07
-7.39808e-07
-7.74571e-07
-6.44868e-07
-7.80453e-07
-5.49959e-07
-7.73591e-07
-4.56706e-07
-7.53046e-07
-3.66869e-07
-7.18058e-07
-2.82322e-07
-6.68105e-07
-2.05032e-07
-6.02964e-07
-1.37043e-07
-5.22767e-07
-8.0441e-08
-4.28053e-07
-3.73354e-08
-3.19799e-07
-9.83163e-09
-1.99433e-07
-6.8948e-08
-1.06137e-08
8.04323e-08
-4.01446e-08
2.30291e-07
-8.62161e-08
3.66612e-07
-1.46445e-07
4.87663e-07
-2.18485e-07
5.92327e-07
-3.00054e-07
6.79962e-07
-3.88965e-07
7.50373e-07
-4.83147e-07
8.03762e-07
-5.80666e-07
8.40663e-07
-6.79738e-07
8.6188e-07
-7.78737e-07
8.68413e-07
-8.76204e-07
8.61401e-07
-9.70841e-07
8.42061e-07
-1.06151e-06
8.11641e-07
-1.14722e-06
7.71381e-07
-1.22713e-06
7.22475e-07
-1.30051e-06
6.66056e-07
-1.36676e-06
6.03177e-07
-1.42538e-06
5.34802e-07
-1.47595e-06
4.61812e-07
-1.51813e-06
3.85003e-07
-1.55165e-06
3.051e-07
-1.57629e-06
2.22765e-07
-1.59188e-06
1.38615e-07
-1.5983e-06
5.32371e-08
-1.59548e-06
-3.2795e-08
-1.58338e-06
-1.18901e-07
-1.56201e-06
-2.04479e-07
-1.53144e-06
-2.88883e-07
-1.49179e-06
-3.71415e-07
-1.44327e-06
-4.51303e-07
-1.38615e-06
-5.27693e-07
-1.32081e-06
-5.99642e-07
-1.24774e-06
-6.66111e-07
-1.16755e-06
-7.2597e-07
-1.081e-06
-7.78004e-07
-9.88982e-07
-8.20929e-07
-8.92576e-07
-8.53417e-07
-7.9302e-07
-8.74126e-07
-6.91732e-07
-8.81741e-07
-5.90299e-07
-8.75024e-07
-4.90476e-07
-8.52869e-07
-3.9417e-07
-8.14363e-07
-3.03424e-07
-7.58851e-07
-2.20389e-07
-6.85999e-07
-1.47297e-07
-5.95858e-07
-8.64319e-08
-4.88919e-07
-4.00881e-08
-3.66142e-07
-1.05413e-08
-2.2898e-07
-7.94893e-08
-1.13616e-08
9.17939e-08
-4.30105e-08
2.6194e-07
-9.24032e-08
4.16005e-07
-1.56967e-07
5.52227e-07
-2.34155e-07
6.69515e-07
-3.21488e-07
7.67295e-07
-4.16586e-07
8.45471e-07
-5.17202e-07
9.04377e-07
-6.21242e-07
9.44704e-07
-7.26787e-07
9.67425e-07
-8.32097e-07
9.73723e-07
-9.35618e-07
9.64922e-07
-1.03598e-06
9.42425e-07
-1.132e-06
9.07658e-07
-1.22264e-06
8.62025e-07
-1.30705e-06
8.06878e-07
-1.38448e-06
7.43486e-07
-1.45433e-06
6.73027e-07
-1.5161e-06
5.96572e-07
-1.56938e-06
5.15093e-07
-1.61384e-06
4.29464e-07
-1.64921e-06
3.40474e-07
-1.67529e-06
2.48841e-07
-1.6919e-06
1.55227e-07
-1.69893e-06
6.02617e-08
-1.69628e-06
-3.54429e-08
-1.68391e-06
-1.31267e-07
-1.66183e-06
-2.26565e-07
-1.63007e-06
-3.20643e-07
-1.58874e-06
-4.12744e-07
-1.53802e-06
-5.02026e-07
-1.47816e-06
-5.87551e-07
-1.40952e-06
-6.68276e-07
-1.33259e-06
-7.43046e-07
-1.24797e-06
-8.10594e-07
-1.15642e-06
-8.69553e-07
-1.05887e-06
-9.18472e-07
-9.56452e-07
-9.55839e-07
-8.5046e-07
-9.80118e-07
-7.42403e-07
-9.89798e-07
-6.33984e-07
-9.83443e-07
-5.27099e-07
-9.59754e-07
-4.23819e-07
-9.17643e-07
-3.26372e-07
-8.56299e-07
-2.37109e-07
-7.75261e-07
-1.58478e-07
-6.7449e-07
-9.29737e-08
-5.54423e-07
-4.30997e-08
-4.16016e-07
-1.13203e-08
-2.60759e-07
-9.08096e-08
-1.21837e-08
1.03978e-07
-4.61495e-08
2.95906e-07
-9.91638e-08
4.69019e-07
-1.68441e-07
6.21504e-07
-2.51213e-07
7.52287e-07
-3.44778e-07
8.6086e-07
-4.46548e-07
9.4724e-07
-5.5408e-07
1.01191e-06
-6.65108e-07
1.05573e-06
-7.77563e-07
1.07988e-06
-8.89584e-07
1.08574e-06
-9.99518e-07
1.07486e-06
-1.10592e-06
1.04883e-06
-1.20756e-06
1.00929e-06
-1.30336e-06
9.57828e-07
-1.39244e-06
8.95963e-07
-1.47408e-06
8.25118e-07
-1.54765e-06
7.46601e-07
-1.61268e-06
6.61598e-07
-1.66876e-06
5.71175e-07
-1.71558e-06
4.76284e-07
-1.75288e-06
3.77778e-07
-1.78047e-06
2.76425e-07
-1.79817e-06
1.72931e-07
-1.80587e-06
6.79605e-08
-1.80347e-06
-3.78414e-08
-1.79092e-06
-1.43822e-07
-1.76818e-06
-2.49297e-07
-1.7353e-06
-3.53532e-07
-1.69233e-06
-4.55711e-07
-1.63943e-06
-5.54926e-07
-1.57682e-06
-6.50156e-07
-1.50485e-06
-7.40253e-07
-1.42395e-06
-8.23938e-07
-1.33475e-06
-8.99801e-07
-1.23799e-06
-9.66308e-07
-1.13464e-06
-1.02182e-06
-1.02586e-06
-1.06462e-06
-9.1301e-07
-1.09297e-06
-7.97703e-07
-1.10511e-06
-6.81763e-07
-1.09938e-06
-5.67237e-07
-1.07428e-06
-4.56379e-07
-1.0285e-06
-3.51622e-07
-9.61056e-07
-2.55544e-07
-8.71339e-07
-1.7083e-07
-7.59204e-07
-1.00217e-07
-6.25036e-07
-4.64431e-08
-4.6979e-07
-1.21884e-08
-2.95014e-07
-1.02998e-07
-1.3097e-08
1.17075e-07
-4.96239e-08
3.32433e-07
-1.06626e-07
5.26021e-07
-1.81075e-07
6.95953e-07
-2.69952e-07
8.41164e-07
-3.70308e-07
9.61216e-07
-4.79318e-07
1.05625e-06
-5.94325e-07
1.12692e-06
-7.12874e-07
1.17428e-06
-8.32733e-07
1.19974e-06
-9.51908e-07
1.20492e-06
-1.06865e-06
1.19159e-06
-1.18143e-06
1.16161e-06
-1.28896e-06
1.11682e-06
-1.39015e-06
1.05902e-06
-1.4841e-06
9.89915e-07
-1.57008e-06
9.11097e-07
-1.64749e-06
8.24014e-07
-1.71586e-06
7.29971e-07
-1.77482e-06
6.30133e-07
-1.82407e-06
5.2553e-07
-1.86337e-06
4.17075e-07
-1.89253e-06
3.05584e-07
-1.91139e-06
1.91799e-07
-1.91984e-06
7.64118e-08
-1.91778e-06
-3.99059e-08
-1.90513e-06
-1.56476e-07
-1.88184e-06
-2.72587e-07
-1.8479e-06
-3.87463e-07
-1.80337e-06
-5.00244e-07
-1.74834e-06
-6.09953e-07
-1.68301e-06
-7.15488e-07
-1.60767e-06
-8.15593e-07
-1.52275e-06
-9.08862e-07
-1.42882e-06
-9.93728e-07
-1.32665e-06
-1.06848e-06
-1.21721e-06
-1.13126e-06
-1.10169e-06
-1.18014e-06
-9.81541e-07
-1.21312e-06
-8.58452e-07
-1.22819e-06
-7.34387e-07
-1.22345e-06
-6.11561e-07
-1.19711e-06
-4.92426e-07
-1.14764e-06
-3.79647e-07
-1.07384e-06
-2.76057e-07
-9.74929e-07
-1.84609e-07
-8.50652e-07
-1.08319e-07
-7.01326e-07
-5.01939e-08
-5.27915e-07
-1.31663e-08
-3.32041e-07
-1.16164e-07
-1.41194e-08
1.31194e-07
-5.34981e-08
3.71811e-07
-1.14923e-07
5.87446e-07
-1.95084e-07
7.76114e-07
-2.90675e-07
9.36755e-07
-3.98466e-07
1.06901e-06
-5.15366e-07
1.17315e-06
-6.3848e-07
1.25003e-06
-7.65141e-07
1.30094e-06
-8.92943e-07
1.32754e-06
-1.01975e-06
1.33172e-06
-1.1437e-06
1.31554e-06
-1.26319e-06
1.28111e-06
-1.37689e-06
1.23052e-06
-1.48369e-06
1.16581e-06
-1.58267e-06
1.0889e-06
-1.67312e-06
1.00155e-06
-1.75446e-06
9.05355e-07
-1.82625e-06
8.01758e-07
-1.88814e-06
6.92021e-07
-1.93986e-06
5.77249e-07
-1.9812e-06
4.58415e-07
-2.01199e-06
3.36375e-07
-2.03208e-06
2.11898e-07
-2.04137e-06
8.56968e-08
-2.03973e-06
-4.15413e-08
-2.02709e-06
-1.69124e-07
-2.00335e-06
-2.96319e-07
-1.96849e-06
-4.22323e-07
-1.9225e-06
-5.46234e-07
-1.86544e-06
-6.67016e-07
-1.79745e-06
-7.83483e-07
-1.71876e-06
-8.94277e-07
-1.62977e-06
-9.97852e-07
-1.53103e-06
-1.09248e-06
-1.42326e-06
-1.17624e-06
-1.30746e-06
-1.24707e-06
-1.18484e-06
-1.30276e-06
-1.05691e-06
-1.34105e-06
-9.25465e-07
-1.35964e-06
-7.92615e-07
-1.3563e-06
-6.60753e-07
-1.32897e-06
-5.32553e-07
-1.27584e-06
-4.10936e-07
-1.19545e-06
-2.99024e-07
-1.08684e-06
-2.00082e-07
-9.49593e-07
-1.17444e-07
-7.83965e-07
-5.44322e-08
-5.90927e-07
-1.4276e-08
-3.72197e-07
-1.3044e-07
-1.52696e-08
1.46464e-07
-5.78399e-08
4.14382e-07
-1.24192e-07
6.53798e-07
-2.10688e-07
8.62611e-07
-3.1369e-07
1.03976e-06
-4.29646e-07
1.18496e-06
-5.55165e-07
1.29867e-06
-6.87082e-07
1.38195e-06
-8.22498e-07
1.43636e-06
-9.58814e-07
1.46386e-06
-1.09374e-06
1.46665e-06
-1.22531e-06
1.44711e-06
-1.35185e-06
1.40765e-06
-1.47198e-06
1.35065e-06
-1.58456e-06
1.2784e-06
-1.6887e-06
1.19304e-06
-1.78369e-06
1.09654e-06
-1.86901e-06
9.90668e-07
-1.94423e-06
8.76982e-07
-2.00906e-06
7.56849e-07
-2.06327e-06
6.31454e-07
-2.10667e-06
5.01818e-07
-2.13913e-06
3.68832e-07
-2.16051e-06
2.33285e-07
-2.17071e-06
9.58968e-08
-2.16961e-06
-4.26425e-08
-2.1571e-06
-1.81637e-07
-2.13307e-06
-3.20348e-07
-2.09744e-06
-4.57956e-07
-2.05015e-06
-5.93524e-07
-1.99119e-06
-7.25967e-07
-1.92066e-06
-8.54021e-07
-1.83871e-06
-9.7622e-07
-1.74569e-06
-1.09088e-06
-1.64207e-06
-1.19609e-06
-1.52858e-06
-1.28973e-06
-1.40617e-06
-1.36947e-06
-1.2761e-06
-1.43284e-06
-1.13992e-06
-1.47723e-06
-9.99541e-07
-1.50001e-06
-8.57206e-07
-1.49863e-06
-7.15509e-07
-1.47067e-06
-5.77368e-07
-1.41398e-06
-4.45996e-07
-1.32682e-06
-3.24845e-07
-1.20799e-06
-2.17534e-07
-1.0569e-06
-1.27769e-07
-8.73729e-07
-5.92443e-08
-6.59452e-07
-1.55415e-08
-4.159e-07
-1.45982e-07
-1.65678e-08
1.63031e-07
-6.27217e-08
4.60536e-07
-1.34581e-07
7.25657e-07
-2.28122e-07
9.56152e-07
-3.39321e-07
1.15096e-06
-4.64255e-07
1.3099e-06
-5.99193e-07
1.43361e-06
-7.40664e-07
1.52342e-06
-8.85514e-07
1.58121e-06
-1.03093e-06
1.60928e-06
-1.17448e-06
1.6102e-06
-1.31406e-06
1.58669e-06
-1.44793e-06
1.54152e-06
-1.57468e-06
1.4774e-06
-1.69318e-06
1.39689e-06
-1.80254e-06
1.3024e-06
-1.90209e-06
1.1961e-06
-1.99136e-06
1.07993e-06
-2.06998e-06
9.55603e-07
-2.13771e-06
8.24576e-07
-2.19436e-06
6.88107e-07
-2.23981e-06
5.47266e-07
-2.27394e-06
4.02966e-07
-2.29666e-06
2.56002e-07
-2.30785e-06
1.07089e-07
-2.3074e-06
-4.30949e-08
-2.29517e-06
-1.93866e-07
-2.27102e-06
-3.44494e-07
-2.23482e-06
-4.94157e-07
-2.18645e-06
-6.41898e-07
-2.12583e-06
-7.8659e-07
-2.05295e-06
-9.26901e-07
-1.96791e-06
-1.06126e-06
-1.87095e-06
-1.18784e-06
-1.76251e-06
-1.30454e-06
-1.64323e-06
-1.40901e-06
-1.51405e-06
-1.49866e-06
-1.37622e-06
-1.57066e-06
-1.23136e-06
-1.62209e-06
-1.08145e-06
-1.64992e-06
-9.28908e-07
-1.65118e-06
-7.76527e-07
-1.62305e-06
-6.27498e-07
-1.56301e-06
-4.8536e-07
-1.46896e-06
-3.53939e-07
-1.33941e-06
-2.37267e-07
-1.17358e-06
-1.39485e-07
-9.71512e-07
-6.47239e-08
-7.34213e-07
-1.69888e-08
-4.63635e-07
-1.62971e-07
-1.80363e-08
1.81068e-07
-6.82216e-08
5.10721e-07
-1.46244e-07
8.0368e-07
-2.47629e-07
1.05754e-06
-3.679e-07
1.27123e-06
-5.02707e-07
1.4447e-06
-6.47927e-07
1.57883e-06
-7.99749e-07
1.67524e-06
-9.54732e-07
1.73619e-06
-1.10984e-06
1.76439e-06
-1.26246e-06
1.76282e-06
-1.4104e-06
1.73463e-06
-1.55184e-06
1.68296e-06
-1.68534e-06
1.6109e-06
-1.80979e-06
1.52134e-06
-1.92434e-06
1.41695e-06
-2.02838e-06
1.30014e-06
-2.12149e-06
1.17304e-06
-2.20338e-06
1.0375e-06
-2.27389e-06
8.95079e-07
-2.33289e-06
7.47107e-07
-2.38031e-06
5.94687e-07
-2.41608e-06
4.38743e-07
-2.44015e-06
2.80063e-07
-2.4524e-06
1.1934e-07
-2.45272e-06
-4.27769e-08
-2.44095e-06
-2.05637e-07
-2.41691e-06
-3.68535e-07
-2.3804e-06
-5.30663e-07
-2.33123e-06
-6.91064e-07
-2.26924e-06
-8.48581e-07
-2.19432e-06
-1.00182e-06
-2.10646e-06
-1.14912e-06
-2.0058e-06
-1.28849e-06
-1.89267e-06
-1.41767e-06
-1.76766e-06
-1.53403e-06
-1.63163e-06
-1.63468e-06
-1.48583e-06
-1.71646e-06
-1.3319e-06
-1.77602e-06
-1.17192e-06
-1.8099e-06
-1.00844e-06
-1.81465e-06
-8.44502e-07
-1.78699e-06
-6.83578e-07
-1.72393e-06
-5.29575e-07
-1.62297e-06
-3.86746e-07
-1.48224e-06
-2.59604e-07
-1.30072e-06
-1.52796e-07
-1.07832e-06
-7.09734e-08
-8.16035e-07
-1.8647e-08
-5.15962e-07
-1.81618e-07
-1.96996e-08
2.00767e-07
-7.44247e-08
5.65446e-07
-1.59352e-07
8.88607e-07
-2.69469e-07
1.16765e-06
-3.99776e-07
1.40153e-06
-5.45423e-07
1.59035e-06
-7.01842e-07
1.73525e-06
-8.64837e-07
1.83823e-06
-1.03065e-06
1.902e-06
-1.19601e-06
1.92974e-06
-1.35812e-06
1.92493e-06
-1.51467e-06
1.89118e-06
-1.66381e-06
1.8321e-06
-1.80408e-06
1.75118e-06
-1.93441e-06
1.65166e-06
-2.05399e-06
1.53653e-06
-2.16232e-06
1.40846e-06
-2.25904e-06
1.26976e-06
-2.34397e-06
1.12243e-06
-2.41703e-06
9.68138e-07
-2.47819e-06
8.08263e-07
-2.52744e-06
6.43935e-07
-2.56477e-06
4.76077e-07
-2.59016e-06
3.05449e-07
-2.60352e-06
1.32703e-07
-2.60473e-06
-4.15633e-08
-2.59362e-06
-2.1675e-07
-2.56995e-06
-3.92202e-07
-2.53347e-06
-5.67147e-07
-2.48389e-06
-7.40646e-07
-2.42094e-06
-9.11532e-07
-2.34439e-06
-1.07837e-06
-2.25412e-06
-1.23939e-06
-2.15013e-06
-1.39249e-06
-2.03262e-06
-1.53518e-06
-1.90206e-06
-1.66459e-06
-1.75925e-06
-1.77749e-06
-1.60538e-06
-1.87033e-06
-1.4421e-06
-1.9393e-06
-1.27157e-06
-1.98043e-06
-1.09648e-06
-1.98973e-06
-9.20104e-07
-1.96337e-06
-7.4624e-07
-1.89779e-06
-5.79202e-07
-1.79e-06
-4.2373e-07
-1.63771e-06
-2.84888e-07
-1.43956e-06
-1.67924e-07
-1.19528e-06
-7.81047e-08
-9.05854e-07
-2.05483e-08
-5.73518e-07
-2.02166e-07
-2.15845e-08
2.22352e-07
-8.14238e-08
6.25285e-07
-1.74083e-07
9.81267e-07
-2.93918e-07
1.28749e-06
-4.35307e-07
1.54292e-06
-5.92829e-07
1.74787e-06
-7.614e-07
1.90382e-06
-9.36393e-07
2.01323e-06
-1.1137e-06
2.07932e-06
-1.2898e-06
2.10584e-06
-1.46171e-06
2.09684e-06
-1.62703e-06
2.0565e-06
-1.78385e-06
1.98893e-06
-1.93076e-06
1.89808e-06
-2.06672e-06
1.78762e-06
-2.19103e-06
1.66085e-06
-2.30328e-06
1.52071e-06
-2.40323e-06
1.36972e-06
-2.49083e-06
1.21003e-06
-2.56611e-06
1.04341e-06
-2.62912e-06
8.71277e-07
-2.67996e-06