/*--------------------------------*- C++ -*----------------------------------*\
  =========                 |
  \\      /  F ield         | OpenFOAM: The Open Source CFD Toolbox
   \\    /   O peration     | Website:  https://openfoam.org
    \\  /    A nd           | Version:  7
     \\/     M anipulation  |
\*---------------------------------------------------------------------------*/
FoamFile
{
    version     2.0;
    format      ascii;
    class       surfaceScalarField;
    location    "0.0684";
    object      phi;
}
// * * * * * * * * * * * * * * * * * * * * * * * * * * * * * * * * * * * * * //

dimensions      [0 3 -1 0 0 0 0];

internalField   nonuniform List<scalar> 
4900
(
1.13225e-09
-1.1304e-09
2.29279e-09
-1.1606e-09
2.35317e-09
-6.02008e-11
9.1514e-10
1.43806e-09
-2.09997e-09
3.01503e-09
-6.60834e-09
4.50831e-09
-1.24467e-08
5.83833e-09
-1.94161e-08
6.96945e-09
-2.73049e-08
7.88878e-09
-3.58998e-08
8.59484e-09
-4.49921e-08
9.09238e-09
-5.43819e-08
9.38977e-09
-6.38794e-08
9.49751e-09
-7.33068e-08
9.4274e-09
-8.24988e-08
9.19197e-09
-9.1303e-08
8.80422e-09
-9.95803e-08
8.27732e-09
-1.07205e-07
7.62458e-09
-1.14064e-07
6.85939e-09
-1.20059e-07
5.99515e-09
-1.25105e-07
5.04539e-09
-1.29129e-07
4.02374e-09
-1.32073e-07
2.94409e-09
-1.33893e-07
1.82056e-09
-1.34561e-07
6.67638e-10
-1.34061e-07
-4.99779e-10
-1.32395e-07
-1.66634e-09
-1.29579e-07
-2.81622e-09
-1.25645e-07
-3.93311e-09
-1.20645e-07
-5.00031e-09
-1.14644e-07
-6.00073e-09
-1.07727e-07
-6.91707e-09
-9.99953e-08
-7.73194e-09
-9.15673e-08
-8.42804e-09
-8.25788e-08
-8.98845e-09
-7.3182e-08
-9.39681e-09
-6.35443e-08
-9.63772e-09
-5.38473e-08
-9.69699e-09
-4.42851e-08
-9.56211e-09
-3.50624e-08
-9.22267e-09
-2.63915e-08
-8.67096e-09
-1.84886e-08
-7.90284e-09
-1.15696e-08
-6.91908e-09
-5.84169e-09
-5.72789e-09
-1.49175e-09
-4.34995e-09
1.33805e-09
-2.82978e-09
2.5923e-09
-1.25424e-09
2.37014e-09
2.22188e-10
1.12885e-09
1.24129e-09
1.12886e-09
1.17315e-09
-2.30362e-09
1.30637e-09
-1.29358e-09
-1.2353e-09
2.48159e-09
-7.22307e-09
7.42582e-09
-1.68886e-08
1.26805e-08
-3.01231e-08
1.77427e-08
-4.66138e-08
2.2329e-08
-6.59314e-08
2.62871e-08
-8.75843e-08
2.95418e-08
-1.11053e-07
3.2064e-08
-1.35814e-07
3.38531e-08
-1.61351e-07
3.49263e-08
-1.87166e-07
3.53125e-08
-2.12786e-07
3.50482e-08
-2.37769e-07
3.41747e-08
-2.61701e-07
3.27367e-08
-2.84205e-07
3.07808e-08
-3.04935e-07
2.83551e-08
-3.23585e-07
2.55088e-08
-3.39881e-07
2.22916e-08
-3.5359e-07
1.87543e-08
-3.64515e-07
1.49482e-08
-3.72496e-07
1.09258e-08
-3.77416e-07
6.74049e-09
-3.79196e-07
2.44719e-09
-3.77798e-07
-1.89783e-09
-3.73227e-07
-6.23673e-09
-3.65534e-07
-1.05101e-08
-3.5481e-07
-1.46569e-08
-3.41195e-07
-1.8615e-08
-3.24875e-07
-2.23212e-08
-3.0608e-07
-2.57118e-08
-2.85089e-07
-2.8723e-08
-2.62225e-07
-3.12921e-08
-2.37855e-07
-3.33583e-08
-2.12389e-07
-3.48632e-08
-1.86273e-07
-3.57531e-08
-1.59991e-07
-3.59795e-08
-1.34051e-07
-3.55015e-08
-1.08987e-07
-3.42875e-08
-8.53394e-08
-3.23182e-08
-6.36516e-08
-2.95906e-08
-4.44468e-08
-2.61239e-08
-2.82057e-08
-2.1969e-08
-1.53304e-08
-1.72252e-08
-6.09086e-09
-1.20693e-08
-5.39411e-10
-6.80571e-09
1.63758e-09
-1.95482e-09
1.25268e-09
1.62617e-09
2.38154e-09
1.20289e-10
-2.42373e-09
-2.37424e-09
1.20094e-09
-9.05774e-09
9.165e-09
-2.07223e-08
1.90903e-08
-3.7611e-08
2.95691e-08
-5.95785e-08
3.97102e-08
-8.62119e-08
4.89625e-08
-1.16927e-07
5.70019e-08
-1.51035e-07
6.36496e-08
-1.87792e-07
6.8821e-08
-2.26432e-07
7.24936e-08
-2.66193e-07
7.46869e-08
-3.06328e-07
7.54483e-08
-3.46125e-07
7.48447e-08
-3.84906e-07
7.29563e-08
-4.22042e-07
6.98723e-08
-4.56949e-07
6.56882e-08
-4.89098e-07
6.05039e-08
-5.18012e-07
5.44225e-08
-5.4327e-07
4.75497e-08
-5.64509e-07
3.99935e-08
-5.81425e-07
3.18639e-08
-5.93773e-07
2.32734e-08
-6.01369e-07
1.43371e-08
-6.04095e-07
5.1728e-09
-6.01894e-07
-4.09865e-09
-5.94777e-07
-1.33532e-08
-5.82824e-07
-2.24638e-08
-5.6618e-07
-3.13005e-08
-5.45064e-07
-3.97309e-08
-5.19764e-07
-4.7621e-08
-4.9064e-07
-5.48364e-08
-4.58119e-07
-6.12434e-08
-4.22701e-07
-6.67106e-08
-3.84947e-07
-7.11117e-08
-3.45484e-07
-7.43268e-08
-3.0499e-07
-7.62465e-08
-2.64196e-07
-7.67743e-08
-2.23866e-07
-7.58309e-08
-1.84794e-07
-7.33593e-08
-1.47782e-07
-6.93311e-08
-1.13617e-07
-6.37549e-08
-8.30519e-08
-5.66893e-08
-5.67597e-08
-4.82612e-08
-3.52893e-08
-3.86956e-08
-1.89963e-08
-2.83623e-08
-7.94933e-09
-1.78527e-08
-1.81834e-09
-8.0858e-09
2.84139e-10
-4.76313e-10
2.66567e-09
-1.33749e-09
-1.08614e-09
-7.2454e-09
7.10877e-09
-1.89185e-08
2.0838e-08
-3.69546e-08
3.71263e-08
-6.14841e-08
5.40985e-08
-9.22639e-08
7.04901e-08
-1.28773e-07
8.54717e-08
-1.70295e-07
9.85243e-08
-2.15987e-07
1.09341e-07
-2.64929e-07
1.17763e-07
-3.16166e-07
1.23731e-07
-3.68738e-07
1.27258e-07
-4.21698e-07
1.28409e-07
-4.74135e-07
1.27282e-07
-5.25181e-07
1.24003e-07
-5.74023e-07
1.18714e-07
-6.19907e-07
1.11572e-07
-6.62143e-07
1.02741e-07
-7.00114e-07
9.23929e-08
-7.3327e-07
8.07064e-08
-7.6114e-07
6.78632e-08
-7.83326e-07
5.405e-08
-7.99511e-07
3.94579e-08
-8.09456e-07
2.42825e-08
-8.13007e-07
8.72417e-09
-8.10094e-07
-7.01164e-09
-8.00733e-07
-2.27144e-08
-7.85028e-07
-3.81687e-08
-7.63174e-07
-5.31548e-08
-7.35456e-07
-6.74493e-08
-7.0225e-07
-8.08269e-08
-6.64024e-07
-9.30619e-08
-6.21337e-07
-1.03931e-07
-5.74832e-07
-1.13215e-07
-5.25238e-07
-1.20706e-07
-4.73359e-07
-1.26206e-07
-4.20068e-07
-1.29537e-07
-3.66297e-07
-1.30545e-07
-3.13022e-07
-1.29106e-07
-2.61245e-07
-1.25136e-07
-2.11973e-07
-1.18602e-07
-1.66193e-07
-1.09535e-07
-1.24833e-07
-9.80491e-08
-8.87233e-08
-8.43714e-08
-5.85387e-08
-6.88801e-08
-3.47354e-08
-5.21657e-08
-1.74676e-08
-3.51205e-08
-6.49878e-09
-1.90546e-08
-1.11847e-09
-5.85663e-09
1.54719e-09
-2.8971e-09
1.81093e-09
-1.2556e-08
1.67676e-08
-2.96399e-08
3.79218e-08
-5.44331e-08
6.19195e-08
-8.68548e-08
8.65202e-08
-1.26505e-07
1.1014e-07
-1.72727e-07
1.31694e-07
-2.24671e-07
1.50468e-07
-2.81354e-07
1.66024e-07
-3.41706e-07
1.78116e-07
-4.04616e-07
1.86641e-07
-4.6896e-07
1.91602e-07
-5.33628e-07
1.93076e-07
-5.97544e-07
1.91198e-07
-6.59681e-07
1.8614e-07
-7.19072e-07
1.78105e-07
-7.7482e-07
1.6732e-07
-8.26104e-07
1.54024e-07
-8.72183e-07
1.38472e-07
-9.12402e-07
1.20925e-07
-9.46195e-07
1.01656e-07
-9.73087e-07
8.09419e-08
-9.92697e-07
5.90682e-08
-1.00474e-06
3.63275e-08
-1.00904e-06
1.30192e-08
-1.0055e-06
-1.05495e-08
-9.94149e-07
-3.40644e-08
-9.75113e-07
-5.72044e-08
-9.48626e-07
-7.96421e-08
-9.15029e-07
-1.01046e-07
-8.74775e-07
-1.21081e-07
-8.28422e-07
-1.39415e-07
-7.76636e-07
-1.55717e-07
-7.20185e-07
-1.69666e-07
-6.59934e-07
-1.80956e-07
-5.9684e-07
-1.89301e-07
-5.31934e-07
-1.94443e-07
-4.66319e-07
-1.96161e-07
-4.01141e-07
-1.94284e-07
-3.37579e-07
-1.88699e-07
-2.7681e-07
-1.79371e-07
-2.19986e-07
-1.66359e-07
-1.68189e-07
-1.49846e-07
-1.22391e-07
-1.30169e-07
-8.34002e-08
-1.07871e-07
-5.18032e-08
-8.37627e-08
-2.79007e-08
-5.9023e-08
-1.16505e-08
-3.53048e-08
-2.626e-09
-1.48812e-08
-1.07882e-09
-4.436e-09
6.24685e-09
-1.79179e-08
3.02494e-08
-4.05621e-08
6.0566e-08
-7.22743e-08
9.36317e-08
-1.12701e-07
1.26947e-07
-1.61236e-07
1.58675e-07
-2.17055e-07
1.87513e-07
-2.79162e-07
2.12575e-07
-3.46431e-07
2.33294e-07
-4.17657e-07
2.49341e-07
-4.91586e-07
2.6057e-07
-5.66954e-07
2.6697e-07
-6.42512e-07
2.68634e-07
-7.17044e-07
2.6573e-07
-7.8939e-07
2.58486e-07
-8.58455e-07
2.4717e-07
-9.23221e-07
2.32085e-07
-9.82754e-07
2.13557e-07
-1.03621e-06
1.9193e-07
-1.08285e-06
1.67564e-07
-1.12202e-06
1.40829e-07
-1.15319e-06
1.12108e-07
-1.17592e-06
8.17947e-08
-1.18988e-06
5.02909e-08
-1.19487e-06
1.80094e-08
-1.19079e-06
-1.46268e-08
-1.17767e-06
-4.71852e-08
-1.15565e-06
-7.92244e-08
-1.125e-06
-1.10295e-07
-1.0861e-06
-1.39942e-07
-1.03948e-06
-1.67707e-07
-9.85756e-07
-1.93135e-07
-9.25697e-07
-2.15776e-07
-8.60171e-07
-2.35193e-07
-7.90157e-07
-2.50969e-07
-7.16738e-07
-2.6272e-07
-6.41083e-07
-2.70098e-07
-5.64434e-07
-2.7281e-07
-4.88088e-07
-2.7063e-07
-4.13371e-07
-2.63416e-07
-3.41613e-07
-2.51129e-07
-2.74113e-07
-2.3386e-07
-2.121e-07
-2.1186e-07
-1.5669e-07
-1.85579e-07
-1.08843e-07
-1.55718e-07
-6.93066e-08
-1.23299e-07
-3.85796e-08
-8.975e-08
-1.68756e-08
-5.70088e-08
-4.11988e-09
-2.76369e-08
-5.19871e-09
-5.90534e-09
1.21522e-08
-2.31526e-08
4.74965e-08
-5.13462e-08
8.87597e-08
-8.99955e-08
1.32281e-07
-1.3844e-07
1.75391e-07
-1.95833e-07
2.16068e-07
-2.61156e-07
2.52836e-07
-3.33246e-07
2.84665e-07
-4.10828e-07
3.10877e-07
-4.92559e-07
3.31072e-07
-5.77053e-07
3.45064e-07
-6.62917e-07
3.52835e-07
-7.48778e-07
3.54495e-07
-8.333e-07
3.50253e-07
-9.15209e-07
3.40394e-07
-9.93298e-07
3.2526e-07
-1.06645e-06
3.05236e-07
-1.13363e-06
2.80741e-07
-1.19392e-06
2.5222e-07
-1.2465e-06
2.20137e-07
-1.29064e-06
1.84974e-07
-1.32576e-06
1.47229e-07
-1.35138e-06
1.07413e-07
-1.36714e-06
6.60494e-08
-1.37281e-06
2.36757e-08
-1.36827e-06
-1.91577e-08
-1.35357e-06
-6.18883e-08
-1.32885e-06
-1.03942e-07
-1.29441e-06
-1.44735e-07
-1.25068e-06
-1.83676e-07
-1.19821e-06
-2.20173e-07
-1.13772e-06
-2.53634e-07
-1.07001e-06
-2.83478e-07
-9.96065e-07
-3.09141e-07
-9.16949e-07
-3.30086e-07
-8.33853e-07
-3.45816e-07
-7.48063e-07
-3.55888e-07
-6.60945e-07
-3.59928e-07
-5.73926e-07
-3.57648e-07
-4.8847e-07
-3.48872e-07
-4.06044e-07
-3.33554e-07
-3.28093e-07
-3.11812e-07
-2.55992e-07
-2.8396e-07
-1.91016e-07
-2.50555e-07
-1.34293e-07
-2.12442e-07
-8.6765e-08
-1.70826e-07
-4.91636e-08
-1.27351e-07
-2.19931e-08
-8.41794e-08
-5.54996e-09
-4.408e-08
-1.07487e-08
-7.29504e-09
1.94472e-08
-2.81972e-08
6.83986e-08
-6.18504e-08
1.22413e-07
-1.07375e-07
1.77806e-07
-1.63791e-07
2.31807e-07
-2.29989e-07
2.82267e-07
-3.04735e-07
3.27581e-07
-3.86679e-07
3.66609e-07
-4.7439e-07
3.98588e-07
-5.66379e-07
4.2306e-07
-6.61128e-07
4.39813e-07
-7.57125e-07
4.48831e-07
-8.52878e-07
4.50248e-07
-9.46947e-07
4.44321e-07
-1.03795e-06
4.31399e-07
-1.1246e-06
4.11903e-07
-1.20567e-06
3.86309e-07
-1.28006e-06
3.55137e-07
-1.34678e-06
3.18938e-07
-1.40494e-06
2.78291e-07
-1.45376e-06
2.33797e-07
-1.49261e-06
1.86078e-07
-1.52096e-06
1.3577e-07
-1.53844e-06
8.35285e-08
-1.54479e-06
3.00246e-08
-1.5399e-06
-2.40546e-08
-1.52378e-06
-7.80067e-08
-1.4966e-06
-1.31115e-07
-1.45869e-06
-1.82652e-07
-1.41048e-06
-2.31881e-07
-1.35259e-06
-2.78062e-07
-1.28577e-06
-3.20458e-07
-1.2109e-06
-3.58347e-07
-1.12902e-06
-3.91025e-07
-1.04128e-06
-4.17825e-07
-9.48962e-07
-4.3813e-07
-8.5346e-07
-4.51389e-07
-7.5625e-07
-4.57138e-07
-6.58878e-07
-4.5502e-07
-5.62936e-07
-4.44815e-07
-4.70028e-07
-4.26461e-07
-3.81745e-07
-4.00095e-07
-2.99619e-07
-3.66086e-07
-2.25095e-07
-3.25078e-07
-1.59492e-07
-2.78045e-07
-1.0397e-07
-2.26348e-07
-5.95171e-08
-1.71805e-07
-2.69416e-08
-1.16755e-07
-6.90511e-09
-6.41165e-08
-1.76538e-08
-8.61243e-09
2.80597e-08
-3.30492e-08
9.28353e-08
-7.2045e-08
1.61409e-07
-1.24351e-07
2.30112e-07
-1.88665e-07
2.96121e-07
-2.63605e-07
3.57207e-07
-3.47704e-07
4.1168e-07
-4.39414e-07
4.5832e-07
-5.37132e-07
4.96306e-07
-6.39217e-07
5.25145e-07
-7.4402e-07
5.44616e-07
-8.49904e-07
5.54715e-07
-9.55271e-07
5.55615e-07
-1.05858e-06
5.47628e-07
-1.15835e-06
5.31175e-07
-1.25322e-06
5.06767e-07
-1.34188e-06
4.74976e-07
-1.42318e-06
4.3643e-07
-1.49603e-06
3.91796e-07
-1.55952e-06
3.41774e-07
-1.61281e-06
2.87091e-07
-1.65523e-06
2.28499e-07
-1.68623e-06
1.66769e-07
-1.7054e-06
1.02694e-07
-1.71246e-06
3.7085e-08
-1.70729e-06
-2.92257e-08
-1.6899e-06
-9.53884e-08
-1.66048e-06
-1.60537e-07
-1.61935e-06
-2.2379e-07
-1.56697e-06
-2.84257e-07
-1.50399e-06
-3.41043e-07
-1.43119e-06
-3.93257e-07
-1.34952e-06
-4.40022e-07
-1.26005e-06
-4.80487e-07
-1.16403e-06
-5.13845e-07
-1.06282e-06
-5.39346e-07
-9.57885e-07
-5.56321e-07
-8.50818e-07
-5.64205e-07
-7.43279e-07
-5.6256e-07
-6.36984e-07
-5.51109e-07
-5.33679e-07
-5.29766e-07
-4.35104e-07
-4.98671e-07
-3.42961e-07
-4.58229e-07
-2.5888e-07
-4.09159e-07
-1.84388e-07
-3.52537e-07
-1.20884e-07
-2.89852e-07
-6.9623e-08
-2.23065e-07
-3.17239e-08
-1.54654e-07
-8.19375e-09
-8.76466e-08
-2.58475e-08
-9.87131e-09
3.79311e-08
-3.77352e-08
1.20699e-07
-8.19608e-08
2.05635e-07
-1.40951e-07
2.89102e-07
-2.13088e-07
3.68258e-07
-2.96712e-07
4.40831e-07
-3.90112e-07
5.05079e-07
-4.9153e-07
5.59738e-07
-5.99181e-07
6.03956e-07
-7.11265e-07
6.37229e-07
-8.25994e-07
6.59345e-07
-9.41609e-07
6.70331e-07
-1.05641e-06
6.70411e-07
-1.16874e-06
6.59965e-07
-1.27707e-06
6.39499e-07
-1.37992e-06
6.09618e-07
-1.47594e-06
5.71004e-07
-1.56391e-06
5.24398e-07
-1.64271e-06
4.70592e-07
-1.71135e-06
4.10412e-07
-1.76897e-06
3.44718e-07
-1.81487e-06
2.74396e-07
-1.84846e-06
2.0036e-07
-1.86931e-06
1.23543e-07
-1.87713e-06
4.49052e-08
-1.87178e-06
-3.45731e-08
-1.85328e-06
-1.13889e-07
-1.8218e-06
-1.9202e-07
-1.77767e-06
-2.67925e-07
-1.72137e-06
-3.40553e-07
-1.65356e-06
-4.08846e-07
-1.57507e-06
-4.7175e-07
-1.48687e-06
-5.28225e-07
-1.39009e-06
-5.77262e-07
-1.28604e-06
-6.17902e-07
-1.17613e-06
-6.4925e-07
-1.06195e-06
-6.70508e-07
-9.45157e-07
-6.80994e-07
-8.27539e-07
-6.80178e-07
-7.10937e-07
-6.67711e-07
-5.9724e-07
-6.43463e-07
-4.8835e-07
-6.07561e-07
-3.86148e-07
-5.60431e-07
-2.92466e-07
-5.02841e-07
-2.09055e-07
-4.35948e-07
-1.37566e-07
-3.61342e-07
-7.95314e-08
-2.81099e-07
-3.63755e-08
-1.9781e-07
-9.43206e-09
-1.1459e-07
-3.52796e-08
-1.10873e-08
4.90184e-08
-4.22948e-08
1.51907e-07
-9.16596e-08
2.54999e-07
-1.57255e-07
3.54697e-07
-2.37156e-07
4.48159e-07
-3.29422e-07
5.33097e-07
-4.32091e-07
6.07748e-07
-5.43187e-07
6.70834e-07
-6.60732e-07
7.21502e-07
-7.82762e-07
7.59259e-07
-9.07343e-07
7.83927e-07
-1.03259e-06
7.95582e-07
-1.1567e-06
7.94517e-07
-1.27793e-06
7.81194e-07
-1.39465e-06
7.56217e-07
-1.50533e-06
7.20296e-07
-1.60856e-06
6.74232e-07
-1.70305e-06
6.18889e-07
-1.78764e-06
5.55187e-07
-1.86132e-06
4.84087e-07
-1.92318e-06
4.06587e-07
-1.9725e-06
3.23714e-07
-2.00867e-06
2.36525e-07
-2.03123e-06
1.46101e-07
-2.03987e-06
5.35503e-08
-2.03445e-06
-3.99918e-08
-2.01497e-06
-1.33366e-07
-1.98161e-06
-2.25389e-07
-1.93467e-06
-3.14857e-07
-1.87468e-06
-4.00551e-07
-1.80228e-06
-4.81242e-07
-1.71832e-06
-5.55707e-07
-1.62381e-06
-6.22733e-07
-1.51993e-06
-6.81145e-07
-1.40802e-06
-7.29816e-07
-1.28957e-06
-7.67698e-07
-1.16623e-06
-7.93844e-07
-1.03978e-06
-8.07444e-07
-9.12107e-07
-8.07855e-07
-7.85178e-07
-7.9464e-07
-6.61037e-07
-7.67604e-07
-5.41755e-07
-7.26843e-07
-4.29407e-07
-6.72779e-07
-3.2604e-07
-6.06208e-07
-2.33645e-07
-5.28342e-07
-1.54135e-07
-4.40852e-07
-8.93274e-08
-3.45907e-07
-4.09474e-08
-2.4619e-07
-1.06388e-08
-1.44899e-07
-4.59184e-08
-1.22758e-08
6.12943e-08
-4.67721e-08
1.86403e-07
-1.01216e-07
3.09444e-07
-1.73368e-07
4.26849e-07
-2.60999e-07
5.3579e-07
-3.61887e-07
6.33985e-07
-4.73816e-07
7.19678e-07
-5.94585e-07
7.91603e-07
-7.22015e-07
8.48932e-07
-8.53969e-07
8.91213e-07
-9.88365e-07
9.18323e-07
-1.12319e-06
9.30412e-07
-1.25654e-06
9.27857e-07
-1.38656e-06
9.11222e-07
-1.51157e-06
8.81221e-07
-1.62996e-06
8.38686e-07
-1.74027e-06
7.84542e-07
-1.84117e-06
7.19787e-07
-1.93146e-06
6.45479e-07
-2.01009e-06
5.62717e-07
-2.07614e-06
4.72642e-07
-2.12886e-06
3.76426e-07
-2.1676e-06
2.75271e-07
-2.19191e-06
1.70409e-07
-2.20146e-06
6.30994e-08
-2.19608e-06
-4.53676e-08
-2.17578e-06
-1.53674e-07
-2.14069e-06
-2.60472e-07
-2.09116e-06
-3.64391e-07
-2.02767e-06
-4.64041e-07
-1.95089e-06
-5.58018e-07
-1.86168e-06
-6.44919e-07
-1.76106e-06
-7.23353e-07
-1.65024e-06
-7.91963e-07
-1.53061e-06
-8.49447e-07
-1.40373e-06
-8.94585e-07
-1.2713e-06
-9.26268e-07
-1.13521e-06
-9.43538e-07
-9.97444e-07
-9.45618e-07
-8.60122e-07
-9.31962e-07
-7.25437e-07
-9.02289e-07
-5.95642e-07
-8.56638e-07
-4.73018e-07
-7.95404e-07
-3.5984e-07
-7.19386e-07
-2.58352e-07
-6.2983e-07
-1.7074e-07
-5.28464e-07
-9.91134e-08
-4.17533e-07
-4.54967e-08
-2.99807e-07
-1.18333e-08
-1.78562e-07
-5.77517e-08
-1.34512e-08
7.47455e-08
-5.12104e-08
2.24162e-07
-1.10709e-07
3.68942e-07
-1.894e-07
5.0554e-07
-2.84758e-07
6.31147e-07
-3.94277e-07
7.43504e-07
-5.15484e-07
8.40884e-07
-6.45941e-07
9.22061e-07
-7.83266e-07
9.86257e-07
-9.25143e-07
1.03309e-06
-1.06934e-06
1.06252e-06
-1.21371e-06
1.07478e-06
-1.35623e-06
1.07038e-06
-1.49498e-06
1.04998e-06
-1.62818e-06
1.01443e-06
-1.75419e-06
9.64691e-07
-1.87148e-06
9.01836e-07
-1.9787e-06
8.27001e-07
-2.0746e-06
7.41387e-07
-2.15813e-06
6.46239e-07
-2.22833e-06
5.42844e-07
-2.28442e-06
4.32521e-07
-2.32577e-06
3.1662e-07
-2.35189e-06
1.96523e-07
-2.36243e-06
7.36426e-08
-2.35722e-06
-5.05769e-08
-2.33624e-06
-1.74657e-07
-2.29962e-06
-2.97088e-07
-2.24768e-06
-4.16329e-07
-2.18091e-06
-5.30815e-07
-2.09996e-06
-6.38962e-07
-2.0057e-06
-7.39181e-07
-1.89916e-06
-8.29894e-07
-1.78157e-06
-9.09554e-07
-1.65435e-06
-9.76666e-07
-1.51911e-06
-1.02982e-06
-1.37764e-06
-1.06774e-06
-1.2319e-06
-1.08928e-06
-1.084e-06
-1.09352e-06
-9.36186e-07
-1.07977e-06
-7.90826e-07
-1.04765e-06
-6.5036e-07
-9.97104e-07
-5.17287e-07
-9.28477e-07
-3.94126e-07
-8.42547e-07
-2.83388e-07
-7.40568e-07
-1.87542e-07
-6.2431e-07
-1.08998e-07
-4.96078e-07
-5.0082e-08
-3.58722e-07
-1.30338e-08
-2.1561e-07
-7.07855e-08
-1.46262e-08
8.93717e-08
-5.56508e-08
2.65187e-07
-1.20213e-07
4.33505e-07
-2.05464e-07
5.90791e-07
-3.08578e-07
7.34261e-07
-4.26765e-07
8.61692e-07
-5.57286e-07
9.71405e-07
-6.97466e-07
1.06224e-06
-8.4471e-07
1.1335e-06
-9.96517e-07
1.1849e-06
-1.1505e-06
1.2165e-06
-1.30438e-06
1.22866e-06
-1.45602e-06
1.22202e-06
-1.60342e-06
1.19738e-06
-1.74474e-06
1.15574e-06
-1.87826e-06
1.09822e-06
-2.00244e-06
1.02602e-06
-2.11588e-06
9.40435e-07
-2.21732e-06
8.42827e-07
-2.30567e-06
7.34588e-07
-2.37998e-06
6.17152e-07
-2.43944e-06
4.91989e-07
-2.48342e-06
3.60597e-07
-2.5114e-06
2.24506e-07
-2.52304e-06
8.52785e-08
-2.51813e-06
-5.54856e-08
-2.49664e-06
-1.96151e-07
-2.45868e-06
-3.35045e-07
-2.40455e-06
-4.70457e-07
-2.33472e-06
-6.00645e-07
-2.24984e-06
-7.23843e-07
-2.15075e-06
-8.38271e-07
-2.03849e-06
-9.42153e-07
-1.91431e-06
-1.03374e-06
-1.77964e-06
-1.11133e-06
-1.63615e-06
-1.17332e-06
-1.48568e-06
-1.21821e-06
-1.33028e-06
-1.24468e-06
-1.17218e-06
-1.25162e-06
-1.01377e-06
-1.23818e-06
-8.5758e-07
-1.20384e-06
-7.06256e-07
-1.14843e-06
-5.62527e-07
-1.07221e-06
-4.29169e-07
-9.75905e-07
-3.08972e-07
-8.60766e-07
-2.04706e-07
-7.28575e-07
-1.19089e-07
-5.81695e-07
-5.47604e-08
-4.23051e-07
-1.42579e-08
-2.56113e-07
-8.50434e-08
-1.58124e-08
1.05184e-07
-6.01305e-08
3.09505e-07
-1.29799e-07
5.03173e-07
-2.21664e-07
6.82655e-07
-3.32595e-07
8.45192e-07
-4.59512e-07
9.88609e-07
-5.99406e-07
1.1113e-06
-7.49355e-07
1.21219e-06
-9.06546e-07
1.29069e-06
-1.06829e-06
1.34664e-06
-1.23203e-06
1.38024e-06
-1.39538e-06
1.39201e-06
-1.55607e-06
1.38271e-06
-1.71204e-06
1.35335e-06
-1.86136e-06
1.30506e-06
-2.00229e-06
1.23914e-06
-2.13323e-06
1.15696e-06
-2.25277e-06
1.05997e-06
-2.35964e-06
9.49697e-07
-2.45273e-06
8.27682e-07
-2.53109e-06
6.95515e-07
-2.59392e-06
5.54812e-07
-2.64054e-06
4.07221e-07
-2.67045e-06
2.54417e-07
-2.68329e-06
9.81105e-08
-2.67882e-06
-5.99493e-08
-2.657e-06
-2.17973e-07
-2.61792e-06
-3.74127e-07
-2.56184e-06
-5.26534e-07
-2.48921e-06
-6.73275e-07
-2.40065e-06
-8.12399e-07
-2.297e-06
-9.4193e-07
-2.17926e-06
-1.05989e-06
-2.0487e-06
-1.16431e-06
-1.90676e-06
-1.25327e-06
-1.75514e-06
-1.32494e-06
-1.59574e-06
-1.37761e-06
-1.4307e-06
-1.40972e-06
-1.26235e-06
-1.41997e-06
-1.09323e-06
-1.4073e-06
-9.26051e-07
-1.37102e-06
-7.63665e-07
-1.31081e-06
-6.09041e-07
-1.22683e-06
-4.6523e-07
-1.11972e-06
-3.35318e-07
-9.90677e-07
-2.22392e-07
-8.41502e-07
-1.29493e-07
-6.74593e-07
-5.95863e-08
-4.92958e-07
-1.5522e-08
-3.00177e-07
-1.00565e-07
-1.70198e-08
1.22204e-07
-6.46834e-08
3.57168e-07
-1.39532e-07
5.78022e-07
-2.38095e-07
7.81219e-07
-3.56934e-07
9.6403e-07
-4.92667e-07
1.12434e-06
-6.42006e-07
1.26064e-06
-8.01776e-07
1.37196e-06
-9.68939e-07
1.45785e-06
-1.14061e-06
1.51831e-06
-1.31408e-06
1.55371e-06
-1.48682e-06
1.56474e-06
-1.65646e-06
1.55236e-06
-1.82086e-06
1.51775e-06
-1.97804e-06
1.46224e-06
-2.1262e-06
1.3873e-06
-2.26374e-06
1.2945e-06
-2.38923e-06
1.18546e-06
-2.50139e-06
1.06186e-06
-2.59911e-06
9.25407e-07
-2.68145e-06
7.7785e-07
-2.74758e-06
6.2095e-07
-2.79686e-06
4.56497e-07
-2.82875e-06
2.86311e-07
-2.84289e-06
1.12243e-07
-2.83902e-06
-6.3814e-08
-2.81707e-06
-2.39922e-07
-2.77711e-06
-4.14093e-07
-2.71936e-06
-5.84286e-07
-2.64422e-06
-7.48407e-07
-2.5523e-06
-9.04319e-07
-2.44439e-06
-1.04985e-06
-2.32147e-06
-1.1828e-06
-2.1848e-06
-1.30098e-06
-2.03582e-06
-1.40225e-06
-1.87625e-06
-1.48451e-06
-1.70805e-06
-1.54581e-06
-1.53341e-06
-1.58435e-06
-1.3548e-06
-1.59858e-06
-1.17488e-06
-1.58722e-06
-9.96557e-07
-1.54935e-06
-8.22892e-07
-1.48448e-06
-6.57114e-07
-1.39261e-06
-5.02561e-07
-1.27427e-06
-3.62633e-07
-1.1306e-06
-2.40753e-07
-9.63382e-07
-1.4031e-07
-7.75037e-07
-6.46117e-08
-5.68656e-07
-1.68412e-08
-3.47948e-07
-1.17407e-07
-1.82574e-08
1.40461e-07
-6.93397e-08
4.08251e-07
-1.49469e-07
6.58151e-07
-2.54846e-07
8.86596e-07
-3.81707e-07
1.09089e-06
-5.2636e-07
1.269e-06
-6.85225e-07
1.4195e-06
-8.54864e-07
1.5416e-06
-1.03201e-06
1.635e-06
-1.21358e-06
1.69989e-06
-1.3967e-06
1.73683e-06
-1.57871e-06
1.74674e-06
-1.75715e-06
1.7308e-06
-1.92979e-06
1.69039e-06
-2.09461e-06
1.62706e-06
-2.24979e-06
1.54248e-06
-2.3937e-06
1.43842e-06
-2.52492e-06
1.31667e-06
-2.64217e-06
1.17911e-06
-2.74436e-06
1.0276e-06
-2.83054e-06
8.64031e-07
-2.89991e-06
6.90324e-07
-2.95182e-06
5.08404e-07
-2.98574e-06
3.20226e-07
-3.00127e-06
1.27776e-07
-2.99817e-06
-6.69177e-08
-2.97631e-06
-2.61778e-07
-2.93573e-06
-4.5467e-07
-2.87662e-06
-6.43394e-07
-2.79934e-06
-8.25688e-07
-2.70443e-06
-9.99229e-07
-2.59264e-06
-1.16164e-06
-2.46492e-06
-1.31051e-06
-2.32249e-06
-1.44342e-06
-2.16678e-06
-1.55795e-06
-1.99952e-06
-1.65177e-06
-1.8227e-06
-1.72263e-06
-1.63859e-06
-1.76847e-06
-1.44974e-06
-1.78743e-06
-1.25897e-06
-1.77798e-06
-1.06936e-06
-1.73896e-06
-8.84209e-07
-1.66963e-06
-7.07005e-07
-1.56981e-06
-5.41393e-07
-1.43988e-06
-3.9111e-07
-1.28089e-06
-2.59937e-07
-1.09456e-06
-1.51635e-07
-8.83338e-07
-6.98855e-08
-6.50405e-07
-1.82299e-08
-3.99603e-07
-1.35637e-07
-1.95334e-08
1.59995e-07
-7.41271e-08
4.62844e-07
-1.59663e-07
7.43687e-07
-2.71995e-07
9.98928e-07
-4.07015e-07
1.22591e-06
-5.60703e-07
1.42268e-06
-7.29177e-07
1.58798e-06
-9.08725e-07
1.72115e-06
-1.09584e-06
1.82212e-06
-1.28724e-06
1.89129e-06
-1.47989e-06
1.92948e-06
-1.67098e-06
1.93784e-06
-1.85799e-06
1.91781e-06
-2.0386e-06
1.871e-06
-2.21077e-06
1.79922e-06
-2.37265e-06
1.70436e-06
-2.52263e-06
1.58839e-06
-2.65928e-06
1.45332e-06
-2.78135e-06
1.30118e-06
-2.88776e-06
1.13401e-06
-2.97761e-06
9.53873e-07
-3.05009e-06
7.62809e-07
-3.10457e-06
5.62884e-07
-3.14052e-06
3.56178e-07
-3.15755e-06
1.44802e-07
-3.15537e-06
-6.90925e-08
-3.13385e-06
-2.833e-07
-3.09297e-06
-4.95548e-07
-3.03288e-06
-7.0349e-07
-2.95387e-06
-9.04701e-07
-2.85642e-06
-1.09668e-06
-2.74122e-06
-1.27684e-06
-2.60917e-06
-1.44256e-06
-2.46142e-06
-1.59116e-06
-2.2994e-06
-1.71997e-06
-2.12481e-06
-1.82636e-06
-1.93965e-06
-1.90778e-06
-1.74627e-06
-1.96186e-06
-1.54728e-06
-1.98641e-06
-1.34567e-06
-1.9796e-06
-1.14468e-06
-1.93995e-06
-9.47845e-07
-1.86647e-06
-7.58944e-07
-1.75871e-06
-5.81938e-07
-1.61689e-06
-4.20927e-07
-1.4419e-06
-2.80079e-07
-1.2354e-06
-1.63559e-07
-9.99859e-07
-7.54544e-08
-7.3851e-07
-1.97019e-08
-4.55356e-07
-1.55338e-07
-2.08553e-08
1.8085e-07
-7.90711e-08
5.2106e-07
-1.70163e-07
8.34779e-07
-2.89613e-07
1.11838e-06
-4.32945e-07
1.36924e-06
-5.95794e-07
1.58553e-06
-7.73953e-07
1.76614e-06
-9.63426e-07
1.91062e-06
-1.16046e-06
2.01915e-06
-1.36156e-06
2.09239e-06
-1.56354e-06
2.13145e-06
-1.76346e-06
2.13777e-06
-1.95872e-06
2.11306e-06
-2.14694e-06
2.05923e-06
-2.32606e-06
1.97834e-06
-2.49423e-06
1.87253e-06
-2.64984e-06
1.74401e-06
-2.79152e-06
1.59499e-06
-2.91803e-06
1.4277e-06
-3.02835e-06
1.24434e-06
-3.12159e-06
1.04711e-06
-3.197e-06
8.38216e-07
-3.25395e-06
6.19829e-07
-3.29192e-06
3.94149e-07
-3.31051e-06
1.63397e-07
-3.30944e-06
-7.01675e-08
-3.28851e-06
-3.04223e-07
-3.24768e-06
-5.36376e-07
-3.18703e-06
-7.64146e-07
-3.10678e-06
-9.84954e-07
-3.00733e-06
-1.19612e-06
-2.8893e-06
-1.39488e-06
-2.7535e-06
-1.57836e-06
-2.60102e-06
-1.74364e-06
-2.43322e-06
-1.88777e-06
-2.25178e-06
-2.0078e-06
-2.0587e-06
-2.10086e-06
-1.85634e-06
-2.16421e-06
-1.64743e-06
-2.19532e-06
-1.43505e-06
-2.19198e-06
-1.22264e-06
-2.15236e-06
-1.01398e-06
-2.07513e-06
-8.13125e-07
-1.95957e-06
-6.24387e-07
-1.80563e-06
-4.52252e-07
-1.61403e-06
-3.0131e-07
-1.38635e-06
-1.76169e-07
-1.125e-06
-8.13634e-08
-8.33315e-07
-2.12703e-08
-5.15449e-07
-1.76609e-07
-2.22305e-08
2.03081e-07
-8.41969e-08
5.83027e-07
-1.81017e-07
9.31599e-07
-3.07768e-07
1.24513e-06
-4.59581e-07
1.52106e-06
-6.31714e-07
1.75767e-06
-8.19621e-07
1.95404e-06
-1.019e-06
2.11e-06
-1.22585e-06
2.226e-06
-1.43647e-06
2.30301e-06
-1.64749e-06
2.34247e-06
-1.85588e-06
2.34616e-06
-2.05894e-06
2.31612e-06
-2.25428e-06
2.25457e-06
-2.43982e-06
2.16387e-06
-2.61372e-06
2.04644e-06
-2.77443e-06
1.90472e-06
-2.9206e-06
1.74116e-06
-3.05107e-06
1.55817e-06
-3.16487e-06
1.35813e-06
-3.26115e-06
1.14339e-06
-3.3392e-06
9.16273e-07
-3.39844e-06
6.79069e-07
-3.43837e-06
4.34078e-07
-3.45859e-06
1.83612e-07
-3.45878e-06
-6.9974e-08
-3.43874e-06
-3.24265e-07
-3.39835e-06
-5.76764e-07
-3.33763e-06
-8.2487e-07
-3.25672e-06
-1.06587e-06
-3.15592e-06
-1.29692e-06
-3.03575e-06
-1.51505e-06
-2.89692e-06
-1.71718e-06
-2.74043e-06
-1.90013e-06
-2.56755e-06
-2.06065e-06
-2.3799e-06
-2.19546e-06
-2.17945e-06
-2.30131e-06
-1.96858e-06
-2.37508e-06
-1.75006e-06
-2.41384e-06
-1.52711e-06
-2.41494e-06
-1.30333e-06
-2.37614e-06
-1.08274e-06
-2.29572e-06
-8.69707e-07
-2.1726e-06
-6.68905e-07
-2.00643e-06
-4.85237e-07
-1.7977e-06
-3.23752e-07
-1.54783e-06
-1.89547e-07
-1.25921e-06
-8.76563e-08
-9.35206e-07
-2.29482e-08
-5.80157e-07
-1.99557e-07
-2.36665e-08
2.26747e-07
-8.95302e-08
6.4889e-07
-1.92272e-07
1.03434e-06
-3.26528e-07
1.37938e-06
-4.86998e-07
1.68153e-06
-6.68537e-07
1.9392e-06
-8.66232e-07
2.15174e-06
-1.07547e-06
2.31924e-06
-1.29196e-06
2.44249e-06
-1.5118e-06
2.52285e-06
-1.73148e-06
2.56215e-06
-1.94784e-06
2.56252e-06
-2.15814e-06
2.52641e-06
-2.35995e-06
2.45639e-06
-2.55122e-06
2.35514e-06
-2.73015e-06
2.22538e-06
-2.89525e-06
2.06982e-06
-3.04523e-06
1.89114e-06
-3.17903e-06
1.69196e-06
-3.29573e-06
1.47483e-06
-3.39458e-06
1.24224e-06
-3.47492e-06
9.96615e-07
-3.53621e-06
7.40358e-07
-3.57798e-06
4.75847e-07
-3.59983e-06
2.0547e-07
-3.60146e-06
-6.83501e-08
-3.5826e-06
-3.43125e-07
-3.54309e-06
-6.16274e-07
-3.48286e-06
-8.851e-07
-3.40196e-06
-1.14677e-06
-3.30058e-06
-1.39829e-06
-3.1791e-06
-1.63652e-06
-3.03813e-06
-1.85816e-06
-2.87851e-06
-2.05975e-06
-2.70142e-06
-2.23774e-06
-2.50838e-06
-2.3885e-06
-2.30131e-06
-2.50839e-06
-2.08254e-06
-2.59384e-06
-1.85491e-06
-2.64147e-06
-1.62171e-06
-2.64814e-06
-1.38672e-06
-2.61113e-06
-1.15419e-06
-2.52825e-06
-9.2881e-07
-2.39798e-06
-7.15634e-07
-2.21961e-06
-5.2002e-07
-1.99332e-06
-3.47522e-07
-1.72033e-06
-2.03777e-07
-1.40295e-06
-9.43773e-08
-1.04461e-06
-2.4749e-08
-6.49785e-07
-2.24306e-07
-2.51719e-08
2.51919e-07
-9.50988e-08
7.18817e-07
-2.0398e-07
1.14322e-06
-3.45964e-07
1.52137e-06
-5.15276e-07
1.85084e-06
-7.06331e-07
2.13026e-06
-9.13821e-07
2.35923e-06
-1.13279e-06
2.5382e-06
-1.35867e-06
2.66837e-06
-1.58735e-06
2.75154e-06
-1.81516e-06
2.78995e-06
-2.03885e-06
2.78622e-06
-2.25564e-06
2.74319e-06
-2.4631e-06
2.66385e-06
-2.65922e-06
2.55125e-06
-2.84229e-06
2.40844e-06
-3.01088e-06
2.23841e-06
-3.16382e-06
2.04408e-06
-3.30014e-06
1.82828e-06
-3.41904e-06
1.59373e-06
-3.51984e-06
1.34304e-06
-3.60199e-06
1.07876e-06
-3.66499e-06
8.03357e-07
-3.70841e-06
5.19274e-07
-3.73189e-06
2.2895e-07
-3.7351e-06
-6.51479e-08
-3.71774e-06
-3.60485e-07
-3.67958e-06
-6.54426e-07
-3.62048e-06
-9.44203e-07
-3.54036e-06
-1.22689e-06
-3.4393e-06
-1.49936e-06
-3.31751e-06
-1.75831e-06
-3.17544e-06
-2.00023e-06
-3.01379e-06
-2.2214e-06
-2.83358e-06
-2.41795e-06
-2.63619e-06
-2.58589e-06
-2.42344e-06
-2.72114e-06
-2.19762e-06
-2.81966e-06
-1.96155e-06
-2.87753e-06
-1.71861e-06
-2.89109e-06
-1.47271e-06
-2.85703e-06
-1.22834e-06
-2.77262e-06
-9.9051e-07
-2.63581e-06
-7.64693e-07
-2.44542e-06
-5.56731e-07
-2.20128e-06
-3.72733e-07
-1.90433e-06
-2.18939e-07
-1.55675e-06
-1.01571e-07
-1.16197e-06
-2.66863e-08
-7.2467e-07
-2.50992e-07
-2.67563e-08
2.78675e-07
-1.00935e-07
7.92996e-07
-2.162e-07
1.25849e-06
-3.66154e-07
1.67132e-06
-5.44501e-07
2.02918e-06
-7.45168e-07
2.33093e-06
-9.62416e-07
2.57648e-06
-1.19092e-06
2.76671e-06
-1.42584e-06
2.90329e-06
-1.66283e-06
2.98853e-06
-1.89808e-06
3.0252e-06
-2.12828e-06
3.01641e-06
-2.3506e-06
2.96552e-06
-2.56269e-06
2.87594e-06
-2.76257e-06
2.75114e-06
-2.94865e-06
2.59452e-06
-3.11963e-06
2.40939e-06
-3.27447e-06
2.19892e-06
-3.41232e-06
1.96614e-06
-3.53253e-06
1.71394e-06
-3.63453e-06
1.44505e-06
-3.71787e-06
1.16209e-06
-3.78213e-06
8.67618e-07
-3.82695e-06
5.64093e-07
-3.85198e-06
2.53979e-07
-3.85688e-06
-6.02418e-08
-3.84135e-06
-3.7602e-07
-3.80507e-06
-6.90699e-07
-3.74781e-06
-1.00147e-06
-3.66936e-06
-1.30533e-06
-3.56964e-06
-1.59908e-06
-3.4487e-06
-1.87925e-06
-3.3068e-06
-2.14214e-06
-3.14442e-06
-2.38377e-06
-2.96241e-06
-2.59997e-06
-2.76196e-06
-2.78634e-06
-2.54474e-06
-2.93835e-06
-2.31296e-06
-3.05145e-06
-2.06937e-06
-3.12112e-06
-1.81739e-06
-3.14307e-06
-1.56106e-06
-3.11335e-06
-1.3051e-06
-3.02858e-06
-1.05484e-06
-2.88607e-06
-8.16176e-07
-2.68409e-06
-5.95489e-07
-2.42196e-06
-3.99498e-07
-2.10032e-06
-2.35118e-07
-1.72113e-06
-1.09285e-07
-1.28781e-06
-2.87751e-08
-8.0518e-07
-2.79767e-07
-2.84316e-08
3.07107e-07
-1.07079e-07
8.71643e-07
-2.29002e-07
1.38041e-06
-3.87195e-07
1.82952e-06
-5.74773e-07
2.21676e-06
-7.85125e-07
2.54128e-06
-1.01204e-06
2.80339e-06
-1.2498e-06
3.00447e-06
-1.49327e-06
3.14676e-06
-1.73788e-06
3.23314e-06
-1.97969e-06
3.26701e-06
-2.21534e-06
3.25207e-06
-2.44203e-06
3.1922e-06
-2.65745e-06
3.09136e-06
-2.85976e-06
2.95345e-06
-3.04749e-06
2.78225e-06
-3.21951e-06
2.58141e-06
-3.37494e-06
2.35435e-06
-3.51313e-06
2.10433e-06
-3.63355e-06
1.83436e-06
-3.73581e-06
1.54731e-06
-3.81957e-06