/*--------------------------------*- C++ -*----------------------------------*\
  =========                 |
  \\      /  F ield         | OpenFOAM: The Open Source CFD Toolbox
   \\    /   O peration     | Website:  https://openfoam.org
    \\  /    A nd           | Version:  7
     \\/     M anipulation  |
\*---------------------------------------------------------------------------*/
FoamFile
{
    version     2.0;
    format      ascii;
    class       volVectorField;
    location    "0.0674";
    object      U;
}
// * * * * * * * * * * * * * * * * * * * * * * * * * * * * * * * * * * * * * //

dimensions      [0 1 -1 0 0 0 0];

internalField   nonuniform List<vector> 
2500
(
(3.05257e-05 -3.06186e-05 0)
(9.30317e-05 -3.76497e-05 0)
(0.000129048 -1.94316e-05 0)
(9.7876e-05 7.28537e-06 0)
(-1.30059e-05 3.47504e-05 0)
(-0.000201996 6.00592e-05 0)
(-0.000461994 8.20191e-05 0)
(-0.000783665 0.000100273 0)
(-0.0011566 0.000114832 0)
(-0.00157009 0.000125843 0)
(-0.00201354 0.000133508 0)
(-0.00247671 0.000138046 0)
(-0.00294987 0.000139681 0)
(-0.00342382 0.000138637 0)
(-0.00388999 0.000135134 0)
(-0.00434048 0.000129388 0)
(-0.00476799 0.000121606 0)
(-0.00516593 0.000111994 0)
(-0.00552836 0.000100752 0)
(-0.00584999 8.8076e-05 0)
(-0.00612623 7.41619e-05 0)
(-0.00635315 5.9205e-05 0)
(-0.00652751 4.34026e-05 0)
(-0.00664677 2.69551e-05 0)
(-0.00670909 1.00681e-05 0)
(-0.00671338 -7.0466e-06 0)
(-0.0066593 -2.41694e-05 0)
(-0.00654727 -4.10723e-05 0)
(-0.00637852 -5.7519e-05 0)
(-0.00615512 -7.32649e-05 0)
(-0.00587995 -8.80583e-05 0)
(-0.00555678 -0.000101641 0)
(-0.00519023 -0.000113752 0)
(-0.00478579 -0.000124127 0)
(-0.00434982 -0.000132504 0)
(-0.00388949 -0.000138625 0)
(-0.00341278 -0.000142242 0)
(-0.00292842 -0.000143117 0)
(-0.00244579 -0.000141027 0)
(-0.00197489 -0.000135772 0)
(-0.00152613 -0.000127171 0)
(-0.00111029 -0.000115076 0)
(-0.000738203 -9.93837e-05 0)
(-0.000420561 -8.0065e-05 0)
(-0.000167353 -5.72582e-05 0)
(1.28502e-05 -3.15035e-05 0)
(0.000114245 -4.14624e-06 0)
(0.000136533 2.17171e-05 0)
(9.42453e-05 3.86409e-05 0)
(3.0084e-05 3.00232e-05 0)
(3.7956e-05 -9.33527e-05 0)
(8.63452e-05 -8.55028e-05 0)
(3.8103e-05 1.6563e-05 0)
(-0.000168692 0.000155896 0)
(-0.000558673 0.000303504 0)
(-0.00113255 0.000444448 0)
(-0.00187845 0.000570906 0)
(-0.0027771 0.000679097 0)
(-0.00380501 0.000767434 0)
(-0.00493663 0.000835527 0)
(-0.00614571 0.000883659 0)
(-0.00740616 0.000912524 0)
(-0.00869262 0.000923059 0)
(-0.00998083 0.000916353 0)
(-0.0112479 0.000893587 0)
(-0.0124725 0.000855999 0)
(-0.0136348 0.000804856 0)
(-0.0147168 0.000741445 0)
(-0.0157023 0.000667064 0)
(-0.0165768 0.000583022 0)
(-0.0173276 0.000490637 0)
(-0.017944 0.000391244 0)
(-0.0184172 0.000286201 0)
(-0.0187401 0.000176891 0)
(-0.018908 6.47313e-05 0)
(-0.0189178 -4.88219e-05 0)
(-0.0187687 -0.000162268 0)
(-0.0184622 -0.000274062 0)
(-0.0180017 -0.000382616 0)
(-0.0173929 -0.000486302 0)
(-0.0166441 -0.000583461 0)
(-0.0157655 -0.000672414 0)
(-0.0147699 -0.000751474 0)
(-0.0136722 -0.000818971 0)
(-0.0124897 -0.00087327 0)
(-0.0112418 -0.000912801 0)
(-0.00994992 -0.000936087 0)
(-0.00863722 -0.000941782 0)
(-0.00732855 -0.00092871 0)
(-0.00605 -0.000895913 0)
(-0.0048285 -0.000842719 0)
(-0.00369129 -0.000768835 0)
(-0.0026652 -0.000674495 0)
(-0.00177564 -0.000560719 0)
(-0.00104517 -0.000429804 0)
(-0.000491315 -0.000286287 0)
(-0.000123286 -0.00013864 0)
(6.2737e-05 -2.40744e-06 0)
(9.48438e-05 9.37897e-05 0)
(3.899e-05 9.42466e-05 0)
(2.07597e-05 -0.000130952 0)
(-1.22958e-05 -3.83401e-05 0)
(-0.00022853 0.000234112 0)
(-0.000680603 0.000585461 0)
(-0.00139254 0.000958926 0)
(-0.00236535 0.0013201 0)
(-0.0035838 0.00164866 0)
(-0.00502199 0.00193323 0)
(-0.00664748 0.00216791 0)
(-0.00842406 0.00235015 0)
(-0.0103137 0.00247959 0)
(-0.0122781 0.00255722 0)
(-0.0142795 0.00258497 0)
(-0.0162812 0.00256536 0)
(-0.0182487 0.00250131 0)
(-0.0201492 0.00239602 0)
(-0.0219525 0.00225285 0)
(-0.0236307 0.0020753 0)
(-0.0251588 0.00186695 0)
(-0.0265144 0.00163143 0)
(-0.027678 0.00137246 0)
(-0.0286328 0.00109381 0)
(-0.0293651 0.000799328 0)
(-0.0298644 0.000492942 0)
(-0.030123 0.000178679 0)
(-0.0301365 -0.000139331 0)
(-0.0299038 -0.000456842 0)
(-0.0294271 -0.000769501 0)
(-0.028712 -0.00107285 0)
(-0.0277676 -0.00136233 0)
(-0.0266065 -0.00163333 0)
(-0.0252448 -0.0018812 0)
(-0.0237021 -0.00210131 0)
(-0.0220017 -0.00228909 0)
(-0.0201699 -0.00244012 0)
(-0.0182364 -0.00255021 0)
(-0.0162339 -0.00261546 0)
(-0.0141977 -0.00263242 0)
(-0.012165 -0.0025982 0)
(-0.0101749 -0.00251062 0)
(-0.00826755 -0.00236845 0)
(-0.00648276 -0.00217169 0)
(-0.00485939 -0.00192202 0)
(-0.00343347 -0.00162352 0)
(-0.00223625 -0.00128377 0)
(-0.00129125 -0.000915849 0)
(-0.000610373 -0.000541539 0)
(-0.000188563 -0.000196334 0)
(2.93474e-06 6.30447e-05 0)
(2.32115e-05 0.000138101 0)
(-4.43633e-06 -0.000103898 0)
(-0.000147975 0.000164514 0)
(-0.00057606 0.000684984 0)
(-0.00131442 0.00132149 0)
(-0.00237717 0.00199101 0)
(-0.00376156 0.00263925 0)
(-0.00544763 0.0032317 0)
(-0.0074035 0.00374743 0)
(-0.00958953 0.00417452 0)
(-0.0119612 0.00450705 0)
(-0.0144713 0.00474316 0)
(-0.0170718 0.00488375 0)
(-0.0197149 0.00493163 0)
(-0.0223541 0.00489094 0)
(-0.024945 0.00476672 0)
(-0.0274454 0.00456469 0)
(-0.0298163 0.00429098 0)
(-0.0320217 0.00395204 0)
(-0.0340288 0.00355459 0)
(-0.0358087 0.00310549 0)
(-0.0373358 0.00261179 0)
(-0.0385884 0.00208068 0)
(-0.0395487 0.00151951 0)
(-0.0402028 0.000935804 0)
(-0.0405409 0.000337267 0)
(-0.0405574 -0.000268201 0)
(-0.0402508 -0.000872498 0)
(-0.0396243 -0.00146733 0)
(-0.0386851 -0.00204421 0)
(-0.0374452 -0.00259453 0)
(-0.0359211 -0.00310956 0)
(-0.0341339 -0.00358055 0)
(-0.0321092 -0.00399882 0)
(-0.0298769 -0.00435586 0)
(-0.0274713 -0.0046435 0)
(-0.0249306 -0.004854 0)
(-0.022297 -0.00498033 0)
(-0.0196154 -0.00501633 0)
(-0.0169336 -0.00495699 0)
(-0.0143012 -0.00479882 0)
(-0.0117687 -0.0045402 0)
(-0.00938607 -0.00418199 0)
(-0.00720159 -0.00372836 0)
(-0.00525971 -0.00318788 0)
(-0.00359875 -0.00257537 0)
(-0.00224794 -0.00191461 0)
(-0.00122338 -0.00124266 0)
(-0.000523126 -0.000615553 0)
(-0.00012704 -0.000116612 0)
(-7.72362e-07 0.000120714 0)
(-3.07561e-05 9.57595e-07 0)
(-0.000295043 0.000550559 0)
(-0.000955631 0.00139904 0)
(-0.00200199 0.00238672 0)
(-0.00343237 0.00340955 0)
(-0.00523652 0.00439571 0)
(-0.00738773 0.00529704 0)
(-0.00984748 0.00608271 0)
(-0.0125694 0.00673407 0)
(-0.0155016 0.00724107 0)
(-0.0185894 0.00759978 0)
(-0.0217767 0.00781062 0)
(-0.0250074 0.00787715 0)
(-0.0282268 0.00780516 0)
(-0.0313824 0.00760206 0)
(-0.0344243 0.0072764 0)
(-0.037306 0.00683759 0)
(-0.0399846 0.00629563 0)
(-0.042421 0.00566099 0)
(-0.0445804 0.00494451 0)
(-0.0464324 0.00415733 0)
(-0.047951 0.00331084 0)
(-0.0491148 0.00241676 0)
(-0.0499072 0.00148705 0)
(-0.0503165 0.000533991 0)
(-0.0503361 -0.000429854 0)
(-0.0499642 -0.0013916 0)
(-0.0492047 -0.00233808 0)
(-0.0480664 -0.00325585 0)
(-0.0465636 -0.0041313 0)
(-0.0447163 -0.00495066 0)
(-0.0425494 -0.00570018 0)
(-0.0400937 -0.00636627 0)
(-0.0373849 -0.00693564 0)
(-0.0344638 -0.00739557 0)
(-0.0313758 -0.00773419 0)
(-0.0281707 -0.00794071 0)
(-0.024902 -0.00800588 0)
(-0.0216258 -0.00792235 0)
(-0.0184005 -0.00768526 0)
(-0.0152851 -0.00729284 0)
(-0.0123382 -0.00674727 0)
(-0.00961607 -0.00605588 0)
(-0.00717046 -0.00523263 0)
(-0.00504655 -0.00430044 0)
(-0.00328007 -0.00329439 0)
(-0.00189351 -0.00226644 0)
(-0.000891784 -0.00129119 0)
(-0.000269383 -0.000473738 0)
(-2.61237e-05 2.8172e-05 0)
(-5.57955e-05 0.000184231 0)
(-0.000441652 0.00112773 0)
(-0.00134101 0.00238928 0)
(-0.00270396 0.00379508 0)
(-0.0045095 0.0052257 0)
(-0.00673705 0.00659504 0)
(-0.00935116 0.00784299 0)
(-0.0123055 0.00892941 0)
(-0.0155467 0.00982901 0)
(-0.0190159 0.0105274 0)
(-0.0226515 0.0110185 0)
(-0.0263902 0.0113019 0)
(-0.0301692 0.011382 0)
(-0.0339267 0.0112661 0)
(-0.0376034 0.0109644 0)
(-0.0411428 0.0104884 0)
(-0.0444921 0.00985128 0)
(-0.0476026 0.00906704 0)
(-0.0504299 0.00815047 0)
(-0.0529346 0.00711696 0)
(-0.0550817 0.00598238 0)
(-0.0568418 0.00476306 0)
(-0.0581906 0.00347574 0)
(-0.059109 0.00213759 0)
(-0.0595838 0.000766193 0)
(-0.0596073 -0.000620419 0)
(-0.0591778 -0.00200381 0)
(-0.0582994 -0.00336513 0)
(-0.0569824 -0.00468521 0)
(-0.055243 -0.0059446 0)
(-0.0531038 -0.00712374 0)
(-0.0505933 -0.00820309 0)
(-0.0477464 -0.00916338 0)
(-0.0446036 -0.00998588 0)
(-0.0412111 -0.0106527 0)
(-0.0376206 -0.0111472 0)
(-0.0338882 -0.0114543 0)
(-0.0300743 -0.0115615 0)
(-0.0262425 -0.0114588 0)
(-0.0224585 -0.0111398 0)
(-0.0187889 -0.0106028 0)
(-0.0152998 -0.00985139 0)
(-0.0120547 -0.00889647 0)
(-0.00911262 -0.00775768 0)
(-0.00652609 -0.00646611 0)
(-0.00433851 -0.00506773 0)
(-0.00258088 -0.003628 0)
(-0.00126782 -0.00223717 0)
(-0.000411891 -0.00101696 0)
(-5.03193e-05 -0.000140409 0)
(-7.88705e-05 0.000442835 0)
(-0.000582878 0.00189515 0)
(-0.00171939 0.00365799 0)
(-0.00339944 0.00555042 0)
(-0.00558137 0.00744259 0)
(-0.00823242 0.00923758 0)
(-0.0113067 0.0108655 0)
(-0.0147491 0.0122782 0)
(-0.0184983 0.0134444 0)
(-0.0224885 0.0143458 0)
(-0.0266513 0.014974 0)
(-0.030917 0.0153282 0)
(-0.0352163 0.0154135 0)
(-0.0394815 0.0152391 0)
(-0.0436472 0.0148178 0)
(-0.0476515 0.0141648 0)
(-0.0514363 0.0132971 0)
(-0.0549479 0.0122333 0)
(-0.0581376 0.0109928 0)
(-0.0609616 0.00959613 0)
(-0.0633816 0.00806445 0)
(-0.065365 0.00641955 0)
(-0.0668851 0.00468382 0)
(-0.0679208 0.00288024 0)
(-0.0684575 0.00103235 0)
(-0.0684867 -0.000835739 0)
(-0.0680064 -0.00269936 0)
(-0.0670211 -0.00453335 0)
(-0.0655419 -0.00631211 0)
(-0.0635869 -0.0080097 0)
(-0.0611807 -0.00960009 0)
(-0.0583547 -0.0110573 0)
(-0.0551471 -0.0123558 0)
(-0.0516025 -0.0134706 0)
(-0.0477716 -0.0143783 0)
(-0.0437112 -0.0150569 0)
(-0.0394832 -0.0154868 0)
(-0.0351537 -0.0156514 0)
(-0.0307929 -0.015538 0)
(-0.026473 -0.0151387 0)
(-0.0222676 -0.0144515 0)
(-0.0182498 -0.0134815 0)
(-0.0144904 -0.012243 0)
(-0.0110561 -0.0107611 0)
(-0.0080072 -0.00907469 0)
(-0.00539633 -0.00723948 0)
(-0.00326461 -0.0053326 0)
(-0.00163831 -0.00345691 0)
(-0.000549528 -0.00174623 0)
(-7.26362e-05 -0.000382288 0)
(-0.000100035 0.000772782 0)
(-0.000717382 0.00284799 0)
(-0.00208583 0.00520187 0)
(-0.00407926 0.00765092 0)
(-0.00663515 0.0100588 0)
(-0.00970755 0.0123209 0)
(-0.013239 0.0143599 0)
(-0.0171645 0.0161213 0)
(-0.0214141 0.0175688 0)
(-0.0259146 0.0186808 0)
(-0.0305907 0.0194474 0)
(-0.0353665 0.0198674 0)
(-0.0401668 0.0199469 0)
(-0.0449183 0.0196975 0)
(-0.0495503 0.0191348 0)
(-0.0539962 0.0182778 0)
(-0.0581931 0.017148 0)
(-0.0620833 0.0157686 0)
(-0.0656141 0.0141643 0)
(-0.0687384 0.0123612 0)
(-0.0714151 0.0103861 0)
(-0.0736088 0.00826671 0)
(-0.0752906 0.00603162 0)
(-0.0764379 0.00371011 0)
(-0.0770348 0.00133216 0)
(-0.077072 -0.00107149 0)
(-0.0765473 -0.00346942 0)
(-0.0754652 -0.0058296 0)
(-0.0738378 -0.00811943 0)
(-0.0716842 -0.010306 0)
(-0.0690306 -0.0123561 0)
(-0.0659109 -0.0142369 0)
(-0.0623659 -0.0159159 0)
(-0.0584435 -0.0173617 0)
(-0.0541985 -0.0185443 0)
(-0.0496917 -0.019436 0)
(-0.04499 -0.0200123 0)
(-0.040165 -0.0202523 0)
(-0.0352925 -0.02014 0)
(-0.030451 -0.0196655 0)
(-0.0257207 -0.0188264 0)
(-0.0211817 -0.017629 0)
(-0.0169124 -0.0160906 0)
(-0.0129874 -0.0142411 0)
(-0.00947627 -0.0121263 0)
(-0.00644158 -0.00981039 0)
(-0.00393598 -0.00738016 0)
(-0.00199847 -0.00494836 0)
(-0.000680932 -0.00265743 0)
(-9.30871e-05 -0.000693664 0)
(-0.000119612 0.00117018 0)
(-0.000845536 0.00398014 0)
(-0.0024397 0.00701531 0)
(-0.00474111 0.0100923 0)
(-0.00766694 0.013071 0)
(-0.0111575 0.015842 0)
(-0.0151432 0.0183226 0)
(-0.019548 0.0204534 0)
(-0.0242929 0.0221948 0)
(-0.0292968 0.0235228 0)
(-0.0344774 0.0244263 0)
(-0.0397522 0.0249047 0)
(-0.0450405 0.0249656 0)
(-0.0502636 0.024623 0)
(-0.0553462 0.0238961 0)
(-0.060217 0.0228079 0)
(-0.0648095 0.0213846 0)
(-0.0690621 0.0196546 0)
(-0.072919 0.0176482 0)
(-0.0763302 0.0153974 0)
(-0.0792519 0.012935 0)
(-0.0816469 0.0102952 0)
(-0.0834842 0.00751308 0)
(-0.0847398 0.00462456 0)
(-0.0853968 0.00166655 0)
(-0.0854451 -0.00132321 0)
(-0.084882 -0.00430611 0)
(-0.0837123 -0.0072428 0)
(-0.0819483 -0.0100933 0)
(-0.0796099 -0.0128171 0)
(-0.0767248 -0.0153735 0)
(-0.0733284 -0.0177223 0)
(-0.0694638 -0.0198234 0)
(-0.0651817 -0.0216384 0)
(-0.0605399 -0.0231305 0)
(-0.0556034 -0.0242657 0)
(-0.0504429 -0.0250139 0)
(-0.0451353 -0.0253494 0)
(-0.0397615 -0.0252525 0)
(-0.0344063 -0.0247109 0)
(-0.0291564 -0.0237212 0)
(-0.024099 -0.0222902 0)
(-0.0193207 -0.0204376 0)
(-0.0149047 -0.0181974 0)
(-0.0109305 -0.015621 0)
(-0.00747181 -0.0127799 0)
(-0.00459355 -0.00976854 0)
(-0.00234807 -0.00670749 0)
(-0.000806597 -0.00374537 0)
(-0.000112004 -0.0010709 0)
(-0.000137983 0.00163172 0)
(-0.000968439 0.00528576 0)
(-0.00278252 0.00909234 0)
(-0.00538655 0.0128694 0)
(-0.00867813 0.0164754 0)
(-0.0125838 0.0197978 0)
(-0.0170211 0.0227504 0)
(-0.0219027 0.0252712 0)
(-0.02714 0.0273179 0)
(-0.0326433 0.0288655 0)
(-0.0383227 0.029903 0)
(-0.0440897 0.0304308 0)
(-0.0498575 0.0304586 0)
(-0.0555425 0.0300034 0)
(-0.0610649 0.0290885 0)
(-0.0663494 0.0277414 0)
(-0.0713258 0.0259933 0)
(-0.0759295 0.0238783 0)
(-0.0801019 0.0214327 0)
(-0.0837906 0.0186944 0)
(-0.0869497 0.0157029 0)
(-0.0895399 0.0124991 0)
(-0.091529 0.00912471 0)
(-0.0928917 0.00562282 0)
(-0.0936099 0.00203749 0)
(-0.0936729 -0.0015862 0)
(-0.0930776 -0.00520213 0)
(-0.0918285 -0.0087633 0)
(-0.0899382 -0.0122219 0)
(-0.0874269 -0.0155296 0)
(-0.0843232 -0.0186378 0)
(-0.0806638 -0.0214981 0)
(-0.0764936 -0.0240628 0)
(-0.0718653 -0.0262857 0)
(-0.0668396 -0.0281229 0)
(-0.0614846 -0.0295334 0)
(-0.0558751 -0.0304807 0)
(-0.0500924 -0.030934 0)
(-0.0442229 -0.0308693 0)
(-0.0383571 -0.030271 0)
(-0.0325886 -0.029134 0)
(-0.0270123 -0.027465 0)
(-0.0217229 -0.025285 0)
(-0.0168136 -0.0226313 0)
(-0.0123742 -0.0195598 0)
(-0.00849041 -0.0161475 0)
(-0.00524013 -0.0124955 0)
(-0.00268928 -0.00873033 0)
(-0.000927849 -0.00500535 0)
(-0.0001298 -0.00151103 0)
(-0.000155508 0.00215485 0)
(-0.00108745 0.00676003 0)
(-0.00311686 0.0114278 0)
(-0.00601918 0.015978 0)
(-0.00967313 0.0202686 0)
(-0.0139915 0.0241857 0)
(-0.0188788 0.0276415 0)
(-0.0242361 0.0305724 0)
(-0.0299642 0.0329355 0)
(-0.0359647 0.0347057 0)
(-0.0421402 0.035873 0)
(-0.0483952 0.0364397 0)
(-0.0546373 0.0364187 0)
(-0.0607779 0.0358306 0)
(-0.0667329 0.0347032 0)
(-0.0724233 0.033069 0)
(-0.0777756 0.0309649 0)
(-0.0827226 0.0284309 0)
(-0.0872032 0.0255095 0)
(-0.0911629 0.0222453 0)
(-0.0945541 0.0186845 0)
(-0.0973361 0.0148747 0)
(-0.0994752 0.010865 0)
(-0.100945 0.00670554 0)
(-0.101727 0.00244784 0)
(-0.101809 -0.00185544 0)
(-0.101187 -0.00615044 0)
(-0.0998669 -0.0103822 0)
(-0.0978596 -0.014495 0)
(-0.095186 -0.0184321 0)
(-0.091875 -0.0221367 0)
(-0.0879643 -0.025552 0)
(-0.0834997 -0.0286221 0)
(-0.078536 -0.0312925 0)
(-0.0731359 -0.0335114 0)
(-0.0673704 -0.0352305 0)
(-0.061318 -0.0364063 0)
(-0.0550643 -0.0370019 0)
(-0.0487009 -0.0369881 0)
(-0.0423243 -0.0363455 0)
(-0.0360351 -0.0350663 0)
(-0.0299363 -0.0331561 0)
(-0.0241316 -0.0306363 0)
(-0.0187244 -0.0275462 0)
(-0.0138158 -0.0239449 0)
(-0.00950411 -0.0199143 0)
(-0.00588083 -0.0155601 0)
(-0.00302551 -0.0110143 0)
(-0.00104635 -0.0064341 0)
(-0.000146885 -0.00201199 0)
(-0.000172504 0.00273785 0)
(-0.00120395 0.00839951 0)
(-0.0034457 0.0140179 0)
(-0.00664352 0.0194147 0)
(-0.0106578 0.0244482 0)
(-0.0153878 0.0290043 0)
(-0.0207247 0.032995 0)
(-0.0265574 0.0363566 0)
(-0.0327763 0.0390467 0)
(-0.0392735 0.0410417 0)
(-0.0459437 0.0423337 0)
(-0.0526845 0.0429281 0)
(-0.0593978 0.0428415 0)
(-0.0659898 0.0420993 0)
(-0.0723725 0.0407341 0)
(-0.0784632 0.0387843 0)
(-0.0841857 0.0362928 0)
(-0.0894701 0.0333061 0)
(-0.0942536 0.0298732 0)
(-0.0984798 0.0260455 0)
(-0.1021 0.0218763 0)
(-0.105071 0.0174203 0)
(-0.10736 0.0127338 0)
(-0.108938 0.00787447 0)
(-0.109787 0.00290124 0)
(-0.109892 -0.00212547 0)
(-0.109251 -0.00714392 0)
(-0.107868 -0.0120911 0)
(-0.105752 -0.0169029 0)
(-0.102927 -0.0215142 0)
(-0.0994189 -0.0258595 0)
(-0.0952673 -0.0298735 0)
(-0.0905185 -0.0334913 0)
(-0.0852284 -0.0366498 0)
(-0.0794616 -0.0392887 0)
(-0.0732917 -0.0413514 0)
(-0.0668005 -0.042787 0)
(-0.0600776 -0.0435515 0)
(-0.0532198 -0.0436096 0)
(-0.0463299 -0.0429371 0)
(-0.0395157 -0.0415223 0)
(-0.0328885 -0.0393687 0)
(-0.0265619 -0.036497 0)
(-0.02065 -0.0329473 0)
(-0.015266 -0.0287809 0)
(-0.0105215 -0.0240829 0)
(-0.00652194 -0.0189635 0)
(-0.00336068 -0.0135588 0)
(-0.00116385 -0.00803014 0)
(-0.000163637 -0.00257269 0)
(-0.000189248 0.00337972 0)
(-0.00131928 0.0102022 0)
(-0.00377203 0.0168607 0)
(-0.00726434 0.023178 0)
(-0.0116387 0.0290134 0)
(-0.0167805 0.0342535 0)
(-0.0225678 0.0388112 0)
(-0.0288771 0.0426241 0)
(-0.0355876 0.0456518 0)
(-0.042582 0.0478733 0)
(-0.0497467 0.0492842 0)
(-0.0569722 0.049894 0)
(-0.0641544 0.0497242 0)
(-0.0711948 0.0488055 0)
(-0.0780012 0.0471767 0)
(-0.0844878 0.0448824 0)
(-0.0905756 0.0419721 0)
(-0.0961929 0.038499 0)
(-0.101275 0.0345193 0)
(-0.105764 0.0300916 0)
(-0.10961 0.0252762 0)
(-0.11277 0.0201351 0)
(-0.115208 0.0147321 0)
(-0.116897 0.00913217 0)
(-0.117815 0.00340196 0)
(-0.11795 -0.00239038 0)
(-0.117297 -0.00817517 0)
(-0.115858 -0.0138812 0)
(-0.113645 -0.0194359 0)
(-0.110677 -0.0247657 0)
(-0.106983 -0.029796 0)
(-0.102601 -0.0344525 0)
(-0.0975777 -0.0386611 0)
(-0.0919699 -0.0423496 0)
(-0.0858438 -0.0454483 0)
(-0.0792748 -0.0478918 0)
(-0.0723479 -0.0496207 0)
(-0.0651566 -0.0505829 0)
(-0.0578028 -0.0507361 0)
(-0.0503956 -0.05005 0)
(-0.0430503 -0.048508 0)
(-0.0358873 -0.0461101 0)
(-0.0290303 -0.042875 0)
(-0.0226048 -0.0388422 0)
(-0.0167369 -0.0340744 0)
(-0.011552 -0.0286588 0)
(-0.0071702 -0.0227093 0)
(-0.00369888 -0.0163658 0)
(-0.00128208 -0.00979403 0)
(-0.000180398 -0.003193 0)
(-0.000205976 0.00408017 0)
(-0.00143464 0.0121677 0)
(-0.00409873 0.0199558 0)
(-0.00788635 0.0272681 0)
(-0.0126221 0.033965 0)
(-0.0181777 0.0399345 0)
(-0.0244175 0.0450916 0)
(-0.0312053 0.0493764 0)
(-0.0384092 0.0527518 0)
(-0.0459019 0.0552009 0)
(-0.0535611 0.056724 0)
(-0.0612703 0.057336 0)
(-0.0689195 0.0570643 0)
(-0.0764052 0.0559462 0)
(-0.0836315 0.0540272 0)
(-0.0905094 0.0513589 0)
(-0.0969578 0.0479981 0)
(-0.102903 0.0440054 0)
(-0.108279 0.0394443 0)
(-0.113027 0.0343807 0)
(-0.117097 0.0288824 0)
(-0.120444 0.0230189 0)
(-0.123033 0.0168611 0)
(-0.124834 0.0104817 0)
(-0.125826 0.00395475 0)
(-0.125996 -0.00264376 0)
(-0.125338 -0.00923626 0)
(-0.123853 -0.0157434 0)
(-0.121552 -0.0220841 0)
(-0.118453 -0.0281759 0)
(-0.114584 -0.0339355 0)
(-0.109983 -0.0392788 0)
(-0.104696 -0.0441223 0)
(-0.0987803 -0.0483838 0)
(-0.0923027 -0.0519839 0)
(-0.0853405 -0.0548475 0)
(-0.0779813 -0.0569055 0)
(-0.0703224 -0.0580968 0)
(-0.0624708 -0.0583709 0)
(-0.0545418 -0.0576898 0)
(-0.0466587 -0.0560308 0)
(-0.038951 -0.053389 0)
(-0.0315533 -0.0497798 0)
(-0.0246033 -0.0452408 0)
(-0.0182406 -0.0398347 0)
(-0.0126053 -0.0336502 0)
(-0.00783241 -0.0268039 0)
(-0.00404413 -0.0194398 0)
(-0.00140268 -0.0117283 0)
(-0.000197477 -0.0038737 0)
(-0.000222889 0.0048395 0)
(-0.00155111 0.0142968 0)
(-0.00442843 0.0233047 0)
(-0.00851395 0.031687 0)
(-0.0136141 0.0393054 0)
(-0.0195869 0.0460501 0)
(-0.0262825 0.0518389 0)
(-0.0335517 0.0566158 0)
(-0.0412511 0.0603485 0)
(-0.0492431 0.0630253 0)
(-0.0573967 0.0646527 0)
(-0.0655883 0.0652526 0)
(-0.0737017 0.0648593 0)
(-0.0816289 0.0635177 0)
(-0.08927 0.061281 0)
(-0.0965337 0.0582088 0)
(-0.103337 0.0543658 0)
(-0.109604 0.0498203 0)
(-0.115269 0.0446437 0)
(-0.120271 0.0389095 0)
(-0.124561 0.032693 0)
(-0.128094 0.0260711 0)
(-0.130833 0.0191221 0)
(-0.132748 0.0119261 0)
(-0.133819 0.00456471 0)
(-0.134031 -0.00287866 0)
(-0.133375 -0.0103186 0)
(-0.131854 -0.0176675 0)
(-0.129476 -0.0248362 0)
(-0.126259 -0.0317332 0)
(-0.122228 -0.0382658 0)
(-0.117421 -0.0443406 0)
(-0.111883 -0.0498639 0)
(-0.105671 -0.0547431 0)
(-0.0988512 -0.0588882 0)
(-0.0915033 -0.0622134 0)
(-0.0837167 -0.064639 0)
(-0.0755922 -0.0660936 0)
(-0.0672416 -0.066517 0)
(-0.0587867 -0.0658623 0)
(-0.0503587 -0.0640991 0)
(-0.0420968 -0.0612158 0)
(-0.034147 -0.0572229 0)
(-0.0266598 -0.0521551 0)
(-0.0197892 -0.0460736 0)
(-0.0136907 -0.0390678 0)
(-0.00851521 -0.0312565 0)
(-0.00440031 -0.0227878 0)
(-0.00152722 -0.0138374 0)
(-0.000215152 -0.00461639 0)
(-0.00024016 0.00565856 0)
(-0.00166965 0.0165916 0)
(-0.00476351 0.0269104 0)
(-0.00915117 0.0364383 0)
(-0.0146205 0.0450387 0)
(-0.021015 0.0526041 0)
(-0.0281706 0.0590565 0)
(-0.0359246 0.064345 0)
(-0.0441216 0.0684433 0)
(-0.0526136 0.0713467 0)
(-0.0612608 0.0730693 0)
(-0.069932 0.0736411 0)
(-0.0785054 0.073105 0)
(-0.0868682 0.0715147 0)
(-0.0949174 0.0689321 0)
(-0.102559 0.0654256 0)
(-0.109709 0.0610684 0)
(-0.11629 0.0559374 0)
(-0.122236 0.0501119 0)
(-0.127487 0.0436734 0)
(-0.131992 0.0367048 0)
(-0.135707 0.0292904 0)
(-0.138595 0.0215159 0)
(-0.140627 0.0134685 0)
(-0.14178 0.00523706 0)
(-0.142039 -0.00308764 0)
(-0.141396 -0.0114126 0)
(-0.139849 -0.0196425 0)
(-0.137408 -0.0276795 0)
(-0.134086 -0.0354237 0)
(-0.129909 -0.0427731 0)
(-0.124911 -0.0496241 0)
(-0.119137 -0.0558728 0)
(-0.112643 -0.0614157 0)
(-0.105494 -0.0661513 0)
(-0.0977707 -0.0699822 0)
(-0.0895642 -0.0728167 0)
(-0.0809783 -0.0745721 0)
(-0.0721294 -0.0751767 0)
(-0.0631456 -0.074573 0)
(-0.0541662 -0.072721 0)
(-0.0453406 -0.0696011 0)
(-0.0368264 -0.065217 0)
(-0.0287879 -0.0595989 0)
(-0.0213942 -0.0528052 0)
(-0.0148172 -0.044925 0)
(-0.00922495 -0.0360791 0)
(-0.00477112 -0.0264195 0)
(-0.00165714 -0.0161278 0)
(-0.00023368 -0.00542348 0)
(-0.00025794 0.00653868 0)
(-0.00179114 0.0190554 0)
(-0.00510615 0.0307773 0)
(-0.00980164 0.0415274 0)
(-0.0156461 0.0511701 0)
(-0.0224681 0.0596016 0)
(-0.0300887 0.0667487 0)
(-0.0383311 0.0725669 0)
(-0.0470276 0.0770376 0)
(-0.0560193 0.0801646 0)
(-0.0651575 0.0819712 0)
(-0.0743037 0.0824972 0)
(-0.0833302 0.0817955 0)
(-0.0921202 0.0799298 0)
(-0.100568 0.076972 0)
(-0.108576 0.0730001 0)
(-0.116061 0.0680967 0)
(-0.122945 0.0623476 0)
(-0.129162 0.0558408 0)
(-0.134652 0.0486657 0)
(-0.139365 0.0409129 0)
(-0.143257 0.0326742 0)
(-0.146292 0.0240423 0)
(-0.14844 0.0151113 0)
(-0.149679 0.005977 0)
(-0.149993 -0.0032628 0)
(-0.149371 -0.0125079 0)
(-0.147812 -0.0216554 0)
(-0.145321 -0.0305995 0)
(-0.141912 -0.0392316 0)
(-0.137607 -0.0474404 0)
(-0.132438 -0.0551124 0)
(-0.126447 -0.0621328 0)
(-0.119688 -0.0683866 0)
(-0.112227 -0.0737602 0)
(-0.104142 -0.0781434 0)
(-0.0955269 -0.0814316 0)
(-0.0864871 -0.0835287 0)
(-0.0771434 -0.08435 0)
(-0.0676299 -0.0838258 0)
(-0.0580943 -0.0819044 0)
(-0.0486959 -0.078556 0)
(-0.039605 -0.0737758 0)
(-0.0310001 -0.0675876 0)
(-0.0230664 -0.0600458 0)
(-0.0159936 -0.051238 0)
(-0.00996765 -0.0412863 0)
(-0.00516005 -0.0303467 0)
(-0.00179382 -0.0186076 0)
(-0.000253298 -0.00629813 0)
(-0.000276365 0.00748159 0)
(-0.00191634 0.0216923 0)
(-0.0054583 0.0349114 0)
(-0.0104687 0.0469606 0)
(-0.0166957 0.0577061 0)
(-0.0239519 0.0670482 0)
(-0.0320427 0.0749197 0)
(-0.0407768 0.081284 0)
(-0.0499735 0.0861316 0)
(-0.0594631 0.0894768 0)
(-0.0690876 0.0913538 0)
(-0.0787013 0.0918139 0)
(-0.0881709 0.0909216 0)
(-0.0973757 0.0887521 0)
(-0.106207 0.0853883 0)
(-0.114568 0.0809192 0)
(-0.122372 0.0754374 0)
(-0.129544 0.0690384 0)
(-0.136017 0.0618188 0)
(-0.141734 0.0538765 0)
(-0.146644 0.0453098 0)
(-0.150705 0.0362176 0)
(-0.153882 0.0266994 0)
(-0.156146 0.0168559 0)
(-0.157473 0.00678938 0)
(-0.157848 -0.00339587 0)
(-0.157258 -0.0135929 0)
(-0.1557 -0.0236918 0)
(-0.153178 -0.0335791 0)
(-0.149701 -0.0431378 0)
(-0.14529 -0.0522474 0)
(-0.139972 -0.0607844 0)
(-0.133787 -0.068623 0)
(-0.126787 -0.0756361 0)
(-0.119035 -0.0816972 0)
(-0.110608 -0.0866822 0)
(-0.1016 -0.090472 0)
(-0.0921187 -0.0929559 0)
(-0.0822877 -0.0940341 0)
(-0.0722471 -0.0936224 0)
(-0.0621526 -0.0916554 0)
(-0.052174 -0.0880908 0)
(-0.0424944 -0.0829132 0)
(-0.0333075 -0.0761378 0)
(-0.0248158 -0.0678134 0)
(-0.0172277 -0.0580249 0)
(-0.010749 -0.046895 0)
(-0.00557043 -0.0345837 0)
(-0.00193859 -0.0212866 0)
(-0.000274234 -0.00724417 0)
(-0.000295559 0.00848944 0)
(-0.00204599 0.0245075 0)
(-0.00582179 0.0393196 0)
(-0.0111554 0.0527458 0)
(-0.0177731 0.0646543 0)
(-0.0254709 0.0749502 0)
(-0.0340373 0.0835738 0)
(-0.0432658 0.0904979 0)
(-0.0529623 0.095724 0)
(-0.0629456 0.0992788 0)
(-0.0730486 0.101209 0)
(-0.0831183 0.101581 0)
(-0.0930166 0.10047 0)
(-0.102619 0.0979661 0)
(-0.111815 0.0941643 0)
(-0.120508 0.0891653 0)
(-0.128611 0.0830729 0)
(-0.13605 0.0759925 0)
(-0.14276 0.0680303 0)
(-0.148685 0.0592923 0)
(-0.153778 0.0498846 0)
(-0.157997 0.0399129 0)
(-0.161309 0.0294833 0)
(-0.163685 0.0187024 0)
(-0.165102 0.00767849 0)
(-0.165543 -0.00347838 0)
(-0.164996 -0.0146552 0)
(-0.163455 -0.0257354 0)
(-0.16092 -0.0365985 0)
(-0.157399 -0.0471197 0)
(-0.152907 -0.0571695 0)
(-0.147469 -0.0666145 0)
(-0.14112 -0.0753176 0)
(-0.133908 -0.0831391 0)
(-0.125892 -0.0899389 0)
(-0.11715 -0.095578 0)
(-0.107771 -0.0999214 0)
(-0.0978657 -0.102842 0)
(-0.0875602 -0.104222 0)
(-0.0769995 -0.103961 0)
(-0.066347 -0.101978 0)
(-0.0557832 -0.0982146 0)
(-0.0455043 -0.0926427 0)
(-0.0357201 -0.0852667 0)
(-0.0266513 -0.0761276 0)
(-0.018527 -0.0653061 0)
(-0.0115745 -0.0529245 0)
(-0.00600548 -0.0391468 0)
(-0.0020927 -0.0241763 0)
(-0.000296709 -0.00826611 0)
(-0.000315646 0.00956473 0)
(-0.00218079 0.0275071 0)
(-0.0061984 0.0440101 0)
(-0.0118646 0.0588918 0)
(-0.0188824 0.0720228 0)
(-0.0270295 0.0833141 0)
(-0.0360766 0.0927148 0)
(-0.045801 0.100209 0)
(-0.0559945 0.105811 0)
(-0.0664643 0.109563 0)
(-0.077034 0.111527 0)
(-0.0875438 0.111782 0)
(-0.0978507 0.110422 0)
(-0.107828 0.107551 0)
(-0.117363 0.103277 0)
(-0.12636 0.0977146 0)
(-0.134734 0.0909792 0)
(-0.142413 0.0831872 0)
(-0.149334 0.074454 0)
(-0.155445 0.0648945 0)
(-0.1607 0.054622 0)
(-0.165062 0.0437489 0)
(-0.168497 0.0323872 0)
(-0.17098 0.020649 0)
(-0.172486 0.00864762 0)
(-0.173 -0.00350179 0)
(-0.172507 -0.0156809 0)
(-0.170999 -0.0277676 0)
(-0.168474 -0.039635 0)
(-0.164935 -0.0511508 0)
(-0.160394 -0.0621774 0)
(-0.154869 -0.0725713 0)
(-0.148391 -0.0821842 0)
(-0.141003 -0.0908637 0)
(-0.13276 -0.0984551 0)
(-0.123735 -0.104803 0)
(-0.114016 -0.109756 0)
(-0.103712 -0.113167 0)
(-0.0929517 -0.114901 0)
(-0.0818838 -0.114836 0)
(-0.0706791 -0.112872 0)
(-0.0595286 -0.108934 0)
(-0.0486421 -0.102977 0)
(-0.0382461 -0.0949913 0)
(-0.0285813 -0.0850086 0)
(-0.0198987 -0.0731032 0)
(-0.0124493 -0.0593961 0)
(-0.0064683 -0.0440543 0)
(-0.00225741 -0.0272898 0)
(-0.000320942 -0.00936913 0)
(-0.00033675 0.0107103 0)
(-0.00232149 0.030698 0)
(-0.00658994 0.0489921 0)
(-0.0125993 0.0654084 0)
(-0.0200273 0.0798205 0)
(-0.0286316 0.0921463 0)
(-0.0381639 0.102346 0)
(-0.0483841 0.110416 0)
(-0.0590691 0.116387 0)
(-0.0700143 0.120318 0)
(-0.081034 0.122289 0)
(-0.0919617 0.122397 0)
(-0.10265 0.120754 0)
(-0.112971 0.117479 0)
(-0.122813 0.112697 0)
(-0.132079 0.106536 0)
(-0.140688 0.0991255 0)
(-0.148572 0.0905924 0)
(-0.155672 0.0810624 0)
(-0.161938 0.0706585 0)
(-0.16733 0.0595015 0)
(-0.171813 0.04771 0)
(-0.175356 0.035401 0)
(-0.177936 0.0226915 0)
(-0.17953 0.00969875 0)
(-0.18012 -0.00345778 0)
(-0.179693 -0.0166556 0)
(-0.178237 -0.0297679 0)
(-0.175747 -0.0426623 0)
(-0.172222 -0.0552001 0)
(-0.167666 -0.0672358 0)
(-0.162095 -0.0786167 0)
(-0.155532 -0.0891833 0)
(-0.148012 -0.09877 0)
(-0.139587 -0.107207 0)
(-0.130321 -0.114322 0)
(-0.120301 -0.119944 0)
(-0.109633 -0.123906 0)
(-0.0984452 -0.126051 0)
(-0.0868905 -0.126234 0)
(-0.0751457 -0.124334 0)
(-0.0634118 -0.120252 0)
(-0.0519127 -0.113926 0)
(-0.0408926 -0.105328 0)
(-0.0306129 -0.0944773 0)
(-0.0213492 -0.0814397 0)
(-0.0133784 -0.0663328 0)
(-0.006962 -0.0493267 0)
(-0.002434 -0.0306415 0)
(-0.000347162 -0.0105591 0)
(-0.000359015 0.0119295 0)
(-0.00246889 0.0340881 0)
(-0.00699838 0.0542759 0)
(-0.0133627 0.0723063 0)
(-0.0212116 0.0880565 0)
(-0.0302811 0.101453 0)
(-0.040302 0.112468 0)
(-0.0510155 0.121114 0)
(-0.0621831 0.127442 0)
(-0.0735876 0.131528 0)
(-0.0850344 0.133474 0)
(-0.0963508 0.133398 0)
(-0.107387 0.131432 0)
(-0.118012 0.127713 0)
(-0.128117 0.122385 0)
(-0.137608 0.11559 0)
(-0.146408 0.107472 0)
(-0.154452 0.0981703 0)
(-0.161689 0.08782 0)
(-0.168073 0.0765529 0)
(-0.173568 0.0644966 0)
(-0.178145 0.0517751 0)
(-0.181776 0.0385103 0)
(-0.184439 0.0248224 0)
(-0.186115 0.010832 0)
(-0.186786 -0.00333854 0)
(-0.186436 -0.0175638 0)
(-0.185052 -0.0317133 0)
(-0.182625 -0.0456506 0)
(-0.179148 -0.0592316 0)
(-0.174621 -0.0723037 0)
(-0.16905 -0.0847055 0)
(-0.162453 -0.0962668 0)
(-0.154856 -0.106809 0)
(-0.146302 -0.116146 0)
(-0.13685 -0.124089 0)
(-0.126579 -0.130444 0)
(-0.115591 -0.135023 0)
(-0.104015 -0.137643 0)
(-0.0920026 -0.138136 0)
(-0.0797378 -0.136351 0)
(-0.0674306 -0.132168 0)
(-0.0553187 -0.125497 0)
(-0.0436646 -0.116292 0)
(-0.0327528 -0.104555 0)
(-0.0228849 -0.0903396 0)
(-0.0143669 -0.0737596 0)
(-0.00748974 -0.054986 0)
(-0.00262376 -0.0342475 0)
(-0.000375609 -0.0118424 0)
(-0.000382603 0.013226 0)
(-0.00262392 0.0376862 0)
(-0.00742601 0.0598731 0)
(-0.0141582 0.0795974 0)
(-0.0224397 0.0967404 0)
(-0.0319822 0.111239 0)
(-0.0424937 0.12308 0)
(-0.0536952 0.132297 0)
(-0.0653317 0.13896 0)
(-0.0771736 0.14317 0)
(-0.0890171 0.145052 0)
(-0.100684 0.144749 0)
(-0.112022 0.142415 0)
(-0.122903 0.138208 0)
(-0.133217 0.132292 0)
(-0.142878 0.124827 0)
(-0.151813 0.11597 0)
(-0.159964 0.105873 0)
(-0.167285 0.0946825 0)
(-0.17374 0.0825379 0)
(-0.179297 0.0695732 0)
(-0.183932 0.0559173 0)
(-0.187624 0.0416955 0)
(-0.190354 0.0270307 0)
(-0.192103 0.0120452 0)
(-0.192855 -0.00313713 0)
(-0.192594 -0.0183893 0)
(-0.191303 -0.0335789 0)
(-0.18897 -0.0485664 0)
(-0.185581 -0.0632038 0)
(-0.181131 -0.0773328 0)
(-0.175617 -0.0907842 0)
(-0.169046 -0.103378 0)
(-0.161436 -0.114921 0)
(-0.15282 -0.125214 0)
(-0.143246 -0.134045 0)
(-0.132788 -0.141203 0)