/*--------------------------------*- C++ -*----------------------------------*\
  =========                 |
  \\      /  F ield         | OpenFOAM: The Open Source CFD Toolbox
   \\    /   O peration     | Website:  https://openfoam.org
    \\  /    A nd           | Version:  7
     \\/     M anipulation  |
\*---------------------------------------------------------------------------*/
FoamFile
{
    version     2.0;
    format      ascii;
    class       volVectorField;
    location    "0.0376";
    object      U;
}
// * * * * * * * * * * * * * * * * * * * * * * * * * * * * * * * * * * * * * //

dimensions      [0 1 -1 0 0 0 0];

internalField   nonuniform List<vector> 
2500
(
(-0.293811 0.153733 0)
(-0.39796 0.128728 0)
(-0.577989 0.0737911 0)
(-0.696245 0.0408651 0)
(-0.765172 0.0233778 0)
(-0.809427 0.0141195 0)
(-0.839921 0.00913001 0)
(-0.861903 0.00631911 0)
(-0.878409 0.00462788 0)
(-0.891226 0.00353632 0)
(-0.901428 0.00278625 0)
(-0.909699 0.00224367 0)
(-0.916494 0.00183477 0)
(-0.922127 0.00151627 0)
(-0.926825 0.00126122 0)
(-0.930752 0.00105197 0)
(-0.934032 0.000876475 0)
(-0.936757 0.00072617 0)
(-0.938997 0.000594816 0)
(-0.940806 0.000477726 0)
(-0.942225 0.000371284 0)
(-0.943284 0.000272624 0)
(-0.944005 0.000179405 0)
(-0.944402 8.96471e-05 0)
(-0.944485 1.61702e-06 0)
(-0.944256 -8.63075e-05 0)
(-0.943714 -0.000175655 0)
(-0.942851 -0.00026799 0)
(-0.941655 -0.000364995 0)
(-0.940108 -0.000468557 0)
(-0.938183 -0.000580902 0)
(-0.935849 -0.000704757 0)
(-0.933063 -0.000843584 0)
(-0.929769 -0.00100191 0)
(-0.925897 -0.00118584 0)
(-0.921353 -0.00140386 0)
(-0.916015 -0.0016681 0)
(-0.909719 -0.00199664 0)
(-0.902242 -0.00241759 0)
(-0.893269 -0.00297699 0)
(-0.882342 -0.00375446 0)
(-0.868775 -0.00489549 0)
(-0.851479 -0.00667878 0)
(-0.828649 -0.0096554 0)
(-0.797267 -0.0149124 0)
(-0.752186 -0.0245028 0)
(-0.682662 -0.0421606 0)
(-0.565012 -0.0746343 0)
(-0.389346 -0.128142 0)
(-0.290212 -0.152377 0)
(-0.00516783 0.30293 0)
(-0.0270586 0.307341 0)
(-0.171258 0.217742 0)
(-0.308004 0.146486 0)
(-0.416741 0.0990739 0)
(-0.501745 0.0687807 0)
(-0.567863 0.0495007 0)
(-0.619507 0.0369361 0)
(-0.660366 0.0284326 0)
(-0.693169 0.0224419 0)
(-0.719858 0.0180619 0)
(-0.741817 0.0147527 0)
(-0.760042 0.0121804 0)
(-0.775262 0.0101299 0)
(-0.788017 0.00845826 0)
(-0.798714 0.00706678 0)
(-0.807661 0.00588557 0)
(-0.815093 0.00486369 0)
(-0.821194 0.00396311 0)
(-0.826104 0.00315477 0)
(-0.829928 0.00241588 0)
(-0.832747 0.00172817 0)
(-0.834621 0.00107652 0)
(-0.835589 0.000448019 0)
(-0.835675 -0.000168739 0)
(-0.834888 -0.000784302 0)
(-0.833224 -0.00140884 0)
(-0.830665 -0.00205269 0)
(-0.827178 -0.00272684 0)
(-0.822715 -0.00344358 0)
(-0.817211 -0.00421721 0)
(-0.810582 -0.00506504 0)
(-0.802717 -0.00600869 0)
(-0.793476 -0.00707594 0)
(-0.782679 -0.00830345 0)
(-0.770095 -0.00974073 0)
(-0.755427 -0.0114564 0)
(-0.738283 -0.0135479 0)
(-0.718145 -0.0161579 0)
(-0.694317 -0.0195016 0)
(-0.665851 -0.0239148 0)
(-0.631438 -0.0299378 0)
(-0.589258 -0.0384655 0)
(-0.536785 -0.0510082 0)
(-0.470698 -0.0700908 0)
(-0.387145 -0.0996562 0)
(-0.281945 -0.145119 0)
(-0.151621 -0.212666 0)
(-0.0164985 -0.298249 0)
(-0.000999769 -0.294705 0)
(0.0321144 0.264068 0)
(0.0564208 0.362272 0)
(-0.00344408 0.324789 0)
(-0.0954748 0.260227 0)
(-0.191536 0.200458 0)
(-0.279941 0.15333 0)
(-0.356581 0.118316 0)
(-0.421253 0.0926639 0)
(-0.475322 0.0737372 0)
(-0.520478 0.0595471 0)
(-0.558283 0.0486978 0)
(-0.590047 0.040231 0)
(-0.616823 0.033489 0)
(-0.639445 0.0280154 0)
(-0.658569 0.0234882 0)
(-0.674709 0.0196762 0)
(-0.688268 0.0164096 0)
(-0.699566 0.013562 0)
(-0.70885 0.0110366 0)
(-0.716318 0.00875845 0)
(-0.722121 0.00666797 0)
(-0.726374 0.00471671 0)
(-0.729162 0.00286427 0)
(-0.730545 0.00107592 0)
(-0.730559 -0.000679237 0)
(-0.72922 -0.00242973 0)
(-0.726521 -0.00420314 0)
(-0.72244 -0.00602734 0)
(-0.716933 -0.00793181 0)
(-0.709934 -0.00994919 0)
(-0.701355 -0.0121171 0)
(-0.69108 -0.0144804 0)
(-0.678962 -0.0170943 0)
(-0.664816 -0.0200286 0)
(-0.648408 -0.0233735 0)
(-0.629446 -0.027248 0)
(-0.607563 -0.0318122 0)
(-0.582297 -0.0372851 0)
(-0.553066 -0.043972 0)
(-0.519138 -0.0523053 0)
(-0.4796 -0.0629052 0)
(-0.433343 -0.0766677 0)
(-0.379086 -0.0948799 0)
(-0.315522 -0.119343 0)
(-0.241776 -0.152386 0)
(-0.15854 -0.196321 0)
(-0.0701333 -0.251303 0)
(0.0121287 -0.30999 0)
(0.0619572 -0.343337 0)
(0.0330172 -0.249973 0)
(0.0271606 0.20523 0)
(0.063827 0.35767 0)
(0.0553802 0.375329 0)
(0.00836568 0.338016 0)
(-0.0588429 0.285221 0)
(-0.131925 0.234223 0)
(-0.20274 0.190782 0)
(-0.267523 0.155589 0)
(-0.32502 0.127588 0)
(-0.375235 0.105362 0)
(-0.418722 0.0876144 0)
(-0.456213 0.0732937 0)
(-0.488449 0.0615905 0)
(-0.516103 0.0518928 0)
(-0.539757 0.0437399 0)
(-0.559901 0.0367837 0)
(-0.576941 0.0307586 0)
(-0.591209 0.0254599 0)
(-0.602975 0.0207276 0)
(-0.612455 0.0164345 0)
(-0.619822 0.012478 0)
(-0.625207 0.00877329 0)
(-0.628712 0.00524902 0)
(-0.630408 0.00184322 0)
(-0.630338 -0.00149948 0)
(-0.628525 -0.00483035 0)
(-0.624966 -0.00819884 0)
(-0.619638 -0.0116546 0)
(-0.612495 -0.0152498 0)
(-0.603468 -0.0190414 0)
(-0.592462 -0.0230942 0)
(-0.579357 -0.0274839 0)
(-0.564001 -0.0323025 0)
(-0.546205 -0.0376632 0)
(-0.52574 -0.0437091 0)
(-0.502331 -0.0506231 0)
(-0.475645 -0.058643 0)
(-0.445292 -0.0680806 0)
(-0.41082 -0.0793474 0)
(-0.371722 -0.0929872 0)
(-0.327476 -0.109714 0)
(-0.277615 -0.130441 0)
(-0.221911 -0.156276 0)
(-0.160705 -0.188389 0)
(-0.0955448 -0.227569 0)
(-0.0302318 -0.272985 0)
(0.0275796 -0.319266 0)
(0.0648815 -0.350819 0)
(0.0656915 -0.332052 0)
(0.0268569 -0.190006 0)
(0.0184697 0.163405 0)
(0.0531997 0.33131 0)
(0.0687989 0.3865 0)
(0.0533927 0.379001 0)
(0.0141304 0.343138 0)
(-0.0382812 0.298486 0)
(-0.0956943 0.254606 0)
(-0.152921 0.215343 0)
(-0.207039 0.181697 0)
(-0.256637 0.153419 0)
(-0.301219 0.129804 0)
(-0.340787 0.110062 0)
(-0.375595 0.0934671 0)
(-0.405998 0.0793993 0)
(-0.432376 0.0673519 0)
(-0.455094 0.0569165 0)
(-0.474482 0.0477656 0)
(-0.490827 0.0396362 0)
(-0.504376 0.032316 0)
(-0.515333 0.0256318 0)
(-0.523866 0.0194405 0)
(-0.530108 0.013622 0)
(-0.534162 0.00807354 0)
(-0.536103 0.00270513 0)
(-0.535982 -0.00256421 0)
(-0.533823 -0.00780967 0)
(-0.52963 -0.0131035 0)
(-0.523387 -0.018518 0)
(-0.515053 -0.0241278 0)
(-0.504568 -0.0300138 0)
(-0.49185 -0.0362658 0)
(-0.476794 -0.0429872 0)
(-0.459273 -0.0502998 0)
(-0.439131 -0.0583502 0)
(-0.416192 -0.0673175 0)
(-0.390253 -0.077423 0)
(-0.361093 -0.0889415 0)
(-0.328485 -0.102215 0)
(-0.292213 -0.117663 0)
(-0.252121 -0.135796 0)
(-0.208183 -0.157201 0)
(-0.160641 -0.182499 0)
(-0.110224 -0.212207 0)
(-0.0584911 -0.246415 0)
(-0.00831999 -0.284098 0)
(0.0355198 -0.321747 0)
(0.065846 -0.350918 0)
(0.0735086 -0.354425 0)
(0.0532012 -0.301928 0)
(0.0179043 -0.148442 0)
(0.0119732 0.134554 0)
(0.0409371 0.300188 0)
(0.0655994 0.377301 0)
(0.0691406 0.39459 0)
(0.0513311 0.3777 0)
(0.0182121 0.344456 0)
(-0.023968 0.30563 0)
(-0.0702281 0.267011 0)
(-0.117065 0.231315 0)
(-0.162262 0.199524 0)
(-0.204545 0.171737 0)
(-0.243277 0.147641 0)
(-0.278217 0.126775 0)
(-0.309358 0.108652 0)
(-0.336818 0.0928188 0)
(-0.360781 0.0788759 0)
(-0.381448 0.0664813 0)
(-0.39902 0.0553461 0)
(-0.413685 0.0452272 0)
(-0.425609 0.0359195 0)
(-0.434934 0.0272492 0)
(-0.441778 0.0190671 0)
(-0.446236 0.0112432 0)
(-0.44838 0.00366246 0)
(-0.448261 -0.00377963 0)
(-0.445907 -0.0111803 0)
(-0.44133 -0.0186327 0)
(-0.434522 -0.0262292 0)
(-0.425457 -0.0340645 0)
(-0.414095 -0.0422385 0)
(-0.400378 -0.0508605 0)
(-0.384234 -0.0600527 0)
(-0.365579 -0.0699552 0)
(-0.344321 -0.0807307 0)
(-0.32036 -0.0925707 0)
(-0.293606 -0.105701 0)
(-0.263983 -0.120385 0)
(-0.231462 -0.136931 0)
(-0.196091 -0.155678 0)
(-0.15806 -0.176984 0)
(-0.11779 -0.201166 0)
(-0.0760652 -0.228399 0)
(-0.0342256 -0.258488 0)
(0.00559868 -0.290478 0)
(0.0402479 -0.321949 0)
(0.065435 -0.347894 0)
(0.0759878 -0.3591 0)
(0.0671588 -0.340285 0)
(0.0401423 -0.269145 0)
(0.0114455 -0.120167 0)
(0.00789082 0.113956 0)
(0.0311996 0.270744 0)
(0.0577123 0.359003 0)
(0.071334 0.394345 0)
(0.0681655 0.394519 0)
(0.0505418 0.37406 0)
(0.0224169 0.343221 0)
(-0.0122534 0.308528 0)
(-0.0501654 0.273764 0)
(-0.0888612 0.240902 0)
(-0.126656 0.210809 0)
(-0.162473 0.183719 0)
(-0.195675 0.159531 0)
(-0.225926 0.137985 0)
(-0.253086 0.118761 0)
(-0.277137 0.101534 0)
(-0.298132 0.0859955 0)
(-0.316162 0.0718662 0)
(-0.331334 0.0588988 0)
(-0.343755 0.0468757 0)
(-0.353528 0.0356062 0)
(-0.360743 0.0249224 0)
(-0.365479 0.014675 0)
(-0.367795 0.00472969 0)
(-0.367741 -0.00503649 0)
(-0.365347 -0.0147383 0)
(-0.360632 -0.0244857 0)
(-0.3536 -0.0343864 0)
(-0.344245 -0.0445492 0)
(-0.332551 -0.0550868 0)
(-0.318494 -0.0661192 0)
(-0.302044 -0.0777763 0)
(-0.283176 -0.0902018 0)
(-0.261867 -0.103556 0)
(-0.238114 -0.118016 0)
(-0.211941 -0.133782 0)
(-0.183427 -0.151065 0)
(-0.152729 -0.170086 0)
(-0.120129 -0.191044 0)
(-0.0860917 -0.214081 0)
(-0.0513467 -0.239193 0)
(-0.016992 -0.266088 0)
(0.0153872 -0.29395 0)
(0.0436123 -0.321052 0)
(0.0648918 -0.344191 0)
(0.0760292 -0.357918 0)
(0.0739964 -0.353683 0)
(0.0572986 -0.319255 0)
(0.0300687 -0.239379 0)
(0.00744827 -0.100272 0)
(0.00544611 0.098781 0)
(0.0241967 0.244793 0)
(0.0495067 0.337429 0)
(0.0678083 0.384847 0)
(0.0738965 0.398812 0)
(0.0677171 0.390436 0)
(0.0512651 0.368603 0)
(0.0272637 0.339708 0)
(-0.00158202 0.30799 0)
(-0.0329708 0.276052 0)
(-0.0651187 0.245368 0)
(-0.0967282 0.216669 0)
(-0.126904 0.19023 0)
(-0.155062 0.166062 0)
(-0.180843 0.144028 0)
(-0.204044 0.12392 0)
(-0.224571 0.105504 0)
(-0.2424 0.088546 0)
(-0.257547 0.0728186 0)
(-0.270052 0.058113 0)
(-0.279968 0.0442376 0)
(-0.28735 0.0310181 0)
(-0.292251 0.0182959 0)
(-0.294716 0.00592586 0)
(-0.294788 -0.0062266 0)
(-0.292497 -0.0182876 0)
(-0.287869 -0.0303773 0)
(-0.280922 -0.0426129 0)
(-0.271669 -0.0551102 0)
(-0.260123 -0.0679867 0)
(-0.246295 -0.0813631 0)
(-0.230204 -0.0953657 0)
(-0.211883 -0.110127 0)
(-0.191383 -0.125787 0)
(-0.16879 -0.14249 0)
(-0.144241 -0.160381 0)
(-0.117945 -0.179593 0)
(-0.0902109 -0.200227 0)
(-0.0614919 -0.22232 0)
(-0.0324306 -0.245781 0)
(-0.00391853 -0.270298 0)
(0.0228427 -0.295194 0)
(0.0462947 -0.319199 0)
(0.0645225 -0.340151 0)
(0.0753746 -0.354585 0)
(0.0768013 -0.357304 0)
(0.0674703 -0.34105 0)
(0.0478443 -0.296602 0)
(0.0229003 -0.213928 0)
(0.00506752 -0.085847 0)
(0.00396305 0.0871853 0)
(0.0192449 0.222412 0)
(0.0423064 0.315458 0)
(0.062259 0.370382 0)
(0.073824 0.394784 0)
(0.0756326 0.396837 0)
(0.0682662 0.383806 0)
(0.0533364 0.361471 0)
(0.0328312 0.334063 0)
(0.00868276 0.304481 0)
(-0.0174419 0.274593 0)
(-0.0442061 0.24552 0)
(-0.0705933 0.217874 0)
(-0.0958627 0.191927 0)
(-0.119495 0.167745 0)
(-0.141142 0.145264 0)
(-0.16058 0.124352 0)
(-0.177676 0.104842 0)
(-0.19236 0.0865512 0)
(-0.204602 0.0692977 0)
(-0.214401 0.0529051 0)
(-0.221773 0.0372057 0)
(-0.226741 0.0220426 0)
(-0.229335 0.00726875 0)
(-0.229584 -0.00725378 0)
(-0.22752 -0.021655 0)
(-0.223171 -0.0360587 0)
(-0.216568 -0.0505837 0)
(-0.207746 -0.0653457 0)
(-0.196741 -0.0804584 0)
(-0.183604 -0.0960343 0)
(-0.168397 -0.112185 0)
(-0.151207 -0.12902 0)
(-0.132153 -0.146645 0)
(-0.111398 -0.165155 0)
(-0.0891696 -0.184626 0)
(-0.0657748 -0.205097 0)
(-0.0416303 -0.226543 0)
(-0.0172909 -0.248836 0)
(0.00651658 -0.271676 0)
(0.0288616 -0.294503 0)
(0.0485886 -0.31636 0)
(0.0643259 -0.335719 0)
(0.0745542 -0.350255 0)
(0.0777887 -0.356607 0)
(0.0729324 -0.350178 0)
(0.0597961 -0.325126 0)
(0.0398317 -0.27474 0)
(0.0178504 -0.192566 0)
(0.0036243 -0.0750214 0)
(0.003025 0.0779989 0)
(0.0156912 0.203161 0)
(0.036326 0.294408 0)
(0.0563235 0.353583 0)
(0.0708689 0.385516 0)
(0.0779971 0.396073 0)
(0.0773824 0.390986 0)
(0.0697678 0.375214 0)
(0.0564671 0.352695 0)
(0.0389713 0.326363 0)
(0.0187096 0.298282 0)
(-0.00306788 0.269837 0)
(-0.0253325 0.241898 0)
(-0.0472747 0.214971 0)
(-0.0682793 0.189312 0)
(-0.0878938 0.165008 0)
(-0.105795 0.14204 0)
(-0.12176 0.120327 0)
(-0.135639 0.0997451 0)
(-0.147342 0.0801554 0)
(-0.156813 0.0614098 0)
(-0.164028 0.0433596 0)
(-0.168982 0.0258598 0)
(-0.171683 0.00877092 0)
(-0.17215 -0.00803996 0)
(-0.170407 -0.0246991 0)
(-0.166489 -0.0413264 0)
(-0.160437 -0.0580356 0)
(-0.1523 -0.0749346 0)
(-0.142141 -0.0921256 0)
(-0.130041 -0.109705 0)
(-0.1161 -0.12776 0)
(-0.100452 -0.146369 0)
(-0.0832694 -0.165594 0)
(-0.064776 -0.185473 0)
(-0.0452619 -0.206006 0)
(-0.0251006 -0.227135 0)
(-0.00476728 -0.248719 0)
(0.0151408 -0.27048 0)
(0.0338877 -0.291955 0)
(0.0505893 -0.312404 0)
(0.0642236 -0.330706 0)
(0.0736739 -0.345231 0)
(0.0778306 -0.353695 0)
(0.0757829 -0.353039 0)
(0.0671286 -0.339385 0)
(0.0523593 -0.308182 0)
(0.0333109 -0.254643 0)
(0.0142339 -0.174671 0)
(0.00271114 -0.0666203 0)
(0.0023998 0.0705002 0)
(0.0130703 0.186525 0)
(0.0314267 0.274807 0)
(0.0506607 0.336004 0)
(0.066592 0.373139 0)
(0.0770857 0.390363 0)
(0.0812944 0.392091 0)
(0.0793444 0.382437 0)
(0.0719906 0.3649 0)
(0.0602962 0.342269 0)
(0.0454067 0.316655 0)
(0.028413 0.289579 0)
(0.0102788 0.262092 0)
(-0.00818639 0.234882 0)
(-0.0263286 0.20837 0)
(-0.0436352 0.182784 0)
(-0.0597151 0.158221 0)
(-0.0742775 0.134689 0)
(-0.0871116 0.112135 0)
(-0.0980694 0.0904729 0)
(-0.107052 0.0695932 0)
(-0.113996 0.0493766 0)
(-0.118867 0.0296993 0)
(-0.121655 0.0104379 0)
(-0.122363 -0.0085279 0)
(-0.121012 -0.0273132 0)
(-0.117635 -0.046027 0)
(-0.112281 -0.0647711 0)
(-0.105013 -0.0836393 0)
(-0.095912 -0.102716 0)
(-0.085083 -0.122074 0)
(-0.072658 -0.141772 0)
(-0.0588046 -0.161849 0)
(-0.0437334 -0.182321 0)
(-0.0277087 -0.203163 0)
(-0.0110597 -0.224304 0)
(0.00580787 -0.245597 0)
(0.0223993 -0.266794 0)
(0.0381217 -0.287505 0)
(0.0522811 -0.307145 0)
(0.0640901 -0.324867 0)
(0.0726976 -0.339482 0)
(0.0772497 -0.349373 0)
(0.0769987 -0.352417 0)
(0.0714769 -0.345944 0)
(0.0607417 -0.326782 0)
(0.0456386 -0.291456 0)
(0.0280501 -0.236591 0)
(0.0115744 -0.159615 0)
(0.00210309 -0.0599178 0)
(0.00196034 0.0642366 0)
(0.0110749 0.172048 0)
(0.0273938 0.256806 0)
(0.0454844 0.318536 0)
(0.0618019 0.359095 0)
(0.0742691 0.381387 0)
(0.0817819 0.388761 0)
(0.084062 0.384552 0)
(0.0814378 0.371774 0)
(0.074602 0.352971 0)
(0.0644185 0.330185 0)
(0.051788 0.30498 0)
(0.0375641 0.278509 0)
(0.0225068 0.251587 0)
(0.00726397 0.224767 0)
(-0.0076302 0.198399 0)
(-0.0217474 0.172686 0)
(-0.0347523 0.147726 0)
(-0.0463889 0.123539 0)
(-0.0564662 0.100097 0)
(-0.0648466 0.0773377 0)
(-0.0714354 0.0551772 0)
(-0.0761723 0.0335206 0)
(-0.0790255 0.012268 0)
(-0.0799868 -0.00868132 0)
(-0.0790689 -0.0294251 0)
(-0.0763038 -0.0500554 0)
(-0.0717428 -0.0706565 0)
(-0.0654578 -0.0913023 0)
(-0.0575436 -0.112054 0)
(-0.0481215 -0.132958 0)
(-0.0373445 -0.154038 0)
(-0.0254024 -0.175294 0)
(-0.0125292 -0.196691 0)
(0.000989324 -0.218149 0)
(0.0148081 -0.239526 0)
(0.0285152 -0.260601 0)
(0.0416269 -0.281042 0)
(0.0535866 -0.300376 0)
(0.0637719 -0.317942 0)
(0.0715142 -0.332843 0)
(0.0761374 -0.343894 0)
(0.0770247 -0.349565 0)
(0.0737191 -0.347955 0)
(0.0660684 -0.336798 0)
(0.0544071 -0.313551 0)
(0.0397235 -0.275592 0)
(0.0237798 -0.220563 0)
(0.00955967 -0.14687 0)
(0.00167709 -0.0544558 0)
(0.00163595 0.0589146 0)
(0.00950639 0.159368 0)
(0.0240285 0.240395 0)
(0.0408178 0.301687 0)
(0.0568996 0.344347 0)
(0.0703625 0.370386 0)
(0.080013 0.382318 0)
(0.0853302 0.382803 0)
(0.0863375 0.374381 0)
(0.0834294 0.359307 0)
(0.0772175 0.339485 0)
(0.0684105 0.316446 0)
(0.0577305 0.291383 0)
(0.045858 0.26519 0)
(0.0334028 0.238513 0)
(0.0208901 0.2118 0)
(0.00875909 0.185347 0)
(-0.00263242 0.159333 0)
(-0.0129998 0.133851 0)
(-0.0221221 0.108933 0)
(-0.0298328 0.0845641 0)
(-0.0360112 0.0607039 0)
(-0.0405749 0.0372909 0)
(-0.0434745 0.0142538 0)
(-0.0446888 -0.00848311 0)
(-0.0442222 -0.0309949 0)
(-0.0421027 -0.0533519 0)
(-0.0383816 -0.075616 0)
(-0.0331346 -0.0978376 0)
(-0.0264635 -0.120051 0)
(-0.0184992 -0.142273 0)
(-0.00940519 -0.164491 0)
(0.000617434 -0.186666 0)
(0.0113253 -0.208714 0)
(0.0224274 -0.230504 0)
(0.0335811 -0.251835 0)
(0.0443885 -0.272422 0)
(0.0543972 -0.291874 0)
(0.0631057 -0.309662 0)
(0.0699765 -0.325088 0)
(0.0744622 -0.337251 0)
(0.076047 -0.345013 0)
(0.0743104 -0.346976 0)
(0.0690136 -0.341479 0)
(0.0602132 -0.326636 0)
(0.0483907 -0.300431 0)
(0.034551 -0.260905 0)
(0.0202663 -0.206421 0)
(0.00798724 -0.136019 0)
(0.00136441 -0.0499341 0)
(0.00138598 0.0543368 0)
(0.00823518 0.148206 0)
(0.0211699 0.2255 0)
(0.0366109 0.285741 0)
(0.0520708 0.329539 0)
(0.0658444 0.358269 0)
(0.0767494 0.373804 0)
(0.0841367 0.378242 0)
(0.0878252 0.373689 0)
(0.0879827 0.362105 0)
(0.0850092 0.345216 0)
(0.0794367 0.324477 0)
(0.0718524 0.30107 0)
(0.062843 0.275921 0)
(0.0529595 0.24974 0)
(0.0426963 0.223047 0)
(0.0324826 0.196212 0)
(0.0226802 0.169487 0)
(0.0135869 0.143031 0)
(0.00544098 0.116932 0)
(-0.00157136 0.0912284 0)
(-0.00731027 0.0659206 0)
(-0.0116761 0.0409852 0)
(-0.0146045 0.0163831 0)
(-0.0160624 -0.00793251 0)
(-0.0160452 -0.0320103 0)
(-0.0145751 -0.0558953 0)
(-0.0117004 -0.0796239 0)
(-0.00749625 -0.10322 0)
(-0.00206556 -0.12669 0)
(0.00445862 -0.150016 0)
(0.0119104 -0.173155 0)
(0.0200879 -0.196026 0)
(0.02875 -0.218504 0)
(0.0376136 -0.240408 0)
(0.0463517 -0.261492 0)
(0.0545946 -0.281424 0)
(0.0619333 -0.299768 0)
(0.0679297 -0.315965 0)
(0.072133 -0.32931 0)
(0.074108 -0.338927 0)
(0.0734753 -0.343756 0)
(0.0699673 -0.342545 0)
(0.0634991 -0.333868 0)
(0.0542543 -0.316173 0)
(0.0427738 -0.287878 0)
(0.0300095 -0.247529 0)
(0.0173246 -0.194 0)
(0.00672418 -0.126745 0)
(0.00112527 -0.0461504 0)
(0.0011861 0.0503668 0)
(0.00717533 0.138348 0)
(0.0186946 0.212031 0)
(0.0327924 0.270853 0)
(0.0473895 0.315101 0)
(0.0609929 0.3457 0)
(0.072487 0.364031 0)
(0.0811724 0.371736 0)
(0.0867406 0.370545 0)
(0.0891958 0.362133 0)
(0.0887696 0.34804 0)
(0.0858412 0.329611 0)
(0.0808709 0.307984 0)
(0.0743479 0.284089 0)
(0.0667539 0.258664 0)
(0.0585386 0.232281 0)
(0.0501059 0.205366 0)
(0.0418071 0.178231 0)
(0.0339396 0.151093 0)
(0.0267485 0.124092 0)
(0.0204305 0.0973168 0)
(0.0151376 0.0708098 0)
(0.010982 0.0445862 0)
(0.00803988 0.018641 0)
(0.00635489 -0.00704171 0)
(0.00594041 -0.0324817 0)
(0.0067814 -0.0576962 0)
(0.00883509 -0.0826946 0)
(0.012031 -0.107472 0)
(0.0162699 -0.132007 0)
(0.021423 -0.156249 0)
(0.0273293 -0.180122 0)
(0.0337945 -0.203507 0)
(0.0405889 -0.226243 0)
(0.0474468 -0.248109 0)
(0.0540666 -0.26882 0)
(0.0601147 -0.28801 0)
(0.0652313 -0.305217 0)
(0.0690429 -0.31987 0)
(0.0711801 -0.331276 0)
(0.0713051 -0.338604 0)
(0.069148 -0.340882 0)
(0.0645542 -0.337009 0)
(0.0575405 -0.325771 0)
(0.0483579 -0.305905 0)
(0.0375508 -0.276175 0)
(0.0259824 -0.235507 0)
(0.0148133 -0.183141 0)
(0.00568131 -0.118806 0)
(0.000935587 -0.0429637 0)
(0.00102101 0.0469077 0)
(0.00626844 0.129632 0)
(0.0165093 0.199898 0)
(0.0292911 0.257105 0)
(0.0428743 0.301326 0)
(0.0559673 0.333163 0)
(0.0675494 0.353626 0)
(0.0769215 0.363993 0)
(0.0837047 0.365672 0)
(0.0877915 0.360083 0)
(0.0892854 0.348578 0)
(0.0884393 0.332382 0)
(0.0856009 0.312569 0)
(0.0811661 0.290043 0)
(0.0755442 0.265553 0)
(0.0691324 0.239698 0)
(0.0622994 0.212946 0)
(0.055375 0.185656 0)
(0.0486462 0.158091 0)
(0.0423555 0.130443 0)
(0.0367018 0.102841 0)
(0.0318433 0.0753701 0)
(0.0279001 0.0480837 0)
(0.0249568 0.0210108 0)
(0.0230657 -0.00583257 0)
(0.0222488 -0.0324365 0)
(0.0224989 -0.0587898 0)
(0.0237809 -0.0848736 0)
(0.0260319 -0.110655 0)
(0.029161 -0.136082 0)
(0.033048 -0.161077 0)
(0.0375433 -0.185528 0)
(0.0424665 -0.209288 0)
(0.047606 -0.232159 0)
(0.05272 -0.253889 0)
(0.0575383 -0.274164 0)
(0.0617671 -0.292593 0)
(0.0650972 -0.308702 0)
(0.0672161 -0.321921 0)
(0.0678267 -0.33158 0)
(0.0666715 -0.336903 0)
(0.0635648 -0.337012 0)
(0.0584311 -0.330943 0)
(0.0513482 -0.317673 0)
(0.0425926 -0.296176 0)
(0.0326782 -0.265492 0)
(0.0223644 -0.224835 0)
(0.0126257 -0.173707 0)
(0.00479735 -0.11202 0)
(0.000780105 -0.0402744 0)
(0.000880742 0.0438894 0)
(0.00547392 0.121937 0)
(0.0145444 0.189025 0)
(0.0260441 0.244541 0)
(0.0385177 0.288415 0)
(0.0508575 0.321017 0)
(0.0621493 0.343077 0)
(0.0717259 0.355584 0)
(0.0791789 0.359678 0)
(0.0843301 0.356557 0)
(0.0871896 0.347397 0)
(0.0879103 0.3333 0)
(0.0867441 0.315262 0)
(0.0840023 0.294149 0)
(0.0800236 0.270701 0)
(0.0751502 0.245528 0)
(0.0697095 0.219126 0)
(0.0640031 0.191886 0)
(0.0582997 0.164114 0)
(0.0528316 0.136038 0)
(0.0477937 0.10783 0)
(0.0433445 0.0796123 0)
(0.0396075 0.0514733 0)
(0.0366728 0.0234757 0)
(0.0345995 -0.00433347 0)
(0.0334171 -0.0319147 0)
(0.033127 -0.0592285 0)
(0.0337029 -0.086228 0)
(0.0350921 -0.112853 0)
(0.0372146 -0.139024 0)
(0.0399634 -0.164633 0)
(0.0432044 -0.189542 0)
(0.0467756 -0.213572 0)
(0.0504885 -0.236499 0)
(0.0541292 -0.258045 0)
(0.0574616 -0.277871 0)
(0.060233 -0.295573 0)
(0.0621823 -0.310671 0)
(0.0630528 -0.322605 0)
(0.0626084 -0.330737 0)
(0.0606556 -0.334347 0)
(0.0570704 -0.332646 0)
(0.0518286 -0.324795 0)
(0.045039 -0.309933 0)
(0.036975 -0.287227 0)
(0.0281003 -0.255937 0)
(0.0190663 -0.215492 0)
(0.0106813 -0.165584 0)
(0.0040292 -0.106251 0)
(0.000648771 -0.0380105 0)
(0.000758525 0.0412603 0)
(0.00476295 0.115168 0)
(0.0127474 0.179345 0)
(0.022999 0.233179 0)
(0.0343017 0.276504 0)
(0.0457128 0.309524 0)
(0.0564276 0.332757 0)
(0.0658295 0.346965 0)
(0.0735091 0.35307 0)
(0.0792484 0.352075 0)
(0.0829933 0.345001 0)
(0.0848205 0.332831 0)
(0.0849033 0.31648 0)
(0.0834788 0.296767 0)
(0.0808209 0.274408 0)
(0.0772171 0.250014 0)
(0.0729517 0.224095 0)
(0.0682934 0.197067 0)
(0.0634874 0.169264 0)
(0.0587502 0.14095 0)
(0.0542675 0.112328 0)
(0.0501934 0.0835568 0)
(0.0466508 0.0547558 0)
(0.0437324 0.026019 0)
(0.0415021 -0.00257682 0)
(0.0399959 -0.030964 0)
(0.0392235 -0.0590759 0)
(0.0391687 -0.0868392 0)
(0.0397901 -0.114167 0)
(0.0410212 -0.140955 0)
(0.0427709 -0.167068 0)
(0.0449234 -0.192342 0)
(0.0473388 -0.216574 0)
(0.0498541 -0.239515 0)
(0.0522856 -0.260865 0)
(0.0544321 -0.280272 0)
(0.0560809 -0.297318 0)
(0.0570159 -0.311526 0)
(0.0570285 -0.322351 0)
(0.0559332 -0.329187 0)
(0.0535855 -0.331368 0)
(0.049904 -0.328188 0)
(0.0448945 -0.318913 0)
(0.0386746 -0.302819 0)
(0.0314959 -0.27923 0)
(0.0237608 -0.247575 0)
(0.0160151 -0.207449 0)
(0.00891919 -0.158681 0)
(0.00334594 -0.101396 0)
(0.00053472 -0.0361197 0)
(0.00064963 0.0389818 0)
(0.00411466 0.109255 0)
(0.0110788 0.170805 0)
(0.0201129 0.223028 0)
(0.0302049 0.265694 0)
(0.0405597 0.298884 0)
(0.0504795 0.322959 0)
(0.0594091 0.338503 0)
(0.0669573 0.346261 0)
(0.0728898 0.347075 0)
(0.0771116 0.341827 0)
(0.0796435 0.331393 0)
(0.0805963 0.316606 0)
(0.0801448 0.298234 0)
(0.0785045 0.276965 0)
(0.0759115 0.253399 0)
(0.0726069 0.228051 0)
(0.0688248 0.201352 0)
(0.0647834 0.173658 0)
(0.0606796 0.145259 0)
(0.0566858 0.116387 0)
(0.0529478 0.0872294 0)
(0.0495846 0.0579345 0)
(0.0466888 0.0286246 0)
(0.044327 -0.000597016 0)
(0.0425409 -0.0296364 0)
(0.0413478 -0.0584017 0)
(0.0407417 -0.0867951 0)
(0.0406937 -0.114706 0)
(0.0411522 -0.142005 0)
(0.0420437 -0.168536 0)
(0.0432727 -0.194111 0)
(0.0447232 -0.218505 0)
(0.0462594 -0.241448 0)
(0.0477284 -0.262625 0)
(0.0489636 -0.28167 0)
(0.0497901 -0.29816 0)
(0.050032 -0.311622 0)
(0.0495223 -0.321526 0)
(0.048116 -0.327297 0)
(0.0457046 -0.32832 0)
(0.0422342 -0.323957 0)
(0.0377242 -0.313566 0)
(0.032285 -0.296533 0)
(0.0261347 -0.272308 0)
(0.0196086 -0.240449 0)
(0.0131518 -0.200678 0)
(0.007293 -0.152925 0)
(0.00272496 -0.0973784 0)
(0.00043313 -0.0345638 0)
(0.000550664 0.037025 0)
(0.00351366 0.104143 0)
(0.00950848 0.163362 0)
(0.0173512 0.214089 0)
(0.0262067 0.256052 0)
(0.0354116 0.289244 0)
(0.0443704 0.313907 0)
(0.052595 0.330488 0)
(0.0597253 0.33959 0)
(0.0655277 0.341922 0)
(0.0698845 0.338249 0)
(0.0727777 0.329348 0)
(0.0742701 0.31598 0)
(0.0744851 0.29886 0)
(0.0735873 0.278643 0)
(0.0717658 0.255913 0)
(0.0692204 0.231183 0)
(0.0661498 0.204892 0)
(0.0627439 0.17741 0)
(0.0591773 0.149048 0)
(0.0556058 0.120061 0)
(0.0521642 0.0906582 0)
(0.0489648 0.0610148 0)
(0.0460975 0.0312766 0)
(0.04363 0.00157095 0)
(0.0416079 -0.0279851 0)
(0.0400559 -0.0572772 0)
(0.0389779 -0.0861857 0)
(0.0383577 -0.114579 0)
(0.0381594 -0.142306 0)
(0.038328 -0.16919 0)
(0.0387897 -0.195023 0)
(0.039453 -0.219562 0)
(0.04021 -0.242522 0)
(0.0409384 -0.263572 0)
(0.0415049 -0.282336 0)
(0.0417696 -0.298389 0)
(0.0415927 -0.311261 0)
(0.0408423 -0.320438 0)
(0.0394049 -0.325371 0)
(0.0371979 -0.325488 0)
(0.0341829 -0.320208 0)
(0.0303804 -0.308963 0)
(0.0258831 -0.291228 0)
(0.0208673 -0.266549 0)
(0.0155997 -0.234587 0)
(0.0104294 -0.195156 0)
(0.00576729 -0.148263 0)
(0.0021495 -0.0941404 0)
(0.000340529 -0.0333147 0)
(0.000459127 0.0353683 0)
(0.00294839 0.0997893 0)
(0.00801323 0.156981 0)
(0.0146865 0.206362 0)
(0.0222884 0.247629 0)
(0.0302746 0.280716 0)
(0.0381467 0.305775 0)
(0.0454858 0.323148 0)
(0.0519714 0.333329 0)
(0.0573829 0.336917 0)
(0.0615938 0.334578 0)
(0.0645615 0.327008 0)
(0.0663128 0.3149 0)
(0.0669296 0.298918 0)
(0.0665333 0.279685 0)
(0.0652708 0.257767 0)
(0.0633029 0.233668 0)
(0.0607941 0.207829 0)
(0.0579048 0.180631 0)
(0.0547861 0.152397 0)
(0.0515752 0.123401 0)
(0.0483933 0.0938706 0)
(0.0453437 0.0640012 0)
(0.0425117 0.0339593 0)
(0.039964 0.00389236 0)
(0.0377493 -0.0260627 0)
(0.0358981 -0.0557721 0)
(0.0344241 -0.0850975 0)
(0.0333235 -0.113889 0)
(0.0325763 -0.141977 0)
(0.0321463 -0.169168 0)
(0.0319819 -0.195238 0)
(0.0320164 -0.219926 0)
(0.0321696 -0.242935 0)
(0.0323492 -0.263922 0)
(0.0324536 -0.282503 0)
(0.0323754 -0.29825 0)
(0.0320066 -0.310696 0)
(0.0312448 -0.31934 0)
(0.0300014 -0.323654 0)
(0.028211 -0.323099 0)
(0.0258419 -0.31714 0)
(0.0229068 -0.305266 0)
(0.0194731 -0.287018 0)
(0.0156707 -0.26202 0)
(0.0116969 -0.230007 0)
(0.00781029 -0.190864 0)
(0.00431471 -0.144653 0)
(0.00160691 -0.0916402 0)
(0.00025436 -0.0323521 0)
(0.000373133 0.0339951 0)
(0.00240996 0.0961633 0)
(0.00657491 0.151636 0)
(0.0120963 0.199841 0)
(0.0184337 0.24046 0)
(0.025151 0.273382 0)
(0.0318419 0.298695 0)
(0.0381573 0.316663 0)
(0.0438217 0.327693 0)
(0.0486363 0.3323 0)
(0.0524764 0.331071 0)
(0.0552851 0.32463 0)
(0.0570641 0.313613 0)
(0.0578622 0.29864 0)
(0.0577641 0.280302 0)
(0.0568796 0.259144 0)
(0.0553332 0.23566 0)
(0.0532566 0.21029 0)
(0.0507811 0.183418 0)
(0.0480331 0.155378 0)
(0.0451298 0.126454 0)
(0.0421771 0.0968898 0)
(0.0392674 0.0668963 0)
(0.0364795 0.0366561 0)
(0.0338777 0.00633314 0)
(0.0315118 -0.0239196 0)
(0.0294177 -0.0539524 0)
(0.0276175 -0.0836116 0)
(0.0261198 -0.112732 0)
(0.02492 -0.141129 0)
(0.0240008 -0.168596 0)
(0.0233324 -0.194894 0)
(0.022873 -0.219751 0)
(0.0225694 -0.242856 0)
(0.0223587 -0.263858 0)
(0.0221693 -0.282364 0)
(0.021924 -0.297944 0)
(0.0215432 -0.310132 0)
(0.0209498 -0.318434 0)
(0.0200745 -0.322338 0)
(0.0188631 -0.321329 0)
(0.0172839 -0.314904 0)
(0.0153359 -0.302594 0)
(0.0130557 -0.28399 0)
(0.0105242 -0.258769 0)
(0.00786987 -0.226723 0)
(0.00526472 -0.187787 0)
(0.00291393 -0.142065 0)
(0.00108748 -0.0898477 0)
(0.000172694 -0.0316617 0)
(0.000291213 0.0328933 0)
(0.00189136 0.0932405 0)
(0.00517895 0.147305 0)
(0.00956229 0.194525 0)
(0.0146282 0.234572 0)
(0.0200407 0.267305 0)
(0.0254812 0.292768 0)
(0.0306698 0.311168 0)
(0.0353796 0.32285 0)
(0.0394394 0.328262 0)
(0.0427341 0.32793 0)
(0.0452014 0.322421 0)
(0.0468251 0.312323 0)
(0.0476284 0.298218 0)
(0.0476653 0.280668 0)
(0.0470124 0.260198 0)
(0.0457613 0.237291 0)
(0.0440121 0.212381 0)
(0.0418676 0.185855 0)
(0.039429 0.158049 0)
(0.0367927 0.129257 0)
(0.0340477 0.0997329 0)
(0.0312742 0.0696986 0)
(0.0285427 0.0393488 0)
(0.0259133 0.00885987 0)
(0.0234361 -0.0216031 0)
(0.0211507 -0.0518783 0)
(0.019087 -0.0818002 0)
(0.0172649 -0.111192 0)
(0.0156948 -0.139858 0)
(0.0143778 -0.167581 0)
(0.0133055 -0.194111 0)
(0.0124605 -0.219165 0)
(0.0118164 -0.242422 0)
(0.0113384 -0.263523 0)
(0.010984 -0.28207 0)
(0.0107041 -0.297626 0)
(0.0104454 -0.309723 0)
(0.0101526 -0.317872 0)
(0.00977215 -0.321568 0)
(0.00925683 -0.320309 0)
(0.00857063 -0.313612 0)
(0.00769436 -0.301037 0)
(0.00663109 -0.282206 0)
(0.00541084 -0.256832 0)
(0.00409374 -0.224745 0)
(0.00276872 -0.185916 0)
(0.00154803 -0.14048 0)
(0.000583619 -0.088742 0)
(9.40353e-05 -0.0312333 0)
(0.00021218 0.0320538 0)
(0.00138688 0.0910035 0)
(0.00381331 0.143973 0)
(0.00706891 0.19041 0)
(0.0108593 0.22998 0)
(0.0149422 0.262528 0)
(0.0190835 0.288066 0)
(0.0230721 0.306765 0)
(0.026731 0.318924 0)
(0.0299213 0.324946 0)
(0.0325428 0.325309 0)
(0.0345336 0.320539 0)
(0.0358661 0.311186 0)
(0.0365433 0.2978 0)
(0.0365931 0.280918 0)
(0.0360626 0.261048 0)
(0.0350129 0.238661 0)
(0.0335141 0.214184 0)
(0.0316409 0.188002 0)
(0.0294696 0.160453 0)
(0.0270747 0.131835 0)
(0.0245275 0.102408 0)
(0.0218944 0.0724012 0)
(0.0192361 0.0420168 0)
(0.0166075 0.0114395 0)
(0.0140571 -0.0191573 0)
(0.0116273 -0.0496037 0)
(0.00935435 -0.0797262 0)
(0.00726877 -0.10934 0)
(0.00539511 -0.138243 0)
(0.00375204 -0.166208 0)
(0.00235223 -0.192978 0)
(0.00120205 -0.218263 0)
(0.000301244 -0.241735 0)
(-0.000357389 -0.263026 0)
(-0.000788303 -0.281731 0)
(-0.00101325 -0.297406 0)
(-0.00106102 -0.309581 0)
(-0.000966673 -0.317762 0)
(-0.000770197 -0.321443 0)
(-0.000514406 -0.320128 0)
(-0.000242175 -0.313341 0)
(6.93546e-06 -0.300654 0)
(0.000200469 -0.281706 0)
(0.000316808 -0.25623 0)
(0.000348275 -0.224079 0)
(0.000302761 -0.185246 0)
(0.000203298 -0.139882 0)
(8.91715e-05 -0.0883095 0)
(1.71835e-05 -0.0310606 0)
(0.000135033 0.0314706 0)
(0.000891591 0.0894401 0)
(0.00246749 0.141629 0)
(0.00460233 0.187493 0)
(0.00711488 0.226698 0)
(0.00985287 0.25908 0)
(0.0126637 0.284638 0)
(0.0154045 0.303521 0)
(0.0179498 0.316001 0)
(0.0201949 0.322451 0)
(0.0220586 0.323318 0)
(0.0234831 0.319098 0)
(0.0244341 0.310313 0)
(0.0248981 0.297491 0)
(0.0248804 0.281149 0)
(0.0244015 0.261778 0)
(0.0234937 0.239839 0)
(0.0221985 0.215753 0)
(0.020563 0.189899 0)
(0.0186383 0.162615 0)
(0.0164766 0.134199 0)