/*--------------------------------*- C++ -*----------------------------------*\
  =========                 |
  \\      /  F ield         | OpenFOAM: The Open Source CFD Toolbox
   \\    /   O peration     | Website:  https://openfoam.org
    \\  /    A nd           | Version:  7
     \\/     M anipulation  |
\*---------------------------------------------------------------------------*/
FoamFile
{
    version     2.0;
    format      ascii;
    class       volScalarField;
    location    "0.004";
    object      p;
}
// * * * * * * * * * * * * * * * * * * * * * * * * * * * * * * * * * * * * * //

dimensions      [0 2 -2 0 0 0 0];

internalField   nonuniform List<scalar> 
2500
(
8.08591e-07
-6.49115
-9.24773
-10.4119
-11.0472
-11.4276
-11.6709
-11.8412
-11.9703
-12.074
-12.1611
-12.2366
-12.3035
-12.3638
-12.4189
-12.4698
-12.5171
-12.5616
-12.6036
-12.6437
-12.6822
-12.7194
-12.7556
-12.7912
-12.8263
-12.8613
-12.8964
-12.9319
-12.968
-13.0049
-13.0431
-13.0826
-13.1239
-13.1673
-13.2131
-13.2618
-13.3139
-13.37
-13.431
-13.4983
-13.5743
-13.663
-13.7719
-13.9156
-14.1245
-14.4602
-15.0315
-16.1018
-18.7433
-25.114
-4.97613
-7.67505
-9.16029
-10.0977
-10.7425
-11.181
-11.4841
-11.7028
-11.8678
-11.9974
-12.103
-12.1918
-12.2684
-12.3359
-12.3965
-12.4516
-12.5023
-12.5495
-12.5939
-12.636
-12.6763
-12.7152
-12.7529
-12.7899
-12.8265
-12.8629
-12.8995
-12.9365
-12.9742
-13.0129
-13.053
-13.0948
-13.1388
-13.1853
-13.235
-13.2885
-13.3468
-13.4111
-13.4832
-13.5655
-13.6622
-13.7795
-13.9277
-14.1236
-14.396
-14.7933
-15.3821
-16.2474
-17.6471
-20.2332
-7.9712
-8.77656
-9.5574
-10.2199
-10.7412
-11.1329
-11.4258
-11.6484
-11.8214
-11.9593
-12.0722
-12.1669
-12.2483
-12.3195
-12.3831
-12.4406
-12.4933
-12.5422
-12.588
-12.6314
-12.6728
-12.7126
-12.7513
-12.7893
-12.8267
-12.864
-12.9015
-12.9394
-12.9782
-13.018
-13.0594
-13.1026
-13.1482
-13.1967
-13.2489
-13.3054
-13.3674
-13.4364
-13.5143
-13.6041
-13.7097
-13.8373
-13.9958
-14.1982
-14.4638
-14.819
-15.2934
-15.9014
-16.6277
-17.3741
-9.50148
-9.68325
-10.0802
-10.5079
-10.8847
-11.1962
-11.448
-11.6507
-11.8148
-11.9494
-12.0617
-12.157
-12.2394
-12.3119
-12.3765
-12.435
-12.4887
-12.5383
-12.5849
-12.6288
-12.6708
-12.7112
-12.7504
-12.7889
-12.8268
-12.8646
-12.9026
-12.9411
-12.9804
-13.0209
-13.0629
-13.1069
-13.1534
-13.203
-13.2563
-13.3143
-13.3779
-13.4487
-13.5285
-13.6197
-13.7259
-13.8515
-14.0027
-14.1872
-14.4146
-14.6945
-15.0332
-15.4205
-15.7828
-15.9396
-10.401
-10.365
-10.5457
-10.806
-11.0661
-11.3027
-11.5087
-11.6841
-11.8323
-11.9579
-12.0651
-12.1577
-12.2387
-12.3105
-12.3749
-12.4334
-12.4871
-12.5369
-12.5836
-12.6277
-12.6699
-12.7105
-12.7499
-12.7885
-12.8267
-12.8647
-12.9028
-12.9415
-12.981
-13.0217
-13.064
-13.1083
-13.155
-13.2049
-13.2584
-13.3165
-13.38
-13.4504
-13.5291
-13.6179
-13.7195
-13.8366
-13.9728
-14.1316
-14.316
-14.526
-14.7564
-14.988
-15.1481
-15.1056
-10.972
-10.8624
-10.9282
-11.0796
-11.2541
-11.4284
-11.5915
-11.7382
-11.8676
-11.981
-12.0803
-12.1678
-12.2455
-12.3151
-12.378
-12.4355
-12.4885
-12.5378
-12.5842
-12.6281
-12.67
-12.7104
-12.7497
-12.7882
-12.8262
-12.864
-12.9021
-12.9406
-12.98
-13.0205
-13.0625
-13.1064
-13.1528
-13.2021
-13.2548
-13.3118
-13.3738
-13.4419
-13.517
-13.6007
-13.6943
-13.7994
-13.9174
-14.049
-14.1933
-14.3462
-14.4984
-14.6306
-14.6856
-14.5794
-11.3498
-11.227
-11.236
-11.3199
-11.4339
-11.5596
-11.6856
-11.8052
-11.9153
-12.0151
-12.1049
-12.1858
-12.2588
-12.325
-12.3855
-12.4412
-12.4929
-12.5411
-12.5866
-12.6298
-12.6711
-12.711
-12.7498
-12.7878
-12.8253
-12.8628
-12.9003
-12.9384
-12.9772
-13.0171
-13.0584
-13.1015
-13.1468
-13.1948
-13.246
-13.3009
-13.3601
-13.4244
-13.4945
-13.5712
-13.6551
-13.7468
-13.8463
-13.9526
-14.063
-14.172
-14.2702
-14.3419
-14.3465
-14.2311
-11.6122
-11.4989
-11.4819
-11.5251
-11.598
-11.6871
-11.783
-11.8788
-11.9708
-12.057
-12.1368
-12.2102
-12.2776
-12.3397
-12.397
-12.4502
-12.4999
-12.5466
-12.5908
-12.6328
-12.6732
-12.7122
-12.7502
-12.7874
-12.8242
-12.8609
-12.8977
-12.9349
-12.9728
-13.0117
-13.0519
-13.0937
-13.1375
-13.1837
-13.2325
-13.2846
-13.3402
-13.4
-13.4641
-13.533
-13.6069
-13.6854
-13.7678
-13.8524
-13.9358
-14.0125
-14.0747
-14.1107
-14.0929
-13.9879
-11.8034
-11.7062
-11.6789
-11.6983
-11.7439
-11.8064
-11.8787
-11.9546
-12.0305
-12.104
-12.1738
-12.2395
-12.3009
-12.3583
-12.4119
-12.4622
-12.5094
-12.5541
-12.5966
-12.6372
-12.6763
-12.7141
-12.751
-12.7872
-12.8229
-12.8586
-12.8943
-12.9304
-12.9671
-13.0047
-13.0434
-13.0836
-13.1254
-13.1693
-13.2154
-13.2641
-13.3157
-13.3704
-13.4283
-13.4894
-13.5535
-13.6199
-13.6875
-13.7543
-13.817
-13.8707
-13.9094
-13.9249
-13.8986
-13.8092
-11.9488
-11.8681
-11.8384
-11.8443
-11.8722
-11.9159
-11.9701
-12.0299
-12.092
-12.154
-12.2144
-12.2725
-12.3278
-12.3802
-12.4298
-12.4768
-12.5213
-12.5636
-12.6041
-12.6429
-12.6803
-12.7167
-12.7522
-12.7871
-12.8216
-12.8559
-12.8903
-12.925
-12.9603
-12.9963
-13.0332
-13.0714
-13.111
-13.1522
-13.1953
-13.2405
-13.2877
-13.3373
-13.389
-13.4426
-13.4978
-13.5537
-13.6089
-13.6615
-13.7085
-13.7461
-13.7697
-13.7738
-13.746
-13.672
-12.0636
-11.9978
-11.9695
-11.9682
-11.9847
-12.0152
-12.0558
-12.1028
-12.1533
-12.2053
-12.2572
-12.3081
-12.3574
-12.4048
-12.4502
-12.4936
-12.5351
-12.5748
-12.613
-12.6497
-12.6854
-12.72
-12.7539
-12.7872
-12.8202
-12.853
-12.8859
-12.919
-12.9525
-12.9867
-13.0217
-13.0577
-13.0948
-13.1332
-13.1731
-13.2145
-13.2575
-13.302
-13.3478
-13.3947
-13.4419
-13.4886
-13.5336
-13.5751
-13.6106
-13.637
-13.651
-13.6491
-13.6228
-13.5625
-12.1576
-12.1044
-12.0789
-12.0742
-12.0836
-12.1049
-12.1354
-12.1723
-12.2134
-12.2567
-12.3011
-12.3454
-12.389
-12.4314
-12.4726
-12.5123
-12.5506
-12.5876
-12.6232
-12.6577
-12.6913
-12.724
-12.7561
-12.7876
-12.8189
-12.85
-12.8811
-12.9124
-12.9441
-12.9763
-13.0091
-13.0427
-13.0773
-13.1128
-13.1494
-13.1872
-13.2259
-13.2656
-13.306
-13.3466
-13.3869
-13.426
-13.4627
-13.4955
-13.5224
-13.5411
-13.5491
-13.5444
-13.5209
-13.472
-12.237
-12.1941
-12.1721
-12.1658
-12.1709
-12.1858
-12.2089
-12.2379
-12.2713
-12.3074
-12.3451
-12.3834
-12.4217
-12.4595
-12.4965
-12.5325
-12.5676
-12.6016
-12.6346
-12.6667
-12.698
-12.7287
-12.7587
-12.7884
-12.8177
-12.847
-12.8762
-12.9056
-12.9352
-12.9652
-12.9958
-13.0269
-13.0588
-13.0914
-13.1247
-13.1589
-13.1936
-13.2288
-13.2642
-13.2994
-13.3337
-13.3663
-13.3964
-13.4224
-13.443
-13.4563
-13.4606
-13.4548
-13.4345
-13.3949
-12.306
-12.2713
-12.2527
-12.2461
-12.2485
-12.2591
-12.2766
-12.2996
-12.3267
-12.3568
-12.3887
-12.4216
-12.455
-12.4884
-12.5214
-12.5539
-12.5856
-12.6167
-12.647
-12.6766
-12.7055
-12.7339
-12.7619
-12.7894
-12.8168
-12.844
-12.8712
-12.8985
-12.9259
-12.9537
-12.9819
-13.0105
-13.0397
-13.0693
-13.0995
-13.1301
-13.1611
-13.1921
-13.223
-13.2533
-13.2825
-13.3098
-13.3344
-13.3553
-13.3711
-13.3807
-13.3828
-13.3768
-13.3595
-13.3274
-12.3673
-12.3393
-12.3236
-12.3173
-12.3182
-12.3257
-12.3392
-12.3575
-12.3795
-12.4045
-12.4314
-12.4596
-12.4886
-12.5178
-12.547
-12.576
-12.6046
-12.6326
-12.6602
-12.6872
-12.7137
-12.7397
-12.7654
-12.7908
-12.816
-12.8411
-12.8661
-12.8912
-12.9165
-12.9419
-12.9677
-12.9937
-13.0201
-13.0469
-13.074
-13.1013
-13.1287
-13.1559
-13.1827
-13.2088
-13.2335
-13.2564
-13.2766
-13.2933
-13.3057
-13.3127
-13.3135
-13.3078
-13.2933
-13.2672
-12.4229
-12.4001
-12.387
-12.3813
-12.3813
-12.3868
-12.3971
-12.4117
-12.4297
-12.4504
-12.473
-12.497
-12.522
-12.5474
-12.5731
-12.5987
-12.6241
-12.6492
-12.674
-12.6983
-12.7223
-12.746
-12.7694
-12.7925
-12.8155
-12.8383
-12.8611
-12.8839
-12.9069
-12.9299
-12.9532
-12.9767
-13.0004
-13.0244
-13.0484
-13.0726
-13.0966
-13.1203
-13.1435
-13.1658
-13.1868
-13.2059
-13.2225
-13.236
-13.2457
-13.2509
-13.251
-13.2458
-13.2337
-13.2124
-12.474
-12.4554
-12.4446
-12.4396
-12.4391
-12.443
-12.4511
-12.4628
-12.4774
-12.4945
-12.5134
-12.5337
-12.5551
-12.577
-12.5993
-12.6217
-12.644
-12.6663
-12.6883
-12.71
-12.7315
-12.7527
-12.7737
-12.7945
-12.8151
-12.8356
-12.8562
-12.8767
-12.8972
-12.9179
-12.9387
-12.9596
-12.9807
-13.0018
-13.023
-13.0441
-13.065
-13.0856
-13.1055
-13.1244
-13.1421
-13.158
-13.1717
-13.1827
-13.1904
-13.1942
-13.194
-13.1894
-13.1793
-13.162
-12.5215
-12.5064
-12.4975
-12.4932
-12.4925
-12.4954
-12.5016
-12.5109
-12.5228
-12.5368
-12.5526
-12.5696
-12.5877
-12.6064
-12.6255
-12.6449
-12.6643
-12.6837
-12.7029
-12.722
-12.741
-12.7597
-12.7783
-12.7967
-12.8149
-12.8332
-12.8513
-12.8695
-12.8876
-12.9059
-12.9242
-12.9425
-12.961
-12.9794
-12.9978
-13.0161
-13.0341
-13.0516
-13.0685
-13.0845
-13.0993
-13.1125
-13.1238
-13.1327
-13.1388
-13.1417
-13.1413
-13.1374
-13.129
-13.1149
-12.5662
-12.554
-12.5467
-12.543
-12.5423
-12.5444
-12.5493
-12.5566
-12.5662
-12.5776
-12.5905
-12.6047
-12.6197
-12.6355
-12.6516
-12.6681
-12.6847
-12.7013
-12.7179
-12.7344
-12.7508
-12.767
-12.7831
-12.7991
-12.815
-12.8308
-12.8466
-12.8624
-12.8781
-12.8939
-12.9097
-12.9255
-12.9414
-12.9572
-12.9729
-12.9885
-13.0037
-13.0185
-13.0327
-13.046
-13.0583
-13.0692
-13.0783
-13.0855
-13.0904
-13.0926
-13.0921
-13.0888
-13.082
-13.0706
-12.6086
-12.5988
-12.5929
-12.5899
-12.5892
-12.5907
-12.5945
-12.6003
-12.6078
-12.617
-12.6274
-12.6389
-12.6513
-12.6642
-12.6776
-12.6913
-12.7052
-12.7191
-12.7331
-12.747
-12.7608
-12.7745
-12.7882
-12.8017
-12.8152
-12.8286
-12.842
-12.8554
-12.8687
-12.882
-12.8954
-12.9087
-12.922
-12.9352
-12.9484
-12.9613
-12.9739
-12.9862
-12.9978
-13.0088
-13.0188
-13.0276
-13.0349
-13.0407
-13.0445
-13.0462
-13.0458
-13.0431
-13.0376
-13.0285
-12.6492
-12.6415
-12.6369
-12.6345
-12.6338
-12.6349
-12.6377
-12.6421
-12.648
-12.6552
-12.6634
-12.6725
-12.6823
-12.6927
-12.7034
-12.7145
-12.7257
-12.737
-12.7484
-12.7598
-12.7711
-12.7823
-12.7935
-12.8046
-12.8156
-12.8266
-12.8376
-12.8485
-12.8594
-12.8703
-12.8811
-12.892
-12.9028
-12.9135
-12.9241
-12.9345
-12.9447
-12.9545
-12.9639
-12.9726
-12.9805
-12.9874
-12.9933
-12.9977
-13.0007
-13.002
-13.0016
-12.9995
-12.9953
-12.9881
-12.6883
-12.6825
-12.679
-12.6771
-12.6766
-12.6773
-12.6794
-12.6826
-12.687
-12.6923
-12.6985
-12.7054
-12.7129
-12.7208
-12.7291
-12.7376
-12.7463
-12.755
-12.7639
-12.7727
-12.7815
-12.7903
-12.799
-12.8076
-12.8162
-12.8248
-12.8333
-12.8418
-12.8502
-12.8587
-12.8671
-12.8754
-12.8838
-12.892
-12.9002
-12.9082
-12.916
-12.9235
-12.9306
-12.9372
-12.9432
-12.9485
-12.9529
-12.9563
-12.9586
-12.9596
-12.9593
-12.9577
-12.9545
-12.9491
-12.7264
-12.7223
-12.7198
-12.7185
-12.718
-12.7185
-12.7198
-12.722
-12.725
-12.7287
-12.733
-12.7378
-12.7431
-12.7487
-12.7546
-12.7606
-12.7668
-12.7731
-12.7794
-12.7858
-12.7921
-12.7984
-12.8046
-12.8108
-12.817
-12.8231
-12.8292
-12.8352
-12.8412
-12.8472
-12.8532
-12.8591
-12.865
-12.8708
-12.8765
-12.8822
-12.8876
-12.8929
-12.8979
-12.9026
-12.9068
-12.9105
-12.9136
-12.916
-12.9176
-12.9183
-12.9182
-12.9171
-12.9149
-12.9112
-12.7637
-12.7612
-12.7597
-12.7588
-12.7585
-12.7587
-12.7594
-12.7607
-12.7624
-12.7645
-12.7671
-12.7699
-12.7731
-12.7765
-12.78
-12.7837
-12.7874
-12.7913
-12.7951
-12.799
-12.8028
-12.8066
-12.8104
-12.8142
-12.8179
-12.8216
-12.8252
-12.8288
-12.8324
-12.8359
-12.8394
-12.8429
-12.8463
-12.8497
-12.8531
-12.8564
-12.8596
-12.8627
-12.8657
-12.8684
-12.871
-12.8732
-12.8751
-12.8765
-12.8775
-12.878
-12.8779
-12.8773
-12.8761
-12.874
-12.8005
-12.7996
-12.799
-12.7986
-12.7984
-12.7984
-12.7985
-12.7989
-12.7994
-12.8
-12.8009
-12.8018
-12.8029
-12.8041
-12.8054
-12.8067
-12.8081
-12.8095
-12.8109
-12.8123
-12.8137
-12.8151
-12.8164
-12.8177
-12.8189
-12.8202
-12.8214
-12.8225
-12.8236
-12.8247
-12.8258
-12.8268
-12.8279
-12.8289
-12.8299
-12.8309
-12.8318
-12.8328
-12.8337
-12.8346
-12.8354
-12.8362
-12.8369
-12.8375
-12.8379
-12.8381
-12.8382
-12.8381
-12.8378
-12.8372
-12.8372
-12.8378
-12.8381
-12.8382
-12.8381
-12.8379
-12.8375
-12.8369
-12.8362
-12.8354
-12.8346
-12.8337
-12.8328
-12.8318
-12.8308
-12.8299
-12.8289
-12.8278
-12.8268
-12.8258
-12.8247
-12.8236
-12.8225
-12.8214
-12.8202
-12.8189
-12.8177
-12.8164
-12.8151
-12.8137
-12.8123
-12.8109
-12.8095
-12.8081
-12.8067
-12.8054
-12.8041
-12.8029
-12.8019
-12.8009
-12.8001
-12.7994
-12.7989
-12.7986
-12.7984
-12.7984
-12.7986
-12.799
-12.7996
-12.8005
-12.874
-12.8761
-12.8773
-12.8779
-12.878
-12.8775
-12.8765
-12.875
-12.8732
-12.8709
-12.8684
-12.8657
-12.8627
-12.8596
-12.8564
-12.8531
-12.8497
-12.8463
-12.8429
-12.8394
-12.8359
-12.8323
-12.8288
-12.8252
-12.8216
-12.8179
-12.8142
-12.8104
-12.8066
-12.8028
-12.799
-12.7951
-12.7913
-12.7875
-12.7837
-12.78
-12.7765
-12.7731
-12.77
-12.7671
-12.7646
-12.7624
-12.7607
-12.7594
-12.7587
-12.7585
-12.7588
-12.7597
-12.7612
-12.7637
-12.9112
-12.9149
-12.9171
-12.9181
-12.9183
-12.9176
-12.916
-12.9136
-12.9105
-12.9068
-12.9026
-12.8979
-12.8929
-12.8876
-12.8822
-12.8765
-12.8708
-12.865
-12.8591
-12.8532
-12.8472
-12.8412
-12.8352
-12.8292
-12.8231
-12.817
-12.8108
-12.8046
-12.7984
-12.7921
-12.7858
-12.7794
-12.7731
-12.7669
-12.7607
-12.7546
-12.7487
-12.7431
-12.7379
-12.733
-12.7287
-12.725
-12.722
-12.7198
-12.7185
-12.718
-12.7185
-12.7198
-12.7223
-12.7264
-12.9491
-12.9545
-12.9577
-12.9592
-12.9595
-12.9585
-12.9563
-12.9529
-12.9485
-12.9432
-12.9372
-12.9306
-12.9235
-12.916
-12.9082
-12.9002
-12.892
-12.8838
-12.8754
-12.8671
-12.8587
-12.8502
-12.8418
-12.8333
-12.8248
-12.8162
-12.8076
-12.799
-12.7903
-12.7815
-12.7727
-12.7639
-12.7551
-12.7463
-12.7376
-12.7291
-12.7208
-12.7129
-12.7054
-12.6985
-12.6923
-12.687
-12.6826
-12.6794
-12.6773
-12.6766
-12.6772
-12.679
-12.6825
-12.6883
-12.9881
-12.9952
-12.9995
-13.0016
-13.002
-13.0007
-12.9977
-12.9932
-12.9874
-12.9805
-12.9725
-12.9638
-12.9545
-12.9447
-12.9345
-12.9241
-12.9135
-12.9028
-12.892
-12.8811
-12.8703
-12.8594
-12.8485
-12.8376
-12.8266
-12.8156
-12.8046
-12.7935
-12.7823
-12.7711
-12.7598
-12.7484
-12.737
-12.7257
-12.7145
-12.7034
-12.6927
-12.6823
-12.6725
-12.6634
-12.6552
-12.648
-12.6421
-12.6377
-12.6349
-12.6338
-12.6345
-12.6369
-12.6415
-12.6492
-13.0284
-13.0376
-13.0431
-13.0457
-13.0462
-13.0445
-13.0407
-13.0349
-13.0275
-13.0187
-13.0087
-12.9978
-12.9862
-12.9739
-12.9613
-12.9483
-12.9352
-12.922
-12.9087
-12.8953
-12.882
-12.8687
-12.8554
-12.842
-12.8286
-12.8152
-12.8018
-12.7882
-12.7746
-12.7608
-12.747
-12.7331
-12.7191
-12.7052
-12.6913
-12.6776
-12.6642
-12.6513
-12.6389
-12.6274
-12.617
-12.6078
-12.6003
-12.5945
-12.5907
-12.5892
-12.5899
-12.5929
-12.5988
-12.6086
-13.0705
-13.082
-13.0888
-13.0921
-13.0926
-13.0903
-13.0855
-13.0783
-13.0691
-13.0583
-13.046
-13.0327
-13.0185
-13.0037
-12.9884
-12.9729
-12.9572
-12.9414
-12.9255
-12.9097
-12.8939
-12.8781
-12.8623
-12.8466
-12.8308
-12.815
-12.7991
-12.7831
-12.767
-12.7508
-12.7344
-12.7179
-12.7013
-12.6847
-12.6681
-12.6516
-12.6355
-12.6197
-12.6047
-12.5906
-12.5776
-12.5662
-12.5566
-12.5493
-12.5444
-12.5423
-12.543
-12.5467
-12.554
-12.5662
-13.1149
-13.129
-13.1373
-13.1412
-13.1417
-13.1388
-13.1327
-13.1238
-13.1125
-13.0993
-13.0845
-13.0685
-13.0516
-13.0341
-13.0161
-12.9978
-12.9794
-12.961
-12.9425
-12.9242
-12.9059
-12.8876
-12.8695
-12.8513
-12.8332
-12.8149
-12.7967
-12.7783
-12.7597
-12.741
-12.722
-12.7029
-12.6837
-12.6643
-12.6449
-12.6255
-12.6064
-12.5877
-12.5696
-12.5526
-12.5368
-12.5228
-12.5109
-12.5016
-12.4954
-12.4925
-12.4932
-12.4975
-12.5064
-12.5215
-13.1619
-13.1793
-13.1894
-13.1939
-13.1942
-13.1903
-13.1827
-13.1717
-13.158
-13.1421
-13.1244
-13.1054
-13.0856
-13.065
-13.0441
-13.023
-13.0018
-12.9807
-12.9596
-12.9387
-12.9179
-12.8972
-12.8767
-12.8562
-12.8356
-12.8151
-12.7945
-12.7737
-12.7527
-12.7315
-12.71
-12.6883
-12.6663
-12.644
-12.6217
-12.5993
-12.577
-12.5551
-12.5337
-12.5134
-12.4945
-12.4774
-12.4627
-12.4511
-12.443
-12.4391
-12.4396
-12.4446
-12.4554
-12.474
-13.2124
-13.2337
-13.2458
-13.251
-13.2509
-13.2457
-13.236
-13.2225
-13.2058
-13.1867
-13.1658
-13.1435
-13.1203
-13.0966
-13.0725
-13.0484
-13.0243
-13.0004
-12.9767
-12.9532
-12.9299
-12.9069
-12.8839
-12.8611
-12.8383
-12.8155
-12.7925
-12.7694
-12.746
-12.7223
-12.6983
-12.674
-12.6492
-12.6241
-12.5987
-12.5731
-12.5474
-12.522
-12.497
-12.473
-12.4504
-12.4297
-12.4117
-12.3971
-12.3868
-12.3813
-12.3813
-12.387
-12.4001
-12.4229
-13.2672
-13.2933
-13.3078
-13.3135
-13.3127
-13.3057
-13.2933
-13.2766
-13.2564
-13.2335
-13.2088
-13.1827
-13.1559
-13.1286
-13.1013
-13.074
-13.0469
-13.0201
-12.9937
-12.9677
-12.9419
-12.9165
-12.8912
-12.8661
-12.8411
-12.816
-12.7908
-12.7654
-12.7397
-12.7137
-12.6872
-12.6602
-12.6326
-12.6046
-12.576
-12.547
-12.5178
-12.4886
-12.4596
-12.4314
-12.4045
-12.3795
-12.3575
-12.3392
-12.3257
-12.3182
-12.3173
-12.3236
-12.3393
-12.3673
-13.3274
-13.3595
-13.3768
-13.3828
-13.3807
-13.3711
-13.3552
-13.3344
-13.3098
-13.2825
-13.2533
-13.223
-13.1921
-13.1611
-13.1301
-13.0995
-13.0693
-13.0396
-13.0105
-12.9819
-12.9537
-12.9259
-12.8984
-12.8712
-12.844
-12.8168
-12.7894
-12.7619
-12.7339
-12.7055
-12.6766
-12.647
-12.6167
-12.5856
-12.5539
-12.5214
-12.4884
-12.455
-12.4216
-12.3887
-12.3568
-12.3267
-12.2996
-12.2766
-12.2591
-12.2485
-12.2461
-12.2527
-12.2713
-12.306
-13.3949
-13.4345
-13.4547
-13.4606
-13.4562
-13.443
-13.4224
-13.3963
-13.3663
-13.3337
-13.2994
-13.2642
-13.2288
-13.1936
-13.1588
-13.1247
-13.0914
-13.0588
-13.0269
-12.9958
-12.9652
-12.9352
-12.9056
-12.8762
-12.847
-12.8177
-12.7884
-12.7587
-12.7287
-12.698
-12.6667
-12.6346
-12.6016
-12.5676
-12.5325
-12.4965
-12.4595
-12.4217
-12.3834
-12.3451
-12.3074
-12.2713
-12.2379
-12.2088
-12.1858
-12.1709
-12.1658
-12.1721
-12.1941
-12.237
-13.472
-13.5209
-13.5443
-13.5491
-13.541
-13.5224
-13.4955
-13.4627
-13.426
-13.3869
-13.3466
-13.306
-13.2656
-13.2259
-13.1871
-13.1494
-13.1128
-13.0773
-13.0427
-13.0091
-12.9763
-12.9441
-12.9124
-12.8811
-12.85
-12.8189
-12.7876
-12.7561
-12.724
-12.6913
-12.6577
-12.6232
-12.5876
-12.5506
-12.5123
-12.4726
-12.4314
-12.3889
-12.3454
-12.3011
-12.2567
-12.2134
-12.1723
-12.1354
-12.1049
-12.0836
-12.0741
-12.0789
-12.1043
-12.1576
-13.5625
-13.6228
-13.6491
-13.651
-13.6369
-13.6105
-13.5751
-13.5336
-13.4886
-13.4419
-13.3946
-13.3478
-13.302
-13.2575
-13.2145
-13.1731
-13.1332
-13.0948
-13.0577
-13.0217
-12.9867
-12.9525
-12.919
-12.8859
-12.853
-12.8202
-12.7872
-12.7539
-12.72
-12.6854
-12.6497
-12.613
-12.5748
-12.5351
-12.4936
-12.4502
-12.4048
-12.3574
-12.3081
-12.2572
-12.2053
-12.1533
-12.1028
-12.0558
-12.0152
-11.9847
-11.9682
-11.9694
-11.9978
-12.0636
-13.672
-13.746
-13.7738
-13.7697
-13.7461
-13.7085
-13.6614
-13.6088
-13.5536
-13.4978
-13.4426
-13.389
-13.3373
-13.2877
-13.2404
-13.1953
-13.1522
-13.111
-13.0714
-13.0332
-12.9963
-12.9603
-12.925
-12.8903
-12.8559
-12.8216
-12.7871
-12.7522
-12.7167
-12.6803
-12.6429
-12.604
-12.5636
-12.5213
-12.4768
-12.4298
-12.3802
-12.3278
-12.2725
-12.2144
-12.154
-12.092
-12.0299
-11.97
-11.9159
-11.8722
-11.8443
-11.8384
-11.8681
-11.9488
-13.8092
-13.8986
-13.9249
-13.9093
-13.8707
-13.817
-13.7543
-13.6875
-13.6199
-13.5534
-13.4894
-13.4282
-13.3703
-13.3157
-13.2641
-13.2154
-13.1692
-13.1254
-13.0836
-13.0434
-13.0047
-12.9671
-12.9304
-12.8943
-12.8586
-12.8229
-12.7872
-12.751
-12.7141
-12.6763
-12.6372
-12.5966
-12.5541
-12.5094
-12.4622
-12.4119
-12.3583
-12.3009
-12.2395
-12.1738
-12.104
-12.0305
-11.9546
-11.8786
-11.8064
-11.7439
-11.6983
-11.6789
-11.7062
-11.8034
-13.9879
-14.0929
-14.1107
-14.0746
-14.0125
-13.9358
-13.8524
-13.7678
-13.6854
-13.6068
-13.533
-13.4641
-13.3999
-13.3402
-13.2846
-13.2325
-13.1837
-13.1375
-13.0937
-13.0519
-13.0117
-12.9728
-12.9349
-12.8977
-12.8609
-12.8242
-12.7874
-12.7502
-12.7122
-12.6732
-12.6328
-12.5908
-12.5466
-12.4999
-12.4502
-12.397
-12.3396
-12.2776
-12.2101
-12.1368
-12.057
-11.9708
-11.8788
-11.7829
-11.6871
-11.598
-11.5251
-11.4819
-11.4989
-11.6122
-14.2311
-14.3465
-14.3419
-14.2702
-14.1719
-14.063
-13.9525
-13.8462
-13.7468
-13.6551
-13.5712
-13.4945
-13.4244
-13.3601
-13.3009
-13.246
-13.1948
-13.1468
-13.1015
-13.0584
-13.0171
-12.9772
-12.9384
-12.9003
-12.8628
-12.8253
-12.7878
-12.7498
-12.711
-12.6711
-12.6298
-12.5866
-12.5411
-12.4928
-12.4412
-12.3855
-12.325
-12.2588
-12.1858
-12.1049
-12.0151
-11.9153
-11.8052
-11.6856
-11.5596
-11.4339
-11.3199
-11.236
-11.227
-11.3498
-14.5794
-14.6856
-14.6306
-14.4984
-14.3461
-14.1933
-14.0489
-13.9173
-13.7994
-13.6943
-13.6007
-13.517
-13.4419
-13.3738
-13.3118
-13.2548
-13.2021
-13.1528
-13.1064
-13.0625
-13.0205
-12.98
-12.9406
-12.9021
-12.864
-12.8262
-12.7881
-12.7497
-12.7104
-12.67
-12.6281
-12.5842
-12.5378
-12.4885
-12.4355
-12.378
-12.3151
-12.2455
-12.1678
-12.0803
-11.981
-11.8676
-11.7382
-11.5915
-11.4284
-11.254
-11.0796
-10.9282
-10.8624
-10.972
-15.1056
-15.148
-14.988
-14.7564
-14.5259
-14.316
-14.1316
-13.9728
-13.8366
-13.7195
-13.6179
-13.5291
-13.4504
-13.38
-13.3165
-13.2584
-13.2049
-13.155
-13.1083
-13.064
-13.0217
-12.981
-12.9415
-12.9028
-12.8646
-12.8266
-12.7885
-12.7499
-12.7105
-12.6699
-12.6277
-12.5836
-12.5369
-12.4871
-12.4334
-12.3749
-12.3105
-12.2387
-12.1577
-12.0651
-11.9579
-11.8323
-11.6841
-11.5087
-11.3027
-11.0661
-10.806
-10.5457
-10.365
-10.401
-15.9396
-15.7827
-15.4204
-15.0332
-14.6945
-14.4146
-14.1872
-14.0026
-13.8515
-13.7259
-13.6197
-13.5285
-13.4487
-13.3779
-13.3143
-13.2563
-13.203
-13.1534
-13.1069
-13.0629
-13.0209
-12.9804
-12.9411
-12.9026
-12.8646
-12.8268
-12.7888
-12.7504
-12.7112
-12.6708
-12.6288
-12.5848
-12.5383
-12.4886
-12.435
-12.3765
-12.3118
-12.2394
-12.157
-12.0617
-11.9494
-11.8148
-11.6507
-11.448
-11.1962
-10.8847
-10.5079
-10.0802
-9.68324
-9.50147
-17.3741
-16.6277
-15.9014
-15.2934
-14.819
-14.4638
-14.1982
-13.9958
-13.8373
-13.7097
-13.6041
-13.5143
-13.4364
-13.3674
-13.3054
-13.2489
-13.1967
-13.1482
-13.1026
-13.0594
-13.018
-12.9782
-12.9394
-12.9015
-12.864
-12.8267
-12.7892
-12.7513
-12.7126
-12.6728
-12.6314
-12.588
-12.5422
-12.4933
-12.4406
-12.3831
-12.3195
-12.2482
-12.1669
-12.0721
-11.9593
-11.8214
-11.6484
-11.4258
-11.1329
-10.7412
-10.2198
-9.55739
-8.77655
-7.97119
-20.2332
-17.6471
-16.2474
-15.3821
-14.7933
-14.396
-14.1236
-13.9277
-13.7795
-13.6622
-13.5655
-13.4832
-13.4111
-13.3468
-13.2885
-13.235
-13.1853
-13.1388
-13.0948
-13.053
-13.0129
-12.9742
-12.9365
-12.8995
-12.8629
-12.8265
-12.7899
-12.7529
-12.7151
-12.6763
-12.636
-12.5939
-12.5495
-12.5023
-12.4515
-12.3964
-12.3359
-12.2684
-12.1918
-12.103
-11.9974
-11.8678
-11.7028
-11.4841
-11.181
-10.7425
-10.0977
-9.16028
-7.67504
-4.97612
-25.114
-18.7433
-16.1018
-15.0315
-14.4602
-14.1245
-13.9156
-13.7719
-13.663
-13.5743
-13.4983
-13.431
-13.37
-13.3139
-13.2618
-13.2131
-13.1673
-13.1239
-13.0826
-13.0431
-13.0049
-12.968
-12.9319
-12.8964
-12.8613
-12.8263
-12.7912
-12.7556
-12.7194
-12.6822
-12.6437
-12.6036
-12.5615
-12.5171
-12.4697
-12.4189
-12.3638
-12.3035
-12.2366
-12.1611
-12.074
-11.9702
-11.8412
-11.6709
-11.4276
-11.0472
-10.4119
-9.24772
-6.49114
1.00541e-05
)
;

boundaryField
{
    movingWallTop
    {
        type            zeroGradient;
    }
    movingWallBottom
    {
        type            zeroGradient;
    }
    fixedWalls
    {
        type            zeroGradient;
    }
    frontAndBack
    {
        type            empty;
    }
}


// ************************************************************************* //
