/*--------------------------------*- C++ -*----------------------------------*\
  =========                 |
  \\      /  F ield         | OpenFOAM: The Open Source CFD Toolbox
   \\    /   O peration     | Website:  https://openfoam.org
    \\  /    A nd           | Version:  7
     \\/     M anipulation  |
\*---------------------------------------------------------------------------*/
FoamFile
{
    version     2.0;
    format      ascii;
    class       surfaceScalarField;
    location    "0.0624";
    object      phi;
}
// * * * * * * * * * * * * * * * * * * * * * * * * * * * * * * * * * * * * * //

dimensions      [0 3 -1 0 0 0 0];

internalField   nonuniform List<scalar> 
4900
(
1.10846e-09
-1.11514e-09
2.24451e-09
-1.13601e-09
2.29008e-09
-4.55815e-11
8.6194e-10
1.42808e-09
-2.11833e-09
2.98031e-09
-6.56695e-09
4.44863e-09
-1.23224e-08
5.75537e-09
-1.91883e-08
6.86591e-09
-2.69561e-08
7.76783e-09
-3.5416e-08
8.45986e-09
-4.43629e-08
8.94681e-09
-5.35999e-08
9.23702e-09
-6.29408e-08
9.34089e-09
-7.22109e-08
9.2701e-09
-8.1248e-08
9.03708e-09
-8.99026e-08
8.65463e-09
-9.80384e-08
8.13575e-09
-1.05532e-07
7.49355e-09
-1.12273e-07
6.74117e-09
-1.18165e-07
5.8918e-09
-1.23124e-07
4.95871e-09
-1.27079e-07
3.95526e-09
-1.29974e-07
2.89502e-09
-1.31766e-07
1.79181e-09
-1.32425e-07
6.59783e-10
-1.31939e-07
-4.86515e-10
-1.30307e-07
-1.63209e-09
-1.27545e-07
-2.76146e-09
-1.23687e-07
-3.85872e-09
-1.18779e-07
-4.9075e-09
-1.12888e-07
-5.8911e-09
-1.06095e-07
-6.79254e-09
-9.85007e-08
-7.59476e-09
-9.022e-08
-8.28078e-09
-8.1386e-08
-8.8339e-09
-7.2148e-08
-9.23803e-09
-6.26701e-08
-9.47792e-09
-5.31305e-08
-9.53954e-09
-4.372e-08
-9.41046e-09
-3.46397e-08
-9.08027e-09
-2.60985e-08
-8.54122e-09
-1.83095e-08
-7.78903e-09
-1.14852e-08
-6.82424e-09
-5.83051e-09
-5.65467e-09
-1.53015e-09
-4.30034e-09
1.27449e-09
-2.80462e-09
2.52711e-09
-1.25261e-09
2.32371e-09
2.03408e-10
1.11044e-09
1.21325e-09
1.11042e-09
1.14471e-09
-2.2598e-09
1.25512e-09
-1.24649e-09
-1.27065e-09
2.48014e-09
-7.19197e-09
7.34939e-09
-1.67308e-08
1.25192e-08
-2.97778e-08
1.74957e-08
-4.60238e-08
2.20013e-08
-6.5045e-08
2.58872e-08
-8.63573e-08
2.90801e-08
-1.0945e-07
3.15522e-08
-1.33806e-07
3.33033e-08
-1.5892e-07
3.43507e-08
-1.84302e-07
3.47233e-08
-2.09489e-07
3.44571e-08
-2.34045e-07
3.3593e-08
-2.57565e-07
3.21752e-08
-2.79679e-07
3.02496e-08
-3.0005e-07
2.78638e-08
-3.18374e-07
2.50658e-08
-3.34387e-07
2.19047e-08
-3.47858e-07
1.84301e-08
-3.58596e-07
1.46924e-08
-3.66443e-07
1.07429e-08
-3.71286e-07
6.63392e-09
-3.73045e-07
2.41898e-09
-3.71684e-07
-1.8469e-09
-3.67209e-07
-6.10721e-09
-3.59667e-07
-1.03039e-08
-3.49148e-07
-1.43773e-08
-3.35789e-07
-1.82667e-08
-3.1977e-07
-2.19101e-08
-3.01318e-07
-2.52451e-08
-2.80703e-07
-2.82092e-08
-2.58243e-07
-3.07406e-08
-2.34298e-07
-3.27794e-08
-2.09268e-07
-3.42683e-08
-1.83592e-07
-3.5154e-08
-1.57743e-07
-3.53884e-08
-1.32222e-07
-3.49309e-08
-1.07553e-07
-3.37499e-08
-8.42681e-08
-3.18257e-08
-6.29024e-08
-2.91547e-08
-4.39717e-08
-2.57549e-08
-2.79508e-08
-2.16756e-08
-1.52377e-08
-1.70134e-08
-6.10112e-09
-1.19412e-08
-5.96135e-10
-6.75756e-09
1.58019e-09
-1.97288e-09
1.2246e-09
1.56889e-09
2.33501e-09
1.04719e-10
-2.36454e-09
-2.37533e-09
1.23346e-09
-8.98433e-09
9.08918e-09
-2.04972e-08
1.88622e-08
-3.71483e-08
2.91703e-08
-5.87914e-08
3.91388e-08
-8.50182e-08
4.8228e-08
-1.15252e-07
5.61206e-08
-1.48814e-07
6.26422e-08
-1.84972e-07
6.77109e-08
-2.22975e-07
7.13056e-08
-2.6207e-07
7.34461e-08
-3.01527e-07
7.41802e-08
-3.40644e-07
7.3574e-08
-3.78758e-07
7.17071e-08
-4.1525e-07
6.86674e-08
-4.4955e-07
6.45492e-08
-4.81137e-07
5.94508e-08
-5.09545e-07
5.34736e-08
-5.34361e-07
4.67214e-08
-5.55231e-07
3.93001e-08
-5.71856e-07
3.13174e-08
-5.83997e-07
2.28835e-08
-5.91474e-07
1.41108e-08
-5.94169e-07
5.11437e-09
-5.92028e-07
-3.9876e-09
-5.85062e-07
-1.3074e-08
-5.73345e-07
-2.20206e-08
-5.57022e-07
-3.07004e-08
-5.36305e-07
-3.89839e-08
-5.11475e-07
-4.67399e-08
-4.82883e-07
-5.38365e-08
-4.5095e-07
-6.01425e-08
-4.16162e-07
-6.5529e-08
-3.7907e-07
-6.98712e-08
-3.40287e-07
-7.30513e-08
-3.0048e-07
-7.49608e-08
-2.60364e-07
-7.55041e-08
-2.20693e-07
-7.46022e-08
-1.82245e-07
-7.2198e-08
-1.45808e-07
-6.82622e-08
-1.12161e-07
-6.28018e-08
-8.20436e-08
-5.58727e-08
-5.6121e-08
-4.75982e-08
-3.49369e-08
-3.81975e-08
-1.88451e-08
-2.80329e-08
-7.91851e-09
-1.76842e-08
-1.8372e-09
-8.0542e-09
2.65288e-10
-5.33575e-10
2.60029e-09
-1.32915e-09
-1.03542e-09
-7.17004e-09
7.07439e-09
-1.86902e-08
2.06094e-08
-3.64727e-08
3.66447e-08
-6.06413e-08
5.33388e-08
-9.09534e-08
6.94509e-08
-1.26894e-07
8.41681e-08
-1.67755e-07
9.69824e-08
-2.12708e-07
1.07595e-07
-2.60846e-07
1.15849e-07
-3.11231e-07
1.2169e-07
-3.62918e-07
1.25133e-07
-4.14978e-07
1.26241e-07
-4.66516e-07
1.25112e-07
-5.16681e-07
1.21872e-07
-5.64675e-07
1.16661e-07
-6.09758e-07
1.09632e-07
-6.51255e-07
1.00948e-07
-6.88561e-07
9.07793e-08
-7.21138e-07
7.92988e-08
-7.48524e-07
6.66858e-08
-7.7033e-07
5.31231e-08
-7.86244e-07
3.87976e-08
-7.96034e-07
2.39006e-08
-7.99547e-07
8.62782e-09
-7.96715e-07
-6.8199e-09
-7.87552e-07
-2.22369e-08
-7.7216e-07
-3.74128e-08
-7.50728e-07
-5.21325e-08
-7.23534e-07
-6.61777e-08
-6.90946e-07
-7.93275e-08
-6.53422e-07
-9.13608e-08
-6.11507e-07
-1.02058e-07
-5.65831e-07
-1.11205e-07
-5.17108e-07
-1.18594e-07
-4.66126e-07
-1.24033e-07
-4.13742e-07
-1.27345e-07
-3.6087e-07
-1.28376e-07
-3.08469e-07
-1.27003e-07
-2.57524e-07
-1.23143e-07
-2.09027e-07
-1.16759e-07
-1.63949e-07
-1.0788e-07
-1.23206e-07
-9.6616e-08
-8.76166e-08
-8.31877e-08
-5.785e-08
-6.7964e-08
-3.43595e-08
-5.15234e-08
-1.73027e-08
-3.4741e-08
-6.45308e-09
-1.89038e-08
-1.11772e-09
-5.86894e-09
1.48257e-09
-2.86271e-09
1.8273e-09
-1.23924e-08
1.66041e-08
-2.92342e-08
3.74513e-08
-5.36626e-08
6.10731e-08
-8.55934e-08
8.52696e-08
-1.24629e-07
1.08487e-07
-1.70122e-07
1.2966e-07
-2.21232e-07
1.48093e-07
-2.76992e-07
1.63355e-07
-3.3635e-07
1.75207e-07
-3.98211e-07
1.83552e-07
-4.61471e-07
1.88393e-07
-5.2504e-07
1.89809e-07
-5.87861e-07
1.87934e-07
-6.48927e-07
1.82938e-07
-7.07288e-07
1.75023e-07
-7.62066e-07
1.6441e-07
-8.12456e-07
1.51338e-07
-8.57731e-07
1.36054e-07
-8.9725e-07
1.18818e-07
-9.30459e-07
9.98949e-08
-9.56893e-07
7.95567e-08
-9.76178e-07
5.8083e-08
-9.88037e-07
3.57595e-08
-9.92288e-07
1.2879e-08
-9.8885e-07
-1.02584e-08
-9.77741e-07
-3.33457e-08
-9.59085e-07
-5.6069e-08
-9.33109e-07
-7.81084e-08
-9.00148e-07
-9.91391e-08
-8.60641e-07
-1.18834e-07
-8.15137e-07
-1.36865e-07
-7.64285e-07
-1.5291e-07
-7.08839e-07
-1.66651e-07
-6.49645e-07
-1.77788e-07
-5.8764e-07
-1.86039e-07
-5.23837e-07
-1.91147e-07
-4.59318e-07
-1.92895e-07
-3.95211e-07
-1.91111e-07
-3.32672e-07
-1.85681e-07
-2.72863e-07
-1.76568e-07
-2.16916e-07
-1.63827e-07
-1.65899e-07
-1.47633e-07
-1.20772e-07
-1.28315e-07
-8.23346e-08
-1.06401e-07
-5.11694e-08
-8.26886e-08
-2.75784e-08
-5.8332e-08
-1.15269e-08
-3.49553e-08
-2.60246e-09
-1.47934e-08
-1.1199e-09
-4.37499e-09
6.20232e-09
-1.7663e-08
2.9892e-08
-3.99723e-08
5.97606e-08
-7.12051e-08
9.23059e-08
-1.11009e-07
1.25073e-07
-1.58784e-07
1.56262e-07
-2.13717e-07
1.84593e-07
-2.74825e-07
2.09201e-07
-3.41e-07
2.29529e-07
-4.11053e-07
2.4526e-07
-4.83753e-07
2.56252e-07
-5.57857e-07
2.62497e-07
-6.32136e-07
2.64089e-07
-7.05399e-07
2.61197e-07
-7.76506e-07
2.54044e-07
-8.44381e-07
2.42898e-07
-9.08028e-07
2.28057e-07
-9.66531e-07
2.0984e-07
-1.01906e-06
1.88588e-07
-1.0649e-06
1.64652e-07
-1.1034e-06
1.38397e-07
-1.13404e-06
1.10198e-07
-1.1564e-06
8.04376e-08
-1.17015e-06
4.95109e-08
-1.17509e-06
1.78208e-08
-1.17113e-06
-1.42195e-08
-1.15829e-06
-4.61875e-08
-1.1367e-06
-7.76514e-08
-1.10664e-06
-1.08172e-07
-1.06848e-06
-1.37303e-07
-1.02271e-06
-1.64598e-07
-9.69969e-07
-1.89608e-07
-9.10987e-07
-2.11892e-07
-8.46619e-07
-2.3102e-07
-7.77825e-07
-2.46582e-07
-7.05666e-07
-2.58198e-07
-6.31289e-07
-2.65524e-07
-5.55914e-07
-2.6827e-07
-4.80816e-07
-2.66209e-07
-4.07298e-07
-2.59199e-07
-3.36671e-07
-2.47196e-07
-2.70213e-07
-2.30285e-07
-2.09136e-07
-2.08709e-07
-1.54545e-07
-1.82906e-07
-1.07386e-07
-1.5356e-07
-6.84029e-08
-1.21672e-07
-3.80918e-08
-8.86431e-08
-1.66703e-08
-5.63767e-08
-4.07272e-09
-2.73911e-08
-5.19262e-09
-5.81875e-09
1.20211e-08
-2.28086e-08
4.68818e-08
-5.05757e-08
8.75277e-08
-8.86327e-08
1.30363e-07
-1.36326e-07
1.72766e-07
-1.92819e-07
2.12755e-07
-2.57106e-07
2.48881e-07
-3.2804e-07
2.80135e-07
-4.04367e-07
3.05856e-07
-4.84762e-07
3.25655e-07
-5.67863e-07
3.39353e-07
-6.52301e-07
3.46934e-07
-7.36724e-07
3.48512e-07
-8.19822e-07
3.44295e-07
-9.00342e-07
3.34564e-07
-9.77103e-07
3.19659e-07
-1.049e-06
2.99959e-07
-1.11504e-06
2.75876e-07
-1.1743e-06
2.47848e-07
-1.22598e-06
2.16331e-07
-1.26938e-06
1.81799e-07
-1.30392e-06
1.44736e-07
-1.32913e-06
1.05644e-07
-1.34465e-06
6.50357e-08
-1.35026e-06
2.34351e-08
-1.34586e-06
-1.86197e-08
-1.33147e-06
-6.05787e-08
-1.30724e-06
-1.01881e-07
-1.27346e-06
-1.41955e-07
-1.23054e-06
-1.80223e-07
-1.17904e-06
-2.16104e-07
-1.11963e-06
-2.49018e-07
-1.05312e-06
-2.78393e-07
-9.80468e-07
-3.03675e-07
-9.02715e-07
-3.24336e-07
-8.21028e-07
-3.39884e-07
-7.36672e-07
-3.49881e-07
-6.50986e-07
-3.53955e-07
-5.65376e-07
-3.5182e-07
-4.81279e-07
-3.43296e-07
-4.00142e-07
-3.28333e-07
-3.23386e-07
-3.07041e-07
-2.52371e-07
-2.79724e-07
-1.88354e-07
-2.46923e-07
-1.3245e-07
-2.09464e-07
-8.55945e-08
-1.68527e-07
-4.85124e-08
-1.25725e-07
-2.17076e-08
-8.31815e-08
-5.47986e-09
-4.36189e-08
-1.06725e-08
-7.18478e-09
1.92059e-08
-2.77697e-08
6.74667e-08
-6.09093e-08
1.20667e-07
-1.05735e-07
1.75188e-07
-1.61277e-07
2.28309e-07
-2.26443e-07
2.77921e-07
-3.00012e-07
3.2245e-07
-3.80657e-07
3.6078e-07
-4.66966e-07
3.92165e-07
-5.57471e-07
4.1616e-07
-6.50681e-07
4.32562e-07
-7.45105e-07
4.41359e-07
-8.3928e-07
4.42687e-07
-9.31788e-07
4.36803e-07
-1.02128e-06
4.24052e-07
-1.10647e-06
4.04852e-07
-1.18618e-06
3.79672e-07
-1.25933e-06
3.49022e-07
-1.32493e-06
3.13447e-07
-1.38211e-06
2.73515e-07
-1.43013e-06
2.29814e-07
-1.46835e-06
1.82953e-07
-1.49626e-06
1.33556e-07
-1.51348e-06
8.22627e-08
-1.51978e-06
2.97291e-08
-1.51502e-06
-2.33731e-08
-1.49925e-06
-7.63575e-08
-1.4726e-06
-1.28523e-07
-1.4354e-06
-1.79159e-07
-1.38808e-06
-2.27542e-07
-1.33123e-06
-2.72949e-07
-1.26559e-06
-3.14658e-07
-1.19203e-06
-3.51955e-07
-1.11156e-06
-3.84152e-07
-1.0253e-06
-4.10589e-07
-9.34529e-07
-4.30658e-07
-8.40597e-07
-4.43813e-07
-7.44959e-07
-4.49592e-07
-6.49138e-07
-4.47641e-07
-5.54699e-07
-4.37735e-07
-4.63223e-07
-4.19808e-07
-3.76277e-07
-3.93987e-07
-2.95375e-07
-3.60627e-07
-2.21942e-07
-3.20355e-07
-1.57283e-07
-2.74123e-07
-1.02547e-07
-2.23264e-07
-5.8711e-08
-1.69561e-07
-2.65807e-08
-1.15312e-07
-6.81372e-09
-6.33859e-08
-1.74862e-08
-8.48084e-09
2.76867e-08
-3.25457e-08
9.15315e-08
-7.0948e-08
1.5907e-07
-1.22456e-07
2.26696e-07
-1.85785e-07
2.91638e-07
-2.59571e-07
3.51707e-07
-3.42367e-07
4.05246e-07
-4.32647e-07
4.5106e-07
-5.28831e-07
4.88348e-07
-6.29302e-07
5.16631e-07
-7.32435e-07
5.35696e-07
-8.36621e-07
5.45545e-07
-9.40288e-07
5.46354e-07
-1.04192e-06
5.38433e-07
-1.14007e-06
5.22202e-07
-1.23338e-06
4.98163e-07
-1.32059e-06
4.66884e-07
-1.40055e-06
4.28981e-07
-1.47221e-06
3.85112e-07
-1.53466e-06
3.35964e-07
-1.5871e-06
2.82249e-07
-1.62885e-06
2.24703e-07
-1.65937e-06
1.64082e-07
-1.67827e-06
1.01161e-07
-1.68527e-06
3.67322e-08
-1.68026e-06
-2.83904e-08
-1.66324e-06
-9.33765e-08
-1.63438e-06
-1.57379e-07
-1.59401e-06
-2.19535e-07
-1.54257e-06
-2.78974e-07
-1.48071e-06
-3.34818e-07
-1.40917e-06
-3.86192e-07
-1.32889e-06
-4.32235e-07
-1.24093e-06
-4.72109e-07
-1.14651e-06
-5.05018e-07
-1.04694e-06
-5.30222e-07
-9.43695e-07
-5.47058e-07
-8.38323e-07
-5.54965e-07
-7.32459e-07
-5.53505e-07
-6.27795e-07
-5.42399e-07
-5.26049e-07
-5.21554e-07
-4.28939e-07
-4.91097e-07
-3.38144e-07
-4.51422e-07
-2.55275e-07
-4.03224e-07
-1.81841e-07
-3.47557e-07
-1.19227e-07
-2.85878e-07
-6.86752e-08
-2.20112e-07
-3.12944e-08
-1.52693e-07
-8.08321e-09
-8.6597e-08
-2.55694e-08
-9.72105e-09
3.74078e-08
-3.71648e-08
1.18975e-07
-8.07261e-08
2.02631e-07
-1.38831e-07
2.848e-07
-2.09884e-07
3.62691e-07
-2.92247e-07
4.3407e-07
-3.84232e-07
4.97231e-07
-4.84106e-07
5.50935e-07
-5.90108e-07
5.9435e-07
-7.00465e-07
6.26988e-07
-8.13414e-07
6.48645e-07
-9.27225e-07
6.59356e-07
-1.04022e-06
6.59347e-07
-1.15078e-06
6.48996e-07
-1.25739e-06
6.28807e-07
-1.3586e-06
5.99377e-07
-1.4531e-06
5.61381e-07
-1.53966e-06
5.15548e-07
-1.61721e-06
4.62655e-07
-1.68476e-06
4.03516e-07
-1.74149e-06
3.38974e-07
-1.78668e-06
2.69897e-07
-1.81977e-06
1.97178e-07
-1.84034e-06
1.21731e-07
-1.84811e-06
4.4493e-08
-1.84292e-06
-3.35761e-08
-1.8248e-06
-1.11497e-07
-1.79391e-06
-1.88268e-07
-1.75057e-06
-2.62873e-07
-1.69527e-06
-3.3428e-07
-1.62863e-06
-4.01454e-07
-1.55146e-06
-4.63357e-07
-1.46473e-06
-5.1897e-07
-1.36954e-06
-5.673e-07
-1.26716e-06
-6.07398e-07
-1.159e-06
-6.38382e-07
-1.0466e-06
-6.59461e-07
-9.31603e-07
-6.69958e-07
-8.15767e-07
-6.69342e-07
-7.00905e-07
-6.57261e-07
-5.88879e-07
-6.3358e-07
-4.81565e-07
-5.98411e-07
-3.80822e-07
-5.52165e-07
-2.88459e-07
-4.95588e-07
-2.06208e-07
-4.29808e-07
-1.35701e-07
-3.56385e-07
-7.84575e-08
-2.77356e-07
-3.58852e-08
-1.95265e-07
-9.30474e-09
-1.13177e-07
-3.48741e-08
-1.09212e-08
4.8329e-08
-4.16676e-08
1.49722e-07
-9.03075e-08
2.51271e-07
-1.54943e-07
3.49436e-07
-2.33675e-07
4.41423e-07
-3.24589e-07
5.24984e-07
-4.25749e-07
5.98391e-07
-5.35206e-07
6.60392e-07
-6.51008e-07
7.10152e-07
-7.71217e-07
7.47197e-07
-8.93929e-07
7.71357e-07
-1.01729e-06
7.82717e-07
-1.13951e-06
7.81569e-07
-1.25889e-06
7.68376e-07
-1.37382e-06
7.43736e-07
-1.4828e-06
7.08354e-07
-1.58443e-06
6.63018e-07
-1.67747e-06
6.08582e-07
-1.76076e-06
5.4595e-07
-1.83331e-06
4.76067e-07
-1.89425e-06
3.9991e-07
-1.94284e-06
3.18487e-07
-1.97849e-06
2.3283e-07
-2.00076e-06
1.43999e-07
-2.00935e-06
5.30766e-08
-2.00409e-06
-3.88278e-08
-1.98501e-06
-1.3058e-07
-1.95225e-06
-2.21024e-07
-1.90615e-06
-3.08979e-07
-1.84718e-06
-3.93253e-07
-1.77599e-06
-4.7264e-07
-1.69341e-06
-5.45938e-07
-1.60042e-06
-6.11957e-07
-1.49818e-06
-6.69537e-07
-1.38801e-06
-7.17568e-07
-1.27138e-06
-7.55013e-07
-1.14991e-06
-7.80936e-07
-1.02534e-06
-7.94529e-07
-8.99527e-07
-7.95151e-07
-7.74428e-07
-7.82361e-07
-6.5205e-07
-7.55958e-07
-5.34438e-07
-7.16023e-07
-4.23642e-07
-6.62961e-07
-3.21686e-07
-5.97544e-07
-2.30539e-07
-5.20955e-07
-1.52092e-07
-4.34832e-07
-8.81452e-08
-3.41303e-07
-4.04051e-08
-2.43005e-07
-1.04973e-08
-1.43085e-07
-4.53714e-08
-1.20969e-08
6.0426e-08
-4.60987e-08
1.83723e-07
-9.97692e-08
3.04942e-07
-1.709e-07
4.20567e-07
-2.57294e-07
5.27817e-07
-3.56758e-07
6.24448e-07
-4.67104e-07
7.08737e-07
-5.86159e-07
7.79446e-07
-7.11772e-07
8.35765e-07
-8.41835e-07
8.7726e-07
-9.74294e-07
9.03816e-07
-1.10717e-06
9.15591e-07
-1.23856e-06
9.12964e-07
-1.36669e-06
8.96498e-07
-1.48985e-06
8.669e-07
-1.60649e-06
8.24995e-07
-1.71517e-06
7.71696e-07
-1.81458e-06
7.07989e-07
-1.90354e-06
6.34911e-07
-1.98102e-06
5.53546e-07
-2.04612e-06
4.65011e-07
-2.09808e-06
3.70454e-07
-2.13631e-06
2.71052e-07
-2.16032e-06
1.68011e-07
-2.1698e-06
6.25618e-08
-2.1646e-06
-4.4034e-08
-2.14469e-06
-1.50487e-07
-2.11023e-06
-2.5548e-07
-2.06154e-06
-3.57671e-07
-1.9991e-06
-4.55696e-07
-1.92356e-06
-5.4818e-07
-1.83575e-06
-6.33743e-07
-1.73669e-06
-7.11018e-07
-1.62756e-06
-7.78668e-07
-1.50972e-06
-8.35409e-07
-1.3847e-06
-8.80032e-07
-1.2542e-06
-9.11442e-07
-1.12004e-06
-9.28682e-07
-9.84215e-07
-9.3098e-07
-8.48791e-07
-9.17784e-07
-7.15941e-07
-8.88808e-07
-5.87891e-07
-8.44074e-07
-4.66893e-07
-7.83958e-07
-3.552e-07
-7.09236e-07
-2.55031e-07
-6.21124e-07
-1.68549e-07
-5.21314e-07
-9.78419e-08
-4.1201e-07
-4.49116e-08
-2.95935e-07
-1.168e-08
-1.76317e-07
-5.70513e-08
-1.32626e-08
7.36885e-08
-5.05023e-08
2.20963e-07
-1.09191e-07
3.6363e-07
-1.86817e-07
4.98193e-07
-2.80887e-07
6.21888e-07
-3.8893e-07
7.32491e-07
-5.085e-07
8.28307e-07
-6.37191e-07
9.08137e-07
-7.72649e-07
9.71223e-07
-9.12586e-07
1.0172e-06
-1.0548e-06
1.04603e-06
-1.19717e-06
1.05797e-06
-1.33771e-06
1.0535e-06
-1.47452e-06
1.03331e-06
-1.60586e-06
9.98234e-07
-1.73009e-06
9.49225e-07
-1.84572e-06
8.87335e-07
-1.95143e-06
8.1369e-07
-2.04598e-06
7.29471e-07
-2.12834e-06
6.35902e-07
-2.19757e-06
5.34245e-07
-2.25291e-06
4.25794e-07
-2.29373e-06
3.1187e-07
-2.31955e-06
1.93824e-07
-2.33002e-06
7.30387e-08
-2.32498e-06
-4.90738e-08
-2.3044e-06
-1.71068e-07
-2.26842e-06
-2.91466e-07
-2.21733e-06
-4.08759e-07
-2.15161e-06
-5.21413e-07
-2.07192e-06
-6.27874e-07
-1.97908e-06
-7.26581e-07
-1.87411e-06
-8.15982e-07
-1.75823e-06
-8.94549e-07
-1.63283e-06
-9.6081e-07
-1.49949e-06
-1.01337e-06
-1.35997e-06
-1.05096e-06
-1.21621e-06
-1.07245e-06
-1.07029e-06
-1.0769e-06
-9.24421e-07
-1.06365e-06
-7.80946e-07
-1.03228e-06
-6.42278e-07
-9.82741e-07
-5.10888e-07
-9.15348e-07
-3.89268e-07
-8.30856e-07
-2.79902e-07
-7.30489e-07
-1.85238e-07
-6.15979e-07
-1.07657e-07
-4.89591e-07
-4.94636e-08
-3.54128e-07
-1.28714e-08
-2.12909e-07
-6.99227e-08
-1.44312e-08
8.81197e-08
-5.49199e-08
2.61452e-07
-1.18648e-07
4.27358e-07
-2.02806e-07
5.8235e-07
-3.04602e-07
7.23684e-07
-4.21282e-07
8.4917e-07
-5.50136e-07
9.57162e-07
-6.88521e-07
1.04652e-06
-8.33871e-07
1.11657e-06
-9.83716e-07
1.16704e-06
-1.13569e-06
1.198e-06
-1.28756e-06
1.20983e-06
-1.43721e-06
1.20315e-06
-1.58266e-06
1.17877e-06
-1.7221e-06
1.13767e-06
-1.85384e-06
1.08097e-06
-1.97636e-06
1.00985e-06
-2.08828e-06
9.25608e-07
-2.18836e-06
8.29559e-07
-2.27555e-06
7.23082e-07
-2.34888e-06
6.07584e-07
-2.4076e-06
4.84505e-07
-2.45104e-06
3.55312e-07
-2.47872e-06
2.21503e-07
-2.49028e-06
8.46054e-08
-2.48554e-06
-5.38163e-08
-2.46445e-06
-1.92162e-07
-2.42712e-06
-3.28795e-07
-2.37384e-06
-4.6204e-07
-2.30506e-06
-5.90189e-07
-2.22143e-06
-7.11508e-07
-2.12376e-06
-8.24249e-07
-2.01308e-06
-9.26662e-07
-1.89061e-06
-1.01702e-06
-1.75776e-06
-1.09365e-06
-1.61618e-06
-1.15496e-06
-1.46767e-06
-1.19946e-06
-1.31427e-06
-1.22585e-06
-1.15816e-06
-1.23301e-06
-1.00172e-06
-1.22009e-06
-8.47448e-07
-1.18656e-06
-6.97954e-07
-1.13224e-06
-5.55942e-07
-1.05736e-06
-4.2416e-07
-9.62638e-07
-3.05372e-07
-8.49277e-07
-2.02321e-07
-7.19029e-07
-1.17699e-07
-5.74213e-07
-5.41184e-08
-4.1771e-07
-1.40891e-08
-2.52939e-07
-8.40118e-08
-1.56143e-08
1.03734e-07
-5.93892e-08
3.05227e-07
-1.28214e-07
4.96183e-07
-2.18974e-07
6.7311e-07
-3.28577e-07
8.33287e-07
-4.53978e-07
9.74571e-07
-5.92199e-07
1.09538e-06
-7.40349e-07
1.19467e-06
-8.95646e-07
1.27187e-06
-1.05543e-06
1.32683e-06
-1.21718e-06
1.35975e-06
-1.37852e-06
1.37117e-06
-1.53723e-06
1.36186e-06
-1.69125e-06
1.33279e-06
-1.83871e-06
1.28513e-06
-1.97787e-06
1.22012e-06
-2.10716e-06
1.13915e-06
-2.2252e-06
1.04364e-06
-2.33073e-06
9.3509e-07
-2.42266e-06
8.15018e-07
-2.50007e-06
6.84986e-07
-2.56214e-06
5.46578e-07
-2.60823e-06
4.01405e-07
-2.63784e-06
2.5111e-07
-2.6506e-06
9.7365e-08
-2.64629e-06
-5.812e-08
-2.62486e-06
-2.13594e-07
-2.5864e-06
-3.67262e-07
-2.53115e-06
-5.17285e-07
-2.45956e-06
-6.61782e-07
-2.37223e-06
-7.98836e-07
-2.26998e-06
-9.26504e-07
-2.1538e-06
-1.04284e-06
-2.02493e-06
-1.14589e-06
-1.8848e-06
-1.23378e-06
-1.73507e-06
-1.30469e-06
-1.57763e-06
-1.35691e-06
-1.41457e-06
-1.3889e-06
-1.24822e-06
-1.39936e-06
-1.08107e-06
-1.38724e-06
-9.15806e-07
-1.35182e-06
-7.55256e-07
-1.29278e-06
-6.02362e-07
-1.21026e-06
-4.60142e-07
-1.10486e-06
-3.31656e-07
-9.77763e-07
-2.19962e-07
-8.30723e-07
-1.28075e-07
-6.66099e-07
-5.89306e-08
-4.86854e-07
-1.53493e-08
-2.9652e-07
-9.93611e-08
-1.6822e-08
1.20556e-07
-6.39441e-08
3.52349e-07
-1.37953e-07
5.70192e-07
-2.35419e-07
7.70577e-07
-3.5294e-07
9.50808e-07
-4.87171e-07
1.1088e-06
-6.34855e-07
1.24307e-06
-7.92848e-07
1.35267e-06
-9.58143e-07
1.43716e-06
-1.12789e-06
1.49657e-06
-1.29939e-06
1.53126e-06
-1.47015e-06
1.54193e-06
-1.63785e-06
1.52955e-06
-1.80034e-06
1.49529e-06
-1.95569e-06
1.44047e-06
-2.10212e-06
1.36655e-06
-2.23805e-06
1.27508e-06
-2.36206e-06
1.16766e-06
-2.47291e-06
1.04594e-06
-2.5695e-06
9.11608e-07
-2.65089e-06
7.66378e-07
-2.71629e-06
6.11977e-07
-2.76504e-06
4.50158e-07
-2.79664e-06
2.82703e-07
-2.81069e-06
1.11421e-07
-2.80698e-06
-6.18342e-08
-2.7854e-06
-2.35168e-07
-2.74603e-06
-4.06633e-07
-2.68909e-06
-5.7423e-07
-2.61496e-06
-7.35906e-07
-2.52424e-06
-8.8956e-07
-2.41769e-06
-1.03305e-06
-2.2963e-06
-1.16422e-06
-2.16128e-06
-1.28091e-06
-2.01407e-06
-1.38099e-06
-1.85636e-06
-1.4624e-06
-1.69007e-06
-1.52319e-06
-1.51739e-06
-1.56158e-06
-1.34074e-06
-1.57601e-06
-1.16277e-06
-1.56521e-06
-9.86338e-07
-1.52825e-06
-8.14494e-07
-1.46463e-06
-6.50434e-07
-1.37432e-06
-4.97465e-07
-1.25783e-06
-3.58961e-07
-1.11627e-06
-2.38314e-07
-9.5137e-07
-1.38885e-07
-7.65529e-07
-6.3952e-08
-5.61787e-07
-1.66673e-08
-3.43804e-07
-1.16028e-07
-1.80634e-08
1.38619e-07
-6.86153e-08
4.02901e-07
-1.47923e-07
6.49499e-07
-2.52228e-07
8.74882e-07
-3.77804e-07
1.07638e-06
-5.20992e-07
1.25199e-06
-6.78245e-07
1.40032e-06
-8.46157e-07
1.52058e-06
-1.02149e-06
1.6125e-06
-1.20118e-06
1.67627e-06
-1.3824e-06
1.71247e-06
-1.5625e-06
1.72203e-06
-1.73905e-06
1.7061e-06
-1.90984e-06
1.66609e-06
-2.07289e-06
1.60352e-06
-2.22639e-06
1.52005e-06
-2.36875e-06
1.41743e-06
-2.49854e-06
1.29745e-06
-2.61452e-06
1.16192e-06
-2.71561e-06
1.0127e-06
-2.80087e-06
8.51646e-07
-2.86953e-06
6.80634e-07
-2.92093e-06
5.01555e-07
-2.95455e-06
3.16321e-07
-2.97e-06
1.26875e-07
-2.96703e-06
-6.48e-08
-2.94553e-06
-2.5667e-07
-2.90552e-06
-4.46644e-07
-2.84718e-06
-6.32568e-07
-2.77087e-06
-8.12222e-07
-2.6771e-06
-9.83323e-07
-2.56663e-06
-1.14353e-06
-2.44038e-06
-1.29047e-06
-2.29953e-06
-1.42175e-06
-2.14553e-06
-1.53499e-06
-1.98007e-06
-1.62787e-06
-1.8051e-06
-1.69816e-06
-1.62289e-06
-1.7438e-06
-1.43595e-06
-1.76296e-06
-1.24707e-06
-1.75409e-06
-1.05931e-06
-1.71601e-06
-8.75941e-07
-1.648e-06
-7.0042e-07
-1.54984e-06
-5.36364e-07
-1.42188e-06
-3.87481e-07
-1.26515e-06
-2.57524e-07
-1.08133e-06
-1.50224e-07
-8.72829e-07
-6.92316e-08
-6.42779e-07
-1.80574e-08
-3.94979e-07
-1.34086e-07
-1.93466e-08
1.57966e-07
-7.34304e-08
4.56984e-07
-1.58177e-07
7.34246e-07
-2.6948e-07
9.86185e-07
-4.03268e-07
1.21017e-06
-5.55553e-07
1.40428e-06
-7.22484e-07
1.56725e-06
-9.00379e-07
1.69847e-06
-1.08576e-06
1.79787e-06
-1.27537e-06
1.86588e-06
-1.46619e-06
1.9033e-06
-1.65547e-06
1.9113e-06
-1.84067e-06
1.89131e-06
-2.01953e-06
1.84495e-06
-2.19001e-06
1.774e-06
-2.35029e-06
1.68034e-06
-2.49877e-06
1.56592e-06
-2.63406e-06
1.43273e-06
-2.75492e-06
1.28278e-06
-2.86028e-06
1.11807e-06
-2.94925e-06
9.40613e-07
-3.02105e-06
7.52432e-07
-3.07504e-06
5.55543e-07
-3.1107e-06
3.51983e-07
-3.12764e-06
1.43816e-07
-3.12559e-06
-6.68523e-08
-3.10439e-06
-2.77864e-07
-3.06404e-06
-4.86993e-07
-3.00467e-06
-6.91941e-07
-2.92657e-06
-8.90327e-07
-2.8302e-06
-1.07969e-06
-2.71624e-06
-1.25749e-06
-2.58558e-06
-1.42114e-06
-2.43935e-06
-1.56798e-06
-2.27895e-06
-1.69539e-06
-2.10607e-06
-1.80075e-06
-1.92268e-06
-1.88154e-06
-1.73111e-06
-1.93538e-06
-1.53395e-06
-1.96011e-06
-1.33415e-06
-1.95388e-06
-1.13494e-06
-1.91522e-06
-9.39825e-07
-1.84312e-06
-7.52549e-07
-1.73711e-06
-5.77049e-07
-1.59738e-06
-4.17396e-07
-1.4248e-06
-2.77728e-07
-1.22099e-06
-1.62183e-07
-9.88375e-07
-7.48159e-08
-7.30146e-07
-1.95332e-08
-4.50261e-07
-1.53619e-07
-2.06792e-08
1.78645e-07
-7.84149e-08
5.1472e-07
-1.68765e-07
8.24596e-07
-2.87247e-07
1.10467e-06
-4.29421e-07
1.35234e-06
-5.90951e-07
1.56581e-06
-7.67662e-07
1.74396e-06
-9.55583e-07
1.88639e-06
-1.15099e-06
1.99328e-06
-1.35041e-06
2.0653e-06
-1.55068e-06
2.10357e-06
-1.7489e-06
2.10952e-06
-1.94246e-06
2.08487e-06
-2.12903e-06
2.03152e-06
-2.30656e-06
1.95152e-06
-2.47323e-06
1.847e-06
-2.62745e-06
1.72014e-06
-2.76784e-06
1.57312e-06
-2.89322e-06
1.40815e-06
-3.00255e-06
1.2274e-06
-3.09496e-06
1.03303e-06
-3.16972e-06
8.27187e-07
-3.2262e-06
6.12019e-07
-3.26389e-06
3.89673e-07
-3.28239e-06
1.62322e-07
-3.28142e-06
-6.78233e-08
-3.26079e-06
-2.98491e-07
-3.22045e-06
-5.27338e-07
-3.16046e-06
-7.51931e-07
-3.08104e-06
-9.6974e-07
-2.9826e-06
-1.17813e-06
-2.86572e-06
-1.37437e-06
-2.73121e-06
-1.55564e-06
-2.58015e-06
-1.71905e-06
-2.41386e-06
-1.86168e-06
-2.23402e-06
-1.9806e-06
-2.0426e-06
-2.07296e-06
-1.84195e-06
-2.13603e-06
-1.63476e-06
-2.1673e-06
-1.42409e-06
-2.16455e-06
-1.21336e-06
-2.12595e-06
-1.00633e-06
-2.05015e-06
-8.07014e-07
-1.93642e-06
-6.19709e-07
-1.78469e-06
-4.48869e-07
-1.59564e-06
-2.99056e-07
-1.37081e-06
-1.74847e-07
-1.11258e-06
-8.07498e-08
-8.24243e-07
-2.11081e-08
-5.09903e-07
-1.74727e-07
-2.20684e-08
2.00714e-07
-8.35936e-08
5.76245e-07
-1.79732e-07
9.20734e-07
-3.05595e-07
1.23053e-06
-4.56344e-07
1.50309e-06
-6.27267e-07
1.73673e-06
-8.13844e-07
1.93054e-06
-1.0118e-06
2.08435e-06
-1.21716e-06
2.19863e-06
-1.42623e-06
2.27438e-06
-1.63568e-06
2.31302e-06
-1.8425e-06
2.31634e-06
-2.04401e-06
2.28637e-06
-2.23783e-06
2.22535e-06
-2.4219e-06
2.1356e-06
-2.59443e-06
2.01953e-06
-2.75385e-06
1.87956e-06
-2.89884e-06
1.71811e-06
-3.02826e-06
1.53757e-06
-3.14113e-06
1.34027e-06
-3.23665e-06
1.12854e-06
-3.3141e-06
9.04637e-07
-3.3729e-06
6.70819e-07
-3.41256e-06
4.29333e-07
-3.43268e-06
1.82444e-07
-3.43296e-06
-6.75468e-08
-3.41317e-06
-3.18275e-07
-3.37321e-06
-5.67295e-07
-3.31309e-06
-8.12057e-07
-3.23293e-06
-1.0499e-06
-3.13305e-06
-1.27802e-06
-3.01392e-06
-1.4935e-06
-2.87627e-06
-1.69329e-06
-2.72107e-06
-1.87426e-06
-2.54957e-06
-2.03317e-06
-2.36338e-06
-2.16678e-06
-2.16446e-06
-2.27188e-06
-1.95516e-06
-2.34534e-06
-1.73823e-06
-2.38423e-06
-1.51686e-06
-2.38592e-06
-1.29465e-06
-2.34816e-06
-1.07557e-06
-2.26923e-06
-8.63973e-07
-2.14802e-06
-6.64509e-07
-1.98415e-06
-4.82054e-07
-1.7781e-06
-3.21629e-07
-1.53123e-06
-1.88301e-07
-1.24591e-06
-8.70769e-08
-9.25467e-07
-2.27948e-08
-5.74185e-07
-1.97522e-07
-2.35218e-08
2.24235e-07
-8.89917e-08
6.41715e-07
-1.91126e-07
1.02287e-06
-3.24589e-07
1.36399e-06
-4.8411e-07
1.66261e-06
-6.64569e-07
1.91719e-06
-8.61076e-07
2.12705e-06
-1.06904e-06
2.29231e-06
-1.28419e-06
2.41379e-06
-1.50266e-06
2.49284e-06
-1.72093e-06
2.53129e-06
-1.93588e-06
2.53129e-06
-2.14478e-06
2.49527e-06
-2.34524e-06
2.4258e-06
-2.53519e-06
2.32555e-06
-2.71288e-06
2.19722e-06
-2.87681e-06
2.0435e-06
-3.02573e-06
1.86703e-06
-3.15858e-06
1.67041e-06
-3.27445e-06
1.45615e-06
-3.3726e-06
1.22669e-06
-3.45238e-06
9.84423e-07
-3.51326e-06
7.317e-07
-3.55478e-06
4.70849e-07
-3.57654e-06
2.04204e-07
-3.57822e-06
-6.58634e-08
-3.55958e-06
-3.36919e-07
-3.52044e-06
-6.06435e-07
-3.46073e-06
-8.71768e-07
-3.38049e-06
-1.13013e-06
-3.27991e-06
-1.37859e-06
-3.15936e-06
-1.61405e-06
-3.01943e-06
-1.83323e-06
-2.86096e-06
-2.03273e-06
-2.6851e-06
-2.20903e-06
-2.49337e-06
-2.35852e-06
-2.28766e-06
-2.47759e-06
-2.07031e-06
-2.56269e-06
-1.84411e-06
-2.61043e-06
-1.61234e-06
-2.61769e-06
-1.37877e-06
-2.58174e-06
-1.14761e-06
-2.50039e-06
-9.23541e-07
-2.37209e-06
-7.11589e-07
-2.19611e-06
-5.17086e-07
-1.9726e-06
-3.45562e-07
-1.70276e-06
-2.02624e-07
-1.38885e-06
-9.38409e-08
-1.03425e-06
-2.46067e-08
-6.43419e-07
-2.22128e-07
-2.50476e-08
2.49283e-07
-9.46366e-08
7.11304e-07
-2.02996e-07
1.13123e-06
-3.44299e-07
1.5053e-06
-5.12795e-07
1.83111e-06
-7.02921e-07
2.10731e-06
-9.09387e-07
2.33351e-06
-1.12725e-06
2.51018e-06
-1.35198e-06
2.63852e-06
-1.57947e-06
2.72033e-06
-1.80606e-06
2.75787e-06
-2.02853e-06
2.75376e-06
-2.2441e-06
2.71084e-06
-2.45038e-06
2.63208e-06
-2.64536e-06
2.52053e-06
-2.82733e-06
2.3792e-06
-2.99491e-06
2.21107e-06
-3.14691e-06
2.01904e-06
-3.2824e-06
1.80589e-06
-3.40056e-06
1.57431e-06
-3.50075e-06
1.32687e-06
-3.5824e-06
1.06607e-06
-3.64503e-06
7.9433e-07
-3.68822e-06
5.14038e-07
-3.71159e-06
2.27582e-07
-3.71483e-06
-6.26272e-08
-3.69764e-06
-3.54109e-07
-3.65979e-06
-6.44284e-07
-3.60112e-06
-9.30438e-07
-3.52156e-06
-1.20969e-06
-3.42117e-06
-1.47898e-06
-3.30017e-06
-1.73504e-06
-3.159e-06
-1.9744e-06
-2.99833e-06
-2.1934e-06
-2.81918e-06
-2.38818e-06
-2.62292e-06
-2.55478e-06
-2.41136e-06
-2.68915e-06
-2.18677e-06
-2.78728e-06
-1.95195e-06
-2.84524e-06
-1.71026e-06
-2.85938e-06
-1.46561e-06
-2.82639e-06
-1.22246e-06
-2.74354e-06
-9.85791e-07
-2.60876e-06
-7.61063e-07
-2.42083e-06
-5.54093e-07
-2.17957e-06
-3.70967e-07
-1.88588e-06
-2.17899e-07
-1.54192e-06
-1.01086e-07
-1.15106e-06
-2.65574e-08
-7.17948e-07
-2.48686e-07
-2.66553e-08
2.75938e-07
-1.0056e-07
7.85208e-07
-2.154e-07
1.24607e-06
-3.648e-07
1.6547e-06
-5.42481e-07
2.00879e-06
-7.42388e-07
2.30722e-06
-9.58796e-07
2.54992e-06
-1.1864e-06
2.73778e-06
-1.42037e-06
2.87248e-06
-1.65637e-06
2.95633e-06
-1.89061e-06
2.99211e-06
-2.11979e-06
2.98294e-06
-2.3411e-06
2.93216e-06
-2.55219e-06
2.84318e-06
-2.75112e-06
2.71945e-06
-2.93629e-06
2.56436e-06
-3.10641e-06
2.38119e-06
-3.26046e-06
2.17309e-06
-3.3976e-06
1.94304e-06
-3.51718e-06
1.69389e-06
-3.61865e-06
1.42835e-06
-3.70156e-06
1.14897e-06
-3.76549e-06
8.58265e-07
-3.8101e-06
5.58641e-07
-3.83502e-06
2.52506e-07
-3.83993e-06
-5.77138e-08
-3.82452e-06
-3.69525e-07
-3.78848e-06
-6.80326e-07
-3.73155e-06
-9.87364e-07
-3.65355e-06
-1.2877e-06
-3.55437e-06
-1.57816e-06
-3.43407e-06
-1.85534e-06
-3.29289e-06
-2.11559e-06
-3.13132e-06
-2.35497e-06
-2.95018e-06
-2.56932e-06
-2.75066e-06
-2.75429e-06
-2.53443e-06
-2.90538e-06
-2.30367e-06
-3.01804e-06
-2.06114e-06
-3.08778e-06
-1.81022e-06
-3.1103e-06
-1.55494e-06
-3.08167e-06
-1.30002e-06
-2.99847e-06
-1.05075e-06
-2.85802e-06
-8.13021e-07
-2.65856e-06
-5.9319e-07
-2.3994e-06
-3.97955e-07
-2.08112e-06
-2.34208e-07
-1.70566e-06
-1.0886e-07
-1.27641e-06
-2.86615e-08
-7.98146e-07
-2.77347e-07
-2.83565e-08
3.04295e-07
-1.06799e-07
8.63651e-07
-2.28405e-07
1.36767e-06
-3.86183e-07
1.81247e-06
-5.73261e-07
2.19587e-06
-7.83038e-07
2.517e-06
-1.00932e-06
2.7762e-06
-1.24639e-06
2.97486e-06
-1.48912e-06
3.11522e-06
-1.73297e-06
3.20018e-06
-1.974e-06
3.23314e-06
-2.20886e-06
3.2178e-06
-2.43476e-06
3.15805e-06
-2.6494e-06
3.05782e-06
-2.85095e-06
2.921e-06
-3.03796e-06
2.75137e-06
-3.2093e-06
2.55253e-06
-3.3641e-06
2.32789e-06
-3.50171e-06
2.08065e-06
-3.62163e-06
1.81381e-06
-3.72346e-06
1.53017e-06
-3.80686e-06
1.23238e-06
-3.87153e-06