/*--------------------------------*- C++ -*----------------------------------*\
  =========                 |
  \\      /  F ield         | OpenFOAM: The Open Source CFD Toolbox
   \\    /   O peration     | Website:  https://openfoam.org
    \\  /    A nd           | Version:  7
     \\/     M anipulation  |
\*---------------------------------------------------------------------------*/
FoamFile
{
    version     2.0;
    format      ascii;
    class       surfaceScalarField;
    location    "0.0338";
    object      phi;
}
// * * * * * * * * * * * * * * * * * * * * * * * * * * * * * * * * * * * * * //

dimensions      [0 3 -1 0 0 0 0];

internalField   nonuniform List<scalar> 
4900
(
9.38663e-10
-9.3316e-10
1.77336e-09
-8.34739e-10
1.5897e-09
1.83679e-10
9.93558e-11
1.49035e-09
-2.71737e-09
2.81672e-09
-6.77615e-09
4.05878e-09
-1.19205e-08
5.14437e-09
-1.79705e-08
6.04998e-09
-2.4741e-08
6.77049e-09
-3.20497e-08
7.30872e-09
-3.97215e-08
7.67179e-09
-4.75908e-08
7.86925e-09
-5.55028e-08
7.91199e-09
-6.33144e-08
7.8116e-09
-7.08943e-08
7.57992e-09
-7.81231e-08
7.22885e-09
-8.48933e-08
6.77011e-09
-9.11085e-08
6.21521e-09
-9.66839e-08
5.57538e-09
-1.01545e-07
4.86154e-09
-1.0563e-07
4.0844e-09
-1.08884e-07
3.25447e-09
-1.11266e-07
2.38217e-09
-1.12744e-07
1.47789e-09
-1.13296e-07
5.5214e-10
-1.12912e-07
-3.84404e-10
-1.11591e-07
-1.32077e-09
-1.09346e-07
-2.24561e-09
-1.06199e-07
-3.14716e-09
-1.02185e-07
-4.0132e-09
-9.73543e-08
-4.83103e-09
-9.17668e-08
-5.5875e-09
-8.54978e-08
-6.2691e-09
-7.86357e-08
-6.86205e-09
-7.12833e-08
-7.35244e-09
-6.35569e-08
-7.72639e-09
-5.55865e-08
-7.97033e-09
-4.75153e-08
-8.0712e-09
-3.94985e-08
-8.01679e-09
-3.17025e-08
-7.79608e-09
-2.43027e-08
-7.39977e-09
-1.74818e-08
-6.82089e-09
-1.14259e-08
-6.05592e-09
-6.31922e-09
-5.10667e-09
-2.33521e-09
-3.98402e-09
3.81789e-10
-2.71701e-09
1.75503e-09
-1.37325e-09
1.83902e-09
-8.39875e-11
9.4186e-10
8.97174e-10
9.41877e-10
8.50108e-10
-1.78331e-09
5.91812e-10
-5.76435e-10
-2.06772e-09
2.84322e-09
-7.70522e-09
7.12783e-09
-1.64524e-08
1.15639e-08
-2.81532e-08
1.57596e-08
-4.25056e-08
1.94967e-08
-5.91204e-08
2.26648e-08
-7.75669e-08
2.5217e-08
-9.74007e-08
2.71424e-08
-1.18181e-07
2.84516e-08
-1.3948e-07
2.91684e-08
-1.60893e-07
2.93249e-08
-1.82039e-07
2.89578e-08
-2.02566e-07
2.81069e-08
-2.22151e-07
2.68135e-08
-2.405e-07
2.51193e-08
-2.5735e-07
2.30657e-08
-2.72469e-07
2.06939e-08
-2.85652e-07
1.80446e-08
-2.96725e-07
1.51578e-08
-3.05544e-07
1.2073e-08
-3.11991e-07
8.82969e-09
-3.15981e-07
5.46731e-09
-3.17454e-07
2.02568e-09
-3.16384e-07
-1.45467e-09
-3.12772e-07
-4.93223e-09
-3.06654e-07
-8.36427e-09
-2.98094e-07
-1.17066e-08
-2.87194e-07
-1.49136e-08
-2.74087e-07
-1.79381e-08
-2.58943e-07
-2.07315e-08
-2.41968e-07
-2.32444e-08
-2.23403e-07
-2.54265e-08
-2.03528e-07
-2.72277e-08
-1.82656e-07
-2.85985e-08
-1.61135e-07
-2.94911e-08
-1.39346e-07
-2.98605e-08
-1.17696e-07
-2.96659e-08
-9.662e-08
-2.88725e-08
-7.6566e-08
-2.74538e-08
-5.79923e-08
-2.53946e-08
-4.13518e-08
-2.26964e-08
-2.70736e-08
-1.93849e-08
-1.5534e-08
-1.55237e-08
-7.01153e-09
-1.12394e-08
-1.61877e-09
-6.76603e-09
8.12362e-10
-2.51517e-09
9.09281e-10
8.00195e-10
1.85117e-09
-1.33136e-10
-1.65016e-09
-2.74564e-09
2.03607e-09
-9.06572e-09
9.16328e-09
-1.96541e-08
1.77162e-08
-3.46318e-08
2.65415e-08
-5.38037e-08
3.49316e-08
-7.67677e-08
4.24607e-08
-1.02994e-07
4.88908e-08
-1.31879e-07
5.41022e-08
-1.62787e-07
5.80504e-08
-1.95074e-07
6.07392e-08
-2.2811e-07
6.22042e-08
-2.61287e-07
6.25017e-08
-2.94031e-07
6.17013e-08
-3.25804e-07
5.98808e-08
-3.56114e-07
5.71231e-08
-3.84509e-07
5.35137e-08
-4.10582e-07
4.91389e-08
-4.33973e-07
4.40852e-08
-4.54367e-07
3.84384e-08
-4.71493e-07
3.2284e-08
-4.85127e-07
2.57065e-08
-4.95088e-07
1.87907e-08
-5.01242e-07
1.16213e-08
-5.035e-07
4.28426e-09
-5.01822e-07
-3.13337e-09
-4.96211e-07
-1.05424e-08
-4.86725e-07
-1.78511e-08
-4.73466e-07
-2.49652e-08
-4.56592e-07
-3.17872e-08
-4.36313e-07
-3.82172e-08
-4.12892e-07
-4.41525e-08
-3.86648e-07
-4.94889e-08
-3.57953e-07
-5.41213e-08
-3.27235e-07
-5.79454e-08
-2.94975e-07
-6.0859e-08
-2.61701e-07
-6.27646e-08
-2.2799e-07
-6.3572e-08
-1.94455e-07
-6.32011e-08
-1.61741e-07
-6.15867e-08
-1.30511e-07
-5.86834e-08
-1.01433e-07
-5.44728e-08
-7.51545e-08
-4.89746e-08
-5.22777e-08
-4.22617e-08
-3.33156e-08
-3.44858e-08
-1.86374e-08
-2.59177e-08
-8.38964e-09
-1.70137e-08
-2.39668e-09
-8.50812e-09
-3.25519e-11
-1.56396e-09
1.81862e-09
-1.39495e-09
-2.55198e-10
-6.95795e-09
7.59907e-09
-1.75466e-08
1.97519e-08
-3.35502e-08
3.37198e-08
-5.49829e-08
4.79743e-08
-8.15611e-08
6.15097e-08
-1.12785e-07
7.36846e-08
-1.48009e-07
8.41148e-08
-1.86496e-07
9.25896e-08
-2.27462e-07
9.90164e-08
-2.70106e-07
1.03383e-07
-3.13634e-07
1.05732e-07
-3.57276e-07
1.06144e-07
-4.00299e-07
1.04725e-07
-4.42015e-07
1.01597e-07
-4.81787e-07
9.6895e-08
-5.19031e-07
9.07574e-08
-5.53219e-07
8.33273e-08
-5.83883e-07
7.47488e-08
-6.1061e-07
6.51662e-08
-6.3305e-07
5.47235e-08
-6.50908e-07
4.35642e-08
-6.63949e-07
3.18321e-08
-6.71999e-07
1.96717e-08
-6.74944e-07
7.22882e-09
-6.72729e-07
-5.34801e-09
-6.65365e-07
-1.79072e-08
-6.52923e-07
-3.02931e-08
-6.35542e-07
-4.23458e-08
-6.13429e-07
-5.39008e-08
-5.86856e-07
-6.47894e-08
-5.56169e-07
-7.48394e-08
-5.21782e-07
-8.38763e-08
-4.84178e-07
-9.17249e-08
-4.43911e-07
-9.82123e-08
-4.016e-07
-1.0317e-07
-3.57924e-07
-1.0644e-07
-3.1362e-07
-1.07876e-07
-2.69469e-07
-1.07352e-07
-2.26287e-07
-1.04769e-07
-1.84907e-07
-1.00063e-07
-1.4616e-07
-9.32197e-08
-1.10847e-07
-8.42871e-08
-7.97059e-08
-7.34033e-08
-5.3363e-08
-6.08287e-08
-3.22811e-08
-4.69996e-08
-1.6689e-08
-3.26059e-08
-6.50329e-09
-1.86938e-08
-1.25341e-09
-6.81386e-09
5.65204e-10
-2.70928e-09
2.45406e-09
-1.14301e-08
1.63199e-08
-2.65559e-08
3.48777e-08
-4.82031e-08
5.5367e-08
-7.62032e-08
7.59744e-08
-1.10138e-07
9.54443e-08
-1.49391e-07
1.12938e-07
-1.93204e-07
1.27928e-07
-2.40721e-07
1.40107e-07
-2.91033e-07
1.49328e-07
-3.43209e-07
1.55558e-07
-3.9632e-07
1.58844e-07
-4.49466e-07
1.59289e-07
-5.01781e-07
1.5704e-07
-5.52452e-07
1.52268e-07
-6.00721e-07
1.45164e-07
-6.45893e-07
1.35929e-07
-6.87339e-07
1.24773e-07
-7.24498e-07
1.11908e-07
-7.56877e-07
9.75454e-08
-7.84055e-07
8.19008e-08
-8.05678e-07
6.51877e-08
-8.21467e-07
4.76208e-08
-8.31211e-07
2.9416e-08
-8.34774e-07
1.07917e-08
-8.32092e-07
-8.02994e-09
-8.23177e-07
-2.68223e-08
-8.08117e-07
-4.53531e-08
-7.87079e-07
-6.33838e-08
-7.6031e-07
-8.06697e-08
-7.28139e-07
-9.69603e-08
-6.90978e-07
-1.12e-07
-6.49322e-07
-1.25532e-07
-6.03748e-07
-1.37299e-07
-5.54915e-07
-1.47045e-07
-5.03558e-07
-1.54528e-07
-4.50482e-07
-1.59516e-07
-3.96557e-07
-1.61801e-07
-3.42702e-07
-1.61207e-07
-2.89875e-07
-1.57596e-07
-2.39051e-07
-1.50888e-07
-1.91196e-07
-1.41075e-07
-1.47241e-07
-1.28242e-07
-1.08046e-07
-1.12599e-07
-7.43508e-08
-9.45235e-08
-4.67332e-08
-7.46172e-08
-2.55504e-08
-5.37887e-08
-1.08912e-08
-3.3353e-08
-2.54343e-09
-1.51617e-08
-1.97823e-09
-3.98305e-09
6.43711e-09
-1.58658e-08
2.82027e-08
-3.55866e-08
5.45985e-08
-6.29415e-08
8.27219e-08
-9.75317e-08
1.10565e-07
-1.38767e-07
1.36679e-07
-1.85891e-07
1.60062e-07
-2.38021e-07
1.80058e-07
-2.94185e-07
1.96271e-07
-3.53357e-07
2.08501e-07
-4.14492e-07
2.16693e-07
-4.76548e-07
2.20899e-07
-5.38507e-07
2.21249e-07
-5.99397e-07
2.17929e-07
-6.58295e-07
2.11166e-07
-7.14345e-07
2.01213e-07
-7.66757e-07
1.88341e-07
-8.14816e-07
1.72833e-07
-8.57883e-07
1.54975e-07
-8.95398e-07
1.3506e-07
-9.26879e-07
1.13382e-07
-9.51925e-07
9.02331e-08
-9.70214e-07
6.59098e-08
-9.81507e-07
4.07095e-08
-9.85649e-07
1.49332e-08
-9.82566e-07
-1.1113e-08
-9.72271e-07
-3.71168e-08
-9.54866e-07
-6.27584e-08
-9.3054e-07
-8.771e-08
-8.99574e-07
-1.11635e-07
-8.62343e-07
-1.34191e-07
-8.19315e-07
-1.55028e-07
-7.71053e-07
-1.73795e-07
-7.18212e-07
-1.90139e-07
-6.6154e-07
-2.03718e-07
-6.01868e-07
-2.14199e-07
-5.4011e-07
-2.21274e-07
-4.77247e-07
-2.24664e-07
-4.14319e-07
-2.24135e-07
-3.52404e-07
-2.19511e-07
-2.92598e-07
-2.10693e-07
-2.35994e-07
-1.97679e-07
-1.83643e-07
-1.80592e-07
-1.36526e-07
-1.59716e-07
-9.55115e-08
-1.35538e-07
-6.13139e-08
-1.08815e-07
-3.44587e-08
-8.06439e-08
-1.52545e-08
-5.25572e-08
-3.79234e-09
-2.66238e-08
-5.77058e-09
-5.18059e-09
1.16177e-08
-2.01413e-08
4.31635e-08
-4.44029e-08
7.88601e-08
-7.7434e-08
1.15753e-07
-1.18582e-07
1.51713e-07
-1.67057e-07
1.85155e-07
-2.21942e-07
2.14947e-07
-2.82216e-07
2.40331e-07
-3.46782e-07
2.60837e-07
-4.14502e-07
2.7622e-07
-4.84218e-07
2.8641e-07
-5.54786e-07
2.91466e-07
-6.25087e-07
2.9155e-07
-6.9405e-07
2.86892e-07
-7.60663e-07
2.77779e-07
-8.23981e-07
2.64532e-07
-8.83137e-07
2.47497e-07
-9.37342e-07
2.27038e-07
-9.85892e-07
2.03525e-07
-1.02817e-06
1.77336e-07
-1.06364e-06
1.48852e-07
-1.09186e-06
1.18454e-07
-1.11247e-06
8.65263e-08
-1.12522e-06
5.34572e-08
-1.12993e-06
1.96383e-08
-1.12651e-06
-1.45317e-08
-1.11498e-06
-4.86462e-08
-1.09545e-06
-8.2289e-08
-1.06813e-06
-1.15034e-07
-1.03332e-06
-1.46443e-07
-9.91436e-07
-1.76073e-07
-9.42996e-07
-2.03468e-07
-8.88616e-07
-2.28174e-07
-8.29018e-07
-2.49737e-07
-7.65024e-07
-2.67713e-07
-6.97549e-07
-2.81674e-07
-6.27598e-07
-2.91225e-07
-5.56253e-07
-2.96009e-07
-4.84657e-07
-2.95731e-07
-4.14e-07
-2.90169e-07
-3.45493e-07
-2.792e-07
-2.80347e-07
-2.62826e-07
-2.19737e-07
-2.41203e-07
-1.64773e-07
-2.14679e-07
-1.16467e-07
-1.83845e-07
-7.5695e-08
-1.49587e-07
-4.31778e-08
-1.13161e-07
-1.94678e-08
-7.62672e-08
-4.96737e-09
-4.11243e-08
-1.0738e-08
-6.30194e-09
1.79196e-08
-2.42289e-08
6.10905e-08
-5.29337e-08
1.07565e-07
-9.15694e-08
1.54389e-07
-1.39222e-07
1.99365e-07
-1.94885e-07
2.40818e-07
-2.57463e-07
2.77525e-07
-3.25781e-07
3.0865e-07
-3.98612e-07
3.33667e-07
-4.74695e-07
3.52303e-07
-5.52766e-07
3.64481e-07
-6.31578e-07
3.70278e-07
-7.09919e-07
3.69891e-07
-7.86629e-07
3.63603e-07
-8.60615e-07
3.51765e-07
-9.30858e-07
3.34774e-07
-9.96419e-07
3.13059e-07
-1.05645e-06
2.87067e-07
-1.11019e-06
2.57263e-07
-1.15696e-06
2.24114e-07
-1.19621e-06
1.88096e-07
-1.22744e-06
1.49684e-07
-1.25027e-06
1.0936e-07
-1.26442e-06
6.76064e-08
-1.2697e-06
2.49139e-08
-1.26601e-06
-1.82198e-08
-1.25337e-06
-6.12866e-08
-1.23189e-06
-1.03767e-07
-1.2018e-06
-1.45127e-07
-1.16342e-06
-1.84823e-07
-1.11719e-06
-2.22299e-07
-1.06367e-06
-2.56988e-07
-1.00352e-06
-2.88323e-07
-9.37523e-07
-3.15738e-07
-8.66556e-07
-3.3868e-07
-7.91612e-07
-3.56618e-07
-7.13778e-07
-3.69059e-07
-6.34223e-07
-3.75564e-07
-5.54191e-07
-3.75763e-07
-4.74976e-07
-3.69384e-07
-3.97903e-07
-3.56273e-07
-3.24303e-07
-3.36426e-07
-2.55482e-07
-3.10024e-07
-1.92693e-07
-2.77468e-07
-1.37105e-07
-2.39433e-07
-8.97773e-08
-1.96914e-07
-5.16425e-08
-1.51296e-07
-2.35057e-08
-1.04404e-07
-6.06878e-09
-5.85612e-08
-1.68067e-08
-7.36058e-09
2.52802e-08
-2.81502e-08
8.18801e-08
-6.12006e-08
1.40615e-07
-1.05368e-07
1.98556e-07
-1.59478e-07
2.53475e-07
-2.22301e-07
3.0364e-07
-2.92546e-07
3.47771e-07
-3.68876e-07
3.8498e-07
-4.49918e-07
4.14709e-07
-5.34286e-07
4.36671e-07
-6.20602e-07
4.50798e-07
-7.07519e-07
4.57195e-07
-7.93733e-07
4.56104e-07
-8.78002e-07
4.47872e-07
-9.59157e-07
4.3292e-07
-1.03611e-06
4.11729e-07
-1.10787e-06
3.84814e-07
-1.17352e-06
3.52719e-07
-1.23226e-06
3.16002e-07
-1.28337e-06
2.75232e-07
-1.32626e-06
2.30981e-07
-1.3604e-06
1.83828e-07
-1.3854e-06
1.34352e-07
-1.40093e-06
8.3141e-08
-1.4068e-06
3.07865e-08
-1.40291e-06
-2.21082e-08
-1.38927e-06
-7.49283e-08
-1.366e-06
-1.27044e-07
-1.33331e-06
-1.77812e-07
-1.29156e-06
-2.2657e-07
-1.24122e-06
-2.72645e-07
-1.18285e-06
-3.15353e-07
-1.11717e-06
-3.54003e-07
-1.045e-06
-3.8791e-07
-9.67279e-07
-4.16402e-07
-8.8506e-07
-4.38837e-07
-7.99506e-07
-4.54613e-07
-7.11873e-07
-4.63197e-07
-6.23496e-07
-4.64139e-07
-5.35777e-07
-4.57103e-07
-4.50155e-07
-4.41894e-07
-3.6809e-07
-4.18491e-07
-2.91028e-07
-3.87085e-07
-2.20379e-07
-3.48118e-07
-1.57485e-07
-3.02327e-07
-1.03602e-07
-2.50797e-07
-5.98858e-08
-1.95012e-07
-2.73948e-08
-1.36895e-07
-7.1111e-09
-7.88449e-08
-2.39179e-08
-8.37441e-09
3.36546e-08
-3.19496e-08
1.05455e-07
-6.92742e-08
1.7794e-07
-1.18927e-07
2.48209e-07
-1.79477e-07
3.14025e-07
-2.49466e-07
3.73629e-07
-3.27401e-07
4.25707e-07
-4.11769e-07
4.69347e-07
-5.01041e-07
5.03982e-07
-5.93699e-07
5.29329e-07
-6.88246e-07
5.45345e-07
-7.83231e-07
5.52179e-07
-8.77258e-07
5.50132e-07
-9.69005e-07
5.39619e-07
-1.05723e-06
5.21148e-07
-1.14079e-06
4.95287e-07
-1.21863e-06
4.62651e-07
-1.28979e-06
4.23882e-07
-1.35343e-06
3.79641e-07
-1.4088e-06
3.30602e-07
-1.45526e-06
2.77441e-07
-1.49227e-06
2.20841e-07
-1.51941e-06
1.61489e-07
-1.53634e-06
1.00075e-07
-1.54286e-06
3.73005e-08
-1.53884e-06
-2.61233e-08
-1.5243e-06
-8.94706e-08
-1.49935e-06
-1.51998e-07
-1.46421e-06
-2.12944e-07
-1.41926e-06
-2.71527e-07
-1.36495e-06
-3.2695e-07
-1.30191e-06
-3.784e-07
-1.23085e-06
-4.2506e-07
-1.15264e-06
-4.66115e-07
-1.06828e-06
-5.00765e-07
-9.78873e-07
-5.28244e-07
-8.85652e-07
-5.47834e-07
-7.89956e-07
-5.58893e-07
-6.93216e-07
-5.60879e-07
-5.9694e-07
-5.5338e-07
-5.02691e-07
-5.36144e-07
-4.12063e-07
-5.0912e-07
-3.26655e-07
-4.72493e-07
-2.48047e-07
-4.26726e-07
-1.77771e-07
-3.72603e-07
-1.17291e-07
-3.11277e-07
-6.79941e-08
-2.44309e-07
-3.11868e-08
-1.73702e-07
-8.1142e-09
-1.01918e-07
-3.20321e-08
-9.36233e-09
4.3017e-08
-3.56813e-08
1.31774e-07
-7.72492e-08
2.19508e-07
-1.32382e-07
3.03343e-07
-1.99399e-07
3.81042e-07
-2.76607e-07
4.50837e-07
-3.62306e-07
5.11406e-07
-4.54795e-07
5.61836e-07
-5.52383e-07
6.01569e-07
-6.53406e-07
6.30352e-07
-7.56246e-07
6.48185e-07
-8.59341e-07
6.55275e-07
-9.61205e-07
6.51995e-07
-1.06043e-06
6.38849e-07
-1.15572e-06
6.16436e-07
-1.24586e-06
5.85425e-07
-1.32974e-06
5.46535e-07
-1.40638e-06
5.00518e-07
-1.47488e-06
4.48145e-07
-1.53448e-06
3.90196e-07
-1.58449e-06
3.27458e-07
-1.62438e-06
2.60724e-07
-1.65368e-06
1.90787e-07
-1.67205e-06
1.18448e-07
-1.67926e-06
4.45159e-08
-1.6752e-06
-3.01854e-08
-1.65986e-06
-1.04816e-07
-1.63334e-06
-1.78517e-07
-1.59588e-06
-2.50404e-07
-1.54783e-06
-3.19572e-07
-1.48969e-06
-3.85092e-07
-1.42207e-06
-4.46021e-07
-1.34573e-06
-5.01403e-07
-1.26156e-06
-5.50285e-07
-1.17059e-06
-5.91731e-07
-1.074e-06
-6.24836e-07
-9.73077e-07
-6.48755e-07
-8.69247e-07
-6.62723e-07
-7.64036e-07
-6.66091e-07
-6.59063e-07
-6.58352e-07
-5.56022e-07
-6.39185e-07
-4.56653e-07
-6.08489e-07
-3.62721e-07
-5.66424e-07
-2.75989e-07
-5.13458e-07
-1.98192e-07
-4.50401e-07
-1.31015e-07
-3.78454e-07
-7.60818e-08
-2.99242e-07
-3.49453e-08
-2.14839e-07
-9.09954e-09
-1.27763e-07
-4.11316e-08
-1.03427e-08
5.33597e-08
-3.94023e-08
1.60834e-07
-8.52306e-08
2.65336e-07
-1.45891e-07
3.64003e-07
-2.19452e-07
4.54602e-07
-3.03986e-07
5.35371e-07
-3.97577e-07
6.04997e-07
-4.98327e-07
6.62586e-07
-6.04372e-07
7.07614e-07
-7.13897e-07
7.39878e-07
-8.25152e-07
7.5944e-07
-9.36464e-07
7.66587e-07
-1.04625e-06
7.61782e-07
-1.15303e-06
7.45627e-07
-1.25542e-06
7.1883e-07
-1.35217e-06
6.82172e-07
-1.44212e-06
6.36487e-07
-1.52425e-06
5.82642e-07
-1.59763e-06
5.21524e-07
-1.66146e-06
4.54028e-07
-1.71505e-06
3.81055e-07
-1.75784e-06
3.03508e-07
-1.78934e-06
2.22292e-07
-1.80921e-06
1.38318e-07
-1.81721e-06
5.25064e-08
-1.81318e-06
-3.42072e-08
-1.79713e-06
-1.20868e-07
-1.76915e-06
-2.06496e-07
-1.72947e-06
-2.90085e-07
-1.67844e-06
-3.706e-07
-1.61656e-06
-4.4698e-07
-1.54444e-06
-5.18139e-07
-1.46286e-06
-5.8298e-07
-1.37275e-06
-6.404e-07
-1.27517e-06
-6.89313e-07
-1.17133e-06
-7.28668e-07
-1.06262e-06
-7.57473e-07
-9.50512e-07
-7.74827e-07
-8.36651e-07
-7.79952e-07
-7.2277e-07
-7.72233e-07
-6.10699e-07
-7.51256e-07
-5.02338e-07
-7.1685e-07
-3.9963e-07
-6.69132e-07
-3.04537e-07
-6.08551e-07
-2.1901e-07
-5.35928e-07
-1.44968e-07
-4.52496e-07
-8.42762e-08
-3.59934e-07
-3.87381e-08
-2.60377e-07
-1.00885e-08
-1.56413e-07
-5.12202e-08
-1.1333e-08
6.46927e-08
-4.31689e-08
1.9267e-07
-9.33251e-08
3.15492e-07
-1.59614e-07
4.30292e-07
-2.39855e-07
5.34843e-07
-3.31878e-07
6.27395e-07
-4.33543e-07
7.06661e-07
-5.42746e-07
7.71789e-07
-6.57442e-07
8.2231e-07
-7.75656e-07
8.58092e-07
-8.95499e-07
8.79283e-07
-1.01518e-06
8.86269e-07
-1.13302e-06
8.79623e-07
-1.24746e-06
8.60064e-07
-1.35705e-06
8.2842e-07
-1.46048e-06
7.856e-07
-1.55655e-06
7.32563e-07
-1.64421e-06
6.703e-07
-1.72251e-06
5.9982e-07
-1.79062e-06
5.2214e-07
-1.84784e-06
4.38277e-07
-1.89358e-06
3.49247e-07
-1.92735e-06
2.56067e-07
-1.9488e-06
1.5976e-07
-1.95765e-06
6.13579e-08
-1.95376e-06
-3.80927e-08
-1.93711e-06
-1.37521e-07
-1.90778e-06
-2.35827e-07
-1.86598e-06
-3.31881e-07
-1.81207e-06
-4.24515e-07
-1.74652e-06
-5.1253e-07
-1.66996e-06
-5.94694e-07
-1.58318e-06
-6.69758e-07
-1.48712e-06
-7.36463e-07
-1.38288e-06
-7.93558e-07
-1.27171e-06
-8.39831e-07
-1.15506e-06
-8.74128e-07
-1.03449e-06
-8.95391e-07
-9.11749e-07
-9.02696e-07
-7.88688e-07
-8.95294e-07
-6.67287e-07
-8.72657e-07
-5.49616e-07
-8.34521e-07
-4.3781e-07
-7.80937e-07
-3.34045e-07
-7.12316e-07
-2.40503e-07
-6.29469e-07
-1.59351e-07
-5.33648e-07
-9.27094e-08
-4.26576e-07
-4.26336e-08
-3.10453e-07
-1.11019e-08
-1.87945e-07
-6.23221e-08
-1.23491e-08
7.70418e-08
-4.70346e-08
2.27355e-07
-1.01636e-07
3.70094e-07
-1.73713e-07
5.02369e-07
-2.60826e-07
6.21956e-07
-3.60557e-07
7.27126e-07
-4.7053e-07
8.16634e-07
-5.88429e-07
8.89687e-07
-7.12014e-07
9.45895e-07
-8.39143e-07
9.85221e-07
-9.67783e-07
1.00792e-06
-1.09602e-06
1.01451e-06
-1.22208e-06
1.00568e-06
-1.34431e-06
9.82294e-07
-1.46121e-06
9.45318e-07
-1.57141e-06
8.958e-07
-1.67368e-06
8.34836e-07
-1.76693e-06
7.63552e-07
-1.8502e-06
6.83089e-07
-1.92264e-06
5.94585e-07
-1.98355e-06
4.99179e-07
-2.0323e-06
3.98002e-07
-2.06842e-06
2.92185e-07
-2.09152e-06
1.82859e-07
-2.10133e-06
7.11659e-08
-2.09768e-06
-4.17362e-08
-2.08054e-06
-1.54663e-07
-2.04997e-06
-2.66396e-07
-2.00617e-06
-3.75679e-07
-1.94948e-06
-4.81213e-07
-1.88035e-06
-5.81655e-07
-1.79942e-06
-6.75624e-07
-1.70747e-06
-7.61709e-07
-1.60545e-06
-8.38484e-07
-1.49449e-06
-9.04523e-07
-1.37588e-06
-9.58434e-07
-1.25113e-06
-9.98883e-07
-1.12188e-06
-1.02463e-06
-9.89988e-07
-1.03459e-06
-8.57431e-07
-1.02785e-06
-7.26345e-07
-1.00374e-06
-5.98984e-07
-9.61882e-07
-4.77691e-07
-9.02231e-07
-3.6487e-07
-8.25137e-07
-2.62954e-07
-7.31385e-07
-1.74372e-07
-6.22231e-07
-1.01513e-07
-4.99435e-07
-4.66986e-08
-3.65267e-07
-1.21593e-08
-2.22484e-07
-7.44813e-08
-1.34059e-08
9.04476e-08
-5.10497e-08
2.64999e-07
-1.10264e-07
4.29308e-07
-1.88341e-07
5.80446e-07
-2.82574e-07
7.16189e-07
-3.90286e-07
8.34838e-07
-5.08852e-07
9.35201e-07
-6.35731e-07
1.01657e-06
-7.68481e-07
1.07865e-06
-9.04783e-07
1.12152e-06
-1.04245e-06
1.14559e-06
-1.17945e-06
1.15151e-06
-1.31389e-06
1.14012e-06
-1.44406e-06
1.11246e-06
-1.56838e-06
1.06964e-06
-1.68544e-06
1.01286e-06
-1.79398e-06
9.43378e-07
-1.89289e-06
8.62459e-07
-1.98118e-06
7.7138e-07
-2.05801e-06
6.71413e-07
-2.12265e-06
5.63816e-07
-2.17448e-06
4.49838e-07
-2.21302e-06
3.3072e-07
-2.23786e-06
2.07702e-07
-2.24873e-06
8.20328e-08
-2.24544e-06
-4.50224e-08
-2.22793e-06
-1.72168e-07
-2.19626e-06
-2.9807e-07
-2.15059e-06
-4.21348e-07
-2.09123e-06
-5.40569e-07
-2.01864e-06
-6.54247e-07
-1.93342e-06
-7.60846e-07
-1.83634e-06
-8.58785e-07
-1.72837e-06
-9.46459e-07
-1.61064e-06
-1.02226e-06
-1.48449e-06
-1.08458e-06
-1.35147e-06
-1.1319e-06
-1.21332e-06
-1.16279e-06
-1.07197e-06
-1.17593e-06
-9.29573e-07
-1.17025e-06
-7.88409e-07
-1.14491e-06
-6.50927e-07
-1.09936e-06
-5.19696e-07
-1.03346e-06
-3.97367e-07
-9.47466e-07
-2.86641e-07
-8.4211e-07
-1.90231e-07
-7.18641e-07
-1.10814e-07
-5.78852e-07
-5.09981e-08
-4.25083e-07
-1.32796e-08
-2.60203e-07
-8.77609e-08
-1.45168e-08
1.04964e-07
-5.52611e-08
3.05744e-07
-1.19299e-07
4.93346e-07
-2.03641e-07
6.64788e-07
-3.05296e-07
8.17845e-07
-4.2131e-07
9.50852e-07
-5.48798e-07
1.06269e-06
-6.84978e-07
1.15275e-06
-8.27195e-07
1.22086e-06
-9.72943e-07
1.26727e-06
-1.11988e-06
1.29253e-06
-1.26584e-06
1.29747e-06
-1.40884e-06
1.28312e-06
-1.54708e-06
1.25069e-06
-1.67892e-06
1.20148e-06
-1.80291e-06
1.13686e-06
-1.91777e-06
1.05824e-06
-2.02237e-06
9.67056e-07
-2.11571e-06
8.64726e-07
-2.19696e-06
7.52654e-07
-2.26537e-06
6.32225e-07
-2.32033e-06
5.04804e-07
-2.36135e-06
3.71739e-07
-2.38802e-06
2.34376e-07
-2.40006e-06
9.4065e-08
-2.39725e-06
-4.78259e-08
-2.37953e-06
-1.89895e-07
-2.3469e-06
-3.30698e-07
-2.29952e-06
-4.68731e-07
-2.23765e-06
-6.02432e-07
-2.16173e-06
-7.30167e-07
-2.07234e-06
-8.50242e-07
-1.97022e-06
-9.60902e-07
-1.85633e-06
-1.06035e-06
-1.73181e-06
-1.14677e-06
-1.59804e-06
-1.21835e-06
-1.45661e-06
-1.27334e-06
-1.30933e-06
-1.31007e-06
-1.15825e-06
-1.32701e-06
-1.00564e-06
-1.32286e-06
-8.53973e-07
-1.29657e-06
-7.059e-07
-1.24744e-06
-5.64226e-07
-1.17514e-06
-4.31873e-07
-1.07982e-06
-3.11833e-07
-9.6215e-07
-2.07124e-07
-8.2335e-07
-1.20739e-07
-6.65237e-07
-5.55941e-08
-4.90228e-07
-1.44805e-08
-3.01316e-07
-1.02241e-07
-1.56944e-08
1.20659e-07
-5.9712e-08
3.49761e-07
-1.28828e-07
5.62461e-07
-2.19747e-07
7.55708e-07
-3.29174e-07
9.27271e-07
-4.53855e-07
1.07553e-06
-5.90628e-07
1.19946e-06
-7.36455e-07
1.29857e-06
-8.88456e-07
1.37286e-06
-1.04393e-06
1.42275e-06
-1.20038e-06
1.44897e-06
-1.35549e-06
1.45258e-06
-1.50719e-06
1.43482e-06
-1.65359e-06
1.39709e-06
-1.79301e-06
1.3409e-06
-1.92397e-06
1.26781e-06
-2.04516e-06
1.17943e-06
-2.15544e-06
1.07734e-06
-2.25383e-06
9.63115e-07
-2.33948e-06
8.38304e-07
-2.41167e-06
7.04414e-07
-2.46979e-06
5.62925e-07
-2.51334e-06
4.15292e-07
-2.54192e-06
2.62958e-07
-2.55523e-06
1.07368e-07
-2.55304e-06
-5.00125e-08
-2.53525e-06
-2.07685e-07
-2.50185e-06
-3.64098e-07
-2.45295e-06
-5.17635e-07
-2.38878e-06
-6.66602e-07
-2.30972e-06
-8.09224e-07
-2.21632e-06
-9.43642e-07
-2.1093e-06
-1.06792e-06
-1.98959e-06
-1.18006e-06
-1.85833e-06
-1.27803e-06
-1.71691e-06
-1.35978e-06
-1.56695e-06
-1.4233e-06
-1.41035e-06
-1.46667e-06
-1.24926e-06
-1.4881e-06
-1.08609e-06
-1.48604e-06
-9.23482e-07
-1.45918e-06
-7.64318e-07
-1.4066e-06
-6.11658e-07
-1.3278e-06
-4.6871e-07
-1.22277e-06
-3.38785e-07
-1.09208e-06
-2.25237e-07
-9.36898e-07
-1.31405e-07
-7.59069e-07
-6.05463e-08
-5.61086e-07
-1.57793e-08
-3.46083e-07
-1.18021e-07
-1.69502e-08
1.37609e-07
-6.44425e-08
3.97254e-07
-1.3893e-07
6.36948e-07
-2.36782e-07
8.5356e-07
-3.5437e-07
1.04486e-06
-4.8812e-07
1.20928e-06
-6.34568e-07
1.34591e-06
-7.90404e-07
1.45441e-06
-9.5251e-07
1.53497e-06
-1.11798e-06
1.58821e-06
-1.28414e-06
1.61513e-06
-1.44856e-06
1.617e-06
-1.60905e-06
1.59531e-06
-1.76366e-06
1.5517e-06
-1.91066e-06
1.4879e-06
-2.04855e-06
1.4057e-06
-2.17602e-06
1.30689e-06
-2.29192e-06
1.19324e-06
-2.39528e-06
1.06648e-06
-2.48528e-06
9.28303e-07
-2.56121e-06
7.80343e-07
-2.62247e-06
6.24191e-07
-2.66858e-06
4.61401e-07
-2.69913e-06
2.93508e-07
-2.71381e-06
1.22044e-07
-2.71238e-06
-5.14407e-08
-2.69471e-06
-2.25358e-07
-2.66075e-06
-3.9806e-07
-2.61056e-06
-5.67823e-07
-2.54433e-06
-7.32829e-07
-2.46239e-06
-8.91163e-07
-2.36523e-06
-1.0408e-06
-2.25353e-06
-1.17962e-06
-2.12818e-06
-1.30542e-06
-1.99029e-06
-1.41591e-06
-1.84126e-06
-1.50881e-06
-1.68274e-06
-1.58182e-06
-1.51669e-06
-1.63272e-06
-1.34535e-06
-1.65944e-06
-1.17128e-06
-1.66011e-06
-9.97315e-07
-1.63315e-06
-8.26552e-07
-1.57736e-06
-6.6233e-07
-1.49202e-06
-5.08173e-07
-1.37692e-06
-3.67737e-07
-1.23251e-06
-2.44748e-07
-1.05989e-06
-1.42926e-07
-8.60891e-07
-6.59121e-08
-6.38099e-07
-1.71922e-08
-3.94803e-07
-1.35213e-07
-1.8295e-08
1.55904e-07
-6.94899e-08
4.48448e-07
-1.49677e-07
7.17136e-07
-2.54857e-07
9.58741e-07
-3.81033e-07
1.17103e-06
-5.2428e-07
1.35253e-06
-6.80809e-07
1.50244e-06
-8.47018e-07
1.62062e-06
-1.01953e-06
1.70748e-06
-1.19523e-06
1.76392e-06
-1.37128e-06
1.79118e-06
-1.54509e-06
1.79082e-06
-1.7144e-06
1.76462e-06
-1.87719e-06
1.71449e-06
-2.0317e-06
1.64241e-06
-2.1764e-06
1.5504e-06
-2.30999e-06
1.44048e-06
-2.43135e-06
1.3146e-06
-2.53954e-06
1.17467e-06
-2.63376e-06
1.02252e-06
-2.71332e-06
8.59907e-07
-2.77766e-06
6.88534e-07
-2.82631e-06
5.10046e-07
-2.85886e-06
3.26059e-07
-2.875e-06
1.38182e-07
-2.87447e-06
-5.19639e-08
-2.85712e-06
-2.42713e-07
-2.82284e-06
-4.32333e-07
-2.77166e-06
-6.19004e-07
-2.7037e-06
-8.00793e-07
-2.61921e-06
-9.75648e-07
-2.51863e-06
-1.14138e-06
-2.40256e-06
-1.29569e-06
-2.27184e-06
-1.43614e-06
-2.12755e-06
-1.5602e-06
-1.97106e-06
-1.6653e-06
-1.80404e-06
-1.74884e-06
-1.62849e-06
-1.80827e-06
-1.44674e-06
-1.84118e-06
-1.2615e-06
-1.84535e-06
-1.07577e-06
-1.81887e-06
-8.92911e-07
-1.76022e-06
-7.16543e-07
-1.66839e-06
-5.50532e-07
-1.54294e-06
-3.98914e-07
-1.38413e-06
-2.65824e-07
-1.19298e-06
-1.55411e-07
-9.71304e-07
-7.17466e-08
-7.21764e-07
-1.87354e-08
-4.47814e-07
-1.53948e-07
-1.97389e-08
1.75643e-07
-7.48891e-08
5.03599e-07
-1.61138e-07
8.03385e-07
-2.74074e-07
1.07168e-06
-4.09292e-07
1.30625e-06
-5.62483e-07
1.50572e-06
-7.29502e-07
1.66946e-06
-9.06433e-07
1.79755e-06
-1.08963e-06
1.89068e-06
-1.27575e-06
1.95003e-06
-1.46177e-06
1.9772e-06
-1.645e-06
1.97405e-06
-1.82306e-06
1.94268e-06
-1.99388e-06
1.88531e-06
-2.15569e-06
1.80422e-06
-2.30696e-06
1.70168e-06
-2.44642e-06
1.57994e-06
-2.57298e-06
1.44116e-06
-2.68574e-06
1.28743e-06
-2.78394e-06
1.12072e-06
-2.86695e-06
9.42917e-07
-2.93424e-06
7.55818e-07
-2.98535e-06
5.61154e-07
-3.0199e-06
3.60609e-07
-3.03757e-06
1.55853e-07
-3.0381e-06
-5.14346e-08
-3.02128e-06
-2.59528e-07
-2.98699e-06
-4.66627e-07
-2.93516e-06
-6.70827e-07
-2.86586e-06
-8.70094e-07
-2.77926e-06
-1.06225e-06
-2.6757e-06
-1.24495e-06
-2.55571e-06
-1.41569e-06
-2.42003e-06
-1.57181e-06
-2.2697e-06
-1.71053e-06
-2.10603e-06
-1.82896e-06
-1.93069e-06
-1.92418e-06
-1.74571e-06
-1.99325e-06
-1.5535e-06
-2.03339e-06
-1.35688e-06
-2.04197e-06
-1.15906e-06
-2.01669e-06
-9.63638e-07
-1.95565e-06
-7.74549e-07
-1.85747e-06
-5.96025e-07
-1.72146e-06
-4.32519e-07
-1.54763e-06
-2.88623e-07
-1.33687e-06
-1.68964e-07
-1.09096e-06
-7.81034e-08
-8.12624e-07
-2.04243e-08
-5.05493e-07
-1.74373e-07
-2.12921e-08
1.96935e-07
-8.0674e-08
5.62981e-07
-1.73377e-07
8.96088e-07
-2.94525e-07
1.19282e-06
-4.39261e-07
1.45099e-06
-6.0285e-07
1.66931e-06
-7.80759e-07
1.84737e-06
-9.68729e-07
1.98552e-06
-1.16283e-06
2.08478e-06
-1.35947e-06
2.14668e-06
-1.55548e-06
2.1732e-06
-1.74801e-06
2.16658e-06
-1.93462e-06
2.12929e-06
-2.1132e-06
2.06389e-06
-2.28197e-06
1.97299e-06
-2.43944e-06
1.85915e-06
-2.58436e-06
1.72486e-06
-2.71572e-06
1.57252e-06
-2.83266e-06
1.40437e-06
-2.9345e-06
1.22256e-06
-3.02066e-06
1.02908e-06
-3.09066e-06
8.2582e-07
-3.14409e-06
6.14583e-07
-3.18059e-06
3.97107e-07
-3.19984e-06
1.75103e-07
-3.20156e-06
-4.97083e-08
-3.18553e-06
-2.75561e-07
-3.15155e-06
-5.00606e-07
-3.09951e-06
-7.22873e-07
-3.02936e-06
-9.40242e-07
-2.94119e-06
-1.15042e-06
-2.83523e-06
-1.35091e-06
-2.71189e-06
-1.53902e-06
-2.57184e-06
-1.71187e-06
-2.41599e-06
-1.86638e-06
-2.2456e-06
-1.99935e-06
-2.06229e-06
-2.10748e-06
-1.86811e-06
-2.18744e-06
-1.66551e-06
-2.23599e-06
-1.45744e-06
-2.25005e-06
-1.24728e-06
-2.22685e-06
-1.0389e-06
-2.16403e-06
-8.36544e-07
-2.05983e-06
-6.44854e-07
-1.91315e-06
-4.68737e-07
-1.72375e-06
-3.1329e-07
-1.49232e-06
-1.83684e-07
-1.22057e-06
-8.50346e-08
-9.11274e-07
-2.22746e-08
-5.68253e-07
-1.96647e-07
-2.29644e-08
2.19899e-07
-8.68777e-08
6.26894e-07
-1.86455e-07
9.95665e-07
-3.16297e-07
1.32267e-06
-4.71042e-07
1.60573e-06
-6.45479e-07
1.84375e-06
-8.34649e-07
2.03654e-06
-1.03392e-06
2.18479e-06
-1.23906e-06
2.28992e-06
-1.44625e-06
2.35387e-06
-1.65211e-06
2.37906e-06
-1.85369e-06
2.36817e-06
-2.0485e-06
2.32409e-06
-2.23439e-06
2.24979e-06
-2.4096e-06
2.14821e-06
-2.5727e-06
2.02224e-06
-2.7225e-06
1.87466e-06
-2.85807e-06
1.70809e-06
-2.97865e-06
1.52495e-06
-3.08364e-06
1.32754e-06
-3.17253e-06
1.11797e-06
-3.24492e-06
8.98208e-07
-3.30044e-06
6.70105e-07
-3.33877e-06
4.35438e-07
-3.35961e-06
1.95941e-07
-3.36267e-06
-4.665e-08
-3.34768e-06
-2.90552e-07
-3.3144e-06
-5.33888e-07
-3.26262e-06
-7.74647e-07
-3.19222e-06
-1.01064e-06
-3.10316e-06
-1.23948e-06
-2.99553e-06
-1.45854e-06
-2.86962e-06
-1.66493e-06
-2.72594e-06
-1.85555e-06
-2.5653e-06
-2.02702e-06
-2.38886e-06
-2.1758e-06
-2.19815e-06
-2.29819e-06
-1.99518e-06
-2.39041e-06
-1.78246e-06
-2.44871e-06
-1.56301e-06
-2.4695e-06
-1.34041e-06
-2.44945e-06
-1.11876e-06
-2.38568e-06
-9.02665e-07
-2.27592e-06
-6.97184e-07
-2.11863e-06
-5.07729e-07
-1.91321e-06
-3.39964e-07
-1.66008e-06
-1.99668e-07
-1.36086e-06
-9.25922e-08
-1.01835e-06
-2.43019e-08
-6.36543e-07
-2.20949e-07
-2.47665e-08
2.44666e-07
-9.35346e-08
6.95662e-07
-2.00433e-07
1.10256e-06
-3.39474e-07
1.46171e-06
-5.04723e-07
1.77098e-06
-6.90443e-07
2.02947e-06
-8.91203e-07
2.2373e-06
-1.10197e-06
2.39557e-06
-1.31819e-06
2.50613e-06
-1.53579e-06
2.57147e-06
-1.75121e-06
2.59448e-06
-1.96142e-06
2.57838e-06
-2.16385e-06
2.52652e-06
-2.35639e-06
2.44232e-06
-2.53732e-06
2.32913e-06
-2.70527e-06
2.19019e-06
-2.85916e-06
2.02856e-06
-2.99817e-06
1.84709e-06
-3.12165e-06
1.64844e-06
-3.22912e-06
1.43501e-06
-3.32017e-06
1.20903e-06
-3.39449e-06
9.72523e-07
-3.45177e-06
7.27389e-07
-3.49175e-06
4.75414e-07
-3.51414e-06
2.18329e-07
-3.51865e-06
-4.21411e-08
-3.50498e-06
-3.04223e-07
-3.47282e-06
-5.66043e-07
-3.42189e-06
-8.25575e-07
-3.35194e-06
-1.08059e-06
-3.2628e-06
-1.32863e-06
-3.15441e-06
-1.56693e-06
-3.02689e-06
-1.79246e-06
-2.88058e-06
-2.00185e-06
-2.71612e-06
-2.19148e-06
-2.53452e-06
-2.3574e-06
-2.33722e-06
-2.49549e-06
-2.12615e-06
-2.60148e-06
-1.9038e-06
-2.67106e-06
-1.67327e-06
-2.70003e-06
-1.43828e-06
-2.68443e-06
-1.2032e-06
-2.62077e-06
-9.72979e-07
-2.50614e-06
-7.53138e-07
-2.33847e-06
-5.49637e-07
-2.11671e-06
-3.68771e-07
-1.84095e-06
-2.1701e-07
-1.51263e-06
-1.00828e-07
-1.13453e-06
-2.65224e-08
-7.10849e-07
-2.47472e-07
-2.67098e-08
2.71376e-07
-1.00682e-07
7.69634e-07
-2.15378e-07
1.21726e-06
-3.64139e-07
1.61047e-06
-5.40389e-07
1.94723e-06
-7.37796e-07
2.22687e-06
-9.50411e-07
2.44991e-06
-1.17277e-06
2.61792e-06
-1.39996e-06
2.73332e-06
-1.62767e-06
2.79917e-06
-1.85217e-06
2.81899e-06
-2.07034e-06
2.79655e-06
-2.2796e-06
2.73578e-06
-2.47787e-06
2.64059e-06
-2.66351e-06
2.51478e-06
-2.83528e-06
2.36195e-06
-2.99222e-06
2.1855e-06
-3.13366e-06
1.98853e-06
-3.25909e-06
1.77388e-06
-3.36818e-06
1.5441e-06