/*--------------------------------*- C++ -*----------------------------------*\
  =========                 |
  \\      /  F ield         | OpenFOAM: The Open Source CFD Toolbox
   \\    /   O peration     | Website:  https://openfoam.org
    \\  /    A nd           | Version:  7
     \\/     M anipulation  |
\*---------------------------------------------------------------------------*/
FoamFile
{
    version     2.0;
    format      ascii;
    class       volVectorField;
    location    "0.071";
    object      U;
}
// * * * * * * * * * * * * * * * * * * * * * * * * * * * * * * * * * * * * * //

dimensions      [0 1 -1 0 0 0 0];

internalField   nonuniform List<vector> 
2500
(
(-0.293796 0.153717 0)
(-0.397926 0.128717 0)
(-0.577967 0.0737926 0)
(-0.696272 0.0408788 0)
(-0.765281 0.0234016 0)
(-0.809649 0.0141514 0)
(-0.840278 0.00916863 0)
(-0.862416 0.00636316 0)
(-0.879094 0.00467636 0)
(-0.892095 0.00358837 0)
(-0.902493 0.00284105 0)
(-0.910965 0.00230044 0)
(-0.917964 0.00189271 0)
(-0.923803 0.00157455 0)
(-0.928704 0.00131898 0)
(-0.932829 0.00110833 0)
(-0.936298 0.000930508 0)
(-0.939201 0.000776947 0)
(-0.941604 0.000641412 0)
(-0.943558 0.000519236 0)
(-0.945102 0.000406847 0)
(-0.946262 0.00030144 0)
(-0.947059 0.000200755 0)
(-0.947505 0.000102917 0)
(-0.947608 6.31316e-06 0)
(-0.947369 -9.05472e-05 0)
(-0.946785 -0.000189032 0)
(-0.94585 -0.000290537 0)
(-0.944552 -0.000396562 0)
(-0.942873 -0.000508802 0)
(-0.94079 -0.000629285 0)
(-0.938272 -0.000760533 0)
(-0.93528 -0.000905799 0)
(-0.931763 -0.00106941 0)
(-0.927652 -0.00125726 0)
(-0.922861 -0.00147765 0)
(-0.917272 -0.00174254 0)
(-0.910728 -0.00206984 0)
(-0.903011 -0.00248753 0)
(-0.893811 -0.00304155 0)
(-0.88268 -0.00381148 0)
(-0.868936 -0.00494282 0)
(-0.851495 -0.00671441 0)
(-0.828558 -0.00967763 0)
(-0.797111 -0.0149201 0)
(-0.752007 -0.024496 0)
(-0.6825 -0.042141 0)
(-0.564897 -0.0746067 0)
(-0.389293 -0.128116 0)
(-0.290201 -0.152367 0)
(-0.00515751 0.302897 0)
(-0.027066 0.307345 0)
(-0.171367 0.217813 0)
(-0.308301 0.146623 0)
(-0.417309 0.0992717 0)
(-0.502658 0.0690295 0)
(-0.569183 0.0497919 0)
(-0.621287 0.037262 0)
(-0.662645 0.0287862 0)
(-0.695982 0.0228169 0)
(-0.723228 0.0184522 0)
(-0.745758 0.0151526 0)
(-0.764561 0.0125839 0)
(-0.780356 0.0105312 0)
(-0.793676 0.00885127 0)
(-0.804918 0.00744547 0)
(-0.814382 0.00624385 0)
(-0.822297 0.00519554 0)
(-0.828834 0.00426267 0)
(-0.834128 0.00341643 0)
(-0.838278 0.00263444 0)
(-0.841357 0.00189889 0)
(-0.843418 0.00119529 0)
(-0.844498 0.000511478 0)
(-0.844615 -0.000163114 0)
(-0.843777 -0.0008381 0)
(-0.841979 -0.00152261 0)
(-0.839203 -0.00222588 0)
(-0.835418 -0.00295772 0)
(-0.830581 -0.0037292 0)
(-0.824631 -0.00455341 0)
(-0.817492 -0.00544641 0)
(-0.80906 -0.00642858 0)
(-0.799207 -0.00752654 0)
(-0.787764 -0.00877582 0)
(-0.774513 -0.0102249 0)
(-0.759171 -0.0119415 0)
(-0.74136 -0.0140225 0)
(-0.72058 -0.0166099 0)
(-0.696149 -0.019919 0)
(-0.667133 -0.0242855 0)
(-0.632241 -0.0302505 0)
(-0.589662 -0.0387105 0)
(-0.536882 -0.051178 0)
(-0.470587 -0.0701817 0)
(-0.386923 -0.0996704 0)
(-0.281701 -0.145067 0)
(-0.151429 -0.21257 0)
(-0.0163989 -0.298147 0)
(-0.000975723 -0.294652 0)
(0.0321089 0.264052 0)
(0.0563337 0.36238 0)
(-0.00375223 0.325069 0)
(-0.0961359 0.260682 0)
(-0.192672 0.201071 0)
(-0.281659 0.15408 0)
(-0.358975 0.119182 0)
(-0.4244 0.0936236 0)
(-0.479283 0.0747716 0)
(-0.5253 0.0606378 0)
(-0.563998 0.0498271 0)
(-0.596674 0.0413818 0)
(-0.624367 0.0346443 0)
(-0.647898 0.0291581 0)
(-0.667909 0.0246013 0)
(-0.6849 0.0207425 0)
(-0.699263 0.0174123 0)
(-0.711303 0.0144843 0)
(-0.721257 0.0118627 0)
(-0.72931 0.00947321 0)
(-0.735602 0.00725748 0)
(-0.740239 0.00516859 0)
(-0.7433 0.00316794 0)
(-0.744835 0.00122293 0)
(-0.744877 -0.000694916 0)
(-0.743438 -0.0026115 0)
(-0.740512 -0.0045515 0)
(-0.736078 -0.00653975 0)
(-0.730095 -0.00860254 0)
(-0.722505 -0.0107692 0)
(-0.713227 -0.0130741 0)
(-0.702158 -0.0155587 0)
(-0.689163 -0.0182751 0)
(-0.674072 -0.02129 0)
(-0.656671 -0.0246909 0)
(-0.636685 -0.0285942 0)
(-0.61377 -0.0331579 0)
(-0.587484 -0.0385997 0)
(-0.557269 -0.0452239 0)
(-0.522415 -0.0534631 0)
(-0.48203 -0.0639386 0)
(-0.435025 -0.0775489 0)
(-0.380136 -0.0955858 0)
(-0.316068 -0.119857 0)
(-0.241955 -0.152701 0)
(-0.158486 -0.196445 0)
(-0.0699721 -0.251261 0)
(0.0122931 -0.309832 0)
(0.062056 -0.343144 0)
(0.0330444 -0.249857 0)
(0.0271378 0.205278 0)
(0.063654 0.357987 0)
(0.0548593 0.375971 0)
(0.00732161 0.338979 0)
(-0.0605661 0.286475 0)
(-0.134466 0.23573 0)
(-0.206216 0.192502 0)
(-0.272031 0.157483 0)
(-0.330637 0.129619 0)
(-0.382019 0.107494 0)
(-0.426709 0.0898125 0)
(-0.465423 0.0755251 0)
(-0.498883 0.0638222 0)
(-0.527745 0.054092 0)
(-0.552573 0.0458738 0)
(-0.573839 0.0388198 0)
(-0.591932 0.0326651 0)
(-0.607169 0.0272057 0)
(-0.619804 0.022283 0)
(-0.630038 0.0177718 0)
(-0.638031 0.0135717 0)
(-0.643903 0.00960118 0)
(-0.647746 0.00579222 0)
(-0.649622 0.00208703 0)
(-0.649571 -0.00156516 0)
(-0.647611 -0.00521062 0)
(-0.643741 -0.00889335 0)
(-0.637939 -0.0126573 0)
(-0.630166 -0.0165488 0)
(-0.62036 -0.0206187 0)
(-0.60844 -0.0249255 0)
(-0.594299 -0.0295395 0)
(-0.577802 -0.0345464 0)
(-0.558782 -0.0400543 0)
(-0.537031 -0.0462012 0)
(-0.512298 -0.053166 0)
(-0.484278 -0.0611831 0)
(-0.452606 -0.0705619 0)
(-0.416857 -0.081713 0)
(-0.376554 -0.095181 0)
(-0.331197 -0.111682 0)
(-0.280344 -0.132136 0)
(-0.223786 -0.157658 0)
(-0.161881 -0.189431 0)
(-0.096181 -0.228261 0)
(-0.0304903 -0.27334 0)
(0.0275479 -0.319325 0)
(0.0649463 -0.350662 0)
(0.0657557 -0.331801 0)
(0.0268795 -0.189838 0)
(0.0184332 0.16356 0)
(0.0529495 0.331941 0)
(0.0680786 0.387652 0)
(0.0519878 0.380655 0)
(0.011853 0.345247 0)
(-0.0415964 0.30099 0)
(-0.100187 0.257441 0)
(-0.158706 0.218446 0)
(-0.214204 0.185009 0)
(-0.265248 0.156882 0)
(-0.311316 0.133363 0)
(-0.352388 0.113664 0)
(-0.388696 0.0970582 0)
(-0.420573 0.082927 0)
(-0.448378 0.0707642 0)
(-0.472455 0.0601621 0)
(-0.493115 0.0507942 0)
(-0.510626 0.0423995 0)
(-0.525215 0.0347679 0)
(-0.537071 0.0277296 0)
(-0.546346 0.0211454 0)
(-0.553161 0.0149002 0)
(-0.557608 0.00889693 0)
(-0.559753 0.00305224 0)
(-0.559641 -0.0027076 0)
(-0.557295 -0.00844988 0)
(-0.55272 -0.0142384 0)
(-0.545902 -0.0201365 0)
(-0.536808 -0.0262099 0)
(-0.52539 -0.0325298 0)
(-0.511579 -0.0391771 0)
(-0.495288 -0.046246 0)
(-0.476409 -0.0538498 0)
(-0.454812 -0.0621269 0)
(-0.430344 -0.0712495 0)
(-0.402833 -0.0814326 0)
(-0.372087 -0.0929466 0)
(-0.337907 -0.10613 0)
(-0.300109 -0.121403 0)
(-0.258567 -0.139276 0)
(-0.213284 -0.160342 0)
(-0.164527 -0.18523 0)
(-0.113046 -0.214471 0)
(-0.0604168 -0.248172 0)
(-0.00952627 -0.285333 0)
(0.0348539 -0.322477 0)
(0.0655493 -0.351199 0)
(0.0734271 -0.354362 0)
(0.0532087 -0.301683 0)
(0.0179166 -0.148247 0)
(0.0119261 0.134856 0)
(0.0406222 0.301226 0)
(0.0647067 0.379098 0)
(0.0674196 0.397106 0)
(0.0485652 0.380863 0)
(0.0142109 0.348177 0)
(-0.029364 0.309818 0)
(-0.0771481 0.271577 0)
(-0.125609 0.23617 0)
(-0.1725 0.204586 0)
(-0.216521 0.176924 0)
(-0.257007 0.152876 0)
(-0.29369 0.13198 0)
(-0.326539 0.113752 0)
(-0.355649 0.0977388 0)
(-0.381178 0.0835429 0)
(-0.403307 0.0708244 0)
(-0.422214 0.0592971 0)
(-0.438068 0.0487216 0)
(-0.451015 0.038898 0)
(-0.461183 0.0296583 0)
(-0.468675 0.0208605 0)
(-0.473574 0.0123831 0)
(-0.475945 0.00412018 0)
(-0.475831 -0.0040222 0)
(-0.473261 -0.0121301 0)
(-0.468246 -0.0202848 0)
(-0.460784 -0.0285663 0)
(-0.450859 -0.0370564 0)
(-0.438441 -0.0458423 0)
(-0.423489 -0.0550205 0)
(-0.405951 -0.064701 0)
(-0.385766 -0.0750119 0)
(-0.362866 -0.0861054 0)
(-0.337182 -0.0981634 0)
(-0.308652 -0.111404 0)
(-0.277234 -0.126085 0)
(-0.242929 -0.14251 0)
(-0.205821 -0.16102 0)
(-0.166129 -0.181973 0)
(-0.124304 -0.205697 0)
(-0.08116 -0.232375 0)
(-0.0380571 -0.261833 0)
(0.00285591 -0.293138 0)
(0.0384077 -0.323903 0)
(0.0643067 -0.349159 0)
(0.0753843 -0.359743 0)
(0.066905 -0.340431 0)
(0.0400818 -0.268986 0)
(0.0114453 -0.119981 0)
(0.00783583 0.114433 0)
(0.0308334 0.272266 0)
(0.0566795 0.361561 0)
(0.0693526 0.39787 0)
(0.0649935 0.398908 0)
(0.0459671 0.379192 0)
(0.0162619 0.348974 0)
(-0.0201323 0.314778 0)
(-0.059878 0.280393 0)
(-0.100484 0.247796 0)
(-0.140233 0.217859 0)
(-0.178019 0.190817 0)
(-0.213175 0.166573 0)
(-0.245336 0.144869 0)
(-0.274336 0.125389 0)
(-0.300132 0.107807 0)
(-0.322751 0.0918201 0)
(-0.342262 0.0771526 0)
(-0.35875 0.0635627 0)
(-0.372303 0.0508399 0)
(-0.383007 0.0388016 0)
(-0.390937 0.0272898 0)
(-0.396159 0.0161662 0)
(-0.398727 0.00530923 0)
(-0.398682 -0.0053904 0)
(-0.396054 -0.0160327 0)
(-0.390864 -0.0267119 0)
(-0.383123 -0.0375196 0)
(-0.372833 -0.0485481 0)
(-0.359992 -0.0598935 0)
(-0.344594 -0.0716592 0)
(-0.32663 -0.0839596 0)
(-0.306099 -0.0969234 0)
(-0.283006 -0.110697 0)
(-0.257375 -0.125448 0)
(-0.229267 -0.141363 0)
(-0.198789 -0.15865 0)
(-0.166134 -0.177523 0)
(-0.131618 -0.198184 0)
(-0.0957377 -0.220777 0)
(-0.0592543 -0.245309 0)
(-0.0232937 -0.271504 0)
(0.010535 -0.298567 0)
(0.0400335 -0.324801 0)
(0.0623962 -0.347041 0)
(0.0744184 -0.359885 0)
(0.0730704 -0.354838 0)
(0.056863 -0.319734 0)
(0.0299366 -0.239395 0)
(0.00743515 -0.100132 0)
(0.00538556 0.099457 0)
(0.0237924 0.246859 0)
(0.0483674 0.340841 0)
(0.0656262 0.3895 0)
(0.0704082 0.404567 0)
(0.0626922 0.39714 0)
(0.0445098 0.376095 0)
(0.0186219 0.34783 0)
(-0.012229 0.316587 0)
(-0.0457052 0.284977 0)
(-0.0799874 0.254478 0)
(-0.113745 0.225825 0)
(-0.14605 0.199299 0)
(-0.176287 0.174913 0)
(-0.204068 0.152532 0)
(-0.229163 0.131955 0)
(-0.251452 0.112953 0)
(-0.270884 0.0952938 0)
(-0.287456 0.0787611 0)
(-0.301186 0.063154 0)
(-0.31211 0.048292 0)
(-0.320267 0.0340134 0)
(-0.325698 0.0201738 0)
(-0.328443 0.00664393 0)
(-0.328536 -0.00669338 0)
(-0.326007 -0.0199457 0)
(-0.320885 -0.0332139 0)
(-0.313195 -0.0465948 0)
(-0.30296 -0.0601839 0)
(-0.290206 -0.0740781 0)
(-0.274965 -0.0883782 0)
(-0.257276 -0.103191 0)
(-0.237197 -0.118632 0)
(-0.214808 -0.134824 0)
(-0.190225 -0.151897 0)
(-0.163617 -0.169985 0)
(-0.135226 -0.189214 0)
(-0.105396 -0.20968 0)
(-0.0746148 -0.231421 0)
(-0.0435574 -0.254352 0)
(-0.0131472 -0.278174 0)
(0.0153856 -0.302226 0)
(0.040457 -0.325268 0)
(0.0601306 -0.345168 0)
(0.0722377 -0.358507 0)
(0.0747163 -0.360138 0)
(0.0662267 -0.342866 0)
(0.0472298 -0.29754 0)
(0.0226982 -0.214209 0)
(0.00504194 -0.0857905 0)
(0.003899 0.0880761 0)
(0.0188149 0.225069 0)
(0.0410933 0.319793 0)
(0.0599354 0.376252 0)
(0.0701102 0.402016 0)
(0.0702833 0.405237 0)
(0.0610746 0.393176 0)
(0.0441356 0.371612 0)
(0.021494 0.344783 0)
(-0.0048788 0.315596 0)
(-0.033278 0.285923 0)
(-0.0623306 0.256894 0)
(-0.0909853 0.229124 0)
(-0.118468 0.202892 0)
(-0.14423 0.178267 0)
(-0.167891 0.155192 0)
(-0.189201 0.133542 0)
(-0.208002 0.113157 0)
(-0.2242 0.0938645 0)
(-0.237745 0.0754944 0)
(-0.248618 0.0578833 0)
(-0.25682 0.0408796 0)
(-0.262363 0.0243438 0)
(-0.265266 0.00814814 0)
(-0.265557 -0.00782415 0)
(-0.263263 -0.0236808 0)
(-0.258418 -0.039522 0)
(-0.25106 -0.0554427 0)
(-0.241233 -0.0715341 0)
(-0.228989 -0.0878855 0)
(-0.214397 -0.104586 0)
(-0.197542 -0.121724 0)
(-0.178534 -0.139389 0)
(-0.157522 -0.157666 0)
(-0.134699 -0.176636 0)
(-0.110324 -0.196361 0)
(-0.0847389 -0.216872 0)
(-0.0583932 -0.238139 0)
(-0.0318762 -0.260034 0)
(-0.00594784 -0.282267 0)
(0.0184296 -0.30429 0)
(0.040071 -0.325168 0)
(0.0575779 -0.343401 0)
(0.0694074 -0.356705 0)
(0.0740543 -0.361764 0)
(0.0704047 -0.354038 0)
(0.0582557 -0.327748 0)
(0.0390504 -0.276258 0)
(0.0175836 -0.193198 0)
(0.0035874 -0.0750844 0)
(0.00295924 0.0791145 0)
(0.0152469 0.206438 0)
(0.0350698 0.299712 0)
(0.0539152 0.360733 0)
(0.0670175 0.394298 0)
(0.072447 0.406255 0)
(0.0699168 0.40233 0)
(0.0602111 0.387481 0)
(0.0446848 0.365653 0)
(0.0248695 0.339786 0)
(0.00223439 0.311954 0)
(-0.0219321 0.283549 0)
(-0.0465648 0.255448 0)
(-0.0708192 0.228164 0)
(-0.0940475 0.201959 0)
(-0.115767 0.176929 0)
(-0.135625 0.153066 0)
(-0.153372 0.130294 0)
(-0.168838 0.108505 0)
(-0.181907 0.087574 0)
(-0.192509 0.0673686 0)
(-0.200603 0.0477593 0)
(-0.206172 0.0286219 0)
(-0.209217 0.00984 0)
(-0.209752 -0.0086946 0)
(-0.207801 -0.027082 0)
(-0.2034 -0.0454145 0)
(-0.196599 -0.063778 0)
(-0.187458 -0.0822521 0)
(-0.176053 -0.100911 0)
(-0.162485 -0.119823 0)
(-0.146875 -0.139052 0)
(-0.129383 -0.158649 0)
(-0.110207 -0.178657 0)
(-0.0896008 -0.199094 0)
(-0.0678874 -0.219947 0)
(-0.0454722 -0.241149 0)
(-0.0228642 -0.262551 0)
(-0.000693959 -0.283881 0)
(0.0202696 -0.304681 0)
(0.0391106 -0.324227 0)
(0.0547769 -0.341423 0)
(0.0661237 -0.35467 0)
(0.0720154 -0.361725 0)
(0.0715179 -0.359579 0)
(0.064207 -0.344413 0)
(0.0505551 -0.31174 0)
(0.0323816 -0.256852 0)
(0.0139101 -0.175733 0)
(0.00266443 -0.0668349 0)
(0.00233387 0.0718449 0)
(0.0126219 0.190434 0)
(0.0301558 0.281103 0)
(0.0482209 0.344465 0)
(0.0626866 0.383513 0)
(0.0714526 0.402378 0)
(0.0737108 0.405467 0)
(0.0696283 0.396894 0)
(0.0600015 0.380165 0)
(0.0459351 0.358077 0)
(0.0286154 0.332748 0)
(0.00917276 0.30571 0)
(-0.011391 0.278022 0)
(-0.0322305 0.250382 0)
(-0.0526578 0.22322 0)
(-0.0721288 0.196773 0)
(-0.0902232 0.171151 0)
(-0.106623 0.146372 0)
(-0.121095 0.122401 0)
(-0.133468 0.0991671 0)
(-0.143626 0.0765809 0)
(-0.15149 0.0545451 0)
(-0.157016 0.0329602 0)
(-0.160184 0.0117294 0)
(-0.160992 -0.00923888 0)
(-0.159462 -0.0300299 0)
(-0.155631 -0.0507214 0)
(-0.149552 -0.0713834 0)
(-0.141299 -0.0920775 0)
(-0.13097 -0.112856 0)
(-0.118686 -0.133762 0)
(-0.1046 -0.154825 0)
(-0.0889035 -0.176057 0)
(-0.0718341 -0.197448 0)
(-0.0536848 -0.218957 0)
(-0.034815 -0.240493 0)
(-0.0156624 -0.261901 0)
(0.00324588 -0.282927 0)
(0.0212843 -0.303183 0)
(0.0377263 -0.322093 0)
(0.0517529 -0.338826 0)
(0.0624821 -0.352218 0)
(0.069031 -0.360687 0)
(0.0706236 -0.362152 0)
(0.0667656 -0.353994 0)
(0.0574882 -0.333102 0)
(0.0436119 -0.296065 0)
(0.0269962 -0.239587 0)
(0.0112028 -0.161175 0)
(0.00204827 -0.0603116 0)
(0.00189559 0.0658099 0)
(0.0106317 0.176592 0)
(0.0261341 0.264098 0)
(0.0430621 0.328316 0)
(0.0579197 0.371071 0)
(0.0686635 0.395248 0)
(0.0742272 0.404188 0)
(0.0743727 0.401224 0)
(0.0694692 0.389376 0)
(0.0602506 0.371197 0)
(0.0476218 0.348736 0)
(0.0325235 0.32357 0)
(0.0158476 0.296862 0)
(-0.00160919 0.269439 0)
(-0.0191643 0.241863 0)
(-0.0362516 0.2145 0)
(-0.0524131 0.187564 0)
(-0.0672866 0.161168 0)
(-0.0805918 0.135352 0)
(-0.0921167 0.110107 0)
(-0.101706 0.0853929 0)
(-0.109249 0.0611519 0)
(-0.114674 0.0373168 0)
(-0.117943 0.0138177 0)
(-0.119042 -0.00941387 0)
(-0.117983 -0.0324419 0)
(-0.114801 -0.0553236 0)
(-0.109554 -0.0781076 0)
(-0.102323 -0.100832 0)
(-0.0932183 -0.123523 0)
(-0.0823769 -0.146193 0)
(-0.0699718 -0.168834 0)
(-0.0562159 -0.191415 0)
(-0.0413683 -0.213877 0)
(-0.0257422 -0.236116 0)
(-0.00971165 -0.257974 0)
(0.00628098 -0.279216 0)
(0.0217207 -0.299508 0)
(0.0360192 -0.318375 0)
(0.0485223 -0.335167 0)
(0.0585299 -0.349006 0)
(0.0653348 -0.358729 0)
(0.0682897 -0.362844 0)
(0.0669078 -0.359492 0)
(0.061007 -0.34646 0)
(0.0508919 -0.321263 0)
(0.037521 -0.281345 0)
(0.0226276 -0.224424 0)
(0.00915042 -0.148983 0)
(0.00161595 -0.0550509 0)
(0.00157351 0.0607115 0)
(0.0090764 0.164535 0)
(0.0228031 0.248668 0)
(0.0384576 0.312768 0)
(0.0531116 0.357905 0)
(0.0648859 0.386074 0)
(0.0726233 0.399778 0)
(0.075841 0.401675 0)
(0.074602 0.394308 0)
(0.0693409 0.379943 0)
(0.0607092 0.360491 0)
(0.0494553 0.337497 0)
(0.0363396 0.312165 0)
(0.0220794 0.285402 0)
(0.00731915 0.257868 0)
(-0.00738401 0.230027 0)
(-0.0215613 0.202189 0)
(-0.0348273 0.174554 0)
(-0.0468738 0.147234 0)
(-0.0574586 0.120283 0)
(-0.0663973 0.0937148 0)
(-0.0735543 0.0675158 0)
(-0.0788361 0.0416563 0)
(-0.0821851 0.0160985 0)
(-0.0835757 -0.0091976 0)
(-0.0830113 -0.0342696 0)
(-0.0805222 -0.0591494 0)
(-0.076166 -0.0838597 0)
(-0.0700277 -0.108412 0)
(-0.0622216 -0.132802 0)
(-0.0528945 -0.157008 0)
(-0.0422285 -0.180986 0)
(-0.0304459 -0.204661 0)
(-0.0178139 -0.227924 0)
(-0.00464911 -0.250617 0)
(0.00867829 -0.272521 0)
(0.0217418 -0.29334 0)
(0.0340591 -0.312674 0)
(0.0450981 -0.329996 0)
(0.0542904 -0.344618 0)
(0.0610574 -0.355656 0)
(0.0648523 -0.361998 0)
(0.0652229 -0.362281 0)
(0.061899 -0.354888 0)
(0.054905 -0.337982 0)
(0.0446891 -0.309608 0)
(0.0322224 -0.267872 0)
(0.0190432 -0.211207 0)
(0.0075509 -0.138727 0)
(0.00129876 -0.0507475 0)
(0.00132686 0.0563484 0)
(0.0078256 0.153973 0)
(0.0199996 0.234721 0)
(0.0343529 0.29808 0)
(0.0484411 0.344632 0)
(0.0605894 0.375733 0)
(0.0696491 0.393244 0)
(0.0750069 0.39926 0)
(0.0765189 0.395891 0)
(0.0743912 0.385103 0)
(0.0690623 0.368634 0)
(0.0611025 0.34795 0)
(0.0511365 0.324246 0)
(0.039787 0.298466 0)
(0.0276392 0.271333 0)
(0.0152195 0.243384 0)
(0.00298625 0.21501 0)
(-0.00867169 0.186483 0)
(-0.019433 0.157986 0)
(-0.0290383 0.129633 0)
(-0.0372838 0.10149 0)
(-0.0440151 0.0735923 0)
(-0.0491211 0.0459491 0)
(-0.0525296 0.0185588 0)
(-0.0542027 -0.00858644 0)
(-0.0541346 -0.0354943 0)
(-0.0523493 -0.0621679 0)
(-0.0489007 -0.0886013 0)
(-0.0438721 -0.114776 0)
(-0.0373781 -0.140656 0)
(-0.0295659 -0.166186 0)
(-0.0206187 -0.191283 0)
(-0.0107579 -0.215831 0)
(-0.000246574 -0.239676 0)
(0.0106084 -0.262612 0)
(0.0214545 -0.28437 0)
(0.031895 -0.304604 0)
(0.0414927 -0.322872 0)
(0.0497803 -0.338617 0)
(0.0562771 -0.351139 0)
(0.0605174 -0.359581 0)
(0.0620904 -0.362909 0)
(0.0606967 -0.359904 0)
(0.0562187 -0.349184 0)
(0.0488058 -0.329247 0)
(0.0389631 -0.298568 0)
(0.0276054 -0.255755 0)
(0.0160584 -0.19975 0)
(0.00627125 -0.130077 0)
(0.00105686 -0.0471933 0)
(0.00113114 0.0525809 0)
(0.00679246 0.144683 0)
(0.0175977 0.22215 0)
(0.0306721 0.284389 0)
(0.0439757 0.331657 0)
(0.0560428 0.364859 0)
(0.0657884 0.385365 0)
(0.0725462 0.394814 0)
(0.0760419 0.394934 0)
(0.0763154 0.387409 0)
(0.0736344 0.373788 0)
(0.0684147 0.355431 0)
(0.0611524 0.333487 0)
(0.0523715 0.308905 0)
(0.042587 0.28244 0)
(0.0322796 0.254683 0)
(0.0218819 0.226084 0)
(0.0117715 0.196976 0)
(0.00226905 0.167603 0)
(-0.00635974 0.138136 0)
(-0.013901 0.108693 0)
(-0.0201881 0.0793545 0)
(-0.0250977 0.0501721 0)
(-0.0285455 0.0211812 0)
(-0.0304832 -0.00759167 0)
(-0.0308954 -0.0361222 0)
(-0.0297986 -0.0643826 0)
(-0.02724 -0.0923365 0)
(-0.0232974 -0.119934 0)
(-0.0180802 -0.147108 0)
(-0.0117302 -0.173768 0)
(-0.00442363 -0.199795 0)
(0.00362746 -0.225035 0)
(0.0121735 -0.249293 0)
(0.0209268 -0.272321 0)
(0.0295624 -0.293812 0)
(0.0377216 -0.313384 0)
(0.0450183 -0.330567 0)
(0.0510511 -0.344789 0)
(0.0554222 -0.355365 0)
(0.0577639 -0.36148 0)
(0.0577755 -0.362187 0)
(0.0552703 -0.356418 0)
(0.0502317 -0.343001 0)
(0.0428751 -0.32072 0)
(0.0337076 -0.288396 0)
(0.0235527 -0.245013 0)
(0.0135313 -0.189875 0)
(0.00522199 -0.122776 0)
(0.000866074 -0.044242 0)
(0.000970956 0.0493091 0)
(0.00591777 0.136495 0)
(0.015502 0.210854 0)
(0.02734 0.271757 0)
(0.0397273 0.31925 0)
(0.0513961 0.353912 0)
(0.0613529 0.376742 0)
(0.0689281 0.389011 0)
(0.0737737 0.392128 0)
(0.0758148 0.387517 0)
(0.0751881 0.376541 0)
(0.0721804 0.360438 0)
(0.0671733 0.340295 0)
(0.0605955 0.317036 0)
(0.052888 0.291428 0)
(0.044478 0.264092 0)
(0.0357615 0.235521 0)
(0.0270941 0.206099 0)
(0.0187853 0.176119 0)
(0.0110972 0.145804 0)
(0.00424618 0.11532 0)
(-0.00159574 0.0847902 0)
(-0.00629744 0.0543076 0)
(-0.00976599 0.0239451 0)
(-0.011944 -0.0062359 0)
(-0.0128073 -0.0361784 0)
(-0.0123638 -0.0658229 0)
(-0.0106518 -0.0951024 0)
(-0.00774059 -0.123936 0)
(-0.0037299 -0.152224 0)
(0.00124908 -0.179844 0)
(0.00703302 -0.206642 0)
(0.0134258 -0.232431 0)
(0.0201981 -0.256978 0)
(0.0270885 -0.280004 0)
(0.0338054 -0.301169 0)
(0.040032 -0.320065 0)
(0.0454347 -0.336208 0)
(0.0496753 -0.349027 0)
(0.0524291 -0.357859 0)
(0.0534103 -0.361942 0)
(0.0524029 -0.360422 0)
(0.0492996 -0.352365 0)
(0.0441446 -0.33679 0)
(0.0371784 -0.312715 0)
(0.0288764 -0.279235 0)
(0.0199572 -0.235618 0)
(0.011354 -0.181425 0)
(0.00434127 -0.116629 0)
(0.000711028 -0.0417888 0)
(0.000836218 0.0464603 0)
(0.00516019 0.129279 0)
(0.0136406 0.200743 0)
(0.0242898 0.260213 0)
(0.035682 0.307591 0)
(0.04673 0.343226 0)
(0.0565429 0.367834 0)
(0.0644791 0.382396 0)
(0.0701573 0.388051 0)
(0.0734279 0.386 0)
(0.0743313 0.377428 0)
(0.0730511 0.36345 0)
(0.0698701 0.345077 0)
(0.0651304 0.323194 0)
(0.0592003 0.298561 0)
(0.0524501 0.271813 0)
(0.0452336 0.24347 0)
(0.0378765 0.213954 0)
(0.0306692 0.183601 0)
(0.0238629 0.152676 0)
(0.0176694 0.121387 0)
(0.0122606 0.0898991 0)
(0.00777097 0.0583431 0)
(0.00429884 0.0268283 0)
(0.00190868 -0.00454985 0)
(0.000632718 -0.0357021 0)
(0.000472352 -0.066538 0)
(0.00139909 -0.0969598 0)
(0.00335504 -0.126857 0)
(0.00625308 -0.156099 0)
(0.00997674 -0.184532 0)
(0.0143801 -0.211973 0)
(0.0192877 -0.238202 0)
(0.0244954 -0.262958 0)
(0.0297719 -0.285932 0)
(0.0348622 -0.30676 0)
(0.0394928 -0.325018 0)
(0.0433803 -0.340215 0)
(0.0462441 -0.351789 0)
(0.0478226 -0.359106 0)
(0.0478951 -0.361458 0)
(0.0463085 -0.358081 0)
(0.0430075 -0.348162 0)
(0.0380678 -0.33088 0)
(0.031727 -0.305445 0)
(0.0244098 -0.271165 0)
(0.0167268 -0.227523 0)
(0.00944414 -0.174267 0)
(0.00358527 -0.111489 0)
(0.000581527 -0.0397569 0)
(0.00072007 0.0439806 0)
(0.00449025 0.122934 0)
(0.0119593 0.19174 0)
(0.0214649 0.24976 0)
(0.0318157 0.296801 0)
(0.0420853 0.333044 0)
(0.0514879 0.358992 0)
(0.0594283 0.375398 0)
(0.06552 0.383181 0)
(0.0695698 0.383346 0)
(0.0715499 0.376922 0)
(0.0715643 0.364903 0)
(0.0698141 0.348219 0)
(0.0665643 0.327709 0)
(0.062116 0.304111 0)
(0.0567826 0.278061 0)
(0.0508731 0.250097 0)
(0.0446788 0.220665 0)
(0.0384654 0.190134 0)
(0.0324675 0.158805 0)
(0.0268866 0.126923 0)
(0.0218901 0.0946894 0)
(0.0176114 0.06227 0)
(0.0141515 0.0298078 0)
(0.0115797 -0.00256949 0)
(0.00993557 -0.0347419 0)
(0.00922944 -0.0665894 0)
(0.00944371 -0.0979853 0)
(0.0105333 -0.12879 0)
(0.0124262 -0.158847 0)
(0.0150233 -0.187972 0)
(0.0181992 -0.215955 0)
(0.0218026 -0.242548 0)
(0.0256573 -0.267465 0)
(0.0295645 -0.290374 0)
(0.0333065 -0.310893 0)
(0.0366523 -0.328587 0)
(0.0393656 -0.342964 0)
(0.0412163 -0.353474 0)
(0.0419953 -0.359514 0)
(0.0415327 -0.360431 0)
(0.0397194 -0.355537 0)
(0.0365315 -0.344126 0)
(0.0320544 -0.325509 0)
(0.0265046 -0.299051 0)
(0.0202463 -0.264226 0)
(0.0137847 -0.22068 0)
(0.00773881 -0.168292 0)
(0.00292222 -0.107238 0)
(0.000470553 -0.0380897 0)
(0.000617703 0.0418297 0)
(0.00388643 0.117384 0)
(0.0104165 0.183783 0)
(0.0188191 0.240395 0)
(0.0281013 0.286963 0)
(0.0374798 0.323547 0)
(0.0462713 0.35049 0)
(0.0539375 0.368364 0)
(0.0601057 0.37791 0)
(0.0645621 0.379972 0)
(0.0672338 0.375435 0)
(0.0681651 0.365188 0)
(0.0674911 0.350079 0)
(0.0654112 0.330894 0)
(0.0621654 0.308345 0)
(0.0580133 0.283057 0)
(0.0532185 0.255575 0)
(0.0480359 0.226363 0)
(0.0427028 0.195813 0)
(0.0374331 0.164256 0)
(0.0324139 0.131965 0)
(0.0278038 0.0991749 0)
(0.0237319 0.0660822 0)
(0.0202991 0.0328603 0)
(0.0175776 -0.000333829 0)
(0.0156128 -0.0333518 0)
(0.0144238 -0.0660463 0)
(0.014004 -0.0982641 0)
(0.0143221 -0.12984 0)
(0.0153225 -0.16059 0)
(0.0169255 -0.190307 0)
(0.0190282 -0.218754 0)
(0.0215052 -0.245662 0)
(0.0242099 -0.270722 0)
(0.0269769 -0.293584 0)
(0.0296254 -0.313851 0)
(0.0319649 -0.33108 0)
(0.0338018 -0.344782 0)
(0.0349501 -0.354422 0)
(0.0352433 -0.359425 0)
(0.0345496 -0.359185 0)
(0.0327896 -0.353081 0)
(0.0299544 -0.340497 0)
(0.0261239 -0.320851 0)
(0.0214825 -0.293631 0)
(0.0163286 -0.258438 0)
(0.011068 -0.215039 0)
(0.00618936 -0.163412 0)
(0.00232865 -0.103792 0)
(0.000373126 -0.0367449 0)
(0.000525649 0.039977 0)
(0.00333278 0.112571 0)
(0.00898037 0.176821 0)
(0.0163144 0.23211 0)
(0.0245124 0.278135 0)
(0.0329186 0.314869 0)
(0.0409475 0.342534 0)
(0.0481228 0.361564 0)
(0.0540985 0.372557 0)
(0.0586568 0.376219 0)
(0.0616978 0.37332 0)
(0.0632231 0.364647 0)
(0.0633158 0.350975 0)
(0.0621205 0.333036 0)
(0.0598231 0.311511 0)
(0.0566336 0.287009 0)
(0.0527717 0.260075 0)
(0.048455 0.231181 0)
(0.0438907 0.200738 0)
(0.039269 0.169095 0)
(0.0347595 0.136553 0)
(0.0305087 0.103372 0)
(0.0266389 0.0697749 0)
(0.0232479 0.0359623 0)
(0.0204091 0.00211677 0)
(0.0181724 -0.0315882 0)
(0.0165646 -0.0649808 0)
(0.0155902 -0.0978841 0)
(0.0152319 -0.13011 0)
(0.0154512 -0.161451 0)
(0.0161889 -0.191679 0)
(0.0173656 -0.220536 0)
(0.0188827 -0.247731 0)
(0.0206239 -0.272939 0)
(0.0224569 -0.295792 0)
(0.024237 -0.315884 0)
(0.0258114 -0.332766 0)
(0.0270251 -0.345952 0)
(0.0277299 -0.354918 0)
(0.0277934 -0.359116 0)
(0.0271122 -0.357979 0)
(0.0256246 -0.350942 0)
(0.0233251 -0.33746 0)
(0.0202779 -0.317035 0)
(0.0166276 -0.28925 0)
(0.0126061 -0.253806 0)
(0.00852525 -0.210559 0)
(0.00475789 -0.159559 0)
(0.00178683 -0.101082 0)
(0.000285615 -0.0356912 0)
(0.000441339 0.0383996 0)
(0.00281716 0.108447 0)
(0.0076261 0.170814 0)
(0.0139198 0.224893 0)
(0.0210248 0.270355 0)
(0.0283999 0.307108 0)
(0.0355517 0.335284 0)
(0.0420684 0.355213 0)
(0.0476386 0.367377 0)
(0.0520532 0.372373 0)
(0.0551989 0.37087 0)
(0.057048 0.363571 0)
(0.0576442 0.351183 0)
(0.0570865 0.334388 0)
(0.0555144 0.313833 0)
(0.0530925 0.29011 0)
(0.0499991 0.263755 0)
(0.0464151 0.235245 0)
(0.0425165 0.205 0)
(0.0384683 0.173387 0)
(0.0344202 0.140726 0)
(0.0305041 0.107296 0)
(0.0268329 0.0733432 0)
(0.0234993 0.0390902 0)
(0.0205758 0.00474164 0)
(0.0181156 -0.0295075 0)
(0.0161521 -0.0634645 0)
(0.0147003 -0.0969319 0)
(0.0137567 -0.129701 0)
(0.0133 -0.161547 0)
(0.0132918 -0.192222 0)
(0.0136766 -0.221449 0)
(0.014383 -0.248922 0)
(0.0153248 -0.274298 0)
(0.0164025 -0.297199 0)
(0.0175056 -0.317207 0)
(0.0185166 -0.333871 0)
(0.0193154 -0.346703 0)
(0.019786 -0.355193 0)
(0.0198238 -0.358809 0)
(0.0193454 -0.357017 0)
(0.0182984 -0.349294 0)
(0.0166723 -0.33515 0)
(0.0145084 -0.314152 0)
(0.0119075 -0.285955 0)
(0.00903487 -0.250331 0)
(0.0061144 -0.207205 0)
(0.00341459 -0.156679 0)
(0.00128321 -0.0990595 0)
(0.000205309 -0.0349052 0)
(0.000362819 0.0370799 0)
(0.00233014 0.104979 0)
(0.00633384 0.16573 0)
(0.0116096 0.218737 0)
(0.0176169 0.263651 0)
(0.0239179 0.300338 0)
(0.0301066 0.328864 0)
(0.0358361 0.349477 0)
(0.0408351 0.362572 0)
(0.0449113 0.36866 0)
(0.0479489 0.368326 0)
(0.0499018 0.362203 0)
(0.0507838 0.350937 0)
(0.0506575 0.335167 0)
(0.0496218 0.315505 0)
(0.0478012 0.292525 0)
(0.0453348 0.266753 0)
(0.0423682 0.238664 0)
(0.0390462 0.208685 0)
(0.0355072 0.177191 0)
(0.0318796 0.144518 0)
(0.0282789 0.110959 0)
(0.0248064 0.0767799 0)
(0.0215476 0.0422194 0)
(0.0185726 0.00750036 0)
(0.0159361 -0.0271647 0)
(0.0136772 -0.0615659 0)
(0.0118203 -0.0954891 0)
(0.0103752 -0.12871 0)
(0.00933764 -0.160987 0)
(0.00868953 -0.192056 0)
(0.00839944 -0.221628 0)
(0.008423 -0.249381 0)
(0.0087036 -0.27496 0)
(0.00917344 -0.297974 0)
(0.00975519 -0.317999 0)
(0.0103643 -0.334578 0)
(0.0109123 -0.347223 0)
(0.0113113 -0.355428 0)
(0.0114793 -0.358676 0)
(0.0113471 -0.356454 0)
(0.0108654 -0.348269 0)
(0.010013 -0.333669 0)
(0.00880362 -0.312269 0)
(0.00729201 -0.283774 0)
(0.00557758 -0.248009 0)
(0.00380116 -0.204948 0)
(0.00213567 -0.154732 0)
(0.000807165 -0.0976865 0)
(0.000130135 -0.0343702 0)
(0.000288553 0.0360049 0)
(0.00186417 0.10214 0)
(0.00508739 0.161544 0)
(0.00936215 0.213632 0)
(0.0142688 0.258044 0)
(0.0194647 0.294615 0)
(0.0246267 0.323366 0)
(0.0294722 0.344485 0)
(0.0337735 0.358302 0)
(0.0373615 0.365259 0)
(0.0401254 0.36588 0)
(0.0420087 0.360737 0)
(0.0430038 0.350427 0)
(0.0431434 0.335551 0)
(0.0424922 0.316689 0)
(0.041138 0.294397 0)
(0.039184 0.269188 0)
(0.0367416 0.241534 0)
(0.0339247 0.211861 0)
(0.0308449 0.180554 0)
(0.0276078 0.147954 0)
(0.0243112 0.114369 0)
(0.0210427 0.0800746 0)
(0.0178793 0.0453239 0)
(0.0148868 0.010353 0)
(0.0121199 -0.0246123 0)
(0.00962195 -0.059349 0)
(0.00742583 -0.0936303 0)
(0.00555377 -0.127219 0)
(0.00401777 -0.159862 0)
(0.00281978 -0.191285 0)
(0.00195182 -0.221184 0)
(0.00139604 -0.249228 0)
(0.00112498 -0.27505 0)
(0.00110179 -0.298252 0)
(0.00128093 -0.3184 0)
(0.0016092 -0.335029 0)
(0.00202742 -0.347651 0)
(0.00247293 -0.355761 0)
(0.00288282 -0.358846 0)
(0.00319812 -0.356404 0)
(0.0033687 -0.34796 0)
(0.00335862 -0.333088 0)
(0.00315133 -0.31143 0)
(0.00275441 -0.282726 0)
(0.00220256 -0.246837 0)
(0.00155714 -0.203769 0)
(0.000901837 -0.153688 0)
(0.000350218 -0.0969367 0)
(5.84619e-05 -0.0340739 0)
(0.000217282 0.0351653 0)
(0.00141296 0.0999117 0)
(0.003873 0.15824 0)
(0.00715864 0.209573 0)
(0.0109623 0.253547 0)
(0.0150308 0.289979 0)
(0.0191201 0.318857 0)
(0.0230115 0.34033 0)
(0.0265228 0.354683 0)
(0.0295123 0.362308 0)
(0.0318794 0.363679 0)
(0.033564 0.359324 0)
(0.0345426 0.349802 0)
(0.034824 0.335679 0)
(0.0344427 0.317511 0)
(0.033454 0.295834 0)
(0.0319272 0.271149 0)
(0.0299412 0.243924 0)
(0.0275791 0.214582 0)
(0.0249255 0.183508 0)
(0.0220625 0.151051 0)
(0.0190687 0.117524 0)
(0.0160168 0.0832117 0)
(0.0129736 0.0483752 0)
(0.00999887 0.0132596 0)
(0.00714587 -0.0219 0)
(0.00446101 -0.0568721 0)
(0.00198422 -0.0914213 0)
(-0.000250882 -0.125302 0)
(-0.0022169 -0.158253 0)
(-0.00389264 -0.189991 0)
(-0.00526328 -0.220205 0)
(-0.00632066 -0.248555 0)
(-0.00706373 -0.274666 0)
(-0.007499 -0.298131 0)
(-0.00764101 -0.318508 0)
(-0.00751265 -0.335325 0)
(-0.00714512 -0.348088 0)
(-0.00657746 -0.356284 0)
(-0.00585554 -0.359402 0)
(-0.0050302 -0.356941 0)
(-0.00415475 -0.348429 0)
(-0.00328181 -0.333451 0)
(-0.00245961 -0.311663 0)
(-0.00172835 -0.282823 0)
(-0.0011171 -0.24681 0)
(-0.00064145 -0.20365 0)
(-0.00030291 -0.153526 0)
(-9.45988e-05 -0.0967921 0)
(-1.10344e-05 -0.0340085 0)
(0.000147926 0.0345546 0)
(0.000971013 0.0982812 0)
(0.00267845 0.155805 0)
(0.0049818 0.206556 0)
(0.00768011 0.250171 0)
(0.0106054 0.286456 0)
(0.0135905 0.315385 0)
(0.0164803 0.337082 0)
(0.0191392 0.351801 0)
(0.0214553 0.359903 0)
(0.0233424 0.361828 0)
(0.0247407 0.358073 0)
(0.0256154 0.349167 0)
(0.025955 0.33565 0)
(0.0257678 0.318059 0)
(0.0250787 0.296912 0)
(0.0239255 0.2727 0)
(0.0223553 0.245882 0)
(0.0204212 0.216877 0)
(0.0181802 0.186071 0)
(0.0156905 0.153811 0)