/*--------------------------------*- C++ -*----------------------------------*\
  =========                 |
  \\      /  F ield         | OpenFOAM: The Open Source CFD Toolbox
   \\    /   O peration     | Website:  https://openfoam.org
    \\  /    A nd           | Version:  7
     \\/     M anipulation  |
\*---------------------------------------------------------------------------*/
FoamFile
{
    version     2.0;
    format      ascii;
    class       surfaceScalarField;
    location    "0.0422";
    object      phi;
}
// * * * * * * * * * * * * * * * * * * * * * * * * * * * * * * * * * * * * * //

dimensions      [0 3 -1 0 0 0 0];

internalField   nonuniform List<scalar> 
4900
(
9.99748e-10
-1.00635e-09
1.96516e-09
-9.65404e-10
1.89516e-09
6.99783e-11
4.67266e-10
1.4279e-09
-2.37428e-09
2.84155e-09
-6.5432e-09
4.16891e-09
-1.18841e-08
5.3409e-09
-1.82133e-08
6.3292e-09
-2.53382e-08
7.1249e-09
-3.30668e-08
7.72858e-09
-4.12128e-08
8.14599e-09
-4.95986e-08
8.38582e-09
-5.8057e-08
8.45845e-09
-6.64323e-08
8.37525e-09
-7.45804e-08
8.14809e-09
-8.23694e-08
7.78904e-09
-8.96797e-08
7.31026e-09
-9.64035e-08
6.72381e-09
-1.02445e-07
6.04163e-09
-1.07721e-07
5.27558e-09
-1.12158e-07
4.43739e-09
-1.15697e-07
3.53878e-09
-1.18288e-07
2.59149e-09
-1.19896e-07
1.60741e-09
-1.20494e-07
5.98596e-10
-1.20072e-07
-4.22583e-10
-1.18628e-07
-1.44342e-09
-1.16177e-07
-2.45078e-09
-1.12746e-07
-3.43111e-09
-1.08376e-07
-4.37038e-09
-1.03122e-07
-5.25419e-09
-9.7054e-08
-6.06776e-09
-9.02579e-08
-6.79608e-09
-8.28339e-08
-7.42403e-09
-7.48973e-08
-7.93658e-09
-6.65783e-08
-8.319e-09
-5.80212e-08
-8.55709e-09
-4.93837e-08
-8.63753e-09
-4.08355e-08
-8.5482e-09
-3.2557e-08
-8.27855e-09
-2.47368e-08
-7.82019e-09
-1.75691e-08
-7.16761e-09
-1.12498e-08
-6.31937e-09
-5.96953e-09
-5.28023e-09
-1.90412e-09
-4.06541e-09
8.06107e-10
-2.71023e-09
2.09448e-09
-1.28838e-09
2.04047e-09
5.40337e-11
1.00575e-09
1.03477e-09
1.0058e-09
9.77768e-10
-1.9841e-09
9.0107e-10
-8.88715e-10
-1.63849e-09
2.60955e-09
-7.30193e-09
7.09134e-09
-1.62577e-08
1.17974e-08
-2.838e-08
1.62912e-08
-4.33694e-08
2.03303e-08
-6.08283e-08
2.37881e-08
-8.03088e-08
2.66054e-08
-1.01343e-07
2.87629e-08
-1.23463e-07
3.02654e-08
-1.4621e-07
3.11329e-08
-1.69146e-07
3.13949e-08
-1.91858e-07
3.10871e-08
-2.13959e-07
3.02489e-08
-2.35092e-07
2.89222e-08
-2.54931e-07
2.71498e-08
-2.73183e-07
2.49755e-08
-2.89584e-07
2.2443e-08
-3.03905e-07
1.95962e-08
-3.15947e-07
1.64792e-08
-3.25544e-07
1.3136e-08
-3.32563e-07
9.611e-09
-3.36905e-07
5.94921e-09
-3.38503e-07
2.19635e-09
-3.37325e-07
-1.60082e-09
-3.33374e-07
-5.39431e-09
-3.2669e-07
-9.13475e-09
-3.1735e-07
-1.27713e-08
-3.05468e-07
-1.62518e-08
-2.912e-07
-1.95228e-08
-2.74738e-07
-2.25297e-08
-2.56316e-07
-2.52177e-08
-2.36208e-07
-2.75318e-08
-2.14727e-07
-2.94177e-08
-1.92223e-07
-3.08231e-08
-1.69082e-07
-3.16981e-08
-1.45723e-07
-3.1997e-08
-1.22591e-07
-3.16798e-08
-1.00156e-07
-3.07136e-08
-7.89004e-08
-2.90758e-08
-5.93109e-08
-2.67571e-08
-4.18631e-08
-2.37672e-08
-2.70006e-08
-2.01427e-08
-1.51033e-08
-1.59626e-08
-6.43978e-09
-1.13738e-08
-1.0908e-09
-6.63738e-09
1.16883e-09
-2.20566e-09
1.04379e-09
1.15971e-09
2.04962e-09
-2.26536e-11
-1.96146e-09
-2.51012e-09
1.59876e-09
-8.8392e-09
8.93864e-09
-1.96625e-08
1.79147e-08
-3.51527e-08
2.72875e-08
-5.51439e-08
3.62824e-08
-7.92402e-08
4.44266e-08
-1.069e-07
5.14478e-08
-1.37496e-07
5.72015e-08
-1.70358e-07
6.16254e-08
-2.04803e-07
6.47104e-08
-2.40154e-07
6.64833e-08
-2.75753e-07
6.69946e-08
-3.10977e-07
6.63107e-08
-3.45237e-07
6.45086e-08
-3.77987e-07
6.1672e-08
-4.08725e-07
5.78888e-08
-4.36999e-07
5.32495e-08
-4.62403e-07
4.78464e-08
-4.84579e-07
4.17723e-08
-5.03221e-07
3.51209e-08
-5.18071e-07
2.79867e-08
-5.28925e-07
2.04649e-08
-5.35628e-07
1.26521e-08
-5.38079e-07
4.64679e-09
-5.36229e-07
-3.45059e-09
-5.30086e-07
-1.15371e-08
-5.19714e-07
-1.9507e-08
-5.05233e-07
-2.72517e-08
-4.86825e-07
-3.46603e-08
-4.64729e-07
-4.16192e-08
-4.39245e-07
-4.80134e-08
-4.10735e-07
-5.37273e-08
-3.79621e-07
-5.8646e-08
-3.46382e-07
-6.26568e-08
-3.11553e-07
-6.56516e-08
-2.75722e-07
-6.75291e-08
-2.39522e-07
-6.81975e-08
-2.03623e-07
-6.75789e-08
-1.68724e-07
-6.56128e-08
-1.35537e-07
-6.22623e-08
-1.04772e-07
-5.7522e-08
-7.71104e-08
-5.14288e-08
-5.31741e-08
-4.4079e-08
-3.34818e-08
-3.56549e-08
-1.83883e-08
-2.64672e-08
-8.0014e-09
-1.70243e-08
-2.07757e-09
-8.12945e-09
1.16245e-10
-1.03415e-09
2.16587e-09
-1.32923e-09
-6.32234e-10
-6.91428e-09
7.18382e-09
-1.77395e-08
1.97639e-08
-3.42848e-08
3.446e-08
-5.66194e-08
4.96221e-08
-8.44868e-08
6.41498e-08
-1.17391e-07
7.73306e-08
-1.5467e-07
8.87268e-08
-1.95556e-07
9.8088e-08
-2.39223e-07
1.05292e-07
-2.84816e-07
1.10304e-07
-3.31485e-07
1.13152e-07
-3.78397e-07
1.13907e-07
-4.24754e-07
1.12668e-07
-4.69801e-07
1.09556e-07
-5.12834e-07
1.04705e-07
-5.53204e-07
9.8259e-08
-5.90322e-07
9.0368e-08
-6.23661e-07
8.11852e-08
-6.52756e-07
7.08669e-08
-6.77206e-07
5.95711e-08
-6.96677e-07
4.74578e-08
-7.10901e-07
3.46888e-08
-7.19677e-07
2.14286e-08
-7.22875e-07
7.84455e-09
-7.20433e-07
-5.89254e-09
-7.12363e-07
-1.96077e-08
-6.98748e-07
-3.31216e-08
-6.79749e-07
-4.62506e-08
-6.55602e-07
-5.88071e-08
-6.26622e-07
-7.06e-08
-5.93199e-07
-8.14363e-08
-5.55804e-07
-9.11224e-08
-5.14983e-07
-9.94671e-08
-4.71356e-07
-1.06284e-07
-4.25613e-07
-1.11394e-07
-3.78509e-07
-1.14633e-07
-3.30853e-07
-1.15854e-07
-2.83499e-07
-1.14934e-07
-2.3733e-07
-1.11781e-07
-1.93243e-07
-1.06349e-07
-1.52123e-07
-9.8642e-08
-1.14813e-07
-8.87389e-08
-8.20769e-08
-7.68152e-08
-5.45514e-08
-6.31804e-08
-3.26862e-08
-4.83324e-08
-1.66709e-08
-3.30396e-08
-6.35367e-09
-1.84466e-08
-1.16301e-09
-6.22482e-09
1.00286e-09
-2.72552e-09
2.09329e-09
-1.16593e-08
1.61176e-08
-2.7313e-08
3.54176e-08
-4.98804e-08
5.70273e-08
-7.92396e-08
7.89813e-08
-1.14993e-07
9.99029e-08
-1.56521e-07
1.18859e-07
-2.03043e-07
1.35248e-07
-2.53664e-07
1.48709e-07
-3.07424e-07
1.59051e-07
-3.63329e-07
1.6621e-07
-4.20385e-07
1.70208e-07
-4.77613e-07
1.71135e-07
-5.34073e-07
1.69127e-07
-5.8887e-07
1.64353e-07
-6.41168e-07
1.57003e-07
-6.90195e-07
1.47286e-07
-7.35248e-07
1.35421e-07
-7.75695e-07
1.21632e-07
-8.10979e-07
1.06152e-07
-8.40623e-07
8.92147e-08
-8.64224e-07
7.1059e-08
-8.81462e-07
5.19265e-08
-8.92096e-07
3.2063e-08
-8.9597e-07
1.17187e-08
-8.93012e-07
-8.85091e-09
-8.83235e-07
-2.93844e-08
-8.66743e-07
-4.96143e-08
-8.43726e-07
-6.9267e-08
-8.1447e-07
-8.80634e-08
-7.7935e-07
-1.0572e-07
-7.38835e-07
-1.21951e-07
-6.93487e-07
-1.36471e-07
-6.43956e-07
-1.48997e-07
-5.90982e-07
-1.59258e-07
-5.35383e-07
-1.66993e-07
-4.78053e-07
-1.71963e-07
-4.19949e-07
-1.73959e-07
-3.62075e-07
-1.72807e-07
-3.05471e-07
-1.68386e-07
-2.51184e-07
-1.60635e-07
-2.00248e-07
-1.49579e-07
-1.53643e-07
-1.35343e-07
-1.12264e-07
-1.18194e-07
-7.68686e-08
-9.85763e-08
-4.80249e-08
-7.71761e-08
-2.60575e-08
-5.5007e-08
-1.09926e-08
-3.35115e-08
-2.52229e-09
-1.46952e-08
-1.51942e-09
-4.08966e-09
6.18297e-09
-1.6414e-08
2.84419e-08
-3.7001e-08
5.60046e-08
-6.57065e-08
8.57329e-08
-1.02165e-07
1.1544e-07
-1.45795e-07
1.43533e-07
-1.95828e-07
1.68892e-07
-2.51349e-07
1.9077e-07
-3.1134e-07
2.087e-07
-3.74715e-07
2.22426e-07
-4.40356e-07
2.31851e-07
-5.07143e-07
2.36995e-07
-5.73975e-07
2.37967e-07
-6.39789e-07
2.34941e-07
-7.03575e-07
2.28138e-07
-7.64383e-07
2.17812e-07
-8.21339e-07
2.04241e-07
-8.73641e-07
1.87722e-07
-9.20571e-07
1.68562e-07
-9.61496e-07
1.47077e-07
-9.95869e-07
1.23588e-07
-1.02323e-06
9.84228e-08
-1.04322e-06
7.19145e-08
-1.05556e-06
4.44015e-08
-1.06007e-06
1.62286e-08
-1.05667e-06
-1.22521e-08
-1.04537e-06
-4.06808e-08
-1.0263e-06
-6.86893e-08
-9.99662e-07
-9.59018e-08
-9.65791e-07
-1.21935e-07
-9.2511e-07
-1.464e-07
-8.78154e-07
-1.68907e-07
-8.25561e-07
-1.89065e-07
-7.68068e-07
-2.0649e-07
-7.06514e-07
-2.20812e-07
-6.41828e-07
-2.31679e-07
-5.75021e-07
-2.38771e-07
-5.07173e-07
-2.41806e-07
-4.39422e-07
-2.40558e-07
-3.72939e-07
-2.34869e-07
-3.08906e-07
-2.24669e-07
-2.48488e-07
-2.09996e-07
-1.92799e-07
-1.91032e-07
-1.42865e-07
-1.68129e-07
-9.95769e-08
-1.41864e-07
-6.36526e-08
-1.131e-07
-3.55939e-08
-8.30658e-08
-1.56581e-08
-5.34472e-08
-3.85574e-09
-2.64976e-08
-5.37516e-09
-5.38424e-09
1.15672e-08
-2.10351e-08
4.40927e-08
-4.65319e-08
8.15015e-08
-8.13803e-08
1.20581e-07
-1.24943e-07
1.59002e-07
-1.76424e-07
1.95014e-07
-2.34882e-07
2.2735e-07
-2.99253e-07
2.55141e-07
-3.68384e-07
2.77831e-07
-4.41066e-07
2.95108e-07
-5.16064e-07
3.06848e-07
-5.92142e-07
3.13073e-07
-6.68089e-07
3.13914e-07
-7.42735e-07
3.09588e-07
-8.14969e-07
3.00372e-07
-8.83747e-07
2.8659e-07
-9.48104e-07
2.68598e-07
-1.00716e-06
2.46776e-07
-1.06012e-06
2.21521e-07
-1.10628e-06
1.93241e-07
-1.14505e-06
1.62354e-07
-1.17591e-06
1.29285e-07
-1.19846e-06
9.44683e-08
-1.2124e-06
5.83438e-08
-1.21754e-06
2.13605e-08
-1.21377e-06
-1.60229e-08
-1.20111e-06
-5.33381e-08
-1.17969e-06
-9.01063e-08
-1.14975e-06
-1.25839e-07
-1.11165e-06
-1.60037e-07
-1.06585e-06
-1.92198e-07
-1.01295e-06
-2.21814e-07
-9.53631e-07
-2.4838e-07
-8.8872e-07
-2.714e-07
-8.19136e-07
-2.90396e-07
-7.45901e-07
-3.04914e-07
-6.70127e-07
-3.14544e-07
-5.93006e-07
-3.18927e-07
-5.1579e-07
-3.17774e-07
-4.39771e-07
-3.10888e-07
-3.66257e-07
-2.98182e-07
-2.96543e-07
-2.7971e-07
-2.31877e-07
-2.55698e-07
-1.73425e-07
-2.26581e-07
-1.22231e-07
-1.93058e-07
-7.91885e-08
-1.56143e-07
-4.50072e-08
-1.17247e-07
-2.02051e-08
-7.82493e-08
-5.12385e-09
-4.15788e-08
-1.0499e-08
-6.60577e-09
1.8173e-08
-2.54826e-08
6.29696e-08
-5.58099e-08
1.11829e-07
-9.6752e-08
1.61523e-07
-1.47389e-07
2.09639e-07
-2.06693e-07
2.54317e-07
-2.73527e-07
2.94184e-07
-3.46664e-07
3.28278e-07
-4.24808e-07
3.55975e-07
-5.06618e-07
3.76919e-07
-5.90742e-07
3.90972e-07
-6.75834e-07
3.98165e-07
-7.60579e-07
3.9866e-07
-8.43713e-07
3.92721e-07
-9.24032e-07
3.80691e-07
-1.00041e-06
3.62968e-07
-1.07181e-06
3.39993e-07
-1.13726e-06
3.12235e-07
-1.19593e-06
2.8019e-07
-1.24706e-06
2.44364e-07
-1.28998e-06
2.0528e-07
-1.32417e-06
1.63468e-07
-1.34917e-06
1.19469e-07
-1.36466e-06
7.38343e-08
-1.37042e-06
2.7124e-08
-1.36635e-06
-2.00888e-08
-1.35247e-06
-6.7219e-08
-1.32891e-06
-1.13669e-07
-1.29592e-06
-1.58827e-07
-1.25389e-06
-2.02074e-07
-1.20331e-06
-2.42779e-07
-1.14481e-06
-2.80311e-07
-1.07915e-06
-3.14039e-07
-1.0072e-06
-3.43346e-07
-9.29965e-07
-3.67635e-07
-8.48537e-07
-3.86343e-07
-7.64122e-07
-3.98959e-07
-6.78011e-07
-4.05038e-07
-5.91565e-07
-4.04221e-07
-5.06192e-07
-3.96262e-07
-4.23322e-07
-3.81052e-07
-3.44384e-07
-3.58649e-07
-2.70765e-07
-3.29316e-07
-2.03788e-07
-2.93559e-07
-1.44668e-07
-2.52177e-07
-9.4495e-08
-2.06316e-07
-5.42074e-08
-1.57535e-07
-2.45951e-08
-1.07862e-07
-6.32253e-09
-5.98514e-08
-1.68215e-08
-7.76528e-09
2.59383e-08
-2.97691e-08
8.49734e-08
-6.48377e-08
1.46897e-07
-1.11812e-07
2.08498e-07
-1.69489e-07
2.67316e-07
-2.36597e-07
3.21426e-07
-3.11793e-07
3.6938e-07
-3.93669e-07
4.10154e-07
-4.80773e-07
4.43079e-07
-5.7163e-07
4.67776e-07
-6.64763e-07
4.84105e-07
-7.58717e-07
4.92119e-07
-8.52079e-07
4.92022e-07
-9.43492e-07
4.84134e-07
-1.03167e-06
4.6887e-07
-1.11541e-06
4.46712e-07
-1.19361e-06
4.1819e-07
-1.26525e-06
3.83875e-07
-1.32942e-06
3.44361e-07
-1.38532e-06
3.00266e-07
-1.43226e-06
2.52219e-07
-1.46966e-06
2.00863e-07
-1.49704e-06
1.46853e-07
-1.51406e-06
9.08554e-08
-1.52049e-06
3.35494e-08
-1.51621e-06
-2.43719e-08
-1.50122e-06
-8.22001e-08
-1.47568e-06
-1.39212e-07
-1.43984e-06
-1.94667e-07
-1.3941e-06
-2.47815e-07
-1.33899e-06
-2.97893e-07
-1.27516e-06
-3.44134e-07
-1.20343e-06
-3.85776e-07
-1.12471e-06
-4.22068e-07
-1.04005e-06
-4.52287e-07
-9.50647e-07
-4.75749e-07
-8.57773e-07
-4.91833e-07
-7.62815e-07
-4.99995e-07
-6.67238e-07
-4.99798e-07
-5.72564e-07
-4.90936e-07
-4.80352e-07
-4.73264e-07
-3.92167e-07
-4.46834e-07
-3.09553e-07
-4.11931e-07
-2.33997e-07
-3.69115e-07
-1.66907e-07
-3.19267e-07
-1.09584e-07
-2.63639e-07
-6.32087e-08
-2.0391e-07
-2.88455e-08
-1.42225e-07
-7.46381e-09
-8.12331e-08
-2.42853e-08
-8.879e-09
3.48173e-08
-3.3932e-08
1.10026e-07
-7.36706e-08
1.86636e-07
-1.26631e-07
2.61458e-07
-1.91331e-07
3.32016e-07
-2.66251e-07
3.96345e-07
-3.49827e-07
4.52956e-07
-4.40463e-07
5.0079e-07
-5.3654e-07
5.39156e-07
-6.36436e-07
5.67672e-07
-7.38549e-07
5.86218e-07
-8.41311e-07
5.94881e-07
-9.43209e-07
5.93919e-07
-1.0428e-06
5.83724e-07
-1.13872e-06
5.64789e-07
-1.22969e-06
5.37689e-07
-1.31456e-06
5.03054e-07
-1.39224e-06
4.61561e-07
-1.4618e-06
4.13914e-07
-1.52237e-06
3.60841e-07
-1.57324e-06
3.03089e-07
-1.6138e-06
2.41417e-07
-1.64354e-06
1.76598e-07
-1.66211e-06
1.0942e-07
-1.66924e-06
4.06851e-08
-1.66482e-06
-2.87895e-08
-1.64886e-06
-9.81671e-08
-1.62148e-06
-1.66593e-07
-1.58295e-06
-2.33193e-07
-1.53369e-06
-2.97079e-07
-1.47423e-06
-3.57349e-07
-1.40527e-06
-4.13093e-07
-1.32764e-06
-4.63408e-07
-1.24231e-06
-5.07401e-07
-1.15038e-06
-5.44211e-07
-1.05311e-06
-5.73023e-07
-9.51848e-07
-5.93092e-07
-8.48077e-07
-6.03766e-07
-7.43362e-07
-6.04513e-07
-6.39343e-07
-5.94954e-07
-5.37712e-07
-5.74895e-07
-4.40182e-07
-5.44364e-07
-3.48461e-07
-5.03652e-07
-2.64222e-07
-4.53354e-07
-1.89077e-07
-3.94412e-07
-1.24553e-07
-3.28163e-07
-7.20832e-08
-2.5638e-07
-3.30015e-08
-1.81306e-07
-8.56597e-09
-1.05669e-07
-3.28513e-08
-9.96442e-09
4.47817e-08
-3.80196e-08
1.38082e-07
-8.23901e-08
2.31007e-07
-1.41323e-07
3.20391e-07
-2.13062e-07
4.03755e-07
-2.95834e-07
4.79117e-07
-3.87851e-07
5.44973e-07
-4.87313e-07
6.00252e-07
-5.92426e-07
6.44269e-07
-7.01417e-07
6.76663e-07
-8.12546e-07
6.97348e-07
-9.24132e-07
7.06467e-07
-1.03456e-06
7.04348e-07
-1.1423e-06
6.91464e-07
-1.24592e-06
6.68404e-07
-1.34407e-06
6.35843e-07
-1.43554e-06
5.94523e-07
-1.51921e-06
5.4523e-07
-1.59408e-06
4.88787e-07
-1.65928e-06
4.26041e-07
-1.71405e-06
3.57858e-07
-1.75775e-06
2.85118e-07
-1.78987e-06
2.08718e-07
-1.81002e-06
1.29568e-07
-1.81793e-06
4.85955e-08
-1.81347e-06
-3.32523e-08
-1.79663e-06
-1.15008e-07
-1.76754e-06
-1.95682e-07
-1.72647e-06
-2.74262e-07
-1.67383e-06
-3.49717e-07
-1.61018e-06
-4.20998e-07
-1.53623e-06
-4.87048e-07
-1.45282e-06
-5.46811e-07
-1.36098e-06
-5.99244e-07
-1.26185e-06
-6.43337e-07
-1.15675e-06
-6.78131e-07
-1.04709e-06
-7.02744e-07
-9.34463e-07
-7.16398e-07
-8.20522e-07
-7.18454e-07
-7.07037e-07
-7.0844e-07
-5.95836e-07
-6.86095e-07
-4.88793e-07
-6.51407e-07
-3.87794e-07
-6.04651e-07
-2.94711e-07
-5.46437e-07
-2.11375e-07
-4.77748e-07
-1.39553e-07
-3.99985e-07
-8.09331e-08
-3.14999e-07
-3.71214e-08
-2.25118e-07
-9.64924e-09
-1.33141e-07
-4.25006e-08
-1.10386e-08
5.58203e-08
-4.2083e-08
1.69126e-07
-9.10881e-08
2.80012e-07
-1.56022e-07
3.85325e-07
-2.34856e-07
4.82589e-07
-3.25563e-07
5.69824e-07
-4.26119e-07
6.45529e-07
-5.34517e-07
7.0865e-07
-6.48777e-07
7.58529e-07
-7.66962e-07
7.94848e-07
-8.87195e-07
8.17581e-07
-1.00767e-06
8.26945e-07
-1.12668e-06
8.23354e-07
-1.2426e-06
8.07382e-07
-1.35392e-06
7.79724e-07
-1.45925e-06
7.41171e-07
-1.5573e-06
6.92581e-07
-1.64694e-06
6.34864e-07
-1.72712e-06
5.68966e-07
-1.79693e-06
4.95858e-07
-1.8556e-06
4.16529e-07
-1.90247e-06
3.31986e-07
-1.937e-06
2.43249e-07
-1.95879e-06
1.51355e-07
-1.96755e-06
5.73587e-08
-1.96314e-06
-3.76629e-08
-1.94554e-06
-1.32609e-07
-1.91487e-06
-2.26353e-07
-1.87139e-06
-3.17741e-07
-1.81551e-06
-4.05595e-07
-1.7478e-06
-4.88714e-07
-1.66896e-06
-5.65886e-07
-1.57988e-06
-6.35895e-07
-1.48158e-06
-6.97537e-07
-1.37528e-06
-7.4964e-07
-1.26232e-06
-7.91088e-07
-1.14422e-06
-8.20846e-07
-1.02262e-06
-8.37995e-07
-8.99312e-07
-8.41765e-07
-7.76177e-07
-8.31576e-07
-6.55196e-07
-8.07076e-07
-5.38411e-07
-7.68191e-07
-4.27903e-07
-7.1516e-07
-3.25755e-07
-6.48585e-07
-2.34033e-07
-5.69471e-07
-1.54755e-07
-4.79263e-07
-8.98743e-08
-3.7988e-07
-4.12678e-08
-2.73725e-07
-1.07339e-08
-1.63675e-07
-5.32345e-08
-1.21174e-08
6.79377e-08
-4.61725e-08
2.03181e-07
-9.98581e-08
3.33697e-07
-1.70867e-07
4.56334e-07
-2.56898e-07
5.68621e-07
-3.55664e-07
6.6859e-07
-4.64902e-07
7.54766e-07
-5.82384e-07
8.26133e-07
-7.05937e-07
8.82082e-07
-8.33454e-07
9.22365e-07
-9.62913e-07
9.47039e-07
-1.09239e-06
9.56417e-07
-1.22005e-06
9.5102e-07
-1.34421e-06
9.31538e-07
-1.46327e-06
8.98791e-07
-1.5758e-06
8.53696e-07
-1.68046e-06
7.97242e-07
-1.77607e-06
7.3047e-07
-1.86156e-06
6.54457e-07
-1.936e-06
5.70302e-07
-1.9986e-06
4.79124e-07
-2.04867e-06
3.82055e-07
-2.08566e-06
2.80244e-07
-2.10916e-06
1.74852e-07
-2.11887e-06
6.70638e-08
-2.11461e-06
-4.1915e-08
-2.09637e-06
-1.5085e-07
-2.06425e-06
-2.58476e-07
-2.0185e-06
-3.63495e-07
-1.95951e-06
-4.64581e-07
-1.88785e-06
-5.60375e-07
-1.80423e-06
-6.49504e-07
-1.70954e-06
-7.30582e-07
-1.60485e-06
-8.02235e-07
-1.49137e-06
-8.63117e-07
-1.37052e-06
-9.11937e-07
-1.24387e-06
-9.4749e-07
-1.11317e-06
-9.68696e-07
-9.80305e-07
-9.74634e-07
-8.47292e-07
-9.64589e-07
-7.1627e-07
-9.38098e-07
-5.89464e-07
-8.94997e-07
-4.69157e-07
-8.35466e-07
-3.57664e-07
-7.60078e-07
-2.57298e-07
-6.69837e-07
-1.70343e-07
-5.66218e-07
-9.90271e-08
-4.51195e-07
-4.55042e-08
-3.27248e-07
-1.18395e-08
-1.97339e-07
-6.50739e-08
-1.32152e-08
8.11529e-08
-5.03355e-08
2.40301e-07
-1.0879e-07
3.92152e-07
-1.85995e-07
5.33538e-07
-2.7937e-07
6.61996e-07
-3.86364e-07
7.75583e-07
-5.04461e-07
8.72864e-07
-6.3121e-07
9.52881e-07
-7.64232e-07
1.0151e-06
-9.01244e-07
1.05938e-06
-1.04007e-06
1.08587e-06
-1.17866e-06
1.095e-06
-1.31508e-06
1.08744e-06
-1.44755e-06
1.06401e-06
-1.57441e-06
1.02566e-06
-1.69417e-06
9.73453e-07
-1.80546e-06
9.08528e-07
-1.90705e-06
8.32063e-07
-1.99786e-06
7.45273e-07
-2.07695e-06
6.49392e-07
-2.1435e-06
5.4567e-07
-2.19681e-06
4.35368e-07
-2.23633e-06
3.19761e-07
-2.26162e-06
2.00138e-07
-2.27236e-06
7.78086e-08
-2.26838e-06
-4.58927e-08
-2.24963e-06
-1.69599e-07
-2.2162e-06
-2.91908e-07
-2.16832e-06
-4.11378e-07
-2.10637e-06
-5.2653e-07
-2.0309e-06
-6.35847e-07
-1.94261e-06
-7.37787e-07
-1.84241e-06
-8.30788e-07
-1.73135e-06
-9.13292e-07
-1.6107e-06
-9.83764e-07
-1.48192e-06
-1.04072e-06
-1.34663e-06
-1.08278e-06
-1.20667e-06
-1.10866e-06
-1.06404e-06
-1.11727e-06
-9.20887e-07
-1.10774e-06
-7.79527e-07
-1.07946e-06
-6.42373e-07
-1.03215e-06
-5.11928e-07
-9.65912e-07
-3.9075e-07
-8.81255e-07
-2.81419e-07
-7.79167e-07
-1.865e-07
-6.61137e-07
-1.08511e-07
-5.29185e-07
-4.9892e-08
-3.85866e-07
-1.29844e-08
-2.34247e-07
-7.80583e-08
-1.43452e-08
9.54981e-08
-5.46157e-08
2.80572e-07
-1.17969e-07
4.55505e-07
-2.01533e-07
6.17103e-07
-3.02445e-07
7.62908e-07
-4.17873e-07
8.91011e-07
-5.45044e-07
1.00004e-06
-6.81268e-07
1.0891e-06
-8.23957e-07
1.15779e-06
-9.70641e-07
1.20606e-06
-1.11899e-06
1.23422e-06
-1.26681e-06
1.24283e-06
-1.41208e-06
1.23271e-06
-1.55293e-06
1.20485e-06
-1.68763e-06
1.16036e-06
-1.81464e-06
1.10046e-06
-1.93256e-06
1.02645e-06
-2.04014e-06
9.39643e-07
-2.13628e-06
8.41414e-07
-2.22002e-06
7.33133e-07
-2.29053e-06
6.16185e-07
-2.34713e-06
4.9196e-07
-2.38922e-06
3.61858e-07
-2.41638e-06
2.27293e-07
-2.42826e-06
8.96964e-08
-2.42469e-06
-4.94703e-08
-2.40557e-06
-1.88711e-07
-2.37099e-06
-3.2649e-07
-2.32115e-06
-4.61222e-07
-2.2564e-06
-5.91275e-07
-2.17728e-06
-7.14971e-07
-2.08447e-06
-8.30594e-07
-1.97886e-06
-9.36398e-07
-1.86152e-06
-1.03063e-06
-1.73373e-06
-1.11155e-06
-1.59698e-06
-1.17748e-06
-1.45296e-06
-1.22679e-06
-1.30359e-06
-1.25803e-06
-1.15098e-06
-1.26988e-06
-9.97425e-07
-1.26129e-06
-8.45405e-07
-1.23148e-06
-6.97542e-07
-1.18002e-06
-5.56573e-07
-1.10688e-06
-4.25318e-07
-1.01251e-06
-3.06641e-07
-8.97844e-07
-2.03407e-07
-7.64371e-07
-1.18441e-07
-6.14151e-07
-5.44903e-08
-4.49817e-07
-1.41859e-08
-2.74552e-07
-9.22441e-08
-1.55189e-08
1.11017e-07
-5.90527e-08
3.24106e-07
-1.27471e-07
5.23923e-07
-2.17601e-07
7.07233e-07
-3.2628e-07
8.71587e-07
-4.50385e-07
1.01512e-06
-5.86872e-07
1.13652e-06
-7.32801e-07
1.23503e-06
-8.85362e-07
1.31035e-06
-1.0419e-06
1.3626e-06
-1.19991e-06
1.39223e-06
-1.35708e-06
1.4e-06
-1.51127e-06
1.3869e-06
-1.66053e-06
1.35411e-06
-1.80308e-06
1.30291e-06
-1.93733e-06
1.23471e-06
-2.06185e-06
1.15097e-06
-2.17539e-06
1.05318e-06
-2.27682e-06
9.42848e-07
-2.36519e-06
8.21504e-07
-2.43967e-06
6.90664e-07
-2.49956e-06
5.51847e-07
-2.54428e-06
4.06578e-07
-2.57338e-06
2.56389e-07
-2.58651e-06
1.02832e-07
-2.58347e-06
-5.25124e-08
-2.56416e-06
-2.08025e-07
-2.52861e-06
-3.62037e-07
-2.477e-06
-5.12826e-07
-2.40967e-06
-6.58609e-07
-2.3271e-06
-7.97545e-07
-2.22995e-06
-9.27738e-07
-2.1191e-06
-1.04725e-06
-1.9956e-06
-1.15413e-06
-1.86074e-06
-1.24641e-06
-1.71603e-06
-1.32218e-06
-1.56323e-06
-1.37959e-06
-1.40433e-06
-1.41694e-06
-1.24154e-06
-1.43267e-06
-1.07731e-06
-1.42552e-06
-9.14298e-07
-1.39449e-06
-7.55341e-07
-1.33897e-06
-6.03427e-07
-1.25879e-06
-4.61656e-07
-1.15428e-06
-3.33195e-07
-1.02631e-06
-2.21233e-07
-8.76333e-07
-1.28928e-07
-7.06456e-07
-5.93548e-08
-5.1939e-07
-1.54603e-08
-3.18446e-07
-1.07704e-07
-1.67469e-08
1.27764e-07
-6.36823e-08
3.71041e-07
-1.37366e-07
5.97607e-07
-2.34305e-07
8.04173e-07
-3.51017e-07
9.88298e-07
-4.84071e-07
1.14817e-06
-6.30135e-07
1.28259e-06
-7.86008e-07
1.39091e-06
-9.48649e-07
1.47299e-06
-1.1152e-06
1.52915e-06
-1.28299e-06
1.56002e-06
-1.44959e-06
1.56659e-06
-1.61273e-06
1.55005e-06
-1.77039e-06
1.51177e-06
-1.92075e-06
1.45327e-06
-2.06218e-06
1.37614e-06
-2.19323e-06
1.28202e-06
-2.31263e-06
1.17258e-06
-2.41928e-06
1.0495e-06
-2.51221e-06
9.14437e-07
-2.59061e-06
7.69062e-07
-2.65378e-06
6.15016e-07
-2.70114e-06
4.53943e-07
-2.73224e-06
2.87489e-07
-2.74673e-06
1.17319e-07
-2.74436e-06
-5.48754e-08
-2.72503e-06
-2.27357e-07
-2.68873e-06
-3.98335e-07
-2.63561e-06
-5.65952e-07
-2.56594e-06
-7.28277e-07
-2.48018e-06
-8.83308e-07
-2.37895e-06
-1.02897e-06
-2.26307e-06
-1.16312e-06
-2.13361e-06
-1.2836e-06
-1.99182e-06
-1.3882e-06
-1.83924e-06
-1.47476e-06
-1.67766e-06
-1.54117e-06
-1.50914e-06
-1.58545e-06
-1.33602e-06
-1.6058e-06
-1.16087e-06
-1.60067e-06
-9.86543e-07
-1.56881e-06
-8.16102e-07
-1.50941e-06
-6.52798e-07
-1.4221e-06
-5.0003e-07
-1.30705e-06
-3.61298e-07
-1.16504e-06
-2.4014e-07
-9.97491e-07
-1.40075e-07
-8.06521e-07
-6.45385e-08
-5.94927e-07
-1.68229e-08
-3.66162e-07
-1.24527e-07
-1.80385e-08
1.45802e-07
-6.85369e-08
4.21539e-07
-1.47718e-07
6.76788e-07
-2.51741e-07
9.08196e-07
-3.7678e-07
1.11334e-06
-5.19077e-07
1.29047e-06
-6.74992e-07
1.4385e-06
-8.41047e-07
1.55696e-06
-1.01396e-06
1.64591e-06
-1.19066e-06
1.70585e-06
-1.36832e-06
1.73769e-06
-1.54435e-06
1.74263e-06
-1.71642e-06
1.72211e-06
-1.88241e-06
1.67777e-06
-2.04046e-06
1.61132e-06
-2.18892e-06
1.52459e-06
-2.32634e-06
1.41943e-06
-2.45145e-06
1.29769e-06
-2.56315e-06
1.1612e-06
-2.66052e-06
1.0118e-06
-2.74273e-06
8.51279e-07
-2.80912e-06
6.81407e-07
-2.85912e-06
5.0394e-07
-2.89226e-06
3.20633e-07
-2.9082e-06
1.33251e-07
-2.90666e-06
-5.64095e-08
-2.88751e-06
-2.46507e-07
-2.85071e-06
-4.35134e-07
-2.79636e-06
-6.2031e-07
-2.72467e-06
-7.99963e-07
-2.63605e-06
-9.71929e-07
-2.53107e-06
-1.13395e-06
-2.4105e-06
-1.2837e-06
-2.27534e-06
-1.41875e-06
-2.12686e-06
-1.53668e-06
-1.96658e-06
-1.63504e-06
-1.79631e-06
-1.71144e-06
-1.61818e-06
-1.76358e-06
-1.43462e-06
-1.78937e-06
-1.24835e-06
-1.78693e-06
-1.06241e-06
-1.75475e-06
-8.80103e-07
-1.69172e-06
-7.04952e-07
-1.59725e-06
-5.40684e-07
-1.47132e-06
-3.91153e-07
-1.31457e-06
-2.6028e-07
-1.12836e-06
-1.51981e-07
-9.1482e-07
-7.00915e-08
-6.76816e-07
-1.82882e-08
-4.17965e-07
-1.42815e-07
-1.94025e-08
1.65205e-07
-7.36462e-08
4.75783e-07
-1.58583e-07
7.61724e-07
-2.69993e-07
1.01961e-06
-4.03679e-07
1.24702e-06
-5.55525e-07
1.44231e-06
-7.21565e-07
1.60454e-06
-8.98026e-07
1.73342e-06
-1.08137e-06
1.82925e-06
-1.26831e-06
1.89279e-06
-1.45586e-06
1.92523e-06
-1.64128e-06
1.92805e-06
-1.82215e-06
1.90298e-06
-1.9963e-06
1.85192e-06
-2.16183e-06
1.77685e-06
-2.31708e-06
1.67984e-06
-2.4606e-06
1.56295e-06
-2.59116e-06
1.42824e-06
-2.70768e-06
1.27772e-06
-2.80926e-06
1.11338e-06
-2.89512e-06
9.37143e-07
-2.96462e-06
7.50898e-07
-3.01719e-06
5.5651e-07
-3.05238e-06
3.55829e-07
-3.06984e-06
1.5071e-07
-3.06929e-06
-5.69608e-08
-3.05055e-06
-2.65249e-07
-3.01354e-06
-4.72146e-07
-2.95829e-06
-6.75556e-07
-2.88498e-06
-8.73276e-07
-2.79392e-06
-1.06299e-06
-2.68562e-06
-1.24226e-06
-2.56077e-06
-1.40854e-06
-2.42034e-06
-1.55919e-06
-2.26552e-06
-1.6915e-06
-2.09782e-06
-1.80274e-06
-1.91907e-06
-1.89019e-06
-1.73143e-06
-1.95122e-06
-1.53741e-06
-1.98338e-06
-1.3399e-06
-1.98444e-06
-1.1421e-06
-1.95255e-06
-9.47567e-07
-1.88626e-06
-7.6012e-07
-1.7847e-06
-5.83831e-07
-1.64761e-06
-4.22941e-07
-1.47546e-06
-2.81792e-07
-1.26951e-06
-1.6474e-07
-1.03187e-06
-7.60618e-08
-7.65494e-07
-1.98703e-08
-4.74156e-07
-1.62686e-07
-2.0847e-08
1.86052e-07
-7.9038e-08
5.33974e-07
-1.70014e-07
8.527e-07
-2.89139e-07
1.13873e-06
-4.31806e-07
1.38969e-06
-5.93515e-07
1.60402e-06
-7.69945e-07
1.78097e-06
-9.57008e-07
1.92049e-06
-1.1509e-06
2.02314e-06
-1.34811e-06
2.09001e-06
-1.54547e-06
2.12259e-06
-1.74014e-06
2.12272e-06
-1.92959e-06
2.09243e-06
-2.11161e-06
2.03393e-06
-2.28427e-06
1.94952e-06
-2.44593e-06
1.8415e-06
-2.59518e-06
1.7122e-06
-2.7308e-06
1.56386e-06
-2.85178e-06
1.3987e-06
-2.95725e-06
1.21886e-06
-3.0465e-06
1.02639e-06
-3.11889e-06
8.23293e-07
-3.17392e-06
6.11535e-07
-3.21113e-06
3.93046e-07
-3.23018e-06
1.69756e-07
-3.23076e-06
-5.6376e-08
-3.21267e-06
-2.83338e-07
-3.17578e-06
-5.09039e-07
-3.12006e-06
-7.3128e-07
-3.04559e-06
-9.47741e-07
-2.95262e-06
-1.15596e-06
-2.84155e-06
-1.35333e-06
-2.713e-06
-1.53709e-06
-2.56782e-06
-1.70436e-06
-2.40717e-06
-1.85216e-06
-2.23249e-06
-1.97742e-06
-2.0456e-06
-2.07708e-06
-1.84868e-06
-2.14814e-06
-1.64433e-06
-2.18773e-06
-1.43554e-06
-2.19324e-06
-1.22572e-06
-2.16237e-06
-1.01865e-06
-2.09333e-06
-8.18484e-07
-1.98486e-06
-6.29656e-07
-1.83643e-06
-4.5683e-07
-1.64828e-06
-3.04809e-07
-1.42153e-06
-1.78439e-07
-1.15824e-06
-8.24957e-08
-8.61437e-07
-2.15829e-08
-5.35069e-07
-1.84269e-07
-2.23802e-08
2.08432e-07
-8.47391e-08
5.96333e-07
-1.82061e-07
9.50021e-07
-3.09248e-07
1.26592e-06
-4.61244e-07
1.54168e-06
-6.33125e-07
1.7759e-06
-8.20186e-07
1.96803e-06
-1.018e-06
2.1183e-06
-1.22249e-06
2.22762e-06
-1.42991e-06
2.29743e-06
-1.63692e-06
2.3296e-06
-1.84055e-06
2.32635e-06
-2.03821e-06
2.29009e-06
-2.22765e-06
2.22338e-06
-2.40696e-06
2.12883e-06
-2.57451e-06
2.00905e-06
-2.72893e-06
1.86662e-06
-2.86908e-06
1.70402e-06
-2.99402e-06
1.52364e-06
-3.10294e-06
1.32778e-06
-3.19519e-06
1.11863e-06
-3.2702e-06
8.983e-07
-3.32748e-06
6.68822e-07
-3.36664e-06
4.32199e-07
-3.3873e-06
1.90419e-07
-3.38917e-06
-5.45068e-08
-3.372e-06
-3.0051e-07
-3.3356e-06
-5.45434e-07
-3.27988e-06
-7.87002e-07
-3.20483e-06
-1.02279e-06
-3.11058e-06
-1.2502e-06
-2.99744e-06
-1.46647e-06
-2.8659e-06
-1.66863e-06
-2.7167e-06
-1.85356e-06
-2.55089e-06
-2.01796e-06
-2.36985e-06
-2.15846e-06
-2.17535e-06
-2.27159e-06
-1.96956e-06
-2.35393e-06
-1.75513e-06
-2.40216e-06
-1.53517e-06
-2.4132e-06
-1.31326e-06
-2.38428e-06
-1.09344e-06
-2.31315e-06
-8.80178e-07
-2.19812e-06
-6.78312e-07
-2.0383e-06
-4.92966e-07
-1.83363e-06
-3.29453e-07
-1.58505e-06
-1.93164e-07
-1.29453e-06
-8.94386e-08
-9.65162e-07
-2.34396e-08
-6.01068e-07
-2.07708e-07
-2.40103e-08
2.32442e-07
-9.07773e-08
6.631e-07
-1.94774e-07
1.05402e-06
-3.30389e-07
1.40153e-06
-4.92065e-07
1.70336e-06
-6.74416e-07
1.95825e-06
-8.72315e-07
2.16593e-06
-1.08098e-06
2.32697e-06
-1.29602e-06
2.44266e-06
-1.51347e-06
2.51488e-06
-1.72982e-06
2.54595e-06
-1.94198e-06
2.53852e-06
-2.14732e-06
2.49542e-06
-2.34356e-06
2.41962e-06
-2.52882e-06
2.31409e-06
-2.70154e-06
2.18176e-06
-2.86041e-06
2.02549e-06
-3.00439e-06
1.84799e-06
-3.13261e-06
1.65187e-06
-3.24439e-06
1.43956e-06
-3.33913e-06
1.21337e-06
-3.41634e-06
9.75514e-07
-3.4756e-06
7.28087e-07
-3.51654e-06
4.73137e-07
-3.53881e-06
2.12689e-07
-3.5421e-06
-5.12163e-08
-3.52613e-06
-3.16481e-07
-3.49066e-06
-5.80909e-07
-3.4355e-06
-8.42166e-07
-3.36054e-06
-1.09775e-06
-3.2658e-06
-1.34495e-06
-3.15143e-06
-1.58084e-06
-3.01779e-06
-1.80227e-06
-2.86548e-06
-2.00586e-06
-2.69542e-06
-2.18803e-06
-2.50886e-06
-2.34502e-06
-2.30749e-06
-2.47296e-06
-2.09345e-06
-2.56796e-06
-1.8694e-06
-2.62621e-06
-1.63854e-06
-2.64406e-06
-1.40462e-06
-2.6182e-06
-1.17193e-06
-2.54584e-06
-9.45281e-07
-2.42478e-06
-7.29921e-07
-2.25366e-06
-5.3148e-07
-2.03207e-06
-3.55838e-07
-1.76069e-06
-2.08998e-07
-1.44137e-06
-9.6936e-08
-1.07722e-06
-2.54545e-08
-6.7255e-07
-2.33163e-07
-2.57466e-08
2.58189e-07
-9.71822e-08
7.34536e-07
-2.08207e-07
1.16504e-06
-3.52631e-07
1.54596e-06
-5.24342e-07
1.87507e-06
-7.17435e-07
2.15135e-06
-9.26329e-07
2.37483e-06
-1.14585e-06
2.54649e-06
-1.37129e-06
2.6681e-06
-1.59846e-06
2.74205e-06
-1.82367e-06
2.77116e-06
-2.04375e-06
2.75859e-06
-2.25601e-06
2.70768e-06
-2.45821e-06
2.62182e-06
-2.64852e-06
2.5044e-06
-2.82546e-06
2.3587e-06
-2.98783e-06
2.18787e-06
-3.13472e-06
1.99488e-06
-3.26538e-06
1.78253e-06
-3.37923e-06
1.5534e-06
-3.47579e-06
1.30994e-06
-3.55467e-06
1.0544e-06
-3.61552e-06
7.88939e-07
-3.65802e-06
5.15632e-07
-3.68184e-06
2.3651e-07
-3.68667e-06
-4.63865e-08
-3.67219e-06
-3.30956e-07
-3.63811e-06
-6.14992e-07
-3.58414e-06
-8.96134e-07
-3.51007e-06
-1.17182e-06
-3.41575e-06
-1.43927e-06
-3.30118e-06
-1.6954e-06
-3.16655e-06
-1.9369e-06
-3.01228e-06
-2.16014e-06
-2.8391e-06
-2.36121e-06
-2.64811e-06
-2.536e-06
-2.44087e-06
-2.68019e-06
-2.21946e-06
-2.78938e-06
-1.98649e-06
-2.85917e-06
-1.74524e-06
-2.88531e-06
-1.49958e-06
-2.86386e-06
-1.25405e-06
-2.79136e-06
-1.01381e-06
-2.66502e-06
-7.84568e-07
-2.48291e-06
-5.72486e-07
-2.24415e-06
-3.84074e-07
-1.9491e-06
-2.26023e-07
-1.59942e-06
-1.05035e-07
-1.19821e-06
-2.7642e-08
-7.49943e-07
-2.60805e-07
-2.75998e-08
2.85789e-07
-1.03988e-07
8.10924e-07
-2.22419e-07
1.28347e-06
-3.7605e-07
1.69959e-06
-5.58145e-07
2.05717e-06
-7.62224e-07
2.35543e-06
-9.82202e-07
2.5948e-06
-1.21249e-06
2.77677e-06
-1.44804e-06
2.90366e-06
-1.68443e-06
2.97843e-06
-1.91781e-06
3.00455e-06
-2.14495e-06
2.98573e-06
-2.36315e-06
2.92588e-06
-2.57021e-06
2.82889e-06
-2.7644e-06
2.69859e-06
-2.94436e-06
2.53866e-06
-3.10905e-06
2.35255e-06
-3.25769e-06
2.14352e-06
-3.3897e-06
1.91453e-06
-3.50464e-06
1.66835e-06
-3.60218e-06
1.40748e-06
-3.68204e-06
1.13426e-06