/*--------------------------------*- C++ -*----------------------------------*\
  =========                 |
  \\      /  F ield         | OpenFOAM: The Open Source CFD Toolbox
   \\    /   O peration     | Website:  https://openfoam.org
    \\  /    A nd           | Version:  7
     \\/     M anipulation  |
\*---------------------------------------------------------------------------*/
FoamFile
{
    version     2.0;
    format      ascii;
    class       volVectorField;
    location    "0.0308";
    object      U;
}
// * * * * * * * * * * * * * * * * * * * * * * * * * * * * * * * * * * * * * //

dimensions      [0 1 -1 0 0 0 0];

internalField   nonuniform List<vector> 
2500
(
(2.55221e-05 -2.54086e-05 0)
(7.28165e-05 -2.81751e-05 0)
(9.03891e-05 -1.07335e-05 0)
(4.87014e-05 1.24241e-05 0)
(-6.04574e-05 3.50357e-05 0)
(-0.000233849 5.56164e-05 0)
(-0.000463618 7.30273e-05 0)
(-0.000741535 8.71126e-05 0)
(-0.00105848 9.80166e-05 0)
(-0.00140532 0.000105949 0)
(-0.00177326 0.000111137 0)
(-0.00215398 0.000113808 0)
(-0.0025397 0.000114185 0)
(-0.00292323 0.000112482 0)
(-0.00329799 0.000108904 0)
(-0.00365797 0.000103644 0)
(-0.00399778 9.68862e-05 0)
(-0.00431259 8.88032e-05 0)
(-0.0045981 7.95595e-05 0)
(-0.0048506 6.93106e-05 0)
(-0.00506686 5.82052e-05 0)
(-0.00524417 4.63863e-05 0)
(-0.00538031 3.39935e-05 0)
(-0.00547354 2.11646e-05 0)
(-0.00552262 8.03781e-06 0)
(-0.00552679 -5.2463e-06 0)
(-0.00548581 -1.8543e-05 0)
(-0.00539993 -3.17016e-05 0)
(-0.00526995 -4.45641e-05 0)
(-0.00509723 -5.6964e-05 0)
(-0.00488372 -6.87262e-05 0)
(-0.00463196 -7.96661e-05 0)
(-0.00434515 -8.95905e-05 0)
(-0.00402711 -9.82984e-05 0)
(-0.00368235 -0.000105582 0)
(-0.00331605 -0.000111231 0)
(-0.00293408 -0.000115029 0)
(-0.00254294 -0.000116762 0)
(-0.00214981 -0.000116218 0)
(-0.00176243 -0.000113189 0)
(-0.0013891 -0.000107476 0)
(-0.00103857 -9.88887e-05 0)
(-0.000719926 -8.72577e-05 0)
(-0.000442386 -7.24474e-05 0)
(-0.000214961 -5.44104e-05 0)
(-4.56485e-05 -3.33964e-05 0)
(5.85871e-05 -1.0508e-05 0)
(9.54371e-05 1.24233e-05 0)
(7.40423e-05 2.9088e-05 0)
(2.54049e-05 2.53485e-05 0)
(2.85883e-05 -7.28076e-05 0)
(5.40657e-05 -5.30635e-05 0)
(-1.44815e-05 4.08267e-05 0)
(-0.000221008 0.000160574 0)
(-0.000580838 0.000282717 0)
(-0.0010909 0.000396813 0)
(-0.00173809 0.000496826 0)
(-0.00250444 0.000580334 0)
(-0.00336919 0.000646652 0)
(-0.00431055 0.000695939 0)
(-0.00530668 0.000728817 0)
(-0.00633634 0.00074617 0)
(-0.00737931 0.000749027 0)
(-0.00841658 0.000738492 0)
(-0.00943055 0.000715698 0)
(-0.010405 0.000681783 0)
(-0.0113253 0.000637867 0)
(-0.0121783 0.000585044 0)
(-0.0129521 0.000524377 0)
(-0.0136365 0.000456898 0)
(-0.0142227 0.000383609 0)
(-0.0147031 0.000305489 0)
(-0.0150718 0.0002235 0)
(-0.0153238 0.000138601 0)
(-0.0154558 5.17523e-05 0)
(-0.0154659 -3.60702e-05 0)
(-0.0153534 -0.000123866 0)
(-0.0151191 -0.000210603 0)
(-0.0147654 -0.000295208 0)
(-0.0142961 -0.000376562 0)
(-0.0137167 -0.000453503 0)
(-0.0130342 -0.000524819 0)
(-0.0122575 -0.000589262 0)
(-0.0113971 -0.000645549 0)
(-0.0104651 -0.000692378 0)
(-0.00947582 -0.000728445 0)
(-0.00844483 -0.000752464 0)
(-0.00738959 -0.000763192 0)
(-0.00632904 -0.000759458 0)
(-0.00528352 -0.000740205 0)
(-0.00427446 -0.000704536 0)
(-0.00332406 -0.000651789 0)
(-0.0024548 -0.000581648 0)
(-0.00168871 -0.000494342 0)
(-0.00104625 -0.000391014 0)
(-0.000544596 -0.000274553 0)
(-0.000195366 -0.000151291 0)
(1.26639e-07 -3.24123e-05 0)
(5.95112e-05 5.85315e-05 0)
(2.94427e-05 7.40785e-05 0)
(1.2048e-05 -9.17792e-05 0)
(-3.69332e-05 1.44251e-05 0)
(-0.00025449 0.000259395 0)
(-0.000674398 0.000559041 0)
(-0.00131005 0.000867687 0)
(-0.00215757 0.00115919 0)
(-0.00320039 0.00141856 0)
(-0.00441425 0.00163806 0)
(-0.00577051 0.00181428 0)
(-0.00723827 0.00194635 0)
(-0.00878598 0.00203499 0)
(-0.0103824 0.00208189 0)
(-0.0119975 0.00208935 0)
(-0.0136027 0.00206003 0)
(-0.0151712 0.00199679 0)
(-0.0166783 0.0019026 0)
(-0.0181016 0.00178044 0)
(-0.0194206 0.00163329 0)
(-0.0206172 0.00146408 0)
(-0.0216755 0.00127567 0)
(-0.0225818 0.00107088 0)
(-0.0233244 0.000852483 0)
(-0.0238938 0.000623203 0)
(-0.0242827 0.00038577 0)
(-0.024486 0.000142925 0)
(-0.0245005 -0.000102554 0)
(-0.0243253 -0.000347826 0)
(-0.023962 -0.000589963 0)
(-0.0234141 -0.000825939 0)
(-0.0226877 -0.00105262 0)
(-0.0217914 -0.00126675 0)
(-0.0207362 -0.00146497 0)
(-0.0195357 -0.00164384 0)
(-0.0182063 -0.00179984 0)
(-0.0167668 -0.00192945 0)
(-0.0152388 -0.00202917 0)
(-0.0136462 -0.00209557 0)
(-0.0120156 -0.00212545 0)
(-0.0103755 -0.00211584 0)
(-0.00875638 -0.00206422 0)
(-0.00718998 -0.00196864 0)
(-0.00570889 -0.00182796 0)
(-0.00434559 -0.00164224 0)
(-0.00313131 -0.00141329 0)
(-0.00209434 -0.00114561 0)
(-0.00125784 -0.000848069 0)
(-0.000636578 -0.000536681 0)
(-0.00023208 -0.00023856 0)
(-2.77848e-05 3.61268e-07 0)
(1.38155e-05 9.68402e-05 0)
(-9.93247e-06 -5.36225e-05 0)
(-0.000153557 0.000217368 0)
(-0.000550415 0.000678174 0)
(-0.00121034 0.00121726 0)
(-0.00213762 0.00176853 0)
(-0.00332471 0.0022903 0)
(-0.00475079 0.0027571 0)
(-0.0063863 0.00315441 0)
(-0.0081964 0.00347487 0)
(-0.0101432 0.00371578 0)
(-0.0121878 0.00387744 0)
(-0.0142909 0.00396219 0)
(-0.0164147 0.00397368 0)
(-0.0185228 0.00391643 0)
(-0.0205809 0.00379544 0)
(-0.0225574 0.00361606 0)
(-0.0244231 0.00338374 0)
(-0.0261517 0.003104 0)
(-0.0277195 0.00278229 0)
(-0.0291057 0.00242405 0)
(-0.0302926 0.0020346 0)
(-0.0312648 0.00161922 0)
(-0.03201 0.00118314 0)
(-0.0325187 0.000731585 0)
(-0.0327842 0.000269804 0)
(-0.0328024 -0.000196873 0)
(-0.0325722 -0.000663005 0)
(-0.0320957 -0.001123 0)
(-0.0313776 -0.00157109 0)
(-0.030426 -0.00200132 0)
(-0.0292521 -0.00240753 0)
(-0.0278703 -0.00278338 0)
(-0.0262984 -0.00312243 0)
(-0.0245575 -0.00341809 0)
(-0.0226722 -0.00366383 0)
(-0.0206702 -0.0038532 0)
(-0.0185826 -0.00397998 0)
(-0.0164431 -0.00403839 0)
(-0.0142883 -0.00402325 0)
(-0.0121567 -0.00393028 0)
(-0.0100885 -0.00375644 0)
(-0.00812439 -0.00350039 0)
(-0.0063046 -0.00316316 0)
(-0.00466746 -0.00274914 0)
(-0.00324749 -0.00226753 0)
(-0.00207302 -0.00173479 0)
(-0.00116284 -0.00117821 0)
(-0.000521726 -0.000640983 0)
(-0.000141576 -0.000189928 0)
(-7.57219e-06 6.39793e-05 0)
(-3.15363e-05 5.01937e-05 0)
(-0.000274887 0.000573378 0)
(-0.000863254 0.00131506 0)
(-0.00177523 0.00214637 0)
(-0.00300161 0.00298534 0)
(-0.0045285 0.00377698 0)
(-0.0063294 0.00448576 0)
(-0.00836919 0.00509016 0)
(-0.0106074 0.00557838 0)
(-0.0130002 0.00594532 0)
(-0.0155024 0.00619055 0)
(-0.0180686 0.00631684 0)
(-0.0206542 0.00632921 0)
(-0.0232166 0.00623411 0)
(-0.0257153 0.00603902 0)
(-0.0281129 0.00575199 0)
(-0.0303745 0.00538139 0)
(-0.0324688 0.00493575 0)
(-0.0343675 0.00442363 0)
(-0.0360459 0.00385355 0)
(-0.0374825 0.00323393 0)
(-0.038659 0.00257315 0)
(-0.0395607 0.00187953 0)
(-0.040176 0.00116139 0)
(-0.040497 0.000427107 0)
(-0.0405188 -0.000314822 0)
(-0.0402403 -0.00105573 0)
(-0.0396637 -0.00178672 0)
(-0.038795 -0.00249864 0)
(-0.0376437 -0.00318204 0)
(-0.0362234 -0.00382721 0)
(-0.0345513 -0.00442418 0)
(-0.0326487 -0.00496279 0)
(-0.030541 -0.00543281 0)
(-0.0282572 -0.00582403 0)
(-0.0258304 -0.0061265 0)
(-0.0232975 -0.00633072 0)
(-0.0206983 -0.00642792 0)
(-0.0180761 -0.00641041 0)
(-0.015476 -0.00627203 0)
(-0.012945 -0.00600869 0)
(-0.0105306 -0.00561908 0)
(-0.00827944 -0.00510565 0)
(-0.00623607 -0.00447595 0)
(-0.00444069 -0.00374455 0)
(-0.00292718 -0.00293583 0)
(-0.00171983 -0.00208805 0)
(-0.000829479 -0.00125849 0)
(-0.000260937 -0.000530515 0)
(-2.89621e-05 -3.29133e-05 0)
(-5.17921e-05 0.000218295 0)
(-0.000393207 0.00108513 0)
(-0.00117381 0.00217596 0)
(-0.00234004 0.00335261 0)
(-0.00386677 0.00452194 0)
(-0.00573158 0.00561848 0)
(-0.0079008 0.00659805 0)
(-0.010333 0.00743268 0)
(-0.0129819 0.00810622 0)
(-0.0157981 0.00861111 0)
(-0.0187309 0.00894603 0)
(-0.0217293 0.00911415 0)
(-0.0247432 0.00912185 0)
(-0.0277246 0.0089777 0)
(-0.030628 0.00869181 0)
(-0.0334106 0.00827525 0)
(-0.0360333 0.00773968 0)
(-0.0384604 0.00709707 0)
(-0.0406598 0.00635948 0)
(-0.0426032 0.00553901 0)
(-0.044266 0.00464768 0)
(-0.0456277 0.00369743 0)
(-0.0466713 0.0027002 0)
(-0.0473836 0.00166792 0)
(-0.0477555 0.000612619 0)
(-0.0477815 -0.000453521 0)
(-0.0474603 -0.00151807 0)
(-0.0467945 -0.00256827 0)
(-0.0457907 -0.00359103 0)
(-0.04446 -0.00457287 0)
(-0.0428177 -0.00549993 0)
(-0.0408834 -0.00635803 0)
(-0.0386814 -0.00713278 0)
(-0.0362404 -0.0078097 0)
(-0.0335935 -0.00837443 0)
(-0.0307781 -0.00881302 0)
(-0.027836 -0.00911224 0)
(-0.0248124 -0.00926 0)
(-0.0217558 -0.00924586 0)
(-0.0187173 -0.00906163 0)
(-0.0157499 -0.00870215 0)
(-0.0129067 -0.00816624 0)
(-0.0102406 -0.00745794 0)
(-0.00780172 -0.00658814 0)
(-0.00563633 -0.00557676 0)
(-0.00378467 -0.00445573 0)
(-0.00227807 -0.00327304 0)
(-0.00113553 -0.00209743 0)
(-0.000377142 -0.00102436 0)
(-4.87372e-05 -0.000192686 0)
(-7.00044e-05 0.000446058 0)
(-0.000504972 0.00174859 0)
(-0.00147355 0.00325889 0)
(-0.00289106 0.00483503 0)
(-0.00471573 0.00637682 0)
(-0.00691529 0.00781118 0)
(-0.00944768 0.00908711 0)
(-0.0122643 0.0101712 0)
(-0.0153126 0.0110435 0)
(-0.0185376 0.0116943 0)
(-0.0218831 0.0121216 0)
(-0.0252929 0.012329 0)
(-0.0287122 0.0123244 0)
(-0.0320882 0.0121187 0)
(-0.0353707 0.0117248 0)
(-0.0385129 0.0111572 0)
(-0.0414716 0.010431 0)
(-0.0442076 0.009562 0)
(-0.0466854 0.00856621 0)
(-0.048874 0.00745967 0)
(-0.0507462 0.00625837 0)
(-0.0522791 0.00497829 0)
(-0.0534542 0.00363536 0)
(-0.0542568 0.00224558 0)
(-0.0546768 0.000825034 0)
(-0.0547082 -0.000609944 0)
(-0.0543493 -0.00204271 0)
(-0.053603 -0.00345622 0)
(-0.0524767 -0.00483296 0)
(-0.0509823 -0.00615492 0)
(-0.0491366 -0.00740365 0)
(-0.0469614 -0.00856025 0)
(-0.0444832 -0.00960562 0)
(-0.0417336 -0.0105205 0)
(-0.0387491 -0.011286 0)
(-0.0355708 -0.0118838 0)
(-0.0322446 -0.0122963 0)
(-0.0288203 -0.012508 0)
(-0.0253513 -0.0125054 0)
(-0.021894 -0.0122779 0)
(-0.0185064 -0.0118193 0)
(-0.0152476 -0.0111283 0)
(-0.0121761 -0.0102106 0)
(-0.00934807 -0.00908014 0)
(-0.00681633 -0.00776173 0)
(-0.00462839 -0.00629399 0)
(-0.00282389 -0.00473301 0)
(-0.00143139 -0.00315644 0)
(-0.000486948 -0.00166798 0)
(-6.64731e-05 -0.000411349 0)
(-8.63718e-05 0.000729703 0)
(-0.000609896 0.00255791 0)
(-0.00176042 0.00455861 0)
(-0.00342419 0.00658946 0)
(-0.00554298 0.00854627 0)
(-0.00807395 0.0103509 0)
(-0.0109658 0.0119473 0)
(-0.014162 0.0132979 0)
(-0.0176032 0.0143799 0)
(-0.0212283 0.015182 0)
(-0.0249756 0.0157017 0)
(-0.0287842 0.0159437 0)
(-0.0325943 0.0159174 0)
(-0.0363489 0.0156365 0)
(-0.0399937 0.0151168 0)
(-0.0434783 0.0143765 0)
(-0.046756 0.0134347 0)
(-0.0497845 0.0123111 0)
(-0.0525255 0.0110261 0)
(-0.0549455 0.00959992 0)
(-0.0570152 0.00805297 0)
(-0.05871 0.00640556 0)
(-0.0600097 0.004678 0)
(-0.0608985 0.00289065 0)
(-0.0613654 0.00106405 0)
(-0.0614038 -0.000780986 0)
(-0.0610119 -0.00262323 0)
(-0.0601924 -0.00444096 0)
(-0.0589533 -0.00621186 0)
(-0.0573074 -0.00791302 0)
(-0.0552726 -0.00952094 0)
(-0.052872 -0.0110116 0)
(-0.0501344 -0.0123608 0)
(-0.0470936 -0.0135441 0)
(-0.043789 -0.0145375 0)
(-0.0402649 -0.0153178 0)
(-0.0365708 -0.0158631 0)
(-0.0327607 -0.0161537 0)
(-0.0288924 -0.0161726 0)
(-0.025027 -0.015907 0)
(-0.021228 -0.0153489 0)
(-0.0175599 -0.014497 0)
(-0.0140872 -0.0133578 0)
(-0.0108727 -0.0119481 0)
(-0.00797622 -0.0102969 0)
(-0.0054536 -0.00844823 0)
(-0.00335365 -0.00646484 0)
(-0.00171521 -0.00443096 0)
(-0.000590162 -0.00245579 0)
(-8.2396e-05 -0.00068488 0)
(-0.000101328 0.00106559 0)
(-0.000709088 0.00350708 0)
(-0.00203583 0.00606932 0)
(-0.00394092 0.00861121 0)
(-0.00635028 0.0110267 0)
(-0.00921026 0.0132345 0)
(-0.0124598 0.0151753 0)
(-0.0160335 0.0168087 0)
(-0.0198649 0.0181101 0)
(-0.0238864 0.0190671 0)
(-0.0280306 0.0196779 0)
(-0.0322314 0.019948 0)
(-0.0364245 0.0198894 0)
(-0.0405486 0.0195184 0)
(-0.0445459 0.0188546 0)
(-0.0483624 0.0179198 0)
(-0.0519485 0.0167374 0)
(-0.0552591 0.0153317 0)
(-0.0582536 0.0137275 0)
(-0.0608963 0.0119496 0)
(-0.0631563 0.0100231 0)
(-0.0650072 0.00797289 0)
(-0.0664275 0.00582399 0)
(-0.0674006 0.0036014 0)
(-0.0679146 0.00133038 0)
(-0.0679622 -0.000963483 0)
(-0.0675414 -0.0032541 0)
(-0.066655 -0.00551477 0)
(-0.065311 -0.00771806 0)
(-0.0635229 -0.00983581 0)
(-0.0613093 -0.0118391 0)
(-0.0586947 -0.0136986 0)
(-0.0557093 -0.0153842 0)
(-0.0523889 -0.0168662 0)
(-0.0487753 -0.0181151 0)
(-0.0449157 -0.0191022 0)
(-0.0408628 -0.0198009 0)
(-0.0366744 -0.0201869 0)
(-0.0324127 -0.0202394 0)
(-0.0281434 -0.0199426 0)
(-0.0239352 -0.0192867 0)
(-0.0198586 -0.0182694 0)
(-0.0159844 -0.0168981 0)
(-0.0123824 -0.0151912 0)
(-0.00912053 -0.0131813 0)
(-0.00626331 -0.0109167 0)
(-0.00386957 -0.0084652 0)
(-0.00198875 -0.00591609 0)
(-0.000687991 -0.00338225 0)
(-9.69357e-05 -0.00100973 0)
(-0.000115309 0.0014509 0)
(-0.000804156 0.0045912 0)
(-0.00230285 0.00778618 0)
(-0.0044458 0.0108966 0)
(-0.00714373 0.0138158 0)
(-0.0103321 0.0164609 0)
(-0.0139397 0.0187706 0)
(-0.017892 0.0207032 0)
(-0.0221146 0.022233 0)
(-0.0265328 0.0233479 0)
(-0.0310735 0.0240469 0)
(-0.035665 0.0243378 0)
(-0.0402385 0.0242349 0)
(-0.0447287 0.0237581 0)
(-0.049074 0.0229309 0)
(-0.0532174 0.0217794 0)
(-0.0571065 0.0203315 0)
(-0.0606937 0.0186164 0)
(-0.0639365 0.0166635 0)
(-0.0667973 0.0145027 0)
(-0.0692436 0.0121639 0)
(-0.0712479 0.00967694 0)
(-0.0727874 0.00707157 0)
(-0.0738447 0.00437776 0)
(-0.074407 0.00162568 0)
(-0.0744666 -0.00115411 0)
(-0.0740211 -0.00393041 0)
(-0.0730731 -0.00667131 0)
(-0.0716307 -0.00934402 0)
(-0.0697076 -0.0119148 0)
(-0.0673229 -0.0143492 0)
(-0.0645022 -0.0166118 0)
(-0.0612766 -0.0186667 0)
(-0.0576837 -0.0204783 0)
(-0.0537673 -0.022011 0)
(-0.0495771 -0.0232305 0)
(-0.045169 -0.0241046 0)
(-0.0406042 -0.0246042 0)
(-0.0359491 -0.024704 0)
(-0.0312743 -0.0243847 0)
(-0.0266541 -0.0236339 0)
(-0.022165 -0.022448 0)
(-0.0178846 -0.0208342 0)
(-0.0138906 -0.0188121 0)
(-0.0102594 -0.0164165 0)
(-0.00706523 -0.0136994 0)
(-0.00437723 -0.0107323 0)
(-0.00225564 -0.00760832 0)
(-0.000782219 -0.00444319 0)
(-0.000110549 -0.00138329 0)
(-0.000128713 0.0018838 0)
(-0.000896862 0.0058071 0)
(-0.00256536 0.00970632 0)
(-0.00494498 0.0134439 0)
(-0.00793184 0.0169133 0)
(-0.0114505 0.0200311 0)
(-0.0154193 0.0227353 0)
(-0.0197541 0.0249837 0)
(-0.024372 0.0267511 0)
(-0.0291911 0.0280263 0)
(-0.0341317 0.0288102 0)
(-0.0391166 0.0291133 0)
(-0.0440724 0.0289533 0)
(-0.0489294 0.0283541 0)
(-0.0536227 0.0273435 0)
(-0.0580921 0.0259525 0)
(-0.0622828 0.0242139 0)
(-0.066145 0.0221619 0)
(-0.0696343 0.0198313 0)
(-0.0727118 0.0172569 0)
(-0.0753434 0.0144737 0)
(-0.0775006 0.0115168 0)
(-0.0791598 0.0084209 0)
(-0.0803025 0.00522102 0)
(-0.0809155 0.00195239 0)
(-0.0809905 -0.00134927 0)
(-0.0805245 -0.00464755 0)
(-0.0795199 -0.00790514 0)
(-0.0779845 -0.0110837 0)
(-0.075932 -0.0141437 0)
(-0.0733821 -0.0170446 0)
(-0.0703605 -0.019745 0)
(-0.0668995 -0.0222028 0)
(-0.0630378 -0.0243757 0)
(-0.058821 -0.0262219 0)
(-0.0543011 -0.0277008 0)
(-0.0495368 -0.0287741 0)
(-0.0445929 -0.0294071 0)
(-0.03954 -0.0295695 0)
(-0.0344537 -0.0292378 0)
(-0.029414 -0.0283963 0)
(-0.0245039 -0.0270392 0)
(-0.0198087 -0.0251726 0)
(-0.0154144 -0.0228166 0)
(-0.0114066 -0.0200073 0)
(-0.00786976 -0.0167991 0)
(-0.004884 -0.0132668 0)
(-0.00252039 -0.0095065 0)
(-0.000874848 -0.00563646 0)
(-0.00012367 -0.00180405 0)
(-0.000141896 0.00236346 0)
(-0.000988972 0.0071536 0)
(-0.00282749 0.0118293 0)
(-0.00544533 0.016254 0)
(-0.0087243 0.0203217 0)
(-0.0125781 0.023949 0)
(-0.016914 0.0270743 0)
(-0.0216383 0.029656 0)
(-0.0266588 0.0316701 0)
(-0.0318861 0.0331078 0)
(-0.0372334 0.0339727 0)
(-0.042618 0.0342787 0)
(-0.0479611 0.0340479 0)
(-0.0531891 0.0333086 0)
(-0.0582335 0.0320938 0)
(-0.0630313 0.0304397 0)
(-0.0675252 0.0283846 0)
(-0.0716636 0.0259681 0)
(-0.0754004 0.0232305 0)
(-0.0786952 0.020212 0)
(-0.0815132 0.0169529 0)
(-0.0838248 0.0134934 0)
(-0.0856055 0.00987365 0)
(-0.0868364 0.00613361 0)
(-0.0875033 0.00231372 0)
(-0.0875974 -0.00154507 0)
(-0.0871153 -0.00540102 0)
(-0.0860588 -0.00921131 0)
(-0.0844354 -0.0129319 0)
(-0.0822585 -0.0165173 0)
(-0.0795477 -0.0199208 0)
(-0.0763291 -0.0230945 0)
(-0.0726354 -0.0259895 0)
(-0.0685064 -0.0285569 0)
(-0.063989 -0.0307478 0)
(-0.0591373 -0.0325149 0)
(-0.0540127 -0.0338131 0)
(-0.0486835 -0.0346012 0)
(-0.0432245 -0.0348435 0)
(-0.0377167 -0.034511 0)
(-0.032246 -0.033584 0)
(-0.0269027 -0.0320535 0)
(-0.0217801 -0.0299239 0)
(-0.0169731 -0.0272144 0)
(-0.0125776 -0.0239618 0)
(-0.00868879 -0.0202223 0)
(-0.00539818 -0.0160728 0)
(-0.00278791 -0.0116125 0)
(-0.00096792 -0.00696225 0)
(-0.000136701 -0.0022716 0)
(-0.000155177 0.00288995 0)
(-0.00108218 0.00863158 0)
(-0.0030934 0.0141573 0)
(-0.00595393 0.0193308 0)
(-0.00953126 0.0240465 0)
(-0.013728 0.0282216 0)
(-0.0184403 0.0317956 0)
(-0.0235639 0.0347286 0)
(-0.0289974 0.036999 0)
(-0.0346429 0.0386011 0)
(-0.0404066 0.0395423 0)
(-0.0461995 0.0398411 0)
(-0.0519379 0.0395247 0)
(-0.0575436 0.0386267 0)
(-0.0629447 0.0371859 0)
(-0.0680754 0.0352444 0)
(-0.0728763 0.0328463 0)
(-0.0772938 0.0300372 0)
(-0.0812806 0.0268631 0)
(-0.0847953 0.0233699 0)
(-0.0878021 0.0196034 0)
(-0.0902707 0.0156092 0)
(-0.092176 0.0114326 0)
(-0.0934983 0.00711886 0)
(-0.094223 0.00271353 0)
(-0.0943407 -0.00173718 0)
(-0.0938472 -0.00618616 0)
(-0.0927437 -0.010585 0)
(-0.0910372 -0.0148839 0)
(-0.0887405 -0.0190313 0)
(-0.0858729 -0.022974 0)
(-0.0824602 -0.0266574 0)
(-0.0785356 -0.0300256 0)
(-0.0741392 -0.0330223 0)
(-0.0693193 -0.0355911 0)
(-0.0641317 -0.0376772 0)
(-0.0586404 -0.0392281 0)
(-0.0529171 -0.0401954 0)
(-0.0470411 -0.0405366 0)
(-0.0410986 -0.0402166 0)
(-0.0351822 -0.0392106 0)
(-0.0293897 -0.0375054 0)
(-0.0238232 -0.0351023 0)
(-0.0185875 -0.0320192 0)
(-0.013789 -0.0282924 0)
(-0.00953492 -0.023979 0)
(-0.00592841 -0.019158 0)
(-0.00306319 -0.0139314 0)
(-0.00106344 -0.00842324 0)
(-0.000150007 -0.00278664 0)
(-0.00016884 0.00346426 0)
(-0.00117808 0.010244 0)
(-0.00336711 0.0166952 0)
(-0.00647774 0.0226811 0)
(-0.0103628 0.0280963 0)
(-0.0149135 0.032859 0)
(-0.0200144 0.0369103 0)
(-0.0255502 0.0402131 0)
(-0.0314096 0.0427493 0)
(-0.037486 0.0445173 0)
(-0.0436781 0.0455295 0)
(-0.0498902 0.0458101 0)
(-0.0560333 0.0453921 0)
(-0.0620251 0.0443156 0)
(-0.06779 0.0426258 0)
(-0.0732596 0.0403714 0)
(-0.0783722 0.0376031 0)
(-0.0830729 0.0343727 0)
(-0.0873134 0.0307322 0)
(-0.0910512 0.0267336 0)
(-0.0942499 0.0224283 0)
(-0.0968787 0.0178674 0)
(-0.0989122 0.0131014 0)
(-0.10033 0.00818077 0)
(-0.101117 0.00315623 0)
(-0.101263 -0.00192084 0)
(-0.100763 -0.00699798 0)
(-0.0996181 -0.0120213 0)
(-0.0978337 -0.0169351 0)
(-0.0954221 -0.0216816 0)
(-0.0924017 -0.026201 0)
(-0.0887981 -0.0304318 0)
(-0.0846439 -0.0343107 0)
(-0.0799799 -0.0377733 0)
(-0.0748548 -0.0407555 0)
(-0.0693263 -0.0431939 0)
(-0.0634606 -0.0450279 0)
(-0.0573328 -0.0462008 0)
(-0.0510265 -0.0466622 0)
(-0.0446338 -0.0463702 0)
(-0.0382541 -0.0452931 0)
(-0.0319933 -0.0434128 0)
(-0.0259629 -0.0407263 0)
(-0.0202785 -0.0372487 0)
(-0.0150579 -0.0330154 0)
(-0.0104209 -0.0280835 0)
(-0.0064834 -0.022534 0)
(-0.00335121 -0.0164716 0)
(-0.00116336 -0.0100246 0)
(-0.000163928 -0.00335088 0)
(-0.000183143 0.00408814 0)
(-0.00127816 0.0119956 0)
(-0.00365243 0.0194507 0)
(-0.00702347 0.0263149 0)
(-0.0112288 0.0324829 0)
(-0.0161476 0.0378742 0)
(-0.0216522 0.0424324 0)
(-0.0276157 0.0461239 0)
(-0.0339164 0.048935 0)
(-0.0404384 0.0508697 0)
(-0.0470724 0.0519467 0)
(-0.053716 0.0521966 0)
(-0.0602747 0.0516597 0)
(-0.0666617 0.0503835 0)
(-0.072798 0.0484206 0)
(-0.0786127 0.0458267 0)
(-0.0840423 0.0426598 0)
(-0.0890305 0.0389785 0)
(-0.0935281 0.0348414 0)
(-0.0974922 0.0303065 0)
(-0.100886 0.0254311 0)
(-0.103679 0.0202716 0)
(-0.105844 0.014884 0)
(-0.107361 0.00932377 0)
(-0.108215 0.0036467 0)
(-0.108395 -0.00209077 0)
(-0.107895 -0.00783098 0)
(-0.106714 -0.0135145 0)
(-0.104858 -0.01908 0)
(-0.102337 -0.0244633 0)
(-0.0991686 -0.029598 0)
(-0.0953777 -0.0344153 0)
(-0.0909963 -0.0388439 0)
(-0.0860647 -0.0428114 0)
(-0.0806323 -0.0462448 0)
(-0.0747579 -0.0490716 0)
(-0.0685097 -0.0512219 0)
(-0.0619661 -0.0526297 0)
(-0.0552153 -0.0532358 0)
(-0.0483551 -0.0529894 0)
(-0.0414921 -0.0518514 0)
(-0.0347412 -0.0497968 0)
(-0.0282238 -0.0468174 0)
(-0.0220669 -0.0429245 0)
(-0.0164011 -0.0381511 0)
(-0.0113594 -0.0325542 0)
(-0.00707175 -0.0262162 0)
(-0.00365681 -0.0192451 0)
(-0.00126953 -0.0117738 0)
(-0.000178781 -0.00396706 0)
(-0.000198321 0.00476412 0)
(-0.00138382 0.0138932 0)
(-0.00395299 0.0224338 0)
(-0.00759748 0.0302449 0)
(-0.0121385 0.0372212 0)
(-0.0174424 0.0432835 0)
(-0.0233686 0.0483787 0)
(-0.0297778 0.0524775 0)
(-0.0365372 0.0555722 0)
(-0.043521 0.0576734 0)
(-0.0506116 0.0588073 0)
(-0.0576997 0.0590126 0)
(-0.064685 0.0583379 0)
(-0.0714763 0.0568391 0)
(-0.0779914 0.054577 0)
(-0.084157 0.0516158 0)
(-0.0899079 0.048021 0)
(-0.095187 0.0438586 0)
(-0.0999446 0.039194 0)
(-0.104138 0.0340917 0)
(-0.107729 0.0286148 0)
(-0.110688 0.0228253 0)
(-0.112989 0.0167844 0)
(-0.11461 0.0105524 0)
(-0.115536 0.00419015 0)
(-0.115755 -0.00224121 0)
(-0.115261 -0.00867894 0)
(-0.114051 -0.0150584 0)
(-0.11213 -0.0213124 0)
(-0.109506 -0.0273707 0)
(-0.106197 -0.0331601 0)
(-0.102224 -0.0386042 0)
(-0.097619 -0.0436237 0)
(-0.0924215 -0.0481373 0)
(-0.0866809 -0.0520624 0)
(-0.0804565 -0.0553167 0)
(-0.0738185 -0.0578198 0)
(-0.0668483 -0.0594953 0)
(-0.0596383 -0.0602735 0)
(-0.0522925 -0.0600936 0)
(-0.0449249 -0.0589074 0)
(-0.0376597 -0.0566814 0)
(-0.0306292 -0.0534008 0)
(-0.0239728 -0.0490717 0)
(-0.0178348 -0.043724 0)
(-0.0123628 -0.0374136 0)
(-0.00770181 -0.0302241 0)
(-0.00398471 -0.022267 0)
(-0.00138377 -0.0136808 0)
(-0.000194866 -0.00463884 0)
(-0.00021459 0.00549543 0)
(-0.00149636 0.0159452 0)
(-0.00427217 0.0256571 0)
(-0.00820575 0.0344868 0)
(-0.0131007 0.0423287 0)
(-0.0188095 0.0491056 0)
(-0.0251775 0.054768 0)
(-0.0320523 0.0592926 0)
(-0.0392891 0.0626784 0)
(-0.046752 0.0649443 0)
(-0.0543143 0.0661255 0)
(-0.0618597 0.0662701 0)
(-0.069282 0.0654365 0)
(-0.0764858 0.0636901 0)
(-0.0833857 0.0611014 0)
(-0.0899062 0.0577433 0)
(-0.0959812 0.05369 0)
(-0.101553 0.0490154 0)
(-0.106571 0.043792 0)
(-0.110994 0.0380911 0)
(-0.114784 0.0319817 0)
(-0.117911 0.0255313 0)
(-0.12035 0.018806 0)
(-0.122079 0.0118712 0)
(-0.123081 0.00479192 0)
(-0.123346 -0.00236589 0)
(-0.122864 -0.00953486 0)
(-0.121634 -0.0166453 0)
(-0.119656 -0.0236245 0)
(-0.116939 -0.0303963 0)
(-0.113497 -0.0368805 0)
(-0.109349 -0.0429931 0)
(-0.104527 -0.0486463 0)
(-0.0990681 -0.0537496 0)
(-0.0930207 -0.0582099 0)
(-0.0864446 -0.0619342 0)
(-0.0794113 -0.0648303 0)
(-0.0720048 -0.0668101 0)
(-0.0643219 -0.0677918 0)
(-0.0564723 -0.0677031 0)
(-0.0485781 -0.0664845 0)
(-0.040773 -0.0640928 0)
(-0.0332013 -0.0605046 0)
(-0.0260154 -0.0557193 0)
(-0.0193747 -0.0497624 0)
(-0.0134431 -0.0426881 0)
(-0.0083817 -0.0345808 0)
(-0.00433945 -0.0255558 0)
(-0.00150781 -0.015758 0)
(-0.000212469 -0.00537082 0)
(-0.000232153 0.00628592 0)
(-0.00161699 0.0181616 0)
(-0.00461313 0.0291354 0)
(-0.00885386 0.0390588 0)
(-0.0141235 0.0478259 0)
(-0.0202592 0.0553617 0)
(-0.0270913 0.0616217 0)
(-0.0344531 0.0665893 0)
(-0.0421871 0.0702721 0)
(-0.0501464 0.0726988 0)
(-0.0581952 0.0739152 0)
(-0.0662095 0.0739804 0)
(-0.0740777 0.0729641 0)
(-0.0817 0.0709429 0)
(-0.0889882 0.0679976 0)
(-0.0958653 0.0642115 0)
(-0.102264 0.0596678 0)
(-0.108127 0.054449 0)
(-0.113405 0.0486353 0)
(-0.118056 0.0423047 0)
(-0.122043 0.0355322 0)
(-0.125338 0.0283909 0)
(-0.127916 0.0209515 0)
(-0.129754 0.0132839 0)
(-0.130838 0.00545733 0)
(-0.131153 -0.00245812 0)
(-0.130693 -0.0103908 0)
(-0.129451 -0.0182663 0)
(-0.127427 -0.0260068 0)
(-0.124628 -0.0335302 0)
(-0.121063 -0.0407497 0)
(-0.116753 -0.0475735 0)
(-0.111723 -0.0539051 0)
(-0.10601 -0.0596438 0)
(-0.099661 -0.064686 0)
(-0.092735 -0.0689262 0)
(-0.0853041 -0.0722597 0)
(-0.0774544 -0.0745849 0)
(-0.0692867 -0.0758062 0)
(-0.0609165 -0.0758378 0)
(-0.0524739 -0.074607 0)
(-0.044103 -0.0720586 0)
(-0.0359602 -0.0681588 0)
(-0.0282126 -0.0628987 0)
(-0.0210358 -0.056298 0)
(-0.0146115 -0.0484078 0)
(-0.00911922 -0.0393131 0)
(-0.00472547 -0.0291329 0)
(-0.00164333 -0.0180197 0)
(-0.000231871 -0.00616848 0)
(-0.000251203 0.0071401 0)
(-0.00174687 0.0205541 0)
(-0.00497888 0.0328856 0)
(-0.00954702 0.0439814 0)
(-0.0152142 0.0537351 0)
(-0.021801 0.062075 0)
(-0.0291211 0.0689622 0)
(-0.0369921 0.0743886 0)
(-0.0452432 0.0783719 0)
(-0.0537156 0.0809526 0)
(-0.0622641 0.0821888 0)
(-0.0707571 0.0821528 0)
(-0.0790771 0.0809271 0)
(-0.0871206 0.0786007 0)
(-0.0947971 0.0752668 0)
(-0.102028 0.0710194 0)
(-0.108747 0.0659521 0)
(-0.114896 0.0601564 0)
(-0.120428 0.0537206 0)
(-0.125301 0.0467295 0)
(-0.129482 0.0392644 0)
(-0.132941 0.0314034 0)
(-0.135656 0.0232219 0)
(-0.137606 0.0147935 0)
(-0.138774 0.00619137 0)
(-0.139147 -0.00251083 0)
(-0.138715 -0.0112377 0)
(-0.137472 -0.0199107 0)
(-0.135415 -0.0284473 0)
(-0.132547 -0.0367599 0)
(-0.128876 -0.044755 0)
(-0.124417 -0.0523333 0)
(-0.119194 -0.0593892 0)
(-0.11324 -0.0658116 0)
(-0.106599 -0.0714851 0)
(-0.0993294 -0.0762912 0)
(-0.0915031 -0.080111 0)
(-0.0832074 -0.0828277 0)
(-0.0745465 -0.08433 0)
(-0.0656414 -0.0845162 0)
(-0.0566303 -0.0832984 0)
(-0.0476679 -0.0806071 0)
(-0.0389237 -0.0763954 0)
(-0.0305806 -0.0706441 0)
(-0.0228319 -0.0633653 0)
(-0.015879 -0.054606 0)
(-0.00992188 -0.0444509 0)
(-0.00514703 -0.033023 0)
(-0.00179199 -0.0204827 0)
(-0.000253348 -0.00703816 0)
(-0.000271928 0.00806302 0)
(-0.0018871 0.0231357 0)
(-0.00537223 0.0369265 0)
(-0.0102901 0.0492772 0)
(-0.0163798 0.060081 0)
(-0.0234434 0.0692702 0)
(-0.0312761 0.0768131 0)
(-0.039679 0.0827116 0)
(-0.0484663 0.0869959 0)
(-0.057467 0.0897199 0)
(-0.0665258 0.0909567 0)
(-0.0755036 0.0907936 0)
(-0.0842775 0.0893278 0)
(-0.0927402 0.0866629 0)
(-0.1008 0.0829052 0)
(-0.108377 0.0781613 0)
(-0.115406 0.0725358 0)
(-0.12183 0.0661298 0)
(-0.127605 0.0590401 0)
(-0.132691 0.0513588 0)
(-0.137056 0.0431729 0)
(-0.140674 0.0345654 0)
(-0.143522 0.0256159 0)
(-0.145581 0.0164015 0)
(-0.146836 0.00699842 0)
(-0.147272 -0.00251676 0)
(-0.146878 -0.0120655 0)
(-0.145646 -0.021566 0)
(-0.143571 -0.0309314 0)
(-0.140652 -0.0400691 0)
(-0.136893 -0.0488795 0)
(-0.132306 -0.0572555 0)
(-0.126909 -0.0650826 0)
(-0.120732 -0.0722388 0)
(-0.113816 -0.0785962 0)
(-0.106217 -0.0840221 0)
(-0.0980032 -0.0883819 0)
(-0.0892644 -0.0915417 0)
(-0.0801069 -0.0933725 0)
(-0.0706567 -0.0937543 0)
(-0.06106 -0.092581 0)
(-0.0514823 -0.0897658 0)
(-0.042107 -0.0852466 0)
(-0.0331338 -0.078991 0)
(-0.0247757 -0.0710015 0)
(-0.0172557 -0.0613192 0)
(-0.0107968 -0.0500277 0)
(-0.00560829 -0.0372535 0)
(-0.00195541 -0.0231656 0)
(-0.000277175 -0.00798704 0)
(-0.000294511 0.00906033 0)
(-0.00203876 0.0259208 0)
(-0.00579591 0.0412789 0)
(-0.0110876 0.0549706 0)
(-0.0176265 0.0668897 0)
(-0.0251937 0.0769731 0)
(-0.0335643 0.0851982 0)
(-0.0425208 0.0915789 0)
(-0.0518618 0.0961602 0)
(-0.0614031 0.0990124 0)
(-0.0709791 0.100226 0)
(-0.0804431 0.0999046 0)
(-0.089667 0.0981638 0)
(-0.0985408 0.0951229 0)
(-0.106971 0.0909034 0)
(-0.11488 0.0856254 0)
(-0.122202 0.0794057 0)
(-0.128885 0.0723557 0)
(-0.134885 0.0645809 0)
(-0.140168 0.0561805 0)
(-0.144703 0.0472476 0)
(-0.148468 0.0378695 0)
(-0.151442 0.0281295 0)
(-0.153607 0.0181074 0)
(-0.154949 0.00788184 0)
(-0.155452 -0.00246862 0)
(-0.155106 -0.0128632 0)
(-0.153899 -0.0232174 0)
(-0.151824 -0.0334412 0)
(-0.148875 -0.0434374 0)
(-0.145053 -0.0531009 0)
(-0.140363 -0.0623173 0)
(-0.134819 -0.0709628 0)
(-0.128446 -0.0789044 0)
(-0.121279 -0.086001 0)
(-0.113369 -0.0921046 0)
(-0.104785 -0.0970632 0)
(-0.0956141 -0.100724 0)
(-0.0859636 -0.102938 0)
(-0.0759642 -0.103563 0)
(-0.0657696 -0.102473 0)
(-0.0555561 -0.0995606 0)
(-0.0455219 -0.0947443 0)
(-0.0358846 -0.087976 0)
(-0.0268786 -0.0792456 0)
(-0.0187511 -0.0685864 0)
(-0.011751 -0.0560794 0)
(-0.00611332 -0.0418543 0)
(-0.00213521 -0.0260891 0)
(-0.000303633 -0.00902317 0)
(-0.000319144 0.0101382 0)
(-0.00220293 0.028925 0)
(-0.00625256 0.045965 0)
(-0.011944 0.061088 0)
(-0.01896 0.0741885 0)
(-0.0270582 0.08521 0)
(-0.0359915 0.0941407 0)
(-0.045522 0.101009 0)
(-0.0554312 0.105878 0)
(-0.0655213 0.108837 0)
(-0.0756159 0.109997 0)
(-0.0855611 0.109482 0)
(-0.095224 0.107426 0)
(-0.104493 0.103967 0)
(-0.113273 0.0992442 0)
(-0.12149 0.0933923 0)
(-0.129081 0.086541 0)
(-0.135996 0.078813 0)
(-0.142197 0.0703227 0)
(-0.147653 0.0611766 0)
(-0.152338 0.0514731 0)
(-0.156233 0.041304 0)
(-0.15932 0.030755 0)
(-0.161583 0.0199083 0)
(-0.16301 0.00884356 0)
(-0.163585 -0.00235937 0)
(-0.163296 -0.0136186 0)
(-0.162129 -0.0248481 0)
(-0.160074 -0.0359554 0)
(-0.157122 -0.0468399 0)
(-0.153265 -0.0573915 0)
(-0.148506 -0.0674889 0)
(-0.14285 -0.0769995 0)
(-0.136315 -0.085779 0)
(-0.128931 -0.0936724 0)
(-0.120743 -0.100515 0)
(-0.111815 -0.106137 0)
(-0.102232 -0.110364 0)
(-0.0921009 -0.113023 0)
(-0.0815564 -0.113949 0)
(-0.0707583 -0.11299 0)
(-0.0598939 -0.110014 0)
(-0.0491764 -0.104919 0)
(-0.0388428 -0.097635 0)
(-0.0291505 -0.0881375 0)
(-0.0203739 -0.0764486 0)
(-0.0127909 -0.0626448 0)
(-0.00666612 -0.0468582 0)
(-0.00233299 -0.0292761 0)
(-0.000333012 -0.0101554 0)
(-0.000346025 0.0113034 0)
(-0.00238072 0.0321655 0)
(-0.00674488 0.0510088 0)
(-0.0128635 0.0676567 0)
(-0.0203856 0.0820056 0)
(-0.0290425 0.0940068 0)
(-0.0385621 0.103662 0)
(-0.0486843 0.111019 0)
(-0.0591722 0.11616 0)
(-0.0698134 0.119197 0)
(-0.080421 0.120265 0)
(-0.0908338 0.119513 0)
(-0.100915 0.117095 0)
(-0.110552 0.113172 0)
(-0.119653 0.107901 0)
(-0.128144 0.101433 0)
(-0.135967 0.0939117 0)
(-0.143079 0.0854718 0)
(-0.149446 0.0762372 0)
(-0.155042 0.0663211 0)
(-0.159849 0.0558275 0)
(-0.16385 0.0448512 0)
(-0.167032 0.0334803 0)
(-0.169382 0.0217977 0)
(-0.170889 0.00988356 0)
(-0.171538 -0.00218253 0)
(-0.171316 -0.0143188 0)
(-0.170207 -0.0264387 0)
(-0.168196 -0.0384489 0)