/*--------------------------------*- C++ -*----------------------------------*\
  =========                 |
  \\      /  F ield         | OpenFOAM: The Open Source CFD Toolbox
   \\    /   O peration     | Website:  https://openfoam.org
    \\  /    A nd           | Version:  7
     \\/     M anipulation  |
\*---------------------------------------------------------------------------*/
FoamFile
{
    version     2.0;
    format      ascii;
    class       volScalarField;
    location    "0.0598";
    object      p;
}
// * * * * * * * * * * * * * * * * * * * * * * * * * * * * * * * * * * * * * //

dimensions      [0 2 -2 0 0 0 0];

internalField   nonuniform List<scalar> 
2500
(
-1.08281e-05
-6.51217
-9.29765
-10.4939
-11.1597
-11.5665
-11.8306
-12.0158
-12.1539
-12.2614
-12.3475
-12.4179
-12.4763
-12.5254
-12.5668
-12.602
-12.6319
-12.6574
-12.6791
-12.6976
-12.7132
-12.7264
-12.7375
-12.7469
-12.7548
-12.7617
-12.7678
-12.7735
-12.7791
-12.7849
-12.7915
-12.7992
-12.8085
-12.82
-12.8345
-12.8527
-12.8756
-12.9046
-12.9414
-12.9883
-13.0487
-13.128
-13.2348
-13.3847
-13.6084
-13.9671
-14.5675
-15.6687
-18.3361
-24.7208
-4.9554
-7.67555
-9.18259
-10.1431
-10.8113
-11.2718
-11.5938
-11.8276
-12.0035
-12.1397
-12.2478
-12.3354
-12.4075
-12.4676
-12.5182
-12.5612
-12.5978
-12.6292
-12.6561
-12.6793
-12.6994
-12.7167
-12.7318
-12.745
-12.7568
-12.7675
-12.7775
-12.7871
-12.7968
-12.807
-12.8182
-12.8309
-12.8457
-12.8634
-12.8848
-12.9111
-12.9436
-12.984
-13.0348
-13.0993
-13.1824
-13.2913
-13.4368
-13.6366
-13.9197
-14.3339
-14.9442
-15.8327
-17.2529
-19.8519
-7.92461
-8.7573
-9.55858
-10.2399
-10.7806
-11.1911
-11.5011
-11.7384
-11.923
-12.069
-12.1866
-12.2827
-12.3623
-12.4289
-12.4853
-12.5333
-12.5744
-12.6098
-12.6405
-12.6671
-12.6904
-12.7108
-12.7288
-12.7449
-12.7596
-12.7731
-12.7859
-12.7985
-12.8112
-12.8245
-12.8391
-12.8553
-12.874
-12.896
-12.9221
-12.9537
-12.9921
-13.0394
-13.098
-13.1716
-13.2648
-13.3844
-13.5399
-13.7451
-14.0193
-14.3886
-14.8814
-15.5097
-16.2554
-17.0187
-9.43374
-9.64746
-10.0669
-10.5122
-10.9056
-11.2332
-11.5001
-11.7164
-11.8918
-12.0352
-12.1533
-12.2515
-12.3339
-12.4037
-12.4632
-12.5142
-12.5583
-12.5965
-12.6298
-12.659
-12.6846
-12.7074
-12.7277
-12.7461
-12.763
-12.7787
-12.7938
-12.8086
-12.8237
-12.8395
-12.8565
-12.8754
-12.8969
-12.9217
-12.951
-12.9858
-13.0277
-13.0785
-13.1406
-13.2169
-13.3116
-13.4298
-13.5783
-13.7653
-14.0005
-14.2932
-14.6491
-15.0554
-15.4378
-15.6156
-10.3189
-10.3188
-10.5231
-10.8003
-11.0754
-11.3259
-11.5451
-11.7325
-11.8912
-12.0253
-12.1387
-12.235
-12.3172
-12.3877
-12.4485
-12.5012
-12.5471
-12.5871
-12.6224
-12.6534
-12.681
-12.7057
-12.7279
-12.7481
-12.7668
-12.7844
-12.8014
-12.8181
-12.835
-12.8527
-12.8717
-12.8926
-12.9161
-12.943
-12.9743
-13.0111
-13.0546
-13.1067
-13.1692
-13.2446
-13.3358
-13.4464
-13.5804
-13.7417
-13.9335
-14.1554
-14.4015
-14.6507
-14.8307
-14.8123
-10.8852
-10.8115
-10.9007
-11.0686
-11.2569
-11.4437
-11.6181
-11.7752
-11.9139
-12.035
-12.1404
-12.2318
-12.3113
-12.3806
-12.441
-12.494
-12.5406
-12.5817
-12.618
-12.6504
-12.6793
-12.7053
-12.729
-12.7506
-12.7708
-12.7898
-12.8082
-12.8264
-12.8447
-12.8639
-12.8843
-12.9065
-12.9313
-12.9594
-12.9916
-13.029
-13.0727
-13.1241
-13.1847
-13.2562
-13.3408
-13.4403
-13.5566
-13.6908
-13.842
-14.0057
-14.1718
-14.3198
-14.3936
-14.3121
-11.267
-11.1767
-11.2074
-11.3069
-11.4337
-11.5705
-11.7065
-11.8351
-11.9532
-12.0599
-12.1552
-12.2398
-12.3148
-12.3812
-12.44
-12.4922
-12.5385
-12.5797
-12.6165
-12.6495
-12.6792
-12.7061
-12.7307
-12.7534
-12.7745
-12.7946
-12.814
-12.8332
-12.8525
-12.8726
-12.8938
-12.9168
-12.9422
-12.9707
-13.0029
-13.0398
-13.0824
-13.1316
-13.1886
-13.2546
-13.3306
-13.4176
-13.5158
-13.6245
-13.741
-13.8593
-13.9694
-14.0548
-14.0761
-13.9838
-11.5399
-11.4534
-11.4551
-11.5123
-11.5968
-11.6958
-11.8003
-11.904
-12.0029
-12.095
-12.1796
-12.2564
-12.3259
-12.3883
-12.4444
-12.4948
-12.54
-12.5807
-12.6173
-12.6504
-12.6804
-12.7077
-12.7328
-12.756
-12.7778
-12.7985
-12.8185
-12.8383
-12.8582
-12.8788
-12.9004
-12.9236
-12.949
-12.9771
-13.0086
-13.0443
-13.0848
-13.1309
-13.1833
-13.2427
-13.3096
-13.384
-13.4654
-13.552
-13.6404
-13.7248
-13.7966
-13.844
-13.8404
-13.7552
-11.7456
-11.6685
-11.6561
-11.6872
-11.7428
-11.814
-11.8937
-11.9763
-12.0581
-12.1366
-12.2106
-12.2793
-12.3426
-12.4005
-12.4532
-12.5011
-12.5446
-12.5841
-12.62
-12.6526
-12.6824
-12.7097
-12.7349
-12.7583
-12.7804
-12.8014
-12.8217
-12.8417
-12.8618
-12.8824
-12.904
-12.9269
-12.9518
-12.9791
-13.0094
-13.0432
-13.081
-13.1234
-13.1708
-13.2234
-13.2813
-13.3441
-13.4106
-13.4788
-13.5453
-13.605
-13.6512
-13.6757
-13.6608
-13.5871
-11.907
-11.8397
-11.8208
-11.8359
-11.8718
-11.9227
-11.9832
-12.0486
-12.1156
-12.1819
-12.2459
-12.3066
-12.3635
-12.4164
-12.4653
-12.5103
-12.5516
-12.5894
-12.6241
-12.6559
-12.6851
-12.712
-12.7369
-12.7602
-12.7821
-12.8031
-12.8233
-12.8432
-12.8632
-12.8836
-12.9047
-12.9271
-12.9511
-12.9772
-13.0058
-13.0373
-13.0721
-13.1106
-13.1528
-13.1989
-13.2485
-13.3008
-13.3547
-13.4081
-13.4579
-13.4998
-13.529
-13.5399
-13.5206
-13.458
-12.0375
-11.979
-11.9575
-11.9627
-11.9853
-12.0214
-12.067
-12.1186
-12.1732
-12.2287
-12.2835
-12.3366
-12.3873
-12.4351
-12.4799
-12.5217
-12.5604
-12.5962
-12.6293
-12.6598
-12.6881
-12.7143
-12.7386
-12.7615
-12.783
-12.8036
-12.8235
-12.8431
-12.8626
-12.8824
-12.9029
-12.9244
-12.9472
-12.9718
-12.9985
-13.0275
-13.0592
-13.0937
-13.131
-13.1709
-13.213
-13.2565
-13.2999
-13.3415
-13.3786
-13.4079
-13.4259
-13.4288
-13.4084
-13.3556
-12.1454
-12.0944
-12.0723
-12.0715
-12.0851
-12.1104
-12.1446
-12.1851
-12.2293
-12.2755
-12.3221
-12.3682
-12.4129
-12.4557
-12.4964
-12.5347
-12.5706
-12.6041
-12.6353
-12.6643
-12.6913
-12.7165
-12.74
-12.7621
-12.783
-12.803
-12.8223
-12.8412
-12.8601
-12.8791
-12.8987
-12.9191
-12.9406
-12.9635
-12.9881
-13.0146
-13.0432
-13.0739
-13.1065
-13.1409
-13.1765
-13.2123
-13.2473
-13.2797
-13.3073
-13.3277
-13.3383
-13.3366
-13.3168
-13.2722
-12.2362
-12.1915
-12.17
-12.1655
-12.1728
-12.1903
-12.2159
-12.2475
-12.2832
-12.3214
-12.3608
-12.4004
-12.4395
-12.4775
-12.5141
-12.5489
-12.5818
-12.6128
-12.642
-12.6692
-12.6947
-12.7186
-12.741
-12.7621
-12.7822
-12.8013
-12.8198
-12.8379
-12.8559
-12.874
-12.8925
-12.9116
-12.9316
-12.9528
-12.9753
-12.9993
-13.0249
-13.052
-13.0804
-13.1099
-13.1398
-13.1693
-13.1974
-13.2227
-13.2433
-13.2574
-13.2631
-13.2589
-13.2405
-13.2028
-12.3137
-12.2744
-12.2539
-12.2473
-12.2504
-12.2622
-12.2811
-12.3057
-12.3343
-12.3658
-12.3989
-12.4327
-12.4666
-12.5
-12.5325
-12.5639
-12.5938
-12.6222
-12.6491
-12.6744
-12.6982
-12.7206
-12.7417
-12.7616
-12.7806
-12.7987
-12.8163
-12.8334
-12.8503
-12.8673
-12.8845
-12.9023
-12.9208
-12.9401
-12.9606
-12.9821
-13.0048
-13.0286
-13.0533
-13.0785
-13.1036
-13.128
-13.1506
-13.1703
-13.1857
-13.1954
-13.198
-13.1926
-13.1759
-13.144
-12.3806
-12.3459
-12.3268
-12.319
-12.3193
-12.3269
-12.3408
-12.3597
-12.3826
-12.4083
-12.4359
-12.4646
-12.4938
-12.5229
-12.5515
-12.5794
-12.6063
-12.632
-12.6565
-12.6798
-12.7017
-12.7225
-12.7421
-12.7607
-12.7785
-12.7954
-12.8118
-12.8278
-12.8435
-12.8593
-12.8753
-12.8916
-12.9084
-12.926
-12.9444
-12.9636
-12.9837
-13.0045
-13.0258
-13.0473
-13.0684
-13.0884
-13.1067
-13.1221
-13.1337
-13.1403
-13.141
-13.1352
-13.1204
-13.0933
-12.439
-12.4083
-12.3907
-12.3824
-12.3808
-12.3853
-12.3953
-12.4098
-12.428
-12.4488
-12.4717
-12.4958
-12.5206
-12.5458
-12.5707
-12.5953
-12.6192
-12.6422
-12.6643
-12.6854
-12.7054
-12.7244
-12.7424
-12.7596
-12.7759
-12.7916
-12.8067
-12.8214
-12.8359
-12.8503
-12.8649
-12.8797
-12.895
-12.9108
-12.9272
-12.9442
-12.9618
-12.9799
-12.9982
-13.0165
-13.0342
-13.0508
-13.0656
-13.0777
-13.0865
-13.091
-13.0905
-13.0848
-13.0719
-13.0491
-12.4903
-12.4633
-12.4472
-12.4389
-12.436
-12.4384
-12.4454
-12.4564
-12.4706
-12.4874
-12.5061
-12.5261
-12.5471
-12.5685
-12.5901
-12.6114
-12.6324
-12.6527
-12.6724
-12.6912
-12.7092
-12.7264
-12.7427
-12.7583
-12.7731
-12.7873
-12.8011
-12.8145
-12.8276
-12.8407
-12.8538
-12.8671
-12.8807
-12.8947
-12.9092
-12.9242
-12.9395
-12.9552
-12.9709
-12.9864
-13.0012
-13.015
-13.027
-13.0366
-13.0433
-13.0464
-13.0453
-13.0401
-13.029
-13.0099
-12.5358
-12.5121
-12.4976
-12.4895
-12.486
-12.4867
-12.4915
-12.4996
-12.5106
-12.524
-12.5391
-12.5556
-12.5731
-12.5911
-12.6094
-12.6277
-12.6458
-12.6635
-12.6808
-12.6974
-12.7133
-12.7285
-12.7431
-12.757
-12.7702
-12.783
-12.7953
-12.8072
-12.8189
-12.8305
-12.8422
-12.8539
-12.8659
-12.8782
-12.8909
-12.9039
-12.9171
-12.9306
-12.9439
-12.957
-12.9695
-12.9808
-12.9906
-12.9983
-13.0035
-13.0056
-13.0044
-12.9998
-12.9904
-12.9748
-12.5766
-12.5559
-12.5429
-12.5353
-12.5315
-12.5311
-12.5341
-12.54
-12.5484
-12.5588
-12.5709
-12.5842
-12.5985
-12.6134
-12.6287
-12.6441
-12.6595
-12.6747
-12.6895
-12.7038
-12.7177
-12.731
-12.7437
-12.7558
-12.7675
-12.7786
-12.7894
-12.7998
-12.81
-12.8202
-12.8303
-12.8405
-12.8508
-12.8614
-12.8723
-12.8834
-12.8947
-12.9061
-12.9174
-12.9284
-12.9387
-12.9481
-12.9561
-12.9624
-12.9664
-12.968
-12.9669
-12.963
-12.9554
-12.9428
-12.6134
-12.5955
-12.5841
-12.5772
-12.5732
-12.5722
-12.5738
-12.5779
-12.5841
-12.592
-12.6014
-12.6119
-12.6233
-12.6354
-12.6479
-12.6606
-12.6734
-12.6861
-12.6986
-12.7107
-12.7225
-12.7338
-12.7446
-12.755
-12.7649
-12.7744
-12.7836
-12.7925
-12.8012
-12.8097
-12.8183
-12.8269
-12.8356
-12.8445
-12.8537
-12.863
-12.8724
-12.8819
-12.8914
-12.9005
-12.909
-12.9167
-12.9232
-12.9283
-12.9316
-12.9329
-12.932
-12.929
-12.9231
-12.9134
-12.6469
-12.6318
-12.6219
-12.6157
-12.6118
-12.6103
-12.611
-12.6137
-12.618
-12.6238
-12.6308
-12.6389
-12.6477
-12.6572
-12.6671
-12.6773
-12.6876
-12.6979
-12.708
-12.718
-12.7277
-12.737
-12.746
-12.7546
-12.7628
-12.7706
-12.7781
-12.7854
-12.7925
-12.7995
-12.8064
-12.8134
-12.8205
-12.8277
-12.8351
-12.8427
-12.8503
-12.8581
-12.8657
-12.8731
-12.88
-12.8863
-12.8916
-12.8958
-12.8985
-12.8997
-12.8992
-12.897
-12.8928
-12.8858
-12.6778
-12.6652
-12.6569
-12.6515
-12.6479
-12.6462
-12.6461
-12.6476
-12.6504
-12.6544
-12.6593
-12.6652
-12.6717
-12.6787
-12.6862
-12.694
-12.702
-12.71
-12.718
-12.7258
-12.7334
-12.7408
-12.7479
-12.7546
-12.7611
-12.7672
-12.773
-12.7787
-12.7841
-12.7895
-12.7948
-12.8001
-12.8055
-12.811
-12.8167
-12.8225
-12.8285
-12.8345
-12.8404
-12.8462
-12.8517
-12.8567
-12.861
-12.8643
-12.8667
-12.8679
-12.8678
-12.8667
-12.864
-12.8596
-12.7065
-12.6964
-12.6897
-12.6851
-12.682
-12.6801
-12.6795
-12.68
-12.6815
-12.6839
-12.6871
-12.6909
-12.6953
-12.7001
-12.7054
-12.7109
-12.7166
-12.7225
-12.7283
-12.7341
-12.7397
-12.7451
-12.7503
-12.7553
-12.7599
-12.7643
-12.7685
-12.7724
-12.7762
-12.7798
-12.7835
-12.7871
-12.7907
-12.7945
-12.7985
-12.8025
-12.8068
-12.8111
-12.8155
-12.8197
-12.8238
-12.8276
-12.8309
-12.8337
-12.8357
-12.837
-12.8375
-12.8373
-12.8363
-12.8343
-12.7336
-12.726
-12.7208
-12.7171
-12.7144
-12.7126
-12.7116
-12.7113
-12.7117
-12.7127
-12.7142
-12.7162
-12.7186
-12.7214
-12.7246
-12.728
-12.7316
-12.7353
-12.7391
-12.7429
-12.7466
-12.7501
-12.7534
-12.7566
-12.7594
-12.7621
-12.7645
-12.7667
-12.7688
-12.7707
-12.7726
-12.7744
-12.7763
-12.7783
-12.7805
-12.7828
-12.7853
-12.7879
-12.7907
-12.7934
-12.7962
-12.7988
-12.8013
-12.8034
-12.8052
-12.8066
-12.8077
-12.8085
-12.809
-12.8094
-12.7595
-12.7543
-12.7506
-12.7479
-12.7457
-12.744
-12.7427
-12.7417
-12.7411
-12.7408
-12.7408
-12.7411
-12.7417
-12.7427
-12.7438
-12.7453
-12.7469
-12.7486
-12.7504
-12.7522
-12.754
-12.7557
-12.7572
-12.7585
-12.7596
-12.7605
-12.7612
-12.7616
-12.7619
-12.7621
-12.7621
-12.7622
-12.7623
-12.7624
-12.7628
-12.7632
-12.7639
-12.7648
-12.7659
-12.7672
-12.7686
-12.7701
-12.7716
-12.7732
-12.7748
-12.7764
-12.778
-12.7797
-12.7818
-12.7847
-12.7846
-12.7818
-12.7797
-12.778
-12.7763
-12.7747
-12.7732
-12.7716
-12.7701
-12.7686
-12.7672
-12.7659
-12.7648
-12.7639
-12.7632
-12.7627
-12.7624
-12.7623
-12.7622
-12.7621
-12.7621
-12.7619
-12.7616
-12.7612
-12.7605
-12.7596
-12.7585
-12.7572
-12.7557
-12.754
-12.7523
-12.7504
-12.7486
-12.7469
-12.7453
-12.7438
-12.7427
-12.7418
-12.7411
-12.7408
-12.7408
-12.7411
-12.7418
-12.7427
-12.744
-12.7458
-12.748
-12.7507
-12.7543
-12.7595
-12.8094
-12.809
-12.8084
-12.8077
-12.8066
-12.8052
-12.8034
-12.8012
-12.7988
-12.7962
-12.7934
-12.7906
-12.7879
-12.7853
-12.7828
-12.7805
-12.7783
-12.7763
-12.7744
-12.7726
-12.7707
-12.7688
-12.7667
-12.7645
-12.7621
-12.7594
-12.7566
-12.7534
-12.7501
-12.7466
-12.7429
-12.7391
-12.7353
-12.7316
-12.728
-12.7246
-12.7214
-12.7186
-12.7162
-12.7142
-12.7127
-12.7117
-12.7113
-12.7116
-12.7126
-12.7144
-12.7172
-12.7208
-12.726
-12.7336
-12.8343
-12.8362
-12.8373
-12.8375
-12.837
-12.8357
-12.8337
-12.8309
-12.8276
-12.8238
-12.8197
-12.8154
-12.8111
-12.8068
-12.8025
-12.7985
-12.7945
-12.7907
-12.7871
-12.7834
-12.7798
-12.7762
-12.7724
-12.7685
-12.7643
-12.7599
-12.7553
-12.7503
-12.7451
-12.7397
-12.7341
-12.7283
-12.7225
-12.7167
-12.7109
-12.7054
-12.7001
-12.6953
-12.6909
-12.6871
-12.6839
-12.6816
-12.6801
-12.6795
-12.6801
-12.682
-12.6852
-12.6897
-12.6965
-12.7065
-12.8596
-12.864
-12.8666
-12.8678
-12.8678
-12.8667
-12.8643
-12.8609
-12.8567
-12.8517
-12.8462
-12.8404
-12.8345
-12.8284
-12.8225
-12.8167
-12.811
-12.8055
-12.8001
-12.7948
-12.7895
-12.7841
-12.7787
-12.7731
-12.7672
-12.7611
-12.7546
-12.7479
-12.7408
-12.7334
-12.7258
-12.718
-12.71
-12.702
-12.694
-12.6863
-12.6788
-12.6717
-12.6652
-12.6594
-12.6544
-12.6504
-12.6476
-12.6461
-12.6462
-12.6479
-12.6515
-12.6569
-12.6652
-12.6778
-12.8858
-12.8928
-12.897
-12.8992
-12.8997
-12.8985
-12.8957
-12.8916
-12.8863
-12.88
-12.8731
-12.8657
-12.8581
-12.8503
-12.8426
-12.8351
-12.8277
-12.8205
-12.8134
-12.8064
-12.7995
-12.7925
-12.7854
-12.7781
-12.7706
-12.7628
-12.7546
-12.746
-12.737
-12.7277
-12.718
-12.7081
-12.6979
-12.6876
-12.6773
-12.6671
-12.6572
-12.6477
-12.6389
-12.6309
-12.6238
-12.618
-12.6137
-12.6111
-12.6104
-12.6119
-12.6157
-12.6219
-12.6318
-12.6469
-12.9134
-12.9231
-12.929
-12.932
-12.9329
-12.9316
-12.9283
-12.9232
-12.9167
-12.909
-12.9004
-12.8913
-12.8819
-12.8724
-12.863
-12.8537
-12.8445
-12.8356
-12.8269
-12.8183
-12.8097
-12.8012
-12.7925
-12.7836
-12.7744
-12.7649
-12.755
-12.7446
-12.7338
-12.7225
-12.7107
-12.6986
-12.6861
-12.6734
-12.6607
-12.6479
-12.6354
-12.6234
-12.6119
-12.6014
-12.592
-12.5841
-12.578
-12.5739
-12.5722
-12.5732
-12.5772
-12.5842
-12.5956
-12.6134
-12.9428
-12.9554
-12.963
-12.9669
-12.968
-12.9664
-12.9623
-12.9561
-12.9481
-12.9387
-12.9284
-12.9174
-12.9061
-12.8947
-12.8834
-12.8723
-12.8614
-12.8508
-12.8405
-12.8303
-12.8202
-12.81
-12.7998
-12.7894
-12.7786
-12.7675
-12.7558
-12.7437
-12.731
-12.7177
-12.7039
-12.6895
-12.6747
-12.6595
-12.6442
-12.6287
-12.6134
-12.5985
-12.5842
-12.5709
-12.5588
-12.5484
-12.5401
-12.5342
-12.5312
-12.5315
-12.5354
-12.543
-12.5559
-12.5766
-12.9748
-12.9904
-12.9997
-13.0044
-13.0056
-13.0035
-12.9983
-12.9906
-12.9808
-12.9694
-12.957
-12.9439
-12.9306
-12.9171
-12.9039
-12.8909
-12.8782
-12.8659
-12.8539
-12.8422
-12.8305
-12.8189
-12.8072
-12.7953
-12.783
-12.7703
-12.757
-12.7431
-12.7286
-12.7133
-12.6974
-12.6808
-12.6636
-12.6458
-12.6277
-12.6094
-12.5911
-12.5731
-12.5556
-12.5391
-12.524
-12.5107
-12.4997
-12.4915
-12.4868
-12.486
-12.4895
-12.4976
-12.5122
-12.5359
-13.0099
-13.0289
-13.04
-13.0453
-13.0463
-13.0433
-13.0366
-13.027
-13.015
-13.0012
-12.9864
-12.9709
-12.9552
-12.9395
-12.9242
-12.9092
-12.8947
-12.8807
-12.8671
-12.8538
-12.8407
-12.8276
-12.8145
-12.8011
-12.7874
-12.7731
-12.7583
-12.7427
-12.7264
-12.7092
-12.6912
-12.6724
-12.6527
-12.6324
-12.6114
-12.5901
-12.5686
-12.5471
-12.5262
-12.5061
-12.4874
-12.4706
-12.4564
-12.4454
-12.4384
-12.4361
-12.4389
-12.4472
-12.4633
-12.4903
-13.0491
-13.0719
-13.0848
-13.0905
-13.0909
-13.0865
-13.0777
-13.0656
-13.0508
-13.0342
-13.0165
-12.9982
-12.9799
-12.9618
-12.9442
-12.9272
-12.9108
-12.895
-12.8797
-12.8649
-12.8503
-12.8359
-12.8214
-12.8067
-12.7916
-12.7759
-12.7596
-12.7425
-12.7244
-12.7054
-12.6854
-12.6643
-12.6422
-12.6192
-12.5953
-12.5708
-12.5458
-12.5207
-12.4958
-12.4717
-12.4489
-12.428
-12.4099
-12.3954
-12.3854
-12.3808
-12.3825
-12.3907
-12.4084
-12.439
-13.0933
-13.1204
-13.1352
-13.141
-13.1403
-13.1337
-13.1221
-13.1067
-13.0884
-13.0683
-13.0472
-13.0258
-13.0045
-12.9837
-12.9636
-12.9444
-12.926
-12.9084
-12.8916
-12.8753
-12.8593
-12.8436
-12.8278
-12.8118
-12.7954
-12.7785
-12.7608
-12.7422
-12.7225
-12.7018
-12.6798
-12.6565
-12.632
-12.6063
-12.5794
-12.5515
-12.5229
-12.4938
-12.4646
-12.4359
-12.4083
-12.3826
-12.3598
-12.3408
-12.3269
-12.3193
-12.3191
-12.3268
-12.346
-12.3807
-13.144
-13.1759
-13.1926
-13.198
-13.1954
-13.1857
-13.1703
-13.1506
-13.128
-13.1036
-13.0785
-13.0533
-13.0286
-13.0048
-12.9821
-12.9606
-12.9402
-12.9208
-12.9023
-12.8845
-12.8673
-12.8503
-12.8334
-12.8163
-12.7987
-12.7806
-12.7617
-12.7417
-12.7206
-12.6982
-12.6744
-12.6491
-12.6222
-12.5938
-12.5639
-12.5326
-12.5001
-12.4667
-12.4327
-12.3989
-12.3658
-12.3344
-12.3057
-12.2812
-12.2622
-12.2505
-12.2473
-12.254
-12.2744
-12.3138
-13.2028
-13.2405
-13.2589
-13.2631
-13.2574
-13.2433
-13.2227
-13.1974
-13.1693
-13.1398
-13.1099
-13.0804
-13.052
-13.0249
-12.9993
-12.9753
-12.9528
-12.9316
-12.9116
-12.8925
-12.874
-12.8559
-12.8379
-12.8198
-12.8013
-12.7822
-12.7621
-12.741
-12.7186
-12.6947
-12.6692
-12.642
-12.6129
-12.5818
-12.5489
-12.5141
-12.4776
-12.4396
-12.4005
-12.3608
-12.3214
-12.2832
-12.2476
-12.216
-12.1904
-12.1729
-12.1655
-12.17
-12.1915
-12.2363
-13.2722
-13.3168
-13.3366
-13.3383
-13.3277
-13.3073
-13.2797
-13.2473
-13.2123
-13.1765
-13.1409
-13.1065
-13.0739
-13.0432
-13.0147
-12.9881
-12.9635
-12.9406
-12.9191
-12.8987
-12.8791
-12.8601
-12.8412
-12.8223
-12.803
-12.783
-12.7621
-12.74
-12.7165
-12.6914
-12.6644
-12.6354
-12.6041
-12.5706
-12.5347
-12.4964
-12.4558
-12.4129
-12.3682
-12.3222
-12.2755
-12.2294
-12.1851
-12.1447
-12.1104
-12.0851
-12.0716
-12.0724
-12.0944
-12.1455
-13.3556
-13.4084
-13.4288
-13.4259
-13.4079
-13.3786
-13.3415
-13.2999
-13.2564
-13.213
-13.1709
-13.131
-13.0937
-13.0592
-13.0275
-12.9985
-12.9718
-12.9472
-12.9244
-12.9029
-12.8824
-12.8626
-12.8431
-12.8235
-12.8036
-12.783
-12.7615
-12.7386
-12.7143
-12.6881
-12.6599
-12.6293
-12.5962
-12.5604
-12.5217
-12.48
-12.4352
-12.3873
-12.3366
-12.2835
-12.2287
-12.1732
-12.1186
-12.0671
-12.0215
-11.9854
-11.9628
-11.9575
-11.979
-12.0375
-13.458
-13.5206
-13.5399
-13.529
-13.4998
-13.4579
-13.4081
-13.3547
-13.3008
-13.2485
-13.1989
-13.1528
-13.1106
-13.0721
-13.0373
-13.0058
-12.9772
-12.9511
-12.9271
-12.9047
-12.8836
-12.8632
-12.8433
-12.8233
-12.8031
-12.7822
-12.7602
-12.7369
-12.712
-12.6851
-12.6559
-12.6241
-12.5895
-12.5516
-12.5103
-12.4653
-12.4164
-12.3635
-12.3066
-12.2459
-12.182
-12.1157
-12.0487
-11.9832
-11.9228
-11.8719
-11.8359
-11.8209
-11.8398
-11.9071
-13.5871
-13.6608
-13.6757
-13.6512
-13.605
-13.5453
-13.4788
-13.4106
-13.3441
-13.2813
-13.2234
-13.1708
-13.1234
-13.081
-13.0432
-13.0094
-12.9791
-12.9518
-12.927
-12.904
-12.8824
-12.8618
-12.8417
-12.8217
-12.8014
-12.7804
-12.7584
-12.7349
-12.7097
-12.6824
-12.6526
-12.62
-12.5841
-12.5447
-12.5012
-12.4532
-12.4005
-12.3426
-12.2794
-12.2107
-12.1367
-12.0582
-11.9764
-11.8938
-11.814
-11.7428
-11.6872
-11.6561
-11.6686
-11.7457
-13.7552
-13.8404
-13.844
-13.7966
-13.7248
-13.6404
-13.552
-13.4654
-13.384
-13.3096
-13.2427
-13.1833
-13.1309
-13.0848
-13.0443
-13.0086
-12.9771
-12.949
-12.9236
-12.9004
-12.8788
-12.8583
-12.8383
-12.8186
-12.7985
-12.7778
-12.756
-12.7328
-12.7077
-12.6804
-12.6504
-12.6173
-12.5807
-12.5401
-12.4949
-12.4445
-12.3884
-12.3259
-12.2565
-12.1796
-12.0951
-12.0029
-11.904
-11.8004
-11.6959
-11.5968
-11.5123
-11.4552
-11.4535
-11.54
-13.9838
-14.0761
-14.0548
-13.9694
-13.8593
-13.741
-13.6245
-13.5158
-13.4176
-13.3306
-13.2546
-13.1886
-13.1316
-13.0824
-13.0398
-13.0029
-12.9707
-12.9422
-12.9169
-12.8938
-12.8726
-12.8526
-12.8332
-12.814
-12.7946
-12.7745
-12.7534
-12.7307
-12.7062
-12.6792
-12.6495
-12.6166
-12.5797
-12.5385
-12.4922
-12.4401
-12.3813
-12.3149
-12.2399
-12.1552
-12.0599
-11.9533
-11.8352
-11.7065
-11.5706
-11.4338
-11.3069
-11.2075
-11.1768
-11.2671
-14.3121
-14.3936
-14.3198
-14.1718
-14.0057
-13.842
-13.6908
-13.5567
-13.4403
-13.3408
-13.2562
-13.1847
-13.1241
-13.0727
-13.029
-12.9916
-12.9594
-12.9313
-12.9065
-12.8843
-12.8639
-12.8448
-12.8264
-12.8082
-12.7898
-12.7708
-12.7507
-12.729
-12.7054
-12.6793
-12.6504
-12.6181
-12.5817
-12.5406
-12.4941
-12.4411
-12.3806
-12.3114
-12.2319
-12.1404
-12.0351
-11.914
-11.7753
-11.6182
-11.4437
-11.257
-11.0687
-10.9008
-10.8116
-10.8853
-14.8123
-14.8307
-14.6507
-14.4015
-14.1554
-13.9335
-13.7417
-13.5804
-13.4464
-13.3358
-13.2446
-13.1692
-13.1067
-13.0546
-13.0111
-12.9743
-12.943
-12.9161
-12.8926
-12.8717
-12.8527
-12.835
-12.8181
-12.8014
-12.7844
-12.7668
-12.7481
-12.7279
-12.7057
-12.6811
-12.6535
-12.6224
-12.5872
-12.5471
-12.5012
-12.4486
-12.3878
-12.3173
-12.2351
-12.1388
-12.0253
-11.8913
-11.7326
-11.5451
-11.326
-11.0755
-10.8004
-10.5232
-10.3189
-10.319
-15.6156
-15.4378
-15.0554
-14.6491
-14.2932
-14.0005
-13.7653
-13.5783
-13.4298
-13.3116
-13.2169
-13.1406
-13.0785
-13.0277
-12.9858
-12.951
-12.9218
-12.8969
-12.8754
-12.8565
-12.8395
-12.8237
-12.8087
-12.7938
-12.7787
-12.763
-12.7461
-12.7278
-12.7074
-12.6847
-12.659
-12.6298
-12.5965
-12.5583
-12.5143
-12.4632
-12.4037
-12.334
-12.2515
-12.1533
-12.0352
-11.8919
-11.7164
-11.5002
-11.2332
-10.9057
-10.5123
-10.067
-9.64757
-9.43385
-17.0187
-16.2554
-15.5097
-14.8814
-14.3886
-14.0193
-13.7451
-13.5399
-13.3844
-13.2648
-13.1716
-13.098
-13.0394
-12.9921
-12.9537
-12.9221
-12.896
-12.874
-12.8553
-12.8391
-12.8246
-12.8112
-12.7985
-12.7859
-12.7731
-12.7596
-12.745
-12.7288
-12.7108
-12.6904
-12.6671
-12.6405
-12.6099
-12.5744
-12.5333
-12.4853
-12.429
-12.3623
-12.2828
-12.1867
-12.0691
-11.923
-11.7385
-11.5012
-11.1911
-10.7806
-10.24
-9.55869
-8.75742
-7.92473
-19.8519
-17.2529
-15.8327
-14.9442
-14.3339
-13.9197
-13.6366
-13.4368
-13.2913
-13.1824
-13.0993
-13.0348
-12.984
-12.9436
-12.9111
-12.8849
-12.8634
-12.8457
-12.8309
-12.8182
-12.807
-12.7968
-12.7871
-12.7775
-12.7675
-12.7569
-12.7451
-12.7318
-12.7167
-12.6994
-12.6794
-12.6562
-12.6292
-12.5978
-12.5612
-12.5183
-12.4677
-12.4075
-12.3354
-12.2479
-12.1398
-12.0036
-11.8277
-11.5939
-11.2719
-10.8114
-10.1432
-9.18271
-7.67569
-4.95555
-24.7208
-18.3361
-15.6687
-14.5675
-13.9671
-13.6084
-13.3847
-13.2348
-13.128
-13.0487
-12.9883
-12.9414
-12.9046
-12.8756
-12.8527
-12.8345
-12.82
-12.8085
-12.7992
-12.7915
-12.7849
-12.7791
-12.7735
-12.7678
-12.7617
-12.7549
-12.7469
-12.7375
-12.7264
-12.7132
-12.6976
-12.6792
-12.6575
-12.632
-12.602
-12.5668
-12.5254
-12.4764
-12.418
-12.3476
-12.2615
-12.154
-12.0159
-11.8307
-11.5666
-11.1598
-10.494
-9.29777
-6.51232
-0.000190201
)
;

boundaryField
{
    movingWallTop
    {
        type            zeroGradient;
    }
    movingWallBottom
    {
        type            zeroGradient;
    }
    fixedWalls
    {
        type            zeroGradient;
    }
    frontAndBack
    {
        type            empty;
    }
}


// ************************************************************************* //
