/*--------------------------------*- C++ -*----------------------------------*\
  =========                 |
  \\      /  F ield         | OpenFOAM: The Open Source CFD Toolbox
   \\    /   O peration     | Website:  https://openfoam.org
    \\  /    A nd           | Version:  7
     \\/     M anipulation  |
\*---------------------------------------------------------------------------*/
FoamFile
{
    version     2.0;
    format      ascii;
    class       volScalarField;
    location    "0.0672";
    object      p;
}
// * * * * * * * * * * * * * * * * * * * * * * * * * * * * * * * * * * * * * //

dimensions      [0 2 -2 0 0 0 0];

internalField   nonuniform List<scalar> 
2500
(
1.33635e-05
-0.000504918
-0.002174
-0.00466418
-0.00759152
-0.0106384
-0.013562
-0.0161726
-0.0183259
-0.0199172
-0.0208729
-0.0211455
-0.0207089
-0.0195556
-0.017693
-0.0151416
-0.0119334
-0.00810971
-0.00372049
0.00117709
0.00651951
0.0122377
0.018258
0.0245026
0.0308904
0.0373379
0.0437599
0.0500704
0.0561835
0.0620145
0.0674814
0.0725056
0.0770138
0.0809393
0.0842239
0.0868191
0.0886887
0.0898103
0.0901778
0.0898035
0.0887208
0.0869877
0.0846897
0.0819452
0.078911
0.0757873
0.072826
0.0703367
0.0687116
0.0682387
0.000544151
2.35813e-05
-0.00133989
-0.00331657
-0.00562148
-0.00803078
-0.0103529
-0.0124296
-0.0141354
-0.0153745
-0.0160769
-0.0161949
-0.0156999
-0.0145802
-0.0128379
-0.0104878
-0.00755528
-0.00407508
-9.00949e-05
0.00434969
0.00918809
0.0143636
0.01981
0.0254575
0.031233
0.0370612
0.0428652
0.0485677
0.0540915
0.0593611
0.0643031
0.0688482
0.0729321
0.0764968
0.0794924
0.0818786
0.0836262
0.0847193
0.0851567
0.0849543
0.0841468
0.0827903
0.0809648
0.0787766
0.0763615
0.0738863
0.0715493
0.0695716
0.0682346
0.0677661
0.0022155
0.00139031
1.48942e-05
-0.00177352
-0.00379536
-0.00587683
-0.00786459
-0.00962867
-0.0110624
-0.0120817
-0.0126234
-0.0126432
-0.0121133
-0.0110209
-0.00936605
-0.00716031
-0.00442523
-0.00119113
0.00250388
0.00661488
0.011091
0.0158762
0.0209101
0.0261285
0.0314644
0.0368486
0.0422104
0.0474788
0.052583
0.0574537
0.0620241
0.066231
0.0700161
0.0733273
0.0761202
0.0783594
0.0800198
0.0810889
0.0815675
0.0814719
0.0808354
0.0797099
0.0781674
0.0763013
0.0742274
0.0720837
0.070029
0.0682383
0.0668946
0.0661454
0.00473789
0.00338069
0.00178112
-3.60611e-05
-0.00198789
-0.00393702
-0.00576021
-0.00735313
-0.00862787
-0.00951347
-0.00995557
-0.00991528
-0.00936802
-0.0083021
-0.00671735
-0.00462387
-0.00204098
0.00100388
0.004476
0.00833421
0.0125317
0.0170168
0.0217336
0.0266226
0.0316216
0.0366661
0.0416904
0.0466284
0.0514141
0.0559832
0.0602734
0.0642261
0.0677875
0.0709093
0.0735505
0.0756788
0.0772713
0.0783167
0.078816
0.0787841
0.0782507
0.0772619
0.0758804
0.0741865
0.0722773
0.0702653
0.06828
0.0664616
0.0649019
0.0636412
0.00775607
0.00574227
0.00380183
0.00183629
-0.000164069
-0.00209132
-0.00384755
-0.00535211
-0.00653525
-0.00733937
-0.00771975
-0.00764411
-0.00709219
-0.00605469
-0.00453228
-0.00253476
-8.0151e-05
0.00280608
0.00609178
0.00973882
0.0137038
0.0179386
0.0223912
0.0270062
0.0317253
0.0364883
0.0412337
0.0458992
0.0504233
0.0547453
0.0588069
0.0625529
0.0659327
0.0689009
0.071419
0.0734562
0.0749909
0.0760116
0.0765182
0.0765231
0.0760516
0.0751429
0.0738503
0.0722409
0.0703941
0.0683998
0.0663631
0.0643967
0.0625047
0.060607
0.0109978
0.00827649
0.00592257
0.00372359
0.00158523
-0.000407145
-0.00217624
-0.00366209
-0.00481162
-0.00558003
-0.0059323
-0.00584335
-0.00529787
-0.00428979
-0.0028215
-0.00090335
0.00144707
0.00420547
0.0073415
0.0108193
0.0145982
0.018633
0.0228748
0.0272716
0.0317685
0.0363087
0.0408341
0.0452857
0.0496052
0.053735
0.0576196
0.0612065
0.0644472
0.067298
0.0697219
0.0716886
0.0731765
0.0741731
0.0746764
0.0746952
0.0742499
0.0733726
0.0721071
0.0705084
0.06864
0.0665724
0.0643916
0.0621894
0.0598891
0.0573
0.0142565
0.0108153
0.00800635
0.00551512
0.00317255
0.0010479
-0.000797583
-0.00232152
-0.00348553
-0.00425657
-0.00460898
-0.00452491
-0.00399437
-0.003015
-0.00159156
0.000264398
0.00253498
0.00519639
0.00821938
0.0115697
0.0152087
0.0190934
0.0231776
0.0274117
0.0317435
0.0361191
0.0404829
0.0447786
0.0489502
0.0529423
0.0567014
0.0601765
0.0633204
0.0660905
0.0684497
0.0703677
0.0718218
0.0727979
0.0732909
0.0733057
0.0728573
0.071971
0.0706817
0.0690334
0.0670761
0.0648641
0.0624691
0.0599688
0.0572155
0.0539199
0.017372
0.0132179
0.00993346
0.00711249
0.00452029
0.00221522
0.000246343
-0.00135856
-0.00257382
-0.00337692
-0.00375092
-0.00368493
-0.00317437
-0.00222084
-0.00083187
0.00097928
0.00319388
0.00578805
0.00873305
0.0119957
0.0155386
0.0193207
0.0232975
0.0274215
0.0316426
0.0359088
0.0401665
0.0443614
0.0484389
0.0523453
0.0560281
0.0594371
0.0625255
0.0652507
0.067575
0.0694672
0.0709026
0.0718646
0.0723449
0.072344
0.0718715
0.0709458
0.0695939
0.0678502
0.0657534
0.063345
0.0606862
0.0578463
0.0546155
0.0506167
0.0202188
0.0153671
0.0115991
0.00842543
0.00555335
0.00303428
0.000908354
-0.000808714
-0.00210209
-0.00295857
-0.00336911
-0.00332942
-0.00284017
-0.00190701
-0.000540503
0.00124405
0.00342667
0.00598292
0.00888412
0.0120976
0.0155868
0.0193119
0.0232296
0.027294
0.0314563
0.0356662
0.0398712
0.0440183
0.048054
0.051925
0.0555795
0.0589672
0.062041
0.0647574
0.0670777
0.0689685
0.0704029
0.0713612
0.0718313
0.0718091
0.0712988
0.0703126
0.06887
0.0669974
0.0647241
0.0620815
0.0591244
0.0559173
0.0521963
0.0475047
0.0226971
0.0171643
0.0129109
0.00937104
0.00619942
0.0034436
0.0011373
-0.000713663
-0.0021037
-0.00302772
-0.00348384
-0.00347385
-0.00300346
-0.0020824
-0.000724319
0.00105315
0.0032285
0.00577638
0.00866773
0.0118699
0.015347
0.0190596
0.0229653
0.0270192
0.0311736
0.0353788
0.0395833
0.0437346
0.0477795
0.051665
0.0553388
0.0587501
0.0618508
0.0645958
0.0669444
0.0688609
0.0703152
0.0712842
0.0717516
0.0717086
0.071154
0.070094
0.0685418
0.0665167
0.0640406
0.0611371
0.057857
0.0542642
0.0500457
0.0446719
0.0247245
0.0185244
0.0137865
0.00987268
0.00638918
0.00338186
0.000879961
-0.00111892
-0.00261706
-0.00361651
-0.00412177
-0.00414029
-0.0036826
-0.00276235
-0.00139643
0.000395116
0.00258899
0.00515864
0.00807433
0.0113032
0.0148091
0.0185531
0.0224934
0.0265852
0.0307815
0.0350329
0.0392883
0.0434953
0.0476004
0.0515501
0.0552912
0.0587719
0.0619421
0.0647548
0.0671665
0.0691386
0.0706376
0.071636
0.0721133
0.0720558
0.071457
0.0703174
0.0686445
0.0664517
0.0637547
0.0605714
0.0569511
0.052959
0.0482375
0.0421879
0.0262295
0.0193717
0.0141504
0.00985821
0.00605545
0.00278777
8.13537e-05
-0.00207314
-0.00368481
-0.00476199
-0.00531498
-0.00535651
-0.00490165
-0.00396794
-0.00257546
-0.000746811
0.00149277
0.00411531
0.00709009
0.0103836
0.0139596
0.0177789
0.0217997
0.0259774
0.0302651
0.0346134
0.0389711
0.0432851
0.0475016
0.0515658
0.0554233
0.0590203
0.0623046
0.0652263
0.067739
0.0698002
0.0713724
0.0724238
0.0729289
0.072869
0.0722323
0.071014
0.0692163
0.0668474
0.0639182
0.0604423
0.056469
0.052067
0.0468361
0.040111
0.0271471
0.019636
0.0139317
0.00925842
0.00513227
0.00159969
-0.00131528
-0.00362793
-0.00535342
-0.00650573
-0.00710054
-0.00715551
-0.00669007
-0.00572557
-0.00428528
-0.00239442
-8.03297e-05
0.00262742
0.00569693
0.00909386
0.0127813
0.0167199
0.0208674
0.0251791
0.0296078
0.0341038
0.0386152
0.0430884
0.0474681
0.0516984
0.0557227
0.0594849
0.0629302
0.0660053
0.06866
0.0708476
0.0725262
0.0736589
0.0742151
0.0741707
0.0735086
0.0722188
0.0702984
0.0677511
0.0645838
0.0608068
0.0564706
0.051649
0.0459003
0.038493
0.0274152
0.0192505
0.0130615
0.00800525
0.00355372
-0.000245173
-0.0033688
-0.00583785
-0.00767301
-0.0088935
-0.00952005
-0.00957503
-0.00908215
-0.00806646
-0.00655447
-0.00457409
-0.00215485
0.000671912
0.00387292
0.00741281
0.0112539
0.0153562
0.019677
0.0241711
0.0287908
0.0334858
0.0382032
0.0428883
0.0474845
0.0519337
0.0561773
0.0601562
0.0638122
0.0670884
0.0699301
0.072286
0.0741089
0.0753566
0.0759929
0.0759879
0.0753189
0.0739706
0.0719354
0.0692126
0.0658058
0.0617224
0.0570156
0.0517647
0.0454868
0.0373833
0.0269722
0.0181483
0.0114715
0.00603025
0.00125271
-0.00281144
-0.00614065
-0.00876067
-0.0106974
-0.0119751
-0.0126194
-0.0126573
-0.0121166
-0.0110262
-0.00941591
-0.0073163
-0.00475926
-0.00177802
0.00159263
0.00531614
0.00935391
0.0136651
0.0182064
0.022932
0.0277935
0.0327394
0.0377162
0.0426674
0.0475347
0.0522579
0.0567755
0.0610253
0.0649452
0.068474
0.0715521
0.0741229
0.0761334
0.0775356
0.0782868
0.0783511
0.0776999
0.0763123
0.0741755
0.0712852
0.0676413
0.0632493
0.0581651
0.0524746
0.0456527
0.0368318
0.0257545
0.0162617
0.00909156
0.00326321
-0.00183998
-0.00616638
-0.00969536
-0.0124576
-0.0144842
-0.0158044
-0.0164487
-0.0164486
-0.0158364
-0.0146446
-0.0129064
-0.0106553
-0.00792563
-0.00475257
-0.00117254
0.00277658
0.00705515
0.0116215
0.0164314
0.0214385
0.0265932
0.0318433
0.0371339
0.0424069
0.047602
0.0526564
0.0575056
0.0620837
0.0663245
0.0701617
0.0735305
0.0763682
0.0786155
0.0802175
0.0811249
0.081295
0.0806925
0.0792907
0.0770715
0.0740262
0.0701516
0.065451
0.0599836
0.0538425
0.0464585
0.0368919
0.0236956
0.0135197
0.00584892
-0.000369045
-0.00579678
-0.0103807
-0.0141011
-0.0169938
-0.0190951
-0.0204393
-0.0210619
-0.0209993
-0.0202882
-0.0189649
-0.0170662
-0.0146287
-0.0116891
-0.00828479
-0.00445391
-0.000235679
0.00432914
0.00919788
0.0143257
0.019665
0.0251657
0.0307744
0.0364347
0.0420869
0.0476685
0.0531139
0.0583553
0.0633229
0.0679457
0.072152
0.0758711
0.0790335
0.081573
0.083427
0.0845388
0.084858
0.0843422
0.0829577
0.0806809
0.0774984
0.0734032
0.0683966
0.0625411
0.0559373
0.0479696
0.0376226
0.0207239
0.00984716
0.00166659
-0.00494387
-0.0106943
-0.0155294
-0.0194304
-0.0224385
-0.0245956
-0.0259415
-0.026517
-0.0263634
-0.0255221
-0.0240337
-0.0219386
-0.0192767
-0.0160873
-0.01241
-0.00828484
-0.00375235
0.00114556
0.0063653
0.0118612
0.0175849
0.0234854
0.0295083
0.0355958
0.0416865
0.0477155
0.0536144
0.059312
0.064734
0.0698044
0.0744457
0.0785805
0.082132
0.0850259
0.0871916
0.0885635
0.0890828
0.0886988
0.0873704
0.0850672
0.0817705
0.0774691
0.0721617
0.0659143
0.058835
0.050259
0.0390903
0.0167626
0.0051635
-0.00353778
-0.0105439
-0.0166145
-0.0216925
-0.0257606
-0.0288658
-0.0310561
-0.0323772
-0.0328755
-0.0325981
-0.0315912
-0.0299002
-0.0275692
-0.0246416
-0.0211596
-0.0171652
-0.0127001
-0.0078064
-0.00252701
0.00309359
0.00900901
0.0151703
0.0215257
0.0280197
0.0345934
0.0411836
0.0477233
0.0541412
0.0603622
0.0663078
0.0718963
0.077044
0.0816661
0.0856779
0.0889963
0.0915411
0.0932372
0.094016
0.0938175
0.0925917
0.0903005
0.0869187
0.0824303
0.0768306
0.0701887
0.0626207
0.0534089
0.0413711
0.0117278
-0.000618612
-0.00985315
-0.0172583
-0.0236453
-0.0289559
-0.0331746
-0.0363548
-0.0385514
-0.0398164
-0.0402029
-0.039764
-0.0385515
-0.0366157
-0.0340052
-0.0307671
-0.0269466
-0.022588
-0.0177351
-0.0124312
-0.00672032
-0.000647621
0.00573997
0.0123931
0.0192593
0.0262826
0.0334029
0.0405557
0.0476716
0.0546766
0.061492
0.0680344
0.0742165
0.079948
0.085136
0.0896869
0.0935079
0.0965083
0.0986019
0.0997092
0.099759
0.0986912
0.0964584
0.0930278
0.0883772
0.0824974
0.0754606
0.0673906
0.0575126
0.0445524
0.00552792
-0.00759437
-0.0173763
-0.0251837
-0.0318823
-0.0374127
-0.0417618
-0.0449905
-0.0471612
-0.0483336
-0.048568
-0.0479243
-0.0464607
-0.0442331
-0.0412949
-0.0376972
-0.0334885
-0.0287157
-0.0234244
-0.0176593
-0.0114653
-0.00488793
0.00202556
0.00922565
0.0166598
0.0242715
0.0320002
0.0397799
0.0475397
0.0552028
0.0626868
0.0699036
0.0767602
0.0831588
0.0889983
0.0941753
0.0985861
0.102128
0.104703
0.106218
0.10659
0.105746
0.103627
0.100192
0.0954109
0.0892682
0.0818387
0.0732538
0.0626772
0.0487352
-0.00193742
-0.0158682
-0.0262133
-0.0344261
-0.0414295
-0.0471636
-0.0516186
-0.0548639
-0.0569707
-0.0580074
-0.0580426
-0.0571444
-0.0553779
-0.0528055
-0.0494861
-0.0454749
-0.0408243
-0.0355839
-0.0298008
-0.0235213
-0.0167907
-0.0096548
-0.00216073
0.00564229
0.013702
0.0219621
0.0303617
0.0388342
0.0473073
0.0557017
0.0639318
0.071905
0.0795219
0.0866776
0.0932617
0.0991604
0.104258
0.108439
0.11159
0.113605
0.114384
0.11384
0.111903
0.108518
0.103645
0.097263
0.0894466
0.080335
0.0690249
0.0540361
-0.0107787
-0.025555
-0.036481
-0.0451016
-0.052401
-0.0583188
-0.0628498
-0.066073
-0.0680704
-0.0689204
-0.0687016
-0.0674911
-0.0653626
-0.0623855
-0.0586249
-0.0541411
-0.0489903
-0.0432246
-0.0368935
-0.0300438
-0.0227215
-0.014972
-0.00684194
0.00162043
0.0103637
0.0193324
0.028466
0.0376979
0.0469549
0.0561561
0.0652127
0.0740278
0.0824962
0.0905052
0.0979349
0.10466
0.110552
0.115481
0.119316
0.121935
0.123221
0.12307
0.121393
0.118124
0.11321
0.106618
0.0984251
0.0887768
0.0766968
0.0605895
-0.021118
-0.0367824
-0.0483087
-0.0573392
-0.0649224
-0.0709988
-0.0755688
-0.0787233
-0.0805566
-0.0811594
-0.0806218
-0.079032
-0.0764733
-0.0730235
-0.0687545
-0.0637325
-0.0580175
-0.0516649
-0.0447258
-0.0372479
-0.029277
-0.0208579
-0.0120359
-0.00285767
0.00662695
0.0163642
0.0262947
0.0363529
0.0464652
0.0565499
0.0665158
0.0762621
0.0856778
0.0946426
0.103027
0.110693
0.117499
0.123296
0.127938
0.131282
0.133189
0.133537
0.132217
0.129144
0.124249
0.117488
0.108935
0.0987427
0.0858547
0.0685507
-0.0330905
-0.0496924
-0.0618413
-0.0712822
-0.0791331
-0.0853364
-0.0898996
-0.0929283
-0.0945315
-0.0948145
-0.0938817
-0.0918339
-0.0887661
-0.0847656
-0.0799126
-0.0742792
-0.0679303
-0.0609242
-0.0533135
-0.0451466
-0.0364686
-0.027323
-0.017753
-0.0078029
0.00248012
0.0130449
0.0238344
0.0347848
0.0458238
0.0568693
0.0678289
0.0785983
0.0890616
0.0990909
0.108547
0.117279
0.125128
0.13193
0.137518
0.141723
0.144386
0.145359
0.144508
0.141727
0.136928
0.130049
0.121161
0.110421
0.0966856
0.0780993
-0.0468474
-0.0644448
-0.0772413
-0.0870917
-0.0951889
-0.101479
-0.105978
-0.10881
-0.110103
-0.109979
-0.10856
-0.105961
-0.102293
-0.0976521
-0.0921291
-0.0858028
-0.078743
-0.0710112
-0.0626615
-0.0537422
-0.0442971
-0.0343676
-0.023994
-0.0132171
-0.00208016
0.00936929
0.021078
0.0329852
0.0450208
0.0571041
0.0691421
0.0810287
0.0926435
0.103851
0.114503
0.124435
0.133473
0.141431
0.148119
0.153343
0.156917
0.158661
0.158416
0.156044
0.151434
0.144504
0.135315
0.124029
0.109406
0.0894426
-0.0625585
-0.0812208
-0.0946936
-0.10495
-0.113265
-0.119589
-0.123953
-0.126502
-0.127385
-0.126749
-0.124733
-0.121475
-0.117098
-0.111714
-0.105423
-0.0983126
-0.0904573
-0.0819217
-0.0727611
-0.0630232
-0.0527498
-0.0419791
-0.0307473
-0.0190904
-0.00704659
0.00534191
0.018027
0.0309525
0.0440523
0.0572484
0.0704492
0.0835477
0.0964203
0.108926
0.120905
0.132183
0.142565
0.151846
0.15981
0.166233
0.170896
0.173585
0.174105
0.172285
0.16798
0.161083
0.151642
0.139818
0.124265
0.102821
-0.0804168
-0.100228
-0.11441
-0.125066
-0.13356
-0.139852
-0.14399
-0.146146
-0.146498
-0.145219
-0.142477
-0.138428
-0.133216
-0.12697
-0.1198
-0.111802
-0.103058
-0.093634
-0.0835864
-0.0729613
-0.0617975
-0.0501289
-0.037986
-0.0253988
-0.0123987
0.00097901
0.0146932
0.0286942
0.0429218
0.0573026
0.0717481
0.0861524
0.10039
0.114316
0.127762
0.140539
0.152437
0.163226
0.172662
0.180489
0.186448
0.190285
0.191762
0.190666
0.186811
0.180053
0.170424
0.158079
0.141555
0.118514
-0.100644
-0.121706
-0.136637
-0.147679
-0.156301
-0.162473
-0.166269
-0.167895
-0.167566
-0.165487
-0.161859
-0.156864
-0.15067
-0.143422
-0.135246
-0.126246
-0.116509
-0.106106
-0.0950904
-0.0835074
-0.071391
-0.0587691
-0.0456653
-0.0321015
-0.0181007
-0.00368901
0.0111011
0.0262289
0.0416419
0.057274
0.0730421
0.0888436
0.104554
0.120025
0.135082
0.149523
0.16312
0.17562
0.186748
0.19621
0.203705
0.20893
0.211593
0.21143
0.208202
0.201721
0.191989
0.179155
0.161618
0.136847
-0.123499
-0.145939
-0.161663
-0.173072
-0.18175
-0.187689
-0.190994
-0.191916
-0.190717
-0.187645
-0.182938
-0.176812
-0.169461
-0.161052
-0.151724
-0.141593
-0.130751
-0.119269
-0.107201
-0.0945883
-0.0814578
-0.0678299
-0.0537194
-0.0391382
-0.0240985
-0.00861556
0.00728963
0.0235872
0.0402357
0.0571783
0.0743405
0.0916258
0.108913
0.126054
0.142869
0.159146
0.174641
0.189075
0.20214
0.213502
0.22281
0.229703
0.233827
0.234852
0.232474
0.226443
0.216724
0.203445
0.184853
0.158203
-0.149286
-0.173263
-0.189832
-0.201575
-0.210213
-0.215767
-0.218388
-0.218387
-0.216082
-0.211778
-0.205758
-0.19828
-0.189568
-0.179811
-0.169168
-0.157762
-0.145691
-0.133026
-0.119819
-0.106103
-0.0918986
-0.0772162
-0.062059
-0.0464267
-0.0303185
-0.0137361
0.00331341
0.020814
0.0387375
0.0570403
0.0756591
0.0945073
0.113471
0.132404
0.151127
0.169419
0.187021
0.203631
0.218907
0.232469
0.24391
0.252802
0.258717
0.261242
0.259991
0.254633
0.245078
0.231423
0.211737
0.183033
-0.178373
-0.204085
-0.221558
-0.233584
-0.242049
-0.247017
-0.248703
-0.247496
-0.243791
-0.23796
-0.230345
-0.22125
-0.210937
-0.199621
-0.187476
-0.174636
-0.161202
-0.147244
-0.132808
-0.117918
-0.102585
-0.0868056
-0.0705695
-0.0538617
-0.0366657
-0.018967
-0.000756058
0.0179679
0.0371935
0.0568934
0.0770196
0.0974994
0.11823
0.139074
0.159852
0.180343
0.200275
0.219322
0.23711
0.253211
0.267155
0.278438
0.28654
0.290949
0.291171
0.286773
0.277585
0.263655
0.242837
0.211873
-0.211207
-0.238906
-0.257351
-0.269579
-0.277683
-0.281795
-0.282216
-0.279442
-0.273965
-0.266244
-0.256692
-0.245668
-0.233475
-0.220356
-0.206502
-0.192056
-0.177118
-0.161753
-0.145999
-0.129869
-0.113357
-0.0964465
-0.0791097
-0.0613137
-0.0430236
-0.0242056
-0.00483066
0.015122
0.0356612
0.0567796
0.078449
0.100615
0.123192
0.146054
0.169033
0.191907
0.214399
0.236165
0.256797
0.275819
0.292694
0.306829
0.317597
0.324363
0.326499
0.323432
0.314882
0.300819
0.278841
0.245369
-0.248346
-0.278353
-0.297838
-0.310143
-0.317624
-0.320511
-0.319234
-0.314427
-0.306712
-0.296654
-0.284752
-0.27143
-0.257036
-0.241841
-0.226051
-0.209812
-0.193223
-0.176338
-0.159182
-0.14175
-0.124022
-0.105958
-0.0875122
-0.0686299
-0.0492548
-0.0293311
-0.00880701
0.0123616
0.0342073
0.0567471
0.0799768
0.103866
0.128351
0.153327
0.178641
0.204081
0.229369
0.254151
0.27799
0.300364
0.320662
0.338194
0.352209
0.361919
0.366526
0.365275
0.35773
0.343742
0.320587
0.284307
-0.290499
-0.323224
-0.343816
-0.356
-0.362481
-0.363642
-0.360091
-0.352652
-0.342111
-0.329167
-0.314422
-0.298371
-0.28141
-0.263835
-0.245864
-0.22764
-0.209251
-0.190738
-0.172104
-0.153324
-0.134354
-0.115131
-0.0955849
-0.0756362
-0.0552042
-0.0342079
-0.0125696
0.00978129
0.0329049
0.0568465
0.0816313
0.107258
0.133693
0.16086
0.188628
0.216808
0.24513
0.273239
0.300679
0.326883
0.351169
0.372743
0.390707
0.404094
0.411887
0.413091
0.407053
0.39344
0.369114
0.329655
-0.338582
-0.374549
-0.396297
-0.408051
-0.41299
-0.411734
-0.405143
-0.394297
-0.380194
-0.363696
-0.345521
-0.326246
-0.306307
-0.286024
-0.265614
-0.245211
-0.224882
-0.204644
-0.184474
-0.164317
-0.1441
-0.123733
-0.103115
-0.0821419
-0.0607031
-0.0386897
-0.0159956
0.00747986
0.0318277
0.0571259
0.083434
0.110787
0.139187
0.168595
0.198917
0.229994
0.261582
0.293336
0.324795
0.35536
0.384281
0.410655
0.433423
0.451402
0.463301
0.467813
0.463974
0.451178
0.425731
0.382628
-0.393806
-0.433691
-0.456596
-0.467427
-0.470038
-0.465405
-0.454754
-0.439501
-0.420916
-0.400055
-0.377767
-0.354704
-0.331341
-0.308004
-0.284897
-0.262131
-0.239739
-0.217702
-0.195959
-0.174422
-0.15298
-0.131509
-0.109877
-0.0879461
-0.0655763
-0.0426275
-0.018962
0.00555323
0.0310436
0.0576237
0.0853922
0.114426
0.144774
0.176442
0.209387
0.243494
0.278563
0.314279
0.350195
0.385698
0.419987
0.452051
0.480659
0.504377
0.521579
0.530543
0.529874
0.518552
0.492114
0.44478
-0.457808
-0.50248
-0.526437
-0.53556
-0.534686
-0.525341
-0.509262
-0.48832
-0.464114
-0.437925
-0.410736
-0.383265
-0.356005
-0.329267
-0.303221
-0.277932
-0.253385
-0.22951
-0.206197
-0.18331
-0.160698
-0.138197
-0.115638
-0.0928471
-0.0696514
-0.0458777
-0.0213546
0.0040855
0.0306052
0.0583592
0.0874901
0.118124
0.150361
0.184268
0.219863
0.257096
0.295829
0.335808
0.376626
0.417686
0.45816
0.496948
0.532649
0.563547
0.587609
0.60258
0.606461
0.597605
0.570452
0.518141
-0.532862
-0.583427
-0.608115
-0.614263
-0.608192
-0.592262
-0.568935
-0.540662
-0.509443
-0.476797
-0.443826
-0.411287
-0.379656
-0.349193
-0.320004
-0.292081
-0.265336
-0.239632
-0.214797
-0.190639
-0.166955
-0.143536
-0.120173
-0.0966541
-0.0727704
-0.0483142
-0.0230794
0.00313811
0.0305397
0.0593226
0.0896778
0.121785
0.155807
0.191879
0.230097
0.270498
0.313033
0.357537
0.403686
0.450942
0.498495
0.545195
0.58949
0.62937
0.66233
0.685432
0.69585
0.690992
0.663673
0.605444
-0.622225
-0.680055
-0.704714
-0.705829
-0.692003
-0.666865
-0.633868
-0.596196
-0.556293
-0.515903
-0.476204
-0.437933
-0.40149
-0.367038
-0.334571
-0.303974
-0.275062
-0.247607
-0.221361
-0.196065
-0.171458
-0.14728
-0.123278
-0.0992004
-0.0748023
-0.0498406
-0.0240739
0.00273829
0.0308371
0.0604641
0.0918606
0.125265
0.16091
0.19901
0.239756
0.283292
0.329691
0.378917
0.430778
0.484858
0.540434
0.596377
0.651039
0.702143
0.746659
0.780813
0.800662
0.802203
0.775782
0.710486
-0.73073
-0.797413
-0.82041
-0.813113
-0.787701
-0.749687
-0.703839
-0.654203
-0.603666
-0.554127
-0.506743
-0.46213
-0.420531
-0.381931
-0.346163
-0.31296
-0.282007
-0.252967
-0.225499
-0.199265
-0.173941
-0.149214
-0.124784
-0.100359
-0.0756578
-0.0504034
-0.0243204
0.00286748
0.0314399
0.0616827
0.0938888
0.128359
0.165398
0.205314
0.248404
0.294945
0.345161
0.399197
0.457054
0.51852
0.583061
0.649682
0.716757
0.781826
0.841349
0.890578
0.924107
0.935875
0.912405
0.838763
-0.865881
-0.942901
-0.96087
-0.939582
-0.896839
-0.84086
-0.778051
-0.713365
-0.650023
-0.589902
-0.533962
-0.482548
-0.435615
-0.392884
-0.353951
-0.318353
-0.285613
-0.25526
-0.226848
-0.199955
-0.174187
-0.149176
-0.124576
-0.100056
-0.0753024
-0.0500044
-0.0238562
0.00345116
0.0322336
0.0628188
0.0955502
0.13079
0.168922
0.210349
0.255492
0.304777
0.358619
0.417388
0.481357
0.55062
0.624971
0.703725
0.785476
0.867781
0.946723
1.01654
1.07003
1.0982
1.08163
0.998625
-1.03993
-1.12757
-1.13371
-1.08921
-1.02057
-0.939681
-0.854758
-0.771484
-0.693088
-0.621094
-0.555974
-0.497578
-0.44541
-0.398812
-0.357069
-0.319471
-0.285348
-0.254081
-0.225107
-0.197915
-0.172044
-0.147071
-0.122607
-0.0982876
-0.0737674
-0.0487098
-0.0227819
0.004353
0.0330422
0.0636509
0.0965687
0.132217
0.171055
0.213586
0.260358
0.311967
0.369044
0.432238
0.502173
0.579371
0.664129
0.756325
0.855083
0.958357
1.06221
1.16008
1.24277
1.29738
1.29538
1.20348
-1.27411
-1.36813
-1.34881
-1.26595
-1.15886
-1.04386
-0.930685
-0.825088
-0.729627
-0.644896
-0.570452
-0.50535
-0.448449
-0.398586
-0.354662
-0.315679
-0.280752
-0.249105
-0.220057
-0.193012
-0.167445
-0.142886
-0.11891
-0.095123
-0.0711569
-0.0466546
-0.0212635
0.00537399
0.0336296
0.0638986
0.0966095
0.132235
0.171305
0.214415
0.262244
0.31556
0.375234
0.442232
0.517603
0.602429
0.697721
0.804225
0.92208
1.05025
1.18554
1.32127
1.44662
1.54392
1.57143
1.47629
-1.60743
-1.68994
-1.61777
-1.47201
-1.30869
-1.14813
-1.00008
-0.868871
-0.755149
-0.657704
-0.574604
-0.503758
-0.443175
-0.391079
-0.345932
-0.306427
-0.271462
-0.24011
-0.211583
-0.185213
-0.160421
-0.1367
-0.1136
-0.0907107
-0.067647
-0.0440413
-0.0195299
0.00625671
0.033705
0.0632299
0.0952879
0.130391
0.169125
0.212168
0.260312
0.314495
0.375821
0.445597
0.525349
0.616829
0.721971
0.842767
0.980971
1.13749
1.31122
1.497
1.68394
1.85001
1.93647
1.85869
-2.11195
-2.13071
-1.95201
-1.70483
-1.46141
-1.2424
-1.05371
-0.895248
-0.763802
-0.655183
-0.565312
-0.490611
-0.428084
-0.375283
-0.330227
-0.29132
-0.257267
-0.227016
-0.199701
-0.174599
-0.151101
-0.128681
-0.106877
-0.0852709
-0.0634776
-0.0411279
-0.0178578
0.00670297
0.032944
0.061287
0.0922009
0.12622
0.163966
0.206172
0.253722
0.307688
0.369384
0.440433
0.522844
0.619091
0.732194
0.86574
1.02378
1.21042
1.42865
1.67813
1.95197
2.22761
2.42964
2.42622
-2.91847
-2.74061
-2.35924
-1.95488
-1.60158
-1.31172
-1.07953
-0.89539
-0.749484
-0.633302
-0.540024
-0.464374
-0.402321
-0.350794
-0.307437
-0.270432
-0.238356
-0.210084
-0.18471
-0.161493
-0.139817
-0.119159
-0.0990626
-0.0791201
-0.0589558
-0.0382122
-0.0165371
0.00642929
0.031066
0.0577864
0.0870543
0.119404
0.155465
0.195996
0.241923
0.294403
0.354894
0.425264
0.507928
0.606037
0.72372
0.86638
1.04098
1.2562
1.52205
1.8484
2.24049
2.68437
3.10192
3.31313
-4.3238
-3.56011
-2.81527
-2.18888
-1.69864
-1.33227
-1.06124
-0.859022
-0.706094
-0.588668
-0.497036
-0.424361
-0.365798
-0.31786
-0.277991
-0.244282
-0.215283
-0.189868
-0.167148
-0.146405
-0.127049
-0.108582
-0.090573
-0.0726398
-0.0544306
-0.0356115
-0.0158537
0.00517873
0.0278413
0.0525232
0.0796634
0.109772
0.143454
0.181449
0.224672
0.274285
0.331788
0.399152
0.479021
0.575004
0.69211
0.837406
1.02093
1.25694
1.56562
1.97463
2.51378
3.19365
3.99339
4.82421
-7.15782
-4.55836
-3.13906
-2.25255
-1.64495
-1.234
-0.954356
-0.757893
-0.615319
-0.508989
-0.427747
-0.364307
-0.313786
-0.27281
-0.238977
-0.210533
-0.186161
-0.16485
-0.145806
-0.128394
-0.112091
-0.0964583
-0.0811154
-0.0657259
-0.0499801
-0.0335842
-0.0162477
0.00232438
0.0224462
0.0444615
0.0687587
0.0957898
0.126094
0.16033
0.19932
0.244116
0.296087
0.357065
0.429552
0.517066
0.624695
0.760023
0.934672
1.16699
1.48734
1.94597
2.61235
3.57105
5.07652
7.79534
-12.0262
-5.64114
-2.97477
-1.87579
-1.27863
-0.923843
-0.704153
-0.558307
-0.455155
-0.37894
-0.320835
-0.275444
-0.239262
-0.209892
-0.185626
-0.165199
-0.147654
-0.132246
-0.118383
-0.105585
-0.0934528
-0.0816492
-0.0698792
-0.0578793
-0.045406
-0.0322268
-0.0181134
-0.00283023
0.0138703
0.0322588
0.0526396
0.0753644
0.10085
0.129599
0.162237
0.199553
0.242565
0.292623
0.351557
0.421936
0.507506
0.614001
0.750738
0.934119
1.1961
1.60051
2.26385
3.45768
6.24112
12.7519
)
;

boundaryField
{
    movingWall
    {
        type            zeroGradient;
    }
    fixedWalls
    {
        type            zeroGradient;
    }
    frontAndBack
    {
        type            empty;
    }
}


// ************************************************************************* //
