/*--------------------------------*- C++ -*----------------------------------*\
  =========                 |
  \\      /  F ield         | OpenFOAM: The Open Source CFD Toolbox
   \\    /   O peration     | Website:  https://openfoam.org
    \\  /    A nd           | Version:  7
     \\/     M anipulation  |
\*---------------------------------------------------------------------------*/
FoamFile
{
    version     2.0;
    format      ascii;
    class       volVectorField;
    location    "0.0594";
    object      U;
}
// * * * * * * * * * * * * * * * * * * * * * * * * * * * * * * * * * * * * * //

dimensions      [0 1 -1 0 0 0 0];

internalField   nonuniform List<vector> 
2500
(
(2.98053e-05 -2.99247e-05 0)
(9.05408e-05 -3.66081e-05 0)
(0.000124843 -1.87428e-05 0)
(9.32987e-05 7.48772e-06 0)
(-1.60847e-05 3.43496e-05 0)
(-0.000201728 5.90517e-05 0)
(-0.000456595 8.04551e-05 0)
(-0.000771524 9.82253e-05 0)
(-0.00113632 0.00011238 0)
(-0.00154052 0.000123069 0)
(-0.00197376 0.000130491 0)
(-0.00242608 0.000134862 0)
(-0.00288796 0.000136405 0)
(-0.00335046 0.000135339 0)
(-0.00380524 0.00013188 0)
(-0.0042446 0.000126239 0)
(-0.00466147 0.000118621 0)
(-0.00504944 0.000109226 0)
(-0.00540273 9.825e-05 0)
(-0.00571624 8.58839e-05 0)
(-0.00598551 7.2318e-05 0)
(-0.00620672 5.77421e-05 0)
(-0.00637676 4.23473e-05 0)
(-0.00649314 2.63276e-05 0)
(-0.00655409 9.88133e-06 0)
(-0.00655855 -6.78665e-06 0)
(-0.00650618 -2.34643e-05 0)
(-0.00639738 -3.99316e-05 0)
(-0.00623334 -5.59602e-05 0)
(-0.00601603 -7.13137e-05 0)
(-0.00574826 -8.57481e-05 0)
(-0.00543364 -9.9013e-05 0)
(-0.00507666 -0.000110854 0)
(-0.00468263 -0.000121013 0)
(-0.00425769 -0.000129236 0)
(-0.00380882 -0.00013527 0)
(-0.00334377 -0.00013887 0)
(-0.00287101 -0.000139803 0)
(-0.00239968 -0.000137848 0)
(-0.00193952 -0.000132806 0)
(-0.0015007 -0.000124496 0)
(-0.00109374 -0.000112771 0)
(-0.000729253 -9.75229e-05 0)
(-0.000417714 -7.87166e-05 0)
(-0.000168946 -5.64778e-05 0)
(8.60067e-06 -3.13191e-05 0)
(0.000109124 -4.54544e-06 0)
(0.000132203 2.08342e-05 0)
(9.18232e-05 3.75615e-05 0)
(2.9432e-05 2.93717e-05 0)
(3.68585e-05 -9.08808e-05 0)
(8.30972e-05 -8.23439e-05 0)
(3.414e-05 1.78489e-05 0)
(-0.000170038 0.000154241 0)
(-0.000553247 0.000298428 0)
(-0.00111589 0.000435918 0)
(-0.00184621 0.000559139 0)
(-0.00272526 0.000664446 0)
(-0.00373004 0.000750328 0)
(-0.00483559 0.000816427 0)
(-0.00601624 0.000863043 0)
(-0.00724656 0.000890869 0)
(-0.00850183 0.000900834 0)
(-0.00975843 0.000894014 0)
(-0.0109941 0.000871569 0)
(-0.012188 0.000834716 0)
(-0.013321 0.000784697 0)
(-0.0143756 0.00072277 0)
(-0.0153359 0.000650202 0)
(-0.0161881 0.000568269 0)
(-0.0169198 0.000478251 0)
(-0.0175206 0.000381446 0)
(-0.0179819 0.000279166 0)
(-0.0182971 0.000172749 0)
(-0.0184612 6.35668e-05 0)
(-0.0184716 -4.6975e-05 0)
(-0.0183273 -0.000157427 0)
(-0.0180297 -0.000266298 0)
(-0.0175822 -0.000372052 0)
(-0.0169903 -0.000473113 0)
(-0.0162618 -0.000567874 0)
(-0.0154067 -0.000654704 0)
(-0.0144374 -0.000731963 0)
(-0.0133683 -0.000798024 0)
(-0.0122161 -0.00085129 0)
(-0.0109997 -0.000890221 0)
(-0.00973979 -0.000913369 0)
(-0.00845901 -0.000919403 0)
(-0.00718152 -0.000907158 0)
(-0.00593272 -0.000875677 0)
(-0.00473889 -0.000824278 0)
(-0.00362667 -0.000752647 0)
(-0.0026223 -0.000660978 0)
(-0.00175071 -0.000550231 0)
(-0.00103407 -0.000422601 0)
(-0.000489725 -0.000282465 0)
(-0.000126939 -0.000138049 0)
(5.77436e-05 -4.46288e-06 0)
(9.13844e-05 9.03439e-05 0)
(3.79048e-05 9.18246e-05 0)
(1.9973e-05 -0.000126751 0)
(-1.3701e-05 -3.43985e-05 0)
(-0.000227319 0.000232881 0)
(-0.00067162 0.000576488 0)
(-0.00136974 0.000941146 0)
(-0.00232238 0.00129339 0)
(-0.0035144 0.00161351 0)
(-0.0049204 0.00189048 0)
(-0.00650859 0.00211862 0)
(-0.00824355 0.00229553 0)
(-0.0100882 0.0024209 0)
(-0.0120051 0.00249575 0)
(-0.0139574 0.002522 0)
(-0.0159096 0.00250214 0)
(-0.0178278 0.00243906 0)
(-0.0196804 0.00233589 0)
(-0.0214379 0.00219594 0)
(-0.0230733 0.00202261 0)
(-0.0245623 0.00181941 0)
(-0.0258831 0.00158987 0)
(-0.0270169 0.00133761 0)
(-0.0279475 0.00106628 0)
(-0.0286615 0.000779604 0)
(-0.0291487 0.000481391 0)
(-0.0294016 0.000175528 0)
(-0.0294161 -0.000133993 0)
(-0.029191 -0.000443074 0)
(-0.0287283 -0.000747508 0)
(-0.0280335 -0.00104298 0)
(-0.0271154 -0.00132509 0)
(-0.025986 -0.00158935 0)
(-0.0246609 -0.00183127 0)
(-0.0231592 -0.00204632 0)
(-0.0215033 -0.00223006 0)
(-0.0197188 -0.00237816 0)
(-0.0178344 -0.00248653 0)
(-0.015882 -0.00255133 0)
(-0.0138956 -0.00256915 0)
(-0.0119119 -0.00253712 0)
(-0.00996869 -0.00245305 0)
(-0.00810514 -0.00231568 0)
(-0.00636027 -0.00212492 0)
(-0.00477207 -0.00188233 0)
(-0.00337588 -0.00159179 0)
(-0.00220243 -0.00126061 0)
(-0.00127498 -0.000901426 0)
(-0.000605504 -0.00053542 0)
(-0.000189435 -0.00019713 0)
(8.24132e-07 5.8047e-05 0)
(2.23091e-05 0.000133767 0)
(-4.69107e-06 -9.9306e-05 0)
(-0.00014637 0.000165864 0)
(-0.00056702 0.000675971 0)
(-0.00129103 0.00129826 0)
(-0.0023318 0.00195189 0)
(-0.00368632 0.00258405 0)
(-0.00533487 0.00316124 0)
(-0.00724612 0.00366318 0)
(-0.00938126 0.00407838 0)
(-0.0116967 0.00440119 0)
(-0.0141465 0.00462988 0)
(-0.0166837 0.00476543 0)
(-0.0192616 0.00481066 0)
(-0.0218352 0.00476966 0)
(-0.0243609 0.00464743 0)
(-0.0267981 0.00444957 0)
(-0.0291086 0.00418208 0)
(-0.0312576 0.0038513 0)
(-0.0332133 0.00346375 0)
(-0.0349475 0.00302614 0)
(-0.0364355 0.0025453 0)
(-0.0376563 0.00202821 0)
(-0.0385926 0.00148199 0)
(-0.039231 0.000913918 0)
(-0.0395618 0.000331438 0)
(-0.0395797 -0.000257819 0)
(-0.0392832 -0.000846026 0)
(-0.0386752 -0.00142516 0)
(-0.0377628 -0.00198704 0)
(-0.0365575 -0.00252329 0)
(-0.0350752 -0.00302548 0)
(-0.0333362 -0.0034851 0)
(-0.0313653 -0.00389371 0)
(-0.0291916 -0.00424302 0)
(-0.0268482 -0.00452502 0)
(-0.0243723 -0.00473216 0)
(-0.0218047 -0.00485749 0)
(-0.0191892 -0.00489495 0)
(-0.0165723 -0.00483955 0)
(-0.0140023 -0.00468776 0)
(-0.0115285 -0.00443788 0)
(-0.00919985 -0.00409061 0)
(-0.00706347 -0.00364985 0)
(-0.005163 -0.00312382 0)
(-0.00353612 -0.00252679 0)
(-0.00221172 -0.00188182 0)
(-0.00120592 -0.00122491 0)
(-0.000517246 -0.000610644 0)
(-0.000126573 -0.000120344 0)
(-1.20201e-06 0.000115552 0)
(-3.0382e-05 4.08487e-06 0)
(-0.000289907 0.000545027 0)
(-0.000937484 0.00137603 0)
(-0.00196213 0.00234141 0)
(-0.0033617 0.00333985 0)
(-0.0051259 0.00430151 0)
(-0.00722837 0.00517961 0)
(-0.00963133 0.00594429 0)
(-0.0122893 0.00657753 0)
(-0.0151517 0.00706972 0)
(-0.018165 0.00741717 0)
(-0.0212744 0.00762044 0)
(-0.0244253 0.00768311 0)
(-0.0275646 0.00761094 0)
(-0.030641 0.00741123 0)
(-0.033606 0.00709241 0)
(-0.0364144 0.0066637 0)
(-0.0390246 0.00613487 0)
(-0.0413987 0.00551615 0)
(-0.043503 0.00481808 0)
(-0.0453078 0.00405147 0)
(-0.046788 0.0032274 0)
(-0.0479229 0.00235719 0)
(-0.0486963 0.00145242 0)
(-0.049097 0.000524959 0)
(-0.0491184 -0.000413052 0)
(-0.0487588 -0.00134917 0)
(-0.0480218 -0.00227066 0)
(-0.046916 -0.00316454 0)
(-0.0454551 -0.0040176 0)
(-0.0436583 -0.00481651 0)
(-0.0415499 -0.00554792 0)
(-0.0391595 -0.00619859 0)
(-0.0365216 -0.00675557 0)
(-0.033676 -0.00720643 0)
(-0.0306666 -0.00753951 0)
(-0.0275418 -0.00774422 0)
(-0.0243536 -0.0078114 0)
(-0.0211567 -0.00773374 0)
(-0.0180081 -0.00750631 0)
(-0.0149653 -0.00712719 0)
(-0.0120855 -0.0065983 0)
(-0.00942387 -0.00592653 0)
(-0.00703118 -0.00512529 0)
(-0.00495182 -0.0042167 0)
(-0.00322106 -0.00323477 0)
(-0.0018613 -0.00222998 0)
(-0.000877802 -0.00127501 0)
(-0.000265783 -0.00047239 0)
(-2.59923e-05 2.37852e-05 0)
(-5.47847e-05 0.000183959 0)
(-0.000432859 0.00111065 0)
(-0.00131335 0.00234558 0)
(-0.00264691 0.00371939 0)
(-0.0044126 0.00511582 0)
(-0.00659004 0.00645115 0)
(-0.00914434 0.00766698 0)
(-0.0120301 0.00872444 0)
(-0.0151949 0.0095991 0)
(-0.0185815 0.0102772 0)
(-0.0221294 0.0107528 0)
(-0.0257771 0.011026 0)
(-0.0294631 0.0111011 0)
(-0.0331274 0.0109854 0)
(-0.0367122 0.0106889 0)
(-0.0401626 0.0102231 0)
(-0.0434272 0.00960077 0)
(-0.0464589 0.00883563 0)
(-0.0492145 0.00794212 0)
(-0.0516556 0.00693521 0)
(-0.0537485 0.00583033 0)
(-0.0554645 0.00464331 0)
(-0.0567801 0.00339037 0)
(-0.0576769 0.00208811 0)
(-0.0581418 0.000753539 0)
(-0.0581676 -0.00059594 0)
(-0.0577524 -0.0019425 0)
(-0.0569 -0.00326794 0)
(-0.0556205 -0.00455369 0)
(-0.0539293 -0.00578092 0)
(-0.0518484 -0.00693067 0)
(-0.0494053 -0.00798396 0)
(-0.0466336 -0.00892202 0)
(-0.0435727 -0.00972659 0)
(-0.0402673 -0.0103802 0)
(-0.0367677 -0.0108664 0)
(-0.0331283 -0.0111707 0)
(-0.0294079 -0.0112803 0)
(-0.0256685 -0.0111854 0)
(-0.0219742 -0.0108796 0)
(-0.0183899 -0.0103608 0)
(-0.0149803 -0.00963236 0)
(-0.0118076 -0.00870452 0)
(-0.00892964 -0.00759614 0)
(-0.00639805 -0.00633725 0)
(-0.00425563 -0.00497242 0)
(-0.00253311 -0.00356525 0)
(-0.00124528 -0.00220367 0)
(-0.000405009 -0.00100637 0)
(-4.96183e-05 -0.000142292 0)
(-7.72552e-05 0.000437249 0)
(-0.000570524 0.0018618 0)
(-0.00168238 0.00358679 0)
(-0.00332542 0.00543597 0)
(-0.00545858 0.00728294 0)
(-0.00804959 0.00903346 0)
(-0.0110534 0.0106196 0)
(-0.0144159 0.0119948 0)
(-0.0180771 0.0131289 0)
(-0.0219727 0.0140041 0)
(-0.0260358 0.0146126 0)
(-0.0301983 0.014954 0)
(-0.0343928 0.0150333 0)
(-0.0385532 0.0148598 0)
(-0.0426158 0.0144461 0)
(-0.0465205 0.0138072 0)
(-0.0502107 0.0129598 0)
(-0.0536342 0.0119219 0)
(-0.0567438 0.0107126 0)
(-0.059497 0.00935191 0)
(-0.0618567 0.00786029 0)
(-0.0637912 0.00625891 0)
(-0.0652745 0.00456945 0)
(-0.0662862 0.00281415 0)
(-0.0668121 0.00101574 0)
(-0.0668439 -0.00080246 0)
(-0.0663796 -0.00261663 0)
(-0.0654234 -0.00440242 0)
(-0.063986 -0.00613507 0)
(-0.0620848 -0.00778947 0)
(-0.0597435 -0.00934035 0)
(-0.0569926 -0.0107625 0)
(-0.0538689 -0.012031 0)
(-0.0504157 -0.0131216 0)
(-0.0466823 -0.0140112 0)
(-0.0427236 -0.0146784 0)
(-0.0385998 -0.0151037 0)
(-0.0343755 -0.015271 0)
(-0.0301189 -0.0151674 0)
(-0.0259005 -0.0147848 0)
(-0.0217922 -0.014121 0)
(-0.0178655 -0.0131806 0)
(-0.0141896 -0.0119772 0)
(-0.0108301 -0.0105347 0)
(-0.0078462 -0.00889085 0)
(-0.00528975 -0.00709959 0)
(-0.00320139 -0.00523588 0)
(-0.00160729 -0.0033999 0)
(-0.000539431 -0.00172213 0)
(-7.13912e-05 -0.000379939 0)
(-9.78668e-05 0.000760077 0)
(-0.000701696 0.00279383 0)
(-0.00203998 0.00509658 0)
(-0.00398911 0.00748958 0)
(-0.00648773 0.00984013 0)
(-0.00949067 0.0120465 0)
(-0.0129416 0.0140336 0)
(-0.0167766 0.0157485 0)
(-0.0209275 0.0171563 0)
(-0.0253224 0.0182362 0)
(-0.0298879 0.0189789 0)
(-0.0345497 0.0193835 0)
(-0.0392346 0.0194563 0)
(-0.0438709 0.0192089 0)
(-0.0483901 0.0186566 0)
(-0.052727 0.0178183 0)
(-0.0568206 0.0167149 0)
(-0.0606148 0.0153691 0)
(-0.0640585 0.0138052 0)
(-0.0671059 0.0120483 0)
(-0.069717 0.0101247 0)
(-0.0718576 0.00806123 0)
(-0.0734995 0.00588551 0)
(-0.0746209 0.00362587 0)
(-0.0752061 0.00131133 0)
(-0.0752463 -0.00102843 0)
(-0.074739 -0.00336305 0)
(-0.0736887 -0.00566152 0)
(-0.0721067 -0.00789233 0)
(-0.0700116 -0.0100235 0)
(-0.0674287 -0.012023 0)
(-0.0643906 -0.0138588 0)
(-0.060937 -0.0154992 0)
(-0.0571143 -0.0169136 0)
(-0.0529755 -0.0180727 0)
(-0.04858 -0.0189493 0)
(-0.0439925 -0.0195192 0)
(-0.0392829 -0.0197616 0)
(-0.0345251 -0.0196608 0)
(-0.0297958 -0.0192067 0)
(-0.0251733 -0.0183963 0)
(-0.0207359 -0.0172354 0)
(-0.0165605 -0.0157402 0)
(-0.0127204 -0.0139398 0)
(-0.00928379 -0.011878 0)
(-0.00631235 -0.0096173 0)
(-0.00385801 -0.00724197 0)
(-0.0019594 -0.00486181 0)
(-0.000667821 -0.0026157 0)
(-9.13461e-05 -0.000685452 0)
(-0.000116952 0.0011487 0)
(-0.000826823 0.00390094 0)
(-0.00238574 0.00686975 0)
(-0.00463613 0.0098764 0)
(-0.00749682 0.0127847 0)
(-0.0109093 0.0154879 0)
(-0.0148051 0.0179058 0)
(-0.0191099 0.0199809 0)
(-0.0237463 0.021675 0)
(-0.0286349 0.0229649 0)
(-0.0336951 0.0238403 0)
(-0.0388464 0.0243011 0)
(-0.04401 0.0243549 0)
(-0.049109 0.0240157 0)
(-0.0540702 0.0233025 0)
(-0.0588242 0.0222381 0)
(-0.063306 0.0208479 0)
(-0.0674559 0.01916 0)
(-0.0712197 0.0172039 0)
(-0.0745487 0.0150106 0)
(-0.0774006 0.0126121 0)
(-0.0797388 0.0100416 0)
(-0.0815337 0.00733291 0)
(-0.0827618 0.00452091 0)
(-0.0834064 0.00164126 0)
(-0.0834579 -0.00126956 0)
(-0.0829135 -0.00417424 0)
(-0.0817776 -0.00703471 0)
(-0.0800621 -0.00981225 0)
(-0.0777862 -0.0124676 0)
(-0.0749765 -0.0149615 0)
(-0.0716674 -0.0172543 0)
(-0.0679005 -0.0193075 0)
(-0.063725 -0.0210834 0)
(-0.0591971 -0.0225459 0)
(-0.0543797 -0.0236618 0)
(-0.0493421 -0.0244012 0)
(-0.0441588 -0.0247388 0)
(-0.038909 -0.0246549 0)
(-0.0336754 -0.0241371 0)
(-0.0285427 -0.0231813 0)
(-0.0235966 -0.0217937 0)
(-0.0189217 -0.0199929 0)
(-0.0145998 -0.0178116 0)
(-0.0107089 -0.0152994 0)
(-0.00732163 -0.0125255 0)
(-0.00450198 -0.00958181 0)
(-0.00230161 -0.00658572 0)
(-0.000790746 -0.00368214 0)
(-0.000109823 -0.00105533 0)
(-0.000134894 0.00159997 0)
(-0.000947051 0.0051777 0)
(-0.00272136 0.00890091 0)
(-0.00526837 0.0125921 0)
(-0.00848778 0.0161135 0)
(-0.0123076 0.0193554 0)
(-0.0166468 0.0222343 0)
(-0.02142 0.0246898 0)
(-0.0265402 0.0266815 0)
(-0.0319195 0.0281852 0)
(-0.0374702 0.0291906 0)
(-0.0431055 0.0296987 0)
(-0.0487407 0.0297192 0)
(-0.0542942 0.0292694 0)
(-0.0596881 0.028372 0)
(-0.064849 0.0270543 0)
(-0.0697087 0.0253468 0)
(-0.0742042 0.023283 0)
(-0.0782786 0.0208982 0)
(-0.0818809 0.0182294 0)
(-0.0849665 0.015315 0)
(-0.0874973 0.0121945 0)
(-0.0894418 0.00890856 0)
(-0.0907756 0.00549869 0)
(-0.0914809 0.00200753 0)
(-0.0915473 -0.00152131 0)
(-0.0909715 -0.00504327 0)
(-0.089758 -0.00851286 0)
(-0.0879186 -0.0118838 0)
(-0.0854729 -0.0151092 0)
(-0.0824485 -0.018142 0)
(-0.0788809 -0.020935 0)
(-0.0748134 -0.0234418 0)
(-0.0702975 -0.0256172 0)
(-0.0653919 -0.0274182 0)
(-0.0601628 -0.0288046 0)
(-0.0546833 -0.0297404 0)
(-0.0490325 -0.0301951 0)
(-0.0432948 -0.0301446 0)
(-0.0375588 -0.0295733 0)
(-0.0319159 -0.0284753 0)
(-0.0264592 -0.0268567 0)
(-0.0212816 -0.0247372 0)
(-0.0164746 -0.0221526 0)
(-0.0121264 -0.0191567 0)
(-0.00832141 -0.0158244 0)
(-0.00513636 -0.0122538 0)
(-0.00263623 -0.00856815 0)
(-0.000909572 -0.00491715 0)
(-0.000127236 -0.00148676 0)
(-0.000152053 0.00211156 0)
(-0.00106377 0.00661977 0)
(-0.00304952 0.0111856 0)
(-0.00588964 0.0156331 0)
(-0.00946537 0.0198241 0)
(-0.0136912 0.0236476 0)
(-0.0184735 0.0270183 0)
(-0.0237151 0.0298744 0)
(-0.0293189 0.0321747 0)
(-0.0351884 0.0338951 0)
(-0.0412281 0.0350266 0)
(-0.0473447 0.0355718 0)
(-0.0534478 0.0355438 0)
(-0.0594509 0.0349633 0)
(-0.0652717 0.0338576 0)
(-0.0708332 0.0322589 0)
(-0.0760641 0.0302034 0)
(-0.0808985 0.0277302 0)
(-0.0852772 0.0248808 0)
(-0.0891473 0.0216987 0)
(-0.0924622 0.0182287 0)
(-0.0951825 0.0145171 0)
(-0.0972755 0.0106113 0)
(-0.0987154 0.00656006 0)
(-0.0994836 0.00241303 0)
(-0.0995691 -0.00177883 0)
(-0.098968 -0.00596344 0)
(-0.0976843 -0.0100877 0)
(-0.0957297 -0.0140974 0)
(-0.0931241 -0.0179378 0)
(-0.0898953 -0.0215536 0)
(-0.0860798 -0.0248895 0)
(-0.081722 -0.0278911 0)
(-0.0768749 -0.0305052 0)
(-0.0715998 -0.0326808 0)
(-0.0659656 -0.0343706 0)
(-0.060049 -0.0355317 0)
(-0.0539334 -0.0361276 0)
(-0.0477082 -0.036129 0)
(-0.0414681 -0.0355163 0)
(-0.0353115 -0.0342812 0)
(-0.0293394 -0.0324282 0)
(-0.0236537 -0.0299776 0)
(-0.0183558 -0.0269669 0)
(-0.0135452 -0.0234533 0)
(-0.00931877 -0.0195158 0)
(-0.00576648 -0.0152577 0)
(-0.00296675 -0.0108071 0)
(-0.00102599 -0.00631784 0)
(-0.000143997 -0.00197785 0)
(-0.000168751 0.00268193 0)
(-0.0011784 0.00822424 0)
(-0.0033733 0.0137208 0)
(-0.00650468 0.0189972 0)
(-0.0104358 0.0239154 0)
(-0.0150679 0.0283643 0)
(-0.020294 0.0322582 0)
(-0.0260053 0.0355353 0)
(-0.0320942 0.038155 0)
(-0.0384548 0.0400946 0)
(-0.0449839 0.0413472 0)
(-0.0515812 0.0419186 0)
(-0.0581506 0.0418256 0)
(-0.0646005 0.0410935 0)
(-0.0708448 0.0397546 0)
(-0.0768028 0.0378469 0)
(-0.0824003 0.0354123 0)
(-0.0875692 0.0324964 0)
(-0.092248 0.0291471 0)
(-0.0963822 0.0254146 0)
(-0.0999239 0.0213505 0)
(-0.102832 0.0170079 0)
(-0.105074 0.0124415 0)
(-0.106621 0.00770696 0)
(-0.107456 0.00286138 0)
(-0.107565 -0.00203685 0)
(-0.106945 -0.00692802 0)
(-0.105598 -0.0117511 0)
(-0.103537 -0.016444 0)
(-0.100781 -0.0209437 0)
(-0.0973572 -0.0251864 0)
(-0.093303 -0.0291085 0)
(-0.0886637 -0.0326468 0)
(-0.0834934 -0.0357396 0)
(-0.0778552 -0.0383277 0)
(-0.0718205 -0.0403556 0)
(-0.0654693 -0.0417729 0)
(-0.0588891 -0.0425362 0)
(-0.0521745 -0.0426101 0)
(-0.0454263 -0.0419702 0)
(-0.0387502 -0.0406043 0)
(-0.0322555 -0.0385148 0)
(-0.0260536 -0.035721 0)
(-0.0202568 -0.0322611 0)
(-0.0149765 -0.0281945 0)
(-0.0103225 -0.0236036 0)
(-0.00639876 -0.0185954 0)
(-0.00329717 -0.0133027 0)
(-0.00114175 -0.00788322 0)
(-0.000160481 -0.0025277 0)
(-0.000185265 0.00331032 0)
(-0.00129229 0.00998974 0)
(-0.00369575 0.0165053 0)
(-0.00711841 0.0226838 0)
(-0.0114058 0.0283878 0)
(-0.0164458 0.0335067 0)
(-0.0221182 0.0379558 0)
(-0.0283018 0.0416746 0)
(-0.0348782 0.0446243 0)
(-0.0417321 0.046785 0)
(-0.0487519 0.0481531 0)
(-0.0558304 0.0487387 0)
(-0.0628656 0.0485633 0)
(-0.069761 0.0476577 0)
(-0.0764263 0.0460601 0)
(-0.0827779 0.0438146 0)
(-0.0887386 0.0409699 0)
(-0.0942384 0.0375781 0)
(-0.0992141 0.033694 0)
(-0.10361 0.0293747 0)
(-0.107376 0.0246789 0)
(-0.110472 0.0196669 0)
(-0.112863 0.0144003 0)
(-0.11452 0.00894212 0)
(-0.115424 0.00335683 0)
(-0.115563 -0.00228968 0)
(-0.11493 -0.00792998 0)
(-0.113529 -0.0134952 0)
(-0.11137 -0.0189149 0)
(-0.108472 -0.0241177 0)
(-0.104863 -0.0290313 0)
(-0.10058 -0.033583 0)
(-0.0956678 -0.0377008 0)
(-0.0901817 -0.0413139 0)
(-0.0841862 -0.0443539 0)
(-0.0777548 -0.0467567 0)
(-0.0709705 -0.0484634 0)
(-0.063925 -0.0494226 0)
(-0.0567178 -0.049592 0)
(-0.049456 -0.0489409 0)
(-0.0422528 -0.0474523 0)
(-0.0352263 -0.0451251 0)
(-0.0284983 -0.0419765 0)
(-0.0221923 -0.0380441 0)
(-0.0164324 -0.0333884 0)
(-0.0113423 -0.0280941 0)
(-0.00704004 -0.0222716 0)
(-0.0036316 -0.0160577 0)
(-0.00125861 -0.00961432 0)
(-0.000177031 -0.00313637 0)
(-0.000201832 0.00399666 0)
(-0.00140666 0.0119164 0)
(-0.00401982 0.0195399 0)
(-0.00773566 0.0266944 0)
(-0.0123821 0.0332434 0)
(-0.0178332 0.0390776 0)
(-0.0239556 0.0441143 0)
(-0.0306153 0.0482954 0)
(-0.0376827 0.0515854 0)
(-0.0450327 0.0539685 0)
(-0.0525451 0.0554457 0)
(-0.0601056 0.0560324 0)
(-0.0676063 0.0557563 0)
(-0.0749458 0.0546544 0)
(-0.0820299 0.0527717 0)
(-0.088772 0.0501593 0)
(-0.0950925 0.0468729 0)
(-0.10092 0.042972 0)
(-0.106189 0.0385186 0)
(-0.110843 0.033577 0)
(-0.114833 0.028213 0)
(-0.118116 0.0224942 0)
(-0.120656 0.0164894 0)
(-0.122426 0.0102687 0)
(-0.123404 0.00390413 0)
(-0.123577 -0.00253108 0)
(-0.122939 -0.00896179 0)
(-0.121492 -0.0153111 0)
(-0.119245 -0.0215006 0)
(-0.116216 -0.0274501 0)
(-0.112432 -0.0330785 0)
(-0.10793 -0.0383041 0)
(-0.102754 -0.0430452 0)
(-0.0969606 -0.0472214 0)
(-0.0906141 -0.0507548 0)
(-0.0837904 -0.0535714 0)
(-0.0765749 -0.055603 0)
(-0.0690631 -0.0567892 0)
(-0.0613598 -0.0570794 0)
(-0.0535781 -0.0564355 0)
(-0.0458393 -0.0548343 0)
(-0.0382707 -0.0522695 0)
(-0.0310048 -0.0487552 0)
(-0.0241772 -0.0443272 0)
(-0.0179255 -0.0390456 0)
(-0.0123878 -0.0329966 0)
(-0.00769721 -0.0262936 0)
(-0.00397411 -0.0190772 0)
(-0.00137821 -0.0115142 0)
(-0.000193955 -0.00380481 0)
(-0.000218656 0.00474148 0)
(-0.00152261 0.0140056 0)
(-0.00434819 0.0228268 0)
(-0.00836094 0.031032 0)
(-0.0133708 0.038486 0)
(-0.019238 0.0450813 0)
(-0.0258153 0.050738 0)
(-0.0329557 0.0554018 0)
(-0.0405181 0.0590418 0)
(-0.0483671 0.0616476 0)
(-0.056374 0.0632262 0)
(-0.064417 0.0638 0)
(-0.0723822 0.0634036 0)
(-0.0801636 0.0620815 0)
(-0.0876633 0.0598865 0)
(-0.0947918 0.0568773 0)
(-0.101468 0.0531177 0)
(-0.107618 0.0486747 0)
(-0.113176 0.0436179 0)
(-0.118086 0.0380191 0)
(-0.122296 0.0319516 0)
(-0.125765 0.02549 0)
(-0.128455 0.0187104 0)
(-0.13034 0.0116902 0)
(-0.131396 0.00450834 0)
(-0.13161 -0.00275435 0)
(-0.130975 -0.0100152 0)
(-0.129491 -0.0171896 0)
(-0.127166 -0.0241907 0)
(-0.124018 -0.03093 0)
(-0.120071 -0.0373172 0)
(-0.115362 -0.0432612 0)
(-0.109934 -0.0486704 0)
(-0.103842 -0.0534542 0)
(-0.097153 -0.0575243 0)
(-0.0899427 -0.0607961 0)
(-0.0822992 -0.0631909 0)
(-0.0743214 -0.064638 0)
(-0.066119 -0.0650772 0)
(-0.0578116 -0.0644616 0)
(-0.0495284 -0.06276 0)
(-0.0414065 -0.0599599 0)
(-0.0335895 -0.0560702 0)
(-0.0262261 -0.0511237 0)
(-0.019468 -0.0451791 0)
(-0.0134686 -0.0383231 0)
(-0.00837694 -0.0306716 0)
(-0.0043286 -0.0223691 0)
(-0.00150212 -0.0135878 0)
(-0.000211531 -0.00453482 0)
(-0.000235911 0.00554589 0)
(-0.00164112 0.0162603 0)
(-0.00468329 0.0263701 0)
(-0.00899835 0.0357018 0)
(-0.0143777 0.0441212 0)
(-0.0206673 0.0515234 0)
(-0.0277054 0.0578321 0)
(-0.0353319 0.0629983 0)
(-0.0433933 0.066997 0)
(-0.051744 0.0698245 0)
(-0.0602463 0.0714956 0)
(-0.068771 0.0720408 0)
(-0.0771984 0.071503 0)
(-0.0854177 0.0699356 0)
(-0.0933278 0.0674 0)
(-0.100837 0.0639637 0)
(-0.107861 0.0596989 0)
(-0.114327 0.0546807 0)
(-0.120169 0.0489871 0)
(-0.125328 0.0426973 0)
(-0.129755 0.0358921 0)
(-0.133407 0.0286535 0)
(-0.136248 0.0210645 0)
(-0.138249 0.0132095 0)
(-0.139387 0.00517467 0)
(-0.139648 -0.00295225 0)
(-0.139024 -0.0110812 0)
(-0.137514 -0.0191199 0)
(-0.135124 -0.0269735 0)
(-0.131869 -0.0345448 0)
(-0.127774 -0.0417345 0)
(-0.122872 -0.0484417 0)
(-0.117206 -0.0545648 0)
(-0.110829 -0.0600022 0)
(-0.103808 -0.0646544 0)
(-0.0962199 -0.0684253 0)
(-0.0881541 -0.0712244 0)
(-0.0797127 -0.0729696 0)
(-0.07101 -0.0735895 0)
(-0.0621722 -0.0730264 0)
(-0.0533363 -0.0712397 0)
(-0.0446496 -0.0682088 0)
(-0.0362676 -0.0639359 0)
(-0.0283526 -0.058449 0)
(-0.0210714 -0.0518044 0)
(-0.0145938 -0.0440885 0)
(-0.00908562 -0.0354187 0)
(-0.00469877 -0.0259439 0)
(-0.00163178 -0.0158421 0)
(-0.000230014 -0.00532901 0)
(-0.000253751 0.00641145 0)
(-0.00176307 0.0186842 0)
(-0.00502731 0.0301753 0)
(-0.0096516 0.0407102 0)
(-0.015408 0.0501558 0)
(-0.0221273 0.0584104 0)
(-0.0296331 0.0654027 0)
(-0.037751 0.0710897 0)
(-0.0463152 0.0754541 0)
(-0.0551693 0.0785006 0)
(-0.0641665 0.0802534 0)
(-0.0731703 0.0807523 0)
(-0.082055 0.0800503 0)
(-0.0907056 0.078211 0)
(-0.0990178 0.0753054 0)
(-0.106898 0.0714108 0)
(-0.114261 0.0666084 0)
(-0.121034 0.0609825 0)
(-0.127149 0.0546192 0)
(-0.13255 0.0476058 0)
(-0.137188 0.0400305 0)
(-0.141018 0.0319825 0)
(-0.144007 0.0235518 0)
(-0.146125 0.0148295 0)
(-0.147349 0.0059083 0)
(-0.147664 -0.00311712 0)
(-0.14706 -0.0121498 0)
(-0.145535 -0.0210899 0)
(-0.143094 -0.029835 0)
(-0.13975 -0.0382793 0)
(-0.135523 -0.0463146 0)
(-0.130446 -0.0538301 0)
(-0.124558 -0.0607134 0)
(-0.117914 -0.0668518 0)
(-0.110576 -0.0721336 0)
(-0.102622 -0.0764502 0)
(-0.0941433 -0.0796982 0)
(-0.0852439 -0.0817823 0)
(-0.0760426 -0.0826181 0)
(-0.0666715 -0.0821357 0)
(-0.0572761 -0.0802829 0)
(-0.0480139 -0.0770289 0)
(-0.0390528 -0.0723675 0)
(-0.0305693 -0.0663203 0)
(-0.0227466 -0.0589394 0)
(-0.0157719 -0.0503099 0)
(-0.00982929 -0.0405505 0)
(-0.00508813 -0.0298142 0)
(-0.00176859 -0.0182857 0)
(-0.000249643 -0.00619072 0)
(-0.00027231 0.00734017 0)
(-0.00188922 0.0212823 0)
(-0.00538223 0.0342493 0)
(-0.010324 0.0460651 0)
(-0.0164662 0.0565979 0)
(-0.0236237 0.06575 0)
(-0.0316042 0.073456 0)
(-0.0402188 0.0796805 0)
(-0.0492887 0.0844155 0)
(-0.0586464 0.0876759 0)
(-0.0681357 0.0894967 0)
(-0.077613 0.0899293 0)
(-0.0869468 0.0890384 0)
(-0.0960182 0.0868985 0)
(-0.10472 0.0835922 0)
(-0.112958 0.0792071 0)
(-0.120646 0.0738348 0)
(-0.127711 0.0675688 0)
(-0.134087 0.060504 0)
(-0.139719 0.0527358 0)
(-0.144556 0.0443601 0)
(-0.148559 0.0354729 0)
(-0.151691 0.0261709 0)
(-0.153925 0.0165517 0)
(-0.155238 0.00671406 0)
(-0.155613 -0.00324091 0)
(-0.155039 -0.0132097 0)
(-0.153513 -0.0230858 0)
(-0.151038 -0.032759 0)
(-0.147622 -0.0421157 0)
(-0.143285 -0.0510384 0)
(-0.138054 -0.0594065 0)
(-0.131968 -0.0670969 0)
(-0.125076 -0.073985 0)
(-0.117441 -0.079946 0)
(-0.10914 -0.0848579 0)
(-0.100262 -0.0886027 0)
(-0.0909153 -0.0910705 0)
(-0.0812209 -0.0921621 0)
(-0.0713173 -0.0917932 0)
(-0.0613578 -0.0898977 0)
(-0.0515107 -0.0864325 0)
(-0.0419567 -0.0813808 0)
(-0.0328876 -0.0747556 0)
(-0.0245036 -0.0666036 0)
(-0.0170111 -0.0570069 0)
(-0.0106137 -0.0460851 0)
(-0.00549999 -0.0339951 0)
(-0.00191384 -0.0209291 0)
(-0.000270643 -0.00712397 0)
(-0.000291715 0.00833444 0)
(-0.00202033 0.0240604 0)
(-0.00574987 0.0386002 0)
(-0.0110187 0.0517755 0)
(-0.0175564 0.0634565 0)
(-0.0251611 0.0735501 0)
(-0.0336236 0.081998 0)
(-0.0427394 0.0887743 0)
(-0.0523164 0.0938818 0)
(-0.0621755 0.0973478 0)
(-0.0721512 0.0992201 0)
(-0.0820926 0.0995634 0)
(-0.091863 0.0984557 0)
(-0.10134 0.0959846 0)
(-0.110415 0.0922451 0)
(-0.118991 0.0873366 0)
(-0.126985 0.0813616 0)
(-0.134323 0.0744237 0)
(-0.140941 0.0666268 0)
(-0.146786 0.0580746 0)
(-0.15181 0.0488706 0)
(-0.155974 0.0391175 0)
(-0.159243 0.0289183 0)
(-0.16159 0.0183763 0)
(-0.162993 0.00759622 0)
(-0.163434 -0.00331534 0)
(-0.162902 -0.0142489 0)
(-0.161389 -0.0250917 0)
(-0.158898 -0.0357266 0)
(-0.155433 -0.0460322 0)
(-0.15101 -0.0558824 0)
(-0.145653 -0.0651468 0)
(-0.139396 -0.073691 0)
(-0.132285 -0.0813781 0)
(-0.12438 -0.08807 0)
(-0.115754 -0.0936294 0)
(-0.106498 -0.097923 0)
(-0.0967195 -0.100824 0)
(-0.0865429 -0.102216 0)
(-0.0761117 -0.101999 0)
(-0.0655873 -0.10009 0)
(-0.0551483 -0.0964305 0)
(-0.044989 -0.090991 0)
(-0.0353171 -0.0837738 0)
(-0.0263514 -0.0748178 0)
(-0.0183187 -0.064201 0)
(-0.0114441 -0.0520428 0)
(-0.00593756 -0.0385038 0)
(-0.00206881 -0.0237841 0)
(-0.000293234 -0.00813346 0)
(-0.000312087 0.00939702 0)
(-0.00215708 0.0270254 0)
(-0.00613199 0.0432371 0)
(-0.0117384 0.0578517 0)
(-0.0186825 0.0707415 0)
(-0.0267437 0.0818189 0)
(-0.035695 0.0910345 0)
(-0.0453155 0.0983735 0)
(-0.0553989 0.103852 0)
(-0.0657541 0.107511 0)
(-0.0762065 0.109414 0)
(-0.0865978 0.109641 0)
(-0.0967867 0.108286 0)
(-0.106648 0.10545 0)
(-0.116071 0.101243 0)
(-0.12496 0.0957771 0)
(-0.133233 0.0891665 0)
(-0.140819 0.0815255 0)
(-0.147655 0.0729675 0)
(-0.153692 0.0636047 0)
(-0.158883 0.0535476 0)
(-0.163193 0.0429057 0)
(-0.166588 0.0317876 0)
(-0.169043 0.0203018 0)
(-0.170536 0.00855808 0)
(-0.171048 -0.00333209 0)
(-0.170568 -0.0152542 0)
(-0.169086 -0.0270898 0)
(-0.1666 -0.0387158 0)
(-0.163112 -0.0500034 0)
(-0.158633 -0.0608184 0)
(-0.153182 -0.0710206 0)
(-0.146788 -0.0804647 0)
(-0.139493 -0.0890009 0)
(-0.131351 -0.0964768 0)
(-0.122433 -0.102739 0)
(-0.112827 -0.107637 0)
(-0.10264 -0.111026 0)
(-0.0919991 -0.11277 0)
(-0.0810514 -0.112749 0)
(-0.0699658 -0.110862 0)
(-0.0589317 -0.107031 0)
(-0.0481569 -0.101212 0)
(-0.0378662 -0.0933937 0)
(-0.0282981 -0.0836041 0)
(-0.0197017 -0.0719156 0)
(-0.0123259 -0.058446 0)
(-0.00640394 -0.0433594 0)
(-0.00223474 -0.0268644 0)
(-0.000317635 -0.00922456 0)
(-0.000333551 0.010531 0)
(-0.00230021 0.0301848 0)
(-0.00653035 0.0481703 0)
(-0.0124861 0.0643047 0)
(-0.0198479 0.0784631 0)
(-0.0283752 0.0905646 0)
(-0.0378215 0.10057 0)
(-0.0479484 0.108478 0)
(-0.0585346 0.114321 0)
(-0.0693768 0.118155 0)
(-0.0802908 0.120064 0)
(-0.091112 0.120144 0)
(-0.101694 0.118506 0)
(-0.111911 0.115269 0)
(-0.121651 0.110558 0)
(-0.13082 0.104499 0)
(-0.139338 0.0972199 0)
(-0.147137 0.0888457 0)
(-0.15416 0.0794997 0)
(-0.160359 0.0693024 0)
(-0.165692 0.0583715 0)
(-0.170127 0.0468224 0)
(-0.173634 0.0347689 0)
(-0.176188 0.0223241 0)
(-0.177768 0.00960162 0)
(-0.178357 -0.00328302 0)
(-0.17794 -0.0162112 0)
(-0.176506 -0.0290601 0)
(-0.174049 -0.041701 0)
(-0.170569 -0.0539991 0)
(-0.166069 -0.0658123 0)
(-0.160563 -0.0769914 0)
(-0.154074 -0.0873799 0)
(-0.146637 -0.0968151 0)
(-0.138302 -0.10513 0)
(-0.129133 -0.112153 0)
(-0.119215 -0.117716 0)
(-0.108652 -0.121652 0)
(-0.0975722 -0.123806 0)
(-0.0861264 -0.124033 0)
(-0.0744899 -0.12221 0)
(-0.0628622 -0.11824 0)
(-0.0514653 -0.112057 0)
(-0.0405416 -0.103633 0)
(-0.0303509 -0.0929847 0)
(-0.0211667 -0.0801749 0)
(-0.0132639 -0.0653188 0)
(-0.00690218 -0.0485831 0)
(-0.00241289 -0.030185 0)
(-0.000344072 -0.0104033 0)
(-0.000356244 0.01174 0)
(-0.00245048 0.033547 0)
(-0.00694688 0.0534111 0)
(-0.0132648 0.0711467 0)
(-0.0210565 0.086632 0)
(-0.0300593 0.0997946 0)
(-0.0400057 0.110608 0)
(-0.0506383 0.119087 0)
(-0.0617198 0.12528 0)
(-0.0730348 0.129267 0)
(-0.0843895 0.131149 0)
(-0.0956129 0.131045 0)
(-0.106556 0.129084 0)
(-0.11709 0.125406 0)
(-0.127105 0.120152 0)
(-0.136511 0.113464 0)
(-0.145231 0.105484 0)
(-0.153201 0.0963474 0)
(-0.16037 0.0861889 0)
(-0.166694 0.075137 0)
(-0.172137 0.0633162 0)
(-0.176671 0.0508473 0)
(-0.180269 0.0378483 0)
(-0.182909 0.024436 0)
(-0.184572 0.010727 0)
(-0.185239 -0.00316047 0)
(-0.184897 -0.0171049 0)
(-0.183531 -0.0309801 0)
(-0.181132 -0.0446532 0)
(-0.177692 -0.0579841 0)
(-0.173212 -0.0708241 0)
(-0.167698 -0.0830151 0)
(-0.161165 -0.0943899 0)
(-0.153639 -0.104773 0)
(-0.145163 -0.113981 0)
(-0.135795 -0.121826 0)
(-0.125613 -0.128118 0)
(-0.114717 -0.132669 0)
(-0.103235 -0.135296 0)
(-0.0913193 -0.135832 0)
(-0.0791502 -0.134126 0)
(-0.0669371 -0.130057 0)
(-0.0549162 -0.123534 0)
(-0.0433484 -0.114509 0)
(-0.0325162 -0.102982 0)
(-0.0227198 -0.0890044 0)
(-0.0142631 -0.072687 0)
(-0.00743542 -0.0541978 0)
(-0.00260455 -0.0337624 0)
(-0.000372784 -0.0116762 0)
(-0.000380329 0.0130278 0)
(-0.00260882 0.0371217 0)
(-0.00738375 0.0589721 0)
(-0.0140779 0.0783904 0)
(-0.0223123 0.0952591 0)
(-0.0317998 0.109516 0)
(-0.0422497 0.121149 0)
(-0.0533841 0.130193 0)
(-0.0649493 0.136717 0)
(-0.0767166 0.140825 0)
(-0.0884832 0.142642 0)
(-0.100073 0.14231 0)
(-0.111333 0.139982 0)
(-0.122136 0.135818 0)
(-0.132376 0.129979 0)
(-0.141964 0.122625 0)
(-0.150831 0.11391 0)
(-0.158919 0.103984 0)
(-0.166183 0.0929919 0)
(-0.172585 0.0810698 0)
(-0.178098 0.0683486 0)
(-0.182697 0.0549538 0)
(-0.186359 0.0410068 0)
(-0.189068 0.0266268 0)
(-0.190805 0.0119321 0)
(-0.191553 -0.00295764 0)
(-0.191296 -0.0179195 0)
(-0.190019 -0.0328253 0)
(-0.187707 -0.0475395 0)
(-0.184349 -0.0619181 0)
(-0.179936 -0.0758065 0)
(-0.174468 -0.0890391 0)
(-0.167949 -0.101439 0)
(-0.160398 -0.112817 0)
(-0.151846 -0.122974 0)
(-0.142343 -0.131704 0)