/*--------------------------------*- C++ -*----------------------------------*\
  =========                 |
  \\      /  F ield         | OpenFOAM: The Open Source CFD Toolbox
   \\    /   O peration     | Website:  https://openfoam.org
    \\  /    A nd           | Version:  7
     \\/     M anipulation  |
\*---------------------------------------------------------------------------*/
FoamFile
{
    version     2.0;
    format      ascii;
    class       volScalarField;
    location    "0.0562";
    object      p;
}
// * * * * * * * * * * * * * * * * * * * * * * * * * * * * * * * * * * * * * //

dimensions      [0 2 -2 0 0 0 0];

internalField   nonuniform List<scalar> 
2500
(
5.83485e-06
6.38533
9.05056
10.1471
10.7408
11.0915
11.307
11.4488
11.5483
11.6216
11.6775
11.7216
11.7574
11.7874
11.8133
11.8363
11.8573
11.8769
11.8957
11.914
11.9321
11.9503
11.9687
11.9875
12.0068
12.0267
12.0475
12.0691
12.0919
12.1159
12.1415
12.1688
12.1984
12.2307
12.2662
12.3058
12.3504
12.4015
12.4609
12.5311
12.6159
12.7212
12.8562
13.0375
13.2971
13.6989
14.3595
15.5507
18.332
24.8415
4.86798
7.46784
8.88609
9.77044
10.3751
10.7827
11.0589
11.252
11.3916
11.4956
11.5751
11.6377
11.6881
11.7299
11.7654
11.7964
11.824
11.8492
11.8728
11.8953
11.9172
11.9386
11.96
11.9816
12.0035
12.0261
12.0494
12.0737
12.0992
12.1263
12.1552
12.1864
12.2203
12.2576
12.2992
12.3459
12.3993
12.4611
12.5339
12.6212
12.7281
12.8624
13.0356
13.2662
13.5846
14.0412
14.7055
15.6623
17.1661
19.8836
7.70304
8.467
9.21078
9.83512
10.3227
10.686
10.9539
11.1531
11.3034
11.4188
11.509
11.5811
11.6398
11.6886
11.7302
11.7664
11.7986
11.8278
11.8549
11.8804
11.905
11.9289
11.9526
11.9763
12.0003
12.0248
12.0501
12.0764
12.104
12.1333
12.1646
12.1985
12.2354
12.2762
12.3216
12.3729
12.4316
12.4997
12.5798
12.6755
12.792
12.9363
13.1186
13.3532
13.6602
14.0676
14.6051
15.2834
16.0815
16.9104
9.11078
9.28853
9.66871
10.071
10.4216
10.7085
10.9376
11.1189
11.2624
11.3767
11.4687
11.5438
11.6061
11.6587
11.7038
11.7432
11.7784
11.8104
11.84
11.8679
11.8945
11.9204
11.9459
11.9713
11.9969
12.023
12.0499
12.0778
12.107
12.138
12.1711
12.2069
12.2459
12.2889
12.3369
12.3908
12.4523
12.5233
12.6061
12.704
12.8211
12.9629
13.1365
13.3505
13.615
13.94
14.3307
14.773
15.1886
15.3972
9.92087
9.90151
10.0787
10.3237
10.5643
10.7803
10.9659
11.1215
11.2505
11.3573
11.446
11.5202
11.583
11.6368
11.6836
11.725
11.7621
11.796
11.8274
11.857
11.8854
11.9128
11.9398
11.9666
11.9936
12.021
12.0492
12.0784
12.109
12.1413
12.1758
12.213
12.2534
12.2979
12.3472
12.4025
12.4651
12.5367
12.6192
12.7153
12.828
12.9608
13.118
13.3037
13.5208
13.7692
14.0416
14.3156
14.5152
14.5083
10.4299
10.3462
10.4165
10.5598
10.7202
10.8776
11.0225
11.1507
11.2619
11.3575
11.4393
11.5096
11.5704
11.6235
11.6704
11.7123
11.7503
11.7852
11.8177
11.8485
11.878
11.9066
11.9347
11.9626
11.9906
12.0191
12.0483
12.0785
12.1101
12.1433
12.1788
12.2168
12.2581
12.3033
12.3531
12.4085
12.4707
12.541
12.6209
12.7123
12.8171
12.9374
13.075
13.2308
13.4036
13.5883
13.7737
13.9378
14.0214
13.9394
10.7685
10.6725
10.6895
10.7696
10.8736
10.9853
11.0951
11.1977
11.2905
11.3731
11.4462
11.5106
11.5676
11.6184
11.6639
11.7052
11.7431
11.7782
11.8112
11.8425
11.8727
11.902
11.9308
11.9595
11.9883
12.0175
12.0474
12.0783
12.1105
12.1444
12.1804
12.2188
12.2603
12.3055
12.3549
12.4095
12.47
12.5376
12.6133
12.6982
12.7933
12.8995
13.017
13.1446
13.279
13.4135
13.5372
13.6322
13.6563
13.5562
11.0084
10.9179
10.909
10.9505
11.0158
11.0931
11.1746
11.2546
11.3302
11.3999
11.4634
11.521
11.5731
11.6205
11.6637
11.7035
11.7404
11.7751
11.8079
11.8392
11.8696
11.8992
11.9285
11.9576
11.9868
12.0165
12.0468
12.0781
12.1107
12.1448
12.1809
12.2194
12.2606
12.3052
12.3536
12.4065
12.4646
12.5285
12.5989
12.6763
12.7612
12.8533
12.9518
13.0545
13.1575
13.254
13.3347
13.3866
13.3807
13.2832
11.1884
11.1077
11.0864
11.1043
11.1435
11.1957
11.2549
11.3161
11.3765
11.4341
11.4883
11.5387
11.5854
11.6287
11.6689
11.7065
11.7419
11.7755
11.8076
11.8386
11.8688
11.8984
11.9277
11.9569
11.9864
12.0162
12.0467
12.0782
12.1108
12.1449
12.1808
12.2189
12.2595
12.303
12.3499
12.4007
12.4557
12.5154
12.58
12.6498
12.7244
12.8032
12.8848
12.9666
13.0446
13.1128
13.1639
13.189
13.1681
13.079
11.3296
11.2583
11.2314
11.235
11.2565
11.2906
11.3326
11.3787
11.426
11.4729
11.5183
11.5616
11.6028
11.6417
11.6786
11.7137
11.7471
11.7793
11.8103
11.8405
11.8702
11.8994
11.9285
11.9576
11.9869
12.0168
12.0472
12.0786
12.111
12.1449
12.1804
12.2178
12.2574
12.2996
12.3447
12.3929
12.4445
12.4997
12.5585
12.6207
12.6857
12.7526
12.8195
12.884
12.9424
12.9897
13.0205
13.0288
13.0005
12.9203
11.4439
11.3806
11.3515
11.3462
11.3559
11.3769
11.4059
11.4398
11.4763
11.5139
11.5514
11.5882
11.624
11.6585
11.6919
11.7242
11.7554
11.7858
11.8155
11.8447
11.8735
11.9022
11.9308
11.9595
11.9886
12.0182
12.0484
12.0794
12.1115
12.1449
12.1797
12.2163
12.2548
12.2954
12.3384
12.3839
12.432
12.4827
12.5357
12.5908
12.647
12.7033
12.7579
12.8083
12.8514
12.8834
12.9002
12.8978
12.8662
12.7939
11.5388
11.4819
11.4521
11.4414
11.443
11.4546
11.4737
11.4981
11.5258
11.5554
11.586
11.6169
11.6476
11.678
11.7079
11.7373
11.7662
11.7947
11.8229
11.8508
11.8786
11.9065
11.9344
11.9627
11.9913
12.0204
12.0502
12.0808
12.1124
12.1451
12.1792
12.2147
12.2518
12.2907
12.3315
12.3743
12.4188
12.4651
12.5128
12.5613
12.6097
12.6568
12.701
12.74
12.7714
12.792
12.7989
12.7898
12.7569
12.6914
11.6189
11.5669
11.5373
11.5232
11.5193
11.5241
11.5358
11.5527
11.5732
11.5962
11.6209
11.6465
11.6727
11.6992
11.7257
11.7523
11.7788
11.8054
11.8319
11.8585
11.8852
11.9121
11.9393
11.9668
11.9948
12.0234
12.0526
12.0827
12.1136
12.1456
12.1787
12.2131
12.2488
12.286
12.3246
12.3645
12.4057
12.4479
12.4905
12.533
12.5745
12.6138
12.6493
12.6793
12.7015
12.7136
12.7137
12.7001
12.6671
12.6071
11.6873
11.6392
11.61
11.5938
11.5861
11.5859
11.592
11.6031
11.6179
11.6355
11.6551
11.6762
11.6983
11.7212
11.7446
11.7685
11.7927
11.8173
11.8421
11.8673
11.8928
11.9187
11.945
11.9718
11.9991
12.027
12.0556
12.085
12.1152
12.1464
12.1785
12.2117
12.246
12.2814
12.3177
12.355
12.393
12.4313
12.4694
12.5066
12.5421
12.5747
12.603
12.6256
12.6407
12.6465
12.6417
12.6254
12.5927
12.5372
11.7462
11.7011
11.6724
11.6548
11.6445
11.6406
11.6425
11.6491
11.6593
11.6724
11.6878
11.705
11.7236
11.7433
11.7639
11.7853
11.8073
11.83
11.8532
11.8769
11.9012
11.926
11.9514
11.9773
12.0039
12.0311
12.059
12.0877
12.1171
12.1474
12.1785
12.2105
12.2433
12.277
12.3113
12.346
12.381
12.4157
12.4497
12.4823
12.5125
12.5395
12.562
12.5787
12.5882
12.5893
12.5809
12.5628
12.5307
12.4791
11.797
11.7542
11.726
11.7076
11.6954
11.6889
11.6876
11.6906
11.6972
11.7067
11.7186
11.7325
11.748
11.7649
11.783
11.8021
11.8221
11.8429
11.8646
11.8869
11.91
11.9337
11.9582
11.9832
12.009
12.0355
12.0627
12.0906
12.1192
12.1486
12.1787
12.2095
12.241
12.2729
12.3052
12.3376
12.3698
12.4014
12.4317
12.4602
12.4861
12.5083
12.5259
12.5379
12.5431
12.5405
12.5296
12.5103
12.479
12.4305
11.8408
11.7998
11.7721
11.7531
11.7396
11.7311
11.7274
11.7277
11.7314
11.7379
11.747
11.7581
11.771
11.7854
11.8013
11.8183
11.8365
11.8557
11.8759
11.897
11.9189
11.9416
11.965
11.9893
12.0143
12.04
12.0665
12.0936
12.1215
12.15
12.1791
12.2088
12.2389
12.2693
12.2998
12.33
12.3597
12.3884
12.4156
12.4406
12.4626
12.4809
12.4946
12.5027
12.5045
12.4992
12.4865
12.4664
12.4358
12.3901
11.8784
11.8388
11.8116
11.7922
11.7777
11.7678
11.7622
11.7604
11.7618
11.766
11.7727
11.7815
11.7922
11.8046
11.8185
11.8337
11.8503
11.868
11.8868
11.9067
11.9275
11.9492
11.9718
11.9953
12.0195
12.0445
12.0702
12.0967
12.1238
12.1514
12.1796
12.2082
12.2371
12.2661
12.2949
12.3232
12.3507
12.3769
12.4013
12.4233
12.4422
12.4572
12.4676
12.4727
12.4718
12.4644
12.4503
12.4298
12.4
12.3564
11.9103
11.8719
11.845
11.8254
11.8101
11.7992
11.7922
11.7887
11.7883
11.7907
11.7954
11.8024
11.8112
11.8219
11.8341
11.8479
11.863
11.8794
11.897
11.9158
11.9356
11.9565
11.9782
12.0009
12.0245
12.0488
12.0739
12.0996
12.126
12.1529
12.1802
12.2079
12.2356
12.2633
12.2906
12.3173
12.3428
12.3669
12.389
12.4084
12.4246
12.4369
12.4447
12.4473
12.4444
12.4354
12.4203
12.3995
12.3704
12.3287
11.9371
11.8995
11.8729
11.8531
11.8374
11.8256
11.8175
11.8128
11.811
11.8119
11.8152
11.8206
11.828
11.8372
11.848
11.8605
11.8744
11.8897
11.9063
11.9241
11.943
11.9631
11.9841
12.0061
12.029
12.0527
12.0772
12.1023
12.1281
12.1543
12.1809
12.2076
12.2344
12.2609
12.287
12.3122
12.3361
12.3584
12.3784
12.3958
12.4098
12.4199
12.4256
12.4263
12.4217
12.4115
12.3958
12.3748
12.3462
12.3062
11.9591
11.9221
11.8957
11.8758
11.8597
11.8473
11.8385
11.8328
11.8299
11.8297
11.8317
11.836
11.8421
11.8502
11.8599
11.8713
11.8842
11.8986
11.9143
11.9313
11.9495
11.9688
11.9893
12.0107
12.033
12.0562
12.0801
12.1047
12.1299
12.1555
12.1814
12.2075
12.2334
12.259
12.284
12.3079
12.3305
12.3513
12.3697
12.3854
12.3976
12.406
12.41
12.4093
12.4035
12.3923
12.3761
12.355
12.327
12.2882
11.9764
11.9398
11.9136
11.8937
11.8773
11.8645
11.8551
11.8487
11.845
11.8439
11.8451
11.8484
11.8536
11.8608
11.8696
11.8802
11.8923
11.9059
11.9209
11.9372
11.9549
11.9736
11.9935
12.0145
12.0363
12.0591
12.0826
12.1068
12.1315
12.1566
12.182
12.2074
12.2326
12.2575
12.2816
12.3046
12.3261
12.3457
12.3628
12.3771
12.388
12.3951
12.3979
12.396
12.3892
12.3774
12.3608
12.3397
12.3121
12.2743
11.9892
11.953
11.9269
11.9069
11.8904
11.8773
11.8674
11.8605
11.8563
11.8546
11.8551
11.8577
11.8623
11.8688
11.877
11.8869
11.8985
11.9115
11.926
11.9418
11.959
11.9774
11.9969
12.0174
12.0389
12.0613
12.0845
12.1083
12.1327
12.1574
12.1824
12.2073
12.2321
12.2563
12.2798
12.302
12.3227
12.3415
12.3577
12.371
12.3809
12.387
12.3889
12.3862
12.3788
12.3665
12.3496
12.3286
12.3013
12.2642
11.9977
11.9617
11.9357
11.9157
11.899
11.8857
11.8756
11.8684
11.8639
11.8617
11.8618
11.864
11.8682
11.8742
11.882
11.8915
11.9026
11.9153
11.9294
11.9449
11.9618
11.9799
11.9991
12.0194
12.0407
12.0629
12.0858
12.1094
12.1335
12.158
12.1827
12.2073
12.2317
12.2556
12.2786
12.3004
12.3205
12.3387
12.3543
12.367
12.3762
12.3817
12.3829
12.3797
12.3719
12.3593
12.3423
12.3213
12.2942
12.2575
12.0019
11.9661
11.9401
11.92
11.9033
11.8899
11.8797
11.8724
11.8676
11.8653
11.8652
11.8671
11.8711
11.8769
11.8845
11.8938
11.9047
11.9172
11.9312
11.9465
11.9632
11.9811
12.0002
12.0204
12.0416
12.0636
12.0865
12.1099
12.1339
12.1583
12.1828
12.2073
12.2315
12.2552
12.278
12.2995
12.3194
12.3373
12.3526
12.365
12.3739
12.379
12.38
12.3765
12.3685
12.3558
12.3387
12.3177
12.2907
12.2543
12.0019
11.9661
11.9401
11.92
11.9033
11.8899
11.8797
11.8724
11.8676
11.8653
11.8652
11.8672
11.8711
11.8769
11.8845
11.8938
11.9047
11.9172
11.9312
11.9465
11.9632
11.9811
12.0002
12.0204
12.0416
12.0636
12.0865
12.1099
12.1339
12.1583
12.1828
12.2073
12.2315
12.2552
12.278
12.2995
12.3194
12.3373
12.3526
12.365
12.3739
12.379
12.38
12.3765
12.3685
12.3558
12.3387
12.3177
12.2907
12.2543
11.9977
11.9617
11.9357
11.9157
11.899
11.8857
11.8756
11.8684
11.8639
11.8617
11.8618
11.864
11.8682
11.8742
11.882
11.8915
11.9026
11.9153
11.9294
11.9449
11.9618
11.9799
11.9991
12.0194
12.0407
12.0629
12.0858
12.1094
12.1335
12.158
12.1827
12.2073
12.2317
12.2556
12.2786
12.3004
12.3205
12.3387
12.3543
12.367
12.3762
12.3817
12.3829
12.3797
12.3719
12.3593
12.3423
12.3213
12.2942
12.2575
11.9892
11.953
11.9269
11.9069
11.8904
11.8773
11.8674
11.8605
11.8563
11.8546
11.8551
11.8577
11.8623
11.8688
11.877
11.8869
11.8985
11.9115
11.926
11.9418
11.959
11.9774
11.9969
12.0174
12.0389
12.0613
12.0845
12.1083
12.1327
12.1574
12.1824
12.2073
12.2321
12.2563
12.2798
12.302
12.3227
12.3415
12.3577
12.371
12.3809
12.387
12.3889
12.3862
12.3788
12.3665
12.3496
12.3286
12.3013
12.2642
11.9764
11.9399
11.9136
11.8937
11.8773
11.8645
11.8551
11.8487
11.845
11.8439
11.8451
11.8484
11.8536
11.8608
11.8696
11.8802
11.8923
11.9059
11.9209
11.9372
11.9549
11.9736
11.9935
12.0145
12.0364
12.0591
12.0826
12.1068
12.1315
12.1566
12.182
12.2074
12.2326
12.2575
12.2816
12.3046
12.3261
12.3457
12.3628
12.3771
12.3881
12.3951
12.3979
12.396
12.3892
12.3774
12.3608
12.3397
12.3121
12.2743
11.9591
11.9221
11.8957
11.8758
11.8597
11.8473
11.8385
11.8328
11.83
11.8297
11.8318
11.836
11.8421
11.8502
11.8599
11.8713
11.8842
11.8986
11.9143
11.9313
11.9495
11.9688
11.9893
12.0107
12.033
12.0562
12.0801
12.1047
12.1299
12.1555
12.1814
12.2075
12.2334
12.259
12.284
12.3079
12.3305
12.3513
12.3697
12.3854
12.3976
12.406
12.41
12.4093
12.4035
12.3923
12.3761
12.355
12.327
12.2882
11.9372
11.8995
11.8729
11.8531
11.8374
11.8256
11.8176
11.8128
11.8111
11.8119
11.8152
11.8206
11.828
11.8372
11.848
11.8605
11.8744
11.8897
11.9063
11.9241
11.943
11.9631
11.9841
12.0061
12.029
12.0527
12.0772
12.1023
12.1281
12.1543
12.1809
12.2076
12.2344
12.2609
12.287
12.3122
12.3361
12.3584
12.3784
12.3958
12.4098
12.4199
12.4256
12.4263
12.4217
12.4115
12.3958
12.3748
12.3463
12.3062
11.9104
11.8719
11.845
11.8254
11.8102
11.7992
11.7922
11.7887
11.7883
11.7907
11.7955
11.8024
11.8113
11.8219
11.8341
11.8479
11.863
11.8794
11.8971
11.9158
11.9356
11.9565
11.9782
12.0009
12.0245
12.0488
12.0739
12.0996
12.126
12.1529
12.1802
12.2079
12.2356
12.2633
12.2906
12.3173
12.3428
12.3669
12.389
12.4084
12.4246
12.4369
12.4447
12.4474
12.4444
12.4354
12.4203
12.3995
12.3704
12.3287
11.8784
11.8388
11.8116
11.7922
11.7777
11.7678
11.7622
11.7604
11.7618
11.766
11.7727
11.7815
11.7922
11.8046
11.8185
11.8338
11.8503
11.868
11.8868
11.9067
11.9275
11.9492
11.9718
11.9953
12.0195
12.0445
12.0702
12.0967
12.1238
12.1515
12.1797
12.2083
12.2371
12.2661
12.2949
12.3232
12.3507
12.3769
12.4013
12.4233
12.4422
12.4572
12.4676
12.4727
12.4718
12.4644
12.4503
12.4298
12.4
12.3565
11.8408
11.7998
11.7722
11.7532
11.7396
11.7312
11.7274
11.7277
11.7314
11.738
11.747
11.7581
11.771
11.7855
11.8013
11.8184
11.8365
11.8558
11.8759
11.897
11.9189
11.9416
11.9651
11.9893
12.0143
12.04
12.0665
12.0936
12.1215
12.15
12.1791
12.2088
12.2389
12.2693
12.2998
12.33
12.3597
12.3884
12.4156
12.4406
12.4626
12.4809
12.4946
12.5027
12.5045
12.4992
12.4865
12.4664
12.4358
12.3901
11.797
11.7542
11.7261
11.7076
11.6954
11.6889
11.6876
11.6906
11.6972
11.7067
11.7186
11.7325
11.748
11.7649
11.783
11.8021
11.8221
11.843
11.8646
11.8869
11.91
11.9337
11.9582
11.9833
12.009
12.0355
12.0627
12.0906
12.1192
12.1486
12.1787
12.2096
12.241
12.2729
12.3052
12.3377
12.3698
12.4014
12.4318
12.4602
12.4861
12.5083
12.5259
12.5379
12.5431
12.5405
12.5296
12.5103
12.479
12.4305
11.7462
11.7011
11.6724
11.6548
11.6445
11.6407
11.6426
11.6491
11.6593
11.6725
11.6879
11.705
11.7236
11.7433
11.7639
11.7853
11.8073
11.83
11.8532
11.8769
11.9012
11.926
11.9514
11.9773
12.0039
12.0311
12.059
12.0877
12.1171
12.1474
12.1785
12.2105
12.2434
12.277
12.3113
12.346
12.381
12.4157
12.4497
12.4823
12.5126
12.5395
12.562
12.5787
12.5882
12.5893
12.5809
12.5628
12.5307
12.4791
11.6874
11.6393
11.61
11.5938
11.5861
11.5859
11.592
11.6031
11.6179
11.6355
11.6551
11.6762
11.6983
11.7212
11.7447
11.7685
11.7928
11.8173
11.8422
11.8673
11.8928
11.9187
11.945
11.9718
11.9991
12.027
12.0556
12.085
12.1152
12.1464
12.1785
12.2117
12.246
12.2814
12.3178
12.355
12.393
12.4313
12.4694
12.5066
12.5421
12.5747
12.6031
12.6256
12.6407
12.6465
12.6417
12.6254
12.5927
12.5372
11.619
11.567
11.5373
11.5233
11.5194
11.5241
11.5358
11.5527
11.5732
11.5963
11.6209
11.6466
11.6728
11.6992
11.7258
11.7523
11.7789
11.8054
11.8319
11.8585
11.8852
11.9121
11.9393
11.9668
11.9948
12.0234
12.0526
12.0827
12.1136
12.1456
12.1787
12.2131
12.2489
12.286
12.3246
12.3645
12.4057
12.4479
12.4905
12.5331
12.5746
12.6138
12.6493
12.6793
12.7015
12.7136
12.7137
12.7002
12.6671
12.6071
11.5389
11.4819
11.4521
11.4415
11.4431
11.4546
11.4738
11.4981
11.5258
11.5554
11.586
11.6169
11.6477
11.6781
11.7079
11.7373
11.7662
11.7947
11.8229
11.8508
11.8786
11.9065
11.9345
11.9627
11.9913
12.0204
12.0502
12.0808
12.1124
12.1451
12.1792
12.2147
12.2518
12.2908
12.3316
12.3743
12.4189
12.4652
12.5128
12.5613
12.6097
12.6568
12.701
12.7401
12.7714
12.792
12.799
12.7898
12.757
12.6914
11.444
11.3807
11.3515
11.3463
11.356
11.377
11.4059
11.4398
11.4764
11.5139
11.5514
11.5882
11.624
11.6586
11.692
11.7242
11.7554
11.7858
11.8155
11.8447
11.8735
11.9022
11.9308
11.9596
11.9886
12.0182
12.0484
12.0794
12.1115
12.1449
12.1797
12.2163
12.2548
12.2954
12.3384
12.3839
12.432
12.4827
12.5358
12.5908
12.6471
12.7033
12.7579
12.8083
12.8515
12.8834
12.9002
12.8978
12.8662
12.794
11.3296
11.2584
11.2315
11.235
11.2566
11.2907
11.3327
11.3787
11.426
11.4729
11.5183
11.5617
11.6028
11.6418
11.6786
11.7137
11.7471
11.7793
11.8103
11.8406
11.8702
11.8994
11.9285
11.9576
11.987
12.0168
12.0472
12.0786
12.111
12.1449
12.1804
12.2178
12.2574
12.2996
12.3447
12.3929
12.4445
12.4997
12.5585
12.6207
12.6857
12.7526
12.8195
12.884
12.9424
12.9897
13.0206
13.0288
13.0006
12.9204
11.1885
11.1078
11.0865
11.1044
11.1435
11.1958
11.2549
11.3162
11.3765
11.4342
11.4883
11.5387
11.5854
11.6287
11.6689
11.7066
11.742
11.7755
11.8077
11.8387
11.8688
11.8984
11.9277
11.9569
11.9864
12.0162
12.0467
12.0782
12.1108
12.1449
12.1808
12.2189
12.2595
12.303
12.35
12.4007
12.4557
12.5154
12.58
12.6498
12.7244
12.8033
12.8848
12.9666
13.0446
13.1128
13.164
13.189
13.1681
13.079
11.0085
10.918
10.9091
10.9505
11.0158
11.0932
11.1746
11.2546
11.3302
11.3999
11.4635
11.5211
11.5732
11.6205
11.6637
11.7035
11.7405
11.7751
11.8079
11.8393
11.8696
11.8993
11.9285
11.9576
11.9869
12.0165
12.0469
12.0782
12.1107
12.1449
12.181
12.2194
12.2606
12.3052
12.3536
12.4065
12.4646
12.5285
12.5989
12.6764
12.7612
12.8533
12.9518
13.0546
13.1575
13.254
13.3347
13.3866
13.3807
13.2833
10.7685
10.6725
10.6896
10.7697
10.8737
10.9853
11.0952
11.1977
11.2905
11.3732
11.4462
11.5107
11.5677
11.6184
11.664
11.7053
11.7431
11.7782
11.8112
11.8425
11.8727
11.902
11.9309
11.9595
11.9883
12.0175
12.0475
12.0784
12.1106
12.1444
12.1804
12.2189
12.2603
12.3055
12.3549
12.4095
12.47
12.5376
12.6133
12.6982
12.7933
12.8996
13.017
13.1446
13.279
13.4136
13.5372
13.6322
13.6563
13.5562
10.43
10.3462
10.4166
10.5599
10.7203
10.8777
11.0225
11.1508
11.262
11.3575
11.4393
11.5097
11.5705
11.6236
11.6704
11.7123
11.7503
11.7852
11.8177
11.8485
11.878
11.9066
11.9347
11.9626
11.9907
12.0191
12.0483
12.0785
12.1101
12.1434
12.1788
12.2169
12.2581
12.3033
12.3531
12.4085
12.4707
12.541
12.6209
12.7123
12.8171
12.9375
13.0751
13.2308
13.4036
13.5883
13.7738
13.9379
14.0214
13.9394
9.92096
9.90159
10.0788
10.3238
10.5644
10.7804
10.966
11.1216
11.2506
11.3574
11.446
11.5202
11.583
11.6369
11.6837
11.725
11.7622
11.796
11.8275
11.8571
11.8854
11.9128
11.9398
11.9666
11.9936
12.021
12.0492
12.0784
12.109
12.1413
12.1758
12.213
12.2535
12.2979
12.3473
12.4026
12.4652
12.5367
12.6193
12.7153
12.828
12.9608
13.1181
13.3037
13.5208
13.7693
14.0417
14.3156
14.5152
14.5084
9.11088
9.28863
9.66881
10.0711
10.4217
10.7085
10.9377
11.119
11.2624
11.3767
11.4687
11.5439
11.6062
11.6587
11.7038
11.7433
11.7785
11.8104
11.84
11.8679
11.8946
11.9204
11.9459
11.9713
11.9969
12.023
12.0499
12.0778
12.107
12.138
12.1712
12.2069
12.246
12.289
12.3369
12.3909
12.4524
12.5233
12.6061
12.704
12.8211
12.9629
13.1365
13.3505
13.615
13.94
14.3307
14.773
15.1886
15.3972
7.70315
8.46711
9.21088
9.83522
10.3227
10.686
10.9539
11.1532
11.3035
11.4189
11.5091
11.5811
11.6398
11.6887
11.7303
11.7664
11.7986
11.8278
11.8549
11.8805
11.905
11.929
11.9526
11.9763
12.0003
12.0248
12.0501
12.0764
12.104
12.1333
12.1647
12.1985
12.2355
12.2762
12.3216
12.373
12.4316
12.4997
12.5798
12.6755
12.792
12.9363
13.1186
13.3532
13.6603
14.0676
14.6051
15.2834
16.0815
16.9104
4.86811
7.46797
8.8862
9.77053
10.3752
10.7828
11.0589
11.2521
11.3917
11.4956
11.5752
11.6377
11.6882
11.73
11.7655
11.7964
11.824
11.8493
11.8729
11.8954
11.9172
11.9386
11.96
11.9816
12.0036
12.0261
12.0494
12.0737
12.0993
12.1263
12.1552
12.1864
12.2203
12.2577
12.2992
12.3459
12.3993
12.4611
12.5339
12.6212
12.7282
12.8624
13.0356
13.2662
13.5846
14.0412
14.7055
15.6623
17.1661
19.8836
0.000161578
6.38546
9.05067
10.1472
10.7409
11.0916
11.3071
11.4489
11.5484
11.6216
11.6775
11.7216
11.7575
11.7875
11.8134
11.8363
11.8573
11.8769
11.8957
11.914
11.9321
11.9503
11.9687
11.9875
12.0068
12.0267
12.0475
12.0691
12.0919
12.1159
12.1415
12.1689
12.1984
12.2307
12.2662
12.3058
12.3505
12.4015
12.4609
12.5311
12.6159
12.7212
12.8563
13.0376
13.2971
13.6989
14.3595
15.5507
18.332
24.8415
)
;

boundaryField
{
    movingWallTop
    {
        type            zeroGradient;
    }
    movingWallBottom
    {
        type            zeroGradient;
    }
    fixedWalls
    {
        type            zeroGradient;
    }
    frontAndBack
    {
        type            empty;
    }
}


// ************************************************************************* //
