/*--------------------------------*- C++ -*----------------------------------*\
  =========                 |
  \\      /  F ield         | OpenFOAM: The Open Source CFD Toolbox
   \\    /   O peration     | Website:  https://openfoam.org
    \\  /    A nd           | Version:  7
     \\/     M anipulation  |
\*---------------------------------------------------------------------------*/
FoamFile
{
    version     2.0;
    format      ascii;
    class       volVectorField;
    location    "0.0562";
    object      U;
}
// * * * * * * * * * * * * * * * * * * * * * * * * * * * * * * * * * * * * * //

dimensions      [0 1 -1 0 0 0 0];

internalField   nonuniform List<vector> 
2500
(
(0.290245 -0.152407 0)
(0.389518 -0.128228 0)
(0.565397 -0.074729 0)
(0.683226 -0.0422315 0)
(0.75283 -0.0245331 0)
(0.797864 -0.0148951 0)
(0.82906 -0.00958985 0)
(0.851569 -0.00656809 0)
(0.868417 -0.00474503 0)
(0.881425 -0.00357078 0)
(0.8917 -0.00276711 0)
(0.899951 -0.00218864 0)
(0.906654 -0.00175551 0)
(0.912145 -0.00142133 0)
(0.916667 -0.00115745 0)
(0.920402 -0.00094522 0)
(0.923489 -0.000771873 0)
(0.926034 -0.000628288 0)
(0.928124 -0.000507721 0)
(0.929822 -0.000405021 0)
(0.931182 -0.000316134 0)
(0.932244 -0.000237774 0)
(0.933038 -0.000167196 0)
(0.933587 -0.000102035 0)
(0.933905 -4.01851e-05 0)
(0.934002 2.03062e-05 0)
(0.933879 8.14498e-05 0)
(0.933532 0.000145071 0)
(0.932949 0.000213202 0)
(0.932112 0.00028809 0)
(0.930994 0.000372313 0)
(0.929562 0.000468946 0)
(0.927767 0.000581786 0)
(0.92555 0.000715686 0)
(0.922834 0.000877037 0)
(0.919517 0.00107452 0)
(0.915469 0.00132033 0)
(0.910517 0.00163224 0)
(0.904424 0.00203731 0)
(0.896866 0.002579 0)
(0.887376 0.00333133 0)
(0.875261 0.0044286 0)
(0.859432 0.00612946 0)
(0.838089 0.00895461 0)
(0.808179 0.013964 0)
(0.764431 0.0232495 0)
(0.695913 0.0407733 0)
(0.577939 0.0737473 0)
(0.398043 0.128743 0)
(0.293866 0.153783 0)
(0.00107889 -0.294874 0)
(0.0168399 -0.298598 0)
(0.152305 -0.213014 0)
(0.282855 -0.145335 0)
(0.388054 -0.0996629 0)
(0.47132 -0.069849 0)
(0.536803 -0.0505078 0)
(0.588353 -0.0377163 0)
(0.629308 -0.0289628 0)
(0.662225 -0.0227456 0)
(0.688966 -0.0181746 0)
(0.710886 -0.0147115 0)
(0.728981 -0.0120213 0)
(0.743999 -0.00988756 0)
(0.756505 -0.00816578 0)
(0.766936 -0.00675578 0)
(0.775635 -0.00558585 0)
(0.78287 -0.00460305 0)
(0.788855 -0.00376722 0)
(0.793761 -0.00304701 0)
(0.797724 -0.00241727 0)
(0.80085 -0.00185733 0)
(0.80322 -0.00134965 0)
(0.804895 -0.000878909 0)
(0.805914 -0.000431285 0)
(0.806302 6.16431e-06 0)
(0.806064 0.0004461 0)
(0.805188 0.000901204 0)
(0.803645 0.00138491 0)
(0.801388 0.00191196 0)
(0.798347 0.00249916 0)
(0.79443 0.00316633 0)
(0.789515 0.00393764 0)
(0.783444 0.00484345 0)
(0.776017 0.005923 0)
(0.766978 0.00722835 0)
(0.755995 0.00883053 0)
(0.742638 0.0108292 0)
(0.726341 0.0133688 0)
(0.706348 0.0166654 0)
(0.681631 0.0210549 0)
(0.650776 0.0270789 0)
(0.611805 0.0356426 0)
(0.561948 0.0482979 0)
(0.497474 0.0677037 0)
(0.41392 0.0981634 0)
(0.306386 0.145788 0)
(0.170546 0.217306 0)
(0.0269048 0.307195 0)
(0.00518395 0.303003 0)
(-0.0329213 -0.250366 0)
(-0.0615901 -0.344028 0)
(-0.0114743 -0.310603 0)
(0.0708713 -0.251568 0)
(0.159033 -0.196064 0)
(0.241621 -0.15151 0)
(0.314279 -0.11782 0)
(0.376311 -0.0927252 0)
(0.428613 -0.0739333 0)
(0.472532 -0.0596656 0)
(0.509404 -0.0486495 0)
(0.540403 -0.0399973 0)
(0.56651 -0.0330915 0)
(0.588528 -0.0274991 0)
(0.60711 -0.0229109 0)
(0.622784 -0.0191019 0)
(0.635981 -0.0159047 0)
(0.647052 -0.0131919 0)
(0.656281 -0.0108645 0)
(0.663901 -0.00884338 0)
(0.670099 -0.00706418 0)
(0.675023 -0.005473 0)
(0.678788 -0.00402359 0)
(0.681479 -0.00267504 0)
(0.683156 -0.00139009 0)
(0.68385 -0.000133598 0)
(0.683571 0.00112869 0)
(0.682299 0.0024316 0)
(0.679995 0.00381178 0)
(0.676587 0.00530922 0)
(0.671976 0.00696921 0)
(0.666028 0.00884467 0)
(0.658569 0.0109994 0)
(0.649379 0.0135122 0)
(0.63818 0.0164834 0)
(0.624623 0.0200432 0)
(0.608269 0.0243644 0)
(0.588567 0.0296821 0)
(0.564821 0.0363218 0)
(0.536155 0.044744 0)
(0.501468 0.0556111 0)
(0.459398 0.0698872 0)
(0.40833 0.0889752 0)
(0.34651 0.114873 0)
(0.27251 0.150226 0)
(0.186458 0.197798 0)
(0.0923871 0.258124 0)
(0.00191146 0.323351 0)
(-0.0569097 0.361562 0)
(-0.0321675 0.263989 0)
(-0.0267685 -0.190602 0)
(-0.0654074 -0.333005 0)
(-0.0644925 -0.351533 0)
(-0.0273823 -0.319317 0)
(0.0298145 -0.272097 0)
(0.0940173 -0.225588 0)
(0.157536 -0.185263 0)
(0.216567 -0.152032 0)
(0.269591 -0.125165 0)
(0.316312 -0.103533 0)
(0.357026 -0.0860572 0)
(0.392274 -0.0718395 0)
(0.422663 -0.0601737 0)
(0.448785 -0.0505161 0)
(0.471178 -0.0424499 0)
(0.490317 -0.0356539 0)
(0.506612 -0.0298782 0)
(0.520412 -0.0249251 0)
(0.532014 -0.0206361 0)
(0.541664 -0.0168813 0)
(0.549566 -0.0135526 0)
(0.555884 -0.0105576 0)
(0.560747 -0.00781566 0)
(0.564253 -0.00525454 0)
(0.566466 -0.00280763 0)
(0.567424 -0.000411615 0)
(0.567134 0.00199564 0)
(0.565575 0.00447729 0)
(0.562695 0.0070997 0)
(0.558411 0.009935 0)
(0.552606 0.0130641 0)
(0.545124 0.0165804 0)
(0.535766 0.020595 0)
(0.524284 0.0252426 0)
(0.510371 0.0306906 0)
(0.493656 0.0371508 0)
(0.473687 0.0448958 0)
(0.449927 0.0542807 0)
(0.42174 0.0657738 0)
(0.388397 0.0799951 0)
(0.349094 0.0977637 0)
(0.30303 0.120141 0)
(0.249579 0.148436 0)
(0.188656 0.184083 0)
(0.121426 0.228153 0)
(0.0515614 0.279967 0)
(-0.0128922 0.333783 0)
(-0.0577131 0.372306 0)
(-0.0646402 0.355983 0)
(-0.0272803 0.204819 0)
(-0.0178424 -0.149169 0)
(-0.0530778 -0.302963 0)
(-0.0735541 -0.354955 0)
(-0.0664643 -0.350376 0)
(-0.0372248 -0.319761 0)
(0.00495131 -0.280463 0)
(0.0528553 -0.241065 0)
(0.101724 -0.205184 0)
(0.148713 -0.173929 0)
(0.19232 -0.147273 0)
(0.231891 -0.124741 0)
(0.26727 -0.105738 0)
(0.298574 -0.0896888 0)
(0.326059 -0.0760868 0)
(0.350038 -0.0645047 0)
(0.370835 -0.0545881 0)
(0.388761 -0.0460447 0)
(0.404104 -0.0386321 0)
(0.417119 -0.032148 0)
(0.428029 -0.0264213 0)
(0.437023 -0.0213051 0)
(0.444258 -0.0166711 0)
(0.449858 -0.0124048 0)
(0.453917 -0.00840223 0)
(0.4565 -0.00456584 0)
(0.45764 -0.000802219 0)
(0.457344 0.00298095 0)
(0.455585 0.00687757 0)
(0.452307 0.0109861 0)
(0.447424 0.015413 0)
(0.440812 0.0202761 0)
(0.432311 0.0257098 0)
(0.421724 0.0318706 0)
(0.408807 0.0389446 0)
(0.393272 0.0471562 0)
(0.374784 0.0567802 0)
(0.352959 0.0681559 0)
(0.327373 0.0817038 0)
(0.297581 0.0979434 0)
(0.263157 0.117507 0)
(0.223772 0.141136 0)
(0.179338 0.169639 0)
(0.130262 0.203739 0)
(0.0778528 0.24371 0)
(0.0249211 0.288573 0)
(-0.0234526 0.334506 0)
(-0.0592387 0.371961 0)
(-0.0718543 0.381346 0)
(-0.0542887 0.328265 0)
(-0.0186369 0.162506 0)
(-0.0114197 -0.120928 0)
(-0.0402294 -0.270012 0)
(-0.0677609 -0.34026 0)
(-0.0776292 -0.357492 0)
(-0.0687231 -0.344253 0)
(-0.0458361 -0.316034 0)
(-0.0141518 -0.282216 0)
(0.0220617 -0.247947 0)
(0.0596892 -0.215756 0)
(0.0966662 -0.18668 0)
(0.131737 -0.160968 0)
(0.16421 -0.138485 0)
(0.19377 -0.118931 0)
(0.220331 -0.101953 0)
(0.243953 -0.0872031 0)
(0.264771 -0.074359 0)
(0.28296 -0.0631331 0)
(0.298705 -0.0532717 0)
(0.312191 -0.0445522 0)
(0.323588 -0.0367784 0)
(0.333048 -0.0297759 0)
(0.340701 -0.0233882 0)
(0.346653 -0.0174721 0)
(0.350983 -0.0118946 0)
(0.353747 -0.00652978 0)
(0.354971 -0.00125517 0)
(0.354657 0.00405078 0)
(0.352776 0.00951198 0)
(0.349272 0.0152579 0)
(0.344061 0.0214272 0)
(0.337025 0.0281718 0)
(0.328019 0.0356619 0)
(0.316865 0.0440911 0)
(0.303355 0.0536833 0)
(0.287253 0.0646999 0)
(0.268302 0.0774477 0)
(0.246238 0.0922866 0)
(0.220811 0.109634 0)
(0.191825 0.129963 0)
(0.159202 0.153779 0)
(0.123094 0.181568 0)
(0.0840369 0.213666 0)
(0.0431941 0.250005 0)
(0.00266476 0.289631 0)
(-0.03418 0.329864 0)
(-0.0624926 0.364945 0)
(-0.0761627 0.38411 0)
(-0.0692848 0.369519 0)
(-0.0422557 0.295453 0)
(-0.0121753 0.133034 0)
(-0.00746353 -0.100946 0)
(-0.0303992 -0.239778 0)
(-0.0585457 -0.318235 0)
(-0.0768194 -0.350458 0)
(-0.081135 -0.351985 0)
(-0.0730104 -0.33529 0)
(-0.0554651 -0.309123 0)
(-0.0316596 -0.2791 0)
(-0.00432667 -0.248555 0)
(0.0244327 -0.219315 0)
(0.0531266 -0.192266 0)
(0.0807609 -0.167747 0)
(0.106717 -0.145786 0)
(0.130645 -0.126248 0)
(0.152377 -0.108925 0)
(0.171869 -0.0935781 0)
(0.18915 -0.0799645 0)
(0.204296 -0.0678517 0)
(0.217402 -0.0570213 0)
(0.228574 -0.0472708 0)
(0.237913 -0.0384122 0)
(0.24551 -0.0302711 0)
(0.251442 -0.0226836 0)
(0.255767 -0.0154941 0)
(0.258525 -0.00855252 0)
(0.259734 -0.00171147 0)
(0.259387 0.00517631 0)
(0.257456 0.0122611 0)
(0.25389 0.0196993 0)
(0.248612 0.0276569 0)
(0.241522 0.0363129 0)
(0.232498 0.0458639 0)
(0.221402 0.0565278 0)
(0.208076 0.0685481 0)
(0.192362 0.082198 0)
(0.174105 0.0977817 0)
(0.153183 0.115633 0)
(0.129533 0.136103 0)
(0.103209 0.159539 0)
(0.0744498 0.186231 0)
(0.0437852 0.216309 0)
(0.0121752 0.249576 0)
(-0.0188235 0.285204 0)
(-0.0468919 0.321261 0)
(-0.068876 0.354004 0)
(-0.0809756 0.376946 0)
(-0.0793931 0.379845 0)
(-0.0619415 0.348148 0)
(-0.0327094 0.264029 0)
(-0.00811971 0.111707 0)
(-0.00512653 -0.086301 0)
(-0.0234967 -0.21352 0)
(-0.0498022 -0.29409 0)
(-0.0715984 -0.335589 0)
(-0.0839145 -0.348369 0)
(-0.0862837 -0.341921 0)
(-0.080005 -0.323732 0)
(-0.0670707 -0.299189 0)
(-0.0495564 -0.271906 0)
(-0.0292848 -0.244161 0)
(-0.0077098 -0.217307 0)
(0.0140813 -0.192077 0)
(0.0353164 -0.16881 0)
(0.055475 -0.147606 0)
(0.0742264 -0.128419 0)
(0.0913785 -0.111124 0)
(0.106836 -0.0955526 0)
(0.120568 -0.0815175 0)
(0.132586 -0.0688254 0)
(0.142925 -0.0572845 0)
(0.151631 -0.0467075 0)
(0.158752 -0.0369133 0)
(0.164331 -0.0277265 0)
(0.168402 -0.0189761 0)
(0.170986 -0.0104947 0)
(0.172089 -0.00211569 0)
(0.1717 0.00632849 0)
(0.169791 0.0150089 0)
(0.166317 0.0241025 0)
(0.161215 0.0337951 0)
(0.15441 0.044284 0)
(0.145813 0.0557804 0)
(0.135331 0.0685113 0)
(0.122872 0.0827209 0)
(0.108358 0.0986689 0)
(0.0917468 0.116625 0)
(0.0730529 0.136858 0)
(0.0523885 0.159611 0)
(0.0300132 0.185056 0)
(0.00640127 0.213224 0)
(-0.0176754 0.243882 0)
(-0.041054 0.276345 0)
(-0.0620971 0.30919 0)
(-0.0786618 0.339864 0)
(-0.0882105 0.364179 0)
(-0.088194 0.37578 0)
(-0.0767895 0.365799 0)
(-0.0542102 0.323102 0)
(-0.0258683 0.235845 0)
(-0.00569614 0.0957158 0)
(-0.00372878 -0.0751122 0)
(-0.0187291 -0.190984 0)
(-0.042551 -0.270195 0)
(-0.0653283 -0.316755 0)
(-0.0822107 -0.337467 0)
(-0.0917106 -0.339337 0)
(-0.0939555 -0.328458 0)
(-0.0899602 -0.309635 0)
(-0.081113 -0.286397 0)
(-0.0688241 -0.261195 0)
(-0.0543465 -0.235651 0)
(-0.0387103 -0.210782 0)
(-0.0227171 -0.187181 0)
(-0.0069638 -0.165157 0)
(0.00812281 -0.144825 0)
(0.0222501 -0.126183 0)
(0.0352274 -0.109149 0)
(0.0469386 -0.0935973 0)
(0.05732 -0.0793742 0)
(0.0663435 -0.0663119 0)
(0.0740025 -0.0542358 0)
(0.0803026 -0.0429683 0)
(0.0852532 -0.0323314 0)
(0.0888624 -0.0221472 0)
(0.0911331 -0.0122377 0)
(0.0920595 -0.00242386 0)
(0.0916265 0.00747548 0)
(0.0898081 0.0176452 0)
(0.0865686 0.0282756 0)
(0.0818636 0.0395638 0)
(0.0756433 0.051715 0)
(0.0678572 0.064943 0)
(0.0584614 0.0794695 0)
(0.0474289 0.0955213 0)
(0.0347643 0.113324 0)
(0.0205241 0.13309 0)
(0.00484316 0.154996 0)
(-0.0120296 0.179152 0)
(-0.0296878 0.205543 0)
(-0.0475164 0.233946 0)
(-0.0646378 0.263808 0)
(-0.0798678 0.294064 0)
(-0.0917044 0.32291 0)
(-0.0983918 0.347508 0)
(-0.0981267 0.363682 0)
(-0.089487 0.365697 0)
(-0.0720766 0.346301 0)
(-0.0474336 0.297298 0)
(-0.0210576 0.211009 0)
(-0.00423049 0.083229 0)
(-0.00286234 -0.0661985 0)
(-0.0154078 -0.171526 0)
(-0.0368327 -0.247485 0)
(-0.0593785 -0.296175 0)
(-0.0787065 -0.322063 0)
(-0.0929114 -0.330253 0)
(-0.101408 -0.325564 0)
(-0.104488 -0.312096 0)
(-0.102943 -0.293087 0)
(-0.0977526 -0.270959 0)
(-0.0898996 -0.24744 0)
(-0.0802673 -0.223717 0)
(-0.0696002 -0.200562 0)
(-0.0584961 -0.178447 0)
(-0.0474177 -0.157632 0)
(-0.0367113 -0.138226 0)
(-0.0266288 -0.120238 0)
(-0.0173476 -0.103607 0)
(-0.00898892 -0.088227 0)
(-0.00163262 -0.0739639 0)
(0.00467008 -0.0606638 0)
(0.009887 -0.0481614 0)
(0.0139973 -0.036284 0)
(0.0169857 -0.024854 0)
(0.0188383 -0.0136901 0)
(0.0195397 -0.00260766 0)
(0.0190713 0.00858109 0)
(0.0174112 0.0200677 0)
(0.0145345 0.0320478 0)
(0.0104158 0.0447211 0)
(0.00503312 0.0582911 0)
(-0.00162679 0.0729631 0)
(-0.0095599 0.0889408 0)
(-0.0187338 0.10642 0)
(-0.0290727 0.125577 0)
(-0.0404382 0.146551 0)
(-0.052605 0.169419 0)
(-0.0652322 0.194153 0)
(-0.0778306 0.22056 0)
(-0.0897314 0.2482 0)
(-0.100062 0.276272 0)
(-0.107741 0.303465 0)
(-0.111523 0.327786 0)
(-0.110109 0.346374 0)
(-0.102387 0.355352 0)
(-0.0878176 0.349805 0)
(-0.0669223 0.324014 0)
(-0.0418445 0.272082 0)
(-0.0176322 0.1891 0)
(-0.00330766 0.0730855 0)
(-0.00230204 -0.0588283 0)
(-0.0130544 -0.154499 0)
(-0.0324099 -0.226209 0)
(-0.0542166 -0.275044 0)
(-0.0747377 -0.303964 0)
(-0.0919846 -0.316675 0)
(-0.104984 -0.316934 0)
(-0.113538 -0.308147 0)
(-0.117967 -0.293168 0)
(-0.118868 -0.274264 0)
(-0.116943 -0.253154 0)
(-0.112888 -0.231093 0)
(-0.10734 -0.20896 0)
(-0.100845 -0.187343 0)
(-0.0938553 -0.166611 0)
(-0.0867307 -0.146971 0)
(-0.0797521 -0.128512 0)
(-0.0731335 -0.111235 0)
(-0.0670345 -0.0950871 0)
(-0.0615727 -0.0799688 0)
(-0.0568336 -0.0657533 0)
(-0.0528793 -0.0522935 0)
(-0.0497555 -0.0394283 0)
(-0.0474969 -0.0269866 0)
(-0.046131 -0.0147902 0)
(-0.0456807 -0.00265554 0)
(-0.046166 0.0096052 0)
(-0.047604 0.0221832 0)
(-0.0500078 0.0352721 0)
(-0.0533838 0.0490663 0)
(-0.0577279 0.0637588 0)
(-0.0630191 0.0795375 0)
(-0.0692114 0.0965785 0)
(-0.076223 0.115037 0)
(-0.0839224 0.135032 0)
(-0.0921119 0.156628 0)
(-0.100509 0.179798 0)
(-0.108724 0.20439 0)
(-0.116243 0.23006 0)
(-0.122412 0.256201 0)
(-0.12644 0.281849 0)
(-0.127423 0.305567 0)
(-0.124415 0.32533 0)
(-0.116561 0.338428 0)
(-0.103322 0.341427 0)
(-0.0847883 0.330256 0)
(-0.0620141 0.300508 0)
(-0.0373211 0.247996 0)
(-0.0151335 0.169615 0)
(-0.00269675 0.0645684 0)
(-0.0019248 -0.0525384 0)
(-0.0113558 -0.139356 0)
(-0.0290094 -0.206316 0)
(-0.0499252 -0.253967 0)
(-0.0709283 -0.284302 0)
(-0.0901124 -0.300024 0)
(-0.106325 -0.304045 0)
(-0.119057 -0.299146 0)
(-0.128287 -0.287784 0)
(-0.134295 -0.272004 0)
(-0.137525 -0.253437 0)
(-0.138482 -0.233331 0)
(-0.137672 -0.212612 0)
(-0.135557 -0.191937 0)
(-0.132547 -0.17175 0)
(-0.128985 -0.152331 0)
(-0.125156 -0.133835 0)
(-0.121285 -0.116324 0)
(-0.117555 -0.0997868 0)
(-0.114105 -0.0841636 0)
(-0.111044 -0.0693559 0)
(-0.108455 -0.0552381 0)
(-0.106403 -0.041665 0)
(-0.104936 -0.0284773 0)
(-0.104092 -0.0155051 0)
(-0.103898 -0.0025715 0)
(-0.104374 0.0105055 0)
(-0.105532 0.0239105 0)
(-0.107372 0.0378287 0)
(-0.109885 0.0524425 0)
(-0.113042 0.0679279 0)
(-0.116795 0.0844485 0)
(-0.121063 0.102147 0)
(-0.125727 0.121134 0)
(-0.130619 0.14147 0)
(-0.135504 0.163144 0)
(-0.140073 0.18604 0)
(-0.143929 0.209899 0)
(-0.146575 0.234264 0)
(-0.147424 0.258418 0)
(-0.14581 0.281308 0)
(-0.141035 0.301469 0)
(-0.132451 0.316958 0)
(-0.119591 0.325314 0)
(-0.102353 0.323592 0)
(-0.0812464 0.308497 0)
(-0.0575924 0.276681 0)
(-0.0336638 0.225198 0)
(-0.0132604 0.152102 0)
(-0.00227167 0.0572265 0)
(-0.00166195 -0.0470242 0)
(-0.010109 -0.125667 0)
(-0.0263955 -0.187644 0)
(-0.0464364 -0.233222 0)
(-0.0675361 -0.263772 0)
(-0.0879388 -0.281283 0)
(-0.106436 -0.28801 0)
(-0.122339 -0.286207 0)
(-0.135384 -0.27795 0)
(-0.145607 -0.265043 0)
(-0.153234 -0.248981 0)
(-0.158591 -0.230957 0)
(-0.162046 -0.211892 0)
(-0.16397 -0.192473 0)
(-0.164705 -0.173187 0)
(-0.16456 -0.154365 0)
(-0.163799 -0.136213 0)
(-0.162648 -0.118837 0)
(-0.16129 -0.102268 0)
(-0.159877 -0.0864794 0)
(-0.15853 -0.0714022 0)
(-0.157344 -0.0569335 0)
(-0.156394 -0.0429466 0)
(-0.15574 -0.029297 0)
(-0.155423 -0.0158275 0)
(-0.155473 -0.00237222 0)
(-0.15591 0.01124 0)
(-0.156737 0.0251824 0)
(-0.157946 0.0396264 0)
(-0.15951 0.0547376 0)
(-0.161384 0.0706703 0)
(-0.163496 0.0875599 0)
(-0.165743 0.105514 0)
(-0.16798 0.124596 0)
(-0.170018 0.144814 0)
(-0.17161 0.166089 0)
(-0.172446 0.188231 0)
(-0.172149 0.210902 0)
(-0.170275 0.233568 0)
(-0.166331 0.255452 0)
(-0.159798 0.275479 0)
(-0.150185 0.292229 0)
(-0.137113 0.303908 0)
(-0.120426 0.308348 0)
(-0.100344 0.303082 0)
(-0.0776288 0.285484 0)
(-0.0537045 0.253035 0)
(-0.0306872 0.203672 0)
(-0.0118192 0.136195 0)
(-0.00196259 0.0507648 0)
(-0.00147376 -0.0420784 0)
(-0.00918096 -0.1131 0)
(-0.024382 -0.170002 0)
(-0.0436358 -0.212911 0)
(-0.0646372 -0.242791 0)
(-0.0857977 -0.261122 0)
(-0.105923 -0.269656 0)
(-0.124226 -0.270213 0)
(-0.140284 -0.26453 0)
(-0.153952 -0.254167 0)
(-0.165276 -0.240464 0)
(-0.174429 -0.224527 0)
(-0.181651 -0.20724 0)
(-0.18721 -0.189283 0)
(-0.191381 -0.171163 0)
(-0.19442 -0.153239 0)
(-0.196563 -0.135749 0)
(-0.198016 -0.118834 0)
(-0.198955 -0.102558 0)
(-0.199532 -0.0869244 0)
(-0.199869 -0.0718895 0)
(-0.200067 -0.0573734 0)
(-0.200207 -0.0432689 0)
(-0.200351 -0.0294486 0)
(-0.200543 -0.0157706 0)
(-0.200815 -0.00208345 0)
(-0.201179 0.0117698 0)
(-0.201636 0.0259471 0)
(-0.202166 0.0406028 0)
(-0.202732 0.0558822 0)
(-0.203275 0.0719155 0)
(-0.203706 0.0888087 0)
(-0.203908 0.106633 0)
(-0.203726 0.125413 0)
(-0.202965 0.145105 0)
(-0.201382 0.165577 0)
(-0.198687 0.186586 0)
(-0.194545 0.207737 0)
(-0.188586 0.228458 0)
(-0.180424 0.247953 0)
(-0.169688 0.265176 0)
(-0.156082 0.278799 0)
(-0.139452 0.287213 0)
(-0.119883 0.288554 0)
(-0.0978157 0.280786 0)
(-0.0741533 0.261841 0)
(-0.0503218 0.229836 0)
(-0.0282427 0.18333 0)
(-0.0106849 0.121606 0)
(-0.00172961 0.0449821 0)
(-0.00133624 -0.0375557 0)
(-0.00848256 -0.101397 0)
(-0.0228271 -0.153209 0)
(-0.0414048 -0.193045 0)
(-0.0622213 -0.2216 0)
(-0.083848 -0.239992 0)
(-0.105137 -0.249588 0)
(-0.12526 -0.251855 0)
(-0.143692 -0.248234 0)
(-0.160156 -0.24006 0)
(-0.17456 -0.228511 0)
(-0.186945 -0.21459 0)
(-0.197437 -0.199117 0)
(-0.206213 -0.182747 0)
(-0.21347 -0.16598 0)
(-0.219412 -0.149185 0)
(-0.224234 -0.132619 0)
(-0.228116 -0.116446 0)
(-0.231218 -0.100752 0)
(-0.233682 -0.0855666 0)
(-0.235625 -0.0708672 0)
(-0.237148 -0.0565952 0)
(-0.238329 -0.0426629 0)
(-0.239231 -0.0289606 0)
(-0.239898 -0.0153634 0)
(-0.240357 -0.0017361 0)
(-0.240619 0.0120615 0)
(-0.240677 0.0261698 0)
(-0.240504 0.0407237 0)
(-0.240055 0.0558471 0)
(-0.239259 0.071645 0)
(-0.238023 0.0881951 0)
(-0.236222 0.105537 0)
(-0.2337 0.123657 0)
(-0.230268 0.142473 0)
(-0.225704 0.161815 0)
(-0.219752 0.181401 0)
(-0.212133 0.200809 0)
(-0.202559 0.219455 0)
(-0.190752 0.236564 0)
(-0.176486 0.251147 0)
(-0.159631 0.262002 0)
(-0.140216 0.267716 0)
(-0.118507 0.266715 0)
(-0.0950859 0.257339 0)
(-0.0709228 0.237972 0)
(-0.0473922 0.207212 0)
(-0.0262171 0.164059 0)
(-0.00977566 0.108104 0)
(-0.00154901 0.0397356 0)
(-0.00123422 -0.0333515 0)
(-0.00795266 -0.0903652 0)
(-0.0216237 -0.137104 0)
(-0.0396368 -0.173591 0)
(-0.0602419 -0.200338 0)
(-0.082152 -0.218199 0)
(-0.10428 -0.228248 0)
(-0.125787 -0.231665 0)
(-0.146086 -0.229641 0)
(-0.164809 -0.223306 0)
(-0.181757 -0.213681 0)
(-0.196865 -0.201655 0)
(-0.210162 -0.187977 0)
(-0.221737 -0.173255 0)
(-0.23172 -0.157967 0)
(-0.240257 -0.142478 0)
(-0.247501 -0.127047 0)
(-0.2536 -0.111851 0)
(-0.258692 -0.0969928 0)
(-0.262901 -0.0825182 0)
(-0.266338 -0.068424 0)
(-0.269093 -0.0546698 0)
(-0.271243 -0.0411858 0)
(-0.272844 -0.02788 0)
(-0.273938 -0.0146448 0)
(-0.274548 -0.00136252 0)
(-0.274681 0.0120893 0)
(-0.274323 0.0258323 0)
(-0.273444 0.0399814 0)
(-0.271991 0.0546385 0)
(-0.26989 0.0698851 0)
(-0.267045 0.0857727 0)
(-0.263331 0.102313 0)
(-0.258602 0.119463 0)
(-0.252685 0.137112 0)
(-0.245386 0.155065 0)
(-0.236493 0.17302 0)
(-0.22579 0.19055 0)
(-0.213071 0.207083 0)
(-0.198167 0.221888 0)
(-0.180977 0.234061 0)
(-0.16151 0.242534 0)
(-0.139942 0.246093 0)
(-0.116665 0.243423 0)
(-0.0923484 0.233188 0)
(-0.0679816 0.214131 0)
(-0.0448617 0.185212 0)
(-0.0245271 0.145742 0)
(-0.0090365 0.0955101 0)
(-0.00140606 0.0349206 0)
(-0.00115773 -0.0293889 0)
(-0.00754836 -0.079852 0)
(-0.0206915 -0.121552 0)
(-0.038242 -0.154498 0)
(-0.0586405 -0.179077 0)
(-0.0807207 -0.195947 0)
(-0.103458 -0.205956 0)
(-0.126021 -0.210053 0)
(-0.14779 -0.209217 0)
(-0.16833 -0.204395 0)
(-0.187365 -0.19646 0)
(-0.204746 -0.186189 0)
(-0.220419 -0.174249 0)
(-0.2344 -0.161192 0)
(-0.246752 -0.147463 0)
(-0.25757 -0.133407 0)
(-0.266962 -0.119279 0)
(-0.275043 -0.105257 0)
(-0.281926 -0.0914521 0)
(-0.287716 -0.0779214 0)
(-0.292508 -0.0646762 0)
(-0.296384 -0.0516911 0)
(-0.299411 -0.0389127 0)
(-0.301641 -0.0262657 0)
(-0.303108 -0.0136593 0)
(-0.303833 -0.000993342 0)
(-0.303816 0.0118366 0)
(-0.303041 0.0249332 0)
(-0.301471 0.038392 0)
(-0.299052 0.0522942 0)
(-0.29571 0.0666995 0)
(-0.291348 0.0816372 0)
(-0.285853 0.0970962 0)
(-0.27909 0.113013 0)
(-0.27091 0.12926 0)
(-0.261152 0.145626 0)
(-0.249654 0.161809 0)
(-0.236263 0.177392 0)
(-0.220854 0.191838 0)
(-0.203354 0.204473 0)
(-0.183771 0.214494 0)
(-0.162229 0.220969 0)
(-0.139013 0.222872 0)
(-0.114605 0.219119 0)
(-0.0897234 0.208642 0)
(-0.0653451 0.190471 0)
(-0.0426827 0.163835 0)
(-0.0231111 0.128265 0)
(-0.00843003 0.0836752 0)
(-0.00129127 0.0304572 0)
(-0.00110001 -0.0256106 0)
(-0.00723903 -0.0697412 0)
(-0.0199698 -0.106439 0)
(-0.0371468 -0.135711 0)
(-0.057359 -0.157852 0)
(-0.07954 -0.173374 0)
(-0.102723 -0.182948 0)
(-0.126095 -0.187336 0)
(-0.149018 -0.187336 0)
(-0.171014 -0.183734 0)
(-0.19175 -0.177268 0)
(-0.21101 -0.168606 0)
(-0.228672 -0.158327 0)
(-0.244691 -0.146925 0)
(-0.259073 -0.1348 0)
(-0.271862 -0.12227 0)
(-0.283126 -0.109575 0)
(-0.292947 -0.0968882 0)
(-0.30141 -0.0843213 0)
(-0.3086 -0.0719373 0)
(-0.314596 -0.0597572 0)
(-0.319467 -0.047768 0)
(-0.323271 -0.03593 0)
(-0.326051 -0.0241831 0)
(-0.327837 -0.0124525 0)
(-0.328642 -0.000654939 0)
(-0.328463 0.0112967 0)
(-0.327279 0.0234871 0)
(-0.325053 0.0359934 0)
(-0.321729 0.048878 0)
(-0.317234 0.0621822 0)
(-0.31148 0.0759173 0)
(-0.304362 0.0900559 0)
(-0.295765 0.104521 0)
(-0.285566 0.119177 0)
(-0.273642 0.133813 0)
(-0.259878 0.148135 0)
(-0.244184 0.161754 0)
(-0.226509 0.174178 0)
(-0.206863 0.184807 0)
(-0.185346 0.192938 0)
(-0.162174 0.197777 0)
(-0.137712 0.198468 0)
(-0.112503 0.194129 0)
(-0.0872868 0.183914 0)
(-0.0630152 0.167077 0)
(-0.0408165 0.143052 0)
(-0.0219246 0.111522 0)
(-0.00793031 0.0724778 0)
(-0.00119835 0.0262823 0)
(-0.00105634 -0.0219732 0)
(-0.00700248 -0.0599418 0)
(-0.0194127 -0.0916739 0)
(-0.0362922 -0.117176 0)
(-0.0563446 -0.136677 0)
(-0.0785843 -0.150576 0)
(-0.102096 -0.159401 0)
(-0.126088 -0.16376 0)
(-0.149914 -0.1643 0)
(-0.173071 -0.161665 0)
(-0.19518 -0.156467 0)
(-0.215975 -0.14927 0)
(-0.235283 -0.14057 0)
(-0.253003 -0.130794 0)
(-0.269095 -0.120295 0)
(-0.283557 -0.109356 0)
(-0.296422 -0.0981959 0)
(-0.307739 -0.0869746 0)
(-0.317567 -0.0758002 0)
(-0.325971 -0.0647365 0)
(-0.333013 -0.0538102 0)
(-0.338748 -0.0430173 0)
(-0.343223 -0.0323294 0)
(-0.346475 -0.0216998 0)
(-0.348525 -0.0110686 0)
(-0.34938 -0.000367674 0)
(-0.349035 0.0104735 0)
(-0.347465 0.0215232 0)
(-0.344632 0.0328418 0)
(-0.340481 0.0444758 0)
(-0.334944 0.0564512 0)
(-0.32794 0.0687662 0)
(-0.31938 0.081383 0)
(-0.309167 0.0942194 0)
(-0.297207 0.107139 0)
(-0.283412 0.119941 0)
(-0.267716 0.132354 0)
(-0.250083 0.144026 0)
(-0.230529 0.154519 0)
(-0.209135 0.163312 0)
(-0.186075 0.169805 0)
(-0.161637 0.173335 0)
(-0.136245 0.173199 0)
(-0.11048 0.168689 0)
(-0.0850882 0.159142 0)
(-0.0609889 0.143989 0)
(-0.0392325 0.122815 0)
(-0.020935 0.0954124 0)
(-0.00751912 0.0618142 0)
(-0.001123 0.0223449 0)
(-0.00102339 -0.0184431 0)
(-0.00682249 -0.050382 0)
(-0.0189858 -0.0771802 0)
(-0.0356318 -0.0988451 0)
(-0.0555521 -0.115554 0)
(-0.0778256 -0.127616 0)
(-0.101581 -0.135445 0)
(-0.126046 -0.139519 0)
(-0.150575 -0.140355 0)
(-0.174646 -0.13847 0)
(-0.19785 -0.134366 0)
(-0.219883 -0.128505 0)
(-0.240529 -0.121301 0)
(-0.259645 -0.113115 0)
(-0.277149 -0.104248 0)
(-0.293004 -0.0949439 0)
(-0.307209 -0.0853954 0)
(-0.319783 -0.0757446 0)
(-0.330764 -0.0660902 0)
(-0.340195 -0.056493 0)
(-0.348122 -0.0469817 0)
(-0.354588 -0.0375584 0)
(-0.35963 -0.0282038 0)
(-0.363274 -0.0188824 0)
(-0.365537 -0.00954736 0)
(-0.36642 -0.000144855 0)
(-0.365912 0.00938106 0)
(-0.363989 0.0190838 0)
(-0.360612 0.0290094 0)
(-0.355728 0.0391908 0)
(-0.349275 0.0496427 0)
(-0.341182 0.0603545 0)
(-0.331373 0.071284 0)
(-0.319772 0.0823497 0)
(-0.306312 0.0934237 0)
(-0.290939 0.104324 0)
(-0.27363 0.114808 0)
(-0.254398 0.124569 0)
(-0.233314 0.133231 0)
(-0.210519 0.140354 0)
(-0.186248 0.14544 0)
(-0.160841 0.147946 0)
(-0.134765 0.147308 0)
(-0.108623 0.142968 0)
(-0.0831607 0.134411 0)
(-0.0592611 0.121211 0)
(-0.0379076 0.103066 0)
(-0.0201186 0.0798422 0)
(-0.00718361 0.0515942 0)
(-0.00106225 0.0186019 0)
(-0.000998776 -0.0149943 0)
(-0.00668715 -0.0410049 0)
(-0.018663 -0.0628959 0)
(-0.0351293 -0.0806751 0)
(-0.0549442 -0.094478 0)
(-0.0772368 -0.104541 0)
(-0.101171 -0.111181 0)
(-0.125994 -0.114767 0)
(-0.151062 -0.115702 0)
(-0.175842 -0.114391 0)
(-0.199903 -0.111231 0)
(-0.222914 -0.106593 0)
(-0.244624 -0.10081 0)
(-0.264858 -0.0941758 0)
(-0.2835 -0.0869372 0)
(-0.300484 -0.0792979 0)
(-0.315778 -0.0714188 0)
(-0.32938 -0.0634208 0)
(-0.341305 -0.0553895 0)
(-0.35158 -0.0473793 0)
(-0.360235 -0.0394176 0)
(-0.367302 -0.03151 0)
(-0.372807 -0.0236441 0)
(-0.376769 -0.0157938 0)
(-0.379197 -0.00792366 0)
(-0.38009 7.65673e-06 0)
(-0.379434 0.008043 0)
(-0.377201 0.0162228 0)
(-0.373354 0.0245809 0)
(-0.367843 0.0331398 0)
(-0.360613 0.041906 0)
(-0.3516 0.0508647 0)
(-0.340744 0.059974 0)
(-0.327988 0.0691593 0)
(-0.313288 0.0783074 0)
(-0.296622 0.0872611 0)
(-0.278002 0.0958147 0)
(-0.257485 0.103711 0)
(-0.235186 0.110641 0)
(-0.211295 0.116246 0)
(-0.186091 0.120126 0)
(-0.159955 0.12185 0)
(-0.133385 0.120978 0)
(-0.106997 0.117081 0)
(-0.081527 0.109769 0)
(-0.0578274 0.0987259 0)
(-0.0368243 0.0837386 0)
(-0.0194584 0.0647221 0)
(-0.00691463 0.0417373 0)
(-0.00101401 0.0150162 0)
(-0.00098079 -0.0116059 0)
(-0.00658776 -0.0317645 0)
(-0.0184251 -0.0487696 0)
(-0.0347571 -0.0626286 0)
(-0.0544913 -0.0734418 0)
(-0.0767945 -0.0813837 0)
(-0.100858 -0.0866878 0)
(-0.125946 -0.0896296 0)
(-0.151416 -0.0905083 0)
(-0.17673 -0.0896303 0)
(-0.201443 -0.0872955 0)
(-0.2252 -0.0837861 0)
(-0.247728 -0.0793589 0)
(-0.268826 -0.0742402 0)
(-0.288353 -0.068623 0)
(-0.306217 -0.0626672 0)
(-0.322365 -0.0565 0)
(-0.336775 -0.0502182 0)
(-0.349444 -0.0438912 0)
(-0.360384 -0.0375639 0)
(-0.369614 -0.0312606 0)
(-0.377154 -0.0249877 0)
(-0.383022 -0.0187378 0)
(-0.38723 -0.0124926 0)
(-0.389783 -0.00622636 0)
(-0.390676 9.1229e-05 0)
(-0.38989 0.00649152 0)
(-0.387399 0.0130038 0)
(-0.383165 0.0196518 0)
(-0.377143 0.0264502 0)
(-0.369282 0.0334004 0)
(-0.359528 0.0404869 0)
(-0.347832 0.0476726 0)
(-0.334154 0.0548945 0)
(-0.318471 0.0620594 0)
(-0.300787 0.06904 0)
(-0.281143 0.0756722 0)
(-0.25963 0.0817528 0)
(-0.236399 0.0870404 0)
(-0.211677 0.0912579 0)
(-0.185776 0.0940991 0)
(-0.15911 0.0952387 0)
(-0.132192 0.0943464 0)
(-0.105648 0.091105 0)
(-0.0802035 0.0852315 0)
(-0.0566841 0.0764994 0)
(-0.0359703 0.0647613 0)
(-0.0189422 0.049966 0)
(-0.00670576 0.0321699 0)
(-0.000976828 0.0115549 0)
(-0.000968229 -0.00826094 0)
(-0.00651811 -0.0226229 0)
(-0.0182578 -0.0347582 0)
(-0.0344946 -0.044673 0)
(-0.0541705 -0.0524366 0)
(-0.0764794 -0.0581686 0)
(-0.100634 -0.06203 0)
(-0.125907 -0.0642106 0)
(-0.151664 -0.064918 0)
(-0.17736 -0.0643656 0)
(-0.202541 -0.0627631 0)
(-0.226838 -0.0603091 0)
(-0.24996 -0.0571851 0)
(-0.271689 -0.0535519 0)
(-0.291864 -0.0495475 0)
(-0.310374 -0.0452868 0)
(-0.327152 -0.0408618 0)
(-0.342158 -0.036343 0)
(-0.355377 -0.0317813 0)
(-0.36681 -0.0272104 0)
(-0.376465 -0.022649 0)
(-0.384355 -0.0181029 0)
(-0.390491 -0.013568 0)
(-0.39488 -0.00903244 0)
(-0.397521 -0.0044787 0)
(-0.398407 0.000113724 0)
(-0.397519 0.00476614 0)
(-0.394828 0.00949823 0)
(-0.390299 0.0143256 0)
(-0.383887 0.0192569 0)
(-0.375548 0.0242914 0)
(-0.365235 0.0294157 0)
(-0.352909 0.0346009 0)
(-0.338542 0.0397994 0)
(-0.322128 0.0449417 0)
(-0.30369 0.0499347 0)
(-0.283294 0.0546586 0)
(-0.261053 0.0589671 0)
(-0.237147 0.0626873 0)
(-0.211828 0.0656226 0)
(-0.185435 0.0675571 0)
(-0.158398 0.0682636 0)
(-0.131248 0.067513 0)
(-0.104609 0.0650877 0)
(-0.0792017 0.0607954 0)
(-0.0558286 0.0544847 0)
(-0.0353365 0.0460595 0)
(-0.0185615 0.0354908 0)
(-0.0065525 0.0228233 0)
(-0.000949704 0.00818771 0)
(-0.000960275 -0.00494531 0)
(-0.00647389 -0.0135481 0)
(-0.0181514 -0.0208248 0)
(-0.0343273 -0.0267797 0)
(-0.0539654 -0.0314532 0)
(-0.0762774 -0.0349155 0)
(-0.100488 -0.0372607 0)
(-0.125881 -0.0386003 0)
(-0.151821 -0.0390562 0)
(-0.177763 -0.0387543 0)
(-0.203247 -0.0378187 0)
(-0.227895 -0.0363674 0)
(-0.251405 -0.0345085 0)
(-0.273545 -0.032338 0)
(-0.294144 -0.0299388 0)
(-0.313079 -0.0273801 0)
(-0.330271 -0.0247174 0)
(-0.34567 -0.0219936 0)
(-0.359252 -0.0192399 0)
(-0.37101 -0.016477 0)
(-0.380946 -0.0137166 0)
(-0.389066 -0.0109628 0)
(-0.395378 -0.00821366 0)
(-0.399885 -0.00546238 0)
(-0.402583 -0.00269897 0)
(-0.403462 8.84599e-05 0)
(-0.402503 0.00291224 0)
(-0.399676 0.00578367 0)
(-0.394946 0.00871151 0)
(-0.388273 0.0117003 0)
(-0.379613 0.0147488 0)
(-0.368926 0.0178482 0)
(-0.356179 0.0209799 0)
(-0.341354 0.0241145 0)
(-0.324456 0.0272092 0)
(-0.305522 0.030207 0)
(-0.284631 0.0330354 0)
(-0.261914 0.0356059 0)
(-0.237569 0.037815 0)
(-0.211866 0.0395449 0)
(-0.185158 0.0406676 0)
(-0.157889 0.0410486 0)
(-0.130595 0.0405535 0)
(-0.103904 0.039055 0)
(-0.0785296 0.0364416 0)
(-0.0552591 0.0326266 0)
(-0.034917 0.027556 0)
(-0.0183107 0.021215 0)
(-0.00645185 0.0136323 0)
(-0.000931961 0.00488655 0)
(-0.000956419 -0.00164659 0)
(-0.00645243 -0.00451178 0)
(-0.0180997 -0.0069366 0)
(-0.0342459 -0.00892251 0)
(-0.0538655 -0.0104829 0)
(-0.0761787 -0.0116408 0)
(-0.100417 -0.0124272 0)
(-0.125867 -0.0128788 0)
(-0.151897 -0.013036 0)
(-0.17796 -0.0129402 0)
(-0.203593 -0.0126327 0)
(-0.228413 -0.0121525 0)
(-0.252114 -0.0115354 0)
(-0.274458 -0.0108135 0)
(-0.295266 -0.0100144 0)
(-0.314412 -0.00916116 0)
(-0.331808 -0.00827236 0)