/*--------------------------------*- C++ -*----------------------------------*\
  =========                 |
  \\      /  F ield         | OpenFOAM: The Open Source CFD Toolbox
   \\    /   O peration     | Website:  https://openfoam.org
    \\  /    A nd           | Version:  7
     \\/     M anipulation  |
\*---------------------------------------------------------------------------*/
FoamFile
{
    version     2.0;
    format      ascii;
    class       volScalarField;
    location    "0.0388";
    object      p;
}
// * * * * * * * * * * * * * * * * * * * * * * * * * * * * * * * * * * * * * //

dimensions      [0 2 -2 0 0 0 0];

internalField   nonuniform List<scalar> 
2500
(
-1.22745e-06
-6.51175
-9.2965
-10.4918
-11.1566
-11.5622
-11.8251
-12.0091
-12.1461
-12.2525
-12.3376
-12.4072
-12.4648
-12.5132
-12.5542
-12.5891
-12.6189
-12.6445
-12.6665
-12.6855
-12.7018
-12.7159
-12.7281
-12.7388
-12.7482
-12.7566
-12.7643
-12.7717
-12.7789
-12.7864
-12.7945
-12.8037
-12.8143
-12.827
-12.8423
-12.8611
-12.8844
-12.9134
-12.9499
-12.9962
-13.0557
-13.1339
-13.2393
-13.3877
-13.61
-13.9672
-14.5663
-15.6667
-18.3336
-24.7185
-4.9557
-7.67547
-9.18194
-10.1417
-10.8091
-11.2686
-11.5897
-11.8225
-11.9973
-12.1325
-12.2397
-12.3264
-12.3977
-12.4572
-12.5073
-12.5499
-12.5863
-12.6176
-12.6447
-12.6683
-12.6888
-12.7069
-12.7229
-12.7371
-12.7501
-12.7621
-12.7734
-12.7845
-12.7956
-12.8072
-12.8198
-12.8337
-12.8497
-12.8684
-12.8907
-12.9176
-12.9503
-12.9909
-13.0415
-13.1056
-13.188
-13.2959
-13.4403
-13.6389
-13.9207
-14.3337
-14.943
-15.8308
-17.2506
-19.8497
-7.92557
-8.75772
-9.55844
-10.2392
-10.7791
-11.1888
-11.498
-11.7344
-11.918
-12.0631
-12.1798
-12.275
-12.3538
-12.4198
-12.4755
-12.5231
-12.5639
-12.5992
-12.6299
-12.6567
-12.6803
-12.7013
-12.72
-12.737
-12.7526
-12.7673
-12.7813
-12.7951
-12.8091
-12.8237
-12.8395
-12.8569
-12.8767
-12.8996
-12.9265
-12.9586
-12.9974
-13.0448
-13.1034
-13.1765
-13.2692
-13.388
-13.5426
-13.7467
-14.0197
-14.388
-14.8798
-15.5074
-16.2528
-17.0162
-9.4355
-9.64845
-10.0672
-10.5119
-10.9047
-11.2316
-11.4978
-11.7132
-11.8878
-12.0303
-12.1475
-12.2449
-12.3265
-12.3956
-12.4544
-12.5049
-12.5486
-12.5866
-12.6198
-12.649
-12.6749
-12.6981
-12.719
-12.7381
-12.7557
-12.7725
-12.7886
-12.8045
-12.8208
-12.8377
-12.8559
-12.8759
-12.8984
-12.9242
-12.9542
-12.9896
-13.0318
-13.0828
-13.1448
-13.2208
-13.315
-13.4325
-13.5801
-13.7661
-14.0002
-14.2919
-14.6469
-15.0524
-15.4344
-15.6121
-10.3215
-10.3204
-10.5239
-10.8004
-11.0749
-11.3248
-11.5433
-11.73
-11.8879
-12.0212
-12.1338
-12.2293
-12.3106
-12.3804
-12.4405
-12.4926
-12.538
-12.5777
-12.6127
-12.6438
-12.6715
-12.6964
-12.719
-12.7398
-12.7592
-12.7776
-12.7955
-12.8132
-12.8312
-12.85
-12.8701
-12.892
-12.9165
-12.9443
-12.9763
-13.0136
-13.0576
-13.1098
-13.1722
-13.2474
-13.3381
-13.4481
-13.5812
-13.7416
-13.9322
-14.1532
-14.3983
-14.6468
-14.8263
-14.8076
-10.8885
-10.8135
-10.9018
-11.069
-11.2566
-11.4428
-11.6167
-11.7731
-11.9111
-12.0315
-12.136
-12.2266
-12.3053
-12.3738
-12.4335
-12.4859
-12.5319
-12.5725
-12.6086
-12.6408
-12.6697
-12.6959
-12.7198
-12.7419
-12.7627
-12.7824
-12.8017
-12.8207
-12.8401
-12.8602
-12.8816
-12.9049
-12.9306
-12.9595
-12.9924
-13.0304
-13.0744
-13.126
-13.1865
-13.2579
-13.342
-13.4408
-13.5563
-13.6895
-13.8397
-14.0023
-14.1674
-14.3147
-14.3878
-14.3058
-11.2708
-11.179
-11.2086
-11.3073
-11.4335
-11.5697
-11.7051
-11.8331
-11.9506
-12.0565
-12.1511
-12.2349
-12.3092
-12.3748
-12.4328
-12.4843
-12.53
-12.5707
-12.6071
-12.6399
-12.6695
-12.6964
-12.7212
-12.7442
-12.7659
-12.7866
-12.8067
-12.8267
-12.847
-12.868
-12.8902
-12.9141
-12.9404
-12.9696
-13.0025
-13.04
-13.0829
-13.1323
-13.1893
-13.255
-13.3305
-13.4168
-13.5142
-13.6219
-13.7374
-13.8546
-13.9637
-14.0483
-14.0689
-13.9758
-11.5441
-11.4559
-11.4564
-11.5127
-11.5964
-11.6948
-11.7988
-11.9018
-12.0001
-12.0916
-12.1755
-12.2516
-12.3202
-12.3819
-12.4373
-12.487
-12.5315
-12.5716
-12.6078
-12.6405
-12.6703
-12.6976
-12.7228
-12.7463
-12.7685
-12.7898
-12.8105
-12.831
-12.8517
-12.8732
-12.8957
-12.9198
-12.946
-12.9749
-13.0071
-13.0432
-13.084
-13.1303
-13.1826
-13.2418
-13.3082
-13.3819
-13.4624
-13.548
-13.6354
-13.7187
-13.7896
-13.836
-13.8315
-13.7454
-11.7499
-11.671
-11.6573
-11.6874
-11.7422
-11.8127
-11.8918
-11.9739
-12.0551
-12.133
-12.2063
-12.2743
-12.3368
-12.3939
-12.4459
-12.4931
-12.5359
-12.5748
-12.6102
-12.6424
-12.672
-12.6992
-12.7244
-12.748
-12.7704
-12.7919
-12.8128
-12.8335
-12.8543
-12.8758
-12.8982
-12.922
-12.9477
-12.9757
-13.0066
-13.0408
-13.0789
-13.1214
-13.1687
-13.2211
-13.2785
-13.3405
-13.4062
-13.4734
-13.5389
-13.5975
-13.6427
-13.6663
-13.6504
-13.5754
-11.9113
-11.8421
-11.8218
-11.8358
-11.8709
-11.9211
-11.9809
-12.0457
-12.1122
-12.1779
-12.2412
-12.3012
-12.3574
-12.4095
-12.4577
-12.5019
-12.5425
-12.5798
-12.6139
-12.6452
-12.6741
-12.7009
-12.7258
-12.7492
-12.7714
-12.7928
-12.8136
-12.8341
-12.8548
-12.8759
-12.8978
-12.921
-12.9458
-12.9725
-13.0017
-13.0336
-13.0687
-13.1073
-13.1494
-13.1951
-13.2442
-13.2959
-13.3489
-13.4013
-13.4501
-13.491
-13.5191
-13.529
-13.5085
-13.4446
-12.0415
-11.9811
-11.9582
-11.9623
-11.984
-12.0193
-12.0642
-12.1152
-12.1692
-12.2241
-12.2783
-12.3307
-12.3807
-12.4278
-12.4718
-12.5129
-12.5509
-12.5861
-12.6186
-12.6487
-12.6766
-12.7026
-12.7269
-12.7498
-12.7715
-12.7925
-12.8129
-12.833
-12.8532
-12.8737
-12.8949
-12.9171
-12.9407
-12.9659
-12.9931
-13.0226
-13.0545
-13.089
-13.1262
-13.1658
-13.2073
-13.2501
-13.2927
-13.3334
-13.3695
-13.3978
-13.4147
-13.4165
-13.3949
-13.3406
-12.1489
-12.096
-12.0726
-12.0706
-12.0832
-12.1077
-12.1412
-12.181
-12.2247
-12.2702
-12.3163
-12.3616
-12.4057
-12.4478
-12.4877
-12.5253
-12.5605
-12.5934
-12.624
-12.6526
-12.6792
-12.7041
-12.7275
-12.7497
-12.7707
-12.791
-12.8108
-12.8302
-12.8497
-12.8694
-12.8896
-12.9107
-12.9329
-12.9564
-12.9815
-13.0084
-13.0371
-13.0678
-13.1004
-13.1344
-13.1695
-13.2047
-13.2388
-13.2703
-13.297
-13.3164
-13.3258
-13.3231
-13.302
-13.2557
-12.2391
-12.1925
-12.1696
-12.164
-12.1704
-12.187
-12.2118
-12.2428
-12.2778
-12.3154
-12.3542
-12.3932
-12.4316
-12.4689
-12.5047
-12.5389
-12.5711
-12.6015
-12.6301
-12.6568
-12.682
-12.7056
-12.7279
-12.749
-12.7691
-12.7885
-12.8074
-12.826
-12.8445
-12.8632
-12.8823
-12.9021
-12.9227
-12.9445
-12.9674
-12.9918
-13.0175
-13.0446
-13.0729
-13.1021
-13.1315
-13.1605
-13.1878
-13.2122
-13.2319
-13.245
-13.2496
-13.2443
-13.2245
-13.185
-12.3158
-12.2747
-12.2529
-12.2451
-12.2473
-12.2582
-12.2764
-12.3003
-12.3283
-12.3591
-12.3915
-12.4248
-12.458
-12.4907
-12.5226
-12.5532
-12.5824
-12.6102
-12.6365
-12.6613
-12.6848
-12.7069
-12.7278
-12.7478
-12.7668
-12.7852
-12.803
-12.8206
-12.838
-12.8555
-12.8734
-12.8918
-12.9108
-12.9307
-12.9515
-12.9734
-12.9963
-13.0201
-13.0446
-13.0695
-13.0942
-13.118
-13.1399
-13.1588
-13.1733
-13.182
-13.1836
-13.1771
-13.159
-13.1252
-12.3817
-12.3453
-12.325
-12.3161
-12.3154
-12.3222
-12.3353
-12.3536
-12.3758
-12.4009
-12.4278
-12.4559
-12.4844
-12.5129
-12.5408
-12.568
-12.5943
-12.6194
-12.6433
-12.6661
-12.6877
-12.7081
-12.7276
-12.7462
-12.7639
-12.7811
-12.7978
-12.8141
-12.8304
-12.8466
-12.8631
-12.88
-12.8974
-12.9155
-12.9342
-12.9538
-12.974
-12.9948
-13.016
-13.0372
-13.058
-13.0775
-13.0951
-13.1098
-13.1205
-13.1262
-13.1259
-13.1189
-13.1027
-13.0738
-12.4389
-12.4068
-12.388
-12.3787
-12.3761
-12.3799
-12.3891
-12.403
-12.4204
-12.4407
-12.4629
-12.4864
-12.5106
-12.5351
-12.5594
-12.5833
-12.6065
-12.6289
-12.6505
-12.6711
-12.6907
-12.7094
-12.7272
-12.7443
-12.7607
-12.7765
-12.7919
-12.807
-12.8219
-12.8368
-12.8519
-12.8672
-12.883
-12.8992
-12.916
-12.9333
-12.9511
-12.9693
-12.9875
-13.0056
-13.0229
-13.0391
-13.0533
-13.0647
-13.0727
-13.0763
-13.0749
-13.068
-13.0537
-13.0291
-12.489
-12.4606
-12.4435
-12.4343
-12.4306
-12.4321
-12.4385
-12.4488
-12.4624
-12.4785
-12.4966
-12.5161
-12.5364
-12.5572
-12.5781
-12.5988
-12.6191
-12.6388
-12.658
-12.6763
-12.6939
-12.7108
-12.7269
-12.7424
-12.7573
-12.7716
-12.7856
-12.7993
-12.8128
-12.8263
-12.8399
-12.8537
-12.8678
-12.8823
-12.8972
-12.9124
-12.928
-12.9437
-12.9594
-12.9747
-12.9893
-13.0026
-13.0141
-13.0231
-13.0291
-13.0313
-13.0293
-13.023
-13.0105
-12.9897
-12.5332
-12.5083
-12.4929
-12.484
-12.4797
-12.4797
-12.4838
-12.4914
-12.5018
-12.5145
-12.529
-12.5449
-12.5617
-12.5791
-12.5968
-12.6145
-12.632
-12.6491
-12.6658
-12.6819
-12.6975
-12.7124
-12.7267
-12.7405
-12.7538
-12.7666
-12.7791
-12.7914
-12.8034
-12.8155
-12.8276
-12.8398
-12.8523
-12.865
-12.878
-12.8913
-12.9048
-12.9183
-12.9317
-12.9447
-12.9569
-12.9679
-12.9772
-12.9844
-12.9889
-12.9903
-12.9882
-12.9826
-12.972
-12.9546
-12.5726
-12.5509
-12.5372
-12.5289
-12.5243
-12.5234
-12.5258
-12.5311
-12.5389
-12.5487
-12.5602
-12.5729
-12.5866
-12.6009
-12.6156
-12.6304
-12.6452
-12.6598
-12.674
-12.6879
-12.7014
-12.7144
-12.7269
-12.7389
-12.7505
-12.7618
-12.7727
-12.7834
-12.794
-12.8045
-12.815
-12.8257
-12.8365
-12.8475
-12.8588
-12.8702
-12.8817
-12.8933
-12.9046
-12.9156
-12.9257
-12.9348
-12.9425
-12.9482
-12.9517
-12.9526
-12.9507
-12.9459
-12.9371
-12.9229
-12.6079
-12.5893
-12.5772
-12.5697
-12.5652
-12.5636
-12.5647
-12.5683
-12.5739
-12.5813
-12.5901
-12.6001
-12.6109
-12.6224
-12.6343
-12.6464
-12.6586
-12.6708
-12.6827
-12.6944
-12.7057
-12.7167
-12.7274
-12.7376
-12.7475
-12.7571
-12.7664
-12.7756
-12.7846
-12.7935
-12.8025
-12.8115
-12.8207
-12.83
-12.8396
-12.8492
-12.8589
-12.8686
-12.8781
-12.8872
-12.8957
-12.9032
-12.9094
-12.9141
-12.9169
-12.9176
-12.916
-12.9121
-12.9051
-12.8939
-12.6399
-12.6242
-12.6139
-12.6072
-12.6029
-12.601
-12.6012
-12.6034
-12.6072
-12.6126
-12.6191
-12.6266
-12.6349
-12.6438
-12.6531
-12.6627
-12.6724
-12.6822
-12.6918
-12.7013
-12.7106
-12.7197
-12.7284
-12.7368
-12.745
-12.7529
-12.7606
-12.7681
-12.7755
-12.7828
-12.7901
-12.7976
-12.8051
-12.8127
-12.8205
-12.8284
-12.8364
-12.8444
-12.8522
-12.8596
-12.8666
-12.8727
-12.8778
-12.8816
-12.8839
-12.8846
-12.8835
-12.8806
-12.8754
-12.867
-12.6693
-12.6563
-12.6477
-12.642
-12.6381
-12.636
-12.6356
-12.6367
-12.6391
-12.6426
-12.6471
-12.6524
-12.6584
-12.665
-12.6719
-12.6791
-12.6865
-12.694
-12.7015
-12.7088
-12.7161
-12.7232
-12.73
-12.7366
-12.743
-12.7492
-12.7552
-12.761
-12.7667
-12.7724
-12.7781
-12.7839
-12.7897
-12.7957
-12.8017
-12.808
-12.8142
-12.8205
-12.8267
-12.8326
-12.8382
-12.8431
-12.8472
-12.8504
-12.8524
-12.8531
-12.8526
-12.8508
-12.8473
-12.8417
-12.6965
-12.6863
-12.6794
-12.6747
-12.6713
-12.6692
-12.6684
-12.6686
-12.6697
-12.6717
-12.6744
-12.6778
-12.6817
-12.6861
-12.6908
-12.6958
-12.701
-12.7063
-12.7116
-12.7169
-12.7222
-12.7273
-12.7323
-12.7371
-12.7417
-12.7461
-12.7503
-12.7545
-12.7585
-12.7625
-12.7665
-12.7706
-12.7747
-12.7789
-12.7833
-12.7878
-12.7924
-12.797
-12.8016
-12.8061
-12.8103
-12.8141
-12.8174
-12.82
-12.8218
-12.8227
-12.8228
-12.8221
-12.8204
-12.8174
-12.7221
-12.7145
-12.7094
-12.7057
-12.7029
-12.701
-12.6998
-12.6993
-12.6994
-12.7001
-12.7012
-12.7028
-12.7048
-12.7071
-12.7098
-12.7127
-12.7158
-12.719
-12.7223
-12.7256
-12.7289
-12.7321
-12.7352
-12.7382
-12.741
-12.7437
-12.7462
-12.7486
-12.7509
-12.7532
-12.7554
-12.7577
-12.7601
-12.7625
-12.7651
-12.7679
-12.7708
-12.7738
-12.7768
-12.7798
-12.7828
-12.7855
-12.788
-12.7901
-12.7917
-12.7929
-12.7937
-12.7941
-12.7941
-12.7938
-12.7465
-12.7416
-12.7382
-12.7356
-12.7335
-12.7317
-12.7303
-12.7293
-12.7284
-12.7279
-12.7276
-12.7275
-12.7277
-12.7282
-12.7289
-12.7298
-12.731
-12.7322
-12.7336
-12.735
-12.7363
-12.7377
-12.739
-12.7401
-12.7411
-12.742
-12.7428
-12.7434
-12.744
-12.7444
-12.7449
-12.7454
-12.7459
-12.7465
-12.7473
-12.7483
-12.7494
-12.7507
-12.7522
-12.7537
-12.7554
-12.7571
-12.7587
-12.7603
-12.7618
-12.7633
-12.7648
-12.7663
-12.768
-12.7703
-12.7703
-12.768
-12.7663
-12.7648
-12.7633
-12.7618
-12.7603
-12.7587
-12.7571
-12.7554
-12.7537
-12.7522
-12.7507
-12.7494
-12.7483
-12.7473
-12.7465
-12.7459
-12.7454
-12.7449
-12.7444
-12.744
-12.7434
-12.7428
-12.742
-12.7411
-12.7401
-12.739
-12.7377
-12.7363
-12.7349
-12.7336
-12.7322
-12.731
-12.7298
-12.7289
-12.7282
-12.7277
-12.7275
-12.7276
-12.7279
-12.7284
-12.7292
-12.7303
-12.7317
-12.7335
-12.7356
-12.7382
-12.7416
-12.7465
-12.7938
-12.7941
-12.7941
-12.7937
-12.7929
-12.7917
-12.7901
-12.788
-12.7855
-12.7828
-12.7799
-12.7768
-12.7738
-12.7708
-12.7679
-12.7651
-12.7625
-12.7601
-12.7577
-12.7554
-12.7532
-12.7509
-12.7486
-12.7462
-12.7437
-12.741
-12.7382
-12.7352
-12.7321
-12.7289
-12.7256
-12.7223
-12.719
-12.7158
-12.7127
-12.7098
-12.7071
-12.7048
-12.7028
-12.7012
-12.7001
-12.6994
-12.6993
-12.6998
-12.701
-12.7029
-12.7057
-12.7094
-12.7145
-12.7221
-12.8174
-12.8204
-12.8221
-12.8228
-12.8227
-12.8218
-12.82
-12.8174
-12.8141
-12.8103
-12.8061
-12.8016
-12.797
-12.7924
-12.7878
-12.7833
-12.7789
-12.7747
-12.7706
-12.7665
-12.7625
-12.7585
-12.7545
-12.7503
-12.7461
-12.7417
-12.7371
-12.7323
-12.7273
-12.7222
-12.7169
-12.7116
-12.7063
-12.701
-12.6958
-12.6908
-12.686
-12.6817
-12.6778
-12.6744
-12.6717
-12.6697
-12.6686
-12.6683
-12.6692
-12.6713
-12.6747
-12.6794
-12.6863
-12.6965
-12.8417
-12.8473
-12.8508
-12.8526
-12.8531
-12.8524
-12.8504
-12.8472
-12.8431
-12.8382
-12.8326
-12.8267
-12.8205
-12.8142
-12.808
-12.8018
-12.7957
-12.7897
-12.7839
-12.7781
-12.7724
-12.7667
-12.761
-12.7552
-12.7492
-12.743
-12.7366
-12.73
-12.7232
-12.7161
-12.7088
-12.7015
-12.694
-12.6865
-12.6791
-12.6719
-12.665
-12.6584
-12.6524
-12.6471
-12.6426
-12.6391
-12.6367
-12.6356
-12.636
-12.6381
-12.642
-12.6477
-12.6563
-12.6693
-12.867
-12.8754
-12.8806
-12.8835
-12.8846
-12.8839
-12.8816
-12.8778
-12.8727
-12.8666
-12.8596
-12.8522
-12.8444
-12.8364
-12.8284
-12.8205
-12.8127
-12.8051
-12.7976
-12.7901
-12.7828
-12.7755
-12.7681
-12.7606
-12.7529
-12.745
-12.7368
-12.7284
-12.7197
-12.7106
-12.7013
-12.6918
-12.6822
-12.6724
-12.6627
-12.6531
-12.6438
-12.6349
-12.6266
-12.6191
-12.6125
-12.6072
-12.6034
-12.6012
-12.601
-12.6029
-12.6072
-12.6139
-12.6242
-12.6399
-12.8939
-12.9051
-12.9121
-12.916
-12.9176
-12.9169
-12.9141
-12.9094
-12.9032
-12.8957
-12.8872
-12.8781
-12.8686
-12.8589
-12.8492
-12.8396
-12.83
-12.8207
-12.8115
-12.8025
-12.7935
-12.7846
-12.7756
-12.7664
-12.7571
-12.7475
-12.7376
-12.7274
-12.7167
-12.7057
-12.6944
-12.6827
-12.6708
-12.6586
-12.6464
-12.6343
-12.6224
-12.6109
-12.6001
-12.5901
-12.5813
-12.5739
-12.5683
-12.5647
-12.5636
-12.5651
-12.5697
-12.5772
-12.5893
-12.6079
-12.9229
-12.9371
-12.9459
-12.9507
-12.9526
-12.9517
-12.9482
-12.9425
-12.9348
-12.9257
-12.9156
-12.9046
-12.8933
-12.8817
-12.8702
-12.8588
-12.8475
-12.8365
-12.8257
-12.815
-12.8045
-12.794
-12.7834
-12.7727
-12.7617
-12.7505
-12.7389
-12.7269
-12.7144
-12.7014
-12.6879
-12.674
-12.6597
-12.6452
-12.6304
-12.6156
-12.6009
-12.5866
-12.5729
-12.5602
-12.5487
-12.5388
-12.5311
-12.5257
-12.5233
-12.5243
-12.5288
-12.5371
-12.5509
-12.5726
-12.9546
-12.972
-12.9826
-12.9882
-12.9903
-12.9889
-12.9844
-12.9772
-12.9679
-12.9569
-12.9447
-12.9317
-12.9183
-12.9048
-12.8913
-12.878
-12.865
-12.8523
-12.8398
-12.8276
-12.8155
-12.8034
-12.7914
-12.7791
-12.7666
-12.7538
-12.7405
-12.7267
-12.7124
-12.6975
-12.6819
-12.6658
-12.6491
-12.632
-12.6145
-12.5968
-12.5791
-12.5617
-12.5449
-12.529
-12.5145
-12.5017
-12.4913
-12.4838
-12.4797
-12.4797
-12.484
-12.4929
-12.5083
-12.5332
-12.9897
-13.0105
-13.023
-13.0293
-13.0313
-13.0291
-13.0231
-13.0141
-13.0026
-12.9893
-12.9747
-12.9594
-12.9437
-12.928
-12.9124
-12.8972
-12.8823
-12.8678
-12.8537
-12.8399
-12.8263
-12.8128
-12.7993
-12.7856
-12.7716
-12.7572
-12.7424
-12.7269
-12.7108
-12.6939
-12.6763
-12.6579
-12.6388
-12.6191
-12.5988
-12.5781
-12.5572
-12.5364
-12.5161
-12.4966
-12.4785
-12.4624
-12.4488
-12.4384
-12.4321
-12.4306
-12.4342
-12.4435
-12.4606
-12.489
-13.0291
-13.0537
-13.068
-13.0749
-13.0763
-13.0727
-13.0647
-13.0533
-13.0391
-13.0229
-13.0056
-12.9875
-12.9693
-12.9511
-12.9333
-12.916
-12.8992
-12.883
-12.8672
-12.8519
-12.8368
-12.8219
-12.8069
-12.7919
-12.7765
-12.7607
-12.7443
-12.7272
-12.7094
-12.6907
-12.671
-12.6505
-12.6289
-12.6065
-12.5833
-12.5594
-12.5351
-12.5106
-12.4864
-12.4629
-12.4407
-12.4204
-12.403
-12.3891
-12.3799
-12.3761
-12.3787
-12.3879
-12.4067
-12.4389
-13.0738
-13.1027
-13.1189
-13.1259
-13.1262
-13.1206
-13.1098
-13.0951
-13.0775
-13.058
-13.0372
-13.016
-12.9948
-12.974
-12.9538
-12.9342
-12.9155
-12.8974
-12.88
-12.8631
-12.8466
-12.8304
-12.8141
-12.7978
-12.7811
-12.7639
-12.7462
-12.7276
-12.7081
-12.6876
-12.6661
-12.6433
-12.6194
-12.5942
-12.568
-12.5408
-12.5129
-12.4844
-12.4559
-12.4278
-12.4009
-12.3758
-12.3536
-12.3353
-12.3221
-12.3154
-12.3161
-12.3249
-12.3453
-12.3817
-13.1252
-13.159
-13.1771
-13.1836
-13.182
-13.1733
-13.1588
-13.1399
-13.118
-13.0942
-13.0695
-13.0446
-13.0201
-12.9963
-12.9734
-12.9515
-12.9307
-12.9108
-12.8918
-12.8734
-12.8555
-12.838
-12.8206
-12.803
-12.7852
-12.7668
-12.7478
-12.7278
-12.7069
-12.6848
-12.6613
-12.6365
-12.6102
-12.5824
-12.5532
-12.5225
-12.4907
-12.458
-12.4248
-12.3915
-12.3591
-12.3283
-12.3002
-12.2764
-12.2581
-12.2473
-12.2451
-12.2529
-12.2746
-12.3158
-13.185
-13.2245
-13.2443
-13.2496
-13.245
-13.2319
-13.2122
-13.1878
-13.1605
-13.1315
-13.1021
-13.0729
-13.0446
-13.0175
-12.9918
-12.9674
-12.9445
-12.9227
-12.9021
-12.8823
-12.8632
-12.8445
-12.826
-12.8074
-12.7885
-12.7691
-12.749
-12.7278
-12.7056
-12.682
-12.6568
-12.63
-12.6015
-12.5711
-12.5388
-12.5047
-12.4689
-12.4316
-12.3932
-12.3542
-12.3154
-12.2778
-12.2428
-12.2118
-12.187
-12.1704
-12.164
-12.1696
-12.1925
-12.2391
-13.2557
-13.302
-13.3231
-13.3258
-13.3164
-13.297
-13.2703
-13.2388
-13.2047
-13.1695
-13.1344
-13.1004
-13.0678
-13.0371
-13.0084
-12.9815
-12.9564
-12.9329
-12.9107
-12.8896
-12.8694
-12.8497
-12.8302
-12.8108
-12.791
-12.7707
-12.7497
-12.7275
-12.7041
-12.6792
-12.6526
-12.624
-12.5934
-12.5605
-12.5253
-12.4877
-12.4478
-12.4056
-12.3616
-12.3162
-12.2702
-12.2247
-12.181
-12.1412
-12.1076
-12.0832
-12.0706
-12.0726
-12.096
-12.1489
-13.3406
-13.3949
-13.4165
-13.4147
-13.3978
-13.3695
-13.3334
-13.2927
-13.2501
-13.2073
-13.1658
-13.1262
-13.089
-13.0545
-13.0226
-12.9931
-12.9659
-12.9407
-12.9171
-12.8949
-12.8737
-12.8531
-12.833
-12.8129
-12.7925
-12.7715
-12.7498
-12.7269
-12.7026
-12.6766
-12.6487
-12.6186
-12.5861
-12.5509
-12.5129
-12.4718
-12.4278
-12.3806
-12.3307
-12.2782
-12.2241
-12.1692
-12.1152
-12.0642
-12.0193
-11.984
-11.9623
-11.9582
-11.9811
-12.0415
-13.4446
-13.5085
-13.529
-13.5191
-13.491
-13.4501
-13.4013
-13.3489
-13.2959
-13.2442
-13.1951
-13.1494
-13.1073
-13.0687
-13.0336
-13.0017
-12.9725
-12.9458
-12.921
-12.8978
-12.8759
-12.8548
-12.8341
-12.8135
-12.7928
-12.7714
-12.7492
-12.7258
-12.7009
-12.6741
-12.6452
-12.6139
-12.5798
-12.5425
-12.5019
-12.4577
-12.4095
-12.3574
-12.3012
-12.2412
-12.1778
-12.1122
-12.0457
-11.9809
-11.921
-11.8709
-11.8358
-11.8218
-11.8421
-11.9112
-13.5754
-13.6504
-13.6663
-13.6427
-13.5975
-13.5389
-13.4734
-13.4062
-13.3405
-13.2785
-13.2211
-13.1687
-13.1214
-13.0789
-13.0408
-13.0066
-12.9757
-12.9477
-12.922
-12.8982
-12.8758
-12.8543
-12.8335
-12.8128
-12.7919
-12.7704
-12.748
-12.7244
-12.6992
-12.672
-12.6424
-12.6102
-12.5748
-12.5359
-12.4931
-12.4459
-12.3939
-12.3368
-12.2743
-12.2063
-12.133
-12.0551
-11.9739
-11.8918
-11.8127
-11.7422
-11.6874
-11.6573
-11.671
-11.7499
-13.7454
-13.8315
-13.836
-13.7896
-13.7187
-13.6354
-13.548
-13.4624
-13.3819
-13.3082
-13.2418
-13.1826
-13.1303
-13.084
-13.0432
-13.0071
-12.9749
-12.946
-12.9198
-12.8957
-12.8732
-12.8517
-12.831
-12.8104
-12.7898
-12.7685
-12.7463
-12.7228
-12.6976
-12.6703
-12.6405
-12.6078
-12.5716
-12.5315
-12.4869
-12.4373
-12.3819
-12.3202
-12.2516
-12.1755
-12.0916
-12.0001
-11.9018
-11.7988
-11.6948
-11.5964
-11.5127
-11.4564
-11.4559
-11.5441
-13.9758
-14.0689
-14.0483
-13.9637
-13.8546
-13.7374
-13.6219
-13.5142
-13.4168
-13.3305
-13.255
-13.1893
-13.1323
-13.0829
-13.04
-13.0025
-12.9696
-12.9404
-12.9141
-12.8902
-12.868
-12.847
-12.8267
-12.8067
-12.7866
-12.7659
-12.7442
-12.7212
-12.6964
-12.6695
-12.6399
-12.6071
-12.5707
-12.53
-12.4843
-12.4328
-12.3748
-12.3091
-12.2349
-12.151
-12.0565
-11.9505
-11.8331
-11.705
-11.5697
-11.4335
-11.3073
-11.2086
-11.179
-11.2708
-14.3058
-14.3878
-14.3147
-14.1674
-14.0023
-13.8397
-13.6895
-13.5563
-13.4408
-13.342
-13.2579
-13.1865
-13.126
-13.0744
-13.0304
-12.9924
-12.9595
-12.9306
-12.9049
-12.8816
-12.8602
-12.8401
-12.8207
-12.8016
-12.7824
-12.7627
-12.7419
-12.7198
-12.6959
-12.6697
-12.6408
-12.6086
-12.5725
-12.5319
-12.4859
-12.4335
-12.3738
-12.3053
-12.2266
-12.136
-12.0314
-11.9111
-11.7731
-11.6166
-11.4428
-11.2566
-11.069
-10.9018
-10.8135
-10.8885
-14.8076
-14.8263
-14.6468
-14.3983
-14.1532
-13.9322
-13.7416
-13.5812
-13.4481
-13.3381
-13.2474
-13.1722
-13.1098
-13.0576
-13.0136
-12.9763
-12.9443
-12.9165
-12.892
-12.8701
-12.85
-12.8312
-12.8132
-12.7955
-12.7776
-12.7592
-12.7398
-12.719
-12.6964
-12.6714
-12.6438
-12.6127
-12.5777
-12.538
-12.4926
-12.4405
-12.3804
-12.3106
-12.2292
-12.1338
-12.0212
-11.8879
-11.73
-11.5433
-11.3248
-11.0749
-10.8004
-10.5238
-10.3203
-10.3214
-15.6121
-15.4344
-15.0524
-14.6469
-14.2919
-14.0002
-13.7661
-13.5801
-13.4325
-13.315
-13.2208
-13.1448
-13.0828
-13.0318
-12.9896
-12.9542
-12.9242
-12.8984
-12.8759
-12.8559
-12.8377
-12.8208
-12.8045
-12.7886
-12.7725
-12.7557
-12.738
-12.719
-12.6981
-12.6749
-12.649
-12.6198
-12.5865
-12.5486
-12.5049
-12.4544
-12.3955
-12.3265
-12.2449
-12.1475
-12.0303
-11.8878
-11.7132
-11.4978
-11.2315
-10.9047
-10.5119
-10.0672
-9.64842
-9.43547
-17.0162
-16.2528
-15.5074
-14.8798
-14.388
-14.0197
-13.7467
-13.5426
-13.388
-13.2692
-13.1765
-13.1034
-13.0448
-12.9974
-12.9586
-12.9265
-12.8996
-12.8767
-12.8569
-12.8395
-12.8237
-12.8091
-12.7951
-12.7813
-12.7673
-12.7526
-12.737
-12.72
-12.7013
-12.6803
-12.6567
-12.6299
-12.5992
-12.5639
-12.5231
-12.4755
-12.4198
-12.3538
-12.275
-12.1798
-12.0631
-11.918
-11.7343
-11.498
-11.1888
-10.7791
-10.2391
-9.55841
-8.75769
-7.92554
-19.8497
-17.2506
-15.8308
-14.943
-14.3337
-13.9207
-13.6389
-13.4403
-13.2959
-13.188
-13.1056
-13.0415
-12.9909
-12.9503
-12.9175
-12.8907
-12.8684
-12.8497
-12.8337
-12.8198
-12.8072
-12.7956
-12.7844
-12.7734
-12.7621
-12.7501
-12.7371
-12.7228
-12.7069
-12.6888
-12.6683
-12.6447
-12.6176
-12.5863
-12.5498
-12.5073
-12.4572
-12.3977
-12.3264
-12.2397
-12.1325
-11.9973
-11.8224
-11.5896
-11.2686
-10.809
-10.1416
-9.18191
-7.67544
-4.95566
-24.7185
-18.3336
-15.6667
-14.5663
-13.9672
-13.61
-13.3877
-13.2393
-13.1339
-13.0557
-12.9962
-12.9499
-12.9134
-12.8844
-12.8611
-12.8423
-12.827
-12.8143
-12.8037
-12.7945
-12.7864
-12.7789
-12.7717
-12.7643
-12.7566
-12.7482
-12.7388
-12.7281
-12.7159
-12.7018
-12.6855
-12.6665
-12.6445
-12.6189
-12.5891
-12.5542
-12.5132
-12.4648
-12.4071
-12.3376
-12.2525
-12.1461
-12.0091
-11.8251
-11.5622
-11.1565
-10.4918
-9.29647
-6.51172
4.39572e-05
)
;

boundaryField
{
    movingWallTop
    {
        type            zeroGradient;
    }
    movingWallBottom
    {
        type            zeroGradient;
    }
    fixedWalls
    {
        type            zeroGradient;
    }
    frontAndBack
    {
        type            empty;
    }
}


// ************************************************************************* //
