/*--------------------------------*- C++ -*----------------------------------*\
  =========                 |
  \\      /  F ield         | OpenFOAM: The Open Source CFD Toolbox
   \\    /   O peration     | Website:  https://openfoam.org
    \\  /    A nd           | Version:  7
     \\/     M anipulation  |
\*---------------------------------------------------------------------------*/
FoamFile
{
    version     2.0;
    format      ascii;
    class       surfaceScalarField;
    location    "0.0678";
    object      phi;
}
// * * * * * * * * * * * * * * * * * * * * * * * * * * * * * * * * * * * * * //

dimensions      [0 3 -1 0 0 0 0];

internalField   nonuniform List<scalar> 
4900
(
1.13066e-09
-1.1285e-09
2.28889e-09
-1.15827e-09
2.34802e-09
-5.8949e-11
9.10848e-10
1.43714e-09
-2.10111e-09
3.01189e-09
-6.6041e-09
4.50294e-09
-1.2435e-08
5.83088e-09
-1.93952e-08
6.96017e-09
-2.72731e-08
7.87796e-09
-3.58559e-08
8.5828e-09
-4.49353e-08
9.07942e-09
-5.43115e-08
9.37619e-09
-6.37951e-08
9.4836e-09
-7.32085e-08
9.41344e-09
-8.23868e-08
9.17825e-09
-9.11778e-08
8.79097e-09
-9.94426e-08
8.2648e-09
-1.07056e-07
7.61301e-09
-1.13905e-07
6.84895e-09
-1.19891e-07
5.98604e-09
-1.24928e-07
5.03776e-09
-1.28946e-07
4.01774e-09
-1.31886e-07
2.9398e-09
-1.33704e-07
1.81807e-09
-1.34371e-07
6.66992e-10
-1.33872e-07
-4.98558e-10
-1.32209e-07
-1.66326e-09
-1.29398e-07
-2.81133e-09
-1.25471e-07
-3.9265e-09
-1.20479e-07
-4.99207e-09
-1.14488e-07
-5.99101e-09
-1.07582e-07
-6.90604e-09
-9.98623e-08
-7.71979e-09
-9.14473e-08
-8.415e-09
-8.24726e-08
-8.97476e-09
-7.30898e-08
-9.38275e-09
-6.34662e-08
-9.62356e-09
-5.37832e-08
-9.68304e-09
-4.42345e-08
-9.54867e-09
-3.50244e-08
-9.21004e-09
-2.6365e-08
-8.65943e-09
-1.84723e-08
-7.89269e-09
-1.15617e-08
-6.9106e-09
-5.84036e-09
-5.72133e-09
-1.49489e-09
-4.34549e-09
1.33259e-09
-2.82751e-09
2.58661e-09
-1.25406e-09
2.36603e-09
2.20564e-10
1.12721e-09
1.23884e-09
1.12723e-09
1.17082e-09
-2.29937e-09
1.30217e-09
-1.28932e-09
-1.23792e-09
2.48131e-09
-7.2196e-09
7.41876e-09
-1.68737e-08
1.26659e-08
-3.00913e-08
1.77204e-08
-4.656e-08
2.22996e-08
-6.5851e-08
2.62513e-08
-8.74735e-08
2.95005e-08
-1.10909e-07
3.20183e-08
-1.35634e-07
3.38041e-08
-1.61133e-07
3.48751e-08
-1.86909e-07
3.52602e-08
-2.12491e-07
3.49957e-08
-2.37436e-07
3.41231e-08
-2.61332e-07
3.26869e-08
-2.83801e-07
3.07338e-08
-3.045e-07
2.83117e-08
-3.23121e-07
2.54697e-08
-3.39392e-07
2.22575e-08
-3.5308e-07
1.87258e-08
-3.63988e-07
1.49258e-08
-3.71958e-07
1.09098e-08
-3.76871e-07
6.73125e-09
-3.78649e-07
2.44488e-09
-3.77255e-07
-1.89315e-09
-3.72693e-07
-6.22511e-09
-3.65012e-07
-1.04917e-08
-3.54307e-07
-1.46321e-08
-3.40715e-07
-1.85841e-08
-3.24421e-07
-2.22848e-08
-3.05657e-07
-2.56704e-08
-2.84699e-07
-2.86775e-08
-2.61871e-07
-3.12433e-08
-2.37539e-07
-3.3307e-08
-2.12111e-07
-3.48105e-08
-1.86034e-07
-3.57e-08
-1.5979e-07
-3.59272e-08
-1.33888e-07
-3.54509e-08
-1.08858e-07
-3.42398e-08
-8.52432e-08
-3.22745e-08
-6.35841e-08
-2.95519e-08
-4.44037e-08
-2.6091e-08
-2.81823e-08
-2.19427e-08
-1.53215e-08
-1.72062e-08
-6.09132e-09
-1.20577e-08
-5.44155e-10
-6.80119e-09
1.63262e-09
-1.95622e-09
1.25022e-09
1.62123e-09
2.37745e-09
1.19082e-10
-2.41828e-09
-2.374e-09
1.20369e-09
-9.0506e-09
9.15786e-09
-2.07014e-08
1.90695e-08
-3.75686e-08
2.9533e-08
-5.95069e-08
3.96587e-08
-8.61039e-08
4.88966e-08
-1.16776e-07
5.6923e-08
-1.50835e-07
6.35596e-08
-1.87538e-07
6.8722e-08
-2.26122e-07
7.23878e-08
-2.65824e-07
7.45765e-08
-3.05899e-07
7.53356e-08
-3.45635e-07
7.4732e-08
-3.84358e-07
7.28456e-08
-4.21436e-07
6.97656e-08
-4.5629e-07
6.55875e-08
-4.88389e-07
6.04108e-08
-5.17258e-07
5.43388e-08
-5.42477e-07
4.74767e-08
-5.63684e-07
3.99325e-08
-5.80574e-07
3.18159e-08
-5.92904e-07
2.32393e-08
-6.0049e-07
1.43175e-08
-6.03213e-07
5.16802e-09
-6.01018e-07
-4.08846e-09
-5.93915e-07
-1.33282e-08
-5.81982e-07
-2.24243e-08
-5.65367e-07
-3.12471e-08
-5.44287e-07
-3.96646e-08
-5.19028e-07
-4.75429e-08
-4.89951e-07
-5.47478e-08
-4.57483e-07
-6.11459e-08
-4.2212e-07
-6.6606e-08
-3.84425e-07
-7.10018e-08
-3.45022e-07
-7.42139e-08
-3.04589e-07
-7.61327e-08
-2.63854e-07
-7.66617e-08
-2.23583e-07
-7.5722e-08
-1.84567e-07
-7.32563e-08
-1.47605e-07
-6.92362e-08
-1.13487e-07
-6.36702e-08
-8.29613e-08
-5.66166e-08
-5.6702e-08
-4.82021e-08
-3.52572e-08
-3.8651e-08
-1.89823e-08
-2.83326e-08
-7.94619e-09
-1.78372e-08
-1.8198e-09
-8.08259e-09
2.82527e-10
-4.81103e-10
2.65997e-09
-1.33655e-09
-1.08161e-09
-7.23833e-09
7.10529e-09
-1.88975e-08
2.0817e-08
-3.69107e-08
3.70826e-08
-6.14077e-08
5.403e-08
-9.21456e-08
7.03967e-08
-1.28604e-07
8.53548e-08
-1.70067e-07
9.83864e-08
-2.15693e-07
1.09186e-07
-2.64563e-07
1.17592e-07
-3.15725e-07
1.23549e-07
-3.68218e-07
1.27069e-07
-4.21098e-07
1.28216e-07
-4.73456e-07
1.27089e-07
-5.24424e-07
1.23814e-07
-5.73191e-07
1.18532e-07
-6.19003e-07
1.114e-07
-6.61175e-07
1.02582e-07
-6.99086e-07
9.22506e-08
-7.32192e-07
8.05824e-08
-7.60019e-07
6.77596e-08
-7.82172e-07
5.39687e-08
-7.98333e-07
3.94002e-08
-8.08265e-07
2.42494e-08
-8.11813e-07
8.71631e-09
-8.08908e-07
-6.99405e-09
-7.99564e-07
-2.26716e-08
-7.83887e-07
-3.81013e-08
-7.6207e-07
-5.30639e-08
-7.34399e-07
-6.73364e-08
-7.01247e-07
-8.0694e-08
-6.63084e-07
-9.29112e-08
-6.20465e-07
-1.03765e-07
-5.74034e-07
-1.13037e-07
-5.24516e-07
-1.20519e-07
-4.72716e-07
-1.26014e-07
-4.19506e-07
-1.29343e-07
-3.65815e-07
-1.30353e-07
-3.12617e-07
-1.2892e-07
-2.60913e-07
-1.2496e-07
-2.11711e-07
-1.18439e-07
-1.65993e-07
-1.09388e-07
-1.24688e-07
-9.79217e-08
-8.8624e-08
-8.42659e-08
-5.84767e-08
-6.87982e-08
-3.47014e-08
-5.2108e-08
-1.74525e-08
-3.50861e-08
-6.49448e-09
-1.90406e-08
-1.11833e-09
-5.85725e-09
1.54164e-09
-2.89385e-09
1.81226e-09
-1.2541e-08
1.67523e-08
-2.96031e-08
3.78789e-08
-5.43635e-08
6.18429e-08
-8.67412e-08
8.64076e-08
-1.26336e-07
1.09992e-07
-1.72493e-07
1.31512e-07
-2.24363e-07
1.50256e-07
-2.80963e-07
1.65786e-07
-3.41227e-07
1.77857e-07
-4.04044e-07
1.86366e-07
-4.68292e-07
1.91317e-07
-5.32862e-07
1.92787e-07
-5.96681e-07
1.90908e-07
-6.58724e-07
1.85856e-07
-7.18024e-07
1.77833e-07
-7.73686e-07
1.67063e-07
-8.24891e-07
1.53787e-07
-8.70899e-07
1.38259e-07
-9.11057e-07
1.2074e-07
-9.44798e-07
1.01501e-07
-9.7165e-07
8.08204e-08
-9.91232e-07
5.89821e-08
-1.00326e-06
3.62783e-08
-1.00755e-06
1.30078e-08
-1.00402e-06
-1.05228e-08
-9.92695e-07
-3.4e-08
-9.73693e-07
-5.71032e-08
-9.47251e-07
-7.95058e-08
-9.13711e-07
-1.00877e-07
-8.73523e-07
-1.20882e-07
-8.27245e-07
-1.39189e-07
-7.75541e-07
-1.55468e-07
-7.19179e-07
-1.69399e-07
-6.59023e-07
-1.80676e-07
-5.96024e-07
-1.89012e-07
-5.31216e-07
-1.94151e-07
-4.65698e-07
-1.95872e-07
-4.00615e-07
-1.94003e-07
-3.37143e-07
-1.88432e-07
-2.76459e-07
-1.79122e-07
-2.19713e-07
-1.66135e-07
-1.67985e-07
-1.4965e-07
-1.22246e-07
-1.30004e-07
-8.33048e-08
-1.07739e-07
-5.17463e-08
-8.36665e-08
-2.78716e-08
-5.89608e-08
-1.16393e-08
-3.52729e-08
-2.62383e-09
-1.48727e-08
-1.08218e-09
-4.43042e-09
6.24264e-09
-1.78948e-08
3.02167e-08
-4.05089e-08
6.0493e-08
-7.21782e-08
9.35122e-08
-1.12549e-07
1.26778e-07
-1.61016e-07
1.58459e-07
-2.16756e-07
1.87252e-07
-2.78774e-07
2.12274e-07
-3.45947e-07
2.32958e-07
-4.17068e-07
2.48978e-07
-4.90888e-07
2.60186e-07
-5.66144e-07
2.66573e-07
-6.41589e-07
2.68231e-07
-7.16009e-07
2.65329e-07
-7.88245e-07
2.58093e-07
-8.57205e-07
2.46793e-07
-9.21872e-07
2.3173e-07
-9.81315e-07
2.13229e-07
-1.03469e-06
1.91636e-07
-1.08126e-06
1.67307e-07
-1.12037e-06
1.40615e-07
-1.15149e-06
1.11941e-07
-1.17419e-06
8.16762e-08
-1.18813e-06
5.02234e-08
-1.19312e-06
1.79942e-08
-1.18905e-06
-1.45895e-08
-1.17596e-06
-4.70959e-08
-1.15397e-06
-7.90843e-08
-1.12337e-06
-1.10106e-07
-1.08454e-06
-1.39708e-07
-1.03799e-06
-1.67432e-07
-9.8436e-07
-1.92823e-07
-9.24396e-07
-2.15432e-07
-8.58972e-07
-2.34824e-07
-7.89066e-07
-2.50582e-07
-7.15759e-07
-2.6232e-07
-6.40216e-07
-2.69693e-07
-5.6368e-07
-2.72408e-07
-4.87444e-07
-2.70239e-07
-4.12833e-07
-2.63042e-07
-3.41175e-07
-2.5078e-07
-2.73767e-07
-2.33543e-07
-2.11836e-07
-2.1158e-07
-1.56499e-07
-1.85341e-07
-1.08713e-07
-1.55526e-07
-6.92259e-08
-1.23153e-07
-3.85359e-08
-8.96508e-08
-1.68572e-08
-5.69517e-08
-4.11562e-09
-2.76143e-08
-5.1978e-09
-5.89753e-09
1.21401e-08
-2.31217e-08
4.74407e-08
-5.12771e-08
8.86485e-08
-8.98735e-08
1.32109e-07
-1.38251e-07
1.75156e-07
-1.95564e-07
2.15772e-07
-2.60795e-07
2.52483e-07
-3.32782e-07
2.84261e-07
-4.10253e-07
3.1043e-07
-4.91865e-07
3.3059e-07
-5.76236e-07
3.44557e-07
-6.61974e-07
3.52311e-07
-7.47708e-07
3.53964e-07
-8.32104e-07
3.49725e-07
-9.1389e-07
3.39878e-07
-9.91863e-07
3.24765e-07
-1.0649e-06
3.0477e-07
-1.13199e-06
2.80312e-07
-1.19218e-06
2.51835e-07
-1.24468e-06
2.19802e-07
-1.28876e-06
1.84695e-07
-1.32383e-06
1.47011e-07
-1.34941e-06
1.07259e-07
-1.36515e-06
6.59618e-08
-1.37081e-06
2.36563e-08
-1.36629e-06
-1.91084e-08
-1.35162e-06
-6.1771e-08
-1.32695e-06
-1.03758e-07
-1.29256e-06
-1.44488e-07
-1.2489e-06
-1.8337e-07
-1.19652e-06
-2.19813e-07
-1.13612e-06
-2.53226e-07
-1.06852e-06
-2.83029e-07
-9.94688e-07
-3.08658e-07
-9.15692e-07
-3.29577e-07
-8.3272e-07
-3.45292e-07
-7.47056e-07
-3.55357e-07
-6.60065e-07
-3.594e-07
-5.7317e-07
-3.57133e-07
-4.87834e-07
-3.48379e-07
-4.05522e-07
-3.33092e-07
-3.27676e-07
-3.11389e-07
-2.55671e-07
-2.83585e-07
-1.9078e-07
-2.50232e-07
-1.34129e-07
-2.12177e-07
-8.66609e-08
-1.70622e-07
-4.91056e-08
-1.27206e-07
-2.19676e-08
-8.40897e-08
-5.54368e-09
-4.40382e-08
-1.07415e-08
-7.28516e-09
1.94253e-08
-2.8159e-08
6.83145e-08
-6.17664e-08
1.22256e-07
-1.07229e-07
1.77571e-07
-1.63567e-07
2.31494e-07
-2.29674e-07
2.81879e-07
-3.04315e-07
3.27124e-07
-3.86144e-07
3.6609e-07
-4.73731e-07
3.98017e-07
-5.65588e-07
4.22447e-07
-6.60202e-07
4.3917e-07
-7.56059e-07
4.48169e-07
-8.51673e-07
4.49579e-07
-9.45604e-07
4.43656e-07
-1.03648e-06
4.3075e-07
-1.12299e-06
4.11281e-07
-1.20395e-06
3.85724e-07
-1.27823e-06
3.54598e-07
-1.34485e-06
3.18454e-07
-1.40292e-06
2.77871e-07
-1.45167e-06
2.33448e-07
-1.49047e-06
1.85804e-07
-1.51878e-06
1.35577e-07
-1.53624e-06
8.34192e-08
-1.54259e-06
3.00009e-08
-1.5377e-06
-2.39922e-08
-1.52161e-06
-7.78591e-08
-1.49449e-06
-1.30885e-07
-1.45663e-06
-1.82342e-07
-1.40851e-06
-2.31496e-07
-1.35071e-06
-2.77609e-07
-1.28399e-06
-3.19946e-07
-1.20924e-06
-3.57782e-07
-1.12748e-06
-3.90418e-07
-1.03987e-06
-4.17186e-07
-9.4769e-07
-4.3747e-07
-8.52326e-07
-4.5072e-07
-7.55254e-07
-4.56472e-07
-6.58019e-07
-4.54369e-07
-5.62209e-07
-4.44189e-07
-4.69428e-07
-4.25873e-07
-3.81262e-07
-3.99555e-07
-2.99244e-07
-3.65603e-07
-2.24817e-07
-3.2466e-07
-1.59296e-07
-2.77697e-07
-1.03844e-07
-2.26074e-07
-5.94456e-08
-1.71605e-07
-2.69095e-08
-1.16626e-07
-6.89696e-09
-6.40507e-08
-1.76384e-08
-8.60068e-09
2.8026e-08
-3.30043e-08
9.27181e-08
-7.19473e-08
1.61199e-07
-1.24182e-07
2.29806e-07
-1.88409e-07
2.9572e-07
-2.63247e-07
3.56717e-07
-3.4723e-07
4.11107e-07
-4.38814e-07
4.57675e-07
-5.36396e-07
4.95599e-07
-6.38339e-07
5.2439e-07
-7.42995e-07
5.43826e-07
-8.48729e-07
5.53903e-07
-9.53946e-07
5.54796e-07
-1.05711e-06
5.46815e-07
-1.15674e-06
5.30383e-07
-1.25147e-06
5.06008e-07
-1.34e-06
4.74263e-07
-1.42118e-06
4.35774e-07
-1.49393e-06
3.91208e-07
-1.55733e-06
3.41264e-07
-1.61054e-06
2.86667e-07
-1.65291e-06
2.28167e-07
-1.68387e-06
1.66535e-07
-1.70301e-06
1.02561e-07
-1.71006e-06
3.70568e-08
-1.70491e-06
-2.91492e-08
-1.68756e-06
-9.52084e-08
-1.65819e-06
-1.60256e-07
-1.61712e-06
-2.23412e-07
-1.56482e-06
-2.83789e-07
-1.50194e-06
-3.40492e-07
-1.42925e-06
-3.92632e-07
-1.3477e-06
-4.39334e-07
-1.25837e-06
-4.79748e-07
-1.16249e-06
-5.13066e-07
-1.06142e-06
-5.38541e-07
-9.56637e-07
-5.55504e-07
-8.49719e-07
-5.63389e-07
-7.42327e-07
-5.61761e-07
-6.36175e-07
-5.50341e-07
-5.33007e-07
-5.29041e-07
-4.34561e-07
-4.98002e-07
-3.42536e-07
-4.57627e-07
-2.58562e-07
-4.08634e-07
-1.84163e-07
-3.52096e-07
-1.20737e-07
-2.895e-07
-6.95393e-08
-2.22803e-07
-3.16859e-08
-1.54479e-07
-8.18394e-09
-8.75526e-08
-2.58224e-08
-9.85794e-09
3.7884e-08
-3.76845e-08
1.20545e-07
-8.18512e-08
2.05366e-07
-1.40763e-07
2.88718e-07
-2.12804e-07
3.67762e-07
-2.96317e-07
4.4023e-07
-3.89591e-07
5.04382e-07
-4.90874e-07
5.58957e-07
-5.98379e-07
6.03104e-07
-7.10311e-07
6.36322e-07
-8.24883e-07
6.58398e-07
-9.4034e-07
6.69361e-07
-1.05498e-06
6.69433e-07
-1.16716e-06
6.58996e-07
-1.27533e-06
6.38556e-07
-1.37804e-06
6.08715e-07
-1.47393e-06
5.70156e-07
-1.56178e-06
5.2362e-07
-1.64047e-06
4.69895e-07
-1.70901e-06
4.09807e-07
-1.76656e-06
3.44215e-07
-1.81239e-06
2.74003e-07
-1.84594e-06
2.00083e-07
-1.86677e-06
1.23387e-07
-1.87458e-06
4.48724e-08
-1.86925e-06
-3.44819e-08
-1.85078e-06
-1.13675e-07
-1.81935e-06
-1.91686e-07
-1.77529e-06
-2.67478e-07
-1.71908e-06
-3.39999e-07
-1.65138e-06
-4.08193e-07
-1.573e-06
-4.71009e-07
-1.48493e-06
-5.27408e-07
-1.38829e-06
-5.76384e-07
-1.28438e-06
-6.16976e-07
-1.17463e-06
-6.48292e-07
-1.0606e-06
-6.69534e-07
-9.43967e-07
-6.80021e-07
-8.26505e-07
-6.79223e-07
-7.10056e-07
-6.6679e-07
-5.96506e-07
-6.42591e-07
-4.87754e-07
-6.06754e-07
-3.8568e-07
-5.59701e-07
-2.92113e-07
-5.02201e-07
-2.08805e-07
-4.35405e-07
-1.37401e-07
-3.60903e-07
-7.94368e-08
-2.80767e-07
-3.63323e-08
-1.97584e-07
-9.42081e-09
-1.14464e-07
-3.52432e-08
-1.10726e-08
4.89566e-08
-4.22393e-08
1.51711e-07
-9.154e-08
2.54667e-07
-1.57051e-07
3.54229e-07
-2.36849e-07
4.4756e-07
-3.28995e-07
5.32376e-07
-4.31531e-07
6.06917e-07
-5.42483e-07
6.69909e-07
-6.59875e-07
7.20496e-07
-7.81744e-07
7.58192e-07
-9.06162e-07
7.82816e-07
-1.03125e-06
7.94446e-07
-1.15519e-06
7.93374e-07
-1.27626e-06
7.80064e-07
-1.39282e-06
7.55117e-07
-1.50335e-06
7.19245e-07
-1.60644e-06
6.73245e-07
-1.7008e-06
6.17983e-07
-1.78528e-06
5.54376e-07
-1.85886e-06
4.83384e-07
-1.92065e-06
4.06003e-07
-1.9699e-06
3.23258e-07
-2.00602e-06
2.36204e-07
-2.02855e-06
1.4592e-07
-2.03719e-06
5.35128e-08
-2.03179e-06
-3.98853e-08
-2.01235e-06
-1.33117e-07
-1.97903e-06
-2.25001e-07
-1.93217e-06
-3.14337e-07
-1.87227e-06
-3.99906e-07
-1.79998e-06
-4.80483e-07
-1.71614e-06
-5.54845e-07
-1.62177e-06
-6.21783e-07
-1.51803e-06
-6.80122e-07
-1.40627e-06
-7.28737e-07
-1.28798e-06
-7.66581e-07
-1.1648e-06
-7.92707e-07
-1.03852e-06
-8.06307e-07
-9.11005e-07
-8.06736e-07
-7.84237e-07
-7.93558e-07
-6.6025e-07
-7.66578e-07
-5.41114e-07
-7.2589e-07
-4.28901e-07
-6.71914e-07
-3.25658e-07
-6.05444e-07
-2.33373e-07
-5.2769e-07
-1.53956e-07
-4.4032e-07
-8.92236e-08
-3.45499e-07
-4.08997e-08
-2.45908e-07
-1.06264e-08
-1.44737e-07
-4.58696e-08
-1.226e-08
6.12167e-08
-4.67126e-08
1.86164e-07
-1.01089e-07
3.09043e-07
-1.7315e-07
4.2629e-07
-2.60672e-07
5.35082e-07
-3.61435e-07
6.33139e-07
-4.73226e-07
7.18708e-07
-5.93844e-07
7.90527e-07
-7.21114e-07
8.47767e-07
-8.52903e-07
8.8998e-07
-9.87129e-07
9.17042e-07
-1.12179e-06
9.29104e-07
-1.25496e-06
9.26544e-07
-1.38482e-06
9.09925e-07
-1.50966e-06
8.79961e-07
-1.6279e-06
8.37482e-07
-1.73807e-06
7.83413e-07
-1.83884e-06
7.18752e-07
-1.92901e-06
6.44552e-07
-2.00754e-06
5.61914e-07
-2.07352e-06
4.71975e-07
-2.12616e-06
3.75906e-07
-2.16486e-06
2.74905e-07
-2.18915e-06
1.70203e-07
-2.19869e-06
6.3057e-08
-2.19333e-06
-4.52456e-08
-2.17306e-06
-1.53389e-07
-2.13803e-06
-2.60029e-07
-2.08857e-06
-3.63797e-07
-2.02517e-06
-4.63304e-07
-1.94851e-06
-5.57151e-07
-1.85942e-06
-6.43934e-07
-1.75893e-06
-7.22267e-07
-1.64826e-06
-7.90793e-07
-1.52879e-06
-8.48212e-07
-1.40206e-06
-8.93305e-07
-1.26981e-06
-9.24964e-07
-1.13388e-06
-9.42231e-07
-9.96289e-07
-9.44331e-07
-8.59133e-07
-9.30714e-07
-7.24608e-07
-9.01103e-07
-5.94965e-07
-8.55533e-07
-4.72482e-07
-7.94396e-07
-3.59434e-07
-7.18492e-07
-2.58061e-07
-6.29062e-07
-1.70548e-07
-5.27833e-07
-9.90021e-08
-4.17046e-07
-4.54455e-08
-2.99464e-07
-1.18198e-08
-1.78363e-07
-5.76894e-08
-1.34346e-08
7.46513e-08
-5.11481e-08
2.23877e-07
-1.10575e-07
3.6847e-07
-1.89173e-07
5.04888e-07
-2.84418e-07
6.30326e-07
-3.93808e-07
7.42529e-07
-5.14871e-07
8.39771e-07
-6.45174e-07
9.20829e-07
-7.82335e-07
9.84929e-07
-9.24042e-07
1.03169e-06
-1.06806e-06
1.06106e-06
-1.21226e-06
1.0733e-06
-1.3546e-06
1.06889e-06
-1.49319e-06
1.04851e-06
-1.62623e-06
1.013e-06
-1.75208e-06
9.63332e-07
-1.86923e-06
9.00563e-07
-1.97631e-06
8.25834e-07
-2.0721e-06
7.40343e-07
-2.15552e-06
6.45335e-07
-2.22564e-06
5.42093e-07
-2.28167e-06
4.31935e-07
-2.32298e-06
3.16208e-07
-2.34906e-06
1.96292e-07
-2.3596e-06
7.35951e-08
-2.35441e-06
-5.04395e-08
-2.33346e-06
-1.74337e-07
-2.2969e-06
-2.9659e-07
-2.24504e-06
-4.1566e-07
-2.17836e-06
-5.29985e-07
-2.09752e-06
-6.37985e-07
-2.00338e-06
-7.38072e-07
-1.89698e-06
-8.2867e-07
-1.77954e-06
-9.08234e-07
-1.65248e-06
-9.75272e-07
-1.5174e-06
-1.02838e-06
-1.3761e-06
-1.06626e-06
-1.23053e-06
-1.0878e-06
-1.0828e-06
-1.09206e-06
-9.35162e-07
-1.07836e-06
-7.89965e-07
-1.0463e-06
-6.49656e-07
-9.95842e-07
-5.1673e-07
-9.27323e-07
-3.93703e-07
-8.41519e-07
-2.83084e-07
-7.39681e-07
-1.87341e-07
-6.23576e-07
-1.08881e-07
-4.95506e-07
-5.00281e-08
-3.58317e-07
-1.30196e-08
-2.15372e-07
-7.0709e-08
-1.46091e-08
8.92604e-08
-5.55867e-08
2.64855e-07
-1.20076e-07
4.3296e-07
-2.05231e-07
5.90043e-07
-3.0823e-07
7.33325e-07
-4.26285e-07
8.60584e-07
-5.56661e-07
9.70147e-07
-6.96684e-07
1.06085e-06
-8.43763e-07
1.13201e-06
-9.95399e-07
1.18332e-06
-1.1492e-06
1.21487e-06
-1.30291e-06
1.22701e-06
-1.45438e-06
1.22036e-06
-1.60161e-06
1.19575e-06
-1.74277e-06
1.15416e-06
-1.87613e-06
1.0967e-06
-2.00017e-06
1.0246e-06
-2.11347e-06
9.39137e-07
-2.2148e-06
8.41666e-07
-2.30304e-06
7.33583e-07
-2.37727e-06
6.16318e-07
-2.43667e-06
4.91338e-07
-2.4806e-06
3.60139e-07
-2.50856e-06
2.24248e-07
-2.52019e-06
8.52258e-08
-2.5153e-06
-5.5333e-08
-2.49384e-06
-1.95795e-07
-2.45594e-06
-3.34491e-07
-2.40188e-06
-4.69713e-07
-2.33215e-06
-5.99723e-07
-2.24737e-06
-7.22757e-07
-2.14841e-06
-8.37037e-07
-2.03629e-06
-9.40791e-07
-1.91225e-06
-1.03227e-06
-1.77774e-06
-1.10978e-06
-1.63441e-06
-1.17171e-06
-1.48412e-06
-1.21656e-06
-1.32889e-06
-1.24303e-06
-1.17096e-06
-1.24999e-06
-1.01272e-06
-1.2366e-06
-8.567e-07
-1.20232e-06
-7.05536e-07
-1.14701e-06
-5.61955e-07
-1.0709e-06
-4.28734e-07
-9.7474e-07
-3.08659e-07
-8.59756e-07
-2.04499e-07
-7.27736e-07
-1.18968e-07
-5.81036e-07
-5.47045e-08
-4.22581e-07
-1.42432e-08
-2.55833e-07
-8.49522e-08
-1.57951e-08
1.05055e-07
-6.00658e-08
3.09126e-07
-1.29661e-07
5.02555e-07
-2.21429e-07
6.81811e-07
-3.32244e-07
8.4414e-07
-4.5903e-07
9.8737e-07
-5.98778e-07
1.1099e-06
-7.4857e-07
1.21065e-06
-9.05597e-07
1.28903e-06
-1.06717e-06
1.3449e-06
-1.23074e-06
1.37844e-06
-1.39391e-06
1.39017e-06
-1.55443e-06
1.38088e-06
-1.71023e-06
1.35154e-06
-1.85939e-06
1.30332e-06
-2.00016e-06
1.23747e-06
-2.13096e-06
1.1554e-06
-2.25037e-06
1.05855e-06
-2.35713e-06
9.48421e-07
-2.45012e-06
8.26577e-07
-2.5284e-06
6.94598e-07
-2.59116e-06
5.54097e-07
-2.63774e-06
4.06718e-07
-2.66762e-06
2.54134e-07
-2.68045e-06
9.80523e-08
-2.676e-06
-5.9782e-08
-2.65421e-06
-2.17583e-07
-2.61519e-06
-3.73519e-07
-2.55918e-06
-5.25718e-07
-2.48664e-06
-6.72263e-07
-2.39819e-06
-8.11206e-07
-2.29466e-06
-9.40575e-07
-2.17706e-06
-1.05839e-06
-2.04664e-06
-1.16269e-06
-1.90486e-06
-1.25156e-06
-1.7534e-06
-1.32316e-06
-1.59417e-06
-1.37579e-06
-1.4293e-06
-1.4079e-06
-1.26113e-06
-1.41816e-06
-1.09218e-06
-1.40554e-06
-9.25165e-07
-1.36934e-06
-7.62937e-07
-1.30923e-06
-6.08463e-07
-1.22538e-06
-4.6479e-07
-1.11841e-06
-3.35001e-07
-9.89545e-07
-2.22181e-07
-8.40556e-07
-1.2937e-07
-6.73847e-07
-5.95295e-08
-4.92422e-07
-1.5507e-08
-2.99855e-07
-1.00459e-07
-1.70026e-08
1.22058e-07
-6.46191e-08
3.56742e-07
-1.39394e-07
5.7733e-07
-2.37863e-07
7.80279e-07
-3.56586e-07
9.62864e-07
-4.92189e-07
1.12297e-06
-6.41385e-07
1.25909e-06
-8.01e-07
1.37026e-06
-9.68001e-07
1.45603e-06
-1.13951e-06
1.5164e-06
-1.31281e-06
1.55174e-06
-1.48537e-06
1.56274e-06
-1.65485e-06
1.55036e-06
-1.81908e-06
1.51578e-06
-1.9761e-06
1.46033e-06
-2.12411e-06
1.38549e-06
-2.26152e-06
1.2928e-06
-2.38687e-06
1.1839e-06
-2.49892e-06
1.06047e-06
-2.59655e-06
9.24205e-07
-2.6788e-06
7.76852e-07
-2.74488e-06
6.20171e-07
-2.79411e-06
4.5595e-07
-2.82598e-06
2.86003e-07
-2.8401e-06
1.12179e-07
-2.83625e-06
-6.3633e-08
-2.81434e-06
-2.39499e-07
-2.77442e-06
-4.13433e-07
-2.71674e-06
-5.83399e-07
-2.6417e-06
-7.47308e-07
-2.54988e-06
-9.03023e-07
-2.44208e-06
-1.04837e-06
-2.3193e-06
-1.18117e-06
-2.18277e-06
-1.29922e-06
-2.03395e-06
-1.40038e-06
-1.87454e-06
-1.48257e-06
-1.7065e-06
-1.54383e-06
-1.53203e-06
-1.58236e-06
-1.35359e-06
-1.59661e-06
-1.17384e-06
-1.58529e-06
-9.95676e-07
-1.5475e-06
-8.22168e-07
-1.48274e-06
-6.56538e-07
-1.39101e-06
-5.02121e-07
-1.27283e-06
-3.62317e-07
-1.12935e-06
-2.40543e-07
-9.6233e-07
-1.40187e-07
-7.74203e-07
-6.45548e-08
-5.68054e-07
-1.68262e-08
-3.47584e-07
-1.17285e-07
-1.82406e-08
1.40299e-07
-6.92769e-08
4.07778e-07
-1.49335e-07
6.57388e-07
-2.54619e-07
8.85564e-07
-3.81369e-07
1.08961e-06
-5.25895e-07
1.2675e-06
-6.84621e-07
1.41782e-06
-8.54111e-07
1.53975e-06
-1.0311e-06
1.63302e-06
-1.21251e-06
1.69781e-06
-1.39547e-06
1.73469e-06
-1.57731e-06
1.74458e-06
-1.75558e-06
1.72864e-06
-1.92807e-06
1.68826e-06
-2.09273e-06
1.625e-06
-2.24777e-06
1.54052e-06
-2.39155e-06
1.43658e-06
-2.52264e-06
1.315e-06
-2.63978e-06
1.17761e-06
-2.74188e-06
1.0263e-06
-2.82798e-06
8.62955e-07
-2.89729e-06
6.89484e-07
-2.94916e-06
5.07814e-07
-2.98305e-06
3.19893e-07
-2.99858e-06
1.27706e-07
-2.99549e-06
-6.67242e-08
-2.97366e-06
-2.61324e-07
-2.93313e-06
-4.53961e-07
-2.87409e-06
-6.42441e-07
-2.79689e-06
-8.24505e-07
-2.70208e-06
-9.97834e-07
-2.5904e-06
-1.16005e-06
-2.46281e-06
-1.30876e-06
-2.32052e-06
-1.44152e-06
-2.16496e-06
-1.55594e-06
-1.99785e-06
-1.64968e-06
-1.82119e-06
-1.72049e-06
-1.63724e-06
-1.76631e-06
-1.44856e-06
-1.78529e-06
-1.25795e-06
-1.7759e-06
-1.0685e-06
-1.73695e-06
-8.83499e-07
-1.66774e-06
-7.0644e-07
-1.56807e-06
-5.40961e-07
-1.43831e-06
-3.90798e-07
-1.27951e-06
-2.59729e-07
-1.0934e-06
-1.51514e-07
-8.82419e-07
-6.98293e-08
-6.49738e-07
-1.82151e-08
-3.99198e-07
-1.355e-07
-1.95173e-08
1.59816e-07
-7.40669e-08
4.62328e-07
-1.59535e-07
7.42856e-07
-2.71778e-07
9.97807e-07
-4.06692e-07
1.22453e-06
-5.60259e-07
1.42107e-06
-7.286e-07
1.58616e-06
-9.08006e-07
1.71916e-06
-1.09497e-06
1.81999e-06
-1.28622e-06
1.88906e-06
-1.47871e-06
1.92718e-06
-1.66965e-06
1.93552e-06
-1.8565e-06
1.91549e-06
-2.03696e-06
1.86872e-06
-2.20898e-06
1.79702e-06
-2.37073e-06
1.70227e-06
-2.52058e-06
1.58643e-06
-2.65711e-06
1.45153e-06
-2.77907e-06
1.29958e-06
-2.8854e-06
1.13263e-06
-2.97517e-06
9.52723e-07
-3.0476e-06
7.61912e-07
-3.10204e-06
5.62252e-07
-3.13796e-06
3.55821e-07
-3.15498e-06
1.44726e-07
-3.15282e-06
-6.88877e-08
-3.13133e-06
-2.82816e-07
-3.09049e-06
-4.94792e-07
-3.03046e-06
-7.02474e-07
-2.95153e-06
-9.0344e-07
-2.85417e-06
-1.09519e-06
-2.73908e-06
-1.27515e-06
-2.60715e-06
-1.44069e-06
-2.45953e-06
-1.58914e-06
-2.29765e-06
-1.71783e-06
-2.1232e-06
-1.82413e-06
-1.9382e-06
-1.90549e-06
-1.74497e-06
-1.95954e-06
-1.54614e-06
-1.98412e-06
-1.34468e-06
-1.97736e-06
-1.14384e-06
-1.93779e-06
-9.47159e-07
-1.86443e-06
-7.58397e-07
-1.75683e-06
-5.8152e-07
-1.61519e-06
-4.20625e-07
-1.44041e-06
-2.79878e-07
-1.23415e-06
-1.63441e-07
-9.98856e-07
-7.53998e-08
-7.37779e-07
-1.96874e-08
-4.5491e-07
-1.55188e-07
-2.08402e-08
1.80656e-07
-7.90148e-08
5.20503e-07
-1.70043e-07
8.33884e-07
-2.8941e-07
1.11717e-06
-4.32643e-07
1.36776e-06
-5.95378e-07
1.5838e-06
-7.73413e-07
1.76419e-06
-9.62753e-07
1.9085e-06
-1.15965e-06
2.01688e-06
-1.36061e-06
2.09002e-06
-1.56244e-06
2.12901e-06
-1.76222e-06
2.1353e-06
-1.95732e-06
2.11059e-06
-2.14541e-06
2.05681e-06
-2.32439e-06
1.976e-06
-2.49243e-06
1.87031e-06
-2.64793e-06
1.74193e-06
-2.78949e-06
1.59309e-06
-2.91591e-06
1.426e-06
-3.02615e-06
1.24287e-06
-3.11932e-06
1.04589e-06
-3.19467e-06
8.37263e-07
-3.25157e-06
6.19158e-07
-3.28952e-06
3.93769e-07
-3.30811e-06
1.63313e-07
-3.30704e-06
-6.99532e-08
-3.28615e-06
-3.03714e-07
-3.24536e-06
-5.35579e-07
-3.18476e-06
-7.63073e-07
-3.10458e-06
-9.8362e-07
-3.00522e-06
-1.19455e-06
-2.88729e-06
-1.39308e-06
-2.7516e-06
-1.57637e-06
-2.59924e-06
-1.74149e-06
-2.43157e-06
-1.88549e-06
-2.25027e-06
-2.00543e-06
-2.05733e-06
-2.09843e-06
-1.85512e-06
-2.16176e-06
-1.64635e-06
-2.19288e-06
-1.43412e-06
-2.18959e-06
-1.22185e-06
-2.15006e-06
-1.01333e-06
-2.07295e-06
-8.12604e-07
-1.95755e-06
-6.23988e-07
-1.8038e-06
-4.51964e-07
-1.61243e-06
-3.01118e-07
-1.38499e-06
-1.76056e-07
-1.12392e-06
-8.13111e-08
-8.32524e-07
-2.12565e-08
-5.14965e-07
-1.76444e-07
-2.22166e-08
2.02873e-07
-8.41454e-08
5.82431e-07
-1.80907e-07
9.30646e-07
-3.07583e-07
1.24385e-06
-4.59304e-07
1.51948e-06
-6.31334e-07
1.75583e-06
-8.19128e-07
1.95199e-06
-1.01839e-06
2.10776e-06
-1.22511e-06
2.2236e-06
-1.4356e-06
2.30051e-06
-1.64648e-06
2.3399e-06
-1.85474e-06
2.34356e-06
-2.05767e-06
2.31352e-06
-2.25288e-06
2.25202e-06
-2.43829e-06
2.16141e-06
-2.61208e-06
2.0441e-06
-2.77268e-06
1.90253e-06
-2.91875e-06
1.73916e-06
-3.04913e-06
1.55638e-06
-3.16285e-06
1.35658e-06
-3.25906e-06
1.14211e-06
-3.33707e-06
9.15269e-07
-3.39627e-06
6.78361e-07
-3.43618e-06
4.33675e-07
-3.45639e-06
1.83521e-07
-3.45659e-06
-6.97521e-08
-3.43657e-06
-3.23734e-07
-3.39622e-06
-5.7593e-07
-3.33554e-06
-8.23745e-07
-3.2547e-06
-1.06447e-06
-3.15398e-06
-1.29526e-06
-3.0339e-06
-1.51317e-06
-2.89517e-06
-1.7151e-06
-2.73879e-06
-1.89788e-06
-2.56603e-06
-2.05826e-06
-2.3785e-06
-2.19296e-06
-2.17818e-06
-2.29875e-06
-1.96744e-06
-2.37249e-06
-1.74906e-06
-2.41126e-06
-1.52624e-06
-2.41241e-06
-1.30259e-06
-2.3737e-06
-1.08213e-06
-2.29342e-06
-8.69221e-07
-2.17046e-06
-6.68532e-07
-2.00449e-06
-4.84967e-07
-1.796e-06
-3.23572e-07
-1.54639e-06
-1.89441e-07
-1.25805e-06
-8.76072e-08
-9.34359e-07
-2.29352e-08
-5.79637e-07
-1.9938e-07
-2.36542e-08
2.26527e-07
-8.94845e-08
6.48262e-07
-1.92175e-07
1.03334e-06
-3.26364e-07
1.37804e-06
-4.86753e-07
1.67987e-06
-6.682e-07
1.93728e-06
-8.65795e-07
2.14958e-06
-1.07492e-06
2.31688e-06
-1.2913e-06
2.43998e-06
-1.51103e-06
2.52023e-06
-1.73059e-06
2.55945e-06
-1.94683e-06
2.5598e-06
-2.15701e-06
2.5237e-06
-2.35871e-06
2.45372e-06
-2.54986e-06
2.35256e-06
-2.72869e-06
2.22293e-06
-2.89369e-06
2.06753e-06
-3.04358e-06
1.88905e-06
-3.1773e-06
1.69009e-06
-3.29393e-06
1.47321e-06
-3.39272e-06
1.24089e-06
-3.47301e-06
9.95564e-07
-3.53427e-06
7.39616e-07
-3.57602e-06
4.75424e-07
-3.59787e-06
2.05371e-07
-3.5995e-06
-6.81227e-08
-3.58066e-06
-3.42574e-07
-3.54118e-06
-6.15408e-07
-3.48099e-06
-8.83932e-07
-3.40014e-06
-1.14531e-06
-3.29884e-06
-1.39657e-06
-3.17744e-06
-1.63456e-06
-3.03655e-06
-1.85599e-06
-2.87703e-06
-2.0574e-06
-2.70005e-06
-2.23524e-06
-2.50712e-06
-2.38589e-06
-2.30016e-06
-2.50571e-06
-2.08151e-06
-2.59114e-06
-1.854e-06
-2.63877e-06
-1.62092e-06
-2.64549e-06
-1.38605e-06
-2.60857e-06
-1.15364e-06
-2.52583e-06
-9.28366e-07
-2.39573e-06
-7.15293e-07
-2.21756e-06
-5.19773e-07
-1.99152e-06
-3.47357e-07
-1.7188e-06
-2.03679e-07
-1.40173e-06
-9.4332e-08
-1.04371e-06
-2.4737e-08
-6.49232e-07
-2.24117e-07
-2.51614e-08
2.51688e-07
-9.506e-08
7.1816e-07
-2.03898e-07
1.14217e-06
-3.45824e-07
1.51996e-06
-5.15068e-07
1.84911e-06
-7.06045e-07
2.12826e-06
-9.13449e-07
2.35698e-06
-1.13232e-06
2.53576e-06
-1.35811e-06
2.66577e-06
-1.58669e-06
2.74882e-06
-1.81439e-06
2.78715e-06
-2.03799e-06
2.78339e-06
-2.25467e-06
2.74038e-06
-2.46203e-06
2.66109e-06
-2.65806e-06
2.54858e-06
-2.84103e-06
2.4059e-06
-3.00954e-06
2.23604e-06
-3.1624e-06
2.04191e-06
-3.29865e-06
1.82635e-06
-3.41749e-06
1.59205e-06
-3.51824e-06
1.34165e-06
-3.60034e-06
1.07767e-06
-3.66331e-06
8.02584e-07
-3.70672e-06
5.18831e-07
-3.73019e-06
2.28843e-07
-3.7334e-06
-6.49174e-08
-3.71605e-06
-3.5992e-07
-3.67792e-06
-6.53535e-07
-3.61886e-06
-9.42998e-07
-3.53879e-06
-1.22538e-06
-3.43778e-06
-1.49758e-06
-3.31606e-06
-1.75629e-06
-3.17406e-06
-1.99798e-06
-3.0125e-06
-2.21897e-06
-2.83237e-06
-2.41537e-06
-2.63508e-06
-2.58319e-06
-2.42242e-06
-2.71836e-06
-2.19671e-06
-2.81685e-06
-1.96075e-06
-2.87473e-06
-1.71791e-06
-2.88834e-06
-1.47211e-06
-2.85437e-06
-1.22784e-06
-2.7701e-06
-9.90115e-07
-2.63346e-06
-7.64389e-07
-2.44329e-06
-5.5651e-07
-2.1994e-06
-3.72585e-07
-1.90273e-06
-2.18852e-07
-1.55546e-06
-1.01531e-07
-1.16103e-06
-2.66755e-08
-7.24087e-07
-2.50792e-07
-2.67479e-08
2.78436e-07
-1.00904e-07
7.92316e-07
-2.16133e-07
1.2574e-06
-3.66042e-07
1.66987e-06
-5.44333e-07
2.02741e-06
-7.44937e-07
2.32886e-06
-9.62116e-07
2.57416e-06
-1.19055e-06
2.76419e-06
-1.42539e-06
2.90061e-06
-1.6623e-06
2.98573e-06
-1.89746e-06
3.02232e-06
-2.12757e-06
3.0135e-06
-2.34981e-06
2.96262e-06
-2.56181e-06
2.8731e-06
-2.76162e-06
2.74839e-06
-2.94762e-06
2.59191e-06
-3.11853e-06
2.40695e-06
-3.2733e-06
2.19668e-06
-3.4111e-06
1.96414e-06
-3.53125e-06
1.71221e-06
-3.63321e-06
1.44361e-06
-3.71651e-06
1.16097e-06
-3.78075e-06
8.66818e-07
-3.82555e-06
5.63632e-07
-3.85057e-06
2.53863e-07
-3.85548e-06
-6.00105e-08
-3.83995e-06
-3.75445e-07
-3.8037e-06
-6.89788e-07
-3.74646e-06
-1.00023e-06
-3.66805e-06
-1.30379e-06
-3.56837e-06
-1.59726e-06
-3.44749e-06
-1.87717e-06
-3.30564e-06
-2.13983e-06
-3.14334e-06
-2.38127e-06
-2.96139e-06
-2.59731e-06
-2.76102e-06
-2.78356e-06
-2.54389e-06
-2.93549e-06
-2.31219e-06
-3.04855e-06
-2.06869e-06
-3.11823e-06
-1.81679e-06
-3.14023e-06
-1.56056e-06
-3.11061e-06
-1.30468e-06
-3.02597e-06
-1.0545e-06
-2.88364e-06
-8.15914e-07
-2.68188e-06
-5.95298e-07
-2.42001e-06
-3.9937e-07
-2.09865e-06
-2.35043e-07
-1.71979e-06
-1.0925e-07
-1.28682e-06
-2.87656e-08
-8.04571e-07
-2.79558e-07
-2.84255e-08
3.06862e-07
-1.07056e-07
8.70947e-07
-2.28953e-07
1.3793e-06
-3.87113e-07
1.82803e-06
-5.7465e-07
2.21494e-06
-7.84956e-07
2.53917e-06
-1.01182e-06
2.80103e-06
-1.24953e-06
3.0019e-06
-1.49293e-06
3.14401e-06
-1.73748e-06
3.23028e-06
-1.97923e-06
3.26407e-06
-2.21481e-06
3.24909e-06
-2.44144e-06
3.18924e-06
-2.65679e-06
3.08845e-06
-2.85904e-06
2.95064e-06
-3.04671e-06
2.77958e-06
-3.21867e-06
2.57891e-06
-3.37406e-06
2.35207e-06
-3.51219e-06
2.10228e-06
-3.63258e-06
1.83259e-06
-3.7348e-06
1.54583e-06
-3.81854e-06
1.2447e-06
-3.88347e-06