/*--------------------------------*- C++ -*----------------------------------*\
  =========                 |
  \\      /  F ield         | OpenFOAM: The Open Source CFD Toolbox
   \\    /   O peration     | Website:  https://openfoam.org
    \\  /    A nd           | Version:  7
     \\/     M anipulation  |
\*---------------------------------------------------------------------------*/
FoamFile
{
    version     2.0;
    format      ascii;
    class       surfaceScalarField;
    location    "0.0256";
    object      phi;
}
// * * * * * * * * * * * * * * * * * * * * * * * * * * * * * * * * * * * * * //

dimensions      [0 3 -1 0 0 0 0];

internalField   nonuniform List<scalar> 
4900
(
-5.55645e-06
5.55646e-06
-1.01622e-05
4.60578e-06
-1.29487e-05
2.78642e-06
-1.46661e-05
1.71748e-06
-1.57646e-05
1.09847e-06
-1.64983e-05
7.33726e-07
-1.70129e-05
5.1457e-07
-1.73904e-05
3.77508e-07
-1.76776e-05
2.8721e-07
-1.79022e-05
2.24625e-07
-1.80816e-05
1.79314e-07
-1.82269e-05
1.45305e-07
-1.83459e-05
1.19011e-07
-1.8444e-05
9.81694e-08
-1.85253e-05
8.12917e-08
-1.85927e-05
6.73581e-08
-1.86483e-05
5.56473e-08
-1.8694e-05
4.56335e-08
-1.87309e-05
3.69229e-08
-1.87601e-05
2.9213e-08
-1.87824e-05
2.22651e-08
-1.87983e-05
1.58853e-08
-1.88082e-05
9.91166e-09
-1.88124e-05
4.20413e-09
-1.8811e-05
-1.36351e-09
-1.88041e-05
-6.90746e-09
-1.87916e-05
-1.2543e-08
-1.87732e-05
-1.83861e-08
-1.87486e-05
-2.45607e-08
-1.87174e-05
-3.12042e-08
-1.86789e-05
-3.84752e-08
-1.86324e-05
-4.65632e-08
-1.85767e-05
-5.5702e-08
-1.85105e-05
-6.61887e-08
-1.84321e-05
-7.8411e-08
-1.83392e-05
-9.2889e-08
-1.82288e-05
-1.1034e-07
-1.80971e-05
-1.31783e-07
-1.79383e-05
-1.58718e-07
-1.77449e-05
-1.93435e-07
-1.75053e-05
-2.39587e-07
-1.72021e-05
-3.03253e-07
-1.68071e-05
-3.94995e-07
-1.62733e-05
-5.33815e-07
-1.55191e-05
-7.54128e-07
-1.44036e-05
-1.11551e-06
-1.26874e-05
-1.71618e-06
-9.94952e-06
-2.73793e-06
-5.45362e-06
-4.49589e-06
-5.45362e-06
-1.1932e-08
5.56839e-06
-2.12795e-06
6.7218e-06
-4.84902e-06
5.50749e-06
-7.25674e-06
4.1252e-06
-9.18235e-06
3.02409e-06
-1.0679e-05
2.2304e-06
-1.18405e-05
1.67604e-06
-1.27502e-05
1.28721e-06
-1.34719e-05
1.00893e-06
-1.4052e-05
8.04709e-07
-1.45236e-05
6.50956e-07
-1.49107e-05
5.32385e-07
-1.52306e-05
4.3892e-07
-1.54962e-05
3.63764e-07
-1.57172e-05
3.02218e-07
-1.59008e-05
2.50951e-07
-1.60526e-05
2.07543e-07
-1.61772e-05
1.70193e-07
-1.62778e-05
1.37533e-07
-1.63571e-05
1.08495e-07
-1.64171e-05
8.22289e-08
-1.64592e-05
5.80367e-08
-1.64846e-05
3.53315e-08
-1.6494e-05
1.36023e-08
-1.64878e-05
-7.60995e-09
-1.6466e-05
-2.8736e-08
-1.64283e-05
-5.01941e-08
-1.63743e-05
-7.24093e-08
-1.6303e-05
-9.58314e-08
-1.62133e-05
-1.20956e-07
-1.61034e-05
-1.48351e-07
-1.59713e-05
-1.78685e-07
-1.58142e-05
-2.12778e-07
-1.56287e-05
-2.51653e-07
-1.54105e-05
-2.96629e-07
-1.5154e-05
-3.4944e-07
-1.48519e-05
-4.12421e-07
-1.44949e-05
-4.8879e-07
-1.40705e-05
-5.83091e-07
-1.3562e-05
-7.01888e-07
-1.29467e-05
-8.54891e-07
-1.21933e-05
-1.05674e-06
-1.12585e-05
-1.32976e-06
-1.00843e-05
-1.70802e-06
-8.59658e-06
-2.24183e-06
-6.71543e-06
-2.99666e-06
-4.40171e-06
-4.0299e-06
-1.82455e-06
-5.31509e-06
1.21938e-07
-6.44238e-06
-5.33168e-06
1.03437e-06
4.53402e-06
5.55752e-07
7.20041e-06
-9.71126e-07
7.03437e-06
-2.84906e-06
6.00314e-06
-4.68483e-06
4.85986e-06
-6.31858e-06
3.86414e-06
-7.71158e-06
3.06904e-06
-8.87758e-06
2.45321e-06
-9.84759e-06
1.97895e-06
-1.06544e-05
1.61152e-06
-1.1327e-05
1.32357e-06
-1.18894e-05
1.09475e-06
-1.23607e-05
9.10209e-07
-1.27561e-05
7.59172e-07
-1.30876e-05
6.33747e-07
-1.33647e-05
5.28086e-07
-1.3595e-05
4.37795e-07
-1.37843e-05
3.59513e-07
-1.39374e-05
2.90628e-07
-1.4058e-05
2.29064e-07
-1.41489e-05
1.73142e-07
-1.42123e-05
1.21468e-07
-1.42499e-05
7.28552e-08
-1.42625e-05
2.62655e-08
-1.42509e-05
-1.92403e-08
-1.42151e-05
-6.45429e-08
-1.41548e-05
-1.10498e-07
-1.40692e-05
-1.5797e-07
-1.39572e-05
-2.07867e-07
-1.3817e-05
-2.61181e-07
-1.36463e-05
-3.19031e-07
-1.34422e-05
-3.82723e-07
-1.32012e-05
-4.53822e-07
-1.29186e-05
-5.34255e-07
-1.25888e-05
-6.26442e-07
-1.22047e-05
-7.33493e-07
-1.17577e-05
-8.59463e-07
-1.12367e-05
-1.00974e-06
-1.06283e-05
-1.19156e-06
-9.91538e-06
-1.41477e-06
-9.07746e-06
-1.69282e-06
-8.09022e-06
-2.04397e-06
-6.92755e-06
-2.49243e-06
-5.56726e-06
-3.06831e-06
-4.00586e-06
-3.80323e-06
-2.29023e-06
-4.71229e-06
-5.78224e-07
-5.7419e-06
7.61854e-07
-6.65517e-06
1.0855e-06
-6.76603e-06
-4.24618e-06
9.09995e-07
3.62403e-06
1.24331e-06
6.8671e-06
6.76334e-07
7.60135e-06
-4.65548e-07
7.14502e-06
-1.85411e-06
6.24842e-06
-3.27201e-06
5.28204e-06
-4.60317e-06
4.4002e-06
-5.79871e-06
3.64876e-06
-6.84695e-06
3.02719e-06
-7.7541e-06
2.51866e-06
-8.53354e-06
2.10302e-06
-9.2005e-06
1.76171e-06
-9.76956e-06
1.47927e-06
-1.02537e-05
1.24332e-06
-1.06641e-05
1.04412e-06
-1.10101e-05
8.74044e-07
-1.12993e-05
7.2709e-07
-1.15384e-05
5.98517e-07
-1.17322e-05
4.84522e-07
-1.18852e-05
3.82017e-07
-1.20005e-05
2.88447e-07
-1.20807e-05
2.01659e-07
-1.21276e-05
1.19798e-07
-1.21426e-05
4.1224e-08
-1.21263e-05
-3.55567e-08
-1.20789e-05
-1.11945e-07
-1.20001e-05
-1.89299e-07
-1.18891e-05
-2.68987e-07
-1.17445e-05
-3.52429e-07
-1.15645e-05
-4.41157e-07
-1.13467e-05
-5.36873e-07
-1.10879e-05
-6.41524e-07
-1.07843e-05
-7.57399e-07
-1.04313e-05
-8.87242e-07
-1.00234e-05
-1.03441e-06
-9.55378e-06
-1.20307e-06
-9.01479e-06
-1.39845e-06
-8.39737e-06
-1.62716e-06
-7.69133e-06
-1.8976e-06
-6.88579e-06
-2.22031e-06
-5.97031e-06
-2.6083e-06
-4.93739e-06
-3.07689e-06
-3.78762e-06
-3.6422e-06
-2.53931e-06
-4.31662e-06
-1.24533e-06
-5.09722e-06
-1.81528e-08
-5.93946e-06
9.43627e-07
-6.70368e-06
1.34749e-06
-7.05903e-06
9.1567e-07
-6.33421e-06
-3.33051e-06
6.77099e-07
2.94693e-06
1.26384e-06
6.28036e-06
1.26735e-06
7.59783e-06
7.27573e-07
7.6848e-06
-1.69037e-07
7.14503e-06
-1.24118e-06
6.35419e-06
-2.35765e-06
5.51667e-06
-3.43821e-06
4.72932e-06
-4.44046e-06
4.02944e-06
-5.34613e-06
3.42433e-06
-6.15094e-06
2.90783e-06
-6.85808e-06
2.46885e-06
-7.47419e-06
2.09538e-06
-8.00717e-06
1.77631e-06
-8.46498e-06
1.50193e-06
-8.85504e-06
1.2641e-06
-9.18397e-06
1.05602e-06
-9.45752e-06
8.72067e-07
-9.68056e-06
7.07565e-07
-9.85715e-06
5.58603e-07
-9.99056e-06
4.21863e-07
-1.00834e-05
2.94497e-07
-1.01376e-05
1.74005e-07
-1.01545e-05
5.81552e-08
-1.0135e-05
-5.50993e-08
-1.00793e-05
-1.67684e-07
-9.98709e-06
-2.81464e-07
-9.85778e-06
-3.98302e-07
-9.69009e-06
-5.20112e-07
-9.48232e-06
-6.48927e-07
-9.23223e-06
-7.86962e-07
-8.93706e-06
-9.36695e-07
-8.59351e-06
-1.10096e-06
-8.1977e-06
-1.28305e-06
-7.74525e-06
-1.48686e-06
-7.2313e-06
-1.71702e-06
-6.65068e-06
-1.97906e-06
-5.9983e-06
-2.27955e-06
-5.26973e-06
-2.62616e-06
-4.46251e-06
-3.02753e-06
-3.57815e-06
-3.49266e-06
-2.62574e-06
-4.0293e-06
-1.62754e-06
-4.64041e-06
-6.27335e-07
-5.31682e-06
2.98715e-07
-6.02327e-06
1.03255e-06
-6.6733e-06
1.41726e-06
-7.08839e-06
1.29964e-06
-6.94142e-06
6.66486e-07
-5.70105e-06
-2.66402e-06
4.87063e-07
2.45987e-06
1.10095e-06
5.66647e-06
1.39452e-06
7.30427e-06
1.26615e-06
7.81317e-06
7.82284e-07
7.6289e-06
6.02037e-08
7.07627e-06
-7.89354e-07
6.36622e-06
-1.68236e-06
5.62232e-06
-2.56252e-06
4.9096e-06
-3.39579e-06
4.2576e-06
-4.16385e-06
3.67589e-06
-4.85861e-06
3.16361e-06
-5.47824e-06
2.71501e-06
-6.02448e-06
2.32255e-06
-6.50092e-06
1.97838e-06
-6.91195e-06
1.67513e-06
-7.2621e-06
1.40618e-06
-7.55572e-06
1.16568e-06
-7.79673e-06
9.48577e-07
-7.98858e-06
7.50454e-07
-8.13418e-06
5.67463e-07
-8.2359e-06
3.96212e-07
-8.29557e-06
2.33675e-07
-8.31452e-06
7.7107e-08
-8.29359e-06
-7.60279e-08
-8.23315e-06
-2.28125e-07
-8.13311e-06
-3.815e-07
-7.99297e-06
-5.38445e-07
-7.81179e-06
-7.01293e-07
-7.58825e-06
-8.7247e-07
-7.32064e-06
-1.05456e-06
-7.00695e-06
-1.25039e-06
-6.64485e-06
-1.46306e-06
-6.23183e-06
-1.69607e-06
-5.76534e-06
-1.95335e-06
-5.24302e-06
-2.23933e-06
-4.66312e-06
-2.55897e-06
-4.02508e-06
-2.91759e-06
-3.33056e-06
-3.32067e-06
-2.58496e-06
-3.77313e-06
-1.79966e-06
-4.27796e-06
-9.95258e-07
-4.83371e-06
-2.05835e-07
-5.42983e-06
5.16211e-07
-6.03886e-06
1.09659e-06
-6.60365e-06
1.44159e-06
-7.0183e-06
1.45668e-06
-7.10347e-06
1.09708e-06
-6.58181e-06
4.71098e-07
-5.07507e-06
-2.19293e-06
3.55697e-07
2.10417e-06
9.1921e-07
5.10295e-06
1.33772e-06
6.88575e-06
1.46243e-06
7.68846e-06
1.28427e-06
7.80706e-06
8.61823e-07
7.49871e-06
2.72842e-07
6.95521e-06
-4.10772e-07
6.30594e-06
-1.13233e-06
5.63115e-06
-1.85131e-06
4.97658e-06
-2.54093e-06
4.36551e-06
-3.18482e-06
3.8075e-06
-3.77397e-06
3.30416e-06
-4.30431e-06
2.85288e-06
-4.77488e-06
2.44895e-06
-5.18663e-06
2.08688e-06
-5.54153e-06
1.76108e-06
-5.84205e-06
1.4662e-06
-6.09078e-06
1.1973e-06
-6.29018e-06
9.49856e-07
-6.4425e-06
7.19785e-07
-6.54967e-06
5.03378e-07
-6.61324e-06
2.97252e-07
-6.63442e-06
9.82872e-08
-6.61402e-06
-9.6429e-08
-6.55249e-06
-2.89658e-07
-6.44992e-06
-4.84066e-07
-6.3061e-06
-6.82271e-07
-6.12049e-06
-8.86898e-07
-5.89234e-06
-1.10062e-06
-5.62067e-06
-1.32623e-06
-5.30443e-06
-1.56663e-06
-4.94254e-06
-1.82495e-06
-4.53411e-06
-2.10449e-06
-4.07869e-06
-2.40877e-06
-3.57657e-06
-2.74145e-06
-3.02937e-06
-3.10616e-06
-2.44073e-06
-3.50623e-06
-1.81735e-06
-3.94405e-06
-1.17048e-06
-4.42001e-06
-5.17685e-07
-4.93075e-06
1.14825e-07
-5.46622e-06
6.90001e-07
-6.00501e-06
1.15859e-06
-6.50746e-06
1.46084e-06
-6.9059e-06
1.53511e-06
-7.09257e-06
1.33946e-06
-6.90783e-06
8.92998e-07
-6.13535e-06
3.38405e-07
-4.52048e-06
-1.85452e-06
2.69015e-07
1.83515e-06
7.63772e-07
4.6082e-06
1.22006e-06
6.42947e-06
1.48814e-06
7.42038e-06
1.52009e-06
7.77511e-06
1.33186e-06
7.68694e-06
9.69436e-07
7.31763e-06
4.86381e-07
6.78899e-06
-6.81578e-08
6.18569e-06
-6.54262e-07
5.56269e-06
-1.24199e-06
4.95324e-06
-1.81025e-06
4.37575e-06
-2.34501e-06
3.83893e-06
-2.83756e-06
3.34543e-06
-3.28296e-06
2.89435e-06
-3.67888e-06
2.4828e-06
-4.02469e-06
2.10689e-06
-4.32081e-06
1.76233e-06
-4.56828e-06
1.44477e-06
-4.76842e-06
1.14999e-06
-4.9226e-06
8.7397e-07
-5.03217e-06
6.12941e-07
-5.09828e-06
3.63365e-07
-5.12191e-06
1.21918e-07
-5.1038e-06
-1.1454e-07
-5.04445e-06
-3.49005e-07
-4.94416e-06
-5.84361e-07
-4.80301e-06
-8.23421e-07
-4.62095e-06
-1.06896e-06
-4.39783e-06
-1.32374e-06
-4.13352e-06
-1.59054e-06
-3.82799e-06
-1.87217e-06
-3.48147e-06
-2.17146e-06
-3.09472e-06
-2.49124e-06
-2.66926e-06
-2.83423e-06
-2.20781e-06
-3.2029e-06
-1.7148e-06
-3.59917e-06
-1.19711e-06
-4.02392e-06
-6.6494e-07
-4.47622e-06
-1.3291e-07
-4.95204e-06
3.78726e-07
-5.44239e-06
8.42991e-07
-5.93048e-06
1.22572e-06
-6.38773e-06
1.48667e-06
-6.76841e-06
1.58398e-06
-7.00321e-06
1.48432e-06
-6.99291e-06
1.18149e-06
-6.605e-06
7.24721e-07
-5.67858e-06
2.51465e-07
-4.04722e-06
-1.60306e-06
2.11111e-07
1.62404e-06
6.40137e-07
4.17917e-06
1.09187e-06
5.97773e-06
1.43361e-06
7.07864e-06
1.60206e-06
7.60666e-06
1.58645e-06
7.70255e-06
1.40759e-06
7.49648e-06
1.10074e-06
7.09584e-06
7.04166e-07
6.58227e-06
2.52913e-07
6.01394e-06
-2.23887e-07
5.43004e-06
-7.03561e-07
4.85543e-06
-1.16935e-06
4.30471e-06
-1.60941e-06
3.78549e-06
-2.01578e-06
3.30071e-06
-2.38338e-06
2.8504e-06
-2.70923e-06
2.43274e-06
-2.99183e-06
2.04493e-06
-3.23064e-06
1.68359e-06
-3.42577e-06
1.34512e-06
-3.57767e-06
1.02587e-06
-3.68698e-06
7.22256e-07
-3.75442e-06
4.30798e-07
-3.78065e-06
1.4815e-07
-3.76629e-06
-1.28894e-07
-3.71189e-06
-4.03412e-07
-3.61788e-06
-6.78368e-07
-3.48468e-06
-9.56622e-07
-3.31269e-06
-1.24095e-06
-3.10239e-06
-1.53403e-06
-2.85445e-06
-1.83849e-06
-2.56981e-06
-2.1568e-06
-2.24996e-06
-2.49132e-06
-1.89706e-06
-2.84414e-06
-1.51433e-06
-3.21696e-06
-1.10638e-06
-3.61085e-06
-6.79736e-07
-4.02582e-06
-2.4335e-07
-4.46031e-06
1.90692e-07
-4.91026e-06
6.06523e-07
-5.36787e-06
9.8395e-07
-5.81982e-06
1.29831e-06
-6.24485e-06
1.52126e-06
-6.61067e-06
1.62319e-06
-6.87034e-06
1.5785e-06
-6.95852e-06
1.37481e-06
-6.78922e-06
1.0268e-06
-6.257e-06
5.93582e-07
-5.24536e-06
1.936e-07
-3.64724e-06
-1.40946e-06
1.71046e-07
1.453e-06
5.43248e-07
3.80697e-06
9.71565e-07
5.54942e-06
1.34462e-06
6.70558e-06
1.59678e-06
7.35451e-06
1.70264e-06
7.59669e-06
1.66531e-06
7.53381e-06
1.50459e-06
7.25657e-06
1.24759e-06
6.83926e-06
9.22576e-07
6.33896e-06
5.55416e-07
5.7972e-06
1.68018e-07
5.24283e-06
-2.2207e-07
4.6948e-06
-6.01382e-07
4.1648e-06
-9.59969e-07
3.6593e-06
-1.29074e-06
3.18117e-06
-1.58883e-06
2.73083e-06
-1.85106e-06
2.30716e-06
-2.07549e-06
1.90802e-06
-2.26105e-06
1.53068e-06
-2.4073e-06
1.17211e-06
-2.51416e-06
8.29123e-07
-2.58185e-06
4.98487e-07
-2.61072e-06
1.77019e-07
-2.60122e-06
-1.38393e-07
-2.55387e-06
-4.50761e-07
-2.46926e-06
-7.6298e-07
-2.34806e-06
-1.07782e-06
-2.1911e-06
-1.39791e-06
-1.9994e-06
-1.72573e-06
-1.77433e-06
-2.06356e-06
-1.51771e-06
-2.41342e-06
-1.23202e-06
-2.77701e-06
-9.20584e-07
-3.15558e-06
-5.87877e-07
-3.54967e-06
-2.39833e-07
-3.95889e-06
1.1578e-07
-4.38143e-06
4.68957e-07
-4.81349e-06
8.07078e-07
-5.24838e-06
1.11463e-06
-5.67542e-06
1.37321e-06
-6.0784e-06
1.56204e-06
-6.43367e-06
1.6594e-06
-6.70804e-06
1.64558e-06
-6.85651e-06
1.50774e-06
-6.82068e-06
1.2473e-06
-6.52878e-06
8.89356e-07
-5.89905e-06
4.92404e-07
-4.84841e-06
1.53728e-07
-3.30856e-06
-1.25573e-06
1.42126e-07
1.31087e-06
4.66645e-07
3.48245e-06
8.64222e-07
5.15184e-06
1.24352e-06
6.32628e-06
1.54292e-06
7.05511e-06
1.73039e-06
7.40923e-06
1.79772e-06
7.46648e-06
1.75294e-06
7.30134e-06
1.61333e-06
6.97888e-06
1.40003e-06
6.55225e-06
1.13451e-06
6.06273e-06
8.36406e-07
5.54093e-06
5.22625e-07
5.00858e-06
2.07007e-07
4.48042e-06
-9.95178e-08
3.96583e-06
-3.88585e-07
3.47023e-06
-6.53984e-07
2.99623e-06
-8.91238e-07
2.54441e-06
-1.09723e-06
2.11401e-06
-1.26989e-06
1.70334e-06
-1.40792e-06
1.31014e-06
-1.51061e-06
9.31807e-07
-1.57765e-06
5.6553e-07
-1.60907e-06
2.08441e-07
-1.60514e-06
-1.42329e-07
-1.56631e-06
-4.89585e-07
-1.49327e-06
-8.36025e-07
-1.38689e-06
-1.1842e-06
-1.24832e-06
-1.53648e-06
-1.07906e-06
-1.895e-06
-8.81022e-07
-2.26159e-06
-6.56707e-07
-2.63773e-06
-4.09338e-07
-3.02438e-06
-1.4306e-07
-3.42186e-06
1.36835e-07
-3.82957e-06
4.23669e-07
-4.24572e-06
7.09123e-07
-4.66689e-06
9.83013e-07
-5.08738e-06
1.23316e-06
-5.49852e-06
1.4454e-06
-5.88767e-06
1.60401e-06
-6.237e-06
1.69254e-06
-6.52219e-06
1.69553e-06
-6.71104e-06
1.60135e-06
-6.76234e-06
1.40629e-06
-6.62562e-06
1.11996e-06
-6.24244e-06
7.71307e-07
-5.5504e-06
4.13594e-07
-4.4907e-06
1.25138e-07
-3.02011e-06
-1.13059e-06
1.20341e-07
1.19053e-06
4.04896e-07
3.1979e-06
7.69796e-07
4.78694e-06
1.14073e-06
5.95534e-06
1.4626e-06
6.73324e-06
1.70166e-06
7.17017e-06
1.84313e-06
7.325e-06
1.88676e-06
7.25771e-06
1.8419e-06
7.02374e-06
1.72321e-06
6.67094e-06
1.54744e-06
6.2385e-06
1.33126e-06
5.7571e-06
1.08998e-06
5.24986e-06
8.36878e-07
4.73352e-06
5.83055e-07
4.21965e-06
3.37459e-07
3.71583e-06
1.07118e-07
3.22657e-06
-1.02595e-07
2.75413e-06
-2.87678e-07
2.29909e-06
-4.45245e-07
1.86091e-06
-5.73294e-07
1.43819e-06
-6.70524e-07
1.02904e-06
-7.36186e-07
6.31192e-07
-7.69973e-07
2.42228e-07
-7.71946e-07
-1.40356e-07
-7.42491e-07
-5.1904e-07
-6.82305e-07
-8.96211e-07
-5.92407e-07
-1.2741e-06
-4.74183e-07
-1.6547e-06
-3.29444e-07
-2.03974e-06
-1.60515e-07
-2.43052e-06
2.96483e-08
-2.8279e-06
2.37332e-07
-3.23207e-06
4.57908e-07
-3.64243e-06
6.85674e-07
-4.05733e-06
9.13693e-07
-4.47374e-06
1.13366e-06
-4.88685e-06
1.33582e-06
-5.28954e-06
1.50906e-06
-5.67176e-06
1.64109e-06
-6.0197e-06
1.7191e-06
-6.31501e-06
1.73077e-06
-6.53386e-06
1.66593e-06
-6.6462e-06
1.51906e-06
-6.61547e-06
1.29244e-06
-6.399e-06
9.9995e-07
-5.94995e-06
6.70664e-07
-5.22111e-06
3.51057e-07
-4.17109e-06
1.03804e-07
-2.77285e-06
-1.02679e-06
1.03266e-07
1.08726e-06
3.53939e-07
2.94722e-06
6.86563e-07
4.45432e-06
1.04069e-06
5.60121e-06
1.36834e-06
6.40559e-06
1.63674e-06
6.90177e-06
1.82791e-06
7.13384e-06
1.93615e-06
7.14947e-06
1.96483e-06
6.99506e-06
1.92316e-06
6.71261e-06
1.82349e-06
6.33818e-06
1.67928e-06
5.90131e-06
1.50375e-06
5.42539e-06
1.30904e-06
4.92823e-06
1.10577e-06
4.42292e-06
9.02925e-07
3.91867e-06
7.07874e-07
3.42162e-06
5.26505e-07
2.93549e-06
3.6341e-07
2.46219e-06
2.22068e-07
2.00225e-06
1.0503e-07
1.55523e-06
1.40784e-08
1.11999e-06
-4.96456e-08
6.94916e-07
-8.55357e-08
2.78118e-07
-9.34489e-08
-1.32443e-07
-7.36604e-08
-5.38828e-07
-2.6845e-08
-9.43027e-07
4.59161e-08
-1.34686e-06
1.43107e-07
-1.75189e-06
2.62722e-07
-2.15935e-06
4.022e-07
-2.57e-06
5.58331e-07
-2.98403e-06
7.27155e-07
-3.40089e-06
9.03858e-07
-3.81913e-06
1.08267e-06
-4.23614e-06
1.25676e-06
-4.64784e-06
1.41826e-06
-5.04835e-06
1.55823e-06
-5.42951e-06
1.66691e-06
-5.78044e-06
1.73407e-06
-6.08687e-06
1.7497e-06
-6.33064e-06
1.70503e-06
-6.48919e-06
1.59407e-06
-6.53525e-06
1.41558e-06
-6.43698e-06
1.17547e-06
-6.15889e-06
8.8932e-07
-5.66379e-06
5.84379e-07
-4.91617e-06
3.00301e-07
-3.88701e-06
8.72775e-08
-2.55983e-06
-9.39511e-07
8.94e-08
9.97864e-07
3.10856e-07
2.72577e-06
6.12492e-07
4.15268e-06
9.4498e-07
5.26873e-06
1.26712e-06
6.08346e-06
1.54854e-06
6.62034e-06
1.77019e-06
6.91219e-06
1.9231e-06
6.99656e-06
2.0064e-06
6.91175e-06
2.02499e-06
6.69403e-06
1.98738e-06
6.37578e-06
1.90399e-06
5.98471e-06
1.78576e-06
5.54362e-06
1.64335e-06
5.07065e-06
1.4865e-06
4.57977e-06
1.3238e-06
4.08137e-06
1.16259e-06
3.58283e-06
1.00893e-06
3.08915e-06
8.67725e-07
2.6034e-06
7.42828e-07
2.12715e-06
6.37178e-07
1.66088e-06
5.5292e-07
1.20425e-06
4.91514e-07
7.56322e-07
4.53826e-07
3.15806e-07
4.40192e-07
-1.18809e-07
4.50467e-07
-5.49103e-07
4.84042e-07
-9.76602e-07
5.39847e-07
-1.40266e-06
6.16328e-07
-1.82838e-06
7.11412e-07
-2.25444e-06
8.22453e-07
-2.68104e-06
9.46167e-07
-3.10774e-06
1.07857e-06
-3.53329e-06
1.21489e-06
-3.95545e-06
1.34954e-06
-4.3708e-06
1.47612e-06
-4.77441e-06
1.58739e-06
-5.15961e-06
1.67546e-06
-5.51759e-06
1.73203e-06
-5.83701e-06
1.74885e-06
-6.10368e-06
1.71837e-06
-6.30015e-06
1.6347e-06
-6.40553e-06
1.49495e-06
-6.39549e-06
1.30069e-06
-6.24272e-06
1.05977e-06
-5.91797e-06
7.87843e-07
-5.39187e-06
5.09489e-07
-4.63782e-06
2.58101e-07
-3.63562e-06
7.40284e-08
-2.37576e-06
-8.65483e-07
7.77833e-08
9.2008e-07
2.73574e-07
2.52998e-06
5.45737e-07
3.88052e-06
8.53844e-07
4.96062e-06
1.16281e-06
5.77449e-06
1.44528e-06
6.33788e-06
1.68244e-06
6.67503e-06
1.86366e-06
6.81534e-06
1.98524e-06
6.79018e-06
2.04882e-06
6.63045e-06
2.05979e-06
6.36481e-06
2.0258e-06
6.01869e-06
1.95564e-06
5.61378e-06
1.85831e-06
5.16797e-06
1.74247e-06
4.69561e-06
1.61602e-06
4.20781e-06
1.48596e-06
3.71289e-06
1.35827e-06
3.21685e-06
1.23792e-06
2.72375e-06
1.12894e-06
2.23613e-06
1.0345e-06
1.75532e-06
9.56996e-07
1.28175e-06
8.9812e-07
8.15198e-07
8.58949e-07
3.54977e-07
8.39998e-07
-9.98577e-08
8.41259e-07
-5.50364e-07
8.62225e-07
-9.97568e-07
9.01898e-07
-1.44234e-06
9.58771e-07
-1.88525e-06
1.03081e-06
-2.32648e-06
1.11542e-06
-2.76565e-06
1.20939e-06
-3.20171e-06
1.30888e-06
-3.63278e-06
1.40936e-06
-4.05593e-06
1.50562e-06
-4.46706e-06
1.59181e-06
-4.86061e-06
1.66152e-06
-5.22932e-06
1.70795e-06
-5.56402e-06
1.72423e-06
-5.85329e-06
1.70385e-06
-6.08331e-06
1.64132e-06
-6.23763e-06
1.533e-06
-6.2972e-06
1.37811e-06
-6.2406e-06
1.17996e-06
-6.04457e-06
9.47111e-07
-5.68513e-06
6.94418e-07
-5.13918e-06
4.43462e-07
-4.38686e-06
2.22157e-07
-3.41432e-06
6.30672e-08
-2.21667e-06
-8.02415e-07
6.7784e-08
8.52296e-07
2.40619e-07
2.35714e-06
4.84768e-07
3.63637e-06
7.66977e-07
4.67841e-06
1.05753e-06
5.48393e-06
1.33224e-06
6.06317e-06
1.57336e-06
6.43391e-06
1.76964e-06
6.61905e-06
1.91566e-06
6.64416e-06
2.01075e-06
6.53535e-06
2.05784e-06
6.31772e-06
2.06228e-06
6.01426e-06
2.03083e-06
5.64522e-06
1.97091e-06
5.2279e-06
1.88996e-06
4.77657e-06
1.79505e-06
4.30272e-06
1.69262e-06
3.81532e-06
1.58837e-06
3.3211e-06
1.48715e-06
2.82497e-06
1.39299e-06
2.33028e-06
1.30915e-06
1.83915e-06
1.23817e-06
1.35274e-06
1.18188e-06
8.71485e-07
1.14153e-06
3.95327e-07
1.11778e-06
-7.61117e-08
1.11077e-06
-5.43355e-07
1.12012e-06
-1.00692e-06
1.14495e-06
-1.46716e-06
1.18387e-06
-1.92416e-06
1.23496e-06
-2.37758e-06
1.2958e-06
-2.82649e-06
1.36338e-06
-3.26929e-06
1.43411e-06
-3.70351e-06
1.50384e-06
-4.12566e-06
1.56787e-06
-4.53109e-06
1.62099e-06
-4.91373e-06
1.65766e-06
-5.26599e-06
1.67216e-06
-5.57851e-06
1.6589e-06
-5.84003e-06
1.61288e-06
-6.03729e-06
1.53023e-06
-6.15498e-06
1.40893e-06
-6.1759e-06
1.24961e-06
-6.08128e-06
1.05644e-06
-5.8514e-06
8.3797e-07
-5.46665e-06
6.07702e-07
-4.90891e-06
3.84254e-07
-4.16342e-06
1.90813e-07
-3.22088e-06
5.37342e-08
-2.07959e-06
-7.48681e-07
5.8973e-08
7.93323e-07
2.1093e-07
2.20518e-06
4.2837e-07
3.41893e-06
6.83883e-07
4.4229e-06
9.5242e-07
5.2154e-06
1.21288e-06
5.80271e-06
1.44903e-06
6.19776e-06
1.64975e-06
6.41834e-06
1.8087e-06
6.48521e-06
1.92368e-06
6.42037e-06
1.99576e-06
6.24563e-06
2.02843e-06
5.98159e-06
2.02671e-06
5.64694e-06
1.99652e-06
5.25808e-06
1.94411e-06
4.82898e-06
1.87562e-06
4.37121e-06
1.79684e-06
3.89409e-06
1.71302e-06
3.40493e-06
1.62873e-06
2.90926e-06
1.54789e-06
2.41112e-06
1.47373e-06
1.91332e-06
1.4088e-06
1.41767e-06
1.35503e-06
9.2525e-07
1.31378e-06
4.36582e-07
1.28582e-06
-4.81591e-08
1.27144e-06
-5.28973e-07
1.27039e-06
-1.00587e-06
1.28195e-06
-1.47872e-06
1.30491e-06
-1.94712e-06
1.33754e-06
-2.41021e-06
1.37764e-06
-2.86659e-06
1.42251e-06
-3.31415e-06
1.46891e-06
-3.74991e-06
1.51316e-06
-4.16991e-06
1.55111e-06
-4.56904e-06
1.57826e-06
-4.94089e-06
1.58991e-06
-5.27764e-06
1.58133e-06
-5.56993e-06
1.54807e-06
-5.80677e-06
1.48635e-06
-5.97557e-06
1.39352e-06
-6.06216e-06
1.26869e-06
-6.05106e-06
1.11328e-06
-5.92587e-06
9.31772e-07
-5.66989e-06
7.3217e-07
-5.26705e-06
5.26399e-07
-4.70314e-06
3.30256e-07
-3.96727e-06
1.62872e-07
-3.05349e-06
4.55764e-08
-1.96229e-06
-7.03105e-07
5.1051e-08
7.42272e-07
1.8374e-07
2.0725e-06
3.75595e-07
3.22707e-06
6.04037e-07
4.19446e-06
8.48059e-07
4.97138e-06
1.08949e-06
5.56128e-06
1.31382e-06
5.97343e-06
1.51051e-06
6.22165e-06
1.67293e-06
6.32279e-06
1.79794e-06
6.29536e-06
1.88531e-06
6.15826e-06
1.93704e-06
5.92986e-06
1.95673e-06
5.62726e-06
1.94896e-06
5.26585e-06
1.91885e-06
4.8591e-06
1.87161e-06
4.41845e-06
1.81231e-06
3.95339e-06
1.74565e-06
3.47159e-06
1.67585e-06
2.97906e-06
1.60659e-06
2.48038e-06
1.54096e-06
1.97895e-06
1.48146e-06
1.47717e-06
1.43005e-06
9.76661e-07
1.38813e-06
4.78506e-07
1.35658e-06
-1.66092e-08
1.3358e-06
-5.08188e-07
1.32569e-06
-9.95765e-07
1.32571e-06
-1.47875e-06
1.33486e-06
-1.95626e-06
1.35166e-06
-2.42701e-06
1.37421e-06
-2.88914e-06
1.40013e-06
-3.34008e-06
1.42664e-06
-3.77642e-06
1.45054e-06
-4.19381e-06
1.46828e-06
-4.58678e-06
1.47606e-06
-4.94867e-06
1.46997e-06
-5.27155e-06
1.44618e-06
-5.54613e-06
1.40117e-06
-5.76177e-06
1.33214e-06
-5.90653e-06
1.23733e-06
-5.96735e-06
1.11653e-06
-5.93026e-06
9.71559e-07
-5.78091e-06
8.06743e-07
-5.50508e-06
6.29264e-07
-5.08957e-06
4.4936e-07
-4.52323e-06
2.80211e-07
-3.79812e-06
1.37454e-07
-2.91074e-06
3.82749e-08
-1.86311e-06
-6.6483e-07
4.38043e-08
6.98468e-07
1.58481e-07
1.95782e-06
3.25708e-07
3.05984e-06
5.26956e-07
3.99321e-06
7.44742e-07
4.75359e-06
9.63616e-07
5.3424e-06
1.17086e-06
5.76619e-06
1.35684e-06
6.03567e-06
1.51505e-06
6.16458e-06
1.64188e-06
6.16853e-06
1.73622e-06
6.06392e-06
1.79899e-06
5.86709e-06
1.83261e-06
5.59363e-06
1.84055e-06
5.25791e-06
1.82686e-06
4.87278e-06
1.79589e-06
4.44942e-06
1.75195e-06
3.99733e-06
1.69918e-06
3.52436e-06
1.64135e-06
3.03689e-06
1.58182e-06
2.53991e-06
1.52348e-06
2.03729e-06
1.46871e-06
1.53193e-06
1.41943e-06
1.02595e-06
1.37703e-06
5.20898e-07
1.34248e-06
1.79389e-08
1.31628e-06
-4.81984e-07
1.29848e-06
-9.77968e-07
1.28873e-06
-1.469e-06
1.28625e-06
-1.95378e-06
1.28986e-06
-2.43062e-06
1.29796e-06
-2.89724e-06
1.3086e-06
-3.35071e-06
1.31942e-06
-3.78724e-06
1.32776e-06
-4.20214e-06
1.33066e-06
-4.58968e-06
1.32501e-06
-4.94302e-06
1.30762e-06
-5.25416e-06
1.27541e-06
-5.51393e-06
1.22568e-06
-5.71203e-06
1.15631e-06
-5.83717e-06
1.06618e-06
-5.87721e-06
9.55449e-07
-5.81953e-06
8.25987e-07
-5.65144e-06
6.81685e-07
-5.36077e-06
5.28713e-07
-4.9366e-06
3.75609e-07
-4.37013e-06
2.33142e-07
-3.65566e-06
1.13903e-07
-2.7915e-06
3.16002e-08
-1.78081e-06
-6.3323e-07
3.70767e-08
6.61391e-07
1.3473e-07
1.86017e-06
2.78134e-07
2.91644e-06
4.52217e-07
3.81912e-06
6.42589e-07
4.56322e-06
8.36313e-07
5.14868e-06
1.02247e-06
5.58003e-06
1.19252e-06
5.86562e-06
1.34036e-06
6.01674e-06
1.46227e-06
6.04662e-06
1.55662e-06
5.96957e-06
1.62356e-06
5.80015e-06
1.6646e-06
5.55259e-06
1.68224e-06
5.24026e-06
1.67966e-06
4.87537e-06
1.66035e-06
4.46874e-06
1.62791e-06
4.02976e-06
1.58589e-06
3.56639e-06
1.53757e-06
3.08521e-06
1.48595e-06
2.59153e-06
1.43365e-06
2.08959e-06
1.38288e-06
1.58269e-06
1.33546e-06
1.07337e-06
1.29277e-06
5.63591e-07
1.25579e-06
5.49164e-08
1.22511e-06
-4.51309e-07
1.20095e-06
-9.53801e-07
1.18312e-06
-1.45117e-06
1.1711e-06
-1.94176e-06
1.164e-06
-2.42352e-06
1.16059e-06
-2.89383e-06
1.1593e-06
-3.34942e-06
1.15827e-06
-3.78621e-06
1.15535e-06
-4.19922e-06
1.14819e-06
-4.58252e-06
1.13427e-06
-4.92911e-06
1.11109e-06
-5.23097e-06
1.07622e-06
-5.47906e-06
1.02757e-06
-5.66339e-06
9.63586e-07
-5.77318e-06
8.83488e-07
-5.79711e-06
7.87591e-07
-5.72364e-06
6.77563e-07
-5.54142e-06
5.5668e-07
-5.23989e-06
4.29984e-07
-4.80991e-06
3.04337e-07
-4.24448e-06
1.88284e-07
-3.5396e-06
9.17277e-08
-2.69494e-06
2.53832e-08
-1.71447e-06
-6.07846e-07
3.07507e-08
6.30641e-07
1.12162e-07
1.77876e-06
2.32418e-07
2.79618e-06
3.79451e-07
3.67209e-06
5.41624e-07
4.40104e-06
7.08317e-07
4.98199e-06
8.70381e-07
5.41796e-06
1.02045e-06
5.71556e-06
1.15306e-06
5.88413e-06
1.26463e-06
5.93506e-06
1.35328e-06
5.88091e-06
1.41866e-06
5.73478e-06
1.46157e-06
5.50968e-06
1.48377e-06
5.21806e-06
1.48763e-06
4.87151e-06
1.47589e-06
4.48047e-06
1.45149e-06
4.05417e-06
1.41735e-06
3.60053e-06
1.37628e-06
3.12627e-06
1.33087e-06
2.63694e-06
1.28344e-06
2.13702e-06
1.23599e-06
1.63015e-06
1.19018e-06
1.11918e-06
1.14734e-06
6.06429e-07
1.10846e-06
9.37944e-08
1.0742e-06
-4.17049e-07
1.0449e-06
-9.24493e-07
1.02056e-06
-1.42683e-06
1.00091e-06
-1.92211e-06
9.8536e-07
-2.40797e-06
9.73045e-07
-2.88152e-06
9.6282e-07
-3.3392e-06
9.53288e-07
-3.77668e-06
9.42829e-07
-4.18877e-06
9.29644e-07
-4.56933e-06
9.11821e-07
-4.91128e-06
8.87422e-07
-5.20657e-06
8.54605e-07
-5.44624e-06
8.11762e-07
-5.62055e-06
7.57708e-07
-5.71913e-06
6.91872e-07
-5.73128e-06
6.14516e-07
-5.64628e-06
5.26944e-07
-5.45384e-06
4.31678e-07
-5.14462e-06
3.3258e-07
-4.71081e-06
2.34873e-07
-4.14678e-06
1.45034e-07
-3.44976e-06
7.05468e-08
-2.62045e-06
1.94963e-08
-1.66342e-06
-5.8835e-07
2.47352e-08
6.05905e-07
9.05209e-08
1.71297e-06
1.8819e-07
2.69851e-06
3.08337e-07
3.55194e-06
4.41808e-07
4.26757e-06
5.8013e-07
4.84367e-06
7.15876e-07
5.28222e-06
8.42914e-07
5.58852e-06
9.56543e-07
5.7705e-06
1.05351e-06
5.83809e-06
1.13191e-06
5.8025e-06
1.19108e-06
5.67561e-06
1.23133e-06
5.46942e-06
1.25379e-06
5.1956e-06
1.26016e-06
4.86514e-06
1.25252e-06
4.48811e-06
1.23316e-06
4.07353e-06
1.20444e-06
3.62926e-06
1.16865e-06
3.16206e-06
1.12798e-06
2.67761e-06
1.0844e-06
2.1806e-06
1.03967e-06
1.67488e-06
9.95268e-07
1.16358e-06
9.52441e-07
6.49256e-07
9.12153e-07
1.34083e-07
8.75108e-07
-3.80005e-07
8.41757e-07
-8.91141e-07
8.12297e-07
-1.39737e-06
7.86684e-07
-1.8965e-06
7.64641e-07
-2.38593e-06
7.45659e-07
-2.86254e-06
7.29014e-07
-3.32255e-06
7.13778e-07
-3.76144e-06
6.98841e-07
-4.17383e-06
6.82943e-07
-4.55343e-06
6.64718e-07
-4.89306e-06
6.4276e-07
-5.18461e-06
6.15708e-07
-5.41919e-06
5.8235e-07
-5.58719e-06
5.41755e-07
-5.67853e-06
4.93418e-07
-5.68294e-06
4.37418e-07
-5.59028e-06
3.74574e-07
-5.391e-06
3.06572e-07
-5.07662e-06
2.36059e-07
-4.6403e-06
1.6666e-07
-4.07738e-06
1.02906e-07
-3.38601e-06
5.00623e-08
-2.56761e-06
1.38407e-08
-1.62719e-06
-5.74509e-07
1.89571e-08
5.86948e-07
6.95978e-08
1.66233e-06
1.4514e-07
2.62297e-06
2.38587e-07
3.4585e-06
3.43057e-07
4.1631e-06
4.52095e-07
4.73463e-06
5.59934e-07
5.17438e-06
6.61704e-07
5.48675e-06
7.53554e-07
5.67865e-06
8.32691e-07
5.75896e-06
8.97348e-07
5.73785e-06
9.46696e-07
5.62627e-06
9.80709e-07
5.43541e-06
1.00002e-06
5.17629e-06
1.00576e-06
4.8594e-06
9.99419e-07
4.49446e-06
9.8269e-07
4.09025e-06
9.57375e-07
3.65457e-06
9.25282e-07
3.19415e-06
8.88154e-07
2.71473e-06
8.47618e-07
2.22114e-06
8.05146e-07
1.71736e-06
7.62036e-07
1.20669e-06
7.19401e-07
6.91891e-07
6.7816e-07
1.75323e-07
6.39047e-07
-3.40891e-07
6.02605e-07
-8.54699e-07
5.69199e-07
-1.36397e-06
5.39019e-07
-1.86632e-06
5.12082e-07
-2.35899e-06
4.88239e-07
-2.83869e-06
4.67179e-07
-3.30149e-06
4.48435e-07
-3.7427e-06
4.31395e-07
-4.15679e-06
4.15314e-07
-4.53735e-06
3.99345e-07
-4.87709e-06
3.82568e-07
-5.16784e-06
3.64045e-07
-5.40067e-06
3.42887e-07
-5.56603e-06
3.18333e-07
-5.65398e-06
2.89852e-07
-5.65446e-06
2.5725e-07
-5.55768e-06
2.20779e-07
-5.35453e-06
1.81235e-07
-5.03708e-06
1.40033e-07
-4.59909e-06
9.92311e-08
-4.03657e-06
6.15032e-08
-3.34828e-06
3.00332e-08
-2.53614e-06
8.3373e-09
-1.6055e-06
-5.66172e-07
1.3355e-08
5.73593e-07
4.92146e-08
1.62647e-06
1.02996e-07
2.56919e-06
1.69927e-07
3.39157e-06
2.45253e-07
4.08778e-06
3.24426e-07
4.65546e-06
4.03293e-07
5.09551e-06
4.78253e-07
5.41179e-06
5.46358e-07
5.61055e-06
6.05366e-07
5.69995e-06
6.53747e-07
5.68946e-06
6.90642e-07
5.58937e-06
7.15789e-07
5.41027e-06
7.2943e-07
5.16265e-06
7.32211e-07
4.85662e-06
7.25079e-07
4.50159e-06
7.09183e-07
4.10615e-06
6.85794e-07
3.67796e-06
6.5623e-07
3.22372e-06
6.21798e-07
2.74917e-06
5.83758e-07
2.25918e-06
5.43287e-07
1.75783e-06
5.01461e-07
1.24851e-06
4.59247e-07
7.34105e-07
4.17495e-07
2.17075e-07
3.76941e-07
-3.00337e-07
3.38209e-07
-8.15967e-07
3.01813e-07
-1.32757e-06
2.68161e-07
-1.83267e-06
2.37558e-07
-2.32839e-06
2.10204e-07
-2.81134e-06
1.86194e-07
-3.27748e-06
1.65513e-07
-3.72202e-06
1.48036e-07
-4.13931e-06
1.33522e-07
-4.52284e-06
1.21618e-07
-4.86518e-06
1.11867e-07
-5.15809e-06
1.03719e-07
-5.39252e-06
9.65608e-08
-5.55887e-06
8.97538e-08
-5.64717e-06
8.26845e-08
-5.64739e-06
7.48294e-08
-5.54982e-06
6.58263e-08
-5.34553e-06
5.55473e-08
-5.0268e-06
4.41632e-08
-4.58771e-06
3.21879e-08
-4.0246e-06
2.04897e-08
-3.33658e-06
1.02582e-08
-2.52591e-06
2.92067e-09
-1.59816e-06