/*--------------------------------*- C++ -*----------------------------------*\
  =========                 |
  \\      /  F ield         | OpenFOAM: The Open Source CFD Toolbox
   \\    /   O peration     | Website:  https://openfoam.org
    \\  /    A nd           | Version:  7
     \\/     M anipulation  |
\*---------------------------------------------------------------------------*/
FoamFile
{
    version     2.0;
    format      ascii;
    class       surfaceScalarField;
    location    "0.073";
    object      phi;
}
// * * * * * * * * * * * * * * * * * * * * * * * * * * * * * * * * * * * * * //

dimensions      [0 3 -1 0 0 0 0];

internalField   nonuniform List<scalar> 
4900
(
-5.55537e-06
5.55534e-06
-1.0161e-05
4.60559e-06
-1.29489e-05
2.78792e-06
-1.46695e-05
1.72064e-06
-1.57726e-05
1.10307e-06
-1.65121e-05
7.39533e-07
-1.70335e-05
5.21372e-07
-1.74186e-05
3.85116e-07
-1.77141e-05
2.95454e-07
-1.79474e-05
2.33352e-07
-1.81358e-05
1.88376e-07
-1.82903e-05
1.5456e-07
-1.84187e-05
1.28317e-07
-1.8526e-05
1.07387e-07
-1.86163e-05
9.02793e-08
-1.86923e-05
7.59763e-08
-1.87561e-05
6.37586e-08
-1.88092e-05
5.31043e-08
-1.88528e-05
4.36257e-08
-1.88878e-05
3.5028e-08
-1.89149e-05
2.70824e-08
-1.89345e-05
1.96074e-08
-1.8947e-05
1.24551e-08
-1.89525e-05
5.50172e-09
-1.89511e-05
-1.36125e-09
-1.89429e-05
-8.22954e-09
-1.89277e-05
-1.51975e-08
-1.89053e-05
-2.23582e-08
-1.88755e-05
-2.98114e-08
-1.88378e-05
-3.76693e-08
-1.87918e-05
-4.60648e-08
-1.87366e-05
-5.51611e-08
-1.86714e-05
-6.51659e-08
-1.85951e-05
-7.63504e-08
-1.8506e-05
-8.90776e-08
-1.84022e-05
-1.03845e-07
-1.82808e-05
-1.21348e-07
-1.81382e-05
-1.42589e-07
-1.79692e-05
-1.69055e-07
-1.77662e-05
-2.03028e-07
-1.7518e-05
-2.48161e-07
-1.72074e-05
-3.10545e-07
-1.68067e-05
-4.00767e-07
-1.62688e-05
-5.37875e-07
-1.55124e-05
-7.56362e-07
-1.43965e-05
-1.11593e-06
-1.26815e-05
-1.71499e-06
-9.94587e-06
-2.73565e-06
-5.45244e-06
-4.49343e-06
-5.45244e-06
-1.18984e-08
5.56724e-06
-2.13084e-06
6.72453e-06
-4.85876e-06
5.51583e-06
-7.27726e-06
4.13914e-06
-9.21724e-06
3.04305e-06
-1.07314e-05
2.25366e-06
-1.19129e-05
1.70288e-06
-1.28447e-05
1.31694e-06
-1.35902e-05
1.04093e-06
-1.41952e-05
8.38386e-07
-1.46926e-05
6.85742e-07
-1.51057e-05
5.67731e-07
-1.54517e-05
4.74282e-07
-1.57429e-05
3.98607e-07
-1.59887e-05
3.36013e-07
-1.61959e-05
2.83177e-07
-1.63698e-05
2.37692e-07
-1.65145e-05
1.97776e-07
-1.66329e-05
1.62088e-07
-1.67275e-05
1.29593e-07
-1.67999e-05
9.94809e-08
-1.68514e-05
7.11026e-08
-1.68829e-05
4.3926e-08
-1.68949e-05
1.75025e-08
-1.68877e-05
-8.55858e-09
-1.68613e-05
-3.46133e-08
-1.68155e-05
-6.1e-08
-1.67498e-05
-8.80591e-08
-1.66634e-05
-1.16152e-07
-1.65554e-05
-1.45684e-07
-1.64244e-05
-1.77129e-07
-1.62685e-05
-2.11064e-07
-1.60854e-05
-2.48216e-07
-1.58722e-05
-2.89521e-07
-1.56251e-05
-3.36212e-07
-1.5339e-05
-3.89949e-07
-1.50073e-05
-4.53001e-07
-1.46214e-05
-5.28536e-07
-1.41694e-05
-6.21065e-07
-1.36353e-05
-7.37143e-07
-1.29969e-05
-8.86501e-07
-1.22236e-05
-1.08384e-06
-1.12728e-05
-1.3516e-06
-1.00866e-05
-1.72405e-06
-8.59122e-06
-2.25176e-06
-6.70652e-06
-3.00063e-06
-4.39285e-06
-4.02866e-06
-1.81837e-06
-5.31013e-06
1.24419e-07
-6.43622e-06
-5.32802e-06
1.03232e-06
4.53493e-06
5.46313e-07
7.21053e-06
-9.93937e-07
7.05608e-06
-2.89107e-06
6.03627e-06
-4.75128e-06
4.90326e-06
-6.41404e-06
3.91642e-06
-7.83987e-06
3.12871e-06
-9.04178e-06
2.51886e-06
-1.00501e-05
2.04922e-06
-1.08968e-05
1.68515e-06
-1.16104e-05
1.39933e-06
-1.22141e-05
1.17144e-06
-1.27265e-05
9.86656e-07
-1.31621e-05
8.34226e-07
-1.35324e-05
7.06273e-07
-1.38462e-05
5.96978e-07
-1.41105e-05
5.0198e-07
-1.43307e-05
4.17968e-07
-1.4511e-05
3.4239e-07
-1.46546e-05
2.73247e-07
-1.47641e-05
2.08951e-07
-1.48412e-05
1.48215e-07
-1.48872e-05
8.99731e-08
-1.49031e-05
3.33209e-08
-1.48891e-05
-2.25329e-08
-1.48454e-05
-7.83098e-08
-1.47717e-05
-1.34696e-07
-1.46674e-05
-1.92378e-07
-1.45315e-05
-2.5208e-07
-1.43625e-05
-3.14604e-07
-1.41588e-05
-3.80878e-07
-1.39178e-05
-4.52018e-07
-1.36366e-05
-5.29405e-07
-1.33114e-05
-6.14786e-07
-1.29372e-05
-7.10422e-07
-1.25078e-05
-8.19273e-07
-1.20156e-05
-9.45277e-07
-1.14504e-05
-1.09373e-06
-1.07996e-05
-1.27183e-06
-1.00473e-05
-1.48942e-06
-9.1738e-06
-1.76003e-06
-8.15558e-06
-2.10206e-06
-6.96719e-06
-2.53999e-06
-5.58693e-06
-3.10432e-06
-4.01147e-06
-3.82722e-06
-2.28753e-06
-4.72457e-06
-5.72281e-07
-5.74391e-06
7.67092e-07
-6.6495e-06
1.08789e-06
-6.75702e-06
-4.24013e-06
9.05977e-07
3.62895e-06
1.22705e-06
6.88946e-06
6.39905e-07
7.64323e-06
-5.2958e-07
7.20575e-06
-1.95247e-06
6.32616e-06
-3.41048e-06
5.37442e-06
-4.78656e-06
4.50478e-06
-6.03086e-06
3.76316e-06
-7.13077e-06
3.14913e-06
-8.09157e-06
2.64595e-06
-8.92579e-06
2.23355e-06
-9.64778e-06
1.89343e-06
-1.02713e-05
1.61019e-06
-1.08086e-05
1.37147e-06
-1.12699e-05
1.16758e-06
-1.16638e-05
9.90948e-07
-1.19975e-05
8.35648e-07
-1.22766e-05
6.97025e-07
-1.25056e-05
5.71389e-07
-1.26881e-05
4.55788e-07
-1.2827e-05
3.47827e-07
-1.29243e-05
2.45539e-07
-1.29816e-05
1.47277e-07
-1.29999e-05
5.16285e-08
-1.29798e-05
-4.26479e-08
-1.29214e-05
-1.36685e-07
-1.28246e-05
-2.31558e-07
-1.26886e-05
-3.28338e-07
-1.25125e-05
-4.2814e-07
-1.2295e-05
-5.32184e-07
-1.2034e-05
-6.4186e-07
-1.17272e-05
-7.58809e-07
-1.13716e-05
-8.8502e-07
-1.09634e-05
-1.02296e-06
-1.04981e-05
-1.17572e-06
-9.97012e-06
-1.34726e-06
-9.37277e-06
-1.54262e-06
-8.6982e-06
-1.7683e-06
-7.93739e-06
-2.03264e-06
-7.0806e-06
-2.34621e-06
-6.11844e-06
-2.72219e-06
-5.04436e-06
-3.17614e-06
-3.85972e-06
-3.72464e-06
-2.58333e-06
-4.3807e-06
-1.26827e-06
-5.14228e-06
-2.68378e-08
-5.96601e-06
9.42853e-07
-6.7136e-06
1.34955e-06
-7.0562e-06
9.17127e-07
-6.3246e-06
-3.323e-06
6.71197e-07
2.95775e-06
1.24137e-06
6.31928e-06
1.21844e-06
7.66616e-06
6.43187e-07
7.78101e-06
-2.96872e-07
7.26622e-06
-1.41932e-06
6.49687e-06
-2.59174e-06
5.6772e-06
-3.73272e-06
4.90414e-06
-4.79869e-06
4.21511e-06
-5.77028e-06
3.61754e-06
-6.64215e-06
3.10542e-06
-7.41643e-06
2.66771e-06
-8.09876e-06
2.29252e-06
-8.69608e-06
1.96879e-06
-9.21541e-06
1.68691e-06
-9.66326e-06
1.4388e-06
-1.00454e-05
1.21781e-06
-1.03669e-05
1.01845e-06
-1.06317e-05
8.36223e-07
-1.08433e-05
6.67428e-07
-1.10045e-05
5.08998e-07
-1.11173e-05
3.5836e-07
-1.11834e-05
2.13331e-07
-1.12038e-05
7.20219e-08
-1.11792e-05
-6.72423e-08
-1.11099e-05
-2.05991e-07
-1.09958e-05
-3.45671e-07
-1.08364e-05
-4.87711e-07
-1.06309e-05
-6.33582e-07
-1.03783e-05
-7.84865e-07
-1.00768e-05
-9.43328e-07
-9.72459e-06
-1.11101e-06
-9.31929e-06
-1.29032e-06
-8.85808e-06
-1.48417e-06
-8.33771e-06
-1.69609e-06
-7.75455e-06
-1.93042e-06
-7.10472e-06
-2.19245e-06
-6.38441e-06
-2.48861e-06
-5.59052e-06
-2.82653e-06
-4.72182e-06
-3.21491e-06
-3.781e-06
-3.66301e-06
-2.77815e-06
-4.17898e-06
-1.73638e-06
-4.76641e-06
-7.00053e-07
-5.41703e-06
2.54404e-07
-6.09674e-06
1.009e-06
-6.7206e-06
1.40736e-06
-7.11196e-06
1.29715e-06
-6.94599e-06
6.66608e-07
-5.69406e-06
-2.65639e-06
4.79687e-07
2.47807e-06
1.07331e-06
5.72566e-06
1.33501e-06
7.40446e-06
1.16436e-06
7.95166e-06
6.29073e-07
7.8015e-06
-1.52186e-07
7.27813e-06
-1.06733e-06
6.59234e-06
-2.03092e-06
5.86773e-06
-2.98532e-06
5.1695e-06
-3.89519e-06
4.52741e-06
-4.74095e-06
3.95117e-06
-5.51331e-06
3.44007e-06
-6.20928e-06
2.9885e-06
-6.82951e-06
2.58901e-06
-7.37651e-06
2.23391e-06
-7.85367e-06
1.91596e-06
-8.26458e-06
1.62872e-06
-8.61269e-06
1.36656e-06
-8.90115e-06
1.12468e-06
-9.13268e-06
8.9896e-07
-9.30959e-06
6.85904e-07
-9.43374e-06
4.8251e-07
-9.50659e-06
2.86184e-07
-9.52922e-06
9.46552e-08
-9.50236e-06
-9.41053e-08
-9.4264e-06
-2.81953e-07
-9.30143e-06
-4.70639e-07
-9.12727e-06
-6.61872e-07
-8.90347e-06
-8.57387e-07
-8.62932e-06
-1.05901e-06
-8.3039e-06
-1.26874e-06
-7.9261e-06
-1.48881e-06
-7.49463e-06
-1.72179e-06
-7.00814e-06
-1.97066e-06
-6.46532e-06
-2.23891e-06
-5.86514e-06
-2.53059e-06
-5.20722e-06
-2.85037e-06
-4.49241e-06
-3.20343e-06
-3.72374e-06
-3.5952e-06
-2.90792e-06
-4.03073e-06
-2.05755e-06
-4.51337e-06
-1.19432e-06
-5.04221e-06
-3.53192e-07
-5.60754e-06
4.12802e-07
-6.18302e-06
1.029e-06
-6.71294e-06
1.40165e-06
-7.09325e-06
1.43648e-06
-7.14679e-06
1.08938e-06
-6.59888e-06
4.69647e-07
-5.07433e-06
-2.18675e-06
3.47217e-07
2.13085e-06
8.87566e-07
5.18531e-06
1.26987e-06
7.02216e-06
1.34677e-06
7.87475e-06
1.11069e-06
8.03758e-06
6.21737e-07
7.76709e-06
-4.07909e-08
7.25487e-06
-8.03425e-07
6.63037e-06
-1.60798e-06
5.97406e-06
-2.41246e-06
5.3319e-06
-3.18868e-06
4.72739e-06
-3.91892e-06
4.17031e-06
-4.59288e-06
3.66246e-06
-5.20525e-06
3.20139e-06
-5.75392e-06
2.78259e-06
-6.23875e-06
2.40079e-06
-6.66068e-06
2.05065e-06
-7.02123e-06
1.72712e-06
-7.32214e-06
1.42559e-06
-7.56514e-06
1.14196e-06
-7.75182e-06
8.7259e-07
-7.88361e-06
6.14296e-07
-7.96168e-06
3.64252e-07
-7.98698e-06
1.19954e-07
-7.96022e-06
-1.20858e-07
-7.88193e-06
-3.60252e-07
-7.75239e-06
-6.00173e-07
-7.57176e-06
-8.42498e-07
-7.34005e-06
-1.0891e-06
-7.05717e-06
-1.34189e-06
-6.72299e-06
-1.60292e-06
-6.33741e-06
-1.87439e-06
-5.90048e-06
-2.15873e-06
-5.41251e-06
-2.45863e-06
-4.87435e-06
-2.77707e-06
-4.2877e-06
-3.11725e-06
-3.65558e-06
-3.48249e-06
-2.98307e-06
-3.87594e-06
-2.2783e-06
-4.29996e-06
-1.55386e-06
-4.75518e-06
-8.28574e-07
-5.23865e-06
-1.29765e-07
-5.74102e-06
5.04582e-07
-6.24189e-06
1.0245e-06
-6.70294e-06
1.36975e-06
-7.05819e-06
1.47846e-06
-7.20196e-06
1.30874e-06
-6.97707e-06
8.79958e-07
-6.1701e-06
3.35356e-07
-4.52973e-06
-1.85139e-06
2.59777e-07
1.87107e-06
7.29293e-07
4.71579e-06
1.14619e-06
6.60527e-06
1.36237e-06
7.65857e-06
1.33152e-06
8.06844e-06
1.07122e-06
8.02739e-06
6.29128e-07
7.69696e-06
6.04826e-08
7.19901e-06
-5.83908e-07
6.61845e-06
-1.26253e-06
6.01052e-06
-1.94391e-06
5.40877e-06
-2.60546e-06
4.83187e-06
-3.23178e-06
4.28877e-06
-3.81281e-06
3.78241e-06
-4.34237e-06
3.31215e-06
-4.81697e-06
2.87538e-06
-5.23488e-06
2.46856e-06
-5.59554e-06
2.08778e-06
-5.89911e-06
1.72916e-06
-6.14612e-06
1.38897e-06
-6.33731e-06
1.06378e-06
-6.47348e-06
7.50469e-07
-6.55543e-06
4.462e-07
-6.58389e-06
1.48409e-07
-6.55951e-06
-1.45237e-07
-6.48288e-06
-4.36882e-07
-6.35452e-06
-7.2853e-07
-6.17493e-06
-1.02209e-06
-5.94461e-06
-1.31942e-06
-5.66414e-06
-1.62236e-06
-5.33424e-06
-1.93282e-06
-4.95589e-06
-2.25274e-06
-4.53046e-06
-2.58415e-06
-4.05995e-06
-2.92914e-06
-3.54721e-06
-3.28981e-06
-2.99636e-06
-3.6681e-06
-2.41327e-06
-4.06558e-06
-1.80627e-06
-4.48294e-06
-1.18698e-06
-4.91926e-06
-5.71386e-07
-5.37077e-06
1.89856e-08
-5.82903e-06
5.56019e-07
-6.27805e-06
1.00455e-06
-6.69043e-06
1.32355e-06
-7.02194e-06
1.47053e-06
-7.20517e-06
1.41172e-06
-7.14315e-06
1.1407e-06
-6.70605e-06
7.06596e-07
-5.736e-06
2.46911e-07
-4.07004e-06
-1.60448e-06
2.01433e-07
1.66964e-06
6.03936e-07
4.31329e-06
1.01426e-06
6.19494e-06
1.30144e-06
7.37139e-06
1.40384e-06
7.96604e-06
1.3124e-06
8.11883e-06
1.04968e-06
7.95968e-06
6.52664e-07
7.59603e-06
1.61373e-07
7.10974e-06
-3.87445e-07
6.55934e-06
-9.63018e-07
5.98434e-06
-1.5411e-06
5.40995e-06
-2.10345e-06
4.85112e-06
-2.63682e-06
4.31578e-06
-3.13192e-06
3.80725e-06
-3.58245e-06
3.32591e-06
-3.98431e-06
2.87042e-06
-4.33497e-06
2.43845e-06
-4.633e-06
2.02718e-06
-4.87769e-06
1.63366e-06
-5.06885e-06
1.25494e-06
-5.20661e-06
8.88222e-07
-5.29127e-06
5.30867e-07
-5.32331e-06
1.80445e-07
-5.30326e-06
-1.65287e-07
-5.23175e-06
-5.08395e-07
-5.10948e-06
-8.50797e-07
-4.93728e-06
-1.19429e-06
-4.71613e-06
-1.54057e-06
-4.44723e-06
-1.89126e-06
-4.13212e-06
-2.24793e-06
-3.77279e-06
-2.61208e-06
-3.37182e-06
-2.98512e-06
-2.93264e-06
-3.36832e-06
-2.45978e-06
-3.76266e-06
-1.95926e-06
-4.16862e-06
-1.43901e-06
-4.58583e-06
-9.09421e-07
-5.01252e-06
-3.83994e-07
-5.44468e-06
1.2005e-07
-5.87482e-06
5.81238e-07
-6.29021e-06
9.73742e-07
-6.67056e-06
1.26816e-06
-6.98485e-06
1.434e-06
-7.18777e-06
1.44489e-06
-7.21606e-06
1.28781e-06
-6.98607e-06
9.76929e-07
-6.39517e-06
5.70889e-07
-5.32996e-06
1.87707e-07
-3.68686e-06
-1.41677e-06
1.6121e-07
1.50843e-06
5.06346e-07
3.96815e-06
8.92332e-07
5.80895e-06
1.20954e-06
7.05419e-06
1.39402e-06
7.78155e-06
1.42209e-06
8.09076e-06
1.29861e-06
8.08316e-06
1.04513e-06
7.8495e-06
6.90574e-07
7.4643e-06
2.64949e-07
6.98496e-06
-2.04163e-07
6.45345e-06
-6.93218e-07
5.89901e-06
-1.18311e-06
5.34102e-06
-1.65892e-06
4.79159e-06
-2.10932e-06
4.25765e-06
-2.52595e-06
3.74255e-06
-2.90281e-06
3.24727e-06
-3.23565e-06
2.77129e-06
-3.52163e-06
2.31316e-06
-3.75887e-06
1.8709e-06
-3.94627e-06
1.44234e-06
-4.08323e-06
1.02519e-06
-4.1696e-06
6.17232e-07
-4.2055e-06
2.16345e-07
-4.19132e-06
-1.79462e-07
-4.12769e-06
-5.72029e-07
-4.01544e-06
-9.63048e-07
-3.85567e-06
-1.35406e-06
-3.64976e-06
-1.74647e-06
-3.39948e-06
-2.14154e-06
-3.10706e-06
-2.54035e-06
-2.77532e-06
-2.94382e-06
-2.40783e-06
-3.35261e-06
-2.00915e-06
-3.767e-06
-1.58505e-06
-4.18676e-06
-1.14281e-06
-4.61086e-06
-6.91599e-07
-5.03705e-06
-2.42811e-07
-5.46131e-06
1.89546e-07
-5.87704e-06
5.8862e-07
-6.27389e-06
9.34725e-07
-6.63632e-06
1.20588e-06
-6.94172e-06
1.3793e-06
-7.15826e-06
1.43423e-06
-7.2427e-06
1.35694e-06
-7.13877e-06
1.14801e-06
-6.77714e-06
8.31732e-07
-6.07889e-06
4.65825e-07
-4.96405e-06
1.46708e-07
-3.36775e-06
-1.27006e-06
1.32381e-07
1.37605e-06
4.29957e-07
3.67058e-06
7.8529e-07
5.45362e-06
1.10875e-06
6.73073e-06
1.34037e-06
7.54993e-06
1.44979e-06
7.98134e-06
1.4305e-06
8.10244e-06
1.29231e-06
7.98769e-06
1.05426e-06
7.70235e-06
7.39279e-07
7.29995e-06
3.70544e-07
6.82219e-06
-3.06105e-08
6.30016e-06
-4.45699e-07
5.75611e-06
-8.59381e-07
5.20527e-06
-1.25932e-06
4.65759e-06
-1.63588e-06
4.1191e-06
-1.98165e-06
3.59305e-06
-2.29111e-06
3.08075e-06
-2.56021e-06
2.58226e-06
-2.78608e-06
2.09677e-06
-2.96676e-06
1.62302e-06
-3.10101e-06
1.15944e-06
-3.18818e-06
7.04399e-07
-3.22806e-06
2.56225e-07
-3.22085e-06
-1.86669e-07
-3.16712e-06
-6.2576e-07
-3.06779e-06
-1.06238e-06
-2.92414e-06
-1.49772e-06
-2.73787e-06
-1.93274e-06
-2.51119e-06
-2.36822e-06
-2.24684e-06
-2.8047e-06
-1.94829e-06
-3.24238e-06
-1.61983e-06
-3.68107e-06
-1.26677e-06
-4.12006e-06
-8.95652e-07
-4.55788e-06
-5.14456e-07
-4.99205e-06
-1.32841e-07
-5.41866e-06
2.37656e-07
-5.83181e-06
5.83506e-07
-6.22289e-06
8.89242e-07
-6.57963e-06
1.13784e-06
-6.88492e-06
1.31165e-06
-7.11552e-06
1.39406e-06
-7.24067e-06
1.37234e-06
-7.22098e-06
1.24172e-06
-7.00814e-06
1.01079e-06
-6.54621e-06
7.07461e-07
-5.77557e-06
3.83906e-07
-4.6405e-06
1.17223e-07
-3.10106e-06
-1.15284e-06
1.109e-07
1.26515e-06
3.69224e-07
3.41225e-06
6.92872e-07
5.12997e-06
1.00915e-06
6.41445e-06
1.26453e-06
7.29456e-06
1.42684e-06
7.81903e-06
1.48297e-06
8.04632e-06
1.43434e-06
8.03632e-06
1.29203e-06
7.84465e-06
1.07245e-06
7.51953e-06
7.94071e-07
7.10057e-06
4.75233e-07
6.619e-06
1.32838e-07
6.0985e-06
-2.1831e-07
5.55642e-06
-5.65713e-07
5.00499e-06
-8.99116e-07
4.4525e-06
-1.21031e-06
3.90424e-06
-1.49286e-06
3.3633e-06
-1.74184e-06
2.83123e-06
-1.95355e-06
2.30849e-06
-2.12534e-06
1.79481e-06
-2.25539e-06
1.2895e-06
-2.34259e-06
7.91594e-07
-2.3864e-06
3.00034e-07
-2.38681e-06
-1.86254e-07
-2.3443e-06
-6.68272e-07
-2.25979e-06
-1.14689e-06
-2.13469e-06
-1.62282e-06
-1.9709e-06
-2.09653e-06
-1.7709e-06
-2.56823e-06
-1.5378e-06
-3.0378e-06
-1.27546e-06
-3.50471e-06
-9.88629e-07
-3.96791e-06
-6.83021e-07
-4.42567e-06
-3.65526e-07
-4.87538e-06
-4.43181e-08
-5.31326e-06
2.71019e-07
-5.734e-06
5.6944e-07
-6.13023e-06
8.38511e-07
-6.49196e-06
1.06467e-06
-6.80579e-06
1.23384e-06
-7.05409e-06
1.33246e-06
-7.21414e-06
1.34916e-06
-7.25737e-06
1.27723e-06
-7.14905e-06
1.11778e-06
-6.84869e-06
8.83496e-07
-6.31192e-06
6.02217e-07
-5.49429e-06
3.19073e-07
-4.35735e-06
9.52325e-08
-2.87722e-06
-1.05761e-06
9.43104e-08
1.17084e-06
3.19969e-07
3.18659e-06
6.13127e-07
4.83682e-06
9.14819e-07
6.11275e-06
1.17851e-06
7.03087e-06
1.3729e-06
7.62464e-06
1.48154e-06
7.93768e-06
1.50033e-06
8.01753e-06
1.43428e-06
7.9107e-06
1.29428e-06
7.65953e-06
1.09433e-06
7.30051e-06
8.49551e-07
6.86378e-06
5.7473e-07
6.37332e-06
2.83496e-07
5.84765e-06
-1.21199e-08
5.30061e-06
-3.01842e-07
4.74223e-06
-5.77123e-07
4.17952e-06
-8.31019e-07
3.6172e-06
-1.05801e-06
3.05823e-06
-1.25383e-06
2.50431e-06
-1.41527e-06
1.95625e-06
-1.54004e-06
1.41426e-06
-1.62661e-06
8.78164e-07
-1.67415e-06
3.47578e-07
-1.68244e-06
-1.77961e-07
-1.65182e-06
-6.98891e-07
-1.58317e-06
-1.21555e-06
-1.47792e-06
-1.72807e-06
-1.33805e-06
-2.23639e-06
-1.1662e-06
-2.74008e-06
-9.65651e-07
-3.23835e-06
-7.40459e-07
-3.7299e-06
-4.95529e-07
-4.21284e-06
-2.36705e-07
-4.68449e-06
2.91341e-08
-5.14122e-06
2.94009e-07
-5.57814e-06
5.48823e-07
-5.98881e-06
7.83419e-07
-6.36483e-06
9.8678e-07
-6.69532e-06
1.14742e-06
-6.96643e-06
1.25408e-06
-7.16074e-06
1.29673e-06
-7.2568e-06
1.26816e-06
-7.2288e-06
1.16585e-06
-7.04674e-06
9.94448e-07
-6.67729e-06
7.68198e-07
-6.08567e-06
5.12953e-07
-5.23905e-06
2.66824e-07
-4.11122e-06
7.8282e-08
-2.68868e-06
-9.79326e-07
8.10779e-08
1.08976e-06
2.79165e-07
2.98851e-06
5.43796e-07
4.57218e-06
8.2696e-07
5.82959e-06
1.08876e-06
6.76908e-06
1.30015e-06
7.41324e-06
1.44347e-06
7.79437e-06
1.51122e-06
7.94978e-06
1.50406e-06
7.91786e-06
1.42846e-06
7.73514e-06
1.29451e-06
7.43446e-06
1.1142e-06
7.04409e-06
9.00004e-07
6.58752e-06
6.64021e-07
6.08363e-06
4.17379e-07
5.54725e-06
1.6994e-07
4.98966e-06
-6.98142e-08
4.41928e-06
-2.94773e-07
3.84216e-06
-4.9912e-07
3.26257e-06
-6.78214e-07
2.6834e-06
-8.28468e-07
2.1065e-06
-9.47222e-07
1.53301e-06
-1.03264e-06
9.63581e-07
-1.08361e-06
3.98554e-07
-1.09971e-06
-1.61865e-07
-1.08111e-06
-7.17493e-07
-1.02859e-06
-1.26806e-06
-9.4353e-07
-1.81314e-06
-8.27908e-07
-2.35201e-06
-6.8435e-07
-2.88364e-06
-5.16165e-07
-3.40653e-06
-3.27406e-07
-3.91866e-06
-1.22925e-07
-4.41732e-06
9.15686e-08
-4.89898e-06
3.09472e-07
-5.35912e-06
5.23281e-07
-5.79195e-06
7.24647e-07
-6.19018e-06
9.04512e-07
-6.54469e-06
1.05338e-06
-6.84419e-06
1.16178e-06
-7.07483e-06
1.22093e-06
-7.21989e-06
1.22371e-06
-7.25957e-06
1.16592e-06
-7.17101e-06
1.04786e-06
-6.92869e-06
8.76005e-07
-6.50543e-06
6.64586e-07
-5.87425e-06
4.36644e-07
-5.0111e-06
2.23898e-07
-3.89848e-06
6.48262e-08
-2.52961e-06
-9.145e-07
7.02148e-08
1.01954e-06
2.44633e-07
2.81409e-06
4.82814e-07
4.334e-06
7.45463e-07
5.56694e-06
9.98625e-07
6.51591e-06
1.21611e-06
7.19576e-06
1.38033e-06
7.63014e-06
1.48198e-06
7.84813e-06
1.51872e-06
7.88112e-06
1.49366e-06
7.7602e-06
1.41365e-06
7.51447e-06
1.28781e-06
7.16993e-06
1.12638e-06
6.74895e-06
9.39745e-07
6.27027e-06
7.37888e-07
5.74911e-06
5.29951e-07
5.1976e-06
3.24046e-07
4.62518e-06
1.27167e-07
4.03904e-06
-5.4814e-08
3.44455e-06
-2.17094e-07
2.84568e-06
-3.55861e-07
2.24527e-06
-4.68211e-07
1.64536e-06
-5.52063e-07
1.04743e-06
-6.06087e-07
4.52578e-07
-6.29645e-07
-1.38306e-07
-6.22751e-07
-7.24387e-07
-5.86039e-07
-1.30477e-06
-5.20764e-07
-1.87841e-06
-4.288e-07
-2.44397e-06
-3.12662e-07
-2.99977e-06
-1.75539e-07
-3.54365e-06
-2.13177e-08
-4.07288e-06
1.45376e-07
-4.58401e-06
3.19163e-07
-5.07277e-06
4.93908e-07
-5.53386e-06
6.62764e-07
-5.9608e-06
8.1827e-07
-6.34568e-06
9.52543e-07
-6.67897e-06
1.05758e-06
-6.94923e-06
1.1257e-06
-7.14296e-06
1.15022e-06
-7.24441e-06
1.12623e-06
-7.23559e-06
1.0517e-06
-7.09648e-06
9.28579e-07
-6.80556e-06
7.64031e-07
-6.34088e-06
5.71398e-07
-5.68162e-06
3.7065e-07
-4.81036e-06
1.87934e-07
-3.71576e-06
5.38563e-08
-2.39553e-06
-8.60644e-07
6.10623e-08
9.58481e-07
2.14798e-07
2.66035e-06
4.28442e-07
4.12036e-06
6.69674e-07
5.32571e-06
9.09722e-07
6.27586e-06
1.12537e-06
6.98011e-06
1.29994e-06
7.45557e-06
1.42332e-06
7.72475e-06
1.49131e-06
7.81313e-06
1.50453e-06
7.74698e-06
1.46723e-06
7.55177e-06
1.38613e-06
7.25103e-06
1.26932e-06
6.86575e-06
1.12554e-06
6.41405e-06
9.63471e-07
5.91118e-06
7.91356e-07
5.36972e-06
6.16726e-07
4.79981e-06
4.46239e-07
4.20952e-06
2.85622e-07
3.60517e-06
1.39667e-07
2.99164e-06
1.22629e-08
2.37267e-06
-9.35519e-08
1.75118e-06
-1.75533e-07
1.12941e-06
-2.32176e-07
5.0922e-07
-2.62663e-07
-1.0782e-07
-2.6683e-07
-7.2022e-07
-2.45141e-07
-1.32646e-06
-1.98674e-07
-1.92488e-06
-1.29121e-07
-2.51353e-06
-3.87965e-08
-3.0901e-06
6.93498e-08
-3.6518e-06
1.91718e-07
-4.19525e-06
3.24046e-07
-4.71634e-06
4.6142e-07
-5.21015e-06
5.983e-07
-5.67074e-06
7.28595e-07
-6.0911e-06
8.45789e-07
-6.46288e-06
9.43152e-07
-6.77633e-06
1.01404e-06
-7.02012e-06
1.05235e-06
-7.18126e-06
1.05303e-06
-7.24509e-06
1.01283e-06
-7.19539e-06
9.31118e-07
-7.01476e-06
8.10708e-07
-6.68515e-06
6.58708e-07
-6.18888e-06
4.87085e-07
-5.51e-06
3.12791e-07
-4.63606e-06
1.57205e-07
-3.56017e-06
4.469e-08
-2.28302e-06
-8.15954e-07
5.31671e-08
9.05314e-07
1.88511e-07
2.52501e-06
3.79276e-07
3.92959e-06
5.98776e-07
5.10621e-06
8.22704e-07
6.05194e-06
1.03076e-06
6.77206e-06
1.20756e-06
7.27876e-06
1.34295e-06
7.58937e-06
1.43162e-06
7.72446e-06
1.47251e-06
7.70609e-06
1.46786e-06
7.55641e-06
1.42236e-06
7.29653e-06
1.34227e-06
6.94585e-06
1.2347e-06
6.52162e-06
1.10705e-06
6.03882e-06
9.66586e-07
5.51018e-06
8.20101e-07
4.94629e-06
6.73769e-07
4.35586e-06
5.33015e-07
3.74593e-06
4.02476e-07
3.12218e-06
2.85995e-07
2.48915e-06
1.86642e-07
1.85053e-06
1.06748e-07
1.20931e-06
4.79435e-08
5.68025e-07
1.11976e-08
-7.10737e-08
-3.1528e-09
-7.0587e-07
4.61957e-09
-1.33424e-06
3.36502e-08
-1.95391e-06
8.24866e-08
-2.56236e-06
1.49089e-07
-3.1567e-06
2.3083e-07
-3.73354e-06
3.24489e-07
-4.28891e-06
4.26266e-07
-4.81812e-06
5.31799e-07
-5.31568e-06
6.36216e-07
-5.77516e-06
7.34224e-07
-6.1891e-06
8.20247e-07
-6.5489e-06
8.88632e-07
-6.84471e-06
9.33945e-07
-7.06543e-06
9.51352e-07
-7.19866e-06
9.37098e-07
-7.23083e-06
8.89086e-07
-7.14738e-06
8.07503e-07
-6.93318e-06
6.95462e-07
-6.57311e-06
5.59541e-07
-6.05296e-06
4.10115e-07
-5.36057e-06
2.61307e-07
-4.48725e-06
1.30436e-07
-3.4293e-06
3.68508e-08
-2.18943e-06
-7.79103e-07
4.62091e-08
8.59105e-07
1.64925e-07
2.40629e-06
3.34195e-07
3.76032e-06
5.31951e-07
4.90845e-06
7.37727e-07
5.84616e-06
9.33947e-07
6.57584e-06
1.10676e-06
7.10595e-06
1.2464e-06
7.44973e-06
1.34708e-06
7.62377e-06
1.40661e-06
7.64657e-06
1.42576e-06
7.53727e-06
1.40759e-06
7.3147e-06
1.35678e-06
6.99666e-06
1.279e-06
6.5994e-06
1.18041e-06
6.13742e-06
1.06724e-06
5.62335e-06
9.45508e-07
5.06803e-06
8.20789e-07
4.48058e-06
6.98097e-07
3.86862e-06
5.81801e-07
3.23847e-06
4.75592e-07
2.59536e-06
3.82486e-07
1.94364e-06
3.0483e-07
1.28697e-06
2.4433e-07
6.28524e-07
2.02077e-07
-2.88203e-08
1.78569e-07
-6.82361e-07
1.73734e-07
-1.3294e-06
1.86944e-07
-1.96712e-06
2.17025e-07
-2.59244e-06
2.62263e-07
-3.20194e-06
3.20412e-07
-3.79169e-06
3.88698e-07
-4.35719e-06
4.63841e-07
-4.89326e-06
5.42085e-07
-5.39392e-06
6.19258e-07
-5.85234e-06
6.90866e-07
-6.26071e-06
7.52226e-07
-6.61026e-06
7.98668e-07
-6.89116e-06
8.25786e-07
-7.09255e-06
8.29778e-07
-7.20266e-06
8.07842e-07
-7.2089e-06
7.58633e-07
-7.09817e-06
6.82752e-07
-6.8573e-06
5.832e-07
-6.47356e-06
4.65745e-07
-5.93551e-06
3.39097e-07
-5.23392e-06
2.14787e-07
-4.36294e-06
1.06667e-07
-3.32118e-06
2.99966e-08
-2.11276e-06
-7.49106e-07
3.99565e-08
8.19148e-07
1.43402e-07
2.30285e-06
2.92312e-07
3.61141e-06
4.68458e-07
4.73231e-06
6.54691e-07
5.65993e-06
8.35953e-07
6.39458e-06
9.99994e-07
6.94191e-06
1.13774e-06
7.31198e-06
1.24334e-06
7.51817e-06
1.31395e-06
7.57597e-06
1.34927e-06
7.50194e-06
1.35112e-06
7.31285e-06
1.32286e-06
7.02492e-06
1.26889e-06
6.65337e-06
1.19421e-06
6.21209e-06
1.10407e-06
5.71349e-06
1.00367e-06
5.16843e-06
8.97923e-07
4.58632e-06
7.91364e-07
3.97518e-06
6.88005e-07
3.34183e-06
5.91307e-07
2.69206e-06
5.04154e-07
2.03079e-06
4.28849e-07
1.36227e-06
3.67125e-07
6.90249e-07
3.2016e-07
1.81441e-08
2.886e-07
-6.50801e-07
2.72569e-07
-1.31337e-06
2.71689e-07
-1.96624e-06
2.85087e-07
-2.60584e-06
3.1141e-07
-3.22826e-06
3.48828e-07
-3.82911e-06
3.95055e-07
-4.40342e-06
4.47365e-07
-4.94557e-06
5.02633e-07
-5.44919e-06
5.57393e-07
-5.90709e-06
6.07923e-07
-6.31124e-06
6.50376e-07
-6.65271e-06
6.80948e-07
-6.92173e-06
6.96103e-07
-7.10771e-06
6.92847e-07
-7.1994e-06
6.69057e-07
-7.18511e-06
6.23837e-07
-7.05295e-06
5.57883e-07
-6.79135e-06
4.73823e-07
-6.3895e-06
3.76452e-07
-5.83814e-06
2.72823e-07
-5.1303e-06
1.72107e-07
-4.26223e-06
8.51716e-08
-3.23425e-06
2.38763e-08
-2.05147e-06
-7.2523e-07
3.42381e-08
7.8491e-07
1.23461e-07
2.21363e-06
2.52924e-07
3.48195e-06
4.07649e-07
4.57758e-06
5.73379e-07
5.4942e-06
7.37363e-07
6.23059e-06
8.88953e-07
6.79032e-06
1.01996e-06
7.18098e-06
1.12475e-06
7.41337e-06
1.20016e-06
7.50055e-06
1.24522e-06
7.45689e-06
1.26078e-06
7.29729e-06
1.24913e-06
7.03657e-06
1.21358e-06
6.68892e-06
1.1581e-06
6.26757e-06
1.08699e-06
5.78459e-06
1.00465e-06
5.25078e-06
9.15317e-07
4.67565e-06
8.22981e-07
4.06751e-06
7.31245e-07
3.43357e-06
6.43274e-07
2.78003e-06
5.61762e-07
2.1123e-06
4.8891e-07
1.43512e-06
4.26436e-07
7.52724e-07
3.75573e-07
6.90067e-08
3.3709e-07
-6.12318e-07
3.113e-07
-1.28758e-06
2.98075e-07
-1.95301e-06
2.96854e-07
-2.60462e-06
3.06659e-07
-3.23807e-06
3.26102e-07
-3.84855e-06
3.534e-07
-4.43072e-06
3.864e-07
-4.97857e-06
4.22614e-07
-5.4854e-06
4.59265e-07
-5.94375e-06
4.93372e-07
-6.34535e-06
5.21852e-07
-6.68119e-06
5.41665e-07
-6.94154e-06
5.49997e-07
-7.11604e-06
5.44481e-07
-7.19388e-06
5.23453e-07
-7.16408e-06
4.86232e-07
-7.01573e-06
4.33393e-07
-6.73851e-06
3.6701e-07
-6.32312e-06
2.90819e-07
-5.76195e-06
2.10265e-07
-5.04974e-06
1.32367e-07
-4.18433e-06
6.53884e-08
-3.16727e-06
1.83017e-08
-2.00438e-06
-7.06928e-07
2.89243e-08
7.55986e-07
1.04727e-07
2.13782e-06
2.15467e-07
3.37121e-06
3.48969e-07
4.44408e-06
4.93525e-07
5.34964e-06
6.38503e-07
6.08562e-06
7.74826e-07
6.65399e-06
8.95289e-07
7.06051e-06
9.94694e-07
7.31397e-06
1.06982e-06
7.42542e-06
1.11927e-06
7.40744e-06
1.14321e-06
7.27335e-06
1.14307e-06
7.03671e-06
1.12125e-06
6.71074e-06
1.0808e-06
6.30803e-06
1.02514e-06
5.84025e-06
9.57891e-07
5.31803e-06
8.82616e-07
4.75092e-06
8.02735e-07
4.14739e-06
7.21399e-07
3.5149e-06
6.41431e-07
2.86e-06
5.65283e-07
2.18845e-06
4.9501e-07
1.50539e-06
4.32272e-07
8.15462e-07
3.78324e-07
1.22954e-07
3.34035e-07
-5.68028e-07
2.99888e-07
-1.25343e-06
2.75999e-07
-1.92912e-06
2.62119e-07
-2.59074e-06
2.57649e-07
-3.2336e-06
2.61648e-07
-3.85255e-06
2.72847e-07
-4.44192e-06
2.89667e-07
-4.99539e-06
3.10246e-07
-5.50598e-06
3.32482e-07
-5.96598e-06
3.5409e-07
-6.36696e-06
3.72689e-07
-6.69979e-06
3.85911e-07
-6.95476e-06
3.91544e-07
-7.12167e-06
3.877e-07
-7.19004e-06
3.7301e-07
-7.14939e-06
3.46839e-07
-6.98956e-06
3.09481e-07
-6.70115e-06
2.62348e-07
-6.27598e-06
2.08077e-07
-5.70768e-06
1.50561e-07
-4.99223e-06
9.48453e-08
-4.12861e-06
4.688e-08
-3.1193e-06
1.31289e-08
-1.97063e-06
-6.93799e-07
2.39147e-08
7.32071e-07
8.69068e-08
2.07483e-06
1.79485e-07
3.27863e-06
2.91939e-07
4.33163e-06
4.14849e-07
5.22673e-06
5.39539e-07
5.96093e-06
6.58455e-07
6.53508e-06
7.65436e-07
6.95353e-06
8.55854e-07
7.22355e-06
9.2663e-07
7.35465e-06
9.76151e-07
7.35792e-06
1.0041e-06
7.2454e-06
1.01124e-06
7.02956e-06
9.99208e-07
6.72278e-06
9.70231e-07
6.33701e-06
9.26956e-07
5.88352e-06
8.72235e-07
5.37275e-06
8.08978e-07
4.81418e-06
7.40023e-07
4.21635e-06
6.68042e-07
3.58688e-06
5.95481e-07
2.93256e-06
5.24508e-07
2.25943e-06
4.56994e-07
1.57291e-06
3.945e-07
8.77956e-07
3.38274e-07
1.7918e-07
2.89255e-07
-5.19009e-07
2.48078e-07
-1.21226e-06
2.15086e-07
-1.89613e-06
1.90334e-07
-2.56599e-06
1.73598e-07
-3.21686e-06
1.64382e-07
-3.84333e-06
1.61927e-07
-4.43946e-06
1.65221e-07
-4.99869e-06
1.73018e-07
-5.51378e-06
1.83864e-07
-5.97683e-06
1.96137e-07
-6.37923e-06
2.08103e-07
-6.71176e-06
2.17994e-07
-6.96465e-06
2.24105e-07
-7.12778e-06
2.24919e-07
-7.19085e-06
2.19242e-07
-7.14371e-06
2.06362e-07
-6.97668e-06
1.86193e-07
-6.68098e-06
1.59412e-07
-6.2492e-06
1.27544e-07
-5.67581e-06
9.29887e-08
-4.95767e-06
5.89563e-08
-4.09458e-06
2.92997e-08
-3.08965e-06
8.24563e-09
-1.94957e-06
-6.85554e-07
1.91289e-08
7.12942e-07
6.97599e-08
2.0242e-06
1.44596e-07
3.2038e-06
2.36144e-07
4.24008e-06
3.37071e-07
5.1258e-06
4.40528e-07
5.85747e-06
5.40436e-07
6.43517e-06
6.31709e-07
6.86226e-06
7.10382e-07
7.14488e-06
7.73655e-07
7.29137e-06
8.19861e-07
7.31171e-06
8.48363e-07
7.2169e-06
8.59415e-07
7.01851e-06
8.53995e-07
6.7282e-06
8.33633e-07
6.35737e-06
8.00246e-07
5.91691e-06
7.55984e-07
5.41701e-06
7.03105e-07
4.86706e-06
6.43866e-07
4.27559e-06
5.80446e-07
3.6503e-06
5.14881e-07
2.99813e-06
4.49027e-07
2.32528e-06
3.84535e-07
1.6374e-06
3.22833e-07
9.39658e-07
2.65129e-07
2.36885e-07
2.12403e-07
-4.66283e-07
1.6542e-07
-1.16527e-06
1.2473e-07
-1.85544e-06
9.06757e-08
-2.53194e-06
6.33975e-08
-3.18958e-06
4.28341e-08
-3.82277e-06
2.87272e-08
-4.42536e-06
2.06229e-08
-4.99058e-06
1.78769e-08
-5.51103e-06
1.96642e-08
-5.97861e-06
2.49954e-08
-6.38456e-06
3.27442e-08
-6.71951e-06
4.16892e-08
-6.9736e-06
5.05705e-08
-7.13666e-06
5.81647e-08
-7.19845e-06
6.33751e-08
-7.14892e-06
6.53345e-08
-6.97864e-06
6.35108e-08
-6.67916e-06
5.78064e-08
-6.2435e-06
4.86325e-08
-5.66663e-06
3.69447e-08
-4.94598e-06
2.42203e-08
-4.08186e-06
1.23674e-08
-3.0778e-06
3.56263e-09
-1.94077e-06
-6.81991e-07
1.45003e-08
6.98442e-07
5.30848e-08
1.98561e-06
1.1047e-07
3.14641e-06
1.81209e-07
4.16934e-06
2.5991e-07
5.0471e-06
3.41453e-07
5.77593e-06
4.21195e-07
6.35543e-06
4.95137e-07
6.78832e-06
5.6004e-07
7.07998e-06
6.13481e-07
7.23793e-06
6.53854e-07
7.27134e-06
6.80326e-07
7.19043e-06
6.9275e-07
7.00609e-06
6.91564e-07
6.72939e-06
6.77668e-07
6.37126e-06
6.52313e-07
5.94227e-06
6.16983e-07
5.45234e-06
5.73302e-07
4.91074e-06
5.22952e-07
4.32594e-06
4.676e-07
3.70566e-06
4.08858e-07
3.05687e-06
3.48241e-07
2.3859e-06
2.87146e-07
1.6985e-06
2.2684e-07
9.99963e-07
1.68456e-07
2.95269e-07
1.1299e-07
-4.10817e-07
6.13075e-08
-1.11359e-06
1.41446e-08
-1.80828e-06
-2.78882e-08
-2.4899e-06
-6.43041e-08
-3.15317e-06
-9.47427e-08
-3.79233e-06
-1.18974e-07
-4.40112e-06
-1.36905e-07
-4.97265e-06
-1.4859e-07
-5.49935e-06
-1.54241e-07
-5.97296e-06
-1.54232e-07
-6.38457e-06
-1.49104e-07
-6.72464e-06
-1.39562e-07
-6.98314e-06
-1.26458e-07
-7.14977e-06
-1.10761e-07
-7.21414e-06
-9.35173e-08
-7.16617e-06
-7.57902e-08
-6.99637e-06
-5.85936e-08
-6.69635e-06
-4.28181e-08
-6.25927e-06
-2.91624e-08
-5.68029e-06
-1.80814e-08