/*--------------------------------*- C++ -*----------------------------------*\
  =========                 |
  \\      /  F ield         | OpenFOAM: The Open Source CFD Toolbox
   \\    /   O peration     | Website:  https://openfoam.org
    \\  /    A nd           | Version:  7
     \\/     M anipulation  |
\*---------------------------------------------------------------------------*/
FoamFile
{
    version     2.0;
    format      ascii;
    class       volVectorField;
    location    "0.036";
    object      U;
}
// * * * * * * * * * * * * * * * * * * * * * * * * * * * * * * * * * * * * * //

dimensions      [0 1 -1 0 0 0 0];

internalField   nonuniform List<vector> 
2500
(
(0.290253 -0.152414 0)
(0.38954 -0.128237 0)
(0.565428 -0.0747331 0)
(0.683246 -0.0422282 0)
(0.752821 -0.0245226 0)
(0.797805 -0.014878 0)
(0.828934 -0.00956749 0)
(0.851362 -0.00654181 0)
(0.868119 -0.0047161 0)
(0.881028 -0.00354033 0)
(0.891202 -0.00273612 0)
(0.89935 -0.00215794 0)
(0.905952 -0.00172579 0)
(0.911345 -0.00139315 0)
(0.915774 -0.00113127 0)
(0.919422 -0.000921418 0)
(0.92243 -0.000750725 0)
(0.924906 -0.000610009 0)
(0.926934 -0.000492464 0)
(0.928583 -0.000392885 0)
(0.929903 -0.000307172 0)
(0.930935 -0.000231998 0)
(0.931711 -0.00016458 0)
(0.932252 -0.000102513 0)
(0.932573 -4.36395e-05 0)
(0.932683 1.4038e-05 0)
(0.932583 7.23535e-05 0)
(0.932268 0.000133357 0)
(0.931725 0.000199098 0)
(0.930938 0.000271827 0)
(0.929877 0.00035414 0)
(0.928507 0.000449127 0)
(0.926781 0.000560607 0)
(0.924638 0.000693445 0)
(0.921999 0.000854043 0)
(0.918762 0.00105109 0)
(0.914796 0.00129678 0)
(0.909925 0.00160888 0)
(0.903914 0.00201446 0)
(0.896435 0.00255696 0)
(0.887022 0.00331039 0)
(0.874979 0.00440907 0)
(0.859219 0.00611164 0)
(0.837937 0.00893888 0)
(0.808081 0.0139508 0)
(0.764378 0.0232393 0)
(0.695895 0.0407668 0)
(0.577943 0.0737454 0)
(0.398054 0.128746 0)
(0.293872 0.153788 0)
(0.00108782 -0.294897 0)
(0.0168606 -0.298619 0)
(0.152314 -0.213008 0)
(0.282812 -0.145293 0)
(0.387916 -0.099584 0)
(0.471042 -0.0697355 0)
(0.536346 -0.0503649 0)
(0.587683 -0.0375504 0)
(0.6284 -0.0287803 0)
(0.66106 -0.0225524 0)
(0.687533 -0.0179763 0)
(0.70918 -0.0145132 0)
(0.727005 -0.0118271 0)
(0.741759 -0.00970132 0)
(0.754014 -0.00799063 0)
(0.76421 -0.00659435 0)
(0.772692 -0.00544027 0)
(0.779733 -0.00447504 0)
(0.785548 -0.00365809 0)
(0.790311 -0.0029577 0)
(0.794159 -0.00234844 0)
(0.797197 -0.00180931 0)
(0.799508 -0.00132253 0)
(0.801152 -0.000872512 0)
(0.802171 -0.000445195 0)
(0.802586 -2.74148e-05 0)
(0.802401 0.000393543 0)
(0.801606 0.000830701 0)
(0.800168 0.00129768 0)
(0.798039 0.00180939 0)
(0.795148 0.00238277 0)
(0.791398 0.00303782 0)
(0.786667 0.00379881 0)
(0.780795 0.00469624 0)
(0.773578 0.00576941 0)
(0.764756 0.00707045 0)
(0.753997 0.00867044 0)
(0.740866 0.0106691 0)
(0.724794 0.0132107 0)
(0.705024 0.0165115 0)
(0.680523 0.0209073 0)
(0.649874 0.0269399 0)
(0.611097 0.0355143 0)
(0.561417 0.0481828 0)
(0.497101 0.0676045 0)
(0.413682 0.098083 0)
(0.306257 0.14573 0)
(0.170494 0.217273 0)
(0.0268973 0.307188 0)
(0.00518692 0.303014 0)
(-0.0329166 -0.250398 0)
(-0.0615937 -0.344037 0)
(-0.0115293 -0.310544 0)
(0.0707089 -0.251422 0)
(0.158705 -0.195829 0)
(0.241071 -0.15119 0)
(0.313453 -0.117425 0)
(0.375163 -0.0922715 0)
(0.427106 -0.0734352 0)
(0.47064 -0.0591381 0)
(0.507111 -0.0481067 0)
(0.537701 -0.0394521 0)
(0.563401 -0.0325556 0)
(0.585021 -0.0269826 0)
(0.603221 -0.0224226 0)
(0.618536 -0.0186492 0)
(0.631401 -0.0154939 0)
(0.642173 -0.0128281 0)
(0.651139 -0.0105516 0)
(0.658535 -0.00858448 0)
(0.664549 -0.00686137 0)
(0.669332 -0.00532759 0)
(0.672999 -0.00393612 0)
(0.675637 -0.00264535 0)
(0.677304 -0.00141736 0)
(0.678032 -0.00021639 0)
(0.677827 0.000992479 0)
(0.676672 0.00224458 0)
(0.674521 0.00357709 0)
(0.671303 0.00503052 0)
(0.666915 0.00665063 0)
(0.66122 0.00849077 0)
(0.65404 0.0106151 0)
(0.645152 0.0131028 0)
(0.634274 0.0160544 0)
(0.621051 0.0196003 0)
(0.605041 0.0239137 0)
(0.585688 0.0292293 0)
(0.562293 0.0358731 0)
(0.533974 0.0443053 0)
(0.499625 0.0551885 0)
(0.457881 0.069487 0)
(0.407119 0.0886038 0)
(0.345584 0.114537 0)
(0.271839 0.149934 0)
(0.186009 0.197555 0)
(0.0921206 0.25794 0)
(0.00178334 0.323233 0)
(-0.0569485 0.361511 0)
(-0.032171 0.263989 0)
(-0.0267706 -0.190627 0)
(-0.0654446 -0.332966 0)
(-0.064629 -0.351369 0)
(-0.0276887 -0.319003 0)
(0.0292733 -0.271627 0)
(0.0931786 -0.224972 0)
(0.156336 -0.184519 0)
(0.214954 -0.151184 0)
(0.267523 -0.124238 0)
(0.313758 -0.102552 0)
(0.353967 -0.0850474 0)
(0.388701 -0.0708238 0)
(0.418577 -0.059173 0)
(0.444197 -0.049549 0)
(0.466107 -0.0415328 0)
(0.48479 -0.0348009 0)
(0.500663 -0.0291011 0)
(0.514081 -0.0242338 0)
(0.525344 -0.0200384 0)
(0.534704 -0.0163834 0)
(0.542366 -0.0131588 0)
(0.548498 -0.0102708 0)
(0.553231 -0.00763734 0)
(0.556661 -0.00518474 0)
(0.558854 -0.00284514 0)
(0.559847 -0.000554045 0)
(0.559646 0.00175187 0)
(0.558227 0.00413682 0)
(0.555538 0.00666822 0)
(0.551491 0.00941916 0)
(0.545966 0.0124714 0)
(0.538803 0.0159194 0)
(0.529798 0.0198746 0)
(0.5187 0.0244727 0)
(0.505196 0.0298814 0)
(0.488909 0.0363132 0)
(0.469384 0.0440406 0)
(0.446076 0.0534193 0)
(0.418343 0.0649174 0)
(0.385451 0.0791553 0)
(0.34659 0.0969519 0)
(0.300953 0.119369 0)
(0.247907 0.147717 0)
(0.187362 0.183429 0)
(0.120473 0.227577 0)
(0.0509088 0.279482 0)
(-0.0132919 0.333405 0)
(-0.0579162 0.372047 0)
(-0.0647099 0.355847 0)
(-0.0272903 0.204792 0)
(-0.0178516 -0.149167 0)
(-0.0531509 -0.302833 0)
(-0.0737768 -0.354631 0)
(-0.066915 -0.34983 0)
(-0.0379755 -0.318986 0)
(0.00383267 -0.279478 0)
(0.0513049 -0.239894 0)
(0.099688 -0.20386 0)
(0.146149 -0.172488 0)
(0.189195 -0.145752 0)
(0.228185 -0.123176 0)
(0.262973 -0.104163 0)
(0.293689 -0.0881353 0)
(0.320597 -0.074583 0)
(0.344021 -0.0630757 0)
(0.364293 -0.0532557 0)
(0.381731 -0.0448275 0)
(0.396631 -0.0375457 0)
(0.409253 -0.0312051 0)
(0.419823 -0.0256318 0)
(0.428537 -0.0206764 0)
(0.435551 -0.0162082 0)
(0.440994 -0.0121106 0)
(0.44496 -0.00827711 0)
(0.447513 -0.00460846 0)
(0.448688 -0.00100924 0)
(0.448488 0.00261467 0)
(0.446887 0.00635893 0)
(0.443825 0.0103237 0)
(0.439211 0.0146167 0)
(0.43292 0.0193575 0)
(0.424787 0.0246818 0)
(0.414608 0.0307472 0)
(0.402137 0.0377408 0)
(0.387078 0.0458878 0)
(0.36909 0.0554639 0)
(0.347784 0.0668089 0)
(0.322728 0.0803435 0)
(0.293472 0.0965876 0)
(0.259582 0.116173 0)
(0.220721 0.139844 0)
(0.176796 0.168406 0)
(0.128205 0.202585 0)
(0.0762497 0.242654 0)
(0.0237295 0.287637 0)
(-0.024278 0.333711 0)
(-0.0597513 0.37133 0)
(-0.0721209 0.380898 0)
(-0.0543836 0.32801 0)
(-0.0186516 0.162436 0)
(-0.0114354 -0.12088 0)
(-0.0403353 -0.269749 0)
(-0.0680619 -0.339721 0)
(-0.078211 -0.356652 0)
(-0.0696611 -0.343114 0)
(-0.0471992 -0.314616 0)
(-0.0160018 -0.280555 0)
(0.0196728 -0.246084 0)
(0.0567199 -0.213738 0)
(0.0930859 -0.184556 0)
(0.127526 -0.158786 0)
(0.159361 -0.13629 0)
(0.188285 -0.116765 0)
(0.214224 -0.0998539 0)
(0.237246 -0.0852055 0)
(0.257497 -0.0724932 0)
(0.275158 -0.0614251 0)
(0.290422 -0.0517435 0)
(0.30348 -0.0432219 0)
(0.314507 -0.0356603 0)
(0.323659 -0.0288811 0)
(0.33107 -0.0227241 0)
(0.336847 -0.0170431 0)
(0.341072 -0.0117022 0)
(0.343799 -0.00657253 0)
(0.345056 -0.00152891 0)
(0.344843 0.00355276 0)
(0.343129 0.00879884 0)
(0.339855 0.0143411 0)
(0.334934 0.0203205 0)
(0.328246 0.026891 0)
(0.319639 0.0342246 0)
(0.30893 0.0425165 0)
(0.295906 0.0519923 0)
(0.280324 0.0629145 0)
(0.261923 0.0755909 0)
(0.24043 0.0903824 0)
(0.215588 0.107707 0)
(0.187194 0.128038 0)
(0.155164 0.151881 0)
(0.119639 0.179724 0)
(0.08115 0.211902 0)
(0.0408502 0.248348 0)
(0.000830638 0.288109 0)
(-0.0355479 0.328506 0)
(-0.0634452 0.363786 0)
(-0.0767604 0.383178 0)
(-0.0695989 0.368842 0)
(-0.0423689 0.295052 0)
(-0.012193 0.13291 0)
(-0.00748435 -0.100836 0)
(-0.0305316 -0.239348 0)
(-0.0589101 -0.317436 0)
(-0.0775068 -0.349276 0)
(-0.0822215 -0.35043 0)
(-0.0745632 -0.333392 0)
(-0.0575421 -0.306926 0)
(-0.0343087 -0.276656 0)
(-0.00758561 -0.245922 0)
(0.0205367 -0.216552 0)
(0.0485769 -0.189432 0)
(0.0755516 -0.164898 0)
(0.100853 -0.142974 0)
(0.12414 -0.123523 0)
(0.145255 -0.106329 0)
(0.164163 -0.0911503 0)
(0.180901 -0.0777386 0)
(0.19555 -0.0658565 0)
(0.208215 -0.0552806 0)
(0.219004 -0.0458036 0)
(0.228024 -0.0372334 0)
(0.235368 -0.0293911 0)
(0.241116 -0.0221087 0)
(0.24533 -0.0152268 0)
(0.248047 -0.00859156 0)
(0.249286 -0.00205209 0)
(0.249041 0.00454228 0)
(0.247281 0.0113451 0)
(0.243951 0.0185157 0)
(0.238972 0.0262231 0)
(0.232241 0.034649 0)
(0.223631 0.0439923 0)
(0.212997 0.0544733 0)
(0.200178 0.0663376 0)
(0.185007 0.0798598 0)
(0.167325 0.0953457 0)
(0.147001 0.11313 0)
(0.123967 0.133565 0)
(0.0982678 0.156999 0)
(0.0701339 0.183722 0)
(0.0400875 0.213866 0)
(0.00907992 0.247233 0)
(-0.0213412 0.282998 0)
(-0.0488664 0.319229 0)
(-0.0703514 0.352186 0)
(-0.082006 0.375383 0)
(-0.0800426 0.378578 0)
(-0.0622844 0.347215 0)
(-0.0328335 0.263462 0)
(-0.00813921 0.111521 0)
(-0.00515103 -0.0861159 0)
(-0.0236476 -0.212896 0)
(-0.0502104 -0.292998 0)
(-0.0723574 -0.334029 0)
(-0.0850991 -0.346364 0)
(-0.0879571 -0.339513 0)
(-0.0822199 -0.320975 0)
(-0.0698694 -0.296145 0)
(-0.0529712 -0.268641 0)
(-0.0333384 -0.240747 0)
(-0.012415 -0.213812 0)
(0.00872136 -0.188566 0)
(0.0293081 -0.165348 0)
(0.0488339 -0.144249 0)
(0.0669768 -0.125221 0)
(0.0835528 -0.108131 0)
(0.098474 -0.0928052 0)
(0.111717 -0.0790513 0)
(0.123298 -0.0666702 0)
(0.133259 -0.0554641 0)
(0.141648 -0.0452407 0)
(0.148518 -0.0358135 0)
(0.153915 -0.0270021 0)
(0.157874 -0.0186309 0)
(0.160416 -0.0105278 0)
(0.161548 -0.0025218 0)
(0.161258 0.00555876 0)
(0.159516 0.013889 0)
(0.156276 0.0226497 0)
(0.151472 0.0320303 0)
(0.145023 0.0422314 0)
(0.136838 0.0534672 0)
(0.126817 0.0659678 0)
(0.114864 0.0799798 0)
(0.100896 0.0957649 0)
(0.0848615 0.113595 0)
(0.06677 0.13374 0)
(0.0467261 0.156444 0)
(0.0249815 0.181881 0)
(0.00200244 0.210083 0)
(-0.0214475 0.240817 0)
(-0.0442145 0.2734 0)
(-0.0646704 0.306412 0)
(-0.080682 0.3373 0)
(-0.0897219 0.361878 0)
(-0.089251 0.373794 0)
(-0.0774571 0.36418 0)
(-0.0545633 0.3219 0)
(-0.0259963 0.235102 0)
(-0.00571619 0.0954637 0)
(-0.00375535 -0.074845 0)
(-0.0188899 -0.19015 0)
(-0.042981 -0.26879 0)
(-0.0661204 -0.314799 0)
(-0.0834358 -0.334998 0)
(-0.0934265 -0.336408 0)
(-0.0962084 -0.325136 0)
(-0.092786 -0.305992 0)
(-0.0845378 -0.282509 0)
(-0.0728652 -0.257141 0)
(-0.0590126 -0.23151 0)
(-0.0440014 -0.206629 0)
(-0.028625 -0.183088 0)
(-0.0134722 -0.16119 0)
(0.0010379 -0.141044 0)
(0.01462 -0.122643 0)
(0.0270901 -0.105898 0)
(0.0383383 -0.0906762 0)
(0.0483066 -0.0768181 0)
(0.0569714 -0.0641496 0)
(0.0643305 -0.0524897 0)
(0.0703925 -0.0416549 0)
(0.0751696 -0.0314613 0)
(0.0786716 -0.0217255 0)
(0.0809021 -0.012264 0)
(0.0818558 -0.00289272 0)
(0.0815168 0.0065746 0)
(0.079858 0.0163276 0)
(0.0768415 0.0265611 0)
(0.0724202 0.0374764 0)
(0.066541 0.0492829 0)
(0.0591493 0.062198 0)
(0.0501967 0.0764469 0)
(0.039651 0.0922594 0)
(0.0275114 0.109864 0)
(0.0138279 0.129474 0)
(-0.00127079 0.15127 0)
(-0.017543 0.175363 0)
(-0.0345898 0.201739 0)
(-0.051804 0.230178 0)
(-0.0683163 0.260126 0)
(-0.0829512 0.290522 0)
(-0.0942161 0.319563 0)
(-0.100365 0.344413 0)
(-0.0996033 0.3609 0)
(-0.0905204 0.363289 0)
(-0.0727299 0.344331 0)
(-0.0477793 0.295826 0)
(-0.0211828 0.21009 0)
(-0.00425004 0.082911 0)
(-0.00288936 -0.065846 0)
(-0.0155694 -0.170476 0)
(-0.0372616 -0.245763 0)
(-0.060163 -0.293822 0)
(-0.0799114 -0.319135 0)
(-0.0945876 -0.326817 0)
(-0.103594 -0.321697 0)
(-0.107213 -0.30788 0)
(-0.106226 -0.288608 0)
(-0.101607 -0.266303 0)
(-0.0943284 -0.242695 0)
(-0.085268 -0.218965 0)
(-0.075163 -0.195882 0)
(-0.0646045 -0.173913 0)
(-0.0540487 -0.153312 0)
(-0.0438359 -0.13418 0)
(-0.0342122 -0.116521 0)
(-0.0253496 -0.100265 0)
(-0.0173643 -0.0853 0)
(-0.0103323 -0.071485 0)
(-0.00430083 -0.058659 0)
(0.000700799 -0.04665 0)
(0.00465413 -0.0352789 0)
(0.00754557 -0.0243614 0)
(0.00936217 -0.0137103 0)
(0.0100888 -0.00313514 0)
(0.00970663 0.00755772 0)
(0.00819249 0.0185652 0)
(0.00551993 0.0300883 0)
(0.0016613 0.0423315 0)
(-0.00340846 0.055503 0)
(-0.00970601 0.0698123 0)
(-0.0172314 0.0854672 0)
(-0.0259567 0.102667 0)
(-0.0358112 0.121591 0)
(-0.0466621 0.142382 0)
(-0.0582902 0.165119 0)
(-0.0703608 0.189775 0)
(-0.0823919 0.21616 0)
(-0.093722 0.243836 0)
(-0.103486 0.272003 0)
(-0.110612 0.299354 0)
(-0.113861 0.323897 0)
(-0.111946 0.342774 0)
(-0.103763 0.352111 0)
(-0.0887806 0.346996 0)
(-0.0675312 0.321708 0)
(-0.0421669 0.270352 0)
(-0.0177489 0.188014 0)
(-0.00332582 0.0727044 0)
(-0.002328 -0.0583925 0)
(-0.0132081 -0.15324 0)
(-0.0328152 -0.224183 0)
(-0.0549535 -0.272313 0)
(-0.0758625 -0.300603 0)
(-0.0935398 -0.312765 0)
(-0.107 -0.312563 0)
(-0.116036 -0.303406 0)
(-0.120961 -0.288152 0)
(-0.122364 -0.269066 0)
(-0.120941 -0.247867 0)
(-0.117383 -0.225807 0)
(-0.112321 -0.203759 0)
(-0.106297 -0.182307 0)
(-0.0997561 -0.161814 0)
(-0.0930549 -0.142479 0)
(-0.0864694 -0.124383 0)
(-0.080209 -0.107522 0)
(-0.0744295 -0.0918334 0)
(-0.069245 -0.0772111 0)
(-0.0647378 -0.0635207 0)
(-0.0609675 -0.0506079 0)
(-0.0579778 -0.0383044 0)
(-0.0558017 -0.026432 0)
(-0.0544658 -0.0148059 0)
(-0.0539927 -0.00323592 0)
(-0.0544026 0.00847206 0)
(-0.0557132 0.0205153 0)
(-0.0579391 0.0330933 0)
(-0.0610885 0.0464058 0)
(-0.0651596 0.0606513 0)
(-0.0701344 0.0760223 0)
(-0.0759702 0.0926994 0)
(-0.0825889 0.110842 0)
(-0.0898636 0.130573 0)
(-0.0976013 0.151959 0)
(-0.105524 0.174977 0)
(-0.113249 0.199477 0)
(-0.120268 0.225118 0)
(-0.125935 0.251296 0)
(-0.129463 0.277047 0)
(-0.129957 0.300939 0)
(-0.126479 0.320949 0)
(-0.118183 0.33437 0)
(-0.104537 0.337771 0)
(-0.0856387 0.327082 0)
(-0.062552 0.297898 0)
(-0.0376058 0.246032 0)
(-0.0152365 0.168376 0)
(-0.00271275 0.0641301 0)
(-0.00194832 -0.0520255 0)
(-0.0114936 -0.137905 0)
(-0.0293701 -0.204012 0)
(-0.0505767 -0.250896 0)
(-0.0719165 -0.280556 0)
(-0.0914699 -0.295697 0)
(-0.108073 -0.299234 0)
(-0.12121 -0.293952 0)
(-0.130851 -0.282307 0)
(-0.137272 -0.266344 0)
(-0.140912 -0.247692 0)
(-0.142272 -0.227596 0)
(-0.141852 -0.206976 0)
(-0.140115 -0.186484 0)
(-0.137463 -0.166557 0)
(-0.134239 -0.147469 0)
(-0.130722 -0.129367 0)
(-0.127136 -0.112304 0)
(-0.123659 -0.0962631 0)
(-0.120428 -0.0811756 0)
(-0.117551 -0.0669353 0)
(-0.115108 -0.0534088 0)
(-0.113162 -0.0404435 0)
(-0.11176 -0.0278723 0)
(-0.110938 -0.0155182 0)
(-0.110725 -0.00319731 0)
(-0.111139 0.00927926 0)
(-0.112193 0.0221027 0)
(-0.113889 0.0354645 0)
(-0.116217 0.0495531 0)
(-0.119152 0.0645502 0)
(-0.122647 0.0806246 0)
(-0.126624 0.0979242 0)
(-0.130967 0.116563 0)
(-0.135511 0.136608 0)
(-0.140025 0.158049 0)
(-0.144205 0.180775 0)
(-0.147658 0.20453 0)
(-0.149893 0.22886 0)
(-0.150327 0.25305 0)
(-0.148301 0.276051 0)
(-0.143124 0.2964 0)
(-0.134153 0.312157 0)
(-0.120928 0.320865 0)
(-0.103355 0.31958 0)
(-0.0819478 0.305011 0)
(-0.0580362 0.273811 0)
(-0.0338989 0.223034 0)
(-0.0133454 0.150732 0)
(-0.00228488 0.0567394 0)
(-0.00168183 -0.0464443 0)
(-0.0102237 -0.124052 0)
(-0.026693 -0.185105 0)
(-0.0469692 -0.229866 0)
(-0.0683374 -0.259706 0)
(-0.0890299 -0.276613 0)
(-0.10783 -0.282843 0)
(-0.12404 -0.28065 0)
(-0.137393 -0.27211 0)
(-0.147922 -0.259023 0)
(-0.155848 -0.242882 0)
(-0.161496 -0.224877 0)
(-0.165233 -0.205923 0)
(-0.167425 -0.186702 0)
(-0.168414 -0.167694 0)
(-0.168506 -0.149223 0)
(-0.167966 -0.131488 0)
(-0.167014 -0.114586 0)
(-0.165834 -0.0985408 0)
(-0.164574 -0.0833184 0)
(-0.163355 -0.0688405 0)
(-0.162271 -0.0549967 0)
(-0.161395 -0.0416522 0)
(-0.160785 -0.028655 0)
(-0.160482 -0.0158401 0)
(-0.160518 -0.00303418 0)
(-0.160909 0.00994109 0)
(-0.16166 0.0232658 0)
(-0.162763 0.0371183 0)
(-0.164193 0.0516704 0)
(-0.165905 0.0670824 0)
(-0.167829 0.0834956 0)
(-0.169862 0.101022 0)
(-0.171864 0.119732 0)
(-0.173646 0.139636 0)
(-0.174965 0.16066 0)
(-0.175513 0.182618 0)
(-0.174918 0.205175 0)
(-0.172739 0.2278 0)
(-0.168488 0.24972 0)
(-0.161648 0.269863 0)
(-0.151737 0.286812 0)
(-0.138377 0.298775 0)
(-0.12142 0.30359 0)
(-0.101089 0.29879 0)
(-0.078151 0.281752 0)
(-0.0540354 0.24996 0)
(-0.0308628 0.20135 0)
(-0.0118829 0.134722 0)
(-0.00197253 0.0502389 0)
(-0.00148901 -0.0414453 0)
(-0.00926675 -0.111355 0)
(-0.0246007 -0.167281 0)
(-0.0440217 -0.209339 0)
(-0.0652089 -0.238487 0)
(-0.0865646 -0.256202 0)
(-0.106887 -0.264235 0)
(-0.125386 -0.264403 0)
(-0.141634 -0.258439 0)
(-0.155485 -0.247903 0)
(-0.166985 -0.234129 0)
(-0.176304 -0.21822 0)
(-0.183682 -0.201055 0)
(-0.18939 -0.183308 0)
(-0.193698 -0.165479 0)
(-0.196866 -0.147919 0)
(-0.199126 -0.130861 0)
(-0.200684 -0.114437 0)
(-0.201718 -0.098703 0)
(-0.202376 -0.0836544 0)
(-0.202781 -0.0692391 0)
(-0.203033 -0.0553691 0)
(-0.203211 -0.0419293 0)
(-0.203378 -0.0287844 0)
(-0.203577 -0.0157845 0)
(-0.203838 -0.00277046 0)
(-0.204175 0.010422 0)
(-0.204588 0.0239579 0)
(-0.205057 0.0379986 0)
(-0.205545 0.0526962 0)
(-0.205993 0.0681869 0)
(-0.206314 0.0845829 0)
(-0.206391 0.101961 0)
(-0.206071 0.120351 0)
(-0.205158 0.139713 0)
(-0.203411 0.159922 0)
(-0.200544 0.180735 0)
(-0.196224 0.201765 0)
(-0.190081 0.222441 0)
(-0.181733 0.241972 0)
(-0.170812 0.259314 0)
(-0.157025 0.273143 0)
(-0.140221 0.281854 0)
(-0.120489 0.283585 0)
(-0.0982705 0.276302 0)
(-0.0744731 0.257941 0)
(-0.0505253 0.22662 0)
(-0.0283512 0.180899 0)
(-0.0107246 0.120061 0)
(-0.00173592 0.0444292 0)
(-0.00134609 -0.0368856 0)
(-0.0085348 -0.0995664 0)
(-0.0229549 -0.15037 0)
(-0.0416219 -0.189337 0)
(-0.0625304 -0.217153 0)
(-0.0842456 -0.23493 0)
(-0.105616 -0.244029 0)
(-0.125809 -0.245913 0)
(-0.144301 -0.242021 0)
(-0.160814 -0.233682 0)
(-0.175258 -0.222071 0)
(-0.187674 -0.208186 0)
(-0.198191 -0.192843 0)
(-0.206985 -0.17669 0)
(-0.214256 -0.160221 0)
(-0.220209 -0.143798 0)
(-0.22504 -0.127671 0)
(-0.228929 -0.111995 0)
(-0.232038 -0.0968502 0)
(-0.234506 -0.0822565 0)
(-0.236453 -0.0681842 0)
(-0.237979 -0.0545665 0)
(-0.239162 -0.0413075 0)
(-0.240064 -0.0282895 0)
(-0.240729 -0.0153797 0)
(-0.241184 -0.0024354 0)
(-0.24144 0.0106913 0)
(-0.241488 0.0241478 0)
(-0.241302 0.0380764 0)
(-0.240836 0.0526074 0)
(-0.24002 0.0678525 0)
(-0.238759 0.0838954 0)
(-0.236928 0.100781 0)
(-0.234372 0.118502 0)
(-0.230902 0.13698 0)
(-0.226295 0.156051 0)
(-0.220297 0.175436 0)
(-0.212629 0.194719 0)
(-0.203002 0.213318 0)
(-0.191143 0.230461 0)
(-0.176823 0.245165 0)
(-0.159915 0.25623 0)
(-0.14045 0.262246 0)
(-0.118693 0.261642 0)
(-0.0952272 0.252761 0)
(-0.0710239 0.23399 0)
(-0.0474581 0.203926 0)
(-0.0262535 0.161573 0)
(-0.00978962 0.106524 0)
(-0.00155144 0.0391686 0)
(-0.00123816 -0.0326629 0)
(-0.00796819 -0.0884952 0)
(-0.0216522 -0.134218 0)
(-0.03967 -0.169838 0)
(-0.0602657 -0.195853 0)
(-0.0821495 -0.21311 0)
(-0.104233 -0.222675 0)
(-0.125678 -0.225724 0)
(-0.1459 -0.223441 0)
(-0.164531 -0.216953 0)
(-0.181377 -0.207275 0)
(-0.196376 -0.195293 0)
(-0.209558 -0.18175 0)
(-0.221018 -0.167247 0)
(-0.230887 -0.152258 0)
(-0.239314 -0.137138 0)
(-0.246455 -0.122144 0)
(-0.252458 -0.107441 0)
(-0.257465 -0.0931275 0)
(-0.261601 -0.0792396 0)
(-0.264976 -0.0657669 0)
(-0.267683 -0.0526611 0)
(-0.269797 -0.0398445 0)
(-0.271375 -0.0272174 0)
(-0.27246 -0.0146643 0)
(-0.273074 -0.00205998 0)
(-0.273222 0.0107254 0)
(-0.272891 0.0238205 0)
(-0.27205 0.0373475 0)
(-0.270645 0.0514149 0)
(-0.268601 0.0661106 0)
(-0.265819 0.0814922 0)
(-0.262176 0.0975768 0)
(-0.257523 0.114328 0)
(-0.251687 0.13164 0)
(-0.244471 0.149321 0)
(-0.235664 0.167074 0)
(-0.225047 0.184477 0)
(-0.212416 0.200962 0)
(-0.197598 0.2158 0)
(-0.180491 0.228093 0)
(-0.161106 0.236775 0)
(-0.139616 0.240635 0)
(-0.116412 0.238361 0)
(-0.0921629 0.22862 0)
(-0.0678551 0.210156 0)
(-0.0447846 0.181931 0)
(-0.0244884 0.143259 0)
(-0.00902378 0.0939298 0)
(-0.0014045 0.034353 0)
(-0.00115549 -0.0287014 0)
(-0.00752551 -0.0779941 0)
(-0.0206163 -0.118695 0)
(-0.0380832 -0.150795 0)
(-0.0583671 -0.174665 0)
(-0.0803023 -0.190955 0)
(-0.102866 -0.200502 0)
(-0.125232 -0.20425 0)
(-0.146781 -0.203172 0)
(-0.167086 -0.19821 0)
(-0.185876 -0.190232 0)
(-0.203004 -0.18001 0)
(-0.218422 -0.168205 0)
(-0.232152 -0.155365 0)
(-0.244262 -0.141928 0)
(-0.254849 -0.128233 0)
(-0.264025 -0.114529 0)
(-0.27191 -0.100986 0)
(-0.278617 -0.0877087 0)
(-0.284255 -0.0747467 0)
(-0.28892 -0.0621037 0)
(-0.292696 -0.0497471 0)
(-0.29565 -0.0376156 0)
(-0.297835 -0.0256266 0)
(-0.299286 -0.0136818 0)
(-0.300022 -0.00167385 0)
(-0.300043 0.0105089 0)
(-0.299333 0.0229762 0)
(-0.297853 0.0358302 0)
(-0.295547 0.0491587 0)
(-0.29234 0.0630276 0)
(-0.288134 0.0774723 0)
(-0.282811 0.0924873 0)
(-0.276236 0.108015 0)
(-0.268257 0.123931 0)
(-0.258711 0.140032 0)
(-0.247432 0.156017 0)
(-0.234267 0.171476 0)
(-0.219085 0.185873 0)
(-0.201813 0.198541 0)
(-0.182453 0.208678 0)
(-0.16113 0.215357 0)
(-0.138123 0.217553 0)
(-0.113911 0.214186 0)
(-0.0892082 0.20419 0)
(-0.064989 0.186596 0)
(-0.0424616 0.160637 0)
(-0.022997 0.125844 0)
(-0.00839051 0.0821332 0)
(-0.00128573 0.0299028 0)
(-0.00109155 -0.0249444 0)
(-0.0071776 -0.0679475 0)
(-0.0197903 -0.103689 0)
(-0.0367954 -0.132155 0)
(-0.0567876 -0.153627 0)
(-0.0787049 -0.168604 0)
(-0.101587 -0.177747 0)
(-0.124625 -0.181811 0)
(-0.147189 -0.18159 0)
(-0.168809 -0.177862 0)
(-0.189156 -0.171362 0)
(-0.208023 -0.16275 0)
(-0.225294 -0.152604 0)
(-0.24093 -0.14141 0)
(-0.254943 -0.129564 0)
(-0.267382 -0.117377 0)
(-0.278322 -0.105085 0)
(-0.287846 -0.0928513 0)
(-0.296045 -0.0807837 0)
(-0.303007 -0.0689376 0)
(-0.308813 -0.0573272 0)
(-0.313535 -0.0459323 0)
(-0.31723 -0.0347062 0)
(-0.319945 -0.0235818 0)
(-0.321707 -0.0124775 0)
(-0.322532 -0.00130291 0)
(-0.322414 0.0100357 0)
(-0.321332 0.0216297 0)
(-0.319247 0.0335625 0)
(-0.316101 0.0459028 0)
(-0.311819 0.0586977 0)
(-0.306309 0.0719644 0)
(-0.299465 0.0856809 0)
(-0.291166 0.0997758 0)
(-0.281288 0.114117 0)
(-0.269702 0.128499 0)
(-0.25629 0.142633 0)
(-0.240957 0.156133 0)
(-0.223648 0.168511 0)
(-0.204369 0.179171 0)
(-0.183213 0.187412 0)
(-0.160393 0.192445 0)
(-0.136269 0.193414 0)
(-0.111375 0.189443 0)
(-0.086449 0.179685 0)
(-0.0624347 0.163396 0)
(-0.0404545 0.140013 0)
(-0.0217368 0.10922 0)
(-0.00786464 0.0710115 0)
(-0.00118893 0.0257548 0)
(-0.00104187 -0.0213481 0)
(-0.00690371 -0.0582635 0)
(-0.0191324 -0.0891072 0)
(-0.0357545 -0.113864 0)
(-0.055485 -0.132749 0)
(-0.0773468 -0.146149 0)
(-0.100434 -0.154582 0)
(-0.123962 -0.15865 0)
(-0.147296 -0.158991 0)
(-0.16994 -0.156245 0)
(-0.191525 -0.151021 0)
(-0.211793 -0.143875 0)
(-0.230579 -0.135301 0)
(-0.247791 -0.125719 0)
(-0.263394 -0.115478 0)
(-0.277395 -0.104856 0)
(-0.289832 -0.0940669 0)
(-0.300758 -0.0832636 0)
(-0.31024 -0.0725487 0)
(-0.318344 -0.06198 0)
(-0.325136 -0.0515776 0)
(-0.330674 -0.0413314 0)
(-0.335008 -0.0312065 0)
(-0.338174 -0.0211498 0)
(-0.340195 -0.0110949 0)
(-0.341079 -0.000967561 0)
(-0.340817 0.00930898 0)
(-0.339385 0.0198091 0)
(-0.336742 0.0305991 0)
(-0.332831 0.041731 0)
(-0.327581 0.0532365 0)
(-0.320908 0.065119 0)
(-0.312716 0.077346 0)
(-0.302908 0.0898397 0)
(-0.291381 0.102468 0)
(-0.278045 0.115036 0)
(-0.262827 0.127275 0)
(-0.245686 0.138836 0)
(-0.226629 0.149287 0)
(-0.205734 0.158108 0)
(-0.183167 0.164703 0)
(-0.159208 0.168412 0)
(-0.134276 0.168533 0)
(-0.108941 0.164363 0)
(-0.0839443 0.155237 0)
(-0.0601954 0.14059 0)
(-0.038737 0.120009 0)
(-0.0206774 0.0932869 0)
(-0.00742873 0.0604597 0)
(-0.00110992 0.0218573 0)
(-0.00100333 -0.0178779 0)
(-0.00668895 -0.048868 0)
(-0.0186116 -0.074869 0)
(-0.0349206 -0.0958681 0)
(-0.0544244 -0.112028 0)
(-0.0762138 -0.123649 0)
(-0.0994293 -0.131132 0)
(-0.123311 -0.134951 0)
(-0.147223 -0.135614 0)
(-0.170656 -0.133635 0)
(-0.193212 -0.12951 0)
(-0.214595 -0.123698 0)
(-0.234599 -0.116609 0)
(-0.253091 -0.108598 0)
(-0.269997 -0.0999616 0)
(-0.285288 -0.0909413 0)
(-0.298969 -0.0817232 0)
(-0.311068 -0.0724447 0)
(-0.321626 -0.0631994 0)
(-0.330691 -0.0540427 0)
(-0.338315 -0.0449976 0)
(-0.344542 -0.0360607 0)
(-0.349412 -0.027207 0)
(-0.352954 -0.0183955 0)
(-0.355182 -0.00957351 0)
(-0.356101 -0.000681739 0)
(-0.355698 0.00834128 0)
(-0.353946 0.0175543 0)
(-0.350804 0.0270087 0)
(-0.346218 0.0367425 0)
(-0.34012 0.0467752 0)
(-0.332436 0.0571011 0)
(-0.323085 0.0676825 0)
(-0.311985 0.0784422 0)
(-0.299064 0.0892564 0)
(-0.284261 0.0999469 0)
(-0.267546 0.110275 0)
(-0.248925 0.119937 0)
(-0.22846 0.128561 0)
(-0.206287 0.135709 0)
(-0.182628 0.140886 0)
(-0.157818 0.143553 0)
(-0.132313 0.143145 0)
(-0.106708 0.139107 0)
(-0.0817361 0.130927 0)
(-0.0582725 0.118178 0)
(-0.0372898 0.100562 0)
(-0.019797 0.0779453 0)
(-0.0070706 0.050385 0)
(-0.00104582 0.0181664 0)
(-0.000973731 -0.0145062 0)
(-0.00652263 -0.0396997 0)
(-0.0182052 -0.0609061 0)
(-0.0342636 -0.0781155 0)
(-0.0535778 -0.0914508 0)
(-0.0752918 -0.101138 0)
(-0.0985846 -0.107485 0)
(-0.122717 -0.110856 0)
(-0.147059 -0.111647 0)
(-0.17109 -0.110258 0)
(-0.194392 -0.107084 0)
(-0.216643 -0.10249 0)
(-0.237606 -0.0968063 0)
(-0.257114 -0.0903224 0)
(-0.275062 -0.0832824 0)
(-0.291391 -0.0758856 0)
(-0.306079 -0.0682888 0)
(-0.31913 -0.0606086 0)
(-0.330565 -0.0529264 0)
(-0.340417 -0.0452917 0)
(-0.348722 -0.0377276 0)
(-0.355512 -0.0302347 0)
(-0.360819 -0.022796 0)
(-0.364662 -0.0153806 0)
(-0.367053 -0.00794806 0)
(-0.367989 -0.000452488 0)
(-0.367455 0.00715367 0)
(-0.365423 0.0149155 0)
(-0.361852 0.0228712 0)
(-0.356689 0.0310477 0)
(-0.349875 0.0394558 0)
(-0.341341 0.0480847 0)
(-0.331022 0.0568963 0)
(-0.318853 0.0658198 0)
(-0.304784 0.0747457 0)
(-0.288787 0.08352 0)
(-0.270864 0.0919402 0)
(-0.251063 0.0997522 0)
(-0.229492 0.106649 0)
(-0.206329 0.112276 0)
(-0.181844 0.116234 0)
(-0.156409 0.118095 0)
(-0.130509 0.11742 0)
(-0.104749 0.113781 0)
(-0.0798554 0.106791 0)
(-0.056667 0.0961343 0)
(-0.0360989 0.0815986 0)
(-0.0190806 0.0631007 0)
(-0.00678175 0.0407036 0)
(-0.000994642 0.0146439 0)
(-0.000951545 -0.0112097 0)
(-0.00639712 -0.0307066 0)
(-0.0178966 -0.0471585 0)
(-0.0337611 -0.0605583 0)
(-0.0529235 -0.0709957 0)
(-0.0745686 -0.0786363 0)
(-0.0979052 -0.0837069 0)
(-0.122212 -0.0864771 0)
(-0.146864 -0.0872417 0)
(-0.171336 -0.0863032 0)
(-0.195196 -0.0839581 0)
(-0.218103 -0.0804856 0)
(-0.239795 -0.0761393 0)
(-0.260082 -0.0711427 0)
(-0.278834 -0.0656859 0)
(-0.295968 -0.0599254 0)
(-0.31144 -0.0539854 0)
(-0.325236 -0.0479593 0)
(-0.33736 -0.0419129 0)
(-0.347829 -0.0358875 0)
(-0.356668 -0.0299037 0)
(-0.363901 -0.0239641 0)
(-0.369549 -0.0180575 0)
(-0.373626 -0.0121619 0)
(-0.376139 -0.0062474 0)
(-0.37708 -0.000280158 0)
(-0.376432 0.00577501 0)
(-0.374167 0.0119511 0)
(-0.370243 0.0182754 0)
(-0.364612 0.0247661 0)
(-0.357218 0.031428 0)
(-0.348002 0.038249 0)
(-0.336908 0.045195 0)
(-0.32389 0.0522061 0)
(-0.308916 0.0591919 0)
(-0.291983 0.066028 0)
(-0.273122 0.0725527 0)
(-0.252414 0.0785653 0)
(-0.230001 0.0838265 0)
(-0.206097 0.0880614 0)
(-0.181005 0.0909656 0)
(-0.155125 0.0922153 0)
(-0.128961 0.0914817 0)
(-0.103122 0.0884487 0)
(-0.0783253 0.0828344 0)
(-0.0553801 0.0744132 0)
(-0.0351549 0.0630386 0)
(-0.0185175 0.0486607 0)
(-0.00655627 0.0313376 0)
(-0.000955014 0.011255 0)
(-0.000935708 -0.00796896 0)
(-0.00630707 -0.0218439 0)
(-0.0176743 -0.0335726 0)
(-0.0333968 -0.0431506 0)
(-0.0524456 -0.050639 0)
(-0.0740344 -0.056151 0)
(-0.0973942 -0.0598421 0)
(-0.121817 -0.0618982 0)
(-0.146684 -0.0625231 0)
(-0.171465 -0.0619273 0)
(-0.195722 -0.0603182 0)
(-0.219097 -0.0578919 0)
(-0.241315 -0.0548278 0)
(-0.262167 -0.0512845 0)
(-0.281504 -0.0473979 0)
(-0.299226 -0.0432805 0)
(-0.315273 -0.0390219 0)
(-0.329616 -0.0346903 0)
(-0.342247 -0.0303341 0)
(-0.353172 -0.0259842 0)
(-0.362406 -0.0216566 0)
(-0.369965 -0.0173545 0)
(-0.375864 -0.0130709 0)
(-0.380112 -0.00879116 0)
(-0.38271 -0.00449496 0)
(-0.38365 -0.000159032 0)
(-0.382912 0.00424068 0)
(-0.380466 0.00872655 0)
(-0.376274 0.0133168 0)
(-0.370287 0.0180227 0)
(-0.362454 0.022846 0)
(-0.352724 0.0277757 0)
(-0.341051 0.0327853 0)
(-0.3274 0.0378292 0)
(-0.311756 0.0428403 0)
(-0.294134 0.0477272 0)
(-0.274587 0.0523723 0)
(-0.253221 0.056631 0)
(-0.230202 0.0603319 0)
(-0.205772 0.06328 0)
(-0.180257 0.0652607 0)
(-0.154074 0.0660479 0)
(-0.127741 0.0654138 0)
(-0.101868 0.0631413 0)
(-0.0771632 0.0590389 0)
(-0.0544133 0.052956 0)
(-0.0344514 0.0447972 0)
(-0.0181004 0.0345343 0)
(-0.00639014 0.0222134 0)
(-0.000925992 0.00796795 0)
(-0.000925508 -0.00476644 0)
(-0.00624888 -0.0130711 0)
(-0.0175301 -0.0200993 0)
(-0.0331597 -0.0258484 0)
(-0.0521328 -0.0303542 0)
(-0.073682 -0.0336825 0)
(-0.0970529 -0.0359242 0)
(-0.121547 -0.0371881 0)
(-0.146548 -0.0375941 0)
(-0.171526 -0.0372662 0)
(-0.196036 -0.0363269 0)
(-0.219714 -0.0348928 0)
(-0.242272 -0.0330707 0)
(-0.26349 -0.0309552 0)
(-0.283208 -0.028628 0)
(-0.301315 -0.0261568 0)
(-0.317739 -0.0235957 0)
(-0.332442 -0.0209862 0)
(-0.345406 -0.0183578 0)
(-0.356631 -0.0157296 0)
(-0.366125 -0.0131118 0)
(-0.373898 -0.0105069 0)
(-0.379962 -0.00791094 0)
(-0.384321 -0.00531566 0)
(-0.386975 -0.00270932 0)
(-0.387911 -7.832e-05 0)
(-0.38711 0.00259132 0)
(-0.384542 0.00531256 0)
(-0.380167 0.00809575 0)
(-0.373941 0.010947 0)
(-0.365815 0.0138667 0)
(-0.355743 0.0168473 0)
(-0.343684 0.0198718 0)
(-0.329614 0.022912 0)
(-0.313527 0.0259266 0)
(-0.295451 0.0288597 0)
(-0.275456 0.03164 0)
(-0.253661 0.0341802 0)
(-0.230251 0.0363775 0)
(-0.205484 0.0381153 0)
(-0.179702 0.0392662 0)
(-0.153332 0.0396966 0)
(-0.1269 0.0392725 0)
(-0.101017 0.0378672 0)
(-0.0763817 0.0353699 0)
(-0.0537678 0.0316939 0)
(-0.0339844 0.0267857 0)
(-0.0178247 0.0206314 0)
(-0.00628071 0.0132602 0)
(-0.000906955 0.00475245 0)
(-0.000920511 -0.00158631 0)
(-0.00622031 -0.00435109 0)
(-0.0174592 -0.00669226 0)
(-0.0330428 -0.00860897 0)
(-0.0519781 -0.0101129 0)
(-0.073507 -0.0112258 0)
(-0.0968821 -0.0119775 0)
(-0.12141 -0.0124038 0)
(-0.146475 -0.0125443 0)
(-0.171549 -0.0124399 0)
(-0.196183 -0.0121312 0)
(-0.220008 -0.0116568 0)
(-0.242733 -0.0110522 0)
(-0.264132 -0.0103489 0)
(-0.284038 -0.00957398 0)