/*--------------------------------*- C++ -*----------------------------------*\
  =========                 |
  \\      /  F ield         | OpenFOAM: The Open Source CFD Toolbox
   \\    /   O peration     | Website:  https://openfoam.org
    \\  /    A nd           | Version:  7
     \\/     M anipulation  |
\*---------------------------------------------------------------------------*/
FoamFile
{
    version     2.0;
    format      ascii;
    class       surfaceScalarField;
    location    "0.0656";
    object      phi;
}
// * * * * * * * * * * * * * * * * * * * * * * * * * * * * * * * * * * * * * //

dimensions      [0 3 -1 0 0 0 0];

internalField   nonuniform List<scalar> 
4900
(
-5.5554e-06
5.55539e-06
-1.0161e-05
4.6056e-06
-1.29489e-05
2.78787e-06
-1.46694e-05
1.72053e-06
-1.57723e-05
1.10291e-06
-1.65116e-05
7.39323e-07
-1.70328e-05
5.21124e-07
-1.74176e-05
3.84837e-07
-1.77127e-05
2.9515e-07
-1.79458e-05
2.33028e-07
-1.81338e-05
1.88037e-07
-1.8288e-05
1.54211e-07
-1.8416e-05
1.27963e-07
-1.8523e-05
1.07032e-07
-1.86129e-05
8.99298e-08
-1.86886e-05
7.5637e-08
-1.8752e-05
6.34348e-08
-1.88048e-05
5.28016e-08
-1.88482e-05
4.33493e-08
-1.88829e-05
3.47832e-08
-1.89098e-05
2.68743e-08
-1.89293e-05
1.94405e-08
-1.89416e-05
1.23336e-08
-1.8947e-05
5.4291e-09
-1.89456e-05
-1.38214e-09
-1.89374e-05
-8.19677e-09
-1.89223e-05
-1.51101e-08
-1.89001e-05
-2.22161e-08
-1.88705e-05
-2.96157e-08
-1.88331e-05
-3.74223e-08
-1.87873e-05
-4.57699e-08
-1.87325e-05
-5.4823e-08
-1.86677e-05
-6.47904e-08
-1.85918e-05
-7.59446e-08
-1.85031e-05
-8.86497e-08
-1.83997e-05
-1.03404e-07
-1.82788e-05
-1.20904e-07
-1.81366e-05
-1.42153e-07
-1.7968e-05
-1.68638e-07
-1.77654e-05
-2.02642e-07
-1.75175e-05
-2.47817e-07
-1.72073e-05
-3.10255e-07
-1.68067e-05
-4.0054e-07
-1.6269e-05
-5.3772e-07
-1.55127e-05
-7.56282e-07
-1.43968e-05
-1.11592e-06
-1.26818e-05
-1.71505e-06
-9.94602e-06
-2.73575e-06
-5.45249e-06
-4.49354e-06
-5.45249e-06
-1.19009e-08
5.5673e-06
-2.13074e-06
6.72445e-06
-4.85842e-06
5.51554e-06
-7.27653e-06
4.13864e-06
-9.21599e-06
3.04236e-06
-1.07295e-05
2.25281e-06
-1.19102e-05
1.70189e-06
-1.28412e-05
1.31584e-06
-1.35858e-05
1.03975e-06
-1.41899e-05
8.37127e-07
-1.46863e-05
6.84433e-07
-1.50985e-05
5.6639e-07
-1.54435e-05
4.7293e-07
-1.57337e-05
3.97262e-07
-1.59785e-05
3.34695e-07
-1.61847e-05
2.81905e-07
-1.63578e-05
2.36486e-07
-1.65016e-05
1.96657e-07
-1.66194e-05
1.61074e-07
-1.67133e-05
1.28704e-07
-1.67852e-05
9.87343e-08
-1.68362e-05
7.05146e-08
-1.68674e-05
4.35109e-08
-1.68792e-05
1.72721e-08
-1.6872e-05
-8.59527e-09
-1.68458e-05
-3.44503e-08
-1.68003e-05
-6.0635e-08
-1.6735e-05
-8.74935e-08
-1.66492e-05
-1.15391e-07
-1.65419e-05
-1.44738e-07
-1.64116e-05
-1.7601e-07
-1.62567e-05
-2.09792e-07
-1.60747e-05
-2.46812e-07
-1.58626e-05
-2.88011e-07
-1.56166e-05
-3.34627e-07
-1.53317e-05
-3.88321e-07
-1.50012e-05
-4.51367e-07
-1.46165e-05
-5.26935e-07
-1.41656e-05
-6.19535e-07
-1.36325e-05
-7.35726e-07
-1.29951e-05
-8.85235e-07
-1.22226e-05
-1.08276e-06
-1.12724e-05
-1.35074e-06
-1.00866e-05
-1.72343e-06
-8.59152e-06
-2.25139e-06
-6.70694e-06
-3.00051e-06
-4.39325e-06
-4.02874e-06
-1.81864e-06
-5.31036e-06
1.24314e-07
-6.43649e-06
-5.32817e-06
1.03239e-06
4.53491e-06
5.4665e-07
7.21018e-06
-9.93116e-07
7.05531e-06
-2.88954e-06
6.03507e-06
-4.74886e-06
4.90168e-06
-6.41054e-06
3.91449e-06
-7.83515e-06
3.1265e-06
-9.03572e-06
2.51641e-06
-1.00426e-05
2.04659e-06
-1.08878e-05
1.68238e-06
-1.15999e-05
1.39646e-06
-1.2202e-05
1.16851e-06
-1.27128e-05
9.83719e-07
-1.31468e-05
8.31316e-07
-1.35156e-05
7.03433e-07
-1.38279e-05
5.94249e-07
-1.40908e-05
4.99406e-07
-1.43098e-05
4.1559e-07
-1.44889e-05
3.40249e-07
-1.46316e-05
2.71382e-07
-1.47403e-05
2.07399e-07
-1.48168e-05
1.47008e-07
-1.48624e-05
8.91393e-08
-1.4878e-05
3.28839e-08
-1.4864e-05
-2.25558e-08
-1.48206e-05
-7.79082e-08
-1.47474e-05
-1.33867e-07
-1.46437e-05
-1.91126e-07
-1.45087e-05
-2.50418e-07
-1.43409e-05
-3.12554e-07
-1.41384e-05
-3.78471e-07
-1.38989e-05
-4.49292e-07
-1.36193e-05
-5.26408e-07
-1.32958e-05
-6.11574e-07
-1.29233e-05
-7.07057e-07
-1.24958e-05
-8.15826e-07
-1.20054e-05
-9.41822e-07
-1.1442e-05
-1.09035e-06
-1.07929e-05
-1.2686e-06
-1.00422e-05
-1.48642e-06
-9.17011e-06
-1.75733e-06
-8.15312e-06
-2.09974e-06
-6.96576e-06
-2.53811e-06
-5.58628e-06
-3.10291e-06
-4.01136e-06
-3.82631e-06
-2.28773e-06
-4.72414e-06
-5.72578e-07
-5.74389e-06
7.66851e-07
-6.64979e-06
1.08779e-06
-6.75743e-06
-4.24039e-06
9.06122e-07
3.62879e-06
1.22764e-06
6.88866e-06
6.41243e-07
7.64171e-06
-5.27217e-07
7.20353e-06
-1.94883e-06
6.32329e-06
-3.40533e-06
5.37099e-06
-4.77972e-06
4.50088e-06
-6.02218e-06
3.75888e-06
-7.12013e-06
3.14454e-06
-8.07888e-06
2.64114e-06
-8.911e-06
2.22858e-06
-9.63087e-06
1.88839e-06
-1.02523e-05
1.60513e-06
-1.07874e-05
1.36648e-06
-1.12467e-05
1.16273e-06
-1.16388e-05
9.86302e-07
-1.19707e-05
8.31281e-07
-1.22481e-05
6.93007e-07
-1.24756e-05
5.67789e-07
-1.26569e-05
4.52668e-07
-1.27948e-05
3.45247e-07
-1.28913e-05
2.43553e-07
-1.29481e-05
1.45929e-07
-1.29662e-05
5.09555e-08
-1.29461e-05
-4.26195e-08
-1.28881e-05
-1.3594e-07
-1.27918e-05
-2.30095e-07
-1.26568e-05
-3.26166e-07
-1.24819e-05
-4.25284e-07
-1.22658e-05
-5.28683e-07
-1.20065e-05
-6.37766e-07
-1.17016e-05
-7.54189e-07
-1.13481e-05
-8.79954e-07
-1.09421e-05
-1.01754e-06
-1.04791e-05
-1.17006e-06
-9.95347e-06
-1.34146e-06
-9.35848e-06
-1.53681e-06
-8.68622e-06
-1.76261e-06
-7.92763e-06
-2.02719e-06
-7.07291e-06
-2.34114e-06
-6.11264e-06
-2.71761e-06
-5.04021e-06
-3.17217e-06
-3.85696e-06
-3.72136e-06
-2.5817e-06
-4.37818e-06
-1.26747e-06
-5.14054e-06
-2.65791e-08
-5.96503e-06
9.42821e-07
-6.71329e-06
1.34943e-06
-7.0564e-06
9.17057e-07
-6.32505e-06
-3.32333e-06
6.71415e-07
2.95737e-06
1.24221e-06
6.31787e-06
1.22027e-06
7.66365e-06
6.46349e-07
7.77744e-06
-2.92066e-07
7.26171e-06
-1.41261e-06
6.49154e-06
-2.58289e-06
5.67117e-06
-3.72156e-06
4.89754e-06
-4.78509e-06
4.20807e-06
-5.75414e-06
3.61019e-06
-6.62341e-06
3.09785e-06
-7.39507e-06
2.66005e-06
-8.07481e-06
2.28487e-06
-8.66958e-06
1.96126e-06
-9.18646e-06
1.6796e-06
-9.63199e-06
1.43183e-06
-1.0012e-05
1.21128e-06
-1.03314e-05
1.01246e-06
-1.05945e-05
8.30875e-07
-1.08047e-05
6.62815e-07
-1.09646e-05
5.05203e-07
-1.10765e-05
3.5546e-07
-1.1142e-05
2.11391e-07
-1.11621e-05
7.10908e-08
-1.11376e-05
-6.71285e-08
-1.10688e-05
-2.04813e-07
-1.09554e-05
-3.43429e-07
-1.07972e-05
-4.84424e-07
-1.05932e-05
-6.29288e-07
-1.03422e-05
-7.79623e-07
-1.00428e-05
-9.37218e-07
-9.69283e-06
-1.10413e-06
-9.28999e-06
-1.28279e-06
-8.8314e-06
-1.47613e-06
-8.31377e-06
-1.68769e-06
-7.73341e-06
-1.92182e-06
-7.08639e-06
-2.18383e-06
-6.36884e-06
-2.48016e-06
-5.57761e-06
-2.81842e-06
-4.71141e-06
-3.20734e-06
-3.77289e-06
-3.65613e-06
-2.7721e-06
-4.17296e-06
-1.73209e-06
-4.76137e-06
-6.9722e-07
-5.41305e-06
2.56099e-07
-6.09386e-06
1.00987e-06
-6.7188e-06
1.4077e-06
-7.11112e-06
1.29722e-06
-6.94591e-06
6.66591e-07
-5.69443e-06
-2.65674e-06
4.79963e-07
2.47741e-06
1.07436e-06
5.72347e-06
1.33727e-06
7.40074e-06
1.16823e-06
7.94648e-06
6.34918e-07
7.79502e-06
-1.44063e-07
7.27052e-06
-1.05667e-06
6.58378e-06
-2.01754e-06
5.85841e-06
-2.96905e-06
5.15958e-06
-3.87593e-06
4.51707e-06
-4.71864e-06
3.94056e-06
-5.48795e-06
3.42935e-06
-6.1809e-06
2.97782e-06
-6.79817e-06
2.57853e-06
-7.34234e-06
2.22377e-06
-7.81682e-06
1.90631e-06
-8.22523e-06
1.6197e-06
-8.57109e-06
1.35831e-06
-8.85755e-06
1.11733e-06
-9.08738e-06
8.92646e-07
-9.26291e-06
6.80732e-07
-9.38603e-06
4.78581e-07
-9.45822e-06
2.83581e-07
-9.48057e-06
9.3443e-08
-9.45381e-06
-9.38822e-08
-9.37835e-06
-2.80273e-07
-9.25428e-06
-4.67505e-07
-9.08139e-06
-6.57313e-07
-8.85922e-06
-8.51459e-07
-8.58704e-06
-1.0518e-06
-8.26391e-06
-1.26035e-06
-7.88866e-06
-1.47938e-06
-7.45997e-06
-1.71148e-06
-6.97645e-06
-1.95965e-06
-6.43672e-06
-2.22741e-06
-5.83972e-06
-2.51882e-06
-5.18498e-06
-2.83857e-06
-4.47331e-06
-3.19183e-06
-3.70768e-06
-3.58405e-06
-2.89475e-06
-4.02027e-06
-2.04706e-06
-4.50382e-06
-1.18624e-06
-5.03377e-06
-3.47235e-07
-5.60037e-06
4.16958e-07
-6.17724e-06
1.0317e-06
-6.7086e-06
1.40322e-06
-7.09032e-06
1.43726e-06
-7.14516e-06
1.08966e-06
-6.59831e-06
4.69697e-07
-5.07446e-06
-2.18704e-06
3.47541e-07
2.12987e-06
8.88782e-07
5.18223e-06
1.27248e-06
7.01704e-06
1.35124e-06
7.86772e-06
1.11742e-06
8.02884e-06
6.31062e-07
7.75688e-06
-2.85915e-08
7.24343e-06
-7.88119e-07
6.61793e-06
-1.5894e-06
5.96087e-06
-2.39051e-06
5.31817e-06
-3.16329e-06
4.71334e-06
-3.89008e-06
4.15614e-06
-4.56064e-06
3.64838e-06
-5.1697e-06
3.18759e-06
-5.7152e-06
2.76927e-06
-6.19704e-06
2.38814e-06
-6.6162e-06
2.03886e-06
-6.97424e-06
1.71636e-06
-7.27294e-06
1.41603e-06
-7.51405e-06
1.13376e-06
-7.69921e-06
8.65898e-07
-7.82987e-06
6.09231e-07
-7.9072e-06
3.60919e-07
-7.93219e-06
1.18431e-07
-7.90556e-06
-1.20517e-07
-7.82781e-06
-3.58024e-07
-7.69925e-06
-5.96066e-07
-7.52e-06
-8.36553e-07
-7.29008e-06
-1.08139e-06
-7.00934e-06
-1.33253e-06
-6.67765e-06
-1.59205e-06
-6.29485e-06
-1.86218e-06
-5.86094e-06
-2.14538e-06
-5.37621e-06
-2.44439e-06
-4.84144e-06
-2.76218e-06
-4.25825e-06
-3.10201e-06
-3.62963e-06
-3.46719e-06
-2.96059e-06
-3.86087e-06
-2.25919e-06
-4.28544e-06
-1.53796e-06
-4.7415e-06
-8.15693e-07
-5.22609e-06
-1.19643e-07
-5.72982e-06
5.12241e-07
-6.23226e-06
1.03002e-06
-6.69502e-06
1.37349e-06
-7.05206e-06
1.48077e-06
-7.1976e-06
1.30998e-06
-6.97437e-06
8.80477e-07
-6.16881e-06
3.35474e-07
-4.52946e-06
-1.85157e-06
2.60138e-07
1.86973e-06
7.30644e-07
4.71173e-06
1.14909e-06
6.59859e-06
1.36733e-06
7.64948e-06
1.33896e-06
8.05721e-06
1.08151e-06
8.01432e-06
6.42597e-07
7.68235e-06
7.73627e-08
7.18317e-06
-5.63437e-07
6.60167e-06
-1.23835e-06
5.99308e-06
-1.91596e-06
5.39095e-06
-2.57374e-06
4.81393e-06
-3.19634e-06
4.27098e-06
-3.77376e-06
3.76501e-06
-4.29986e-06
3.29537e-06
-4.7712e-06
2.85948e-06
-5.18609e-06
2.45376e-06
-5.54404e-06
2.0743e-06
-5.8452e-06
1.7172e-06
-6.09018e-06
1.37873e-06
-6.27972e-06
1.05544e-06
-6.41466e-06
7.44172e-07
-6.49581e-06
4.4207e-07
-6.52392e-06
1.4654e-07
-6.49965e-06
-1.44785e-07
-6.42359e-06
-4.34085e-07
-6.29625e-06
-7.23401e-07
-6.11812e-06
-1.01468e-06
-5.88969e-06
-1.30983e-06
-5.61149e-06
-1.61073e-06
-5.28421e-06
-1.91932e-06
-4.90881e-06
-2.23758e-06
-4.4866e-06
-2.56759e-06
-4.01952e-06
-2.91146e-06
-3.51038e-06
-3.27133e-06
-2.96324e-06
-3.64916e-06
-2.3839e-06
-4.04653e-06
-1.78063e-06
-4.46414e-06
-1.16499e-06
-4.90109e-06
-5.52902e-07
-5.35358e-06
3.41541e-08
-5.81315e-06
5.68117e-07
-6.26378e-06
1.01387e-06
-6.67801e-06
1.33041e-06
-7.01156e-06
1.47529e-06
-7.19694e-06
1.41476e-06
-7.13707e-06
1.1424e-06
-6.70201e-06
7.07346e-07
-5.73376e-06
2.47097e-07
-4.06921e-06
-1.60447e-06
2.01819e-07
1.66791e-06
6.05384e-07
4.30816e-06
1.01737e-06
6.1866e-06
1.30674e-06
7.36011e-06
1.41181e-06
7.95215e-06
1.32343e-06
8.1027e-06
1.06411e-06
7.94168e-06
6.70745e-07
7.57653e-06
1.83302e-07
7.08911e-06
-3.61542e-07
6.53793e-06
-9.33078e-07
5.96249e-06
-1.50713e-06
5.38798e-06
-2.0655e-06
4.82935e-06
-2.595e-06
4.29451e-06
-3.08641e-06
3.78678e-06
-3.53346e-06
3.30653e-06
-3.93211e-06
2.85241e-06
-4.27987e-06
2.42206e-06
-4.57534e-06
2.01267e-06
-4.81786e-06
1.62125e-06
-5.00726e-06
1.24484e-06
-5.14369e-06
8.80603e-07
-5.22749e-06
5.25874e-07
-5.25914e-06
1.78184e-07
-5.23918e-06
-1.64747e-07
-5.16823e-06
-5.0503e-07
-5.047e-06
-8.44629e-07
-4.8763e-06
-1.18538e-06
-4.65708e-06
-1.52904e-06
-4.39053e-06
-1.87728e-06
-4.07815e-06
-2.2317e-06
-3.72187e-06
-2.59386e-06
-3.32424e-06
-2.96522e-06
-2.88864e-06
-3.34707e-06
-2.41954e-06
-3.74042e-06
-1.9229e-06
-4.1458e-06
-1.40659e-06
-4.56284e-06
-8.8094e-07
-4.98979e-06
-3.59389e-07
-5.42264e-06
1.40901e-07
-5.85387e-06
5.98513e-07
-6.27076e-06
9.87673e-07
-6.65294e-06
1.27903e-06
-6.96937e-06
1.44212e-06
-7.17466e-06
1.45062e-06
-7.20544e-06
1.29154e-06
-6.97799e-06
9.79058e-07
-6.38954e-06
5.71853e-07
-5.32655e-06
1.87956e-07
-3.68531e-06
-1.41652e-06
1.61612e-07
1.5063e-06
5.07855e-07
3.96192e-06
8.95578e-07
5.79888e-06
1.21508e-06
7.04061e-06
1.40235e-06
7.76488e-06
1.43362e-06
8.07142e-06
1.31369e-06
8.06161e-06
1.06404e-06
7.82617e-06
7.13517e-07
7.43964e-06
2.9206e-07
6.95938e-06
-1.72817e-07
6.42736e-06
-6.57636e-07
5.8728e-06
-1.14336e-06
5.31507e-06
-1.61511e-06
4.76626e-06
-2.06163e-06
4.2333e-06
-2.47462e-06
3.71952e-06
-2.8481e-06
3.22589e-06
-3.1779e-06
2.75186e-06
-3.46119e-06
2.29596e-06
-3.69615e-06
1.85621e-06
-3.88169e-06
1.43038e-06
-4.01725e-06
1.01617e-06
-4.10269e-06
6.1131e-07
-4.13815e-06
2.13642e-07
-4.12402e-06
-1.78871e-07
-4.06093e-06
-5.68121e-07
-3.94971e-06
-9.5585e-07
-3.79144e-06
-1.34366e-06
-3.58749e-06
-1.733e-06
-3.33958e-06
-2.12518e-06
-3.04992e-06
-2.52136e-06
-2.72129e-06
-2.9225e-06
-2.35722e-06
-3.32929e-06
-1.9622e-06
-3.74208e-06
-1.54196e-06
-4.16066e-06
-1.10372e-06
-4.58403e-06
-6.56581e-07
-5.00998e-06
-2.11888e-07
-5.43449e-06
2.16418e-07
-5.85094e-06
6.11542e-07
-6.24899e-06
9.53856e-07
-6.61307e-06
1.22144e-06
-6.92052e-06
1.39154e-06
-7.13947e-06
1.44347e-06
-7.22659e-06
1.36353e-06
-7.1255e-06
1.15234e-06
-6.7668e-06
8.34245e-07
-6.07144e-06
4.66982e-07
-4.95929e-06
1.47012e-07
-3.36534e-06
-1.2695e-06
1.32789e-07
1.37351e-06
4.31495e-07
3.66321e-06
7.88603e-07
5.44177e-06
1.11441e-06
6.7148e-06
1.34888e-06
7.53041e-06
1.46158e-06
7.95872e-06
1.44594e-06
8.07725e-06
1.31168e-06
7.96043e-06
1.07778e-06
7.67354e-06
7.67087e-07
7.27008e-06
4.02714e-07
6.79174e-06
5.92626e-09
6.26959e-06
-4.04856e-07
5.72585e-06
-8.14355e-07
5.17576e-06
-1.2103e-06
4.62924e-06
-1.58308e-06
4.0923e-06
-1.92537e-06
3.56818e-06
-2.23168e-06
3.05816e-06
-2.498e-06
2.56228e-06
-2.72149e-06
2.0797e-06
-2.90023e-06
1.60912e-06
-3.03302e-06
1.14895e-06
-3.11919e-06
6.97484e-07
-3.15857e-06
2.53024e-07
-3.15137e-06
-1.86076e-07
-3.09814e-06
-6.21349e-07
-2.9998e-06
-1.05419e-06
-2.85762e-06
-1.48583e-06
-2.67329e-06
-1.91733e-06
-2.44897e-06
-2.3495e-06
-2.18738e-06
-2.78295e-06
-1.89195e-06
-3.21793e-06
-1.56692e-06
-3.65432e-06
-1.21755e-06
-4.09144e-06
-8.50339e-07
-4.52788e-06
-4.73204e-07
-4.96117e-06
-9.57468e-08
-5.38743e-06
2.70555e-07
-5.80079e-06
6.12231e-07
-6.19262e-06
9.13873e-07
-6.55064e-06
1.15852e-06
-6.85772e-06
1.32857e-06
-7.09057e-06
1.40747e-06
-7.21837e-06
1.38253e-06
-7.20165e-06
1.24904e-06
-6.99201e-06
1.01564e-06
-6.5334e-06
7.10301e-07
-5.7661e-06
3.85225e-07
-4.63421e-06
1.17574e-07
-3.09769e-06
-1.15193e-06
1.11307e-07
1.2622e-06
3.70761e-07
3.40376e-06
6.96187e-07
5.11634e-06
1.01482e-06
6.39617e-06
1.27306e-06
7.27217e-06
1.43868e-06
7.79311e-06
1.49847e-06
8.01745e-06
1.45381e-06
8.00509e-06
1.31569e-06
7.81165e-06
1.10046e-06
7.48532e-06
8.26494e-07
7.0657e-06
5.12086e-07
6.584e-06
1.74062e-07
6.06387e-06
-1.72835e-07
5.52266e-06
-5.16167e-07
4.97257e-06
-8.45735e-07
4.42187e-06
-1.15338e-06
3.87582e-06
-1.43271e-06
3.3375e-06
-1.67884e-06
2.80841e-06
-1.88812e-06
2.28898e-06
-2.05792e-06
1.77892e-06
-2.18644e-06
1.27747e-06
-2.27258e-06
7.83629e-07
-2.31583e-06
2.96277e-07
-2.31619e-06
-1.85715e-07
-2.27413e-06
-6.63414e-07
-2.19056e-06
-1.13776e-06
-2.06688e-06
-1.60952e-06
-1.90497e-06
-2.07924e-06
-1.70728e-06
-2.54719e-06
-1.47689e-06
-3.01333e-06
-1.21764e-06
-3.47719e-06
-9.34206e-07
-3.93776e-06
-6.32274e-07
-4.39338e-06
-3.18678e-07
-4.84147e-06
-1.53924e-09
-5.27831e-06
3.09613e-07
-5.69859e-06
6.03793e-07
-6.09497e-06
8.68622e-07
-6.45745e-06
1.0906e-06
-6.77262e-06
1.25571e-06
-7.02282e-06
1.35043e-06
-7.1853e-06
1.36348e-06
-7.23141e-06
1.28817e-06
-7.12634e-06
1.12569e-06
-6.82953e-06
8.88769e-07
-6.29649e-06
6.05317e-07
-5.48264e-06
3.20521e-07
-4.34942e-06
9.56202e-08
-2.87279e-06
-1.05631e-06
9.47082e-08
1.16749e-06
3.21478e-07
3.17699e-06
6.16384e-07
4.82144e-06
9.20397e-07
6.09216e-06
1.18691e-06
7.00566e-06
1.38457e-06
7.59545e-06
1.49684e-06
7.90518e-06
1.51957e-06
7.98237e-06
1.45768e-06
7.87354e-06
1.322e-06
7.621e-06
1.12646e-06
7.26124e-06
8.86098e-07
6.82435e-06
6.15647e-07
6.33433e-06
3.28669e-07
5.80964e-06
3.71337e-08
5.26411e-06
-2.48738e-07
4.70774e-06
-5.2045e-07
4.14753e-06
-7.71105e-07
3.58815e-06
-9.95227e-07
3.03253e-06
-1.18858e-06
2.48233e-06
-1.34798e-06
1.93832e-06
-1.47117e-06
1.40066e-06
-1.55664e-06
8.691e-07
-1.60358e-06
3.43212e-07
-1.61175e-06
-1.77537e-07
-1.58151e-06
-6.93654e-07
-1.51373e-06
-1.20554e-06
-1.40982e-06
-1.71343e-06
-1.27176e-06
-2.2173e-06
-1.10213e-06
-2.71682e-06
-9.04217e-07
-3.21125e-06
-6.82026e-07
-3.69938e-06
-4.40421e-07
-4.17936e-06
-1.85205e-07
-4.64859e-06
7.67915e-08
-5.10347e-06
3.37641e-07
-5.53916e-06
5.88298e-07
-5.94924e-06
8.18663e-07
-6.32533e-06
1.01777e-06
-6.65656e-06
1.1742e-06
-6.92905e-06
1.27674e-06
-7.12536e-06
1.31543e-06
-7.22399e-06
1.2831e-06
-7.19908e-06
1.17732e-06
-7.02056e-06
1.00277e-06
-6.65498e-06
7.73771e-07
-6.06749e-06
5.16242e-07
-5.22511e-06
2.68366e-07
-4.10154e-06
7.86966e-08
-2.68312e-06
-9.77613e-07
8.14606e-08
1.08603e-06
2.80619e-07
2.97783e-06
5.46942e-07
4.55511e-06
8.32353e-07
5.80674e-06
1.09689e-06
6.74112e-06
1.31146e-06
7.38088e-06
1.45831e-06
7.75832e-06
1.5299e-06
7.91078e-06
1.52681e-06
7.87663e-06
1.45544e-06
7.69238e-06
1.32582e-06
7.39086e-06
1.14985e-06
7.00032e-06
9.39955e-07
6.54422e-06
7.08169e-07
6.04142e-06
4.65558e-07
5.50672e-06
2.21929e-07
4.95137e-06
-1.42863e-08
4.38375e-06
-2.36024e-07
3.80989e-06
-4.37507e-07
3.23401e-06
-6.14131e-07
2.65896e-06
-7.62337e-07
2.08653e-06
-8.7949e-07
1.51781e-06
-9.6377e-07
9.5338e-07
-1.01409e-06
3.93527e-07
-1.03e-06
-1.61619e-07
-1.01171e-06
-7.1195e-07
-9.59973e-07
-1.25728e-06
-8.76159e-07
-1.79725e-06
-7.62233e-07
-2.33123e-06
-6.20795e-07
-2.85825e-06
-4.55127e-07
-3.37692e-06
-2.6925e-07
-3.88526e-06
-6.79779e-08
-4.38064e-06
1.43021e-07
-4.85959e-06
3.57187e-07
-5.31764e-06
5.67067e-07
-5.74904e-06
7.64359e-07
-6.14654e-06
9.40059e-07
-6.50103e-06
1.08473e-06
-6.80123e-06
1.18894e-06
-7.03326e-06
1.24398e-06
-7.1804e-06
1.24278e-06
-7.22279e-06
1.18122e-06
-7.13751e-06
1.05963e-06
-6.89898e-06
8.84571e-07
-6.47992e-06
6.70339e-07
-5.85326e-06
4.40048e-07
-4.99482e-06
2.25499e-07
-3.88699e-06
6.52575e-08
-2.52288e-06
-9.12356e-07
7.05766e-08
1.01546e-06
2.4601e-07
2.8024e-06
4.85797e-07
4.31533e-06
7.50585e-07
5.54196e-06
1.00636e-06
6.48535e-06
1.22687e-06
7.16038e-06
1.39448e-06
7.59071e-06
1.49981e-06
7.80545e-06
1.54046e-06
7.83597e-06
1.51948e-06
7.71336e-06
1.44363e-06
7.4667e-06
1.322e-06
7.12195e-06
1.16474e-06
6.70148e-06
9.8218e-07
6.22398e-06
7.84246e-07
5.70465e-06
5.80025e-07
5.15559e-06
3.7758e-07
4.58619e-06
1.83859e-07
4.00361e-06
4.69326e-09
3.41318e-06
-1.55147e-07
2.8188e-06
-2.91879e-07
2.22326e-06
-4.02622e-07
1.62855e-06
-4.85314e-07
1.03607e-06
-5.38636e-07
4.46849e-07
-5.61957e-07
-1.38298e-07
-5.55289e-07
-7.18618e-07
-5.19264e-07
-1.2933e-06
-4.55125e-07
-1.86138e-06
-3.6473e-07
-2.42162e-06
-2.50576e-07
-2.97241e-06
-1.15823e-07
-3.51167e-06
3.56701e-08
-4.03675e-06
1.99312e-07
-4.54428e-06
3.69761e-07
-5.03004e-06
5.40924e-07
-5.4888e-06
7.05996e-07
-5.91411e-06
8.57566e-07
-6.29811e-06
9.87797e-07
-6.63126e-06
1.08874e-06
-6.90216e-06
1.15277e-06
-7.09729e-06
1.17324e-06
-7.20088e-06
1.14534e-06
-7.19488e-06
1.06705e-06
-7.05923e-06
9.4042e-07
-6.77234e-06
7.72669e-07
-6.31217e-06
5.77211e-07
-5.6578e-06
3.74097e-07
-4.79171e-06
1.89557e-07
-3.70245e-06
5.42943e-08
-2.38762e-06
-8.58061e-07
6.13978e-08
9.54059e-07
2.16077e-07
2.64772e-06
4.31219e-07
4.10019e-06
6.74447e-07
5.29873e-06
9.1694e-07
6.24285e-06
1.13543e-06
6.94188e-06
1.31318e-06
7.41296e-06
1.44003e-06
7.67861e-06
1.5117e-06
7.7643e-06
1.52878e-06
7.69629e-06
1.49544e-06
7.50004e-06
1.41833e-06
7.19906e-06
1.30551e-06
6.81431e-06
1.16562e-06
6.36387e-06
1.00731e-06
5.86297e-06
8.38761e-07
5.32414e-06
6.67462e-07
4.75749e-06
5.00024e-07
4.17105e-06
3.42136e-07
3.57107e-06
1.98557e-07
2.96238e-06
7.3147e-08
2.34867e-06
-3.1078e-08
1.73278e-06
-1.11892e-07
1.11689e-06
-1.678e-07
5.02757e-07
-1.97992e-07
-1.08106e-07
-2.02306e-07
-7.14304e-07
-1.812e-07
-1.31441e-06
-1.35745e-07
-1.90684e-06
-6.76186e-08
-2.48975e-06
2.08839e-08
-3.06091e-06
1.26835e-07
-3.61762e-06
2.46661e-07
-4.15657e-06
3.76133e-07
-4.67375e-06
5.10368e-07
-5.16427e-06
6.43865e-07
-5.6223e-06
7.70573e-07
-6.04082e-06
8.84019e-07
-6.41155e-06
9.77519e-07
-6.72476e-06
1.04448e-06
-6.96913e-06
1.07884e-06
-7.13165e-06
1.07561e-06
-7.19765e-06
1.03161e-06
-7.15088e-06
9.46239e-07
-6.97386e-06
8.22394e-07
-6.6485e-06
6.67248e-07
-6.15702e-06
4.92842e-07
-5.4834e-06
3.16209e-07
-4.61508e-06
1.58817e-07
-3.54506e-06
4.51252e-08
-2.27392e-06
-8.12936e-07
5.34715e-08
9.00587e-07
1.89674e-07
2.51151e-06
3.81804e-07
3.90806e-06
6.03128e-07
5.0774e-06
8.29297e-07
6.01669e-06
1.03996e-06
6.73122e-06
1.21969e-06
7.23322e-06
1.35828e-06
7.54002e-06
1.45037e-06
7.6722e-06
1.49484e-06
7.65182e-06
1.49387e-06
7.501e-06
1.45211e-06
7.24083e-06
1.37573e-06
6.89068e-06
1.27182e-06
6.46778e-06
1.14772e-06
5.98707e-06
1.01062e-06
5.46124e-06
8.67288e-07
4.90082e-06
7.23853e-07
4.31448e-06
5.85703e-07
3.70922e-06
4.57443e-07
3.09064e-06
3.42887e-07
2.46323e-06
2.45084e-07
1.83058e-06
1.66348e-07
1.19562e-06
1.08299e-07
5.60806e-07
7.18973e-08
-7.17045e-08
5.74794e-08
-6.99886e-07
6.47762e-08
-1.32171e-06
9.29297e-08
-1.93499e-06
1.40499e-07
-2.53732e-06
2.05462e-07
-3.12587e-06
2.85208e-07
-3.69737e-06
3.76543e-07
-4.24791e-06
4.75692e-07
-4.7729e-06
5.78325e-07
-5.26691e-06
6.79602e-07
-5.72357e-06
7.74267e-07
-6.13548e-06
8.56782e-07
-6.49407e-06
9.21538e-07
-6.78952e-06
9.63145e-07
-7.01073e-06
9.76815e-07
-7.14532e-06
9.58848e-07
-7.17968e-06
9.07199e-07
-7.09923e-06
8.22116e-07
-6.88878e-06
7.06774e-07
-6.53316e-06
5.6782e-07
-6.01807e-06
4.15703e-07
-5.33128e-06
2.64628e-07
-4.464e-06
1.32003e-07
-3.41243e-06
3.72742e-08
-2.1792e-06
-7.75662e-07
4.64779e-08
8.5411e-07
1.65954e-07
2.39204e-06
3.36437e-07
3.73757e-06
5.35819e-07
4.87802e-06
7.43597e-07
5.80891e-06
9.42155e-07
6.53267e-06
1.11761e-06
7.05777e-06
1.26013e-06
7.3975e-06
1.36391e-06
7.56843e-06
1.42669e-06
7.58904e-06
1.4492e-06
7.47849e-06
1.43444e-06
7.25559e-06
1.38705e-06
6.93808e-06
1.31263e-06
6.54219e-06
1.21731e-06
6.0824e-06
1.10726e-06
5.57128e-06
9.88457e-07
5.01962e-06
8.66443e-07
4.4365e-06
7.46192e-07
3.82947e-06
6.32042e-07
3.20479e-06
5.27662e-07
2.56761e-06
4.36043e-07
1.9222e-06
3.59517e-07
1.27215e-06
2.9978e-07
6.20544e-07
2.57914e-07
-2.98386e-08
2.34416e-07
-6.76388e-07
2.29216e-07
-1.31651e-06
2.41691e-07
-1.94747e-06
2.70678e-07
-2.5663e-06
3.14475e-07
-3.16967e-06
3.70854e-07
-3.75375e-06
4.37061e-07
-4.31412e-06
5.09838e-07
-4.84568e-06
5.85457e-07
-5.34253e-06
6.59775e-07
-5.79789e-06
7.28328e-07
-6.20404e-06
7.8647e-07
-6.55221e-06
8.29567e-07
-6.83262e-06
8.53256e-07
-7.03442e-06
8.53777e-07
-7.14584e-06
8.28378e-07
-7.15428e-06
7.75766e-07
-7.04662e-06
6.96597e-07
-6.80961e-06
5.93933e-07
-6.43049e-06
4.73611e-07
-5.89775e-06
3.44413e-07
-5.20208e-06
2.17949e-07
-4.33754e-06
1.0816e-07
-3.30265e-06
3.04002e-08
-2.10144e-06
-7.45262e-07
4.01859e-08
8.13924e-07
1.44283e-07
2.28794e-06
2.94235e-07
3.58762e-06
4.71785e-07
4.70047e-06
6.59752e-07
5.62094e-06
8.43049e-07
6.34937e-06
1.00939e-06
6.89143e-06
1.14967e-06
7.25721e-06
1.258e-06
7.4601e-06
1.33148e-06
7.51557e-06
1.36979e-06
7.44019e-06
1.37468e-06
7.25069e-06
1.34948e-06
6.96328e-06
1.29853e-06
6.59314e-06
1.2268e-06
6.15413e-06
1.13949e-06
5.65859e-06
1.04176e-06
5.11736e-06
9.38486e-07
4.53977e-06
8.34169e-07
3.93379e-06
7.32795e-07
3.30616e-06
6.378e-07
2.6626e-06
5.52048e-07
2.00795e-06
4.77827e-07
1.34637e-06
4.16859e-07
6.81512e-07
3.70316e-07
1.67043e-08
3.3884e-07
-6.44911e-07
3.22555e-07
-1.30022e-06
3.21089e-07
-1.946e-06
3.33576e-07
-2.57879e-06
3.58673e-07
-3.19477e-06
3.94566e-07
-3.78964e-06
4.38983e-07
-4.35853e-06
4.8922e-07
-4.89591e-06
5.42172e-07
-5.39548e-06
5.94398e-07
-5.85012e-06
6.42205e-07
-6.25184e-06
6.81774e-07
-6.59178e-06
7.09335e-07
-6.86018e-06
7.21388e-07
-7.04648e-06
7.14981e-07
-7.13944e-06
6.88032e-07
-7.12733e-06
6.39695e-07
-6.99828e-06
5.7072e-07
-6.74063e-06
4.8379e-07
-6.34356e-06
3.83767e-07
-5.79773e-06
2.77772e-07
-5.09609e-06
1.75054e-07
-4.23482e-06
8.65638e-08
-3.21416e-06
2.42527e-08
-2.03912e-06
-7.21009e-07
3.44247e-08
7.79499e-07
1.2418e-07
2.19818e-06
2.545e-07
3.4573e-06
4.10385e-07
4.54459e-06
5.77557e-07
5.45377e-06
7.43242e-07
6.18368e-06
8.96768e-07
6.7379e-06
1.02992e-06
7.12407e-06
1.13703e-06
7.35298e-06
1.21491e-06
7.43769e-06
1.26253e-06
7.39256e-06
1.28072e-06
7.2325e-06
1.27173e-06
6.97227e-06
1.23882e-06
6.62605e-06
1.18592e-06
6.20702e-06
1.11732e-06
5.7272e-06
1.03734e-06
5.19734e-06
9.50208e-07
4.6269e-06
8.59882e-07
4.02411e-06
7.69938e-07
3.39611e-06
6.8352e-07
2.74902e-06
6.03301e-07
2.08817e-06
5.3147e-07
1.4182e-06
4.69732e-07
7.4325e-07
4.19315e-07
6.71207e-08
3.80985e-07
-6.06581e-07
3.55053e-07
-1.27429e-06
3.41394e-07
-1.93234e-06
3.39454e-07
-2.57685e-06
3.48262e-07
-3.20358e-06
3.66441e-07
-3.80782e-06
3.92222e-07
-4.38431e-06
4.23467e-07
-4.92716e-06
4.57704e-07
-5.42972e-06
4.92178e-07
-5.88459e-06
5.2393e-07
-6.28359e-06
5.49901e-07
-6.61775e-06
5.67082e-07
-6.87736e-06
5.72687e-07
-7.05208e-06
5.64385e-07
-7.13113e-06
5.40553e-07
-7.1035e-06
5.00552e-07
-6.95828e-06
4.45006e-07
-6.68509e-06
3.76042e-07
-6.2746e-06
2.97459e-07
-5.71914e-06
2.14763e-07
-5.01339e-06
1.35048e-07
-4.1551e-06
6.6656e-08
-3.14576e-06
1.86445e-08
-1.99111e-06
-7.02365e-07
2.90651e-08
7.50434e-07
1.05274e-07
2.12198e-06
2.16672e-07
3.3459e-06
3.51073e-07
4.41019e-06
4.96757e-07
5.30809e-06
6.43078e-07
6.03736e-06
7.80944e-07
6.60004e-06
9.03131e-07
7.00188e-06
1.00442e-06
7.2517e-06
1.08156e-06
7.36055e-06
1.13312e-06
7.341e-06
1.15924e-06
7.20638e-06
1.16133e-06
6.97019e-06
1.14173e-06
6.64565e-06
1.10346e-06
6.24529e-06
1.04993e-06
5.78073e-06
9.84711e-07
5.26256e-06
9.11338e-07
4.70027e-06
8.33206e-07
4.10224e-06
7.53443e-07
3.47587e-06
6.74853e-07
2.82761e-06
5.99869e-07
2.16315e-06
5.30536e-07
1.48753e-06
4.68501e-07
8.05285e-07
4.15015e-07
1.20607e-07
3.7094e-07
-5.62506e-07
3.36762e-07
-1.24011e-06
3.12594e-07
-1.90817e-06
2.98193e-07
-2.56245e-06
2.92965e-07
-3.19835e-06
2.95978e-07
-3.81083e-06
3.0597e-07
-4.39431e-06
3.21376e-07
-4.94256e-06
3.40345e-07
-5.44868e-06
3.60789e-07
-5.90504e-06
3.80444e-07
-6.30325e-06
3.96947e-07
-6.63425e-06
4.07953e-07
-6.88836e-06
4.11275e-07
-7.0554e-06
4.05055e-07
-7.12491e-06
3.87959e-07
-7.08641e-06
3.59388e-07
-6.92971e-06
3.19682e-07
-6.64538e-06
2.70299e-07
-6.22522e-06
2.13933e-07
-5.66278e-06
1.54535e-07
-4.95399e-06
9.72175e-08
-4.09779e-06
4.80027e-08
-3.09655e-06
1.34327e-08
-1.95654e-06
-6.88932e-07
2.40073e-08
7.26427e-07
8.72715e-08
2.05871e-06
1.80299e-07
3.25288e-06
2.93377e-07
4.29711e-06
4.17084e-07
5.18438e-06
5.42739e-07
5.91171e-06
6.62783e-07
6.47999e-06
7.71043e-07
6.89362e-06
8.62876e-07
7.15986e-06
9.35188e-07
7.28824e-06
9.86341e-07
7.28985e-06
1.016e-06
7.17672e-06
1.02489e-06
6.96129e-06
1.01463e-06
6.65591e-06
9.87416e-07
6.2725e-06
9.45866e-07
5.82228e-06
8.92807e-07
5.31562e-06
8.31124e-07
4.76195e-06
7.6363e-07
4.16974e-06
6.9298e-07
3.54652e-06
6.216e-07
2.89899e-06
5.51645e-07
2.23311e-06
4.84974e-07
1.5542e-06
4.23138e-07
8.67121e-07
3.67379e-07
1.76366e-07
3.18631e-07
-5.13759e-07
2.77529e-07
-1.19901e-06
2.44415e-07
-1.87506e-06
2.19345e-07
-2.53738e-06
2.02099e-07
-3.1811e-06
1.92185e-07
-3.80092e-06
1.88849e-07
-4.39097e-06
1.91087e-07
-4.9448e-06
1.97662e-07
-5.45526e-06
2.07129e-07
-5.9145e-06
2.17879e-07
-6.314e-06
2.28193e-07
-6.64457e-06
2.36317e-07
-6.89649e-06
2.40569e-07
-7.05966e-06
2.39453e-07
-7.1238e-06
2.31805e-07
-7.07876e-06
2.16945e-07
-6.91485e-06
1.94823e-07
-6.62326e-06
1.66159e-07
-6.19655e-06
1.32526e-07
-5.62914e-06
9.63777e-08
-4.91785e-06
6.09833e-08
-4.06239e-06
3.02606e-08
-3.06583e-06
8.50603e-09
-1.93479e-06
-6.80426e-07
1.91714e-08
7.07255e-07
6.99357e-08
2.00795e-06
1.45003e-07
3.17781e-06
2.3689e-07
4.20522e-06
3.38271e-07
5.083e-06
4.42302e-07
5.80768e-06
5.42906e-07
6.37939e-06
6.34995e-07
6.80153e-06
7.14599e-07
7.08026e-06
7.7891e-07
7.22393e-06
8.26245e-07
7.24251e-06
8.55952e-07
7.14702e-06
8.68266e-07
6.94898e-06
8.64143e-07
6.66004e-06
8.45093e-07
6.29155e-06
8.13008e-07
5.85437e-06
7.70019e-07
5.35861e-06
7.18362e-07
4.81361e-06
6.60277e-07
4.22782e-06
5.97924e-07
3.60887e-06
5.33327e-07
2.96359e-06
4.68328e-07
2.29811e-06
4.04567e-07
1.61796e-06
3.43466e-07
9.28222e-07
2.86225e-07
2.33607e-07
2.33821e-07
-4.61355e-07
1.87016e-07
-1.1522e-06
1.46359e-07
-1.8344e-06
1.12192e-07
-2.50321e-06
8.46554e-08
-3.15357e-06
6.36902e-08
-3.77995e-06
4.90397e-08
-4.37632e-06
4.02531e-08
-4.93601e-06
3.66901e-08
-5.4517e-06
3.75307e-08
-5.91534e-06
4.1792e-08
-6.31826e-06
4.83561e-08
-6.65113e-06
5.60123e-08
-6.90414e-06
6.35145e-08
-7.06716e-06
6.96562e-08
-7.12994e-06
7.33621e-08
-7.08246e-06
7.37904e-08
-6.91527e-06
7.04397e-08
-6.61991e-06
6.32479e-08
-6.18936e-06
5.26672e-08
-5.61856e-06
3.96995e-08
-4.90488e-06
2.58734e-08
-4.04856e-06
1.31532e-08
-3.05311e-06
3.77613e-09
-1.92541e-06
-6.7665e-07
1.44914e-08
6.92764e-07
5.30668e-08
1.96937e-06
1.10462e-07
3.12041e-06
1.81248e-07
4.13443e-06
2.60052e-07
5.00419e-06
3.41767e-07
5.72596e-06
4.21763e-07
6.29939e-06
4.96048e-07
6.72725e-06
5.61385e-07
7.01492e-06
6.15352e-07
7.16996e-06
6.56337e-07
7.20153e-06
6.83498e-07
7.11985e-06
6.96676e-07
6.9358e-06
6.96296e-07
6.66042e-06
6.83242e-07
6.3046e-06
6.58748e-07
5.87886e-06
6.24284e-07
5.39308e-06
5.81458e-07
4.85644e-06
5.31936e-07
4.27734e-06
4.77373e-07
3.66343e-06
4.1937e-07
3.02159e-06
3.5943e-07
2.35805e-06
2.98943e-07
1.67845e-06
2.3917e-07
9.87995e-07
1.81237e-07
2.9154e-07
1.26137e-07
-4.06255e-07
7.47311e-08
-1.1008e-06
2.77534e-08
-1.78743e-06
-1.41877e-08
-2.46127e-06
-5.06076e-08
-3.11715e-06
-8.11472e-08
-3.74941e-06
-1.05578e-07
-4.35189e-06
-1.23808e-07
-4.91778e-06
-1.35893e-07
-5.43961e-06
-1.42045e-07
-5.90919e-06
-1.42636e-07
-6.31767e-06
-1.38206e-07
-6.65556e-06
-1.29455e-07
-6.91289e-06
-1.17228e-07
-7.07938e-06
-1.02483e-07
-7.14468e-06
-8.62536e-08
-7.09869e-06
-6.95839e-08
-6.93194e-06
-5.34647e-08
-6.63603e-06
-3.87584e-08
-6.20407e-06
-2.61307e-08
-5.63119e-06
-1.5998e-08