/*--------------------------------*- C++ -*----------------------------------*\
  =========                 |
  \\      /  F ield         | OpenFOAM: The Open Source CFD Toolbox
   \\    /   O peration     | Website:  https://openfoam.org
    \\  /    A nd           | Version:  7
     \\/     M anipulation  |
\*---------------------------------------------------------------------------*/
FoamFile
{
    version     2.0;
    format      ascii;
    class       volScalarField;
    location    "0.0336";
    object      p;
}
// * * * * * * * * * * * * * * * * * * * * * * * * * * * * * * * * * * * * * //

dimensions      [0 2 -2 0 0 0 0];

internalField   nonuniform List<scalar> 
2500
(
1.4251e-06
6.38512
9.0498
10.1455
10.7384
11.0884
11.3033
11.4446
11.5439
11.6172
11.6734
11.718
11.7546
11.7855
11.8125
11.8367
11.8591
11.8801
11.9004
11.9203
11.94
11.9597
11.9796
11.9999
12.0206
12.0419
12.0639
12.0867
12.1104
12.1354
12.1617
12.1897
12.2198
12.2524
12.2881
12.3278
12.3724
12.4232
12.4823
12.5521
12.6365
12.7412
12.8757
13.0564
13.3153
13.7164
14.3763
15.567
18.3478
24.8571
4.86809
7.46779
8.88558
9.76932
10.3734
10.7804
11.0561
11.2489
11.3884
11.4925
11.5724
11.6355
11.6866
11.7293
11.7659
11.798
11.8268
11.8534
11.8784
11.9024
11.9256
11.9485
11.9713
11.9942
12.0174
12.0411
12.0655
12.0908
12.1173
12.1451
12.1747
12.2064
12.2407
12.2783
12.3199
12.3667
12.42
12.4816
12.5541
12.6411
12.7476
12.8814
13.0541
13.2841
13.602
14.058
14.7219
15.6782
17.1817
19.8989
7.70368
8.46737
9.2107
9.83449
10.3215
10.6843
10.9518
11.1508
11.3012
11.4167
11.5073
11.5799
11.6393
11.689
11.7316
11.7689
11.8023
11.8328
11.8611
11.888
11.9139
11.9392
11.9641
11.989
12.0142
12.0398
12.066
12.0933
12.1217
12.1517
12.1836
12.2179
12.2551
12.2961
12.3416
12.3929
12.4515
12.5194
12.5992
12.6946
12.8106
12.9545
13.1363
13.3704
13.677
14.084
14.621
15.299
16.0967
16.9253
9.11221
9.28955
9.66922
10.0709
10.4211
10.7074
10.9362
11.1174
11.2609
11.3754
11.4678
11.5435
11.6065
11.6599
11.706
11.7465
11.7829
11.8161
11.8469
11.876
11.9039
11.931
11.9577
11.9843
12.0109
12.038
12.0658
12.0945
12.1245
12.1561
12.1897
12.2259
12.2651
12.3083
12.3563
12.4102
12.4716
12.5423
12.6248
12.7224
12.8391
12.9805
13.1536
13.3672
13.6314
13.956
14.3463
14.7883
15.2035
15.4116
9.92321
9.90326
10.0799
10.3243
10.5645
10.78
10.9653
11.1208
11.2498
11.3568
11.4459
11.5207
11.5842
11.6389
11.6866
11.729
11.7673
11.8023
11.8349
11.8657
11.8952
11.9239
11.952
11.9798
12.0078
12.0362
12.0651
12.0951
12.1263
12.1592
12.1941
12.2316
12.2723
12.3168
12.3662
12.4214
12.4839
12.5552
12.6374
12.7332
12.8455
12.978
13.1348
13.3201
13.5369
13.785
14.0571
14.3307
14.5298
14.5223
10.4332
10.3487
10.4184
10.5611
10.721
10.878
11.0226
11.1507
11.262
11.3577
11.44
11.5109
11.5724
11.6263
11.6741
11.7171
11.7561
11.7921
11.8258
11.8577
11.8883
11.918
11.9472
11.9761
12.0051
12.0344
12.0643
12.0952
12.1273
12.1611
12.1969
12.2352
12.2767
12.3219
12.3717
12.427
12.489
12.5591
12.6387
12.7298
12.8343
12.9543
13.0916
13.247
13.4195
13.6039
13.7891
13.9528
14.0358
13.953
10.7726
10.6757
10.692
10.7716
10.8751
10.9864
11.096
11.1984
11.2913
11.3742
11.4476
11.5127
11.5704
11.622
11.6684
11.7107
11.7496
11.7858
11.8199
11.8523
11.8835
11.9139
11.9437
11.9733
12.003
12.033
12.0636
12.0951
12.1278
12.1621
12.1984
12.2371
12.2787
12.3239
12.3733
12.4277
12.4881
12.5555
12.6309
12.7155
12.8103
12.9163
13.0334
13.1607
13.2949
13.4291
13.5525
13.647
13.6706
13.5696
11.0131
10.9217
10.9121
10.953
11.0179
11.0949
11.1761
11.256
11.3317
11.4017
11.4657
11.5238
11.5766
11.6248
11.6689
11.7097
11.7476
11.7833
11.8171
11.8496
11.8809
11.9116
11.9417
11.9717
12.0018
12.0322
12.0632
12.095
12.1281
12.1626
12.199
12.2376
12.2789
12.3235
12.3719
12.4247
12.4826
12.5462
12.6164
12.6936
12.7782
12.87
12.9682
13.0707
13.1735
13.2697
13.35
13.4015
13.395
13.2966
11.1936
11.1118
11.0898
11.1073
11.146
11.198
11.257
11.3182
11.3786
11.4366
11.4912
11.5422
11.5895
11.6336
11.6747
11.7133
11.7497
11.7843
11.8174
11.8494
11.8806
11.9111
11.9413
11.9714
12.0016
12.0321
12.0632
12.0952
12.1283
12.1627
12.1989
12.2371
12.2778
12.3213
12.3682
12.4188
12.4736
12.5331
12.5975
12.667
12.7414
12.82
12.9014
12.9829
13.0606
13.1285
13.1793
13.2039
13.1824
13.0925
11.3349
11.2626
11.235
11.2381
11.2594
11.2932
11.3351
11.3812
11.4287
11.4759
11.5218
11.5657
11.6076
11.6473
11.685
11.721
11.7554
11.7885
11.8206
11.8518
11.8823
11.9125
11.9424
11.9723
12.0024
12.0329
12.0639
12.0957
12.1286
12.1627
12.1984
12.236
12.2757
12.3179
12.3629
12.411
12.4625
12.5175
12.576
12.638
12.7028
12.7694
12.8362
12.9004
12.9585
13.0056
13.0361
13.0439
13.0151
12.9341
11.4491
11.3848
11.3551
11.3495
11.3589
11.3797
11.4087
11.4427
11.4794
11.5174
11.5553
11.5928
11.6292
11.6646
11.6988
11.732
11.7642
11.7955
11.8262
11.8563
11.886
11.9155
11.945
11.9745
12.0043
12.0344
12.0652
12.0967
12.1292
12.1628
12.1979
12.2346
12.2731
12.3137
12.3566
12.402
12.45
12.5005
12.5533
12.6082
12.6642
12.7203
12.7746
12.8248
12.8677
12.8994
12.9159
12.9131
12.881
12.8081
11.5436
11.4858
11.4555
11.4445
11.4459
11.4574
11.4766
11.5012
11.5291
11.5592
11.5903
11.6218
11.6533
11.6845
11.7152
11.7455
11.7753
11.8047
11.8338
11.8627
11.8914
11.9201
11.9488
11.9778
12.0071
12.0368
12.0671
12.0981
12.1301
12.1631
12.1973
12.233
12.2702
12.3091
12.3498
12.3924
12.4369
12.483
12.5305
12.5787
12.627
12.6739
12.7178
12.7567
12.7878
12.8082
12.8149
12.8054
12.7722
12.706
11.6231
11.5704
11.5403
11.526
11.522
11.5268
11.5387
11.5558
11.5767
11.6002
11.6254
11.6517
11.6786
11.7059
11.7333
11.7608
11.7882
11.8156
11.8431
11.8705
11.8981
11.9258
11.9538
11.982
12.0107
12.0398
12.0696
12.1
12.1313
12.1635
12.1969
12.2314
12.2672
12.3043
12.3428
12.3827
12.4237
12.4657
12.5082
12.5505
12.5918
12.6309
12.6663
12.696
12.7181
12.73
12.7299
12.7161
12.6828
12.6223
11.6906
11.642
11.6125
11.5962
11.5885
11.5884
11.5947
11.6061
11.6213
11.6394
11.6597
11.6814
11.7043
11.728
11.7523
11.7771
11.8022
11.8277
11.8534
11.8795
11.9058
11.9325
11.9595
11.987
12.0149
12.0434
12.0725
12.1023
12.1328
12.1642
12.1966
12.2299
12.2642
12.2996
12.3359
12.3731
12.4109
12.449
12.487
12.524
12.5593
12.5918
12.62
12.6425
12.6575
12.6631
12.6582
12.6417
12.6088
12.5531
11.7484
11.703
11.6742
11.6567
11.6464
11.6428
11.645
11.6519
11.6626
11.6763
11.6923
11.7102
11.7296
11.7501
11.7716
11.7939
11.8168
11.8404
11.8645
11.8891
11.9142
11.9398
11.9659
11.9925
12.0197
12.0474
12.0758
12.1048
12.1346
12.1651
12.1964
12.2285
12.2614
12.295
12.3293
12.3639
12.3987
12.4333
12.4672
12.4996
12.5298
12.5566
12.579
12.5956
12.6051
12.6061
12.5977
12.5795
12.5474
12.4957
11.798
11.7552
11.7271
11.7088
11.6967
11.6906
11.6896
11.6931
11.7002
11.7103
11.7229
11.7375
11.7539
11.7716
11.7906
11.8106
11.8315
11.8533
11.8758
11.899
11.9229
11.9474
11.9725
11.9983
12.0247
12.0517
12.0793
12.1076
12.1365
12.1662
12.1964
12.2274
12.2588
12.2908
12.323
12.3553
12.3874
12.4188
12.4491
12.4774
12.5032
12.5253
12.5429
12.5548
12.5601
12.5575
12.5467
12.5274
12.4962
12.4479
11.8405
11.7998
11.7723
11.7536
11.7403
11.7323
11.729
11.7298
11.734
11.7413
11.751
11.7629
11.7766
11.792
11.8087
11.8267
11.8458
11.8659
11.887
11.9089
11.9316
11.9551
11.9793
12.0042
12.0297
12.056
12.0829
12.1104
12.1385
12.1673
12.1966
12.2263
12.2565
12.2869
12.3173
12.3475
12.3771
12.4057
12.4327
12.4576
12.4796
12.4978
12.5115
12.5197
12.5216
12.5164
12.5038
12.4839
12.4536
12.4082
11.8768
11.8377
11.8109
11.7919
11.7778
11.7683
11.7633
11.762
11.764
11.769
11.7764
11.786
11.7976
11.8108
11.8256
11.8419
11.8593
11.878
11.8977
11.9184
11.94
11.9625
11.9858
12.0099
12.0347
12.0602
12.0864
12.1132
12.1405
12.1684
12.1968
12.2255
12.2544
12.2833
12.3121
12.3404
12.3678
12.3939
12.4182
12.4401
12.4589
12.474
12.4844
12.4897
12.489
12.4818
12.468
12.4477
12.4183
12.3753
11.9075
11.8698
11.8434
11.8243
11.8096
11.7992
11.7927
11.7899
11.7902
11.7933
11.7988
11.8066
11.8163
11.8279
11.841
11.8557
11.8718
11.8891
11.9076
11.9272
11.9479
11.9695
11.9919
12.0153
12.0394
12.0642
12.0897
12.1158
12.1425
12.1696
12.1971
12.2248
12.2526
12.2802
12.3075
12.3341
12.3596
12.3836
12.4056
12.425
12.4412
12.4535
12.4615
12.4643
12.4616
12.4529
12.4382
12.4179
12.3892
12.3483
11.9331
11.8964
11.8705
11.8514
11.8362
11.825
11.8176
11.8135
11.8125
11.8141
11.8182
11.8244
11.8327
11.8428
11.8546
11.868
11.8828
11.8991
11.9165
11.9352
11.955
11.9758
11.9975
12.0202
12.0436
12.0678
12.0927
12.1182
12.1442
12.1706
12.1974
12.2242
12.251
12.2775
12.3035
12.3287
12.3526
12.3748
12.3948
12.4121
12.4262
12.4364
12.4423
12.4433
12.439
12.4292
12.4139
12.3935
12.3656
12.3263
11.954
11.9181
11.8926
11.8734
11.858
11.8463
11.8381
11.8331
11.831
11.8315
11.8344
11.8395
11.8465
11.8555
11.8662
11.8785
11.8924
11.9077
11.9243
11.9421
11.9612
11.9813
12.0024
12.0244
12.0473
12.071
12.0954
12.1203
12.1458
12.1716
12.1976
12.2237
12.2497
12.2753
12.3002
12.3241
12.3467
12.3674
12.3858
12.4015
12.4139
12.4224
12.4267
12.4262
12.4208
12.4101
12.3944
12.374
12.3467
12.3089
11.9703
11.9351
11.9099
11.8907
11.8751
11.863
11.8543
11.8486
11.8457
11.8454
11.8474
11.8516
11.8577
11.8658
11.8756
11.8871
11.9002
11.9147
11.9306
11.9478
11.9663
11.9858
12.0064
12.028
12.0504
12.0737
12.0976
12.1221
12.1471
12.1724
12.1979
12.2234
12.2487
12.2735
12.2975
12.3205
12.342
12.3615
12.3787
12.3931
12.4041
12.4114
12.4144
12.4129
12.4066
12.3953
12.3793
12.359
12.3322
12.2955
11.9824
11.9477
11.9227
11.9035
11.8878
11.8754
11.8663
11.8602
11.8567
11.8558
11.8572
11.8607
11.8662
11.8736
11.8828
11.8937
11.9061
11.9201
11.9355
11.9522
11.9702
11.9893
12.0095
12.0307
12.0528
12.0757
12.0993
12.1234
12.148
12.173
12.1981
12.2231
12.2479
12.2721
12.2955
12.3177
12.3384
12.3571
12.3734
12.3868
12.3969
12.4032
12.4053
12.4031
12.3962
12.3845
12.3683
12.348
12.3216
12.2857
11.9904
11.956
11.9311
11.912
11.8962
11.8836
11.8743
11.8679
11.8641
11.8627
11.8637
11.8668
11.8719
11.8788
11.8876
11.8981
11.9101
11.9238
11.9388
11.9552
11.9729
11.9917
12.0116
12.0326
12.0544
12.0771
12.1004
12.1243
12.1487
12.1734
12.1982
12.2229
12.2473
12.2712
12.2942
12.3159
12.3361
12.3542
12.3699
12.3827
12.3921
12.3978
12.3994
12.3966
12.3893
12.3774
12.3611
12.3408
12.3147
12.2793
11.9944
11.9601
11.9353
11.9162
11.9003
11.8877
11.8783
11.8717
11.8677
11.8662
11.867
11.8698
11.8747
11.8815
11.89
11.9003
11.9122
11.9256
11.9405
11.9567
11.9742
11.9929
12.0127
12.0335
12.0552
12.0778
12.101
12.1248
12.1491
12.1736
12.1983
12.2228
12.2471
12.2707
12.2935
12.315
12.3349
12.3527
12.3681
12.3806
12.3897
12.3951
12.3964
12.3934
12.3859
12.3739
12.3575
12.3373
12.3113
12.2762
11.9944
11.9601
11.9353
11.9162
11.9003
11.8877
11.8783
11.8717
11.8677
11.8662
11.867
11.8698
11.8747
11.8815
11.89
11.9003
11.9122
11.9256
11.9405
11.9567
11.9742
11.9929
12.0127
12.0335
12.0552
12.0778
12.101
12.1248
12.1491
12.1736
12.1983
12.2228
12.2471
12.2707
12.2935
12.315
12.3349
12.3527
12.3681
12.3806
12.3897
12.3951
12.3964
12.3934
12.3859
12.3739
12.3575
12.3373
12.3113
12.2762
11.9904
11.956
11.9311
11.912
11.8962
11.8836
11.8743
11.8679
11.8641
11.8627
11.8637
11.8668
11.8719
11.8788
11.8876
11.8981
11.9101
11.9238
11.9388
11.9552
11.9729
11.9917
12.0116
12.0326
12.0544
12.0771
12.1004
12.1243
12.1487
12.1734
12.1982
12.2229
12.2473
12.2712
12.2942
12.3159
12.3361
12.3542
12.3699
12.3827
12.3921
12.3978
12.3994
12.3966
12.3893
12.3774
12.3611
12.3408
12.3147
12.2793
11.9825
11.9477
11.9227
11.9035
11.8878
11.8754
11.8663
11.8602
11.8567
11.8558
11.8572
11.8607
11.8662
11.8736
11.8828
11.8937
11.9061
11.9201
11.9355
11.9522
11.9702
11.9893
12.0095
12.0307
12.0528
12.0757
12.0993
12.1234
12.148
12.173
12.1981
12.2231
12.2479
12.2721
12.2955
12.3177
12.3384
12.3571
12.3734
12.3868
12.3969
12.4032
12.4054
12.4031
12.3962
12.3845
12.3683
12.348
12.3216
12.2857
11.9703
11.9351
11.9099
11.8907
11.8751
11.863
11.8543
11.8486
11.8457
11.8454
11.8474
11.8516
11.8577
11.8658
11.8756
11.8871
11.9002
11.9147
11.9306
11.9478
11.9663
11.9858
12.0064
12.028
12.0504
12.0737
12.0976
12.1221
12.1471
12.1724
12.1979
12.2234
12.2487
12.2735
12.2975
12.3205
12.342
12.3615
12.3787
12.3931
12.4041
12.4114
12.4144
12.4129
12.4066
12.3953
12.3793
12.359
12.3322
12.2955
11.954
11.9181
11.8926
11.8734
11.858
11.8463
11.8381
11.8331
11.831
11.8315
11.8344
11.8395
11.8465
11.8555
11.8662
11.8785
11.8924
11.9077
11.9243
11.9421
11.9612
11.9813
12.0024
12.0244
12.0473
12.071
12.0954
12.1203
12.1458
12.1716
12.1976
12.2237
12.2497
12.2753
12.3002
12.3241
12.3467
12.3674
12.3858
12.4015
12.4139
12.4224
12.4267
12.4262
12.4208
12.4101
12.3944
12.374
12.3467
12.3089
11.9331
11.8964
11.8705
11.8514
11.8362
11.8251
11.8176
11.8136
11.8125
11.8141
11.8182
11.8244
11.8327
11.8428
11.8546
11.868
11.8829
11.8991
11.9165
11.9352
11.955
11.9758
11.9975
12.0202
12.0436
12.0678
12.0927
12.1182
12.1442
12.1706
12.1974
12.2242
12.251
12.2775
12.3035
12.3287
12.3526
12.3748
12.3948
12.4121
12.4262
12.4364
12.4423
12.4433
12.439
12.4292
12.4139
12.3935
12.3656
12.3263
11.9075
11.8698
11.8435
11.8243
11.8096
11.7992
11.7927
11.7899
11.7902
11.7933
11.7988
11.8066
11.8163
11.8279
11.841
11.8557
11.8718
11.8891
11.9076
11.9272
11.9479
11.9695
11.9919
12.0153
12.0394
12.0642
12.0897
12.1158
12.1425
12.1696
12.1971
12.2248
12.2526
12.2802
12.3075
12.3341
12.3596
12.3836
12.4056
12.425
12.4412
12.4535
12.4615
12.4643
12.4616
12.4529
12.4382
12.4179
12.3892
12.3483
11.8768
11.8378
11.8109
11.7919
11.7778
11.7683
11.7633
11.762
11.764
11.769
11.7764
11.786
11.7976
11.8108
11.8256
11.8419
11.8593
11.878
11.8977
11.9184
11.94
11.9625
11.9858
12.0099
12.0347
12.0602
12.0864
12.1132
12.1405
12.1685
12.1968
12.2255
12.2544
12.2833
12.3121
12.3404
12.3678
12.3939
12.4182
12.4401
12.4589
12.474
12.4844
12.4897
12.489
12.4818
12.468
12.4477
12.4183
12.3753
11.8405
11.7998
11.7723
11.7536
11.7403
11.7323
11.729
11.7298
11.7341
11.7413
11.751
11.7629
11.7767
11.792
11.8087
11.8267
11.8458
11.8659
11.887
11.9089
11.9316
11.9551
11.9793
12.0042
12.0297
12.056
12.0829
12.1104
12.1385
12.1673
12.1966
12.2263
12.2565
12.2869
12.3173
12.3475
12.3771
12.4057
12.4327
12.4576
12.4796
12.4978
12.5115
12.5197
12.5216
12.5164
12.5038
12.4839
12.4536
12.4082
11.798
11.7552
11.7271
11.7088
11.6968
11.6906
11.6896
11.6931
11.7002
11.7103
11.7229
11.7376
11.7539
11.7716
11.7906
11.8106
11.8315
11.8533
11.8758
11.899
11.9229
11.9474
11.9726
11.9983
12.0247
12.0517
12.0793
12.1076
12.1365
12.1662
12.1964
12.2274
12.2588
12.2908
12.323
12.3553
12.3874
12.4188
12.4491
12.4774
12.5032
12.5253
12.5429
12.5548
12.5601
12.5575
12.5467
12.5274
12.4962
12.4479
11.7484
11.703
11.6742
11.6567
11.6464
11.6428
11.645
11.6519
11.6626
11.6763
11.6923
11.7102
11.7296
11.7501
11.7716
11.7939
11.8169
11.8404
11.8645
11.8891
11.9142
11.9398
11.9659
11.9925
12.0197
12.0474
12.0758
12.1048
12.1346
12.1651
12.1964
12.2285
12.2614
12.295
12.3293
12.3639
12.3987
12.4333
12.4672
12.4996
12.5298
12.5566
12.579
12.5956
12.6051
12.6061
12.5977
12.5795
12.5474
12.4957
11.6906
11.642
11.6125
11.5962
11.5885
11.5884
11.5947
11.6061
11.6213
11.6394
11.6597
11.6814
11.7043
11.728
11.7523
11.7771
11.8022
11.8277
11.8535
11.8795
11.9058
11.9325
11.9596
11.987
12.0149
12.0434
12.0725
12.1023
12.1328
12.1642
12.1966
12.2299
12.2642
12.2996
12.3359
12.3731
12.4109
12.449
12.487
12.524
12.5593
12.5918
12.62
12.6425
12.6575
12.6631
12.6582
12.6417
12.6088
12.5531
11.6231
11.5704
11.5403
11.5261
11.5221
11.5268
11.5387
11.5558
11.5767
11.6002
11.6254
11.6517
11.6786
11.7059
11.7333
11.7608
11.7882
11.8156
11.8431
11.8706
11.8981
11.9258
11.9538
11.982
12.0107
12.0398
12.0696
12.1
12.1313
12.1635
12.1969
12.2314
12.2672
12.3043
12.3428
12.3827
12.4237
12.4657
12.5082
12.5505
12.5918
12.6309
12.6663
12.696
12.7181
12.73
12.7299
12.7161
12.6828
12.6223
11.5437
11.4858
11.4555
11.4445
11.446
11.4575
11.4767
11.5012
11.5292
11.5592
11.5903
11.6218
11.6533
11.6845
11.7152
11.7455
11.7753
11.8047
11.8338
11.8627
11.8914
11.9201
11.9488
11.9778
12.0071
12.0368
12.0671
12.0981
12.1301
12.1631
12.1973
12.233
12.2702
12.3091
12.3498
12.3924
12.4369
12.483
12.5305
12.5787
12.627
12.6739
12.7178
12.7567
12.7878
12.8082
12.8149
12.8054
12.7722
12.706
11.4491
11.3848
11.3551
11.3495
11.3589
11.3797
11.4087
11.4427
11.4795
11.5174
11.5554
11.5928
11.6293
11.6646
11.6988
11.732
11.7642
11.7955
11.8262
11.8563
11.886
11.9155
11.945
11.9745
12.0043
12.0344
12.0652
12.0967
12.1292
12.1628
12.1979
12.2346
12.2731
12.3137
12.3566
12.402
12.45
12.5005
12.5533
12.6082
12.6642
12.7203
12.7746
12.8248
12.8677
12.8994
12.9159
12.9131
12.881
12.8081
11.3349
11.2626
11.235
11.2382
11.2594
11.2932
11.3351
11.3812
11.4287
11.4759
11.5218
11.5657
11.6076
11.6473
11.6851
11.721
11.7554
11.7885
11.8206
11.8518
11.8823
11.9125
11.9424
11.9723
12.0024
12.0329
12.0639
12.0957
12.1286
12.1627
12.1985
12.236
12.2757
12.3179
12.3629
12.411
12.4625
12.5175
12.576
12.638
12.7028
12.7694
12.8362
12.9004
12.9585
13.0056
13.0361
13.0439
13.0151
12.9341
11.1936
11.1118
11.0898
11.1073
11.146
11.198
11.257
11.3182
11.3787
11.4366
11.4912
11.5422
11.5896
11.6336
11.6748
11.7133
11.7497
11.7843
11.8174
11.8494
11.8806
11.9111
11.9413
11.9714
12.0016
12.0321
12.0632
12.0952
12.1283
12.1627
12.1989
12.2371
12.2778
12.3213
12.3682
12.4188
12.4736
12.5331
12.5975
12.667
12.7414
12.82
12.9014
12.9829
13.0606
13.1285
13.1793
13.2039
13.1824
13.0925
11.0132
10.9217
10.9121
10.953
11.0179
11.0949
11.1761
11.2561
11.3317
11.4017
11.4657
11.5238
11.5766
11.6248
11.6689
11.7097
11.7476
11.7833
11.8171
11.8496
11.8809
11.9116
11.9417
11.9717
12.0018
12.0322
12.0632
12.0951
12.1281
12.1626
12.199
12.2376
12.2789
12.3235
12.3719
12.4247
12.4826
12.5462
12.6164
12.6936
12.7782
12.87
12.9682
13.0707
13.1735
13.2697
13.35
13.4015
13.395
13.2966
10.7726
10.6757
10.692
10.7716
10.8751
10.9864
11.096
11.1984
11.2913
11.3742
11.4477
11.5127
11.5704
11.622
11.6684
11.7107
11.7496
11.7858
11.8199
11.8523
11.8835
11.9139
11.9437
11.9733
12.003
12.033
12.0636
12.0951
12.1278
12.1621
12.1984
12.2371
12.2787
12.3239
12.3733
12.4277
12.4881
12.5555
12.6309
12.7155
12.8103
12.9163
13.0334
13.1607
13.2949
13.4292
13.5525
13.647
13.6706
13.5696
10.4332
10.3487
10.4184
10.5612
10.721
10.878
11.0226
11.1508
11.262
11.3578
11.44
11.5109
11.5724
11.6264
11.6742
11.7171
11.7561
11.7922
11.8258
11.8577
11.8883
11.918
11.9472
11.9761
12.0051
12.0344
12.0643
12.0952
12.1273
12.1611
12.1969
12.2352
12.2767
12.3219
12.3717
12.427
12.489
12.5591
12.6387
12.7298
12.8343
12.9543
13.0916
13.247
13.4195
13.6039
13.7891
13.9528
14.0358
13.953
9.92324
9.90329
10.08
10.3243
10.5645
10.78
10.9653
11.1208
11.2498
11.3568
11.4459
11.5207
11.5842
11.6389
11.6867
11.7291
11.7673
11.8023
11.8349
11.8657
11.8952
11.9239
11.952
11.9798
12.0078
12.0362
12.0652
12.0951
12.1263
12.1592
12.1941
12.2316
12.2723
12.3168
12.3662
12.4214
12.4839
12.5552
12.6374
12.7332
12.8455
12.978
13.1348
13.3201
13.5369
13.785
14.0571
14.3307
14.5298
14.5223
9.11224
9.28958
9.66925
10.0709
10.4211
10.7075
10.9363
11.1174
11.2609
11.3754
11.4678
11.5435
11.6065
11.6599
11.706
11.7465
11.7829
11.8161
11.8469
11.876
11.9039
11.9311
11.9577
11.9843
12.011
12.038
12.0658
12.0945
12.1245
12.1561
12.1897
12.2259
12.2651
12.3083
12.3563
12.4102
12.4716
12.5423
12.6248
12.7224
12.8391
12.9805
13.1536
13.3672
13.6314
13.956
14.3463
14.7883
15.2035
15.4116
7.70371
8.46741
9.21074
9.83451
10.3215
10.6843
10.9518
11.1509
11.3012
11.4167
11.5073
11.5799
11.6393
11.6891
11.7316
11.7689
11.8023
11.8328
11.8611
11.888
11.9139
11.9392
11.9641
11.989
12.0142
12.0398
12.066
12.0933
12.1217
12.1517
12.1836
12.2179
12.2551
12.2961
12.3416
12.3929
12.4515
12.5194
12.5992
12.6946
12.8106
12.9545
13.1363
13.3704
13.677
14.084
14.621
15.299
16.0968
16.9253
4.86814
7.46783
8.88562
9.76935
10.3734
10.7804
11.0561
11.2489
11.3885
11.4925
11.5724
11.6355
11.6867
11.7293
11.7659
11.798
11.8269
11.8535
11.8784
11.9024
11.9256
11.9485
11.9713
11.9942
12.0174
12.0411
12.0655
12.0908
12.1173
12.1451
12.1747
12.2064
12.2407
12.2783
12.32
12.3667
12.42
12.4816
12.5541
12.6411
12.7476
12.8814
13.0541
13.2841
13.602
14.058
14.7219
15.6782
17.1817
19.8989
5.79426e-05
6.38517
9.04984
10.1456
10.7385
11.0884
11.3033
11.4446
11.5439
11.6172
11.6734
11.718
11.7546
11.7855
11.8125
11.8368
11.8591
11.8802
11.9004
11.9203
11.94
11.9597
11.9797
11.9999
12.0206
12.0419
12.0639
12.0867
12.1105
12.1354
12.1617
12.1897
12.2198
12.2524
12.2881
12.3278
12.3724
12.4233
12.4823
12.5521
12.6365
12.7412
12.8757
13.0564
13.3153
13.7164
14.3763
15.567
18.3478
24.8571
)
;

boundaryField
{
    movingWallTop
    {
        type            zeroGradient;
    }
    movingWallBottom
    {
        type            zeroGradient;
    }
    fixedWalls
    {
        type            zeroGradient;
    }
    frontAndBack
    {
        type            empty;
    }
}


// ************************************************************************* //
