/*--------------------------------*- C++ -*----------------------------------*\
  =========                 |
  \\      /  F ield         | OpenFOAM: The Open Source CFD Toolbox
   \\    /   O peration     | Website:  https://openfoam.org
    \\  /    A nd           | Version:  7
     \\/     M anipulation  |
\*---------------------------------------------------------------------------*/
FoamFile
{
    version     2.0;
    format      ascii;
    class       volScalarField;
    location    "0.0398";
    object      p;
}
// * * * * * * * * * * * * * * * * * * * * * * * * * * * * * * * * * * * * * //

dimensions      [0 2 -2 0 0 0 0];

internalField   nonuniform List<scalar> 
2500
(
2.93682e-05
6.38525
9.0502
10.1463
10.7396
11.09
11.3051
11.4467
11.5461
11.6193
11.6754
11.7198
11.756
11.7865
11.8129
11.8366
11.8582
11.8786
11.8981
11.9172
11.9361
11.9551
11.9743
11.9938
12.0138
12.0345
12.0558
12.078
12.1013
12.1257
12.1517
12.1794
12.2092
12.2416
12.2772
12.3168
12.3614
12.4124
12.4716
12.5416
12.6262
12.7312
12.8659
13.0469
13.3062
13.7076
14.3679
15.5589
18.3399
24.8493
4.86806
7.46784
8.88585
9.76989
10.3742
10.7815
11.0575
11.2504
11.39
11.494
11.5737
11.6365
11.6874
11.7296
11.7657
11.7972
11.8255
11.8514
11.8757
11.8989
11.9215
11.9436
11.9657
11.988
12.0106
12.0337
12.0576
12.0824
12.1084
12.1358
12.165
12.1965
12.2306
12.268
12.3096
12.3563
12.4096
12.4714
12.544
12.6311
12.7379
12.8719
13.0448
13.2751
13.5933
14.0496
14.7137
15.6703
17.1739
19.8912
7.70339
8.46721
9.21076
9.83482
10.3221
10.6851
10.9528
11.152
11.3023
11.4177
11.5082
11.5805
11.6395
11.6889
11.731
11.7677
11.8005
11.8303
11.8581
11.8843
11.9095
11.9341
11.9585
11.9828
12.0073
12.0324
12.0581
12.0849
12.1129
12.1426
12.1742
12.2082
12.2453
12.2862
12.3317
12.383
12.4416
12.5095
12.5895
12.685
12.8013
12.9454
13.1275
13.3618
13.6686
14.0758
14.6131
15.2912
16.0891
16.9178
9.11153
9.28907
9.66899
10.0709
10.4214
10.708
10.9369
11.1181
11.2616
11.376
11.4682
11.5437
11.6063
11.6593
11.7049
11.7449
11.7807
11.8133
11.8435
11.872
11.8993
11.9258
11.9519
11.9779
12.004
12.0306
12.0579
12.0862
12.1158
12.1471
12.1805
12.2164
12.2556
12.2987
12.3466
12.4005
12.462
12.5328
12.6155
12.7132
12.8301
12.9717
13.1451
13.3589
13.6232
13.948
14.3385
14.7806
15.196
15.4044
9.92207
9.90241
10.0794
10.324
10.5644
10.7801
10.9656
11.1211
11.2502
11.357
11.4459
11.5204
11.5836
11.6379
11.6852
11.7271
11.7648
11.7992
11.8313
11.8615
11.8904
11.9184
11.946
11.9733
12.0008
12.0287
12.0573
12.0868
12.1177
12.1503
12.185
12.2223
12.2629
12.3074
12.3567
12.412
12.4745
12.5459
12.6283
12.7242
12.8367
12.9694
13.1264
13.3119
13.5286
13.7773
14.0494
14.3231
14.5225
14.5153
10.4316
10.3474
10.4175
10.5605
10.7206
10.8778
11.0225
11.1507
11.262
11.3576
11.4397
11.5103
11.5714
11.625
11.6723
11.7147
11.7532
11.7887
11.8218
11.8532
11.8832
11.9124
11.941
11.9694
11.9979
12.0268
12.0564
12.0869
12.1188
12.1523
12.1879
12.2261
12.2674
12.3126
12.3624
12.4178
12.4799
12.55
12.6298
12.721
12.8257
12.9459
13.0833
13.2389
13.4115
13.5961
13.7814
13.9453
14.0286
13.9462
10.7706
10.6741
10.6908
10.7707
10.8744
10.9858
11.0956
11.198
11.2909
11.3737
11.4469
11.5117
11.569
11.6202
11.6662
11.708
11.7464
11.7821
11.8156
11.8475
11.8782
11.908
11.9374
11.9665
11.9957
12.0253
12.0556
12.0868
12.1193
12.1533
12.1894
12.228
12.2696
12.3147
12.3641
12.4186
12.4791
12.5465
12.6221
12.7068
12.8018
12.9079
13.0252
13.1526
13.287
13.4213
13.5448
13.6396
13.6634
13.5629
11.0108
10.9198
10.9105
10.9518
11.0168
11.094
11.1753
11.2553
11.3309
11.4008
11.4646
11.5224
11.5749
11.6227
11.6664
11.7066
11.7441
11.7792
11.8126
11.8445
11.8753
11.9055
11.9352
11.9647
11.9944
12.0244
12.0551
12.0867
12.1194
12.1538
12.19
12.2285
12.2698
12.3144
12.3627
12.4156
12.4736
12.5374
12.6076
12.685
12.7697
12.8616
12.96
13.0626
13.1655
13.2618
13.3424
13.394
13.3879
13.29
11.191
11.1098
11.0881
11.1058
11.1448
11.1969
11.2559
11.3172
11.3776
11.4354
11.4898
11.5404
11.5875
11.6312
11.6719
11.71
11.7459
11.78
11.8126
11.8441
11.8748
11.9048
11.9346
11.9642
11.994
12.0242
12.0551
12.0867
12.1196
12.1539
12.1899
12.228
12.2687
12.3122
12.3591
12.4097
12.4647
12.5242
12.5888
12.6584
12.7329
12.8116
12.8931
12.9748
13.0526
13.1207
13.1716
13.1964
13.1753
13.0857
11.3323
11.2605
11.2332
11.2366
11.258
11.2919
11.3339
11.3799
11.4274
11.4744
11.52
11.5637
11.6052
11.6445
11.6819
11.7174
11.7513
11.784
11.8155
11.8462
11.8763
11.906
11.9355
11.965
11.9948
12.0249
12.0556
12.0872
12.1199
12.1538
12.1894
12.2269
12.2666
12.3088
12.3538
12.4019
12.4535
12.5086
12.5673
12.6293
12.6942
12.761
12.8278
12.8922
12.9504
12.9977
13.0283
13.0363
13.0078
12.9272
11.4466
11.3827
11.3533
11.3479
11.3574
11.3783
11.4073
11.4412
11.4779
11.5156
11.5534
11.5905
11.6266
11.6616
11.6954
11.7281
11.7599
11.7907
11.8209
11.8506
11.8799
11.9089
11.938
11.9671
11.9965
12.0264
12.0568
12.0881
12.1204
12.1539
12.1888
12.2254
12.2639
12.3046
12.3475
12.3929
12.441
12.4916
12.5445
12.5995
12.6556
12.7118
12.7662
12.8165
12.8596
12.8914
12.908
12.9054
12.8736
12.801
11.5413
11.4838
11.4538
11.443
11.4445
11.456
11.4752
11.4996
11.5275
11.5573
11.5882
11.6194
11.6505
11.6813
11.7116
11.7415
11.7708
11.7998
11.8284
11.8568
11.8851
11.9134
11.9417
11.9703
11.9992
12.0287
12.0587
12.0895
12.1213
12.1541
12.1883
12.2238
12.261
12.2999
12.3407
12.3833
12.4278
12.4741
12.5216
12.57
12.6183
12.6653
12.7094
12.7484
12.7796
12.8001
12.8069
12.7976
12.7645
12.6987
11.621
11.5687
11.5388
11.5246
11.5207
11.5254
11.5372
11.5542
11.575
11.5982
11.6232
11.6491
11.6757
11.7026
11.7296
11.7566
11.7836
11.8106
11.8376
11.8646
11.8917
11.919
11.9466
11.9745
12.0028
12.0317
12.0612
12.0914
12.1225
12.1546
12.1878
12.2223
12.258
12.2952
12.3337
12.3736
12.4147
12.4568
12.4993
12.5418
12.5832
12.6223
12.6578
12.6876
12.7097
12.7218
12.7218
12.7081
12.6749
12.6147
11.689
11.6406
11.6112
11.595
11.5873
11.5871
11.5934
11.6046
11.6196
11.6375
11.6574
11.6788
11.7013
11.7246
11.7485
11.7729
11.7976
11.8226
11.8479
11.8735
11.8994
11.9257
11.9524
11.9795
12.0071
12.0353
12.0641
12.0937
12.1241
12.1553
12.1876
12.2208
12.2551
12.2905
12.3268
12.3641
12.4019
12.4401
12.4781
12.5153
12.5507
12.5832
12.6115
12.634
12.6491
12.6548
12.6499
12.6335
12.6007
12.5451
11.7473
11.702
11.6733
11.6557
11.6454
11.6417
11.6437
11.6505
11.6609
11.6744
11.6901
11.7076
11.7266
11.7468
11.7678
11.7896
11.8121
11.8353
11.8589
11.8831
11.9078
11.933
11.9587
11.985
12.0119
12.0393
12.0675
12.0963
12.1259
12.1563
12.1875
12.2195
12.2524
12.286
12.3203
12.355
12.3898
12.4245
12.4584
12.4909
12.5211
12.548
12.5705
12.5871
12.5966
12.5976
12.5893
12.5711
12.539
12.4873
11.7975
11.7547
11.7265
11.7082
11.696
11.6897
11.6886
11.6918
11.6987
11.7085
11.7208
11.735
11.751
11.7683
11.7868
11.8064
11.8269
11.8482
11.8703
11.893
11.9165
11.9407
11.9654
11.9908
12.0169
12.0436
12.0711
12.0991
12.1279
12.1574
12.1876
12.2185
12.2499
12.2819
12.3141
12.3465
12.3786
12.4101
12.4404
12.4688
12.4946
12.5168
12.5344
12.5463
12.5515
12.549
12.5381
12.5188
12.4876
12.4392
11.8406
11.7998
11.7722
11.7533
11.7399
11.7317
11.7282
11.7287
11.7327
11.7396
11.749
11.7605
11.7738
11.7887
11.805
11.8226
11.8412
11.8609
11.8815
11.903
11.9253
11.9484
11.9722
11.9968
12.0221
12.0481
12.0747
12.1021
12.1301
12.1587
12.1879
12.2176
12.2477
12.2781
12.3085
12.3387
12.3684
12.397
12.4242
12.4491
12.4711
12.4893
12.503
12.5112
12.513
12.5078
12.4951
12.4751
12.4447
12.3991
11.8775
11.8382
11.8112
11.792
11.7777
11.768
11.7627
11.7611
11.7629
11.7675
11.7745
11.7837
11.7949
11.8077
11.8221
11.8378
11.8549
11.873
11.8923
11.9126
11.9338
11.9559
11.9789
12.0026
12.0272
12.0524
12.0784
12.105
12.1322
12.16
12.1883
12.2169
12.2458
12.2747
12.3035
12.3318
12.3592
12.3854
12.4098
12.4317
12.4505
12.4655
12.476
12.4811
12.4803
12.473
12.4591
12.4387
12.4091
12.3658
11.9089
11.8708
11.8442
11.8248
11.8098
11.7991
11.7924
11.7893
11.7892
11.7919
11.7971
11.8045
11.8138
11.8249
11.8376
11.8518
11.8674
11.8843
11.9024
11.9216
11.9418
11.963
11.9852
12.0082
12.032
12.0565
12.0818
12.1078
12.1343
12.1613
12.1887
12.2163
12.2441
12.2718
12.2991
12.3257
12.3512
12.3752
12.3972
12.4167
12.4329
12.4452
12.453
12.4558
12.4529
12.4441
12.4292
12.4086
12.3797
12.3384
11.935
11.8979
11.8716
11.8522
11.8367
11.8253
11.8175
11.8131
11.8117
11.813
11.8167
11.8225
11.8303
11.84
11.8513
11.8643
11.8787
11.8944
11.9115
11.9297
11.9491
11.9695
11.9909
12.0132
12.0364
12.0603
12.085
12.1103
12.1362
12.1625
12.1891
12.2159
12.2427
12.2692
12.2953
12.3204
12.3443
12.3665
12.3866
12.4039
12.418
12.4281
12.4339
12.4348
12.4303
12.4203
12.4048
12.3841
12.3558
12.3162
11.9564
11.92
11.894
11.8745
11.8588
11.8467
11.8382
11.8329
11.8304
11.8305
11.833
11.8377
11.8443
11.8528
11.8631
11.8749
11.8883
11.9031
11.9193
11.9368
11.9554
11.9751
11.9959
12.0176
12.0402
12.0637
12.0878
12.1126
12.1379
12.1636
12.1896
12.2156
12.2416
12.2671
12.2921
12.316
12.3386
12.3593
12.3778
12.3934
12.4057
12.4142
12.4183
12.4177
12.4121
12.4012
12.3852
12.3645
12.3368
12.2985
11.9732
11.9374
11.9117
11.8921
11.8761
11.8637
11.8546
11.8486
11.8453
11.8446
11.8462
11.8499
11.8557
11.8633
11.8726
11.8837
11.8963
11.9103
11.9258
11.9426
11.9606
11.9798
12
12.0213
12.0434
12.0664
12.0901
12.1145
12.1393
12.1645
12.1899
12.2154
12.2407
12.2655
12.2895
12.3125
12.334
12.3536
12.3708
12.3851
12.3961
12.4032
12.4061
12.4044
12.3979
12.3863
12.37
12.3493
12.3221
12.2848
11.9857
11.9502
11.9247
11.9051
11.889
11.8763
11.8668
11.8603
11.8565
11.8551
11.8561
11.8592
11.8642
11.8712
11.8799
11.8903
11.9023
11.9158
11.9308
11.9471
11.9646
11.9834
12.0032
12.0241
12.0459
12.0686
12.0919
12.1159
12.1404
12.1652
12.1902
12.2152
12.24
12.2642
12.2876
12.3099
12.3306
12.3493
12.3655
12.3789
12.3889
12.3951
12.3971
12.3946
12.3874
12.3754
12.3589
12.3382
12.3114
12.2748
11.9939
11.9587
11.9333
11.9137
11.8975
11.8846
11.8749
11.8681
11.8639
11.8622
11.8627
11.8654
11.87
11.8765
11.8848
11.8948
11.9064
11.9195
11.9341
11.9501
11.9674
11.9858
12.0054
12.026
12.0476
12.07
12.0932
12.1169
12.1411
12.1657
12.1905
12.2151
12.2395
12.2634
12.2864
12.3081
12.3283
12.3464
12.3621
12.3748
12.3841
12.3897
12.3911
12.3881
12.3805
12.3683
12.3516
12.331
12.3044
12.2684
11.998
11.963
11.9376
11.918
11.9017
11.8887
11.8789
11.8719
11.8676
11.8657
11.866
11.8685
11.8729
11.8792
11.8873
11.8971
11.9085
11.9214
11.9358
11.9516
11.9688
11.9871
12.0065
12.027
12.0485
12.0707
12.0938
12.1174
12.1415
12.166
12.1906
12.2151
12.2393
12.263
12.2857
12.3073
12.3271
12.345
12.3603
12.3727
12.3818
12.387
12.3882
12.3849
12.3771
12.3648
12.348
12.3274
12.3009
12.2651
11.998
11.963
11.9376
11.918
11.9017
11.8887
11.8789
11.8719
11.8676
11.8657
11.866
11.8685
11.8729
11.8792
11.8873
11.8971
11.9085
11.9214
11.9358
11.9516
11.9688
11.9871
12.0065
12.027
12.0485
12.0707
12.0938
12.1174
12.1415
12.166
12.1906
12.2151
12.2393
12.263
12.2857
12.3073
12.3271
12.345
12.3603
12.3727
12.3818
12.387
12.3882
12.3849
12.3771
12.3648
12.348
12.3274
12.3009
12.2651
11.9939
11.9587
11.9333
11.9137
11.8975
11.8846
11.8749
11.8681
11.8639
11.8622
11.8627
11.8654
11.87
11.8765
11.8848
11.8948
11.9064
11.9195
11.9341
11.9501
11.9674
11.9858
12.0054
12.026
12.0476
12.07
12.0932
12.1169
12.1411
12.1657
12.1905
12.2151
12.2395
12.2634
12.2864
12.3081
12.3283
12.3464
12.3621
12.3748
12.3841
12.3897
12.3911
12.3881
12.3805
12.3683
12.3516
12.331
12.3044
12.2684
11.9857
11.9502
11.9247
11.9051
11.889
11.8763
11.8668
11.8603
11.8565
11.8552
11.8561
11.8592
11.8642
11.8712
11.8799
11.8903
11.9023
11.9158
11.9308
11.9471
11.9646
11.9834
12.0033
12.0241
12.0459
12.0686
12.0919
12.1159
12.1404
12.1652
12.1902
12.2152
12.24
12.2642
12.2876
12.3099
12.3306
12.3493
12.3655
12.3789
12.3889
12.3951
12.3971
12.3946
12.3874
12.3754
12.3589
12.3382
12.3114
12.2748
11.9732
11.9374
11.9117
11.8921
11.8761
11.8637
11.8546
11.8486
11.8453
11.8446
11.8462
11.8499
11.8557
11.8633
11.8726
11.8837
11.8963
11.9103
11.9258
11.9426
11.9606
11.9798
12
12.0213
12.0434
12.0664
12.0901
12.1145
12.1393
12.1645
12.1899
12.2154
12.2407
12.2655
12.2895
12.3125
12.334
12.3536
12.3708
12.3851
12.3961
12.4032
12.4061
12.4044
12.3979
12.3863
12.37
12.3493
12.3221
12.2848
11.9564
11.92
11.894
11.8745
11.8588
11.8467
11.8382
11.8329
11.8304
11.8306
11.833
11.8377
11.8443
11.8528
11.8631
11.8749
11.8883
11.9032
11.9193
11.9368
11.9554
11.9751
11.9959
12.0176
12.0402
12.0637
12.0878
12.1126
12.1379
12.1636
12.1896
12.2156
12.2416
12.2671
12.2921
12.316
12.3386
12.3593
12.3778
12.3934
12.4057
12.4142
12.4183
12.4177
12.4121
12.4012
12.3852
12.3645
12.3368
12.2985
11.935
11.8979
11.8716
11.8522
11.8367
11.8253
11.8175
11.8131
11.8117
11.813
11.8167
11.8225
11.8303
11.84
11.8513
11.8643
11.8787
11.8944
11.9115
11.9297
11.9491
11.9695
11.9909
12.0132
12.0364
12.0603
12.085
12.1103
12.1362
12.1625
12.1891
12.2159
12.2427
12.2692
12.2953
12.3204
12.3443
12.3665
12.3866
12.4039
12.418
12.4281
12.4339
12.4348
12.4303
12.4203
12.4048
12.3841
12.3558
12.3162
11.9089
11.8708
11.8442
11.8248
11.8098
11.7991
11.7924
11.7893
11.7892
11.7919
11.7971
11.8045
11.8138
11.8249
11.8376
11.8518
11.8674
11.8843
11.9024
11.9216
11.9418
11.963
11.9852
12.0082
12.032
12.0566
12.0818
12.1078
12.1343
12.1613
12.1887
12.2163
12.2441
12.2718
12.2991
12.3257
12.3512
12.3752
12.3972
12.4167
12.4329
12.4452
12.453
12.4558
12.4529
12.4441
12.4292
12.4086
12.3797
12.3384
11.8775
11.8382
11.8112
11.792
11.7777
11.768
11.7627
11.7612
11.7629
11.7675
11.7745
11.7837
11.7949
11.8077
11.8221
11.8378
11.8549
11.8731
11.8923
11.9126
11.9338
11.9559
11.9789
12.0026
12.0272
12.0524
12.0784
12.105
12.1322
12.16
12.1883
12.2169
12.2458
12.2747
12.3035
12.3318
12.3592
12.3854
12.4098
12.4317
12.4505
12.4655
12.476
12.4811
12.4803
12.473
12.4591
12.4387
12.4091
12.3658
11.8406
11.7998
11.7722
11.7533
11.7399
11.7317
11.7282
11.7287
11.7327
11.7396
11.749
11.7605
11.7738
11.7887
11.805
11.8226
11.8412
11.8609
11.8815
11.903
11.9253
11.9484
11.9722
11.9968
12.0221
12.0481
12.0747
12.1021
12.1301
12.1587
12.1879
12.2176
12.2477
12.2781
12.3085
12.3387
12.3684
12.397
12.4242
12.4491
12.4711
12.4893
12.503
12.5112
12.513
12.5078
12.4951
12.4751
12.4447
12.3991
11.7975
11.7547
11.7265
11.7082
11.696
11.6897
11.6886
11.6918
11.6987
11.7085
11.7208
11.735
11.751
11.7683
11.7868
11.8064
11.8269
11.8482
11.8703
11.8931
11.9165
11.9407
11.9654
11.9909
12.0169
12.0437
12.0711
12.0991
12.1279
12.1574
12.1876
12.2185
12.2499
12.2819
12.3141
12.3465
12.3786
12.4101
12.4404
12.4688
12.4946
12.5168
12.5344
12.5463
12.5515
12.549
12.5381
12.5188
12.4876
12.4392
11.7473
11.702
11.6733
11.6557
11.6454
11.6417
11.6438
11.6505
11.661
11.6744
11.6901
11.7077
11.7266
11.7468
11.7678
11.7897
11.8122
11.8353
11.8589
11.8831
11.9078
11.933
11.9587
11.985
12.0119
12.0393
12.0675
12.0963
12.1259
12.1563
12.1875
12.2196
12.2524
12.286
12.3203
12.355
12.3899
12.4245
12.4584
12.4909
12.5211
12.548
12.5705
12.5871
12.5966
12.5976
12.5893
12.5711
12.539
12.4873
11.689
11.6406
11.6113
11.595
11.5873
11.5871
11.5934
11.6046
11.6196
11.6375
11.6574
11.6788
11.7014
11.7247
11.7485
11.7729
11.7976
11.8226
11.8479
11.8735
11.8994
11.9257
11.9524
11.9795
12.0071
12.0353
12.0641
12.0937
12.1241
12.1553
12.1876
12.2208
12.2551
12.2905
12.3268
12.3641
12.4019
12.4401
12.4782
12.5153
12.5507
12.5832
12.6115
12.634
12.6491
12.6548
12.6499
12.6335
12.6007
12.5451
11.621
11.5687
11.5388
11.5246
11.5207
11.5255
11.5372
11.5542
11.575
11.5982
11.6232
11.6492
11.6757
11.7026
11.7296
11.7566
11.7836
11.8106
11.8376
11.8646
11.8917
11.919
11.9466
11.9745
12.0028
12.0317
12.0612
12.0914
12.1225
12.1546
12.1878
12.2223
12.258
12.2952
12.3337
12.3736
12.4147
12.4568
12.4993
12.5418
12.5832
12.6223
12.6578
12.6876
12.7097
12.7218
12.7218
12.7081
12.6749
12.6147
11.5413
11.4839
11.4538
11.443
11.4445
11.456
11.4752
11.4996
11.5275
11.5573
11.5882
11.6194
11.6505
11.6813
11.7116
11.7415
11.7708
11.7998
11.8284
11.8568
11.8851
11.9134
11.9417
11.9703
11.9992
12.0287
12.0587
12.0895
12.1213
12.1541
12.1883
12.2238
12.261
12.2999
12.3407
12.3833
12.4278
12.4741
12.5216
12.57
12.6183
12.6653
12.7094
12.7484
12.7796
12.8001
12.8069
12.7976
12.7645
12.6987
11.4466
11.3828
11.3533
11.3479
11.3574
11.3783
11.4073
11.4413
11.4779
11.5156
11.5534
11.5905
11.6266
11.6616
11.6954
11.7281
11.7599
11.7907
11.8209
11.8506
11.8799
11.9089
11.938
11.9671
11.9965
12.0264
12.0568
12.0881
12.1204
12.1539
12.1888
12.2254
12.2639
12.3046
12.3475
12.3929
12.441
12.4916
12.5445
12.5995
12.6556
12.7118
12.7662
12.8165
12.8596
12.8914
12.908
12.9054
12.8736
12.801
11.3323
11.2605
11.2333
11.2366
11.258
11.2919
11.3339
11.3799
11.4274
11.4744
11.52
11.5637
11.6052
11.6446
11.6819
11.7174
11.7513
11.784
11.8155
11.8462
11.8763
11.906
11.9355
11.965
11.9948
12.0249
12.0556
12.0872
12.1199
12.1539
12.1894
12.2269
12.2666
12.3088
12.3538
12.4019
12.4535
12.5086
12.5673
12.6293
12.6943
12.761
12.8278
12.8922
12.9504
12.9977
13.0283
13.0363
13.0078
12.9272
11.191
11.1098
11.0882
11.1058
11.1448
11.1969
11.2559
11.3172
11.3776
11.4354
11.4898
11.5404
11.5875
11.6312
11.6719
11.71
11.7459
11.78
11.8126
11.8441
11.8748
11.9048
11.9346
11.9642
11.9941
12.0242
12.0551
12.0868
12.1196
12.1539
12.1899
12.228
12.2687
12.3122
12.3591
12.4097
12.4647
12.5242
12.5888
12.6584
12.7329
12.8116
12.8931
12.9748
13.0526
13.1207
13.1716
13.1964
13.1753
13.0857
11.0108
10.9198
10.9106
10.9518
11.0168
11.094
11.1754
11.2553
11.331
11.4008
11.4646
11.5224
11.5749
11.6227
11.6664
11.7066
11.7441
11.7792
11.8126
11.8445
11.8753
11.9055
11.9352
11.9647
11.9944
12.0244
12.0551
12.0867
12.1195
12.1538
12.19
12.2285
12.2698
12.3144
12.3627
12.4156
12.4736
12.5374
12.6076
12.685
12.7697
12.8616
12.96
13.0626
13.1655
13.2618
13.3424
13.394
13.3879
13.29
10.7706
10.6741
10.6908
10.7707
10.8744
10.9859
11.0956
11.198
11.2909
11.3737
11.4469
11.5117
11.5691
11.6202
11.6662
11.708
11.7464
11.7821
11.8156
11.8475
11.8782
11.908
11.9374
11.9665
11.9958
12.0254
12.0556
12.0868
12.1193
12.1533
12.1894
12.228
12.2696
12.3147
12.3641
12.4186
12.4791
12.5465
12.6221
12.7068
12.8018
12.9079
13.0252
13.1526
13.287
13.4213
13.5448
13.6396
13.6634
13.5629
10.4316
10.3475
10.4175
10.5605
10.7206
10.8778
11.0225
11.1508
11.262
11.3576
11.4397
11.5103
11.5715
11.625
11.6723
11.7147
11.7533
11.7887
11.8218
11.8532
11.8832
11.9124
11.941
11.9694
11.998
12.0268
12.0564
12.0869
12.1188
12.1523
12.1879
12.2261
12.2674
12.3126
12.3624
12.4178
12.4799
12.55
12.6298
12.721
12.8257
12.9459
13.0833
13.2389
13.4116
13.5961
13.7814
13.9453
14.0286
13.9462
9.92209
9.90243
10.0794
10.324
10.5644
10.7802
10.9656
11.1212
11.2502
11.3571
11.4459
11.5205
11.5836
11.6379
11.6852
11.7271
11.7648
11.7992
11.8313
11.8615
11.8904
11.9184
11.946
11.9733
12.0008
12.0287
12.0573
12.0868
12.1177
12.1503
12.185
12.2223
12.2629
12.3074
12.3567
12.412
12.4745
12.5459
12.6283
12.7242
12.8367
12.9694
13.1264
13.3119
13.5286
13.7773
14.0494
14.3231
14.5225
14.5153
9.11155
9.28909
9.66901
10.071
10.4214
10.708
10.9369
11.1182
11.2616
11.376
11.4682
11.5437
11.6063
11.6593
11.7049
11.7449
11.7807
11.8133
11.8435
11.872
11.8993
11.9258
11.9519
11.9779
12.004
12.0306
12.0579
12.0862
12.1158
12.1471
12.1805
12.2164
12.2556
12.2987
12.3466
12.4005
12.462
12.5328
12.6155
12.7132
12.8301
12.9717
13.1451
13.3589
13.6232
13.948
14.3385
14.7806
15.196
15.4044
7.70342
8.46724
9.21078
9.83484
10.3221
10.6851
10.9528
11.152
11.3023
11.4178
11.5082
11.5805
11.6396
11.6889
11.731
11.7677
11.8005
11.8303
11.8581
11.8843
11.9095
11.9341
11.9585
11.9828
12.0073
12.0324
12.0582
12.0849
12.1129
12.1426
12.1742
12.2083
12.2453
12.2862
12.3317
12.383
12.4416
12.5095
12.5895
12.685
12.8013
12.9454
13.1275
13.3618
13.6686
14.0758
14.6131
15.2912
16.0891
16.9178
4.8681
7.46788
8.88588
9.76991
10.3743
10.7816
11.0575
11.2505
11.39
11.494
11.5737
11.6366
11.6874
11.7296
11.7657
11.7972
11.8255
11.8514
11.8757
11.8989
11.9215
11.9437
11.9657
11.988
12.0106
12.0337
12.0576
12.0824
12.1084
12.1358
12.165
12.1965
12.2306
12.268
12.3096
12.3563
12.4096
12.4714
12.544
12.6311
12.7379
12.8719
13.0448
13.2751
13.5933
14.0496
14.7137
15.6703
17.1739
19.8913
8.6507e-05
6.38529
9.05023
10.1463
10.7396
11.09
11.3051
11.4467
11.5461
11.6194
11.6754
11.7198
11.756
11.7865
11.813
11.8366
11.8582
11.8786
11.8981
11.9172
11.9362
11.9551
11.9743
11.9938
12.0138
12.0345
12.0558
12.078
12.1013
12.1257
12.1517
12.1794
12.2092
12.2416
12.2772
12.3168
12.3614
12.4124
12.4716
12.5416
12.6262
12.7312
12.8659
13.0469
13.3062
13.7076
14.3679
15.5589
18.3399
24.8493
)
;

boundaryField
{
    movingWallTop
    {
        type            zeroGradient;
    }
    movingWallBottom
    {
        type            zeroGradient;
    }
    fixedWalls
    {
        type            zeroGradient;
    }
    frontAndBack
    {
        type            empty;
    }
}


// ************************************************************************* //
