/*--------------------------------*- C++ -*----------------------------------*\
  =========                 |
  \\      /  F ield         | OpenFOAM: The Open Source CFD Toolbox
   \\    /   O peration     | Website:  https://openfoam.org
    \\  /    A nd           | Version:  7
     \\/     M anipulation  |
\*---------------------------------------------------------------------------*/
FoamFile
{
    version     2.0;
    format      ascii;
    class       volScalarField;
    location    "0.0074";
    object      p;
}
// * * * * * * * * * * * * * * * * * * * * * * * * * * * * * * * * * * * * * //

dimensions      [0 2 -2 0 0 0 0];

internalField   nonuniform List<scalar> 
2500
(
5.91303e-07
6.37959
9.03315
10.115
10.6946
11.0337
11.2415
11.3801
11.481
11.5599
11.6256
11.6828
11.7346
11.7827
11.8284
11.8724
11.9152
11.9569
11.998
12.0385
12.0786
12.1183
12.1578
12.1971
12.2363
12.2756
12.315
12.3546
12.3945
12.435
12.4761
12.5181
12.5612
12.6058
12.6522
12.7012
12.7534
12.8101
12.8729
12.9442
13.0276
13.1289
13.2573
13.4295
13.6777
14.0664
14.713
15.8902
18.6596
25.1611
4.87256
7.4672
8.87604
9.74932
10.3435
10.7428
11.0139
11.2056
11.3476
11.4576
11.5464
11.6212
11.6862
11.7446
11.7981
11.8482
11.8957
11.9413
11.9855
12.0285
12.0707
12.1122
12.1532
12.1939
12.2345
12.275
12.3156
12.3566
12.3979
12.44
12.483
12.5271
12.5729
12.6208
12.6715
12.7258
12.785
12.8507
12.9254
13.0126
13.1172
13.2469
13.4137
13.636
13.9448
14.3909
15.0445
15.9912
17.486
20.1954
7.71942
8.47596
9.21056
9.82511
10.3037
10.6602
10.9244
11.1232
11.2766
11.3982
11.4976
11.5813
11.6539
11.7183
11.7768
11.8309
11.8817
11.9299
11.9763
12.0211
12.0648
12.1076
12.1497
12.1915
12.233
12.2744
12.316
12.3578
12.4002
12.4434
12.4876
12.5333
12.5808
12.6308
12.6841
12.7417
12.8049
12.8757
12.9566
13.0513
13.1648
13.3045
13.4805
13.7075
14.0063
14.4048
14.9337
15.6036
16.3931
17.2112
9.14243
9.31013
9.68038
10.0732
10.4153
10.6961
10.9221
11.1035
11.2502
11.3709
11.4719
11.5584
11.634
11.7014
11.7626
11.819
11.8718
11.9218
11.9696
12.0157
12.0605
12.1042
12.1472
12.1897
12.2319
12.274
12.3162
12.3587
12.4018
12.4457
12.4907
12.5373
12.5859
12.6372
12.6919
12.7512
12.8163
12.8891
12.9721
13.0684
13.1823
13.3194
13.4871
13.6945
13.9518
14.2691
14.6527
15.087
15.4928
15.6879
9.96831
9.93622
10.1029
10.3387
10.5715
10.7818
10.9647
11.1206
11.253
11.366
11.4634
11.5486
11.6242
11.6922
11.7543
11.8118
11.8656
11.9166
11.9653
12.0121
12.0576
12.1019
12.1455
12.1885
12.2312
12.2737
12.3164
12.3594
12.4029
12.4473
12.4928
12.54
12.5892
12.6411
12.6964
12.7563
12.8218
12.8946
12.9769
13.0711
13.1806
13.3091
13.4611
13.641
13.852
14.0938
14.3594
14.6255
14.8143
14.7911
10.4911
10.3928
10.4524
10.5871
10.7403
10.8926
11.0352
11.164
11.2786
11.3802
11.4705
11.5514
11.6244
11.691
11.7525
11.8097
11.8636
11.9147
11.9635
12.0107
12.0564
12.1011
12.1449
12.1881
12.2311
12.2739
12.3167
12.3599
12.4037
12.4483
12.4941
12.5414
12.5907
12.6426
12.6979
12.7573
12.8219
12.8932
12.9727
13.0623
13.1642
13.2807
13.4137
13.5645
13.732
13.9108
14.0897
14.2459
14.3179
14.2182
10.84
10.7286
10.7352
10.8075
10.9052
11.0126
11.1207
11.2241
11.3204
11.4091
11.4904
11.5649
11.6336
11.6973
11.7567
11.8126
11.8656
11.9161
11.9646
12.0115
12.0571
12.1016
12.1454
12.1887
12.2316
12.2744
12.3173
12.3605
12.4042
12.4488
12.4945
12.5416
12.5906
12.6421
12.6965
12.7547
12.8175
12.886
12.9613
13.0447
13.1373
13.2402
13.3538
13.477
13.6067
13.7359
13.8532
13.9402
13.9528
13.8351
11.0859
10.9805
10.9619
10.9965
11.0566
11.1308
11.2113
11.2927
11.3721
11.4478
11.5194
11.5867
11.6501
11.7098
11.7663
11.8201
11.8714
11.9207
11.9683
12.0145
12.0595
12.1037
12.1471
12.1901
12.2328
12.2754
12.3181
12.3611
12.4046
12.4489
12.4942
12.5408
12.5892
12.6397
12.6929
12.7492
12.8095
12.8744
12.9446
13.0209
13.1036
13.193
13.2882
13.3872
13.4859
13.5775
13.6521
13.6964
13.6798
13.5662
11.2678
11.1735
11.1436
11.1559
11.1912
11.2414
11.3005
11.3639
11.4284
11.4922
11.5544
11.6144
11.6719
11.7272
11.7802
11.8312
11.8803
11.928
11.9742
12.0194
12.0636
12.107
12.1499
12.1924
12.2347
12.2769
12.3192
12.3618
12.4048
12.4486
12.4933
12.5392
12.5866
12.6358
12.6873
12.7414
12.7987
12.8594
12.9242
12.9931
13.0661
13.1427
13.2215
13.3001
13.3743
13.4381
13.4838
13.5021
13.4719
13.3691
11.4068
11.3241
11.2902
11.2896
11.3085
11.3418
11.3848
11.4337
11.4858
11.5392
11.5927
11.6455
11.6973
11.7479
11.7971
11.8451
11.8918
11.9374
11.9821
12.0259
12.0689
12.1115
12.1536
12.1954
12.237
12.2786
12.3204
12.3624
12.4049
12.448
12.4919
12.5368
12.583
12.6307
12.6802
12.7317
12.7857
12.8421
12.9013
12.963
13.0268
13.0919
13.1566
13.2185
13.2738
13.3174
13.3437
13.3465
13.3109
13.2202
11.5157
11.4436
11.4094
11.4014
11.4099
11.4313
11.4623
11.4999
11.5418
11.5863
11.6321
11.6784
11.7247
11.7707
11.8162
11.8609
11.905
11.9485
11.9913
12.0336
12.0754
12.1168
12.158
12.1989
12.2398
12.2807
12.3218
12.3631
12.4048
12.447
12.4899
12.5337
12.5785
12.6244
12.6718
12.7206
12.7711
12.8232
12.8769
12.9318
12.9873
13.0424
13.0953
13.1437
13.1845
13.2137
13.2272
13.2209
13.1843
13.105
11.6026
11.5399
11.507
11.4951
11.4969
11.5101
11.5323
11.5612
11.5949
11.6318
11.671
11.7115
11.7528
11.7945
11.8363
11.8779
11.9194
11.9606
12.0015
12.0421
12.0825
12.1228
12.1628
12.2028
12.2428
12.2829
12.3231
12.3636
12.4044
12.4457
12.4875
12.53
12.5733
12.6174
12.6624
12.7085
12.7556
12.8035
12.852
12.9007
12.9488
12.9952
13.0383
13.0762
13.1061
13.1251
13.1302
13.1189
13.0835
13.0144
11.6729
11.6182
11.5875
11.5738
11.5714
11.5789
11.5947
11.6169
11.644
11.6749
11.7084
11.7439
11.7807
11.8184
11.8567
11.8954
11.9342
11.9732
12.0122
12.0512
12.0901
12.1291
12.168
12.207
12.246
12.2852
12.3245
12.3641
12.4039
12.4441
12.4847
12.5258
12.5675
12.6097
12.6525
12.6958
12.7395
12.7834
12.8272
12.8703
12.912
12.9511
12.9863
13.0159
13.0377
13.0495
13.0493
13.0355
13.0023
12.9423
11.7304
11.6825
11.6543
11.6399
11.635
11.6387
11.6498
11.6669
11.6889
11.7147
11.7435
11.7746
11.8075
11.8416
11.8768
11.9127
11.9491
11.9859
12.023
12.0604
12.0979
12.1355
12.1733
12.2111
12.2492
12.2874
12.3258
12.3643
12.4032
12.4423
12.4816
12.5213
12.5613
12.6016
12.6421
12.6828
12.7233
12.7636
12.8031
12.8413
12.8774
12.9105
12.9394
12.9626
12.9784
12.9852
12.9816
12.9669
12.9363
12.884
11.7779
11.7358
11.71
11.6957
11.6893
11.6904
11.698
11.7113
11.7292
11.751
11.7759
11.8033
11.8327
11.8638
11.8961
11.9295
11.9636
11.9984
12.0337
12.0695
12.1055
12.1419
12.1785
12.2153
12.2523
12.2895
12.3269
12.3645
12.4022
12.4402
12.4783
12.5166
12.5549
12.5934
12.6317
12.6698
12.7075
12.7444
12.7801
12.8141
12.8455
12.8737
12.8975
12.9157
12.9272
12.9306
12.925
12.9101
12.8823
12.8366
11.8173
11.78
11.7565
11.7426
11.7355
11.7348
11.74
11.7504
11.7651
11.7836
11.8053
11.8296
11.8561
11.8844
11.9142
11.9453
11.9774
12.0103
12.044
12.0782
12.1129
12.148
12.1835
12.2192
12.2552
12.2914
12.3278
12.3644
12.4012
12.438
12.4749
12.5117
12.5485
12.5852
12.6215
12.6573
12.6923
12.7262
12.7586
12.7889
12.8165
12.8406
12.8604
12.8749
12.8831
12.8842
12.8776
12.8631
12.8378
12.7977
11.8502
11.8169
11.7954
11.7822
11.7747
11.7728
11.7763
11.7844
11.7967
11.8126
11.8316
11.8533
11.8773
11.9033
11.9309
11.96
11.9902
12.0215
12.0536
12.0864
12.1198
12.1538
12.1882
12.2229
12.2579
12.2932
12.3287
12.3643
12.4
12.4357
12.4714
12.5069
12.5423
12.5773
12.6117
12.6454
12.678
12.7093
12.7389
12.7661
12.7905
12.8114
12.828
12.8396
12.8455
12.8451
12.8379
12.824
12.801
12.7655
11.8777
11.8476
11.8279
11.8153
11.8077
11.8051
11.8073
11.8137
11.8241
11.8379
11.8548
11.8744
11.8963
11.9203
11.946
11.9733
12.0019
12.0317
12.0624
12.094
12.1262
12.1591
12.1925
12.2262
12.2604
12.2947
12.3293
12.364
12.3987
12.4334
12.468
12.5023
12.5363
12.5698
12.6025
12.6343
12.6649
12.694
12.7211
12.7457
12.7675
12.7858
12.7999
12.8094
12.8136
12.8121
12.8047
12.7916
12.7707
12.7389
11.9004
11.8731
11.8548
11.8429
11.8354
11.8323
11.8335
11.8387
11.8476
11.8597
11.8749
11.8927
11.9129
11.9352
11.9594
11.9852
12.0124
12.0408
12.0703
12.1008
12.132
12.1639
12.1963
12.2292
12.2625
12.2961
12.3298
12.3636
12.3975
12.4313
12.4648
12.4981
12.5308
12.5629
12.5942
12.6244
12.6532
12.6803
12.7054
12.7279
12.7475
12.7637
12.776
12.7839
12.7869
12.7847
12.7773
12.7649
12.7457
12.7169
11.9191
11.8939
11.8769
11.8655
11.8581
11.8547
11.8553
11.8596
11.8673
11.8782
11.892
11.9084
11.9272
11.9481
11.9709
11.9954
12.0214
12.0488
12.0772
12.1067
12.137
12.168
12.1997
12.2318
12.2644
12.2972
12.3302
12.3633
12.3963
12.4293
12.4619
12.4942
12.5259
12.5568
12.5868
12.6156
12.6429
12.6684
12.6918
12.7127
12.7306
12.7452
12.7559
12.7626
12.7647
12.7622
12.7549
12.7431
12.7253
12.699
11.9342
11.9106
11.8946
11.8837
11.8765
11.8729
11.873
11.8766
11.8834
11.8933
11.906
11.9213
11.939
11.9588
11.9806
12.004
12.0291
12.0555
12.0831
12.1117
12.1413
12.1716
12.2025
12.234
12.2659
12.2981
12.3305
12.3629
12.3953
12.4275
12.4594
12.4908
12.5216
12.5516
12.5805
12.6081
12.6342
12.6584
12.6805
12.7
12.7166
12.7299
12.7396
12.7453
12.7469
12.744
12.7369
12.7257
12.709
12.6845
11.946
11.9236
11.9084
11.8979
11.8908
11.8871
11.8869
11.89
11.8962
11.9053
11.9172
11.9317
11.9485
11.9674
11.9883
12.011
12.0352
12.0609
12.0878
12.1158
12.1447
12.1744
12.2048
12.2358
12.2672
12.2988
12.3307
12.3626
12.3944
12.426
12.4573
12.488
12.5181
12.5473
12.5753
12.6021
12.6272
12.6504
12.6714
12.6899
12.7054
12.7178
12.7267
12.7318
12.7329
12.7299
12.7229
12.7122
12.6963
12.6733
11.9546
11.9332
11.9185
11.9083
11.9013
11.8976
11.8971
11.8999
11.9056
11.9142
11.9256
11.9394
11.9555
11.9739
11.9941
12.0162
12.0399
12.065
12.0914
12.1188
12.1473
12.1766
12.2066
12.2371
12.2681
12.2993
12.3308
12.3623
12.3937
12.4249
12.4557
12.4859
12.5154
12.544
12.5714
12.5975
12.6219
12.6443
12.6646
12.6823
12.6971
12.7089
12.7172
12.7218
12.7226
12.7196
12.7127
12.7023
12.6871
12.6651
11.9603
11.9394
11.9251
11.9151
11.9082
11.9044
11.9039
11.9064
11.9119
11.9201
11.9311
11.9445
11.9603
11.9782
11.998
12.0197
12.043
12.0677
12.0937
12.1209
12.1491
12.178
12.2077
12.238
12.2687
12.2997
12.3309
12.3621
12.3932
12.4241
12.4546
12.4845
12.5136
12.5418
12.5688
12.5944
12.6183
12.6403
12.66
12.6773
12.6916
12.7029
12.7109
12.7152
12.7159
12.7128
12.706
12.6958
12.681
12.6596
11.9631
11.9425
11.9284
11.9185
11.9116
11.9078
11.9072
11.9096
11.915
11.9231
11.9338
11.9471
11.9626
11.9803
12
12.0214
12.0445
12.0691
12.0949
12.1219
12.1499
12.1788
12.2083
12.2384
12.269
12.2999
12.3309
12.362
12.393
12.4237
12.454
12.4837
12.5127
12.5407
12.5675
12.5928
12.6165
12.6383
12.6578
12.6747
12.6889
12.7
12.7077
12.712
12.7125
12.7094
12.7027
12.6926
12.678
12.657
11.9631
11.9425
11.9284
11.9185
11.9116
11.9078
11.9072
11.9096
11.915
11.9231
11.9338
11.9471
11.9626
11.9803
12
12.0214
12.0445
12.0691
12.0949
12.1219
12.1499
12.1788
12.2083
12.2384
12.269
12.2999
12.3309
12.362
12.393
12.4237
12.454
12.4837
12.5127
12.5407
12.5675
12.5928
12.6165
12.6383
12.6578
12.6747
12.6889
12.7
12.7077
12.712
12.7125
12.7094
12.7027
12.6926
12.678
12.657
11.9603
11.9394
11.9251
11.9151
11.9082
11.9044
11.9039
11.9064
11.9119
11.9201
11.9311
11.9445
11.9603
11.9782
11.998
12.0197
12.043
12.0677
12.0937
12.1209
12.1491
12.178
12.2077
12.238
12.2687
12.2997
12.3309
12.3621
12.3932
12.4241
12.4546
12.4845
12.5136
12.5418
12.5688
12.5944
12.6183
12.6403
12.66
12.6773
12.6916
12.7029
12.7109
12.7152
12.7159
12.7128
12.706
12.6958
12.681
12.6596
11.9546
11.9332
11.9185
11.9083
11.9013
11.8976
11.8971
11.8999
11.9056
11.9142
11.9256
11.9394
11.9555
11.9739
11.9941
12.0162
12.0399
12.065
12.0914
12.1188
12.1473
12.1766
12.2066
12.2371
12.2681
12.2993
12.3308
12.3623
12.3937
12.4249
12.4557
12.4859
12.5154
12.544
12.5714
12.5975
12.6219
12.6443
12.6646
12.6823
12.6971
12.7089
12.7171
12.7218
12.7226
12.7196
12.7127
12.7023
12.6871
12.6651
11.946
11.9236
11.9084
11.8979
11.8908
11.8871
11.8869
11.89
11.8962
11.9053
11.9172
11.9317
11.9485
11.9674
11.9883
12.011
12.0352
12.0609
12.0878
12.1158
12.1447
12.1744
12.2048
12.2358
12.2672
12.2988
12.3307
12.3626
12.3944
12.426
12.4573
12.488
12.5181
12.5473
12.5753
12.6021
12.6272
12.6504
12.6714
12.6899
12.7054
12.7178
12.7267
12.7318
12.7329
12.7299
12.7229
12.7122
12.6963
12.6733
11.9342
11.9106
11.8946
11.8837
11.8765
11.8729
11.873
11.8766
11.8834
11.8933
11.906
11.9213
11.939
11.9588
11.9806
12.004
12.0291
12.0555
12.0831
12.1117
12.1413
12.1716
12.2025
12.234
12.2659
12.2981
12.3305
12.3629
12.3953
12.4275
12.4594
12.4908
12.5216
12.5516
12.5805
12.6081
12.6342
12.6584
12.6805
12.7
12.7166
12.7299
12.7396
12.7453
12.7469
12.744
12.7369
12.7257
12.709
12.6845
11.9191
11.8939
11.8769
11.8655
11.8581
11.8547
11.8553
11.8596
11.8673
11.8782
11.892
11.9084
11.9272
11.9481
11.9709
11.9954
12.0214
12.0488
12.0772
12.1067
12.137
12.1681
12.1997
12.2318
12.2644
12.2972
12.3302
12.3633
12.3963
12.4293
12.4619
12.4942
12.5259
12.5568
12.5868
12.6156
12.6429
12.6684
12.6918
12.7127
12.7306
12.7451
12.7559
12.7626
12.7647
12.7622
12.7549
12.7431
12.7253
12.6989
11.9004
11.8731
11.8548
11.8429
11.8354
11.8323
11.8335
11.8387
11.8476
11.8597
11.8749
11.8927
11.9129
11.9352
11.9594
11.9852
12.0124
12.0408
12.0703
12.1008
12.132
12.1639
12.1963
12.2292
12.2625
12.2961
12.3298
12.3637
12.3975
12.4313
12.4648
12.4981
12.5308
12.5629
12.5942
12.6244
12.6532
12.6803
12.7053
12.7279
12.7475
12.7637
12.776
12.7838
12.7869
12.7847
12.7773
12.7649
12.7456
12.7169
11.8777
11.8476
11.8279
11.8153
11.8077
11.8051
11.8073
11.8137
11.8241
11.8379
11.8548
11.8744
11.8963
11.9203
11.946
11.9733
12.0019
12.0317
12.0624
12.094
12.1262
12.1591
12.1925
12.2262
12.2604
12.2947
12.3293
12.364
12.3987
12.4334
12.468
12.5023
12.5363
12.5698
12.6025
12.6343
12.6649
12.694
12.7211
12.7457
12.7675
12.7858
12.7999
12.8094
12.8136
12.8121
12.8047
12.7916
12.7706
12.7389
11.8502
11.8169
11.7954
11.7822
11.7747
11.7728
11.7763
11.7844
11.7967
11.8126
11.8316
11.8533
11.8773
11.9033
11.9309
11.96
11.9902
12.0215
12.0536
12.0864
12.1198
12.1538
12.1882
12.2229
12.2579
12.2932
12.3287
12.3643
12.4
12.4357
12.4714
12.5069
12.5423
12.5773
12.6117
12.6454
12.678
12.7093
12.7389
12.7661
12.7905
12.8113
12.828
12.8396
12.8455
12.845
12.8378
12.824
12.801
12.7655
11.8173
11.78
11.7565
11.7426
11.7355
11.7348
11.74
11.7504
11.7651
11.7836
11.8053
11.8296
11.8561
11.8844
11.9142
11.9453
11.9774
12.0103
12.044
12.0782
12.1129
12.148
12.1835
12.2192
12.2552
12.2914
12.3279
12.3644
12.4012
12.438
12.4749
12.5117
12.5485
12.5852
12.6215
12.6573
12.6923
12.7262
12.7586
12.7889
12.8165
12.8406
12.8604
12.8749
12.8831
12.8842
12.8776
12.863
12.8378
12.7976
11.7779
11.7358
11.71
11.6957
11.6893
11.6904
11.698
11.7113
11.7292
11.751
11.7759
11.8033
11.8327
11.8638
11.8961
11.9295
11.9636
11.9984
12.0337
12.0695
12.1055
12.1419
12.1785
12.2153
12.2523
12.2895
12.3269
12.3645
12.4022
12.4402
12.4783
12.5166
12.5549
12.5934
12.6317
12.6698
12.7075
12.7444
12.7801
12.814
12.8455
12.8737
12.8975
12.9157
12.9272
12.9305
12.925
12.9101
12.8823
12.8366
11.7304
11.6825
11.6543
11.6399
11.635
11.6387
11.6498
11.6669
11.6889
11.7147
11.7435
11.7746
11.8075
11.8417
11.8768
11.9127
11.9491
11.9859
12.0231
12.0604
12.0979
12.1355
12.1733
12.2112
12.2492
12.2874
12.3258
12.3643
12.4032
12.4423
12.4816
12.5213
12.5613
12.6016
12.6421
12.6827
12.7233
12.7636
12.8031
12.8413
12.8774
12.9105
12.9394
12.9625
12.9784
12.9852
12.9816
12.9668
12.9363
12.884
11.6729
11.6182
11.5875
11.5738
11.5714
11.5789
11.5947
11.6169
11.6441
11.6749
11.7084
11.7439
11.7807
11.8184
11.8567
11.8954
11.9343
11.9732
12.0122
12.0512
12.0901
12.1291
12.168
12.207
12.246
12.2852
12.3245
12.3641
12.4039
12.4441
12.4847
12.5258
12.5675
12.6097
12.6524
12.6957
12.7395
12.7834
12.8272
12.8703
12.912
12.9511
12.9863
13.0159
13.0377
13.0495
13.0493
13.0355
13.0022
12.9422
11.6026
11.5399
11.507
11.4951
11.4969
11.5101
11.5323
11.5612
11.5949
11.6319
11.671
11.7115
11.7529
11.7945
11.8363
11.8779
11.9194
11.9606
12.0015
12.0421
12.0825
12.1228
12.1628
12.2028
12.2428
12.2829
12.3231
12.3636
12.4045
12.4457
12.4875
12.53
12.5733
12.6174
12.6624
12.7085
12.7555
12.8035
12.852
12.9007
12.9488
12.9952
13.0383
13.0762
13.1061
13.1251
13.1302
13.1189
13.0834
13.0144
11.5157
11.4436
11.4094
11.4014
11.4099
11.4313
11.4623
11.4999
11.5418
11.5863
11.6321
11.6784
11.7247
11.7707
11.8162
11.8609
11.905
11.9485
11.9913
12.0336
12.0754
12.1168
12.158
12.1989
12.2398
12.2807
12.3218
12.3631
12.4048
12.447
12.4899
12.5337
12.5785
12.6244
12.6718
12.7206
12.7711
12.8232
12.8769
12.9318
12.9873
13.0423
13.0952
13.1437
13.1845
13.2137
13.2272
13.2209
13.1843
13.105
11.4068
11.3241
11.2902
11.2896
11.3085
11.3418
11.3848
11.4337
11.4858
11.5392
11.5927
11.6455
11.6973
11.7479
11.7971
11.8451
11.8918
11.9374
11.9821
12.0259
12.069
12.1115
12.1536
12.1954
12.237
12.2787
12.3204
12.3624
12.4049
12.448
12.4919
12.5368
12.583
12.6307
12.6802
12.7317
12.7856
12.8421
12.9013
12.963
13.0268
13.0919
13.1566
13.2185
13.2737
13.3174
13.3437
13.3465
13.3109
13.2201
11.2678
11.1735
11.1436
11.1559
11.1912
11.2414
11.3005
11.3639
11.4284
11.4922
11.5544
11.6144
11.6719
11.7272
11.7802
11.8312
11.8804
11.928
11.9742
12.0194
12.0636
12.107
12.1499
12.1924
12.2347
12.2769
12.3192
12.3618
12.4048
12.4486
12.4933
12.5392
12.5866
12.6358
12.6873
12.7414
12.7986
12.8594
12.9242
12.9931
13.0661
13.1427
13.2215
13.3001
13.3743
13.4381
13.4838
13.5021
13.4719
13.3691
11.0859
10.9805
10.9619
10.9965
11.0566
11.1308
11.2113
11.2927
11.3721
11.4478
11.5194
11.5867
11.6501
11.7098
11.7663
11.8201
11.8714
11.9207
11.9683
12.0145
12.0595
12.1037
12.1471
12.1901
12.2328
12.2754
12.3181
12.3611
12.4046
12.4489
12.4942
12.5408
12.5892
12.6397
12.6928
12.7492
12.8095
12.8744
12.9446
13.0208
13.1036
13.193
13.2881
13.3872
13.4859
13.5775
13.6521
13.6964
13.6798
13.5662
10.84
10.7286
10.7352
10.8075
10.9052
11.0126
11.1207
11.2241
11.3205
11.4091
11.4904
11.5649
11.6336
11.6973
11.7568
11.8127
11.8656
11.9161
11.9646
12.0115
12.0571
12.1016
12.1454
12.1887
12.2316
12.2744
12.3173
12.3605
12.4043
12.4488
12.4945
12.5416
12.5906
12.6421
12.6965
12.7547
12.8175
12.886
12.9613
13.0447
13.1373
13.2402
13.3537
13.477
13.6067
13.7359
13.8532
13.9402
13.9528
13.8351
10.4911
10.3928
10.4524
10.5871
10.7403
10.8926
11.0352
11.164
11.2786
11.3802
11.4705
11.5514
11.6244
11.691
11.7525
11.8097
11.8636
11.9147
11.9636
12.0107
12.0564
12.1011
12.1449
12.1882
12.2311
12.2739
12.3167
12.3599
12.4037
12.4483
12.4941
12.5414
12.5907
12.6426
12.6978
12.7572
12.8219
12.8932
12.9727
13.0623
13.1642
13.2807
13.4137
13.5645
13.7319
13.9108
14.0897
14.2458
14.3179
14.2181
9.96831
9.93622
10.1029
10.3387
10.5715
10.7818
10.9647
11.1206
11.253
11.366
11.4634
11.5486
11.6242
11.6922
11.7543
11.8118
11.8657
11.9166
11.9653
12.0121
12.0576
12.102
12.1455
12.1885
12.2312
12.2737
12.3164
12.3594
12.4029
12.4473
12.4928
12.54
12.5892
12.6411
12.6964
12.7562
12.8218
12.8946
12.9769
13.0711
13.1806
13.3091
13.4611
13.6409
13.8519
14.0937
14.3594
14.6255
14.8143
14.7911
9.14242
9.31013
9.68038
10.0732
10.4153
10.6961
10.9221
11.1035
11.2503
11.3709
11.4719
11.5584
11.634
11.7014
11.7626
11.819
11.8719
11.9218
11.9696
12.0157
12.0605
12.1042
12.1472
12.1897
12.2319
12.274
12.3162
12.3587
12.4018
12.4457
12.4907
12.5373
12.5859
12.6372
12.6919
12.7512
12.8163
12.8891
12.9721
13.0683
13.1822
13.3194
13.4871
13.6944
13.9517
14.2691
14.6527
15.087
15.4927
15.6879
7.71942
8.47596
9.21056
9.8251
10.3036
10.6602
10.9244
11.1232
11.2766
11.3982
11.4976
11.5813
11.6539
11.7183
11.7768
11.8309
11.8817
11.93
11.9763
12.0211
12.0648
12.1076
12.1498
12.1915
12.233
12.2744
12.316
12.3578
12.4002
12.4434
12.4876
12.5333
12.5808
12.6308
12.6841
12.7417
12.8049
12.8757
12.9566
13.0513
13.1648
13.3044
13.4805
13.7075
14.0063
14.4048
14.9336
15.6036
16.3931
17.2111
4.87255
7.46719
8.87604
9.74932
10.3435
10.7428
11.0139
11.2056
11.3476
11.4576
11.5464
11.6212
11.6862
11.7446
11.7981
11.8482
11.8957
11.9413
11.9855
12.0285
12.0707
12.1122
12.1532
12.1939
12.2345
12.275
12.3156
12.3566
12.3979
12.44
12.483
12.5271
12.5729
12.6208
12.6715
12.7258
12.785
12.8507
12.9254
13.0125
13.1172
13.2469
13.4136
13.636
13.9448
14.3908
15.0445
15.9912
17.486
20.1954
-2.75059e-06
6.37959
9.03315
10.115
10.6946
11.0337
11.2415
11.3801
11.481
11.56
11.6256
11.6828
11.7346
11.7827
11.8284
11.8724
11.9152
11.957
11.998
12.0385
12.0786
12.1183
12.1578
12.1971
12.2363
12.2756
12.315
12.3546
12.3945
12.435
12.4761
12.5181
12.5612
12.6058
12.6522
12.7012
12.7534
12.8101
12.8729
12.9442
13.0276
13.1289
13.2573
13.4295
13.6777
14.0664
14.7129
15.8902
18.6596
25.1611
)
;

boundaryField
{
    movingWallTop
    {
        type            zeroGradient;
    }
    movingWallBottom
    {
        type            zeroGradient;
    }
    fixedWalls
    {
        type            zeroGradient;
    }
    frontAndBack
    {
        type            empty;
    }
}


// ************************************************************************* //
