/*--------------------------------*- C++ -*----------------------------------*\
  =========                 |
  \\      /  F ield         | OpenFOAM: The Open Source CFD Toolbox
   \\    /   O peration     | Website:  https://openfoam.org
    \\  /    A nd           | Version:  7
     \\/     M anipulation  |
\*---------------------------------------------------------------------------*/
FoamFile
{
    version     2.0;
    format      ascii;
    class       surfaceScalarField;
    location    "0.0788";
    object      phi;
}
// * * * * * * * * * * * * * * * * * * * * * * * * * * * * * * * * * * * * * //

dimensions      [0 3 -1 0 0 0 0];

internalField   nonuniform List<scalar> 
4900
(
-5.55532e-06
5.55534e-06
-1.01609e-05
4.60559e-06
-1.29489e-05
2.78795e-06
-1.46696e-05
1.7207e-06
-1.57727e-05
1.10316e-06
-1.65124e-05
7.3965e-07
-1.70339e-05
5.21509e-07
-1.74192e-05
3.8527e-07
-1.77148e-05
2.95622e-07
-1.79483e-05
2.33531e-07
-1.81369e-05
1.88564e-07
-1.82916e-05
1.54753e-07
-1.84201e-05
1.28513e-07
-1.85277e-05
1.07583e-07
-1.86182e-05
9.04729e-08
-1.86944e-05
7.61644e-08
-1.87583e-05
6.39382e-08
-1.88116e-05
5.32725e-08
-1.88553e-05
4.37794e-08
-1.88905e-05
3.51643e-08
-1.89177e-05
2.71986e-08
-1.89374e-05
1.97009e-08
-1.89499e-05
1.25235e-08
-1.89555e-05
5.54303e-09
-1.89541e-05
-1.34858e-09
-1.89459e-05
-8.2466e-09
-1.89306e-05
-1.52449e-08
-1.89082e-05
-2.2436e-08
-1.88783e-05
-2.9919e-08
-1.88405e-05
-3.78055e-08
-1.87942e-05
-4.62277e-08
-1.87389e-05
-5.53481e-08
-1.86735e-05
-6.53737e-08
-1.8597e-05
-7.65752e-08
-1.85076e-05
-8.9315e-08
-1.84035e-05
-1.04089e-07
-1.8282e-05
-1.21594e-07
-1.81391e-05
-1.42832e-07
-1.79698e-05
-1.69286e-07
-1.77666e-05
-2.03243e-07
-1.75182e-05
-2.48352e-07
-1.72075e-05
-3.10706e-07
-1.68066e-05
-4.00893e-07
-1.62687e-05
-5.37962e-07
-1.55123e-05
-7.56407e-07
-1.43963e-05
-1.11593e-06
-1.26814e-05
-1.71496e-06
-9.94579e-06
-2.73559e-06
-5.45241e-06
-4.49338e-06
-5.45241e-06
-1.18853e-08
5.56723e-06
-2.13088e-06
6.72459e-06
-4.85893e-06
5.516e-06
-7.27765e-06
4.13942e-06
-9.21792e-06
3.04343e-06
-1.07324e-05
2.25413e-06
-1.19143e-05
1.70342e-06
-1.28466e-05
1.31755e-06
-1.35926e-05
1.04159e-06
-1.41981e-05
8.39082e-07
-1.4696e-05
6.86466e-07
-1.51097e-05
5.68472e-07
-1.54563e-05
4.75031e-07
-1.5748e-05
3.99353e-07
-1.59943e-05
3.36744e-07
-1.6202e-05
2.83883e-07
-1.63764e-05
2.38361e-07
-1.65216e-05
1.98399e-07
-1.66404e-05
1.62652e-07
-1.67354e-05
1.30088e-07
-1.68081e-05
9.98977e-08
-1.68598e-05
7.14319e-08
-1.68914e-05
4.41598e-08
-1.69035e-05
1.76341e-08
-1.68963e-05
-8.5343e-09
-1.68699e-05
-3.46997e-08
-1.68239e-05
-6.11985e-08
-1.6758e-05
-8.83693e-08
-1.66713e-05
-1.16571e-07
-1.65629e-05
-1.46207e-07
-1.64314e-05
-1.77747e-07
-1.6275e-05
-2.11769e-07
-1.60914e-05
-2.48994e-07
-1.58776e-05
-2.90358e-07
-1.56298e-05
-3.37092e-07
-1.53431e-05
-3.90852e-07
-1.50107e-05
-4.53908e-07
-1.46241e-05
-5.29426e-07
-1.41715e-05
-6.21915e-07
-1.36368e-05
-7.37931e-07
-1.2998e-05
-8.87205e-07
-1.22242e-05
-1.08444e-06
-1.12731e-05
-1.35208e-06
-1.00866e-05
-1.7244e-06
-8.59106e-06
-2.25197e-06
-6.70628e-06
-3.0007e-06
-4.39264e-06
-4.02861e-06
-1.81822e-06
-5.31e-06
1.24478e-07
-6.43608e-06
-5.32794e-06
1.03228e-06
4.53494e-06
5.46136e-07
7.21073e-06
-9.94383e-07
7.05652e-06
-2.8919e-06
6.03694e-06
-4.75261e-06
4.90414e-06
-6.41597e-06
3.91748e-06
-7.84247e-06
3.12993e-06
-9.04513e-06
2.52021e-06
-1.00542e-05
2.05067e-06
-1.09018e-05
1.68668e-06
-1.16163e-05
1.40092e-06
-1.22208e-05
1.17305e-06
-1.27341e-05
9.88283e-07
-1.31706e-05
8.35838e-07
-1.35417e-05
7.07848e-07
-1.38563e-05
5.98491e-07
-1.41213e-05
5.03409e-07
-1.43422e-05
4.19289e-07
-1.45232e-05
3.43581e-07
-1.46674e-05
2.74286e-07
-1.47773e-05
2.09818e-07
-1.48547e-05
1.48891e-07
-1.4901e-05
9.04429e-08
-1.4917e-05
3.35711e-08
-1.4903e-05
-2.2512e-08
-1.48592e-05
-7.85244e-08
-1.47852e-05
-1.35148e-07
-1.46805e-05
-1.93065e-07
-1.45441e-05
-2.52995e-07
-1.43746e-05
-3.15735e-07
-1.41701e-05
-3.82209e-07
-1.39283e-05
-4.53527e-07
-1.36463e-05
-5.31064e-07
-1.33201e-05
-6.16566e-07
-1.29449e-05
-7.12287e-07
-1.25145e-05
-8.21186e-07
-1.20212e-05
-9.47196e-07
-1.14551e-05
-1.09561e-06
-1.08033e-05
-1.27363e-06
-1.00502e-05
-1.49109e-06
-9.17586e-06
-1.76153e-06
-8.15695e-06
-2.10335e-06
-6.96799e-06
-2.54104e-06
-5.58729e-06
-3.1051e-06
-4.01153e-06
-3.82773e-06
-2.28742e-06
-4.72481e-06
-5.72117e-07
-5.74392e-06
7.67226e-07
-6.64934e-06
1.08795e-06
-6.7568e-06
-4.23998e-06
9.05899e-07
3.62904e-06
1.22673e-06
6.8899e-06
6.39172e-07
7.64407e-06
-5.30879e-07
7.20699e-06
-1.95448e-06
6.32775e-06
-3.41332e-06
5.37632e-06
-4.79033e-06
4.50694e-06
-6.03565e-06
3.76553e-06
-7.13665e-06
3.15167e-06
-8.09858e-06
2.64862e-06
-8.93396e-06
2.2363e-06
-9.65713e-06
1.89623e-06
-1.02818e-05
1.61299e-06
-1.08202e-05
1.37423e-06
-1.12827e-05
1.17027e-06
-1.16777e-05
9.93525e-07
-1.20124e-05
8.38072e-07
-1.22923e-05
6.99257e-07
-1.25221e-05
5.73393e-07
-1.27054e-05
4.57526e-07
-1.28448e-05
3.49267e-07
-1.29426e-05
2.46652e-07
-1.30002e-05
1.48037e-07
-1.30186e-05
5.20147e-08
-1.29985e-05
-4.26501e-08
-1.29399e-05
-1.37084e-07
-1.28427e-05
-2.32357e-07
-1.27063e-05
-3.2953e-07
-1.25295e-05
-4.29712e-07
-1.23112e-05
-5.34116e-07
-1.20492e-05
-6.44122e-07
-1.17414e-05
-7.61365e-07
-1.13846e-05
-8.87825e-07
-1.09752e-05
-1.02596e-06
-1.05087e-05
-1.17887e-06
-9.97938e-06
-1.35048e-06
-9.38072e-06
-1.54585e-06
-8.70487e-06
-1.77147e-06
-7.94283e-06
-2.03567e-06
-7.08489e-06
-2.34903e-06
-6.12168e-06
-2.72473e-06
-5.04668e-06
-3.17835e-06
-3.86125e-06
-3.72646e-06
-2.58425e-06
-4.3821e-06
-1.26873e-06
-5.14325e-06
-2.69844e-08
-5.96656e-06
9.4287e-07
-6.71377e-06
1.34961e-06
-7.05609e-06
9.17166e-07
-6.32435e-06
-3.32282e-06
6.71078e-07
2.95797e-06
1.24092e-06
6.32007e-06
1.21744e-06
7.66755e-06
6.41444e-07
7.78298e-06
-2.99523e-07
7.26871e-06
-1.42303e-06
6.49983e-06
-2.59662e-06
5.68053e-06
-3.73888e-06
4.90778e-06
-4.80621e-06
4.219e-06
-5.77921e-06
3.62161e-06
-6.65251e-06
3.1096e-06
-7.42824e-06
2.67195e-06
-8.11201e-06
2.29676e-06
-8.71074e-06
1.97296e-06
-9.23142e-06
1.69096e-06
-9.68057e-06
1.44267e-06
-1.00639e-05
1.22144e-06
-1.03865e-05
1.02178e-06
-1.06523e-05
8.39198e-07
-1.08647e-05
6.69999e-07
-1.10266e-05
5.11116e-07
-1.11399e-05
3.59984e-07
-1.12063e-05
2.14425e-07
-1.12268e-05
7.2557e-08
-1.12022e-05
-6.72862e-08
-1.11327e-05
-2.06624e-07
-1.10181e-05
-3.46895e-07
-1.08581e-05
-4.89516e-07
-1.06519e-05
-6.35947e-07
-1.03983e-05
-7.87758e-07
-1.00957e-05
-9.46705e-07
-9.74223e-06
-1.11482e-06
-9.33557e-06
-1.29449e-06
-8.8729e-06
-1.48863e-06
-8.35102e-06
-1.70075e-06
-7.7663e-06
-1.93519e-06
-7.11491e-06
-2.19724e-06
-6.39307e-06
-2.49331e-06
-5.59771e-06
-2.83103e-06
-4.72761e-06
-3.21913e-06
-3.78551e-06
-3.66683e-06
-2.78153e-06
-4.18233e-06
-1.73877e-06
-4.76922e-06
-7.01635e-07
-5.41924e-06
2.53458e-07
-6.09834e-06
1.00851e-06
-6.72161e-06
1.40717e-06
-7.11243e-06
1.29711e-06
-6.94603e-06
6.66617e-07
-5.69386e-06
-2.6562e-06
4.79534e-07
2.47843e-06
1.07274e-06
5.72686e-06
1.33376e-06
7.40653e-06
1.16222e-06
7.95452e-06
6.25844e-07
7.80509e-06
-1.56674e-07
7.28234e-06
-1.07322e-06
6.59708e-06
-2.03832e-06
5.87289e-06
-2.99432e-06
5.17499e-06
-3.90584e-06
4.53314e-06
-4.75328e-06
3.95705e-06
-5.52734e-06
3.44601e-06
-6.22499e-06
2.99441e-06
-6.84685e-06
2.59482e-06
-7.39543e-06
2.23953e-06
-7.87408e-06
1.92132e-06
-8.28637e-06
1.63373e-06
-8.63574e-06
1.37115e-06
-8.9253e-06
1.12876e-06
-9.15778e-06
9.02478e-07
-9.33546e-06
6.88791e-07
-9.46018e-06
4.84711e-07
-9.53341e-06
2.87652e-07
-9.5562e-06
9.53525e-08
-9.52929e-06
-9.42034e-08
-9.45305e-06
-2.82859e-07
-9.3276e-06
-4.72352e-07
-9.15274e-06
-6.64376e-07
-8.92803e-06
-8.60653e-07
-8.65279e-06
-1.063e-06
-8.32612e-06
-1.27338e-06
-7.9469e-06
-1.49403e-06
-7.51389e-06
-1.7275e-06
-7.02575e-06
-1.97676e-06
-6.48121e-06
-2.24529e-06
-5.87928e-06
-2.53713e-06
-5.21959e-06
-2.85693e-06
-4.50303e-06
-3.20987e-06
-3.73267e-06
-3.60139e-06
-2.91525e-06
-4.03655e-06
-2.0634e-06
-4.51868e-06
-1.19882e-06
-5.04691e-06
-3.56512e-07
-5.61153e-06
4.10484e-07
-6.18624e-06
1.0275e-06
-6.71536e-06
1.40077e-06
-7.09488e-06
1.43605e-06
-7.14771e-06
1.08921e-06
-6.5992e-06
4.6962e-07
-5.07426e-06
-2.18658e-06
3.47038e-07
2.13139e-06
8.86894e-07
5.18701e-06
1.26842e-06
7.025e-06
1.3443e-06
7.87864e-06
1.10697e-06
8.04242e-06
6.16581e-07
7.77274e-06
-4.75385e-08
7.2612e-06
-8.11891e-07
6.63724e-06
-1.61826e-06
5.98136e-06
-2.42461e-06
5.33949e-06
-3.20273e-06
4.73517e-06
-3.93488e-06
4.17815e-06
-4.61072e-06
3.67025e-06
-5.22492e-06
3.20903e-06
-5.77536e-06
2.78997e-06
-6.26185e-06
2.40781e-06
-6.68532e-06
2.0572e-06
-7.04726e-06
1.7331e-06
-7.3494e-06
1.4309e-06
-7.59345e-06
1.14652e-06
-7.78098e-06
8.76326e-07
-7.9134e-06
6.17132e-07
-7.99188e-06
3.66131e-07
-8.01736e-06
1.20829e-07
-7.99055e-06
-1.21015e-07
-7.91195e-06
-3.61456e-07
-7.78188e-06
-6.0242e-07
-7.60049e-06
-8.45766e-07
-7.3678e-06
-1.09335e-06
-7.08373e-06
-1.34706e-06
-6.74818e-06
-1.60894e-06
-6.36106e-06
-1.88115e-06
-5.92244e-06
-2.16612e-06
-5.43268e-06
-2.46652e-06
-4.89265e-06
-2.78532e-06
-4.30407e-06
-3.1257e-06
-3.67001e-06
-3.49099e-06
-2.99558e-06
-3.8843e-06
-2.28894e-06
-4.30803e-06
-1.5627e-06
-4.76279e-06
-8.35744e-07
-5.24564e-06
-1.35401e-07
-5.74725e-06
5.00317e-07
-6.24725e-06
1.02142e-06
-6.70735e-06
1.36767e-06
-7.0616e-06
1.47717e-06
-7.20438e-06
1.30804e-06
-6.97858e-06
8.79668e-07
-6.17082e-06
3.3529e-07
-4.52989e-06
-1.85129e-06
2.59578e-07
1.87181e-06
7.28547e-07
4.71804e-06
1.14459e-06
6.60896e-06
1.35963e-06
7.66359e-06
1.3274e-06
8.07465e-06
1.06552e-06
8.03462e-06
6.21675e-07
7.70504e-06
5.11412e-08
7.20778e-06
-5.95238e-07
6.62774e-06
-1.27592e-06
6.02017e-06
-1.95938e-06
5.41863e-06
-2.62303e-06
4.8418e-06
-3.2514e-06
4.29863e-06
-3.83444e-06
3.79206e-06
-4.36592e-06
3.32145e-06
-4.84232e-06
2.88421e-06
-5.2619e-06
2.47678e-06
-5.62408e-06
2.09528e-06
-5.92899e-06
1.73581e-06
-6.17713e-06
1.39467e-06
-6.36924e-06
1.06843e-06
-6.5061e-06
7.53994e-07
-6.5885e-06
4.48526e-07
-6.61715e-06
1.49483e-07
-6.59272e-06
-1.45449e-07
-6.51578e-06
-4.38396e-07
-6.38686e-06
-7.31338e-07
-6.20646e-06
-1.02616e-06
-5.97511e-06
-1.3247e-06
-5.69338e-06
-1.62879e-06
-5.36202e-06
-1.94029e-06
-4.98204e-06
-2.26114e-06
-4.55483e-06
-2.59333e-06
-4.08241e-06
-2.93894e-06
-3.56768e-06
-3.30006e-06
-3.01477e-06
-3.67861e-06
-2.4296e-06
-4.07615e-06
-1.82053e-06
-4.49337e-06
-1.19921e-06
-4.92935e-06
-5.8167e-07
-5.38033e-06
1.05436e-08
-5.83785e-06
5.49284e-07
-6.28599e-06
9.99366e-07
-6.69733e-06
1.31973e-06
-7.02771e-06
1.46787e-06
-7.20975e-06
1.41003e-06
-7.14654e-06
1.13975e-06
-6.7083e-06
7.06178e-07
-5.73725e-06
2.46807e-07
-4.07051e-06
-1.60448e-06
2.0122e-07
1.6706e-06
6.03135e-07
4.31613e-06
1.01254e-06
6.19956e-06
1.2985e-06
7.37764e-06
1.39943e-06
7.97372e-06
1.30629e-06
8.12776e-06
1.04169e-06
7.96964e-06
6.42653e-07
7.60681e-06
1.4923e-07
7.12116e-06
-4.01789e-07
6.57119e-06
-9.79598e-07
5.99644e-06
-1.55992e-06
5.42212e-06
-2.12447e-06
4.86318e-06
-2.65998e-06
4.32757e-06
-3.15713e-06
3.8186e-06
-3.60959e-06
3.33667e-06
-4.01324e-06
2.88043e-06
-4.36551e-06
2.44755e-06
-4.66496e-06
2.03525e-06
-4.91086e-06
1.64057e-06
-5.10301e-06
1.26058e-06
-5.2415e-06
8.92485e-07
-5.32665e-06
5.33677e-07
-5.35891e-06
1.81742e-07
-5.33882e-06
-1.65542e-07
-5.267e-06
-5.10217e-07
-5.14416e-06
-8.54176e-07
-4.97113e-06
-1.19919e-06
-4.74891e-06
-1.54692e-06
-4.47871e-06
-1.89898e-06
-4.1621e-06
-2.2569e-06
-3.80107e-06
-2.62216e-06
-3.39825e-06
-2.99615e-06
-2.95709e-06
-3.38011e-06
-2.48215e-06
-3.775e-06
-1.97947e-06
-4.18128e-06
-1.45703e-06
-4.59859e-06
-9.2526e-07
-5.02515e-06
-3.97679e-07
-5.45693e-06
1.08451e-07
-5.88646e-06
5.71627e-07
-6.30103e-06
9.6599e-07
-6.68035e-06
1.26212e-06
-6.99346e-06
1.42948e-06
-7.19508e-06
1.4417e-06
-7.22197e-06
1.28574e-06
-6.99057e-06
9.75743e-07
-6.39831e-06
5.70351e-07
-5.33186e-06
1.87568e-07
-3.68773e-06
-1.41692e-06
1.60988e-07
1.50961e-06
5.0551e-07
3.9716e-06
8.90535e-07
5.81453e-06
1.20647e-06
7.0617e-06
1.38941e-06
7.79078e-06
1.41571e-06
8.10146e-06
1.29025e-06
8.09509e-06
1.03466e-06
7.86241e-06
6.77864e-07
7.47795e-06
2.49928e-07
6.99912e-06
-2.21531e-07
6.4679e-06
-7.12935e-07
5.91352e-06
-1.20514e-06
5.35539e-06
-1.6832e-06
4.80563e-06
-2.13575e-06
4.27115e-06
-2.55441e-06
3.75533e-06
-2.93313e-06
3.25915e-06
-3.26767e-06
2.78209e-06
-3.55514e-06
2.32272e-06
-3.79366e-06
1.87909e-06
-3.98209e-06
1.44901e-06
-4.11983e-06
1.03023e-06
-4.20672e-06
6.20563e-07
-4.24287e-06
2.17893e-07
-4.22867e-06
-1.7974e-07
-4.16474e-06
-5.74148e-07
-4.05193e-06
-9.66993e-07
-3.89132e-06
-1.35979e-06
-3.68434e-06
-1.75391e-06
-3.43275e-06
-2.15057e-06
-3.1388e-06
-2.55086e-06
-2.80533e-06
-2.95563e-06
-2.43595e-06
-3.36553e-06
-2.03524e-06
-3.78082e-06
-1.609e-06
-4.20124e-06
-1.16455e-06
-4.62574e-06
-7.11067e-07
-5.05207e-06
-2.60005e-07
-5.47621e-06
1.74603e-07
-5.89154e-06
5.75872e-07
-6.28773e-06
9.24083e-07
-6.64924e-06
1.19723e-06
-6.9535e-06
1.37248e-06
-7.16871e-06
1.42908e-06
-7.25168e-06
1.35327e-06
-7.14615e-06
1.14559e-06
-6.7829e-06
8.30333e-07
-6.08305e-06
4.65181e-07
-4.96671e-06
1.46539e-07
-3.36909e-06
-1.27038e-06
1.32155e-07
1.37745e-06
4.29105e-07
3.67465e-06
7.83455e-07
5.46018e-06
1.10562e-06
6.73954e-06
1.33565e-06
7.56074e-06
1.44325e-06
7.99387e-06
1.42195e-06
8.11639e-06
1.28158e-06
8.00278e-06
1.04123e-06
7.7183e-06
7.23865e-07
7.31649e-06
3.5271e-07
6.83906e-06
-5.08663e-08
6.3171e-06
-4.68344e-07
5.77287e-06
-8.84346e-07
5.22163e-06
-1.28651e-06
4.67331e-06
-1.66515e-06
4.13397e-06
-2.01286e-06
3.60685e-06
-2.32407e-06
3.0933e-06
-2.59472e-06
2.59337e-06
-2.82191e-06
2.10628e-06
-3.00367e-06
1.63077e-06
-3.13874e-06
1.16531e-06
-3.22647e-06
7.08286e-07
-3.26663e-06
2.58054e-07
-3.25942e-06
-1.86943e-07
-3.20542e-06
-6.28152e-07
-3.10553e-06
-1.06688e-06
-2.96107e-06
-1.50426e-06
-2.77374e-06
-1.94124e-06
-2.54575e-06
-2.37857e-06
-2.27987e-06
-2.81673e-06
-1.97959e-06
-3.25591e-06
-1.64923e-06
-3.69589e-06
-1.29412e-06
-4.13592e-06
-9.20835e-07
-4.57452e-06
-5.37386e-07
-5.00919e-06
-1.53462e-07
-5.436e-06
2.19366e-07
-5.84904e-06
5.67534e-07
-6.23971e-06
8.75544e-07
-6.59574e-06
1.12635e-06
-6.90004e-06
1.30224e-06
-7.1294e-06
1.38661e-06
-7.25308e-06
1.36667e-06
-7.23174e-06
1.23764e-06
-7.01712e-06
1.00808e-06
-6.55334e-06
7.05881e-07
-5.78085e-06
3.83172e-07
-4.644e-06
1.17028e-07
-3.10294e-06
-1.15335e-06
1.10675e-07
1.26678e-06
3.68372e-07
3.41696e-06
6.91034e-07
5.13752e-06
1.00601e-06
6.42457e-06
1.2598e-06
7.30695e-06
1.42028e-06
7.83339e-06
1.47437e-06
8.06231e-06
1.42354e-06
8.05361e-06
1.27891e-06
7.86293e-06
1.05692e-06
7.53848e-06
7.76087e-07
7.11989e-06
4.54792e-07
6.63839e-06
1.09971e-07
6.11769e-06
-2.43536e-07
5.57514e-06
-5.93198e-07
5.02298e-06
-9.28731e-07
4.4695e-06
-1.2419e-06
3.92002e-06
-1.52623e-06
3.37764e-06
-1.77679e-06
2.84392e-06
-1.98986e-06
2.31934e-06
-2.16276e-06
1.80367e-06
-2.29367e-06
1.29622e-06
-2.38145e-06
7.96067e-07
-2.42557e-06
3.02174e-07
-2.42602e-06
-1.86495e-07
-2.38326e-06
-6.70908e-07
-2.29823e-06
-1.1519e-06
-2.17235e-06
-1.63014e-06
-2.00752e-06
-2.10607e-06
-1.80623e-06
-2.57985e-06
-1.57163e-06
-3.05133e-06
-1.30759e-06
-3.51995e-06
-1.01887e-06
-3.98461e-06
-7.1122e-07
-4.44357e-06
-3.91561e-07
-4.89418e-06
-6.80938e-08
-5.33266e-06
2.49567e-07
-5.75366e-06
5.50344e-07
-6.14982e-06
8.21771e-07
-6.51113e-06
1.05026e-06
-6.82422e-06
1.22169e-06
-7.07147e-06
1.32247e-06
-7.23018e-06
1.3412e-06
-7.27182e-06
1.27115e-06
-7.16168e-06
1.11338e-06
-6.85935e-06
8.80562e-07
-6.32052e-06
6.00492e-07
-5.50078e-06
3.18267e-07
-4.36177e-06
9.50168e-08
-2.87969e-06
-1.05833e-06
9.40895e-08
1.17269e-06
3.19133e-07
3.19191e-06
6.11319e-07
4.84533e-06
9.11724e-07
6.12416e-06
1.17384e-06
7.04483e-06
1.36643e-06
7.6408e-06
1.47305e-06
7.95568e-06
1.48966e-06
8.037e-06
1.4213e-06
7.93129e-06
1.27889e-06
7.68088e-06
1.0765e-06
7.32228e-06
8.29269e-07
6.88563e-06
5.52022e-07
6.39494e-06
2.58426e-07
5.86873e-06
-3.94554e-08
5.32086e-06
-3.31315e-07
4.76136e-06
-6.08578e-07
4.19728e-06
-8.64274e-07
3.63334e-06
-1.09286e-06
3.07251e-06
-1.29006e-06
2.51654e-06
-1.45263e-06
1.96624e-06
-1.57827e-06
1.42186e-06
-1.66545e-06
8.83249e-07
-1.71334e-06
3.5006e-07
-1.7217e-06
-1.78135e-07
-1.69087e-06
-7.01736e-07
-1.62174e-06
-1.22104e-06
-1.51574e-06
-1.73614e-06
-1.37488e-06
-2.24693e-06
-1.20179e-06
-2.75294e-06
-9.99778e-07
-3.25334e-06
-7.72923e-07
-3.7468e-06
-5.26147e-07
-4.23139e-06
-2.6532e-07
-4.7044e-06
2.65146e-09
-5.16216e-06
2.69762e-07
-5.59977e-06
5.26884e-07
-6.01078e-06
7.6383e-07
-6.38676e-06
9.69553e-07
-6.71686e-06
1.13254e-06
-6.98721e-06
1.24148e-06
-7.18041e-06
1.28634e-06
-7.27504e-06
1.25984e-06
-7.24532e-06
1.15947e-06
-7.06131e-06
9.8982e-07
-6.6897e-06
7.65099e-07
-6.0958e-06
5.11124e-07
-5.2468e-06
2.65966e-07
-4.11662e-06
7.80514e-08
-2.69178e-06
-9.80281e-07
8.08653e-08
1.09182e-06
2.78358e-07
2.99442e-06
5.42049e-07
4.58164e-06
8.23965e-07
5.84224e-06
1.08424e-06
6.78456e-06
1.29387e-06
7.43117e-06
1.43522e-06
7.81433e-06
1.50084e-06
7.97138e-06
1.49143e-06
7.94071e-06
1.41347e-06
7.75883e-06
1.27713e-06
7.45862e-06
1.0944e-06
7.06836e-06
8.7782e-07
6.61152e-06
6.39507e-07
6.10704e-06
3.90627e-07
5.56974e-06
1.41072e-07
5.01092e-06
-1.00648e-07
4.439e-06
-3.27396e-07
3.86009e-06
-5.33333e-07
3.27845e-06
-7.138e-07
2.697e-06
-8.65192e-07
2.11763e-06
-9.84837e-07
1.5415e-06
-1.07089e-06
9.69299e-07
-1.12223e-06
4.01403e-07
-1.13842e-06
-1.6194e-07
-1.11966e-06
-7.20506e-07
-1.0667e-06
-1.27399e-06
-9.80951e-07
-1.8219e-06
-8.64389e-07
-2.36349e-06
-7.19655e-07
-2.89768e-06
-5.50073e-07
-3.42292e-06
-3.59714e-07
-3.93716e-06
-1.53453e-07
-4.43765e-06
6.29811e-08
-4.92083e-06
2.82959e-07
-5.38213e-06
4.98951e-07
-5.81576e-06
7.02579e-07
-6.21441e-06
8.84757e-07
-6.56894e-06
1.03596e-06
-6.86806e-06
1.14669e-06
-7.09793e-06
1.20812e-06
-7.24184e-06
1.2131e-06
-7.28002e-06
1.15742e-06
-7.18964e-06
1.04132e-06
-6.94521e-06
8.71242e-07
-6.51963e-06
6.61387e-07
-5.88594e-06
4.34751e-07
-5.02017e-06
2.23008e-07
-3.90487e-06
6.45864e-08
-2.53336e-06
-9.15695e-07
7.00137e-08
1.02181e-06
2.43867e-07
2.82057e-06
4.81155e-07
4.34435e-06
7.42616e-07
5.58078e-06
9.94326e-07
6.53285e-06
1.21012e-06
7.21537e-06
1.37247e-06
7.65198e-06
1.47207e-06
7.87178e-06
1.50664e-06
7.90613e-06
1.47932e-06
7.78616e-06
1.39699e-06
7.54095e-06
1.26882e-06
7.19652e-06
1.10506e-06
6.77528e-06
9.1617e-07
6.29594e-06
7.12133e-07
5.77377e-06
5.02132e-07
5.22092e-06
2.94307e-07
4.64683e-06
9.56737e-08
4.05872e-06
-8.78714e-08
3.462e-06
-2.51506e-07
2.86064e-06
-3.91403e-07
2.25753e-06
-5.04645e-07
1.65475e-06
-5.89142e-07
1.05379e-06
-6.43556e-07
4.55817e-07
-6.67247e-07
-1.38249e-07
-6.60226e-07
-7.27527e-07
-6.23133e-07
-1.31108e-06
-5.57227e-07
-1.8878e-06
-4.64391e-07
-2.45633e-06
-3.47153e-07
-3.01491e-06
-2.08713e-07
-3.56136e-06
-5.29768e-08
-4.0929e-06
1.15412e-07
-4.60604e-06
2.91052e-07
-5.09647e-06
4.67787e-07
-5.55887e-06
6.38744e-07
-5.98672e-06
7.96438e-07
-6.3721e-06
9.32956e-07
-6.70546e-06
1.04026e-06
-6.97537e-06
1.11066e-06
-7.16833e-06
1.13742e-06
-7.2686e-06
1.11562e-06
-7.25822e-06
1.04317e-06
-7.11719e-06
9.21997e-07
-6.82404e-06
7.5923e-07
-6.35686e-06
5.68167e-07
-5.69488e-06
3.68734e-07
-4.82074e-06
1.87032e-07
-3.72317e-06
5.36129e-08
-2.39994e-06
-8.62082e-07
6.08757e-08
9.60932e-07
2.14086e-07
2.66736e-06
4.26898e-07
4.13154e-06
6.6702e-07
5.34066e-06
9.05708e-07
6.29416e-06
1.11978e-06
7.0013e-06
1.29258e-06
7.47918e-06
1.41403e-06
7.75033e-06
1.47997e-06
7.8402e-06
1.49104e-06
7.77508e-06
1.45155e-06
7.58045e-06
1.36822e-06
7.27985e-06
1.24921e-06
6.89429e-06
1.10326e-06
6.44189e-06
9.39104e-07
5.93793e-06
7.65007e-07
5.39502e-06
5.88527e-07
4.82331e-06
4.16347e-07
4.2309e-06
2.54214e-07
3.62413e-06
1.0694e-07
3.00791e-06
-2.15705e-08
2.38604e-06
-1.28267e-07
1.76144e-06
-2.10896e-07
1.13642e-06
-2.67946e-07
5.12866e-07
-2.98595e-07
-1.076e-07
-3.02679e-07
-7.23442e-07
-2.80664e-07
-1.33309e-06
-2.33634e-07
-1.93483e-06
-1.63288e-07
-2.52667e-06
-7.19507e-08
-3.10625e-06
3.74158e-08
-3.67073e-06
1.61196e-07
-4.21668e-06
2.95112e-07
-4.73996e-06
4.3423e-07
-5.23559e-06
5.72989e-07
-5.69763e-06
7.05276e-07
-6.119e-06
8.24553e-07
-6.49138e-06
9.24061e-07
-6.80497e-06
9.97136e-07
-7.04845e-06
1.03763e-06
-7.20882e-06
1.04048e-06
-7.27145e-06
1.0024e-06
-7.22014e-06
9.22718e-07
-7.03751e-06
8.04216e-07
-6.70554e-06
6.53963e-07
-6.20661e-06
4.83886e-07
-5.5248e-06
3.10892e-07
-4.64774e-06
1.5631e-07
-3.56859e-06
4.44483e-08
-2.28808e-06
-8.17634e-07
5.29976e-08
9.07935e-07
1.87864e-07
2.53249e-06
3.77869e-07
3.94154e-06
5.96353e-07
5.12218e-06
8.19035e-07
6.07148e-06
1.02563e-06
6.7947e-06
1.20081e-06
7.30401e-06
1.33441e-06
7.61673e-06
1.42119e-06
7.75343e-06
1.46008e-06
7.73619e-06
1.45339e-06
7.58714e-06
1.40581e-06
7.32743e-06
1.32365e-06
6.97645e-06
1.21405e-06
6.55149e-06
1.08444e-06
6.06754e-06
9.42097e-07
5.53735e-06
7.93861e-07
4.97154e-06
6.45919e-07
4.37884e-06
5.0372e-07
3.76633e-06
3.71917e-07
3.13972e-06
2.54369e-07
2.50359e-06
1.54157e-07
1.86165e-06
7.36218e-08
1.21696e-06
1.44006e-08
5.72087e-07
-2.25344e-08
-7.06649e-08
-3.68453e-08
-7.09131e-07
-2.88055e-08
-1.34113e-06
7.16009e-10
-1.96435e-06
5.02578e-08
-2.57621e-06
1.17774e-07
-3.17377e-06
2.00624e-07
-3.75358e-06
2.95576e-07
-4.31163e-06
3.98813e-07
-4.84319e-06
5.05958e-07
-5.34273e-06
6.1212e-07
-5.80379e-06
7.11986e-07
-6.21887e-06
7.99956e-07
-6.57935e-06
8.70358e-07
-6.87537e-06
9.1773e-07
-7.09582e-06
9.37211e-07
-7.22831e-06
9.25019e-07
-7.25926e-06
8.79026e-07
-7.17415e-06
7.99388e-07
-6.95787e-06
6.8918e-07
-6.59533e-06
5.54943e-07
-6.07237e-06
4.07011e-07
-5.37687e-06
2.59462e-07
-4.50019e-06
1.29565e-07
-3.43869e-06
3.66156e-08
-2.19513e-06
-7.81018e-07
4.60592e-08
8.61875e-07
1.64351e-07
2.4142e-06
3.32945e-07
3.77294e-06
5.29795e-07
4.92533e-06
7.34456e-07
5.86682e-06
9.29373e-07
6.59978e-06
1.10072e-06
7.13266e-06
1.23875e-06
7.47869e-06
1.33771e-06
7.65447e-06
1.39543e-06
7.67847e-06
1.41271e-06
7.56987e-06
1.39264e-06
7.3475e-06
1.33993e-06
7.02916e-06
1.26028e-06
6.63114e-06
1.15987e-06
6.16795e-06
1.04497e-06
5.65226e-06
9.2161e-07
5.09491e-06
7.9539e-07
4.50506e-06
6.71344e-07
3.89037e-06
5.53857e-07
3.2572e-06
4.46636e-07
2.61081e-06
3.52707e-07
1.95558e-06
2.74426e-07
1.29524e-06
2.13507e-07
6.33007e-07
1.71042e-07
-2.82003e-08
1.47532e-07
-6.85621e-07
1.42904e-07
-1.33651e-06
1.56526e-07
-1.97798e-06
1.87219e-07
-2.60691e-06
2.33261e-07
-3.21981e-06
2.92396e-07
-3.81272e-06
3.61839e-07
-4.38107e-06
4.38298e-07
-4.91965e-06
5.18001e-07
-5.42244e-06
5.96762e-07
-5.88255e-06
6.70067e-07
-6.29217e-06
7.33215e-07
-6.64249e-06
7.81514e-07
-6.92367e-06
8.10536e-07
-7.12484e-06
8.16455e-07
-7.23422e-06
7.96441e-07
-7.23925e-06
7.49123e-07
-7.12683e-06
6.75067e-07
-6.88381e-06
5.77241e-07
-6.49751e-06
4.61378e-07
-5.95651e-06
3.36146e-07
-5.25164e-06
2.13031e-07
-4.37708e-06
1.05838e-07
-3.3315e-06
2.97726e-08
-2.11906e-06
-7.51246e-07
3.98284e-08
8.22047e-07
1.4291e-07
2.31112e-06
2.91238e-07
3.62461e-06
4.66601e-07
4.74996e-06
6.51867e-07
5.68155e-06
8.31994e-07
6.41966e-06
9.94751e-07
6.9699e-06
1.13109e-06
7.34236e-06
1.23517e-06
7.55038e-06
1.30417e-06
7.60947e-06
1.33783e-06
7.5362e-06
1.33799e-06
7.34734e-06
1.30803e-06
7.05912e-06
1.25237e-06
6.6868e-06
1.17605e-06
6.24427e-06
1.08434e-06
5.74397e-06
9.82457e-07
5.19679e-06
8.75343e-07
4.61217e-06
7.6754e-07
3.99818e-06
6.63082e-07
3.36166e-06
5.65442e-07
2.70845e-06
4.77515e-07
2.04351e-06
4.01611e-07
1.37114e-06
3.39472e-07
6.95147e-07
2.92278e-07
1.89931e-08
2.60677e-07
-6.5402e-07
2.44792e-07
-1.32062e-06
2.44242e-07
-1.97743e-06
2.58152e-07
-2.62082e-06
2.85159e-07
-3.24682e-06
3.23429e-07
-3.85099e-06
3.70664e-07
-4.42831e-06
4.24128e-07
-4.97312e-06
4.80685e-07
-5.47899e-06
5.36853e-07
-5.93872e-06
5.88897e-07
-6.34422e-06
6.32952e-07
-6.68655e-06
6.65196e-07
-6.95591e-06
6.82072e-07
-7.14172e-06
6.80566e-07
-7.23272e-06
6.58529e-07
-7.21721e-06
6.15038e-07
-7.08334e-06
5.50761e-07
-6.81953e-06
4.68293e-07
-6.41504e-06
3.72393e-07
-5.86061e-06
2.70077e-07
-5.14932e-06
1.70471e-07
-4.27747e-06
8.43989e-08
-3.24543e-06
2.36675e-08
-2.05833e-06
-7.27578e-07
3.41338e-08
7.87913e-07
1.23058e-07
2.22219e-06
2.52042e-07
3.49563e-06
4.06119e-07
4.59589e-06
5.71044e-07
5.51663e-06
7.34077e-07
6.25662e-06
8.84586e-07
6.81939e-06
1.01439e-06
7.21255e-06
1.11789e-06
7.44688e-06
1.19193e-06
7.53543e-06
1.23556e-06
7.49258e-06
1.24965e-06
7.33324e-06
1.23652e-06
7.07225e-06
1.1995e-06
6.72382e-06
1.14258e-06
6.30119e-06
1.07009e-06
5.81646e-06
9.86433e-07
5.28045e-06
8.95881e-07
4.70273e-06
8.0243e-07
4.09163e-06
7.09702e-07
3.45439e-06
6.20874e-07
2.79728e-06
5.38648e-07
2.12574e-06
4.65235e-07
1.44456e-06
4.02357e-07
7.58025e-07
3.51253e-07
7.00971e-08
3.12692e-07
-6.15459e-07
2.86988e-07
-1.29492e-06
2.74009e-07
-1.96445e-06
2.73194e-07
-2.62e-06
2.83558e-07
-3.25718e-06
3.03707e-07
-3.87113e-06
3.31852e-07
-4.45645e-06
3.65831e-07
-5.0071e-06
4.03144e-07
-5.51631e-06
4.41006e-07
-5.97658e-06
4.76422e-07
-6.37963e-06
5.06295e-07
-6.71642e-06
5.2757e-07
-6.97719e-06
5.37415e-07
-7.15156e-06
5.33444e-07
-7.22875e-06
5.13971e-07
-7.19774e-06
4.78292e-07
-7.04766e-06
4.26954e-07
-6.7682e-06
3.62001e-07
-6.35008e-06
2.87138e-07
-5.78574e-06
2.07771e-07
-5.06995e-06
1.3088e-07
-4.20058e-06
6.46854e-08
-3.17923e-06
1.81117e-08
-2.01176e-06
-7.09466e-07
2.88453e-08
7.59068e-07
1.04421e-07
2.14662e-06
2.14792e-07
3.38526e-06
3.47789e-07
4.46289e-06
4.91714e-07
5.3727e-06
6.3594e-07
6.1124e-06
7.714e-07
6.68393e-06
8.909e-07
7.09305e-06
9.89254e-07
7.34853e-06
1.06326e-06
7.46143e-06
1.11153e-06
7.44431e-06
1.13425e-06
7.31052e-06
1.13288e-06
7.07363e-06
1.10982e-06
6.74688e-06
1.06814e-06
6.34286e-06
1.01131e-06
5.87329e-06
9.42931e-07
5.34883e-06
8.66602e-07
4.77906e-06
7.85752e-07
4.17248e-06
7.03546e-07
3.5366e-06
6.22819e-07
2.878e-06
5.46029e-07
2.20253e-06
4.75242e-07
1.51534e-06
4.12119e-07
8.21147e-07
3.57923e-07
1.24293e-07
3.13521e-07
-5.71058e-07
2.794e-07
-1.26079e-06
2.55672e-07
-1.94072e-06
2.42088e-07
-2.60642e-06
2.38045e-07
-3.25314e-06
2.42597e-07
-3.87569e-06
2.54471e-07
-4.46833e-06
2.72081e-07
-5.02471e-06
2.93557e-07
-5.53778e-06
3.16788e-07
-5.99981e-06
3.39482e-07
-6.40233e-06
3.59244e-07
-6.73619e-06
3.73697e-07
-6.99164e-06
3.80611e-07
-7.15848e-06
3.78084e-07
-7.22622e-06
3.64728e-07
-7.18438e-06
3.39886e-07
-7.02282e-06
3.0383e-07
-6.73214e-06
2.57942e-07
-6.3042e-06
2.04832e-07
-5.73263e-06
1.48359e-07
-5.01348e-06
9.35308e-08
-4.14575e-06
4.62579e-08
-3.13196e-06
1.29606e-08
-1.97846e-06
-6.96506e-07
2.38624e-08
7.35205e-07
8.67011e-08
2.08378e-06
1.79026e-07
3.29293e-06
2.91129e-07
4.35079e-06
4.13591e-07
5.25024e-06
5.37738e-07
5.98825e-06
6.56022e-07
6.56565e-06
7.62286e-07
6.98679e-06
8.51911e-07
7.2589e-06
9.21829e-07
7.39151e-06
9.70437e-07
7.3957e-06
9.97433e-07
7.28353e-06
1.0036e-06
7.06746e-06
9.90578e-07
6.7599e-06
9.60621e-07
6.37282e-06
9.16386e-07
5.91752e-06
8.60743e-07
5.40447e-06
7.96614e-07
4.84318e-06
7.2685e-07
4.24224e-06
6.54136e-07
3.60931e-06
5.80924e-07
2.95122e-06
5.09392e-07
2.27406e-06
4.41418e-07
1.58332e-06
3.78566e-07
8.83999e-07
3.22089e-07
1.80771e-07
2.72927e-07
-5.21895e-07
2.31717e-07
-1.21958e-06
1.98801e-07
-1.9078e-06
1.74233e-07
-2.58185e-06
1.57787e-07
-3.23669e-06
1.48965e-07
-3.86687e-06
1.47004e-07
-4.46637e-06
1.50887e-07
-5.02859e-06
1.59366e-07
-5.54626e-06
1.70979e-07
-6.01142e-06
1.84098e-07
-6.41545e-06
1.96982e-07
-6.74907e-06
2.07852e-07
-7.00251e-06
2.14994e-07
-7.16562e-06
2.16875e-07
-7.2281e-06
2.1229e-07
-7.1798e-06
2.00506e-07
-7.01104e-06
1.81418e-07
-6.71305e-06
1.55679e-07
-6.27846e-06
1.24787e-07
-5.70174e-06
9.11133e-08
-4.97981e-06
5.78344e-08
-4.11247e-06
2.87678e-08
-3.10289e-06
8.10152e-09
-1.95779e-06
-6.88404e-07
1.91045e-08
7.16101e-07
6.96592e-08
2.03322e-06
1.44362e-07
3.21823e-06
2.35718e-07
4.25943e-06
3.36388e-07
5.14957e-06
4.3952e-07
5.88512e-06
5.39035e-07
6.46614e-06
6.29848e-07
6.89597e-06
7.07997e-07
7.18075e-06
7.70688e-07
7.32882e-06
8.16261e-07
7.35013e-06
8.44089e-07
7.2557e-06
8.54436e-07
7.05711e-06
8.48293e-07
6.76604e-06
8.27202e-07
6.39391e-06
7.93091e-07
5.95164e-06
7.48124e-07
5.44944e-06
6.94568e-07
4.89674e-06
6.34692e-07
4.30212e-06
5.70684e-07
3.67332e-06
5.04588e-07
3.01731e-06
4.38267e-07
2.34038e-06
3.73376e-07
1.64821e-06
3.1135e-07
9.46025e-07
2.53397e-07
2.38724e-07
2.00501e-07
-4.68999e-07
1.53427e-07
-1.17251e-06
1.12727e-07
-1.8671e-06
7.87441e-08
-2.54787e-06
5.16163e-08
-3.20956e-06
3.12823e-08
-3.84653e-06
1.74822e-08
-4.45257e-06
9.76058e-09
-5.02087e-06
7.47097e-09
-5.54397e-06
9.78541e-09
-6.01374e-06
1.57109e-08
-6.42137e-06
2.41168e-08
-6.75748e-06
3.37755e-08
-7.01217e-06
4.34198e-08
-7.17526e-06
5.18169e-08
-7.2365e-06
5.78587e-08
-7.18584e-06
6.06637e-08
-7.01384e-06
5.96834e-08
-6.71207e-06
5.48004e-08
-6.27357e-06
4.64035e-08
-5.69334e-06
3.54228e-08
-4.96883e-06
2.33069e-08
-4.10036e-06
1.19331e-08
-3.09152e-06
3.44467e-09
-1.9493e-06
-6.8496e-07
1.45044e-08
7.01597e-07
5.30917e-08
1.99464e-06
1.10468e-07
3.16085e-06
1.81177e-07
4.18872e-06
2.59815e-07
5.07093e-06
3.41256e-07
5.80368e-06
4.20851e-07
6.38654e-06
4.94596e-07
6.82223e-06
5.59251e-07
7.1161e-06
6.12394e-07
7.27567e-06
6.52422e-07
7.3101e-06
6.78506e-07
7.22962e-06
6.90508e-07
7.04511e-06
6.88871e-07
6.76768e-06
6.74507e-07
6.40827e-06
6.48673e-07
5.97747e-06
6.12864e-07
5.48525e-06
5.68712e-07
4.94089e-06
5.17905e-07
4.35292e-06
4.62121e-07
3.7291e-06
4.02976e-07
3.07646e-06
3.4199e-07
2.40137e-06
2.80565e-07
1.70963e-06
2.19973e-07
1.00662e-06
1.61347e-07
2.9735e-07
1.05688e-07
-4.1334e-07
5.3861e-08
-1.12068e-06
6.60388e-09
-1.81985e-06
-3.54716e-08
-2.50579e-06
-7.18782e-08
-3.17316e-06
-1.02254e-07
-3.81616e-06
-1.2637e-07
-4.42845e-06
-1.44131e-07
-5.00311e-06
-1.55592e-07
-5.53251e-06
-1.60963e-07
-6.00837e-06
-1.60621e-07
-6.42172e-06
-1.55107e-07
-6.76299e-06
-1.45129e-07
-7.02215e-06
-1.31541e-07
-7.18885e-06
-1.15319e-07
-7.25272e-06
-9.7517e-08
-7.20364e-06
-7.92078e-08
-7.03215e-06
-6.14183e-08
-6.72986e-06
-4.50543e-08
-6.28994e-06
-3.08327e-08
-5.70757e-06