/*--------------------------------*- C++ -*----------------------------------*\
  =========                 |
  \\      /  F ield         | OpenFOAM: The Open Source CFD Toolbox
   \\    /   O peration     | Website:  https://openfoam.org
    \\  /    A nd           | Version:  7
     \\/     M anipulation  |
\*---------------------------------------------------------------------------*/
FoamFile
{
    version     2.0;
    format      ascii;
    class       volVectorField;
    location    "0.047";
    object      U;
}
// * * * * * * * * * * * * * * * * * * * * * * * * * * * * * * * * * * * * * //

dimensions      [0 1 -1 0 0 0 0];

internalField   nonuniform List<vector> 
2500
(
(2.83611e-05 -2.82496e-05 0)
(8.49322e-05 -3.39633e-05 0)
(0.000114648 -1.6691e-05 0)
(8.13401e-05 8.3867e-06 0)
(-2.57697e-05 3.38398e-05 0)
(-0.000204917 5.7138e-05 0)
(-0.00044913 7.72326e-05 0)
(-0.000749594 9.38445e-05 0)
(-0.00109657 0.000107015 0)
(-0.00148009 0.000116899 0)
(-0.00189038 0.000123697 0)
(-0.00231802 0.000127621 0)
(-0.00275407 0.000128889 0)
(-0.00319015 0.000127714 0)
(-0.00361846 0.000124305 0)
(-0.00403183 0.000118865 0)
(-0.00442368 0.00011159 0)
(-0.00478808 0.00010267 0)
(-0.00511969 9.22905e-05 0)
(-0.0054138 8.06321e-05 0)
(-0.00566631 6.7872e-05 0)
(-0.00587373 5.41861e-05 0)
(-0.00603318 3.97502e-05 0)
(-0.00614241 2.47422e-05 0)
(-0.00619978 9.34368e-06 0)
(-0.00620432 -6.259e-06 0)
(-0.00615569 -2.1873e-05 0)
(-0.00605428 -3.72981e-05 0)
(-0.00590114 -5.23262e-05 0)
(-0.00569808 -6.67407e-05 0)
(-0.00544764 -8.03175e-05 0)
(-0.00515313 -9.28255e-05 0)
(-0.00481866 -0.000104028 0)
(-0.00444909 -0.000113686 0)
(-0.0040501 -0.000121557 0)
(-0.00362813 -0.000127403 0)
(-0.00319035 -0.00013099 0)
(-0.00274466 -0.000132092 0)
(-0.00229958 -0.000130495 0)
(-0.00186423 -0.000125999 0)
(-0.00144819 -0.000118425 0)
(-0.00106138 -0.000107618 0)
(-0.000713881 -9.34574e-05 0)
(-0.000415702 -7.58909e-05 0)
(-0.000176302 -5.50053e-05 0)
(-3.91208e-06 -3.12377e-05 0)
(9.55834e-05 -5.78337e-06 0)
(0.0001214 1.85886e-05 0)
(8.60864e-05 3.49597e-05 0)
(2.79667e-05 2.79089e-05 0)
(3.44066e-05 -8.49496e-05 0)
(7.50776e-05 -7.39966e-05 0)
(2.26656e-05 2.25624e-05 0)
(-0.000177841 0.000152494 0)
(-0.000548074 0.000288956 0)
(-0.00108763 0.00041851 0)
(-0.00178477 0.00053415 0)
(-0.00262117 0.000632584 0)
(-0.00357484 0.000712501 0)
(-0.004622 0.000773653 0)
(-0.0057384 0.000816395 0)
(-0.00690003 0.000841441 0)
(-0.00808364 0.000849718 0)
(-0.00926711 0.000842284 0)
(-0.0104296 0.000820268 0)
(-0.0115518 0.000784843 0)
(-0.0126158 0.000737201 0)
(-0.0136055 0.000678538 0)
(-0.0145063 0.000610054 0)
(-0.0153051 0.000532945 0)
(-0.0159909 0.000448407 0)
(-0.0165539 0.000357639 0)
(-0.0169863 0.000261853 0)
(-0.0172819 0.000162275 0)
(-0.0174364 6.01585e-05 0)
(-0.0174472 -4.32143e-05 0)
(-0.0173134 -0.000146523 0)
(-0.0170363 -0.000248408 0)
(-0.0166188 -0.000347466 0)
(-0.0160661 -0.000442255 0)
(-0.0153853 -0.000531295 0)
(-0.0145855 -0.000613078 0)
(-0.013678 -0.000686083 0)
(-0.012676 -0.000748785 0)
(-0.0115951 -0.00079968 0)
(-0.0104526 -0.000837308 0)
(-0.00926771 -0.000860278 0)
(-0.00806151 -0.000867302 0)
(-0.00685654 -0.000857231 0)
(-0.00567661 -0.000829101 0)
(-0.00454645 -0.000782195 0)
(-0.00349122 -0.000716127 0)
(-0.00253583 -0.000630978 0)
(-0.00170413 -0.00052753 0)
(-0.0010175 -0.000407714 0)
(-0.0004929 -0.000275485 0)
(-0.000139956 -0.000138446 0)
(4.36866e-05 -1.06383e-05 0)
(8.24717e-05 8.14936e-05 0)
(3.52714e-05 8.60776e-05 0)
(1.81551e-05 -0.000116264 0)
(-1.81814e-05 -2.27482e-05 0)
(-0.000228533 0.00023408 0)
(-0.000658212 0.000560883 0)
(-0.00132816 0.000905753 0)
(-0.0022381 0.00123749 0)
(-0.00337293 0.00153783 0)
(-0.00470805 0.00179669 0)
(-0.00621304 0.00200898 0)
(-0.00785425 0.00217266 0)
(-0.00959655 0.00228765 0)
(-0.0114046 0.00235506 0)
(-0.0132439 0.00237686 0)
(-0.015081 0.00235551 0)
(-0.0168844 0.00229382 0)
(-0.0186246 0.00219484 0)
(-0.0202741 0.00206172 0)
(-0.021808 0.00189772 0)
(-0.0232038 0.00170614 0)
(-0.0244415 0.0014903 0)
(-0.0255036 0.00125357 0)
(-0.0263753 0.000999335 0)
(-0.0270443 0.000731026 0)
(-0.0275013 0.000452131 0)
(-0.0277394 0.000166207 0)
(-0.0277548 -0.000123105 0)
(-0.0275462 -0.000412068 0)
(-0.0271156 -0.000696843 0)
(-0.026468 -0.000973488 0)
(-0.0256111 -0.00123796 0)
(-0.0245561 -0.00148615 0)
(-0.0233173 -0.00171388 0)
(-0.0219121 -0.00191696 0)
(-0.020361 -0.00209123 0)
(-0.0186878 -0.0022326 0)
(-0.016919 -0.00233718 0)
(-0.015084 -0.0024013 0)
(-0.0132147 -0.00242164 0)
(-0.011345 -0.00239535 0)
(-0.00951075 -0.0023202 0)
(-0.00774853 -0.0021948 0)
(-0.00609528 -0.00201883 0)
(-0.00458705 -0.0017935 0)
(-0.00325765 -0.00152214 0)
(-0.00213669 -0.00121133 0)
(-0.00124699 -0.000872639 0)
(-0.000600904 -0.000525691 0)
(-0.000195299 -0.000202742 0)
(-5.57027e-06 4.39763e-05 0)
(1.99696e-05 0.000122929 0)
(-5.55214e-06 -8.69271e-05 0)
(-0.000144588 0.00017379 0)
(-0.000551292 0.000662519 0)
(-0.00124614 0.00125371 0)
(-0.00224047 0.00187148 0)
(-0.00353042 0.0024666 0)
(-0.00509647 0.00300798 0)
(-0.00690837 0.00347703 0)
(-0.008929 0.00386336 0)
(-0.011117 0.00416203 0)
(-0.0134287 0.00437178 0)
(-0.0158199 0.00449383 0)
(-0.018247 0.00453112 0)
(-0.0206673 0.00448773 0)
(-0.0230406 0.00436855 0)
(-0.0253288 0.004179 0)
(-0.0274965 0.00392486 0)
(-0.0295113 0.00361214 0)
(-0.0313441 0.00324701 0)
(-0.0329686 0.00283575 0)
(-0.0343622 0.00238475 0)
(-0.0355056 0.00190045 0)
(-0.0363829 0.00138942 0)
(-0.0369816 0.000858335 0)
(-0.0372932 0.000313997 0)
(-0.0373124 -0.000236626 0)
(-0.0370379 -0.000786395 0)
(-0.0364724 -0.00132799 0)
(-0.0356222 -0.00185392 0)
(-0.0344977 -0.00235652 0)
(-0.0331136 -0.00282801 0)
(-0.0314884 -0.00326053 0)
(-0.0296448 -0.00364623 0)
(-0.0276094 -0.00397734 0)
(-0.025413 -0.00424631 0)
(-0.0230899 -0.00444596 0)
(-0.0206779 -0.00456962 0)
(-0.0182178 -0.00461137 0)
(-0.0157531 -0.00456627 0)
(-0.013329 -0.00443067 0)
(-0.0109918 -0.00420259 0)
(-0.00878777 -0.00388226 0)
(-0.00676176 -0.00347288 0)
(-0.00495542 -0.00298167 0)
(-0.00340502 -0.00242154 0)
(-0.00213883 -0.00181366 0)
(-0.00117326 -0.00119143 0)
(-0.000508228 -0.0006059 0)
(-0.000127389 -0.000133623 0)
(-2.56095e-06 0.000101839 0)
(-2.99214e-05 1.41995e-05 0)
(-0.000280325 0.000539853 0)
(-0.000901307 0.00133406 0)
(-0.00187998 0.00225021 0)
(-0.00321284 0.00319335 0)
(-0.00488908 0.00409834 0)
(-0.00688291 0.00492181 0)
(-0.00915793 0.00563629 0)
(-0.0116707 0.00622545 0)
(-0.0143732 0.00668083 0)
(-0.0172146 0.00699947 0)
(-0.0201436 0.00718237 0)
(-0.0231086 0.00723333 0)
(-0.0260599 0.00715814 0)
(-0.0289496 0.00696396 0)
(-0.0317325 0.00665898 0)
(-0.0343668 0.00625202 0)
(-0.0368136 0.00575242 0)
(-0.0390381 0.0051698 0)
(-0.0410091 0.00451407 0)
(-0.0426994 0.0037953 0)
(-0.0440857 0.00302374 0)
(-0.0451491 0.00220982 0)
(-0.0458748 0.00136416 0)
(-0.0462522 0.000497609 0)
(-0.0462754 -0.00037874 0)
(-0.0459428 -0.00125354 0)
(-0.0452576 -0.00211515 0)
(-0.0442274 -0.00295171 0)
(-0.0428648 -0.00375109 0)
(-0.0411873 -0.00450102 0)
(-0.0392171 -0.00518913 0)
(-0.0369813 -0.00580311 0)
(-0.0345118 -0.00633083 0)
(-0.0318452 -0.00676056 0)
(-0.0290222 -0.00708121 0)
(-0.0260876 -0.00728259 0)
(-0.0230899 -0.00735577 0)
(-0.0200802 -0.00729346 0)
(-0.0171118 -0.00709051 0)
(-0.014239 -0.00674455 0)
(-0.0115158 -0.00625674 0)
(-0.00899437 -0.00563287 0)
(-0.00672339 -0.00488479 0)
(-0.00474551 -0.00403257 0)
(-0.00309507 -0.00310748 0)
(-0.00179449 -0.00215638 0)
(-0.000850169 -0.00124719 0)
(-0.00025947 -0.000476282 0)
(-2.60958e-05 1.07816e-05 0)
(-5.28952e-05 0.000187484 0)
(-0.0004149 0.0010817 0)
(-0.0012552 0.00225963 0)
(-0.00252479 0.00356225 0)
(-0.00420241 0.00488074 0)
(-0.00626775 0.00613708 0)
(-0.00868693 0.00727714 0)
(-0.0114164 0.00826515 0)
(-0.0144061 0.00907893 0)
(-0.0176015 0.0097063 0)
(-0.0209457 0.0101424 0)
(-0.0243805 0.010388 0)
(-0.0278482 0.0104476 0)
(-0.0312925 0.0103288 0)
(-0.0346593 0.0100413 0)
(-0.0378977 0.00959627 0)
(-0.0409598 0.00900599 0)
(-0.0438019 0.00828354 0)
(-0.046384 0.00744253 0)
(-0.0486708 0.00649702 0)
(-0.0506312 0.00546136 0)
(-0.0522388 0.00435021 0)
(-0.0534719 0.00317852 0)
(-0.0543135 0.0019615 0)
(-0.0547519 0.000714709 0)
(-0.0547799 -0.000545948 0)
(-0.054396 -0.00180421 0)
(-0.0536036 -0.00304344 0)
(-0.0524116 -0.00424665 0)
(-0.0508342 -0.00539657 0)
(-0.0488913 -0.00647571 0)
(-0.0466082 -0.00746649 0)
(-0.0440158 -0.00835147 0)
(-0.0411502 -0.0091135 0)
(-0.0380527 -0.00973607 0)
(-0.0347698 -0.0102036 0)
(-0.0313522 -0.0105021 0)
(-0.0278546 -0.010619 0)
(-0.0243348 -0.0105446 0)
(-0.020853 -0.0102722 0)
(-0.0174704 -0.00979897 0)
(-0.014248 -0.00912721 0)
(-0.0112448 -0.00826556 0)
(-0.0085161 -0.0072308 0)
(-0.00611145 -0.00605021 0)
(-0.00407236 -0.00476476 0)
(-0.00242918 -0.00343349 0)
(-0.00119733 -0.00213848 0)
(-0.000390968 -0.000991126 0)
(-4.83973e-05 -0.000150593 0)
(-7.39565e-05 0.000429744 0)
(-0.000544158 0.001798 0)
(-0.00160198 0.00344079 0)
(-0.00316272 0.00519293 0)
(-0.0051862 0.00693627 0)
(-0.00764088 0.00858306 0)
(-0.0104833 0.0100704 0)
(-0.0136617 0.0113554 0)
(-0.0171188 0.0124106 0)
(-0.0207935 0.0132204 0)
(-0.0246226 0.0137783 0)
(-0.028542 0.0140847 0)
(-0.0324881 0.0141452 0)
(-0.036399 0.0139691 0)
(-0.0402152 0.013569 0)
(-0.0438807 0.0129592 0)
(-0.0473427 0.012156 0)
(-0.0505531 0.0111764 0)
(-0.0534679 0.0100386 0)
(-0.056048 0.0087611 0)
(-0.0582592 0.00736315 0)
(-0.0600722 0.00586428 0)
(-0.0614632 0.00428448 0)
(-0.0624133 0.00264412 0)
(-0.0629095 0.000964029 0)
(-0.062944 -0.000734518 0)
(-0.0625148 -0.00242976 0)
(-0.0616258 -0.00409946 0)
(-0.0602865 -0.00572094 0)
(-0.0585128 -0.00727114 0)
(-0.0563263 -0.00872676 0)
(-0.0537548 -0.0100644 0)
(-0.0508323 -0.011261 0)
(-0.0475985 -0.0122937 0)
(-0.044099 -0.0131407 0)
(-0.0403847 -0.0137815 0)
(-0.0365115 -0.0141977 0)
(-0.0325396 -0.014373 0)
(-0.0285327 -0.0142949 0)
(-0.0245571 -0.0139548 0)
(-0.0206805 -0.0133496 0)
(-0.0169703 -0.0124824 0)
(-0.0134925 -0.0113647 0)
(-0.0103093 -0.010018 0)
(-0.00747781 -0.00847645 0)
(-0.00504793 -0.00678965 0)
(-0.00305945 -0.00502712 0)
(-0.00153861 -0.0032823 0)
(-0.000517583 -0.00167747 0)
(-6.88634e-05 -0.000379411 0)
(-9.32358e-05 0.000737213 0)
(-0.000667212 0.0026842 0)
(-0.0019379 0.00487448 0)
(-0.00378672 0.00714074 0)
(-0.00615442 0.00935903 0)
(-0.00899734 0.0114347 0)
(-0.0122614 0.0132982 0)
(-0.0158855 0.0149009 0)
(-0.0198045 0.0162111 0)
(-0.0239504 0.0172105 0)
(-0.0282537 0.0178913 0)
(-0.0326442 0.0182539 0)
(-0.0370529 0.018305 0)
(-0.0414129 0.0180564 0)
(-0.0456597 0.0175234 0)
(-0.0497328 0.0167241 0)
(-0.0535753 0.0156787 0)
(-0.0571352 0.014409 0)
(-0.060365 0.0129377 0)
(-0.0632225 0.0112885 0)
(-0.0656709 0.00948575 0)
(-0.0676784 0.00755434 0)
(-0.0692193 0.00551974 0)
(-0.0702733 0.00340793 0)
(-0.0708261 0.00124545 0)
(-0.0708692 -0.000940585 0)
(-0.0704004 -0.00312243 0)
(-0.0694235 -0.00527177 0)
(-0.0679489 -0.00735972 0)
(-0.0659933 -0.00935696 0)
(-0.0635799 -0.0112338 0)
(-0.0607386 -0.0129607 0)
(-0.0575056 -0.014508 0)
(-0.0539239 -0.0158471 0)
(-0.0500425 -0.0169502 0)
(-0.0459163 -0.0177915 0)
(-0.0416056 -0.0183476 0)
(-0.0371756 -0.0185983 0)
(-0.0326954 -0.0185275 0)
(-0.0282371 -0.0181249 0)
(-0.0238745 -0.0173862 0)
(-0.0196817 -0.0163156 0)
(-0.0157316 -0.0149269 0)
(-0.0120942 -0.0132457 0)
(-0.00883479 -0.011312 0)
(-0.0060128 -0.00918319 0)
(-0.00367867 -0.0069373 0)
(-0.00187041 -0.00467671 0)
(-0.000638408 -0.00253138 0)
(-8.75856e-05 -0.000672074 0)
(-0.000111089 0.00110637 0)
(-0.000784704 0.00373494 0)
(-0.00226312 0.00655606 0)
(-0.00439598 0.00940249 0)
(-0.00710545 0.0121471 0)
(-0.0103353 0.0146905 0)
(-0.01402 0.0169587 0)
(-0.0180885 0.0188987 0)
(-0.0224672 0.0204759 0)
(-0.0270805 0.0216699 0)
(-0.0318523 0.0224724 0)
(-0.0367064 0.0228844 0)
(-0.0415686 0.0229142 0)
(-0.0463669 0.0225763 0)
(-0.0510324 0.0218892 0)
(-0.0555005 0.0208751 0)
(-0.0597107 0.0195587 0)
(-0.0636074 0.0179664 0)
(-0.0671405 0.0161262 0)
(-0.0702649 0.0140672 0)
(-0.0729414 0.0118192 0)
(-0.0751365 0.00941291 0)
(-0.0768226 0.00687952 0)
(-0.0779781 0.00425101 0)
(-0.0785878 0.00155999 0)
(-0.0786423 -0.00116018 0)
(-0.0781392 -0.00387543 0)
(-0.0770822 -0.00655095 0)
(-0.075482 -0.00915125 0)
(-0.073356 -0.0116403 0)
(-0.0707286 -0.0139817 0)
(-0.0676312 -0.0161389 0)
(-0.0641022 -0.0180758 0)
(-0.0601868 -0.0197571 0)
(-0.0559371 -0.0211487 0)
(-0.0514114 -0.0222188 0)
(-0.0466742 -0.0229387 0)
(-0.0417952 -0.0232836 0)
(-0.0368486 -0.0232338 0)
(-0.0319121 -0.0227762 0)
(-0.0270657 -0.0219054 0)
(-0.0223904 -0.0206256 0)
(-0.0179666 -0.0189524 0)
(-0.0138724 -0.016915 0)
(-0.0101825 -0.0145583 0)
(-0.0069667 -0.0119459 0)
(-0.00428684 -0.00916281 0)
(-0.00219326 -0.0063184 0)
(-0.000754196 -0.00354825 0)
(-0.000104925 -0.00102528 0)
(-0.000127911 0.00153438 0)
(-0.000897912 0.00494547 0)
(-0.00257975 0.00848105 0)
(-0.00499321 0.011975 0)
(-0.0080425 0.0152985 0)
(-0.0116587 0.0183498 0)
(-0.0157643 0.0210515 0)
(-0.0202779 0.0233482 0)
(-0.0251165 0.0252034 0)
(-0.0301966 0.0265959 0)
(-0.0354352 0.0275175 0)
(-0.04075 0.0279705 0)
(-0.0460612 0.0279657 0)
(-0.0512921 0.0275205 0)
(-0.0563697 0.0266573 0)
(-0.0612254 0.0254026 0)
(-0.0657954 0.0237859 0)
(-0.0700213 0.021839 0)
(-0.0738502 0.0195954 0)
(-0.077235 0.0170896 0)
(-0.0801343 0.0143575 0)
(-0.082513 0.0114357 0)
(-0.084342 0.00836152 0)
(-0.0855987 0.00517319 0)
(-0.0862666 0.00190969 0)
(-0.0863361 -0.00138914 0)
(-0.0858038 -0.00468256 0)
(-0.0846736 -0.00792896 0)
(-0.0829561 -0.0110859 0)
(-0.0806693 -0.0141104 0)
(-0.0778381 -0.0169587 0)
(-0.0744952 -0.0195872 0)
(-0.0706805 -0.0219526 0)
(-0.0664412 -0.0240124 0)
(-0.061832 -0.0257259 0)
(-0.0569143 -0.0270547 0)
(-0.0517563 -0.0279641 0)
(-0.0464319 -0.0284242 0)
(-0.0410204 -0.0284111 0)
(-0.0356051 -0.0279081 0)
(-0.0302725 -0.0269082 0)
(-0.0251108 -0.025415 0)
(-0.0202084 -0.023445 0)
(-0.0156524 -0.0210298 0)
(-0.0115275 -0.0182183 0)
(-0.00791462 -0.0150791 0)
(-0.00488777 -0.0117029 0)
(-0.00250988 -0.0082047 0)
(-0.000866429 -0.00472434 0)
(-0.000121307 -0.00143648 0)
(-0.000144072 0.00201925 0)
(-0.00100833 0.00631229 0)
(-0.00289081 0.0106462 0)
(-0.0055829 0.0148561 0)
(-0.00897143 0.0188128 0)
(-0.0129747 0.022413 0)
(-0.0175031 0.0255779 0)
(-0.0224641 0.028251 0)
(-0.0277651 0.0303948 0)
(-0.0333141 0.0319888 0)
(-0.0390207 0.0330259 0)
(-0.0447964 0.0335106 0)
(-0.0505558 0.0334566 0)
(-0.0562174 0.032885 0)
(-0.0617041 0.0318227 0)
(-0.0669437 0.030301 0)
(-0.0718695 0.0283548 0)
(-0.0764203 0.0260214 0)
(-0.080541 0.0233401 0)
(-0.0841826 0.0203514 0)
(-0.0873019 0.0170974 0)
(-0.0898626 0.0136208 0)
(-0.0918342 0.00996536 0)
(-0.093193 0.00617572 0)
(-0.0939218 0.00229742 0)
(-0.0940101 -0.00162297 0)
(-0.0934541 -0.00553785 0)
(-0.0922572 -0.0093986 0)
(-0.09043 -0.0131556 0)
(-0.0879904 -0.0167584 0)
(-0.0849639 -0.0201558 0)
(-0.0813837 -0.0232967 0)
(-0.077291 -0.02613 0)
(-0.0727347 -0.0286057 0)
(-0.0677715 -0.0306758 0)
(-0.0624656 -0.0322948 0)
(-0.0568886 -0.0334214 0)
(-0.0511186 -0.0340198 0)
(-0.0452398 -0.034061 0)
(-0.0393415 -0.0335243 0)
(-0.0335167 -0.0323999 0)
(-0.0278614 -0.0306899 0)
(-0.0224725 -0.0284109 0)
(-0.0174469 -0.025596 0)
(-0.01288 -0.0222968 0)
(-0.00886458 -0.0185859 0)
(-0.00548736 -0.0145587 0)
(-0.00282401 -0.0103346 0)
(-0.000976871 -0.00605754 0)
(-0.000137143 -0.0019041 0)
(-0.0001599 0.00255984 0)
(-0.00111745 0.00783352 0)
(-0.00319964 0.01305 0)
(-0.00617033 0.0180454 0)
(-0.00989938 0.0226907 0)
(-0.0142923 0.0268823 0)
(-0.0192471 0.030541 0)
(-0.0246597 0.0336102 0)
(-0.0304274 0.0360536 0)
(-0.0364494 0.0378517 0)
(-0.0426275 0.0389999 0)
(-0.0488667 0.0395058 0)
(-0.0550758 0.039387 0)
(-0.0611686 0.038669 0)
(-0.067064 0.0373838 0)
(-0.0726864 0.0355682 0)
(-0.0779662 0.0332627 0)
(-0.0828399 0.0305108 0)
(-0.0872505 0.0273578 0)
(-0.0911473 0.0238507 0)
(-0.0944858 0.0200377 0)
(-0.0972282 0.0159681 0)
(-0.0993434 0.0116921 0)
(-0.100806 0.00726091 0)
(-0.101599 0.00272681 0)
(-0.101711 -0.00185681 0)
(-0.101137 -0.00643537 0)
(-0.0998799 -0.010953 0)
(-0.0979501 -0.0153528 0)
(-0.0953653 -0.0195765 0)
(-0.092151 -0.0235654 0)
(-0.0883407 -0.0272601 0)
(-0.0839764 -0.0306018 0)
(-0.0791081 -0.0335321 0)
(-0.0737943 -0.0359952 0)
(-0.0681018 -0.0379378 0)
(-0.0621052 -0.0393114 0)
(-0.0558869 -0.0400733 0)
(-0.0495359 -0.0401885 0)
(-0.0431474 -0.0396315 0)
(-0.0368217 -0.0383886 0)
(-0.0306626 -0.0364595 0)
(-0.0247766 -0.0338596 0)
(-0.0192709 -0.0306224 0)
(-0.0142523 -0.0268014 0)
(-0.00982617 -0.0224721 0)
(-0.00609249 -0.0177336 0)
(-0.00313987 -0.0127096 0)
(-0.00108735 -0.0075477 0)
(-0.000152814 -0.00242758 0)
(-0.00017568 0.00315583 0)
(-0.00122672 0.00950891 0)
(-0.00350957 0.0156929 0)
(-0.00676097 0.0215446 0)
(-0.0108339 0.0269352 0)
(-0.015621 0.0317616 0)
(-0.0210076 0.0359454 0)
(-0.0268777 0.0394313 0)
(-0.0331181 0.0421847 0)
(-0.0396188 0.0441892 0)
(-0.0462734 0.0454434 0)
(-0.05298 0.0459591 0)
(-0.0596419 0.0457588 0)
(-0.0661679 0.0448734 0)
(-0.0724729 0.0433406 0)
(-0.0784782 0.0412034 0)
(-0.0841116 0.0385086 0)
(-0.0893075 0.035306 0)
(-0.0940072 0.0316476 0)
(-0.0981585 0.0275868 0)
(-0.101716 0.0231785 0)
(-0.104641 0.0184785 0)
(-0.106902 0.0135437 0)
(-0.108472 0.00843189 0)
(-0.109333 0.0032021 0)
(-0.109473 -0.00208539 0)
(-0.108887 -0.00736891 0)
(-0.107576 -0.0125854 0)
(-0.105551 -0.0176702 0)
(-0.102829 -0.0225575 0)
(-0.0994342 -0.0271804 0)
(-0.0954007 -0.0314713 0)
(-0.0907706 -0.0353627 0)
(-0.0855948 -0.038788 0)
(-0.0799332 -0.0416823 0)
(-0.0738546 -0.0439841 0)
(-0.0674368 -0.0456366 0)
(-0.0607658 -0.0465895 0)
(-0.0539359 -0.0468007 0)
(-0.0470483 -0.0462388 0)
(-0.0402107 -0.044885 0)
(-0.0335357 -0.0427352 0)
(-0.0271395 -0.0398028 0)
(-0.0211404 -0.0361205 0)
(-0.0156575 -0.0317424 0)
(-0.0108097 -0.0267462 0)
(-0.0067104 -0.0212341 0)
(-0.00346177 -0.0153337 0)
(-0.00119966 -0.00919679 0)
(-0.000168666 -0.00300734 0)
(-0.000191661 0.00380762 0)
(-0.00133742 0.0113398 0)
(-0.00382377 0.0185776 0)
(-0.00736011 0.0253575 0)
(-0.0117824 0.0315513 0)
(-0.0169703 0.037057 0)
(-0.0227958 0.0417978 0)
(-0.0291309 0.0457208 0)
(-0.0358513 0.0487948 0)
(-0.0428373 0.0510071 0)
(-0.0499742 0.0523613 0)
(-0.0571531 0.0528745 0)
(-0.0642714 0.052575 0)
(-0.071233 0.0515002 0)
(-0.0779489 0.0496942 0)
(-0.0843375 0.047207 0)
(-0.0903242 0.0440922 0)
(-0.0958416 0.0404066 0)
(-0.10083 0.036209 0)
(-0.105235 0.0315598 0)
(-0.109012 0.0265205 0)
(-0.112121 0.0211536 0)
(-0.114528 0.0155227 0)
(-0.116209 0.00969226 0)
(-0.117142 0.003728 0)
(-0.117316 -0.00230292 0)
(-0.116724 -0.00833181 0)
(-0.115368 -0.0142883 0)
(-0.113256 -0.0201001 0)
(-0.110404 -0.0256936 0)
(-0.106837 -0.0309936 0)
(-0.102588 -0.0359238 0)
(-0.0976988 -0.0404077 0)
(-0.0922205 -0.0443697 0)
(-0.0862141 -0.0477355 0)
(-0.0797501 -0.0504344 0)
(-0.0729091 -0.0524004 0)
(-0.0657809 -0.0535744 0)
(-0.0584647 -0.0539062 0)
(-0.0510682 -0.0533569 0)
(-0.0437065 -0.0519015 0)
(-0.0365014 -0.049531 0)
(-0.0295798 -0.0462551 0)
(-0.0230716 -0.0421045 0)
(-0.0171092 -0.0371332 0)
(-0.0118254 -0.0314199 0)
(-0.00734834 -0.0250696 0)
(-0.00379395 -0.0182137 0)
(-0.0013155 -0.0110089 0)
(-0.000185011 -0.00364473 0)
(-0.000208055 0.00451625 0)
(-0.00145075 0.0133292 0)
(-0.00414516 0.0217084 0)
(-0.00797272 0.0294899 0)
(-0.0127519 0.0365461 0)
(-0.0183489 0.0427762 0)
(-0.0246222 0.0481062 0)
(-0.031431 0.0524868 0)
(-0.0386395 0.0558913 0)
(-0.0461181 0.0583123 0)
(-0.0537435 0.0597594 0)
(-0.0613994 0.0602564 0)
(-0.0689773 0.0598388 0)
(-0.0763763 0.0585511 0)
(-0.0835039 0.0564453 0)
(-0.0902754 0.0535788 0)
(-0.0966143 0.0500129 0)
(-0.102452 0.0458117 0)
(-0.107727 0.0410414 0)
(-0.112385 0.0357693 0)
(-0.116381 0.0300641 0)
(-0.119674 0.0239948 0)
(-0.12223 0.0176317 0)
(-0.124023 0.0110458 0)
(-0.125034 0.00430959 0)
(-0.125247 -0.00250314 0)
(-0.124657 -0.00931674 0)
(-0.123264 -0.0160536 0)
(-0.121073 -0.022634 0)
(-0.118102 -0.0289762 0)
(-0.114372 -0.0349965 0)
(-0.109917 -0.0406098 0)
(-0.104776 -0.0457305 0)
(-0.0990018 -0.0502728 0)
(-0.0926551 -0.0541527 0)
(-0.0858078 -0.0572892 0)
(-0.0785429 -0.059606 0)
(-0.0709536 -0.0610341 0)
(-0.0631441 -0.0615137 0)
(-0.0552284 -0.0609974 0)
(-0.0473298 -0.059452 0)
(-0.0395794 -0.0568622 0)
(-0.0321153 -0.0532328 0)
(-0.0250803 -0.0485912 0)
(-0.0186204 -0.0429898 0)
(-0.0128836 -0.0365078 0)
(-0.00801332 -0.0292525 0)
(-0.00414046 -0.0213593 0)
(-0.00143648 -0.0129903 0)
(-0.00020213 -0.00434197 0)
(-0.000225049 0.00528339 0)
(-0.00156776 0.0154811 0)
(-0.00447639 0.0250918 0)
(-0.00860332 0.0339499 0)
(-0.0137489 0.0419283 0)
(-0.019765 0.0489285 0)
(-0.0264962 0.05488 0)
(-0.0337883 0.0597382 0)
(-0.0414936 0.0634821 0)
(-0.0494721 0.0661113 0)
(-0.0575916 0.0676428 0)
(-0.0657284 0.0681085 0)
(-0.073768 0.0675521 0)
(-0.081605 0.0660269 0)
(-0.0891431 0.0635934 0)
(-0.0962954 0.0603175 0)
(-0.102983 0.0562687 0)
(-0.109138 0.0515192 0)
(-0.114696 0.0461427 0)
(-0.119605 0.0402141 0)
(-0.123817 0.0338087 0)
(-0.127293 0.0270027 0)
(-0.129999 0.0198727 0)
(-0.131909 0.0124962 0)
(-0.133 0.0049521 0)
(-0.13326 -0.00267928 0)
(-0.132679 -0.0103156 0)
(-0.131257 -0.0178721 0)
(-0.128999 -0.0252617 0)
(-0.125919 -0.0323947 0)
(-0.122039 -0.0391788 0)
(-0.117388 -0.04552 0)
(-0.112007 -0.0513226 0)
(-0.105946 -0.0564908 0)
(-0.0992658 -0.0609296 0)
(-0.0920398 -0.0645468 0)
(-0.0843522 -0.0672549 0)
(-0.0762998 -0.0689734 0)
(-0.0679913 -0.0696316 0)
(-0.0595472 -0.0691716 0)
(-0.0510988 -0.0675508 0)
(-0.0427875 -0.0647457 0)
(-0.0347628 -0.0607545 0)
(-0.0271811 -0.0555997 0)
(-0.0202034 -0.0493313 0)
(-0.0139937 -0.0420278 0)
(-0.00871204 -0.0337985 0)
(-0.00450515 -0.0247828 0)
(-0.0015641 -0.0151489 0)
(-0.000220287 -0.00510211 0)
(-0.000242805 0.00611118 0)
(-0.00168938 0.0178013 0)
(-0.00481983 0.0287357 0)
(-0.00925597 0.0387469 0)
(-0.0147789 0.0477086 0)
(-0.0212257 0.0555249 0)
(-0.028426 0.0621296 0)
(-0.0362115 0.0674843 0)
(-0.0444222 0.0715753 0)
(-0.0529073 0.0744104 0)
(-0.0615254 0.0760158 0)
(-0.0701453 0.076433 0)
(-0.0786466 0.0757154 0)
(-0.0869194 0.0739263 0)
(-0.0948643 0.0711358 0)
(-0.102392 0.0674193 0)
(-0.109424 0.0628553 0)
(-0.115888 0.0575246 0)
(-0.121724 0.0515089 0)
(-0.126878 0.0448907 0)
(-0.131303 0.0377524 0)
(-0.13496 0.0301768 0)
(-0.137815 0.0222469 0)
(-0.139841 0.0140466 0)
(-0.141018 0.00566071 0)
(-0.141329 -0.00282415 0)
(-0.140767 -0.0113192 0)
(-0.139327 -0.0197331 0)
(-0.137014 -0.0279714 0)
(-0.13384 -0.0359365 0)
(-0.129823 -0.0435278 0)
(-0.124991 -0.0506418 0)
(-0.119384 -0.0571728 0)
(-0.113049 -0.063014 0)
(-0.106046 -0.0680589 0)
(-0.0984493 -0.072203 0)
(-0.0903439 -0.0753462 0)
(-0.0818293 -0.0773952 0)
(-0.0730186 -0.0782666 0)
(-0.0640386 -0.0778901 0)
(-0.0550289 -0.076212 0)
(-0.046141 -0.0731986 0)
(-0.0375371 -0.0688395 0)
(-0.0293877 -0.063151 0)
(-0.0218698 -0.0561788 0)
(-0.0151648 -0.0480002 0)
(-0.0094508 -0.0387257 0)
(-0.00489166 -0.0284989 0)
(-0.00169979 -0.0174948 0)
(-0.000239723 -0.00592893 0)
(-0.000261469 0.00700226 0)
(-0.00181646 0.0202962 0)
(-0.00517765 0.0326495 0)
(-0.00993435 0.0438923 0)
(-0.0158472 0.053899 0)
(-0.0227372 0.0625771 0)
(-0.0304183 0.0698659 0)
(-0.0387075 0.0757346 0)
(-0.0474316 0.0801781 0)
(-0.0564287 0.0832146 0)
(-0.0655478 0.0848809 0)
(-0.0746504 0.0852298 0)
(-0.0836102 0.0843263 0)
(-0.0923133 0.0822447 0)
(-0.100657 0.0790664 0)
(-0.108552 0.0748769 0)
(-0.115917 0.0697648 0)
(-0.122681 0.06382 0)
(-0.128785 0.0571327 0)
(-0.134175 0.0497929 0)
(-0.138805 0.0418903 0)
(-0.142637 0.0335143 0)
(-0.145638 0.0247541 0)
(-0.147782 0.0156992 0)
(-0.149046 0.00644036 0)
(-0.149416 -0.00293016 0)
(-0.148881 -0.0123176 0)
(-0.147436 -0.0216243 0)
(-0.145083 -0.0307489 0)
(-0.14183 -0.0395862 0)
(-0.137694 -0.0480272 0)
(-0.132701 -0.0559589 0)
(-0.126886 -0.0632654 0)
(-0.120294 -0.0698284 0)
(-0.112985 -0.0755289 0)
(-0.10503 -0.0802492 0)
(-0.0965164 -0.0838751 0)
(-0.0875448 -0.0862989 0)
(-0.0782325 -0.0874226 0)
(-0.068712 -0.0871616 0)
(-0.0591313 -0.0854488 0)
(-0.0496526 -0.0822379 0)
(-0.0404509 -0.0775081 0)
(-0.031712 -0.0712674 0)
(-0.0236301 -0.0635558 0)
(-0.0164054 -0.0544479 0)
(-0.0102356 -0.044055 0)
(-0.00530345 -0.0325247 0)
(-0.0018449 -0.0200397 0)
(-0.00026067 -0.00682696 0)
(-0.000281175 0.00795968 0)
(-0.00194978 0.0229736 0)
(-0.00555179 0.0368441 0)
(-0.0106417 0.0493986 0)
(-0.0169581 0.0605125 0)
(-0.0243048 0.0700977 0)
(-0.0324788 0.0781001 0)
(-0.0412813 0.0844977 0)
(-0.0505255 0.0892967 0)
(-0.0600377 0.0925267 0)
(-0.0696575 0.0942377 0)
(-0.0792388 0.0944955 0)
(-0.0886498 0.0933783 0)
(-0.0977728 0.0909735 0)
(-0.106503 0.0873744 0)
(-0.11475 0.0826785 0)
(-0.122433 0.0769849 0)
(-0.129482 0.0703932 0)
(-0.135839 0.0630024 0)
(-0.141451 0.0549107 0)
(-0.146275 0.0462146 0)
(-0.150274 0.03701 0)
(-0.153416 0.0273918 0)
(-0.155674 0.017455 0)
(-0.157029 0.00729541 0)
(-0.157463 -0.00298947 0)
(-0.156965 -0.0132996 0)
(-0.155528 -0.0235314 0)
(-0.153151 -0.0335772 0)
(-0.14984 -0.0433247 0)
(-0.145608 -0.0526566 0)
(-0.140477 -0.0614505 0)
(-0.134477 -0.06958 0)
(-0.127653 -0.0769147 0)
(-0.120059 -0.0833227 0)
(-0.111765 -0.0886716 0)
(-0.102859 -0.0928318 0)
(-0.0934409 -0.0956793 0)
(-0.0836323 -0.0970997 0)
(-0.0735712 -0.0969916 0)
(-0.0634132 -0.0952718 0)
(-0.0533316 -0.0918794 0)
(-0.0435148 -0.0867805 0)
(-0.0341646 -0.0799723 0)
(-0.0254939 -0.0714873 0)
(-0.0177233 -0.061396 0)
(-0.0110719 -0.0498096 0)
(-0.00574381 -0.0368797 0)
(-0.00200073 -0.022797 0)
(-0.000283352 -0.0078014 0)
(-0.000302051 0.00898686 0)
(-0.00209009 0.0258419 0)
(-0.0059441 0.0413313 0)
(-0.0113812 0.0552794 0)
(-0.0181157 0.0675633 0)
(-0.025933 0.0780995 0)
(-0.0346116 0.0868426 0)
(-0.043936 0.0937814 0)
(-0.053705 0.0989347 0)
(-0.0637325 0.102347 0)
(-0.0738487 0.104082 0)
(-0.0838999 0.104222 0)
(-0.0937493 0.10286 0)
(-0.103276 0.100098 0)
(-0.112374 0.0960437 0)
(-0.120952 0.0908063 0)
(-0.128931 0.0844971 0)
(-0.136243 0.077226 0)
(-0.142831 0.0691014 0)
(-0.148647 0.0602292 0)
(-0.153648 0.0507131 0)
(-0.157801 0.0406549 0)
(-0.161074 0.0301549 0)
(-0.163444 0.019313 0)
(-0.164889 0.0082293 0)
(-0.165393 -0.00299417 0)
(-0.164942 -0.0142528 0)
(-0.163528 -0.025438 0)
(-0.161148 -0.0364364 0)
(-0.157802 -0.047129 0)
(-0.153501 -0.0573907 0)
(-0.14826 -0.06709 0)
(-0.142107 -0.0760896 0)
(-0.13508 -0.084247 0)
(-0.12723 -0.0914162 0)
(-0.118625 -0.0974493 0)
(-0.109348 -0.1022 0)
(-0.0995027 -0.105525 0)
(-0.0892102 -0.107293 0)
(-0.0786138 -0.107381 0)
(-0.0678771 -0.105689 0)
(-0.0571838 -0.102137 0)
(-0.0467366 -0.0966756 0)
(-0.0367543 -0.0892888 0)
(-0.0274696 -0.0799992 0)
(-0.0191256 -0.0688713 0)
(-0.0119652 -0.056015 0)
(-0.0062159 -0.0415853 0)
(-0.00216855 -0.0257816 0)
(-0.000307993 -0.00885813 0)
(-0.000324225 0.0100876 0)
(-0.00223811 0.0289106 0)
(-0.00635639 0.0461243 0)
(-0.0121555 0.0615497 0)
(-0.0193237 0.0750657 0)
(-0.0276255 0.0865954 0)
(-0.0368198 0.0961033 0)
(-0.046673 0.103591 0)
(-0.0569685 0.109093 0)
(-0.0675077 0.112671 0)
(-0.0781108 0.114405 0)
(-0.0886172 0.114396 0)
(-0.0988854 0.112754 0)
(-0.108792 0.109598 0)
(-0.118231 0.10505 0)
(-0.127111 0.0992353 0)
(-0.135356 0.092276 0)
(-0.142902 0.0842938 0)
(-0.149693 0.0754063 0)
(-0.155686 0.0657276 0)
(-0.160843 0.0553684 0)
(-0.16513 0.0444358 0)
(-0.168522 0.033035 0)
(-0.170995 0.0212698 0)
(-0.172528 0.0092442 0)
(-0.173106 -0.00293651 0)
(-0.172713 -0.015164 0)
(-0.171339 -0.0273256 0)
(-0.168978 -0.0393031 0)
(-0.165626 -0.0509716 0)
(-0.161287 -0.0621987 0)
(-0.155973 -0.0728442 0)
(-0.149704 -0.0827601 0)
(-0.142513 -0.0917914 0)
(-0.134447 -0.0997773 0)
(-0.125566 -0.106553 0)
(-0.115952 -0.111954 0)
(-0.105705 -0.115818 0)
(-0.0949491 -0.117989 0)
(-0.0838304 -0.118325 0)
(-0.0725195 -0.116702 0)
(-0.0612109 -0.11302 0)
(-0.0501214 -0.107211 0)
(-0.0394879 -0.0992399 0)
(-0.0295646 -0.0891182 0)
(-0.020619 -0.076902 0)
(-0.0129205 -0.0626982 0)
(-0.00672284 -0.046665 0)
(-0.00234963 -0.0290101 0)
(-0.000334819 -0.0100037 0)
(-0.000347836 0.0112662 0)
(-0.00239462 0.0321901 0)
(-0.00679052 0.0512372 0)
(-0.0129678 0.0682248 0)
(-0.0205856 0.0830347 0)
(-0.0293858 0.0955977 0)
(-0.0391056 0.10589 0)
(-0.0494921 0.11393 0)
(-0.0603121 0.11977 0)
(-0.0713541 0.123489 0)
(-0.0824284 0.125192 0)
(-0.0933678 0.124997 0)
(-0.104027 0.123035 0)
(-0.114281 0.119444 0)
(-0.124024 0.114363 0)
(-0.133168 0.107932 0)
(-0.14164 0.100288 0)
(-0.14938 0.0915632 0)
(-0.156338 0.0818861 0)
(-0.162474 0.0713783 0)
(-0.167756 0.0601569 0)
(-0.172154 0.0483342 0)
(-0.175645 0.0360194 0)
(-0.178209 0.0233193 0)
(-0.179827 0.0103405 0)
(-0.180481 -0.00280913 0)
(-0.180158 -0.0160189 0)
(-0.178843 -0.0291733 0)
(-0.176526 -0.0421502 0)
(-0.173199 -0.0548198 0)
(-0.168861 -0.0670434 0)
(-0.163517 -0.0786725 0)
(-0.157179 -0.0895488 0)
(-0.149873 -0.0995046 0)
(-0.141638 -0.108364 0)
(-0.132528 -0.115944 0)
(-0.12262 -0.122061 0)
(-0.112011 -0.126528 0)
(-0.100822 -0.129168 0)
(-0.0892035 -0.129811 0)
(-0.0773314 -0.128309 0)
(-0.0654101 -0.124536 0)
(-0.0536712 -0.118399 0)
(-0.0423704 -0.109846 0)
(-0.0317851 -0.0988706 0)
(-0.0222097 -0.0855172 0)
(-0.0139426 -0.0698883 0)
(-0.00726774 -0.0521439 0)
(-0.00254526 -0.0325006 0)
(-0.000364072 -0.0112452 0)
(-0.000373041 0.0125271 0)
(-0.0025605 0.0356916 0)
(-0.00724857 0.0566852 0)
(-0.0138211 0.0753213 0)
(-0.0219051 0.0914853 0)
(-0.0312172 0.105118 0)
(-0.0414706 0.11621 0)
(-0.0523914 0.124798 0)
(-0.0637291 0.130956 0)
(-0.0752586 0.134787 0)
(-0.0867807 0.136419 0)
(-0.0981219 0.135995 0)
(-0.109134 0.133667 0)
(-0.119692 0.129595 0)
(-0.129692 0.123938 0)
(-0.13905 0.116851 0)
(-0.147699 0.108488 0)
(-0.155583 0.0989916 0)
(-0.162661 0.0885008 0)
(-0.168897 0.0771452 0)
(-0.174265 0.0650478 0)
(-0.178742 0.0523255 0)
(-0.182309 0.0390903 0)
(-0.184948 0.0254513 0)
(-0.186641 0.0115165 0)
(-0.187374 -0.00260549 0)
(-0.18713 -0.0168026 0)
(-0.185894 -0.0309578 0)
(-0.18365 -0.0449466 0)
(-0.180386 -0.0586357 0)
(-0.176094 -0.0718808 0)
(-0.170771 -0.0845261 0)
(-0.16442 -0.0964035 0)
(-0.157058 -0.107333 0)