/*--------------------------------*- C++ -*----------------------------------*\
  =========                 |
  \\      /  F ield         | OpenFOAM: The Open Source CFD Toolbox
   \\    /   O peration     | Website:  https://openfoam.org
    \\  /    A nd           | Version:  7
     \\/     M anipulation  |
\*---------------------------------------------------------------------------*/
FoamFile
{
    version     2.0;
    format      ascii;
    class       volScalarField;
    location    "0.0708";
    object      p;
}
// * * * * * * * * * * * * * * * * * * * * * * * * * * * * * * * * * * * * * //

dimensions      [0 2 -2 0 0 0 0];

internalField   nonuniform List<scalar> 
2500
(
1.57896e-05
-0.000503824
-0.00218541
-0.00469808
-0.00765281
-0.01073
-0.0136848
-0.0163257
-0.0185073
-0.0201236
-0.0211004
-0.0213897
-0.0209653
-0.0198191
-0.0179587
-0.0154047
-0.0121892
-0.00835373
-0.00394856
0.000968732
0.00633418
0.0120783
0.0181267
0.0244011
0.0308198
0.0372987
0.0437517
0.0500923
0.0562338
0.062091
0.0675811
0.072625
0.0771489
0.0810855
0.0843763
0.0869727
0.0888383
0.0899508
0.0903041
0.0899107
0.0888049
0.0870448
0.0847173
0.0819417
0.0788763
0.0757229
0.0727356
0.0702261
0.0685897
0.0681153
0.000550665
2.7688e-05
-0.00134722
-0.00334159
-0.00566854
-0.00810248
-0.0104503
-0.0125524
-0.014282
-0.0155426
-0.0162634
-0.0163963
-0.0159125
-0.0147998
-0.0130605
-0.0107094
-0.00777187
-0.00428286
-0.000285527
0.00416978
0.00902652
0.0142227
0.0196919
0.0253636
0.0311642
0.0370179
0.0428472
0.0485741
0.0541211
0.0594117
0.0643724
0.0689332
0.0730292
0.0766023
0.0796021
0.0819883
0.0837316
0.0848161
0.0852408
0.0850217
0.0841941
0.0828148
0.0809644
0.0787503
0.0763094
0.07381
0.0714519
0.0694575
0.0681108
0.0676409
0.00223567
0.00140583
1.89337e-05
-0.00178571
-0.00382716
-0.00593031
-0.00794064
-0.00972706
-0.011182
-0.0122205
-0.0127788
-0.0128123
-0.0122929
-0.0112076
-0.00955647
-0.00735092
-0.00461256
-0.0013719
0.00233271
0.00645604
0.0109469
0.0157491
0.0208016
0.02604
0.0313968
0.0368021
0.0421849
0.0474736
0.0525969
0.057485
0.0620706
0.0662902
0.0700849
0.0734024
0.0761981
0.0784364
0.0800922
0.081153
0.0816197
0.081509
0.0808545
0.0797086
0.078144
0.0762551
0.0741587
0.0719938
0.0699204
0.0681146
0.0667611
0.0660086
0.00478043
0.003414
0.00180136
-3.21702e-05
-0.00200276
-0.00397226
-0.00581637
-0.00742983
-0.00872404
-0.00962733
-0.0100849
-0.0100575
-0.00952055
-0.00846195
-0.00688147
-0.00478922
-0.00220453
0.000844967
0.00432435
0.00819224
0.0124016
0.0169006
0.0216327
0.0265383
0.0315545
0.0366166
0.0416585
0.0466133
0.051415
0.0559984
0.0603011
0.0642641
0.067833
0.0709595
0.0736023
0.0757289
0.0773166
0.0783538
0.0788418
0.0787957
0.0782456
0.077238
0.0758363
0.0741215
0.0721914
0.0701595
0.0681563
0.0663228
0.0647516
0.0634842
0.00782631
0.0057978
0.00384162
0.00185858
-0.000160681
-0.00210777
-0.00388407
-0.0054081
-0.00660953
-0.00743026
-0.00782525
-0.00776215
-0.00722042
-0.0061905
-0.00467298
-0.00267766
-0.000222663
0.00266642
0.00595728
0.00961164
0.0135859
0.0178317
0.0222967
0.0269251
0.0316584
0.0364358
0.0411956
0.0458751
0.0504122
0.054746
0.0588176
0.0625718
0.0659573
0.0689288
0.0714473
0.0734822
0.0750116
0.0760241
0.0765198
0.0765112
0.0760239
0.0750975
0.0737859
0.0721567
0.0702899
0.0682762
0.0662214
0.0642391
0.0623334
0.060424
0.011099
0.00835699
0.00598395
0.00376576
0.00160764
-0.000404744
-0.00219359
-0.00369831
-0.00486544
-0.00564982
-0.00601628
-0.00593966
-0.00540445
-0.0044043
-0.00294155
-0.00102659
0.00132288
0.00408248
0.00722175
0.0107048
0.0144906
0.0185339
0.0227854
0.0271929
0.0317011
0.036253
0.0407899
0.0452529
0.049583
0.0537222
0.0576148
0.061208
0.0644528
0.0673056
0.0697289
0.0716926
0.0731749
0.0741633
0.0746559
0.0746616
0.074201
0.0733067
0.0720228
0.0704048
0.0685168
0.0664297
0.06423
0.0620103
0.0596934
0.0570872
0.01439
0.0109218
0.00809015
0.00557762
0.00321401
0.00106875
-0.000796584
-0.00233921
-0.00352054
-0.00430731
-0.00467378
-0.00460206
-0.00408197
-0.00311095
-0.00169375
0.00015802
0.00242638
0.00508746
0.00811196
0.0114655
0.0151093
0.0190003
0.0230918
0.0273341
0.0316748
0.0360596
0.0404326
0.0447374
0.0489173
0.0529169
0.0566821
0.0601619
0.0633087
0.0660796
0.0684374
0.0703518
0.0718
0.0727677
0.07325
0.0732519
0.0727886
0.0718856
0.0705782
0.0689107
0.0669336
0.0647015
0.0622864
0.0597667
0.0569934
0.0536754
0.0175369
0.0133501
0.0100393
0.00719483
0.00458011
0.00225356
0.000264441
-0.00135929
-0.0025919
-0.00341077
-0.0037989
-0.00374542
-0.0032456
-0.00230091
-0.000918907
0.000887076
0.00309825
0.00569068
0.00863561
0.0118998
0.0154456
0.0192319
0.0232139
0.0273439
0.0315717
0.0358449
0.0401098
0.0443117
0.0483958
0.0523079
0.0559953
0.0594076
0.0624978
0.0652228
0.0675452
0.0694331
0.0708623
0.0718157
0.0722853
0.0722716
0.0717843
0.070842
0.0694721
0.067709
0.0655918
0.0631623
0.0604821
0.0576206
0.0543665
0.0503401
0.020413
0.0155233
0.0117257
0.00852634
0.00563023
0.00308869
0.000941927
-0.000794339
-0.00210533
-0.00297779
-0.00340267
-0.00337574
-0.0028976
-0.00197385
-0.000615069
0.00116336
0.00334141
0.00589464
0.00879433
0.0120077
0.0154982
0.0192256
0.0231466
0.0272151
0.0313823
0.0355973
0.0398077
0.0439601
0.0480007
0.051876
0.0555338
0.0589236
0.0619982
0.0647138
0.0670314
0.0689177
0.0703455
0.0712951
0.0717544
0.0717194
0.0711943
0.0701915
0.0687306
0.0668382
0.0645439
0.0618792
0.058899
0.0556683
0.0519209
0.0471969
0.0229175
0.017342
0.013056
0.0094885
0.0062914
0.0035121
0.00118425
-0.000686424
-0.00209445
-0.00303474
-0.00350546
-0.00350854
-0.00304971
-0.00213865
-0.000789076
0.000981354
0.00315108
0.00569475
0.00858327
0.011784
0.0152607
0.018974
0.0228814
0.0269378
0.0310953
0.035304
0.0395123
0.0436674
0.0477159
0.0516044
0.0552805
0.0586931
0.0617937
0.0645373
0.0668828
0.0687944
0.070242
0.0712022
0.0716587
0.0716028
0.0710333
0.0699566
0.0683859
0.0663406
0.0638427
0.0609159
0.0576114
0.0539929
0.0497451
0.0443347
0.024967
0.0187204
0.0139472
0.010004
0.00649374
0.00346198
0.000937831
-0.00108127
-0.00259778
-0.00361378
-0.00413394
-0.00416591
-0.00372025
-0.00281064
-0.00145397
0.000329663
0.00251693
0.00508128
0.00799293
0.0112189
0.0147231
0.0184664
0.0224068
0.0264996
0.0306976
0.0349511
0.039209
0.0434185
0.0475261
0.0514778
0.0552203
0.0587015
0.0618711
0.0646819
0.0670903
0.0690573
0.0705493
0.0715389
0.0720054
0.071935
0.0713212
0.0701648
0.0684732
0.0662597
0.0635402
0.0603327
0.0566865
0.052667
0.0479138
0.041824
0.0264893
0.0195818
0.0143233
0.0100003
0.00616966
0.00287673
0.000147459
-0.00202769
-0.00365803
-0.00475204
-0.00532027
-0.00537565
-0.00493333
-0.00401089
-0.00262839
-0.000808463
0.00142359
0.00403978
0.00700938
0.0102988
0.0138718
0.017689
0.0217087
0.0258861
0.0301742
0.0345234
0.0388824
0.043198
0.0474159
0.0514814
0.0553396
0.0589365
0.0622198
0.0651394
0.0676485
0.0697046
0.0712698
0.0723124
0.0728068
0.0727341
0.0720825
0.0708474
0.0690307
0.0666408
0.0636886
0.0601876
0.0561873
0.0517563
0.0464918
0.0397235
0.0274188
0.0198558
0.0141126
0.00940751
0.00525273
0.00169432
-0.00124389
-0.00357747
-0.00532185
-0.00649124
-0.00710161
-0.00717082
-0.00671842
-0.00576578
-0.00433614
-0.00245478
-0.000149094
0.00255133
0.00561459
0.00900631
0.0126896
0.0166249
0.0207701
0.0250804
0.0295084
0.0340042
0.038516
0.0429898
0.0473702
0.0516011
0.0556256
0.0593875
0.0628315
0.0659044
0.0685555
0.070738
0.0724098
0.0735339
0.0740796
0.0740226
0.0733458
0.0720392
0.0700998
0.0675313
0.0643406
0.0605379
0.0561739
0.0513222
0.0455383
0.0380856
0.0276927
0.0194746
0.013246
0.00815724
0.00367667
-0.000148297
-0.0032953
-0.00578539
-0.00763956
-0.00887731
-0.00951969
-0.00958927
-0.00910984
-0.00810652
-0.0066058
-0.00463563
-0.00222561
0.000592903
0.00378667
0.00732032
0.0111562
0.0152542
0.0195716
0.0240633
0.0286814
0.0333753
0.0380923
0.0427773
0.0473736
0.051823
0.0560664
0.0600448
0.0636995
0.0669734
0.0698116
0.0721627
0.0739791
0.0752185
0.0758446
0.0758273
0.075144
0.0737792
0.0717251
0.0689811
0.0655507
0.0614414
0.0567061
0.0514244
0.0451103
0.0369598
0.027249
0.0183713
0.0116546
0.00618082
0.00137426
-0.00271588
-0.00606836
-0.00870935
-0.0106651
-0.0119602
-0.0126205
-0.0126732
-0.0121463
-0.0110687
-0.00947023
-0.0073815
-0.00483446
-0.00186231
0.00150021
0.00521655
0.00924813
0.0135541
0.0180912
0.0228135
0.0276724
0.0326166
0.0375922
0.0425428
0.0474098
0.0521329
0.0566502
0.0608993
0.064818
0.0683447
0.0714197
0.073986
0.0759905
0.0773848
0.0781262
0.0781788
0.0775138
0.07611
0.0739548
0.0710435
0.0673762
0.0629581
0.0578454
0.0521238
0.0452652
0.0363965
0.0260242
0.016478
0.00926837
0.00340798
-0.0017238
-0.00607579
-0.00962768
-0.0124106
-0.0144561
-0.0157936
-0.0164539
-0.0164689
-0.0158707
-0.0146921
-0.0129662
-0.0107266
-0.00800764
-0.00484445
-0.00127338
0.00266775
0.0069393
0.0114996
0.0163045
0.0213074
0.0264589
0.0317067
0.0369956
0.0422676
0.047462
0.0525161
0.057365
0.0619426
0.0661824
0.0700179
0.073384
0.0762177
0.0784595
0.0800543
0.0809527
0.0811117
0.080496
0.0790787
0.0768416
0.0737759
0.0698783
0.065152
0.0596563
0.0534842
0.0460634
0.0364491
0.0239516
0.0137237
0.00601455
-0.000234496
-0.00568997
-0.0102987
-0.0140415
-0.0169543
-0.0190741
-0.0204354
-0.021074
-0.0210265
-0.0203295
-0.0190198
-0.0171339
-0.0147084
-0.0117802
-0.00838644
-0.00456525
-0.000355768
0.00420125
0.0090632
0.0141852
0.0195198
0.0250167
0.0306225
0.0362807
0.0419316
0.0475124
0.0529574
0.0581987
0.063166
0.0677881
0.0719932
0.0757101
0.0788693
0.081404
0.0832517
0.0843552
0.0846642
0.0841361
0.082737
0.0804432
0.077241
0.0731236
0.0680919
0.0622088
0.0555746
0.0475708
0.0371767
0.0209598
0.0100334
0.00181618
-0.0048239
-0.0106008
-0.0154597
-0.0193821
-0.0224097
-0.0245847
-0.0259473
-0.0265385
-0.0263999
-0.0255729
-0.0240983
-0.0220164
-0.019367
-0.0161895
-0.0125235
-0.00840866
-0.00388561
0.0010038
0.00621606
0.0117055
0.0174239
0.0233201
0.0293397
0.0354248
0.0415139
0.0475421
0.0534408
0.0591384
0.0645605
0.0696307
0.0742714
0.0784047
0.0819538
0.0848439
0.0870042
0.0883689
0.0888791
0.0884839
0.087142
0.0848229
0.0815076
0.077185
0.0718537
0.0655797
0.058471
0.0498601
0.0386457
0.0169722
0.0053266
-0.00340895
-0.0104428
-0.0165381
-0.0216384
-0.0257267
-0.0288504
-0.0310579
-0.0323951
-0.0329089
-0.0326463
-0.0316537
-0.0299766
-0.0276592
-0.0247445
-0.021275
-0.0172924
-0.0128383
-0.00795462
-0.00268437
0.00292813
0.00883655
0.014992
0.0213426
0.027833
0.034404
0.0409927
0.0475316
0.0539494
0.0601708
0.0661169
0.0717059
0.0768537
0.0814753
0.0854856
0.0888012
0.0913418
0.0930319
0.0938029
0.0935945
0.0923566
0.0900508
0.0866518
0.0821437
0.0765214
0.0698545
0.0622586
0.0530134
0.040932
0.0119051
-0.000483729
-0.00974952
-0.0171799
-0.0235897
-0.0289208
-0.0331581
-0.0363556
-0.0385684
-0.0398489
-0.0402504
-0.039826
-0.0386277
-0.036706
-0.0341093
-0.0308844
-0.0270768
-0.0227306
-0.0178891
-0.0125959
-0.00689478
-0.000830758
0.00554931
0.0121961
0.0190572
0.0260766
0.0331942
0.0403453
0.0474606
0.0544659
0.061282
0.0678256
0.0740089
0.0797413
0.0849297
0.0894802
0.0932997
0.0962971
0.0983862
0.0994871
0.0995286
0.0984502
0.0962045
0.0927584
0.0880897
0.0821893
0.0751293
0.0670334
0.0571243
0.0441231
0.00566744
-0.00749235
-0.0173019
-0.0251317
-0.0318505
-0.0373993
-0.0417652
-0.0450098
-0.0471956
-0.0483826
-0.0486314
-0.0480019
-0.0465524
-0.0443388
-0.0414145
-0.0378304
-0.033635
-0.0288749
-0.0235957
-0.0178418
-0.0116581
-0.00508991
0.00181557
0.00900896
0.0164377
0.0240454
0.0317712
0.0395494
0.0473088
0.0549724
0.0624577
0.0696763
0.0765348
0.0829353
0.0887763
0.0939542
0.0983648
0.101905
0.104477
0.105988
0.106353
0.1055
0.10337
0.0999219
0.0951244
0.0889633
0.0815128
0.0729044
0.0622992
0.0483197
-0.00184055
-0.0158031
-0.0261717
-0.0344035
-0.0414243
-0.0471744
-0.0516443
-0.0549037
-0.0570243
-0.0580746
-0.0581236
-0.057239
-0.0554864
-0.0529279
-0.0496224
-0.0456251
-0.0409881
-0.0357608
-0.0299903
-0.0237225
-0.0170027
-0.0098765
-0.00239086
0.00540511
0.0134592
0.0217151
0.0301118
0.038583
0.0470558
0.0554513
0.0636832
0.0716588
0.0792786
0.0864371
0.0930239
0.0989248
0.104024
0.108205
0.111355
0.113366
0.11414
0.11359
0.111644
0.108248
0.103362
0.0969633
0.0891285
0.0799961
0.0686606
0.0536381
-0.0107286
-0.0255303
-0.036475
-0.0451111
-0.0524246
-0.0583558
-0.0628994
-0.066135
-0.0681448
-0.0690073
-0.0688013
-0.0676039
-0.0654888
-0.0625255
-0.0587788
-0.054309
-0.049172
-0.0434199
-0.0371017
-0.0302643
-0.0229533
-0.015214
-0.0070927
0.00136229
0.0100997
0.0190641
0.0281949
0.0374255
0.0466827
0.0558853
0.0649444
0.0737627
0.0822349
0.0902477
0.0976814
0.10441
0.110305
0.115235
0.119071
0.121689
0.122972
0.122816
0.121134
0.117856
0.11293
0.106325
0.0981169
0.0884509
0.076349
0.0602125
-0.0211179
-0.0368006
-0.0483407
-0.0573826
-0.0649766
-0.0710635
-0.0756436
-0.0788086
-0.0806527
-0.0812667
-0.080741
-0.0791635
-0.0766177
-0.0731814
-0.0689263
-0.0639183
-0.0582175
-0.0518788
-0.044953
-0.0374878
-0.0295287
-0.0211202
-0.0123073
-0.0031368
0.00634177
0.0160746
0.0260024
0.0360594
0.0461723
0.0562588
0.0662278
0.0759781
0.0853986
0.0943684
0.102758
0.110429
0.117239
0.12304
0.127684
0.131029
0.132936
0.133281
0.131958
0.128878
0.123975
0.117204
0.108639
0.0984322
0.0855262
0.068198
-0.0331429
-0.0497555
-0.0619127
-0.0713609
-0.079219
-0.0854296
-0.0900005
-0.0930375
-0.0946496
-0.0949425
-0.0940204
-0.0919842
-0.0889287
-0.0849414
-0.0801021
-0.0744828
-0.0681482
-0.0611562
-0.0535594
-0.0454056
-0.0367398
-0.0276052
-0.0180447
-0.0081026
0.00217417
0.0127344
0.0235213
0.0344708
0.0455106
0.0565585
0.0675217
0.078296
0.088765
0.0988005
0.108263
0.117001
0.124856
0.131664
0.137255
0.141464
0.144129
0.145101
0.14425
0.141465
0.136661
0.129775
0.120879
0.110128
0.0963789
0.0777737
-0.0469535
-0.0645539
-0.077353
-0.0872062
-0.0953068
-0.101601
-0.106105
-0.108943
-0.110243
-0.110127
-0.108718
-0.10613
-0.102473
-0.097845
-0.0923355
-0.0860233
-0.078978
-0.0712607
-0.0629251
-0.0540193
-0.0445868
-0.0346688
-0.0243051
-0.0135364
-0.00240596
0.00903893
0.020745
0.0326515
0.0446882
0.0567743
0.0688167
0.080709
0.0923303
0.103546
0.114205
0.124145
0.13319
0.141155
0.147849
0.153079
0.156656
0.158403
0.158159
0.155787
0.151175
0.144241
0.135048
0.123755
0.109123
0.0891466
-0.0627187
-0.0813758
-0.0948454
-0.1051
-0.113415
-0.11974
-0.124106
-0.126658
-0.127547
-0.126916
-0.12491
-0.121661
-0.117294
-0.111923
-0.105645
-0.0985488
-0.090708
-0.0821871
-0.073041
-0.063317
-0.0530567
-0.0422979
-0.0310763
-0.019428
-0.00739084
0.00499298
0.0176754
0.0306004
0.0437016
0.0569011
0.0701069
0.0832118
0.0960919
0.108606
0.120594
0.131881
0.142272
0.151562
0.159533
0.165964
0.170633
0.173328
0.173851
0.172034
0.167731
0.160833
0.151391
0.139565
0.124008
0.102557
-0.0806301
-0.100428
-0.114601
-0.12525
-0.13374
-0.140029
-0.144166
-0.146323
-0.146679
-0.145405
-0.14267
-0.138629
-0.133428
-0.127193
-0.120036
-0.112052
-0.103322
-0.0939134
-0.0838806
-0.0732698
-0.0621196
-0.0504632
-0.0383311
-0.0257528
-0.0127596
0.000613317
0.0143249
0.0283255
0.0425548
0.0569394
0.0713906
0.0858021
0.100049
0.113984
0.12744
0.140228
0.152136
0.162935
0.172381
0.180216
0.186184
0.190029
0.191513
0.190422
0.186571
0.179817
0.170191
0.157849
0.141325
0.118283
-0.100908
-0.121949
-0.136865
-0.147896
-0.156509
-0.162676
-0.166468
-0.168093
-0.167764
-0.165689
-0.162066
-0.157078
-0.150894
-0.143657
-0.135493
-0.126507
-0.116785
-0.106396
-0.0953964
-0.0838282
-0.0717258
-0.0591167
-0.0460241
-0.0324696
-0.0184759
-0.00406925
0.0107182
0.0258457
0.0412608
0.0568971
0.0726715
0.088481
0.104201
0.119682
0.13475
0.149203
0.162812
0.175324
0.186463
0.195937
0.203442
0.208676
0.211349
0.211194
0.207975
0.201501
0.191776
0.178947
0.161416
0.136651
-0.123811
-0.146221
-0.161925
-0.173318
-0.181984
-0.187914
-0.191212
-0.192131
-0.19093
-0.18786
-0.183156
-0.177036
-0.169694
-0.161295
-0.151979
-0.141862
-0.131034
-0.119568
-0.107516
-0.0949183
-0.0818023
-0.0681878
-0.054089
-0.0395176
-0.0244855
-0.00900774
0.00689475
0.0231922
0.0398429
0.0567903
0.0739593
0.0912533
0.108551
0.125703
0.14253
0.158821
0.174328
0.188775
0.201854
0.213229
0.222549
0.229454
0.23359
0.234625
0.232259
0.226238
0.21653
0.203261
0.18468
0.158042
-0.149641
-0.17358
-0.190123
-0.201847
-0.210469
-0.216011
-0.218623
-0.218615
-0.216307
-0.212002
-0.205985
-0.198511
-0.189806
-0.180059
-0.169427
-0.158035
-0.145979
-0.13333
-0.120139
-0.106439
-0.0922496
-0.0775812
-0.0624363
-0.0468143
-0.0307141
-0.0141372
0.00290951
0.0204099
0.038336
0.0566439
0.0752701
0.0941277
0.113102
0.132048
0.150784
0.169091
0.186707
0.203331
0.218621
0.232198
0.243652
0.252559
0.258487
0.261026
0.259788
0.254444
0.244904
0.231264
0.211593
0.182907
-0.178764
-0.204432
-0.221875
-0.233878
-0.242323
-0.247276
-0.248949
-0.247733
-0.244023
-0.238189
-0.230575
-0.221483
-0.211176
-0.199869
-0.187735
-0.174909
-0.161491
-0.147549
-0.133129
-0.118256
-0.102939
-0.087174
-0.070951
-0.0542541
-0.0370666
-0.0193737
-0.00116572
0.0175581
0.0367865
0.0564918
0.076626
0.0971158
0.117858
0.138715
0.159508
0.180014
0.199961
0.219024
0.236827
0.252944
0.266903
0.278201
0.286319
0.290744
0.290983
0.286602
0.277432
0.263519
0.242723
0.211783
-0.211628
-0.239277
-0.257686
-0.269888
-0.27797
-0.282063
-0.282469
-0.279684
-0.274199
-0.266474
-0.25692
-0.245898
-0.23371
-0.2206
-0.206757
-0.192324
-0.177402
-0.162054
-0.146317
-0.130204
-0.113709
-0.0968144
-0.0794915
-0.0617072
-0.0434261
-0.0246143
-0.00524266
0.0147098
0.0352519
0.0563761
0.0780539
0.100231
0.12282
0.145696
0.16869
0.191581
0.214088
0.235871
0.256519
0.275558
0.292449
0.306601
0.317387
0.324171
0.326325
0.323277
0.314749
0.300708
0.278755
0.245313
-0.248789
-0.278741
-0.298187
-0.310462
-0.317917
-0.320784
-0.319489
-0.314668
-0.306943
-0.296878
-0.284973
-0.271652
-0.257262
-0.242075
-0.226296
-0.210071
-0.193497
-0.17663
-0.159492
-0.142079
-0.124368
-0.106321
-0.0878904
-0.0690207
-0.0496554
-0.0297384
-0.00921789
0.0119504
0.0337991
0.0563448
0.0795834
0.103484
0.127982
0.152973
0.178303
0.20376
0.229065
0.253864
0.277721
0.300112
0.320427
0.337977
0.35201
0.36174
0.366367
0.365138
0.357617
0.343655
0.320528
0.284285
-0.290955
-0.32362
-0.34417
-0.356323
-0.362776
-0.363913
-0.360342
-0.352887
-0.342334
-0.329381
-0.314631
-0.29858
-0.281622
-0.264055
-0.246094
-0.227884
-0.209512
-0.191017
-0.172402
-0.153642
-0.134691
-0.115486
-0.0959557
-0.0760206
-0.0555992
-0.0346102
-0.0129759
0.0093744
0.0325009
0.0564487
0.0812426
0.106881
0.13333
0.160512
0.188298
0.216495
0.244835
0.272962
0.30042
0.326642
0.350946
0.372538
0.390521
0.403928
0.411743
0.412971
0.406959
0.393375
0.369082
0.329664
-0.33904
-0.374946
-0.39665
-0.408369
-0.413279
-0.411997
-0.405384
-0.39452
-0.380402
-0.363893
-0.345712
-0.326435
-0.306499
-0.286223
-0.265824
-0.245436
-0.225124
-0.204906
-0.184755
-0.164619
-0.144423
-0.124075
-0.103475
-0.0825161
-0.0610889
-0.0390837
-0.0163942
0.00708035
0.0314309
0.0567353
0.0830527
0.110418
0.138832
0.168256
0.198596
0.229692
0.261298
0.293071
0.324549
0.355132
0.384071
0.410463
0.433251
0.451251
0.463173
0.46771
0.463898
0.451133
0.425723
0.382666
-0.394257
-0.43408
-0.456939
-0.467735
-0.470315
-0.465654
-0.454978
-0.439705
-0.421103
-0.400229
-0.377934
-0.354868
-0.331507
-0.308177
-0.285082
-0.262331
-0.239957
-0.217941
-0.19622
-0.174705
-0.153285
-0.131835
-0.110222
-0.0883068
-0.0659497
-0.0430101
-0.0193499
0.00516381
0.0306566
0.0572427
0.0850207
0.114067
0.14443
0.176115
0.209078
0.243204
0.278292
0.314028
0.349963
0.385485
0.419792
0.451874
0.480502
0.504241
0.521466
0.530456
0.529816
0.518526
0.492127
0.444843
-0.458242
-0.502851
-0.526763
-0.53585
-0.534944
-0.525568
-0.509464
-0.488498
-0.464274
-0.438071
-0.410873
-0.383399
-0.356141
-0.32941
-0.303377
-0.278104
-0.253576
-0.229723
-0.206433
-0.183571
-0.160983
-0.138504
-0.115965
-0.0931914
-0.0700097
-0.0462462
-0.0217295
0.0037084
0.03023
0.0579897
0.0871299
0.117776
0.150029
0.183953
0.219566
0.256819
0.295573
0.335572
0.376409
0.417488
0.457981
0.496787
0.532508
0.563426
0.587511
0.602507
0.606418
0.597596
0.570484
0.518226
-0.533269
-0.583773
-0.608417
-0.614529
-0.608424
-0.592462
-0.569107
-0.54081
-0.509571
-0.476909
-0.443929
-0.411387
-0.379757
-0.349302
-0.320126
-0.29222
-0.265496
-0.239816
-0.215006
-0.190874
-0.167215
-0.143821
-0.120479
-0.0969792
-0.0731111
-0.0486665
-0.0234392
0.00277502
0.0301777
0.0589657
0.0893299
0.121449
0.155487
0.191576
0.229814
0.270235
0.312791
0.357316
0.403485
0.45076
0.498332
0.545051
0.589364
0.629264
0.662246
0.685373
0.695821
0.690997
0.663719
0.605546
-0.622595
-0.680368
-0.704984
-0.706063
-0.692203
-0.667033
-0.634007
-0.596308
-0.556384
-0.515977
-0.476268
-0.437993
-0.401553
-0.36711
-0.334657
-0.304078
-0.275189
-0.247759
-0.22154
-0.196272
-0.171692
-0.14754
-0.123561
-0.0995046
-0.0751238
-0.0501753
-0.0244176
0.00239009
0.0304889
0.0601202
0.091525
0.124942
0.160601
0.19872
0.239486
0.283042
0.329462
0.37871
0.430592
0.484691
0.540287
0.596248
0.650928
0.702051
0.746588
0.780767
0.800644
0.802219
0.77584
0.710599
-0.731055
-0.797686
-0.820643
-0.813311
-0.787865
-0.749817
-0.703938
-0.654275
-0.603716
-0.55416
-0.506765
-0.462149
-0.420553
-0.381963
-0.34621
-0.313027
-0.282098
-0.253086
-0.225646
-0.199442
-0.174147
-0.149448
-0.125043
-0.100641
-0.0759593
-0.0507199
-0.0246476
0.0025342
0.0311052
0.061351
0.0935645
0.128046
0.1651
0.205033
0.248143
0.294705
0.344944
0.399001
0.45688
0.518367
0.582927
0.649567
0.71666
0.781747
0.84129
0.890541
0.924098
0.935898
0.912468
0.838882
-0.866154
-0.943128
-0.96106
-0.939739
-0.896961
-0.840948
-0.778108
-0.713394
-0.650029
-0.589891
-0.533941
-0.482524
-0.435595
-0.392874
-0.353958
-0.318382
-0.285668
-0.255344
-0.226963
-0.200101
-0.174364
-0.149383
-0.12481
-0.100316
-0.0755833
-0.0503026
-0.0241671
0.0031322
0.0319113
0.062498
0.0952353
0.130485
0.168631
0.210075
0.255238
0.304544
0.358408
0.4172
0.481192
0.550477
0.624847
0.703622
0.78539
0.867712
0.946673
1.01651
1.07002
1.09822
1.0817
0.998745
-1.04014
-1.12775
-1.13386
-1.08932
-1.02065
-0.939726
-0.854771
-0.771468
-0.693049
-0.621039
-0.555909
-0.49751
-0.445348
-0.398761
-0.357036
-0.319462
-0.285366
-0.25413
-0.225188
-0.198029
-0.172191
-0.14725
-0.122816
-0.0985245
-0.074028
-0.0489901
-0.0230774
0.00404703
0.0327306
0.0633385
0.0962604
0.131917
0.170768
0.213314
0.260106
0.311735
0.368835
0.432053
0.502011
0.579231
0.664004
0.756234
0.855005
0.958296
1.06217
1.16005
1.24277
1.2974
1.29545
1.20359
-1.27427
-1.36825
-1.34891
-1.26602
-1.15889
-1.04386
-0.930653
-0.825028
-0.729544
-0.644796
-0.570343
-0.505239
-0.448344
-0.398495
-0.354589
-0.315631
-0.280733
-0.249117
-0.220104
-0.193095
-0.167563
-0.143038
-0.119094
-0.0953377
-0.0713981
-0.0469184
-0.0215454
0.00507881
0.0333261
0.0635916
0.0963039
0.131936
0.171016
0.214141
0.261987
0.315324
0.37502
0.442042
0.517437
0.602287
0.697601
0.804128
0.922003
1.05019
1.1855
1.32125
1.44662
1.54394
1.57149
1.47639
-1.60753
-1.69001
-1.61782
-1.47204
-1.30868
-1.14809
-1.00001
-0.868769
-0.755023
-0.657561
-0.574453
-0.503606
-0.44303
-0.390947
-0.345819
-0.30634
-0.271405
-0.240087
-0.211596
-0.185263
-0.160509
-0.136825
-0.113761
-0.0909041
-0.0678702
-0.0442903
-0.0198003
0.00596956
0.0334061
0.0629244
0.0949809
0.130088
0.16883
0.211884
0.260045
0.314247
0.375596
0.445395
0.525172
0.616677
0.721844
0.842663
0.980888
1.13743
1.31117
1.49697
1.68393
1.85003
1.93651
1.85877
-2.11199
-2.13074
-1.95202
-1.70481
-1.46136
-1.24232
-1.0536
-0.895106
-0.763636
-0.655001
-0.565121
-0.490419
-0.427898
-0.375111
-0.330076
-0.291195
-0.257173
-0.226957
-0.19968
-0.174618
-0.15116
-0.12878
-0.107014
-0.0854446
-0.0636846
-0.0413645
-0.0181198
0.00642039
0.0326459
0.0609785
0.0918874
0.125907
0.163657
0.205874
0.253438
0.307421
0.369138
0.440211
0.522647
0.61892
0.732049
0.86562
1.02369
1.21035
1.42859
1.6781
1.95196
2.22762
2.42967
2.42629
-2.91847
-2.74061
-2.35922
-1.95484
-1.6015
-1.31161
-1.07938
-0.895213
-0.749283
-0.633083
-0.539795
-0.464143
-0.402096
-0.350582
-0.307246
-0.270268
-0.238224
-0.209989
-0.184654
-0.161479
-0.139847
-0.119232
-0.0991781
-0.0792759
-0.0591491
-0.0384395
-0.016794
0.00614739
0.0307642
0.0574701
0.086729
0.119075
0.155138
0.195676
0.241615
0.29411
0.354621
0.425014
0.507703
0.605838
0.723549
0.866236
1.04087
1.25611
1.52198
1.84835
2.24046
2.68436
3.10193
3.31317
-4.32376
-3.56008
-2.81522
-2.1888
-1.69854
-1.33213
-1.06106
-0.858813
-0.705859
-0.588414
-0.496769
-0.424091
-0.365533
-0.317607
-0.277758
-0.244077
-0.215112
-0.189735
-0.167057
-0.146359
-0.12705
-0.10863
-0.0906679
-0.0727796
-0.0546127
-0.0358323
-0.0161092
0.00489342
0.0275314
0.0521942
0.079321
0.109422
0.143102
0.181101
0.224333
0.27396
0.331481
0.398867
0.478761
0.574771
0.691906
0.837231
1.02079
1.25682
1.56553
1.97457
2.51374
3.19363
3.99338
4.82422
-7.15777
-4.55831
-3.139
-2.25246
-1.64483
-1.23383
-0.954152
-0.757652
-0.615047
-0.508693
-0.427436
-0.36399
-0.313472
-0.272507
-0.238696
-0.21028
-0.185943
-0.164673
-0.145675
-0.128313
-0.112061
-0.0964806
-0.08119
-0.0658512
-0.0501537
-0.0338027
-0.0165069
0.00202958
0.0221212
0.0441121
0.0683911
0.0954102
0.125709
0.159945
0.198942
0.243749
0.295737
0.356736
0.429248
0.51679
0.624449
0.759808
0.93449
1.16685
1.48722
1.94588
2.61228
3.57101
5.07649
7.79532
-12.0262
-5.6411
-2.97471
-1.87569
-1.27849
-0.923656
-0.703917
-0.558025
-0.454835
-0.378589
-0.320464
-0.275062
-0.238881
-0.209523
-0.185277
-0.164881
-0.147375
-0.132013
-0.118201
-0.105458
-0.0933851
-0.0816415
-0.0699316
-0.0579907
-0.0455738
-0.0324477
-0.0183828
-0.00314298
0.0135201
0.0318776
0.0522342
0.0749418
0.100417
0.129163
0.161805
0.19913
0.242158
0.292236
0.351196
0.421604
0.507206
0.613736
0.750509
0.933927
1.19595
1.60039
2.26376
3.45763
6.24108
12.7519
)
;

boundaryField
{
    movingWall
    {
        type            zeroGradient;
    }
    fixedWalls
    {
        type            zeroGradient;
    }
    frontAndBack
    {
        type            empty;
    }
}


// ************************************************************************* //
