/*--------------------------------*- C++ -*----------------------------------*\
  =========                 |
  \\      /  F ield         | OpenFOAM: The Open Source CFD Toolbox
   \\    /   O peration     | Website:  https://openfoam.org
    \\  /    A nd           | Version:  7
     \\/     M anipulation  |
\*---------------------------------------------------------------------------*/
FoamFile
{
    version     2.0;
    format      ascii;
    class       volScalarField;
    location    "0.034";
    object      p;
}
// * * * * * * * * * * * * * * * * * * * * * * * * * * * * * * * * * * * * * //

dimensions      [0 2 -2 0 0 0 0];

internalField   nonuniform List<scalar> 
2500
(
-1.55588e-05
-6.51164
-9.29609
-10.491
-11.1552
-11.5604
-11.8228
-12.0063
-12.1428
-12.2487
-12.3334
-12.4025
-12.4599
-12.508
-12.5488
-12.5836
-12.6135
-12.6392
-12.6614
-12.6806
-12.6973
-12.7118
-12.7246
-12.7359
-12.7459
-12.755
-12.7635
-12.7716
-12.7796
-12.7879
-12.7967
-12.8065
-12.8177
-12.8309
-12.8467
-12.8657
-12.8892
-12.9182
-12.9546
-13.0006
-13.0598
-13.1375
-13.2423
-13.3901
-13.6117
-13.9682
-14.5668
-15.6668
-18.3335
-24.7184
-4.95592
-7.67554
-9.18177
-10.1412
-10.8082
-11.2673
-11.5879
-11.8203
-11.9947
-12.1295
-12.2362
-12.3226
-12.3936
-12.4528
-12.5027
-12.5451
-12.5815
-12.6129
-12.6401
-12.6638
-12.6847
-12.7031
-12.7195
-12.7343
-12.7478
-12.7603
-12.7723
-12.784
-12.7958
-12.8081
-12.8213
-12.8358
-12.8524
-12.8715
-12.8941
-12.9213
-12.9542
-12.9948
-13.0453
-13.1092
-13.1913
-13.2988
-13.4429
-13.6409
-13.9222
-14.3346
-14.9435
-15.8309
-17.2505
-19.8497
-7.92614
-8.75805
-9.55853
-10.239
-10.7786
-11.1879
-11.4968
-11.7327
-11.916
-12.0607
-12.177
-12.2718
-12.3503
-12.416
-12.4715
-12.5189
-12.5596
-12.5949
-12.6256
-12.6526
-12.6764
-12.6976
-12.7167
-12.7341
-12.7502
-12.7653
-12.7799
-12.7943
-12.8089
-12.8241
-12.8405
-12.8585
-12.8787
-12.902
-12.9293
-12.9617
-13.0007
-13.0481
-13.1066
-13.1797
-13.272
-13.3905
-13.5447
-13.7484
-14.0209
-14.3887
-14.8801
-15.5074
-16.2526
-17.016
-9.43646
-9.64906
-10.0675
-10.512
-10.9045
-11.231
-11.4969
-11.712
-11.8862
-12.0283
-12.1452
-12.2422
-12.3235
-12.3922
-12.4508
-12.5011
-12.5446
-12.5825
-12.6157
-12.645
-12.6711
-12.6945
-12.7156
-12.7351
-12.7532
-12.7703
-12.787
-12.8034
-12.8202
-12.8377
-12.8564
-12.8769
-12.8999
-12.926
-12.9564
-12.9921
-13.0345
-13.0855
-13.1475
-13.2235
-13.3174
-13.4346
-13.5818
-13.7674
-14.0011
-14.2923
-14.6469
-15.0521
-15.4339
-15.6116
-10.3228
-10.3212
-10.5244
-10.8007
-11.0749
-11.3245
-11.5427
-11.7291
-11.8867
-12.0196
-12.1318
-12.2269
-12.308
-12.3774
-12.4372
-12.4891
-12.5343
-12.5739
-12.6089
-12.6399
-12.6677
-12.6928
-12.7156
-12.7367
-12.7565
-12.7753
-12.7936
-12.8118
-12.8303
-12.8496
-12.8701
-12.8926
-12.9175
-12.9457
-12.978
-13.0156
-13.0597
-13.112
-13.1745
-13.2495
-13.3401
-13.4497
-13.5825
-13.7424
-13.9327
-14.1532
-14.3979
-14.646
-14.8253
-14.8065
-10.8902
-10.8146
-10.9025
-11.0693
-11.2567
-11.4426
-11.6162
-11.7724
-11.91
-12.0301
-12.1343
-12.2246
-12.3029
-12.3711
-12.4305
-12.4826
-12.5284
-12.5689
-12.6049
-12.637
-12.666
-12.6922
-12.7163
-12.7387
-12.7597
-12.7798
-12.7994
-12.8189
-12.8387
-12.8593
-12.8812
-12.9049
-12.931
-12.9603
-12.9936
-13.0318
-13.0761
-13.1277
-13.1882
-13.2595
-13.3434
-13.4419
-13.5571
-13.6899
-13.8396
-14.0018
-14.1665
-14.3134
-14.3863
-14.3041
-11.2728
-11.1802
-11.2094
-11.3077
-11.4336
-11.5695
-11.7046
-11.8324
-11.9496
-12.0552
-12.1495
-12.233
-12.3069
-12.3722
-12.4299
-12.4811
-12.5266
-12.5671
-12.6034
-12.6361
-12.6657
-12.6927
-12.7176
-12.7408
-12.7627
-12.7837
-12.8042
-12.8245
-12.8452
-12.8667
-12.8893
-12.9137
-12.9403
-12.9699
-13.0032
-13.0409
-13.084
-13.1335
-13.1904
-13.256
-13.3314
-13.4174
-13.5144
-13.6217
-13.7367
-13.8535
-13.9622
-14.0464
-14.0667
-13.9733
-11.5462
-11.4572
-11.4572
-11.5131
-11.5965
-11.6946
-11.7983
-11.9011
-11.9991
-12.0904
-12.1739
-12.2497
-12.318
-12.3794
-12.4344
-12.4838
-12.5281
-12.568
-12.604
-12.6366
-12.6664
-12.6937
-12.719
-12.7426
-12.765
-12.7865
-12.8076
-12.8284
-12.8496
-12.8714
-12.8943
-12.9189
-12.9454
-12.9747
-13.0072
-13.0435
-13.0845
-13.1308
-13.1832
-13.2422
-13.3084
-13.3819
-13.462
-13.5472
-13.6342
-13.717
-13.7874
-13.8335
-13.8286
-13.7421
-11.7521
-11.6724
-11.6581
-11.6877
-11.7422
-11.8124
-11.8912
-11.9731
-12.054
-12.1317
-12.2047
-12.2724
-12.3346
-12.3913
-12.443
-12.4899
-12.5325
-12.5711
-12.6063
-12.6384
-12.6679
-12.6951
-12.7204
-12.7441
-12.7666
-12.7883
-12.8095
-12.8305
-12.8518
-12.8736
-12.8964
-12.9206
-12.9466
-12.975
-13.0061
-13.0406
-13.0788
-13.1214
-13.1687
-13.2209
-13.2781
-13.3399
-13.4052
-13.472
-13.537
-13.5952
-13.64
-13.6631
-13.6468
-13.5713
-11.9134
-11.8434
-11.8225
-11.8361
-11.8708
-11.9206
-11.9801
-12.0447
-12.1109
-12.1763
-12.2394
-12.2991
-12.355
-12.4068
-12.4547
-12.4986
-12.5389
-12.5759
-12.6098
-12.641
-12.6698
-12.6966
-12.7215
-12.745
-12.7674
-12.7889
-12.8099
-12.8308
-12.8518
-12.8733
-12.8956
-12.9191
-12.9442
-12.9713
-13.0007
-13.0328
-13.068
-13.1066
-13.1487
-13.1943
-13.2432
-13.2946
-13.3473
-13.3993
-13.4476
-13.4881
-13.5158
-13.5252
-13.5043
-13.4398
-12.0434
-11.9822
-11.9587
-11.9623
-11.9836
-12.0186
-12.0632
-12.1139
-12.1677
-12.2223
-12.2762
-12.3284
-12.378
-12.4249
-12.4686
-12.5094
-12.5471
-12.582
-12.6144
-12.6443
-12.6721
-12.698
-12.7223
-12.7453
-12.7672
-12.7883
-12.8089
-12.8293
-12.8498
-12.8706
-12.8922
-12.9147
-12.9386
-12.9641
-12.9915
-13.0212
-13.0532
-13.0878
-13.1249
-13.1644
-13.2057
-13.2482
-13.2905
-13.3308
-13.3665
-13.3943
-13.4108
-13.4122
-13.39
-13.335
-12.1507
-12.0969
-12.0729
-12.0704
-12.0826
-12.1067
-12.14
-12.1795
-12.2229
-12.2682
-12.314
-12.3591
-12.4028
-12.4446
-12.4843
-12.5216
-12.5565
-12.5892
-12.6196
-12.648
-12.6745
-12.6993
-12.7227
-12.7449
-12.7661
-12.7865
-12.8065
-12.8262
-12.8459
-12.8659
-12.8864
-12.9078
-12.9303
-12.954
-12.9794
-13.0064
-13.0353
-13.066
-13.0985
-13.1324
-13.1672
-13.2022
-13.236
-13.2671
-13.2934
-13.3124
-13.3214
-13.3182
-13.2965
-13.2495
-12.2405
-12.1932
-12.1697
-12.1636
-12.1695
-12.1858
-12.2103
-12.241
-12.2758
-12.3131
-12.3517
-12.3904
-12.4285
-12.4655
-12.5011
-12.5349
-12.5669
-12.597
-12.6254
-12.652
-12.677
-12.7005
-12.7228
-12.7439
-12.7642
-12.7837
-12.8028
-12.8216
-12.8404
-12.8593
-12.8787
-12.8988
-12.9197
-12.9416
-12.9648
-12.9893
-13.0151
-13.0422
-13.0705
-13.0995
-13.1288
-13.1575
-13.1845
-13.2085
-13.2278
-13.2405
-13.2447
-13.2389
-13.2186
-13.1783
-12.3168
-12.275
-12.2526
-12.2444
-12.2462
-12.2567
-12.2746
-12.2982
-12.3259
-12.3565
-12.3887
-12.4217
-12.4546
-12.4871
-12.5186
-12.549
-12.578
-12.6055
-12.6316
-12.6563
-12.6796
-12.7016
-12.7225
-12.7424
-12.7616
-12.78
-12.7981
-12.8158
-12.8335
-12.8513
-12.8694
-12.888
-12.9073
-12.9274
-12.9484
-12.9704
-12.9934
-13.0172
-13.0417
-13.0665
-13.091
-13.1145
-13.1361
-13.1547
-13.1689
-13.1772
-13.1783
-13.1713
-13.1527
-13.1181
-12.3823
-12.3453
-12.3244
-12.3151
-12.314
-12.3204
-12.3332
-12.3512
-12.3732
-12.398
-12.4247
-12.4525
-12.4808
-12.509
-12.5367
-12.5636
-12.5896
-12.6145
-12.6382
-12.6608
-12.6822
-12.7026
-12.722
-12.7406
-12.7584
-12.7757
-12.7925
-12.8091
-12.8255
-12.842
-12.8587
-12.8759
-12.8935
-12.9117
-12.9307
-12.9503
-12.9706
-12.9915
-13.0126
-13.0337
-13.0543
-13.0736
-13.091
-13.1053
-13.1157
-13.121
-13.1202
-13.1128
-13.0961
-13.0664
-12.439
-12.4063
-12.387
-12.3773
-12.3744
-12.3778
-12.3868
-12.4003
-12.4175
-12.4375
-12.4595
-12.4827
-12.5067
-12.5309
-12.555
-12.5786
-12.6016
-12.6238
-12.6451
-12.6656
-12.6851
-12.7037
-12.7215
-12.7385
-12.755
-12.7709
-12.7864
-12.8016
-12.8167
-12.8319
-12.8472
-12.8627
-12.8787
-12.8951
-12.912
-12.9295
-12.9473
-12.9655
-12.9837
-13.0017
-13.0189
-13.0348
-13.0488
-13.06
-13.0676
-13.0708
-13.069
-13.0617
-13.0469
-13.0214
-12.4886
-12.4597
-12.4421
-12.4325
-12.4285
-12.4298
-12.4358
-12.4459
-12.4592
-12.4751
-12.493
-12.5122
-12.5323
-12.5528
-12.5734
-12.5939
-12.614
-12.6335
-12.6524
-12.6706
-12.6881
-12.7049
-12.721
-12.7364
-12.7513
-12.7658
-12.7798
-12.7937
-12.8074
-12.8211
-12.8349
-12.8489
-12.8632
-12.8778
-12.8928
-12.9082
-12.9238
-12.9396
-12.9552
-12.9705
-12.9849
-12.998
-13.0093
-13.0181
-13.0237
-13.0256
-13.0233
-13.0165
-13.0035
-12.9819
-12.5322
-12.5069
-12.4911
-12.4819
-12.4773
-12.4771
-12.4809
-12.4882
-12.4983
-12.5108
-12.5251
-12.5408
-12.5574
-12.5746
-12.592
-12.6094
-12.6267
-12.6436
-12.6601
-12.6761
-12.6915
-12.7063
-12.7206
-12.7344
-12.7477
-12.7606
-12.7732
-12.7855
-12.7978
-12.81
-12.8223
-12.8347
-12.8473
-12.8602
-12.8734
-12.8868
-12.9003
-12.9139
-12.9273
-12.9402
-12.9523
-12.9631
-12.9723
-12.9792
-12.9835
-12.9845
-12.9821
-12.976
-12.9649
-12.9468
-12.571
-12.5489
-12.5349
-12.5263
-12.5215
-12.5203
-12.5225
-12.5276
-12.5352
-12.5448
-12.5561
-12.5686
-12.582
-12.5961
-12.6106
-12.6252
-12.6397
-12.6541
-12.6682
-12.682
-12.6953
-12.7082
-12.7206
-12.7326
-12.7443
-12.7555
-12.7666
-12.7774
-12.7881
-12.7988
-12.8095
-12.8203
-12.8313
-12.8425
-12.8538
-12.8654
-12.877
-12.8886
-12.8999
-12.9108
-12.9209
-12.9299
-12.9374
-12.9429
-12.9462
-12.9468
-12.9445
-12.9393
-12.9301
-12.9152
-12.6057
-12.5868
-12.5745
-12.5668
-12.562
-12.5602
-12.5612
-12.5646
-12.57
-12.5772
-12.5858
-12.5956
-12.6062
-12.6175
-12.6292
-12.6411
-12.6531
-12.665
-12.6768
-12.6883
-12.6995
-12.7104
-12.721
-12.7312
-12.7411
-12.7508
-12.7602
-12.7694
-12.7785
-12.7876
-12.7968
-12.806
-12.8153
-12.8248
-12.8344
-12.8442
-12.854
-12.8637
-12.8733
-12.8823
-12.8907
-12.8981
-12.9043
-12.9088
-12.9113
-12.9118
-12.9098
-12.9056
-12.8982
-12.8864
-12.6371
-12.6212
-12.6107
-12.6039
-12.5994
-12.5973
-12.5974
-12.5994
-12.6031
-12.6082
-12.6146
-12.6219
-12.63
-12.6387
-12.6478
-12.6572
-12.6667
-12.6763
-12.6858
-12.6952
-12.7043
-12.7133
-12.7219
-12.7303
-12.7385
-12.7464
-12.7542
-12.7618
-12.7693
-12.7768
-12.7843
-12.7918
-12.7995
-12.8073
-12.8152
-12.8233
-12.8313
-12.8394
-12.8472
-12.8546
-12.8615
-12.8676
-12.8726
-12.8763
-12.8784
-12.8788
-12.8774
-12.8743
-12.8687
-12.8598
-12.6658
-12.6528
-12.6441
-12.6383
-12.6343
-12.6321
-12.6315
-12.6325
-12.6348
-12.6381
-12.6425
-12.6476
-12.6534
-12.6598
-12.6665
-12.6736
-12.6808
-12.6881
-12.6954
-12.7026
-12.7097
-12.7167
-12.7235
-12.7301
-12.7364
-12.7426
-12.7487
-12.7546
-12.7605
-12.7663
-12.7721
-12.778
-12.784
-12.7901
-12.7963
-12.8026
-12.809
-12.8154
-12.8216
-12.8276
-12.8331
-12.838
-12.842
-12.8451
-12.8469
-12.8475
-12.8467
-12.8446
-12.8408
-12.8347
-12.6925
-12.6822
-12.6753
-12.6706
-12.6671
-12.665
-12.664
-12.6642
-12.6652
-12.6671
-12.6697
-12.6729
-12.6766
-12.6808
-12.6853
-12.6901
-12.6952
-12.7003
-12.7055
-12.7107
-12.7158
-12.7208
-12.7257
-12.7305
-12.735
-12.7395
-12.7438
-12.748
-12.7522
-12.7563
-12.7604
-12.7646
-12.7688
-12.7732
-12.7777
-12.7824
-12.7871
-12.7918
-12.7965
-12.801
-12.8052
-12.809
-12.8122
-12.8147
-12.8164
-12.8173
-12.8172
-12.8162
-12.8142
-12.8109
-12.7175
-12.71
-12.7049
-12.7012
-12.6984
-12.6965
-12.6953
-12.6947
-12.6947
-12.6953
-12.6963
-12.6978
-12.6996
-12.7018
-12.7043
-12.707
-12.7099
-12.713
-12.7162
-12.7194
-12.7225
-12.7256
-12.7287
-12.7316
-12.7344
-12.7371
-12.7396
-12.7421
-12.7445
-12.7468
-12.7492
-12.7517
-12.7542
-12.7568
-12.7595
-12.7624
-12.7654
-12.7685
-12.7717
-12.7748
-12.7777
-12.7805
-12.7829
-12.785
-12.7866
-12.7877
-12.7883
-12.7885
-12.7883
-12.7876
-12.7414
-12.7366
-12.7333
-12.7308
-12.7287
-12.727
-12.7256
-12.7245
-12.7236
-12.723
-12.7226
-12.7224
-12.7225
-12.7228
-12.7234
-12.7242
-12.7251
-12.7262
-12.7274
-12.7287
-12.7299
-12.7312
-12.7324
-12.7335
-12.7345
-12.7354
-12.7362
-12.7369
-12.7375
-12.7381
-12.7386
-12.7393
-12.7399
-12.7407
-12.7417
-12.7428
-12.744
-12.7455
-12.747
-12.7487
-12.7504
-12.7521
-12.7538
-12.7554
-12.7569
-12.7583
-12.7597
-12.761
-12.7626
-12.7646
-12.7646
-12.7626
-12.761
-12.7596
-12.7583
-12.7569
-12.7554
-12.7538
-12.7521
-12.7504
-12.7487
-12.747
-12.7455
-12.744
-12.7428
-12.7417
-12.7407
-12.7399
-12.7393
-12.7386
-12.7381
-12.7375
-12.7369
-12.7362
-12.7354
-12.7345
-12.7335
-12.7324
-12.7312
-12.73
-12.7287
-12.7274
-12.7262
-12.7251
-12.7242
-12.7234
-12.7229
-12.7225
-12.7224
-12.7226
-12.723
-12.7236
-12.7245
-12.7256
-12.727
-12.7287
-12.7308
-12.7333
-12.7367
-12.7414
-12.7876
-12.7883
-12.7885
-12.7883
-12.7877
-12.7866
-12.785
-12.7829
-12.7805
-12.7777
-12.7747
-12.7716
-12.7685
-12.7654
-12.7624
-12.7595
-12.7568
-12.7542
-12.7516
-12.7492
-12.7468
-12.7445
-12.7421
-12.7396
-12.7371
-12.7344
-12.7316
-12.7287
-12.7257
-12.7225
-12.7194
-12.7162
-12.713
-12.71
-12.707
-12.7043
-12.7018
-12.6996
-12.6978
-12.6963
-12.6953
-12.6947
-12.6947
-12.6953
-12.6965
-12.6985
-12.7013
-12.7049
-12.71
-12.7175
-12.8108
-12.8142
-12.8162
-12.8171
-12.8172
-12.8164
-12.8147
-12.8122
-12.809
-12.8052
-12.801
-12.7965
-12.7918
-12.7871
-12.7824
-12.7777
-12.7732
-12.7688
-12.7646
-12.7604
-12.7563
-12.7522
-12.748
-12.7438
-12.7395
-12.7351
-12.7305
-12.7257
-12.7208
-12.7158
-12.7107
-12.7055
-12.7003
-12.6952
-12.6902
-12.6853
-12.6808
-12.6766
-12.6729
-12.6697
-12.6671
-12.6652
-12.6642
-12.6641
-12.665
-12.6672
-12.6706
-12.6754
-12.6823
-12.6925
-12.8347
-12.8408
-12.8446
-12.8467
-12.8475
-12.8469
-12.845
-12.842
-12.8379
-12.8331
-12.8276
-12.8216
-12.8154
-12.809
-12.8026
-12.7963
-12.7901
-12.784
-12.778
-12.7721
-12.7663
-12.7605
-12.7546
-12.7487
-12.7426
-12.7365
-12.7301
-12.7235
-12.7167
-12.7098
-12.7026
-12.6954
-12.6881
-12.6808
-12.6736
-12.6665
-12.6598
-12.6535
-12.6476
-12.6425
-12.6382
-12.6348
-12.6325
-12.6316
-12.6321
-12.6343
-12.6383
-12.6442
-12.6528
-12.6659
-12.8597
-12.8687
-12.8742
-12.8774
-12.8788
-12.8784
-12.8762
-12.8726
-12.8676
-12.8615
-12.8546
-12.8472
-12.8393
-12.8313
-12.8232
-12.8152
-12.8073
-12.7995
-12.7918
-12.7843
-12.7768
-12.7693
-12.7618
-12.7542
-12.7464
-12.7385
-12.7304
-12.722
-12.7133
-12.7044
-12.6952
-12.6858
-12.6763
-12.6668
-12.6572
-12.6478
-12.6387
-12.63
-12.6219
-12.6146
-12.6083
-12.6031
-12.5995
-12.5974
-12.5974
-12.5995
-12.6039
-12.6108
-12.6212
-12.6371
-12.8864
-12.8982
-12.9056
-12.9098
-12.9117
-12.9113
-12.9087
-12.9042
-12.8981
-12.8907
-12.8823
-12.8733
-12.8637
-12.854
-12.8442
-12.8344
-12.8248
-12.8153
-12.806
-12.7968
-12.7876
-12.7786
-12.7694
-12.7602
-12.7508
-12.7412
-12.7312
-12.721
-12.7105
-12.6996
-12.6883
-12.6768
-12.665
-12.6531
-12.6411
-12.6292
-12.6175
-12.6062
-12.5956
-12.5859
-12.5772
-12.57
-12.5646
-12.5612
-12.5603
-12.5621
-12.5668
-12.5746
-12.5868
-12.6057
-12.9152
-12.9301
-12.9393
-12.9445
-12.9468
-12.9462
-12.9429
-12.9374
-12.9299
-12.9209
-12.9108
-12.8999
-12.8886
-12.877
-12.8654
-12.8538
-12.8425
-12.8313
-12.8203
-12.8095
-12.7988
-12.7881
-12.7774
-12.7666
-12.7556
-12.7443
-12.7326
-12.7206
-12.7082
-12.6953
-12.682
-12.6682
-12.6541
-12.6397
-12.6252
-12.6106
-12.5961
-12.5821
-12.5686
-12.5561
-12.5448
-12.5352
-12.5276
-12.5225
-12.5204
-12.5216
-12.5264
-12.5349
-12.549
-12.571
-12.9468
-12.9649
-12.976
-12.9821
-12.9845
-12.9835
-12.9792
-12.9723
-12.9631
-12.9523
-12.9402
-12.9273
-12.9139
-12.9003
-12.8868
-12.8734
-12.8602
-12.8473
-12.8347
-12.8223
-12.81
-12.7978
-12.7856
-12.7732
-12.7606
-12.7477
-12.7344
-12.7206
-12.7064
-12.6915
-12.6761
-12.6601
-12.6437
-12.6267
-12.6095
-12.592
-12.5746
-12.5574
-12.5408
-12.5252
-12.5109
-12.4984
-12.4882
-12.4809
-12.4771
-12.4773
-12.4819
-12.4911
-12.5069
-12.5323
-12.9819
-13.0035
-13.0165
-13.0233
-13.0256
-13.0237
-13.0181
-13.0093
-12.998
-12.9849
-12.9705
-12.9552
-12.9396
-12.9238
-12.9082
-12.8928
-12.8778
-12.8632
-12.8489
-12.8349
-12.8211
-12.8074
-12.7937
-12.7799
-12.7658
-12.7513
-12.7364
-12.721
-12.7049
-12.6881
-12.6707
-12.6525
-12.6336
-12.614
-12.5939
-12.5735
-12.5528
-12.5323
-12.5122
-12.493
-12.4751
-12.4592
-12.4459
-12.4358
-12.4298
-12.4285
-12.4326
-12.4421
-12.4597
-12.4886
-13.0214
-13.0469
-13.0617
-13.069
-13.0708
-13.0676
-13.06
-13.0488
-13.0348
-13.0189
-13.0017
-12.9837
-12.9655
-12.9473
-12.9295
-12.912
-12.8951
-12.8787
-12.8627
-12.8472
-12.8319
-12.8167
-12.8016
-12.7864
-12.7709
-12.755
-12.7386
-12.7215
-12.7037
-12.6851
-12.6656
-12.6452
-12.6238
-12.6016
-12.5786
-12.555
-12.5309
-12.5067
-12.4828
-12.4595
-12.4376
-12.4176
-12.4004
-12.3868
-12.3778
-12.3745
-12.3774
-12.387
-12.4063
-12.4391
-13.0664
-13.0961
-13.1128
-13.1202
-13.121
-13.1157
-13.1053
-13.0909
-13.0736
-13.0543
-13.0337
-13.0126
-12.9915
-12.9706
-12.9503
-12.9307
-12.9117
-12.8935
-12.8759
-12.8588
-12.842
-12.8255
-12.8091
-12.7925
-12.7757
-12.7585
-12.7406
-12.7221
-12.7026
-12.6822
-12.6608
-12.6382
-12.6145
-12.5896
-12.5636
-12.5367
-12.509
-12.4808
-12.4526
-12.4247
-12.398
-12.3732
-12.3513
-12.3333
-12.3204
-12.3141
-12.3151
-12.3244
-12.3453
-12.3824
-13.1181
-13.1527
-13.1713
-13.1783
-13.1772
-13.1689
-13.1547
-13.1361
-13.1145
-13.091
-13.0665
-13.0417
-13.0172
-12.9934
-12.9704
-12.9484
-12.9274
-12.9073
-12.888
-12.8694
-12.8513
-12.8335
-12.8158
-12.7981
-12.7801
-12.7616
-12.7425
-12.7225
-12.7016
-12.6796
-12.6563
-12.6316
-12.6055
-12.578
-12.549
-12.5187
-12.4871
-12.4547
-12.4217
-12.3887
-12.3565
-12.326
-12.2982
-12.2746
-12.2567
-12.2462
-12.2445
-12.2527
-12.275
-12.3169
-13.1783
-13.2186
-13.2389
-13.2447
-13.2405
-13.2278
-13.2085
-13.1845
-13.1574
-13.1288
-13.0995
-13.0705
-13.0422
-13.0151
-12.9893
-12.9648
-12.9416
-12.9197
-12.8988
-12.8787
-12.8593
-12.8404
-12.8216
-12.8028
-12.7837
-12.7642
-12.7439
-12.7228
-12.7005
-12.677
-12.652
-12.6254
-12.5971
-12.5669
-12.5349
-12.5011
-12.4656
-12.4286
-12.3904
-12.3517
-12.3132
-12.2758
-12.241
-12.2104
-12.1858
-12.1696
-12.1636
-12.1697
-12.1932
-12.2406
-13.2495
-13.2965
-13.3182
-13.3214
-13.3124
-13.2934
-13.2671
-13.236
-13.2022
-13.1672
-13.1324
-13.0985
-13.066
-13.0353
-13.0064
-12.9794
-12.9541
-12.9303
-12.9078
-12.8865
-12.8659
-12.8459
-12.8262
-12.8065
-12.7865
-12.7661
-12.7449
-12.7227
-12.6994
-12.6745
-12.648
-12.6196
-12.5892
-12.5566
-12.5216
-12.4843
-12.4447
-12.4028
-12.3591
-12.314
-12.2683
-12.2229
-12.1796
-12.14
-12.1068
-12.0827
-12.0705
-12.0729
-12.097
-12.1507
-13.335
-13.39
-13.4122
-13.4108
-13.3943
-13.3665
-13.3308
-13.2905
-13.2482
-13.2057
-13.1644
-13.1249
-13.0878
-13.0532
-13.0212
-12.9915
-12.9641
-12.9386
-12.9147
-12.8922
-12.8706
-12.8498
-12.8293
-12.8089
-12.7883
-12.7672
-12.7453
-12.7223
-12.698
-12.6721
-12.6443
-12.6144
-12.5821
-12.5471
-12.5094
-12.4687
-12.4249
-12.3781
-12.3284
-12.2763
-12.2223
-12.1677
-12.114
-12.0633
-12.0186
-11.9837
-11.9624
-11.9588
-11.9823
-12.0435
-13.4398
-13.5043
-13.5252
-13.5158
-13.4881
-13.4476
-13.3993
-13.3473
-13.2946
-13.2432
-13.1943
-13.1487
-13.1066
-13.068
-13.0328
-13.0007
-12.9713
-12.9442
-12.9191
-12.8956
-12.8733
-12.8518
-12.8308
-12.81
-12.7889
-12.7674
-12.745
-12.7215
-12.6966
-12.6699
-12.6411
-12.6099
-12.576
-12.539
-12.4987
-12.4547
-12.4069
-12.355
-12.2991
-12.2394
-12.1764
-12.111
-12.0448
-11.9802
-11.9206
-11.8708
-11.8361
-11.8226
-11.8435
-11.9134
-13.5713
-13.6468
-13.6631
-13.64
-13.5952
-13.537
-13.472
-13.4052
-13.3399
-13.2781
-13.2209
-13.1687
-13.1214
-13.0788
-13.0406
-13.0061
-12.975
-12.9466
-12.9206
-12.8964
-12.8736
-12.8518
-12.8306
-12.8095
-12.7883
-12.7667
-12.7441
-12.7204
-12.6951
-12.6679
-12.6384
-12.6063
-12.5711
-12.5325
-12.4899
-12.443
-12.3914
-12.3346
-12.2724
-12.2047
-12.1317
-12.0541
-11.9731
-11.8913
-11.8125
-11.7422
-11.6878
-11.6581
-11.6724
-11.7522
-13.7421
-13.8286
-13.8335
-13.7874
-13.717
-13.6342
-13.5472
-13.462
-13.3819
-13.3084
-13.2422
-13.1832
-13.1308
-13.0845
-13.0436
-13.0072
-12.9747
-12.9455
-12.9189
-12.8944
-12.8714
-12.8496
-12.8285
-12.8076
-12.7866
-12.765
-12.7427
-12.719
-12.6937
-12.6664
-12.6367
-12.604
-12.568
-12.5282
-12.4839
-12.4345
-12.3794
-12.3181
-12.2498
-12.174
-12.0904
-11.9992
-11.9012
-11.7984
-11.6947
-11.5966
-11.5131
-11.4573
-11.4573
-11.5463
-13.9733
-14.0667
-14.0464
-13.9622
-13.8535
-13.7367
-13.6217
-13.5144
-13.4174
-13.3314
-13.256
-13.1904
-13.1335
-13.084
-13.0409
-13.0032
-12.9699
-12.9403
-12.9137
-12.8893
-12.8667
-12.8452
-12.8246
-12.8042
-12.7837
-12.7627
-12.7408
-12.7176
-12.6927
-12.6657
-12.6361
-12.6034
-12.5671
-12.5266
-12.4811
-12.43
-12.3722
-12.307
-12.2331
-12.1495
-12.0553
-11.9497
-11.8325
-11.7047
-11.5696
-11.4337
-11.3078
-11.2095
-11.1803
-11.2729
-14.3041
-14.3863
-14.3134
-14.1665
-14.0018
-13.8396
-13.6899
-13.5571
-13.442
-13.3434
-13.2595
-13.1882
-13.1277
-13.0761
-13.0318
-12.9936
-12.9603
-12.9311
-12.9049
-12.8812
-12.8594
-12.8388
-12.8189
-12.7994
-12.7798
-12.7597
-12.7387
-12.7164
-12.6923
-12.666
-12.6371
-12.6049
-12.5689
-12.5284
-12.4826
-12.4306
-12.3711
-12.303
-12.2246
-12.1343
-12.0302
-11.9101
-11.7725
-11.6163
-11.4427
-11.2568
-11.0694
-10.9025
-10.8147
-10.8903
-14.8065
-14.8253
-14.646
-14.3979
-14.1532
-13.9327
-13.7424
-13.5825
-13.4497
-13.3401
-13.2495
-13.1745
-13.112
-13.0597
-13.0156
-12.978
-12.9457
-12.9175
-12.8926
-12.8702
-12.8496
-12.8303
-12.8118
-12.7936
-12.7753
-12.7565
-12.7367
-12.7156
-12.6928
-12.6677
-12.64
-12.6089
-12.574
-12.5343
-12.4891
-12.4373
-12.3775
-12.308
-12.227
-12.1319
-12.0196
-11.8868
-11.7292
-11.5428
-11.3246
-11.075
-10.8008
-10.5245
-10.3213
-10.3229
-15.6116
-15.4339
-15.0521
-14.6469
-14.2923
-14.0011
-13.7674
-13.5818
-13.4346
-13.3174
-13.2235
-13.1475
-13.0855
-13.0345
-12.9921
-12.9564
-12.9261
-12.8999
-12.8769
-12.8564
-12.8377
-12.8202
-12.8035
-12.787
-12.7704
-12.7532
-12.7351
-12.7157
-12.6945
-12.6711
-12.6451
-12.6158
-12.5826
-12.5447
-12.5012
-12.4508
-12.3923
-12.3235
-12.2422
-12.1452
-12.0284
-11.8863
-11.7121
-11.497
-11.2311
-10.9046
-10.5121
-10.0676
-9.64917
-9.43658
-17.016
-16.2526
-15.5074
-14.8801
-14.3887
-14.0209
-13.7484
-13.5447
-13.3905
-13.272
-13.1797
-13.1066
-13.0481
-13.0007
-12.9617
-12.9293
-12.902
-12.8787
-12.8585
-12.8405
-12.8241
-12.8089
-12.7943
-12.7799
-12.7654
-12.7502
-12.7341
-12.7168
-12.6977
-12.6764
-12.6526
-12.6257
-12.5949
-12.5597
-12.5189
-12.4716
-12.416
-12.3504
-12.2719
-12.177
-12.0608
-11.916
-11.7328
-11.4969
-11.188
-10.7787
-10.2391
-9.55864
-8.75817
-7.92627
-19.8497
-17.2505
-15.8309
-14.9435
-14.3346
-13.9222
-13.6409
-13.4429
-13.2989
-13.1913
-13.1092
-13.0453
-12.9948
-12.9542
-12.9213
-12.8942
-12.8715
-12.8524
-12.8359
-12.8213
-12.8081
-12.7958
-12.784
-12.7723
-12.7604
-12.7478
-12.7343
-12.7195
-12.7031
-12.6847
-12.6639
-12.6401
-12.6129
-12.5816
-12.5452
-12.5027
-12.4529
-12.3937
-12.3226
-12.2363
-12.1295
-11.9948
-11.8204
-11.588
-11.2674
-10.8083
-10.1413
-9.18189
-7.67568
-4.95607
-24.7184
-18.3335
-15.6668
-14.5668
-13.9682
-13.6117
-13.3901
-13.2423
-13.1375
-13.0598
-13.0006
-12.9546
-12.9182
-12.8892
-12.8658
-12.8467
-12.8309
-12.8178
-12.8065
-12.7967
-12.7879
-12.7796
-12.7716
-12.7635
-12.7551
-12.7459
-12.7359
-12.7246
-12.7119
-12.6973
-12.6806
-12.6614
-12.6392
-12.6135
-12.5837
-12.5489
-12.5081
-12.46
-12.4026
-12.3335
-12.2488
-12.1429
-12.0064
-11.8229
-11.5605
-11.1554
-10.4911
-9.29622
-6.51179
-0.000202775
)
;

boundaryField
{
    movingWallTop
    {
        type            zeroGradient;
    }
    movingWallBottom
    {
        type            zeroGradient;
    }
    fixedWalls
    {
        type            zeroGradient;
    }
    frontAndBack
    {
        type            empty;
    }
}


// ************************************************************************* //
