/*--------------------------------*- C++ -*----------------------------------*\
  =========                 |
  \\      /  F ield         | OpenFOAM: The Open Source CFD Toolbox
   \\    /   O peration     | Website:  https://openfoam.org
    \\  /    A nd           | Version:  7
     \\/     M anipulation  |
\*---------------------------------------------------------------------------*/
FoamFile
{
    version     2.0;
    format      ascii;
    class       surfaceScalarField;
    location    "0.0278";
    object      phi;
}
// * * * * * * * * * * * * * * * * * * * * * * * * * * * * * * * * * * * * * //

dimensions      [0 3 -1 0 0 0 0];

internalField   nonuniform List<scalar> 
4900
(
5.45529e-06
-5.45531e-06
9.95446e-06
-4.49917e-06
1.26952e-05
-2.74075e-06
1.44125e-05
-1.7173e-06
1.55268e-05
-1.11434e-06
1.62773e-05
-7.50409e-07
1.68049e-05
-5.27596e-07
1.71914e-05
-3.86498e-07
1.74841e-05
-2.9279e-07
1.77117e-05
-2.27519e-07
1.78918e-05
-1.80145e-07
1.80364e-05
-1.44587e-07
1.81536e-05
-1.17179e-07
1.82492e-05
-9.56051e-08
1.83275e-05
-7.83387e-08
1.83918e-05
-6.43275e-08
1.84447e-05
-5.28205e-08
1.84879e-05
-4.32632e-08
1.85232e-05
-3.52345e-08
1.85516e-05
-2.84052e-08
1.85741e-05
-2.25112e-08
1.85914e-05
-1.73349e-08
1.86041e-05
-1.26918e-08
1.86125e-05
-8.42044e-09
1.86169e-05
-4.37526e-09
1.86173e-05
-4.20685e-10
1.86137e-05
3.57763e-09
1.8606e-05
7.75158e-09
1.85937e-05
1.2243e-08
1.85765e-05
1.72061e-08
1.85537e-05
2.28159e-08
1.85244e-05
2.92786e-08
1.84876e-05
3.68446e-08
1.84418e-05
4.58278e-08
1.83851e-05
5.66325e-08
1.83153e-05
6.9795e-08
1.82293e-05
8.60475e-08
1.81229e-05
1.0642e-07
1.79905e-05
1.32414e-07
1.78242e-05
1.66304e-07
1.76125e-05
2.11694e-07
1.73379e-05
2.74575e-07
1.69725e-05
3.65415e-07
1.64692e-05
5.03298e-07
1.57456e-05
7.23606e-07
1.46557e-05
1.0899e-06
1.29448e-05
1.71092e-06
1.01623e-05
2.78241e-06
5.55766e-06
4.60469e-06
5.55766e-06
-1.18605e-07
-5.3367e-06
1.83258e-06
-6.45035e-06
4.41265e-06
-5.32083e-06
6.72539e-06
-4.03004e-06
8.60043e-06
-2.98938e-06
1.00763e-05
-2.22625e-06
1.12328e-05
-1.68416e-06
1.21445e-05
-1.29821e-06
1.28702e-05
-1.01844e-06
1.34537e-05
-8.10995e-07
1.39272e-05
-6.53648e-07
1.43144e-05
-5.31792e-07
1.46329e-05
-4.35697e-07
1.4896e-05
-3.58737e-07
1.5114e-05
-2.96286e-07
1.52947e-05
-2.45023e-07
1.54443e-05
-2.02501e-07
1.55679e-05
-1.66873e-07
1.56694e-05
-1.36705e-07
1.57519e-05
-1.10862e-07
1.58178e-05
-8.84172e-08
1.5869e-05
-6.85998e-08
1.59071e-05
-5.07482e-08
1.5933e-05
-3.42791e-08
1.59472e-05
-1.86617e-08
1.59502e-05
-3.39703e-09
1.59418e-05
1.20024e-08
1.59215e-05
2.80292e-08
1.58886e-05
4.52012e-08
1.58417e-05
6.40835e-08
1.57792e-05
8.53142e-08
1.56988e-05
1.09638e-07
1.55977e-05
1.37952e-07
1.54722e-05
1.71367e-07
1.53175e-05
2.11294e-07
1.51277e-05
2.59576e-07
1.48951e-05
3.18676e-07
1.46096e-05
3.91969e-07
1.42578e-05
4.84201e-07
1.38219e-05
6.02221e-07
1.32774e-05
7.56167e-07
1.25906e-05
9.61402e-07
1.17144e-05
1.2416e-06
1.05843e-05
1.63338e-06
9.11603e-06
2.19186e-06
7.21493e-06
2.99101e-06
4.82679e-06
4.09905e-06
2.11942e-06
5.48978e-06
1.06062e-08
6.7135e-06
5.56826e-06
-1.08237e-06
-4.25433e-06
-7.55349e-07
-6.77737e-06
5.84683e-07
-6.66086e-06
2.29071e-06
-5.73606e-06
3.99341e-06
-4.69208e-06
5.53382e-06
-3.76666e-06
6.86512e-06
-3.01546e-06
7.99128e-06
-2.42436e-06
8.93528e-06
-1.96243e-06
9.72429e-06
-1.60001e-06
1.03838e-05
-1.31312e-06
1.09356e-05
-1.08363e-06
1.1398e-05
-8.98061e-07
1.17857e-05
-7.46486e-07
1.21109e-05
-6.2151e-07
1.23835e-05
-5.17561e-07
1.26113e-05
-4.30371e-07
1.28011e-05
-3.56605e-07
1.2958e-05
-2.93615e-07
1.30864e-05
-2.39248e-07
1.31897e-05
-1.91718e-07
1.32706e-05
-1.49512e-07
1.33312e-05
-1.11314e-07
1.33728e-05
-7.59489e-08
1.33965e-05
-4.23376e-08
1.34026e-05
-9.45825e-09
1.33909e-05
2.36917e-08
1.33608e-05
5.81269e-08
1.33111e-05
9.49124e-08
1.32399e-05
1.35205e-07
1.3145e-05
1.803e-07
1.30229e-05
2.31697e-07
1.28697e-05
2.91176e-07
1.26801e-05
3.60908e-07
1.24478e-05
4.43602e-07
1.21647e-05
5.42711e-07
1.18206e-05
6.62726e-07
1.1403e-05
8.09593e-07
1.08959e-05
9.91309e-07
1.02794e-05
1.21877e-06
9.52857e-06
1.50695e-06
8.6136e-06
1.87636e-06
7.50065e-06
2.35456e-06
6.15755e-06
2.97648e-06
4.56931e-06
3.7801e-06
2.77329e-06
4.78702e-06
9.27924e-07
5.94442e-06
-5.7495e-07
6.99266e-06
-1.03915e-06
7.1777e-06
4.52911e-06
-9.13798e-07
-3.34054e-06
-1.34543e-06
-6.34574e-06
-9.46571e-07
-7.05971e-06
2.9424e-09
-6.68557e-06
1.20811e-06
-5.89725e-06
2.47084e-06
-5.02939e-06
3.67848e-06
-4.22309e-06
4.77862e-06
-3.52451e-06
5.75391e-06
-2.93772e-06
6.60497e-06
-2.45106e-06
7.3407e-06
-2.04886e-06
7.97306e-06
-1.71599e-06
8.51448e-06
-1.43948e-06
8.97665e-06
-1.20865e-06
9.37006e-06
-1.01491e-06
9.70386e-06
-8.51362e-07
9.98593e-06
-7.1244e-07
1.0223e-05
-5.9363e-07
1.04205e-05
-4.9121e-07
1.05834e-05
-4.02071e-07
1.07152e-05
-3.2357e-07
1.08191e-05
-2.53417e-07
1.08974e-05
-1.89584e-07
1.09517e-05
-1.30238e-07
1.0983e-05
-7.36693e-08
1.09918e-05
-1.8249e-08
1.09779e-05
3.76298e-08
1.09404e-05
9.55965e-08
1.0878e-05
1.57358e-07
1.07884e-05
2.24755e-07
1.06689e-05
2.99834e-07
1.05156e-05
3.84928e-07
1.03241e-05
4.82764e-07
1.00884e-05
5.96602e-07
9.80155e-06
7.3041e-07
9.45516e-06
8.891e-07
9.03905e-06
1.07883e-06
8.54123e-06
1.30742e-06
7.94776e-06
1.58477e-06
7.24304e-06
1.92349e-06
6.41072e-06
2.33928e-06
5.43616e-06
2.85092e-06
4.31181e-06
3.47891e-06
3.04786e-06
4.24043e-06
1.69153e-06
5.13643e-06
3.57183e-07
6.12137e-06
-7.39718e-07
7.04132e-06
-1.27261e-06
7.52555e-06
-9.17626e-07
6.82272e-06
3.61148e-06
-6.66432e-07
-2.6741e-06
-1.30394e-06
-5.70823e-06
-1.43332e-06
-6.93033e-06
-1.06983e-06
-7.04907e-06
-3.67298e-07
-6.59978e-06
5.165e-07
-5.91319e-06
1.46381e-06
-5.1704e-06
2.39922e-06
-4.45992e-06
3.27999e-06
-3.81849e-06
4.08526e-06
-3.25633e-06
4.80752e-06
-2.77112e-06
5.44694e-06
-2.35541e-06
6.00774e-06
-2.00028e-06
6.49604e-06
-1.69695e-06
6.91861e-06
-1.43749e-06
7.28218e-06
-1.21493e-06
7.59305e-06
-1.02331e-06
7.85692e-06
-8.57497e-07
8.0788e-06
-7.13085e-07
8.26298e-06
-5.8626e-07
8.41309e-06
-4.73678e-07
8.53204e-06
-3.72367e-07
8.6221e-06
-2.79641e-07
8.68488e-06
-1.93023e-07
8.72139e-06
-1.10178e-07
8.732e-06
-2.88547e-08
8.71645e-06
5.31774e-08
8.67386e-06
1.38185e-07
8.60269e-06
2.28534e-07
8.50068e-06
3.2676e-07
8.36487e-06
4.35646e-07
8.19148e-06
5.58318e-07
7.97589e-06
6.98358e-07
7.71255e-06
8.59937e-07
7.39497e-06
1.04799e-06
7.01568e-06
1.26839e-06
6.56631e-06
1.52821e-06
6.03786e-06
1.83587e-06
5.42128e-06
2.20135e-06
4.70866e-06
2.63611e-06
3.89544e-06
3.15249e-06
2.98436e-06
3.762e-06
1.99201e-06
4.47126e-06
9.58972e-07
5.27347e-06
-3.6522e-08
6.13193e-06
-8.65492e-07
6.95034e-06
-1.34872e-06
7.52455e-06
-1.30196e-06
7.47879e-06
-6.87381e-07
6.20814e-06
2.9241e-06
-4.7324e-07
-2.20086e-06
-1.10892e-06
-5.07255e-06
-1.48802e-06
-6.55124e-06
-1.5036e-06
-7.03349e-06
-1.20103e-06
-6.90235e-06
-6.74997e-07
-6.43922e-06
-1.87597e-08
-5.82664e-06
6.94293e-07
-5.17297e-06
1.41303e-06
-4.53723e-06
2.10488e-06
-3.94819e-06
2.75099e-06
-3.41723e-06
3.34182e-06
-2.94623e-06
3.87385e-06
-2.53231e-06
4.3473e-06
-2.17041e-06
4.76454e-06
-1.85473e-06
5.12905e-06
-1.57944e-06
5.44476e-06
-1.33902e-06
5.71568e-06
-1.12841e-06
5.94559e-06
-9.43001e-07
6.13794e-06
-7.7861e-07
6.29571e-06
-6.31448e-07
6.42139e-06
-4.98043e-07
6.51692e-06
-3.75173e-07
6.58371e-06
-2.59812e-07
6.6226e-06
-1.49063e-07
6.63384e-06
-4.01018e-08
6.61714e-06
6.98849e-08
6.57156e-06
1.83759e-07
6.4956e-06
3.04499e-07
6.38709e-06
4.35265e-07
6.24325e-06
5.79483e-07
6.06064e-06
7.40929e-07
5.83518e-06
9.23825e-07
5.56216e-06
1.13295e-06
5.23641e-06
1.37374e-06
4.8524e-06
1.6524e-06
4.40467e-06
1.97594e-06
3.88839e-06
2.35214e-06
3.30049e-06
2.78926e-06
2.64129e-06
3.29532e-06
1.91722e-06
3.87656e-06
1.1448e-06
4.53442e-06
3.56062e-07
5.26e-06
-3.94904e-07
6.02444e-06
-1.02639e-06
6.76342e-06
-1.43016e-06
7.3541e-06
-1.49149e-06
7.58589e-06
-1.14652e-06
7.13382e-06
-4.99386e-07
5.56101e-06
2.42472e-06
-3.42919e-07
-1.85794e-06
-9.13102e-07
-4.50237e-06
-1.38759e-06
-6.07674e-06
-1.6244e-06
-6.79668e-06
-1.60456e-06
-6.92219e-06
-1.36968e-06
-6.67411e-06
-9.80607e-07
-6.21571e-06
-4.95954e-07
-5.65762e-06
3.64977e-08
-5.06968e-06
5.81401e-07
-4.4931e-06
1.11444e-06
-3.95026e-06
1.61999e-06
-3.45178e-06
2.08885e-06
-3.00117e-06
2.5163e-06
-2.59786e-06
2.90064e-06
-2.23906e-06
3.24208e-06
-1.92088e-06
3.54203e-06
-1.63897e-06
3.80249e-06
-1.38888e-06
4.02574e-06
-1.16625e-06
4.21405e-06
-9.66918e-07
4.36952e-06
-7.86923e-07
4.49398e-06
-6.22505e-07
4.58889e-06
-4.70084e-07
4.6553e-06
-3.26217e-07
4.69379e-06
-1.87558e-07
4.7045e-06
-5.08034e-08
4.68703e-06
8.73519e-08
4.64051e-06
2.30275e-07
4.56356e-06
3.81452e-07
4.45428e-06
5.44548e-07
4.31029e-06
7.23471e-07
4.12878e-06
9.22439e-07
3.90656e-06
1.14604e-06
3.64024e-06
1.39928e-06
3.32638e-06
1.6876e-06
2.96191e-06
2.01687e-06
2.54464e-06
2.3932e-06
2.07414e-06
2.82264e-06
1.55292e-06
3.31048e-06
9.88263e-07
3.85998e-06
3.94606e-07
4.47022e-06
-2.03386e-07
5.13241e-06
-7.67524e-07
5.82414e-06
-1.24364e-06
6.50055e-06
-1.56254e-06
7.08231e-06
-1.64927e-06
7.44083e-06
-1.44812e-06
7.38474e-06
-9.71017e-07
6.65672e-06
-3.69654e-07
4.95965e-06
2.05506e-06
-2.58441e-07
-1.5995e-06
-7.53529e-07
-4.00728e-06
-1.24744e-06
-5.58284e-06
-1.60269e-06
-6.44143e-06
-1.7696e-06
-6.75528e-06
-1.75353e-06
-6.69018e-06
-1.58664e-06
-6.38261e-06
-1.30931e-06
-5.93495e-06
-9.60046e-07
-5.41894e-06
-5.71121e-07
-4.88202e-06
-1.67465e-07
-4.35392e-06
2.32789e-07
-3.85204e-06
6.17153e-07
-3.38554e-06
9.77531e-07
-2.95824e-06
1.30908e-06
-2.57061e-06
1.60929e-06
-2.22109e-06
1.87721e-06
-1.90689e-06
2.11295e-06
-1.62462e-06
2.31722e-06
-1.37052e-06
2.49105e-06
-1.14075e-06
2.63556e-06
-9.31432e-07
2.75181e-06
-7.3875e-07
2.84067e-06
-5.58944e-07
2.90276e-06
-3.88312e-07
2.9384e-06
-2.23193e-07
2.94753e-06
-5.99359e-08
2.92974e-06
1.05139e-07
2.88424e-06
2.75778e-07
2.80986e-06
4.55837e-07
2.70508e-06
6.49326e-07
2.5681e-06
8.60445e-07
2.39693e-06
1.09362e-06
2.18947e-06
1.35349e-06
1.94381e-06
1.64494e-06
1.65844e-06
1.97296e-06
1.33279e-06
2.34252e-06
9.67796e-07
2.7582e-06
5.66809e-07
3.22363e-06
1.36778e-07
3.74051e-06
-3.10258e-07
4.30701e-06
-7.55405e-07
4.91536e-06
-1.17115e-06
5.54816e-06
-1.52024e-06
6.17322e-06
-1.75636e-06
6.73667e-06
-1.82896e-06
7.15492e-06
-1.69516e-06
7.30703e-06
-1.34212e-06
7.0317e-06
-8.20884e-07
6.13548e-06
-2.84312e-07
4.42308e-06
1.77075e-06
-2.03085e-07
-1.39642e-06
-6.31378e-07
-3.57898e-06
-1.11129e-06
-5.10292e-06
-1.5236e-06
-6.02911e-06
-1.80811e-06
-6.47077e-06
-1.94873e-06
-6.54956e-06
-1.95622e-06
-6.37512e-06
-1.85433e-06
-6.03685e-06
-1.67063e-06
-5.60264e-06
-1.43132e-06
-5.12133e-06
-1.15882e-06
-4.62642e-06
-8.71053e-07
-4.1398e-06
-5.81623e-07
-3.67497e-06
-3.00404e-07
-3.23946e-06
-3.42446e-08
-2.83677e-06
2.12341e-07
-2.46767e-06
4.36578e-07
-2.13113e-06
6.36935e-07
-1.82497e-06
8.1273e-07
-1.54632e-06
9.63821e-07
-1.29184e-06
1.09037e-06
-1.05798e-06
1.19267e-06
-8.41047e-07
1.271e-06
-6.37273e-07
1.32554e-06
-4.42858e-07
1.35632e-06
-2.53971e-07
1.36313e-06
-6.67481e-08
1.34555e-06
1.22724e-07
1.3029e-06
3.18429e-07
1.23429e-06
5.24439e-07
1.13869e-06
7.44934e-07
1.01493e-06
9.84206e-07
8.61896e-07
1.24665e-06
6.78681e-07
1.53671e-06
4.64826e-07
1.8588e-06
2.20681e-07
2.21711e-06
-5.21317e-08
2.61533e-06
-3.50091e-07
3.05616e-06
-6.66993e-07
3.54053e-06
-9.93001e-07
4.06652e-06
-1.3136e-06
4.62761e-06
-1.6086e-06
5.21036e-06
-1.85161e-06
5.79117e-06
-2.01055e-06
6.33216e-06
-2.0503e-06
6.77642e-06
-1.9389e-06
7.04352e-06
-1.65888e-06
7.02701e-06
-1.22435e-06
6.59717e-06
-7.01902e-07
5.61303e-06
-2.27551e-07
3.94873e-06
1.5432e-06
-1.65752e-07
-1.23067e-06
-5.39396e-07
-3.20534e-06
-9.92959e-07
-4.64936e-06
-1.42762e-06
-5.59445e-06
-1.7831e-06
-6.11529e-06
-2.03234e-06
-6.30032e-06
-2.17177e-06
-6.23568e-06
-2.21196e-06
-5.99666e-06
-2.17025e-06
-5.64435e-06
-2.06591e-06
-5.22567e-06
-1.91726e-06
-4.77507e-06
-1.74025e-06
-4.31682e-06
-1.54798e-06
-3.86723e-06
-1.35077e-06
-3.43667e-06
-1.15641e-06
-3.03113e-06
-9.70612e-07
-2.65347e-06
-7.97422e-07
-2.30432e-06
-6.39591e-07
-1.9828e-06
-4.98924e-07
-1.68698e-06
-3.76547e-07
-1.41422e-06
-2.73138e-07
-1.16139e-06
-1.89097e-07
-9.25088e-07
-1.24683e-07
-7.01687e-07
-8.01155e-08
-4.87426e-07
-5.56416e-08
-2.78445e-07
-5.15838e-08
-7.08058e-08
-6.83598e-08
1.395e-07
-1.06478e-07
3.56547e-07
-1.66509e-07
5.84469e-07
-2.49023e-07
8.27448e-07
-3.54499e-07
1.08968e-06
-4.83181e-07
1.37533e-06
-6.34886e-07
1.68841e-06
-8.0874e-07
2.03265e-06
-1.00284e-06
2.41121e-06
-1.21381e-06
2.8263e-06
-1.43628e-06
3.27863e-06
-1.66227e-06
3.76652e-06
-1.88056e-06
4.2848e-06
-2.07609e-06
4.82314e-06
-2.22975e-06
5.36402e-06
-2.31869e-06
5.88011e-06
-2.31791e-06
6.33139e-06
-2.20374e-06
6.66225e-06
-1.95994e-06
6.79971e-06
-1.58694e-06
6.65401e-06
-1.11369e-06
6.12391e-06
-6.09271e-07
5.10861e-06
-1.88513e-07
3.52797e-06
1.35469e-06
-1.39728e-07
-1.09094e-06
-4.69967e-07
-2.8751e-06
-8.94522e-07
-4.2248e-06
-1.33277e-06
-5.1562e-06
-1.729e-06
-5.71906e-06
-2.05167e-06
-5.97765e-06
-2.28848e-06
-5.99887e-06
-2.44041e-06
-5.84474e-06
-2.51631e-06
-5.56844e-06
-2.52889e-06
-5.2131e-06
-2.49184e-06
-4.81212e-06
-2.41826e-06
-4.39039e-06
-2.31974e-06
-3.96576e-06
-2.20602e-06
-3.5504e-06
-2.08499e-06
-3.15216e-06
-1.96285e-06
-2.7756e-06
-1.84435e-06
-2.42282e-06
-1.73303e-06
-2.09412e-06
-1.6315e-06
-1.78852e-06
-1.54163e-06
-1.50409e-06
-1.46476e-06
-1.23826e-06
-1.40186e-06
-9.87987e-07
-1.35364e-06
-7.49904e-07
-1.32066e-06
-5.20408e-07
-1.30337e-06
-2.95732e-07
-1.30219e-06
-7.19886e-08
-1.31749e-06
1.54796e-07
-1.34959e-06
3.88651e-07
-1.39875e-06
6.3363e-07
-1.46507e-06
8.93766e-07
-1.54839e-06
1.17301e-06
-1.64818e-06
1.47512e-06
-1.76332e-06
1.80354e-06
-1.89183e-06
2.16116e-06
-2.03064e-06
2.55002e-06
-2.17516e-06
2.97083e-06
-2.31895e-06
3.42241e-06
-2.45324e-06
3.90081e-06
-2.56666e-06
4.39823e-06
-2.64511e-06
4.90159e-06
-2.67197e-06
5.39088e-06
-2.62912e-06
5.83727e-06
-2.49896e-06
6.20122e-06
-2.26791e-06
6.4312e-06
-1.93173e-06
6.46353e-06
-1.50241e-06
6.22469e-06
-1.01567e-06
5.63718e-06
-5.36766e-07
4.62971e-06
-1.60577e-07
3.15178e-06
1.19411e-06
-1.20994e-07
-9.69945e-07
-4.17003e-07
-2.57909e-06
-8.13995e-07
-3.82781e-06
-1.24624e-06
-4.72396e-06
-1.6641e-06
-5.3012e-06
-2.03527e-06
-5.60647e-06
-2.34262e-06
-5.69152e-06
-2.58062e-06
-5.60674e-06
-2.75159e-06
-5.39747e-06
-2.86257e-06
-5.10212e-06
-2.92286e-06
-4.75183e-06
-2.94237e-06
-4.37088e-06
-2.93064e-06
-3.97749e-06
-2.89623e-06
-3.58481e-06
-2.8465e-06
-3.2019e-06
-2.78756e-06
-2.83454e-06
-2.7244e-06
-2.48599e-06
-2.66094e-06
-2.15758e-06
-2.60027e-06
-1.84919e-06
-2.54475e-06
-1.5596e-06
-2.49621e-06
-1.2868e-06
-2.45603e-06
-1.02817e-06
-2.42526e-06
-7.80678e-07
-2.4047e-06
-5.4097e-07
-2.39496e-06
-3.0547e-07
-2.3965e-06
-7.04497e-08
-2.40962e-06
1.67917e-07
-2.43446e-06
4.13498e-07
-2.47098e-06
6.70146e-07
-2.51884e-06
9.41625e-07
-2.57735e-06
1.23152e-06
-2.64531e-06
1.54308e-06
-2.72087e-06
1.87909e-06
-2.80126e-06
2.24156e-06
-2.88263e-06
2.63139e-06
-2.95973e-06
3.04794e-06
-3.02571e-06
3.48838e-06
-3.07185e-06
3.94696e-06
-3.08758e-06
4.41396e-06
-3.06064e-06
4.87464e-06
-2.97768e-06
5.30793e-06
-2.82557e-06
5.68515e-06
-2.59345e-06
5.9691e-06
-2.27595e-06
6.1137e-06
-1.87733e-06
6.06492e-06
-1.41636e-06
5.76372e-06
-9.30678e-07
5.1515e-06
-4.79166e-07
4.1782e-06
-1.3979e-07
2.8124e-06
1.05432e-06
-1.07114e-07
-8.62831e-07
-3.76044e-07
-2.31016e-06
-7.4838e-07
-3.45548e-06
-1.17011e-06
-4.30223e-06
-1.59773e-06
-4.87358e-06
-2.00008e-06
-5.20412e-06
-2.35773e-06
-5.33387e-06
-2.66099e-06
-5.30348e-06
-2.90743e-06
-5.15103e-06
-3.09951e-06
-4.91004e-06
-3.24264e-06
-4.6087e-06
-3.34367e-06
-4.26984e-06
-3.40989e-06
-3.91126e-06
-3.44835e-06
-3.54636e-06
-3.46547e-06
-3.18478e-06
-3.4669e-06
-2.83311e-06
-3.45745e-06
-2.49544e-06
-3.44111e-06
-2.17391e-06
-3.42117e-06
-1.86913e-06
-3.40025e-06
-1.58052e-06
-3.38045e-06
-1.30659e-06
-3.36342e-06
-1.0452e-06
-3.35044e-06
-7.93661e-07
-3.34247e-06
-5.48944e-07
-3.3402e-06
-3.07737e-07
-3.3441e-06
-6.65548e-08
-3.35437e-06
1.78192e-07
-3.37099e-06
4.30116e-07
-3.39362e-06
6.92778e-07
-3.42158e-06
9.69584e-07
-3.45373e-06
1.26367e-06
-3.4884e-06
1.57775e-06
-3.52318e-06
1.91388e-06
-3.55485e-06
2.27323e-06
-3.57915e-06
2.65568e-06
-3.59064e-06
3.05943e-06
-3.5826e-06
3.48035e-06
-3.54702e-06
3.91137e-06
-3.47471e-06
4.34165e-06
-3.35573e-06
4.75567e-06
-3.18024e-06
5.13243e-06
-2.93975e-06
5.44466e-06
-2.62915e-06
5.6585e-06
-2.24929e-06
5.73384e-06
-1.81012e-06
5.62575e-06
-1.33386e-06
5.28746e-06
-8.57366e-07
4.67501e-06
-4.32596e-07
3.75343e-06
-1.23782e-07
2.50359e-06
9.30538e-07
-9.65734e-08
-7.66257e-07
-3.43913e-07
-2.06282e-06
-6.94796e-07
-3.10459e-06
-1.1043e-06
-3.89272e-06
-1.53444e-06
-4.44344e-06
-1.95606e-06
-4.7825e-06
-2.34902e-06
-4.94091e-06
-2.70113e-06
-4.95138e-06
-3.00661e-06
-4.84555e-06
-3.26444e-06
-4.65221e-06
-3.47676e-06
-4.39638e-06
-3.64767e-06
-4.09893e-06
-3.78226e-06
-3.77667e-06
-3.88595e-06
-3.44267e-06
-3.96403e-06
-3.1067e-06
-4.02139e-06
-2.77574e-06
-4.06243e-06
-2.4544e-06
-4.09094e-06
-2.1454e-06
-4.11017e-06
-1.84991e-06
-4.12281e-06
-1.56788e-06
-4.13106e-06
-1.29834e-06
-4.13671e-06
-1.03955e-06
-4.14113e-06
-7.8924e-07
-4.14537e-06
-5.44705e-07
-4.15015e-06
-3.02957e-07
-4.15589e-06
-6.08109e-08
-4.16272e-06
1.85018e-07
-4.17042e-06
4.37822e-07
-4.17845e-06
7.00804e-07
-4.18583e-06
9.76962e-07
-4.1911e-06
1.26895e-06
-4.19226e-06
1.57891e-06
-4.18662e-06
1.90823e-06
-4.1707e-06
2.25731e-06
-4.14021e-06
2.62519e-06
-4.0899e-06
3.00911e-06
-4.01361e-06
3.40406e-06
-3.90439e-06
3.80216e-06
-3.75479e-06
4.19205e-06
-3.55739e-06
4.55826e-06
-3.30564e-06
4.88068e-06
-2.99517e-06
5.1342e-06
-2.62546e-06
5.28879e-06
-2.20187e-06
5.31025e-06
-1.73788e-06
5.16176e-06
-1.25703e-06
4.80661e-06
-7.94048e-07
4.21203e-06
-3.94305e-07
3.35369e-06
-1.11097e-07
2.22038e-06
8.19441e-07
-8.84009e-08
-6.77856e-07
-3.18367e-07
-1.83286e-06
-6.5082e-07
-2.77214e-06
-1.04785e-06
-3.49569e-06
-1.47621e-06
-4.01509e-06
-1.90902e-06
-4.34969e-06
-2.3263e-06
-4.52363e-06
-2.71451e-06
-4.56316e-06
-3.06565e-06
-4.4944e-06
-3.37606e-06
-4.3418e-06
-3.64529e-06
-4.12716e-06
-3.87507e-06
-3.86915e-06
-4.06849e-06
-3.58325e-06
-4.22936e-06
-3.2818e-06
-4.36174e-06
-2.97432e-06
-4.46968e-06
-2.6678e-06
-4.55695e-06
-2.36713e-06
-4.62699e-06
-2.07536e-06
-4.68281e-06
-1.79408e-06
-4.72703e-06
-1.52367e-06
-4.76181e-06
-1.26356e-06
-4.78893e-06
-1.01243e-06
-4.80981e-06
-7.68364e-07
-4.82548e-06
-5.29036e-07
-4.83664e-06
-2.91795e-07
-4.84365e-06
-5.3796e-08
-4.84654e-06
1.87901e-07
-4.84494e-06
4.36226e-07
-4.83813e-06
6.9399e-07
-4.82492e-06
9.63758e-07
-4.80367e-06
1.2477e-06
-4.77218e-06
1.54741e-06
-4.72764e-06
1.86369e-06
-4.66662e-06
2.19629e-06
-4.58499e-06
2.54356e-06
-4.478e-06
2.90212e-06
-4.34033e-06
3.26639e-06
-4.16633e-06
3.62816e-06
-3.95038e-06
3.9761e-06
-3.68749e-06
4.29537e-06
-3.37412e-06
4.56732e-06
-3.00932e-06
4.7694e-06
-2.59609e-06
4.87555e-06
-2.1429e-06
4.85706e-06
-1.66523e-06
4.68409e-06
-1.18666e-06
4.32804e-06
-7.39195e-07
3.76456e-06
-3.62377e-07
2.97687e-06
-1.00819e-07
1.95882e-06
7.18622e-07
-8.19572e-08
-5.95899e-07
-2.97819e-07
-1.61699e-06
-6.14536e-07
-2.45542e-06
-9.99619e-07
-3.1106e-06
-1.42376e-06
-3.59095e-06
-1.86232e-06
-3.91113e-06
-2.29595e-06
-4.09e-06
-2.71051e-06
-4.1486e-06
-3.09656e-06
-4.10836e-06
-3.44854e-06
-3.98982e-06
-3.76396e-06
-3.81173e-06
-4.04261e-06
-3.59051e-06
-4.28581e-06
-3.34005e-06
-4.49589e-06
-3.07172e-06
-4.67573e-06
-2.79447e-06
-4.82843e-06
-2.5151e-06
-4.9571e-06
-2.23846e-06
-5.06468e-06
-1.96778e-06
-5.15386e-06
-1.7049e-06
-5.22703e-06
-1.4505e-06
-5.28622e-06
-1.20436e-06
-5.33314e-06
-9.65506e-07
-5.36913e-06
-7.32378e-07
-5.39517e-06
-5.02995e-07
-5.4119e-06
-2.75064e-07
-5.4196e-06
-4.6095e-08
-5.41819e-06
1.86486e-07
-5.40719e-06
4.25227e-07
-5.38574e-06
6.72538e-07
-5.35253e-06
9.30553e-07
-5.30582e-06
1.20099e-06
-5.24335e-06
1.48494e-06
-5.16238e-06
1.78272e-06
-5.05966e-06
2.09357e-06
-4.93146e-06
2.41536e-06
-4.77368e-06
2.74434e-06
-4.58199e-06
3.0747e-06
-4.35214e-06
3.3983e-06
-4.0803e-06
3.70427e-06
-3.76373e-06
3.9788e-06
-3.40146e-06
4.20505e-06
-2.99528e-06
4.36322e-06
-2.5508e-06
4.43107e-06
-2.07855e-06
4.38481e-06
-1.59496e-06
4.20049e-06
-1.1229e-06
3.85598e-06
-6.91571e-07
3.33324e-06
-3.35476e-07
2.62077e-06
-9.23548e-08
1.7157e-06
6.26267e-07
-7.68115e-08
-5.19088e-07
-2.81143e-07
-1.41266e-06
-5.84476e-07
-2.15209e-06
-9.58517e-07
-2.73656e-06
-1.3772e-06
-3.17227e-06
-1.81792e-06
-3.47041e-06
-2.26218e-06
-3.64574e-06
-2.69569e-06
-3.71509e-06
-3.10812e-06
-3.69593e-06
-3.49259e-06
-3.60535e-06
-3.84506e-06
-3.45926e-06
-4.16373e-06
-3.27184e-06
-4.44844e-06
-3.05534e-06
-4.70021e-06
-2.81996e-06
-4.92078e-06
-2.5739e-06
-5.11238e-06
-2.32351e-06
-5.27738e-06
-2.07346e-06
-5.41818e-06
-1.82697e-06
-5.53709e-06
-1.58599e-06
-5.6362e-06
-1.3514e-06
-5.71733e-06
-1.12323e-06
-5.78203e-06
-9.008e-07
-5.83154e-06
-6.82874e-07
-5.86673e-06
-4.67803e-07
-5.88816e-06
-2.53638e-07
-5.896e-06
-3.82472e-08
-5.89009e-06
1.80574e-07
-5.86986e-06
4.04996e-07
-5.83436e-06
6.37033e-07
-5.78222e-06
8.78416e-07
-5.71168e-06
1.13044e-06
-5.62055e-06
1.39381e-06
-5.50625e-06
1.66843e-06
-5.36585e-06
1.95317e-06
-5.19614e-06
2.24565e-06
-4.99377e-06
2.54198e-06
-4.75548e-06
2.83641e-06
-4.47836e-06
3.12117e-06
-4.16028e-06
3.38619e-06
-3.80044e-06
3.61896e-06
-3.40002e-06
3.80463e-06
-2.96294e-06
3.92615e-06
-2.4967e-06
3.96483e-06
-2.0131e-06
3.90121e-06
-1.52884e-06
3.71623e-06
-1.0657e-06
3.39284e-06
-6.50231e-07
2.91776e-06
-3.12675e-07
2.28322e-06
-8.53106e-08
1.48834e-06
5.40956e-07
-7.26688e-08
-4.46419e-07
-2.67541e-07
-1.21779e-06
-5.5954e-07
-1.86009e-06
-9.23633e-07
-2.37247e-06
-1.33638e-06
-2.75951e-06
-1.77698e-06
-3.02982e-06
-2.22781e-06
-3.19491e-06
-2.67471e-06
-3.26818e-06
-3.10685e-06
-3.26378e-06
-3.51644e-06
-3.19577e-06
-3.89827e-06
-3.07743e-06
-4.2493e-06
-2.92082e-06
-4.56813e-06
-2.73651e-06
-4.85464e-06
-2.53344e-06
-5.10961e-06
-2.31893e-06
-5.33438e-06
-2.09874e-06
-5.53065e-06
-1.87719e-06
-5.70028e-06
-1.65734e-06
-5.84513e-06
-1.44114e-06
-5.96696e-06
-1.22957e-06
-6.06736e-06
-1.02283e-06
-6.14768e-06
-8.20485e-07
-6.20898e-06
-6.2157e-07
-6.25204e-06
-4.24742e-07
-6.27729e-06
-2.28384e-07
-6.28483e-06
-3.07066e-08
-6.2744e-06
1.70137e-07
-6.24535e-06
3.75953e-07
-6.19671e-06
5.88386e-07
-6.12709e-06
8.08799e-07
-6.03478e-06
1.03814e-06
-5.91774e-06
1.27677e-06
-5.77363e-06
1.52432e-06
-5.59992e-06
1.77945e-06
-5.39397e-06
2.03971e-06
-5.15324e-06
2.30124e-06
-4.87547e-06
2.55865e-06
-4.55904e-06
2.80474e-06
-4.20332e-06
3.03047e-06
-3.80918e-06
3.22482e-06
-3.37951e-06
3.37496e-06
-2.91988e-06
3.46651e-06
-2.43906e-06
3.48402e-06
-1.9496e-06
3.41174e-06
-1.46804e-06
3.23467e-06
-1.01496e-06
2.93976e-06
-6.14484e-07
2.51728e-06
-2.93329e-07
1.96206e-06
-7.9422e-08
1.27443e-06
4.61534e-07
-6.93251e-08
-3.77094e-07
-2.56445e-07
-1.03067e-06
-5.38915e-07
-1.57762e-06
-8.94242e-07
-2.01714e-06
-1.3011e-06
-2.35265e-06
-1.7402e-06
-2.59072e-06
-2.19478e-06
-2.74032e-06
-2.65096e-06
-2.81201e-06
-3.09763e-06
-2.81711e-06
-3.5264e-06
-2.767e-06
-3.9312e-06
-2.67262e-06
-4.30802e-06
-2.544e-06
-4.65449e-06
-2.39005e-06
-4.96951e-06
-2.21842e-06
-5.253e-06
-2.03544e-06
-5.50555e-06
-1.84618e-06
-5.72823e-06
-1.65451e-06
-5.92235e-06
-1.46322e-06
-6.08935e-06
-1.27414e-06
-6.23066e-06
-1.08826e-06
-6.34759e-06
-9.05901e-07
-6.44129e-06
-7.26792e-07
-6.51265e-06
-5.50212e-07
-6.5623e-06
-3.7509e-07
-6.59057e-06
-2.00112e-07
-6.59746e-06
-2.38154e-08
-6.58264e-06
1.55314e-07
-6.54542e-06
3.38739e-07
-6.48481e-06
5.27771e-07
-6.39946e-06
7.23454e-07
-6.28777e-06
9.26441e-07
-6.14785e-06
1.13686e-06
-5.97769e-06
1.35415e-06
-5.77517e-06
1.57693e-06
-5.53825e-06
1.80279e-06
-5.26515e-06
2.02815e-06
-4.95458e-06
2.24808e-06
-4.60605e-06
2.45621e-06
-4.22022e-06
2.64464e-06
-3.79933e-06
2.80393e-06
-3.34765e-06
2.92328e-06
-2.87193e-06
2.9908e-06
-2.38185e-06
2.99394e-06
-1.89027e-06
2.92017e-06
-1.4134e-06
2.7578e-06
-9.70582e-07
2.49695e-06
-5.8384e-07
2.13054e-06
-2.76994e-07
1.65521e-06
-7.45088e-08
1.07194e-06
3.87026e-07
-6.66382e-08
-3.10455e-07
-2.47451e-07
-8.49858e-07
-5.22011e-07
-1.30306e-06
-8.69791e-07
-1.66936e-06
-1.27115e-06
-1.95129e-06
-1.70804e-06
-2.15383e-06
-2.1645e-06
-2.28387e-06
-2.62692e-06
-2.34959e-06
-3.08415e-06
-2.35988e-06
-3.52735e-06
-2.3238e-06
-3.94986e-06
-2.2501e-06
-4.34692e-06
-2.14694e-06
-4.71537e-06
-2.0216e-06
-5.05335e-06
-1.88044e-06
-5.36004e-06
-1.72875e-06
-5.63537e-06
-1.57085e-06
-5.87985e-06
-1.41004e-06
-6.09431e-06
-1.24876e-06
-6.2798e-06
-1.08865e-06
-6.4374e-06
-9.30659e-07
-6.56817e-06
-7.75126e-07
-6.67305e-06
-6.21918e-07
-6.75275e-06
-4.70506e-07
-6.80778e-06
-3.20061e-07
-6.83835e-06
-1.69544e-07
-6.84438e-06
-1.7791e-08
-6.82546e-06
1.36401e-07
-6.78091e-06
2.94186e-07
-6.70972e-06
4.56578e-07
-6.61062e-06
6.24351e-07
-6.48211e-06
7.97933e-07
-6.32254e-06
9.77287e-07
-6.13018e-06
1.16179e-06
-5.90334e-06
1.3501e-06
-5.64056e-06
1.54001e-06
-5.34076e-06
1.72834e-06
-5.0035e-06
1.91082e-06
-4.62927e-06
2.08198e-06
-4.2198e-06
2.23517e-06
-3.77845e-06
2.36257e-06
-3.31053e-06
2.45536e-06
-2.82367e-06
2.50394e-06
-2.3281e-06
2.49837e-06
-1.83681e-06
2.42888e-06
-1.36554e-06
2.28652e-06
-9.32506e-07
2.06392e-06
-5.57958e-07
1.75599e-06
-2.63361e-07
1.36062e-06
-7.0448e-08
8.79031e-07
3.16578e-07
-6.45095e-08
-2.45946e-07
-2.40277e-07
-6.74091e-07
-5.08406e-07
-1.03493e-06
-8.49879e-07
-1.32789e-06
-1.24636e-06
-1.55481e-06
-1.68083e-06
-1.71937e-06
-2.13796e-06
-1.82673e-06
-2.60448e-06
-1.88307e-06
-3.06921e-06
-1.89516e-06
-3.52307e-06
-1.86994e-06
-3.95897e-06
-1.81421e-06
-4.37158e-06
-1.73432e-06
-4.75714e-06
-1.63604e-06
-5.11317e-06
-1.52441e-06
-5.43825e-06
-1.40367e-06
-5.73179e-06
-1.27731e-06
-5.99379e-06
-1.14804e-06
-6.22468e-06
-1.01787e-06
-6.42514e-06
-8.88194e-07
-6.59597e-06
-7.59823e-07
-6.738e-06
-6.33102e-07
-6.85194e-06
-5.07978e-07
-6.93837e-06
-3.84076e-07
-6.99765e-06
-2.60778e-07
-7.0299e-06
-1.3729e-07
-7.03497e-06
-1.27237e-08
-7.01241e-06
1.13843e-07
-6.96151e-06
2.43287e-07
-6.8813e-06
3.76362e-07
-6.77057e-06
5.13621e-07
-6.62796e-06
6.55325e-07
-6.45203e-06
8.01353e-07
-6.24133e-06
9.51094e-07
-5.99458e-06
1.10335e-06
-5.71082e-06
1.25625e-06
-5.38958e-06
1.4071e-06
-5.03115e-06
1.55239e-06
-4.63684e-06
1.68767e-06
-4.20925e-06
1.80758e-06
-3.75259e-06
1.90591e-06
-3.27297e-06
1.97574e-06
-2.77863e-06
2.0096e-06
-2.28015e-06
1.9999e-06
-1.79051e-06
1.93923e-06
-1.32494e-06
1.82096e-06
-9.0072e-07
1.63969e-06
-5.36612e-07
1.39189e-06
-2.52223e-07
1.07623e-06
-6.71554e-08
6.93964e-07
2.49422e-07
-6.28708e-08
-1.83075e-07
-2.34724e-07
-5.02238e-07
-4.97804e-07
-7.71851e-07
-8.34217e-07
-9.91478e-07
-1.22663e-06
-1.1624e-06
-1.65879e-06
-1.28721e-06
-2.11592e-06
-1.36959e-06
-2.58502e-06
-1.41397e-06
-3.05494e-06
-1.42523e-06
-3.51646e-06
-1.40842e-06
-3.96218e-06
-1.36849e-06
-4.38638e-06
-1.31013e-06
-4.78482e-06
-1.2376e-06
-5.15457e-06
-1.15466e-06
-5.49373e-06
-1.0645e-06
-5.80129e-06
-9.6975e-07
-6.07686e-06
-8.72473e-07
-6.32051e-06
-7.74219e-07
-6.53264e-06
-6.76062e-07
-6.71381e-06
-5.78657e-07
-6.86461e-06
-4.82298e-07
-6.98561e-06
-3.86977e-07
-7.07725e-06
-2.92442e-07
-7.13977e-06
-1.98257e-07
-7.17321e-06
-1.03852e-07
-7.17735e-06
-8.5843e-09
-7.15171e-06
8.8211e-08
-7.09559e-06
1.87161e-07
-7.00803e-06
2.88799e-07
-6.8879e-06
3.93497e-07
-6.73398e-06
5.01403e-07
-6.545e-06
6.12368e-07
-6.31978e-06
7.25873e-07
-6.05737e-06
8.40949e-07
-5.75724e-06
9.56112e-07
-5.41942e-06
1.06929e-06
-5.04481e-06
1.17777e-06
-4.63534e-06
1.2782e-06
-4.19429e-06
1.36653e-06
-3.72653e-06
1.43815e-06
-3.23873e-06
1.48793e-06
-2.73956e-06
1.51044e-06
-2.23981e-06
1.50015e-06
-1.75236e-06
1.45177e-06
-1.29201e-06
1.36061e-06
-8.75234e-07
1.22292e-06
-5.19655e-07
1.03631e-06
-2.43437e-07
8.00011e-07
-6.45737e-08
5.151e-07
1.84849e-07
-6.16757e-08
-1.21399e-07
-2.30658e-07
-3.33255e-07
-4.90001e-07
-5.12509e-07
-8.22612e-07
-6.58866e-07
-1.21187e-06
-7.73136e-07
-1.6421e-06
-8.56983e-07
-2.09894e-06
-9.12763e-07
-2.56957e-06
-9.43335e-07
-3.04294e-06
-9.51867e-07
-3.50971e-06
-9.41643e-07
-3.96229e-06
-9.1591e-07
-4.39467e-06
-8.77745e-07
-4.80231e-06
-8.29965e-07
-5.18191e-06
-7.75058e-07
-5.53126e-06
-7.15153e-07
-5.849e-06
-6.52008e-07
-6.13446e-06
-5.87016e-07
-6.38745e-06
-5.21226e-07
-6.60814e-06
-4.55371e-07
-6.79689e-06
-3.89907e-07
-6.95414e-06
-3.25047e-07
-7.08032e-06
-2.60802e-07
-7.17574e-06
-1.97017e-07
-7.24059e-06
-1.33414e-07
-7.27481e-06
-6.96273e-08
-7.27816e-06
-5.23942e-09
-7.25012e-06
6.01793e-08
-7.19e-06
1.27032e-07
-7.09685e-06
1.95658e-07
-6.96964e-06
2.66284e-07
-6.80722e-06
3.38986e-07
-6.60849e-06
4.13636e-07
-6.37248e-06
4.89858e-07
-6.0985e-06
5.66974e-07
-5.78635e-06
6.4396e-07
-5.43646e-06
7.19402e-07
-5.05016e-06
7.9147e-07
-4.62986e-06
8.57901e-07
-4.17934e-06
9.1601e-07
-3.70391e-06
9.62727e-07
-3.21066e-06
9.94682e-07
-2.70854e-06
1.00832e-06
-2.20843e-06
1.00004e-06
-1.72311e-06
9.66451e-07
-1.26704e-06
9.04542e-07
-8.56079e-07
8.11956e-07
-5.06994e-07
6.87221e-07
-2.36913e-07
5.2993e-07
-6.26649e-08
3.40852e-07
1.22184e-07
-6.0894e-08
-6.05055e-08
-2.27991e-07
-1.66158e-07
-4.84864e-07
-2.55636e-07
-8.14937e-07
-3.28793e-07
-1.20205e-06
-3.86021e-07
-1.63091e-06
-4.28129e-07
-2.0874e-06
-4.56271e-07
-2.55888e-06
-4.71849e-07
-3.03433e-06
-4.76419e-07
-3.50437e-06
-4.71601e-07
-3.96128e-06
-4.59e-07
-4.39889e-06
-4.40141e-07
-4.81243e-06
-4.16424e-07
-5.1984e-06
-3.89088e-07
-5.55435e-06
-3.59199e-07
-5.87872e-06
-3.27637e-07
-6.17064e-06
-2.95102e-07
-6.42974e-06
-2.62124e-07
-6.65603e-06
-2.29074e-07
-6.84975e-06
-1.96186e-07
-7.01123e-06
-1.63572e-07
-7.14079e-06
-1.31241e-07
-7.23869e-06
-9.91209e-08
-7.30502e-06
-6.70767e-08
-7.33972e-06
-3.49287e-08
-7.34249e-06
-2.47243e-09
-7.31281e-06
3.05029e-08
-7.24998e-06
6.41946e-08
-7.15308e-06
9.87663e-08
-7.02113e-06
1.34326e-07
-6.85304e-06
1.70904e-07
-6.64784e-06
2.08429e-07
-6.40468e-06
2.46702e-07