/*--------------------------------*- C++ -*----------------------------------*\
  =========                 |
  \\      /  F ield         | OpenFOAM: The Open Source CFD Toolbox
   \\    /   O peration     | Website:  https://openfoam.org
    \\  /    A nd           | Version:  7
     \\/     M anipulation  |
\*---------------------------------------------------------------------------*/
FoamFile
{
    version     2.0;
    format      ascii;
    class       volScalarField;
    location    "0.0698";
    object      p;
}
// * * * * * * * * * * * * * * * * * * * * * * * * * * * * * * * * * * * * * //

dimensions      [0 2 -2 0 0 0 0];

internalField   nonuniform List<scalar> 
2500
(
-1.86164e-05
-6.51222
-9.29781
-10.4942
-11.1603
-11.5672
-11.8316
-12.017
-12.1553
-12.263
-12.3493
-12.4199
-12.4785
-12.5276
-12.5692
-12.6044
-12.6344
-12.6599
-12.6815
-12.6999
-12.7154
-12.7284
-12.7393
-12.7484
-12.7561
-12.7627
-12.7685
-12.7738
-12.7791
-12.7846
-12.7908
-12.7982
-12.8073
-12.8186
-12.8329
-12.8509
-12.8738
-12.9028
-12.9396
-12.9866
-13.0472
-13.1267
-13.2338
-13.384
-13.6081
-13.967
-14.5676
-15.669
-18.3365
-24.7212
-4.95531
-7.67552
-9.18265
-10.1432
-10.8116
-11.2723
-11.5945
-11.8285
-12.0046
-12.141
-12.2493
-12.337
-12.4093
-12.4695
-12.5203
-12.5633
-12.6
-12.6314
-12.6583
-12.6814
-12.7014
-12.7186
-12.7335
-12.7466
-12.7581
-12.7686
-12.7783
-12.7876
-12.797
-12.8069
-12.8178
-12.8302
-12.8448
-12.8623
-12.8836
-12.9097
-12.9421
-12.9825
-13.0334
-13.098
-13.1812
-13.2902
-13.436
-13.6361
-13.9194
-14.3338
-14.9444
-15.833
-17.2533
-19.8523
-7.92436
-8.75715
-9.55853
-10.24
-10.7807
-11.1914
-11.5016
-11.7391
-11.9238
-12.0701
-12.1878
-12.2841
-12.3638
-12.4306
-12.4871
-12.5351
-12.5763
-12.6118
-12.6425
-12.6691
-12.6923
-12.7126
-12.7305
-12.7464
-12.7609
-12.7742
-12.7868
-12.7991
-12.8115
-12.8246
-12.8389
-12.8549
-12.8734
-12.8952
-12.9212
-12.9526
-12.991
-13.0382
-13.0969
-13.1705
-13.2638
-13.3835
-13.5393
-13.7447
-14.0191
-14.3886
-14.8816
-15.5101
-16.2559
-17.0192
-9.43332
-9.64718
-10.0667
-10.5122
-10.9056
-11.2333
-11.5005
-11.7169
-11.8925
-12.036
-12.1543
-12.2527
-12.3353
-12.4052
-12.4648
-12.5159
-12.5601
-12.5983
-12.6317
-12.6608
-12.6865
-12.7092
-12.7294
-12.7476
-12.7643
-12.7799
-12.7948
-12.8094
-12.8242
-12.8397
-12.8565
-12.8752
-12.8965
-12.9212
-12.9503
-12.985
-13.0268
-13.0776
-13.1396
-13.2161
-13.3109
-13.4292
-13.5778
-13.765
-14.0004
-14.2934
-14.6495
-15.0559
-15.4384
-15.6162
-10.3183
-10.3184
-10.5229
-10.8002
-11.0754
-11.326
-11.5453
-11.7329
-11.8917
-12.026
-12.1395
-12.236
-12.3184
-12.389
-12.45
-12.5028
-12.5487
-12.5889
-12.6242
-12.6553
-12.6828
-12.7074
-12.7296
-12.7497
-12.7683
-12.7857
-12.8025
-12.819
-12.8357
-12.8532
-12.872
-12.8927
-12.916
-12.9427
-12.9738
-13.0105
-13.054
-13.106
-13.1685
-13.2439
-13.3353
-13.446
-13.5802
-13.7417
-13.9336
-14.1558
-14.4021
-14.6515
-14.8315
-14.8132
-10.8845
-10.811
-10.9004
-11.0685
-11.2568
-11.4437
-11.6183
-11.7755
-11.9143
-12.0356
-12.1411
-12.2327
-12.3124
-12.3818
-12.4424
-12.4955
-12.5422
-12.5834
-12.6198
-12.6522
-12.6811
-12.7071
-12.7307
-12.7523
-12.7723
-12.7912
-12.8094
-12.8274
-12.8456
-12.8645
-12.8847
-12.9068
-12.9314
-12.9593
-12.9914
-13.0286
-13.0723
-13.1236
-13.1842
-13.2558
-13.3405
-13.4401
-13.5566
-13.691
-13.8424
-14.0063
-14.1726
-14.3208
-14.3947
-14.3133
-11.2662
-11.1761
-11.207
-11.3067
-11.4337
-11.5705
-11.7066
-11.8353
-11.9536
-12.0604
-12.1558
-12.2406
-12.3158
-12.3824
-12.4413
-12.4936
-12.54
-12.5814
-12.6183
-12.6513
-12.6811
-12.708
-12.7325
-12.7551
-12.7762
-12.7961
-12.8154
-12.8344
-12.8536
-12.8734
-12.8945
-12.9173
-12.9425
-12.9708
-13.0029
-13.0397
-13.0822
-13.1314
-13.1884
-13.2544
-13.3306
-13.4177
-13.5161
-13.625
-13.7417
-13.8602
-13.9704
-14.056
-14.0775
-13.9853
-11.539
-11.4528
-11.4547
-11.5121
-11.5967
-11.6959
-11.8005
-11.9042
-12.0032
-12.0955
-12.1802
-12.2572
-12.3268
-12.3895
-12.4457
-12.4962
-12.5416
-12.5824
-12.6191
-12.6522
-12.6823
-12.7096
-12.7347
-12.7579
-12.7796
-12.8002
-12.8201
-12.8397
-12.8595
-12.8798
-12.9013
-12.9243
-12.9495
-12.9775
-13.0089
-13.0444
-13.0848
-13.1309
-13.1833
-13.2428
-13.3098
-13.3844
-13.4659
-13.5527
-13.6413
-13.7259
-13.798
-13.8455
-13.8421
-13.7571
-11.7446
-11.6679
-11.6557
-11.687
-11.7427
-11.8141
-11.8939
-11.9767
-12.0586
-12.1372
-12.2113
-12.2802
-12.3436
-12.4016
-12.4545
-12.5026
-12.5462
-12.5858
-12.6218
-12.6545
-12.6844
-12.7117
-12.7369
-12.7603
-12.7823
-12.8032
-12.8234
-12.8433
-12.8632
-12.8837
-12.9051
-12.9279
-12.9526
-12.9797
-13.0099
-13.0436
-13.0813
-13.1237
-13.1711
-13.2238
-13.2818
-13.3447
-13.4114
-13.4798
-13.5465
-13.6064
-13.6529
-13.6776
-13.6629
-13.5894
-11.906
-11.8391
-11.8204
-11.8357
-11.8719
-11.9229
-11.9835
-12.049
-12.1162
-12.1826
-12.2467
-12.3075
-12.3646
-12.4176
-12.4667
-12.5118
-12.5533
-12.5912
-12.626
-12.6579
-12.6871
-12.7141
-12.739
-12.7623
-12.7842
-12.8051
-12.8252
-12.845
-12.8648
-12.885
-12.906
-12.9283
-12.9521
-12.9781
-13.0065
-13.038
-13.0727
-13.1112
-13.1534
-13.1996
-13.2492
-13.3018
-13.3558
-13.4094
-13.4594
-13.5015
-13.531
-13.5421
-13.523
-13.4607
-12.0365
-11.9784
-11.9572
-11.9626
-11.9855
-12.0217
-12.0674
-12.1191
-12.1738
-12.2294
-12.2844
-12.3376
-12.3884
-12.4364
-12.4814
-12.5233
-12.5622
-12.5981
-12.6313
-12.662
-12.6903
-12.7165
-12.7409
-12.7637
-12.7853
-12.8058
-12.8256
-12.845
-12.8644
-12.8841
-12.9044
-12.9257
-12.9485
-12.9729
-12.9995
-13.0285
-13.0601
-13.0946
-13.1319
-13.1719
-13.2141
-13.2576
-13.3013
-13.3431
-13.3804
-13.4099
-13.4281
-13.4312
-13.4111
-13.3587
-12.1445
-12.0939
-12.0721
-12.0715
-12.0853
-12.1107
-12.1452
-12.1857
-12.2301
-12.2764
-12.3232
-12.3693
-12.4142
-12.4572
-12.498
-12.5364
-12.5725
-12.6062
-12.6375
-12.6666
-12.6937
-12.7189
-12.7424
-12.7645
-12.7854
-12.8053
-12.8246
-12.8434
-12.8621
-12.881
-12.9004
-12.9207
-12.9421
-12.9649
-12.9894
-13.0158
-13.0444
-13.075
-13.1077
-13.1421
-13.1778
-13.2138
-13.2489
-13.2815
-13.3093
-13.3299
-13.3407
-13.3393
-13.3197
-13.2755
-12.2355
-12.1911
-12.1699
-12.1656
-12.1732
-12.1908
-12.2166
-12.2483
-12.2841
-12.3224
-12.362
-12.4017
-12.441
-12.4791
-12.5158
-12.5508
-12.5839
-12.615
-12.6443
-12.6716
-12.6972
-12.7212
-12.7436
-12.7647
-12.7847
-12.8038
-12.8223
-12.8403
-12.8582
-12.8761
-12.8945
-12.9135
-12.9334
-12.9544
-12.9768
-13.0008
-13.0263
-13.0534
-13.0818
-13.1113
-13.1414
-13.171
-13.1993
-13.2247
-13.2455
-13.2598
-13.2658
-13.2618
-13.2437
-13.2064
-12.3131
-12.2741
-12.254
-12.2476
-12.2509
-12.2628
-12.2819
-12.3066
-12.3354
-12.367
-12.4002
-12.4342
-12.4682
-12.5018
-12.5344
-12.5659
-12.596
-12.6245
-12.6515
-12.6769
-12.7008
-12.7233
-12.7445
-12.7644
-12.7834
-12.8014
-12.8189
-12.8359
-12.8528
-12.8696
-12.8868
-12.9044
-12.9228
-12.942
-12.9623
-12.9838
-13.0065
-13.0303
-13.055
-13.0802
-13.1054
-13.1299
-13.1527
-13.1725
-13.1881
-13.198
-13.2008
-13.1957
-13.1793
-13.1477
-12.3802
-12.3458
-12.327
-12.3194
-12.3199
-12.3277
-12.3417
-12.3608
-12.3838
-12.4096
-12.4374
-12.4662
-12.4955
-12.5248
-12.5536
-12.5816
-12.6086
-12.6345
-12.6591
-12.6825
-12.7045
-12.7254
-12.7451
-12.7637
-12.7814
-12.7983
-12.8146
-12.8305
-12.8462
-12.8619
-12.8777
-12.8939
-12.9106
-12.9281
-12.9464
-12.9656
-12.9856
-13.0064
-13.0277
-13.0492
-13.0704
-13.0906
-13.1089
-13.1245
-13.1363
-13.1431
-13.144
-13.1384
-13.1239
-13.0973
-12.4388
-12.4084
-12.3911
-12.383
-12.3815
-12.3863
-12.3964
-12.4111
-12.4293
-12.4503
-12.4733
-12.4976
-12.5226
-12.5478
-12.5729
-12.5976
-12.6216
-12.6448
-12.667
-12.6882
-12.7083
-12.7274
-12.7455
-12.7627
-12.779
-12.7946
-12.8097
-12.8243
-12.8387
-12.8531
-12.8675
-12.8823
-12.8974
-12.9131
-12.9294
-12.9463
-12.9639
-12.982
-13.0003
-13.0186
-13.0364
-13.0531
-13.068
-13.0803
-13.0892
-13.0938
-13.0936
-13.0881
-13.0755
-13.0531
-12.4903
-12.4636
-12.4477
-12.4396
-12.437
-12.4395
-12.4466
-12.4578
-12.4721
-12.489
-12.5079
-12.5281
-12.5492
-12.5707
-12.5924
-12.6139
-12.635
-12.6555
-12.6753
-12.6942
-12.7123
-12.7296
-12.7459
-12.7615
-12.7764
-12.7906
-12.8043
-12.8176
-12.8306
-12.8436
-12.8566
-12.8698
-12.8833
-12.8972
-12.9116
-12.9265
-12.9418
-12.9575
-12.9732
-12.9887
-13.0036
-13.0174
-13.0295
-13.0393
-13.0461
-13.0493
-13.0485
-13.0434
-13.0326
-13.014
-12.5361
-12.5127
-12.4984
-12.4905
-12.4871
-12.488
-12.4929
-12.5012
-12.5123
-12.5258
-12.541
-12.5577
-12.5753
-12.5934
-12.6119
-12.6303
-12.6486
-12.6664
-12.6838
-12.7005
-12.7165
-12.7318
-12.7464
-12.7604
-12.7736
-12.7863
-12.7986
-12.8105
-12.8221
-12.8336
-12.8451
-12.8568
-12.8687
-12.8809
-12.8935
-12.9064
-12.9196
-12.933
-12.9464
-12.9595
-12.9719
-12.9833
-12.9932
-13.001
-13.0063
-13.0086
-13.0076
-13.0032
-12.9941
-12.9788
-12.5772
-12.5567
-12.5439
-12.5365
-12.5327
-12.5326
-12.5357
-12.5417
-12.5502
-12.5607
-12.5729
-12.5864
-12.6008
-12.6159
-12.6313
-12.6469
-12.6624
-12.6777
-12.6926
-12.7071
-12.721
-12.7344
-12.7472
-12.7593
-12.771
-12.7821
-12.7928
-12.8032
-12.8134
-12.8234
-12.8334
-12.8435
-12.8538
-12.8643
-12.875
-12.8861
-12.8973
-12.9087
-12.9199
-12.9309
-12.9413
-12.9507
-12.9588
-12.9651
-12.9693
-12.971
-12.9701
-12.9664
-12.959
-12.9468
-12.6143
-12.5966
-12.5854
-12.5785
-12.5747
-12.5737
-12.5755
-12.5798
-12.586
-12.5941
-12.6036
-12.6142
-12.6258
-12.638
-12.6506
-12.6635
-12.6764
-12.6892
-12.7018
-12.7141
-12.7259
-12.7373
-12.7482
-12.7586
-12.7685
-12.7781
-12.7872
-12.796
-12.8046
-12.8131
-12.8216
-12.8301
-12.8387
-12.8475
-12.8565
-12.8657
-12.8751
-12.8846
-12.894
-12.9031
-12.9116
-12.9193
-12.9259
-12.9311
-12.9345
-12.9359
-12.9351
-12.9323
-12.9266
-12.9172
-12.6481
-12.6331
-12.6234
-12.6172
-12.6135
-12.6121
-12.6129
-12.6156
-12.6201
-12.626
-12.6331
-12.6413
-12.6503
-12.6599
-12.6699
-12.6802
-12.6907
-12.7011
-12.7114
-12.7215
-12.7312
-12.7406
-12.7497
-12.7583
-12.7665
-12.7743
-12.7818
-12.789
-12.796
-12.8029
-12.8098
-12.8167
-12.8236
-12.8308
-12.838
-12.8455
-12.8531
-12.8608
-12.8684
-12.8758
-12.8827
-12.889
-12.8943
-12.8985
-12.9013
-12.9026
-12.9022
-12.9003
-12.8962
-12.8895
-12.6793
-12.6668
-12.6586
-12.6532
-12.6498
-12.6481
-12.6481
-12.6497
-12.6526
-12.6566
-12.6617
-12.6677
-12.6743
-12.6815
-12.6891
-12.697
-12.7051
-12.7133
-12.7214
-12.7293
-12.737
-12.7445
-12.7516
-12.7584
-12.7649
-12.771
-12.7768
-12.7824
-12.7878
-12.793
-12.7982
-12.8034
-12.8087
-12.8141
-12.8197
-12.8254
-12.8313
-12.8372
-12.8432
-12.8489
-12.8544
-12.8593
-12.8636
-12.8671
-12.8695
-12.8707
-12.8708
-12.8698
-12.8673
-12.8631
-12.7083
-12.6983
-12.6916
-12.6871
-12.684
-12.6822
-12.6817
-12.6822
-12.6838
-12.6863
-12.6895
-12.6935
-12.698
-12.703
-12.7083
-12.714
-12.7199
-12.7258
-12.7318
-12.7376
-12.7434
-12.7489
-12.7541
-12.7591
-12.7638
-12.7682
-12.7723
-12.7762
-12.7799
-12.7835
-12.787
-12.7905
-12.7941
-12.7977
-12.8016
-12.8055
-12.8097
-12.8139
-12.8182
-12.8224
-12.8265
-12.8303
-12.8336
-12.8363
-12.8384
-12.8397
-12.8403
-12.8402
-12.8393
-12.8376
-12.7357
-12.7281
-12.7229
-12.7193
-12.7166
-12.7148
-12.7139
-12.7136
-12.7141
-12.7151
-12.7167
-12.7188
-12.7214
-12.7243
-12.7276
-12.7311
-12.7349
-12.7387
-12.7426
-12.7465
-12.7503
-12.7539
-12.7573
-12.7604
-12.7633
-12.766
-12.7684
-12.7705
-12.7725
-12.7744
-12.7761
-12.7779
-12.7797
-12.7816
-12.7836
-12.7858
-12.7882
-12.7907
-12.7934
-12.7961
-12.7988
-12.8014
-12.8038
-12.806
-12.8078
-12.8093
-12.8104
-12.8112
-12.8119
-12.8125
-12.762
-12.7567
-12.753
-12.7503
-12.7481
-12.7464
-12.7451
-12.7442
-12.7436
-12.7433
-12.7434
-12.7438
-12.7445
-12.7456
-12.7469
-12.7484
-12.7501
-12.752
-12.7539
-12.7559
-12.7577
-12.7595
-12.761
-12.7624
-12.7635
-12.7644
-12.7651
-12.7655
-12.7657
-12.7658
-12.7657
-12.7657
-12.7657
-12.7657
-12.7659
-12.7663
-12.7669
-12.7676
-12.7686
-12.7698
-12.7712
-12.7726
-12.7741
-12.7757
-12.7772
-12.7788
-12.7805
-12.7823
-12.7845
-12.7874
-12.7874
-12.7845
-12.7823
-12.7805
-12.7788
-12.7772
-12.7757
-12.7741
-12.7726
-12.7712
-12.7698
-12.7686
-12.7676
-12.7669
-12.7663
-12.7659
-12.7657
-12.7657
-12.7657
-12.7657
-12.7658
-12.7657
-12.7655
-12.7651
-12.7644
-12.7635
-12.7624
-12.761
-12.7595
-12.7577
-12.7559
-12.7539
-12.752
-12.7501
-12.7484
-12.7469
-12.7456
-12.7445
-12.7438
-12.7434
-12.7433
-12.7436
-12.7442
-12.7451
-12.7464
-12.7481
-12.7503
-12.753
-12.7567
-12.762
-12.8125
-12.8119
-12.8112
-12.8104
-12.8093
-12.8078
-12.806
-12.8038
-12.8014
-12.7988
-12.7961
-12.7934
-12.7907
-12.7882
-12.7858
-12.7836
-12.7816
-12.7797
-12.7779
-12.7761
-12.7744
-12.7725
-12.7705
-12.7684
-12.766
-12.7633
-12.7604
-12.7573
-12.7539
-12.7503
-12.7465
-12.7426
-12.7387
-12.7349
-12.7311
-12.7276
-12.7243
-12.7213
-12.7188
-12.7167
-12.7151
-12.7141
-12.7136
-12.7139
-12.7148
-12.7166
-12.7193
-12.7229
-12.7281
-12.7357
-12.8376
-12.8393
-12.8402
-12.8403
-12.8398
-12.8384
-12.8363
-12.8336
-12.8303
-12.8265
-12.8224
-12.8182
-12.8139
-12.8097
-12.8055
-12.8016
-12.7977
-12.7941
-12.7905
-12.787
-12.7835
-12.7799
-12.7762
-12.7723
-12.7682
-12.7638
-12.7591
-12.7541
-12.7489
-12.7434
-12.7376
-12.7318
-12.7258
-12.7199
-12.714
-12.7083
-12.703
-12.698
-12.6935
-12.6895
-12.6863
-12.6838
-12.6822
-12.6816
-12.6822
-12.684
-12.6871
-12.6916
-12.6983
-12.7083
-12.8631
-12.8673
-12.8698
-12.8708
-12.8707
-12.8695
-12.8671
-12.8636
-12.8593
-12.8544
-12.8489
-12.8432
-12.8372
-12.8313
-12.8254
-12.8197
-12.8141
-12.8087
-12.8034
-12.7982
-12.793
-12.7878
-12.7824
-12.7768
-12.771
-12.7649
-12.7584
-12.7516
-12.7445
-12.737
-12.7293
-12.7214
-12.7133
-12.7051
-12.697
-12.6891
-12.6815
-12.6743
-12.6677
-12.6617
-12.6566
-12.6526
-12.6497
-12.6481
-12.6481
-12.6497
-12.6532
-12.6586
-12.6668
-12.6793
-12.8895
-12.8962
-12.9003
-12.9022
-12.9026
-12.9013
-12.8985
-12.8943
-12.889
-12.8827
-12.8758
-12.8684
-12.8608
-12.8531
-12.8455
-12.838
-12.8308
-12.8236
-12.8167
-12.8098
-12.8029
-12.796
-12.789
-12.7818
-12.7743
-12.7665
-12.7583
-12.7497
-12.7406
-12.7312
-12.7215
-12.7114
-12.7011
-12.6907
-12.6802
-12.6699
-12.6599
-12.6503
-12.6413
-12.6331
-12.626
-12.6201
-12.6156
-12.6129
-12.6121
-12.6135
-12.6172
-12.6234
-12.6331
-12.6481
-12.9172
-12.9266
-12.9323
-12.9351
-12.9359
-12.9345
-12.9311
-12.9259
-12.9193
-12.9116
-12.9031
-12.894
-12.8846
-12.8751
-12.8657
-12.8565
-12.8475
-12.8387
-12.8301
-12.8216
-12.8131
-12.8046
-12.796
-12.7872
-12.778
-12.7685
-12.7586
-12.7482
-12.7373
-12.7259
-12.7141
-12.7018
-12.6892
-12.6764
-12.6635
-12.6506
-12.638
-12.6258
-12.6142
-12.6036
-12.5941
-12.586
-12.5798
-12.5755
-12.5737
-12.5747
-12.5785
-12.5854
-12.5966
-12.6143
-12.9468
-12.959
-12.9664
-12.9701
-12.971
-12.9693
-12.9651
-12.9588
-12.9507
-12.9413
-12.9309
-12.9199
-12.9087
-12.8973
-12.8861
-12.875
-12.8643
-12.8538
-12.8435
-12.8334
-12.8234
-12.8134
-12.8032
-12.7928
-12.7821
-12.771
-12.7593
-12.7472
-12.7344
-12.721
-12.7071
-12.6926
-12.6777
-12.6624
-12.6469
-12.6313
-12.6159
-12.6008
-12.5864
-12.5729
-12.5607
-12.5502
-12.5417
-12.5357
-12.5326
-12.5327
-12.5365
-12.5439
-12.5567
-12.5772
-12.9788
-12.9941
-13.0032
-13.0076
-13.0086
-13.0063
-13.001
-12.9932
-12.9833
-12.9719
-12.9595
-12.9464
-12.933
-12.9196
-12.9064
-12.8935
-12.8809
-12.8687
-12.8568
-12.8451
-12.8336
-12.8221
-12.8105
-12.7986
-12.7863
-12.7736
-12.7603
-12.7464
-12.7318
-12.7165
-12.7005
-12.6838
-12.6664
-12.6486
-12.6303
-12.6119
-12.5934
-12.5753
-12.5577
-12.541
-12.5258
-12.5123
-12.5012
-12.4929
-12.488
-12.4871
-12.4905
-12.4983
-12.5127
-12.5361
-13.014
-13.0326
-13.0434
-13.0485
-13.0493
-13.0461
-13.0393
-13.0295
-13.0174
-13.0036
-12.9887
-12.9732
-12.9575
-12.9418
-12.9265
-12.9116
-12.8972
-12.8833
-12.8698
-12.8566
-12.8436
-12.8306
-12.8176
-12.8043
-12.7906
-12.7763
-12.7615
-12.7459
-12.7295
-12.7123
-12.6942
-12.6753
-12.6555
-12.635
-12.6139
-12.5924
-12.5707
-12.5492
-12.5281
-12.5079
-12.489
-12.4721
-12.4577
-12.4466
-12.4395
-12.4369
-12.4396
-12.4477
-12.4636
-12.4903
-13.0531
-13.0755
-13.0881
-13.0936
-13.0938
-13.0892
-13.0803
-13.068
-13.0531
-13.0364
-13.0186
-13.0003
-12.982
-12.9639
-12.9463
-12.9294
-12.9131
-12.8974
-12.8823
-12.8675
-12.8531
-12.8387
-12.8243
-12.8097
-12.7946
-12.779
-12.7627
-12.7455
-12.7274
-12.7083
-12.6882
-12.667
-12.6448
-12.6216
-12.5976
-12.5729
-12.5478
-12.5226
-12.4976
-12.4733
-12.4503
-12.4293
-12.4111
-12.3964
-12.3863
-12.3815
-12.383
-12.3911
-12.4084
-12.4388
-13.0973
-13.1239
-13.1384
-13.144
-13.1431
-13.1363
-13.1245
-13.1089
-13.0906
-13.0704
-13.0492
-13.0277
-13.0064
-12.9856
-12.9656
-12.9464
-12.9281
-12.9106
-12.8939
-12.8777
-12.8619
-12.8462
-12.8305
-12.8146
-12.7983
-12.7814
-12.7637
-12.7451
-12.7254
-12.7045
-12.6825
-12.6591
-12.6345
-12.6086
-12.5816
-12.5536
-12.5248
-12.4955
-12.4662
-12.4374
-12.4096
-12.3838
-12.3608
-12.3417
-12.3276
-12.3199
-12.3194
-12.327
-12.3458
-12.3802
-13.1477
-13.1793
-13.1957
-13.2008
-13.198
-13.1881
-13.1725
-13.1527
-13.1299
-13.1054
-13.0802
-13.055
-13.0303
-13.0065
-12.9838
-12.9623
-12.942
-12.9227
-12.9044
-12.8868
-12.8696
-12.8528
-12.8359
-12.8189
-12.8014
-12.7834
-12.7644
-12.7445
-12.7233
-12.7008
-12.6769
-12.6515
-12.6245
-12.596
-12.5659
-12.5344
-12.5018
-12.4682
-12.4342
-12.4002
-12.367
-12.3354
-12.3066
-12.2819
-12.2628
-12.2509
-12.2476
-12.254
-12.2741
-12.3131
-13.2064
-13.2437
-13.2618
-13.2658
-13.2598
-13.2455
-13.2247
-13.1993
-13.171
-13.1414
-13.1113
-13.0818
-13.0534
-13.0263
-13.0008
-12.9768
-12.9544
-12.9334
-12.9135
-12.8945
-12.8761
-12.8582
-12.8403
-12.8223
-12.8038
-12.7847
-12.7647
-12.7436
-12.7212
-12.6972
-12.6716
-12.6443
-12.615
-12.5838
-12.5508
-12.5158
-12.4791
-12.441
-12.4017
-12.362
-12.3224
-12.2841
-12.2483
-12.2166
-12.1908
-12.1732
-12.1656
-12.1699
-12.1911
-12.2355
-13.2755
-13.3197
-13.3393
-13.3407
-13.3299
-13.3093
-13.2815
-13.2489
-13.2138
-13.1778
-13.1421
-13.1077
-13.075
-13.0444
-13.0158
-12.9894
-12.9649
-12.9421
-12.9207
-12.9004
-12.881
-12.8621
-12.8434
-12.8246
-12.8053
-12.7854
-12.7645
-12.7424
-12.7189
-12.6937
-12.6666
-12.6375
-12.6062
-12.5725
-12.5364
-12.498
-12.4572
-12.4142
-12.3693
-12.3232
-12.2764
-12.2301
-12.1857
-12.1452
-12.1107
-12.0853
-12.0715
-12.0721
-12.0939
-12.1445
-13.3587
-13.4111
-13.4312
-13.4281
-13.4099
-13.3804
-13.3431
-13.3013
-13.2576
-13.2141
-13.1719
-13.1319
-13.0946
-13.0601
-13.0285
-12.9995
-12.9729
-12.9485
-12.9257
-12.9044
-12.8841
-12.8644
-12.845
-12.8256
-12.8058
-12.7852
-12.7637
-12.7409
-12.7165
-12.6903
-12.662
-12.6313
-12.5981
-12.5622
-12.5233
-12.4814
-12.4364
-12.3884
-12.3376
-12.2844
-12.2294
-12.1738
-12.1191
-12.0674
-12.0217
-11.9855
-11.9626
-11.9572
-11.9784
-12.0365
-13.4607
-13.523
-13.5421
-13.531
-13.5015
-13.4594
-13.4094
-13.3558
-13.3018
-13.2492
-13.1996
-13.1534
-13.1112
-13.0727
-13.038
-13.0065
-12.9781
-12.9521
-12.9283
-12.906
-12.885
-12.8648
-12.845
-12.8252
-12.8051
-12.7842
-12.7623
-12.739
-12.7141
-12.6871
-12.6579
-12.626
-12.5912
-12.5533
-12.5118
-12.4667
-12.4176
-12.3646
-12.3075
-12.2466
-12.1826
-12.1162
-12.049
-11.9835
-11.9229
-11.8719
-11.8357
-11.8204
-11.8391
-11.906
-13.5894
-13.6629
-13.6776
-13.6529
-13.6064
-13.5465
-13.4798
-13.4114
-13.3447
-13.2818
-13.2238
-13.1711
-13.1237
-13.0813
-13.0436
-13.0099
-12.9797
-12.9526
-12.9279
-12.9051
-12.8837
-12.8632
-12.8433
-12.8234
-12.8032
-12.7823
-12.7603
-12.7369
-12.7117
-12.6844
-12.6545
-12.6218
-12.5858
-12.5462
-12.5026
-12.4545
-12.4016
-12.3436
-12.2802
-12.2113
-12.1372
-12.0585
-11.9767
-11.8939
-11.8141
-11.7427
-11.687
-11.6557
-11.6679
-11.7446
-13.7571
-13.8421
-13.8455
-13.798
-13.7259
-13.6413
-13.5527
-13.4659
-13.3844
-13.3098
-13.2428
-13.1833
-13.1309
-13.0848
-13.0444
-13.0089
-12.9775
-12.9495
-12.9243
-12.9013
-12.8798
-12.8595
-12.8397
-12.8201
-12.8002
-12.7796
-12.7579
-12.7347
-12.7096
-12.6823
-12.6522
-12.6191
-12.5824
-12.5416
-12.4962
-12.4457
-12.3894
-12.3268
-12.2572
-12.1802
-12.0955
-12.0032
-11.9042
-11.8005
-11.6958
-11.5967
-11.512
-11.4547
-11.4528
-11.539
-13.9853
-14.0775
-14.056
-13.9704
-13.8602
-13.7417
-13.625
-13.516
-13.4177
-13.3306
-13.2544
-13.1884
-13.1314
-13.0822
-13.0397
-13.0029
-12.9708
-12.9425
-12.9173
-12.8945
-12.8734
-12.8536
-12.8344
-12.8154
-12.7961
-12.7762
-12.7551
-12.7325
-12.708
-12.6811
-12.6513
-12.6183
-12.5814
-12.54
-12.4936
-12.4413
-12.3824
-12.3158
-12.2406
-12.1558
-12.0604
-11.9536
-11.8353
-11.7066
-11.5705
-11.4337
-11.3067
-11.207
-11.1761
-11.2661
-14.3133
-14.3947
-14.3208
-14.1726
-14.0063
-13.8424
-13.691
-13.5566
-13.4401
-13.3405
-13.2558
-13.1842
-13.1236
-13.0723
-13.0286
-12.9914
-12.9593
-12.9314
-12.9068
-12.8847
-12.8645
-12.8456
-12.8274
-12.8094
-12.7912
-12.7723
-12.7523
-12.7307
-12.7071
-12.6811
-12.6522
-12.6198
-12.5834
-12.5422
-12.4955
-12.4424
-12.3818
-12.3124
-12.2327
-12.1411
-12.0356
-11.9143
-11.7755
-11.6183
-11.4437
-11.2568
-11.0685
-10.9004
-10.811
-10.8845
-14.8132
-14.8315
-14.6515
-14.4021
-14.1558
-13.9336
-13.7417
-13.5802
-13.446
-13.3353
-13.2439
-13.1685
-13.106
-13.054
-13.0105
-12.9738
-12.9427
-12.916
-12.8927
-12.872
-12.8532
-12.8357
-12.819
-12.8025
-12.7857
-12.7683
-12.7497
-12.7296
-12.7074
-12.6828
-12.6553
-12.6242
-12.5889
-12.5487
-12.5028
-12.45
-12.389
-12.3184
-12.236
-12.1395
-12.0259
-11.8917
-11.7329
-11.5453
-11.326
-11.0754
-10.8002
-10.5229
-10.3184
-10.3183
-15.6162
-15.4384
-15.0559
-14.6495
-14.2934
-14.0004
-13.765
-13.5778
-13.4292
-13.3109
-13.2161
-13.1396
-13.0776
-13.0268
-12.985
-12.9503
-12.9212
-12.8965
-12.8752
-12.8565
-12.8397
-12.8242
-12.8094
-12.7948
-12.7799
-12.7643
-12.7476
-12.7294
-12.7092
-12.6865
-12.6608
-12.6317
-12.5983
-12.5601
-12.5159
-12.4648
-12.4052
-12.3353
-12.2527
-12.1543
-12.036
-11.8925
-11.7169
-11.5005
-11.2333
-10.9056
-10.5121
-10.0667
-9.64717
-9.43331
-17.0192
-16.2559
-15.5101
-14.8816
-14.3886
-14.0191
-13.7447
-13.5393
-13.3835
-13.2638
-13.1705
-13.0969
-13.0382
-12.991
-12.9526
-12.9212
-12.8952
-12.8734
-12.8549
-12.8389
-12.8246
-12.8115
-12.7991
-12.7868
-12.7742
-12.7609
-12.7464
-12.7305
-12.7126
-12.6923
-12.6691
-12.6425
-12.6118
-12.5763
-12.5351
-12.4871
-12.4306
-12.3638
-12.2841
-12.1878
-12.0701
-11.9238
-11.7391
-11.5016
-11.1914
-10.7807
-10.24
-9.55852
-8.75714
-7.92435
-19.8523
-17.2533
-15.833
-14.9444
-14.3338
-13.9194
-13.6361
-13.436
-13.2902
-13.1812
-13.098
-13.0334
-12.9825
-12.9421
-12.9097
-12.8836
-12.8623
-12.8448
-12.8302
-12.8178
-12.8069
-12.797
-12.7876
-12.7783
-12.7686
-12.7581
-12.7466
-12.7335
-12.7186
-12.7014
-12.6814
-12.6583
-12.6314
-12.6
-12.5633
-12.5203
-12.4695
-12.4093
-12.337
-12.2493
-12.141
-12.0046
-11.8285
-11.5945
-11.2723
-10.8116
-10.1432
-9.18264
-7.67551
-4.9553
-24.7212
-18.3365
-15.669
-14.5676
-13.967
-13.6081
-13.384
-13.2338
-13.1267
-13.0472
-12.9866
-12.9396
-12.9028
-12.8738
-12.8509
-12.8329
-12.8186
-12.8073
-12.7982
-12.7908
-12.7846
-12.7791
-12.7738
-12.7685
-12.7627
-12.7561
-12.7484
-12.7393
-12.7284
-12.7153
-12.6999
-12.6815
-12.6599
-12.6344
-12.6044
-12.5692
-12.5276
-12.4785
-12.4199
-12.3493
-12.263
-12.1553
-12.017
-11.8316
-11.5672
-11.1602
-10.4942
-9.2978
-6.51221
-9.89798e-06
)
;

boundaryField
{
    movingWallTop
    {
        type            zeroGradient;
    }
    movingWallBottom
    {
        type            zeroGradient;
    }
    fixedWalls
    {
        type            zeroGradient;
    }
    frontAndBack
    {
        type            empty;
    }
}


// ************************************************************************* //
