/*--------------------------------*- C++ -*----------------------------------*\
  =========                 |
  \\      /  F ield         | OpenFOAM: The Open Source CFD Toolbox
   \\    /   O peration     | Website:  https://openfoam.org
    \\  /    A nd           | Version:  7
     \\/     M anipulation  |
\*---------------------------------------------------------------------------*/
FoamFile
{
    version     2.0;
    format      ascii;
    class       volVectorField;
    location    "0.0498";
    object      U;
}
// * * * * * * * * * * * * * * * * * * * * * * * * * * * * * * * * * * * * * //

dimensions      [0 1 -1 0 0 0 0];

internalField   nonuniform List<vector> 
2500
(
(0.290247 -0.152408 0)
(0.389521 -0.128229 0)
(0.565402 -0.0747296 0)
(0.683229 -0.042231 0)
(0.752829 -0.0245316 0)
(0.797855 -0.0148926 0)
(0.829042 -0.00958652 0)
(0.851538 -0.00656417 0)
(0.868372 -0.00474072 0)
(0.881366 -0.00356624 0)
(0.891626 -0.0027625 0)
(0.899862 -0.00218409 0)
(0.90655 -0.00175112 0)
(0.912026 -0.00141718 0)
(0.916535 -0.00115361 0)
(0.920257 -0.000941751 0)
(0.923332 -0.000768814 0)
(0.925868 -0.000625671 0)
(0.927948 -0.000505568 0)
(0.92964 -0.000403345 0)
(0.930994 -0.00031494 0)
(0.932052 -0.000237062 0)
(0.932844 -0.000166959 0)
(0.933392 -0.000102262 0)
(0.933712 -4.08646e-05 0)
(0.933811 1.91911e-05 0)
(0.933692 7.9949e-05 0)
(0.93335 0.000143209 0)
(0.932773 0.000211006 0)
(0.931943 0.000285597 0)
(0.930835 0.000369563 0)
(0.929412 0.000465979 0)
(0.927627 0.000578648 0)
(0.925421 0.000712421 0)
(0.922716 0.00087369 0)
(0.919411 0.00107114 0)
(0.915375 0.00131696 0)
(0.910434 0.00162892 0)
(0.904353 0.00203408 0)
(0.896806 0.00257591 0)
(0.887327 0.00332841 0)
(0.875222 0.0044259 0)
(0.859403 0.00612701 0)
(0.838069 0.00895246 0)
(0.808166 0.0139622 0)
(0.764424 0.0232481 0)
(0.695911 0.0407724 0)
(0.57794 0.0737471 0)
(0.398044 0.128743 0)
(0.293867 0.153783 0)
(0.0010802 -0.294877 0)
(0.016843 -0.298601 0)
(0.152306 -0.213013 0)
(0.282848 -0.145329 0)
(0.388034 -0.0996511 0)
(0.471279 -0.0698321 0)
(0.536735 -0.0504865 0)
(0.588253 -0.0376916 0)
(0.629173 -0.0289356 0)
(0.662052 -0.0227169 0)
(0.688753 -0.0181451 0)
(0.710632 -0.0146821 0)
(0.728688 -0.0119926 0)
(0.743666 -0.00986012 0)
(0.756135 -0.00814009 0)
(0.766533 -0.00673222 0)
(0.775199 -0.00556474 0)
(0.782406 -0.00458466 0)
(0.788367 -0.00375174 0)
(0.793254 -0.00303455 0)
(0.797201 -0.00240794 0)
(0.800315 -0.00185115 0)
(0.802677 -0.00134661 0)
(0.804349 -0.000878972 0)
(0.805369 -0.000434371 0)
(0.805763 1.67611e-07 0)
(0.805534 0.000437367 0)
(0.804671 0.000889905 0)
(0.803145 0.00137124 0)
(0.800908 0.00189615 0)
(0.79789 0.00248146 0)
(0.793998 0.003147 0)
(0.78911 0.00391697 0)
(0.783069 0.00482174 0)
(0.775673 0.00590054 0)
(0.766665 0.00720543 0)
(0.755715 0.00880746 0)
(0.74239 0.0108063 0)
(0.726125 0.0133463 0)
(0.706164 0.0166437 0)
(0.681478 0.0210341 0)
(0.650652 0.0270595 0)
(0.611708 0.0356248 0)
(0.561876 0.048282 0)
(0.497423 0.0676901 0)
(0.413888 0.0981524 0)
(0.306369 0.14578 0)
(0.170539 0.217301 0)
(0.0269039 0.307194 0)
(0.00518437 0.303005 0)
(-0.0329206 -0.250371 0)
(-0.0615906 -0.344029 0)
(-0.0114824 -0.310594 0)
(0.0708474 -0.251547 0)
(0.158984 -0.196028 0)
(0.241539 -0.151462 0)
(0.314157 -0.117761 0)
(0.376141 -0.0926576 0)
(0.428389 -0.0738591 0)
(0.472251 -0.0595871 0)
(0.509063 -0.0485689 0)
(0.540002 -0.0399165 0)
(0.566049 -0.0330123 0)
(0.588008 -0.027423 0)
(0.606533 -0.0228393 0)
(0.622155 -0.0190358 0)
(0.635304 -0.0158451 0)
(0.646331 -0.0131396 0)
(0.655523 -0.01082 0)
(0.663112 -0.00880718 0)
(0.669284 -0.00703652 0)
(0.674189 -0.00545403 0)
(0.677941 -0.00401334 0)
(0.680627 -0.00267343 0)
(0.682304 -0.00139693 0)
(0.683006 -0.000148593 0)
(0.682739 0.00110591 0)
(0.681487 0.00240151 0)
(0.679207 0.00377492 0)
(0.675829 0.0052662 0)
(0.671252 0.0069207 0)
(0.665342 0.00879139 0)
(0.657925 0.0109421 0)
(0.64878 0.0134518 0)
(0.637629 0.0164206 0)
(0.62412 0.0199788 0)
(0.607816 0.0242994 0)
(0.588164 0.0296172 0)
(0.564468 0.0362579 0)
(0.535852 0.0446819 0)
(0.501212 0.0555516 0)
(0.459188 0.0698312 0)
(0.408163 0.0889235 0)
(0.346383 0.114827 0)
(0.272418 0.150186 0)
(0.186396 0.197765 0)
(0.0923508 0.258099 0)
(0.00189414 0.323335 0)
(-0.0569149 0.361556 0)
(-0.032168 0.263989 0)
(-0.0267688 -0.190605 0)
(-0.0654129 -0.332999 0)
(-0.0645127 -0.351509 0)
(-0.0274276 -0.319271 0)
(0.0297344 -0.272027 0)
(0.0938929 -0.225496 0)
(0.157358 -0.185152 0)
(0.216328 -0.151906 0)
(0.269283 -0.125027 0)
(0.315932 -0.103387 0)
(0.356572 -0.0859074 0)
(0.391743 -0.0716891 0)
(0.422057 -0.0600259 0)
(0.448105 -0.0503738 0)
(0.470427 -0.0423154 0)
(0.4895 -0.0355295 0)
(0.505733 -0.0297656 0)
(0.519478 -0.0248257 0)
(0.531032 -0.0205511 0)
(0.540641 -0.0168116 0)
(0.548509 -0.0134988 0)
(0.554802 -0.01052 0)
(0.559649 -0.00779433 0)
(0.563146 -0.00524942 0)
(0.565359 -0.00281842 0)
(0.566324 -0.000437835 0)
(0.56605 0.00195466 0)
(0.564514 0.00442238 0)
(0.561665 0.00703184 0)
(0.557418 0.0098553 0)
(0.551656 0.0129738 0)
(0.544222 0.0164809 0)
(0.534917 0.0204876 0)
(0.523492 0.0251288 0)
(0.509639 0.030572 0)
(0.492986 0.037029 0)
(0.473082 0.0447723 0)
(0.449387 0.0541571 0)
(0.421266 0.0656517 0)
(0.387987 0.0798761 0)
(0.348746 0.0976493 0)
(0.302742 0.120033 0)
(0.249348 0.148336 0)
(0.188478 0.183992 0)
(0.121295 0.228074 0)
(0.0514718 0.2799 0)
(-0.0129468 0.333732 0)
(-0.0577407 0.372271 0)
(-0.0646496 0.355964 0)
(-0.0272817 0.204815 0)
(-0.0178437 -0.149168 0)
(-0.0530886 -0.302944 0)
(-0.073587 -0.354907 0)
(-0.066531 -0.350295 0)
(-0.037336 -0.319646 0)
(0.00478539 -0.280317 0)
(0.0526253 -0.240891 0)
(0.101422 -0.204987 0)
(0.148333 -0.173715 0)
(0.191857 -0.147047 0)
(0.231341 -0.124509 0)
(0.266632 -0.105505 0)
(0.29785 -0.0894595 0)
(0.32525 -0.0758656 0)
(0.349148 -0.0642953 0)
(0.369868 -0.0543939 0)
(0.387723 -0.0458684 0)
(0.403002 -0.038476 0)
(0.415961 -0.032014 0)
(0.426823 -0.0263107 0)
(0.435778 -0.021219 0)
(0.442983 -0.01661 0)
(0.448563 -0.0123692 0)
(0.452611 -0.00839184 0)
(0.455193 -0.00458032 0)
(0.456342 -0.000840864 0)
(0.456062 0.00291911 0)
(0.454329 0.00679378 0)
(0.451086 0.0108819 0)
(0.446245 0.0152899 0)
(0.439682 0.0201361 0)
(0.431237 0.0255549 0)
(0.420711 0.0317031 0)
(0.40786 0.0387666 0)
(0.392396 0.0469702 0)
(0.373981 0.0565887 0)
(0.352231 0.0679613 0)
(0.326721 0.0815086 0)
(0.297006 0.0977499 0)
(0.262658 0.117318 0)
(0.223347 0.140954 0)
(0.178985 0.169466 0)
(0.129977 0.203578 0)
(0.0776315 0.243563 0)
(0.0247566 0.288444 0)
(-0.0235664 0.334397 0)
(-0.0593089 0.371875 0)
(-0.0718907 0.381285 0)
(-0.0543016 0.328231 0)
(-0.0186389 0.162497 0)
(-0.011422 -0.120921 0)
(-0.0402451 -0.269973 0)
(-0.0678054 -0.34018 0)
(-0.0777154 -0.357367 0)
(-0.0688622 -0.344084 0)
(-0.0460383 -0.315823 0)
(-0.0144263 -0.281969 0)
(0.0217071 -0.24767 0)
(0.0592484 -0.215456 0)
(0.0961348 -0.186364 0)
(0.131112 -0.160645 0)
(0.163491 -0.138161 0)
(0.192957 -0.118611 0)
(0.219427 -0.101645 0)
(0.242961 -0.0869106 0)
(0.263696 -0.0740872 0)
(0.281808 -0.0628858 0)
(0.297484 -0.0530522 0)
(0.310909 -0.0443631 0)
(0.322254 -0.0366217 0)
(0.331671 -0.0296532 0)
(0.339291 -0.0233004 0)
(0.34522 -0.0174196 0)
(0.349539 -0.0118775 0)
(0.3523 -0.00654753 0)
(0.353533 -0.00130688 0)
(0.353237 0.00396642 0)
(0.351383 0.0093966 0)
(0.347916 0.0151135 0)
(0.34275 0.0212561 0)
(0.335768 0.0279766 0)
(0.326822 0.0354454 0)
(0.315735 0.0438563 0)
(0.302297 0.0534334 0)
(0.286271 0.0644381 0)
(0.267401 0.0771775 0)
(0.24542 0.0920114 0)
(0.220078 0.109357 0)
(0.191176 0.129688 0)
(0.158638 0.15351 0)
(0.122612 0.181308 0)
(0.0836355 0.213418 0)
(0.042869 0.249773 0)
(0.00241095 0.289419 0)
(-0.034369 0.329676 0)
(-0.0626241 0.364786 0)
(-0.0762449 0.383982 0)
(-0.0693279 0.369427 0)
(-0.0422712 0.295399 0)
(-0.0121777 0.133017 0)
(-0.0074666 -0.10093 0)
(-0.0304188 -0.239714 0)
(-0.0585997 -0.318116 0)
(-0.0769213 -0.350283 0)
(-0.0812961 -0.351754 0)
(-0.0732408 -0.335008 0)
(-0.0557734 -0.308796 0)
(-0.0320529 -0.278736 0)
(-0.00481039 -0.248164 0)
(0.0238546 -0.218905 0)
(0.0524517 -0.191847 0)
(0.0799886 -0.167326 0)
(0.105848 -0.145371 0)
(0.129682 -0.125848 0)
(0.151324 -0.108545 0)
(0.170731 -0.0932245 0)
(0.187933 -0.0796423 0)
(0.203007 -0.0675652 0)
(0.216051 -0.0567739 0)
(0.227169 -0.0470652 0)
(0.236463 -0.0382505 0)
(0.244026 -0.0301546 0)
(0.249934 -0.022613 0)
(0.254246 -0.0154694 0)
(0.257002 -0.00857316 0)
(0.258218 -0.00177643 0)
(0.25789 0.00506863 0)
(0.255988 0.0121128 0)
(0.252459 0.0195129 0)
(0.247227 0.0274352 0)
(0.240192 0.0360593 0)
(0.231232 0.045582 0)
(0.220204 0.0562214 0)
(0.206954 0.0682214 0)
(0.191319 0.0818552 0)
(0.173147 0.0974271 0)
(0.152311 0.115271 0)
(0.128751 0.135738 0)
(0.102516 0.159177 0)
(0.0738458 0.185874 0)
(0.043269 0.215964 0)
(0.0117441 0.249247 0)
(-0.0191734 0.284896 0)
(-0.0471657 0.320978 0)
(-0.0690802 0.353752 0)
(-0.081118 0.37673 0)
(-0.0794827 0.379671 0)
(-0.0619887 0.34802 0)
(-0.0327264 0.263952 0)
(-0.00812238 0.111682 0)
(-0.00513015 -0.0862735 0)
(-0.023519 -0.213428 0)
(-0.0498627 -0.293928 0)
(-0.0717109 -0.335358 0)
(-0.0840902 -0.348071 0)
(-0.0865321 -0.341563 0)
(-0.0803339 -0.323322 0)
(-0.0674862 -0.298737 0)
(-0.0500633 -0.271421 0)
(-0.0298864 -0.243655 0)
(-0.00840778 -0.216789 0)
(0.0132866 -0.191558 0)
(0.0344263 -0.1683 0)
(0.0544919 -0.147113 0)
(0.0731544 -0.127951 0)
(0.0902226 -0.110688 0)
(0.105602 -0.0951552 0)
(0.119264 -0.0811635 0)
(0.13122 -0.0685192 0)
(0.141506 -0.0570295 0)
(0.150168 -0.0465063 0)
(0.157255 -0.0367676 0)
(0.16281 -0.0276371 0)
(0.166868 -0.0189433 0)
(0.169449 -0.010518 0)
(0.17056 -0.00219373 0)
(0.170189 0.00619751 0)
(0.168308 0.0148274 0)
(0.164871 0.0238735 0)
(0.159815 0.0335223 0)
(0.153065 0.0439712 0)
(0.14453 0.0554319 0)
(0.134117 0.068132 0)
(0.121733 0.0823157 0)
(0.1073 0.098243 0)
(0.0907727 0.116184 0)
(0.0721662 0.136408 0)
(0.0515913 0.159156 0)
(0.0293066 0.184602 0)
(0.00578493 0.212777 0)
(-0.0182027 0.243449 0)
(-0.0414948 0.27593 0)
(-0.0624553 0.308801 0)
(-0.0789424 0.339507 0)
(-0.0884201 0.36386 0)
(-0.0883403 0.375506 0)
(-0.0768817 0.365576 0)
(-0.0542589 0.322937 0)
(-0.025886 0.235743 0)
(-0.00569889 0.0956814 0)
(-0.00373271 -0.0750726 0)
(-0.018753 -0.19086 0)
(-0.0426148 -0.269986 0)
(-0.0654459 -0.316465 0)
(-0.0823926 -0.3371 0)
(-0.0919654 -0.338901 0)
(-0.0942901 -0.327964 0)
(-0.0903799 -0.309094 0)
(-0.0816216 -0.28582 0)
(-0.069424 -0.260594 0)
(-0.0550388 -0.235038 0)
(-0.0394949 -0.210168 0)
(-0.0235925 -0.186578 0)
(-0.00792726 -0.164574 0)
(0.00707508 -0.144272 0)
(0.021123 -0.125668 0)
(0.034027 -0.108679 0)
(0.0456716 -0.0931782 0)
(0.0559942 -0.0790112 0)
(0.0649672 -0.0660091 0)
(0.0725847 -0.0539962 0)
(0.0788525 -0.0427941 0)
(0.0837806 -0.0322238 0)
(0.0873772 -0.0221065 0)
(0.0896452 -0.0122633 0)
(0.0905789 -0.00251447 0)
(0.0901629 0.00732199 0)
(0.088371 0.0174317 0)
(0.0851671 0.0280055 0)
(0.0805063 0.0392411 0)
(0.0743383 0.0513444 0)
(0.0666119 0.0645296 0)
(0.0572824 0.0790188 0)
(0.0463221 0.0950392 0)
(0.0337347 0.112817 0)
(0.0195758 0.132563 0)
(0.00397945 0.154457 0)
(-0.0128066 0.178607 0)
(-0.0303771 0.204999 0)
(-0.048118 0.233411 0)
(-0.0651528 0.263287 0)
(-0.0802985 0.293566 0)
(-0.0920546 0.322441 0)
(-0.0986663 0.347076 0)
(-0.0983318 0.363295 0)
(-0.0896303 0.365363 0)
(-0.0721671 0.346029 0)
(-0.0474814 0.297096 0)
(-0.0210749 0.210883 0)
(-0.00423318 0.0831856 0)
(-0.00286634 -0.0661462 0)
(-0.0154318 -0.17137 0)
(-0.0368964 -0.24723 0)
(-0.059495 -0.295825 0)
(-0.0788855 -0.321628 0)
(-0.0931605 -0.329742 0)
(-0.101733 -0.324989 0)
(-0.104893 -0.31147 0)
(-0.10343 -0.292423 0)
(-0.098325 -0.270268 0)
(-0.0905569 -0.246738 0)
(-0.0810091 -0.223015 0)
(-0.0704247 -0.199873 0)
(-0.0594006 -0.177782 0)
(-0.0483985 -0.157001 0)
(-0.0377639 -0.137638 0)
(-0.0277478 -0.119701 0)
(-0.0185267 -0.103127 0)
(-0.0102211 -0.0878115 0)
(-0.0029104 -0.0736168 0)
(0.00335475 -0.0603887 0)
(0.00854256 -0.0479609 0)
(0.0126325 -0.0361596 0)
(0.0156096 -0.024806 0)
(0.0174599 -0.0137179 0)
(0.0181679 -0.00270999 0)
(0.0177151 0.00840659 0)
(0.0160792 0.0198242 0)
(0.013235 0.0317391 0)
(0.00915684 0.0443518 0)
(0.00382207 0.0578664 0)
(-0.00278306 0.0724887 0)
(-0.0106552 0.0884229 0)
(-0.0197626 0.105865 0)
(-0.0300302 0.124992 0)
(-0.0413205 0.145944 0)
(-0.0534091 0.168797 0)
(-0.0659559 0.193524 0)
(-0.0784729 0.219931 0)
(-0.0902921 0.24758 0)
(-0.100542 0.275668 0)
(-0.108142 0.302886 0)
(-0.111849 0.327241 0)
(-0.110365 0.345871 0)
(-0.102579 0.354901 0)
(-0.0879514 0.349416 0)
(-0.0670068 0.323695 0)
(-0.0418892 0.271844 0)
(-0.0176484 0.188951 0)
(-0.00331016 0.0730333 0)
(-0.00230589 -0.0587637 0)
(-0.0130772 -0.154312 0)
(-0.0324701 -0.225909 0)
(-0.0543262 -0.274638 0)
(-0.074905 -0.303465 0)
(-0.0922158 -0.316094 0)
(-0.105284 -0.316285 0)
(-0.113909 -0.307443 0)
(-0.118412 -0.292424 0)
(-0.119388 -0.273494 0)
(-0.117537 -0.252372 0)
(-0.113555 -0.230313 0)
(-0.108079 -0.208194 0)
(-0.101653 -0.186604 0)
(-0.0947285 -0.16591 0)
(-0.0876654 -0.146318 0)
(-0.0807436 -0.127915 0)
(-0.0741764 -0.110703 0)
(-0.0681228 -0.0946254 0)
(-0.0627 -0.0795828 0)
(-0.0579929 -0.0654471 0)
(-0.0540634 -0.05207 0)
(-0.050957 -0.039289 0)
(-0.048708 -0.0269322 0)
(-0.047344 -0.0148202 0)
(-0.0468878 -0.00276841 0)
(-0.0473595 0.00941191 0)
(-0.0487764 0.0219129 0)
(-0.0511518 0.0349289 0)
(-0.0544926 0.0486552 0)
(-0.0587949 0.0632855 0)
(-0.0640383 0.0790083 0)
(-0.0701774 0.0960002 0)
(-0.0771307 0.114417 0)
(-0.0847676 0.134379 0)
(-0.0928911 0.155948 0)
(-0.101219 0.179101 0)
(-0.109363 0.203683 0)
(-0.11681 0.229353 0)
(-0.122908 0.255503 0)
(-0.126865 0.281169 0)
(-0.127778 0.304915 0)
(-0.124703 0.324715 0)
(-0.116788 0.337861 0)
(-0.103492 0.340918 0)
(-0.0849067 0.329816 0)
(-0.0620889 0.300147 0)
(-0.0373606 0.247725 0)
(-0.0151478 0.169444 0)
(-0.00269896 0.0645083 0)
(-0.00192829 -0.0524623 0)
(-0.0113763 -0.139141 0)
(-0.0290631 -0.205974 0)
(-0.0500221 -0.253511 0)
(-0.0710754 -0.283745 0)
(-0.0903145 -0.299381 0)
(-0.106585 -0.30333 0)
(-0.119378 -0.298374 0)
(-0.128669 -0.286971 0)
(-0.134738 -0.271165 0)
(-0.138028 -0.252587 0)
(-0.139045 -0.232485 0)
(-0.138292 -0.211783 0)
(-0.136233 -0.191137 0)
(-0.133275 -0.170991 0)
(-0.129762 -0.151624 0)
(-0.125978 -0.13319 0)
(-0.122148 -0.115748 0)
(-0.118454 -0.0992869 0)
(-0.115034 -0.0837455 0)
(-0.111999 -0.069024 0)
(-0.10943 -0.0549955 0)
(-0.107391 -0.0415136 0)
(-0.105932 -0.0284178 0)
(-0.105089 -0.015537 0)
(-0.10489 -0.00269334 0)
(-0.105355 0.0102963 0)
(-0.106496 0.0236175 0)
(-0.108313 0.0374563 0)
(-0.110797 0.0519961 0)
(-0.113921 0.0674136 0)
(-0.117634 0.083873 0)
(-0.121859 0.101518 0)
(-0.126476 0.120459 0)
(-0.131316 0.140757 0)
(-0.136147 0.162402 0)
(-0.14066 0.185278 0)
(-0.144457 0.209127 0)
(-0.147044 0.233491 0)
(-0.147833 0.257654 0)
(-0.14616 0.280564 0)
(-0.141328 0.300755 0)
(-0.13269 0.316284 0)
(-0.119778 0.324692 0)
(-0.102493 0.323033 0)
(-0.0813444 0.308013 0)
(-0.0576543 0.276284 0)
(-0.0336965 0.224899 0)
(-0.0132722 0.151913 0)
(-0.0022735 0.0571597 0)
(-0.0016649 -0.0469382 0)
(-0.0101261 -0.125428 0)
(-0.0264398 -0.187267 0)
(-0.0465158 -0.232723 0)
(-0.0676556 -0.263168 0)
(-0.0881014 -0.280589 0)
(-0.106644 -0.287242 0)
(-0.122593 -0.285381 0)
(-0.135683 -0.277083 0)
(-0.145952 -0.264151 0)
(-0.153623 -0.248078 0)
(-0.159023 -0.230059 0)
(-0.16252 -0.211014 0)
(-0.164482 -0.191626 0)
(-0.165255 -0.172384 0)
(-0.165144 -0.153618 0)
(-0.164415 -0.13553 0)
(-0.163292 -0.118227 0)
(-0.16196 -0.101739 0)
(-0.160569 -0.0860373 0)
(-0.159239 -0.0710511 0)
(-0.158066 -0.0566767 0)
(-0.157126 -0.0427862 0)
(-0.156476 -0.0292338 0)
(-0.15616 -0.0158611 0)
(-0.156207 -0.00250111 0)
(-0.156636 0.0110185 0)
(-0.157451 0.0248718 0)
(-0.158642 0.0392315 0)
(-0.160186 0.0542638 0)
(-0.162035 0.070124 0)
(-0.164119 0.0869483 0)
(-0.166333 0.104844 0)
(-0.168536 0.123878 0)
(-0.170536 0.144054 0)
(-0.172088 0.165298 0)
(-0.172883 0.187419 0)
(-0.172542 0.210078 0)
(-0.170625 0.232743 0)
(-0.166636 0.254637 0)
(-0.160059 0.274684 0)
(-0.150404 0.291465 0)
(-0.137291 0.303187 0)
(-0.120566 0.307683 0)
(-0.100448 0.302483 0)
(-0.0777021 0.284965 0)
(-0.0537508 0.252609 0)
(-0.0307118 0.203351 0)
(-0.0118281 0.135992 0)
(-0.00196397 0.0506926 0)
(-0.00147604 -0.0419845 0)
(-0.00919377 -0.112841 0)
(-0.0244147 -0.169598 0)
(-0.0436935 -0.21238 0)
(-0.0647226 -0.242151 0)
(-0.0859123 -0.26039 0)
(-0.106067 -0.26885 0)
(-0.124399 -0.26935 0)
(-0.140486 -0.263626 0)
(-0.15418 -0.253238 0)
(-0.165531 -0.239527 0)
(-0.174709 -0.223596 0)
(-0.181953 -0.20633 0)
(-0.187534 -0.188407 0)
(-0.191725 -0.170333 0)
(-0.194783 -0.152466 0)
(-0.196943 -0.135043 0)
(-0.19841 -0.118204 0)
(-0.199363 -0.102011 0)
(-0.199951 -0.0864671 0)
(-0.200297 -0.0715264 0)
(-0.200503 -0.0571078 0)
(-0.200648 -0.043103 0)
(-0.200794 -0.0293833 0)
(-0.200987 -0.0158056 0)
(-0.201256 -0.00221716 0)
(-0.201616 0.01154 0)
(-0.202065 0.0256249 0)
(-0.202586 0.0401929 0)
(-0.20314 0.0553902 0)
(-0.203668 0.0713479 0)
(-0.204082 0.0881728 0)
(-0.204266 0.105937 0)
(-0.204064 0.124665 0)
(-0.20328 0.144314 0)
(-0.201673 0.164754 0)
(-0.198952 0.185739 0)
(-0.194785 0.206878 0)
(-0.1888 0.227597 0)
(-0.18061 0.247102 0)
(-0.169848 0.264345 0)
(-0.156216 0.278001 0)
(-0.139561 0.28646 0)
(-0.119969 0.287858 0)
(-0.0978801 0.280161 0)
(-0.0741985 0.261299 0)
(-0.0503505 0.22939 0)
(-0.028258 0.182994 0)
(-0.0106905 0.121393 0)
(-0.0017305 0.044906 0)
(-0.00133772 -0.0374562 0)
(-0.0084904 -0.101125 0)
(-0.0228463 -0.152787 0)
(-0.0414374 -0.192494 0)
(-0.0622678 -0.220939 0)
(-0.0839078 -0.239239 0)
(-0.105209 -0.248762 0)
(-0.125343 -0.250972 0)
(-0.143784 -0.247312 0)
(-0.160255 -0.239115 0)
(-0.174665 -0.227559 0)
(-0.187054 -0.213645 0)
(-0.19755 -0.198194 0)
(-0.206328 -0.181859 0)
(-0.213588 -0.165139 0)
(-0.219531 -0.148403 0)
(-0.224354 -0.131905 0)
(-0.228237 -0.115808 0)
(-0.231341 -0.100199 0)
(-0.233805 -0.0851039 0)
(-0.235749 -0.0704997 0)
(-0.237272 -0.0563265 0)
(-0.238453 -0.0424951 0)
(-0.239355 -0.0288948 0)
(-0.240021 -0.0153992 0)
(-0.24048 -0.00187206 0)
(-0.240741 0.011828 0)
(-0.240797 0.0258424 0)
(-0.240622 0.0403071 0)
(-0.24017 0.0553469 0)
(-0.239372 0.0710678 0)
(-0.238132 0.0875482 0)
(-0.236326 0.104828 0)
(-0.233799 0.122895 0)
(-0.230362 0.141667 0)
(-0.225791 0.160976 0)
(-0.219833 0.180538 0)
(-0.212206 0.199933 0)
(-0.202624 0.218577 0)
(-0.19081 0.235694 0)
(-0.176536 0.250299 0)
(-0.159673 0.261187 0)
(-0.140251 0.266947 0)
(-0.118535 0.266005 0)
(-0.0951068 0.2567 0)
(-0.0709377 0.237419 0)
(-0.0474019 0.206756 0)
(-0.0262225 0.163715 0)
(-0.0097777 0.107886 0)
(-0.00154936 0.0396576 0)
(-0.00123482 -0.0332492 0)
(-0.00795505 -0.0900873 0)
(-0.0216282 -0.136675 0)
(-0.0396421 -0.173033 0)
(-0.060246 -0.199671 0)
(-0.0821523 -0.217442 0)
(-0.104274 -0.227419 0)
(-0.125772 -0.230782 0)
(-0.14606 -0.228721 0)
(-0.164769 -0.222364 0)
(-0.181702 -0.212733 0)
(-0.196794 -0.200717 0)
(-0.210074 -0.187061 0)
(-0.221632 -0.172374 0)
(-0.231598 -0.157134 0)
(-0.24012 -0.141702 0)
(-0.247348 -0.126339 0)
(-0.253433 -0.111219 0)
(-0.258513 -0.096445 0)
(-0.262712 -0.08206 0)
(-0.26614 -0.0680602 0)
(-0.268889 -0.0544038 0)
(-0.271033 -0.0410199 0)
(-0.272632 -0.0278152 0)
(-0.273725 -0.0146808 0)
(-0.274337 -0.00149794 0)
(-0.274472 0.011857 0)
(-0.274119 0.0255066 0)
(-0.273246 0.039567 0)
(-0.271801 0.0541409 0)
(-0.269709 0.0693107 0)
(-0.266873 0.0851287 0)
(-0.26317 0.101607 0)
(-0.258452 0.118704 0)
(-0.252547 0.13631 0)
(-0.24526 0.154229 0)
(-0.236379 0.172159 0)
(-0.225688 0.189676 0)
(-0.212982 0.206207 0)
(-0.19809 0.22102 0)
(-0.180911 0.233214 0)
(-0.161456 0.241721 0)
(-0.139898 0.245325 0)
(-0.116631 0.242714 0)
(-0.0923238 0.23255 0)
(-0.0679649 0.213578 0)
(-0.0448516 0.184757 0)
(-0.024522 0.145398 0)
(-0.00903486 0.0952919 0)
(-0.00140586 0.0348424 0)
(-0.00115741 -0.0292867 0)
(-0.00754504 -0.0795758 0)
(-0.0206805 -0.121127 0)
(-0.0382187 -0.153947 0)
(-0.0586004 -0.17842 0)
(-0.0806592 -0.195204 0)
(-0.103371 -0.205144 0)
(-0.125905 -0.20919 0)
(-0.147641 -0.20832 0)
(-0.168146 -0.203478 0)
(-0.187145 -0.195538 0)
(-0.204489 -0.185277 0)
(-0.220124 -0.17336 0)
(-0.234068 -0.160338 0)
(-0.246385 -0.146655 0)
(-0.257169 -0.132656 0)
(-0.26653 -0.118593 0)
(-0.274583 -0.104645 0)
(-0.281441 -0.0909216 0)
(-0.287209 -0.0774778 0)
(-0.291984 -0.064324 0)
(-0.295846 -0.0514338 0)
(-0.298863 -0.0387524 0)
(-0.301088 -0.0262033 0)
(-0.302554 -0.0136948 0)
(-0.303282 -0.00112528 0)
(-0.303272 0.0116105 0)
(-0.302507 0.0246165 0)
(-0.300952 0.037989 0)
(-0.298551 0.0518103 0)
(-0.295229 0.0661408 0)
(-0.290891 0.0810107 0)
(-0.285422 0.0964095 0)
(-0.278687 0.112275 0)
(-0.270536 0.128478 0)
(-0.260809 0.144811 0)
(-0.249343 0.16097 0)
(-0.235984 0.176541 0)
(-0.220608 0.190984 0)
(-0.20314 0.203628 0)
(-0.183589 0.213669 0)
(-0.162078 0.220177 0)
(-0.138891 0.222123 0)
(-0.11451 0.218428 0)
(-0.0896528 0.20802 0)
(-0.0652964 0.189931 0)
(-0.0426526 0.163391 0)
(-0.0230956 0.12793 0)
(-0.00842468 0.0834622 0)
(-0.00129053 0.0303807 0)
(-0.00109877 -0.0255116 0)
(-0.00722997 -0.0694745 0)
(-0.0199433 -0.10603 0)
(-0.0370948 -0.135182 0)
(-0.0572745 -0.157223 0)
(-0.0794163 -0.172665 0)
(-0.102555 -0.182174 0)
(-0.125877 -0.186515 0)
(-0.148747 -0.186483 0)
(-0.170688 -0.182863 0)
(-0.191366 -0.176394 0)
(-0.210568 -0.167741 0)
(-0.228173 -0.157485 0)
(-0.244135 -0.146116 0)
(-0.258463 -0.134035 0)
(-0.271201 -0.121559 0)
(-0.282418 -0.108927 0)
(-0.292196 -0.0963102 0)
(-0.300621 -0.08382 0)
(-0.307779 -0.0715182 0)
(-0.313749 -0.0594246 0)
(-0.3186 -0.0475251 0)
(-0.322389 -0.0357789 0)
(-0.325162 -0.0241246 0)
(-0.326947 -0.0124866 0)
(-0.327757 -0.000780381 0)
(-0.327589 0.0110821 0)
(-0.326422 0.0231866 0)
(-0.324218 0.0356111 0)
(-0.320922 0.0484189 0)
(-0.31646 0.0616521 0)
(-0.310742 0.0753227 0)
(-0.303665 0.0894041 0)
(-0.295113 0.10382 0)
(-0.284961 0.118435 0)
(-0.273086 0.133038 0)
(-0.259374 0.147338 0)
(-0.243732 0.160945 0)
(-0.226109 0.173366 0)
(-0.206515 0.184004 0)
(-0.185049 0.192154 0)
(-0.161927 0.197024 0)
(-0.137512 0.197756 0)
(-0.112347 0.193472 0)
(-0.0871713 0.183323 0)
(-0.0629354 0.166564 0)
(-0.0407668 0.14263 0)
(-0.0218989 0.111203 0)
(-0.00792132 0.0722751 0)
(-0.00119707 0.0262095 0)
(-0.0010542 -0.0218802 0)
(-0.00698786 -0.0596922 0)
(-0.0193712 -0.0912921 0)
(-0.0362125 -0.116683 0)
(-0.0562171 -0.136092 0)
(-0.0784007 -0.149917 0)
(-0.10185 -0.158684 0)
(-0.125773 -0.163001 0)
(-0.149526 -0.163512 0)
(-0.172606 -0.160861 0)
(-0.194638 -0.155661 0)
(-0.215355 -0.148474 0)
(-0.234586 -0.139795 0)
(-0.252232 -0.13005 0)
(-0.268252 -0.119592 0)
(-0.282647 -0.108702 0)
(-0.29545 -0.0976 0)
(-0.30671 -0.0864433 0)
(-0.316489 -0.0753395 0)
(-0.324851 -0.0643515 0)
(-0.331858 -0.0535047 0)
(-0.337566 -0.0427943 0)
(-0.342024 -0.0321908 0)
(-0.345265 -0.0216465 0)
(-0.347314 -0.0111004 0)
(-0.348176 -0.000483642 0)
(-0.347846 0.0102754 0)
(-0.346299 0.021246 0)
(-0.343496 0.0324892 0)
(-0.339382 0.0440523 0)
(-0.333889 0.0559622 0)
(-0.326936 0.0682176 0)
(-0.318431 0.0807815 0)
(-0.308278 0.0935722 0)
(-0.296381 0.106454 0)
(-0.282654 0.119227 0)
(-0.267027 0.131619 0)
(-0.249465 0.143278 0)
(-0.229982 0.153769 0)
(-0.208659 0.16257 0)
(-0.185669 0.169081 0)
(-0.161298 0.172639 0)
(-0.135971 0.172542 0)
(-0.110266 0.168082 0)
(-0.0849299 0.158596 0)
(-0.0608793 0.143515 0)
(-0.0391642 0.122425 0)
(-0.0208995 0.0951178 0)
(-0.0075067 0.0616269 0)
(-0.00112121 0.0222776 0)
(-0.00102042 -0.018359 0)
(-0.00680268 -0.0501568 0)
(-0.0189303 -0.0768363 0)
(-0.0355262 -0.0984019 0)
(-0.0553846 -0.115029 0)
(-0.0775861 -0.127026 0)
(-0.101261 -0.134803 0)
(-0.125639 -0.13884 0)
(-0.150077 -0.139651 0)
(-0.174053 -0.137753 0)
(-0.197162 -0.133647 0)
(-0.219099 -0.127795 0)
(-0.23965 -0.120611 0)
(-0.258674 -0.112453 0)
(-0.276091 -0.103622 0)
(-0.291864 -0.0943625 0)
(-0.305992 -0.0848655 0)
(-0.318498 -0.0752722 0)
(-0.329419 -0.0656806 0)
(-0.338798 -0.0561507 0)
(-0.346683 -0.0467102 0)
(-0.353117 -0.0373603 0)
(-0.358137 -0.0280808 0)
(-0.36177 -0.0188354 0)
(-0.36403 -0.00957613 0)
(-0.364922 -0.000248503 0)
(-0.364433 0.0092043 0)
(-0.362539 0.0188365 0)
(-0.359199 0.0286948 0)
(-0.354361 0.0388131 0)
(-0.347963 0.0492065 0)
(-0.339932 0.0598651 0)
(-0.330191 0.0707474 0)
(-0.318664 0.0817723 0)
(-0.305283 0.0928124 0)
(-0.289994 0.103686 0)
(-0.272771 0.114151 0)
(-0.253627 0.123901 0)
(-0.232632 0.132561 0)
(-0.209926 0.139691 0)
(-0.185741 0.144793 0)
(-0.160419 0.147325 0)
(-0.134423 0.146722 0)
(-0.108357 0.142426 0)
(-0.0829631 0.133924 0)
(-0.0591243 0.120788 0)
(-0.0378222 0.102718 0)
(-0.0200742 0.0795793 0)
(-0.00716804 0.0514269 0)
(-0.00105999 0.0185418 0)
(-0.000995061 -0.0149216 0)
(-0.0066627 -0.0408107 0)
(-0.018595 -0.0625997 0)
(-0.0350006 -0.080294 0)
(-0.0547411 -0.0940272 0)
(-0.0769476 -0.104034 0)
(-0.100786 -0.110631 0)
(-0.125507 -0.114186 0)
(-0.150467 -0.115099 0)
(-0.175135 -0.113778 0)
(-0.199085 -0.110618 0)
(-0.221983 -0.105987 0)
(-0.243582 -0.100221 0)
(-0.26371 -0.0936107 0)
(-0.282251 -0.0864035 0)
(-0.299139 -0.0788023 0)
(-0.314345 -0.0709671 0)
(-0.327868 -0.0630183 0)
(-0.339724 -0.0550406 0)
(-0.349939 -0.0470877 0)
(-0.358546 -0.0391864 0)
(-0.365575 -0.0313414 0)
(-0.371054 -0.0235395 0)
(-0.375003 -0.015754 0)
(-0.37743 -0.00794851 0)
(-0.378333 -8.10813e-05 0)
(-0.377698 0.00789187 0)
(-0.375498 0.0160115 0)
(-0.371695 0.0243121 0)
(-0.366239 0.0328171 0)
(-0.359072 0.0415333 0)
(-0.350132 0.0504466 0)
(-0.339356 0.0595154 0)
(-0.326687 0.0686658 0)
(-0.31208 0.0777849 0)
(-0.295512 0.0867159 0)
(-0.276994 0.0952535 0)
(-0.25658 0.103141 0)
(-0.234385 0.110069 0)
(-0.210598 0.11568 0)
(-0.185496 0.119573 0)
(-0.15946 0.121319 0)
(-0.132984 0.120477 0)
(-0.106684 0.116618 0)
(-0.0812949 0.109352 0)
(-0.0576665 0.0983645 0)
(-0.036724 0.0834411 0)
(-0.0194062 0.0644972 0)
(-0.00689631 0.0415942 0)
(-0.00101135 0.0149648 0)
(-0.000976448 -0.0115469 0)
(-0.00655941 -0.031607 0)
(-0.0183465 -0.0485297 0)
(-0.0346089 -0.0623203 0)
(-0.054258 -0.0730775 0)
(-0.0764632 -0.0809746 0)
(-0.100419 -0.0862441 0)
(-0.12539 -0.0891607 0)
(-0.150739 -0.090023 0)
(-0.175928 -0.0891368 0)
(-0.200514 -0.0868015 0)
(-0.224145 -0.0832988 0)
(-0.246551 -0.078885 0)
(-0.26753 -0.0737859 0)
(-0.286943 -0.0681942 0)
(-0.304701 -0.062269 0)
(-0.320751 -0.0561371 0)
(-0.335072 -0.0498949 0)
(-0.347664 -0.043611 0)
(-0.358538 -0.0373298 0)
(-0.367713 -0.031075 0)
(-0.375212 -0.0248524 0)
(-0.381051 -0.018654 0)
(-0.385245 -0.0124608 0)
(-0.387797 -0.00624655 0)
(-0.3887 1.96641e-05 0)
(-0.387939 0.00636979 0)
(-0.385485 0.0128336 0)
(-0.381301 0.0194355 0)
(-0.37534 0.0261904 0)
(-0.36755 0.0331004 0)
(-0.357878 0.0401503 0)
(-0.346272 0.0473035 0)
(-0.332692 0.0544972 0)
(-0.317113 0.0616387 0)
(-0.299539 0.068601 0)
(-0.280009 0.0752203 0)
(-0.258612 0.0812936 0)
(-0.235498 0.0865797 0)
(-0.210893 0.0908018 0)
(-0.185108 0.0936539 0)
(-0.158552 0.0948109 0)
(-0.131741 0.0939426 0)
(-0.105296 0.090732 0)
(-0.0799424 0.084896 0)
(-0.0565032 0.0762084 0)
(-0.0358574 0.0645217 0)
(-0.0188835 0.049785 0)
(-0.00668512 0.0320547 0)
(-0.000973826 0.0115135 0)
(-0.000963396 -0.00821745 0)
(-0.00648671 -0.0225069 0)
(-0.0181709 -0.0345816 0)
(-0.0343312 -0.0444463 0)
(-0.0539137 -0.0521688 0)
(-0.0761154 -0.0578681 0)
(-0.100151 -0.0617043 0)
(-0.125298 -0.0638667 0)
(-0.150923 -0.0645622 0)
(-0.176483 -0.0640039 0)
(-0.201527 -0.0624012 0)
(-0.225688 -0.0599522 0)
(-0.248677 -0.0568381 0)
(-0.270277 -0.0532193 0)
(-0.290329 -0.0492337 0)
(-0.308724 -0.0449954 0)
(-0.325396 -0.0405963 0)
(-0.340307 -0.0361064 0)
(-0.353443 -0.0315763 0)
(-0.364804 -0.0270392 0)
(-0.374401 -0.0225133 0)
(-0.382246 -0.018004 0)
(-0.388351 -0.0135068 0)
(-0.392724 -0.0090093 0)
(-0.395364 -0.00449361 0)
(-0.396263 6.12033e-05 0)
(-0.395401 0.00467688 0)
(-0.392751 0.0093735 0)
(-0.388275 0.014167 0)
(-0.38193 0.0190665 0)
(-0.373668 0.0240715 0)
(-0.363443 0.0291691 0)
(-0.351215 0.0343304 0)
(-0.336954 0.0395082 0)
(-0.320653 0.0446334 0)
(-0.302335 0.0496129 0)
(-0.282062 0.0543273 0)
(-0.259947 0.0586305 0)
(-0.236168 0.0623496 0)
(-0.210977 0.0652883 0)
(-0.184709 0.0672309 0)
(-0.157793 0.0679501 0)
(-0.130758 0.0672171 0)
(-0.104227 0.0648144 0)
(-0.0789182 0.0605496 0)
(-0.0556321 0.0542714 0)
(-0.0352138 0.0458839 0)
(-0.0184977 0.0353581 0)
(-0.00653007 0.0227389 0)
(-0.000946437 0.00815734 0)
(-0.000955106 -0.00491866 0)
(-0.0064404 -0.013477 0)
(-0.0180589 -0.0207167 0)
(-0.0341534 -0.0266409 0)
(-0.0536925 -0.0312895 0)
(-0.0758909 -0.0347319 0)
(-0.0999767 -0.0370617 0)
(-0.125235 -0.0383902 0)
(-0.151036 -0.038839 0)
(-0.176835 -0.0385335 0)
(-0.202175 -0.0375979 0)
(-0.226679 -0.0361497 0)
(-0.250049 -0.0342968 0)
(-0.272054 -0.0321352 0)
(-0.292523 -0.0297474 0)
(-0.311338 -0.0272024 0)
(-0.328418 -0.0245555 0)
(-0.343717 -0.0218494 0)
(-0.357212 -0.0191149 0)
(-0.368895 -0.0163726 0)
(-0.378769 -0.0136339 0)
(-0.386843 -0.0109026 0)
(-0.393123 -0.00817639 0)
(-0.397613 -0.00544834 0)
(-0.400309 -0.00270814 0)
(-0.401202 5.636e-05 0)
(-0.40027 0.00285773 0)
(-0.397486 0.00570753 0)
(-0.392813 0.00861473 0)
(-0.38621 0.0115841 0)
(-0.377632 0.0146147 0)
(-0.367037 0.0176976 0)
(-0.354394 0.0208148 0)
(-0.33968 0.0239368 0)
(-0.322902 0.027021 0)
(-0.304093 0.0300106 0)
(-0.283332 0.0328332 0)
(-0.260749 0.0354005 0)
(-0.236538 0.0376089 0)
(-0.210969 0.0393409 0)
(-0.184392 0.0404685 0)
(-0.157251 0.0408573 0)
(-0.130079 0.0403729 0)
(-0.103501 0.0388882 0)
(-0.0782307 0.0362916 0)
(-0.055052 0.0324965 0)
(-0.0347877 0.0274488 0)
(-0.0182434 0.0211341 0)
(-0.00642819 0.0135808 0)
(-0.000928515 0.00486803 0)
(-0.000951079 -0.00163759 0)
(-0.00641787 -0.00448784 0)
(-0.0180043 -0.0069002 0)
(-0.0340667 -0.00887579 0)
(-0.0535844 -0.0104277 0)
(-0.0757807 -0.0115789 0)
(-0.0998906 -0.0123602 0)
(-0.125203 -0.0128081 0)
(-0.15109 -0.0129629 0)
(-0.177006 -0.012866 0)
(-0.202491 -0.0125585 0)
(-0.227164 -0.0120793 0)
(-0.250721 -0.0114643 0)
(-0.272926 -0.0107454 0)
(-0.293602 -0.00995011 0)
(-0.312624 -0.00910147 0)