/*--------------------------------*- C++ -*----------------------------------*\
  =========                 |
  \\      /  F ield         | OpenFOAM: The Open Source CFD Toolbox
   \\    /   O peration     | Website:  https://openfoam.org
    \\  /    A nd           | Version:  7
     \\/     M anipulation  |
\*---------------------------------------------------------------------------*/
FoamFile
{
    version     2.0;
    format      ascii;
    class       volScalarField;
    location    "0.029";
    object      p;
}
// * * * * * * * * * * * * * * * * * * * * * * * * * * * * * * * * * * * * * //

dimensions      [0 2 -2 0 0 0 0];

internalField   nonuniform List<scalar> 
2500
(
-1.99184e-05
-6.51136
-9.29531
-10.4896
-11.1531
-11.5575
-11.8191
-12.0019
-12.1377
-12.243
-12.327
-12.3956
-12.4526
-12.5004
-12.541
-12.5757
-12.6055
-12.6314
-12.6539
-12.6735
-12.6908
-12.706
-12.7195
-12.7317
-12.7427
-12.7528
-12.7624
-12.7716
-12.7807
-12.79
-12.7999
-12.8106
-12.8227
-12.8366
-12.8529
-12.8725
-12.8962
-12.9253
-12.9615
-13.0072
-13.0659
-13.1429
-13.247
-13.3939
-13.6146
-13.9702
-14.5681
-15.6675
-18.3339
-24.7188
-4.95615
-7.6755
-9.18134
-10.1403
-10.8067
-11.2652
-11.5852
-11.8169
-11.9907
-12.1248
-12.231
-12.3169
-12.3874
-12.4463
-12.4959
-12.5382
-12.5745
-12.606
-12.6334
-12.6574
-12.6787
-12.6976
-12.7146
-12.7301
-12.7445
-12.7579
-12.7708
-12.7834
-12.7962
-12.8094
-12.8235
-12.8389
-12.8562
-12.876
-12.8992
-12.9267
-12.9599
-13.0006
-13.0511
-13.1148
-13.1965
-13.3035
-13.4469
-13.6442
-13.9247
-14.3364
-14.9446
-15.8315
-17.2509
-19.8502
-7.92683
-8.75835
-9.55845
-10.2385
-10.7776
-11.1865
-11.4947
-11.7301
-11.9128
-12.0569
-12.1726
-12.267
-12.345
-12.4103
-12.4655
-12.5127
-12.5533
-12.5886
-12.6194
-12.6466
-12.6707
-12.6924
-12.712
-12.73
-12.7467
-12.7626
-12.778
-12.7932
-12.8087
-12.8248
-12.8419
-12.8607
-12.8817
-12.9056
-12.9334
-12.9662
-13.0054
-13.053
-13.1115
-13.1844
-13.2764
-13.3945
-13.5482
-13.7512
-14.0231
-14.3902
-14.881
-15.5078
-16.2528
-17.0162
-9.43766
-9.64974
-10.0678
-10.5118
-10.9039
-11.23
-11.4954
-11.71
-11.8837
-12.0252
-12.1415
-12.238
-12.3188
-12.3872
-12.4454
-12.4955
-12.5388
-12.5766
-12.6099
-12.6393
-12.6656
-12.6893
-12.7109
-12.7308
-12.7495
-12.7673
-12.7847
-12.8019
-12.8195
-12.8377
-12.8572
-12.8784
-12.9021
-12.9288
-12.9597
-12.9958
-13.0385
-13.0897
-13.1517
-13.2275
-13.3212
-13.438
-13.5847
-13.7697
-14.0027
-14.2933
-14.6473
-15.0521
-15.4336
-15.6112
-10.3245
-10.3222
-10.5249
-10.8008
-11.0746
-11.3238
-11.5416
-11.7275
-11.8846
-12.017
-12.1287
-12.2233
-12.3039
-12.3729
-12.4323
-12.4839
-12.5288
-12.5683
-12.6032
-12.6343
-12.6623
-12.6876
-12.7108
-12.7323
-12.7525
-12.772
-12.7909
-12.8098
-12.829
-12.849
-12.8703
-12.8934
-12.919
-12.9477
-12.9805
-13.0185
-13.0629
-13.1154
-13.1779
-13.2528
-13.3431
-13.4524
-13.5847
-13.7441
-13.9337
-14.1536
-14.3977
-14.6454
-14.8243
-14.8054
-10.8923
-10.8159
-10.9031
-11.0696
-11.2565
-11.442
-11.6153
-11.771
-11.9083
-12.0278
-12.1315
-12.2213
-12.2992
-12.3669
-12.426
-12.4777
-12.5232
-12.5635
-12.5994
-12.6315
-12.6605
-12.687
-12.7113
-12.734
-12.7555
-12.7761
-12.7963
-12.8164
-12.8369
-12.8582
-12.8807
-12.9051
-12.9318
-12.9617
-12.9954
-13.034
-13.0785
-13.1303
-13.1909
-13.262
-13.3457
-13.4439
-13.5586
-13.6908
-13.8399
-14.0015
-14.1656
-14.312
-14.3845
-14.302
-11.2753
-11.1817
-11.2102
-11.308
-11.4335
-11.569
-11.7038
-11.8311
-11.9479
-12.0531
-12.1469
-12.23
-12.3034
-12.3682
-12.4256
-12.4764
-12.5215
-12.5618
-12.5979
-12.6305
-12.6601
-12.6873
-12.7124
-12.7358
-12.7581
-12.7796
-12.8006
-12.8215
-12.8428
-12.8649
-12.8882
-12.9131
-12.9404
-12.9705
-13.0042
-13.0423
-13.0857
-13.1353
-13.1923
-13.2578
-13.3329
-13.4185
-13.5151
-13.6219
-13.7363
-13.8524
-13.9605
-14.0442
-14.064
-13.9702
-11.5489
-11.4588
-11.458
-11.5133
-11.5963
-11.694
-11.7973
-11.8998
-11.9974
-12.0882
-12.1714
-12.2467
-12.3146
-12.3755
-12.4301
-12.4791
-12.5231
-12.5627
-12.5985
-12.631
-12.6607
-12.6881
-12.7135
-12.7374
-12.7601
-12.782
-12.8035
-12.8249
-12.8466
-12.869
-12.8926
-12.9176
-12.9448
-12.9745
-13.0074
-13.0442
-13.0854
-13.1318
-13.1842
-13.2431
-13.3091
-13.3821
-13.4618
-13.5465
-13.6328
-13.7151
-13.7849
-13.8304
-13.825
-13.7379
-11.7548
-11.674
-11.6588
-11.6879
-11.7418
-11.8116
-11.8901
-11.9716
-12.0521
-12.1294
-12.202
-12.2693
-12.331
-12.3874
-12.4386
-12.4851
-12.5273
-12.5657
-12.6006
-12.6326
-12.662
-12.6892
-12.7146
-12.7385
-12.7613
-12.7834
-12.805
-12.8265
-12.8482
-12.8706
-12.894
-12.9187
-12.9452
-12.9741
-13.0056
-13.0404
-13.0789
-13.1216
-13.1688
-13.2209
-13.2779
-13.3393
-13.4041
-13.4704
-13.5348
-13.5924
-13.6366
-13.6591
-13.6422
-13.5661
-11.916
-11.8448
-11.8231
-11.836
-11.8702
-11.9195
-11.9787
-12.0429
-12.1088
-12.1738
-12.2365
-12.2958
-12.3513
-12.4027
-12.4501
-12.4937
-12.5337
-12.5703
-12.604
-12.635
-12.6637
-12.6904
-12.7154
-12.7391
-12.7617
-12.7835
-12.8049
-12.8262
-12.8477
-12.8697
-12.8925
-12.9165
-12.9421
-12.9696
-12.9994
-13.0318
-13.0673
-13.1059
-13.148
-13.1935
-13.2421
-13.2931
-13.3453
-13.3968
-13.4446
-13.4844
-13.5116
-13.5204
-13.4988
-13.4335
-12.0458
-11.9834
-11.9591
-11.9621
-11.9828
-12.0173
-12.0615
-12.1118
-12.1652
-12.2195
-12.2731
-12.3248
-12.3741
-12.4205
-12.4639
-12.5042
-12.5416
-12.5762
-12.6083
-12.638
-12.6657
-12.6916
-12.7159
-12.739
-12.7611
-12.7825
-12.8034
-12.8242
-12.8451
-12.8665
-12.8885
-12.9115
-12.9358
-12.9617
-12.9895
-13.0194
-13.0516
-13.0862
-13.1233
-13.1626
-13.2037
-13.2459
-13.2877
-13.3275
-13.3627
-13.3899
-13.4058
-13.4066
-13.3838
-13.3279
-12.1526
-12.0978
-12.073
-12.0699
-12.0815
-12.1051
-12.1379
-12.1771
-12.2201
-12.2651
-12.3105
-12.3552
-12.3986
-12.44
-12.4793
-12.5162
-12.5508
-12.5831
-12.6133
-12.6414
-12.6678
-12.6926
-12.716
-12.7383
-12.7596
-12.7803
-12.8006
-12.8206
-12.8407
-12.8612
-12.8822
-12.904
-12.9268
-12.951
-12.9766
-13.0039
-13.0329
-13.0637
-13.0961
-13.1299
-13.1645
-13.199
-13.2325
-13.2631
-13.2889
-13.3072
-13.3157
-13.3119
-13.2895
-13.2416
-12.242
-12.1937
-12.1694
-12.1627
-12.168
-12.1838
-12.2079
-12.2382
-12.2726
-12.3096
-12.3478
-12.3862
-12.4239
-12.4606
-12.4958
-12.5292
-12.5609
-12.5907
-12.6188
-12.6452
-12.67
-12.6935
-12.7158
-12.737
-12.7574
-12.7771
-12.7965
-12.8156
-12.8347
-12.8541
-12.8739
-12.8943
-12.9156
-12.9379
-12.9613
-12.986
-13.012
-13.0391
-13.0673
-13.0962
-13.1252
-13.1536
-13.1802
-13.2038
-13.2226
-13.2347
-13.2384
-13.232
-13.211
-13.1697
-12.3178
-12.275
-12.2519
-12.2431
-12.2443
-12.2543
-12.2718
-12.295
-12.3224
-12.3526
-12.3845
-12.4171
-12.4497
-12.4818
-12.513
-12.543
-12.5717
-12.5989
-12.6248
-12.6492
-12.6724
-12.6943
-12.7152
-12.7352
-12.7544
-12.7731
-12.7914
-12.8094
-12.8274
-12.8455
-12.864
-12.883
-12.9026
-12.923
-12.9443
-12.9665
-12.9895
-13.0134
-13.0378
-13.0625
-13.0868
-13.11
-13.1313
-13.1494
-13.1631
-13.1709
-13.1714
-13.1638
-13.1445
-13.1089
-12.3826
-12.3447
-12.3232
-12.3133
-12.3117
-12.3176
-12.3301
-12.3477
-12.3693
-12.3938
-12.4202
-12.4476
-12.4756
-12.5034
-12.5308
-12.5574
-12.583
-12.6076
-12.6311
-12.6535
-12.6748
-12.6951
-12.7145
-12.7331
-12.751
-12.7684
-12.7855
-12.8023
-12.819
-12.8358
-12.8529
-12.8703
-12.8883
-12.9068
-12.9259
-12.9458
-12.9662
-12.9871
-13.0082
-13.0291
-13.0495
-13.0685
-13.0855
-13.0995
-13.1095
-13.1142
-13.1129
-13.105
-13.0875
-13.0568
-12.4386
-12.4051
-12.3852
-12.3751
-12.3717
-12.3747
-12.3832
-12.3964
-12.4133
-12.433
-12.4546
-12.4775
-12.5012
-12.5251
-12.5488
-12.5721
-12.5948
-12.6168
-12.6378
-12.6581
-12.6774
-12.696
-12.7137
-12.7308
-12.7473
-12.7633
-12.779
-12.7945
-12.8099
-12.8253
-12.8409
-12.8567
-12.873
-12.8896
-12.9068
-12.9244
-12.9423
-12.9605
-12.9787
-12.9965
-13.0136
-13.0292
-13.0429
-13.0537
-13.0609
-13.0637
-13.0614
-13.0535
-13.0379
-13.0116
-12.4874
-12.4579
-12.4398
-12.4298
-12.4253
-12.4262
-12.4319
-12.4416
-12.4546
-12.4702
-12.4878
-12.5067
-12.5265
-12.5467
-12.567
-12.5872
-12.607
-12.6263
-12.645
-12.663
-12.6803
-12.697
-12.713
-12.7285
-12.7435
-12.758
-12.7723
-12.7863
-12.8003
-12.8142
-12.8283
-12.8425
-12.8571
-12.8719
-12.8871
-12.9026
-12.9183
-12.9341
-12.9497
-12.9649
-12.9791
-12.992
-13.003
-13.0115
-13.0168
-13.0182
-13.0154
-13.0081
-12.9944
-12.9719
-12.5303
-12.5044
-12.4882
-12.4786
-12.4736
-12.4731
-12.4766
-12.4836
-12.4934
-12.5056
-12.5197
-12.535
-12.5513
-12.5682
-12.5854
-12.6025
-12.6195
-12.6362
-12.6525
-12.6683
-12.6836
-12.6983
-12.7126
-12.7263
-12.7397
-12.7527
-12.7654
-12.7779
-12.7904
-12.8028
-12.8153
-12.828
-12.8408
-12.8539
-12.8673
-12.8808
-12.8944
-12.908
-12.9214
-12.9342
-12.9462
-12.9568
-12.9657
-12.9724
-12.9763
-12.9769
-12.974
-12.9674
-12.9557
-12.9367
-12.5682
-12.5458
-12.5314
-12.5226
-12.5175
-12.516
-12.5179
-12.5227
-12.53
-12.5393
-12.5503
-12.5626
-12.5758
-12.5896
-12.6038
-12.6181
-12.6324
-12.6466
-12.6605
-12.6741
-12.6872
-12.7
-12.7124
-12.7244
-12.7361
-12.7475
-12.7586
-12.7696
-12.7805
-12.7914
-12.8023
-12.8133
-12.8245
-12.8359
-12.8474
-12.8591
-12.8708
-12.8824
-12.8938
-12.9046
-12.9146
-12.9234
-12.9306
-12.9359
-12.9389
-12.9391
-12.9364
-12.9307
-12.9209
-12.9052
-12.6022
-12.583
-12.5705
-12.5625
-12.5575
-12.5555
-12.5562
-12.5593
-12.5646
-12.5715
-12.5799
-12.5894
-12.5998
-12.6108
-12.6222
-12.6339
-12.6457
-12.6574
-12.669
-12.6803
-12.6914
-12.7022
-12.7127
-12.723
-12.7329
-12.7426
-12.7521
-12.7615
-12.7708
-12.78
-12.7894
-12.7987
-12.8083
-12.8179
-12.8277
-12.8376
-12.8475
-12.8573
-12.8668
-12.8759
-12.8842
-12.8914
-12.8974
-12.9016
-12.9039
-12.904
-12.9017
-12.8971
-12.8891
-12.8765
-12.6328
-12.6167
-12.6061
-12.5991
-12.5945
-12.5922
-12.5921
-12.5939
-12.5974
-12.6023
-12.6084
-12.6155
-12.6234
-12.6319
-12.6408
-12.6499
-12.6593
-12.6686
-12.678
-12.6872
-12.6962
-12.705
-12.7136
-12.722
-12.7302
-12.7382
-12.746
-12.7537
-12.7614
-12.769
-12.7767
-12.7844
-12.7923
-12.8002
-12.8083
-12.8165
-12.8246
-12.8327
-12.8406
-12.848
-12.8548
-12.8608
-12.8656
-12.8691
-12.871
-12.8711
-12.8694
-12.8658
-12.8598
-12.8502
-12.6607
-12.6477
-12.6389
-12.633
-12.6289
-12.6266
-12.6259
-12.6267
-12.6288
-12.632
-12.6362
-12.6411
-12.6467
-12.6529
-12.6594
-12.6662
-12.6732
-12.6803
-12.6875
-12.6946
-12.7016
-12.7084
-12.7151
-12.7217
-12.7281
-12.7343
-12.7404
-12.7465
-12.7524
-12.7584
-12.7644
-12.7704
-12.7766
-12.7829
-12.7892
-12.7957
-12.8022
-12.8086
-12.8149
-12.8208
-12.8263
-12.8311
-12.835
-12.8379
-12.8396
-12.8399
-12.8389
-12.8364
-12.8322
-12.8255
-12.6866
-12.6765
-12.6696
-12.6648
-12.6613
-12.6591
-12.6581
-12.6581
-12.659
-12.6607
-12.6632
-12.6662
-12.6698
-12.6738
-12.6781
-12.6828
-12.6876
-12.6926
-12.6976
-12.7026
-12.7076
-12.7125
-12.7174
-12.7221
-12.7267
-12.7311
-12.7355
-12.7398
-12.744
-12.7483
-12.7526
-12.7569
-12.7613
-12.7659
-12.7705
-12.7753
-12.7801
-12.7849
-12.7897
-12.7942
-12.7984
-12.8022
-12.8053
-12.8077
-12.8092
-12.8099
-12.8095
-12.8083
-12.8059
-12.802
-12.7109
-12.7036
-12.6986
-12.695
-12.6922
-12.6903
-12.689
-12.6884
-12.6883
-12.6888
-12.6897
-12.691
-12.6927
-12.6947
-12.6971
-12.6996
-12.7024
-12.7053
-12.7083
-12.7113
-12.7144
-12.7174
-12.7203
-12.7232
-12.726
-12.7287
-12.7313
-12.7338
-12.7363
-12.7388
-12.7413
-12.7439
-12.7466
-12.7493
-12.7522
-12.7553
-12.7584
-12.7616
-12.7648
-12.7679
-12.7709
-12.7737
-12.7761
-12.7781
-12.7795
-12.7805
-12.7809
-12.7809
-12.7804
-12.7793
-12.7342
-12.7297
-12.7265
-12.7241
-12.7221
-12.7205
-12.7191
-12.718
-12.717
-12.7164
-12.7159
-12.7156
-12.7156
-12.7158
-12.7162
-12.7168
-12.7176
-12.7185
-12.7196
-12.7207
-12.7218
-12.7229
-12.724
-12.7251
-12.7261
-12.727
-12.7278
-12.7285
-12.7293
-12.73
-12.7307
-12.7314
-12.7323
-12.7332
-12.7343
-12.7356
-12.737
-12.7385
-12.7402
-12.7419
-12.7437
-12.7454
-12.7471
-12.7486
-12.7501
-12.7514
-12.7526
-12.7538
-12.7551
-12.7568
-12.7568
-12.7551
-12.7538
-12.7526
-12.7514
-12.7501
-12.7486
-12.7471
-12.7454
-12.7437
-12.7419
-12.7402
-12.7385
-12.737
-12.7356
-12.7343
-12.7332
-12.7323
-12.7314
-12.7307
-12.73
-12.7293
-12.7285
-12.7278
-12.727
-12.7261
-12.7251
-12.724
-12.7229
-12.7218
-12.7207
-12.7196
-12.7185
-12.7176
-12.7168
-12.7162
-12.7158
-12.7156
-12.7156
-12.7159
-12.7164
-12.7171
-12.718
-12.7191
-12.7205
-12.7221
-12.7241
-12.7265
-12.7297
-12.7342
-12.7793
-12.7804
-12.7809
-12.7809
-12.7805
-12.7795
-12.7781
-12.7761
-12.7737
-12.7709
-12.7679
-12.7648
-12.7616
-12.7584
-12.7552
-12.7522
-12.7493
-12.7466
-12.7439
-12.7413
-12.7388
-12.7363
-12.7338
-12.7313
-12.7287
-12.726
-12.7232
-12.7203
-12.7174
-12.7144
-12.7113
-12.7083
-12.7053
-12.7024
-12.6996
-12.6971
-12.6947
-12.6927
-12.691
-12.6897
-12.6888
-12.6883
-12.6884
-12.689
-12.6903
-12.6923
-12.695
-12.6986
-12.7037
-12.711
-12.802
-12.8059
-12.8083
-12.8095
-12.8099
-12.8092
-12.8077
-12.8053
-12.8022
-12.7984
-12.7942
-12.7896
-12.7849
-12.7801
-12.7753
-12.7705
-12.7659
-12.7613
-12.7569
-12.7526
-12.7483
-12.744
-12.7398
-12.7355
-12.7311
-12.7267
-12.7221
-12.7174
-12.7125
-12.7076
-12.7026
-12.6976
-12.6926
-12.6876
-12.6828
-12.6781
-12.6738
-12.6698
-12.6662
-12.6632
-12.6608
-12.659
-12.6581
-12.6581
-12.6591
-12.6613
-12.6648
-12.6696
-12.6765
-12.6866
-12.8255
-12.8322
-12.8364
-12.8388
-12.8399
-12.8396
-12.8379
-12.835
-12.8311
-12.8263
-12.8208
-12.8149
-12.8086
-12.8022
-12.7957
-12.7892
-12.7828
-12.7766
-12.7704
-12.7644
-12.7584
-12.7524
-12.7465
-12.7404
-12.7343
-12.7281
-12.7217
-12.7151
-12.7084
-12.7016
-12.6946
-12.6875
-12.6804
-12.6732
-12.6662
-12.6594
-12.6529
-12.6467
-12.6411
-12.6362
-12.632
-12.6288
-12.6267
-12.6259
-12.6266
-12.6289
-12.633
-12.6389
-12.6477
-12.6608
-12.8501
-12.8597
-12.8658
-12.8694
-12.8711
-12.871
-12.8691
-12.8656
-12.8608
-12.8548
-12.848
-12.8405
-12.8327
-12.8246
-12.8165
-12.8083
-12.8002
-12.7923
-12.7844
-12.7767
-12.769
-12.7614
-12.7537
-12.746
-12.7382
-12.7302
-12.722
-12.7136
-12.705
-12.6962
-12.6872
-12.678
-12.6686
-12.6593
-12.6499
-12.6408
-12.6319
-12.6234
-12.6155
-12.6084
-12.6023
-12.5974
-12.5939
-12.5921
-12.5922
-12.5945
-12.5991
-12.6061
-12.6167
-12.6328
-12.8765
-12.8891
-12.8971
-12.9017
-12.904
-12.9039
-12.9016
-12.8974
-12.8914
-12.8842
-12.8759
-12.8668
-12.8573
-12.8475
-12.8376
-12.8277
-12.8179
-12.8083
-12.7987
-12.7893
-12.78
-12.7708
-12.7615
-12.7521
-12.7426
-12.7329
-12.723
-12.7127
-12.7022
-12.6914
-12.6803
-12.669
-12.6574
-12.6457
-12.6339
-12.6222
-12.6108
-12.5998
-12.5894
-12.5799
-12.5715
-12.5646
-12.5594
-12.5562
-12.5555
-12.5575
-12.5625
-12.5705
-12.583
-12.6022
-12.9052
-12.9209
-12.9307
-12.9364
-12.9391
-12.9389
-12.9359
-12.9306
-12.9234
-12.9145
-12.9046
-12.8937
-12.8824
-12.8708
-12.8591
-12.8474
-12.8359
-12.8245
-12.8133
-12.8023
-12.7914
-12.7805
-12.7696
-12.7586
-12.7475
-12.7361
-12.7244
-12.7124
-12.7
-12.6873
-12.6741
-12.6605
-12.6466
-12.6324
-12.6181
-12.6038
-12.5896
-12.5758
-12.5626
-12.5503
-12.5394
-12.53
-12.5227
-12.5179
-12.516
-12.5175
-12.5226
-12.5314
-12.5458
-12.5683
-12.9367
-12.9557
-12.9674
-12.974
-12.9769
-12.9763
-12.9724
-12.9657
-12.9568
-12.9462
-12.9342
-12.9214
-12.908
-12.8944
-12.8808
-12.8673
-12.8539
-12.8408
-12.828
-12.8153
-12.8028
-12.7904
-12.7779
-12.7654
-12.7527
-12.7397
-12.7263
-12.7126
-12.6983
-12.6836
-12.6683
-12.6525
-12.6362
-12.6196
-12.6025
-12.5854
-12.5682
-12.5514
-12.5351
-12.5197
-12.5057
-12.4935
-12.4836
-12.4766
-12.4731
-12.4737
-12.4786
-12.4882
-12.5044
-12.5303
-12.9719
-12.9944
-13.0081
-13.0154
-13.0182
-13.0168
-13.0115
-13.003
-12.992
-12.9791
-12.9649
-12.9497
-12.9341
-12.9183
-12.9026
-12.8871
-12.8719
-12.8571
-12.8425
-12.8283
-12.8142
-12.8003
-12.7863
-12.7723
-12.758
-12.7435
-12.7285
-12.713
-12.697
-12.6803
-12.663
-12.645
-12.6263
-12.607
-12.5872
-12.567
-12.5467
-12.5265
-12.5067
-12.4878
-12.4702
-12.4546
-12.4416
-12.4319
-12.4262
-12.4254
-12.4298
-12.4398
-12.4579
-12.4874
-13.0116
-13.0379
-13.0535
-13.0613
-13.0637
-13.0609
-13.0537
-13.0429
-13.0292
-13.0136
-12.9965
-12.9787
-12.9605
-12.9423
-12.9244
-12.9068
-12.8896
-12.873
-12.8567
-12.8409
-12.8253
-12.8099
-12.7945
-12.779
-12.7633
-12.7473
-12.7308
-12.7137
-12.696
-12.6774
-12.6581
-12.6379
-12.6168
-12.5948
-12.5721
-12.5488
-12.5251
-12.5012
-12.4776
-12.4546
-12.433
-12.4133
-12.3965
-12.3832
-12.3747
-12.3717
-12.3751
-12.3853
-12.4051
-12.4386
-13.0568
-13.0875
-13.105
-13.1129
-13.1142
-13.1095
-13.0995
-13.0855
-13.0685
-13.0495
-13.0291
-13.0082
-12.9871
-12.9662
-12.9458
-12.9259
-12.9068
-12.8883
-12.8703
-12.8529
-12.8358
-12.819
-12.8023
-12.7855
-12.7684
-12.751
-12.7331
-12.7145
-12.6951
-12.6748
-12.6535
-12.6311
-12.6076
-12.583
-12.5574
-12.5308
-12.5034
-12.4756
-12.4477
-12.4202
-12.3938
-12.3693
-12.3477
-12.3301
-12.3177
-12.3117
-12.3133
-12.3232
-12.3447
-12.3826
-13.1089
-13.1445
-13.1638
-13.1714
-13.1709
-13.1631
-13.1494
-13.1313
-13.11
-13.0867
-13.0625
-13.0378
-13.0134
-12.9895
-12.9665
-12.9443
-12.923
-12.9026
-12.883
-12.864
-12.8455
-12.8274
-12.8094
-12.7914
-12.7731
-12.7544
-12.7352
-12.7152
-12.6943
-12.6724
-12.6492
-12.6248
-12.5989
-12.5717
-12.543
-12.513
-12.4818
-12.4497
-12.4171
-12.3845
-12.3526
-12.3224
-12.295
-12.2718
-12.2543
-12.2443
-12.2431
-12.2519
-12.275
-12.3178
-13.1697
-13.2109
-13.232
-13.2384
-13.2347
-13.2226
-13.2038
-13.1802
-13.1536
-13.1252
-13.0962
-13.0673
-13.0391
-13.012
-12.986
-12.9613
-12.9379
-12.9156
-12.8943
-12.8739
-12.8541
-12.8347
-12.8156
-12.7965
-12.7771
-12.7574
-12.737
-12.7158
-12.6935
-12.6701
-12.6452
-12.6188
-12.5907
-12.5609
-12.5292
-12.4958
-12.4606
-12.424
-12.3862
-12.3478
-12.3096
-12.2727
-12.2382
-12.2079
-12.1838
-12.1681
-12.1627
-12.1694
-12.1937
-12.242
-13.2416
-13.2895
-13.3118
-13.3157
-13.3072
-13.2889
-13.2631
-13.2325
-13.199
-13.1644
-13.1299
-13.0961
-13.0637
-13.0329
-13.0039
-12.9766
-12.951
-12.9268
-12.904
-12.8822
-12.8612
-12.8407
-12.8206
-12.8006
-12.7803
-12.7596
-12.7383
-12.716
-12.6926
-12.6678
-12.6415
-12.6133
-12.5831
-12.5508
-12.5162
-12.4793
-12.44
-12.3986
-12.3552
-12.3105
-12.2651
-12.2201
-12.1771
-12.1379
-12.1051
-12.0815
-12.0699
-12.073
-12.0978
-12.1527
-13.3279
-13.3837
-13.4066
-13.4058
-13.3899
-13.3626
-13.3275
-13.2877
-13.2459
-13.2037
-13.1626
-13.1233
-13.0862
-13.0516
-13.0194
-12.9895
-12.9617
-12.9358
-12.9115
-12.8885
-12.8665
-12.8451
-12.8242
-12.8034
-12.7825
-12.7611
-12.739
-12.7159
-12.6916
-12.6657
-12.638
-12.6083
-12.5762
-12.5416
-12.5042
-12.4639
-12.4205
-12.3741
-12.3248
-12.2731
-12.2195
-12.1652
-12.1118
-12.0615
-12.0173
-11.9828
-11.9621
-11.9591
-11.9835
-12.0458
-13.4335
-13.4988
-13.5204
-13.5116
-13.4844
-13.4446
-13.3968
-13.3453
-13.2931
-13.2421
-13.1935
-13.148
-13.1059
-13.0673
-13.0318
-12.9994
-12.9696
-12.9421
-12.9165
-12.8925
-12.8697
-12.8477
-12.8262
-12.805
-12.7835
-12.7617
-12.7391
-12.7154
-12.6904
-12.6637
-12.635
-12.604
-12.5703
-12.5337
-12.4937
-12.4501
-12.4027
-12.3513
-12.2958
-12.2365
-12.1738
-12.1088
-12.0429
-11.9787
-11.9196
-11.8702
-11.836
-11.8231
-11.8449
-11.916
-13.5661
-13.6422
-13.6591
-13.6366
-13.5924
-13.5348
-13.4704
-13.4041
-13.3393
-13.2779
-13.2209
-13.1688
-13.1216
-13.0789
-13.0404
-13.0056
-12.9741
-12.9452
-12.9187
-12.894
-12.8706
-12.8482
-12.8265
-12.805
-12.7834
-12.7614
-12.7385
-12.7146
-12.6892
-12.662
-12.6326
-12.6006
-12.5657
-12.5273
-12.4851
-12.4386
-12.3874
-12.331
-12.2693
-12.202
-12.1294
-12.0521
-11.9716
-11.8901
-11.8116
-11.7418
-11.6879
-11.6589
-11.674
-11.7548
-13.7379
-13.825
-13.8304
-13.7849
-13.7151
-13.6328
-13.5465
-13.4618
-13.3821
-13.3091
-13.2431
-13.1842
-13.1318
-13.0854
-13.0442
-13.0074
-12.9745
-12.9448
-12.9176
-12.8926
-12.869
-12.8466
-12.8249
-12.8035
-12.782
-12.7601
-12.7374
-12.7135
-12.6881
-12.6607
-12.631
-12.5985
-12.5627
-12.5231
-12.4791
-12.4301
-12.3755
-12.3146
-12.2467
-12.1714
-12.0883
-11.9974
-11.8998
-11.7974
-11.694
-11.5963
-11.5133
-11.4581
-11.4589
-11.5489
-13.9702
-14.064
-14.0442
-13.9605
-13.8524
-13.7362
-13.6218
-13.5151
-13.4185
-13.3329
-13.2577
-13.1923
-13.1353
-13.0857
-13.0423
-13.0042
-12.9705
-12.9404
-12.9131
-12.8882
-12.8649
-12.8428
-12.8215
-12.8006
-12.7796
-12.7581
-12.7358
-12.7124
-12.6873
-12.6601
-12.6305
-12.5979
-12.5618
-12.5215
-12.4764
-12.4256
-12.3683
-12.3034
-12.23
-12.1469
-12.0532
-11.9479
-11.8311
-11.7038
-11.569
-11.4335
-11.308
-11.2102
-11.1817
-11.2753
-14.302
-14.3845
-14.312
-14.1656
-14.0015
-13.8399
-13.6908
-13.5585
-13.4439
-13.3457
-13.262
-13.1909
-13.1303
-13.0785
-13.034
-12.9954
-12.9617
-12.9318
-12.9051
-12.8807
-12.8582
-12.8369
-12.8164
-12.7963
-12.7761
-12.7555
-12.734
-12.7113
-12.687
-12.6605
-12.6315
-12.5994
-12.5635
-12.5232
-12.4777
-12.426
-12.3669
-12.2992
-12.2214
-12.1315
-12.0278
-11.9083
-11.7711
-11.6153
-11.4421
-11.2565
-11.0696
-10.9032
-10.8159
-10.8923
-14.8054
-14.8243
-14.6454
-14.3977
-14.1536
-13.9337
-13.7441
-13.5847
-13.4524
-13.3431
-13.2528
-13.1779
-13.1154
-13.0629
-13.0185
-12.9805
-12.9477
-12.919
-12.8934
-12.8703
-12.849
-12.829
-12.8098
-12.7909
-12.772
-12.7526
-12.7323
-12.7108
-12.6876
-12.6623
-12.6343
-12.6033
-12.5683
-12.5289
-12.4839
-12.4323
-12.3729
-12.3039
-12.2233
-12.1287
-12.017
-11.8846
-11.7275
-11.5416
-11.3238
-11.0746
-10.8008
-10.5249
-10.3223
-10.3246
-15.6112
-15.4336
-15.0521
-14.6473
-14.2933
-14.0027
-13.7696
-13.5847
-13.438
-13.3212
-13.2275
-13.1517
-13.0897
-13.0385
-12.9958
-12.9597
-12.9288
-12.9021
-12.8784
-12.8572
-12.8377
-12.8195
-12.8019
-12.7847
-12.7674
-12.7495
-12.7308
-12.7109
-12.6893
-12.6656
-12.6393
-12.6099
-12.5766
-12.5388
-12.4955
-12.4454
-12.3872
-12.3189
-12.238
-12.1415
-12.0252
-11.8837
-11.71
-11.4954
-11.23
-10.9039
-10.5119
-10.0678
-9.64977
-9.43769
-17.0162
-16.2528
-15.5078
-14.881
-14.3902
-14.0231
-13.7512
-13.5481
-13.3945
-13.2764
-13.1844
-13.1115
-13.053
-13.0054
-12.9662
-12.9334
-12.9056
-12.8817
-12.8607
-12.8419
-12.8248
-12.8087
-12.7933
-12.778
-12.7626
-12.7468
-12.73
-12.712
-12.6924
-12.6707
-12.6466
-12.6194
-12.5886
-12.5533
-12.5127
-12.4655
-12.4103
-12.345
-12.267
-12.1727
-12.0569
-11.9128
-11.7301
-11.4948
-11.1865
-10.7777
-10.2385
-9.55848
-8.75837
-7.92685
-19.8502
-17.2509
-15.8315
-14.9446
-14.3364
-13.9247
-13.6442
-13.4469
-13.3035
-13.1965
-13.1148
-13.0511
-13.0006
-12.9599
-12.9267
-12.8992
-12.876
-12.8562
-12.8389
-12.8235
-12.8094
-12.7962
-12.7834
-12.7708
-12.7579
-12.7445
-12.7301
-12.7146
-12.6976
-12.6787
-12.6574
-12.6334
-12.606
-12.5745
-12.5382
-12.4959
-12.4463
-12.3874
-12.3169
-12.231
-12.1248
-11.9907
-11.8169
-11.5852
-11.2652
-10.8068
-10.1403
-9.18137
-7.67553
-4.95618
-24.7188
-18.3339
-15.6674
-14.5681
-13.9702
-13.6146
-13.3939
-13.247
-13.1429
-13.0659
-13.0072
-12.9615
-12.9253
-12.8962
-12.8725
-12.8529
-12.8366
-12.8227
-12.8106
-12.7999
-12.79
-12.7807
-12.7716
-12.7624
-12.7528
-12.7427
-12.7317
-12.7195
-12.706
-12.6908
-12.6735
-12.6539
-12.6314
-12.6055
-12.5757
-12.541
-12.5004
-12.4526
-12.3957
-12.327
-12.243
-12.1377
-12.0019
-11.8192
-11.5575
-11.1531
-10.4896
-9.29534
-6.51139
-6.48652e-05
)
;

boundaryField
{
    movingWallTop
    {
        type            zeroGradient;
    }
    movingWallBottom
    {
        type            zeroGradient;
    }
    fixedWalls
    {
        type            zeroGradient;
    }
    frontAndBack
    {
        type            empty;
    }
}


// ************************************************************************* //
