/*--------------------------------*- C++ -*----------------------------------*\
  =========                 |
  \\      /  F ield         | OpenFOAM: The Open Source CFD Toolbox
   \\    /   O peration     | Website:  https://openfoam.org
    \\  /    A nd           | Version:  7
     \\/     M anipulation  |
\*---------------------------------------------------------------------------*/
FoamFile
{
    version     2.0;
    format      ascii;
    class       volScalarField;
    location    "0.0754";
    object      p;
}
// * * * * * * * * * * * * * * * * * * * * * * * * * * * * * * * * * * * * * //

dimensions      [0 2 -2 0 0 0 0];

internalField   nonuniform List<scalar> 
2500
(
-1.2098e-05
-0.00054648
-0.0022453
-0.00478298
-0.00776763
-0.0108776
-0.0138658
-0.0165389
-0.0187502
-0.0203928
-0.0213917
-0.0216984
-0.0212863
-0.0201472
-0.0182886
-0.0157312
-0.0125071
-0.00865831
-0.00423541
0.00070365
0.00609442
0.0118668
0.0179459
0.0242527
0.0307049
0.0372176
0.0437041
0.0500772
0.0562494
0.0621349
0.0676502
0.0727155
0.0772566
0.0812058
0.084504
0.0871024
0.0889644
0.0900678
0.0904065
0.0899936
0.0888636
0.0870755
0.0847171
0.0819088
0.0788105
0.0756256
0.0726107
0.0700795
0.0684306
0.0679543
0.000514251
-1.41193e-05
-0.00140254
-0.00341669
-0.00576783
-0.00822854
-0.0106039
-0.0127328
-0.0144876
-0.0157707
-0.0165108
-0.0166593
-0.0161868
-0.0150812
-0.0133446
-0.0109917
-0.00804812
-0.00454904
-0.000537875
0.00393472
0.00881179
0.0140309
0.019525
0.0252231
0.031051
0.0369323
0.042789
0.0485424
0.0541144
0.059428
0.064409
0.068987
0.0730966
0.0766793
0.0796844
0.0820714
0.0838108
0.0848867
0.0852984
0.0850622
0.0842138
0.0828106
0.0809342
0.0786929
0.0762249
0.0736999
0.0713194
0.069307
0.0679498
0.067478
0.00221046
0.00137502
-2.4671e-05
-0.00184736
-0.00391031
-0.00603698
-0.00807144
-0.00988148
-0.0113586
-0.0124173
-0.0129931
-0.0130409
-0.0125324
-0.0114542
-0.00980639
-0.00760039
-0.00485791
-0.00160963
0.00210589
0.00624317
0.0107507
0.0155716
0.0206448
0.0259051
0.0312846
0.036713
0.0421187
0.0474295
0.0525736
0.0574808
0.0620832
0.0663167
0.0701224
0.0734474
0.0762468
0.0784848
0.0801364
0.0811889
0.0816436
0.0815173
0.0808441
0.079677
0.0780894
0.0761766
0.0740563
0.0718689
0.0697755
0.0679535
0.0665896
0.0658333
0.00477808
0.00340145
0.00177449
-7.70442e-05
-0.00206818
-0.00405956
-0.00592585
-0.00756099
-0.00887562
-0.00979752
-0.0102714
-0.0102576
-0.00973117
-0.00867988
-0.00710341
-0.00501188
-0.00242472
0.000630337
0.0041182
0.00799726
0.0122202
0.0167345
0.0214837
0.0264075
0.0314428
0.0365242
0.0415852
0.0465587
0.0513777
0.0559771
0.0602937
0.0642683
0.067846
0.0709781
0.0736234
0.0757489
0.0773319
0.078361
0.0788376
0.0787768
0.0782095
0.0771824
0.0757596
0.0740227
0.0720706
0.0700176
0.0679952
0.0661456
0.0645621
0.0632873
0.00785294
0.0058083
0.00383501
0.00183306
-0.000206733
-0.00217504
-0.00397242
-0.00551686
-0.00673753
-0.00757587
-0.00798639
-0.00793636
-0.00740501
-0.00638268
-0.0048699
-0.00287646
-0.000420518
0.00247225
0.00576936
0.00943232
0.0134172
0.0176755
0.0221543
0.0267977
0.0315466
0.03634
0.0411157
0.0458106
0.0503621
0.054709
0.058792
0.0625555
0.0659479
0.0689236
0.0714434
0.0734763
0.0750007
0.0760051
0.0764897
0.0764671
0.0759635
0.0750188
0.0736873
0.0720373
0.0701494
0.0681152
0.0660413
0.0640419
0.0621215
0.0601995
0.0111581
0.00839345
0.00599987
0.00376112
0.00158176
-0.000451888
-0.00226143
-0.00378597
-0.00497168
-0.00577305
-0.00615455
-0.00609075
-0.00556596
-0.0045738
-0.00311655
-0.00120457
0.00114443
0.00390598
0.00704947
0.0105387
0.0143326
0.0183856
0.0226482
0.0270677
0.0315886
0.0361535
0.0407035
0.045179
0.0495209
0.0536708
0.0575726
0.0611731
0.0644231
0.0672788
0.0697023
0.0716634
0.0731402
0.0741204
0.074602
0.0745943
0.0741179
0.073206
0.071903
0.0702648
0.0683561
0.0662483
0.0640287
0.0617903
0.0594556
0.0568311
0.0144825
0.0109854
0.00812948
0.0055943
0.00320823
0.0010411
-0.000845101
-0.00240743
-0.00360707
-0.00441053
-0.00479182
-0.00473287
-0.00422343
-0.00326088
-0.00184994
-2.18418e-06
0.00226439
0.00492582
0.00795266
0.0113104
0.01496
0.0188583
0.0229583
0.02721
0.0315608
0.0359561
0.0403396
0.0446545
0.048844
0.0528521
0.0566247
0.0601101
0.0632607
0.0660332
0.0683904
0.0703016
0.0717439
0.0727032
0.0731746
0.0731632
0.0726845
0.0717642
0.070438
0.0687504
0.0667524
0.0644991
0.0620628
0.0595225
0.056728
0.0533861
0.0176622
0.0134404
0.0101017
0.0072323
0.00459359
0.00224422
0.000233735
-0.00140989
-0.00266081
-0.0034963
-0.00389925
-0.00385869
-0.00336985
-0.00243419
-0.00105921
0.000741757
0.0029499
0.0055412
0.00848677
0.0117532
0.0153028
0.0190942
0.0230825
0.0272197
0.0314553
0.0357367
0.0400099
0.0442199
0.0483116
0.0522305
0.0559235
0.0593401
0.0624328
0.0651586
0.0674794
0.0693636
0.0707865
0.0717314
0.0721901
0.0721631
0.0716605
0.0707011
0.0693123
0.067529
0.0653905
0.0629388
0.0602359
0.0573516
0.054073
0.0500173
0.0205689
0.0156387
0.0118096
0.00858311
0.00566138
0.00309595
0.00092715
-0.000829358
-0.00215883
-0.00304801
-0.00348787
-0.00347413
-0.0030074
-0.00209326
-0.000742275
0.00103017
0.00320402
0.00575473
0.00865348
0.0118674
0.0153598
0.0190904
0.0230157
0.0270894
0.0312624
0.0354836
0.0397004
0.0438591
0.0479056
0.0517862
0.0554482
0.0588412
0.0619174
0.0646328
0.0669483
0.0688302
0.0702516
0.0711925
0.0716408
0.0715925
0.0710522
0.0700321
0.0685523
0.0666394
0.0643231
0.0616351
0.0586307
0.055375
0.0515998
0.0468416
0.0231004
0.0174796
0.0131591
0.00956227
0.00633801
0.00353374
0.0011832
-0.000708115
-0.00213487
-0.00309212
-0.00357809
-0.00359473
-0.00314777
-0.00224692
-0.000905902
0.000857607
0.003022
0.00556184
0.00844798
0.0116476
0.0151246
0.0188394
0.0227493
0.0268091
0.0309706
0.0351838
0.0393969
0.0435568
0.0476097
0.0515023
0.0551815
0.0585962
0.0616976
0.0644403
0.0667832
0.0686902
0.0701311
0.0710824
0.0715279
0.0714588
0.070874
0.06978
0.0681901
0.0661238
0.0636032
0.0606522
0.0573218
0.0536764
0.0493981
0.0439491
0.0251724
0.0188764
0.0140661
0.0100918
0.00655306
0.00349542
0.000947975
-0.00109216
-0.00262771
-0.00366096
-0.0041967
-0.0042426
-0.00380929
-0.0029105
-0.00156313
0.000212674
0.00239353
0.00495283
0.00786075
0.0110843
0.0145872
0.0183304
0.0222718
0.0263664
0.0305668
0.0348234
0.0390846
0.0432976
0.0474084
0.051363
0.0551078
0.0585903
0.0617601
0.0645696
0.066975
0.0689371
0.0704224
0.0714031
0.0718585
0.0717749
0.0711459
0.0699721
0.068261
0.0660262
0.0632834
0.0600506
0.0563773
0.0523292
0.0475429
0.0414108
0.0267118
0.0197518
0.0144541
0.0100986
0.00623846
0.00291895
0.00016592
-0.0020306
-0.00368028
-0.00479182
-0.00537593
-0.00544561
-0.00501611
-0.00410505
-0.00273258
-0.000921372
0.00130324
0.00391326
0.0068779
0.0101636
0.0137339
0.0175497
0.0215689
0.0257467
0.0300359
0.0343869
0.038748
0.0430659
0.0472861
0.0513537
0.0552134
0.0588111
0.0620941
0.065012
0.067518
0.0695691
0.0711276
0.0721614
0.0726448
0.072559
0.0718922
0.0706397
0.0688035
0.066392
0.063416
0.0598889
0.0558603
0.0513993
0.0460997
0.0392862
0.0276524
0.0200347
0.0142509
0.00951238
0.00532744
0.001742
-0.00122027
-0.00357546
-0.00533938
-0.00652652
-0.00715302
-0.00723686
-0.00679771
-0.00585701
-0.0044381
-0.00256629
-0.00026899
0.00242422
0.0054814
0.00886818
0.0125476
0.0164802
0.0206236
0.0249331
0.029361
0.0338575
0.0383704
0.0428456
0.0472276
0.0514598
0.0554854
0.0592476
0.062691
0.065762
0.0684099
0.0705877
0.0722528
0.0733683
0.0739033
0.0738335
0.0731417
0.0718178
0.0698589
0.0672686
0.0640538
0.0602244
0.0558314
0.0509486
0.0451281
0.0376281
0.0279311
0.019657
0.013387
0.00826445
0.00375344
-9.87145e-05
-0.00326989
-0.00578167
-0.00765545
-0.00891105
-0.00956973
-0.00965421
-0.00918843
-0.00819759
-0.00670826
-0.00474842
-0.00234767
0.000462671
0.00364934
0.00717697
0.0110079
0.015102
0.0194166
0.0239063
0.0285233
0.0332169
0.0379342
0.0426199
0.0472172
0.0516674
0.0559115
0.0598899
0.0635439
0.0668161
0.0696513
0.0719977
0.0738078
0.0750389
0.0756547
0.075625
0.074927
0.0735452
0.0714718
0.0687062
0.0652515
0.0611153
0.0563506
0.0510372
0.0446855
0.0364864
0.0274855
0.0185516
0.0117934
0.00628587
0.001449
-0.00266817
-0.00604467
-0.0087072
-0.0106825
-0.0119954
-0.012672
-0.0127399
-0.012227
-0.0111624
-0.0095759
-0.00749821
-0.00496123
-0.00199814
0.00135634
0.00506567
0.00909129
0.0133924
0.0179256
0.022645
0.027502
0.0324451
0.0374203
0.0423711
0.0472385
0.0519621
0.0564799
0.0607291
0.0646471
0.0681722
0.0712444
0.0738065
0.0758051
0.0771916
0.0779234
0.0779641
0.0772849
0.0758646
0.0736905
0.0707579
0.0670666
0.0626218
0.0574795
0.051726
0.0448295
0.0359116
0.026252
0.0166503
0.00939979
0.00350621
-0.00165531
-0.00603381
-0.00960927
-0.0124134
-0.0144781
-0.0158333
-0.01651
-0.0165401
-0.0159563
-0.0147911
-0.0130777
-0.0108498
-0.00814159
-0.00498826
-0.00142609
0.00250711
0.00677177
0.0113262
0.0161264
0.0211256
0.0262745
0.0315205
0.0368084
0.0420801
0.0472748
0.0523292
0.0571785
0.0617562
0.0659956
0.0698298
0.0731936
0.0760236
0.0782602
0.079848
0.0807373
0.0808852
0.0802561
0.078823
0.0765677
0.0734813
0.0695602
0.0648076
0.0592828
0.053079
0.0456206
0.0359572
0.0241638
0.0138821
0.00613338
-0.000147744
-0.00563195
-0.0102663
-0.0140318
-0.0169653
-0.0191038
-0.0204825
-0.0211374
-0.0211051
-0.0204227
-0.0191267
-0.0172537
-0.0148405
-0.0119237
-0.00854054
-0.00472904
-0.000528312
0.004021
0.00887632
0.0139928
0.019323
0.0248166
0.0304201
0.036077
0.0417273
0.047308
0.0527534
0.0579951
0.0629628
0.0675848
0.0717891
0.0755043
0.0786605
0.0811908
0.0830323
0.0841278
0.0844266
0.083886
0.0824722
0.0801611
0.076939
0.072799
0.0677419
0.0618304
0.0551653
0.0471246
0.0366823
0.0211498
0.0101721
0.00191732
-0.00475319
-0.0105574
-0.0154405
-0.0193847
-0.022432
-0.0246252
-0.0260047
-0.0266119
-0.0264886
-0.0256761
-0.0242155
-0.022147
-0.0195103
-0.0163448
-0.01269
-0.00858562
-0.00407206
0.000808894
0.00601381
0.0114971
0.0172105
0.0231028
0.0291197
0.0352031
0.0412915
0.0473196
0.0532187
0.0589169
0.0643397
0.0694104
0.074051
0.0781833
0.0817303
0.0846169
0.086772
0.0881298
0.0886309
0.0882245
0.086869
0.0845338
0.0811999
0.076856
0.0715003
0.0651992
0.0580608
0.0494143
0.0381533
0.0171333
0.00544008
-0.00333036
-0.0103924
-0.0165132
-0.0216361
-0.0257448
-0.0288872
-0.031112
-0.0324656
-0.032995
-0.0327474
-0.0317694
-0.0301064
-0.0278026
-0.0249011
-0.0214441
-0.0174733
-0.0130303
-0.00815677
-0.00289563
0.00270889
0.00861053
0.0147604
0.0211068
0.0275941
0.0341633
0.040751
0.0472899
0.0537083
0.0599307
0.065878
0.071468
0.0766164
0.0812379
0.0852471
0.0885603
0.091097
0.0927814
0.0935448
0.0933265
0.0920764
0.089756
0.08634
0.081812
0.076167
0.0694745
0.0618506
0.0525718
0.0404461
0.0120313
-0.000400637
-0.00969802
-0.017154
-0.0235868
-0.0289386
-0.0331948
-0.0364096
-0.0386387
-0.0399348
-0.0403514
-0.0399417
-0.0387579
-0.0368503
-0.0342675
-0.0310561
-0.0272614
-0.0229276
-0.0180978
-0.0128153
-0.00712386
-0.00106839
0.00530438
0.0119452
0.0188017
0.0258178
0.0329333
0.0400835
0.0471989
0.054205
0.0610226
0.0675678
0.0737529
0.0794867
0.0846761
0.0892266
0.0930449
0.0960398
0.0981247
0.0992194
0.0992527
0.0981638
0.0959053
0.0924439
0.0877573
0.0818361
0.0747526
0.0666307
0.0566903
0.0436478
0.00575319
-0.00744436
-0.0172817
-0.0251339
-0.0318731
-0.0374403
-0.0418232
-0.0450836
-0.0472845
-0.0484862
-0.0487494
-0.0481342
-0.0466989
-0.0444994
-0.0415891
-0.0380187
-0.0338366
-0.0290894
-0.0238223
-0.0180797
-0.0119062
-0.00534706
0.00155066
0.00873766
0.0161614
0.0237656
0.0314893
0.0392666
0.0470263
0.0546911
0.0621783
0.0693993
0.0762604
0.0826633
0.0885063
0.0936854
0.0980962
0.101636
0.104205
0.105711
0.10607
0.105208
0.103068
0.0996062
0.094793
0.0886133
0.0811418
0.0725098
0.0618763
0.0478591
-0.00180016
-0.0157943
-0.0261863
-0.034437
-0.0414752
-0.0472412
-0.0517259
-0.0549994
-0.0571337
-0.0581976
-0.0582602
-0.0573893
-0.0556506
-0.0531061
-0.0498146
-0.0458312
-0.0412078
-0.0359937
-0.0302358
-0.0239797
-0.0172706
-0.0101539
-0.0026765
0.00511272
0.0131615
0.0214138
0.0298083
0.0382787
0.0467521
0.0551491
0.0633835
0.0713622
0.0789854
0.0861474
0.0927374
0.0986409
0.103741
0.107923
0.111072
0.113081
0.113851
0.113294
0.11134
0.107933
0.103033
0.0966186
0.0887655
0.0796125
0.0682519
0.0531959
-0.0107378
-0.0255643
-0.0365274
-0.0451786
-0.0525061
-0.0584504
-0.0630064
-0.0662542
-0.0682761
-0.069151
-0.0689577
-0.0677733
-0.0656717
-0.0627221
-0.0589894
-0.0545336
-0.0494105
-0.0436719
-0.0373666
-0.0305414
-0.0232415
-0.0155121
-0.00739943
0.00104849
0.00978041
0.018741
0.0278696
0.0370997
0.0463576
0.0555622
0.0646244
0.0734466
0.0819231
0.0899405
0.0973785
0.104111
0.110009
0.114942
0.118779
0.121396
0.122677
0.122517
0.120828
0.117542
0.112605
0.105988
0.0977642
0.0880808
0.0759576
0.0597923
-0.0211799
-0.0368801
-0.0484332
-0.057486
-0.0650904
-0.0711873
-0.0757774
-0.0789524
-0.0808069
-0.0814319
-0.0809178
-0.0793527
-0.0768197
-0.0733968
-0.0691556
-0.0641616
-0.0584748
-0.0521499
-0.0452374
-0.0377848
-0.0298372
-0.021439
-0.0126351
-0.00347196
0.00600092
0.0157298
0.0256555
0.0357121
0.045826
0.0559151
0.0658878
0.0756427
0.0850685
0.094044
0.102439
0.110116
0.11693
0.122735
0.127383
0.130728
0.132636
0.132979
0.131652
0.128567
0.123656
0.116875
0.108298
0.098078
0.0851547
0.0678029
-0.0332599
-0.0498822
-0.0620468
-0.0715014
-0.0793661
-0.0855835
-0.0901616
-0.0932064
-0.0948272
-0.0951296
-0.0942179
-0.0921931
-0.0891498
-0.0851755
-0.0803498
-0.0747445
-0.068424
-0.061446
-0.0538628
-0.0457219
-0.0370681
-0.0279442
-0.018393
-0.00845861
0.00181227
0.0123685
0.0231533
0.0341025
0.0451437
0.0561946
0.0671622
0.077942
0.0884173
0.0984595
0.107929
0.116674
0.124536
0.131349
0.136945
0.141157
0.143824
0.144798
0.143945
0.141158
0.136349
0.129457
0.120552
0.109792
0.0960297
0.0774065
-0.0471267
-0.0647285
-0.0775291
-0.0873843
-0.0954875
-0.101785
-0.106294
-0.109137
-0.110444
-0.110336
-0.108935
-0.106358
-0.102712
-0.0980971
-0.0926009
-0.0863026
-0.0792714
-0.0715683
-0.0632466
-0.054354
-0.044934
-0.035027
-0.024673
-0.0139123
-0.00278796
0.00865282
0.0203568
0.0322632
0.0443017
0.0563914
0.0684388
0.0803373
0.0919659
0.103189
0.113857
0.123805
0.132858
0.140831
0.147531
0.152767
0.156349
0.158099
0.157856
0.155485
0.150872
0.143935
0.134738
0.123439
0.108798
0.0888098
-0.062948
-0.0815981
-0.0950633
-0.105315
-0.113628
-0.119953
-0.124321
-0.126876
-0.127769
-0.127145
-0.125146
-0.121907
-0.117551
-0.112191
-0.105927
-0.098844
-0.0910174
-0.0825109
-0.073379
-0.0636687
-0.0534212
-0.0426739
-0.0314623
-0.0198223
-0.00779151
0.00458811
0.0172685
0.0301935
0.0432969
0.0565004
0.0697119
0.0828239
0.0957122
0.108235
0.120233
0.131529
0.141931
0.151229
0.159209
0.165648
0.170324
0.173024
0.173552
0.171738
0.167437
0.16054
0.151098
0.13927
0.123709
0.102252
-0.0809144
-0.100696
-0.114859
-0.125501
-0.133985
-0.140271
-0.144407
-0.146564
-0.146922
-0.145653
-0.142924
-0.138891
-0.1337
-0.127476
-0.120331
-0.112361
-0.103646
-0.0942513
-0.084233
-0.0736363
-0.0624993
-0.050855
-0.0387333
-0.0261636
-0.013177
0.000191577
0.0139011
0.027902
0.0421338
0.0565229
0.0709803
0.0853998
0.0996554
0.113601
0.127068
0.139866
0.151786
0.162596
0.172052
0.179897
0.185874
0.189727
0.191218
0.190133
0.186288
0.179539
0.169916
0.157576
0.141054
0.118013
-0.101245
-0.122262
-0.137161
-0.148181
-0.156784
-0.162944
-0.166731
-0.168354
-0.168026
-0.165953
-0.162334
-0.157354
-0.151178
-0.143952
-0.1358
-0.126827
-0.11712
-0.106746
-0.0957606
-0.0842068
-0.0721182
-0.0595216
-0.0464399
-0.0328945
-0.0189077
-0.00450547
0.01028
0.0254078
0.0408257
0.056467
0.0722483
0.0880664
0.103796
0.119289
0.134369
0.148834
0.162455
0.17498
0.186131
0.195616
0.203132
0.208377
0.21106
0.210914
0.207703
0.201237
0.19152
0.178698
0.161174
0.136416
-0.124196
-0.146574
-0.162256
-0.173633
-0.182286
-0.188205
-0.191495
-0.19241
-0.191207
-0.188137
-0.183436
-0.177322
-0.169987
-0.161598
-0.152294
-0.14219
-0.131377
-0.119925
-0.107889
-0.095306
-0.0822043
-0.0686029
-0.0545155
-0.0399536
-0.0249287
-0.00945564
0.00644475
0.0227427
0.0393965
0.0563492
0.0735257
0.0908291
0.108138
0.125302
0.142142
0.158446
0.173967
0.188428
0.20152
0.212909
0.222241
0.229159
0.233307
0.234355
0.232
0.225991
0.216294
0.203037
0.184467
0.157843
-0.150069
-0.173969
-0.190485
-0.202188
-0.210793
-0.216321
-0.218922
-0.218908
-0.216595
-0.212289
-0.206273
-0.198803
-0.190104
-0.180367
-0.169746
-0.158367
-0.146325
-0.133691
-0.120516
-0.106832
-0.0926576
-0.0780029
-0.0628701
-0.0472581
-0.0311656
-0.0145936
0.00245085
0.0199518
0.0378812
0.0561948
0.074829
0.0936968
0.112683
0.131642
0.150392
0.168713
0.186345
0.202984
0.218289
0.23188
0.243349
0.25227
0.258213
0.260766
0.259543
0.254214
0.244689
0.231064
0.21141
0.182744
-0.17923
-0.204851
-0.222262
-0.23424
-0.242665
-0.247601
-0.249261
-0.248035
-0.244318
-0.238481
-0.230866
-0.221777
-0.211475
-0.200177
-0.188054
-0.175241
-0.161837
-0.147911
-0.133507
-0.118651
-0.103349
-0.0875986
-0.0713884
-0.0547022
-0.0375228
-0.0198352
-0.00162969
0.0170947
0.0363265
0.0560379
0.0761806
0.0966812
0.117436
0.138307
0.159115
0.179637
0.1996
0.218679
0.236498
0.252631
0.266606
0.27792
0.286054
0.290496
0.290752
0.286389
0.277237
0.263345
0.242569
0.211656
-0.212123
-0.23972
-0.258093
-0.270266
-0.278324
-0.282398
-0.282788
-0.27999
-0.274497
-0.266765
-0.257209
-0.246189
-0.234005
-0.220902
-0.20707
-0.192651
-0.177743
-0.162411
-0.146692
-0.130596
-0.114117
-0.097238
-0.0799287
-0.0621558
-0.0438834
-0.0250774
-0.00570844
0.0142445
0.0347901
0.0559206
0.0776075
0.0997955
0.122398
0.145289
0.168299
0.191206
0.213731
0.23553
0.256196
0.275252
0.29216
0.306329
0.317132
0.323935
0.326108
0.323082
0.314575
0.300557
0.27863
0.245221
-0.249306
-0.2792
-0.298606
-0.31085
-0.318279
-0.321122
-0.319809
-0.314974
-0.307237
-0.297165
-0.285255
-0.271934
-0.257547
-0.242367
-0.226599
-0.210387
-0.193829
-0.176978
-0.159858
-0.142463
-0.12477
-0.10674
-0.0883234
-0.0694659
-0.05011
-0.0301994
-0.00968194
0.0114866
0.0333389
0.0558912
0.0791391
0.103051
0.127564
0.15257
0.177917
0.203391
0.228714
0.253531
0.277406
0.299815
0.320147
0.337715
0.351767
0.361517
0.366165
0.364959
0.357463
0.343527
0.320432
0.284226
-0.291483
-0.324087
-0.344595
-0.356713
-0.363137
-0.36425
-0.360658
-0.353185
-0.342618
-0.329656
-0.3149
-0.298847
-0.281892
-0.264331
-0.246381
-0.228185
-0.209828
-0.191351
-0.172756
-0.154015
-0.135082
-0.115895
-0.0963804
-0.0764585
-0.0560474
-0.0350655
-0.0134348
0.00891554
0.0320455
0.0559999
0.0808035
0.106455
0.132918
0.160116
0.187919
0.216135
0.244494
0.272639
0.300116
0.326356
0.350678
0.372289
0.390292
0.40372
0.411557
0.41281
0.406825
0.39327
0.369011
0.329636
-0.339571
-0.375413
-0.397071
-0.408756
-0.413634
-0.412325
-0.405689
-0.394804
-0.380671
-0.36415
-0.345962
-0.326682
-0.306748
-0.286479
-0.26609
-0.245716
-0.225421
-0.205222
-0.185091
-0.164976
-0.1448
-0.124471
-0.103888
-0.0829432
-0.0615273
-0.03953
-0.0168446
0.00662948
0.0309833
0.0562942
0.0826216
0.109999
0.138429
0.16787
0.198228
0.229343
0.260969
0.292761
0.324258
0.354859
0.383818
0.410229
0.433036
0.451057
0.463002
0.467565
0.463783
0.451049
0.425676
0.382667
-0.394779
-0.434537
-0.45735
-0.468109
-0.470656
-0.465967
-0.455265
-0.43997
-0.42135
-0.400463
-0.378159
-0.355089
-0.33173
-0.308407
-0.285323
-0.262586
-0.24023
-0.218234
-0.196535
-0.175042
-0.153644
-0.132214
-0.110619
-0.0887197
-0.0663751
-0.0434442
-0.019789
0.00472369
0.0302192
0.0568116
0.0845997
0.113659
0.144037
0.17574
0.208722
0.242868
0.277976
0.313732
0.349687
0.385228
0.419554
0.451655
0.480303
0.504062
0.521311
0.530327
0.529718
0.518461
0.492102
0.444869
-0.458745
-0.50329
-0.527156
-0.536205
-0.535265
-0.525859
-0.509727
-0.488738
-0.464493
-0.438275
-0.411068
-0.383589
-0.356332
-0.329608
-0.303587
-0.278329
-0.253821
-0.229989
-0.206723
-0.183884
-0.161319
-0.138863
-0.116343
-0.0935871
-0.0704192
-0.0466657
-0.0221549
0.00328139
0.0298057
0.0575696
0.0867204
0.11738
0.149648
0.183591
0.219224
0.256497
0.295272
0.335291
0.376148
0.417247
0.457758
0.496584
0.532324
0.563263
0.587371
0.602394
0.606336
0.597548
0.570477
0.518273
-0.533743
-0.584185
-0.608783
-0.614858
-0.608718
-0.592725
-0.56934
-0.541017
-0.509757
-0.477079
-0.444088
-0.411541
-0.379913
-0.349465
-0.320301
-0.292412
-0.265709
-0.240052
-0.215267
-0.19116
-0.167527
-0.144156
-0.120837
-0.0973555
-0.0735026
-0.0490694
-0.0238492
0.00236317
0.0297709
0.0585548
0.0889321
0.121066
0.155119
0.191227
0.229485
0.269927
0.312504
0.357051
0.40324
0.450535
0.498126
0.544864
0.589196
0.629116
0.662121
0.685274
0.695752
0.690962
0.663727
0.60561
-0.62303
-0.680745
-0.705318
-0.70636
-0.692465
-0.667261
-0.634204
-0.596479
-0.556531
-0.516107
-0.476387
-0.438108
-0.40167
-0.367234
-0.334795
-0.304235
-0.275367
-0.247963
-0.221771
-0.19653
-0.171976
-0.14785
-0.123895
-0.0998595
-0.0754957
-0.0505602
-0.0248112
0.00199264
0.0300924
0.0597264
0.0911406
0.12457
0.160246
0.198383
0.239169
0.282747
0.32919
0.378459
0.430362
0.484482
0.540097
0.596077
0.650775
0.701917
0.746476
0.780679
0.800586
0.802195
0.775858
0.710675
-0.731444
-0.798022
-0.820938
-0.81357
-0.788088
-0.750006
-0.704096
-0.654404
-0.603821
-0.554247
-0.506841
-0.462221
-0.420627
-0.382047
-0.346308
-0.313145
-0.28224
-0.253255
-0.225844
-0.199669
-0.174403
-0.149732
-0.125353
-0.100973
-0.0763105
-0.051086
-0.0250242
0.00215178
0.0307218
0.0609708
0.093192
0.127685
0.164755
0.204706
0.247837
0.294421
0.344682
0.398762
0.456663
0.518171
0.582751
0.64941
0.716521
0.781626
0.84119
0.890464
0.924048
0.935882
0.912494
0.838964
-0.866489
-0.943417
-0.961311
-0.939955
-0.897142
-0.841095
-0.778222
-0.713478
-0.650089
-0.589934
-0.533972
-0.482552
-0.435626
-0.392916
-0.354015
-0.318461
-0.285772
-0.255477
-0.227127
-0.200296
-0.174591
-0.14964
-0.125095
-0.100625
-0.0759136
-0.0506499
-0.024527
0.00276442
0.0315406
0.0621289
0.0948726
0.130133
0.168293
0.209755
0.254938
0.304266
0.358154
0.416969
0.480984
0.550291
0.624682
0.703475
0.785262
0.867603
0.946582
1.01644
1.06998
1.09821
1.08173
0.998827
-1.04042
-1.12798
-1.13406
-1.0895
-1.02078
-0.939828
-0.854839
-0.771507
-0.693064
-0.621036
-0.555895
-0.497494
-0.445335
-0.398761
-0.357053
-0.319501
-0.285433
-0.254227
-0.225317
-0.198193
-0.172388
-0.147479
-0.123075
-0.0988105
-0.0743377
-0.0493193
-0.0234216
0.00369247
0.0323707
0.0629782
0.0959045
0.13157
0.170434
0.212997
0.259808
0.31146
0.368583
0.431825
0.501807
0.57905
0.663849
0.75609
0.854883
0.958193
1.06208
1.15999
1.24273
1.29739
1.29547
1.20367
-1.27449
-1.36844
-1.34907
-1.26615
-1.15898
-1.04392
-0.930676
-0.825021
-0.729513
-0.644748
-0.570285
-0.505179
-0.44829
-0.398452
-0.354566
-0.315631
-0.280762
-0.249179
-0.220199
-0.193225
-0.167729
-0.143239
-0.119328
-0.0956012
-0.0716881
-0.0472309
-0.0218758
0.00473528
0.0329744
0.0632368
0.0959511
0.13159
0.170681
0.213821
0.261686
0.315044
0.374763
0.441809
0.517229
0.602104
0.697441
0.803989
0.921884
1.05009
1.18542
1.32119
1.44658
1.54392
1.5715
1.47645
-1.60769
-1.69015
-1.61793
-1.47212
-1.30873
-1.1481
-0.999986
-0.868719
-0.75495
-0.657471
-0.574352
-0.503503
-0.442934
-0.390864
-0.345756
-0.306301
-0.271397
-0.240112
-0.211657
-0.185362
-0.160645
-0.136999
-0.11397
-0.0911463
-0.068142
-0.0445879
-0.0201192
0.00563416
0.0330592
0.0625713
0.0946266
0.129737
0.168488
0.211556
0.259733
0.313955
0.375326
0.44515
0.524952
0.616483
0.721674
0.842518
0.980765
1.13733
1.31109
1.49691
1.68388
1.85
1.93651
1.85882
-2.11209
-2.13083
-1.95209
-1.70485
-1.46137
-1.24229
-1.05354
-0.895015
-0.763522
-0.654869
-0.56498
-0.490276
-0.427761
-0.374988
-0.329973
-0.291117
-0.257127
-0.226946
-0.199707
-0.174684
-0.151267
-0.128927
-0.1072
-0.0856667
-0.0639401
-0.0416495
-0.0184301
0.00608964
0.0322998
0.0606223
0.0915265
0.125546
0.163303
0.20553
0.253108
0.30711
0.368849
0.439945
0.522406
0.618706
0.731862
0.865459
1.02355
1.21023
1.4285
1.67803
1.95191
2.22758
2.42966
2.42631
-2.91853
-2.74066
-2.35925
-1.95484
-1.60147
-1.31154
-1.07929
-0.895087
-0.749132
-0.632914
-0.539616
-0.463961
-0.401919
-0.350418
-0.307102
-0.270151
-0.23814
-0.209941
-0.184646
-0.161513
-0.139924
-0.119353
-0.0993414
-0.0794797
-0.0593905
-0.0387148
-0.0170991
0.00581737
0.0304144
0.057106
0.0863562
0.118699
0.154765
0.195309
0.241261
0.293773
0.354304
0.42472
0.507434
0.605597
0.723336
0.866051
1.04071
1.25598
1.52187
1.84827
2.2404
2.68432
3.10191
3.31316
-4.32379
-3.5601
-2.81523
-2.18878
-1.69848
-1.33204
-1.06094
-0.858656
-0.705674
-0.588208
-0.496551
-0.423868
-0.365314
-0.317402
-0.277573
-0.243919
-0.214987
-0.189649
-0.167013
-0.146361
-0.127099
-0.108726
-0.0908105
-0.0729673
-0.0548428
-0.0361014
-0.0164129
0.00455983
0.0271733
0.0518171
0.078931
0.109024
0.142704
0.180706
0.223948
0.27359
0.331129
0.398537
0.478457
0.574495
0.691659
0.837014
1.0206
1.25667
1.5654
1.97447
2.51365
3.19357
3.99333
4.82419
-7.15777
-4.55832
-3.139
-2.25242
-1.64476
-1.23372
-0.953999
-0.757462
-0.614825
-0.508446
-0.427173
-0.36372
-0.313204
-0.272251
-0.23846
-0.210073
-0.185771
-0.164543
-0.145591
-0.128278
-0.112079
-0.0965505
-0.0813123
-0.0660245
-0.0503755
-0.0340695
-0.0168144
0.00168632
0.0217477
0.0437144
0.0679755
0.0949831
0.125276
0.159514
0.198517
0.243337
0.295342
0.356362
0.4289
0.51647
0.62416
0.759552
0.934266
1.16665
1.48706
1.94575
2.61218
3.57093
5.07643
7.79527
-12.0262
-5.64111
-2.9747
-1.87565
-1.2784
-0.923521
-0.703733
-0.557795
-0.454564
-0.378287
-0.32014
-0.274727
-0.238546
-0.209199
-0.184974
-0.164609
-0.147141
-0.131825
-0.118065
-0.105378
-0.0933641
-0.0816809
-0.0700316
-0.0581499
-0.0457899
-0.032717
-0.0187009
-0.00350455
0.0131212
0.0314478
0.0517804
0.0744712
0.0999363
0.12868
0.161325
0.198661
0.241705
0.291804
0.35079
0.421228
0.506863
0.613428
0.750238
0.933694
1.19575
1.60023
2.26364
3.45753
6.24101
12.7519
)
;

boundaryField
{
    movingWall
    {
        type            zeroGradient;
    }
    fixedWalls
    {
        type            zeroGradient;
    }
    frontAndBack
    {
        type            empty;
    }
}


// ************************************************************************* //
