/*--------------------------------*- C++ -*----------------------------------*\
  =========                 |
  \\      /  F ield         | OpenFOAM: The Open Source CFD Toolbox
   \\    /   O peration     | Website:  https://openfoam.org
    \\  /    A nd           | Version:  7
     \\/     M anipulation  |
\*---------------------------------------------------------------------------*/
FoamFile
{
    version     2.0;
    format      ascii;
    class       volScalarField;
    location    "0.0054";
    object      p;
}
// * * * * * * * * * * * * * * * * * * * * * * * * * * * * * * * * * * * * * //

dimensions      [0 2 -2 0 0 0 0];

internalField   nonuniform List<scalar> 
2500
(
3.24445e-07
-0.000928516
-0.00237348
-0.00376258
-0.00485226
-0.00544499
-0.00543504
-0.00477801
-0.00346482
-0.00150707
0.00107179
0.00424193
0.00797024
0.012222
0.0169613
0.0221518
0.0277557
0.0337346
0.0400489
0.0466578
0.0535194
0.0605906
0.0678275
0.0751854
0.0826188
0.0900821
0.0975289
0.104913
0.112189
0.11931
0.126232
0.13291
0.1393
0.14536
0.151048
0.156324
0.161147
0.165479
0.169282
0.17252
0.175159
0.177167
0.178521
0.179209
0.179241
0.178662
0.177582
0.1762
0.174761
0.173836
0.000909795
-2.10159e-05
-0.00108858
-0.00206438
-0.00277409
-0.00306836
-0.00285289
-0.00207671
-0.000717435
0.00122775
0.00374839
0.00682526
0.0104335
0.0145443
0.0191264
0.0241463
0.0295687
0.0353568
0.0414723
0.0478758
0.0545261
0.0613815
0.0683989
0.0755345
0.082744
0.0899824
0.0972046
0.104365
0.11142
0.118323
0.125031
0.131501
0.137689
0.143554
0.149057
0.154157
0.158819
0.163007
0.166687
0.169829
0.172408
0.174402
0.175801
0.176608
0.176846
0.176568
0.175869
0.174901
0.173839
0.172912
0.00233002
0.00102141
-5.13976e-05
-0.000889584
-0.00143814
-0.00158731
-0.0012603
-0.000412412
0.000979888
0.00292402
0.00541515
0.00843949
0.0119769
0.0160023
0.0204874
0.0254009
0.0307094
0.0363772
0.0423672
0.0486407
0.0551575
0.0618763
0.0687549
0.0757502
0.0828182
0.0899148
0.0969954
0.104015
0.110931
0.117697
0.12427
0.130609
0.13667
0.142414
0.147802
0.152795
0.157359
0.16146
0.165068
0.168157
0.170705
0.172697
0.174129
0.175007
0.175357
0.175223
0.174684
0.173852
0.172781
0.171471
0.00372345
0.00198419
0.00075038
-0.000103179
-0.000617396
-0.00071451
-0.000336298
0.000550469
0.00196451
0.00391253
0.00639103
0.00938842
0.0128869
0.0168637
0.0212924
0.0261431
0.0313837
0.0369797
0.0428945
0.0490901
0.055527
0.0621642
0.06896
0.0758715
0.0828553
0.0898676
0.0968642
0.103801
0.110633
0.117318
0.123813
0.130074
0.136061
0.141734
0.147054
0.151986
0.156494
0.160547
0.164117
0.167179
0.169715
0.171711
0.173164
0.174081
0.174481
0.174398
0.173891
0.173041
0.171806
0.170062
0.00486083
0.00270322
0.00127067
0.000343604
-0.000191914
-0.000282086
0.000115297
0.00102191
0.00245021
0.00440427
0.00688003
0.00986645
0.0133468
0.0172996
0.0216994
0.0265177
0.0317228
0.0372811
0.0431565
0.0493115
0.0557067
0.0623016
0.0690546
0.0759231
0.0828639
0.0898332
0.0967871
0.103681
0.110472
0.117117
0.123571
0.129793
0.135743
0.141381
0.146668
0.151569
0.156051
0.160082
0.163636
0.166689
0.169223
0.171226
0.172694
0.17363
0.174048
0.17397
0.17344
0.172514
0.171078
0.168913
0.00555419
0.00303413
0.00140287
0.000375536
-0.000212989
-0.000324886
6.9896e-05
0.000983145
0.00242112
0.00438452
0.00686766
0.00985902
0.0133419
0.0172954
0.0216944
0.0265109
0.0317138
0.0372696
0.0431427
0.0492954
0.0556887
0.0622822
0.0690341
0.0759019
0.0828424
0.0898117
0.0967658
0.103661
0.110452
0.117097
0.123552
0.129776
0.135727
0.141366
0.146654
0.151558
0.156042
0.160078
0.163637
0.166698
0.169241
0.171255
0.172733
0.173676
0.174091
0.17399
0.173405
0.172376
0.17074
0.168211
0.00570107
0.0028818
0.00106735
-6.93114e-05
-0.000726888
-0.000876947
-0.000497781
0.000414709
0.00186139
0.00383953
0.00634135
0.00935417
0.0128608
0.0168399
0.0212666
0.0261127
0.0313472
0.0369366
0.0428451
0.0490351
0.0554674
0.0621013
0.0688949
0.0758054
0.0827895
0.0898029
0.0968014
0.103741
0.110577
0.117265
0.123763
0.130028
0.136019
0.141697
0.147022
0.151961
0.156478
0.160544
0.164131
0.167217
0.169783
0.171814
0.173302
0.174244
0.174643
0.174503
0.173847
0.172707
0.170885
0.168057
0.00525235
0.0021877
0.000210149
-0.00103435
-0.00176604
-0.00196114
-0.00160307
-0.000693278
0.000764815
0.00276539
0.0052985
0.00835
0.0119017
0.0159317
0.0204145
0.0253215
0.0306215
0.0362804
0.0422624
0.0485292
0.0550414
0.0617577
0.068636
0.075633
0.0827046
0.0898064
0.0968936
0.103921
0.110845
0.11762
0.124202
0.13055
0.136621
0.142374
0.147772
0.152778
0.157358
0.161481
0.165119
0.168248
0.170849
0.172906
0.174407
0.175348
0.175726
0.175539
0.174808
0.173558
0.171572
0.168497
0.00418576
0.000914458
-0.0012084
-0.00255522
-0.00336036
-0.00360149
-0.00326479
-0.00235542
-0.000880045
0.00115293
0.00373154
0.00684003
0.010459
0.0145655
0.0191332
0.0241329
0.0295325
0.0352975
0.0413912
0.0477749
0.0544082
0.0612495
0.0682558
0.0753831
0.0825868
0.0898217
0.0970423
0.104203
0.111258
0.118163
0.124873
0.131344
0.137533
0.143401
0.148906
0.154013
0.158686
0.162893
0.166605
0.169798
0.172449
0.174542
0.176064
0.177006
0.177362
0.177129
0.176323
0.174969
0.172836
0.169554
0.00249138
-0.000963299
-0.0032191
-0.00466261
-0.00553831
-0.00582335
-0.00550497
-0.00459072
-0.00308962
-0.00101218
0.00162779
0.00481291
0.00852238
0.012732
0.0174144
0.0225392
0.0280735
0.0339816
0.040226
0.0467671
0.0535637
0.0605731
0.0677514
0.0750539
0.0824349
0.0898483
0.0972477
0.104587
0.111818
0.118897
0.125777
0.132413
0.138762
0.144782
0.150432
0.155674
0.160471
0.16479
0.168601
0.171878
0.174597
0.176739
0.17829
0.179239
0.179577
0.1793
0.178422
0.17697
0.174702
0.171235
0.00016308
-0.00346527
-0.00584783
-0.00738417
-0.00832732
-0.00865274
-0.00834767
-0.00742111
-0.00588379
-0.00374794
-0.0010291
0.00225375
0.00607828
0.0104188
0.0152467
0.0205302
0.026235
0.0323244
0.0387595
0.0454997
0.0525024
0.059724
0.0671194
0.0746426
0.0822471
0.0898854
0.09751
0.105073
0.112527
0.119825
0.126919
0.133764
0.140314
0.146526
0.152358
0.157769
0.162723
0.167184
0.17112
0.174503
0.177308
0.179515
0.181106
0.18207
0.182397
0.182079
0.181132
0.179586
0.177189
0.173546
-0.00280663
-0.00661
-0.00911897
-0.0107468
-0.0117551
-0.0121171
-0.0118192
-0.0108714
-0.00928571
-0.00707589
-0.00425903
-0.000855792
0.00310982
0.00761054
0.012616
0.0180929
0.0240055
0.0303155
0.0369827
0.0439647
0.0512178
0.0586968
0.0663553
0.0741462
0.0820213
0.0899321
0.0978295
0.105665
0.113388
0.120951
0.128305
0.135402
0.142196
0.148642
0.154695
0.160313
0.165458
0.170091
0.17418
0.177694
0.180606
0.182893
0.184538
0.185527
0.185848
0.185493
0.18448
0.18284
0.180315
0.176495
-0.00642949
-0.0104178
-0.0130579
-0.0147787
-0.0158512
-0.016246
-0.0159486
-0.0149696
-0.013322
-0.0110211
-0.00808546
-0.00453752
-0.000403121
0.00428861
0.00950544
0.0152123
0.0213715
0.0279429
0.0348847
0.0421527
0.0497017
0.0574848
0.065454
0.0735607
0.0817552
0.0899873
0.0982065
0.106362
0.114403
0.122279
0.12994
0.137337
0.144419
0.151141
0.157456
0.16332
0.168691
0.173531
0.177802
0.181472
0.184513
0.1869
0.188613
0.189637
0.189959
0.189572
0.188494
0.186759
0.1841
0.180091
-0.0107229
-0.0149128
-0.017693
-0.0195107
-0.0206477
-0.0210722
-0.0207683
-0.0197472
-0.0180231
-0.0156124
-0.0125355
-0.00881674
-0.004484
0.000431497
0.00589535
0.0118704
0.0183167
0.0251923
0.032453
0.040053
0.047945
0.0560804
0.0644094
0.0728816
0.0814456
0.0900494
0.0986409
0.107168
0.115577
0.123816
0.131833
0.139576
0.146994
0.154037
0.160657
0.166808
0.172444
0.177524
0.182009
0.185865
0.189059
0.191566
0.193363
0.194433
0.194765
0.194348
0.193204
0.19137
0.188567
0.184353
-0.0157103
-0.0201237
-0.0230565
-0.0249773
-0.0261808
-0.0266322
-0.0263147
-0.0252399
-0.0234232
-0.0208824
-0.01764
-0.0137223
-0.00915959
-0.00398545
0.00176324
0.0080468
0.014823
0.0220473
0.0296734
0.0376532
0.0459373
0.0544749
0.0632145
0.0721036
0.081089
0.0901169
0.099133
0.108083
0.116912
0.125566
0.13399
0.14213
0.149932
0.157344
0.164315
0.170796
0.176738
0.182097
0.186831
0.190902
0.194276
0.196924
0.198822
0.199952
0.2003
0.199858
0.198646
0.196705
0.193746
0.189303
-0.0214219
-0.0260848
-0.0291859
-0.031218
-0.032491
-0.0329673
-0.0326288
-0.0314877
-0.029561
-0.0268682
-0.0234339
-0.0192869
-0.0144602
-0.00899004
-0.00291624
0.00371871
0.0108698
0.0184898
0.0265299
0.0349394
0.0436666
0.0526586
0.0618616
0.0712209
0.0806815
0.0901875
0.0996826
0.10911
0.118414
0.127536
0.13642
0.14501
0.153248
0.161079
0.16845
0.175306
0.181598
0.187277
0.192297
0.196617
0.2002
0.203014
0.205032
0.206235
0.206608
0.206141
0.204858
0.202803
0.199671
0.194972
-0.0278941
-0.0328364
-0.0361241
-0.0382778
-0.0396245
-0.0401239
-0.0397565
-0.0385358
-0.0364801
-0.0336113
-0.0299564
-0.0255472
-0.0204196
-0.0146133
-0.00817135
-0.00113939
0.00643438
0.0144997
0.0230048
0.0318964
0.0411201
0.0506206
0.0603417
0.0702268
0.0802184
0.0902586
0.100289
0.110251
0.120085
0.129732
0.139133
0.148227
0.156956
0.16526
0.173082
0.180365
0.187053
0.193096
0.198443
0.203048
0.206872
0.209878
0.212037
0.213328
0.213734
0.213245
0.211886
0.209705
0.206381
0.201395
-0.0351698
-0.0404255
-0.0439209
-0.046208
-0.0476338
-0.0481547
-0.0477501
-0.0464348
-0.0442294
-0.0411582
-0.0372512
-0.0325438
-0.0270755
-0.0208898
-0.0140333
-0.0065555
0.00149176
0.0100549
0.0190789
0.0285075
0.0382835
0.048349
0.0586454
0.0691137
0.0796943
0.0903271
0.100952
0.111507
0.121931
0.132162
0.142137
0.151795
0.161072
0.169906
0.178234
0.185997
0.193134
0.199589
0.205306
0.210238
0.214337
0.217565
0.219889
0.221284
0.221732
0.221223
0.219782
0.217463
0.213924
0.208617
-0.0432987
-0.0489059
-0.0526329
-0.0550673
-0.0565784
-0.0571193
-0.0566683
-0.0552421
-0.0528638
-0.049561
-0.0453673
-0.0403222
-0.0344695
-0.0278571
-0.0205361
-0.0125601
-0.00398509
0.00513162
0.0147314
0.0247547
0.0351415
0.0458309
0.0567621
0.0678735
0.0791033
0.0903893
0.101669
0.112878
0.123953
0.13483
0.145443
0.155726
0.165613
0.175037
0.183932
0.192232
0.199874
0.206793
0.212931
0.218233
0.222647
0.226129
0.228644
0.230162
0.230662
0.230134
0.228606
0.226134
0.222355
0.216686
-0.0523375
-0.0583391
-0.0623248
-0.0649224
-0.0665259
-0.0670852
-0.0665776
-0.065022
-0.0624449
-0.0588776
-0.0543586
-0.0489321
-0.0426471
-0.0355565
-0.0277167
-0.0191861
-0.0100251
-0.000295509
0.00994025
0.0206192
0.0316779
0.0430529
0.0546806
0.0664972
0.0784386
0.0904406
0.102438
0.114365
0.126156
0.137743
0.149059
0.160032
0.170595
0.180674
0.1902
0.199101
0.207308
0.21475
0.221363
0.227085
0.231858
0.235632
0.238366
0.240028
0.240593
0.240048
0.238424
0.235782
0.231736
0.225659
-0.0623504
-0.0687949
-0.0730704
-0.075849
-0.0775532
-0.0781289
-0.0775527
-0.0758466
-0.0730411
-0.0691726
-0.0642849
-0.0584283
-0.0516578
-0.0440325
-0.0356146
-0.0264682
-0.0166589
-0.00625304
0.00468257
0.0160811
0.027876
0.0400008
0.0523893
0.0649755
0.0776931
0.0904759
0.103257
0.115968
0.128542
0.140907
0.152993
0.164727
0.176034
0.186839
0.197065
0.206636
0.215475
0.223505
0.230653
0.236851
0.242032
0.246141
0.249129
0.250959
0.251602
0.251043
0.249315
0.246484
0.242136
0.235601
-0.0734099
-0.0803529
-0.0849534
-0.0879337
-0.0897476
-0.0903372
-0.0896783
-0.0877972
-0.0847293
-0.0805173
-0.0752119
-0.0688704
-0.0615553
-0.0533328
-0.044272
-0.0344434
-0.0239183
-0.0127685
-0.00106533
0.0111204
0.0237187
0.0366601
0.049876
0.0632982
0.0768587
0.0904892
0.104121
0.117685
0.13111
0.144324
0.157253
0.16982
0.181946
0.193552
0.204555
0.21487
0.224415
0.233104
0.240857
0.247593
0.25324
0.257732
0.261013
0.263039
0.263777
0.263207
0.261365
0.258323
0.253635
0.246583
-0.0855975
-0.0931031
-0.0980695
-0.101275
-0.103208
-0.103808
-0.10305
-0.100965
-0.0975949
-0.0929908
-0.0872116
-0.0803233
-0.0723972
-0.0635082
-0.053733
-0.0431497
-0.0318363
-0.01987
-0.00732738
0.00571665
0.0191885
0.033016
0.0471282
0.0614549
0.0759266
0.0904738
0.105026
0.119513
0.133862
0.147998
0.161845
0.175322
0.188347
0.200834
0.212695
0.223838
0.23417
0.243599
0.252032
0.25938
0.265558
0.270491
0.274111
0.276367
0.277218
0.276642
0.274675
0.271396
0.266325
0.258688
-0.0990049
-0.107148
-0.112528
-0.115985
-0.118049
-0.118654
-0.117776
-0.115452
-0.111733
-0.106681
-0.100363
-0.0928571
-0.0842453
-0.0746122
-0.0640439
-0.0526267
-0.0404461
-0.0275858
-0.0141274
-0.000150334
0.0142683
0.0290538
0.0441331
0.0594345
0.0748875
0.0904214
0.105966
0.121448
0.136794
0.151929
0.166772
0.181241
0.195249
0.208704
0.221512
0.233572
0.244784
0.255042
0.264243
0.272285
0.279071
0.28451
0.288524
0.29105
0.29204
0.291464
0.28936
0.285815
0.28031
0.272007
-0.113736
-0.122605
-0.128454
-0.132194
-0.134401
-0.135003
-0.133978
-0.131373
-0.127251
-0.121683
-0.114752
-0.106548
-0.0971651
-0.0867008
-0.0752519
-0.062914
-0.0497809
-0.0359432
-0.0214882
-0.00649973
0.00894192
0.0247595
0.0408783
0.0572259
0.073731
0.0903229
0.10693
0.123482
0.139902
0.156113
0.172035
0.187581
0.202661
0.217178
0.231029
0.244106
0.256298
0.267487
0.277557
0.286389
0.29387
0.299894
0.304368
0.307215
0.308373
0.307806
0.305553
0.301708
0.295707
0.286643
-0.129908
-0.139609
-0.145992
-0.150051
-0.152412
-0.153001
-0.151797
-0.14886
-0.144267
-0.138104
-0.130471
-0.121475
-0.111225
-0.0998318
-0.0874048
-0.0740508
-0.0598726
-0.0449683
-0.029431
-0.013349
0.00319444
0.02012
0.0373522
0.054818
0.0724466
0.0901677
0.107911
0.125605
0.143175
0.160544
0.177629
0.194343
0.210589
0.226267
0.241266
0.25547
0.268755
0.28099
0.292042
0.301775
0.310057
0.316761
0.321774
0.325002
0.326368
0.325824
0.323409
0.319223
0.312655
0.302714
-0.147654
-0.158315
-0.165312
-0.169731
-0.172259
-0.172817
-0.171392
-0.168059
-0.162913
-0.156061
-0.147623
-0.137726
-0.126497
-0.114063
-0.10055
-0.0860744
-0.0707505
-0.054684
-0.0379739
-0.0207127
-0.00298638
0.0151245
0.0335441
0.0522002
0.0710232
0.0899444
0.108895
0.127806
0.146604
0.165212
0.183546
0.201519
0.219031
0.235977
0.252239
0.26769
0.282194
0.295606
0.307771
0.318536
0.327741
0.335239
0.340889
0.344575
0.346199
0.345698
0.343106
0.338535
0.331311
0.320354
-0.16713
-0.178907
-0.186613
-0.191439
-0.194144
-0.194648
-0.192947
-0.189137
-0.183337
-0.175681
-0.166315
-0.155389
-0.143053
-0.129453
-0.114731
-0.0990186
-0.0824398
-0.0651088
-0.0471307
-0.0286015
-0.00960946
0.00976457
0.0294455
0.049363
0.0694497
0.0896401
0.109869
0.130069
0.15017
0.170098
0.189771
0.209098
0.227981
0.246307
0.263955
0.280786
0.29665
0.311385
0.324816
0.336764
0.347042
0.35547
0.361879
0.366119
0.368068
0.367639
0.36486
0.359849
0.351864
0.339718
-0.188513
-0.201602
-0.210131
-0.215417
-0.218309
-0.218723
-0.216672
-0.212281
-0.205703
-0.197104
-0.186662
-0.174557
-0.160965
-0.146056
-0.129989
-0.112912
-0.0949597
-0.0762553
-0.0569093
-0.0370208
-0.0166791
0.00403558
0.0250504
0.046298
0.0677151
0.0892407
0.110814
0.132373
0.153853
0.175181
0.196279
0.217058
0.237419
0.257246
0.276411
0.294766
0.312148
0.328374
0.343247
0.356557
0.368085
0.377612
0.38493
0.38985
0.392211
0.391897
0.388923
0.383412
0.374537
0.360984
-0.212019
-0.22666
-0.236152
-0.241959
-0.245036
-0.245308
-0.24281
-0.237706
-0.230193
-0.22048
-0.208785
-0.195324
-0.180304
-0.163922
-0.146357
-0.127775
-0.108321
-0.0881277
-0.0673099
-0.0459689
-0.0241937
-0.00206226
0.0203561
0.042999
0.0658089
0.0887312
0.111712
0.134695
0.157623
0.180428
0.203038
0.225366
0.247315
0.268768
0.289591
0.309629
0.328702
0.34661
0.363128
0.378011
0.391002
0.401836
0.410253
0.416013
0.418906
0.418771
0.415602
0.409523
0.3996
0.384369
-0.237902
-0.254401
-0.265023
-0.271416
-0.274669
-0.27472
-0.271641
-0.265652
-0.257007
-0.24597
-0.232808
-0.217781
-0.201133
-0.183091
-0.163858
-0.143616
-0.122523
-0.100719
-0.0783221
-0.0554346
-0.0321433
-0.00852219
0.0153651
0.0394632
0.0637222
0.088096
0.11254
0.137006
0.161445
0.1858
0.210004
0.233977
0.257625
0.280832
0.303463
0.325353
0.346311
0.366115
0.384512
0.401219
0.415931
0.428327
0.438084
0.444894
0.44848
0.44862
0.445272
0.438551
0.427389
0.410135
-0.266483
-0.285224
-0.297179
-0.304222
-0.307616
-0.30733
-0.30349
-0.296392
-0.286365
-0.273743
-0.258855
-0.242013
-0.223506
-0.203592
-0.1825
-0.160429
-0.13755
-0.114007
-0.0899223
-0.065395
-0.040508
-0.0153291
0.0100863
0.0356919
0.0614481
0.0873197
0.113273
0.139272
0.165279
0.191247
0.217121
0.242829
0.268284
0.293377
0.31797
0.341895
0.36495
0.386892
0.407437
0.426262
0.443006
0.45728
0.468683
0.476818
0.481319
0.481877
0.478392
0.470957
0.458326
0.43861
-0.298166
-0.319635
-0.333161
-0.34091
-0.344377
-0.343583
-0.338734
-0.330232
-0.318504
-0.303973
-0.287045
-0.268095
-0.247459
-0.225432
-0.202269
-0.178187
-0.153365
-0.127953
-0.10207
-0.0758122
-0.0492553
-0.0224575
0.00453648
0.0316923
0.0589833
0.0863877
0.113885
0.141456
0.169075
0.19671
0.224319
0.251845
0.279211
0.306317
0.33303
0.359182
0.384562
0.408911
0.431913
0.453202
0.472353
0.488897
0.502336
0.512161
0.517882
0.51907
0.515537
0.507326
0.492953
0.47022
-0.333483
-0.358289
-0.373662
-0.38215
-0.38556
-0.384002
-0.377803
-0.367507
-0.353671
-0.336832
-0.317485
-0.296078
-0.273002
-0.24859
-0.223124
-0.196833
-0.169906
-0.142491
-0.114703
-0.0866302
-0.058337
-0.0298691
-0.00125726
0.0274792
0.0563293
0.0852875
0.114351
0.143516
0.172776
0.202116
0.231513
0.260928
0.290298
0.319539
0.348529
0.377106
0.405055
0.432105
0.457915
0.482069
0.504078
0.523378
0.53935
0.551345
0.558709
0.560845
0.557427
0.54841
0.531979
0.505533
-0.373147
-0.402047
-0.419573
-0.42878
-0.431908
-0.42921
-0.421191
-0.408585
-0.392122
-0.372475
-0.350251
-0.325979
-0.300107
-0.273008
-0.244984
-0.216278
-0.187079
-0.157529
-0.127734
-0.0977704
-0.0676857
-0.0375095
-0.00725482
0.0230773
0.0534946
0.0840111
0.114643
0.145408
0.17632
0.207387
0.238607
0.269962
0.301415
0.3329
0.364316
0.395513
0.426286
0.456357
0.485363
0.512849
0.538251
0.560904
0.580046
0.594846
0.604438
0.607989
0.604971
0.595183
0.576349
0.545324
-0.418134
-0.452059
-0.472054
-0.481864
-0.48433
-0.479939
-0.469448
-0.453852
-0.434098
-0.411029
-0.385378
-0.357763
-0.328691
-0.29857
-0.267719
-0.236383
-0.204745
-0.172936
-0.141044
-0.109126
-0.0772106
-0.0453047
-0.0133999
0.0185244
0.0504982
0.0825575
0.114742
0.147091
0.179645
0.212435
0.245488
0.278814
0.312405
0.346224
0.380198
0.414204
0.448054
0.48148
0.514111
0.545456
0.574885
0.60162
0.624736
0.64318
0.655808
0.661465
0.659321
0.648919
0.627332
0.590671
-0.469807
-0.509878
-0.532627
-0.542749
-0.543937
-0.537039
-0.523176
-0.503691
-0.479802
-0.452555
-0.422824
-0.391316
-0.358594
-0.325091
-0.29113
-0.25695
-0.222715
-0.188535
-0.154474
-0.120559
-0.086793
-0.053157
-0.0196165
0.0138748
0.047372
0.0809359
0.114632
0.148526
0.182684
0.217169
0.252038
0.287335
0.323089
0.359301
0.39594
0.432921
0.470093
0.507214
0.543924
0.579716
0.613905
0.645602
0.673703
0.696891
0.713666
0.722438
0.721937
0.711296
0.686655
0.643094
-0.530078
-0.577619
-0.603297
-0.613141
-0.612065
-0.601474
-0.583002
-0.558443
-0.529354
-0.49701
-0.46243
-0.426409
-0.389547
-0.352284
-0.314933
-0.277706
-0.240736
-0.204098
-0.167818
-0.13189
-0.0962812
-0.0609414
-0.0258052
0.00920243
0.0441645
0.0791696
0.11431
0.149681
0.185379
0.221499
0.258133
0.295366
0.33327
0.371897
0.411267
0.451354
0.492063
0.533204
0.574459
0.615333
0.655113
0.692817
0.727156
0.756515
0.778954
0.792303
0.794664
0.784526
0.756678
0.704753
-0.601667
-0.658192
-0.68672
-0.695195
-0.690305
-0.674297
-0.649517
-0.61834
-0.582719
-0.544176
-0.503867
-0.462649
-0.421131
-0.379734
-0.33873
-0.298284
-0.258476
-0.219328
-0.180819
-0.142896
-0.105487
-0.0685012
-0.0318399
0.00460447
0.0409451
0.0772998
0.11379
0.150542
0.187683
0.225344
0.263655
0.302747
0.342743
0.383755
0.42587
0.469139
0.51355
0.559
0.605247
0.65186
0.698144
0.743064
0.785169
0.822527
0.852677
0.872704
0.879823
0.871532
0.840649
0.778723
-0.68847
-0.755635
-0.78642
-0.791603
-0.780483
-0.756571
-0.723175
-0.683385
-0.639598
-0.593567
-0.546551
-0.499417
-0.452736
-0.406863
-0.361992
-0.318207
-0.275512
-0.233858
-0.19316
-0.153309
-0.114182
-0.0756472
-0.0375662
0.000202878
0.037805
0.0753884
0.113105
0.151109
0.189564
0.228635
0.268495
0.309323
0.351301
0.394607
0.439414
0.485869
0.534072
0.584046
0.635683
0.688674
0.742419
0.795908
0.847593
0.895247
0.935834
0.965517
0.9803
0.976183
0.943067
0.869417
-0.796165
-0.875617
-0.907073
-0.905662
-0.884591
-0.849216
-0.804103
-0.753176
-0.699266
-0.6443
-0.589545
-0.535794
-0.483503
-0.432893
-0.38403
-0.336876
-0.291329
-0.247248
-0.204467
-0.162812
-0.122103
-0.0821599
-0.042804
-0.00385742
0.034857
0.0735175
0.112305
0.151405
0.191011
0.231326
0.272565
0.314958
0.358748
0.404192
0.451556
0.501107
0.553088
0.607693
0.66501
0.724941
0.787089
0.850594
0.913937
0.9747
1.02929
1.07279
1.09962
1.10359
1.07023
0.983253
-0.933254
-1.02621
-1.05486
-1.04128
-1.00457
-0.952708
-0.891799
-0.826631
-0.760362
-0.694928
-0.631444
-0.570487
-0.51228
-0.456823
-0.403987
-0.353567
-0.305319
-0.258989
-0.214317
-0.171054
-0.128958
-0.0877981
-0.047355
-0.00741512
0.0322296
0.0717854
0.111461
0.151469
0.192033
0.233391
0.275798
0.319535
0.364909
0.412258
0.461955
0.5144
0.570011
0.629201
0.692324
0.7596
0.830976
0.905933
0.983203
1.0604
1.13353
1.19656
1.24199
1.26049
1.23104
1.12979
-1.11303
-1.2191
-1.23783
-1.20279
-1.14187
-1.06657
-0.984662
-0.901618
-0.820611
-0.743264
-0.67027
-0.601773
-0.537605
-0.477434
-0.420858
-0.367455
-0.31681
-0.268534
-0.222264
-0.17767
-0.134447
-0.0923164
-0.051018
-0.0103062
0.0300548
0.0702959
0.110649
0.151351
0.192652
0.234819
0.278146
0.32296
0.36963
0.418577
0.470281
0.52529
0.584221
0.647747
0.716564
0.791325
0.872502
0.960171
1.05366
1.15102
1.24826
1.33851
1.41214
1.45567
1.43832
1.32388
-1.3576
-1.47144
-1.46615
-1.39432
-1.29654
-1.18849
-1.07931
-0.974476
-0.876532
-0.786226
-0.703409
-0.627498
-0.557738
-0.493337
-0.433543
-0.377673
-0.325116
-0.275339
-0.227876
-0.182315
-0.138294
-0.0954915
-0.0536121
-0.012384
0.0284504
0.0691415
0.109939
0.151098
0.19289
0.235606
0.279571
0.325151
0.372772
0.42293
0.476211
0.533314
0.59506
0.662421
0.736497
0.818487
0.90959
1.01079
1.1225
1.24387
1.37173
1.49914
1.61477
1.70018
1.71073
1.59
-1.7064
-1.80864
-1.75131
-1.61792
-1.46531
-1.31284
-1.16953
-1.03941
-0.923135
-0.819733
-0.727632
-0.645162
-0.570769
-0.503084
-0.44095
-0.383395
-0.329613
-0.278932
-0.23079
-0.184709
-0.140282
-0.0971526
-0.0550029
-0.0135431
0.0274986
0.0683842
0.109374
0.150736
0.192753
0.235733
0.280022
0.326019
0.374189
0.425093
0.479411
0.537976
0.601816
0.672198
0.750666
0.839061
0.939493
1.05421
1.1853
1.33398
1.49928
1.67599
1.85278
2.00671
2.0757
1.97116
-2.23108
-2.2678
-2.10412
-1.87032
-1.63875
-1.42871
-1.24529
-1.08808
-0.95391
-0.838889
-0.73935
-0.652181
-0.574858
-0.505377
-0.442163
-0.383979
-0.329848
-0.278991
-0.230777
-0.18469
-0.140293
-0.0972163
-0.0551315
-0.013743
0.0272247
0.0680363
0.108955
0.150251
0.192211
0.235151
0.279427
0.325451
0.373718
0.424827
0.479525
0.538752
0.603706
0.675926
0.757383
0.850587
0.958689
1.08551
1.23546
1.41304
1.62161
1.86097
2.12411
2.38763
2.57276
2.54387
-3.06081
-2.89765
-2.53086
-2.14056
-1.80014
-1.5199
-1.29343
-1.11072
-0.962006
-0.839076
-0.73555
-0.646646
-0.568836
-0.499525
-0.436799
-0.379232
-0.325745
-0.275508
-0.22787
-0.182307
-0.138387
-0.0957439
-0.0540581
-0.0130412
0.0275746
0.068047
0.108633
0.149595
0.191217
0.233808
0.277719
0.323364
0.371238
0.421953
0.476284
0.535225
0.600082
0.672583
0.755045
0.850579
0.963367
1.09898
1.26469
1.46961
1.72426
2.03895
2.41934
2.85086
3.25283
3.44232
-4.48885
-3.73638
-3.00529
-2.39363
-1.91709
-1.56133
-1.29679
-1.09652
-0.941002
-0.816724
-0.714424
-0.627789
-0.55252
-0.485657
-0.425137
-0.369488
-0.317644
-0.268806
-0.22236
-0.177822
-0.134792
-0.092935
-0.0519556
-0.0115875
0.0284189
0.0683045
0.10831
0.148685
0.189695
0.231634
0.274834
0.319687
0.366665
0.416356
0.469507
0.527099
0.590439
0.661313
0.742194
0.836565
0.949386
1.08778
1.262
1.48666
1.78252
2.17791
2.7034
3.37014
4.156
4.96891
-7.34079
-4.74943
-3.34439
-2.47461
-1.88298
-1.48486
-1.21356
-1.02034
-0.875862
-0.762764
-0.670398
-0.592092
-0.523611
-0.462208
-0.40606
-0.353921
-0.304912
-0.258388
-0.213858
-0.170932
-0.129284
-0.0886362
-0.0487401
-0.0093661
0.0297038
0.0686829
0.107786
0.147237
0.187272
0.228154
0.270177
0.313684
0.359088
0.406895
0.457755
0.512515
0.572319
0.638756
0.714083
0.801586
0.906173
1.03533
1.20073
1.42094
1.72679
2.16926
2.81889
3.76163
5.25245
7.95774
-12.2165
-5.8403
-3.19171
-2.11485
-1.53916
-1.20199
-0.99428
-0.854033
-0.750076
-0.667089
-0.596956
-0.535118
-0.478921
-0.426777
-0.377692
-0.331021
-0.286314
-0.243239
-0.201529
-0.160959
-0.121326
-0.0824426
-0.0441305
-0.00621611
0.031472
0.0691061
0.106862
0.144922
0.183483
0.222752
0.262963
0.304377
0.347297
0.392085
0.439186
0.489167
0.542781
0.601063
0.665496
0.738275
0.822783
0.924444
1.05237
1.22293
1.46831
1.85291
2.49432
3.66597
6.43008
12.9275
)
;

boundaryField
{
    movingWall
    {
        type            zeroGradient;
    }
    fixedWalls
    {
        type            zeroGradient;
    }
    frontAndBack
    {
        type            empty;
    }
}


// ************************************************************************* //
