/*--------------------------------*- C++ -*----------------------------------*\
  =========                 |
  \\      /  F ield         | OpenFOAM: The Open Source CFD Toolbox
   \\    /   O peration     | Website:  https://openfoam.org
    \\  /    A nd           | Version:  7
     \\/     M anipulation  |
\*---------------------------------------------------------------------------*/
FoamFile
{
    version     2.0;
    format      ascii;
    class       volScalarField;
    location    "0.037";
    object      p;
}
// * * * * * * * * * * * * * * * * * * * * * * * * * * * * * * * * * * * * * //

dimensions      [0 2 -2 0 0 0 0];

internalField   nonuniform List<scalar> 
2500
(
-1.83417e-05
-6.51172
-9.29637
-10.4915
-11.1561
-11.5616
-11.8243
-12.0082
-12.145
-12.2512
-12.3362
-12.4056
-12.4631
-12.5114
-12.5523
-12.5872
-12.617
-12.6427
-12.6647
-12.6838
-12.7002
-12.7145
-12.7269
-12.7377
-12.7474
-12.756
-12.764
-12.7716
-12.7791
-12.7869
-12.7952
-12.8046
-12.8154
-12.8283
-12.8437
-12.8626
-12.886
-12.915
-12.9514
-12.9976
-13.057
-13.135
-13.2403
-13.3885
-13.6105
-13.9675
-14.5664
-15.6666
-18.3335
-24.7184
-4.95578
-7.6755
-9.18188
-10.1415
-10.8088
-11.2682
-11.5891
-11.8217
-11.9964
-12.1315
-12.2385
-12.3251
-12.3963
-12.4557
-12.5057
-12.5482
-12.5846
-12.616
-12.6431
-12.6667
-12.6874
-12.7055
-12.7217
-12.7361
-12.7493
-12.7614
-12.773
-12.7842
-12.7956
-12.8075
-12.8202
-12.8344
-12.8506
-12.8694
-12.8918
-12.9188
-12.9516
-12.9921
-13.0427
-13.1068
-13.189
-13.2968
-13.4411
-13.6395
-13.9211
-14.3339
-14.9431
-15.8307
-17.2505
-19.8496
-7.92577
-8.75783
-9.55847
-10.2391
-10.7789
-11.1885
-11.4976
-11.7338
-11.9173
-12.0623
-12.1788
-12.2739
-12.3526
-12.4185
-12.4742
-12.5216
-12.5624
-12.5977
-12.6284
-12.6553
-12.679
-12.7
-12.7189
-12.736
-12.7518
-12.7666
-12.7808
-12.7948
-12.809
-12.8238
-12.8398
-12.8574
-12.8773
-12.9004
-12.9274
-12.9596
-12.9985
-13.0459
-13.1044
-13.1775
-13.2701
-13.3888
-13.5432
-13.7472
-14.0201
-14.3881
-14.8799
-15.5073
-16.2526
-17.016
-9.43582
-9.64866
-10.0673
-10.512
-10.9046
-11.2314
-11.4975
-11.7128
-11.8873
-12.0296
-12.1467
-12.2439
-12.3255
-12.3944
-12.4531
-12.5036
-12.5472
-12.5852
-12.6184
-12.6476
-12.6736
-12.6968
-12.7178
-12.737
-12.7548
-12.7717
-12.788
-12.8041
-12.8205
-12.8376
-12.856
-12.8762
-12.8988
-12.9247
-12.9549
-12.9904
-13.0327
-13.0837
-13.1456
-13.2217
-13.3158
-13.4332
-13.5806
-13.7664
-14.0004
-14.292
-14.6468
-15.0522
-15.4341
-15.6119
-10.3219
-10.3206
-10.524
-10.8005
-11.0749
-11.3247
-11.5431
-11.7297
-11.8875
-12.0206
-12.1331
-12.2284
-12.3097
-12.3794
-12.4394
-12.4914
-12.5367
-12.5764
-12.6114
-12.6424
-12.6701
-12.6951
-12.7178
-12.7387
-12.7582
-12.7768
-12.7948
-12.8127
-12.8309
-12.8498
-12.8701
-12.8922
-12.9168
-12.9447
-12.9768
-13.0142
-13.0582
-13.1105
-13.1729
-13.248
-13.3387
-13.4486
-13.5816
-13.7418
-13.9323
-14.1531
-14.3981
-14.6465
-14.8258
-14.8072
-10.8891
-10.8139
-10.902
-11.0691
-11.2566
-11.4427
-11.6165
-11.7729
-11.9107
-12.031
-12.1354
-12.2259
-12.3045
-12.3728
-12.4325
-12.4847
-12.5307
-12.5713
-12.6073
-12.6395
-12.6684
-12.6946
-12.7186
-12.7408
-12.7616
-12.7815
-12.8008
-12.8201
-12.8396
-12.8599
-12.8814
-12.9048
-12.9307
-12.9597
-12.9928
-13.0308
-13.0749
-13.1265
-13.1871
-13.2584
-13.3424
-13.4411
-13.5565
-13.6896
-13.8396
-14.002
-14.167
-14.3141
-14.3872
-14.3051
-11.2715
-11.1794
-11.2089
-11.3074
-11.4335
-11.5696
-11.7049
-11.8328
-11.9502
-12.0561
-12.1505
-12.2343
-12.3084
-12.3739
-12.4318
-12.4832
-12.5288
-12.5694
-12.6058
-12.6385
-12.6681
-12.6951
-12.7199
-12.743
-12.7647
-12.7855
-12.8058
-12.8259
-12.8463
-12.8675
-12.8898
-12.9139
-12.9403
-12.9697
-13.0027
-13.0402
-13.0832
-13.1326
-13.1896
-13.2553
-13.3307
-13.4169
-13.5142
-13.6218
-13.7371
-13.8541
-13.9631
-14.0475
-14.068
-13.9749
-11.5448
-11.4564
-11.4567
-11.5128
-11.5964
-11.6947
-11.7986
-11.9016
-11.9998
-12.0912
-12.1749
-12.2509
-12.3195
-12.3811
-12.4363
-12.4859
-12.5303
-12.5704
-12.6065
-12.6392
-12.6689
-12.6962
-12.7215
-12.745
-12.7673
-12.7886
-12.8094
-12.8301
-12.851
-12.8725
-12.8952
-12.9194
-12.9457
-12.9748
-13.007
-13.0433
-13.0841
-13.1304
-13.1828
-13.2419
-13.3082
-13.3818
-13.4622
-13.5477
-13.6349
-13.718
-13.7888
-13.8351
-13.8305
-13.7442
-11.7507
-11.6715
-11.6576
-11.6875
-11.7422
-11.8126
-11.8916
-11.9736
-12.0547
-12.1325
-12.2057
-12.2736
-12.336
-12.393
-12.4449
-12.492
-12.5347
-12.5735
-12.6088
-12.641
-12.6705
-12.6977
-12.723
-12.7466
-12.7691
-12.7906
-12.8116
-12.8324
-12.8534
-12.875
-12.8975
-12.9215
-12.9473
-12.9754
-13.0064
-13.0407
-13.0788
-13.1214
-13.1686
-13.2209
-13.2783
-13.3402
-13.4058
-13.4729
-13.5382
-13.5966
-13.6417
-13.6651
-13.649
-13.5739
-11.912
-11.8425
-11.822
-11.8359
-11.8709
-11.9209
-11.9806
-12.0454
-12.1117
-12.1773
-12.2405
-12.3004
-12.3565
-12.4086
-12.4566
-12.5008
-12.5413
-12.5784
-12.6125
-12.6438
-12.6726
-12.6994
-12.7243
-12.7477
-12.77
-12.7914
-12.8123
-12.8329
-12.8537
-12.8749
-12.897
-12.9203
-12.9452
-12.972
-13.0013
-13.0333
-13.0684
-13.107
-13.1491
-13.1948
-13.2438
-13.2954
-13.3483
-13.4006
-13.4491
-13.4899
-13.5179
-13.5276
-13.507
-13.4429
-12.0421
-11.9815
-11.9584
-11.9623
-11.9839
-12.019
-12.0639
-12.1147
-12.1686
-12.2234
-12.2775
-12.3299
-12.3797
-12.4267
-12.4707
-12.5116
-12.5496
-12.5847
-12.6171
-12.6471
-12.675
-12.701
-12.7253
-12.7482
-12.77
-12.791
-12.8114
-12.8317
-12.8519
-12.8726
-12.8939
-12.9162
-12.9399
-12.9652
-12.9925
-13.022
-13.054
-13.0885
-13.1257
-13.1652
-13.2067
-13.2494
-13.2919
-13.3324
-13.3684
-13.3965
-13.4133
-13.4149
-13.3932
-13.3386
-12.1495
-12.0963
-12.0727
-12.0705
-12.083
-12.1073
-12.1408
-12.1805
-12.224
-12.2695
-12.3154
-12.3607
-12.4047
-12.4467
-12.4865
-12.524
-12.5591
-12.5919
-12.6225
-12.651
-12.6776
-12.7024
-12.7258
-12.748
-12.7691
-12.7894
-12.8092
-12.8288
-12.8483
-12.8681
-12.8885
-12.9096
-12.9319
-12.9555
-12.9807
-13.0076
-13.0364
-13.0671
-13.0996
-13.1337
-13.1686
-13.2037
-13.2378
-13.2691
-13.2957
-13.3149
-13.3242
-13.3213
-13.3
-13.2535
-12.2396
-12.1927
-12.1696
-12.1639
-12.1701
-12.1865
-12.2113
-12.2421
-12.2771
-12.3146
-12.3533
-12.3922
-12.4305
-12.4677
-12.5035
-12.5375
-12.5696
-12.5999
-12.6284
-12.6551
-12.6802
-12.7038
-12.7261
-12.7472
-12.7674
-12.7868
-12.8058
-12.8244
-12.843
-12.8618
-12.881
-12.9009
-12.9216
-12.9434
-12.9665
-12.9908
-13.0166
-13.0437
-13.072
-13.1011
-13.1305
-13.1594
-13.1866
-13.2108
-13.2304
-13.2433
-13.2479
-13.2424
-13.2224
-13.1826
-12.3161
-12.2748
-12.2528
-12.2449
-12.2469
-12.2576
-12.2757
-12.2995
-12.3274
-12.3582
-12.3905
-12.4237
-12.4568
-12.4895
-12.5212
-12.5517
-12.5808
-12.6086
-12.6348
-12.6595
-12.6829
-12.705
-12.726
-12.7459
-12.7649
-12.7833
-12.8013
-12.8189
-12.8364
-12.854
-12.872
-12.8904
-12.9095
-12.9295
-12.9504
-12.9723
-12.9952
-13.019
-13.0436
-13.0684
-13.093
-13.1167
-13.1385
-13.1573
-13.1717
-13.1803
-13.1817
-13.175
-13.1567
-13.1227
-12.3819
-12.3453
-12.3247
-12.3157
-12.3149
-12.3215
-12.3346
-12.3527
-12.3749
-12.3999
-12.4267
-12.4547
-12.4831
-12.5115
-12.5394
-12.5665
-12.5926
-12.6176
-12.6415
-12.6642
-12.6857
-12.7062
-12.7256
-12.7442
-12.762
-12.7792
-12.7959
-12.8123
-12.8286
-12.845
-12.8616
-12.8785
-12.896
-12.9141
-12.9329
-12.9525
-12.9728
-12.9936
-13.0148
-13.036
-13.0566
-13.0761
-13.0936
-13.1082
-13.1188
-13.1243
-13.1239
-13.1168
-13.1004
-13.0712
-12.439
-12.4066
-12.3876
-12.3782
-12.3755
-12.3791
-12.3883
-12.402
-12.4194
-12.4396
-12.4617
-12.4851
-12.5092
-12.5336
-12.5578
-12.5816
-12.6048
-12.6271
-12.6486
-12.6691
-12.6887
-12.7074
-12.7252
-12.7423
-12.7587
-12.7745
-12.7899
-12.805
-12.82
-12.835
-12.8502
-12.8656
-12.8814
-12.8977
-12.9146
-12.9319
-12.9498
-12.9679
-12.9862
-13.0042
-13.0215
-13.0375
-13.0516
-13.063
-13.0709
-13.0743
-13.0728
-13.0658
-13.0513
-13.0264
-12.4889
-12.4603
-12.443
-12.4336
-12.4298
-12.4313
-12.4375
-12.4477
-12.4612
-12.4773
-12.4953
-12.5147
-12.535
-12.5556
-12.5764
-12.5971
-12.6173
-12.637
-12.656
-12.6743
-12.6919
-12.7087
-12.7248
-12.7403
-12.7551
-12.7695
-12.7835
-12.7973
-12.8109
-12.8245
-12.8381
-12.852
-12.8662
-12.8807
-12.8956
-12.9109
-12.9265
-12.9422
-12.9579
-12.9732
-12.9877
-13.0009
-13.0124
-13.0213
-13.0272
-13.0293
-13.0272
-13.0207
-13.008
-12.9869
-12.5329
-12.5078
-12.4922
-12.4832
-12.4788
-12.4788
-12.4828
-12.4902
-12.5005
-12.5132
-12.5277
-12.5435
-12.5602
-12.5775
-12.5951
-12.6127
-12.6301
-12.6472
-12.6638
-12.6799
-12.6954
-12.7103
-12.7246
-12.7383
-12.7516
-12.7645
-12.777
-12.7893
-12.8014
-12.8135
-12.8257
-12.838
-12.8505
-12.8633
-12.8763
-12.8897
-12.9032
-12.9167
-12.9301
-12.9431
-12.9552
-12.9662
-12.9755
-12.9826
-12.987
-12.9882
-12.986
-12.9802
-12.9695
-12.9518
-12.572
-12.5502
-12.5364
-12.528
-12.5233
-12.5223
-12.5246
-12.5298
-12.5376
-12.5473
-12.5587
-12.5714
-12.585
-12.5992
-12.6138
-12.6285
-12.6432
-12.6578
-12.672
-12.6858
-12.6992
-12.7122
-12.7246
-12.7367
-12.7483
-12.7595
-12.7705
-12.7813
-12.7919
-12.8024
-12.813
-12.8237
-12.8346
-12.8457
-12.857
-12.8685
-12.88
-12.8916
-12.903
-12.9139
-12.924
-12.9331
-12.9407
-12.9464
-12.9498
-12.9505
-12.9485
-12.9435
-12.9346
-12.9202
-12.6071
-12.5884
-12.5763
-12.5687
-12.5641
-12.5624
-12.5635
-12.567
-12.5725
-12.5799
-12.5886
-12.5985
-12.6093
-12.6207
-12.6325
-12.6445
-12.6567
-12.6687
-12.6806
-12.6922
-12.7035
-12.7145
-12.7251
-12.7353
-12.7452
-12.7548
-12.7642
-12.7734
-12.7824
-12.7914
-12.8004
-12.8095
-12.8188
-12.8282
-12.8377
-12.8474
-12.8572
-12.8669
-12.8764
-12.8855
-12.8939
-12.9014
-12.9076
-12.9122
-12.9149
-12.9155
-12.9138
-12.9098
-12.9027
-12.8912
-12.6389
-12.6231
-12.6128
-12.606
-12.6017
-12.5997
-12.5999
-12.602
-12.6058
-12.611
-12.6175
-12.6249
-12.6331
-12.642
-12.6512
-12.6607
-12.6704
-12.6801
-12.6897
-12.6991
-12.7084
-12.7174
-12.7261
-12.7345
-12.7427
-12.7506
-12.7583
-12.7658
-12.7732
-12.7806
-12.788
-12.7955
-12.8031
-12.8108
-12.8186
-12.8266
-12.8346
-12.8426
-12.8504
-12.8579
-12.8648
-12.8709
-12.8759
-12.8797
-12.882
-12.8825
-12.8813
-12.8783
-12.873
-12.8645
-12.6681
-12.6551
-12.6465
-12.6407
-12.6368
-12.6346
-12.6342
-12.6352
-12.6376
-12.641
-12.6455
-12.6507
-12.6567
-12.6631
-12.67
-12.6771
-12.6845
-12.6919
-12.6993
-12.7066
-12.7138
-12.7208
-12.7277
-12.7343
-12.7406
-12.7468
-12.7528
-12.7587
-12.7645
-12.7702
-12.776
-12.7818
-12.7876
-12.7937
-12.7998
-12.8061
-12.8124
-12.8187
-12.8249
-12.8308
-12.8363
-12.8413
-12.8454
-12.8485
-12.8504
-12.8511
-12.8505
-12.8486
-12.845
-12.8392
-12.6951
-12.6849
-12.678
-12.6732
-12.6698
-12.6677
-12.6668
-12.667
-12.6681
-12.6701
-12.6727
-12.676
-12.6799
-12.6842
-12.6888
-12.6938
-12.6989
-12.7041
-12.7094
-12.7147
-12.7199
-12.725
-12.7299
-12.7347
-12.7393
-12.7437
-12.748
-12.7522
-12.7562
-12.7603
-12.7643
-12.7684
-12.7726
-12.7769
-12.7813
-12.7858
-12.7905
-12.7952
-12.7998
-12.8043
-12.8085
-12.8123
-12.8155
-12.8181
-12.8199
-12.8208
-12.8208
-12.82
-12.8182
-12.8151
-12.7205
-12.713
-12.7078
-12.7041
-12.7013
-12.6994
-12.6982
-12.6977
-12.6978
-12.6984
-12.6995
-12.701
-12.7029
-12.7052
-12.7078
-12.7106
-12.7137
-12.7169
-12.7201
-12.7234
-12.7266
-12.7298
-12.7329
-12.7358
-12.7386
-12.7413
-12.7438
-12.7463
-12.7486
-12.7509
-12.7532
-12.7555
-12.7579
-12.7605
-12.7631
-12.7659
-12.7689
-12.7719
-12.775
-12.778
-12.781
-12.7837
-12.7862
-12.7883
-12.7899
-12.7911
-12.7918
-12.7921
-12.792
-12.7916
-12.7447
-12.7399
-12.7365
-12.7339
-12.7318
-12.73
-12.7287
-12.7276
-12.7267
-12.7261
-12.7258
-12.7257
-12.7259
-12.7263
-12.727
-12.7278
-12.7289
-12.7301
-12.7314
-12.7327
-12.734
-12.7354
-12.7366
-12.7377
-12.7387
-12.7396
-12.7404
-12.7411
-12.7416
-12.7421
-12.7426
-12.7432
-12.7438
-12.7445
-12.7453
-12.7463
-12.7475
-12.7488
-12.7503
-12.7519
-12.7536
-12.7553
-12.757
-12.7586
-12.7601
-12.7615
-12.763
-12.7644
-12.7661
-12.7683
-12.7683
-12.7661
-12.7644
-12.763
-12.7615
-12.7601
-12.7586
-12.757
-12.7553
-12.7536
-12.7519
-12.7503
-12.7488
-12.7475
-12.7463
-12.7453
-12.7445
-12.7438
-12.7432
-12.7426
-12.7421
-12.7416
-12.7411
-12.7404
-12.7396
-12.7387
-12.7377
-12.7366
-12.7354
-12.734
-12.7327
-12.7314
-12.7301
-12.7289
-12.7278
-12.727
-12.7263
-12.7259
-12.7257
-12.7258
-12.7261
-12.7267
-12.7276
-12.7287
-12.73
-12.7318
-12.7339
-12.7365
-12.7399
-12.7447
-12.7916
-12.792
-12.7921
-12.7918
-12.7911
-12.7899
-12.7883
-12.7862
-12.7837
-12.781
-12.778
-12.775
-12.7719
-12.7689
-12.7659
-12.7631
-12.7605
-12.7579
-12.7555
-12.7532
-12.7509
-12.7486
-12.7463
-12.7438
-12.7413
-12.7386
-12.7358
-12.7329
-12.7298
-12.7266
-12.7234
-12.7201
-12.7169
-12.7137
-12.7106
-12.7078
-12.7052
-12.7029
-12.701
-12.6995
-12.6984
-12.6978
-12.6977
-12.6982
-12.6994
-12.7013
-12.7041
-12.7078
-12.713
-12.7205
-12.8151
-12.8182
-12.82
-12.8208
-12.8208
-12.8199
-12.8181
-12.8155
-12.8123
-12.8085
-12.8043
-12.7998
-12.7952
-12.7905
-12.7858
-12.7813
-12.7769
-12.7726
-12.7684
-12.7643
-12.7603
-12.7562
-12.7522
-12.748
-12.7437
-12.7393
-12.7347
-12.7299
-12.725
-12.7199
-12.7147
-12.7094
-12.7041
-12.6989
-12.6938
-12.6888
-12.6842
-12.6799
-12.676
-12.6727
-12.6701
-12.6681
-12.667
-12.6668
-12.6677
-12.6698
-12.6732
-12.678
-12.6849
-12.6951
-12.8392
-12.845
-12.8486
-12.8505
-12.8511
-12.8504
-12.8485
-12.8454
-12.8413
-12.8363
-12.8308
-12.8249
-12.8187
-12.8124
-12.8061
-12.7998
-12.7937
-12.7876
-12.7818
-12.776
-12.7702
-12.7645
-12.7587
-12.7528
-12.7468
-12.7406
-12.7343
-12.7277
-12.7208
-12.7138
-12.7066
-12.6993
-12.6919
-12.6845
-12.6771
-12.67
-12.6631
-12.6567
-12.6507
-12.6455
-12.641
-12.6376
-12.6352
-12.6342
-12.6346
-12.6368
-12.6407
-12.6465
-12.6551
-12.6681
-12.8644
-12.873
-12.8783
-12.8813
-12.8825
-12.882
-12.8797
-12.8759
-12.8709
-12.8648
-12.8579
-12.8504
-12.8426
-12.8346
-12.8266
-12.8186
-12.8108
-12.8031
-12.7955
-12.788
-12.7806
-12.7732
-12.7658
-12.7583
-12.7506
-12.7427
-12.7345
-12.7261
-12.7174
-12.7084
-12.6991
-12.6897
-12.6801
-12.6704
-12.6607
-12.6512
-12.642
-12.6331
-12.6249
-12.6175
-12.611
-12.6058
-12.602
-12.5999
-12.5997
-12.6017
-12.606
-12.6128
-12.6232
-12.6389
-12.8912
-12.9027
-12.9098
-12.9138
-12.9155
-12.9149
-12.9122
-12.9076
-12.9014
-12.8939
-12.8855
-12.8764
-12.8669
-12.8572
-12.8474
-12.8377
-12.8282
-12.8188
-12.8095
-12.8004
-12.7914
-12.7824
-12.7734
-12.7642
-12.7548
-12.7452
-12.7353
-12.7251
-12.7145
-12.7035
-12.6922
-12.6806
-12.6687
-12.6567
-12.6445
-12.6325
-12.6207
-12.6093
-12.5985
-12.5886
-12.5799
-12.5725
-12.567
-12.5635
-12.5624
-12.5641
-12.5687
-12.5763
-12.5884
-12.6071
-12.9202
-12.9346
-12.9435
-12.9485
-12.9505
-12.9498
-12.9464
-12.9407
-12.9331
-12.924
-12.9139
-12.903
-12.8916
-12.88
-12.8685
-12.857
-12.8457
-12.8346
-12.8237
-12.813
-12.8024
-12.7919
-12.7813
-12.7705
-12.7595
-12.7483
-12.7367
-12.7246
-12.7122
-12.6992
-12.6858
-12.672
-12.6578
-12.6432
-12.6285
-12.6138
-12.5992
-12.585
-12.5714
-12.5587
-12.5473
-12.5376
-12.5298
-12.5246
-12.5223
-12.5233
-12.528
-12.5364
-12.5502
-12.572
-12.9518
-12.9695
-12.9802
-12.986
-12.9882
-12.987
-12.9826
-12.9755
-12.9662
-12.9552
-12.9431
-12.9301
-12.9167
-12.9032
-12.8897
-12.8763
-12.8633
-12.8505
-12.838
-12.8257
-12.8135
-12.8014
-12.7893
-12.777
-12.7645
-12.7516
-12.7383
-12.7246
-12.7103
-12.6954
-12.6799
-12.6638
-12.6472
-12.6301
-12.6127
-12.5951
-12.5775
-12.5602
-12.5435
-12.5277
-12.5132
-12.5005
-12.4902
-12.4828
-12.4788
-12.4788
-12.4832
-12.4922
-12.5078
-12.5329
-12.9869
-13.008
-13.0207
-13.0272
-13.0293
-13.0272
-13.0213
-13.0124
-13.0009
-12.9877
-12.9732
-12.9579
-12.9422
-12.9265
-12.9109
-12.8956
-12.8807
-12.8662
-12.852
-12.8381
-12.8245
-12.8109
-12.7973
-12.7835
-12.7695
-12.7551
-12.7403
-12.7248
-12.7087
-12.6919
-12.6743
-12.656
-12.637
-12.6173
-12.5971
-12.5764
-12.5556
-12.535
-12.5147
-12.4953
-12.4773
-12.4612
-12.4477
-12.4375
-12.4313
-12.4298
-12.4336
-12.443
-12.4603
-12.4889
-13.0264
-13.0513
-13.0658
-13.0728
-13.0743
-13.0709
-13.063
-13.0516
-13.0375
-13.0215
-13.0042
-12.9862
-12.9679
-12.9498
-12.9319
-12.9146
-12.8977
-12.8814
-12.8656
-12.8502
-12.835
-12.82
-12.805
-12.7899
-12.7745
-12.7587
-12.7423
-12.7252
-12.7074
-12.6887
-12.6691
-12.6486
-12.6271
-12.6048
-12.5816
-12.5578
-12.5336
-12.5092
-12.4851
-12.4617
-12.4396
-12.4194
-12.402
-12.3883
-12.3791
-12.3755
-12.3782
-12.3876
-12.4066
-12.439
-13.0712
-13.1004
-13.1168
-13.1239
-13.1243
-13.1188
-13.1082
-13.0936
-13.0761
-13.0566
-13.036
-13.0148
-12.9936
-12.9728
-12.9525
-12.9329
-12.9141
-12.896
-12.8785
-12.8616
-12.845
-12.8286
-12.8123
-12.7959
-12.7792
-12.762
-12.7442
-12.7256
-12.7062
-12.6857
-12.6642
-12.6415
-12.6176
-12.5926
-12.5665
-12.5394
-12.5115
-12.4831
-12.4547
-12.4267
-12.3999
-12.3749
-12.3527
-12.3346
-12.3215
-12.3149
-12.3158
-12.3247
-12.3453
-12.3819
-13.1227
-13.1567
-13.175
-13.1817
-13.1803
-13.1717
-13.1573
-13.1385
-13.1167
-13.093
-13.0684
-13.0436
-13.019
-12.9952
-12.9723
-12.9504
-12.9295
-12.9095
-12.8904
-12.872
-12.854
-12.8364
-12.8189
-12.8013
-12.7833
-12.7649
-12.7459
-12.726
-12.705
-12.6829
-12.6595
-12.6348
-12.6086
-12.5809
-12.5517
-12.5212
-12.4895
-12.4568
-12.4237
-12.3905
-12.3582
-12.3274
-12.2995
-12.2757
-12.2576
-12.2469
-12.2449
-12.2528
-12.2748
-12.3161
-13.1826
-13.2224
-13.2424
-13.2479
-13.2433
-13.2304
-13.2108
-13.1866
-13.1594
-13.1305
-13.1011
-13.072
-13.0437
-13.0166
-12.9908
-12.9665
-12.9434
-12.9216
-12.9009
-12.881
-12.8618
-12.843
-12.8244
-12.8058
-12.7868
-12.7674
-12.7472
-12.7261
-12.7038
-12.6802
-12.6551
-12.6284
-12.5999
-12.5696
-12.5375
-12.5035
-12.4677
-12.4305
-12.3922
-12.3533
-12.3146
-12.2771
-12.2421
-12.2113
-12.1866
-12.1701
-12.1639
-12.1696
-12.1927
-12.2396
-13.2535
-13.3
-13.3213
-13.3242
-13.3149
-13.2957
-13.2691
-13.2378
-13.2037
-13.1686
-13.1337
-13.0996
-13.0671
-13.0364
-13.0076
-12.9807
-12.9555
-12.9319
-12.9096
-12.8885
-12.8681
-12.8483
-12.8288
-12.8092
-12.7894
-12.7691
-12.748
-12.7258
-12.7024
-12.6776
-12.651
-12.6225
-12.5919
-12.5591
-12.524
-12.4865
-12.4467
-12.4047
-12.3607
-12.3154
-12.2695
-12.224
-12.1805
-12.1408
-12.1073
-12.083
-12.0705
-12.0727
-12.0963
-12.1495
-13.3386
-13.3932
-13.4149
-13.4133
-13.3965
-13.3684
-13.3324
-13.2919
-13.2494
-13.2067
-13.1652
-13.1257
-13.0885
-13.054
-13.022
-12.9925
-12.9652
-12.9399
-12.9162
-12.8939
-12.8726
-12.8519
-12.8317
-12.8114
-12.791
-12.77
-12.7482
-12.7253
-12.701
-12.675
-12.6471
-12.6171
-12.5847
-12.5496
-12.5116
-12.4707
-12.4267
-12.3797
-12.3299
-12.2775
-12.2234
-12.1686
-12.1147
-12.0639
-12.019
-11.9839
-11.9623
-11.9584
-11.9815
-12.0421
-13.4429
-13.507
-13.5276
-13.5179
-13.4899
-13.4491
-13.4006
-13.3483
-13.2954
-13.2438
-13.1948
-13.1491
-13.107
-13.0684
-13.0333
-13.0013
-12.972
-12.9452
-12.9203
-12.897
-12.8749
-12.8537
-12.8329
-12.8123
-12.7914
-12.77
-12.7477
-12.7243
-12.6994
-12.6726
-12.6438
-12.6125
-12.5784
-12.5413
-12.5008
-12.4566
-12.4086
-12.3565
-12.3004
-12.2405
-12.1773
-12.1117
-12.0454
-11.9806
-11.9209
-11.8709
-11.8359
-11.822
-11.8425
-11.912
-13.5739
-13.649
-13.6651
-13.6417
-13.5966
-13.5382
-13.4729
-13.4058
-13.3402
-13.2783
-13.2209
-13.1686
-13.1214
-13.0788
-13.0407
-13.0064
-12.9754
-12.9473
-12.9215
-12.8975
-12.875
-12.8534
-12.8324
-12.8116
-12.7906
-12.7691
-12.7466
-12.723
-12.6977
-12.6705
-12.641
-12.6088
-12.5735
-12.5347
-12.492
-12.4449
-12.393
-12.336
-12.2736
-12.2057
-12.1325
-12.0547
-11.9736
-11.8916
-11.8126
-11.7422
-11.6875
-11.6576
-11.6715
-11.7507
-13.7442
-13.8305
-13.8351
-13.7888
-13.718
-13.6349
-13.5477
-13.4622
-13.3818
-13.3082
-13.2419
-13.1828
-13.1304
-13.0841
-13.0433
-13.007
-12.9748
-12.9457
-12.9194
-12.8952
-12.8725
-12.851
-12.8301
-12.8094
-12.7886
-12.7673
-12.745
-12.7215
-12.6962
-12.6689
-12.6392
-12.6065
-12.5704
-12.5303
-12.4859
-12.4363
-12.3811
-12.3195
-12.2509
-12.1749
-12.0912
-11.9998
-11.9016
-11.7986
-11.6947
-11.5964
-11.5128
-11.4567
-11.4564
-11.5448
-13.9749
-14.068
-14.0475
-13.9631
-13.8541
-13.7371
-13.6218
-13.5142
-13.4169
-13.3307
-13.2553
-13.1896
-13.1326
-13.0832
-13.0403
-13.0027
-12.9697
-12.9403
-12.9139
-12.8898
-12.8675
-12.8463
-12.8259
-12.8058
-12.7855
-12.7647
-12.743
-12.7199
-12.6951
-12.6681
-12.6385
-12.6058
-12.5694
-12.5288
-12.4832
-12.4318
-12.3739
-12.3084
-12.2343
-12.1505
-12.0561
-11.9502
-11.8328
-11.7049
-11.5696
-11.4335
-11.3074
-11.2089
-11.1794
-11.2715
-14.3051
-14.3872
-14.3141
-14.167
-14.002
-13.8396
-13.6896
-13.5565
-13.4411
-13.3424
-13.2584
-13.1871
-13.1265
-13.0749
-13.0308
-12.9928
-12.9597
-12.9307
-12.9048
-12.8814
-12.8599
-12.8396
-12.8201
-12.8008
-12.7815
-12.7616
-12.7408
-12.7186
-12.6946
-12.6684
-12.6395
-12.6073
-12.5713
-12.5307
-12.4847
-12.4325
-12.3728
-12.3045
-12.2259
-12.1354
-12.031
-11.9107
-11.7729
-11.6165
-11.4427
-11.2566
-11.0691
-10.902
-10.8139
-10.889
-14.8072
-14.8258
-14.6465
-14.3981
-14.1531
-13.9323
-13.7418
-13.5816
-13.4486
-13.3387
-13.248
-13.1729
-13.1105
-13.0582
-13.0142
-12.9768
-12.9447
-12.9168
-12.8922
-12.8701
-12.8498
-12.8309
-12.8127
-12.7948
-12.7768
-12.7582
-12.7387
-12.7178
-12.6951
-12.6701
-12.6424
-12.6114
-12.5764
-12.5367
-12.4914
-12.4394
-12.3794
-12.3097
-12.2284
-12.1331
-12.0206
-11.8875
-11.7297
-11.5431
-11.3247
-11.0749
-10.8005
-10.524
-10.3206
-10.3219
-15.6119
-15.4341
-15.0522
-14.6468
-14.292
-14.0004
-13.7664
-13.5806
-13.4332
-13.3158
-13.2217
-13.1456
-13.0837
-13.0327
-12.9904
-12.9549
-12.9247
-12.8988
-12.8762
-12.856
-12.8376
-12.8205
-12.8041
-12.788
-12.7717
-12.7548
-12.737
-12.7178
-12.6968
-12.6736
-12.6476
-12.6184
-12.5852
-12.5472
-12.5036
-12.4532
-12.3944
-12.3255
-12.2439
-12.1467
-12.0296
-11.8873
-11.7128
-11.4975
-11.2314
-10.9046
-10.512
-10.0673
-9.64866
-9.43582
-17.016
-16.2526
-15.5073
-14.8799
-14.3881
-14.0201
-13.7472
-13.5432
-13.3888
-13.2701
-13.1775
-13.1044
-13.0459
-12.9985
-12.9596
-12.9274
-12.9004
-12.8773
-12.8574
-12.8398
-12.8238
-12.809
-12.7948
-12.7808
-12.7666
-12.7518
-12.736
-12.7189
-12.7
-12.679
-12.6553
-12.6284
-12.5977
-12.5624
-12.5216
-12.4742
-12.4185
-12.3526
-12.2739
-12.1788
-12.0623
-11.9173
-11.7338
-11.4976
-11.1885
-10.7789
-10.2391
-9.55847
-8.75783
-7.92577
-19.8496
-17.2505
-15.8307
-14.9431
-14.3339
-13.9211
-13.6395
-13.4411
-13.2968
-13.189
-13.1068
-13.0427
-12.9921
-12.9516
-12.9188
-12.8918
-12.8694
-12.8506
-12.8344
-12.8202
-12.8075
-12.7956
-12.7843
-12.773
-12.7614
-12.7493
-12.7361
-12.7217
-12.7055
-12.6874
-12.6667
-12.6431
-12.616
-12.5846
-12.5482
-12.5057
-12.4557
-12.3963
-12.3251
-12.2385
-12.1315
-11.9964
-11.8217
-11.5891
-11.2682
-10.8088
-10.1415
-9.18188
-7.6755
-4.95578
-24.7184
-18.3335
-15.6666
-14.5664
-13.9675
-13.6105
-13.3885
-13.2403
-13.135
-13.057
-12.9976
-12.9514
-12.915
-12.886
-12.8626
-12.8437
-12.8283
-12.8154
-12.8046
-12.7952
-12.7869
-12.7791
-12.7716
-12.764
-12.756
-12.7474
-12.7377
-12.7269
-12.7145
-12.7002
-12.6838
-12.6647
-12.6427
-12.617
-12.5872
-12.5523
-12.5114
-12.4631
-12.4056
-12.3362
-12.2512
-12.145
-12.0082
-11.8243
-11.5616
-11.1561
-10.4915
-9.29636
-6.51172
-1.7112e-05
)
;

boundaryField
{
    movingWallTop
    {
        type            zeroGradient;
    }
    movingWallBottom
    {
        type            zeroGradient;
    }
    fixedWalls
    {
        type            zeroGradient;
    }
    frontAndBack
    {
        type            empty;
    }
}


// ************************************************************************* //
