/*--------------------------------*- C++ -*----------------------------------*\
  =========                 |
  \\      /  F ield         | OpenFOAM: The Open Source CFD Toolbox
   \\    /   O peration     | Website:  https://openfoam.org
    \\  /    A nd           | Version:  7
     \\/     M anipulation  |
\*---------------------------------------------------------------------------*/
FoamFile
{
    version     2.0;
    format      ascii;
    class       surfaceScalarField;
    location    "0.037";
    object      phi;
}
// * * * * * * * * * * * * * * * * * * * * * * * * * * * * * * * * * * * * * //

dimensions      [0 3 -1 0 0 0 0];

internalField   nonuniform List<scalar> 
4900
(
-5.55587e-06
5.55588e-06
-1.01616e-05
4.60571e-06
-1.29489e-05
2.78727e-06
-1.46681e-05
1.71923e-06
-1.57691e-05
1.101e-06
-1.6506e-05
7.36897e-07
-1.70242e-05
5.1827e-07
-1.74059e-05
3.81633e-07
-1.76975e-05
2.91666e-07
-1.79269e-05
2.29326e-07
-1.8111e-05
1.84177e-07
-1.82613e-05
1.50251e-07
-1.83853e-05
1.23962e-07
-1.84883e-05
1.03048e-07
-1.85743e-05
8.60229e-08
-1.86462e-05
7.18677e-08
-1.87061e-05
5.98641e-08
-1.87556e-05
4.94897e-08
-1.87959e-05
4.03552e-08
-1.88281e-05
3.21632e-08
-1.88528e-05
2.46809e-08
-1.88705e-05
1.77215e-08
-1.88816e-05
1.11303e-08
-1.88864e-05
4.77585e-09
-1.88849e-05
-1.45939e-09
-1.88772e-05
-7.68179e-09
-1.88632e-05
-1.39965e-08
-1.88427e-05
-2.05088e-08
-1.88154e-05
-2.7331e-08
-1.87808e-05
-3.45889e-08
-1.87384e-05
-4.24286e-08
-1.86874e-05
-5.10271e-08
-1.86268e-05
-6.06055e-08
-1.85553e-05
-7.14483e-08
-1.84714e-05
-8.3931e-08
-1.83728e-05
-9.85618e-08
-1.82568e-05
-1.16047e-07
-1.81194e-05
-1.37398e-07
-1.79553e-05
-1.64105e-07
-1.77568e-05
-1.98455e-07
-1.75127e-05
-2.44099e-07
-1.72056e-05
-3.07121e-07
-1.68075e-05
-3.98095e-07
-1.62715e-05
-5.36043e-07
-1.5516e-05
-7.55418e-07
-1.44002e-05
-1.11586e-06
-1.26845e-05
-1.71568e-06
-9.94766e-06
-2.73683e-06
-5.453e-06
-4.49466e-06
-5.453e-06
-1.19451e-08
5.56782e-06
-2.12961e-06
6.72338e-06
-4.85446e-06
5.51212e-06
-7.26808e-06
4.13285e-06
-9.20152e-06
3.03443e-06
-1.07077e-05
2.24304e-06
-1.188e-05
1.69058e-06
-1.28016e-05
1.30327e-06
-1.35361e-05
1.02617e-06
-1.41296e-05
8.2279e-07
-1.4615e-05
6.69568e-07
-1.50159e-05
5.51224e-07
-1.53497e-05
4.57687e-07
-1.56288e-05
3.82169e-07
-1.58627e-05
3.19978e-07
-1.60587e-05
2.67791e-07
-1.6222e-05
2.23201e-07
-1.63569e-05
1.84422e-07
-1.64667e-05
1.50102e-07
-1.65537e-05
1.19197e-07
-1.66199e-05
9.08782e-08
-1.66667e-05
6.44757e-08
-1.6695e-05
3.94311e-08
-1.67055e-05
1.52655e-08
-1.66985e-05
-8.44639e-09
-1.6674e-05
-3.2099e-08
-1.6632e-05
-5.6072e-08
-1.65717e-05
-8.07505e-08
-1.64925e-05
-1.06542e-07
-1.63932e-05
-1.339e-07
-1.62723e-05
-1.63346e-07
-1.61278e-05
-1.95507e-07
-1.59573e-05
-2.31155e-07
-1.57574e-05
-2.71271e-07
-1.55242e-05
-3.17133e-07
-1.52524e-05
-3.70434e-07
-1.49349e-05
-4.33478e-07
-1.45629e-05
-5.09454e-07
-1.41241e-05
-6.02888e-07
-1.36022e-05
-7.20337e-07
-1.29748e-05
-8.71516e-07
-1.22108e-05
-1.07109e-06
-1.12675e-05
-1.34145e-06
-1.00868e-05
-1.71675e-06
-8.59477e-06
-2.24742e-06
-6.71148e-06
-2.99915e-06
-4.39751e-06
-4.02965e-06
-1.82152e-06
-5.31282e-06
1.23184e-07
-6.43936e-06
-5.32982e-06
1.03322e-06
4.5346e-06
5.50539e-07
7.20606e-06
-9.83634e-07
7.0463e-06
-2.87199e-06
6.02121e-06
-4.72099e-06
4.88343e-06
-6.37039e-06
3.89244e-06
-7.78105e-06
3.10125e-06
-8.96634e-06
2.48855e-06
-9.95684e-06
2.01668e-06
-1.0785e-05
1.65094e-06
-1.14794e-05
1.364e-06
-1.20637e-05
1.13552e-06
-1.25567e-05
9.50686e-07
-1.29733e-05
7.98735e-07
-1.33251e-05
6.7179e-07
-1.36213e-05
5.6403e-07
-1.38692e-05
4.71086e-07
-1.40744e-05
3.89634e-07
-1.42414e-05
3.17101e-07
-1.43737e-05
2.51459e-07
-1.44739e-05
1.91081e-07
-1.4544e-05
1.34631e-07
-1.45856e-05
8.09873e-08
-1.45995e-05
2.9179e-08
-1.45863e-05
-2.16595e-08
-1.45461e-05
-7.23313e-08
-1.44785e-05
-1.2361e-07
-1.4383e-05
-1.76277e-07
-1.42584e-05
-2.31151e-07
-1.41032e-05
-2.89133e-07
-1.39153e-05
-3.51252e-07
-1.3692e-05
-4.18722e-07
-1.34302e-05
-4.93018e-07
-1.31255e-05
-5.75978e-07
-1.27727e-05
-6.69943e-07
-1.23651e-05
-7.77947e-07
-1.18946e-05
-9.03983e-07
-1.13507e-05
-1.05339e-06
-1.07202e-05
-1.23338e-06
-9.98676e-06
-1.45379e-06
-9.13016e-06
-1.72811e-06
-8.12659e-06
-2.07466e-06
-6.95026e-06
-2.51778e-06
-5.57924e-06
-3.08776e-06
-4.01016e-06
-3.8165e-06
-2.28983e-06
-4.71948e-06
-5.75763e-07
-5.74371e-06
7.64263e-07
-6.65285e-06
1.08665e-06
-6.76175e-06
-4.24317e-06
9.07791e-07
3.62681e-06
1.23445e-06
6.87939e-06
6.56569e-07
7.62418e-06
-5.0019e-07
7.17797e-06
-1.90721e-06
6.29045e-06
-3.34661e-06
5.33184e-06
-4.70181e-06
4.45644e-06
-5.92338e-06
3.71013e-06
-6.99915e-06
3.09244e-06
-7.9348e-06
2.58659e-06
-8.74326e-06
2.17245e-06
-9.43928e-06
1.83154e-06
-1.0037e-05
1.54841e-06
-1.0549e-05
1.31071e-06
-1.09859e-05
1.10874e-06
-1.13568e-05
9.3492e-07
-1.1669e-05
7.833e-07
-1.19286e-05
6.492e-07
-1.21404e-05
5.2889e-07
-1.23083e-05
4.19363e-07
-1.24354e-05
3.18156e-07
-1.2524e-05
2.23216e-07
-1.25758e-05
1.32799e-07
-1.2592e-05
4.53793e-08
-1.25732e-05
-4.04108e-08
-1.25197e-05
-1.25841e-07
-1.24312e-05
-2.12135e-07
-1.23069e-05
-3.00516e-07
-1.21458e-05
-3.9226e-07
-1.19462e-05
-4.8875e-07
-1.17059e-05
-5.91538e-07
-1.14222e-05
-7.02423e-07
-1.10917e-05
-8.23548e-07
-1.07102e-05
-9.57519e-07
-1.02725e-05
-1.10756e-06
-9.77275e-06
-1.27774e-06
-9.20356e-06
-1.47318e-06
-8.55652e-06
-1.70043e-06
-7.82205e-06
-1.96785e-06
-6.98984e-06
-2.286e-06
-6.04999e-06
-2.66796e-06
-4.99549e-06
-3.12916e-06
-3.82733e-06
-3.68594e-06
-2.56411e-06
-4.35098e-06
-1.2588e-06
-5.12182e-06
-2.38003e-08
-5.95448e-06
9.42475e-07
-6.70999e-06
1.34817e-06
-7.05854e-06
9.16305e-07
-6.32989e-06
-3.32686e-06
6.73901e-07
2.95291e-06
1.25172e-06
6.30157e-06
1.24105e-06
7.63485e-06
6.82295e-07
7.73672e-06
-2.37505e-07
7.21025e-06
-1.33644e-06
6.43078e-06
-2.48266e-06
5.60266e-06
-3.59527e-06
4.82275e-06
-4.63126e-06
4.12843e-06
-5.57175e-06
3.52707e-06
-6.41189e-06
3.01259e-06
-7.15429e-06
2.57394e-06
-7.80507e-06
2.19919e-06
-8.3716e-06
1.87725e-06
-8.86137e-06
1.59851e-06
-9.28131e-06
1.35486e-06
-9.63762e-06
1.13962e-06
-9.93566e-06
9.47235e-07
-1.01799e-05
7.73159e-07
-1.03742e-05
6.136e-07
-1.05214e-05
4.65382e-07
-1.0624e-05
3.25804e-07
-1.06837e-05
1.92535e-07
-1.07019e-05
6.35139e-08
-1.06791e-05
-6.31189e-08
-1.06159e-05
-1.89096e-07
-1.05119e-05
-3.16081e-07
-1.03667e-05
-4.45727e-07
-1.01793e-05
-5.79738e-07
-9.94807e-06
-7.1993e-07
-9.67131e-06
-8.68302e-07
-9.34661e-06
-1.02712e-06
-8.97115e-06
-1.19901e-06
-8.54158e-06
-1.38708e-06
-8.0541e-06
-1.59505e-06
-7.50445e-06
-1.82738e-06
-6.88813e-06
-2.0895e-06
-6.20068e-06
-2.38788e-06
-5.43835e-06
-2.73018e-06
-4.5993e-06
-3.12506e-06
-3.68564e-06
-3.58162e-06
-2.70698e-06
-4.10782e-06
-1.68601e-06
-4.70691e-06
-6.66829e-07
-5.37016e-06
2.74258e-07
-6.0629e-06
1.01921e-06
-6.69943e-06
1.41136e-06
-7.10215e-06
1.29794e-06
-6.94511e-06
6.66414e-07
-5.69837e-06
-2.66045e-06
4.83107e-07
2.4698e-06
1.08619e-06
5.69849e-06
1.3628e-06
7.35824e-06
1.212e-06
7.88753e-06
7.00898e-07
7.72135e-06
-5.24752e-08
7.18415e-06
-9.36637e-07
6.48682e-06
-1.86682e-06
5.75293e-06
-2.78601e-06
5.04762e-06
-3.65947e-06
4.40053e-06
-4.46819e-06
3.82132e-06
-5.20345e-06
3.3092e-06
-5.86281e-06
2.85854e-06
-6.44741e-06
2.46185e-06
-6.9603e-06
2.1114e-06
-7.40535e-06
1.79991e-06
-7.7866e-06
1.52087e-06
-8.10795e-06
1.26859e-06
-8.37294e-06
1.03816e-06
-8.58469e-06
8.25341e-07
-8.74579e-06
6.26487e-07
-8.8584e-06
4.38411e-07
-8.92418e-06
2.58315e-07
-8.94436e-06
8.36934e-08
-8.91974e-06
-8.77375e-08
-8.85073e-06
-2.58109e-07
-8.73734e-06
-4.29463e-07
-8.57926e-06
-6.03813e-07
-8.37579e-06
-7.83203e-07
-8.12595e-06
-9.69775e-07
-7.82842e-06
-1.16583e-06
-7.48164e-06
-1.3739e-06
-7.08381e-06
-1.59684e-06
-6.633e-06
-1.83789e-06
-6.12729e-06
-2.10075e-06
-5.56499e-06
-2.38968e-06
-4.94503e-06
-2.70946e-06
-4.26756e-06
-3.06535e-06
-3.53494e-06
-3.4628e-06
-2.75322e-06
-3.90678e-06
-1.9344e-06
-4.40044e-06
-1.09964e-06
-4.94258e-06
-2.8346e-07
-5.52308e-06
4.61407e-07
-6.11503e-06
1.06048e-06
-6.66198e-06
1.42001e-06
-7.05896e-06
1.44558e-06
-7.12772e-06
1.09272e-06
-6.59225e-06
4.70221e-07
-5.07587e-06
-2.19023e-06
3.51197e-07
2.11861e-06
9.02472e-07
5.14722e-06
1.3019e-06
6.95881e-06
1.40147e-06
7.78796e-06
1.19291e-06
7.92991e-06
7.35604e-07
7.64146e-06
1.0813e-07
7.11429e-06
-6.16776e-07
6.47784e-06
-1.38163e-06
5.81247e-06
-2.14512e-06
5.16402e-06
-2.87972e-06
4.55592e-06
-3.56835e-06
3.99783e-06
-4.20132e-06
3.49151e-06
-4.77391e-06
3.03444e-06
-5.28456e-06
2.62205e-06
-5.73366e-06
2.249e-06
-6.12266e-06
1.90987e-06
-6.45355e-06
1.59948e-06
-6.72851e-06
1.31311e-06
-6.94964e-06
1.04647e-06
-7.11888e-06
7.95734e-07
-7.23794e-06
5.57463e-07
-7.30819e-06
3.28569e-07
-7.33074e-06
1.06244e-07
-7.30638e-06
-1.12099e-07
-7.2356e-06
-3.28884e-07
-7.11864e-06
-5.46425e-07
-6.95547e-06
-7.66986e-07
-6.74584e-06
-9.92829e-07
-6.48935e-06
-1.22627e-06
-6.18545e-06
-1.46973e-06
-5.83357e-06
-1.72579e-06
-5.43319e-06
-1.99721e-06
-4.98406e-06
-2.28703e-06
-4.48634e-06
-2.59847e-06
-3.94105e-06
-2.93497e-06
-3.35051e-06
-3.3e-06
-2.71907e-06
-3.69679e-06
-2.05417e-06
-4.12771e-06
-1.3677e-06
-4.59325e-06
-6.77888e-07
-5.09025e-06
-1.14869e-08
-5.60898e-06
5.93984e-07
-6.12856e-06
1.08891e-06
-6.60995e-06
1.41329e-06
-6.98635e-06
1.50535e-06
-7.15102e-06
1.32319e-06
-6.94555e-06
8.86007e-07
-6.15507e-06
3.36734e-07
-4.5266e-06
-1.85349e-06
2.64168e-07
1.85444e-06
7.45733e-07
4.66565e-06
1.18148e-06
6.52306e-06
1.42254e-06
7.54689e-06
1.42185e-06
7.93061e-06
1.1962e-06
7.8671e-06
7.92473e-07
7.51802e-06
2.65105e-07
7.00521e-06
-3.35885e-07
6.41346e-06
-9.69736e-07
5.79787e-06
-1.6057e-06
5.19188e-06
-2.2219e-06
4.61404e-06
-2.80359e-06
4.0732e-06
-3.34135e-06
3.5722e-06
-3.82961e-06
3.11032e-06
-4.26545e-06
2.68484e-06
-4.64768e-06
2.2921e-06
-4.97623e-06
1.92804e-06
-5.25171e-06
1.58859e-06
-5.47506e-06
1.26982e-06
-5.64736e-06
9.68029e-07
-5.76969e-06
6.79794e-07
-5.84306e-06
4.01942e-07
-5.86835e-06
1.31534e-07
-5.84628e-06
-1.34169e-07
-5.77742e-06
-3.97745e-07
-5.66219e-06
-6.61652e-07
-5.50091e-06
-9.28266e-07
-5.29382e-06
-1.19992e-06
-5.04114e-06
-1.47895e-06
-4.74318e-06
-1.76769e-06
-4.40042e-06
-2.06855e-06
-4.01367e-06
-2.38397e-06
-3.5843e-06
-2.7164e-06
-3.1145e-06
-3.06826e-06
-2.60769e-06
-3.44177e-06
-2.06904e-06
-3.83866e-06
-1.50613e-06
-4.2597e-06
-9.2987e-07
-4.70397e-06
-3.55569e-07
-5.16755e-06
1.95891e-07
-5.64171e-06
6.96969e-07
-6.11006e-06
1.113e-06
-6.54459e-06
1.40336e-06
-6.90031e-06
1.52588e-06
-7.10887e-06
1.447e-06
-7.07215e-06
1.16042e-06
-6.65897e-06
7.15298e-07
-5.70994e-06
2.4907e-07
-4.06037e-06
-1.60442e-06
2.06098e-07
1.64834e-06
6.2143e-07
4.25032e-06
1.05182e-06
6.09266e-06
1.36548e-06
7.23323e-06
1.49998e-06
7.79611e-06
1.44543e-06
7.92166e-06
1.22355e-06
7.7399e-06
8.7049e-07
7.35826e-06
4.25439e-07
6.85851e-06
-7.56743e-08
6.29899e-06
-6.02863e-07
5.71907e-06
-1.13264e-06
5.14381e-06
-1.64748e-06
4.58803e-06
-2.1348e-06
4.05953e-06
-2.58598e-06
3.56149e-06
-2.99531e-06
3.09417e-06
-3.35925e-06
2.65604e-06
-3.67578e-06
2.24458e-06
-3.94394e-06
1.85675e-06
-4.16344e-06
1.48931e-06
-4.33442e-06
1.13901e-06
-4.4573e-06
8.02671e-07
-4.53261e-06
4.77249e-07
-4.56094e-06
1.59863e-07
-4.54289e-06
-1.52212e-07
-4.47908e-06
-4.6156e-07
-4.37009e-06
-7.70636e-07
-4.21657e-06
-1.08179e-06
-4.01922e-06
-1.39727e-06
-3.77889e-06
-1.71927e-06
-3.4967e-06
-2.04989e-06
-3.17412e-06
-2.39113e-06
-2.81318e-06
-2.74491e-06
-2.41669e-06
-3.11289e-06
-1.98852e-06
-3.49644e-06
-1.53398e-06
-3.89631e-06
-1.06029e-06
-4.31235e-06
-5.77122e-07
-4.74287e-06
-9.72653e-08
-5.18382e-06
3.62748e-07
-5.62756e-06
7.82096e-07
-6.06106e-06
1.13555e-06
-6.46351e-06
1.39424e-06
-6.80328e-06
1.52813e-06
-7.03421e-06
1.51126e-06
-7.092e-06
1.33093e-06
-6.89182e-06
1.00157e-06
-6.32962e-06
5.82054e-07
-5.29043e-06
1.90586e-07
-3.6689e-06
-1.41384e-06
1.66025e-07
1.48232e-06
5.24445e-07
3.8919e-06
9.31238e-07
5.68587e-06
1.27592e-06
6.88855e-06
1.49372e-06
7.57831e-06
1.56012e-06
7.85526e-06
1.47911e-06
7.82091e-06
1.2714e-06
7.56597e-06
9.6503e-07
7.16488e-06
5.89156e-07
6.67486e-06
1.70533e-07
6.13769e-06
-2.68092e-07
5.58244e-06
-7.08371e-07
5.02831e-06
-1.13609e-06
4.48725e-06
-1.54061e-06
3.96601e-06
-1.9142e-06
3.46775e-06
-2.25141e-06
2.99325e-06
-2.54855e-06
2.54172e-06
-2.80324e-06
2.11143e-06
-3.01402e-06
1.70009e-06
-3.18012e-06
1.30512e-06
-3.30126e-06
9.23809e-07
-3.37747e-06
5.53456e-07
-3.40902e-06
1.9141e-07
-3.39635e-06
-1.6488e-07
-3.34005e-06
-5.17854e-07
-3.24087e-06
-8.69822e-07
-3.09969e-06
-1.22296e-06
-2.91765e-06
-1.57932e-06
-2.69614e-06
-1.94078e-06
-2.43698e-06
-2.30905e-06
-2.14249e-06
-2.68562e-06
-1.8157e-06
-3.0717e-06
-1.46054e-06
-3.46804e-06
-1.08215e-06
-3.87483e-06
-6.87117e-07
-4.29134e-06
-2.83905e-07
-4.71556e-06
1.16792e-07
-5.14357e-06
5.01676e-07
-5.56871e-06
8.54579e-07
-5.98046e-06
1.15647e-06
-6.36295e-06
1.38599e-06
-6.69304e-06
1.52092e-06
-6.9382e-06
1.54104e-06
-7.05432e-06
1.43308e-06
-6.98405e-06
1.19808e-06
-6.65681e-06
8.6074e-07
-5.99228e-06
4.7917e-07
-4.90886e-06
1.50218e-07
-3.33995e-06
-1.26362e-06
1.37234e-07
1.34508e-06
4.4825e-07
3.58089e-06
8.24672e-07
5.30945e-06
1.17602e-06
6.5372e-06
1.44149e-06
7.31284e-06
1.58991e-06
7.70685e-06
1.6139e-06
7.79691e-06
1.52241e-06
7.65747e-06
1.33359e-06
7.35369e-06
1.06951e-06
6.93894e-06
7.52486e-07
6.45472e-06
4.0304e-07
5.93189e-06
3.88662e-08
5.39249e-06
-3.25432e-07
4.85155e-06
-6.78217e-07
4.31879e-06
-1.01048e-06
3.80001e-06
-1.31543e-06
3.29819e-06
-1.58806e-06
2.81436e-06
-1.82482e-06
2.34819e-06
-2.02324e-06
1.89851e-06
-2.18171e-06
1.46359e-06
-2.29929e-06
1.04139e-06
-2.37551e-06
6.29678e-07
-2.41031e-06
2.26212e-07
-2.40395e-06
-1.71246e-07
-2.35695e-06
-5.64849e-07
-2.27014e-06
-9.56636e-07
-2.14461e-06
-1.34849e-06
-1.9818e-06
-1.74212e-06
-1.78357e-06
-2.13901e-06
-1.55226e-06
-2.54036e-06
-1.29086e-06
-2.94703e-06
-1.00311e-06
-3.35944e-06
-6.93751e-07
-3.7774e-06
-3.68689e-07
-4.19989e-06
-3.52482e-08
-4.62479e-06
2.97595e-07
-5.0484e-06
6.18995e-07
-5.46497e-06
9.16112e-07
-5.86582e-06
1.17416e-06
-6.23851e-06
1.37678e-06
-6.56557e-06
1.50695e-06
-6.8232e-06
1.54867e-06
-6.97992e-06
1.48979e-06
-6.99544e-06
1.32609e-06
-6.82035e-06
1.06673e-06
-6.39745e-06
7.40145e-07
-5.66569e-06
3.99082e-07
-4.5678e-06
1.21259e-07
-3.06212e-06
-1.14236e-06
1.15693e-07
1.22939e-06
3.87338e-07
3.30924e-06
7.31936e-07
4.96485e-06
1.07597e-06
6.19317e-06
1.36509e-06
7.02371e-06
1.56632e-06
7.50561e-06
1.66572e-06
7.69751e-06
1.66387e-06
7.65932e-06
1.57097e-06
7.4466e-06
1.40255e-06
7.10736e-06
1.17623e-06
6.68103e-06
9.09526e-07
6.19859e-06
6.18539e-07
5.68347e-06
3.17319e-07
5.15277e-06
1.76575e-08
4.61846e-06
-2.70847e-07
4.08852e-06
-5.40582e-07
3.56793e-06
-7.85656e-07
3.05943e-06
-1.00162e-06
2.56415e-06
-1.18519e-06
2.08209e-06
-1.33408e-06
1.61248e-06
-1.44673e-06
1.15404e-06
-1.52223e-06
7.05182e-07
-1.56019e-06
2.64174e-07
-1.56066e-06
-1.7078e-07
-1.52408e-06
-6.01434e-07
-1.45127e-06
-1.02944e-06
-1.34347e-06
-1.4563e-06
-1.20232e-06
-1.88327e-06
-1.02999e-06
-2.31134e-06
-8.29189e-07
-2.74116e-06
-6.03335e-07
-3.17289e-06
-3.56646e-07
-3.60613e-06
-9.42975e-08
-4.03975e-06
1.77426e-07
-4.47162e-06
4.50978e-07
-4.89834e-06
7.1743e-07
-5.31486e-06
9.66404e-07
-5.71394e-06
1.18614e-06
-6.08556e-06
1.36374e-06
-6.41612e-06
1.4858e-06
-6.68762e-06
1.5394e-06
-6.8768e-06
1.51383e-06
-6.95435e-06
1.40298e-06
-6.8846e-06
1.20862e-06
-6.62599e-06
9.44059e-07
-6.13289e-06
6.37803e-07
-5.35944e-06
3.35692e-07
-4.26568e-06
9.96807e-08
-2.82611e-06
-1.04268e-06
9.8954e-08
1.13044e-06
3.37572e-07
3.07062e-06
6.51154e-07
4.65127e-06
9.79953e-07
5.86437e-06
1.27666e-06
6.72701e-06
1.50922e-06
7.27305e-06
1.66037e-06
7.54635e-06
1.7252e-06
7.59449e-06
1.70788e-06
7.46392e-06
1.61844e-06
7.1968e-06
1.47005e-06
6.82942e-06
1.277e-06
6.39164e-06
1.05328e-06
5.90719e-06
8.11762e-07
5.39429e-06
5.63774e-07
4.86644e-06
3.18933e-07
4.33336e-06
8.51847e-08
3.80168e-06
-1.31066e-07
3.27568e-06
-3.24783e-07
2.75787e-06
-4.92106e-07
2.24941e-06
-6.30175e-07
1.75055e-06
-7.3697e-07
1.26083e-06
-8.11181e-07
7.79393e-07
-8.52107e-07
3.05099e-07
-8.5958e-07
-1.63307e-07
-8.33922e-07
-6.27092e-07
-7.75924e-07
-1.08744e-06
-6.86849e-07
-1.54537e-06
-5.68464e-07
-2.00165e-06
-4.23082e-07
-2.45672e-06
-2.53633e-07
-2.9106e-06
-6.37479e-08
-3.36277e-06
1.42147e-07
-3.81203e-06
3.5873e-07
-4.25633e-06
5.79685e-07
-4.69257e-06
7.97629e-07
-5.11628e-06
1.00409e-06
-5.52131e-06
1.18954e-06
-5.89939e-06
1.34362e-06
-6.23964e-06
1.45551e-06
-6.528e-06
1.51459e-06
-6.74671e-06
1.51152e-06
-6.87373e-06
1.43973e-06
-6.88256e-06
1.2974e-06
-6.74227e-06
1.08986e-06
-6.41844e-06
8.32058e-07
-5.87509e-06
5.50621e-07
-5.078e-06
2.8448e-07
-3.99954e-06
8.30261e-08
-2.62466e-06
-9.59653e-07
8.54962e-08
1.04494e-06
2.95958e-07
2.86016e-06
5.80142e-07
4.36708e-06
8.89311e-07
5.5552e-06
1.18285e-06
6.43347e-06
1.43101e-06
7.02489e-06
1.61537e-06
7.362e-06
1.72767e-06
7.48219e-06
1.76776e-06
7.42382e-06
1.74131e-06
7.22326e-06
1.6576e-06
6.91313e-06
1.5278e-06
6.52144e-06
1.36362e-06
6.07138e-06
1.1764e-06
5.5815e-06
9.76586e-07
5.06626e-06
7.73378e-07
4.53657e-06
5.74668e-07
4.00039e-06
3.87028e-07
3.46332e-06
2.15804e-07
2.92909e-06
6.52263e-08
2.39999e-06
-6.14595e-08
1.87723e-06
-1.61868e-07
1.36124e-06
-2.34366e-07
8.51891e-07
-2.77984e-07
3.48717e-07
-2.92347e-07
-1.48944e-07
-2.7763e-07
-6.41809e-07
-2.34536e-07
-1.13053e-06
-1.64294e-07
-1.61561e-06
-6.86755e-08
-2.09727e-06
4.99704e-08
-2.57537e-06
1.88667e-07
-3.0493e-06
3.43752e-07
-3.51786e-06
5.10812e-07
-3.97909e-06
6.84621e-07
-4.43014e-06
8.591e-07
-4.86705e-06
1.0273e-06
-5.28449e-06
1.18147e-06
-5.67548e-06
1.31314e-06
-6.03106e-06
1.41345e-06
-6.33995e-06
1.47357e-06
-6.58812e-06
1.48537e-06
-6.75851e-06
1.4424e-06
-6.83076e-06
1.34116e-06
-6.78131e-06
1.18263e-06
-6.58375e-06
9.74037e-07
-6.20985e-06
7.30388e-07
-5.63144e-06
4.7556e-07
-4.82317e-06
2.42184e-07
-3.76617e-06
6.97504e-08
-2.45223e-06
-8.89902e-07
7.43405e-08
9.70599e-07
2.60355e-07
2.67415e-06
5.16907e-07
4.11053e-06
8.04045e-07
5.26807e-06
1.08717e-06
6.15034e-06
1.33943e-06
6.77263e-06
1.54259e-06
7.15885e-06
1.68658e-06
7.3382e-06
1.76838e-06
7.34203e-06
1.79029e-06
7.20134e-06
1.75841e-06
6.94501e-06
1.68111e-06
6.59874e-06
1.56786e-06
6.18463e-06
1.42833e-06
5.72102e-06
1.27183e-06
5.22277e-06
1.10686e-06
4.70154e-06
9.40946e-07
4.1663e-06
7.80565e-07
3.6237e-06
6.31123e-07
3.07853e-06
4.97021e-07
2.53409e-06
3.81735e-07
1.99252e-06
2.87897e-07
1.45508e-06
2.17384e-07
9.22405e-07
1.71389e-07
3.94713e-07
1.50478e-07
-1.28034e-07
1.54637e-07
-6.45967e-07
1.83289e-07
-1.15919e-06
2.35306e-07
-1.66763e-06
3.08999e-07
-2.17096e-06
4.02097e-07
-2.66847e-06
5.11712e-07
-3.15892e-06
6.34306e-07
-3.64045e-06
7.65654e-07
-4.11044e-06
9.00817e-07
-4.56531e-06
1.03414e-06
-5.00037e-06
1.15929e-06
-5.40964e-06
1.26936e-06
-5.78554e-06
1.35702e-06
-6.11873e-06
1.41488e-06
-6.39781e-06
1.43588e-06
-6.60912e-06
1.41396e-06
-6.73659e-06
1.34491e-06
-6.76171e-06
1.22735e-06
-6.66376e-06
1.06399e-06
-6.42039e-06
8.62754e-07
-6.00861e-06
6.37804e-07
-5.40649e-06
4.09997e-07
-4.59537e-06
2.06451e-07
-3.56262e-06
5.88489e-08
-2.30462e-06
-8.31053e-07
6.48367e-08
9.05763e-07
2.2922e-07
2.50976e-06
4.59779e-07
3.87997e-06
7.23619e-07
5.00423e-06
9.91399e-07
5.88256e-06
1.23933e-06
6.5247e-06
1.45012e-06
6.94805e-06
1.61303e-06
7.17529e-06
1.72318e-06
7.23188e-06
1.7805e-06
7.14402e-06
1.78854e-06
6.93697e-06
1.75328e-06
6.63401e-06
1.68213e-06
6.25578e-06
1.58311e-06
5.82004e-06
1.46428e-06
5.3416e-06
1.33327e-06
4.83256e-06
1.19703e-06
4.30253e-06
1.06173e-06
3.759e-06
9.32641e-07
3.20762e-06
8.1416e-07
2.65257e-06
7.0985e-07
2.09683e-06
6.22481e-07
1.54245e-06
5.54094e-07
9.90792e-07
5.06053e-07
4.42753e-07
4.79098e-07
-1.01078e-07
4.73375e-07
-6.40244e-07
4.88464e-07
-1.17428e-06
5.2339e-07
-1.70255e-06
5.76618e-07
-2.22419e-06
6.46046e-07
-2.7379e-06
7.28987e-07
-3.24186e-06
8.2215e-07
-3.73361e-06
9.2163e-07
-4.20992e-06
1.02291e-06
-4.66658e-06
1.12088e-06
-5.09834e-06
1.20992e-06
-5.49868e-06
1.28401e-06
-5.85964e-06
1.33697e-06
-6.17169e-06
1.36271e-06
-6.42355e-06
1.3557e-06
-6.60212e-06
1.31154e-06
-6.69243e-06
1.22763e-06
-6.6778e-06
1.10402e-06
-6.54015e-06
9.44262e-07
-6.26063e-06
7.56253e-07
-5.8206e-06
5.52804e-07
-5.20304e-06
3.51784e-07
-4.39435e-06
1.75575e-07
-3.38641e-06
4.96459e-08
-2.1787e-06
-7.81407e-07
5.65398e-08
8.49223e-07
2.01435e-07
2.36487e-06
4.07419e-07
3.67399e-06
6.47322e-07
4.76432e-06
8.96358e-07
5.63353e-06
1.13373e-06
6.28733e-06
1.34354e-06
6.73824e-06
1.51506e-06
7.00376e-06
1.64242e-06
7.10453e-06
1.72391e-06
7.06253e-06
1.76114e-06
6.89974e-06
1.75814e-06
6.63701e-06
1.72052e-06
6.29341e-06
1.65475e-06
5.8858e-06
1.56763e-06
5.42872e-06
1.46583e-06
4.93436e-06
1.35562e-06
4.41274e-06
1.24269e-06
3.87193e-06
1.13203e-06
3.31829e-06
1.02789e-06
2.75671e-06
9.33814e-07
2.19091e-06
8.52594e-07
1.62367e-06
7.86364e-07
1.05702e-06
7.36612e-07
4.92506e-07
7.04218e-07
-6.86846e-08
6.89491e-07
-6.25517e-07
6.92182e-07
-1.17697e-06
7.11506e-07
-1.72188e-06
7.46138e-07
-2.25882e-06
7.94216e-07
-2.78597e-06
8.53335e-07
-3.30098e-06
9.20545e-07
-3.80082e-06
9.92354e-07
-4.28172e-06
1.06475e-06
-4.73898e-06
1.13324e-06
-5.16684e-06
1.19296e-06
-5.5584e-06
1.23878e-06
-5.90546e-06
1.26555e-06
-6.19845e-06
1.26835e-06
-6.42635e-06
1.2429e-06
-6.57667e-06
1.18606e-06
-6.63558e-06
1.09635e-06
-6.58809e-06
9.74641e-07
-6.41844e-06
8.24784e-07
-6.11077e-06
6.54139e-07
-5.64996e-06
4.73932e-07
-5.02283e-06
2.99211e-07
-4.21963e-06
1.48305e-07
-3.23551e-06
4.1673e-08
-2.07206e-06
-7.39735e-07
4.91368e-08
8.00086e-07
1.76179e-07
2.23782e-06
3.58767e-07
3.4914e-06
5.74445e-07
4.54865e-06
8.0236e-07
5.40561e-06
1.02453e-06
6.06516e-06
1.22668e-06
6.53609e-06
1.39858e-06
6.83187e-06
1.53393e-06
6.96917e-06
1.63e-06
6.96646e-06
1.68701e-06
6.84273e-06
1.70741e-06
6.6166e-06
1.69532e-06
6.3055e-06
1.6558e-06
5.92532e-06
1.59447e-06
5.49006e-06
1.51701e-06
5.01182e-06
1.42894e-06
4.50081e-06
1.33538e-06
3.96549e-06
1.24093e-06
3.41273e-06
1.14961e-06
2.84803e-06
1.0648e-06
2.27572e-06
9.89266e-07
1.69921e-06
9.25147e-07
1.12114e-06
8.74006e-07
5.43647e-07
8.3684e-07
-3.15187e-08
8.14104e-07
-6.02781e-07
8.05733e-07
-1.1686e-06
8.1115e-07
-1.7273e-06
8.29282e-07
-2.27695e-06
8.58558e-07
-2.81525e-06
8.96913e-07
-3.33933e-06
9.41798e-07
-3.84571e-06
9.90195e-07
-4.33012e-06
1.03865e-06
-4.78743e-06
1.08332e-06
-5.21151e-06
1.12008e-06
-5.59516e-06
1.14466e-06
-5.93004e-06
1.15282e-06
-6.20662e-06
1.14064e-06
-6.41417e-06
1.10485e-06
-6.54087e-06
1.04318e-06
-6.57392e-06
9.54923e-07
-6.49982e-06
8.41318e-07
-6.30484e-06
7.06083e-07
-5.97554e-06
5.55758e-07
-5.49963e-06
3.99893e-07
-4.86697e-06
2.50929e-07
-4.07066e-06
1.23716e-07
-3.10829e-06
3.45977e-08
-1.98295e-06
-7.05137e-07
4.24028e-08
7.57683e-07
1.52844e-07
2.12738e-06
3.12997e-07
3.33125e-06
5.04348e-07
4.35729e-06
7.0946e-07
5.2005e-06
9.1297e-07
5.86165e-06
1.1023e-06
6.34676e-06
1.26799e-06
6.66617e-06
1.4038e-06
6.83337e-06
1.5064e-06
6.86385e-06
1.57505e-06
6.77408e-06
1.61105e-06
6.5806e-06
1.61722e-06
6.29933e-06
1.59747e-06
5.94507e-06
1.55628e-06
5.53124e-06
1.49841e-06
5.06968e-06
1.42861e-06
4.57062e-06
1.35136e-06
4.04273e-06
1.27082e-06
3.49327e-06
1.19067e-06
2.92818e-06
1.11407e-06
2.35232e-06
1.04366e-06
1.76961e-06
9.81561e-07
1.18324e-06
9.29346e-07
5.95861e-07
8.88099e-07
9.72892e-09
8.58406e-07
-5.73088e-07
8.4038e-07
-1.15057e-06
8.33672e-07
-1.72059e-06
8.37478e-07
-2.28076e-06
8.5055e-07
-2.82832e-06
8.71205e-07
-3.35999e-06
8.97332e-07
-3.87184e-06
9.26421e-07
-4.35921e-06
9.55593e-07
-4.8166e-06
9.81664e-07
-5.23758e-06
1.00123e-06
-5.61472e-06
1.01079e-06
-5.9396e-06
1.00693e-06
-6.20276e-06
9.86556e-07
-6.39379e-06
9.47133e-07
-6.50145e-06
8.87062e-07
-6.51385e-06
8.06014e-07
-6.41878e-06
7.0531e-07
-6.20413e-06
5.88257e-07
-5.85848e-06
4.60395e-07
-5.37177e-06
3.29585e-07
-4.73616e-06
2.05881e-07
-3.94696e-06
1.01112e-07
-3.00352e-06
2.81788e-08
-1.91001e-06
-6.76958e-07
3.61726e-08
7.2151e-07
1.30971e-07
2.03259e-06
2.69458e-07
3.19276e-06
4.36478e-07
4.19027e-06
6.17589e-07
5.01939e-06
7.99836e-07
5.6794e-06
9.72339e-07
6.17426e-06
1.12664e-06
6.51187e-06
1.25678e-06
6.70322e-06
1.35926e-06
6.76137e-06
1.43269e-06
6.70065e-06
1.47752e-06
6.53578e-06
1.49559e-06
6.28126e-06
1.48977e-06
5.9509e-06
1.46357e-06
5.55744e-06
1.42087e-06
5.11238e-06
1.36565e-06
4.62584e-06
1.30178e-06
4.10661e-06
1.23288e-06
3.56217e-06
1.16225e-06
2.99881e-06
1.09279e-06
2.42178e-06
1.02695e-06
1.83545e-06
9.66761e-07
1.24343e-06
9.13783e-07
6.48839e-07
8.69147e-07
5.43653e-08
8.33552e-07
-5.37493e-07
8.07281e-07
-1.1243e-06
7.90212e-07
-1.70352e-06
7.81823e-07
-2.27237e-06
7.81207e-07
-2.82771e-06
7.87079e-07
-3.36586e-06
7.97791e-07
-3.88255e-06
8.11354e-07
-4.37277e-06
8.25473e-07
-4.83072e-06
8.37599e-07
-5.2497e-06
8.45009e-07
-5.62213e-06
8.44917e-07
-5.93951e-06
8.34614e-07
-6.19246e-06
8.11662e-07
-6.37084e-06
7.74112e-07
-6.4639e-06
7.20771e-07
-6.46051e-06
6.51477e-07
-6.34948e-06
5.67384e-07
-6.12004e-06
4.71202e-07
-5.7623e-06
3.67369e-07
-5.26794e-06
2.62097e-07
-4.63089e-06
1.6324e-07
-3.8481e-06
7.99699e-08
-2.92025e-06
2.22383e-08
-1.85228e-06
-6.5472e-07
3.03227e-08
6.91188e-07
1.10211e-07
1.9527e-06
2.27643e-07
3.07533e-06
3.70376e-07
4.04754e-06
5.26624e-07
4.86314e-06
6.85658e-07
5.52037e-06
8.38271e-07
6.02165e-06
9.77087e-07
6.37306e-06
1.0967e-06
6.58361e-06
1.19362e-06
6.66445e-06
1.26615e-06
6.62812e-06
1.31412e-06
6.4878e-06
1.33862e-06
6.25676e-06
1.34166e-06
5.94786e-06
1.32591e-06
5.57319e-06
1.29443e-06
5.14385e-06
1.25047e-06
4.6698e-06
1.19727e-06
4.15982e-06
1.13792e-06
3.62152e-06
1.0753e-06
3.06143e-06
1.01198e-06
2.4851e-06
9.50201e-07
1.89722e-06
8.91844e-07
1.30179e-06
8.3842e-07
7.02263e-07
7.91077e-07
1.01708e-07
7.50605e-07
-4.97021e-07
7.17443e-07
-1.09114e-06
6.91686e-07
-1.67776e-06
6.73098e-07
-2.25378e-06
6.61117e-07
-2.81572e-06
6.54865e-07
-3.35961e-06
6.53162e-07
-3.88085e-06
6.54543e-07
-4.37415e-06
6.57286e-07
-4.83346e-06
6.59459e-07
-5.25188e-06
6.58979e-07
-5.62165e-06
6.53699e-07
-5.93423e-06
6.41524e-07
-6.18028e-06
6.20555e-07
-6.34987e-06
5.89265e-07
-6.43261e-06
5.46696e-07
-6.41794e-06
4.92675e-07
-6.29546e-06
4.28023e-07
-6.05539e-06
3.54731e-07
-5.68901e-06
2.76084e-07
-5.18929e-06
1.96686e-07
-4.55149e-06
1.22357e-07
-3.77377e-06
5.98873e-08
-2.85778e-06
1.66427e-08
-1.80904e-06
-6.38077e-07
2.47583e-08
6.66429e-07
9.0292e-08
1.88716e-06
1.87146e-07
2.97847e-06
3.05654e-07
3.92903e-06
4.36428e-07
4.73237e-06
5.708e-07
5.386e-06
7.01194e-07
5.89125e-06
8.2138e-07
6.25287e-06
9.26617e-07
6.47837e-06
1.01367e-06
6.57741e-06
1.08071e-06
6.56108e-06
1.12718e-06
6.44133e-06
1.15358e-06
6.23036e-06
1.16123e-06
5.94021e-06
1.15208e-06
5.58235e-06
1.12844e-06
5.16749e-06
1.09288e-06
4.70536e-06
1.04801e-06
4.20469e-06
9.96399e-07
3.67313e-06
9.40475e-07
3.11736e-06
8.82459e-07
2.54312e-06
8.24328e-07
1.95535e-06
7.67786e-07
1.35833e-06
7.14256e-07
7.55792e-07
6.64877e-07
1.51087e-07
6.20501e-07
-4.52645e-07
5.81703e-07
-1.05234e-06
5.48789e-07
-1.64485e-06
5.21797e-07
-2.22679e-06
5.00506e-07
-2.79443e-06
4.84445e-07
-3.34355e-06
4.72898e-07
-3.8693e-06
4.64918e-07
-4.36617e-06
4.59346e-07
-4.82789e-06
4.5484e-07
-5.24737e-06
4.49918e-07
-5.61673e-06
4.43017e-07
-5.92733e-06
4.32577e-07
-6.16984e-06
4.17142e-07
-6.33444e-06
3.95487e-07
-6.41096e-06
3.66768e-07
-6.38922e-06
3.30669e-07
-6.25936e-06
2.87566e-07
-6.01228e-06
2.38651e-07
-5.64009e-06
1.86032e-07
-5.13667e-06
1.32751e-07
-4.49821e-06
8.27202e-08
-3.72374e-06
4.05531e-08
-2.81562e-06
1.12895e-08
-1.77977e-06
-6.26788e-07
1.94049e-08
6.47025e-07
7.09987e-08
1.83557e-06
1.47638e-07
2.90183e-06
2.41989e-07
3.83468e-06
3.4686e-07
4.6275e-06
4.55518e-07
5.27734e-06
5.61967e-07
5.7848e-06
6.61156e-07
6.15368e-06
7.49107e-07
6.39042e-06
8.22959e-07
6.50355e-06
8.80934e-07
6.5031e-06
9.22243e-07
6.40002e-06
9.46952e-07
6.20565e-06
9.55825e-07
5.93133e-06
9.50161e-07
5.58801e-06
9.31633e-07
5.18602e-06
9.0215e-07
4.73485e-06
8.63732e-07
4.2431e-06
8.18412e-07
3.71845e-06
7.68158e-07
3.16761e-06
7.14815e-07
2.59646e-06
6.6007e-07
2.0101e-06
6.0542e-07
1.41298e-06
5.52169e-07
8.09044e-07
5.01411e-07
2.01845e-07
4.54039e-07
-4.05274e-07
4.10745e-07
-1.00905e-06
3.72022e-07
-1.60612e-06
3.38172e-07
-2.19294e-06
3.09306e-07
-2.76557e-06
2.85349e-07
-3.31959e-06
2.66045e-07
-3.84999e-06
2.50952e-07
-4.35108e-06
2.39462e-07
-4.8164e-06
2.308e-07
-5.23871e-06
2.24055e-07
-5.60998e-06
2.18206e-07
-5.92148e-06
2.12171e-07
-6.16381e-06
2.04869e-07
-6.32714e-06
1.95299e-07
-6.40139e-06
1.8264e-07
-6.37656e-06
1.66352e-07
-6.24308e-06
1.46289e-07
-5.99222e-06
1.22799e-07
-5.6166e-06
9.67977e-08
-5.11067e-06
6.98061e-08
-4.47122e-06
4.39212e-08
-3.69786e-06
2.17218e-08
-2.79342e-06
6.09892e-09
-1.76415e-06
-6.20689e-07
1.42017e-08
6.32823e-07
5.21524e-08
1.79762e-06
1.08843e-07
2.84514e-06
1.79098e-07
3.76443e-06
2.5778e-07
4.54882e-06
3.39992e-07
5.19513e-06
4.21277e-07
5.70352e-06
4.97774e-07
6.07719e-06
5.66331e-07
6.32186e-06
6.24558e-07
6.44533e-06
6.70837e-07
6.45682e-06
7.0427e-07
6.36658e-06
7.24612e-07
6.18531e-06
7.32165e-07
5.92378e-06
7.27676e-07
5.5925e-06
7.12219e-07
5.20147e-06
6.87102e-07
4.75996e-06
6.53766e-07
4.27644e-06
6.13713e-07
3.7585e-06
5.68444e-07
3.21288e-06
5.19412e-07
2.64549e-06
4.67986e-07
2.06152e-06
4.15434e-07
1.46554e-06
3.62904e-07
8.61573e-07
3.11425e-07
2.53324e-07
2.61901e-07
-3.5575e-07
2.15116e-07
-9.6226e-07
1.71732e-07
-1.56274e-06
1.32295e-07
-2.1535e-06
9.7236e-08
-2.73051e-06
6.6864e-08
-3.28922e-06
4.13672e-08
-3.8245e-06
2.08049e-08
-4.33052e-06
5.10112e-09
-4.8007e-06
-5.96134e-09
-5.22765e-06
-1.27443e-08
-5.6032e-06
-1.5752e-08
-5.91847e-06
-1.56204e-08
-6.16394e-06
-1.30961e-08
-6.32966e-06
-9.0015e-09
-6.40548e-06
-4.18592e-09
-6.38137e-06
5.36454e-10
-6.2478e-06
4.45844e-09
-5.99614e-06
7.05331e-09
-5.6192e-06
8.0448e-09
-5.11166e-06
7.45621e-09
-4.47063e-06
5.62821e-09
-3.69603e-06
3.19423e-09
-2.79098e-06
1.00639e-09
-1.76196e-06