/*--------------------------------*- C++ -*----------------------------------*\
  =========                 |
  \\      /  F ield         | OpenFOAM: The Open Source CFD Toolbox
   \\    /   O peration     | Website:  https://openfoam.org
    \\  /    A nd           | Version:  7
     \\/     M anipulation  |
\*---------------------------------------------------------------------------*/
FoamFile
{
    version     2.0;
    format      ascii;
    class       volScalarField;
    location    "0.0332";
    object      p;
}
// * * * * * * * * * * * * * * * * * * * * * * * * * * * * * * * * * * * * * //

dimensions      [0 2 -2 0 0 0 0];

internalField   nonuniform List<scalar> 
2500
(
1.06234e-05
-0.000492539
-0.00193253
-0.0040003
-0.00639024
-0.00878786
-0.0110208
-0.012931
-0.0144027
-0.0153546
-0.0157321
-0.0155021
-0.0146495
-0.0131736
-0.0110864
-0.0084098
-0.00517503
-0.00142046
0.00280919
0.0074638
0.0124886
0.017825
0.0234108
0.0291814
0.0350698
0.041007
0.0469232
0.0527478
0.0584101
0.0638404
0.0689705
0.0737347
0.078071
0.0819219
0.0852361
0.0879695
0.0900871
0.0915646
0.09239
0.0925662
0.0921131
0.0910701
0.0895002
0.0874937
0.0851746
0.0827068
0.080291
0.0782088
0.0767805
0.0762986
0.00052996
2.29911e-05
-0.0011456
-0.00277117
-0.00462155
-0.0064975
-0.00824257
-0.00972662
-0.0108483
-0.0115322
-0.011725
-0.0113919
-0.0105142
-0.00908704
-0.00711702
-0.00462084
-0.00162375
0.00184164
0.00573644
0.0100163
0.0146324
0.0195316
0.0246576
0.0299516
0.0353521
0.0407964
0.0462203
0.0515595
0.0567497
0.0617277
0.0664319
0.0708036
0.0747876
0.0783334
0.0813967
0.0839402
0.0859353
0.0873637
0.0882186
0.0885071
0.0882516
0.0874921
0.086289
0.084725
0.0829087
0.0809768
0.0790929
0.0774524
0.0762954
0.0758169
0.00197912
0.00119516
1.80549e-05
-0.00144897
-0.00306082
-0.0046683
-0.00614328
-0.00737888
-0.00828866
-0.00880582
-0.00888141
-0.00848248
-0.00759026
-0.00619824
-0.00431062
-0.00194097
0.000888923
0.00415024
0.00780806
0.0118222
0.0161477
0.0207359
0.0255347
0.0304894
0.035543
0.040637
0.0457118
0.0507075
0.0555645
0.060224
0.0646295
0.0687266
0.0724652
0.0757993
0.0786891
0.0811015
0.0830118
0.0844048
0.0852763
0.0856346
0.0855019
0.0849159
0.0839317
0.0826226
0.0810821
0.079423
0.0777783
0.0762993
0.0751375
0.0743896
0.00407763
0.00283758
0.00146875
-2.37025e-05
-0.00157883
-0.00308
-0.00442422
-0.00552573
-0.00631317
-0.00672987
-0.00673339
-0.00629466
-0.0053968
-0.00403369
-0.00220882
6.57149e-05
0.00277019
0.00587826
0.0093578
0.0131716
0.0172779
0.0216312
0.0261829
0.0308814
0.0356733
0.0405036
0.045316
0.0500543
0.0546622
0.0590847
0.0632686
0.067163
0.0707211
0.0739
0.076663
0.0789794
0.0808266
0.082191
0.0830689
0.083468
0.0834085
0.0829242
0.0820631
0.0808885
0.0794786
0.0779253
0.076337
0.0748332
0.0734821
0.0722943
0.00653477
0.00473758
0.00308134
0.00146407
-0.000133253
-0.00161971
-0.00291346
-0.00394812
-0.00466698
-0.00502386
-0.00498369
-0.00452233
-0.00362584
-0.00228961
-0.000517461
0.00167903
0.00428135
0.00726486
0.0105995
0.0142504
0.0181783
0.0223406
0.0266911
0.0311815
0.035761
0.0403776
0.044978
0.0495088
0.0539167
0.0581495
0.0621567
0.0658902
0.0693054
0.0723619
0.0750248
0.0772652
0.0790613
0.0804
0.0812771
0.0816987
0.0816819
0.0812555
0.0804603
0.0793492
0.0779859
0.0764437
0.0748103
0.0731808
0.0715458
0.0698157
0.00910594
0.00672465
0.00472563
0.00291403
0.00120056
-0.000342919
-0.00165155
-0.00267577
-0.00337224
-0.0037049
-0.00364617
-0.0031773
-0.00228805
-0.000976048
0.000753742
0.00288949
0.00541313
0.008301
0.0115244
0.0150503
0.0188414
0.0228569
0.0270532
0.0313841
0.0358013
0.0402551
0.0446945
0.0490685
0.053326
0.0574168
0.0612926
0.0649072
0.0682175
0.0711847
0.0737748
0.0759594
0.0777172
0.0790343
0.0799053
0.0803337
0.0803331
0.0799268
0.0791484
0.0780411
0.0766558
0.0750498
0.0732946
0.0714676
0.0694911
0.0671841
0.0116319
0.00866178
0.00628853
0.00423481
0.0023507
0.000694939
-0.000680549
-0.00174029
-0.00245263
-0.00279075
-0.00273434
-0.00227015
-0.00139198
-0.000100227
0.00159841
0.00369123
0.00615995
0.00898127
0.0121273
0.0155661
0.0192617
0.023175
0.027264
0.0314842
0.0357891
0.0401309
0.0444604
0.0487281
0.0528847
0.0568814
0.0606712
0.064209
0.0674526
0.0703638
0.0729087
0.075059
0.0767925
0.078094
0.078956
0.0793794
0.0793733
0.0789559
0.0781539
0.0770016
0.0755393
0.073811
0.0718765
0.0698014
0.0674497
0.0645602
0.0139849
0.010436
0.00767329
0.00534684
0.00325449
0.0014466
-3.43539e-05
-0.0011644
-0.00192185
-0.00228809
-0.00224955
-0.00179836
-0.00093247
0.000344664
0.00202419
0.00409206
0.00652929
0.0093124
0.0124138
0.015802
0.019442
0.0232958
0.0273224
0.0314787
0.0357195
0.0399981
0.0442667
0.0484769
0.0525802
0.0565289
0.0602765
0.0637783
0.0669924
0.0698804
0.0724079
0.0745458
0.0762703
0.0775646
0.0784184
0.0788292
0.0788022
0.0783502
0.0774936
0.0762593
0.0746784
0.0727848
0.0706302
0.0682733
0.0655285
0.062064
0.0160692
0.0119553
0.00879659
0.0061779
0.00385157
0.00186323
0.000248745
-0.000977155
-0.00180114
-0.00221175
-0.00220154
-0.00176775
-0.000912417
0.000357765
0.00203155
0.00409318
0.00652256
0.00929561
0.0123845
0.0157579
0.0193813
0.0232171
0.0272251
0.031363
0.0355864
0.0398493
0.0441046
0.0483045
0.0524012
0.0563469
0.0600953
0.0636016
0.0668233
0.0697212
0.0722599
0.0744085
0.0761415
0.0774395
0.0782894
0.078685
0.0786273
0.0781242
0.0771904
0.0758464
0.0741161
0.0720257
0.0696217
0.0669601
0.0638121
0.0597836
0.0178112
0.0131441
0.00958605
0.00666206
0.00408381
0.00189488
0.000126759
-0.00121319
-0.00211861
-0.00258424
-0.00260813
-0.00219231
-0.00134282
-6.95933e-05
0.00161352
0.0036888
0.00613471
0.00892621
0.0120349
0.0154291
0.0190744
0.0229332
0.0269658
0.0311301
0.035382
0.039676
0.0439651
0.0482017
0.0523377
0.0563253
0.0601177
0.0636691
0.0669361
0.0698781
0.0724578
0.0746424
0.076404
0.07772
0.0785741
0.0789564
0.0788636
0.078299
0.0772723
0.0757987
0.0738964
0.0715855
0.0689104
0.0659271
0.0623687
0.0577834
0.019152
0.013938
0.00997736
0.00673839
0.00389523
0.00149132
-0.000444499
-0.0019108
-0.00290705
-0.0034334
-0.00349287
-0.00309193
-0.00224047
-0.000951731
0.000757749
0.00286805
0.00535598
0.00819519
0.0113564
0.0148073
0.0185129
0.0224358
0.0265359
0.0307711
0.0350973
0.0394688
0.0438386
0.0481587
0.0523804
0.0564552
0.0603351
0.0639732
0.0673245
0.0703463
0.0729991
0.0752475
0.0770604
0.078412
0.0792825
0.079658
0.0795309
0.0789001
0.0777709
0.0761539
0.0740628
0.0715138
0.0685505
0.0652312
0.0612542
0.0561132
0.0200411
0.01428
0.0099117
0.00634933
0.00323115
0.000601836
-0.00151123
-0.00311147
-0.00420336
-0.0047918
-0.00488436
-0.00449168
-0.00362743
-0.00230813
-0.000553123
0.00161533
0.0041721
0.00708933
0.0103365
0.0138804
0.0176855
0.0217135
0.0259242
0.0302749
0.0347213
0.0392171
0.0437148
0.0481655
0.0525198
0.0567278
0.0607401
0.064508
0.0679843
0.0711238
0.0738842
0.0762269
0.0781175
0.0795264
0.0804297
0.0808093
0.0806535
0.079957
0.0787207
0.0769517
0.0746599
0.0718586
0.0685925
0.0649238
0.0605173
0.0548134
0.0204326
0.0141171
0.00933311
0.00543884
0.00203704
-0.000825497
-0.00312198
-0.00485999
-0.00604843
-0.0066965
-0.00681602
-0.00642168
-0.00553081
-0.00416326
-0.00234128
-8.9641e-05
0.00256442
0.00559128
0.00895895
0.0126331
0.0165772
0.0207521
0.0251169
0.0296283
0.0342412
0.0389087
0.0435821
0.0482116
0.0527464
0.057135
0.0613261
0.0652688
0.068913
0.0722107
0.0751164
0.0775876
0.079586
0.0810778
0.0820347
0.0824342
0.0822602
0.081503
0.0801598
0.0782342
0.0757334
0.0726683
0.0690859
0.0650535
0.0602027
0.0539199
0.0202816
0.0133971
0.00818622
0.00395063
0.000257159
-0.00284469
-0.00532822
-0.00720474
-0.00848725
-0.00918904
-0.00932601
-0.00891682
-0.00798252
-0.00654631
-0.0046335
-0.00227153
0.00051008
0.00367974
0.00720379
0.0110465
0.0151701
0.0195345
0.0240978
0.0288157
0.0336423
0.0385294
0.0434275
0.0482851
0.0530498
0.0576682
0.0620867
0.0662514
0.0701094
0.0736092
0.0767013
0.079339
0.0814795
0.0830844
0.0841204
0.0845604
0.0843834
0.0835755
0.0821299
0.080047
0.0773314
0.0739929
0.0700808
0.0656688
0.0603542
0.0534675
0.0195418
0.0120669
0.00641423
0.00182652
-0.00216664
-0.00551274
-0.00818489
-0.010198
-0.0115691
-0.0123155
-0.0124571
-0.0120167
-0.0110191
-0.00949103
-0.00746099
-0.00495924
-0.00201781
0.00132956
0.00504736
0.00909828
0.0134431
0.0180406
0.0228477
0.027819
0.0329074
0.0380636
0.0432364
0.048373
0.0534189
0.0583184
0.063015
0.0674521
0.0715731
0.0753224
0.0786461
0.0814928
0.0838146
0.0855677
0.0867136
0.0872197
0.08706
0.0862159
0.0846766
0.0824392
0.079506
0.0758852
0.0716299
0.0668202
0.0610176
0.053493
0.0181633
0.0100702
0.00395719
-0.000994975
-0.0052961
-0.00889053
-0.0117511
-0.0138965
-0.0153478
-0.0161264
-0.0162567
-0.0157655
-0.0146817
-0.0130356
-0.0108592
-0.00818574
-0.00505002
-0.00148806
0.00246259
0.00676287
0.011372
0.0162475
0.0213448
0.0266176
0.0320172
0.0374931
0.0429925
0.0484607
0.053841
0.0590753
0.0641041
0.0688671
0.0733038
0.0773542
0.0809594
0.0840626
0.0866101
0.0885522
0.0898444
0.0904479
0.0903313
0.0894706
0.0878506
0.085465
0.0823135
0.0784031
0.0737902
0.0685626
0.0622428
0.0540378
0.016091
0.00734568
0.000750408
-0.0045801
-0.00919777
-0.0130438
-0.016091
-0.0183619
-0.0198821
-0.0206776
-0.0207771
-0.0202121
-0.0190157
-0.0172223
-0.0148675
-0.0119878
-0.00862092
-0.00480536
-0.000580876
0.00401159
0.00892965
0.0141293
0.0195648
0.0251883
0.0309499
0.0367977
0.0426772
0.0485316
0.054302
0.0599276
0.0653455
0.0704916
0.0753011
0.0797089
0.0836506
0.0870633
0.089887
0.092065
0.0935461
0.0942847
0.0942429
0.0933907
0.091708
0.0891844
0.0858167
0.0816102
0.0766253
0.0709571
0.0640862
0.0551498
0.0132628
0.00382549
-0.00327708
-0.00900122
-0.0139442
-0.0180442
-0.0212742
-0.0236614
-0.0252362
-0.0260296
-0.0260754
-0.02541
-0.0240711
-0.0220977
-0.0195292
-0.0164058
-0.0127682
-0.00865773
-0.00411635
0.000812973
0.00608615
0.0116577
0.0174805
0.0235055
0.0296815
0.0359549
0.0422696
0.0485671
0.0547858
0.060862
0.0667295
0.07232
0.0775639
0.0823906
0.0867295
0.0905111
0.0936679
0.0961358
0.0978555
0.0987738
0.0988452
0.0980331
0.096311
0.0936641
0.0900853
0.085578
0.0802063
0.0740731
0.0666127
0.0568859
0.00960813
-0.000566132
-0.00820396
-0.0143382
-0.0196151
-0.0239703
-0.0273773
-0.0298685
-0.0314801
-0.0322486
-0.0322136
-0.0314171
-0.029902
-0.027712
-0.0248911
-0.0214833
-0.0175326
-0.0130832
-0.00817961
-0.00286681
0.00280943
0.00880215
0.0150629
0.0215415
0.0281855
0.0349399
0.0417471
0.0485465
0.0552742
0.0618636
0.0682448
0.0743452
0.08009
0.0854027
0.0902059
0.0944226
0.097977
0.100796
0.102813
0.103963
0.104194
0.103461
0.101729
0.0989787
0.095198
0.0903874
0.0846145
0.0779903
0.0698976
0.0593137
0.00504682
-0.00591443
-0.0141181
-0.0206796
-0.0262987
-0.0309086
-0.034484
-0.0370635
-0.03869
-0.0394065
-0.0392591
-0.0382961
-0.0365664
-0.0341191
-0.031003
-0.0272664
-0.0229569
-0.0181219
-0.0128084
-0.00706334
-0.000934323
0.0055304
0.0122813
0.0192669
0.026434
0.0337263
0.0410847
0.048447
0.0557471
0.0629153
0.069878
0.0765583
0.0828759
0.0887477
0.0940892
0.0988147
0.102839
0.106081
0.10846
0.109905
0.110351
0.109743
0.10804
0.105212
0.101243
0.0961301
0.0899426
0.0828003
0.0740289
0.0625136
-0.000512515
-0.0123155
-0.0211179
-0.0281244
-0.0340929
-0.0389547
-0.0426866
-0.0453345
-0.0469492
-0.0475811
-0.0472843
-0.046114
-0.0441261
-0.0413757
-0.0379171
-0.0338032
-0.0290858
-0.0238153
-0.0180414
-0.0118132
-0.00517979
0.00180932
0.00910364
0.0166511
0.0243975
0.0322859
0.0402561
0.0482442
0.0561823
0.0639979
0.0716139
0.0789486
0.0859162
0.0924268
0.0983878
0.103704
0.108281
0.112025
0.114845
0.116657
0.117383
0.116958
0.115329
0.112458
0.108322
0.102911
0.0962973
0.0886094
0.0791096
0.0665815
-0.0071738
-0.0198781
-0.029314
-0.0367832
-0.0431066
-0.0482145
-0.0520866
-0.0547777
-0.0563477
-0.0568564
-0.0563665
-0.0549418
-0.0526459
-0.0495409
-0.0456872
-0.041143
-0.0359643
-0.0302049
-0.0239173
-0.0171527
-0.00996146
-0.0023941
0.00549829
0.0136633
0.0220462
0.0305899
0.0392335
0.0479121
0.056556
0.0650904
0.0734349
0.0815032
0.0892037
0.0964394
0.103109
0.109108
0.114329
0.118667
0.122016
0.124279
0.125364
0.12519
0.123693
0.120823
0.116547
0.110848
0.103801
0.0955405
0.0852596
0.0716301
-0.0150551
-0.028725
-0.0388312
-0.04678
-0.0534616
-0.0588055
-0.0627959
-0.0654983
-0.0669837
-0.0673224
-0.0665879
-0.064854
-0.062193
-0.0586751
-0.0543677
-0.0493347
-0.0436366
-0.0373311
-0.0304735
-0.0231166
-0.0153122
-0.0071113
0.00143476
0.0102737
0.0193511
0.0286099
0.0379894
0.0474242
0.0568435
0.0661705
0.075322
0.0842073
0.0927292
0.100783
0.108259
0.115041
0.12101
0.126045
0.130026
0.132839
0.134374
0.134534
0.13324
0.130427
0.126048
0.120079
0.112594
0.103736
0.0926191
0.0777927
-0.0242904
-0.0389954
-0.0498102
-0.0582545
-0.0652938
-0.0708583
-0.0749381
-0.0776115
-0.0789628
-0.0790755
-0.0780354
-0.0759279
-0.0728359
-0.0688389
-0.0640118
-0.0584251
-0.0521444
-0.0452313
-0.0377436
-0.0297361
-0.0212613
-0.0123704
-0.00311439
0.00645522
0.0162851
0.026319
0.0364971
0.0467542
0.0570195
0.0672149
0.0772547
0.0870446
0.0964816
0.105454
0.113842
0.121519
0.12835
0.134199
0.13893
0.142406
0.1445
0.145095
0.144089
0.141402
0.136972
0.13076
0.12284
0.113361
0.101351
0.0852253
-0.0350317
-0.050847
-0.0624103
-0.0713641
-0.078756
-0.0845184
-0.0886493
-0.0912428
-0.0923992
-0.0922178
-0.0907991
-0.0882426
-0.0846432
-0.080091
-0.0746699
-0.0684574
-0.0615248
-0.0539375
-0.0457561
-0.0370368
-0.0278325
-0.0181942
-0.00817153
0.00218542
0.0128252
0.0236935
0.0347323
0.0458778
0.0570599
0.0682003
0.0792118
0.089997
0.100448
0.110446
0.119861
0.128553
0.136375
0.143172
0.148785
0.153058
0.155839
0.156985
0.156374
0.153901
0.149484
0.143069
0.134725
0.124606
0.111646
0.0941103
-0.0474514
-0.0644593
-0.0768125
-0.0862867
-0.0940198
-0.0999481
-0.10408
-0.106529
-0.107415
-0.106857
-0.104972
-0.101877
-0.0976811
-0.0924864
-0.0863869
-0.0794681
-0.0718072
-0.0634738
-0.0545308
-0.0450358
-0.0350414
-0.0245973
-0.0137515
-0.00255142
0.00895446
0.020715
0.032675
0.0447736
0.0569426
0.0691047
0.0811724
0.0930462
0.104614
0.11575
0.126315
0.136157
0.145111
0.153003
0.159652
0.164875
0.168492
0.170333
0.170244
0.168094
0.163775
0.157211
0.148464
0.137693
0.123724
0.104661
-0.0617455
-0.0800367
-0.0932231
-0.103225
-0.111279
-0.117329
-0.121397
-0.123619
-0.124142
-0.123105
-0.120649
-0.116909
-0.112012
-0.106073
-0.0991994
-0.0914839
-0.0830104
-0.0738528
-0.0640762
-0.0537385
-0.0428918
-0.0315837
-0.019859
-0.00776145
0.00466463
0.0173726
0.0303119
0.0434257
0.0566494
0.0699086
0.0831167
0.0961737
0.108964
0.121358
0.133204
0.144339
0.154581
0.163734
0.171592
0.177943
0.182573
0.185277
0.185865
0.184173
0.18006
0.173422
0.164308
0.152879
0.137844
0.117126
-0.0781378
-0.0978141
-0.111879
-0.12241
-0.130754
-0.136865
-0.140783
-0.142675
-0.142717
-0.141076
-0.137922
-0.13341
-0.127689
-0.12089
-0.113132
-0.104518
-0.0951388
-0.0850722
-0.0743852
-0.0631354
-0.0513731
-0.0391428
-0.0264849
-0.0134382
-4.11677e-05
0.0136658
0.0276381
0.0418253
0.0561681
0.0705967
0.0850276
0.0993622
0.113484
0.127257
0.140524
0.153107
0.164808
0.175407
0.18467
0.192351
0.198199
0.201967
0.203422
0.202355
0.198585
0.191971
0.182546
0.170464
0.154305
0.131796
-0.096885
-0.118063
-0.133053
-0.144107
-0.152695
-0.158784
-0.162441
-0.163871
-0.163286
-0.160889
-0.15688
-0.151446
-0.144755
-0.136959
-0.128191
-0.118565
-0.108177
-0.09711
-0.0854312
-0.0731973
-0.0604557
-0.0472461
-0.0336034
-0.0195595
-0.00514525
0.0096068
0.0246605
0.0399734
0.0554942
0.0711598
0.0868923
0.102597
0.118157
0.133435
0.148268
0.162465
0.175809
0.188059
0.198949
0.208194
0.2155
0.220571
0.22312
0.222885
0.219632
0.213173
0.203513
0.190799
0.173461
0.149011
-0.118284
-0.141098
-0.157065
-0.168625
-0.17739
-0.183347
-0.186598
-0.187396
-0.185999
-0.182657
-0.177606
-0.171066
-0.163235
-0.154284
-0.144363
-0.133596
-0.122086
-0.109919
-0.0971631
-0.0838714
-0.0700869
-0.0558433
-0.0411679
-0.0260838
-0.0106123
0.00522412
0.0214
0.0378834
0.0546334
0.0715965
0.0887033
0.105865
0.12297
0.13988
0.156427
0.172412
0.187601
0.201726
0.21449
0.225567
0.234611
0.241267
0.245186
0.246038
0.243521
0.237387
0.227602
0.214295
0.195726
0.169169
-0.142682
-0.167294
-0.184289
-0.196324
-0.20517
-0.210846
-0.213502
-0.213451
-0.211012
-0.206489
-0.200166
-0.192304
-0.18313
-0.172841
-0.161603
-0.149552
-0.136796
-0.123424
-0.109501
-0.0950764
-0.0801872
-0.0648586
-0.0491079
-0.0329474
-0.0163867
0.00056458
0.0178938
0.0355826
0.0536032
0.0719149
0.09046
0.10916
0.12791
0.146577
0.16499
0.182944
0.20019
0.216437
0.231353
0.244565
0.255672
0.264249
0.269871
0.272124
0.270623
0.265036
0.255275
0.241439
0.221592
0.19274
-0.17049
-0.197093
-0.215173
-0.22763
-0.236422
-0.241616
-0.243427
-0.242249
-0.238477
-0.232482
-0.224609
-0.215163
-0.204409
-0.192571
-0.179831
-0.166337
-0.152201
-0.137511
-0.122329
-0.106699
-0.0906463
-0.0741871
-0.057326
-0.0400618
-0.0223898
-0.00430439
0.0141978
0.0331145
0.0524346
0.0721337
0.0921696
0.112478
0.132966
0.153509
0.17394
0.19405
0.213578
0.232213
0.249587
0.26528
0.278825
0.289722
0.297449
0.301494
0.301359
0.29661
0.287076
0.272808
0.251643
0.220283
-0.202199
-0.231035
-0.250258
-0.263049
-0.271598
-0.276039
-0.276677
-0.274012
-0.268539
-0.260713
-0.25095
-0.239611
-0.227001
-0.213371
-0.198922
-0.18381
-0.168151
-0.152027
-0.135495
-0.118588
-0.10132
-0.0836926
-0.0656958
-0.047312
-0.0285192
-0.00929373
0.0103866
0.0305391
0.0511724
0.0722823
0.0938467
0.11582
0.138127
0.160656
0.183251
0.205705
0.227751
0.249059
0.26923
0.287793
0.304213
0.317898
0.32822
0.334537
0.336217
0.332681
0.323651
0.309099
0.286584
0.252468
-0.238413
-0.269782
-0.290204
-0.303196
-0.311232
-0.31455
-0.313581
-0.308967
-0.301328
-0.291228
-0.279165
-0.265566
-0.250778
-0.235083
-0.218697
-0.201779
-0.184446
-0.166772
-0.148801
-0.130554
-0.112027
-0.0932062
-0.0740615
-0.0545562
-0.0346483
-0.014293
0.00655382
0.0279322
0.0498743
0.0724004
0.0955127
0.11919
0.143381
0.167994
0.19289
0.217873
0.242678
0.266962
0.290298
0.312168
0.331964
0.348994
0.362501
0.37169
0.375753
0.373927
0.365775
0.351152
0.327277
0.290106
-0.279881
-0.314164
-0.335833
-0.348817
-0.355958
-0.357647
-0.354496
-0.347333
-0.336943
-0.324022
-0.309168
-0.292878
-0.275547
-0.257481
-0.238909
-0.21999
-0.200831
-0.181494
-0.162005
-0.142366
-0.122552
-0.102526
-0.082238
-0.0616271
-0.0406281
-0.0191721
0.00280975
0.0253837
0.0486093
0.0725349
0.0971926
0.122591
0.14871
0.175485
0.202806
0.230494
0.258298
0.285874
0.312775
0.338439
0.362186
0.383216
0.400625
0.413432
0.420607
0.421144
0.414384
0.400001
0.374781
0.334193
-0.327555
-0.365243
-0.388185
-0.400836
-0.40653
-0.405895
-0.399794
-0.389308
-0.375433
-0.359023
-0.340792
-0.321313
-0.301026
-0.280258
-0.259239
-0.23812
-0.21699
-0.195889
-0.174819
-0.153752
-0.132642
-0.111422
-0.0900148
-0.0683353
-0.0462909
-0.0237857
-0.000722701
0.0229933
0.0474527
0.0727364
0.0989111
0.126022
0.154086
0.183078
0.212924
0.243479
0.274516
0.305705
0.336595
0.366591
0.394944
0.420745
0.442923
0.460279
0.471504
0.475273
0.470616
0.456928
0.430429
0.385975
-0.382679
-0.424404
-0.448593
-0.460402
-0.463852
-0.459927
-0.449852
-0.435044
-0.416762
-0.396053
-0.373759
-0.350526
-0.326832
-0.303011
-0.279282
-0.255774
-0.232544
-0.209599
-0.186906
-0.164405
-0.142014
-0.119636
-0.0971617
-0.0744762
-0.0514572
-0.0279792
-0.00391465
0.0208637
0.04648
0.0730519
0.100685
0.129469
0.159464
0.190695
0.223136
0.256693
0.29118
0.326303
0.361622
0.396533
0.430233
0.461704
0.489702
0.51277
0.529261
0.537427
0.535864
0.523549
0.49592
0.447035
-0.446913
-0.493493
-0.518793
-0.528956
-0.528993
-0.520436
-0.505018
-0.484601
-0.460772
-0.434796
-0.407646
-0.380033
-0.352453
-0.325226
-0.298539
-0.272475
-0.247047
-0.222214
-0.197895
-0.173986
-0.150365
-0.126897
-0.103438
-0.0798385
-0.0559448
-0.0315988
-0.00664043
0.0190917
0.0457582
0.0735165
0.102517
0.132895
0.164769
0.198221
0.233289
0.269944
0.308069
0.347426
0.387622
0.428068
0.467937
0.506121
0.541203
0.571441
0.594774
0.608915
0.61185
0.601926
0.573467
0.519434
-0.52254
-0.575026
-0.601083
-0.608314
-0.603213
-0.588144
-0.565556
-0.537886
-0.507112
-0.474734
-0.44184
-0.40918
-0.377232
-0.346268
-0.316409
-0.287672
-0.259999
-0.233281
-0.20738
-0.182136
-0.157379
-0.132929
-0.108604
-0.0842171
-0.0595805
-0.0345024
-0.00878883
0.0177571
0.0453342
0.0741422
0.104379
0.136234
0.169888
0.205492
0.243165
0.282964
0.324864
0.368718
0.414219
0.460841
0.507774
0.553864
0.597538
0.636762
0.668994
0.691258
0.700703
0.694729
0.66602
0.605935
-0.612814
-0.672521
-0.698539
-0.70076
-0.687952
-0.663739
-0.631554
-0.594554
-0.555157
-0.51508
-0.475487
-0.437106
-0.400341
-0.365366
-0.332196
-0.300741
-0.270846
-0.242318
-0.214942
-0.188494
-0.162744
-0.137467
-0.112436
-0.0874264
-0.0622139
-0.0365731
-0.0102757
0.0169107
0.0452237
0.0749065
0.106207
0.139373
0.174653
0.212282
0.25247
0.295384
0.341122
0.38967
0.440856
0.494277
0.549217
0.604541
0.658587
0.709046
0.752851
0.786181
0.805059
0.805467
0.777608
0.710365
-0.722552
-0.791006
-0.815319
-0.809132
-0.784773
-0.74774
-0.702766
-0.653862
-0.603881
-0.554691
-0.507429
-0.462707
-0.42077
-0.381619
-0.345107
-0.310997
-0.279006
-0.248831
-0.220166
-0.192711
-0.166174
-0.140276
-0.114745
-0.0893167
-0.0637324
-0.037733
-0.0110573
0.0165615
0.0453987
0.0757406
0.107885
0.142143
0.178834
0.218283
0.260811
0.306716
0.35625
0.40958
0.466732
0.52751
0.591392
0.657381
0.723839
0.788278
0.847116
0.895553
0.928141
0.938791
0.913873
0.838245
-0.859218
-0.937845
-0.957055
-0.936865
-0.895198
-0.840246
-0.778363
-0.714457
-0.651707
-0.591956
-0.536144
-0.484611
-0.437318
-0.394002
-0.354282
-0.317727
-0.283891
-0.252341
-0.222666
-0.194481
-0.167427
-0.141169
-0.115391
-0.0897909
-0.0640763
-0.0379574
-0.0111431
0.016665
0.0457769
0.0765193
0.10924
0.144308
0.182123
0.223103
0.26769
0.316335
0.369478
0.427516
0.490747
0.559288
0.632947
0.711044
0.792167
0.873851
0.952135
1.0212
1.0738
1.1009
1.08293
0.997949
-1.035
-1.12403
-1.13132
-1.08789
-1.02034
-0.940508
-0.856551
-0.774091
-0.696309
-0.624694
-0.559698
-0.501167
-0.448613
-0.401394
-0.358822
-0.320218
-0.284944
-0.252418
-0.222115
-0.19356
-0.166328
-0.140028
-0.114304
-0.0888192
-0.0632514
-0.0372854
-0.0106047
0.0171154
0.0462148
0.0770559
0.110031
0.145567
0.184135
0.226255
0.272494
0.32347
0.379842
0.442285
0.51145
0.587886
0.67191
0.763406
0.861511
0.964156
1.06737
1.16453
1.2464
1.30001
1.29668
1.2029
-1.27107
-1.36622
-1.34793
-1.2661
-1.16009
-1.04618
-0.933994
-0.829232
-0.734396
-0.650045
-0.575716
-0.510462
-0.45315
-0.402636
-0.357845
-0.317811
-0.281682
-0.248719
-0.218277
-0.189799
-0.162793
-0.136823
-0.111496
-0.086449
-0.061337
-0.0358255
-0.00957985
0.017744
0.0465083
0.0771037
0.109959
0.145551
0.184419
0.227173
0.274508
0.327216
0.386191
0.452427
0.527
0.611021
0.705526
0.811279
0.928432
1.05594
1.19059
1.32565
1.45024
1.54664
1.57293
1.47605
-1.60631
-1.68966
-1.61838
-1.47363
-1.31139
-1.15192
-1.00488
-0.874514
-0.761424
-0.664359
-0.58137
-0.510361
-0.449352
-0.396583
-0.35054
-0.309947
-0.273736
-0.241013
-0.211029
-0.183151
-0.156837
-0.131614
-0.107065
-0.0828079
-0.0584861
-0.0337549
-0.00827018
0.0183219
0.0463964
0.0763616
0.108671
0.143841
0.182461
0.225223
0.272934
0.32655
0.3872
0.456215
0.535151
0.625786
0.730084
0.850062
0.987493
1.1433
1.31633
1.50145
1.68768
1.85295
1.93834
1.85904
-2.11264
-2.13197
-1.95404
-1.70782
-1.46546
-1.24757
-1.0599
-0.902298
-0.771499
-0.663274
-0.573525
-0.498668
-0.435714
-0.382232
-0.336264
-0.29624
-0.2609
-0.229226
-0.200387
-0.173699
-0.148587
-0.124562
-0.101195
-0.0780996
-0.0549191
-0.0313094
-0.00692854
0.0185763
0.045581
0.0744981
0.105792
0.139996
0.177737
0.219757
0.266952
0.320411
0.381471
0.451776
0.533363
0.628735
0.740939
0.873592
1.03077
1.2166
1.43407
1.68286
1.95601
2.23091
2.43203
2.42738
-2.92075
-2.74321
-2.36249
-1.95909
-1.6068
-1.31809
-1.08696
-0.90372
-0.758501
-0.642753
-0.549634
-0.473858
-0.4114
-0.359199
-0.314923
-0.276779
-0.243378
-0.213625
-0.186654
-0.161761
-0.138367
-0.115986
-0.0941971
-0.0726252
-0.0509258
-0.0287686
-0.0058256
0.0182426
0.0437991
0.0712456
0.101039
0.13371
0.169891
0.210345
0.256012
0.308061
0.367969
0.437626
0.519472
0.616685
0.733422
0.875116
1.04876
1.26306
1.52804
1.8536
2.24497
2.68816
3.10494
3.31524
-4.32727
-3.56369
-2.81944
-2.19398
-1.70484
-1.33966
-1.06975
-0.868508
-0.716349
-0.599436
-0.508032
-0.435289
-0.376361
-0.327771
-0.286982
-0.252112
-0.221743
-0.194782
-0.170378
-0.147854
-0.126657
-0.106328
-0.0864762
-0.0667527
-0.0468397
-0.0264334
-0.00523178
0.0170781
0.0408331
0.0664078
0.0942317
0.124809
0.158747
0.196785
0.239851
0.289116
0.346099
0.41279
0.491856
0.58693
0.70305
0.847313
1.02979
1.26476
1.57245
1.98054
2.51886
3.19802
3.9971
4.82726
-7.16193
-4.56247
-3.14377
-2.25825
-1.65189
-1.24226
-0.963906
-0.768589
-0.626942
-0.521266
-0.44037
-0.376951
-0.326122
-0.284519
-0.24976
-0.220116
-0.194304
-0.171349
-0.150498
-0.131158
-0.112848
-0.09517
-0.0777871
-0.0604008
-0.0427383
-0.0245391
-0.00554342
0.0145181
0.0359376
0.0590414
0.0842057
0.111875
0.142585
0.176997
0.21594
0.260476
0.311991
0.372334
0.444029
0.530619
0.637218
0.771438
0.944932
1.17608
1.49528
1.95281
2.61819
3.57605
5.08085
7.79922
-12.0303
-5.64528
-2.97959
-1.8818
-1.28615
-0.933009
-0.71493
-0.570536
-0.468586
-0.393254
-0.335676
-0.290432
-0.254015
-0.22404
-0.198817
-0.177115
-0.15801
-0.1408
-0.124939
-0.109991
-0.0956064
-0.0814941
-0.0674055
-0.053121
-0.0384385
-0.0231642
-0.00710368
0.00994751
0.0282113
0.0479374
0.0694144
0.0929833
0.119055
0.148134
0.180848
0.217998
0.260615
0.310066
0.368205
0.437623
0.522092
0.627374
0.762815
0.944846
1.20546
1.60852
2.27059
3.4633
6.24589
12.7563
)
;

boundaryField
{
    movingWall
    {
        type            zeroGradient;
    }
    fixedWalls
    {
        type            zeroGradient;
    }
    frontAndBack
    {
        type            empty;
    }
}


// ************************************************************************* //
