/*--------------------------------*- C++ -*----------------------------------*\
  =========                 |
  \\      /  F ield         | OpenFOAM: The Open Source CFD Toolbox
   \\    /   O peration     | Website:  https://openfoam.org
    \\  /    A nd           | Version:  7
     \\/     M anipulation  |
\*---------------------------------------------------------------------------*/
FoamFile
{
    version     2.0;
    format      ascii;
    class       volVectorField;
    location    "0.0202";
    object      U;
}
// * * * * * * * * * * * * * * * * * * * * * * * * * * * * * * * * * * * * * //

dimensions      [0 1 -1 0 0 0 0];

internalField   nonuniform List<vector> 
2500
(
(2.37528e-05 -2.38036e-05 0)
(6.22519e-05 -2.26326e-05 0)
(6.41498e-05 -3.73427e-06 0)
(5.8752e-06 1.88026e-05 0)
(-0.000115865 4.00952e-05 0)
(-0.00029545 5.84033e-05 0)
(-0.000524555 7.32722e-05 0)
(-0.000794045 8.47994e-05 0)
(-0.00109477 9.32519e-05 0)
(-0.00141802 9.89312e-05 0)
(-0.00175569 0.000102134 0)
(-0.00210037 0.000103137 0)
(-0.00244534 0.000102199 0)
(-0.0027846 9.95555e-05 0)
(-0.00311279 9.54217e-05 0)
(-0.0034252 8.99926e-05 0)
(-0.0037177 8.3444e-05 0)
(-0.0039867 7.59344e-05 0)
(-0.00422912 6.76059e-05 0)
(-0.00444232 5.85859e-05 0)
(-0.00462409 4.89893e-05 0)
(-0.0047726 3.89208e-05 0)
(-0.00488636 2.84773e-05 0)
(-0.00496424 1.77498e-05 0)
(-0.00500541 6.82669e-06 0)
(-0.00500936 -4.20414e-06 0)
(-0.00497592 -1.52528e-05 0)
(-0.00490521 -2.62249e-05 0)
(-0.00479773 -3.70195e-05 0)
(-0.00465432 -4.75272e-05 0)
(-0.00447624 -5.7628e-05 0)
(-0.00426517 -6.71898e-05 0)
(-0.00402325 -7.6068e-05 0)
(-0.00375314 -8.41035e-05 0)
(-0.00345805 -9.11237e-05 0)
(-0.00314177 -9.69414e-05 0)
(-0.0028087 -0.000101356 0)
(-0.0024639 -0.000104153 0)
(-0.00211312 -0.000105107 0)
(-0.00176277 -0.00010398 0)
(-0.00141995 -0.000100522 0)
(-0.00109243 -9.44757e-05 0)
(-0.000788592 -8.55761e-05 0)
(-0.000517315 -7.3564e-05 0)
(-0.000287777 -5.82252e-05 0)
(-0.000108984 -3.95265e-05 0)
(1.10146e-05 -1.79993e-05 0)
(6.71103e-05 4.56321e-06 0)
(6.32942e-05 2.31891e-05 0)
(2.3883e-05 2.38338e-05 0)
(2.29101e-05 -6.24592e-05 0)
(2.88188e-05 -2.81012e-05 0)
(-6.9058e-05 7.0097e-05 0)
(-0.000303035 0.000185855 0)
(-0.000680219 0.000299143 0)
(-0.00119274 0.000400614 0)
(-0.0018248 0.000486271 0)
(-0.00255685 0.000554931 0)
(-0.00336796 0.000606761 0)
(-0.00423714 0.00064257 0)
(-0.00514421 0.000663481 0)
(-0.00607018 0.000670751 0)
(-0.00699754 0.000665682 0)
(-0.00791035 0.000649558 0)
(-0.00879424 0.000623618 0)
(-0.00963643 0.000589033 0)
(-0.0104256 0.000546895 0)
(-0.011152 0.000498216 0)
(-0.0118069 0.000443924 0)
(-0.0123832 0.00038487 0)
(-0.0128745 0.00032184 0)
(-0.0132759 0.000255558 0)
(-0.0135832 0.000186703 0)
(-0.0137932 0.000115923 0)
(-0.0139037 4.38465e-05 0)
(-0.0139133 -2.89003e-05 0)
(-0.0138216 -0.00010168 0)
(-0.0136291 -0.000173832 0)
(-0.0133371 -0.000244653 0)
(-0.0129483 -0.000313395 0)
(-0.012466 -0.000379246 0)
(-0.0118952 -0.000441328 0)
(-0.0112417 -0.000498691 0)
(-0.010513 -0.000550309 0)
(-0.00971788 -0.000595081 0)
(-0.00886668 -0.000631842 0)
(-0.00797137 -0.000659365 0)
(-0.00704555 -0.000676379 0)
(-0.00610448 -0.000681591 0)
(-0.00516505 -0.00067371 0)
(-0.00424569 -0.000651488 0)
(-0.00336618 -0.000613778 0)
(-0.00254736 -0.000559632 0)
(-0.00181057 -0.000488466 0)
(-0.00117681 -0.000400388 0)
(-0.00066538 -0.00029689 0)
(-0.000291421 -0.000182294 0)
(-6.18021e-05 -6.62185e-05 0)
(3.18768e-05 3.10329e-05 0)
(2.35008e-05 6.33252e-05 0)
(4.82244e-06 -6.54661e-05 0)
(-6.69665e-05 6.89335e-05 0)
(-0.000315396 0.000319197 0)
(-0.000759538 0.000606408 0)
(-0.00140306 0.000890254 0)
(-0.00223606 0.00114874 0)
(-0.00323819 0.00137063 0)
(-0.00438325 0.0015511 0)
(-0.00564238 0.00168904 0)
(-0.00698592 0.00178537 0)
(-0.00838474 0.00184221 0)
(-0.00981098 0.00186234 0)
(-0.0112386 0.00184885 0)
(-0.0126436 0.00180493 0)
(-0.0140042 0.00173379 0)
(-0.0153009 0.00163851 0)
(-0.0165163 0.00152203 0)
(-0.0176351 0.0013871 0)
(-0.0186442 0.0012363 0)
(-0.019532 0.00107199 0)
(-0.0202891 0.000896405 0)
(-0.0209074 0.000711587 0)
(-0.0213805 0.000519483 0)
(-0.0217036 0.000321951 0)
(-0.021873 0.000120801 0)
(-0.0218868 -8.21665e-05 0)
(-0.0217443 -0.000285122 0)
(-0.0214463 -0.00048617 0)
(-0.0209952 -0.000683317 0)
(-0.0203949 -0.000874439 0)
(-0.019651 -0.00105726 0)
(-0.018771 -0.00122932 0)
(-0.0177643 -0.00138798 0)
(-0.0166423 -0.00153043 0)
(-0.0154188 -0.00165367 0)
(-0.0141095 -0.00175453 0)
(-0.0127329 -0.00182975 0)
(-0.0113096 -0.00187599 0)
(-0.00986264 -0.00188993 0)
(-0.00841735 -0.00186835 0)
(-0.00700105 -0.0018083 0)
(-0.0056427 -0.00170729 0)
(-0.00437234 -0.00156365 0)
(-0.00322014 -0.001377 0)
(-0.00221509 -0.00114914 0)
(-0.00138303 -0.000885617 0)
(-0.000743486 -0.000598409 0)
(-0.000305097 -0.000310156 0)
(-6.24964e-05 -6.16581e-05 0)
(5.71379e-06 6.83196e-05 0)
(-1.67635e-05 -1.00526e-05 0)
(-0.000180432 0.000300224 0)
(-0.000600404 0.000762581 0)
(-0.00127053 0.00127461 0)
(-0.00218495 0.0017783 0)
(-0.00332965 0.00223891 0)
(-0.00467973 0.00263696 0)
(-0.00620369 0.00296288 0)
(-0.00786672 0.00321336 0)
(-0.00963271 0.00338894 0)
(-0.0114657 0.00349256 0)
(-0.0133311 0.00352858 0)
(-0.0151961 0.00350217 0)
(-0.0170302 0.00341891 0)
(-0.0188056 0.00328447 0)
(-0.0204972 0.00310444 0)
(-0.0220827 0.00288421 0)
(-0.0235421 0.0026289 0)
(-0.0248582 0.00234332 0)
(-0.0260162 0.00203195 0)
(-0.0270035 0.001699 0)
(-0.0278097 0.00134841 0)
(-0.0284263 0.000983894 0)
(-0.028847 0.000609038 0)
(-0.0290671 0.000227331 0)
(-0.0290842 -0.000157756 0)
(-0.0288972 -0.000542698 0)
(-0.0285075 -0.000923854 0)
(-0.0279181 -0.0012974 0)
(-0.0271342 -0.00165929 0)
(-0.0261633 -0.00200519 0)
(-0.0250152 -0.00233045 0)
(-0.0237022 -0.00263012 0)
(-0.0222392 -0.00289891 0)
(-0.0206439 -0.00313124 0)
(-0.018937 -0.00332129 0)
(-0.0171421 -0.00346308 0)
(-0.0152856 -0.00355058 0)
(-0.013397 -0.00357787 0)
(-0.0115082 -0.00353939 0)
(-0.00965354 -0.0034302 0)
(-0.00786915 -0.00324645 0)
(-0.006192 -0.00298596 0)
(-0.00465887 -0.00264919 0)
(-0.00330476 -0.00224062 0)
(-0.00216078 -0.00177106 0)
(-0.0012509 -0.00126126 0)
(-0.000587666 -0.000747067 0)
(-0.000174859 -0.000287284 0)
(-1.56469e-05 1.56244e-05 0)
(-3.73191e-05 0.000107539 0)
(-0.000293702 0.000675172 0)
(-0.000889497 0.00140824 0)
(-0.00178867 0.00219107 0)
(-0.00297206 0.0029528 0)
(-0.00441938 0.00364821 0)
(-0.00610027 0.00425017 0)
(-0.00797801 0.0047443 0)
(-0.0100127 0.00512478 0)
(-0.0121629 0.00539143 0)
(-0.0143873 0.00554781 0)
(-0.0166457 0.00559987 0)
(-0.0189001 0.005555 0)
(-0.0211148 0.00542135 0)
(-0.0232569 0.00520744 0)
(-0.0252969 0.00492175 0)
(-0.0272081 0.00457257 0)
(-0.028967 0.00416783 0)
(-0.0305528 0.00371505 0)
(-0.0319479 0.0032213 0)
(-0.033137 0.00269321 0)
(-0.0341079 0.00213705 0)
(-0.0348502 0.00155874 0)
(-0.0353564 0.000964023 0)
(-0.035621 0.000358469 0)
(-0.0356409 -0.000252359 0)
(-0.035415 -0.000862824 0)
(-0.0349449 -0.00146711 0)
(-0.0342342 -0.00205913 0)
(-0.0332895 -0.00263244 0)
(-0.0321196 -0.00318018 0)
(-0.0307362 -0.00369504 0)
(-0.0291543 -0.00416921 0)
(-0.0273915 -0.00459443 0)
(-0.0254692 -0.00496203 0)
(-0.0234117 -0.005263 0)
(-0.0212471 -0.00548816 0)
(-0.0190065 -0.00562835 0)
(-0.0167246 -0.00567473 0)
(-0.0144388 -0.00561911 0)
(-0.0121891 -0.00545448 0)
(-0.0100172 -0.00517564 0)
(-0.00796572 -0.00478019 0)
(-0.00607686 -0.00426974 0)
(-0.00439084 -0.00365188 0)
(-0.00294398 -0.00294284 0)
(-0.00176562 -0.00217161 0)
(-0.000874412 -0.0013851 0)
(-0.00028705 -0.000655422 0)
(-3.59726e-05 -9.8687e-05 0)
(-5.55233e-05 0.000283463 0)
(-0.000399688 0.00119113 0)
(-0.00116645 0.00225501 0)
(-0.00228975 0.00335399 0)
(-0.00373554 0.00440913 0)
(-0.00547559 0.0053675 0)
(-0.00747303 0.00619585 0)
(-0.00968551 0.00687557 0)
(-0.0120681 0.0073985 0)
(-0.0145745 0.0077638 0)
(-0.0171589 0.00797564 0)
(-0.0197764 0.00804157 0)
(-0.0223845 0.00797131 0)
(-0.0249432 0.00777583 0)
(-0.0274156 0.00746672 0)
(-0.0297684 0.00705568 0)
(-0.0319714 0.00655426 0)
(-0.0339978 0.00597356 0)
(-0.0358244 0.0053242 0)
(-0.0374307 0.0046162 0)
(-0.0387998 0.00385901 0)
(-0.0399172 0.0030616 0)
(-0.0407715 0.00223247 0)
(-0.041354 0.00137985 0)
(-0.0416583 0.000511766 0)
(-0.041681 -0.000363777 0)
(-0.0414209 -0.00123867 0)
(-0.0408797 -0.00210457 0)
(-0.0400618 -0.00295273 0)
(-0.0389743 -0.00377394 0)
(-0.0376276 -0.00455841 0)
(-0.036035 -0.00529573 0)
(-0.0342133 -0.00597482 0)
(-0.0321828 -0.00658402 0)
(-0.0299675 -0.00711111 0)
(-0.0275951 -0.00754348 0)
(-0.0250973 -0.00786838 0)
(-0.0225093 -0.00807316 0)
(-0.0198698 -0.00814575 0)
(-0.017221 -0.00807514 0)
(-0.0146074 -0.00785212 0)
(-0.0120757 -0.00747015 0)
(-0.00967331 -0.0069266 0)
(-0.0074475 -0.00622433 0)
(-0.00544359 -0.00537386 0)
(-0.00370356 -0.00439636 0)
(-0.0022632 -0.00332767 0)
(-0.00114891 -0.00222308 0)
(-0.000391881 -0.00116341 0)
(-5.39263e-05 -0.000270753 0)
(-7.12797e-05 0.000512249 0)
(-0.000496419 0.00184027 0)
(-0.00142529 0.00329526 0)
(-0.00276387 0.00475572 0)
(-0.00446307 0.00613855 0)
(-0.00648579 0.00738586 0)
(-0.00878778 0.00846002 0)
(-0.0113205 0.00933929 0)
(-0.0140336 0.0100138 0)
(-0.0168764 0.0104822 0)
(-0.0197983 0.0107496 0)
(-0.0227505 0.0108253 0)
(-0.0256864 0.0107216 0)
(-0.0285625 0.0104523 0)
(-0.0313385 0.0100325 0)
(-0.0339777 0.00947731 0)
(-0.0364471 0.00880181 0)
(-0.0387174 0.00802063 0)
(-0.0407627 0.00714777 0)
(-0.042561 0.00619655 0)
(-0.0440932 0.00517956 0)
(-0.0453437 0.00410873 0)
(-0.0462997 0.00299548 0)
(-0.0469517 0.0018508 0)
(-0.0472926 0.000685483 0)
(-0.0473185 -0.000489747 0)
(-0.0470283 -0.00166402 0)
(-0.0464238 -0.00282612 0)
(-0.0455096 -0.00396439 0)
(-0.0442937 -0.0050665 0)
(-0.0427875 -0.00611939 0)
(-0.0410055 -0.0071092 0)
(-0.0389663 -0.00802124 0)
(-0.0366922 -0.00884003 0)
(-0.0342094 -0.00954947 0)
(-0.0315485 -0.010133 0)
(-0.0287441 -0.0105739 0)
(-0.0258348 -0.0108557 0)
(-0.022863 -0.0109629 0)
(-0.0198749 -0.0108815 0)
(-0.0169192 -0.0105997 0)
(-0.0140469 -0.0101097 0)
(-0.0113103 -0.0094083 0)
(-0.00876141 -0.0084994 0)
(-0.00645105 -0.00739596 0)
(-0.00442749 -0.0061231 0)
(-0.00273384 -0.00472187 0)
(-0.00140519 -0.00325336 0)
(-0.000487356 -0.00180336 0)
(-6.93943e-05 -0.000495009 0)
(-8.49711e-05 0.000788604 0)
(-0.000584426 0.00261345 0)
(-0.00166577 0.00451908 0)
(-0.00320982 0.00638646 0)
(-0.00515309 0.00813114 0)
(-0.00744926 0.00969263 0)
(-0.0100461 0.0110307 0)
(-0.0128883 0.0121217 0)
(-0.01592 0.0129547 0)
(-0.0190853 0.0135288 0)
(-0.0223296 0.0138501 0)
(-0.0255998 0.01393 0)
(-0.028846 0.0137837 0)
(-0.0320211 0.0134282 0)
(-0.0350819 0.0128822 0)
(-0.0379888 0.0121645 0)
(-0.0407066 0.0112941 0)
(-0.0432036 0.0102894 0)
(-0.0454521 0.009168 0)
(-0.0474282 0.00794683 0)
(-0.0491116 0.00664184 0)
(-0.0504854 0.00526823 0)
(-0.051536 0.00384052 0)
(-0.0522527 0.00237275 0)
(-0.0526283 0.000878673 0)
(-0.0526584 -0.000628017 0)
(-0.0523417 -0.00213345 0)
(-0.05168 -0.00362334 0)
(-0.0506783 -0.0050828 0)
(-0.0493452 -0.00649614 0)
(-0.0476926 -0.00784676 0)
(-0.0457362 -0.00911705 0)
(-0.043496 -0.0102884 0)
(-0.0409957 -0.0113411 0)
(-0.0382637 -0.012255 0)
(-0.0353327 -0.0130091 0)
(-0.03224 -0.0135824 0)
(-0.0290272 -0.0139545 0)
(-0.02574 -0.014106 0)
(-0.0224281 -0.0140194 0)
(-0.0191443 -0.0136804 0)
(-0.015944 -0.0130794 0)
(-0.012884 -0.0122124 0)
(-0.0100216 -0.0110838 0)
(-0.00741351 -0.00970819 0)
(-0.00511487 -0.00811363 0)
(-0.00317673 -0.00634472 0)
(-0.00164319 -0.00446618 0)
(-0.000574065 -0.00256611 0)
(-8.27659e-05 -0.000766112 0)
(-9.70865e-05 0.00110804 0)
(-0.000665279 0.00350222 0)
(-0.00189054 0.00591695 0)
(-0.00363128 0.00823689 0)
(-0.00581055 0.0103781 0)
(-0.00837279 0.0122793 0)
(-0.0112575 0.0138992 0)
(-0.0144022 0.0152134 0)
(-0.0177448 0.0162111 0)
(-0.0212245 0.0168921 0)
(-0.0247819 0.0172644 0)
(-0.0283601 0.017342 0)
(-0.0319054 0.0171431 0)
(-0.0353679 0.0166885 0)
(-0.0387014 0.0160005 0)
(-0.041864 0.0151023 0)
(-0.0448182 0.0140167 0)
(-0.0475304 0.0127663 0)
(-0.0499715 0.0113726 0)
(-0.0521161 0.00985628 0)
(-0.0539427 0.00823692 0)
(-0.0554334 0.00653316 0)
(-0.0565738 0.00476285 0)
(-0.0573526 0.00294324 0)
(-0.0577622 0.00109122 0)
(-0.0577977 -0.000776359 0)
(-0.0574577 -0.00264245 0)
(-0.056744 -0.00448951 0)
(-0.0556617 -0.00629924 0)
(-0.0542197 -0.00805236 0)
(-0.0524305 -0.00972847 0)
(-0.0503106 -0.011306 0)
(-0.0478809 -0.012762 0)
(-0.0451665 -0.0140725 0)
(-0.0421975 -0.0152127 0)
(-0.0390084 -0.0161569 0)
(-0.0356389 -0.0168797 0)
(-0.0321333 -0.0173561 0)
(-0.0285404 -0.0175623 0)
(-0.0249135 -0.0174775 0)
(-0.0213092 -0.0170842 0)
(-0.0177873 -0.0163703 0)
(-0.0144097 -0.0153309 0)
(-0.0112393 -0.01397 0)
(-0.00833912 -0.0123031 0)
(-0.0057716 -0.01036 0)
(-0.00359613 -0.00818748 0)
(-0.00186589 -0.00585232 0)
(-0.000653691 -0.00344334 0)
(-9.45486e-05 -0.00107956 0)
(-0.000108097 0.00146714 0)
(-0.000740913 0.00449982 0)
(-0.00210366 0.00748109 0)
(-0.00403456 0.0102996 0)
(-0.00644415 0.0128728 0)
(-0.0092678 0.01514 0)
(-0.0124365 0.0170601 0)
(-0.0158803 0.0186092 0)
(-0.0195307 0.0197773 0)
(-0.0233213 0.020566 0)
(-0.0271878 0.0209859 0)
(-0.0310692 0.0210538 0)
(-0.0349085 0.0207917 0)
(-0.0386523 0.0202244 0)
(-0.0422521 0.0193785 0)
(-0.0456636 0.0182815 0)
(-0.0488474 0.0169607 0)
(-0.0517682 0.0154429 0)
(-0.0543956 0.0137538 0)
(-0.0567031 0.0119182 0)
(-0.0586682 0.00995925 0)
(-0.0602721 0.00789938 0)
(-0.0614999 0.00575985 0)
(-0.0623398 0.00356125 0)
(-0.0627836 0.00132377 0)
(-0.0628262 -0.000932494 0)
(-0.0624659 -0.00318718 0)
(-0.0617044 -0.00541933 0)
(-0.0605469 -0.00760709 0)
(-0.0590024 -0.00972742 0)
(-0.0570836 -0.0117559 0)
(-0.0548077 -0.0136668 0)
(-0.0521961 -0.0154326 0)
(-0.0492753 -0.0170247 0)
(-0.0460764 -0.0184133 0)
(-0.0426359 -0.0195679 0)
(-0.0389954 -0.0204578 0)
(-0.0352018 -0.0210533 0)
(-0.0313071 -0.0213261 0)
(-0.0273679 -0.0212509 0)
(-0.023445 -0.0208068 0)
(-0.0196029 -0.019979 0)
(-0.0159087 -0.0187606 0)
(-0.0124315 -0.0171545 0)
(-0.00924101 -0.0151764 0)
(-0.00640758 -0.0128568 0)
(-0.00399912 -0.0102436 0)
(-0.00207774 -0.00740463 0)
(-0.000728316 -0.00442857 0)
(-0.000105238 -0.00143201 0)
(-0.000118428 0.00186361 0)
(-0.000813344 0.00560161 0)
(-0.00230975 0.00920632 0)
(-0.00442726 0.0125698 0)
(-0.00706467 0.0156116 0)
(-0.0101484 0.0182722 0)
(-0.0136009 0.0205118 0)
(-0.0173444 0.0223077 0)
(-0.0213035 0.0236522 0)
(-0.0254058 0.0245493 0)
(-0.0295821 0.0250126 0)
(-0.033767 0.025063 0)
(-0.0378997 0.0247264 0)
(-0.0419238 0.0240323 0)
(-0.0457881 0.023012 0)
(-0.0494462 0.0216977 0)
(-0.0528569 0.0201215 0)
(-0.0559837 0.0183147 0)
(-0.0587948 0.0163076 0)
(-0.0612627 0.0141289 0)
(-0.0633643 0.011806 0)
(-0.0650802 0.00936499 0)
(-0.0663948 0.00683062 0)
(-0.067296 0.00422699 0)
(-0.0677752 0.00157763 0)
(-0.067827 -0.00109402 0)
(-0.0674494 -0.00376421 0)
(-0.0666438 -0.00640848 0)
(-0.0654154 -0.00900129 0)
(-0.0637729 -0.0115157 0)
(-0.0617295 -0.0139233 0)
(-0.0593023 -0.0161935 0)
(-0.0565135 -0.0182945 0)
(-0.0533901 -0.0201924 0)
(-0.0499646 -0.0218523 0)
(-0.0462748 -0.0232381 0)
(-0.0423644 -0.024314 0)
(-0.0382828 -0.0250446 0)
(-0.0340848 -0.0253966 0)
(-0.0298309 -0.0253399 0)
(-0.0255862 -0.0248494 0)
(-0.0214202 -0.0239068 0)
(-0.0174057 -0.0225025 0)
(-0.0136183 -0.0206378 0)
(-0.0101353 -0.0183276 0)
(-0.00703501 -0.0156021 0)
(-0.00439421 -0.0125098 0)
(-0.00228384 -0.00911886 0)
(-0.000800133 -0.0055177 0)
(-0.000115286 -0.00182129 0)
(-0.000128457 0.00229626 0)
(-0.00088455 0.00680536 0)
(-0.00251362 0.0110905 0)
(-0.00481759 0.0150462 0)
(-0.00768394 0.0185943 0)
(-0.0110303 0.0216769 0)
(-0.0147703 0.0242562 0)
(-0.0188179 0.0263118 0)
(-0.0230908 0.0278389 0)
(-0.02751 0.0288448 0)
(-0.032001 0.0293473 0)
(-0.0364938 0.0293716 0)
(-0.0409235 0.0289487 0)
(-0.0452308 0.028113 0)
(-0.0493618 0.0269011 0)
(-0.053268 0.0253505 0)
(-0.0569066 0.0234983 0)
(-0.0602398 0.0213809 0)
(-0.0632347 0.019033 0)
(-0.0658633 0.0164878 0)
(-0.0681017 0.0137768 0)
(-0.0699302 0.01093 0)
(-0.0713326 0.0079758 0)
(-0.0722966 0.00494174 0)
(-0.0728132 0.00185477 0)
(-0.0728767 -0.00125832 0)
(-0.0724847 -0.00437035 0)
(-0.0716384 -0.00745332 0)
(-0.0703425 -0.010478 0)
(-0.0686057 -0.0134133 0)
(-0.0664408 -0.0162266 0)
(-0.0638652 -0.0188828 0)
(-0.0609013 -0.0213449 0)
(-0.0575765 -0.0235738 0)
(-0.0539243 -0.0255288 0)
(-0.0499838 -0.0271682 0)
(-0.0458006 -0.02845 0)
(-0.0414266 -0.0293331 0)
(-0.0369197 -0.0297781 0)
(-0.0323441 -0.0297497 0)
(-0.0277697 -0.0292178 0)
(-0.0232712 -0.0281598 0)
(-0.0189279 -0.0265626 0)
(-0.0148224 -0.0244251 0)
(-0.0110398 -0.0217604 0)
(-0.0076673 -0.0185982 0)
(-0.00479062 -0.0149867 0)
(-0.00248955 -0.0109942 0)
(-0.000871315 -0.00670926 0)
(-0.000125102 -0.00224645 0)
(-0.000138523 0.00276489 0)
(-0.000956428 0.00811116 0)
(-0.00272006 0.0131345 0)
(-0.0052139 0.0177312 0)
(-0.00831422 0.0218247 0)
(-0.0119297 0.0253592 0)
(-0.015965 0.0282995 0)
(-0.0203255 0.0306284 0)
(-0.0249213 0.0323444 0)
(-0.0296666 0.0334597 0)
(-0.0344811 0.0339965 0)
(-0.0392898 0.0339857 0)
(-0.044024 0.0334637 0)
(-0.0486209 0.0324708 0)
(-0.053024 0.0310494 0)
(-0.0571829 0.0292427 0)
(-0.061053 0.0270934 0)
(-0.0645955 0.024643 0)
(-0.0677769 0.0219313 0)
(-0.0705683 0.018996 0)
(-0.0729456 0.015873 0)
(-0.0748886 0.012596 0)
(-0.0763811 0.00919721 0)
(-0.0774104 0.00570769 0)
(-0.0779671 0.00215773 0)
(-0.0780452 -0.00142252 0)
(-0.077642 -0.0050025 0)
(-0.0767581 -0.00855066 0)
(-0.0753979 -0.012034 0)
(-0.0735695 -0.0154174 0)
(-0.0712855 -0.0186637 0)
(-0.068563 -0.0217332 0)
(-0.0654242 -0.0245833 0)
(-0.0618971 -0.0271696 0)
(-0.0580156 -0.0294451 0)
(-0.0538203 -0.0313619 0)
(-0.0493582 -0.0328714 0)
(-0.0446838 -0.0339258 0)
(-0.0398583 -0.0344792 0)
(-0.0349499 -0.0344901 0)
(-0.0300333 -0.0339226 0)
(-0.0251892 -0.0327488 0)
(-0.0205038 -0.0309515 0)
(-0.0160673 -0.0285261 0)
(-0.0119735 -0.0254834 0)
(-0.00831857 -0.0218517 0)
(-0.00519789 -0.0176789 0)
(-0.00270029 -0.0130333 0)
(-0.000943985 -0.00800443 0)
(-0.000135056 -0.00270766 0)
(-0.000148934 0.00327033 0)
(-0.00103079 0.0095215 0)
(-0.00293378 0.0153428 0)
(-0.00562453 0.0206309 0)
(-0.00896787 0.0253106 0)
(-0.0128632 0.0293285 0)
(-0.0172058 0.0326522 0)
(-0.0218921 0.0352683 0)
(-0.0268238 0.0371801 0)
(-0.0319082 0.0384048 0)
(-0.0370586 0.0389707 0)
(-0.042195 0.0389148 0)
(-0.0472441 0.0382799 0)
(-0.0521398 0.0371131 0)
(-0.056823 0.0354632 0)
(-0.0612413 0.0333796 0)
(-0.0653488 0.0309112 0)
(-0.0691056 0.0281049 0)
(-0.0724775 0.0250059 0)
(-0.0754354 0.0216566 0)
(-0.0779549 0.0180973 0)
(-0.0800157 0.0143657 0)
(-0.0816014 0.0104977 0)
(-0.0826992 0.0065278 0)
(-0.0832993 0.00248963 0)
(-0.0833954 -0.0015834 0)
(-0.0829844 -0.00565742 0)
(-0.0820663 -0.00969738 0)
(-0.0806448 -0.0136665 0)
(-0.0787275 -0.0175257 0)
(-0.076326 -0.0212332 0)
(-0.0734572 -0.0247442 0)
(-0.070143 -0.0280109 0)
(-0.0664112 -0.0309825 0)
(-0.0622962 -0.0336058 0)
(-0.0578396 -0.0358258 0)
(-0.0530901 -0.0375867 0)
(-0.0481045 -0.0388332 0)
(-0.0429473 -0.0395123 0)
(-0.037691 -0.039575 0)
(-0.0324158 -0.0389787 0)
(-0.0272086 -0.0376895 0)
(-0.022163 -0.0356847 0)
(-0.0173777 -0.0329556 0)
(-0.0129557 -0.02951 0)
(-0.00900322 -0.0253743 0)
(-0.00562568 -0.0205956 0)
(-0.00292147 -0.0152429 0)
(-0.0010202 -0.00940707 0)
(-0.000145495 -0.00320618 0)
(-0.000159975 0.00381427 0)
(-0.00110937 0.0110412 0)
(-0.00315935 0.0177228 0)
(-0.00605772 0.0237551 0)
(-0.0096572 0.029064 0)
(-0.0138475 0.0335981 0)
(-0.0185136 0.0373286 0)
(-0.0235426 0.0402465 0)
(-0.0288273 0.0423607 0)
(-0.0342673 0.0436947 0)
(-0.0397693 0.0442835 0)
(-0.0452477 0.0441714 0)
(-0.0506248 0.0434087 0)
(-0.055831 0.0420499 0)
(-0.0608043 0.040151 0)
(-0.0654906 0.0377686 0)
(-0.0698426 0.0349578 0)
(-0.0738198 0.0317718 0)
(-0.0773875 0.0282613 0)
(-0.0805165 0.0244736 0)
(-0.0831823 0.0204534 0)
(-0.0853647 0.0162426 0)
(-0.0870473 0.0118807 0)
(-0.0882172 0.00740562 0)
(-0.0888646 0.00285408 0)
(-0.0889827 -0.00173734 0)
(-0.0885677 -0.00633157 0)
(-0.0876191 -0.0108902 0)
(-0.0861396 -0.0153728 0)
(-0.084136 -0.0197362 0)
(-0.0816189 -0.023934 0)
(-0.0786044 -0.0279163 0)
(-0.0751136 -0.0316294 0)
(-0.0711741 -0.0350164 0)
(-0.0668204 -0.0380168 0)
(-0.0620947 -0.0405682 0)
(-0.0570474 -0.0426067 0)
(-0.0517374 -0.0440688 0)
(-0.0462327 -0.0448929 0)
(-0.0406104 -0.045022 0)
(-0.0349561 -0.0444053 0)
(-0.0293639 -0.0430018 0)
(-0.0239354 -0.0407826 0)
(-0.0187785 -0.0377336 0)
(-0.0140063 -0.0338589 0)
(-0.0097359 -0.0291823 0)
(-0.00608372 -0.0237505 0)
(-0.00315846 -0.0176333 0)
(-0.00110199 -0.0109237 0)
(-0.000156744 -0.00374433 0)
(-0.000171918 0.00439932 0)
(-0.00119386 0.0126772 0)
(-0.00340128 0.0202853 0)
(-0.00652158 0.0271178 0)
(-0.0103944 0.033101 0)
(-0.0148988 0.038186 0)
(-0.019909 0.0423475 0)
(-0.0253016 0.0455821 0)
(-0.03096 0.047905 0)
(-0.0367755 0.049347 0)
(-0.0426477 0.0499513 0)
(-0.048485 0.0497705 0)
(-0.0542052 0.0488633 0)
(-0.0597349 0.0472927 0)
(-0.0650096 0.045123 0)
(-0.0699734 0.0424181 0)
(-0.074578 0.0392405 0)
(-0.0787822 0.0356499 0)
(-0.0825513 0.0317027 0)
(-0.0858562 0.0274515 0)
(-0.0886726 0.0229456 0)
(-0.0909807 0.0182308 0)
(-0.0927643 0.0133503 0)
(-0.0940105 0.00834518 0)
(-0.0947093 0.00325516 0)
(-0.0948536 -0.00188024 0)
(-0.0944391 -0.00702095 0)
(-0.0934642 -0.0121254 0)
(-0.0919307 -0.0171496 0)
(-0.089844 -0.0220464 0)
(-0.0872138 -0.0267648 0)
(-0.0840545 -0.0312496 0)
(-0.0803864 -0.0354412 0)
(-0.0762363 -0.0392757 0)
(-0.0716385 -0.0426852 0)
(-0.0666354 -0.0455989 0)
(-0.0612787 -0.0479442 0)
(-0.0556297 -0.0496481 0)
(-0.0497595 -0.0506396 0)
(-0.04375 -0.0508519 0)
(-0.037693 -0.0502255 0)
(-0.0316899 -0.0487104 0)
(-0.0258512 -0.0462704 0)
(-0.0202949 -0.0428851 0)
(-0.0151452 -0.0385537 0)
(-0.0105314 -0.0332976 0)
(-0.00658181 -0.0271622 0)
(-0.00341666 -0.0202188 0)
(-0.00119136 -0.0125637 0)
(-0.000169124 -0.00432547 0)
(-0.000185025 0.00502893 0)
(-0.00128591 0.0144388 0)
(-0.00366399 0.0230443 0)
(-0.00702414 0.0307366 0)
(-0.0111915 0.037442 0)
(-0.0160334 0.0431139 0)
(-0.0214123 0.0477316 0)
(-0.0271932 0.0512977 0)
(-0.0332494 0.0538349 0)
(-0.0394631 0.0553826 0)
(-0.0457264 0.0559932 0)
(-0.0519416 0.0557291 0)
(-0.0580212 0.0546587 0)
(-0.0638886 0.0528545 0)
(-0.0694766 0.0503897 0)
(-0.0747276 0.0473371 0)
(-0.0795927 0.0437667 0)
(-0.0840304 0.0397453 0)
(-0.0880061 0.0353353 0)
(-0.0914914 0.030595 0)
(-0.0944625 0.0255781 0)
(-0.0969001 0.0203344 0)
(-0.0987885 0.0149106 0)
(-0.100115 0.00935071 0)
(-0.10087 0.00369731 0)
(-0.101045 -0.00200749 0)
(-0.100636 -0.00772093 0)
(-0.0996397 -0.0133985 0)
(-0.0980571 -0.0189929 0)
(-0.0958919 -0.024453 0)
(-0.093152 -0.0297235 0)
(-0.0898502 -0.0347436 0)
(-0.0860052 -0.0394476 0)
(-0.0816425 -0.0437643 0)
(-0.0767957 -0.0476178 0)
(-0.0715072 -0.0509281 0)
(-0.0658295 -0.0536127 0)
(-0.0598258 -0.0555882 0)
(-0.0535708 -0.0567728 0)
(-0.047151 -0.0570888 0)
(-0.0406646 -0.0564657 0)
(-0.0342211 -0.054844 0)
(-0.0279406 -0.0521779 0)
(-0.0219523 -0.04844 0)
(-0.0163928 -0.0436236 0)
(-0.0114047 -0.0377466 0)
(-0.0071299 -0.0308537 0)
(-0.00370153 -0.0230175 0)
(-0.00129034 -0.0143388 0)
(-0.000182954 -0.00495398 0)
(-0.000199558 0.00570742 0)
(-0.00138716 0.0163374 0)
(-0.0039519 0.0260169 0)
(-0.00757337 0.0346328 0)
(-0.0120604 0.0421112 0)
(-0.0172674 0.048408 0)
(-0.0230433 0.0535076 0)
(-0.0292408 0.0574194 0)
(-0.0357219 0.0601752 0)
(-0.0423591 0.0618243 0)
(-0.0490363 0.06243 0)
(-0.0556492 0.0620654 0)
(-0.0621054 0.0608105 0)
(-0.0683246 0.0587482 0)
(-0.0742374 0.0559622 0)
(-0.0797847 0.0525343 0)
(-0.0849173 0.0485434 0)
(-0.0895938 0.0440635 0)
(-0.0937804 0.0391638 0)
(-0.0974494 0.0339079 0)
(-0.100578 0.0283544 0)
(-0.103148 0.0225569 0)
(-0.105145 0.0165654 0)
(-0.106555 0.0104265 0)
(-0.10737 0.00418521 0)
(-0.107582 -0.00211399 0)
(-0.107184 -0.00842607 0)
(-0.106172 -0.0147039 0)
(-0.104547 -0.0208973 0)
(-0.102309 -0.0269515 0)
(-0.0994651 -0.0328065 0)
(-0.0960248 -0.0383964 0)
(-0.0920052 -0.0436489 0)
(-0.0874299 -0.0484852 0)
(-0.082331 -0.0528206 0)
(-0.0767503 -0.0565653 0)
(-0.0707407 -0.0596258 0)
(-0.064367 -0.061907 0)
(-0.0577072 -0.0633146 0)
(-0.0508525 -0.0637585 0)
(-0.0439078 -0.0631557 0)
(-0.0369913 -0.0614348 0)
(-0.0302337 -0.0585395 0)
(-0.0237762 -0.0544333 0)
(-0.0177694 -0.0491028 0)
(-0.0123709 -0.0425615 0)
(-0.00773808 -0.0348528 0)
(-0.00401864 -0.0260516 0)
(-0.00140099 -0.0162637 0)
(-0.000198562 -0.00563532 0)
(-0.000215783 0.00643993 0)
(-0.00149929 0.0183867 0)
(-0.00426944 0.0292234 0)
(-0.00817725 0.0388316 0)
(-0.013013 0.047137 0)
(-0.0186164 0.0540982 0)
(-0.0248215 0.0597054 0)
(-0.031467 0.0639766 0)
(-0.0384027 0.0669535 0)
(-0.0454904 0.0686972 0)
(-0.0526053 0.0692835 0)
(-0.0596363 0.0687984 0)
(-0.0664859 0.0673343 0)
(-0.0730702 0.0649865 0)
(-0.0793178 0.06185 0)
(-0.0851689 0.0580171 0)
(-0.0905739 0.0535759 0)
(-0.0954926 0.0486085 0)
(-0.0998922 0.043191 0)
(-0.103746 0.0373928 0)
(-0.107034 0.031277 0)
(-0.109738 0.0249011 0)
(-0.111845 0.0183178 0)
(-0.113343 0.0115764 0)
(-0.114222 0.00472368 0)
(-0.114475 -0.00219409 0)
(-0.114095 -0.00913003 0)
(-0.113076 -0.0160349 0)
(-0.111415 -0.0228559 0)
(-0.109113 -0.029535 0)
(-0.106172 -0.0360079 0)
(-0.102601 -0.0422034 0)
(-0.0984115 -0.0480426 0)
(-0.0936263 -0.0534386 0)
(-0.0882748 -0.0582975 0)
(-0.0823976 -0.0625185 0)
(-0.0760473 -0.0659961 0)
(-0.0692897 -0.0686219 0)
(-0.0622057 -0.0702876 0)
(-0.0548912 -0.0708885 0)
(-0.047458 -0.0703273 0)
(-0.0400336 -0.0685185 0)
(-0.0327599 -0.0653935 0)
(-0.0257919 -0.0609047 0)
(-0.0192957 -0.0550305 0)
(-0.0134456 -0.0477791 0)
(-0.0084167 -0.0391924 0)
(-0.00437373 -0.0293473 0)
(-0.00152546 -0.018356 0)
(-0.000216289 -0.00637599 0)
(-0.000233976 0.00723248 0)
(-0.00162398 0.0206026 0)
(-0.00462112 0.0326873 0)
(-0.00884382 0.0433619 0)
(-0.0140612 0.0525515 0)
(-0.0200961 0.0602181 0)
(-0.0267658 0.0663586 0)
(-0.0338935 0.0710009 0)
(-0.0413152 0.0741989 0)
(-0.0488814 0.0760272 0)
(-0.056458 0.0765761 0)
(-0.0639267 0.0759462 0)
(-0.071185 0.0742446 0)
(-0.0781457 0.0715803 0)
(-0.0847358 0.0680609 0)
(-0.0908949 0.0637905 0)
(-0.0965745 0.0588672 0)
(-0.101736 0.0533818 0)
(-0.106347 0.0474176 0)
(-0.110385 0.0410499 0)
(-0.11383 0.0343464 0)
(-0.116668 0.027368 0)
(-0.118886 0.0201701 0)
(-0.120473 0.0128038 0)
(-0.12142 0.00531744 0)
(-0.12172 -0.00224168 0)
(-0.121364 -0.00982541 0)
(-0.120346 -0.017383 0)
(-0.118661 -0.0248596 0)
(-0.116305 -0.0321943 0)
(-0.113279 -0.039319 0)
(-0.109586 -0.0461571 0)
(-0.105236 -0.0526231 0)
(-0.100248 -0.0586218 0)
(-0.0946476 -0.0640492 0)
(-0.0884733 -0.0687929 0)
(-0.0817767 -0.0727338 0)
(-0.0746241 -0.0757488 0)
(-0.0670983 -0.0777135 0)
(-0.0593 -0.0785065 0)
(-0.051348 -0.0780137 0)
(-0.0433793 -0.0761334 0)
(-0.0355482 -0.0727817 0)
(-0.0280247 -0.0678981 0)
(-0.0209922 -0.0614509 0)
(-0.0146443 -0.0534417 0)
(-0.00917638 -0.04391 0)
(-0.00477271 -0.0329349 0)
(-0.00166598 -0.0206359 0)
(-0.000236497 -0.00718365 0)
(-0.000254427 0.00809198 0)
(-0.001763 0.0230031 0)
(-0.00501154 0.0364351 0)
(-0.00958122 0.0482561 0)
(-0.0152168 0.0583905 0)
(-0.0217217 0.0668045 0)
(-0.0288943 0.0735032 0)
(-0.0365402 0.0785263 0)
(-0.0444807 0.0819418 0)
(-0.0525536 0.0838404 0)
(-0.0606149 0.084329 0)
(-0.068539 0.0835256 0)
(-0.0762185 0.0815535 0)
(-0.0835634 0.0785373 0)
(-0.0904994 0.0745993 0)
(-0.0969669 0.069856 0)
(-0.102918 0.0644165 0)
(-0.108317 0.0583811 0)
(-0.113136 0.0518407 0)
(-0.117352 0.0448762 0)
(-0.12095 0.0375601 0)
(-0.123918 0.0299564 0)
(-0.126244 0.0221227 0)
(-0.127921 0.0141111 0)
(-0.128939 0.00597085 0)
(-0.129291 -0.00225028 0)
(-0.128968 -0.0105037 0)
(-0.127961 -0.018738 0)
(-0.126263 -0.0268968 0)
(-0.123868 -0.0349171 0)
(-0.12077 -0.0427271 0)
(-0.116971 -0.0502456 0)
(-0.112476 -0.0573802 0)
(-0.107296 -0.0640273 0)
(-0.101456 -0.070072 0)
(-0.0949899 -0.0753893 0)
(-0.0879466 -0.0798454 0)
(-0.080392 -0.0833004 0)
(-0.0724107 -0.0856119 0)
(-0.0641071 -0.0866392 0)
(-0.055607 -0.0862485 0)
(-0.0470574 -0.0843189 0)
(-0.0386259 -0.0807486 0)
(-0.0304991 -0.0754614 0)
(-0.0228796 -0.0684129 0)
(-0.0159831 -0.0595964 0)
(-0.010028 -0.0490481 0)
(-0.00522176 -0.0368491 0)
(-0.00182491 -0.0231269 0)
(-0.000259573 -0.00806713 0)
(-0.000277443 0.00902628 0)
(-0.00191819 0.0256088 0)
(-0.00544545 0.0404966 0)
(-0.0103977 0.0535502 0)
(-0.0164915 0.0646934 0)
(-0.023508 0.0738974 0)
(-0.0312241 0.0811777 0)
(-0.0394259 0.0865877 0)
(-0.0479177 0.0902126 0)
(-0.0565241 0.0921617 0)
(-0.0650908 0.0925617 0)
(-0.0734845 0.0915501 0)
(-0.0815934 0.0892691 0)
(-0.089325 0.0858612 0)
(-0.096605 0.0814645 0)
(-0.103375 0.0762096 0)
(-0.10959 0.0702178 0)
(-0.115217 0.0635992 0)
(-0.120231 0.0564523 0)
(-0.124615 0.0488645 0)
(-0.128357 0.0409121 0)
(-0.131446 0.0326621 0)
(-0.133877 0.0241734 0)
(-0.135641 0.0154989 0)
(-0.136731 0.00668757 0)
(-0.13714 -0.00221318 0)
(-0.136858 -0.0111553 0)
(-0.135874 -0.0200874 0)
(-0.134179 -0.0289528 0)
(-0.131761 -0.0376869 0)
(-0.128613 -0.0462152 0)
(-0.124728 -0.0544518 0)
(-0.120106 -0.0622979 0)
(-0.114755 -0.0696412 0)
(-0.108691 -0.0763557 0)
(-0.101945 -0.0823025 0)
(-0.0945614 -0.0873317 0)
(-0.0866047 -0.0912848 0)
(-0.0781594 -0.0939987 0)
(-0.0693335 -0.0953106 0)
(-0.0602591 -0.0950639 0)
(-0.0510935 -0.093115 0)
(-0.0420185 -0.0893405 0)
(-0.0332386 -0.0836452 0)
(-0.0249781 -0.0759692 0)
(-0.0174778 -0.066295 0)
(-0.0109827 -0.0546539 0)
(-0.00572728 -0.0411288 0)
(-0.00200472 -0.0258553 0)
(-0.000285934 -0.00903652 0)
(-0.000303358 0.0100442 0)
(-0.00209148 0.0284423 0)
(-0.00592779 0.044905 0)
(-0.0113016 0.0592838 0)
(-0.0178971 0.0715025 0)
(-0.0254696 0.0815392 0)
(-0.0337713 0.0894216 0)
(-0.0425665 0.0952203 0)
(-0.0516412 0.0990405 0)
(-0.0608054 0.101014 0)
(-0.0698938 0.10129 0)
(-0.0787661 0.100028 0)
(-0.0873061 0.0973941 0)
(-0.09542 0.093549 0)
(-0.103034 0.0886492 0)
(-0.110093 0.0828409 0)
(-0.116555 0.0762583 0)
(-0.122392 0.069022 0)
(-0.127583 0.0612389 0)
(-0.132118 0.0530019 0)
(-0.135988 0.0443914 0)
(-0.139187 0.0354766 0)
(-0.141712 0.0263172 0)