/*--------------------------------*- C++ -*----------------------------------*\
  =========                 |
  \\      /  F ield         | OpenFOAM: The Open Source CFD Toolbox
   \\    /   O peration     | Website:  https://openfoam.org
    \\  /    A nd           | Version:  7
     \\/     M anipulation  |
\*---------------------------------------------------------------------------*/
FoamFile
{
    version     2.0;
    format      ascii;
    class       surfaceScalarField;
    location    "0.0638";
    object      phi;
}
// * * * * * * * * * * * * * * * * * * * * * * * * * * * * * * * * * * * * * //

dimensions      [0 3 -1 0 0 0 0];

internalField   nonuniform List<scalar> 
4900
(
-5.55542e-06
5.5554e-06
-1.0161e-05
4.6056e-06
-1.29489e-05
2.78785e-06
-1.46694e-05
1.72049e-06
-1.57722e-05
1.10286e-06
-1.65115e-05
7.39258e-07
-1.70325e-05
5.21047e-07
-1.74173e-05
3.84751e-07
-1.77123e-05
2.95056e-07
-1.79453e-05
2.32927e-07
-1.81332e-05
1.87932e-07
-1.82873e-05
1.54103e-07
-1.84152e-05
1.27854e-07
-1.85221e-05
1.06923e-07
-1.86119e-05
8.98223e-08
-1.86874e-05
7.55327e-08
-1.87508e-05
6.33354e-08
-1.88035e-05
5.27086e-08
-1.88467e-05
4.32645e-08
-1.88814e-05
3.47082e-08
-1.89083e-05
2.68106e-08
-1.89276e-05
1.93896e-08
-1.89399e-05
1.22967e-08
-1.89453e-05
5.40725e-09
-1.8944e-05
-1.38807e-09
-1.89358e-05
-8.18622e-09
-1.89207e-05
-1.50827e-08
-1.88985e-05
-2.2172e-08
-1.8869e-05
-2.95551e-08
-1.88316e-05
-3.7346e-08
-1.87859e-05
-4.5679e-08
-1.87312e-05
-5.47189e-08
-1.86665e-05
-6.46749e-08
-1.85907e-05
-7.58198e-08
-1.85022e-05
-8.85181e-08
-1.83989e-05
-1.03268e-07
-1.82782e-05
-1.20768e-07
-1.81362e-05
-1.42019e-07
-1.79676e-05
-1.6851e-07
-1.77651e-05
-2.02524e-07
-1.75174e-05
-2.47712e-07
-1.72072e-05
-3.10166e-07
-1.68068e-05
-4.00471e-07
-1.62691e-05
-5.37672e-07
-1.55128e-05
-7.56257e-07
-1.43969e-05
-1.11592e-06
-1.26818e-05
-1.71507e-06
-9.94607e-06
-2.73578e-06
-5.4525e-06
-4.49357e-06
-5.4525e-06
-1.19044e-08
5.56731e-06
-2.13072e-06
6.72442e-06
-4.85832e-06
5.51545e-06
-7.27631e-06
4.13848e-06
-9.2156e-06
3.04215e-06
-1.07289e-05
2.25255e-06
-1.19094e-05
1.70159e-06
-1.28402e-05
1.31551e-06
-1.35845e-05
1.03938e-06
-1.41883e-05
8.36738e-07
-1.46844e-05
6.84029e-07
-1.50963e-05
5.65977e-07
-1.54409e-05
4.72513e-07
-1.57309e-05
3.96848e-07
-1.59753e-05
3.34289e-07
-1.61813e-05
2.81513e-07
-1.63541e-05
2.36115e-07
-1.64977e-05
1.96313e-07
-1.66152e-05
1.60763e-07
-1.67089e-05
1.28432e-07
-1.67806e-05
9.8506e-08
-1.68316e-05
7.03353e-08
-1.68627e-05
4.33849e-08
-1.68744e-05
1.7203e-08
-1.68672e-05
-8.60474e-09
-1.6841e-05
-3.43984e-08
-1.67956e-05
-6.0521e-08
-1.67304e-05
-8.73179e-08
-1.66448e-05
-1.15156e-07
-1.65377e-05
-1.44445e-07
-1.64077e-05
-1.75665e-07
-1.62531e-05
-2.09399e-07
-1.60714e-05
-2.46379e-07
-1.58596e-05
-2.87546e-07
-1.5614e-05
-3.34139e-07
-1.53295e-05
-3.87821e-07
-1.49994e-05
-4.50865e-07
-1.46149e-05
-5.26443e-07
-1.41644e-05
-6.19066e-07
-1.36316e-05
-7.35291e-07
-1.29945e-05
-8.84847e-07
-1.22222e-05
-1.08243e-06
-1.12722e-05
-1.35048e-06
-1.00866e-05
-1.72324e-06
-8.59162e-06
-2.25128e-06
-6.70707e-06
-3.00047e-06
-4.39337e-06
-4.02877e-06
-1.81872e-06
-5.31043e-06
1.24282e-07
-6.43657e-06
-5.32822e-06
1.03241e-06
4.5349e-06
5.46752e-07
7.21007e-06
-9.92864e-07
7.05507e-06
-2.88907e-06
6.03469e-06
-4.74811e-06
4.90119e-06
-6.40946e-06
3.9139e-06
-7.83369e-06
3.12582e-06
-9.03385e-06
2.51566e-06
-1.00403e-05
2.04578e-06
-1.0885e-05
1.68153e-06
-1.15966e-05
1.39558e-06
-1.21982e-05
1.16761e-06
-1.27085e-05
9.82814e-07
-1.31421e-05
8.3042e-07
-1.35104e-05
7.02559e-07
-1.38223e-05
5.9341e-07
-1.40848e-05
4.98615e-07
-1.43033e-05
4.1486e-07
-1.44821e-05
3.39592e-07
-1.46245e-05
2.70811e-07
-1.47329e-05
2.06924e-07
-1.48092e-05
1.4664e-07
-1.48547e-05
8.88864e-08
-1.48703e-05
3.27532e-08
-1.48563e-05
-2.25591e-08
-1.4813e-05
-7.7781e-08
-1.47399e-05
-1.33608e-07
-1.46365e-05
-1.90738e-07
-1.45017e-05
-2.49904e-07
-1.43342e-05
-3.11921e-07
-1.41322e-05
-3.77728e-07
-1.38931e-05
-4.48453e-07
-1.3614e-05
-5.25485e-07
-1.3291e-05
-6.10586e-07
-1.29191e-05
-7.06023e-07
-1.24921e-05
-8.14766e-07
-1.20022e-05
-9.40761e-07
-1.14394e-05
-1.08931e-06
-1.07908e-05
-1.2676e-06
-1.00406e-05
-1.4855e-06
-9.16898e-06
-1.75651e-06
-8.15237e-06
-2.09903e-06
-6.96532e-06
-2.53753e-06
-5.58608e-06
-3.10248e-06
-4.01133e-06
-3.82603e-06
-2.28779e-06
-4.72401e-06
-5.72669e-07
-5.74389e-06
7.66777e-07
-6.64987e-06
1.08775e-06
-6.75755e-06
-4.24047e-06
9.06166e-07
3.62873e-06
1.22783e-06
6.88841e-06
6.41655e-07
7.64124e-06
-5.26489e-07
7.20284e-06
-1.94771e-06
6.3224e-06
-3.40374e-06
5.36994e-06
-4.77761e-06
4.49968e-06
-6.0195e-06
3.75755e-06
-7.11684e-06
3.14312e-06
-8.07497e-06
2.63965e-06
-8.90644e-06
2.22705e-06
-9.62565e-06
1.88683e-06
-1.02464e-05
1.60358e-06
-1.07809e-05
1.36494e-06
-1.12396e-05
1.16123e-06
-1.16311e-05
9.84873e-07
-1.19624e-05
8.29939e-07
-1.22393e-05
6.91774e-07
-1.24664e-05
5.66684e-07
-1.26473e-05
4.51713e-07
-1.27848e-05
3.44459e-07
-1.28812e-05
2.42947e-07
-1.29378e-05
1.4552e-07
-1.29558e-05
5.07547e-08
-1.29357e-05
-4.26046e-08
-1.28778e-05
-1.35705e-07
-1.27818e-05
-2.29639e-07
-1.2647e-05
-3.25493e-07
-1.24725e-05
-4.24401e-07
-1.22569e-05
-5.27602e-07
-1.19981e-05
-6.36504e-07
-1.16938e-05
-7.52766e-07
-1.13409e-05
-8.78395e-07
-1.09356e-05
-1.01587e-06
-1.04733e-05
-1.16831e-06
-9.94837e-06
-1.33968e-06
-9.3541e-06
-1.53503e-06
-8.68255e-06
-1.76086e-06
-7.92464e-06
-2.02552e-06
-7.07055e-06
-2.33958e-06
-6.11086e-06
-2.7162e-06
-5.03894e-06
-3.17095e-06
-3.85612e-06
-3.72035e-06
-2.5812e-06
-4.3774e-06
-1.26722e-06
-5.14001e-06
-2.6501e-08
-5.96473e-06
9.4281e-07
-6.7132e-06
1.34939e-06
-7.05646e-06
9.17035e-07
-6.32519e-06
-3.32343e-06
6.71481e-07
2.95725e-06
1.24246e-06
6.31743e-06
1.22083e-06
7.66287e-06
6.47324e-07
7.77634e-06
-2.90585e-07
7.26031e-06
-1.41054e-06
6.48989e-06
-2.58017e-06
5.66931e-06
-3.71812e-06
4.89551e-06
-4.7809e-06
4.2059e-06
-5.74916e-06
3.60792e-06
-6.61764e-06
3.09552e-06
-7.38849e-06
2.65769e-06
-8.06743e-06
2.28251e-06
-8.66142e-06
1.95894e-06
-9.17754e-06
1.67735e-06
-9.62236e-06
1.42969e-06
-1.00017e-05
1.20927e-06
-1.03205e-05
1.01062e-06
-1.05831e-05
8.29235e-07
-1.07928e-05
6.61402e-07
-1.09524e-05
5.04043e-07
-1.1064e-05
3.54577e-07
-1.11293e-05
2.10802e-07
-1.11493e-05
7.08133e-08
-1.11249e-05
-6.70844e-08
-1.10561e-05
-2.04442e-07
-1.0943e-05
-3.42731e-07
-1.07851e-05
-4.83405e-07
-1.05816e-05
-6.2796e-07
-1.03312e-05
-7.78005e-07
-1.00323e-05
-9.35334e-07
-9.68308e-06
-1.10201e-06
-9.281e-06
-1.28047e-06
-8.82322e-06
-1.47365e-06
-8.30643e-06
-1.6851e-06
-7.72693e-06
-1.91918e-06
-7.08077e-06
-2.18119e-06
-6.36407e-06
-2.47756e-06
-5.57366e-06
-2.81593e-06
-4.70823e-06
-3.20501e-06
-3.77041e-06
-3.65402e-06
-2.77024e-06
-4.17111e-06
-1.73078e-06
-4.75982e-06
-6.96354e-07
-5.41183e-06
2.56617e-07
-6.09298e-06
1.01014e-06
-6.71825e-06
1.40781e-06
-7.11087e-06
1.29724e-06
-6.94589e-06
6.66586e-07
-5.69454e-06
-2.65685e-06
4.80049e-07
2.4772e-06
1.07468e-06
5.7228e-06
1.33796e-06
7.39959e-06
1.16943e-06
7.94488e-06
6.3672e-07
7.79302e-06
-1.4156e-07
7.26817e-06
-1.05339e-06
6.58114e-06
-2.01341e-06
5.85553e-06
-2.96404e-06
5.15653e-06
-3.87e-06
4.51388e-06
-4.71177e-06
3.93729e-06
-5.48013e-06
3.42605e-06
-6.17215e-06
2.97453e-06
-6.78852e-06
2.5753e-06
-7.33181e-06
2.22065e-06
-7.80547e-06
1.90334e-06
-8.21312e-06
1.61693e-06
-8.55828e-06
1.35578e-06
-8.84413e-06
1.11508e-06
-9.07344e-06
8.90712e-07
-9.24854e-06
6.79151e-07
-9.37135e-06
4.77383e-07
-9.44334e-06
2.82792e-07
-9.46561e-06
9.3082e-08
-9.43889e-06
-9.38016e-08
-9.36359e-06
-2.79745e-07
-9.23979e-06
-4.6653e-07
-9.06729e-06
-6.559e-07
-8.84563e-06
-8.49626e-07
-8.57406e-06
-1.04957e-06
-8.25163e-06
-1.25776e-06
-7.87717e-06
-1.47647e-06
-7.44934e-06
-1.7083e-06
-6.96672e-06
-1.95627e-06
-6.42795e-06
-2.22387e-06
-5.83192e-06
-2.51521e-06
-5.17817e-06
-2.83494e-06
-4.46746e-06
-3.18827e-06
-3.70276e-06
-3.58063e-06
-2.89071e-06
-4.01706e-06
-2.04384e-06
-4.50089e-06
-1.18377e-06
-5.03118e-06
-3.45412e-07
-5.59818e-06
4.18229e-07
-6.17547e-06
1.03252e-06
-6.70727e-06
1.4037e-06
-7.08943e-06
1.4375e-06
-7.14467e-06
1.08975e-06
-6.59814e-06
4.69711e-07
-5.0745e-06
-2.18713e-06
3.47641e-07
2.12956e-06
8.89157e-07
5.18128e-06
1.27329e-06
7.01546e-06
1.35262e-06
7.86555e-06
1.1195e-06
8.02615e-06
6.33934e-07
7.75373e-06
-2.48344e-08
7.23991e-06
-7.83405e-07
6.6141e-06
-1.58368e-06
5.9568e-06
-2.38375e-06
5.31394e-06
-3.15547e-06
4.70902e-06
-3.8812e-06
4.15178e-06
-4.55071e-06
3.64404e-06
-5.15876e-06
3.18335e-06
-5.70328e-06
2.76518e-06
-6.1842e-06
2.38425e-06
-6.6025e-06
2.03523e-06
-6.95978e-06
1.71305e-06
-7.2578e-06
1.4131e-06
-7.49833e-06
1.13125e-06
-7.68303e-06
8.63851e-07
-7.81334e-06
6.07687e-07
-7.89045e-06
3.59908e-07
-7.91535e-06
1.17978e-07
-7.88876e-06
-1.20396e-07
-7.81118e-06
-3.57324e-07
-7.68292e-06
-5.94789e-07
-7.50411e-06
-8.34712e-07
-7.27473e-06
-1.07901e-06
-6.99466e-06
-1.32964e-06
-6.66373e-06
-1.58869e-06
-6.28178e-06
-1.85842e-06
-5.84881e-06
-2.14128e-06
-5.36507e-06
-2.44001e-06
-4.83134e-06
-2.75761e-06
-4.24922e-06
-3.09732e-06
-3.62167e-06
-3.46249e-06
-2.95369e-06
-3.85625e-06
-2.25333e-06
-4.28099e-06
-1.53309e-06
-4.7373e-06
-8.11746e-07
-5.22224e-06
-1.16543e-07
-5.72639e-06
5.14587e-07
-6.22931e-06
1.03172e-06
-6.6926e-06
1.37463e-06
-7.05019e-06
1.48147e-06
-7.19627e-06
1.31036e-06
-6.97355e-06
8.80636e-07
-6.16842e-06
3.3551e-07
-4.52938e-06
-1.85162e-06
2.60249e-07
1.86931e-06
7.3106e-07
4.71047e-06
1.14999e-06
6.59653e-06
1.36885e-06
7.64668e-06
1.34125e-06
8.05375e-06
1.08469e-06
8.01029e-06
6.46745e-07
7.67785e-06
8.25602e-08
7.17829e-06
-5.57134e-07
6.5965e-06
-1.23091e-06
5.98771e-06
-1.90735e-06
5.38546e-06
-2.56398e-06
4.80841e-06
-3.18543e-06
4.2655e-06
-3.76174e-06
3.75965e-06
-4.28678e-06
3.29021e-06
-4.75711e-06
2.85459e-06
-5.17108e-06
2.44921e-06
-5.52819e-06
2.07016e-06
-5.82862e-06
1.71353e-06
-6.07297e-06
1.3756e-06
-6.26201e-06
1.05289e-06
-6.39657e-06
7.42251e-07
-6.47748e-06
4.40817e-07
-6.50548e-06
1.45983e-07
-6.48125e-06
-1.44628e-07
-6.40537e-06
-4.33207e-07
-6.27835e-06
-7.21807e-07
-6.10068e-06
-1.01239e-06
-5.87282e-06
-1.30686e-06
-5.59532e-06
-1.60714e-06
-5.26886e-06
-1.91516e-06
-4.89436e-06
-2.23291e-06
-4.47314e-06
-2.56249e-06
-4.00712e-06
-2.90603e-06
-3.49909e-06
-3.26564e-06
-2.95308e-06
-3.64333e-06
-2.37489e-06
-4.04068e-06
-1.77276e-06
-4.45837e-06
-1.15824e-06
-4.89551e-06
-5.47237e-07
-5.34831e-06
3.88022e-08
-5.80828e-06
5.71824e-07
-6.25941e-06
1.01673e-06
-6.67421e-06
1.33252e-06
-7.00839e-06
1.47675e-06
-7.19442e-06
1.41569e-06
-7.13521e-06
1.14292e-06
-6.70078e-06
7.07575e-07
-5.73307e-06
2.47153e-07
-4.06895e-06
-1.60447e-06
2.01937e-07
1.66738e-06
6.05829e-07
4.30658e-06
1.01833e-06
6.18403e-06
1.30838e-06
7.35664e-06
1.41426e-06
7.94786e-06
1.32683e-06
8.09772e-06
1.06855e-06
7.93613e-06
6.7631e-07
7.57052e-06
1.90051e-07
7.08276e-06
-3.5357e-07
6.53133e-06
-9.23865e-07
5.95576e-06
-1.49667e-06
5.38122e-06
-2.05382e-06
4.82265e-06
-2.58214e-06
4.28797e-06
-3.07241e-06
3.78048e-06
-3.51839e-06
3.30057e-06
-3.91606e-06
2.84687e-06
-4.26292e-06
2.41703e-06
-4.55761e-06
2.00822e-06
-4.79946e-06
1.61745e-06
-4.98832e-06
1.24175e-06
-5.12435e-06
8.78278e-07
-5.20789e-06
5.24358e-07
-5.23942e-06
1.7751e-07
-5.21949e-06
-1.6456e-07
-5.14872e-06
-5.03975e-07
-5.02781e-06
-8.42712e-07
-4.85758e-06
-1.18263e-06
-4.63896e-06
-1.52548e-06
-4.37313e-06
-1.87297e-06
-4.06158e-06
-2.2267e-06
-3.70624e-06
-2.58825e-06
-3.30964e-06
-2.95909e-06
-2.87514e-06
-3.34053e-06
-2.4072e-06
-3.73358e-06
-1.91175e-06
-4.13878e-06
-1.39664e-06
-4.55578e-06
-8.72206e-07
-4.98281e-06
-3.51845e-07
-5.41587e-06
1.47292e-07
-5.84744e-06
6.03808e-07
-6.26479e-06
9.91942e-07
-6.64754e-06
1.28236e-06
-6.96463e-06
1.44461e-06
-7.17064e-06
1.45238e-06
-7.20219e-06
1.29268e-06
-6.97551e-06
9.79709e-07
-6.38781e-06
5.72149e-07
-5.32551e-06
1.88032e-07
-3.68484e-06
-1.41644e-06
1.61735e-07
1.50564e-06
5.08319e-07
3.96e-06
8.96577e-07
5.79577e-06
1.21678e-06
7.03643e-06
1.40491e-06
7.75974e-06
1.43717e-06
8.06547e-06
1.31832e-06
8.05497e-06
1.06986e-06
7.81899e-06
7.20575e-07
7.43204e-06
3.004e-07
6.95151e-06
-1.63175e-07
6.41933e-06
-6.46692e-07
5.86473e-06
-1.13113e-06
5.30708e-06
-1.60164e-06
4.75848e-06
-2.04697e-06
4.22582e-06
-2.45884e-06
3.71244e-06
-2.83129e-06
3.21932e-06
-3.16015e-06
2.74589e-06
-3.44262e-06
2.29068e-06
-3.67688e-06
1.85171e-06
-3.86184e-06
1.42672e-06
-3.99698e-06
1.01341e-06
-4.08213e-06
6.09511e-07
-4.11746e-06
2.12834e-07
-4.10335e-06
-1.78666e-07
-4.04043e-06
-5.66896e-07
-3.92953e-06
-9.53615e-07
-3.77172e-06
-1.34044e-06
-3.56837e-06
-1.72884e-06
-3.32119e-06
-2.12014e-06
-3.03239e-06
-2.51551e-06
-2.70471e-06
-2.91593e-06
-2.34168e-06
-3.32212e-06
-1.9478e-06
-3.73442e-06
-1.52874e-06
-4.15264e-06
-1.09173e-06
-4.57579e-06
-6.45842e-07
-5.00166e-06
-2.02405e-07
-5.42625e-06
2.24657e-07
-5.84293e-06
6.18569e-07
-6.24136e-06
9.5972e-07
-6.60594e-06
1.22621e-06
-6.91403e-06
1.39529e-06
-7.13371e-06
1.4463e-06
-7.22165e-06
1.36555e-06
-7.12144e-06
1.15367e-06
-6.76364e-06
8.35015e-07
-6.06916e-06
4.67336e-07
-4.95783e-06
1.47106e-07
-3.36461e-06
-1.26933e-06
1.32914e-07
1.37273e-06
4.31968e-07
3.66094e-06
7.89621e-07
5.43812e-06
1.11615e-06
6.7099e-06
1.35149e-06
7.5244e-06
1.4652e-06
7.95176e-06
1.45069e-06
8.06949e-06
1.31764e-06
7.95204e-06
1.08501e-06
7.66467e-06
7.75636e-07
7.26088e-06
4.12605e-07
6.78236e-06
1.71599e-08
6.26018e-06
-3.923e-07
5.71654e-06
-8.00513e-07
5.16669e-06
-1.19523e-06
4.62053e-06
-1.56685e-06
4.08407e-06
-1.90807e-06
3.56054e-06
-2.21341e-06
3.05123e-06
-2.47888e-06
2.55615e-06
-2.70165e-06
2.07447e-06
-2.8798e-06
1.60487e-06
-3.01213e-06
1.14574e-06
-3.098e-06
6.95383e-07
-3.13723e-06
2.52065e-07
-3.13003e-06
-1.85868e-07
-3.07696e-06
-6.19968e-07
-2.97892e-06
-1.05165e-06
-2.8372e-06
-1.48216e-06
-2.65347e-06
-1.91257e-06
-2.42987e-06
-2.34373e-06
-2.16913e-06
-2.77625e-06
-1.87466e-06
-3.21041e-06
-1.55068e-06
-3.64609e-06
-1.20245e-06
-4.08264e-06
-8.36439e-07
-4.51865e-06
-4.60551e-07
-4.95168e-06
-8.43703e-08
-5.37784e-06
2.80644e-07
-5.79126e-06
6.21038e-07
-6.18333e-06
9.21424e-07
-6.54174e-06
1.16486e-06
-6.84938e-06
1.33375e-06
-7.08292e-06
1.41157e-06
-7.21153e-06
1.38565e-06
-7.19573e-06
1.25129e-06
-6.98707e-06
1.01713e-06
-6.52948e-06
7.11171e-07
-5.76319e-06
3.85629e-07
-4.63229e-06
1.17681e-07
-3.09666e-06
-1.15165e-06
1.11432e-07
1.26129e-06
3.71233e-07
3.40114e-06
6.97205e-07
5.11215e-06
1.01656e-06
6.39054e-06
1.27569e-06
7.26528e-06
1.44231e-06
7.78513e-06
1.50324e-06
8.00856e-06
1.45979e-06
7.99548e-06
1.32297e-06
7.8015e-06
1.10906e-06
7.47479e-06
8.36458e-07
7.05497e-06
5.2341e-07
6.57323e-06
1.86729e-07
6.05322e-06
-1.58862e-07
5.51228e-06
-5.00944e-07
4.96261e-06
-8.29334e-07
4.41246e-06
-1.13589e-06
3.86709e-06
-1.41423e-06
3.32958e-06
-1.65949e-06
2.80141e-06
-1.86802e-06
2.283e-06
-2.03721e-06
1.77405e-06
-2.16526e-06
1.2738e-06
-2.25108e-06
7.81206e-07
-2.29417e-06
2.9515e-07
-2.29451e-06
-1.85522e-07
-2.25259e-06
-6.61894e-07
-2.16931e-06
-1.13493e-06
-2.04606e-06
-1.60541e-06
-1.88473e-06
-2.0739e-06
-1.68775e-06
-2.54071e-06
-1.45821e-06
-3.0058e-06
-1.1999e-06
-3.46871e-06
-9.17508e-07
-3.92848e-06
-6.16705e-07
-4.38345e-06
-3.04307e-07
-4.83105e-06
1.15818e-08
-5.26757e-06
3.2145e-07
-5.68771e-06
6.14328e-07
-6.08414e-06
8.77856e-07
-6.44685e-06
1.09855e-06
-6.76244e-06
1.26241e-06
-7.01323e-06
1.35594e-06
-7.17645e-06
1.36786e-06
-7.22345e-06
1.29152e-06
-7.11938e-06
1.12811e-06
-6.82366e-06
8.90386e-07
-6.29176e-06
6.06267e-07
-5.47908e-06
3.20965e-07
-4.34699e-06
9.5739e-08
-2.87143e-06
-1.05591e-06
9.48305e-08
1.16646e-06
3.21941e-07
3.17403e-06
6.17384e-07
4.8167e-06
9.2211e-07
6.08581e-06
1.18949e-06
6.9979e-06
1.38815e-06
7.58647e-06
1.50154e-06
7.89517e-06
1.52547e-06
7.97155e-06
1.46487e-06
7.8621e-06
1.33051e-06
7.60915e-06
1.13632e-06
7.24915e-06
8.97323e-07
6.81223e-06
6.28214e-07
6.32233e-06
3.42542e-07
5.79795e-06
5.22598e-08
5.25289e-06
-2.3243e-07
4.69715e-06
-5.03047e-07
4.13771e-06
-7.52707e-07
3.57924e-06
-9.75948e-07
3.02465e-06
-1.16854e-06
2.4756e-06
-1.32732e-06
1.93284e-06
-1.45003e-06
1.3965e-06
-1.53516e-06
8.66341e-07
-1.58191e-06
3.41898e-07
-1.59006e-06
-1.77378e-07
-1.55993e-06
-6.92016e-07
-1.49242e-06
-1.20244e-06
-1.38892e-06
-1.7089e-06
-1.25141e-06
-2.21141e-06
-1.08247e-06
-2.70965e-06
-8.85367e-07
-3.2029e-06
-6.64097e-07
-3.68998e-06
-4.23514e-07
-4.16907e-06
-1.69406e-07
-4.63756e-06
9.14108e-08
-5.09187e-06
3.51024e-07
-5.52718e-06
6.00406e-07
-5.93709e-06
8.29471e-07
-6.31321e-06
1.02728e-06
-6.64466e-06
1.18241e-06
-6.91758e-06
1.28369e-06
-7.11451e-06
1.32117e-06
-7.21393e-06
1.28768e-06
-7.18997e-06
1.18083e-06
-7.01253e-06
1.00532e-06
-6.64815e-06
7.75479e-07
-6.06192e-06
5.1725e-07
-5.22085e-06
2.68839e-07
-4.09858e-06
7.88236e-08
-2.68142e-06
-9.77089e-07
8.15782e-08
1.08489e-06
2.81065e-07
2.97454e-06
5.47907e-07
4.54986e-06
8.34008e-07
5.79971e-06
1.09939e-06
6.73252e-06
1.31493e-06
7.37093e-06
1.46287e-06
7.74724e-06
1.53563e-06
7.89878e-06
1.53379e-06
7.86394e-06
1.46372e-06
7.67922e-06
1.33542e-06
7.37745e-06
1.16079e-06
6.98686e-06
9.52218e-07
6.5309e-06
7.2172e-07
6.02845e-06
4.80347e-07
5.49426e-06
2.37887e-07
4.93961e-06
2.75821e-09
4.37284e-06
-2.17991e-07
3.79999e-06
-4.18595e-07
3.22525e-06
-5.94461e-07
2.65147e-06
-7.42039e-07
2.08041e-06
-8.58701e-07
1.51316e-06
-9.42633e-07
9.50273e-07
-9.92747e-07
3.92012e-07
-1.00861e-06
-1.61513e-07
-9.9041e-07
-7.10217e-07
-9.38916e-07
-1.25394e-06
-8.55486e-07
-1.79233e-06
-7.4208e-07
-2.32481e-06
-6.01294e-07
-2.85043e-06
-4.364e-07
-3.3678e-06
-2.51407e-07
-3.87498e-06
-5.11204e-08
-4.36935e-06
1.58805e-07
-4.84748e-06
3.71825e-07
-5.30489e-06
5.80498e-07
-5.73586e-06
7.7654e-07
-6.13314e-06
9.50961e-07
-6.48763e-06
1.09434e-06
-6.78804e-06
1.19727e-06
-7.02051e-06
1.25105e-06
-7.16828e-06
1.24863e-06
-7.21151e-06
1.18591e-06
-7.12724e-06
1.06324e-06
-6.88987e-06
8.87198e-07
-6.47211e-06
6.72103e-07
-5.84683e-06
4.41092e-07
-4.98984e-06
2.25989e-07
-3.88348e-06
6.53897e-08
-2.52082e-06
-9.117e-07
7.06876e-08
1.0142e-06
2.46432e-07
2.7988e-06
4.86712e-07
4.30958e-06
7.52155e-07
5.53427e-06
1.00873e-06
6.47594e-06
1.23017e-06
7.14949e-06
1.39882e-06
7.57858e-06
1.50528e-06
7.79233e-06
1.54713e-06
7.82209e-06
1.52739e-06
7.69896e-06
1.45283e-06
7.45201e-06
1.33249e-06
7.1072e-06
1.1765e-06
6.68689e-06
9.95199e-07
6.20975e-06
7.98469e-07
5.69099e-06
5.95388e-07
5.14269e-06
3.94005e-07
4.57422e-06
2.01252e-07
3.99274e-06
2.29513e-08
3.40356e-06
-1.3614e-07
2.81056e-06
-2.72247e-07
2.21652e-06
-3.82498e-07
1.62341e-06
-4.64833e-07
1.03261e-06
-5.1794e-07
4.45118e-07
-5.41188e-07
-1.38265e-07
-5.3459e-07
-7.16815e-07
-4.98776e-07
-1.28975e-06
-4.34985e-07
-1.85613e-06
-3.45073e-07
-2.41473e-06
-2.31527e-07
-2.96398e-06
-9.75015e-08
-3.50182e-06
5.31541e-08
-4.02563e-06
2.1586e-07
-4.53206e-06
3.85284e-07
-5.01691e-06
5.55347e-07
-5.47495e-06
7.19259e-07
-5.89977e-06
8.6962e-07
-6.2835e-06
9.98611e-07
-6.61662e-06
1.09829e-06
-6.88772e-06
1.16107e-06
-7.08328e-06
1.18031e-06
-7.18752e-06
1.15119e-06
-7.1824e-06
1.07176e-06
-7.04781e-06
9.44052e-07
-6.76216e-06
7.75318e-07
-6.30337e-06
5.78994e-07
-5.6505e-06
3.75154e-07
-4.786e-06
1.90054e-07
-3.69838e-06
5.44286e-08
-2.38519e-06
-8.57271e-07
6.15005e-08
9.52698e-07
2.16469e-07
2.64383e-06
4.32069e-07
4.09398e-06
6.7591e-07
5.29043e-06
9.19152e-07
6.2327e-06
1.13851e-06
6.93013e-06
1.31724e-06
7.39985e-06
1.44515e-06
7.66442e-06
1.51796e-06
7.74928e-06
1.53621e-06
7.6807e-06
1.50409e-06
7.48413e-06
1.42821e-06
7.18309e-06
1.3166e-06
6.7985e-06
1.17791e-06
6.34845e-06
1.02075e-06
5.84816e-06
8.53298e-07
5.31014e-06
6.8302e-07
4.7445e-06
5.16518e-07
4.15924e-06
3.59468e-07
3.56061e-06
2.16618e-07
2.95341e-06
9.18211e-08
2.34132e-06
-1.19155e-08
1.72715e-06
-9.23701e-08
1.11306e-06
-1.48052e-07
5.008e-07
-1.78153e-07
-1.08164e-07
-1.82512e-07
-7.12457e-07
-1.61585e-07
-1.31068e-06
-1.1644e-07
-1.90127e-06
-4.87502e-08
-2.48242e-06
3.91937e-08
-3.05192e-06
1.44472e-07
-3.6071e-06
2.63518e-07
-4.14468e-06
3.92113e-07
-4.66065e-06
5.25386e-07
-5.15018e-06
6.57845e-07
-5.60741e-06
7.83452e-07
-6.02538e-06
8.95748e-07
-6.39579e-06
9.88063e-07
-6.70893e-06
1.05382e-06
-6.95348e-06
1.08697e-06
-7.11643e-06
1.08254e-06
-7.1831e-06
1.03737e-06
-7.13722e-06
9.50878e-07
-6.96132e-06
8.25979e-07
-6.63726e-06
6.69867e-07
-6.14726e-06
4.94607e-07
-5.47524e-06
3.17257e-07
-4.60865e-06
1.59311e-07
-3.54043e-06
4.52586e-08
-2.27114e-06
-8.12013e-07
5.35645e-08
8.99134e-07
1.9003e-07
2.50736e-06
3.82577e-07
3.90143e-06
6.04461e-07
5.06855e-06
8.31315e-07
6.00585e-06
1.04277e-06
6.71867e-06
1.22341e-06
7.21922e-06
1.36297e-06
7.52485e-06
1.45611e-06
7.65614e-06
1.50168e-06
7.63514e-06
1.50184e-06
7.48397e-06
1.46122e-06
7.22371e-06
1.38599e-06
6.87373e-06
1.2832e-06
6.45124e-06
1.16018e-06
5.97118e-06
1.02411e-06
5.4462e-06
8.81751e-07
4.88686e-06
7.39205e-07
4.30179e-06
6.01855e-07
3.69796e-06
4.74294e-07
3.08097e-06
3.6033e-07
2.45528e-06
2.63004e-07
1.82447e-06
1.84624e-07
1.19144e-06
1.26808e-07
5.58617e-07
9.05136e-08
-7.18698e-08
7.60765e-08
-6.9802e-07
8.32285e-08
-1.31783e-06
1.11114e-07
-1.92916e-06
1.58296e-07
-2.5296e-06
2.22756e-07
-3.11638e-06
3.01891e-07
-3.68624e-06
3.92514e-07
-4.2353e-06
4.90858e-07
-4.759e-06
5.92601e-07
-5.25192e-06
6.92915e-07
-5.70773e-06
7.86554e-07
-6.11901e-06
8.67993e-07
-6.47723e-06
9.31635e-07
-6.77258e-06
9.72105e-07
-6.99395e-06
9.84629e-07
-7.12895e-06
9.65522e-07
-7.16399e-06
9.12757e-07
-7.08446e-06
8.266e-07
-6.87516e-06
7.10245e-07
-6.52091e-06
5.7036e-07
-6.00738e-06
4.17418e-07
-5.3223e-06
2.65647e-07
-4.45688e-06
1.32483e-07
-3.40727e-06
3.74041e-08
-2.17606e-06
-7.74608e-07
4.656e-08
8.52574e-07
1.66269e-07
2.38766e-06
3.37122e-07
3.73058e-06
5.37002e-07
4.86867e-06
7.45392e-07
5.79746e-06
9.44666e-07
6.5194e-06
1.12092e-06
7.04297e-06
1.26433e-06
7.38144e-06
1.36906e-06
7.55141e-06
1.43283e-06
7.57137e-06
1.45637e-06
7.46043e-06
1.44266e-06
7.23742e-06
1.39631e-06
6.92008e-06
1.32293e-06
6.52462e-06
1.2286e-06
6.0655e-06
1.11951e-06
5.55529e-06
1.00161e-06
5.00476e-06
8.80429e-07
4.42297e-06
7.60928e-07
3.81746e-06
6.47439e-07
3.19446e-06
5.4362e-07
2.5591e-06
4.52459e-07
1.91564e-06
3.76282e-07
1.26762e-06
3.16781e-07
6.18118e-07
2.75036e-07
-3.01249e-08
2.51543e-07
-6.74527e-07
2.46232e-07
-1.31252e-06
2.58484e-07
-1.94141e-06
2.87136e-07
-2.55825e-06
3.30494e-07
-3.15974e-06
3.86331e-07
-3.74207e-06
4.51901e-07
-4.30087e-06
5.23954e-07
-4.83105e-06
5.98768e-07
-5.32674e-06
6.7221e-07
-5.78117e-06
7.39826e-07
-6.18663e-06
7.96981e-07
-6.53439e-06
8.39051e-07
-6.81465e-06
8.61688e-07
-7.01658e-06
8.61144e-07
-7.12841e-06
8.34682e-07
-7.13753e-06
7.81025e-07
-7.0308e-06
7.00846e-07
-6.79498e-06
5.97228e-07
-6.41729e-06
4.76026e-07
-5.88617e-06
3.46045e-07
-5.19232e-06
2.1892e-07
-4.32975e-06
1.08618e-07
-3.29696e-06
3.0524e-08
-2.09797e-06
-7.44085e-07
4.02559e-08
8.12318e-07
1.44552e-07
2.28336e-06
2.94823e-07
3.58031e-06
4.72801e-07
4.69069e-06
6.61298e-07
5.60896e-06
8.45217e-07
6.33548e-06
1.01226e-06
6.87592e-06
1.15332e-06
7.24038e-06
1.26248e-06
7.44225e-06
1.33684e-06
7.49701e-06
1.37606e-06
7.42121e-06
1.38189e-06
7.23159e-06
1.35762e-06
6.94434e-06
1.3076e-06
6.57464e-06
1.23678e-06
6.13632e-06
1.15034e-06
5.64174e-06
1.05342e-06
5.10168e-06
9.50906e-07
4.52548e-06
8.47278e-07
3.92108e-06
7.46514e-07
3.29522e-06
6.52043e-07
2.65357e-06
5.66724e-07
2.00096e-06
4.92838e-07
1.34151e-06
4.32104e-07
6.78852e-07
3.85693e-07
1.62862e-08
3.54245e-07
-6.43079e-07
3.37885e-07
-1.29616e-06
3.36241e-07
-1.93976e-06
3.48451e-07
-2.57046e-06
3.73175e-07
-3.18446e-06
4.08601e-07
-3.7775e-06
4.52465e-07
-4.34474e-06
5.02067e-07
-4.88065e-06
5.54309e-07
-5.37898e-06
6.05759e-07
-5.83262e-06
6.5273e-07
-6.2336e-06
6.91414e-07
-6.57307e-06
7.18052e-07
-6.84128e-06
7.29153e-07
-7.02769e-06
7.21778e-07
-7.12104e-06
6.93859e-07
-7.10961e-06
6.44565e-07
-6.98151e-06
5.74662e-07
-6.72508e-06
4.86851e-07
-6.32948e-06
3.86013e-07
-5.78534e-06
2.79292e-07
-5.0856e-06
1.75959e-07
-4.22642e-06
8.69911e-08
-3.208e-06
2.43682e-08
-2.03534e-06
-7.19716e-07
3.44815e-08
7.77836e-07
1.244e-07
2.19344e-06
2.54981e-07
3.44973e-06
4.1122e-07
4.53445e-06
5.78831e-07
5.44135e-06
7.45035e-07
6.16927e-06
8.99153e-07
6.7218e-06
1.03296e-06
7.10658e-06
1.14078e-06
7.33443e-06
1.21941e-06
7.41838e-06
1.26781e-06
7.3728e-06
1.28681e-06
7.21259e-06
1.27863e-06
6.95252e-06
1.24653e-06
6.60674e-06
1.19443e-06
6.18842e-06
1.12659e-06
5.70958e-06
1.04734e-06
5.18093e-06
9.60884e-07
4.61193e-06
8.71176e-07
4.01079e-06
7.81784e-07
3.38461e-06
6.95844e-07
2.73951e-06
6.16024e-07
2.08078e-06
5.44509e-07
1.41302e-06
4.83e-07
7.40361e-07
4.32723e-07
6.65625e-08
3.94443e-07
-6.04798e-07
3.6847e-07
-1.27019e-06
3.54681e-07
-1.92597e-06
3.52524e-07
-2.5683e-06
3.61029e-07
-3.19297e-06
3.78822e-07
-3.79529e-06
4.0414e-07
-4.37005e-06
4.34848e-07
-4.91136e-06
4.68479e-07
-5.41261e-06
5.02286e-07
-5.86642e-06
5.33316e-07
-6.26463e-06
5.58518e-07
-6.59827e-06
5.7489e-07
-6.85766e-06
5.79658e-07
-7.03245e-06
5.70501e-07
-7.11188e-06
5.45807e-07
-7.08492e-06
5.04952e-07
-6.94065e-06
4.48574e-07
-6.6687e-06
3.78818e-07
-6.25972e-06
2.99499e-07
-5.70602e-06
2.16145e-07
-5.00225e-06
1.35872e-07
-4.14614e-06
6.70453e-08
-3.13917e-06
1.87498e-08
-1.98705e-06
-7.00967e-07
2.91079e-08
7.48729e-07
1.0544e-07
2.11711e-06
2.17039e-07
3.33813e-06
3.51712e-07
4.39978e-06
4.9774e-07
5.29532e-06
6.4447e-07
6.02254e-06
7.82807e-07
6.58347e-06
9.05518e-07
6.98387e-06
1.00738e-06
7.23257e-06
1.08513e-06
7.34062e-06
1.13734e-06
7.32059e-06
1.16413e-06
7.1858e-06
1.1669e-06
6.94976e-06
1.14798e-06
6.62566e-06
1.11038e-06
6.22602e-06
1.05751e-06
5.76246e-06
9.92907e-07
5.24554e-06
9.20118e-07
4.68472e-06
8.42524e-07
4.08839e-06
7.63246e-07
3.46389e-06
6.85081e-07
2.81768e-06
6.10458e-07
2.1554e-06
5.41416e-07
1.48206e-06
4.79601e-07
8.02176e-07
4.2626e-07
1.19903e-07
3.82255e-07
-5.60793e-07
3.4807e-07
-1.236e-06
3.23821e-07
-1.90172e-06
3.09263e-07
-2.55375e-06
3.03806e-07
-3.18751e-06
3.06518e-07
-3.79801e-06
3.16143e-07
-4.37968e-06
3.31116e-07
-4.92633e-06
3.49592e-07
-5.43109e-06
3.69489e-07
-5.88632e-06
3.88544e-07
-6.28369e-06
4.04404e-07
-6.61413e-06
4.14729e-07
-6.86798e-06
4.17342e-07
-7.03507e-06
4.10391e-07
-7.10493e-06
3.92556e-07
-7.06708e-06
3.63247e-07
-6.91134e-06
3.22819e-07
-6.62828e-06
2.72744e-07
-6.20965e-06
2.15733e-07
-5.64901e-06
1.55757e-07
-4.94227e-06
9.79468e-08
-4.08833e-06
4.83478e-08
-3.08957e-06
1.35261e-08
-1.95223e-06
-6.87441e-07
2.40352e-08
7.24693e-07
8.73817e-08
2.05376e-06
1.80545e-07
3.24497e-06
2.93812e-07
4.28651e-06
4.17761e-07
5.17137e-06
5.43709e-07
5.89659e-06
6.64095e-07
6.46308e-06
7.72744e-07
6.87522e-06
8.65009e-07
7.1403e-06
9.37789e-07
7.26785e-06
9.8944e-07
7.26894e-06
1.01961e-06
7.15563e-06
1.02905e-06
6.94033e-06
1.01933e-06
6.63538e-06
9.92653e-07
6.25269e-06
9.51633e-07
5.80348e-06
8.99085e-07
5.29808e-06
8.37885e-07
4.74592e-06
7.70842e-07
4.15543e-06
7.00603e-07
3.53413e-06
6.29588e-07
2.88869e-06
5.59949e-07
2.22504e-06
4.93539e-07
1.54847e-06
4.31909e-07
8.63807e-07
3.76298e-07
1.75515e-07
3.27638e-07
-5.12133e-07
2.86563e-07
-1.19493e-06
2.53415e-07
-1.86858e-06
2.28252e-07
-2.52858e-06
2.10852e-07
-3.17011e-06
2.00726e-07
-3.78788e-06
1.97123e-07
-4.37607e-06
1.99039e-07
-4.92825e-06
2.0524e-07
-5.43729e-06
2.14285e-07
-5.89537e-06
2.24569e-07
-6.29397e-06
2.34374e-07
-6.62394e-06
2.41956e-07
-6.87556e-06
2.45636e-07
-7.03875e-06
2.43927e-07
-7.10322e-06
2.35673e-07
-7.05883e-06
2.20202e-07
-6.89587e-06
1.9748e-07
-6.60555e-06
1.68236e-07
-6.1804e-06
1.34059e-07
-5.61483e-06
9.74208e-08
-4.90563e-06
6.16072e-08
-4.05252e-06
3.05563e-08
-3.05852e-06
8.58615e-09
-1.93026e-06
-6.78854e-07
1.9184e-08
7.05509e-07
6.99878e-08
2.00296e-06
1.45125e-07
3.16983e-06
2.37113e-07
4.19452e-06
3.38631e-07
5.06986e-06
4.42834e-07
5.79239e-06
5.43648e-07
6.36226e-06
6.35984e-07
6.78288e-06
7.15871e-07
7.06042e-06
7.80497e-07
7.20322e-06
8.28176e-07
7.22126e-06
8.5825e-07
7.12556e-06
8.70949e-07
6.92763e-06
8.67223e-07
6.6391e-06
8.48574e-07
6.27134e-06
8.16889e-07
5.83516e-06
7.74291e-07
5.34068e-06
7.23011e-07
4.7972e-06
6.65282e-07
4.21316e-06
6.03259e-07
3.59615e-06
5.38961e-07
2.95299e-06
4.74228e-07
2.28977e-06
4.10696e-07
1.612e-06
3.49784e-07
9.24719e-07
2.92689e-07
2.3261e-07
2.40389e-07
-4.59833e-07
1.93643e-07
-1.14818e-06
1.53e-07
-1.82793e-06
1.18802e-07
-2.49439e-06
9.11901e-08
-3.1425e-06
7.01046e-08
-3.7668e-06
5.52899e-08
-4.36126e-06
4.62959e-08
-4.91926e-06
4.24837e-08
-5.43347e-06
4.30345e-08
-5.89592e-06
4.69676e-08
-6.2979e-06
5.31678e-08
-6.63014e-06
6.04276e-08
-6.88282e-06
6.75051e-08
-7.04582e-06
7.31994e-08
-7.10891e-06
7.64416e-08
-7.06207e-06
7.63978e-08
-6.89583e-06
7.25763e-08
-6.60173e-06
6.49257e-08
-6.17275e-06
5.39112e-08
-5.60381e-06
4.05488e-08
-4.89227e-06
2.63829e-08
-4.03835e-06
1.33954e-08
-3.04553e-06
3.84192e-09
-1.9207e-06
-6.75013e-07
1.44883e-08
6.91021e-07
5.30596e-08
1.96439e-06
1.10456e-07
3.11243e-06
1.81254e-07
4.12372e-06
2.60086e-07
4.99102e-06
3.41851e-07
5.71063e-06
4.21922e-07
6.28219e-06
4.96308e-07
6.7085e-06
5.61776e-07
6.99495e-06
6.15901e-07
7.14909e-06
6.57071e-07
7.18009e-06
6.8444e-07
7.09819e-06
6.97849e-07
6.91422e-06
6.97714e-07
6.63924e-06
6.84918e-07
6.28414e-06
6.60689e-07
5.85939e-06
6.26492e-07
5.37488e-06
5.83929e-07
4.83976e-06
5.34663e-07
4.26243e-06
4.80346e-07
3.65047e-06
4.22572e-07
3.01076e-06
3.62844e-07
2.3495e-06
3.02548e-07
1.6723e-06
2.42943e-07
9.84324e-07
1.85153e-07
2.90399e-07
1.3017e-07
-4.0485e-07
7.88538e-08
-1.09687e-06
3.19374e-08
-1.78102e-06
-9.97153e-09
-2.45248e-06
-4.6389e-08
-3.10608e-06
-7.69564e-08
-3.73623e-06
-1.01446e-07
-4.33677e-06
-1.19766e-07
-4.90093e-06
-1.31973e-07
-5.42127e-06
-1.38277e-07
-5.88961e-06
-1.39052e-07
-6.29713e-06
-1.34837e-07
-6.63435e-06
-1.2633e-07
-6.89133e-06
-1.14374e-07
-7.05778e-06
-9.99237e-08
-7.12336e-06
-8.40075e-08
-7.07798e-06
-6.76647e-08
-6.91217e-06
-5.18788e-08
-6.61752e-06
-3.75033e-08
-6.18713e-06
-2.51935e-08
-5.61612e-06
-1.53541e-08