/*--------------------------------*- C++ -*----------------------------------*\
  =========                 |
  \\      /  F ield         | OpenFOAM: The Open Source CFD Toolbox
   \\    /   O peration     | Website:  https://openfoam.org
    \\  /    A nd           | Version:  7
     \\/     M anipulation  |
\*---------------------------------------------------------------------------*/
FoamFile
{
    version     2.0;
    format      ascii;
    class       surfaceScalarField;
    location    "0.0628";
    object      phi;
}
// * * * * * * * * * * * * * * * * * * * * * * * * * * * * * * * * * * * * * //

dimensions      [0 3 -1 0 0 0 0];

internalField   nonuniform List<scalar> 
4900
(
5.45464e-06
-5.45463e-06
9.95314e-06
-4.4985e-06
1.26939e-05
-2.74079e-06
1.44122e-05
-1.71829e-06
1.55285e-05
-1.11627e-06
1.62817e-05
-7.53222e-07
1.68129e-05
-5.3115e-07
1.72035e-05
-3.90622e-07
1.75008e-05
-2.9732e-07
1.77331e-05
-2.32303e-07
1.79182e-05
-1.85045e-07
1.80676e-05
-1.49481e-07
1.81896e-05
-1.21961e-07
1.82898e-05
-1.00188e-07
1.83724e-05
-8.26466e-08
1.84407e-05
-6.82996e-08
1.84971e-05
-5.64073e-08
1.85436e-05
-4.6426e-08
1.85815e-05
-3.79436e-08
1.86121e-05
-3.06392e-08
1.86364e-05
-2.42559e-08
1.8655e-05
-1.85823e-08
1.86684e-05
-1.34397e-08
1.86771e-05
-8.67172e-09
1.86812e-05
-4.138e-09
1.86809e-05
2.95985e-10
1.86762e-05
4.75266e-09
1.86668e-05
9.36721e-09
1.86525e-05
1.4274e-08
1.86329e-05
1.96233e-08
1.86073e-05
2.55862e-08
1.8575e-05
3.2365e-08
1.85348e-05
4.02062e-08
1.84853e-05
4.942e-08
1.84249e-05
6.04075e-08
1.83512e-05
7.37026e-08
1.82612e-05
9.00349e-08
1.81508e-05
1.10433e-07
1.80144e-05
1.36397e-07
1.78442e-05
1.70201e-07
1.76287e-05
2.15447e-07
1.73506e-05
2.78126e-07
1.69819e-05
3.68702e-07
1.64756e-05
5.06254e-07
1.57495e-05
7.26155e-07
1.46575e-05
1.09195e-06
1.29451e-05
1.71238e-06
1.0162e-05
2.78318e-06
5.55724e-06
4.60473e-06
5.55724e-06
-1.19291e-07
-5.33534e-06
1.83183e-06
-6.44962e-06
4.41345e-06
-5.32241e-06
6.72977e-06
-4.03461e-06
8.61045e-06
-2.99695e-06
1.00939e-05
-2.2367e-06
1.12599e-05
-1.69711e-06
1.21824e-05
-1.31313e-06
1.29199e-05
-1.03483e-06
1.35159e-05
-8.28341e-07
1.40024e-05
-6.71482e-07
1.44026e-05
-5.49687e-07
1.47339e-05
-4.53277e-07
1.50094e-05
-3.75675e-07
1.5239e-05
-3.12301e-07
1.54306e-05
-2.5988e-07
1.55902e-05
-2.16007e-07
1.57227e-05
-1.7887e-07
1.58318e-05
-1.47073e-07
1.59207e-05
-1.19507e-07
1.59917e-05
-9.52744e-08
1.60467e-05
-7.36281e-08
1.60872e-05
-5.39285e-08
1.61142e-05
-3.56123e-08
1.61282e-05
-1.81674e-08
1.61296e-05
-1.11362e-09
1.61183e-05
1.60222e-08
1.6094e-05
3.37137e-08
1.60558e-05
5.24636e-08
1.60026e-05
7.28207e-08
1.59328e-05
9.54073e-08
1.58442e-05
1.20953e-07
1.57341e-05
1.50341e-07
1.55988e-05
1.84667e-07
1.54339e-05
2.25331e-07
1.52334e-05
2.74164e-07
1.49898e-05
3.33621e-07
1.46932e-05
4.07069e-07
1.43303e-05
4.9925e-07
1.38835e-05
6.17006e-07
1.33285e-05
7.70472e-07
1.26316e-05
9.75004e-07
1.17461e-05
1.25427e-06
1.06075e-05
1.64486e-06
9.13173e-06
2.20189e-06
7.2244e-06
2.99928e-06
4.8315e-06
4.10528e-06
2.12099e-06
5.49368e-06
1.07181e-08
6.715e-06
5.56796e-06
-1.08241e-06
-4.25293e-06
-7.53954e-07
-6.77808e-06
5.89881e-07
-6.66625e-06
2.3026e-06
-5.74733e-06
4.01447e-06
-4.70882e-06
5.56686e-06
-3.78909e-06
6.91251e-06
-3.04276e-06
8.05497e-06
-2.45559e-06
9.01677e-06
-1.99662e-06
9.8246e-06
-1.63618e-06
1.05035e-05
-1.35036e-06
1.10749e-05
-1.12107e-06
1.15565e-05
-9.34945e-07
1.1963e-05
-7.82133e-07
1.2306e-05
-6.55333e-07
1.25952e-05
-5.49058e-07
1.28383e-05
-4.59122e-07
1.30417e-05
-3.82267e-07
1.32105e-05
-3.15912e-07
1.3349e-05
-2.57968e-07
1.34604e-05
-2.06707e-07
1.35475e-05
-1.60667e-07
1.36121e-05
-1.18578e-07
1.36558e-05
-7.93104e-08
1.36795e-05
-4.18253e-08
1.36835e-05
-5.14022e-09
1.36678e-05
3.17128e-08
1.36318e-05
6.97097e-08
1.35744e-05
1.09881e-07
1.34939e-05
1.5335e-07
1.33879e-05
2.01377e-07
1.32534e-05
2.55429e-07
1.30865e-05
3.17255e-07
1.28822e-05
3.88996e-07
1.26342e-05
4.73334e-07
1.23347e-05
5.737e-07
1.19737e-05
6.94564e-07
1.15389e-05
8.41854e-07
1.10146e-05
1.02355e-06
1.03811e-05
1.25055e-06
9.61373e-06
1.53781e-06
8.68292e-06
1.90582e-06
7.55508e-06
2.38211e-06
6.19833e-06
3.00161e-06
4.59797e-06
3.80226e-06
2.79165e-06
4.8056e-06
9.38097e-07
5.95883e-06
-5.70603e-07
7.00238e-06
-1.03814e-06
7.18254e-06
4.52982e-06
-9.12975e-07
-3.33996e-06
-1.34125e-06
-6.3498e-06
-9.36119e-07
-7.07138e-06
2.25606e-08
-6.70601e-06
1.24102e-06
-5.92727e-06
2.51973e-06
-5.06781e-06
3.74592e-06
-4.26895e-06
4.86685e-06
-3.57652e-06
5.86464e-06
-2.99441e-06
6.73942e-06
-2.51095e-06
7.49956e-06
-2.1105e-06
8.15653e-06
-1.77804e-06
8.72229e-06
-1.5007e-06
9.2081e-06
-1.26794e-06
9.62407e-06
-1.0713e-06
9.97903e-06
-9.04017e-07
1.02806e-05
-7.60653e-07
1.05351e-05
-6.36811e-07
1.07481e-05
-5.28883e-07
1.0924e-05
-4.33861e-07
1.10665e-05
-3.49198e-07
1.11785e-05
-2.72689e-07
1.12623e-05
-2.02387e-07
1.13195e-05
-1.3653e-07
1.13512e-05
-7.34822e-08
1.13577e-05
-1.1678e-08
1.1339e-05
5.04266e-08
1.12943e-05
1.14398e-07
1.12223e-05
1.81883e-07
1.1121e-05
2.54665e-07
1.09876e-05
3.34731e-07
1.08187e-05
4.24359e-07
1.06097e-05
5.26225e-07
1.03552e-05
6.43535e-07
1.00483e-05
7.80215e-07
9.68088e-06
9.41134e-07
9.24302e-06
1.13242e-06
8.72303e-06
1.36185e-06
8.10727e-06
1.63931e-06
7.38043e-06
1.97739e-06
6.52649e-06
2.39175e-06
5.53112e-06
2.90118e-06
4.38712e-06
3.52611e-06
3.10502e-06
4.28371e-06
1.7324e-06
5.17488e-06
3.84054e-07
6.15394e-06
-7.24231e-07
7.06712e-06
-1.26556e-06
7.54372e-06
-9.15828e-07
6.8328e-06
3.61399e-06
-6.64665e-07
-2.67529e-06
-1.29682e-06
-5.71765e-06
-1.41718e-06
-6.95102e-06
-1.04091e-06
-7.08227e-06
-3.22536e-07
-6.64565e-06
5.80415e-07
-5.97076e-06
1.54968e-06
-5.23821e-06
2.50933e-06
-4.53618e-06
3.41617e-06
-3.90124e-06
4.24875e-06
-3.34354e-06
4.99906e-06
-2.8608e-06
5.66671e-06
-2.44569e-06
6.25543e-06
-2.08943e-06
6.77089e-06
-1.7834e-06
7.21944e-06
-1.51985e-06
7.60742e-06
-1.29199e-06
7.9408e-06
-1.09403e-06
8.225e-06
-9.21008e-07
8.46478e-06
-7.6867e-07
8.66427e-06
-6.33348e-07
8.82691e-06
-5.11836e-07
8.95551e-06
-4.01287e-07
9.05225e-06
-2.9913e-07
9.11872e-06
-2.02998e-07
9.15589e-06
-1.1066e-07
9.16418e-06
-1.99617e-08
9.14337e-06
7.1233e-08
9.09267e-06
1.65098e-07
9.01064e-06
2.63911e-07
8.89519e-06
3.70119e-07
8.7435e-06
4.86421e-07
8.552e-06
6.1586e-07
8.31628e-06
7.61937e-07
8.03107e-06
9.28753e-07
7.69011e-06
1.12117e-06
7.28624e-06
1.34501e-06
6.81139e-06
1.60727e-06
6.2569e-06
1.91634e-06
5.61405e-06
2.28217e-06
4.87528e-06
2.71616e-06
4.0364e-06
3.23063e-06
3.10054e-06
3.83704e-06
2.08468e-06
4.54197e-06
1.02984e-06
5.33856e-06
1.47126e-08
6.19001e-06
-8.31436e-07
7.00009e-06
-1.32878e-06
7.56446e-06
-1.29267e-06
7.50761e-06
-6.84881e-07
6.22502e-06
2.92911e-06
-4.70629e-07
-2.20466e-06
-1.09913e-06
-5.08915e-06
-1.46686e-06
-6.58329e-06
-1.46722e-06
-7.08191e-06
-1.146e-06
-6.96688e-06
-5.98176e-07
-6.51858e-06
8.25679e-08
-5.91896e-06
8.22363e-07
-5.27597e-06
1.56957e-06
-4.64844e-06
2.2911e-06
-4.06507e-06
2.96755e-06
-3.53725e-06
3.58886e-06
-3.067e-06
4.15103e-06
-2.6516e-06
4.6538e-06
-2.28617e-06
5.09908e-06
-1.96514e-06
5.48998e-06
-1.68289e-06
5.83008e-06
-1.43413e-06
6.12307e-06
-1.214e-06
6.37249e-06
-1.01809e-06
6.58155e-06
-8.42413e-07
6.75308e-06
-6.83358e-07
6.88941e-06
-5.37617e-07
6.9924e-06
-4.02125e-07
7.0634e-06
-2.74002e-07
7.10324e-06
-1.50492e-07
7.11218e-06
-2.89017e-08
7.08996e-06
9.34523e-08
7.03575e-06
2.19308e-07
6.94814e-06
3.51519e-07
6.82513e-06
4.93131e-07
6.6641e-06
6.47451e-07
6.46182e-06
8.18142e-07
6.21443e-06
1.00932e-06
5.91752e-06
1.22566e-06
5.56617e-06
1.47252e-06
5.15518e-06
1.756e-06
4.67941e-06
2.08304e-06
4.1344e-06
2.46135e-06
3.51743e-06
2.89914e-06
2.82922e-06
3.40437e-06
2.07661e-06
3.98324e-06
1.27654e-06
4.63711e-06
4.61493e-07
5.35702e-06
-3.13981e-07
6.11403e-06
-9.67704e-07
6.84373e-06
-1.39085e-06
7.42324e-06
-1.46829e-06
7.6419e-06
-1.1356e-06
7.17492e-06
-4.96412e-07
5.58583e-06
2.43269e-06
-3.39636e-07
-1.86503e-06
-9.01173e-07
-4.52761e-06
-1.36244e-06
-6.12202e-06
-1.58205e-06
-6.8623e-06
-1.54158e-06
-7.00735e-06
-1.28307e-06
-6.77709e-06
-8.67847e-07
-6.33418e-06
-3.54997e-07
-5.78882e-06
2.07209e-07
-5.21065e-06
7.82924e-07
-4.64079e-06
1.34733e-06
-4.10166e-06
1.88431e-06
-3.60399e-06
2.38418e-06
-3.15147e-06
2.84177e-06
-2.74376e-06
3.25495e-06
-2.37831e-06
3.62355e-06
-2.05149e-06
3.94862e-06
-1.7592e-06
4.23185e-06
-1.49723e-06
4.47526e-06
-1.2615e-06
4.68088e-06
-1.04804e-06
4.85065e-06
-8.53124e-07
4.98623e-06
-6.73199e-07
5.08898e-06
-5.04879e-07
5.15989e-06
-3.44906e-07
5.19951e-06
-1.9011e-07
5.20796e-06
-3.73582e-08
5.18492e-06
1.16491e-07
5.12958e-06
2.74647e-07
5.04067e-06
4.40438e-07
4.91642e-06
6.17378e-07
4.75464e-06
8.09227e-07
4.55273e-06
1.02006e-06
4.30772e-06
1.25432e-06
4.01649e-06
1.5169e-06
3.6759e-06
1.81311e-06
3.28319e-06
2.1487e-06
2.83652e-06
2.5297e-06
2.33582e-06
2.96206e-06
1.78399e-06
3.45097e-06
1.18871e-06
3.99965e-06
5.64861e-07
4.60708e-06
-6.24387e-08
5.26441e-06
-6.54525e-07
5.94911e-06
-1.15673e-06
6.61623e-06
-1.49933e-06
7.18633e-06
-1.60682e-06
7.53073e-06
-1.42297e-06
7.45805e-06
-9.5914e-07
6.71108e-06
-3.66407e-07
4.99309e-06
2.06629e-06
-2.54693e-07
-1.61033e-06
-7.40134e-07
-4.04217e-06
-1.21959e-06
-5.64256e-06
-1.5564e-06
-6.52549e-06
-1.70156e-06
-6.8622e-06
-1.66097e-06
-6.81768e-06
-1.46729e-06
-6.52786e-06
-1.16138e-06
-6.09473e-06
-7.82228e-07
-5.5898e-06
-3.62549e-07
-5.06047e-06
7.22648e-08
-4.53647e-06
5.03629e-07
-4.03535e-06
9.18619e-07
-3.56646e-06
1.30872e-06
-3.13386e-06
1.6687e-06
-2.73829e-06
1.99566e-06
-2.37846e-06
2.28836e-06
-2.05189e-06
2.54657e-06
-1.75545e-06
2.77076e-06
-1.48568e-06
2.96172e-06
-1.23901e-06
3.1204e-06
-1.0118e-06
3.2477e-06
-8.00499e-07
3.34439e-06
-6.01567e-07
3.41101e-06
-4.11528e-07
3.44784e-06
-2.26935e-07
3.45482e-06
-4.43398e-08
3.43157e-06
1.39738e-07
3.37737e-06
3.2885e-07
3.29114e-06
5.26665e-07
3.17152e-06
7.37006e-07
3.01685e-06
9.63893e-07
2.82534e-06
1.21157e-06
2.59513e-06
1.48453e-06
2.32455e-06
1.78748e-06
2.01241e-06
2.12526e-06
1.65841e-06
2.5027e-06
1.26384e-06
2.92426e-06
8.32433e-07
3.39347e-06
3.71509e-07
3.9119e-06
-1.06472e-07
4.47763e-06
-5.82176e-07
5.08279e-06
-1.02763e-06
5.70986e-06
-1.40507e-06
6.32655e-06
-1.66768e-06
6.87885e-06
-1.76439e-06
7.28304e-06
-1.65175e-06
7.41809e-06
-1.31637e-06
7.12267e-06
-8.08702e-07
6.20342e-06
-2.80981e-07
4.46537e-06
1.78531e-06
-1.99098e-07
-1.41124e-06
-6.17267e-07
-3.624e-06
-1.08222e-06
-5.17761e-06
-1.4757e-06
-6.13201e-06
-1.73828e-06
-6.59962e-06
-1.8545e-06
-6.70146e-06
-1.83563e-06
-6.54672e-06
-1.7059e-06
-6.22446e-06
-1.49331e-06
-5.8024e-06
-1.22447e-06
-5.3293e-06
-9.22216e-07
-4.83873e-06
-6.04854e-07
-4.35271e-06
-2.86371e-07
-3.88494e-06
2.29927e-08
-3.44322e-06
3.16037e-07
-3.03133e-06
5.8792e-07
-2.65034e-06
8.35566e-07
-2.29953e-06
1.05717e-06
-1.97705e-06
1.25181e-06
-1.68032e-06
1.41912e-06
-1.40632e-06
1.55911e-06
-1.15178e-06
1.6719e-06
-9.1329e-07
1.75767e-06
-6.87342e-07
1.81654e-06
-4.70395e-07
1.84847e-06
-2.58865e-07
1.85326e-06
-4.91258e-08
1.83049e-06
1.62504e-07
1.77956e-06
3.79782e-07
1.69966e-06
6.06559e-07
1.58987e-06
8.46797e-07
1.44919e-06
1.10458e-06
1.27667e-06
1.38409e-06
1.07162e-06
1.68958e-06
8.33821e-07
2.02527e-06
5.63892e-07
2.39519e-06
2.63753e-07
2.80284e-06
-6.27516e-08
3.25077e-06
-4.09068e-07
3.73978e-06
-7.6498e-07
4.26781e-06
-1.11556e-06
4.82821e-06
-1.4402e-06
5.40743e-06
-1.71204e-06
5.9817e-06
-1.89852e-06
6.51302e-06
-1.964e-06
6.94434e-06
-1.87603e-06
7.19507e-06
-1.61659e-06
7.15865e-06
-1.19925e-06
6.70532e-06
-6.90026e-07
5.6942e-06
-2.24307e-07
3.99965e-06
1.561e-06
-1.61753e-07
-1.24948e-06
-5.25338e-07
-3.26042e-06
-9.64182e-07
-4.73877e-06
-1.38052e-06
-5.71567e-06
-1.7149e-06
-6.26524e-06
-1.9409e-06
-6.47546e-06
-2.05549e-06
-6.43212e-06
-2.06968e-06
-6.21027e-06
-2.00121e-06
-5.87087e-06
-1.86971e-06
-5.46081e-06
-1.69383e-06
-5.01461e-06
-1.48985e-06
-4.55669e-06
-1.2712e-06
-4.10359e-06
-1.04849e-06
-3.66593e-06
-8.29811e-07
-3.25001e-06
-6.21158e-07
-2.85899e-06
-4.26828e-07
-2.49386e-06
-2.49811e-07
-2.15407e-06
-9.21263e-08
-1.83801e-06
4.49106e-08
-1.54336e-06
1.60462e-07
-1.26733e-06
2.53993e-07
-1.00682e-06
3.25141e-07
-7.5849e-07
3.73613e-07
-5.18867e-07
3.99115e-07
-2.84367e-07
4.0131e-07
-5.13204e-08
3.79793e-07
1.84021e-07
3.341e-07
4.25475e-07
2.63734e-07
6.76925e-07
1.68224e-07
9.42307e-07
4.72234e-08
1.22558e-06
-9.93531e-08
1.53067e-06
-2.71135e-07
1.86136e-06
-4.67034e-07
2.22117e-06
-6.84902e-07
2.61305e-06
-9.21095e-07
3.03903e-06
-1.16995e-06
3.49962e-06
-1.42315e-06
3.99299e-06
-1.66913e-06
4.51378e-06
-1.89245e-06
5.05153e-06
-2.07358e-06
5.58856e-06
-2.18925e-06
6.09737e-06
-2.21401e-06
6.53778e-06
-2.12371e-06
6.85403e-06
-1.90162e-06
6.97298e-06
-1.5477e-06
6.80473e-06
-1.09039e-06
6.24801e-06
-5.98253e-07
5.20206e-06
-1.85508e-07
3.58691e-06
1.37549e-06
-1.35935e-07
-1.11355e-06
-4.56708e-07
-2.93965e-06
-8.67534e-07
-4.32794e-06
-1.28886e-06
-5.29435e-06
-1.66579e-06
-5.88831e-06
-1.96743e-06
-6.17382e-06
-2.18198e-06
-6.21757e-06
-2.31082e-06
-6.08143e-06
-2.36316e-06
-5.81852e-06
-2.35199e-06
-5.47198e-06
-2.29129e-06
-5.07531e-06
-2.1944e-06
-4.65358e-06
-2.07315e-06
-4.22484e-06
-1.93754e-06
-3.80155e-06
-1.79568e-06
-3.39187e-06
-1.65398e-06
-3.00069e-06
-1.51741e-06
-2.63043e-06
-1.38971e-06
-2.28178e-06
-1.27364e-06
-1.95407e-06
-1.17124e-06
-1.64575e-06
-1.08401e-06
-1.35457e-06
-1.013e-06
-1.07782e-06
-9.59043e-07
-8.12451e-07
-9.22745e-07
-5.55164e-07
-9.04617e-07
-3.02496e-07
-9.05086e-07
-5.08513e-08
-9.24521e-07
2.03456e-07
-9.63222e-07
4.64175e-07
-1.02138e-06
7.35084e-07
-1.09902e-06
1.01994e-06
-1.19587e-06
1.32244e-06
-1.31128e-06
1.64607e-06
-1.44394e-06
1.99403e-06
-1.59174e-06
2.36896e-06
-1.75136e-06
2.77267e-06
-1.91799e-06
3.20567e-06
-2.08492e-06
3.66655e-06
-2.24311e-06
4.15117e-06
-2.38087e-06
4.65154e-06
-2.48374e-06
5.15441e-06
-2.53476e-06
5.63958e-06
-2.51541e-06
6.07803e-06
-2.40769e-06
6.43006e-06
-2.19761e-06
6.64395e-06
-1.8805e-06
6.65587e-06
-1.46794e-06
6.39217e-06
-9.95208e-07
5.77528e-06
-5.27089e-07
4.73394e-06
-1.57938e-07
3.21776e-06
1.21755e-06
-1.17605e-07
-9.95944e-07
-4.05234e-07
-2.65202e-06
-7.90181e-07
-3.943e-06
-1.20773e-06
-4.8768e-06
-1.60902e-06
-5.48702e-06
-1.96233e-06
-5.8205e-06
-2.251e-06
-5.92891e-06
-2.46982e-06
-5.86261e-06
-2.62141e-06
-5.66693e-06
-2.71302e-06
-5.38036e-06
-2.75416e-06
-5.03417e-06
-2.75493e-06
-4.65281e-06
-2.72502e-06
-4.25475e-06
-2.67316e-06
-3.85341e-06
-2.60686e-06
-3.45817e-06
-2.53242e-06
-3.07513e-06
-2.45494e-06
-2.70791e-06
-2.37851e-06
-2.35821e-06
-2.30634e-06
-2.02625e-06
-2.24092e-06
-1.71117e-06
-2.18418e-06
-1.41131e-06
-2.1376e-06
-1.12441e-06
-2.1023e-06
-8.4775e-07
-2.07915e-06
-5.78316e-07
-2.06879e-06
-3.12848e-07
-2.07172e-06
-4.79292e-08
-2.08822e-06
2.19961e-07
-2.11843e-06
4.94388e-07
-2.16226e-06
7.7891e-07
-2.21932e-06
1.077e-06
-2.28883e-06
1.39195e-06
-2.3695e-06
1.72674e-06
-2.45934e-06
2.08387e-06
-2.55547e-06
2.46509e-06
-2.65384e-06
2.87105e-06
-2.74903e-06
3.30086e-06
-2.83395e-06
3.75147e-06
-2.89967e-06
4.2169e-06
-2.93535e-06
4.68722e-06
-2.92844e-06
5.1475e-06
-2.8653e-06
5.57643e-06
-2.73245e-06
5.94518e-06
-2.51872e-06
6.21633e-06
-2.21839e-06
6.34362e-06
-1.83539e-06
6.27287e-06
-1.38813e-06
5.94491e-06
-9.13912e-07
5.30106e-06
-4.71234e-07
4.29127e-06
-1.37627e-07
2.88415e-06
1.07993e-06
-1.04303e-07
-8.91641e-07
-3.66368e-07
-2.38995e-06
-7.28962e-07
-3.5804e-06
-1.13897e-06
-4.46679e-06
-1.55357e-06
-5.07242e-06
-1.9421e-06
-5.43197e-06
-2.28552e-06
-5.5855e-06
-2.57439e-06
-5.57374e-06
-2.80648e-06
-5.43484e-06
-2.98442e-06
-5.20243e-06
-3.11372e-06
-4.90487e-06
-3.20134e-06
-4.56519e-06
-3.25465e-06
-4.20143e-06
-3.28079e-06
-3.82727e-06
-3.28628e-06
-3.45268e-06
-3.27685e-06
-3.08456e-06
-3.25739e-06
-2.72737e-06
-3.232e-06
-2.3836e-06
-3.20404e-06
-2.05421e-06
-3.17622e-06
-1.73899e-06
-3.15071e-06
-1.43682e-06
-3.12923e-06
-1.14589e-06
-3.11312e-06
-8.63867e-07
-3.10337e-06
-5.8806e-07
-3.10074e-06
-3.15486e-07
-3.10568e-06
-4.29825e-08
-3.11844e-06
2.32718e-07
-3.13897e-06
5.14916e-07
-3.16691e-06
8.06858e-07
-3.20156e-06
1.11165e-06
-3.24173e-06
1.43211e-06
-3.28565e-06
1.77067e-06
-3.33088e-06
2.12909e-06
-3.37405e-06
2.50827e-06
-3.41081e-06
2.9078e-06
-3.43557e-06
3.32562e-06
-3.44147e-06
3.75737e-06
-3.4203e-06
4.19572e-06
-3.36267e-06
4.6296e-06
-3.25845e-06
5.04328e-06
-3.09755e-06
5.41553e-06
-2.87124e-06
5.71887e-06
-2.57416e-06
5.91926e-06
-2.20693e-06
5.97638e-06
-1.77923e-06
5.84518e-06
-1.31305e-06
5.47873e-06
-8.44994e-07
4.83301e-06
-4.26733e-07
3.873e-06
-1.22179e-07
2.5796e-06
9.57748e-07
-9.44825e-08
-7.97158e-07
-3.36831e-07
-2.1476e-06
-6.80788e-07
-3.23644e-06
-1.08217e-06
-4.06541e-06
-1.50351e-06
-4.65107e-06
-1.91609e-06
-5.0194e-06
-2.29999e-06
-5.20159e-06
-2.64322e-06
-5.23051e-06
-2.94011e-06
-5.13794e-06
-3.18969e-06
-4.95285e-06
-3.39415e-06
-4.70042e-06
-3.55759e-06
-4.40175e-06
-3.68513e-06
-4.0739e-06
-3.78218e-06
-3.73022e-06
-3.85405e-06
-3.38081e-06
-3.90567e-06
-3.03294e-06
-3.94144e-06
-2.6916e-06
-3.9652e-06
-2.35984e-06
-3.98022e-06
-2.03919e-06
-3.98924e-06
-1.72997e-06
-3.99451e-06
-1.43155e-06
-3.99783e-06
-1.14257e-06
-4.00062e-06
-8.6107e-07
-4.00397e-06
-5.8471e-07
-4.00863e-06
-3.10832e-07
-4.01503e-06
-3.65819e-08
-4.02331e-06
2.41e-07
-4.03328e-06
5.24882e-07
-4.04437e-06
8.1795e-07
-4.05561e-06
1.12288e-06
-4.06552e-06
1.44203e-06
-4.07206e-06
1.77721e-06
-4.0725e-06
2.12953e-06
-4.06333e-06
2.49909e-06
-4.04016e-06
2.88464e-06
-3.99768e-06
3.28314e-06
-3.92964e-06
3.68933e-06
-3.82897e-06
4.09506e-06
-3.6881e-06
4.48873e-06
-3.49947e-06
4.85465e-06
-3.2564e-06
5.17246e-06
-2.95437e-06
5.41684e-06
-2.5927e-06
5.55758e-06
-2.1766e-06
5.56029e-06
-1.71942e-06
5.38799e-06
-1.24456e-06
5.00387e-06
-7.86599e-07
4.37505e-06
-3.90754e-07
3.47716e-06
-1.10118e-07
2.29896e-06
8.4763e-07
-8.71383e-08
-7.1002e-07
-3.14261e-07
-1.92048e-06
-6.43001e-07
-2.9077e-06
-1.03598e-06
-3.67244e-06
-1.46031e-06
-4.22674e-06
-1.88938e-06
-4.59033e-06
-2.30334e-06
-4.78763e-06
-2.68874e-06
-4.84512e-06
-3.03756e-06
-4.78912e-06
-3.34613e-06
-4.64428e-06
-3.61393e-06
-4.43262e-06
-3.84263e-06
-4.17304e-06
-4.03525e-06
-3.88128e-06
-4.19554e-06
-3.56994e-06
-4.3275e-06
-3.24885e-06
-4.43511e-06
-2.92533e-06
-4.52213e-06
-2.60458e-06
-4.59196e-06
-2.29e-06
-4.64761e-06
-1.98354e-06
-4.69168e-06
-1.68591e-06
-4.72633e-06
-1.3969e-06
-4.75337e-06
-1.11553e-06
-4.7742e-06
-8.40237e-07
-4.78989e-06
-5.69021e-07
-4.80115e-06
-2.99569e-07
-4.80837e-06
-2.93634e-08
-4.81158e-06
2.44207e-07
-4.81045e-06
5.23751e-07
-4.80426e-06
8.11758e-07
-4.79185e-06
1.11048e-06
-4.77158e-06
1.42176e-06
-4.74126e-06
1.74689e-06
-4.6981e-06
2.08637e-06
-4.63864e-06
2.43964e-06
-4.55878e-06
2.80477e-06
-4.45372e-06
3.17808e-06
-4.31812e-06
3.55373e-06
-4.14631e-06
3.92325e-06
-3.93263e-06
4.27505e-06
-3.67204e-06
4.59405e-06
-3.36095e-06
4.86137e-06
-2.99836e-06
5.05425e-06
-2.58723e-06
5.14645e-06
-2.136e-06
5.10905e-06
-1.66011e-06
4.9121e-06
-1.18312e-06
4.52688e-06
-7.3702e-07
3.92895e-06
-3.61298e-07
3.10144e-06
-1.00504e-07
2.03816e-06
7.47126e-07
-8.15953e-08
-6.28424e-07
-2.96946e-07
-1.70513e-06
-6.13428e-07
-2.59122e-06
-9.98846e-07
-3.28702e-06
-1.42408e-06
-3.80151e-06
-1.86457e-06
-4.14984e-06
-2.30098e-06
-4.35122e-06
-2.71913e-06
-4.42697e-06
-3.10946e-06
-4.39879e-06
-3.4663e-06
-4.28744e-06
-3.78702e-06
-4.1119e-06
-4.07123e-06
-3.88883e-06
-4.32012e-06
-3.63238e-06
-4.53588e-06
-3.35418e-06
-4.72125e-06
-3.06348e-06
-4.87922e-06
-2.76736e-06
-5.0128e-06
-2.471e-06
-5.12484e-06
-2.17796e-06
-5.21797e-06
-1.8904e-06
-5.29454e-06
-1.60935e-06
-5.35654e-06
-1.3349e-06
-5.40564e-06
-1.06642e-06
-5.44319e-06
-8.02694e-07
-5.47015e-06
-5.42052e-07
-5.48719e-06
-2.8253e-07
-5.4946e-06
-2.19597e-08
-5.4923e-06
2.41914e-07
-5.47987e-06
5.11324e-07
-5.45648e-06
7.88363e-07
-5.42086e-06
1.07485e-06
-5.3713e-06
1.3722e-06
-5.3056e-06
1.68119e-06
-5.22107e-06
2.00184e-06
-5.1145e-06
2.33308e-06
-4.98223e-06
2.6725e-06
-4.8202e-06
3.01605e-06
-4.62413e-06
3.35767e-06
-4.38982e-06
3.68893e-06
-4.11349e-06
3.99872e-06
-3.79245e-06
4.27301e-06
-3.42577e-06
4.49469e-06
-3.01532e-06
4.6438e-06
-2.56675e-06
4.69789e-06
-2.0907e-06
4.633e-06
-1.60367e-06
4.42507e-06
-1.12862e-06
4.05183e-06
-6.94847e-07
3.49518e-06
-3.36948e-07
2.74354e-06
-9.27231e-08
1.79394e-06
6.54403e-07
-7.73863e-08
-5.51038e-07
-2.83632e-07
-1.49888e-06
-5.9034e-07
-2.28451e-06
-9.69264e-07
-2.90809e-06
-1.39431e-06
-3.37646e-06
-1.84281e-06
-3.70134e-06
-2.29611e-06
-3.89792e-06
-2.73975e-06
-3.98333e-06
-3.16319e-06
-3.97535e-06
-3.55932e-06
-3.89131e-06
-3.92388e-06
-3.74735e-06
-4.25481e-06
-3.5579e-06
-4.55175e-06
-3.33545e-06
-4.81547e-06
-3.09046e-06
-5.04755e-06
-2.8314e-06
-5.25e-06
-2.56491e-06
-5.42505e-06
-2.29595e-06
-5.57498e-06
-2.02803e-06
-5.70196e-06
-1.76342e-06
-5.80799e-06
-1.50332e-06
-5.89483e-06
-1.24806e-06
-5.96398e-06
-9.97278e-07
-6.01662e-06
-7.50056e-07
-6.05362e-06
-5.0505e-07
-6.07553e-06
-2.60621e-07
-6.08255e-06
-1.49427e-08
-6.07452e-06
2.33885e-07
-6.05092e-06
4.87729e-07
-6.01086e-06
7.48301e-07
-5.95304e-06
1.01703e-06
-5.87576e-06
1.29492e-06
-5.77693e-06
1.58236e-06
-5.65406e-06
1.87897e-06
-5.50433e-06
2.18334e-06
-5.32463e-06
2.4928e-06
-5.11175e-06
2.80317e-06
-4.86253e-06
3.10845e-06
-4.57421e-06
3.4006e-06
-4.24479e-06
3.66931e-06
-3.87363e-06
3.90184e-06
-3.46205e-06
4.08312e-06
-3.01416e-06
4.1959e-06
-2.5376e-06
4.22133e-06
-2.04439e-06
4.13979e-06
-1.55142e-06
3.9321e-06
-1.0807e-06
3.58111e-06
-6.5897e-07
3.07345e-06
-3.16699e-07
2.40127e-06
-8.63611e-08
1.5636e-06
5.68042e-07
-7.41804e-08
-4.76858e-07
-2.73393e-07
-1.29967e-06
-5.72375e-07
-1.98553e-06
-9.4589e-07
-2.53458e-06
-1.37027e-06
-2.95208e-06
-1.82444e-06
-3.24718e-06
-2.29051e-06
-3.43185e-06
-2.75401e-06
-3.51983e-06
-3.2038e-06
-3.52556e-06
-3.63174e-06
-3.46336e-06
-4.03233e-06
-3.34676e-06
-4.40218e-06
-3.18805e-06
-4.73961e-06
-2.99802e-06
-5.04422e-06
-2.78585e-06
-5.3165e-06
-2.55912e-06
-5.55756e-06
-2.32384e-06
-5.7689e-06
-2.08461e-06
-5.95217e-06
-1.84476e-06
-6.10908e-06
-1.60651e-06
-6.24125e-06
-1.37114e-06
-6.35017e-06
-1.13914e-06
-6.4371e-06
-9.10351e-07
-6.50305e-06
-6.84106e-07
-6.54875e-06
-4.59346e-07
-6.57463e-06
-2.34739e-07
-6.5808e-06
-8.78029e-09
-6.56701e-06
2.20093e-07
-6.53268e-06
4.53404e-07
-6.47689e-06
6.92515e-07
-6.39837e-06
9.38508e-07
-6.2955e-06
1.19205e-06
-6.16635e-06
1.45322e-06
-6.00874e-06
1.72136e-06
-5.82029e-06
1.99489e-06
-5.59855e-06
2.27106e-06
-5.34114e-06
2.54576e-06
-5.04602e-06
2.81333e-06
-4.71178e-06
3.06636e-06
-4.33801e-06
3.29554e-06
-3.92582e-06
3.48966e-06
-3.47838e-06
3.63568e-06
-3.00151e-06
3.71903e-06
-2.50429e-06
3.72411e-06
-1.99954e-06
3.63504e-06
-1.50414e-06
3.4367e-06
-1.03899e-06
3.11596e-06
-6.28535e-07
2.663e-06
-2.99833e-07
2.07257e-06
-8.1134e-08
1.3449e-06
4.86908e-07
-7.17394e-08
-4.05118e-07
-2.65539e-07
-1.10587e-06
-5.5847e-07
-1.6926e-06
-9.27589e-07
-2.16546e-06
-1.35114e-06
-2.52853e-06
-1.80938e-06
-2.78893e-06
-2.28515e-06
-2.95608e-06
-2.76411e-06
-3.04086e-06
-3.23476e-06
-3.05491e-06
-3.68826e-06
-3.00986e-06
-4.11816e-06
-2.91686e-06
-4.52004e-06
-2.78617e-06
-4.89116e-06
-2.62691e-06
-5.23007e-06
-2.44694e-06
-5.53637e-06
-2.25282e-06
-5.81036e-06
-2.04986e-06
-6.05282e-06
-1.84215e-06
-6.26484e-06
-1.63273e-06
-6.44766e-06
-1.42369e-06
-6.60253e-06
-1.21627e-06
-6.73062e-06
-1.01105e-06
-6.83296e-06
-8.08011e-07
-6.91037e-06
-6.06693e-07
-6.96344e-06
-4.06284e-07
-6.99245e-06
-2.05725e-07
-6.99742e-06
-3.80819e-09
-6.97805e-06
2.00719e-07
-6.93371e-06
4.09068e-07
-6.86349e-06
6.22291e-07
-6.76616e-06
8.41177e-07
-6.64024e-06
1.06612e-06
-6.48402e-06
1.297e-06
-6.29566e-06
1.533e-06
-6.07326e-06
1.77249e-06
-5.815e-06
2.0128e-06
-5.51936e-06
2.25012e-06
-5.18532e-06
2.47929e-06
-4.81268e-06
2.69372e-06
-4.40242e-06
2.88528e-06
-3.95711e-06
3.04435e-06
-3.48137e-06
3.15994e-06
-2.98234e-06
3.22e-06
-2.47007e-06
3.21184e-06
-1.95784e-06
3.12281e-06
-1.46226e-06
2.94113e-06
-1.00313e-06
2.65683e-06
-6.029e-07
2.26277e-06
-2.85834e-07
1.7555e-06
-7.68433e-08
1.13591e-06
4.10065e-07
-6.98898e-08
-3.35229e-07
-2.59553e-07
-9.16209e-07
-5.478e-07
-1.40435e-06
-9.13426e-07
-1.79984e-06
-1.33616e-06
-2.1058e-06
-1.79735e-06
-2.32774e-06
-2.28049e-06
-2.47294e-06
-2.77142e-06
-2.54994e-06
-3.25845e-06
-2.56788e-06
-3.73225e-06
-2.53606e-06
-4.18569e-06
-2.46342e-06
-4.61353e-06
-2.35833e-06
-5.01218e-06
-2.22826e-06
-5.37936e-06
-2.07975e-06
-5.71389e-06
-1.9183e-06
-6.01535e-06
-1.7484e-06
-6.28392e-06
-1.57358e-06
-6.52018e-06
-1.39648e-06
-6.7249e-06
-1.21897e-06
-6.89899e-06
-1.04219e-06
-7.04332e-06
-8.66718e-07
-7.15869e-06
-6.92644e-07
-7.24572e-06
-5.1966e-07
-7.30484e-06
-3.47159e-07
-7.33624e-06
-1.74326e-07
-7.33984e-06
-2.15428e-10
-7.31526e-06
1.76142e-07
-7.26188e-06
3.55688e-07
-7.1788e-06
5.39207e-07
-7.06487e-06
7.2725e-07
-6.91876e-06
9.2002e-07
-6.73902e-06
1.11726e-06
-6.52414e-06
1.31812e-06
-6.27268e-06
1.52103e-06
-5.98347e-06
1.72358e-06
-5.65573e-06
1.92238e-06
-5.28937e-06
2.11294e-06
-4.88525e-06
2.2896e-06
-4.44549e-06
2.44552e-06
-3.97387e-06
2.57272e-06
-3.47614e-06
2.66221e-06
-2.96039e-06
2.70425e-06
-2.43734e-06
2.68879e-06
-1.92048e-06
2.60595e-06
-1.42605e-06
2.4467e-06
-9.72833e-07
2.20361e-06
-5.81587e-07
1.87152e-06
-2.74331e-07
1.44824e-06
-7.33492e-08
9.3493e-07
3.36716e-07
-6.85045e-08
-2.66724e-07
-2.5505e-07
-7.29663e-07
-5.39734e-07
-1.11967e-06
-9.02651e-07
-1.43692e-06
-1.32467e-06
-1.68378e-06
-1.78801e-06
-1.8644e-06
-2.27669e-06
-1.98426e-06
-2.77677e-06
-2.04986e-06
-3.27646e-06
-2.06819e-06
-3.76611e-06
-2.0464e-06
-4.23808e-06
-1.99146e-06
-4.68651e-06
-1.90989e-06
-5.10715e-06
-1.80762e-06
-5.49706e-06
-1.68984e-06
-5.8544e-06
-1.56095e-06
-6.17819e-06
-1.42461e-06
-6.46807e-06
-1.28369e-06
-6.72416e-06
-1.14039e-06
-6.94686e-06
-9.96263e-07
-7.13675e-06
-8.52303e-07
-7.29443e-06
-7.09039e-07
-7.42047e-06
-5.666e-07
-7.51533e-06
-4.24796e-07
-7.5793e-06
-2.8319e-07
-7.61245e-06
-1.41177e-07
-7.61462e-06
1.95216e-09
-7.58541e-06
1.46929e-07
-7.52417e-06
2.94448e-07
-7.43004e-06
4.45076e-07
-7.30197e-06
5.9918e-07
-7.13878e-06
7.56835e-07
-6.93925e-06
9.1773e-07
-6.70221e-06
1.08107e-06
-6.42666e-06
1.24548e-06
-6.11196e-06
1.40889e-06
-5.75802e-06
1.56844e-06
-5.36553e-06
1.72045e-06
-4.93623e-06
1.8603e-06
-4.47319e-06
1.98248e-06
-3.9811e-06
2.08063e-06
-3.46659e-06
2.1477e-06
-2.93846e-06
2.17612e-06
-2.40785e-06
2.15818e-06
-1.88831e-06
2.0864e-06
-1.39569e-06
1.95408e-06
-9.47871e-07
1.75579e-06
-5.64248e-07
1.4879e-06
-2.65058e-07
1.14905e-06
-7.05527e-08
7.40425e-07
2.66163e-07
-6.74909e-08
-1.99233e-07
-2.51745e-07
-5.45409e-07
-5.33791e-07
-8.37624e-07
-8.94678e-07
-1.07603e-06
-1.31612e-06
-1.26234e-06
-1.781e-06
-1.39951e-06
-2.27377e-06
-1.4915e-06
-2.78067e-06
-1.54296e-06
-3.28988e-06
-1.55897e-06
-3.79154e-06
-1.54474e-06
-4.27763e-06
-1.50537e-06
-4.74187e-06
-1.44566e-06
-5.17947e-06
-1.37002e-06
-5.58701e-06
-1.2823e-06
-5.96213e-06
-1.18583e-06
-6.30337e-06
-1.08336e-06
-6.60998e-06
-9.77093e-07
-6.88167e-06
-8.68698e-07
-7.11855e-06
-7.59388e-07
-7.32089e-06
-6.49956e-07
-7.4891e-06
-5.40835e-07
-7.62354e-06
-4.32156e-07
-7.72453e-06
-3.23809e-07
-7.79222e-06
-2.15499e-07
-7.8266e-06
-1.06798e-07
-7.82744e-06
2.79529e-09
-7.79431e-06
1.13802e-07
-7.72657e-06
2.26707e-07
-7.62339e-06
3.41899e-07
-7.48382e-06
4.59606e-07
-7.30682e-06
5.79832e-07
-7.09137e-06
7.02283e-07
-6.83659e-06
8.26295e-07
-6.54187e-06
9.50758e-07
-6.20703e-06
1.07404e-06
-5.83253e-06
1.19395e-06
-5.4197e-06
1.30762e-06
-4.97098e-06
1.41157e-06
-4.49016e-06
1.50166e-06
-3.98265e-06
1.57313e-06
-3.45573e-06
1.62078e-06
-2.91867e-06
1.63907e-06
-2.3829e-06
1.6224e-06
-1.86194e-06
1.56544e-06
-1.37128e-06
1.46343e-06
-9.28072e-07
1.31258e-06
-5.50627e-07
1.11045e-06
-2.57826e-07
8.56253e-07
-6.83839e-08
5.50983e-07
1.97779e-07
-6.67828e-08
-1.32451e-07
-2.49431e-07
-3.62761e-07
-5.29619e-07
-5.57436e-07
-8.89063e-07
-7.16589e-07
-1.31008e-06
-8.41329e-07
-1.77603e-06
-9.33565e-07
-2.27167e-06
-9.95853e-07
-2.78341e-06
-1.03122e-06
-3.29944e-06
-1.04295e-06
-3.80972e-06
-1.03446e-06
-4.30601e-06
-1.00907e-06
-4.78171e-06
-9.69971e-07
-5.23167e-06
-9.20049e-07
-5.6521e-06
-8.61877e-07
-6.04026e-06
-7.9767e-07
-6.39435e-06
-7.29269e-07
-6.71329e-06
-6.58154e-07
-6.99653e-06
-5.85463e-07
-7.24389e-06
-5.12022e-07
-7.45547e-06
-4.38377e-07
-7.63147e-06
-3.64837e-07
-7.77212e-06
-2.91506e-07
-7.8776e-06
-2.18326e-07
-7.94799e-06
-1.45116e-07
-7.98318e-06
-7.16034e-08
-7.98292e-06
2.53073e-09
-7.94673e-06
7.76191e-08
-7.874e-06
1.53968e-07
-7.76392e-06
2.31818e-07
-7.61561e-06
3.11299e-07
-7.42816e-06
3.92387e-07
-7.20074e-06
4.74857e-07
-6.93267e-06
5.58233e-07
-6.62366e-06
6.4174e-07
-6.27387e-06
7.24256e-07
-5.8842e-06
8.04276e-07
-5.45645e-06
8.79877e-07
-4.99359e-06
9.48709e-07
-4.49994e-06
1.008e-06
-3.98143e-06
1.05462e-06
-3.44577e-06
1.08512e-06
-2.90258e-06
1.09588e-06
-2.36344e-06
1.08326e-06
-1.84182e-06
1.04382e-06
-1.35291e-06
9.74522e-07
-9.13315e-07
8.72977e-07
-5.40548e-07
7.37685e-07
-2.52503e-07
5.68208e-07
-6.67942e-08
3.65275e-07
1.30985e-07
-6.63343e-08
-6.61165e-08
-2.47963e-07
-1.81133e-07
-5.26969e-07
-2.7843e-07
-8.85489e-07
-3.58068e-07
-1.30622e-06
-4.20594e-07
-1.77284e-06
-4.66944e-07
-2.27032e-06
-4.98373e-07
-2.78517e-06
-5.16366e-07
-3.30558e-06
-5.22547e-07
-3.82144e-06
-5.18595e-07
-4.32435e-06
-5.06163e-07
-4.8075e-06
-4.86822e-07
-5.26553e-06
-4.62014e-07
-5.69439e-06
-4.33022e-07
-6.09111e-06
-4.00952e-07
-6.45365e-06
-3.66728e-07
-6.78071e-06
-3.31092e-07
-7.07155e-06
-2.94621e-07
-7.32584e-06
-2.57731e-07
-7.54352e-06
-2.20703e-07
-7.72466e-06
-1.83696e-07
-7.8694e-06
-1.46768e-07
-7.97783e-06
-1.09894e-07
-8.04996e-06
-7.2987e-08
-8.08564e-06
-3.59172e-08
-8.08458e-06
1.47172e-09
-8.04631e-06
3.93413e-08
-7.97018e-06
7.78397e-08
-7.85544e-06
1.17081e-07
-7.70126e-06
1.57123e-07
-7.50682e-06
1.97947e-07
-7.2714e-06
2.3943e-07
-6.99449e-06
2.81325e-07
-6.67598e-06
3.23234e-07
-6.31631e-06
3.64585e-07
-5.91665e-06