/*--------------------------------*- C++ -*----------------------------------*\
  =========                 |
  \\      /  F ield         | OpenFOAM: The Open Source CFD Toolbox
   \\    /   O peration     | Website:  https://openfoam.org
    \\  /    A nd           | Version:  7
     \\/     M anipulation  |
\*---------------------------------------------------------------------------*/
FoamFile
{
    version     2.0;
    format      ascii;
    class       surfaceScalarField;
    location    "0.0762";
    object      phi;
}
// * * * * * * * * * * * * * * * * * * * * * * * * * * * * * * * * * * * * * //

dimensions      [0 3 -1 0 0 0 0];

internalField   nonuniform List<scalar> 
4900
(
1.14867e-09
-1.15197e-09
2.33486e-09
-1.18619e-09
2.40812e-09
-7.32661e-11
9.59292e-10
1.44884e-09
-2.09112e-09
3.05041e-09
-6.65913e-09
4.568e-09
-1.25796e-08
5.92044e-09
-1.96508e-08
7.07121e-09
-2.76578e-08
8.00702e-09
-3.6384e-08
8.72623e-09
-4.56176e-08
9.23357e-09
-5.5155e-08
9.53745e-09
-6.48035e-08
9.64849e-09
-7.43821e-08
9.5786e-09
-8.37226e-08
9.34049e-09
-9.26699e-08
8.94729e-09
-1.01082e-07
8.41239e-09
-1.08832e-07
7.7493e-09
-1.15803e-07
6.9716e-09
-1.21896e-07
6.09294e-09
-1.27023e-07
5.1271e-09
-1.31111e-07
4.08798e-09
-1.34101e-07
2.98972e-09
-1.35948e-07
1.84678e-09
-1.36622e-07
6.73932e-10
-1.36108e-07
-5.13586e-10
-1.34408e-07
-1.70009e-09
-1.31539e-07
-2.86942e-09
-1.27534e-07
-4.00494e-09
-1.22444e-07
-5.08958e-09
-1.16338e-07
-6.10594e-09
-1.09302e-07
-7.03639e-09
-1.01439e-07
-7.86324e-09
-9.28696e-08
-8.56893e-09
-8.37334e-08
-9.13626e-09
-7.41847e-08
-9.5487e-09
-6.4394e-08
-9.79064e-09
-5.45463e-08
-9.84779e-09
-4.48387e-08
-9.70755e-09
-3.54792e-08
-9.35948e-09
-2.66833e-08
-8.7959e-09
-1.86705e-08
-8.01278e-09
-1.16594e-08
-7.01113e-09
-5.85991e-09
-5.7995e-09
-1.46076e-09
-4.39915e-09
1.39491e-09
-2.85569e-09
2.65242e-09
-1.2575e-09
2.41373e-09
2.38751e-10
1.14639e-09
1.26746e-09
1.14653e-09
1.19742e-09
-2.3494e-09
1.34955e-09
-1.33833e-09
-1.21084e-09
2.48711e-09
-7.26769e-09
7.50568e-09
-1.70608e-08
1.28435e-08
-3.04815e-08
1.79887e-08
-4.72135e-08
2.26525e-08
-6.68217e-08
2.66793e-08
-8.8807e-08
2.99924e-08
-1.12642e-07
3.25615e-08
-1.37795e-07
3.43858e-08
-1.63739e-07
3.54823e-08
-1.89971e-07
3.58802e-08
-2.16009e-07
3.56163e-08
-2.41401e-07
3.47323e-08
-2.65727e-07
3.32736e-08
-2.88602e-07
3.12875e-08
-3.09676e-07
2.88227e-08
-3.28633e-07
2.59292e-08
-3.45198e-07
2.26578e-08
-3.59131e-07
1.906e-08
-3.70231e-07
1.51881e-08
-3.78337e-07
1.10958e-08
-3.83328e-07
6.83766e-09
-3.85124e-07
2.46965e-09
-3.83687e-07
-1.95068e-09
-3.79023e-07
-6.36425e-09
-3.71182e-07
-1.07103e-08
-3.6026e-07
-1.49268e-08
-3.46399e-07
-1.895e-08
-3.2979e-07
-2.27157e-08
-3.10667e-07
-2.61588e-08
-2.89316e-07
-2.92147e-08
-2.66065e-07
-3.18197e-08
-2.41289e-07
-3.39117e-08
-2.15406e-07
-3.54321e-08
-1.8887e-07
-3.63263e-08
-1.62173e-07
-3.65454e-08
-1.35832e-07
-3.60483e-08
-1.10388e-07
-3.48035e-08
-8.63919e-08
-3.27919e-08
-6.43936e-08
-3.00111e-08
-4.49235e-08
-2.64812e-08
-2.84681e-08
-2.22549e-08
-1.54336e-08
-1.74336e-08
-6.09141e-09
-1.21978e-08
-4.91532e-10
-6.85746e-09
1.68936e-09
-1.94233e-09
1.27868e-09
1.67791e-09
2.42528e-09
1.32197e-10
-2.48161e-09
-2.38071e-09
1.17459e-09
-9.14183e-09
9.24824e-09
-2.09598e-08
1.93237e-08
-3.80852e-08
2.99689e-08
-6.0373e-08
4.02765e-08
-8.74059e-08
4.96853e-08
-1.18591e-07
5.78645e-08
-1.5323e-07
6.46313e-08
-1.90567e-07
6.98989e-08
-2.29825e-07
7.36436e-08
-2.70227e-07
7.58844e-08
-3.11016e-07
7.6669e-08
-3.51465e-07
7.60649e-08
-3.90886e-07
7.41531e-08
-4.28636e-07
7.1024e-08
-4.64123e-07
6.67744e-08
-4.96806e-07
6.15057e-08
-5.262e-07
5.53228e-08
-5.51875e-07
4.83332e-08
-5.73462e-07
4.06469e-08
-5.9065e-07
3.23762e-08
-6.0319e-07
2.36359e-08
-6.10896e-07
1.45433e-08
-6.13645e-07
5.21896e-09
-6.11382e-07
-4.21374e-09
-6.04118e-07
-1.36281e-08
-5.91934e-07
-2.28943e-08
-5.74982e-07
-3.18796e-08
-5.53482e-07
-4.04491e-08
-5.27732e-07
-4.84663e-08
-4.98097e-07
-5.57941e-08
-4.65015e-07
-6.22966e-08
-4.28994e-07
-6.78404e-08
-3.90608e-07
-7.22973e-08
-3.50494e-07
-7.55461e-08
-3.09345e-07
-7.74759e-08
-2.67901e-07
-7.79896e-08
-2.26941e-07
-7.70075e-08
-1.87272e-07
-7.44729e-08
-1.49706e-07
-7.0358e-08
-1.15044e-07
-6.4673e-08
-8.40466e-08
-5.74786e-08
-5.73962e-08
-4.89053e-08
-3.56469e-08
-3.91829e-08
-1.91558e-08
-2.86888e-08
-7.98833e-09
-1.80248e-08
-1.80516e-09
-8.12543e-09
3.00644e-10
-4.28026e-10
2.72594e-09
-1.34855e-09
-1.13306e-09
-7.32659e-09
7.15263e-09
-1.91544e-08
2.1076e-08
-3.74434e-08
3.76126e-08
-6.23295e-08
5.4855e-08
-9.35689e-08
7.15159e-08
-1.30634e-07
8.67507e-08
-1.728e-07
1.0003e-07
-2.19209e-07
1.11041e-07
-2.68929e-07
1.19619e-07
-3.20989e-07
1.25703e-07
-3.74411e-07
1.29307e-07
-4.28236e-07
1.30494e-07
-4.81535e-07
1.29363e-07
-5.33424e-07
1.26042e-07
-5.83075e-07
1.20675e-07
-6.2972e-07
1.1342e-07
-6.72658e-07
1.04444e-07
-7.11259e-07
9.39229e-08
-7.44962e-07
8.2037e-08
-7.73287e-07
6.89721e-08
-7.9583e-07
5.49185e-08
-8.12265e-07
4.00713e-08
-8.22352e-07
2.46301e-08
-8.25933e-07
8.79967e-09
-8.22936e-07
-7.21009e-09
-8.1338e-07
-2.31841e-08
-7.97372e-07
-3.89025e-08
-7.75111e-07
-5.41409e-08
-7.46888e-07
-6.86714e-08
-7.1309e-07
-8.22645e-08
-6.74194e-07
-9.46903e-08
-6.30769e-07
-1.05722e-07
-5.83472e-07
-1.15137e-07
-5.33047e-07
-1.22723e-07
-4.80311e-07
-1.28282e-07
-4.26155e-07
-1.31632e-07
-3.71526e-07
-1.32619e-07
-3.17415e-07
-1.31118e-07
-2.64842e-07
-1.27046e-07
-2.14829e-07
-1.20371e-07
-1.68375e-07
-1.11127e-07
-1.26422e-07
-9.94313e-08
-8.981e-08
-8.55178e-08
-5.92205e-08
-6.97725e-08
-3.51121e-08
-5.27972e-08
-1.76366e-08
-3.55003e-08
-6.54841e-09
-1.92135e-08
-1.12107e-09
-5.8554e-09
1.60487e-09
-2.93328e-09
1.80022e-09
-1.27227e-08
1.69421e-08
-3.00477e-08
3.8401e-08
-5.52013e-08
6.27663e-08
-8.81049e-08
8.77586e-08
-1.28355e-07
1.11766e-07
-1.75288e-07
1.33683e-07
-2.2804e-07
1.52783e-07
-2.85616e-07
1.68616e-07
-3.46928e-07
1.80931e-07
-4.10848e-07
1.89623e-07
-4.76232e-07
1.94692e-07
-5.41953e-07
1.96215e-07
-6.06916e-07
1.94326e-07
-6.70075e-07
1.89201e-07
-7.30446e-07
1.81047e-07
-7.87116e-07
1.7009e-07
-8.39248e-07
1.56576e-07
-8.86087e-07
1.40762e-07
-9.26966e-07
1.22916e-07
-9.61307e-07
1.03313e-07
-9.88627e-07
8.22385e-08
-1.00854e-06
5.99824e-08
-1.02075e-06
3.68436e-08
-1.02508e-06
1.31281e-08
-1.02144e-06
-1.08505e-08
-1.00985e-06
-3.47712e-08
-9.90449e-07
-5.83059e-08
-9.63469e-07
-8.11207e-08
-9.29263e-07
-1.02877e-07
-8.88293e-07
-1.23235e-07
-8.41129e-07
-1.41854e-07
-7.88451e-07
-1.58399e-07
-7.31043e-07
-1.72545e-07
-6.69787e-07
-1.8398e-07
-6.05654e-07
-1.92414e-07
-5.39698e-07
-1.97588e-07
-4.73037e-07
-1.99279e-07
-4.0684e-07
-1.97316e-07
-3.423e-07
-1.91586e-07
-2.80616e-07
-1.82056e-07
-2.22953e-07
-1.6879e-07
-1.70408e-07
-1.51976e-07
-1.23965e-07
-1.3196e-07
-8.44413e-08
-1.09296e-07
-5.24263e-08
-8.48122e-08
-2.82204e-08
-5.97062e-08
-1.17749e-08
-3.5659e-08
-2.65051e-09
-1.49798e-08
-1.04565e-09
-4.49768e-09
6.2979e-09
-1.81723e-08
3.06167e-08
-4.11467e-08
6.13754e-08
-7.33289e-08
9.49485e-08
-1.14363e-07
1.28793e-07
-1.63636e-07
1.6104e-07
-2.20315e-07
1.90361e-07
-2.83387e-07
2.15855e-07
-3.51712e-07
2.36941e-07
-4.24065e-07
2.53284e-07
-4.99174e-07
2.64731e-07
-5.75752e-07
2.7127e-07
-6.52531e-07
2.72993e-07
-7.28274e-07
2.70069e-07
-8.018e-07
2.62727e-07
-8.71995e-07
2.51241e-07
-9.37821e-07
2.35916e-07
-9.98329e-07
2.17083e-07
-1.05266e-06
1.95093e-07
-1.10005e-06
1.7031e-07
-1.13985e-06
1.43114e-07
-1.17151e-06
1.13894e-07
-1.19458e-06
8.30521e-08
-1.20873e-06
5.09983e-08
-1.21376e-06
1.81545e-08
-1.20956e-06
-1.50475e-08
-1.19617e-06
-4.81657e-08
-1.17373e-06
-8.07494e-08
-1.14251e-06
-1.1234e-07
-1.10291e-06
-1.42474e-07
-1.05546e-06
-1.70684e-07
-1.00081e-06
-1.96506e-07
-9.39725e-07
-2.19484e-07
-8.73097e-07
-2.39173e-07
-8.01924e-07
-2.55152e-07
-7.27308e-07
-2.6703e-07
-6.50438e-07
-2.74458e-07
-5.72578e-07
-2.77139e-07
-4.95046e-07
-2.74848e-07
-4.19188e-07
-2.67443e-07
-3.46354e-07
-2.5489e-07
-2.7786e-07
-2.37284e-07
-2.14952e-07
-2.14884e-07
-1.58761e-07
-1.88152e-07
-1.10253e-07
-1.57804e-07
-7.01848e-08
-1.2488e-07
-3.90561e-08
-9.0835e-08
-1.70775e-08
-5.76376e-08
-4.16687e-09
-2.78904e-08
-5.21253e-09
-5.99138e-09
1.22893e-08
-2.34917e-08
4.8117e-08
-5.21026e-08
8.99863e-08
-9.13286e-08
1.34175e-07
-1.40502e-07
1.77966e-07
-1.98766e-07
2.19304e-07
-2.65089e-07
2.56684e-07
-3.3829e-07
2.89057e-07
-4.17079e-07
3.1573e-07
-5.00089e-07
3.36294e-07
-5.85915e-07
3.50557e-07
-6.73141e-07
3.58497e-07
-7.60371e-07
3.60223e-07
-8.46248e-07
3.55946e-07
-9.29474e-07
3.45953e-07
-1.00882e-06
3.3059e-07
-1.08315e-06
3.10247e-07
-1.15142e-06
2.8535e-07
-1.21268e-06
2.5635e-07
-1.26609e-06
2.23722e-07
-1.31093e-06
1.87955e-07
-1.34659e-06
1.49557e-07
-1.37259e-06
1.09049e-07
-1.38856e-06
6.69669e-08
-1.39426e-06
2.38587e-08
-1.3896e-06
-1.97131e-08
-1.37459e-06
-6.31741e-08
-1.3494e-06
-1.05938e-07
-1.31433e-06
-1.4741e-07
-1.26982e-06
-1.86986e-07
-1.21644e-06
-2.24064e-07
-1.1549e-06
-2.58041e-07
-1.08606e-06
-2.88326e-07
-1.01089e-06
-3.14347e-07
-9.30478e-07
-3.3556e-07
-8.46046e-07
-3.51462e-07
-7.58898e-07
-3.61606e-07
-6.70423e-07
-3.65614e-07
-5.8207e-07
-3.63201e-07
-4.95325e-07
-3.54188e-07
-4.11677e-07
-3.38537e-07
-3.3259e-07
-3.16371e-07
-2.59457e-07
-2.88017e-07
-1.93568e-07
-2.54041e-07
-1.36063e-07
-2.1531e-07
-8.78927e-08
-1.7305e-07
-4.97933e-08
-1.28934e-07
-2.22703e-08
-8.51606e-08
-5.61854e-09
-4.45422e-08
-1.08311e-08
-7.4034e-09
1.96927e-08
-2.86149e-08
6.93286e-08
-6.2767e-08
1.24138e-07
-1.08969e-07
1.80376e-07
-1.66227e-07
2.35224e-07
-2.3342e-07
2.86496e-07
-3.09294e-07
3.32558e-07
-3.92484e-07
3.72247e-07
-4.81537e-07
4.04783e-07
-5.74941e-07
4.29698e-07
-6.71157e-07
4.46774e-07
-7.68648e-07
4.55988e-07
-8.659e-07
4.57475e-07
-9.61447e-07
4.51493e-07
-1.05389e-06
4.38393e-07
-1.1419e-06
4.18602e-07
-1.22425e-06
3.92602e-07
-1.29982e-06
3.6092e-07
-1.36759e-06
3.24117e-07
-1.42665e-06
2.82783e-07
-1.47623e-06
2.37529e-07
-1.51566e-06
1.8899e-07
-1.54442e-06
1.37814e-07
-1.56213e-06
8.46713e-08
-1.56852e-06
3.02469e-08
-1.56347e-06
-2.47576e-08
-1.54702e-06
-7.96247e-08
-1.51934e-06
-1.33623e-07
-1.48074e-06
-1.8601e-07
-1.43169e-06
-2.36035e-07
-1.37281e-06
-2.82944e-07
-1.30486e-06
-3.25989e-07
-1.22875e-06
-3.64432e-07
-1.14554e-06
-3.97563e-07
-1.05639e-06
-4.24704e-07
-9.62625e-07
-4.45232e-07
-8.65642e-07
-4.58589e-07
-7.66947e-07
-4.6431e-07
-6.68111e-07
-4.62037e-07
-5.70749e-07
-4.51551e-07
-4.76489e-07
-4.32797e-07
-3.8694e-07
-4.0592e-07
-3.03657e-07
-3.713e-07
-2.28099e-07
-3.29598e-07
-1.616e-07
-2.81809e-07
-1.05332e-07
-2.29318e-07
-6.029e-08
-1.73977e-07
-2.72887e-08
-1.18162e-07
-6.99346e-09
-6.48374e-08
-1.78246e-08
-8.74058e-09
2.84332e-08
-3.35373e-08
9.41253e-08
-7.31059e-08
1.63707e-07
-1.26179e-07
2.3345e-07
-1.91439e-07
3.00484e-07
-2.67484e-07
3.62542e-07
-3.52828e-07
4.17901e-07
-4.45902e-07
4.65321e-07
-5.45081e-07
5.03961e-07
-6.487e-07
5.33318e-07
-7.55087e-07
5.5316e-07
-8.6258e-07
5.6348e-07
-9.69554e-07
5.6445e-07
-1.07444e-06
5.56382e-07
-1.17575e-06
5.39702e-07
-1.27208e-06
5.14925e-07
-1.36211e-06
4.82633e-07
-1.44465e-06
4.43462e-07
-1.51862e-06
3.98089e-07
-1.58307e-06
3.47229e-07
-1.63716e-06
2.9162e-07
-1.6802e-06
2.3203e-07
-1.71163e-06
1.69245e-07
-1.73103e-06
1.04074e-07
-1.73813e-06
3.73474e-08
-1.7328e-06
-3.00866e-08
-1.71507e-06
-9.736e-08
-1.6851e-06
-1.63589e-07
-1.64324e-06
-2.27874e-07
-1.58997e-06
-2.89307e-07
-1.52593e-06
-3.46979e-07
-1.45194e-06
-3.99981e-07
-1.36895e-06
-4.47424e-07
-1.27807e-06
-4.88444e-07
-1.18055e-06
-5.22223e-07
-1.07778e-06
-5.48002e-07
-9.71258e-07
-5.65108e-07
-8.62598e-07
-5.7297e-07
-7.53484e-07
-5.71151e-07
-6.45656e-07
-5.59378e-07
-5.40884e-07
-5.37569e-07
-4.4093e-07
-5.05874e-07
-3.47517e-07
-4.64713e-07
-2.62293e-07
-4.14822e-07
-1.86803e-07
-3.57299e-07
-1.22457e-07
-2.93663e-07
-7.05253e-08
-2.25909e-07
-3.21338e-08
-1.56553e-07
-8.29963e-09
-8.86716e-08
-2.61242e-08
-1.00165e-08
3.84497e-08
-3.82843e-08
1.22393e-07
-8.3147e-08
2.0857e-07
-1.42984e-07
2.93287e-07
-2.16157e-07
3.73656e-07
-3.00982e-07
4.47367e-07
-3.95726e-07
5.12646e-07
-4.9861e-07
5.68205e-07
-6.07822e-07
6.13174e-07
-7.21541e-07
6.47036e-07
-8.3795e-07
6.6957e-07
-9.55268e-07
6.80798e-07
-1.07176e-06
6.80942e-07
-1.18576e-06
6.70386e-07
-1.2957e-06
6.49637e-07
-1.40008e-06
6.19309e-07
-1.49754e-06
5.80092e-07
-1.58682e-06
5.32738e-07
-1.66678e-06
4.78051e-07
-1.73643e-06
4.16873e-07
-1.79488e-06
3.50079e-07
-1.84143e-06
2.78572e-07
-1.87547e-06
2.03285e-07
-1.89656e-06
1.25171e-07
-1.90442e-06
4.52084e-08
-1.89891e-06
-3.56e-08
-1.88004e-06
-1.16231e-07
-1.84799e-06
-1.9564e-07
-1.80309e-06
-2.72768e-07
-1.74586e-06
-3.46542e-07
-1.67695e-06
-4.15885e-07
-1.59721e-06
-4.79725e-07
-1.50763e-06
-5.37006e-07
-1.40936e-06
-5.86707e-07
-1.30374e-06
-6.27852e-07
-1.1922e-06
-6.5954e-07
-1.07634e-06
-6.80965e-07
-9.57868e-07
-6.91441e-07
-8.38582e-07
-6.90437e-07
-7.20353e-07
-6.77608e-07
-6.05092e-07
-6.5283e-07
-4.94725e-07
-6.16241e-07
-3.91157e-07
-5.68282e-07
-2.96238e-07
-5.09741e-07
-2.11738e-07
-4.41799e-07
-1.39325e-07
-3.66077e-07
-8.05464e-08
-2.84687e-07
-3.68399e-08
-2.0026e-07
-9.55302e-09
-1.15958e-07
-3.56772e-08
-1.12466e-08
4.96963e-08
-4.28946e-08
1.54041e-07
-9.29501e-08
2.58625e-07
-1.59459e-07
3.59796e-07
-2.40469e-07
4.54667e-07
-3.34015e-07
5.40913e-07
-4.3811e-07
6.16741e-07
-5.50754e-07
6.80849e-07
-6.69943e-07
7.32363e-07
-7.93687e-07
7.70779e-07
-9.20025e-07
7.95909e-07
-1.04705e-06
8.07824e-07
-1.17292e-06
8.06814e-07
-1.29588e-06
7.93346e-07
-1.41427e-06
7.68026e-07
-1.52654e-06
7.31574e-07
-1.63124e-06
6.84799e-07
-1.72709e-06
6.2858e-07
-1.81288e-06
5.63849e-07
-1.8876e-06
4.91586e-07
-1.95032e-06
4.12805e-07
-2.00031e-06
3.28555e-07
-2.03693e-06
2.39913e-07
-2.05974e-06
1.47982e-07
-2.06843e-06
5.38951e-08
-2.06284e-06
-4.11899e-08
-2.04298e-06
-1.36089e-07
-2.00903e-06
-2.29596e-07
-1.96131e-06
-3.20482e-07
-1.90035e-06
-4.07506e-07
-1.82682e-06
-4.89418e-07
-1.74157e-06
-5.64972e-07
-1.64564e-06
-6.32939e-07
-1.54022e-06
-6.92127e-07
-1.42667e-06
-7.41394e-07
-1.30653e-06
-7.79682e-07
-1.18146e-06
-8.06036e-07
-1.05326e-06
-8.19642e-07
-9.23842e-07
-8.19854e-07
-7.9521e-07
-8.0624e-07
-6.69427e-07
-7.78613e-07
-5.48589e-07
-7.37078e-07
-4.34795e-07
-6.82076e-07
-3.30113e-07
-6.14423e-07
-2.36554e-07
-5.35357e-07
-1.5605e-07
-4.46581e-07
-9.04371e-08
-3.503e-07
-4.14573e-08
-2.4924e-07
-1.07723e-08
-1.46643e-07
-4.64496e-08
-1.24461e-08
6.21425e-08
-4.74115e-08
1.89006e-07
-1.02588e-07
3.13802e-07
-1.75704e-07
4.32911e-07
-2.64502e-07
5.43464e-07
-3.66731e-07
6.43142e-07
-4.8015e-07
7.3016e-07
-6.02528e-07
8.03227e-07
-7.31662e-07
8.61497e-07
-8.65387e-07
9.04504e-07
-1.00159e-06
9.32117e-07
-1.13825e-06
9.44479e-07
-1.2734e-06
9.41967e-07
-1.4052e-06
9.25148e-07
-1.53192e-06
8.94741e-07
-1.65193e-06
8.51585e-07
-1.76375e-06
7.9662e-07
-1.86603e-06
7.30856e-07
-1.95755e-06
6.55367e-07
-2.03723e-06
5.71273e-07
-2.10416e-06
4.79734e-07
-2.15755e-06
3.81944e-07
-2.19677e-06
2.7913e-07
-2.22133e-06
1.72549e-07
-2.23093e-06
6.34867e-08
-2.22538e-06
-4.67396e-08
-2.20468e-06
-1.56785e-07
-2.169e-06
-2.65275e-07
-2.11867e-06
-3.70812e-07
-2.0542e-06
-4.7198e-07
-1.97627e-06
-5.67351e-07
-1.88574e-06
-6.55498e-07
-1.78367e-06
-7.35011e-07
-1.67128e-06
-8.04514e-07
-1.54999e-06
-8.62689e-07
-1.42136e-06
-9.08303e-07
-1.28716e-06
-9.4024e-07
-1.14927e-06
-9.57534e-07
-1.00971e-06
-9.59409e-07
-8.70634e-07
-9.4532e-07
-7.34249e-07
-9.14998e-07
-6.02838e-07
-8.68489e-07
-4.78706e-07
-8.06209e-07
-3.64151e-07
-7.28977e-07
-2.6144e-07
-6.38068e-07
-1.72779e-07
-5.35242e-07
-1.00299e-07
-4.22781e-07
-4.60429e-08
-3.03495e-07
-1.19767e-08
-1.8071e-07
-5.84262e-08
-1.36294e-08
7.57718e-08
-5.18781e-08
2.27255e-07
-1.12139e-07
3.74063e-07
-1.9183e-07
5.12603e-07
-2.88394e-07
6.40028e-07
-3.99296e-07
7.54044e-07
-5.22032e-07
8.52896e-07
-6.54139e-07
9.35334e-07
-7.93205e-07
1.00056e-06
-9.36887e-07
1.04819e-06
-1.08292e-06
1.07815e-06
-1.22915e-06
1.0907e-06
-1.3735e-06
1.08632e-06
-1.51405e-06
1.0657e-06
-1.64899e-06
1.02967e-06
-1.77663e-06
9.79228e-07
-1.89545e-06
9.15438e-07
-2.00405e-06
8.39459e-07
-2.10119e-06
7.5251e-07
-2.18578e-06
6.55859e-07
-2.25686e-06
5.50814e-07
-2.31363e-06
4.3872e-07
-2.35546e-06
3.20953e-07
-2.38183e-06
1.98924e-07
-2.39242e-06
7.40738e-08
-2.38704e-06
-5.21224e-08
-2.36567e-06
-1.78157e-07
-2.32845e-06
-3.02489e-07
-2.27572e-06
-4.23548e-07
-2.20795e-06
-5.39741e-07
-2.12585e-06
-6.49457e-07
-2.03026e-06
-7.51083e-07
-1.92226e-06
-8.43015e-07
-1.80309e-06
-9.23687e-07
-1.67419e-06
-9.91587e-07
-1.5372e-06
-1.0453e-06
-1.39393e-06
-1.08351e-06
-1.24636e-06
-1.1051e-06
-1.09664e-06
-1.10913e-06
-9.47033e-07
-1.09492e-06
-7.99935e-07
-1.06209e-06
-6.57814e-07
-1.01061e-06
-5.23192e-07
-9.40831e-07
-3.98612e-07
-8.53557e-07
-2.86608e-07
-7.50072e-07
-1.89673e-07
-6.32177e-07
-1.10239e-07
-5.02215e-07
-5.06551e-08
-3.63079e-07
-1.31845e-08
-2.1818e-07
-7.16108e-08
-1.48091e-08
9.0581e-08
-5.6335e-08
2.68781e-07
-1.21676e-07
4.39404e-07
-2.07947e-07
5.98873e-07
-3.12287e-07
7.44369e-07
-4.31877e-07
8.73634e-07
-5.63947e-07
9.84966e-07
-7.05793e-07
1.07718e-06
-8.54791e-07
1.14956e-06
-1.00841e-06
1.20181e-06
-1.16424e-06
1.23398e-06
-1.31998e-06
1.24644e-06
-1.47346e-06
1.2398e-06
-1.62266e-06
1.2149e-06
-1.76571e-06
1.17272e-06
-1.90087e-06
1.11439e-06
-2.02656e-06
1.04114e-06
-2.14138e-06
9.54278e-07
-2.24405e-06
8.55181e-07
-2.33346e-06
7.45268e-07
-2.40865e-06
6.25998e-07
-2.46879e-06
4.98867e-07
-2.51324e-06
3.65403e-07
-2.54149e-06
2.27167e-07
-2.55317e-06
8.57556e-08
-2.54809e-06
-5.7201e-08
-2.52621e-06
-2.00034e-07
-2.48767e-06
-3.41036e-07
-2.43275e-06
-4.78466e-07
-2.36194e-06
-6.10551e-07
-2.2759e-06
-7.35493e-07
-2.1755e-06
-8.51486e-07
-2.06179e-06
-9.56728e-07
-1.93602e-06
-1.04945e-06
-1.79968e-06
-1.12793e-06
-1.65444e-06
-1.19054e-06
-1.50217e-06
-1.23578e-06
-1.34494e-06
-1.26233e-06
-1.18501e-06
-1.26906e-06
-1.0248e-06
-1.25514e-06
-8.66859e-07
-1.22004e-06
-7.13862e-07
-1.16361e-06
-5.68562e-07
-1.08613e-06
-4.33761e-07
-9.88358e-07
-3.12274e-07
-8.7156e-07
-2.06895e-07
-7.37556e-07
-1.20366e-07
-5.88744e-07
-5.53508e-08
-4.28094e-07
-1.44134e-08
-2.59117e-07
-8.60242e-08
-1.59968e-08
1.06578e-07
-6.08193e-08
3.13604e-07
-1.31271e-07
5.09855e-07
-2.24157e-07
6.9176e-07
-3.36316e-07
8.56528e-07
-4.64635e-07
1.00195e-06
-6.06073e-07
1.1264e-06
-7.5768e-07
1.22879e-06
-9.16615e-07
1.3085e-06
-1.08016e-06
1.36535e-06
-1.24574e-06
1.39956e-06
-1.41092e-06
1.41162e-06
-1.57343e-06
1.40232e-06
-1.73117e-06
1.37264e-06
-1.8822e-06
1.32374e-06
-2.02473e-06
1.25692e-06
-2.15718e-06
1.17358e-06
-2.27808e-06
1.07518e-06
-2.38616e-06
9.63264e-07
-2.4803e-06
8.39406e-07
-2.55952e-06
7.05223e-07
-2.62302e-06
5.62359e-07
-2.67011e-06
4.12494e-07
-2.70028e-06
2.57338e-07
-2.71316e-06
9.86359e-08
-2.70853e-06
-6.18281e-08
-2.68634e-06
-2.22228e-07
-2.64668e-06
-3.80695e-07
-2.58983e-06
-5.35316e-07
-2.51624e-06
-6.8414e-07
-2.42655e-06
-8.25181e-07
-2.3216e-06
-9.56434e-07
-2.20244e-06
-1.07589e-06
-2.07032e-06
-1.18156e-06
-1.92674e-06
-1.27151e-06
-1.77339e-06
-1.34389e-06
-1.61221e-06
-1.39696e-06
-1.44536e-06
-1.42918e-06
-1.2752e-06
-1.43922e-06
-1.10429e-06
-1.42605e-06
-9.3537e-07
-1.38896e-06
-7.71313e-07
-1.32766e-06
-6.15119e-07
-1.24232e-06
-4.69862e-07
-1.13362e-06
-3.38653e-07
-1.00277e-06
-2.24605e-07
-8.51604e-07
-1.30786e-07
-6.82564e-07
-6.01847e-08
-4.98695e-07
-1.56797e-08
-3.03622e-07
-1.01704e-07
-1.72024e-08
1.2378e-07
-6.53648e-08
3.61766e-07
-1.40986e-07
5.85476e-07
-2.40558e-07
7.91332e-07
-3.60605e-07
9.76575e-07
-4.97717e-07
1.13906e-06
-6.48572e-07
1.27726e-06
-8.09967e-07
1.39018e-06
-9.78838e-07
1.47737e-06
-1.15227e-06
1.53879e-06
-1.32754e-06
1.57482e-06
-1.50206e-06
1.58615e-06
-1.67348e-06
1.57374e-06
-1.83961e-06
1.53876e-06
-1.99844e-06
1.48258e-06
-2.14818e-06
1.40666e-06
-2.28718e-06
1.31258e-06
-2.41399e-06
1.20199e-06
-2.52733e-06
1.0766e-06
-2.62607e-06
9.38148e-07
-2.70925e-06
7.88397e-07
-2.77604e-06
6.29149e-07
-2.82577e-06
4.62228e-07
-2.85792e-06
2.89488e-07
-2.8721e-06
1.1282e-07
-2.86808e-06
-6.58466e-08
-2.84578e-06
-2.44534e-07
-2.80526e-06
-4.21216e-07
-2.74676e-06
-5.93813e-07
-2.6707e-06
-7.60197e-07
-2.57769e-06
-9.18195e-07
-2.46852e-06
-1.0656e-06
-2.34423e-06
-1.20019e-06
-2.20605e-06
-1.31974e-06
-2.05547e-06
-1.42209e-06
-1.89422e-06
-1.50514e-06
-1.72428e-06
-1.5669e-06
-1.54788e-06
-1.60558e-06
-1.36749e-06
-1.61961e-06
-1.18582e-06
-1.60772e-06
-1.00578e-06
-1.569e-06
-8.30473e-07
-1.50297e-06
-6.63146e-07
-1.40965e-06
-5.07163e-07
-1.2896e-06
-3.65951e-07
-1.14398e-06
-2.42958e-07
-9.74597e-07
-1.41599e-07
-7.83923e-07
-6.52088e-08
-5.75085e-07
-1.69987e-08
-3.51832e-07
-1.18703e-07
-1.84349e-08
1.42215e-07
-7.00016e-08
4.13333e-07
-1.5088e-07
6.66355e-07
-2.57235e-07
8.97687e-07
-3.85266e-07
1.10461e-06
-5.31251e-07
1.28505e-06
-6.91581e-07
1.43759e-06
-8.6279e-07
1.56139e-06
-1.04158e-06
1.65616e-06
-1.22485e-06
1.72206e-06
-1.4097e-06
1.75967e-06
-1.59343e-06
1.76988e-06
-1.77357e-06
1.75388e-06
-1.94788e-06
1.71307e-06
-2.11429e-06
1.64899e-06
-2.27097e-06
1.56334e-06
-2.41629e-06
1.45789e-06
-2.54878e-06
1.33448e-06
-2.66716e-06
1.19499e-06
-2.77033e-06
1.04131e-06
-2.85732e-06
8.75387e-07
-2.92732e-06
6.99153e-07
-2.97967e-06
5.14578e-07
-3.01384e-06
3.23654e-07
-3.02943e-06
1.28408e-07
-3.02618e-06
-6.90912e-08
-3.00399e-06
-2.66725e-07
-2.96289e-06
-4.62317e-07
-2.90308e-06
-6.53628e-07
-2.82492e-06
-8.38358e-07
-2.72896e-06
-1.01415e-06
-2.61598e-06
-1.17858e-06
-2.48694e-06
-1.32922e-06
-2.34307e-06
-1.46362e-06
-2.18583e-06
-1.57934e-06
-2.01696e-06
-1.67401e-06
-1.83847e-06
-1.74539e-06
-1.65265e-06
-1.79139e-06
-1.46209e-06
-1.81017e-06
-1.26963e-06
-1.80018e-06
-1.07836e-06
-1.76027e-06
-8.91614e-07
-1.68972e-06
-7.12904e-07
-1.58836e-06
-5.45898e-07
-1.4566e-06
-3.94361e-07
-1.29552e-06
-2.621e-07
-1.10686e-06
-1.529e-07
-8.93122e-07
-7.04723e-08
-6.57513e-07
-1.83849e-08
-4.0392e-07
-1.37088e-07
-1.97026e-08
1.61918e-07
-7.47575e-08
4.68388e-07
-1.61007e-07
7.52604e-07
-2.74268e-07
1.01095e-06
-4.104e-07
1.24074e-06
-5.65353e-07
1.44e-06
-7.35217e-07
1.60745e-06
-9.16253e-07
1.74243e-06
-1.10493e-06
1.84483e-06
-1.29794e-06
1.91507e-06
-1.49222e-06
1.95395e-06
-1.68495e-06
1.96261e-06
-1.87357e-06
1.9425e-06
-2.05575e-06
1.89525e-06
-2.22943e-06
1.82266e-06
-2.39274e-06
1.72665e-06
-2.54404e-06
1.60919e-06
-2.68189e-06
1.47234e-06
-2.80503e-06
1.31813e-06
-2.91238e-06
1.14866e-06
-3.00299e-06
9.65997e-07
-3.07607e-06
7.72238e-07
-3.13098e-06
5.69481e-07
-3.16717e-06
3.59849e-07
-3.18426e-06
1.45493e-07
-3.18196e-06
-7.1391e-08
-3.16013e-06
-2.88554e-07
-3.11876e-06
-5.0368e-07
-3.05801e-06
-7.14382e-07
-2.97818e-06
-9.18193e-07
-2.87975e-06
-1.11257e-06
-2.76343e-06
-1.2949e-06
-2.63014e-06
-1.46252e-06
-2.48104e-06
-1.61272e-06
-2.31758e-06
-1.7428e-06
-2.14146e-06
-1.85012e-06
-1.95473e-06
-1.93212e-06
-1.75973e-06
-1.98639e-06
-1.55912e-06
-2.01077e-06
-1.35589e-06
-2.00341e-06
-1.15332e-06
-1.96284e-06
-9.54966e-07
-1.88808e-06
-7.64623e-07
-1.7787e-06
-5.86281e-07
-1.63495e-06
-4.24065e-07
-1.45773e-06
-2.82168e-07
-1.24876e-06
-1.64782e-07
-1.01051e-06
-7.60221e-08
-7.46274e-07
-1.98519e-08
-4.6009e-07
-1.5694e-07
-2.10131e-08
1.82931e-07
-7.96586e-08
5.27033e-07
-1.71415e-07
8.4436e-07
-2.91729e-07
1.13126e-06
-4.36096e-07
1.38511e-06
-6.00121e-07
1.60403e-06
-7.79572e-07
1.7869e-06
-9.70428e-07
1.93328e-06
-1.16891e-06
2.04332e-06
-1.37151e-06
2.11767e-06
-1.575e-06
2.15744e-06
-1.77645e-06
2.16406e-06
-1.9732e-06
2.13925e-06
-2.16288e-06
2.08494e-06
-2.3434e-06
2.00318e-06
-2.5129e-06
1.89614e-06
-2.66975e-06
1.76605e-06
-2.81254e-06
1.61513e-06
-2.94006e-06
1.44565e-06
-3.05125e-06
1.25984e-06
-3.1452e-06
1.05996e-06
-3.22117e-06
8.48207e-07
-3.27852e-06
6.26827e-07
-3.31672e-06
3.98054e-07
-3.33538e-06
1.64152e-07
-3.3342e-06
-7.25723e-08
-3.313e-06
-3.09752e-07
-3.27173e-06
-5.44949e-07
-3.21048e-06
-7.75638e-07
-3.12947e-06
-9.99198e-07
-3.02913e-06
-1.21291e-06
-2.91007e-06
-1.41396e-06
-2.77313e-06
-1.59946e-06
-2.6194e-06
-1.76645e-06
-2.45027e-06
-1.91194e-06
-2.26741e-06
-2.03298e-06
-2.07287e-06
-2.12666e-06
-1.86901e-06
-2.19025e-06
-1.65859e-06
-2.2212e-06
-1.4447e-06
-2.2173e-06
-1.23081e-06
-2.17673e-06
-1.02071e-06
-2.09817e-06
-8.185e-07
-1.98092e-06
-6.28502e-07
-1.82494e-06
-4.55229e-07
-1.63101e-06
-3.03294e-07
-1.40069e-06
-1.77332e-07
-1.13647e-06
-8.19036e-08
-8.41702e-07
-2.14132e-08
-5.2058e-07
-1.78353e-07
-2.23738e-08
2.05305e-07
-8.47303e-08
5.8939e-07
-1.82153e-07
9.41783e-07
-3.09689e-07
1.2588e-06
-4.6244e-07
1.53786e-06
-6.3564e-07
1.77723e-06
-8.2472e-07
1.97598e-06
-1.02536e-06
2.13392e-06
-1.23352e-06
2.25148e-06
-1.4455e-06
2.32965e-06
-1.6579e-06
2.36984e-06
-1.86767e-06
2.37383e-06
-2.07209e-06
2.34368e-06
-2.26876e-06
2.28161e-06
-2.45557e-06
2.18999e-06
-2.63069e-06
2.07126e-06
-2.79252e-06
1.92788e-06
-2.93972e-06
1.76232e-06
-3.0711e-06
1.57704e-06
-3.18569e-06
1.37443e-06
-3.28263e-06
1.15689e-06
-3.36121e-06
9.26785e-07
-3.42082e-06
6.86441e-07
-3.46097e-06
4.38205e-07
-3.48126e-06
1.84436e-07
-3.48136e-06
-7.24636e-08
-3.46108e-06
-3.30032e-07
-3.42031e-06
-5.85724e-07
-3.35905e-06
-8.36894e-07
-3.27747e-06
-1.08078e-06
-3.17587e-06
-1.3145e-06
-3.05478e-06
-1.53506e-06
-2.91492e-06
-1.73932e-06
-2.7573e-06
-1.92407e-06
-2.58321e-06
-2.08603e-06
-2.39428e-06
-2.22191e-06
-2.1925e-06
-2.32844e-06
-1.98026e-06
-2.40249e-06
-1.76036e-06
-2.4411e-06
-1.53603e-06
-2.44163e-06
-1.31089e-06
-2.40187e-06
-1.08898e-06
-2.32008e-06
-8.74699e-07
-2.1952e-06
-6.72731e-07
-2.02691e-06
-4.88008e-07
-1.81573e-06
-3.25602e-07
-1.5631e-06
-1.90633e-07
-1.27144e-06
-8.81611e-08
-9.44173e-07
-2.30819e-08
-5.8566e-07
-2.01435e-07
-2.37925e-08
2.29097e-07
-8.99989e-08
6.55596e-07
-1.9327e-07
1.04505e-06
-3.28216e-07
1.39374e-06
-4.89511e-07
1.69915e-06
-6.71989e-07
1.95971e-06
-8.70716e-07
2.17471e-06
-1.08106e-06
2.34426e-06
-1.29871e-06
2.46914e-06
-1.51975e-06
2.55069e-06
-1.74065e-06
2.59073e-06
-1.95823e-06
2.59142e-06
-2.16974e-06
2.55518e-06
-2.37273e-06
2.4846e-06
-2.56513e-06
2.38239e-06
-2.74513e-06
2.25127e-06
-2.91123e-06
2.09398e-06
-3.06213e-06
1.91322e-06
-3.19674e-06
1.71165e-06
-3.31415e-06
1.49184e-06
-3.41359e-06
1.25633e-06
-3.49441e-06
1.0076e-06
-3.55604e-06
7.48072e-07
-3.59802e-06
4.80183e-07
-3.61995e-06
2.06368e-07
-3.62151e-06
-7.09009e-08
-3.60245e-06
-3.49087e-07
-3.56262e-06
-6.25562e-07
-3.50193e-06
-8.97581e-07
-3.42045e-06
-1.16226e-06
-3.31838e-06
-1.41658e-06
-3.1961e-06
-1.65733e-06
-3.05422e-06
-1.88119e-06
-2.89362e-06
-2.08467e-06
-2.71546e-06
-2.26419e-06
-2.52129e-06
-2.41608e-06
-2.31304e-06
-2.5367e-06
-2.09307e-06
-2.62246e-06
-1.8642e-06
-2.66996e-06
-1.62977e-06
-2.67607e-06
-1.39356e-06
-2.63807e-06
-1.15985e-06
-2.55379e-06
-9.33342e-07
-2.42171e-06
-7.19114e-07
-2.24114e-06
-5.22544e-07
-2.0123e-06
-3.49209e-07
-1.73643e-06
-2.04768e-07
-1.41588e-06
-9.4839e-08
-1.0541e-06
-2.48714e-08
-6.55627e-07
-2.26306e-07
-2.52779e-08
2.54375e-07
-9.54931e-08
7.25811e-07
-2.0482e-07
1.15438e-06
-3.47384e-07
1.53631e-06
-5.17393e-07
1.86916e-06
-7.09241e-07
2.15155e-06
-9.17604e-07
2.38307e-06
-1.13751e-06
2.56416e-06
-1.36438e-06
2.69601e-06
-1.59408e-06
2.78039e-06
-1.82292e-06
2.81957e-06
-2.04766e-06
2.81615e-06
-2.26547e-06
2.77299e-06
-2.47395e-06
2.69308e-06
-2.67104e-06
2.57948e-06
-2.85503e-06
2.43525e-06
-3.02448e-06
2.26343e-06
-3.17821e-06
2.06695e-06
-3.31524e-06
1.84868e-06
-3.43476e-06
1.61136e-06
-3.53608e-06
1.35766e-06
-3.61865e-06
1.09016e-06
-3.68195e-06
8.11377e-07
-3.72557e-06
5.23805e-07
-3.74913e-06
2.29928e-07
-3.7523e-06
-6.77344e-08
-3.73479e-06
-3.66598e-07
-3.69637e-06
-6.63978e-07
-3.6369e-06
-9.57056e-07
-3.5563e-06
-1.24286e-06
-3.45466e-06
-1.51822e-06
-3.3322e-06
-1.77979e-06
-3.18937e-06
-2.02402e-06
-3.02689e-06
-2.24716e-06
-2.84577e-06
-2.4453e-06
-2.64742e-06
-2.61443e-06
-2.43367e-06
-2.75045e-06
-2.20681e-06
-2.84931e-06
-1.96969e-06
-2.90708e-06
-1.72568e-06
-2.92008e-06
-1.47872e-06
-2.88503e-06
-1.23332e-06
-2.79918e-06
-9.94512e-07
-2.66052e-06
-7.67772e-07
-2.46788e-06
-5.58969e-07
-2.2211e-06
-3.74232e-07
-1.92117e-06
-2.19821e-07
-1.57029e-06
-1.01983e-07
-1.17194e-06
-2.67958e-08
-7.30814e-07
-2.53102e-07
-2.68399e-08
2.81215e-07
-1.01246e-07
8.00218e-07
-2.16863e-07
1.27e-06
-3.67277e-07
1.68672e-06
-5.46177e-07
2.04806e-06
-7.47475e-07
2.35285e-06
-9.65421e-07
2.60102e-06
-1.19468e-06
2.79342e-06
-1.43039e-06
2.93172e-06
-1.6682e-06
3.0182e-06
-1.90429e-06
3.05566e-06
-2.13533e-06
3.0472e-06
-2.3585e-06
2.99616e-06
-2.57141e-06
2.90599e-06
-2.77209e-06
2.78016e-06
-2.95893e-06
2.62209e-06
-3.13062e-06
2.43512e-06
-3.28611e-06
2.22244e-06
-3.42455e-06
1.98712e-06
-3.54528e-06
1.73208e-06
-3.64772e-06
1.4601e-06
-3.73141e-06
1.17385e-06
-3.79594e-06
8.75906e-07
-3.84093e-06
5.68801e-07
-3.86605e-06
2.55042e-07
-3.87095e-06
-6.28368e-08
-3.85531e-06
-3.82235e-07
-3.81884e-06
-7.00443e-07
-3.7613e-06
-1.0146e-06
-3.68248e-06
-1.32167e-06
-3.58231e-06
-1.61839e-06
-3.46084e-06
-1.90126e-06
-3.31834e-06
-2.16652e-06
-3.1553e-06
-2.41019e-06
-2.97256e-06
-2.62804e-06
-2.77133e-06
-2.81565e-06
-2.5533e-06
-2.96848e-06
-2.32067e-06
-3.08195e-06
-2.07622e-06
-3.15154e-06
-1.82336e-06
-3.17294e-06
-1.56615e-06
-3.14223e-06
-1.30933e-06
-3.056e-06
-1.05825e-06
-2.91161e-06
-8.18804e-07
-2.70732e-06
-5.97404e-07
-2.4425e-06
-4.00784e-07
-2.11779e-06
-2.35878e-07
-1.7352e-06
-1.09641e-07
-1.29818e-06
-2.88698e-08
-8.11585e-07
-2.81972e-07
-2.84908e-08
3.09706e-07
-1.07299e-07
8.79026e-07
-2.29473e-07
1.39217e-06
-3.87994e-07
1.84524e-06
-5.7597e-07
2.23603e-06
-7.86778e-07
2.56366e-06
-1.0142e-06
2.82844e-06
-1.25251e-06
3.03174e-06
-1.49656e-06
3.17577e-06
-1.74178e-06
3.26343e-06
-1.98422e-06
3.2981e-06
-2.22051e-06
3.28348e-06
-2.44783e-06
3.22348e-06
-2.66387e-06
3.12204e-06
-2.86679e-06
2.98308e-06
-3.0551e-06
2.81041e-06
-3.22767e-06
2.60769e-06
-3.38361e-06
2.37839e-06
-3.52226e-06
2.12577e-06
-3.64309e-06
1.85292e-06
-3.74571e-06
1.56271e-06
-3.82976e-06
1.2579e-06
-3.89494e-06
9.41085e-07