/*--------------------------------*- C++ -*----------------------------------*\
  =========                 |
  \\      /  F ield         | OpenFOAM: The Open Source CFD Toolbox
   \\    /   O peration     | Website:  https://openfoam.org
    \\  /    A nd           | Version:  7
     \\/     M anipulation  |
\*---------------------------------------------------------------------------*/
FoamFile
{
    version     2.0;
    format      ascii;
    class       surfaceScalarField;
    location    "0.0006";
    object      phi;
}
// * * * * * * * * * * * * * * * * * * * * * * * * * * * * * * * * * * * * * //

dimensions      [0 3 -1 0 0 0 0];

internalField   nonuniform List<scalar> 
4900
(
-5.39473e-06
5.39473e-06
-9.42161e-06
4.02688e-06
-1.15359e-05
2.11431e-06
-1.26466e-05
1.11067e-06
-1.32592e-05
6.12574e-07
-1.36205e-05
3.61323e-07
-1.38516e-05
2.31134e-07
-1.40111e-05
1.5944e-07
-1.41277e-05
1.16673e-07
-1.42169e-05
8.91154e-08
-1.4287e-05
7.0191e-08
-1.43436e-05
5.65271e-08
-1.43898e-05
4.62567e-08
-1.44281e-05
3.82786e-08
-1.446e-05
3.19061e-08
-1.44867e-05
2.66897e-08
-1.4509e-05
2.23227e-08
-1.45276e-05
1.85897e-08
-1.45429e-05
1.53345e-08
-1.45554e-05
1.24408e-08
-1.45652e-05
9.81956e-09
-1.45726e-05
7.40078e-09
-1.45777e-05
5.12741e-09
-1.45807e-05
2.95114e-09
-1.45815e-05
8.29454e-10
-1.45802e-05
-1.27704e-09
-1.45768e-05
-3.40661e-09
-1.45712e-05
-5.59928e-09
-1.45633e-05
-7.89886e-09
-1.4553e-05
-1.03552e-08
-1.454e-05
-1.30274e-08
-1.4524e-05
-1.59878e-08
-1.45046e-05
-1.93294e-08
-1.44815e-05
-2.31741e-08
-1.44538e-05
-2.76857e-08
-1.44207e-05
-3.30901e-08
-1.4381e-05
-3.97087e-08
-1.4333e-05
-4.80147e-08
-1.42742e-05
-5.87301e-08
-1.42012e-05
-7.30096e-08
-1.41084e-05
-9.28074e-08
-1.39868e-05
-1.21642e-07
-1.38204e-05
-1.66334e-07
-1.35794e-05
-2.40991e-07
-1.3204e-05
-3.75476e-07
-1.25726e-05
-6.3137e-07
-1.14442e-05
-1.1284e-06
-9.33207e-06
-2.11213e-06
-5.34381e-06
-3.98826e-06
-5.34381e-06
4.91504e-07
4.90323e-06
-6.20519e-07
5.1389e-06
-2.06771e-06
3.5615e-06
-3.20615e-06
2.24912e-06
-4.00778e-06
1.4142e-06
-4.56574e-06
9.19287e-07
-4.96228e-06
6.2767e-07
-5.25293e-06
4.50093e-07
-5.47281e-06
3.36556e-07
-5.64384e-06
2.6014e-07
-5.77994e-06
2.0629e-07
-5.89023e-06
1.66815e-07
-5.98084e-06
1.36872e-07
-6.05604e-06
1.13479e-07
-6.11886e-06
9.47219e-08
-6.17149e-06
7.93239e-08
-6.21558e-06
6.64062e-08
-6.25233e-06
5.53455e-08
-6.28269e-06
4.5688e-08
-6.30734e-06
3.70943e-08
-6.32682e-06
2.93035e-08
-6.34153e-06
2.21108e-08
-6.35175e-06
1.5348e-08
-6.35768e-06
8.8729e-09
-6.35941e-06
2.56051e-09
-6.35698e-06
-3.70504e-09
-6.35035e-06
-1.00372e-08
-6.33939e-06
-1.65536e-08
-6.32391e-06
-2.33824e-08
-6.3036e-06
-3.06691e-08
-6.27804e-06
-3.85866e-08
-6.24668e-06
-4.73463e-08
-6.20879e-06
-5.72187e-08
-6.16341e-06
-6.85561e-08
-6.10926e-06
-8.18302e-08
-6.04466e-06
-9.76883e-08
-5.96733e-06
-1.17044e-07
-5.87412e-06
-1.41224e-07
-5.76063e-06
-1.72215e-07
-5.62055e-06
-2.13099e-07
-5.44449e-06
-2.68863e-07
-5.21825e-06
-3.47882e-07
-4.91967e-06
-4.64909e-07
-4.51358e-06
-6.47083e-07
-3.94549e-06
-9.43569e-07
-3.13592e-06
-1.44094e-06
-1.99597e-06
-2.26835e-06
-5.55154e-07
-3.55295e-06
5.38964e-07
-5.08237e-06
-4.80485e-06
1.36368e-06
3.53955e-06
1.76988e-06
4.7327e-06
1.46043e-06
3.87095e-06
9.24695e-07
2.78486e-06
3.97536e-07
1.94136e-06
-4.95616e-08
1.36638e-06
-4.09852e-07
9.87961e-07
-6.96526e-07
7.36767e-07
-9.25315e-07
5.65345e-07
-1.10974e-06
4.44564e-07
-1.26013e-06
3.56684e-07
-1.3841e-06
2.90779e-07
-1.4872e-06
2.39979e-07
-1.57355e-06
1.99823e-07
-1.64617e-06
1.67342e-07
-1.70734e-06
1.40497e-07
-1.75879e-06
1.17857e-07
-1.80184e-06
9.83914e-08
-1.83749e-06
8.13382e-08
-1.86652e-06
6.61234e-08
-1.88952e-06
5.23029e-08
-1.90693e-06
3.95223e-08
-1.91907e-06
2.74923e-08
-1.92617e-06
1.59668e-08
-1.92833e-06
4.72767e-09
-1.92561e-06
-6.42706e-09
-1.91795e-06
-1.76952e-08
-1.90523e-06
-2.92811e-08
-1.8872e-06
-4.14062e-08
-1.86355e-06
-5.43216e-08
-1.83381e-06
-6.83228e-08
-1.79739e-06
-8.37729e-08
-1.75348e-06
-1.01128e-07
-1.70105e-06
-1.2098e-07
-1.63877e-06
-1.44111e-07
-1.56488e-06
-1.71581e-07
-1.47706e-06
-2.04862e-07
-1.37224e-06
-2.46045e-07
-1.24628e-06
-2.98172e-07
-1.0936e-06
-3.65787e-07
-9.066e-07
-4.55858e-07
-6.75084e-07
-5.79399e-07
-3.85872e-07
-7.54121e-07
-2.43456e-08
-1.00861e-06
4.21295e-07
-1.38921e-06
9.41997e-07
-1.96164e-06
1.46523e-06
-2.79158e-06
1.75933e-06
-3.84705e-06
1.34333e-06
-4.66638e-06
-3.46152e-06
1.04502e-06
2.49454e-06
1.8706e-06
3.90711e-06
2.13335e-06
3.6082e-06
2.05256e-06
2.86565e-06
1.82556e-06
2.16836e-06
1.56171e-06
1.63023e-06
1.30985e-06
1.23982e-06
1.08686e-06
9.59755e-07
8.95402e-07
7.56807e-07
7.32933e-07
6.07032e-07
5.95476e-07
4.94141e-07
4.7907e-07
4.07185e-07
3.80281e-07
3.38768e-07
2.96278e-07
2.83825e-07
2.24793e-07
2.38827e-07
1.64019e-07
2.01271e-07
1.1253e-07
1.69346e-07
6.91991e-08
1.41722e-07
3.31411e-08
1.17396e-07
3.66192e-09
9.56026e-08
-1.97755e-08
7.57402e-08
-3.75795e-08
5.73263e-08
-5.00486e-08
3.99615e-08
-5.73864e-08
2.33045e-08
-5.97102e-08
7.05154e-09
-5.70573e-08
-9.07999e-09
-4.9386e-08
-2.53665e-08
-3.65743e-08
-4.20928e-08
-1.84143e-08
-5.95662e-08
5.39692e-09
-7.81328e-08
3.52719e-08
-9.81978e-08
7.17517e-08
-1.20253e-07
1.15534e-07
-1.44911e-07
1.67508e-07
-1.72954e-07
2.28798e-07
-2.05402e-07
3.00828e-07
-2.43611e-07
3.85388e-07
-2.89422e-07
4.84717e-07
-3.45375e-07
6.01583e-07
-4.15037e-07
7.39306e-07
-5.0351e-07
9.01642e-07
-6.18194e-07
1.09221e-06
-7.69968e-07
1.31294e-06
-9.74848e-07
1.5604e-06
-1.25607e-06
1.81662e-06
-1.64543e-06
2.03247e-06
-2.17749e-06
2.10094e-06
-2.86004e-06
1.83181e-06
-3.57792e-06
1.01658e-06
-3.85116e-06
-2.44493e-06
6.73659e-07
1.82088e-06
1.42136e-06
3.15941e-06
1.85243e-06
3.17713e-06
1.99943e-06
2.71864e-06
1.97308e-06
2.19471e-06
1.86127e-06
1.74204e-06
1.71708e-06
1.38401e-06
1.56815e-06
1.10868e-06
1.42726e-06
8.97697e-07
1.29944e-06
7.34854e-07
1.18594e-06
6.07642e-07
1.0863e-06
5.0682e-07
9.99406e-07
4.25663e-07
9.2395e-07
3.59281e-07
8.58676e-07
3.04101e-07
8.02462e-07
2.57485e-07
7.54344e-07
2.17464e-07
7.13516e-07
1.8255e-07
6.79313e-07
1.51599e-07
6.512e-07
1.23716e-07
6.28747e-07
9.81931e-08
6.11624e-07
7.44495e-08
5.99584e-07
5.20014e-08
5.92457e-07
3.0431e-08
5.90145e-07
9.36422e-09
5.92613e-07
-1.15486e-08
5.99896e-07
-3.26497e-08
6.12094e-07
-5.42903e-08
6.29375e-07
-7.68477e-08
6.51986e-07
-1.00744e-07
6.80255e-07
-1.26467e-07
7.14606e-07
-1.54604e-07
7.5557e-07
-1.85875e-07
8.038e-07
-2.21184e-07
8.60086e-07
-2.61687e-07
9.25364e-07
-3.08889e-07
1.00071e-06
-3.64772e-07
1.08733e-06
-4.31989e-07
1.18641e-06
-5.14115e-07
1.29892e-06
-6.16023e-07
1.42509e-06
-7.44366e-07
1.56334e-06
-9.08218e-07
1.70823e-06
-1.11973e-06
1.84657e-06
-1.39442e-06
1.95062e-06
-1.74947e-06
1.96829e-06
-2.19516e-06
1.81492e-06
-2.70668e-06
1.38567e-06
-3.14867e-06
6.53189e-07
-3.11867e-06
-1.79174e-06
4.17657e-07
1.40322e-06
9.90375e-07
2.58669e-06
1.41303e-06
2.75448e-06
1.64169e-06
2.48998e-06
1.72254e-06
2.11386e-06
1.7112e-06
1.75338e-06
1.64962e-06
1.44559e-06
1.56456e-06
1.19374e-06
1.47164e-06
9.90612e-07
1.37943e-06
8.27061e-07
1.29232e-06
6.9476e-07
1.21229e-06
5.86844e-07
1.14007e-06
4.97886e-07
1.07567e-06
4.23678e-07
1.0188e-06
3.60974e-07
9.6901e-07
3.07274e-07
9.2583e-07
2.60644e-07
8.88806e-07
2.19575e-07
8.57528e-07
1.82877e-07
8.31643e-07
1.49601e-07
8.10857e-07
1.18979e-07
7.94934e-07
9.03724e-08
7.83694e-07
6.32413e-08
7.77011e-07
3.71145e-08
7.74808e-07
1.15667e-08
7.77061e-07
-1.38016e-08
7.83793e-07
-3.93818e-08
7.95077e-07
-6.55746e-08
8.11038e-07
-9.28078e-08
8.31849e-07
-1.21555e-07
8.57742e-07
-1.5236e-07
8.89003e-07
-1.85865e-07
9.25973e-07
-2.22845e-07
9.69044e-07
-2.64255e-07
1.01865e-06
-3.1129e-07
1.07522e-06
-3.65463e-07
1.13916e-06
-4.2871e-07
1.21069e-06
-5.03524e-07
1.2897e-06
-5.93125e-07
1.37535e-06
-7.01672e-07
1.46547e-06
-8.34483e-07
1.55548e-06
-9.9823e-07
1.63666e-06
-1.20091e-06
1.69336e-06
-1.45112e-06
1.69924e-06
-1.75535e-06
1.61363e-06
-2.10956e-06
1.38349e-06
-2.47654e-06
9.65893e-07
-2.73107e-06
4.05756e-07
-2.55854e-06
-1.38599e-06
2.66353e-07
1.13687e-06
6.8705e-07
2.166e-06
1.04734e-06
2.39419e-06
1.28573e-06
2.25159e-06
1.41308e-06
1.98651e-06
1.45961e-06
1.70685e-06
1.45379e-06
1.45141e-06
1.41695e-06
1.23058e-06
1.36353e-06
1.04404e-06
1.30275e-06
8.87839e-07
1.24029e-06
7.57222e-07
1.17949e-06
6.47645e-07
1.12223e-06
5.55142e-07
1.06951e-06
4.76404e-07
1.02176e-06
4.08724e-07
9.79115e-07
3.49914e-07
9.41547e-07
2.98212e-07
9.08925e-07
2.52197e-07
8.81085e-07
2.10717e-07
8.57857e-07
1.72829e-07
8.39085e-07
1.37751e-07
8.24631e-07
1.04826e-07
8.14386e-07
7.34863e-08
8.0827e-07
4.32308e-08
8.06233e-07
1.36034e-08
8.08258e-07
-1.5827e-08
8.1436e-07
-4.54836e-08
8.24584e-07
-7.5798e-08
8.39004e-07
-1.07228e-07
8.57725e-07
-1.40276e-07
8.80876e-07
-1.75511e-07
9.08605e-07
-2.13594e-07
9.41069e-07
-2.55308e-07
9.78411e-07
-3.01598e-07
1.02074e-06
-3.53615e-07
1.06805e-06
-4.12776e-07
1.12017e-06
-4.80834e-07
1.1766e-06
-5.59955e-07
1.23629e-06
-6.5281e-07
1.29726e-06
-7.62642e-07
1.35608e-06
-8.93304e-07
1.40702e-06
-1.04917e-06
1.44084e-06
-1.23473e-06
1.44331e-06
-1.45359e-06
1.39362e-06
-1.70566e-06
1.26438e-06
-1.98032e-06
1.02697e-06
-2.23913e-06
6.71886e-07
-2.37599e-06
2.59908e-07
-2.14656e-06
-1.12608e-06
1.79755e-07
9.57112e-07
4.90146e-07
1.8556e-06
7.83295e-07
2.10104e-06
1.00253e-06
2.03236e-06
1.14292e-06
1.84613e-06
1.2186e-06
1.63117e-06
1.24713e-06
1.42288e-06
1.24382e-06
1.23389e-06
1.22036e-06
1.0675e-06
1.18511e-06
9.23087e-07
1.14381e-06
7.98525e-07
1.10027e-06
6.91182e-07
1.05698e-06
5.9844e-07
1.01548e-06
5.17898e-07
9.76751e-07
4.47457e-07
9.41338e-07
3.85327e-07
9.0955e-07
3.3e-07
8.81534e-07
2.80213e-07
8.57339e-07
2.34911e-07
8.36963e-07
1.93205e-07
8.20371e-07
1.54343e-07
8.07521e-07
1.17676e-07
7.98371e-07
8.26359e-08
7.92887e-07
4.87151e-08
7.91045e-07
1.54454e-08
7.92836e-07
-1.76182e-08
7.98266e-07
-5.0913e-08
8.07352e-07
-8.48842e-08
8.20124e-07
-1.2e-07
8.36618e-07
-1.5677e-07
8.56869e-07
-1.95762e-07
8.80899e-07
-2.37625e-07
9.08701e-07
-2.8311e-07
9.40207e-07
-3.33103e-07
9.75249e-07
-3.88657e-07
1.0135e-06
-4.51024e-07
1.05436e-06
-5.21695e-07
1.09684e-06
-6.02435e-07
1.13933e-06
-6.95301e-07
1.17932e-06
-8.02627e-07
1.21295e-06
-9.26938e-07
1.2345e-06
-1.07072e-06
1.23572e-06
-1.23595e-06
1.20512e-06
-1.423e-06
1.1279e-06
-1.62844e-06
9.87205e-07
-1.83962e-06
7.69752e-07
-2.02167e-06
4.80891e-07
-2.08713e-06
1.76208e-07
-1.84188e-06
-9.4987e-07
1.28549e-07
8.28563e-07
3.62524e-07
1.62163e-06
5.98471e-07
1.86509e-06
7.90156e-07
1.84067e-06
9.27086e-07
1.7092e-06
1.01442e-06
1.54384e-06
1.0622e-06
1.37509e-06
1.0807e-06
1.2154e-06
1.07867e-06
1.06952e-06
1.06302e-06
9.38745e-07
1.03888e-06
8.22663e-07
1.00999e-06
7.2007e-07
9.78992e-07
6.29438e-07
9.47712e-07
5.49177e-07
9.17398e-07
4.77772e-07
8.88884e-07
4.13841e-07
8.62719e-07
3.56165e-07
8.39255e-07
3.03677e-07
8.18711e-07
2.55455e-07
8.0122e-07
2.10697e-07
7.86855e-07
1.68708e-07
7.75656e-07
1.28875e-07
7.67641e-07
9.06509e-08
7.62816e-07
5.35401e-08
7.61182e-07
1.70796e-08
7.62737e-07
-1.91733e-08
7.67479e-07
-5.56547e-08
7.75401e-07
-9.28068e-08
7.86493e-07
-1.31092e-07
8.00729e-07
-1.71007e-07
8.18064e-07
-2.13097e-07
8.38414e-07
-2.57974e-07
8.61636e-07
-3.06331e-07
8.87496e-07
-3.58964e-07
9.15626e-07
-4.16788e-07
9.45459e-07
-4.80856e-07
9.76136e-07
-5.52373e-07
1.00639e-06
-6.32688e-07
1.03437e-06
-7.2328e-07
1.05742e-06
-8.25682e-07
1.07183e-06
-9.41347e-07
1.07249e-06
-1.07138e-06
1.05263e-06
-1.21608e-06
1.00369e-06
-1.37407e-06
9.15773e-07
-1.54052e-06
7.79264e-07
-1.70311e-06
5.89413e-07
-1.83182e-06
3.56715e-07
-1.85443e-06
1.26472e-07
-1.61163e-06
-8.23398e-07
9.64231e-08
7.3214e-07
2.77268e-07
1.44078e-06
4.6787e-07
1.67449e-06
6.32007e-07
1.67654e-06
7.58298e-07
1.5829e-06
8.4733e-07
1.45481e-06
9.04408e-07
1.31801e-06
9.36077e-07
1.18373e-06
9.48583e-07
1.05702e-06
9.47271e-07
9.40057e-07
9.36453e-07
8.33481e-07
9.19474e-07
7.37049e-07
8.9886e-07
6.50052e-07
8.76481e-07
5.71556e-07
8.53701e-07
5.00551e-07
8.31503e-07
4.3604e-07
8.10585e-07
3.77084e-07
7.91437e-07
3.22825e-07
7.74401e-07
2.7249e-07
7.59713e-07
2.25385e-07
7.47533e-07
1.80889e-07
7.37964e-07
1.38443e-07
7.31076e-07
9.75388e-08
7.2691e-07
5.77066e-08
7.25486e-07
1.85036e-08
7.26809e-07
-2.0497e-08
7.30871e-07
-5.97166e-08
7.37645e-07
-9.9581e-08
7.47086e-07
-1.40532e-07
7.59118e-07
-1.83039e-07
7.73631e-07
-2.2761e-07
7.90457e-07
-2.748e-07
8.09352e-07
-3.25226e-07
8.29964e-07
-3.79575e-07
8.51788e-07
-4.38612e-07
8.74115e-07
-5.03183e-07
8.95949e-07
-5.74207e-07
9.15917e-07
-6.52656e-07
9.32143e-07
-7.39506e-07
9.42108e-07
-8.35646e-07
9.42492e-07
-9.41731e-07
9.29047e-07
-1.05794e-06
8.96536e-07
-1.18357e-06
8.38886e-07
-1.31642e-06
7.49782e-07
-1.45141e-06
6.24179e-07
-1.57751e-06
4.61657e-07
-1.6693e-06
2.73457e-07
-1.66623e-06
9.51129e-08
-1.43329e-06
-7.28285e-07
7.49655e-08
6.57174e-07
2.17989e-07
1.29776e-06
3.73325e-07
1.51915e-06
5.12816e-07
1.53704e-06
6.26024e-07
1.4697e-06
7.11441e-07
1.36939e-06
7.71548e-07
1.25791e-06
8.1034e-07
1.14493e-06
8.32101e-07
1.03525e-06
8.40816e-07
9.31341e-07
8.39927e-07
8.34371e-07
8.32269e-07
7.44707e-07
8.20109e-07
6.62212e-07
8.05217e-07
5.86448e-07
7.8895e-07
5.16817e-07
7.72338e-07
4.52652e-07
7.5615e-07
3.93272e-07
7.40958e-07
3.38017e-07
7.27182e-07
2.86265e-07
7.1513e-07
2.37437e-07
7.05021e-07
1.90998e-07
6.97011e-07
1.46453e-07
6.91206e-07
1.03343e-07
6.87676e-07
6.12373e-08
6.86456e-07
1.9723e-08
6.87559e-07
-2.15997e-08
6.90969e-07
-6.31265e-08
6.96644e-07
-1.05256e-07
7.04512e-07
-1.484e-07
7.1446e-07
-1.92988e-07
7.26328e-07
-2.39478e-07
7.39889e-07
-2.88361e-07
7.54828e-07
-3.40166e-07
7.70719e-07
-3.95466e-07
7.86982e-07
-4.54875e-07
8.02839e-07
-5.1904e-07
8.17255e-07
-5.88624e-07
8.28872e-07
-6.64273e-07
8.35923e-07
-7.46557e-07
8.36159e-07
-8.35882e-07
8.26777e-07
-9.32349e-07
8.04395e-07
-1.03555e-06
7.65117e-07
-1.14429e-06
7.04786e-07
-1.25608e-06
6.19555e-07
-1.36618e-06
5.07084e-07
-1.46504e-06
3.68929e-07
-1.53115e-06
2.15371e-07
-1.51267e-06
7.40814e-08
-1.292e-06
-6.54204e-07
5.98184e-08
5.97356e-07
1.75101e-07
1.18248e-06
3.02938e-07
1.39131e-06
4.21307e-07
1.41868e-06
5.21242e-07
1.36976e-06
6.00441e-07
1.29019e-06
6.59788e-07
1.19856e-06
7.01604e-07
1.10312e-06
7.28739e-07
1.00812e-06
7.44077e-07
9.16004e-07
7.50274e-07
8.28174e-07
7.49646e-07
7.45335e-07
7.44139e-07
6.67719e-07
7.35343e-07
5.95245e-07
7.24531e-07
5.27629e-07
7.12708e-07
4.64474e-07
7.00659e-07
4.05321e-07
6.88987e-07
3.49689e-07
6.78153e-07
2.97099e-07
6.68506e-07
2.47084e-07
6.60307e-07
1.99197e-07
6.53743e-07
1.53016e-07
6.48951e-07
1.08136e-07
6.46017e-07
6.41714e-08
6.44991e-07
2.07487e-08
6.45888e-07
-2.24971e-08
6.4869e-07
-6.59284e-08
6.53343e-07
-1.09909e-07
6.59755e-07
-1.54812e-07
6.67787e-07
-2.0102e-07
6.77246e-07
-2.48937e-07
6.87867e-07
-2.98981e-07
6.99295e-07
-3.51595e-07
7.11066e-07
-4.07237e-07
7.2257e-07
-4.66378e-07
7.33019e-07
-5.2949e-07
7.4141e-07
-5.97014e-07
7.4647e-07
-6.69333e-07
7.4662e-07
-7.46708e-07
7.39935e-07
-8.29197e-07
7.24132e-07
-9.16546e-07
6.96602e-07
-1.00802e-06
6.54534e-07
-1.10223e-06
5.95164e-07
-1.19671e-06
5.16263e-07
-1.28728e-06
4.1702e-07
-1.3658e-06
2.99734e-07
-1.41386e-06
1.73228e-07
-1.38617e-06
5.91893e-08
-1.17796e-06
-5.95014e-07
4.86283e-08
5.48727e-07
1.4294e-07
1.08817e-06
2.49076e-07
1.28518e-06
3.49609e-07
1.31814e-06
4.37057e-07
1.28231e-06
5.08965e-07
1.21828e-06
5.65358e-07
1.14217e-06
6.07497e-07
1.06098e-06
6.37226e-07
9.78389e-07
6.56583e-07
8.96648e-07
6.67568e-07
8.17188e-07
6.72024e-07
7.40879e-07
6.71566e-07
6.68177e-07
6.67574e-07
5.99237e-07
6.61192e-07
5.34011e-07
6.53359e-07
4.72307e-07
6.44829e-07
4.13851e-07
6.36202e-07
3.58316e-07
6.27951e-07
3.0535e-07
6.20442e-07
2.54593e-07
6.13955e-07
2.05684e-07
6.08701e-07
1.58271e-07
6.04828e-07
1.12008e-07
6.0244e-07
6.65602e-08
6.01592e-07
2.15964e-08
6.02303e-07
-2.32082e-08
6.04552e-07
-6.81773e-08
6.08278e-07
-1.13635e-07
6.13377e-07
-1.5991e-07
6.19694e-07
-2.07338e-07
6.27017e-07
-2.5626e-07
6.35062e-07
-3.07026e-07
6.43458e-07
-3.59991e-07
6.51732e-07
-4.1551e-07
6.5928e-07
-4.73926e-07
6.65347e-07
-5.35557e-07
6.69e-07
-6.00667e-07
6.69097e-07
-6.6943e-07
6.64273e-07
-7.41883e-07
6.52929e-07
-8.17854e-07
6.33256e-07
-8.96872e-07
6.03291e-07
-9.7806e-07
5.61048e-07
-1.05998e-06
5.04744e-07
-1.14041e-06
4.3317e-07
-1.21571e-06
3.46336e-07
-1.27896e-06
2.46674e-07
-1.3142e-06
1.41553e-07
-1.28105e-06
4.8162e-08
-1.08457e-06
-5.46852e-07
4.00502e-08
5.08677e-07
1.18054e-07
1.01016e-06
2.06784e-07
1.19645e-06
2.9228e-07
1.23265e-06
3.68369e-07
1.20622e-06
4.32737e-07
1.15391e-06
4.8498e-07
1.08993e-06
5.25711e-07
1.02025e-06
5.56084e-07
9.48016e-07
5.77512e-07
8.7522e-07
5.91476e-07
8.03225e-07
5.99408e-07
7.32948e-07
6.0262e-07
6.64964e-07
6.02277e-07
5.99581e-07
5.99379e-07
5.36909e-07
5.94768e-07
4.76918e-07
5.89146e-07
4.19474e-07
5.83083e-07
3.64379e-07
5.7704e-07
3.11394e-07
5.71381e-07
2.60251e-07
5.66394e-07
2.10672e-07
5.62293e-07
1.62372e-07
5.59237e-07
1.15064e-07
5.57335e-07
6.84628e-08
5.56647e-07
2.22841e-08
5.57193e-07
-2.37547e-08
5.58952e-07
-6.99358e-08
5.61858e-07
-1.16541e-07
5.65802e-07
-1.63854e-07
5.70622e-07
-2.12158e-07
5.76099e-07
-2.61737e-07
5.81946e-07
-3.12873e-07
5.87795e-07
-3.65841e-07
5.93185e-07
-4.209e-07
5.97544e-07
-4.78285e-07
6.00174e-07
-5.38187e-07
6.00235e-07
-6.00728e-07
5.96735e-07
-6.6593e-07
5.88523e-07
-7.33671e-07
5.74303e-07
-8.03634e-07
5.52667e-07
-8.75236e-07
5.22166e-07
-9.47559e-07
4.81424e-07
-1.01924e-06
4.29325e-07
-1.08831e-06
3.6529e-07
-1.15167e-06
2.89731e-07
-1.2034e-06
2.0494e-07
-1.22941e-06
1.16997e-07
-1.1931e-06
3.96927e-08
-1.00727e-06
-5.0716e-07
3.32684e-08
4.75409e-07
9.82596e-08
9.45172e-07
1.72778e-07
1.12193e-06
2.45524e-07
1.1599e-06
3.11427e-07
1.14032e-06
3.68424e-07
1.09691e-06
4.15932e-07
1.04242e-06
4.54175e-07
9.82006e-07
4.8385e-07
9.1834e-07
5.05919e-07
8.53151e-07
5.21459e-07
7.87684e-07
5.31569e-07
7.22838e-07
5.37296e-07
6.59237e-07
5.39601e-07
5.97276e-07
5.39337e-07
5.37173e-07
5.37244e-07
4.79011e-07
5.33951e-07
4.22767e-07
5.29985e-07
3.68346e-07
5.25777e-07
3.15601e-07
5.2168e-07
2.64348e-07
5.1797e-07
2.14382e-07
5.14861e-07
1.6548e-07
5.12513e-07
1.17412e-07
5.11033e-07
6.99424e-08
5.10485e-07
2.28318e-08
5.1089e-07
-2.4159e-08
5.12224e-07
-7.12698e-08
5.14422e-07
-1.1874e-07
5.17375e-07
-1.66807e-07
5.20921e-07
-2.15704e-07
5.24845e-07
-2.65661e-07
5.28868e-07
-3.16895e-07
5.32638e-07
-3.69611e-07
5.35722e-07
-4.23984e-07
5.37595e-07
-4.80159e-07
5.37632e-07
-5.38224e-07
5.35096e-07
-5.98192e-07
5.29142e-07
-6.59976e-07
5.18822e-07
-7.23351e-07
5.03101e-07
-7.87913e-07
4.80904e-07
-8.53039e-07
4.51173e-07
-9.17828e-07
4.12975e-07
-9.81043e-07
3.65637e-07
-1.04097e-06
3.08951e-07
-1.09498e-06
2.43503e-07
-1.13796e-06
1.7133e-07
-1.15723e-06
9.74325e-08
-1.11921e-06
3.29874e-08
-9.42821e-07
-4.74172e-07
2.77624e-08
4.47646e-07
8.21196e-08
8.90815e-07
1.44823e-07
1.05923e-06
2.06655e-07
1.09807e-06
2.63455e-07
1.08352e-06
3.13444e-07
1.04693e-06
3.5599e-07
9.99872e-07
3.91099e-07
9.46897e-07
4.19168e-07
8.90271e-07
4.40839e-07
8.3148e-07
4.56889e-07
7.71634e-07
4.68147e-07
7.1158e-07
4.75437e-07
6.51947e-07
4.79541e-07
5.93173e-07
4.81171e-07
5.35543e-07
4.80963e-07
4.79219e-07
4.7947e-07
4.2426e-07
4.77163e-07
3.70653e-07
4.74437e-07
3.18326e-07
4.71619e-07
2.67167e-07
4.68969e-07
2.17032e-07
4.66691e-07
1.67758e-07
4.64939e-07
1.19164e-07
4.63818e-07
7.10633e-08
4.6339e-07
2.32598e-08
4.63675e-07
-2.44435e-08
4.64651e-07
-7.22455e-08
4.66254e-07
-1.20344e-07
4.68379e-07
-1.68932e-07
4.70871e-07
-2.18196e-07
4.73525e-07
-2.68315e-07
4.76078e-07
-3.19449e-07
4.78205e-07
-3.71738e-07
4.79513e-07
-4.25292e-07
4.7953e-07
-4.80176e-07
4.77708e-07
-5.36402e-07
4.73417e-07
-5.93901e-07
4.65949e-07
-6.52509e-07
4.54536e-07
-7.11937e-07
4.38363e-07
-7.71741e-07
4.16619e-07
-8.31294e-07
3.88542e-07
-8.89751e-07
3.5351e-07
-9.46011e-07
3.11139e-07
-9.98602e-07
2.61434e-07
-1.04528e-06
2.05024e-07
-1.08154e-06
1.43663e-07
-1.09587e-06
8.14594e-08
-1.057e-06
2.75373e-08
-8.88899e-07
-4.46635e-07
2.31854e-08
4.24461e-07
6.86593e-08
8.45341e-07
1.21359e-07
1.00653e-06
1.73737e-07
1.04569e-06
2.22384e-07
1.03487e-06
2.65793e-07
1.00352e-06
3.03357e-07
9.62308e-07
3.34965e-07
9.15289e-07
3.60825e-07
8.64412e-07
3.81356e-07
8.10949e-07
3.97111e-07
7.55879e-07
4.08709e-07
6.99982e-07
4.16792e-07
6.43864e-07
4.21986e-07
5.87979e-07
4.24877e-07
5.32652e-07
4.26002e-07
4.78094e-07
4.25835e-07
4.24427e-07
4.2479e-07
3.71698e-07
4.23218e-07
3.19897e-07
4.21415e-07
2.68971e-07
4.19618e-07
2.18829e-07
4.18017e-07
1.69359e-07
4.16754e-07
1.20427e-07
4.1593e-07
7.18879e-08
4.15601e-07
2.35884e-08
4.15788e-07
-2.46299e-08
4.16469e-07
-7.29268e-08
4.17586e-07
-1.21461e-07
4.19039e-07
-1.70384e-07
4.20684e-07
-2.19842e-07
4.22332e-07
-2.69963e-07
4.23744e-07
-3.2086e-07
4.24626e-07
-3.7262e-07
4.24627e-07
-4.25293e-07
4.23338e-07
-4.78887e-07
4.20285e-07
-5.33349e-07
4.14939e-07
-5.88555e-07
4.06718e-07
-6.44289e-07
3.95006e-07
-7.00225e-07
3.79172e-07
-7.55906e-07
3.58606e-07
-8.10728e-07
3.32769e-07
-8.63915e-07
3.01254e-07
-9.14496e-07
2.63863e-07
-9.6121e-07
2.2071e-07
-1.00213e-06
1.72398e-07
-1.03323e-06
1.20413e-07
-1.04389e-06
6.81214e-08
-1.00471e-06
2.30014e-08
-8.43779e-07
-4.23634e-07
1.92966e-08
4.05165e-07
5.7194e-08
8.07443e-07
1.01272e-07
9.6245e-07
1.45351e-07
1.00161e-06
1.86647e-07
9.93577e-07
2.23906e-07
9.66258e-07
2.56576e-07
9.29637e-07
2.84496e-07
8.8737e-07
3.07753e-07
8.41154e-07
3.26618e-07
7.92084e-07
3.41478e-07
7.4102e-07
3.52791e-07
6.88668e-07
3.61052e-07
6.35603e-07
3.66755e-07
5.82276e-07
3.70376e-07
5.2903e-07
3.72359e-07
4.76111e-07
3.73105e-07
4.23681e-07
3.72968e-07
3.71834e-07
3.72255e-07
3.2061e-07
3.71225e-07
2.70001e-07
3.70091e-07
2.19964e-07
3.69022e-07
1.70427e-07
3.68149e-07
1.213e-07
3.67562e-07
7.24752e-08
3.67314e-07
2.38366e-08
3.67422e-07
-2.47383e-08
3.67869e-07
-7.33736e-08
3.686e-07
-1.22192e-07
3.69525e-07
-1.71309e-07
3.70515e-07
-2.20831e-07
3.71398e-07
-2.70846e-07
3.71963e-07
-3.21426e-07
3.71952e-07
-3.72609e-07
3.71059e-07
-4.24401e-07
3.68933e-07
-4.76761e-07
3.65177e-07
-5.29592e-07
3.5935e-07
-5.82728e-07
3.50983e-07
-6.35922e-07
3.39588e-07
-6.88829e-07
3.24679e-07
-7.40998e-07
3.05807e-07
-7.91856e-07
2.82592e-07
-8.407e-07
2.54774e-07
-8.86678e-07
2.22269e-07
-9.28705e-07
1.8524e-07
-9.65098e-07
1.44233e-07
-9.92226e-07
1.00484e-07
-1.00014e-06
5.67467e-08
-9.60974e-07
1.91431e-08
-8.06175e-07
-4.04491e-07
1.59236e-08
3.89241e-07
4.72293e-08
7.76138e-07
8.37432e-08
9.25937e-07
1.20436e-07
9.6492e-07
1.55048e-07
9.58965e-07
1.86551e-07
9.34755e-07
2.14467e-07
9.01721e-07
2.38618e-07
8.63219e-07
2.59025e-07
8.20747e-07
2.75854e-07
7.75255e-07
2.89375e-07
7.27499e-07
2.99924e-07
6.78119e-07
3.07876e-07
6.27651e-07
3.13618e-07
5.76534e-07
3.1753e-07
5.25118e-07
3.19973e-07
4.73668e-07
3.21278e-07
4.22375e-07
3.21743e-07
3.71369e-07
3.21629e-07
3.20725e-07
3.21158e-07
2.70472e-07
3.20515e-07
2.20606e-07
3.1985e-07
1.71092e-07
3.19275e-07
1.21874e-07
3.18871e-07
7.2879e-08
3.18686e-07
2.40221e-08
3.18734e-07
-2.47868e-08
3.19001e-07
-7.36404e-08
3.19438e-07
-1.22629e-07
3.19966e-07
-1.71837e-07
3.2047e-07
-2.21335e-07
3.20803e-07
-2.71179e-07
3.2078e-07
-3.21403e-07
3.2018e-07
-3.72009e-07
3.18744e-07
-4.22964e-07
3.16177e-07
-4.74194e-07
3.1215e-07
-5.25565e-07
3.06308e-07
-5.76886e-07
2.98273e-07
-6.27888e-07
2.87667e-07
-6.78223e-07
2.7412e-07
-7.27451e-07
2.57302e-07
-7.75038e-07
2.36949e-07
-8.20348e-07
2.12902e-07
-8.62631e-07
1.85141e-07
-9.00944e-07
1.53845e-07
-9.33802e-07
1.19485e-07
-9.57866e-07
8.30761e-08
-9.63729e-07
4.68503e-08
-9.24748e-07
1.57931e-08
-7.75118e-07
-3.88697e-07
1.29393e-08
3.76302e-07
3.83994e-08
7.50678e-07
6.81604e-08
8.96176e-07
9.81803e-08
9.349e-07
1.26651e-07
9.30494e-07
1.52745e-07
9.08662e-07
1.7606e-07
8.78405e-07
1.96428e-07
8.42852e-07
2.13831e-07
8.03344e-07
2.28369e-07
7.60717e-07
2.40226e-07
7.15642e-07
2.49647e-07
6.68698e-07
2.56912e-07
6.20386e-07
2.62319e-07
5.71128e-07
2.66165e-07
5.21272e-07
2.68738e-07
4.71095e-07
2.70306e-07
4.20807e-07
2.71113e-07
3.70562e-07
2.71375e-07
3.20463e-07
2.71278e-07
2.70569e-07
2.70978e-07
2.20906e-07
2.70601e-07
1.71469e-07
2.70244e-07
1.22231e-07
2.69976e-07
7.31471e-08
2.69838e-07
2.41605e-08
2.69842e-07
-2.47917e-08
2.69977e-07
-7.3775e-08
2.70201e-07
-1.22853e-07
2.70445e-07
-1.72081e-07
2.70613e-07
-2.21503e-07
2.7058e-07
-2.71146e-07
2.7019e-07
-3.21013e-07
2.69259e-07
-3.71077e-07
2.67573e-07
-4.21279e-07
2.64891e-07
-4.71511e-07
2.60947e-07
-5.21622e-07
2.55458e-07
-5.71396e-07
2.4813e-07
-6.20559e-07
2.3867e-07
-6.68762e-07
2.26802e-07
-7.15583e-07
2.12287e-07
-7.60523e-07
1.94946e-07
-8.03006e-07
1.74681e-07
-8.42366e-07
1.51512e-07
-8.77775e-07
1.25606e-07
-9.07897e-07
9.73579e-08
-9.29618e-07
6.75846e-08
-9.33955e-07
3.80726e-08
-8.95236e-07
1.28268e-08
-7.49872e-07
-3.75871e-07
1.02483e-08
3.66053e-07
3.04261e-08
7.305e-07
5.40521e-08
8.7255e-07
7.79537e-08
9.10998e-07
1.00717e-07
9.07731e-07
1.21691e-07
8.87688e-07
1.40554e-07
8.59542e-07
1.57157e-07
8.26249e-07
1.71466e-07
7.89034e-07
1.83539e-07
7.48645e-07
1.93498e-07
7.05683e-07
2.01519e-07
6.60678e-07
2.07806e-07
6.14098e-07
2.12584e-07
5.6635e-07
2.1608e-07
5.17776e-07
2.18518e-07
4.68658e-07
2.20107e-07
4.19218e-07
2.21042e-07
3.69627e-07
2.21494e-07
3.2001e-07
2.21615e-07
2.70449e-07
2.21531e-07
2.20991e-07
2.21345e-07
1.71655e-07
2.21137e-07
1.22439e-07
2.20963e-07
7.33206e-08
2.20858e-07
2.42657e-08
2.20832e-07
-2.47662e-08
2.20876e-07
-7.38183e-08
2.20954e-07
-1.22931e-07
2.21012e-07
-1.72139e-07
2.2097e-07
-2.21461e-07
2.20726e-07
-2.70902e-07
2.20154e-07
-3.20441e-07
2.19105e-07
-3.70029e-07
2.17409e-07
-4.19583e-07
2.14875e-07
-4.68977e-07
2.11294e-07
-5.18041e-07
2.06447e-07
-5.6655e-07
2.0011e-07
-6.14222e-07
1.92064e-07
-6.60716e-07
1.82105e-07
-7.05625e-07
1.70064e-07
-7.48482e-07
1.5582e-07
-7.88762e-07
1.39319e-07
-8.25865e-07
1.20593e-07
-8.59049e-07
9.97905e-08
-8.87094e-07
7.72278e-08
-9.07056e-07
5.35453e-08
-9.10273e-07
3.01385e-08
-8.7183e-07
1.01492e-08
-7.29883e-07
-3.65722e-07
7.77561e-09
3.58278e-07
2.30906e-08
7.15185e-07
4.10457e-08
8.54595e-07
5.92501e-08
8.92794e-07
7.6642e-08
8.90339e-07
9.27318e-08
8.71598e-07
1.07273e-07
8.45001e-07
1.20144e-07
8.13378e-07
1.3131e-07
7.77868e-07
1.408e-07
7.39155e-07
1.48695e-07
6.97787e-07
1.55115e-07
6.54257e-07
1.60208e-07
6.09006e-07
1.64133e-07
5.62424e-07
1.6706e-07
5.14849e-07
1.69154e-07
4.66564e-07
1.70572e-07
4.17799e-07
1.71462e-07
3.68738e-07
1.71955e-07
3.19517e-07
1.72167e-07
2.70237e-07
1.72195e-07
2.20962e-07
1.7212e-07
1.7173e-07
1.72004e-07
1.22555e-07
1.71891e-07
7.34335e-08
1.71808e-07
2.43489e-08
1.71763e-07
-2.47217e-08
1.71749e-07
-7.3804e-08
1.71739e-07
-1.22921e-07
1.71689e-07
-1.72089e-07
1.71539e-07
-2.21311e-07
1.7121e-07
-2.70572e-07
1.70603e-07
-3.19835e-07
1.69607e-07
-3.69032e-07
1.6809e-07
-4.18066e-07
1.65909e-07
-4.66796e-07
1.62908e-07
-5.1504e-07
1.58924e-07
-5.62566e-07
1.53792e-07
-6.09091e-07
1.47355e-07
-6.54278e-07
1.39469e-07
-6.97738e-07
1.30016e-07
-7.3903e-07
1.18918e-07
-7.77664e-07
1.06146e-07
-8.13092e-07
9.17348e-08
-8.44638e-07
7.58042e-08
-8.71164e-07
5.85955e-08
-8.89847e-07
4.05894e-08
-8.92267e-07
2.28317e-08
-8.54072e-07
7.6858e-09
-7.14737e-07
-3.58036e-07
5.45989e-09
3.52818e-07
1.62154e-08
7.04429e-07
2.88365e-08
8.41974e-07
4.16531e-08
8.79977e-07
5.3925e-08
8.78067e-07
6.53107e-08
8.60212e-07
7.56359e-08
8.34676e-07
8.48121e-08
8.04201e-07
9.28083e-08
7.69872e-07
9.96389e-08
7.32324e-07
1.05355e-07
6.92072e-07
1.10033e-07
6.49578e-07
1.13773e-07
6.05266e-07
1.16682e-07
5.59515e-07
1.18876e-07
5.12655e-07
1.20469e-07
4.64971e-07
1.21572e-07
4.16697e-07
1.22285e-07
3.68024e-07
1.22704e-07
3.19098e-07
1.22909e-07
2.70032e-07
1.2297e-07
2.20901e-07
1.22944e-07
1.71756e-07
1.22876e-07
1.22624e-07
1.22797e-07
7.35123e-08
1.22727e-07
2.44192e-08
1.22672e-07
-2.46665e-08
1.22626e-07
-7.3758e-08
1.22571e-07
-1.22866e-07
1.22475e-07
-1.71994e-07
1.22296e-07
-2.21132e-07
1.21977e-07
-2.70253e-07
1.2145e-07
-3.19307e-07
1.20635e-07
-3.68217e-07
1.19441e-07
-4.16872e-07
1.17767e-07
-4.65122e-07
1.15505e-07
-5.12778e-07
1.12545e-07
-5.59605e-07
1.08774e-07
-6.0532e-07
1.04085e-07
-6.4959e-07
9.83837e-08
-6.92037e-07
9.15937e-08
-7.3224e-07
8.3666e-08
-7.69736e-07
7.45866e-08
-8.04013e-07
6.43859e-08
-8.34437e-07
5.31502e-08
-8.59928e-07
4.10492e-08
-8.77746e-07
2.84161e-08
-8.79634e-07
1.59769e-08
-8.41633e-07
5.37666e-09
-7.04137e-07
-3.52659e-07
3.24989e-09
3.49568e-07
9.65144e-09
6.98028e-07
1.71681e-08
8.34457e-07
2.4809e-08
8.72337e-07
3.21353e-08
8.70741e-07
3.89443e-08
8.53403e-07
4.51316e-08
8.28489e-07
5.06429e-08
7.9869e-07
5.54576e-08
7.65058e-07
5.95818e-08
7.282e-07
6.30431e-08
6.88611e-07
6.58855e-08
6.46736e-07
6.81654e-08
6.02987e-07
6.9946e-08
5.57734e-07
7.12946e-08
5.11307e-07
7.22786e-08
4.63987e-07
7.2963e-08
4.16013e-07
7.3409e-08
3.67578e-07
7.36721e-08
3.18835e-07
7.3801e-08
2.69903e-07
7.38378e-08
2.20865e-07
7.38166e-08
1.71777e-07
7.37645e-08
1.22676e-07
7.37007e-08
7.35762e-08
7.36368e-08
2.44832e-08
7.35769e-08
-2.46066e-08
7.35177e-08
-7.36988e-08
7.34482e-08
-1.22797e-07
7.33501e-08
-1.71896e-07
7.31976e-08
-2.2098e-07
7.29575e-08
-2.70013e-07
7.25893e-08
-3.18939e-07
7.20458e-08
-3.67674e-07
7.12733e-08
-4.16099e-07
7.0213e-08
-4.64062e-07
6.8802e-08
-5.11367e-07
6.69752e-08
-5.57779e-07
6.46681e-08
-6.03012e-07
6.18195e-08
-6.46741e-07
5.83757e-08
-6.88593e-07
5.42939e-08
-7.28158e-07
4.9548e-08
-7.6499e-07
4.41319e-08
-7.98597e-07
3.80656e-08
-8.28371e-07
3.1401e-08
-8.53263e-07
2.42378e-08
-8.70583e-07
1.67713e-08
-8.72167e-07
9.42672e-09
-8.34288e-07
3.17149e-09
-6.97881e-07
-3.49488e-07
1.10159e-09
3.48466e-07
3.26908e-09
6.9586e-07
5.8153e-09
8.31911e-07
8.40501e-09
8.69747e-07
1.08889e-08
8.68257e-07
1.31972e-08
8.51095e-07
1.5294e-08
8.26392e-07
1.71603e-08
7.96824e-07
1.87885e-08
7.63429e-07
2.01804e-08
7.26808e-07
2.13449e-08
6.87446e-07
2.22969e-08
6.45784e-07
2.30553e-08
6.02228e-07