/*--------------------------------*- C++ -*----------------------------------*\
  =========                 |
  \\      /  F ield         | OpenFOAM: The Open Source CFD Toolbox
   \\    /   O peration     | Website:  https://openfoam.org
    \\  /    A nd           | Version:  7
     \\/     M anipulation  |
\*---------------------------------------------------------------------------*/
FoamFile
{
    version     2.0;
    format      ascii;
    class       volVectorField;
    location    "0.0412";
    object      U;
}
// * * * * * * * * * * * * * * * * * * * * * * * * * * * * * * * * * * * * * //

dimensions      [0 1 -1 0 0 0 0];

internalField   nonuniform List<vector> 
2500
(
(2.7407e-05 -2.72905e-05 0)
(8.11654e-05 -3.21976e-05 0)
(0.000107654 -1.50005e-05 0)
(7.25804e-05 9.32234e-06 0)
(-3.41e-05 3.38612e-05 0)
(-0.000210225 5.62791e-05 0)
(-0.000448757 7.55393e-05 0)
(-0.000741081 9.13936e-05 0)
(-0.0010777 0.000103903 0)
(-0.00144894 0.000113233 0)
(-0.00184536 0.000119586 0)
(-0.00225788 0.000123178 0)
(-0.00267792 0.000124224 0)
(-0.00309748 0.000122935 0)
(-0.0035091 0.000119518 0)
(-0.00390595 0.00011417 0)
(-0.00428182 0.000107083 0)
(-0.00463106 9.84425e-05 0)
(-0.00494865 8.84269e-05 0)
(-0.00523015 7.72092e-05 0)
(-0.00547172 6.49586e-05 0)
(-0.00567008 5.18415e-05 0)
(-0.00582253 3.80237e-05 0)
(-0.00592696 2.36718e-05 0)
(-0.00598186 8.95523e-06 0)
(-0.00598631 -5.95227e-06 0)
(-0.00594 -2.08713e-05 0)
(-0.00584327 -3.56157e-05 0)
(-0.00569711 -4.99909e-05 0)
(-0.0055032 -6.37946e-05 0)
(-0.00526392 -7.68166e-05 0)
(-0.00498236 -8.88391e-05 0)
(-0.00466236 -9.9638e-05 0)
(-0.0043085 -0.000108985 0)
(-0.00392613 -0.000116649 0)
(-0.00352132 -0.000122399 0)
(-0.00310086 -0.000126008 0)
(-0.00267224 -0.000127255 0)
(-0.0022436 -0.000125927 0)
(-0.00182364 -0.000121826 0)
(-0.00142154 -0.000114767 0)
(-0.00104686 -0.00010459 0)
(-0.00070935 -9.11649e-05 0)
(-0.000418739 -7.44182e-05 0)
(-0.000184301 -5.44048e-05 0)
(-1.41829e-05 -3.14999e-05 0)
(8.55729e-05 -6.80226e-06 0)
(0.000113974 1.71164e-05 0)
(8.24506e-05 3.32909e-05 0)
(2.71124e-05 2.70573e-05 0)
(3.27022e-05 -8.12124e-05 0)
(6.93029e-05 -6.81345e-05 0)
(1.33683e-05 2.69188e-05 0)
(-0.000186832 0.000153128 0)
(-0.000551168 0.000284888 0)
(-0.00107866 0.000409511 0)
(-0.00175738 0.000520326 0)
(-0.00256926 0.000614278 0)
(-0.00349281 0.000690213 0)
(-0.00450497 0.000747976 0)
(-0.00558228 0.000787981 0)
(-0.00670163 0.000810972 0)
(-0.0078407 0.000817891 0)
(-0.00897832 0.000809794 0)
(-0.0100946 0.000787802 0)
(-0.0111712 0.000753067 0)
(-0.0121911 0.000706753 0)
(-0.013139 0.000650025 0)
(-0.0140012 0.000584037 0)
(-0.0147654 0.000509937 0)
(-0.015421 0.000428863 0)
(-0.0159592 0.000341954 0)
(-0.0163725 0.000250348 0)
(-0.0166551 0.000155197 0)
(-0.0168029 5.76723e-05 0)
(-0.0168135 -4.10296e-05 0)
(-0.0166862 -0.000139678 0)
(-0.016422 -0.000237005 0)
(-0.0160238 -0.000331701 0)
(-0.0154963 -0.000422413 0)
(-0.0148462 -0.000507753 0)
(-0.0140819 -0.000586298 0)
(-0.0132141 -0.000656605 0)
(-0.0122553 -0.00071722 0)
(-0.01122 -0.000766702 0)
(-0.0101247 -0.000803639 0)
(-0.00898749 -0.000826676 0)
(-0.00782843 -0.000834547 0)
(-0.006669 -0.000826106 0)
(-0.00553195 -0.000800376 0)
(-0.00444101 -0.000756603 0)
(-0.00342038 -0.000694337 0)
(-0.00249421 -0.000613566 0)
(-0.00168567 -0.000514932 0)
(-0.00101572 -0.000400159 0)
(-0.000501261 -0.000272897 0)
(-0.000152254 -0.000140302 0)
(3.26434e-05 -1.56904e-05 0)
(7.60919e-05 7.52298e-05 0)
(3.35348e-05 8.24099e-05 0)
(1.65837e-05 -0.000109219 0)
(-2.24812e-05 -1.34386e-05 0)
(-0.000232736 0.000238142 0)
(-0.000656109 0.000555369 0)
(-0.00131159 0.000888327 0)
(-0.00219808 0.00120732 0)
(-0.00330029 0.00149505 0)
(-0.00459394 0.0017421 0)
(-0.00604934 0.00194381 0)
(-0.0076338 0.00209846 0)
(-0.00931339 0.00220612 0)
(-0.0110541 0.00226805 0)
(-0.0128227 0.00228625 0)
(-0.0145874 0.00226322 0)
(-0.016318 0.00220176 0)
(-0.0179864 0.00210485 0)
(-0.0195666 0.00197559 0)
(-0.0210351 0.00181714 0)
(-0.0223705 0.00163268 0)
(-0.0235539 0.0014254 0)
(-0.0245691 0.0011985 0)
(-0.025402 0.000955194 0)
(-0.0260412 0.00069871 0)
(-0.0264779 0.000432321 0)
(-0.0267057 0.000159355 0)
(-0.0267209 -0.000116789 0)
(-0.0265225 -0.000392625 0)
(-0.0261123 -0.000664572 0)
(-0.0254947 -0.000928944 0)
(-0.0246773 -0.00118196 0)
(-0.0236702 -0.00141974 0)
(-0.022487 -0.00163836 0)
(-0.0211439 -0.00183383 0)
(-0.0196603 -0.00200218 0)
(-0.0180585 -0.00213952 0)
(-0.0163636 -0.00224205 0)
(-0.0146035 -0.0023062 0)
(-0.0128084 -0.0023287 0)
(-0.0110108 -0.00230671 0)
(-0.00924473 -0.00223794 0)
(-0.00754536 -0.00212086 0)
(-0.00594828 -0.00195498 0)
(-0.00448836 -0.00174121 0)
(-0.00319849 -0.0014825 0)
(-0.0021077 -0.00118486 0)
(-0.00123869 -0.000859106 0)
(-0.000604284 -0.000523816 0)
(-0.000202529 -0.000209755 0)
(-1.09143e-05 3.29227e-05 0)
(1.83226e-05 0.000115465 0)
(-6.50097e-06 -7.79432e-05 0)
(-0.00014532 0.000182821 0)
(-0.000545889 0.000660276 0)
(-0.00122585 0.00123343 0)
(-0.00219479 0.00182947 0)
(-0.00344804 0.00240147 0)
(-0.00496596 0.00291997 0)
(-0.00671878 0.00336752 0)
(-0.00867025 0.00373457 0)
(-0.0107803 0.00401672 0)
(-0.0130067 0.00421311 0)
(-0.0153069 0.00432519 0)
(-0.017639 0.00435604 0)
(-0.0199624 0.00430979 0)
(-0.0222385 0.00419133 0)
(-0.0244312 0.004006 0)
(-0.0265068 0.00375946 0)
(-0.0284347 0.00345754 0)
(-0.0301874 0.00310619 0)
(-0.0317401 0.00271144 0)
(-0.0330717 0.00227936 0)
(-0.0341639 0.00181605 0)
(-0.0350017 0.00132771 0)
(-0.0355738 0.000820594 0)
(-0.0358717 0.00030107 0)
(-0.0358909 -0.000224354 0)
(-0.03563 -0.000749017 0)
(-0.0350914 -0.00126609 0)
(-0.034281 -0.00176855 0)
(-0.0332086 -0.00224924 0)
(-0.0318879 -0.00270082 0)
(-0.0303362 -0.00311589 0)
(-0.0285748 -0.00348698 0)
(-0.0266288 -0.00380668 0)
(-0.0245271 -0.00406776 0)
(-0.0223022 -0.00426326 0)
(-0.0199899 -0.00438668 0)
(-0.0176289 -0.00443217 0)
(-0.0152608 -0.00439478 0)
(-0.0129286 -0.00427073 0)
(-0.0106769 -0.0040578 0)
(-0.0085502 -0.00375585 0)
(-0.00659178 -0.00336751 0)
(-0.00484216 -0.00289928 0)
(-0.00333689 -0.00236306 0)
(-0.00210399 -0.0017787 0)
(-0.00116032 -0.00117783 0)
(-0.000506954 -0.000609162 0)
(-0.000129652 -0.000146172 0)
(-3.72519e-06 9.16932e-05 0)
(-3.00318e-05 2.28413e-05 0)
(-0.00027635 0.000543005 0)
(-0.000883602 0.00131718 0)
(-0.00183706 0.00220442 0)
(-0.00313194 0.0031138 0)
(-0.00475681 0.00398324 0)
(-0.00668597 0.00477165 0)
(-0.00888366 0.00545325 0)
(-0.0113076 0.00601292 0)
(-0.0139111 0.00644305 0)
(-0.0166454 0.00674132 0)
(-0.0194608 0.00690913 0)
(-0.022308 0.00695051 0)
(-0.0251394 0.00687135 0)
(-0.0279093 0.00667883 0)
(-0.0305748 0.00638102 0)
(-0.033096 0.00598658 0)
(-0.0354364 0.00550454 0)
(-0.037563 0.00494422 0)
(-0.0394463 0.00431508 0)
(-0.0410608 0.00362672 0)
(-0.0423846 0.00288884 0)
(-0.0434001 0.00211127 0)
(-0.0440932 0.00130399 0)
(-0.0444542 0.00047714 0)
(-0.0444774 -0.000358919 0)
(-0.0441613 -0.00119359 0)
(-0.0435089 -0.00201601 0)
(-0.0425273 -0.00281507 0)
(-0.0412282 -0.00357941 0)
(-0.039628 -0.00429749 0)
(-0.0377475 -0.00495761 0)
(-0.0356121 -0.0055481 0)
(-0.0332519 -0.00605739 0)
(-0.0307012 -0.0064742 0)
(-0.0279987 -0.00678781 0)
(-0.0251868 -0.00698827 0)
(-0.0223115 -0.00706675 0)
(-0.0194215 -0.00701593 0)
(-0.0165678 -0.00683047 0)
(-0.0138025 -0.00650757 0)
(-0.0111774 -0.0060478 0)
(-0.00874312 -0.00545609 0)
(-0.00654679 -0.00474317 0)
(-0.00463016 -0.0039276 0)
(-0.00302717 -0.00303873 0)
(-0.00176049 -0.00212094 0)
(-0.000837537 -0.00123899 0)
(-0.000257454 -0.000485246 0)
(-2.65345e-05 7.38777e-08 0)
(-5.21136e-05 0.000193132 0)
(-0.000405707 0.00107244 0)
(-0.00122374 0.0022185 0)
(-0.00245668 0.00347881 0)
(-0.00408262 0.00474937 0)
(-0.00608094 0.00595589 0)
(-0.00841817 0.00704712 0)
(-0.0110516 0.00798947 0)
(-0.0139327 0.00876238 0)
(-0.0170085 0.00935488 0)
(-0.0202242 0.00976301 0)
(-0.0235237 0.00998799 0)
(-0.0268517 0.0100348 0)
(-0.0301545 0.00991121 0)
(-0.0333804 0.00962685 0)
(-0.0364809 0.00919282 0)
(-0.0394107 0.00862115 0)
(-0.0421283 0.00792452 0)
(-0.044596 0.00711607 0)
(-0.0467806 0.00620925 0)
(-0.0486527 0.00521773 0)
(-0.0501875 0.00415539 0)
(-0.0513648 0.0030363 0)
(-0.0521686 0.00187476 0)
(-0.0525878 0.000685324 0)
(-0.0526158 -0.000517153 0)
(-0.0522511 -0.00171748 0)
(-0.0514969 -0.00290013 0)
(-0.0503613 -0.0040492 0)
(-0.0488578 -0.00514849 0)
(-0.0470048 -0.00618154 0)
(-0.0448262 -0.00713176 0)
(-0.0423507 -0.00798256 0)
(-0.0396126 -0.00871761 0)
(-0.0366508 -0.00932103 0)
(-0.0335091 -0.00977779 0)
(-0.0302356 -0.0100741 0)
(-0.0268824 -0.0101977 0)
(-0.0235044 -0.0101387 0)
(-0.0201592 -0.0098901 0)
(-0.0169056 -0.00944857 0)
(-0.013802 -0.00881553 0)
(-0.0109057 -0.00799843 0)
(-0.00827014 -0.0070125 0)
(-0.00594374 -0.00588302 0)
(-0.00396735 -0.00464844 0)
(-0.0023713 -0.00336463 0)
(-0.00117173 -0.00210976 0)
(-0.000384077 -0.0009904 0)
(-4.80163e-05 -0.000159412 0)
(-7.22725e-05 0.00042957 0)
(-0.000529548 0.00176927 0)
(-0.0015561 0.00336506 0)
(-0.00306816 0.00505889 0)
(-0.00502562 0.00673801 0)
(-0.00739709 0.00831897 0)
(-0.0101399 0.00974229 0)
(-0.0132034 0.0109677 0)
(-0.0165321 0.0119698 0)
(-0.0200668 0.0127345 0)
(-0.0237466 0.0132564 0)
(-0.0275097 0.0135366 0)
(-0.0312953 0.0135812 0)
(-0.0350441 0.0133998 0)
(-0.0386995 0.013005 0)
(-0.0422079 0.0124111 0)
(-0.0455196 0.0116337 0)
(-0.0485888 0.0106897 0)
(-0.0513741 0.00959635 0)
(-0.0538385 0.00837156 0)
(-0.0559498 0.00703355 0)
(-0.0576806 0.00560085 0)
(-0.0590085 0.00409228 0)
(-0.0599159 0.00252697 0)
(-0.0603904 0.000924412 0)
(-0.0604248 -0.000695512 0)
(-0.0600172 -0.00231248 0)
(-0.0591711 -0.00390572 0)
(-0.0578954 -0.005454 0)
(-0.0562049 -0.0069357 0)
(-0.0541198 -0.00832888 0)
(-0.0516663 -0.00961147 0)
(-0.0488761 -0.0107614 0)
(-0.0457867 -0.0117571 0)
(-0.0424411 -0.0125775 0)
(-0.0388873 -0.0132028 0)
(-0.0351785 -0.0136149 0)
(-0.0313718 -0.0137978 0)
(-0.0275279 -0.0137389 0)
(-0.0237102 -0.0134292 0)
(-0.0199835 -0.0128647 0)
(-0.0164129 -0.0120477 0)
(-0.0130617 -0.0109879 0)
(-0.00999052 -0.00970503 0)
(-0.00725481 -0.00823053 0)
(-0.00490356 -0.00661106 0)
(-0.0029762 -0.00491233 0)
(-0.00149926 -0.00322317 0)
(-0.000505557 -0.00166036 0)
(-6.76355e-05 -0.000383689 0)
(-9.067e-05 0.000728382 0)
(-0.000647187 0.00262877 0)
(-0.00187748 0.0047535 0)
(-0.00366537 0.00694275 0)
(-0.0059525 0.00907842 0)
(-0.00869584 0.0110706 0)
(-0.0118425 0.0128537 0)
(-0.0153329 0.0143819 0)
(-0.019104 0.0156262 0)
(-0.02309 0.0165698 0)
(-0.0272237 0.0172063 0)
(-0.0314378 0.0175371 0)
(-0.0356661 0.0175696 0)
(-0.0398445 0.0173158 0)
(-0.0439116 0.016791 0)
(-0.0478098 0.0160133 0)
(-0.0514851 0.0150023 0)
(-0.0548882 0.0137792 0)
(-0.0579743 0.0123659 0)
(-0.0607037 0.0107852 0)
(-0.0630415 0.0090601 0)
(-0.0649581 0.00721428 0)
(-0.0664293 0.00527171 0)
(-0.0674359 0.00325677 0)
(-0.0679646 0.0011943 0)
(-0.0680074 -0.000890338 0)
(-0.0675622 -0.00297125 0)
(-0.0666325 -0.00502197 0)
(-0.0652279 -0.00701546 0)
(-0.063364 -0.00892421 0)
(-0.0610625 -0.0107203 0)
(-0.0583514 -0.0123757 0)
(-0.0552649 -0.0138624 0)
(-0.0518432 -0.0151529 0)
(-0.0481327 -0.0162207 0)
(-0.0441852 -0.0170407 0)
(-0.040058 -0.01759 0)
(-0.035813 -0.0178487 0)
(-0.0315162 -0.0178007 0)
(-0.0272364 -0.0174349 0)
(-0.0230443 -0.0167464 0)
(-0.0190113 -0.0157377 0)
(-0.0152076 -0.0144211 0)
(-0.0117011 -0.0128196 0)
(-0.00855527 -0.0109704 0)
(-0.00582816 -0.00892713 0)
(-0.00356947 -0.00676355 0)
(-0.00181706 -0.00457685 0)
(-0.000621205 -0.00249094 0)
(-8.55243e-05 -0.000669118 0)
(-0.000107678 0.0010861 0)
(-0.000759395 0.00364561 0)
(-0.0021884 0.00637914 0)
(-0.00424821 0.00912716 0)
(-0.00686269 0.0117686 0)
(-0.00997676 0.0142095 0)
(-0.0135266 0.0163795 0)
(-0.017443 0.0182295 0)
(-0.0216548 0.0197272 0)
(-0.0260888 0.0208545 0)
(-0.0306715 0.0216045 0)
(-0.03533 0.0219794 0)
(-0.0399928 0.0219882 0)
(-0.0445911 0.0216457 0)
(-0.0490593 0.0209706 0)
(-0.0533357 0.0199848 0)
(-0.0573629 0.0187124 0)
(-0.0610885 0.0171792 0)
(-0.0644648 0.0154121 0)
(-0.0674494 0.013439 0)
(-0.0700056 0.0112882 0)
(-0.0721016 0.00898877 0)
(-0.0737117 0.00657019 0)
(-0.0748155 0.00406242 0)
(-0.0753987 0.00149601 0)
(-0.0754527 -0.00109788 0)
(-0.0749748 -0.00368742 0)
(-0.0739687 -0.00624006 0)
(-0.0724442 -0.0087226 0)
(-0.0704177 -0.0111012 0)
(-0.0679117 -0.0133416 0)
(-0.0649559 -0.0154093 0)
(-0.0615862 -0.0172699 0)
(-0.0578453 -0.0188896 0)
(-0.0537822 -0.0202359 0)
(-0.0494523 -0.0212778 0)
(-0.0449166 -0.0219874 0)
(-0.0402414 -0.02234 0)
(-0.0354975 -0.022316 0)
(-0.0307593 -0.0219015 0)
(-0.0261034 -0.0210902 0)
(-0.0216077 -0.0198847 0)
(-0.0173498 -0.0182983 0)
(-0.0134053 -0.0163576 0)
(-0.00984662 -0.014104 0)
(-0.00674189 -0.011597 0)
(-0.0041518 -0.00891691 0)
(-0.00212603 -0.00616739 0)
(-0.000731902 -0.00347752 0)
(-0.000102062 -0.00101242 0)
(-0.0001237 0.00149998 0)
(-0.00086754 0.00481522 0)
(-0.00249126 0.00823775 0)
(-0.00481993 0.0116092 0)
(-0.00776026 0.0148072 0)
(-0.011245 0.0177351 0)
(-0.0151988 0.02032 0)
(-0.0195426 0.0225103 0)
(-0.024196 0.0242721 0)
(-0.0290784 0.0255868 0)
(-0.0341095 0.0264478 0)
(-0.0392104 0.0268587 0)
(-0.0443045 0.026831 0)
(-0.0493182 0.0263825 0)
(-0.054182 0.0255358 0)
(-0.0588304 0.0243171 0)
(-0.063203 0.0227553 0)
(-0.0672444 0.0208812 0)
(-0.0709045 0.0187271 0)
(-0.0741389 0.0163261 0)
(-0.0769087 0.0137124 0)
(-0.0791808 0.0109205 0)
(-0.080928 0.00798576 0)
(-0.0821289 0.00494392 0)
(-0.0827682 0.00183152 0)
(-0.0828365 -0.0013142 0)
(-0.082331 -0.00445519 0)
(-0.0812549 -0.00755255 0)
(-0.0796182 -0.0105666 0)
(-0.0774375 -0.0134568 0)
(-0.0747363 -0.0161822 0)
(-0.0715452 -0.0187014 0)
(-0.0679015 -0.0209732 0)
(-0.0638499 -0.0229571 0)
(-0.0594419 -0.0246139 0)
(-0.0547357 -0.0259066 0)
(-0.049796 -0.0268012 0)
(-0.0446931 -0.0272681 0)
(-0.0395027 -0.0272832 0)
(-0.0343045 -0.0268294 0)
(-0.0291815 -0.0258983 0)
(-0.0242186 -0.0244916 0)
(-0.0195009 -0.0226237 0)
(-0.0151128 -0.0203228 0)
(-0.0111364 -0.0176343 0)
(-0.00765056 -0.0146221 0)
(-0.00472754 -0.0113718 0)
(-0.00242915 -0.00799224 0)
(-0.000839219 -0.00461648 0)
(-0.00011768 -0.00141113 0)
(-0.000139112 0.00196818 0)
(-0.00097319 0.00613444 0)
(-0.00278933 0.0103265 0)
(-0.0053855 0.0143873 0)
(-0.00865184 0.018194 0)
(-0.0125088 0.0216487 0)
(-0.0168695 0.0246772 0)
(-0.021644 0.0272268 0)
(-0.0267427 0.0292632 0)
(-0.0320767 0.0307682 0)
(-0.0375587 0.0317367 0)
(-0.0431036 0.0321745 0)
(-0.0486294 0.0320963 0)
(-0.054058 0.0315235 0)
(-0.0593157 0.030483 0)
(-0.0643339 0.0290061 0)
(-0.069049 0.0271266 0)
(-0.0734031 0.0248809 0)
(-0.0773441 0.0223068 0)
(-0.0808256 0.0194433 0)
(-0.0838072 0.0163303 0)
(-0.0862544 0.0130082 0)
(-0.0881388 0.0095184 0)
(-0.089438 0.00590267 0)
(-0.0901359 0.00220368 0)
(-0.0902225 -0.00153504 0)
(-0.0896942 -0.00526904 0)
(-0.0885541 -0.00895285 0)
(-0.086812 -0.01254 0)
(-0.0844845 -0.0159831 0)
(-0.0815955 -0.019234 0)
(-0.0781761 -0.0222442 0)
(-0.074265 -0.0249653 0)
(-0.0699083 -0.0273494 0)
(-0.0651594 -0.0293503 0)
(-0.0600794 -0.030924 0)
(-0.0547361 -0.0320303 0)
(-0.049204 -0.0326336 0)
(-0.0435635 -0.0327049 0)
(-0.0378999 -0.032223 0)
(-0.0323028 -0.0311765 0)
(-0.0268643 -0.0295656 0)
(-0.0216781 -0.0274042 0)
(-0.0168378 -0.0247221 0)
(-0.012436 -0.0215669 0)
(-0.00856287 -0.0180062 0)
(-0.005303 -0.0141297 0)
(-0.00273038 -0.0100508 0)
(-0.000944985 -0.00590594 0)
(-0.000132797 -0.00186379 0)
(-0.00015425 0.00248974 0)
(-0.00107792 0.00760183 0)
(-0.00308616 0.0126446 0)
(-0.00595067 0.0174619 0)
(-0.0095453 0.0219309 0)
(-0.0137783 0.0259535 0)
(-0.0185507 0.0294552 0)
(-0.0237614 0.0323835 0)
(-0.0293112 0.034705 0)
(-0.0351024 0.036403 0)
(-0.0410404 0.0374749 0)
(-0.0470334 0.0379296 0)
(-0.0529941 0.0377856 0)
(-0.0588397 0.0370691 0)
(-0.0644926 0.0358119 0)
(-0.0698808 0.0340506 0)
(-0.0749382 0.0318248 0)
(-0.0796044 0.0291765 0)
(-0.0838255 0.0261497 0)
(-0.0875536 0.0227894 0)
(-0.0907469 0.0191413 0)
(-0.0933697 0.0152523 0)
(-0.0953928 0.0111695 0)
(-0.0967927 0.00694114 0)
(-0.0975526 0.00261606 0)
(-0.0976618 -0.00175582 0)
(-0.0971161 -0.0061235 0)
(-0.095918 -0.0104348 0)
(-0.0940768 -0.0146362 0)
(-0.0916091 -0.0186733 0)
(-0.0885386 -0.0224906 0)
(-0.084897 -0.0260319 0)
(-0.0807233 -0.0292412 0)
(-0.076065 -0.0320629 0)
(-0.0709773 -0.034443 0)
(-0.0655235 -0.0363301 0)
(-0.0597745 -0.0376768 0)
(-0.0538088 -0.038441 0)
(-0.0477116 -0.0385875 0)
(-0.0415741 -0.0380904 0)
(-0.0354926 -0.0369342 0)
(-0.0295672 -0.0351166 0)
(-0.0239006 -0.0326503 0)
(-0.0185965 -0.029565 0)
(-0.0137585 -0.02591 0)
(-0.00948907 -0.0217555 0)
(-0.00588545 -0.0171948 0)
(-0.00303414 -0.0123448 0)
(-0.00105109 -0.00734611 0)
(-0.000147798 -0.00236997 0)
(-0.000169409 0.00306452 0)
(-0.00118323 0.00921768 0)
(-0.0033853 0.0151933 0)
(-0.00652131 0.0208356 0)
(-0.0104489 0.0260221 0)
(-0.0150639 0.0306549 0)
(-0.020255 0.0346604 0)
(-0.0259096 0.0379874 0)
(-0.0319182 0.0406044 0)
(-0.0381742 0.0424976 0)
(-0.044575 0.0436679 0)
(-0.0510222 0.0441285 0)
(-0.0574227 0.0439028 0)
(-0.0636891 0.0430222 0)
(-0.06974 0.0415243 0)
(-0.0755002 0.0394518 0)
(-0.0809009 0.0368503 0)
(-0.08588 0.0337684 0)
(-0.0903818 0.0302561 0)
(-0.0943571 0.0263648 0)
(-0.097763 0.0221465 0)
(-0.100563 0.0176543 0)
(-0.102727 0.0129415 0)
(-0.104231 0.00806265 0)
(-0.105057 0.00307286 0)
(-0.105193 -0.0019715 0)
(-0.104636 -0.00701282 0)
(-0.103386 -0.0119921 0)
(-0.101452 -0.0168489 0)
(-0.0988509 -0.0215213 0)
(-0.0956053 -0.0259461 0)
(-0.0917468 -0.0300596 0)
(-0.087315 -0.0337973 0)
(-0.0823579 -0.0370956 0)
(-0.0769323 -0.039892 0)
(-0.0711034 -0.042127 0)
(-0.0649451 -0.0437452 0)
(-0.0585397 -0.0446967 0)
(-0.0519773 -0.0449399 0)
(-0.0453552 -0.0444422 0)
(-0.0387767 -0.0431836 0)
(-0.0323504 -0.0411578 0)
(-0.0261887 -0.0383751 0)
(-0.0204061 -0.0348644 0)
(-0.0151181 -0.0306752 0)
(-0.01044 -0.0258797 0)
(-0.00648252 -0.0205741 0)
(-0.00334491 -0.0148792 0)
(-0.00115937 -0.00893942 0)
(-0.000163035 -0.00293027 0)
(-0.000184845 0.00369319 0)
(-0.00129049 0.010984 0)
(-0.00369016 0.0179763 0)
(-0.00710317 0.0245137 0)
(-0.0113707 0.030474 0)
(-0.016376 0.0357605 0)
(-0.0219949 0.0403011 0)
(-0.028103 0.0440469 0)
(-0.0345799 0.0469698 0)
(-0.0413096 0.04906 0)
(-0.0481813 0.050323 0)
(-0.0550896 0.0507775 0)
(-0.0619359 0.0504528 0)
(-0.0686277 0.0493866 0)
(-0.07508 0.0476231 0)
(-0.0812145 0.0452116 0)
(-0.0869602 0.0422047 0)
(-0.0922532 0.0386576 0)
(-0.0970366 0.034627 0)
(-0.10126 0.0301707 0)
(-0.10488 0.0253475 0)
(-0.107859 0.0202164 0)
(-0.110166 0.0148374 0)
(-0.111777 0.00927103 0)
(-0.112674 0.00357879 0)
(-0.112843 -0.00217657 0)
(-0.11228 -0.00793088 0)
(-0.110985 -0.0136183 0)
(-0.108966 -0.0191712 0)
(-0.106238 -0.0245204 0)
(-0.102824 -0.0295948 0)
(-0.0987549 -0.0343223 0)
(-0.0940697 -0.0386301 0)
(-0.0888171 -0.0424457 0)
(-0.0830545 -0.0456977 0)
(-0.0768492 -0.0483175 0)
(-0.0702776 -0.0502407 0)
(-0.0634258 -0.051409 0)
(-0.0563887 -0.0517723 0)
(-0.0492697 -0.0512913 0)
(-0.0421799 -0.0499392 0)
(-0.0352367 -0.0477048 0)
(-0.0285627 -0.0445948 0)
(-0.0222841 -0.0406359 0)
(-0.0165291 -0.0358771 0)
(-0.0114268 -0.0303917 0)
(-0.0071018 -0.0242784 0)
(-0.00366711 -0.0176616 0)
(-0.00127159 -0.0106905 0)
(-0.000178825 -0.00354623 0)
(-0.000200783 0.00437707 0)
(-0.00140098 0.0129045 0)
(-0.00400386 0.0209991 0)
(-0.00770164 0.0285034 0)
(-0.0123185 0.0352956 0)
(-0.0177245 0.0412802 0)
(-0.0237823 0.0463876 0)
(-0.030355 0.0505724 0)
(-0.0373109 0.0538112 0)
(-0.0445242 0.0560991 0)
(-0.0518755 0.0574481 0)
(-0.0592524 0.0578832 0)
(-0.0665501 0.057441 0)
(-0.0736718 0.0561664 0)
(-0.0805285 0.0541112 0)
(-0.0870392 0.0513322 0)
(-0.093131 0.0478893 0)
(-0.0987384 0.0438449 0)
(-0.103804 0.039263 0)
(-0.108275 0.0342082 0)
(-0.11211 0.0287456 0)
(-0.115269 0.0229409 0)
(-0.117723 0.0168603 0)
(-0.119445 0.0105703 0)
(-0.120416 0.0041389 0)
(-0.120624 -0.00236506 0)
(-0.120062 -0.00887089 0)
(-0.11873 -0.015306 0)
(-0.116634 -0.0215957 0)
(-0.113787 -0.0276632 0)
(-0.110213 -0.0334296 0)
(-0.10594 -0.0388142 0)
(-0.101008 -0.0437352 0)
(-0.0954639 -0.0481109 0)
(-0.0893667 -0.05186 0)
(-0.0827846 -0.0549041 0)
(-0.0757964 -0.0571687 0)
(-0.0684917 -0.0585859 0)
(-0.0609703 -0.0590962 0)
(-0.0533419 -0.0586513 0)
(-0.0457254 -0.057217 0)
(-0.0382476 -0.0547753 0)
(-0.031042 -0.051328 0)
(-0.0242473 -0.0468982 0)
(-0.0180053 -0.0415337 0)
(-0.0124599 -0.0353077 0)
(-0.00775068 -0.0283212 0)
(-0.00400498 -0.0207025 0)
(-0.00138942 -0.0126061 0)
(-0.000195458 -0.0042203 0)
(-0.00021742 0.00511814 0)
(-0.00151581 0.0149843 0)
(-0.0043293 0.0242695 0)
(-0.00832167 0.0328145 0)
(-0.0132994 0.0404977 0)
(-0.0191185 0.0472255 0)
(-0.025628 0.0529317 0)
(-0.0326776 0.0575756 0)
(-0.0401241 0.0611392 0)
(-0.0478312 0.0636247 0)
(-0.0556707 0.0650513 0)
(-0.063523 0.0654523 0)
(-0.0712773 0.0648723 0)
(-0.0788321 0.063365 0)
(-0.0860948 0.0609907 0)
(-0.0929822 0.0578143 0)
(-0.0994194 0.0539041 0)
(-0.10534 0.0493302 0)
(-0.110686 0.044164 0)
(-0.115405 0.0384772 0)
(-0.119454 0.0323417 0)
(-0.122794 0.0258295 0)
(-0.125395 0.0190128 0)
(-0.127231 0.0119646 0)
(-0.128282 0.00475846 0)
(-0.128534 -0.00253047 0)
(-0.127981 -0.0098253 0)
(-0.12662 -0.0170469 0)
(-0.124456 -0.0241135 0)
(-0.121501 -0.0309409 0)
(-0.117776 -0.037442 0)
(-0.11331 -0.0435276 0)
(-0.108138 -0.0491065 0)
(-0.10231 -0.0540868 0)
(-0.0958828 -0.0583771 0)
(-0.0889256 -0.0618879 0)
(-0.0815195 -0.0645337 0)
(-0.073757 -0.0662353 0)
(-0.0657427 -0.0669224 0)
(-0.0575926 -0.0665365 0)
(-0.0494337 -0.0650339 0)
(-0.0414027 -0.0623885 0)
(-0.0336448 -0.0585953 0)
(-0.0263118 -0.0536728 0)
(-0.0195602 -0.0476658 0)
(-0.0135497 -0.0406472 0)
(-0.00843624 -0.0327196 0)
(-0.00436256 -0.0240154 0)
(-0.00151444 -0.014695 0)
(-0.000213205 -0.00495577 0)
(-0.000234932 0.00591893 0)
(-0.00163601 0.0172299 0)
(-0.00466907 0.027797 0)
(-0.00896778 0.0374586 0)
(-0.0143197 0.0460933 0)
(-0.0205661 0.0536101 0)
(-0.0275413 0.0599468 0)
(-0.0350811 0.0650686 0)
(-0.04303 0.0689649 0)
(-0.0512409 0.071646 0)
(-0.0595765 0.0731401 0)
(-0.0679097 0.07349 0)
(-0.0761237 0.0727501 0)
(-0.0841126 0.070984 0)
(-0.0917807 0.0682615 0)
(-0.0990424 0.0646569 0)
(-0.105822 0.0602473 0)
(-0.112052 0.0551112 0)
(-0.117674 0.0493279 0)
(-0.122637 0.0429762 0)
(-0.126897 0.0361349 0)
(-0.130417 0.0288824 0)
(-0.133166 0.021297 0)
(-0.135118 0.0134573 0)
(-0.136253 0.00544275 0)
(-0.136556 -0.00266588 0)
(-0.136019 -0.0107857 0)
(-0.134639 -0.0188312 0)
(-0.132418 -0.026714 0)
(-0.129368 -0.0343423 0)
(-0.125506 -0.0416211 0)
(-0.120857 -0.0484522 0)
(-0.115459 -0.0547348 0)
(-0.109356 -0.0603665 0)
(-0.102607 -0.0652445 0)
(-0.0952799 -0.0692675 0)
(-0.0874573 -0.0723376 0)
(-0.0792347 -0.0743629 0)
(-0.070721 -0.0752608 0)
(-0.0620385 -0.0749606 0)
(-0.0533223 -0.0734072 0)
(-0.0447195 -0.0705645 0)
(-0.0363875 -0.0664192 0)
(-0.0284923 -0.0609832 0)
(-0.0212061 -0.0542972 0)
(-0.0147059 -0.0464327 0)
(-0.00916516 -0.0374935 0)
(-0.00474369 -0.0276162 0)
(-0.00164813 -0.0169681 0)
(-0.000232318 -0.00575673 0)
(-0.000253476 0.00678246 0)
(-0.0017625 0.019649 0)
(-0.00502554 0.0315927 0)
(-0.00964401 0.042449 0)
(-0.0153851 0.052097 0)
(-0.0220744 0.0604486 0)
(-0.0295302 0.0674469 0)
(-0.0375739 0.0730644 0)
(-0.0460366 0.0772991 0)
(-0.0547603 0.0801714 0)
(-0.0635981 0.0817202 0)
(-0.0724153 0.0819996 0)
(-0.0810895 0.0810754 0)
(-0.0895104 0.0790221 0)
(-0.0975795 0.0759206 0)
(-0.10521 0.0718555 0)
(-0.112324 0.0669136 0)
(-0.118856 0.0611824 0)
(-0.124747 0.0547493 0)
(-0.129947 0.0477007 0)
(-0.134413 0.0401222 0)
(-0.138109 0.0320984 0)
(-0.141004 0.0237134 0)
(-0.143073 0.0150513 0)
(-0.144295 0.00619678 0)
(-0.144655 -0.00276395 0)
(-0.144143 -0.0117425 0)
(-0.142755 -0.0206476 0)
(-0.140492 -0.0293842 0)
(-0.13736 -0.0378536 0)
(-0.133376 -0.0459527 0)
(-0.128563 -0.0535742 0)
(-0.122953 -0.0606074 0)
(-0.116591 -0.0669389 0)
(-0.109532 -0.0724537 0)
(-0.101845 -0.0770376 0)
(-0.093612 -0.080579 0)
(-0.0849309 -0.0829718 0)
(-0.0759146 -0.0841189 0)
(-0.0666914 -0.0839355 0)
(-0.0574048 -0.0823532 0)
(-0.0482123 -0.0793237 0)
(-0.0392844 -0.0748229 0)
(-0.0308019 -0.0688546 0)
(-0.0229545 -0.0614538 0)
(-0.0159375 -0.0526893 0)
(-0.00994377 -0.0426657 0)
(-0.005152 -0.0315236 0)
(-0.0017919 -0.019438 0)
(-0.000253037 -0.00662802 0)
(-0.000273198 0.00771223 0)
(-0.00189615 0.0222504 0)
(-0.00540087 0.0356693 0)
(-0.010354 0.0478008 0)
(-0.0165007 0.0585248 0)
(-0.0236494 0.0677568 0)
(-0.0316013 0.0754465 0)
(-0.0401621 0.0815752 0)
(-0.0491493 0.0861515 0)
(-0.0583928 0.0892076 0)
(-0.0677363 0.0907953 0)
(-0.0770376 0.0909815 0)
(-0.0861684 0.0898453 0)
(-0.0950146 0.0874741 0)
(-0.103476 0.0839607 0)
(-0.111463 0.0794015 0)
(-0.1189 0.0738936 0)
(-0.125721 0.0675342 0)
(-0.131869 0.0604192 0)
(-0.137295 0.0526427 0)
(-0.141958 0.0442972 0)
(-0.145823 0.0354733 0)
(-0.148859 0.0262605 0)
(-0.151043 0.0167479 0)
(-0.152355 0.00702508 0)
(-0.152778 -0.0028171 0)
(-0.152301 -0.0126853 0)
(-0.150918 -0.0224828 0)
(-0.148627 -0.0321088 0)
(-0.145433 -0.0414576 0)
(-0.141347 -0.0504184 0)
(-0.13639 -0.058875 0)
(-0.13059 -0.0667064 0)
(-0.123989 -0.0737876 0)
(-0.116639 -0.079991 0)
(-0.108607 -0.0851879 0)
(-0.0999755 -0.0892518 0)
(-0.090843 -0.0920605 0)
(-0.0813257 -0.0935005 0)
(-0.0715577 -0.0934707 0)
(-0.0616904 -0.0918867 0)
(-0.0518922 -0.0886854 0)
(-0.0423472 -0.08383 0)
(-0.0332523 -0.0773135 0)
(-0.0248156 -0.0691635 0)
(-0.0172527 -0.0594447 0)
(-0.010778 -0.0482615 0)
(-0.00559097 -0.0357586 0)
(-0.00194712 -0.0221191 0)
(-0.000275597 -0.00757521 0)
(-0.000294238 0.00871216 0)
(-0.00203775 0.0250441 0)
(-0.00579707 0.0400408 0)
(-0.0111012 0.0535303 0)
(-0.0176711 0.0653936 0)
(-0.0252963 0.0755509 0)
(-0.0337597 0.08396 0)
(-0.0428502 0.0906125 0)
(-0.0523704 0.09553 0)
(-0.0621382 0.0987587 0)
(-0.0719873 0.100365 0)
(-0.0817678 0.100432 0)
(-0.0913464 0.0990525 0)
(-0.100606 0.0963294 0)
(-0.109443 0.0923691 0)
(-0.117771 0.0872803 0)
(-0.125512 0.0811719 0)
(-0.132604 0.0741513 0)
(-0.13899 0.0663232 0)
(-0.144625 0.0577896 0)
(-0.14947 0.0486496 0)
(-0.153492 0.0389997 0)
(-0.156663 0.0289343 0)
(-0.158959 0.0185469 0)
(-0.16036 0.00793131 0)
(-0.160851 -0.00281765 0)
(-0.160419 -0.0136024 0)
(-0.159055 -0.0243217 0)
(-0.156755 -0.0348693 0)
(-0.15352 -0.0451333 0)
(-0.149358 -0.0549954 0)
(-0.144283 -0.0643307 0)
(-0.138322 -0.0730079 0)
(-0.131509 -0.0808901 0)
(-0.123893 -0.0878358 0)
(-0.11554 -0.0937014 0)
(-0.106529 -0.0983433 0)
(-0.0969587 -0.101622 0)
(-0.0869485 -0.103404 0)
(-0.0766368 -0.103571 0)
(-0.066183 -0.102019 0)
(-0.0557665 -0.0986674 0)
(-0.0455851 -0.0934632 0)
(-0.0358532 -0.0863868 0)
(-0.0267985 -0.0774555 0)
(-0.0186593 -0.0667283 0)
(-0.0116735 -0.0543085 0)
(-0.00606393 -0.0403442 0)
(-0.00211512 -0.0250273 0)
(-0.000300227 -0.00860454 0)
(-0.000316734 0.00978657 0)
(-0.0021881 0.0280409 0)
(-0.0062161 0.0447222 0)
(-0.0118887 0.0596549 0)
(-0.0189002 0.0727212 0)
(-0.0270194 0.0838473 0)
(-0.0360093 0.0930008 0)
(-0.0456403 0.100186 0)
(-0.0556995 0.10544 0)
(-0.0659921 0.108825 0)
(-0.0763416 0.110425 0)
(-0.086591 0.110341 0)
(-0.096602 0.108683 0)
(-0.106255 0.105571 0)
(-0.115446 0.101126 0)
(-0.124088 0.0954705 0)
(-0.132108 0.0887265 0)
(-0.139443 0.0810118 0)
(-0.146042 0.0724406 0)
(-0.151863 0.0631229 0)
(-0.15687 0.053164 0)
(-0.161032 0.0426659 0)
(-0.164325 0.0317273 0)
(-0.166726 0.0204457 0)
(-0.168217 0.0089179 0)
(-0.16878 -0.00275801 0)
(-0.168403 -0.0144812 0)
(-0.167075 -0.0261466 0)
(-0.164787 -0.0376437 0)
(-0.161537 -0.0488549 0)
(-0.157328 -0.0596552 0)
(-0.152169 -0.0699111 0)
(-0.14608 -0.079481 0)
(-0.139091 -0.0882158 0)
(-0.131245 -0.0959598 0)
(-0.122602 -0.102553 0)
(-0.11324 -0.107833 0)
(-0.103255 -0.111641 0)
(-0.0927679 -0.113823 0)
(-0.0819211 -0.114237 0)
(-0.070881 -0.112757 0)
(-0.0598379 -0.109284 0)
(-0.0490042 -0.103744 0)
(-0.0386122 -0.0961007 0)
(-0.0289114 -0.0863596 0)
(-0.0201644 -0.0745713 0)
(-0.0126355 -0.0608363 0)
(-0.00657413 -0.0453058 0)
(-0.00229721 -0.0281805 0)
(-0.000327166 -0.00972297 0)
(-0.00034083 0.0109402 0)
(-0.002348 0.0312525 0)
(-0.00665991 0.0497301 0)
(-0.0127195 0.0661929 0)
(-0.0201918 0.0805257 0)
(-0.0288225 0.0926621 0)
(-0.0383525 0.102581 0)
(-0.0485326 0.110303 0)
(-0.0591332 0.115882 0)
(-0.069946 0.119401 0)
(-0.0807847 0.120964 0)
(-0.0914851 0.120692 0)
(-0.101905 0.118716 0)
(-0.111922 0.115173 0)
(-0.121435 0.110202 0)
(-0.130357 0.103942 0)
(-0.138619 0.0965265 0)
(-0.146162 0.0880857 0)
(-0.152941 0.0787434 0)
(-0.158916 0.0686172 0)
(-0.164057 0.0578188 0)
(-0.168337 0.0464549 0)
(-0.171735 0.0346282 0)
(-0.17423 0.0224387 0)
(-0.175806 0.00998556 0)
(-0.176445 -0.00263099 0)
(-0.176134 -0.015308 0)
(-0.174858 -0.0279379 0)
(-0.172607 -0.0404066 0)
(-0.169373 -0.052592 0)
(-0.165153 -0.064363 0)
(-0.159951 -0.0755782 0)
(-0.153778 -0.0860862 0)
(-0.146658 -0.0957251 0)
(-0.138626 -0.104325 0)
(-0.129737 -0.111707 0)
(-0.120062 -0.117691 0)
(-0.109696 -0.122094 0)
(-0.0987585 -0.124739 0)
(-0.0873942 -0.125459 0)
(-0.0757761 -0.124103 0)
(-0.0641047 -0.120545 0)
(-0.0526072 -0.11469 0)
(-0.041535 -0.10648 0)
(-0.0311608 -0.0959058 0)
(-0.0217744 -0.0830059 0)
(-0.0136693 -0.0678764 0)
(-0.0071248 -0.0506706 0)
(-0.00249475 -0.0315979 0)
(-0.000356658 -0.0109381 0)
(-0.000366688 0.0121783 0)
(-0.00251834 0.0346917 0)
(-0.00713062 0.0550818 0)
(-0.013597 0.0731638 0)
(-0.0215497 0.0888257 0)
(-0.0307089 0.10201 0)
(-0.040791 0.112711 0)
(-0.0515253 0.120967 0)
(-0.0626647 0.126853 0)
(-0.073987 0.130476 0)
(-0.0852957 0.131964 0)
(-0.0964203 0.131461 0)
(-0.107215 0.12912 0)
(-0.117558 0.125101 0)
(-0.127349 0.119561 0)
(-0.136506 0.112654 0)
(-0.144963 0.104531 0)
(-0.152668 0.0953334 0)
(-0.159581 0.0851941 0)
(-0.16567 0.0742389 0)
(-0.170909 0.0625853 0)
(-0.175278 0.050344 0)
(-0.178757 0.0376205 0)
(-0.181332 0.0245167 0)
(-0.182985 0.0111328 0)
(-0.183702 -0.00243015 0)
(-0.183466 -0.0160685 0)
(-0.182262 -0.0296733 0)
(-0.180075 -0.0431284 0)
(-0.176893 -0.0563084 0)
(-0.172705 -0.0690771 0)
(-0.167508 -0.0812861 0)
(-0.161304 -0.0927743 0)
(-0.154108 -0.103368 0)