/*--------------------------------*- C++ -*----------------------------------*\
  =========                 |
  \\      /  F ield         | OpenFOAM: The Open Source CFD Toolbox
   \\    /   O peration     | Website:  https://openfoam.org
    \\  /    A nd           | Version:  7
     \\/     M anipulation  |
\*---------------------------------------------------------------------------*/
FoamFile
{
    version     2.0;
    format      ascii;
    class       volScalarField;
    location    "0.0342";
    object      p;
}
// * * * * * * * * * * * * * * * * * * * * * * * * * * * * * * * * * * * * * //

dimensions      [0 2 -2 0 0 0 0];

internalField   nonuniform List<scalar> 
2500
(
-1.18249e-05
6.38509
9.04978
10.1455
10.7385
11.0885
11.3034
11.4447
11.5441
11.6173
11.6735
11.7181
11.7546
11.7855
11.8124
11.8366
11.8588
11.8798
11.9
11.9197
11.9393
11.959
11.9788
11.999
12.0196
12.0408
12.0627
12.0854
12.1091
12.134
12.1603
12.1882
12.2183
12.2509
12.2866
12.3262
12.3708
12.4217
12.4808
12.5506
12.635
12.7398
12.8743
13.055
13.3139
13.7151
14.3751
15.5658
18.3467
24.8559
4.86803
7.46773
8.88554
9.7693
10.3734
10.7804
11.0561
11.249
11.3885
11.4926
11.5724
11.6354
11.6866
11.7292
11.7657
11.7977
11.8265
11.853
11.8779
11.9018
11.9249
11.9477
11.9704
11.9932
12.0164
12.04
12.0644
12.0896
12.116
12.1438
12.1733
12.205
12.2393
12.2768
12.3185
12.3653
12.4185
12.4802
12.5527
12.6397
12.7462
12.88
13.0527
13.2828
13.6007
14.0568
14.7206
15.6771
17.1805
19.8978
7.70357
8.46727
9.21062
9.83443
10.3214
10.6843
10.9518
11.1508
11.3012
11.4167
11.5073
11.5798
11.6392
11.6889
11.7314
11.7686
11.8019
11.8323
11.8606
11.8874
11.9132
11.9384
11.9632
11.9881
12.0132
12.0387
12.0649
12.092
12.1204
12.1504
12.1822
12.2165
12.2537
12.2947
12.3402
12.3915
12.4501
12.518
12.5978
12.6932
12.8093
12.9532
13.135
13.3692
13.6758
14.0827
14.6199
15.2978
16.0956
16.9242
9.11204
9.2894
9.66909
10.0708
10.421
10.7074
10.9362
11.1173
11.2608
11.3753
11.4677
11.5434
11.6063
11.6597
11.7057
11.7462
11.7824
11.8156
11.8463
11.8754
11.9032
11.9302
11.9568
11.9833
12.0099
12.0369
12.0646
12.0933
12.1232
12.1548
12.1884
12.2245
12.2638
12.3069
12.3549
12.4088
12.4702
12.5409
12.6235
12.721
12.8378
12.9792
13.1524
13.366
13.6302
13.9548
14.3452
14.7872
15.2024
15.4105
9.92297
9.90305
10.0798
10.3242
10.5643
10.7799
10.9652
11.1207
11.2497
11.3567
11.4457
11.5205
11.584
11.6386
11.6863
11.7286
11.7668
11.8018
11.8343
11.865
11.8945
11.923
11.951
11.9789
12.0068
12.0351
12.064
12.0939
12.1251
12.1579
12.1928
12.2303
12.2709
12.3155
12.3648
12.4201
12.4825
12.5538
12.6361
12.7319
12.8442
12.9767
13.1336
13.3189
13.5357
13.7838
14.0559
14.3295
14.5287
14.5213
10.4329
10.3484
10.4182
10.5609
10.7209
10.8778
11.0224
11.1506
11.2619
11.3576
11.4398
11.5107
11.5721
11.626
11.6738
11.7166
11.7556
11.7916
11.8252
11.857
11.8875
11.9172
11.9463
11.9751
12.004
12.0333
12.0632
12.094
12.1261
12.1598
12.1956
12.2339
12.2753
12.3205
12.3703
12.4257
12.4877
12.5577
12.6374
12.7285
12.8331
12.9531
13.0903
13.2458
13.4184
13.6028
13.7879
13.9517
14.0347
13.952
10.7722
10.6753
10.6917
10.7714
10.8749
10.9862
11.0958
11.1982
11.2911
11.374
11.4474
11.5124
11.5701
11.6216
11.668
11.7102
11.7491
11.7852
11.8192
11.8515
11.8827
11.913
11.9428
11.9723
12.0019
12.0319
12.0624
12.0939
12.1266
12.1609
12.1971
12.2358
12.2774
12.3226
12.372
12.4264
12.4868
12.5542
12.6296
12.7142
12.8091
12.915
13.0322
13.1595
13.2937
13.428
13.5513
13.6459
13.6695
13.5686
11.0127
10.9213
10.9117
10.9527
11.0176
11.0946
11.1759
11.2558
11.3315
11.4014
11.4654
11.5235
11.5763
11.6244
11.6684
11.7091
11.747
11.7826
11.8164
11.8488
11.8801
11.9106
11.9408
11.9707
12.0007
12.0311
12.062
12.0938
12.1268
12.1613
12.1977
12.2363
12.2776
12.3222
12.3706
12.4233
12.4812
12.5449
12.6151
12.6923
12.7769
12.8688
12.967
13.0695
13.1723
13.2685
13.3489
13.4004
13.3939
13.2956
11.1931
11.1114
11.0895
11.107
11.1457
11.1977
11.2567
11.3179
11.3784
11.4363
11.4909
11.5418
11.5891
11.6332
11.6742
11.7127
11.7491
11.7836
11.8167
11.8486
11.8797
11.9102
11.9403
11.9703
12.0005
12.031
12.0621
12.094
12.127
12.1614
12.1976
12.2358
12.2765
12.32
12.3669
12.4175
12.4723
12.5318
12.5962
12.6658
12.7402
12.8188
12.9001
12.9817
13.0594
13.1274
13.1782
13.2028
13.1813
13.0914
11.3344
11.2622
11.2347
11.2378
11.259
11.2929
11.3348
11.3809
11.4284
11.4756
11.5214
11.5653
11.6071
11.6468
11.6845
11.7204
11.7548
11.7878
11.8198
11.8509
11.8814
11.9115
11.9414
11.9712
12.0013
12.0317
12.0627
12.0945
12.1273
12.1615
12.1971
12.2347
12.2744
12.3166
12.3616
12.4097
12.4612
12.5162
12.5748
12.6367
12.7016
12.7682
12.8349
12.8992
12.9573
13.0044
13.0349
13.0428
13.014
12.933
11.4487
11.3844
11.3547
11.3491
11.3585
11.3794
11.4084
11.4424
11.4791
11.517
11.555
11.5923
11.6288
11.6641
11.6983
11.7314
11.7635
11.7948
11.8254
11.8554
11.8851
11.9146
11.9439
11.9734
12.0031
12.0332
12.064
12.0954
12.1279
12.1615
12.1966
12.2332
12.2718
12.3124
12.3553
12.4007
12.4487
12.4992
12.5521
12.6069
12.663
12.719
12.7734
12.8236
12.8665
12.8982
12.9147
12.912
12.8799
12.807
11.5432
11.4854
11.4552
11.4442
11.4456
11.4571
11.4763
11.5008
11.5288
11.5588
11.5899
11.6214
11.6528
11.6839
11.7146
11.7448
11.7746
11.804
11.833
11.8618
11.8905
11.9191
11.9478
11.9767
12.0059
12.0356
12.0659
12.0969
12.1288
12.1618
12.196
12.2316
12.2688
12.3078
12.3485
12.3911
12.4356
12.4817
12.5292
12.5775
12.6257
12.6726
12.7166
12.7555
12.7866
12.807
12.8137
12.8043
12.771
12.7049
11.6227
11.57
11.54
11.5257
11.5217
11.5265
11.5383
11.5554
11.5763
11.5998
11.625
11.6512
11.6781
11.7053
11.7327
11.7601
11.7875
11.8148
11.8422
11.8696
11.8972
11.9248
11.9527
11.9809
12.0095
12.0386
12.0683
12.0988
12.13
12.1623
12.1956
12.2301
12.2658
12.303
12.3415
12.3813
12.4224
12.4644
12.5069
12.5492
12.5906
12.6297
12.665
12.6948
12.7168
12.7288
12.7287
12.7149
12.6816
12.6211
11.6903
11.6417
11.6122
11.5959
11.5882
11.5881
11.5944
11.6058
11.621
11.639
11.6592
11.6809
11.7038
11.7274
11.7517
11.7764
11.8015
11.8269
11.8526
11.8786
11.9049
11.9315
11.9585
11.9859
12.0138
12.0422
12.0713
12.101
12.1316
12.163
12.1953
12.2286
12.2629
12.2982
12.3346
12.3718
12.4096
12.4477
12.4857
12.5228
12.5581
12.5905
12.6188
12.6412
12.6562
12.6619
12.657
12.6405
12.6076
12.5519
11.7481
11.7027
11.6739
11.6564
11.6461
11.6425
11.6447
11.6516
11.6622
11.6759
11.6919
11.7098
11.7291
11.7496
11.771
11.7932
11.8161
11.8396
11.8636
11.8882
11.9132
11.9388
11.9648
11.9914
12.0185
12.0462
12.0746
12.1036
12.1333
12.1638
12.1951
12.2272
12.2601
12.2937
12.328
12.3626
12.3975
12.4321
12.4659
12.4983
12.5285
12.5553
12.5777
12.5943
12.6038
12.6048
12.5965
12.5783
12.5462
12.4944
11.7978
11.755
11.7269
11.7085
11.6965
11.6903
11.6893
11.6928
11.6999
11.7099
11.7225
11.7371
11.7533
11.771
11.7899
11.8099
11.8308
11.8525
11.8749
11.8981
11.9219
11.9464
11.9715
11.9972
12.0235
12.0505
12.0781
12.1064
12.1353
12.1649
12.1952
12.2261
12.2575
12.2895
12.3217
12.3541
12.3861
12.4176
12.4478
12.4762
12.5019
12.5241
12.5416
12.5536
12.5588
12.5563
12.5454
12.5262
12.4949
12.4466
11.8404
11.7996
11.7722
11.7534
11.7401
11.732
11.7287
11.7295
11.7337
11.7409
11.7506
11.7625
11.7761
11.7914
11.8081
11.826
11.8451
11.8651
11.8861
11.908
11.9306
11.9541
11.9782
12.0031
12.0286
12.0548
12.0817
12.1092
12.1373
12.166
12.1953
12.2251
12.2552
12.2856
12.316
12.3462
12.3758
12.4044
12.4315
12.4564
12.4783
12.4966
12.5102
12.5184
12.5203
12.5151
12.5026
12.4827
12.4523
12.4068
11.8768
11.8376
11.8108
11.7917
11.7776
11.7681
11.763
11.7617
11.7637
11.7686
11.776
11.7856
11.7971
11.8103
11.825
11.8412
11.8586
11.8772
11.8968
11.9175
11.9391
11.9615
11.9848
12.0088
12.0336
12.0591
12.0852
12.112
12.1393
12.1672
12.1956
12.2242
12.2531
12.2821
12.3108
12.3391
12.3665
12.3927
12.417
12.4389
12.4577
12.4727
12.4832
12.4884
12.4877
12.4805
12.4667
12.4464
12.417
12.3739
11.9075
11.8697
11.8434
11.8242
11.8095
11.799
11.7925
11.7896
11.7899
11.7929
11.7984
11.8061
11.8158
11.8273
11.8404
11.8551
11.8711
11.8883
11.9068
11.9264
11.9469
11.9685
11.9909
12.0142
12.0383
12.0631
12.0885
12.1146
12.1413
12.1684
12.1958
12.2236
12.2513
12.279
12.3063
12.3328
12.3584
12.3824
12.4043
12.4237
12.4399
12.4523
12.4602
12.4631
12.4603
12.4516
12.4369
12.4165
12.3878
12.3468
11.9332
11.8965
11.8705
11.8513
11.8361
11.8249
11.8174
11.8133
11.8122
11.8138
11.8178
11.824
11.8322
11.8423
11.854
11.8674
11.8822
11.8983
11.9157
11.9344
11.9541
11.9748
11.9965
12.0191
12.0425
12.0667
12.0916
12.1171
12.143
12.1694
12.1961
12.223
12.2498
12.2763
12.3023
12.3275
12.3513
12.3735
12.3936
12.4109
12.425
12.4352
12.441
12.442
12.4377
12.4279
12.4126
12.3921
12.3642
12.3249
11.9541
11.9182
11.8926
11.8734
11.8579
11.8461
11.8379
11.8329
11.8307
11.8312
11.834
11.8391
11.8461
11.855
11.8656
11.8779
11.8917
11.9069
11.9235
11.9413
11.9603
11.9803
12.0014
12.0234
12.0463
12.0699
12.0943
12.1192
12.1446
12.1704
12.1964
12.2225
12.2485
12.2741
12.299
12.3229
12.3455
12.3662
12.3846
12.4003
12.4127
12.4212
12.4254
12.425
12.4195
12.4088
12.3931
12.3726
12.3453
12.3074
11.9705
11.9352
11.9099
11.8907
11.875
11.8629
11.8541
11.8484
11.8455
11.8451
11.8471
11.8512
11.8573
11.8653
11.8751
11.8865
11.8995
11.914
11.9299
11.947
11.9654
11.9849
12.0055
12.027
12.0494
12.0726
12.0965
12.1209
12.1459
12.1712
12.1967
12.2222
12.2475
12.2723
12.2963
12.3193
12.3408
12.3603
12.3775
12.3919
12.4029
12.4102
12.4132
12.4116
12.4053
12.394
12.378
12.3576
12.3308
12.294
11.9827
11.9479
11.9227
11.9035
11.8878
11.8753
11.8662
11.86
11.8565
11.8556
11.8569
11.8603
11.8658
11.8731
11.8823
11.8931
11.9055
11.9194
11.9347
11.9514
11.9693
11.9884
12.0086
12.0297
12.0518
12.0746
12.0982
12.1223
12.1469
12.1718
12.1969
12.2219
12.2467
12.2709
12.2943
12.3166
12.3373
12.356
12.3722
12.3856
12.3957
12.402
12.4041
12.4018
12.3949
12.3832
12.3669
12.3466
12.3201
12.2842
11.9907
11.9562
11.9312
11.912
11.8961
11.8836
11.8742
11.8677
11.8639
11.8625
11.8634
11.8664
11.8715
11.8784
11.8871
11.8975
11.9095
11.9231
11.938
11.9544
11.972
11.9908
12.0107
12.0316
12.0534
12.076
12.0993
12.1232
12.1476
12.1723
12.197
12.2218
12.2462
12.27
12.293
12.3148
12.3349
12.353
12.3687
12.3815
12.3909
12.3966
12.3982
12.3954
12.388
12.376
12.3597
12.3394
12.3132
12.2778
11.9947
11.9603
11.9354
11.9162
11.9003
11.8877
11.8782
11.8715
11.8675
11.866
11.8667
11.8695
11.8743
11.881
11.8895
11.8997
11.9115
11.9249
11.9397
11.9559
11.9734
11.992
12.0118
12.0325
12.0542
12.0767
12.0999
12.1237
12.1479
12.1725
12.1971
12.2217
12.2459
12.2696
12.2923
12.3138
12.3337
12.3516
12.367
12.3794
12.3885
12.3939
12.3952
12.3922
12.3846
12.3725
12.3561
12.3359
12.3098
12.2746
11.9947
11.9603
11.9354
11.9162
11.9003
11.8877
11.8782
11.8715
11.8675
11.866
11.8667
11.8695
11.8743
11.881
11.8895
11.8997
11.9115
11.9249
11.9397
11.9559
11.9733
11.992
12.0118
12.0325
12.0542
12.0767
12.0999
12.1237
12.1479
12.1725
12.1971
12.2217
12.2459
12.2696
12.2923
12.3138
12.3337
12.3516
12.367
12.3794
12.3885
12.3939
12.3952
12.3922
12.3846
12.3725
12.3561
12.3359
12.3098
12.2746
11.9907
11.9562
11.9312
11.912
11.8961
11.8836
11.8742
11.8677
11.8639
11.8625
11.8634
11.8664
11.8715
11.8784
11.8871
11.8975
11.9095
11.9231
11.938
11.9544
11.972
11.9908
12.0107
12.0316
12.0534
12.076
12.0993
12.1232
12.1476
12.1723
12.197
12.2218
12.2462
12.27
12.293
12.3148
12.3349
12.353
12.3687
12.3815
12.3909
12.3966
12.3982
12.3954
12.388
12.376
12.3597
12.3394
12.3132
12.2778
11.9827
11.9478
11.9227
11.9035
11.8877
11.8753
11.8662
11.86
11.8565
11.8555
11.8569
11.8603
11.8658
11.8731
11.8823
11.8931
11.9055
11.9194
11.9347
11.9514
11.9693
11.9884
12.0086
12.0297
12.0518
12.0746
12.0982
12.1223
12.1469
12.1718
12.1969
12.2219
12.2467
12.2709
12.2943
12.3166
12.3373
12.356
12.3722
12.3856
12.3957
12.402
12.4041
12.4018
12.3949
12.3832
12.3669
12.3466
12.3201
12.2842
11.9705
11.9352
11.9099
11.8907
11.875
11.8629
11.8541
11.8484
11.8455
11.8451
11.8471
11.8512
11.8573
11.8653
11.8751
11.8865
11.8995
11.914
11.9299
11.947
11.9654
11.9849
12.0055
12.027
12.0494
12.0726
12.0965
12.1209
12.1459
12.1712
12.1967
12.2222
12.2475
12.2723
12.2963
12.3193
12.3408
12.3603
12.3775
12.3919
12.4029
12.4102
12.4132
12.4116
12.4053
12.394
12.378
12.3576
12.3308
12.2939
11.9541
11.9182
11.8926
11.8734
11.8579
11.8461
11.8379
11.8329
11.8307
11.8312
11.834
11.8391
11.8461
11.855
11.8656
11.8779
11.8917
11.9069
11.9235
11.9413
11.9603
11.9803
12.0014
12.0234
12.0463
12.0699
12.0942
12.1192
12.1446
12.1704
12.1964
12.2225
12.2485
12.2741
12.299
12.3229
12.3455
12.3662
12.3846
12.4003
12.4127
12.4212
12.4254
12.425
12.4195
12.4088
12.3931
12.3726
12.3453
12.3074
11.9332
11.8964
11.8705
11.8513
11.8361
11.8249
11.8174
11.8133
11.8122
11.8138
11.8178
11.824
11.8322
11.8423
11.854
11.8674
11.8822
11.8983
11.9157
11.9343
11.9541
11.9748
11.9965
12.0191
12.0425
12.0667
12.0916
12.117
12.143
12.1694
12.1961
12.223
12.2498
12.2763
12.3023
12.3274
12.3513
12.3735
12.3936
12.4109
12.425
12.4352
12.441
12.442
12.4377
12.4279
12.4126
12.3921
12.3642
12.3249
11.9075
11.8697
11.8434
11.8242
11.8095
11.799
11.7925
11.7896
11.7899
11.7929
11.7984
11.8061
11.8158
11.8273
11.8404
11.855
11.871
11.8883
11.9068
11.9263
11.9469
11.9685
11.9909
12.0142
12.0383
12.0631
12.0885
12.1146
12.1413
12.1684
12.1958
12.2235
12.2513
12.279
12.3063
12.3328
12.3584
12.3824
12.4043
12.4237
12.4399
12.4523
12.4602
12.4631
12.4603
12.4516
12.4369
12.4165
12.3878
12.3468
11.8767
11.8376
11.8108
11.7917
11.7776
11.7681
11.763
11.7617
11.7637
11.7686
11.776
11.7855
11.797
11.8103
11.825
11.8412
11.8586
11.8772
11.8968
11.9175
11.939
11.9615
11.9848
12.0088
12.0336
12.059
12.0852
12.112
12.1393
12.1672
12.1955
12.2242
12.2531
12.2821
12.3108
12.3391
12.3665
12.3927
12.417
12.4389
12.4577
12.4727
12.4832
12.4884
12.4877
12.4805
12.4667
12.4464
12.417
12.3739
11.8404
11.7996
11.7721
11.7534
11.7401
11.732
11.7287
11.7295
11.7337
11.7409
11.7506
11.7624
11.7761
11.7914
11.8081
11.826
11.8451
11.8651
11.8861
11.908
11.9306
11.9541
11.9782
12.0031
12.0286
12.0548
12.0817
12.1092
12.1373
12.166
12.1953
12.2251
12.2552
12.2856
12.316
12.3462
12.3758
12.4044
12.4315
12.4564
12.4783
12.4966
12.5102
12.5184
12.5203
12.5151
12.5026
12.4827
12.4523
12.4068
11.7978
11.755
11.7268
11.7085
11.6965
11.6903
11.6893
11.6928
11.6998
11.7099
11.7225
11.7371
11.7533
11.771
11.7899
11.8099
11.8308
11.8525
11.8749
11.8981
11.9219
11.9464
11.9715
11.9972
12.0235
12.0505
12.0781
12.1064
12.1353
12.1649
12.1952
12.2261
12.2575
12.2895
12.3217
12.3541
12.3861
12.4176
12.4478
12.4762
12.5019
12.5241
12.5416
12.5536
12.5588
12.5563
12.5454
12.5262
12.4949
12.4466
11.7481
11.7027
11.6739
11.6564
11.6461
11.6425
11.6446
11.6515
11.6622
11.6759
11.6919
11.7097
11.7291
11.7495
11.771
11.7932
11.8161
11.8396
11.8636
11.8882
11.9132
11.9388
11.9648
11.9914
12.0185
12.0462
12.0746
12.1036
12.1333
12.1638
12.1951
12.2272
12.2601
12.2937
12.3279
12.3626
12.3975
12.4321
12.4659
12.4983
12.5285
12.5553
12.5777
12.5943
12.6038
12.6048
12.5965
12.5783
12.5461
12.4944
11.6903
11.6416
11.6122
11.5959
11.5882
11.5881
11.5944
11.6057
11.6209
11.639
11.6592
11.6809
11.7038
11.7274
11.7517
11.7764
11.8015
11.8269
11.8526
11.8786
11.9049
11.9315
11.9585
11.9859
12.0138
12.0422
12.0713
12.101
12.1316
12.1629
12.1953
12.2286
12.2629
12.2982
12.3346
12.3718
12.4096
12.4477
12.4857
12.5228
12.5581
12.5905
12.6188
12.6412
12.6562
12.6619
12.657
12.6405
12.6076
12.5519
11.6227
11.57
11.54
11.5257
11.5217
11.5265
11.5383
11.5554
11.5763
11.5998
11.625
11.6512
11.6781
11.7053
11.7327
11.7601
11.7875
11.8148
11.8422
11.8696
11.8971
11.9248
11.9527
11.9809
12.0095
12.0386
12.0683
12.0988
12.13
12.1623
12.1956
12.23
12.2658
12.303
12.3415
12.3813
12.4224
12.4644
12.5069
12.5492
12.5906
12.6297
12.665
12.6948
12.7168
12.7288
12.7287
12.7149
12.6816
12.6211
11.5432
11.4854
11.4551
11.4442
11.4456
11.4571
11.4763
11.5008
11.5288
11.5588
11.5899
11.6214
11.6528
11.6839
11.7146
11.7448
11.7746
11.8039
11.833
11.8618
11.8904
11.9191
11.9478
11.9767
12.0059
12.0356
12.0659
12.0969
12.1288
12.1618
12.196
12.2316
12.2688
12.3077
12.3485
12.3911
12.4355
12.4817
12.5292
12.5775
12.6257
12.6726
12.7166
12.7555
12.7866
12.807
12.8137
12.8042
12.771
12.7049
11.4486
11.3844
11.3547
11.3491
11.3585
11.3794
11.4083
11.4423
11.4791
11.517
11.5549
11.5923
11.6287
11.6641
11.6982
11.7313
11.7635
11.7947
11.8253
11.8554
11.8851
11.9145
11.9439
11.9734
12.0031
12.0332
12.064
12.0954
12.1279
12.1615
12.1966
12.2332
12.2718
12.3124
12.3553
12.4007
12.4486
12.4992
12.5521
12.6069
12.663
12.719
12.7734
12.8236
12.8665
12.8982
12.9147
12.912
12.8799
12.807
11.3344
11.2622
11.2346
11.2378
11.259
11.2929
11.3348
11.3809
11.4284
11.4756
11.5214
11.5653
11.6071
11.6468
11.6845
11.7204
11.7547
11.7878
11.8198
11.8509
11.8814
11.9115
11.9414
11.9712
12.0013
12.0317
12.0627
12.0945
12.1273
12.1614
12.1971
12.2347
12.2744
12.3166
12.3616
12.4097
12.4611
12.5162
12.5748
12.6367
12.7015
12.7682
12.8349
12.8992
12.9573
13.0044
13.0349
13.0428
13.014
12.933
11.1931
11.1114
11.0895
11.1069
11.1457
11.1977
11.2567
11.3179
11.3783
11.4363
11.4908
11.5418
11.5891
11.6331
11.6742
11.7127
11.7491
11.7836
11.8167
11.8486
11.8797
11.9101
11.9403
11.9703
12.0005
12.031
12.062
12.094
12.127
12.1614
12.1976
12.2358
12.2765
12.32
12.3669
12.4175
12.4723
12.5318
12.5962
12.6658
12.7402
12.8188
12.9001
12.9817
13.0594
13.1274
13.1782
13.2028
13.1813
13.0914
11.0127
10.9213
10.9117
10.9527
11.0176
11.0946
11.1758
11.2558
11.3314
11.4014
11.4654
11.5235
11.5762
11.6243
11.6684
11.7091
11.747
11.7826
11.8164
11.8487
11.8801
11.9106
11.9407
11.9707
12.0007
12.031
12.062
12.0938
12.1268
12.1613
12.1977
12.2363
12.2776
12.3222
12.3705
12.4233
12.4812
12.5449
12.6151
12.6923
12.7769
12.8688
12.967
13.0695
13.1723
13.2685
13.3489
13.4004
13.3939
13.2956
10.7722
10.6753
10.6917
10.7713
10.8749
10.9862
11.0958
11.1982
11.2911
11.3739
11.4474
11.5124
11.5701
11.6216
11.668
11.7102
11.749
11.7852
11.8192
11.8515
11.8827
11.913
11.9428
11.9723
12.0019
12.0319
12.0624
12.0939
12.1266
12.1609
12.1971
12.2358
12.2774
12.3226
12.372
12.4264
12.4868
12.5542
12.6296
12.7142
12.8091
12.915
13.0322
13.1595
13.2937
13.428
13.5513
13.6459
13.6695
13.5686
10.4328
10.3484
10.4181
10.5609
10.7208
10.8778
11.0224
11.1506
11.2618
11.3576
11.4398
11.5106
11.5721
11.626
11.6737
11.7166
11.7556
11.7915
11.8251
11.857
11.8875
11.9172
11.9462
11.9751
12.004
12.0333
12.0632
12.094
12.1261
12.1598
12.1956
12.2339
12.2753
12.3205
12.3703
12.4257
12.4877
12.5577
12.6374
12.7285
12.833
12.9531
13.0903
13.2458
13.4184
13.6028
13.7879
13.9517
14.0347
13.952
9.92291
9.903
10.0797
10.3241
10.5643
10.7798
10.9652
11.1206
11.2497
11.3567
11.4457
11.5205
11.5839
11.6386
11.6863
11.7286
11.7668
11.8018
11.8343
11.865
11.8945
11.923
11.951
11.9789
12.0068
12.035
12.064
12.0939
12.1251
12.1579
12.1928
12.2302
12.2709
12.3155
12.3648
12.42
12.4825
12.5538
12.6361
12.7319
12.8442
12.9767
13.1336
13.3189
13.5357
13.7838
14.0559
14.3295
14.5287
14.5213
9.11197
9.28933
9.66903
10.0707
10.421
10.7073
10.9362
11.1173
11.2608
11.3753
11.4677
11.5433
11.6063
11.6596
11.7057
11.7462
11.7824
11.8155
11.8463
11.8753
11.9032
11.9302
11.9568
11.9833
12.0099
12.0369
12.0646
12.0933
12.1232
12.1548
12.1884
12.2245
12.2638
12.3069
12.3549
12.4088
12.4702
12.5409
12.6235
12.721
12.8378
12.9792
13.1524
13.366
13.6302
13.9548
14.3452
14.7872
15.2024
15.4105
7.70349
8.4672
9.21055
9.83437
10.3214
10.6842
10.9518
11.1508
11.3011
11.4167
11.5072
11.5798
11.6392
11.6888
11.7314
11.7686
11.8019
11.8323
11.8606
11.8874
11.9132
11.9384
11.9632
11.9881
12.0131
12.0387
12.0649
12.092
12.1204
12.1504
12.1822
12.2165
12.2537
12.2947
12.3402
12.3915
12.4501
12.5179
12.5978
12.6932
12.8093
12.9532
13.135
13.3691
13.6758
14.0827
14.6199
15.2978
16.0956
16.9242
4.86794
7.46765
8.88546
9.76923
10.3733
10.7804
11.0561
11.2489
11.3885
11.4925
11.5724
11.6354
11.6866
11.7292
11.7657
11.7977
11.8265
11.853
11.8779
11.9017
11.9249
11.9477
11.9704
11.9932
12.0163
12.04
12.0643
12.0896
12.116
12.1438
12.1733
12.205
12.2393
12.2768
12.3185
12.3652
12.4185
12.4802
12.5527
12.6397
12.7462
12.88
13.0527
13.2828
13.6007
14.0568
14.7206
15.6771
17.1805
19.8978
-0.000126527
6.38499
9.0497
10.1455
10.7384
11.0884
11.3033
11.4447
11.544
11.6173
11.6734
11.718
11.7546
11.7855
11.8124
11.8365
11.8588
11.8798
11.9
11.9197
11.9393
11.959
11.9788
11.999
12.0196
12.0408
12.0627
12.0854
12.1091
12.134
12.1603
12.1882
12.2183
12.2508
12.2866
12.3262
12.3708
12.4217
12.4808
12.5506
12.635
12.7398
12.8743
13.055
13.3139
13.7151
14.3751
15.5658
18.3467
24.8559
)
;

boundaryField
{
    movingWallTop
    {
        type            zeroGradient;
    }
    movingWallBottom
    {
        type            zeroGradient;
    }
    fixedWalls
    {
        type            zeroGradient;
    }
    frontAndBack
    {
        type            empty;
    }
}


// ************************************************************************* //
