/*--------------------------------*- C++ -*----------------------------------*\
  =========                 |
  \\      /  F ield         | OpenFOAM: The Open Source CFD Toolbox
   \\    /   O peration     | Website:  https://openfoam.org
    \\  /    A nd           | Version:  7
     \\/     M anipulation  |
\*---------------------------------------------------------------------------*/
FoamFile
{
    version     2.0;
    format      ascii;
    class       volScalarField;
    location    "0.0306";
    object      p;
}
// * * * * * * * * * * * * * * * * * * * * * * * * * * * * * * * * * * * * * //

dimensions      [0 2 -2 0 0 0 0];

internalField   nonuniform List<scalar> 
2500
(
4.11166e-06
-0.000507902
-0.00192971
-0.00395513
-0.00627475
-0.00859134
-0.0107304
-0.0125396
-0.0139079
-0.0147577
-0.0150374
-0.0147166
-0.013782
-0.0122346
-0.0100872
-0.00736281
-0.00409264
-0.000314987
0.00392585
0.00858049
0.0135953
0.0189128
0.0244727
0.0302119
0.0360653
0.0419662
0.0478468
0.0536384
0.0592728
0.0646822
0.0698003
0.0745631
0.0789099
0.0827843
0.0861356
0.0889202
0.0911028
0.0926583
0.0935735
0.0938495
0.0935034
0.092572
0.0911142
0.0892163
0.0869979
0.0846187
0.0822659
0.0802286
0.0788177
0.0783268
0.000526628
1.3045e-05
-0.00113904
-0.00272516
-0.00451871
-0.00632474
-0.00798954
-0.00938683
-0.0104189
-0.0110132
-0.011119
-0.0107038
-0.00975065
-0.00825602
-0.00622759
-0.00368267
-0.000646809
0.00284742
0.00676141
0.0110514
0.0156694
0.0205633
0.0256783
0.0309567
0.0363389
0.0417636
0.0471686
0.0524913
0.0576691
0.0626404
0.0673454
0.0717264
0.0757295
0.0793051
0.0824092
0.0850047
0.0870629
0.0885646
0.0895019
0.0898802
0.0897197
0.089058
0.0879521
0.0864814
0.0847507
0.0828927
0.0810664
0.0794661
0.0783236
0.0778361
0.00195464
0.00116764
7.40601e-06
-0.00142283
-0.00298304
-0.00452707
-0.00592965
-0.00708694
-0.00791535
-0.00835058
-0.00834595
-0.00787044
-0.00690676
-0.00544962
-0.0035042
-0.00108469
0.00178685
0.00508159
0.00876482
0.0127967
0.0171332
0.0217264
0.0265252
0.0314762
0.0365237
0.0416106
0.0466789
0.05167
0.0565259
0.0611894
0.0656048
0.0697194
0.0734836
0.0768522
0.0797858
0.0822514
0.0842239
0.0856875
0.0866369
0.087079
0.087034
0.0865374
0.0856416
0.084417
0.0829537
0.0813614
0.0797699
0.0783276
0.0771799
0.0764269
0.00400337
0.00276849
0.00142115
-3.36189e-05
-0.00153824
-0.00297875
-0.00425458
-0.00528247
-0.00599342
-0.00633286
-0.00626032
-0.00574837
-0.00478138
-0.00335431
-0.00147152
0.000854307
0.00360321
0.0067488
0.0102591
0.0140972
0.018222
0.0225886
0.0271494
0.0318538
0.0366496
0.0414828
0.0462987
0.0510421
0.0556582
0.060093
0.0642945
0.0682129
0.0718019
0.0750195
0.0778289
0.0801998
0.0821092
0.0835428
0.0844961
0.0849754
0.0849993
0.0845995
0.0838218
0.0827269
0.0813901
0.0799009
0.0783645
0.0768981
0.0755655
0.0743743
0.00640109
0.00461113
0.00298182
0.00140547
-0.000140148
-0.00156634
-0.00279335
-0.00375686
-0.00440211
-0.00468463
-0.00457101
-0.00403846
-0.00307413
-0.0016743
0.000156439
0.00240601
0.00505567
0.0080807
0.0114512
0.0151324
0.0190857
0.0232689
0.0276368
0.0321418
0.0367341
0.0413627
0.0459754
0.05052
0.0549442
0.0591969
0.0632285
0.0669918
0.0704429
0.0735419
0.076254
0.0785504
0.0804093
0.0818167
0.0827678
0.0832675
0.0833315
0.0829867
0.0822721
0.0812382
0.0799467
0.0784683
0.0768882
0.0752993
0.0736888
0.071963
0.00887998
0.00652376
0.00456105
0.00279584
0.00113752
-0.000343927
-0.0015854
-0.00253901
-0.00316298
-0.00342256
-0.00329158
-0.0027524
-0.00179562
-0.000419619
0.00136998
0.00356091
0.00613491
0.00906825
0.0123323
0.0158941
0.0197169
0.0237604
0.0279815
0.0323348
0.0367727
0.0412464
0.0457061
0.0501015
0.0543825
0.0584999
0.0624062
0.0660559
0.0694066
0.0724198
0.0750618
0.0773044
0.0791259
0.0805121
0.0814566
0.0819623
0.0820413
0.0817156
0.081017
0.0799868
0.078674
0.0771339
0.0754358
0.0736549
0.0717115
0.0694231
0.0113018
0.00837438
0.00604841
0.00404836
0.00222469
0.00063455
-0.000671608
-0.00165961
-0.00229899
-0.00256394
-0.00243525
-0.00190056
-0.000954295
0.000402537
0.00216269
0.0043131
0.00683532
0.00970599
0.0128973
0.0163772
0.0201103
0.0240578
0.0281783
0.0324278
0.0367606
0.0411295
0.0454861
0.0497819
0.0539684
0.0579976
0.0618232
0.0654008
0.0686888
0.0716494
0.0742489
0.0764591
0.0782577
0.0796291
0.0805653
0.0810662
0.08114
0.0808037
0.0800823
0.0790088
0.0776218
0.0759634
0.0740918
0.0720704
0.0697628
0.0669082
0.0135406
0.0100528
0.00734983
0.00508578
0.00306063
0.00132338
-8.46839e-05
-0.00114052
-0.00182329
-0.00211512
-0.00200324
-0.00148047
-0.000545181
0.000798696
0.00254188
0.00467003
0.00716401
0.0100003
0.0131513
0.0165856
0.0202686
0.0241623
0.0282265
0.0324184
0.0366933
0.0410053
0.0453072
0.0495513
0.0536901
0.0576764
0.0614645
0.0650103
0.0682725
0.071213
0.0737977
0.0759976
0.0777889
0.0791544
0.0800836
0.0805731
0.0806273
0.080258
0.0794843
0.0783319
0.0768306
0.0750128
0.0729284
0.0706346
0.0679465
0.0645356
0.015503
0.0114701
0.00838462
0.00583816
0.0035869
0.00167532
0.000138362
-0.00100982
-0.00175642
-0.00209044
-0.00200501
-0.00149782
-0.000571177
0.000767917
0.00250788
0.00463271
0.00712222
0.00995229
0.0130951
0.0165193
0.0201906
0.0240717
0.0281228
0.0323019
0.0365651
0.040867
0.0451611
0.0494002
0.0535372
0.0575251
0.0613181
0.0648721
0.0681451
0.0710983
0.0736966
0.0759093
0.077711
0.079082
0.0800088
0.0804849
0.0805105
0.0800927
0.0792452
0.0779875
0.0763424
0.0743347
0.0720098
0.0694219
0.0663448
0.0623897
0.0171192
0.0125536
0.009083
0.0062418
0.00374727
0.00164203
-4.31229e-05
-0.00130105
-0.00212563
-0.00251178
-0.00245791
-0.00196628
-0.00104304
0.000301686
0.00205381
0.00419544
0.00670497
0.00955733
0.0127241
0.0161737
0.0198716
0.0237807
0.0278614
0.032072
0.0363689
0.0407068
0.0450395
0.0493199
0.0535005
0.0575343
0.0613748
0.0649772
0.0682983
0.0712981
0.0739397
0.0761905
0.0780225
0.0794133
0.0803463
0.0808113
0.0808045
0.0803285
0.0793923
0.0780102
0.0761995
0.0739796
0.0713934
0.0684953
0.0650228
0.0605323
0.0183335
0.0132419
0.00938334
0.00623815
0.00348781
0.00117501
-0.000671868
-0.00205131
-0.00296273
-0.00340619
-0.00338485
-0.00290522
-0.00197718
-0.000614022
0.00116757
0.00334755
0.00590269
0.00880661
0.01203
0.0155405
0.0193034
0.0232812
0.0274341
0.0317203
0.0360961
0.0405161
0.0449338
0.0493016
0.0535716
0.057696
0.0616271
0.0653189
0.0687268
0.0718085
0.0745251
0.0768414
0.0787266
0.080155
0.0811065
0.0815671
0.081529
0.0809906
0.0799565
0.0784368
0.0764445
0.0739951
0.0711312
0.0679095
0.0640343
0.0590099
0.0190986
0.0134809
0.00922937
0.0057719
0.00275582
0.000225261
-0.00179262
-0.00330087
-0.00430359
-0.00480538
-0.00481373
-0.00433918
-0.00339521
-0.0019983
-0.00016787
0.00207375
0.00470143
0.00768725
0.0110007
0.0146085
0.0184751
0.0225624
0.0268303
0.0312364
0.0357365
0.0402849
0.0448342
0.0493362
0.053742
0.0580024
0.0620686
0.0658923
0.0694271
0.0726283
0.0754542
0.0778664
0.0798308
0.0813181
0.0823044
0.0827717
0.082708
0.0821077
0.0809715
0.0793058
0.0771204
0.0744279
0.071272
0.0677136
0.0634251
0.0578601
0.0193719
0.0132203
0.0085676
0.00478918
0.00149866
-0.0012575
-0.00345253
-0.0050933
-0.00618807
-0.00674555
-0.00677726
-0.00629762
-0.00532368
-0.00387512
-0.00197422
0.000354219
0.00308297
0.00618235
0.00962034
0.0133626
0.0173723
0.0216108
0.0260369
0.0306077
0.0352782
0.0400017
0.0447301
0.049414
0.054003
0.0584464
0.0626934
0.0666936
0.0703978
0.0737585
0.0767308
0.0792726
0.081346
0.0829177
0.0839594
0.0844489
0.0843699
0.0837129
0.0824747
0.0806586
0.0782716
0.0753246
0.0718634
0.0679541
0.0632376
0.0571161
0.0191116
0.0124108
0.00734511
0.00323586
-0.000337511
-0.00332564
-0.00570161
-0.00747574
-0.00866013
-0.00926734
-0.00931281
-0.00881477
-0.00779388
-0.00627313
-0.00427777
-0.00183522
0.00102496
0.00427113
0.00786957
0.0117845
0.0159779
0.0204098
0.0250384
0.0298194
0.0347071
0.0396536
0.0446096
0.0495241
0.0543453
0.0590203
0.063496
0.0677195
0.0716385
0.075202
0.0783613
0.0810702
0.0832865
0.0849722
0.0860945
0.0866264
0.0865471
0.0858429
0.0845069
0.0825394
0.0799451
0.0767336
0.0729536
0.0686772
0.063513
0.0568098
0.0182746
0.0110021
0.00550751
0.0010559
-0.00280897
-0.00603453
-0.00859342
-0.0104993
-0.011768
-0.0124159
-0.0124623
-0.0119295
-0.0108417
-0.00922547
-0.00710912
-0.00452294
-0.00149896
0.001929
0.00572531
0.0098525
0.0142712
0.0189402
0.0238163
0.0288543
0.034007
0.0392255
0.0444588
0.0496545
0.0547586
0.059716
0.064471
0.0689675
0.0731497
0.0769628
0.0803537
0.0832716
0.0856694
0.0875037
0.0887367
0.0893361
0.0892763
0.0885389
0.0871133
0.0849967
0.0821916
0.0787064
0.0745934
0.0699314
0.0642948
0.0569752
0.0168141
0.00894035
0.00299717
-0.00181016
-0.00597571
-0.00944352
-0.0121858
-0.0142195
-0.0155644
-0.016241
-0.0162725
-0.0156853
-0.0145077
-0.0127697
-0.0105031
-0.00774131
-0.00451895
-0.000872254
0.00316107
0.00754176
0.0122289
0.0171797
0.0223497
0.0276925
0.0331595
0.0387003
0.0442624
0.0497915
0.0552313
0.0605244
0.0656119
0.0704343
0.074932
0.0790457
0.0827173
0.0858911
0.0885139
0.0905369
0.0919162
0.0926137
0.0925983
0.0918466
0.0903437
0.0880836
0.0850663
0.0812992
0.0768381
0.0717694
0.0656302
0.0576508
0.0146779
0.00616686
-0.00024843
-0.00542671
-0.00990267
-0.013617
-0.0165415
-0.018697
-0.0201074
-0.0207974
-0.0207949
-0.0201305
-0.0188367
-0.0169476
-0.0144987
-0.0115266
-0.00806886
-0.0041643
0.000147127
0.00482421
0.0098243
0.0151032
0.0206149
0.0263117
0.0321436
0.0380587
0.0440028
0.0499194
0.0557503
0.061435
0.0669114
0.0721164
0.0769859
0.0814557
0.0854624
0.0889442
0.0918417
0.0940994
0.0956667
0.0964989
0.0965587
0.0958169
0.0942537
0.0918592
0.0886307
0.0845742
0.0797494
0.0742502
0.0675733
0.0588814
0.011807
0.00261618
-0.00429829
-0.00986443
-0.014661
-0.0186254
-0.0217294
-0.0239981
-0.0254602
-0.0261452
-0.0260859
-0.0253178
-0.0238781
-0.0218052
-0.0191387
-0.0159186
-0.0121859
-0.007982
-0.00334928
0.00166896
0.00702831
0.012683
0.0185856
0.0246871
0.030936
0.0372789
0.0436599
0.0500207
0.0563003
0.0624355
0.0683608
0.0740089
0.0793111
0.0841977
0.0885994
0.0924476
0.0956758
0.0982211
0.100025
0.101036
0.101208
0.100506
0.098905
0.0963895
0.0929536
0.0886015
0.0833967
0.0774411
0.0701863
0.060721
0.00813334
-0.00178532
-0.00922931
-0.0152017
-0.0203291
-0.0245462
-0.027825
-0.0301956
-0.0316923
-0.03235
-0.0322072
-0.0313049
-0.0296856
-0.0273925
-0.0244695
-0.0209606
-0.0169103
-0.012363
-0.00736354
-0.00195737
0.00380929
0.00988911
0.0162333
0.0227915
0.029511
0.036337
0.0432119
0.0500753
0.056864
0.0635117
0.0699495
0.0761056
0.0819063
0.087276
0.0921388
0.0964186
0.100041
0.102935
0.105032
0.106272
0.106602
0.105978
0.104366
0.101748
0.0981126
0.0934607
0.0878597
0.0814197
0.0735422
0.063234
0.00357931
-0.00712101
-0.0151279
-0.0215259
-0.0269943
-0.0314652
-0.0349115
-0.0373694
-0.0388795
-0.0394833
-0.0392258
-0.0381543
-0.036317
-0.0337629
-0.0305406
-0.0266986
-0.0222849
-0.0173472
-0.0119331
-0.00609012
0.000133728
0.00668963
0.0135276
0.020596
0.0278411
0.0352069
0.0426343
0.0500611
0.0574218
0.0646472
0.0716648
0.0783982
0.0847685
0.0906937
0.0960906
0.100875
0.104963
0.108274
0.11073
0.112261
0.112802
0.1123
0.110715
0.108019
0.104195
0.0992421
0.0932296
0.0862759
0.0777266
0.0664982
-0.00194447
-0.0134855
-0.0220912
-0.028935
-0.0347539
-0.0394775
-0.0430807
-0.0456071
-0.0471048
-0.0476229
-0.0472141
-0.0459328
-0.0438342
-0.0409733
-0.0374044
-0.0331807
-0.0283542
-0.0229762
-0.0170968
-0.0107658
-0.00403302
0.0030515
0.0104367
0.0180701
0.0258972
0.0338609
0.041901
0.049954
0.057952
0.0658234
0.0734918
0.0808766
0.087893
0.0944525
0.100464
0.105834
0.110468
0.114276
0.117167
0.119058
0.119875
0.119551
0.118037
0.115295
0.111301
0.106049
0.0996115
0.092114
0.0828403
0.0706063
-0.0085404
-0.0209865
-0.0302295
-0.0375394
-0.0437164
-0.0486888
-0.0524343
-0.055005
-0.0564585
-0.0568529
-0.0562497
-0.0547117
-0.0523022
-0.0490832
-0.0451151
-0.0404564
-0.0351638
-0.0292918
-0.0228936
-0.0160212
-0.00872573
-0.00105852
0.0069287
0.0151829
0.0236492
0.0322701
0.0409846
0.049728
0.0584311
0.0670194
0.0754134
0.083528
0.0912728
0.098552
0.105266
0.111312
0.116584
0.120978
0.124391
0.126727
0.127895
0.127816
0.126428
0.123681
0.119544
0.114001
0.107127
0.0990557
0.0890015
0.0756689
-0.0163256
-0.0297465
-0.0396671
-0.0474631
-0.0540038
-0.059217
-0.0630845
-0.0656691
-0.0670392
-0.067264
-0.0664154
-0.0645664
-0.0617891
-0.0581538
-0.0537278
-0.0485756
-0.0427585
-0.0363352
-0.0293616
-0.0218916
-0.0139779
-0.00567255
0.00297248
0.0119041
0.0210676
0.0304056
0.0398569
0.0493564
0.0588337
0.0682126
0.0774103
0.0863378
0.0948986
0.10299
0.110503
0.117325
0.123336
0.128419
0.132456
0.135332
0.136942
0.13719
0.135996
0.133298
0.129052
0.123233
0.115916
0.107242
0.0963485
0.0818169
-0.025434
-0.0399047
-0.0505453
-0.0588462
-0.0657529
-0.0711934
-0.0751556
-0.077715
-0.0789537
-0.0789535
-0.077799
-0.0755751
-0.0723645
-0.0682466
-0.0632968
-0.0575863
-0.0511815
-0.044145
-0.0365357
-0.0284096
-0.0198202
-0.0108199
-0.00146051
0.00820558
0.0181244
0.0282394
0.0384903
0.0488121
0.0591342
0.0693789
0.0794615
0.0892887
0.098759
0.107762
0.11618
0.123887
0.130752
0.13664
0.141415
0.144946
0.147104
0.147775
0.14686
0.144279
0.139971
0.1339
0.126139
0.116837
0.105043
0.0892046
-0.0360182
-0.0516199
-0.0630246
-0.0718474
-0.0791175
-0.0847649
-0.0887852
-0.09127
-0.0923172
-0.0920248
-0.0904923
-0.0878184
-0.0840983
-0.0794221
-0.0738743
-0.0675333
-0.0604712
-0.0527549
-0.0444462
-0.0356024
-0.026278
-0.016525
-0.00639431
0.00406308
0.0147949
0.0257465
0.0368591
0.0480693
0.0593068
0.0704941
0.0815446
0.0923621
0.10284
0.112861
0.122298
0.131012
0.138857
0.145681
0.151328
0.155643
0.158476
0.159688
0.159154
0.156775
0.152469
0.146182
0.137985
0.128032
0.115275
0.0980134
-0.0482523
-0.0650733
-0.0772878
-0.0866467
-0.0942713
-0.100096
-0.104126
-0.106473
-0.107254
-0.106588
-0.10459
-0.101378
-0.0970591
-0.0917375
-0.0855074
-0.0784553
-0.0706596
-0.0621914
-0.0531151
-0.0434895
-0.0333691
-0.0228048
-0.011846
-0.000541188
0.0110602
0.0229063
0.0349415
0.0471047
0.0593278
0.0715342
0.0836369
0.0955378
0.107126
0.118278
0.128856
0.138709
0.147675
0.155583
0.162253
0.167505
0.171162
0.173053
0.173028
0.170957
0.166733
0.160283
0.151668
0.141047
0.127265
0.108456
-0.0623352
-0.0804724
-0.0935438
-0.103449
-0.111411
-0.117369
-0.121346
-0.123474
-0.123898
-0.122756
-0.12019
-0.116332
-0.111311
-0.105244
-0.0982354
-0.0903819
-0.0817683
-0.0724699
-0.0625536
-0.0520792
-0.0411002
-0.029666
-0.0178229
-0.00561605
0.00690919
0.0197054
0.0327213
0.0458999
0.0591767
0.0724775
0.0857167
0.0987954
0.1116
0.124
0.13585
0.146987
0.157229
0.166386
0.174252
0.180617
0.185271
0.18801
0.188647
0.187017
0.182982
0.176439
0.167439
0.15614
0.14127
0.120781
-0.0784946
-0.0980555
-0.112033
-0.122489
-0.130759
-0.136793
-0.140632
-0.142439
-0.142389
-0.140649
-0.137386
-0.132758
-0.126912
-0.119982
-0.112086
-0.10333
-0.0938048
-0.0835914
-0.0727583
-0.061365
-0.0494639
-0.0371012
-0.0243193
-0.0111583
0.00234199
0.0161401
0.0301908
0.0444432
0.0588381
0.0733058
0.087764
0.102115
0.116243
0.130016
0.143276
0.15585
0.16754
0.178129
0.187387
0.195068
0.200924
0.204711
0.206196
0.205172
0.20146
0.194921
0.185586
0.173613
0.157593
0.135279
-0.0969926
-0.118099
-0.133033
-0.144036
-0.15257
-0.1586
-0.162191
-0.163547
-0.162877
-0.160386
-0.156273
-0.150724
-0.143908
-0.135979
-0.12707
-0.117297
-0.106758
-0.0955379
-0.0837062
-0.0713219
-0.0584344
-0.0450859
-0.031313
-0.0171493
-0.00262744
0.0122191
0.0273533
0.0427321
0.0583042
0.0740067
0.0897626
0.105478
0.121039
0.136308
0.151125
0.165301
0.178623
0.19085
0.201719
0.210949
0.218247
0.223319
0.225879
0.225667
0.22245
0.216042
0.206449
0.193817
0.176588
0.152293
-0.118133
-0.140924
-0.156868
-0.168404
-0.177136
-0.183052
-0.186253
-0.186988
-0.185517
-0.182087
-0.176936
-0.170284
-0.162328
-0.153243
-0.143178
-0.132259
-0.120593
-0.108267
-0.0953508
-0.0819013
-0.0679636
-0.0535739
-0.0387616
-0.0235519
-0.00796788
0.00796683
0.0242256
0.040776
0.0575768
0.0745748
0.0917015
0.108869
0.125968
0.142861
0.159383
0.175336
0.19049
0.20458
0.21731
0.228356
0.237375
0.244014
0.247924
0.248777
0.246274
0.240167
0.23042
0.217165
0.19867
0.172223
-0.142269
-0.16691
-0.18392
-0.195957
-0.204794
-0.210449
-0.21307
-0.21297
-0.210467
-0.205864
-0.199447
-0.191475
-0.182178
-0.171754
-0.160369
-0.148162
-0.135245
-0.121707
-0.107616
-0.0930265
-0.0779763
-0.0624939
-0.0465992
-0.0303067
-0.013628
0.00342582
0.0208409
0.0385981
0.0566694
0.0750143
0.0935761
0.112277
0.131015
0.149656
0.168036
0.185948
0.203148
0.219346
0.234214
0.24738
0.258445
0.266988
0.272581
0.274814
0.273302
0.267715
0.257963
0.244146
0.224335
0.195544
-0.169822
-0.196508
-0.214641
-0.227128
-0.235936
-0.24113
-0.242923
-0.241709
-0.237884
-0.23182
-0.223858
-0.214308
-0.203433
-0.191459
-0.17857
-0.164916
-0.150612
-0.13575
-0.120393
-0.104589
-0.0883669
-0.0717456
-0.0547327
-0.0373296
-0.0195335
-0.0013408
0.0172506
0.0362377
0.0556088
0.0753398
0.0953894
0.115694
0.136164
0.156674
0.177062
0.197121
0.216592
0.235167
0.252479
0.268112
0.2816
0.292444
0.300125
0.304127
0.303958
0.299179
0.289624
0.275342
0.254171
0.222819
-0.201292
-0.230266
-0.249579
-0.262431
-0.27102
-0.275481
-0.276119
-0.273435
-0.267921
-0.260036
-0.250193
-0.238753
-0.226025
-0.212259
-0.197659
-0.182383
-0.16655
-0.150246
-0.133531
-0.116441
-0.0989952
-0.0811971
-0.0630401
-0.0445096
-0.0255861
-0.00624795
0.0135256
0.0337508
0.0544359
0.075577
0.0971526
0.119118
0.141401
0.163891
0.186435
0.208828
0.230807
0.252044
0.272141
0.29063
0.306979
0.320596
0.330852
0.337107
0.338727
0.335136
0.326052
0.31145
0.288888
0.254722
-0.237293
-0.268853
-0.289403
-0.302483
-0.310584
-0.313945
-0.312995
-0.308377
-0.300712
-0.290563
-0.278429
-0.264735
-0.249832
-0.234001
-0.217462
-0.200376
-0.182863
-0.165001
-0.146839
-0.128399
-0.109685
-0.090683
-0.0713689
-0.0517086
-0.0316626
-0.0111885
0.00975607
0.0312102
0.0532055
0.0757623
0.0988838
0.12255
0.146711
0.171279
0.196117
0.22103
0.245758
0.26996
0.293212
0.314998
0.334709
0.351656
0.365081
0.374189
0.37817
0.376262
0.368026
0.353318
0.329351
0.292071
-0.278584
-0.313109
-0.334941
-0.348041
-0.35527
-0.357023
-0.353911
-0.346761
-0.336361
-0.323403
-0.308487
-0.292108
-0.274665
-0.256464
-0.237736
-0.218645
-0.199299
-0.179766
-0.160076
-0.140234
-0.120222
-0.100005
-0.0795371
-0.0587619
-0.0376167
-0.0160351
0.00604987
0.0287033
0.051984
0.0759406
0.100606
0.125991
0.152075
0.178799
0.206054
0.233665
0.261384
0.288868
0.315675
0.341245
0.364896
0.385831
0.403144
0.415853
0.422926
0.423357
0.416484
0.401981
0.376627
0.335871
-0.326128
-0.364103
-0.38724
-0.400031
-0.405838
-0.405288
-0.399245
-0.388791
-0.37492
-0.358486
-0.340203
-0.320642
-0.300247
-0.279344
-0.258166
-0.236869
-0.215545
-0.194238
-0.172956
-0.151676
-0.130356
-0.108933
-0.0873359
-0.065482
-0.0432824
-0.0206439
0.00252837
0.0263283
0.0508456
0.0761612
0.102343
0.129437
0.157463
0.186399
0.216172
0.246642
0.277586
0.308677
0.339463
0.369355
0.397605
0.4233
0.445371
0.462615
0.473722
0.477363
0.472566
0.458728
0.432052
0.387372
-0.381177
-0.423227
-0.447637
-0.45961
-0.463193
-0.459375
-0.449378
-0.43462
-0.416359
-0.395639
-0.373302
-0.349994
-0.326194
-0.302238
-0.278348
-0.254654
-0.231222
-0.208061
-0.185146
-0.162419
-0.139805
-0.117212
-0.0945359
-0.0716649
-0.0484808
-0.0248608
-0.00067978
0.024188
0.0498659
0.0764717
0.104112
0.132877
0.162831
0.194001
0.226364
0.259829
0.294216
0.329232
0.364441
0.399241
0.432829
0.464187
0.49207
0.515017
0.531376
0.539397
0.537671
0.525178
0.497333
0.448167
-0.445398
-0.492332
-0.517876
-0.528221
-0.528412
-0.519981
-0.50466
-0.484312
-0.46052
-0.434547
-0.407364
-0.379682
-0.351998
-0.324635
-0.29778
-0.271525
-0.245885
-0.220825
-0.19627
-0.172123
-0.148266
-0.124569
-0.100895
-0.0770985
-0.0530285
-0.0285307
-0.00344757
0.0223806
0.0491137
0.076909
0.105917
0.136277
0.168107
0.201494
0.236479
0.273037
0.311054
0.350297
0.390376
0.430704
0.470456
0.508522
0.543482
0.573592
0.596786
0.610768
0.613523
0.603397
0.574689
0.520327
-0.521083
-0.573941
-0.600255
-0.607684
-0.602754
-0.58783
-0.565359
-0.537776
-0.507055
-0.474692
-0.441774
-0.40905
-0.376998
-0.345894
-0.315863
-0.286926
-0.25903
-0.232073
-0.205923
-0.180427
-0.155419
-0.130727
-0.106172
-0.0815751
-0.0567499
-0.031509
-0.0056609
0.0209893
0.0486394
0.0774889
0.107736
0.139574
0.173183
0.20872
0.246304
0.286
0.327786
0.37152
0.416897
0.463395
0.510206
0.556173
0.599723
0.638816
0.670903
0.693001
0.702256
0.696061
0.667077
0.606621
-0.611488
-0.67157
-0.697853
-0.700283
-0.687661
-0.663611
-0.631561
-0.594665
-0.555335
-0.515285
-0.475675
-0.437233
-0.400364
-0.365245
-0.331895
-0.30023
-0.270101
-0.241321
-0.213682
-0.186965
-0.160951
-0.135416
-0.110141
-0.0849058
-0.0594911
-0.0336748
-0.00723157
0.020069
0.0484634
0.0781944
0.10951
0.142661
0.177898
0.215457
0.255554
0.29836
0.343978
0.392399
0.443455
0.496746
0.551558
0.606756
0.660675
0.711002
0.754662
0.787825
0.806506
0.806683
0.77853
0.710884
-0.721427
-0.790247
-0.814825
-0.808854
-0.784694
-0.74784
-0.703018
-0.654234
-0.604332
-0.555177
-0.507903
-0.463122
-0.421078
-0.381777
-0.345077
-0.310747
-0.278509
-0.248068
-0.219125
-0.191387
-0.164569
-0.138397
-0.112606
-0.0869368
-0.0611351
-0.0349459
-0.00811088
0.0196344
0.0485637
0.0789629
0.11113
0.145378
0.182028
0.221409
0.263845
0.309638
0.359047
0.412244
0.469258
0.529899
0.593646
0.659505
0.725835
0.790142
0.848838
0.89711
0.929502
0.939918
0.914697
0.838647
-0.858362
-0.937332
-0.956799
-0.936828
-0.89537
-0.84061
-0.778894
-0.715121
-0.65246
-0.592751
-0.53693
-0.485336
-0.437932
-0.394459
-0.354543
-0.317756
-0.28366
-0.251831
-0.221863
-0.193379
-0.166027
-0.139478
-0.113423
-0.0875656
-0.0616167
-0.0352915
-0.0083021
0.0196472
0.0488649
0.0796768
0.11243
0.147498
0.185277
0.226192
0.270688
0.319221
0.372235
0.430134
0.49322
0.561616
0.635132
0.713093
0.794084
0.875636
0.953781
1.02269
1.0751
1.10197
1.08369
0.998287
-1.03447
-1.12381
-1.13134
-1.08813
-1.02079
-0.941166
-0.857386
-0.775069
-0.697384
-0.625815
-0.56081
-0.502215
-0.449545
-0.402163
-0.359385
-0.320538
-0.284992
-0.252173
-0.221562
-0.192693
-0.165145
-0.138538
-0.112518
-0.0867566
-0.0609357
-0.0347445
-0.0078702
0.0200091
0.0492312
0.0801575
0.11318
0.148726
0.18727
0.229332
0.275484
0.32635
0.382591
0.44489
0.513903
0.590184
0.674056
0.765407
0.863373
0.965884
1.06896
1.16597
1.24766
1.30106
1.29743
1.20323
-1.27091
-1.36631
-1.34824
-1.26663
-1.16085
-1.04715
-0.935148
-0.830535
-0.735801
-0.651497
-0.577159
-0.511838
-0.454406
-0.403721
-0.358715
-0.318429
-0.282017
-0.248747
-0.217983
-0.189173
-0.161835
-0.135538
-0.109897
-0.0845521
-0.0591657
-0.0334074
-0.00694648
0.0205579
0.0494657
0.0801659
0.113087
0.148706
0.187563
0.230271
0.277528
0.33013
0.388975
0.455064
0.52948
0.613338
0.707679
0.813274
0.930277
1.05765
1.19215
1.32707
1.45149
1.54769
1.57371
1.47644
-1.60653
-1.69009
-1.61901
-1.47446
-1.31245
-1.1532
-1.00635
-0.87614
-0.763154
-0.666138
-0.583139
-0.512063
-0.45093
-0.397985
-0.35172
-0.310866
-0.274361
-0.241319
-0.210999
-0.182773
-0.156108
-0.130538
-0.105652
-0.0810746
-0.0564543
-0.0314515
-0.00572634
0.0210715
0.0493143
0.0794084
0.111807
0.147024
0.185653
0.228384
0.27603
0.329549
0.390075
0.458944
0.537717
0.628181
0.732304
0.852109
0.989375
1.14502
1.31791
1.50288
1.68896
1.85405
1.93919
1.85955
-2.11325
-2.13272
-1.95497
-1.70895
-1.46682
-1.24914
-1.06167
-0.90423
-0.773541
-0.665369
-0.575612
-0.500688
-0.437611
-0.383951
-0.337757
-0.297465
-0.261821
-0.229816
-0.200625
-0.173571
-0.148089
-0.123694
-0.0999655
-0.0765237
-0.0530171
-0.0291073
-0.0044567
0.0212833
0.0484855
0.07756
0.108969
0.143247
0.181019
0.22303
0.270177
0.323553
0.384497
0.454661
0.536085
0.631279
0.743297
0.875761
1.03276
1.21841
1.43571
1.68435
1.95734
2.23209
2.43299
2.42806
-2.9217
-2.74424
-2.36368
-1.9605
-1.6084
-1.31993
-1.08901
-0.905936
-0.760835
-0.645149
-0.552031
-0.476194
-0.413615
-0.361238
-0.316733
-0.278316
-0.244601
-0.214505
-0.187165
-0.161887
-0.1381
-0.115324
-0.0931453
-0.0711969
-0.0491398
-0.0266498
-0.00340378
0.0209332
0.0467206
0.0743571
0.104297
0.137072
0.173311
0.213781
0.259421
0.311404
0.37121
0.440733
0.522419
0.61945
0.735991
0.877481
1.05092
1.26502
1.52981
1.8552
2.2464
2.68943
3.10604
3.31612
-4.32849
-3.56495
-2.82083
-2.19557
-1.70667
-1.34172
-1.07204
-0.870983
-0.71896
-0.602126
-0.510737
-0.437945
-0.378904
-0.33014
-0.289121
-0.253972
-0.223279
-0.19596
-0.171169
-0.148236
-0.126619
-0.105866
-0.0855928
-0.0654586
-0.0451522
-0.0243762
-0.00283418
0.019782
0.0438048
0.0696057
0.0976115
0.128325
0.162351
0.200432
0.243495
0.292714
0.349609
0.416177
0.495087
0.589979
0.705896
0.849941
1.03219
1.26694
1.5744
1.9823
2.52043
3.19942
3.99836
4.82836
-7.1633
-4.56385
-3.14529
-2.25999
-1.65389
-1.24453
-0.966436
-0.77134
-0.629862
-0.524293
-0.443436
-0.379985
-0.329054
-0.287281
-0.25229
-0.222357
-0.196205
-0.17287
-0.151605
-0.131826
-0.11306
-0.094919
-0.0770734
-0.0592329
-0.0411321
-0.0225176
-0.00313557
0.0172777
0.0390095
0.0623823
0.0877689
0.115611
0.146445
0.18093
0.219897
0.264408
0.315853
0.376082
0.447627
0.534034
0.640421
0.774408
0.947655
1.17855
1.49749
1.95478
2.61994
3.5776
5.08225
7.80051
-12.0317
-5.64668
-2.98115
-1.88363
-1.2883
-0.935499
-0.717747
-0.573639
-0.471914
-0.396737
-0.339233
-0.293981
-0.257475
-0.227332
-0.201869
-0.179859
-0.160389
-0.142764
-0.126447
-0.111014
-0.0961223
-0.0814915
-0.066882
-0.052083
-0.0369009
-0.0211494
-0.00464138
0.0128214
0.0314553
0.0515052
0.0732559
0.0970453
0.123283
0.152471
0.18524
0.222388
0.264952
0.314301
0.372292
0.441522
0.525766
0.630795
0.765958
0.947696
1.20801
1.61077
2.27255
3.465
6.2474
12.7577
)
;

boundaryField
{
    movingWall
    {
        type            zeroGradient;
    }
    fixedWalls
    {
        type            zeroGradient;
    }
    frontAndBack
    {
        type            empty;
    }
}


// ************************************************************************* //
