/*--------------------------------*- C++ -*----------------------------------*\
  =========                 |
  \\      /  F ield         | OpenFOAM: The Open Source CFD Toolbox
   \\    /   O peration     | Website:  https://openfoam.org
    \\  /    A nd           | Version:  7
     \\/     M anipulation  |
\*---------------------------------------------------------------------------*/
FoamFile
{
    version     2.0;
    format      ascii;
    class       volScalarField;
    location    "0.0352";
    object      p;
}
// * * * * * * * * * * * * * * * * * * * * * * * * * * * * * * * * * * * * * //

dimensions      [0 2 -2 0 0 0 0];

internalField   nonuniform List<scalar> 
2500
(
2.06367e-06
6.38513
9.04988
10.1457
10.7387
11.0888
11.3038
11.4452
11.5445
11.6178
11.6739
11.7184
11.7549
11.7857
11.8125
11.8366
11.8587
11.8795
11.8996
11.9192
11.9387
11.9581
11.9778
11.9979
12.0184
12.0395
12.0612
12.0838
12.1074
12.1322
12.1584
12.1863
12.2163
12.2488
12.2845
12.3242
12.3688
12.4197
12.4788
12.5487
12.6331
12.7379
12.8725
13.0532
13.3123
13.7135
14.3735
15.5643
18.3452
24.8545
4.86805
7.46776
8.88561
9.76943
10.3736
10.7807
11.0564
11.2493
11.3888
11.4929
11.5727
11.6357
11.6868
11.7293
11.7657
11.7976
11.8263
11.8527
11.8775
11.9012
11.9242
11.9468
11.9694
11.9921
12.0151
12.0386
12.0629
12.088
12.1143
12.142
12.1715
12.2031
12.2374
12.2749
12.3165
12.3633
12.4166
12.4782
12.5508
12.6378
12.7444
12.8782
13.051
13.2811
13.5991
14.0552
14.7191
15.6756
17.1791
19.8964
7.70354
8.46727
9.21066
9.83452
10.3216
10.6845
10.952
11.1511
11.3014
11.4169
11.5075
11.58
11.6393
11.6889
11.7313
11.7684
11.8016
11.8319
11.8601
11.8867
11.9124
11.9375
11.9622
11.9869
12.0119
12.0373
12.0634
12.0905
12.1188
12.1487
12.1805
12.2147
12.2519
12.2928
12.3384
12.3897
12.4482
12.5161
12.596
12.6914
12.8076
12.9515
13.1334
13.3676
13.6742
14.0812
14.6184
15.2964
16.0942
16.9228
9.11193
9.28933
9.66908
10.0708
10.4211
10.7075
10.9364
11.1175
11.261
11.3754
11.4678
11.5434
11.6063
11.6596
11.7055
11.7459
11.7821
11.8151
11.8457
11.8746
11.9024
11.9293
11.9558
11.9821
12.0086
12.0356
12.0632
12.0918
12.1216
12.1531
12.1867
12.2228
12.262
12.3051
12.3531
12.407
12.4684
12.5392
12.6217
12.7193
12.8361
12.9776
13.1508
13.3645
13.6287
13.9534
14.3437
14.7857
15.201
15.4092
9.92278
9.90292
10.0797
10.3241
10.5644
10.7799
10.9653
11.1208
11.2498
11.3568
11.4458
11.5205
11.5839
11.6384
11.6861
11.7283
11.7664
11.8012
11.8337
11.8643
11.8936
11.922
11.9499
11.9777
12.0055
12.0337
12.0625
12.0924
12.1235
12.1562
12.1911
12.2285
12.2692
12.3137
12.3631
12.4183
12.4808
12.5521
12.6344
12.7302
12.8426
12.9751
13.132
13.3174
13.5342
13.7824
14.0545
14.3282
14.5274
14.52
10.4326
10.3482
10.418
10.5608
10.7208
10.8778
11.0225
11.1506
11.2619
11.3576
11.4398
11.5106
11.572
11.6258
11.6734
11.7162
11.7551
11.7909
11.8244
11.8562
11.8866
11.9161
11.9451
11.9739
12.0027
12.0319
12.0617
12.0925
12.1245
12.1582
12.1939
12.2322
12.2736
12.3188
12.3686
12.4239
12.486
12.5561
12.6358
12.7269
12.8315
12.9515
13.0888
13.2443
13.4169
13.6013
13.7865
13.9503
14.0334
13.9507
10.7719
10.6751
10.6915
10.7712
10.8748
10.9861
11.0958
11.1982
11.291
11.3739
11.4473
11.5122
11.5699
11.6213
11.6676
11.7098
11.7485
11.7845
11.8184
11.8507
11.8817
11.9119
11.9416
11.9711
12.0006
12.0305
12.061
12.0924
12.125
12.1592
12.1954
12.2341
12.2757
12.3208
12.3703
12.4247
12.4851
12.5525
12.6279
12.7126
12.8075
12.9135
13.0307
13.158
13.2923
13.4265
13.5499
13.6445
13.6682
13.5674
11.0123
10.921
10.9115
10.9525
11.0174
11.0945
11.1758
11.2557
11.3314
11.4013
11.4652
11.5233
11.576
11.624
11.668
11.7086
11.7464
11.7819
11.8156
11.8478
11.879
11.9095
11.9395
11.9694
11.9993
12.0296
12.0605
12.0923
12.1252
12.1597
12.196
12.2346
12.2759
12.3205
12.3689
12.4217
12.4796
12.5433
12.6135
12.6907
12.7753
12.8672
12.9655
13.068
13.1708
13.2671
13.3475
13.399
13.3926
13.2944
11.1927
11.1111
11.0892
11.1067
11.1455
11.1975
11.2565
11.3178
11.3782
11.4361
11.4906
11.5415
11.5888
11.6327
11.6737
11.7121
11.7484
11.7828
11.8158
11.8476
11.8786
11.909
11.9391
11.969
11.9991
12.0295
12.0605
12.0924
12.1254
12.1598
12.1959
12.2341
12.2748
12.3183
12.3652
12.4158
12.4707
12.5302
12.5946
12.6642
12.7386
12.8172
12.8986
12.9802
13.0579
13.1259
13.1768
13.2014
13.18
13.0902
11.334
11.2618
11.2344
11.2376
11.2588
11.2927
11.3346
11.3807
11.4282
11.4753
11.5211
11.565
11.6067
11.6463
11.6839
11.7197
11.754
11.787
11.8189
11.8499
11.8803
11.9103
11.9401
11.9699
11.9999
12.0302
12.0611
12.0929
12.1257
12.1598
12.1955
12.233
12.2727
12.3149
12.3599
12.408
12.4595
12.5145
12.5731
12.6351
12.7
12.7666
12.8334
12.8977
12.9558
13.0029
13.0335
13.0414
13.0127
12.9318
11.4482
11.3841
11.3544
11.3489
11.3583
11.3792
11.4081
11.4421
11.4788
11.5167
11.5546
11.5919
11.6283
11.6635
11.6976
11.7307
11.7627
11.7939
11.8244
11.8544
11.884
11.9133
11.9426
11.972
12.0017
12.0318
12.0624
12.0939
12.1263
12.1599
12.1949
12.2315
12.2701
12.3107
12.3536
12.399
12.447
12.4975
12.5504
12.6053
12.6614
12.7175
12.7718
12.8221
12.865
12.8968
12.9133
12.9106
12.8786
12.8057
11.5428
11.4851
11.4549
11.4439
11.4454
11.4569
11.4761
11.5006
11.5285
11.5585
11.5895
11.6209
11.6523
11.6833
11.714
11.7441
11.7738
11.8031
11.832
11.8607
11.8893
11.9178
11.9465
11.9753
12.0045
12.0341
12.0643
12.0953
12.1272
12.1601
12.1943
12.2299
12.2671
12.306
12.3468
12.3894
12.4339
12.48
12.5275
12.5758
12.6241
12.671
12.715
12.7539
12.7851
12.8055
12.8122
12.8028
12.7696
12.7035
11.6223
11.5697
11.5397
11.5255
11.5215
11.5263
11.5381
11.5552
11.576
11.5995
11.6246
11.6508
11.6776
11.7047
11.732
11.7593
11.7866
11.8139
11.8412
11.8685
11.896
11.9236
11.9514
11.9795
12.0081
12.0371
12.0668
12.0972
12.1284
12.1606
12.1939
12.2284
12.2641
12.3013
12.3398
12.3797
12.4207
12.4627
12.5052
12.5476
12.589
12.6281
12.6634
12.6932
12.7153
12.7273
12.7272
12.7134
12.6802
12.6197
11.69
11.6414
11.612
11.5957
11.588
11.5879
11.5942
11.6055
11.6207
11.6387
11.6588
11.6805
11.7033
11.7268
11.751
11.7756
11.8006
11.826
11.8516
11.8775
11.9037
11.9302
11.9572
11.9845
12.0123
12.0407
12.0697
12.0994
12.1299
12.1613
12.1936
12.2269
12.2612
12.2966
12.3329
12.3701
12.4079
12.4461
12.484
12.5211
12.5565
12.5889
12.6172
12.6397
12.6547
12.6604
12.6554
12.639
12.6061
12.5505
11.7479
11.7026
11.6738
11.6562
11.646
11.6423
11.6445
11.6513
11.6619
11.6756
11.6915
11.7093
11.7285
11.7489
11.7703
11.7924
11.8152
11.8387
11.8626
11.8871
11.9121
11.9375
11.9635
11.99
12.0171
12.0447
12.073
12.102
12.1317
12.1622
12.1935
12.2256
12.2584
12.292
12.3263
12.361
12.3958
12.4304
12.4643
12.4967
12.5269
12.5538
12.5761
12.5928
12.6023
12.6033
12.5949
12.5767
12.5446
12.4929
11.7977
11.7549
11.7268
11.7085
11.6964
11.6902
11.6892
11.6926
11.6996
11.7096
11.7221
11.7366
11.7528
11.7704
11.7893
11.8091
11.8299
11.8515
11.8739
11.897
11.9208
11.9452
11.9702
11.9958
12.0221
12.049
12.0766
12.1048
12.1337
12.1633
12.1935
12.2244
12.2559
12.2878
12.3201
12.3524
12.3845
12.4159
12.4462
12.4746
12.5003
12.5225
12.5401
12.552
12.5572
12.5547
12.5439
12.5246
12.4933
12.445
11.8404
11.7996
11.7722
11.7534
11.7401
11.7319
11.7286
11.7293
11.7335
11.7406
11.7503
11.762
11.7756
11.7908
11.8074
11.8253
11.8442
11.8642
11.8851
11.9069
11.9295
11.9528
11.9769
12.0017
12.0272
12.0533
12.0802
12.1076
12.1357
12.1644
12.1937
12.2234
12.2536
12.284
12.3144
12.3446
12.3742
12.4028
12.4299
12.4548
12.4767
12.495
12.5087
12.5168
12.5187
12.5135
12.5009
12.481
12.4506
12.4051
11.8769
11.8378
11.8108
11.7918
11.7776
11.7681
11.7629
11.7616
11.7635
11.7683
11.7757
11.7852
11.7966
11.8097
11.8244
11.8405
11.8578
11.8763
11.8958
11.9164
11.9379
11.9603
11.9835
12.0075
12.0322
12.0576
12.0837
12.1104
12.1378
12.1656
12.194
12.2226
12.2515
12.2805
12.3092
12.3375
12.3649
12.3911
12.4154
12.4373
12.4561
12.4712
12.4816
12.4868
12.4861
12.4789
12.465
12.4447
12.4152
12.3721
11.9078
11.87
11.8435
11.8243
11.8095
11.799
11.7925
11.7895
11.7897
11.7927
11.7981
11.8058
11.8154
11.8268
11.8398
11.8543
11.8703
11.8875
11.9058
11.9253
11.9458
11.9673
11.9897
12.0129
12.0369
12.0616
12.0871
12.1131
12.1397
12.1668
12.1943
12.222
12.2498
12.2774
12.3047
12.3313
12.3568
12.3808
12.4028
12.4222
12.4384
12.4508
12.4586
12.4615
12.4587
12.45
12.4352
12.4148
12.3861
12.345
11.9336
11.8968
11.8707
11.8515
11.8362
11.825
11.8174
11.8133
11.8121
11.8136
11.8175
11.8237
11.8318
11.8418
11.8534
11.8667
11.8814
11.8975
11.9148
11.9333
11.953
11.9737
11.9953
12.0178
12.0412
12.0653
12.0901
12.1156
12.1415
12.1679
12.1946
12.2214
12.2482
12.2748
12.3008
12.3259
12.3498
12.372
12.3921
12.4094
12.4234
12.4336
12.4395
12.4404
12.4361
12.4262
12.4109
12.3904
12.3624
12.323
11.9546
11.9186
11.8929
11.8736
11.8581
11.8463
11.838
11.8329
11.8307
11.831
11.8338
11.8387
11.8457
11.8545
11.8651
11.8773
11.891
11.9061
11.9226
11.9403
11.9592
11.9792
12.0002
12.0222
12.045
12.0686
12.0928
12.1177
12.1431
12.1689
12.1949
12.221
12.247
12.2726
12.2975
12.3214
12.344
12.3647
12.3831
12.3988
12.4111
12.4197
12.4239
12.4234
12.4179
12.4072
12.3914
12.3709
12.3434
12.3054
11.9711
11.9357
11.9103
11.891
11.8753
11.8631
11.8542
11.8484
11.8455
11.845
11.8469
11.8509
11.8569
11.8649
11.8745
11.8859
11.8988
11.9132
11.929
11.946
11.9643
11.9838
12.0043
12.0257
12.0481
12.0712
12.0951
12.1195
12.1445
12.1697
12.1952
12.2207
12.246
12.2708
12.2949
12.3178
12.3393
12.3589
12.3761
12.3904
12.4014
12.4086
12.4116
12.4101
12.4037
12.3923
12.3762
12.3558
12.3289
12.2919
11.9833
11.9484
11.9231
11.9039
11.888
11.8755
11.8663
11.8601
11.8565
11.8554
11.8567
11.8601
11.8654
11.8727
11.8817
11.8925
11.9048
11.9186
11.9339
11.9505
11.9683
11.9873
12.0074
12.0285
12.0505
12.0733
12.0968
12.1209
12.1455
12.1704
12.1954
12.2205
12.2452
12.2695
12.2929
12.3151
12.3358
12.3545
12.3708
12.3842
12.3942
12.4005
12.4026
12.4002
12.3932
12.3815
12.3652
12.3448
12.3182
12.2821
11.9914
11.9567
11.9316
11.9124
11.8964
11.8838
11.8743
11.8678
11.8639
11.8624
11.8632
11.8662
11.8711
11.878
11.8866
11.8969
11.9088
11.9223
11.9372
11.9534
11.971
11.9897
12.0095
12.0304
12.0521
12.0747
12.098
12.1219
12.1462
12.1708
12.1956
12.2203
12.2447
12.2686
12.2916
12.3133
12.3335
12.3516
12.3673
12.38
12.3894
12.3951
12.3966
12.3938
12.3864
12.3744
12.3579
12.3376
12.3113
12.2757
11.9954
11.9609
11.9359
11.9166
11.9006
11.8879
11.8783
11.8716
11.8675
11.8659
11.8665
11.8692
11.874
11.8806
11.889
11.8991
11.9109
11.9241
11.9389
11.955
11.9723
11.9909
12.0106
12.0313
12.053
12.0754
12.0986
12.1223
12.1465
12.1711
12.1957
12.2202
12.2445
12.2681
12.2909
12.3124
12.3323
12.3501
12.3655
12.378
12.387
12.3924
12.3937
12.3906
12.383
12.3708
12.3543
12.334
12.3079
12.2725
11.9954
11.9609
11.9359
11.9166
11.9006
11.8879
11.8783
11.8716
11.8675
11.8659
11.8665
11.8692
11.874
11.8806
11.889
11.8991
11.9109
11.9241
11.9389
11.955
11.9723
11.9909
12.0106
12.0313
12.053
12.0754
12.0986
12.1223
12.1465
12.1711
12.1957
12.2202
12.2445
12.2681
12.2909
12.3124
12.3323
12.3501
12.3655
12.378
12.387
12.3924
12.3937
12.3906
12.383
12.3708
12.3543
12.334
12.3079
12.2725
11.9914
11.9567
11.9316
11.9124
11.8964
11.8838
11.8743
11.8678
11.8639
11.8624
11.8632
11.8662
11.8711
11.8779
11.8866
11.8969
11.9088
11.9223
11.9372
11.9534
11.971
11.9897
12.0095
12.0304
12.0521
12.0747
12.098
12.1219
12.1462
12.1708
12.1956
12.2203
12.2447
12.2686
12.2916
12.3133
12.3335
12.3516
12.3673
12.38
12.3894
12.3951
12.3966
12.3938
12.3864
12.3744
12.3579
12.3376
12.3113
12.2757
11.9833
11.9483
11.9231
11.9039
11.888
11.8755
11.8663
11.8601
11.8565
11.8554
11.8567
11.8601
11.8654
11.8727
11.8817
11.8925
11.9048
11.9186
11.9339
11.9505
11.9683
11.9873
12.0074
12.0285
12.0505
12.0733
12.0968
12.1209
12.1455
12.1704
12.1954
12.2205
12.2452
12.2695
12.2929
12.3151
12.3358
12.3545
12.3708
12.3842
12.3942
12.4005
12.4026
12.4002
12.3932
12.3815
12.3652
12.3448
12.3182
12.2821
11.9711
11.9357
11.9103
11.891
11.8753
11.863
11.8542
11.8484
11.8454
11.845
11.8469
11.8509
11.8569
11.8648
11.8745
11.8859
11.8988
11.9132
11.929
11.946
11.9643
11.9838
12.0043
12.0257
12.0481
12.0712
12.0951
12.1195
12.1445
12.1697
12.1952
12.2207
12.246
12.2708
12.2949
12.3178
12.3393
12.3589
12.3761
12.3904
12.4014
12.4086
12.4116
12.4101
12.4037
12.3923
12.3762
12.3558
12.3289
12.2919
11.9546
11.9186
11.8929
11.8736
11.8581
11.8462
11.838
11.8329
11.8306
11.831
11.8338
11.8387
11.8457
11.8545
11.8651
11.8772
11.8909
11.9061
11.9226
11.9403
11.9592
11.9792
12.0002
12.0221
12.045
12.0685
12.0928
12.1177
12.1431
12.1689
12.1949
12.221
12.247
12.2726
12.2975
12.3214
12.344
12.3647
12.3831
12.3988
12.4111
12.4196
12.4239
12.4234
12.4179
12.4072
12.3913
12.3709
12.3434
12.3054
11.9336
11.8967
11.8707
11.8515
11.8362
11.825
11.8174
11.8133
11.8121
11.8136
11.8175
11.8237
11.8318
11.8418
11.8534
11.8667
11.8814
11.8974
11.9148
11.9333
11.953
11.9736
11.9953
12.0178
12.0412
12.0653
12.0901
12.1156
12.1415
12.1679
12.1946
12.2214
12.2482
12.2748
12.3008
12.3259
12.3498
12.372
12.392
12.4094
12.4234
12.4336
12.4395
12.4404
12.4361
12.4262
12.4109
12.3904
12.3623
12.323
11.9078
11.8699
11.8435
11.8243
11.8095
11.799
11.7925
11.7895
11.7897
11.7927
11.7981
11.8058
11.8154
11.8268
11.8398
11.8543
11.8702
11.8874
11.9058
11.9253
11.9458
11.9673
11.9897
12.0129
12.0369
12.0616
12.0871
12.1131
12.1397
12.1668
12.1943
12.222
12.2498
12.2774
12.3047
12.3313
12.3568
12.3808
12.4028
12.4222
12.4384
12.4508
12.4586
12.4615
12.4587
12.45
12.4352
12.4148
12.3861
12.345
11.8769
11.8377
11.8108
11.7918
11.7776
11.7681
11.7629
11.7616
11.7635
11.7683
11.7756
11.7851
11.7966
11.8097
11.8244
11.8404
11.8578
11.8763
11.8958
11.9164
11.9379
11.9603
11.9835
12.0074
12.0322
12.0576
12.0837
12.1104
12.1378
12.1656
12.194
12.2226
12.2515
12.2805
12.3092
12.3375
12.3649
12.3911
12.4154
12.4373
12.4561
12.4711
12.4816
12.4868
12.4861
12.4789
12.465
12.4447
12.4152
12.3721
11.8404
11.7996
11.7721
11.7534
11.74
11.7319
11.7286
11.7293
11.7335
11.7406
11.7502
11.762
11.7756
11.7908
11.8074
11.8253
11.8442
11.8642
11.8851
11.9069
11.9295
11.9528
11.9769
12.0017
12.0272
12.0533
12.0802
12.1076
12.1357
12.1644
12.1937
12.2234
12.2536
12.2839
12.3144
12.3446
12.3742
12.4028
12.4299
12.4548
12.4767
12.495
12.5086
12.5168
12.5187
12.5135
12.5009
12.481
12.4506
12.4051
11.7977
11.7549
11.7268
11.7084
11.6964
11.6901
11.6892
11.6926
11.6996
11.7096
11.7221
11.7366
11.7528
11.7704
11.7892
11.8091
11.8299
11.8515
11.8739
11.897
11.9207
11.9451
11.9702
11.9958
12.0221
12.049
12.0766
12.1048
12.1337
12.1633
12.1935
12.2244
12.2559
12.2878
12.3201
12.3524
12.3845
12.4159
12.4462
12.4746
12.5003
12.5225
12.5401
12.552
12.5572
12.5547
12.5438
12.5246
12.4933
12.445
11.7479
11.7026
11.6738
11.6562
11.6459
11.6423
11.6444
11.6513
11.6619
11.6755
11.6915
11.7093
11.7285
11.7489
11.7703
11.7924
11.8152
11.8386
11.8626
11.8871
11.912
11.9375
11.9635
11.99
12.0171
12.0447
12.073
12.102
12.1317
12.1622
12.1935
12.2255
12.2584
12.292
12.3263
12.3609
12.3958
12.4304
12.4643
12.4967
12.5269
12.5537
12.5761
12.5928
12.6023
12.6033
12.5949
12.5767
12.5446
12.4929
11.69
11.6414
11.612
11.5957
11.5879
11.5878
11.5942
11.6055
11.6206
11.6387
11.6588
11.6805
11.7032
11.7268
11.751
11.7756
11.8006
11.8259
11.8515
11.8774
11.9037
11.9302
11.9571
11.9845
12.0123
12.0407
12.0697
12.0994
12.1299
12.1613
12.1936
12.2269
12.2612
12.2965
12.3329
12.3701
12.4079
12.4461
12.484
12.5211
12.5565
12.5889
12.6172
12.6397
12.6547
12.6604
12.6554
12.639
12.6061
12.5504
11.6223
11.5697
11.5397
11.5254
11.5215
11.5262
11.5381
11.5552
11.576
11.5994
11.6246
11.6508
11.6776
11.7047
11.732
11.7593
11.7866
11.8139
11.8412
11.8685
11.896
11.9235
11.9514
11.9795
12.0081
12.0371
12.0668
12.0972
12.1284
12.1606
12.1939
12.2283
12.2641
12.3013
12.3398
12.3796
12.4207
12.4627
12.5052
12.5476
12.5889
12.6281
12.6634
12.6932
12.7153
12.7273
12.7272
12.7134
12.6801
12.6197
11.5427
11.485
11.4548
11.4439
11.4453
11.4569
11.476
11.5005
11.5285
11.5585
11.5895
11.6209
11.6523
11.6833
11.7139
11.7441
11.7738
11.803
11.832
11.8607
11.8893
11.9178
11.9464
11.9753
12.0044
12.0341
12.0643
12.0953
12.1272
12.1601
12.1943
12.2299
12.2671
12.306
12.3468
12.3894
12.4339
12.48
12.5275
12.5758
12.6241
12.671
12.715
12.7539
12.7851
12.8055
12.8122
12.8028
12.7696
12.7035
11.4482
11.384
11.3544
11.3488
11.3583
11.3791
11.4081
11.4421
11.4788
11.5167
11.5546
11.5919
11.6283
11.6635
11.6976
11.7306
11.7627
11.7939
11.8244
11.8543
11.8839
11.9133
11.9426
11.972
12.0017
12.0317
12.0624
12.0938
12.1263
12.1599
12.1949
12.2315
12.27
12.3107
12.3536
12.399
12.447
12.4975
12.5504
12.6053
12.6613
12.7174
12.7718
12.8221
12.865
12.8967
12.9132
12.9105
12.8785
12.8057
11.3339
11.2618
11.2343
11.2375
11.2588
11.2927
11.3346
11.3807
11.4281
11.4753
11.5211
11.5649
11.6067
11.6463
11.6839
11.7197
11.754
11.7869
11.8188
11.8499
11.8803
11.9103
11.9401
11.9699
11.9998
12.0302
12.0611
12.0929
12.1257
12.1598
12.1955
12.233
12.2727
12.3149
12.3599
12.408
12.4595
12.5145
12.5731
12.6351
12.7
12.7666
12.8334
12.8977
12.9558
13.0029
13.0335
13.0413
13.0126
12.9318
11.1926
11.111
11.0892
11.1067
11.1455
11.1975
11.2565
11.3177
11.3782
11.4361
11.4906
11.5415
11.5887
11.6327
11.6737
11.7121
11.7484
11.7828
11.8158
11.8476
11.8786
11.909
11.939
11.969
11.9991
12.0295
12.0605
12.0924
12.1254
12.1598
12.1959
12.2341
12.2748
12.3183
12.3651
12.4158
12.4706
12.5301
12.5946
12.6641
12.7386
12.8172
12.8986
12.9802
13.0579
13.1259
13.1767
13.2014
13.18
13.0902
11.0123
10.921
10.9114
10.9525
11.0174
11.0945
11.1757
11.2557
11.3313
11.4013
11.4652
11.5232
11.5759
11.624
11.668
11.7086
11.7463
11.7819
11.8155
11.8478
11.879
11.9095
11.9395
11.9694
11.9993
12.0296
12.0605
12.0923
12.1252
12.1597
12.196
12.2346
12.2759
12.3205
12.3688
12.4216
12.4796
12.5433
12.6135
12.6907
12.7753
12.8672
12.9655
13.068
13.1708
13.267
13.3475
13.399
13.3926
13.2944
10.7718
10.675
10.6915
10.7712
10.8747
10.9861
11.0957
11.1981
11.291
11.3739
11.4473
11.5122
11.5698
11.6213
11.6676
11.7097
11.7485
11.7845
11.8184
11.8506
11.8817
11.9119
11.9416
11.971
12.0006
12.0304
12.0609
12.0923
12.125
12.1592
12.1954
12.2341
12.2757
12.3208
12.3702
12.4247
12.4851
12.5525
12.6279
12.7126
12.8075
12.9135
13.0307
13.158
13.2922
13.4265
13.5499
13.6445
13.6682
13.5673
10.4325
10.3481
10.418
10.5608
10.7208
10.8778
11.0224
11.1506
11.2618
11.3576
11.4397
11.5105
11.572
11.6258
11.6734
11.7162
11.7551
11.7909
11.8244
11.8562
11.8866
11.9161
11.9451
11.9739
12.0027
12.0319
12.0617
12.0925
12.1245
12.1582
12.1939
12.2322
12.2736
12.3188
12.3686
12.4239
12.486
12.556
12.6357
12.7269
12.8314
12.9515
13.0888
13.2443
13.4169
13.6013
13.7865
13.9503
14.0334
13.9507
9.92272
9.90286
10.0796
10.3241
10.5643
10.7799
10.9652
11.1207
11.2498
11.3567
11.4457
11.5204
11.5839
11.6384
11.686
11.7283
11.7663
11.8012
11.8336
11.8642
11.8936
11.922
11.9499
11.9776
12.0055
12.0337
12.0625
12.0923
12.1234
12.1562
12.1911
12.2285
12.2691
12.3137
12.363
12.4183
12.4807
12.5521
12.6344
12.7302
12.8425
12.9751
13.132
13.3174
13.5342
13.7824
14.0545
14.3281
14.5274
14.52
9.11187
9.28927
9.66901
10.0708
10.4211
10.7075
10.9363
11.1175
11.2609
11.3754
11.4678
11.5434
11.6063
11.6596
11.7055
11.7459
11.782
11.815
11.8457
11.8746
11.9023
11.9293
11.9557
11.9821
12.0086
12.0356
12.0632
12.0917
12.1216
12.1531
12.1866
12.2227
12.262
12.3051
12.3531
12.407
12.4684
12.5391
12.6217
12.7193
12.8361
12.9776
13.1508
13.3644
13.6286
13.9533
14.3437
14.7857
15.201
15.4092
7.70346
8.4672
9.21059
9.83446
10.3215
10.6844
10.952
11.151
11.3014
11.4169
11.5074
11.5799
11.6392
11.6888
11.7313
11.7684
11.8016
11.8319
11.86
11.8867
11.9124
11.9374
11.9622
11.9869
12.0119
12.0373
12.0634
12.0905
12.1188
12.1486
12.1805
12.2147
12.2519
12.2928
12.3383
12.3896
12.4482
12.5161
12.5959
12.6914
12.8075
12.9515
13.1334
13.3675
13.6742
14.0812
14.6184
15.2964
16.0942
16.9228
4.86796
7.46769
8.88554
9.76937
10.3735
10.7806
11.0564
11.2492
11.3888
11.4928
11.5727
11.6357
11.6867
11.7293
11.7657
11.7976
11.8263
11.8527
11.8774
11.9011
11.9241
11.9468
11.9694
11.9921
12.0151
12.0386
12.0629
12.088
12.1143
12.142
12.1715
12.2031
12.2374
12.2749
12.3165
12.3633
12.4166
12.4782
12.5508
12.6378
12.7444
12.8782
13.051
13.2811
13.5991
14.0552
14.7191
15.6756
17.1791
19.8963
-9.31981e-05
6.38505
9.0498
10.1457
10.7387
11.0888
11.3037
11.4451
11.5445
11.6177
11.6739
11.7184
11.7549
11.7857
11.8125
11.8365
11.8587
11.8795
11.8996
11.9192
11.9386
11.9581
11.9778
11.9979
12.0184
12.0394
12.0612
12.0838
12.1074
12.1322
12.1584
12.1863
12.2163
12.2488
12.2845
12.3242
12.3687
12.4197
12.4788
12.5486
12.6331
12.7379
12.8725
13.0532
13.3122
13.7135
14.3735
15.5643
18.3452
24.8545
)
;

boundaryField
{
    movingWallTop
    {
        type            zeroGradient;
    }
    movingWallBottom
    {
        type            zeroGradient;
    }
    fixedWalls
    {
        type            zeroGradient;
    }
    frontAndBack
    {
        type            empty;
    }
}


// ************************************************************************* //
