/*--------------------------------*- C++ -*----------------------------------*\
  =========                 |
  \\      /  F ield         | OpenFOAM: The Open Source CFD Toolbox
   \\    /   O peration     | Website:  https://openfoam.org
    \\  /    A nd           | Version:  7
     \\/     M anipulation  |
\*---------------------------------------------------------------------------*/
FoamFile
{
    version     2.0;
    format      ascii;
    class       surfaceScalarField;
    location    "0.0352";
    object      phi;
}
// * * * * * * * * * * * * * * * * * * * * * * * * * * * * * * * * * * * * * //

dimensions      [0 3 -1 0 0 0 0];

internalField   nonuniform List<scalar> 
4900
(
5.45496e-06
-5.45496e-06
9.95379e-06
-4.49883e-06
1.26946e-05
-2.74078e-06
1.44124e-05
-1.71781e-06
1.55277e-05
-1.11532e-06
1.62795e-05
-7.51843e-07
1.68089e-05
-5.2941e-07
1.71975e-05
-3.88602e-07
1.74927e-05
-2.95101e-07
1.77226e-05
-2.2996e-07
1.79053e-05
-1.82646e-07
1.80523e-05
-1.47085e-07
1.8172e-05
-1.19622e-07
1.82699e-05
-9.79492e-08
1.83505e-05
-8.05464e-08
1.84168e-05
-6.63685e-08
1.84715e-05
-5.46704e-08
1.85164e-05
-4.4903e-08
1.85531e-05
-3.66496e-08
1.85826e-05
-2.95851e-08
1.86061e-05
-2.34486e-08
1.86241e-05
-1.80255e-08
1.86372e-05
-1.31336e-08
1.86459e-05
-8.61396e-09
1.86502e-05
-4.32262e-09
1.86503e-05
-1.27987e-10
1.86462e-05
4.10707e-09
1.86377e-05
8.5077e-09
1.86245e-05
1.32158e-08
1.86061e-05
1.83833e-08
1.85819e-05
2.41831e-08
1.85511e-05
3.0819e-08
1.85126e-05
3.85391e-08
1.84649e-05
4.76551e-08
1.84063e-05
5.8569e-08
1.83345e-05
7.18154e-08
1.82464e-05
8.81243e-08
1.81379e-05
1.08525e-07
1.80033e-05
1.34516e-07
1.7835e-05
1.68373e-07
1.76213e-05
2.13697e-07
1.73448e-05
2.7648e-07
1.69776e-05
3.67186e-07
1.64727e-05
5.04898e-07
1.57477e-05
7.24991e-07
1.46567e-05
1.09102e-06
1.2945e-05
1.71172e-06
1.01621e-05
2.78284e-06
5.55743e-06
4.60472e-06
5.55743e-06
-1.18954e-07
-5.33601e-06
1.8322e-06
-6.44998e-06
4.41308e-06
-5.32165e-06
6.72765e-06
-4.03239e-06
8.60557e-06
-2.99323e-06
1.00853e-05
-2.23158e-06
1.12467e-05
-1.69077e-06
1.21639e-05
-1.30582e-06
1.28956e-05
-1.0268e-06
1.34855e-05
-8.19848e-07
1.39656e-05
-6.62752e-07
1.43594e-05
-5.40932e-07
1.46845e-05
-4.44683e-07
1.49539e-05
-3.67406e-07
1.51779e-05
-3.04498e-07
1.53642e-05
-2.5266e-07
1.5519e-05
-2.09469e-07
1.56472e-05
-1.73094e-07
1.57526e-05
-1.42119e-07
1.58385e-05
-1.15422e-07
1.59071e-05
-9.20908e-08
1.59605e-05
-7.13649e-08
1.59999e-05
-5.25925e-08
1.60265e-05
-3.51992e-08
1.60408e-05
-1.86627e-08
1.60432e-05
-2.49206e-09
1.60335e-05
1.37939e-08
1.60114e-05
3.06789e-08
1.59759e-05
4.86734e-08
1.59259e-05
6.83344e-08
1.58598e-05
9.02918e-08
1.57754e-05
1.15282e-07
1.56697e-05
1.44193e-07
1.55392e-05
1.78127e-07
1.53793e-05
2.18488e-07
1.5184e-05
2.6711e-07
1.49457e-05
3.26449e-07
1.46544e-05
3.99875e-07
1.42967e-05
4.92128e-07
1.38551e-05
6.10053e-07
1.3305e-05
7.63784e-07
1.26128e-05
9.68679e-07
1.17316e-05
1.24841e-06
1.05969e-05
1.63958e-06
9.12458e-06
2.19729e-06
7.2201e-06
2.9955e-06
4.82938e-06
4.10244e-06
2.12029e-06
5.49192e-06
1.06748e-08
6.71434e-06
5.56811e-06
-1.08239e-06
-4.25362e-06
-7.54631e-07
-6.77774e-06
5.87352e-07
-6.66363e-06
2.29684e-06
-5.74188e-06
4.00418e-06
-4.70057e-06
5.5507e-06
-3.7781e-06
6.88933e-06
-3.02939e-06
8.02381e-06
-2.4403e-06
8.97689e-06
-1.97988e-06
9.77551e-06
-1.61847e-06
1.04449e-05
-1.33214e-06
1.10067e-05
-1.10276e-06
1.1479e-05
-9.16921e-07
1.18763e-05
-7.64736e-07
1.22106e-05
-6.38858e-07
1.24917e-05
-5.33758e-07
1.27275e-05
-4.45207e-07
1.29243e-05
-3.69912e-07
1.30874e-05
-3.05255e-07
1.32211e-05
-2.49116e-07
1.33288e-05
-1.99735e-07
1.3413e-05
-1.55623e-07
1.34759e-05
-1.15486e-07
1.35189e-05
-7.81673e-08
1.35428e-05
-4.26069e-08
1.35481e-05
-7.79987e-09
1.35347e-05
2.72402e-08
1.35019e-05
6.35106e-08
1.34485e-05
1.0206e-07
1.33728e-05
1.44026e-07
1.32724e-05
1.90689e-07
1.31441e-05
2.43529e-07
1.2984e-05
3.04307e-07
1.2787e-05
3.75176e-07
1.25466e-05
4.58828e-07
1.22551e-05
5.587e-07
1.19022e-05
6.79268e-07
1.14756e-05
8.26463e-07
1.09595e-05
1.00827e-06
1.0334e-05
1.23558e-06
9.5744e-06
1.52336e-06
8.65099e-06
1.89209e-06
7.53006e-06
2.36933e-06
6.17963e-06
2.99001e-06
4.58485e-06
3.79207e-06
2.78327e-06
4.79707e-06
9.33467e-07
5.95225e-06
-5.72573e-07
6.99796e-06
-1.03859e-06
7.18036e-06
4.52951e-06
-9.13378e-07
-3.34024e-06
-1.3433e-06
-6.34782e-06
-9.41266e-07
-7.06566e-06
1.2804e-08
-6.69595e-06
1.22487e-06
-5.91264e-06
2.4958e-06
-5.04902e-06
3.7129e-06
-4.2465e-06
4.82365e-06
-3.55106e-06
5.81043e-06
-2.96665e-06
6.67359e-06
-2.48163e-06
7.42179e-06
-2.08033e-06
8.06672e-06
-1.74769e-06
8.62059e-06
-1.47079e-06
9.09487e-06
-1.23901e-06
9.49985e-06
-1.04384e-06
9.84454e-06
-8.78442e-07
1.01367e-05
-7.37322e-07
1.03828e-05
-6.16021e-07
1.05884e-05
-5.10874e-07
1.07581e-05
-4.18821e-07
1.08956e-05
-3.37262e-07
1.10039e-05
-2.63949e-07
1.10853e-05
-1.96891e-07
1.11415e-05
-1.34285e-07
1.11733e-05
-7.44553e-08
1.11813e-05
-1.58013e-08
1.11653e-05
4.32553e-08
1.11245e-05
1.04315e-07
1.10575e-05
1.69055e-07
1.09622e-05
2.39287e-07
1.08359e-05
3.17028e-07
1.06748e-05
4.04579e-07
1.04745e-05
5.04638e-07
1.02293e-05
6.20432e-07
9.93219e-06
7.55901e-07
9.57496e-06
9.15929e-07
9.14757e-06
1.10665e-06
8.63819e-06
1.33585e-06
8.03302e-06
1.61343e-06
7.31664e-06
1.95197e-06
6.47286e-06
2.36713e-06
5.48723e-06
2.87772e-06
4.35239e-06
3.50418e-06
3.07871e-06
4.26369e-06
1.71359e-06
5.15719e-06
3.71731e-07
6.13893e-06
-7.31317e-07
7.05529e-06
-1.26878e-06
7.53542e-06
-9.16646e-07
6.82823e-06
3.61287e-06
-6.65529e-07
-2.67471e-06
-1.3003e-06
-5.71304e-06
-1.42508e-06
-6.94089e-06
-1.05503e-06
-7.066e-06
-3.44464e-07
-6.62321e-06
5.49091e-07
-5.94258e-06
1.5076e-06
-5.205e-06
2.45536e-06
-4.49883e-06
3.34943e-06
-3.86072e-06
4.16863e-06
-3.30084e-06
4.90521e-06
-2.81691e-06
5.55905e-06
-2.40153e-06
6.13412e-06
-2.04587e-06
6.63633e-06
-1.74122e-06
7.07223e-06
-1.47974e-06
7.44836e-06
-1.25457e-06
7.77085e-06
-1.05981e-06
8.04526e-06
-8.9043e-07
8.27648e-06
-7.42095e-07
8.46872e-06
-6.11061e-07
8.6255e-06
-4.94049e-07
8.7497e-06
-3.88145e-07
8.84352e-06
-2.90715e-07
8.90857e-06
-1.99333e-07
8.94583e-06
-1.11709e-07
8.95566e-06
-2.56373e-08
8.93785e-06
6.10712e-08
8.89152e-06
1.5064e-07
8.81518e-06
2.45391e-07
8.70666e-06
3.47816e-07
8.56303e-06
4.60654e-07
8.38062e-06
5.86985e-07
8.15492e-06
7.30345e-07
7.88049e-06
8.94862e-07
7.55096e-06
1.08542e-06
7.15902e-06
1.30787e-06
6.69646e-06
1.56922e-06
6.15444e-06
1.87787e-06
5.5241e-06
2.24378e-06
4.79771e-06
2.67835e-06
3.97092e-06
3.19392e-06
3.04669e-06
3.80196e-06
2.04181e-06
4.50905e-06
9.97136e-07
5.30837e-06
-8.80677e-09
6.16313e-06
-8.47087e-07
6.97721e-06
-1.33794e-06
7.54614e-06
-1.29693e-06
7.49442e-06
-6.86026e-07
6.21732e-06
2.92684e-06
-4.71907e-07
-2.20281e-06
-1.10393e-06
-5.08102e-06
-1.47723e-06
-6.56758e-06
-1.48506e-06
-7.05818e-06
-1.173e-06
-6.93526e-06
-6.35878e-07
-6.4797e-06
3.28353e-08
-5.87372e-06
7.59507e-07
-5.2255e-06
1.49274e-06
-4.59395e-06
2.19973e-06
-4.00782e-06
2.86131e-06
-3.47849e-06
3.4677e-06
-3.00792e-06
4.01513e-06
-2.5933e-06
4.50359e-06
-2.22968e-06
4.93522e-06
-1.91137e-06
5.31329e-06
-1.63264e-06
5.64159e-06
-1.38811e-06
5.92395e-06
-1.17279e-06
6.16404e-06
-9.82185e-07
6.36519e-06
-8.12206e-07
6.53028e-06
-6.59145e-07
6.66174e-06
-5.19607e-07
6.76147e-06
-3.90441e-07
6.83083e-06
-2.68689e-07
6.87063e-06
-1.51516e-07
6.88115e-06
-3.61576e-08
6.86208e-06
8.01406e-08
6.81254e-06
2.00182e-07
6.73105e-06
3.26885e-07
6.61551e-06
4.63352e-07
6.46322e-06
6.12947e-07
6.27082e-06
7.79384e-07
6.03434e-06
9.66824e-07
5.74922e-06
1.17998e-06
5.4104e-06
1.42424e-06
5.01252e-06
1.70575e-06
4.55028e-06
2.03146e-06
4.01906e-06
2.4091e-06
3.41595e-06
2.84688e-06
2.7415e-06
3.3528e-06
2.00237e-06
3.93305e-06
1.2153e-06
4.58903e-06
4.12566e-07
5.31178e-06
-3.51477e-07
6.07241e-06
-9.94888e-07
6.80654e-06
-1.40901e-06
7.39134e-06
-1.479e-06
7.61613e-06
-1.14063e-06
7.15605e-06
-4.97781e-07
5.57447e-06
2.42906e-06
-3.41247e-07
-1.86156e-06
-9.07033e-07
-4.51524e-06
-1.3748e-06
-6.09982e-06
-1.60287e-06
-6.83011e-06
-1.57254e-06
-6.96558e-06
-1.32565e-06
-6.72659e-06
-9.2329e-07
-6.27608e-06
-4.24298e-07
-5.72449e-06
1.23292e-07
-5.14154e-06
6.83881e-07
-4.56841e-06
1.2329e-06
-4.02751e-06
1.75448e-06
-3.5295e-06
2.23918e-06
-3.078e-06
2.68204e-06
-2.67255e-06
3.08116e-06
-2.31048e-06
3.43657e-06
-1.98805e-06
3.74947e-06
-1.70101e-06
4.02174e-06
-1.44506e-06
4.2555e-06
-1.21595e-06
4.45292e-06
-1.00962e-06
4.616e-06
-8.2223e-07
4.7465e-06
-6.50104e-07
4.84581e-06
-4.89753e-07
4.91494e-06
-3.37821e-07
4.95446e-06
-1.91038e-07
4.96449e-06
-4.618e-08
4.94464e-06
9.99838e-08
4.89408e-06
2.50746e-07
4.81145e-06
4.09516e-07
4.69492e-06
5.79884e-07
4.54219e-06
7.65679e-07
4.35053e-06
9.71041e-07
4.11687e-06
1.20048e-06
3.83794e-06
1.45892e-06
3.51044e-06
1.75174e-06
3.13147e-06
2.08472e-06
2.69902e-06
2.46391e-06
2.21283e-06
2.89529e-06
1.67562e-06
3.38409e-06
1.0949e-06
3.93353e-06
4.85332e-07
4.54262e-06
-1.2816e-07
5.20252e-06
-7.07129e-07
5.89075e-06
-1.19713e-06
6.56241e-06
-1.52868e-06
7.13809e-06
-1.62651e-06
7.48917e-06
-1.43462e-06
7.42424e-06
-9.64636e-07
6.68607e-06
-3.67908e-07
4.97774e-06
2.06115e-06
-2.56538e-07
-1.60502e-06
-7.46731e-07
-4.02505e-06
-1.23331e-06
-5.61324e-06
-1.57921e-06
-6.48422e-06
-1.73509e-06
-6.80971e-06
-1.70658e-06
-6.75509e-06
-1.52609e-06
-6.45657e-06
-1.23426e-06
-6.01633e-06
-8.69814e-07
-5.50599e-06
-4.65257e-07
-4.97297e-06
-4.57482e-08
-4.44702e-06
3.70352e-07
-3.9456e-06
7.70338e-07
-3.47798e-06
1.1459e-06
-3.04811e-06
1.49201e-06
-2.65659e-06
1.80596e-06
-2.302e-06
2.08666e-06
-1.98171e-06
2.33404e-06
-1.69244e-06
2.5487e-06
-1.4306e-06
2.73154e-06
-1.19247e-06
2.88359e-06
-9.74283e-07
3.00583e-06
-7.72346e-07
3.09908e-06
-5.83002e-07
3.16391e-06
-4.02652e-07
3.20061e-06
-2.27731e-07
3.20911e-06
-5.46789e-08
3.189e-06
1.20091e-07
3.13951e-06
3.00234e-07
3.05951e-06
4.89515e-07
2.94755e-06
6.91849e-07
2.80188e-06
9.11343e-07
2.6206e-06
1.15232e-06
2.40173e-06
1.41935e-06
2.14347e-06
1.71719e-06
1.84446e-06
2.05075e-06
1.50427e-06
2.4249e-06
1.12402e-06
2.84416e-06
7.07251e-07
3.31206e-06
2.61115e-07
3.83023e-06
-2.02125e-07
4.39677e-06
-6.63338e-07
5.00383e-06
-1.09476e-06
5.63395e-06
-1.45885e-06
6.25485e-06
-1.70904e-06
6.8126e-06
-1.79448e-06
7.22353e-06
-1.67195e-06
7.36664e-06
-1.32834e-06
7.08063e-06
-8.14362e-07
6.17209e-06
-2.82527e-07
4.44591e-06
1.77862e-06
-2.01066e-07
-1.40396e-06
-6.24236e-07
-3.60188e-06
-1.09658e-06
-5.1409e-06
-1.49936e-06
-6.08143e-06
-1.77278e-06
-6.53629e-06
-1.90105e-06
-6.62682e-06
-1.8952e-06
-6.46242e-06
-1.7792e-06
-6.13232e-06
-1.58086e-06
-5.70433e-06
-1.32657e-06
-5.22726e-06
-1.03895e-06
-4.73463e-06
-7.36138e-07
-4.24842e-06
-4.31911e-07
-3.78221e-06
-1.36329e-07
-3.34369e-06
1.43583e-07
-2.93651e-06
4.03149e-07
-2.56156e-06
6.39445e-07
-2.218e-06
8.50801e-07
-1.9038e-06
1.03641e-06
-1.61621e-06
1.19603e-06
-1.35208e-06
1.32973e-06
-1.10798e-06
1.43772e-06
-8.80335e-07
1.52022e-06
-6.65506e-07
1.57738e-06
-4.5981e-07
1.60918e-06
-2.59527e-07
1.6154e-06
-6.09007e-08
1.59562e-06
1.39874e-07
1.54917e-06
3.46674e-07
1.47522e-06
5.63465e-07
1.37276e-06
7.94317e-07
1.24069e-06
1.04341e-06
1.07799e-06
1.31503e-06
8.83829e-07
1.6135e-06
6.57879e-07
1.94314e-06
4.00615e-07
2.30801e-06
1.13809e-07
2.71171e-06
-1.98852e-07
3.15682e-06
-5.30984e-07
3.64419e-06
-8.7255e-07
4.17179e-06
-1.20881e-06
4.73303e-06
-1.51936e-06
5.31438e-06
-1.77755e-06
5.89213e-06
-1.95103e-06
6.42833e-06
-2.0044e-06
6.86597e-06
-1.90543e-06
7.12456e-06
-1.63635e-06
7.09756e-06
-1.21097e-06
6.65525e-06
-6.95567e-07
5.65669e-06
-2.25819e-07
3.97616e-06
1.5528e-06
-1.63734e-07
-1.24022e-06
-5.32303e-07
-3.23331e-06
-9.7844e-07
-4.69476e-06
-1.40386e-06
-5.65602e-06
-1.74869e-06
-6.19146e-06
-1.9862e-06
-6.38931e-06
-2.1131e-06
-6.33552e-06
-2.14015e-06
-6.10527e-06
-2.08491e-06
-5.75957e-06
-1.96682e-06
-5.34535e-06
-1.80437e-06
-4.89708e-06
-1.61367e-06
-4.43912e-06
-1.40799e-06
-3.98789e-06
-1.19779e-06
-3.5539e-06
-9.91011e-07
-3.14329e-06
-7.93503e-07
-2.75907e-06
-6.09437e-07
-2.40207e-06
-4.41685e-07
-2.07155e-06
-2.92158e-07
-1.76574e-06
-1.6208e-07
-1.48216e-06
-5.22123e-08
-1.21785e-06
3.69748e-08
-9.69522e-07
1.05165e-07
-7.33696e-07
1.52094e-07
-5.0674e-07
1.77486e-07
-2.84918e-07
1.80999e-07
-6.44139e-08
1.62214e-07
1.5866e-07
1.20632e-07
3.88256e-07
5.57107e-08
6.28387e-07
-3.30824e-08
8.8311e-07
-1.46169e-07
1.1565e-06
-2.83724e-07
1.45258e-06
-4.45476e-07
1.77526e-06
-6.30451e-07
2.12811e-06
-8.36623e-07
2.51418e-06
-1.06049e-06
2.93557e-06
-1.29652e-06
3.39285e-06
-1.53657e-06
3.88424e-06
-1.76922e-06
4.40445e-06
-1.97924e-06
4.94305e-06
-2.14727e-06
5.48241e-06
-2.25024e-06
5.9951e-06
-2.26291e-06
6.44099e-06
-2.16133e-06
6.7644e-06
-1.929e-06
6.89223e-06
-1.56611e-06
6.73467e-06
-1.10132e-06
6.19045e-06
-6.03417e-07
5.15879e-06
-1.86916e-07
3.55966e-06
1.36589e-06
-1.3782e-07
-1.1024e-06
-4.633e-07
-2.90783e-06
-8.80953e-07
-4.27711e-06
-1.31069e-06
-5.22628e-06
-1.69722e-06
-5.80493e-06
-2.00931e-06
-6.07722e-06
-2.23492e-06
-6.10992e-06
-2.37522e-06
-5.96497e-06
-2.43925e-06
-5.69554e-06
-2.43984e-06
-5.34476e-06
-2.39084e-06
-4.94608e-06
-2.30547e-06
-4.52449e-06
-2.19542e-06
-4.09793e-06
-2.07057e-06
-3.67875e-06
-1.93893e-06
-3.27493e-06
-1.80679e-06
-2.89121e-06
-1.67901e-06
-2.52985e-06
-1.55923e-06
-2.19133e-06
-1.45014e-06
-1.87483e-06
-1.35369e-06
-1.57861e-06
-1.27131e-06
-1.30023e-06
-1.20402e-06
-1.03681e-06
-1.15258e-06
-7.85135e-07
-1.11759e-06
-5.41732e-07
-1.09953e-06
-3.02974e-07
-1.09884e-06
-6.5107e-08
-1.11589e-06
1.7571e-07
-1.15101e-06
4.23373e-07
-1.20442e-06
6.818e-07
-1.2762e-06
9.54889e-07
-1.36615e-06
1.24645e-06
-1.47367e-06
1.5601e-06
-1.59756e-06
1.89915e-06
-1.73578e-06
2.26633e-06
-1.88514e-06
2.66354e-06
-2.04094e-06
3.09138e-06
-2.19659e-06
3.5485e-06
-2.3432e-06
4.03084e-06
-2.46921e-06
4.53047e-06
-2.56035e-06
5.03418e-06
-2.5998e-06
5.52186e-06
-2.56925e-06
5.96454e-06
-2.45085e-06
6.3226e-06
-2.23082e-06
6.54437e-06
-1.90468e-06
6.5661e-06
-1.4842e-06
6.31419e-06
-1.00486e-06
5.71111e-06
-5.3165e-07
4.68559e-06
-1.59182e-07
3.18719e-06
1.20671e-06
-1.19297e-07
-9.83105e-07
-4.11111e-07
-2.61601e-06
-8.02073e-07
-3.88614e-06
-1.22696e-06
-4.80139e-06
-1.63652e-06
-5.39537e-06
-1.99875e-06
-5.71498e-06
-2.29674e-06
-5.81193e-06
-2.52512e-06
-5.73659e-06
-2.68636e-06
-5.5343e-06
-2.78761e-06
-5.24351e-06
-2.83827e-06
-4.89543e-06
-2.84833e-06
-4.51442e-06
-2.82742e-06
-4.11885e-06
-2.78417e-06
-3.722e-06
-2.72602e-06
-3.33308e-06
-2.65918e-06
-2.95805e-06
-2.58868e-06
-2.60035e-06
-2.51854e-06
-2.26147e-06
-2.4519e-06
-1.94147e-06
-2.39119e-06
-1.63931e-06
-2.3383e-06
-1.35312e-06
-2.29465e-06
-1.08046e-06
-2.26134e-06
-8.18449e-07
-2.2392e-06
-5.6387e-07
-2.22887e-06
-3.13299e-07
-2.23083e-06
-6.31483e-08
-2.24539e-06
1.90266e-07
-2.27268e-06
4.50668e-07
-2.31265e-06
7.21766e-07
-2.36494e-06
1.00718e-06
-2.42883e-06
1.31033e-06
-2.50307e-06
1.63434e-06
-2.58574e-06
1.98182e-06
-2.67403e-06
2.35462e-06
-2.764e-06
2.75351e-06
-2.8503e-06
3.17767e-06
-2.92595e-06
3.62416e-06
-2.98214e-06
4.08704e-06
-3.00816e-06
4.55648e-06
-2.99157e-06
5.0176e-06
-2.9189e-06
5.44919e-06
-2.77681e-06
5.82245e-06
-2.55429e-06
6.10007e-06
-2.24576e-06
6.23584e-06
-1.85532e-06
6.17566e-06
-1.40154e-06
5.8604e-06
-9.21873e-07
5.23144e-06
-4.75e-07
4.23871e-06
-1.38654e-07
2.85084e-06
1.06805e-06
-1.05714e-07
-8.7739e-07
-3.71227e-07
-2.3505e-06
-7.38714e-07
-3.51866e-06
-1.15462e-06
-4.38549e-06
-1.57575e-06
-4.97423e-06
-1.97123e-06
-5.31951e-06
-2.32179e-06
-5.46136e-06
-2.61789e-06
-5.4405e-06
-2.85717e-06
-5.29501e-06
-3.04219e-06
-5.05849e-06
-3.17841e-06
-4.75921e-06
-3.27272e-06
-4.42011e-06
-3.33246e-06
-4.05911e-06
-3.36472e-06
-3.68974e-06
-3.37596e-06
-3.32184e-06
-3.37188e-06
-2.96213e-06
-3.35733e-06
-2.6149e-06
-3.33635e-06
-2.28245e-06
-3.31225e-06
-1.96556e-06
-3.28773e-06
-1.66383e-06
-3.26491e-06
-1.37594e-06
-3.24547e-06
-1.0999e-06
-3.23073e-06
-8.33191e-07
-3.22167e-06
-5.72927e-07
-3.21902e-06
-3.15951e-07
-3.22325e-06
-5.89235e-08
-3.23457e-06
2.01594e-07
-3.25297e-06
4.69067e-07
-3.27811e-06
7.46901e-07
-3.30928e-06
1.03835e-06
-3.34533e-06
1.34639e-06
-3.38456e-06
1.67357e-06
-3.42452e-06
2.02179e-06
-3.46195e-06
2.39204e-06
-3.49251e-06
2.78407e-06
-3.51071e-06
3.19588e-06
-3.50976e-06
3.6232e-06
-3.48153e-06
4.0588e-06
-3.41673e-06
4.49169e-06
-3.30534e-06
4.90621e-06
-3.13736e-06
5.28121e-06
-2.9042e-06
5.58929e-06
-2.60059e-06
5.79647e-06
-2.22728e-06
5.86252e-06
-1.79406e-06
5.74244e-06
-1.32304e-06
5.38938e-06
-8.50933e-07
4.75934e-06
-4.29547e-07
3.81733e-06
-1.22949e-07
2.54424e-06
9.45104e-07
-9.5541e-08
-7.81849e-07
-3.40418e-07
-2.10562e-06
-6.87886e-07
-3.17119e-06
-1.09339e-06
-3.97999e-06
-1.5192e-06
-4.54842e-06
-1.93637e-06
-4.90234e-06
-2.32488e-06
-5.07286e-06
-2.67263e-06
-5.09275e-06
-2.97389e-06
-4.99375e-06
-3.22766e-06
-4.80471e-06
-3.43611e-06
-4.55076e-06
-3.60334e-06
-4.25288e-06
-3.73445e-06
-3.928e-06
-3.83484e-06
-3.58935e-06
-3.90982e-06
-3.24685e-06
-3.96431e-06
-2.90765e-06
-4.00269e-06
-2.57652e-06
-4.02879e-06
-2.25635e-06
-4.04587e-06
-1.94849e-06
-4.05663e-06
-1.65307e-06
-4.06331e-06
-1.36926e-06
-4.0677e-06
-1.09551e-06
-4.07121e-06
-8.29681e-07
-4.0749e-06
-5.69239e-07
-4.07951e-06
-3.11344e-07
-4.08547e-06
-5.29622e-08
-4.09291e-06
2.09038e-07
-4.10164e-06
4.77798e-07
-4.1111e-06
7.56362e-07
-4.12032e-06
1.04757e-06
-4.12784e-06
1.35391e-06
-4.13163e-06
1.67735e-06
-4.12898e-06
2.01913e-06
-4.1164e-06
2.37947e-06
-4.08955e-06
2.75722e-06
-4.04315e-06
3.14948e-06
-3.971e-06
3.55105e-06
-3.86609e-06
3.95389e-06
-3.7209e-06
4.3465e-06
-3.52794e-06
4.71324e-06
-3.28059e-06
5.03386e-06
-2.97441e-06
5.28311e-06
-2.60878e-06
5.43084e-06
-2.18901e-06
5.44275e-06
-1.72848e-06
5.28192e-06
-1.25068e-06
4.91158e-06
-7.90256e-07
4.29891e-06
-3.92498e-07
3.41957e-06
-1.10599e-07
2.26234e-06
8.34505e-07
-8.77883e-08
-6.94061e-07
-3.1638e-07
-1.87703e-06
-6.47045e-07
-2.84052e-06
-1.04214e-06
-3.5849e-06
-1.46858e-06
-4.12197e-06
-1.89963e-06
-4.47129e-06
-2.31537e-06
-4.65712e-06
-2.70229e-06
-4.70583e-06
-3.0524e-06
-4.64364e-06
-3.362e-06
-4.49511e-06
-3.63063e-06
-4.28213e-06
-3.85998e-06
-4.02353e-06
-4.0531e-06
-3.73488e-06
-4.21377e-06
-3.42868e-06
-4.34602e-06
-3.1146e-06
-4.45386e-06
-2.7998e-06
-4.54106e-06
-2.48931e-06
-4.61105e-06
-2.18637e-06
-4.66682e-06
-1.89272e-06
-4.71098e-06
-1.60891e-06
-4.74571e-06
-1.33453e-06
-4.7728e-06
-1.06842e-06
-4.79366e-06
-8.08828e-07
-4.80933e-06
-5.53568e-07
-4.82053e-06
-3.00145e-07
-4.82762e-06
-4.58652e-08
-4.83064e-06
2.12059e-07
-4.82925e-06
4.76404e-07
-4.82271e-06
7.49824e-07
-4.80987e-06
1.03472e-06
-4.78906e-06
1.3331e-06
-4.7581e-06
1.64639e-06
-4.7142e-06
1.97523e-06
-4.6539e-06
2.31917e-06
-4.57308e-06
2.67641e-06
-4.46698e-06
3.04338e-06
-4.33027e-06
3.41434e-06
-4.15727e-06
3.7809e-06
-3.94237e-06
4.13159e-06
-3.68053e-06
4.4514e-06
-3.3682e-06
4.72153e-06
-3.00441e-06
4.91931e-06
-2.59212e-06
5.01856e-06
-2.13981e-06
4.99044e-06
-1.66294e-06
4.80504e-06
-1.18507e-06
4.43372e-06
-7.38218e-07
3.85206e-06
-3.6189e-07
3.04324e-06
-1.00676e-07
2.00113e-06
7.33829e-07
-8.17985e-08
-6.12263e-07
-2.97461e-07
-1.66137e-06
-6.14144e-07
-2.52384e-06
-9.99499e-07
-3.19954e-06
-1.42431e-06
-3.69717e-06
-1.86397e-06
-4.03162e-06
-2.29914e-06
-4.22195e-06
-2.71565e-06
-4.28932e-06
-3.10399e-06
-4.2553e-06
-3.45856e-06
-4.14054e-06
-3.77679e-06
-3.96391e-06
-4.05837e-06
-3.74194e-06
-4.30457e-06
-3.48868e-06
-4.51764e-06
-3.21562e-06
-4.70039e-06
-2.93185e-06
-4.85587e-06
-2.64433e-06
-4.98712e-06
-2.35806e-06
-5.09706e-06
-2.07643e-06
-5.18834e-06
-1.80144e-06
-5.26332e-06
-1.53393e-06
-5.32402e-06
-1.27382e-06
-5.37214e-06
-1.0203e-06
-5.40901e-06
-7.71963e-07
-5.4356e-06
-5.2697e-07
-5.45257e-06
-2.83175e-07
-5.4602e-06
-3.82376e-08
-5.45841e-06
2.10268e-07
-5.44675e-06
4.64741e-07
-5.42435e-06
7.27433e-07
-5.38996e-06
1.00032e-06
-5.34181e-06
1.28496e-06
-5.27769e-06
1.58228e-06
-5.19489e-06
1.89242e-06
-5.09015e-06
2.21444e-06
-4.9598e-06
2.54606e-06
-4.79975e-06
2.88333e-06
-4.6057e-06
3.22029e-06
-4.37342e-06
3.54862e-06
-4.09912e-06
3.85729e-06
-3.78007e-06
4.13236e-06
-3.41534e-06
4.35681e-06
-3.00676e-06
4.51073e-06
-2.55997e-06
4.57177e-06
-2.08556e-06
4.51603e-06
-1.60001e-06
4.31949e-06
-1.12623e-06
3.95994e-06
-6.93489e-07
3.41932e-06
-3.36344e-07
2.6861e-06
-9.25746e-08
1.75736e-06
6.41254e-07
-7.71224e-08
-5.3514e-07
-2.82472e-07
-1.45602e-06
-5.87583e-07
-2.21873e-06
-9.6418e-07
-2.82294e-06
-1.38618e-06
-3.27517e-06
-1.83094e-06
-3.58687e-06
-2.27988e-06
-3.77301e-06
-2.71864e-06
-3.85057e-06
-3.13676e-06
-3.83718e-06
-3.52725e-06
-3.75005e-06
-3.88596e-06
-3.6052e-06
-4.21095e-06
-3.41695e-06
-4.50197e-06
-3.19766e-06
-4.75992e-06
-2.95768e-06
-4.98644e-06
-2.70533e-06
-5.18367e-06
-2.4471e-06
-5.35389e-06
-2.18783e-06
-5.49946e-06
-1.93086e-06
-5.62261e-06
-1.67829e-06
-5.72538e-06
-1.43116e-06
-5.80957e-06
-1.18963e-06
-5.8767e-06
-9.53174e-07
-5.92797e-06
-7.20694e-07
-5.96426e-06
-4.9068e-07
-5.98611e-06
-2.61323e-07
-5.99371e-06
-3.06341e-08
-5.9869e-06
2.03452e-07
-5.96511e-06
4.42959e-07
-5.92743e-06
6.89753e-07
-5.87252e-06
9.45413e-07
-5.79865e-06
1.21108e-06
-5.70365e-06
1.48729e-06
-5.58501e-06
1.77378e-06
-5.43984e-06
2.06926e-06
-5.26498e-06
2.3712e-06
-5.05715e-06
2.6755e-06
-4.81314e-06
2.97628e-06
-4.53011e-06
3.26559e-06
-4.20602e-06
3.5332e-06
-3.84014e-06
3.76648e-06
-3.43375e-06
3.95041e-06
-2.99085e-06
4.06783e-06
-2.51903e-06
4.09995e-06
-2.03022e-06
4.02721e-06
-1.54121e-06
3.83048e-06
-1.07394e-06
3.49266e-06
-6.55037e-07
3.00042e-06
-3.14893e-07
2.34595e-06
-8.58911e-08
1.52836e-06
5.55363e-07
-7.34474e-08
-4.61693e-07
-2.7055e-07
-1.25892e-06
-5.6613e-07
-1.92315e-06
-9.3505e-07
-2.45402e-06
-1.35375e-06
-2.85646e-06
-1.80129e-06
-3.13933e-06
-2.25992e-06
-3.31438e-06
-2.71531e-06
-3.39518e-06
-3.15647e-06
-3.39601e-06
-3.57545e-06
-3.33107e-06
-3.96688e-06
-3.21377e-06
-4.32754e-06
-3.05628e-06
-4.65591e-06
-2.8693e-06
-4.95171e-06
-2.66187e-06
-5.21558e-06
-2.44146e-06
-5.44875e-06
-2.21393e-06
-5.65282e-06
-1.98376e-06
-5.82954e-06
-1.75414e-06
-5.9807e-06
-1.52713e-06
-6.10799e-06
-1.30387e-06
-6.21293e-06
-1.08468e-06
-6.29685e-06
-8.6926e-07
-6.36077e-06
-6.56773e-07
-6.40544e-06
-4.46008e-07
-6.43129e-06
-2.35475e-07
-6.4384e-06
-2.3518e-08
-6.42653e-06
1.9158e-07
-6.39506e-06
4.11487e-07
-6.34302e-06
6.3771e-07
-6.26907e-06
8.7147e-07
-6.17156e-06
1.11356e-06
-6.04848e-06
1.36421e-06
-5.89757e-06
1.62287e-06
-5.71637e-06
1.88806e-06
-5.50233e-06
2.15716e-06
-5.253e-06
2.42616e-06
-4.96622e-06
2.68951e-06
-4.64049e-06
2.93986e-06
-4.2753e-06
3.168e-06
-3.87163e-06
3.36281e-06
-3.43255e-06
3.51132e-06
-2.96374e-06
3.59903e-06
-2.47417e-06
3.61038e-06
-1.97652e-06
3.52956e-06
-1.48752e-06
3.34149e-06
-1.02795e-06
3.03308e-06
-6.22086e-07
2.59456e-06
-2.96852e-07
2.02072e-06
-8.03505e-08
1.31186e-06
4.75013e-07
-7.05524e-08
-3.9114e-07
-2.61066e-07
-1.0684e-06
-5.48851e-07
-1.63536e-06
-9.11184e-07
-2.09169e-06
-1.32652e-06
-2.44112e-06
-1.77535e-06
-2.69051e-06
-2.2407e-06
-2.84903e-06
-2.70846e-06
-2.92742e-06
-3.16733e-06
-2.93714e-06
-3.60868e-06
-2.88972e-06
-4.02627e-06
-2.79618e-06
-4.41587e-06
-2.66669e-06
-4.77492e-06
-2.51025e-06
-5.10216e-06
-2.33463e-06
-5.39734e-06
-2.14627e-06
-5.66091e-06
-1.95036e-06
-5.8938e-06
-1.75088e-06
-6.0972e-06
-1.55074e-06
-6.27246e-06
-1.35188e-06
-6.42091e-06
-1.15542e-06
-6.54379e-06
-9.61802e-07
-6.64218e-06
-7.70865e-07
-6.71695e-06
-5.82005e-07
-6.76869e-06
-3.9427e-07
-6.7977e-06
-2.06461e-07
-6.80399e-06
-1.72333e-08
-6.78721e-06
1.74807e-07
-6.74673e-06
3.71001e-07
-6.68155e-06
5.72533e-07
-6.5904e-06
7.80317e-07
-6.47171e-06
9.94872e-07
-6.32368e-06
1.21619e-06
-6.14438e-06
1.44356e-06
-5.93179e-06
1.67547e-06
-5.68398e-06
1.90935e-06
-5.39931e-06
2.14149e-06
-5.07661e-06
2.36681e-06
-4.71555e-06
2.5788e-06
-4.31695e-06
2.76941e-06
-3.88325e-06
2.92911e-06
-3.4189e-06
3.04697e-06
-2.93085e-06
3.11098e-06
-2.42899e-06
3.10852e-06
-1.92642e-06
3.02699e-06
-1.43957e-06
2.85464e-06
-9.88033e-07
2.58154e-06
-5.94068e-07
2.20059e-06
-2.81741e-07
1.70839e-06
-7.57635e-08
1.10588e-06
3.99249e-07
-6.82803e-08
-3.2286e-07
-2.53564e-07
-8.83121e-07
-5.35041e-07
-1.35389e-06
-8.91843e-07
-1.73489e-06
-1.30401e-06
-2.02895e-06
-1.7532e-06
-2.24132e-06
-2.22316e-06
-2.37906e-06
-2.70003e-06
-2.45055e-06
-3.17236e-06
-2.46481e-06
-3.63109e-06
-2.43099e-06
-4.06931e-06
-2.35796e-06
-4.48202e-06
-2.25397e-06
-4.86585e-06
-2.12642e-06
-5.21873e-06
-1.98175e-06
-5.53965e-06
-1.82535e-06
-5.82839e-06
-1.66162e-06
-6.08528e-06
-1.494e-06
-6.31102e-06
-1.325e-06
-6.50653e-06
-1.15637e-06
-6.67279e-06
-9.89155e-07
-6.81079e-06
-8.23807e-07
-6.92136e-06
-6.6029e-07
-7.0052e-06
-4.98174e-07
-7.06273e-06
-3.36731e-07
-7.09417e-06
-1.75024e-07
-7.09941e-06
-1.19909e-08
-7.07807e-06
1.53467e-07
-7.02947e-06
3.22396e-07
-6.95264e-06
4.95701e-07
-6.84636e-06
6.74041e-07
-6.70921e-06
8.57726e-07
-6.53963e-06
1.0466e-06
-6.33598e-06
1.23991e-06
-6.0967e-06
1.43619e-06
-5.82047e-06
1.63312e-06
-5.50635e-06
1.82737e-06
-5.15409e-06
2.01455e-06
-4.76437e-06
2.18908e-06
-4.33914e-06
2.34418e-06
-3.88195e-06
2.47193e-06
-3.39838e-06
2.56339e-06
-2.8963e-06
2.6089e-06
-2.38621e-06
2.59843e-06
-1.88137e-06
2.52215e-06
-1.3978e-06
2.37107e-06
-9.54021e-07
2.13777e-06
-5.70573e-07
1.81715e-06
-2.69221e-07
1.40704e-06
-7.19984e-08
9.08658e-07
3.27251e-07
-6.65186e-08
-2.56341e-07
-2.4771e-07
-7.01929e-07
-5.24177e-07
-1.07742e-06
-8.76456e-07
-1.38261e-06
-1.28582e-06
-1.61959e-06
-1.73485e-06
-1.79228e-06
-2.20791e-06
-1.906e-06
-2.69139e-06
-1.96708e-06
-3.1738e-06
-1.9824e-06
-3.64578e-06
-1.95901e-06
-4.09996e-06
-1.90379e-06
-4.53075e-06
-1.82318e-06
-4.93414e-06
-1.72304e-06
-5.30743e-06
-1.60846e-06
-5.64898e-06
-1.48379e-06
-5.95801e-06
-1.35259e-06
-6.23435e-06
-1.21766e-06
-6.47826e-06
-1.08108e-06
-6.6903e-06
-9.44335e-07
-6.87114e-06
-8.08316e-07
-7.02149e-06
-6.73454e-07
-7.142e-06
-5.39778e-07
-7.23318e-06
-4.06996e-07
-7.29534e-06
-2.74571e-07
-7.32857e-06
-1.41797e-07
-7.33269e-06
-7.86688e-09
-7.30728e-06
1.28053e-07
-7.25163e-06
2.66751e-07
-7.16482e-06
4.0889e-07
-7.04571e-06
5.54928e-07
-6.89301e-06
7.05027e-07
-6.70538e-06
8.58964e-07
-6.48149e-06
1.01603e-06
-6.22021e-06
1.17492e-06
-5.92073e-06
1.33364e-06
-5.58277e-06
1.48941e-06
-5.20682e-06
1.6386e-06
-4.79442e-06
1.77667e-06
-4.34841e-06
1.89817e-06
-3.87327e-06
1.99678e-06
-3.37537e-06
2.0655e-06
-2.86328e-06
2.0968e-06
-2.34786e-06
2.08302e-06
-1.84242e-06
2.0167e-06
-1.36253e-06
1.89118e-06
-9.25788e-07
1.70103e-06
-5.51313e-07
1.44267e-06
-2.59053e-07
1.11478e-06
-6.89637e-08
7.18569e-07
2.58287e-07
-6.51877e-08
-1.91154e-07
-2.43266e-07
-5.2385e-07
-5.15875e-07
-8.04812e-07
-8.64594e-07
-1.03389e-06
-1.27161e-06
-1.21257e-06
-1.72025e-06
-1.34364e-06
-2.19534e-06
-1.43091e-06
-2.68351e-06
-1.47891e-06
-3.17327e-06
-1.49263e-06
-3.65508e-06
-1.4772e-06
-4.12123e-06
-1.43764e-06
-4.56571e-06
-1.3787e-06
-4.98404e-06
-1.30471e-06
-5.373e-06
-1.21949e-06
-5.73051e-06
-1.12629e-06
-6.0553e-06
-1.0278e-06
-6.34681e-06
-9.2615e-07
-6.60494e-06
-8.2295e-07
-6.82994e-06
-7.19339e-07
-7.02222e-06
-6.16036e-07
-7.18227e-06
-5.13398e-07
-7.31057e-06
-4.11481e-07
-7.40747e-06
-3.10097e-07
-7.47316e-06
-2.08873e-07
-7.50766e-06
-1.07303e-07
-7.51072e-06
-4.81014e-09
-7.48187e-06
9.92036e-08
-7.42041e-06
2.05297e-07
-7.32545e-06
3.13932e-07
-7.19593e-06
4.25407e-07
-7.0307e-06
5.39796e-07
-6.82861e-06
6.56869e-07
-6.58861e-06
7.76028e-07
-6.30991e-06
8.96223e-07
-5.99216e-06
1.01589e-06
-5.63562e-06
1.13286e-06
-5.24137e-06
1.24436e-06
-4.81164e-06
1.34694e-06
-4.34996e-06
1.43649e-06
-3.8615e-06
1.50832e-06
-3.35325e-06
1.55724e-06
-2.83421e-06
1.57777e-06
-2.31551e-06
1.56432e-06
-1.81039e-06
1.51158e-06
-1.33402e-06
1.41481e-06
-9.03256e-07
1.27026e-06
-5.36088e-07
1.0755e-06
-2.51074e-07
8.29766e-07
-6.65961e-08
5.34091e-07
1.91691e-07
-6.42319e-08
-1.26922e-07
-2.40063e-07
-3.4802e-07
-5.09861e-07
-5.35013e-07
-8.55944e-07
-6.87807e-07
-1.26116e-06
-8.07359e-07
-1.70935e-06
-8.95452e-07
-2.18572e-06
-9.5454e-07
-2.67707e-06
-9.87564e-07
-3.17195e-06
-9.97755e-07
-3.66069e-06
-9.88456e-07
-4.13536e-06
-9.6296e-07
-4.58967e-06
-9.24393e-07
-5.01877e-06
-8.7561e-07
-5.41912e-06
-8.19145e-07
-5.78825e-06
-7.57167e-07
-6.12457e-06
-6.91476e-07
-6.42721e-06
-6.23507e-07
-6.69581e-06
-5.54353e-07
-6.93036e-06
-4.84789e-07
-7.13108e-06
-4.15315e-07
-7.29829e-06
-3.46185e-07
-7.43232e-06
-2.77454e-07
-7.53341e-06
-2.09011e-07
-7.60166e-06
-1.40621e-07
-7.637e-06
-7.19613e-08
-7.63915e-06
-2.65861e-09
-7.60762e-06
6.76708e-08
-7.54171e-06
1.39384e-07
-7.44054e-06
2.12771e-07
-7.30315e-06
2.88009e-07
-7.12847e-06
3.65122e-07
-6.91553e-06
4.4393e-07
-6.66351e-06
5.24e-07
-6.37188e-06
6.046e-07
-6.04065e-06
6.84648e-07
-5.67046e-06
7.62675e-07
-5.26289e-06
8.36795e-07
-4.82064e-06
9.04691e-07
-4.34778e-06
9.63626e-07
-3.84994e-06
1.01048e-06
-3.33455e-06
1.04185e-06
-2.81092e-06
1.05413e-06
-2.2903e-06
1.04371e-06
-1.78587e-06
1.00715e-06
-1.31248e-06
9.41421e-07
-8.8638e-07
8.44164e-07
-5.24765e-07
7.13888e-07
-2.45172e-07
5.50172e-07
-6.48522e-08
3.53772e-07
1.26839e-07
-6.36137e-08
-6.33082e-08
-2.37985e-07
-1.73649e-07
-5.05948e-07
-2.6705e-07
-8.50289e-07
-3.43467e-07
-1.25428e-06
-4.03366e-07
-1.70211e-06
-4.47621e-07
-2.17922e-06
-4.77434e-07
-2.67253e-06
-4.94247e-07
-3.17064e-06
-4.99653e-07
-3.66379e-06
-4.95298e-07
-4.14394e-06
-4.82814e-07
-4.60459e-06
-4.63747e-07
-5.04068e-06
-4.3952e-07
-5.44843e-06
-4.11395e-07
-5.82514e-06
-3.80455e-07
-6.16901e-06
-3.47604e-07
-6.47896e-06
-3.13562e-07
-6.75443e-06
-2.78881e-07
-6.99526e-06
-2.43955e-07
-7.20154e-06
-2.09038e-07
-7.37346e-06
-1.74263e-07
-7.51125e-06
-1.39663e-07
-7.61508e-06
-1.05186e-07
-7.68498e-06
-7.07192e-08
-7.72084e-06
-3.61053e-08
-7.72233e-06
-1.16188e-09
-7.68896e-06
3.42987e-08
-7.62003e-06
7.04502e-08
-7.51469e-06
1.07432e-07
-7.37201e-06
1.45326e-07
-7.19102e-06
1.84137e-07
-6.97086e-06
2.23766e-07
-6.71084e-06
2.63988e-07
-6.41067e-06
3.04425e-07