/*--------------------------------*- C++ -*----------------------------------*\
  =========                 |
  \\      /  F ield         | OpenFOAM: The Open Source CFD Toolbox
   \\    /   O peration     | Website:  https://openfoam.org
    \\  /    A nd           | Version:  7
     \\/     M anipulation  |
\*---------------------------------------------------------------------------*/
FoamFile
{
    version     2.0;
    format      ascii;
    class       surfaceScalarField;
    location    "0.0258";
    object      phi;
}
// * * * * * * * * * * * * * * * * * * * * * * * * * * * * * * * * * * * * * //

dimensions      [0 3 -1 0 0 0 0];

internalField   nonuniform List<scalar> 
4900
(
8.66363e-10
-8.6688e-10
1.5349e-09
-6.68493e-10
1.16895e-09
3.65931e-10
-4.59021e-10
1.62796e-09
-3.34488e-09
2.88586e-09
-7.37644e-09
4.03156e-09
-1.23906e-08
5.01421e-09
-1.82087e-08
5.81805e-09
-2.46511e-08
6.44242e-09
-3.15447e-08
6.89355e-09
-3.87258e-08
7.18114e-09
-4.60425e-08
7.31661e-09
-5.33546e-08
7.31214e-09
-6.05348e-08
7.18014e-09
-6.74677e-08
6.93289e-09
-7.405e-08
6.58233e-09
-8.01899e-08
6.13992e-09
-8.58065e-08
5.61658e-09
-9.08292e-08
5.02268e-09
-9.51972e-08
4.36802e-09
-9.88592e-08
3.66193e-09
-1.01772e-07
2.91332e-09
-1.03903e-07
2.13077e-09
-1.05226e-07
1.32272e-09
-1.05723e-07
4.97501e-10
-1.05387e-07
-3.36467e-10
-1.04216e-07
-1.17057e-09
-1.02221e-07
-1.99589e-09
-9.94174e-08
-2.80309e-09
-9.58351e-08
-3.58231e-09
-9.1512e-08
-4.32316e-09
-8.64973e-08
-5.01464e-09
-8.08521e-08
-5.64519e-09
-7.46495e-08
-6.20268e-09
-6.79749e-08
-6.67455e-09
-6.0927e-08
-7.04791e-09
-5.36173e-08
-7.30966e-09
-4.61706e-08
-7.44676e-09
-3.87241e-08
-7.44644e-09
-3.14276e-08
-7.29655e-09
-2.44417e-08
-6.9859e-09
-1.79367e-08
-6.50492e-09
-1.20902e-08
-5.84652e-09
-7.08244e-09
-5.00779e-09
-3.08921e-09
-3.99323e-09
-2.66121e-10
-2.82309e-09
1.28894e-09
-1.55506e-09
1.58548e-09
-2.96562e-10
8.72679e-10
7.12787e-10
8.72662e-10
6.79561e-10
-1.5464e-09
1.16163e-10
-1.0512e-10
-2.8213e-09
3.30343e-09
-8.62558e-09
7.43226e-09
-1.73473e-08
1.16076e-08
-2.87952e-08
1.54794e-08
-4.26456e-08
1.88646e-08
-5.85066e-08
2.1679e-08
-7.59581e-08
2.38939e-08
-9.45766e-08
2.5512e-08
-1.13949e-07
2.65539e-08
-1.33684e-07
2.70512e-08
-1.53413e-07
2.70411e-08
-1.72797e-07
2.65641e-08
-1.91526e-07
2.5662e-08
-2.0932e-07
2.43762e-08
-2.25928e-07
2.27478e-08
-2.41128e-07
2.08163e-08
-2.54725e-07
1.86198e-08
-2.66551e-07
1.61946e-08
-2.76465e-07
1.35758e-08
-2.84349e-07
1.07969e-08
-2.90109e-07
7.89065e-09
-2.93675e-07
4.889e-09
-2.95001e-07
1.82382e-09
-2.94065e-07
-1.27282e-09
-2.90867e-07
-4.36817e-09
-2.85435e-07
-7.42842e-09
-2.7782e-07
-1.04183e-08
-2.68101e-07
-1.3301e-08
-2.56386e-07
-1.60377e-08
-2.42813e-07
-1.85876e-08
-2.2755e-07
-2.09083e-08
-2.10798e-07
-2.29554e-08
-1.92788e-07
-2.46837e-08
-1.7379e-07
-2.60467e-08
-1.54101e-07
-2.69984e-08
-1.34054e-07
-2.74934e-08
-1.14012e-07
-2.74885e-08
-9.43645e-08
-2.69443e-08
-7.55234e-08
-2.58269e-08
-5.79171e-08
-2.41112e-08
-4.19784e-08
-2.17852e-08
-2.81289e-08
-1.88573e-08
-1.67532e-08
-1.5369e-08
-8.15777e-09
-1.14185e-08
-2.50964e-09
-7.2032e-09
2.78489e-10
-3.08469e-09
7.22524e-10
2.6876e-10
1.59518e-09
-3.22401e-10
-1.22402e-09
-3.21928e-09
2.79175e-09
-9.75754e-09
9.84171e-09
-2.036e-08
1.80347e-08
-3.50636e-08
2.63112e-08
-5.36217e-08
3.40374e-08
-7.56067e-08
4.08496e-08
-1.00485e-07
4.65578e-08
-1.27671e-07
5.10793e-08
-1.56557e-07
5.4398e-08
-1.86542e-07
5.65396e-08
-2.17047e-07
5.75561e-08
-2.47522e-07
5.75156e-08
-2.77453e-07
5.64958e-08
-3.06371e-07
5.45791e-08
-3.33844e-07
5.18498e-08
-3.59488e-07
4.83918e-08
-3.82959e-07
4.42874e-08
-4.03956e-07
3.96166e-08
-4.22218e-07
3.44566e-08
-4.37524e-07
2.88818e-08
-4.49691e-07
2.29642e-08
-4.58575e-07
1.67742e-08
-4.64067e-07
1.03806e-08
-4.66095e-07
3.85239e-09
-4.64627e-07
-2.74135e-09
-4.59665e-07
-9.33002e-09
-4.51252e-07
-1.58409e-08
-4.39472e-07
-2.21985e-08
-4.24449e-07
-2.83239e-08
-4.06352e-07
-3.41346e-08
-3.85395e-07
-3.95445e-08
-3.6184e-07
-4.44638e-08
-3.35995e-07
-4.88e-08
-3.08221e-07
-5.24582e-08
-2.78924e-07
-5.5343e-08
-2.48563e-07
-5.73599e-08
-2.17639e-07
-5.84175e-08
-1.86697e-07
-5.84304e-08
-1.56318e-07
-5.7323e-08
-1.27111e-07
-5.50343e-08
-9.96975e-08
-5.15246e-08
-7.46972e-08
-4.67855e-08
-5.26999e-08
-4.08546e-08
-3.42295e-08
-3.38393e-08
-1.96921e-08
-2.59559e-08
-9.30181e-09
-1.75936e-08
-2.98066e-09
-9.40586e-09
-2.48743e-10
-2.46316e-09
1.34642e-09
-1.54752e-09
3.23522e-10
-7.28655e-09
8.53077e-09
-1.78927e-08
2.04478e-08
-3.36227e-08
3.37648e-08
-5.43997e-08
4.70882e-08
-7.9885e-08
5.95228e-08
-1.09554e-07
7.05187e-08
-1.42762e-07
7.97652e-08
-1.78793e-07
8.71103e-08
-2.16902e-07
9.25076e-08
-2.56343e-07
9.59809e-08
-2.96388e-07
9.76009e-08
-3.36341e-07
9.74685e-08
-3.75549e-07
9.57034e-08
-4.13406e-07
9.24366e-08
-4.49361e-07
8.78041e-08
-4.82912e-07
8.19433e-08
-5.13615e-07
7.49904e-08
-5.41077e-07
6.70788e-08
-5.64958e-07
5.83379e-08
-5.8497e-07
4.88934e-08
-6.00873e-07
3.88676e-08
-6.12479e-07
2.83798e-08
-6.19646e-07
1.75478e-08
-6.22283e-07
6.48871e-09
-6.20345e-07
-4.6793e-09
-6.13839e-07
-1.5836e-08
-6.02822e-07
-2.68577e-08
-5.87404e-07
-3.76162e-08
-5.6775e-07
-4.7978e-08
-5.44081e-07
-5.78039e-08
-5.16676e-07
-6.6949e-08
-4.85877e-07
-7.52631e-08
-4.52085e-07
-8.25916e-08
-4.15766e-07
-8.87774e-08
-3.77446e-07
-9.36634e-08
-3.37711e-07
-9.70949e-08
-2.97204e-07
-9.89246e-08
-2.56617e-07
-9.90169e-08
-2.16685e-07
-9.72551e-08
-1.7817e-07
-9.35495e-08
-1.41845e-07
-8.78492e-08
-1.08473e-07
-8.01575e-08
-7.87731e-08
-7.05548e-08
-5.33805e-08
-5.92319e-08
-3.2796e-08
-4.65404e-08
-1.73199e-08
-3.30697e-08
-6.97801e-09
-1.97477e-08
-1.45284e-09
-7.98835e-09
-1.06422e-10
-2.78969e-09
3.11323e-09
-1.14986e-08
1.72397e-08
-2.63463e-08
3.52955e-08
-4.73238e-08
5.47423e-08
-7.41769e-08
7.39412e-08
-1.06437e-07
9.1783e-08
-1.43469e-07
1.07551e-07
-1.84521e-07
1.20817e-07
-2.28767e-07
1.31357e-07
-2.75348e-07
1.39089e-07
-3.23399e-07
1.44031e-07
-3.7207e-07
1.46273e-07
-4.20549e-07
1.45947e-07
-4.68066e-07
1.4322e-07
-5.13906e-07
1.38277e-07
-5.57414e-07
1.31312e-07
-5.97995e-07
1.22524e-07
-6.35117e-07
1.12112e-07
-6.68311e-07
1.00272e-07
-6.97169e-07
8.71963e-08
-7.21346e-07
7.30704e-08
-7.40555e-07
5.80769e-08
-7.5457e-07
4.23943e-08
-7.63221e-07
2.61986e-08
-7.66398e-07
9.66558e-09
-7.64049e-07
-7.02797e-09
-7.56183e-07
-2.37019e-08
-7.42869e-07
-4.01714e-08
-7.24241e-07
-5.62449e-08
-7.00495e-07
-7.17237e-08
-6.71898e-07
-8.6401e-08
-6.38785e-07
-1.00062e-07
-6.01564e-07
-1.12484e-07
-5.60714e-07
-1.23441e-07
-5.1679e-07
-1.32702e-07
-4.70416e-07
-1.40038e-07
-4.22286e-07
-1.45225e-07
-3.73159e-07
-1.48052e-07
-3.23848e-07
-1.48327e-07
-2.75214e-07
-1.4589e-07
-2.28144e-07
-1.4062e-07
-1.83535e-07
-1.32458e-07
-1.4227e-07
-1.21423e-07
-1.05179e-07
-1.07645e-07
-7.30071e-08
-9.1404e-08
-4.63628e-08
-7.31847e-08
-2.56719e-08
-5.37607e-08
-1.11298e-08
-3.42899e-08
-2.67202e-09
-1.64461e-08
-2.77845e-09
-3.96804e-09
7.08127e-09
-1.5595e-08
2.88666e-08
-3.46663e-08
5.43669e-08
-6.08684e-08
8.09444e-08
-9.37296e-08
1.06802e-07
-1.3262e-07
1.30673e-07
-1.76774e-07
1.51705e-07
-2.25327e-07
1.6937e-07
-2.77346e-07
1.83376e-07
-3.31868e-07
1.9361e-07
-3.87923e-07
2.00087e-07
-4.44562e-07
2.02911e-07
-5.0087e-07
2.02255e-07
-5.55981e-07
1.98332e-07
-6.0909e-07
1.91386e-07
-6.59454e-07
1.81676e-07
-7.06399e-07
1.69469e-07
-7.4932e-07
1.55034e-07
-7.87685e-07
1.38637e-07
-8.2103e-07
1.20541e-07
-8.48959e-07
1.01e-07
-8.71147e-07
8.02648e-08
-8.87334e-07
5.85814e-08
-8.97328e-07
3.61924e-08
-9.01002e-07
1.33401e-08
-8.98299e-07
-9.7315e-09
-8.89227e-07
-3.27741e-08
-8.73865e-07
-5.55328e-08
-8.52366e-07
-7.77443e-08
-8.24954e-07
-9.91353e-08
-7.91933e-07
-1.19422e-07
-7.53684e-07
-1.38311e-07
-7.1067e-07
-1.55498e-07
-6.63436e-07
-1.70675e-07
-6.1261e-07
-1.83528e-07
-5.589e-07
-1.93748e-07
-5.03091e-07
-2.01034e-07
-4.46037e-07
-2.05105e-07
-3.88657e-07
-2.05708e-07
-3.31915e-07
-2.02631e-07
-2.76808e-07
-1.95726e-07
-2.24345e-07
-1.84921e-07
-1.75514e-07
-1.70254e-07
-1.31259e-07
-1.519e-07
-9.24393e-08
-1.30224e-07
-5.97922e-08
-1.05832e-07
-3.39014e-08
-7.96515e-08
-1.51719e-08
-5.30194e-08
-3.83304e-09
-2.7785e-08
-6.61151e-09
-5.05555e-09
1.21368e-08
-1.94759e-08
4.32869e-08
-4.26582e-08
7.75492e-08
-7.39838e-08
1.1227e-07
-1.12746e-07
1.45564e-07
-1.58131e-07
1.76058e-07
-2.09226e-07
2.028e-07
-2.6504e-07
2.25184e-07
-3.24531e-07
2.42867e-07
-3.86632e-07
2.55711e-07
-4.50278e-07
2.63733e-07
-5.14426e-07
2.67059e-07
-5.78073e-07
2.65902e-07
-6.40271e-07
2.6053e-07
-7.00135e-07
2.51249e-07
-7.56848e-07
2.38389e-07
-8.09671e-07
2.22291e-07
-8.57937e-07
2.033e-07
-9.0106e-07
1.8176e-07
-9.38528e-07
1.58009e-07
-9.69906e-07
1.32378e-07
-9.94833e-07
1.05192e-07
-1.01302e-06
7.67719e-08
-1.02426e-06
4.7433e-08
-1.02841e-06
1.74912e-08
-1.02541e-06
-1.27355e-08
-1.01526e-06
-4.29236e-08
-9.98053e-07
-7.27414e-08
-9.73951e-07
-1.01846e-07
-9.43204e-07
-1.29883e-07
-9.06143e-07
-1.56483e-07
-8.6319e-07
-1.81265e-07
-8.14851e-07
-2.03836e-07
-7.61728e-07
-2.23798e-07
-7.0451e-07
-2.40746e-07
-6.43975e-07
-2.54283e-07
-5.80985e-07
-2.64024e-07
-5.16481e-07
-2.69609e-07
-4.5147e-07
-2.70718e-07
-3.87014e-07
-2.67088e-07
-3.24209e-07
-2.58531e-07
-2.64166e-07
-2.44964e-07
-2.07985e-07
-2.26434e-07
-1.56725e-07
-2.0316e-07
-1.11373e-07
-1.75577e-07
-7.28146e-08
-1.4439e-07
-4.18135e-08
-1.10653e-07
-1.90025e-08
-7.58304e-08
-4.90308e-09
-4.18845e-08
-1.15146e-08
-6.05714e-09
1.8194e-08
-2.31296e-08
6.03594e-08
-5.02806e-08
1.047e-07
-8.66031e-08
1.48593e-07
-1.31151e-07
1.90113e-07
-1.82916e-07
2.27823e-07
-2.40822e-07
2.60706e-07
-3.03742e-07
2.88104e-07
-3.70515e-07
3.0964e-07
-4.39968e-07
3.25165e-07
-5.1094e-07
3.34705e-07
-5.82301e-07
3.3842e-07
-6.52966e-07
3.36567e-07
-7.21911e-07
3.29475e-07
-7.8818e-07
3.17519e-07
-8.50896e-07
3.01105e-07
-9.09258e-07
2.80654e-07
-9.62552e-07
2.56594e-07
-1.01014e-06
2.29351e-07
-1.05148e-06
1.99346e-07
-1.08609e-06
1.66992e-07
-1.1136e-06
1.32695e-07
-1.13368e-06
9.68535e-08
-1.14611e-06
5.98628e-08
-1.15074e-06
2.21175e-08
-1.14749e-06
-1.59853e-08
-1.13637e-06
-5.40413e-08
-1.11747e-06
-9.16359e-08
-1.09098e-06
-1.28341e-07
-1.05715e-06
-1.63714e-07
-1.01633e-06
-1.97294e-07
-9.68992e-07
-2.28607e-07
-9.15666e-07
-2.57162e-07
-8.57001e-07
-2.82463e-07
-7.9374e-07
-3.04007e-07
-7.26722e-07
-3.21301e-07
-6.56878e-07
-3.33868e-07
-5.85224e-07
-3.41263e-07
-5.12852e-07
-3.43091e-07
-4.40912e-07
-3.39028e-07
-3.70599e-07
-3.28844e-07
-3.03131e-07
-3.12432e-07
-2.3972e-07
-2.89845e-07
-1.81552e-07
-2.61329e-07
-1.29753e-07
-2.27375e-07
-8.53746e-08
-1.88769e-07
-4.93728e-08
-1.46654e-07
-2.26115e-08
-1.02592e-07
-5.88738e-09
-5.86087e-08
-1.7402e-08
-6.98923e-09
2.51832e-08
-2.65889e-08
7.99591e-08
-5.75774e-08
1.35689e-07
-9.87821e-08
1.89797e-07
-1.49022e-07
2.40353e-07
-2.07087e-07
2.85887e-07
-2.71729e-07
3.25349e-07
-3.41674e-07
3.58048e-07
-4.15632e-07
3.83598e-07
-4.9232e-07
4.01853e-07
-5.70478e-07
4.12863e-07
-6.48886e-07
4.16828e-07
-7.26382e-07
4.14063e-07
-8.0187e-07
4.04963e-07
-8.74332e-07
3.89981e-07
-9.42832e-07
3.69605e-07
-1.00652e-06
3.44343e-07
-1.06464e-06
3.14711e-07
-1.11651e-06
2.81223e-07
-1.16155e-06
2.4439e-07
-1.19927e-06
2.04709e-07
-1.22925e-06
1.62673e-07
-1.25116e-06
1.18763e-07
-1.26475e-06
7.3458e-08
-1.26987e-06
2.72351e-08
-1.26643e-06
-1.94247e-08
-1.25444e-06
-6.60324e-08
-1.23399e-06
-1.12086e-07
-1.20526e-06
-1.57068e-07
-1.16854e-06
-2.00441e-07
-1.12418e-06
-2.41649e-07
-1.07267e-06
-2.80115e-07
-1.01459e-06
-3.15247e-07
-9.50611e-07
-3.46441e-07
-8.81528e-07
-3.73091e-07
-8.08232e-07
-3.94597e-07
-7.31717e-07
-4.10383e-07
-6.5307e-07
-4.19909e-07
-5.73464e-07
-4.22697e-07
-4.94139e-07
-4.18353e-07
-4.1639e-07
-4.06593e-07
-3.41544e-07
-3.87279e-07
-2.70936e-07
-3.60453e-07
-2.05888e-07
-3.26377e-07
-1.47684e-07
-2.8558e-07
-9.75464e-08
-2.38906e-07
-5.66335e-08
-1.87567e-07
-2.60364e-08
-1.33189e-07
-6.80389e-09
-7.78412e-08
-2.42059e-08
-7.87178e-09
3.3055e-08
-2.99065e-08
1.01994e-07
-6.46373e-08
1.7042e-07
-1.10646e-07
2.35806e-07
-1.66526e-07
2.96233e-07
-2.30861e-07
3.50222e-07
-3.02225e-07
3.96712e-07
-3.79184e-07
4.35008e-07
-4.60315e-07
4.64728e-07
-5.44214e-07
4.85752e-07
-6.29518e-07
4.98166e-07
-7.14917e-07
5.02227e-07
-7.99169e-07
4.98315e-07
-8.81109e-07
4.86903e-07
-9.59659e-07
4.68531e-07
-1.03383e-06
4.43777e-07
-1.10273e-06
4.13243e-07
-1.16556e-06
3.77539e-07
-1.22161e-06
3.37275e-07
-1.27027e-06
2.93051e-07
-1.31102e-06
2.45459e-07
-1.34343e-06
1.95078e-07
-1.36714e-06
1.42478e-07
-1.38191e-06
8.82233e-08
-1.38755e-06
3.28769e-08
-1.38398e-06
-2.29938e-08
-1.3712e-06
-7.88117e-08
-1.3493e-06
-1.33984e-07
-1.31847e-06
-1.879e-07
-1.27899e-06
-2.39924e-07
-1.23124e-06
-2.89398e-07
-1.17572e-06
-3.35639e-07
-1.11302e-06
-3.77945e-07
-1.04386e-06
-4.15599e-07
-9.6907e-07
-4.47881e-07
-8.8959e-07
-4.74077e-07
-8.06473e-07
-4.935e-07
-7.20874e-07
-5.05508e-07
-6.34046e-07
-5.09526e-07
-5.47321e-07
-5.05077e-07
-4.621e-07
-4.91814e-07
-3.79827e-07
-4.69552e-07
-3.0197e-07
-4.38309e-07
-2.30001e-07
-3.98346e-07
-1.65367e-07
-3.50214e-07
-1.09479e-07
-2.94794e-07
-6.36985e-08
-2.33348e-07
-2.93367e-08
-1.67551e-07
-7.6745e-09
-9.95034e-08
-3.18804e-08
-8.72539e-09
4.17804e-08
-3.3144e-08
1.26412e-07
-7.15708e-08
2.08846e-07
-1.2236e-07
2.86595e-07
-1.83883e-07
3.57755e-07
-2.54518e-07
4.20858e-07
-3.32653e-07
4.74847e-07
-4.1669e-07
5.19045e-07
-5.05058e-07
5.53096e-07
-5.96228e-07
5.76921e-07
-6.88726e-07
5.90665e-07
-7.81149e-07
5.9465e-07
-8.72173e-07
5.89339e-07
-9.60566e-07
5.75296e-07
-1.04519e-06
5.53155e-07
-1.12501e-06
5.23596e-07
-1.19909e-06
4.87321e-07
-1.26659e-06
4.45043e-07
-1.32679e-06
3.97471e-07
-1.37904e-06
3.45303e-07
-1.4228e-06
2.89224e-07
-1.45763e-06
2.29907e-07
-1.48316e-06
1.68011e-07
-1.49913e-06
1.04189e-07
-1.50534e-06
3.90904e-08
-1.50171e-06
-2.66279e-08
-1.48822e-06
-9.22991e-08
-1.46497e-06
-1.57238e-07
-1.43213e-06
-2.20737e-07
-1.39e-06
-2.8206e-07
-1.33895e-06
-3.40441e-07
-1.27951e-06
-3.95086e-07
-1.21227e-06
-4.45177e-07
-1.13799e-06
-4.89877e-07
-1.05753e-06
-5.28342e-07
-9.71875e-07
-5.59735e-07
-8.8213e-07
-5.83246e-07
-7.89522e-07
-5.98116e-07
-6.95384e-07
-6.03663e-07
-6.01148e-07
-5.99313e-07
-5.08323e-07
-5.84639e-07
-4.18483e-07
-5.59392e-07
-3.3324e-07
-5.23552e-07
-2.54225e-07
-4.77361e-07
-1.83066e-07
-4.21373e-07
-1.21367e-07
-3.56493e-07
-7.06957e-08
-2.84019e-07
-3.25821e-08
-2.05664e-07
-8.52207e-09
-1.23564e-07
-4.04025e-08
-9.57008e-09
5.13505e-08
-3.6365e-08
1.53207e-07
-7.84982e-08
2.5098e-07
-1.34105e-07
3.42203e-07
-2.0134e-07
4.2499e-07
-2.78373e-07
4.97891e-07
-3.63399e-07
5.59873e-07
-4.54646e-07
6.10292e-07
-5.50389e-07
6.4884e-07
-6.48964e-07
6.75497e-07
-7.48782e-07
6.90482e-07
-8.48338e-07
6.94206e-07
-9.46227e-07
6.87228e-07
-1.04115e-06
6.70215e-07
-1.1319e-06
6.4391e-07
-1.21741e-06
6.09102e-07
-1.29669e-06
5.66607e-07
-1.36889e-06
5.17244e-07
-1.43325e-06
4.61829e-07
-1.48911e-06
4.01162e-07
-1.53591e-06
3.36027e-07
-1.5732e-06
2.67189e-07
-1.60059e-06
1.95401e-07
-1.6178e-06
1.21404e-07
-1.62465e-06
4.5937e-08
-1.62102e-06
-3.02554e-08
-1.60691e-06
-1.06415e-07
-1.58238e-06
-1.81764e-07
-1.54762e-06
-2.55495e-07
-1.50291e-06
-3.26768e-07
-1.44865e-06
-3.94707e-07
-1.38533e-06
-4.58403e-07
-1.31359e-06
-5.16913e-07
-1.2342e-06
-5.69272e-07
-1.14804e-06
-6.14503e-07
-1.05614e-06
-6.51634e-07
-9.59665e-07
-6.7972e-07
-8.5991e-07
-6.97871e-07
-7.58294e-07
-7.05279e-07
-6.56347e-07
-7.0126e-07
-5.55701e-07
-6.85285e-07
-4.58065e-07
-6.57028e-07
-3.65211e-07
-6.16407e-07
-2.78942e-07
-5.6363e-07
-2.01076e-07
-4.99238e-07
-1.33423e-07
-4.24146e-07
-7.77651e-08
-3.39677e-07
-3.58459e-08
-2.47583e-07
-9.36922e-09
-1.5004e-07
-4.97717e-08
-1.04249e-08
6.17754e-08
-3.96328e-08
1.82415e-07
-8.55418e-08
2.96889e-07
-1.46072e-07
4.02733e-07
-2.19159e-07
4.98076e-07
-3.02759e-07
5.81491e-07
-3.94867e-07
6.51982e-07
-4.93528e-07
7.08953e-07
-5.96854e-07
7.52165e-07
-7.03037e-07
7.81679e-07
-8.10363e-07
7.97809e-07
-9.17226e-07
8.01069e-07
-1.02213e-06
7.92135e-07
-1.12371e-06
7.71792e-07
-1.22071e-06
7.40906e-07
-1.31199e-06
7.00389e-07
-1.39656e-06
6.51177e-07
-1.47353e-06
5.94207e-07
-1.5421e-06
5.30406e-07
-1.60162e-06
4.60682e-07
-1.65151e-06
3.85919e-07
-1.69131e-06
3.0698e-07
-1.72061e-06
2.24709e-07
-1.73915e-06
1.39937e-07
-1.7467e-06
5.34907e-08
-1.74316e-06
-3.37969e-08
-1.7285e-06
-1.21078e-07
-1.70278e-06
-2.07479e-07
-1.66618e-06
-2.92095e-07
-1.61897e-06
-3.73981e-07
-1.56153e-06
-4.52147e-07
-1.49437e-06
-5.25561e-07
-1.41813e-06
-5.93152e-07
-1.33359e-06
-6.53818e-07
-1.24165e-06
-7.06436e-07
-1.1434e-06
-7.49889e-07
-1.04004e-06
-7.83081e-07
-9.32934e-07
-8.04973e-07
-8.23596e-07
-8.14617e-07
-7.13664e-07
-8.11192e-07
-6.04897e-07
-7.94052e-07
-4.99154e-07
-7.62771e-07
-3.98375e-07
-7.17186e-07
-3.04553e-07
-6.57452e-07
-2.19712e-07
-5.8408e-07
-1.45876e-07
-4.97982e-07
-8.50516e-08
-4.00502e-07
-3.9202e-08
-2.93433e-07
-1.02379e-08
-1.79004e-07
-6.00096e-08
-1.13078e-08
7.30831e-08
-4.30087e-08
2.14116e-07
-9.28226e-08
3.46702e-07
-1.5845e-07
4.68361e-07
-2.37601e-07
5.77227e-07
-3.28011e-07
6.71901e-07
-4.27464e-07
7.51435e-07
-5.33812e-07
8.15301e-07
-6.44993e-07
8.63346e-07
-7.59046e-07
8.95733e-07
-8.74129e-07
9.12891e-07
-9.88524e-07
9.15465e-07
-1.10065e-06
9.04259e-07
-1.20906e-06
8.80201e-07
-1.31244e-06
8.44292e-07
-1.40964e-06
7.97583e-07
-1.4996e-06
7.41139e-07
-1.58142e-06
6.76023e-07
-1.65429e-06
6.03283e-07
-1.71755e-06
5.23936e-07
-1.7706e-06
4.38973e-07
-1.81297e-06
3.49352e-07
-1.84427e-06
2.56011e-07
-1.8642e-06
1.59867e-07
-1.87255e-06
6.18362e-08
-1.86918e-06
-3.7164e-08
-1.85406e-06
-1.36197e-07
-1.82725e-06
-2.34297e-07
-1.78888e-06
-3.3046e-07
-1.73923e-06
-4.23633e-07
-1.67866e-06
-5.12712e-07
-1.60769e-06
-5.9654e-07
-1.52693e-06
-6.73908e-07
-1.43718e-06
-7.43567e-07
-1.33938e-06
-8.04242e-07
-1.23461e-06
-8.5465e-07
-1.12417e-06
-8.9353e-07
-1.00946e-06
-9.19676e-07
-8.92105e-07
-9.31974e-07
-7.73847e-07
-9.2945e-07
-6.56585e-07
-9.11314e-07
-5.42341e-07
-8.77015e-07
-4.33239e-07
-8.26289e-07
-3.31475e-07
-7.59215e-07
-2.39296e-07
-6.7626e-07
-1.58957e-07
-5.7832e-07
-9.27012e-08
-4.66758e-07
-4.27237e-08
-3.4341e-07
-1.11494e-08
-2.10579e-07
-7.1159e-08
-1.22356e-08
8.53188e-08
-4.65518e-08
2.48432e-07
-1.00459e-07
4.00609e-07
-1.71426e-07
5.39329e-07
-2.56926e-07
6.62727e-07
-3.54461e-07
7.69436e-07
-4.61592e-07
8.58565e-07
-5.75964e-07
9.29674e-07
-6.95331e-07
9.82713e-07
-8.17571e-07
1.01797e-06
-9.40703e-07
1.03602e-06
-1.06289e-06
1.03766e-06
-1.18247e-06
1.02384e-06
-1.29792e-06
9.95645e-07
-1.40787e-06
9.54242e-07
-1.51111e-06
9.00828e-07
-1.60659e-06
8.36613e-07
-1.69336e-06
7.62797e-07
-1.77063e-06
6.8055e-07
-1.8377e-06
5.91008e-07
-1.89399e-06
4.95267e-07
-1.93902e-06
3.94385e-07
-1.9724e-06
2.89389e-07
-1.99382e-06
1.81284e-07
-2.00305e-06
7.10675e-08
-1.99996e-06
-4.02584e-08
-1.98448e-06
-1.51672e-07
-1.95666e-06
-2.62119e-07
-1.91662e-06
-3.70497e-07
-1.86461e-06
-4.75648e-07
-1.80097e-06
-5.76349e-07
-1.72619e-06
-6.71315e-07
-1.64091e-06
-7.59193e-07
-1.5459e-06
-8.38579e-07
-1.44211e-06
-9.08028e-07
-1.33068e-06
-9.66082e-07
-1.21292e-06
-1.01129e-06
-1.09033e-06
-1.04226e-06
-9.64606e-07
-1.0577e-06
-8.37625e-07
-1.05643e-06
-7.1143e-07
-1.03751e-06
-5.88217e-07
-1.00023e-06
-4.70308e-07
-9.44197e-07
-3.60124e-07
-8.69398e-07
-2.6015e-07
-7.76233e-07
-1.72896e-07
-6.65574e-07
-1.00859e-07
-5.38795e-07
-4.64832e-08
-3.97786e-07
-1.21242e-08
-2.44938e-07
-8.32831e-08
-1.32246e-08
9.85435e-08
-5.03186e-08
2.85526e-07
-1.08563e-07
4.58854e-07
-1.8518e-07
6.15946e-07
-2.77386e-07
7.54933e-07
-3.82431e-07
8.74481e-07
-4.97637e-07
9.73772e-07
-6.20431e-07
1.05247e-06
-7.48367e-07
1.11065e-06
-8.79153e-07
1.14876e-06
-1.01066e-06
1.16753e-06
-1.14094e-06
1.16794e-06
-1.26822e-06
1.15112e-06
-1.39091e-06
1.11834e-06
-1.5076e-06
1.07093e-06
-1.61705e-06
1.01027e-06
-1.71816e-06
9.37721e-07
-1.80999e-06
8.54626e-07
-1.89173e-06
7.62293e-07
-1.9627e-06
6.61975e-07
-2.02231e-06
5.54877e-07
-2.07008e-06
4.42156e-07
-2.10561e-06
3.24927e-07
-2.12861e-06
2.04278e-07
-2.13883e-06
8.12854e-08
-2.13611e-06
-4.29713e-08
-2.1204e-06
-1.6739e-07
-2.09168e-06
-2.90831e-07
-2.05008e-06
-4.12097e-07
-1.9958e-06
-5.29928e-07
-1.92917e-06
-6.42982e-07
-1.85065e-06
-7.49839e-07
-1.76084e-06
-8.49e-07
-1.66052e-06
-9.38894e-07
-1.55066e-06
-1.0179e-06
-1.43239e-06
-1.08435e-06
-1.30708e-06
-1.1366e-06
-1.1763e-06
-1.17304e-06
-1.04184e-06
-1.19216e-06
-9.05699e-07
-1.19257e-06
-7.70077e-07
-1.17313e-06
-6.37358e-07
-1.13295e-06
-5.10082e-07
-1.07147e-06
-3.90913e-07
-9.88568e-07
-2.82598e-07
-8.84549e-07
-1.87924e-07
-7.60248e-07
-1.09669e-07
-6.1705e-07
-5.05513e-08
-4.56904e-07
-1.31823e-08
-2.82307e-07
-9.64654e-08
-1.42901e-08
1.12834e-07
-5.43633e-08
3.256e-07
-1.17246e-07
5.21737e-07
-1.99886e-07
6.98585e-07
-2.9922e-07
8.54267e-07
-4.12227e-07
9.87487e-07
-5.35968e-07
1.09751e-06
-6.67632e-07
1.18413e-06
-8.04563e-07
1.24758e-06
-9.44284e-07
1.28848e-06
-1.08452e-06
1.30776e-06
-1.22318e-06
1.3066e-06
-1.35842e-06
1.28636e-06
-1.48857e-06
1.24849e-06
-1.61217e-06
1.19453e-06
-1.72794e-06
1.12604e-06
-1.83478e-06
1.04456e-06
-1.93175e-06
9.51591e-07
-2.01803e-06
8.48574e-07
-2.09295e-06
7.36894e-07
-2.15593e-06
6.17861e-07
-2.2065e-06
4.9273e-07
-2.24428e-06
3.62701e-07
-2.26894e-06
2.28939e-07
-2.28025e-06
9.25943e-08
-2.27803e-06
-4.51839e-08
-2.2622e-06
-1.8322e-07
-2.23274e-06
-3.20295e-07
-2.18971e-06
-4.55124e-07
-2.1333e-06
-5.86343e-07
-2.06378e-06
-7.12497e-07
-1.98159e-06
-8.32029e-07
-1.88731e-06
-9.43286e-07
-1.78168e-06
-1.04452e-06
-1.66566e-06
-1.13391e-06
-1.54042e-06
-1.20959e-06
-1.40734e-06
-1.26968e-06
-1.26807e-06
-1.31232e-06
-1.12449e-06
-1.33574e-06
-9.78721e-07
-1.33834e-06
-8.33137e-07
-1.31872e-06
-6.9032e-07
-1.27576e-06
-5.53046e-07
-1.20875e-06
-4.24245e-07
-1.11737e-06
-3.06953e-07
-1.00184e-06
-2.04265e-07
-8.62936e-07
-1.19272e-07
-7.02044e-07
-5.49982e-08
-5.21177e-07
-1.43435e-08
-3.22961e-07
-1.10809e-07
-1.54469e-08
1.2828e-07
-5.87384e-08
3.68891e-07
-1.26612e-07
5.89611e-07
-2.1571e-07
7.87683e-07
-3.2266e-07
9.61217e-07
-4.44139e-07
1.10897e-06
-5.76926e-07
1.2303e-06
-7.17952e-07
1.32516e-06
-8.64333e-07
1.39396e-06
-1.0134e-06
1.43754e-06
-1.16271e-06
1.45707e-06
-1.31006e-06
1.45395e-06
-1.45349e-06
1.42979e-06
-1.59127e-06
1.38627e-06
-1.72191e-06
1.32517e-06
-1.8441e-06
1.24823e-06
-1.95673e-06
1.15719e-06
-2.05887e-06
1.05372e-06
-2.14971e-06
9.39419e-07
-2.2286e-06
8.15785e-07
-2.29499e-06
6.84245e-07
-2.3484e-06
5.46145e-07
-2.38847e-06
4.02767e-07
-2.41488e-06
2.55348e-07
-2.42738e-06
1.05098e-07
-2.4258e-06
-4.67683e-08
-2.41e-06
-1.99013e-07
-2.37995e-06
-3.50345e-07
-2.33567e-06
-4.99401e-07
-2.2773e-06
-6.4472e-07
-2.20506e-06
-7.84732e-07
-2.11934e-06
-9.17747e-07
-2.02068e-06
-1.04195e-06
-1.90979e-06
-1.15541e-06
-1.78761e-06
-1.2561e-06
-1.6553e-06
-1.34191e-06
-1.51427e-06
-1.4107e-06
-1.36623e-06
-1.46036e-06
-1.21315e-06
-1.48882e-06
-1.05728e-06
-1.4942e-06
-9.01175e-07
-1.47482e-06
-7.47626e-07
-1.42931e-06
-5.99664e-07
-1.35671e-06
-4.6051e-07
-1.25652e-06
-3.33525e-07
-1.12883e-06
-2.22144e-07
-9.74317e-07
-1.29809e-07
-7.94379e-07
-5.9893e-08
-5.91093e-07
-1.56273e-08
-3.67227e-07
-1.26436e-07
-1.67094e-08
1.4499e-07
-6.34944e-08
4.15676e-07
-1.36763e-07
6.6288e-07
-2.32812e-07
8.83731e-07
-3.47922e-07
1.07633e-06
-4.78436e-07
1.23948e-06
-6.20824e-07
1.37269e-06
-7.71734e-07
1.47607e-06
-9.28035e-07
1.55026e-06
-1.08685e-06
1.59636e-06
-1.24557e-06
1.61579e-06
-1.40187e-06
1.61025e-06
-1.55369e-06
1.58161e-06
-1.69925e-06
1.53183e-06
-1.83699e-06
1.46292e-06
-1.96563e-06
1.37687e-06
-2.08405e-06
1.27561e-06
-2.19132e-06
1.161e-06
-2.2867e-06
1.03479e-06
-2.36952e-06
8.98614e-07
-2.43929e-06
7.54006e-07
-2.49554e-06
6.02402e-07
-2.53793e-06
4.45156e-07
-2.56615e-06
2.83565e-07
-2.57995e-06
1.18896e-07
-2.57913e-06
-4.75889e-08
-2.56354e-06
-2.14599e-07
-2.5331e-06
-3.80784e-07
-2.48779e-06
-5.44709e-07
-2.42769e-06
-7.04828e-07
-2.35296e-06
-8.59459e-07
-2.26393e-06
-1.00678e-06
-2.16107e-06
-1.14481e-06
-2.04505e-06
-1.27143e-06
-1.91676e-06
-1.38438e-06
-1.77735e-06
-1.48131e-06
-1.62826e-06
-1.55979e-06
-1.47123e-06
-1.61739e-06
-1.3083e-06
-1.65175e-06
-1.14189e-06
-1.66062e-06
-9.74695e-07
-1.64202e-06
-8.09753e-07
-1.59426e-06
-6.50368e-07
-1.51609e-06
-5.00082e-07
-1.40681e-06
-3.62612e-07
-1.2663e-06
-2.41776e-07
-1.09515e-06
-1.41417e-07
-8.94739e-07
-6.53046e-08
-6.67205e-07
-1.70532e-08
-4.15479e-07
-1.43489e-07
-1.80917e-08
1.63082e-07
-6.86808e-08
4.66265e-07
-1.47797e-07
7.41996e-07
-2.51342e-07
9.87276e-07
-3.75209e-07
1.20019e-06
-5.15367e-07
1.37964e-06
-6.67941e-07
1.52526e-06
-8.29271e-07
1.6374e-06
-9.95961e-07
1.71695e-06
-1.16491e-06
1.76531e-06
-1.33335e-06
1.78423e-06
-1.49881e-06
1.77571e-06
-1.65914e-06
1.74195e-06
-1.81252e-06
1.6852e-06
-1.95737e-06
1.60777e-06
-2.09239e-06
1.51189e-06
-2.2165e-06
1.39972e-06
-2.3288e-06
1.27331e-06
-2.42858e-06
1.13457e-06
-2.51524e-06
9.85271e-07
-2.58829e-06
8.27057e-07
-2.64733e-06
6.61444e-07
-2.69203e-06
4.89852e-07
-2.72209e-06
3.13627e-07
-2.73727e-06
1.34075e-07
-2.73735e-06
-4.75054e-08
-2.72217e-06
-2.29786e-07
-2.69158e-06
-4.11374e-07
-2.64551e-06
-5.90775e-07
-2.58397e-06
-7.66365e-07
-2.50707e-06
-9.36365e-07
-2.41503e-06
-1.09882e-06
-2.30825e-06
-1.25159e-06
-2.18733e-06
-1.39235e-06
-2.05311e-06
-1.5186e-06
-1.9067e-06
-1.62772e-06
-1.74953e-06
-1.71697e-06
-1.58335e-06
-1.78357e-06
-1.41032e-06
-1.82478e-06
-1.23294e-06
-1.838e-06
-1.05412e-06
-1.82084e-06
-8.77125e-07
-1.77125e-06
-7.05557e-07
-1.68766e-06
-5.4331e-07
-1.56905e-06
-3.94499e-07
-1.41511e-06
-2.63375e-07
-1.22628e-06
-1.54232e-07
-1.00388e-06
-7.13015e-08
-7.50135e-07
-1.86409e-08
-4.68139e-07
-1.6213e-07
-1.96079e-08
1.82689e-07
-7.43461e-08
5.21003e-07
-1.59807e-07
8.27457e-07
-2.71445e-07
1.09891e-06
-4.0471e-07
1.33346e-06
-5.55154e-07
1.53008e-06
-7.18517e-07
1.68863e-06
-8.90801e-07
1.80968e-06
-1.06833e-06
1.89448e-06
-1.24776e-06
1.94475e-06
-1.42614e-06
1.96261e-06
-1.60089e-06
1.95046e-06
-1.76977e-06
1.91083e-06
-1.93091e-06
1.84634e-06
-2.08274e-06
1.75959e-06
-2.22396e-06
1.65311e-06
-2.35355e-06
1.5293e-06
-2.47065e-06
1.39041e-06
-2.5746e-06
1.23852e-06
-2.66488e-06
1.07555e-06
-2.74104e-06
9.03222e-07
-2.80274e-06
7.23145e-07
-2.84968e-06
5.36787e-07
-2.88158e-06
3.45531e-07
-2.89821e-06
1.50704e-07
-2.89934e-06
-4.63766e-08
-2.88476e-06
-2.44363e-07
-2.8543e-06
-4.41836e-07
-2.80782e-06
-6.3726e-07
-2.74523e-06
-8.28951e-07
-2.66656e-06
-1.01504e-06
-2.57193e-06
-1.19345e-06
-2.46165e-06
-1.36187e-06
-2.33621e-06
-1.51779e-06
-2.19637e-06
-1.65844e-06
-2.04317e-06
-1.78091e-06
-1.87802e-06
-1.88212e-06
-1.70269e-06
-1.9589e-06
-1.51938e-06
-2.0081e-06
-1.33071e-06
-2.02666e-06
-1.13978e-06
-2.01177e-06
-9.50093e-07
-1.96094e-06
-7.65579e-07
-1.87218e-06
-5.90515e-07
-1.74412e-06
-4.29456e-07
-1.57617e-06
-2.87144e-07
-1.36859e-06
-1.68389e-07
-1.12264e-06
-7.79522e-08
-8.40573e-07
-2.04103e-08
-5.25681e-07
-1.82541e-07
-2.12724e-08
2.03962e-07
-8.05387e-08
5.8027e-07
-1.72888e-07
9.19806e-07
-2.93259e-07
1.21929e-06
-4.36602e-07
1.4768e-06
-5.97994e-07
1.69148e-06
-7.72749e-07
1.86338e-06
-9.56499e-07
1.99343e-06
-1.14525e-06
2.08323e-06
-1.33543e-06
2.13493e-06
-1.5239e-06
2.15108e-06
-1.70795e-06
2.1345e-06
-1.88527e-06
2.08816e-06
-2.05398e-06
2.01504e-06
-2.2125e-06
1.91812e-06
-2.3596e-06
1.80021e-06
-2.49429e-06
1.66399e-06
-2.61581e-06
1.51193e-06
-2.72358e-06
1.34629e-06
-2.81713e-06
1.1691e-06
-2.89613e-06
9.82216e-07
-2.96027e-06
7.87284e-07
-3.0093e-06
5.8582e-07
-3.04299e-06
3.79221e-07
-3.06111e-06
1.68821e-07
-3.06342e-06
-4.40661e-08
-3.04968e-06
-2.58096e-07
-3.01967e-06
-4.71845e-07
-2.97318e-06
-6.83759e-07
-2.91002e-06
-8.92109e-07
-2.8301e-06
-1.09495e-06
-2.73345e-06
-1.2901e-06
-2.62023e-06
-1.4751e-06
-2.49081e-06
-1.6472e-06
-2.34584e-06
-1.80342e-06
-2.18627e-06
-1.94048e-06
-2.01343e-06
-2.05495e-06
-1.82909e-06
-2.14324e-06
-1.63547e-06
-2.20171e-06
-1.43531e-06
-2.22682e-06
-1.23187e-06
-2.21521e-06
-1.02892e-06
-2.16389e-06
-8.30726e-07
-2.07037e-06
-6.41981e-07
-1.93286e-06
-4.67735e-07
-1.75041e-06
-3.1328e-07
-1.52304e-06
-1.8402e-07
-1.2519e-06
-8.53254e-08
-9.39267e-07
-2.23817e-08
-5.88625e-07
-2.04922e-07
-2.30996e-08
2.27061e-07
-8.73073e-08
6.44477e-07
-1.8713e-07
1.01963e-06
-3.16917e-07
1.34907e-06
-4.71042e-07
1.63093e-06
-6.44052e-07
1.86449e-06
-8.30785e-07
2.05011e-06
-1.02646e-06
2.18911e-06
-1.22676e-06
2.28353e-06
-1.42785e-06
2.33602e-06
-1.6264e-06
2.34963e-06
-1.8196e-06
2.3277e-06
-2.00509e-06
2.27365e-06
-2.18097e-06
2.19092e-06
-2.34572e-06
2.08287e-06
-2.49817e-06
1.95265e-06
-2.63741e-06
1.80323e-06
-2.76279e-06
1.63732e-06
-2.87383e-06
1.45733e-06
-2.97019e-06
1.26546e-06
-3.05159e-06
1.06362e-06
-3.11784e-06
8.5353e-07
-3.16874e-06
6.36717e-07
-3.20409e-06
4.14579e-07
-3.2237e-06
1.88428e-07
-3.22732e-06
-4.0448e-08
-3.21468e-06
-2.70736e-07
-3.18549e-06
-5.01031e-07
-3.13947e-06
-7.29787e-07
-3.07632e-06
-9.55256e-07
-2.99583e-06
-1.17544e-06
-2.89787e-06
-1.38806e-06
-2.78245e-06
-1.59051e-06
-2.6498e-06
-1.77985e-06
-2.5004e-06
-1.95281e-06
-2.33509e-06
-2.1058e-06
-2.15508e-06
-2.23496e-06
-1.96208e-06
-2.33623e-06
-1.75834e-06
-2.40546e-06
-1.54666e-06
-2.43851e-06
-1.33046e-06
-2.43141e-06
-1.11377e-06
-2.38057e-06
-9.01217e-07
-2.28292e-06
-6.9795e-07
-2.13613e-06
-5.09563e-07
-1.9388e-06
-3.4197e-07
-1.69064e-06
-2.01253e-07
-1.39261e-06
-9.34901e-08
-1.04703e-06
-2.45758e-08
-6.57539e-07
-2.29498e-07
-2.5105e-08
2.52166e-07
-9.47027e-08
7.14075e-07
-2.02627e-07
1.12755e-06
-3.42545e-07
1.48899e-06
-5.08178e-07
1.79656e-06
-6.93467e-07
2.04978e-06
-8.92718e-07
2.24936e-06
-1.10071e-06
2.3971e-06
-1.31275e-06
2.49557e-06
-1.52475e-06
2.54802e-06
-1.73322e-06
2.5581e-06
-1.93522e-06
2.5297e-06
-2.12838e-06
2.46681e-06
-2.31082e-06
2.37336e-06
-2.48108e-06
2.25313e-06
-2.63811e-06
2.10968e-06
-2.78112e-06
1.94625e-06
-2.90959e-06
1.76579e-06
-3.02318e-06
1.57092e-06
-3.12166e-06
1.36394e-06
-3.20489e-06
1.14686e-06
-3.27278e-06
9.21413e-07
-3.3252e-06