/*--------------------------------*- C++ -*----------------------------------*\
  =========                 |
  \\      /  F ield         | OpenFOAM: The Open Source CFD Toolbox
   \\    /   O peration     | Website:  https://openfoam.org
    \\  /    A nd           | Version:  7
     \\/     M anipulation  |
\*---------------------------------------------------------------------------*/
FoamFile
{
    version     2.0;
    format      ascii;
    class       volScalarField;
    location    "0.0642";
    object      p;
}
// * * * * * * * * * * * * * * * * * * * * * * * * * * * * * * * * * * * * * //

dimensions      [0 2 -2 0 0 0 0];

internalField   nonuniform List<scalar> 
2500
(
2.99721e-05
-6.51211
-9.29762
-10.494
-11.1599
-11.5667
-11.831
-12.0162
-12.1545
-12.2621
-12.3482
-12.4187
-12.4773
-12.5263
-12.5678
-12.603
-12.633
-12.6585
-12.6802
-12.6985
-12.7141
-12.7272
-12.7382
-12.7475
-12.7553
-12.762
-12.768
-12.7735
-12.7789
-12.7846
-12.791
-12.7985
-12.8077
-12.8191
-12.8335
-12.8516
-12.8745
-12.9035
-12.9403
-12.9872
-13.0478
-13.1272
-13.2341
-13.3841
-13.6081
-13.9668
-14.5673
-15.6687
-18.3361
-24.7208
-4.95527
-7.67544
-9.18251
-10.143
-10.8113
-11.2719
-11.594
-11.8279
-12.0039
-12.1402
-12.2484
-12.3361
-12.4082
-12.4684
-12.5191
-12.5621
-12.5987
-12.6301
-12.657
-12.6802
-12.7002
-12.7175
-12.7325
-12.7456
-12.7573
-12.7679
-12.7777
-12.7872
-12.7967
-12.8068
-12.8178
-12.8304
-12.8451
-12.8627
-12.884
-12.9102
-12.9426
-12.9831
-13.0339
-13.0985
-13.1816
-13.2906
-13.4362
-13.6361
-13.9193
-14.3336
-14.9441
-15.8327
-17.2529
-19.8519
-7.92438
-8.75711
-9.55844
-10.2398
-10.7805
-11.1911
-11.5012
-11.7386
-11.9232
-12.0694
-12.1871
-12.2832
-12.3629
-12.4296
-12.486
-12.534
-12.5752
-12.6106
-12.6413
-12.6679
-12.6911
-12.7115
-12.7295
-12.7455
-12.76
-12.7735
-12.7862
-12.7986
-12.8112
-12.8244
-12.8388
-12.8549
-12.8735
-12.8954
-12.9214
-12.9529
-12.9913
-13.0386
-13.0973
-13.1708
-13.2641
-13.3837
-13.5394
-13.7447
-14.019
-14.3884
-14.8813
-15.5097
-16.2555
-17.0188
-9.43341
-9.6472
-10.0667
-10.5121
-10.9055
-11.2331
-11.5002
-11.7165
-11.892
-12.0354
-12.1536
-12.2519
-12.3344
-12.4043
-12.4638
-12.5149
-12.559
-12.5972
-12.6306
-12.6597
-12.6854
-12.7081
-12.7284
-12.7467
-12.7635
-12.7791
-12.7941
-12.8088
-12.8238
-12.8394
-12.8563
-12.8751
-12.8965
-12.9213
-12.9505
-12.9852
-13.0271
-13.0778
-13.1399
-13.2163
-13.3111
-13.4293
-13.5779
-13.765
-14.0003
-14.2931
-14.6491
-15.0554
-15.4379
-15.6157
-10.3185
-10.3185
-10.5229
-10.8001
-11.0753
-11.3258
-11.545
-11.7325
-11.8913
-12.0255
-12.139
-12.2354
-12.3176
-12.3882
-12.4491
-12.5018
-12.5477
-12.5879
-12.6231
-12.6542
-12.6818
-12.7064
-12.7285
-12.7487
-12.7674
-12.7849
-12.8017
-12.8183
-12.8352
-12.8528
-12.8717
-12.8924
-12.9159
-12.9427
-12.9739
-13.0106
-13.0541
-13.1061
-13.1686
-13.244
-13.3353
-13.446
-13.5801
-13.7415
-13.9334
-14.1554
-14.4016
-14.6509
-14.8309
-14.8126
-10.8847
-10.8112
-10.9004
-11.0684
-11.2567
-11.4435
-11.6181
-11.7752
-11.914
-12.0352
-12.1406
-12.2321
-12.3117
-12.381
-12.4415
-12.4946
-12.5412
-12.5823
-12.6188
-12.6511
-12.68
-12.7061
-12.7297
-12.7513
-12.7714
-12.7903
-12.8086
-12.8267
-12.845
-12.864
-12.8843
-12.9065
-12.9312
-12.9591
-12.9913
-13.0286
-13.0723
-13.1236
-13.1842
-13.2558
-13.3404
-13.44
-13.5564
-13.6907
-13.842
-14.0058
-14.172
-14.3201
-14.394
-14.3125
-11.2664
-11.1762
-11.2071
-11.3066
-11.4336
-11.5704
-11.7064
-11.8351
-11.9533
-12.06
-12.1553
-12.2401
-12.3152
-12.3816
-12.4405
-12.4927
-12.5391
-12.5804
-12.6172
-12.6502
-12.68
-12.7069
-12.7314
-12.754
-12.7752
-12.7952
-12.8145
-12.8336
-12.8529
-12.8728
-12.894
-12.9169
-12.9422
-12.9705
-13.0027
-13.0396
-13.0821
-13.1313
-13.1883
-13.2543
-13.3304
-13.4174
-13.5157
-13.6246
-13.7412
-13.8595
-13.9697
-14.0552
-14.0766
-13.9844
-11.5393
-11.453
-11.4548
-11.512
-11.5966
-11.6957
-11.8003
-11.904
-12.0029
-12.0951
-12.1797
-12.2567
-12.3262
-12.3887
-12.4449
-12.4954
-12.5407
-12.5814
-12.618
-12.6511
-12.6811
-12.7085
-12.7335
-12.7568
-12.7785
-12.7992
-12.8191
-12.8388
-12.8587
-12.8791
-12.9006
-12.9238
-12.949
-12.9771
-13.0086
-13.0442
-13.0846
-13.1307
-13.1831
-13.2426
-13.3095
-13.384
-13.4655
-13.5522
-13.6407
-13.7252
-13.7971
-13.8446
-13.8411
-13.756
-11.745
-11.668
-11.6557
-11.6869
-11.7426
-11.8139
-11.8936
-11.9763
-12.0582
-12.1368
-12.2108
-12.2796
-12.3429
-12.4009
-12.4537
-12.5017
-12.5453
-12.5848
-12.6207
-12.6534
-12.6832
-12.7105
-12.7357
-12.7592
-12.7812
-12.8021
-12.8223
-12.8423
-12.8623
-12.8828
-12.9043
-12.9272
-12.952
-12.9792
-13.0094
-13.0432
-13.081
-13.1233
-13.1707
-13.2234
-13.2814
-13.3442
-13.4108
-13.4791
-13.5457
-13.6055
-13.6519
-13.6765
-13.6617
-13.588
-11.9063
-11.8392
-11.8205
-11.8356
-11.8717
-11.9226
-11.9832
-12.0487
-12.1157
-12.1821
-12.2461
-12.3069
-12.3639
-12.4168
-12.4658
-12.5109
-12.5523
-12.5902
-12.6249
-12.6567
-12.6859
-12.7128
-12.7378
-12.7611
-12.783
-12.8039
-12.8241
-12.8439
-12.8638
-12.8841
-12.9052
-12.9275
-12.9514
-12.9774
-13.006
-13.0374
-13.0722
-13.1107
-13.1529
-13.199
-13.2487
-13.3011
-13.3551
-13.4086
-13.4584
-13.5005
-13.5298
-13.5408
-13.5216
-13.4592
-12.0368
-11.9785
-11.9572
-11.9625
-11.9852
-12.0214
-12.0671
-12.1187
-12.1734
-12.2289
-12.2838
-12.3369
-12.3877
-12.4356
-12.4805
-12.5223
-12.5611
-12.597
-12.6301
-12.6607
-12.689
-12.7152
-12.7396
-12.7624
-12.7839
-12.8045
-12.8244
-12.8439
-12.8633
-12.8831
-12.9034
-12.9249
-12.9477
-12.9722
-12.9988
-13.0278
-13.0595
-13.094
-13.1313
-13.1712
-13.2134
-13.2569
-13.3004
-13.3421
-13.3793
-13.4088
-13.4268
-13.4298
-13.4096
-13.357
-12.1448
-12.094
-12.0721
-12.0714
-12.085
-12.1104
-12.1447
-12.1853
-12.2296
-12.2758
-12.3225
-12.3686
-12.4134
-12.4563
-12.497
-12.5354
-12.5714
-12.605
-12.6362
-12.6653
-12.6923
-12.7175
-12.741
-12.7631
-12.784
-12.804
-12.8232
-12.8421
-12.8609
-12.8799
-12.8994
-12.9197
-12.9411
-12.964
-12.9886
-13.0151
-13.0436
-13.0743
-13.1069
-13.1413
-13.1769
-13.2129
-13.2479
-13.2804
-13.3081
-13.3286
-13.3393
-13.3377
-13.3181
-13.2737
-12.2357
-12.1911
-12.1698
-12.1654
-12.1728
-12.1904
-12.2161
-12.2477
-12.2835
-12.3217
-12.3612
-12.4009
-12.4401
-12.4782
-12.5148
-12.5496
-12.5827
-12.6138
-12.6429
-12.6702
-12.6958
-12.7197
-12.7421
-12.7632
-12.7833
-12.8024
-12.8209
-12.8389
-12.8568
-12.8749
-12.8933
-12.9123
-12.9323
-12.9534
-12.9759
-12.9998
-13.0254
-13.0525
-13.0809
-13.1104
-13.1404
-13.17
-13.1982
-13.2235
-13.2442
-13.2584
-13.2642
-13.2602
-13.2419
-13.2044
-12.3133
-12.2741
-12.2538
-12.2473
-12.2505
-12.2623
-12.2814
-12.306
-12.3347
-12.3662
-12.3993
-12.4333
-12.4673
-12.5007
-12.5333
-12.5647
-12.5947
-12.6232
-12.6501
-12.6755
-12.6993
-12.7218
-12.7429
-12.7628
-12.7818
-12.7999
-12.8174
-12.8345
-12.8513
-12.8683
-12.8855
-12.9032
-12.9216
-12.9409
-12.9613
-12.9828
-13.0055
-13.0293
-13.0539
-13.0791
-13.1043
-13.1287
-13.1514
-13.1712
-13.1867
-13.1965
-13.1992
-13.194
-13.1774
-13.1457
-12.3803
-12.3457
-12.3267
-12.3191
-12.3194
-12.3271
-12.3411
-12.3601
-12.383
-12.4088
-12.4365
-12.4652
-12.4945
-12.5236
-12.5524
-12.5803
-12.6073
-12.6331
-12.6576
-12.6809
-12.703
-12.7238
-12.7434
-12.762
-12.7797
-12.7967
-12.813
-12.829
-12.8447
-12.8604
-12.8763
-12.8925
-12.9094
-12.9269
-12.9452
-12.9644
-12.9844
-13.0052
-13.0266
-13.048
-13.0692
-13.0893
-13.1076
-13.1231
-13.1348
-13.1415
-13.1423
-13.1366
-13.1219
-13.0951
-12.4387
-12.4082
-12.3907
-12.3825
-12.381
-12.3856
-12.3957
-12.4103
-12.4285
-12.4494
-12.4723
-12.4965
-12.5214
-12.5466
-12.5717
-12.5963
-12.6202
-12.6433
-12.6655
-12.6866
-12.7067
-12.7257
-12.7438
-12.7609
-12.7773
-12.7929
-12.808
-12.8227
-12.8371
-12.8515
-12.866
-12.8808
-12.896
-12.9117
-12.9281
-12.9451
-12.9627
-12.9808
-12.9991
-13.0174
-13.0351
-13.0517
-13.0666
-13.0788
-13.0877
-13.0922
-13.0919
-13.0863
-13.0735
-13.0509
-12.4901
-12.4633
-12.4473
-12.4391
-12.4363
-12.4387
-12.4458
-12.4569
-12.4712
-12.488
-12.5068
-12.5269
-12.548
-12.5695
-12.5911
-12.6125
-12.6335
-12.6539
-12.6736
-12.6925
-12.7106
-12.7278
-12.7441
-12.7597
-12.7745
-12.7888
-12.8025
-12.8158
-12.8289
-12.8419
-12.855
-12.8683
-12.8818
-12.8958
-12.9102
-12.9252
-12.9405
-12.9561
-12.9719
-12.9874
-13.0022
-13.016
-13.028
-13.0378
-13.0445
-13.0476
-13.0467
-13.0416
-13.0306
-13.0118
-12.5358
-12.5122
-12.4978
-12.4898
-12.4863
-12.4872
-12.492
-12.5002
-12.5113
-12.5247
-12.5399
-12.5565
-12.574
-12.5921
-12.6105
-12.6288
-12.647
-12.6648
-12.6821
-12.6987
-12.7147
-12.73
-12.7446
-12.7585
-12.7717
-12.7845
-12.7967
-12.8086
-12.8203
-12.8319
-12.8435
-12.8552
-12.8671
-12.8794
-12.892
-12.9049
-12.9182
-12.9316
-12.945
-12.958
-12.9705
-12.9819
-12.9917
-12.9995
-13.0047
-13.0069
-13.0058
-13.0013
-12.9921
-12.9766
-12.5767
-12.5561
-12.5433
-12.5357
-12.5319
-12.5317
-12.5348
-12.5407
-12.5491
-12.5596
-12.5717
-12.5851
-12.5995
-12.6145
-12.6298
-12.6453
-12.6608
-12.676
-12.6909
-12.7053
-12.7192
-12.7325
-12.7452
-12.7574
-12.769
-12.7802
-12.7909
-12.8013
-12.8115
-12.8216
-12.8316
-12.8418
-12.8521
-12.8626
-12.8735
-12.8845
-12.8958
-12.9072
-12.9185
-12.9295
-12.9398
-12.9492
-12.9573
-12.9635
-12.9677
-12.9693
-12.9683
-12.9645
-12.957
-12.9447
-12.6136
-12.5959
-12.5846
-12.5777
-12.5738
-12.5728
-12.5745
-12.5787
-12.5849
-12.5929
-12.6023
-12.6129
-12.6244
-12.6365
-12.6491
-12.6619
-12.6747
-12.6875
-12.7
-12.7122
-12.724
-12.7353
-12.7462
-12.7566
-12.7665
-12.7761
-12.7852
-12.7941
-12.8027
-12.8112
-12.8197
-12.8283
-12.837
-12.8458
-12.8549
-12.8642
-12.8736
-12.8831
-12.8925
-12.9016
-12.9101
-12.9178
-12.9244
-12.9295
-12.9329
-12.9342
-12.9334
-12.9304
-12.9247
-12.9151
-12.6473
-12.6322
-12.6225
-12.6163
-12.6125
-12.611
-12.6118
-12.6145
-12.6189
-12.6247
-12.6318
-12.6399
-12.6488
-12.6583
-12.6683
-12.6786
-12.6889
-12.6993
-12.7095
-12.7195
-12.7293
-12.7386
-12.7476
-12.7562
-12.7644
-12.7723
-12.7798
-12.787
-12.7941
-12.801
-12.8079
-12.8148
-12.8219
-12.829
-12.8364
-12.8439
-12.8515
-12.8592
-12.8669
-12.8742
-12.8812
-12.8874
-12.8928
-12.8969
-12.8997
-12.901
-12.9005
-12.8985
-12.8943
-12.8875
-12.6783
-12.6658
-12.6576
-12.6522
-12.6487
-12.6469
-12.6469
-12.6485
-12.6513
-12.6553
-12.6604
-12.6662
-12.6728
-12.6799
-12.6875
-12.6953
-12.7034
-12.7114
-12.7195
-12.7274
-12.735
-12.7424
-12.7495
-12.7563
-12.7628
-12.7689
-12.7747
-12.7803
-12.7858
-12.7911
-12.7963
-12.8016
-12.8069
-12.8124
-12.818
-12.8238
-12.8297
-12.8357
-12.8416
-12.8474
-12.8529
-12.8578
-12.8621
-12.8655
-12.8679
-12.8691
-12.8691
-12.868
-12.8655
-12.8612
-12.7072
-12.6972
-12.6905
-12.6859
-12.6828
-12.681
-12.6804
-12.681
-12.6825
-12.6849
-12.6881
-12.692
-12.6964
-12.7014
-12.7067
-12.7123
-12.7181
-12.724
-12.7298
-12.7357
-12.7413
-12.7468
-12.752
-12.757
-12.7617
-12.7661
-12.7702
-12.7741
-12.7778
-12.7815
-12.785
-12.7886
-12.7922
-12.7959
-12.7998
-12.8039
-12.808
-12.8123
-12.8166
-12.8209
-12.825
-12.8287
-12.8321
-12.8348
-12.8369
-12.8382
-12.8387
-12.8386
-12.8376
-12.8357
-12.7345
-12.7269
-12.7217
-12.718
-12.7153
-12.7135
-12.7125
-12.7123
-12.7127
-12.7137
-12.7153
-12.7173
-12.7198
-12.7227
-12.7259
-12.7294
-12.733
-12.7368
-12.7407
-12.7445
-12.7482
-12.7518
-12.7552
-12.7583
-12.7612
-12.7638
-12.7662
-12.7684
-12.7704
-12.7723
-12.7742
-12.776
-12.7778
-12.7798
-12.7819
-12.7841
-12.7865
-12.7891
-12.7918
-12.7946
-12.7973
-12.7999
-12.8024
-12.8045
-12.8063
-12.8078
-12.8089
-12.8097
-12.8102
-12.8108
-12.7606
-12.7553
-12.7516
-12.7489
-12.7467
-12.745
-12.7437
-12.7428
-12.7422
-12.7419
-12.7419
-12.7423
-12.743
-12.7439
-12.7452
-12.7466
-12.7483
-12.7501
-12.752
-12.7539
-12.7557
-12.7574
-12.7589
-12.7603
-12.7614
-12.7623
-12.7629
-12.7634
-12.7636
-12.7637
-12.7638
-12.7637
-12.7638
-12.7639
-12.7641
-12.7646
-12.7652
-12.766
-12.7671
-12.7683
-12.7697
-12.7712
-12.7727
-12.7742
-12.7758
-12.7774
-12.7791
-12.7808
-12.783
-12.7858
-12.7858
-12.783
-12.7808
-12.7791
-12.7774
-12.7758
-12.7742
-12.7727
-12.7712
-12.7697
-12.7683
-12.7671
-12.766
-12.7652
-12.7646
-12.7641
-12.7639
-12.7638
-12.7637
-12.7638
-12.7637
-12.7636
-12.7634
-12.7629
-12.7623
-12.7614
-12.7603
-12.7589
-12.7574
-12.7557
-12.7539
-12.752
-12.7501
-12.7483
-12.7466
-12.7452
-12.7439
-12.743
-12.7423
-12.7419
-12.7419
-12.7422
-12.7428
-12.7437
-12.745
-12.7467
-12.7489
-12.7516
-12.7553
-12.7606
-12.8108
-12.8103
-12.8097
-12.8089
-12.8078
-12.8063
-12.8045
-12.8024
-12.7999
-12.7973
-12.7946
-12.7918
-12.7891
-12.7866
-12.7841
-12.7819
-12.7798
-12.7778
-12.776
-12.7742
-12.7723
-12.7704
-12.7684
-12.7662
-12.7638
-12.7612
-12.7583
-12.7552
-12.7518
-12.7482
-12.7445
-12.7407
-12.7368
-12.733
-12.7294
-12.7259
-12.7227
-12.7198
-12.7173
-12.7152
-12.7137
-12.7127
-12.7123
-12.7125
-12.7135
-12.7153
-12.718
-12.7217
-12.7269
-12.7345
-12.8357
-12.8376
-12.8386
-12.8387
-12.8382
-12.8369
-12.8348
-12.8321
-12.8287
-12.825
-12.8209
-12.8166
-12.8123
-12.808
-12.8039
-12.7998
-12.7959
-12.7922
-12.7886
-12.785
-12.7815
-12.7778
-12.7741
-12.7702
-12.7661
-12.7617
-12.757
-12.752
-12.7468
-12.7413
-12.7357
-12.7298
-12.7239
-12.7181
-12.7123
-12.7067
-12.7014
-12.6964
-12.692
-12.6881
-12.6849
-12.6825
-12.681
-12.6804
-12.681
-12.6828
-12.6859
-12.6905
-12.6972
-12.7072
-12.8612
-12.8655
-12.868
-12.8691
-12.8691
-12.8679
-12.8655
-12.8621
-12.8578
-12.8529
-12.8474
-12.8416
-12.8357
-12.8297
-12.8238
-12.818
-12.8124
-12.8069
-12.8016
-12.7963
-12.7911
-12.7858
-12.7803
-12.7747
-12.7689
-12.7628
-12.7563
-12.7495
-12.7424
-12.735
-12.7274
-12.7195
-12.7114
-12.7034
-12.6953
-12.6875
-12.6799
-12.6728
-12.6662
-12.6603
-12.6553
-12.6513
-12.6485
-12.6469
-12.6469
-12.6487
-12.6522
-12.6576
-12.6658
-12.6783
-12.8875
-12.8943
-12.8985
-12.9005
-12.901
-12.8997
-12.897
-12.8928
-12.8874
-12.8812
-12.8742
-12.8669
-12.8592
-12.8515
-12.8439
-12.8364
-12.829
-12.8219
-12.8148
-12.8079
-12.801
-12.7941
-12.787
-12.7798
-12.7723
-12.7644
-12.7562
-12.7476
-12.7386
-12.7293
-12.7195
-12.7095
-12.6993
-12.6889
-12.6786
-12.6683
-12.6583
-12.6488
-12.6399
-12.6318
-12.6247
-12.6189
-12.6145
-12.6118
-12.611
-12.6125
-12.6163
-12.6225
-12.6322
-12.6473
-12.9151
-12.9247
-12.9304
-12.9334
-12.9342
-12.9329
-12.9295
-12.9244
-12.9178
-12.9101
-12.9016
-12.8925
-12.8831
-12.8736
-12.8642
-12.8549
-12.8458
-12.837
-12.8283
-12.8197
-12.8112
-12.8027
-12.7941
-12.7852
-12.7761
-12.7665
-12.7566
-12.7462
-12.7353
-12.724
-12.7122
-12.7
-12.6875
-12.6747
-12.6619
-12.6491
-12.6365
-12.6244
-12.6129
-12.6023
-12.5929
-12.5849
-12.5787
-12.5745
-12.5728
-12.5738
-12.5777
-12.5846
-12.5959
-12.6136
-12.9447
-12.957
-12.9645
-12.9683
-12.9693
-12.9677
-12.9636
-12.9573
-12.9492
-12.9398
-12.9295
-12.9185
-12.9072
-12.8958
-12.8845
-12.8735
-12.8626
-12.8521
-12.8418
-12.8316
-12.8216
-12.8115
-12.8013
-12.7909
-12.7802
-12.769
-12.7574
-12.7452
-12.7325
-12.7192
-12.7053
-12.6909
-12.676
-12.6608
-12.6453
-12.6298
-12.6144
-12.5995
-12.5851
-12.5717
-12.5596
-12.5491
-12.5407
-12.5347
-12.5317
-12.5319
-12.5357
-12.5433
-12.5561
-12.5767
-12.9766
-12.9921
-13.0013
-13.0058
-13.0069
-13.0047
-12.9995
-12.9917
-12.9819
-12.9705
-12.9581
-12.945
-12.9316
-12.9182
-12.9049
-12.892
-12.8794
-12.8671
-12.8552
-12.8435
-12.8319
-12.8203
-12.8086
-12.7967
-12.7845
-12.7717
-12.7585
-12.7446
-12.73
-12.7147
-12.6987
-12.6821
-12.6648
-12.647
-12.6288
-12.6105
-12.5921
-12.574
-12.5565
-12.5399
-12.5247
-12.5113
-12.5002
-12.492
-12.4872
-12.4863
-12.4898
-12.4978
-12.5122
-12.5358
-13.0118
-13.0306
-13.0416
-13.0467
-13.0477
-13.0445
-13.0378
-13.028
-13.016
-13.0022
-12.9874
-12.9719
-12.9561
-12.9405
-12.9252
-12.9102
-12.8958
-12.8818
-12.8683
-12.855
-12.8419
-12.8289
-12.8158
-12.8025
-12.7888
-12.7745
-12.7597
-12.7441
-12.7278
-12.7106
-12.6925
-12.6736
-12.6539
-12.6335
-12.6125
-12.5911
-12.5695
-12.548
-12.5269
-12.5068
-12.488
-12.4712
-12.4569
-12.4458
-12.4387
-12.4363
-12.4391
-12.4473
-12.4633
-12.4901
-13.0509
-13.0735
-13.0863
-13.0919
-13.0922
-13.0877
-13.0788
-13.0666
-13.0517
-13.0351
-13.0174
-12.9991
-12.9808
-12.9627
-12.9451
-12.9281
-12.9117
-12.896
-12.8808
-12.866
-12.8515
-12.8371
-12.8227
-12.808
-12.7929
-12.7773
-12.7609
-12.7438
-12.7257
-12.7067
-12.6866
-12.6655
-12.6433
-12.6202
-12.5963
-12.5717
-12.5466
-12.5214
-12.4965
-12.4723
-12.4494
-12.4285
-12.4103
-12.3957
-12.3856
-12.381
-12.3825
-12.3907
-12.4082
-12.4387
-13.0951
-13.1219
-13.1366
-13.1423
-13.1415
-13.1348
-13.1231
-13.1076
-13.0893
-13.0692
-13.048
-13.0266
-13.0052
-12.9844
-12.9644
-12.9452
-12.9269
-12.9094
-12.8925
-12.8763
-12.8604
-12.8447
-12.829
-12.813
-12.7967
-12.7797
-12.762
-12.7434
-12.7238
-12.703
-12.6809
-12.6576
-12.6331
-12.6073
-12.5803
-12.5524
-12.5236
-12.4945
-12.4652
-12.4364
-12.4088
-12.383
-12.3601
-12.3411
-12.3271
-12.3194
-12.3191
-12.3267
-12.3457
-12.3802
-13.1457
-13.1774
-13.194
-13.1992
-13.1965
-13.1867
-13.1712
-13.1514
-13.1287
-13.1043
-13.0791
-13.054
-13.0293
-13.0055
-12.9828
-12.9613
-12.9409
-12.9216
-12.9032
-12.8855
-12.8683
-12.8513
-12.8345
-12.8174
-12.7999
-12.7818
-12.7628
-12.7429
-12.7218
-12.6993
-12.6755
-12.6501
-12.6232
-12.5947
-12.5647
-12.5333
-12.5007
-12.4672
-12.4333
-12.3993
-12.3662
-12.3347
-12.306
-12.2814
-12.2623
-12.2505
-12.2472
-12.2538
-12.2741
-12.3132
-13.2044
-13.2419
-13.2602
-13.2643
-13.2584
-13.2442
-13.2235
-13.1982
-13.17
-13.1404
-13.1104
-13.0809
-13.0525
-13.0254
-12.9998
-12.9759
-12.9534
-12.9323
-12.9123
-12.8933
-12.8749
-12.8568
-12.8389
-12.8209
-12.8024
-12.7833
-12.7632
-12.7421
-12.7197
-12.6958
-12.6702
-12.6429
-12.6137
-12.5827
-12.5496
-12.5147
-12.4781
-12.4401
-12.4009
-12.3612
-12.3217
-12.2835
-12.2477
-12.2161
-12.1904
-12.1728
-12.1654
-12.1698
-12.1911
-12.2357
-13.2737
-13.3181
-13.3377
-13.3393
-13.3286
-13.3081
-13.2804
-13.2479
-13.2129
-13.1769
-13.1413
-13.1069
-13.0743
-13.0436
-13.0151
-12.9886
-12.964
-12.9411
-12.9197
-12.8994
-12.8799
-12.8609
-12.8421
-12.8232
-12.804
-12.784
-12.7631
-12.741
-12.7175
-12.6923
-12.6653
-12.6362
-12.605
-12.5714
-12.5354
-12.497
-12.4563
-12.4133
-12.3686
-12.3225
-12.2758
-12.2295
-12.1852
-12.1447
-12.1104
-12.085
-12.0713
-12.0721
-12.0939
-12.1448
-13.357
-13.4096
-13.4298
-13.4268
-13.4088
-13.3793
-13.3421
-13.3004
-13.2569
-13.2134
-13.1712
-13.1313
-13.094
-13.0595
-13.0278
-12.9988
-12.9722
-12.9477
-12.9249
-12.9035
-12.8831
-12.8633
-12.8439
-12.8244
-12.8045
-12.7839
-12.7624
-12.7396
-12.7152
-12.689
-12.6607
-12.6301
-12.597
-12.5611
-12.5223
-12.4805
-12.4356
-12.3877
-12.3369
-12.2838
-12.2289
-12.1733
-12.1187
-12.0671
-12.0214
-11.9852
-11.9625
-11.9572
-11.9785
-12.0368
-13.4592
-13.5216
-13.5408
-13.5298
-13.5005
-13.4584
-13.4086
-13.3551
-13.3011
-13.2487
-13.199
-13.1529
-13.1107
-13.0722
-13.0374
-13.006
-12.9774
-12.9514
-12.9275
-12.9052
-12.8841
-12.8638
-12.8439
-12.8241
-12.8039
-12.783
-12.7611
-12.7378
-12.7128
-12.6859
-12.6567
-12.6249
-12.5902
-12.5523
-12.5109
-12.4658
-12.4168
-12.3638
-12.3069
-12.2461
-12.1821
-12.1157
-12.0486
-11.9831
-11.9226
-11.8717
-11.8356
-11.8204
-11.8392
-11.9063
-13.588
-13.6617
-13.6765
-13.6519
-13.6055
-13.5457
-13.4791
-13.4108
-13.3442
-13.2814
-13.2234
-13.1707
-13.1233
-13.081
-13.0432
-13.0094
-12.9792
-12.952
-12.9272
-12.9043
-12.8828
-12.8623
-12.8423
-12.8223
-12.8021
-12.7812
-12.7592
-12.7357
-12.7105
-12.6832
-12.6534
-12.6207
-12.5848
-12.5452
-12.5017
-12.4537
-12.4009
-12.3429
-12.2796
-12.2108
-12.1368
-12.0582
-11.9763
-11.8936
-11.8139
-11.7426
-11.6869
-11.6557
-11.668
-11.7449
-13.756
-13.8411
-13.8446
-13.7971
-13.7252
-13.6407
-13.5522
-13.4655
-13.384
-13.3095
-13.2426
-13.1831
-13.1307
-13.0846
-13.0442
-13.0086
-12.9771
-12.949
-12.9238
-12.9006
-12.8791
-12.8587
-12.8388
-12.8191
-12.7992
-12.7785
-12.7568
-12.7335
-12.7085
-12.6811
-12.6511
-12.618
-12.5814
-12.5407
-12.4954
-12.4449
-12.3887
-12.3262
-12.2567
-12.1797
-12.0951
-12.0029
-11.9039
-11.8003
-11.6957
-11.5966
-11.512
-11.4548
-11.4529
-11.5393
-13.9844
-14.0766
-14.0552
-13.9697
-13.8595
-13.7412
-13.6246
-13.5157
-13.4174
-13.3304
-13.2543
-13.1883
-13.1313
-13.0821
-13.0396
-13.0027
-12.9705
-12.9422
-12.9169
-12.894
-12.8728
-12.8529
-12.8336
-12.8145
-12.7952
-12.7752
-12.754
-12.7314
-12.7069
-12.68
-12.6502
-12.6172
-12.5804
-12.5391
-12.4927
-12.4405
-12.3816
-12.3152
-12.2401
-12.1553
-12.0599
-11.9532
-11.835
-11.7064
-11.5704
-11.4335
-11.3066
-11.2071
-11.1762
-11.2664
-14.3125
-14.394
-14.3201
-14.172
-14.0058
-13.842
-13.6907
-13.5565
-13.44
-13.3404
-13.2558
-13.1842
-13.1236
-13.0723
-13.0286
-12.9913
-12.9591
-12.9312
-12.9065
-12.8843
-12.864
-12.845
-12.8267
-12.8086
-12.7903
-12.7714
-12.7513
-12.7297
-12.7061
-12.68
-12.6511
-12.6187
-12.5823
-12.5412
-12.4946
-12.4415
-12.381
-12.3117
-12.2321
-12.1406
-12.0352
-11.914
-11.7752
-11.618
-11.4435
-11.2567
-11.0684
-10.9004
-10.8111
-10.8847
-14.8126
-14.8309
-14.6509
-14.4016
-14.1554
-13.9334
-13.7415
-13.5801
-13.446
-13.3353
-13.244
-13.1686
-13.1061
-13.0541
-13.0106
-12.9739
-12.9427
-12.9159
-12.8924
-12.8717
-12.8528
-12.8352
-12.8183
-12.8017
-12.7849
-12.7674
-12.7487
-12.7285
-12.7064
-12.6818
-12.6542
-12.6231
-12.5878
-12.5477
-12.5018
-12.4491
-12.3882
-12.3176
-12.2354
-12.139
-12.0254
-11.8913
-11.7325
-11.545
-11.3258
-11.0753
-10.8001
-10.5228
-10.3185
-10.3184
-15.6157
-15.4379
-15.0555
-14.6491
-14.2931
-14.0003
-13.765
-13.5779
-13.4293
-13.3111
-13.2163
-13.1399
-13.0778
-13.0271
-12.9852
-12.9505
-12.9213
-12.8965
-12.8751
-12.8563
-12.8394
-12.8238
-12.8088
-12.7941
-12.7791
-12.7635
-12.7467
-12.7284
-12.7081
-12.6854
-12.6597
-12.6306
-12.5972
-12.559
-12.5149
-12.4638
-12.4043
-12.3344
-12.2519
-12.1536
-12.0354
-11.892
-11.7165
-11.5001
-11.2331
-10.9055
-10.512
-10.0666
-9.64717
-9.43338
-17.0188
-16.2555
-15.5097
-14.8813
-14.3884
-14.019
-13.7447
-13.5394
-13.3838
-13.2641
-13.1708
-13.0973
-13.0386
-12.9913
-12.9529
-12.9215
-12.8954
-12.8735
-12.8549
-12.8388
-12.8244
-12.8112
-12.7986
-12.7862
-12.7735
-12.76
-12.7455
-12.7295
-12.7115
-12.6911
-12.6679
-12.6413
-12.6106
-12.5752
-12.534
-12.486
-12.4296
-12.3629
-12.2832
-12.1871
-12.0694
-11.9232
-11.7386
-11.5012
-11.1911
-10.7805
-10.2398
-9.5584
-8.75708
-7.92434
-19.8519
-17.2529
-15.8327
-14.9441
-14.3336
-13.9193
-13.6361
-13.4362
-13.2906
-13.1816
-13.0985
-13.0339
-12.9831
-12.9427
-12.9102
-12.884
-12.8627
-12.8451
-12.8304
-12.8178
-12.8068
-12.7967
-12.7872
-12.7777
-12.7679
-12.7573
-12.7456
-12.7325
-12.7175
-12.7002
-12.6802
-12.657
-12.6301
-12.5987
-12.5621
-12.5191
-12.4684
-12.4082
-12.336
-12.2484
-12.1402
-12.0039
-11.8279
-11.594
-11.2719
-10.8113
-10.143
-9.18247
-7.6754
-4.95523
-24.7208
-18.3361
-15.6687
-14.5673
-13.9668
-13.6081
-13.3841
-13.2341
-13.1272
-13.0478
-12.9872
-12.9403
-12.9035
-12.8745
-12.8516
-12.8335
-12.8191
-12.8077
-12.7985
-12.791
-12.7846
-12.7789
-12.7735
-12.768
-12.762
-12.7553
-12.7475
-12.7382
-12.7272
-12.7141
-12.6985
-12.6802
-12.6585
-12.633
-12.603
-12.5678
-12.5263
-12.4772
-12.4187
-12.3482
-12.262
-12.1545
-12.0162
-11.8309
-11.5667
-11.1598
-10.4939
-9.29759
-6.51207
9.84521e-05
)
;

boundaryField
{
    movingWallTop
    {
        type            zeroGradient;
    }
    movingWallBottom
    {
        type            zeroGradient;
    }
    fixedWalls
    {
        type            zeroGradient;
    }
    frontAndBack
    {
        type            empty;
    }
}


// ************************************************************************* //
