/*--------------------------------*- C++ -*----------------------------------*\
  =========                 |
  \\      /  F ield         | OpenFOAM: The Open Source CFD Toolbox
   \\    /   O peration     | Website:  https://openfoam.org
    \\  /    A nd           | Version:  7
     \\/     M anipulation  |
\*---------------------------------------------------------------------------*/
FoamFile
{
    version     2.0;
    format      ascii;
    class       volScalarField;
    location    "0.0782";
    object      p;
}
// * * * * * * * * * * * * * * * * * * * * * * * * * * * * * * * * * * * * * //

dimensions      [0 2 -2 0 0 0 0];

internalField   nonuniform List<scalar> 
2500
(
3.66518e-05
-6.51218
-9.29783
-10.4943
-11.1605
-11.5676
-11.832
-12.0175
-12.156
-12.2638
-12.3502
-12.4209
-12.4796
-12.5288
-12.5704
-12.6057
-12.6356
-12.6611
-12.6828
-12.7011
-12.7165
-12.7294
-12.7402
-12.7492
-12.7568
-12.7632
-12.7688
-12.774
-12.7791
-12.7844
-12.7905
-12.7977
-12.8066
-12.8178
-12.832
-12.85
-12.8728
-12.9018
-12.9387
-12.9857
-13.0464
-13.1261
-13.2333
-13.3836
-13.6078
-13.9669
-14.5677
-15.6692
-18.3367
-24.7214
-4.9552
-7.67544
-9.18262
-10.1433
-10.8118
-11.2725
-11.5948
-11.829
-12.0051
-12.1416
-12.25
-12.3379
-12.4102
-12.4705
-12.5213
-12.5644
-12.6011
-12.6325
-12.6594
-12.6825
-12.7024
-12.7195
-12.7344
-12.7473
-12.7588
-12.7691
-12.7786
-12.7878
-12.7971
-12.8069
-12.8176
-12.8299
-12.8444
-12.8618
-12.883
-12.909
-12.9414
-12.9818
-13.0326
-13.0973
-13.1806
-13.2897
-13.4356
-13.6358
-13.9192
-14.3338
-14.9445
-15.8332
-17.2535
-19.8525
-7.92417
-8.75701
-9.55844
-10.24
-10.7808
-11.1915
-11.5018
-11.7394
-11.9242
-12.0706
-12.1884
-12.2848
-12.3646
-12.4314
-12.488
-12.5361
-12.5773
-12.6128
-12.6435
-12.6701
-12.6932
-12.7135
-12.7313
-12.7472
-12.7616
-12.7748
-12.7872
-12.7994
-12.8117
-12.8247
-12.8388
-12.8547
-12.8731
-12.8948
-12.9207
-12.952
-12.9904
-13.0376
-13.0963
-13.1699
-13.2633
-13.3831
-13.539
-13.7445
-14.019
-14.3887
-14.8818
-15.5103
-16.2562
-17.0194
-9.43305
-9.64698
-10.0666
-10.5121
-10.9056
-11.2334
-11.5006
-11.7171
-11.8928
-12.0364
-12.1548
-12.2532
-12.3359
-12.4059
-12.4656
-12.5168
-12.561
-12.5993
-12.6326
-12.6618
-12.6874
-12.7101
-12.7303
-12.7484
-12.765
-12.7805
-12.7953
-12.8098
-12.8245
-12.8399
-12.8566
-12.8751
-12.8963
-12.9209
-12.9499
-12.9846
-13.0263
-13.0771
-13.1391
-13.2156
-13.3105
-13.4289
-13.5776
-13.7649
-14.0004
-14.2935
-14.6497
-15.0562
-15.4387
-15.6165
-10.3179
-10.3182
-10.5227
-10.8001
-11.0754
-11.326
-11.5454
-11.733
-11.892
-12.0263
-12.1399
-12.2365
-12.319
-12.3897
-12.4507
-12.5036
-12.5496
-12.5898
-12.6251
-12.6562
-12.6838
-12.7083
-12.7304
-12.7505
-12.769
-12.7864
-12.803
-12.8194
-12.8361
-12.8534
-12.8721
-12.8927
-12.9159
-12.9425
-12.9736
-13.0102
-13.0536
-13.1056
-13.1681
-13.2436
-13.335
-13.4458
-13.58
-13.7417
-13.9337
-14.156
-14.4024
-14.6518
-14.832
-14.8137
-10.884
-10.8107
-10.9002
-11.0683
-11.2568
-11.4437
-11.6183
-11.7756
-11.9145
-12.0359
-12.1414
-12.2331
-12.3129
-12.3824
-12.4431
-12.4962
-12.543
-12.5842
-12.6207
-12.6531
-12.6821
-12.7081
-12.7316
-12.7531
-12.7731
-12.7919
-12.8101
-12.828
-12.8461
-12.8649
-12.885
-12.9069
-12.9314
-12.9592
-12.9912
-13.0285
-13.072
-13.1233
-13.1839
-13.2556
-13.3403
-13.44
-13.5566
-13.6911
-13.8426
-14.0066
-14.173
-14.3213
-14.3953
-14.3139
-11.2657
-11.1758
-11.2068
-11.3065
-11.4336
-11.5705
-11.7066
-11.8354
-11.9538
-12.0606
-12.1561
-12.241
-12.3163
-12.3829
-12.442
-12.4943
-12.5408
-12.5822
-12.6192
-12.6522
-12.682
-12.7089
-12.7334
-12.756
-12.777
-12.7969
-12.8161
-12.835
-12.8541
-12.8739
-12.8948
-12.9176
-12.9427
-12.9709
-13.0029
-13.0397
-13.0821
-13.1313
-13.1883
-13.2543
-13.3305
-13.4177
-13.5162
-13.6252
-13.742
-13.8606
-13.971
-14.0567
-14.0783
-13.9861
-11.5384
-11.4524
-11.4545
-11.5119
-11.5966
-11.6958
-11.8006
-11.9044
-12.0034
-12.0958
-12.1805
-12.2576
-12.3273
-12.39
-12.4464
-12.497
-12.5424
-12.5832
-12.62
-12.6532
-12.6832
-12.7106
-12.7356
-12.7588
-12.7805
-12.801
-12.8209
-12.8404
-12.8601
-12.8804
-12.9017
-12.9247
-12.9498
-12.9777
-13.009
-13.0445
-13.0849
-13.1309
-13.1834
-13.2429
-13.3099
-13.3846
-13.4662
-13.5531
-13.6418
-13.7265
-13.7987
-13.8464
-13.843
-13.7581
-11.7441
-11.6675
-11.6555
-11.6868
-11.7427
-11.8141
-11.894
-11.9768
-12.0587
-12.1375
-12.2116
-12.2806
-12.3441
-12.4022
-12.4552
-12.5033
-12.547
-12.5867
-12.6228
-12.6555
-12.6854
-12.7128
-12.738
-12.7613
-12.7833
-12.8041
-12.8243
-12.8441
-12.864
-12.8843
-12.9056
-12.9284
-12.953
-12.9801
-13.0101
-13.0438
-13.0815
-13.1238
-13.1713
-13.224
-13.2821
-13.345
-13.4118
-13.4803
-13.5472
-13.6072
-13.6537
-13.6785
-13.664
-13.5906
-11.9054
-11.8387
-11.8202
-11.8356
-11.8719
-11.923
-11.9836
-12.0492
-12.1164
-12.1829
-12.247
-12.3079
-12.3651
-12.4182
-12.4674
-12.5126
-12.5541
-12.5922
-12.627
-12.6589
-12.6882
-12.7152
-12.7402
-12.7634
-12.7853
-12.8061
-12.8262
-12.8459
-12.8657
-12.8858
-12.9067
-12.9289
-12.9526
-12.9785
-13.0069
-13.0383
-13.073
-13.1115
-13.1537
-13.1999
-13.2496
-13.3022
-13.3564
-13.4101
-13.4601
-13.5024
-13.532
-13.5432
-13.5242
-13.4621
-12.036
-11.9781
-11.957
-11.9626
-11.9855
-12.0218
-12.0676
-12.1194
-12.1741
-12.2298
-12.2848
-12.3381
-12.389
-12.4371
-12.4822
-12.5241
-12.5631
-12.5991
-12.6324
-12.6631
-12.6914
-12.7177
-12.7421
-12.7649
-12.7864
-12.8069
-12.8267
-12.8461
-12.8654
-12.885
-12.9052
-12.9265
-12.9491
-12.9735
-13
-13.029
-13.0606
-13.095
-13.1324
-13.1724
-13.2146
-13.2583
-13.302
-13.3439
-13.3813
-13.411
-13.4293
-13.4325
-13.4125
-13.3602
-12.144
-12.0936
-12.072
-12.0715
-12.0854
-12.1109
-12.1454
-12.1861
-12.2305
-12.2768
-12.3237
-12.3699
-12.4148
-12.4579
-12.4988
-12.5373
-12.5735
-12.6072
-12.6386
-12.6678
-12.6949
-12.7201
-12.7437
-12.7658
-12.7867
-12.8066
-12.8257
-12.8445
-12.8632
-12.882
-12.9014
-12.9215
-12.9428
-12.9656
-12.9901
-13.0165
-13.045
-13.0756
-13.1083
-13.1428
-13.1785
-13.2146
-13.2498
-13.2824
-13.3104
-13.3311
-13.342
-13.3407
-13.3213
-13.2773
-12.235
-12.1909
-12.1698
-12.1657
-12.1733
-12.1911
-12.2169
-12.2487
-12.2846
-12.3229
-12.3626
-12.4024
-12.4417
-12.4799
-12.5167
-12.5517
-12.5849
-12.6161
-12.6454
-12.6729
-12.6985
-12.7225
-12.745
-12.7661
-12.7861
-12.8052
-12.8236
-12.8415
-12.8593
-12.8772
-12.8955
-12.9144
-12.9343
-12.9553
-12.9776
-13.0015
-13.027
-13.0541
-13.0826
-13.1121
-13.1422
-13.1719
-13.2003
-13.2258
-13.2467
-13.2611
-13.2672
-13.2633
-13.2454
-13.2082
-12.3128
-12.274
-12.2539
-12.2477
-12.2511
-12.2631
-12.2823
-12.3071
-12.3359
-12.3676
-12.4008
-12.4349
-12.469
-12.5027
-12.5354
-12.5669
-12.5971
-12.6257
-12.6528
-12.6782
-12.7022
-12.7247
-12.7459
-12.7659
-12.7848
-12.8029
-12.8203
-12.8373
-12.854
-12.8708
-12.8879
-12.9055
-12.9238
-12.943
-12.9633
-12.9847
-13.0074
-13.0312
-13.0558
-13.0811
-13.1064
-13.1309
-13.1537
-13.1737
-13.1894
-13.1994
-13.2023
-13.1973
-13.1811
-13.1497
-12.38
-12.3458
-12.3271
-12.3196
-12.3202
-12.328
-12.3422
-12.3614
-12.3844
-12.4103
-12.4381
-12.467
-12.4964
-12.5257
-12.5546
-12.5827
-12.6098
-12.6358
-12.6605
-12.6839
-12.706
-12.7269
-12.7466
-12.7652
-12.7829
-12.7998
-12.8161
-12.832
-12.8476
-12.8632
-12.879
-12.8951
-12.9118
-12.9292
-12.9474
-12.9666
-12.9866
-13.0073
-13.0287
-13.0502
-13.0714
-13.0917
-13.1101
-13.1258
-13.1376
-13.1445
-13.1455
-13.1401
-13.1257
-13.0993
-12.4386
-12.4085
-12.3912
-12.3833
-12.3819
-12.3867
-12.397
-12.4117
-12.43
-12.4511
-12.4741
-12.4985
-12.5235
-12.5489
-12.5741
-12.5988
-12.6229
-12.6462
-12.6685
-12.6897
-12.7099
-12.729
-12.7471
-12.7643
-12.7806
-12.7962
-12.8112
-12.8259
-12.8402
-12.8545
-12.8689
-12.8836
-12.8986
-12.9143
-12.9305
-12.9475
-12.965
-12.9831
-13.0014
-13.0197
-13.0375
-13.0543
-13.0692
-13.0816
-13.0906
-13.0953
-13.0952
-13.0899
-13.0774
-13.0552
-12.4903
-12.4638
-12.448
-12.44
-12.4374
-12.44
-12.4473
-12.4584
-12.4729
-12.4898
-12.5088
-12.529
-12.5502
-12.5719
-12.5936
-12.6152
-12.6364
-12.6569
-12.6768
-12.6958
-12.7139
-12.7312
-12.7476
-12.7632
-12.778
-12.7922
-12.8059
-12.8192
-12.8322
-12.8451
-12.8581
-12.8712
-12.8847
-12.8986
-12.9129
-12.9277
-12.943
-12.9586
-12.9744
-12.9899
-13.0048
-13.0186
-13.0308
-13.0407
-13.0476
-13.0509
-13.0502
-13.0452
-13.0345
-13.0161
-12.5363
-12.5129
-12.4987
-12.4909
-12.4876
-12.4886
-12.4936
-12.502
-12.5132
-12.5267
-12.542
-12.5587
-12.5764
-12.5946
-12.6132
-12.6317
-12.65
-12.6679
-12.6853
-12.7021
-12.7182
-12.7336
-12.7482
-12.7621
-12.7754
-12.7881
-12.8003
-12.8122
-12.8238
-12.8352
-12.8467
-12.8583
-12.8701
-12.8823
-12.8948
-12.9077
-12.9209
-12.9342
-12.9476
-12.9607
-12.9732
-12.9846
-12.9946
-13.0025
-13.0078
-13.0102
-13.0093
-13.0049
-12.996
-12.9809
-12.5775
-12.5571
-12.5444
-12.537
-12.5334
-12.5333
-12.5365
-12.5426
-12.5511
-12.5617
-12.574
-12.5875
-12.602
-12.6171
-12.6326
-12.6483
-12.6639
-12.6793
-12.6943
-12.7088
-12.7228
-12.7362
-12.749
-12.7612
-12.7728
-12.7839
-12.7946
-12.805
-12.8151
-12.8251
-12.835
-12.8451
-12.8553
-12.8657
-12.8764
-12.8874
-12.8987
-12.91
-12.9213
-12.9322
-12.9426
-12.9521
-12.9602
-12.9666
-12.9708
-12.9726
-12.9717
-12.9681
-12.9609
-12.9489
-12.6147
-12.5971
-12.586
-12.5792
-12.5754
-12.5745
-12.5764
-12.5807
-12.587
-12.5951
-12.6047
-12.6154
-12.627
-12.6393
-12.652
-12.665
-12.678
-12.6909
-12.7035
-12.7158
-12.7277
-12.7391
-12.7501
-12.7605
-12.7704
-12.7799
-12.7891
-12.7979
-12.8064
-12.8149
-12.8233
-12.8317
-12.8403
-12.849
-12.858
-12.8672
-12.8765
-12.886
-12.8953
-12.9044
-12.913
-12.9207
-12.9273
-12.9325
-12.936
-12.9374
-12.9368
-12.934
-12.9285
-12.9192
-12.6487
-12.6338
-12.6241
-12.618
-12.6143
-12.613
-12.6138
-12.6166
-12.6211
-12.6271
-12.6343
-12.6425
-12.6516
-12.6613
-12.6714
-12.6818
-12.6923
-12.7028
-12.7131
-12.7233
-12.7331
-12.7425
-12.7516
-12.7602
-12.7684
-12.7762
-12.7837
-12.7909
-12.7979
-12.8048
-12.8116
-12.8184
-12.8253
-12.8324
-12.8396
-12.847
-12.8546
-12.8622
-12.8698
-12.8771
-12.8841
-12.8903
-12.8957
-12.8999
-12.9028
-12.9041
-12.9038
-12.9019
-12.898
-12.8914
-12.68
-12.6676
-12.6594
-12.6541
-12.6507
-12.6491
-12.6491
-12.6507
-12.6537
-12.6578
-12.663
-12.669
-12.6757
-12.6829
-12.6906
-12.6986
-12.7068
-12.715
-12.7231
-12.7311
-12.7389
-12.7464
-12.7536
-12.7604
-12.7668
-12.773
-12.7788
-12.7843
-12.7897
-12.7949
-12.8
-12.8052
-12.8104
-12.8158
-12.8213
-12.827
-12.8328
-12.8387
-12.8446
-12.8503
-12.8558
-12.8607
-12.865
-12.8685
-12.8709
-12.8722
-12.8723
-12.8714
-12.869
-12.8649
-12.7093
-12.6993
-12.6926
-12.6881
-12.685
-12.6832
-12.6827
-12.6834
-12.685
-12.6875
-12.6908
-12.6948
-12.6994
-12.7044
-12.7099
-12.7156
-12.7215
-12.7276
-12.7336
-12.7395
-12.7453
-12.7508
-12.7561
-12.7611
-12.7658
-12.7702
-12.7743
-12.7782
-12.7818
-12.7854
-12.7888
-12.7923
-12.7958
-12.7994
-12.8032
-12.8071
-12.8112
-12.8154
-12.8196
-12.8238
-12.8279
-12.8316
-12.8349
-12.8377
-12.8398
-12.8412
-12.8418
-12.8418
-12.8409
-12.8392
-12.7368
-12.7292
-12.724
-12.7204
-12.7177
-12.7159
-12.715
-12.7148
-12.7153
-12.7164
-12.718
-12.7202
-12.7228
-12.7258
-12.7291
-12.7327
-12.7366
-12.7405
-12.7444
-12.7484
-12.7522
-12.7558
-12.7593
-12.7625
-12.7654
-12.768
-12.7704
-12.7725
-12.7745
-12.7763
-12.778
-12.7797
-12.7814
-12.7833
-12.7853
-12.7874
-12.7897
-12.7922
-12.7948
-12.7975
-12.8002
-12.8028
-12.8052
-12.8073
-12.8091
-12.8106
-12.8118
-12.8126
-12.8133
-12.814
-12.7632
-12.7579
-12.7542
-12.7515
-12.7493
-12.7476
-12.7463
-12.7454
-12.7449
-12.7447
-12.7448
-12.7452
-12.746
-12.7471
-12.7484
-12.75
-12.7518
-12.7538
-12.7558
-12.7578
-12.7597
-12.7615
-12.7631
-12.7645
-12.7656
-12.7665
-12.7671
-12.7675
-12.7677
-12.7677
-12.7676
-12.7675
-12.7674
-12.7674
-12.7675
-12.7679
-12.7684
-12.7691
-12.7701
-12.7712
-12.7725
-12.7739
-12.7754
-12.777
-12.7785
-12.7801
-12.7818
-12.7836
-12.7858
-12.7888
-12.7888
-12.7858
-12.7836
-12.7818
-12.7801
-12.7785
-12.777
-12.7754
-12.7739
-12.7725
-12.7712
-12.7701
-12.7691
-12.7684
-12.7679
-12.7675
-12.7674
-12.7674
-12.7675
-12.7676
-12.7677
-12.7677
-12.7675
-12.7671
-12.7665
-12.7656
-12.7645
-12.7631
-12.7615
-12.7597
-12.7578
-12.7558
-12.7538
-12.7518
-12.75
-12.7484
-12.7471
-12.746
-12.7452
-12.7448
-12.7446
-12.7449
-12.7454
-12.7463
-12.7476
-12.7493
-12.7515
-12.7542
-12.7579
-12.7632
-12.814
-12.8133
-12.8127
-12.8118
-12.8106
-12.8091
-12.8073
-12.8052
-12.8028
-12.8002
-12.7975
-12.7948
-12.7922
-12.7897
-12.7874
-12.7853
-12.7833
-12.7814
-12.7797
-12.778
-12.7763
-12.7745
-12.7725
-12.7704
-12.768
-12.7654
-12.7625
-12.7593
-12.7558
-12.7522
-12.7484
-12.7444
-12.7405
-12.7366
-12.7327
-12.7291
-12.7258
-12.7228
-12.7202
-12.718
-12.7164
-12.7153
-12.7148
-12.715
-12.7159
-12.7177
-12.7204
-12.724
-12.7292
-12.7368
-12.8393
-12.8409
-12.8418
-12.8418
-12.8412
-12.8398
-12.8377
-12.8349
-12.8316
-12.8279
-12.8238
-12.8196
-12.8154
-12.8112
-12.8071
-12.8032
-12.7994
-12.7958
-12.7923
-12.7888
-12.7854
-12.7818
-12.7782
-12.7743
-12.7702
-12.7658
-12.7611
-12.7561
-12.7508
-12.7453
-12.7395
-12.7336
-12.7276
-12.7215
-12.7156
-12.7099
-12.7044
-12.6994
-12.6948
-12.6908
-12.6875
-12.685
-12.6834
-12.6827
-12.6832
-12.685
-12.6881
-12.6926
-12.6993
-12.7093
-12.8649
-12.869
-12.8714
-12.8723
-12.8722
-12.8709
-12.8685
-12.865
-12.8607
-12.8558
-12.8503
-12.8446
-12.8387
-12.8328
-12.827
-12.8213
-12.8158
-12.8104
-12.8052
-12.8
-12.7949
-12.7897
-12.7843
-12.7788
-12.773
-12.7668
-12.7604
-12.7536
-12.7464
-12.7389
-12.7311
-12.7231
-12.715
-12.7068
-12.6986
-12.6906
-12.6829
-12.6757
-12.669
-12.663
-12.6578
-12.6537
-12.6507
-12.6491
-12.649
-12.6507
-12.6541
-12.6594
-12.6676
-12.68
-12.8914
-12.898
-12.9019
-12.9038
-12.9041
-12.9028
-12.8999
-12.8957
-12.8903
-12.8841
-12.8771
-12.8698
-12.8622
-12.8546
-12.847
-12.8396
-12.8324
-12.8253
-12.8184
-12.8116
-12.8048
-12.7979
-12.7909
-12.7837
-12.7762
-12.7684
-12.7602
-12.7516
-12.7425
-12.7331
-12.7233
-12.7131
-12.7028
-12.6923
-12.6817
-12.6714
-12.6612
-12.6516
-12.6425
-12.6343
-12.6271
-12.6211
-12.6166
-12.6138
-12.613
-12.6143
-12.618
-12.6241
-12.6338
-12.6487
-12.9192
-12.9285
-12.934
-12.9368
-12.9374
-12.936
-12.9325
-12.9273
-12.9207
-12.913
-12.9044
-12.8953
-12.886
-12.8765
-12.8672
-12.858
-12.849
-12.8403
-12.8317
-12.8233
-12.8149
-12.8064
-12.7979
-12.7891
-12.7799
-12.7704
-12.7605
-12.7501
-12.7391
-12.7277
-12.7158
-12.7035
-12.6909
-12.678
-12.665
-12.652
-12.6393
-12.627
-12.6154
-12.6047
-12.5951
-12.587
-12.5807
-12.5764
-12.5745
-12.5754
-12.5792
-12.586
-12.5971
-12.6147
-12.9489
-12.9609
-12.9681
-12.9717
-12.9726
-12.9708
-12.9665
-12.9602
-12.9521
-12.9426
-12.9322
-12.9213
-12.91
-12.8987
-12.8874
-12.8764
-12.8657
-12.8553
-12.8451
-12.835
-12.8251
-12.8151
-12.805
-12.7946
-12.7839
-12.7728
-12.7612
-12.749
-12.7362
-12.7228
-12.7088
-12.6943
-12.6793
-12.6639
-12.6483
-12.6326
-12.6171
-12.602
-12.5875
-12.574
-12.5617
-12.5511
-12.5426
-12.5365
-12.5333
-12.5334
-12.537
-12.5444
-12.5571
-12.5774
-12.9809
-12.996
-13.0049
-13.0093
-13.0102
-13.0078
-13.0025
-12.9946
-12.9846
-12.9732
-12.9607
-12.9476
-12.9342
-12.9209
-12.9077
-12.8948
-12.8823
-12.8701
-12.8583
-12.8467
-12.8352
-12.8238
-12.8122
-12.8003
-12.7881
-12.7754
-12.7621
-12.7482
-12.7336
-12.7182
-12.7021
-12.6853
-12.6679
-12.65
-12.6317
-12.6132
-12.5946
-12.5764
-12.5587
-12.542
-12.5267
-12.5132
-12.5019
-12.4936
-12.4886
-12.4876
-12.4909
-12.4987
-12.5129
-12.5363
-13.0161
-13.0345
-13.0452
-13.0501
-13.0509
-13.0476
-13.0407
-13.0308
-13.0186
-13.0048
-12.9899
-12.9744
-12.9586
-12.943
-12.9277
-12.9129
-12.8985
-12.8847
-12.8712
-12.8581
-12.8451
-12.8322
-12.8192
-12.8059
-12.7922
-12.778
-12.7632
-12.7476
-12.7312
-12.7139
-12.6958
-12.6768
-12.6569
-12.6363
-12.6152
-12.5936
-12.5719
-12.5502
-12.529
-12.5088
-12.4898
-12.4729
-12.4584
-12.4472
-12.44
-12.4374
-12.44
-12.448
-12.4637
-12.4903
-13.0552
-13.0774
-13.0899
-13.0952
-13.0953
-13.0906
-13.0816
-13.0692
-13.0543
-13.0375
-13.0197
-13.0014
-12.9831
-12.965
-12.9475
-12.9305
-12.9143
-12.8986
-12.8836
-12.8689
-12.8545
-12.8402
-12.8259
-12.8112
-12.7962
-12.7806
-12.7643
-12.7471
-12.729
-12.7099
-12.6897
-12.6685
-12.6462
-12.6229
-12.5988
-12.5741
-12.5489
-12.5235
-12.4984
-12.4741
-12.4511
-12.43
-12.4117
-12.397
-12.3867
-12.3819
-12.3833
-12.3912
-12.4085
-12.4386
-13.0993
-13.1257
-13.1401
-13.1455
-13.1445
-13.1376
-13.1258
-13.1101
-13.0917
-13.0714
-13.0502
-13.0287
-13.0073
-12.9866
-12.9666
-12.9474
-12.9292
-12.9118
-12.8951
-12.879
-12.8632
-12.8476
-12.832
-12.8161
-12.7998
-12.7829
-12.7652
-12.7466
-12.7269
-12.706
-12.6839
-12.6604
-12.6357
-12.6098
-12.5827
-12.5546
-12.5257
-12.4964
-12.467
-12.4381
-12.4103
-12.3844
-12.3613
-12.3422
-12.328
-12.3202
-12.3196
-12.3271
-12.3458
-12.38
-13.1497
-13.1811
-13.1973
-13.2023
-13.1994
-13.1894
-13.1737
-13.1537
-13.1309
-13.1064
-13.0811
-13.0558
-13.0311
-13.0074
-12.9847
-12.9633
-12.943
-12.9238
-12.9055
-12.8879
-12.8708
-12.854
-12.8373
-12.8203
-12.8029
-12.7848
-12.7659
-12.7459
-12.7247
-12.7022
-12.6782
-12.6528
-12.6257
-12.5971
-12.5669
-12.5354
-12.5027
-12.469
-12.4349
-12.4008
-12.3675
-12.3359
-12.3071
-12.2823
-12.2631
-12.2511
-12.2477
-12.2539
-12.274
-12.3128
-13.2082
-13.2454
-13.2633
-13.2672
-13.2611
-13.2467
-13.2258
-13.2003
-13.1719
-13.1422
-13.1121
-13.0826
-13.0541
-13.027
-13.0015
-12.9776
-12.9553
-12.9343
-12.9144
-12.8955
-12.8772
-12.8593
-12.8415
-12.8236
-12.8052
-12.7861
-12.7661
-12.7449
-12.7225
-12.6985
-12.6729
-12.6454
-12.6161
-12.5849
-12.5517
-12.5167
-12.4799
-12.4417
-12.4024
-12.3625
-12.3229
-12.2846
-12.2487
-12.2169
-12.191
-12.1733
-12.1657
-12.1698
-12.1909
-12.235
-13.2773
-13.3213
-13.3407
-13.342
-13.3311
-13.3104
-13.2824
-13.2497
-13.2146
-13.1785
-13.1428
-13.1083
-13.0756
-13.045
-13.0165
-12.9901
-12.9656
-12.9428
-12.9215
-12.9014
-12.882
-12.8632
-12.8445
-12.8257
-12.8066
-12.7867
-12.7658
-12.7437
-12.7201
-12.6949
-12.6678
-12.6386
-12.6072
-12.5735
-12.5373
-12.4988
-12.4579
-12.4148
-12.3699
-12.3237
-12.2768
-12.2305
-12.186
-12.1454
-12.1109
-12.0853
-12.0715
-12.072
-12.0936
-12.144
-13.3602
-13.4125
-13.4325
-13.4293
-13.411
-13.3813
-13.3439
-13.302
-13.2583
-13.2146
-13.1724
-13.1324
-13.095
-13.0606
-13.029
-13
-12.9735
-12.9491
-12.9265
-12.9052
-12.885
-12.8654
-12.846
-12.8267
-12.8069
-12.7864
-12.7649
-12.7421
-12.7177
-12.6914
-12.6631
-12.6324
-12.5991
-12.5631
-12.5241
-12.4822
-12.4371
-12.389
-12.3381
-12.2848
-12.2298
-12.1741
-12.1194
-12.0676
-12.0218
-11.9855
-11.9625
-11.957
-11.9781
-12.036
-13.4621
-13.5242
-13.5432
-13.532
-13.5024
-13.4601
-13.4101
-13.3564
-13.3022
-13.2496
-13.1999
-13.1537
-13.1115
-13.073
-13.0383
-13.0069
-12.9785
-12.9526
-12.9289
-12.9067
-12.8858
-12.8657
-12.8459
-12.8262
-12.8061
-12.7853
-12.7634
-12.7401
-12.7152
-12.6882
-12.6589
-12.627
-12.5922
-12.5541
-12.5126
-12.4674
-12.4182
-12.3651
-12.3079
-12.247
-12.1829
-12.1164
-12.0492
-11.9836
-11.9229
-11.8719
-11.8356
-11.8202
-11.8387
-11.9054
-13.5906
-13.664
-13.6785
-13.6537
-13.6072
-13.5472
-13.4803
-13.4118
-13.345
-13.2821
-13.224
-13.1713
-13.1238
-13.0815
-13.0438
-13.0101
-12.9801
-12.953
-12.9283
-12.9056
-12.8843
-12.864
-12.8441
-12.8243
-12.8041
-12.7833
-12.7613
-12.7379
-12.7128
-12.6854
-12.6555
-12.6227
-12.5867
-12.547
-12.5033
-12.4551
-12.4022
-12.3441
-12.2806
-12.2116
-12.1375
-12.0587
-11.9768
-11.894
-11.8141
-11.7427
-11.6868
-11.6554
-11.6675
-11.744
-13.7581
-13.843
-13.8464
-13.7987
-13.7265
-13.6418
-13.5531
-13.4662
-13.3846
-13.3099
-13.2429
-13.1834
-13.1309
-13.0849
-13.0445
-13.009
-12.9777
-12.9498
-12.9247
-12.9017
-12.8804
-12.8601
-12.8404
-12.8209
-12.801
-12.7805
-12.7588
-12.7356
-12.7106
-12.6832
-12.6532
-12.62
-12.5832
-12.5424
-12.497
-12.4464
-12.39
-12.3273
-12.2576
-12.1805
-12.0957
-12.0034
-11.9043
-11.8005
-11.6958
-11.5966
-11.5119
-11.4545
-11.4524
-11.5384
-13.9861
-14.0783
-14.0567
-13.971
-13.8606
-13.742
-13.6252
-13.5162
-13.4177
-13.3305
-13.2543
-13.1883
-13.1313
-13.0821
-13.0397
-13.0029
-12.9709
-12.9427
-12.9176
-12.8948
-12.8739
-12.8541
-12.835
-12.8161
-12.7969
-12.777
-12.756
-12.7334
-12.7089
-12.682
-12.6522
-12.6192
-12.5822
-12.5408
-12.4943
-12.442
-12.3829
-12.3163
-12.241
-12.1561
-12.0606
-11.9537
-11.8354
-11.7066
-11.5705
-11.4336
-11.3065
-11.2068
-11.1757
-11.2656
-14.3139
-14.3953
-14.3213
-14.173
-14.0066
-13.8426
-13.6911
-13.5566
-13.44
-13.3403
-13.2556
-13.1839
-13.1233
-13.072
-13.0285
-12.9912
-12.9592
-12.9314
-12.9069
-12.885
-12.8649
-12.8461
-12.828
-12.8101
-12.7919
-12.7731
-12.7531
-12.7316
-12.708
-12.682
-12.6531
-12.6207
-12.5842
-12.543
-12.4962
-12.4431
-12.3824
-12.3129
-12.2331
-12.1414
-12.0359
-11.9145
-11.7756
-11.6183
-11.4437
-11.2567
-11.0683
-10.9002
-10.8107
-10.884
-14.8137
-14.832
-14.6518
-14.4024
-14.156
-13.9337
-13.7417
-13.58
-13.4458
-13.335
-13.2436
-13.1681
-13.1056
-13.0536
-13.0102
-12.9736
-12.9425
-12.9159
-12.8927
-12.8721
-12.8534
-12.8361
-12.8194
-12.803
-12.7864
-12.769
-12.7505
-12.7304
-12.7083
-12.6838
-12.6562
-12.6251
-12.5898
-12.5496
-12.5036
-12.4507
-12.3897
-12.3189
-12.2365
-12.1399
-12.0263
-11.8919
-11.733
-11.5454
-11.326
-11.0753
-10.8001
-10.5227
-10.3182
-10.3179
-15.6165
-15.4387
-15.0562
-14.6497
-14.2935
-14.0004
-13.7649
-13.5776
-13.4289
-13.3105
-13.2156
-13.1391
-13.0771
-13.0263
-12.9846
-12.9499
-12.9209
-12.8963
-12.8751
-12.8566
-12.8399
-12.8245
-12.8098
-12.7953
-12.7805
-12.765
-12.7484
-12.7303
-12.7101
-12.6874
-12.6618
-12.6326
-12.5993
-12.561
-12.5168
-12.4656
-12.4059
-12.3359
-12.2532
-12.1547
-12.0364
-11.8928
-11.7171
-11.5006
-11.2334
-10.9056
-10.5121
-10.0666
-9.64696
-9.43303
-17.0194
-16.2561
-15.5103
-14.8818
-14.3887
-14.019
-13.7445
-13.539
-13.3831
-13.2633
-13.1699
-13.0963
-13.0376
-12.9904
-12.952
-12.9207
-12.8948
-12.8731
-12.8547
-12.8388
-12.8247
-12.8117
-12.7994
-12.7872
-12.7748
-12.7616
-12.7472
-12.7313
-12.7135
-12.6932
-12.6701
-12.6435
-12.6128
-12.5773
-12.5361
-12.488
-12.4314
-12.3646
-12.2847
-12.1884
-12.0706
-11.9242
-11.7394
-11.5018
-11.1915
-10.7808
-10.2399
-9.55842
-8.75699
-7.92415
-19.8525
-17.2535
-15.8332
-14.9445
-14.3338
-13.9192
-13.6358
-13.4356
-13.2897
-13.1806
-13.0973
-13.0326
-12.9818
-12.9414
-12.909
-12.883
-12.8618
-12.8444
-12.8299
-12.8176
-12.8069
-12.7971
-12.7878
-12.7786
-12.7691
-12.7588
-12.7473
-12.7344
-12.7195
-12.7024
-12.6825
-12.6594
-12.6325
-12.6011
-12.5644
-12.5213
-12.4705
-12.4102
-12.3378
-12.25
-12.1416
-12.0051
-11.8289
-11.5948
-11.2725
-10.8117
-10.1433
-9.1826
-7.67541
-4.95517
-24.7214
-18.3367
-15.6692
-14.5677
-13.9669
-13.6078
-13.3836
-13.2333
-13.1261
-13.0464
-12.9857
-12.9387
-12.9018
-12.8728
-12.85
-12.832
-12.8178
-12.8066
-12.7977
-12.7905
-12.7844
-12.7791
-12.774
-12.7688
-12.7632
-12.7568
-12.7492
-12.7402
-12.7294
-12.7165
-12.7011
-12.6828
-12.6611
-12.6356
-12.6056
-12.5704
-12.5288
-12.4795
-12.4209
-12.3502
-12.2638
-12.156
-12.0175
-11.832
-11.5676
-11.1605
-10.4943
-9.2978
-6.51215
8.86638e-05
)
;

boundaryField
{
    movingWallTop
    {
        type            zeroGradient;
    }
    movingWallBottom
    {
        type            zeroGradient;
    }
    fixedWalls
    {
        type            zeroGradient;
    }
    frontAndBack
    {
        type            empty;
    }
}


// ************************************************************************* //
