/*--------------------------------*- C++ -*----------------------------------*\
  =========                 |
  \\      /  F ield         | OpenFOAM: The Open Source CFD Toolbox
   \\    /   O peration     | Website:  https://openfoam.org
    \\  /    A nd           | Version:  7
     \\/     M anipulation  |
\*---------------------------------------------------------------------------*/
FoamFile
{
    version     2.0;
    format      ascii;
    class       surfaceScalarField;
    location    "0.0782";
    object      phi;
}
// * * * * * * * * * * * * * * * * * * * * * * * * * * * * * * * * * * * * * //

dimensions      [0 3 -1 0 0 0 0];

internalField   nonuniform List<scalar> 
4900
(
-5.55535e-06
5.55532e-06
-1.01609e-05
4.60558e-06
-1.29489e-05
2.78794e-06
-1.46696e-05
1.72069e-06
-1.57727e-05
1.10316e-06
-1.65124e-05
7.39639e-07
-1.70338e-05
5.21496e-07
-1.74191e-05
3.85256e-07
-1.77147e-05
2.95607e-07
-1.79482e-05
2.33514e-07
-1.81368e-05
1.88547e-07
-1.82915e-05
1.54736e-07
-1.842e-05
1.28496e-07
-1.85276e-05
1.07565e-07
-1.8618e-05
9.04555e-08
-1.86942e-05
7.61474e-08
-1.87581e-05
6.3922e-08
-1.88114e-05
5.32573e-08
-1.88551e-05
4.37655e-08
-1.88903e-05
3.5152e-08
-1.89175e-05
2.71881e-08
-1.89372e-05
1.96924e-08
-1.89497e-05
1.25173e-08
-1.89552e-05
5.53926e-09
-1.89539e-05
-1.34976e-09
-1.89456e-05
-8.24511e-09
-1.89304e-05
-1.52407e-08
-1.89079e-05
-2.2429e-08
-1.8878e-05
-2.99093e-08
-1.88402e-05
-3.77933e-08
-1.8794e-05
-4.6213e-08
-1.87387e-05
-5.53313e-08
-1.86733e-05
-6.5355e-08
-1.85968e-05
-7.6555e-08
-1.85075e-05
-8.92936e-08
-1.84034e-05
-1.04067e-07
-1.82819e-05
-1.21572e-07
-1.8139e-05
-1.4281e-07
-1.79698e-05
-1.69266e-07
-1.77666e-05
-2.03223e-07
-1.75182e-05
-2.48335e-07
-1.72075e-05
-3.10692e-07
-1.68066e-05
-4.00882e-07
-1.62687e-05
-5.37954e-07
-1.55123e-05
-7.56403e-07
-1.43964e-05
-1.11593e-06
-1.26814e-05
-1.71497e-06
-9.9458e-06
-2.73559e-06
-5.45242e-06
-4.49338e-06
-5.45242e-06
-1.18945e-08
5.56722e-06
-2.13089e-06
6.72457e-06
-4.85892e-06
5.51598e-06
-7.27762e-06
4.13939e-06
-9.21786e-06
3.0434e-06
-1.07323e-05
2.25409e-06
-1.19142e-05
1.70337e-06
-1.28464e-05
1.3175e-06
-1.35923e-05
1.04153e-06
-1.41979e-05
8.39019e-07
-1.46957e-05
6.86401e-07
-1.51094e-05
5.68405e-07
-1.54558e-05
4.74963e-07
-1.57476e-05
3.99285e-07
-1.59938e-05
3.36678e-07
-1.62015e-05
2.83819e-07
-1.63758e-05
2.38301e-07
-1.65209e-05
1.98342e-07
-1.66398e-05
1.62601e-07
-1.67347e-05
1.30044e-07
-1.68073e-05
9.986e-08
-1.6859e-05
7.14021e-08
-1.68907e-05
4.41386e-08
-1.69027e-05
1.76221e-08
-1.68955e-05
-8.53666e-09
-1.68691e-05
-3.46921e-08
-1.68232e-05
-6.11808e-08
-1.67573e-05
-8.83415e-08
-1.66706e-05
-1.16534e-07
-1.65623e-05
-1.4616e-07
-1.64308e-05
-1.77692e-07
-1.62744e-05
-2.11705e-07
-1.60908e-05
-2.48924e-07
-1.58771e-05
-2.90283e-07
-1.56294e-05
-3.37013e-07
-1.53427e-05
-3.90771e-07
-1.50104e-05
-4.53826e-07
-1.46239e-05
-5.29346e-07
-1.41713e-05
-6.21838e-07
-1.36367e-05
-7.3786e-07
-1.29979e-05
-8.87142e-07
-1.22242e-05
-1.08438e-06
-1.1273e-05
-1.35204e-06
-1.00866e-05
-1.72437e-06
-8.59107e-06
-2.25195e-06
-6.7063e-06
-3.0007e-06
-4.39265e-06
-4.02862e-06
-1.81824e-06
-5.31001e-06
1.24472e-07
-6.43609e-06
-5.32794e-06
1.03228e-06
4.53494e-06
5.46147e-07
7.21071e-06
-9.94348e-07
7.05647e-06
-2.89183e-06
6.03687e-06
-4.7525e-06
4.90406e-06
-6.4158e-06
3.91738e-06
-7.84224e-06
3.12982e-06
-9.04483e-06
2.52008e-06
-1.00538e-05
2.05054e-06
-1.09014e-05
1.68654e-06
-1.16157e-05
1.40077e-06
-1.22202e-05
1.17291e-06
-1.27334e-05
9.88136e-07
-1.31698e-05
8.35693e-07
-1.35408e-05
7.07706e-07
-1.38554e-05
5.98355e-07
-1.41204e-05
5.0328e-07
-1.43412e-05
4.1917e-07
-1.45221e-05
3.43473e-07
-1.46662e-05
2.74192e-07
-1.47761e-05
2.0974e-07
-1.48535e-05
1.4883e-07
-1.48998e-05
9.04003e-08
-1.49157e-05
3.35483e-08
-1.49017e-05
-2.25142e-08
-1.48579e-05
-7.85053e-08
-1.4784e-05
-1.35108e-07
-1.46793e-05
-1.93004e-07
-1.4543e-05
-2.52913e-07
-1.43735e-05
-3.15634e-07
-1.41691e-05
-3.82089e-07
-1.39274e-05
-4.53391e-07
-1.36454e-05
-5.30915e-07
-1.33193e-05
-6.16406e-07
-1.29442e-05
-7.1212e-07
-1.25139e-05
-8.21014e-07
-1.20207e-05
-9.47023e-07
-1.14546e-05
-1.09544e-06
-1.0803e-05
-1.27347e-06
-1.00499e-05
-1.49094e-06
-9.17568e-06
-1.76139e-06
-8.15683e-06
-2.10323e-06
-6.96792e-06
-2.54094e-06
-5.58726e-06
-3.10503e-06
-4.01153e-06
-3.82768e-06
-2.28743e-06
-4.72479e-06
-5.72132e-07
-5.74392e-06
7.67214e-07
-6.64936e-06
1.08795e-06
-6.75682e-06
-4.24e-06
9.05904e-07
3.62903e-06
1.22675e-06
6.88986e-06
6.39234e-07
7.64399e-06
-5.30766e-07
7.20687e-06
-1.95431e-06
6.3276e-06
-3.41307e-06
5.37615e-06
-4.78999e-06
4.50674e-06
-6.03522e-06
3.76532e-06
-7.13612e-06
3.15144e-06
-8.09795e-06
2.64838e-06
-8.93323e-06
2.23605e-06
-9.65629e-06
1.89598e-06
-1.02809e-05
1.61274e-06
-1.08192e-05
1.37399e-06
-1.12815e-05
1.17003e-06
-1.16764e-05
9.93293e-07
-1.2011e-05
8.37854e-07
-1.22909e-05
6.99056e-07
-1.25206e-05
5.73212e-07
-1.27038e-05
4.57369e-07
-1.28432e-05
3.49137e-07
-1.29409e-05
2.46551e-07
-1.29985e-05
1.47968e-07
-1.30169e-05
5.19794e-08
-1.29968e-05
-4.26505e-08
-1.29383e-05
-1.37049e-07
-1.28411e-05
-2.32285e-07
-1.27047e-05
-3.29423e-07
-1.2528e-05
-4.29571e-07
-1.23097e-05
-5.33942e-07
-1.20479e-05
-6.43919e-07
-1.17401e-05
-7.61135e-07
-1.13835e-05
-8.87572e-07
-1.09742e-05
-1.02569e-06
-1.05077e-05
-1.17858e-06
-9.97854e-06
-1.35019e-06
-9.38001e-06
-1.54556e-06
-8.70427e-06
-1.77118e-06
-7.94234e-06
-2.03539e-06
-7.0845e-06
-2.34878e-06
-6.12139e-06
-2.7245e-06
-5.04647e-06
-3.17815e-06
-3.86111e-06
-3.7263e-06
-2.58417e-06
-4.38198e-06
-1.26869e-06
-5.14317e-06
-2.69713e-08
-5.96651e-06
9.42868e-07
-6.71376e-06
1.34961e-06
-7.0561e-06
9.17162e-07
-6.32438e-06
-3.32284e-06
6.71088e-07
2.95794e-06
1.24095e-06
6.31999e-06
1.21752e-06
7.66742e-06
6.41598e-07
7.7828e-06
-2.99288e-07
7.26849e-06
-1.4227e-06
6.49956e-06
-2.59619e-06
5.68023e-06
-3.73833e-06
4.90746e-06
-4.80553e-06
4.21864e-06
-5.77841e-06
3.62125e-06
-6.65158e-06
3.10923e-06
-7.42718e-06
2.67157e-06
-8.11082e-06
2.29638e-06
-8.70942e-06
1.97259e-06
-9.22998e-06
1.69059e-06
-9.67901e-06
1.44232e-06
-1.00623e-05
1.22111e-06
-1.03847e-05
1.02148e-06
-1.06504e-05
8.38929e-07
-1.08628e-05
6.69767e-07
-1.10246e-05
5.10925e-07
-1.11379e-05
3.59837e-07
-1.12042e-05
2.14326e-07
-1.12248e-05
7.25082e-08
-1.12001e-05
-6.72829e-08
-1.11306e-05
-2.06568e-07
-1.10161e-05
-3.46786e-07
-1.08562e-05
-4.89354e-07
-1.065e-05
-6.35735e-07
-1.03965e-05
-7.87498e-07
-1.0094e-05
-9.46401e-07
-9.74065e-06
-1.11447e-06
-9.3341e-06
-1.29412e-06
-8.87157e-06
-1.48823e-06
-8.34982e-06
-1.70033e-06
-7.76524e-06
-1.93476e-06
-7.11399e-06
-2.19681e-06
-6.39229e-06
-2.49289e-06
-5.59706e-06
-2.83062e-06
-4.72709e-06
-3.21875e-06
-3.78511e-06
-3.66649e-06
-2.78123e-06
-4.18203e-06
-1.73856e-06
-4.76897e-06
-7.01492e-07
-5.41904e-06
2.53543e-07
-6.0982e-06
1.00856e-06
-6.72152e-06
1.40719e-06
-7.11239e-06
1.29712e-06
-6.94603e-06
6.66616e-07
-5.69388e-06
-2.65622e-06
4.79547e-07
2.4784e-06
1.07279e-06
5.72675e-06
1.33387e-06
7.40634e-06
1.16241e-06
7.95426e-06
6.26132e-07
7.80477e-06
-1.56272e-07
7.28196e-06
-1.07269e-06
6.59665e-06
-2.03766e-06
5.87242e-06
-2.99351e-06
5.1745e-06
-3.90488e-06
4.53262e-06
-4.75217e-06
3.95652e-06
-5.52608e-06
3.44547e-06
-6.22358e-06
2.99388e-06
-6.84529e-06
2.5943e-06
-7.39373e-06
2.23903e-06
-7.87224e-06
1.92084e-06
-8.28441e-06
1.63328e-06
-8.63366e-06
1.37073e-06
-8.92313e-06
1.1284e-06
-9.15552e-06
9.02161e-07
-9.33313e-06
6.88531e-07
-9.4578e-06
4.84512e-07
-9.531e-06
2.87519e-07
-9.55378e-06
9.52888e-08
-9.52686e-06
-9.41954e-08
-9.45065e-06
-2.82778e-07
-9.32524e-06
-4.72198e-07
-9.15044e-06
-6.64152e-07
-8.92582e-06
-8.6036e-07
-8.65068e-06
-1.06264e-06
-8.32412e-06
-1.27296e-06
-7.94503e-06
-1.49356e-06
-7.51215e-06
-1.72699e-06
-7.02416e-06
-1.97621e-06
-6.47978e-06
-2.24471e-06
-5.87801e-06
-2.53654e-06
-5.21848e-06
-2.85634e-06
-4.50208e-06
-3.20929e-06
-3.73187e-06
-3.60083e-06
-2.91459e-06
-4.03602e-06
-2.06287e-06
-4.51821e-06
-1.19842e-06
-5.04649e-06
-3.56213e-07
-5.61117e-06
4.10693e-07
-6.18595e-06
1.02764e-06
-6.71514e-06
1.40085e-06
-7.09473e-06
1.43609e-06
-7.14762e-06
1.08923e-06
-6.59917e-06
4.69622e-07
-5.07427e-06
-2.1866e-06
3.47054e-07
2.13134e-06
8.86953e-07
5.18685e-06
1.26855e-06
7.02474e-06
1.34452e-06
7.87829e-06
1.10731e-06
8.04198e-06
6.17043e-07
7.77223e-06
-4.69333e-08
7.26063e-06
-8.11131e-07
6.63662e-06
-1.61733e-06
5.9807e-06
-2.42352e-06
5.33881e-06
-3.20147e-06
4.73447e-06
-3.93344e-06
4.17744e-06
-4.60911e-06
3.66955e-06
-5.22315e-06
3.20834e-06
-5.77343e-06
2.78931e-06
-6.25977e-06
2.40717e-06
-6.6831e-06
2.05661e-06
-7.04492e-06
1.73256e-06
-7.34695e-06
1.43042e-06
-7.5909e-06
1.14611e-06
-7.77836e-06
8.75989e-07
-7.91072e-06
6.16875e-07
-7.98916e-06
3.6596e-07
-8.01463e-06
1.20749e-07
-7.98782e-06
-1.21002e-07
-7.90925e-06
-3.61349e-07
-7.77923e-06
-6.02219e-07
-7.59791e-06
-8.45473e-07
-7.3653e-06
-1.09296e-06
-7.08134e-06
-1.3466e-06
-6.74591e-06
-1.6084e-06
-6.35893e-06
-1.88054e-06
-5.92046e-06
-2.16546e-06
-5.43086e-06
-2.46581e-06
-4.891e-06
-2.78458e-06
-4.3026e-06
-3.12494e-06
-3.66871e-06
-3.49022e-06
-2.99445e-06
-3.88355e-06
-2.28798e-06
-4.30731e-06
-1.5619e-06
-4.7621e-06
-8.35098e-07
-5.24501e-06
-1.34894e-07
-5.74669e-06
5.00701e-07
-6.24677e-06
1.0217e-06
-6.70695e-06
1.36786e-06
-7.0613e-06
1.47729e-06
-7.20416e-06
1.30811e-06
-6.97844e-06
8.79694e-07
-6.17076e-06
3.35296e-07
-4.52987e-06
-1.8513e-06
2.59596e-07
1.87175e-06
7.28613e-07
4.71784e-06
1.14473e-06
6.60863e-06
1.35988e-06
7.66314e-06
1.32777e-06
8.07409e-06
1.06603e-06
8.03397e-06
6.22344e-07
7.70431e-06
5.19801e-08
7.20699e-06
-5.9422e-07
6.6269e-06
-1.27471e-06
6.0193e-06
-1.95799e-06
5.41774e-06
-2.62145e-06
4.8409e-06
-3.24964e-06
4.29774e-06
-3.83249e-06
3.79119e-06
-4.3638e-06
3.32061e-06
-4.84004e-06
2.88341e-06
-5.25947e-06
2.47604e-06
-5.62152e-06
2.0946e-06
-5.9263e-06
1.73521e-06
-6.17434e-06
1.39415e-06
-6.36637e-06
1.06801e-06
-6.50317e-06
7.53675e-07
-6.58552e-06
4.48315e-07
-6.61416e-06
1.49385e-07
-6.58973e-06
-1.45432e-07
-6.51281e-06
-4.38261e-07
-6.38395e-06
-7.31086e-07
-6.20362e-06
-1.0258e-06
-5.97236e-06
-1.32423e-06
-5.69075e-06
-1.62821e-06
-5.35952e-06
-1.93962e-06
-4.97968e-06
-2.26038e-06
-4.55264e-06
-2.5925e-06
-4.08039e-06
-2.93806e-06
-3.56583e-06
-3.29913e-06
-3.01311e-06
-3.67766e-06
-2.42813e-06
-4.0752e-06
-1.81925e-06
-4.49243e-06
-1.19811e-06
-4.92844e-06
-5.80743e-07
-5.37947e-06
1.13043e-08
-5.83706e-06
5.49891e-07
-6.28528e-06
9.99833e-07
-6.69671e-06
1.32007e-06
-7.02719e-06
1.46811e-06
-7.20934e-06
1.41018e-06
-7.14623e-06
1.13984e-06
-6.7081e-06
7.06216e-07
-5.73714e-06
2.46816e-07
-4.07047e-06
-1.60448e-06
2.01239e-07
1.67051e-06
6.03207e-07
4.31587e-06
1.0127e-06
6.19914e-06
1.29876e-06
7.37707e-06
1.39982e-06
7.97303e-06
1.30684e-06
8.12695e-06
1.04241e-06
7.96874e-06
6.43553e-07
7.60584e-06
1.50321e-07
7.12013e-06
-4.005e-07
6.57012e-06
-9.78108e-07
5.99535e-06
-1.55823e-06
5.42102e-06
-2.12258e-06
4.8621e-06
-2.6579e-06
4.32651e-06
-3.15486e-06
3.81758e-06
-3.60715e-06
3.3357e-06
-4.01063e-06
2.87953e-06
-4.36277e-06
2.44673e-06
-4.66208e-06
2.03452e-06
-4.90788e-06
1.63995e-06
-5.09993e-06
1.26007e-06
-5.23836e-06
8.921e-07
-5.32347e-06
5.33423e-07
-5.3557e-06
1.81623e-07
-5.33562e-06
-1.6552e-07
-5.26382e-06
-5.10054e-07
-5.14103e-06
-8.53873e-07
-4.96808e-06
-1.19875e-06
-4.74596e-06
-1.54635e-06
-4.47588e-06
-1.89829e-06
-4.1594e-06
-2.2561e-06
-3.79853e-06
-2.62126e-06
-3.39587e-06
-2.99516e-06
-2.95488e-06
-3.37905e-06
-2.48013e-06
-3.77389e-06
-1.97765e-06
-4.18014e-06
-1.45541e-06
-4.59745e-06
-9.23833e-07
-5.02401e-06
-3.96446e-07
-5.45583e-06
1.09496e-07
-5.88541e-06
5.72493e-07
-6.30006e-06
9.66689e-07
-6.67947e-06
1.26266e-06
-6.99268e-06
1.42989e-06
-7.19442e-06
1.44199e-06
-7.22144e-06
1.28593e-06
-6.99017e-06
9.7585e-07
-6.39802e-06
5.704e-07
-5.33169e-06
1.87581e-07
-3.68765e-06
-1.4169e-06
1.61008e-07
1.5095e-06
5.05585e-07
3.97129e-06
8.90696e-07
5.81403e-06
1.20674e-06
7.06102e-06
1.38983e-06
7.78995e-06
1.41628e-06
8.1005e-06
1.291e-06
8.09402e-06
1.0356e-06
7.86125e-06
6.79007e-07
7.47672e-06
2.51279e-07
6.99785e-06
-2.19969e-07
6.4666e-06
-7.11162e-07
5.91222e-06
-1.20316e-06
5.3541e-06
-1.68101e-06
4.80436e-06
-2.13337e-06
4.26993e-06
-2.55185e-06
3.75418e-06
-2.9304e-06
3.25808e-06
-3.26479e-06
2.78112e-06
-3.55212e-06
2.32186e-06
-3.79053e-06
1.87835e-06
-3.97886e-06
1.44841e-06
-4.11654e-06
1.02978e-06
-4.20338e-06
6.20262e-07
-4.23951e-06
2.17752e-07
-4.22531e-06
-1.79716e-07
-4.16141e-06
-5.73959e-07
-4.04864e-06
-9.66639e-07
-3.88811e-06
-1.35928e-06
-3.68123e-06
-1.75324e-06
-3.42975e-06
-2.14976e-06
-3.13594e-06
-2.54991e-06
-2.80263e-06
-2.95457e-06
-2.43342e-06
-3.36436e-06
-2.03289e-06
-3.77957e-06
-1.60684e-06
-4.19994e-06
-1.16259e-06
-4.6244e-06
-7.09314e-07
-5.05072e-06
-2.58457e-07
-5.47487e-06
1.75949e-07
-5.89023e-06
5.7702e-07
-6.28648e-06
9.25041e-07
-6.64808e-06
1.19801e-06
-6.95244e-06
1.3731e-06
-7.16777e-06
1.42955e-06
-7.25087e-06
1.3536e-06
-7.14549e-06
1.14581e-06
-6.78238e-06
8.30459e-07
-6.08268e-06
4.65239e-07
-4.96647e-06
1.46554e-07
-3.36897e-06
-1.27035e-06
1.32175e-07
1.37732e-06
4.29181e-07
3.67429e-06
7.83619e-07
5.45959e-06
1.1059e-06
6.73874e-06
1.33608e-06
7.55977e-06
1.44384e-06
7.99274e-06
1.42272e-06
8.11514e-06
1.28254e-06
8.00142e-06
1.0424e-06
7.71686e-06
7.25251e-07
7.315e-06
3.54314e-07
6.83754e-06
-4.90441e-08
6.31557e-06
-4.66307e-07
5.77136e-06
-8.821e-07
5.22016e-06
-1.28406e-06
4.6719e-06
-1.66252e-06
4.13263e-06
-2.01005e-06
3.60561e-06
-2.3211e-06
3.09217e-06
-2.59161e-06
2.59237e-06
-2.81868e-06
2.10542e-06
-3.00034e-06
1.63007e-06
-3.13535e-06
1.16478e-06
-3.22302e-06
7.07934e-07
-3.26316e-06
2.57887e-07
-3.25595e-06
-1.8692e-07
-3.20197e-06
-6.27939e-07
-3.10214e-06
-1.06647e-06
-2.95774e-06
-1.50367e-06
-2.77051e-06
-1.94047e-06
-2.54263e-06
-2.37764e-06
-2.2769e-06
-2.81565e-06
-1.97677e-06
-3.25469e-06
-1.64658e-06
-3.69456e-06
-1.29166e-06
-4.1345e-06
-9.18567e-07
-4.57303e-06
-5.3532e-07
-5.00765e-06
-1.51605e-07
-5.43443e-06
2.21013e-07
-5.84749e-06
5.68973e-07
-6.23819e-06
8.76778e-07
-6.59429e-06
1.12738e-06
-6.89868e-06
1.30309e-06
-7.12815e-06
1.38728e-06
-7.25196e-06
1.36718e-06
-7.23077e-06
1.23801e-06
-7.01631e-06
1.00833e-06
-6.55269e-06
7.06024e-07
-5.78037e-06
3.83238e-07
-4.64368e-06
1.17045e-07
-3.10277e-06
-1.1533e-06
1.10695e-07
1.26663e-06
3.68448e-07
3.41653e-06
6.91199e-07
5.13684e-06
1.00629e-06
6.42365e-06
1.26023e-06
7.30583e-06
1.42087e-06
7.83209e-06
1.47514e-06
8.06087e-06
1.42451e-06
8.05205e-06
1.28009e-06
7.86129e-06
1.05832e-06
7.53677e-06
7.77705e-07
7.11815e-06
4.56631e-07
6.63665e-06
1.12029e-07
6.11596e-06
-2.41266e-07
5.57345e-06
-5.90724e-07
5.02136e-06
-9.26066e-07
4.46797e-06
-1.23905e-06
3.9186e-06
-1.52323e-06
3.37635e-06
-1.77364e-06
2.84278e-06
-1.98659e-06
2.31837e-06
-2.15939e-06
1.80287e-06
-2.29022e-06
1.29561e-06
-2.37795e-06
7.95662e-07
-2.42204e-06
3.0198e-07
-2.42249e-06
-1.86475e-07
-2.37975e-06
-6.70673e-07
-2.29477e-06
-1.15145e-06
-2.16895e-06
-1.62949e-06
-2.00422e-06
-2.10521e-06
-1.80305e-06
-2.57881e-06
-1.56858e-06
-3.05012e-06
-1.3047e-06
-3.51858e-06
-1.01614e-06
-3.98311e-06
-7.08681e-07
-4.44196e-06
-3.89216e-07
-4.89249e-06
-6.59523e-08
-5.33091e-06
2.51499e-07
-5.75189e-06
5.52064e-07
-6.14805e-06
8.23279e-07
-6.50941e-06
1.05156e-06
-6.82256e-06
1.22278e-06
-7.06991e-06
1.32337e-06
-7.22873e-06
1.34192e-06
-7.27052e-06
1.2717e-06
-7.16055e-06
1.11378e-06
-6.85839e-06
8.80827e-07
-6.31974e-06
6.00648e-07
-5.50019e-06
3.1834e-07
-4.36137e-06
9.50362e-08
-2.87947e-06
-1.05827e-06
9.41094e-08
1.17252e-06
3.19208e-07
3.19143e-06
6.11482e-07
4.84456e-06
9.12002e-07
6.12313e-06
1.17426e-06
7.04357e-06
1.36701e-06
7.63934e-06
1.47381e-06
7.95406e-06
1.49062e-06
8.03525e-06
1.42247e-06
7.92944e-06
1.28028e-06
7.67896e-06
1.07811e-06
7.32032e-06
8.31094e-07
6.88366e-06
5.54065e-07
6.39299e-06
2.60682e-07
5.86683e-06
-3.69948e-08
5.31903e-06
-3.28662e-07
4.75964e-06
-6.05746e-07
4.19568e-06
-8.6128e-07
3.63188e-06
-1.08973e-06
3.07123e-06
-1.2868e-06
2.51543e-06
-1.44927e-06
1.96534e-06
-1.57483e-06
1.42117e-06
-1.66195e-06
8.82789e-07
-1.70981e-06
3.49834e-07
-1.71816e-06
-1.78122e-07
-1.68735e-06
-7.01482e-07
-1.61826e-06
-1.22054e-06
-1.51233e-06
-1.73542e-06
-1.37156e-06
-2.24598e-06
-1.19858e-06
-2.75178e-06
-9.96704e-07
-3.25199e-06
-7.69999e-07
-3.74528e-06
-5.23389e-07
-4.22972e-06
-2.62743e-07
-4.7026e-06
5.03654e-09
-5.16027e-06
2.71946e-07
-5.59782e-06
5.2886e-07
-6.0088e-06
7.65595e-07
-6.38479e-06
9.71105e-07
-6.71492e-06
1.13388e-06
-6.98534e-06
1.24261e-06
-7.17864e-06
1.28727e-06
-7.2734e-06
1.26059e-06
-7.24383e-06
1.16005e-06
-7.06e-06
9.90237e-07
-6.68859e-06
7.65378e-07
-6.09488e-06
5.11289e-07
-5.2461e-06
2.66044e-07
-4.11613e-06
7.80721e-08
-2.6915e-06
-9.80195e-07
8.08844e-08
1.09163e-06
2.7843e-07
2.99389e-06
5.42206e-07
4.58079e-06
8.24235e-07
5.8411e-06
1.08464e-06
6.78316e-06
1.29444e-06
7.42955e-06
1.43596e-06
7.81253e-06
1.50178e-06
7.96944e-06
1.49256e-06
7.93865e-06
1.41482e-06
7.7567e-06
1.2787e-06
7.45645e-06
1.09619e-06
7.06617e-06
8.79817e-07
6.60936e-06
6.41714e-07
6.10494e-06
3.93035e-07
5.56771e-06
1.43671e-07
5.009e-06
-9.78716e-08
4.43722e-06
-3.24459e-07
3.85847e-06
-5.30253e-07
3.27702e-06
-7.10596e-07
2.69578e-06
-8.61886e-07
2.11663e-06
-9.8145e-07
1.54074e-06
-1.06744e-06
9.68782e-07
-1.11875e-06
4.01144e-07
-1.13494e-06
-1.61935e-07
-1.11618e-06
-7.20237e-07
-1.06327e-06
-1.27345e-06
-9.77582e-07
-1.82111e-06
-8.61104e-07
-2.36246e-06
-7.16475e-07
-2.89641e-06
-5.47019e-07
-3.42145e-06
-3.56805e-07
-3.9355e-06
-1.50703e-07
-4.43582e-06
6.55557e-08
-4.91886e-06
2.85346e-07
-5.38006e-06
5.01142e-07
-5.81362e-06
7.04566e-07
-6.21222e-06
8.86536e-07
-6.56676e-06
1.03753e-06
-6.86591e-06
1.14805e-06
-7.09585e-06
1.20927e-06
-7.23987e-06
1.21406e-06
-7.27818e-06
1.15818e-06
-7.18796e-06
1.04191e-06
-6.94372e-06
8.71671e-07
-6.51835e-06
6.61675e-07
-5.88489e-06
4.34922e-07
-5.01935e-06
2.23089e-07
-3.9043e-06
6.4608e-08
-2.53302e-06
-9.15587e-07
7.00318e-08
1.0216e-06
2.43936e-07
2.81998e-06
4.81305e-07
4.34342e-06
7.42872e-07
5.57954e-06
9.94713e-07
6.53132e-06
1.21066e-06
7.2136e-06
1.37318e-06
7.65002e-06
1.47296e-06
7.86965e-06
1.50773e-06
7.90388e-06
1.48061e-06
7.78382e-06
1.39849e-06
7.53857e-06
1.27053e-06
7.19413e-06
1.10698e-06
6.7729e-06
9.18292e-07
6.29363e-06
7.14452e-07
5.77155e-06
5.04637e-07
5.21882e-06
2.96984e-07
4.64488e-06
9.85095e-08
4.05694e-06
-8.48948e-08
3.46042e-06
-2.48407e-07
2.85929e-06
-3.88203e-07
2.25642e-06
-5.01364e-07
1.6539e-06
-5.85803e-07
1.05322e-06
-6.40182e-07
4.55523e-07
-6.63861e-07
-1.38256e-07
-6.56851e-07
-7.27246e-07
-6.19793e-07
-1.31051e-06
-5.53944e-07
-1.88696e-06
-4.61186e-07
-2.45522e-06
-3.44047e-07
-3.01355e-06
-2.05725e-07
-3.55977e-06
-5.01258e-08
-4.0911e-06
1.1811e-07
-4.60406e-06
2.93584e-07
-5.09434e-06
4.70139e-07
-5.55662e-06
6.40907e-07
-5.98438e-06
7.98404e-07
-6.36972e-06
9.3472e-07
-6.70307e-06
1.04182e-06
-6.97302e-06
1.11202e-06
-7.16604e-06
1.13858e-06
-7.26642e-06
1.11658e-06
-7.25618e-06
1.04394e-06
-7.11532e-06
9.2259e-07
-6.82238e-06
7.59662e-07
-6.35542e-06
5.68458e-07
-5.69368e-06
3.68907e-07
-4.8198e-06
1.87113e-07
-3.7225e-06
5.36348e-08
-2.39954e-06
-8.61952e-07
6.08924e-08
9.60711e-07
2.1415e-07
2.66673e-06
4.27037e-07
4.13053e-06
6.67258e-07
5.33931e-06
9.06069e-07
6.29251e-06
1.12028e-06
6.99939e-06
1.29324e-06
7.47706e-06
1.41487e-06
7.74803e-06
1.48099e-06
7.83777e-06
1.49225e-06
7.77255e-06
1.45296e-06
7.57786e-06
1.36983e-06
7.27726e-06
1.25102e-06
6.89172e-06
1.10527e-06
6.43938e-06
9.41298e-07
5.93552e-06
7.6738e-07
5.39274e-06
5.91067e-07
4.82119e-06
4.19039e-07
4.22897e-06
2.57042e-07
3.62242e-06
1.09887e-07
3.00645e-06
-1.85236e-08
2.38484e-06
-1.25141e-07
1.76052e-06
-2.07712e-07
1.13579e-06
-2.64724e-07
5.12536e-07
-2.95359e-07
-1.07622e-07
-2.99451e-07
-7.23154e-07
-2.77465e-07
-1.3325e-06
-2.30486e-07
-1.93394e-06
-1.60211e-07
-2.52549e-06
-6.89651e-08
-3.1048e-06
4.02915e-08
-3.66903e-06
1.63944e-07
-4.21475e-06
2.97717e-07
-4.73783e-06
4.36678e-07
-5.2333e-06
5.75268e-07
-5.69521e-06
7.07376e-07
-6.11649e-06
8.26465e-07
-6.48881e-06
9.2578e-07
-6.80239e-06
9.98659e-07
-7.0459e-06
1.03896e-06
-7.20634e-06
1.04161e-06
-7.26908e-06
1.00334e-06
-7.21791e-06
9.23474e-07
-7.03546e-06
8.04801e-07
-6.7037e-06
6.54391e-07
-6.20501e-06
4.84174e-07
-5.52347e-06
3.11063e-07
-4.64669e-06
1.56391e-07
-3.56783e-06
4.447e-08
-2.28762e-06
-8.17482e-07
5.30129e-08
9.07698e-07
1.87922e-07
2.53182e-06
3.77995e-07
3.94046e-06
5.96571e-07
5.12074e-06
8.19365e-07
6.06972e-06
1.0261e-06
6.79266e-06
1.20142e-06
7.30173e-06
1.33518e-06
7.61426e-06
1.42213e-06
7.75082e-06
1.4612e-06
7.73348e-06
1.45469e-06
7.58438e-06
1.4073e-06
7.32465e-06
1.32533e-06
6.97369e-06
1.21591e-06
6.5488e-06
1.08647e-06
6.06496e-06
9.44303e-07
5.53491e-06
7.96224e-07
4.96927e-06
6.48428e-07
4.37677e-06
5.06358e-07
3.76449e-06
3.7467e-07
3.13813e-06
2.57218e-07
2.50229e-06
1.57083e-07
1.86065e-06
7.66052e-08
1.21627e-06
1.74215e-08
5.7172e-07
-1.94965e-08
-7.07037e-08
-3.38112e-08
-7.08839e-07
-2.57955e-08
-1.34051e-06
3.68123e-09
-1.96341e-06
5.31599e-08
-2.57497e-06
1.20594e-07
-3.17223e-06
2.03344e-07
-3.75178e-06
2.98179e-07
-4.30959e-06
4.01285e-07
-4.84094e-06
5.08285e-07
-5.3403e-06
6.1429e-07
-5.80121e-06
7.13988e-07
-6.21619e-06
8.01783e-07
-6.5766e-06
8.72003e-07
-6.87261e-06
9.1919e-07
-7.09308e-06
9.38484e-07
-7.22564e-06
9.26107e-07
-7.2567e-06
8.79932e-07
-7.17174e-06
8.00118e-07
-6.95564e-06
6.89745e-07
-6.59333e-06
5.55357e-07
-6.07062e-06
4.0729e-07
-5.3754e-06
2.59628e-07
-4.49903e-06
1.29644e-07
-3.43784e-06
3.66368e-08
-2.19461e-06
-7.80846e-07
4.60727e-08
8.61625e-07
1.64402e-07
2.41349e-06
3.33058e-07
3.7718e-06
5.29989e-07
4.92381e-06
7.34751e-07
5.86496e-06
9.29785e-07
6.59763e-06
1.10126e-06
7.13025e-06
1.23944e-06
7.47609e-06
1.33856e-06
7.6517e-06
1.39644e-06
7.6756e-06
1.41389e-06
7.56693e-06
1.39399e-06
7.34454e-06
1.34145e-06
7.02623e-06
1.26197e-06
6.62828e-06
1.16172e-06
6.1652e-06
1.04698e-06
5.64965e-06
9.23763e-07
5.09248e-06
7.97678e-07
4.50285e-06
6.73754e-07
3.88841e-06
5.56374e-07
3.25551e-06
4.49244e-07
2.60942e-06
3.55389e-07
1.95451e-06
2.77165e-07
1.29449e-06
2.16283e-07
6.32601e-07
1.73837e-07
-2.8258e-08
1.50328e-07
-6.8533e-07
1.45681e-07
-1.33587e-06
1.59265e-07
-1.977e-06
1.89903e-07
-2.60561e-06
2.35872e-07
-3.2182e-06
2.94919e-07
-3.81082e-06
3.64258e-07
-4.37893e-06
4.40598e-07
-4.91728e-06
5.2017e-07
-5.41987e-06
5.98787e-07
-5.87983e-06
6.71939e-07
-6.28934e-06
7.34927e-07
-6.63959e-06
7.83058e-07
-6.92074e-06
8.11909e-07
-7.12193e-06
8.17654e-07
-7.23138e-06
7.97468e-07
-7.23651e-06
7.49979e-07
-7.12425e-06
6.75758e-07
-6.88142e-06
5.77777e-07
-6.49535e-06
4.61771e-07
-5.95461e-06
3.36411e-07
-5.25004e-06
2.13189e-07
-4.3758e-06
1.05913e-07
-3.33057e-06
2.97927e-08
-2.11849e-06
-7.51053e-07
3.984e-08
8.21785e-07
1.42955e-07
2.31037e-06
2.91335e-07
3.62342e-06
4.66769e-07
4.74837e-06
6.52122e-07
5.6796e-06
8.32351e-07
6.4174e-06
9.95223e-07
6.96738e-06
1.13169e-06
7.33962e-06
1.23591e-06
7.54748e-06
1.30505e-06
7.60645e-06
1.33886e-06
7.53312e-06
1.33917e-06
7.34423e-06
1.30936e-06
7.05604e-06
1.25386e-06
6.68378e-06
1.17769e-06
6.24137e-06
1.08612e-06
5.74122e-06
9.84368e-07
5.19424e-06
8.77377e-07
4.60984e-06
7.69687e-07
3.9961e-06
6.65327e-07
3.35987e-06
5.67772e-07
2.70697e-06
4.79914e-07
2.04236e-06
4.04065e-07
1.37034e-06
3.41962e-07
6.94704e-07
2.94789e-07
1.89149e-08
2.63192e-07
-6.53732e-07
2.47293e-07
-1.31997e-06
2.46714e-07
-1.97642e-06
2.60577e-07
-2.61947e-06
2.87523e-07
-3.24515e-06
3.25716e-07
-3.84902e-06
3.7286e-07
-4.42607e-06
4.2622e-07
-4.97064e-06
4.82661e-07
-5.47631e-06
5.38702e-07
-5.93587e-06
5.9061e-07
-6.34125e-06
6.34521e-07
-6.6835e-06
6.66614e-07
-6.95283e-06
6.83335e-07
-7.13865e-06
6.81672e-07
-7.22972e-06
6.59477e-07
-7.21432e-06
6.1583e-07
-7.0806e-06
5.51402e-07
-6.81699e-06
4.68791e-07
-6.41274e-06
3.72758e-07
-5.85858e-06
2.70324e-07
-5.14761e-06
1.70618e-07
-4.2761e-06
8.44685e-08
-3.24442e-06
2.36863e-08
-2.05771e-06
-7.27367e-07
3.41431e-08
7.87642e-07
1.23095e-07
2.22142e-06
2.52122e-07
3.4944e-06
4.06257e-07
4.59424e-06
5.71254e-07
5.51461e-06
7.34373e-07
6.25428e-06
8.84979e-07
6.81678e-06
1.0149e-06
7.20971e-06
1.11851e-06
7.44387e-06
1.19268e-06
7.53229e-06
1.23643e-06
7.48936e-06
1.25066e-06
7.33001e-06
1.23766e-06
7.06904e-06
1.20077e-06
6.72067e-06
1.14398e-06
6.29816e-06
1.07161e-06
5.81359e-06
9.88075e-07
5.27778e-06
8.97632e-07
4.70029e-06
8.04282e-07
4.08945e-06
7.11643e-07
3.45251e-06
6.22892e-07
2.79572e-06
5.4073e-07
2.12453e-06
4.67368e-07
1.4437e-06
4.04526e-07
7.57546e-07
3.53444e-07
6.99973e-08
3.1489e-07
-6.15178e-07
2.89177e-07
-1.29426e-06
2.76176e-07
-1.96342e-06
2.75324e-07
-2.61862e-06
2.85638e-07
-3.25546e-06
3.05723e-07
-3.8691e-06
3.33791e-07
-4.45414e-06
3.67682e-07
-5.00453e-06
4.04896e-07
-5.51352e-06
4.42649e-07
-5.97362e-06
4.77947e-07
-6.37655e-06
5.07695e-07
-6.71325e-06
5.28839e-07
-6.97398e-06
5.38547e-07
-7.14836e-06
5.34437e-07
-7.22561e-06
5.14825e-07
-7.19471e-06
4.79007e-07
-7.04479e-06
4.27534e-07
-6.76552e-06
3.62452e-07
-6.34765e-06
2.87469e-07
-5.7836e-06
2.07996e-07
-5.06813e-06
1.31014e-07
-4.19912e-06
6.47487e-08
-3.17815e-06
1.81287e-08
-2.01109e-06
-7.09238e-07
2.88524e-08
7.5879e-07
1.04448e-07
2.14583e-06
2.14853e-07
3.38399e-06
3.47896e-07
4.4612e-06
4.91877e-07
5.37063e-06
6.36171e-07
6.10998e-06
7.71709e-07
6.68124e-06
8.91296e-07
7.09012e-06
9.89745e-07
7.34542e-06
1.06385e-06
7.45818e-06
1.11223e-06
7.44099e-06
1.13506e-06
7.30718e-06
1.1338e-06
7.0703e-06
1.11085e-06
6.74362e-06
1.06928e-06
6.33972e-06
1.01256e-06
5.87031e-06
9.44279e-07
5.34605e-06
8.68045e-07
4.77652e-06
7.87282e-07
4.17022e-06
7.05155e-07
3.53464e-06
6.24496e-07
2.87638e-06
5.47763e-07
2.20126e-06
4.77023e-07
1.51445e-06
4.13934e-07
8.20634e-07
3.5976e-07
1.24171e-07
3.15369e-07
-5.70786e-07
2.81245e-07
-1.26013e-06
2.57503e-07
-1.93968e-06
2.43891e-07
-2.60501e-06
2.3981e-07
-3.25138e-06
2.44312e-07
-3.8736e-06
2.56125e-07
-4.46595e-06
2.73664e-07
-5.02207e-06
2.95059e-07
-5.53492e-06
3.182e-07
-5.99677e-06
3.40796e-07
-6.39914e-06
3.60454e-07
-6.73291e-06
3.74796e-07
-6.98832e-06
3.81595e-07
-7.15516e-06
3.78949e-07
-7.22296e-06
3.65474e-07
-7.18123e-06
3.40512e-07
-7.01982e-06
3.04338e-07
-6.72935e-06
2.58339e-07
-6.30165e-06
2.05124e-07
-5.73038e-06
1.48557e-07
-5.01157e-06
9.36491e-08
-4.14421e-06
4.63139e-08
-3.13082e-06
1.29757e-08
-1.97775e-06
-6.96262e-07
2.38671e-08
7.34923e-07
8.67197e-08
2.08297e-06
1.79068e-07
3.29164e-06
2.91202e-07
4.34906e-06
4.13704e-07
5.24812e-06
5.37901e-07
5.98579e-06
6.56241e-07
6.5629e-06
7.6257e-07
6.98379e-06
8.52267e-07
7.25572e-06
9.22262e-07
7.38819e-06
9.70953e-07
7.39229e-06
9.98034e-07
7.28009e-06
1.00429e-06
7.06405e-06
9.91357e-07
6.75655e-06
9.61487e-07
6.36959e-06
9.17339e-07
5.91446e-06
8.61779e-07
5.40161e-06
7.97729e-07
4.84057e-06
7.28038e-07
4.23991e-06
6.55389e-07
3.60729e-06
5.82236e-07
2.94954e-06
5.10754e-07
2.27274e-06
4.42821e-07
1.58238e-06
3.80002e-07
8.83453e-07
3.23547e-07
1.80626e-07
2.74397e-07
-5.21636e-07
2.3319e-07
-1.21893e-06
2.00267e-07
-1.90675e-06
1.75682e-07
-2.58042e-06
1.5921e-07
-3.23491e-06
1.50352e-07
-3.86475e-06
1.48346e-07
-4.46394e-06
1.52177e-07
-5.0259e-06
1.60594e-07
-5.54334e-06
1.72138e-07
-6.00831e-06
1.85181e-07
-6.41219e-06
1.97982e-07
-6.74571e-06
2.08764e-07
-6.9991e-06
2.15813e-07
-7.16221e-06
2.17599e-07
-7.22475e-06
2.12915e-07
-7.17655e-06
2.01032e-07
-7.00794e-06
1.81848e-07
-6.71016e-06
1.56015e-07
-6.27582e-06
1.25035e-07
-5.6994e-06
9.12819e-08
-4.97781e-06
5.79353e-08
-4.11086e-06
2.88156e-08
-3.1017e-06
8.11446e-09
-1.95705e-06
-6.88148e-07
1.91066e-08
7.15816e-07
6.96683e-08
2.03241e-06
1.44384e-07
3.21693e-06
2.35756e-07
4.25769e-06
3.36449e-07
5.14743e-06
4.39611e-07
5.88263e-06
5.39162e-07
6.46335e-06
6.30016e-07
6.89294e-06
7.08212e-07
7.17752e-06
7.70956e-07
7.32544e-06
8.16586e-07
7.34666e-06
8.44475e-07
7.25221e-06
8.54886e-07
7.05364e-06
8.48808e-07
6.76263e-06
8.27782e-07
6.39062e-06
7.93737e-07
5.94851e-06
7.48833e-07
5.44652e-06
6.95338e-07
4.89407e-06
6.35519e-07
4.29973e-06
5.71564e-07
3.67124e-06
5.05516e-07
3.01558e-06
4.39237e-07
2.33902e-06
3.74382e-07
1.64723e-06
3.12384e-07
9.45451e-07
2.54453e-07
2.38558e-07
2.01572e-07
-4.68756e-07
1.54507e-07
-1.17186e-06
1.13808e-07
-1.86605e-06
7.98177e-08
-2.54643e-06
5.26762e-08
-3.20777e-06
3.23214e-08
-3.84439e-06
1.84936e-08
-4.45012e-06
1.07374e-08
-5.01814e-06
8.40666e-09
-5.54101e-06
1.06736e-08
-6.01058e-06
1.65456e-08
-6.41806e-06
2.48923e-08
-6.75406e-06
3.44868e-08
-7.0087e-06
4.40625e-08
-7.17179e-06
5.23874e-08
-7.23307e-06
5.83545e-08
-7.18251e-06
6.10835e-08
-7.01067e-06
6.00275e-08
-6.70911e-06
5.50706e-08
-6.27087e-06
4.66039e-08
-5.69094e-06
3.55595e-08
-4.96677e-06
2.3389e-08
-4.09869e-06
1.19721e-08
-3.09028e-06
3.45525e-09
-1.94854e-06
-6.84692e-07
1.4504e-08
7.01312e-07
5.30911e-08
1.99382e-06
1.10469e-07
3.15955e-06
1.8118e-07
4.18698e-06
2.59824e-07
5.06879e-06
3.41274e-07
5.80118e-06
4.20882e-07
6.38374e-06
4.94646e-07
6.81917e-06
5.59323e-07
7.11285e-06
6.12492e-07
7.27228e-06
6.52552e-07
7.30661e-06
6.78671e-07
7.22609e-06
6.90711e-07
7.0416e-06
6.89115e-07
6.76423e-06
6.74793e-07
6.40494e-06
6.49002e-07
5.9743e-06
6.13236e-07
5.48228e-06
5.69126e-07
4.93818e-06
5.18361e-07
4.35049e-06
4.62615e-07
3.72699e-06
4.03506e-07
3.07469e-06
3.42553e-07
2.39997e-06
2.81158e-07
1.70863e-06
2.20591e-07
1.00602e-06
1.61987e-07
2.97162e-07
1.06345e-07
-4.13113e-07
5.45309e-08
-1.12005e-06
7.28212e-09
-1.81881e-06
-3.47897e-08
-2.50436e-06
-7.11973e-08
-3.17136e-06
-1.01579e-07
-3.81401e-06
-1.25705e-07
-4.42599e-06
-1.43481e-07
-5.00036e-06
-1.54963e-07
-5.52952e-06
-1.60359e-07
-6.00518e-06
-1.60047e-07
-6.41837e-06
-1.54568e-07
-6.75954e-06
-1.44629e-07
-7.01863e-06
-1.31085e-07
-7.18533e-06
-1.1491e-07
-7.24925e-06
-9.71579e-08
-7.20027e-06
-7.8901e-08
-7.02893e-06
-6.11647e-08
-6.72684e-06
-4.48535e-08
-6.28718e-06
-3.06827e-08
-5.70511e-06