/*--------------------------------*- C++ -*----------------------------------*\
  =========                 |
  \\      /  F ield         | OpenFOAM: The Open Source CFD Toolbox
   \\    /   O peration     | Website:  https://openfoam.org
    \\  /    A nd           | Version:  7
     \\/     M anipulation  |
\*---------------------------------------------------------------------------*/
FoamFile
{
    version     2.0;
    format      ascii;
    class       volVectorField;
    location    "0.0414";
    object      U;
}
// * * * * * * * * * * * * * * * * * * * * * * * * * * * * * * * * * * * * * //

dimensions      [0 1 -1 0 0 0 0];

internalField   nonuniform List<vector> 
2500
(
(2.74366e-05 -2.73324e-05 0)
(8.12859e-05 -3.22531e-05 0)
(0.000107895 -1.50604e-05 0)
(7.29006e-05 9.28305e-06 0)
(-3.3777e-05 3.38549e-05 0)
(-0.000209995 5.63054e-05 0)
(-0.00044872 7.55968e-05 0)
(-0.00074133 9.14796e-05 0)
(-0.00107832 0.000104014 0)
(-0.00145001 0.000113366 0)
(-0.00184693 0.000119737 0)
(-0.00226001 0.000123342 0)
(-0.00268065 0.000124397 0)
(-0.00310081 0.000123113 0)
(-0.00351306 0.000119697 0)
(-0.00391053 0.000114345 0)
(-0.00428699 0.000107252 0)
(-0.0046368 9.86018e-05 0)
(-0.00495492 8.85728e-05 0)
(-0.0052369 7.73387e-05 0)
(-0.00547888 6.5069e-05 0)
(-0.00567758 5.19304e-05 0)
(-0.0058303 3.80892e-05 0)
(-0.00593492 2.37125e-05 0)
(-0.00598991 8.97007e-06 0)
(-0.00599436 -5.96384e-06 0)
(-0.00594796 -2.09093e-05 0)
(-0.00585106 -3.56794e-05 0)
(-0.00570464 -5.00793e-05 0)
(-0.00551038 -6.39063e-05 0)
(-0.00527068 -7.69492e-05 0)
(-0.00498863 -8.89899e-05 0)
(-0.00466808 -9.98038e-05 0)
(-0.00431364 -0.000109162 0)
(-0.00393064 -0.000116833 0)
(-0.00352518 -0.000122587 0)
(-0.00310407 -0.000126194 0)
(-0.00267482 -0.000127435 0)
(-0.00224557 -0.000126097 0)
(-0.00182504 -0.00012198 0)
(-0.00142242 -0.000114901 0)
(-0.0010473 -0.0001047 0)
(-0.000709433 -9.12457e-05 0)
(-0.000418555 -7.44677e-05 0)
(-0.000183947 -5.44216e-05 0)
(-1.37607e-05 -3.14855e-05 0)
(8.59713e-05 -6.76235e-06 0)
(0.00011426 1.71671e-05 0)
(8.25837e-05 3.33518e-05 0)
(2.71422e-05 2.70874e-05 0)
(3.27816e-05 -8.13778e-05 0)
(6.95408e-05 -6.8352e-05 0)
(1.37405e-05 2.67418e-05 0)
(-0.000186443 0.000153077 0)
(-0.000550958 0.000285008 0)
(-0.00107886 0.000409814 0)
(-0.00175823 0.000520809 0)
(-0.00257098 0.000614932 0)
(-0.00349563 0.000691019 0)
(-0.00450907 0.000748913 0)
(-0.00558781 0.000789025 0)
(-0.00670872 0.000812098 0)
(-0.00784945 0.000819073 0)
(-0.00898877 0.000811004 0)
(-0.0101068 0.000789015 0)
(-0.0111851 0.000754257 0)
(-0.0122066 0.000707897 0)
(-0.0131561 0.000651098 0)
(-0.0140197 0.000585018 0)
(-0.0147853 0.000510806 0)
(-0.0154421 0.000429603 0)
(-0.0159812 0.000342548 0)
(-0.0163951 0.000250784 0)
(-0.0166782 0.000155467 0)
(-0.0168263 5.77682e-05 0)
(-0.0168369 -4.11105e-05 0)
(-0.0167094 -0.000139936 0)
(-0.0164447 -0.000237435 0)
(-0.0160458 -0.000332296 0)
(-0.0155174 -0.000423162 0)
(-0.014866 -0.000508641 0)
(-0.0141004 -0.000587308 0)
(-0.0132312 -0.000657715 0)
(-0.0122707 -0.000718407 0)
(-0.0112337 -0.00076794 0)
(-0.0101366 -0.0008049 0)
(-0.00899763 -0.000827932 0)
(-0.00783682 -0.000835767 0)
(-0.00667569 -0.000827261 0)
(-0.00553706 -0.000801436 0)
(-0.00444466 -0.000757541 0)
(-0.00342277 -0.000695129 0)
(-0.00249554 -0.000614189 0)
(-0.00168617 -0.000515372 0)
(-0.00101564 -0.000400409 0)
(-0.000500844 -0.000272963 0)
(-0.000151729 -0.000140208 0)
(3.30908e-05 -1.54878e-05 0)
(7.63425e-05 7.54729e-05 0)
(3.36002e-05 8.25464e-05 0)
(1.66633e-05 -0.000109518 0)
(-2.2286e-05 -1.38244e-05 0)
(-0.000232531 0.000237934 0)
(-0.000656092 0.000555504 0)
(-0.00131206 0.000888898 0)
(-0.00219937 0.00120836 0)
(-0.00330274 0.00149656 0)
(-0.00459789 0.00174406 0)
(-0.00605509 0.00194618 0)
(-0.00764163 0.00210118 0)
(-0.00932353 0.00220912 0)
(-0.0110667 0.00227127 0)
(-0.012838 0.00228962 0)
(-0.0146054 0.00226666 0)
(-0.0163387 0.0022052 0)
(-0.0180098 0.00210822 0)
(-0.0195926 0.00197883 0)
(-0.0210635 0.00182018 0)
(-0.0224012 0.00163545 0)
(-0.0235867 0.00142785 0)
(-0.0246036 0.00120059 0)
(-0.025438 0.000956868 0)
(-0.0260784 0.000699937 0)
(-0.0265158 0.000433076 0)
(-0.026744 0.00015962 0)
(-0.0267593 -0.000117022 0)
(-0.0265605 -0.000393356 0)
(-0.0261495 -0.000665788 0)
(-0.0255308 -0.000930624 0)
(-0.0247118 -0.00118407 0)
(-0.023703 -0.00142225 0)
(-0.0225177 -0.0016412 0)
(-0.0211722 -0.00183696 0)
(-0.0196861 -0.00200553 0)
(-0.0180816 -0.00214301 0)
(-0.016384 -0.00224561 0)
(-0.014621 -0.00230975 0)
(-0.0128232 -0.00233216 0)
(-0.0110229 -0.00231 0)
(-0.00925425 -0.00224098 0)
(-0.00755256 -0.00212358 0)
(-0.00595341 -0.00195731 0)
(-0.00449173 -0.00174309 0)
(-0.00320043 -0.0014839 0)
(-0.00210857 -0.00118577 0)
(-0.00123885 -0.000859532 0)
(-0.000604053 -0.000523814 0)
(-0.0002022 -0.000209435 0)
(-1.0694e-05 3.33707e-05 0)
(1.83856e-05 0.000115754 0)
(-6.45512e-06 -7.83217e-05 0)
(-0.00014526 0.000182406 0)
(-0.000546021 0.000660254 0)
(-0.00122649 0.00123406 0)
(-0.00219631 0.0018309 0)
(-0.00345087 0.00240375 0)
(-0.00497052 0.00292311 0)
(-0.00672548 0.00337148 0)
(-0.00867949 0.00373926 0)
(-0.0107924 0.00402206 0)
(-0.0130219 0.00421897 0)
(-0.0153256 0.00433145 0)
(-0.0176612 0.00436255 0)
(-0.0199882 0.00431644 0)
(-0.022268 0.00419797 0)
(-0.0244642 0.0040125 0)
(-0.0265433 0.00376568 0)
(-0.0284745 0.00346337 0)
(-0.0302302 0.00311151 0)
(-0.0317857 0.00271614 0)
(-0.0331196 0.00228335 0)
(-0.0342137 0.00181926 0)
(-0.0350531 0.00133006 0)
(-0.0356261 0.000822035 0)
(-0.0359246 0.000301572 0)
(-0.0359438 -0.000224806 0)
(-0.0356824 -0.00075042 0)
(-0.0351427 -0.00126842 0)
(-0.0343308 -0.00177177 0)
(-0.0332565 -0.00225329 0)
(-0.0319334 -0.00270562 0)
(-0.0303789 -0.00312134 0)
(-0.0286144 -0.00349298 0)
(-0.026665 -0.00381311 0)
(-0.0245598 -0.00407447 0)
(-0.0223312 -0.00427011 0)
(-0.0200151 -0.00439353 0)
(-0.0176505 -0.00443886 0)
(-0.0152787 -0.00440116 0)
(-0.0129431 -0.00427665 0)
(-0.0106882 -0.00406313 0)
(-0.00855867 -0.00376047 0)
(-0.00659777 -0.00337133 0)
(-0.00484607 -0.00290223 0)
(-0.00333918 -0.00236511 0)
(-0.0021051 -0.00177986 0)
(-0.00116067 -0.00117821 0)
(-0.000506927 -0.000608935 0)
(-0.000129539 -0.000145635 0)
(-3.67726e-06 9.20963e-05 0)
(-3.00214e-05 2.24613e-05 0)
(-0.000276466 0.000542777 0)
(-0.000884182 0.00131765 0)
(-0.00183853 0.00220593 0)
(-0.00313476 0.00311656 0)
(-0.00476147 0.00398732 0)
(-0.00669298 0.00477706 0)
(-0.00889351 0.0054599 0)
(-0.0113207 0.0060207 0)
(-0.0139279 0.00645181 0)
(-0.0166662 0.00675088 0)
(-0.0194858 0.00691928 0)
(-0.0223374 0.00696105 0)
(-0.0251733 0.00688207 0)
(-0.0279477 0.00668952 0)
(-0.0306176 0.00639147 0)
(-0.0331431 0.00599657 0)
(-0.0354876 0.00551389 0)
(-0.0376178 0.00495275 0)
(-0.0395044 0.00432261 0)
(-0.0411218 0.00363311 0)
(-0.042448 0.00289396 0)
(-0.0434653 0.00211502 0)
(-0.0441597 0.00130629 0)
(-0.0445213 0.000477937 0)
(-0.0445445 -0.000359649 0)
(-0.0442279 -0.00119584 0)
(-0.0435742 -0.00201975 0)
(-0.0425907 -0.00282023 0)
(-0.0412892 -0.00358589 0)
(-0.0396861 -0.00430517 0)
(-0.0378022 -0.00496635 0)
(-0.035663 -0.00555772 0)
(-0.0332987 -0.00606768 0)
(-0.0307437 -0.00648497 0)
(-0.0280366 -0.00679882 0)
(-0.0252201 -0.00699929 0)
(-0.0223402 -0.00707755 0)
(-0.0194457 -0.00702627 0)
(-0.0165877 -0.00684012 0)
(-0.0138183 -0.00651632 0)
(-0.0111896 -0.00605547 0)
(-0.00875213 -0.00546253 0)
(-0.00655306 -0.00474827 0)
(-0.0046342 -0.00393132 0)
(-0.0030295 -0.00304109 0)
(-0.00176162 -0.00212208 0)
(-0.000837926 -0.00123914 0)
(-0.000257496 -0.000484803 0)
(-2.6512e-05 5.14575e-07 0)
(-5.21375e-05 0.000192848 0)
(-0.000406019 0.00107263 0)
(-0.00122483 0.00221982 0)
(-0.00245908 0.00348167 0)
(-0.00408689 0.004754 0)
(-0.00608765 0.00596238 0)
(-0.00842788 0.00705545 0)
(-0.0110649 0.00799953 0)
(-0.0139499 0.00877401 0)
(-0.0170303 0.00936786 0)
(-0.0202507 0.00977708 0)
(-0.0235553 0.0100029 0)
(-0.0268886 0.0100502 0)
(-0.0301966 0.00992685 0)
(-0.0334279 0.00964242 0)
(-0.0365336 0.00920801 0)
(-0.0394684 0.00863566 0)
(-0.0421907 0.00793808 0)
(-0.0446628 0.00712842 0)
(-0.0468512 0.00622015 0)
(-0.0487267 0.00522698 0)
(-0.0502643 0.0041628 0)
(-0.0514437 0.00304172 0)
(-0.052249 0.00187808 0)
(-0.0526689 0.000686473 0)
(-0.052697 -0.000518211 0)
(-0.0523315 -0.00172074 0)
(-0.0515758 -0.00290553 0)
(-0.0504381 -0.00405666 0)
(-0.0489318 -0.00515786 0)
(-0.0470754 -0.00619265 0)
(-0.0448928 -0.0071444 0)
(-0.042413 -0.00799649 0)
(-0.03967 -0.00873253 0)
(-0.0367031 -0.00933666 0)
(-0.0335561 -0.0097938 0)
(-0.0302771 -0.0100901 0)
(-0.0269184 -0.0102134 0)
(-0.0235351 -0.0101538 0)
(-0.0201848 -0.00990432 0)
(-0.0169263 -0.00946155 0)
(-0.0138183 -0.00882702 0)
(-0.010918 -0.00800821 0)
(-0.00827904 -0.00702042 0)
(-0.00594975 -0.00588901 0)
(-0.00397108 -0.00465252 0)
(-0.00237332 -0.00336695 0)
(-0.00117261 -0.00211062 0)
(-0.0003843 -0.000990276 0)
(-4.8024e-05 -0.000159023 0)
(-7.23303e-05 0.000429486 0)
(-0.000530064 0.00177015 0)
(-0.00155773 0.00336762 0)
(-0.00307156 0.00506358 0)
(-0.00503143 0.00674508 0)
(-0.00740596 0.00832851 0)
(-0.0101524 0.00975424 0)
(-0.0132202 0.0109819 0)
(-0.0165537 0.011986 0)
(-0.0200937 0.0127525 0)
(-0.023779 0.0132758 0)
(-0.027548 0.013557 0)
(-0.0313397 0.0136023 0)
(-0.0350946 0.0134212 0)
(-0.0387561 0.0130262 0)
(-0.0422705 0.0124317 0)
(-0.0455879 0.0116535 0)
(-0.0486624 0.0107081 0)
(-0.0514526 0.00961311 0)
(-0.0539214 0.00838635 0)
(-0.0560366 0.00704608 0)
(-0.0577706 0.00561088 0)
(-0.0591009 0.00409962 0)
(-0.0600099 0.00253147 0)
(-0.0604853 0.000925968 0)
(-0.0605197 -0.000696942 0)
(-0.0601113 -0.00231688 0)
(-0.0592635 -0.00391303 0)
(-0.0579854 -0.00546409 0)
(-0.0562918 -0.00694838 0)
(-0.0542028 -0.00834393 0)
(-0.0517448 -0.00962859 0)
(-0.0489496 -0.0107803 0)
(-0.0458547 -0.0117773 0)
(-0.0425032 -0.0125987 0)
(-0.0389434 -0.0132246 0)
(-0.0352284 -0.0136368 0)
(-0.0314154 -0.0138194 0)
(-0.0275653 -0.0137598 0)
(-0.0237417 -0.0134489 0)
(-0.0200094 -0.0128828 0)
(-0.0164335 -0.0120638 0)
(-0.0130776 -0.0110018 0)
(-0.0100022 -0.00971646 0)
(-0.00726294 -0.00823942 0)
(-0.00490879 -0.00661742 0)
(-0.00297918 -0.00491631 0)
(-0.00150066 -0.00322512 0)
(-0.000505974 -0.00166081 0)
(-6.7675e-05 -0.000383452 0)
(-9.07612e-05 0.000728605 0)
(-0.000647908 0.00263061 0)
(-0.00187967 0.00475771 0)
(-0.00366979 0.00694978 0)
(-0.0059599 0.00908852 0)
(-0.00870693 0.0110839 0)
(-0.0118579 0.0128699 0)
(-0.0153534 0.0144011 0)
(-0.01913 0.0156478 0)
(-0.023122 0.0165936 0)
(-0.0272621 0.0172318 0)
(-0.0314828 0.0175639 0)
(-0.035718 0.0175972 0)
(-0.0399033 0.0173436 0)
(-0.0439773 0.0168186 0)
(-0.047882 0.0160401 0)
(-0.0515637 0.0150279 0)
(-0.0549728 0.0138031 0)
(-0.0580645 0.0123876 0)
(-0.0607987 0.0108043 0)
(-0.0631408 0.00907631 0)
(-0.0650609 0.00722726 0)
(-0.0665347 0.0052812 0)
(-0.0675432 0.00326258 0)
(-0.0680729 0.00119632 0)
(-0.0681157 -0.000892176 0)
(-0.0676696 -0.00297693 0)
(-0.0667381 -0.0050314 0)
(-0.0653309 -0.00702848 0)
(-0.0634635 -0.00894059 0)
(-0.0611577 -0.0107397 0)
(-0.0584417 -0.0123978 0)
(-0.0553496 -0.0138868 0)
(-0.0519218 -0.0151792 0)
(-0.0482047 -0.0162483 0)
(-0.0442504 -0.0170691 0)
(-0.0401162 -0.0176186 0)
(-0.0358643 -0.0178769 0)
(-0.0315605 -0.017828 0)
(-0.0272739 -0.0174607 0)
(-0.0230753 -0.0167702 0)
(-0.0190363 -0.0157592 0)
(-0.0152271 -0.0144398 0)
(-0.0117157 -0.0128353 0)
(-0.00856559 -0.0109829 0)
(-0.00583495 -0.00893635 0)
(-0.00357346 -0.0067697 0)
(-0.001819 -0.00458027 0)
(-0.000621821 -0.00249222 0)
(-8.55956e-05 -0.000669135 0)
(-0.000107802 0.00108674 0)
(-0.00076032 0.00364869 0)
(-0.00219115 0.0063854 0)
(-0.00425366 0.00913705 0)
(-0.00687167 0.0117824 0)
(-0.00999007 0.014227 0)
(-0.0135449 0.0164008 0)
(-0.0174671 0.0182542 0)
(-0.0216851 0.019755 0)
(-0.0261259 0.0208849 0)
(-0.0307159 0.021637 0)
(-0.0353818 0.0220133 0)
(-0.0400522 0.0220231 0)
(-0.0446581 0.0216808 0)
(-0.0491338 0.0210054 0)
(-0.0534175 0.0200185 0)
(-0.0574517 0.0187445 0)
(-0.0611839 0.0172091 0)
(-0.0645662 0.0154393 0)
(-0.0675562 0.0134629 0)
(-0.070117 0.0113085 0)
(-0.0722169 0.00900499 0)
(-0.0738299 0.00658205 0)
(-0.0749357 0.0040697 0)
(-0.07552 0.00149854 0)
(-0.075574 -0.00110016 0)
(-0.0750952 -0.00369448 0)
(-0.0740872 -0.00625181 0)
(-0.0725598 -0.00873883 0)
(-0.0705294 -0.0111216 0)
(-0.0680189 -0.0133659 0)
(-0.0650576 -0.0154369 0)
(-0.0616818 -0.0173004 0)
(-0.0579342 -0.0189225 0)
(-0.053864 -0.0202704 0)
(-0.0495266 -0.0213134 0)
(-0.0449832 -0.0220233 0)
(-0.0403002 -0.0223756 0)
(-0.0355486 -0.0223506 0)
(-0.0308028 -0.0219344 0)
(-0.0261396 -0.0211207 0)
(-0.0216371 -0.0199123 0)
(-0.0173729 -0.0183226 0)
(-0.0134227 -0.0163782 0)
(-0.00985915 -0.0141206 0)
(-0.00675026 -0.0116097 0)
(-0.0041568 -0.00892573 0)
(-0.00212851 -0.0061727 0)
(-0.000732717 -0.00347991 0)
(-0.000102164 -0.00101279 0)
(-0.000123855 0.00150114 0)
(-0.000868663 0.00481981 0)
(-0.00249455 0.00824648 0)
(-0.00482638 0.0116225 0)
(-0.0077708 0.0148251 0)
(-0.0112605 0.0177577 0)
(-0.0152201 0.0203471 0)
(-0.0195702 0.0225414 0)
(-0.0242307 0.0243069 0)
(-0.0291206 0.0256245 0)
(-0.0341596 0.0264879 0)
(-0.0392687 0.0269005 0)
(-0.0443711 0.0268738 0)
(-0.0493931 0.0264255 0)
(-0.0542651 0.0255783 0)
(-0.0589214 0.0243583 0)
(-0.0633016 0.0227945 0)
(-0.0673501 0.0209177 0)
(-0.0710168 0.0187602 0)
(-0.0742569 0.0163553 0)
(-0.0770318 0.0137371 0)
(-0.079308 0.0109403 0)
(-0.0810584 0.00800021 0)
(-0.0822615 0.0049528 0)
(-0.0829019 0.00183464 0)
(-0.0829703 -0.00131693 0)
(-0.0824638 -0.00446373 0)
(-0.0813856 -0.00756679 0)
(-0.0797458 -0.0105863 0)
(-0.0775611 -0.0134816 0)
(-0.074855 -0.0162117 0)
(-0.071658 -0.018735 0)
(-0.0680077 -0.0210104 0)
(-0.0639489 -0.0229972 0)
(-0.0595332 -0.0246561 0)
(-0.0548189 -0.0259501 0)
(-0.0498708 -0.0268452 0)
(-0.0447594 -0.0273118 0)
(-0.0395605 -0.0273257 0)
(-0.034354 -0.02687 0)
(-0.029223 -0.0259362 0)
(-0.0242524 -0.0245262 0)
(-0.0195277 -0.0226543 0)
(-0.0151332 -0.0203491 0)
(-0.0111512 -0.0176559 0)
(-0.00766048 -0.0146389 0)
(-0.00473354 -0.0113839 0)
(-0.00243216 -0.00799985 0)
(-0.000840228 -0.00462025 0)
(-0.000117812 -0.00141196 0)
(-0.000139297 0.00196996 0)
(-0.000974502 0.00614081 0)
(-0.00279313 0.0103381 0)
(-0.00539292 0.0144044 0)
(-0.00866388 0.0182167 0)
(-0.0125264 0.021677 0)
(-0.0168935 0.0247107 0)
(-0.0216751 0.027265 0)
(-0.0267815 0.0293056 0)
(-0.0321237 0.0308141 0)
(-0.0376143 0.0317853 0)
(-0.0431681 0.032225 0)
(-0.0487028 0.0321477 0)
(-0.0541404 0.0315751 0)
(-0.059407 0.0305339 0)
(-0.0644337 0.0290553 0)
(-0.0691569 0.0271734 0)
(-0.0735187 0.0249244 0)
(-0.0774666 0.0223463 0)
(-0.0809543 0.0194781 0)
(-0.0839413 0.0163597 0)
(-0.0863929 0.0130318 0)
(-0.0882807 0.00953564 0)
(-0.0895823 0.00591327 0)
(-0.0902814 0.00220743 0)
(-0.0903681 -0.00153824 0)
(-0.0898388 -0.00527916 0)
(-0.0886965 -0.00896973 0)
(-0.0869511 -0.0125634 0)
(-0.0846193 -0.0160126 0)
(-0.081725 -0.0192691 0)
(-0.0782995 -0.0222843 0)
(-0.0743814 -0.0250096 0)
(-0.0700169 -0.0273972 0)
(-0.0652598 -0.0294007 0)
(-0.0601711 -0.0309761 0)
(-0.0548188 -0.0320831 0)
(-0.0492775 -0.0326862 0)
(-0.0436278 -0.0327563 0)
(-0.0379552 -0.0322722 0)
(-0.0323492 -0.0312226 0)
(-0.0269024 -0.0296078 0)
(-0.0217084 -0.027442 0)
(-0.016861 -0.0247548 0)
(-0.0124529 -0.021594 0)
(-0.00857432 -0.0180276 0)
(-0.00530998 -0.0141455 0)
(-0.00273392 -0.0100611 0)
(-0.000946183 -0.00591135 0)
(-0.000132958 -0.00186518 0)
(-0.000154463 0.00249223 0)
(-0.00107941 0.00761022 0)
(-0.00309045 0.0126594 0)
(-0.00595899 0.0174834 0)
(-0.00955874 0.021959 0)
(-0.0137978 0.025988 0)
(-0.0185772 0.0294958 0)
(-0.0237957 0.0324295 0)
(-0.0293538 0.0347557 0)
(-0.0351539 0.0364576 0)
(-0.0411011 0.0375325 0)
(-0.0471037 0.0379892 0)
(-0.053074 0.0378463 0)
(-0.0589291 0.0371299 0)
(-0.0645914 0.0358718 0)
(-0.0699887 0.0341085 0)
(-0.0750547 0.0318797 0)
(-0.079729 0.0292276 0)
(-0.0839575 0.026196 0)
(-0.0876922 0.0228301 0)
(-0.0908911 0.0191758 0)
(-0.0935187 0.0152799 0)
(-0.0955453 0.0111897 0)
(-0.0969478 0.0069536 0)
(-0.0977091 0.00262052 0)
(-0.0978184 -0.00175947 0)
(-0.0972716 -0.00613523 0)
(-0.0960712 -0.0104544 0)
(-0.0942267 -0.0146635 0)
(-0.0917544 -0.0187077 0)
(-0.0886784 -0.0225316 0)
(-0.0850302 -0.0260788 0)
(-0.0808492 -0.0292931 0)
(-0.0761827 -0.0321189 0)
(-0.0710863 -0.0345022 0)
(-0.0656231 -0.0363914 0)
(-0.0598646 -0.0377391 0)
(-0.0538891 -0.0385031 0)
(-0.047782 -0.0386483 0)
(-0.0416348 -0.0381488 0)
(-0.0355438 -0.0369892 0)
(-0.0296094 -0.0351673 0)
(-0.0239343 -0.0326958 0)
(-0.0186224 -0.0296047 0)
(-0.0137774 -0.0259433 0)
(-0.00950198 -0.0217821 0)
(-0.00589336 -0.0172147 0)
(-0.00303817 -0.0123582 0)
(-0.00105246 -0.00735342 0)
(-0.000147987 -0.00237202 0)
(-0.000169647 0.00306782 0)
(-0.00118488 0.00922833 0)
(-0.00339004 0.0152118 0)
(-0.00653046 0.0208619 0)
(-0.0104636 0.0260561 0)
(-0.0150852 0.0306963 0)
(-0.0202838 0.0347086 0)
(-0.0259468 0.0380417 0)
(-0.0319644 0.040664 0)
(-0.0382298 0.0425616 0)
(-0.0446404 0.0437352 0)
(-0.0510977 0.044198 0)
(-0.0575084 0.0439734 0)
(-0.0637849 0.0430927 0)
(-0.0698457 0.0415937 0)
(-0.0756154 0.0395188 0)
(-0.0810252 0.0369139 0)
(-0.0860128 0.0338274 0)
(-0.0905223 0.0303096 0)
(-0.0945045 0.0264118 0)
(-0.0979164 0.0221863 0)
(-0.100721 0.0176861 0)
(-0.102889 0.0129649 0)
(-0.104396 0.00807709 0)
(-0.105223 0.00307809 0)
(-0.10536 -0.0019756 0)
(-0.104801 -0.00702624 0)
(-0.103549 -0.0120146 0)
(-0.101612 -0.0168802 0)
(-0.0990058 -0.0215608 0)
(-0.0957544 -0.0259933 0)
(-0.091889 -0.0301136 0)
(-0.0874495 -0.0338572 0)
(-0.0824839 -0.0371603 0)
(-0.0770491 -0.0399604 0)
(-0.0712104 -0.042198 0)
(-0.065042 -0.0438174 0)
(-0.0586263 -0.044769 0)
(-0.0520535 -0.0450108 0)
(-0.045421 -0.0445106 0)
(-0.0388324 -0.0432483 0)
(-0.0323964 -0.0412177 0)
(-0.0262256 -0.0384291 0)
(-0.0204345 -0.0349118 0)
(-0.015139 -0.0307153 0)
(-0.0104543 -0.0259121 0)
(-0.0064913 -0.0205987 0)
(-0.00334941 -0.0148961 0)
(-0.00116091 -0.00894886 0)
(-0.000163249 -0.00293306 0)
(-0.000185106 0.00369736 0)
(-0.00129229 0.0109972 0)
(-0.00369529 0.0179986 0)
(-0.00711306 0.0245451 0)
(-0.0113866 0.0305144 0)
(-0.0163989 0.0358092 0)
(-0.0220259 0.0403575 0)
(-0.0281428 0.0441101 0)
(-0.0346291 0.0470389 0)
(-0.0413688 0.0491338 0)
(-0.0482508 0.0504005 0)
(-0.0551698 0.0508574 0)
(-0.0620266 0.0505338 0)
(-0.068729 0.0494674 0)
(-0.0751916 0.0477024 0)
(-0.0813361 0.0452882 0)
(-0.0870913 0.0422772 0)
(-0.0923931 0.0387249 0)
(-0.0971845 0.0346879 0)
(-0.101415 0.0302243 0)
(-0.105041 0.0253928 0)
(-0.108025 0.0202528 0)
(-0.110337 0.0148641 0)
(-0.111951 0.00928756 0)
(-0.112849 0.00358486 0)
(-0.113018 -0.00218111 0)
(-0.112454 -0.00794599 0)
(-0.111157 -0.0136438 0)
(-0.109134 -0.0192067 0)
(-0.106402 -0.0245653 0)
(-0.102982 -0.0296483 0)
(-0.0989051 -0.0343837 0)
(-0.0942119 -0.0386983 0)
(-0.0889504 -0.0425195 0)
(-0.0831783 -0.0457758 0)
(-0.0769628 -0.0483986 0)
(-0.0703807 -0.0503234 0)
(-0.063518 -0.0514918 0)
(-0.05647 -0.0518539 0)
(-0.0493401 -0.0513702 0)
(-0.0422396 -0.0500141 0)
(-0.0352861 -0.0477744 0)
(-0.0286024 -0.0446579 0)
(-0.0223148 -0.0406915 0)
(-0.0165517 -0.0359246 0)
(-0.0114423 -0.0304304 0)
(-0.00711138 -0.0243081 0)
(-0.00367203 -0.0176822 0)
(-0.00127329 -0.0107023 0)
(-0.000179062 -0.00354984 0)
(-0.000201064 0.0043822 0)
(-0.0014029 0.0129203 0)
(-0.00400934 0.0210256 0)
(-0.00771215 0.0285404 0)
(-0.0123354 0.0353426 0)
(-0.0177488 0.0413366 0)
(-0.023815 0.0464526 0)
(-0.0303969 0.050645 0)
(-0.0373627 0.0538902 0)
(-0.0445864 0.0561834 0)
(-0.0519484 0.0575363 0)
(-0.0593363 0.057974 0)
(-0.0666451 0.0575328 0)
(-0.0737777 0.0562579 0)
(-0.080645 0.0542009 0)
(-0.087166 0.0514186 0)
(-0.0932676 0.0479711 0)
(-0.0988841 0.0439208 0)
(-0.103958 0.0393317 0)
(-0.108437 0.0342686 0)
(-0.112278 0.0287967 0)
(-0.115443 0.0229819 0)
(-0.1179 0.0168904 0)
(-0.119625 0.0105891 0)
(-0.120598 0.00414588 0)
(-0.120806 -0.00237 0)
(-0.120243 -0.00888771 0)
(-0.118908 -0.0153345 0)
(-0.116809 -0.0216355 0)
(-0.113958 -0.0277136 0)
(-0.110377 -0.0334897 0)
(-0.106097 -0.0388832 0)
(-0.101156 -0.0438119 0)
(-0.0956034 -0.048194 0)
(-0.0894964 -0.0519482 0)
(-0.0829038 -0.0549958 0)
(-0.0759047 -0.0572624 0)
(-0.0685888 -0.0586799 0)
(-0.061056 -0.059189 0)
(-0.0534163 -0.0587413 0)
(-0.0457886 -0.0573025 0)
(-0.0383 -0.0548551 0)
(-0.0310843 -0.0514007 0)
(-0.0242801 -0.0469627 0)
(-0.0180295 -0.041589 0)
(-0.0124765 -0.0353532 0)
(-0.00776098 -0.0283564 0)
(-0.00401028 -0.0207272 0)
(-0.00139126 -0.0126204 0)
(-0.000195718 -0.00422481 0)
(-0.000217717 0.00512428 0)
(-0.00151783 0.0150029 0)
(-0.00433504 0.0243004 0)
(-0.00833268 0.0328573 0)
(-0.013317 0.0405518 0)
(-0.0191439 0.0472901 0)
(-0.025662 0.0530057 0)
(-0.0327212 0.0576579 0)
(-0.0401779 0.0612286 0)
(-0.0478957 0.0637197 0)
(-0.0557463 0.0651505 0)
(-0.0636098 0.0655542 0)
(-0.0713754 0.0649753 0)
(-0.0789413 0.0634674 0)
(-0.086215 0.061091 0)
(-0.0931129 0.0579109 0)
(-0.0995601 0.0539955 0)
(-0.10549 0.049415 0)
(-0.110844 0.0442407 0)
(-0.115571 0.0385446 0)
(-0.119626 0.0323988 0)
(-0.122972 0.0258752 0)
(-0.125577 0.0190465 0)
(-0.127416 0.0119856 0)
(-0.128469 0.00476642 0)
(-0.128722 -0.00253577 0)
(-0.128167 -0.00984382 0)
(-0.126803 -0.0170784 0)
(-0.124636 -0.0241576 0)
(-0.121677 -0.0309968 0)
(-0.117946 -0.0375089 0)
(-0.113472 -0.0436043 0)
(-0.108292 -0.0491919 0)
(-0.102454 -0.0541795 0)
(-0.0960171 -0.0584756 0)
(-0.0890493 -0.0619904 0)
(-0.081632 -0.0646386 0)
(-0.073858 -0.0663408 0)
(-0.065832 -0.0670267 0)
(-0.0576702 -0.0666379 0)
(-0.0494998 -0.0651306 0)
(-0.0414577 -0.062479 0)
(-0.0336892 -0.0586781 0)
(-0.0263463 -0.0537466 0)
(-0.0195857 -0.0477294 0)
(-0.0135673 -0.0406998 0)
(-0.00844714 -0.0327606 0)
(-0.00436819 -0.0240444 0)
(-0.0015164 -0.0147121 0)
(-0.000213483 -0.00496125 0)
(-0.000235241 0.00592612 0)
(-0.0016381 0.0172514 0)
(-0.004675 0.0278325 0)
(-0.00897913 0.0375074 0)
(-0.0143378 0.0461547 0)
(-0.0205922 0.053683 0)
(-0.0275762 0.0600301 0)
(-0.0351258 0.065161 0)
(-0.043085 0.0690649 0)
(-0.0513068 0.071752 0)
(-0.0596537 0.0732506 0)
(-0.0679983 0.0736032 0)
(-0.0762237 0.0728644 0)
(-0.0842239 0.0710976 0)
(-0.0919031 0.0683726 0)
(-0.0991755 0.0647638 0)
(-0.105965 0.0603483 0)
(-0.112204 0.0552049 0)
(-0.117835 0.0494127 0)
(-0.122806 0.0430507 0)
(-0.127073 0.036198 0)
(-0.130598 0.0289331 0)
(-0.133351 0.0213344 0)
(-0.135306 0.0134807 0)
(-0.136443 0.00545175 0)
(-0.136747 -0.00267147 0)
(-0.136209 -0.0108058 0)
(-0.134826 -0.0188657 0)
(-0.132602 -0.0267623 0)
(-0.129547 -0.0344037 0)
(-0.125678 -0.0416947 0)
(-0.121023 -0.0485368 0)
(-0.115616 -0.0548291 0)
(-0.109504 -0.0604689 0)
(-0.102745 -0.0653534 0)
(-0.0954067 -0.0693811 0)
(-0.0875728 -0.0724539 0)
(-0.0793385 -0.0744802 0)
(-0.0708129 -0.075377 0)
(-0.0621185 -0.0750737 0)
(-0.0533905 -0.0735154 0)
(-0.0447763 -0.0706661 0)
(-0.0364335 -0.0665124 0)
(-0.028528 -0.0610665 0)
(-0.0212326 -0.0543694 0)
(-0.0147242 -0.0464927 0)
(-0.00917655 -0.0375406 0)
(-0.00474958 -0.0276498 0)
(-0.00165018 -0.0169881 0)
(-0.000232612 -0.00576323 0)
(-0.000253793 0.00679074 0)
(-0.00176464 0.0196735 0)
(-0.00503157 0.0316329 0)
(-0.00965554 0.042504 0)
(-0.0154035 0.0521658 0)
(-0.0221007 0.06053 0)
(-0.0295655 0.0675396 0)
(-0.037619 0.0731668 0)
(-0.0460922 0.0774098 0)
(-0.0548268 0.0802886 0)
(-0.0636759 0.0818421 0)
(-0.0725046 0.0821243 0)
(-0.0811902 0.0812011 0)
(-0.0896224 0.0791469 0)
(-0.0977026 0.0760426 0)
(-0.105343 0.0719728 0)
(-0.112468 0.0670245 0)
(-0.119009 0.0612851 0)
(-0.124909 0.0548422 0)
(-0.130117 0.0477824 0)
(-0.134589 0.0401914 0)
(-0.138291 0.032154 0)
(-0.14119 0.0237545 0)
(-0.143262 0.0150771 0)
(-0.144486 0.00620688 0)
(-0.144846 -0.00276979 0)
(-0.144334 -0.0117643 0)
(-0.142943 -0.020685 0)
(-0.140676 -0.0294368 0)
(-0.13754 -0.0379205 0)
(-0.13355 -0.0460329 0)
(-0.12873 -0.0536665 0)
(-0.123112 -0.0607104 0)
(-0.11674 -0.0670509 0)
(-0.109671 -0.0725731 0)
(-0.101973 -0.0771623 0)
(-0.093729 -0.0807069 0)
(-0.0850362 -0.0831009 0)
(-0.076008 -0.084247 0)
(-0.0667729 -0.0840606 0)
(-0.0574744 -0.0824732 0)
(-0.0482703 -0.0794365 0)
(-0.0393313 -0.0749267 0)
(-0.0308386 -0.0689478 0)
(-0.0229817 -0.0615349 0)
(-0.0159563 -0.052757 0)
(-0.0099555 -0.0427191 0)
(-0.00515809 -0.031562 0)
(-0.00179403 -0.019461 0)
(-0.000253343 -0.00663559 0)
(-0.000273518 0.00772161 0)
(-0.0018983 0.022278 0)
(-0.00540691 0.0357142 0)
(-0.0103656 0.0478619 0)
(-0.0165191 0.058601 0)
(-0.0236757 0.0678467 0)
(-0.0316365 0.0755486 0)
(-0.0402071 0.0816878 0)
(-0.0492046 0.0862728 0)
(-0.0584589 0.0893359 0)
(-0.0678136 0.0909285 0)
(-0.0771261 0.0911177 0)
(-0.0862682 0.0899824 0)
(-0.0951257 0.08761 0)
(-0.103598 0.0840935 0)
(-0.111596 0.0795291 0)
(-0.119043 0.0740141 0)
(-0.125873 0.0676458 0)
(-0.132029 0.0605202 0)
(-0.137463 0.0527316 0)
(-0.142132 0.0443725 0)
(-0.146002 0.0355338 0)
(-0.149043 0.0263053 0)
(-0.151231 0.0167762 0)
(-0.152544 0.00703634 0)
(-0.152967 -0.00282312 0)
(-0.15249 -0.0127086 0)
(-0.151105 -0.0225231 0)
(-0.14881 -0.0321655 0)
(-0.145611 -0.0415299 0)
(-0.14152 -0.0505052 0)
(-0.136556 -0.058975 0)
(-0.130748 -0.0668181 0)
(-0.124138 -0.0739093 0)
(-0.116778 -0.0801206 0)
(-0.108735 -0.0853235 0)
(-0.100093 -0.0893911 0)
(-0.0909484 -0.0922014 0)
(-0.0814194 -0.0936406 0)
(-0.0716394 -0.0936077 0)
(-0.0617603 -0.0920183 0)
(-0.0519507 -0.0888096 0)
(-0.0423946 -0.0839446 0)
(-0.0332894 -0.0774167 0)
(-0.0248431 -0.0692535 0)
(-0.0172718 -0.0595202 0)
(-0.0107899 -0.0483213 0)
(-0.00559717 -0.0358018 0)
(-0.00194929 -0.0221451 0)
(-0.00027591 -0.00758387 0)
(-0.000294554 0.00872264 0)
(-0.00203987 0.0250747 0)
(-0.00580301 0.0400903 0)
(-0.0111125 0.0535975 0)
(-0.0176891 0.0654771 0)
(-0.025322 0.0756492 0)
(-0.0337942 0.0840713 0)
(-0.0428942 0.090735 0)
(-0.0524245 0.0956618 0)
(-0.0622028 0.0988978 0)
(-0.0720628 0.100509 0)
(-0.0818543 0.100579 0)
(-0.091444 0.0992007 0)
(-0.100714 0.0964763 0)
(-0.109562 0.0925124 0)
(-0.1179 0.0874181 0)
(-0.125651 0.081302 0)
(-0.132752 0.0742717 0)
(-0.139146 0.0664322 0)
(-0.144789 0.0578855 0)
(-0.14964 0.0487309 0)
(-0.153667 0.0390651 0)
(-0.156842 0.0289828 0)
(-0.159141 0.0185777 0)
(-0.160545 0.00794377 0)
(-0.161037 -0.00282376 0)
(-0.160604 -0.0136271 0)
(-0.159238 -0.0243646 0)
(-0.156935 -0.0349299 0)
(-0.153695 -0.0452107 0)
(-0.149527 -0.0550885 0)
(-0.144446 -0.0644382 0)
(-0.138477 -0.0731281 0)
(-0.131655 -0.0810211 0)
(-0.12403 -0.0879756 0)
(-0.115666 -0.0938477 0)
(-0.106644 -0.098494 0)
(-0.0970629 -0.101774 0)
(-0.0870411 -0.103556 0)
(-0.0767177 -0.10372 0)
(-0.0662524 -0.102162 0)
(-0.0558245 -0.0988027 0)
(-0.0456322 -0.0935885 0)
(-0.0358901 -0.0864999 0)
(-0.026826 -0.0775545 0)
(-0.0186784 -0.0668116 0)
(-0.0116854 -0.0543747 0)
(-0.00607015 -0.0403923 0)
(-0.0021173 -0.0250565 0)
(-0.000300544 -0.00861432 0)
(-0.00031704 0.00979812 0)
(-0.00219014 0.0280743 0)
(-0.00622183 0.0447763 0)
(-0.0118996 0.059728 0)
(-0.0189175 0.0728118 0)
(-0.0270442 0.0839537 0)
(-0.0360424 0.093121 0)
(-0.0456825 0.100318 0)
(-0.0557515 0.105582 0)
(-0.0660541 0.108974 0)
(-0.0764141 0.11058 0)
(-0.086674 0.110499 0)
(-0.0966956 0.108842 0)
(-0.106359 0.105728 0)
(-0.11556 0.101279 0)
(-0.124212 0.0956181 0)
(-0.132241 0.0888658 0)
(-0.139585 0.0811408 0)
(-0.146192 0.0725574 0)
(-0.15202 0.0632256 0)
(-0.157033 0.0532511 0)
(-0.161201 0.042736 0)
(-0.164497 0.0317795 0)
(-0.166902 0.0204789 0)
(-0.168394 0.00893158 0)
(-0.168958 -0.00276413 0)
(-0.168581 -0.0145071 0)
(-0.16725 -0.0261921 0)
(-0.16496 -0.0377081 0)
(-0.161706 -0.0489373 0)
(-0.157491 -0.0597544 0)
(-0.152326 -0.0700256 0)
(-0.14623 -0.0796092 0)
(-0.139232 -0.0883557 0)
(-0.131377 -0.0961092 0)
(-0.122725 -0.102709 0)
(-0.113352 -0.107995 0)
(-0.103356 -0.111805 0)
(-0.092858 -0.113986 0)
(-0.0819999 -0.114397 0)
(-0.0709487 -0.112912 0)
(-0.0598946 -0.10943 0)
(-0.0490503 -0.103879 0)
(-0.0386484 -0.0962236 0)
(-0.0289383 -0.0864675 0)
(-0.0201831 -0.0746624 0)
(-0.0126473 -0.060909 0)
(-0.00658027 -0.0453588 0)
(-0.00229938 -0.0282128 0)
(-0.000327481 -0.00973387 0)
(-0.00034112 0.0109528 0)
(-0.00234993 0.0312887 0)
(-0.00666531 0.0497884 0)
(-0.0127298 0.0662717 0)
(-0.0202081 0.0806231 0)
(-0.0288458 0.0927762 0)
(-0.0383836 0.10271 0)
(-0.0485722 0.110444 0)
(-0.0591819 0.116034 0)
(-0.0700043 0.119561 0)
(-0.0808527 0.121129 0)
(-0.091563 0.120861 0)
(-0.101993 0.118885 0)
(-0.11202 0.115341 0)
(-0.121542 0.110366 0)
(-0.130474 0.104099 0)
(-0.138744 0.0966745 0)
(-0.146296 0.0882228 0)
(-0.153082 0.0788674 0)
(-0.159064 0.0687264 0)
(-0.16421 0.0579115 0)
(-0.168496 0.0465297 0)
(-0.171897 0.0346838 0)
(-0.174396 0.0224743 0)
(-0.175973 0.0100005 0)
(-0.176613 -0.00263703 0)
(-0.176301 -0.0153351 0)
(-0.175024 -0.0279856 0)
(-0.17277 -0.0404743 0)
(-0.169532 -0.0526789 0)
(-0.165308 -0.0644678 0)
(-0.1601 -0.0756994 0)
(-0.15392 -0.0862219 0)
(-0.146792 -0.0958734 0)
(-0.138752 -0.104483 0)
(-0.129853 -0.111873 0)
(-0.120169 -0.117862 0)
(-0.109793 -0.122268 0)
(-0.0988446 -0.124913 0)
(-0.0874697 -0.12563 0)
(-0.075841 -0.124268 0)
(-0.0641592 -0.120702 0)
(-0.0526515 -0.114835 0)
(-0.0415698 -0.106613 0)
(-0.0311868 -0.0960222 0)
(-0.0217925 -0.0831045 0)
(-0.0136807 -0.0679553 0)
(-0.00713075 -0.0507282 0)
(-0.00249685 -0.0316332 0)
(-0.000356966 -0.0109501 0)
(-0.000366955 0.0121918 0)
(-0.00252011 0.0347306 0)
(-0.00713556 0.0551441 0)
(-0.0136064 0.0732478 0)
(-0.0215646 0.0889294 0)
(-0.0307302 0.102132 0)
(-0.0408195 0.112848 0)
(-0.0515616 0.121117 0)
(-0.0627093 0.127014 0)
(-0.0740403 0.130645 0)
(-0.0853579 0.132139 0)
(-0.0964916 0.131639 0)
(-0.107296 0.129299 0)
(-0.117648 0.125278 0)
(-0.127447 0.119733 0)
(-0.136612 0.11282 0)
(-0.145077 0.104688 0)
(-0.15279 0.095478 0)
(-0.15971 0.0853251 0)
(-0.165806 0.0743542 0)
(-0.17105 0.0626832 0)
(-0.175423 0.050423 0)
(-0.178906 0.0376794 0)
(-0.181484 0.0245546 0)
(-0.183139 0.011149 0)
(-0.183856 -0.00243602 0)
(-0.18362 -0.0160964 0)
(-0.182415 -0.029723 0)
(-0.180226 -0.0431992 0)
(-0.17704 -0.0563994 0)
(-0.172848 -0.069187 0)
(-0.167645 -0.0814134 0)