/*--------------------------------*- C++ -*----------------------------------*\
  =========                 |
  \\      /  F ield         | OpenFOAM: The Open Source CFD Toolbox
   \\    /   O peration     | Website:  https://openfoam.org
    \\  /    A nd           | Version:  7
     \\/     M anipulation  |
\*---------------------------------------------------------------------------*/
FoamFile
{
    version     2.0;
    format      ascii;
    class       surfaceScalarField;
    location    "0.024";
    object      phi;
}
// * * * * * * * * * * * * * * * * * * * * * * * * * * * * * * * * * * * * * //

dimensions      [0 3 -1 0 0 0 0];

internalField   nonuniform List<scalar> 
4900
(
-5.55658e-06
5.55658e-06
-1.01624e-05
4.60578e-06
-1.29486e-05
2.78621e-06
-1.46656e-05
1.71707e-06
-1.57635e-05
1.09788e-06
-1.64965e-05
7.32988e-07
-1.70102e-05
5.13715e-07
-1.73868e-05
3.76561e-07
-1.7673e-05
2.86192e-07
-1.78965e-05
2.23558e-07
-1.80748e-05
1.78218e-07
-1.8219e-05
1.44199e-07
-1.83369e-05
1.17913e-07
-1.8434e-05
9.70965e-08
-1.85142e-05
8.02606e-08
-1.85806e-05
6.63842e-08
-1.86354e-05
5.47449e-08
-1.86802e-05
4.48157e-08
-1.87164e-05
3.62015e-08
-1.8745e-05
2.85986e-08
-1.87667e-05
2.17665e-08
-1.87823e-05
1.55103e-08
-1.87919e-05
9.66629e-09
-1.8796e-05
4.09314e-09
-1.87947e-05
-1.3369e-09
-1.87879e-05
-6.74163e-09
-1.87757e-05
-1.22379e-08
-1.87578e-05
-1.79436e-08
-1.87338e-05
-2.39844e-08
-1.87033e-05
-3.04999e-08
-1.86656e-05
-3.76509e-08
-1.862e-05
-4.56293e-08
-1.85653e-05
-5.46713e-08
-1.85002e-05
-6.50768e-08
-1.8423e-05
-7.72362e-08
-1.83313e-05
-9.16723e-08
-1.82222e-05
-1.09105e-07
-1.80917e-05
-1.30556e-07
-1.79341e-05
-1.57527e-07
-1.77418e-05
-1.92311e-07
-1.75033e-05
-2.38559e-07
-1.72009e-05
-3.02354e-07
-1.68067e-05
-3.94253e-07
-1.62734e-05
-5.33257e-07
-1.55196e-05
-7.53773e-07
-1.44043e-05
-1.11536e-06
-1.2688e-05
-1.71623e-06
-9.94991e-06
-2.73813e-06
-5.45376e-06
-4.49615e-06
-5.45376e-06
-1.19178e-08
5.5685e-06
-2.12753e-06
6.7214e-06
-4.8477e-06
5.50639e-06
-7.25404e-06
4.1234e-06
-9.17785e-06
3.02168e-06
-1.06723e-05
2.22748e-06
-1.18313e-05
1.6727e-06
-1.27383e-05
1.28354e-06
-1.34571e-05
1.00502e-06
-1.40342e-05
8.00624e-07
-1.45027e-05
6.46778e-07
-1.48867e-05
5.28186e-07
-1.52036e-05
4.34768e-07
-1.54662e-05
3.59724e-07
-1.56843e-05
2.98352e-07
-1.58652e-05
2.47316e-07
-1.60147e-05
2.04191e-07
-1.6137e-05
1.67173e-07
-1.62357e-05
1.34887e-07
-1.63134e-05
1.06262e-07
-1.63721e-05
8.04395e-08
-1.64133e-05
5.67183e-08
-1.64381e-05
3.4505e-08
-1.64473e-05
1.32832e-08
-1.64412e-05
-7.41224e-09
-1.642e-05
-2.80179e-08
-1.63832e-05
-4.89583e-08
-1.63305e-05
-7.06652e-08
-1.62609e-05
-9.35957e-08
-1.61731e-05
-1.18253e-07
-1.60656e-05
-1.45213e-07
-1.59361e-05
-1.75153e-07
-1.57818e-05
-2.08902e-07
-1.55994e-05
-2.47494e-07
-1.53844e-05
-2.92254e-07
-1.51311e-05
-3.44927e-07
-1.48324e-05
-4.07856e-07
-1.44787e-05
-4.84269e-07
-1.40575e-05
-5.78712e-07
-1.3552e-05
-6.97757e-07
-1.29395e-05
-8.51113e-07
-1.21884e-05
-1.05341e-06
-1.12557e-05
-1.32698e-06
-1.00831e-05
-1.70588e-06
-8.59649e-06
-2.24037e-06
-6.71597e-06
-2.99588e-06
-4.40244e-06
-4.02976e-06
-1.82513e-06
-5.31544e-06
1.21682e-07
-6.44296e-06
-5.33208e-06
1.03465e-06
4.53386e-06
5.56989e-07
7.19905e-06
-9.68189e-07
7.03157e-06
-2.84372e-06
5.99894e-06
-4.67645e-06
4.85441e-06
-6.30662e-06
3.85765e-06
-7.6956e-06
3.06168e-06
-8.85723e-06
2.44518e-06
-9.82263e-06
1.97041e-06
-1.06247e-05
1.60265e-06
-1.12924e-05
1.31454e-06
-1.18499e-05
1.08569e-06
-1.23164e-05
9.01279e-07
-1.27072e-05
7.50508e-07
-1.30343e-05
6.2548e-07
-1.33074e-05
5.20337e-07
-1.35338e-05
4.30674e-07
-1.37198e-05
3.53122e-07
-1.387e-05
2.85055e-07
-1.39881e-05
2.24388e-07
-1.40771e-05
1.69429e-07
-1.41391e-05
1.18771e-07
-1.41758e-05
7.1217e-08
-1.41883e-05
2.57149e-08
-1.4177e-05
-1.86865e-08
-1.41421e-05
-6.2881e-08
-1.40834e-05
-1.07738e-07
-1.39999e-05
-1.54136e-07
-1.38905e-05
-2.02999e-07
-1.37534e-05
-2.55334e-07
-1.35863e-05
-3.12279e-07
-1.33863e-05
-3.75155e-07
-1.31497e-05
-4.45547e-07
-1.28718e-05
-5.254e-07
-1.25469e-05
-6.17154e-07
-1.21679e-05
-7.23935e-07
-1.17259e-05
-8.49815e-07
-1.121e-05
-1.00019e-06
-1.06064e-05
-1.18232e-06
-9.89809e-06
-1.40605e-06
-9.06438e-06
-1.68483e-06
-8.08089e-06
-2.0369e-06
-6.9214e-06
-2.48647e-06
-5.56368e-06
-3.0636e-06
-4.00419e-06
-3.79986e-06
-2.28981e-06
-4.71027e-06
-5.78457e-07
-5.74111e-06
7.61473e-07
-6.65537e-06
1.08529e-06
-6.76678e-06
-4.24679e-06
9.10513e-07
3.62334e-06
1.24537e-06
6.8642e-06
6.80898e-07
7.59604e-06
-4.57586e-07
7.13742e-06
-1.84196e-06
6.23878e-06
-3.25498e-06
5.27067e-06
-4.58072e-06
4.38742e-06
-5.77041e-06
3.63487e-06
-6.8125e-06
3.0125e-06
-7.7133e-06
2.50345e-06
-8.48632e-06
2.08755e-06
-9.14689e-06
1.74626e-06
-9.70968e-06
1.46407e-06
-1.01878e-05
1.22861e-06
-1.05924e-05
1.03012e-06
-1.0933e-05
8.60948e-07
-1.12175e-05
7.1509e-07
-1.14521e-05
5.87779e-07
-1.16422e-05
4.75194e-07
-1.17921e-05
3.74227e-07
-1.1905e-05
2.82303e-07
-1.19834e-05
1.97248e-07
-1.20294e-05
1.17186e-07
-1.20441e-05
4.04549e-08
-1.20284e-05
-3.44595e-08
-1.19823e-05
-1.0898e-07
-1.19055e-05
-1.8449e-07
-1.17973e-05
-2.62379e-07
-1.16562e-05
-3.44095e-07
-1.14803e-05
-4.31196e-07
-1.12672e-05
-5.25411e-07
-1.10136e-05
-6.28718e-07
-1.07157e-05
-7.43434e-07
-1.03688e-05
-8.72333e-07
-9.96716e-06
-1.0188e-06
-9.50407e-06
-1.18703e-06
-8.97161e-06
-1.38228e-06
-8.36062e-06
-1.61118e-06
-7.66082e-06
-1.88213e-06
-6.86119e-06
-2.20568e-06
-5.95115e-06
-2.59486e-06
-4.92312e-06
-3.06494e-06
-3.77758e-06
-3.63201e-06
-2.53277e-06
-4.3084e-06
-1.24151e-06
-5.09111e-06
-1.63091e-08
-5.93547e-06
9.44267e-07
-6.70168e-06
1.34754e-06
-7.05864e-06
9.15589e-07
-6.33483e-06
-3.3312e-06
6.77836e-07
2.94551e-06
1.26661e-06
6.27542e-06
1.27334e-06
7.58931e-06
7.37843e-07
7.67292e-06
-1.53555e-07
7.13018e-06
-1.2197e-06
6.33682e-06
-2.32953e-06
5.49724e-06
-3.40296e-06
4.70831e-06
-4.39774e-06
4.00728e-06
-5.29573e-06
3.40144e-06
-6.09279e-06
2.88462e-06
-6.79223e-06
2.44569e-06
-7.40081e-06
2.07266e-06
-7.92655e-06
1.75435e-06
-8.37751e-06
1.48107e-06
-8.7612e-06
1.24464e-06
-9.08433e-06
1.03822e-06
-9.35273e-06
8.56181e-07
-9.57134e-06
6.93806e-07
-9.74427e-06
5.47155e-07
-9.87485e-06
4.12883e-07
-9.96571e-06
2.88106e-07
-1.00188e-05
1.70297e-07
-1.00356e-05
5.7189e-08
-1.00167e-05
-5.32956e-08
-9.96258e-06
-1.63116e-07
-9.8729e-06
-2.74173e-07
-9.74692e-06
-3.88362e-07
-9.58337e-06
-5.07638e-07
-9.3805e-06
-6.3407e-07
-9.13599e-06
-7.69916e-07
-8.84702e-06
-9.17693e-07
-8.51017e-06
-1.08028e-06
-8.1215e-06
-1.26101e-06
-7.67648e-06
-1.46382e-06
-7.17014e-06
-1.69337e-06
-6.59719e-06
-1.95523e-06
-5.95237e-06
-2.25599e-06
-5.23115e-06
-2.60335e-06
-4.4309e-06
-3.00593e-06
-3.55303e-06
-3.47274e-06
-2.60648e-06
-4.01148e-06
-1.61343e-06
-4.62507e-06
-6.1758e-07
-5.30425e-06
3.04955e-07
-6.01365e-06
1.03613e-06
-6.66665e-06
1.41898e-06
-7.08453e-06
1.30024e-06
-6.93991e-06
6.66571e-07
-5.70116e-06
-2.66463e-06
4.8796e-07
2.45755e-06
1.10428e-06
5.6591e-06
1.40164e-06
7.29195e-06
1.27827e-06
7.79629e-06
8.00442e-07
7.60801e-06
8.52883e-08
7.05197e-06
-7.56642e-07
6.33918e-06
-1.64148e-06
5.59314e-06
-2.51308e-06
4.87889e-06
-3.33759e-06
4.22595e-06
-4.09682e-06
3.64385e-06
-4.78282e-06
3.1317e-06
-5.39391e-06
2.68374e-06
-5.93194e-06
2.29239e-06
-6.40064e-06
1.94977e-06
-6.80447e-06
1.64848e-06
-7.1481e-06
1.38185e-06
-7.43592e-06
1.14401e-06
-7.67196e-06
9.29846e-07
-7.85972e-06
7.34915e-07
-8.00216e-06
5.55321e-07
-8.10168e-06
3.87629e-07
-8.16016e-06
2.2877e-07
-8.17892e-06
7.59554e-08
-8.15882e-06
-7.3397e-08
-8.10021e-06
-2.21728e-07
-8.00299e-06
-3.71398e-07
-7.8666e-06
-5.24752e-07
-7.69006e-06
-6.84169e-07
-7.472e-06
-8.5213e-07
-7.21065e-06
-1.03128e-06
-6.90386e-06
-1.22448e-06
-6.54924e-06
-1.4349e-06
-6.14416e-06
-1.66609e-06
-5.68593e-06
-1.92204e-06
-5.17208e-06
-2.20722e-06
-4.6007e-06
-2.52662e-06
-3.97109e-06
-2.8856e-06
-3.28477e-06
-3.28966e-06
-2.547e-06
-3.74371e-06
-1.769e-06
-4.25073e-06
-9.71274e-07
-4.80921e-06
-1.8779e-07
-5.40855e-06
5.29135e-07
-6.02117e-06
1.10526e-06
-6.58978e-06
1.44691e-06
-7.00829e-06
1.4595e-06
-7.09712e-06
1.09824e-06
-6.57865e-06
4.71358e-07
-5.07428e-06
-2.19327e-06
3.567e-07
2.10085e-06
9.2292e-07
5.09288e-06
1.34563e-06
6.86924e-06
1.47585e-06
7.66607e-06
1.30434e-06
7.77952e-06
8.89498e-07
7.46681e-06
3.08891e-07
6.91978e-06
-3.65767e-07
6.2678e-06
-1.07796e-06
5.59108e-06
-1.78736e-06
4.93534e-06
-2.46733e-06
4.32382e-06
-3.10166e-06
3.76603e-06
-3.68149e-06
3.26358e-06
-4.20288e-06
2.81378e-06
-4.66502e-06
2.4119e-06
-5.06895e-06
2.05241e-06
-5.41676e-06
1.72966e-06
-5.711e-06
1.43825e-06
-5.95434e-06
1.17318e-06
-6.14931e-06
9.29888e-07
-6.29822e-06
7.04226e-07
-6.40302e-06
4.9243e-07
-6.46531e-06
2.91061e-07
-6.48629e-06
9.69398e-08
-6.46679e-06
-9.29023e-08
-6.40723e-06
-2.81287e-07
-6.30769e-06
-4.7094e-07
-6.1679e-06
-6.64542e-07
-5.98728e-06
-8.64782e-07
-5.76501e-06
-1.0744e-06
-5.50003e-06
-1.29625e-06
-5.19118e-06
-1.53332e-06
-4.83729e-06
-1.78879e-06
-4.43735e-06
-2.06603e-06
-3.99076e-06
-2.36863e-06
-3.4977e-06
-2.70028e-06
-2.95963e-06
-3.06469e-06
-2.38002e-06
-3.4652e-06
-1.76547e-06
-3.90422e-06
-1.12704e-06
-4.38214e-06
-4.82192e-07
-4.89558e-06
1.43001e-07
-5.4344e-06
7.1159e-07
-5.97714e-06
1.17441e-06
-6.484e-06
1.47176e-06
-6.88713e-06
1.54204e-06
-7.07856e-06
1.34332e-06
-6.89841e-06
8.94697e-07
-6.13002e-06
3.38828e-07
-4.51841e-06
-1.85444e-06
2.70074e-07
1.83077e-06
7.67696e-07
4.59526e-06
1.22842e-06
6.40851e-06
1.50233e-06
7.39216e-06
1.5413e-06
7.74054e-06
1.3611e-06
7.64702e-06
1.00752e-06
7.27336e-06
5.33931e-07
6.74139e-06
-1.07201e-08
6.13573e-06
-5.86679e-07
5.5113e-06
-1.1642e-06
4.90134e-06
-1.72235e-06
4.32418e-06
-2.24726e-06
3.78849e-06
-2.73036e-06
3.29688e-06
-3.16685e-06
2.84839e-06
-3.55451e-06
2.44007e-06
-3.89283e-06
2.06797e-06
-4.18232e-06
1.72774e-06
-4.42411e-06
1.41496e-06
-4.61956e-06
1.12534e-06
-4.77013e-06
8.54798e-07
-4.87719e-06
5.99485e-07
-4.94192e-06
3.55796e-07
-4.96532e-06
1.20337e-07
-4.94812e-06
-1.10106e-07
-4.89081e-06
-3.386e-07
-4.79364e-06
-5.68106e-07
-4.65667e-06
-8.01512e-07
-4.47978e-06
-1.04167e-06
-4.26276e-06
-1.29142e-06
-4.00538e-06
-1.55363e-06
-3.70752e-06
-1.83119e-06
-3.3693e-06
-2.12701e-06
-2.99134e-06
-2.44399e-06
-2.57505e-06
-2.78492e-06
-2.123e-06
-3.15234e-06
-1.63947e-06
-3.54821e-06
-1.13121e-06
-3.97347e-06
-6.08254e-07
-4.42717e-06
-8.50945e-08
-4.9053e-06
4.18151e-07
-5.39882e-06
8.74628e-07
-5.89088e-06
1.25027e-06
-6.35278e-06
1.50493e-06
-6.73866e-06
1.59681e-06
-6.97901e-06
1.49263e-06
-6.97439e-06
1.18624e-06
-6.59201e-06
7.26879e-07
-5.67066e-06
2.52026e-07
-4.04356e-06
-1.60242e-06
2.12183e-07
1.61859e-06
6.4412e-07
4.16333e-06
1.10038e-06
5.95225e-06
1.44805e-06
7.04448e-06
1.62366e-06
7.56493e-06
1.61625e-06
7.65443e-06
1.44645e-06
7.44317e-06
1.1493e-06
7.03854e-06
7.62875e-07
6.52215e-06
3.22034e-07
5.95214e-06
-1.44271e-07
5.36764e-06
-6.13545e-07
4.79345e-06
-1.06919e-06
4.24413e-06
-1.49952e-06
3.7272e-06
-1.8967e-06
3.24557e-06
-2.25578e-06
2.79915e-06
-2.5739e-06
2.3861e-06
-2.84965e-06
2.00349e-06
-3.08258e-06
1.6479e-06
-3.27286e-06
1.31562e-06
-3.421e-06
1.00294e-06
-3.52769e-06
7.06174e-07
-3.59365e-06
4.21759e-07
-3.61958e-06
1.46267e-07
-3.60609e-06
-1.23597e-07
-3.55369e-06
-3.90998e-07
-3.46281e-06
-6.58987e-07
-3.33381e-06
-9.30517e-07
-3.16702e-06
-1.20845e-06
-2.96287e-06
-1.49558e-06
-2.72191e-06
-1.79459e-06
-2.44502e-06
-2.10808e-06
-2.13354e-06
-2.43849e-06
-1.78953e-06
-2.78799e-06
-1.41608e-06
-3.15837e-06
-1.01766e-06
-3.55075e-06
-6.00644e-07
-3.96523e-06
-1.73851e-07
-4.40026e-06
2.50776e-07
-4.8518e-06
6.5751e-07
-5.31203e-06
1.02628e-06
-5.7676e-06
1.33256e-06
-6.19715e-06
1.54808e-06
-6.5683e-06
1.64335e-06
-6.83392e-06
1.59283e-06
-6.9285e-06
1.38422e-06
-6.76577e-06
1.03225e-06
-6.24005e-06
5.96099e-07
-5.2345e-06
1.94267e-07
-3.64172e-06
-1.40815e-06
1.72092e-07
1.4465e-06
5.47153e-07
3.78826e-06
9.79925e-07
5.51948e-06
1.35884e-06
6.66556e-06
1.61809e-06
7.30568e-06
1.73209e-06
7.54043e-06
1.70376e-06
7.47149e-06
1.5527e-06
7.1896e-06
1.30585e-06
6.76901e-06
9.91263e-07
6.26673e-06
6.3463e-07
5.72428e-06
2.57682e-07
5.1704e-06
-1.22198e-07
4.62401e-06
-4.91701e-07
4.09671e-06
-8.41017e-07
3.59488e-06
-1.16318e-06
3.12132e-06
-1.45345e-06
2.67636e-06
-1.70873e-06
2.25878e-06
-1.92718e-06
1.86635e-06
-2.1078e-06
1.49624e-06
-2.25019e-06
1.14533e-06
-2.35434e-06
8.10317e-07
-2.42046e-06
4.87882e-07
-2.44893e-06
1.74736e-07
-2.44019e-06
-1.32332e-07
-2.39476e-06
-4.36436e-07
-2.31317e-06
-7.40575e-07
-2.19606e-06
-1.04762e-06
-2.04419e-06
-1.36032e-06
-1.85853e-06
-1.68124e-06
-1.64034e-06
-2.01278e-06
-1.39136e-06
-2.35707e-06
-1.11394e-06
-2.71591e-06
-8.11303e-07
-3.09063e-06
-4.87788e-07
-3.48189e-06
-1.492e-07
-3.88934e-06
1.96831e-07
-4.31126e-06
5.40437e-07
-4.74387e-06
8.69134e-07
-5.1805e-06
1.16754e-06
-5.61044e-06
1.41738e-06
-6.01743e-06
1.59797e-06
-6.37775e-06
1.68774e-06
-6.65807e-06
1.66703e-06
-6.81321e-06
1.52311e-06
-6.78458e-06
1.25748e-06
-6.50014e-06
8.95302e-07
-5.87787e-06
4.95173e-07
-4.83437e-06
1.54471e-07
-3.30102e-06
-1.25368e-06
1.43115e-07
1.30338e-06
4.70355e-07
3.46102e-06
8.7219e-07
5.11765e-06
1.25712e-06
6.28064e-06
1.56334e-06
6.99946e-06
1.75866e-06
7.3451e-06
1.83471e-06
7.39544e-06
1.79933e-06
7.22498e-06
1.66961e-06
6.89873e-06
1.46651e-06
6.46983e-06
1.21131e-06
5.97948e-06
9.23479e-07
5.45823e-06
6.19756e-07
4.92773e-06
3.13825e-07
4.40264e-06
1.6476e-08
3.89223e-06
-2.64056e-07
3.40185e-06
-5.21674e-07
2.93398e-06
-7.52002e-07
2.48911e-06
-9.52011e-07
2.06636e-06
-1.1197e-06
1.66393e-06
-1.25382e-06
1.27945e-06
-1.3537e-06
9.10199e-07
-1.41907e-06
5.53255e-07
-1.44997e-06
2.05633e-07
-1.44665e-06
-1.35651e-07
-1.40957e-06
-4.73518e-07
-1.33936e-06
-8.10784e-07
-1.23686e-06
-1.15012e-06
-1.10317e-06
-1.49401e-06
-9.39702e-07
-1.84471e-06
-7.48296e-07
-2.20418e-06
-5.31354e-07
-2.57401e-06
-2.91994e-07
-2.95527e-06
-3.42499e-08
-3.34837e-06
2.36709e-07
-3.75284e-06
5.14329e-07
-4.16696e-06
7.9042e-07
-4.58735e-06
1.05493e-06
-5.00838e-06
1.29581e-06
-5.42137e-06
1.49902e-06
-5.81366e-06
1.64895e-06
-6.16736e-06
1.72927e-06
-6.45807e-06
1.72463e-06
-6.65343e-06
1.62349e-06
-6.71208e-06
1.42224e-06
-6.58332e-06
1.13057e-06
-6.20847e-06
7.77539e-07
-5.52485e-06
4.1651e-07
-4.47334e-06
1.25923e-07
-3.01043e-06
-1.12776e-06
1.21248e-07
1.18213e-06
4.08317e-07
3.17396e-06
7.77172e-07
4.74879e-06
1.15336e-06
5.90445e-06
1.48163e-06
6.6712e-06
1.72807e-06
7.09865e-06
1.87779e-06
7.24573e-06
1.93034e-06
7.17243e-06
1.8949e-06
6.93417e-06
1.78596e-06
6.57877e-06
1.62009e-06
6.14535e-06
1.4138e-06
5.66451e-06
1.18224e-06
5.1593e-06
9.38526e-07
4.64635e-06
6.93623e-07
4.13713e-06
4.56351e-07
3.63912e-06
2.33624e-07
3.1567e-06
3.07174e-08
2.69201e-06
-1.48454e-07
2.24553e-06
-3.01074e-07
1.81655e-06
-4.25198e-07
1.40358e-06
-5.19564e-07
1.00457e-06
-5.83452e-07
6.17143e-07
-6.16567e-07
2.38748e-07
-6.18968e-07
-1.33249e-07
-5.91027e-07
-5.01459e-07
-5.33411e-07
-8.684e-07
-4.47099e-07
-1.23643e-06
-3.3342e-07
-1.60769e-06
-1.94119e-07
-1.98401e-06
-3.14438e-08
-2.36686e-06
1.5174e-07
-2.75719e-06
3.51816e-07
-3.15534e-06
5.64263e-07
-3.56082e-06
7.83493e-07
-3.97207e-06
1.00269e-06
-4.38616e-06
1.21366e-06
-4.79832e-06
1.40678e-06
-5.2015e-06
1.57104e-06
-5.58563e-06
1.6943e-06
-5.93691e-06
1.76384e-06
-6.23691e-06
1.76746e-06
-6.46169e-06
1.69511e-06
-6.58107e-06
1.54133e-06
-6.55831e-06
1.30854e-06
-6.35052e-06
1.01069e-06
-5.91063e-06
6.76991e-07
-5.19114e-06
3.54024e-07
-4.15038e-06
1.04603e-07
-2.76101e-06
-1.02315e-06
1.04071e-07
1.07806e-06
3.56997e-07
2.92103e-06
6.9319e-07
4.4126e-06
1.05209e-06
5.54556e-06
1.38557e-06
6.33771e-06
1.66076e-06
6.82346e-06
1.85953e-06
7.04697e-06
1.97603e-06
7.05592e-06
2.01349e-06
6.89671e-06
1.98094e-06
6.61132e-06
1.89057e-06
6.23571e-06
1.7557e-06
5.79939e-06
1.58938e-06
5.32562e-06
1.40361e-06
4.83213e-06
1.20886e-06
4.33188e-06
1.014e-06
3.83398e-06
8.26292e-07
3.34441e-06
6.5152e-07
2.86679e-06
4.94191e-07
2.40286e-06
3.57715e-07
1.95303e-06
2.44586e-07
1.5167e-06
1.56544e-07
1.09261e-06
9.47006e-08
6.78986e-07
5.96489e-08
2.738e-07
5.15303e-08
-1.25131e-07
7.00818e-08
-5.20011e-07
1.14654e-07
-9.12972e-07
1.84203e-07
-1.30598e-06
2.77262e-07
-1.70075e-06
3.91889e-07
-2.09864e-06
5.25592e-07
-2.50056e-06
6.75244e-07
-2.90684e-06
8.36976e-07
-3.31708e-06
1.00607e-06
-3.72992e-06
1.17686e-06
-4.14286e-06
1.34264e-06
-4.55193e-06
1.49562e-06
-4.95131e-06
1.62701e-06
-5.33289e-06
1.72714e-06
-5.68577e-06
1.78591e-06
-5.99568e-06
1.7934e-06
-6.2444e-06
1.74096e-06
-6.40925e-06
1.62271e-06
-6.46281e-06
1.43749e-06
-6.37309e-06
1.19134e-06
-6.10437e-06
8.99932e-07
-5.61922e-06
5.90638e-07
-4.88185e-06
3.03236e-07
-3.86297e-06
8.80672e-08
-2.54585e-06
-9.35087e-07
9.00895e-08
9.87975e-07
3.13501e-07
2.69762e-06
6.18261e-07
4.10784e-06
9.5495e-07
5.20887e-06
1.28227e-06
6.01039e-06
1.56976e-06
6.53597e-06
1.79824e-06
6.81849e-06
1.95862e-06
6.89553e-06
2.04991e-06
6.80542e-06
2.07685e-06
6.58438e-06
2.04782e-06
6.26475e-06
1.97306e-06
5.87414e-06
1.8634e-06
5.43528e-06
1.72934e-06
4.96619e-06
1.5805e-06
4.48072e-06
1.42536e-06
3.98912e-06
1.27112e-06
3.49865e-06
1.12377e-06
3.01414e-06
9.88129e-07
2.5385e-06
8.67971e-07
2.07318e-06
7.66183e-07
1.61849e-06
6.84865e-07
1.17393e-06
6.25447e-07
7.38404e-07
5.88776e-07
3.1047e-07
5.75186e-07
-1.11541e-07
5.84539e-07
-5.29364e-07
6.16247e-07
-9.4468e-07
6.69271e-07
-1.35901e-06
7.42102e-07
-1.77358e-06
8.32721e-07
-2.18926e-06
9.38546e-07
-2.60639e-06
1.05637e-06
-3.02467e-06
1.18228e-06
-3.44298e-06
1.3116e-06
-3.85924e-06
1.43885e-06
-4.27012e-06
1.55771e-06
-4.67079e-06
1.66105e-06
-5.05465e-06
1.74109e-06
-5.41293e-06
1.78964e-06
-5.73432e-06
1.79854e-06
-6.00458e-06
1.76034e-06
-6.2062e-06
1.66928e-06
-6.31819e-06
1.52255e-06
-6.31609e-06
1.32185e-06
-6.17239e-06
1.07511e-06
-5.85763e-06
7.98113e-07
-5.34222e-06
5.15546e-07
-4.59928e-06
2.6094e-07
-3.60837e-06
7.47903e-08
-2.3597e-06
-8.60297e-07
7.8351e-08
9.09623e-07
2.75778e-07
2.50019e-06
5.50582e-07
3.83303e-06
8.62274e-07
4.89718e-06
1.17571e-06
5.69696e-06
1.46344e-06
6.24824e-06
1.70659e-06
6.57535e-06
1.8944e-06
6.70772e-06
2.02307e-06
6.67675e-06
2.09412e-06
6.51333e-06
2.11281e-06
6.24606e-06
2.08666e-06
5.90029e-06
2.02432e-06
5.49762e-06
1.93467e-06
5.05584e-06
1.82623e-06
4.58916e-06
1.70682e-06
4.10854e-06
1.5833e-06
3.62216e-06
1.46157e-06
3.13587e-06
1.34652e-06
2.65355e-06
1.24212e-06
2.17759e-06
1.15147e-06
1.70914e-06
1.07693e-06
1.24848e-06
1.02014e-06
7.9519e-07
9.82175e-07
3.48436e-07
9.63534e-07
-9.29002e-08
9.64215e-07
-5.30045e-07
9.83726e-07
-9.64191e-07
1.02109e-06
-1.39637e-06
1.07485e-06
-1.82733e-06
1.143e-06
-2.25741e-06
1.22301e-06
-2.6864e-06
1.31173e-06
-3.11339e-06
1.4054e-06
-3.53665e-06
1.49956e-06
-3.9534e-06
1.58909e-06
-4.35965e-06
1.66824e-06
-4.74993e-06
1.73067e-06
-5.11708e-06
1.76969e-06
-5.45195e-06
1.77853e-06
-5.74315e-06
1.75078e-06
-5.97683e-06
1.68105e-06
-6.13647e-06
1.56578e-06
-6.20293e-06
1.40432e-06
-6.15462e-06
1.20007e-06
-5.96814e-06
9.61706e-07
-5.61927e-06
7.04188e-07
-5.0847e-06
4.49222e-07
-4.34432e-06
2.24852e-07
-3.384e-06
6.37882e-08
-2.19863e-06
-7.96509e-07
6.82281e-08
8.41395e-07
2.4237e-07
2.32605e-06
4.88663e-07
3.58674e-06
7.73819e-07
4.61202e-06
1.06809e-06
5.40269e-06
1.34722e-06
5.9691e-06
1.59342e-06
6.32915e-06
1.79536e-06
6.50578e-06
1.94752e-06
6.52459e-06
2.04914e-06
6.4117e-06
2.10303e-06
6.19216e-06
2.11443e-06
5.88889e-06
2.08998e-06
5.52207e-06
2.03699e-06
5.10884e-06
1.96277e-06
4.66337e-06
1.87431e-06
4.197e-06
1.77794e-06
3.71853e-06
1.67926e-06
3.23455e-06
1.58305e-06
2.74976e-06
1.49327e-06
2.26736e-06
1.41313e-06
1.78928e-06
1.3451e-06
1.3165e-06
1.291e-06
8.49288e-07
1.25204e-06
3.87392e-07
1.22889e-06
-6.97412e-08
1.22165e-06
-5.22813e-07
1.22998e-06
-9.72517e-07
1.253e-06
-1.41939e-06
1.28936e-06
-1.86369e-06
1.33718e-06
-2.30524e-06
1.39408e-06
-2.74329e-06
1.45709e-06
-3.17641e-06
1.52271e-06
-3.60227e-06
1.58685e-06
-4.01754e-06
1.64487e-06
-4.41767e-06
1.69166e-06
-4.79673e-06
1.72176e-06
-5.14717e-06
1.72951e-06
-5.45971e-06
1.70945e-06
-5.72309e-06
1.65665e-06
-5.92403e-06
1.56735e-06
-6.04717e-06
1.43961e-06
-6.07519e-06
1.27417e-06
-5.98918e-06
1.07531e-06
-5.76928e-06
8.51665e-07
-5.39563e-06
6.1687e-07
-4.84991e-06
3.89655e-07
-4.1171e-06
1.93336e-07
-3.18768e-06
5.44063e-08
-2.0597e-06
-7.42103e-07
5.92962e-08
7.82099e-07
2.12237e-07
2.17311e-06
4.31324e-07
3.36765e-06
6.89145e-07
4.3542e-06
9.60636e-07
5.1312e-06
1.22468e-06
5.70506e-06
1.46499e-06
6.08883e-06
1.67041e-06
6.30037e-06
1.83452e-06
6.36048e-06
1.95505e-06
6.29118e-06
2.03298e-06
6.11423e-06
2.07169e-06
5.85019e-06
2.07611e-06
5.51764e-06
2.05205e-06
5.13289e-06
2.00567e-06
4.70976e-06
1.943e-06
4.25967e-06
1.86975e-06
3.79178e-06
1.79107e-06
3.31323e-06
1.71147e-06
2.82936e-06
1.63479e-06
2.34404e-06
1.56421e-06
1.85987e-06
1.50222e-06
1.37849e-06
1.45073e-06
9.00777e-07
1.41106e-06
4.27068e-07
1.38397e-06
-4.26522e-08
1.36973e-06
-5.08571e-07
1.3681e-06
-9.70888e-07
1.37837e-06
-1.42966e-06
1.39933e-06
-1.88466e-06
1.42932e-06
-2.33522e-06
1.46616e-06
-2.78013e-06
1.50717e-06
-3.21742e-06
1.5492e-06
-3.6443e-06
1.58859e-06
-4.05694e-06
1.62129e-06
-4.45037e-06
1.64285e-06
-4.81829e-06
1.64864e-06
-5.15296e-06
1.63402e-06
-5.44509e-06
1.59462e-06
-5.68369e-06
1.52674e-06
-5.85616e-06
1.42784e-06
-5.94827e-06
1.2971e-06
-5.94444e-06
1.13606e-06
-5.82814e-06
9.4928e-07
-5.5825e-06
7.44886e-07
-5.19124e-06
5.3491e-07
-4.63993e-06
3.35265e-07
-3.91746e-06
1.65208e-07
-3.01762e-06
4.61962e-08
-1.94069e-06
-6.95906e-07
5.126e-08
7.30839e-07
1.84622e-07
2.03975e-06
3.77648e-07
3.17463e-06
6.07778e-07
4.12407e-06
8.54018e-07
4.88496e-06
1.0982e-06
5.46088e-06
1.32578e-06
5.86124e-06
1.52622e-06
6.09993e-06
1.69283e-06
6.19388e-06
1.82241e-06
6.1616e-06
1.91465e-06
6.02198e-06
1.9715e-06
5.79334e-06
1.99645e-06
5.49269e-06
1.99401e-06
5.13533e-06
1.96919e-06
4.73458e-06
1.92713e-06
4.30173e-06
1.8728e-06
3.84611e-06
1.81084e-06
3.37519e-06
1.74538e-06
2.89482e-06
1.68004e-06
2.40938e-06
1.61786e-06
1.92206e-06
1.56128e-06
1.43507e-06
1.51222e-06
9.49836e-07
1.47205e-06
4.67238e-07
1.44163e-06
-1.22345e-08
1.42135e-06
-4.88284e-07
1.4111e-06
-9.6064e-07
1.41034e-06
-1.4289e-06
1.41808e-06
-1.8924e-06
1.43287e-06
-2.35002e-06
1.45282e-06
-2.80008e-06
1.47561e-06
-3.24021e-06
1.49848e-06
-3.66716e-06
1.51827e-06
-4.07673e-06
1.5315e-06
-4.4636e-06
1.53444e-06
-4.82122e-06
1.52323e-06
-5.14175e-06
1.4941e-06
-5.41596e-06
1.44363e-06
-5.63322e-06
1.36907e-06
-5.7816e-06
1.26878e-06
-5.84797e-06
1.14261e-06
-5.81828e-06
9.92503e-07
-5.67803e-06
8.2286e-07
-5.41285e-06
6.40977e-07
-5.00935e-06
4.572e-07
-4.45615e-06
2.84823e-07
-3.74508e-06
1.39601e-07
-2.8724e-06
3.88428e-08
-1.83993e-06
-6.57064e-07
4.39085e-08
6.86931e-07
1.58971e-07
1.92468e-06
3.26921e-07
3.00668e-06
5.29274e-07
3.92172e-06
7.48579e-07
4.66565e-06
9.69407e-07
5.24006e-06
1.17905e-06
5.6516e-06
1.36786e-06
5.91112e-06
1.5293e-06
6.03243e-06
1.65974e-06
6.03116e-06
1.75802e-06
5.92371e-06
1.82499e-06
5.72637e-06
1.863e-06
5.45468e-06
1.87545e-06
5.12288e-06
1.86632e-06
4.74371e-06
1.83987e-06
4.32818e-06
1.80035e-06
3.88563e-06
1.7518e-06
3.42374e-06
1.69795e-06
2.94867e-06
1.64209e-06
2.46524e-06
1.58704e-06
1.97711e-06
1.53515e-06
1.48696e-06
1.48827e-06
9.96714e-07
1.44779e-06
5.0772e-07
1.41463e-06
2.09292e-08
1.38926e-06
-4.62918e-07
1.37174e-06
-9.43122e-07
1.36171e-06
-1.41887e-06
1.35838e-06
-1.88907e-06
1.3606e-06
-2.35223e-06
1.36677e-06
-2.80626e-06
1.37497e-06
-3.2484e-06
1.38287e-06
-3.67507e-06
1.38785e-06
-4.08171e-06
1.387e-06
-4.46275e-06
1.37724e-06
-4.81146e-06
1.35544e-06
-5.11995e-06
1.3186e-06
-5.37912e-06
1.26407e-06
-5.57869e-06
1.18982e-06
-5.70735e-06
1.09479e-06
-5.75294e-06
9.79237e-07
-5.70273e-06
8.45123e-07
-5.54392e-06
6.96435e-07
-5.26417e-06
5.39445e-07
-4.85236e-06
3.82796e-07
-4.2995e-06
2.37369e-07
-3.59965e-06
1.1587e-07
-2.7509e-06
3.21192e-08
-1.75618e-06
-6.24944e-07
3.70875e-08
6.49843e-07
1.34867e-07
1.8269e-06
2.78587e-07
2.86296e-06
4.53238e-07
3.74707e-06
6.44483e-07
4.47441e-06
8.39422e-07
5.04512e-06
1.02716e-06
5.46386e-06
1.19917e-06
5.73912e-06
1.34935e-06
5.88225e-06
1.47396e-06
5.90655e-06
1.57133e-06
5.82633e-06
1.64158e-06
5.65613e-06
1.68616e-06
5.4101e-06
1.70753e-06
5.10152e-06
1.70877e-06
4.74246e-06
1.69333e-06
4.34362e-06
1.66475e-06
3.91421e-06
1.62648e-06
3.462e-06
1.58177e-06
2.99338e-06
1.53355e-06
2.51346e-06
1.48437e-06
2.02628e-06
1.43642e-06
1.53491e-06
1.39144e-06
1.04169e-06
1.35079e-06
5.48368e-07
1.31543e-06
5.62948e-08
1.28591e-06
-4.33397e-07
1.26242e-06
-9.19633e-07
1.24478e-06
-1.40123e-06
1.23245e-06
-1.87675e-06
1.22455e-06
-2.34433e-06
1.21986e-06
-2.80156e-06
1.21681e-06
-3.24536e-06
1.21356e-06
-3.67182e-06
1.20801e-06
-4.07615e-06
1.19781e-06
-4.45255e-06
1.1805e-06
-4.79416e-06
1.15362e-06
-5.09307e-06
1.11481e-06
-5.3403e-06
1.06202e-06
-5.5259e-06
9.93762e-07
-5.6391e-06
9.09344e-07
-5.66852e-06
8.09158e-07
-5.60254e-06
6.94961e-07
-5.42972e-06
5.7012e-07
-5.13932e-06
4.39781e-07
-4.72202e-06
3.10907e-07
-4.17063e-06
1.92152e-07
-3.4809e-06
9.35272e-08
-2.65228e-06
2.58578e-08
-1.68851e-06
-5.99087e-07
3.06805e-08
6.19163e-07
1.11989e-07
1.7456e-06
2.32198e-07
2.74275e-06
3.79318e-07
3.59995e-06
5.41777e-07
4.31195e-06
7.09009e-07
4.87789e-06
8.7191e-07
5.30096e-06
1.02314e-06
5.58789e-06
1.15725e-06
5.74814e-06
1.27065e-06
5.79315e-06
1.36148e-06
5.73551e-06
1.42932e-06
5.58829e-06
1.47496e-06
5.36445e-06
1.50011e-06
5.07637e-06
1.50709e-06
4.73549e-06
1.49858e-06
4.35212e-06
1.47747e-06
3.93533e-06
1.44662e-06
3.49286e-06
1.40877e-06
3.03122e-06
1.36648e-06
2.55576e-06
1.32199e-06
2.07077e-06
1.27725e-06
1.57965e-06
1.2339e-06
1.08505e-06
1.19321e-06
5.89057e-07
1.15614e-06
9.33647e-08
1.12331e-06
-4.00574e-07
1.09505e-06
-8.91366e-07
1.07134e-06
-1.37752e-06
1.05188e-06
-1.8573e-06
1.0361e-06
-2.32854e-06
1.02311e-06
-2.78857e-06
1.01177e-06
-3.23402e-06
1.0007e-06
-3.66075e-06
9.88293e-07
-4.06374e-06
9.72774e-07
-4.43703e-06
9.52261e-07
-4.77365e-06
9.24854e-07
-5.06566e-06
8.88752e-07
-5.3042e-06
8.42405e-07
-5.47955e-06
7.84685e-07
-5.58138e-06
7.15091e-07
-5.59893e-06
6.33963e-07
-5.52142e-06
5.42689e-07
-5.33845e-06
4.43882e-07
-5.04052e-06
3.41501e-07
-4.61964e-06
2.4087e-07
-4.07e-06
1.48572e-07
-3.3886e-06
7.21955e-08
-2.5759e-06
1.99317e-08
-1.63625e-06
-5.79155e-07
2.45965e-08
5.94566e-07
9.00819e-08
1.68011e-06
1.87388e-07
2.64544e-06
3.07196e-07
3.48014e-06
4.4043e-07
4.17872e-06
5.78686e-07
4.73963e-06
7.14591e-07
5.16505e-06
8.42058e-07
5.46042e-06
9.56414e-07
5.63378e-06
1.05442e-06
5.69514e-06
1.13419e-06
5.65574e-06
1.19503e-06
5.52745e-06
1.23724e-06
5.32224e-06
1.26191e-06
5.05169e-06
1.27071e-06
4.72669e-06
1.26568e-06
4.35716e-06
1.24906e-06
3.95195e-06
1.22315e-06
3.51877e-06
1.1902e-06
3.06417e-06
1.15233e-06
2.59363e-06
1.11148e-06
2.11162e-06
1.06935e-06
1.62178e-06
1.02738e-06
1.12701e-06
9.86771e-07
6.29667e-07
9.48449e-07
1.31687e-07
9.13084e-07
-3.6521e-07
8.81097e-07
-8.59379e-07
8.5266e-07
-1.34908e-06
8.27709e-07
-1.83234e-06
8.05948e-07
-2.30678e-06
7.86859e-07
-2.76948e-06
7.69713e-07
-3.21687e-06
7.53581e-07
-3.64462e-06
7.37358e-07
-4.04752e-06
7.19799e-07
-4.41947e-06
6.99557e-07
-4.75341e-06
6.75254e-07
-5.04136e-06
6.45565e-07
-5.27451e-06
6.09322e-07
-5.44331e-06
5.65649e-07
-5.5377e-06
5.14104e-07
-5.54738e-06
4.54837e-07
-5.46215e-06
3.88746e-07
-5.27235e-06
3.17606e-07
-4.96938e-06
2.44158e-07
-4.5462e-06
1.72125e-07
-3.99797e-06
1.06142e-07
-3.32262e-06
5.15752e-08
-2.52133e-06
1.42418e-08
-1.59892e-06
-5.64913e-07
1.87617e-08
5.75804e-07
6.89347e-08
1.62994e-06
1.43841e-07
2.57054e-06
2.36578e-07
3.3874e-06
3.40352e-07
4.07494e-06
4.48784e-07
4.6312e-06
5.56175e-07
5.05766e-06
6.57712e-07
5.35888e-06
7.49585e-07
5.54191e-06
8.29034e-07
5.61569e-06
8.94307e-07
5.59046e-06
9.44579e-07
5.47718e-06
9.7982e-07
5.287e-06
1.00065e-06
5.03087e-06
1.00816e-06
4.71917e-06
1.00382e-06
4.3615e-06
9.89273e-07
3.96649e-06
9.6629e-07
3.54175e-06
9.36628e-07
3.09383e-06
9.01985e-07
2.62827e-06
8.6394e-07
2.14967e-06
8.23921e-07
1.6618e-06
7.83181e-07
1.16775e-06
7.42791e-07
6.70058e-07
7.0363e-07
1.70848e-07
6.66392e-07
-3.27973e-07
6.31591e-07
-8.24577e-07
5.99558e-07
-1.31705e-06
5.70456e-07
-1.80324e-06
5.44279e-07
-2.2806e-06
5.20858e-07
-2.74606e-06
4.99869e-07
-3.19588e-06
4.80835e-07
-3.62558e-06
4.6314e-07
-4.02983e-06
4.46044e-07
-4.40237e-06
4.28707e-07
-4.73607e-06
4.1023e-07
-5.02288e-06
3.89702e-07
-5.25398e-06
3.66268e-07
-5.41988e-06
3.39214e-07
-5.51065e-06
3.08066e-07
-5.51623e-06
2.72695e-07
-5.42678e-06
2.33427e-07
-5.23309e-06
1.91143e-07
-4.92709e-06
1.47346e-07
-4.5024e-06
1.04192e-07
-3.95481e-06
6.44555e-08
-3.28288e-06
3.14212e-08
-2.4883e-06
8.7079e-09
-1.5762e-06
-5.56205e-07
1.31132e-08
5.62691e-07
4.83641e-08
1.59469e-06
1.01276e-07
2.51762e-06
1.67177e-07
3.3215e-06
2.41403e-07
4.00072e-06
3.19492e-07
4.55311e-06
3.97369e-07
4.97978e-06
4.71498e-07
5.28475e-06
5.38984e-07
5.47442e-06
5.9763e-07
5.55705e-06
6.45935e-07
5.54216e-06
6.83058e-07
5.44006e-06
7.08741e-07
5.26132e-06
7.23224e-07
5.01638e-06
7.27137e-07
4.71526e-06
7.21404e-07
4.36723e-06
7.07148e-07
3.98075e-06
6.85603e-07
3.5633e-06
6.5805e-07
3.12139e-06
6.25757e-07
2.66056e-06
5.89941e-07
2.18548e-06
5.51737e-07
1.7e-06
5.12179e-07
1.20731e-06
4.7219e-07
7.10046e-07
4.32583e-07
2.10456e-07
3.94053e-07
-2.89442e-07
3.57186e-07
-7.87711e-07
3.22463e-07
-1.28233e-06
2.90258e-07
-1.77104e-06
2.60846e-07
-2.25119e-06
2.34402e-07
-2.71961e-06
2.10997e-07
-3.17248e-06
1.90599e-07
-3.60519e-06
1.73069e-07
-4.0123e-06
1.5816e-07
-4.38746e-06
1.45522e-07
-4.72343e-06
1.34703e-07
-5.01206e-06
1.25172e-07
-5.24445e-06
1.16343e-07
-5.41105e-06
1.07614e-07
-5.50192e-06
9.84209e-08
-5.50704e-06
8.82978e-08
-5.41666e-06
7.69515e-08
-5.22174e-06
6.43322e-08
-4.91447e-06
5.06972e-08
-4.48876e-06
3.6653e-08
-3.94077e-06
2.31658e-08
-3.26939e-06
1.15259e-08
-2.47666e-06
3.26249e-09
-1.56794e-06
-5.52943e-07
7.59474e-09
5.55096e-07
2.82034e-08
1.57408e-06