/*--------------------------------*- C++ -*----------------------------------*\
  =========                 |
  \\      /  F ield         | OpenFOAM: The Open Source CFD Toolbox
   \\    /   O peration     | Website:  https://openfoam.org
    \\  /    A nd           | Version:  7
     \\/     M anipulation  |
\*---------------------------------------------------------------------------*/
FoamFile
{
    version     2.0;
    format      ascii;
    class       surfaceScalarField;
    location    "0.0726";
    object      phi;
}
// * * * * * * * * * * * * * * * * * * * * * * * * * * * * * * * * * * * * * //

dimensions      [0 3 -1 0 0 0 0];

internalField   nonuniform List<scalar> 
4900
(
1.13812e-09
-1.1466e-09
2.31533e-09
-1.17725e-09
2.38418e-09
-6.88645e-11
9.40499e-10
1.44368e-09
-2.09459e-09
3.0351e-09
-6.6372e-09
4.54261e-09
-1.25229e-08
5.88572e-09
-1.95513e-08
7.02833e-09
-2.75086e-08
7.9573e-09
-3.61797e-08
8.67107e-09
-4.5354e-08
9.17436e-09
-5.48296e-08
9.47559e-09
-6.44149e-08
9.5853e-09
-7.39303e-08
9.51537e-09
-8.32088e-08
9.27843e-09
-9.20963e-08
8.88755e-09
-1.00452e-07
8.35603e-09
-1.0815e-07
7.69731e-09
-1.15075e-07
6.92486e-09
-1.21127e-07
6.05225e-09
-1.2622e-07
5.09313e-09
-1.30281e-07
4.06132e-09
-1.33252e-07
2.97084e-09
-1.35088e-07
1.836e-09
-1.35759e-07
6.71464e-10
-1.35252e-07
-5.07676e-10
-1.33566e-07
-1.68587e-09
-1.30719e-07
-2.8471e-09
-1.26744e-07
-3.97486e-09
-1.21692e-07
-5.05224e-09
-1.1563e-07
-6.06197e-09
-1.08643e-07
-6.98656e-09
-1.00835e-07
-7.80842e-09
-9.23246e-08
-8.51012e-09
-8.32501e-08
-9.07457e-09
-7.37648e-08
-9.48531e-09
-6.40379e-08
-9.72681e-09
-5.42531e-08
-9.78484e-09
-4.46063e-08
-9.64682e-09
-3.53039e-08
-9.30233e-09
-2.65603e-08
-8.74367e-09
-1.85935e-08
-7.96678e-09
-1.16209e-08
-6.97256e-09
-5.85149e-09
-5.76943e-09
-1.47307e-09
-4.37841e-09
1.37161e-09
-2.84467e-09
2.62759e-09
-1.25598e-09
2.39566e-09
2.3191e-10
1.13912e-09
1.25649e-09
1.13908e-09
1.18567e-09
-2.33229e-09
1.33016e-09
-1.32176e-09
-1.22163e-09
2.48295e-09
-7.24862e-09
7.47068e-09
-1.69874e-08
1.27739e-08
-3.03293e-08
1.78845e-08
-4.69596e-08
2.2516e-08
-6.64455e-08
2.65143e-08
-8.82913e-08
2.98031e-08
-1.11973e-07
3.23528e-08
-1.36961e-07
3.41625e-08
-1.62735e-07
3.52495e-08
-1.88792e-07
3.56427e-08
-2.14656e-07
3.53788e-08
-2.39877e-07
3.44994e-08
-2.64039e-07
3.30495e-08
-2.86759e-07
3.10761e-08
-3.07689e-07
2.86278e-08
-3.26518e-07
2.57541e-08
-3.42972e-07
2.25054e-08
-3.56811e-07
1.89329e-08
-3.67839e-07
1.50886e-08
-3.75893e-07
1.10255e-08
-3.80855e-07
6.79771e-09
-3.82644e-07
2.46086e-09
-3.81224e-07
-1.92809e-09
-3.76599e-07
-6.31054e-09
-3.6882e-07
-1.06263e-08
-3.57981e-07
-1.48138e-08
-3.44223e-07
-1.881e-08
-3.27735e-07
-2.25509e-08
-3.08749e-07
-2.59721e-08
-2.87548e-07
-2.90095e-08
-2.64459e-07
-3.15995e-08
-2.39853e-07
-3.36808e-08
-2.14143e-07
-3.51947e-08
-1.87783e-07
-3.60871e-08
-1.61259e-07
-3.63092e-08
-1.35085e-07
-3.582e-08
-1.098e-07
-3.4588e-08
-8.59496e-08
-3.25939e-08
-6.40811e-08
-2.98353e-08
-4.47221e-08
-2.63316e-08
-2.83565e-08
-2.2135e-08
-1.53889e-08
-1.7346e-08
-6.09007e-09
-1.21435e-08
-5.10848e-10
-6.83517e-09
1.66809e-09
-1.94694e-09
1.26802e-09
1.65666e-09
2.40706e-09
1.26624e-10
-2.45893e-09
-2.37847e-09
1.18331e-09
-9.10638e-09
9.21088e-09
-2.08592e-08
1.92235e-08
-3.78844e-08
2.97991e-08
-6.00371e-08
4.00372e-08
-8.69019e-08
4.93808e-08
-1.17889e-07
5.75018e-08
-1.52306e-07
6.42191e-08
-1.894e-07
6.94468e-08
-2.28399e-07
7.31618e-08
-2.68533e-07
7.53831e-08
-3.09048e-07
7.61584e-08
-3.49224e-07
7.55549e-08
-3.88378e-07
7.36532e-08
-4.25872e-07
7.05433e-08
-4.61117e-07
6.63213e-08
-4.93578e-07
6.10882e-08
-5.22771e-07
5.49479e-08
-5.48273e-07
4.80072e-08
-5.69716e-07
4.03754e-08
-5.86791e-07
3.21637e-08
-5.99251e-07
2.34859e-08
-6.06912e-07
1.44586e-08
-6.09652e-07
5.20096e-09
-6.07416e-07
-4.16453e-09
-6.00214e-07
-1.35123e-08
-5.88127e-07
-2.27137e-08
-5.71303e-07
-3.16372e-08
-5.49964e-07
-4.01488e-08
-5.24402e-07
-4.81131e-08
-4.9498e-07
-5.53941e-08
-4.62133e-07
-6.18569e-08
-4.26363e-07
-6.73689e-08
-3.88242e-07
-7.18025e-08
-3.48399e-07
-7.50373e-08
-3.07523e-07
-7.69629e-08
-2.6635e-07
-7.74823e-08
-2.25654e-07
-7.65163e-08
-1.86234e-07
-7.40079e-08
-1.48899e-07
-6.99289e-08
-1.14445e-07
-6.42891e-08
-8.36282e-08
-5.71483e-08
-5.71277e-08
-4.86354e-08
-3.54954e-08
-3.89783e-08
-1.90876e-08
-2.85513e-08
-7.97103e-09
-1.79518e-08
-1.81018e-09
-8.10782e-09
2.93967e-10
-4.47428e-10
2.70102e-09
-1.34409e-09
-1.11483e-09
-7.29248e-09
7.1317e-09
-1.90548e-08
2.09732e-08
-3.72369e-08
3.74056e-08
-6.19727e-08
5.45349e-08
-9.30188e-08
7.10833e-08
-1.2985e-07
8.62125e-08
-1.71746e-07
9.93974e-08
-2.17855e-07
1.10328e-07
-2.67249e-07
1.18841e-07
-3.18964e-07
1.24877e-07
-3.72031e-07
1.2845e-07
-4.25494e-07
1.29622e-07
-4.78433e-07
1.28494e-07
-5.2997e-07
1.25191e-07
-5.79283e-07
1.19857e-07
-6.25611e-07
1.12649e-07
-6.68257e-07
1.03734e-07
-7.06595e-07
9.32859e-08
-7.40071e-07
8.14835e-08
-7.68207e-07
6.85113e-08
-7.90602e-07
5.45583e-08
-8.06934e-07
3.98176e-08
-8.16962e-07
2.44873e-08
-8.20532e-07
8.77031e-09
-8.17571e-07
-7.12528e-09
-8.08097e-07
-2.29863e-08
-7.92216e-07
-3.85947e-08
-7.70125e-07
-5.37281e-08
-7.42113e-07
-6.81604e-08
-7.08563e-07
-8.16639e-08
-6.69946e-07
-9.40104e-08
-6.26829e-07
-1.04974e-07
-5.79863e-07
-1.14335e-07
-5.29784e-07
-1.21881e-07
-4.77406e-07
-1.27416e-07
-4.23611e-07
-1.30758e-07
-3.6934e-07
-1.31753e-07
-3.15578e-07
-1.30278e-07
-2.63336e-07
-1.26249e-07
-2.13633e-07
-1.19632e-07
-1.67461e-07
-1.10461e-07
-1.25756e-07
-9.88532e-08
-8.93534e-08
-8.50378e-08
-5.89334e-08
-6.93983e-08
-3.4953e-08
-5.25317e-08
-1.75648e-08
-3.53399e-08
-6.52709e-09
-1.91456e-08
-1.11978e-09
-5.85473e-09
1.58124e-09
-2.91807e-09
1.80324e-09
-1.26524e-08
1.6866e-08
-2.98757e-08
3.81965e-08
-5.48776e-08
6.24075e-08
-8.75785e-08
8.72358e-08
-1.27577e-07
1.11082e-07
-1.74211e-07
1.32847e-07
-2.26625e-07
1.51811e-07
-2.83826e-07
1.67529e-07
-3.44737e-07
1.79751e-07
-4.08234e-07
1.88375e-07
-4.73184e-07
1.93399e-07
-5.38465e-07
1.94903e-07
-6.0299e-07
1.93019e-07
-6.65723e-07
1.87923e-07
-7.25686e-07
1.7982e-07
-7.81972e-07
1.68935e-07
-8.3375e-07
1.55513e-07
-8.80273e-07
1.39809e-07
-9.20878e-07
1.22088e-07
-9.54991e-07
1.02625e-07
-9.82134e-07
8.17008e-08
-1.00192e-06
5.96044e-08
-1.01407e-06
3.66317e-08
-1.01838e-06
1.30859e-08
-1.01478e-06
-1.07219e-08
-1.0033e-06
-3.44736e-08
-9.84048e-07
-5.78439e-08
-9.57274e-07
-8.05018e-08
-9.23323e-07
-1.02112e-07
-8.82651e-07
-1.22335e-07
-8.35826e-07
-1.40836e-07
-7.8352e-07
-1.5728e-07
-7.26511e-07
-1.71344e-07
-6.65674e-07
-1.82718e-07
-6.01974e-07
-1.91115e-07
-5.36456e-07
-1.96276e-07
-4.70231e-07
-1.97978e-07
-4.04459e-07
-1.96051e-07
-3.40327e-07
-1.90381e-07
-2.79024e-07
-1.80935e-07
-2.21711e-07
-1.67775e-07
-1.69479e-07
-1.51086e-07
-1.23305e-07
-1.31211e-07
-8.40044e-08
-1.08699e-07
-5.21644e-08
-8.43717e-08
-2.80857e-08
-5.94186e-08
-1.17223e-08
-3.5509e-08
-2.64007e-09
-1.4937e-08
-1.05883e-09
-4.47168e-09
6.27494e-09
-1.80652e-08
3.04595e-08
-4.09007e-08
6.1032e-08
-7.28854e-08
9.43922e-08
-1.13664e-07
1.28015e-07
-1.62628e-07
1.60045e-07
-2.18946e-07
1.89165e-07
-2.81614e-07
2.14479e-07
-3.49498e-07
2.35413e-07
-4.2138e-07
2.51633e-07
-4.95995e-07
2.6299e-07
-5.72068e-07
2.69472e-07
-6.48337e-07
2.71172e-07
-7.23575e-07
2.68257e-07
-7.9661e-07
2.60957e-07
-8.66334e-07
2.49544e-07
-9.31718e-07
2.3432e-07
-9.9182e-07
2.15615e-07
-1.04579e-06
1.93777e-07
-1.09287e-06
1.69168e-07
-1.13241e-06
1.42165e-07
-1.16386e-06
1.13154e-07
-1.18679e-06
8.25324e-08
-1.20087e-06
5.07079e-08
-1.20588e-06
1.80985e-08
-1.20173e-06
-1.48677e-08
-1.18845e-06
-4.77529e-08
-1.16619e-06
-8.011e-08
-1.1352e-06
-1.11484e-07
-1.0959e-06
-1.41415e-07
-1.0488e-06
-1.69441e-07
-9.94532e-07
-1.95099e-07
-9.33875e-07
-2.17937e-07
-8.67706e-07
-2.37513e-07
-7.97017e-07
-2.53408e-07
-7.229e-07
-2.65233e-07
-6.46536e-07
-2.7264e-07
-5.6918e-07
-2.75334e-07
-4.92142e-07
-2.73089e-07
-4.1676e-07
-2.65763e-07
-3.44374e-07
-2.5332e-07
-2.76295e-07
-2.35854e-07
-2.1376e-07
-2.13621e-07
-1.57895e-07
-1.87076e-07
-1.09663e-07
-1.56931e-07
-6.98168e-08
-1.24217e-07
-3.88561e-08
-9.03793e-08
-1.69927e-08
-5.73725e-08
-4.14707e-09
-2.77826e-08
-5.20589e-09
-5.95517e-09
1.22301e-08
-2.33492e-08
4.78534e-08
-5.17849e-08
8.94678e-08
-9.0769e-08
1.33376e-07
-1.39637e-07
1.76883e-07
-1.97536e-07
2.17945e-07
-2.6344e-07
2.55069e-07
-3.36177e-07
2.87216e-07
-4.14462e-07
3.13697e-07
-4.96937e-07
3.34109e-07
-5.82207e-07
3.4826e-07
-6.68865e-07
3.56131e-07
-7.55524e-07
3.57831e-07
-8.40837e-07
3.5357e-07
-9.23514e-07
3.43634e-07
-1.00234e-06
3.28368e-07
-1.07618e-06
3.0816e-07
-1.14399e-06
2.83431e-07
-1.20485e-06
2.54632e-07
-1.25791e-06
2.22232e-07
-1.30247e-06
1.86718e-07
-1.3379e-06
1.48593e-07
-1.36375e-06
1.08373e-07
-1.37963e-06
6.65906e-08
-1.38532e-06
2.37884e-08
-1.38071e-06
-1.94759e-08
-1.36583e-06
-6.26329e-08
-1.34084e-06
-1.05101e-07
-1.30603e-06
-1.46291e-07
-1.26184e-06
-1.85603e-07
-1.20885e-06
-2.2244e-07
-1.14774e-06
-2.56202e-07
-1.07938e-06
-2.86304e-07
-1.00471e-06
-3.12176e-07
-9.24842e-07
-3.33278e-07
-8.40966e-07
-3.49109e-07
-7.54383e-07
-3.59223e-07
-6.66473e-07
-3.63244e-07
-5.78676e-07
-3.60886e-07
-4.92467e-07
-3.51972e-07
-4.09329e-07
-3.36459e-07
-3.30714e-07
-3.14469e-07
-2.58011e-07
-2.86323e-07
-1.92503e-07
-2.52585e-07
-1.35323e-07
-2.14111e-07
-8.74213e-08
-1.72119e-07
-4.95298e-08
-1.28271e-07
-2.21541e-08
-8.47481e-08
-5.58977e-09
-4.43469e-08
-1.07956e-08
-7.35789e-09
1.9588e-08
-2.84397e-08
6.89352e-08
-6.23827e-08
1.23411e-07
-1.08301e-07
1.79295e-07
-1.65207e-07
2.33788e-07
-2.31984e-07
2.84721e-07
-3.07386e-07
3.30472e-07
-3.90056e-07
3.69885e-07
-4.78548e-07
4.0219e-07
-5.71362e-07
4.26922e-07
-6.66967e-07
4.43865e-07
-7.63835e-07
4.52999e-07
-8.60462e-07
4.54458e-07
-9.55394e-07
4.48501e-07
-1.04724e-06
4.35477e-07
-1.13468e-06
4.15811e-07
-1.2165e-06
3.89982e-07
-1.29158e-06
3.58514e-07
-1.35892e-06
3.21964e-07
-1.4176e-06
2.80917e-07
-1.46686e-06
2.35981e-07
-1.50606e-06
1.87784e-07
-1.53465e-06
1.3697e-07
-1.55226e-06
8.42029e-08
-1.55864e-06
3.01619e-08
-1.55366e-06
-2.44574e-08
-1.53735e-06
-7.89439e-08
-1.50987e-06
-1.32572e-07
-1.47156e-06
-1.84606e-07
-1.42286e-06
-2.343e-07
-1.3644e-06
-2.80906e-07
-1.29692e-06
-3.23682e-07
-1.22133e-06
-3.61895e-07
-1.13866e-06
-3.94838e-07
-1.0501e-06
-4.21838e-07
-9.5694e-07
-4.42273e-07
-8.60573e-07
-4.5559e-07
-7.62495e-07
-4.61322e-07
-6.64268e-07
-4.59113e-07
-5.67496e-07
-4.48744e-07
-4.73799e-07
-4.30156e-07
-3.84776e-07
-4.03491e-07
-3.01974e-07
-3.69125e-07
-2.26847e-07
-3.27712e-07
-1.60721e-07
-2.80237e-07
-1.04764e-07
-2.28076e-07
-5.99673e-08
-1.73068e-07
-2.71437e-08
-1.17572e-07
-6.95651e-09
-6.45341e-08
-1.77521e-08
-8.68687e-09
2.82749e-08
-3.33329e-08
9.35812e-08
-7.26618e-08
1.6274e-07
-1.25414e-07
2.32047e-07
-1.90279e-07
2.98653e-07
-2.65863e-07
3.60305e-07
-3.50686e-07
4.15295e-07
-4.43192e-07
4.62391e-07
-5.41762e-07
5.0076e-07
-6.44742e-07
5.29902e-07
-7.50469e-07
5.49592e-07
-8.57292e-07
5.59822e-07
-9.63597e-07
5.60764e-07
-1.06783e-06
5.52732e-07
-1.1685e-06
5.36149e-07
-1.26422e-06
5.11528e-07
-1.35368e-06
4.79446e-07
-1.43571e-06
4.40537e-07
-1.50922e-06
3.95474e-07
-1.57326e-06
3.44964e-07
-1.62702e-06
2.89742e-07
-1.66981e-06
2.30568e-07
-1.70106e-06
1.68223e-07
-1.72037e-06
1.03509e-07
-1.72745e-06
3.72475e-08
-1.72219e-06
-2.97191e-08
-1.70461e-06
-9.65307e-08
-1.67487e-06
-1.6231e-07
-1.63331e-06
-2.26166e-07
-1.58041e-06
-2.87199e-07
-1.51681e-06
-3.44502e-07
-1.44332e-06
-3.97178e-07
-1.36087e-06
-4.44339e-07
-1.27058e-06
-4.85129e-07
-1.17368e-06
-5.18734e-07
-1.07156e-06
-5.44398e-07
-9.65701e-07
-5.61449e-07
-8.57703e-07
-5.6932e-07
-7.49242e-07
-5.67574e-07
-6.42051e-07
-5.55935e-07
-5.37888e-07
-5.34319e-07
-4.38507e-07
-5.02873e-07
-3.45621e-07
-4.62011e-07
-2.60873e-07
-4.12461e-07
-1.85797e-07
-3.55312e-07
-1.21802e-07
-2.92072e-07
-7.01494e-08
-2.2472e-07
-3.19629e-08
-1.55758e-07
-8.25546e-09
-8.82416e-08
-2.60076e-08
-9.95576e-09
3.82306e-08
-3.80547e-08
1.2168e-07
-8.26514e-08
2.07336e-07
-1.42135e-07
2.91531e-07
-2.14875e-07
3.71393e-07
-2.992e-07
4.4463e-07
-3.93384e-07
5.09479e-07
-4.95657e-07
5.64664e-07
-6.04219e-07
6.09322e-07
-7.17257e-07
6.42941e-07
-8.32968e-07
6.65302e-07
-9.49578e-07
6.76432e-07
-1.06537e-06
6.76552e-07
-1.17868e-06
6.66043e-07
-1.28794e-06
6.45415e-07
-1.39169e-06
6.15276e-07
-1.48856e-06
5.76312e-07
-1.57729e-06
5.29272e-07
-1.65677e-06
4.74953e-07
-1.726e-06
4.14192e-07
-1.78411e-06
3.47857e-07
-1.83039e-06
2.76845e-07
-1.86425e-06
2.02079e-07
-1.88524e-06
1.24505e-07
-1.89309e-06
4.50935e-08
-1.88764e-06
-3.51618e-08
-1.86893e-06
-1.15246e-07
-1.83712e-06
-1.94124e-07
-1.79254e-06
-2.70745e-07
-1.73569e-06
-3.44043e-07
-1.66725e-06
-4.1295e-07
-1.58802e-06
-4.76401e-07
-1.49901e-06
-5.33349e-07
-1.40137e-06
-5.82774e-07
-1.29639e-06
-6.2371e-07
-1.18553e-06
-6.55258e-07
-1.07037e-06
-6.76613e-07
-9.52593e-07
-6.87094e-07
-8.33999e-07
-6.86168e-07
-7.16444e-07
-6.73489e-07
-6.01833e-07
-6.48931e-07
-4.92078e-07
-6.12627e-07
-3.89077e-07
-5.65012e-07
-2.94671e-07
-5.06866e-07
-2.10624e-07
-4.3936e-07
-1.38594e-07
-3.64102e-07
-8.01243e-08
-2.83189e-07
-3.66467e-08
-1.99236e-07
-9.50267e-09
-1.15386e-07
-3.55102e-08
-1.11801e-08
4.94107e-08
-4.26443e-08
1.53144e-07
-9.24118e-08
2.57104e-07
-1.5854e-07
3.57659e-07
-2.39088e-07
4.51942e-07
-3.32101e-07
5.37642e-07
-4.35603e-07
6.12981e-07
-5.47603e-07
6.76665e-07
-6.66109e-07
7.27828e-07
-7.8914e-07
7.65972e-07
-9.14749e-07
7.90911e-07
-1.04104e-06
8.02721e-07
-1.16618e-06
8.01691e-07
-1.28842e-06
7.88286e-07
-1.40612e-06
7.63111e-07
-1.51772e-06
7.26884e-07
-1.62182e-06
6.80407e-07
-1.7171e-06
6.24554e-07
-1.8024e-06
5.60254e-07
-1.87668e-06
4.88476e-07
-1.93906e-06
4.1023e-07
-1.98877e-06
3.26554e-07
-2.0252e-06
2.38517e-07
-2.04791e-06
1.47213e-07
-2.05658e-06
5.3765e-08
-2.05107e-06
-4.06787e-08
-2.03137e-06
-1.34945e-07
-1.99766e-06
-2.27835e-07
-1.95027e-06
-3.18133e-07
-1.88971e-06
-4.04605e-07
-1.81665e-06
-4.86011e-07
-1.73194e-06
-5.61113e-07
-1.63659e-06
-6.28691e-07
-1.53181e-06
-6.87557e-07
-1.41894e-06
-7.36577e-07
-1.2995e-06
-7.74697e-07
-1.17515e-06
-8.00966e-07
-1.04768e-06
-8.14569e-07
-9.1898e-07
-8.14864e-07
-7.91053e-07
-8.01415e-07
-6.6595e-07
-7.74034e-07
-5.45756e-07
-7.32821e-07
-4.32561e-07
-6.78208e-07
-3.28424e-07
-6.11003e-07
-2.35348e-07
-5.32436e-07
-1.55255e-07
-4.44194e-07
-8.99765e-08
-3.48468e-07
-4.12456e-08
-2.47967e-07
-1.07169e-08
-1.45914e-07
-4.62271e-08
-1.23752e-08
6.17859e-08
-4.71452e-08
1.87914e-07
-1.02017e-07
3.11976e-07
-1.74732e-07
4.30373e-07
-2.63044e-07
5.40254e-07
-3.64716e-07
6.39314e-07
-4.77516e-07
7.25781e-07
-5.99226e-07
7.98374e-07
-7.27652e-07
8.56254e-07
-8.60643e-07
8.98962e-07
-9.96099e-07
9.26368e-07
-1.132e-06
9.38619e-07
-1.2664e-06
9.36092e-07
-1.39747e-06
9.19353e-07
-1.52347e-06
8.89118e-07
-1.64281e-06
8.46224e-07
-1.75401e-06
7.91603e-07
-1.85572e-06
7.26262e-07
-1.94673e-06
6.51266e-07
-2.02598e-06
5.67728e-07
-2.09255e-06
4.76799e-07
-2.14566e-06
3.79665e-07
-2.18468e-06
2.77541e-07
-2.20915e-06
1.71675e-07
-2.21872e-06
6.33411e-08
-2.21325e-06
-4.61544e-08
-2.19271e-06
-1.55477e-07
-2.15728e-06
-2.63265e-07
-2.10728e-06
-3.68132e-07
-2.04322e-06
-4.6867e-07
-1.96577e-06
-5.63464e-07
-1.87578e-06
-6.51094e-07
-1.77431e-06
-7.30161e-07
-1.66258e-06
-7.99294e-07
-1.54197e-06
-8.57183e-07
-1.41407e-06
-9.02601e-07
-1.2806e-06
-9.34433e-07
-1.14345e-06
-9.51717e-07
-1.00464e-06
-9.53678e-07
-8.66285e-07
-9.39769e-07
-7.30603e-07
-9.09716e-07
-5.99861e-07
-8.63563e-07
-4.76352e-07
-8.01716e-07
-3.62367e-07
-7.24989e-07
-2.60162e-07
-6.34641e-07
-1.71935e-07
-5.32421e-07
-9.98076e-08
-4.20596e-07
-4.58166e-08
-3.01958e-07
-1.19172e-08
-1.79814e-07
-5.81443e-08
-1.35553e-08
7.53412e-08
-5.16006e-08
2.2596e-07
-1.11545e-07
3.7192e-07
-1.90821e-07
5.0965e-07
-2.86884e-07
6.36317e-07
-3.97212e-07
7.49643e-07
-5.19314e-07
8.47883e-07
-6.50737e-07
9.29797e-07
-7.89082e-07
9.94599e-07
-9.32016e-07
1.0419e-06
-1.07729e-06
1.07164e-06
-1.22275e-06
1.08408e-06
-1.36634e-06
1.07969e-06
-1.50615e-06
1.05916e-06
-1.64037e-06
1.02334e-06
-1.76733e-06
9.7319e-07
-1.88552e-06
9.09792e-07
-1.99355e-06
8.34291e-07
-2.09019e-06
7.479e-07
-2.17433e-06
6.51876e-07
-2.24505e-06
5.47518e-07
-2.30155e-06
4.36161e-07
-2.34318e-06
3.19171e-07
-2.36945e-06
1.97944e-07
-2.38002e-06
7.39123e-08
-2.37471e-06
-5.14633e-08
-2.3535e-06
-1.76687e-07
-2.31654e-06
-3.00231e-07
-2.26413e-06
-4.20536e-07
-2.19678e-06
-5.36022e-07
-2.11515e-06
-6.45088e-07
-2.02012e-06
-7.46131e-07
-1.91272e-06
-8.3756e-07
-1.7942e-06
-9.17813e-07
-1.666e-06
-9.85388e-07
-1.52973e-06
-1.03887e-06
-1.3872e-06
-1.07696e-06
-1.24039e-06
-1.09853e-06
-1.09142e-06
-1.10265e-06
-9.42554e-07
-1.08863e-06
-7.96173e-07
-1.0561e-06
-6.54736e-07
-1.005e-06
-5.20753e-07
-9.35699e-07
-3.96759e-07
-8.48983e-07
-2.85277e-07
-7.46122e-07
-1.88793e-07
-6.28906e-07
-1.09726e-07
-4.99662e-07
-5.04181e-08
-3.61266e-07
-1.31222e-08
-2.1711e-07
-7.12665e-08
-1.47332e-08
9.00744e-08
-5.60512e-08
2.67277e-07
-1.21069e-07
4.36938e-07
-2.06917e-07
5.95497e-07
-3.1075e-07
7.4015e-07
-4.29759e-07
8.68652e-07
-5.61188e-07
9.79311e-07
-7.02344e-07
1.07095e-06
-8.50617e-07
1.14287e-06
-1.00349e-06
1.19477e-06
-1.15855e-06
1.2267e-06
-1.31352e-06
1.23905e-06
-1.46624e-06
1.23241e-06
-1.61471e-06
1.20762e-06
-1.75704e-06
1.16567e-06
-1.89152e-06
1.10767e-06
-2.01659e-06
1.03486e-06
-2.13084e-06
9.4854e-07
-2.23301e-06
8.50064e-07
-2.32198e-06
7.40849e-07
-2.3968e-06
6.22342e-07
-2.45667e-06
4.9603e-07
-2.50093e-06
3.63427e-07
-2.52907e-06
2.26082e-07
-2.54073e-06
8.55774e-08
-2.53573e-06
-5.64696e-08
-2.51401e-06
-1.98404e-07
-2.47571e-06
-3.38532e-07
-2.42112e-06
-4.75127e-07
-2.35071e-06
-6.06426e-07
-2.26516e-06
-7.30646e-07
-2.16529e-06
-8.45992e-07
-2.05218e-06
-9.50672e-07
-1.92707e-06
-1.04292e-06
-1.79142e-06
-1.12104e-06
-1.6469e-06
-1.18339e-06
-1.49537e-06
-1.22849e-06
-1.3389e-06
-1.255e-06
-1.17972e-06
-1.26182e-06
-1.02025e-06
-1.2481e-06
-8.63034e-07
-1.21332e-06
-7.10727e-07
-1.15731e-06
-5.66075e-07
-1.08035e-06
-4.31868e-07
-9.83189e-07
-3.10912e-07
-8.67078e-07
-2.05992e-07
-7.33826e-07
-1.19839e-07
-5.85815e-07
-5.51072e-08
-4.25998e-07
-1.43493e-08
-2.57867e-07
-8.56157e-08
-1.59204e-08
1.05995e-07
-6.05343e-08
3.11891e-07
-1.30662e-07
5.07066e-07
-2.23126e-07
6.87961e-07
-3.34777e-07
8.51801e-07
-4.62517e-07
9.96392e-07
-6.03317e-07
1.12011e-06
-7.54239e-07
1.22188e-06
-9.12454e-07
1.30109e-06
-1.07526e-06
1.35757e-06
-1.24008e-06
1.39153e-06
-1.4045e-06
1.40347e-06
-1.56627e-06
1.39417e-06
-1.72327e-06
1.36463e-06
-1.8736e-06
1.31599e-06
-2.01547e-06
1.24955e-06
-2.14729e-06
1.16669e-06
-2.26764e-06
1.06888e-06
-2.37522e-06
9.57649e-07
-2.46893e-06
8.34559e-07
-2.5478e-06
7.01214e-07
-2.61102e-06
5.59249e-07
-2.65792e-06
4.10328e-07
-2.68799e-06
2.56148e-07
-2.70085e-06
9.84401e-08
-2.69629e-06
-6.10272e-08
-2.67426e-06
-2.20443e-07
-2.63484e-06
-3.77952e-07
-2.57831e-06
-5.31656e-07
-2.50511e-06
-6.79619e-07
-2.41589e-06
-8.19867e-07
-2.31148e-06
-9.50408e-07
-2.1929e-06
-1.06925e-06
-2.06143e-06
-1.1744e-06
-1.91852e-06
-1.26394e-06
-1.76588e-06
-1.33603e-06
-1.60544e-06
-1.38893e-06
-1.43933e-06
-1.42111e-06
-1.26992e-06
-1.43124e-06
-1.09974e-06
-1.41827e-06
-9.31537e-07
-1.38152e-06
-7.68167e-07
-1.32068e-06
-6.12619e-07
-1.2359e-06
-4.67956e-07
-1.12785e-06
-3.37281e-07
-9.97753e-07
-2.23694e-07
-8.47413e-07
-1.30254e-07
-6.79256e-07
-5.99384e-08
-4.96313e-07
-1.56148e-08
-3.02191e-07
-1.01231e-07
-1.7127e-08
1.23122e-07
-6.50834e-08
3.59848e-07
-1.40386e-07
5.82368e-07
-2.39541e-07
7.87117e-07
-3.5909e-07
9.7135e-07
-4.95633e-07
1.13293e-06
-6.45863e-07
1.27034e-06
-8.06589e-07
1.3826e-06
-9.74756e-07
1.46925e-06
-1.14747e-06
1.53028e-06
-1.32199e-06
1.56605e-06
-1.49578e-06
1.57726e-06
-1.66647e-06
1.56486e-06
-1.83188e-06
1.53004e-06
-1.99004e-06
1.47414e-06
-2.13913e-06
1.39864e-06
-2.27753e-06
1.30509e-06
-2.4038e-06
1.19515e-06
-2.51665e-06
1.07051e-06
-2.61498e-06
9.32884e-07
-2.69781e-06
7.84045e-07
-2.76433e-06
6.25773e-07
-2.81388e-06
4.59876e-07
-2.84593e-06
2.88195e-07
-2.86009e-06
1.12605e-07
-2.85614e-06
-6.49803e-08
-2.83398e-06
-2.426e-07
-2.79369e-06
-4.18242e-07
-2.7355e-06
-5.89845e-07
-2.65983e-06
-7.55294e-07
-2.56726e-06
-9.1243e-07
-2.45861e-06
-1.05906e-06
-2.33489e-06
-1.19297e-06
-2.19732e-06
-1.31196e-06
-2.0474e-06
-1.41386e-06
-1.88684e-06
-1.49659e-06
-1.71762e-06
-1.55816e-06
-1.54194e-06
-1.59678e-06
-1.36228e-06
-1.6109e-06
-1.18133e-06
-1.59923e-06
-1.002e-06
-1.56086e-06
-8.27362e-07
-1.49531e-06
-6.60671e-07
-1.40259e-06
-5.05274e-07
-1.28325e-06
-3.64589e-07
-1.13844e-06
-2.42053e-07
-9.69949e-07
-1.41069e-07
-7.80239e-07
-6.49636e-08
-5.72419e-07
-1.6934e-08
-3.50221e-07
-1.18165e-07
-1.83618e-08
1.41484e-07
-6.9729e-08
4.11215e-07
-1.50299e-07
6.62938e-07
-2.56251e-07
8.9307e-07
-3.83801e-07
1.0989e-06
-5.29238e-07
1.27837e-06
-6.88965e-07
1.43007e-06
-8.59529e-07
1.55317e-06
-1.03764e-06
1.64737e-06
-1.22022e-06
1.71285e-06
-1.40435e-06
1.75019e-06
-1.58738e-06
1.76028e-06
-1.76682e-06
1.74431e-06
-1.94044e-06
1.70366e-06
-2.1062e-06
1.6399e-06
-2.26227e-06
1.5547e-06
-2.40701e-06
1.44983e-06
-2.53898e-06
1.32712e-06
-2.6569e-06
1.18843e-06
-2.75967e-06
1.03565e-06
-2.84633e-06
8.70706e-07
-2.91608e-06
6.9552e-07
-2.96825e-06
5.12046e-07
-3.00231e-06
3.22261e-07
-3.01788e-06
1.28173e-07
-3.01469e-06
-6.8165e-08
-2.99264e-06
-2.64651e-07
-2.95176e-06
-4.59127e-07
-2.89223e-06
-6.49369e-07
-2.81444e-06
-8.33093e-07
-2.71891e-06
-1.00795e-06
-2.60642e-06
-1.17155e-06
-2.47792e-06
-1.32147e-06
-2.33464e-06
-1.45525e-06
-2.17803e-06
-1.57048e-06
-2.00982e-06
-1.6648e-06
-1.83201e-06
-1.73597e-06
-1.6469e-06
-1.7819e-06
-1.45704e-06
-1.80076e-06
-1.26527e-06
-1.79099e-06
-1.07468e-06
-1.75145e-06
-8.88582e-07
-1.68141e-06
-7.10489e-07
-1.58068e-06
-5.44053e-07
-1.44968e-06
-3.9303e-07
-1.28946e-06
-2.61214e-07
-1.10177e-06
-1.52382e-07
-8.89071e-07
-7.02319e-08
-6.54569e-07
-1.83214e-08
-4.02131e-07
-1.36486e-07
-1.96331e-08
1.61117e-07
-7.44986e-08
4.6608e-07
-1.60455e-07
7.48894e-07
-2.73334e-07
1.00595e-06
-4.0901e-07
1.23457e-06
-5.63445e-07
1.43281e-06
-7.32738e-07
1.59936e-06
-9.13163e-07
1.73359e-06
-1.1012e-06
1.8354e-06
-1.29355e-06
1.9052e-06
-1.48716e-06
1.9438e-06
-1.67922e-06
1.95234e-06
-1.86718e-06
1.93227e-06
-2.04872e-06
1.88521e-06
-2.22178e-06
1.81296e-06
-2.38451e-06
1.71743e-06
-2.53527e-06
1.60059e-06
-2.67263e-06
1.46448e-06
-2.79533e-06
1.31113e-06
-2.9023e-06
1.14262e-06
-2.9926e-06
9.61003e-07
-3.06544e-06
7.68362e-07
-3.12017e-06
5.66779e-07
-3.15627e-06
3.58358e-07
-3.17333e-06
1.45236e-07
-3.17108e-06
-7.04116e-08
-3.14938e-06
-2.86353e-07
-3.10822e-06
-5.0029e-07
-3.04774e-06
-7.09852e-07
-2.96824e-06
-9.1259e-07
-2.87021e-06
-1.10598e-06
-2.75435e-06
-1.28741e-06
-2.62157e-06
-1.45425e-06
-2.47303e-06
-1.60379e-06
-2.31015e-06
-1.73335e-06
-2.13466e-06
-1.84029e-06
-1.94857e-06
-1.92205e-06
-1.75423e-06
-1.97624e-06
-1.55429e-06
-2.0007e-06
-1.35172e-06
-1.99356e-06
-1.14979e-06
-1.95337e-06
-9.52058e-07
-1.87914e-06
-7.62303e-07
-1.77044e-06
-5.84507e-07
-1.62748e-06
-4.22783e-07
-1.45119e-06
-2.81315e-07
-1.24323e-06
-1.64283e-07
-1.0061e-06
-7.57902e-08
-7.43062e-07
-1.97906e-08
-4.58131e-07
-1.56277e-07
-2.09485e-08
1.82065e-07
-7.94181e-08
5.2455e-07
-1.70903e-07
8.40378e-07
-2.90863e-07
1.12591e-06
-4.34807e-07
1.37852e-06
-5.9835e-07
1.59635e-06
-7.77273e-07
1.77828e-06
-9.67564e-07
1.92388e-06
-1.16545e-06
2.03329e-06
-1.36744e-06
2.10719e-06
-1.57031e-06
2.14667e-06
-1.77114e-06
2.15317e-06
-1.96728e-06
2.12841e-06
-2.15637e-06
2.0743e-06
-2.33631e-06
1.99291e-06
-2.50527e-06
1.88638e-06
-2.66162e-06
1.75694e-06
-2.80395e-06
1.60682e-06
-2.93106e-06
1.43824e-06
-3.0419e-06
1.25345e-06
-3.13557e-06
1.05467e-06
-3.21131e-06
8.44103e-07
-3.26849e-06
6.23963e-07
-3.3066e-06
3.9647e-07
-3.32524e-06
1.6387e-07
-3.3241e-06
-7.15478e-08
-3.30302e-06
-3.07437e-07
-3.26193e-06
-5.41378e-07
-3.20092e-06
-7.70862e-07
-3.12022e-06
-9.93287e-07
-3.02025e-06
-1.20595e-06
-2.90161e-06
-1.40606e-06
-2.76513e-06
-1.59072e-06
-2.61191e-06
-1.75701e-06
-2.44332e-06
-1.90194e-06
-2.26104e-06
-2.02257e-06
-2.0671e-06
-2.116e-06
-1.86385e-06
-2.17949e-06
-1.65404e-06
-2.21051e-06
-1.44077e-06
-2.20684e-06
-1.22748e-06
-2.16666e-06
-1.01797e-06
-2.08865e-06
-8.16311e-07
-1.9721e-06
-6.26826e-07
-1.81697e-06
-4.54017e-07
-1.62399e-06
-3.02486e-07
-1.39476e-06
-1.76858e-07
-1.13173e-06
-8.16836e-08
-8.38236e-07
-2.1355e-08
-5.18459e-07
-1.77632e-07
-2.23153e-08
2.04381e-07
-8.45128e-08
5.86747e-07
-1.8169e-07
9.37556e-07
-3.08906e-07
1.25313e-06
-4.61274e-07
1.53089e-06
-6.34039e-07
1.76912e-06
-8.22641e-07
1.96689e-06
-1.02277e-06
2.12401e-06
-1.2304e-06
2.24092e-06
-1.44182e-06
2.31861e-06
-1.65366e-06
2.35851e-06
-1.86287e-06
2.36238e-06
-2.06674e-06
2.33228e-06
-2.26287e-06
2.27043e-06
-2.44916e-06
2.1792e-06
-2.62378e-06
2.06101e-06
-2.78516e-06
1.91832e-06
-2.93194e-06
1.75359e-06
-3.06295e-06
1.56926e-06
-3.17722e-06
1.36772e-06
-3.27389e-06
1.15134e-06
-3.35226e-06
9.2247e-07
-3.41172e-06
6.83426e-07
-3.45178e-06
4.36532e-07
-3.47204e-06
1.84128e-07
-3.47218e-06
-7.14031e-08
-3.452e-06
-3.27619e-07
-3.41139e-06
-5.81994e-07
-3.35035e-06
-8.319e-07
-3.26904e-06
-1.0746e-06
-3.16777e-06
-1.30722e-06
-3.04705e-06
-1.52678e-06
-2.90761e-06
-1.73016e-06
-2.75045e-06
-1.91417e-06
-2.57685e-06
-2.07554e-06
-2.38844e-06
-2.21098e-06
-2.1872e-06
-2.31724e-06
-1.97552e-06
-2.39117e-06
-1.75618e-06
-2.42984e-06
-1.53241e-06
-2.43061e-06
-1.30782e-06
-2.39125e-06
-1.08645e-06
-2.31003e-06
-8.72673e-07
-2.18587e-06
-6.71178e-07
-2.01846e-06
-4.86883e-07
-1.80829e-06
-3.24851e-07
-1.5568e-06
-1.90192e-07
-1.26639e-06
-8.79562e-08
-9.40472e-07
-2.30277e-08
-5.83388e-07
-2.00659e-07
-2.37414e-08
2.28122e-07
-8.98087e-08
6.52815e-07
-1.92865e-07
1.04061e-06
-3.27531e-07
1.38779e-06
-4.88491e-07
1.69185e-06
-6.70588e-07
1.95121e-06
-8.68897e-07
2.1652e-06
-1.07879e-06
2.3339e-06
-1.29597e-06
2.45811e-06
-1.51653e-06
2.53917e-06
-1.73693e-06
2.57891e-06
-1.95402e-06
2.57947e-06
-2.16503e-06
2.54329e-06
-2.36755e-06
2.47295e-06
-2.55949e-06
2.37113e-06
-2.73906e-06
2.24058e-06
-2.90475e-06
2.08401e-06
-3.05528e-06
1.90412e-06
-3.18956e-06
1.70354e-06
-3.30669e-06
1.48484e-06
-3.40589e-06
1.25054e-06
-3.48651e-06
1.00309e-06
-3.54801e-06
7.4492e-07
-3.5899e-06
4.78427e-07
-3.6118e-06
2.06032e-07
-3.61339e-06
-6.98144e-08
-3.59442e-06
-3.46594e-07
-3.55471e-06
-6.21698e-07
-3.49421e-06
-8.92401e-07
-3.41297e-06
-1.15584e-06
-3.31118e-06
-1.40901e-06
-3.18922e-06
-1.64873e-06
-3.04771e-06
-1.87167e-06
-2.88751e-06
-2.07438e-06
-2.70979e-06
-2.25327e-06
-2.51607e-06
-2.40469e-06
-2.30829e-06
-2.52501e-06
-2.08881e-06
-2.61065e-06
-1.86045e-06
-2.65821e-06
-1.62651e-06
-2.66455e-06
-1.3908e-06
-2.62696e-06
-1.15756e-06
-2.54326e-06
-9.31509e-07
-2.41193e-06
-7.17707e-07
-2.23226e-06
-5.21523e-07
-2.00447e-06
-3.48527e-07
-1.72979e-06
-2.04367e-07
-1.41055e-06
-9.46522e-08
-1.05019e-06
-2.48219e-08
-6.53218e-07
-2.25481e-07
-2.52352e-08
2.53357e-07
-9.53341e-08
7.22914e-07
-2.04481e-07
1.14976e-06
-3.46811e-07
1.53012e-06
-5.16539e-07
1.86157e-06
-7.08068e-07
2.14274e-06
-9.16079e-07
2.37321e-06
-1.1356e-06
2.55342e-06
-1.36208e-06
2.68458e-06
-1.59137e-06
2.76846e-06
-1.81979e-06
2.80733e-06
-2.04411e-06
2.80379e-06
-2.26151e-06
2.76069e-06
-2.46958e-06
2.68102e-06
-2.66628e-06
2.56783e-06
-2.84989e-06
2.4242e-06
-3.019e-06
2.25312e-06
-3.17241e-06
2.05753e-06
-3.30916e-06
1.84029e-06
-3.42842e-06
1.60411e-06
-3.52954e-06
1.35166e-06
-3.61193e-06
1.08549e-06
-3.67512e-06
8.08102e-07
-3.71866e-06
5.21971e-07
-3.74219e-06
2.2956e-07
-3.74537e-06
-6.66327e-08
-3.72792e-06
-3.64043e-07
-3.68961e-06
-6.60007e-07
-3.63029e-06
-9.51726e-07
-3.54989e-06
-1.23624e-06
-3.44848e-06
-1.51042e-06
-3.32629e-06
-1.77091e-06
-3.18377e-06
-2.01419e-06
-3.02162e-06
-2.23652e-06
-2.84087e-06
-2.43402e-06
-2.6429e-06
-2.60266e-06
-2.42955e-06
-2.73837e-06
-2.20311e-06
-2.83709e-06
-1.96641e-06
-2.89491e-06
-1.72283e-06
-2.90813e-06
-1.4763e-06
-2.87349e-06
-1.23132e-06
-2.78824e-06
-9.92901e-07
-2.65034e-06
-7.66532e-07
-2.45863e-06
-5.58068e-07
-2.21294e-06
-3.73628e-07
-1.91423e-06
-2.19466e-07
-1.56471e-06
-1.01817e-07
-1.16784e-06
-2.67517e-08
-7.28283e-07
-2.52233e-07
-2.68065e-08
2.80164e-07
-1.01122e-07
7.97229e-07
-2.16598e-07
1.26524e-06
-3.66829e-07
1.68035e-06
-5.45507e-07
2.04025e-06
-7.46553e-07
2.34379e-06
-9.6422e-07
2.59087e-06
-1.19318e-06
2.78238e-06
-1.42857e-06
2.91997e-06
-1.66606e-06
3.00595e-06
-1.90181e-06
3.04308e-06
-2.13251e-06
3.03449e-06
-2.35534e-06
2.98352e-06
-2.56792e-06
2.8936e-06
-2.76828e-06
2.7682e-06
-2.95482e-06
2.61073e-06
-3.12622e-06
2.42452e-06
-3.28145e-06
2.21276e-06
-3.41966e-06
1.9785e-06
-3.54018e-06
1.72463e-06
-3.64245e-06
1.45392e-06
-3.72599e-06
1.16904e-06
-3.79042e-06
8.72525e-07
-3.83534e-06
5.66896e-07
-3.86042e-06
2.5464e-07
-3.86532e-06
-6.17314e-08
-3.84973e-06
-3.79639e-07
-3.81334e-06
-6.96395e-07
-3.7559e-06
-1.00916e-06
-3.67724e-06
-1.31491e-06
-3.57725e-06
-1.61041e-06
-3.45599e-06
-1.89217e-06
-3.31372e-06
-2.15646e-06
-3.15095e-06
-2.3993e-06
-2.9685e-06
-2.61647e-06
-2.76758e-06
-2.80357e-06
-2.54988e-06
-2.95607e-06
-2.31759e-06
-3.06939e-06
-2.07348e-06
-3.13901e-06
-1.82097e-06
-3.16064e-06
-1.56412e-06
-3.13034e-06
-1.30764e-06
-3.04472e-06
-1.05688e-06
-2.9011e-06
-8.17752e-07
-2.69776e-06
-5.96637e-07
-2.43405e-06
-4.00269e-07
-2.1106e-06
-2.35574e-07
-1.72941e-06
-1.09498e-07
-1.29391e-06
-2.88319e-08
-8.0895e-07
-2.81065e-07
-2.84676e-08
3.08631e-07
-1.07213e-07
8.75974e-07
-2.29288e-07
1.38731e-06
-3.8768e-07
1.83874e-06
-5.75499e-07
2.22807e-06
-7.86128e-07
2.55442e-06
-1.01335e-06
2.8181e-06
-1.25145e-06
3.02048e-06
-1.49527e-06
3.16379e-06
-1.74025e-06
3.25093e-06
-1.98244e-06
3.28527e-06
-2.21847e-06
3.27053e-06
-2.44554e-06
3.21059e-06
-2.66134e-06
3.1094e-06
-2.86402e-06
2.97087e-06
-3.0521e-06
2.79882e-06
-3.22445e-06
2.59687e-06
-3.38019e-06
2.3685e-06
-3.51865e-06
2.11696e-06
-3.63933e-06
1.8453e-06
-3.7418e-06
1.5564e-06