/*--------------------------------*- C++ -*----------------------------------*\
  =========                 |
  \\      /  F ield         | OpenFOAM: The Open Source CFD Toolbox
   \\    /   O peration     | Website:  https://openfoam.org
    \\  /    A nd           | Version:  7
     \\/     M anipulation  |
\*---------------------------------------------------------------------------*/
FoamFile
{
    version     2.0;
    format      ascii;
    class       volVectorField;
    location    "0.0618";
    object      U;
}
// * * * * * * * * * * * * * * * * * * * * * * * * * * * * * * * * * * * * * //

dimensions      [0 1 -1 0 0 0 0];

internalField   nonuniform List<vector> 
2500
(
(0.290245 -0.152407 0)
(0.389516 -0.128227 0)
(0.565395 -0.0747288 0)
(0.683224 -0.0422318 0)
(0.752831 -0.024534 0)
(0.797869 -0.0148964 0)
(0.82907 -0.00959152 0)
(0.851584 -0.00657003 0)
(0.868439 -0.00474715 0)
(0.881454 -0.003573 0)
(0.891737 -0.00276936 0)
(0.899995 -0.00219086 0)
(0.906706 -0.00175765 0)
(0.912204 -0.00142334 0)
(0.916733 -0.0011593 0)
(0.920473 -0.000946894 0)
(0.923566 -0.000773342 0)
(0.926116 -0.000629538 0)
(0.928209 -0.000508742 0)
(0.929911 -0.000405808 0)
(0.931274 -0.000316683 0)
(0.932337 -0.000238087 0)
(0.933132 -0.000167277 0)
(0.933681 -0.00010189 0)
(0.934 -3.98224e-05 0)
(0.934095 2.08778e-05 0)
(0.93397 8.22088e-05 0)
(0.93362 0.000146004 0)
(0.933034 0.000214292 0)
(0.932193 0.00028932 0)
(0.931071 0.000373664 0)
(0.929634 0.000470395 0)
(0.927834 0.000583314 0)
(0.925612 0.000717271 0)
(0.92289 0.000878655 0)
(0.919568 0.00107615 0)
(0.915515 0.00132195 0)
(0.910556 0.00163383 0)
(0.904458 0.00203886 0)
(0.896894 0.00258048 0)
(0.887399 0.00333273 0)
(0.875279 0.0044299 0)
(0.859446 0.00613064 0)
(0.838099 0.00895565 0)
(0.808185 0.0139649 0)
(0.764434 0.0232502 0)
(0.695914 0.0407737 0)
(0.577939 0.0737474 0)
(0.398042 0.128743 0)
(0.293865 0.153782 0)
(0.00107806 -0.294873 0)
(0.0168382 -0.298597 0)
(0.152304 -0.213014 0)
(0.282858 -0.145338 0)
(0.388065 -0.0996689 0)
(0.471341 -0.0698575 0)
(0.536837 -0.0505184 0)
(0.588403 -0.0377285 0)
(0.629376 -0.0289762 0)
(0.662312 -0.0227597 0)
(0.689072 -0.0181889 0)
(0.711011 -0.0147259 0)
(0.729126 -0.0120352 0)
(0.744162 -0.00990086 0)
(0.756687 -0.0081782 0)
(0.767135 -0.00676713 0)
(0.775848 -0.00559597 0)
(0.783096 -0.00461184 0)
(0.789093 -0.00377458 0)
(0.79401 -0.00305287 0)
(0.79798 -0.00242161 0)
(0.801111 -0.00186012 0)
(0.803485 -0.00135091 0)
(0.80516 -0.00087866 0)
(0.806179 -0.000429574 0)
(0.806564 9.27779e-06 0)
(0.80632 0.000450529 0)
(0.805438 0.000906857 0)
(0.803887 0.00139168 0)
(0.80162 0.00191974 0)
(0.798568 0.00250783 0)
(0.794639 0.00317575 0)
(0.78971 0.00394768 0)
(0.783625 0.00485397 0)
(0.776183 0.00593385 0)
(0.767128 0.00723938 0)
(0.756129 0.00884161 0)
(0.742757 0.0108402 0)
(0.726444 0.0133796 0)
(0.706436 0.0166758 0)
(0.681705 0.0210648 0)
(0.650836 0.0270882 0)
(0.611853 0.0356512 0)
(0.561984 0.0483055 0)
(0.497498 0.0677103 0)
(0.413936 0.0981687 0)
(0.306395 0.145792 0)
(0.17055 0.217308 0)
(0.0269053 0.307195 0)
(0.00518374 0.303003 0)
(-0.0329217 -0.250364 0)
(-0.0615898 -0.344027 0)
(-0.01147 -0.310608 0)
(0.0708838 -0.25158 0)
(0.159057 -0.196081 0)
(0.241662 -0.151534 0)
(0.314341 -0.117849 0)
(0.376397 -0.0927585 0)
(0.428725 -0.0739697 0)
(0.472672 -0.059704 0)
(0.509573 -0.0486888 0)
(0.540602 -0.0400366 0)
(0.566738 -0.03313 0)
(0.588785 -0.0275359 0)
(0.607393 -0.0229455 0)
(0.623093 -0.0191337 0)
(0.636313 -0.0159333 0)
(0.647404 -0.0132169 0)
(0.656652 -0.0108856 0)
(0.664287 -0.00886045 0)
(0.670497 -0.00707706 0)
(0.675429 -0.00548163 0)
(0.6792 -0.00402797 0)
(0.681894 -0.00267522 0)
(0.68357 -0.00138618 0)
(0.684261 -0.000125758 0)
(0.683974 0.00114026 0)
(0.682693 0.00244667 0)
(0.680376 0.00383007 0)
(0.676954 0.00533042 0)
(0.672326 0.00699299 0)
(0.666359 0.00887068 0)
(0.65888 0.0110272 0)
(0.649668 0.0135415 0)
(0.638447 0.0165138 0)
(0.624866 0.0200742 0)
(0.608487 0.0243957 0)
(0.588761 0.0297133 0)
(0.564991 0.0363524 0)
(0.536302 0.0447737 0)
(0.501591 0.0556396 0)
(0.4595 0.069914 0)
(0.408411 0.089 0)
(0.346572 0.114895 0)
(0.272555 0.150246 0)
(0.186488 0.197814 0)
(0.0924049 0.258136 0)
(0.00192005 0.323359 0)
(-0.0569071 0.361566 0)
(-0.0321673 0.263989 0)
(-0.0267683 -0.1906 0)
(-0.0654045 -0.333009 0)
(-0.064482 -0.351546 0)
(-0.0273591 -0.319341 0)
(0.0298554 -0.272132 0)
(0.0940804 -0.225633 0)
(0.157626 -0.185318 0)
(0.216687 -0.152094 0)
(0.269744 -0.125233 0)
(0.3165 -0.103605 0)
(0.357251 -0.0861304 0)
(0.392536 -0.0719128 0)
(0.422963 -0.0602455 0)
(0.449121 -0.0505851 0)
(0.471548 -0.0425149 0)
(0.490719 -0.0357139 0)
(0.507043 -0.0299323 0)
(0.52087 -0.0249727 0)
(0.532495 -0.0206765 0)
(0.542165 -0.0169143 0)
(0.550082 -0.0135778 0)
(0.556412 -0.0105748 0)
(0.561283 -0.00782492 0)
(0.564792 -0.00525591 0)
(0.567005 -0.00280129 0)
(0.567959 -0.000397834 0)
(0.567661 0.00201651 0)
(0.566089 0.00450483 0)
(0.563194 0.00713341 0)
(0.558892 0.00997431 0)
(0.553066 0.0131084 0)
(0.545561 0.0166291 0)
(0.536177 0.0206473 0)
(0.524666 0.0252977 0)
(0.510724 0.0307479 0)
(0.493979 0.0372096 0)
(0.473979 0.0449552 0)
(0.450188 0.0543401 0)
(0.42197 0.0658324 0)
(0.388595 0.0800522 0)
(0.349262 0.0978185 0)
(0.303169 0.120193 0)
(0.249691 0.148484 0)
(0.188743 0.184127 0)
(0.12149 0.228191 0)
(0.0516053 0.28 0)
(-0.0128653 0.333809 0)
(-0.0576994 0.372323 0)
(-0.0646355 0.355992 0)
(-0.0272796 0.204821 0)
(-0.0178417 -0.149169 0)
(-0.0530722 -0.302973 0)
(-0.0735372 -0.35498 0)
(-0.0664303 -0.350417 0)
(-0.0371683 -0.319819 0)
(0.00503512 -0.280537 0)
(0.0529711 -0.241152 0)
(0.101875 -0.205281 0)
(0.148903 -0.174034 0)
(0.192551 -0.147383 0)
(0.232164 -0.124854 0)
(0.267585 -0.105852 0)
(0.298932 -0.0898003 0)
(0.326459 -0.0761941 0)
(0.350477 -0.064606 0)
(0.371311 -0.0546819 0)
(0.389272 -0.0461295 0)
(0.404645 -0.0387069 0)
(0.417687 -0.0322119 0)
(0.42862 -0.0264736 0)
(0.437633 -0.0213454 0)
(0.444881 -0.0166991 0)
(0.450491 -0.0124205 0)
(0.454555 -0.00840556 0)
(0.457137 -0.00455711 0)
(0.458273 -0.000781809 0)
(0.457967 0.00301252 0)
(0.456195 0.00691967 0)
(0.4529 0.011038 0)
(0.447996 0.0154737 0)
(0.441359 0.0203448 0)
(0.432831 0.0257855 0)
(0.422214 0.0319522 0)
(0.409265 0.039031 0)
(0.393696 0.0472462 0)
(0.375172 0.0568727 0)
(0.353311 0.0682497 0)
(0.327688 0.0817977 0)
(0.297859 0.0980363 0)
(0.263399 0.117597 0)
(0.223978 0.141224 0)
(0.179509 0.169722 0)
(0.1304 0.203817 0)
(0.0779606 0.24378 0)
(0.0250015 0.288636 0)
(-0.0233969 0.334559 0)
(-0.0592042 0.372003 0)
(-0.0718363 0.381376 0)
(-0.0542823 0.328282 0)
(-0.0186359 0.162511 0)
(-0.0114185 -0.120932 0)
(-0.0402214 -0.270032 0)
(-0.0677381 -0.340301 0)
(-0.0775855 -0.357555 0)
(-0.0686528 -0.344339 0)
(-0.0457342 -0.316139 0)
(-0.0140139 -0.282338 0)
(0.0222391 -0.248084 0)
(0.0599091 -0.215903 0)
(0.0969307 -0.186834 0)
(0.132047 -0.161126 0)
(0.164567 -0.138644 0)
(0.194172 -0.119087 0)
(0.220778 -0.102103 0)
(0.244443 -0.0873448 0)
(0.265301 -0.0744904 0)
(0.283526 -0.0632522 0)
(0.299305 -0.053377 0)
(0.31282 -0.0446424 0)
(0.324242 -0.0368526 0)
(0.333722 -0.0298334 0)
(0.341391 -0.0234286 0)
(0.347353 -0.0174952 0)
(0.351689 -0.0119006 0)
(0.354453 -0.00651878 0)
(0.355673 -0.00122775 0)
(0.355349 0.00409395 0)
(0.353454 0.00957002 0)
(0.349931 0.0153298 0)
(0.344697 0.0215118 0)
(0.337635 0.0282678 0)
(0.3286 0.0357679 0)
(0.317413 0.0442057 0)
(0.303867 0.0538048 0)
(0.287728 0.0648268 0)
(0.268738 0.0775784 0)
(0.246635 0.0924194 0)
(0.221167 0.109767 0)
(0.192139 0.130095 0)
(0.159476 0.153908 0)
(0.123327 0.181693 0)
(0.0842319 0.213785 0)
(0.0433522 0.250117 0)
(0.00278849 0.289733 0)
(-0.0340876 0.329955 0)
(-0.0624282 0.365023 0)
(-0.0761224 0.384172 0)
(-0.0692636 0.369565 0)
(-0.042248 0.29548 0)
(-0.0121741 0.133042 0)
(-0.00746196 -0.100955 0)
(-0.0303892 -0.239811 0)
(-0.0585183 -0.318295 0)
(-0.0767678 -0.350547 0)
(-0.0810537 -0.352101 0)
(-0.0728945 -0.33543 0)
(-0.0553105 -0.309285 0)
(-0.0314629 -0.279279 0)
(-0.00408532 -0.248748 0)
(0.0247206 -0.219516 0)
(0.0534619 -0.192472 0)
(0.081144 -0.167953 0)
(0.107147 -0.145988 0)
(0.131121 -0.126443 0)
(0.152897 -0.10911 0)
(0.17243 -0.093749 0)
(0.18975 -0.0801197 0)
(0.20493 -0.0679892 0)
(0.218067 -0.0571395 0)
(0.229265 -0.0473682 0)
(0.238624 -0.0384881 0)
(0.246237 -0.0303249 0)
(0.25218 -0.022715 0)
(0.256511 -0.0155031 0)
(0.25927 -0.0085394 0)
(0.260473 -0.00167689 0)
(0.260117 0.0052315 0)
(0.258172 0.0123358 0)
(0.254587 0.0197923 0)
(0.249285 0.0277666 0)
(0.242168 0.0364378 0)
(0.233114 0.0460021 0)
(0.221983 0.0566773 0)
(0.208621 0.0687071 0)
(0.192867 0.0823644 0)
(0.17457 0.0979533 0)
(0.153605 0.115807 0)
(0.129913 0.136279 0)
(0.103545 0.159714 0)
(0.0747427 0.186402 0)
(0.0440358 0.216475 0)
(0.0123848 0.249735 0)
(-0.0186532 0.285353 0)
(-0.0467584 0.321398 0)
(-0.0687761 0.354127 0)
(-0.0809058 0.377051 0)
(-0.0793491 0.37993 0)
(-0.0619183 0.348211 0)
(-0.032701 0.264068 0)
(-0.00811839 0.11172 0)
(-0.00512468 -0.0863152 0)
(-0.0234853 -0.213568 0)
(-0.0497716 -0.294172 0)
(-0.0715415 -0.335706 0)
(-0.0838259 -0.348519 0)
(-0.086159 -0.3421 0)
(-0.0798403 -0.323936 0)
(-0.066863 -0.299413 0)
(-0.0493035 -0.272144 0)
(-0.0289853 -0.24441 0)
(-0.00736293 -0.21756 0)
(0.0144755 -0.19233 0)
(0.0357574 -0.169059 0)
(0.0559613 -0.147846 0)
(0.0747561 -0.128646 0)
(0.091949 -0.111335 0)
(0.107444 -0.0957443 0)
(0.12121 -0.0816875 0)
(0.133258 -0.0689717 0)
(0.143623 -0.0574055 0)
(0.15235 -0.0468021 0)
(0.159486 -0.0369807 0)
(0.165076 -0.0277662 0)
(0.169153 -0.0189883 0)
(0.171738 -0.0104796 0)
(0.172836 -0.00207402 0)
(0.172438 0.00639572 0)
(0.170515 0.0151004 0)
(0.167021 0.0242167 0)
(0.161897 0.0339303 0)
(0.155065 0.0444381 0)
(0.146437 0.0559512 0)
(0.135921 0.0686966 0)
(0.123424 0.0829182 0)
(0.108872 0.0988757 0)
(0.0922194 0.116839 0)
(0.073483 0.137076 0)
(0.0527752 0.15983 0)
(0.0303561 0.185274 0)
(0.00670047 0.213438 0)
(-0.0174192 0.24409 0)
(-0.0408395 0.276544 0)
(-0.0619226 0.309377 0)
(-0.0785249 0.340037 0)
(-0.0881081 0.364334 0)
(-0.0881223 0.375914 0)
(-0.0767442 0.365908 0)
(-0.0541862 0.323183 0)
(-0.0258596 0.235895 0)
(-0.00569477 0.0957328 0)
(-0.00372679 -0.0751327 0)
(-0.0187171 -0.191047 0)
(-0.0425188 -0.270301 0)
(-0.0652691 -0.316902 0)
(-0.0821192 -0.337651 0)
(-0.0915828 -0.339554 0)
(-0.093788 -0.328703 0)
(-0.0897505 -0.309903 0)
(-0.0808594 -0.286681 0)
(-0.0685255 -0.26149 0)
(-0.0540024 -0.235951 0)
(-0.038321 -0.211081 0)
(-0.0222833 -0.187475 0)
(-0.00648692 -0.16544 0)
(0.00864079 -0.145094 0)
(0.0228067 -0.126432 0)
(0.0358196 -0.109376 0)
(0.0475629 -0.0937988 0)
(0.0579727 -0.0795478 0)
(0.0670203 -0.0664558 0)
(0.0746991 -0.0543485 0)
(0.0810143 -0.0430489 0)
(0.0859752 -0.0323794 0)
(0.08959 -0.0221625 0)
(0.0918612 -0.0122207 0)
(0.0927834 -0.00237536 0)
(0.0923414 0.00755436 0)
(0.0905095 0.017753 0)
(0.087252 0.0284105 0)
(0.0825249 0.0397238 0)
(0.0762787 0.0518977 0)
(0.0684631 0.0651458 0)
(0.0590347 0.0796898 0)
(0.0479667 0.0957563 0)
(0.0352644 0.113571 0)
(0.0209845 0.133345 0)
(0.00526248 0.155257 0)
(-0.0116523 0.179415 0)
(-0.0293531 0.205805 0)
(-0.0472241 0.234204 0)
(-0.0643874 0.264058 0)
(-0.0796581 0.294304 0)
(-0.0915338 0.323137 0)
(-0.0982578 0.347717 0)
(-0.0980264 0.363869 0)
(-0.0894167 0.365859 0)
(-0.0720322 0.346433 0)
(-0.0474101 0.297398 0)
(-0.0210491 0.211071 0)
(-0.00422915 0.0832506 0)
(-0.00286031 -0.0662253 0)
(-0.0153957 -0.171605 0)
(-0.0368006 -0.247615 0)
(-0.0593199 -0.296351 0)
(-0.0786166 -0.322281 0)
(-0.0927865 -0.330507 0)
(-0.101245 -0.325849 0)
(-0.104286 -0.312406 0)
(-0.102699 -0.293415 0)
(-0.0974677 -0.271297 0)
(-0.0895729 -0.247784 0)
(-0.0798992 -0.22406 0)
(-0.0691915 -0.200898 0)
(-0.0580483 -0.178771 0)
(-0.0469325 -0.157939 0)
(-0.0361912 -0.138511 0)
(-0.0260766 -0.120498 0)
(-0.0167663 -0.103837 0)
(-0.008382 -0.0884259 0)
(-0.00100386 -0.0741289 0)
(0.00531668 -0.0607932 0)
(0.0105473 -0.0482542 0)
(0.0146669 -0.0363396 0)
(0.0176603 -0.0248723 0)
(0.0195134 -0.0136714 0)
(0.0202109 -0.00255278 0)
(0.0197343 0.00867086 0)
(0.0180618 0.0201907 0)
(0.0151686 0.0322021 0)
(0.0110297 0.0449043 0)
(0.00562318 0.0585006 0)
(-0.00106382 0.0731961 0)
(-0.00902696 0.0891941 0)
(-0.0182335 0.10669 0)
(-0.0286073 0.125861 0)
(-0.0400095 0.146846 0)
(-0.0522144 0.169721 0)
(-0.0648805 0.194457 0)
(-0.0775185 0.220864 0)
(-0.0894589 0.248499 0)
(-0.0998279 0.276563 0)
(-0.107545 0.303744 0)
(-0.111363 0.328049 0)
(-0.109984 0.346617 0)
(-0.102294 0.35557 0)
(-0.087752 0.349994 0)
(-0.0668808 0.324169 0)
(-0.0418225 0.272199 0)
(-0.0176243 0.189174 0)
(-0.00330641 0.0731113 0)
(-0.00230009 -0.0588613 0)
(-0.0130429 -0.154594 0)
(-0.0323796 -0.226362 0)
(-0.0541616 -0.275248 0)
(-0.0746538 -0.304214 0)
(-0.0918687 -0.316964 0)
(-0.104834 -0.317257 0)
(-0.113352 -0.308495 0)
(-0.117745 -0.293535 0)
(-0.11861 -0.274643 0)
(-0.116648 -0.253538 0)
(-0.112557 -0.231475 0)
(-0.106974 -0.209333 0)
(-0.100445 -0.187703 0)
(-0.0934233 -0.166952 0)
(-0.0862687 -0.147288 0)
(-0.0792625 -0.1288 0)
(-0.072619 -0.111492 0)
(-0.0664982 -0.0953082 0)
(-0.0610177 -0.0801523 0)
(-0.0562633 -0.0658975 0)
(-0.0522974 -0.0523971 0)
(-0.0491657 -0.0394905 0)
(-0.0469029 -0.0270073 0)
(-0.0455366 -0.0147698 0)
(-0.0450897 -0.00259495 0)
(-0.0455822 0.0097047 0)
(-0.047031 0.0223199 0)
(-0.0494491 0.0354437 0)
(-0.0528427 0.0492703 0)
(-0.0572076 0.0639924 0)
(-0.0625225 0.0797975 0)
(-0.0687411 0.0968615 0)
(-0.0757813 0.115339 0)
(-0.0835112 0.135351 0)
(-0.091733 0.156958 0)
(-0.100163 0.180136 0)
(-0.108413 0.204731 0)
(-0.115967 0.230401 0)
(-0.122171 0.256538 0)
(-0.126233 0.282177 0)
(-0.12725 0.305881 0)
(-0.124274 0.325626 0)
(-0.11645 0.338702 0)
(-0.103239 0.341674 0)
(-0.0847302 0.330471 0)
(-0.0619773 0.300684 0)
(-0.0373016 0.248129 0)
(-0.0151265 0.169699 0)
(-0.00269565 0.0645981 0)
(-0.00192304 -0.0525772 0)
(-0.0113455 -0.139466 0)
(-0.0289825 -0.206489 0)
(-0.0498765 -0.254196 0)
(-0.0708546 -0.284581 0)
(-0.0900113 -0.300345 0)
(-0.106195 -0.304399 0)
(-0.118897 -0.299527 0)
(-0.128097 -0.288184 0)
(-0.134075 -0.272416 0)
(-0.137275 -0.253853 0)
(-0.138203 -0.233745 0)
(-0.137364 -0.213017 0)
(-0.135223 -0.192326 0)
(-0.132187 -0.172118 0)
(-0.128601 -0.152673 0)
(-0.124749 -0.134147 0)
(-0.120859 -0.116601 0)
(-0.117112 -0.100026 0)
(-0.113647 -0.0843625 0)
(-0.110574 -0.0695122 0)
(-0.107976 -0.0553505 0)
(-0.105917 -0.0417327 0)
(-0.104447 -0.0285001 0)
(-0.103603 -0.0154833 0)
(-0.103412 -0.00250603 0)
(-0.103894 0.0106132 0)
(-0.10506 0.0240587 0)
(-0.106913 0.0380149 0)
(-0.10944 0.0526641 0)
(-0.112614 0.0681819 0)
(-0.116386 0.0847314 0)
(-0.120675 0.102455 0)
(-0.125363 0.121464 0)
(-0.130279 0.141817 0)
(-0.135191 0.163504 0)
(-0.139788 0.186409 0)
(-0.143672 0.210273 0)
(-0.146347 0.234638 0)
(-0.147224 0.258787 0)
(-0.145639 0.281667 0)
(-0.140892 0.301814 0)
(-0.132335 0.317284 0)
(-0.119499 0.325616 0)
(-0.102285 0.323863 0)
(-0.0811984 0.308733 0)
(-0.057562 0.276875 0)
(-0.0336476 0.225344 0)
(-0.0132545 0.152195 0)
(-0.00227075 0.0572596 0)
(-0.00166046 -0.047068 0)
(-0.0101004 -0.125789 0)
(-0.0263733 -0.187835 0)
(-0.0463966 -0.233473 0)
(-0.0674764 -0.264075 0)
(-0.0878575 -0.281629 0)
(-0.106333 -0.288391 0)
(-0.122213 -0.286615 0)
(-0.135235 -0.278378 0)
(-0.145435 -0.265482 0)
(-0.15304 -0.249423 0)
(-0.158376 -0.231396 0)
(-0.161812 -0.212321 0)
(-0.163716 -0.192885 0)
(-0.164433 -0.173577 0)
(-0.16427 -0.154727 0)
(-0.163495 -0.136542 0)
(-0.16233 -0.11913 0)
(-0.16096 -0.102521 0)
(-0.159537 -0.0866898 0)
(-0.158181 -0.0715677 0)
(-0.156988 -0.0570525 0)
(-0.156034 -0.0430183 0)
(-0.155377 -0.0293211 0)
(-0.15506 -0.0158045 0)
(-0.155113 -0.00230292 0)
(-0.155554 0.0113542 0)
(-0.156388 0.0253394 0)
(-0.157605 0.0398239 0)
(-0.15918 0.0549728 0)
(-0.161066 0.07094 0)
(-0.163192 0.0878607 0)
(-0.165454 0.105841 0)
(-0.167709 0.124947 0)
(-0.169766 0.145183 0)
(-0.171377 0.166473 0)
(-0.172233 0.188625 0)
(-0.171957 0.211301 0)
(-0.170105 0.233967 0)
(-0.166182 0.255846 0)
(-0.15967 0.275863 0)
(-0.150078 0.292598 0)
(-0.137026 0.304256 0)
(-0.120358 0.308671 0)
(-0.100293 0.303372 0)
(-0.0775929 0.285736 0)
(-0.0536817 0.253243 0)
(-0.0306751 0.203829 0)
(-0.0118148 0.136295 0)
(-0.0019619 0.0508006 0)
(-0.00147262 -0.0421262 0)
(-0.00917455 -0.113231 0)
(-0.0243657 -0.170206 0)
(-0.043607 -0.213178 0)
(-0.0645945 -0.243111 0)
(-0.0857405 -0.261486 0)
(-0.105851 -0.270056 0)
(-0.124139 -0.27064 0)
(-0.140184 -0.264976 0)
(-0.153838 -0.254623 0)
(-0.16515 -0.240923 0)
(-0.174291 -0.224983 0)
(-0.181501 -0.207685 0)
(-0.18705 -0.18971 0)
(-0.19121 -0.171567 0)
(-0.194241 -0.153614 0)
(-0.196375 -0.13609 0)
(-0.19782 -0.119137 0)
(-0.198754 -0.10282 0)
(-0.199325 -0.087142 0)
(-0.199657 -0.0720607 0)
(-0.199852 -0.0574965 0)
(-0.19999 -0.0433431 0)
(-0.200133 -0.0294736 0)
(-0.200325 -0.0157467 0)
(-0.200598 -0.00201155 0)
(-0.200965 0.0118883 0)
(-0.201425 0.0261102 0)
(-0.20196 0.0408079 0)
(-0.202533 0.0561266 0)
(-0.203082 0.0721958 0)
(-0.203522 0.0891214 0)
(-0.203733 0.106975 0)
(-0.203562 0.125778 0)
(-0.202811 0.14549 0)
(-0.201239 0.165978 0)
(-0.198557 0.186996 0)
(-0.194428 0.208153 0)
(-0.188482 0.228874 0)
(-0.180332 0.248364 0)
(-0.16961 0.265577 0)
(-0.156016 0.279184 0)
(-0.139398 0.287577 0)
(-0.119841 0.288891 0)
(-0.0977841 0.28109 0)
(-0.074131 0.262105 0)
(-0.0503076 0.230054 0)
(-0.0282351 0.183495 0)
(-0.0106821 0.121711 0)
(-0.00172917 0.0450197 0)
(-0.00133551 -0.0376063 0)
(-0.00847867 -0.101535 0)
(-0.0228175 -0.153422 0)
(-0.0413886 -0.193322 0)
(-0.0621983 -0.221931 0)
(-0.0838183 -0.240367 0)
(-0.105102 -0.249999 0)
(-0.125219 -0.252292 0)
(-0.143647 -0.248689 0)
(-0.160106 -0.240525 0)
(-0.174508 -0.228979 0)
(-0.18689 -0.215052 0)
(-0.197381 -0.199568 0)
(-0.206155 -0.18318 0)
(-0.213411 -0.166389 0)
(-0.219352 -0.149565 0)
(-0.224173 -0.132965 0)
(-0.228055 -0.116753 0)
(-0.231157 -0.101017 0)
(-0.233621 -0.0857869 0)
(-0.235564 -0.0710404 0)
(-0.237086 -0.0567198 0)
(-0.238268 -0.0427379 0)
(-0.23917 -0.0289858 0)
(-0.239837 -0.015339 0)
(-0.240296 -0.00166299 0)
(-0.240559 0.0121819 0)
(-0.240617 0.0263355 0)
(-0.240445 0.0409323 0)
(-0.239997 0.0560956 0)
(-0.239203 0.0719302 0)
(-0.237969 0.0885134 0)
(-0.23617 0.105884 0)
(-0.233651 0.124029 0)
(-0.230222 0.142865 0)
(-0.225661 0.162223 0)
(-0.219712 0.181819 0)
(-0.212097 0.201234 0)
(-0.202526 0.21988 0)
(-0.190724 0.236983 0)
(-0.176462 0.251557 0)
(-0.15961 0.262396 0)
(-0.140199 0.268088 0)
(-0.118494 0.267059 0)
(-0.0950756 0.257649 0)
(-0.0709154 0.238242 0)
(-0.0473874 0.207435 0)
(-0.0262145 0.164228 0)
(-0.00977464 0.108212 0)
(-0.00154883 0.0397743 0)
(-0.00123393 -0.0334034 0)
(-0.00795152 -0.0905059 0)
(-0.0216216 -0.13732 0)
(-0.0396344 -0.173871 0)
(-0.0602402 -0.200672 0)
(-0.0821521 -0.218576 0)
(-0.104283 -0.228659 0)
(-0.125795 -0.232102 0)
(-0.1461 -0.230095 0)
(-0.164829 -0.223769 0)
(-0.181784 -0.214146 0)
(-0.1969 -0.202115 0)
(-0.210205 -0.188425 0)
(-0.221789 -0.173684 0)
(-0.23178 -0.158373 0)
(-0.240325 -0.142854 0)
(-0.247576 -0.127389 0)
(-0.253681 -0.112155 0)
(-0.258779 -0.0972553 0)
(-0.262994 -0.0827363 0)
(-0.266434 -0.0685955 0)
(-0.269193 -0.0547931 0)
(-0.271344 -0.04126 0)
(-0.272947 -0.0279047 0)
(-0.274041 -0.0146204 0)
(-0.274651 -0.0012897 0)
(-0.274782 0.0122091 0)
(-0.274422 0.0259971 0)
(-0.27354 0.0401888 0)
(-0.272083 0.0548858 0)
(-0.269978 0.0701689 0)
(-0.267127 0.0860895 0)
(-0.263408 0.102658 0)
(-0.258674 0.119833 0)
(-0.252752 0.137504 0)
(-0.245446 0.155472 0)
(-0.236547 0.173438 0)
(-0.225839 0.190973 0)
(-0.213114 0.207507 0)
(-0.198204 0.222307 0)
(-0.181008 0.23447 0)
(-0.161536 0.242927 0)
(-0.139963 0.246464 0)
(-0.116681 0.243767 0)
(-0.0923603 0.233498 0)
(-0.0679897 0.214401 0)
(-0.0448666 0.185435 0)
(-0.0245295 0.145911 0)
(-0.00903731 0.0956177 0)
(-0.00140615 0.0349593 0)
(-0.0011579 -0.0294407 0)
(-0.0075501 -0.0799918 0)
(-0.0206972 -0.121766 0)
(-0.0382539 -0.154774 0)
(-0.058661 -0.179405 0)
(-0.0807519 -0.196317 0)
(-0.103502 -0.206358 0)
(-0.12608 -0.210479 0)
(-0.147864 -0.209659 0)
(-0.168421 -0.204845 0)
(-0.187475 -0.196912 0)
(-0.204874 -0.186636 0)
(-0.220565 -0.174684 0)
(-0.234563 -0.161609 0)
(-0.246933 -0.147856 0)
(-0.257767 -0.133772 0)
(-0.267175 -0.11961 0)
(-0.275269 -0.105551 0)
(-0.282164 -0.0917063 0)
(-0.287965 -0.0781326 0)
(-0.292765 -0.0648421 0)
(-0.296647 -0.0518104 0)
(-0.299678 -0.0389844 0)
(-0.30191 -0.0262894 0)
(-0.303378 -0.0136353 0)
(-0.304102 -0.000922402 0)
(-0.304081 0.0119531 0)
(-0.3033 0.0250935 0)
(-0.301723 0.0385938 0)
(-0.299295 0.0525347 0)
(-0.295943 0.0669756 0)
(-0.29157 0.0819455 0)
(-0.286062 0.0974329 0)
(-0.279285 0.113374 0)
(-0.27109 0.129641 0)
(-0.261317 0.146023 0)
(-0.249804 0.162216 0)
(-0.236398 0.177805 0)
(-0.220973 0.192251 0)
(-0.203458 0.204882 0)
(-0.183859 0.214893 0)
(-0.162303 0.221353 0)
(-0.139073 0.223234 0)
(-0.114652 0.219454 0)
(-0.0897578 0.208944 0)
(-0.0653688 0.190734 0)
(-0.0426975 0.164052 0)
(-0.0231188 0.12843 0)
(-0.00843268 0.0837803 0)
(-0.00129165 0.030495 0)
(-0.00110065 -0.0256609 0)
(-0.00724367 -0.0698762 0)
(-0.0199833 -0.106645 0)
(-0.0371731 -0.135976 0)
(-0.0574018 -0.158166 0)
(-0.0796023 -0.173728 0)
(-0.102808 -0.183332 0)
(-0.126204 -0.187742 0)
(-0.149153 -0.187757 0)
(-0.171177 -0.184162 0)
(-0.191941 -0.177697 0)
(-0.211229 -0.169029 0)
(-0.22892 -0.158739 0)
(-0.244966 -0.147319 0)
(-0.259374 -0.135172 0)
(-0.272188 -0.122615 0)
(-0.283475 -0.109889 0)
(-0.293316 -0.0971665 0)
(-0.301797 -0.0845615 0)
(-0.309002 -0.0721368 0)
(-0.315011 -0.0599139 0)
(-0.319891 -0.0478806 0)
(-0.323702 -0.0359976 0)
(-0.326485 -0.0242052 0)
(-0.328272 -0.0124295 0)
(-0.329074 -0.000587502 0)
(-0.328889 0.0114073 0)
(-0.327697 0.0236392 0)
(-0.325459 0.0361848 0)
(-0.322121 0.0491062 0)
(-0.31761 0.0624442 0)
(-0.311837 0.0762099 0)
(-0.304699 0.0903755 0)
(-0.296081 0.104864 0)
(-0.285859 0.119539 0)
(-0.273911 0.134189 0)
(-0.260123 0.148521 0)
(-0.244404 0.162146 0)
(-0.226703 0.174571 0)
(-0.207032 0.185195 0)
(-0.18549 0.193317 0)
(-0.162294 0.198141 0)
(-0.13781 0.198812 0)
(-0.112579 0.194448 0)
(-0.0873433 0.184201 0)
(-0.0630544 0.167327 0)
(-0.040841 0.143258 0)
(-0.0219373 0.111679 0)
(-0.00793474 0.0725778 0)
(-0.00119899 0.0263184 0)
(-0.00105743 -0.0220203 0)
(-0.00700993 -0.0600681 0)
(-0.0194338 -0.0918665 0)
(-0.0363326 -0.117423 0)
(-0.0564089 -0.136969 0)
(-0.0786767 -0.150904 0)
(-0.10222 -0.159757 0)
(-0.126246 -0.164136 0)
(-0.150108 -0.164689 0)
(-0.173302 -0.16206 0)
(-0.195449 -0.156863 0)
(-0.216283 -0.14966 0)
(-0.235628 -0.14095 0)
(-0.253385 -0.131157 0)
(-0.269511 -0.120637 0)
(-0.284006 -0.109673 0)
(-0.296901 -0.098484 0)
(-0.308245 -0.0872305 0)
(-0.318097 -0.076021 0)
(-0.326521 -0.0649198 0)
(-0.333579 -0.0539542 0)
(-0.339327 -0.0431206 0)
(-0.34381 -0.0323913 0)
(-0.347066 -0.02172 0)
(-0.349116 -0.0110471 0)
(-0.349968 -0.000305342 0)
(-0.349615 0.0105756 0)
(-0.348033 0.0216635 0)
(-0.345185 0.0330184 0)
(-0.341015 0.0446863 0)
(-0.335456 0.056693 0)
(-0.328428 0.0690361 0)
(-0.319841 0.0816779 0)
(-0.309599 0.0945357 0)
(-0.297607 0.107473 0)
(-0.28378 0.120289 0)
(-0.26805 0.132711 0)
(-0.250383 0.144388 0)
(-0.230794 0.154882 0)
(-0.209365 0.163671 0)
(-0.186272 0.170155 0)
(-0.161801 0.173672 0)
(-0.136378 0.173517 0)
(-0.110584 0.168984 0)
(-0.0851657 0.159407 0)
(-0.0610426 0.14422 0)
(-0.0392661 0.123006 0)
(-0.0209525 0.0955572 0)
(-0.00752526 0.0619066 0)
(-0.00112389 0.0223782 0)
(-0.00102491 -0.0184858 0)
(-0.00683255 -0.0504959 0)
(-0.0190139 -0.0773536 0)
(-0.0356852 -0.0990676 0)
(-0.0556365 -0.115816 0)
(-0.0779459 -0.12791 0)
(-0.101741 -0.135763 0)
(-0.126249 -0.139855 0)
(-0.150823 -0.140702 0)
(-0.174941 -0.138823 0)
(-0.198192 -0.134719 0)
(-0.220273 -0.128852 0)
(-0.240965 -0.121639 0)
(-0.260125 -0.113438 0)
(-0.277672 -0.104552 0)
(-0.293567 -0.0952259 0)
(-0.307808 -0.0856517 0)
(-0.320415 -0.0759721 0)
(-0.331425 -0.0662864 0)
(-0.340881 -0.0566559 0)
(-0.348828 -0.0471096 0)
(-0.355309 -0.0376501 0)
(-0.360361 -0.0282586 0)
(-0.364011 -0.0189001 0)
(-0.366273 -0.00952809 0)
(-0.367151 -8.9183e-05 0)
(-0.366634 0.00947217 0)
(-0.364697 0.019209 0)
(-0.3613 0.0291669 0)
(-0.356393 0.0393786 0)
(-0.349914 0.0498583 0)
(-0.34179 0.0605953 0)
(-0.331947 0.0715471 0)
(-0.32031 0.082632 0)
(-0.306811 0.0937217 0)
(-0.291398 0.104634 0)
(-0.274046 0.115127 0)
(-0.254772 0.124892 0)
(-0.233645 0.133554 0)
(-0.210807 0.140674 0)
(-0.186494 0.145752 0)
(-0.161046 0.148247 0)
(-0.134931 0.147592 0)
(-0.108753 0.14323 0)
(-0.0832573 0.134648 0)
(-0.0593282 0.121417 0)
(-0.0379496 0.103237 0)
(-0.0201404 0.0799716 0)
(-0.0071913 0.0516768 0)
(-0.00106337 0.0186317 0)
(-0.00100067 -0.0150311 0)
(-0.00669954 -0.0411031 0)
(-0.0186975 -0.0630452 0)
(-0.0351943 -0.0808664 0)
(-0.0550465 -0.0947034 0)
(-0.0773821 -0.104794 0)
(-0.101364 -0.111454 0)
(-0.126238 -0.115055 0)
(-0.151359 -0.115999 0)
(-0.176193 -0.114693 0)
(-0.20031 -0.111533 0)
(-0.223375 -0.10689 0)
(-0.245139 -0.101099 0)
(-0.265425 -0.0944514 0)
(-0.284117 -0.0871968 0)
(-0.301147 -0.0795384 0)
(-0.316484 -0.0716373 0)
(-0.330124 -0.0636147 0)
(-0.342083 -0.0555568 0)
(-0.352386 -0.047518 0)
(-0.361065 -0.0395265 0)
(-0.368149 -0.0315881 0)
(-0.373665 -0.0236907 0)
(-0.377633 -0.0158088 0)
(-0.380062 -0.00790706 0)
(-0.380949 5.53139e-05 0)
(-0.380281 0.0081209 0)
(-0.378031 0.0163298 0)
(-0.374162 0.0247155 0)
(-0.368624 0.0333002 0)
(-0.361362 0.0420903 0)
(-0.352314 0.0510705 0)
(-0.341418 0.0601989 0)
(-0.328619 0.0694005 0)
(-0.313874 0.0785621 0)
(-0.297161 0.0875263 0)
(-0.278492 0.0960872 0)
(-0.257924 0.103987 0)
(-0.235575 0.110918 0)
(-0.211633 0.11652 0)
(-0.18638 0.120393 0)
(-0.160197 0.122107 0)
(-0.133581 0.121221 0)
(-0.10715 0.117305 0)
(-0.0816406 0.109971 0)
(-0.0579063 0.0989022 0)
(-0.0368737 0.0838843 0)
(-0.0194841 0.0648327 0)
(-0.0069237 0.0418079 0)
(-0.00101533 0.0150417 0)
(-0.000982999 -0.0116357 0)
(-0.00660212 -0.0318441 0)
(-0.0184648 -0.0488904 0)
(-0.0348319 -0.0627834 0)
(-0.0546087 -0.073624 0)
(-0.0769607 -0.0815875 0)
(-0.101079 -0.086908 0)
(-0.126223 -0.0898616 0)
(-0.151754 -0.0907476 0)
(-0.177129 -0.0898731 0)
(-0.201904 -0.087538 0)
(-0.225722 -0.0840249 0)
(-0.248311 -0.0795906 0)
(-0.269467 -0.0744618 0)
(-0.289049 -0.0688317 0)
(-0.306965 -0.0628605 0)
(-0.323161 -0.0566755 0)
(-0.337613 -0.050374 0)
(-0.35032 -0.0440255 0)
(-0.361291 -0.0376754 0)
(-0.370547 -0.031348 0)
(-0.378106 -0.0250504 0)
(-0.383987 -0.0187752 0)
(-0.388202 -0.0125045 0)
(-0.390755 -0.00621289 0)
(-0.39164 0.00012968 0)
(-0.390842 0.00655428 0)
(-0.388332 0.0130899 0)
(-0.384073 0.0197602 0)
(-0.378021 0.0265793 0)
(-0.370124 0.0335488 0)
(-0.36033 0.0406526 0)
(-0.34859 0.0478537 0)
(-0.334864 0.0550887 0)
(-0.31913 0.0622645 0)
(-0.301393 0.0692536 0)
(-0.281694 0.0758916 0)
(-0.260124 0.0819754 0)
(-0.236836 0.0872633 0)
(-0.212057 0.0914784 0)
(-0.186101 0.0943142 0)
(-0.159381 0.0954455 0)
(-0.132412 0.0945418 0)
(-0.105819 0.0912858 0)
(-0.0803313 0.0853945 0)
(-0.0567729 0.0766414 0)
(-0.0360259 0.0648787 0)
(-0.0189712 0.0500551 0)
(-0.00671598 0.0322267 0)
(-0.000978323 0.0115754 0)
(-0.000970686 -0.00828296 0)
(-0.00653401 -0.0226816 0)
(-0.0183017 -0.0348472 0)
(-0.034577 -0.0447869 0)
(-0.0542996 -0.0525704 0)
(-0.0766621 -0.0583183 0)
(-0.100875 -0.0621916 0)
(-0.126211 -0.0643808 0)
(-0.152033 -0.0650936 0)
(-0.177796 -0.0645436 0)
(-0.203044 -0.0629408 0)
(-0.227408 -0.060484 0)
(-0.250596 -0.0573547 0)
(-0.272388 -0.0537141 0)
(-0.292622 -0.0497003 0)
(-0.311188 -0.0454283 0)
(-0.328017 -0.0409902 0)
(-0.343069 -0.0364569 0)
(-0.356329 -0.0318795 0)
(-0.367796 -0.0272919 0)
(-0.377479 -0.0227129 0)
(-0.385389 -0.0181487 0)
(-0.391539 -0.0135953 0)
(-0.395935 -0.00904109 0)
(-0.398576 -0.00446878 0)
(-0.399455 0.000141938 0)
(-0.398553 0.00481215 0)
(-0.395841 0.00956137 0)
(-0.391285 0.014405 0)
(-0.384841 0.0193515 0)
(-0.376463 0.0244001 0)
(-0.366107 0.0295372 0)
(-0.353732 0.0347336 0)
(-0.339313 0.0399417 0)
(-0.322844 0.0450921 0)
(-0.304348 0.0500912 0)
(-0.283892 0.0548194 0)
(-0.26159 0.0591302 0)
(-0.237622 0.0628507 0)
(-0.212241 0.0657842 0)
(-0.185788 0.0677148 0)
(-0.158693 0.0684151 0)
(-0.131486 0.0676562 0)
(-0.104795 0.0652202 0)
(-0.0793405 0.0609149 0)
(-0.0559251 0.0545887 0)
(-0.0353969 0.0461455 0)
(-0.018593 0.0355561 0)
(-0.00656361 0.022865 0)
(-0.00095133 0.00820276 0)
(-0.000962901 -0.00495881 0)
(-0.00649085 -0.013584 0)
(-0.0181981 -0.0208793 0)
(-0.0344149 -0.0268493 0)
(-0.0541027 -0.0315351 0)
(-0.0764713 -0.035007 0)
(-0.100744 -0.0373595 0)
(-0.126203 -0.0387042 0)
(-0.152212 -0.0391634 0)
(-0.178225 -0.0388629 0)
(-0.20378 -0.0379272 0)
(-0.228498 -0.0364741 0)
(-0.252076 -0.0346119 0)
(-0.274283 -0.0324369 0)
(-0.294945 -0.030032 0)
(-0.313939 -0.0274663 0)
(-0.331184 -0.0247957 0)
(-0.346631 -0.022063 0)
(-0.360256 -0.0192997 0)
(-0.37205 -0.0165266 0)
(-0.382014 -0.0137555 0)
(-0.390157 -0.0109907 0)
(-0.396483 -0.00823026 0)
(-0.400997 -0.00546762 0)
(-0.403695 -0.00269288 0)
(-0.404567 0.000105707 0)
(-0.403592 0.00294035 0)
(-0.400744 0.00582223 0)
(-0.395986 0.00875999 0)
(-0.389278 0.0117581 0)
(-0.380578 0.0148152 0)
(-0.369845 0.0179223 0)
(-0.357047 0.0210609 0)
(-0.342167 0.0242013 0)
(-0.325211 0.0273009 0)
(-0.306215 0.0303025 0)
(-0.285261 0.0331335 0)
(-0.26248 0.0357055 0)
(-0.23807 0.0379147 0)
(-0.212302 0.0396436 0)
(-0.18553 0.0407639 0)
(-0.158199 0.0411411 0)
(-0.130846 0.0406409 0)
(-0.104101 0.0391358 0)
(-0.078676 0.0365146 0)
(-0.0553608 0.0326901 0)
(-0.0349807 0.0276084 0)
(-0.0183439 0.0212549 0)
(-0.00646356 0.0136578 0)
(-0.000933677 0.00489574 0)
(-0.000959132 -0.00165114 0)
(-0.00646992 -0.0045239 0)
(-0.0181479 -0.00695498 0)
(-0.0343362 -0.008946 0)
(-0.0540069 -0.0105105 0)
(-0.0763783 -0.0116716 0)
(-0.100681 -0.0124604 0)
(-0.126199 -0.0129138 0)
(-0.1523 -0.0130721 0)
(-0.178435 -0.0129768 0)
(-0.204141 -0.0126692 0)
(-0.229033 -0.0121884 0)
(-0.252804 -0.0115702 0)
(-0.275216 -0.0108468 0)
(-0.296089 -0.0100457 0)