/*--------------------------------*- C++ -*----------------------------------*\
  =========                 |
  \\      /  F ield         | OpenFOAM: The Open Source CFD Toolbox
   \\    /   O peration     | Website:  https://openfoam.org
    \\  /    A nd           | Version:  7
     \\/     M anipulation  |
\*---------------------------------------------------------------------------*/
FoamFile
{
    version     2.0;
    format      ascii;
    class       volVectorField;
    location    "0.0044";
    object      U;
}
// * * * * * * * * * * * * * * * * * * * * * * * * * * * * * * * * * * * * * //

dimensions      [0 1 -1 0 0 0 0];

internalField   nonuniform List<vector> 
2500
(
(0.290666 -0.1528 0)
(0.390361 -0.128463 0)
(0.565668 -0.0745246 0)
(0.681772 -0.0415996 0)
(0.748621 -0.0235714 0)
(0.790149 -0.0137235 0)
(0.817392 -0.00831944 0)
(0.83577 -0.00528787 0)
(0.848522 -0.00351883 0)
(0.857625 -0.00243933 0)
(0.864286 -0.00175231 0)
(0.869268 -0.00129827 0)
(0.873071 -0.000987693 0)
(0.876024 -0.000768246 0)
(0.878354 -0.000608234 0)
(0.880214 -0.000487938 0)
(0.881712 -0.000394819 0)
(0.882926 -0.000320732 0)
(0.88391 -0.000260265 0)
(0.884705 -0.000209719 0)
(0.88534 -0.000166475 0)
(0.885838 -0.000128605 0)
(0.886215 -9.46131e-05 0)
(0.886482 -6.32844e-05 0)
(0.886647 -3.35707e-05 0)
(0.886714 -4.51842e-06 0)
(0.886683 2.47899e-05 0)
(0.886554 5.53333e-05 0)
(0.886319 8.81669e-05 0)
(0.88597 0.000124523 0)
(0.885493 0.000165918 0)
(0.884867 0.000214311 0)
(0.884066 0.00027234 0)
(0.883052 0.000343695 0)
(0.881774 0.000433702 0)
(0.880159 0.000550253 0)
(0.878105 0.000705308 0)
(0.875465 0.000917376 0)
(0.872026 0.00121575 0)
(0.867472 0.00164818 0)
(0.86133 0.00229561 0)
(0.85287 0.00330222 0)
(0.840935 0.00493953 0)
(0.823612 0.00774374 0)
(0.797691 0.0127924 0)
(0.75769 0.0221966 0)
(0.692421 0.0399387 0)
(0.576905 0.0732527 0)
(0.398381 0.128717 0)
(0.294226 0.15412 0)
(0.00133418 -0.295684 0)
(0.0165529 -0.298251 0)
(0.149228 -0.210624 0)
(0.274642 -0.140926 0)
(0.372595 -0.0936169 0)
(0.446968 -0.0626839 0)
(0.502487 -0.0427394 0)
(0.543556 -0.0297905 0)
(0.573994 -0.0212278 0)
(0.596731 -0.0154475 0)
(0.613894 -0.0114679 0)
(0.627004 -0.00867572 0)
(0.637146 -0.00667928 0)
(0.645088 -0.00522358 0)
(0.65138 -0.00414004 0)
(0.656412 -0.00331591 0)
(0.660466 -0.00267507 0)
(0.663747 -0.00216555 0)
(0.666404 -0.00175139 0)
(0.668547 -0.00140723 0)
(0.670258 -0.00111476 0)
(0.671598 -0.000860343 0)
(0.672611 -0.000633417 0)
(0.673329 -0.000425457 0)
(0.673773 -0.000229202 0)
(0.673954 -3.81053e-05 0)
(0.673877 0.000154114 0)
(0.673534 0.000353939 0)
(0.672911 0.000568455 0)
(0.671984 0.000805912 0)
(0.670716 0.00107645 0)
(0.669052 0.00139312 0)
(0.666922 0.00177338 0)
(0.664226 0.00224135 0)
(0.660826 0.00283119 0)
(0.656535 0.00359225 0)
(0.651089 0.00459686 0)
(0.644118 0.00595235 0)
(0.635099 0.00781976 0)
(0.623286 0.0104439 0)
(0.607617 0.0142038 0)
(0.586573 0.0196997 0)
(0.557994 0.0279103 0)
(0.518823 0.0404723 0)
(0.464942 0.0601353 0)
(0.391395 0.0912906 0)
(0.292713 0.140122 0)
(0.163989 0.213391 0)
(0.025121 0.305481 0)
(0.00515107 0.303256 0)
(-0.0330857 -0.250663 0)
(-0.0637653 -0.340952 0)
(-0.018871 -0.302793 0)
(0.0553137 -0.239108 0)
(0.132713 -0.179749 0)
(0.202456 -0.132461 0)
(0.26085 -0.097197 0)
(0.307869 -0.07158 0)
(0.345014 -0.053124 0)
(0.374131 -0.0398316 0)
(0.396928 -0.0302191 0)
(0.414834 -0.0232174 0)
(0.428978 -0.018066 0)
(0.440229 -0.014228 0)
(0.449243 -0.0113255 0)
(0.45651 -0.00909291 0)
(0.462398 -0.00734393 0)
(0.467181 -0.00594709 0)
(0.471063 -0.00480905 0)
(0.474199 -0.00386256 0)
(0.476704 -0.00305829 0)
(0.478666 -0.00235906 0)
(0.480148 -0.00173592 0)
(0.481197 -0.00116539 0)
(0.481842 -0.000627492 0)
(0.4821 -0.000104201 0)
(0.481976 0.000421759 0)
(0.481462 0.000968095 0)
(0.480536 0.00155418 0)
(0.479163 0.00220251 0)
(0.477288 0.00294063 0)
(0.474837 0.00380377 0)
(0.471705 0.00483871 0)
(0.467755 0.00610933 0)
(0.462795 0.0077047 0)
(0.456568 0.00975102 0)
(0.448724 0.0124287 0)
(0.438787 0.0159974 0)
(0.426105 0.020831 0)
(0.4098 0.0274688 0)
(0.388701 0.0366874 0)
(0.361287 0.0496022 0)
(0.325664 0.0678007 0)
(0.279678 0.0934884 0)
(0.221361 0.129523 0)
(0.150178 0.178863 0)
(0.0694109 0.242179 0)
(-0.0100777 0.311646 0)
(-0.0610575 0.355079 0)
(-0.0327364 0.262675 0)
(-0.0273304 -0.189349 0)
(-0.069259 -0.325177 0)
(-0.075539 -0.335756 0)
(-0.0488393 -0.295907 0)
(-0.00478511 -0.242327 0)
(0.0440648 -0.191202 0)
(0.0906813 -0.148117 0)
(0.131931 -0.113851 0)
(0.166925 -0.0873993 0)
(0.195911 -0.067298 0)
(0.21961 -0.0521325 0)
(0.23887 -0.0407055 0)
(0.254498 -0.0320664 0)
(0.267193 -0.0254876 0)
(0.27753 -0.0204249 0)
(0.285969 -0.0164773 0)
(0.29287 -0.0133522 0)
(0.298514 -0.0108367 0)
(0.303119 -0.00877534 0)
(0.306851 -0.00705378 0)
(0.309838 -0.00558646 0)
(0.312179 -0.00430798 0)
(0.313946 -0.00316683 0)
(0.315192 -0.00212085 0)
(0.31595 -0.00113396 0)
(0.316241 -0.000173522 0)
(0.316069 0.000791828 0)
(0.315424 0.00179421 0)
(0.31428 0.00286866 0)
(0.312597 0.00405569 0)
(0.31031 0.00540458 0)
(0.307334 0.00697783 0)
(0.303552 0.00885745 0)
(0.298808 0.0111538 0)
(0.292894 0.014018 0)
(0.285539 0.0176597 0)
(0.276381 0.0223705 0)
(0.264953 0.0285561 0)
(0.250652 0.036777 0)
(0.232721 0.0477979 0)
(0.210248 0.0626416 0)
(0.182219 0.0826341 0)
(0.147669 0.109401 0)
(0.106032 0.144726 0)
(0.0578532 0.190027 0)
(0.00604936 0.244939 0)
(-0.0421625 0.303918 0)
(-0.0734017 0.349692 0)
(-0.0704294 0.34236 0)
(-0.0282395 0.200815 0)
(-0.0186441 -0.145588 0)
(-0.0579679 -0.288924 0)
(-0.0868206 -0.329549 0)
(-0.0913458 -0.31433 0)
(-0.0763624 -0.274858 0)
(-0.0505863 -0.229042 0)
(-0.0206338 -0.185632 0)
(0.00934906 -0.148108 0)
(0.0371101 -0.117246 0)
(0.0616709 -0.09259 0)
(0.0828103 -0.0732214 0)
(0.100704 -0.0581355 0)
(0.115703 -0.0464129 0)
(0.128205 -0.0372804 0)
(0.138596 -0.0301191 0)
(0.147217 -0.0244486 0)
(0.154356 -0.0199033 0)
(0.160251 -0.0162081 0)
(0.165095 -0.013156 0)
(0.169041 -0.0105911 0)
(0.172211 -0.0083942 0)
(0.174698 -0.00647263 0)
(0.176573 -0.00475223 0)
(0.177888 -0.00317162 0)
(0.178678 -0.00167776 0)
(0.17896 -0.000222407 0)
(0.178739 0.00124095 0)
(0.178005 0.00275994 0)
(0.176729 0.00438637 0)
(0.17487 0.00617976 0)
(0.172363 0.00821187 0)
(0.169121 0.0105727 0)
(0.16503 0.0133785 0)
(0.159941 0.0167832 0)
(0.15366 0.020993 0)
(0.145945 0.0262868 0)
(0.136488 0.0330411 0)
(0.124917 0.0417601 0)
(0.11079 0.0531083 0)
(0.09362 0.0679369 0)
(0.0729289 0.0872905 0)
(0.0483718 0.11236 0)
(0.0199722 0.144321 0)
(-0.0114804 0.183936 0)
(-0.0438244 0.23071 0)
(-0.0727583 0.281238 0)
(-0.0910897 0.326244 0)
(-0.0890664 0.346157 0)
(-0.0607294 0.306212 0)
(-0.0197297 0.155218 0)
(-0.0123038 -0.114625 0)
(-0.0454408 -0.249098 0)
(-0.0816034 -0.304563 0)
(-0.103172 -0.308282 0)
(-0.108393 -0.283831 0)
(-0.101607 -0.247286 0)
(-0.0874955 -0.20822 0)
(-0.0697983 -0.17164 0)
(-0.0511178 -0.139705 0)
(-0.0330473 -0.112959 0)
(-0.0164359 -0.0911223 0)
(-0.00164504 -0.0735576 0)
(0.0112555 -0.0595333 0)
(0.0223543 -0.0483535 0)
(0.0318138 -0.0394144 0)
(0.0398199 -0.0322193 0)
(0.0465555 -0.0263726 0)
(0.0521866 -0.0215651 0)
(0.0568574 -0.0175572 0)
(0.0606889 -0.0141632 0)
(0.0637804 -0.011238 0)
(0.066211 -0.00866617 0)
(0.0680419 -0.00635407 0)
(0.069318 -0.00422294 0)
(0.0700693 -0.00220397 0)
(0.0703119 -0.000234056 0)
(0.0700481 0.00174785 0)
(0.0692669 0.0038043 0)
(0.0679428 0.00600307 0)
(0.0660351 0.00842143 0)
(0.0634858 0.0111516 0)
(0.0602174 0.0143074 0)
(0.0561303 0.0180337 0)
(0.0510988 0.0225182 0)
(0.0449688 0.0280066 0)
(0.0375556 0.0348217 0)
(0.028646 0.0433849 0)
(0.0180071 0.0542375 0)
(0.0054099 0.0680549 0)
(-0.00932348 0.0856417 0)
(-0.0262321 0.107883 0)
(-0.0450705 0.135616 0)
(-0.0650835 0.169349 0)
(-0.0846975 0.208746 0)
(-0.101178 0.251727 0)
(-0.11041 0.293033 0)
(-0.107057 0.322232 0)
(-0.0859648 0.321512 0)
(-0.0484811 0.264785 0)
(-0.0132189 0.122348 0)
(-0.0083023 -0.0919226 0)
(-0.0353083 -0.212104 0)
(-0.0714994 -0.272577 0)
(-0.100564 -0.288673 0)
(-0.117806 -0.276868 0)
(-0.124356 -0.250199 0)
(-0.122828 -0.217608 0)
(-0.115965 -0.184567 0)
(-0.106082 -0.154024 0)
(-0.0948855 -0.127271 0)
(-0.0835073 -0.10461 0)
(-0.0726346 -0.0858081 0)
(-0.0626384 -0.070393 0)
(-0.0536823 -0.0578209 0)
(-0.0458028 -0.0475691 0)
(-0.0389645 -0.0391771 0)
(-0.0330964 -0.0322591 0)
(-0.0281137 -0.026501 0)
(-0.023931 -0.021651 0)
(-0.0204694 -0.0175082 0)
(-0.0176598 -0.0139115 0)
(-0.0154444 -0.0107304 0)
(-0.0137773 -0.00785629 0)
(-0.012624 -0.00519679 0)
(-0.0119617 -0.00266999 0)
(-0.0117785 -0.000200126 0)
(-0.0120738 0.00228646 0)
(-0.0128579 0.00486524 0)
(-0.0141532 0.00761762 0)
(-0.015994 0.0106356 0)
(-0.0184279 0.0140276 0)
(-0.0215163 0.0179253 0)
(-0.0253351 0.0224932 0)
(-0.0299747 0.0279394 0)
(-0.0355379 0.0345293 0)
(-0.0421352 0.042601 0)
(-0.0498736 0.0525795 0)
(-0.058836 0.0649854 0)
(-0.069045 0.0804292 0)
(-0.0804038 0.0995745 0)
(-0.0926052 0.123047 0)
(-0.105004 0.15125 0)
(-0.116454 0.184043 0)
(-0.125137 0.220212 0)
(-0.128481 0.2567 0)
(-0.123324 0.287579 0)
(-0.10652 0.302959 0)
(-0.0764878 0.288317 0)
(-0.0380813 0.225465 0)
(-0.008998 0.0979363 0)
(-0.00583403 -0.074857 0)
(-0.0276608 -0.179834 0)
(-0.0607987 -0.239619 0)
(-0.0917329 -0.262738 0)
(-0.114973 -0.260358 0)
(-0.129752 -0.242486 0)
(-0.137071 -0.216783 0)
(-0.138614 -0.188497 0)
(-0.136145 -0.160848 0)
(-0.131176 -0.135568 0)
(-0.124861 -0.113389 0)
(-0.118018 -0.0944315 0)
(-0.111186 -0.0784848 0)
(-0.104694 -0.0651854 0)
(-0.0987267 -0.0541273 0)
(-0.0933717 -0.0449205 0)
(-0.0886556 -0.0372185 0)
(-0.0845696 -0.030726 0)
(-0.0810861 -0.0251976 0)
(-0.07817 -0.0204312 0)
(-0.0757845 -0.0162603 0)
(-0.0738962 -0.0125465 0)
(-0.0724764 -0.00917271 0)
(-0.0715033 -0.00603714 0)
(-0.0709623 -0.00304849 0)
(-0.0708463 -0.0001214 0)
(-0.0711562 0.00282753 0)
(-0.0719013 0.00588371 0)
(-0.0730989 0.00913879 0)
(-0.0747749 0.0126954 0)
(-0.0769633 0.0166726 0)
(-0.0797056 0.0212129 0)
(-0.0830496 0.0264898 0)
(-0.087046 0.0327182 0)
(-0.0917428 0.0401638 0)
(-0.0971757 0.0491538 0)
(-0.103351 0.0600826 0)
(-0.11022 0.0734077 0)
(-0.117637 0.089626 0)
(-0.125307 0.109215 0)
(-0.132703 0.132513 0)
(-0.138985 0.159523 0)
(-0.142905 0.189589 0)
(-0.142769 0.220946 0)
(-0.136532 0.250136 0)
(-0.122154 0.271388 0)
(-0.0982968 0.276172 0)
(-0.0656006 0.253362 0)
(-0.0300006 0.190754 0)
(-0.00634685 0.0794495 0)
(-0.00426157 -0.0617305 0)
(-0.0219043 -0.152449 0)
(-0.0509754 -0.20861 0)
(-0.0807855 -0.234967 0)
(-0.106099 -0.239023 0)
(-0.125226 -0.228242 0)
(-0.138105 -0.208874 0)
(-0.145553 -0.185586 0)
(-0.148749 -0.161525 0)
(-0.14888 -0.138596 0)
(-0.146969 -0.117792 0)
(-0.143821 -0.0994978 0)
(-0.140029 -0.083725 0)
(-0.136009 -0.0702833 0)
(-0.132035 -0.058892 0)
(-0.128281 -0.0492476 0)
(-0.124845 -0.0410599 0)
(-0.121783 -0.0340688 0)
(-0.119115 -0.0280489 0)
(-0.116846 -0.0228082 0)
(-0.11497 -0.018184 0)
(-0.113476 -0.0140373 0)
(-0.112354 -0.0102482 0)
(-0.111594 -0.00671027 0)
(-0.11119 -0.00332668 0)
(-0.111139 -6.05776e-06 0)
(-0.111445 0.00334141 0)
(-0.112113 0.00680761 0)
(-0.113156 0.0104906 0)
(-0.11459 0.014499 0)
(-0.116433 0.018957 0)
(-0.118708 0.02401 0)
(-0.121433 0.0298316 0)
(-0.124619 0.0366304 0)
(-0.128266 0.0446568 0)
(-0.132342 0.0542075 0)
(-0.136771 0.065623 0)
(-0.141405 0.0792738 0)
(-0.145986 0.0955237 0)
(-0.1501 0.114658 0)
(-0.153125 0.136757 0)
(-0.154186 0.161506 0)
(-0.15213 0.187915 0)
(-0.145575 0.213965 0)
(-0.133095 0.236222 0)
(-0.113625 0.249512 0)
(-0.0870731 0.246885 0)
(-0.0552079 0.220108 0)
(-0.0237958 0.161121 0)
(-0.00463578 0.0651889 0)
(-0.00321125 -0.0514385 0)
(-0.0175197 -0.129503 0)
(-0.0424722 -0.180759 0)
(-0.0697665 -0.2079 0)
(-0.0948289 -0.215998 0)
(-0.115655 -0.210557 0)
(-0.131575 -0.196541 0)
(-0.142788 -0.177921 0)
(-0.149973 -0.157572 0)
(-0.153973 -0.137385 0)
(-0.15561 -0.118474 0)
(-0.155596 -0.101388 0)
(-0.1545 -0.0863073 0)
(-0.152758 -0.073186 0)
(-0.150685 -0.0618599 0)
(-0.148502 -0.0521129 0)
(-0.146357 -0.0437175 0)
(-0.144348 -0.0364569 0)
(-0.142535 -0.0301344 0)
(-0.140954 -0.024576 0)
(-0.139624 -0.0196295 0)
(-0.138557 -0.0151617 0)
(-0.137755 -0.0110544 0)
(-0.137221 -0.00720114 0)
(-0.136957 -0.00350331 0)
(-0.136963 0.000133031 0)
(-0.137245 0.0038006 0)
(-0.137805 0.00759431 0)
(-0.13865 0.0116147 0)
(-0.139786 0.015972 0)
(-0.141219 0.0207899 0)
(-0.142948 0.0262106 0)
(-0.144968 0.0323995 0)
(-0.147257 0.0395497 0)
(-0.149771 0.0478848 0)
(-0.15243 0.0576589 0)
(-0.155097 0.0691475 0)
(-0.157561 0.0826268 0)
(-0.159503 0.0983299 0)
(-0.160465 0.116371 0)
(-0.159823 0.136629 0)
(-0.156773 0.158573 0)
(-0.150357 0.181043 0)
(-0.139559 0.201993 0)
(-0.123517 0.218259 0)
(-0.101888 0.225439 0)
(-0.0753216 0.218047 0)
(-0.0460022 0.190092 0)
(-0.0190037 0.136251 0)
(-0.00348218 0.054014 0)
(-0.00248049 -0.0432473 0)
(-0.0141496 -0.110371 0)
(-0.0353495 -0.15636 0)
(-0.0596555 -0.182796 0)
(-0.0832418 -0.193165 0)
(-0.104119 -0.191534 0)
(-0.121324 -0.181794 0)
(-0.134664 -0.167235 0)
(-0.144437 -0.150378 0)
(-0.151182 -0.132989 0)
(-0.155509 -0.116193 0)
(-0.158001 -0.100625 0)
(-0.159161 -0.0865742 0)
(-0.159397 -0.0741066 0)
(-0.159029 -0.0631542 0)
(-0.158296 -0.0535795 0)
(-0.15737 -0.0452161 0)
(-0.156377 -0.0378924 0)
(-0.155402 -0.0314438 0)
(-0.154504 -0.0257192 0)
(-0.153722 -0.0205815 0)
(-0.153083 -0.0159071 0)
(-0.152603 -0.0115839 0)
(-0.152294 -0.0075088 0)
(-0.152163 -0.00358484 0)
(-0.152215 0.000281281 0)
(-0.152455 0.0041821 0)
(-0.152884 0.00821224 0)
(-0.153503 0.0124713 0)
(-0.154308 0.0170669 0)
(-0.155293 0.0221181 0)
(-0.15644 0.0277585 0)
(-0.157722 0.0341397 0)
(-0.159092 0.0414328 0)
(-0.160474 0.049829 0)
(-0.161754 0.0595343 0)
(-0.162761 0.0707579 0)
(-0.163253 0.0836862 0)
(-0.162893 0.0984385 0)
(-0.161232 0.114995 0)
(-0.157703 0.13309 0)
(-0.15163 0.152076 0)
(-0.142281 0.170748 0)
(-0.128984 0.187178 0)
(-0.111317 0.198586 0)
(-0.0894198 0.201341 0)
(-0.064307 0.191188 0)
(-0.0381806 0.163778 0)
(-0.015286 0.115546 0)
(-0.00267466 0.0451495 0)
(-0.00195782 -0.0366417 0)
(-0.0115507 -0.0944115 0)
(-0.0295171 -0.135248 0)
(-0.0508597 -0.160136 0)
(-0.0724441 -0.171539 0)
(-0.0924483 -0.172488 0)
(-0.109817 -0.166026 0)
(-0.124129 -0.15484 0)
(-0.135418 -0.141081 0)
(-0.143984 -0.126335 0)
(-0.150246 -0.111673 0)
(-0.154649 -0.0977515 0)
(-0.157611 -0.0849223 0)
(-0.159491 -0.0733255 0)
(-0.160586 -0.0629674 0)
(-0.161132 -0.0537761 0)
(-0.161307 -0.0456392 0)
(-0.161249 -0.0384274 0)
(-0.161057 -0.0320091 0)
(-0.160806 -0.026257 0)
(-0.160548 -0.0210516 0)
(-0.160319 -0.0162817 0)
(-0.160148 -0.0118441 0)
(-0.160052 -0.00764171 0)
(-0.160044 -0.00358204 0)
(-0.16013 0.000424964 0)
(-0.160315 0.00446895 0)
(-0.160599 0.00864145 0)
(-0.160977 0.0130381 0)
(-0.161437 0.017761 0)
(-0.161963 0.0229209 0)
(-0.162525 0.0286397 0)
(-0.163078 0.0350512 0)
(-0.163557 0.0423018 0)
(-0.163868 0.0505478 0)
(-0.163876 0.0599485 0)
(-0.163398 0.0706513 0)
(-0.162185 0.0827654 0)
(-0.159914 0.0963195 0)
(-0.156179 0.111197 0)
(-0.150501 0.127048 0)
(-0.142349 0.14318 0)
(-0.131207 0.15843 0)
(-0.116682 0.171062 0)
(-0.0986742 0.178708 0)
(-0.0776012 0.178427 0)
(-0.0546097 0.166939 0)
(-0.0317227 0.141061 0)
(-0.0124036 0.098345 0)
(-0.00209529 0.0380401 0)
(-0.00157787 -0.0312416 0)
(-0.00954851 -0.0810327 0)
(-0.0248232 -0.117051 0)
(-0.0434713 -0.139963 0)
(-0.0629425 -0.151568 0)
(-0.0816362 -0.154162 0)
(-0.0985137 -0.15013 0)
(-0.113043 -0.141653 0)
(-0.125087 -0.130541 0)
(-0.134768 -0.118178 0)
(-0.142348 -0.105541 0)
(-0.148149 -0.0932712 0)
(-0.152498 -0.0817416 0)
(-0.155697 -0.0711382 0)
(-0.158006 -0.0615192 0)
(-0.159641 -0.0528631 0)
(-0.160777 -0.045102 0)
(-0.16155 -0.0381444 0)
(-0.162067 -0.0318885 0)
(-0.162407 -0.0262306 0)
(-0.162631 -0.0210693 0)
(-0.162785 -0.0163074 0)
(-0.1629 -0.011852 0)
(-0.162999 -0.00761398 0)
(-0.163099 -0.0035073 0)
(-0.163209 0.000552734 0)
(-0.163331 0.00465077 0)
(-0.163464 0.00887303 0)
(-0.163598 0.013309 0)
(-0.163717 0.0180528 0)
(-0.163794 0.0232051 0)
(-0.163793 0.0288733 0)
(-0.163657 0.0351726 0)
(-0.16331 0.0422239 0)
(-0.162648 0.0501502 0)
(-0.161531 0.0590678 0)
(-0.159776 0.0690716 0)
(-0.157148 0.0802092 0)
(-0.153355 0.092443 0)
(-0.148054 0.105595 0)
(-0.140859 0.119277 0)
(-0.131381 0.132802 0)
(-0.119286 0.145103 0)
(-0.104394 0.154664 0)
(-0.0868142 0.159504 0)
(-0.0671079 0.157263 0)
(-0.0464139 0.145405 0)
(-0.0265053 0.121567 0)
(-0.0101786 0.0840097 0)
(-0.00167409 0.0322692 0)
(-0.00129911 -0.0267595 0)
(-0.00801003 -0.0697191 0)
(-0.0210949 -0.10133 0)
(-0.037413 -0.122091 0)
(-0.0548842 -0.133361 0)
(-0.0721308 -0.136911 0)
(-0.0881846 -0.134628 0)
(-0.102475 -0.128278 0)
(-0.114766 -0.119368 0)
(-0.125054 -0.109086 0)
(-0.13348 -0.0983021 0)
(-0.140262 -0.0876101 0)
(-0.145646 -0.0773818 0)
(-0.149872 -0.0678241 0)
(-0.153159 -0.0590282 0)
(-0.155699 -0.0510088 0)
(-0.157651 -0.0437329 0)
(-0.159144 -0.0371399 0)
(-0.160284 -0.0311542 0)
(-0.161151 -0.0256939 0)
(-0.161809 -0.0206751 0)
(-0.162307 -0.0160144 0)
(-0.16268 -0.0116301 0)
(-0.162956 -0.00744244 0)
(-0.16315 -0.00337288 0)
(-0.163273 0.000656378 0)
(-0.163329 0.00472342 0)
(-0.163311 0.00890762 0)
(-0.163209 0.0132907 0)
(-0.163002 0.0179576 0)
(-0.162658 0.0229973 0)
(-0.162134 0.0285024 0)
(-0.161369 0.0345693 0)
(-0.160281 0.0412947 0)
(-0.158766 0.0487717 0)
(-0.156686 0.0570803 0)
(-0.153869 0.0662729 0)
(-0.150105 0.0763516 0)
(-0.145145 0.0872347 0)
(-0.138709 0.098712 0)
(-0.130504 0.110388 0)
(-0.120262 0.12162 0)
(-0.107794 0.131456 0)
(-0.0930697 0.1386 0)
(-0.0763257 0.141415 0)
(-0.0581751 0.13801 0)
(-0.0396809 0.126411 0)
(-0.0223598 0.104827 0)
(-0.00847065 0.0719723 0)
(-0.00136591 0.0275176 0)
(-0.00109326 -0.0229763 0)
(-0.0068304 -0.0600388 0)
(-0.0181613 -0.0876564 0)
(-0.0325274 -0.106235 0)
(-0.0482167 -0.116836 0)
(-0.0640519 -0.120853 0)
(-0.0791558 -0.119789 0)
(-0.0929625 -0.115078 0)
(-0.105182 -0.10797 0)
(-0.115729 -0.0994713 0)
(-0.124656 -0.0903401 0)
(-0.132098 -0.0811117 0)
(-0.138229 -0.072138 0)
(-0.143235 -0.0636296 0)
(-0.147295 -0.0556957 0)
(-0.150569 -0.0483748 0)
(-0.153199 -0.0416596 0)
(-0.155303 -0.0355139 0)
(-0.156978 -0.0298839 0)
(-0.158304 -0.0247067 0)
(-0.159344 -0.0199143 0)
(-0.160146 -0.0154368 0)
(-0.160749 -0.0112037 0)
(-0.161179 -0.00714473 0)
(-0.161454 -0.00318991 0)
(-0.161584 0.000730854 0)
(-0.161571 0.0046881 0)
(-0.161411 0.00875339 0)
(-0.161088 0.0129998 0)
(-0.160579 0.0175023 0)
(-0.159851 0.0223378 0)
(-0.158856 0.0275847 0)
(-0.157533 0.0333213 0)
(-0.1558 0.0396231 0)
(-0.153556 0.0465574 0)
(-0.150674 0.0541749 0)
(-0.146999 0.0624961 0)
(-0.142351 0.0714916 0)
(-0.136525 0.0810543 0)
(-0.129302 0.0909633 0)
(-0.120472 0.10084 0)
(-0.109863 0.110101 0)
(-0.0973942 0.117918 0)
(-0.0831375 0.123199 0)
(-0.067396 0.124599 0)
(-0.050783 0.1206 0)
(-0.0342578 0.109651 0)
(-0.0191056 0.0903638 0)
(-0.00716572 0.0617501 0)
(-0.00113954 0.0235398 0)
(-0.000940299 -0.0197252 0)
(-0.00592644 -0.0516403 0)
(-0.0158665 -0.0756444 0)
(-0.0286308 -0.0920883 0)
(-0.0427906 -0.101823 0)
(-0.0573383 -0.105963 0)
(-0.0714896 -0.105717 0)
(-0.0847048 -0.102255 0)
(-0.0966712 -0.0966057 0)
(-0.107253 -0.0896165 0)
(-0.116439 -0.0819379 0)
(-0.124302 -0.0740416 0)
(-0.130957 -0.0662487 0)
(-0.136542 -0.0587623 0)
(-0.141198 -0.0516976 0)
(-0.145058 -0.0451074 0)
(-0.148241 -0.0390019 0)
(-0.150852 -0.033363 0)
(-0.15298 -0.0281546 0)
(-0.154699 -0.0233295 0)
(-0.156068 -0.0188338 0)
(-0.157135 -0.01461 0)
(-0.157937 -0.0105983 0)
(-0.1585 -0.00673813 0)
(-0.158843 -0.00296802 0)
(-0.158975 0.000773906 0)
(-0.158898 0.00455013 0)
(-0.158604 0.00842391 0)
(-0.15808 0.0124593 0)
(-0.1573 0.0167212 0)
(-0.15623 0.021275 0)
(-0.154822 0.0261854 0)
(-0.153016 0.0315148 0)
(-0.150734 0.0373203 0)
(-0.147883 0.0436484 0)
(-0.144349 0.0505272 0)
(-0.139998 0.0579548 0)
(-0.13468 0.0658824 0)
(-0.128231 0.0741914 0)
(-0.12049 0.0826653 0)
(-0.111311 0.0909557 0)
(-0.1006 0.0985483 0)
(-0.0883525 0.104734 0)
(-0.0747029 0.108601 0)
(-0.0599845 0.109049 0)
(-0.044782 0.104855 0)
(-0.0299479 0.0947857 0)
(-0.0165716 0.077745 0)
(-0.00617123 0.0529473 0)
(-0.000972556 0.0201483 0)
(-0.000825819 -0.0168802 0)
(-0.00523303 -0.0442432 0)
(-0.0140774 -0.0649652 0)
(-0.0255454 -0.0793579 0)
(-0.0384243 -0.0881171 0)
(-0.051845 -0.0921446 0)
(-0.0651086 -0.0924206 0)
(-0.0777109 -0.0898975 0)
(-0.0893352 -0.0854242 0)
(-0.099816 -0.079706 0)
(-0.1091 -0.0732946 0)
(-0.117211 -0.0665977 0)
(-0.12422 -0.0599008 0)
(-0.130226 -0.0533914 0)
(-0.135334 -0.0471828 0)
(-0.139652 -0.0413344 0)
(-0.14328 -0.0358672 0)
(-0.146306 -0.0307762 0)
(-0.148811 -0.0260386 0)
(-0.15086 -0.0216203 0)
(-0.152508 -0.0174791 0)
(-0.153801 -0.0135686 0)
(-0.154773 -0.00983909 0)
(-0.15545 -0.00623891 0)
(-0.15585 -0.00271528 0)
(-0.15598 0.000785472 0)
(-0.155843 0.00431767 0)
(-0.155431 0.00793617 0)
(-0.154728 0.0116961 0)
(-0.15371 0.0156527 0)
(-0.152342 0.0198603 0)
(-0.150579 0.0243715 0)
(-0.148363 0.0292349 0)
(-0.145625 0.0344925 0)
(-0.142278 0.0401746 0)
(-0.138225 0.0462928 0)
(-0.133352 0.0528307 0)
(-0.127538 0.0597291 0)
(-0.120659 0.0668689 0)
(-0.112596 0.0740476 0)
(-0.10326 0.0809547 0)
(-0.0926128 0.0871455 0)
(-0.0807008 0.0920223 0)
(-0.0676964 0.0948285 0)
(-0.053939 0.0946667 0)
(-0.0399731 0.0905496 0)
(-0.0265525 0.0814869 0)
(-0.0146076 0.0665996 0)
(-0.00541355 0.0452474 0)
(-0.000848648 0.0172011 0)
(-0.000739511 -0.0143457 0)
(-0.00470023 -0.0376265 0)
(-0.0126851 -0.0553464 0)
(-0.0231146 -0.0677839 0)
(-0.0349395 -0.0755136 0)
(-0.0474015 -0.0792698 0)
(-0.0598752 -0.0798491 0)
(-0.071894 -0.0780277 0)
(-0.0831472 -0.0745013 0)
(-0.0934542 -0.0698532 0)
(-0.102733 -0.064545 0)
(-0.110974 -0.0589234 0)
(-0.118213 -0.0532362 0)
(-0.124516 -0.0476508 0)
(-0.129962 -0.0422734 0)
(-0.134633 -0.0371639 0)
(-0.138612 -0.0323493 0)
(-0.141973 -0.0278331 0)
(-0.144786 -0.0236025 0)
(-0.147108 -0.0196332 0)
(-0.14899 -0.0158932 0)
(-0.150472 -0.0123456 0)
(-0.151588 -0.00894952 0)
(-0.152361 -0.00566198 0)
(-0.152806 -0.00243834 0)
(-0.152933 0.000767078 0)
(-0.152742 0.00400063 0)
(-0.152225 0.00730899 0)
(-0.151367 0.0107388 0)
(-0.150144 0.014336 0)
(-0.148523 0.0181451 0)
(-0.146461 0.022208 0)
(-0.143906 0.026562 0)
(-0.140794 0.0312368 0)
(-0.13705 0.0362505 0)
(-0.132591 0.0416039 0)
(-0.127324 0.0472718 0)
(-0.121154 0.0531924 0)
(-0.113987 0.0592524 0)
(-0.105743 0.06527 0)
(-0.0963748 0.0709749 0)
(-0.0858837 0.0759902 0)
(-0.0743514 0.0798179 0)
(-0.061969 0.081836 0)
(-0.0490696 0.0813149 0)
(-0.0361548 0.0774564 0)
(-0.0238933 0.0694622 0)
(-0.0130892 0.0566201 0)
(-0.00483565 0.0384014 0)
(-0.000756069 0.0145911 0)
(-0.000674069 -0.0120495 0)
(-0.00429054 -0.0316167 0)
(-0.0116042 -0.0465659 0)
(-0.0212091 -0.0571429 0)
(-0.0321794 -0.063822 0)
(-0.0438435 -0.0672011 0)
(-0.0556377 -0.0679255 0)
(-0.06713 -0.0666245 0)
(-0.0780211 -0.0638638 0)
(-0.0881238 -0.0601207 0)
(-0.0973384 -0.0557759 0)
(-0.10563 -0.051119 0)
(-0.113011 -0.0463602 0)
(-0.119519 -0.0416447 0)
(-0.125211 -0.0370677 0)
(-0.13015 -0.0326859 0)
(-0.134403 -0.0285283 0)
(-0.13803 -0.0246034 0)
(-0.14109 -0.0209051 0)
(-0.143635 -0.0174171 0)
(-0.145708 -0.0141155 0)
(-0.147347 -0.0109711 0)
(-0.148582 -0.00795131 0)
(-0.149433 -0.00502082 0)
(-0.149916 -0.00214265 0)
(-0.150039 0.000721306 0)
(-0.149801 0.00360978 0)
(-0.149194 0.00656169 0)
(-0.148205 0.00961563 0)
(-0.146809 0.0128092 0)
(-0.144977 0.0161783 0)
(-0.142668 0.0197554 0)
(-0.139836 0.0235686 0)
(-0.136424 0.0276382 0)
(-0.132368 0.0319739 0)
(-0.127598 0.0365693 0)
(-0.122039 0.041396 0)
(-0.115618 0.0463939 0)
(-0.108268 0.0514606 0)
(-0.099939 0.0564378 0)
(-0.0906131 0.0610964 0)
(-0.0803215 0.0651223 0)
(-0.0691673 0.0681065 0)
(-0.0573498 0.0695433 0)
(-0.0451892 0.068843 0)
(-0.0331471 0.0653631 0)
(-0.0218215 0.0584603 0)
(-0.0119183 0.0475569 0)
(-0.00439452 0.0322153 0)
(-0.00068647 0.0122379 0)
(-0.000624375 -0.00993604 0)
(-0.0039764 -0.0260773 0)
(-0.0107694 -0.0384433 0)
(-0.0197266 -0.0472458 0)
(-0.0300145 -0.0528722 0)
(-0.0410285 -0.0558045 0)
(-0.0522546 -0.0565602 0)
(-0.0632913 -0.055643 0)
(-0.0738521 -0.0535069 0)
(-0.0837482 -0.050536 0)
(-0.0928693 -0.0470388 0)
(-0.101164 -0.0432518 0)
(-0.108625 -0.0393487 0)
(-0.11527 -0.0354519 0)
(-0.121139 -0.0316432 0)
(-0.126279 -0.0279736 0)
(-0.13074 -0.0244711 0)
(-0.134574 -0.0211466 0)
(-0.13783 -0.0179984 0)
(-0.140553 -0.0150158 0)
(-0.14278 -0.0121813 0)
(-0.144546 -0.00947272 0)
(-0.145877 -0.00686417 0)
(-0.146792 -0.00432745 0)
(-0.147305 -0.00183261 0)
(-0.147423 0.000651384 0)
(-0.147145 0.00315613 0)
(-0.146464 0.0057133 0)
(-0.145365 0.00835411 0)
(-0.143827 0.0111087 0)
(-0.141823 0.0140051 0)
(-0.139315 0.0170683 0)
(-0.136262 0.0203189 0)
(-0.132614 0.0237702 0)
(-0.128317 0.0274262 0)
(-0.123313 0.031277 0)
(-0.117542 0.0352941 0)
(-0.11095 0.039423 0)
(-0.10349 0.0435748 0)
(-0.0951362 0.0476162 0)
(-0.0858922 0.0513579 0)
(-0.0758095 0.054544 0)
(-0.0650041 0.0568445 0)
(-0.0536769 0.0578546 0)
(-0.0421336 0.0571037 0)
(-0.0308006 0.0540801 0)
(-0.0202191 0.0482699 0)
(-0.0110197 0.0392085 0)
(-0.00405852 0.0265371 0)
(-0.000634014 0.0100803 0)
(-0.00058688 -0.00796216 0)
(-0.00373789 -0.0208996 0)
(-0.0101325 -0.0308312 0)
(-0.018589 -0.0379331 0)
(-0.0283427 -0.0425143 0)
(-0.0388397 -0.0449547 0)
(-0.0496052 -0.0456603 0)
(-0.0602629 -0.0450256 0)
(-0.0705384 -0.043406 0)
(-0.0802444 -0.0411031 0)
(-0.0892642 -0.0383599 0)
(-0.0975355 -0.0353641 0)
(-0.105036 -0.0322548 0)
(-0.111771 -0.029131 0)
(-0.117763 -0.0260604 0)
(-0.123049 -0.0230863 0)
(-0.127667 -0.0202336 0)
(-0.131659 -0.0175136 0)
(-0.135066 -0.0149272 0)
(-0.137928 -0.0124676 0)
(-0.140277 -0.0101225 0)
(-0.142143 -0.00787512 0)
(-0.143549 -0.00570578 0)
(-0.144515 -0.00359251 0)
(-0.145052 -0.00151178 0)
(-0.145165 0.000560899 0)
(-0.144854 0.0026505 0)
(-0.144112 0.00478201 0)
(-0.142925 0.00697991 0)
(-0.141274 0.00926757 0)
(-0.139132 0.0116665 0)
(-0.136467 0.0141953 0)
(-0.133242 0.0168684 0)
(-0.129413 0.0196946 0)
(-0.124934 0.0226742 0)
(-0.119758 0.0257963 0)
(-0.113837 0.0290349 0)
(-0.107131 0.0323432 0)
(-0.0996113 0.0356478 0)
(-0.0912671 0.0388404 0)
(-0.0821194 0.0417697 0)
(-0.0722326 0.0442333 0)
(-0.0617303 0.0459721 0)
(-0.0508116 0.0466697 0)
(-0.0397682 0.0459591 0)
(-0.0289972 0.0434413 0)
(-0.0189957 0.0387142 0)
(-0.0103378 0.031412 0)
(-0.00380487 0.0212473 0)
(-0.000594677 0.00807099 0)
(-0.000559153 -0.00609325 0)
(-0.00356084 -0.0159951 0)
(-0.00965803 -0.0236076 0)
(-0.0177382 -0.0290694 0)
(-0.0270864 -0.0326165 0)
(-0.0371864 -0.0345363 0)
(-0.0475928 -0.0351348 0)
(-0.0579494 -0.0347084 0)
(-0.067992 -0.0335244 0)
(-0.077536 -0.0318096 0)
(-0.0864613 -0.0297475 0)
(-0.0946981 -0.0274803 0)
(-0.102214 -0.0251139 0)
(-0.109004 -0.0227248 0)
(-0.115082 -0.0203658 0)
(-0.12047 -0.0180712 0)
(-0.125202 -0.0158617 0)
(-0.129311 -0.0137474 0)
(-0.132832 -0.0117302 0)
(-0.135798 -0.00980625 0)
(-0.138239 -0.00796695 0)
(-0.140181 -0.00620035 0)
(-0.141646 -0.00449195 0)
(-0.14265 -0.00282539 0)
(-0.143204 -0.00118303 0)
(-0.143313 0.000453592 0)
(-0.142977 0.00210331 0)
(-0.142187 0.00378495 0)
(-0.140932 0.00551685 0)
(-0.139194 0.00731637 0)
(-0.136947 0.00919927 0)
(-0.134163 0.0111789 0)
(-0.130808 0.0132652 0)
(-0.126844 0.0154633 0)
(-0.122232 0.017772 0)
(-0.116932 0.0201812 0)
(-0.110908 0.022669 0)
(-0.10413 0.0251982 0)
(-0.096581 0.0277111 0)
(-0.0882631 0.0301245 0)
(-0.0792085 0.032323 0)
(-0.0694905 0.0341537 0)
(-0.0592364 0.0354217 0)
(-0.0486425 0.0358895 0)
(-0.0379881 0.0352825 0)
(-0.0276476 0.0333014 0)
(-0.0180848 0.029644 0)
(-0.00983212 0.0240333 0)
(-0.00361746 0.0162493 0)
(-0.000565725 0.00617274 0)
(-0.000539557 -0.00430079 0)
(-0.00343545 -0.0112903 0)
(-0.00932125 -0.0166692 0)
(-0.0171325 -0.0205375 0)
(-0.026189 -0.0230617 0)
(-0.0360008 -0.0244432 0)
(-0.0461438 -0.0248954 0)
(-0.0562763 -0.024625 0)
(-0.0661424 -0.0238182 0)
(-0.07556 -0.022633 0)
(-0.0844074 -0.0211975 0)
(-0.0926099 -0.0196112 0)
(-0.100129 -0.0179486 0)
(-0.106952 -0.0162639 0)
(-0.113084 -0.0145948 0)
(-0.118543 -0.0129662 0)
(-0.123353 -0.0113935 0)
(-0.127544 -0.00988433 0)
(-0.131146 -0.008441 0)
(-0.134186 -0.00706128 0)
(-0.136693 -0.00573967 0)
(-0.13869 -0.00446816 0)
(-0.140197 -0.00323683 0)
(-0.141229 -0.00203442 0)
(-0.141796 -0.000848678 0)
(-0.141902 0.000333246 0)
(-0.141546 0.00152448 0)
(-0.140722 0.00273812 0)
(-0.139417 0.00398688 0)
(-0.137615 0.00528272 0)
(-0.135292 0.00663637 0)
(-0.132422 0.00805675 0)
(-0.128975 0.00955025 0)
(-0.124916 0.0111198 0)
(-0.120211 0.0127636 0)
(-0.114828 0.0144736 0)
(-0.108736 0.0162336 0)
(-0.101914 0.0180164 0)
(-0.0943527 0.0197808 0)
(-0.0860644 0.0214678 0)
(-0.0770882 0.0229964 0)
(-0.0675026 0.0242598 0)
(-0.0574371 0.0251222 0)
(-0.0470847 0.0254186 0)
(-0.0367153 0.0249581 0)
(-0.0266866 0.0235325 0)
(-0.0174385 0.0209312 0)
(-0.00947444 0.0169602 0)
(-0.00348519 0.0114638 0)
(-0.000545332 0.00435501 0)
(-0.000527022 -0.00256035 0)
(-0.00335516 -0.00672145 0)
(-0.0091053 -0.0099258 0)
(-0.0167434 -0.0122337 0)
(-0.0256111 -0.0137442 0)
(-0.0352354 -0.0145768 0)
(-0.0452056 -0.0148575 0)
(-0.0551898 -0.0147084 0)
(-0.0649376 -0.0142394 0)
(-0.0742689 -0.0135438 0)
(-0.0830612 -0.0126972 0)
(-0.0912371 -0.0117585 0)
(-0.0987539 -0.010772 0)
(-0.105595 -0.00976998 0)
(-0.111759 -0.00877494 0)
(-0.117262 -0.00780205 0)
(-0.122122 -0.00686069 0)
(-0.126365 -0.00595579 0)
(-0.130017 -0.00508892 0)
(-0.133106 -0.00425903 0)
(-0.135655 -0.00346303 0)
(-0.137688 -0.00269635 0)
(-0.139222 -0.00195322 0)
(-0.140272 -0.00122705 0)
(-0.140847 -0.000510621 0)
(-0.14095 0.000203628 0)
(-0.140582 0.00092344 0)
(-0.139735 0.00165653 0)
(-0.138398 0.00241037 0)
(-0.136554 0.00319196 0)
(-0.134182 0.00400751 0)
(-0.131257 0.00486214 0)
(-0.12775 0.0057594 0)
(-0.123631 0.00670073 0)
(-0.118868 0.00768475 0)
(-0.113433 0.00870632 0)
(-0.107299 0.00975539 0)
(-0.100453 0.0108155 0)
(-0.0928888 0.011862 0)
(-0.0846247 0.0128596 0)
(-0.0757044 0.0137604 0)
(-0.0662097 0.0145012 0)