/*--------------------------------*- C++ -*----------------------------------*\
  =========                 |
  \\      /  F ield         | OpenFOAM: The Open Source CFD Toolbox
   \\    /   O peration     | Website:  https://openfoam.org
    \\  /    A nd           | Version:  7
     \\/     M anipulation  |
\*---------------------------------------------------------------------------*/
FoamFile
{
    version     2.0;
    format      ascii;
    class       volVectorField;
    location    "0.0506";
    object      U;
}
// * * * * * * * * * * * * * * * * * * * * * * * * * * * * * * * * * * * * * //

dimensions      [0 1 -1 0 0 0 0];

internalField   nonuniform List<vector> 
2500
(
(-0.293802 0.153723 0)
(-0.397939 0.128722 0)
(-0.577976 0.0737922 0)
(-0.696262 0.0408736 0)
(-0.76524 0.0233925 0)
(-0.809564 0.0141392 0)
(-0.840141 0.00915377 0)
(-0.862219 0.00634619 0)
(-0.87883 0.00465766 0)
(-0.89176 0.00356825 0)
(-0.902082 0.00281983 0)
(-0.910476 0.0022784 0)
(-0.917396 0.00187016 0)
(-0.923154 0.0015518 0)
(-0.927976 0.00129635 0)
(-0.932023 0.00108617 0)
(-0.935417 0.000909168 0)
(-0.938249 0.000756795 0)
(-0.940588 0.000622816 0)
(-0.942484 0.00050256 0)
(-0.943977 0.00039244 0)
(-0.945096 0.000289632 0)
(-0.945861 0.000191845 0)
(-0.946286 9.71651e-05 0)
(-0.946379 3.9324e-06 0)
(-0.946143 -8.93938e-05 0)
(-0.945574 -0.000184246 0)
(-0.944666 -0.00028209 0)
(-0.943407 -0.000384496 0)
(-0.941779 -0.000493241 0)
(-0.939757 -0.000610433 0)
(-0.937312 -0.000738677 0)
(-0.9344 -0.000881314 0)
(-0.930971 -0.00104275 0)
(-0.926954 -0.00122898 0)
(-0.922261 -0.00144836 0)
(-0.916772 -0.00171293 0)
(-0.910327 -0.00204068 0)
(-0.902705 -0.00245964 0)
(-0.893596 -0.00301578 0)
(-0.882546 -0.0037887 0)
(-0.868873 -0.00492391 0)
(-0.85149 -0.00670018 0)
(-0.828595 -0.00966877 0)
(-0.797174 -0.014917 0)
(-0.752079 -0.0244988 0)
(-0.682565 -0.0421489 0)
(-0.564944 -0.0746178 0)
(-0.389315 -0.128126 0)
(-0.290206 -0.152371 0)
(-0.00516156 0.30291 0)
(-0.0270636 0.307344 0)
(-0.171326 0.217786 0)
(-0.308187 0.146571 0)
(-0.417091 0.0991956 0)
(-0.502307 0.0689335 0)
(-0.568674 0.0496794 0)
(-0.6206 0.0371359 0)
(-0.661765 0.0286492 0)
(-0.694894 0.0226714 0)
(-0.721923 0.0183005 0)
(-0.744231 0.0149969 0)
(-0.762808 0.0124264 0)
(-0.778378 0.0103741 0)
(-0.791477 0.00869697 0)
(-0.802504 0.00729627 0)
(-0.811764 0.00610213 0)
(-0.819487 0.00506367 0)
(-0.825851 0.00414299 0)
(-0.83099 0.00331119 0)
(-0.835008 0.00254576 0)
(-0.837981 0.00182872 0)
(-0.839965 0.00114535 0)
(-0.840996 0.000483207 0)
(-0.841096 -0.000168612 0)
(-0.840274 -0.000820084 0)
(-0.838525 -0.00148076 0)
(-0.83583 -0.0021603 0)
(-0.832159 -0.00286901 0)
(-0.827467 -0.00361847 0)
(-0.821691 -0.00442223 0)
(-0.814751 -0.00529689 0)
(-0.806542 -0.00626334 0)
(-0.79693 -0.00734867 0)
(-0.785743 -0.00858888 0)
(-0.772756 -0.0100329 0)
(-0.757681 -0.0117488 0)
(-0.740136 -0.0138337 0)
(-0.719611 -0.0164299 0)
(-0.69542 -0.0197526 0)
(-0.666624 -0.0241376 0)
(-0.631922 -0.0301257 0)
(-0.589503 -0.0386127 0)
(-0.536845 -0.0511103 0)
(-0.470633 -0.0701456 0)
(-0.387013 -0.099665 0)
(-0.2818 -0.145088 0)
(-0.151506 -0.212609 0)
(-0.016439 -0.298188 0)
(-0.000985384 -0.294673 0)
(0.0321109 0.264058 0)
(0.0563669 0.362339 0)
(-0.00363394 0.324962 0)
(-0.0958813 0.260507 0)
(-0.192234 0.200835 0)
(-0.280995 0.15379 0)
(-0.358049 0.118847 0)
(-0.423181 0.0932516 0)
(-0.477748 0.0743701 0)
(-0.52343 0.0602139 0)
(-0.56178 0.0493875 0)
(-0.594099 0.0409329 0)
(-0.621433 0.0341926 0)
(-0.644608 0.0287102 0)
(-0.66427 0.0241637 0)
(-0.680926 0.0203219 0)
(-0.694971 0.0170153 0)
(-0.706716 0.0141175 0)
(-0.716403 0.0115324 0)
(-0.724221 0.00918555 0)
(-0.730315 0.00701809 0)
(-0.734795 0.00498257 0)
(-0.737742 0.00303973 0)
(-0.739211 0.00115615 0)
(-0.739235 -0.000697586 0)
(-0.737829 -0.00254842 0)
(-0.734987 -0.0044222 0)
(-0.730686 -0.00634496 0)
(-0.724886 -0.0083443 0)
(-0.717525 -0.0104509 0)
(-0.70852 -0.0127004 0)
(-0.697761 -0.0151358 0)
(-0.685111 -0.0178103 0)
(-0.670393 -0.0207921 0)
(-0.653384 -0.0241696 0)
(-0.633804 -0.0280605 0)
(-0.611298 -0.0326235 0)
(-0.585418 -0.0380768 0)
(-0.555595 -0.0447254 0)
(-0.521109 -0.0530016 0)
(-0.481062 -0.0635264 0)
(-0.434356 -0.0771973 0)
(-0.379719 -0.0953041 0)
(-0.315852 -0.119652 0)
(-0.241885 -0.152576 0)
(-0.15851 -0.196396 0)
(-0.0700379 -0.251279 0)
(0.0122264 -0.309896 0)
(0.0620161 -0.343222 0)
(0.0330334 -0.249903 0)
(0.0271465 0.20526 0)
(0.0637206 0.357866 0)
(0.0550606 0.375724 0)
(0.00772567 0.338607 0)
(-0.0598984 0.28599 0)
(-0.133481 0.235146 0)
(-0.204867 0.191835 0)
(-0.27028 0.156747 0)
(-0.328454 0.128829 0)
(-0.37938 0.106664 0)
(-0.4236 0.0889555 0)
(-0.461835 0.0746535 0)
(-0.494815 0.0629486 0)
(-0.523202 0.053229 0)
(-0.547568 0.0450341 0)
(-0.568391 0.038016 0)
(-0.586067 0.0319097 0)
(-0.600919 0.026511 0)
(-0.613206 0.0216608 0)
(-0.623138 0.0172333 0)
(-0.630877 0.0131273 0)
(-0.63655 0.00926002 0)
(-0.640251 0.00556224 0)
(-0.642048 0.00197456 0)
(-0.641982 -0.0015556 0)
(-0.640072 -0.00507647 0)
(-0.636317 -0.00863425 0)
(-0.630695 -0.0122752 0)
(-0.623164 -0.0160479 0)
(-0.61366 -0.0200058 0)
(-0.602097 -0.02421 0)
(-0.588362 -0.028733 0)
(-0.572314 -0.033663 0)
(-0.553777 -0.0391103 0)
(-0.532535 -0.045215 0)
(-0.508326 -0.0521577 0)
(-0.480836 -0.0601742 0)
(-0.449689 -0.069575 0)
(-0.414448 -0.080771 0)
(-0.374625 -0.0943066 0)
(-0.329711 -0.110897 0)
(-0.279255 -0.13146 0)
(-0.223038 -0.157106 0)
(-0.161412 -0.189015 0)
(-0.0959283 -0.227985 0)
(-0.0303885 -0.2732 0)
(0.0275593 -0.319303 0)
(0.0649195 -0.350726 0)
(0.0657295 -0.331902 0)
(0.0268704 -0.189906 0)
(0.0184473 0.163501 0)
(0.0530464 0.331698 0)
(0.0683582 0.387207 0)
(0.0525338 0.380015 0)
(0.0127389 0.344429 0)
(-0.0403059 0.300018 0)
(-0.098437 0.256339 0)
(-0.156451 0.217239 0)
(-0.21141 0.183719 0)
(-0.261888 0.155531 0)
(-0.307373 0.131973 0)
(-0.347856 0.112255 0)
(-0.383574 0.0956505 0)
(-0.41487 0.0815409 0)
(-0.442112 0.0694199 0)
(-0.465652 0.0588796 0)
(-0.485807 0.0495932 0)
(-0.502853 0.041299 0)
(-0.517026 0.0337865 0)
(-0.528521 0.0268843 0)
(-0.537495 0.0204522 0)
(-0.544075 0.014373 0)
(-0.548358 0.00854761 0)
(-0.550413 0.00289004 0)
(-0.550288 -0.00267627 0)
(-0.548006 -0.0082217 0)
(-0.543574 -0.0138135 0)
(-0.536974 -0.0195184 0)
(-0.528173 -0.025406 0)
(-0.517118 -0.0315513 0)
(-0.503734 -0.0380389 0)
(-0.487928 -0.0449667 0)
(-0.469584 -0.0524516 0)
(-0.448561 -0.0606354 0)
(-0.424699 -0.069693 0)
(-0.397811 -0.0798423 0)
(-0.367696 -0.0913555 0)
(-0.334141 -0.104572 0)
(-0.296952 -0.119913 0)
(-0.255988 -0.137888 0)
(-0.211243 -0.159088 0)
(-0.162972 -0.184139 0)
(-0.111916 -0.213567 0)
(-0.0596462 -0.247471 0)
(-0.00904389 -0.28484 0)
(0.0351197 -0.322186 0)
(0.0656673 -0.351088 0)
(0.0734591 -0.354389 0)
(0.0532053 -0.301782 0)
(0.0179116 -0.148326 0)
(0.0119443 0.13474 0)
(0.0407448 0.300825 0)
(0.0650547 0.378402 0)
(0.0680912 0.396129 0)
(0.0496452 0.379634 0)
(0.0157742 0.34673 0)
(-0.0272544 0.308187 0)
(-0.0744412 0.269798 0)
(-0.122266 0.234276 0)
(-0.168492 0.202609 0)
(-0.211829 0.174895 0)
(-0.251625 0.150825 0)
(-0.287622 0.129937 0)
(-0.319796 0.111746 0)
(-0.348254 0.0957982 0)
(-0.373162 0.0816967 0)
(-0.394709 0.0691004 0)
(-0.413084 0.0577223 0)
(-0.428461 0.0473218 0)
(-0.440996 0.0376972 0)
(-0.450822 0.0286783 0)
(-0.458049 0.0201204 0)
(-0.462763 0.0118988 0)
(-0.465034 0.00390419 0)
(-0.464908 -0.00396164 0)
(-0.462413 -0.0117891 0)
(-0.457561 -0.0196644 0)
(-0.450349 -0.0276722 0)
(-0.440757 -0.0358998 0)
(-0.42875 -0.0444394 0)
(-0.414281 -0.0533928 0)
(-0.397291 -0.062875 0)
(-0.37771 -0.0730191 0)
(-0.355459 -0.0839817 0)
(-0.330458 -0.0959485 0)
(-0.302634 -0.109141 0)
(-0.27193 -0.12382 0)
(-0.238336 -0.140289 0)
(-0.201921 -0.158891 0)
(-0.162893 -0.179982 0)
(-0.121691 -0.203888 0)
(-0.0791151 -0.230786 0)
(-0.0365187 -0.260495 0)
(0.00395735 -0.292074 0)
(0.0391467 -0.323122 0)
(0.0647596 -0.348654 0)
(0.0756263 -0.359487 0)
(0.0670066 -0.340374 0)
(0.0401058 -0.269051 0)
(0.0114453 -0.120056 0)
(0.00785727 0.114249 0)
(0.0309766 0.271676 0)
(0.0570838 0.360567 0)
(0.0701289 0.396499 0)
(0.066237 0.397198 0)
(0.0477613 0.377191 0)
(0.0186777 0.346729 0)
(-0.0170387 0.312337 0)
(-0.0560633 0.277802 0)
(-0.0959167 0.245098 0)
(-0.134896 0.215096 0)
(-0.171904 0.188031 0)
(-0.206288 0.163804 0)
(-0.237693 0.142157 0)
(-0.265964 0.122771 0)
(-0.291066 0.105323 0)
(-0.313038 0.0895055 0)
(-0.331957 0.0750435 0)
(-0.347916 0.0616929 0)
(-0.361013 0.0492406 0)
(-0.371338 0.037501 0)
(-0.378975 0.0263123 0)
(-0.383994 0.0155323 0)
(-0.386451 0.00503419 0)
(-0.386391 -0.00529649 0)
(-0.383846 -0.0155657 0)
(-0.378834 -0.0258738 0)
(-0.371364 -0.036319 0)
(-0.361437 -0.0470002 0)
(-0.349043 -0.0580204 0)
(-0.334171 -0.0694896 0)
(-0.316804 -0.0815287 0)
(-0.296929 -0.0942726 0)
(-0.274543 -0.107873 0)
(-0.249658 -0.122503 0)
(-0.22232 -0.138353 0)
(-0.192625 -0.155633 0)
(-0.160752 -0.17456 0)
(-0.127002 -0.195336 0)
(-0.0918593 -0.218104 0)
(-0.056073 -0.242865 0)
(-0.0207571 -0.269337 0)
(0.012489 -0.296718 0)
(0.0414752 -0.323299 0)
(0.0634018 -0.345899 0)
(0.0750675 -0.359097 0)
(0.0734434 -0.354376 0)
(0.0570383 -0.319543 0)
(0.0299897 -0.23939 0)
(0.00744037 -0.100189 0)
(0.00540929 0.0991947 0)
(0.0239512 0.246055 0)
(0.0488154 0.339512 0)
(0.066485 0.387685 0)
(0.0717816 0.40232 0)
(0.0646715 0.39452 0)
(0.0471719 0.373166 0)
(0.0220286 0.344651 0)
(-0.00803056 0.313219 0)
(-0.0406817 0.281478 0)
(-0.0741196 0.250901 0)
(-0.107026 0.222225 0)
(-0.138487 0.195728 0)
(-0.167899 0.17142 0)
(-0.194884 0.149169 0)
(-0.219224 0.128768 0)
(-0.24081 0.109989 0)
(-0.2596 0.0925989 0)
(-0.275598 0.0763766 0)
(-0.288834 0.0611188 0)
(-0.299348 0.0466408 0)
(-0.307187 0.0327763 0)
(-0.312396 0.0193754 0)
(-0.315019 0.00630268 0)
(-0.315092 -0.00656585 0)
(-0.312647 -0.0193451 0)
(-0.307711 -0.0321437 0)
(-0.300306 -0.0450665 0)
(-0.290453 -0.0582174 0)
(-0.278171 -0.0717016 0)
(-0.263485 -0.0856281 0)
(-0.246428 -0.100112 0)
(-0.227045 -0.115275 0)
(-0.205405 -0.131248 0)
(-0.181614 -0.148166 0)
(-0.155827 -0.166169 0)
(-0.128273 -0.185384 0)
(-0.0992822 -0.205912 0)
(-0.0693274 -0.227788 0)
(-0.0390712 -0.250926 0)
(-0.00942391 -0.275023 0)
(0.0183959 -0.29941 0)
(0.0428148 -0.322835 0)
(0.0619053 -0.343155 0)
(0.0735056 -0.356933 0)
(0.0755592 -0.359 0)
(0.0667294 -0.342137 0)
(0.0474781 -0.297164 0)
(0.0227798 -0.214097 0)
(0.00505222 -0.0858139 0)
(0.00392424 0.0877293 0)
(0.0189847 0.224032 0)
(0.0415727 0.318099 0)
(0.0608542 0.373957 0)
(0.0715793 0.399186 0)
(0.0724001 0.401947 0)
(0.0639212 0.389504 0)
(0.0477785 0.367635 0)
(0.025984 0.340575 0)
(0.000493683 0.311229 0)
(-0.0270024 0.281466 0)
(-0.0551455 0.252414 0)
(-0.0828981 0.224685 0)
(-0.109499 0.198558 0)
(-0.134411 0.174099 0)
(-0.157267 0.151249 0)
(-0.177828 0.129881 0)
(-0.195944 0.109832 0)
(-0.211532 0.0909272 0)
(-0.224549 0.0729907 0)
(-0.234986 0.0558548 0)
(-0.242847 0.039362 0)
(-0.24815 0.0233659 0)
(-0.250919 0.0077314 0)
(-0.251182 -0.00766666 0)
(-0.248968 -0.0229448 0)
(-0.244311 -0.0382126 0)
(-0.237244 -0.0535747 0)
(-0.227808 -0.0691322 0)
(-0.216051 -0.0849843 0)
(-0.202032 -0.10123 0)
(-0.185829 -0.117966 0)
(-0.167544 -0.135292 0)
(-0.147311 -0.1533 0)
(-0.125313 -0.172078 0)
(-0.101796 -0.191693 0)
(-0.0770879 -0.212179 0)
(-0.0516252 -0.233511 0)
(-0.0259832 -0.255559 0)
(-0.000908193 -0.278029 0)
(0.0226502 -0.300369 0)
(0.0435192 -0.321635 0)
(0.0603112 -0.340317 0)
(0.0714931 -0.354114 0)
(0.0755682 -0.359691 0)
(0.0714297 -0.352485 0)
(0.0588804 -0.326693 0)
(0.0393672 -0.275648 0)
(0.0176917 -0.192944 0)
(0.00360232 -0.0750594 0)
(0.00298531 0.0786787 0)
(0.0154234 0.205156 0)
(0.035569 0.297634 0)
(0.0548724 0.35793 0)
(0.0685487 0.390853 0)
(0.0746541 0.402258 0)
(0.0728861 0.397874 0)
(0.0640128 0.382659 0)
(0.0493728 0.360556 0)
(0.0304815 0.334501 0)
(0.00879264 0.306566 0)
(-0.0144208 0.278138 0)
(-0.0381079 0.250092 0)
(-0.061438 0.22294 0)
(-0.0837762 0.196941 0)
(-0.104652 0.172188 0)
(-0.123724 0.148668 0)
(-0.140753 0.126304 0)
(-0.155578 0.104983 0)
(-0.168094 0.0845742 0)
(-0.178235 0.0649394 0)
(-0.185968 0.0459418 0)
(-0.191281 0.0274493 0)
(-0.194178 0.00933655 0)
(-0.194675 -0.00851445 0)
(-0.192796 -0.0262141 0)
(-0.188579 -0.0438659 0)
(-0.182067 -0.0615667 0)
(-0.173319 -0.0794077 0)
(-0.162405 -0.0974746 0)
(-0.149418 -0.115847 0)
(-0.134471 -0.134598 0)
(-0.117713 -0.153792 0)
(-0.0993324 -0.173476 0)
(-0.0795718 -0.19368 0)
(-0.05874 -0.214395 0)
(-0.0372299 -0.235558 0)
(-0.0155369 -0.257024 0)
(0.00572197 -0.278519 0)
(0.0257911 -0.299582 0)
(0.0437677 -0.319484 0)
(0.0586119 -0.337119 0)
(0.0691905 -0.350875 0)
(0.0743786 -0.358494 0)
(0.0732518 -0.356945 0)
(0.0653951 -0.342386 0)
(0.0512889 -0.310305 0)
(0.0327595 -0.255961 0)
(0.0140418 -0.175304 0)
(0.0026834 -0.0667484 0)
(0.00236018 0.0713179 0)
(0.012801 0.1889 0)
(0.0306637 0.27863 0)
(0.0491961 0.341139 0)
(0.0642478 0.379433 0)
(0.0737046 0.39765 0)
(0.0767429 0.400201 0)
(0.0735133 0.391199 0)
(0.0647958 0.374147 0)
(0.0516785 0.35184 0)
(0.0353318 0.326392 0)
(0.0168701 0.299331 0)
(-0.00271968 0.271714 0)
(-0.0226065 0.244234 0)
(-0.042116 0.217318 0)
(-0.0607165 0.191201 0)
(-0.0779993 0.165986 0)
(-0.0936576 0.14169 0)
(-0.107466 0.118269 0)
(-0.119265 0.0956487 0)
(-0.128943 0.073731 0)
(-0.13643 0.0524103 0)
(-0.141684 0.0315779 0)
(-0.144689 0.0111266 0)
(-0.145448 -0.00904647 0)
(-0.14398 -0.0290384 0)
(-0.140322 -0.0489395 0)
(-0.134525 -0.0688326 0)
(-0.126659 -0.0887922 0)
(-0.116816 -0.108884 0)
(-0.10511 -0.129163 0)
(-0.0916855 -0.14967 0)
(-0.0767256 -0.170429 0)
(-0.0604566 -0.191441 0)
(-0.04316 -0.212672 0)
(-0.0251832 -0.234038 0)
(-0.00695098 -0.255388 0)
(0.0110226 -0.276472 0)
(0.0281253 -0.296901 0)
(0.0436437 -0.316095 0)
(0.0567718 -0.333218 0)
(0.0666403 -0.347096 0)
(0.0723782 -0.356131 0)
(0.0732212 -0.358227 0)
(0.068686 -0.350746 0)
(0.0588148 -0.330549 0)
(0.0444385 -0.294202 0)
(0.0274261 -0.238375 0)
(0.0113543 -0.160543 0)
(0.00207062 -0.0601522 0)
(0.00192161 0.0651913 0)
(0.0108099 0.174803 0)
(0.0266406 0.261226 0)
(0.0440362 0.324461 0)
(0.0594808 0.366349 0)
(0.0709176 0.38978 0)
(0.0772648 0.398099 0)
(0.0782684 0.394641 0)
(0.0742812 0.382421 0)
(0.0660206 0.36399 0)
(0.0543752 0.341394 0)
(0.0402697 0.316204 0)
(0.0245808 0.28958 0)
(0.00809046 0.262345 0)
(-0.00853254 0.235057 0)
(-0.0247348 0.208076 0)
(-0.0400702 0.181612 0)
(-0.0541875 0.155774 0)
(-0.0668159 0.130593 0)
(-0.0777522 0.106053 0)
(-0.0868478 0.0821063 0)
(-0.0939994 0.0586848 0)
(-0.0991399 0.0357106 0)
(-0.102233 0.0131021 0)
(-0.103268 -0.00922195 0)
(-0.102258 -0.0313388 0)
(-0.0992352 -0.0533197 0)
(-0.0942566 -0.0752276 0)
(-0.0873999 -0.0971152 0)
(-0.0787682 -0.119023 0)
(-0.0684932 -0.140976 0)
(-0.0567397 -0.162982 0)
(-0.0437115 -0.185021 0)
(-0.0296576 -0.207043 0)
(-0.0148803 -0.228956 0)
(0.000257863 -0.250608 0)
(0.015327 -0.271771 0)
(0.0298247 -0.29211 0)
(0.0431755 -0.311153 0)
(0.0547382 -0.328246 0)
(0.0638254 -0.342503 0)
(0.069743 -0.352753 0)
(0.0718559 -0.357488 0)
(0.0696899 -0.354834 0)
(0.0630752 -0.342555 0)
(0.0523288 -0.318142 0)
(0.0384216 -0.279015 0)
(0.0230988 -0.222858 0)
(0.0093178 -0.148125 0)
(0.00164096 -0.0548093 0)
(0.0015988 0.0600027 0)
(0.00925052 0.162495 0)
(0.0232992 0.2454 0)
(0.039413 0.308389 0)
(0.0546447 0.352545 0)
(0.0671018 0.379869 0)
(0.0756127 0.39287 0)
(0.079679 0.394205 0)
(0.0793477 0.386416 0)
(0.0750374 0.371764 0)
(0.0673834 0.352158 0)
(0.0571184 0.329138 0)
(0.0449872 0.303904 0)
(0.0316927 0.277355 0)
(0.0178649 0.250149 0)
(0.00404871 0.222743 0)
(-0.00929906 0.195442 0)
(-0.0218045 0.168438 0)
(-0.0331686 0.141837 0)
(-0.0431579 0.115683 0)
(-0.0515952 0.08998 0)
(-0.0583511 0.0647041 0)
(-0.0633366 0.0398132 0)
(-0.0664976 0.0152563 0)
(-0.0678104 -0.00902054 0)
(-0.0672789 -0.03307 0)
(-0.0649328 -0.0569391 0)
(-0.0608272 -0.0806667 0)
(-0.0550435 -0.10428 0)
(-0.0476912 -0.12779 0)
(-0.0389107 -0.151191 0)
(-0.0288768 -0.174452 0)
(-0.0178034 -0.197512 0)
(-0.00594808 -0.220274 0)
(0.00638288 -0.24259 0)
(0.0188303 -0.26425 0)
(0.0309792 -0.284962 0)
(0.0423595 -0.30433 0)
(0.0524514 -0.321827 0)
(0.0606992 -0.336761 0)
(0.066537 -0.348241 0)
(0.0694308 -0.355147 0)
(0.0689413 -0.3561 0)
(0.0648114 -0.349465 0)
(0.0570789 -0.333388 0)
(0.0462056 -0.305889 0)
(0.0331767 -0.265045 0)
(0.0195446 -0.209263 0)
(0.00772981 -0.137626 0)
(0.00132569 -0.0504165 0)
(0.00135101 0.0555524 0)
(0.00799274 0.151689 0)
(0.020477 0.231068 0)
(0.0352735 0.29319 0)
(0.0499203 0.338649 0)
(0.0627301 0.368808 0)
(0.0725403 0.385533 0)
(0.0787232 0.39092 0)
(0.0811196 0.387077 0)
(0.0799201 0.375968 0)
(0.0755476 0.359325 0)
(0.0685572 0.338611 0)
(0.0595582 0.315015 0)
(0.0491589 0.289474 0)
(0.0379307 0.262706 0)
(0.0263871 0.235244 0)
(0.0149748 0.207469 0)
(0.00407164 0.179646 0)
(-0.00601064 0.151949 0)
(-0.015021 0.124482 0)
(-0.022763 0.0973012 0)
(-0.0290881 0.0704276 0)
(-0.03389 0.0438585 0)
(-0.0370996 0.0175772 0)
(-0.0386811 -0.00843942 0)
(-0.0386293 -0.0342154 0)
(-0.0369677 -0.0597706 0)
(-0.0337478 -0.0851161 0)
(-0.02905 -0.110251 0)
(-0.022984 -0.135156 0)
(-0.0156916 -0.159791 0)
(-0.00734889 -0.18409 0)
(0.00183042 -0.207951 0)
(0.0115921 -0.231232 0)
(0.0216389 -0.253738 0)
(0.0316286 -0.275209 0)
(0.0411753 -0.295307 0)
(0.0498533 -0.313591 0)
(0.0572072 -0.329503 0)
(0.0627685 -0.342344 0)
(0.0660839 -0.351249 0)
(0.0667557 -0.355172 0)
(0.0644972 -0.352883 0)
(0.0592046 -0.342981 0)
(0.0510412 -0.323946 0)
(0.0405272 -0.294229 0)
(0.0285925 -0.252412 0)
(0.0165785 -0.19741 0)
(0.00645737 -0.12872 0)
(0.001085 -0.046768 0)
(0.0011538 0.0517019 0)
(0.00695002 0.142167 0)
(0.0180487 0.218129 0)
(0.0315433 0.279009 0)
(0.0453774 0.325076 0)
(0.0580741 0.357242 0)
(0.0685355 0.376882 0)
(0.0760818 0.385634 0)
(0.0804245 0.385229 0)
(0.0815891 0.377346 0)
(0.0798286 0.36353 0)
(0.0755437 0.345136 0)
(0.0692162 0.323309 0)
(0.0613559 0.298989 0)
(0.0524644 0.272926 0)
(0.0430098 0.245703 0)
(0.0334131 0.217761 0)
(0.0240412 0.189426 0)
(0.0152054 0.160931 0)
(0.00716306 0.132437 0)
(0.000121041 0.104049 0)
(-0.00575998 0.0758324 0)
(-0.0103612 0.0478258 0)
(-0.0136016 0.0200485 0)
(-0.0154348 -0.00748992 0)
(-0.0158463 -0.0347827 0)
(-0.014852 -0.06182 0)
(-0.0124974 -0.088584 0)
(-0.00885746 -0.115043 0)
(-0.00403728 -0.141149 0)
(0.00182638 -0.166827 0)
(0.00856356 -0.191975 0)
(0.0159693 -0.216455 0)
(0.023802 -0.240085 0)
(0.0317829 -0.26263 0)
(0.0395966 -0.283791 0)
(0.0468944 -0.303193 0)
(0.053301 -0.320369 0)
(0.0584264 -0.33475 0)
(0.0618842 -0.345647 0)
(0.063319 -0.352238 0)
(0.0624427 -0.35357 0)
(0.0590819 -0.348557 0)
(0.0532336 -0.336014 0)
(0.0451279 -0.314705 0)
(0.0352873 -0.283428 0)
(0.0245518 -0.241144 0)
(0.0140587 -0.187132 0)
(0.00541106 -0.121156 0)
(0.00089472 -0.0437199 0)
(0.000991803 0.0483526 0)
(0.00606343 0.133761 0)
(0.0159199 0.206488 0)
(0.0281486 0.265918 0)
(0.0410302 0.312106 0)
(0.0532869 0.345642 0)
(0.0639138 0.367527 0)
(0.0722288 0.379036 0)
(0.0778713 0.381576 0)
(0.0807529 0.37657 0)
(0.0809965 0.365377 0)
(0.0788753 0.349229 0)
(0.0747567 0.329208 0)
(0.0690564 0.306231 0)
(0.0622023 0.281057 0)
(0.0546094 0.254299 0)
(0.0466627 0.22644 0)
(0.0387072 0.197856 0)
(0.0310433 0.168829 0)
(0.0239254 0.139568 0)
(0.0175624 0.110226 0)
(0.0121211 0.0809109 0)
(0.00772795 0.051701 0)
(0.0044726 0.0226515 0)
(0.00241043 -0.00619412 0)
(0.00156464 -0.0347977 0)
(0.00192781 -0.0631191 0)
(0.00346283 -0.0911107 0)
(0.00610313 -0.118711 0)
(0.00975247 -0.14584 0)
(0.0142843 -0.172393 0)
(0.0195407 -0.198234 0)
(0.025332 -0.223191 0)
(0.0314362 -0.247048 0)
(0.0375998 -0.269536 0)
(0.0435397 -0.290325 0)
(0.0489487 -0.309016 0)
(0.053503 -0.325129 0)
(0.0568747 -0.338093 0)
(0.0587507 -0.347244 0)
(0.0588564 -0.351814 0)
(0.0569883 -0.350941 0)
(0.0530522 -0.343679 0)
(0.047106 -0.329029 0)
(0.039405 -0.305992 0)
(0.0304406 -0.273642 0)
(0.020948 -0.231224 0)
(0.0118777 -0.178277 0)
(0.00452922 -0.114747 0)
(0.000739537 -0.0411695 0)
(0.000854978 0.045433 0)
(0.00529188 0.126345 0)
(0.0140193 0.19606 0)
(0.0250237 0.25395 0)
(0.0368668 0.299928 0)
(0.0484524 0.334351 0)
(0.0588797 0.35794 0)
(0.0674962 0.371679 0)
(0.0739092 0.376708 0)
(0.0779573 0.374226 0)
(0.0796681 0.365413 0)
(0.0792128 0.35138 0)
(0.0768613 0.333132 0)
(0.072943 0.311547 0)
(0.0678143 0.287376 0)
(0.0618339 0.261245 0)
(0.0553448 0.233665 0)
(0.048663 0.205047 0)
(0.0420699 0.175715 0)
(0.0358093 0.145919 0)
(0.0300861 0.115854 0)
(0.0250667 0.0856678 0)
(0.0208813 0.055475 0)
(0.017625 0.0253665 0)
(0.0153601 -0.00458158 0)
(0.0141178 -0.0342998 0)
(0.0138996 -0.0637182 0)
(0.0146782 -0.0927595 0)
(0.0163977 -0.121333 0)
(0.0189741 -0.14933 0)
(0.0222949 -0.176616 0)
(0.0262188 -0.203024 0)
(0.0305761 -0.228353 0)
(0.0351691 -0.252356 0)
(0.0397735 -0.274737 0)
(0.0441419 -0.295144 0)
(0.0480093 -0.31316 0)
(0.0511016 -0.3283 0)
(0.0531477 -0.340004 0)
(0.0538963 -0.347634 0)
(0.053138 -0.350481 0)
(0.0507312 -0.347769 0)
(0.0466337 -0.338677 0)
(0.0409345 -0.322367 0)
(0.0338859 -0.298032 0)
(0.0259286 -0.264961 0)
(0.01769 -0.222616 0)
(0.00995382 -0.170722 0)
(0.0037683 -0.109347 0)
(0.0006093 -0.0390419 0)
(0.000736494 0.0428901 0)
(0.0046061 0.119821 0)
(0.0122933 0.186772 0)
(0.0221138 0.243116 0)
(0.0328653 0.288669 0)
(0.0436143 0.323622 0)
(0.0535667 0.348483 0)
(0.062118 0.364008 0)
(0.068872 0.371117 0)
(0.0736249 0.370814 0)
(0.076338 0.364125 0)
(0.0771039 0.352039 0)
(0.076112 0.335481 0)
(0.0736159 0.31528 0)
(0.0699054 0.292168 0)
(0.0652834 0.26677 0)
(0.0600487 0.239613 0)
(0.0544834 0.211133 0)
(0.0488448 0.181684 0)
(0.0433604 0.151553 0)
(0.0382251 0.120969 0)
(0.0336012 0.0901164 0)
(0.0296178 0.0591433 0)
(0.0263728 0.0281732 0)
(0.0239334 -0.00268674 0)
(0.022338 -0.0333372 0)
(0.0215967 -0.0636797 0)
(0.0216927 -0.0936091 0)
(0.0225827 -0.123008 0)
(0.024197 -0.151738 0)
(0.0264399 -0.179639 0)
(0.0291901 -0.206517 0)
(0.032301 -0.232144 0)
(0.0356019 -0.256248 0)
(0.0389001 -0.278512 0)
(0.0419847 -0.298565 0)
(0.0446322 -0.31598 0)
(0.0466144 -0.330271 0)
(0.0477101 -0.340892 0)
(0.0477195 -0.347239 0)
(0.0464832 -0.348653 0)
(0.0439032 -0.344439 0)
(0.0399678 -0.333883 0)
(0.0347753 -0.31628 0)
(0.0285568 -0.29098 0)
(0.0216918 -0.257438 0)
(0.0147026 -0.215279 0)
(0.00822487 -0.164364 0)
(0.00309686 -0.104848 0)
(0.000497052 -0.0372825 0)
(0.000631567 0.0406846 0)
(0.00398483 0.114117 0)
(0.0107011 0.178568 0)
(0.0193736 0.233418 0)
(0.0290006 0.27842 0)
(0.0387936 0.313643 0)
(0.0480625 0.339435 0)
(0.0562616 0.356375 0)
(0.0630102 0.365203 0)
(0.0680855 0.366761 0)
(0.0714053 0.361936 0)
(0.073004 0.351609 0)
(0.0730065 0.336622 0)
(0.0716019 0.317756 0)
(0.0690199 0.29571 0)
(0.0655106 0.271103 0)
(0.0613284 0.244467 0)
(0.0567195 0.216253 0)
(0.0519135 0.186839 0)
(0.0471176 0.15654 0)
(0.0425129 0.125614 0)
(0.0382529 0.0942756 0)
(0.0344629 0.0627038 0)
(0.0312405 0.0310511 0)
(0.028656 -0.000546701 0)
(0.0267535 -0.0319632 0)
(0.0255515 -0.0630732 0)
(0.0250441 -0.093746 0)
(0.0252011 -0.123838 0)
(0.0259687 -0.153189 0)
(0.0272702 -0.18161 0)
(0.0290058 -0.208887 0)
(0.0310539 -0.234766 0)
(0.0332726 -0.258957 0)
(0.0355016 -0.281123 0)
(0.037566 -0.300879 0)
(0.0392815 -0.317793 0)
(0.0404618 -0.331381 0)
(0.0409286 -0.341112 0)
(0.0405239 -0.34641 0)
(0.0391255 -0.346667 0)
(0.0366641 -0.341256 0)
(0.0331423 -0.32955 0)
(0.0286523 -0.310954 0)
(0.0233923 -0.284943 0)
(0.0176757 -0.2511 0)
(0.0119242 -0.209174 0)
(0.00664313 -0.159124 0)
(0.00249176 -0.101166 0)
(0.000397875 -0.0358507 0)
(0.000536757 0.0387866 0)
(0.0034123 0.109174 0)
(0.00921144 0.171398 0)
(0.0167664 0.224852 0)
(0.0252485 0.269244 0)
(0.0339984 0.304554 0)
(0.0424256 0.331014 0)
(0.0500484 0.34906 0)
(0.0565144 0.359294 0)
(0.061599 0.362421 0)
(0.0651943 0.359208 0)
(0.0672937 0.35044 0)
(0.0679717 0.336885 0)
(0.0673637 0.319269 0)
(0.0656469 0.298261 0)
(0.0630227 0.274463 0)
(0.0597024 0.248405 0)
(0.0558959 0.220548 0)
(0.0518034 0.191286 0)
(0.0476089 0.160954 0)
(0.0434766 0.129834 0)
(0.0395482 0.0981667 0)
(0.0359423 0.0661558 0)
(0.0327537 0.0339801 0)
(0.0300538 0.00180027 0)
(0.0278911 -0.0302329 0)
(0.0262919 -0.0619707 0)
(0.0252608 -0.0932592 0)
(0.0247812 -0.123933 0)
(0.024816 -0.153808 0)
(0.0253079 -0.182677 0)
(0.0261802 -0.210302 0)
(0.0273373 -0.236412 0)
(0.0286664 -0.260698 0)
(0.0300395 -0.282808 0)
(0.0313165 -0.302347 0)
(0.0323499 -0.318878 0)
(0.0329908 -0.331921 0)
(0.0330975 -0.340957 0)
(0.0325453 -0.345438 0)
(0.031239 -0.344795 0)
(0.0291262 -0.338457 0)
(0.0262119 -0.325871 0)
(0.0225718 -0.306528 0)
(0.0183632 -0.279998 0)
(0.013832 -0.245964 0)
(0.00930542 -0.204267 0)
(0.00517174 -0.154939 0)
(0.00193568 -0.0982398 0)
(0.000308205 -0.0347166 0)
(0.000449522 0.0371738 0)
(0.0028766 0.104948 0)
(0.00780019 0.165227 0)
(0.0142626 0.217412 0)
(0.021587 0.261184 0)
(0.02923 0.296461 0)
(0.0366955 0.323384 0)
(0.0435681 0.342286 0)
(0.0495321 0.353653 0)
(0.0543731 0.358082 0)
(0.0579718 0.356242 0)
(0.060294 0.348833 0)
(0.0613761 0.336553 0)
(0.06131 0.320082 0)
(0.0602272 0.300053 0)
(0.0582851 0.277049 0)
(0.0556547 0.251594 0)
(0.0525103 0.224152 0)
(0.0490214 0.195126 0)
(0.0453476 0.164867 0)
(0.0416335 0.133675 0)
(0.0380071 0.10181 0)
(0.0345775 0.0694984 0)
(0.0314348 0.0369396 0)
(0.0286496 0.00431572 0)
(0.0262734 -0.0282016 0)
(0.024339 -0.0604433 0)
(0.0228612 -0.0922358 0)
(0.0218369 -0.123394 0)
(0.0212456 -0.153716 0)
(0.02105 -0.182976 0)
(0.0211966 -0.210917 0)
(0.0216163 -0.237254 0)
(0.0222252 -0.261661 0)
(0.0229271 -0.283775 0)
(0.023615 -0.303192 0)
(0.0241756 -0.31947 0)
(0.0244937 -0.332131 0)
(0.0244585 -0.340669 0)
(0.0239719 -0.344553 0)
(0.0229576 -0.343249 0)
(0.0213714 -0.336229 0)
(0.019212 -0.322995 0)
(0.016531 -0.303104 0)
(0.013441 -0.276199 0)
(0.01012 -0.242038 0)
(0.00680608 -0.200529 0)
(0.00378196 -0.151761 0)
(0.00141546 -0.0960217 0)
(0.000225398 -0.0338583 0)
(0.000367935 0.0358292 0)
(0.00236852 0.101408 0)
(0.00644817 0.160024 0)
(0.011838 0.211091 0)
(0.0179965 0.254273 0)
(0.024486 0.289442 0)
(0.0308995 0.316675 0)
(0.0368884 0.336224 0)
(0.0421793 0.348489 0)
(0.0465764 0.353981 0)
(0.0499597 0.353288 0)
(0.0522784 0.347036 0)
(0.0535408 0.335869 0)
(0.0538034 0.320418 0)
(0.0531592 0.301287 0)
(0.0517264 0.279036 0)
(0.049638 0.254181 0)
(0.047034 0.227182 0)
(0.0440537 0.198449 0)
(0.0408308 0.168342 0)
(0.0374892 0.137175 0)
(0.0341409 0.105223 0)
(0.0308838 0.0727281 0)
(0.0278012 0.039908 0)
(0.0249611 0.00696154 0)
(0.0224166 -0.0259226 0)
(0.0202062 -0.0585589 0)
(0.0183536 -0.0907576 0)
(0.0168687 -0.122318 0)
(0.0157474 -0.153022 0)
(0.0149724 -0.182629 0)
(0.0145131 -0.210869 0)
(0.0143266 -0.237442 0)
(0.0143578 -0.26201 0)
(0.014541 -0.284199 0)
(0.0148013 -0.303597 0)
(0.0150571 -0.319759 0)
(0.0152234 -0.332206 0)
(0.0152165 -0.340437 0)
(0.0149594 -0.343938 0)
(0.0143888 -0.342195 0)
(0.0134622 -0.334711 0)
(0.0121663 -0.32103 0)
(0.0105238 -0.300756 0)
(0.0085999 -0.273584 0)
(0.00650547 -0.239326 0)
(0.00439389 -0.19794 0)
(0.00245108 -0.149554 0)
(0.000920897 -0.0944781 0)
(0.000147446 -0.0332599 0)
(0.00029049 0.0347403 0)
(0.00188076 0.0985267 0)
(0.0051399 0.155767 0)
(0.00947216 0.205885 0)
(0.0144596 0.248533 0)
(0.0197617 0.283556 0)
(0.0250564 0.310981 0)
(0.0300615 0.331006 0)
(0.034549 0.343965 0)
(0.0383483 0.350302 0)
(0.0413462 0.350541 0)
(0.0434833 0.345252 0)
(0.0447482 0.335029 0)
(0.0451692 0.320463 0)
(0.0448064 0.30213 0)
(0.0437427 0.28057 0)
(0.0420767 0.256287 0)
(0.0399149 0.229737 0)
(0.0373669 0.20133 0)
(0.0345401 0.171432 0)
(0.0315368 0.140365 0)
(0.0284512 0.108415 0)
(0.0253685 0.0758381 0)
(0.0223634 0.0428622 0)
(0.0194998 0.00970004 0)
(0.016831 -0.023447 0)
(0.0143995 -0.0563806 0)
(0.0122373 -0.0888987 0)
(0.0103661 -0.120789 0)
(0.00879791 -0.151821 0)
(0.00753457 -0.181742 0)
(0.00656833 -0.210273 0)
(0.0058818 -0.2371 0)
(0.00544814 -0.261877 0)
(0.00523146 -0.28422 0)
(0.00518745 -0.303709 0)
(0.00526462 -0.319893 0)
(0.00540597 -0.332292 0)
(0.00555166 -0.340406 0)
(0.00564234 -0.343726 0)
(0.00562346 -0.341752 0)
(0.00545031 -0.334006 0)
(0.00509336 -0.320056 0)
(0.00454368 -0.299536 0)
(0.00381758 -0.272178 0)
(0.00295977 -0.237829 0)
(0.00204252 -0.196482 0)
(0.0011609 -0.148291 0)
(0.000443909 -0.0935847 0)
(7.27877e-05 -0.0329103 0)
(0.000215962 0.033898 0)
(0.00140728 0.0962876 0)
(0.00386238 0.152441 0)
(0.00714782 0.201789 0)
(0.0109606 0.243982 0)
(0.0150513 0.278844 0)
(0.0191793 0.306375 0)
(0.0231284 0.326731 0)
(0.0267178 0.340202 0)
(0.0298063 0.347184 0)
(0.032293 0.348153 0)
(0.0341164 0.343634 0)
(0.035251 0.334184 0)
(0.0357026 0.32036 0)
(0.0355031 0.302713 0)
(0.034704 0.281766 0)
(0.0333711 0.258009 0)
(0.0315798 0.231892 0)
(0.02941 0.203824 0)
(0.0269427 0.174172 0)
(0.0242575 0.143264 0)
(0.0214302 0.111391 0)
(0.0185313 0.0788158 0)
(0.0156257 0.0457765 0)
(0.0127716 0.0124937 0)
(0.0100208 -0.0208226 0)
(0.00741866 -0.0539655 0)
(0.00500419 -0.0867246 0)
(0.00281018 -0.118879 0)
(0.000863348 -0.150191 0)
(-0.000815703 -0.1804 0)
(-0.00221268 -0.209218 0)
(-0.00331987 -0.236323 0)
(-0.00413655 -0.261361 0)
(-0.00466941 -0.283939 0)
(-0.00493293 -0.303632 0)
(-0.0049496 -0.319978 0)
(-0.0047498 -0.332494 0)
(-0.0043712 -0.340674 0)
(-0.00385758 -0.34401 0)
(-0.00325688 -0.342003 0)
(-0.00261861 -0.334181 0)
(-0.00199049 -0.320123 0)
(-0.0014148 -0.299479 0)
(-0.000924652 -0.271998 0)
(-0.000540851 -0.237549 0)
(-0.000269846 -0.196144 0)
(-0.000103506 -0.147956 0)
(-2.20829e-05 -0.0933256 0)
(1.60142e-07 -0.0328021 0)
(0.000143306 0.0332962 0)
(0.00094286 0.094678 0)
(0.00260423 0.150033 0)
(0.0048493 0.198801 0)
(0.0074845 0.240629 0)
(0.0103477 0.275336 0)
(0.0132771 0.302905 0)
(0.0161218 0.323468 0)
(0.0187499 0.337287 0)
(0.0210518 0.344727 0)
(0.0229428 0.346231 0)
(0.0243634 0.342294 0)
(0.0252786 0.333442 0)
(0.0256756 0.320211 0)
(0.0255613 0.303128 0)
(0.0249585 0.282702 0)
(0.0239027 0.259411 0)
(0.0224387 0.233698 0)
(0.0206174 0.205967 0)
(0.0184934 0.176584 0)
(0.0161228 0.145877 0)
(0.0135617 0.114142 0)
(0.0108652 0.0816424 0)