/*--------------------------------*- C++ -*----------------------------------*\
  =========                 |
  \\      /  F ield         | OpenFOAM: The Open Source CFD Toolbox
   \\    /   O peration     | Website:  https://openfoam.org
    \\  /    A nd           | Version:  7
     \\/     M anipulation  |
\*---------------------------------------------------------------------------*/
FoamFile
{
    version     2.0;
    format      ascii;
    class       volScalarField;
    location    "0.018";
    object      p;
}
// * * * * * * * * * * * * * * * * * * * * * * * * * * * * * * * * * * * * * //

dimensions      [0 2 -2 0 0 0 0];

internalField   nonuniform List<scalar> 
2500
(
9.36599e-06
-6.51007
-9.29185
-10.4833
-11.1437
-11.5449
-11.8034
-11.9831
-12.1161
-12.2189
-12.3008
-12.3676
-12.4232
-12.4701
-12.5103
-12.5452
-12.5757
-12.6027
-12.6268
-12.6486
-12.6684
-12.6866
-12.7035
-12.7194
-12.7344
-12.7488
-12.7627
-12.7764
-12.7901
-12.8039
-12.8181
-12.833
-12.849
-12.8663
-12.8856
-12.9075
-12.9329
-12.963
-12.9995
-13.0448
-13.1022
-13.1771
-13.2786
-13.4222
-13.6394
-13.9915
-14.5861
-15.6829
-18.3478
-24.7326
-4.95728
-7.67539
-9.17954
-10.1364
-10.8004
-11.2563
-11.5736
-11.8027
-11.9739
-12.1057
-12.2098
-12.2938
-12.3629
-12.4207
-12.4697
-12.5118
-12.5484
-12.5806
-12.6092
-12.6349
-12.6582
-12.6796
-12.6994
-12.7181
-12.7358
-12.7529
-12.7696
-12.7862
-12.803
-12.8202
-12.8381
-12.8573
-12.878
-12.9009
-12.9268
-12.9566
-12.9914
-13.0332
-13.0841
-13.1475
-13.2283
-13.3337
-13.475
-13.6698
-13.9475
-14.3564
-14.9619
-15.8467
-17.2648
-19.864
-7.93006
-8.75981
-9.55826
-10.2365
-10.7737
-11.1803
-11.4863
-11.7193
-11.8996
-12.0415
-12.1551
-12.2477
-12.3241
-12.3882
-12.4426
-12.4893
-12.5299
-12.5655
-12.5972
-12.6256
-12.6514
-12.6751
-12.6971
-12.7178
-12.7376
-12.7567
-12.7755
-12.7942
-12.8133
-12.833
-12.8537
-12.8759
-12.9
-12.9269
-12.9572
-12.9921
-13.033
-13.0817
-13.1407
-13.2135
-13.3049
-13.4217
-13.5736
-13.7745
-14.0439
-14.4085
-14.897
-15.5217
-16.2654
-17.0286
-9.44319
-9.65288
-10.069
-10.5113
-10.9016
-11.2259
-11.4893
-11.7017
-11.8733
-12.0126
-12.1269
-12.2216
-12.3008
-12.3677
-12.4249
-12.4743
-12.5174
-12.5553
-12.589
-12.6194
-12.647
-12.6723
-12.696
-12.7183
-12.7396
-12.7603
-12.7807
-12.8012
-12.822
-12.8436
-12.8664
-12.8908
-12.9174
-12.947
-12.9803
-13.0184
-13.0628
-13.1151
-13.1776
-13.2535
-13.3467
-13.4624
-13.6075
-13.7905
-14.0213
-14.3092
-14.6615
-15.064
-15.4441
-15.6211
-10.3323
-10.3268
-10.5272
-10.8013
-11.0735
-11.321
-11.537
-11.7211
-11.8762
-12.0066
-12.1164
-12.2091
-12.288
-12.3556
-12.4138
-12.4645
-12.5089
-12.5483
-12.5834
-12.6151
-12.644
-12.6707
-12.6956
-12.7191
-12.7417
-12.7637
-12.7854
-12.8072
-12.8295
-12.8526
-12.8769
-12.903
-12.9314
-12.9628
-12.998
-13.0379
-13.084
-13.1376
-13.2007
-13.2757
-13.3656
-13.4739
-13.6047
-13.7621
-13.9496
-14.1671
-14.409
-14.6547
-14.832
-14.8119
-10.9018
-10.8216
-10.9062
-11.0707
-11.256
-11.44
-11.6116
-11.7657
-11.9011
-12.0189
-12.1207
-12.2087
-12.2849
-12.3511
-12.4088
-12.4595
-12.5044
-12.5443
-12.5801
-12.6126
-12.6423
-12.6699
-12.6956
-12.7201
-12.7436
-12.7665
-12.7892
-12.812
-12.8353
-12.8594
-12.8848
-12.9119
-12.9414
-12.9737
-13.0097
-13.0502
-13.0963
-13.1492
-13.2104
-13.2816
-13.3648
-13.4621
-13.5753
-13.7057
-13.8527
-14.0119
-14.1739
-14.3182
-14.3889
-14.3047
-11.2858
-11.1881
-11.2137
-11.3094
-11.4331
-11.567
-11.7003
-11.8262
-11.9414
-12.0449
-12.1369
-12.2183
-12.29
-12.3533
-12.4093
-12.459
-12.5033
-12.543
-12.5789
-12.6117
-12.6418
-12.6697
-12.696
-12.721
-12.745
-12.7685
-12.7918
-12.8152
-12.8391
-12.8638
-12.8897
-12.9174
-12.9471
-12.9796
-13.0155
-13.0554
-13.1002
-13.1508
-13.2084
-13.2739
-13.3486
-13.4333
-13.5284
-13.6334
-13.7457
-13.8596
-13.9655
-14.0471
-14.0649
-13.9689
-11.5599
-11.4654
-11.4616
-11.5146
-11.5956
-11.6918
-11.7937
-11.8947
-11.9908
-12.0801
-12.1616
-12.2353
-12.3016
-12.361
-12.4142
-12.462
-12.5051
-12.544
-12.5794
-12.6119
-12.6419
-12.6699
-12.6963
-12.7215
-12.7458
-12.7695
-12.7931
-12.8167
-12.8408
-12.8657
-12.8917
-12.9192
-12.9487
-12.9807
-13.0156
-13.054
-13.0966
-13.144
-13.1968
-13.2558
-13.3212
-13.3933
-13.4716
-13.5545
-13.6389
-13.719
-13.7867
-13.8301
-13.8225
-13.7327
-11.7656
-11.6803
-11.662
-11.6887
-11.7407
-11.8088
-11.8858
-11.9659
-12.045
-12.1209
-12.192
-12.2577
-12.3179
-12.3728
-12.4227
-12.468
-12.5092
-12.5468
-12.5813
-12.6131
-12.6427
-12.6704
-12.6966
-12.7216
-12.7458
-12.7695
-12.7929
-12.8165
-12.8404
-12.865
-12.8907
-12.9177
-12.9465
-12.9774
-13.0107
-13.0471
-13.0868
-13.1303
-13.178
-13.23
-13.2865
-13.3469
-13.4104
-13.475
-13.5376
-13.5931
-13.6352
-13.6556
-13.6364
-13.5573
-11.9259
-11.8505
-11.8256
-11.8361
-11.8683
-11.9159
-11.9736
-12.0364
-12.1009
-12.1646
-12.2258
-12.2837
-12.3377
-12.3878
-12.4339
-12.4763
-12.5152
-12.5511
-12.5843
-12.6151
-12.6438
-12.6709
-12.6965
-12.7211
-12.7449
-12.7682
-12.7913
-12.8145
-12.838
-12.862
-12.887
-12.9131
-12.9407
-12.9701
-13.0016
-13.0354
-13.0719
-13.1113
-13.1537
-13.1991
-13.2472
-13.2973
-13.3483
-13.3982
-13.4441
-13.482
-13.5072
-13.5139
-13.49
-13.4215
-12.0543
-11.9879
-11.9606
-11.9612
-11.98
-12.0127
-12.0554
-12.1044
-12.1565
-12.2094
-12.2616
-12.312
-12.36
-12.405
-12.4472
-12.4864
-12.5228
-12.5566
-12.5881
-12.6175
-12.6452
-12.6713
-12.6962
-12.7201
-12.7433
-12.7659
-12.7884
-12.8109
-12.8336
-12.8568
-12.8808
-12.9058
-12.9319
-12.9596
-12.9889
-13.02
-13.0532
-13.0885
-13.1258
-13.165
-13.2056
-13.2468
-13.2875
-13.3258
-13.3593
-13.3847
-13.3987
-13.3974
-13.3722
-13.3131
-12.1593
-12.1008
-12.0732
-12.0679
-12.0775
-12.0995
-12.1308
-12.1686
-12.2104
-12.2541
-12.2982
-12.3417
-12.3837
-12.4239
-12.462
-12.4978
-12.5315
-12.563
-12.5926
-12.6205
-12.6468
-12.6717
-12.6956
-12.7185
-12.7408
-12.7627
-12.7843
-12.8058
-12.8276
-12.8498
-12.8725
-12.8961
-12.9206
-12.9463
-12.9733
-13.0017
-13.0316
-13.0629
-13.0955
-13.1292
-13.1633
-13.197
-13.2293
-13.2586
-13.2828
-13.2995
-13.3061
-13.3003
-13.2756
-13.2246
-12.2464
-12.1949
-12.1681
-12.1594
-12.1629
-12.1771
-12.1998
-12.2287
-12.2619
-12.2977
-12.3347
-12.3718
-12.4084
-12.4439
-12.478
-12.5104
-12.5412
-12.5703
-12.5978
-12.6238
-12.6486
-12.6722
-12.6948
-12.7166
-12.7378
-12.7586
-12.7791
-12.7996
-12.8202
-12.8412
-12.8625
-12.8846
-12.9073
-12.931
-12.9557
-12.9814
-13.0081
-13.0357
-13.064
-13.0927
-13.1213
-13.1489
-13.1745
-13.1968
-13.2142
-13.2248
-13.2267
-13.2185
-13.1951
-13.1509
-12.3197
-12.2742
-12.249
-12.2384
-12.2379
-12.2465
-12.2626
-12.2846
-12.3108
-12.3398
-12.3706
-12.402
-12.4336
-12.4646
-12.4947
-12.5238
-12.5516
-12.5782
-12.6035
-12.6276
-12.6506
-12.6726
-12.6938
-12.7143
-12.7343
-12.7538
-12.7732
-12.7924
-12.8117
-12.8313
-12.8512
-12.8716
-12.8925
-12.9142
-12.9365
-12.9596
-12.9833
-13.0075
-13.0321
-13.0565
-13.0804
-13.1029
-13.1232
-13.1402
-13.1526
-13.1589
-13.1579
-13.1486
-13.1271
-13.0886
-12.3818
-12.3418
-12.3185
-12.3071
-12.3041
-12.3086
-12.3198
-12.3363
-12.3568
-12.3802
-12.4055
-12.432
-12.4589
-12.4857
-12.5121
-12.5379
-12.5628
-12.5867
-12.6097
-12.6317
-12.6529
-12.6732
-12.6929
-12.7119
-12.7305
-12.7487
-12.7667
-12.7845
-12.8025
-12.8205
-12.8388
-12.8575
-12.8766
-12.8962
-12.9163
-12.9369
-12.9579
-12.979
-13.0002
-13.021
-13.0409
-13.0593
-13.0755
-13.0885
-13.0972
-13.1007
-13.0979
-13.0883
-13.0688
-13.0355
-12.4351
-12.4
-12.3787
-12.3673
-12.3627
-12.3645
-12.372
-12.3841
-12.4
-12.4187
-12.4394
-12.4614
-12.4841
-12.5071
-12.5299
-12.5525
-12.5745
-12.5958
-12.6164
-12.6363
-12.6556
-12.6741
-12.6921
-12.7095
-12.7265
-12.7433
-12.7598
-12.7762
-12.7926
-12.8091
-12.8258
-12.8428
-12.86
-12.8776
-12.8956
-12.9138
-12.9322
-12.9507
-12.9689
-12.9865
-13.0032
-13.0183
-13.0311
-13.0411
-13.0472
-13.0488
-13.045
-13.0357
-13.0183
-12.9895
-12.4812
-12.4506
-12.4315
-12.4205
-12.415
-12.4149
-12.4197
-12.4285
-12.4406
-12.4553
-12.472
-12.4901
-12.5091
-12.5285
-12.5481
-12.5675
-12.5867
-12.6055
-12.6237
-12.6414
-12.6586
-12.6753
-12.6915
-12.7073
-12.7227
-12.7378
-12.7528
-12.7677
-12.7825
-12.7974
-12.8124
-12.8276
-12.8431
-12.8587
-12.8746
-12.8907
-12.9067
-12.9227
-12.9383
-12.9533
-12.9672
-12.9796
-12.9899
-12.9975
-13.0018
-13.0021
-12.9981
-12.9894
-12.974
-12.9493
-12.5215
-12.495
-12.478
-12.4678
-12.4621
-12.4607
-12.4635
-12.4697
-12.4788
-12.4902
-12.5035
-12.5181
-12.5337
-12.5499
-12.5664
-12.5829
-12.5994
-12.6156
-12.6315
-12.647
-12.6622
-12.6769
-12.6913
-12.7053
-12.719
-12.7325
-12.7459
-12.7591
-12.7723
-12.7856
-12.7989
-12.8124
-12.826
-12.8398
-12.8537
-12.8676
-12.8816
-12.8953
-12.9087
-12.9213
-12.9329
-12.9431
-12.9514
-12.9573
-12.9603
-12.9599
-12.9559
-12.9481
-12.9348
-12.9139
-12.557
-12.5343
-12.5196
-12.5103
-12.5046
-12.5026
-12.5039
-12.5081
-12.5148
-12.5235
-12.5338
-12.5455
-12.5581
-12.5713
-12.5849
-12.5987
-12.6125
-12.6263
-12.6399
-12.6532
-12.6662
-12.679
-12.6915
-12.7037
-12.7157
-12.7275
-12.7391
-12.7507
-12.7623
-12.7738
-12.7854
-12.7972
-12.809
-12.8209
-12.8329
-12.845
-12.8569
-12.8686
-12.8799
-12.8906
-12.9003
-12.9086
-12.9153
-12.9199
-12.9221
-12.9214
-12.9177
-12.9108
-12.8996
-12.8822
-12.5887
-12.5696
-12.5571
-12.5488
-12.5435
-12.5411
-12.5414
-12.5441
-12.5488
-12.5553
-12.5631
-12.5721
-12.582
-12.5925
-12.6035
-12.6147
-12.6261
-12.6374
-12.6487
-12.6599
-12.6709
-12.6816
-12.6922
-12.7026
-12.7128
-12.7228
-12.7328
-12.7426
-12.7525
-12.7623
-12.7722
-12.7822
-12.7922
-12.8023
-12.8125
-12.8227
-12.8328
-12.8427
-12.8521
-12.861
-12.869
-12.8759
-12.8813
-12.885
-12.8866
-12.8858
-12.8826
-12.8769
-12.8677
-12.8535
-12.6173
-12.6017
-12.5912
-12.5842
-12.5794
-12.5769
-12.5766
-12.5781
-12.5812
-12.5858
-12.5915
-12.5982
-12.6057
-12.6137
-12.6222
-12.631
-12.64
-12.6491
-12.6582
-12.6672
-12.6761
-12.6849
-12.6935
-12.702
-12.7104
-12.7187
-12.7268
-12.735
-12.7431
-12.7512
-12.7593
-12.7675
-12.7758
-12.7841
-12.7925
-12.8009
-12.8092
-12.8174
-12.8251
-12.8324
-12.839
-12.8446
-12.849
-12.8519
-12.8532
-12.8526
-12.85
-12.8455
-12.8383
-12.8272
-12.6436
-12.6312
-12.6228
-12.617
-12.6129
-12.6105
-12.6097
-12.6104
-12.6122
-12.6152
-12.6191
-12.6237
-12.629
-12.6349
-12.6411
-12.6476
-12.6544
-12.6612
-12.6681
-12.6751
-12.6819
-12.6887
-12.6955
-12.7021
-12.7086
-12.7151
-12.7214
-12.7278
-12.7341
-12.7405
-12.7468
-12.7533
-12.7598
-12.7664
-12.773
-12.7796
-12.7862
-12.7927
-12.7989
-12.8047
-12.8099
-12.8144
-12.818
-12.8204
-12.8215
-12.8212
-12.8193
-12.8161
-12.8108
-12.8027
-12.668
-12.6587
-12.6523
-12.6478
-12.6445
-12.6424
-12.6414
-12.6413
-12.6422
-12.6437
-12.646
-12.6489
-12.6522
-12.656
-12.6601
-12.6645
-12.6691
-12.6738
-12.6787
-12.6835
-12.6884
-12.6933
-12.6981
-12.7028
-12.7075
-12.7121
-12.7167
-12.7212
-12.7257
-12.7303
-12.7349
-12.7395
-12.7442
-12.749
-12.7539
-12.7588
-12.7637
-12.7685
-12.7732
-12.7777
-12.7817
-12.7852
-12.788
-12.79
-12.791
-12.7911
-12.7901
-12.788
-12.7847
-12.7795
-12.6911
-12.6848
-12.6804
-12.6773
-12.6748
-12.673
-12.6719
-12.6713
-12.6713
-12.6717
-12.6725
-12.6737
-12.6753
-12.6772
-12.6793
-12.6817
-12.6842
-12.6869
-12.6897
-12.6926
-12.6955
-12.6984
-12.7013
-12.7042
-12.707
-12.7098
-12.7125
-12.7152
-12.7179
-12.7207
-12.7234
-12.7263
-12.7292
-12.7322
-12.7352
-12.7384
-12.7416
-12.7449
-12.748
-12.7511
-12.754
-12.7565
-12.7587
-12.7603
-12.7614
-12.7618
-12.7617
-12.7609
-12.7595
-12.7571
-12.7134
-12.71
-12.7076
-12.7057
-12.7041
-12.7028
-12.7016
-12.7007
-12.6998
-12.6992
-12.6987
-12.6984
-12.6983
-12.6984
-12.6987
-12.6992
-12.6998
-12.7005
-12.7014
-12.7023
-12.7033
-12.7043
-12.7053
-12.7063
-12.7072
-12.7082
-12.709
-12.7099
-12.7108
-12.7117
-12.7126
-12.7135
-12.7146
-12.7157
-12.717
-12.7184
-12.7199
-12.7215
-12.7232
-12.7249
-12.7266
-12.7282
-12.7297
-12.731
-12.7321
-12.733
-12.7337
-12.7343
-12.7348
-12.7353
-12.7353
-12.7348
-12.7343
-12.7337
-12.733
-12.7321
-12.731
-12.7297
-12.7282
-12.7266
-12.7249
-12.7232
-12.7215
-12.7199
-12.7184
-12.717
-12.7157
-12.7146
-12.7135
-12.7126
-12.7117
-12.7108
-12.7099
-12.709
-12.7082
-12.7072
-12.7063
-12.7053
-12.7043
-12.7033
-12.7023
-12.7014
-12.7005
-12.6998
-12.6992
-12.6987
-12.6984
-12.6983
-12.6984
-12.6987
-12.6992
-12.6998
-12.7006
-12.7016
-12.7028
-12.7041
-12.7057
-12.7076
-12.71
-12.7134
-12.7572
-12.7595
-12.7609
-12.7617
-12.7618
-12.7614
-12.7603
-12.7587
-12.7565
-12.754
-12.7511
-12.748
-12.7449
-12.7416
-12.7384
-12.7352
-12.7322
-12.7292
-12.7263
-12.7234
-12.7207
-12.7179
-12.7152
-12.7125
-12.7098
-12.707
-12.7042
-12.7013
-12.6984
-12.6955
-12.6926
-12.6897
-12.6869
-12.6842
-12.6817
-12.6793
-12.6771
-12.6753
-12.6737
-12.6725
-12.6717
-12.6713
-12.6713
-12.6719
-12.673
-12.6748
-12.6772
-12.6804
-12.6848
-12.6911
-12.7795
-12.7847
-12.788
-12.7901
-12.7911
-12.791
-12.79
-12.788
-12.7852
-12.7817
-12.7777
-12.7732
-12.7685
-12.7637
-12.7588
-12.7539
-12.749
-12.7442
-12.7395
-12.7349
-12.7303
-12.7257
-12.7212
-12.7167
-12.7121
-12.7075
-12.7028
-12.6981
-12.6933
-12.6884
-12.6835
-12.6787
-12.6738
-12.6691
-12.6645
-12.6601
-12.656
-12.6522
-12.6489
-12.646
-12.6437
-12.6422
-12.6413
-12.6414
-12.6424
-12.6445
-12.6478
-12.6523
-12.6587
-12.668
-12.8027
-12.8108
-12.8161
-12.8193
-12.8212
-12.8215
-12.8204
-12.818
-12.8144
-12.8099
-12.8047
-12.7989
-12.7927
-12.7862
-12.7796
-12.773
-12.7664
-12.7598
-12.7533
-12.7468
-12.7405
-12.7341
-12.7278
-12.7214
-12.7151
-12.7086
-12.7021
-12.6955
-12.6887
-12.6819
-12.6751
-12.6681
-12.6612
-12.6544
-12.6476
-12.6411
-12.6349
-12.629
-12.6237
-12.6191
-12.6152
-12.6122
-12.6104
-12.6097
-12.6105
-12.6129
-12.617
-12.6228
-12.6312
-12.6435
-12.8272
-12.8383
-12.8455
-12.85
-12.8526
-12.8532
-12.8519
-12.849
-12.8446
-12.839
-12.8324
-12.8251
-12.8174
-12.8092
-12.8009
-12.7925
-12.7841
-12.7758
-12.7675
-12.7593
-12.7512
-12.7431
-12.735
-12.7268
-12.7187
-12.7104
-12.702
-12.6935
-12.6849
-12.6761
-12.6672
-12.6582
-12.6491
-12.64
-12.631
-12.6222
-12.6137
-12.6057
-12.5982
-12.5915
-12.5858
-12.5812
-12.5781
-12.5766
-12.5769
-12.5794
-12.5842
-12.5912
-12.6017
-12.6173
-12.8535
-12.8677
-12.8769
-12.8826
-12.8858
-12.8866
-12.885
-12.8813
-12.8759
-12.869
-12.861
-12.8521
-12.8427
-12.8328
-12.8227
-12.8125
-12.8023
-12.7922
-12.7822
-12.7722
-12.7623
-12.7525
-12.7426
-12.7328
-12.7228
-12.7128
-12.7026
-12.6922
-12.6816
-12.6709
-12.6599
-12.6487
-12.6374
-12.6261
-12.6147
-12.6035
-12.5925
-12.582
-12.5721
-12.5631
-12.5553
-12.5488
-12.5441
-12.5414
-12.5411
-12.5435
-12.5488
-12.5571
-12.5696
-12.5887
-12.8822
-12.8996
-12.9108
-12.9177
-12.9214
-12.9221
-12.9199
-12.9153
-12.9086
-12.9003
-12.8906
-12.8799
-12.8686
-12.8569
-12.845
-12.8329
-12.8209
-12.809
-12.7972
-12.7854
-12.7738
-12.7623
-12.7507
-12.7391
-12.7275
-12.7157
-12.7037
-12.6915
-12.679
-12.6662
-12.6532
-12.6398
-12.6263
-12.6125
-12.5987
-12.5849
-12.5713
-12.558
-12.5455
-12.5338
-12.5235
-12.5147
-12.5081
-12.5039
-12.5026
-12.5046
-12.5103
-12.5196
-12.5343
-12.557
-12.9139
-12.9348
-12.9481
-12.9559
-12.96
-12.9603
-12.9573
-12.9514
-12.9431
-12.9329
-12.9213
-12.9087
-12.8953
-12.8816
-12.8677
-12.8537
-12.8398
-12.826
-12.8124
-12.7989
-12.7856
-12.7723
-12.7591
-12.7459
-12.7325
-12.719
-12.7053
-12.6913
-12.6769
-12.6622
-12.647
-12.6315
-12.6156
-12.5994
-12.5829
-12.5664
-12.5499
-12.5337
-12.5181
-12.5035
-12.4902
-12.4788
-12.4697
-12.4635
-12.4607
-12.462
-12.4678
-12.478
-12.495
-12.5215
-12.9493
-12.9741
-12.9894
-12.9981
-13.0021
-13.0018
-12.9975
-12.9899
-12.9796
-12.9672
-12.9533
-12.9383
-12.9227
-12.9067
-12.8907
-12.8746
-12.8587
-12.8431
-12.8276
-12.8124
-12.7974
-12.7825
-12.7677
-12.7528
-12.7378
-12.7227
-12.7073
-12.6915
-12.6753
-12.6586
-12.6414
-12.6237
-12.6054
-12.5867
-12.5675
-12.548
-12.5285
-12.5091
-12.4901
-12.472
-12.4553
-12.4406
-12.4285
-12.4197
-12.4149
-12.415
-12.4204
-12.4315
-12.4505
-12.4812
-12.9895
-13.0183
-13.0357
-13.0451
-13.0488
-13.0472
-13.0411
-13.0311
-13.0183
-13.0032
-12.9865
-12.9689
-12.9507
-12.9322
-12.9138
-12.8956
-12.8776
-12.86
-12.8428
-12.8258
-12.8091
-12.7926
-12.7762
-12.7598
-12.7433
-12.7265
-12.7095
-12.6921
-12.6741
-12.6555
-12.6363
-12.6164
-12.5958
-12.5745
-12.5525
-12.5299
-12.507
-12.4841
-12.4614
-12.4394
-12.4187
-12.4
-12.3841
-12.372
-12.3645
-12.3627
-12.3673
-12.3787
-12.4
-12.4351
-13.0355
-13.0688
-13.0883
-13.0979
-13.1007
-13.0972
-13.0885
-13.0755
-13.0593
-13.0409
-13.021
-13.0002
-12.979
-12.9579
-12.9369
-12.9163
-12.8962
-12.8766
-12.8575
-12.8388
-12.8205
-12.8025
-12.7845
-12.7666
-12.7487
-12.7305
-12.7119
-12.6929
-12.6732
-12.6529
-12.6317
-12.6097
-12.5867
-12.5627
-12.5379
-12.5121
-12.4857
-12.4589
-12.432
-12.4055
-12.3802
-12.3568
-12.3363
-12.3198
-12.3086
-12.304
-12.3071
-12.3185
-12.3418
-12.3818
-13.0886
-13.1271
-13.1486
-13.1579
-13.159
-13.1526
-13.1402
-13.1232
-13.1029
-13.0804
-13.0565
-13.0321
-13.0075
-12.9833
-12.9596
-12.9365
-12.9141
-12.8925
-12.8716
-12.8512
-12.8313
-12.8117
-12.7924
-12.7732
-12.7538
-12.7343
-12.7143
-12.6938
-12.6726
-12.6506
-12.6276
-12.6035
-12.5782
-12.5516
-12.5238
-12.4947
-12.4646
-12.4336
-12.402
-12.3706
-12.3398
-12.3108
-12.2846
-12.2626
-12.2465
-12.2379
-12.2384
-12.249
-12.2742
-12.3197
-13.1509
-13.1952
-13.2185
-13.2267
-13.2248
-13.2142
-13.1968
-13.1745
-13.1489
-13.1213
-13.0927
-13.064
-13.0357
-13.0081
-12.9814
-12.9557
-12.931
-12.9073
-12.8846
-12.8625
-12.8412
-12.8202
-12.7996
-12.7791
-12.7586
-12.7378
-12.7166
-12.6948
-12.6721
-12.6486
-12.6238
-12.5978
-12.5703
-12.5412
-12.5104
-12.4779
-12.4439
-12.4084
-12.3718
-12.3347
-12.2977
-12.2619
-12.2287
-12.1998
-12.1771
-12.1629
-12.1594
-12.1681
-12.1949
-12.2464
-13.2246
-13.2756
-13.3003
-13.3061
-13.2995
-13.2828
-13.2586
-13.2293
-13.197
-13.1633
-13.1292
-13.0955
-13.0629
-13.0316
-13.0017
-12.9733
-12.9463
-12.9206
-12.8961
-12.8725
-12.8498
-12.8276
-12.8058
-12.7843
-12.7627
-12.7408
-12.7185
-12.6956
-12.6717
-12.6468
-12.6205
-12.5926
-12.563
-12.5315
-12.4978
-12.462
-12.4239
-12.3837
-12.3416
-12.2982
-12.2541
-12.2104
-12.1686
-12.1308
-12.0995
-12.0775
-12.0679
-12.0732
-12.1008
-12.1593
-13.3131
-13.3722
-13.3974
-13.3987
-13.3847
-13.3593
-13.3258
-13.2875
-13.2468
-13.2056
-13.165
-13.1258
-13.0885
-13.0532
-13.02
-12.9889
-12.9596
-12.9319
-12.9058
-12.8808
-12.8568
-12.8336
-12.8109
-12.7884
-12.7659
-12.7432
-12.7201
-12.6962
-12.6713
-12.6452
-12.6175
-12.5881
-12.5566
-12.5228
-12.4864
-12.4472
-12.405
-12.3599
-12.312
-12.2616
-12.2094
-12.1565
-12.1044
-12.0554
-12.0127
-11.9799
-11.9612
-11.9606
-11.9879
-12.0543
-13.4216
-13.49
-13.5139
-13.5072
-13.482
-13.4441
-13.3982
-13.3483
-13.2973
-13.2472
-13.1991
-13.1537
-13.1113
-13.0719
-13.0354
-13.0016
-12.9701
-12.9407
-12.9131
-12.887
-12.862
-12.8379
-12.8145
-12.7913
-12.7682
-12.7449
-12.7211
-12.6965
-12.6709
-12.6438
-12.6151
-12.5843
-12.5511
-12.5152
-12.4763
-12.4339
-12.3878
-12.3377
-12.2837
-12.2258
-12.1646
-12.1009
-12.0364
-11.9736
-11.9159
-11.8683
-11.8361
-11.8256
-11.8505
-11.9259
-13.5573
-13.6364
-13.6556
-13.6352
-13.5931
-13.5376
-13.475
-13.4104
-13.3469
-13.2865
-13.23
-13.178
-13.1303
-13.0868
-13.0471
-13.0107
-12.9773
-12.9465
-12.9177
-12.8907
-12.865
-12.8404
-12.8165
-12.7929
-12.7695
-12.7458
-12.7216
-12.6966
-12.6704
-12.6427
-12.6131
-12.5813
-12.5468
-12.5092
-12.468
-12.4227
-12.3728
-12.3179
-12.2577
-12.1919
-12.1208
-12.045
-11.9659
-11.8858
-11.8088
-11.7407
-11.6887
-11.662
-11.6803
-11.7656
-13.7327
-13.8225
-13.8301
-13.7867
-13.719
-13.6389
-13.5545
-13.4716
-13.3933
-13.3212
-13.2558
-13.1968
-13.144
-13.0966
-13.054
-13.0156
-12.9807
-12.9487
-12.9192
-12.8917
-12.8657
-12.8408
-12.8167
-12.7931
-12.7695
-12.7458
-12.7215
-12.6963
-12.6699
-12.6419
-12.6119
-12.5794
-12.544
-12.5051
-12.462
-12.4142
-12.361
-12.3016
-12.2353
-12.1616
-12.0801
-11.9908
-11.8946
-11.7936
-11.6918
-11.5956
-11.5146
-11.4615
-11.4654
-11.5599
-13.9689
-14.0649
-14.0471
-13.9655
-13.8596
-13.7457
-13.6334
-13.5284
-13.4333
-13.3486
-13.2739
-13.2084
-13.1508
-13.1002
-13.0554
-13.0155
-12.9796
-12.9471
-12.9174
-12.8897
-12.8638
-12.8391
-12.8152
-12.7918
-12.7685
-12.745
-12.721
-12.696
-12.6697
-12.6417
-12.6116
-12.5789
-12.543
-12.5032
-12.459
-12.4093
-12.3533
-12.29
-12.2183
-12.1369
-12.0449
-11.9413
-11.8261
-11.7003
-11.567
-11.4331
-11.3094
-11.2137
-11.1881
-11.2858
-14.3047
-14.3889
-14.3182
-14.1739
-14.0119
-13.8527
-13.7057
-13.5753
-13.4621
-13.3648
-13.2816
-13.2104
-13.1492
-13.0963
-13.0502
-13.0097
-12.9737
-12.9414
-12.9119
-12.8848
-12.8594
-12.8352
-12.812
-12.7892
-12.7665
-12.7436
-12.7201
-12.6956
-12.6699
-12.6423
-12.6126
-12.5801
-12.5443
-12.5043
-12.4595
-12.4088
-12.3511
-12.2849
-12.2087
-12.1207
-12.0189
-11.9011
-11.7657
-11.6116
-11.44
-11.256
-11.0707
-10.9062
-10.8216
-10.9018
-14.8119
-14.832
-14.6547
-14.409
-14.1671
-13.9496
-13.7621
-13.6047
-13.4739
-13.3656
-13.2757
-13.2007
-13.1375
-13.084
-13.0379
-12.998
-12.9628
-12.9314
-12.903
-12.8769
-12.8525
-12.8295
-12.8072
-12.7854
-12.7637
-12.7417
-12.7191
-12.6956
-12.6707
-12.644
-12.6151
-12.5834
-12.5483
-12.5089
-12.4645
-12.4138
-12.3556
-12.288
-12.2091
-12.1163
-12.0066
-11.8762
-11.721
-11.537
-11.321
-11.0734
-10.8013
-10.5272
-10.3268
-10.3322
-15.6211
-15.4441
-15.064
-14.6615
-14.3092
-14.0213
-13.7905
-13.6075
-13.4624
-13.3467
-13.2535
-13.1776
-13.1151
-13.0628
-13.0184
-12.9803
-12.947
-12.9174
-12.8908
-12.8664
-12.8436
-12.822
-12.8012
-12.7807
-12.7603
-12.7396
-12.7183
-12.696
-12.6723
-12.647
-12.6194
-12.589
-12.5553
-12.5174
-12.4743
-12.4249
-12.3677
-12.3008
-12.2216
-12.1269
-12.0126
-11.8732
-11.7017
-11.4892
-11.2259
-10.9016
-10.5113
-10.069
-9.65285
-9.44316
-17.0286
-16.2654
-15.5217
-14.897
-14.4085
-14.0439
-13.7745
-13.5736
-13.4217
-13.3049
-13.2135
-13.1407
-13.0817
-13.033
-12.9921
-12.9572
-12.9269
-12.9
-12.8759
-12.8537
-12.833
-12.8133
-12.7942
-12.7755
-12.7567
-12.7376
-12.7178
-12.6971
-12.6751
-12.6514
-12.6256
-12.5972
-12.5655
-12.5299
-12.4893
-12.4426
-12.3882
-12.3241
-12.2477
-12.1551
-12.0415
-11.8996
-11.7193
-11.4863
-11.1803
-10.7737
-10.2365
-9.55824
-8.75978
-7.93003
-19.864
-17.2648
-15.8467
-14.9619
-14.3564
-13.9475
-13.6698
-13.475
-13.3337
-13.2283
-13.1475
-13.0841
-13.0332
-12.9914
-12.9566
-12.9268
-12.9009
-12.878
-12.8572
-12.8381
-12.8202
-12.803
-12.7862
-12.7696
-12.7529
-12.7358
-12.7181
-12.6994
-12.6796
-12.6582
-12.6349
-12.6092
-12.5806
-12.5484
-12.5118
-12.4697
-12.4207
-12.3629
-12.2938
-12.2097
-12.1057
-11.9738
-11.8026
-11.5736
-11.2563
-10.8004
-10.1363
-9.17951
-7.67536
-4.95724
-24.7326
-18.3478
-15.6829
-14.5861
-13.9915
-13.6394
-13.4222
-13.2786
-13.1771
-13.1022
-13.0448
-12.9995
-12.963
-12.9329
-12.9075
-12.8856
-12.8663
-12.849
-12.833
-12.8181
-12.8039
-12.7901
-12.7764
-12.7627
-12.7488
-12.7344
-12.7194
-12.7035
-12.6866
-12.6684
-12.6486
-12.6268
-12.6027
-12.5757
-12.5451
-12.5103
-12.4701
-12.4232
-12.3676
-12.3007
-12.2188
-12.1161
-11.9831
-11.8034
-11.5449
-11.1437
-10.4833
-9.29182
-6.51003
5.71531e-05
)
;

boundaryField
{
    movingWallTop
    {
        type            zeroGradient;
    }
    movingWallBottom
    {
        type            zeroGradient;
    }
    fixedWalls
    {
        type            zeroGradient;
    }
    frontAndBack
    {
        type            empty;
    }
}


// ************************************************************************* //
