/*--------------------------------*- C++ -*----------------------------------*\
  =========                 |
  \\      /  F ield         | OpenFOAM: The Open Source CFD Toolbox
   \\    /   O peration     | Website:  https://openfoam.org
    \\  /    A nd           | Version:  7
     \\/     M anipulation  |
\*---------------------------------------------------------------------------*/
FoamFile
{
    version     2.0;
    format      ascii;
    class       surfaceScalarField;
    location    "0.0636";
    object      phi;
}
// * * * * * * * * * * * * * * * * * * * * * * * * * * * * * * * * * * * * * //

dimensions      [0 3 -1 0 0 0 0];

internalField   nonuniform List<scalar> 
4900
(
-5.55541e-06
5.55541e-06
-1.0161e-05
4.60561e-06
-1.29489e-05
2.78785e-06
-1.46694e-05
1.72049e-06
-1.57722e-05
1.10285e-06
-1.65115e-05
7.39251e-07
-1.70325e-05
5.21038e-07
-1.74172e-05
3.84741e-07
-1.77123e-05
2.95045e-07
-1.79452e-05
2.32916e-07
-1.81331e-05
1.8792e-07
-1.82872e-05
1.54091e-07
-1.84151e-05
1.27841e-07
-1.8522e-05
1.06911e-07
-1.86118e-05
8.98097e-08
-1.86873e-05
7.55205e-08
-1.87506e-05
6.33237e-08
-1.88033e-05
5.26978e-08
-1.88466e-05
4.32546e-08
-1.88813e-05
3.46995e-08
-1.89081e-05
2.68032e-08
-1.89275e-05
1.93837e-08
-1.89397e-05
1.22924e-08
-1.89452e-05
5.4047e-09
-1.89438e-05
-1.38876e-09
-1.89356e-05
-8.18498e-09
-1.89205e-05
-1.50795e-08
-1.88983e-05
-2.21668e-08
-1.88688e-05
-2.9548e-08
-1.88314e-05
-3.73371e-08
-1.87858e-05
-4.56684e-08
-1.87311e-05
-5.47067e-08
-1.86664e-05
-6.46614e-08
-1.85906e-05
-7.58052e-08
-1.85021e-05
-8.85027e-08
-1.83989e-05
-1.03252e-07
-1.82781e-05
-1.20752e-07
-1.81361e-05
-1.42004e-07
-1.79676e-05
-1.68495e-07
-1.77651e-05
-2.0251e-07
-1.75174e-05
-2.477e-07
-1.72072e-05
-3.10156e-07
-1.68068e-05
-4.00463e-07
-1.62691e-05
-5.37666e-07
-1.55129e-05
-7.56254e-07
-1.43969e-05
-1.11592e-06
-1.26819e-05
-1.71507e-06
-9.94608e-06
-2.73578e-06
-5.4525e-06
-4.49357e-06
-5.4525e-06
-1.1901e-08
5.56731e-06
-2.13071e-06
6.72442e-06
-4.8583e-06
5.51544e-06
-7.27628e-06
4.13847e-06
-9.21556e-06
3.04213e-06
-1.07288e-05
2.25252e-06
-1.19093e-05
1.70155e-06
-1.28401e-05
1.31547e-06
-1.35843e-05
1.03934e-06
-1.41881e-05
8.36693e-07
-1.46842e-05
6.83982e-07
-1.5096e-05
5.65929e-07
-1.54406e-05
4.72464e-07
-1.57305e-05
3.96799e-07
-1.5975e-05
3.34241e-07
-1.61809e-05
2.81468e-07
-1.63537e-05
2.36072e-07
-1.64972e-05
1.96273e-07
-1.66147e-05
1.60727e-07
-1.67084e-05
1.284e-07
-1.67801e-05
9.84793e-08
-1.6831e-05
7.03144e-08
-1.68621e-05
4.33702e-08
-1.68739e-05
1.7195e-08
-1.68667e-05
-8.60575e-09
-1.68405e-05
-3.43923e-08
-1.6795e-05
-6.05075e-08
-1.67299e-05
-8.72972e-08
-1.66443e-05
-1.15128e-07
-1.65372e-05
-1.44411e-07
-1.64073e-05
-1.75625e-07
-1.62526e-05
-2.09353e-07
-1.6071e-05
-2.46328e-07
-1.58593e-05
-2.87492e-07
-1.56137e-05
-3.34082e-07
-1.53292e-05
-3.87762e-07
-1.49991e-05
-4.50806e-07
-1.46148e-05
-5.26386e-07
-1.41642e-05
-6.19011e-07
-1.36315e-05
-7.35241e-07
-1.29944e-05
-8.84802e-07
-1.22222e-05
-1.08239e-06
-1.12722e-05
-1.35045e-06
-1.00866e-05
-1.72322e-06
-8.59163e-06
-2.25127e-06
-6.70708e-06
-3.00046e-06
-4.39339e-06
-4.02877e-06
-1.81873e-06
-5.31044e-06
1.24278e-07
-6.43658e-06
-5.32823e-06
1.03241e-06
4.5349e-06
5.46766e-07
7.21006e-06
-9.92832e-07
7.05504e-06
-2.88902e-06
6.03465e-06
-4.74802e-06
4.90113e-06
-6.40933e-06
3.91383e-06
-7.83352e-06
3.12574e-06
-9.03363e-06
2.51557e-06
-1.004e-05
2.04569e-06
-1.08847e-05
1.68143e-06
-1.15962e-05
1.39548e-06
-1.21978e-05
1.16751e-06
-1.2708e-05
9.82708e-07
-1.31415e-05
8.30315e-07
-1.35098e-05
7.02456e-07
-1.38216e-05
5.93312e-07
-1.40841e-05
4.98522e-07
-1.43026e-05
4.14775e-07
-1.44813e-05
3.39516e-07
-1.46237e-05
2.70745e-07
-1.47321e-05
2.06869e-07
-1.48084e-05
1.46597e-07
-1.48539e-05
8.8857e-08
-1.48694e-05
3.27381e-08
-1.48554e-05
-2.25593e-08
-1.48121e-05
-7.77659e-08
-1.4739e-05
-1.33578e-07
-1.46356e-05
-1.90692e-07
-1.45009e-05
-2.49844e-07
-1.43335e-05
-3.11847e-07
-1.41314e-05
-3.77641e-07
-1.38924e-05
-4.48354e-07
-1.36134e-05
-5.25377e-07
-1.32904e-05
-6.1047e-07
-1.29186e-05
-7.05902e-07
-1.24917e-05
-8.14642e-07
-1.20019e-05
-9.40637e-07
-1.14391e-05
-1.08919e-06
-1.07906e-05
-1.26749e-06
-1.00405e-05
-1.48539e-06
-9.16884e-06
-1.75641e-06
-8.15228e-06
-2.09895e-06
-6.96527e-06
-2.53746e-06
-5.58605e-06
-3.10243e-06
-4.01132e-06
-3.826e-06
-2.2878e-06
-4.72399e-06
-5.7268e-07
-5.74389e-06
7.66768e-07
-6.64988e-06
1.08775e-06
-6.75757e-06
-4.24048e-06
9.06172e-07
3.62873e-06
1.22785e-06
6.88839e-06
6.41705e-07
7.64118e-06
-5.26402e-07
7.20276e-06
-1.94757e-06
6.3223e-06
-3.40356e-06
5.36981e-06
-4.77736e-06
4.49954e-06
-6.01919e-06
3.7574e-06
-7.11646e-06
3.14296e-06
-8.07451e-06
2.63948e-06
-8.9059e-06
2.22687e-06
-9.62504e-06
1.88665e-06
-1.02457e-05
1.60339e-06
-1.07802e-05
1.36476e-06
-1.12388e-05
1.16106e-06
-1.16302e-05
9.84706e-07
-1.19614e-05
8.29782e-07
-1.22383e-05
6.9163e-07
-1.24653e-05
5.66555e-07
-1.26462e-05
4.51601e-07
-1.27837e-05
3.44367e-07
-1.288e-05
2.42877e-07
-1.29366e-05
1.45472e-07
-1.29546e-05
5.07314e-08
-1.29345e-05
-4.26026e-08
-1.28766e-05
-1.35677e-07
-1.27806e-05
-2.29586e-07
-1.26459e-05
-3.25414e-07
-1.24714e-05
-4.24298e-07
-1.22558e-05
-5.27475e-07
-1.19971e-05
-6.36356e-07
-1.16928e-05
-7.52599e-07
-1.134e-05
-8.78212e-07
-1.09348e-05
-1.01568e-06
-1.04726e-05
-1.16811e-06
-9.94777e-06
-1.33947e-06
-9.35359e-06
-1.53482e-06
-8.68212e-06
-1.76066e-06
-7.92429e-06
-2.02532e-06
-7.07028e-06
-2.3394e-06
-6.11065e-06
-2.71604e-06
-5.0388e-06
-3.1708e-06
-3.85602e-06
-3.72024e-06
-2.58114e-06
-4.37731e-06
-1.26719e-06
-5.13995e-06
-2.6492e-08
-5.96469e-06
9.42809e-07
-6.71319e-06
1.34939e-06
-7.05647e-06
9.17032e-07
-6.32521e-06
-3.32344e-06
6.7149e-07
2.95724e-06
1.2425e-06
6.31738e-06
1.2209e-06
7.66278e-06
6.47439e-07
7.77622e-06
-2.9041e-07
7.26015e-06
-1.41029e-06
6.4897e-06
-2.57985e-06
5.66909e-06
-3.71772e-06
4.89527e-06
-4.78041e-06
4.20565e-06
-5.74858e-06
3.60765e-06
-6.61696e-06
3.09525e-06
-7.38772e-06
2.65741e-06
-8.06656e-06
2.28224e-06
-8.66046e-06
1.95867e-06
-9.1765e-06
1.67709e-06
-9.62123e-06
1.42944e-06
-1.00005e-05
1.20904e-06
-1.03193e-05
1.01041e-06
-1.05818e-05
8.29044e-07
-1.07914e-05
6.61237e-07
-1.09509e-05
5.03908e-07
-1.10625e-05
3.54473e-07
-1.11278e-05
2.10734e-07
-1.11478e-05
7.07812e-08
-1.11234e-05
-6.70789e-08
-1.10546e-05
-2.04398e-07
-1.09416e-05
-3.42649e-07
-1.07837e-05
-4.83285e-07
-1.05802e-05
-6.27804e-07
-1.03299e-05
-7.77816e-07
-1.00311e-05
-9.35113e-07
-9.68194e-06
-1.10176e-06
-9.27995e-06
-1.2802e-06
-8.82226e-06
-1.47336e-06
-8.30557e-06
-1.6848e-06
-7.72617e-06
-1.91887e-06
-7.08011e-06
-2.18088e-06
-6.36351e-06
-2.47726e-06
-5.57319e-06
-2.81564e-06
-4.70785e-06
-3.20474e-06
-3.77012e-06
-3.65378e-06
-2.77003e-06
-4.17089e-06
-1.73062e-06
-4.75964e-06
-6.96253e-07
-5.41169e-06
2.56677e-07
-6.09288e-06
1.01017e-06
-6.71819e-06
1.40782e-06
-7.11084e-06
1.29724e-06
-6.94589e-06
6.66585e-07
-5.69455e-06
-2.65686e-06
4.80059e-07
2.47718e-06
1.07472e-06
5.72272e-06
1.33804e-06
7.39946e-06
1.16957e-06
7.94469e-06
6.36932e-07
7.79279e-06
-1.41266e-07
7.2679e-06
-1.05301e-06
6.58083e-06
-2.01293e-06
5.8552e-06
-2.96345e-06
5.15617e-06
-3.8693e-06
4.5135e-06
-4.71097e-06
3.93691e-06
-5.47922e-06
3.42566e-06
-6.17113e-06
2.97415e-06
-6.78739e-06
2.57492e-06
-7.33058e-06
2.22028e-06
-7.80414e-06
1.903e-06
-8.2117e-06
1.6166e-06
-8.55678e-06
1.35549e-06
-8.84255e-06
1.11482e-06
-9.0718e-06
8.90486e-07
-9.24686e-06
6.78967e-07
-9.36963e-06
4.77243e-07
-9.4416e-06
2.827e-07
-9.46386e-06
9.30402e-08
-9.43714e-06
-9.37917e-08
-9.36186e-06
-2.79682e-07
-9.23809e-06
-4.66415e-07
-9.06564e-06
-6.55735e-07
-8.84404e-06
-8.49411e-07
-8.57254e-06
-1.04931e-06
-8.2502e-06
-1.25746e-06
-7.87582e-06
-1.47613e-06
-7.44809e-06
-1.70793e-06
-6.96559e-06
-1.95587e-06
-6.42692e-06
-2.22346e-06
-5.83101e-06
-2.51478e-06
-5.17737e-06
-2.83452e-06
-4.46677e-06
-3.18785e-06
-3.70219e-06
-3.58023e-06
-2.89024e-06
-4.01669e-06
-2.04347e-06
-4.50055e-06
-1.18348e-06
-5.03088e-06
-3.45199e-07
-5.59792e-06
4.18378e-07
-6.17526e-06
1.03262e-06
-6.70712e-06
1.40376e-06
-7.08932e-06
1.43753e-06
-7.14461e-06
1.08976e-06
-6.59812e-06
4.69713e-07
-5.07451e-06
-2.18714e-06
3.47653e-07
2.12953e-06
8.89201e-07
5.18117e-06
1.27338e-06
7.01527e-06
1.35278e-06
7.86529e-06
1.11974e-06
8.02583e-06
6.34271e-07
7.75336e-06
-2.43938e-08
7.23949e-06
-7.82852e-07
6.61365e-06
-1.58301e-06
5.95633e-06
-2.38295e-06
5.31345e-06
-3.15455e-06
4.70851e-06
-3.88016e-06
4.15127e-06
-4.54955e-06
3.64354e-06
-5.15748e-06
3.18285e-06
-5.70189e-06
2.7647e-06
-6.18269e-06
2.3838e-06
-6.6009e-06
2.03481e-06
-6.95808e-06
1.71267e-06
-7.25602e-06
1.41276e-06
-7.49649e-06
1.13096e-06
-7.68114e-06
8.63612e-07
-7.8114e-06
6.07507e-07
-7.88849e-06
3.59791e-07
-7.91338e-06
1.17926e-07
-7.88679e-06
-1.20382e-07
-7.80923e-06
-3.57242e-07
-7.68101e-06
-5.94639e-07
-7.50225e-06
-8.34496e-07
-7.27293e-06
-1.07873e-06
-6.99294e-06
-1.3293e-06
-6.6621e-06
-1.5883e-06
-6.28026e-06
-1.85797e-06
-5.84739e-06
-2.14079e-06
-5.36377e-06
-2.43949e-06
-4.83016e-06
-2.75707e-06
-4.24817e-06
-3.09678e-06
-3.62074e-06
-3.46194e-06
-2.95289e-06
-3.85571e-06
-2.25265e-06
-4.28047e-06
-1.53252e-06
-4.73681e-06
-8.11285e-07
-5.22179e-06
-1.1618e-07
-5.72598e-06
5.14861e-07
-6.22896e-06
1.03191e-06
-6.69231e-06
1.37476e-06
-7.04997e-06
1.48156e-06
-7.19612e-06
1.3104e-06
-6.97345e-06
8.80655e-07
-6.16837e-06
3.35515e-07
-4.52937e-06
-1.85163e-06
2.60262e-07
1.86927e-06
7.31109e-07
4.71033e-06
1.15009e-06
6.59629e-06
1.36903e-06
7.64635e-06
1.34152e-06
8.05334e-06
1.08506e-06
8.00982e-06
6.47231e-07
7.67732e-06
8.31694e-08
7.17772e-06
-5.56396e-07
6.59589e-06
-1.23003e-06
5.98709e-06
-1.90635e-06
5.38482e-06
-2.56284e-06
4.80776e-06
-3.18416e-06
4.26486e-06
-3.76033e-06
3.75902e-06
-4.28525e-06
3.28961e-06
-4.75546e-06
2.85402e-06
-5.16933e-06
2.44868e-06
-5.52634e-06
2.06968e-06
-5.82668e-06
1.7131e-06
-6.07096e-06
1.37523e-06
-6.25993e-06
1.05259e-06
-6.39445e-06
7.42027e-07
-6.47533e-06
4.40672e-07
-6.50333e-06
1.45919e-07
-6.4791e-06
-1.44609e-07
-6.40324e-06
-4.33104e-07
-6.27626e-06
-7.2162e-07
-6.09863e-06
-1.01212e-06
-5.87084e-06
-1.30652e-06
-5.59343e-06
-1.60672e-06
-5.26706e-06
-1.91467e-06
-4.89267e-06
-2.23237e-06
-4.47157e-06
-2.5619e-06
-4.00567e-06
-2.90539e-06
-3.49777e-06
-3.26498e-06
-2.95189e-06
-3.64265e-06
-2.37384e-06
-4.03999e-06
-1.77185e-06
-4.4577e-06
-1.15745e-06
-4.89486e-06
-5.46575e-07
-5.34769e-06
3.93457e-08
-5.80771e-06
5.72257e-07
-6.2589e-06
1.01706e-06
-6.67376e-06
1.33276e-06
-7.00802e-06
1.47692e-06
-7.19413e-06
1.4158e-06
-7.135e-06
1.14298e-06
-6.70064e-06
7.07602e-07
-5.73299e-06
2.4716e-07
-4.06892e-06
-1.60447e-06
2.01951e-07
1.66731e-06
6.05882e-07
4.3064e-06
1.01844e-06
6.18373e-06
1.30857e-06
7.35623e-06
1.41455e-06
7.94736e-06
1.32723e-06
8.09714e-06
1.06907e-06
7.93548e-06
6.76962e-07
7.56982e-06
1.90841e-07
7.08202e-06
-3.52637e-07
6.53056e-06
-9.22786e-07
5.95497e-06
-1.49545e-06
5.38043e-06
-2.05245e-06
4.82186e-06
-2.58063e-06
4.2872e-06
-3.07077e-06
3.77975e-06
-3.51663e-06
3.29988e-06
-3.91418e-06
2.84622e-06
-4.26094e-06
2.41644e-06
-4.55553e-06
2.0077e-06
-4.79731e-06
1.617e-06
-4.98611e-06
1.24139e-06
-5.12209e-06
8.78007e-07
-5.2056e-06
5.24182e-07
-5.23711e-06
1.77432e-07
-5.21718e-06
-1.64537e-07
-5.14644e-06
-5.03851e-07
-5.02557e-06
-8.42487e-07
-4.85538e-06
-1.1823e-06
-4.63683e-06
-1.52507e-06
-4.37109e-06
-1.87246e-06
-4.05964e-06
-2.22612e-06
-3.70441e-06
-2.5876e-06
-3.30793e-06
-2.95838e-06
-2.87356e-06
-3.33976e-06
-2.40575e-06
-3.73278e-06
-1.91044e-06
-4.13796e-06
-1.39548e-06
-4.55495e-06
-8.71185e-07
-4.982e-06
-3.50963e-07
-5.41508e-06
1.48039e-07
-5.84669e-06
6.04427e-07
-6.26409e-06
9.92441e-07
-6.64691e-06
1.28275e-06
-6.96407e-06
1.4449e-06
-7.17017e-06
1.45258e-06
-7.20181e-06
1.29281e-06
-6.97523e-06
9.79786e-07
-6.38761e-06
5.72183e-07
-5.32539e-06
1.8804e-07
-3.68478e-06
-1.41643e-06
1.61749e-07
1.50556e-06
5.08374e-07
3.95977e-06
8.96694e-07
5.79541e-06
1.21698e-06
7.03594e-06
1.40521e-06
7.75914e-06
1.43758e-06
8.06477e-06
1.31887e-06
8.05419e-06
1.07054e-06
7.81815e-06
7.21401e-07
7.43115e-06
3.01376e-07
6.95059e-06
-1.62046e-07
6.41839e-06
-6.45411e-07
5.86379e-06
-1.1297e-06
5.30615e-06
-1.60006e-06
4.75756e-06
-2.04525e-06
4.22494e-06
-2.45699e-06
3.71161e-06
-2.82932e-06
3.21855e-06
-3.15807e-06
2.74519e-06
-3.44044e-06
2.29007e-06
-3.67462e-06
1.85118e-06
-3.85952e-06
1.42629e-06
-3.99461e-06
1.01309e-06
-4.07973e-06
6.09301e-07
-4.11503e-06
2.12741e-07
-4.10093e-06
-1.78641e-07
-4.03803e-06
-5.66752e-07
-3.92716e-06
-9.53352e-07
-3.76941e-06
-1.34006e-06
-3.56613e-06
-1.72835e-06
-3.31904e-06
-2.11955e-06
-3.03033e-06
-2.51483e-06
-2.70277e-06
-2.91516e-06
-2.33987e-06
-3.32128e-06
-1.94611e-06
-3.73352e-06
-1.52719e-06
-4.1517e-06
-1.09033e-06
-4.57483e-06
-6.44586e-07
-5.00069e-06
-2.01296e-07
-5.42529e-06
2.2562e-07
-5.842e-06
6.1939e-07
-6.24046e-06
9.60405e-07
-6.60511e-06
1.22676e-06
-6.91327e-06
1.39573e-06
-7.13303e-06
1.44663e-06
-7.22107e-06
1.36578e-06
-7.12096e-06
1.15383e-06
-6.76327e-06
8.35105e-07
-6.06889e-06
4.67377e-07
-4.95766e-06
1.47116e-07
-3.36452e-06
-1.26931e-06
1.32929e-07
1.37264e-06
4.32024e-07
3.66068e-06
7.89741e-07
5.43769e-06
1.11636e-06
6.70932e-06
1.3518e-06
7.5237e-06
1.46563e-06
7.95094e-06
1.45124e-06
8.06858e-06
1.31833e-06
7.95106e-06
1.08586e-06
7.66363e-06
7.76637e-07
7.25981e-06
4.13763e-07
6.78127e-06
1.84749e-08
6.25908e-06
-3.9083e-07
5.71546e-06
-7.98893e-07
5.16563e-06
-1.19346e-06
4.61951e-06
-1.56495e-06
4.08311e-06
-1.90605e-06
3.55964e-06
-2.21127e-06
3.05042e-06
-2.47664e-06
2.55544e-06
-2.69932e-06
2.07386e-06
-2.8774e-06
1.60437e-06
-3.00968e-06
1.14537e-06
-3.09552e-06
6.95138e-07
-3.13473e-06
2.51954e-07
-3.12753e-06
-1.85842e-07
-3.07448e-06
-6.19805e-07
-2.97648e-06
-1.05135e-06
-2.83481e-06
-1.48173e-06
-2.65115e-06
-1.91201e-06
-2.42764e-06
-2.34306e-06
-2.167e-06
-2.77546e-06
-1.87264e-06
-3.20953e-06
-1.54878e-06
-3.64513e-06
-1.20069e-06
-4.08161e-06
-8.34813e-07
-4.51758e-06
-4.59071e-07
-4.95057e-06
-8.30397e-08
-5.37672e-06
2.81823e-07
-5.79015e-06
6.22068e-07
-6.18224e-06
9.22307e-07
-6.5407e-06
1.1656e-06
-6.8484e-06
1.33436e-06
-7.08203e-06
1.41205e-06
-7.21073e-06
1.38602e-06
-7.19503e-06
1.25155e-06
-6.9865e-06
1.01731e-06
-6.52903e-06
7.11273e-07
-5.76286e-06
3.85676e-07
-4.63207e-06
1.17694e-07
-3.09654e-06
-1.15162e-06
1.11447e-07
1.26119e-06
3.71288e-07
3.40084e-06
6.97325e-07
5.11166e-06
1.01677e-06
6.38988e-06
1.27599e-06
7.26447e-06
1.44274e-06
7.7842e-06
1.50379e-06
8.00752e-06
1.46049e-06
7.99436e-06
1.32382e-06
7.80031e-06
1.11007e-06
7.47356e-06
8.37624e-07
7.05371e-06
5.24736e-07
6.57197e-06
1.88212e-07
6.05198e-06
-1.57227e-07
5.51107e-06
-4.99162e-07
4.96144e-06
-8.27415e-07
4.41136e-06
-1.13384e-06
3.86607e-06
-1.41207e-06
3.32865e-06
-1.65723e-06
2.80059e-06
-1.86567e-06
2.28231e-06
-2.03478e-06
1.77349e-06
-2.16278e-06
1.27337e-06
-2.24857e-06
7.80924e-07
-2.29163e-06
2.95019e-07
-2.29197e-06
-1.85498e-07
-2.25006e-06
-6.61715e-07
-2.16682e-06
-1.13459e-06
-2.04363e-06
-1.60492e-06
-1.88236e-06
-2.07328e-06
-1.68547e-06
-2.53995e-06
-1.45602e-06
-3.00492e-06
-1.19782e-06
-3.46772e-06
-9.15555e-07
-3.9274e-06
-6.14884e-07
-4.38229e-06
-3.02626e-07
-4.82983e-06
1.31165e-08
-5.26631e-06
3.22834e-07
-5.68644e-06
6.1556e-07
-6.08287e-06
8.78935e-07
-6.44562e-06
1.09948e-06
-6.76125e-06
1.26319e-06
-7.01211e-06
1.35659e-06
-7.17542e-06
1.36837e-06
-7.22252e-06
1.29191e-06
-7.11857e-06
1.12839e-06
-6.82297e-06
8.90574e-07
-6.29121e-06
6.06378e-07
-5.47866e-06
3.21017e-07
-4.34671e-06
9.57528e-08
-2.87127e-06
-1.05587e-06
9.48448e-08
1.16634e-06
3.21995e-07
3.17369e-06
6.17502e-07
4.81615e-06
9.22311e-07
6.08507e-06
1.18979e-06
6.99699e-06
1.38857e-06
7.58542e-06
1.50209e-06
7.894e-06
1.52617e-06
7.97028e-06
1.46571e-06
7.86076e-06
1.33151e-06
7.60776e-06
1.13748e-06
7.24774e-06
8.98636e-07
6.81081e-06
6.29684e-07
6.32093e-06
3.44166e-07
5.79658e-06
5.40298e-08
5.25158e-06
-2.30522e-07
4.69591e-06
-5.01011e-07
4.13656e-06
-7.50554e-07
3.57819e-06
-9.73692e-07
3.02373e-06
-1.1662e-06
2.47481e-06
-1.32491e-06
1.93219e-06
-1.44755e-06
1.39601e-06
-1.53265e-06
8.6602e-07
-1.57938e-06
3.41746e-07
-1.58752e-06
-1.77358e-07
-1.55741e-06
-6.91823e-07
-1.48992e-06
-1.20208e-06
-1.38647e-06
-1.70837e-06
-1.24903e-06
-2.21072e-06
-1.08017e-06
-2.70881e-06
-8.83162e-07
-3.20193e-06
-6.62e-07
-3.68888e-06
-4.21536e-07
-4.16786e-06
-1.67558e-07
-4.63626e-06
9.31207e-08
-5.09051e-06
3.5259e-07
-5.52578e-06
6.01822e-07
-5.93567e-06
8.30736e-07
-6.31179e-06
1.02839e-06
-6.64327e-06
1.18337e-06
-6.91624e-06
1.2845e-06
-7.11324e-06
1.32184e-06
-7.21275e-06
1.28822e-06
-7.1889e-06
1.18124e-06
-7.01159e-06
1.00562e-06
-6.64735e-06
7.75679e-07
-6.06127e-06
5.17368e-07
-5.22035e-06
2.68894e-07
-4.09823e-06
7.88384e-08
-2.68122e-06
-9.77028e-07
8.15919e-08
1.08475e-06
2.81118e-07
2.97416e-06
5.4802e-07
4.54925e-06
8.34202e-07
5.79889e-06
1.09968e-06
6.73151e-06
1.31533e-06
7.36976e-06
1.4634e-06
7.74594e-06
1.5363e-06
7.89738e-06
1.53461e-06
7.86246e-06
1.46469e-06
7.67768e-06
1.33655e-06
7.37588e-06
1.16207e-06
6.98529e-06
9.53652e-07
6.52935e-06
7.23306e-07
6.02693e-06
4.82077e-07
5.49281e-06
2.39754e-07
4.93823e-06
4.75232e-09
4.37156e-06
-2.15881e-07
3.79883e-06
-4.16383e-07
3.22423e-06
-5.9216e-07
2.65059e-06
-7.39665e-07
2.0797e-06
-8.56269e-07
1.51262e-06
-9.40161e-07
9.49911e-07
-9.90251e-07
3.91836e-07
-1.00611e-06
-1.61499e-07
-9.87919e-07
-7.10013e-07
-9.36452e-07
-1.25354e-06
-8.53067e-07
-1.79176e-06
-7.39723e-07
-2.32406e-06
-5.99013e-07
-2.84952e-06
-4.34209e-07
-3.36673e-06
-2.4932e-07
-3.87377e-06
-4.91486e-08
-4.36803e-06
1.60652e-07
-4.84606e-06
3.73537e-07
-5.3034e-06
5.82069e-07
-5.73432e-06
7.77965e-07
-6.13157e-06
9.52237e-07
-6.48606e-06
1.09547e-06
-6.7865e-06
1.19825e-06
-7.01902e-06
1.25188e-06
-7.16687e-06
1.24932e-06
-7.21019e-06
1.18645e-06
-7.12604e-06
1.06366e-06
-6.8888e-06
8.87505e-07
-6.47119e-06
6.72309e-07
-5.84607e-06
4.41214e-07
-4.98925e-06
2.26047e-07
-3.88306e-06
6.54051e-08
-2.52058e-06
-9.11623e-07
7.07006e-08
1.01405e-06
2.46482e-07
2.79838e-06
4.86819e-07
4.30891e-06
7.52339e-07
5.53337e-06
1.00901e-06
6.47484e-06
1.23056e-06
7.14822e-06
1.39933e-06
7.57716e-06
1.50592e-06
7.79079e-06
1.54791e-06
7.82046e-06
1.52832e-06
7.69728e-06
1.45391e-06
7.45029e-06
1.33372e-06
7.10548e-06
1.17788e-06
6.68518e-06
9.96722e-07
6.20809e-06
8.00133e-07
5.6894e-06
5.97186e-07
5.14118e-06
3.95926e-07
4.57282e-06
2.03287e-07
3.99147e-06
2.50871e-08
3.40243e-06
-1.33916e-07
2.80959e-06
-2.69951e-07
2.21573e-06
-3.80144e-07
1.62281e-06
-4.62438e-07
1.0322e-06
-5.15519e-07
4.44917e-07
-5.38758e-07
-1.3826e-07
-5.32168e-07
-7.16603e-07
-4.96379e-07
-1.28933e-06
-4.3263e-07
-1.85551e-06
-3.42773e-07
-2.41392e-06
-2.29299e-07
-2.96299e-06
-9.53584e-08
-3.50067e-06
5.51992e-08
-4.02433e-06
2.17795e-07
-4.53063e-06
3.871e-07
-5.01537e-06
5.57034e-07
-5.47333e-06
7.2081e-07
-5.89809e-06
8.7103e-07
-6.28179e-06
9.99875e-07
-6.61491e-06
1.09941e-06
-6.88603e-06
1.16204e-06
-7.08164e-06
1.18113e-06
-7.18596e-06
1.15188e-06
-7.18094e-06
1.07231e-06
-7.04647e-06
9.44476e-07
-6.76097e-06
7.75627e-07
-6.30234e-06
5.79203e-07
-5.64965e-06
3.75277e-07
-4.78533e-06
1.90113e-07
-3.6979e-06
5.44442e-08
-2.38491e-06
-8.57179e-07
6.15126e-08
9.52539e-07
2.16515e-07
2.64338e-06
4.32169e-07
4.09326e-06
6.76081e-07
5.28946e-06
9.1941e-07
6.23151e-06
1.13887e-06
6.92875e-06
1.31772e-06
7.39832e-06
1.44575e-06
7.66276e-06
1.51869e-06
7.74752e-06
1.53708e-06
7.67888e-06
1.5051e-06
7.48227e-06
1.42936e-06
7.18122e-06
1.3179e-06
6.79665e-06
1.17935e-06
6.34664e-06
1.02232e-06
5.84642e-06
8.54998e-07
5.3085e-06
6.8484e-07
4.74298e-06
5.18448e-07
4.15786e-06
3.61496e-07
3.55938e-06
2.18731e-07
2.95236e-06
9.40053e-08
2.34046e-06
-9.67426e-09
1.72649e-06
-9.00869e-08
1.11262e-06
-1.45742e-07
5.00572e-07
-1.75833e-07
-1.0817e-07
-1.80196e-07
-7.1224e-07
-1.5929e-07
-1.31024e-06
-1.14182e-07
-1.90062e-06
-4.65432e-08
-2.48156e-06
4.13353e-08
-3.05087e-06
1.46535e-07
-3.60587e-06
2.6549e-07
-4.14329e-06
3.93983e-07
-4.65912e-06
5.27142e-07
-5.14853e-06
6.5948e-07
-5.60567e-06
7.84958e-07
-6.02357e-06
8.9712e-07
-6.39395e-06
9.89296e-07
-6.70708e-06
1.05491e-06
-6.95165e-06
1.08792e-06
-7.11465e-06
1.08335e-06
-7.1814e-06
1.03804e-06
-7.13563e-06
9.5142e-07
-6.95985e-06
8.26398e-07
-6.63595e-06
6.70173e-07
-6.14612e-06
4.94814e-07
-5.47429e-06
3.1738e-07
-4.60789e-06
1.59368e-07
-3.53989e-06
4.52742e-08
-2.27081e-06
-8.11904e-07
5.35754e-08
8.98964e-07
1.90072e-07
2.50688e-06
3.82668e-07
3.90066e-06
6.04616e-07
5.06751e-06
8.31551e-07
6.00458e-06
1.0431e-06
6.7172e-06
1.22384e-06
7.21758e-06
1.36352e-06
7.52308e-06
1.45678e-06
7.65426e-06
1.50248e-06
7.63319e-06
1.50278e-06
7.48198e-06
1.46228e-06
7.22171e-06
1.38719e-06
6.87174e-06
1.28453e-06
6.4493e-06
1.16163e-06
5.96932e-06
1.02569e-06
5.44445e-06
8.83442e-07
4.88523e-06
7.41001e-07
4.3003e-06
6.03744e-07
3.69664e-06
4.76265e-07
3.07984e-06
3.6237e-07
2.45435e-06
2.65099e-07
1.82376e-06
1.86762e-07
1.19096e-06
1.28972e-07
5.58362e-07
9.26909e-08
-7.18881e-08
7.82515e-08
-6.978e-07
8.53866e-08
-1.31737e-06
1.13241e-07
-1.92847e-06
1.60378e-07
-2.52869e-06
2.24779e-07
-3.11527e-06
3.03843e-07
-3.68493e-06
3.94382e-07
-4.23383e-06
4.92632e-07
-4.75737e-06
5.94271e-07
-5.25017e-06
6.94472e-07
-5.70587e-06
7.87992e-07
-6.11709e-06
8.69304e-07
-6.47526e-06
9.32816e-07
-6.77059e-06
9.73153e-07
-6.99199e-06
9.85543e-07
-7.12704e-06
9.66302e-07
-7.16215e-06
9.13407e-07
-7.08273e-06
8.27125e-07
-6.87357e-06
7.10651e-07
-6.51947e-06
5.70657e-07
-6.00612e-06
4.17618e-07
-5.32125e-06
2.65766e-07
-4.45604e-06
1.3254e-07
-3.40666e-06
3.74192e-08
-2.17569e-06
-7.74485e-07
4.65696e-08
8.52394e-07
1.66306e-07
2.38714e-06
3.37202e-07
3.72976e-06
5.3714e-07
4.86757e-06
7.45602e-07
5.79612e-06
9.44959e-07
6.51784e-06
1.12131e-06
7.04123e-06
1.26482e-06
7.37956e-06
1.36966e-06
7.54942e-06
1.43355e-06
7.5693e-06
1.45721e-06
7.45832e-06
1.44362e-06
7.2353e-06
1.39739e-06
6.91797e-06
1.32413e-06
6.52256e-06
1.22993e-06
6.06352e-06
1.12095e-06
5.55342e-06
1.00315e-06
5.00302e-06
8.82065e-07
4.42139e-06
7.62651e-07
3.81605e-06
6.49239e-07
3.19325e-06
5.45486e-07
2.55811e-06
4.54379e-07
1.91487e-06
3.78243e-07
1.26709e-06
3.18769e-07
6.17835e-07
2.77038e-07
-3.01573e-08
2.53546e-07
-6.74308e-07
2.48223e-07
-1.31205e-06
2.60448e-07
-1.9407e-06
2.89062e-07
-2.55731e-06
3.32368e-07
-3.15858e-06
3.88141e-07
-3.74071e-06
4.53637e-07
-4.29932e-06
5.25605e-07
-4.82934e-06
6.00325e-07
-5.32489e-06
6.73664e-07
-5.77921e-06
7.41171e-07
-6.18459e-06
7.9821e-07
-6.5323e-06
8.40161e-07
-6.81254e-06
8.62674e-07
-7.0145e-06
8.62006e-07
-7.12637e-06
8.35419e-07
-7.13557e-06
7.8164e-07
-7.02895e-06
7.01343e-07
-6.79327e-06
5.97613e-07
-6.41574e-06
4.76308e-07
-5.88482e-06
3.46236e-07
-5.19118e-06
2.19034e-07
-4.32884e-06
1.08672e-07
-3.2963e-06
3.05384e-08
-2.09756e-06
-7.43947e-07
4.02641e-08
8.1213e-07
1.44584e-07
2.28282e-06
2.94891e-07
3.57946e-06
4.7292e-07
4.68954e-06
6.61479e-07
5.60756e-06
8.4547e-07
6.33385e-06
1.0126e-06
6.8741e-06
1.15375e-06
7.23842e-06
1.26301e-06
7.44016e-06
1.33747e-06
7.49484e-06
1.3768e-06
7.41899e-06
1.38273e-06
7.22936e-06
1.35858e-06
6.94213e-06
1.30866e-06
6.57248e-06
1.23794e-06
6.13424e-06
1.1516e-06
5.63976e-06
1.05478e-06
5.09985e-06
9.52358e-07
4.52381e-06
8.48811e-07
3.9196e-06
7.48118e-07
3.29394e-06
6.53709e-07
2.65252e-06
5.6844e-07
2.00014e-06
4.94593e-07
1.34094e-06
4.33887e-07
6.78542e-07
3.87491e-07
1.62382e-08
3.56046e-07
-6.42863e-07
3.39678e-07
-1.29568e-06
3.38013e-07
-1.93903e-06
3.50191e-07
-2.56949e-06
3.74871e-07
-3.18326e-06
4.10243e-07
-3.77608e-06
4.54042e-07
-4.34312e-06
5.0357e-07
-4.87887e-06
5.55729e-07
-5.37705e-06
6.07088e-07
-5.83057e-06
6.53961e-07
-6.23147e-06
6.92542e-07
-6.57088e-06
7.19071e-07
-6.83907e-06
7.30061e-07
-7.02549e-06
7.22573e-07
-7.11888e-06
6.94541e-07
-7.10754e-06
6.45135e-07
-6.97955e-06
5.75123e-07
-6.72326e-06
4.87209e-07
-6.32783e-06
3.86276e-07
-5.78389e-06
2.7947e-07
-5.08437e-06
1.76064e-07
-4.22543e-06
8.70413e-08
-3.20728e-06
2.43817e-08
-2.0349e-06
-7.19565e-07
3.44881e-08
7.77642e-07
1.24425e-07
2.19289e-06
2.55037e-07
3.44884e-06
4.11317e-07
4.53326e-06
5.7898e-07
5.4399e-06
7.45245e-07
6.16759e-06
8.99431e-07
6.71992e-06
1.03331e-06
7.10454e-06
1.14122e-06
7.33226e-06
1.21993e-06
7.41612e-06
1.26843e-06
7.37049e-06
1.28752e-06
7.21027e-06
1.27944e-06
6.95021e-06
1.24743e-06
6.60448e-06
1.19543e-06
6.18625e-06
1.12767e-06
5.70752e-06
1.0485e-06
5.17902e-06
9.62131e-07
4.61018e-06
8.72496e-07
4.00923e-06
7.83169e-07
3.38327e-06
6.97285e-07
2.7384e-06
6.17511e-07
2.07991e-06
5.46033e-07
1.41242e-06
4.84551e-07
7.40024e-07
4.34291e-07
6.6498e-08
3.96017e-07
-6.04588e-07
3.7004e-07
-1.26971e-06
3.56235e-07
-1.92523e-06
3.54052e-07
-2.5673e-06
3.62522e-07
-3.19173e-06
3.80271e-07
-3.79383e-06
4.05534e-07
-4.36838e-06
4.36179e-07
-4.90951e-06
4.6974e-07
-5.41061e-06
5.03469e-07
-5.8643e-06
5.34414e-07
-6.26241e-06
5.59526e-07
-6.59599e-06
5.75804e-07
-6.85535e-06
5.80473e-07
-7.03016e-06
5.71216e-07
-7.10963e-06
5.46422e-07
-7.08274e-06
5.05467e-07
-6.93859e-06
4.48992e-07
-6.66679e-06
3.79142e-07
-6.25798e-06
2.99737e-07
-5.70448e-06
2.16307e-07
-5.00094e-06
1.35968e-07
-4.1451e-06
6.7091e-08
-3.1384e-06
1.87621e-08
-1.98657e-06
-7.00803e-07
2.91129e-08
7.48529e-07
1.05459e-07
2.11654e-06
2.17081e-07
3.33722e-06
3.51787e-07
4.39856e-06
4.97854e-07
5.29383e-06
6.44633e-07
6.02081e-06
7.83024e-07
6.58153e-06
9.05797e-07
6.98176e-06
1.00772e-06
7.23033e-06
1.08555e-06
7.33829e-06
1.13784e-06
7.31821e-06
1.16471e-06
7.1834e-06
1.16755e-06
6.94737e-06
1.14871e-06
6.62332e-06
1.11119e-06
6.22376e-06
1.05839e-06
5.76032e-06
9.93864e-07
5.24354e-06
9.21145e-07
4.6829e-06
8.43613e-07
4.08677e-06
7.64392e-07
3.46249e-06
6.86277e-07
2.81652e-06
6.11696e-07
2.15449e-06
5.42688e-07
1.48142e-06
4.80898e-07
8.01814e-07
4.27575e-07
1.19822e-07
3.83578e-07
-5.60592e-07
3.49393e-07
-1.23552e-06
3.25134e-07
-1.90097e-06
3.10558e-07
-2.55273e-06
3.05074e-07
-3.18624e-06
3.07752e-07
-3.79651e-06
3.17334e-07
-4.37797e-06
3.32256e-07
-4.92443e-06
3.50675e-07
-5.42903e-06
3.70507e-07
-5.88413e-06
3.89492e-07
-6.2814e-06
4.05277e-07
-6.61178e-06
4.15522e-07
-6.8656e-06
4.18052e-07
-7.03269e-06
4.11016e-07
-7.10259e-06
3.93094e-07
-7.06482e-06
3.63699e-07
-6.9092e-06
3.23186e-07
-6.62627e-06
2.73031e-07
-6.20783e-06
2.15944e-07
-5.64739e-06
1.559e-07
-4.9409e-06
9.80322e-08
-4.08723e-06
4.83883e-08
-3.08876e-06
1.3537e-08
-1.95172e-06
-6.87266e-07
2.40385e-08
7.24491e-07
8.73946e-08
2.05318e-06
1.80574e-07
3.24404e-06
2.93863e-07
4.28527e-06
4.1784e-07
5.16985e-06
5.43822e-07
5.89483e-06
6.64248e-07
6.4611e-06
7.72943e-07
6.87307e-06
8.65258e-07
7.13801e-06
9.38092e-07
7.26546e-06
9.89801e-07
7.2665e-06
1.02004e-06
7.15316e-06
1.02953e-06
6.93787e-06
1.01988e-06
6.63298e-06
9.93265e-07
6.25037e-06
9.52306e-07
5.80128e-06
8.99818e-07
5.29603e-06
8.38675e-07
4.74405e-06
7.71685e-07
4.15376e-06
7.01494e-07
3.53268e-06
6.30522e-07
2.88749e-06
5.60919e-07
2.22409e-06
4.94541e-07
1.5478e-06
4.32935e-07
8.63419e-07
3.77341e-07
1.75416e-07
3.28691e-07
-5.11942e-07
2.8762e-07
-1.19445e-06
2.54468e-07
-1.86782e-06
2.29294e-07
-2.52755e-06
2.11876e-07
-3.16882e-06
2.01726e-07
-3.78636e-06
1.98091e-07
-4.37433e-06
1.9997e-07
-4.92631e-06
2.06127e-07
-5.43518e-06
2.15123e-07
-5.89313e-06
2.25352e-07
-6.29163e-06
2.35098e-07
-6.62153e-06
2.42616e-07
-6.87311e-06
2.4623e-07
-7.0363e-06
2.44451e-07
-7.10081e-06
2.36126e-07
-7.05649e-06
2.20584e-07
-6.89366e-06
1.97791e-07
-6.60348e-06
1.68479e-07
-6.17851e-06
1.34239e-07
-5.61315e-06
9.75429e-08
-4.9042e-06
6.16803e-08
-4.05136e-06
3.0591e-08
-3.05767e-06
8.59548e-09
-1.92973e-06
-6.78671e-07
1.91855e-08
7.05305e-07
6.99939e-08
2.00238e-06
1.45139e-07
3.1689e-06
2.37139e-07
4.19327e-06
3.38672e-07
5.06832e-06
4.42896e-07
5.7906e-06
5.43734e-07
6.36026e-06
6.36099e-07
6.7807e-06
7.16019e-07
7.05809e-06
7.80682e-07
7.2008e-06
8.28401e-07
7.21878e-06
8.58518e-07
7.12304e-06
8.71261e-07
6.92513e-06
8.67582e-07
6.63666e-06
8.4898e-07
6.26898e-06
8.17342e-07
5.83292e-06
7.7479e-07
5.33859e-06
7.23554e-07
4.79528e-06
6.65866e-07
4.21144e-06
6.03882e-07
3.59467e-06
5.3962e-07
2.95175e-06
4.74918e-07
2.2888e-06
4.11412e-07
1.61131e-06
3.50522e-07
9.24309e-07
2.93445e-07
2.32493e-07
2.41157e-07
-4.59654e-07
1.94418e-07
-1.14771e-06
1.53777e-07
-1.82718e-06
1.19576e-07
-2.49335e-06
9.1955e-08
-3.1412e-06
7.08555e-08
-3.76526e-06
5.60216e-08
-4.3595e-06
4.70035e-08
-4.91729e-06
4.31621e-08
-5.43134e-06
4.36791e-08
-5.89364e-06
4.75737e-08
-6.29552e-06
5.37313e-08
-6.62768e-06
6.09447e-08
-6.88033e-06
6.79725e-08
-7.04333e-06
7.36144e-08
-7.10645e-06
7.68022e-08
-7.05968e-06
7.67032e-08
-6.89356e-06
7.28264e-08
-6.5996e-06
6.51221e-08
-6.17081e-06
5.40568e-08
-5.60209e-06
4.06482e-08
-4.89079e-06
2.64426e-08
-4.03716e-06
1.34238e-08
-3.04465e-06
3.84957e-09
-1.92015e-06
-6.74821e-07
1.44879e-08
6.90817e-07
5.30587e-08
1.9638e-06
1.10455e-07
3.1115e-06
1.81255e-07
4.12247e-06
2.6009e-07
4.98948e-06
3.41861e-07
5.70883e-06
4.2194e-07
6.28018e-06
4.96338e-07
6.7063e-06
5.61821e-07
6.99261e-06
6.15965e-07
7.14665e-06
6.57156e-07
7.17759e-06
6.8455e-07
7.09565e-06
6.97985e-07
6.9117e-06
6.97879e-07
6.63676e-06
6.85113e-07
6.28174e-06
6.60915e-07
5.85711e-06
6.26749e-07
5.37275e-06
5.84217e-07
4.83781e-06
5.34981e-07
4.26068e-06
4.80693e-07
3.64895e-06
4.22946e-07
3.0095e-06
3.63243e-07
2.3485e-06
3.02969e-07
1.67158e-06
2.43384e-07
9.83895e-07
1.85611e-07
2.90266e-07
1.30642e-07
-4.04685e-07
7.93363e-08
-1.0964e-06
3.24271e-08
-1.78027e-06
-9.47787e-09
-2.45145e-06
-4.58949e-08
-3.10479e-06
-7.64655e-08
-3.73469e-06
-1.00962e-07
-4.335e-06
-1.19292e-07
-4.89896e-06
-1.31513e-07
-5.41912e-06
-1.37835e-07
-5.88732e-06
-1.38632e-07
-6.29473e-06
-1.34442e-07
-6.63187e-06
-1.25964e-07
-6.88881e-06
-1.14039e-07
-7.05525e-06
-9.96236e-08
-7.12087e-06
-8.37442e-08
-7.07556e-06
-6.74398e-08
-6.90986e-06
-5.1693e-08
-6.61535e-06
-3.73563e-08
-6.18515e-06
-2.50837e-08
-5.61436e-06
-1.52786e-08