/*--------------------------------*- C++ -*----------------------------------*\
  =========                 |
  \\      /  F ield         | OpenFOAM: The Open Source CFD Toolbox
   \\    /   O peration     | Website:  https://openfoam.org
    \\  /    A nd           | Version:  7
     \\/     M anipulation  |
\*---------------------------------------------------------------------------*/
FoamFile
{
    version     2.0;
    format      ascii;
    class       volVectorField;
    location    "0.0636";
    object      U;
}
// * * * * * * * * * * * * * * * * * * * * * * * * * * * * * * * * * * * * * //

dimensions      [0 1 -1 0 0 0 0];

internalField   nonuniform List<vector> 
2500
(
(-0.293797 0.153719 0)
(-0.397929 0.128718 0)
(-0.577969 0.0737926 0)
(-0.696269 0.0408775 0)
(-0.765271 0.0233994 0)
(-0.809628 0.0141484 0)
(-0.840245 0.009165 0)
(-0.862368 0.00635902 0)
(-0.879029 0.00467179 0)
(-0.892014 0.00358344 0)
(-0.902392 0.00283585 0)
(-0.910845 0.00229504 0)
(-0.917825 0.00188718 0)
(-0.923644 0.00156896 0)
(-0.928526 0.00131341 0)
(-0.932631 0.00110286 0)
(-0.936082 0.000925231 0)
(-0.938967 0.000771951 0)
(-0.941354 0.000636788 0)
(-0.943294 0.000515075 0)
(-0.944825 0.000403237 0)
(-0.945975 0.000298463 0)
(-0.946764 0.000198487 0)
(-0.947205 0.000101424 0)
(-0.947304 5.65014e-06 0)
(-0.947066 -9.03371e-05 0)
(-0.946486 -0.000187922 0)
(-0.945557 -0.000288517 0)
(-0.944269 -0.00039364 0)
(-0.942602 -0.000505009 0)
(-0.940534 -0.000624668 0)
(-0.938034 -0.000755162 0)
(-0.935062 -0.000899766 0)
(-0.931566 -0.00106283 0)
(-0.927478 -0.00125027 0)
(-0.922712 -0.00147039 0)
(-0.917148 -0.00173519 0)
(-0.910628 -0.00206259 0)
(-0.902934 -0.00248059 0)
(-0.893757 -0.00303513 0)
(-0.882646 -0.0038058 0)
(-0.86892 -0.0049381 0)
(-0.851493 -0.00671085 0)
(-0.828567 -0.0096754 0)
(-0.797127 -0.0149193 0)
(-0.752025 -0.0244967 0)
(-0.682516 -0.042143 0)
(-0.564909 -0.0746095 0)
(-0.389299 -0.128118 0)
(-0.290202 -0.152368 0)
(-0.00515839 0.3029 0)
(-0.0270653 0.307345 0)
(-0.171356 0.217807 0)
(-0.308273 0.146611 0)
(-0.417256 0.0992531 0)
(-0.502572 0.069006 0)
(-0.569059 0.0497644 0)
(-0.621119 0.0372311 0)
(-0.66243 0.0287526 0)
(-0.695715 0.0227813 0)
(-0.722908 0.018415 0)
(-0.745384 0.0151144 0)
(-0.764131 0.0125452 0)
(-0.779871 0.0104925 0)
(-0.793137 0.00881322 0)
(-0.804326 0.00740862 0)
(-0.813739 0.00620878 0)
(-0.821606 0.00516283 0)
(-0.828101 0.0042329 0)
(-0.833356 0.00339016 0)
(-0.837473 0.00261219 0)
(-0.840525 0.00188116 0)
(-0.842567 0.00118252 0)
(-0.843633 0.000504039 0)
(-0.843746 -0.00016494 0)
(-0.842911 -0.000834114 0)
(-0.841125 -0.00151272 0)
(-0.838368 -0.00221009 0)
(-0.834611 -0.00293617 0)
(-0.829809 -0.00370216 0)
(-0.823902 -0.00452125 0)
(-0.816811 -0.00540965 0)
(-0.808435 -0.00638786 0)
(-0.798641 -0.00748262 0)
(-0.787261 -0.00872958 0)
(-0.774076 -0.0101773 0)
(-0.7588 -0.0118937 0)
(-0.741055 -0.0139756 0)
(-0.720338 -0.0165652 0)
(-0.695967 -0.0198776 0)
(-0.667006 -0.0242486 0)
(-0.632161 -0.0302194 0)
(-0.589622 -0.0386861 0)
(-0.536873 -0.051161 0)
(-0.470598 -0.0701726 0)
(-0.386945 -0.0996689 0)
(-0.281726 -0.145072 0)
(-0.151448 -0.21258 0)
(-0.0164089 -0.298157 0)
(-0.000978132 -0.294658 0)
(0.0321094 0.264054 0)
(0.0563419 0.36237 0)
(-0.00372325 0.325043 0)
(-0.0960736 0.260639 0)
(-0.192565 0.201014 0)
(-0.281497 0.154009 0)
(-0.358748 0.1191 0)
(-0.424101 0.0935325 0)
(-0.478907 0.0746732 0)
(-0.524842 0.0605338 0)
(-0.563454 0.0497192 0)
(-0.596042 0.0412715 0)
(-0.623647 0.0345332 0)
(-0.647091 0.0290478 0)
(-0.667015 0.0244933 0)
(-0.683924 0.0206386 0)
(-0.698208 0.017314 0)
(-0.710175 0.0143933 0)
(-0.720063 0.0117805 0)
(-0.728057 0.00940136 0)
(-0.734299 0.0071974 0)
(-0.738897 0.00512156 0)
(-0.741928 0.00313509 0)
(-0.743446 0.0012052 0)
(-0.743483 -0.000696842 0)
(-0.742051 -0.00259717 0)
(-0.739145 -0.00452076 0)
(-0.734743 -0.00649274 0)
(-0.728805 -0.00853973 0)
(-0.721271 -0.0106914 0)
(-0.71206 -0.0129824 0)
(-0.701067 -0.0154547 0)
(-0.688157 -0.0181605 0)
(-0.673158 -0.0211671 0)
(-0.655853 -0.024562 0)
(-0.635968 -0.028462 0)
(-0.613154 -0.0330254 0)
(-0.586969 -0.0384698 0)
(-0.556852 -0.0451 0)
(-0.522089 -0.0533483 0)
(-0.481788 -0.0638359 0)
(-0.434857 -0.0774612 0)
(-0.380031 -0.0955155 0)
(-0.316013 -0.119806 0)
(-0.241937 -0.15267 0)
(-0.158492 -0.196433 0)
(-0.0699883 -0.251266 0)
(0.0122766 -0.309848 0)
(0.0620461 -0.343163 0)
(0.0330417 -0.249868 0)
(0.0271399 0.205274 0)
(0.0636704 0.357958 0)
(0.0549086 0.375911 0)
(0.0074206 0.338888 0)
(-0.0604025 0.286356 0)
(-0.134225 0.235587 0)
(-0.205885 0.192339 0)
(-0.271602 0.157302 0)
(-0.330102 0.129425 0)
(-0.381371 0.10729 0)
(-0.425946 0.089602 0)
(-0.464542 0.0753108 0)
(-0.497884 0.0636072 0)
(-0.526629 0.0538793 0)
(-0.551343 0.0456666 0)
(-0.572499 0.0386211 0)
(-0.590489 0.032478 0)
(-0.605631 0.0270333 0)
(-0.618179 0.0221281 0)
(-0.628338 0.0176373 0)
(-0.636267 0.0134602 0)
(-0.642089 0.00951489 0)
(-0.645896 0.00573322 0)
(-0.647751 0.00205695 0)
(-0.647695 -0.00156513 0)
(-0.645747 -0.00517978 0)
(-0.641904 -0.00883155 0)
(-0.636145 -0.012565 0)
(-0.628431 -0.0164269 0)
(-0.618699 -0.0204688 0)
(-0.606866 -0.02475 0)
(-0.592825 -0.0293411 0)
(-0.576439 -0.0343286 0)
(-0.557538 -0.0398212 0)
(-0.535913 -0.0459573 0)
(-0.51131 -0.0529163 0)
(-0.483421 -0.0609329 0)
(-0.451879 -0.0703169 0)
(-0.416256 -0.0814789 0)
(-0.376073 -0.0949635 0)
(-0.330825 -0.111487 0)
(-0.280072 -0.131968 0)
(-0.223599 -0.157521 0)
(-0.161763 -0.189327 0)
(-0.0961173 -0.228192 0)
(-0.0304645 -0.273305 0)
(0.0275511 -0.319319 0)
(0.0649398 -0.350677 0)
(0.0657492 -0.331826 0)
(0.0268772 -0.189855 0)
(0.0184366 0.163546 0)
(0.0529733 0.331882 0)
(0.0681471 0.387543 0)
(0.0521217 0.380499 0)
(0.0120703 0.345047 0)
(-0.0412797 0.300752 0)
(-0.0997576 0.25717 0)
(-0.158152 0.21815 0)
(-0.213518 0.184692 0)
(-0.264423 0.15655 0)
(-0.310347 0.133022 0)
(-0.351274 0.113318 0)
(-0.387437 0.0967116 0)
(-0.41917 0.0825853 0)
(-0.446836 0.0704323 0)
(-0.470781 0.0598449 0)
(-0.491315 0.0504967 0)
(-0.508711 0.0421263 0)
(-0.523197 0.0345236 0)
(-0.534962 0.0275184 0)
(-0.544162 0.0209713 0)
(-0.550918 0.0147668 0)
(-0.555323 0.00880725 0)
(-0.557445 0.00300863 0)
(-0.557328 -0.00270345 0)
(-0.554997 -0.00839705 0)
(-0.550456 -0.0141368 0)
(-0.54369 -0.0199869 0)
(-0.534668 -0.026014 0)
(-0.523338 -0.0322904 0)
(-0.509632 -0.0388977 0)
(-0.49346 -0.0459312 0)
(-0.474713 -0.053505 0)
(-0.453258 -0.0617586 0)
(-0.42894 -0.0708645 0)
(-0.401583 -0.0810388 0)
(-0.370993 -0.0925521 0)
(-0.336968 -0.105743 0)
(-0.299322 -0.121033 0)
(-0.257924 -0.138931 0)
(-0.212774 -0.16003 0)
(-0.164138 -0.184958 0)
(-0.112763 -0.214245 0)
(-0.0602238 -0.247997 0)
(-0.00940528 -0.28521 0)
(0.0349207 -0.322404 0)
(0.0655791 -0.351171 0)
(0.0734353 -0.354369 0)
(0.053208 -0.301707 0)
(0.0179154 -0.148267 0)
(0.0119306 0.134827 0)
(0.0406523 0.301128 0)
(0.0647921 0.378927 0)
(0.0675846 0.396867 0)
(0.0488305 0.380561 0)
(0.0145951 0.347822 0)
(-0.0288455 0.309418 0)
(-0.0764826 0.27114 0)
(-0.124787 0.235704 0)
(-0.171514 0.2041 0)
(-0.215367 0.176425 0)
(-0.255682 0.152371 0)
(-0.292197 0.131477 0)
(-0.324879 0.113257 0)
(-0.353828 0.0972595 0)
(-0.379203 0.0830862 0)
(-0.401188 0.0703972 0)
(-0.419963 0.058906 0)
(-0.435698 0.0483731 0)
(-0.448543 0.038598 0)
(-0.458624 0.0294123 0)
(-0.46605 0.0206733 0)
(-0.470902 0.0122587 0)
(-0.473247 0.00406189 0)
(-0.473128 -0.00401222 0)
(-0.470575 -0.0120507 0)
(-0.4656 -0.0201362 0)
(-0.458198 -0.0283497 0)
(-0.448354 -0.0367744 0)
(-0.436036 -0.0454989 0)
(-0.421203 -0.0546209 0)
(-0.4038 -0.0642516 0)
(-0.383764 -0.0745205 0)
(-0.361024 -0.0855808 0)
(-0.335509 -0.0976156 0)
(-0.307154 -0.110843 0)
(-0.275913 -0.125524 0)
(-0.241785 -0.141959 0)
(-0.204848 -0.160491 0)
(-0.165322 -0.181478 0)
(-0.123652 -0.205247 0)
(-0.0806492 -0.231979 0)
(-0.0376726 -0.261499 0)
(0.00313147 -0.292872 0)
(0.0385928 -0.323708 0)
(0.0644203 -0.349032 0)
(0.0754451 -0.359679 0)
(0.0669306 -0.340416 0)
(0.0400879 -0.269001 0)
(0.0114453 -0.12 0)
(0.0078411 0.114388 0)
(0.0308686 0.272121 0)
(0.0567789 0.361317 0)
(0.0695436 0.397534 0)
(0.0652994 0.398488 0)
(0.0464086 0.378701 0)
(0.0168565 0.348422 0)
(-0.0193707 0.314178 0)
(-0.0589389 0.279756 0)
(-0.099359 0.247133 0)
(-0.138918 0.217179 0)
(-0.176513 0.190131 0)
(-0.211478 0.165891 0)
(-0.243452 0.1442 0)
(-0.272272 0.124742 0)
(-0.297896 0.107192 0)
(-0.320355 0.0912464 0)
(-0.339719 0.0766287 0)
(-0.356075 0.0630971 0)
(-0.369514 0.0504403 0)
(-0.380123 0.0384751 0)
(-0.38798 0.0270425 0)
(-0.39315 0.0160034 0)
(-0.395689 0.00523488 0)
(-0.395639 -0.00537364 0)
(-0.39303 -0.0159236 0)
(-0.387882 -0.0265108 0)
(-0.380207 -0.0372285 0)
(-0.370006 -0.0481705 0)
(-0.357274 -0.0594347 0)
(-0.342005 -0.0711263 0)
(-0.324189 -0.0833611 0)
(-0.30382 -0.0962696 0)
(-0.280901 -0.11 0)
(-0.255455 -0.124719 0)
(-0.227537 -0.140617 0)
(-0.197253 -0.157902 0)
(-0.164793 -0.176787 0)
(-0.130467 -0.197476 0)
(-0.0947701 -0.220112 0)
(-0.0584602 -0.244701 0)
(-0.0226602 -0.270964 0)
(0.0110233 -0.298106 0)
(0.040394 -0.324426 0)
(0.0626478 -0.346756 0)
(0.0745809 -0.359687 0)
(0.0731638 -0.354722 0)
(0.0569069 -0.319686 0)
(0.0299499 -0.239393 0)
(0.00743647 -0.100146 0)
(0.0053914 0.0993928 0)
(0.0238315 0.246662 0)
(0.0484777 0.340515 0)
(0.0658378 0.389054 0)
(0.0707466 0.404016 0)
(0.06318 0.396496 0)
(0.045166 0.375375 0)
(0.0194617 0.347048 0)
(-0.011194 0.315759 0)
(-0.0444666 0.284116 0)
(-0.0785403 0.253597 0)
(-0.112087 0.224938 0)
(-0.144184 0.198418 0)
(-0.174217 0.17405 0)
(-0.201801 0.151701 0)
(-0.226709 0.131166 0)
(-0.248823 0.112218 0)
(-0.268096 0.0946243 0)
(-0.284525 0.0781672 0)
(-0.298132 0.0626455 0)
(-0.308953 0.0478775 0)
(-0.31703 0.0337006 0)
(-0.322405 0.0199689 0)
(-0.325118 0.00655172 0)
(-0.325205 -0.00666979 0)
(-0.322695 -0.019805 0)
(-0.317618 -0.0329568 0)
(-0.309997 -0.0462238 0)
(-0.299855 -0.0597038 0)
(-0.287217 -0.0734958 0)
(-0.272113 -0.0877024 0)
(-0.25458 -0.102433 0)
(-0.234672 -0.117804 0)
(-0.212468 -0.13394 0)
(-0.188081 -0.150974 0)
(-0.161677 -0.16904 0)
(-0.133493 -0.188264 0)
(-0.103872 -0.208745 0)
(-0.0732961 -0.230518 0)
(-0.042438 -0.2535 0)
(-0.0122177 -0.27739 0)
(0.0161375 -0.301524 0)
(0.0410461 -0.324661 0)
(0.0605742 -0.344665 0)
(0.0725548 -0.358113 0)
(0.0749272 -0.359853 0)
(0.0663525 -0.342683 0)
(0.047292 -0.297445 0)
(0.0227186 -0.21418 0)
(0.00504452 -0.0857961 0)
(0.00390522 0.0879911 0)
(0.0188568 0.224814 0)
(0.0412116 0.319377 0)
(0.0601621 0.375688 0)
(0.0704727 0.40132 0)
(0.0708058 0.404428 0)
(0.0617772 0.392273 0)
(0.0450349 0.370634 0)
(0.0226026 0.343748 0)
(-0.00355218 0.31452 0)
(-0.0317281 0.284825 0)
(-0.0605558 0.255789 0)
(-0.0889873 0.228028 0)
(-0.116252 0.201821 0)
(-0.141803 0.177236 0)
(-0.165264 0.154216 0)
(-0.186389 0.132634 0)
(-0.205019 0.112331 0)
(-0.221065 0.0931329 0)
(-0.234479 0.0748688 0)
(-0.245243 0.0573742 0)
(-0.253359 0.0404961 0)
(-0.258841 0.0240931 0)
(-0.26171 0.0080358 0)
(-0.261992 -0.0077946 0)
(-0.259717 -0.023508 0)
(-0.254917 -0.039207 0)
(-0.24763 -0.0549889 0)
(-0.237898 -0.0709474 0)
(-0.225774 -0.0871743 0)
(-0.211323 -0.103761 0)
(-0.194629 -0.120798 0)
(-0.1758 -0.138378 0)
(-0.15498 -0.156587 0)
(-0.132362 -0.175508 0)
(-0.1082 -0.195205 0)
(-0.0828319 -0.215708 0)
(-0.0567056 -0.23699 0)
(-0.0304061 -0.258922 0)
(-0.00469014 -0.281213 0)
(0.0194833 -0.303313 0)
(0.0409322 -0.324287 0)
(0.0582608 -0.342632 0)
(0.0699287 -0.356058 0)
(0.0744329 -0.361246 0)
(0.0706611 -0.353649 0)
(0.058412 -0.327483 0)
(0.0391297 -0.276105 0)
(0.0176107 -0.193133 0)
(0.00359114 -0.0750779 0)
(0.00296568 0.0790074 0)
(0.0152905 0.206123 0)
(0.0351932 0.299201 0)
(0.0541518 0.360044 0)
(0.0673961 0.39345 0)
(0.0729927 0.405271 0)
(0.070651 0.401233 0)
(0.0611511 0.386294 0)
(0.045844 0.364397 0)
(0.0262574 0.338483 0)
(0.00385648 0.310626 0)
(-0.0200741 0.282214 0)
(-0.0444725 0.254125 0)
(-0.0684978 0.226873 0)
(-0.0915055 0.200717 0)
(-0.113015 0.175755 0)
(-0.132678 0.151975 0)
(-0.150247 0.129302 0)
(-0.165553 0.107628 0)
(-0.178484 0.0868245 0)
(-0.18897 0.0667591 0)
(-0.196974 0.0473001 0)
(-0.202479 0.0283216 0)
(-0.205486 0.00970481 0)
(-0.206009 -0.00866081 0)
(-0.204075 -0.0268779 0)
(-0.199719 -0.0450416 0)
(-0.192988 -0.0632404 0)
(-0.183943 -0.0815569 0)
(-0.17266 -0.100068 0)
(-0.159234 -0.118845 0)
(-0.143788 -0.137954 0)
(-0.126477 -0.15745 0)
(-0.107498 -0.177376 0)
(-0.0871022 -0.197754 0)
(-0.0656075 -0.218571 0)
(-0.0434172 -0.239762 0)
(-0.0210366 -0.261178 0)
(0.000906931 -0.282548 0)
(0.0216478 -0.303412 0)
(0.0402735 -0.323046 0)
(0.0557348 -0.34035 0)
(0.06689 -0.353724 0)
(0.0726061 -0.360919 0)
(0.0719515 -0.358921 0)
(0.0645042 -0.343906 0)
(0.0507387 -0.311381 0)
(0.0324762 -0.256629 0)
(0.013943 -0.175625 0)
(0.00266918 -0.0668129 0)
(0.00234039 0.0717153 0)
(0.0126663 0.190057 0)
(0.0302816 0.280494 0)
(0.0484625 0.343646 0)
(0.0630732 0.382509 0)
(0.0720104 0.401213 0)
(0.0744618 0.40417 0)
(0.0705905 0.395491 0)
(0.061189 0.378681 0)
(0.0473578 0.356539 0)
(0.0302793 0.331179 0)
(0.0110798 0.304135 0)
(-0.00924241 0.276464 0)
(-0.0298456 0.248862 0)
(-0.0500451 0.221759 0)
(-0.0692998 0.195392 0)
(-0.0871925 0.169869 0)
(-0.103408 0.145208 0)
(-0.117714 0.121372 0)
(-0.129944 0.0982881 0)
(-0.139982 0.0758661 0)
(-0.147752 0.0540061 0)
(-0.15321 0.0326067 0)
(-0.156335 0.0115684 0)
(-0.157131 -0.00920329 0)
(-0.155615 -0.0297964 0)
(-0.151825 -0.0502918 0)
(-0.145815 -0.0707627 0)
(-0.137658 -0.0912739 0)
(-0.127448 -0.111881 0)
(-0.115307 -0.13263 0)
(-0.101384 -0.153554 0)
(-0.0858703 -0.174667 0)
(-0.0689993 -0.195963 0)
(-0.0510615 -0.2174 0)
(-0.0324135 -0.238893 0)
(-0.0134896 -0.260284 0)
(0.00518614 -0.281323 0)
(0.0229917 -0.301621 0)
(0.0392036 -0.3206 0)
(0.0530063 -0.337429 0)
(0.0635209 -0.350941 0)
(0.0698674 -0.359551 0)
(0.0712729 -0.361172 0)
(0.0672457 -0.353182 0)
(0.0578199 -0.332463 0)
(0.0438186 -0.295598 0)
(0.0271038 -0.239283 0)
(0.0112407 -0.161016 0)
(0.00205387 -0.0602714 0)
(0.00190205 0.0656576 0)
(0.0106759 0.176151 0)
(0.0262598 0.263391 0)
(0.0433039 0.327366 0)
(0.0583071 0.369907 0)
(0.0692228 0.3939 0)
(0.074981 0.402687 0)
(0.0753394 0.399601 0)
(0.0706633 0.38766 0)
(0.0616824 0.369418 0)
(0.0492977 0.346923 0)
(0.0344458 0.32175 0)
(0.018015 0.295062 0)
(0.000798268 0.267684 0)
(-0.0165253 0.240178 0)
(-0.0333925 0.212907 0)
(-0.0493485 0.186086 0)
(-0.0640338 0.159827 0)
(-0.0771704 0.134166 0)
(-0.0885485 0.109094 0)
(-0.0980141 0.0845688 0)
(-0.105459 0.0605295 0)
(-0.110813 0.0369068 0)
(-0.114037 0.0136276 0)
(-0.115119 -0.00937946 0)
(-0.114071 -0.0321818 0)
(-0.110928 -0.0548399 0)
(-0.105747 -0.077406 0)
(-0.0986084 -0.0999221 0)
(-0.0896202 -0.122418 0)
(-0.0789189 -0.144908 0)
(-0.0666752 -0.16739 0)
(-0.0530997 -0.189835 0)
(-0.0384491 -0.212186 0)
(-0.0230338 -0.234342 0)
(-0.00722505 -0.256147 0)
(0.00853788 -0.277368 0)
(0.0237431 -0.29767 0)
(0.0378056 -0.316579 0)
(0.0500744 -0.333445 0)
(0.0598525 -0.347386 0)
(0.0664361 -0.35724 0)
(0.0691809 -0.361508 0)
(0.0676032 -0.358329 0)
(0.0615241 -0.345484 0)
(0.0512512 -0.320482 0)
(0.0377462 -0.280762 0)
(0.0227454 -0.224031 0)
(0.00919229 -0.148768 0)
(0.00162221 -0.0549902 0)
(0.0015798 0.0605368 0)
(0.00911971 0.164032 0)
(0.0229265 0.247862 0)
(0.0386952 0.311687 0)
(0.0534928 0.356583 0)
(0.0654369 0.384543 0)
(0.0733666 0.398073 0)
(0.0767952 0.399831 0)
(0.0757819 0.39236 0)
(0.0707571 0.377923 0)
(0.0623684 0.358432 0)
(0.0513604 0.33543 0)
(0.0384895 0.310121 0)
(0.0244694 0.28341 0)
(0.00994094 0.255956 0)
(-0.00454153 0.22822 0)
(-0.0185121 0.200514 0)
(-0.0315888 0.173033 0)
(-0.0434652 0.145889 0)
(-0.0539016 0.119134 0)
(-0.0627151 0.0927787 0)
(-0.0697718 0.0668071 0)
(-0.0749792 0.0411866 0)
(-0.0782808 0.0158761 0)
(-0.0796514 -0.00916771 0)
(-0.0790944 -0.0339863 0)
(-0.0766402 -0.0586151 0)
(-0.0723457 -0.0830811 0)
(-0.0662949 -0.107399 0)
(-0.0586012 -0.13157 0)
(-0.0494095 -0.155575 0)
(-0.0389003 -0.179373 0)
(-0.0272938 -0.202894 0)
(-0.0148548 -0.22603 0)
(-0.00189728 -0.248628 0)
(0.0112112 -0.270469 0)
(0.024047 -0.291259 0)
(0.036131 -0.3106 0)
(0.046934 -0.327964 0)
(0.0558909 -0.342662 0)
(0.0624261 -0.353809 0)
(0.0659962 -0.36029 0)
(0.0661521 -0.360739 0)
(0.0626269 -0.353534 0)
(0.0554484 -0.336834 0)
(0.0450683 -0.308678 0)
(0.032461 -0.267165 0)
(0.0191686 -0.21072 0)
(0.00759565 -0.138451 0)
(0.0013055 -0.0506644 0)
(0.00133289 0.056152 0)
(0.00786728 0.153409 0)
(0.0201186 0.233819 0)
(0.0345824 0.296873 0)
(0.0488098 0.343154 0)
(0.0611229 0.374023 0)
(0.0703695 0.391339 0)
(0.0759328 0.3972 0)
(0.0776651 0.393713 0)
(0.0757685 0.382845 0)
(0.0706777 0.366332 0)
(0.0629592 0.34564 0)
(0.0532339 0.321961 0)
(0.0421211 0.296239 0)
(0.0302022 0.269194 0)
(0.0180006 0.241364 0)
(0.00597194 0.213137 0)
(-0.00549795 0.184783 0)
(-0.0160901 0.156482 0)
(-0.025547 0.128346 0)
(-0.0336669 0.100441 0)
(-0.0402967 0.0727953 0)
(-0.0453267 0.0454173 0)
(-0.0486853 0.0183012 0)
(-0.0503352 -0.00856459 0)
(-0.0502707 -0.0351918 0)
(-0.0485159 -0.0615877 0)
(-0.0451238 -0.0877506 0)
(-0.0401772 -0.113666 0)
(-0.0337893 -0.139303 0)
(-0.0261063 -0.16461 0)
(-0.0173093 -0.189506 0)
(-0.00761798 -0.213882 0)
(0.00270688 -0.237585 0)
(0.0133607 -0.260412 0)
(0.0239935 -0.282096 0)
(0.0342114 -0.302294 0)
(0.0435799 -0.320565 0)
(0.0516347 -0.336349 0)
(0.0578983 -0.348949 0)
(0.0619078 -0.357505 0)
(0.0632559 -0.36098 0)
(0.0616463 -0.358152 0)
(0.0569649 -0.347635 0)
(0.0493645 -0.327922 0)
(0.0393542 -0.297483 0)
(0.0278522 -0.254919 0)
(0.0161884 -0.199164 0)
(0.0063178 -0.129737 0)
(0.0010639 -0.0470866 0)
(0.00113681 0.0523637 0)
(0.00683185 0.144061 0)
(0.0177104 0.221157 0)
(0.0308898 0.283059 0)
(0.0443259 0.33003 0)
(0.0565502 0.362976 0)
(0.0664745 0.383268 0)
(0.0734291 0.392544 0)
(0.0771361 0.392533 0)
(0.0776319 0.38492 0)
(0.0751805 0.37125 0)
(0.0701939 0.352882 0)
(0.0631646 0.330966 0)
(0.0546132 0.306448 0)
(0.0450513 0.280081 0)
(0.0349564 0.252454 0)
(0.0247584 0.224016 0)
(0.014832 0.195098 0)
(0.00549575 0.16594 0)
(-0.00298687 0.136713 0)
(-0.0104037 0.10753 0)
(-0.0165895 0.0784683 0)
(-0.0214222 0.0495763 0)
(-0.0248183 0.0208857 0)
(-0.0267298 -0.00758134 0)
(-0.0271418 -0.0358048 0)
(-0.0260705 -0.0637614 0)
(-0.0235626 -0.0914194 0)
(-0.0196954 -0.118734 0)
(-0.014577 -0.145641 0)
(-0.0083481 -0.172056 0)
(-0.00118332 -0.197863 0)
(0.00670699 -0.222912 0)
(0.0150753 -0.247012 0)
(0.0236361 -0.269918 0)
(0.0320669 -0.291325 0)
(0.0400113 -0.310852 0)
(0.0470861 -0.328031 0)
(0.0528926 -0.342291 0)
(0.0570359 -0.352945 0)
(0.0591513 -0.359177 0)
(0.0589413 -0.360038 0)
(0.0562225 -0.354456 0)
(0.0509817 -0.341257 0)
(0.043438 -0.319217 0)
(0.0341024 -0.287154 0)
(0.0238024 -0.244045 0)
(0.0136631 -0.189189 0)
(0.00526927 -0.12237 0)
(0.000873239 -0.0441111 0)
(0.000976187 0.0490725 0)
(0.00595429 0.135819 0)
(0.0156067 0.209774 0)
(0.0275426 0.270313 0)
(0.0400537 0.317482 0)
(0.0518697 0.351866 0)
(0.0619941 0.374462 0)
(0.0697544 0.386543 0)
(0.0747992 0.389516 0)
(0.0770504 0.384807 0)
(0.0766411 0.373777 0)
(0.0738548 0.357662 0)
(0.0690695 0.337547 0)
(0.0627108 0.314357 0)
(0.0552162 0.288855 0)
(0.04701 0.261661 0)
(0.0384855 0.233264 0)
(0.0299956 0.204048 0)
(0.0218475 0.174302 0)
(0.0143015 0.144247 0)
(0.00757196 0.114045 0)
(0.00182971 0.083815 0)
(-0.00279528 0.0536471 0)
(-0.00621092 0.0236096 0)
(-0.00836028 -0.00624043 0)
(-0.00921952 -0.0358507 0)
(-0.00879625 -0.0651665 0)
(-0.00712867 -0.0941256 0)
(-0.00428523 -0.122652 0)
(-0.000364848 -0.150651 0)
(0.00450243 -0.178004 0)
(0.0101547 -0.204563 0)
(0.0163973 -0.230143 0)
(0.0230029 -0.254517 0)
(0.029712 -0.277407 0)
(0.036235 -0.298476 0)
(0.0422577 -0.317319 0)
(0.0474487 -0.333452 0)
(0.0514725 -0.346306 0)
(0.0540073 -0.355215 0)
(0.0547701 -0.359418 0)
(0.0535479 -0.358057 0)
(0.0502367 -0.350198 0)
(0.0448842 -0.334852 0)
(0.0377346 -0.311036 0)
(0.0292672 -0.277837 0)
(0.0202047 -0.234519 0)
(0.0114849 -0.180637 0)
(0.00438825 -0.116158 0)
(0.000718156 -0.0416336 0)
(0.000840942 0.0462059 0)
(0.00519333 0.128552 0)
(0.0137359 0.199583 0)
(0.0244743 0.258662 0)
(0.0359798 0.305693 0)
(0.0471627 0.341028 0)
(0.0571297 0.365384 0)
(0.0652364 0.379742 0)
(0.0710988 0.385241 0)
(0.0745641 0.383083 0)
(0.0756696 0.37445 0)
(0.0745957 0.360458 0)
(0.0716222 0.342115 0)
(0.0670878 0.320305 0)
(0.0613579 0.295785 0)
(0.0547998 0.269188 0)
(0.0477648 0.241032 0)
(0.0405761 0.211738 0)
(0.0335218 0.181636 0)
(0.0268514 0.150989 0)
(0.0207748 0.120003 0)
(0.0154627 0.0888364 0)
(0.0110484 0.0576178 0)
(0.00762958 0.0264513 0)
(0.00527006 -0.00457229 0)
(0.00400189 -0.0353686 0)
(0.00382649 -0.0658522 0)
(0.00471566 -0.0959306 0)
(0.00661206 -0.125498 0)
(0.00942933 -0.15443 0)
(0.013052 -0.182576 0)
(0.0173353 -0.209759 0)
(0.0221053 -0.235762 0)
(0.0271593 -0.260329 0)
(0.032268 -0.283153 0)
(0.037178 -0.303874 0)
(0.041618 -0.32207 0)
(0.0453071 -0.337251 0)
(0.0479669 -0.348855 0)
(0.0493383 -0.356248 0)
(0.0492035 -0.358722 0)
(0.0474123 -0.355509 0)
(0.0439126 -0.345795 0)
(0.0387834 -0.328754 0)
(0.0322659 -0.303593 0)
(0.024789 -0.269614 0)
(0.0169673 -0.226296 0)
(0.00957144 -0.17338 0)
(0.00363099 -0.110953 0)
(0.000588468 -0.0395778 0)
(0.000724224 0.0437103 0)
(0.00451951 0.122163 0)
(0.0120436 0.190509 0)
(0.0216286 0.248113 0)
(0.0320804 0.294786 0)
(0.0424707 0.330709 0)
(0.0520116 0.356388 0)
(0.0601055 0.372575 0)
(0.0663636 0.380191 0)
(0.0705899 0.38024 0)
(0.0727539 0.373748 0)
(0.0729567 0.361712 0)
(0.0713964 0.345059 0)
(0.0683352 0.324624 0)
(0.0640714 0.301146 0)
(0.0589157 0.275256 0)
(0.0531746 0.24749 0)
(0.0471372 0.218292 0)
(0.0410669 0.188028 0)
(0.0351967 0.156995 0)
(0.0297265 0.125434 0)
(0.0248222 0.0935421 0)
(0.0206164 0.0614808 0)
(0.0172092 0.0293884 0)
(0.0146695 -0.00261248 0)
(0.0130366 -0.034407 0)
(0.0123207 -0.0658804 0)
(0.0125045 -0.0969114 0)
(0.0135434 -0.127366 0)
(0.0153658 -0.157092 0)
(0.0178738 -0.185911 0)
(0.0209428 -0.213618 0)
(0.0244228 -0.239969 0)
(0.0281388 -0.264682 0)
(0.0318936 -0.287429 0)
(0.0354713 -0.30783 0)
(0.0386427 -0.325452 0)
(0.0411735 -0.339805 0)
(0.0428358 -0.350341 0)
(0.0434229 -0.356456 0)
(0.0427672 -0.357495 0)
(0.0407628 -0.352769 0)
(0.0373886 -0.34157 0)
(0.032733 -0.323205 0)
(0.0270165 -0.297035 0)
(0.0206069 -0.26253 0)
(0.0140137 -0.219329 0)
(0.00786011 -0.167309 0)
(0.00296581 -0.10664 0)
(0.000477171 -0.0378875 0)
(0.000621228 0.0415456 0)
(0.00391141 0.116574 0)
(0.0104886 0.182489 0)
(0.0189596 0.238664 0)
(0.028329 0.284844 0)
(0.0378122 0.321091 0)
(0.0467243 0.347748 0)
(0.0545249 0.36539 0)
(0.0608393 0.374758 0)
(0.0654515 0.376694 0)
(0.0682861 0.372086 0)
(0.069385 0.361818 0)
(0.0688807 0.346739 0)
(0.0669701 0.327632 0)
(0.0638904 0.305206 0)
(0.059899 0.280086 0)
(0.0552572 0.252812 0)
(0.0502176 0.223847 0)
(0.0450157 0.193578 0)
(0.0398636 0.162331 0)
(0.0349471 0.130378 0)
(0.0304234 0.0979471 0)
(0.0264208 0.0652311 0)
(0.0230393 0.0323984 0)
(0.0203508 -0.00039956 0)
(0.0184002 -0.0330198 0)
(0.0172066 -0.0653203 0)
(0.0167636 -0.0971537 0)
(0.0170403 -0.12836 0)
(0.0179814 -0.158761 0)
(0.0195081 -0.188155 0)
(0.0215183 -0.216309 0)
(0.0238875 -0.24296 0)
(0.0264703 -0.267802 0)
(0.0291025 -0.290489 0)
(0.0316049 -0.310626 0)
(0.0337884 -0.327775 0)
(0.0354615 -0.341447 0)
(0.0364397 -0.351108 0)
(0.0365589 -0.356182 0)
(0.0356896 -0.356065 0)
(0.0337548 -0.350132 0)
(0.0307486 -0.337766 0)
(0.0267539 -0.318381 0)
(0.0219583 -0.291461 0)
(0.0166643 -0.256604 0)
(0.0112814 -0.213573 0)
(0.00630247 -0.16234 0)
(0.00236932 -0.103135 0)
(0.0003793 -0.036521 0)
(0.000528493 0.0396814 0)
(0.00335309 0.111727 0)
(0.00903932 0.175475 0)
(0.0164296 0.230308 0)
(0.0246998 0.275927 0)
(0.0331933 0.312308 0)
(0.0413231 0.339674 0)
(0.0486118 0.35846 0)
(0.0547114 0.369265 0)
(0.0594026 0.372794 0)
(0.0625834 0.369816 0)
(0.0642532 0.361119 0)
(0.064493 0.347475 0)
(0.0634451 0.329616 0)
(0.0612932 0.308218 0)
(0.0582451 0.28389 0)
(0.0545184 0.257172 0)
(0.0503288 0.228535 0)
(0.0458818 0.198383 0)
(0.041366 0.167065 0)
(0.0369496 0.134875 0)
(0.0327782 0.102069 0)
(0.0289729 0.0688651 0)
(0.0256309 0.0354586 0)
(0.0228252 0.00202662 0)
(0.0206054 -0.031263 0)
(0.0189981 -0.0642441 0)
(0.0180079 -0.0967456 0)
(0.0176178 -0.128585 0)
(0.0177897 -0.15956 0)
(0.0184647 -0.189449 0)
(0.0195642 -0.217999 0)
(0.0209905 -0.244923 0)
(0.0226281 -0.269899 0)
(0.0243457 -0.292565 0)
(0.0259999 -0.312518 0)
(0.027439 -0.329311 0)
(0.0285098 -0.342459 0)
(0.0290655 -0.351442 0)
(0.0289756 -0.355708 0)
(0.0281388 -0.354693 0)
(0.0264956 -0.347829 0)
(0.0240432 -0.334569 0)
(0.0208485 -0.314413 0)
(0.0170594 -0.28694 0)
(0.0129111 -0.251847 0)
(0.00871938 -0.208986 0)
(0.0048609 -0.158404 0)
(0.00182389 -0.100371 0)
(0.000291242 -0.0354473 0)
(0.000443457 0.0380949 0)
(0.00283248 0.107578 0)
(0.00767091 0.169426 0)
(0.0140079 0.223034 0)
(0.0211691 0.268076 0)
(0.0286127 0.304463 0)
(0.0358445 0.332328 0)
(0.0424518 0.352002 0)
(0.048122 0.363968 0)
(0.0526447 0.368823 0)
(0.055905 0.367236 0)
(0.0578736 0.35991 0)
(0.0585922 0.347548 0)
(0.0581581 0.330833 0)
(0.0567087 0.310407 0)
(0.0544069 0.286862 0)
(0.0514291 0.26073 0)
(0.0479545 0.232484 0)
(0.0441576 0.202541 0)
(0.0402019 0.171263 0)
(0.036236 0.138966 0)
(0.0323909 0.105924 0)
(0.0287784 0.0723786 0)
(0.0254906 0.0385462 0)
(0.0225999 0.00462592 0)
(0.0201587 -0.0291928 0)
(0.0182006 -0.0627232 0)
(0.0167404 -0.0957739 0)
(0.0157749 -0.128142 0)
(0.0152829 -0.159609 0)
(0.0152264 -0.18993 0)
(0.0155504 -0.218837 0)
(0.0161842 -0.246026 0)
(0.0170421 -0.271159 0)
(0.0180253 -0.293862 0)
(0.0190244 -0.313722 0)
(0.0199228 -0.330288 0)
(0.0206017 -0.343076 0)
(0.0209463 -0.351576 0)
(0.0208537 -0.355257 0)
(0.0202421 -0.353586 0)
(0.0190611 -0.346037 0)
(0.0173027 -0.332118 0)
(0.0150104 -0.311395 0)
(0.0122882 -0.283519 0)
(0.00930428 -0.24826 0)
(0.00628615 -0.205537 0)
(0.00350583 -0.15545 0)
(0.00131607 -0.0983 0)
(0.000210303 -0.0346434 0)
(0.000364173 0.0367687 0)
(0.00234022 0.104091 0)
(0.00636378 0.164311 0)
(0.0116692 0.216835 0)
(0.0177157 0.261319 0)
(0.0240655 0.297629 0)
(0.0303121 0.325834 0)
(0.0361082 0.346183 0)
(0.0411818 0.359072 0)
(0.0453399 0.365011 0)
(0.0484654 0.364588 0)
(0.050511 0.358433 0)
(0.0514892 0.347191 0)
(0.0514608 0.3315 0)
(0.0505235 0.31197 0)
(0.0487999 0.289171 0)
(0.0464279 0.263625 0)
(0.0435514 0.235807 0)
(0.0403139 0.206136 0)
(0.0368527 0.174987 0)
(0.0332952 0.142686 0)
(0.029756 0.109527 0)
(0.0263354 0.0757654 0)
(0.0231186 0.0416371 0)
(0.0201753 0.00735846 0)
(0.0175596 -0.0268639 0)
(0.0153107 -0.0608262 0)
(0.0134527 -0.0943203 0)
(0.0119957 -0.127128 0)
(0.0109354 -0.159013 0)
(0.0102539 -0.189718 0)
(0.00992018 -0.218957 0)
(0.00989012 -0.246416 0)
(0.0101076 -0.271742 0)
(0.0105052 -0.294549 0)
(0.0110064 -0.314417 0)
(0.0115272 -0.33089 0)
(0.0119801 -0.343485 0)
(0.0122782 -0.351695 0)
(0.0123407 -0.355005 0)
(0.0120998 -0.352901 0)
(0.011508 -0.344889 0)
(0.0105458 -0.330517 0)
(0.00922926 -0.309397 0)
(0.00761566 -0.281231 0)
(0.00580723 -0.245842 0)
(0.00394788 -0.203198 0)
(0.00221377 -0.153438 0)
(0.000835336 -0.0968847 0)
(0.000134426 -0.0340926 0)
(0.000289112 0.03569 0)
(0.00186881 0.101241 0)
(0.00510188 0.160106 0)
(0.00939223 0.211704 0)
(0.0143205 0.255677 0)
(0.0195446 0.291864 0)
(0.0247415 0.320285 0)
(0.0296288 0.341132 0)
(0.0339784 0.354736 0)
(0.0376209 0.36154 0)
(0.0404448 0.362066 0)
(0.0423929 0.356886 0)
(0.0434565 0.346598 0)
(0.0436672 0.331799 0)
(0.0430885 0.313069 0)
(0.0418071 0.290958 0)
(0.0399248 0.265978 0)
(0.037552 0.238598 0)
(0.0348014 0.20924 0)
(0.0317835 0.178282 0)
(0.0286033 0.146063 0)
(0.0253576 0.112884 0)
(0.0221335 0.0790159 0)
(0.0190075 0.0447062 0)
(0.0160449 0.0101848 0)
(0.0133001 -0.0243285 0)
(0.0108164 -0.0586167 0)
(0.00862652 -0.0924594 0)
(0.00675255 -0.125625 0)
(0.00520655 -0.157867 0)
(0.0039905 -0.188916 0)
(0.0030965 -0.218474 0)
(0.00250687 -0.246214 0)
(0.00219431 -0.271776 0)
(0.00212222 -0.294763 0)
(0.00224538 -0.314745 0)
(0.00251099 -0.331263 0)
(0.00286041 -0.343828 0)
(0.00323164 -0.351938 0)
(0.00356263 -0.35508 0)
(0.00379547 -0.352753 0)
(0.00388133 -0.344482 0)
(0.00378581 -0.329839 0)
(0.00349423 -0.308464 0)
(0.00301628 -0.280095 0)
(0.0023891 -0.24459 0)
(0.00167675 -0.20195 0)
(0.000965699 -0.15234 0)
(0.000373322 -0.0960994 0)
(6.19955e-05 -0.0337831 0)
(0.000217024 0.0348494 0)
(0.00141202 0.0990087 0)
(0.00387168 0.156795 0)
(0.00715847 0.207634 0)
(0.0109659 0.251165 0)
(0.0150415 0.287206 0)
(0.0191422 0.31575 0)
(0.0230498 0.336946 0)
(0.0265825 0.35108 0)
(0.0295984 0.358545 0)
(0.0319969 0.359816 0)
(0.0337175 0.355421 0)
(0.0347362 0.345917 0)
(0.0350608 0.331868 0)
(0.0347254 0.31383 0)
(0.0337841 0.292334 0)
(0.0323055 0.267881 0)
(0.0303675 0.24093 0)
(0.0280525 0.211905 0)
(0.025444 0.181185 0)
(0.0226238 0.149112 0)
(0.0196696 0.115996 0)
(0.0166538 0.0821154 0)
(0.0136427 0.0477256 0)
(0.0106957 0.0130656 0)
(0.00786573 -0.0216357 0)
(0.00519909 -0.0561529 0)
(0.0027355 -0.0902568 0)
(0.00050843 -0.123708 0)
(-0.00145483 -0.156251 0)
(-0.00313319 -0.187608 0)
(-0.00451192 -0.217475 0)
(-0.00558294 -0.245514 0)
(-0.00634526 -0.271358 0)
(-0.00680542 -0.294602 0)
(-0.00697796 -0.314807 0)
(-0.00688567 -0.331507 0)
(-0.00655956 -0.344206 0)
(-0.00603838 -0.352398 0)
(-0.00536749 -0.355569 0)
(-0.00459708 -0.35322 0)
(-0.00377956 -0.344879 0)
(-0.00296637 -0.330129 0)
(-0.00220432 -0.308626 0)
(-0.00153192 -0.280124 0)
(-0.0009762 -0.2445 0)
(-0.000550547 -0.201777 0)
(-0.000254103 -0.152136 0)
(-7.68434e-05 -0.0959266 0)
(-8.29574e-06 -0.0337072 0)
(0.000146839 0.0342407 0)
(0.000964429 0.0973828 0)
(0.00266117 0.154366 0)
(0.00495109 0.204623 0)
(0.00763501 0.247793 0)
(0.0105463 0.283686 0)
(0.0135192 0.312277 0)
(0.0163994 0.333692 0)
(0.0190523 0.348188 0)
(0.0213665 0.356125 0)
(0.0232561 0.357946 0)
(0.0246612 0.354147 0)
(0.025547 0.345255 0)
(0.0259016 0.331809 0)
(0.025733 0.314345 0)
(0.0250655 0.293378 0)
(0.0239363 0.269395 0)
(0.0223918 0.242851 0)
(0.0204848 0.214163 0)
(0.0182716 0.183711 0)