/*--------------------------------*- C++ -*----------------------------------*\
  =========                 |
  \\      /  F ield         | OpenFOAM: The Open Source CFD Toolbox
   \\    /   O peration     | Website:  https://openfoam.org
    \\  /    A nd           | Version:  7
     \\/     M anipulation  |
\*---------------------------------------------------------------------------*/
FoamFile
{
    version     2.0;
    format      ascii;
    class       volScalarField;
    location    "0.0098";
    object      p;
}
// * * * * * * * * * * * * * * * * * * * * * * * * * * * * * * * * * * * * * //

dimensions      [0 2 -2 0 0 0 0];

internalField   nonuniform List<scalar> 
2500
(
4.41279e-06
-6.5066
-9.28292
-10.4677
-11.1212
-11.5156
-11.7679
-11.9423
-12.0709
-12.1702
-12.2499
-12.3155
-12.371
-12.4188
-12.4609
-12.4984
-12.5323
-12.5634
-12.5922
-12.6191
-12.6446
-12.6688
-12.6921
-12.7147
-12.7368
-12.7585
-12.7801
-12.8016
-12.8234
-12.8454
-12.8679
-12.8912
-12.9153
-12.9407
-12.9676
-12.9966
-13.0283
-13.0638
-13.1045
-13.1524
-13.211
-13.2854
-13.3844
-13.524
-13.7356
-14.0811
-14.6685
-15.7588
-18.4192
-24.8023
-4.96067
-7.67529
-9.17524
-10.1272
-10.7859
-11.2364
-11.5484
-11.7726
-11.9396
-12.0679
-12.1694
-12.2518
-12.3201
-12.378
-12.428
-12.4718
-12.5109
-12.5463
-12.5787
-12.6087
-12.6368
-12.6634
-12.6889
-12.7136
-12.7377
-12.7614
-12.785
-12.8087
-12.8328
-12.8574
-12.8829
-12.9095
-12.9377
-12.9678
-13.0005
-13.0365
-13.0771
-13.1236
-13.1784
-13.2444
-13.3265
-13.4319
-13.5716
-13.7634
-14.0369
-14.4407
-15.0407
-15.9204
-17.3347
-19.9325
-7.93861
-8.76356
-9.55799
-10.2322
-10.765
-11.1671
-11.4684
-11.697
-11.8733
-12.0117
-12.1225
-12.213
-12.2881
-12.3517
-12.4065
-12.4543
-12.4967
-12.5348
-12.5696
-12.6017
-12.6316
-12.66
-12.687
-12.7132
-12.7387
-12.7639
-12.789
-12.8143
-12.84
-12.8666
-12.8942
-12.9232
-12.9542
-12.9876
-13.0243
-13.065
-13.1111
-13.1643
-13.227
-13.3024
-13.3952
-13.5122
-13.663
-13.8615
-14.1275
-14.4877
-14.9714
-15.5916
-16.3316
-17.0926
-9.45678
-9.66034
-10.0718
-10.5103
-10.8969
-11.2172
-11.4765
-11.685
-11.8527
-11.9887
-12.1001
-12.1924
-12.27
-12.336
-12.3931
-12.4431
-12.4874
-12.5273
-12.5636
-12.597
-12.6283
-12.6578
-12.6859
-12.7131
-12.7397
-12.766
-12.7922
-12.8187
-12.8457
-12.8737
-12.9028
-12.9336
-12.9666
-13.0022
-13.0414
-13.085
-13.1343
-13.1909
-13.257
-13.3354
-13.4301
-13.5462
-13.6904
-13.8713
-14.0989
-14.3832
-14.7302
-15.1287
-15.5048
-15.6785
-10.3501
-10.3371
-10.5323
-10.8025
-11.0712
-11.3152
-11.5277
-11.7082
-11.8599
-11.9871
-12.0939
-12.1843
-12.2613
-12.3277
-12.3854
-12.4363
-12.4815
-12.5223
-12.5596
-12.5939
-12.626
-12.6563
-12.6853
-12.7133
-12.7406
-12.7677
-12.7948
-12.8221
-12.8501
-12.879
-12.9093
-12.9413
-12.9756
-13.0127
-13.0533
-13.0984
-13.149
-13.2067
-13.2731
-13.3506
-13.4419
-13.5506
-13.6806
-13.8362
-14.0206
-14.2344
-14.4719
-14.7133
-14.8864
-14.8619
-10.9223
-10.8336
-10.9126
-11.0731
-11.2549
-11.4357
-11.6041
-11.7553
-11.8875
-12.0022
-12.1013
-12.1869
-12.2612
-12.326
-12.383
-12.4336
-12.4789
-12.5199
-12.5575
-12.5922
-12.6247
-12.6555
-12.6849
-12.7133
-12.7412
-12.7688
-12.7963
-12.8242
-12.8528
-12.8823
-12.9132
-12.9458
-12.9807
-13.0183
-13.0594
-13.1046
-13.155
-13.2117
-13.2759
-13.3494
-13.434
-13.5316
-13.6441
-13.7727
-13.9168
-14.0726
-14.2304
-14.3706
-14.4369
-14.3473
-11.3072
-11.2008
-11.2205
-11.3121
-11.4323
-11.5632
-11.6936
-11.8167
-11.9291
-12.0299
-12.1194
-12.1984
-12.2683
-12.3302
-12.3853
-12.4346
-12.4792
-12.5198
-12.5571
-12.5918
-12.6243
-12.6551
-12.6846
-12.7132
-12.7412
-12.769
-12.7967
-12.8248
-12.8536
-12.8832
-12.9142
-12.9469
-12.9817
-13.0191
-13.0596
-13.1038
-13.1526
-13.2067
-13.2671
-13.3347
-13.4106
-13.4956
-13.59
-13.6933
-13.803
-13.9137
-14.0159
-14.0936
-14.1069
-14.005
-11.5804
-11.4776
-11.4681
-11.5169
-11.5946
-11.6878
-11.787
-11.8854
-11.979
-12.0658
-12.145
-12.2166
-12.2811
-12.3391
-12.3915
-12.4388
-12.482
-12.5216
-12.5582
-12.5923
-12.6245
-12.655
-12.6843
-12.7128
-12.7407
-12.7683
-12.7959
-12.8239
-12.8524
-12.8818
-12.9125
-12.9447
-12.9788
-13.0152
-13.0544
-13.0968
-13.143
-13.1936
-13.249
-13.3098
-13.3763
-13.4486
-13.5263
-13.6077
-13.6898
-13.767
-13.8313
-13.8711
-13.8592
-13.7635
-11.7837
-11.6909
-11.6674
-11.6902
-11.7389
-11.8042
-11.8787
-11.9564
-12.0332
-12.1068
-12.1758
-12.2397
-12.2983
-12.3518
-12.4008
-12.4457
-12.487
-12.5251
-12.5606
-12.5938
-12.6252
-12.6552
-12.684
-12.712
-12.7395
-12.7667
-12.7939
-12.8213
-12.8493
-12.8782
-12.908
-12.9393
-12.9723
-13.0072
-13.0445
-13.0845
-13.1275
-13.1739
-13.2238
-13.2776
-13.335
-13.3957
-13.4586
-13.522
-13.5826
-13.6356
-13.6748
-13.692
-13.6688
-13.584
-11.9403
-11.8587
-11.8294
-11.8364
-11.8655
-11.9106
-11.9659
-12.0265
-12.0889
-12.1506
-12.21
-12.2661
-12.3187
-12.3675
-12.4128
-12.4548
-12.4937
-12.53
-12.5641
-12.5961
-12.6265
-12.6556
-12.6836
-12.7109
-12.7377
-12.7642
-12.7907
-12.8174
-12.8446
-12.8724
-12.9013
-12.9313
-12.9627
-12.9958
-13.0308
-13.0679
-13.1074
-13.1494
-13.1938
-13.2407
-13.2897
-13.3401
-13.3907
-13.4396
-13.4839
-13.5198
-13.5425
-13.5465
-13.519
-13.4455
-12.0643
-11.9931
-11.9622
-11.9599
-11.9761
-12.0065
-12.0471
-12.0941
-12.1443
-12.1955
-12.246
-12.2949
-12.3415
-12.3855
-12.4269
-12.4657
-12.5021
-12.5363
-12.5686
-12.5991
-12.6282
-12.6562
-12.6832
-12.7095
-12.7354
-12.7609
-12.7865
-12.8122
-12.8383
-12.865
-12.8925
-12.9209
-12.9505
-12.9815
-13.014
-13.0481
-13.084
-13.1215
-13.1607
-13.2013
-13.2427
-13.2843
-13.3247
-13.3623
-13.3945
-13.4184
-13.4303
-13.4268
-13.3986
-13.3353
-12.1643
-12.1027
-12.0725
-12.0649
-12.0725
-12.0925
-12.122
-12.1581
-12.1982
-12.2403
-12.2829
-12.3251
-12.366
-12.4053
-12.4427
-12.4782
-12.5119
-12.5437
-12.574
-12.6029
-12.6305
-12.6571
-12.6828
-12.708
-12.7327
-12.7571
-12.7815
-12.806
-12.8308
-12.8561
-12.882
-12.9088
-12.9364
-12.9651
-12.9949
-13.026
-13.0582
-13.0916
-13.1259
-13.1608
-13.1957
-13.2298
-13.262
-13.2908
-13.3142
-13.3296
-13.3347
-13.3271
-13.3001
-13.2458
-12.2465
-12.1932
-12.1649
-12.1546
-12.1567
-12.1693
-12.1905
-12.218
-12.2498
-12.2843
-12.32
-12.356
-12.3917
-12.4264
-12.4599
-12.4921
-12.5228
-12.5522
-12.5804
-12.6073
-12.6332
-12.6583
-12.6826
-12.7064
-12.7297
-12.7529
-12.7759
-12.7991
-12.8224
-12.8461
-12.8704
-12.8952
-12.9208
-12.9471
-12.9743
-13.0023
-13.0311
-13.0606
-13.0904
-13.1203
-13.1496
-13.1776
-13.2033
-13.2253
-13.2421
-13.2518
-13.2526
-13.2431
-13.2181
-13.1716
-12.315
-12.2692
-12.2434
-12.232
-12.2305
-12.238
-12.2531
-12.2739
-12.299
-12.327
-12.3567
-12.3873
-12.418
-12.4484
-12.4781
-12.507
-12.5348
-12.5617
-12.5875
-12.6125
-12.6365
-12.6599
-12.6826
-12.7048
-12.7267
-12.7484
-12.77
-12.7916
-12.8133
-12.8354
-12.8578
-12.8807
-12.9041
-12.9281
-12.9527
-12.9778
-13.0034
-13.0292
-13.0551
-13.0806
-13.1051
-13.1281
-13.1486
-13.1655
-13.1775
-13.1833
-13.1815
-13.1713
-13.1488
-13.1091
-12.3729
-12.3338
-12.3107
-12.2992
-12.2957
-12.2997
-12.3102
-12.3258
-12.3455
-12.3681
-12.3926
-12.4184
-12.4447
-12.471
-12.4971
-12.5228
-12.5477
-12.572
-12.5955
-12.6183
-12.6404
-12.6619
-12.6829
-12.7035
-12.7238
-12.7438
-12.7638
-12.7838
-12.8038
-12.8241
-12.8447
-12.8655
-12.8868
-12.9085
-12.9305
-12.9529
-12.9754
-12.998
-13.0203
-13.042
-13.0626
-13.0815
-13.0978
-13.1108
-13.1194
-13.1226
-13.1194
-13.1093
-13.0893
-13.0555
-12.4227
-12.3895
-12.3692
-12.3581
-12.3536
-12.3552
-12.3623
-12.374
-12.3894
-12.4075
-12.4276
-12.4491
-12.4714
-12.4941
-12.5168
-12.5393
-12.5614
-12.583
-12.6042
-12.6248
-12.6448
-12.6644
-12.6836
-12.7024
-12.7209
-12.7393
-12.7576
-12.7758
-12.7941
-12.8126
-12.8312
-12.8501
-12.8692
-12.8886
-12.9082
-12.9279
-12.9477
-12.9673
-12.9865
-13.0049
-13.0221
-13.0376
-13.0507
-13.0608
-13.0669
-13.0683
-13.0645
-13.055
-13.0376
-13.009
-12.4661
-12.4382
-12.4206
-12.4104
-12.4054
-12.4055
-12.4102
-12.4188
-12.4307
-12.4451
-12.4615
-12.4793
-12.498
-12.5173
-12.5368
-12.5563
-12.5757
-12.5948
-12.6135
-12.6318
-12.6498
-12.6674
-12.6847
-12.7016
-12.7184
-12.735
-12.7515
-12.7679
-12.7844
-12.8009
-12.8176
-12.8345
-12.8515
-12.8686
-12.8859
-12.9032
-12.9204
-12.9373
-12.9537
-12.9693
-12.9837
-12.9964
-13.007
-13.0147
-13.0191
-13.0195
-13.0155
-13.0069
-12.9919
-12.9678
-12.5047
-12.4813
-12.4663
-12.4572
-12.4522
-12.4514
-12.4544
-12.4606
-12.4697
-12.4811
-12.4943
-12.5088
-12.5244
-12.5405
-12.5571
-12.5738
-12.5905
-12.607
-12.6234
-12.6395
-12.6553
-12.6709
-12.6862
-12.7013
-12.7161
-12.7309
-12.7455
-12.7601
-12.7747
-12.7894
-12.8041
-12.8189
-12.8338
-12.8488
-12.8639
-12.8789
-12.8937
-12.9082
-12.9221
-12.9353
-12.9472
-12.9577
-12.9662
-12.9722
-12.9753
-12.9751
-12.9713
-12.9637
-12.9509
-12.931
-12.5394
-12.5202
-12.5075
-12.4996
-12.4949
-12.4936
-12.4953
-12.4998
-12.5067
-12.5155
-12.526
-12.5377
-12.5504
-12.5637
-12.5775
-12.5916
-12.6057
-12.6198
-12.6339
-12.6477
-12.6614
-12.6749
-12.6882
-12.7013
-12.7142
-12.7271
-12.7398
-12.7526
-12.7653
-12.778
-12.7907
-12.8036
-12.8164
-12.8293
-12.8422
-12.855
-12.8676
-12.8799
-12.8916
-12.9026
-12.9125
-12.921
-12.9279
-12.9326
-12.9349
-12.9343
-12.9308
-12.9244
-12.9138
-12.8974
-12.5712
-12.5556
-12.5452
-12.5384
-12.5343
-12.5327
-12.5336
-12.5367
-12.5418
-12.5485
-12.5566
-12.5659
-12.576
-12.5868
-12.598
-12.6096
-12.6213
-12.633
-12.6448
-12.6564
-12.668
-12.6794
-12.6906
-12.7017
-12.7128
-12.7237
-12.7345
-12.7453
-12.7561
-12.7668
-12.7776
-12.7885
-12.7993
-12.8102
-12.821
-12.8317
-12.8422
-12.8524
-12.8622
-12.8712
-12.8793
-12.8862
-12.8917
-12.8954
-12.8971
-12.8965
-12.8935
-12.8881
-12.8795
-12.8663
-12.6008
-12.5884
-12.5801
-12.5745
-12.5709
-12.5693
-12.5696
-12.5717
-12.5753
-12.5803
-12.5864
-12.5935
-12.6013
-12.6097
-12.6186
-12.6278
-12.6371
-12.6466
-12.6561
-12.6656
-12.675
-12.6843
-12.6935
-12.7026
-12.7117
-12.7206
-12.7295
-12.7384
-12.7472
-12.756
-12.7648
-12.7737
-12.7826
-12.7914
-12.8002
-12.8089
-12.8175
-12.8258
-12.8336
-12.8409
-12.8474
-12.853
-12.8573
-12.8602
-12.8615
-12.861
-12.8586
-12.8543
-12.8475
-12.8373
-12.6288
-12.6193
-12.6129
-12.6085
-12.6055
-12.604
-12.6039
-12.6052
-12.6076
-12.611
-12.6154
-12.6205
-12.6262
-12.6325
-12.6392
-12.6461
-12.6532
-12.6605
-12.6678
-12.6751
-12.6824
-12.6897
-12.6969
-12.704
-12.711
-12.718
-12.7249
-12.7318
-12.7387
-12.7455
-12.7524
-12.7593
-12.7661
-12.773
-12.7799
-12.7866
-12.7933
-12.7997
-12.8059
-12.8115
-12.8166
-12.8209
-12.8243
-12.8266
-12.8277
-12.8273
-12.8255
-12.8223
-12.8173
-12.8097
-12.6555
-12.6487
-12.644
-12.6408
-12.6385
-12.6372
-12.6369
-12.6375
-12.6388
-12.641
-12.6438
-12.6471
-12.6509
-12.6552
-12.6598
-12.6646
-12.6696
-12.6747
-12.6799
-12.6851
-12.6903
-12.6955
-12.7006
-12.7057
-12.7108
-12.7157
-12.7207
-12.7256
-12.7305
-12.7354
-12.7403
-12.7452
-12.7501
-12.755
-12.7599
-12.7648
-12.7696
-12.7743
-12.7787
-12.7829
-12.7866
-12.7899
-12.7924
-12.7942
-12.795
-12.7949
-12.7938
-12.7917
-12.7883
-12.7832
-12.6814
-12.6771
-12.6741
-12.672
-12.6704
-12.6693
-12.6688
-12.6689
-12.6694
-12.6703
-12.6717
-12.6734
-12.6755
-12.6778
-12.6804
-12.6832
-12.6861
-12.6891
-12.6923
-12.6954
-12.6985
-12.7017
-12.7048
-12.7079
-12.7109
-12.7139
-12.7169
-12.7198
-12.7227
-12.7256
-12.7285
-12.7314
-12.7344
-12.7373
-12.7403
-12.7433
-12.7463
-12.7492
-12.7521
-12.7548
-12.7573
-12.7594
-12.7612
-12.7625
-12.7633
-12.7634
-12.763
-12.7619
-12.7602
-12.7574
-12.7068
-12.7049
-12.7035
-12.7025
-12.7015
-12.7008
-12.7002
-12.6998
-12.6995
-12.6994
-12.6994
-12.6996
-12.7
-12.7005
-12.7012
-12.702
-12.7029
-12.7039
-12.705
-12.7061
-12.7072
-12.7083
-12.7094
-12.7105
-12.7115
-12.7125
-12.7135
-12.7144
-12.7153
-12.7162
-12.7171
-12.718
-12.719
-12.72
-12.721
-12.7221
-12.7233
-12.7245
-12.7258
-12.727
-12.7283
-12.7294
-12.7305
-12.7313
-12.732
-12.7324
-12.7327
-12.7327
-12.7325
-12.732
-12.732
-12.7325
-12.7327
-12.7327
-12.7324
-12.732
-12.7313
-12.7304
-12.7294
-12.7283
-12.727
-12.7258
-12.7245
-12.7233
-12.7221
-12.721
-12.72
-12.719
-12.718
-12.7171
-12.7162
-12.7153
-12.7144
-12.7135
-12.7125
-12.7115
-12.7105
-12.7094
-12.7083
-12.7072
-12.7061
-12.705
-12.7039
-12.7029
-12.702
-12.7012
-12.7005
-12.7
-12.6996
-12.6994
-12.6994
-12.6995
-12.6998
-12.7002
-12.7008
-12.7016
-12.7025
-12.7035
-12.7049
-12.7068
-12.7574
-12.7601
-12.7619
-12.763
-12.7634
-12.7633
-12.7625
-12.7612
-12.7594
-12.7573
-12.7548
-12.7521
-12.7492
-12.7463
-12.7433
-12.7403
-12.7373
-12.7344
-12.7314
-12.7285
-12.7256
-12.7227
-12.7198
-12.7169
-12.7139
-12.7109
-12.7079
-12.7048
-12.7017
-12.6985
-12.6954
-12.6923
-12.6892
-12.6861
-12.6832
-12.6804
-12.6778
-12.6755
-12.6734
-12.6717
-12.6703
-12.6694
-12.6689
-12.6689
-12.6693
-12.6704
-12.672
-12.6741
-12.6771
-12.6814
-12.7832
-12.7883
-12.7917
-12.7938
-12.7949
-12.795
-12.7942
-12.7924
-12.7899
-12.7866
-12.7829
-12.7787
-12.7743
-12.7696
-12.7648
-12.7599
-12.755
-12.7501
-12.7452
-12.7403
-12.7354
-12.7305
-12.7256
-12.7207
-12.7157
-12.7108
-12.7057
-12.7006
-12.6955
-12.6903
-12.6851
-12.6799
-12.6747
-12.6696
-12.6646
-12.6598
-12.6552
-12.651
-12.6471
-12.6438
-12.641
-12.6389
-12.6375
-12.6369
-12.6372
-12.6385
-12.6408
-12.644
-12.6487
-12.6555
-12.8097
-12.8173
-12.8223
-12.8255
-12.8273
-12.8277
-12.8266
-12.8243
-12.8209
-12.8166
-12.8115
-12.8058
-12.7997
-12.7933
-12.7866
-12.7799
-12.773
-12.7661
-12.7593
-12.7524
-12.7455
-12.7387
-12.7318
-12.7249
-12.718
-12.711
-12.704
-12.6969
-12.6897
-12.6824
-12.6751
-12.6678
-12.6605
-12.6532
-12.6461
-12.6392
-12.6325
-12.6263
-12.6205
-12.6154
-12.611
-12.6076
-12.6052
-12.6039
-12.604
-12.6055
-12.6085
-12.6129
-12.6193
-12.6288
-12.8373
-12.8475
-12.8543
-12.8586
-12.861
-12.8615
-12.8602
-12.8573
-12.853
-12.8474
-12.8409
-12.8336
-12.8257
-12.8175
-12.8089
-12.8002
-12.7914
-12.7826
-12.7737
-12.7648
-12.756
-12.7472
-12.7384
-12.7295
-12.7206
-12.7117
-12.7026
-12.6935
-12.6843
-12.675
-12.6656
-12.6561
-12.6466
-12.6371
-12.6278
-12.6186
-12.6097
-12.6013
-12.5935
-12.5864
-12.5803
-12.5753
-12.5717
-12.5697
-12.5693
-12.5709
-12.5745
-12.5801
-12.5885
-12.6008
-12.8663
-12.8795
-12.8881
-12.8935
-12.8965
-12.8971
-12.8954
-12.8917
-12.8862
-12.8793
-12.8712
-12.8622
-12.8524
-12.8422
-12.8317
-12.821
-12.8102
-12.7993
-12.7885
-12.7776
-12.7668
-12.7561
-12.7453
-12.7345
-12.7237
-12.7128
-12.7018
-12.6906
-12.6794
-12.668
-12.6564
-12.6448
-12.633
-12.6213
-12.6096
-12.598
-12.5868
-12.576
-12.5659
-12.5566
-12.5485
-12.5418
-12.5367
-12.5336
-12.5327
-12.5343
-12.5385
-12.5452
-12.5556
-12.5713
-12.8974
-12.9138
-12.9244
-12.9308
-12.9343
-12.9349
-12.9326
-12.9279
-12.921
-12.9125
-12.9026
-12.8916
-12.8799
-12.8676
-12.855
-12.8422
-12.8293
-12.8164
-12.8036
-12.7907
-12.778
-12.7653
-12.7526
-12.7399
-12.7271
-12.7143
-12.7013
-12.6882
-12.6749
-12.6614
-12.6477
-12.6339
-12.6198
-12.6057
-12.5916
-12.5775
-12.5637
-12.5504
-12.5377
-12.526
-12.5155
-12.5067
-12.4998
-12.4953
-12.4936
-12.4949
-12.4996
-12.5075
-12.5202
-12.5394
-12.931
-12.9509
-12.9637
-12.9712
-12.9751
-12.9753
-12.9722
-12.9662
-12.9577
-12.9472
-12.9353
-12.9221
-12.9082
-12.8937
-12.8789
-12.8639
-12.8488
-12.8338
-12.8189
-12.8041
-12.7894
-12.7747
-12.7601
-12.7455
-12.7309
-12.7161
-12.7013
-12.6862
-12.6709
-12.6554
-12.6395
-12.6234
-12.6071
-12.5905
-12.5738
-12.5571
-12.5405
-12.5244
-12.5088
-12.4943
-12.4811
-12.4697
-12.4607
-12.4544
-12.4514
-12.4523
-12.4572
-12.4663
-12.4813
-12.5047
-12.9678
-12.9919
-13.0069
-13.0155
-13.0195
-13.0191
-13.0147
-13.007
-12.9964
-12.9837
-12.9693
-12.9537
-12.9373
-12.9204
-12.9032
-12.8859
-12.8686
-12.8515
-12.8345
-12.8176
-12.8009
-12.7844
-12.7679
-12.7515
-12.735
-12.7184
-12.7016
-12.6847
-12.6674
-12.6498
-12.6319
-12.6135
-12.5948
-12.5757
-12.5563
-12.5368
-12.5173
-12.498
-12.4793
-12.4615
-12.4451
-12.4307
-12.4189
-12.4102
-12.4055
-12.4054
-12.4104
-12.4206
-12.4382
-12.4662
-13.009
-13.0376
-13.055
-13.0645
-13.0683
-13.0669
-13.0608
-13.0507
-13.0376
-13.0221
-13.0049
-12.9865
-12.9673
-12.9477
-12.9279
-12.9082
-12.8886
-12.8692
-12.8501
-12.8312
-12.8126
-12.7941
-12.7758
-12.7576
-12.7393
-12.721
-12.7024
-12.6836
-12.6644
-12.6448
-12.6248
-12.6042
-12.583
-12.5614
-12.5393
-12.5168
-12.4941
-12.4714
-12.4491
-12.4276
-12.4075
-12.3894
-12.374
-12.3624
-12.3552
-12.3536
-12.3582
-12.3692
-12.3895
-12.4227
-13.0555
-13.0893
-13.1093
-13.1194
-13.1226
-13.1194
-13.1108
-13.0978
-13.0815
-13.0626
-13.042
-13.0203
-12.998
-12.9754
-12.9529
-12.9305
-12.9085
-12.8868
-12.8655
-12.8447
-12.8241
-12.8038
-12.7838
-12.7638
-12.7438
-12.7238
-12.7035
-12.6829
-12.6619
-12.6404
-12.6183
-12.5955
-12.572
-12.5477
-12.5228
-12.4972
-12.471
-12.4447
-12.4184
-12.3926
-12.3681
-12.3455
-12.3258
-12.3102
-12.2997
-12.2957
-12.2992
-12.3108
-12.3338
-12.3729
-13.1091
-13.1488
-13.1713
-13.1815
-13.1833
-13.1775
-13.1655
-13.1486
-13.1281
-13.1051
-13.0806
-13.0551
-13.0292
-13.0034
-12.9778
-12.9527
-12.9281
-12.9041
-12.8807
-12.8578
-12.8354
-12.8133
-12.7916
-12.77
-12.7484
-12.7267
-12.7048
-12.6826
-12.6599
-12.6365
-12.6125
-12.5875
-12.5617
-12.5348
-12.507
-12.4781
-12.4484
-12.418
-12.3873
-12.3567
-12.327
-12.299
-12.2739
-12.2531
-12.2381
-12.2306
-12.232
-12.2434
-12.2692
-12.315
-13.1716
-13.2181
-13.2431
-13.2526
-13.2518
-13.2421
-13.2253
-13.2033
-13.1776
-13.1496
-13.1203
-13.0904
-13.0606
-13.0311
-13.0023
-12.9743
-12.9471
-12.9208
-12.8952
-12.8704
-12.8462
-12.8224
-12.7991
-12.7759
-12.7529
-12.7297
-12.7064
-12.6826
-12.6583
-12.6332
-12.6073
-12.5804
-12.5522
-12.5228
-12.4921
-12.4599
-12.4264
-12.3917
-12.3561
-12.32
-12.2843
-12.2499
-12.2181
-12.1905
-12.1693
-12.1567
-12.1547
-12.165
-12.1932
-12.2465
-13.2458
-13.3001
-13.3271
-13.3347
-13.3296
-13.3142
-13.2908
-13.262
-13.2298
-13.1957
-13.1608
-13.1259
-13.0916
-13.0582
-13.026
-12.9949
-12.9651
-12.9364
-12.9088
-12.882
-12.8561
-12.8308
-12.806
-12.7815
-12.7571
-12.7327
-12.708
-12.6828
-12.6571
-12.6305
-12.6029
-12.574
-12.5438
-12.5119
-12.4782
-12.4427
-12.4053
-12.366
-12.3251
-12.283
-12.2403
-12.1982
-12.1581
-12.122
-12.0925
-12.0725
-12.0649
-12.0725
-12.1027
-12.1644
-13.3353
-13.3986
-13.4268
-13.4303
-13.4184
-13.3945
-13.3623
-13.3247
-13.2843
-13.2427
-13.2013
-13.1607
-13.1215
-13.084
-13.0481
-13.014
-12.9815
-12.9505
-12.9209
-12.8925
-12.865
-12.8383
-12.8122
-12.7865
-12.7609
-12.7354
-12.7095
-12.6832
-12.6562
-12.6283
-12.5991
-12.5686
-12.5363
-12.5021
-12.4657
-12.4269
-12.3855
-12.3415
-12.2949
-12.246
-12.1955
-12.1443
-12.0941
-12.0471
-12.0065
-11.9761
-11.96
-11.9623
-11.9931
-12.0643
-13.4455
-13.519
-13.5465
-13.5425
-13.5198
-13.4839
-13.4396
-13.3907
-13.3401
-13.2897
-13.2407
-13.1938
-13.1494
-13.1074
-13.0679
-13.0308
-12.9958
-12.9627
-12.9313
-12.9013
-12.8725
-12.8446
-12.8174
-12.7907
-12.7642
-12.7377
-12.7109
-12.6836
-12.6556
-12.6265
-12.5961
-12.5641
-12.5301
-12.4938
-12.4548
-12.4128
-12.3675
-12.3187
-12.2661
-12.21
-12.1506
-12.0889
-12.0265
-11.9659
-11.9106
-11.8656
-11.8364
-11.8294
-11.8587
-11.9404
-13.584
-13.6688
-13.692
-13.6748
-13.6356
-13.5826
-13.522
-13.4586
-13.3957
-13.335
-13.2776
-13.2238
-13.1739
-13.1275
-13.0845
-13.0445
-13.0072
-12.9723
-12.9393
-12.9081
-12.8782
-12.8493
-12.8213
-12.7939
-12.7667
-12.7395
-12.712
-12.684
-12.6552
-12.6253
-12.5938
-12.5606
-12.5251
-12.487
-12.4457
-12.4008
-12.3519
-12.2983
-12.2397
-12.1758
-12.1068
-12.0332
-11.9564
-11.8787
-11.8042
-11.7389
-11.6902
-11.6675
-11.6909
-11.7837
-13.7635
-13.8592
-13.8711
-13.8313
-13.767
-13.6898
-13.6077
-13.5263
-13.4486
-13.3763
-13.3098
-13.249
-13.1936
-13.143
-13.0968
-13.0544
-13.0152
-12.9788
-12.9447
-12.9125
-12.8818
-12.8524
-12.8239
-12.7959
-12.7683
-12.7407
-12.7128
-12.6844
-12.655
-12.6245
-12.5924
-12.5582
-12.5216
-12.482
-12.4389
-12.3915
-12.3391
-12.2811
-12.2166
-12.145
-12.0658
-11.979
-11.8854
-11.787
-11.6878
-11.5946
-11.517
-11.4681
-11.4776
-11.5804
-14.005
-14.1069
-14.0936
-14.0159
-13.9137
-13.803
-13.6933
-13.59
-13.4955
-13.4106
-13.3347
-13.2671
-13.2067
-13.1526
-13.1038
-13.0596
-13.0191
-12.9817
-12.9469
-12.9142
-12.8832
-12.8536
-12.8248
-12.7968
-12.769
-12.7413
-12.7132
-12.6846
-12.6551
-12.6243
-12.5918
-12.5571
-12.5198
-12.4792
-12.4347
-12.3853
-12.3302
-12.2683
-12.1985
-12.1194
-12.0299
-11.9291
-11.8167
-11.6936
-11.5632
-11.4323
-11.3121
-11.2206
-11.2008
-11.3072
-14.3473
-14.4369
-14.3706
-14.2304
-14.0726
-13.9168
-13.7726
-13.6441
-13.5316
-13.434
-13.3494
-13.2759
-13.2117
-13.155
-13.1046
-13.0594
-13.0183
-12.9807
-12.9458
-12.9132
-12.8823
-12.8528
-12.8242
-12.7963
-12.7688
-12.7412
-12.7134
-12.6849
-12.6555
-12.6247
-12.5922
-12.5575
-12.5199
-12.4789
-12.4336
-12.383
-12.326
-12.2612
-12.187
-12.1013
-12.0023
-11.8875
-11.7553
-11.6041
-11.4357
-11.255
-11.0731
-10.9126
-10.8337
-10.9223
-14.8619
-14.8864
-14.7133
-14.4719
-14.2344
-14.0206
-13.8362
-13.6806
-13.5506
-13.4419
-13.3506
-13.2731
-13.2067
-13.149
-13.0984
-13.0533
-13.0127
-12.9756
-12.9413
-12.9093
-12.879
-12.8501
-12.8221
-12.7948
-12.7677
-12.7406
-12.7133
-12.6853
-12.6563
-12.626
-12.5939
-12.5596
-12.5224
-12.4815
-12.4363
-12.3854
-12.3277
-12.2613
-12.1843
-12.0939
-11.9871
-11.8599
-11.7083
-11.5277
-11.3152
-11.0712
-10.8025
-10.5323
-10.3371
-10.3501
-15.6785
-15.5048
-15.1287
-14.7302
-14.3832
-14.0989
-13.8713
-13.6904
-13.5462
-13.4301
-13.3354
-13.257
-13.1909
-13.1343
-13.085
-13.0414
-13.0023
-12.9666
-12.9336
-12.9028
-12.8737
-12.8458
-12.8187
-12.7922
-12.766
-12.7397
-12.7132
-12.6859
-12.6578
-12.6283
-12.597
-12.5636
-12.5273
-12.4874
-12.4431
-12.3931
-12.3361
-12.27
-12.1924
-12.1001
-11.9887
-11.8528
-11.685
-11.4765
-11.2172
-10.8969
-10.5104
-10.0719
-9.66035
-9.45679
-17.0926
-16.3316
-15.5916
-14.9714
-14.4877
-14.1275
-13.8615
-13.663
-13.5122
-13.3952
-13.3024
-13.227
-13.1643
-13.1111
-13.065
-13.0243
-12.9876
-12.9542
-12.9232
-12.8942
-12.8666
-12.8401
-12.8143
-12.789
-12.7639
-12.7387
-12.7132
-12.687
-12.66
-12.6317
-12.6017
-12.5696
-12.5348
-12.4967
-12.4543
-12.4065
-12.3518
-12.2882
-12.213
-12.1225
-12.0117
-11.8733
-11.697
-11.4684
-11.1671
-10.765
-10.2322
-9.558
-8.76357
-7.93862
-19.9325
-17.3347
-15.9204
-15.0407
-14.4407
-14.0369
-13.7634
-13.5716
-13.4319
-13.3265
-13.2444
-13.1784
-13.1236
-13.0771
-13.0365
-13.0005
-12.9678
-12.9377
-12.9095
-12.8829
-12.8574
-12.8328
-12.8088
-12.785
-12.7614
-12.7377
-12.7136
-12.689
-12.6634
-12.6368
-12.6087
-12.5787
-12.5463
-12.511
-12.4719
-12.428
-12.378
-12.3201
-12.2518
-12.1695
-12.068
-11.9396
-11.7726
-11.5484
-11.2364
-10.7859
-10.1272
-9.17526
-7.6753
-4.96068
-24.8023
-18.4192
-15.7588
-14.6685
-14.0811
-13.7356
-13.524
-13.3844
-13.2854
-13.211
-13.1524
-13.1045
-13.0638
-13.0283
-12.9966
-12.9676
-12.9407
-12.9153
-12.8912
-12.8679
-12.8454
-12.8234
-12.8017
-12.7801
-12.7585
-12.7368
-12.7147
-12.6921
-12.6688
-12.6446
-12.6191
-12.5922
-12.5634
-12.5323
-12.4984
-12.4609
-12.4189
-12.371
-12.3155
-12.2499
-12.1703
-12.0709
-11.9423
-11.768
-11.5157
-11.1212
-10.4677
-9.28293
-6.5066
4.77059e-06
)
;

boundaryField
{
    movingWallTop
    {
        type            zeroGradient;
    }
    movingWallBottom
    {
        type            zeroGradient;
    }
    fixedWalls
    {
        type            zeroGradient;
    }
    frontAndBack
    {
        type            empty;
    }
}


// ************************************************************************* //
