/*--------------------------------*- C++ -*----------------------------------*\
  =========                 |
  \\      /  F ield         | OpenFOAM: The Open Source CFD Toolbox
   \\    /   O peration     | Website:  https://openfoam.org
    \\  /    A nd           | Version:  7
     \\/     M anipulation  |
\*---------------------------------------------------------------------------*/
FoamFile
{
    version     2.0;
    format      ascii;
    class       volScalarField;
    location    "0.0246";
    object      p;
}
// * * * * * * * * * * * * * * * * * * * * * * * * * * * * * * * * * * * * * //

dimensions      [0 2 -2 0 0 0 0];

internalField   nonuniform List<scalar> 
2500
(
-1.6975e-05
6.38478
9.04865
10.1433
10.7349
11.0838
11.2977
11.4384
11.5375
11.6108
11.6674
11.7127
11.7504
11.7826
11.8112
11.8372
11.8615
11.8846
11.9071
11.9291
11.9511
11.9731
11.9952
12.0176
12.0405
12.0637
12.0876
12.1121
12.1375
12.1638
12.1914
12.2205
12.2514
12.2847
12.3209
12.3608
12.4055
12.4562
12.515
12.5843
12.6681
12.772
12.9056
13.0853
13.3432
13.7432
14.4021
15.5918
18.3719
24.8807
4.86823
7.46768
8.88481
9.76765
10.3708
10.7769
11.052
11.2444
11.3838
11.488
11.5684
11.6322
11.6844
11.7284
11.7664
11.8001
11.8308
11.8593
11.8863
11.9123
11.9376
11.9625
11.9873
12.0122
12.0373
12.0628
12.0889
12.1157
12.1436
12.1727
12.2033
12.2359
12.271
12.3091
12.3512
12.3981
12.4514
12.5128
12.585
12.6715
12.7774
12.9105
13.0824
13.3116
13.6286
14.0838
14.7468
15.7025
17.2054
19.9221
7.70459
8.46789
9.21056
9.83352
10.3197
10.6818
10.9488
11.1475
11.2978
11.4136
11.5048
11.5781
11.6386
11.6896
11.7336
11.7724
11.8075
11.8398
11.8701
11.8988
11.9266
11.9538
11.9806
12.0074
12.0342
12.0615
12.0893
12.1179
12.1476
12.1787
12.2115
12.2466
12.2845
12.3259
12.3717
12.4231
12.4816
12.5492
12.6287
12.7236
12.8391
12.9823
13.1635
13.3968
13.7027
14.1089
14.6453
15.3227
16.1199
16.9478
9.11428
9.29101
9.66993
10.0707
10.4204
10.7059
10.9342
11.1151
11.2587
11.3734
11.4664
11.5429
11.607
11.6616
11.7091
11.7512
11.7892
11.8241
11.8567
11.8877
11.9174
11.9463
11.9747
12.003
12.0313
12.0599
12.089
12.119
12.1501
12.1827
12.2172
12.254
12.2938
12.3373
12.3855
12.4394
12.5007
12.5712
12.6533
12.7504
12.8666
13.0074
13.1799
13.3928
13.6563
13.9804
14.3701
14.8115
15.2261
15.4334
9.92662
9.9058
10.0817
10.3252
10.5646
10.7795
10.9644
11.1196
11.2488
11.3561
11.4457
11.5213
11.5859
11.6418
11.6909
11.7348
11.7747
11.8114
11.8457
11.8782
11.9094
11.9398
11.9695
11.999
12.0284
12.0582
12.0885
12.1196
12.1518
12.1856
12.2212
12.2593
12.3004
12.3453
12.3947
12.4499
12.5122
12.5833
12.6652
12.7604
12.8722
13.0041
13.1604
13.3452
13.5615
13.8089
14.0805
14.3536
14.552
14.5434
10.4379
10.3523
10.4211
10.5631
10.7222
10.8786
11.0228
11.1508
11.2621
11.3582
11.441
11.5127
11.5753
11.6304
11.6795
11.7239
11.7645
11.8021
11.8375
11.871
11.9033
11.9346
11.9653
11.9957
12.0261
12.0567
12.0878
12.1198
12.1528
12.1874
12.2238
12.2627
12.3045
12.3499
12.3997
12.455
12.5168
12.5866
12.6659
12.7565
12.8606
12.98
13.1168
13.2718
13.4438
13.6277
13.8123
13.9755
14.0576
13.9735
10.7785
10.6803
10.6957
10.7745
10.8773
10.988
11.0973
11.1995
11.2925
11.3758
11.4498
11.5157
11.5744
11.6271
11.6749
11.7186
11.759
11.7967
11.8324
11.8664
11.8992
11.9311
11.9624
11.9934
12.0244
12.0556
12.0873
12.1198
12.1534
12.1884
12.2253
12.2644
12.3063
12.3516
12.4011
12.4554
12.5156
12.5827
12.6577
12.7419
12.8363
12.9418
13.0585
13.1854
13.3192
13.4529
13.5757
13.6696
13.6922
13.5899
11.02
10.9271
10.9165
10.9567
11.0209
11.0974
11.1783
11.2582
11.334
11.4044
11.469
11.5279
11.5817
11.631
11.6764
11.7185
11.7579
11.7951
11.8305
11.8644
11.8973
11.9294
11.9609
11.9923
12.0236
12.0551
12.0872
12.1199
12.1537
12.1889
12.2258
12.2648
12.3064
12.3511
12.3995
12.4522
12.5099
12.5733
12.6431
12.7199
12.8041
12.8956
12.9934
13.0955
13.1978
13.2935
13.3733
13.4241
13.4166
13.3169
11.201
11.1178
11.0948
11.1115
11.1497
11.2013
11.26
11.3213
11.3819
11.4403
11.4955
11.5472
11.5956
11.6408
11.6832
11.7231
11.7609
11.7969
11.8315
11.865
11.8976
11.9295
11.961
11.9924
12.0237
12.0554
12.0875
12.1203
12.1541
12.1891
12.2258
12.2644
12.3053
12.3489
12.3958
12.4463
12.5009
12.5601
12.6242
12.6934
12.7674
12.8457
12.9266
13.0078
13.0851
13.1526
13.2028
13.2267
13.2043
13.1129
11.3425
11.2688
11.2403
11.2428
11.2635
11.2971
11.3388
11.385
11.4327
11.4804
11.5269
11.5717
11.6145
11.6554
11.6943
11.7316
11.7674
11.8019
11.8353
11.8679
11.8999
11.9314
11.9626
11.9937
12.0249
12.0564
12.0883
12.121
12.1545
12.1893
12.2254
12.2633
12.3032
12.3455
12.3905
12.4385
12.4898
12.5445
12.6028
12.6645
12.729
12.7952
12.8616
12.9255
12.9833
13.0299
13.0598
13.067
13.0373
12.955
11.4566
11.3909
11.3603
11.3542
11.3632
11.3839
11.4128
11.447
11.4841
11.5225
11.5612
11.5995
11.6369
11.6734
11.7088
11.7433
11.7768
11.8095
11.8415
11.873
11.9041
11.9349
11.9655
11.9962
12.027
12.0582
12.0898
12.1221
12.1552
12.1894
12.2249
12.2619
12.3006
12.3413
12.3842
12.4295
12.4773
12.5276
12.5802
12.6348
12.6905
12.7463
12.8003
12.8502
12.8927
12.924
12.94
12.9366
12.9037
12.8296
11.5505
11.4915
11.4605
11.4491
11.4503
11.4617
11.481
11.5057
11.5341
11.5648
11.5967
11.629
11.6615
11.6938
11.7258
11.7573
11.7884
11.8192
11.8496
11.8798
11.9098
11.9397
11.9696
11.9997
12.03
12.0607
12.0918
12.1236
12.1562
12.1897
12.2243
12.2603
12.2977
12.3367
12.3774
12.4199
12.4642
12.5102
12.5574
12.6054
12.6533
12.7
12.7437
12.7822
12.8131
12.8331
12.8394
12.8294
12.7955
12.7284
11.629
11.5754
11.5448
11.5302
11.5261
11.5309
11.543
11.5605
11.5819
11.606
11.632
11.6593
11.6872
11.7156
11.7442
11.7729
11.8017
11.8304
11.8592
11.8879
11.9167
11.9457
11.9748
12.0041
12.0337
12.0638
12.0943
12.1255
12.1574
12.1901
12.2238
12.2586
12.2946
12.3318
12.3703
12.4101
12.451
12.4928
12.5351
12.5772
12.6183
12.6571
12.6922
12.7217
12.7435
12.7552
12.7548
12.7407
12.7069
12.6457
11.6954
11.6461
11.6162
11.5998
11.5921
11.5922
11.5988
11.6106
11.6265
11.6453
11.6664
11.6891
11.7131
11.7379
11.7635
11.7895
11.8159
11.8427
11.8697
11.897
11.9246
11.9524
11.9806
12.0091
12.038
12.0673
12.0972
12.1277
12.1588
12.1907
12.2234
12.257
12.2915
12.3269
12.3633
12.4004
12.4381
12.4761
12.5138
12.5507
12.5858
12.618
12.646
12.6683
12.6831
12.6887
12.6835
12.6669
12.6337
12.5776
11.7517
11.7059
11.677
11.6595
11.6494
11.6461
11.6487
11.6561
11.6675
11.682
11.699
11.7179
11.7384
11.7601
11.7828
11.8063
11.8306
11.8554
11.8808
11.9066
11.9329
11.9597
11.9869
12.0145
12.0426
12.0712
12.1003
12.13
12.1604
12.1913
12.223
12.2554
12.2884
12.3221
12.3564
12.391
12.4257
12.4602
12.4939
12.5261
12.5561
12.5828
12.605
12.6216
12.631
12.6319
12.6235
12.6053
12.5732
12.5214
11.7996
11.7568
11.7288
11.7107
11.699
11.6932
11.6928
11.6969
11.7048
11.7158
11.7293
11.745
11.7625
11.7814
11.8016
11.8229
11.8451
11.8682
11.892
11.9164
11.9415
11.9671
11.9933
12.0201
12.0474
12.0752
12.1036
12.1325
12.162
12.1921
12.2227
12.2539
12.2855
12.3176
12.3498
12.3821
12.4141
12.4454
12.4755
12.5037
12.5293
12.5514
12.5689
12.5809
12.5861
12.5837
12.573
12.5539
12.5229
12.4748
11.8404
11.8
11.7729
11.7545
11.7417
11.7342
11.7316
11.7331
11.7382
11.7463
11.7571
11.7701
11.785
11.8015
11.8195
11.8388
11.8592
11.8806
11.9029
11.926
11.9499
11.9745
11.9998
12.0257
12.0522
12.0792
12.1068
12.135
12.1637
12.1928
12.2225
12.2525
12.2828
12.3133
12.3437
12.3738
12.4034
12.4319
12.4588
12.4836
12.5055
12.5238
12.5375
12.5458
12.5478
12.5429
12.5306
12.5111
12.4812
12.4363
11.8749
11.8366
11.8103
11.7918
11.7783
11.7695
11.7652
11.7647
11.7676
11.7735
11.782
11.7928
11.8055
11.82
11.8361
11.8536
11.8724
11.8923
11.9133
11.9352
11.958
11.9817
12.006
12.0311
12.0568
12.0831
12.11
12.1374
12.1653
12.1936
12.2223
12.2512
12.2803
12.3093
12.3381
12.3663
12.3937
12.4197
12.444
12.4658
12.4847
12.4997
12.5103
12.5158
12.5154
12.5086
12.4952
12.4755
12.4467
12.4045
11.9039
11.8672
11.8417
11.8233
11.8093
11.7996
11.794
11.792
11.7932
11.7973
11.804
11.8129
11.8239
11.8367
11.8511
11.8671
11.8845
11.9031
11.9229
11.9437
11.9656
11.9883
12.0118
12.0361
12.0611
12.0867
12.1129
12.1396
12.1667
12.1943
12.2221
12.25
12.278
12.3057
12.333
12.3596
12.385
12.409
12.4309
12.4504
12.4666
12.4791
12.4873
12.4904
12.4882
12.48
12.4659
12.4463
12.4185
12.3786
11.9279
11.8925
11.8676
11.8493
11.8351
11.8247
11.8182
11.815
11.815
11.8177
11.8228
11.8303
11.8398
11.8512
11.8643
11.879
11.8952
11.9127
11.9315
11.9514
11.9723
11.9942
12.017
12.0406
12.0649
12.0899
12.1155
12.1416
12.1681
12.1949
12.2219
12.249
12.2759
12.3025
12.3285
12.3537
12.3775
12.3997
12.4198
12.4372
12.4514
12.4618
12.468
12.4694
12.4657
12.4565
12.442
12.4224
12.3956
12.3577
11.9473
11.913
11.8887
11.8705
11.856
11.8453
11.838
11.834
11.833
11.8345
11.8386
11.8449
11.8532
11.8635
11.8755
11.8891
11.9043
11.9209
11.9388
11.9579
11.9781
11.9994
12.0215
12.0445
12.0683
12.0927
12.1178
12.1433
12.1692
12.1954
12.2217
12.2481
12.2742
12.2998
12.3248
12.3487
12.3712
12.392
12.4105
12.4263
12.4388
12.4476
12.4523
12.4524
12.4476
12.4377
12.4229
12.4035
12.3774
12.3411
11.9624
11.929
11.9051
11.8871
11.8725
11.8614
11.8537
11.8491
11.8472
11.848
11.8512
11.8566
11.864
11.8734
11.8846
11.8974
11.9118
11.9276
11.9448
11.9633
11.9829
12.0036
12.0252
12.0477
12.071
12.095
12.1196
12.1447
12.1701
12.1958
12.2216
12.2473
12.2727
12.2976
12.3217
12.3447
12.3662
12.3858
12.4031
12.4176
12.4288
12.4364
12.4399
12.439
12.4334
12.4231
12.4081
12.3888
12.3634
12.3284
11.9735
11.9408
11.9173
11.8993
11.8847
11.8734
11.8653
11.8602
11.8579
11.8581
11.8606
11.8654
11.8722
11.8809
11.8914
11.9036
11.9175
11.9328
11.9494
11.9674
11.9866
12.0068
12.0281
12.0502
12.0731
12.0968
12.121
12.1457
12.1708
12.1961
12.2215
12.2467
12.2716
12.2959
12.3194
12.3416
12.3623
12.3811
12.3975
12.4111
12.4214
12.4281
12.4308
12.4292
12.4231
12.4123
12.3972
12.3782
12.3532
12.3192
11.9809
11.9486
11.9252
11.9074
11.8927
11.8813
11.873
11.8676
11.865
11.8648
11.8669
11.8713
11.8776
11.8859
11.896
11.9079
11.9213
11.9362
11.9525
11.9702
11.989
12.009
12.03
12.0519
12.0746
12.098
12.122
12.1465
12.1713
12.1963
12.2214
12.2463
12.2709
12.2948
12.3178
12.3396
12.3598
12.378
12.3938
12.4068
12.4165
12.4226
12.4248
12.4227
12.4163
12.4053
12.3902
12.3712
12.3466
12.3132
11.9845
11.9524
11.9292
11.9114
11.8967
11.8852
11.8768
11.8713
11.8685
11.8681
11.8701
11.8742
11.8804
11.8884
11.8983
11.91
11.9232
11.9379
11.9541
11.9716
11.9903
12.0101
12.0309
12.0527
12.0753
12.0986
12.1224
12.1468
12.1715
12.1964
12.2214
12.2461
12.2705
12.2942
12.317
12.3386
12.3585
12.3764
12.3919
12.4046
12.4141
12.4199
12.4218
12.4195
12.4129
12.4019
12.3867
12.3677
12.3433
12.3102
11.9845
11.9524
11.9292
11.9114
11.8967
11.8852
11.8768
11.8713
11.8685
11.8681
11.8701
11.8742
11.8804
11.8884
11.8983
11.91
11.9232
11.9379
11.9541
11.9716
11.9903
12.0101
12.0309
12.0527
12.0753
12.0986
12.1224
12.1468
12.1715
12.1964
12.2214
12.2461
12.2705
12.2942
12.317
12.3386
12.3585
12.3764
12.3919
12.4046
12.4141
12.4199
12.4218
12.4195
12.4129
12.4019
12.3867
12.3677
12.3433
12.3102
11.9809
11.9486
11.9252
11.9074
11.8927
11.8813
11.873
11.8676
11.865
11.8648
11.8669
11.8713
11.8776
11.8859
11.896
11.9078
11.9213
11.9362
11.9525
11.9702
11.989
12.009
12.03
12.0519
12.0746
12.098
12.122
12.1465
12.1713
12.1963
12.2214
12.2463
12.2709
12.2948
12.3178
12.3396
12.3598
12.378
12.3938
12.4068
12.4165
12.4226
12.4248
12.4227
12.4163
12.4053
12.3902
12.3712
12.3466
12.3132
11.9735
11.9408
11.9173
11.8993
11.8847
11.8734
11.8653
11.8602
11.8579
11.8581
11.8606
11.8654
11.8722
11.8809
11.8914
11.9036
11.9175
11.9328
11.9494
11.9674
11.9866
12.0068
12.0281
12.0502
12.0731
12.0968
12.121
12.1457
12.1708
12.1961
12.2215
12.2467
12.2716
12.2959
12.3194
12.3416
12.3623
12.3811
12.3975
12.4111
12.4214
12.4281
12.4308
12.4292
12.4231
12.4123
12.3972
12.3782
12.3532
12.3192
11.9624
11.929
11.9051
11.8871
11.8725
11.8614
11.8537
11.8491
11.8472
11.848
11.8512
11.8566
11.864
11.8734
11.8846
11.8974
11.9118
11.9276
11.9448
11.9633
11.9829
12.0036
12.0252
12.0477
12.071
12.095
12.1196
12.1447
12.1701
12.1958
12.2216
12.2473
12.2727
12.2976
12.3217
12.3447
12.3662
12.3858
12.4031
12.4176
12.4288
12.4364
12.4399
12.439
12.4334
12.4231
12.4081
12.3888
12.3634
12.3284
11.9472
11.913
11.8887
11.8705
11.856
11.8453
11.838
11.834
11.8329
11.8345
11.8386
11.8449
11.8532
11.8635
11.8755
11.8891
11.9043
11.9209
11.9388
11.9579
11.9781
11.9994
12.0215
12.0445
12.0683
12.0927
12.1177
12.1433
12.1692
12.1954
12.2217
12.2481
12.2742
12.2998
12.3248
12.3487
12.3712
12.392
12.4105
12.4262
12.4388
12.4476
12.4523
12.4524
12.4476
12.4377
12.4229
12.4035
12.3774
12.3411
11.9279
11.8925
11.8676
11.8493
11.835
11.8247
11.8182
11.815
11.815
11.8176
11.8228
11.8303
11.8398
11.8512
11.8643
11.879
11.8952
11.9127
11.9315
11.9514
11.9723
11.9942
12.017
12.0406
12.0649
12.0899
12.1155
12.1416
12.1681
12.1949
12.2219
12.249
12.2759
12.3025
12.3285
12.3537
12.3775
12.3997
12.4198
12.4372
12.4514
12.4618
12.468
12.4694
12.4657
12.4565
12.442
12.4224
12.3956
12.3577
11.9039
11.8672
11.8416
11.8232
11.8093
11.7996
11.794
11.792
11.7932
11.7973
11.804
11.8129
11.8238
11.8367
11.8511
11.8671
11.8845
11.9031
11.9229
11.9437
11.9656
11.9883
12.0118
12.0361
12.0611
12.0867
12.1129
12.1396
12.1667
12.1943
12.2221
12.25
12.278
12.3057
12.333
12.3596
12.385
12.409
12.4309
12.4503
12.4666
12.4791
12.4873
12.4904
12.4882
12.48
12.4659
12.4463
12.4185
12.3786
11.8749
11.8365
11.8103
11.7918
11.7783
11.7695
11.7652
11.7647
11.7676
11.7735
11.782
11.7928
11.8055
11.82
11.8361
11.8536
11.8724
11.8923
11.9133
11.9352
11.958
11.9816
12.006
12.0311
12.0568
12.0831
12.11
12.1374
12.1653
12.1936
12.2223
12.2512
12.2803
12.3093
12.3381
12.3663
12.3937
12.4197
12.444
12.4658
12.4846
12.4997
12.5103
12.5158
12.5154
12.5086
12.4952
12.4755
12.4467
12.4045
11.8404
11.8
11.7729
11.7545
11.7417
11.7342
11.7315
11.7331
11.7382
11.7463
11.7571
11.7701
11.785
11.8015
11.8195
11.8388
11.8592
11.8806
11.9029
11.926
11.9499
11.9745
11.9998
12.0257
12.0522
12.0792
12.1068
12.135
12.1637
12.1928
12.2225
12.2525
12.2828
12.3133
12.3437
12.3738
12.4034
12.4319
12.4588
12.4836
12.5055
12.5238
12.5375
12.5458
12.5478
12.5429
12.5306
12.5111
12.4812
12.4363
11.7996
11.7568
11.7288
11.7107
11.699
11.6932
11.6928
11.6969
11.7048
11.7158
11.7293
11.745
11.7625
11.7814
11.8016
11.8229
11.8451
11.8682
11.8919
11.9164
11.9415
11.9671
11.9933
12.0201
12.0474
12.0752
12.1036
12.1325
12.162
12.1921
12.2227
12.2539
12.2855
12.3176
12.3498
12.3821
12.4141
12.4454
12.4755
12.5037
12.5293
12.5514
12.5689
12.5809
12.5861
12.5837
12.573
12.5539
12.5229
12.4748
11.7517
11.7059
11.677
11.6595
11.6494
11.646
11.6487
11.6561
11.6675
11.682
11.699
11.7179
11.7384
11.7601
11.7828
11.8063
11.8305
11.8554
11.8808
11.9066
11.9329
11.9597
11.9868
12.0145
12.0426
12.0712
12.1003
12.13
12.1604
12.1913
12.223
12.2554
12.2884
12.3221
12.3564
12.391
12.4257
12.4602
12.4938
12.5261
12.5561
12.5828
12.605
12.6216
12.631
12.6319
12.6235
12.6053
12.5732
12.5214
11.6953
11.646
11.6162
11.5998
11.5921
11.5921
11.5988
11.6106
11.6264
11.6453
11.6664
11.6891
11.7131
11.7379
11.7635
11.7895
11.8159
11.8427
11.8697
11.897
11.9246
11.9524
11.9806
12.0091
12.038
12.0673
12.0972
12.1277
12.1588
12.1907
12.2234
12.257
12.2915
12.3269
12.3633
12.4004
12.4381
12.4761
12.5138
12.5507
12.5858
12.618
12.646
12.6683
12.6831
12.6887
12.6835
12.6669
12.6337
12.5776
11.629
11.5754
11.5448
11.5302
11.5261
11.5309
11.5429
11.5604
11.5818
11.606
11.632
11.6592
11.6872
11.7156
11.7442
11.7729
11.8017
11.8304
11.8592
11.8879
11.9167
11.9457
11.9747
12.0041
12.0337
12.0638
12.0943
12.1255
12.1574
12.1901
12.2238
12.2586
12.2946
12.3318
12.3703
12.4101
12.451
12.4928
12.5351
12.5772
12.6183
12.6571
12.6922
12.7217
12.7435
12.7552
12.7548
12.7406
12.7068
12.6457
11.5505
11.4915
11.4605
11.4491
11.4502
11.4617
11.4809
11.5057
11.5341
11.5648
11.5966
11.629
11.6615
11.6938
11.7258
11.7573
11.7884
11.8192
11.8496
11.8798
11.9098
11.9397
11.9696
11.9997
12.03
12.0607
12.0918
12.1236
12.1562
12.1897
12.2243
12.2603
12.2977
12.3367
12.3774
12.4199
12.4642
12.5102
12.5574
12.6054
12.6533
12.7
12.7437
12.7822
12.8131
12.8331
12.8393
12.8294
12.7955
12.7284
11.4565
11.3909
11.3603
11.3542
11.3632
11.3838
11.4128
11.4469
11.484
11.5225
11.5612
11.5994
11.6369
11.6734
11.7088
11.7433
11.7768
11.8095
11.8415
11.873
11.9041
11.9348
11.9655
11.9962
12.027
12.0582
12.0898
12.1221
12.1552
12.1894
12.2249
12.2619
12.3006
12.3413
12.3842
12.4295
12.4773
12.5276
12.5802
12.6348
12.6905
12.7463
12.8003
12.8502
12.8927
12.924
12.9399
12.9366
12.9037
12.8296
11.3425
11.2687
11.2402
11.2427
11.2635
11.297
11.3388
11.3849
11.4327
11.4804
11.5269
11.5717
11.6145
11.6553
11.6943
11.7316
11.7674
11.8019
11.8353
11.8679
11.8999
11.9314
11.9626
11.9937
12.0249
12.0564
12.0883
12.121
12.1545
12.1893
12.2254
12.2633
12.3032
12.3455
12.3905
12.4385
12.4898
12.5445
12.6028
12.6645
12.729
12.7952
12.8616
12.9255
12.9833
13.0299
13.0598
13.067
13.0373
12.955
11.201
11.1177
11.0948
11.1115
11.1497
11.2012
11.26
11.3212
11.3819
11.4402
11.4955
11.5472
11.5956
11.6408
11.6832
11.7231
11.7609
11.7969
11.8315
11.865
11.8975
11.9295
11.961
11.9924
12.0237
12.0554
12.0875
12.1203
12.1541
12.1891
12.2258
12.2644
12.3053
12.3489
12.3958
12.4463
12.5009
12.5601
12.6242
12.6934
12.7674
12.8457
12.9266
13.0078
13.0851
13.1526
13.2028
13.2267
13.2043
13.1129
11.0199
10.9271
10.9164
10.9566
11.0209
11.0974
11.1783
11.2582
11.334
11.4044
11.4689
11.5279
11.5817
11.631
11.6764
11.7185
11.7579
11.7951
11.8304
11.8644
11.8973
11.9294
11.9609
11.9923
12.0236
12.0551
12.0871
12.1199
12.1537
12.1889
12.2258
12.2648
12.3064
12.3511
12.3995
12.4522
12.5099
12.5733
12.6431
12.7199
12.8041
12.8955
12.9934
13.0955
13.1978
13.2935
13.3733
13.4241
13.4166
13.3168
10.7785
10.6802
10.6957
10.7745
10.8773
10.988
11.0972
11.1995
11.2925
11.3757
11.4498
11.5156
11.5744
11.6271
11.6749
11.7186
11.759
11.7967
11.8324
11.8664
11.8992
11.9311
11.9624
11.9934
12.0244
12.0556
12.0873
12.1198
12.1534
12.1884
12.2253
12.2644
12.3063
12.3516
12.4011
12.4554
12.5156
12.5827
12.6577
12.7419
12.8363
12.9418
13.0585
13.1854
13.3191
13.4529
13.5757
13.6696
13.6922
13.5898
10.4379
10.3523
10.4211
10.563
10.7222
10.8786
11.0227
11.1507
11.2621
11.3582
11.441
11.5127
11.5753
11.6304
11.6795
11.7239
11.7645
11.8021
11.8375
11.871
11.9033
11.9346
11.9653
11.9957
12.0261
12.0567
12.0878
12.1198
12.1528
12.1874
12.2238
12.2627
12.3045
12.3499
12.3997
12.455
12.5168
12.5866
12.6659
12.7565
12.8605
12.98
13.1168
13.2718
13.4438
13.6277
13.8123
13.9754
14.0576
13.9735
9.92657
9.90575
10.0816
10.3252
10.5646
10.7794
10.9643
11.1196
11.2487
11.356
11.4457
11.5213
11.5859
11.6418
11.6909
11.7348
11.7746
11.8113
11.8457
11.8782
11.9094
11.9397
11.9695
11.999
12.0284
12.0582
12.0885
12.1196
12.1518
12.1856
12.2212
12.2593
12.3004
12.3452
12.3947
12.4499
12.5122
12.5833
12.6651
12.7604
12.8722
13.0041
13.1604
13.3452
13.5614
13.8089
14.0805
14.3536
14.552
14.5434
9.11422
9.29095
9.66987
10.0706
10.4203
10.7059
10.9342
11.1151
11.2586
11.3734
11.4664
11.5429
11.607
11.6616
11.7091
11.7512
11.7892
11.8241
11.8567
11.8876
11.9174
11.9463
11.9747
12.003
12.0313
12.0599
12.089
12.119
12.1501
12.1827
12.2172
12.254
12.2938
12.3373
12.3855
12.4394
12.5007
12.5712
12.6533
12.7504
12.8666
13.0074
13.1799
13.3928
13.6563
13.9804
14.3701
14.8115
15.2261
15.4334
7.70452
8.46783
9.2105
9.83346
10.3197
10.6817
10.9487
11.1475
11.2978
11.4136
11.5047
11.5781
11.6385
11.6895
11.7336
11.7724
11.8075
11.8398
11.87
11.8988
11.9266
11.9538
11.9806
12.0074
12.0342
12.0615
12.0893
12.1179
12.1476
12.1787
12.2115
12.2466
12.2845
12.3259
12.3717
12.4231
12.4816
12.5492
12.6287
12.7236
12.8391
12.9823
13.1634
13.3968
13.7027
14.1089
14.6453
15.3227
16.1199
16.9478
4.86815
7.46761
8.88474
9.76759
10.3707
10.7769
11.0519
11.2443
11.3837
11.488
11.5683
11.6322
11.6844
11.7284
11.7664
11.8001
11.8308
11.8593
11.8863
11.9123
11.9376
11.9625
11.9873
12.0122
12.0373
12.0628
12.0889
12.1157
12.1436
12.1727
12.2033
12.2359
12.271
12.3091
12.3511
12.3981
12.4514
12.5128
12.585
12.6715
12.7774
12.9105
13.0824
13.3116
13.6286
14.0838
14.7468
15.7025
17.2054
19.9221
-0.000121933
6.3847
9.04858
10.1432
10.7349
11.0837
11.2977
11.4384
11.5374
11.6107
11.6673
11.7127
11.7503
11.7826
11.8112
11.8372
11.8615
11.8846
11.907
11.9291
11.9511
11.973
11.9952
12.0176
12.0404
12.0637
12.0876
12.1121
12.1375
12.1638
12.1914
12.2205
12.2514
12.2847
12.3209
12.3608
12.4055
12.4562
12.515
12.5843
12.6681
12.772
12.9056
13.0853
13.3432
13.7432
14.4021
15.5918
18.3719
24.8807
)
;

boundaryField
{
    movingWallTop
    {
        type            zeroGradient;
    }
    movingWallBottom
    {
        type            zeroGradient;
    }
    fixedWalls
    {
        type            zeroGradient;
    }
    frontAndBack
    {
        type            empty;
    }
}


// ************************************************************************* //
