/*--------------------------------*- C++ -*----------------------------------*\
  =========                 |
  \\      /  F ield         | OpenFOAM: The Open Source CFD Toolbox
   \\    /   O peration     | Website:  https://openfoam.org
    \\  /    A nd           | Version:  7
     \\/     M anipulation  |
\*---------------------------------------------------------------------------*/
FoamFile
{
    version     2.0;
    format      ascii;
    class       surfaceScalarField;
    location    "0.0004";
    object      phi;
}
// * * * * * * * * * * * * * * * * * * * * * * * * * * * * * * * * * * * * * //

dimensions      [0 3 -1 0 0 0 0];

internalField   nonuniform List<scalar> 
4900
(
-1.62689e-09
1.6269e-09
-5.12157e-09
3.49468e-09
-9.43356e-09
4.31199e-09
-1.38816e-08
4.44804e-09
-1.82997e-08
4.41808e-09
-2.26382e-08
4.33852e-09
-2.68716e-08
4.23338e-09
-3.0981e-08
4.10943e-09
-3.49498e-08
3.96873e-09
-3.87619e-08
3.81212e-09
-4.24021e-08
3.64025e-09
-4.5856e-08
3.45385e-09
-4.91098e-08
3.25381e-09
-5.21509e-08
3.04114e-09
-5.49677e-08
2.81682e-09
-5.75495e-08
2.58177e-09
-5.98864e-08
2.33694e-09
-6.19697e-08
2.08327e-09
-6.37915e-08
1.82175e-09
-6.53448e-08
1.55339e-09
-6.66241e-08
1.27925e-09
-6.76245e-08
1.00041e-09
-6.83425e-08
7.17994e-10
-6.87755e-08
4.3301e-10
-6.8922e-08
1.46483e-10
-6.87814e-08
-1.40581e-10
-6.83542e-08
-4.27218e-10
-6.76417e-08
-7.12455e-10
-6.66467e-08
-9.94988e-10
-6.53732e-08
-1.2735e-09
-6.38261e-08
-1.54706e-09
-6.20113e-08
-1.81487e-09
-5.99354e-08
-2.07584e-09
-5.76065e-08
-2.32893e-09
-5.50331e-08
-2.57337e-09
-5.22249e-08
-2.80819e-09
-4.91929e-08
-3.032e-09
-4.59493e-08
-3.24357e-09
-4.2507e-08
-3.4423e-09
-3.88795e-08
-3.62751e-09
-3.50816e-08
-3.79793e-09
-3.11293e-08
-3.95231e-09
-2.7039e-08
-4.09028e-09
-2.2827e-08
-4.21204e-09
-1.85098e-08
-4.31715e-09
-1.41079e-08
-4.40193e-09
-9.66208e-09
-4.44582e-09
-5.31799e-09
-4.34408e-09
-1.62667e-09
-3.69132e-09
-1.62667e-09
-3.88963e-09
5.51652e-09
-1.05723e-08
1.01774e-08
-1.81389e-08
1.18786e-08
-2.59451e-08
1.22542e-08
-3.37297e-08
1.22027e-08
-4.13945e-08
1.20033e-08
-4.88883e-08
1.17272e-08
-5.61731e-08
1.13942e-08
-6.32154e-08
1.10111e-08
-6.99845e-08
1.05812e-08
-7.64515e-08
1.01073e-08
-8.25897e-08
9.59199e-09
-8.83738e-08
9.038e-09
-9.37809e-08
8.44818e-09
-9.87894e-08
7.82534e-09
-1.0338e-07
7.17227e-09
-1.07535e-07
6.49175e-09
-1.11238e-07
5.7866e-09
-1.14476e-07
5.05966e-09
-1.17236e-07
4.31382e-09
-1.19509e-07
3.55199e-09
-1.21286e-07
2.77716e-09
-1.2256e-07
1.99233e-09
-1.23327e-07
1.20034e-09
-1.23585e-07
4.03983e-10
-1.23332e-07
-3.93865e-10
-1.22568e-07
-1.19042e-09
-1.21298e-07
-1.9829e-09
-1.19525e-07
-2.76814e-09
-1.17256e-07
-3.54283e-09
-1.14498e-07
-4.30422e-09
-1.11264e-07
-5.04973e-09
-1.07563e-07
-5.77639e-09
-1.03411e-07
-6.48124e-09
-9.88223e-08
-7.1617e-09
-9.38155e-08
-7.81497e-09
-8.84098e-08
-8.4377e-09
-8.26266e-08
-9.02681e-09
-7.64889e-08
-9.57995e-09
-7.00216e-08
-1.00948e-08
-6.32511e-08
-1.05684e-08
-5.62055e-08
-1.09979e-08
-4.89143e-08
-1.13815e-08
-4.14087e-08
-1.17176e-08
-3.37232e-08
-1.20026e-08
-2.59032e-08
-1.22219e-08
-1.80383e-08
-1.23106e-08
-1.03826e-08
-1.19998e-08
-3.69474e-09
-1.03792e-08
-5.32141e-09
-4.4174e-09
9.93392e-09
-1.22359e-08
1.79958e-08
-2.09952e-08
2.06379e-08
-2.99488e-08
2.12078e-08
-3.88487e-08
2.11026e-08
-4.76008e-08
2.07555e-08
-5.61539e-08
2.02802e-08
-6.4467e-08
1.97073e-08
-7.25031e-08
1.90472e-08
-8.02274e-08
1.83055e-08
-8.7607e-08
1.74869e-08
-9.46113e-08
1.65963e-08
-1.01212e-07
1.56383e-08
-1.07381e-07
1.46179e-08
-1.13096e-07
1.354e-08
-1.18333e-07
1.24095e-08
-1.23073e-07
1.12315e-08
-1.27297e-07
1.00108e-08
-1.3099e-07
8.75263e-09
-1.34138e-07
7.46188e-09
-1.3673e-07
6.14362e-09
-1.38755e-07
4.80295e-09
-1.40208e-07
3.44496e-09
-1.41082e-07
2.0746e-09
-1.41375e-07
6.96722e-10
-1.41085e-07
-6.83702e-10
-1.40214e-07
-2.06178e-09
-1.38764e-07
-3.43268e-09
-1.36741e-07
-4.79122e-09
-1.34152e-07
-6.13207e-09
-1.31006e-07
-7.45031e-09
-1.27314e-07
-8.74119e-09
-1.23091e-07
-9.99961e-09
-1.18352e-07
-1.12205e-08
-1.13114e-07
-1.23991e-08
-1.07399e-07
-1.35303e-08
-1.01228e-07
-1.46087e-08
-9.46255e-08
-1.56293e-08
-8.76177e-08
-1.65877e-08
-8.02331e-08
-1.74794e-08
-7.25022e-08
-1.82993e-08
-6.4457e-08
-1.90431e-08
-5.61315e-08
-1.9707e-08
-4.75618e-08
-2.02873e-08
-3.87885e-08
-2.07759e-08
-2.98644e-08
-2.11461e-08
-2.08881e-08
-2.12869e-08
-1.21265e-08
-2.07613e-08
-4.39179e-09
-1.8114e-08
-9.71317e-09
-4.57073e-09
1.45047e-08
-1.27255e-08
2.61505e-08
-2.18964e-08
2.98088e-08
-3.12515e-08
3.05629e-08
-4.0536e-08
3.03872e-08
-4.96585e-08
2.98779e-08
-5.85686e-08
2.91903e-08
-6.72258e-08
2.83646e-08
-7.55925e-08
2.74139e-08
-8.3633e-08
2.6346e-08
-9.13136e-08
2.51675e-08
-9.86026e-08
2.38852e-08
-1.0547e-07
2.2506e-08
-1.11889e-07
2.10368e-08
-1.17834e-07
1.94847e-08
-1.23281e-07
1.7857e-08
-1.28211e-07
1.61609e-08
-1.32604e-07
1.44037e-08
-1.36444e-07
1.25926e-08
-1.39717e-07
1.07349e-08
-1.42411e-07
8.83789e-09
-1.44517e-07
6.90879e-09
-1.46027e-07
4.95486e-09
-1.46935e-07
2.98319e-09
-1.47239e-07
1.00079e-09
-1.46938e-07
-9.85253e-10
-1.46032e-07
-2.96786e-09
-1.44524e-07
-4.9401e-09
-1.42421e-07
-6.89472e-09
-1.39728e-07
-8.82428e-09
-1.36457e-07
-1.07217e-08
-1.32618e-07
-1.258e-08
-1.28226e-07
-1.43918e-08
-1.23297e-07
-1.61499e-08
-1.17849e-07
-1.7847e-08
-1.11903e-07
-1.94761e-08
-1.05482e-07
-2.10295e-08
-9.86116e-08
-2.25e-08
-9.13185e-08
-2.38809e-08
-8.36325e-08
-2.51654e-08
-7.55851e-08
-2.63467e-08
-6.72098e-08
-2.74184e-08
-5.85419e-08
-2.83749e-08
-4.96196e-08
-2.92097e-08
-4.04845e-08
-2.9911e-08
-3.11895e-08
-3.0441e-08
-2.18321e-08
-3.06443e-08
-1.26798e-08
-2.99137e-08
-4.57971e-09
-2.6214e-08
-1.42929e-08
-4.64161e-09
1.91463e-08
-1.29572e-08
3.44661e-08
-2.2338e-08
3.91896e-08
-3.19072e-08
4.01321e-08
-4.13993e-08
3.98792e-08
-5.07214e-08
3.92e-08
-5.98231e-08
3.82921e-08
-6.86637e-08
3.72051e-08
-7.72052e-08
3.59554e-08
-8.54119e-08
3.45526e-08
-9.32495e-08
3.30051e-08
-1.00686e-07
3.13217e-08
-1.07691e-07
2.95112e-08
-1.14237e-07
2.7583e-08
-1.20299e-07
2.55462e-08
-1.25852e-07
2.34106e-08
-1.30877e-07
2.11856e-08
-1.35354e-07
1.88807e-08
-1.39267e-07
1.65056e-08
-1.42602e-07
1.40698e-08
-1.45347e-07
1.15828e-08
-1.47492e-07
9.05404e-09
-1.4903e-07
6.49291e-09
-1.49956e-07
3.9087e-09
-1.50266e-07
1.3105e-09
-1.49958e-07
-1.29244e-09
-1.49035e-07
-3.89085e-09
-1.475e-07
-6.4757e-09
-1.45357e-07
-9.03769e-09
-1.42614e-07
-1.15672e-08
-1.39281e-07
-1.4055e-08
-1.35369e-07
-1.64917e-08
-1.30892e-07
-1.88681e-08
-1.25868e-07
-2.11744e-08
-1.20314e-07
-2.34011e-08
-1.14251e-07
-2.55386e-08
-1.07703e-07
-2.75773e-08
-1.00696e-07
-2.95078e-08
-9.32555e-08
-3.1321e-08
-8.54131e-08
-3.30077e-08
-7.72008e-08
-3.4559e-08
-6.86527e-08
-3.59666e-08
-5.98047e-08
-3.72229e-08
-5.06955e-08
-3.83189e-08
-4.1367e-08
-3.92394e-08
-3.18724e-08
-3.99357e-08
-2.23087e-08
-4.0208e-08
-1.29476e-08
-3.92749e-08
-4.66287e-09
-3.44987e-08
-1.89558e-08
-4.72036e-09
2.38666e-08
-1.31875e-08
4.29333e-08
-2.27567e-08
4.87589e-08
-3.25219e-08
4.98973e-08
-4.22074e-08
4.95647e-08
-5.17172e-08
4.87098e-08
-6.09996e-08
4.75745e-08
-7.00133e-08
4.62188e-08
-7.87198e-08
4.46619e-08
-8.70827e-08
4.29155e-08
-9.50674e-08
4.09898e-08
-1.02641e-07
3.88957e-08
-1.09774e-07
3.66443e-08
-1.16438e-07
3.42469e-08
-1.22608e-07
3.17154e-08
-1.28259e-07
2.90615e-08
-1.3337e-07
2.62972e-08
-1.37924e-07
2.34344e-08
-1.41903e-07
2.0485e-08
-1.45294e-07
1.74607e-08
-1.48085e-07
1.43735e-08
-1.50266e-07
1.12348e-08
-1.51829e-07
8.0563e-09
-1.5277e-07
4.84942e-09
-1.53085e-07
1.62536e-09
-1.52772e-07
-1.60458e-09
-1.51834e-07
-4.82893e-09
-1.50273e-07
-8.03652e-09
-1.48095e-07
-1.1216e-08
-1.45307e-07
-1.43557e-08
-1.41917e-07
-1.74441e-08
-1.3794e-07
-2.04697e-08
-1.33387e-07
-2.34209e-08
-1.28275e-07
-2.62857e-08
-1.22624e-07
-2.90522e-08
-1.16454e-07
-3.17085e-08
-1.09789e-07
-3.42427e-08
-1.02654e-07
-3.6643e-08
-9.50769e-08
-3.8898e-08
-8.70885e-08
-4.09961e-08
-7.87213e-08
-4.29262e-08
-7.00099e-08
-4.4678e-08
-6.09912e-08
-4.62416e-08
-5.17043e-08
-4.76058e-08
-4.21918e-08
-4.87519e-08
-3.25075e-08
-4.962e-08
-2.27498e-08
-4.99657e-08
-1.31967e-08
-4.88279e-08
-4.74572e-09
-4.29497e-08
-2.37015e-08
-4.8244e-09
2.8691e-08
-1.34748e-08
5.15837e-08
-2.32593e-08
5.85433e-08
-3.32477e-08
5.98857e-08
-4.31548e-08
5.94718e-08
-5.28809e-08
5.84359e-08
-6.23724e-08
5.7066e-08
-7.15866e-08
5.5433e-08
-8.04844e-08
5.35597e-08
-8.90284e-08
5.14595e-08
-9.71836e-08
4.9145e-08
-1.04917e-07
4.66291e-08
-1.12198e-07
4.39251e-08
-1.18998e-07
4.10469e-08
-1.25291e-07
3.80086e-08
-1.31054e-07
3.48245e-08
-1.36266e-07
3.15088e-08
-1.40907e-07
2.8076e-08
-1.44962e-07
2.45402e-08
-1.48417e-07
2.09157e-08
-1.5126e-07
1.72164e-08
-1.53482e-07
1.34561e-08
-1.55074e-07
9.64859e-09
-1.56032e-07
5.80749e-09
-1.56353e-07
1.94608e-09
-1.56035e-07
-1.92231e-09
-1.5508e-07
-5.78412e-09
-1.5349e-07
-9.62602e-09
-1.51272e-07
-1.34346e-08
-1.48431e-07
-1.71962e-08
-1.44978e-07
-2.0897e-08
-1.40925e-07
-2.45233e-08
-1.36284e-07
-2.80613e-08
-1.31073e-07
-3.14966e-08
-1.2531e-07
-3.4815e-08
-1.19017e-07
-3.80021e-08
-1.12216e-07
-4.10437e-08
-1.04933e-07
-4.39255e-08
-9.71976e-08
-4.66337e-08
-8.90395e-08
-4.91541e-08
-8.04921e-08
-5.14736e-08
-7.15907e-08
-5.35794e-08
-6.23729e-08
-5.54594e-08
-5.28787e-08
-5.71e-08
-4.31515e-08
-5.84791e-08
-3.32465e-08
-5.9525e-08
-2.32648e-08
-5.99474e-08
-1.34918e-08
-5.86009e-08
-4.84874e-09
-5.15928e-08
-2.85502e-08
-4.95353e-09
3.36445e-08
-1.38276e-08
6.04577e-08
-2.38679e-08
6.85837e-08
-3.41198e-08
7.01376e-08
-4.42882e-08
6.96402e-08
-5.42696e-08
6.84173e-08
-6.40081e-08
6.68046e-08
-7.34596e-08
6.48845e-08
-8.25836e-08
6.26837e-08
-9.13419e-08
6.02179e-08
-9.96987e-08
5.75018e-08
-1.0762e-07
5.45507e-08
-1.15076e-07
5.13805e-08
-1.22036e-07
4.80074e-08
-1.28476e-07
4.44481e-08
-1.3437e-07
4.07193e-08
-1.39699e-07
3.68379e-08
-1.44444e-07
3.28208e-08
-1.48589e-07
2.86845e-08
-1.52118e-07
2.44456e-08
-1.55022e-07
2.01203e-08
-1.57291e-07
1.57248e-08
-1.58917e-07
1.12747e-08
-1.59896e-07
6.78587e-09
-1.60223e-07
2.27367e-09
-1.59899e-07
-2.24657e-09
-1.58924e-07
-6.75925e-09
-1.57301e-07
-1.1249e-08
-1.55035e-07
-1.57003e-08
-1.52134e-07
-2.00974e-08
-1.48606e-07
-2.44245e-08
-1.44464e-07
-2.86656e-08
-1.39721e-07
-3.28046e-08
-1.34393e-07
-3.68247e-08
-1.28498e-07
-4.07093e-08
-1.22059e-07
-4.44416e-08
-1.15098e-07
-4.80048e-08
-1.07641e-07
-5.13822e-08
-9.97175e-08
-5.45572e-08
-9.13585e-08
-5.75132e-08
-8.25974e-08
-6.02346e-08
-7.34705e-08
-6.27063e-08
-6.40162e-08
-6.49136e-08
-5.42757e-08
-6.68406e-08
-4.42937e-08
-6.84611e-08
-3.4127e-08
-6.96917e-08
-2.38801e-08
-7.01943e-08
-1.38466e-08
-6.86344e-08
-4.97466e-09
-6.04647e-08
-3.35249e-08
-5.10628e-09
3.87508e-08
-1.42462e-08
6.95976e-08
-2.4588e-08
7.89254e-08
-3.51482e-08
8.06978e-08
-4.5622e-08
8.0114e-08
-5.59014e-08
7.86967e-08
-6.59283e-08
7.68314e-08
-7.56565e-08
7.46128e-08
-8.50444e-08
7.20715e-08
-9.40525e-08
6.9226e-08
-1.02644e-07
6.60934e-08
-1.10785e-07
6.26914e-08
-1.18443e-07
5.90387e-08
-1.2559e-07
5.51541e-08
-1.32199e-07
5.1057e-08
-1.38246e-07
4.67667e-08
-1.43711e-07
4.23029e-08
-1.48575e-07
3.76848e-08
-1.52822e-07
3.29315e-08
-1.56438e-07
2.8062e-08
-1.59413e-07
2.30947e-08
-1.61736e-07
1.8048e-08
-1.63401e-07
1.29397e-08
-1.64403e-07
7.78762e-09
-1.64738e-07
2.6092e-09
-1.64407e-07
-2.5783e-09
-1.63409e-07
-7.75729e-09
-1.61747e-07
-1.29103e-08
-1.59427e-07
-1.802e-08
-1.56456e-07
-2.30686e-08
-1.52843e-07
-2.80381e-08
-1.48598e-07
-3.29104e-08
-1.43736e-07
-3.76667e-08
-1.38272e-07
-4.22884e-08
-1.32225e-07
-4.6756e-08
-1.25617e-07
-5.10504e-08
-1.18469e-07
-5.5152e-08
-1.1081e-07
-5.90415e-08
-1.02668e-07
-6.26994e-08
-9.40744e-08
-6.61067e-08
-8.5064e-08
-6.9245e-08
-7.56737e-08
-7.20967e-08
-6.5943e-08
-7.46443e-08
-5.59143e-08
-7.68693e-08
-4.5634e-08
-7.87413e-08
-3.5161e-08
-8.01648e-08
-2.46034e-08
-8.07518e-08
-1.42649e-08
-7.89729e-08
-5.12386e-09
-6.96058e-08
-3.86488e-08
-5.28254e-09
4.40334e-08
-1.47319e-08
7.9047e-08
-2.5423e-08
8.96166e-08
-3.63395e-08
9.16143e-08
-4.71653e-08
9.09398e-08
-5.77879e-08
8.93193e-08
-6.81463e-08
8.71898e-08
-7.81927e-08
8.46592e-08
-8.78835e-08
8.17623e-08
-9.71781e-08
7.85206e-08
-1.06039e-07
7.49539e-08
-1.1443e-07
7.10828e-08
-1.2232e-07
6.69286e-08
-1.29679e-07
6.25133e-08
-1.36481e-07
5.78589e-08
-1.42702e-07
5.29879e-08
-1.48321e-07
4.79222e-08
-1.53321e-07
4.26841e-08
-1.57684e-07
3.7295e-08
-1.61398e-07
3.17762e-08
-1.64452e-07
2.61487e-08
-1.66837e-07
2.04329e-08
-1.68546e-07
1.46486e-08
-1.69574e-07
8.81576e-09
-1.69919e-07
2.9537e-09
-1.69579e-07
-2.91842e-09
-1.68555e-07
-8.78116e-09
-1.6685e-07
-1.46151e-08
-1.64469e-07
-2.04009e-08
-1.61419e-07
-2.6119e-08
-1.57708e-07
-3.17491e-08
-1.53347e-07
-3.7271e-08
-1.4835e-07
-4.26637e-08
-1.42732e-07
-4.7906e-08
-1.36512e-07
-5.29761e-08
-1.29711e-07
-5.7852e-08
-1.22351e-07
-6.25115e-08
-1.14461e-07
-6.69323e-08
-1.06068e-07
-7.1092e-08
-9.72057e-08
-7.49689e-08
-8.7909e-08
-7.85418e-08
-7.82158e-08
-8.17899e-08
-6.8167e-08
-8.4693e-08
-5.78064e-08
-8.72299e-08
-4.71824e-08
-8.93653e-08
-3.63563e-08
-9.0991e-08
-2.54404e-08
-9.16677e-08
-1.475e-08
-8.96634e-08
-5.29749e-09
-7.90583e-08
-4.39463e-08
-5.48327e-09
4.95166e-08
-1.52871e-08
8.88508e-08
-2.63778e-08
1.00707e-07
-3.77009e-08
1.02937e-07
-4.89278e-08
1.02167e-07
-5.99408e-08
1.00332e-07
-7.06761e-08
9.79252e-08
-8.10835e-08
9.50666e-08
-9.11177e-08
9.17965e-08
-1.00737e-07
8.81395e-08
-1.09901e-07
8.41184e-08
-1.18575e-07
7.97569e-08
-1.26726e-07
7.50796e-08
-1.34324e-07
7.01114e-08
-1.41343e-07
6.48777e-08
-1.47759e-07
5.94036e-08
-1.53551e-07
5.37142e-08
-1.58701e-07
4.78343e-08
-1.63194e-07
4.17882e-08
-1.67018e-07
3.55994e-08
-1.7016e-07
2.92913e-08
-1.72613e-07
2.28862e-08
-1.74371e-07
1.64063e-08
-1.75429e-07
9.87317e-09
-1.75783e-07
3.30812e-09
-1.75433e-07
-3.2679e-09
-1.74381e-07
-9.83371e-09
-1.72628e-07
-1.63681e-08
-1.70179e-07
-2.28498e-08
-1.67041e-07
-2.92573e-08
-1.63221e-07
-3.55686e-08
-1.58731e-07
-4.1761e-08
-1.53584e-07
-4.78113e-08
-1.47794e-07
-5.36958e-08
-1.4138e-07
-5.93903e-08
-1.34362e-07
-6.487e-08
-1.26763e-07
-7.01097e-08
-1.18612e-07
-7.50839e-08
-1.09936e-07
-7.97674e-08
-1.0077e-07
-8.41351e-08
-9.11491e-08
-8.81629e-08
-8.11124e-08
-9.18267e-08
-7.07023e-08
-9.51031e-08
-5.99645e-08
-9.79677e-08
-4.89494e-08
-1.0038e-07
-3.77212e-08
-1.02219e-07
-2.63972e-08
-1.02992e-07
-1.53053e-08
-1.00755e-07
-5.49694e-09
-8.88667e-08
-4.94432e-08
-5.71009e-09
5.52267e-08
-1.59154e-08
9.90561e-08
-2.74585e-08
1.1225e-07
-3.92412e-08
1.1472e-07
-5.09207e-08
1.13846e-07
-6.23737e-08
1.11785e-07
-7.35333e-08
1.09085e-07
-8.43465e-08
1.0588e-07
-9.47661e-08
1.02216e-07
-1.04748e-07
9.81216e-08
-1.14253e-07
9.36228e-08
-1.23242e-07
8.87467e-08
-1.31684e-07
8.35214e-08
-1.39548e-07
7.79752e-08
-1.46807e-07
7.21369e-08
-1.53438e-07
6.60347e-08
-1.59421e-07
5.96969e-08
-1.64738e-07
5.31511e-08
-1.69374e-07
4.64242e-08
-1.73317e-07
3.95423e-08
-1.76556e-07
3.25309e-08
-1.79085e-07
2.54146e-08
-1.80896e-07
1.82173e-08
-1.81985e-07
1.09626e-08
-1.8235e-07
3.67338e-09
-1.81991e-07
-3.6276e-09
-1.80907e-07
-1.09176e-08
-1.79101e-07
-1.81738e-08
-1.76578e-07
-2.53731e-08
-1.73343e-07
-3.24922e-08
-1.69404e-07
-3.95072e-08
-1.64772e-07
-4.63933e-08
-1.59458e-07
-5.31249e-08
-1.53478e-07
-5.96759e-08
-1.46849e-07
-6.60195e-08
-1.39591e-07
-7.2128e-08
-1.31728e-07
-7.79732e-08
-1.23285e-07
-8.35262e-08
-1.14294e-07
-8.87583e-08
-1.04788e-07
-9.36413e-08
-9.48037e-08
-9.81474e-08
-8.43815e-08
-1.02249e-07
-7.35653e-08
-1.05919e-07
-6.24028e-08
-1.0913e-07
-5.09468e-08
-1.11836e-07
-3.92648e-08
-1.13901e-07
-2.74797e-08
-1.14777e-07
-1.59338e-08
-1.12301e-07
-5.72304e-09
-9.90775e-08
-5.51662e-08
-5.96477e-09
6.11915e-08
-1.66213e-08
1.09713e-07
-2.86722e-08
1.24301e-07
-4.09706e-08
1.27018e-07
-5.31572e-08
1.26033e-07
-6.51027e-08
1.23731e-07
-7.67361e-08
1.20718e-07
-8.80019e-08
1.17146e-07
-9.88505e-08
1.13065e-07
-1.09236e-07
1.08507e-07
-1.19117e-07
1.03504e-07
-1.28456e-07
9.80856e-08
-1.37219e-07
9.2284e-08
-1.45375e-07
8.61313e-08
-1.52898e-07
7.96599e-08
-1.59765e-07
7.29017e-08
-1.65956e-07
6.5888e-08
-1.71454e-07
5.86493e-08
-1.76246e-07
5.12155e-08
-1.80318e-07
4.3615e-08
-1.83663e-07
3.58757e-08
-1.86273e-07
2.80241e-08
-1.88141e-07
2.0086e-08
-1.89265e-07
1.20865e-08
-1.89642e-07
4.05036e-09
-1.89272e-07
-3.9983e-09
-1.88154e-07
-1.20354e-08
-1.86291e-07
-2.00365e-08
-1.83687e-07
-2.79769e-08
-1.80348e-07
-3.58317e-08
-1.7628e-07
-4.35751e-08
-1.71493e-07
-5.11802e-08
-1.65998e-07
-5.86194e-08
-1.5981e-07
-6.58639e-08
-1.52946e-07
-7.28842e-08
-1.45424e-07
-7.96496e-08
-1.37269e-07
-8.61287e-08
-1.28506e-07
-9.22889e-08
-1.19166e-07
-9.80981e-08
-1.09283e-07
-1.03524e-07
-9.88951e-08
-1.08535e-07
-8.80436e-08
-1.131e-07
-7.67744e-08
-1.17189e-07
-6.51372e-08
-1.20767e-07
-5.31878e-08
-1.23786e-07
-4.09971e-08
-1.26092e-07
-2.86948e-08
-1.27079e-07
-1.66394e-08
-1.24356e-07
-5.97676e-09
-1.0974e-07
-6.1143e-08
-6.24913e-09
6.74406e-08
-1.74095e-08
1.20873e-07
-3.00276e-08
1.36919e-07
-4.29011e-08
1.39892e-07
-5.56529e-08
1.38784e-07
-6.81461e-08
1.36224e-07
-8.03059e-08
1.32878e-07
-9.20733e-08
1.28913e-07
-1.03396e-07
1.24388e-07
-1.14227e-07
1.19338e-07
-1.24523e-07
1.138e-07
-1.34245e-07
1.07808e-07
-1.43359e-07
1.01398e-07
-1.51834e-07
9.46063e-08
-1.59644e-07
8.747e-08
-1.66767e-07
8.00244e-08
-1.73183e-07
7.23042e-08
-1.78877e-07
6.43431e-08
-1.83835e-07
5.61738e-08
-1.88047e-07
4.78271e-08
-1.91504e-07
3.93331e-08
-1.94201e-07
3.07204e-08
-1.96131e-07
2.20162e-08
-1.97292e-07
1.32474e-08
-1.97681e-07
4.43988e-09
-1.97299e-07
-4.38071e-09
-1.96145e-07
-1.31892e-08
-1.94222e-07
-2.19599e-08
-1.91532e-07
-3.06667e-08
-1.8808e-07
-3.92831e-08
-1.83874e-07
-4.77817e-08
-1.7892e-07
-5.61336e-08
-1.73231e-07
-6.4309e-08
-1.66818e-07
-7.22766e-08
-1.59698e-07
-8.00042e-08
-1.5189e-07
-8.74579e-08
-1.43416e-07
-9.46027e-08
-1.34302e-07
-1.01402e-07
-1.24579e-07
-1.07821e-07
-1.14282e-07
-1.13822e-07
-1.03448e-07
-1.19369e-07
-9.21221e-08
-1.24427e-07
-8.03507e-08
-1.2896e-07
-6.81863e-08
-1.32932e-07
-5.56879e-08
-1.36284e-07
-4.29306e-08
-1.38849e-07
-3.00515e-08
-1.39958e-07
-1.74274e-08
-1.36981e-07
-6.2601e-09
-1.20907e-07
-6.74031e-08
-6.56525e-09
7.40059e-08
-1.82861e-08
1.32594e-07
-3.15347e-08
1.50168e-07
-4.50471e-08
1.53404e-07
-5.84257e-08
1.52163e-07
-7.15256e-08
1.49324e-07
-8.4267e-08
1.45619e-07
-9.65877e-08
1.41234e-07
-1.08433e-07
1.36233e-07
-1.19752e-07
1.30658e-07
-1.30501e-07
1.24549e-07
-1.40641e-07
1.17947e-07
-1.50136e-07
1.10893e-07
-1.58956e-07
1.03427e-07
-1.67076e-07
9.55898e-08
-1.74473e-07
8.7422e-08
-1.81131e-07
7.89617e-08
-1.87033e-07
7.02458e-08
-1.92169e-07
6.13098e-08
-1.96529e-07
5.21871e-08
-2.00106e-07
4.29098e-08
-2.02894e-07
3.35083e-08
-2.04889e-07
2.40115e-08
-2.06089e-07
1.44471e-08
-2.06492e-07
4.84264e-09
-2.06097e-07
-4.77542e-09
-2.04905e-07
-1.43809e-08
-2.02918e-07
-2.39473e-08
-2.00137e-07
-3.34472e-08
-1.96568e-07
-4.28529e-08
-1.92214e-07
-5.21354e-08
-1.87083e-07
-6.1264e-08
-1.81186e-07
-7.02068e-08
-1.74532e-07
-7.89301e-08
-1.67138e-07
-8.73987e-08
-1.5902e-07
-9.55755e-08
-1.50201e-07
-1.03422e-07
-1.40706e-07
-1.10897e-07
-1.30566e-07
-1.17961e-07
-1.19815e-07
-1.24573e-07
-1.08493e-07
-1.30691e-07
-9.66441e-08
-1.36275e-07
-8.43187e-08
-1.41285e-07
-7.15717e-08
-1.45679e-07
-5.84656e-08
-1.4939e-07
-4.50801e-08
-1.52235e-07
-3.15606e-08
-1.53478e-07
-1.83046e-08
-1.50237e-07
-6.5758e-09
-1.32636e-07
-7.39789e-08
-6.9156e-09
8.09215e-08
-1.92579e-08
1.44936e-07
-3.32053e-08
1.64115e-07
-4.74251e-08
1.67624e-07
-6.14967e-08
1.66235e-07
-7.52661e-08
1.63093e-07
-8.86479e-08
1.59001e-07
-1.01576e-07
1.54162e-07
-1.13992e-07
1.48649e-07
-1.25845e-07
1.4251e-07
-1.37087e-07
1.35792e-07
-1.47679e-07
1.28539e-07
-1.57585e-07
1.20799e-07
-1.66777e-07
1.12618e-07
-1.75228e-07
1.04041e-07
-1.82919e-07
9.51127e-08
-1.89832e-07
8.58754e-08
-1.95956e-07
7.63694e-08
-2.01279e-07
6.66331e-08
-2.05794e-07
5.67023e-08
-2.09496e-07
4.66113e-08
-2.1238e-07
3.63919e-08
-2.14442e-07
2.60744e-08
-2.15683e-07
1.56874e-08
-2.16099e-07
5.25917e-09
-2.15692e-07
-5.18292e-09
-2.14461e-07
-1.56121e-08
-2.12407e-07
-2.60013e-08
-2.09531e-07
-3.63224e-08
-2.05838e-07
-4.65465e-08
-2.0133e-07
-5.66434e-08
-1.96013e-07
-6.65808e-08
-1.89895e-07
-7.63247e-08
-1.82986e-07
-8.58391e-08
-1.75299e-07
-9.50857e-08
-1.6685e-07
-1.04024e-07
-1.57661e-07
-1.12611e-07
-1.47755e-07
-1.20803e-07
-1.37162e-07
-1.28554e-07
-1.25917e-07
-1.35817e-07
-1.14061e-07
-1.42547e-07
-1.01641e-07
-1.48696e-07
-8.87071e-08
-1.54219e-07
-7.53188e-08
-1.59067e-07
-6.15421e-08
-1.63167e-07
-4.74623e-08
-1.66314e-07
-3.3234e-08
-1.67706e-07
-1.92778e-08
-1.64193e-07
-6.92626e-09
-1.44988e-07
-8.09052e-08
-7.30311e-09
8.82246e-08
-2.03331e-08
1.57966e-07
-3.50534e-08
1.78836e-07
-5.00545e-08
1.82625e-07
-6.48904e-08
1.81071e-07
-7.93965e-08
1.77599e-07
-9.34812e-08
1.73086e-07
-1.07074e-07
1.67755e-07
-1.20113e-07
1.61688e-07
-1.32545e-07
1.54942e-07
-1.44321e-07
1.47568e-07
-1.554e-07
1.39618e-07
-1.65748e-07
1.31147e-07
-1.75336e-07
1.22205e-07
-1.84139e-07
1.12844e-07
-1.9214e-07
1.03113e-07
-1.99323e-07
9.30586e-08
-2.05678e-07
8.27242e-08
-2.11196e-07
7.21516e-08
-2.15873e-07
6.13788e-08
-2.19703e-07
5.04418e-08
-2.22685e-07
3.93741e-08
-2.24818e-07
2.82069e-08
-2.261e-07
1.69693e-08
-2.2653e-07
5.68989e-09
-2.2611e-07
-5.60347e-09
-2.24838e-07
-1.68838e-08
-2.22716e-07
-2.81237e-08
-2.19743e-07
-3.92951e-08
-2.15921e-07
-5.03681e-08
-2.11253e-07
-6.13115e-08
-2.05742e-07
-7.20918e-08
-1.99394e-07
-8.2673e-08
-1.92216e-07
-9.30168e-08
-1.8422e-07
-1.03082e-07
-1.7542e-07
-1.12824e-07
-1.65835e-07
-1.22197e-07
-1.55487e-07
-1.31151e-07
-1.44407e-07
-1.39634e-07
-1.32628e-07
-1.47596e-07
-1.20193e-07
-1.54982e-07
-1.07148e-07
-1.6174e-07
-9.3549e-08
-1.67818e-07
-7.94566e-08
-1.7316e-07
-6.49419e-08
-1.77682e-07
-5.00965e-08
-1.8116e-07
-3.50851e-08
-1.82718e-07
-2.03544e-08
-1.78924e-07
-7.31385e-09
-1.58028e-07
-8.8219e-08
-7.73119e-09
9.59558e-08
-2.15212e-08
1.71756e-07
-3.7095e-08
1.9441e-07
-5.2958e-08
1.98488e-07
-6.86353e-08
1.96748e-07
-8.39503e-08
1.92914e-07
-9.88048e-08
1.8794e-07
-1.13123e-07
1.82073e-07
-1.2684e-07
1.75405e-07
-1.39898e-07
1.68e-07
-1.52249e-07
1.59919e-07
-1.63851e-07
1.5122e-07
-1.7467e-07
1.41966e-07
-1.84677e-07
1.32213e-07
-1.93852e-07
1.22019e-07
-2.02177e-07
1.11439e-07
-2.09641e-07
1.00522e-07
-2.16235e-07
8.93185e-08
-2.21955e-07
7.7871e-08
-2.26796e-07
6.62203e-08
-2.30758e-07
5.44039e-08
-2.33841e-07
4.24565e-08
-2.36044e-07
3.04099e-08
-2.37368e-07
1.82933e-08
-2.37813e-07
6.13506e-09
-2.37379e-07
-6.0371e-09
-2.36067e-07
-1.81964e-08
-2.33875e-07
-3.03156e-08
-2.30803e-07
-4.23668e-08
-2.26851e-07
-5.43201e-08
-2.22019e-07
-6.61437e-08
-2.16308e-07
-7.78027e-08
-2.09721e-07
-8.92598e-08
-2.02264e-07
-1.00474e-07
-1.93944e-07
-1.11402e-07
-1.84773e-07
-1.21995e-07
-1.74768e-07
-1.32202e-07
-1.6395e-07
-1.41968e-07
-1.52347e-07
-1.51237e-07
-1.39994e-07
-1.5995e-07
-1.26931e-07
-1.68045e-07
-1.13208e-07
-1.75463e-07
-9.88824e-08
-1.82144e-07
-8.4019e-08
-1.88023e-07
-6.86938e-08
-1.93007e-07
-5.30053e-08
-1.96848e-07
-3.71303e-08
-1.98592e-07
-2.15441e-08
-1.9451e-07
-7.742e-09
-1.7183e-07
-9.5961e-08
-8.20392e-09
1.0416e-07
-2.28334e-08
1.86386e-07
-3.93493e-08
2.10925e-07
-5.6162e-08
2.15301e-07
-7.27645e-08
2.1335e-07
-8.89668e-08
2.09117e-07
-1.04663e-07
2.03636e-07
-1.19771e-07
1.97181e-07
-1.34222e-07
1.89856e-07
-1.47956e-07
1.81735e-07
-1.60924e-07
1.72886e-07
-1.73083e-07
1.6338e-07
-1.844e-07
1.53283e-07
-1.94849e-07
1.42662e-07
-2.04412e-07
1.31582e-07
-2.13074e-07
1.20101e-07
-2.20827e-07
1.08276e-07
-2.27666e-07
9.61578e-08
-2.3359e-07
8.37947e-08
-2.38599e-07
7.12288e-08
-2.42693e-07
5.84984e-08
-2.45876e-07
4.56391e-08
-2.48149e-07
3.26831e-08
-2.49515e-07
1.96591e-08
-2.49974e-07
6.59461e-09
-2.49528e-07
-6.48357e-09
-2.48175e-07
-1.95494e-08
-2.45914e-07
-3.25765e-08
-2.42743e-07
-4.55375e-08
-2.3866e-07
-5.84031e-08
-2.33663e-07
-7.11413e-08
-2.27749e-07
-8.37166e-08
-2.20918e-07
-9.60905e-08
-2.13172e-07
-1.0822e-07
-2.04516e-07
-1.20058e-07
-1.94958e-07
-1.31553e-07
-1.84512e-07
-1.42648e-07
-1.73196e-07
-1.53285e-07
-1.61036e-07
-1.63397e-07
-1.48065e-07
-1.7292e-07
-1.34326e-07
-1.81784e-07
-1.19868e-07
-1.89921e-07
-1.04751e-07
-1.9726e-07
-8.90455e-08
-2.03729e-07
-7.28314e-08
-2.09221e-07
-5.62158e-08
-2.13464e-07
-3.9389e-08
-2.15419e-07
-2.28587e-08
-2.1104e-07
-8.21539e-09
-1.86474e-07
-1.04176e-07
-8.7263e-09
1.12886e-07
-2.42832e-08
2.01942e-07
-4.18387e-08
2.28481e-07
-5.96978e-08
2.3316e-07
-7.73173e-08
2.3097e-07
-9.44916e-08
2.26291e-07
-1.11106e-07
2.2025e-07
-1.27072e-07
2.13147e-07
-1.42316e-07
2.051e-07
-1.56777e-07
1.96196e-07
-1.70403e-07
1.86512e-07
-1.83153e-07
1.76129e-07
-1.94995e-07
1.65125e-07
-2.05906e-07
1.53573e-07
-2.1587e-07
1.41546e-07
-2.24878e-07
1.29109e-07
-2.32926e-07
1.16323e-07
-2.40013e-07
1.03244e-07
-2.46141e-07
8.99228e-08
-2.51315e-07
7.64027e-08
-2.55539e-07
6.27232e-08
-2.5882e-07
4.892e-08
-2.61162e-07
3.50248e-08
-2.62568e-07
2.10655e-08
-2.63042e-07
7.06812e-09
-2.62583e-07
-6.94234e-09
-2.61191e-07
-2.09415e-08
-2.58863e-07
-3.49043e-08
-2.55596e-07
-4.88048e-08
-2.51384e-07
-6.26149e-08
-2.46222e-07
-7.63029e-08
-2.40106e-07
-8.98335e-08
-2.33029e-07
-1.03167e-07
-2.2499e-07
-1.16259e-07
-2.15989e-07
-1.29059e-07
-2.0603e-07
-1.41512e-07
-1.95122e-07
-1.53556e-07
-1.83282e-07
-1.65125e-07
-1.70531e-07
-1.76148e-07
-1.56902e-07
-1.86549e-07
-1.42435e-07
-1.96251e-07
-1.27183e-07
-2.05173e-07
-1.11207e-07
-2.13236e-07
-9.45818e-08
-2.20355e-07
-7.73939e-08
-2.26409e-07
-5.97593e-08
-2.31098e-07
-4.1884e-08
-2.33295e-07
-2.4312e-08
-2.28612e-07
-8.73918e-09
-2.02047e-07
-1.12916e-07
-9.30435e-09
1.2219e-07
-2.58865e-08
2.18524e-07
-4.459e-08
2.47184e-07
-6.36024e-08
2.52172e-07
-8.23395e-08
2.49707e-07
-1.00578e-07
2.4453e-07
-1.18193e-07
2.37865e-07
-1.3509e-07
2.30044e-07
-1.5119e-07
2.21201e-07
-1.66429e-07
2.11435e-07
-1.80755e-07
2.00838e-07
-1.94128e-07
1.89502e-07
-2.06518e-07
1.77515e-07
-2.17907e-07
1.64962e-07
-2.28283e-07
1.51922e-07
-2.37642e-07
1.38468e-07
-2.45984e-07
1.24666e-07
-2.53316e-07
1.10576e-07
-2.59645e-07
9.62514e-08
-2.6498e-07
8.17373e-08
-2.6933e-07
6.70733e-08
-2.72704e-07
5.22945e-08
-2.75111e-07
3.74313e-08
-2.76556e-07
2.25103e-08
-2.77042e-07
7.55489e-09
-2.76572e-07
-7.41253e-09
-2.75144e-07
-2.23701e-08
-2.72753e-07
-3.72952e-08
-2.69393e-07
-5.2164e-08
-2.65058e-07
-6.69502e-08
-2.59737e-07
-8.16237e-08
-2.53421e-07
-9.61494e-08
-2.46101e-07
-1.10488e-07
-2.37768e-07
-1.24592e-07
-2.28417e-07
-1.3841e-07
-2.18048e-07
-1.51881e-07
-2.06663e-07
-1.64941e-07
-1.94274e-07
-1.77514e-07
-1.80901e-07
-1.89522e-07
-1.66572e-07
-2.00878e-07
-1.51327e-07
-2.11496e-07
-1.35218e-07
-2.21282e-07
-1.1831e-07
-2.30144e-07
-1.00682e-07
-2.37983e-07
-8.24273e-08
-2.44663e-07
-6.36729e-08
-2.49853e-07
-4.46419e-08
-2.52326e-07
-2.59193e-08
-2.47334e-07
-9.31894e-09
-2.18647e-07
-1.22235e-07
-9.94509e-09
1.32135e-07
-2.76622e-08
2.36242e-07
-4.76348e-08
2.67157e-07
-6.79193e-08
2.72457e-07
-8.78853e-08
2.69673e-07
-1.0729e-07
2.63935e-07
-1.25996e-07
2.56571e-07
-1.439e-07
2.47948e-07
-1.60921e-07
2.38221e-07
-1.7699e-07
2.27504e-07
-1.92056e-07
2.15904e-07
-2.06081e-07
2.03527e-07
-2.1904e-07
1.90474e-07
-2.30918e-07
1.7684e-07
-2.4171e-07
1.62714e-07
-2.51419e-07
1.48177e-07
-2.60053e-07
1.333e-07
-2.67623e-07
1.18146e-07
-2.74143e-07
1.02772e-07
-2.79629e-07
8.72234e-08
-2.84096e-07
7.15399e-08
-2.87557e-07
5.5755e-08
-2.90022e-07
3.98971e-08
-2.91502e-07
2.39898e-08
-2.92001e-07
8.05374e-09
-2.9152e-07
-7.89283e-09
-2.90059e-07
-2.38315e-08
-2.87611e-07
-3.97432e-08
-2.84168e-07
-5.56073e-08
-2.79718e-07
-7.14002e-08
-2.74247e-07
-8.70941e-08
-2.67741e-07
-1.02655e-07
-2.60184e-07
-1.18045e-07
-2.51562e-07
-1.33214e-07
-2.41863e-07
-1.48109e-07
-2.31077e-07
-1.62667e-07
-2.19204e-07
-1.76814e-07
-2.06248e-07
-1.9047e-07
-1.92222e-07
-2.03547e-07
-1.77153e-07
-2.15948e-07
-1.61077e-07
-2.27571e-07
-1.44047e-07
-2.38312e-07
-1.2613e-07
-2.48061e-07
-1.07409e-07
-2.56704e-07
-8.79864e-08
-2.64086e-07
-6.80004e-08
-2.69839e-07
-4.76943e-08
-2.72632e-07
-2.76996e-08
-2.67329e-07
-9.96131e-09
-2.36385e-07
-1.32196e-07
-1.06566e-08
1.42792e-07
-2.96327e-08
2.55218e-07
-5.10107e-08
2.88535e-07
-7.27004e-08
2.94147e-07
-9.4019e-08
2.90992e-07
-1.14701e-07
2.84616e-07
-1.34594e-07
2.76465e-07
-1.53589e-07
2.66943e-07
-1.71597e-07
2.56228e-07
-1.88548e-07
2.44455e-07
-2.04393e-07
2.31749e-07
-2.19096e-07
2.18231e-07
-2.32639e-07
2.04016e-07
-2.45012e-07
1.89214e-07
-2.56219e-07
1.73921e-07
-2.66271e-07
1.58229e-07
-2.75184e-07
1.42213e-07
-2.82979e-07
1.25941e-07
-2.89676e-07
1.09469e-07
-2.95299e-07
9.28465e-08
-2.99869e-07
7.61099e-08
-3.03405e-07
5.92905e-08
-3.05921e-07
4.24136e-08
-3.0743e-07
2.5499e-08
-3.0794e-07
8.56281e-09
-3.07451e-07
-8.38146e-09
-3.05962e-07
-2.53205e-08
-3.03465e-07
-4.22398e-08
-2.99949e-07
-5.91234e-08
-2.95398e-07
-7.59515e-08
-2.89792e-07
-9.26995e-08
-2.83111e-07
-1.09336e-07
-2.75332e-07
-1.25824e-07
-2.66432e-07
-1.42114e-07
-2.56391e-07
-1.5815e-07
-2.45192e-07
-1.73865e-07
-2.32825e-07
-1.89181e-07
-2.19286e-07
-2.04009e-07
-2.04583e-07
-2.1825e-07
-1.88735e-07
-2.31796e-07
-1.71776e-07
-2.4453e-07
-1.53758e-07
-2.5633e-07
-1.34749e-07
-2.6707e-07
-1.14838e-07
-2.76616e-07
-9.4136e-08
-2.84788e-07
-7.2794e-08
-2.91181e-07
-5.10791e-08
-2.94347e-07
-2.96751e-08
-2.88733e-07
-1.06744e-08
-2.55386e-07
-1.4287e-07
-1.14483e-08
1.5424e-07
-3.18244e-08
2.75594e-07
-5.47627e-08
3.11473e-07
-7.80079e-08
3.17392e-07
-1.00818e-07
3.13801e-07
-1.22899e-07
3.06697e-07
-1.44086e-07
2.97652e-07
-1.64258e-07
2.87115e-07
-1.83322e-07
2.75292e-07
-2.01207e-07
2.62341e-07
-2.17866e-07
2.48407e-07
-2.33268e-07
2.33633e-07
-2.47402e-07
2.1815e-07
-2.60269e-07
2.0208e-07
-2.71881e-07
1.85534e-07
-2.8226e-07
1.68608e-07
-2.91434e-07
1.51386e-07
-2.99431e-07
1.33938e-07
-3.06284e-07
1.16322e-07
-3.12023e-07
9.85859e-08
-3.16678e-07
8.07647e-08
-3.20273e-07
6.28857e-08