/*--------------------------------*- C++ -*----------------------------------*\
  =========                 |
  \\      /  F ield         | OpenFOAM: The Open Source CFD Toolbox
   \\    /   O peration     | Website:  https://openfoam.org
    \\  /    A nd           | Version:  7
     \\/     M anipulation  |
\*---------------------------------------------------------------------------*/
FoamFile
{
    version     2.0;
    format      ascii;
    class       volScalarField;
    location    "0.0312";
    object      p;
}
// * * * * * * * * * * * * * * * * * * * * * * * * * * * * * * * * * * * * * //

dimensions      [0 2 -2 0 0 0 0];

internalField   nonuniform List<scalar> 
2500
(
-2.56912e-05
6.38501
9.04953
10.1451
10.7377
11.0875
11.3021
11.4434
11.5426
11.6159
11.6721
11.7169
11.7537
11.7849
11.8122
11.8368
11.8595
11.8809
11.9016
11.9219
11.942
11.9622
11.9826
12.0032
12.0244
12.046
12.0684
12.0915
12.1155
12.1407
12.1673
12.1955
12.2257
12.2584
12.2942
12.3339
12.3785
12.4294
12.4884
12.5581
12.6423
12.7469
12.8812
13.0617
13.3204
13.7213
14.3811
15.5716
18.3523
24.8614
4.86807
7.46772
8.88538
9.76895
10.3728
10.7797
11.0552
11.248
11.3875
11.4916
11.5715
11.6348
11.6861
11.7291
11.7659
11.7983
11.8275
11.8545
11.8799
11.9042
11.9278
11.9511
11.9743
11.9975
12.0211
12.0452
12.0699
12.0955
12.1222
12.1503
12.1801
12.2119
12.2464
12.2841
12.3258
12.3726
12.4258
12.4874
12.5599
12.6467
12.7531
12.8868
13.0593
13.2892
13.6069
14.0628
14.7265
15.6827
17.1861
19.9032
7.7038
8.46742
9.21062
9.83424
10.3211
10.6837
10.9511
11.1501
11.3004
11.416
11.5067
11.5795
11.6391
11.6891
11.7319
11.7695
11.8032
11.834
11.8628
11.89
11.9163
11.9419
11.9672
11.9925
12.0179
12.0438
12.0704
12.0979
12.1265
12.1567
12.1888
12.2232
12.2606
12.3016
12.3472
12.3985
12.4571
12.5249
12.6046
12.6999
12.8159
12.9597
13.1413
13.3753
13.6818
14.0885
14.6255
15.3033
16.101
16.9294
9.11254
9.28977
9.66929
10.0708
10.4209
10.7071
10.9358
11.1169
11.2604
11.3749
11.4674
11.5433
11.6065
11.6601
11.7065
11.7473
11.784
11.8175
11.8487
11.8782
11.9064
11.9339
11.9609
11.9878
12.0148
12.0421
12.0702
12.0991
12.1293
12.1611
12.1948
12.2311
12.2705
12.3137
12.3617
12.4156
12.477
12.5476
12.6301
12.7275
12.8442
12.9855
13.1585
13.372
13.636
13.9605
14.3507
14.7926
15.2077
15.4156
9.9238
9.90368
10.0802
10.3244
10.5644
10.7798
10.965
11.1205
11.2495
11.3566
11.4458
11.5207
11.5844
11.6393
11.6874
11.7301
11.7686
11.804
11.8369
11.8681
11.8979
11.9268
11.9552
11.9834
12.0117
12.0403
12.0695
12.0997
12.1311
12.1641
12.1992
12.2368
12.2775
12.3221
12.3715
12.4267
12.4891
12.5604
12.6426
12.7382
12.8504
12.9828
13.1395
13.3247
13.5414
13.7894
14.0614
14.3349
14.5339
14.5262
10.434
10.3493
10.4188
10.5614
10.7212
10.878
11.0225
11.1507
11.2619
11.3577
11.4401
11.5112
11.5729
11.627
11.6751
11.7183
11.7576
11.794
11.828
11.8602
11.8911
11.9211
11.9506
11.9798
12.009
12.0386
12.0687
12.0998
12.1321
12.166
12.2019
12.2403
12.2818
12.3271
12.3769
12.4322
12.4942
12.5641
12.6437
12.7347
12.8391
12.959
13.0962
13.2516
13.424
13.6083
13.7933
13.957
14.0398
13.9568
10.7736
10.6765
10.6927
10.7721
10.8755
10.9866
11.0962
11.1985
11.2914
11.3744
11.448
11.5132
11.5711
11.6229
11.6696
11.7121
11.7513
11.7878
11.8222
11.8549
11.8864
11.9171
11.9472
11.9771
12.007
12.0372
12.0681
12.0997
12.1326
12.1671
12.2034
12.2422
12.2839
12.329
12.3784
12.4329
12.4932
12.5605
12.6358
12.7203
12.8151
12.921
13.038
13.1653
13.2994
13.4335
13.5567
13.6512
13.6745
13.5733
11.0144
10.9226
10.9128
10.9536
11.0184
11.0953
11.1764
11.2564
11.3321
11.4021
11.4662
11.5245
11.5775
11.6259
11.6703
11.7113
11.7495
11.7855
11.8196
11.8523
11.884
11.9149
11.9453
11.9756
12.0059
12.0365
12.0677
12.0997
12.1329
12.1675
12.204
12.2427
12.284
12.3286
12.377
12.4298
12.4876
12.5512
12.6213
12.6984
12.7829
12.8747
12.9729
13.0753
13.1779
13.2741
13.3543
13.4056
13.399
13.3004
11.1949
11.1129
11.0907
11.108
11.1466
11.1985
11.2575
11.3187
11.3792
11.4372
11.4919
11.543
11.5906
11.6349
11.6763
11.7151
11.7518
11.7866
11.8201
11.8523
11.8837
11.9146
11.945
11.9753
12.0057
12.0365
12.0678
12.0999
12.1331
12.1677
12.2039
12.2422
12.2829
12.3265
12.3733
12.4239
12.4787
12.5381
12.6025
12.6719
12.7462
12.8247
12.906
12.9875
13.0651
13.133
13.1836
13.2081
13.1864
13.0962
11.3363
11.2637
11.236
11.239
11.2601
11.2939
11.3357
11.3818
11.4294
11.4767
11.5227
11.5668
11.6088
11.6488
11.6867
11.723
11.7576
11.791
11.8233
11.8548
11.8856
11.916
11.9462
11.9763
12.0066
12.0373
12.0685
12.1005
12.1334
12.1677
12.2035
12.2411
12.2808
12.323
12.368
12.4161
12.4675
12.5225
12.581
12.6429
12.7076
12.7742
12.8408
12.905
12.9631
13.0101
13.0404
13.0481
13.0192
12.9379
11.4505
11.3859
11.356
11.3503
11.3596
11.3804
11.4094
11.4434
11.4802
11.5182
11.5564
11.594
11.6306
11.6662
11.7007
11.7341
11.7665
11.7981
11.829
11.8594
11.8894
11.9192
11.9488
11.9786
12.0085
12.0389
12.0698
12.1015
12.1341
12.1678
12.2029
12.2396
12.2782
12.3188
12.3617
12.4071
12.455
12.5055
12.5583
12.6131
12.6691
12.7251
12.7793
12.8295
12.8723
12.9039
12.9203
12.9174
12.8852
12.812
11.5449
11.4868
11.4564
11.4453
11.4467
11.4582
11.4774
11.502
11.53
11.5602
11.5914
11.6231
11.6548
11.6862
11.7172
11.7477
11.7778
11.8074
11.8368
11.8659
11.8949
11.9238
11.9528
11.9819
12.0114
12.0413
12.0717
12.1029
12.135
12.1681
12.2024
12.2381
12.2753
12.3142
12.3549
12.3975
12.4419
12.488
12.5354
12.5837
12.6318
12.6787
12.7226
12.7614
12.7925
12.8128
12.8194
12.8098
12.7764
12.7101
11.6242
11.5713
11.5411
11.5268
11.5227
11.5275
11.5394
11.5566
11.5776
11.6012
11.6266
11.6531
11.6802
11.7077
11.7353
11.763
11.7907
11.8184
11.8461
11.8738
11.9016
11.9296
11.9577
11.9862
12.015
12.0443
12.0742
12.1048
12.1362
12.1685
12.2019
12.2365
12.2723
12.3094
12.3479
12.3878
12.4288
12.4707
12.5131
12.5554
12.5967
12.6357
12.671
12.7008
12.7227
12.7346
12.7344
12.7206
12.6872
12.6266
11.6915
11.6427
11.6131
11.5968
11.5891
11.589
11.5954
11.6069
11.6222
11.6405
11.6609
11.6828
11.7059
11.7298
11.7544
11.7794
11.8048
11.8305
11.8565
11.8828
11.9094
11.9363
11.9635
11.9912
12.0193
12.0479
12.0772
12.1071
12.1377
12.1692
12.2016
12.2349
12.2693
12.3047
12.341
12.3782
12.4159
12.454
12.4919
12.5289
12.5642
12.5966
12.6248
12.6472
12.6622
12.6678
12.6628
12.6463
12.6134
12.5576
11.749
11.7035
11.6747
11.6571
11.6469
11.6433
11.6456
11.6526
11.6634
11.6773
11.6935
11.7116
11.7312
11.752
11.7737
11.7962
11.8194
11.8432
11.8675
11.8924
11.9177
11.9435
11.9698
11.9967
12.024
12.0519
12.0804
12.1096
12.1394
12.17
12.2014
12.2335
12.2665
12.3001
12.3343
12.3689
12.4037
12.4383
12.4721
12.5045
12.5346
12.5614
12.5838
12.6004
12.6098
12.6108
12.6024
12.5842
12.5521
12.5004
11.7982
11.7554
11.7273
11.709
11.6971
11.691
11.6901
11.6937
11.701
11.7113
11.7241
11.7389
11.7554
11.7734
11.7926
11.8129
11.8341
11.8561
11.8788
11.9023
11.9264
11.9511
11.9765
12.0024
12.0289
12.0561
12.0839
12.1123
12.1413
12.171
12.2014
12.2323
12.2638
12.2958
12.328
12.3603
12.3924
12.4238
12.454
12.4823
12.508
12.5301
12.5477
12.5596
12.5648
12.5623
12.5515
12.5323
12.5011
12.4528
11.8404
11.7997
11.7723
11.7537
11.7405
11.7325
11.7294
11.7303
11.7347
11.7421
11.7521
11.7642
11.7782
11.7937
11.8107
11.8289
11.8483
11.8687
11.89
11.9121
11.935
11.9587
11.9831
12.0082
12.034
12.0604
12.0874
12.115
12.1433
12.1721
12.2014
12.2312
12.2614
12.2918
12.3222
12.3524
12.3819
12.4105
12.4376
12.4624
12.4844
12.5026
12.5163
12.5245
12.5264
12.5213
12.5088
12.4889
12.4587
12.4133
11.8764
11.8374
11.8107
11.7918
11.7778
11.7685
11.7635
11.7624
11.7646
11.7697
11.7774
11.7872
11.799
11.8125
11.8276
11.844
11.8618
11.8806
11.9006
11.9215
11.9434
11.9661
11.9896
12.0139
12.0388
12.0645
12.0908
12.1177
12.1452
12.1732
12.2016
12.2303
12.2592
12.2882
12.3169
12.3452
12.3726
12.3987
12.423
12.4449
12.4637
12.4787
12.4892
12.4945
12.4938
12.4867
12.473
12.4529
12.4235
12.3807
11.9067
11.8692
11.843
11.824
11.8094
11.7991
11.7929
11.7902
11.7906
11.7939
11.7997
11.8077
11.8177
11.8294
11.8429
11.8578
11.8741
11.8917
11.9105
11.9303
11.9512
11.973
11.9957
12.0192
12.0434
12.0684
12.094
12.1203
12.147
12.1742
12.2017
12.2295
12.2573
12.285
12.3122
12.3388
12.3643
12.3883
12.4103
12.4297
12.4459
12.4583
12.4662
12.4691
12.4665
12.4579
12.4433
12.4231
12.3946
12.3538
11.932
11.8956
11.8699
11.8509
11.8359
11.8249
11.8176
11.8137
11.8128
11.8147
11.8189
11.8254
11.8339
11.8443
11.8564
11.87
11.8851
11.9016
11.9193
11.9382
11.9582
11.9792
12.0012
12.024
12.0476
12.072
12.097
12.1226
12.1487
12.1752
12.2019
12.2288
12.2556
12.2822
12.3082
12.3333
12.3572
12.3794
12.3994
12.4167
12.4308
12.4411
12.447
12.4481
12.4439
12.4342
12.4191
12.3988
12.3711
12.3321
11.9525
11.917
11.8917
11.8727
11.8575
11.8459
11.8379
11.8331
11.8312
11.832
11.8351
11.8404
11.8477
11.8569
11.8679
11.8805
11.8946
11.9101
11.927
11.9451
11.9643
11.9847
12.006
12.0282
12.0513
12.0751
12.0996
12.1246
12.1502
12.176
12.2021
12.2283
12.2542
12.2798
12.3048
12.3287
12.3512
12.3719
12.3904
12.4061
12.4184
12.427
12.4314
12.431
12.4257
12.4152
12.3997
12.3794
12.3524
12.3148
11.9687
11.9338
11.9088
11.8899
11.8745
11.8625
11.854
11.8486
11.8459
11.8458
11.848
11.8524
11.8588
11.8671
11.8772
11.889
11.9023
11.9171
11.9333
11.9507
11.9694
11.9892
12.01
12.0317
12.0543
12.0777
12.1017
12.1263
12.1514
12.1767
12.2023
12.2278
12.2531
12.2779
12.302
12.325
12.3464
12.366
12.3832
12.3976
12.4087
12.416
12.4191
12.4177
12.4115
12.4004
12.3846
12.3645
12.3379
12.3015
11.9806
11.9462
11.9215
11.9026
11.887
11.8749
11.866
11.86
11.8568
11.8561
11.8577
11.8615
11.8672
11.8749
11.8843
11.8955
11.9082
11.9224
11.9381
11.955
11.9733
11.9926
12.013
12.0344
12.0566
12.0796
12.1033
12.1276
12.1523
12.1773
12.2024
12.2275
12.2523
12.2765
12.2999
12.3222
12.3428
12.3615
12.3778
12.3913
12.4014
12.4078
12.41
12.4079
12.4011
12.3896
12.3736
12.3536
12.3274
12.2919
11.9884
11.9544
11.9298
11.9109
11.8953
11.883
11.8739
11.8677
11.8641
11.863
11.8642
11.8675
11.8728
11.8801
11.8891
11.8998
11.9122
11.926
11.9413
11.958
11.9759
11.9949
12.0151
12.0362
12.0582
12.081
12.1044
12.1285
12.1529
12.1777
12.2025
12.2273
12.2517
12.2756
12.2985
12.3203
12.3404
12.3586
12.3743
12.3871
12.3966
12.4023
12.404
12.4014
12.3942
12.3825
12.3664
12.3464
12.3206
12.2856
11.9923
11.9585
11.934
11.9151
11.8995
11.8871
11.8778
11.8715
11.8677
11.8664
11.8674
11.8705
11.8757
11.8827
11.8915
11.902
11.9142
11.9279
11.943
11.9595
11.9772
11.9961
12.0161
12.0371
12.059
12.0817
12.105
12.1289
12.1533
12.1779
12.2026
12.2272
12.2514
12.2751
12.2978
12.3194
12.3392
12.3571
12.3725
12.385
12.3942
12.3996
12.4011
12.3982
12.3909
12.379
12.3629
12.3429
12.3172
12.2825
11.9923
11.9585
11.934
11.9151
11.8995
11.8871
11.8778
11.8715
11.8677
11.8664
11.8674
11.8705
11.8757
11.8827
11.8915
11.902
11.9142
11.9279
11.943
11.9595
11.9772
11.9961
12.0161
12.0371
12.059
12.0817
12.105
12.1289
12.1533
12.1779
12.2026
12.2272
12.2514
12.2751
12.2978
12.3194
12.3392
12.3571
12.3725
12.385
12.3942
12.3996
12.4011
12.3982
12.3909
12.379
12.3629
12.3429
12.3172
12.2825
11.9884
11.9544
11.9298
11.9109
11.8953
11.883
11.8739
11.8677
11.8641
11.863
11.8642
11.8675
11.8728
11.8801
11.8891
11.8998
11.9122
11.926
11.9413
11.958
11.9759
11.9949
12.0151
12.0362
12.0582
12.081
12.1044
12.1285
12.1529
12.1777
12.2025
12.2273
12.2517
12.2756
12.2985
12.3203
12.3404
12.3586
12.3743
12.3871
12.3966
12.4023
12.404
12.4014
12.3942
12.3825
12.3664
12.3464
12.3206
12.2856
11.9806
11.9462
11.9215
11.9026
11.887
11.8749
11.866
11.86
11.8568
11.8561
11.8577
11.8615
11.8672
11.8749
11.8843
11.8955
11.9082
11.9224
11.9381
11.955
11.9732
11.9926
12.013
12.0344
12.0566
12.0796
12.1033
12.1276
12.1523
12.1773
12.2024
12.2275
12.2523
12.2765
12.2999
12.3222
12.3428
12.3615
12.3778
12.3913
12.4014
12.4078
12.41
12.4079
12.4011
12.3896
12.3736
12.3536
12.3274
12.2919
11.9687
11.9338
11.9088
11.8899
11.8745
11.8625
11.854
11.8486
11.8459
11.8458
11.848
11.8524
11.8588
11.8671
11.8772
11.889
11.9023
11.9171
11.9333
11.9507
11.9694
11.9891
12.0099
12.0317
12.0543
12.0777
12.1017
12.1263
12.1514
12.1767
12.2023
12.2278
12.2531
12.2779
12.302
12.325
12.3464
12.366
12.3832
12.3976
12.4087
12.416
12.4191
12.4177
12.4115
12.4004
12.3846
12.3645
12.3379
12.3015
11.9525
11.917
11.8917
11.8727
11.8575
11.8459
11.8379
11.8331
11.8312
11.8319
11.8351
11.8404
11.8477
11.8569
11.8679
11.8805
11.8946
11.9101
11.927
11.9451
11.9643
11.9847
12.006
12.0282
12.0513
12.0751
12.0996
12.1246
12.1502
12.176
12.2021
12.2283
12.2542
12.2798
12.3048
12.3287
12.3512
12.3719
12.3904
12.4061
12.4184
12.427
12.4314
12.431
12.4257
12.4152
12.3997
12.3794
12.3524
12.3148
11.932
11.8956
11.8698
11.8508
11.8359
11.8249
11.8176
11.8137
11.8128
11.8147
11.8189
11.8254
11.8339
11.8443
11.8564
11.87
11.8851
11.9016
11.9193
11.9382
11.9582
11.9792
12.0012
12.024
12.0476
12.072
12.097
12.1226
12.1487
12.1752
12.2019
12.2288
12.2556
12.2822
12.3082
12.3333
12.3572
12.3794
12.3994
12.4167
12.4308
12.4411
12.447
12.4481
12.4439
12.4342
12.4191
12.3988
12.3711
12.3321
11.9067
11.8692
11.843
11.824
11.8094
11.7991
11.7929
11.7902
11.7906
11.7939
11.7997
11.8077
11.8177
11.8294
11.8429
11.8578
11.8741
11.8917
11.9105
11.9303
11.9512
11.973
11.9957
12.0192
12.0434
12.0684
12.094
12.1203
12.147
12.1742
12.2017
12.2295
12.2573
12.285
12.3122
12.3388
12.3643
12.3883
12.4103
12.4297
12.4459
12.4583
12.4662
12.4691
12.4665
12.4579
12.4433
12.4231
12.3946
12.3538
11.8764
11.8374
11.8107
11.7918
11.7778
11.7685
11.7635
11.7624
11.7646
11.7697
11.7774
11.7872
11.799
11.8125
11.8276
11.844
11.8618
11.8806
11.9006
11.9215
11.9434
11.9661
11.9896
12.0139
12.0388
12.0645
12.0908
12.1177
12.1452
12.1732
12.2016
12.2303
12.2592
12.2882
12.3169
12.3452
12.3726
12.3987
12.423
12.4449
12.4637
12.4787
12.4892
12.4945
12.4938
12.4867
12.473
12.4529
12.4235
12.3807
11.8404
11.7997
11.7723
11.7537
11.7405
11.7325
11.7294
11.7303
11.7347
11.7421
11.7521
11.7642
11.7781
11.7937
11.8107
11.8289
11.8483
11.8687
11.89
11.9121
11.935
11.9587
11.9831
12.0082
12.034
12.0603
12.0874
12.115
12.1433
12.1721
12.2014
12.2312
12.2614
12.2918
12.3222
12.3524
12.3819
12.4105
12.4376
12.4624
12.4844
12.5026
12.5163
12.5245
12.5264
12.5213
12.5088
12.4889
12.4587
12.4133
11.7982
11.7554
11.7273
11.709
11.6971
11.691
11.6901
11.6937
11.701
11.7113
11.724
11.7389
11.7554
11.7734
11.7926
11.8129
11.834
11.8561
11.8788
11.9023
11.9264
11.9511
11.9765
12.0024
12.0289
12.0561
12.0839
12.1123
12.1413
12.171
12.2014
12.2323
12.2638
12.2958
12.328
12.3603
12.3924
12.4238
12.454
12.4823
12.508
12.5301
12.5477
12.5596
12.5648
12.5623
12.5515
12.5323
12.5011
12.4528
11.749
11.7035
11.6747
11.6571
11.6469
11.6433
11.6456
11.6526
11.6634
11.6773
11.6935
11.7116
11.7312
11.752
11.7737
11.7962
11.8194
11.8432
11.8675
11.8924
11.9177
11.9435
11.9698
11.9966
12.024
12.0519
12.0804
12.1096
12.1394
12.17
12.2014
12.2335
12.2665
12.3001
12.3343
12.3689
12.4037
12.4383
12.4721
12.5045
12.5346
12.5614
12.5838
12.6004
12.6098
12.6108
12.6024
12.5842
12.5521
12.5004
11.6915
11.6427
11.6131
11.5968
11.5891
11.589
11.5954
11.6069
11.6222
11.6405
11.6608
11.6828
11.7059
11.7298
11.7544
11.7794
11.8048
11.8305
11.8565
11.8828
11.9094
11.9363
11.9635
11.9912
12.0193
12.0479
12.0772
12.1071
12.1377
12.1692
12.2016
12.2349
12.2693
12.3047
12.341
12.3782
12.4159
12.454
12.4919
12.5289
12.5642
12.5966
12.6248
12.6472
12.6622
12.6678
12.6628
12.6463
12.6134
12.5576
11.6242
11.5713
11.5411
11.5267
11.5227
11.5275
11.5394
11.5566
11.5776
11.6012
11.6266
11.6531
11.6802
11.7077
11.7353
11.763
11.7907
11.8184
11.8461
11.8738
11.9016
11.9296
11.9577
11.9862
12.015
12.0443
12.0742
12.1048
12.1362
12.1685
12.2019
12.2365
12.2723
12.3094
12.3479
12.3878
12.4288
12.4707
12.5131
12.5554
12.5967
12.6357
12.671
12.7008
12.7227
12.7346
12.7344
12.7206
12.6872
12.6266
11.5449
11.4868
11.4564
11.4453
11.4467
11.4582
11.4774
11.5019
11.53
11.5602
11.5914
11.6231
11.6548
11.6862
11.7171
11.7477
11.7777
11.8074
11.8368
11.8659
11.8949
11.9238
11.9527
11.9819
12.0114
12.0413
12.0717
12.1029
12.135
12.1681
12.2024
12.2381
12.2753
12.3142
12.3549
12.3975
12.4419
12.488
12.5354
12.5837
12.6318
12.6787
12.7226
12.7614
12.7925
12.8128
12.8194
12.8098
12.7764
12.7101
11.4505
11.3859
11.356
11.3503
11.3596
11.3804
11.4094
11.4434
11.4802
11.5182
11.5564
11.594
11.6306
11.6662
11.7007
11.7341
11.7665
11.7981
11.829
11.8594
11.8894
11.9192
11.9488
11.9786
12.0085
12.0389
12.0698
12.1015
12.1341
12.1678
12.2029
12.2396
12.2782
12.3188
12.3617
12.4071
12.455
12.5055
12.5583
12.6131
12.6691
12.7251
12.7793
12.8295
12.8723
12.9039
12.9203
12.9174
12.8852
12.812
11.3363
11.2637
11.2359
11.2389
11.2601
11.2939
11.3357
11.3818
11.4294
11.4767
11.5227
11.5668
11.6088
11.6487
11.6867
11.723
11.7576
11.791
11.8233
11.8548
11.8856
11.916
11.9462
11.9763
12.0066
12.0373
12.0685
12.1005
12.1334
12.1677
12.2035
12.2411
12.2808
12.323
12.368
12.4161
12.4675
12.5225
12.581
12.6429
12.7076
12.7742
12.8408
12.905
12.9631
13.0101
13.0404
13.0481
13.0192
12.9379
11.1949
11.1129
11.0907
11.108
11.1466
11.1985
11.2575
11.3187
11.3792
11.4372
11.4919
11.543
11.5906
11.6349
11.6763
11.7151
11.7518
11.7866
11.8201
11.8523
11.8837
11.9146
11.945
11.9753
12.0057
12.0365
12.0678
12.0999
12.1331
12.1677
12.2039
12.2422
12.2829
12.3265
12.3733
12.4239
12.4787
12.5381
12.6025
12.6719
12.7462
12.8247
12.906
12.9875
13.0651
13.133
13.1836
13.2081
13.1864
13.0962
11.0144
10.9226
10.9128
10.9536
11.0183
11.0953
11.1764
11.2564
11.3321
11.4021
11.4662
11.5245
11.5775
11.6259
11.6703
11.7113
11.7495
11.7854
11.8196
11.8523
11.884
11.9149
11.9453
11.9756
12.0059
12.0365
12.0677
12.0997
12.1329
12.1675
12.204
12.2427
12.284
12.3286
12.377
12.4298
12.4876
12.5512
12.6213
12.6984
12.7829
12.8747
12.9729
13.0753
13.1779
13.2741
13.3543
13.4056
13.399
13.3004
10.7736
10.6765
10.6926
10.7721
10.8755
10.9866
11.0961
11.1985
11.2914
11.3744
11.448
11.5131
11.5711
11.6229
11.6696
11.7121
11.7513
11.7878
11.8222
11.8549
11.8864
11.9171
11.9472
11.9771
12.007
12.0372
12.0681
12.0997
12.1326
12.1671
12.2034
12.2422
12.2839
12.329
12.3784
12.4329
12.4932
12.5605
12.6358
12.7203
12.8151
12.921
13.038
13.1653
13.2994
13.4335
13.5567
13.6512
13.6745
13.5733
10.434
10.3493
10.4188
10.5614
10.7212
10.878
11.0225
11.1506
11.2619
11.3577
11.4401
11.5111
11.5729
11.627
11.6751
11.7183
11.7576
11.794
11.828
11.8602
11.8911
11.9211
11.9506
11.9798
12.009
12.0386
12.0687
12.0998
12.1321
12.166
12.2019
12.2403
12.2818
12.3271
12.3769
12.4322
12.4942
12.5641
12.6437
12.7347
12.8392
12.959
13.0962
13.2516
13.424
13.6083
13.7933
13.957
14.0398
13.9568
9.92378
9.90367
10.0802
10.3244
10.5644
10.7798
10.965
11.1205
11.2495
11.3566
11.4457
11.5207
11.5844
11.6393
11.6874
11.7301
11.7686
11.804
11.8369
11.868
11.8979
11.9268
11.9552
11.9834
12.0117
12.0403
12.0695
12.0997
12.1311
12.1641
12.1992
12.2368
12.2775
12.3221
12.3715
12.4267
12.4891
12.5604
12.6426
12.7382
12.8504
12.9828
13.1395
13.3247
13.5414
13.7894
14.0614
14.3349
14.5339
14.5262
9.11253
9.28975
9.66928
10.0707
10.4209
10.7071
10.9358
11.1169
11.2603
11.3749
11.4674
11.5433
11.6065
11.6601
11.7065
11.7473
11.784
11.8175
11.8487
11.8782
11.9064
11.9339
11.9609
11.9878
12.0148
12.0421
12.0702
12.0991
12.1293
12.1611
12.1948
12.2311
12.2705
12.3137
12.3617
12.4156
12.477
12.5476
12.6301
12.7275
12.8442
12.9855
13.1585
13.372
13.636
13.9605
14.3507
14.7926
15.2077
15.4156
7.70378
8.4674
9.2106
9.83422
10.3211
10.6837
10.9511
11.1501
11.3004
11.416
11.5067
11.5795
11.6391
11.6891
11.7319
11.7695
11.8032
11.834
11.8628
11.89
11.9163
11.9419
11.9672
11.9925
12.0179
12.0438
12.0704
12.0979
12.1265
12.1567
12.1888
12.2232
12.2606
12.3016
12.3472
12.3985
12.4571
12.5249
12.6046
12.6999
12.8159
12.9597
13.1413
13.3753
13.6818
14.0885
14.6255
15.3033
16.101
16.9294
4.86805
7.4677
8.88536
9.76893
10.3728
10.7796
11.0552
11.248
11.3875
11.4916
11.5715
11.6347
11.6861
11.7291
11.7659
11.7983
11.8275
11.8545
11.8799
11.9042
11.9278
11.9511
11.9743
11.9975
12.0211
12.0452
12.0699
12.0955
12.1222
12.1503
12.1801
12.2119
12.2464
12.2841
12.3258
12.3726
12.4258
12.4874
12.5599
12.6467
12.7531
12.8868
13.0593
13.2892
13.6069
14.0628
14.7265
15.6827
17.1861
19.9032
-6.66846e-05
6.38499
9.04951
10.145
10.7377
11.0875
11.3021
11.4434
11.5426
11.6159
11.6721
11.7169
11.7537
11.7849
11.8122
11.8367
11.8594
11.8809
11.9016
11.9219
11.942
11.9622
11.9826
12.0032
12.0244
12.046
12.0684
12.0915
12.1155
12.1407
12.1673
12.1955
12.2257
12.2584
12.2942
12.3339
12.3785
12.4294
12.4884
12.5581
12.6423
12.7469
12.8812
13.0617
13.3204
13.7213
14.3811
15.5716
18.3523
24.8614
)
;

boundaryField
{
    movingWallTop
    {
        type            zeroGradient;
    }
    movingWallBottom
    {
        type            zeroGradient;
    }
    fixedWalls
    {
        type            zeroGradient;
    }
    frontAndBack
    {
        type            empty;
    }
}


// ************************************************************************* //
