/*--------------------------------*- C++ -*----------------------------------*\
  =========                 |
  \\      /  F ield         | OpenFOAM: The Open Source CFD Toolbox
   \\    /   O peration     | Website:  https://openfoam.org
    \\  /    A nd           | Version:  7
     \\/     M anipulation  |
\*---------------------------------------------------------------------------*/
FoamFile
{
    version     2.0;
    format      ascii;
    class       volScalarField;
    location    "0.0366";
    object      p;
}
// * * * * * * * * * * * * * * * * * * * * * * * * * * * * * * * * * * * * * //

dimensions      [0 2 -2 0 0 0 0];

internalField   nonuniform List<scalar> 
2500
(
-7.5048e-06
-0.000515988
-0.00198763
-0.00411897
-0.00658201
-0.00908573
-0.011433
-0.0134625
-0.0150544
-0.0161235
-0.0166116
-0.016483
-0.01572
-0.0143206
-0.0122954
-0.00966599
-0.00646315
-0.00272551
0.0015016
0.00616706
0.0112148
0.0165846
0.0222126
0.0280318
0.033973
0.0399648
0.0459349
0.05181
0.0575171
0.0629841
0.0681403
0.0729182
0.0772539
0.0810886
0.08437
0.0870536
0.0891046
0.0904992
0.0912271
0.0912928
0.0907191
0.089549
0.0878496
0.085716
0.0832779
0.0807045
0.0782076
0.0760708
0.0746164
0.0741424
0.000497401
-7.54052e-06
-0.0012014
-0.0028796
-0.00479936
-0.00676154
-0.00860288
-0.010189
-0.0114149
-0.0122015
-0.0124925
-0.0122508
-0.0114557
-0.0101007
-0.00819155
-0.00574419
-0.00278362
0.000657463
0.00453972
0.00881807
0.0134425
0.0183587
0.023509
0.0288324
0.0342659
0.0397445
0.0452022
0.0505724
0.0557888
0.0607862
0.0655011
0.0698732
0.0738458
0.0773674
0.080393
0.0828851
0.0848151
0.0861656
0.086931
0.0871202
0.086758
0.0858874
0.0845723
0.0828996
0.0809824
0.078962
0.0770073
0.0753153
0.0741387
0.0736687
0.00197113
0.00118575
-1.57562e-05
-0.0015303
-0.0032061
-0.00489068
-0.00645206
-0.00777966
-0.00878375
-0.00939457
-0.00956067
-0.00924698
-0.00843295
-0.00711072
-0.00528359
-0.00296453
-0.000174988
0.0030562
0.00669377
0.0106969
0.0150198
0.0196127
0.0244223
0.0293923
0.0344641
0.0395776
0.0446713
0.0496835
0.0545529
0.0592192
0.0636239
0.0677116
0.0714307
0.0747346
0.0775828
0.079942
0.0817878
0.0831057
0.0838926
0.0841584
0.0839275
0.0832402
0.0821545
0.0807474
0.0791159
0.0773772
0.0756678
0.0741425
0.0729596
0.0722178
0.00412616
0.00287818
0.00147988
-6.06362e-05
-0.00167793
-0.00325245
-0.00467801
-0.00586578
-0.00674164
-0.00724644
-0.00733563
-0.00697835
-0.00615612
-0.00486168
-0.0030977
-0.000875748
0.0017848
0.00485764
0.00831036
0.0121052
0.0161998
0.0205477
0.0250992
0.0298014
0.0345996
0.0394372
0.0442566
0.0489998
0.0536091
0.0580281
0.062202
0.0660791
0.0696111
0.0727547
0.0754725
0.0777339
0.0795164
0.080807
0.081603
0.0819138
0.0817612
0.0811813
0.0802249
0.078958
0.0774622
0.0758328
0.0741814
0.0726307
0.0712538
0.0700661
0.00666436
0.00484802
0.00315476
0.00148575
-0.000175029
-0.00173405
-0.00310689
-0.00422465
-0.00502838
-0.00546985
-0.00551228
-0.00512999
-0.00430775
-0.00303993
-0.00132968
0.000811926
0.00336668
0.00631
0.00961162
0.0132362
0.0171441
0.0212917
0.0256321
0.0301158
0.0346909
0.039304
0.0439007
0.0484261
0.0528256
0.0570458
0.0610348
0.0647437
0.0681269
0.0711434
0.0737577
0.0759409
0.0776716
0.0789369
0.0797337
0.0800694
0.0799626
0.0794441
0.0785569
0.0773564
0.0759091
0.0742913
0.0725933
0.070913
0.0692449
0.0675027
0.00934183
0.00692265
0.0048757
0.00300601
0.00122517
-0.000392686
-0.00178058
-0.00288701
-0.00366688
-0.00408245
-0.00410482
-0.00371401
-0.00289868
-0.00165563
1.0724e-05
0.00208897
0.00456133
0.00740422
0.0105888
0.0140816
0.0178449
0.0218375
0.0260148
0.0303297
0.0347329
0.0391737
0.0435999
0.0479593
0.0521997
0.05627
0.0601204
0.063704
0.0669769
0.0698997
0.0724378
0.0745631
0.0762541
0.0774975
0.0782885
0.0786321
0.0785428
0.0780458
0.0771765
0.0759803
0.0745104
0.0728264
0.0710023
0.0691179
0.0670975
0.0647611
0.0119894
0.00896069
0.00652642
0.00440608
0.00244853
0.000714453
-0.000742539
-0.00188554
-0.00268156
-0.00310253
-0.00312712
-0.00274115
-0.00193753
-0.000716002
0.000917152
0.00294957
0.00536323
0.0081349
0.0112366
0.014636
0.0182969
0.0221796
0.0262416
0.0304375
0.0347201
0.0390404
0.0433484
0.0475936
0.0517256
0.0556947
0.0594527
0.0629539
0.0661553
0.069018
0.0715078
0.0735963
0.0752614
0.0764882
0.0772699
0.0776081
0.0775132
0.0770048
0.076111
0.0748682
0.0733183
0.0715073
0.0694973
0.0673559
0.0649472
0.0620081
0.0144749
0.0108451
0.00800678
0.00560356
0.00343006
0.00153827
-2.80447e-05
-0.00124393
-0.00208678
-0.0025371
-0.00258061
-0.00220878
-0.00141887
-0.000213865
0.00139769
0.00340201
0.00578031
0.00850919
0.0115609
0.0149039
0.0185028
0.0223192
0.0263116
0.0304362
0.0346472
0.0388969
0.0431367
0.0473173
0.0513894
0.0553043
0.0590145
0.0624748
0.0656424
0.0684783
0.0709478
0.0730214
0.0746757
0.0758937
0.0766659
0.0769905
0.0768734
0.0763287
0.0753779
0.0740497
0.0723764
0.0703937
0.068155
0.0657211
0.0629043
0.0593682
0.0166983
0.0124803
0.00923015
0.00652342
0.00410706
0.00202801
0.000323112
-0.000992371
-0.00190458
-0.00240152
-0.00247534
-0.00212284
-0.00134559
-0.000149967
0.00145299
0.00344767
0.00581417
0.00852848
0.0115627
0.0148853
0.0184616
0.0222537
0.026221
0.0303206
0.0345074
0.0387348
0.0429549
0.0471192
0.0511788
0.0550854
0.0587916
0.062252
0.0654234
0.068266
0.0707438
0.0728259
0.0744867
0.0757067
0.0764733
0.0767808
0.0766308
0.0760322
0.0750008
0.0735582
0.0717295
0.069542
0.067044
0.0642932
0.0610569
0.0569333
0.0185817
0.0137867
0.0101209
0.00709693
0.00441901
0.00213176
0.000267334
-0.00116678
-0.00216407
-0.00271905
-0.00282965
-0.00249768
-0.00172891
-0.000533093
0.001076
0.00308075
0.00545976
0.00818804
0.0112371
0.0145754
0.0181679
0.0219773
0.0259632
0.0300831
0.0342925
0.0385451
0.0427933
0.0469888
0.0510828
0.0550267
0.0587728
0.0622746
0.0654881
0.0683719
0.0708883
0.0730043
0.0746915
0.0759276
0.0766964
0.0769883
0.0768006
0.0761371
0.0750084
0.0734306
0.0714228
0.069006
0.066226
0.0631404
0.0594764
0.0547718
0.0200622
0.0146966
0.0106117
0.00726049
0.00430763
0.00179734
-0.000241183
-0.00180677
-0.0028991
-0.00351837
-0.00366773
-0.00335367
-0.00258599
-0.00137786
0.000254149
0.00229017
0.00470708
0.00747861
0.0105754
0.0139653
0.017613
0.0214809
0.0255288
0.0297142
0.0339925
0.0383175
0.0426415
0.0469158
0.0510911
0.0551183
0.0589484
0.0625339
0.0658289
0.0687901
0.0713776
0.0735554
0.0752922
0.0765621
0.0773452
0.0776278
0.0774027
0.0766693
0.0754332
0.0737059
0.0715016
0.0688371
0.0657574
0.0623223
0.058222
0.052937
0.0210855
0.0151495
0.0106406
0.00695387
0.00371594
0.000972064
-0.00125031
-0.00295523
-0.0041477
-0.00483297
-0.00501895
-0.00471653
-0.00393941
-0.00270419
-0.00103032
0.00105994
0.00354152
0.00638663
0.00956475
0.0130427
0.0167848
0.0207529
0.0249063
0.0292022
0.0335958
0.0380405
0.042488
0.046889
0.0511933
0.0553504
0.05931
0.0630228
0.0664406
0.0695177
0.0722112
0.0744819
0.0762949
0.0776204
0.0784343
0.0787187
0.0784618
0.0776587
0.0763105
0.0744247
0.0720119
0.0690854
0.0656911
0.0618928
0.0573453
0.0514726
0.0216019
0.0150889
0.0101488
0.00611843
0.00258714
-0.000397964
-0.00281028
-0.00465838
-0.00595198
-0.00670092
-0.0069176
-0.00661707
-0.0058169
-0.00453709
-0.00280007
-0.00063065
0.00194398
0.00489428
0.00818832
0.0117918
0.0156681
0.0197782
0.024081
0.028533
0.0330888
0.0377009
0.0423203
0.0468967
0.0513785
0.0557136
0.0598499
0.0637355
0.0673198
0.0705539
0.0733916
0.0757897
0.0777095
0.0791166
0.0799826
0.0802847
0.0800067
0.0791391
0.0776792
0.0756306
0.0730008
0.0698009
0.0660787
0.061903
0.0568937
0.0504179
0.0215628
0.0144598
0.00907803
0.00469541
0.000863323
-0.00236861
-0.00497415
-0.00696594
-0.0083581
-0.00916477
-0.00940266
-0.00909094
-0.00825101
-0.00690634
-0.00508244
-0.0028068
-0.000108926
0.0029797
0.00642553
0.0101929
0.0142441
0.0185391
0.0230359
0.0276902
0.0324556
0.0372838
0.0421246
0.0469262
0.0516355
0.0561984
0.0605603
0.0646669
0.0684642
0.0718997
0.0749234
0.0774877
0.0795491
0.0810687
0.0820127
0.0823536
0.0820703
0.0811486
0.0795817
0.07737
0.0745181
0.0710354
0.0669724
0.062404
0.056914
0.0498108
0.0209185
0.0132059
0.00736895
0.00262433
-0.00151565
-0.0049986
-0.00779835
-0.00993151
-0.0114164
-0.0122715
-0.0125178
-0.0121785
-0.011279
-0.00984631
-0.0079092
-0.00549801
-0.00264468
0.00061716
0.00425216
0.00822315
0.012491
0.0170147
0.0217511
0.0266547
0.0316783
0.0367723
0.0418851
0.0469634
0.0519519
0.0567945
0.0614338
0.0658122
0.0698722
0.0735574
0.076813
0.0795867
0.0818297
0.0834976
0.0845511
0.0849572
0.0846895
0.083729
0.0820645
0.0796932
0.0766169
0.0728436
0.068427
0.0634486
0.0574548
0.0496915
0.0196158
0.0112679
0.00495909
-0.000158455
-0.00461338
-0.00835043
-0.0113434
-0.013613
-0.0151818
-0.0160728
-0.0163111
-0.0159246
-0.0149425
-0.0133957
-0.0113164
-0.00873778
-0.00569461
-0.00222275
0.00164049
0.00585623
0.0103839
0.0151813
0.0202038
0.0254052
0.0307367
0.0361475
0.0415845
0.0469924
0.0523142
0.0574907
0.0624619
0.0671664
0.0715428
0.07553
0.0790682
0.0820996
0.0845695
0.0864273
0.0876276
0.0881312
0.0879057
0.0869269
0.085179
0.0826553
0.079355
0.0752847
0.0705014
0.0650941
0.0585685
0.0501044
0.0175961
0.00858193
0.00178145
-0.00372118
-0.00849814
-0.0124913
-0.0156746
-0.0180731
-0.019714
-0.0206249
-0.0208357
-0.0203788
-0.0192878
-0.0175975
-0.0153439
-0.0125634
-0.00929361
-0.00557279
-0.0014404
0.00306291
0.00789505
0.0130123
0.018369
0.0239175
0.029608
0.0353881
0.0412031
0.0469959
0.052707
0.0582746
0.0636353
0.0687239
0.0734744
0.0778209
0.0816976
0.0850407
0.0877888
0.0898845
0.0912754
0.0919151
0.0917647
0.0907939
0.0889816
0.086317
0.0827963
0.078424
0.073261
0.0674037
0.0603144
0.0511006
0.0147945
0.00507767
-0.00223696
-0.00813792
-0.0132439
-0.0174941
-0.0208629
-0.02338
-0.0250779
-0.0259892
-0.0261491
-0.0255949
-0.024365
-0.0224986
-0.0200355
-0.0170157
-0.0134798
-0.00946877
-0.00502424
-0.000188767
0.00499397
0.0104788
0.016219
0.0221656
0.0282674
0.0344708
0.0407195
0.0469543
0.0531134
0.0591321
0.0649434
0.070478
0.0756652
0.0804331
0.0847101
0.0884252
0.0915097
0.0938984
0.0955307
0.0963524
0.0963171
0.095387
0.0935353
0.090746
0.0870116
0.0823343
0.0767788
0.070449
0.0627596
0.05274
0.0111377
0.00067726
-0.00717654
-0.0134899
-0.0189316
-0.0234384
-0.0269853
-0.0296078
-0.031344
-0.0322324
-0.032314
-0.0316315
-0.0302287
-0.0281495
-0.0254381
-0.0221384
-0.0182941
-0.013949
-0.00914714
-0.00393297
0.00164824
0.00754999
0.0137243
0.020121
0.0266881
0.0333704
0.0401101
0.0468462
0.0535145
0.0600473
0.066374
0.0724209
0.078112
0.0833696
0.0881148
0.0922692
0.0957558
0.0985004
0.100433
0.101491
0.101618
0.100769
0.0989098
0.0960176
0.0920804
0.0870977
0.0811373
0.0743114
0.0659819
0.0550931
0.00654339
-0.00470621
-0.0131264
-0.0198669
-0.0256503
-0.0304112
-0.0341263
-0.0368372
-0.038589
-0.0394266
-0.0393976
-0.0385511
-0.0369368
-0.034604
-0.0316016
-0.0279776
-0.0237794
-0.0190536
-0.0138468
-0.00820537
-0.00217608
0.0041933
0.0108537
0.0177542
0.0248416
0.0320598
0.0393497
0.0466485
0.0538896
0.0610027
0.0679133
0.0745432
0.0808108
0.086632
0.0919204
0.0965891
0.100552
0.103724
0.106026
0.107383
0.10773
0.107011
0.105183
0.102216
0.0980922
0.0928069
0.086431
0.0790844
0.0700715
0.0582431
0.000918385
-0.0111701
-0.0201859
-0.0273683
-0.0334981
-0.0385085
-0.0423781
-0.0451562
-0.0468958
-0.0476494
-0.0474722
-0.0464207
-0.044551
-0.0419187
-0.0385779
-0.0345813
-0.0299799
-0.0248238
-0.0191618
-0.0130423
-0.00651347
0.000375802
0.00757567
0.0150346
0.0226986
0.0305111
0.0384117
0.0463364
0.0542165
0.0619788
0.0695455
0.0768336
0.0837559
0.0902212
0.0961352
0.101401
0.105923
0.109605
0.112354
0.114085
0.114719
0.114189
0.112441
0.109436
0.105148
0.0995674
0.0927674
0.0848757
0.0751332
0.0622883
-0.00584228
-0.0188236
-0.0284659
-0.0361048
-0.0425841
-0.0478359
-0.0518421
-0.0546608
-0.0563543
-0.0569843
-0.0566147
-0.0553105
-0.0531355
-0.050152
-0.0464202
-0.0419978
-0.0369402
-0.0313005
-0.0251302
-0.0184794
-0.0113978
-0.00393494
0.00385886
0.0119318
0.0202297
0.0286957
0.0372689
0.0458841
0.0544713
0.0629548
0.0712533
0.0792793
0.0869399
0.0941365
0.100766
0.106722
0.111896
0.11618
0.119468
0.121658
0.122659
0.122389
0.12078
0.117783
0.113362
0.107499
0.10027
0.0918095
0.0812886
0.0673436
-0.013857
-0.0277895
-0.0380909
-0.0462001
-0.0530293
-0.0585103
-0.0626294
-0.0654555
-0.0670617
-0.0675206
-0.0669065
-0.0652942
-0.0627564
-0.0593633
-0.0551818
-0.0502752
-0.0447034
-0.038523
-0.031788
-0.0245505
-0.0168609
-0.00876939
-0.000326212
0.00841703
0.0174067
0.026586
0.0358943
0.045266
0.05463
0.0639088
0.073018
0.081866
0.090354
0.0983759
0.10582
0.112567
0.118498
0.123489
0.127419
0.130169
0.13163
0.131704
0.130308
0.127377
0.122863
0.116739
0.10908
0.100029
0.088679
0.073544
-0.0232591
-0.0382061
-0.0492005
-0.0577926
-0.0649686
-0.0706611
-0.0748623
-0.077654
-0.0791225
-0.0793532
-0.0784329
-0.0764477
-0.0734809
-0.0696117
-0.0649144
-0.0594588
-0.0533095
-0.046527
-0.0391677
-0.0312852
-0.0229307
-0.0141542
-0.00500557
0.00446461
0.0142038
0.0241563
0.0342623
0.0444568
0.0546684
0.0648184
0.0748201
0.084578
0.0939877
0.102936
0.1113
0.118952
0.125756
0.131572
0.136262
0.139688
0.141721
0.14224
0.141145
0.138352
0.133798
0.127443
0.119361
0.1097
0.0974685
0.0810468
-0.0341989
-0.0502293
-0.0619523
-0.0710379
-0.0785529
-0.084432
-0.0886753
-0.0913802
-0.0926489
-0.0925824
-0.0912822
-0.0888482
-0.0853755
-0.0809538
-0.0756663
-0.0695895
-0.0627935
-0.0553425
-0.0472954
-0.038707
-0.0296287
-0.0201101
-0.0101996
5.3899e-05
0.0105998
0.0213847
0.0323506
0.0434338
0.0545639
0.065662
0.0766398
0.0873987
0.0978293
0.107811
0.117212
0.12589
0.133695
0.140471
0.146056
0.150292
0.153025
0.154111
0.153424
0.15086
0.146334
0.13979
0.131298
0.121013
0.107847
0.0900352
-0.046846
-0.0640358
-0.0765245
-0.0861115
-0.0939514
-0.0999828
-0.104216
-0.106769
-0.107761
-0.107313
-0.105545
-0.102572
-0.098504
-0.0934422
-0.0874799
-0.0807013
-0.0731822
-0.0649908
-0.0561883
-0.0468303
-0.0369679
-0.0266492
-0.0159206
-0.00482824
0.00658049
0.0182553
0.0301414
0.0421781
0.0542967
0.0664196
0.078458
0.0903115
0.101866
0.112995
0.123556
0.133394
0.142344
0.150227
0.156862
0.162063
0.165647
0.167443
0.167295
0.16507
0.160659
0.153985
0.145109
0.13419
0.120037
0.100722
-0.0613928
-0.0798266
-0.09312
-0.103213
-0.111355
-0.117492
-0.121649
-0.123965
-0.124586
-0.123655
-0.121313
-0.117694
-0.112925
-0.107122
-0.100388
-0.0928174
-0.0844911
-0.0754814
-0.0658514
-0.0556573
-0.0449489
-0.033772
-0.0221699
-0.0101848
0.00214051
0.0147602
0.0276244
0.0406764
0.0538514
0.0670743
0.0802578
0.0933006
0.106086
0.11848
0.130333
0.141476
0.151726
0.160884
0.168743
0.175086
0.1797
0.182376
0.182923
0.181175
0.17699
0.170262
0.161042
0.149488
0.134293
0.113356
-0.0780576
-0.0978317
-0.111971
-0.122568
-0.13098
-0.13716
-0.141153
-0.143128
-0.14326
-0.14172
-0.138675
-0.134282
-0.128689
-0.122027
-0.114412
-0.105947
-0.0967206
-0.0868079
-0.076274
-0.0651744
-0.053557
-0.0414643
-0.0289348
-0.0160055
-0.00271325
0.0109026
0.0247983
0.0389235
0.0532191
0.0676144
0.0820252
0.0963516
0.110475
0.124258
0.137542
0.150145
0.161866
0.172485
0.181763
0.189453
0.195302
0.199061
0.200494
0.199392
0.195572
0.188892
0.179384
0.167204
0.150916
0.128226
-0.097091
-0.118317
-0.133347
-0.144439
-0.153072
-0.159212
-0.162929
-0.164428
-0.163923
-0.16162
-0.157716
-0.152397
-0.145834
-0.138176
-0.129554
-0.120081
-0.109851
-0.0989438
-0.0874248
-0.0753481
-0.0627584
-0.0496932
-0.0361851
-0.0222639
-0.00795897
0.00669874
0.0216739
0.0369245
0.0523992
0.0680342
0.083751
0.0994529
0.115023
0.13032
0.145179
0.159407
0.172785
0.185069
0.195989
0.20526
0.212584
0.217664
0.220212
0.219964
0.216684
0.210185
0.200471
0.187688
0.170255
0.145667
-0.118782
-0.141591
-0.157559
-0.169129
-0.177913
-0.183901
-0.187195
-0.188049
-0.186723
-0.183465
-0.178512
-0.172086
-0.16438
-0.155568
-0.145795
-0.135185
-0.123839
-0.111838
-0.0992482
-0.0861209
-0.0724958
-0.0584038
-0.0438697
-0.0289142
-0.013557
0.00218147
0.0182765
0.0346968
0.0514014
0.0683365
0.0854316
0.102597
0.119718
0.136656
0.15324
0.169267
0.184502
0.198674
0.211484
0.222602
0.231682
0.238367
0.242305
0.243167
0.240649
0.234503
0.224693
0.211349
0.192724
0.166077
-0.14347
-0.168019
-0.184977
-0.196992
-0.205831
-0.211516
-0.214197
-0.214188
-0.211807
-0.207359
-0.201128
-0.193374
-0.184324
-0.174174
-0.163086
-0.151195
-0.138608
-0.125408
-0.111659
-0.0974069
-0.082685
-0.0675156
-0.0519135
-0.0358882
-0.0194471
-0.00259801
0.0146477
0.0322721
0.0502478
0.0685334
0.0870706
0.105779
0.124553
0.143255
0.161715
0.179723
0.197027
0.213334
0.228309
0.241579
0.252738
0.261363
0.267025
0.269311
0.267834
0.262263
0.252509
0.238671
0.218808
0.189921
-0.171555
-0.198038
-0.21604
-0.228446
-0.237206
-0.242387
-0.244204
-0.243051
-0.239323
-0.233393
-0.225604
-0.216261
-0.205629
-0.193929
-0.181341
-0.168011
-0.154049
-0.139538
-0.124538
-0.109087
-0.093211
-0.0769194
-0.0602148
-0.0430929
-0.0255465
-0.00756804
0.0108472
0.029698
0.0489731
0.0686477
0.088679
0.109001
0.129519
0.150105
0.170592
0.190765
0.210363
0.229071
0.246518
0.262282
0.275897
0.286858
0.294646
0.298745
0.298661
0.293956
0.284462
0.270228
0.24909
0.217753
-0.20352
-0.232178
-0.251282
-0.263993
-0.272483
-0.276887
-0.277512
-0.274855
-0.269413
-0.261641
-0.251953
-0.24071
-0.228218
-0.214725
-0.20043
-0.185486
-0.170005
-0.154068
-0.137726
-0.121008
-0.103925
-0.0864748
-0.068643
-0.0504093
-0.0317488
-0.0126357
0.00695385
0.027038
0.0476258
0.0687126
0.0902753
0.112267
0.13461
0.15719
0.179849
0.202376
0.224502
0.245894
0.26615
0.284798
0.301301
0.315068
0.325468
0.331862
0.333615
0.330153
0.321194
0.306712
0.284271
0.250237
-0.239956
-0.271092
-0.291357
-0.304238
-0.31219
-0.315449
-0.314446
-0.309822
-0.302199
-0.29214
-0.280142
-0.266633
-0.251959
-0.2364
-0.220169
-0.203423
-0.186275
-0.168795
-0.151023
-0.132975
-0.114644
-0.096009
-0.0770387
-0.0576922
-0.037924
-0.0176872
0.00306428
0.0243715
0.046267
0.0687705
0.0918834
0.115583
0.139815
0.164486
0.189454
0.214519
0.239413
0.263791
0.287224
0.309191
0.329083
0.346208
0.35981
0.369095
0.373254
0.371528
0.36348
0.348962
0.325205
0.288177
-0.281603
-0.315603
-0.337079
-0.349925
-0.356955
-0.358563
-0.355357
-0.348166
-0.337776
-0.324882
-0.310083
-0.293875
-0.276654
-0.258723
-0.240308
-0.221566
-0.202599
-0.183464
-0.164184
-0.144754
-0.125146
-0.105318
-0.0852144
-0.0647716
-0.0439207
-0.0225901
-0.000708925
0.0217902
0.0449673
0.0688704
0.0935305
0.118955
0.14512
0.17196
0.199359
0.227138
0.25504
0.282719
0.309725
0.335497
0.359351
0.380488
0.398005
0.410923
0.418215
0.418876
0.412249
0.398006
0.372948
0.332563
-0.329403
-0.366763
-0.389481
-0.401968
-0.407529
-0.40679
-0.400613
-0.390081
-0.376188
-0.359791
-0.341604
-0.3222
-0.302019
-0.281386
-0.260526
-0.239589
-0.218658
-0.197769
-0.176918
-0.156073
-0.13518
-0.114169
-0.092958
-0.071457
-0.0495699
-0.0271979
-0.00424188
0.0193948
0.043803
0.0690635
0.0952416
0.122381
0.150496
0.179558
0.209489
0.240142
0.271285
0.302586
0.33359
0.363701
0.39217
0.418086
0.440384
0.457863
0.469222
0.473136
0.468637
0.455122
0.428826
0.384632
-0.384591
-0.425952
-0.44989
-0.461513
-0.464808
-0.460758
-0.450587
-0.435713
-0.417397
-0.396687
-0.374425
-0.35126
-0.327668
-0.303982
-0.280416
-0.257096
-0.234074
-0.211351
-0.188889
-0.166622
-0.144462
-0.122305
-0.100039
-0.0775437
-0.0546924
-0.0313565
-0.00740615
0.0172874
0.0428489
0.0693957
0.0970328
0.125846
0.155896
0.187202
0.219735
0.253396
0.287998
0.323239
0.35868
0.393713
0.427535
0.459129
0.487253
0.510455
0.52709
0.535418
0.534035
0.521921
0.494531
0.44596
-0.448818
-0.495009
-0.520039
-0.529997
-0.52986
-0.521157
-0.505623
-0.485121
-0.46124
-0.435249
-0.408122
-0.380571
-0.353091
-0.325999
-0.299479
-0.273611
-0.248401
-0.223801
-0.199726
-0.176065
-0.152688
-0.129456
-0.106219
-0.0828218
-0.0591071
-0.0349134
-0.0100778
0.0155626
0.0421693
0.0698995
0.098902
0.129312
0.161242
0.194773
0.229939
0.266705
0.304951
0.344434
0.384758
0.425332
0.465329
0.503641
0.538853
0.56923
0.592716
0.607029
0.610161
0.600459
0.572273
0.518601
-0.524365
-0.576448
-0.602222
-0.609235
-0.603943
-0.588709
-0.565985
-0.538211
-0.50737
-0.474963
-0.442083
-0.40948
-0.37763
-0.346804
-0.317119
-0.288587
-0.261142
-0.234671
-0.209027
-0.184045
-0.159547
-0.135348
-0.111259
-0.0870885
-0.0626437
-0.0377294
-0.0121487
0.0142971
0.0418077
0.0705828
0.100819
0.132705
0.166416
0.202103
0.239877
0.279793
0.32182
0.365807
0.411443
0.458199
0.505265
0.551485
0.595293
0.634658
0.667045
0.689487
0.69914
0.693404
0.664993
0.605308
-0.614483
-0.673786
-0.699517
-0.70151
-0.688496
-0.664102
-0.631762
-0.594641
-0.555161
-0.515044
-0.475458
-0.43713
-0.400464
-0.365632
-0.332643
-0.301402
-0.271748
-0.24348
-0.216377
-0.190205
-0.164731
-0.13972
-0.114941
-0.0901622
-0.0651557
-0.0396918
-0.0135393
0.0135365
0.0417743
0.0714172
0.102712
0.135906
0.171243
0.208955
0.249247
0.292284
0.338154
0.386843
0.43817
0.491732
0.546809
0.602267
0.656447
0.707046
0.751006
0.784515
0.803604
0.804259
0.776715
0.7099
-0.723989
-0.792054
-0.816083
-0.809663
-0.785087
-0.747856
-0.702712
-0.653671
-0.603594
-0.554354
-0.507094
-0.462425
-0.420589
-0.381587
-0.345265
-0.31138
-0.279643
-0.249742
-0.221365
-0.194203
-0.167958
-0.142342
-0.117079
-0.0918984
-0.0665358
-0.0407284
-0.0142116
0.0132838
0.0420344
0.0723267
0.104458
0.138738
0.175483
0.215014
0.257648
0.303678
0.35335
0.406827
0.464127
0.525053
0.589078
0.655205
0.721799
0.786377
0.845366
0.893977
0.926773
0.937671
0.913076
0.837893
-0.860355
-0.938621
-0.957559
-0.937134
-0.895241
-0.840078
-0.77801
-0.713955
-0.651098
-0.591292
-0.535479
-0.484
-0.436813
-0.393652
-0.354132
-0.317814
-0.284244
-0.252983
-0.223611
-0.195735
-0.16899
-0.143032
-0.11754
-0.0922053
-0.0667301
-0.0408204
-0.0141815
0.0134874
0.0424982
0.0731783
0.105874
0.140956
0.178817
0.219875
0.264567
0.313339
0.366624
0.424814
0.488202
0.556899
0.630709
0.70895
0.790213
0.872034
0.950465
1.0197
1.0725
1.09984
1.08218
0.997653
-1.03578
-1.12449
-1.13153
-1.08786
-1.02008
-0.940029
-0.855875
-0.773255
-0.695361
-0.623687
-0.558689
-0.500214
-0.447772
-0.400717
-0.358354
-0.319997
-0.285002
-0.25278
-0.222795
-0.194566
-0.167659
-0.141678
-0.116259
-0.0910587
-0.0657502
-0.0400131
-0.0135274
0.0140347
0.043015
0.073777
0.106712
0.142249
0.180854
0.223043
0.269382
0.320483
0.376999
0.439599
0.508928
0.585529
0.669714
0.761364
0.859614
0.962401
1.06576
1.16308
1.24514
1.29897
1.29595
1.2026
-1.27145
-1.36633
-1.34781
-1.26576
-1.15951
-1.04537
-0.932983
-0.828054
-0.733102
-0.648689
-0.57436
-0.509165
-0.451971
-0.401626
-0.357053
-0.317277
-0.28144
-0.248792
-0.218684
-0.190548
-0.163886
-0.138254
-0.113253
-0.0885119
-0.0636813
-0.0384215
-0.0123937
0.0147494
0.0433727
0.073868
0.106664
0.142239
0.181128
0.22394
0.271367
0.324194
0.383311
0.449707
0.524451
0.608646
0.703323
0.809243
0.926553
1.05421
1.189
1.32422
1.44898
1.54558
1.57216
1.47568
-1.60627
-1.68942
-1.61794
-1.47296
-1.31049
-1.15079
-1.00353
-0.872999
-0.759789
-0.662662
-0.579672
-0.508725
-0.447837
-0.395242
-0.349423
-0.309097
-0.273188
-0.240794
-0.211158
-0.18364
-0.157689
-0.132825
-0.108624
-0.0846972
-0.0606822
-0.0362289
-0.0109887
0.015396
0.0433031
0.0731427
0.10537
0.140499
0.179121
0.221923
0.269712
0.323438
0.384225
0.453399
0.532509
0.623328
0.727812
0.847972
0.985575
1.14154
1.31473
1.5
1.6864
1.85185
1.93749
1.85855
-2.11221
-2.13139
-1.95329
-1.70684
-1.46426
-1.24612
-1.05824
-0.900462
-0.769539
-0.661249
-0.571496
-0.496699
-0.433866
-0.380561
-0.334821
-0.295071
-0.260042
-0.228709
-0.200234
-0.173924
-0.149196
-0.125554
-0.10256
-0.0798227
-0.056978
-0.0336765
-0.009571
0.0156953
0.0425016
0.0712629
0.102445
0.136582
0.1743
0.216339
0.263594
0.317149
0.378336
0.448796
0.530558
0.62612
0.738522
0.871374
1.02875
1.21476
1.4324
1.68135
1.95466
2.22973
2.43106
2.42671
-2.91996
-2.74233
-2.36146
-1.95784
-1.60533
-1.31637
-1.08501
-0.90159
-0.756238
-0.640415
-0.547285
-0.471562
-0.409219
-0.357194
-0.313148
-0.275284
-0.242203
-0.212805
-0.186215
-0.16172
-0.138734
-0.116762
-0.0953757
-0.0741933
-0.0528629
-0.0310484
-0.00841609
0.015378
0.0407009
0.0679572
0.0976055
0.130178
0.166308
0.206756
0.25246
0.304587
0.36461
0.434414
0.516433
0.61384
0.730785
0.872694
1.04656
1.26106
1.52624
1.85198
2.24352
2.68687
3.10383
3.31435
-4.3262
-3.56259
-2.8182
-2.19252
-1.70315
-1.3377
-1.06755
-0.86611
-0.713799
-0.596794
-0.505363
-0.43266
-0.37384
-0.325421
-0.284863
-0.250279
-0.22024
-0.193649
-0.169646
-0.147543
-0.126782
-0.106894
-0.0874781
-0.0681801
-0.048674
-0.0286493
-0.00779808
0.014198
0.0376802
0.0630268
0.0906698
0.121115
0.154969
0.192974
0.236052
0.285375
0.342457
0.409285
0.48852
0.583789
0.700126
0.844619
1.02733
1.26254
1.57045
1.97876
2.51727
3.19659
3.99583
4.82615
-7.16071
-4.56124
-3.1424
-2.25666
-1.65002
-1.2401
-0.961466
-0.765909
-0.624074
-0.518275
-0.437326
-0.373929
-0.323195
-0.281759
-0.247233
-0.217884
-0.192418
-0.169855
-0.149433
-0.130548
-0.11271
-0.0955136
-0.0786113
-0.0616965
-0.0444885
-0.0267196
-0.0081228
0.011577
0.032677
0.0555078
0.0804487
0.107946
0.138537
0.172884
0.211813
0.256385
0.307983
0.368452
0.440312
0.5271
0.633924
0.76839
0.942144
1.17356
1.49302
1.95081
2.61642
3.57447
5.07943
7.79791
-12.0291
-5.64404
-2.97818
-1.88012
-1.28413
-0.930626
-0.712197
-0.567495
-0.465296
-0.389792
-0.332122
-0.286873
-0.250537
-0.220725
-0.195744
-0.174353
-0.155623
-0.138841
-0.12345
-0.109007
-0.0951494
-0.0815769
-0.0680307
-0.0542819
-0.0401193
-0.0253406
-0.00974391
0.00688231
0.0247659
0.0441616
0.0653618
0.0887105
0.11462
0.143596
0.176266
0.213427
0.256111
0.305679
0.363982
0.433604
0.518312
0.623864
0.759596
0.941934
1.20286
1.60624
2.2686
3.46158
6.24437
12.7549
)
;

boundaryField
{
    movingWall
    {
        type            zeroGradient;
    }
    fixedWalls
    {
        type            zeroGradient;
    }
    frontAndBack
    {
        type            empty;
    }
}


// ************************************************************************* //
