/*--------------------------------*- C++ -*----------------------------------*\
  =========                 |
  \\      /  F ield         | OpenFOAM: The Open Source CFD Toolbox
   \\    /   O peration     | Website:  https://openfoam.org
    \\  /    A nd           | Version:  7
     \\/     M anipulation  |
\*---------------------------------------------------------------------------*/
FoamFile
{
    version     2.0;
    format      ascii;
    class       volVectorField;
    location    "0.0132";
    object      U;
}
// * * * * * * * * * * * * * * * * * * * * * * * * * * * * * * * * * * * * * //

dimensions      [0 1 -1 0 0 0 0];

internalField   nonuniform List<vector> 
2500
(
(0.290331 -0.152486 0)
(0.389758 -0.128319 0)
(0.565688 -0.0747585 0)
(0.683364 -0.0421785 0)
(0.752587 -0.0244 0)
(0.797031 -0.0146944 0)
(0.827464 -0.0093375 0)
(0.849079 -0.00627994 0)
(0.864943 -0.0044355 0)
(0.876914 -0.00325219 0)
(0.886133 -0.00244967 0)
(0.893336 -0.00188047 0)
(0.899023 -0.00146292 0)
(0.903549 -0.00114896 0)
(0.90717 -0.000908569 0)
(0.910078 -0.000721924 0)
(0.912421 -0.000575306 0)
(0.914308 -0.000458864 0)
(0.915828 -0.000365313 0)
(0.917045 -0.000289131 0)
(0.918012 -0.000226046 0)
(0.918767 -0.000172674 0)
(0.919339 -0.000126277 0)
(0.91975 -8.45624e-05 0)
(0.920012 -4.55391e-05 0)
(0.920133 -7.39206e-06 0)
(0.920113 3.1629e-05 0)
(0.919947 7.33303e-05 0)
(0.919624 0.000119659 0)
(0.919125 0.000172836 0)
(0.918423 0.000235497 0)
(0.917482 0.000310868 0)
(0.916254 0.000402999 0)
(0.914676 0.000517091 0)
(0.912667 0.000659979 0)
(0.910121 0.000840875 0)
(0.906899 0.00107256 0)
(0.902819 0.00137343 0)
(0.897633 0.0017712 0)
(0.891003 0.00230993 0)
(0.882447 0.00306424 0)
(0.871253 0.00416902 0)
(0.856314 0.00588354 0)
(0.835806 0.00872927 0)
(0.806653 0.0137673 0)
(0.763557 0.0230912 0)
(0.695554 0.0406651 0)
(0.577924 0.0737033 0)
(0.398174 0.128774 0)
(0.293942 0.153854 0)
(0.00117122 -0.29511 0)
(0.0170183 -0.298772 0)
(0.152268 -0.212869 0)
(0.282155 -0.144787 0)
(0.386206 -0.0987096 0)
(0.467858 -0.0685392 0)
(0.531328 -0.0489098 0)
(0.580545 -0.0359048 0)
(0.618935 -0.0270108 0)
(0.64914 -0.0207202 0)
(0.673099 -0.0161344 0)
(0.692239 -0.0127063 0)
(0.707617 -0.0100917 0)
(0.720028 -0.00806575 0)
(0.73008 -0.00647608 0)
(0.738239 -0.00521567 0)
(0.744868 -0.00420699 0)
(0.750254 -0.00339237 0)
(0.754619 -0.00272791 0)
(0.758139 -0.00217952 0)
(0.76095 -0.0017202 0)
(0.76316 -0.00132815 0)
(0.764846 -0.00098537 0)
(0.766066 -0.000676543 0)
(0.766859 -0.000388186 0)
(0.767244 -0.00010789 0)
(0.767226 0.000176357 0)
(0.766792 0.000476816 0)
(0.765912 0.000806668 0)
(0.764536 0.00118075 0)
(0.762595 0.00161639 0)
(0.759992 0.00213449 0)
(0.7566 0.00276085 0)
(0.752256 0.00352807 0)
(0.746747 0.0044782 0)
(0.739803 0.00566662 0)
(0.731071 0.00716807 0)
(0.720098 0.00908625 0)
(0.706287 0.0115696 0)
(0.688844 0.0148385 0)
(0.666702 0.0192327 0)
(0.638397 0.025298 0)
(0.6019 0.0339433 0)
(0.554383 0.0467248 0)
(0.492052 0.0663067 0)
(0.410377 0.0969979 0)
(0.304387 0.144913 0)
(0.169692 0.216779 0)
(0.0267389 0.307045 0)
(0.00521247 0.303121 0)
(-0.0328855 -0.250669 0)
(-0.0617099 -0.343991 0)
(-0.0122663 -0.30977 0)
(0.0688004 -0.249769 0)
(0.155045 -0.193289 0)
(0.235106 -0.147861 0)
(0.304705 -0.113444 0)
(0.36324 -0.0877951 0)
(0.411717 -0.0686237 0)
(0.451596 -0.0541429 0)
(0.484319 -0.0430642 0)
(0.511159 -0.0344801 0)
(0.533181 -0.0277525 0)
(0.551262 -0.0224277 0)
(0.566114 -0.0181769 0)
(0.578315 -0.0147577 0)
(0.58833 -0.0119873 0)
(0.596537 -0.00972552 0)
(0.603239 -0.00786293 0)
(0.608678 -0.0063127 0)
(0.613047 -0.00500482 0)
(0.616497 -0.00388179 0)
(0.619142 -0.00289543 0)
(0.621066 -0.00200425 0)
(0.622326 -0.00117134 0)
(0.622952 -0.000362481 0)
(0.622949 0.000455561 0)
(0.622301 0.00131669 0)
(0.620962 0.00225722 0)
(0.618862 0.00331771 0)
(0.615898 0.00454515 0)
(0.611931 0.00599552 0)
(0.606782 0.00773716 0)
(0.600217 0.00985511 0)
(0.591941 0.0124572 0)
(0.581583 0.0156826 0)
(0.568675 0.0197144 0)
(0.552627 0.0247984 0)
(0.532698 0.0312714 0)
(0.507958 0.0396051 0)
(0.477242 0.0504733 0)
(0.43912 0.0648506 0)
(0.391896 0.0841504 0)
(0.333735 0.110381 0)
(0.263112 0.146199 0)
(0.180062 0.194377 0)
(0.0885163 0.255452 0)
(1.86672e-06 0.32156 0)
(-0.0575134 0.360714 0)
(-0.0322316 0.263926 0)
(-0.0268114 -0.190775 0)
(-0.0659068 -0.332336 0)
(-0.0661855 -0.349431 0)
(-0.0309939 -0.315557 0)
(0.0235611 -0.266683 0)
(0.0844382 -0.218672 0)
(0.144038 -0.177088 0)
(0.198654 -0.14288 0)
(0.246887 -0.115331 0)
(0.288564 -0.0933029 0)
(0.324102 -0.0756938 0)
(0.354153 -0.0615761 0)
(0.379426 -0.05021 0)
(0.4006 -0.0410171 0)
(0.418288 -0.0335475 0)
(0.433025 -0.0274495 0)
(0.445268 -0.0224457 0)
(0.455402 -0.0183155 0)
(0.463748 -0.0148813 0)
(0.470572 -0.0119986 0)
(0.476086 -0.0095484 0)
(0.480462 -0.00743102 0)
(0.483832 -0.00556161 0)
(0.486292 -0.00386605 0)
(0.487908 -0.00227765 0)
(0.488716 -0.000734056 0)
(0.488722 0.000825563 0)
(0.487904 0.00246333 0)
(0.48621 0.00424555 0)
(0.483555 0.0062458 0)
(0.479817 0.0085485 0)
(0.474836 0.011253 0)
(0.468402 0.014479 0)
(0.460252 0.0183726 0)
(0.450058 0.0231153 0)
(0.43742 0.0289356 0)
(0.421849 0.0361244 0)
(0.40276 0.045057 0)
(0.37946 0.0562224 0)
(0.35115 0.0702615 0)
(0.316952 0.0880137 0)
(0.275974 0.11056 0)
(0.227495 0.139229 0)
(0.171323 0.175471 0)
(0.10851 0.220375 0)
(0.0426044 0.27328 0)
(-0.0184665 0.328437 0)
(-0.0605918 0.36853 0)
(-0.0656495 0.353913 0)
(-0.0274316 0.20434 0)
(-0.0179609 -0.148999 0)
(-0.0539474 -0.301215 0)
(-0.0761195 -0.351006 0)
(-0.0715434 -0.344002 0)
(-0.045576 -0.311008 0)
(-0.00737318 -0.269549 0)
(0.0359468 -0.228327 0)
(0.0797259 -0.191018 0)
(0.121239 -0.158755 0)
(0.159108 -0.131501 0)
(0.192801 -0.108755 0)
(0.222279 -0.0898822 0)
(0.247768 -0.0742626 0)
(0.269617 -0.0613414 0)
(0.28822 -0.0506442 0)
(0.303969 -0.0417723 0)
(0.317231 -0.0343934 0)
(0.328336 -0.0282308 0)
(0.337571 -0.0230534 0)
(0.345182 -0.0186675 0)
(0.351374 -0.0149092 0)
(0.356313 -0.0116385 0)
(0.36013 -0.00873357 0)
(0.362924 -0.00608652 0)
(0.364759 -0.0035989 0)
(0.365673 -0.00117779 0)
(0.365669 0.00126796 0)
(0.364723 0.00383154 0)
(0.362779 0.00661206 0)
(0.359748 0.00971874 0)
(0.355502 0.0132755 0)
(0.349876 0.0174262 0)
(0.342658 0.0223409 0)
(0.33359 0.0282233 0)
(0.322357 0.0353195 0)
(0.308591 0.0439299 0)
(0.291864 0.0544222 0)
(0.271699 0.0672474 0)
(0.247585 0.0829566 0)
(0.219019 0.102214 0)
(0.185582 0.125794 0)
(0.147087 0.154533 0)
(0.10383 0.189183 0)
(0.0569992 0.230045 0)
(0.00927866 0.276166 0)
(-0.0343983 0.32374 0)
(-0.0661401 0.363224 0)
(-0.0754864 0.37499 0)
(-0.0556006 0.32454 0)
(-0.0188451 0.16142 0)
(-0.0116009 -0.120223 0)
(-0.0414093 -0.266784 0)
(-0.0710556 -0.333958 0)
(-0.0839186 -0.347954 0)
(-0.0787717 -0.331594 0)
(-0.0603297 -0.300557 0)
(-0.0336805 -0.26436 0)
(-0.00298491 -0.228223 0)
(0.0287569 -0.194701 0)
(0.0595989 -0.164828 0)
(0.0884034 -0.138822 0)
(0.114593 -0.116502 0)
(0.137957 -0.097512 0)
(0.158506 -0.0814396 0)
(0.176381 -0.0678761 0)
(0.19179 -0.0564423 0)
(0.204964 -0.0467979 0)
(0.216137 -0.0386435 0)
(0.225529 -0.0317178 0)
(0.233338 -0.0257939 0)
(0.239737 -0.0206736 0)
(0.244869 -0.0161836 0)
(0.248849 -0.0121698 0)
(0.251766 -0.00849324 0)
(0.253676 -0.00502513 0)
(0.254613 -0.00164282 0)
(0.254578 0.00177477 0)
(0.253545 0.00535157 0)
(0.251459 0.0092189 0)
(0.248232 0.0135203 0)
(0.243746 0.0184166 0)
(0.237845 0.0240916 0)
(0.23034 0.0307581 0)
(0.221002 0.0386647 0)
(0.209568 0.0481028 0)
(0.195747 0.0594144 0)
(0.179225 0.0729985 0)
(0.159694 0.0893149 0)
(0.136888 0.10888 0)
(0.110647 0.132243 0)
(0.0810252 0.159935 0)
(0.0484527 0.192333 0)
(0.0139717 0.229407 0)
(-0.0204487 0.270243 0)
(-0.0515771 0.312192 0)
(-0.0747191 0.349516 0)
(-0.0839143 0.371464 0)
(-0.0733967 0.360156 0)
(-0.0437546 0.28977 0)
(-0.0124153 0.131208 0)
(-0.00768947 -0.099561 0)
(-0.0318002 -0.23476 0)
(-0.0623553 -0.309194 0)
(-0.0839464 -0.337351 0)
(-0.0923269 -0.335029 0)
(-0.0889152 -0.314894 0)
(-0.0766274 -0.285829 0)
(-0.0585173 -0.253528 0)
(-0.0372095 -0.221358 0)
(-0.0146957 -0.191139 0)
(0.00764072 -0.163728 0)
(0.0289104 -0.139411 0)
(0.0485933 -0.11815 0)
(0.0664287 -0.099743 0)
(0.0823302 -0.0839083 0)
(0.0963216 -0.0703381 0)
(0.108492 -0.0587267 0)
(0.118964 -0.0487846 0)
(0.127873 -0.0402456 0)
(0.135353 -0.0328679 0)
(0.14153 -0.0264336 0)
(0.146512 -0.0207461 0)
(0.150389 -0.0156268 0)
(0.15323 -0.0109112 0)
(0.15508 -0.00644458 0)
(0.155964 -0.0020781 0)
(0.155879 0.00233627 0)
(0.154801 0.00695009 0)
(0.152678 0.0119233 0)
(0.149433 0.0174292 0)
(0.144962 0.0236591 0)
(0.139137 0.030828 0)
(0.131802 0.0391789 0)
(0.122783 0.0489876 0)
(0.11189 0.0605659 0)
(0.0989314 0.0742633 0)
(0.0837354 0.0904634 0)
(0.0661804 0.109573 0)
(0.0462459 0.131994 0)
(0.0240853 0.158074 0)
(0.000130329 0.188 0)
(-0.0247706 0.221628 0)
(-0.0491847 0.258182 0)
(-0.070928 0.295779 0)
(-0.0869911 0.330716 0)
(-0.0937284 0.356536 0)
(-0.0874959 0.363007 0)
(-0.0662517 0.335543 0)
(-0.0342836 0.256221 0)
(-0.00837114 0.109073 0)
(-0.00537767 -0.0841423 0)
(-0.0250173 -0.206519 0)
(-0.0538778 -0.28208 0)
(-0.0791319 -0.318692 0)
(-0.0956141 -0.326934 0)
(-0.102742 -0.316474 0)
(-0.101706 -0.294923 0)
(-0.0943943 -0.267743 0)
(-0.0827822 -0.238579 0)
(-0.0685952 -0.209705 0)
(-0.0531912 -0.182437 0)
(-0.0375653 -0.157454 0)
(-0.022402 -0.135024 0)
(-0.00814105 -0.115168 0)
(0.00496015 -0.09776 0)
(0.0167739 -0.0825952 0)
(0.0272604 -0.069432 0)
(0.0364363 -0.0580174 0)
(0.0443514 -0.0481017 0)
(0.0510722 -0.0394466 0)
(0.0566696 -0.0318285 0)
(0.0612115 -0.0250393 0)
(0.0647565 -0.0188846 0)
(0.0673507 -0.0131821 0)
(0.0690245 -0.00775737 0)
(0.0697916 -0.00244047 0)
(0.069647 0.00293838 0)
(0.0685668 0.0085532 0)
(0.0665078 0.0145868 0)
(0.0634076 0.021235 0)
(0.0591855 0.0287114 0)
(0.0537454 0.0372503 0)
(0.0469792 0.0471104 0)
(0.0387745 0.0585754 0)
(0.0290253 0.0719527 0)
(0.0176492 0.0875677 0)
(0.00461274 0.10575 0)
(-0.0100324 0.126808 0)
(-0.026099 0.150985 0)
(-0.0431982 0.178381 0)
(-0.0606558 0.208832 0)
(-0.0774196 0.241719 0)
(-0.0919748 0.275684 0)
(-0.102312 0.308231 0)
(-0.106035 0.335223 0)
(-0.100744 0.35034 0)
(-0.0847664 0.344726 0)
(-0.0584547 0.307215 0)
(-0.0274167 0.225881 0)
(-0.00594188 0.092263 0)
(-0.0039861 -0.0721433 0)
(-0.0202673 -0.181933 0)
(-0.0466385 -0.255158 0)
(-0.0728247 -0.296047 0)
(-0.0937634 -0.311589 0)
(-0.107843 -0.30894 0)
(-0.11508 -0.2943 0)
(-0.116392 -0.272539 0)
(-0.113075 -0.247213 0)
(-0.106458 -0.220764 0)
(-0.0977102 -0.194776 0)
(-0.0877853 -0.170208 0)
(-0.0774106 -0.147576 0)
(-0.0671139 -0.127103 0)
(-0.0572585 -0.108819 0)
(-0.04808 -0.0926338 0)
(-0.0397188 -0.0783843 0)
(-0.0322477 -0.0658711 0)
(-0.0256932 -0.0548773 0)
(-0.0200529 -0.0451823 0)
(-0.0153077 -0.0365697 0)
(-0.0114312 -0.0288303 0)
(-0.00839706 -0.0217637 0)
(-0.00618311 -0.0151773 0)
(-0.00477541 -0.00888401 0)
(-0.00417037 -0.00269941 0)
(-0.00437624 0.00356185 0)
(-0.0054138 0.0100898 0)
(-0.00731625 0.0170828 0)
(-0.0101282 0.0247514 0)
(-0.0139033 0.0333211 0)
(-0.0187005 0.043034 0)
(-0.0245777 0.0541495 0)
(-0.0315827 0.0669415 0)
(-0.0397392 0.0816919 0)
(-0.0490286 0.098678 0)
(-0.059363 0.11815 0)
(-0.070552 0.140294 0)
(-0.0822588 0.165176 0)
(-0.09395 0.192657 0)
(-0.104841 0.222264 0)
(-0.113854 0.253013 0)
(-0.119602 0.283173 0)
(-0.120455 0.309972 0)
(-0.114741 0.329293 0)
(-0.101177 0.335439 0)
(-0.079501 0.321172 0)
(-0.0513799 0.278271 0)
(-0.0224934 0.198984 0)
(-0.00445658 0.0789959 0)
(-0.00310878 -0.0624353 0)
(-0.0168691 -0.160481 0)
(-0.0406932 -0.229532 0)
(-0.0664174 -0.271834 0)
(-0.0894897 -0.291996 0)
(-0.10788 -0.295235 0)
(-0.120897 -0.286458 0)
(-0.128742 -0.269814 0)
(-0.13213 -0.248559 0)
(-0.13197 -0.225101 0)
(-0.12918 -0.20113 0)
(-0.124581 -0.177765 0)
(-0.118859 -0.155701 0)
(-0.112555 -0.135322 0)
(-0.106082 -0.116794 0)
(-0.0997365 -0.100133 0)
(-0.0937287 -0.085262 0)
(-0.0881975 -0.0720404 0)
(-0.0832308 -0.0602938 0)
(-0.0788798 -0.0498296 0)
(-0.0751711 -0.0404479 0)
(-0.0721162 -0.0319478 0)
(-0.0697182 -0.024131 0)
(-0.0679779 -0.0168023 0)
(-0.0668969 -0.00976889 0)
(-0.0664806 -0.00283868 0)
(-0.0667398 0.00418252 0)
(-0.0676909 0.0114937 0)
(-0.0693559 0.0193014 0)
(-0.0717601 0.0278222 0)
(-0.0749295 0.0372837 0)
(-0.0788855 0.0479249 0)
(-0.0836377 0.059993 0)
(-0.0891736 0.0737378 0)
(-0.0954445 0.0894004 0)
(-0.102347 0.107195 0)
(-0.109701 0.12728 0)
(-0.117219 0.149715 0)
(-0.124477 0.1744 0)
(-0.13088 0.200989 0)
(-0.135641 0.228773 0)
(-0.137775 0.256532 0)
(-0.13614 0.282356 0)
(-0.129549 0.303458 0)
(-0.117005 0.316022 0)
(-0.0980872 0.315174 0)
(-0.0734348 0.29521 0)
(-0.0452996 0.250213 0)
(-0.018885 0.175214 0)
(-0.00350326 0.0681513 0)
(-0.00252331 -0.0543336 0)
(-0.0143574 -0.141629 0)
(-0.0358342 -0.205607 0)
(-0.0604271 -0.247432 0)
(-0.084199 -0.27016 0)
(-0.105044 -0.277574 0)
(-0.121894 -0.273493 0)
(-0.134473 -0.261354 0)
(-0.143038 -0.244022 0)
(-0.148133 -0.223741 0)
(-0.150409 -0.202185 0)
(-0.15052 -0.180542 0)
(-0.149058 -0.15961 0)
(-0.146528 -0.139885 0)
(-0.143343 -0.121641 0)
(-0.139826 -0.104988 0)
(-0.136225 -0.0899231 0)
(-0.132721 -0.0763682 0)
(-0.129446 -0.0641939 0)
(-0.126491 -0.0532408 0)
(-0.123921 -0.0433321 0)
(-0.121777 -0.034282 0)
(-0.120089 -0.0259009 0)
(-0.118876 -0.0179977 0)
(-0.118154 -0.0103805 0)
(-0.117936 -0.00285587 0)
(-0.118232 0.00477267 0)
(-0.119056 0.0127062 0)
(-0.120417 0.0211523 0)
(-0.122321 0.0303253 0)
(-0.124768 0.0404467 0)
(-0.127746 0.0517425 0)
(-0.13122 0.0644383 0)
(-0.135128 0.0787497 0)
(-0.139363 0.0948683 0)
(-0.143759 0.112939 0)
(-0.148072 0.133028 0)
(-0.151963 0.15508 0)
(-0.154973 0.178852 0)
(-0.156514 0.203844 0)
(-0.155868 0.22919 0)
(-0.152212 0.253552 0)
(-0.144689 0.274997 0)
(-0.132536 0.290892 0)
(-0.115309 0.297867 0)
(-0.0931918 0.291893 0)
(-0.0673315 0.268576 0)
(-0.0401351 0.223715 0)
(-0.0161499 0.154154 0)
(-0.00285401 0.059044 0)
(-0.00210972 -0.0474137 0)
(-0.0124349 -0.124925 0)
(-0.0318267 -0.183466 0)
(-0.0550017 -0.223606 0)
(-0.0786107 -0.247388 0)
(-0.100645 -0.257559 0)
(-0.119873 -0.257064 0)
(-0.135725 -0.248704 0)
(-0.14813 -0.234927 0)
(-0.157334 -0.217753 0)
(-0.163748 -0.19876 0)
(-0.167851 -0.17913 0)
(-0.170119 -0.159703 0)
(-0.17099 -0.141044 0)
(-0.170848 -0.123499 0)
(-0.170011 -0.107254 0)
(-0.168736 -0.0923691 0)
(-0.16723 -0.0788205 0)
(-0.165649 -0.0665237 0)
(-0.164113 -0.0553541 0)
(-0.162712 -0.0451614 0)
(-0.161511 -0.0357791 0)
(-0.160561 -0.0270314 0)
(-0.159894 -0.0187367 0)
(-0.159538 -0.0107094 0)
(-0.159511 -0.00276037 0)
(-0.159824 0.00530307 0)
(-0.160483 0.0136781 0)
(-0.161488 0.0225664 0)
(-0.162828 0.032174 0)
(-0.164479 0.0427089 0)
(-0.166399 0.0543772 0)
(-0.168519 0.0673761 0)
(-0.170738 0.081882 0)
(-0.172906 0.0980338 0)
(-0.174819 0.115909 0)
(-0.176199 0.135491 0)
(-0.17669 0.156625 0)
(-0.175842 0.178965 0)
(-0.173119 0.201903 0)
(-0.167916 0.224496 0)
(-0.159598 0.245383 0)
(-0.147584 0.262714 0)
(-0.131475 0.274111 0)
(-0.111242 0.276689 0)
(-0.0874582 0.267196 0)
(-0.0615108 0.242297 0)
(-0.0357306 0.199033 0)
(-0.0140034 0.135416 0)
(-0.00238555 0.051246 0)
(-0.0018025 -0.0414008 0)
(-0.0109157 -0.110012 0)
(-0.0284775 -0.163053 0)
(-0.0501479 -0.200759 0)
(-0.0730918 -0.224513 0)
(-0.095473 -0.236317 0)
(-0.116024 -0.238435 0)
(-0.134013 -0.233121 0)
(-0.149148 -0.222434 0)
(-0.161449 -0.208141 0)
(-0.171125 -0.191683 0)
(-0.178494 -0.174183 0)
(-0.183912 -0.156479 0)
(-0.187738 -0.139162 0)
(-0.190303 -0.122626 0)
(-0.191902 -0.107103 0)
(-0.192786 -0.0927064 0)
(-0.193163 -0.0794576 0)
(-0.193203 -0.067312 0)
(-0.193041 -0.0561785 0)
(-0.192783 -0.0459338 0)
(-0.19251 -0.0364333 0)
(-0.192286 -0.0275181 0)
(-0.192157 -0.01902 0)
(-0.192154 -0.0107641 0)
(-0.1923 -0.0025704 0)
(-0.192605 0.00574523 0)
(-0.19307 0.0143708 0)
(-0.193685 0.0234971 0)
(-0.194423 0.0333161 0)
(-0.195241 0.0440175 0)
(-0.196075 0.055783 0)
(-0.196831 0.068778 0)
(-0.197379 0.0831382 0)
(-0.197546 0.0989522 0)
(-0.197106 0.116237 0)
(-0.195777 0.134906 0)
(-0.193209 0.154731 0)
(-0.188995 0.175294 0)
(-0.182678 0.195933 0)
(-0.173781 0.215686 0)
(-0.161856 0.23324 0)
(-0.146569 0.246896 0)
(-0.127807 0.254569 0)
(-0.105831 0.253848 0)
(-0.0814418 0.24215 0)
(-0.056097 0.216965 0)
(-0.0319428 0.176219 0)
(-0.0122678 0.118676 0)
(-0.00203056 0.0444764 0)
(-0.00156496 -0.0361081 0)
(-0.00968367 -0.0966121 0)
(-0.0256435 -0.144253 0)
(-0.0458271 -0.179087 0)
(-0.0678313 -0.202055 0)
(-0.0900135 -0.214625 0)
(-0.111143 -0.218537 0)
(-0.130414 -0.215595 0)
(-0.147395 -0.207506 0)
(-0.161942 -0.195789 0)
(-0.174105 -0.181727 0)
(-0.184063 -0.166353 0)
(-0.192061 -0.150467 0)
(-0.198372 -0.134659 0)
(-0.203271 -0.11934 0)
(-0.207014 -0.104775 0)
(-0.209832 -0.0911113 0)
(-0.211924 -0.0784058 0)
(-0.213459 -0.0666475 0)
(-0.214579 -0.0557755 0)
(-0.215396 -0.0456925 0)
(-0.216001 -0.036276 0)
(-0.216464 -0.0273859 0)
(-0.216839 -0.0188699 0)
(-0.217162 -0.0105668 0)
(-0.217455 -0.00230963 0)
(-0.217729 0.00607361 0)
(-0.217978 0.0147577 0)
(-0.218182 0.0239186 0)
(-0.218305 0.0337306 0)
(-0.21829 0.0443618 0)
(-0.218054 0.0559676 0)
(-0.217487 0.0686808 0)
(-0.216445 0.0825984 0)
(-0.214744 0.0977639 0)
(-0.212155 0.114144 0)
(-0.208407 0.131599 0)
(-0.203183 0.149851 0)
(-0.196131 0.168443 0)
(-0.186887 0.1867 0)
(-0.175103 0.203687 0)
(-0.160503 0.218185 0)
(-0.142952 0.228678 0)
(-0.122552 0.233381 0)
(-0.0997542 0.230315 0)
(-0.0754714 0.217445 0)
(-0.0511329 0.192899 0)
(-0.0286613 0.155223 0)
(-0.0108321 0.103668 0)
(-0.00175132 0.0385407 0)
(-0.00137579 -0.0314023 0)
(-0.00866531 -0.0845002 0)
(-0.0232237 -0.126932 0)
(-0.0419937 -0.158656 0)
(-0.0629286 -0.180317 0)
(-0.0845744 -0.192999 0)
(-0.105774 -0.198041 0)
(-0.125702 -0.196878 0)
(-0.143847 -0.190916 0)
(-0.159951 -0.181441 0)
(-0.173947 -0.169571 0)
(-0.185896 -0.156236 0)
(-0.195947 -0.142176 0)
(-0.204294 -0.127958 0)
(-0.211149 -0.113988 0)
(-0.216727 -0.100546 0)
(-0.221228 -0.0878002 0)
(-0.224836 -0.0758327 0)
(-0.22771 -0.064659 0)
(-0.229988 -0.0542436 0)
(-0.231784 -0.0445128 0)
(-0.233192 -0.0353656 0)
(-0.234284 -0.0266809 0)
(-0.235116 -0.0183236 0)
(-0.235727 -0.0101487 0)
(-0.236139 -0.00200393 0)
(-0.236358 0.00626731 0)
(-0.236377 0.014824 0)
(-0.236167 0.0238246 0)
(-0.235684 0.0334237 0)
(-0.23486 0.0437663 0)
(-0.233605 0.0549812 0)
(-0.231797 0.0671704 0)
(-0.229289 0.0803964 0)
(-0.225897 0.0946648 0)
(-0.221404 0.109904 0)
(-0.215562 0.125938 0)
(-0.208098 0.142461 0)
(-0.198728 0.159006 0)
(-0.187177 0.174914 0)
(-0.17322 0.189311 0)
(-0.156724 0.201098 0)
(-0.137712 0.208953 0)
(-0.116439 0.211374 0)
(-0.0934676 0.206756 0)
(-0.0697483 0.193511 0)
(-0.0466293 0.170244 0)
(-0.0258065 0.135942 0)
(-0.00962618 0.0901669 0)
(-0.00152591 0.0332962 0)
(-0.00122216 -0.0271829 0)
(-0.00781342 -0.0734938 0)
(-0.0211478 -0.11095 0)
(-0.0386075 -0.139458 0)
(-0.0584375 -0.159464 0)
(-0.0793551 -0.171772 0)
(-0.100291 -0.177413 0)
(-0.120435 -0.177528 0)
(-0.139235 -0.173263 0)
(-0.15636 -0.165696 0)
(-0.171653 -0.155789 0)
(-0.185088 -0.144358 0)
(-0.19673 -0.132074 0)
(-0.206701 -0.119461 0)
(-0.215157 -0.106911 0)
(-0.222266 -0.0946996 0)
(-0.228198 -0.0830052 0)
(-0.233111 -0.0719263 0)
(-0.237153 -0.0614973 0)
(-0.24045 -0.0517031 0)
(-0.243114 -0.0424903 0)
(-0.245234 -0.0337777 0)
(-0.246884 -0.0254627 0)
(-0.248118 -0.0174278 0)
(-0.248975 -0.009545 0)
(-0.249476 -0.00167858 0)
(-0.249624 0.00631134 0)
(-0.249406 0.0145662 0)
(-0.248791 0.0232258 0)
(-0.247728 0.0324237 0)
(-0.246144 0.0422825 0)
(-0.243943 0.0529052 0)
(-0.241004 0.0643666 0)
(-0.23718 0.0766998 0)
(-0.232299 0.0898813 0)
(-0.226163 0.103812 0)
(-0.218557 0.118297 0)
(-0.209256 0.133021 0)
(-0.198044 0.147528 0)
(-0.184735 0.161199 0)
(-0.169206 0.17324 0)
(-0.151443 0.182682 0)
(-0.131587 0.188396 0)
(-0.109992 0.189136 0)
(-0.0872839 0.183611 0)
(-0.0644001 0.170591 0)
(-0.0425845 0.149037 0)
(-0.0233224 0.118246 0)
(-0.00860502 0.0779801 0)
(-0.00134103 0.0286325 0)
(-0.001096 -0.0233706 0)
(-0.00709689 -0.0634376 0)
(-0.0193667 -0.0961641 0)
(-0.0356362 -0.121435 0)
(-0.0543871 -0.139561 0)
(-0.0744876 -0.151138 0)
(-0.0949581 -0.156963 0)
(-0.11502 -0.157939 0)
(-0.134108 -0.154996 0)
(-0.151848 -0.149027 0)
(-0.168019 -0.140847 0)
(-0.182526 -0.131163 0)
(-0.195367 -0.120568 0)
(-0.206604 -0.109535 0)
(-0.216339 -0.0984268 0)
(-0.224698 -0.0875085 0)
(-0.231817 -0.0769576 0)
(-0.23783 -0.0668797 0)
(-0.242866 -0.0573219 0)
(-0.247039 -0.0482843 0)
(-0.250452 -0.0397306 0)
(-0.25319 -0.0315966 0)
(-0.255322 -0.0237976 0)
(-0.2569 -0.0162331 0)
(-0.257961 -0.00879204 0)
(-0.258522 -0.00135609 0)
(-0.258585 0.00619724 0)
(-0.258134 0.0139912 0)
(-0.257134 0.0221465 0)
(-0.255531 0.0307763 0)
(-0.253249 0.0399813 0)
(-0.250195 0.0498419 0)
(-0.246249 0.0604091 0)
(-0.241274 0.0716932 0)
(-0.235112 0.0836498 0)
(-0.227592 0.0961642 0)
(-0.218535 0.109034 0)
(-0.207767 0.121952 0)
(-0.195134 0.134489 0)
(-0.180528 0.14608 0)
(-0.163916 0.156024 0)
(-0.145372 0.163481 0)
(-0.125125 0.167503 0)
(-0.103592 0.167069 0)
(-0.0814193 0.161151 0)
(-0.0595085 0.148797 0)
(-0.0389924 0.129239 0)
(-0.021169 0.101991 0)
(-0.00773851 0.066937 0)
(-0.0011882 0.0244597 0)
(-0.000992017 -0.0199 0)
(-0.00649454 -0.0541961 0)
(-0.0178458 -0.0824363 0)
(-0.0330539 -0.104501 0)
(-0.0507928 -0.120605 0)
(-0.0700594 -0.131193 0)
(-0.0899585 -0.136881 0)
(-0.109752 -0.138379 0)
(-0.128878 -0.136438 0)
(-0.146937 -0.131789 0)
(-0.163666 -0.125113 0)
(-0.178918 -0.117013 0)
(-0.192639 -0.108 0)
(-0.204838 -0.098493 0)
(-0.215573 -0.0888199 0)
(-0.224931 -0.0792241 0)
(-0.233015 -0.0698752 0)
(-0.239935 -0.0608793 0)
(-0.245798 -0.0522901 0)
(-0.250707 -0.0441184 0)
(-0.254753 -0.0363411 0)
(-0.258013 -0.0289092 0)
(-0.260551 -0.0217534 0)
(-0.262416 -0.0147898 0)
(-0.263639 -0.00792405 0)
(-0.264237 -0.00105468 0)
(-0.264208 0.00592323 0)
(-0.263534 0.0131149 0)
(-0.262178 0.0206223 0)
(-0.260084 0.0285393 0)
(-0.25718 0.0369468 0)
(-0.253372 0.0459053 0)
(-0.248552 0.0554469 0)
(-0.242592 0.0655649 0)
(-0.235354 0.0762021 0)
(-0.226696 0.087238 0)
(-0.216473 0.0984744 0)
(-0.20456 0.109623 0)
(-0.190862 0.120293 0)
(-0.175336 0.129984 0)
(-0.15802 0.138087 0)
(-0.139059 0.143893 0)
(-0.118738 0.146615 0)
(-0.0975103 0.145427 0)
(-0.0760226 0.139516 0)
(-0.0551252 0.128151 0)
(-0.0358445 0.110764 0)
(-0.0193169 0.0870205 0)
(-0.00700577 0.0568831 0)
(-0.00106175 0.0207017 0)
(-0.000906587 -0.0167154 0)
(-0.00599148 -0.0456483 0)
(-0.0165594 -0.0696301 0)
(-0.0308397 -0.0885474 0)
(-0.0476611 -0.102548 0)
(-0.0661279 -0.111965 0)
(-0.085421 -0.117269 0)
(-0.104845 -0.119019 0)
(-0.123849 -0.117813 0)
(-0.142022 -0.114242 0)
(-0.159075 -0.108867 0)
(-0.174824 -0.102192 0)
(-0.18917 -0.0946502 0)
(-0.202084 -0.0866027 0)
(-0.213584 -0.0783364 0)
(-0.223722 -0.070069 0)
(-0.232574 -0.0619559 0)
(-0.240225 -0.054098 0)
(-0.246764 -0.0465505 0)
(-0.252278 -0.0393309 0)
(-0.256846 -0.0324262 0)
(-0.260537 -0.0257994 0)
(-0.26341 -0.0193956 0)
(-0.265507 -0.0131458 0)
(-0.266857 -0.0069714 0)
(-0.267472 -0.000787536 0)
(-0.267349 0.00549382 0)
(-0.266468 0.0119606 0)
(-0.264791 0.0186968 0)
(-0.262265 0.0257789 0)
(-0.258817 0.0332701 0)
(-0.254362 0.0412144 0)
(-0.248799 0.0496294 0)
(-0.242015 0.0584974 0)
(-0.233894 0.0677555 0)
(-0.224318 0.0772852 0)
(-0.213181 0.0869017 0)
(-0.200398 0.0963439 0)
(-0.185925 0.105267 0)
(-0.169774 0.11324 0)
(-0.152038 0.119747 0)
(-0.132914 0.124199 0)
(-0.112725 0.125953 0)
(-0.0919409 0.12435 0)
(-0.0711941 0.118754 0)
(-0.0512808 0.108608 0)
(-0.0331302 0.0934917 0)
(-0.0177431 0.0731792 0)
(-0.0063916 0.0476762 0)
(-0.000957675 0.0172923 0)
(-0.000837126 -0.0137679 0)
(-0.00557683 -0.0376833 0)
(-0.0154883 -0.0576127 0)
(-0.0289762 -0.0734544 0)
(-0.0449923 -0.0853099 0)
(-0.0627294 -0.0934265 0)
(-0.0814338 -0.0981628 0)
(-0.10045 -0.0999512 0)
(-0.119244 -0.0992609 0)
(-0.137401 -0.0965647 0)
(-0.154615 -0.0923138 0)
(-0.170675 -0.0869194 0)
(-0.185452 -0.0807411 0)
(-0.198883 -0.074081 0)
(-0.210955 -0.067183 0)
(-0.221691 -0.060235 0)
(-0.231141 -0.0533738 0)
(-0.239369 -0.0466908 0)
(-0.246446 -0.0402387 0)
(-0.252445 -0.034038 0)
(-0.257434 -0.0280826 0)
(-0.261474 -0.0223458 0)
(-0.264615 -0.0167846 0)
(-0.266896 -0.0113437 0)
(-0.26834 -0.00595951 0)
(-0.268959 -0.000562509 0)
(-0.268746 0.00491921 0)
(-0.267679 0.0105572 0)
(-0.265723 0.0164192 0)
(-0.262824 0.0225656 0)
(-0.258916 0.0290447 0)
(-0.253917 0.0358874 0)
(-0.247739 0.0431009 0)
(-0.240283 0.0506616 0)
(-0.231453 0.0585068 0)
(-0.221156 0.0665268 0)
(-0.209317 0.0745567 0)
(-0.19589 0.0823692 0)
(-0.180871 0.0896704 0)
(-0.164317 0.0960983 0)
(-0.146364 0.101227 0)
(-0.127243 0.104579 0)
(-0.107302 0.10564 0)
(-0.0870177 0.103893 0)
(-0.0669991 0.0988449 0)
(-0.0479908 0.090077 0)
(-0.0308378 0.0772824 0)
(-0.0164291 0.0603084 0)
(-0.00588444 0.0391838 0)
(-0.000873046 0.0141725 0)
(-0.000781732 -0.0110135 0)
(-0.0052424 -0.0301988 0)
(-0.0146174 -0.0462546 0)
(-0.0274481 -0.0590949 0)
(-0.0427829 -0.0687887 0)
(-0.0598851 -0.0755168 0)
(-0.0780554 -0.0795474 0)
(-0.0966737 -0.0812088 0)
(-0.115224 -0.0808612 0)
(-0.133291 -0.0788719 0)
(-0.15056 -0.0755948 0)
(-0.166802 -0.0713559 0)
(-0.181865 -0.0664432 0)
(-0.19566 -0.0611012 0)
(-0.208148 -0.0555295 0)
(-0.21933 -0.0498837 0)
(-0.229235 -0.044279 0)
(-0.237906 -0.0387939 0)
(-0.245401 -0.0334754 0)
(-0.251779 -0.028344 0)
(-0.257099 -0.0233982 0)
(-0.261411 -0.0186192 0)
(-0.264762 -0.0139744 0)
(-0.267184 -0.00942091 0)
(-0.268697 -0.00490852 0)
(-0.26931 -0.000382386 0)
(-0.269015 0.00421441 0)
(-0.267789 0.00893822 0)
(-0.265597 0.013842 0)
(-0.262389 0.0189719 0)
(-0.258101 0.0243639 0)
(-0.252661 0.0300385 0)
(-0.245989 0.0359965 0)
(-0.238 0.0422126 0)
(-0.228615 0.0486295 0)
(-0.217766 0.0551513 0)
(-0.205404 0.0616378 0)
(-0.191513 0.0678998 0)
(-0.176124 0.0736959 0)
(-0.159326 0.0787334 0)
(-0.141288 0.0826724 0)
(-0.122266 0.085136 0)
(-0.102623 0.0857256 0)
(-0.0828303 0.084043 0)
(-0.063477 0.0797175 0)
(-0.0452602 0.0724374 0)
(-0.0289544 0.0619825 0)
(-0.0153592 0.0482513 0)
(-0.00547515 0.0312814 0)
(-0.000805618 0.011289 0)
(-0.000738979 -0.0084125 0)
(-0.00498191 -0.0230989 0)
(-0.0139348 -0.03543 0)
(-0.0262425 -0.0453376 0)
(-0.041027 -0.0528675 0)
(-0.0576061 -0.0581479 0)
(-0.0753235 -0.0613728 0)
(-0.0935886 -0.0627825 0)
(-0.111901 -0.062643 0)
(-0.12985 -0.0612279 0)
(-0.147114 -0.058803 0)
(-0.163452 -0.0556153 0)
(-0.178696 -0.0518845 0)
(-0.192738 -0.0477987 0)
(-0.20552 -0.043513 0)
(-0.217025 -0.0391493 0)
(-0.227262 -0.0347988 0)
(-0.236264 -0.0305249 0)
(-0.244072 -0.0263664 0)
(-0.250736 -0.0223415 0)
(-0.256305 -0.0184512 0)
(-0.260824 -0.0146828 0)
(-0.264332 -0.0110126 0)
(-0.266859 -0.00740868 0)
(-0.26842 -0.00383342 0)
(-0.269023 -0.000245396 0)
(-0.268657 0.00339833 0)
(-0.267301 0.00714012 0)
(-0.264919 0.0110194 0)
(-0.261465 0.0150702 0)
(-0.256878 0.0193178 0)
(-0.251094 0.0237755 0)
(-0.244039 0.0284405 0)
(-0.235643 0.0332896 0)
(-0.225841 0.0382744 0)
(-0.214583 0.0433169 0)
(-0.201844 0.0483051 0)
(-0.18763 0.0530901 0)
(-0.171999 0.0574842 0)
(-0.155066 0.0612625 0)
(-0.137021 0.0641663 0)
(-0.118139 0.0659118 0)
(-0.0987881 0.0662019 0)
(-0.0794362 0.0647432 0)
(-0.0606497 0.0612658 0)
(-0.0430871 0.0555463 0)
(-0.0274671 0.0474307 0)
(-0.0145202 0.0368537 0)
(-0.00515642 0.0238518 0)
(-0.000753654 0.00859277 0)
(-0.000707799 -0.00592773 0)
(-0.00479059 -0.0162928 0)
(-0.013431 -0.0250164 0)
(-0.0253485 -0.0320492 0)
(-0.0397179 -0.0374201 0)
(-0.0558968 -0.0412145 0)
(-0.0732608 -0.0435636 0)
(-0.091242 -0.044631 0)
(-0.109352 -0.0445996 0)
(-0.127186 -0.0436584 0)
(-0.144419 -0.0419923 0)
(-0.160801 -0.0397739 0)
(-0.176154 -0.0371579 0)
(-0.190356 -0.0342775 0)
(-0.203336 -0.0312431 0)
(-0.215061 -0.0281421 0)
(-0.225531 -0.0250406 0)
(-0.234765 -0.0219849 0)
(-0.242795 -0.0190039 0)
(-0.249663 -0.0161118 0)
(-0.25541 -0.0133106 0)
(-0.260077 -0.010592 0)
(-0.263697 -0.00794015 0)
(-0.266297 -0.00533309 0)
(-0.26789 -0.00274463 0)
(-0.268481 -0.000145943 0)
(-0.26806 0.00249288 0)
(-0.266605 0.00520128 0)
(-0.264081 0.00800647 0)
(-0.260443 0.0109316 0)
(-0.255636 0.0139933 0)
(-0.249597 0.0171996 0)
(-0.242265 0.0205468 0)
(-0.233575 0.0240162 0)
(-0.223477 0.0275715 0)
(-0.211933 0.0311551 0)
(-0.198934 0.0346857 0)
(-0.184507 0.0380559 0)
(-0.168726 0.0411323 0)
(-0.151726 0.0437556 0)
(-0.133712 0.0457443 0)
(-0.114968 0.0469009 0)
(-0.0958666 0.0470201 0)
(-0.07687 0.0459008 0)
(-0.058527 0.0433599 0)
(-0.0414659 0.0392475 0)
(-0.0263639 0.0334623 0)
(-0.0139011 0.0259643 0)
(-0.00492246 0.0167833 0)
(-0.000715821 0.00603863 0)
(-0.000687426 -0.00352446 0)
(-0.00466495 -0.00969363 0)
(-0.013099 -0.0148939 0)
(-0.0247574 -0.0190956 0)
(-0.0388493 -0.0223145 0)
(-0.054758 -0.0245995 0)
(-0.0718804 -0.0260263 0)
(-0.0896637 -0.0266903 0)
(-0.107629 -0.0266983 0)
(-0.125374 -0.0261611 0)
(-0.142573 -0.0251876 0)
(-0.158972 -0.02388 0)
(-0.174384 -0.0223301 0)
(-0.188681 -0.0206173 0)
(-0.201781 -0.0188077 0)
(-0.213645 -0.0169539 0)
(-0.224261 -0.0150957 0)
(-0.233642 -0.0132615 0)
(-0.241814 -0.0114689 0)
(-0.248812 -0.00972711 0)
(-0.254674 -0.00803759 0)
(-0.259436 -0.00639592 0)
(-0.263128 -0.00479289 0)
(-0.265773 -0.00321565 0)
(-0.267386 -0.00164883 0)
(-0.267968 -7.54358e-05 0)
(-0.267509 0.00152218 0)
(-0.265987 0.00316131 0)
(-0.263368 0.00485791 0)
(-0.259608 0.00662536 0)
(-0.254655 0.00847317 0)
(-0.248451 0.0104055 0)
(-0.240937 0.0124193 0)
(-0.232058 0.0145028 0)
(-0.221769 0.0166333 0)
(-0.210044 0.0187756 0)
(-0.196885 0.0208804 0)
(-0.182329 0.022883 0)
(-0.166464 0.0247036 0)
(-0.149435 0.0262472 0)
(-0.131457 0.0274064 0)
(-0.11282 0.0280647 0)
(-0.0938996 0.0281016 0)
(-0.0751514 0.0274 0)
(-0.0571121 0.0258536 0)
(-0.0403899 0.0233763 0)
(-0.0256345 0.0199107 0)
(-0.0134933 0.0154353 0)
(-0.00476893 0.00996929 0)
(-0.000691138 0.00358396 0)
(-0.000677364 -0.00116947 0)
(-0.00460271 -0.00321755 0)
(-0.0129342 -0.00494532 0)
(-0.0244634 -0.00634283 0)
(-0.0384163 -0.0074151 0)
(-0.0541889 -0.00817807 0)
(-0.0711888 -0.00865653 0)