/*--------------------------------*- C++ -*----------------------------------*\
  =========                 |
  \\      /  F ield         | OpenFOAM: The Open Source CFD Toolbox
   \\    /   O peration     | Website:  https://openfoam.org
    \\  /    A nd           | Version:  7
     \\/     M anipulation  |
\*---------------------------------------------------------------------------*/
FoamFile
{
    version     2.0;
    format      ascii;
    class       surfaceScalarField;
    location    "0.0034";
    object      phi;
}
// * * * * * * * * * * * * * * * * * * * * * * * * * * * * * * * * * * * * * //

dimensions      [0 3 -1 0 0 0 0];

internalField   nonuniform List<scalar> 
4900
(
-5.56597e-06
5.56597e-06
-1.01495e-05
4.58351e-06
-1.28799e-05
2.73039e-06
-1.45161e-05
1.63618e-06
-1.55177e-05
1.00167e-06
-1.61475e-05
6.29777e-07
-1.65577e-05
4.10152e-07
-1.68351e-05
2.77458e-07
-1.70298e-05
1.94646e-07
-1.7171e-05
1.41218e-07
-1.72766e-05
1.05638e-07
-1.73578e-05
8.11884e-08
-1.74217e-05
6.38409e-08
-1.74728e-05
5.11221e-08
-1.75143e-05
4.14851e-08
-1.75482e-05
3.39453e-08
-1.75761e-05
2.78643e-08
-1.75989e-05
2.28186e-08
-1.76174e-05
1.85199e-08
-1.76322e-05
1.47657e-08
-1.76436e-05
1.14091e-08
-1.76519e-05
8.33956e-09
-1.76574e-05
5.47024e-09
-1.76601e-05
2.72965e-09
-1.76602e-05
5.80817e-11
-1.76576e-05
-2.60488e-09
-1.76523e-05
-5.31009e-09
-1.76441e-05
-8.11702e-09
-1.76331e-05
-1.10885e-08
-1.76188e-05
-1.42981e-08
-1.76009e-05
-1.78362e-08
-1.75791e-05
-2.18182e-08
-1.75527e-05
-2.63974e-08
-1.75209e-05
-3.17855e-08
-1.74826e-05
-3.82845e-08
-1.74363e-05
-4.63387e-08
-1.73797e-05
-5.66195e-08
-1.73095e-05
-7.01638e-08
-1.72209e-05
-8.86022e-08
-1.71064e-05
-1.14539e-07
-1.69542e-05
-1.52203e-07
-1.67456e-05
-2.08588e-07
-1.645e-05
-2.95547e-07
-1.60163e-05
-4.33716e-07
-1.5357e-05
-6.59322e-07
-1.43234e-05
-1.03357e-06
-1.2668e-05
-1.6554e-06
-9.96262e-06
-2.70542e-06
-5.46901e-06
-4.49361e-06
-5.46901e-06
1.42403e-08
5.55173e-06
-2.00386e-06
6.60162e-06
-4.5581e-06
5.28463e-06
-6.74517e-06
3.82325e-06
-8.41476e-06
2.67127e-06
-9.63799e-06
1.853e-06
-1.05238e-05
1.29593e-06
-1.11672e-05
9.2086e-07
-1.164e-05
6.67436e-07
-1.19932e-05
4.94443e-07
-1.22621e-05
3.74589e-07
-1.24709e-05
2.89956e-07
-1.26359e-05
2.28814e-07
-1.27682e-05
1.8348e-07
-1.28757e-05
1.48917e-07
-1.29635e-05
1.218e-07
-1.30356e-05
9.99143e-08
-1.30945e-05
8.1762e-08
-1.31423e-05
6.63106e-08
-1.31804e-05
5.28293e-08
-1.32097e-05
4.07857e-08
-1.32312e-05
2.97785e-08
-1.32452e-05
1.94931e-08
-1.32522e-05
9.67155e-09
-1.32522e-05
8.59086e-11
-1.32453e-05
-9.45672e-09
-1.32315e-05
-1.91687e-08
-1.32103e-05
-2.92536e-08
-1.31815e-05
-3.99433e-08
-1.31443e-05
-5.15084e-08
-1.30978e-05
-6.42818e-08
-1.3041e-05
-7.86892e-08
-1.29721e-05
-9.52964e-08
-1.2889e-05
-1.14879e-07
-1.27887e-05
-1.3853e-07
-1.26672e-05
-1.67829e-07
-1.25187e-05
-2.05097e-07
-1.23351e-05
-2.53795e-07
-1.21046e-05
-3.19122e-07
-1.18102e-05
-4.08909e-07
-1.14275e-05
-5.34956e-07
-1.09211e-05
-7.14972e-07
-1.02413e-05
-9.75367e-07
-9.31997e-06
-1.35502e-06
-8.07018e-06
-1.9091e-06
-6.3969e-06
-2.70685e-06
-4.24589e-06
-3.8064e-06
-1.77503e-06
-5.17628e-06
1.24046e-07
-6.39268e-06
-5.34496e-06
1.09671e-06
4.45503e-06
7.83629e-07
6.9147e-06
-4.86561e-07
6.55482e-06
-2.03701e-06
5.37369e-06
-3.49792e-06
4.13217e-06
-4.73211e-06
3.0872e-06
-5.72077e-06
2.28459e-06
-6.49348e-06
1.69358e-06
-7.09264e-06
1.26659e-06
-7.55824e-06
9.60045e-07
-7.92303e-06
7.39371e-07
-8.21202e-06
5.78951e-07
-8.4437e-06
4.60493e-07
-8.63145e-06
3.71232e-07
-8.78491e-06
3.02379e-07
-8.91103e-06
2.47913e-07
-9.01482e-06
2.03706e-07
-9.09995e-06
1.66899e-07
-9.16913e-06
1.35487e-07
-9.22433e-06
1.0803e-07
-9.26702e-06
8.34715e-08
-9.29825e-06
6.10069e-08
-9.31876e-06
4.00033e-08
-9.32902e-06
1.99392e-08
-9.3293e-06
3.60482e-10
-9.31961e-06
-1.91412e-08
-9.2998e-06
-3.89788e-08
-9.26948e-06
-5.95726e-08
-9.22804e-06
-8.13909e-08
-9.17456e-06
-1.04981e-07
-9.10784e-06
-1.3101e-07
-9.02619e-06
-1.60332e-07
-8.92742e-06
-1.94066e-07
-8.80857e-06
-2.3373e-07
-8.66568e-06
-2.81427e-07
-8.49338e-06
-3.40126e-07
-8.2844e-06
-4.14076e-07
-8.0288e-06
-5.09388e-07
-7.71307e-06
-6.34856e-07
-7.31895e-06
-8.03025e-07
-6.8224e-06
-1.03151e-06
-6.19295e-06
-1.34442e-06
-5.395e-06
-1.77332e-06
-4.39341e-06
-2.35661e-06
-3.16872e-06
-3.13379e-06
-1.75034e-06
-4.12523e-06
-2.7921e-07
-5.27754e-06
8.88892e-07
-6.34438e-06
1.11486e-06
-6.61865e-06
-4.23011e-06
9.90523e-07
3.46451e-06
1.53232e-06
6.37289e-06
1.27564e-06
6.81151e-06
5.23477e-07
6.12586e-06
-4.19996e-07
5.07565e-06
-1.36183e-06
4.02903e-06
-2.20785e-06
3.13062e-06
-2.9272e-06
2.41292e-06
-3.52175e-06
1.86115e-06
-4.00693e-06
1.44522e-06
-4.40154e-06
1.13398e-06
-4.72319e-06
9.00598e-07
-4.98663e-06
7.23938e-07
-5.20359e-06
5.88186e-07
-5.38307e-06
4.81858e-07
-5.53191e-06
3.96753e-07
-5.65526e-06
3.27058e-07
-5.757e-06
2.68639e-07
-5.84004e-06
2.18531e-07
-5.90658e-06
1.7457e-07
-5.95825e-06
1.35139e-07
-5.99624e-06
9.89999e-08
-6.02141e-06
6.51665e-08
-6.03429e-06
3.28221e-08
-6.03519e-06
1.25573e-09
-6.02414e-06
-3.01853e-08
-6.00098e-06
-6.21424e-08
-5.96527e-06
-9.52802e-08
-5.91633e-06
-1.30332e-07
-5.85316e-06
-1.68148e-07
-5.77441e-06
-2.09762e-07
-5.67827e-06
-2.56474e-07
-5.56236e-06
-3.09973e-07
-5.42358e-06
-3.72507e-07
-5.25788e-06
-4.47128e-07
-5.05997e-06
-5.38037e-07
-4.82299e-06
-6.51062e-07
-4.53809e-06
-7.94282e-07
-4.19415e-06
-9.78801e-07
-3.77761e-06
-1.21957e-06
-3.27307e-06
-1.53605e-06
-2.66529e-06
-1.95219e-06
-1.94398e-06
-2.49463e-06
-1.11353e-06
-3.18706e-06
-2.10554e-07
-4.03676e-06
6.69604e-07
-5.00539e-06
1.34365e-06
-5.95158e-06
1.532e-06
-6.53273e-06
9.64442e-07
-6.05109e-06
-3.26567e-06
7.62983e-07
2.70152e-06
1.56587e-06
5.57001e-06
1.89098e-06
6.48639e-06
1.75598e-06
6.26086e-06
1.32412e-06
5.5075e-06
7.53572e-07
4.59958e-06
1.54051e-07
3.73014e-06
-4.12742e-07
2.97971e-06
-9.19114e-07
2.36752e-06
-1.35753e-06
1.88364e-06
-1.73077e-06
1.50723e-06
-2.04596e-06
1.21579e-06
-2.31129e-06
9.89266e-07
-2.53447e-06
8.11367e-07
-2.72215e-06
6.69534e-07
-2.87978e-06
5.54384e-07
-3.01173e-06
4.59011e-07
-3.12145e-06
3.78355e-07
-3.21161e-06
3.08692e-07
-3.28429e-06
2.47247e-07
-3.34106e-06
1.91912e-07
-3.3831e-06
1.41045e-07
-3.41127e-06
9.33289e-08
-3.4261e-06
4.76593e-08
-3.42792e-06
3.07117e-09
-3.41678e-06
-4.13265e-08
-3.39252e-06
-8.64051e-08
-3.35473e-06
-1.33068e-07
-3.30276e-06
-1.82303e-07
-3.23566e-06
-2.35249e-07
-3.15215e-06
-2.9327e-07
-3.05056e-06
-3.58062e-07
-2.92874e-06
-4.31791e-07
-2.78397e-06
-5.1728e-07
-2.61282e-06
-6.18277e-07
-2.41106e-06
-7.39796e-07
-2.17357e-06
-8.88559e-07
-1.89432e-06
-1.07352e-06
-1.5667e-06
-1.30642e-06
-1.18425e-06
-1.60202e-06
-7.42333e-07
-1.97796e-06
-2.41392e-07
-2.45313e-06
3.07474e-07
-3.0435e-06
8.7384e-07
-3.75343e-06
1.39625e-06
-4.55918e-06
1.77141e-06
-5.38054e-06
1.85619e-06
-6.03636e-06
1.50858e-06
-6.18512e-06
7.25127e-07
-5.26764e-06
-2.54054e-06
5.64286e-07
2.13724e-06
1.37564e-06
4.75865e-06
1.96595e-06
5.89609e-06
2.21531e-06
6.0115e-06
2.17104e-06
5.55177e-06
1.93065e-06
4.83997e-06
1.58551e-06
4.07528e-06
1.20212e-06
3.3631e-06
8.21903e-07
2.74774e-06
4.67189e-07
2.23835e-06
1.47808e-07
1.82661e-06
-1.33741e-07
1.49734e-06
-3.78789e-07
1.23431e-06
-5.90343e-07
1.02292e-06
-7.71911e-07
8.51102e-07
-9.26889e-07
7.09363e-07
-1.0583e-06
5.90425e-07
-1.16872e-06
4.88772e-07
-1.26025e-06
4.00228e-07
-1.33462e-06
3.21607e-07
-1.39314e-06
2.50439e-07
-1.43686e-06
1.84767e-07
-1.46653e-06
1.22997e-07
-1.48266e-06
6.37834e-08
-1.48552e-06
5.93721e-09
-1.47521e-06
-5.1642e-08
-1.45158e-06
-1.1003e-07
-1.41431e-06
-1.70336e-07
-1.36285e-06
-2.33767e-07
-1.2964e-06
-3.01696e-07
-1.21392e-06
-3.75748e-07
-1.11408e-06
-4.57909e-07
-9.95204e-07
-5.50664e-07
-8.55297e-07
-6.57188e-07
-6.91995e-07
-7.81579e-07
-5.02631e-07
-9.29159e-07
-2.84378e-07
-1.10681e-06
-3.45852e-08
-1.32332e-06
2.48504e-07
-1.58951e-06
5.64637e-07
-1.91815e-06
9.09402e-07
-2.32273e-06
1.27111e-06
-2.81484e-06
1.62634e-06
-3.39873e-06
1.93457e-06
-4.06166e-06
2.13379e-06
-4.7584e-06
2.14205e-06
-5.38881e-06
1.87535e-06
-5.76966e-06
1.29816e-06
-5.60793e-06
5.28109e-07
-4.49759e-06
-2.01243e-06
4.16338e-07
1.7209e-06
1.1402e-06
4.03478e-06
1.80511e-06
5.23118e-06
2.25021e-06
5.5664e-06
2.45313e-06
5.34885e-06
2.45755e-06
4.83555e-06
2.32546e-06
4.20737e-06
2.1133e-06
3.57526e-06
1.86367e-06
2.99737e-06
1.60507e-06
2.49694e-06
1.35476e-06
2.07692e-06
1.12205e-06
1.73005e-06
9.1116e-07
1.4452e-06
7.23303e-07
1.21078e-06
5.58062e-07
1.01634e-06
4.14241e-07
8.53183e-07
2.90365e-07
7.14301e-07
1.84943e-07
5.94194e-07
9.66072e-08
4.88564e-07
2.41729e-08
3.94041e-07
-3.33454e-08
3.07957e-07
-7.6735e-08
2.28156e-07
-1.06591e-07
1.52853e-07
-1.23327e-07
8.05196e-08
-1.27188e-07
9.79839e-09
-1.18255e-07
-6.05749e-08
-9.64494e-08
-1.31835e-07
-6.15326e-08
-2.05253e-07
-1.31062e-08
-2.82194e-07
4.93929e-08
-3.64195e-07
1.26694e-07
-4.53049e-07
2.19687e-07
-5.50902e-07
3.29412e-07
-6.60389e-07
4.57012e-07
-7.84788e-07
6.03649e-07
-9.28216e-07
7.70332e-07
-1.09584e-06
9.57618e-07
-1.2941e-06
1.16509e-06
-1.53079e-06
1.39054e-06
-1.81496e-06
1.62864e-06
-2.15626e-06
1.86919e-06
-2.56328e-06
2.09466e-06
-3.04031e-06
2.27759e-06
-3.58166e-06
2.37864e-06
-4.1627e-06
2.34752e-06
-4.72729e-06
2.131e-06
-5.17228e-06
1.69425e-06
-5.33291e-06
1.06268e-06
-4.97636e-06
3.86081e-07
-3.82099e-06
-1.62635e-06
3.09957e-07
1.41094e-06
9.19239e-07
3.4255e-06
1.55844e-06
4.59198e-06
2.07282e-06
5.05202e-06
2.40762e-06
5.01405e-06
2.56946e-06
4.67371e-06
2.59296e-06
4.18387e-06
2.51916e-06
3.64906e-06
2.3847e-06
3.13183e-06
2.21792e-06
2.66373e-06
2.03872e-06
2.25612e-06
1.86006e-06
1.90871e-06
1.68979e-06
1.61548e-06
1.53225e-06
1.36832e-06
1.38954e-06
1.15905e-06
1.26242e-06
9.80301e-07
1.15088e-06
8.25842e-07
1.05451e-06
6.90563e-07
9.72743e-07
5.70334e-07
9.0496e-07
4.61824e-07
8.50592e-07
3.62325e-07
8.09144e-07
2.69604e-07
7.80217e-07
1.8178e-07
7.63519e-07
9.72183e-08
7.58863e-07
1.44536e-08
7.66175e-07
-6.78866e-08
7.85483e-07
-1.51143e-07
8.16917e-07
-2.36687e-07
8.60706e-07
-3.25982e-07
9.17162e-07
-4.20651e-07
9.86666e-07
-5.22554e-07
1.06964e-06
-6.33874e-07
1.16648e-06
-7.57231e-07
1.27749e-06
-8.95796e-07
1.4027e-06
-1.05343e-06
1.54168e-06
-1.23482e-06
1.69311e-06
-1.44552e-06
1.85425e-06
-1.69193e-06
2.02016e-06
-1.98087e-06
2.18259e-06
-2.31869e-06
2.32863e-06
-2.70931e-06
2.43931e-06
-3.151e-06
2.48866e-06
-3.63101e-06
2.44417e-06
-4.11821e-06
2.27059e-06
-4.55371e-06
1.93972e-06
-4.84141e-06
1.44903e-06
-4.84223e-06
8.50731e-07
-4.37806e-06
2.86041e-07
-3.2563e-06
-1.34031e-06
2.32861e-07
1.17808e-06
7.30025e-07
2.92834e-06
1.29887e-06
4.02313e-06
1.80831e-06
4.54258e-06
2.19438e-06
4.62799e-06
2.44252e-06
4.42557e-06
2.56676e-06
4.05963e-06
2.59328e-06
3.62254e-06
2.55004e-06
3.17506e-06
2.46157e-06
2.7522e-06
2.34711e-06
2.37058e-06
2.22064e-06
2.03518e-06
2.09175e-06
1.74437e-06
1.96667e-06
1.4934e-06
1.84925e-06
1.27647e-06
1.74173e-06
1.08782e-06
1.6453e-06
9.22271e-07
1.5605e-06
7.75357e-07
1.4875e-06
6.43336e-07
1.42623e-06
5.2309e-07
1.37654e-06
4.12015e-07
1.33824e-06
3.07914e-07
1.31112e-06
2.08899e-07
1.29503e-06
1.13305e-07
1.28986e-06
1.96219e-08
1.29555e-06
-7.35715e-08
1.31207e-06
-1.67666e-07
1.33946e-06
-2.64076e-07
1.37777e-06
-3.64296e-07
1.42708e-06
-4.69962e-07
1.48744e-06
-5.82912e-07
1.55883e-06
-7.05261e-07
1.64107e-06
-8.39478e-07
1.73375e-06
-9.88473e-07
1.83599e-06
-1.15567e-06
1.94622e-06
-1.34505e-06
2.06182e-06
-1.56112e-06
2.17858e-06
-1.8087e-06
2.29011e-06
-2.0924e-06
2.38697e-06
-2.41555e-06
2.45593e-06
-2.77828e-06
2.4794e-06
-3.17446e-06
2.43562e-06
-3.58723e-06
2.30053e-06
-3.98312e-06
2.05248e-06
-4.30566e-06
1.68122e-06
-4.47014e-06
1.20197e-06
-4.36297e-06
6.73547e-07
-3.84964e-06
2.14568e-07
-2.79732e-06
-1.12574e-06
1.76338e-07
1.00174e-06
5.75223e-07
2.52945e-06
1.06026e-06
3.5381e-06
1.52707e-06
4.07576e-06
1.91456e-06
4.2405e-06
2.19844e-06
4.14169e-06
2.37937e-06
3.8787e-06
2.47161e-06
3.5303e-06
2.49454e-06
3.15214e-06
2.46748e-06
2.77926e-06
2.40714e-06
2.43092e-06
2.32676e-06
2.11556e-06
2.23619e-06
1.83494e-06
2.14247e-06
1.58712e-06
2.05042e-06
1.36852e-06
1.96324e-06
1.175e-06
1.883e-06
1.00251e-06
1.81097e-06
8.47386e-07
1.74791e-06
7.06394e-07
1.69425e-06
5.76755e-07
1.65018e-06
4.56078e-07
1.6158e-06
3.42293e-07
1.59112e-06
2.33582e-07
1.57611e-06
1.28319e-07
1.57072e-06
2.50083e-08
1.57491e-06
-7.77657e-08
1.58864e-06
-1.81389e-07
1.61183e-06
-2.87267e-07
1.6444e-06
-3.96867e-07
1.68621e-06
-5.11773e-07
1.73703e-06
-6.33729e-07
1.79647e-06
-7.64698e-07
1.8639e-06
-9.0691e-07
1.93833e-06
-1.06291e-06
2.01825e-06
-1.23558e-06
2.10133e-06
-1.42814e-06
2.18419e-06
-1.64397e-06
2.26191e-06
-1.88642e-06
2.32763e-06
-2.15812e-06
2.37203e-06
-2.45995e-06
2.383e-06
-2.78924e-06
2.34567e-06
-3.13713e-06
2.24333e-06
-3.48488e-06
2.05972e-06
-3.79952e-06
1.78363e-06
-4.02956e-06
1.41604e-06
-4.10255e-06
9.79936e-07
-3.92687e-06
5.30739e-07
-3.40044e-06
1.62682e-07
-2.42926e-06
-9.63058e-07
1.34657e-07
8.67086e-07
4.52173e-07
2.21194e-06
8.55859e-07
3.13441e-06
1.26522e-06
3.66641e-06
1.62705e-06
3.87867e-06
1.91441e-06
3.85433e-06
2.12037e-06
3.67273e-06
2.25074e-06
3.39993e-06
2.31772e-06
3.08517e-06
2.33544e-06
2.76153e-06
2.31736e-06
2.44899e-06
2.27501e-06
2.15792e-06
2.21757e-06
1.89238e-06
2.15205e-06
1.65264e-06
2.08362e-06
1.43695e-06
2.01597e-06
1.24265e-06
1.95169e-06
1.0668e-06
1.89255e-06
9.06523e-07
1.83976e-06
7.59183e-07
1.79411e-06
6.22403e-07
1.75612e-06
4.94074e-07
1.72609e-06
3.72318e-07
1.70422e-06
2.55451e-07
1.6906e-06
1.41939e-07
1.68526e-06
3.03526e-08
1.68816e-06
-8.0671e-08
1.69924e-06
-1.92468e-07
1.71836e-06
-3.06385e-07
1.74531e-06
-4.23818e-07
1.77978e-06
-5.46245e-07
1.82132e-06
-6.75268e-07
1.86926e-06
-8.12639e-07
1.92265e-06
-9.60296e-07
1.98011e-06
-1.12037e-06
2.03971e-06
-1.29518e-06
2.09875e-06
-1.48717e-06
2.15348e-06
-1.69871e-06
2.1989e-06
-1.93184e-06
2.22836e-06
-2.18758e-06
2.23341e-06
-2.465e-06
2.20374e-06
-2.75957e-06
2.1276e-06
-3.061e-06
1.993e-06
-3.35028e-06
1.78997e-06
-3.59649e-06
1.51443e-06
-3.75402e-06
1.17355e-06
-3.76168e-06
7.92141e-07
-3.54546e-06
4.18223e-07
-3.02652e-06
1.24651e-07
-2.13569e-06
-8.38407e-07
1.03858e-07
7.63228e-07
3.56237e-07
1.95956e-06
6.88003e-07
2.80264e-06
1.03798e-06
3.31643e-06
1.36207e-06
3.55457e-06
1.63446e-06
3.58194e-06
1.84466e-06
3.46253e-06
1.99304e-06
3.25155e-06
2.0864e-06
2.9918e-06
2.13444e-06
2.7135e-06
2.14737e-06
2.43606e-06
2.13465e-06
2.17064e-06
2.10429e-06
1.92274e-06
2.06276e-06
1.69416e-06
2.01511e-06
1.48461e-06
1.96514e-06
1.29262e-06
1.91568e-06
1.11626e-06
1.86878e-06
9.53418e-07
1.82594e-06
8.02026e-07
1.7882e-06
6.60142e-07
1.7563e-06
5.25974e-07
1.73074e-06
3.9788e-07
1.71184e-06
2.74351e-07
1.69979e-06
1.53984e-07
1.69469e-06
3.54562e-08
1.69652e-06
-8.25036e-08
1.7052e-06
-2.01145e-07
1.72053e-06
-3.21721e-07
1.74223e-06
-4.45516e-07
1.76986e-06
-5.73873e-07
1.8028e-06
-7.08211e-07
1.84021e-06
-8.50046e-07
1.88091e-06
-1.001e-06
1.92332e-06
-1.16278e-06
1.9653e-06
-1.33717e-06
2.00402e-06
-1.52589e-06
2.03577e-06
-1.73046e-06
2.05576e-06
-1.95183e-06
2.058e-06
-2.18983e-06
2.03525e-06
-2.44225e-06
1.9792e-06
-2.70352e-06
1.88102e-06
-2.96283e-06
1.73262e-06
-3.20188e-06
1.52864e-06
-3.3925e-06
1.26945e-06
-3.49484e-06
9.65033e-07
-3.45726e-06
6.38885e-07
-3.21931e-06
3.30856e-07
-2.71849e-06
9.66183e-08
-1.90145e-06
-7.41788e-07
8.1047e-08
6.82181e-07
2.82285e-07
1.75832e-06
5.53574e-07
2.53135e-06
8.48585e-07
3.02142e-06
1.13174e-06
3.27141e-06
1.38005e-06
3.33363e-06
1.58196e-06
3.26063e-06
1.73471e-06
3.0988e-06
1.84133e-06
2.88518e-06
1.90805e-06
2.64679e-06
1.94227e-06
2.40183e-06
1.95139e-06
2.16152e-06
1.94208e-06
1.93205e-06
1.92e-06
1.71624e-06
1.88978e-06
1.51482e-06
1.85508e-06
1.32732e-06
1.81875e-06
1.1526e-06
1.78293e-06
9.89237e-07
1.74925e-06
8.35698e-07
1.71893e-06
6.90463e-07
1.69284e-06
5.52066e-07
1.6716e-06
4.19118e-07
1.65565e-06
2.90309e-07
1.64523e-06
1.64395e-07
1.6405e-06
4.01881e-08
1.64146e-06
-8.34663e-08
1.64802e-06
-2.07703e-07
1.65996e-06
-3.33655e-07
1.67691e-06
-4.62474e-07
1.69838e-06
-5.95341e-07
1.72365e-06
-7.33478e-07
1.75176e-06
-8.78152e-07
1.78143e-06
-1.03067e-06
1.81099e-06
-1.19235e-06
1.83829e-06
-1.36446e-06
1.86054e-06
-1.54814e-06
1.87426e-06
-1.74418e-06
1.87515e-06
-1.95271e-06
1.85803e-06
-2.17271e-06
1.81695e-06
-2.40117e-06
1.74547e-06
-2.63204e-06
1.63726e-06
-2.85461e-06
1.48718e-06
-3.05181e-06
1.29302e-06
-3.19833e-06
1.05766e-06
-3.25948e-06
7.91812e-07
-3.19141e-06
5.16333e-07
-2.94383e-06
2.63515e-07
-2.46568e-06
7.58335e-08
-1.71377e-06
-6.65955e-07
6.40488e-08
6.18132e-07
2.25471e-07
1.5969e-06
4.47242e-07
2.30958e-06
6.94148e-07
2.77452e-06
9.37863e-07
3.0277e-06
1.15874e-06
3.11276e-06
1.34554e-06
3.07382e-06
1.49397e-06
2.95038e-06
1.60463e-06
2.77451e-06
1.68119e-06
2.57023e-06
1.72881e-06
2.35422e-06
1.75305e-06
2.13728e-06
1.75927e-06
1.92583e-06
1.75224e-06
1.72326e-06
1.73604e-06
1.53103e-06
1.714e-06
1.34936e-06
1.68882e-06
1.17778e-06
1.66262e-06
1.01543e-06
1.63707e-06
8.61251e-07
1.61342e-06
7.14109e-07
1.59264e-06
5.72852e-07
1.57541e-06
4.36348e-07
1.56222e-06
3.03493e-07
1.5534e-06
1.73216e-07
1.54911e-06
4.44791e-08
1.54938e-06
-8.37366e-08
1.55411e-06
-2.12434e-07
1.56307e-06
-3.42613e-07
1.57587e-06
-4.75274e-07
1.59196e-06
-6.1143e-07
1.61058e-06
-7.52099e-07
1.63073e-06
-8.98306e-07
1.65113e-06
-1.05106e-06
1.6701e-06
-1.21132e-06
1.68558e-06
-1.37994e-06
1.69499e-06
-1.55755e-06
1.69518e-06
-1.74437e-06
1.68242e-06
-1.93995e-06
1.65239e-06
-2.14268e-06
1.60038e-06
-2.34916e-06
1.52152e-06
-2.55318e-06
1.41145e-06
-2.74454e-06
1.26719e-06
-2.90755e-06
1.08849e-06
-3.01964e-06
8.79478e-07
-3.05047e-06
6.50423e-07
-2.96235e-06
4.19177e-07
-2.71258e-06
2.11612e-07
-2.25811e-06
6.02798e-08
-1.56244e-06
-6.05675e-07
5.12319e-08
5.669e-07
1.81626e-07
1.4665e-06
3.633e-07
2.12791e-06
5.69275e-07
2.56854e-06
7.77105e-07
2.81987e-06
9.70404e-07
2.91946e-06
1.13896e-06
2.90527e-06
1.2779e-06
2.81144e-06
1.38641e-06
2.66599e-06
1.46639e-06
2.49025e-06
1.52126e-06
2.29935e-06
1.5551e-06
2.10344e-06
1.5721e-06
1.90883e-06
1.57616e-06
1.71921e-06
1.57072e-06
1.53647e-06
1.55875e-06
1.36133e-06
1.5427e-06
1.19384e-06
1.52456e-06
1.03357e-06
1.50594e-06
8.79874e-07
1.48808e-06
7.31961e-07
1.47197e-06
5.88968e-07
1.45832e-06
4.50001e-07
1.44764e-06
3.14163e-07
1.4403e-06
1.80561e-07
1.43647e-06
4.83089e-08
1.4362e-06
-8.34651e-08
1.43939e-06
-2.15626e-07
1.44581e-06
-3.49029e-07
1.45506e-06
-4.84524e-07
1.46658e-06
-6.2295e-07
1.47961e-06
-7.65132e-07
1.49317e-06
-9.11865e-07
1.506e-06
-1.06389e-06
1.51654e-06
-1.22186e-06
1.52287e-06
-1.38627e-06
1.52267e-06
-1.55735e-06
1.5132e-06
-1.7349e-06
1.49132e-06
-1.91806e-06
1.45351e-06
-2.10488e-06
1.39612e-06
-2.29176e-06
1.31559e-06
-2.47265e-06
1.20902e-06
-2.63797e-06
1.0749e-06
-2.77344e-06
9.14161e-07
-2.85889e-06
7.313e-07
-2.86761e-06
5.35629e-07
-2.76668e-06
3.42089e-07
-2.51904e-06
1.71321e-07
-2.08734e-06
4.8473e-08
-1.43959e-06
-5.57202e-07
4.13944e-08
5.25506e-07
1.47393e-07
1.3605e-06
2.96596e-07
1.97871e-06
4.6813e-07
2.39701e-06
6.44221e-07
2.64377e-06
8.11392e-07
2.75229e-06
9.60716e-07
2.75594e-06
1.08736e-06
2.68479e-06
1.18975e-06
2.5636e-06
1.26862e-06
2.41138e-06
1.32613e-06
2.24184e-06
1.36521e-06
2.06435e-06
1.38905e-06
1.885e-06
1.40074e-06
1.70751e-06
1.40317e-06
1.53404e-06
1.39886e-06
1.36564e-06
1.38998e-06
1.20272e-06
1.37834e-06
1.04521e-06
1.36543e-06
8.92788e-07
1.35243e-06
7.44957e-07
1.34029e-06
6.01107e-07
1.32973e-06
4.60568e-07
1.32126e-06
3.22636e-07
1.31523e-06
1.86587e-07
1.31185e-06
5.16918e-08
1.31116e-06
-8.27782e-08
1.31308e-06
-2.17547e-07
1.31738e-06
-3.53328e-07
1.32368e-06
-4.9082e-07
1.33142e-06
-6.30699e-07
1.3399e-06
-7.73605e-07
1.34816e-06
-9.20127e-07
1.35504e-06
-1.07078e-06
1.35912e-06
-1.22594e-06
1.35866e-06
-1.38582e-06
1.35166e-06
-1.55034e-06
1.33577e-06
-1.71902e-06
1.30841e-06
-1.8907e-06
1.26679e-06
-2.06326e-06
1.20812e-06
-2.23308e-06
1.12985e-06
-2.39438e-06
1.03015e-06
-2.53827e-06
9.08474e-07
-2.65177e-06
7.66335e-07
-2.71676e-06
6.08153e-07
-2.70943e-06
4.4206e-07
-2.60059e-06
2.80397e-07
-2.35738e-06
1.39619e-07
-1.94656e-06
3.93347e-08
-1.33931e-06
-5.17867e-07
3.36705e-08
4.91835e-07
1.20192e-07
1.27398e-06
2.42877e-07
1.85602e-06
3.85429e-07
2.25446e-06
5.33754e-07
2.49545e-06
6.76871e-07
2.60917e-06
8.07173e-07
2.62564e-06
9.20186e-07
2.57178e-06
1.01401e-06
2.46978e-06
1.08868e-06
2.33672e-06
1.14546e-06
2.18505e-06
1.18641e-06
2.0234e-06
1.2139e-06
1.85751e-06
1.23037e-06
1.69104e-06
1.23815e-06
1.52626e-06
1.23936e-06
1.36444e-06
1.23586e-06
1.20622e-06
1.22925e-06
1.05182e-06
1.22086e-06
9.01173e-07
1.2118e-06
7.54021e-07
1.20293e-06
6.09974e-07
1.19494e-06
4.68559e-07
1.18833e-06
3.29248e-07
1.18344e-06
1.91478e-07
1.18046e-06
5.46649e-08
1.17947e-06
-8.17808e-08
1.18037e-06
-2.18448e-07
1.18295e-06
-3.55912e-07
1.18686e-06
-4.94732e-07
1.19159e-06
-6.35428e-07
1.19647e-06
-7.78478e-07
1.20063e-06
-9.24288e-07
1.20302e-06
-1.07317e-06
1.20237e-06
-1.22529e-06
1.19719e-06
-1.38063e-06
1.18575e-06
-1.5389e-06
1.1661e-06
-1.69937e-06
1.13615e-06
-1.86075e-06
1.09372e-06
-2.02083e-06
1.03672e-06
-2.17608e-06
9.63369e-07
-2.32103e-06
8.72575e-07
-2.44748e-06
7.64376e-07
-2.54357e-06
6.40518e-07
-2.5929e-06
5.05071e-07
-2.57398e-06
3.64966e-07
-2.46049e-06
2.30304e-07
-2.22272e-06
1.14209e-07
-1.83047e-06
3.2094e-08
-1.25719e-06
-4.85773e-07
2.74468e-08
4.64389e-07
9.81038e-08
1.20333e-06
1.98821e-07
1.7553e-06
3.16792e-07
2.13649e-06
4.40833e-07
2.37141e-06
5.62064e-07
2.48794e-06
6.74127e-07
2.51358e-06
7.73057e-07
2.47285e-06
8.56914e-07
2.38592e-06
9.25312e-07
2.26832e-06
9.78953e-07
2.13141e-06
1.01922e-06
1.98313e-06
1.04787e-06
1.82886e-06
1.06677e-06
1.67214e-06
1.07778e-06
1.51524e-06
1.08265e-06
1.35957e-06
1.08294e-06
1.20592e-06
1.08003e-06
1.05473e-06
1.07508e-06
9.06119e-07
1.06908e-06
7.60025e-07
1.06281e-06
6.16245e-07
1.05689e-06
4.74474e-07
1.0518e-06
3.3434e-07
1.04786e-06
1.95425e-07
1.04524e-06
5.72784e-08
1.04402e-06
-8.05598e-08
1.04413e-06
-2.18553e-07
1.04537e-06
-3.57151e-07
1.04742e-06
-4.96781e-07
1.04982e-06
-6.37829e-07
1.05196e-06
-7.80625e-07
1.05309e-06
-9.25419e-07
1.05228e-06
-1.07236e-06
1.04843e-06
-1.22144e-06
1.04025e-06
-1.37246e-06
1.02632e-06
-1.52497e-06
1.00505e-06
-1.6781e-06
9.74754e-07
-1.83046e-06
9.3377e-07
-1.97985e-06
8.80547e-07
-2.12286e-06
8.13873e-07
-2.25436e-06
7.33145e-07
-2.36675e-06
6.38729e-07
-2.44915e-06
5.32379e-07
-2.48655e-06
4.17686e-07
-2.45929e-06
3.00448e-07
-2.34325e-06
1.88862e-07
-2.11113e-06
9.33907e-08
-1.735e-06
2.62065e-08
-1.19001e-06
-4.59567e-07
2.22934e-08
4.42095e-07
7.97323e-08
1.14589e-06
1.61915e-07
1.67312e-06
2.5876e-07
2.03964e-06
3.61421e-07
2.26875e-06
4.62771e-07
2.38659e-06
5.57589e-07
2.41876e-06
6.42476e-07
2.38796e-06
7.1561e-07
2.31279e-06
7.76411e-07
2.20752e-06
8.25199e-07
2.08262e-06
8.6289e-07
1.94544e-06
8.90752e-07
1.801e-06
9.10211e-07
1.65269e-06
9.22725e-07
1.50273e-06
9.29697e-07
1.35259e-06
9.32416e-07
1.2032e-06
9.32035e-07
1.05511e-06
9.29553e-07
9.08601e-07
9.25816e-07
7.63762e-07
9.21519e-07
6.20542e-07
9.17214e-07
4.78779e-07
9.13321e-07
3.38233e-07
9.10133e-07
1.98613e-07
9.07823e-07
5.95886e-08
9.06449e-07
-7.91862e-08
9.05957e-07
-2.18061e-07
9.06181e-07
-3.57374e-07
9.06836e-07
-4.97437e-07
9.07522e-07
-6.38515e-07
9.07711e-07
-7.80814e-07
9.06747e-07
-9.24455e-07
9.03837e-07
-1.06945e-06
8.98052e-07
-1.21565e-06
8.88333e-07
-1.36274e-06
8.73501e-07
-1.51013e-06
8.52287e-07
-1.65688e-06
8.23381e-07
-1.80156e-06
7.85509e-07
-1.94198e-06
7.37547e-07
-2.0749e-06
6.78683e-07
-2.19549e-06
6.08632e-07
-2.2967e-06
5.2791e-07
-2.36843e-06
4.38145e-07
-2.39678e-06
3.42399e-07
-2.36354e-06
2.45435e-07
-2.24628e-06
1.53841e-07
-2.01954e-06
7.59229e-08
-1.65708e-06
2.12893e-08
-1.13538e-06
-4.38278e-07
1.79084e-08
4.24187e-07
6.40648e-08
1.09973e-06
1.30282e-07
1.6069e-06
2.08672e-07
1.96125e-06
2.92292e-07
2.18513e-06
3.75497e-07
2.30338e-06
4.54076e-07
2.34018e-06
5.25205e-07
2.31683e-06
5.87271e-07
2.25072e-06
6.39634e-07
2.15516e-06
6.82384e-07
2.03987e-06
7.16111e-07
1.91171e-06
7.41716e-07
1.7754e-06
7.60264e-07
1.63414e-06
7.72879e-07
1.49011e-06
7.80667e-07
1.34481e-06
7.84667e-07
1.1992e-06
7.8582e-07
1.05396e-06
7.84958e-07
9.09463e-07
7.82792e-07
7.65928e-07
7.79914e-07
6.2342e-07
7.76799e-07
4.81893e-07
7.73812e-07
3.41221e-07
7.71209e-07
2.01216e-07
7.69145e-07
6.16525e-08
7.67676e-07
-7.77163e-08
7.66757e-07
-2.17143e-07
7.66251e-07
-3.56868e-07
7.65919e-07
-4.97104e-07
7.65421e-07
-6.38017e-07
7.64314e-07
-7.79708e-07
7.6205e-07
-9.2219e-07
7.57971e-07
-1.06537e-06
7.51316e-07
-1.209e-06
7.41227e-07
-1.35265e-06
7.26763e-07
-1.49567e-06
7.06929e-07
-1.63705e-06
6.80718e-07
-1.77535e-06
6.47179e-07
-1.90844e-06
6.05507e-07
-2.03322e-06
5.55169e-07
-2.14515e-06
4.96073e-07
-2.2376e-06
4.28767e-07
-2.30112e-06
3.54675e-07
-2.32269e-06
2.76328e-07
-2.28519e-06
1.97555e-07
-2.16751e-06
1.23572e-07
-1.94555e-06
6.09022e-08
-1.59441e-06
1.70721e-08
-1.09155e-06
-4.21206e-07
1.40773e-08
4.1011e-07
5.03641e-08
1.06344e-06
1.02526e-07
1.55474e-06
1.6449e-07
1.89929e-06
2.30909e-07
2.11871e-06
2.97402e-07
2.23689e-06
3.6066e-07
2.27692e-06
4.18411e-07
2.25908e-06
4.69298e-07
2.19983e-06
5.12712e-07
2.11174e-06
5.48617e-07
2.00397e-06
5.77376e-07
1.88295e-06
5.99619e-07
1.75315e-06
6.16125e-07
1.61763e-06
6.27738e-07
1.4785e-06
6.35309e-07
1.33724e-06
6.39651e-07
1.19486e-06
6.41512e-07
1.0521e-06
6.4156e-07
9.09415e-07
6.40374e-07
7.67115e-07
6.38438e-07
6.25356e-07
6.36149e-07
4.84183e-07
6.33809e-07
3.4356e-07
6.31637e-07
2.03388e-07
6.29764e-07
6.35253e-08
6.28241e-07
-7.61936e-08
6.27038e-07
-2.1594e-07
6.26043e-07
-3.55873e-07
6.25064e-07
-4.96125e-07
6.23827e-07
-6.3678e-07
6.21974e-07
-7.77855e-07
6.19066e-07
-9.19282e-07
6.14578e-07
-1.06088e-06
6.07908e-07
-1.20233e-06
5.98384e-07
-1.34313e-06
5.85279e-07
-1.48256e-06
5.67835e-07
-1.61961e-06
5.45299e-07
-1.75281e-06
5.16975e-07
-1.88011e-06
4.82298e-07
-1.99855e-06
4.40927e-07
-2.10378e-06
3.92872e-07
-2.18955e-06
3.38641e-07
-2.24689e-06
2.79411e-07
-2.26346e-06
2.17193e-07
-2.22297e-06
1.54979e-07
-2.1053e-06
9.67989e-08
-1.88737e-06
4.76647e-08
-1.54528e-06
1.33607e-08
-1.05724e-06
-4.07845e-07
1.06439e-08
3.99466e-07
3.80839e-08
1.036e-06
7.75896e-08
1.51524e-06
1.24646e-07
1.85223e-06
1.75272e-07
2.06808e-06
2.26192e-07
2.18597e-06
2.74905e-07
2.22821e-06
3.19663e-07
2.21433e-06
3.59388e-07
2.16011e-06
3.93557e-07
2.07758e-06
4.22074e-07
1.97545e-06
4.45156e-07
1.85987e-06
4.63226e-07
1.73508e-06
4.76836e-07
1.60402e-06
4.866e-07
1.46874e-06
4.93148e-07
1.33069e-06
4.97089e-07
1.19092e-06
4.98994e-07
1.05019e-06
4.99375e-07
9.09034e-07
4.98682e-07
7.67809e-07
4.97295e-07
6.26742e-07
4.95525e-07
4.85952e-07
4.93616e-07
3.4547e-07
4.9174e-07
2.05263e-07
4.90008e-07
6.52575e-08
4.88463e-07
-7.46486e-08
4.87086e-07
-2.14563e-07
4.85795e-07
-3.54582e-07
4.84445e-07
-4.94775e-07
4.82826e-07
-6.35162e-07
4.80669e-07
-7.75698e-07
4.77639e-07
-9.16251e-07
4.7334e-07
-1.05658e-06
4.67323e-07
-1.19631e-06
4.59086e-07
-1.33489e-06
4.48094e-07
-1.47157e-06
4.33795e-07
-1.60531e-06
4.15649e-07
-1.73466e-06
3.93165e-07
-1.85763e-06
3.65958e-07
-1.97134e-06
3.33817e-07
-2.07164e-06
2.96793e-07
-2.15252e-06
2.55304e-07
-2.20541e-06
2.1026e-07
-2.21842e-06
1.63178e-07
-2.17589e-06
1.16284e-07
-2.0584e-06
7.25618e-08
-1.84365e-06
3.57125e-08
-1.50843e-06
1.00118e-08
-1.03154e-06
-3.97833e-07
7.49038e-09
3.91975e-07
2.68075e-08
1.01669e-06
5.46577e-08
1.48739e-06
8.79046e-08
1.81898e-06
1.23779e-07
2.03221e-06
1.5999e-07
2.14976e-06
1.94774e-07
2.19343e-06
2.26879e-07
2.18222e-06
2.55515e-07
2.13147e-06
2.80274e-07
2.05282e-06
3.01052e-07
1.95467e-06
3.17967e-07
1.84296e-06
3.31288e-07
1.72176e-06
3.41383e-07
1.59393e-06
3.48672e-07
1.46145e-06
3.5359e-07
1.32577e-06
3.56565e-07
1.18795e-06
3.58003e-07
1.04875e-06
3.5827e-07
9.08767e-07
3.5769e-07
7.68388e-07
3.56541e-07
6.27892e-07
3.55049e-07
4.87444e-07
3.53394e-07
3.47124e-07
3.51707e-07
2.0695e-07
3.50071e-07
6.68935e-08
3.48523e-07
-7.31007e-08
3.47055e-07
-2.13095e-07
3.45613e-07
-3.5314e-07
3.44099e-07
-4.93261e-07
3.42371e-07
-6.33434e-07
3.40242e-07
-7.73569e-07
3.37483e-07
-9.13492e-07
3.33822e-07
-1.05292e-06
3.28952e-07
-1.19144e-06
3.22533e-07
-1.32847e-06
3.14202e-07
-1.46324e-06
3.0359e-07
-1.5947e-06
2.90337e-07
-1.72141e-06
2.74122e-07
-1.84141e-06
2.54698e-07
-1.95192e-06
2.31938e-07
-2.04888e-06
2.05895e-07
-2.12648e-06
1.76869e-07
-2.17638e-06
1.45492e-07
-2.18704e-06
1.12807e-07
-2.14321e-06
8.03339e-08
-2.02593e-06
5.01089e-08
-1.81343e-06
2.46603e-08
-1.48298e-06
6.91615e-09
-1.0138e-06
-3.90917e-07
4.52406e-09
3.87451e-07
1.62043e-08
1.00501e-06
3.30752e-08
1.47051e-06
5.32637e-08
1.79879e-06
7.51076e-08
2.01037e-06
9.72218e-08
2.12764e-06
1.18527e-07
2.17212e-06
1.38245e-07
2.1625e-06
1.55874e-07
2.11384e-06
1.71143e-07
2.03755e-06
1.83965e-07
1.94185e-06
1.94393e-07
1.83253e-06
2.02579e-07
1.71358e-06
2.08736e-07
1.58777e-06
2.13115e-07
1.45707e-06
2.15978e-07
1.32291e-06
2.17588e-07
1.18634e-06
2.18194e-07
1.04815e-06
2.18025e-07
9.08936e-07
2.17283e-07
7.6913e-07
2.16143e-07
6.29032e-07
2.1475e-07
4.88837e-07
2.13219e-07
3.48655e-07
2.11636e-07
2.08533e-07
2.10059e-07
6.84707e-08
2.08516e-07
-7.15581e-08
2.0701e-07
-2.11588e-07
2.05515e-07
-3.51645e-07
2.0398e-07
-4.91726e-07
2.02328e-07
-6.31782e-07
2.00457e-07
-7.71697e-07
1.98237e-07
-9.11273e-07
1.95521e-07
-1.0502e-06
1.92135e-07
-1.18805e-06
1.8789e-07
-1.32423e-06
1.82587e-07
-1.45794e-06
1.7602e-07
-1.58813e-06
1.6799e-07
-1.71338e-06
1.5832e-07
-1.83174e-06
1.46873e-07
-1.94047e-06
1.33579e-07
-2.03559e-06
1.18466e-07
-2.11137e-06
1.017e-07
-2.15961e-06
8.36309e-08
-2.16897e-06
6.48418e-08
-2.12442e-06
4.61889e-08
-2.00728e-06
2.88259e-08
-1.79606e-06
1.41971e-08
-1.46835e-06
3.98604e-09
-1.00359e-06
-3.86931e-07
1.66775e-09
3.85784e-07
5.9978e-09
1.00068e-06
1.22913e-08
1.46422e-06
1.98717e-08
1.79121e-06
2.81237e-08
2.00211e-06
3.65186e-08
2.11925e-06
4.463e-08
2.16401e-06
5.21387e-08