/*--------------------------------*- C++ -*----------------------------------*\
  =========                 |
  \\      /  F ield         | OpenFOAM: The Open Source CFD Toolbox
   \\    /   O peration     | Website:  https://openfoam.org
    \\  /    A nd           | Version:  7
     \\/     M anipulation  |
\*---------------------------------------------------------------------------*/
FoamFile
{
    version     2.0;
    format      ascii;
    class       volVectorField;
    location    "0.0034";
    object      U;
}
// * * * * * * * * * * * * * * * * * * * * * * * * * * * * * * * * * * * * * //

dimensions      [0 1 -1 0 0 0 0];

internalField   nonuniform List<vector> 
2500
(
(-0.294309 0.154199 0)
(-0.398349 0.128644 0)
(-0.576292 0.0730289 0)
(-0.69094 0.0396336 0)
(-0.755209 0.0218697 0)
(-0.794217 0.0124895 0)
(-0.819259 0.00749535 0)
(-0.835882 0.00476057 0)
(-0.847322 0.00319446 0)
(-0.85549 0.00225168 0)
(-0.861514 0.00165584 0)
(-0.86609 0.00126135 0)
(-0.869653 0.000988255 0)
(-0.872486 0.000790922 0)
(-0.874772 0.000642473 0)
(-0.876638 0.000526586 0)
(-0.87817 0.000433052 0)
(-0.879427 0.000355281 0)
(-0.880453 0.000288863 0)
(-0.88128 0.000230729 0)
(-0.88193 0.000178661 0)
(-0.882421 0.000130986 0)
(-0.882765 8.63901e-05 0)
(-0.882969 4.37828e-05 0)
(-0.883038 2.2268e-06 0)
(-0.882974 -3.90215e-05 0)
(-0.882777 -8.09165e-05 0)
(-0.882443 -0.000124299 0)
(-0.881966 -0.000170092 0)
(-0.881334 -0.000219377 0)
(-0.880535 -0.000273465 0)
(-0.87955 -0.000334027 0)
(-0.878353 -0.000403276 0)
(-0.87691 -0.00048429 0)
(-0.875173 -0.00058153 0)
(-0.873079 -0.000701757 0)
(-0.870537 -0.000855619 0)
(-0.867413 -0.00106045 0)
(-0.863512 -0.00134531 0)
(-0.858537 -0.00176021 0)
(-0.852026 -0.00239361 0)
(-0.843252 -0.00340656 0)
(-0.831028 -0.00510164 0)
(-0.813381 -0.00806232 0)
(-0.787036 -0.013414 0)
(-0.746496 -0.0232468 0)
(-0.680604 -0.041314 0)
(-0.565276 -0.0743408 0)
(-0.390424 -0.128435 0)
(-0.290763 -0.152893 0)
(-0.00507476 0.30319 0)
(-0.0243245 0.304692 0)
(-0.161541 0.211956 0)
(-0.288061 0.138304 0)
(-0.384295 0.089361 0)
(-0.455414 0.0583223 0)
(-0.507115 0.0389378 0)
(-0.544502 0.026742 0)
(-0.571765 0.0189187 0)
(-0.591955 0.0137821 0)
(-0.60719 0.0103246 0)
(-0.618912 0.00793434 0)
(-0.628104 0.00623345 0)
(-0.635433 0.00498547 0)
(-0.641355 0.00404049 0)
(-0.646185 0.0033022 0)
(-0.650146 0.00270776 0)
(-0.653394 0.00221537 0)
(-0.656043 0.00179649 0)
(-0.658176 0.00143112 0)
(-0.659851 0.00110475 0)
(-0.661114 0.000806489 0)
(-0.661996 0.000527791 0)
(-0.662517 0.000261667 0)
(-0.66269 2.07783e-06 0)
(-0.66252 -0.000256515 0)
(-0.662005 -0.000519524 0)
(-0.661134 -0.000792584 0)
(-0.659891 -0.00108193 0)
(-0.658248 -0.00139486 0)
(-0.656169 -0.00174035 0)
(-0.653602 -0.00212991 0)
(-0.65048 -0.00257888 0)
(-0.64671 -0.00310846 0)
(-0.642167 -0.0037489 0)
(-0.636681 -0.00454451 0)
(-0.630011 -0.00556189 0)
(-0.621821 -0.00690288 0)
(-0.611628 -0.0087255 0)
(-0.598736 -0.0112776 0)
(-0.582135 -0.0149516 0)
(-0.560366 -0.0203749 0)
(-0.531333 -0.0285621 0)
(-0.492086 -0.0411701 0)
(-0.438717 -0.0608791 0)
(-0.366649 -0.0917587 0)
(-0.270921 -0.139258 0)
(-0.147394 -0.20941 0)
(-0.0160262 -0.297692 0)
(-0.00131075 -0.295728 0)
(0.0329591 0.26198 0)
(0.0624147 0.352679 0)
(0.0136851 0.307836 0)
(-0.0629096 0.237516 0)
(-0.140496 0.173948 0)
(-0.208523 0.124883 0)
(-0.263977 0.0895067 0)
(-0.307584 0.0646984 0)
(-0.341406 0.0474458 0)
(-0.367612 0.0354255 0)
(-0.388045 0.0269758 0)
(-0.404143 0.0209478 0)
(-0.41698 0.0165619 0)
(-0.427334 0.0132945 0)
(-0.43577 0.0107959 0)
(-0.442691 0.00883205 0)
(-0.448388 0.00724549 0)
(-0.453075 0.00592899 0)
(-0.456905 0.00480816 0)
(-0.459995 0.00383018 0)
(-0.462427 0.0029565 0)
(-0.464265 0.00215801 0)
(-0.465551 0.00141186 0)
(-0.466316 0.000699312 0)
(-0.466578 4.16068e-06 0)
(-0.466344 -0.00068861 0)
(-0.46561 -0.00139342 0)
(-0.464362 -0.00212547 0)
(-0.462577 -0.00290161 0)
(-0.460217 -0.00374156 0)
(-0.457229 -0.00466956 0)
(-0.453542 -0.00571661 0)
(-0.449063 -0.00692383 0)
(-0.443663 -0.0083474 0)
(-0.437173 -0.0100662 0)
(-0.429367 -0.0121931 0)
(-0.419935 -0.0148927 0)
(-0.408456 -0.0184071 0)
(-0.394356 -0.0230936 0)
(-0.376852 -0.0294792 0)
(-0.354897 -0.0383342 0)
(-0.327126 -0.0507696 0)
(-0.29185 -0.0683507 0)
(-0.247183 -0.0931984 0)
(-0.191505 -0.127952 0)
(-0.124641 -0.175143 0)
(-0.0500262 -0.234932 0)
(0.021733 -0.299591 0)
(0.0648171 -0.33913 0)
(0.0332509 -0.250259 0)
(0.0285009 0.199312 0)
(0.0718419 0.338039 0)
(0.0769992 0.343162 0)
(0.0485599 0.29605 0)
(0.00343276 0.23667 0)
(-0.0452858 0.18219 0)
(-0.0906346 0.137946 0)
(-0.129887 0.104052 0)
(-0.162609 0.0788436 0)
(-0.189392 0.0603475 0)
(-0.21117 0.0468107 0)
(-0.228887 0.0368444 0)
(-0.243361 0.0294136 0)
(-0.25525 0.0237733 0)
(-0.265069 0.0193988 0)
(-0.273208 0.0159247 0)
(-0.27996 0.0130969 0)
(-0.285547 0.0107377 0)
(-0.290137 0.00872135 0)
(-0.293854 0.00695714 0)
(-0.296793 0.00537797 0)
(-0.299022 0.00393272 0)
(-0.300593 0.00258099 0)
(-0.301539 0.00128946 0)
(-0.301882 2.92126e-05 0)
(-0.301629 -0.00122632 0)
(-0.300777 -0.00250314 0)
(-0.299312 -0.00382832 0)
(-0.297206 -0.00523181 0)
(-0.294417 -0.00674851 0)
(-0.290888 -0.00842103 0)
(-0.28654 -0.0103034 0)
(-0.281272 -0.0124665 0)
(-0.274947 -0.0150056 0)
(-0.26739 -0.0180518 0)
(-0.258371 -0.0217883 0)
(-0.247591 -0.0264739 0)
(-0.234662 -0.0324752 0)
(-0.219087 -0.0403093 0)
(-0.200246 -0.0506951 0)
(-0.177404 -0.0646089 0)
(-0.149756 -0.0833233 0)
(-0.116584 -0.108389 0)
(-0.0775871 -0.141461 0)
(-0.0335333 -0.183775 0)
(0.0126269 -0.234771 0)
(0.0540823 -0.289011 0)
(0.0784857 -0.330317 0)
(0.0704325 -0.321812 0)
(0.0275532 -0.188302 0)
(0.0199137 0.15303 0)
(0.0617102 0.300279 0)
(0.0915631 0.337361 0)
(0.0955614 0.315694 0)
(0.0794528 0.270131 0)
(0.0527895 0.220131 0)
(0.0225672 0.174721 0)
(-0.00707672 0.136991 0)
(-0.034087 0.107119 0)
(-0.0577191 0.0840853 0)
(-0.077944 0.066536 0)
(-0.0950609 0.0531861 0)
(-0.109479 0.0429639 0)
(-0.121606 0.0350365 0)
(-0.131806 0.0287822 0)
(-0.140381 0.0237481 0)
(-0.147575 0.0196076 0)
(-0.15358 0.0161255 0)
(-0.158549 0.0131313 0)
(-0.162599 0.0104993 0)
(-0.165819 0.00813539 0)
(-0.168277 0.00596659 0)
(-0.170024 0.00393479 0)
(-0.171094 0.00199168 0)
(-0.171508 9.50875e-05 0)
(-0.171276 -0.00179378 0)
(-0.170394 -0.00371293 0)
(-0.168849 -0.00570181 0)
(-0.166615 -0.00780378 0)
(-0.163651 -0.010069 0)
(-0.159904 -0.0125581 0)
(-0.155299 -0.0153471 0)
(-0.149743 -0.0185339 0)
(-0.143115 -0.0222478 0)
(-0.135262 -0.0266626 0)
(-0.125995 -0.0320147 0)
(-0.115081 -0.0386269 0)
(-0.102238 -0.046939 0)
(-0.0871467 -0.0575416 0)
(-0.0694652 -0.0712056 0)
(-0.0488891 -0.0888953 0)
(-0.0252631 -0.111723 0)
(0.00120775 -0.14079 0)
(0.0296043 -0.176801 0)
(0.0577768 -0.219258 0)
(0.0817155 -0.26494 0)
(0.0949476 -0.305254 0)
(0.0888804 -0.322285 0)
(0.0588193 -0.284244 0)
(0.0188174 -0.143955 0)
(0.0132632 0.119807 0)
(0.0487295 0.258017 0)
(0.0866478 0.311496 0)
(0.10839 0.310175 0)
(0.112569 0.280265 0)
(0.104257 0.23949 0)
(0.0886821 0.198029 0)
(0.0698472 0.160793 0)
(0.0503956 0.129506 0)
(0.031844 0.104196 0)
(0.0149268 0.0841343 0)
(-9.86037e-05 0.0683603 0)
(-0.013235 0.0559428 0)
(-0.0246098 0.0460882 0)
(-0.0343962 0.0381641 0)
(-0.0427715 0.0316862 0)
(-0.049898 0.0262913 0)
(-0.0559159 0.0217089 0)
(-0.0609421 0.0177375 0)
(-0.0650714 0.0142253 0)
(-0.0683795 0.0110559 0)
(-0.0709251 0.00813827 0)
(-0.0727524 0.00539849 0)
(-0.0738925 0.00277471 0)
(-0.0743651 0.000212534 0)
(-0.0741792 -0.00233828 0)
(-0.0733335 -0.00492688 0)
(-0.0718165 -0.00760409 0)
(-0.0696062 -0.0104254 0)
(-0.0666694 -0.0134543 0)
(-0.0629605 -0.0167667 0)
(-0.0584204 -0.020456 0)
(-0.0529744 -0.0246406 0)
(-0.0465311 -0.0294735 0)
(-0.0389812 -0.0351549 0)
(-0.0301979 -0.0419494 0)
(-0.0200413 -0.0502055 0)
(-0.00836938 -0.060378 0)
(0.00494044 -0.0730456 0)
(0.0199445 -0.0889138 0)
(0.0365553 -0.108778 0)
(0.0544164 -0.133411 0)
(0.0727096 -0.163308 0)
(0.0898971 -0.198206 0)
(0.103449 -0.236249 0)
(0.1097 -0.272693 0)
(0.104023 -0.29811 0)
(0.0820975 -0.296391 0)
(0.0456671 -0.24375 0)
(0.0123599 -0.112671 0)
(0.00888971 0.0954794 0)
(0.0375097 0.218864 0)
(0.07512 0.27844 0)
(0.104281 0.290938 0)
(0.120282 0.274723 0)
(0.124753 0.244288 0)
(0.120833 0.209305 0)
(0.111637 0.175364 0)
(0.0996734 0.145155 0)
(0.0867019 0.119559 0)
(0.0738271 0.0984715 0)
(0.0616754 0.0813363 0)
(0.0505558 0.0674634 0)
(0.0405842 0.0561872 0)
(0.0317674 0.0469351 0)
(0.0240573 0.0392429 0)
(0.0173829 0.0327466 0)
(0.0116676 0.0271655 0)
(0.00683894 0.0222838 0)
(0.00283268 0.0179348 0)
(-0.000405589 0.0139879 0)
(-0.00292008 0.0103389 0)
(-0.00474515 0.00690221 0)
(-0.00590599 0.00360502 0)
(-0.00641899 0.00038297 0)
(-0.0062922 -0.00282367 0)
(-0.00552566 -0.00607332 0)
(-0.00411144 -0.0094261 0)
(-0.00203366 -0.0129471 0)
(0.000731712 -0.0167101 0)
(0.00421694 -0.0208016 0)
(0.00846264 -0.0253265 0)
(0.0135174 -0.0304149 0)
(0.0194364 -0.036231 0)
(0.0262788 -0.0429839 0)
(0.0341016 -0.0509407 0)
(0.0429486 -0.0604406 0)
(0.0528312 -0.0719053 0)
(0.0636961 -0.08584 0)
(0.0753737 -0.102811 0)
(0.0875011 -0.123373 0)
(0.0994162 -0.147912 0)
(0.110024 -0.17636 0)
(0.117665 -0.207715 0)
(0.120056 -0.239329 0)
(0.114465 -0.265966 0)
(0.098244 -0.278791 0)
(0.0701738 -0.264694 0)
(0.0348016 -0.206964 0)
(0.00821959 -0.0900334 0)
(0.00610767 0.0775053 0)
(0.0286943 0.185327 0)
(0.062354 0.245011 0)
(0.0927375 0.265784 0)
(0.114214 0.260107 0)
(0.126314 0.239156 0)
(0.130466 0.211311 0)
(0.128733 0.182054 0)
(0.123136 0.154495 0)
(0.115318 0.130068 0)
(0.106474 0.109171 0)
(0.0974066 0.0916333 0)
(0.088613 0.0770318 0)
(0.0803808 0.0648729 0)
(0.0728586 0.054687 0)
(0.0661092 0.0460671 0)
(0.0601456 0.038678 0)
(0.054954 0.0322505 0)
(0.0505077 0.0265706 0)
(0.046776 0.0214685 0)
(0.0437287 0.0168078 0)
(0.0413387 0.0124774 0)
(0.0395834 0.00838432 0)
(0.0384457 0.00444875 0)
(0.0379134 0.000599224 0)
(0.0379801 -0.00323086 0)
(0.0386446 -0.0071066 0)
(0.0399109 -0.0110947 0)
(0.0417882 -0.0152668 0)
(0.0442901 -0.0197028 0)
(0.0474342 -0.0244952 0)
(0.0512411 -0.0297535 0)
(0.055732 -0.0356111 0)
(0.0609258 -0.0422314 0)
(0.0668333 -0.0498166 0)
(0.0734479 -0.0586163 0)
(0.0807309 -0.0689339 0)
(0.0885894 -0.0811275 0)
(0.0968429 -0.0955962 0)
(0.105176 -0.112738 0)
(0.113077 -0.132859 0)
(0.119765 -0.156002 0)
(0.124121 -0.181671 0)
(0.124661 -0.208413 0)
(0.119616 -0.233274 0)
(0.107247 -0.251199 0)
(0.0864389 -0.254572 0)
(0.0577799 -0.233253 0)
(0.0264812 -0.1758 0)
(0.00562748 -0.0734237 0)
(0.00430552 0.0641019 0)
(0.0219405 0.157711 0)
(0.0505067 0.214476 0)
(0.0788816 0.239543 0)
(0.101724 0.241314 0)
(0.117533 0.228171 0)
(0.126575 0.207008 0)
(0.130006 0.18278 0)
(0.129265 0.158623 0)
(0.125708 0.136251 0)
(0.120436 0.116398 0)
(0.114272 0.0992046 0)
(0.107795 0.084491 0)
(0.101387 0.0719409 0)
(0.0952887 0.0612048 0)
(0.0896452 0.0519535 0)
(0.0845365 0.0438995 0)
(0.080002 0.0368013 0)
(0.0760566 0.03046 0)
(0.0727014 0.0247124 0)
(0.0699297 0.0194242 0)
(0.067732 0.0144834 0)
(0.0660984 0.00979466 0)
(0.0650199 0.00527476 0)
(0.0644896 0.000848454 0)
(0.064503 -0.00355479 0)
(0.0650581 -0.00800394 0)
(0.0661553 -0.0125693 0)
(0.067797 -0.0173257 0)
(0.0699868 -0.0223554 0)
(0.0727283 -0.0277517 0)
(0.0760229 -0.0336234 0)
(0.0798671 -0.040099 0)
(0.0842476 -0.0473321 0)
(0.0891346 -0.0555065 0)
(0.0944708 -0.0648405 0)
(0.100156 -0.075587 0)
(0.106028 -0.0880265 0)
(0.11183 -0.102443 0)
(0.117175 -0.119072 0)
(0.121506 -0.138004 0)
(0.124057 -0.159021 0)
(0.123832 -0.181351 0)
(0.119648 -0.203337 0)
(0.110283 -0.222055 0)
(0.0948114 -0.23296 0)
(0.0731131 -0.229772 0)
(0.0466271 -0.204825 0)
(0.0202117 -0.150282 0)
(0.00396604 -0.0610743 0)
(0.00310314 0.0540125 0)
(0.0168114 0.135455 0)
(0.0403519 0.188065 0)
(0.0653447 0.214839 0)
(0.0872146 0.221529 0)
(0.104109 0.214379 0)
(0.115619 0.198921 0)
(0.122233 0.179429 0)
(0.124871 0.158837 0)
(0.124547 0.138927 0)
(0.12218 0.120624 0)
(0.118523 0.104283 0)
(0.114149 0.0899221 0)
(0.109471 0.0773811 0)
(0.104779 0.0664285 0)
(0.100268 0.0568184 0)
(0.0960625 0.0483199 0)
(0.0922437 0.0407288 0)
(0.0888597 0.0338697 0)
(0.0859379 0.0275941 0)
(0.083493 0.021776 0)
(0.0815314 0.0163077 0)
(0.080055 0.0110956 0)
(0.0790629 0.0060569 0)
(0.0785535 0.00111565 0)
(0.0785242 -0.0037997 0)
(0.0789728 -0.00875917 0)
(0.0798966 -0.0138339 0)
(0.081292 -0.0190985 0)
(0.0831537 -0.0246342 0)
(0.0854731 -0.0305314 0)
(0.0882353 -0.0368928 0)
(0.0914166 -0.0438368 0)
(0.0949781 -0.0515006 0)
(0.0988596 -0.0600426 0)
(0.102968 -0.0696429 0)
(0.107166 -0.0804989 0)
(0.111251 -0.0928124 0)
(0.114934 -0.10676 0)
(0.117817 -0.122441 0)
(0.119366 -0.139778 0)
(0.118901 -0.158379 0)
(0.115616 -0.17733 0)
(0.108644 -0.194947 0)
(0.0972295 -0.208512 0)
(0.0810192 -0.214104 0)
(0.0604534 -0.206646 0)
(0.0372365 -0.180353 0)
(0.0155023 -0.129755 0)
(0.00286535 -0.0517773 0)
(0.00228119 0.0463508 0)
(0.0129409 0.117716 0)
(0.032038 0.165917 0)
(0.0533293 0.192846 0)
(0.0730988 0.202575 0)
(0.0895129 0.199803 0)
(0.101839 0.188937 0)
(0.110128 0.173576 0)
(0.114895 0.156346 0)
(0.116841 0.138967 0)
(0.116679 0.122439 0)
(0.115043 0.107248 0)
(0.11245 0.0935502 0)
(0.109303 0.081314 0)
(0.105902 0.07041 0)
(0.102462 0.0606709 0)
(0.099138 0.0519231 0)
(0.0960348 0.0440035 0)
(0.0932248 0.036765 0)
(0.0907561 0.0300781 0)
(0.0886601 0.0238298 0)
(0.0869566 0.0179206 0)
(0.0856576 0.0122624 0)
(0.0847697 0.00677559 0)
(0.0842956 0.00138655 0)
(0.0842352 -0.00397473 0)
(0.084586 -0.00937683 0)
(0.085343 -0.014889 0)
(0.0864978 -0.0205834 0)
(0.0880379 -0.0265371 0)
(0.0899449 -0.0328343 0)
(0.0921916 -0.0395682 0)
(0.0947386 -0.0468437 0)
(0.0975295 -0.0547778 0)
(0.100484 -0.0635008 0)
(0.103488 -0.0731529 0)
(0.106385 -0.0838779 0)
(0.108959 -0.0958063 0)
(0.110922 -0.109025 0)
(0.111899 -0.123526 0)
(0.111419 -0.139118 0)
(0.108922 -0.155309 0)
(0.103793 -0.17114 0)
(0.0954463 -0.185001 0)
(0.0834741 -0.194465 0)
(0.0678869 -0.196208 0)
(0.0493838 -0.186146 0)
(0.0296266 -0.159852 0)
(0.0119717 -0.113378 0)
(0.00211598 -0.0446994 0)
(0.00170951 0.0404768 0)
(0.0100356 0.103631 0)
(0.0254247 0.147652 0)
(0.0432285 0.173884 0)
(0.0605116 0.185345 0)
(0.0756313 0.185653 0)
(0.0877482 0.178338 0)
(0.0966613 0.166406 0)
(0.102598 0.152152 0)
(0.106008 0.137164 0)
(0.107411 0.122438 0)
(0.10731 0.108524 0)
(0.106145 0.0956694 0)
(0.104278 0.0839345 0)
(0.101996 0.0732726 0)
(0.0995152 0.063584 0)
(0.0970001 0.0547483 0)
(0.0945699 0.0466422 0)
(0.0923113 0.0391483 0)
(0.090286 0.0321585 0)
(0.0885377 0.025575 0)
(0.0870962 0.0193096 0)
(0.0859816 0.013282 0)
(0.0852063 0.00741841 0)
(0.0847771 0.00164957 0)
(0.0846959 -0.00409075 0)
(0.0849603 -0.00986757 0)
(0.0855635 -0.0157463 0)
(0.0864937 -0.0217942 0)
(0.0877332 -0.0280823 0)
(0.0892562 -0.0346863 0)
(0.0910271 -0.0416883 0)
(0.0929963 -0.0491771 0)
(0.0950963 -0.0572489 0)
(0.097236 -0.0660054 0)
(0.099293 -0.0755498 0)
(0.101106 -0.0859778 0)
(0.102465 -0.0973603 0)
(0.103101 -0.109715 0)
(0.102684 -0.122955 0)
(0.10082 -0.136823 0)
(0.0970704 -0.150779 0)
(0.0909934 -0.163884 0)
(0.0822203 -0.174656 0)
(0.0705852 -0.180965 0)
(0.0563026 -0.180014 0)
(0.0401473 -0.168486 0)
(0.0236024 -0.142919 0)
(0.00932854 -0.100332 0)
(0.00159526 -0.0392489 0)
(0.0013062 0.0359221 0)
(0.00785935 0.0924299 0)
(0.020253 0.132706 0)
(0.0350032 0.157831 0)
(0.049821 0.17016 0)
(0.06331 0.172568 0)
(0.0746466 0.167925 0)
(0.0835054 0.158747 0)
(0.0899284 0.147019 0)
(0.0941755 0.134172 0)
(0.0966068 0.121152 0)
(0.0976038 0.108525 0)
(0.0975236 0.0965899 0)
(0.0966764 0.0854689 0)
(0.095319 0.0751769 0)
(0.093657 0.065669 0)
(0.0918511 0.0568701 0)
(0.0900244 0.0486933 0)
(0.0882701 0.0410493 0)
(0.0866578 0.0338519 0)
(0.0852384 0.0270195 0)
(0.0840489 0.0204765 0)
(0.0831148 0.014152 0)
(0.0824532 0.00797967 0)
(0.0820737 0.0018965 0)
(0.08198 -0.00415844 0)
(0.0821699 -0.010245 0)
(0.0826357 -0.0164231 0)
(0.0833632 -0.0227539 0)
(0.0843312 -0.0293007 0)
(0.0855096 -0.0361295 0)
(0.0868573 -0.0433101 0)
(0.0883195 -0.0509153 0)
(0.0898235 -0.0590207 0)
(0.0912748 -0.0677017 0)
(0.0925513 -0.0770284 0)
(0.093498 -0.0870565 0)
(0.0939208 -0.0978103 0)
(0.093583 -0.109256 0)
(0.0922046 -0.121258 0)
(0.0894705 -0.13352 0)
(0.085051 -0.1455 0)
(0.0786428 -0.156308 0)
(0.0700372 -0.164609 0)
(0.0592208 -0.168548 0)
(0.0465056 -0.16576 0)
(0.0326427 -0.153513 0)
(0.0188939 -0.129017 0)
(0.00734688 -0.0899099 0)
(0.00122706 -0.0349991 0)
(0.00101722 0.0323456 0)
(0.0062242 0.0834752 0)
(0.0162372 0.120498 0)
(0.0284153 0.144368 0)
(0.0409798 0.157022 0)
(0.0527777 0.160822 0)
(0.0630607 0.158151 0)
(0.0714598 0.151137 0)
(0.0779071 0.141495 0)
(0.0825312 0.130499 0)
(0.0855682 0.119021 0)
(0.0872969 0.107616 0)
(0.0879963 0.0966043 0)
(0.0879224 0.0861448 0)
(0.0872966 0.0762962 0)
(0.0863039 0.067055 0)
(0.0850942 0.0583831 0)
(0.0837871 0.0502246 0)
(0.0824758 0.0425158 0)
(0.0812325 0.0351907 0)
(0.0801118 0.0281842 0)
(0.0791542 0.0214333 0)
(0.078389 0.0148777 0)
(0.0778359 0.00845935 0)
(0.0775069 0.00212247 0)
(0.0774068 -0.00418736 0)
(0.0775339 -0.0105238 0)
(0.0778799 -0.0169402 0)
(0.0784295 -0.0234906 0)
(0.0791596 -0.0302298 0)
(0.0800379 -0.0372139 0)
(0.0810212 -0.0445 0)
(0.0820526 -0.0521456 0)
(0.0830594 -0.0602072 0)
(0.0839491 -0.0687371 0)
(0.084606 -0.0777779 0)
(0.0848877 -0.0873533 0)
(0.0846226 -0.0974527 0)
(0.0836085 -0.108007 0)
(0.0816169 -0.118853 0)
(0.0784029 -0.12968 0)
(0.073727 -0.139963 0)
(0.0673917 -0.148881 0)
(0.0592973 -0.155242 0)
(0.0495196 -0.157428 0)
(0.0384011 -0.153421 0)
(0.0266215 -0.140923 0)
(0.015227 -0.117614 0)
(0.00585195 -0.0815347 0)
(0.000961809 -0.0316419 0)
(0.000805951 0.029501 0)
(0.00498395 0.0762662 0)
(0.0131132 0.110511 0)
(0.0231644 0.133128 0)
(0.0337521 0.145782 0)
(0.0439394 0.150478 0)
(0.0530756 0.149246 0)
(0.0607948 0.143908 0)
(0.0669716 0.135957 0)
(0.0716491 0.12652 0)
(0.0749726 0.116395 0)
(0.0771391 0.106105 0)
(0.0783605 0.0959708 0)
(0.0788418 0.0861738 0)
(0.0787682 0.0767995 0)
(0.0783002 0.0678745 0)
(0.0775726 0.0593893 0)
(0.0766961 0.0513134 0)
(0.0757598 0.0436051 0)
(0.0748345 0.0362168 0)
(0.0739751 0.0290984 0)
(0.0732234 0.0221996 0)
(0.0726101 0.0154703 0)
(0.0721565 0.00886167 0)
(0.0718758 0.00232542 0)
(0.0717736 -0.00418572 0)
(0.0718486 -0.0107185 0)
(0.0720926 -0.0173193 0)
(0.07249 -0.0240345 0)
(0.0730172 -0.0309102 0)
(0.0736416 -0.0379925 0)
(0.0743199 -0.0453265 0)
(0.0749968 -0.0529558 0)
(0.0756023 -0.0609199 0)
(0.0760497 -0.0692516 0)
(0.0762337 -0.0779713 0)
(0.076028 -0.0870781 0)
(0.0752849 -0.096537 0)
(0.0738369 -0.106257 0)
(0.071502 -0.11606 0)
(0.0680946 -0.125638 0)
(0.0634459 -0.134496 0)
(0.0574349 -0.141884 0)
(0.0500326 -0.146739 0)
(0.0413599 -0.147643 0)
(0.0317517 -0.142848 0)
(0.0217996 -0.130377 0)
(0.0123584 -0.108244 0)
(0.00471066 -0.0747572 0)
(0.000766373 -0.0289566 0)
(0.000647523 0.0272124 0)
(0.00402827 0.0704214 0)
(0.0106596 0.102318 0)
(0.0189606 0.123761 0)
(0.0278467 0.136233 0)
(0.0365629 0.141489 0)
(0.0445581 0.141296 0)
(0.0514945 0.137245 0)
(0.0572233 0.130647 0)
(0.061735 0.122504 0)
(0.065112 0.113538 0)
(0.0674888 0.104235 0)
(0.0690228 0.0949069 0)
(0.0698743 0.0857417 0)
(0.0701944 0.0768416 0)
(0.0701188 0.0682537 0)
(0.0697649 0.0599896 0)
(0.0692319 0.0520392 0)
(0.0686018 0.0443787 0)
(0.0679412 0.0369764 0)
(0.0673028 0.029796 0)
(0.0667277 0.0227988 0)
(0.0662465 0.0159448 0)
(0.0658807 0.00919373 0)
(0.0656439 0.00250534 0)
(0.0655424 -0.00416041 0)
(0.0655752 -0.0108432 0)
(0.0657344 -0.0175822 0)
(0.0660049 -0.024416 0)
(0.0663638 -0.0313824 0)
(0.0667794 -0.0385179 0)
(0.0672105 -0.0458568 0)
(0.0676049 -0.0534299 0)
(0.067898 -0.0612626 0)
(0.0680113 -0.0693715 0)
(0.0678514 -0.0777597 0)
(0.0673093 -0.0864086 0)
(0.0662613 -0.0952664 0)
(0.0645714 -0.104229 0)
(0.0620973 -0.113116 0)
(0.0587015 -0.121629 0)
(0.0542684 -0.129308 0)
(0.04873 -0.135471 0)
(0.0420999 -0.139166 0)
(0.0345163 -0.139139 0)
(0.0262866 -0.133848 0)
(0.017913 -0.12156 0)
(0.0100882 -0.100526 0)
(0.00382402 -0.069237 0)
(0.000618447 -0.0267857 0)
(0.000525129 0.0253554 0)
(0.00327623 0.0656568 0)
(0.00870154 0.0955819 0)
(0.0155557 0.115967 0)
(0.0229846 0.128168 0)
(0.0303827 0.133758 0)
(0.0372913 0.134313 0)
(0.0434118 0.131244 0)
(0.0485927 0.125719 0)
(0.0527954 0.118636 0)
(0.0560601 0.110646 0)
(0.0584758 0.102198 0)
(0.0601569 0.0935897 0)
(0.0612265 0.085006 0)
(0.0618054 0.0765583 0)
(0.0620057 0.0683068 0)
(0.0619273 0.0602784 0)
(0.0616567 0.0524783 0)
(0.0612671 0.0448972 0)
(0.0608189 0.0375168 0)
(0.0603612 0.0303126 0)
(0.0599326 0.0232565 0)
(0.0595624 0.0163177 0)
(0.0592715 0.00946431 0)
(0.0590734 0.00266365 0)
(0.0589743 -0.00411716 0)
(0.0589736 -0.0109108 0)
(0.0590642 -0.0177496 0)
(0.0592319 -0.0246645 0)
(0.0594551 -0.0316856 0)
(0.0597045 -0.0388404 0)
(0.0599419 -0.0461535 0)
(0.0601199 -0.053645 0)
(0.0601805 -0.0613284 0)
(0.0600544 -0.0692075 0)
(0.0596611 -0.0772722 0)
(0.0589086 -0.0854914 0)
(0.0576951 -0.0938027 0)
(0.0559122 -0.102097 0)
(0.0534507 -0.110194 0)
(0.0502104 -0.117813 0)
(0.0461145 -0.124527 0)
(0.0411301 -0.129717 0)
(0.0352941 -0.132524 0)
(0.0287449 -0.131822 0)
(0.0217537 -0.126234 0)
(0.0147395 -0.114204 0)
(0.00826102 -0.0941582 0)
(0.00311999 -0.0647202 0)
(0.000503052 -0.0250175 0)
(0.000427504 0.0238415 0)
(0.0026697 0.0617629 0)
(0.007107 0.0900432 0)
(0.0127511 0.1095 0)
(0.0189272 0.121397 0)
(0.025151 0.127175 0)
(0.031046 0.128265 0)
(0.0363561 0.125944 0)
(0.0409388 0.121265 0)
(0.0447421 0.11504 0)
(0.0477794 0.107861 0)
(0.0501073 0.100141 0)
(0.0518074 0.0921597 0)
(0.0529729 0.0840964 0)
(0.0536987 0.0760651 0)
(0.0540756 0.0681341 0)
(0.0541867 0.0603406 0)
(0.0541057 0.0527011 0)
(0.0538962 0.0452178 0)
(0.0536117 0.0378833 0)
(0.0532962 0.0306831 0)
(0.052985 0.0235982 0)
(0.0527051 0.0166062 0)
(0.052476 0.00968291 0)
(0.0523105 0.00280263 0)
(0.0522147 -0.00406076 0)
(0.0521884 -0.0109334 0)
(0.0522251 -0.0178409 0)
(0.0523121 -0.0248075 0)
(0.0524298 -0.0318559 0)
(0.0525518 -0.0390059 0)
(0.052644 -0.0462736 0)
(0.0526643 -0.05367 0)
(0.0525622 -0.0611989 0)
(0.0522781 -0.0688543 0)
(0.051744 -0.0766163 0)
(0.0508838 -0.0844453 0)
(0.0496153 -0.0922728 0)
(0.0478535 -0.0999879 0)
(0.0455158 -0.107417 0)
(0.0425302 -0.114295 0)
(0.0388475 -0.120229 0)
(0.0344569 -0.12465 0)
(0.0294058 -0.126779 0)
(0.0238227 -0.125592 0)
(0.0179402 -0.119834 0)
(0.012103 -0.108089 0)
(0.00675971 -0.0889104 0)
(0.00254702 -0.0610196 0)
(0.000410153 -0.0235727 0)
(0.000347106 0.0226082 0)
(0.00216749 0.0585867 0)
(0.00577827 0.0855056 0)
(0.0103942 0.104166 0)
(0.0154819 0.115761 0)
(0.0206569 0.121633 0)
(0.0256136 0.123105 0)
(0.0301375 0.121351 0)
(0.0341018 0.117334 0)
(0.0374509 0.111797 0)
(0.0401823 0.105283 0)
(0.0423304 0.0981729 0)
(0.0439524 0.0907266 0)
(0.0451175 0.0831173 0)
(0.0458992 0.075458 0)
(0.0463699 0.0678208 0)
(0.0465972 0.06025 0)
(0.0466425 0.0527702 0)
(0.0465597 0.0453924 0)
(0.0463949 0.0381177 0)
(0.0461864 0.0309401 0)
(0.0459655 0.0238482 0)
(0.0457562 0.016827 0)
(0.0455764 0.00985906 0)
(0.0454375 0.00292501 0)
(0.0453454 -0.00399514 0)
(0.0453001 -0.0109215 0)
(0.0452962 -0.0178737 0)
(0.0453223 -0.0248698 0)
(0.0453615 -0.031926 0)
(0.0453906 -0.0390555 0)
(0.04538 -0.0462672 0)
(0.0452937 -0.0535645 0)
(0.0450885 -0.0609437 0)
(0.0447146 -0.0683911 0)
(0.0441158 -0.0758799 0)
(0.0432305 -0.0833649 0)
(0.0419935 -0.0907746 0)
(0.0403391 -0.0979992 0)
(0.0382055 -0.104872 0)
(0.0355421 -0.111146 0)
(0.0323185 -0.116454 0)
(0.0285368 -0.120274 0)
(0.0242464 -0.121888 0)
(0.0195611 -0.120351 0)
(0.0146749 -0.114507 0)
(0.00986794 -0.103041 0)
(0.00549763 -0.084607 0)
(0.00206845 -0.0579978 0)
(0.00033301 -0.0223946 0)
(0.000278848 0.0216105 0)
(0.00174041 0.0560161 0)
(0.00464384 0.0818217 0)
(0.00836926 0.099813 0)
(0.0124984 0.111128 0)
(0.0167287 0.117038 0)
(0.0208162 0.118782 0)
(0.0245857 0.117455 0)
(0.0279287 0.113952 0)
(0.0307921 0.10896 0)
(0.0331652 0.102983 0)
(0.0350675 0.0963732 0)
(0.0365385 0.0893745 0)
(0.0376287 0.0821515 0)
(0.038394 0.0748146 0)
(0.0388909 0.0674378 0)
(0.0391735 0.0600694 0)
(0.0392915 0.0527398 0)
(0.0392893 0.0454665 0)
(0.0392057 0.0382574 0)
(0.0390731 0.0311132 0)
(0.0389182 0.0240289 0)
(0.0387619 0.0169957 0)
(0.0386196 0.0100018 0)
(0.0385017 0.00303366 0)
(0.0384133 -0.00392345 0)
(0.0383547 -0.0108844 0)
(0.0383214 -0.0178634 0)
(0.038304 -0.0248733 0)
(0.038288 -0.0319248 0)
(0.0382539 -0.0390252 0)
(0.038177 -0.0461776 0)
(0.038027 -0.0533795 0)
(0.0377686 -0.0606211 0)
(0.0373611 -0.0678831 0)
(0.0367591 -0.0751338 0)
(0.035914 -0.0823246 0)
(0.034775 -0.0893829 0)
(0.0332923 -0.0962014 0)
(0.0314205 -0.102621 0)
(0.0291245 -0.108409 0)
(0.0263864 -0.113223 0)
(0.0232148 -0.116578 0)
(0.019656 -0.117802 0)
(0.0158063 -0.116015 0)
(0.0118238 -0.110135 0)
(0.00793158 -0.0989268 0)
(0.00441104 -0.0811156 0)
(0.00165817 -0.0555535 0)
(0.000267037 -0.0214422 0)
(0.000219232 0.0208162 0)
(0.00136758 0.053969 0)
(0.0036512 0.0788816 0)
(0.00658952 0.0963251 0)
(0.00986015 0.107397 0)
(0.0132295 0.113311 0)
(0.0165074 0.115246 0)
(0.0195545 0.114237 0)
(0.022282 0.111127 0)
(0.024643 0.106561 0)
(0.0266235 0.101009 0)
(0.0282337 0.0948009 0)
(0.0294999 0.0881669 0)
(0.0304585 0.0812632 0)
(0.0311509 0.0741972 0)
(0.0316203 0.0670427 0)
(0.0319086 0.0598506 0)
(0.032055 0.0526553 0)
(0.0320951 0.045479 0)
(0.0320602 0.0383347 0)
(0.0319768 0.0312282 0)
(0.0318669 0.0241599 0)
(0.031748 0.0171259 0)
(0.0316331 0.0101194 0)
(0.0315308 0.00313142 0)
(0.0314458 -0.00384819 0)
(0.0313786 -0.0108298 0)
(0.0313254 -0.0178232 0)
(0.0312789 -0.0248368 0)
(0.0312274 -0.0318765 0)
(0.031155 -0.0389452 0)
(0.0310419 -0.0460411 0)
(0.0308639 -0.0531571 0)
(0.0305927 -0.0602787 0)
(0.0301965 -0.0673827 0)
(0.0296399 -0.074434 0)
(0.0288855 -0.081382 0)
(0.027895 -0.0881541 0)
(0.0266314 -0.0946458 0)
(0.0250622 -0.100706 0)
(0.0231633 -0.106112 0)
(0.0209249 -0.110544 0)
(0.0183578 -0.113543 0)
(0.015502 -0.114477 0)
(0.0124353 -0.112515 0)
(0.00928224 -0.106628 0)
(0.00621588 -0.0956413 0)
(0.00345272 -0.0783379 0)
(0.00129731 -0.0536128 0)
(0.000209043 -0.0206863 0)
(0.00016577 0.020202 0)
(0.00103371 0.052386 0)
(0.00276121 0.0766039 0)
(0.00498879 0.093615 0)
(0.00747642 0.104485 0)
(0.0100501 0.110388 0)
(0.0125669 0.112455 0)
(0.0149208 0.111679 0)
(0.0170423 0.108863 0)
(0.0188931 0.104619 0)
(0.0204592 0.0993927 0)
(0.0217449 0.0934978 0)
(0.0227675 0.0871508 0)
(0.0235523 0.0805015 0)
(0.0241289 0.0736538 0)
(0.0245291 0.0666812 0)
(0.0247841 0.0596356 0)
(0.0249236 0.0525541 0)
(0.0249748 0.0454621 0)
(0.024962 0.0383764 0)
(0.0249058 0.0313069 0)
(0.0248235 0.024258 0)
(0.024729 0.0172297 0)
(0.0246326 0.0102191 0)
(0.0245415 0.00322097 0)
(0.0244595 -0.00377119 0)
(0.024387 -0.0107641 0)
(0.0243217 -0.017764 0)
(0.0242578 -0.0247756 0)
(0.0241866 -0.0318013 0)
(0.0240959 -0.0388402 0)
(0.0239706 -0.045887 0)
(0.0237926 -0.052931 0)
(0.0235405 -0.0599544 0)
(0.0231905 -0.0669311 0)
(0.0227165 -0.0738237 0)
(0.022091 -0.0805806 0)
(0.0212862 -0.0871297 0)
(0.020276 -0.0933693 0)
(0.0190375 -0.0991537 0)
(0.0175551 -0.104272 0)
(0.0158233 -0.108418 0)
(0.0138526 -0.111154 0)
(0.0116746 -0.111878 0)
(0.00934867 -0.109793 0)
(0.00696792 -0.103913 0)
(0.00466077 -0.0931073 0)
(0.00258705 -0.0762008 0)
(0.000971911 -0.0521218 0)
(0.000156728 -0.0201054 0)
(0.000116619 0.0197513 0)
(0.00072729 0.051224 0)
(0.00194387 0.0749299 0)
(0.00351556 0.0916184 0)
(0.0052754 0.102333 0)
(0.00710214 0.108219 0)
(0.00889548 0.110374 0)
(0.0105801 0.109761 0)
(0.0121057 0.107155 0)
(0.0134435 0.103144 0)
(0.0145816 0.098157 0)
(0.0155213 0.0924931 0)
(0.0162731 0.0863603 0)
(0.0168536 0.0799026 0)
(0.0172829 0.0732212 0)
(0.0175828 0.0663884 0)
(0.017775 0.0594569 0)
(0.0178806 0.0524652 0)
(0.017919 0.0454412 0)
(0.0179075 0.0384043 0)
(0.0178612 0.0313671 0)
(0.0177927 0.024337 0)
(0.0177121 0.017317 0)
(0.0176273 0.010307 0)
(0.0175435 0.00330468 0)
(0.0174637 -0.0036937 0)
(0.0173887 -0.0106921 0)
(0.0173169 -0.0176942 0)
(0.0172445 -0.0247018 0)
(0.0171654 -0.0317148 0)
(0.0170715 -0.0387296 0)
(0.0169524 -0.0457383 0)
(0.0167955 -0.0527275 0)
(0.0165862 -0.0596772 0)
(0.0163082 -0.0665593 0)
(0.015944 -0.0733351 0)
(0.0154749 -0.0799524 0)
(0.0148825 -0.0863397 0)
(0.0141493 -0.0923976 0)
(0.0132608 -0.097985 0)
(0.0122068 -0.102898 0)
(0.0109847 -0.106842 0)
(0.00960246 -0.109394 0)
(0.00808227 -0.109973 0)
(0.0064651 -0.107806 0)
(0.00481476 -0.101937 0)
(0.00321884 -0.091268 0)
(0.00178633 -0.0746519 0)
(0.000671271 -0.0510418 0)
(0.000108365 -0.0196846 0)
(7.03416e-05 0.0194526 0)
(0.000439223 0.0504536 0)
(0.0011753 0.0738182 0)
(0.00212836 0.0902896 0)
(0.00319837 0.100897 0)
(0.00431231 0.106766 0)
(0.00540918 0.108977 0)
(0.00644254 0.108468 0)
(0.00738082 0.105999 0)
(0.00820528 0.102143 0)
(0.0089076 0.0973151 0)
(0.00948748 0.0918066 0)
(0.0099505 0.085819 0)
(0.0103062 0.0794922 0)
(0.0105664 0.0729253 0)
(0.0107441 0.0661897 0)
(0.0108528 0.0593383 0)
(0.0109053 0.0524106 0)
(0.0109136 0.0454356 0)
(0.0108885 0.0384346 0)
(0.0108395 0.0314221 0)
(0.0107746 0.0244073 0)
(0.0107003 0.0173953 0)
(0.0106216 0.0103879 0)
(0.010542 0.0033846 0)
(0.0104639 -0.0036164 0)
(0.0103878 -0.0106173 0)
(0.0103133 -0.0176198 0)
(0.0102383 -0.0246243 0)
(0.0101597 -0.0316286 0)
(0.0100731 -0.0386274 0)
(0.00997248 -0.0456113 0)
(0.00985106 -0.0525651 0)
(0.00970069 -0.0594676 0)
(0.00951232 -0.0662893 0)
(0.00927613 -0.0729908 0)
(0.00898185 -0.0795196 0)
(0.00861924 -0.0858045 0)
(0.0081787 -0.0917479 0)
(0.0076521 -0.0972114 0)
(0.0070339 -0.101996 0)
(0.00632262 -0.105813 0)
(0.00552256 -0.108251 0)
(0.00464604 -0.10874 0)
(0.00371586 -0.106524 0)
(0.00276777 -0.100665 0)
(0.00185122 -0.0900841 0)
(0.00102814 -0.0736552 0)
(0.000386815 -0.0503468 0)
(6.25819e-05 -0.0194135 0)
(2.57463e-05 0.0192987 0)
(0.000161941 0.0500556 0)
(0.000435495 0.0732424 0)
(0.000792137 0.0895991 0)
(0.00119523 0.100149 0)
(0.00161727 0.106007 0)
(0.00203454 0.108244 0)
(0.00242831 0.107789 0)
(0.0027853 0.105392 0)