/*--------------------------------*- C++ -*----------------------------------*\
  =========                 |
  \\      /  F ield         | OpenFOAM: The Open Source CFD Toolbox
   \\    /   O peration     | Website:  https://openfoam.org
    \\  /    A nd           | Version:  7
     \\/     M anipulation  |
\*---------------------------------------------------------------------------*/
FoamFile
{
    version     2.0;
    format      ascii;
    class       surfaceScalarField;
    location    "0.0766";
    object      phi;
}
// * * * * * * * * * * * * * * * * * * * * * * * * * * * * * * * * * * * * * //

dimensions      [0 3 -1 0 0 0 0];

internalField   nonuniform List<scalar> 
4900
(
5.45461e-06
-5.45462e-06
9.95309e-06
-4.49848e-06
1.26939e-05
-2.7408e-06
1.44122e-05
-1.71833e-06
1.55285e-05
-1.11633e-06
1.62819e-05
-7.53318e-07
1.68131e-05
-5.31271e-07
1.72039e-05
-3.90761e-07
1.75014e-05
-2.97472e-07
1.77338e-05
-2.32463e-07
1.7919e-05
-1.85208e-07
1.80687e-05
-1.49642e-07
1.81908e-05
-1.22118e-07
1.82911e-05
-1.00336e-07
1.83739e-05
-8.27845e-08
1.84423e-05
-6.84248e-08
1.84989e-05
-5.65182e-08
1.85454e-05
-4.65213e-08
1.85834e-05
-3.80224e-08
1.86141e-05
-3.0701e-08
1.86384e-05
-2.43003e-08
1.8657e-05
-1.86094e-08
1.86705e-05
-1.34496e-08
1.86791e-05
-8.6649e-09
1.86832e-05
-4.11498e-09
1.86829e-05
3.34095e-10
1.86781e-05
4.8054e-09
1.86687e-05
9.43318e-09
1.86543e-05
1.4352e-08
1.86346e-05
1.97121e-08
1.86089e-05
2.56843e-08
1.85765e-05
3.24709e-08
1.85361e-05
4.03183e-08
1.84866e-05
4.95368e-08
1.84261e-05
6.05275e-08
1.83522e-05
7.3824e-08
1.82621e-05
9.01563e-08
1.81515e-05
1.10553e-07
1.8015e-05
1.36514e-07
1.78447e-05
1.70313e-07
1.76292e-05
2.15554e-07
1.73509e-05
2.78226e-07
1.69821e-05
3.68793e-07
1.64758e-05
5.06335e-07
1.57496e-05
7.26224e-07
1.46576e-05
1.09201e-06
1.29452e-05
1.71242e-06
1.0162e-05
2.7832e-06
5.55723e-06
4.60473e-06
5.55723e-06
-1.19319e-07
-5.3353e-06
1.83181e-06
-6.44961e-06
4.41348e-06
-5.32247e-06
6.72992e-06
-4.03477e-06
8.6108e-06
-2.99721e-06
1.00945e-05
-2.23706e-06
1.12608e-05
-1.69754e-06
1.21837e-05
-1.31364e-06
1.29216e-05
-1.03538e-06
1.3518e-05
-8.2892e-07
1.40049e-05
-6.72073e-07
1.44055e-05
-5.50277e-07
1.47373e-05
-4.53851e-07
1.50132e-05
-3.76223e-07
1.52432e-05
-3.12813e-07
1.54351e-05
-2.60348e-07
1.5595e-05
-2.16425e-07
1.57277e-05
-1.79233e-07
1.58371e-05
-1.47376e-07
1.59261e-05
-1.19748e-07
1.59973e-05
-9.54525e-08
1.60524e-05
-7.37423e-08
1.6093e-05
-5.39792e-08
1.61199e-05
-3.56007e-08
1.61339e-05
-1.80955e-08
1.61352e-05
-9.84233e-10
1.61238e-05
1.62063e-08
1.60993e-05
3.39483e-08
1.60609e-05
5.27444e-08
1.60074e-05
7.31429e-08
1.59374e-05
9.57658e-08
1.58485e-05
1.21343e-07
1.57381e-05
1.50755e-07
1.56025e-05
1.85101e-07
1.54372e-05
2.25778e-07
1.52364e-05
2.7462e-07
1.49925e-05
3.34078e-07
1.46956e-05
4.07523e-07
1.43324e-05
4.99694e-07
1.38853e-05
6.17436e-07
1.33299e-05
7.70882e-07
1.26328e-05
9.75389e-07
1.17469e-05
1.25462e-06
1.06081e-05
1.64518e-06
9.13215e-06
2.20216e-06
7.22465e-06
2.99951e-06
4.83162e-06
4.10545e-06
2.12103e-06
5.49379e-06
1.072e-08
6.71504e-06
5.56795e-06
-1.08241e-06
-4.25289e-06
-7.53907e-07
-6.77811e-06
5.90059e-07
-6.66644e-06
2.303e-06
-5.74771e-06
4.01519e-06
-4.7094e-06
5.56798e-06
-3.78985e-06
6.91412e-06
-3.04368e-06
8.05713e-06
-2.45664e-06
9.01952e-06
-1.99776e-06
9.82798e-06
-1.63738e-06
1.05075e-05
-1.35159e-06
1.10795e-05
-1.1223e-06
1.15618e-05
-9.36149e-07
1.19689e-05
-7.83285e-07
1.23125e-05
-6.56413e-07
1.26022e-05
-5.50051e-07
1.28458e-05
-4.60012e-07
1.30496e-05
-3.83043e-07
1.32188e-05
-3.16566e-07
1.33575e-05
-2.58493e-07
1.34692e-05
-2.071e-07
1.35563e-05
-1.60926e-07
1.36211e-05
-1.18704e-07
1.36648e-05
-7.93044e-08
1.36884e-05
-4.16913e-08
1.36923e-05
-4.88356e-09
1.36764e-05
3.20859e-08
1.36401e-05
7.01913e-08
1.35824e-05
1.10463e-07
1.35016e-05
1.54021e-07
1.33952e-05
2.02127e-07
1.32603e-05
2.56247e-07
1.30929e-05
3.18129e-07
1.28881e-05
3.89914e-07
1.26396e-05
4.74285e-07
1.23395e-05
5.7467e-07
1.19781e-05
6.95541e-07
1.15428e-05
8.42826e-07
1.1018e-05
1.02451e-06
1.03839e-05
1.25148e-06
9.6161e-06
1.5387e-06
8.68484e-06
1.90665e-06
7.55658e-06
2.38288e-06
6.19945e-06
3.00231e-06
4.59875e-06
3.80287e-06
2.79215e-06
4.8061e-06
9.38369e-07
5.95922e-06
-5.70487e-07
7.00264e-06
-1.03811e-06
7.18267e-06
4.52983e-06
-9.12947e-07
-3.33994e-06
-1.34111e-06
-6.34995e-06
-9.35759e-07
-7.07178e-06
2.32442e-08
-6.70672e-06
1.24214e-06
-5.92829e-06
2.5214e-06
-5.06911e-06
3.74821e-06
-4.2705e-06
4.86983e-06
-3.57827e-06
5.86838e-06
-2.99631e-06
6.74394e-06
-2.51294e-06
7.50489e-06
-2.11254e-06
8.16267e-06
-1.78008e-06
8.72922e-06
-1.5027e-06
9.21579e-06
-1.26986e-06
9.63248e-06
-1.0731e-06
9.98811e-06
-9.05675e-07
1.02902e-05
-7.62144e-07
1.05453e-05
-6.38117e-07
1.07587e-05
-5.29989e-07
1.0935e-05
-4.34756e-07
1.10778e-05
-3.49875e-07
1.119e-05
-2.73144e-07
1.12739e-05
-2.02619e-07
1.13311e-05
-1.36543e-07
1.13627e-05
-7.32811e-08
1.13691e-05
-1.12708e-08
1.13502e-05
5.10296e-08
1.13052e-05
1.15184e-07
1.12328e-05
1.82838e-07
1.11311e-05
2.55773e-07
1.09972e-05
3.35975e-07
1.08277e-05
4.25721e-07
1.06182e-05
5.27684e-07
1.0363e-05
6.45072e-07
1.00555e-05
7.81809e-07
9.6874e-06
9.42765e-07
9.24888e-06
1.13407e-06
8.72821e-06
1.36349e-06
8.11179e-06
1.64094e-06
7.3843e-06
1.97897e-06
6.52973e-06
2.39327e-06
5.53376e-06
2.90261e-06
4.38921e-06
3.52744e-06
3.10659e-06
4.28492e-06
1.73352e-06
5.17594e-06
3.84788e-07
6.15484e-06
-7.2381e-07
7.06782e-06
-1.26537e-06
7.54421e-06
-9.15779e-07
6.83307e-06
3.61405e-06
-6.64605e-07
-2.67534e-06
-1.29657e-06
-5.71798e-06
-1.41663e-06
-6.95173e-06
-1.03994e-06
-7.08341e-06
-3.21014e-07
-6.64721e-06
5.82584e-07
-5.97271e-06
1.55258e-06
-5.2405e-06
2.51306e-06
-4.53874e-06
3.42076e-06
-3.90401e-06
4.25425e-06
-3.34644e-06
5.00548e-06
-2.86377e-06
5.67406e-06
-2.44866e-06
6.26369e-06
-2.09233e-06
6.78003e-06
-1.7862e-06
7.2294e-06
-1.52248e-06
7.61815e-06
-1.29442e-06
7.95222e-06
-1.09622e-06
8.23704e-06
-9.22929e-07
8.47735e-06
-7.70303e-07
8.67727e-06
-6.34676e-07
8.84024e-06
-5.12848e-07
8.96908e-06
-4.01976e-07
9.06595e-06
-2.99495e-07
9.13245e-06
-2.03042e-07
9.16956e-06
-1.10391e-07
9.17768e-06
-1.939e-08
9.15662e-06
7.20931e-08
9.10557e-06
1.66229e-07
9.02312e-06
2.65293e-07
8.90716e-06
3.71729e-07
8.7549e-06
4.88234e-07
8.56278e-06
6.17848e-07
8.32639e-06
7.64074e-07
8.04045e-06
9.31009e-07
7.69874e-06
1.12351e-06
7.2941e-06
1.34741e-06
6.81846e-06
1.6097e-06
6.26317e-06
1.91878e-06
5.61953e-06
2.28458e-06
4.87999e-06
2.71851e-06
4.04037e-06
3.23289e-06
3.10379e-06
3.83919e-06
2.08726e-06
4.54397e-06
1.0318e-06
5.34038e-06
1.61155e-08
6.19163e-06
-8.30501e-07
7.00145e-06
-1.32823e-06
7.56555e-06
-1.29242e-06
7.50839e-06
-6.84813e-07
6.22547e-06
2.92924e-06
-4.7054e-07
-2.2048e-06
-1.0988e-06
-5.08973e-06
-1.46614e-06
-6.58439e-06
-1.46599e-06
-7.08356e-06
-1.14413e-06
-6.96907e-06
-5.9557e-07
-6.52127e-06
8.59993e-08
-5.92207e-06
8.26692e-07
-5.27943e-06
1.57485e-06
-4.65216e-06
2.29736e-06
-4.06896e-06
2.97482e-06
-3.54122e-06
3.59713e-06
-3.07097e-06
4.16028e-06
-2.65548e-06
4.66399e-06
-2.2899e-06
5.11017e-06
-1.96866e-06
5.50189e-06
-1.68614e-06
5.84274e-06
-1.43707e-06
6.1364e-06
-1.21659e-06
6.3864e-06
-1.0203e-06
6.59593e-06
-8.44215e-07
6.76783e-06
-6.84739e-07
6.90442e-06
-5.38567e-07
7.00756e-06
-4.02642e-07
7.07861e-06
-2.74089e-07
7.11837e-06
-1.50156e-07
7.12714e-06
-2.81586e-08
7.10465e-06
9.45849e-08
7.05007e-06
2.20807e-07
6.96201e-06
3.53359e-07
6.83845e-06
4.95281e-07
6.67681e-06
6.49879e-07
6.47384e-06
8.20813e-07
6.22572e-06
1.0122e-06
5.92802e-06
1.22871e-06
5.57585e-06
1.47569e-06
5.16401e-06
1.75925e-06
4.68737e-06
2.08634e-06
4.14148e-06
2.46466e-06
3.52364e-06
2.90242e-06
2.83457e-06
3.40758e-06
2.08113e-06
3.98634e-06
1.28025e-06
4.64006e-06
4.64449e-07
5.35978e-06
-3.1172e-07
6.11655e-06
-9.66067e-07
6.84597e-06
-1.38976e-06
7.42515e-06
-1.46765e-06
7.64344e-06
-1.1353e-06
7.17604e-06
-4.9633e-07
5.5865e-06
2.43291e-06
-3.39524e-07
-1.86527e-06
-9.00767e-07
-4.52848e-06
-1.36158e-06
-6.12357e-06
-1.58061e-06
-6.86454e-06
-1.53944e-06
-7.01024e-06
-1.28013e-06
-6.78058e-06
-8.64026e-07
-6.33817e-06
-3.5023e-07
-5.79323e-06
2.12971e-07
-5.21536e-06
7.8971e-07
-4.6457e-06
1.35515e-06
-4.10666e-06
1.89316e-06
-3.60898e-06
2.39404e-06
-3.15636e-06
2.8526e-06
-2.74847e-06
3.2667e-06
-2.38275e-06
3.63615e-06
-2.0556e-06
3.962e-06
-1.76291e-06
4.24592e-06
-1.50051e-06
4.48992e-06
-1.2643e-06
4.69603e-06
-1.05033e-06
4.86618e-06
-8.54888e-07
5.00204e-06
-6.74422e-07
5.10495e-06
-5.05556e-07
5.1759e-06
-3.4504e-07
5.21546e-06
-1.89711e-07
5.22374e-06
-3.64425e-08
5.20042e-06
1.17902e-07
5.14471e-06
2.76524e-07
5.05532e-06
4.42749e-07
4.93051e-06
6.20087e-07
4.7681e-06
8.12293e-07
4.56547e-06
1.02344e-06
4.3197e-06
1.25797e-06
4.02765e-06
1.52076e-06
3.68619e-06
1.81714e-06
3.29259e-06
2.15286e-06
2.84501e-06
2.53392e-06
2.34338e-06
2.96629e-06
1.79063e-06
3.45518e-06
1.19444e-06
4.00377e-06
5.69706e-07
4.61107e-06
-5.84462e-08
5.26821e-06
-6.51337e-07
5.95267e-06
-1.15428e-06
6.6195e-06
-1.49755e-06
7.18925e-06
-1.60564e-06
7.53323e-06
-1.42227e-06
7.46007e-06
-9.5881e-07
6.71258e-06
-3.66317e-07
4.99401e-06
2.06659e-06
-2.54566e-07
-1.61071e-06
-7.39678e-07
-4.04337e-06
-1.21864e-06
-5.6446e-06
-1.55482e-06
-6.52835e-06
-1.69924e-06
-6.86583e-06
-1.65782e-06
-6.822e-06
-1.46324e-06
-6.53275e-06
-1.15637e-06
-6.10009e-06
-7.76218e-07
-5.59551e-06
-3.55516e-07
-5.0664e-06
8.03272e-08
-4.5425e-06
5.12712e-07
-4.04137e-06
9.28698e-07
-3.57235e-06
1.31976e-06
-3.13952e-06
1.68064e-06
-2.74364e-06
2.00845e-06
-2.38341e-06
2.3019e-06
-2.05637e-06
2.5608e-06
-1.75941e-06
2.78557e-06
-1.48907e-06
2.97702e-06
-1.24178e-06
3.13608e-06
-1.01395e-06
3.26365e-06
-8.01993e-07
3.3605e-06
-6.02404e-07
3.42717e-06
-4.11712e-07
3.46394e-06
-2.26475e-07
3.47075e-06
-4.32554e-08
3.44723e-06
1.41421e-07
3.39265e-06
3.311e-07
3.30596e-06
5.29443e-07
3.18578e-06
7.40269e-07
3.03048e-06
9.67592e-07
2.83826e-06
1.21566e-06
2.60729e-06
1.48894e-06
2.33589e-06
1.79216e-06
2.02287e-06
2.13016e-06
1.66798e-06
2.50775e-06
1.27249e-06
2.92941e-06
8.40148e-07
3.39864e-06
3.7829e-07
3.91703e-06
-1.00614e-07
4.48267e-06
-5.7722e-07
5.08768e-06
-1.02354e-06
5.71453e-06
-1.4018e-06
6.33093e-06
-1.66518e-06
6.88288e-06
-1.76257e-06
7.28664e-06
-1.65053e-06
7.42119e-06
-1.31564e-06
7.12519e-06
-8.08361e-07
6.2053e-06
-2.80887e-07
4.46653e-06
1.78571e-06
-1.98962e-07
-1.41175e-06
-6.16785e-07
-3.62555e-06
-1.08122e-06
-5.18016e-06
-1.47406e-06
-6.13551e-06
-1.7359e-06
-6.60399e-06
-1.85129e-06
-6.70661e-06
-1.83153e-06
-6.55251e-06
-1.70086e-06
-6.23076e-06
-1.4873e-06
-5.80907e-06
-1.21748e-06
-5.33622e-06
-9.14243e-07
-4.84574e-06
-5.95909e-07
-4.3597e-06
-2.76479e-07
-3.89178e-06
3.37913e-08
-3.44979e-06
3.27691e-07
-3.03754e-06
6.00369e-07
-2.65608e-06
8.48738e-07
-2.30474e-06
1.07098e-06
-1.98165e-06
1.26618e-06
-1.68426e-06
1.43395e-06
-1.40956e-06
1.57429e-06
-1.15429e-06
1.68734e-06
-9.15042e-07
1.77327e-06
-6.88333e-07
1.83218e-06
-4.70627e-07
1.86406e-06
-2.58348e-07
1.86868e-06
-4.78817e-08
1.84566e-06
1.64447e-07
1.79437e-06
3.82387e-07
1.71403e-06
6.09782e-07
1.60371e-06
8.5059e-07
1.46242e-06
1.10888e-06
1.28922e-06
1.38885e-06
1.08344e-06
1.69473e-06
8.44848e-07
2.03075e-06
5.74085e-07
2.40092e-06
2.73079e-07
2.80876e-06
-5.43179e-08
3.2568e-06
-4.01539e-07
3.74586e-06
-7.58358e-07
4.27385e-06
-1.10984e-06
4.83416e-06
-1.43536e-06
5.41319e-06
-1.70804e-06
5.98722e-06
-1.89532e-06
6.5182e-06
-1.96155e-06
6.94911e-06
-1.87425e-06
7.19934e-06
-1.61539e-06
7.16234e-06
-1.19854e-06
6.70833e-06
-6.89691e-07
5.69645e-06
-2.24215e-07
4.00106e-06
1.56149e-06
-1.61616e-07
-1.25013e-06
-5.24857e-07
-3.26231e-06
-9.63197e-07
-4.74182e-06
-1.37891e-06
-5.71981e-06
-1.71256e-06
-6.27033e-06
-1.93778e-06
-6.48139e-06
-2.05153e-06
-6.43875e-06
-2.06484e-06
-6.21745e-06
-1.99547e-06
-5.87844e-06
-1.86306e-06
-5.46863e-06
-1.68628e-06
-5.02253e-06
-1.48141e-06
-4.56457e-06
-1.2619e-06
-4.11129e-06
-1.03837e-06
-3.67333e-06
-8.18916e-07
-3.25699e-06
-6.09546e-07
-2.86545e-06
-4.14562e-07
-2.49972e-06
-2.36966e-07
-2.15925e-06
-7.87817e-08
-1.84244e-06
5.86698e-08
-1.54701e-06
1.74546e-07
-1.27016e-06
2.68309e-07
-1.00881e-06
3.39595e-07
-7.59619e-07
3.88109e-07
-5.19141e-07
4.13559e-07
-2.83798e-07
4.15608e-07
-4.99303e-08
3.93854e-07
1.86201e-07
3.47837e-07
4.28404e-07
2.77063e-07
6.80556e-07
1.81068e-07
9.46585e-07
5.95112e-08
1.23044e-06
-8.76868e-08
1.53605e-06
-2.60148e-07
1.86719e-06
-4.56776e-07
2.22738e-06
-6.75413e-07
2.61956e-06
-9.1241e-07
3.04575e-06
-1.16209e-06
3.50648e-06
-1.41613e-06
3.9999e-06
-1.66295e-06
4.52067e-06
-1.88711e-06
5.05831e-06
-2.06906e-06
5.59514e-06
-2.18551e-06
6.10368e-06
-2.21102e-06
6.54371e-06
-2.12141e-06
6.8595e-06
-1.89995e-06
6.97788e-06
-1.54658e-06
6.80897e-06
-1.08973e-06
6.25148e-06
-5.9794e-07
5.20466e-06
-1.85422e-07
3.58854e-06
1.37607e-06
-1.35804e-07
-1.11433e-06
-4.56253e-07
-2.94186e-06
-8.66608e-07
-4.33147e-06
-1.28735e-06
-5.29906e-06
-1.66362e-06
-5.89406e-06
-1.96454e-06
-6.18047e-06
-2.17834e-06
-6.22496e-06
-2.3064e-06
-6.08939e-06
-2.35794e-06
-5.82689e-06
-2.34598e-06
-5.4806e-06
-2.28449e-06
-5.08402e-06
-2.18683e-06
-4.66223e-06
-2.06484e-06
-4.23328e-06
-1.92852e-06
-3.80965e-06
-1.78599e-06
-3.39952e-06
-1.64369e-06
-3.00776e-06
-1.50656e-06
-2.63685e-06
-1.37835e-06
-2.28745e-06
-1.26186e-06
-1.95894e-06
-1.15911e-06
-1.64976e-06
-1.0716e-06
-1.35768e-06
-1.0004e-06
-1.08001e-06
-9.46319e-07
-8.13696e-07
-9.09987e-07
-5.55473e-07
-8.91905e-07
-3.0188e-07
-8.92502e-07
-4.93338e-08
-9.12143e-07
2.05842e-07
-9.51126e-07
4.67387e-07
-1.00964e-06
7.39069e-07
-1.0877e-06
1.02464e-06
-1.18504e-06
1.32778e-06
-1.30099e-06
1.65199e-06
-1.43425e-06
2.00045e-06
-1.58268e-06
2.37581e-06
-1.74297e-06
2.77985e-06
-1.91032e-06
3.2131e-06
-2.07797e-06
3.67414e-06
-2.2369e-06
4.15883e-06
-2.3754e-06
4.65917e-06
-2.47901e-06
5.16192e-06
-2.53075e-06
5.64688e-06
-2.51211e-06
6.08503e-06
-2.40505e-06
6.43665e-06
-2.19558e-06
6.65003e-06
-1.87903e-06
6.66132e-06
-1.46695e-06
6.39689e-06
-9.94619e-07
5.77915e-06
-5.26811e-07
4.73686e-06
-1.57863e-07
3.21959e-06
1.21821e-06
-1.17488e-07
-9.96838e-07
-4.04828e-07
-2.65452e-06
-7.89361e-07
-3.94694e-06
-1.2064e-06
-4.88202e-06
-1.60712e-06
-5.49334e-06
-1.95983e-06
-5.82777e-06
-2.24785e-06
-5.93694e-06
-2.46602e-06
-5.87123e-06
-2.61695e-06
-5.67596e-06
-2.70792e-06
-5.38963e-06
-2.74842e-06
-5.04352e-06
-2.74857e-06
-4.66208e-06
-2.71806e-06
-4.26378e-06
-2.66563e-06
-3.86208e-06
-2.59881e-06
-3.46634e-06
-2.52387e-06
-3.08269e-06
-2.44595e-06
-2.71477e-06
-2.36913e-06
-2.36427e-06
-2.29662e-06
-2.03145e-06
-2.23092e-06
-1.71545e-06
-2.17396e-06
-1.41464e-06
-2.12723e-06
-1.12674e-06
-2.09183e-06
-8.49087e-07
-2.06866e-06
-5.78651e-07
-2.05834e-06
-3.12193e-07
-2.06137e-06
-4.63076e-08
-2.07804e-06
2.22514e-07
-2.10848e-06
4.97828e-07
-2.1526e-06
7.83183e-07
-2.21e-06
1.08204e-06
-2.2799e-06
1.39769e-06
-2.36102e-06
1.73311e-06
-2.45135e-06
2.09078e-06
-2.54799e-06
2.47245e-06
-2.64692e-06
2.87878e-06
-2.74269e-06
3.30886e-06
-2.82821e-06
3.75966e-06
-2.89454e-06
4.22516e-06
-2.93084e-06
4.69547e-06
-2.92453e-06
5.15562e-06
-2.86199e-06
5.58434e-06
-2.72971e-06
5.95275e-06
-2.51653e-06
6.22347e-06
-2.2167e-06
6.3502e-06
-1.83416e-06
6.27878e-06
-1.38731e-06
5.95003e-06
-9.13424e-07
5.30527e-06
-4.71003e-07
4.29443e-06
-1.37564e-07
2.88615e-06
1.08064e-06
-1.04206e-07
-8.92632e-07
-3.66033e-07
-2.39269e-06
-7.28289e-07
-3.58468e-06
-1.1379e-06
-4.47241e-06
-1.55204e-06
-5.0792e-06
-1.9401e-06
-5.43971e-06
-2.28302e-06
-5.59401e-06
-2.5714e-06
-5.58285e-06
-2.80301e-06
-5.44435e-06
-2.98046e-06
-5.21218e-06
-3.1093e-06
-4.91469e-06
-3.19647e-06
-4.5749e-06
-3.24936e-06
-4.2109e-06
-3.2751e-06
-3.83634e-06
-3.28021e-06
-3.46122e-06
-3.27044e-06
-3.09247e-06
-3.25067e-06
-2.73454e-06
-3.22501e-06
-2.38994e-06
-3.19681e-06
-2.05965e-06
-3.1688e-06
-1.74347e-06
-3.14314e-06
-1.4403e-06
-3.12155e-06
-1.14833e-06
-3.10537e-06
-8.65266e-07
-3.09561e-06
-5.88411e-07
-3.093e-06
-3.148e-07
-3.09803e-06
-4.12846e-08
-3.11091e-06
2.35393e-07
-3.1316e-06
5.18522e-07
-3.15975e-06
8.11339e-07
-3.19465e-06
1.11694e-06
-3.2351e-06
1.43814e-06
-3.27935e-06
1.77736e-06
-3.32493e-06
2.13636e-06
-3.36849e-06
2.51601e-06
-3.40566e-06
2.91594e-06
-3.43085e-06
3.33406e-06
-3.43719e-06
3.766e-06
-3.41647e-06
4.20444e-06
-3.3593e-06
4.6383e-06
-3.25553e-06
5.05186e-06
-3.09507e-06
5.42387e-06
-2.86919e-06
5.72688e-06
-2.57253e-06
5.9268e-06
-2.20567e-06
5.98334e-06
-1.77832e-06
5.85143e-06
-1.31243e-06
5.48415e-06
-8.44628e-07
4.83747e-06
-4.26559e-07
3.87637e-06
-1.22132e-07
2.58173e-06
9.5851e-07
-9.44095e-08
-7.98223e-07
-3.36583e-07
-2.15052e-06
-6.80298e-07
-3.24097e-06
-1.08139e-06
-4.07132e-06
-1.50243e-06
-4.65816e-06
-1.91469e-06
-5.02745e-06
-2.29828e-06
-5.21042e-06
-2.6412e-06
-5.23993e-06
-2.93779e-06
-5.14776e-06
-3.18709e-06
-4.96288e-06
-3.39128e-06
-4.7105e-06
-3.55447e-06
-4.41171e-06
-3.68177e-06
-4.08359e-06
-3.77861e-06
-3.73951e-06
-3.85028e-06
-3.38955e-06
-3.90171e-06
-3.04104e-06
-3.93731e-06
-2.69893e-06
-3.96093e-06
-2.36632e-06
-3.97583e-06
-2.04475e-06
-3.98475e-06
-1.73455e-06
-3.98993e-06
-1.43511e-06
-3.9932e-06
-1.14507e-06
-3.99596e-06
-8.625e-07
-3.99931e-06
-5.85068e-07
-4.00398e-06
-3.10128e-07
-4.01042e-06
-3.48395e-08
-4.01877e-06
2.43744e-07
-4.02884e-06
5.28584e-07
-4.04005e-06
8.22551e-07
-4.05143e-06
1.12832e-06
-4.06151e-06
1.44822e-06
-4.06824e-06
1.78409e-06
-4.06889e-06
2.13701e-06
-4.05995e-06
2.50707e-06
-4.03702e-06
2.89302e-06
-3.9948e-06
3.29183e-06
-3.92702e-06
3.69822e-06
-3.82663e-06
4.10405e-06
-3.68604e-06
4.49771e-06
-3.49768e-06
4.8635e-06
-3.25488e-06
5.18108e-06
-2.95311e-06
5.42511e-06
-2.59169e-06
5.56537e-06
-2.17582e-06
5.56748e-06
-1.71885e-06
5.39446e-06
-1.24418e-06
5.00948e-06
-7.8637e-07
4.37966e-06
-3.90645e-07
3.48064e-06
-1.10088e-07
2.30117e-06
8.48422e-07
-8.70935e-08
-7.11129e-07
-3.14115e-07
-1.9235e-06
-6.42722e-07
-2.91236e-06
-1.03555e-06
-3.67849e-06
-1.45974e-06
-4.23397e-06
-1.88867e-06
-4.59852e-06
-2.30251e-06
-4.79658e-06
-2.6878e-06
-4.85464e-06
-3.03654e-06
-4.79902e-06
-3.34504e-06
-4.65438e-06
-3.61278e-06
-4.44275e-06
-3.84145e-06
-4.18305e-06
-4.03403e-06
-3.891e-06
-4.19429e-06
-3.57925e-06
-4.32623e-06
-3.25761e-06
-4.43384e-06
-2.93343e-06
-4.52085e-06
-2.61192e-06
-4.59067e-06
-2.29649e-06
-4.64632e-06
-1.9891e-06
-4.69038e-06
-1.69049e-06
-4.72503e-06
-1.40046e-06
-4.75206e-06
-1.11803e-06
-4.7729e-06
-8.41666e-07
-4.78859e-06
-5.69375e-07
-4.79986e-06
-2.98858e-07
-4.80709e-06
-2.76114e-08
-4.81031e-06
2.46966e-07
-4.8092e-06
5.27471e-07
-4.80303e-06
8.16383e-07
-4.79065e-06
1.11594e-06
-4.77042e-06
1.42799e-06
-4.74014e-06
1.75381e-06
-4.69703e-06
2.09389e-06
-4.63763e-06
2.44767e-06
-4.55783e-06
2.81322e-06
-4.45283e-06
3.18684e-06
-4.31731e-06
3.5627e-06
-4.14558e-06
3.93232e-06
-3.93198e-06
4.28411e-06
-3.67147e-06
4.60299e-06
-3.36047e-06
4.87007e-06
-2.99796e-06
5.0626e-06
-2.5869e-06
5.15432e-06
-2.13574e-06
5.11632e-06
-1.65992e-06
4.91863e-06
-1.18299e-06
4.53255e-06
-7.3694e-07
3.93361e-06
-3.61259e-07
3.10496e-06
-1.00493e-07
2.0404e-06
7.47929e-07
-8.15814e-08
-6.29548e-07
-2.96911e-07
-1.70817e-06
-6.13379e-07
-2.59589e-06
-9.98802e-07
-3.29307e-06
-1.42406e-06
-3.80871e-06
-1.86461e-06
-4.15797e-06
-2.30111e-06
-4.36008e-06
-2.71937e-06
-4.43637e-06
-3.10984e-06
-4.40855e-06
-3.46683e-06
-4.29739e-06
-3.78771e-06
-4.12187e-06
-4.0721e-06
-3.89866e-06
-4.32117e-06
-3.64193e-06
-4.53711e-06
-3.36331e-06
-4.72265e-06
-3.07207e-06
-4.88078e-06
-2.7753e-06
-5.01451e-06
-2.4782e-06
-5.12668e-06
-2.18432e-06
-5.21994e-06
-1.89585e-06
-5.29659e-06
-1.61384e-06
-5.35867e-06
-1.33838e-06
-5.40783e-06
-1.06887e-06
-5.44541e-06
-8.0409e-07
-5.47239e-06
-5.42395e-07
-5.48942e-06
-2.81828e-07
-5.49679e-06
-2.02354e-08
-5.49445e-06
2.44627e-07
-5.48196e-06
5.14981e-07
-5.45849e-06
7.92911e-07
-5.42278e-06
1.08023e-06
-5.37312e-06
1.37833e-06
-5.30731e-06
1.68801e-06
-5.22266e-06
2.00925e-06
-5.11597e-06
2.34099e-06
-4.98358e-06
2.68082e-06
-4.82142e-06
3.02468e-06
-4.62522e-06
3.36651e-06
-4.39078e-06
3.69787e-06
-4.11433e-06
4.00766e-06
-3.79316e-06
4.28183e-06
-3.42637e-06
4.50328e-06
-3.01581e-06
4.65203e-06
-2.56714e-06
4.70565e-06
-2.09099e-06
4.64017e-06
-1.60387e-06
4.43151e-06
-1.12875e-06
4.05742e-06
-6.94923e-07
3.49978e-06
-3.36982e-07
2.74702e-06
-9.27312e-08
1.79615e-06
6.55198e-07
-7.74047e-08
-5.52143e-07
-2.83713e-07
-1.50186e-06
-5.90532e-07
-2.28907e-06
-9.69616e-07
-2.91398e-06
-1.39488e-06
-3.38345e-06
-1.84363e-06
-3.70922e-06
-2.29722e-06
-3.90649e-06
-2.7412e-06
-3.9924e-06
-3.165e-06
-3.98475e-06
-3.56152e-06
-3.90087e-06
-3.92647e-06
-3.75692e-06
-4.2578e-06
-3.56733e-06
-4.55512e-06
-3.34461e-06
-4.81923e-06
-3.09921e-06
-5.05167e-06
-2.83963e-06
-5.25446e-06
-2.57251e-06
-5.42982e-06
-2.30283e-06
-5.58003e-06
-2.03412e-06
-5.70724e-06
-1.76864e-06
-5.81347e-06
-1.50761e-06
-5.90046e-06
-1.25139e-06
-5.96972e-06
-9.99617e-07
-6.02242e-06
-7.51388e-07
-6.05944e-06
-5.05372e-07
-6.08133e-06
-2.59942e-07
-6.08828e-06
-1.32845e-08
-6.08014e-06
2.36491e-07
-6.0564e-06
4.91242e-07
-6.01616e-06
7.52669e-07
-5.95813e-06
1.0222e-06
-5.88061e-06
1.30081e-06
-5.78151e-06
1.58891e-06
-5.65836e-06
1.88609e-06
-5.50832e-06
2.19095e-06
-5.32831e-06
2.50081e-06
-5.1151e-06
2.81147e-06
-4.86555e-06
3.11696e-06
-4.57689e-06
3.40921e-06
-4.24714e-06
3.67791e-06
-3.87565e-06
3.91033e-06
-3.46375e-06
4.09139e-06
-3.01555e-06
4.20383e-06
-2.53871e-06
4.22881e-06
-2.04523e-06
4.14669e-06
-1.55203e-06
3.93831e-06
-1.0811e-06
3.58649e-06
-6.59202e-07
3.07789e-06
-3.16806e-07
2.40462e-06
-8.63888e-08
1.56574e-06
5.68809e-07
-7.42313e-08
-4.77912e-07
-2.73591e-07
-1.3025e-06
-5.72808e-07
-1.98985e-06
-9.4664e-07
-2.54015e-06
-1.37141e-06
-2.95868e-06
-1.82604e-06
-3.2546e-06
-2.29262e-06
-3.4399e-06
-2.75667e-06
-3.52834e-06
-3.20704e-06
-3.53438e-06
-3.6356e-06
-3.47232e-06
-4.0368e-06
-3.35572e-06
-4.40726e-06
-3.19687e-06
-4.7453e-06
-3.00657e-06
-5.05048e-06
-2.79402e-06
-5.32331e-06
-2.5668e-06
-5.56489e-06
-2.33093e-06
-5.77669e-06
-2.09103e-06
-5.96037e-06
-1.85043e-06
-6.11764e-06
-1.61137e-06
-6.2501e-06
-1.37514e-06
-6.35925e-06
-1.14224e-06
-6.44634e-06
-9.12529e-07
-6.51238e-06
-6.85344e-07
-6.55811e-06
-4.59642e-07
-6.58395e-06
-2.341e-07
-6.59001e-06
-7.22665e-09
-6.57605e-06
2.22533e-07
-6.5415e-06
4.56691e-07
-6.48543e-06
6.96602e-07
-6.40658e-06
9.4334e-07
-6.30333e-06
1.19756e-06
-6.17376e-06
1.45934e-06
-6.0157e-06
1.72803e-06
-5.82677e-06
2.00201e-06
-5.60452e-06
2.27855e-06
-5.34658e-06
2.55354e-06
-5.05093e-06
2.82131e-06
-4.71614e-06
3.07443e-06
-4.34184e-06
3.3036e-06
-3.92912e-06
3.49762e-06
-3.48116e-06
3.64343e-06
-3.0038e-06
3.72647e-06
-2.5061e-06
3.73112e-06
-2.00092e-06
3.64151e-06
-1.50514e-06
3.44252e-06
-1.03965e-06
3.12101e-06
-6.28921e-07
2.66716e-06
-3.00012e-07
2.07571e-06
-8.11808e-08
1.3469e-06
4.87628e-07
-7.18218e-08
-4.0609e-07
-2.65849e-07
-1.10847e-06
-5.59136e-07
-1.69657e-06
-9.28724e-07
-2.17056e-06
-1.35284e-06
-2.53456e-06
-1.81173e-06
-2.79571e-06
-2.28821e-06
-2.96342e-06
-2.76794e-06
-3.04862e-06
-3.23939e-06
-3.06293e-06
-3.69371e-06
-3.018e-06
-4.12444e-06
-2.92499e-06
-4.52714e-06
-2.79416e-06
-4.89906e-06
-2.63466e-06
-5.23875e-06
-2.45434e-06
-5.54577e-06
-2.25978e-06
-5.82043e-06
-2.05628e-06
-6.0635e-06
-1.84796e-06
-6.27606e-06
-1.63787e-06
-6.45935e-06
-1.42809e-06
-6.6146e-06
-1.21989e-06
-6.74299e-06
-1.01386e-06
-6.84554e-06
-8.09979e-07
-6.92307e-06
-6.0781e-07
-6.97617e-06
-4.06547e-07
-7.00513e-06
-2.05142e-07
-7.00996e-06
-2.39637e-09
-6.99036e-06
2.02934e-07
-6.94572e-06
4.12051e-07
-6.87512e-06
6.26001e-07
-6.77734e-06
8.45563e-07
-6.65091e-06
1.07113e-06
-6.49413e-06
1.30256e-06
-6.30516e-06
1.53905e-06
-6.0821e-06
1.77895e-06
-5.82315e-06
2.01961e-06
-5.5268e-06
2.25719e-06
-5.19203e-06
2.48654e-06
-4.81865e-06
2.70105e-06
-4.40766e-06
2.89261e-06
-3.96162e-06
3.05158e-06
-3.48518e-06
3.16699e-06
-2.98547e-06
3.22676e-06
-2.47256e-06
3.21821e-06
-1.95974e-06
3.12869e-06
-1.46363e-06
2.94642e-06
-1.00404e-06
2.66142e-06
-6.03432e-07
2.26655e-06
-2.8608e-07
1.75836e-06
-7.69082e-08
1.13773e-06
4.1072e-07
-7.00015e-08
-3.36088e-07
-2.59968e-07
-9.18505e-07
-5.48685e-07
-1.40785e-06
-9.1492e-07
-1.80433e-06
-1.33838e-06
-2.1111e-06
-1.8004e-06
-2.33368e-06
-2.28444e-06
-2.47938e-06
-2.77633e-06
-2.55673e-06
-3.26436e-06
-2.5749e-06
-3.73918e-06
-2.54317e-06
-4.19365e-06
-2.47053e-06
-4.6225e-06
-2.36531e-06
-5.02213e-06
-2.23503e-06
-5.39026e-06
-2.08621e-06
-5.72567e-06
-1.92436e-06
-6.02796e-06
-1.754e-06
-6.29727e-06
-1.57864e-06
-6.53418e-06
-1.40096e-06
-6.73947e-06
-1.2228e-06
-6.91403e-06
-1.04534e-06
-7.05872e-06
-8.69161e-07
-7.17434e-06
-6.94357e-07
-7.26152e-06
-5.20631e-07
-7.32068e-06
-3.47385e-07
-7.35201e-06
-1.73813e-07
-7.35543e-06
1.01901e-09
-7.33057e-06
1.7808e-07
-7.27682e-06
3.58297e-07
-7.19327e-06
5.4245e-07
-7.07879e-06
7.31084e-07
-6.93205e-06
9.24396e-07
-6.75161e-06
1.12212e-06
-6.53597e-06
1.32341e-06
-6.2837e-06
1.52669e-06
-5.99363e-06
1.72954e-06
-5.66501e-06
1.92856e-06
-5.29774e-06
2.11927e-06
-4.8927e-06
2.29601e-06
-4.45203e-06
2.45194e-06
-3.9795e-06
2.57905e-06
-3.48089e-06
2.66837e-06
-2.96429e-06
2.71016e-06
-2.44045e-06
2.69436e-06
-1.92285e-06
2.61109e-06
-1.42777e-06
2.45133e-06
-9.73972e-07
2.20762e-06
-5.82253e-07
1.87483e-06
-2.74639e-07
1.45075e-06
-7.34307e-08
9.36524e-07
3.3729e-07
-6.86424e-08
-2.67446e-07
-2.55559e-07
-7.31588e-07
-5.40812e-07
-1.1226e-06
-9.04465e-07
-1.44067e-06
-1.32735e-06
-1.68821e-06
-1.79168e-06
-1.86936e-06
-2.28143e-06
-1.98963e-06
-2.78264e-06
-2.05552e-06
-3.28351e-06
-2.07403e-06
-3.77436e-06
-2.05232e-06
-4.24752e-06
-1.99737e-06
-4.69714e-06
-1.9157e-06
-5.11892e-06
-1.81324e-06
-5.50993e-06
-1.6952e-06
-5.8683e-06
-1.56599e-06
-6.19304e-06
-1.42926e-06
-6.48379e-06
-1.2879e-06
-6.74064e-06
-1.14411e-06
-6.96399e-06
-9.99442e-07
-7.15441e-06
-8.54918e-07
-7.31251e-06
-7.11065e-07
-7.43885e-06
-5.6802e-07
-7.53388e-06
-4.25599e-07
-7.59789e-06
-2.83375e-07
-7.63095e-06
-1.40749e-07
-7.63292e-06
2.98077e-09
-7.60338e-06
1.48541e-07
-7.5417e-06
2.96617e-07
-7.44702e-06
4.47773e-07
-7.3183e-06
6.02368e-07
-7.15438e-06
7.60474e-07
-6.95404e-06
9.21774e-07
-6.7161e-06
1.08547e-06
-6.4396e-06
1.25018e-06
-6.1239e-06
1.41384e-06
-5.76892e-06
1.57359e-06
-5.37537e-06
1.72572e-06
-4.94499e-06
1.86563e-06
-4.48087e-06
1.98781e-06
-3.98772e-06
2.0859e-06
-3.47218e-06
2.15283e-06
-2.94305e-06
2.18104e-06
-2.41151e-06
2.16282e-06
-1.8911e-06
2.09069e-06
-1.3977e-06
1.95794e-06
-9.4921e-07
1.75913e-06
-5.65031e-07
1.49065e-06
-2.65421e-07
1.15114e-06
-7.06488e-08
7.41752e-07
2.66641e-07
-6.76508e-08
-1.99795e-07
-2.52333e-07
-5.46905e-07
-5.35033e-07
-8.39898e-07
-8.96761e-07
-1.07895e-06
-1.3192e-06
-1.26578e-06
-1.7852e-06
-1.40336e-06
-2.27917e-06
-1.49565e-06
-2.78735e-06
-1.54734e-06
-3.29789e-06
-1.56349e-06
-3.8009e-06
-1.54932e-06
-4.28833e-06
-1.50993e-06
-4.75389e-06
-1.45015e-06
-5.19277e-06
-1.37436e-06
-5.60153e-06
-1.28644e-06
-5.9778e-06
-1.18972e-06
-6.32011e-06
-1.08695e-06
-6.62767e-06
-9.80335e-07
-6.90022e-06
-8.7156e-07
-7.13782e-06
-7.6184e-07
-7.34077e-06
-6.51973e-07
-7.50943e-06
-5.42396e-07
-7.6442e-06
-4.3325e-07
-7.74538e-06
-3.24428e-07
-7.81311e-06
-2.1564e-07
-7.84739e-06
-1.06466e-07
-7.848e-06
3.59121e-09
-7.81451e-06
1.15048e-07
-7.74628e-06
2.28384e-07
-7.64249e-06
3.43983e-07
-7.50219e-06
4.6207e-07
-7.32436e-06
5.82644e-07
-7.10799e-06
7.05409e-07
-6.85222e-06
8.29696e-07
-6.55642e-06
9.54394e-07
-6.22046e-06
1.07787e-06
-5.84479e-06
1.19792e-06
-5.43077e-06
1.3117e-06
-4.98083e-06
1.4157e-06
-4.4988e-06
1.50578e-06
-3.9901e-06
1.5772e-06
-3.46201e-06
1.62474e-06
-2.92384e-06
1.64287e-06
-2.38701e-06
1.62599e-06
-1.86508e-06
1.56875e-06
-1.37355e-06
1.4664e-06
-9.29579e-07
1.31516e-06
-5.51509e-07
1.11258e-06
-2.58235e-07
8.57863e-07
-6.84922e-08
5.52009e-07
1.98149e-07
-6.69599e-08
-1.32835e-07
-2.50081e-07
-3.63785e-07
-5.30989e-07
-5.5899e-07
-8.91357e-07
-7.1858e-07
-1.31346e-06
-8.43673e-07
-1.78063e-06
-9.36189e-07
-2.2776e-06
-9.98688e-07
-2.79074e-06
-1.0342e-06
-3.3082e-06
-1.04603e-06
-3.81994e-06
-1.03757e-06
-4.31769e-06
-1.01218e-06
-4.79481e-06
-9.73023e-07
-5.24617e-06
-9.23002e-07
-5.66791e-06
-8.64694e-07
-6.05732e-06
-8.00314e-07
-6.41256e-06
-7.31708e-07
-6.73254e-06
-6.60359e-07
-7.01669e-06
-5.8741e-07
-7.26484e-06
-5.13689e-07
-7.47706e-06
-4.39748e-07
-7.65356e-06
-3.65898e-07
-7.79456e-06
-2.92249e-07
-7.90024e-06
-2.18746e-07
-7.97067e-06
-1.45211e-07
-8.00576e-06
-7.13764e-08
-8.00524e-06
3.07335e-09
-7.96866e-06
7.84678e-08
-7.89539e-06
1.5511e-07
-7.78465e-06
2.33237e-07
-7.63555e-06
3.12977e-07
-7.44721e-06
3.94302e-07
-7.21879e-06
4.76985e-07
-6.94964e-06
5.60549e-07
-6.63946e-06
6.44216e-07
-6.28845e-06
7.26863e-07
-5.89751e-06
8.06983e-07
-5.46847e-06
8.82652e-07
-5.00429e-06
9.51518e-07
-4.50933e-06
1.01081e-06
-3.98952e-06
1.05739e-06
-3.4526e-06
1.08782e-06
-2.90819e-06
1.09847e-06
-2.36791e-06
1.0857e-06
-1.84523e-06
1.04608e-06
-1.35538e-06
9.76549e-07
-9.14953e-07
8.74736e-07
-5.41506e-07
7.39135e-07
-2.52948e-07
5.69305e-07
-6.69119e-08
3.65973e-07
1.31237e-07
-6.65232e-08
-6.63118e-08
-2.48655e-07
-1.81653e-07
-5.28426e-07
-2.79219e-07
-8.87927e-07
-3.59079e-07
-1.30982e-06
-4.21784e-07
-1.77773e-06
-4.68275e-07
-2.27661e-06
-4.9981e-07
-2.79293e-06
-5.17878e-07
-3.31485e-06
-5.24107e-07
-3.83225e-06
-5.20174e-07
-4.33669e-06
-5.07737e-07
-4.82135e-06
-4.88367e-07
-5.28084e-06
-4.6351e-07
-5.71109e-06
-4.34448e-07
-6.10911e-06
-4.0229e-07
-6.47286e-06
-3.67962e-07
-6.80101e-06
-3.32208e-07
-7.09281e-06
-2.95606e-07
-7.34793e-06
-2.58575e-07
-7.56628e-06
-2.21397e-07
-7.74794e-06
-1.84233e-07
-7.89305e-06
-1.47143e-07
-8.00169e-06
-1.10105e-07
-8.07387e-06
-7.30344e-08
-8.10944e-06
-3.58016e-08
-8.10812e-06
1.74704e-09
-8.06942e-06
3.97715e-08
-7.99273e-06
7.84183e-08
-7.87729e-06
1.178e-07
-7.72229e-06
1.57973e-07
-7.5269e-06
1.98917e-07
-7.29042e-06
2.40508e-07
-7.01237e-06
2.82498e-07
-6.69264e-06
3.24488e-07