/*--------------------------------*- C++ -*----------------------------------*\
  =========                 |
  \\      /  F ield         | OpenFOAM: The Open Source CFD Toolbox
   \\    /   O peration     | Website:  https://openfoam.org
    \\  /    A nd           | Version:  7
     \\/     M anipulation  |
\*---------------------------------------------------------------------------*/
FoamFile
{
    version     2.0;
    format      ascii;
    class       volScalarField;
    location    "0.0002";
    object      p;
}
// * * * * * * * * * * * * * * * * * * * * * * * * * * * * * * * * * * * * * //

dimensions      [0 2 -2 0 0 0 0];

internalField   nonuniform List<scalar> 
2500
(
4.62442e-07
5.86995
8.63898
10.1057
11.1354
11.9313
12.5775
13.125
13.6038
14.0323
14.4225
14.7831
15.12
15.438
15.7405
16.0305
16.3101
16.5811
16.8453
17.1037
17.3576
17.608
17.8557
18.1016
18.3464
18.5909
18.8357
19.0816
19.3293
19.5797
19.8335
20.0919
20.356
20.6269
20.9063
21.196
21.4983
21.8159
22.1523
22.5122
22.9017
23.3292
23.8069
24.3532
24.9985
25.7945
26.8296
28.3149
31.1179
37.0343
5.45916
7.62054
9.16658
10.3139
11.2286
11.9769
12.6023
13.14
13.6137
14.0392
14.4276
14.7869
15.123
15.4403
15.7424
16.032
16.3113
16.5821
16.8461
17.1044
17.3581
17.6084
17.856
18.1018
18.3465
18.5908
18.8356
19.0813
19.329
19.5792
19.833
20.0912
20.3551
20.6258
20.9049
21.1943
21.4961
21.8131
22.1487
22.5075
22.8952
23.32
23.7928
24.3296
24.9544
25.703
26.6206
27.7764
29.3421
31.5421
8.3843
9.09176
9.95606
10.7798
11.5147
12.1593
12.7249
13.2264
13.677
14.087
14.4647
14.8161
15.1464
15.4593
15.7578
16.0446
16.3217
16.5906
16.853
17.1099
17.3625
17.6116
17.8583
18.1031
18.347
18.5905
18.8343
19.0792
19.3258
19.575
19.8276
20.0845
20.3468
20.6157
20.8926
21.1793
21.4777
21.7903
22.1202
22.4714
22.8487
23.2583
23.7086
24.2101
24.7761
25.4222
26.1609
26.9916
27.8669
28.589
9.96094
10.2336
10.7451
11.3228
11.8904
12.4235
12.9154
13.3674
13.7838
14.1696
14.5297
14.868
15.1883
15.4934
15.7858
16.0676
16.3406
16.6061
16.8656
17.12
17.3704
17.6176
17.8625
18.1056
18.3478
18.5897
18.832
19.0752
19.32
19.5673
19.8177
20.0722
20.3316
20.5972
20.8701
21.1519
21.4442
21.7492
22.0693
22.4076
22.7675
23.1534
23.57
24.0226
24.5157
25.051
25.6224
26.2057
26.7239
27.0025
11.0174
11.1351
11.4488
11.855
12.2898
12.7241
13.1438
13.5432
13.921
14.2781
14.6165
14.9382
15.2455
15.5403
15.8245
16.0996
16.3669
16.6278
16.8832
17.1342
17.3815
17.626
17.8683
18.1091
18.3491
18.5887
18.8286
19.0695
19.3119
19.5564
19.8038
20.0548
20.3103
20.5713
20.8386
21.1137
21.3979
21.6927
22
22.3219
22.6604
23.0178
23.3962
23.7965
24.2176
24.6541
25.092
25.5021
25.8197
25.9401
11.798
11.8535
12.0555
12.3471
12.6821
13.0348
13.3901
13.7394
14.0783
14.4052
14.7198
15.0229
15.3152
15.598
15.8723
16.1392
16.3998
16.6549
16.9054
17.1521
17.3956
17.6366
17.8757
18.1135
18.3506
18.5874
18.8244
19.0623
19.3015
19.5426
19.7862
20.033
20.2836
20.5388
20.7994
21.0664
21.3409
21.6237
21.9162
22.2195
22.5345
22.8619
23.2015
23.5517
23.9084
24.263
24.6004
24.8945
25.0988
25.1556
12.4073
12.4368
12.5749
12.7903
13.052
13.3399
13.6405
13.9446
14.2468
14.5439
14.8346
15.1181
15.3945
15.6641
15.9276
16.1854
16.4382
16.6867
16.9315
17.1731
17.4121
17.6491
17.8845
18.1187
18.3524
18.5858
18.8194
19.0538
19.2893
19.5263
19.7655
20.0072
20.2522
20.5008
20.7538
21.0117
21.2753
21.5451
21.8218
22.1056
22.3966
22.6944
22.9973
23.3023
23.604
23.8935
24.1569
24.3741
24.5136
24.5437
12.9032
12.9209
13.0207
13.1849
13.3931
13.6304
13.8856
14.1505
14.4195
14.6888
14.9562
15.2203
15.4804
15.7365
15.9884
16.2365
16.4809
16.7222
16.9607
17.1968
17.4308
17.6632
17.8943
18.1246
18.3544
18.584
18.8138
19.0442
19.2754
19.5079
19.7421
19.9783
20.217
20.4584
20.7031
20.9514
21.2035
21.4598
21.7202
21.9847
22.2525
22.5223
22.7919
23.0577
23.314
23.5525
23.7619
23.9274
24.028
24.046
13.3183
13.33
13.4056
13.5347
13.7036
13.9016
14.12
14.3516
14.5912
14.8351
15.0807
15.3261
15.5704
15.8128
16.0531
16.2911
16.5269
16.7606
16.9923
17.2224
17.4511
17.6785
17.9051
18.131
18.3566
18.582
18.8076
19.0336
19.2603
19.4879
19.7168
19.947
20.179
20.4129
20.6489
20.8871
21.1276
21.3703
21.6149
21.8607
22.1066
22.351
22.5913
22.8237
23.0428
23.2418
23.4116
23.5416
23.6177
23.6296
13.6721
13.6805
13.7401
13.8445
13.9842
14.1517
14.3402
14.5439
14.7582
14.9794
15.205
15.433
15.662
15.8912
16.12
16.3479
16.5749
16.8008
17.0256
17.2495
17.4725
17.6948
17.9165
18.1379
18.3589
18.58
18.8011
19.0225
19.2443
19.4668
19.69
19.914
20.1391
20.3652
20.5924
20.8206
21.0496
21.2791
21.5084
21.7368
21.9627
22.1844
22.3992
22.6035
22.7927
22.9609
23.1014
23.2063
23.2663
23.2748
13.9775
13.9839
14.0324
14.1189
14.2367
14.3804
14.5448
14.7252
14.9177
15.119
15.3265
15.5385
15.7533
15.9699
16.1875
16.4056
16.6238
16.842
17.0599
17.2774
17.4947
17.7117
17.9284
18.1449
18.3614
18.5778
18.7943
19.0109
19.2277
19.4449
19.6623
19.8801
20.0982
20.3166
20.535
20.7534
20.9713
21.1881
21.4032
21.6154
21.8234
22.0251
22.218
22.3989
22.5639
22.7081
22.8265
22.9134
22.9622
22.9687
14.2432
14.2483
14.2889
14.3622
14.4633
14.5882
14.7331
14.8941
15.068
15.2519
15.4435
15.6409
15.8426
16.0474
16.2545
16.4631
16.6729
16.8834
17.0944
17.3057
17.5172
17.7288
17.9404
18.1521
18.3639
18.5756
18.7874
18.9992
19.2109
19.4227
19.6343
19.8458
20.0571
20.2678
20.4778
20.6867
20.894
21.0991
21.301
21.4986
21.6905
21.8748
22.0491
22.2106
22.3559
22.4813
22.5828
22.6564
22.6972
22.7023
14.4755
14.4797
14.5145
14.5777
14.6659
14.776
14.905
15.05
15.2082
15.377
15.5545
15.7388
15.9286
16.1225
16.3197
16.5194
16.7211
16.9243
17.1286
17.3337
17.5395
17.7458
17.9524
18.1593
18.3663
18.5734
18.7805
18.9874
19.1942
19.4006
19.6066
19.8119
20.0164
20.2198
20.4217
20.6217
20.8191
21.0133
21.2032
21.3878
21.5655
21.7347
21.8932
22.0385
22.1679
22.2784
22.3669
22.4304
22.4653
22.4695
14.6792
14.6827
14.713
14.7686
14.8466
14.9448
15.0609
15.1926
15.3374
15.4933
15.6585
15.8313
16.0102
16.1942
16.3823
16.5737
16.7678
16.964
17.1619
17.3611
17.5614
17.7625
17.9642
18.1664
18.3688
18.5712
18.7737
18.9759
19.1777
19.379
19.5794
19.7789
19.9769
20.1733
20.3676
20.5592
20.7475
20.9318
21.1109
21.2839
21.4492
21.6054
21.7505
21.8825
21.9989
22.0975
22.1757
22.2315
22.262
22.2655
14.8576
14.8606
14.8875
14.9371
15.007
15.0957
15.2013
15.3219
15.4555
15.6003
15.7548
15.9173
16.0867
16.2618
16.4416
16.6253
16.8123
17.002
17.1938
17.3874
17.5825
17.7786
17.9756
18.1732
18.3711
18.5692
18.7671
18.9648
19.1619
19.3582
19.5534
19.7471
19.9392
20.129
20.3162
20.5002
20.6802
20.8554
21.0249
21.1876
21.3423
21.4873
21.6211
21.7419
21.8478
21.9367
22.0069
22.0566
22.0837
22.0867
15.0136
15.0162
15.0405
15.0853
15.1488
15.2298
15.3268
15.4381
15.5623
15.6977
15.8429
15.9965
16.1574
16.3245
16.4968
16.6736
16.8541
17.0377
17.224
17.4124
17.6025
17.794
17.9865
18.1797
18.3734
18.5672
18.7609
18.9542
19.1468
19.3384
19.5287
19.7172
19.9036
20.0874
20.2681
20.4451
20.6176
20.7848
20.9458
21.0996
21.2449
21.3805
21.5048
21.6164
21.7135
21.7947
21.8584
21.9034
21.9277
21.9304
15.1493
15.1517
15.1738
15.2149
15.2732
15.348
15.4378
15.5416
15.6578
15.7852
15.9224
16.0683
16.2218
16.3818
16.5475
16.718
16.8927
17.0709
17.252
17.4356
17.6211
17.8083
17.9966
18.1858
18.3755
18.5653
18.7551
18.9443
19.1327
19.32
19.5056
19.6893
19.8706
20.0489
20.2238
20.3945
20.5603
20.7204
20.874
21.0201
21.1575
21.285
21.4013
21.5052
21.5952
21.6701
21.7286
21.7697
21.7919
21.7944
15.2665
15.2687
15.2891
15.3271
15.3814
15.451
15.5351
15.6325
15.7421
15.8627
15.9932
16.1325
16.2796
16.4335
16.5933
16.7583
16.9278
17.1011
17.2776
17.4568
17.6382
17.8214
18.0059
18.1913
18.3774
18.5636
18.7497
18.9352
19.1198
19.3031
19.4846
19.6639
19.8406
20.014
20.1836
20.3487
20.5087
20.6627
20.8099
20.9493
21.0799
21.2006
21.3103
21.4078
21.492
21.5618
21.6161
21.6542
21.6747
21.6769
15.3666
15.3686
15.3877
15.4233
15.4742
15.5397
15.6191
15.7113
15.8154
15.9304
16.0552
16.1889
16.3305
16.4791
16.6339
16.7941
16.959
17.128
17.3004
17.4758
17.6535
17.8331
18.0142
18.1964
18.3791
18.5621
18.7449
18.9271
19.1082
19.2879
19.4658
19.6412
19.8138
19.9829
20.1479
20.3082
20.4631
20.6118
20.7535
20.8873
21.0122
21.1273
21.2315
21.3238
21.4032
21.4688
21.5198
21.5554
21.5746
21.5766
15.4505
15.4524
15.4705
15.5042
15.5524
15.6147
15.6902
15.7783
15.8779
15.9883
16.1084
16.2374
16.3744
16.5186
16.6691
16.8252
16.9862
17.1515
17.3204
17.4924
17.6669
17.8434
18.0216
18.2008
18.3807
18.5608
18.7407
18.9199
19.0981
19.2747
19.4493
19.6214
19.7904
19.9558
20.1169
20.2731
20.4237
20.568
20.7051
20.8342
20.9544
21.0648
21.1645
21.2526
21.3282
21.3905
21.4387
21.4725
21.4906
21.4925
15.5194
15.5211
15.5384
15.5706
15.6168
15.6764
15.7489
15.8336
15.9297
16.0363
16.1526
16.2779
16.4111
16.5516
16.6986
16.8513
17.0091
17.1713
17.3372
17.5064
17.6782
17.8522
18.0278
18.2045
18.382
18.5596
18.7371
18.9139
19.0895
19.2635
19.4354
19.6047
19.7707
19.933
20.0908
20.2436
20.3907
20.5313
20.6646
20.7899
20.9063
21.013
21.1091
21.1939
21.2664
21.3261
21.3723
21.4045
21.4217
21.4235
15.5737
15.5754
15.592
15.6231
15.6676
15.7253
15.7955
15.8776
15.9709
16.0746
16.188
16.3103
16.4406
16.5782
16.7224
16.8724
17.0276
17.1873
17.3509
17.5178
17.6874
17.8593
18.0328
18.2076
18.383
18.5587
18.7342
18.909
19.0826
19.2545
19.4242
19.5911
19.7548
19.9146
20.0698
20.2199
20.3642
20.5019
20.6323
20.7546
20.868
20.9718
21.0651
21.1473
21.2175
21.2752
21.3197
21.3508
21.3674
21.3691
15.614
15.6156
15.6318
15.662
15.7054
15.7617
15.8302
15.9104
16.0017
16.1033
16.2145
16.3346
16.4627
16.5982
16.7403
16.8883
17.0415
17.1993
17.3612
17.5264
17.6944
17.8647
18.0367
18.2099
18.3838
18.558
18.732
18.9053
19.0773
19.2476
19.4156
19.5809
19.7428
19.9007
20.054
20.2021
20.3442
20.4798
20.6079
20.728
20.8393
20.941
21.0323
21.1125
21.1811
21.2373
21.2807
21.311
21.3271
21.3288
15.6407
15.6423
15.6582
15.6878
15.7305
15.7858
15.8532
15.9322
16.0221
16.1224
16.2322
16.3508
16.4775
16.6115
16.7522
16.8989
17.0509
17.2075
17.3681
17.5322
17.6991
17.8683
18.0392
18.2114
18.3844
18.5576
18.7305
18.9028
19.0738
19.243
19.4099
19.574
19.7347
19.8914
20.0434
20.1901
20.3309
20.465
20.5917
20.7104
20.8202
20.9205
21.0105
21.0895
21.1569
21.2122
21.2549
21.2846
21.3005
21.3021
15.654
15.6555
15.6713
15.7007
15.743
15.7978
15.8646
15.943
16.0323
16.1319
16.241
16.3589
16.4849
16.6182
16.7582
16.9042
17.0556
17.2116
17.3716
17.5351
17.7014
17.8701
18.0405
18.2122
18.3846
18.5573
18.7298
18.9015
19.072
19.2407
19.407
19.5706
19.7307
19.8867
20.0381
20.1841
20.3242
20.4576
20.5836
20.7015
20.8106
20.9102
20.9996
21.078
21.1449
21.1997
21.242
21.2715
21.2872
21.2888
15.654
15.6556
15.6713
15.7007
15.743
15.7978
15.8646
15.943
16.0323
16.1319
16.241
16.3589
16.4849
16.6182
16.7582
16.9043
17.0556
17.2116
17.3716
17.5351
17.7015
17.8701
18.0405
18.2122
18.3846
18.5573
18.7298
18.9015
19.072
19.2406
19.407
19.5706
19.7307
19.8867
20.0381
20.1841
20.3242
20.4576
20.5836
20.7015
20.8106
20.9102
20.9995
21.078
21.1449
21.1997
21.242
21.2715
21.2872
21.2888
15.6407
15.6423
15.6582
15.6878
15.7305
15.7857
15.8531
15.9321
16.0221
16.1223
16.2321
16.3507
16.4775
16.6115
16.7523
16.899
17.0509
17.2076
17.3682
17.5322
17.6991
17.8683
18.0392
18.2114
18.3844
18.5576
18.7305
18.9027
19.0737
19.243
19.4099
19.574
19.7347
19.8914
20.0434
20.1901
20.3308
20.4649
20.5917
20.7103
20.8202
20.9204
21.0104
21.0895
21.1569
21.2122
21.2549
21.2846
21.3005
21.3021
15.614
15.6157
15.6318
15.662
15.7054
15.7616
15.8301
15.9103
16.0016
16.1032
16.2144
16.3345
16.4627
16.5982
16.7403
16.8884
17.0416
17.1995
17.3613
17.5265
17.6945
17.8647
18.0367
18.2099
18.3839
18.5581
18.732
18.9052
19.0773
19.2476
19.4156
19.5809
19.7427
19.9006
20.0539
20.202
20.3441
20.4797
20.6079
20.728
20.8392
20.9409
21.0322
21.1125
21.1811
21.2373
21.2808
21.311
21.3272
21.3289
15.5737
15.5754
15.592
15.623
15.6676
15.7252
15.7954
15.8775
15.9708
16.0745
16.1879
16.3102
16.4405
16.5782
16.7224
16.8725
17.0277
17.1874
17.351
17.5179
17.6875
17.8594
18.0329
18.2077
18.3831
18.5588
18.7342
18.909
19.0826
19.2544
19.4241
19.5911
19.7548
19.9145
20.0698
20.2198
20.3641
20.5018
20.6322
20.7545
20.8679
20.9717
21.0651
21.1472
21.2175
21.2752
21.3198
21.3509
21.3675
21.3693
15.5194
15.5212
15.5384
15.5706
15.6167
15.6763
15.7488
15.8335
15.9295
16.0362
16.1525
16.2778
16.4111
16.5516
16.6987
16.8514
17.0092
17.1714
17.3374
17.5066
17.6784
17.8524
18.0279
18.2047
18.3821
18.5597
18.7372
18.9139
19.0895
19.2635
19.4354
19.6046
19.7706
19.9329
20.0907
20.2435
20.3906
20.5312
20.6645
20.7898
20.9063
21.013
21.1091
21.1939
21.2665
21.3262
21.3724
21.4046
21.4219
21.4236
15.4506
15.4525
15.4705
15.5042
15.5524
15.6146
15.6901
15.7781
15.8778
15.9881
16.1083
16.2373
16.3744
16.5186
16.6691
16.8253
16.9863
17.1516
17.3205
17.4926
17.6671
17.8437
18.0218
18.201
18.3808
18.5609
18.7408
18.92
19.0981
19.2747
19.4493
19.6213
19.7903
19.9557
20.1168
20.273
20.4236
20.5678
20.705
20.8341
20.9543
21.0648
21.1645
21.2526
21.3282
21.3906
21.4389
21.4726
21.4907
21.4926
15.3665
15.3685
15.3877
15.4233
15.4741
15.5396
15.619
15.7112
15.8153
15.9303
16.0551
16.1888
16.3304
16.4791
16.6339
16.7942
16.9591
17.1281
17.3006
17.476
17.6537
17.8334
18.0145
18.1966
18.3793
18.5623
18.745
18.9272
19.1083
19.288
19.4657
19.6411
19.8136
19.9827
20.1477
20.308
20.4629
20.6117
20.7534
20.8872
21.0122
21.1273
21.2315
21.3238
21.4033
21.4689
21.5199
21.5555
21.5747
21.5767
15.2664
15.2686
15.2891
15.3271
15.3813
15.4509
15.535
15.6324
15.742
15.8626
15.9931
16.1324
16.2795
16.4334
16.5933
16.7583
16.9278
17.1012
17.2777
17.457
17.6384
17.8216
18.0061
18.1916
18.3776
18.5639
18.7499
18.9353
19.1199
19.3031
19.4845
19.6638
19.8404
20.0138
20.1834
20.3485
20.5085
20.6626
20.8098
20.9492
21.0799
21.2006
21.3104
21.4079
21.4921
21.5619
21.6162
21.6543
21.6748
21.6769
15.1491
15.1515
15.1737
15.2147
15.2731
15.3478
15.4377
15.5414
15.6576
15.785
15.9222
16.0681
16.2216
16.3817
16.5474
16.718
16.8927
17.071
17.2521
17.4358
17.6214
17.8085
17.9969
18.1861
18.3757
18.5656
18.7553
18.9445
19.1328
19.32
19.5056
19.6892
19.8705
20.0488
20.2236
20.3942
20.5601
20.7203
20.8739
21.02
21.1575
21.285
21.4014
21.5053
21.5953
21.6702
21.7287
21.7698
21.792
21.7944
15.0133
15.016
15.0403
15.0851
15.1486
15.2296
15.3266
15.4379
15.5621
15.6974
15.8426
15.9962
16.1571
16.3242
16.4966
16.6735
16.8541
17.0378
17.2241
17.4126
17.6027
17.7942
17.9868
18.18
18.3737
18.5675
18.7611
18.9544
19.1469
19.3384
19.5286
19.7171
19.9035
20.0872
20.2679
20.4448
20.6174
20.7846
20.9457
21.0996
21.2449
21.3805
21.5049
21.6165
21.7136
21.7948
21.8585
21.9034
21.9277
21.9304
14.8573
14.8603
14.8872
14.9368
15.0068
15.0955
15.2011
15.3217
15.4552
15.6001
15.7545
15.917
16.0864
16.2615
16.4413
16.6252
16.8123
17.002
17.1939
17.3876
17.5828
17.779
17.976
18.1736
18.3715
18.5695
18.7674
18.965
19.162
19.3582
19.5534
19.7471
19.9391
20.1289
20.316
20.4999
20.6799
20.8552
21.0248
21.1876
21.3423
21.4874
21.6212
21.742
21.8478
21.9368
22.0069
22.0566
22.0837
22.0867
14.6788
14.6823
14.7127
14.7683
14.8463
14.9445
15.0607
15.1923
15.3371
15.493
15.6581
15.8309
16.0099
16.1939
16.3821
16.5736
16.7677
16.964
17.162
17.3613
17.5617
17.7629
17.9646
18.1668
18.3692
18.5716
18.774
18.9762
19.1779
19.3791
19.5795
19.7788
19.9769
20.1732
20.3674
20.559
20.7473
20.9316
21.1108
21.2838
21.4492
21.6054
21.7506
21.8825
21.999
22.0975
22.1757
22.2315
22.262
22.2655
14.4752
14.4793
14.5141
14.5774
14.6655
14.7756
14.9047
15.0496
15.2078
15.3766
15.5541
15.7384
15.9281
16.1221
16.3194
16.5192
16.721
16.9243
17.1287
17.334
17.5398
17.7462
17.9529
18.1598
18.3668
18.5738
18.7808
18.9877
19.1944
19.4008
19.6067
19.8119
20.0164
20.2197
20.4216
20.6215
20.8189
21.0131
21.2031
21.3877
21.5655
21.7347
21.8932
22.0385
22.1679
22.2784
22.3669
22.4304
22.4653
22.4695
14.2428
14.2479
14.2885
14.3618
14.4628
14.5878
14.7326
14.8937
15.0675
15.2514
15.443
15.6404
15.8421
16.0469
16.2541
16.4629
16.6728
16.8834
17.0945
17.3059
17.5175
17.7292
17.9409
18.1526
18.3643
18.576
18.7878
18.9995
19.2112
19.4229
19.6345
19.8459
20.057
20.2677
20.4777
20.6865
20.8938
21.0989
21.3009
21.4985
21.6904
21.8747
22.049
22.2105
22.3559
22.4813
22.5828
22.6564
22.6972
22.7024
13.9771
13.9834
14.032
14.1185
14.2362
14.3799
14.5443
14.7247
14.9171
15.1183
15.3259
15.5379
15.7527
15.9694
16.1871
16.4054
16.6237
16.842
17.06
17.2777
17.495
17.7121
17.9288
18.1454
18.3618
18.5783
18.7947
19.0113
19.2281
19.4451
19.6625
19.8802
20.0982
20.3165
20.5349
20.7532
20.9711
21.188
21.403
21.6153
21.8233
22.025
22.2179
22.3988
22.5638
22.7081
22.8264
22.9134
22.9622
22.9687
13.6716
13.68
13.7396
13.8439
13.9836
14.1511
14.3396
14.5433
14.7575
14.9787
15.2043
15.4323
15.6614
15.8907
16.1195
16.3476
16.5747
16.8008
17.0258
17.2498
17.4729
17.6952
17.917
18.1383
18.3594
18.5804
18.8015
19.0229
19.2447
19.4671
19.6902
19.9142
20.1392
20.3652
20.5924
20.8205
21.0495
21.2789
21.5083
21.7366
21.9626
22.1843
22.3991
22.6034
22.7926
22.9608
23.1013
23.2063
23.2663
23.2748
13.3177
13.3294
13.405
13.5341
13.7029
13.9009
14.1192
14.3508
14.5905
14.8344
15.08
15.3255
15.5698
15.8123
16.0527
16.2908
16.5268
16.7606
16.9925
17.2227
17.4514
17.6789
17.9056
18.1315
18.3571
18.5825
18.8081
19.0341
19.2607
19.4883
19.717
19.9472
20.1791
20.4129
20.6489
20.887
21.1275
21.3702
21.6147
21.8605
22.1064
22.3509
22.5911
22.8235
23.0427
23.2417
23.4116
23.5415
23.6177
23.6296
12.9025
12.9201
13.0199
13.1842
13.3923
13.6296
13.8848
14.1497
14.4187
14.688
14.9555
15.2196
15.4799
15.736
15.9881
16.2363
16.4809
16.7223
16.9608
17.197
17.4311
17.6636
17.8948
18.1251
18.3549
18.5845
18.8143
19.0446
19.2758
19.5083
19.7424
19.9785
20.2171
20.4585
20.7031
20.9513
21.2034
21.4597
21.7201
21.9845
22.2523
22.5221
22.7917
23.0575
23.3138
23.5523
23.7618
23.9273
24.028
24.046
12.4065
12.436
12.5741
12.7895
13.0512
13.3391
13.6396
13.9437
14.246
14.5432
14.8339
15.1175
15.394
15.6638
15.9273
16.1852
16.4381
16.6867
16.9316
17.1733
17.4124
17.6495
17.8849
18.1192
18.3529
18.5863
18.8199
19.0542
19.2897
19.5267
19.7658
20.0075
20.2523
20.5009
20.7538
21.0117
21.2753
21.5451
21.8217
22.1054
22.3964
22.6941
22.997
23.3021
23.6038
23.8933
24.1568
24.374
24.5135
24.5436
11.7971
11.8526
12.0546
12.3462
12.6812
13.034
13.3893
13.7386
14.0775
14.4045
14.7192
15.0224
15.3148
15.5977
15.8721
16.1391
16.3998
16.655
16.9056
17.1523
17.3959
17.637
17.8762
18.114
18.3511
18.5879
18.8249
19.0628
19.3019
19.543
19.7865
20.0332
20.2838
20.5389
20.7995
21.0665
21.3409
21.6237
21.9162
22.2194
22.5343
22.8617
23.2012
23.5514
23.9081
24.2628
24.6002
24.8944
25.0987
25.1555
11.0165
11.1342
11.4479
11.8541
12.2889
12.7232
13.143
13.5425
13.9203
14.2775
14.616
14.9378
15.2452
15.5401
15.8243
16.0995
16.3669
16.6279
16.8834
17.1344
17.3818
17.6264
17.8687
18.1096
18.3495
18.5892
18.8291
19.0699
19.3123
19.5568
19.8041
20.0551
20.3106
20.5714
20.8388
21.1138
21.398
21.6927
22
22.3218
22.6602
23.0176
23.3959
23.7962
24.2174
24.6539
25.0918
25.502
25.8196
25.9399
9.96
10.2326
10.7442
11.3219
11.8895
12.4227
12.9146
13.3667
13.7832
14.1691
14.5292
14.8677
15.188
15.4932
15.7857
16.0676
16.3406
16.6062
16.8657
17.1202
17.3707
17.618
17.8629
18.1061
18.3483
18.5902
18.8324
19.0756
19.3204
19.5677
19.8181
20.0725
20.3319
20.5974
20.8703
21.152
21.4443
21.7492
22.0693
22.4075
22.7675
23.1533
23.5698
24.0224
24.5154
25.0508
25.6222
26.2055
26.7237
27.0023
8.38338
9.09084
9.95514
10.7789
11.5139
12.1585
12.7241
13.2257
13.6764
14.0865
14.4642
14.8158
15.1461
15.4591
15.7578
16.0446
16.3217
16.5907
16.8531
17.1101
17.3628
17.612
17.8587
18.1036
18.3474
18.5909
18.8347
19.0796
19.3262
19.5754
19.8279
20.0848
20.3471
20.616
20.8929
21.1795
21.4778
21.7904
22.1203
22.4714
22.8486
23.2582
23.7085
24.2099
24.7759
25.422
26.1607
26.9914
27.8667
28.5888
5.45827
7.61964
9.16567
10.313
11.2277
11.9761
12.6016
13.1394
13.6132
14.0387
14.4272
14.7866
15.1228
15.4402
15.7423
16.032
16.3114
16.5823
16.8462
17.1046
17.3584
17.6087
17.8564
18.1022
18.3469
18.5913
18.836
19.0818
19.3293
19.5796
19.8333
20.0915
20.3554
20.6261
20.9052
21.1946
21.4963
21.8133
22.1488
22.5075
22.8952
23.3199
23.7926
24.3294
24.9542
25.7027
26.6204
27.7762
29.3419
31.5419
-0.000859562
5.86906
8.63808
10.1048
11.1346
11.9305
12.5768
13.1244
13.6033
14.0319
14.4222
14.7828
15.1198
15.4379
15.7405
16.0305
16.3101
16.5813
16.8454
17.104
17.3579
17.6083
17.8561
18.102
18.3469
18.5913
18.8361
19.082
19.3297
19.58
19.8339
20.0923
20.3563
20.6272
20.9066
21.1963
21.4985
21.816
22.1524
22.5123
22.9017
23.3292
23.8068
24.3531
24.9982
25.7943
26.8294
28.3146
31.1177
37.0341
)
;

boundaryField
{
    movingWallTop
    {
        type            zeroGradient;
    }
    movingWallBottom
    {
        type            zeroGradient;
    }
    fixedWalls
    {
        type            zeroGradient;
    }
    frontAndBack
    {
        type            empty;
    }
}


// ************************************************************************* //
