/*--------------------------------*- C++ -*----------------------------------*\
  =========                 |
  \\      /  F ield         | OpenFOAM: The Open Source CFD Toolbox
   \\    /   O peration     | Website:  https://openfoam.org
    \\  /    A nd           | Version:  7
     \\/     M anipulation  |
\*---------------------------------------------------------------------------*/
FoamFile
{
    version     2.0;
    format      ascii;
    class       volVectorField;
    location    "0.0284";
    object      U;
}
// * * * * * * * * * * * * * * * * * * * * * * * * * * * * * * * * * * * * * //

dimensions      [0 1 -1 0 0 0 0];

internalField   nonuniform List<vector> 
2500
(
(-0.293825 0.153745 0)
(-0.397989 0.128737 0)
(-0.578005 0.0737887 0)
(-0.696216 0.0408521 0)
(-0.765067 0.0233559 0)
(-0.809223 0.0140905 0)
(-0.839595 0.0090953 0)
(-0.861439 0.00627979 0)
(-0.877793 0.00458488 0)
(-0.890449 0.00349046 0)
(-0.900482 0.0027383 0)
(-0.90858 0.00219439 0)
(-0.915198 0.00178491 0)
(-0.920657 0.00146659 0)
(-0.925183 0.00121249 0)
(-0.928945 0.00100497 0)
(-0.932069 0.000831963 0)
(-0.934648 0.000684892 0)
(-0.936757 0.000557488 0)
(-0.938451 0.000445023 0)
(-0.939773 0.000343828 0)
(-0.940754 0.000250973 0)
(-0.941419 0.000164039 0)
(-0.941783 8.09647e-05 0)
(-0.941857 -8.14238e-08 0)
(-0.941643 -8.08229e-05 0)
(-0.941141 -0.000162903 0)
(-0.940342 -0.000248008 0)
(-0.939235 -0.000337946 0)
(-0.937798 -0.000434744 0)
(-0.936006 -0.000540766 0)
(-0.933824 -0.000658887 0)
(-0.931207 -0.000792716 0)
(-0.928097 -0.000946933 0)
(-0.924418 -0.00112779 0)
(-0.920075 -0.00134391 0)
(-0.914942 -0.00160759 0)
(-0.908849 -0.00193701 0)
(-0.901569 -0.0023604 0)
(-0.892781 -0.00292388 0)
(-0.882024 -0.00370715 0)
(-0.868605 -0.00485568 0)
(-0.851431 -0.0066481 0)
(-0.828693 -0.00963528 0)
(-0.797372 -0.0149038 0)
(-0.752316 -0.0245061 0)
(-0.682785 -0.0421744 0)
(-0.565101 -0.0746553 0)
(-0.389389 -0.128162 0)
(-0.290222 -0.152386 0)
(-0.00517636 0.302957 0)
(-0.0270488 0.307334 0)
(-0.171155 0.217676 0)
(-0.30773 0.14636 0)
(-0.416226 0.0988963 0)
(-0.500924 0.0685591 0)
(-0.566684 0.0492429 0)
(-0.617926 0.0366491 0)
(-0.658348 0.0281228 0)
(-0.690688 0.0221152 0)
(-0.716896 0.0177238 0)
(-0.738365 0.0144088 0)
(-0.756097 0.0118359 0)
(-0.77083 0.00979023 0)
(-0.783111 0.0081286 0)
(-0.793355 0.00675232 0)
(-0.801875 0.00559132 0)
(-0.808916 0.00459444 0)
(-0.814665 0.0037234 0)
(-0.819269 0.00294877 0)
(-0.82284 0.00224736 0)
(-0.825463 0.00160042 0)
(-0.8272 0.000992261 0)
(-0.828094 0.000409392 0)
(-0.828172 -0.000160265 0)
(-0.827444 -0.000727969 0)
(-0.825906 -0.00130465 0)
(-0.823538 -0.00190145 0)
(-0.820306 -0.00253019 0)
(-0.816158 -0.00320402 0)
(-0.811026 -0.00393814 0)
(-0.804819 -0.00475075 0)
(-0.797419 -0.00566436 0)
(-0.78868 -0.00670763 0)
(-0.778411 -0.00791804 0)
(-0.766372 -0.00934588 0)
(-0.752254 -0.0110604 0)
(-0.735654 -0.0131598 0)
(-0.716043 -0.015787 0)
(-0.692712 -0.0191575 0)
(-0.6647 -0.0236069 0)
(-0.630687 -0.0296751 0)
(-0.588842 -0.0382561 0)
(-0.536631 -0.0508584 0)
(-0.470729 -0.0700042 0)
(-0.387283 -0.0996321 0)
(-0.282115 -0.14515 0)
(-0.151762 -0.212736 0)
(-0.0165748 -0.298327 0)
(-0.0010189 -0.294747 0)
(0.0321202 0.264077 0)
(0.0565015 0.362169 0)
(-0.00316516 0.324533 0)
(-0.0948828 0.259818 0)
(-0.190526 0.199913 0)
(-0.27842 0.152667 0)
(-0.354471 0.117556 0)
(-0.41849 0.0918245 0)
(-0.471854 0.0728368 0)
(-0.516269 0.0586026 0)
(-0.553308 0.0477253 0)
(-0.584294 0.0392462 0)
(-0.610293 0.0325073 0)
(-0.632151 0.0270519 0)
(-0.650535 0.0225578 0)
(-0.665969 0.0187932 0)
(-0.678869 0.0155881 0)
(-0.689563 0.0128149 0)
(-0.698311 0.0103764 0)
(-0.705317 0.00819637 0)
(-0.710739 0.00621401 0)
(-0.714701 0.00437948 0)
(-0.717293 0.00265078 0)
(-0.718578 0.000991446 0)
(-0.718596 -0.000631291 0)
(-0.717362 -0.00224798 0)
(-0.714872 -0.00388833 0)
(-0.711101 -0.00558242 0)
(-0.705999 -0.00736206 0)
(-0.699497 -0.00926224 0)
(-0.6915 -0.011323 0)
(-0.681881 -0.0135915 0)
(-0.670484 -0.0161253 0)
(-0.657111 -0.0189966 0)
(-0.641515 -0.0222976 0)
(-0.623388 -0.0261492 0)
(-0.602347 -0.0307131 0)
(-0.577914 -0.0362096 0)
(-0.549488 -0.0429448 0)
(-0.51632 -0.051351 0)
(-0.47748 -0.062048 0)
(-0.431843 -0.0759296 0)
(-0.378115 -0.0942803 0)
(-0.314977 -0.118896 0)
(-0.241549 -0.152098 0)
(-0.158522 -0.196189 0)
(-0.0702225 -0.251308 0)
(0.0120185 -0.310094 0)
(0.0618859 -0.34348 0)
(0.0329966 -0.250063 0)
(0.0271815 0.20518 0)
(0.0639817 0.357379 0)
(0.0558416 0.374753 0)
(0.00928476 0.337162 0)
(-0.0573327 0.284115 0)
(-0.129707 0.232901 0)
(-0.199714 0.18928 0)
(-0.263609 0.153942 0)
(-0.320155 0.125831 0)
(-0.369375 0.103527 0)
(-0.411838 0.0857313 0)
(-0.448295 0.0713934 0)
(-0.479502 0.0597025 0)
(-0.506146 0.050046 0)
(-0.528827 0.0419625 0)
(-0.548048 0.0351029 0)
(-0.564228 0.0292005 0)
(-0.577713 0.0240491 0)
(-0.588786 0.0194869 0)
(-0.597672 0.0153847 0)
(-0.604554 0.0116373 0)
(-0.609573 0.00815721 0)
(-0.612835 0.00486996 0)
(-0.614417 0.00171026 0)
(-0.614366 -0.00138083 0)
(-0.612704 -0.00445843 0)
(-0.609429 -0.00757597 0)
(-0.604514 -0.0107873 0)
(-0.597907 -0.0141489 0)
(-0.589532 -0.017722 0)
(-0.579286 -0.0215758 0)
(-0.567035 -0.0257905 0)
(-0.552613 -0.0304621 0)
(-0.535817 -0.035708 0)
(-0.516401 -0.0416747 0)
(-0.494068 -0.0485487 0)
(-0.468467 -0.0565702 0)
(-0.439188 -0.0660529 0)
(-0.405754 -0.0774092 0)
(-0.367641 -0.0911828 0)
(-0.324304 -0.108085 0)
(-0.27526 -0.129027 0)
(-0.220261 -0.155109 0)
(-0.159641 -0.187493 0)
(-0.0949377 -0.226953 0)
(-0.0299515 -0.272644 0)
(0.0276546 -0.319168 0)
(0.0648577 -0.350905 0)
(0.0656513 -0.332229 0)
(0.026841 -0.190133 0)
(0.0185022 0.16326 0)
(0.0534192 0.330743 0)
(0.0694263 0.385479 0)
(0.0546111 0.377546 0)
(0.0160986 0.341293 0)
(-0.035424 0.296307 0)
(-0.0918318 0.252149 0)
(-0.14796 0.212663 0)
(-0.200906 0.178848 0)
(-0.249283 0.150453 0)
(-0.292614 0.126771 0)
(-0.330923 0.107011 0)
(-0.36448 0.0904437 0)
(-0.393661 0.0764499 0)
(-0.418865 0.0645212 0)
(-0.440472 0.0542473 0)
(-0.458829 0.0452987 0)
(-0.47424 0.0374099 0)
(-0.486963 0.0303657 0)
(-0.497216 0.0239892 0)
(-0.505178 0.0181335 0)
(-0.510991 0.012674 0)
(-0.514765 0.00750296 0)
(-0.51658 0.00252512 0)
(-0.51649 -0.0023462 0)
(-0.514521 -0.00719221 0)
(-0.510675 -0.0120915 0)
(-0.504929 -0.0171227 0)
(-0.497238 -0.0223673 0)
(-0.487532 -0.0279128 0)
(-0.475718 -0.0338558 0)
(-0.461677 -0.0403061 0)
(-0.445264 -0.047392 0)
(-0.426307 -0.0552659 0)
(-0.404607 -0.0641125 0)
(-0.379942 -0.0741574 0)
(-0.352067 -0.0856794 0)
(-0.32073 -0.0990221 0)
(-0.285692 -0.114608 0)
(-0.246774 -0.132943 0)
(-0.203928 -0.154614 0)
(-0.157376 -0.180234 0)
(-0.107829 -0.210312 0)
(-0.0568333 -0.244923 0)
(-0.00725919 -0.283023 0)
(0.0361262 -0.32108 0)
(0.0661349 -0.350619 0)
(0.0736043 -0.354416 0)
(0.053208 -0.302085 0)
(0.0178969 -0.148583 0)
(0.0120143 0.134282 0)
(0.0412087 0.299271 0)
(0.0663649 0.375726 0)
(0.070611 0.392398 0)
(0.0536873 0.374957 0)
(0.0216131 0.341242 0)
(-0.0193911 0.302025 0)
(-0.0643706 0.263096 0)
(-0.109847 0.227166 0)
(-0.153627 0.195218 0)
(-0.194465 0.167344 0)
(-0.231744 0.143232 0)
(-0.265246 0.122416 0)
(-0.294985 0.10441 0)
(-0.321101 0.0887564 0)
(-0.343795 0.0750541 0)
(-0.363288 0.0629578 0)
(-0.379798 0.0521746 0)
(-0.393526 0.0424569 0)
(-0.404654 0.0335947 0)
(-0.413335 0.0254083 0)
(-0.419697 0.0177418 0)
(-0.423843 0.0104585 0)
(-0.42585 0.00343546 0)
(-0.42577 -0.00343977 0)
(-0.423634 -0.0102729 0)
(-0.41945 -0.0171662 0)
(-0.413205 -0.0242209 0)
(-0.404866 -0.031541 0)
(-0.394381 -0.0392359 0)
(-0.38168 -0.0474239 0)
(-0.366674 -0.0562364 0)
(-0.349263 -0.0658218 0)
(-0.329332 -0.0763511 0)
(-0.306762 -0.0880226 0)
(-0.281436 -0.101068 0)
(-0.253256 -0.115756 0)
(-0.222165 -0.132397 0)
(-0.188188 -0.15133 0)
(-0.15149 -0.172912 0)
(-0.112468 -0.197456 0)
(-0.0718854 -0.225124 0)
(-0.0310643 -0.255713 0)
(0.007879 -0.288246 0)
(0.0417939 -0.320281 0)
(0.0663973 -0.346779 0)
(0.0765143 -0.358492 0)
(0.0673891 -0.340091 0)
(0.0402027 -0.269219 0)
(0.0114482 -0.120294 0)
(0.00793793 0.113533 0)
(0.03151 0.269415 0)
(0.0585834 0.356784 0)
(0.073 0.391303 0)
(0.0708263 0.390746 0)
(0.0543715 0.369662 0)
(0.0275606 0.338307 0)
(-0.00568053 0.303207 0)
(-0.0420762 0.26814 0)
(-0.0791972 0.235076 0)
(-0.115386 0.204879 0)
(-0.149592 0.177777 0)
(-0.181201 0.153669 0)
(-0.209903 0.13229 0)
(-0.235578 0.113318 0)
(-0.258231 0.0964229 0)
(-0.277935 0.0812921 0)
(-0.294797 0.0676411 0)
(-0.308941 0.0552165 0)
(-0.32049 0.0437935 0)
(-0.329559 0.0331737 0)
(-0.336247 0.0231803 0)
(-0.34064 0.0136545 0)
(-0.342805 0.00445202 0)
(-0.342792 -0.00456087 0)
(-0.340633 -0.0135102 0)
(-0.336341 -0.0225175 0)
(-0.329918 -0.0317025 0)
(-0.321346 -0.041186 0)
(-0.310598 -0.0510929 0)
(-0.297636 -0.0615547 0)
(-0.282416 -0.0727133 0)
(-0.264888 -0.0847228 0)
(-0.245013 -0.0977535 0)
(-0.222761 -0.111993 0)
(-0.198134 -0.127645 0)
(-0.171183 -0.144929 0)
(-0.14204 -0.164067 0)
(-0.110961 -0.185261 0)
(-0.0783848 -0.208648 0)
(-0.0450181 -0.234215 0)
(-0.0119371 -0.261662 0)
(0.0192916 -0.290154 0)
(0.0465042 -0.317944 0)
(0.0669199 -0.341798 0)
(0.0773485 -0.356232 0)
(0.0747632 -0.352654 0)
(0.0576653 -0.318782 0)
(0.0301833 -0.239302 0)
(0.00746096 -0.100357 0)
(0.00549695 0.0981908 0)
(0.024533 0.243007 0)
(0.0504505 0.3345 0)
(0.0696115 0.380868 0)
(0.0767731 0.393906 0)
(0.071854 0.384739 0)
(0.0568182 0.362255 0)
(0.0343573 0.332848 0)
(0.00714552 0.300751 0)
(-0.0225469 0.268566 0)
(-0.0529654 0.237758 0)
(-0.0828406 0.209056 0)
(-0.111305 0.18273 0)
(-0.137798 0.158787 0)
(-0.161985 0.137083 0)
(-0.183686 0.117408 0)
(-0.202829 0.0995215 0)
(-0.219407 0.0831796 0)
(-0.233454 0.068149 0)
(-0.245025 0.0542112 0)
(-0.254185 0.0411644 0)
(-0.261 0.0288234 0)
(-0.26553 0.0170176 0)
(-0.267828 0.00558874 0)
(-0.267935 -0.00561103 0)
(-0.265883 -0.016722 0)
(-0.261694 -0.0278789 0)
(-0.255379 -0.0392136 0)
(-0.246943 -0.0508571 0)
(-0.236385 -0.0629415 0)
(-0.223702 -0.0756022 0)
(-0.208897 -0.0889795 0)
(-0.191981 -0.103219 0)
(-0.172984 -0.118473 0)
(-0.151969 -0.134895 0)
(-0.129046 -0.152639 0)
(-0.104399 -0.171845 0)
(-0.0783114 -0.192616 0)
(-0.0512092 -0.214989 0)
(-0.0237101 -0.238868 0)
(0.00331825 -0.263935 0)
(0.028696 -0.289494 0)
(0.0508838 -0.31426 0)
(0.0679828 -0.336042 0)
(0.0778537 -0.351344 0)
(0.0784563 -0.354928 0)
(0.0684636 -0.339491 0)
(0.0483395 -0.295757 0)
(0.0230656 -0.213633 0)
(0.00508933 -0.0858608 0)
(0.00401566 0.0864179 0)
(0.0195953 0.220142 0)
(0.0432916 0.311774 0)
(0.0641421 0.365409 0)
(0.076829 0.388677 0)
(0.0799553 0.389762 0)
(0.0740707 0.375936 0)
(0.0607544 0.352976 0)
(0.0419616 0.325109 0)
(0.0195922 0.295229 0)
(-0.00471787 0.265198 0)
(-0.029662 0.236132 0)
(-0.0542522 0.208635 0)
(-0.0777744 0.182975 0)
(-0.099735 0.159209 0)
(-0.119809 0.137269 0)
(-0.137794 0.117013 0)
(-0.153576 0.0982658 0)
(-0.167104 0.0808345 0)
(-0.178363 0.0645255 0)
(-0.187364 0.0491498 0)
(-0.194135 0.0345263 0)
(-0.198705 0.0204832 0)
(-0.20111 0.00685786 0)
(-0.201382 -0.00650393 0)
(-0.199549 -0.0197493 0)
(-0.195638 -0.0330193 0)
(-0.189673 -0.0464508 0)
(-0.181678 -0.0601773 0)
(-0.171679 -0.07433 0)
(-0.159709 -0.0890385 0)
(-0.145815 -0.104431 0)
(-0.130063 -0.120632 0)
(-0.112549 -0.137762 0)
(-0.0934144 -0.155927 0)
(-0.0728603 -0.175212 0)
(-0.051169 -0.195664 0)
(-0.028731 -0.217261 0)
(-0.0060752 -0.239873 0)
(0.0160966 -0.263196 0)
(0.0368775 -0.286658 0)
(0.055134 -0.309286 0)
(0.0695138 -0.32953 0)
(0.0785149 -0.345037 0)
(0.080667 -0.352409 0)
(0.0748855 -0.347007 0)
(0.0609905 -0.32294 0)
(0.0404408 -0.273441 0)
(0.0180603 -0.191992 0)
(0.00365398 -0.074939 0)
(0.0030777 0.0770501 0)
(0.016045 0.200394 0)
(0.0373238 0.289947 0)
(0.0582334 0.347588 0)
(0.0739198 0.37817 0)
(0.08239 0.387576 0)
(0.0832868 0.381543 0)
(0.0773206 0.365028 0)
(0.0657719 0.341966 0)
(0.0500988 0.315282 0)
(0.0316985 0.287038 0)
(0.0117899 0.258607 0)
(-0.0086279 0.230854 0)
(-0.0287732 0.204277 0)
(-0.0480571 0.179122 0)
(-0.0660512 0.15547 0)
(-0.0824545 0.133291 0)
(-0.0970638 0.112491 0)
(-0.109749 0.0929365 0)
(-0.120432 0.0744729 0)
(-0.129073 0.0569376 0)
(-0.135657 0.0401657 0)
(-0.140187 0.0239946 0)
(-0.142675 0.00826651 0)
(-0.143143 -0.00717086 0)
(-0.141615 -0.0224637 0)
(-0.13812 -0.0377523 0)
(-0.132693 -0.053171 0)
(-0.125374 -0.0688485 0)
(-0.116214 -0.0849074 0)
(-0.105277 -0.101463 0)
(-0.0926493 -0.118624 0)
(-0.0784427 -0.136483 0)
(-0.0628085 -0.155119 0)
(-0.0459479 -0.174583 0)
(-0.0281268 -0.194885 0)
(-0.00969353 -0.215977 0)
(0.00890185 -0.237717 0)
(0.0270874 -0.25983 0)
(0.0441514 -0.281843 0)
(0.0592335 -0.303005 0)
(0.0713335 -0.322178 0)
(0.0793549 -0.337707 0)
(0.0822066 -0.347277 0)
(0.0789943 -0.347791 0)
(0.0693311 -0.335327 0)
(0.0537221 -0.305282 0)
(0.034015 -0.252816 0)
(0.0144807 -0.173767 0)
(0.00274722 -0.0664201 0)
(0.00245118 0.0693709 0)
(0.0134182 0.18326 0)
(0.0324113 0.269567 0)
(0.0525492 0.328981 0)
(0.0696137 0.364549 0)
(0.0814425 0.380434 0)
(0.0871583 0.381061 0)
(0.0868553 0.370541 0)
(0.0812557 0.352371 0)
(0.0713901 0.329334 0)
(0.0583715 0.303531 0)
(0.0432594 0.276475 0)
(0.0269875 0.24921 0)
(0.0103368 0.222412 0)
(-0.00606543 0.196493 0)
(-0.0217311 0.17167 0)
(-0.0362917 0.148029 0)
(-0.0494765 0.125562 0)
(-0.0610927 0.104204 0)
(-0.0710081 0.0838511 0)
(-0.0791359 0.0643765 0)
(-0.0854243 0.0456417 0)
(-0.0898466 0.0275029 0)
(-0.0923955 0.00981549 0)
(-0.0930781 -0.00756295 0)
(-0.0919138 -0.0247704 0)
(-0.0889327 -0.0419393 0)
(-0.084176 -0.0591948 0)
(-0.077698 -0.0766541 0)
(-0.0695684 -0.0944246 0)
(-0.0598773 -0.112601 0)
(-0.0487403 -0.131264 0)
(-0.0363061 -0.150472 0)
(-0.0227647 -0.170256 0)
(-0.00835859 -0.19061 0)
(0.00660656 -0.21147 0)
(0.0217487 -0.232698 0)
(0.0365976 -0.254051 0)
(0.0505848 -0.275137 0)
(0.0630398 -0.295363 0)
(0.0731985 -0.313868 0)
(0.0802317 -0.329445 0)
(0.0833064 -0.340451 0)
(0.0816945 -0.344729 0)
(0.0749468 -0.339573 0)
(0.0631388 -0.321763 0)
(0.0471331 -0.287774 0)
(0.0288285 -0.234178 0)
(0.0118498 -0.158339 0)
(0.00214403 -0.0595829 0)
(0.00200924 0.0629324 0)
(0.011409 0.168299 0)
(0.028343 0.250805 0)
(0.0473093 0.310506 0)
(0.0647275 0.349281 0)
(0.0784951 0.370047 0)
(0.0874794 0.376164 0)
(0.0913716 0.370965 0)
(0.090469 0.357461 0)
(0.0854325 0.338191 0)
(0.0770942 0.315188 0)
(0.0663238 0.290006 0)
(0.0539448 0.263788 0)
(0.0406887 0.237338 0)
(0.0271769 0.211196 0)
(0.0139187 0.185701 0)
(0.00131997 0.16104 0)
(-0.0103044 0.137295 0)
(-0.0207161 0.11447 0)
(-0.0297398 0.0925179 0)
(-0.0372508 0.0713555 0)
(-0.0431645 0.0508779 0)
(-0.0474284 0.0309673 0)
(-0.0500156 0.0114995 0)
(-0.05092 -0.00765103 0)
(-0.0501537 -0.0266077 0)
(-0.0477454 -0.0454886 0)
(-0.0437403 -0.0644043 0)
(-0.0382017 -0.0834548 0)
(-0.0312133 -0.102727 0)
(-0.022883 -0.122291 0)
(-0.0133478 -0.142194 0)
(-0.00278 -0.162459 0)
(0.00860573 -0.183067 0)
(0.0205445 -0.203956 0)
(0.0327132 -0.224997 0)
(0.0447226 -0.245975 0)
(0.0561122 -0.266563 0)
(0.0663485 -0.286285 0)
(0.0748324 -0.304474 0)
(0.0809176 -0.32022 0)
(0.0839504 -0.332314 0)
(0.0833349 -0.339203 0)
(0.0786351 -0.33895 0)
(0.069719 -0.329252 0)
(0.0569416 -0.307518 0)
(0.0413117 -0.271077 0)
(0.0246111 -0.217518 0)
(0.00985532 -0.14519 0)
(0.00172141 -0.0539733 0)
(0.00168143 0.0574444 0)
(0.00982005 0.155157 0)
(0.0249233 0.233666 0)
(0.0425431 0.292691 0)
(0.0596719 0.333355 0)
(0.0743754 0.357685 0)
(0.0854341 0.368204 0)
(0.0922987 0.367574 0)
(0.0949635 0.358332 0)
(0.0937931 0.342728 0)
(0.0893683 0.322655 0)
(0.082368 0.299638 0)
(0.0734849 0.274855 0)
(0.0633718 0.249188 0)
(0.0526119 0.223269 0)
(0.041706 0.197532 0)
(0.0310711 0.172256 0)
(0.0210449 0.147601 0)
(0.0118941 0.123642 0)
(0.00382433 0.100388 0)
(-0.0030106 0.0778026 0)
(-0.00850023 0.0558207 0)
(-0.01257 0.0343553 0)
(-0.0151755 0.0133083 0)
(-0.016298 -0.00742366 0)
(-0.0159415 -0.0279439 0)
(-0.0141312 -0.0483516 0)
(-0.0109132 -0.0687375 0)
(-0.00635528 -0.0891803 0)
(-0.00054902 -0.109743 0)
(0.00638719 -0.130467 0)
(0.0143042 -0.151367 0)
(0.0230173 -0.172427 0)
(0.032301 -0.193583 0)
(0.0418839 -0.21472 0)
(0.0514435 -0.235652 0)
(0.0606035 -0.256104 0)
(0.0689333 -0.275686 0)
(0.0759534 -0.293869 0)
(0.0811487 -0.309947 0)
(0.0839938 -0.323004 0)
(0.0839949 -0.331883 0)
(0.080753 -0.335157 0)
(0.0740511 -0.331133 0)
(0.0639675 -0.317883 0)
(0.0510063 -0.29335 0)
(0.0361955 -0.255524 0)
(0.0211297 -0.202716 0)
(0.00829519 -0.133914 0)
(0.00141075 -0.0492959 0)
(0.00142732 0.0527129 0)
(0.00852311 0.143564 0)
(0.021995 0.21809 0)
(0.0382068 0.275837 0)
(0.054642 0.317436 0)
(0.0695754 0.344281 0)
(0.0818013 0.358251 0)
(0.0906454 0.36145 0)
(0.0958998 0.355981 0)
(0.0977047 0.3438 0)
(0.0964314 0.326625 0)
(0.0925838 0.3059 0)
(0.0867208 0.282792 0)
(0.0794024 0.258218 0)
(0.071154 0.232867 0)
(0.0624461 0.207245 0)
(0.0536862 0.181704 0)
(0.0452164 0.156474 0)
(0.0373167 0.131693 0)
(0.0302106 0.107424 0)
(0.0240714 0.0836814 0)
(0.0190288 0.0604385 0)
(0.0151746 0.0376436 0)
(0.0125678 0.0152284 0)
(0.0112389 -0.0068842 0)
(0.0111922 -0.0287737 0)
(0.0124076 -0.0505163 0)
(0.0148412 -0.0721798 0)
(0.0184248 -0.0938187 0)
(0.0230646 -0.115469 0)
(0.0286387 -0.137144 0)
(0.0349943 -0.158825 0)
(0.0419441 -0.180457 0)
(0.0492636 -0.201936 0)
(0.0566872 -0.223102 0)
(0.0639071 -0.243721 0)
(0.0705731 -0.263471 0)
(0.0762969 -0.281921 0)
(0.080661 -0.298511 0)
(0.0832362 -0.312527 0)
(0.0836087 -0.32308 0)
(0.0814209 -0.329088 0)
(0.0764269 -0.329273 0)
(0.0685642 -0.322176 0)
(0.0580394 -0.306204 0)
(0.0454176 -0.279736 0)
(0.0316753 -0.241266 0)
(0.0182008 -0.189621 0)
(0.00703711 -0.124204 0)
(0.0011724 -0.045352 0)
(0.00122275 0.0486036 0)
(0.00743342 0.133313 0)
(0.0194379 0.203996 0)
(0.0342352 0.260113 0)
(0.0497213 0.301974 0)
(0.0643861 0.330518 0)
(0.0770942 0.347139 0)
(0.087124 0.353484 0)
(0.0941431 0.351282 0)
(0.0981311 0.342206 0)
(0.0992935 0.327785 0)
(0.0979831 0.309356 0)
(0.094634 0.288043 0)
(0.0897102 0.26476 0)
(0.083669 0.24023 0)
(0.0769373 0.215003 0)
(0.0698977 0.189488 0)
(0.0628825 0.163973 0)
(0.056172 0.138649 0)
(0.0499966 0.113634 0)
(0.0445403 0.0889856 0)
(0.0399448 0.0647186 0)
(0.0363146 0.0408171 0)
(0.0337203 0.0172446 0)
(0.0322022 -0.00604749 0)
(0.0317729 -0.0291122 0)
(0.0324186 -0.0520003 0)
(0.0341003 -0.0747547 0)
(0.036753 -0.097404 0)
(0.0402854 -0.119957 0)
(0.0445782 -0.142397 0)
(0.0494822 -0.164674 0)
(0.0548161 -0.186698 0)
(0.0603648 -0.208329 0)
(0.0658785 -0.229367 0)
(0.071073 -0.249543 0)
(0.0756326 -0.2685 0)
(0.0792167 -0.285781 0)
(0.0814714 -0.300817 0)
(0.0820475 -0.312904 0)
(0.080628 -0.321199 0)
(0.0769645 -0.324711 0)
(0.0709243 -0.32231 0)
(0.0625469 -0.312751 0)
(0.0521069 -0.294731 0)
(0.0401741 -0.266975 0)
(0.0276378 -0.228362 0)
(0.015685 -0.178086 0)
(0.00599276 -0.115828 0)
(0.000982453 -0.0420044 0)
(0.00105261 0.0450214 0)
(0.00649372 0.124247 0)
(0.0171618 0.191304 0)
(0.0305629 0.245615 0)
(0.0449373 0.287273 0)
(0.0589798 0.316899 0)
(0.0716531 0.335515 0)
(0.0822395 0.344406 0)
(0.0903397 0.34498 0)
(0.0958246 0.338657 0)
(0.0987744 0.32678 0)
(0.0994185 0.310565 0)
(0.0980805 0.291071 0)
(0.0951329 0.269187 0)
(0.0909622 0.245644 0)
(0.085944 0.22102 0)
(0.0804269 0.195762 0)
(0.0747226 0.170202 0)
(0.0691014 0.14458 0)
(0.0637913 0.119057 0)
(0.0589792 0.0937342 0)
(0.0548128 0.0686648 0)
(0.0514042 0.0438687 0)
(0.0488322 0.0193412 0)
(0.0471455 -0.0049365 0)
(0.0463641 -0.02899 0)
(0.0464817 -0.0528437 0)
(0.0474655 -0.0765143 0)
(0.0492572 -0.100004 0)
(0.051772 -0.123295 0)
(0.0548981 -0.146342 0)
(0.0584956 -0.169065 0)
(0.0623954 -0.191342 0)
(0.0663989 -0.213002 0)
(0.0702783 -0.233814 0)
(0.0737789 -0.25348 0)
(0.0766233 -0.27162 0)
(0.0785196 -0.287766 0)
(0.0791738 -0.301348 0)
(0.0783079 -0.311691 0)
(0.0756844 -0.318004 0)
(0.0711385 -0.319391 0)
(0.0646164 -0.314861 0)
(0.0562187 -0.30336 0)
(0.046246 -0.283825 0)
(0.0352383 -0.255256 0)
(0.0239816 -0.216824 0)
(0.0134779 -0.167987 0)
(0.00510177 -0.108611 0)
(0.000825837 -0.0391566 0)
(0.000907072 0.0418975 0)
(0.00566441 0.116249 0)
(0.0150999 0.179944 0)
(0.0271324 0.232392 0)
(0.0402911 0.273546 0)
(0.053458 0.303794 0)
(0.0657062 0.323879 0)
(0.0763536 0.3348 0)
(0.0849749 0.337701 0)
(0.0913735 0.333776 0)
(0.0955396 0.324196 0)
(0.0976056 0.310055 0)
(0.0978017 0.292333 0)
(0.096418 0.271882 0)
(0.0937725 0.249422 0)
(0.0901871 0.225541 0)
(0.0859708 0.200712 0)
(0.0814077 0.1753 0)
(0.0767507 0.149582 0)
(0.0722182 0.123757 0)
(0.0679931 0.0979649 0)
(0.0642239 0.0722941 0)
(0.0610257 0.0467981 0)
(0.0584825 0.0215035 0)
(0.0566491 -0.00357934 0)
(0.0555526 -0.0284485 0)
(0.055194 -0.053102 0)
(0.0555486 -0.0775307 0)
(0.0565664 -0.101711 0)
(0.0581727 -0.125599 0)
(0.0602668 -0.149122 0)
(0.0627225 -0.172173 0)
(0.0653877 -0.194603 0)
(0.0680846 -0.216214 0)
(0.0706117 -0.236751 0)
(0.0727463 -0.255892 0)
(0.0742505 -0.273245 0)
(0.074879 -0.288337 0)
(0.0743919 -0.30061 0)
(0.0725711 -0.30942 0)
(0.0692422 -0.314035 0)
(0.0643013 -0.313647 0)
(0.0577455 -0.307393 0)
(0.0497063 -0.294381 0)
(0.0404813 -0.273743 0)
(0.0305602 -0.244701 0)
(0.0206216 -0.206643 0)
(0.0115011 -0.159218 0)
(0.00432197 -0.102424 0)
(0.000692664 -0.0367392 0)
(0.000779492 0.0391809 0)
(0.00491756 0.109228 0)
(0.0132022 0.169854 0)
(0.0238959 0.220472 0)
(0.0357719 0.260939 0)
(0.0478808 0.291476 0)
(0.0594089 0.312619 0)
(0.0697282 0.325138 0)
(0.0784164 0.329963 0)
(0.0852405 0.328095 0)
(0.0901302 0.320552 0)
(0.0931443 0.308307 0)
(0.0944375 0.292262 0)
(0.0942285 0.273219 0)
(0.0927721 0.251877 0)
(0.0903379 0.228824 0)
(0.0871927 0.204543 0)
(0.0835893 0.179424 0)
(0.0797579 0.153771 0)
(0.0759018 0.127816 0)
(0.072195 0.101729 0)
(0.0687817 0.0756327 0)
(0.0657765 0.0496103 0)
(0.0632654 0.0237179 0)
(0.0613077 -0.00200678 0)
(0.0599362 -0.0275352 0)
(0.0591592 -0.0528401 0)
(0.0589608 -0.0778874 0)
(0.0593012 -0.102629 0)
(0.0601175 -0.126997 0)
(0.0613233 -0.150893 0)
(0.0628091 -0.174187 0)
(0.0644427 -0.196706 0)
(0.0660702 -0.218228 0)
(0.0675181 -0.238479 0)
(0.068597 -0.257122 0)
(0.0691069 -0.273756 0)
(0.0688459 -0.287911 0)
(0.0676209 -0.299045 0)
(0.0652628 -0.306545 0)
(0.0616451 -0.309738 0)
(0.0567057 -0.307897 0)
(0.0504711 -0.300268 0)
(0.0430811 -0.286095 0)
(0.0348111 -0.264672 0)
(0.0260893 -0.235388 0)
(0.0174885 -0.197801 0)
(0.00969611 -0.151699 0)
(0.0036233 -0.0971697 0)
(0.000576224 -0.0347019 0)
(0.000665247 0.0368336 0)
(0.00423304 0.103112 0)
(0.0114314 0.160983 0)
(0.0208147 0.209866 0)
(0.0313651 0.249554 0)
(0.0422842 0.28015 0)
(0.0528688 0.302031 0)
(0.0625562 0.315794 0)
(0.070946 0.32219 0)
(0.0777926 0.322064 0)
(0.0829879 0.316295 0)
(0.0865386 0.30575 0)
(0.0885397 0.291251 0)
(0.0891501 0.27355 0)
(0.0885689 0.253314 0)
(0.0870161 0.231122 0)
(0.0847173 0.207462 0)
(0.0818916 0.182736 0)
(0.0787436 0.15727 0)
(0.0754577 0.131321 0)
(0.072195 0.105085 0)
(0.0690916 0.0787129 0)
(0.0662582 0.0523144 0)
(0.0637806 0.0259723 0)
(0.0617201 -0.000250332 0)
(0.0601145 -0.0263004 0)
(0.0589788 -0.0521271 0)
(0.0583062 -0.0776733 0)
(0.058068 -0.102869 0)
(0.0582146 -0.127622 0)
(0.0586756 -0.151815 0)
(0.0593602 -0.175294 0)
(0.060158 -0.197866 0)
(0.0609405 -0.219292 0)
(0.0615631 -0.23928 0)
(0.0618689 -0.257484 0)
(0.061694 -0.273497 0)
(0.0608748 -0.286854 0)
(0.0592583 -0.297031 0)
(0.0567143 -0.303447 0)
(0.0531512 -0.30548 0)
(0.0485333 -0.302475 0)
(0.0428995 -0.293769 0)
(0.0363821 -0.27872 0)
(0.029222 -0.256746 0)
(0.0217799 -0.227372 0)
(0.0145269 -0.19028 0)
(0.00801845 -0.145365 0)
(0.00298392 -0.0927763 0)
(0.000471828 -0.0330083 0)
(0.000561023 0.0348265 0)
(0.00359605 0.0978485 0)
(0.00975903 0.153289 0)
(0.0178577 0.200577 0)
(0.0270555 0.239464 0)
(0.0366894 0.269967 0)
(0.0461621 0.292346 0)
(0.0549816 0.307061 0)
(0.0627823 0.314727 0)
(0.0693229 0.316055 0)
(0.0744762 0.311807 0)
(0.0782134 0.302757 0)
(0.0805847 0.289652 0)
(0.0817002 0.273192 0)
(0.0817108 0.254013 0)
(0.0807917 0.232677 0)
(0.0791288 0.209668 0)
(0.0769076 0.185398 0)
(0.0743054 0.160205 0)
(0.0714853 0.134365 0)
(0.0685925 0.108095 0)
(0.0657522 0.0815696 0)
(0.0630686 0.0549213 0)
(0.0606247 0.0282558 0)
(0.0584821 0.00165905 0)
(0.0566823 -0.0247944 0)
(0.0552465 -0.0510323 0)
(0.0541767 -0.0769772 0)
(0.0534557 -0.102539 0)
(0.0530482 -0.127606 0)
(0.0529006 -0.15204 0)
(0.052942 -0.175671 0)
(0.0530848 -0.198288 0)
(0.0532262 -0.219635 0)
(0.0532506 -0.239409 0)
(0.0530322 -0.257255 0)
(0.0524404 -0.272765 0)
(0.0513457 -0.285478 0)
(0.0496283 -0.294887 0)
(0.0471884 -0.300441 0)
(0.0439584 -0.301559 0)
(0.0399169 -0.297646 0)
(0.035103 -0.288116 0)
(0.0296299 -0.272417 0)
(0.023696 -0.250065 0)
(0.0175921 -0.220688 0)
(0.0116928 -0.184065 0)
(0.00643436 -0.140167 0)
(0.00238769 -0.0891903 0)
(0.000376111 -0.0316317 0)
(0.000464382 0.0331376 0)
(0.00299549 0.0933947 0)
(0.00816328 0.146736 0)
(0.015 0.192602 0)
(0.0228288 0.230718 0)
(0.031109 0.261039 0)
(0.0393438 0.283738 0)
(0.047114 0.299173 0)
(0.0540972 0.307849 0)
(0.0600688 0.310371 0)
(0.0648963 0.307406 0)
(0.0685292 0.299643 0)
(0.0709852 0.287766 0)
(0.0723359 0.272425 0)
(0.0726912 0.254224 0)
(0.0721865 0.233705 0)
(0.0709709 0.211347 0)
(0.0691972 0.18756 0)
(0.0670146 0.162693 0)
(0.0645636 0.137034 0)
(0.0619716 0.110819 0)
(0.0593506 0.0842369 0)
(0.0567961 0.0574419 0)
(0.0543861 0.0305586 0)
(0.0521813 0.00369172 0)
(0.0502252 -0.0230652 0)
(0.0485446 -0.049622 0)
(0.0471497 -0.0758832 0)
(0.046035 -0.101741 0)
(0.0451793 -0.127068 0)
(0.0445467 -0.15171 0)
(0.0440863 -0.17548 0)
(0.0437337 -0.198152 0)
(0.0434121 -0.21946 0)
(0.0430337 -0.239088 0)
(0.0425025 -0.256676 0)
(0.0417184 -0.271813 0)
(0.0405819 -0.284044 0)
(0.0390008 -0.292875 0)
(0.0368984 -0.297779 0)
(0.0342227 -0.29821 0)
(0.0309576 -0.29362 0)
(0.0271329 -0.283481 0)
(0.022835 -0.267311 0)
(0.0182148 -0.244704 0)
(0.0134926 -0.215364 0)
(0.00895092 -0.179143 0)
(0.00491778 -0.136068 0)
(0.00182247 -0.0863728 0)
(0.000286595 -0.0305528 0)
(0.000373473 0.03175 0)
(0.0024228 0.0897179 0)
(0.006627 0.141296 0)
(0.0122212 0.185939 0)
(0.0186721 0.223351 0)
(0.0255501 0.253448 0)
(0.0324541 0.27634 0)
(0.0390382 0.292308 0)
(0.0450282 0.301772 0)
(0.0502247 0.305256 0)
(0.0545005 0.303348 0)
(0.0577942 0.296669 0)
(0.0601012 0.285846 0)
(0.061463 0.271487 0)
(0.0619556 0.254163 0)
(0.0616795 0.234397 0)
(0.0607497 0.212658 0)
(0.0592877 0.189355 0)
(0.0574153 0.164839 0)
(0.0552493 0.139408 0)
(0.0528979 0.113309 0)
(0.0504586 0.0867451 0)
(0.0480161 0.0598857 0)
(0.0456421 0.0328704 0)
(0.0433944 0.00581958 0)
(0.0413175 -0.0211581 0)
(0.0394426 -0.0479572 0)
(0.0377878 -0.0744682 0)
(0.0363585 -0.100569 0)
(0.0351478 -0.126118 0)
(0.0341371 -0.150948 0)
(0.0332959 -0.17486 0)
(0.0325829 -0.197615 0)
(0.0319464 -0.218937 0)
(0.0313258 -0.238501 0)
(0.0306536 -0.255942 0)
(0.0298576 -0.270846 0)
(0.0288649 -0.282762 0)
(0.0276063 -0.291205 0)
(0.0260228 -0.295664 0)
(0.0240717 -0.295619 0)
(0.0217351 -0.290557 0)
(0.0190274 -0.279993 0)
(0.0160029 -0.263497 0)
(0.0127617 -0.240719 0)
(0.00945365 -0.21142 0)
(0.00627326 -0.175506 0)
(0.00344832 -0.133045 0)
(0.0012789 -0.0842961 0)
(0.000201406 -0.029758 0)
(0.000286846 0.0306509 0)
(0.00187116 0.0867926 0)
(0.0051363 0.136948 0)
(0.00950431 0.18058 0)
(0.0145732 0.217386 0)
(0.0200163 0.247254 0)
(0.0255232 0.270249 0)
(0.0308208 0.286599 0)
(0.0356865 0.296663 0)
(0.0399519 0.300899 0)
(0.0435026 0.299837 0)
(0.0462747 0.294043 0)
(0.0482492 0.284097 0)
(0.0494445 0.270571 0)
(0.0499086 0.254008 0)
(0.0497113 0.234911 0)
(0.0489365 0.213739 0)
(0.0476763 0.190895 0)
(0.0460253 0.166732 0)
(0.0440766 0.141552 0)
(0.0419184 0.115609 0)
(0.0396322 0.0891186 0)
(0.0372907 0.0622583 0)
(0.0349575 0.0351801 0)
(0.0326864 0.00801595 0)
(0.0305217 -0.0191139 0)
(0.0284977 -0.0460927 0)
(0.0266396 -0.0727996 0)
(0.0249632 -0.0991018 0)
(0.0234756 -0.124848 0)
(0.0221748 -0.149859 0)
(0.0210506 -0.173926 0)
(0.0200843 -0.196804 0)
(0.019249 -0.218204 0)
(0.0185107 -0.237797 0)
(0.0178286 -0.255209 0)
(0.0171567 -0.270025 0)
(0.0164463 -0.281794 0)
(0.0156481 -0.290034 0)
(0.0147165 -0.294245 0)
(0.013614 -0.293923 0)
(0.0123162 -0.288576 0)
(0.0108177 -0.277748 0)
(0.00913714 -0.261044 0)
(0.00732212 -0.238152 0)
(0.0054522 -0.208873 0)
(0.00363701 -0.173148 0)
(0.00200969 -0.131079 0)
(0.000749576 -0.0829417 0)
(0.000119078 -0.029238 0)
(0.000203317 0.0298306 0)
(0.00133496 0.0845995 0)
(0.00367947 0.133671 0)
(0.00683469 0.176519 0)
(0.010521 0.212837 0)
(0.0145084 0.242496 0)
(0.0185736 0.265535 0)
(0.0225152 0.282145 0)
(0.026164 0.292642 0)
(0.0293868 0.29744 0)
(0.032087 0.297025 0)
(0.0342043 0.291922 0)
(0.0357111 0.282676 0)
(0.0366083 0.269828 0)
(0.0369204 0.253896 0)
(0.0366902 0.23537 0)
(0.0359732 0.214693 0)
(0.0348335 0.192266 0)
(0.0333392 0.168439 0)
(0.0315596 0.143515 0)
(0.0295625 0.117753 0)
(0.0274122 0.0913728 0)
(0.0251683 0.0645602 0)
(0.0228853 0.0374744 0)
(0.0206115 0.0102551 0)
(0.0183895 -0.0169697 0)
(0.0162562 -0.0440756 0)
(0.0142425 -0.0709342 0)
(0.0123739 -0.0974054 0)
(0.0106706 -0.12333 0)
(0.00914734 -0.148524 0)
(0.00781318 -0.17277 0)
(0.0066717 -0.195814 0)
(0.00572057 -0.217364 0)
(0.00495132 -0.237082 0)
(0.00434931 -0.254589 0)
(0.00389378 -0.269465 0)
(0.0035583 -0.281255 0)
(0.00331173 -0.289476 0)
(0.00311974 -0.29363 0)
(0.00294701 -0.293218 0)
(0.00276017 -0.28776 0)
(0.00253119 -0.276813 0)
(0.00224115 -0.26 0)
(0.0018839 -0.237032 0)
(0.00146911 -0.207733 0)
(0.0010233 -0.172069 0)
(0.000588477 -0.130161 0)
(0.000228459 -0.0822977 0)
(3.84183e-05 -0.0289869 0)
(0.000121872 0.0292824 0)
(0.000809276 0.0831246 0)
(0.00224618 0.131454 0)
(0.00419886 0.173751 0)
(0.00650435 0.209712 0)
(0.00902494 0.2392 0)
(0.0116219 0.262243 0)
(0.0141647 0.279009 0)
(0.0165384 0.289791 0)
(0.0186471 0.294976 0)
(0.0204158 0.295019 0)
(0.0217913 0.290419 0)
(0.0227418 0.281693 0)
(0.0232547 0.269362 0)
(0.0233343 0.253926 0)
(0.0229989 0.235859 0)
(0.0222778 0.215595 0)
(0.0212079 0.193529 0)
(0.0198319 0.170006 0)
(0.0181952 0.145328 0)
(0.0163445 0.119757 0)
(0.0143264 0.0935125 0)
(0.0121865 0.066785 0)