/*--------------------------------*- C++ -*----------------------------------*\
  =========                 |
  \\      /  F ield         | OpenFOAM: The Open Source CFD Toolbox
   \\    /   O peration     | Website:  https://openfoam.org
    \\  /    A nd           | Version:  7
     \\/     M anipulation  |
\*---------------------------------------------------------------------------*/
FoamFile
{
    version     2.0;
    format      ascii;
    class       surfaceScalarField;
    location    "0.048";
    object      phi;
}
// * * * * * * * * * * * * * * * * * * * * * * * * * * * * * * * * * * * * * //

dimensions      [0 3 -1 0 0 0 0];

internalField   nonuniform List<scalar> 
4900
(
5.45472e-06
-5.45471e-06
9.9533e-06
-4.49858e-06
1.26941e-05
-2.74079e-06
1.44123e-05
-1.71817e-06
1.55283e-05
-1.11603e-06
1.62812e-05
-7.52875e-07
1.68119e-05
-5.30713e-07
1.7202e-05
-3.90115e-07
1.74988e-05
-2.96764e-07
1.77305e-05
-2.31718e-07
1.79149e-05
-1.84447e-07
1.80638e-05
-1.48885e-07
1.81852e-05
-1.21381e-07
1.82848e-05
-9.96345e-08
1.83669e-05
-8.213e-08
1.84348e-05
-6.78273e-08
1.84908e-05
-5.59855e-08
1.85368e-05
-4.60596e-08
1.85745e-05
-3.76363e-08
1.86048e-05
-3.03935e-08
1.86289e-05
-2.40732e-08
1.86474e-05
-1.84633e-08
1.86608e-05
-1.3384e-08
1.86694e-05
-8.67841e-09
1.86737e-05
-4.2054e-09
1.86735e-05
1.71914e-10
1.86689e-05
4.57232e-09
1.86598e-05
9.13588e-09
1.86458e-05
1.39957e-08
1.86265e-05
1.93026e-08
1.86012e-05
2.52282e-08
1.85693e-05
3.19751e-08
1.85295e-05
3.979e-08
1.84805e-05
4.89834e-08
1.84205e-05
5.99567e-08
1.83473e-05
7.32436e-08
1.82577e-05
8.95737e-08
1.81477e-05
1.09976e-07
1.80118e-05
1.35949e-07
1.7842e-05
1.69768e-07
1.7627e-05
2.15035e-07
1.73493e-05
2.77741e-07
1.69809e-05
3.68348e-07
1.6475e-05
5.0594e-07
1.57491e-05
7.25887e-07
1.46573e-05
1.09174e-06
1.29451e-05
1.71223e-06
1.0162e-05
2.7831e-06
5.55728e-06
4.60473e-06
5.55728e-06
-1.19206e-07
-5.3355e-06
1.83193e-06
-6.44971e-06
4.41336e-06
-5.32222e-06
6.72924e-06
-4.03405e-06
8.60922e-06
-2.99601e-06
1.00918e-05
-2.23541e-06
1.12566e-05
-1.69551e-06
1.21777e-05
-1.3113e-06
1.29138e-05
-1.03282e-06
1.35083e-05
-8.2622e-07
1.39932e-05
-6.69306e-07
1.43918e-05
-5.47511e-07
1.47216e-05
-4.51147e-07
1.49956e-05
-3.73632e-07
1.52238e-05
-3.10382e-07
1.54141e-05
-2.58114e-07
1.55725e-05
-2.14419e-07
1.57039e-05
-1.7748e-07
1.58122e-05
-1.45894e-07
1.59004e-05
-1.18551e-07
1.59708e-05
-9.45494e-08
1.60255e-05
-7.31369e-08
1.60658e-05
-5.36714e-08
1.60927e-05
-3.55867e-08
1.61069e-05
-1.83678e-08
1.61086e-05
-1.53094e-09
1.60977e-05
1.5397e-08
1.6074e-05
3.28941e-08
1.60365e-05
5.14644e-08
1.59842e-05
7.16584e-08
1.59153e-05
9.41003e-08
1.58277e-05
1.19521e-07
1.57187e-05
1.48804e-07
1.55847e-05
1.83047e-07
1.5421e-05
2.2365e-07
1.52218e-05
2.72446e-07
1.49795e-05
3.31887e-07
1.46841e-05
4.05341e-07
1.43225e-05
4.97551e-07
1.38769e-05
6.15357e-07
1.3323e-05
7.68894e-07
1.26273e-05
9.7352e-07
1.17427e-05
1.2529e-06
1.0605e-05
1.64363e-06
9.13008e-06
2.20083e-06
7.22341e-06
2.99841e-06
4.83102e-06
4.10463e-06
2.12084e-06
5.49328e-06
1.07096e-08
6.71485e-06
5.56799e-06
-1.0824e-06
-4.2531e-06
-7.54126e-07
-6.77799e-06
5.89241e-07
-6.66558e-06
2.30115e-06
-5.74596e-06
4.01188e-06
-4.70674e-06
5.56279e-06
-3.78633e-06
6.90669e-06
-3.03941e-06
8.04715e-06
-2.45176e-06
9.00676e-06
-1.99243e-06
9.8123e-06
-1.63176e-06
1.04888e-05
-1.34582e-06
1.10578e-05
-1.11652e-06
1.15372e-05
-9.30479e-07
1.19414e-05
-7.77838e-07
1.22823e-05
-6.51282e-07
1.25695e-05
-5.45317e-07
1.28108e-05
-4.55742e-07
1.30126e-05
-3.79291e-07
1.31801e-05
-3.13375e-07
1.33174e-05
-2.55894e-07
1.3428e-05
-2.05114e-07
1.35144e-05
-1.59563e-07
1.35787e-05
-1.17967e-07
1.36223e-05
-7.91882e-08
1.36461e-05
-4.21818e-08
1.36505e-05
-5.95955e-09
1.36355e-05
3.04508e-08
1.36004e-05
6.80311e-08
1.3544e-05
1.07816e-07
1.34647e-05
1.50932e-07
1.33602e-05
1.98644e-07
1.32273e-05
2.52422e-07
1.30621e-05
3.14016e-07
1.28596e-05
3.85571e-07
1.26134e-05
4.69769e-07
1.23158e-05
5.70042e-07
1.19569e-05
6.90861e-07
1.15241e-05
8.38153e-07
1.10017e-05
1.0199e-06
1.03701e-05
1.247e-06
9.60456e-06
1.53439e-06
8.67549e-06
1.90259e-06
7.54927e-06
2.37912e-06
6.194e-06
2.99891e-06
4.59493e-06
3.7999e-06
2.78972e-06
4.80362e-06
9.37031e-07
5.95731e-06
-5.71055e-07
7.00137e-06
-1.03824e-06
7.18204e-06
4.52975e-06
-9.13077e-07
-3.34003e-06
-1.34177e-06
-6.3493e-06
-9.37419e-07
-7.06993e-06
2.00947e-08
-6.70347e-06
1.23695e-06
-5.9236e-06
2.51372e-06
-5.06309e-06
3.73763e-06
-4.26332e-06
4.85601e-06
-3.57015e-06
5.85105e-06
-2.98747e-06
6.72293e-06
-2.50364e-06
7.4801e-06
-2.10299e-06
8.13408e-06
-1.7705e-06
8.69689e-06
-1.49329e-06
9.17986e-06
-1.2608e-06
9.59313e-06
-1.06455e-06
9.94558e-06
-8.97764e-07
1.02448e-05
-7.54986e-07
1.04973e-05
-6.31803e-07
1.07086e-05
-5.24593e-07
1.0883e-05
-4.30334e-07
1.10243e-05
-3.46464e-07
1.11355e-05
-2.70767e-07
1.12189e-05
-2.01283e-07
1.12759e-05
-1.36242e-07
1.13077e-05
-7.39941e-08
1.13147e-05
-1.29667e-08
1.12968e-05
4.83935e-08
1.12532e-05
1.11662e-07
1.11825e-05
1.78492e-07
1.10827e-05
2.50674e-07
1.09512e-05
3.30202e-07
1.07843e-05
4.19358e-07
1.05774e-05
5.20822e-07
1.03252e-05
6.37806e-07
1.00207e-05
7.74236e-07
9.6558e-06
9.34983e-07
9.22049e-06
1.12618e-06
8.70305e-06
1.35559e-06
8.08983e-06
1.63312e-06
7.36549e-06
1.97134e-06
6.51395e-06
2.38593e-06
5.52088e-06
2.89565e-06
4.37903e-06
3.52097e-06
3.0989e-06
4.27904e-06
1.72802e-06
5.17078e-06
3.81199e-07
6.15044e-06
-7.25869e-07
7.06438e-06
-1.26631e-06
7.5418e-06
-9.16016e-07
6.83175e-06
3.61373e-06
-6.64883e-07
-2.67514e-06
-1.2977e-06
-5.71648e-06
-1.41917e-06
-6.94846e-06
-1.04446e-06
-7.07818e-06
-3.28046e-07
-6.64001e-06
5.72548e-07
-5.96369e-06
1.53912e-06
-5.22989e-06
2.4958e-06
-4.52683e-06
3.39944e-06
-3.89111e-06
4.22869e-06
-3.33289e-06
4.97558e-06
-2.84987e-06
5.6398e-06
-2.43473e-06
6.22515e-06
-2.07864e-06
6.73735e-06
-1.773e-06
7.18279e-06
-1.50999e-06
7.56787e-06
-1.28285e-06
7.8986e-06
-1.08572e-06
8.18044e-06
-9.13643e-07
8.41819e-06
-7.62338e-07
8.61597e-06
-6.28118e-07
8.77726e-06
-5.07755e-07
8.90488e-06
-3.98386e-07
9.00102e-06
-2.97422e-07
9.06726e-06
-2.0248e-07
9.10458e-06
-1.11315e-07
9.11337e-06
-2.1758e-08
9.09342e-06
6.83408e-08
9.04392e-06
1.61168e-07
8.9634e-06
2.59011e-07
8.84975e-06
3.64328e-07
8.70012e-06
4.79826e-07
8.51092e-06
6.08557e-07
8.27772e-06
7.54028e-07
7.99518e-06
9.20345e-07
7.65704e-06
1.11237e-06
7.25608e-06
1.33594e-06
6.78422e-06
1.59804e-06
6.23274e-06
1.90707e-06
5.59288e-06
2.27297e-06
4.85707e-06
2.70716e-06
4.02106e-06
3.22193e-06
3.08795e-06
3.82877e-06
2.07468e-06
4.53424e-06
1.02223e-06
5.33149e-06
9.2889e-09
6.18372e-06
-8.35059e-07
6.99479e-06
-1.3309e-06
7.56022e-06
-1.29366e-06
7.50456e-06
-6.85146e-07
6.22324e-06
2.92859e-06
-4.70951e-07
-2.20419e-06
-1.10034e-06
-5.0871e-06
-1.46947e-06
-6.57933e-06
-1.4717e-06
-7.07594e-06
-1.15278e-06
-6.95894e-06
-6.07641e-07
-6.50883e-06
7.00896e-08
-5.90762e-06
8.06603e-07
-5.26334e-06
1.55032e-06
-4.63483e-06
2.26823e-06
-4.05079e-06
2.94098e-06
-3.52263e-06
3.55859e-06
-3.05234e-06
4.11711e-06
-2.63716e-06
4.61635e-06
-2.27223e-06
5.05828e-06
-1.95193e-06
5.44605e-06
-1.67061e-06
5.78328e-06
-1.42296e-06
6.07372e-06
-1.20408e-06
6.32091e-06
-1.00953e-06
6.52811e-06
-8.35321e-07
6.69816e-06
-6.77797e-07
6.8334e-06
-5.33631e-07
6.93572e-06
-3.99736e-07
7.00645e-06
-2.7321e-07
7.04641e-06
-1.51276e-07
7.05587e-06
-3.12227e-08
7.03456e-06
8.96517e-08
6.98163e-06
2.14101e-07
6.89564e-06
3.44997e-07
6.77457e-06
4.85394e-07
6.61578e-06
6.38616e-07
6.416e-06
8.08337e-07
6.17135e-06
9.9868e-07
5.87737e-06
1.21433e-06
5.52911e-06
1.46064e-06
5.12132e-06
1.74372e-06
4.64884e-06
2.07052e-06
4.10716e-06
2.44876e-06
3.49352e-06
2.88662e-06
2.80859e-06
3.39208e-06
2.05919e-06
3.97134e-06
1.2622e-06
4.62576e-06
4.50051e-07
5.34638e-06
-3.22737e-07
6.10428e-06
-9.74058e-07
6.83504e-06
-1.39508e-06
7.41581e-06
-1.47078e-06
7.63591e-06
-1.13677e-06
7.17055e-06
-4.96729e-07
5.5832e-06
2.43186e-06
-3.40041e-07
-1.86415e-06
-9.02646e-07
-4.52449e-06
-1.36555e-06
-6.11643e-06
-1.58728e-06
-6.85421e-06
-1.54935e-06
-6.99686e-06
-1.29376e-06
-6.76442e-06
-8.81757e-07
-6.31962e-06
-3.72373e-07
-5.77273e-06
1.86185e-07
-5.19339e-06
7.5813e-07
-4.62274e-06
1.31871e-06
-4.08321e-06
1.85187e-06
-3.5855e-06
2.34799e-06
-3.13329e-06
2.80195e-06
-2.7262e-06
3.21168e-06
-2.36166e-06
3.57706e-06
-2.03599e-06
3.89917e-06
-1.74507e-06
4.17977e-06
-1.48467e-06
4.42088e-06
-1.25064e-06
4.62457e-06
-1.03902e-06
4.7928e-06
-8.46024e-07
4.92725e-06
-6.6808e-07
5.02928e-06
-5.01771e-07
5.09989e-06
-3.43813e-07
5.13962e-06
-1.91009e-07
5.1486e-06
-4.02047e-08
5.12649e-06
1.11767e-07
5.07245e-06
2.68134e-07
4.9852e-06
4.32246e-07
4.86296e-06
6.07634e-07
4.7035e-06
7.98075e-07
4.50419e-06
1.00766e-06
4.26203e-06
1.24084e-06
3.97385e-06
1.50251e-06
3.63648e-06
1.798e-06
3.24714e-06
2.13307e-06
2.80393e-06
2.51373e-06
2.30673e-06
2.94595e-06
1.75841e-06
3.43494e-06
1.16661e-06
3.98388e-06
5.46165e-07
4.59178e-06
-7.78623e-08
5.24979e-06
-6.66851e-07
5.93537e-06
-1.16618e-06
6.60361e-06
-1.50619e-06
7.17505e-06
-1.61142e-06
7.52104e-06
-1.42569e-06
7.45019e-06
-9.60421e-07
6.70528e-06
-3.66757e-07
4.98954e-06
2.0651e-06
-2.55157e-07
-1.60899e-06
-7.41792e-07
-4.03786e-06
-1.22304e-06
-5.63518e-06
-1.56213e-06
-6.51511e-06
-1.70998e-06
-6.84901e-06
-1.67242e-06
-6.80198e-06
-1.48204e-06
-6.51e-06
-1.17966e-06
-6.07511e-06
-8.04176e-07
-5.56887e-06
-3.88265e-07
-5.03865e-06
4.27424e-08
-4.51421e-06
4.70321e-07
-4.01308e-06
8.81601e-07
-3.54457e-06
1.26812e-06
-3.11272e-06
1.6247e-06
-2.71823e-06
1.94849e-06
-2.35978e-06
2.23827e-06
-2.03485e-06
2.49388e-06
-1.74028e-06
2.7158e-06
-1.47256e-06
2.90485e-06
-1.22808e-06
3.06201e-06
-1.00318e-06
3.18818e-06
-7.94252e-07
3.28415e-06
-5.97739e-07
3.35046e-06
-4.10128e-07
3.38739e-06
-2.2794e-07
3.39489e-06
-4.76984e-08
3.37255e-06
1.34105e-07
3.31964e-06
3.21047e-07
3.23506e-06
5.1682e-07
3.11743e-06
7.25269e-07
2.96507e-06
9.50433e-07
2.77615e-06
1.19658e-06
2.54878e-06
1.4682e-06
2.28126e-06
1.77003e-06
1.97235e-06
2.10691e-06
1.62174e-06
2.48368e-06
1.23065e-06
2.90482e-06
8.02783e-07
3.37382e-06
3.45416e-07
3.8923e-06
-1.29037e-07
4.45833e-06
-6.01288e-07
5.06403e-06
-1.04341e-06
5.69191e-06
-1.41769e-06
6.30966e-06
-1.67738e-06
6.8633e-06
-1.77144e-06
7.26911e-06
-1.65648e-06
7.40608e-06
-1.31917e-06
7.11287e-06
-8.10025e-07
6.19614e-06
-2.81342e-07
4.46085e-06
1.78376e-06
-1.99592e-07
-1.4094e-06
-6.19019e-07
-3.61843e-06
-1.08583e-06
-5.16837e-06
-1.48165e-06
-6.1193e-06
-1.74695e-06
-6.58372e-06
-1.86619e-06
-6.68274e-06
-1.85058e-06
-6.5256e-06
-1.72429e-06
-6.20141e-06
-1.51525e-06
-5.7779e-06
-1.25004e-06
-5.30386e-06
-9.5143e-07
-4.81283e-06
-6.37675e-07
-4.32683e-06
-3.22716e-07
-3.85952e-06
-1.67473e-08
-3.41869e-06
2.73076e-07
-3.00805e-06
5.41955e-07
-2.62866e-06
7.8685e-07
-2.27975e-06
1.00599e-06
-1.95942e-06
1.19848e-06
-1.66505e-06
1.36399e-06
-1.39359e-06
1.50252e-06
-1.14171e-06
1.61425e-06
-9.05973e-07
1.69934e-06
-6.8283e-07
1.75791e-06
-4.68702e-07
1.78994e-06
-2.59968e-07
1.79521e-06
-5.29697e-08
1.77331e-06
1.56008e-07
1.7236e-06
3.7075e-07
1.64529e-06
5.95137e-07
1.5374e-06
8.33156e-07
1.39893e-06
1.08891e-06
1.22889e-06
1.36662e-06
1.02657e-06
1.67052e-06
7.91714e-07
2.00488e-06
5.24908e-07
2.37372e-06
2.28034e-07
2.78056e-06
-9.51016e-08
3.22795e-06
-4.37985e-07
3.71671e-06
-7.90444e-07
4.24476e-06
-1.1376e-06
4.80548e-06
-1.45887e-06
5.38531e-06
-1.72747e-06
5.96051e-06
-1.91087e-06
6.49305e-06
-1.97349e-06
6.92592e-06
-1.88293e-06
7.17855e-06
-1.62122e-06
7.14437e-06
-1.20199e-06
6.69364e-06
-6.91323e-07
5.68547e-06
-2.24661e-07
3.99419e-06
1.5591e-06
-1.62251e-07
-1.24715e-06
-5.2709e-07
-3.25359e-06
-9.67767e-07
-4.7277e-06
-1.38639e-06
-5.70068e-06
-1.72339e-06
-6.24671e-06
-1.95228e-06
-6.45385e-06
-2.06996e-06
-6.40792e-06
-2.08737e-06
-6.184e-06
-2.0222e-06
-5.84307e-06
-1.89404e-06
-5.43202e-06
-1.7215e-06
-4.98537e-06
-1.52082e-06
-4.52752e-06
-1.30538e-06
-4.07497e-06
-1.08575e-06
-3.63832e-06
-8.69986e-07
-3.22381e-06
-6.64052e-07
-2.83459e-06
-4.72208e-07
-2.47159e-06
-2.97419e-07
-2.13421e-06
-1.41674e-07
-1.82079e-06
-6.27005e-09
-1.52899e-06
1.07975e-07
-1.25596e-06
2.00539e-07
-9.98537e-07
2.71069e-07
-7.53361e-07
3.19278e-07
-5.16911e-07
3.44873e-07
-2.85563e-07
3.47512e-07
-5.56088e-08
3.26785e-07
1.76735e-07
2.82216e-07
4.1532e-07
2.13292e-07
6.64061e-07
1.19524e-07
9.26924e-07
5.35285e-10
1.20789e-06
-1.43743e-07
1.5109e-06
-3.13008e-07
1.83979e-06
-5.06191e-07
2.19806e-06
-7.21174e-07
2.5887e-06
-9.54346e-07
3.01373e-06
-1.20007e-06
3.47368e-06
-1.45009e-06
3.96673e-06
-1.69286e-06
4.48753e-06
-1.91299e-06
5.02561e-06
-2.09099e-06
5.56331e-06
-2.20364e-06
6.07315e-06
-2.22553e-06
6.51495e-06
-2.13256e-06
6.83295e-06
-1.90806e-06
6.95404e-06
-1.55203e-06
6.78834e-06
-1.09296e-06
6.23457e-06
-5.99465e-07
5.19198e-06
-1.85838e-07
3.58056e-06
1.37326e-06
-1.36409e-07
-1.11074e-06
-4.58367e-07
-2.93163e-06
-8.70911e-07
-4.31515e-06
-1.29435e-06
-5.27724e-06
-1.6737e-06
-5.86737e-06
-1.97796e-06
-6.14958e-06
-2.19528e-06
-6.1906e-06
-2.32699e-06
-6.05229e-06
-2.38226e-06
-5.7878e-06
-2.37402e-06
-5.44026e-06
-2.31623e-06
-5.04316e-06
-2.2222e-06
-4.62155e-06
-2.10372e-06
-4.19344e-06
-1.97076e-06
-3.77128e-06
-1.8314e-06
-3.36317e-06
-1.69204e-06
-2.97396e-06
-1.5576e-06
-2.60603e-06
-1.43179e-06
-2.26001e-06
-1.31738e-06
-1.9352e-06
-1.21639e-06
-1.62999e-06
-1.13026e-06
-1.34208e-06
-1.06008e-06
-1.06871e-06
-1.00665e-06
-8.06797e-07
-9.70572e-07
-5.52987e-07
-9.52358e-07
-3.03777e-07
-9.52438e-07
-5.55293e-08
-9.71185e-07
1.95482e-07
-1.00891e-06
4.53041e-07
-1.06581e-06
7.20962e-07
-1.14192e-06
1.00304e-06
-1.23701e-06
1.30298e-06
-1.35042e-06
1.62431e-06
-1.48089e-06
1.97026e-06
-1.6263e-06
2.34348e-06
-1.78339e-06
2.74579e-06
-1.94737e-06
3.17771e-06
-2.11155e-06
3.63786e-06
-2.26693e-06
4.12211e-06
-2.40186e-06
4.62245e-06
-2.50191e-06
5.12567e-06
-2.55016e-06
5.61156e-06
-2.52814e-06
6.05113e-06
-2.41788e-06
6.40469e-06
-2.20544e-06
6.62051e-06
-1.8862e-06
6.6348e-06
-1.47177e-06
6.37391e-06
-9.97478e-07
5.76028e-06
-5.28162e-07
4.72266e-06
-1.58231e-07
3.21063e-06
1.21503e-06
-1.18031e-07
-9.9271e-07
-4.06714e-07
-2.64295e-06
-7.93176e-07
-3.92869e-06
-1.21257e-06
-4.85784e-06
-1.61594e-06
-5.464e-06
-1.9715e-06
-5.79403e-06
-2.2625e-06
-5.89959e-06
-2.48372e-06
-5.83108e-06
-2.63772e-06
-5.6338e-06
-2.73175e-06
-5.34624e-06
-2.77525e-06
-4.99965e-06
-2.77833e-06
-4.61847e-06
-2.75065e-06
-4.22113e-06
-2.7009e-06
-3.82102e-06
-2.63661e-06
-3.42747e-06
-2.56402e-06
-3.04655e-06
-2.48823e-06
-2.68182e-06
-2.41331e-06
-2.33493e-06
-2.34245e-06
-2.00606e-06
-2.27813e-06
-1.6943e-06
-2.22228e-06
-1.39794e-06
-2.17634e-06
-1.11465e-06
-2.14146e-06
-8.41684e-07
-2.11847e-06
-5.75971e-07
-2.10804e-06
-3.14206e-07
-2.11065e-06
-5.29275e-08
-2.12659e-06
2.11425e-07
-2.15601e-06
4.82459e-07
-2.19881e-06
7.63767e-07
-2.25463e-06
1.05886e-06
-2.3227e-06
1.37105e-06
-2.40175e-06
1.70336e-06
-2.48979e-06
2.0583e-06
-2.58397e-06
2.43765e-06
-2.68027e-06
2.84208e-06
-2.77328e-06
3.27072e-06
-2.85594e-06
3.72052e-06
-2.91935e-06
4.18551e-06
-2.95269e-06
4.6558e-06
-2.94345e-06
5.11643e-06
-2.87803e-06
5.54614e-06
-2.74297e-06
5.91608e-06
-2.52714e-06
6.18886e-06
-2.22486e-06
6.31823e-06
-1.8401e-06
6.25004e-06
-1.3913e-06
5.9251e-06
-9.15792e-07
5.28478e-06
-4.72123e-07
4.27899e-06
-1.37869e-07
2.87638e-06
1.07716e-06
-1.04659e-07
-8.88051e-07
-3.67593e-07
-2.38002e-06
-7.31421e-07
-3.56486e-06
-1.14292e-06
-4.44635e-06
-1.55916e-06
-5.04775e-06
-1.94944e-06
-5.40375e-06
-2.29465e-06
-5.55438e-06
-2.58534e-06
-5.54039e-06
-2.81923e-06
-5.3999e-06
-2.99894e-06
-5.16653e-06
-3.12996e-06
-4.86863e-06
-3.21925e-06
-4.52919e-06
-3.27415e-06
-4.16622e-06
-3.3018e-06
-3.79337e-06
-3.3087e-06
-3.42057e-06
-3.30057e-06
-3.05467e-06
-3.2823e-06
-2.70009e-06
-3.25797e-06
-2.35926e-06
-3.23093e-06
-2.03311e-06
-3.20388e-06
-1.72135e-06
-3.17898e-06
-1.42283e-06
-3.15796e-06
-1.13568e-06
-3.14212e-06
-8.57518e-07
-3.13249e-06
-5.85603e-07
-3.12979e-06
-3.16906e-07
-3.1345e-06
-4.82179e-08
-3.14685e-06
2.23773e-07
-3.16679e-06
5.02407e-07
-3.194e-06
7.9097e-07
-3.22774e-06
1.0926e-06
-3.26686e-06
1.41016e-06
-3.30959e-06
1.7461e-06
-3.3535e-06
2.10221e-06
-3.39524e-06
2.4794e-06
-3.43047e-06
2.87731e-06
-3.45362e-06
3.29387e-06
-3.45785e-06
3.72475e-06
-3.43496e-06
4.16262e-06
-3.37559e-06
4.59644e-06
-3.26964e-06
5.01048e-06
-3.10704e-06
5.38353e-06
-2.87909e-06
5.68813e-06
-2.58045e-06
5.89022e-06
-2.21176e-06
5.94955e-06
-1.78275e-06
5.82103e-06
-1.31542e-06
5.45777e-06
-8.46403e-07
4.81576e-06
-4.274e-07
3.85999e-06
-1.22362e-07
2.57134e-06
9.54799e-07
-9.47499e-08
-7.93301e-07
-3.37737e-07
-2.13703e-06
-6.82581e-07
-3.22002e-06
-1.085e-06
-4.04393e-06
-1.50748e-06
-4.62528e-06
-1.92121e-06
-4.99001e-06
-2.30627e-06
-5.16932e-06
-2.65064e-06
-5.19603e-06
-2.94863e-06
-5.10191e-06
-3.19926e-06
-4.9159e-06
-3.40471e-06
-4.66318e-06
-3.5691e-06
-4.3648e-06
-3.69752e-06
-4.0378e-06
-3.7954e-06
-3.6955e-06
-3.86804e-06
-3.34793e-06
-3.92035e-06
-3.00236e-06
-3.95675e-06
-2.66369e-06
-3.98107e-06
-2.33494e-06
-3.99658e-06
-2.0176e-06
-4.00601e-06
-1.71193e-06
-4.01159e-06
-1.41724e-06
-4.01515e-06
-1.13212e-06
-4.01809e-06
-8.54576e-07
-4.02149e-06
-5.82203e-07
-4.0261e-06
-3.12297e-07
-4.03236e-06
-4.19584e-08
-4.0404e-06
2.31816e-07
-4.05003e-06
5.12039e-07
-4.0607e-06
8.01632e-07
-4.07141e-06
1.10332e-06
-4.08071e-06
1.41947e-06
-4.08656e-06
1.75194e-06
-4.08622e-06
2.10187e-06
-4.0762e-06
2.46938e-06
-4.05213e-06
2.85323e-06
-4.00868e-06
3.25043e-06
-3.93963e-06
3.65569e-06
-3.83793e-06
4.06092e-06
-3.69601e-06
4.45452e-06
-3.50632e-06
4.8208e-06
-3.26222e-06
5.13942e-06
-2.95918e-06
5.38509e-06
-2.59656e-06
5.5276e-06
-2.17958e-06
5.53256e-06
-1.72159e-06
5.36304e-06
-1.24603e-06
4.98221e-06
-7.87474e-07
4.35721e-06
-3.91172e-07
3.46369e-06
-1.10233e-07
2.2904e-06
8.44566e-07
-8.73031e-08
-7.05998e-07
-3.14798e-07
-1.90954e-06
-6.44027e-07
-2.89079e-06
-1.03754e-06
-3.65041e-06
-1.46241e-06
-4.20041e-06
-1.89198e-06
-4.56044e-06
-2.3064e-06
-4.7549e-06
-2.69218e-06
-4.81024e-06
-3.04133e-06
-4.75276e-06
-3.35016e-06
-4.60707e-06
-3.61818e-06
-4.39516e-06
-3.84705e-06
-4.13593e-06
-4.03979e-06
-3.84505e-06
-4.20017e-06
-3.53512e-06
-4.3322e-06
-3.2159e-06
-4.43987e-06
-2.89469e-06
-4.52694e-06
-2.57663e-06
-4.5968e-06
-2.26508e-06
-4.65248e-06
-1.96192e-06
-4.69656e-06
-1.66784e-06
-4.73123e-06
-1.38257e-06
-4.75828e-06
-1.10508e-06
-4.77911e-06
-8.33743e-07
-4.79479e-06
-5.66523e-07
-4.80603e-06
-3.01054e-07
-4.81322e-06
-3.47742e-08
-4.81637e-06
2.34973e-07
-4.81518e-06
5.10839e-07
-4.80889e-06
7.95352e-07
-4.79637e-06
1.0908e-06
-4.77597e-06
1.39906e-06
-4.74549e-06
1.72146e-06
-4.70214e-06
2.05852e-06
-4.64247e-06
2.40971e-06
-4.56237e-06
2.77313e-06
-4.45704e-06
3.1451e-06
-4.32117e-06
3.51982e-06
-4.14906e-06
3.88881e-06
-3.93507e-06
4.24053e-06
-3.67417e-06
4.55989e-06
-3.36277e-06
4.82803e-06
-2.99988e-06
5.0222e-06
-2.58846e-06
5.11618e-06
-2.13696e-06
5.08106e-06
-1.66082e-06
4.8869e-06
-1.18361e-06
4.505e-06
-7.3732e-07
3.91092e-06
-3.61446e-07
3.08781e-06
-1.00547e-07
2.0295e-06
7.44019e-07
-8.16476e-08
-6.2435e-07
-2.9708e-07
-1.6941e-06
-6.13617e-07
-2.57425e-06
-9.99025e-07
-3.26501e-06
-1.42415e-06
-3.77528e-06
-1.86445e-06
-4.12015e-06
-2.30056e-06
-4.31879e-06
-2.7183e-06
-4.3925e-06
-3.10814e-06
-4.36291e-06
-3.46442e-06
-4.25079e-06
-3.78452e-06
-4.07506e-06
-4.06809e-06
-3.85237e-06
-4.31632e-06
-3.59682e-06
-4.53141e-06
-3.32002e-06
-4.71614e-06
-3.03117e-06
-4.8735e-06
-2.73733e-06
-5.00651e-06
-2.44361e-06
-5.11805e-06
-2.15354e-06
-5.21074e-06
-1.86923e-06
-5.28693e-06
-1.59166e-06
-5.34863e-06
-1.32087e-06
-5.39751e-06
-1.05619e-06
-5.43491e-06
-7.96344e-07
-5.46181e-06
-5.39621e-07
-5.47886e-06
-2.84007e-07
-5.48634e-06
-2.72905e-08
-5.4842e-06
2.32828e-07
-5.47198e-06
4.98622e-07
-5.44885e-06
7.72224e-07
-5.41355e-06
1.05549e-06
-5.36435e-06
1.34986e-06
-5.29906e-06
1.65616e-06
-5.21496e-06
1.97442e-06
-5.10884e-06
2.3036e-06
-4.97704e-06
2.64132e-06
-4.81549e-06
2.98355e-06
-4.61991e-06
3.32424e-06
-4.38607e-06
3.65498e-06
-4.11022e-06
3.96468e-06
-3.78964e-06
4.23931e-06
-3.42342e-06
4.4618e-06
-3.01339e-06
4.61218e-06
-2.56523e-06
4.66802e-06
-2.08955e-06
4.60538e-06
-1.60285e-06
4.4002e-06
-1.12809e-06
4.03024e-06
-6.94547e-07
3.47738e-06
-3.36816e-07
2.73008e-06
-9.26908e-08
1.78538e-06
6.51328e-07
-7.73209e-08
-5.47029e-07
-2.83344e-07
-1.48808e-06
-5.89654e-07
-2.26794e-06
-9.67997e-07
-2.88666e-06
-1.39229e-06
-3.35099e-06
-1.83985e-06
-3.67259e-06
-2.29206e-06
-3.86658e-06
-2.73449e-06
-3.95007e-06
-3.1566e-06
-3.9408e-06
-3.55134e-06
-3.85606e-06
-3.91444e-06
-3.71196e-06
-4.24391e-06
-3.5229e-06
-4.53938e-06
-3.30135e-06
-4.80168e-06
-3.05772e-06
-5.0324e-06
-2.80046e-06
-5.23357e-06
-2.53615e-06
-5.40746e-06
-2.26973e-06
-5.55634e-06
-2.00466e-06
-5.6824e-06
-1.74316e-06
-5.78767e-06
-1.48639e-06
-5.8739e-06
-1.23464e-06
-5.94259e-06
-9.87498e-07
-5.99494e-06
-7.43993e-07
-6.03182e-06
-5.02741e-07
-6.05377e-06
-2.62058e-07
-6.06099e-06
-2.00744e-08
-6.05331e-06
2.25151e-07
-6.03021e-06
4.75525e-07
-5.99078e-06
7.32796e-07
-5.93372e-06
9.98429e-07
-5.85731e-06
1.27345e-06
-5.75945e-06
1.5583e-06
-5.63764e-06
1.85261e-06
-5.48904e-06
2.155e-06
-5.31053e-06
2.46282e-06
-5.09888e-06
2.7719e-06
-4.85093e-06
3.07628e-06
-4.56388e-06
3.36793e-06
-4.23573e-06
3.63653e-06
-3.86582e-06
3.8694e-06
-3.45547e-06
4.05145e-06
-3.00874e-06
4.16545e-06
-2.5333e-06
4.19257e-06
-2.04111e-06
4.11319e-06
-1.54906e-06
3.90815e-06
-1.07914e-06
3.56031e-06
-6.58064e-07
3.05631e-06
-3.16284e-07
2.3883e-06
-8.62533e-08
1.55535e-06
5.65075e-07
-7.39967e-08
-4.73032e-07
-2.7268e-07
-1.2894e-06
-5.70809e-07
-1.96981e-06
-9.43173e-07
-2.5143e-06
-1.36613e-06
-2.92803e-06
-1.81864e-06
-3.22008e-06
-2.28285e-06
-3.40237e-06
-2.74433e-06
-3.4886e-06
-3.19196e-06
-3.49316e-06
-3.61767e-06
-3.43034e-06
-4.01598e-06
-3.31365e-06
-4.38356e-06
-3.15533e-06
-4.71875e-06
-2.96616e-06
-5.02119e-06
-2.75529e-06
-5.2914e-06
-2.53024e-06
-5.53054e-06
-2.29701e-06
-5.74012e-06
-2.06015e-06
-5.92181e-06
-1.82296e-06
-6.07735e-06
-1.58762e-06
-6.20838e-06
-1.35537e-06
-6.31639e-06
-1.12664e-06
-6.40264e-06
-9.01242e-07
-6.46817e-06
-6.78466e-07
-6.5137e-06
-4.57211e-07
-6.53966e-06
-2.36101e-07
-6.54614e-06
-1.35936e-08
-6.5329e-06
2.11914e-07
-6.49935e-06
4.4198e-07
-6.44456e-06
6.78003e-07
-6.36723e-06
9.21096e-07
-6.26573e-06
1.17195e-06
-6.13812e-06
1.43069e-06
-5.98219e-06
1.69668e-06
-5.79554e-06
1.96835e-06
-5.57569e-06
2.24297e-06
-5.32025e-06
2.51647e-06
-5.02716e-06
2.78319e-06
-4.69496e-06
3.03574e-06
-4.32325e-06
3.26482e-06
-3.9131e-06
3.45925e-06
-3.46764e-06
3.60599e-06
-2.99268e-06
3.69049e-06
-2.49725e-06
3.69715e-06
-1.99417e-06
3.61011e-06
-1.50027e-06
3.41426e-06
-1.03642e-06
3.09646e-06
-6.27037e-07
2.64692e-06
-2.99141e-07
2.06041e-06
-8.09523e-08
1.33716e-06
4.84122e-07
-7.1441e-08
-4.01592e-07
-2.64414e-07
-1.09642e-06
-5.56052e-07
-1.67818e-06
-9.23467e-07
-2.14688e-06
-1.34496e-06
-2.50654e-06
-1.80084e-06
-2.7642e-06
-2.274e-06
-2.92921e-06
-2.75016e-06
-3.01244e-06
-3.21787e-06
-3.02545e-06
-3.66834e-06
-2.97987e-06
-4.09518e-06
-2.88681e-06
-4.49401e-06
-2.7565e-06
-4.86214e-06
-2.59803e-06
-5.19818e-06
-2.41924e-06
-5.50176e-06
-2.22667e-06
-5.7732e-06
-2.02557e-06
-6.01334e-06
-1.82002e-06
-6.22329e-06
-1.61301e-06
-6.40431e-06
-1.4066e-06
-6.55767e-06
-1.202e-06
-6.68456e-06
-9.99745e-07
-6.78603e-06
-7.99779e-07
-6.86289e-06
-6.01602e-07
-6.91574e-06
-4.04367e-07
-6.94486e-06
-2.06976e-07
-6.95027e-06
-8.1875e-09
-6.93164e-06
1.93289e-07
-6.88836e-06
3.98695e-07
-6.81947e-06
6.09117e-07
-6.72375e-06
8.25371e-07
-6.59968e-06
1.04788e-06
-6.44553e-06
1.27655e-06
-6.25944e-06
1.51059e-06
-6.03947e-06
1.74838e-06
-5.78379e-06
1.98728e-06
-5.49083e-06
2.22351e-06
-5.15954e-06
2.4519e-06
-4.7897e-06
2.66589e-06
-4.38225e-06
2.85737e-06
-3.93971e-06
3.01671e-06
-3.46668e-06
3.13296e-06
-2.97026e-06
3.19406e-06
-2.46044e-06
3.18734e-06
-1.95049e-06
3.10015e-06
-1.45696e-06
2.92073e-06
-9.99605e-07
2.63911e-06
-6.00839e-07
2.24816e-06
-2.8488e-07
1.74445e-06
-7.65917e-08
1.12887e-06
4.07531e-07
-6.94845e-08
-3.32107e-07
-2.58045e-07
-9.07863e-07
-5.44589e-07
-1.39163e-06
-9.07996e-07
-1.78348e-06
-1.32807e-06
-2.08646e-06
-1.78626e-06
-2.30602e-06
-2.26609e-06
-2.44938e-06
-2.7535e-06
-2.52503e-06
-3.23686e-06
-2.54209e-06
-3.7069e-06
-2.50982e-06
-4.15655e-06
-2.43716e-06
-4.58064e-06
-2.33241e-06
-4.97562e-06
-2.20305e-06
-5.33928e-06
-2.05558e-06
-5.67047e-06
-1.89548e-06
-5.96882e-06
-1.72721e-06
-6.23456e-06
-1.55428e-06
-6.46829e-06
-1.37929e-06
-6.67082e-06
-1.20407e-06
-6.84307e-06
-1.02975e-06
-6.98595e-06
-8.56869e-07
-7.10025e-06
-6.85476e-07
-7.18662e-06
-5.15232e-07
-7.24549e-06
-3.455e-07
-7.27703e-06
-1.75431e-07
-7.28117e-06
-4.05321e-09
-7.25752e-06
1.69643e-07
-7.20544e-06
3.46618e-07
-7.12402e-06
5.27689e-07
-7.01208e-06
7.13432e-07
-6.86827e-06
9.04073e-07
-6.69109e-06
1.09938e-06
-6.47902e-06
1.29852e-06
-6.23059e-06
1.49995e-06
-5.94458e-06
1.70127e-06
-5.62017e-06
1.8991e-06
-5.25725e-06
2.08898e-06
-4.85661e-06
2.26525e-06
-4.42034e-06
2.4211e-06
-3.95218e-06
2.54855e-06
-3.45782e-06
2.6386e-06
-2.94531e-06
2.68156e-06
-2.42533e-06
2.66735e-06
-1.9113e-06
2.58613e-06
-1.41943e-06
2.42886e-06
-9.6843e-07
2.1881e-06
-5.79012e-07
1.85874e-06
-2.73136e-07
1.43857e-06
-7.30337e-08
9.28768e-07
3.34497e-07
-6.80039e-08
-2.64103e-07
-2.532e-07
-7.22666e-07
-5.35815e-07
-1.10902e-06
-8.96055e-07
-1.42324e-06
-1.31489e-06
-1.66763e-06
-1.77464e-06
-1.84627e-06
-2.2594e-06
-1.96461e-06
-2.75532e-06
-2.02911e-06
-3.25069e-06
-2.04672e-06
-3.73594e-06
-2.02458e-06
-4.20347e-06
-1.96962e-06
-4.64753e-06
-1.88836e-06
-5.0639e-06
-1.78668e-06
-5.44971e-06
-1.66977e-06
-5.80318e-06
-1.54201e-06
-6.12336e-06
-1.40703e-06
-6.40996e-06
-1.26768e-06
-6.66312e-06
-1.12613e-06
-6.88329e-06
-9.83908e-07
-7.07105e-06
-8.4199e-07
-7.22704e-06
-7.00873e-07
-7.35186e-06
-5.60658e-07
-7.44596e-06
-4.21129e-07
-7.50964e-06
-2.81822e-07
-7.54297e-06
-1.42105e-07
-7.54578e-06
-1.24394e-09
-7.51765e-06
1.4152e-07
-7.45794e-06
2.86903e-07
-7.36575e-06
4.35497e-07
-7.24e-06
5.87688e-07
-7.0795e-06
7.43572e-07
-6.88298e-06
9.02858e-07
-6.64924e-06
1.06477e-06
-6.37723e-06
1.22794e-06
-6.06628e-06
1.39032e-06
-5.71626e-06
1.54908e-06
-5.3278e-06
1.70051e-06
-4.90259e-06
1.84004e-06
-4.44364e-06
1.96216e-06
-3.95561e-06
2.06052e-06
-3.44507e-06
2.12806e-06
-2.92075e-06
2.15724e-06
-2.39374e-06
2.14034e-06
-1.87753e-06
2.06991e-06
-1.38791e-06
1.93924e-06
-9.42694e-07
1.74289e-06
-5.61218e-07
1.47726e-06
-2.63652e-07
1.14101e-06
-7.01809e-08
7.35297e-07
2.64316e-07
-6.69099e-08
-1.97193e-07
-2.49607e-07
-5.39969e-07
-5.29275e-07
-8.2935e-07
-8.87098e-07
-1.06541e-06
-1.30491e-06
-1.24982e-06
-1.76571e-06
-1.38547e-06
-2.25404e-06
-1.47628e-06
-2.75625e-06
-1.5269e-06
-3.2606e-06
-1.54237e-06
-3.7573e-06
-1.52787e-06
-4.23843e-06
-1.48849e-06
-4.69776e-06
-1.42903e-06
-5.13059e-06
-1.35385e-06
-5.53355e-06
-1.26681e-06
-5.90434e-06
-1.17122e-06
-6.24157e-06
-1.0698e-06
-6.54451e-06
-9.64738e-07
-6.81295e-06
-8.57695e-07
-7.047e-06
-7.4986e-07
-7.24698e-06
-6.42004e-07
-7.41332e-06
-5.34539e-07
-7.5464e-06
-4.27577e-07
-7.64654e-06
-3.20986e-07
-7.71391e-06
-2.1445e-07
-7.7485e-06
-1.07522e-07
-7.75006e-06
3.22117e-10
-7.71816e-06
1.09619e-07
-7.65213e-06
2.20875e-07
-7.55113e-06
3.34495e-07
-7.41417e-06
4.50725e-07
-7.24018e-06
5.69583e-07
-7.02811e-06
6.9079e-07
-6.77704e-06
8.13696e-07
-6.4863e-06
9.37203e-07
-6.15567e-06
1.0597e-06
-5.78557e-06
1.17898e-06
-5.37727e-06
1.29221e-06
-4.93314e-06
1.39591e-06
-4.45693e-06
1.48595e-06
-3.95399e-06
1.55758e-06
-3.43153e-06
1.60559e-06
-2.89876e-06
1.62447e-06
-2.36704e-06
1.60862e-06
-1.84982e-06
1.5527e-06
-1.36253e-06
1.45195e-06
-9.22248e-07
1.30261e-06
-5.47217e-07
1.10223e-06
-2.56243e-07
8.50031e-07
-6.7965e-08
5.47019e-07
1.96351e-07
-6.61389e-08
-1.31054e-07
-2.47067e-07
-3.59041e-07
-5.24636e-07
-5.5178e-07
-8.80714e-07
-7.09336e-07
-1.29775e-06
-8.32777e-07
-1.75924e-06
-9.23981e-07
-2.25004e-06
-9.85478e-07
-2.75668e-06
-1.02027e-06
-3.26741e-06
-1.03164e-06
-3.77231e-06
-1.02297e-06
-4.26322e-06
-9.97585e-07
-4.7336e-06
-9.58648e-07
-5.17841e-06
-9.09045e-07
-5.59388e-06
-8.51337e-07
-5.97737e-06
-7.87726e-07
-6.32712e-06
-7.20041e-07
-6.64211e-06
-6.49751e-07
-6.92182e-06
-5.77981e-07
-7.16614e-06
-5.05543e-07
-7.37517e-06
-4.32971e-07
-7.54916e-06
-3.60558e-07
-7.68834e-06
-2.88394e-07
-7.79291e-06
-2.16409e-07
-7.86296e-06
-1.44406e-07
-7.89838e-06
-7.20996e-08
-7.8989e-06
8.43787e-10
-7.86405e-06
7.47689e-08
-7.79317e-06
1.49996e-07
-7.68545e-06
2.26776e-07
-7.53998e-06
3.05251e-07
-7.3558e-06
3.85407e-07
-7.13204e-06
4.6703e-07
-6.868e-06
5.49652e-07
-6.5633e-06
6.32508e-07
-6.21809e-06
7.14484e-07
-5.8332e-06
7.9408e-07
-5.41037e-06
8.69382e-07
-4.9525e-06
9.38044e-07
-4.46386e-06
9.97306e-07
-3.95031e-06
1.04403e-06
-3.41949e-06
1.07478e-06
-2.88095e-06
1.08594e-06
-2.34621e-06
1.07387e-06
-1.82865e-06
1.03514e-06
-1.34341e-06
9.66707e-07
-9.06989e-07
8.66188e-07
-5.36844e-07
7.32087e-07
-2.50783e-07
5.63971e-07
-6.63388e-08
3.62575e-07
1.30012e-07
-6.56473e-08
-6.54071e-08
-2.45445e-07
-1.79244e-07
-5.21666e-07
-2.75559e-07
-8.76613e-07
-3.54388e-07
-1.29313e-06
-4.16256e-07
-1.75503e-06
-4.62084e-07
-2.24739e-06
-4.93114e-07
-2.75685e-06
-5.10819e-07
-3.27167e-06
-5.16817e-07
-3.78186e-06
-5.12776e-07
-4.2791e-06
-5.00345e-07
-4.75666e-06
-4.81089e-07
-5.20926e-06
-4.56444e-07
-5.63291e-06
-4.27688e-07
-6.02472e-06
-3.9592e-07
-6.3827e-06
-3.62058e-07
-6.70561e-06
-3.26841e-07
-6.99276e-06
-2.90836e-07
-7.24385e-06
-2.54454e-07
-7.45885e-06
-2.17969e-07
-7.63787e-06
-1.81533e-07
-7.78107e-06
-1.45195e-07
-7.88855e-06
-1.08926e-07
-7.96033e-06
-7.26301e-08
-7.99626e-06
-3.61706e-08
-7.99603e-06
6.15472e-10
-7.95916e-06
3.78963e-08
-7.88499e-06
7.58265e-08
-7.77274e-06
1.14526e-07
-7.62155e-06
1.54059e-07
-7.43055e-06
1.94411e-07
-7.19899e-06
2.35465e-07
-6.92631e-06
2.76979e-07
-6.61236e-06
3.18558e-07
-6.25752e-06