/*--------------------------------*- C++ -*----------------------------------*\
  =========                 |
  \\      /  F ield         | OpenFOAM: The Open Source CFD Toolbox
   \\    /   O peration     | Website:  https://openfoam.org
    \\  /    A nd           | Version:  7
     \\/     M anipulation  |
\*---------------------------------------------------------------------------*/
FoamFile
{
    version     2.0;
    format      ascii;
    class       volVectorField;
    location    "0.048";
    object      U;
}
// * * * * * * * * * * * * * * * * * * * * * * * * * * * * * * * * * * * * * //

dimensions      [0 1 -1 0 0 0 0];

internalField   nonuniform List<vector> 
2500
(
(0.290247 -0.152408 0)
(0.389523 -0.128229 0)
(0.565404 -0.0747298 0)
(0.68323 -0.0422308 0)
(0.752828 -0.0245309 0)
(0.797852 -0.0148915 0)
(0.829034 -0.00958514 0)
(0.851525 -0.00656255 0)
(0.868354 -0.00473894 0)
(0.881341 -0.00356437 0)
(0.891596 -0.00276061 0)
(0.899825 -0.00218221 0)
(0.906507 -0.00174931 0)
(0.911977 -0.00141546 0)
(0.91648 -0.00115202 0)
(0.920197 -0.000940311 0)
(0.923267 -0.000767541 0)
(0.925799 -0.000624577 0)
(0.927876 -0.000504663 0)
(0.929564 -0.000402635 0)
(0.930916 -0.000314428 0)
(0.931972 -0.000236748 0)
(0.932763 -0.000166841 0)
(0.933311 -0.000102335 0)
(0.933631 -4.11237e-05 0)
(0.933731 1.8753e-05 0)
(0.933614 7.93475e-05 0)
(0.933274 0.000142455 0)
(0.9327 0.000210112 0)
(0.931873 0.000284577 0)
(0.930768 0.000368433 0)
(0.929349 0.000464757 0)
(0.927569 0.00057735 0)
(0.925367 0.000711066 0)
(0.922667 0.000872297 0)
(0.919367 0.00106973 0)
(0.915336 0.00131555 0)
(0.9104 0.00162752 0)
(0.904323 0.00203273 0)
(0.896781 0.00257461 0)
(0.887306 0.00332718 0)
(0.875206 0.00442475 0)
(0.859391 0.00612597 0)
(0.83806 0.00895155 0)
(0.80816 0.0139615 0)
(0.764421 0.0232475 0)
(0.69591 0.0407721 0)
(0.57794 0.073747 0)
(0.398045 0.128744 0)
(0.293867 0.153784 0)
(0.00108087 -0.294879 0)
(0.0168445 -0.298602 0)
(0.152307 -0.213012 0)
(0.282846 -0.145326 0)
(0.388025 -0.0996462 0)
(0.471261 -0.0698251 0)
(0.536707 -0.0504777 0)
(0.588212 -0.0376814 0)
(0.629117 -0.0289244 0)
(0.661981 -0.0227051 0)
(0.688665 -0.018133 0)
(0.710528 -0.01467 0)
(0.728567 -0.0119807 0)
(0.743529 -0.00984879 0)
(0.755983 -0.00812946 0)
(0.766366 -0.00672246 0)
(0.77502 -0.00555598 0)
(0.782215 -0.004577 0)
(0.788166 -0.00374526 0)
(0.793044 -0.00302931 0)
(0.796984 -0.00240397 0)
(0.800093 -0.00184847 0)
(0.802452 -0.00134522 0)
(0.804122 -0.000878859 0)
(0.805143 -0.000435503 0)
(0.805538 -2.16729e-06 0)
(0.805313 0.000433892 0)
(0.804455 0.000885359 0)
(0.802936 0.00136571 0)
(0.800707 0.00188972 0)
(0.797699 0.00247422 0)
(0.793818 0.00313907 0)
(0.788941 0.00390847 0)
(0.782912 0.00481277 0)
(0.775529 0.00589123 0)
(0.766534 0.00719592 0)
(0.755597 0.00879787 0)
(0.742286 0.0107968 0)
(0.726035 0.0133369 0)
(0.706086 0.0166346 0)
(0.681413 0.0210254 0)
(0.650599 0.0270513 0)
(0.611667 0.0356173 0)
(0.561845 0.0482753 0)
(0.497401 0.0676843 0)
(0.413874 0.0981477 0)
(0.306361 0.145777 0)
(0.170536 0.217299 0)
(0.0269035 0.307194 0)
(0.00518455 0.303005 0)
(-0.0329203 -0.250373 0)
(-0.0615907 -0.34403 0)
(-0.0114857 -0.310591 0)
(0.0708374 -0.251538 0)
(0.158964 -0.196014 0)
(0.241506 -0.151443 0)
(0.314106 -0.117737 0)
(0.37607 -0.0926298 0)
(0.428296 -0.0738286 0)
(0.472134 -0.0595549 0)
(0.508923 -0.0485357 0)
(0.539836 -0.0398832 0)
(0.565858 -0.0329797 0)
(0.587793 -0.0273916 0)
(0.606296 -0.0228096 0)
(0.621895 -0.0190085 0)
(0.635024 -0.0158204 0)
(0.646034 -0.0131179 0)
(0.65521 -0.0108014 0)
(0.662785 -0.00879195 0)
(0.668947 -0.00702478 0)
(0.673843 -0.00544585 0)
(0.67759 -0.00400873 0)
(0.680274 -0.00267237 0)
(0.681951 -0.00139935 0)
(0.682655 -0.000154396 0)
(0.682393 0.00109688 0)
(0.681149 0.00238944 0)
(0.678879 0.00376001 0)
(0.675512 0.0052487 0)
(0.670949 0.00690088 0)
(0.665055 0.00876955 0)
(0.657656 0.0109185 0)
(0.648529 0.0134268 0)
(0.637397 0.0163946 0)
(0.623909 0.0199521 0)
(0.607625 0.0242723 0)
(0.587994 0.0295902 0)
(0.56432 0.0362312 0)
(0.535724 0.0446559 0)
(0.501104 0.0555267 0)
(0.459099 0.0698076 0)
(0.408092 0.0889017 0)
(0.346329 0.114807 0)
(0.272378 0.150169 0)
(0.18637 0.19775 0)
(0.0923353 0.258088 0)
(0.00188669 0.323328 0)
(-0.0569172 0.361553 0)
(-0.0321682 0.263989 0)
(-0.0267689 -0.190607 0)
(-0.0654151 -0.332997 0)
(-0.0645211 -0.351498 0)
(-0.0274464 -0.319251 0)
(0.0297012 -0.271998 0)
(0.0938413 -0.225458 0)
(0.157284 -0.185106 0)
(0.216228 -0.151854 0)
(0.269156 -0.12497 0)
(0.315776 -0.103327 0)
(0.356384 -0.0858457 0)
(0.391524 -0.0716271 0)
(0.421807 -0.059965 0)
(0.447824 -0.050315 0)
(0.470117 -0.0422598 0)
(0.489162 -0.035478 0)
(0.50537 -0.0297188 0)
(0.519092 -0.0247843 0)
(0.530625 -0.0205156 0)
(0.540217 -0.0167823 0)
(0.548072 -0.0134759 0)
(0.554354 -0.0105037 0)
(0.559193 -0.00778481 0)
(0.562686 -0.00524658 0)
(0.564899 -0.00282214 0)
(0.565867 -0.000447934 0)
(0.565599 0.00193843 0)
(0.564072 0.00440035 0)
(0.561235 0.0070044 0)
(0.557003 0.00982289 0)
(0.551259 0.0129369 0)
(0.543845 0.01644 0)
(0.534562 0.0204434 0)
(0.52316 0.0250818 0)
(0.509332 0.0305229 0)
(0.492705 0.0369784 0)
(0.472828 0.0447209 0)
(0.44916 0.0541056 0)
(0.421066 0.0656007 0)
(0.387813 0.0798263 0)
(0.348599 0.0976013 0)
(0.30262 0.119987 0)
(0.24925 0.148294 0)
(0.188402 0.183954 0)
(0.121239 0.22804 0)
(0.0514335 0.279872 0)
(-0.0129701 0.33371 0)
(-0.0577525 0.372256 0)
(-0.0646537 0.355957 0)
(-0.0272822 0.204814 0)
(-0.0178443 -0.149168 0)
(-0.0530931 -0.302936 0)
(-0.0736007 -0.354887 0)
(-0.0665587 -0.350261 0)
(-0.0373822 -0.319598 0)
(0.00471659 -0.280256 0)
(0.0525299 -0.240819 0)
(0.101297 -0.204905 0)
(0.148175 -0.173626 0)
(0.191665 -0.146954 0)
(0.231114 -0.124413 0)
(0.266369 -0.105409 0)
(0.29755 -0.0893649 0)
(0.324916 -0.0757742 0)
(0.34878 -0.0642087 0)
(0.369468 -0.0543134 0)
(0.387294 -0.0457951 0)
(0.402547 -0.038411 0)
(0.415482 -0.0319579 0)
(0.426324 -0.0262642 0)
(0.435262 -0.0211825 0)
(0.442455 -0.0165838 0)
(0.448025 -0.0123533 0)
(0.452069 -0.0083864 0)
(0.45465 -0.00458514 0)
(0.455801 -0.000855688 0)
(0.455528 0.00289466 0)
(0.453806 0.00676018 0)
(0.450577 0.0108397 0)
(0.445752 0.0152398 0)
(0.43921 0.0200789 0)
(0.430788 0.0254914 0)
(0.420287 0.0316341 0)
(0.407463 0.0386932 0)
(0.392028 0.0468933 0)
(0.373643 0.0565092 0)
(0.351924 0.0678803 0)
(0.326447 0.0814272 0)
(0.296764 0.0976691 0)
(0.262448 0.117238 0)
(0.223168 0.140877 0)
(0.178836 0.169394 0)
(0.129856 0.20351 0)
(0.0775376 0.243501 0)
(0.0246865 0.288389 0)
(-0.023615 0.33435 0)
(-0.0593388 0.371838 0)
(-0.0719062 0.381259 0)
(-0.0543072 0.328216 0)
(-0.0186398 0.162492 0)
(-0.011423 -0.120918 0)
(-0.0402516 -0.269956 0)
(-0.0678239 -0.340147 0)
(-0.0777512 -0.357315 0)
(-0.0689199 -0.344014 0)
(-0.0461221 -0.315736 0)
(-0.0145401 -0.281867 0)
(0.0215603 -0.247556 0)
(0.0590661 -0.215332 0)
(0.0959151 -0.186234 0)
(0.130854 -0.160511 0)
(0.163194 -0.138027 0)
(0.192621 -0.11848 0)
(0.219053 -0.101517 0)
(0.242551 -0.0867895 0)
(0.263252 -0.0739744 0)
(0.281332 -0.062783 0)
(0.296979 -0.0529606 0)
(0.310378 -0.0442839 0)
(0.321701 -0.0365558 0)
(0.3311 -0.0296012 0)
(0.338706 -0.0232627 0)
(0.344626 -0.0173964 0)
(0.348938 -0.0118689 0)
(0.351699 -0.00655325 0)
(0.352934 -0.00132664 0)
(0.352645 0.00393309 0)
(0.350803 0.00935036 0)
(0.347351 0.0150551 0)
(0.342203 0.0211865 0)
(0.335242 0.0278968 0)
(0.326322 0.0353566 0)
(0.315262 0.0437596 0)
(0.301853 0.0533302 0)
(0.28586 0.0643298 0)
(0.267023 0.0770654 0)
(0.245076 0.0918969 0)
(0.219769 0.109242 0)
(0.190902 0.129573 0)
(0.1584 0.153397 0)
(0.122409 0.181198 0)
(0.0834656 0.213314 0)
(0.0427312 0.249676 0)
(0.00230325 0.28933 0)
(-0.0344494 0.329596 0)
(-0.06268 0.364718 0)
(-0.0762799 0.383928 0)
(-0.0693463 0.369387 0)
(-0.0422778 0.295375 0)
(-0.0121787 0.13301 0)
(-0.00746788 -0.100923 0)
(-0.0304269 -0.239687 0)
(-0.0586221 -0.318067 0)
(-0.0769636 -0.35021 0)
(-0.081363 -0.351659 0)
(-0.0733363 -0.334891 0)
(-0.0559011 -0.308661 0)
(-0.0322157 -0.278586 0)
(-0.00501058 -0.248003 0)
(0.0236154 -0.218736 0)
(0.0521725 -0.191673 0)
(0.0796692 -0.167152 0)
(0.105489 -0.1452 0)
(0.129283 -0.125682 0)
(0.150888 -0.108388 0)
(0.170259 -0.0930779 0)
(0.187429 -0.0795084 0)
(0.202474 -0.0674457 0)
(0.215491 -0.0566704 0)
(0.226586 -0.0469787 0)
(0.235862 -0.038182 0)
(0.24341 -0.0301046 0)
(0.249307 -0.0225818 0)
(0.253614 -0.0154571 0)
(0.256368 -0.00857959 0)
(0.257587 -0.0018012 0)
(0.257266 0.00502612 0)
(0.255375 0.0120533 0)
(0.251862 0.0194374 0)
(0.246649 0.027345 0)
(0.239636 0.0359556 0)
(0.230701 0.0454663 0)
(0.219702 0.0560952 0)
(0.206483 0.0680864 0)
(0.190882 0.0817132 0)
(0.172744 0.09728 0)
(0.151945 0.11512 0)
(0.128421 0.135586 0)
(0.102224 0.159025 0)
(0.0735909 0.185725 0)
(0.0430509 0.215819 0)
(0.0115617 0.249109 0)
(-0.0193216 0.284766 0)
(-0.0472819 0.320858 0)
(-0.069167 0.353645 0)
(-0.0811785 0.376639 0)
(-0.0795208 0.379597 0)
(-0.0620088 0.347966 0)
(-0.0327337 0.263919 0)
(-0.00812353 0.111671 0)
(-0.00513166 -0.0862621 0)
(-0.0235283 -0.213389 0)
(-0.0498878 -0.293861 0)
(-0.0717577 -0.335262 0)
(-0.0841631 -0.347948 0)
(-0.0866351 -0.341415 0)
(-0.0804701 -0.323153 0)
(-0.0676583 -0.29855 0)
(-0.0502731 -0.271221 0)
(-0.0301354 -0.243446 0)
(-0.00869658 -0.216576 0)
(0.0129579 -0.191344 0)
(0.034058 -0.168089 0)
(0.0540851 -0.146909 0)
(0.0727107 -0.127757 0)
(0.089744 -0.110508 0)
(0.105091 -0.0949898 0)
(0.118724 -0.0810158 0)
(0.130654 -0.068391 0)
(0.140917 -0.0569222 0)
(0.14956 -0.0464209 0)
(0.156633 -0.036705 0)
(0.162178 -0.0275977 0)
(0.16623 -0.0189272 0)
(0.16881 -0.010525 0)
(0.169923 -0.00222343 0)
(0.169559 0.00614582 0)
(0.167689 0.0147547 0)
(0.164267 0.023781 0)
(0.15923 0.0334112 0)
(0.152502 0.0438432 0)
(0.143993 0.055289 0)
(0.133609 0.0679759 0)
(0.121255 0.0821484 0)
(0.106855 0.0980667 0)
(0.0903633 0.116001 0)
(0.0717932 0.13622 0)
(0.0512556 0.158966 0)
(0.0290086 0.184413 0)
(0.00552482 0.212591 0)
(-0.0184255 0.243267 0)
(-0.0416813 0.275756 0)
(-0.062607 0.308637 0)
(-0.0790614 0.339356 0)
(-0.0885091 0.363724 0)
(-0.0884025 0.375389 0)
(-0.076921 0.365481 0)
(-0.0542797 0.322867 0)
(-0.0258935 0.2357 0)
(-0.00570007 0.0956667 0)
(-0.00373435 -0.0750561 0)
(-0.0187629 -0.190809 0)
(-0.0426413 -0.2699 0)
(-0.0654947 -0.316344 0)
(-0.082468 -0.336948 0)
(-0.0920711 -0.338721 0)
(-0.0944287 -0.32776 0)
(-0.0905537 -0.308871 0)
(-0.0818321 -0.285582 0)
(-0.0696723 -0.260346 0)
(-0.0553253 -0.234785 0)
(-0.0398196 -0.209915 0)
(-0.0239548 -0.186329 0)
(-0.00832611 -0.164333 0)
(0.00664125 -0.144043 0)
(0.0206562 -0.125454 0)
(0.0335296 -0.108483 0)
(0.0451464 -0.0930033 0)
(0.0554444 -0.0788591 0)
(0.0643961 -0.0658816 0)
(0.071996 -0.0538946 0)
(0.0782501 -0.0427193 0)
(0.0831684 -0.0321764 0)
(0.0867594 -0.0220866 0)
(0.0890258 -0.0122708 0)
(0.089962 -0.0025489 0)
(0.0895526 0.00726142 0)
(0.0877713 0.0173461 0)
(0.0845817 0.0278962 0)
(0.0799389 0.0391097 0)
(0.0737925 0.0511926 0)
(0.0660905 0.0643601 0)
(0.0567882 0.0788332 0)
(0.0458577 0.0948401 0)
(0.0333024 0.112606 0)
(0.0191773 0.132345 0)
(0.00361607 0.154233 0)
(-0.0131339 0.17838 0)
(-0.0306677 0.204772 0)
(-0.0483718 0.233186 0)
(-0.0653703 0.263068 0)
(-0.0804807 0.293356 0)
(-0.0922029 0.322244 0)
(-0.0987827 0.346894 0)
(-0.0984189 0.363132 0)
(-0.0896912 0.365222 0)
(-0.0722056 0.345913 0)
(-0.0475018 0.29701 0)
(-0.0210823 0.210829 0)
(-0.00423433 0.083167 0)
(-0.002868 -0.0661245 0)
(-0.0154417 -0.171306 0)
(-0.0369228 -0.247124 0)
(-0.0595434 -0.295681 0)
(-0.0789597 -0.321448 0)
(-0.0932637 -0.329531 0)
(-0.101867 -0.324752 0)
(-0.105061 -0.311211 0)
(-0.103632 -0.292148 0)
(-0.0985619 -0.269983 0)
(-0.090829 -0.246448 0)
(-0.0813161 -0.222725 0)
(-0.070766 -0.199588 0)
(-0.0597751 -0.177506 0)
(-0.0488048 -0.156739 0)
(-0.0382 -0.137394 0)
(-0.0282115 -0.119477 0)
(-0.0190156 -0.102927 0)
(-0.0107323 -0.0876374 0)
(-0.00344082 -0.0734707 0)
(0.00280842 -0.0602721 0)
(0.00798382 -0.0478748 0)
(0.012065 -0.0361047 0)
(0.0150369 -0.0247826 0)
(0.0168858 -0.0137259 0)
(0.0175962 -0.00274884 0)
(0.0171494 0.00833775 0)
(0.0155231 0.0197265 0)
(0.0126921 0.0316142 0)
(0.00863028 0.0442014 0)
(0.00331566 0.0576926 0)
(-0.00326696 0.0722939 0)
(-0.0111145 0.0882096 0)
(-0.0201943 0.105636 0)
(-0.0304323 0.12475 0)
(-0.0416914 0.145692 0)
(-0.0537474 0.168538 0)
(-0.0662607 0.193261 0)
(-0.0787436 0.219668 0)
(-0.0905287 0.24732 0)
(-0.100744 0.275414 0)
(-0.108312 0.302642 0)
(-0.111987 0.327011 0)
(-0.110474 0.345659 0)
(-0.10266 0.35471 0)
(-0.0880083 0.349251 0)
(-0.0670427 0.32356 0)
(-0.0419082 0.271743 0)
(-0.0176553 0.188888 0)
(-0.00331124 0.073011 0)
(-0.00230749 -0.0587368 0)
(-0.0130867 -0.154234 0)
(-0.0324951 -0.225784 0)
(-0.0543716 -0.27447 0)
(-0.0749743 -0.303258 0)
(-0.0923117 -0.315853 0)
(-0.105408 -0.316016 0)
(-0.114063 -0.307152 0)
(-0.118596 -0.292116 0)
(-0.119603 -0.273176 0)
(-0.117782 -0.252049 0)
(-0.113831 -0.22999 0)
(-0.108384 -0.207877 0)
(-0.101987 -0.186298 0)
(-0.0950903 -0.16562 0)
(-0.0880528 -0.146047 0)
(-0.0811547 -0.127667 0)
(-0.074609 -0.110481 0)
(-0.0685745 -0.0944318 0)
(-0.0631681 -0.0794202 0)
(-0.0584746 -0.0653172 0)
(-0.0545557 -0.0519739 0)
(-0.0514568 -0.0392276 0)
(-0.0492122 -0.0269058 0)
(-0.0478493 -0.0148286 0)
(-0.047391 -0.00281123 0)
(-0.0478575 0.00933565 0)
(-0.049266 0.0218045 0)
(-0.0516299 0.03479 0)
(-0.0549563 0.0484878 0)
(-0.0592414 0.0630921 0)
(-0.0644651 0.0787907 0)
(-0.0705824 0.0957619 0)
(-0.0775116 0.114161 0)
(-0.0851226 0.134108 0)
(-0.0932186 0.155666 0)
(-0.101518 0.178811 0)
(-0.109633 0.203389 0)
(-0.11705 0.229058 0)
(-0.123117 0.255211 0)
(-0.127044 0.280884 0)
(-0.127928 0.30464 0)
(-0.124826 0.324456 0)
(-0.116884 0.337622 0)
(-0.103563 0.340703 0)
(-0.084957 0.32963 0)
(-0.0621207 0.299994 0)
(-0.0373775 0.24761 0)
(-0.0151539 0.169372 0)
(-0.00269991 0.0644826 0)
(-0.00192974 -0.0524307 0)
(-0.0113848 -0.139051 0)
(-0.0290854 -0.205832 0)
(-0.0500623 -0.253321 0)
(-0.0711364 -0.283515 0)
(-0.0903982 -0.299115 0)
(-0.106693 -0.303034 0)
(-0.119511 -0.298056 0)
(-0.128827 -0.286635 0)
(-0.134921 -0.270819 0)
(-0.138237 -0.252236 0)
(-0.139278 -0.232135 0)
(-0.138549 -0.211439 0)
(-0.136513 -0.190805 0)
(-0.133577 -0.170676 0)
(-0.130085 -0.15133 0)
(-0.126319 -0.132921 0)
(-0.122506 -0.115507 0)
(-0.118827 -0.0990773 0)
(-0.115421 -0.0835694 0)
(-0.112396 -0.0688831 0)
(-0.109835 -0.0548913 0)
(-0.107802 -0.0414469 0)
(-0.106346 -0.0283889 0)
(-0.105504 -0.015546 0)
(-0.105304 -0.00273956 0)
(-0.105765 0.0102138 0)
(-0.106898 0.0235 0)
(-0.108707 0.0373056 0)
(-0.111179 0.0518143 0)
(-0.114288 0.0672031 0)
(-0.117986 0.0836364 0)
(-0.122192 0.101258 0)
(-0.12679 0.120179 0)
(-0.131609 0.140462 0)
(-0.136417 0.162094 0)
(-0.140906 0.184961 0)
(-0.144679 0.208805 0)
(-0.147241 0.233168 0)
(-0.148006 0.257335 0)
(-0.146309 0.280251 0)
(-0.141453 0.300454 0)
(-0.132791 0.316 0)
(-0.119857 0.32443 0)
(-0.102553 0.322797 0)
(-0.0813859 0.307808 0)
(-0.0576806 0.276115 0)
(-0.0337104 0.224772 0)
(-0.0132772 0.151833 0)
(-0.00227428 0.0571311 0)
(-0.00166613 -0.0469024 0)
(-0.0101332 -0.125328 0)
(-0.0264582 -0.18711 0)
(-0.0465488 -0.232517 0)
(-0.0677051 -0.262918 0)
(-0.0881688 -0.280302 0)
(-0.10673 -0.286924 0)
(-0.122698 -0.28504 0)
(-0.135807 -0.276725 0)
(-0.146094 -0.263782 0)
(-0.153784 -0.247705 0)
(-0.159202 -0.229688 0)
(-0.162716 -0.21065 0)
(-0.164695 -0.191275 0)
(-0.165483 -0.172051 0)
(-0.165386 -0.153307 0)
(-0.164671 -0.135246 0)
(-0.16356 -0.117973 0)
(-0.162238 -0.101517 0)
(-0.160856 -0.0858509 0)
(-0.159533 -0.070902 0)
(-0.158367 -0.0565664 0)
(-0.157431 -0.0427155 0)
(-0.156784 -0.0292031 0)
(-0.156468 -0.0158705 0)
(-0.156514 -0.00255003 0)
(-0.156939 0.010931 0)
(-0.157749 0.0247473 0)
(-0.158934 0.0390716 0)
(-0.160469 0.0540708 0)
(-0.162308 0.0699004 0)
(-0.16438 0.0866969 0)
(-0.166581 0.104568 0)
(-0.168769 0.12358 0)
(-0.170754 0.14374 0)
(-0.172289 0.16497 0)
(-0.173066 0.187081 0)
(-0.172708 0.209735 0)
(-0.170772 0.232398 0)
(-0.166765 0.254295 0)
(-0.16017 0.27435 0)
(-0.150496 0.291144 0)
(-0.137366 0.302883 0)
(-0.120625 0.307402 0)
(-0.100493 0.30223 0)
(-0.0777331 0.284746 0)
(-0.0537705 0.252428 0)
(-0.0307222 0.203215 0)
(-0.0118318 0.135906 0)
(-0.00196456 0.0506617 0)
(-0.00147698 -0.0419454 0)
(-0.00919908 -0.112733 0)
(-0.0244282 -0.16943 0)
(-0.0437174 -0.21216 0)
(-0.064758 -0.241886 0)
(-0.0859597 -0.260088 0)
(-0.106127 -0.268517 0)
(-0.124471 -0.268993 0)
(-0.140569 -0.263253 0)
(-0.154275 -0.252855 0)
(-0.165637 -0.239139 0)
(-0.174824 -0.223211 0)
(-0.182078 -0.205953 0)
(-0.187669 -0.188044 0)
(-0.191868 -0.169988 0)
(-0.194934 -0.152145 0)
(-0.1971 -0.134749 0)
(-0.198575 -0.117941 0)
(-0.199533 -0.101782 0)
(-0.200126 -0.0862744 0)
(-0.200476 -0.0713721 0)
(-0.200685 -0.0569936 0)
(-0.200832 -0.0430298 0)
(-0.200979 -0.0293516 0)
(-0.201172 -0.0158154 0)
(-0.20144 -0.00226791 0)
(-0.201798 0.0114493 0)
(-0.202244 0.0254956 0)
(-0.202761 0.0400269 0)
(-0.20331 0.0551897 0)
(-0.203832 0.0711155 0)
(-0.20424 0.0879114 0)
(-0.204416 0.10565 0)
(-0.204205 0.124356 0)
(-0.203412 0.143986 0)
(-0.201795 0.164412 0)
(-0.199064 0.185387 0)
(-0.194886 0.20652 0)
(-0.18889 0.227237 0)
(-0.180689 0.246745 0)
(-0.169916 0.263996 0)
(-0.156273 0.277665 0)
(-0.139607 0.286142 0)
(-0.120006 0.287565 0)
(-0.0979074 0.279896 0)
(-0.0742177 0.261069 0)
(-0.0503627 0.229201 0)
(-0.0282645 0.182851 0)
(-0.0106929 0.121302 0)
(-0.00173088 0.0448735 0)
(-0.00133833 -0.0374149 0)
(-0.00849365 -0.101013 0)
(-0.0228542 -0.152612 0)
(-0.0414509 -0.192265 0)
(-0.062287 -0.220665 0)
(-0.0839325 -0.238928 0)
(-0.105239 -0.24842 0)
(-0.125377 -0.250607 0)
(-0.143822 -0.246931 0)
(-0.160296 -0.238724 0)
(-0.174708 -0.227165 0)
(-0.1871 -0.213254 0)
(-0.197597 -0.197812 0)
(-0.206377 -0.181491 0)
(-0.213637 -0.16479 0)
(-0.219581 -0.148077 0)
(-0.224405 -0.131607 0)
(-0.228288 -0.115542 0)
(-0.231392 -0.0999671 0)
(-0.233856 -0.0849087 0)
(-0.2358 -0.0703436 0)
(-0.237323 -0.0562109 0)
(-0.238505 -0.0424211 0)
(-0.239407 -0.0288628 0)
(-0.240073 -0.0154093 0)
(-0.240531 -0.0019237 0)
(-0.240792 0.0117358 0)
(-0.240847 0.025711 0)
(-0.240672 0.0401384 0)
(-0.240219 0.055143 0)
(-0.239419 0.0708314 0)
(-0.238177 0.0872822 0)
(-0.23637 0.104536 0)
(-0.233841 0.12258 0)
(-0.230401 0.141334 0)
(-0.225828 0.160627 0)
(-0.219866 0.180178 0)
(-0.212237 0.199567 0)
(-0.202652 0.21821 0)
(-0.190834 0.23533 0)
(-0.176557 0.249943 0)
(-0.159691 0.260845 0)
(-0.140265 0.266623 0)
(-0.118546 0.265705 0)
(-0.0951156 0.25643 0)
(-0.070944 0.237184 0)
(-0.047406 0.206563 0)
(-0.0262247 0.163569 0)
(-0.00977857 0.107793 0)
(-0.00154951 0.0396242 0)
(-0.00123507 -0.0332067 0)
(-0.00795603 -0.0899719 0)
(-0.02163 -0.136497 0)
(-0.0396443 -0.172801 0)
(-0.0602476 -0.199395 0)
(-0.0821524 -0.217129 0)
(-0.104271 -0.227076 0)
(-0.125765 -0.230417 0)
(-0.146049 -0.228341 0)
(-0.164752 -0.221975 0)
(-0.181679 -0.212342 0)
(-0.196765 -0.200328 0)
(-0.210037 -0.186681 0)
(-0.221589 -0.172009 0)
(-0.231548 -0.156788 0)
(-0.240063 -0.141379 0)
(-0.247285 -0.126044 0)
(-0.253365 -0.110955 0)
(-0.258439 -0.0962151 0)
(-0.262634 -0.0818667 0)
(-0.266058 -0.0679056 0)
(-0.268804 -0.0542894 0)
(-0.270947 -0.0409467 0)
(-0.272544 -0.0277837 0)
(-0.273637 -0.014691 0)
(-0.274249 -0.00154941 0)
(-0.274386 0.0117652 0)
(-0.274034 0.0253759 0)
(-0.273164 0.0393991 0)
(-0.271721 0.0539381 0)
(-0.269633 0.0690754 0)
(-0.266801 0.0848639 0)
(-0.263102 0.101316 0)
(-0.258389 0.11839 0)
(-0.252489 0.135977 0)
(-0.245207 0.153881 0)
(-0.236331 0.171801 0)
(-0.225646 0.189311 0)
(-0.212945 0.20584 0)
(-0.198058 0.220657 0)
(-0.180883 0.232859 0)
(-0.161433 0.241379 0)
(-0.139879 0.245001 0)
(-0.116617 0.242414 0)
(-0.0923133 0.23228 0)
(-0.0679578 0.213343 0)
(-0.0448472 0.184563 0)
(-0.0245199 0.145252 0)
(-0.00903415 0.0951989 0)
(-0.00140577 0.034809 0)
(-0.00115728 -0.0292443 0)
(-0.00754365 -0.0794611 0)
(-0.0206759 -0.120951 0)
(-0.0382091 -0.153719 0)
(-0.0585837 -0.178148 0)
(-0.0806336 -0.194897 0)
(-0.103335 -0.204809 0)
(-0.125856 -0.208834 0)
(-0.147579 -0.207949 0)
(-0.16807 -0.203099 0)
(-0.187054 -0.195157 0)
(-0.204383 -0.1849 0)
(-0.220002 -0.172991 0)
(-0.233931 -0.159983 0)
(-0.246233 -0.146319 0)
(-0.257003 -0.132343 0)
(-0.266351 -0.118307 0)
(-0.274392 -0.104389 0)
(-0.28124 -0.0906989 0)
(-0.286999 -0.0772907 0)
(-0.291766 -0.0641743 0)
(-0.295623 -0.0513231 0)
(-0.298636 -0.0386816 0)
(-0.300858 -0.026173 0)
(-0.302324 -0.0137049 0)
(-0.303053 -0.00117545 0)
(-0.303046 0.0115212 0)
(-0.302285 0.0244894 0)
(-0.300736 0.0378257 0)
(-0.298342 0.0516129 0)
(-0.295029 0.0659119 0)
(-0.2907 0.080753 0)
(-0.285241 0.0961262 0)
(-0.278518 0.111969 0)
(-0.270379 0.128154 0)
(-0.260665 0.144473 0)
(-0.249212 0.160621 0)
(-0.235867 0.176185 0)
(-0.220504 0.190626 0)
(-0.20305 0.203274 0)
(-0.183511 0.213323 0)
(-0.162013 0.219843 0)
(-0.138839 0.221808 0)
(-0.11447 0.218136 0)
(-0.0896228 0.207757 0)
(-0.0652757 0.189703 0)
(-0.0426398 0.163202 0)
(-0.023089 0.127787 0)
(-0.00842238 0.0833714 0)
(-0.00129021 0.0303481 0)
(-0.00109825 -0.0254704 0)
(-0.0072262 -0.0693638 0)
(-0.0199322 -0.10586 0)
(-0.0370732 -0.134962 0)
(-0.0572394 -0.156963 0)
(-0.0793651 -0.172371 0)
(-0.102485 -0.181855 0)
(-0.125787 -0.186175 0)
(-0.148635 -0.18613 0)
(-0.170552 -0.182504 0)
(-0.191207 -0.176033 0)
(-0.210385 -0.167384 0)
(-0.227966 -0.157136 0)
(-0.243905 -0.145781 0)
(-0.25821 -0.133718 0)
(-0.270927 -0.121263 0)
(-0.282125 -0.108657 0)
(-0.291885 -0.0960685 0)
(-0.300295 -0.0836096 0)
(-0.307439 -0.0713414 0)
(-0.313398 -0.0592832 0)
(-0.31824 -0.0474206 0)
(-0.322023 -0.0357121 0)
(-0.324793 -0.0240961 0)
(-0.326576 -0.0124964 0)
(-0.327388 -0.000828102 0)
(-0.327224 0.0109973 0)
(-0.326064 0.0230659 0)
(-0.32387 0.0354561 0)
(-0.320585 0.0482317 0)
(-0.316136 0.0614348 0)
(-0.310434 0.0750781 0)
(-0.303374 0.0891351 0)
(-0.294839 0.10353 0)
(-0.284707 0.118127 0)
(-0.272852 0.132717 0)
(-0.259161 0.147006 0)
(-0.243541 0.160607 0)
(-0.22594 0.173027 0)
(-0.206368 0.183667 0)
(-0.184924 0.191825 0)
(-0.161822 0.196707 0)
(-0.137428 0.197457 0)
(-0.112281 0.193195 0)
(-0.0871222 0.183073 0)
(-0.0629014 0.166347 0)
(-0.0407456 0.14245 0)
(-0.0218879 0.111067 0)
(-0.00791748 0.0721887 0)
(-0.00119652 0.0261784 0)
(-0.00105331 -0.0218416 0)
(-0.00698177 -0.0595885 0)
(-0.0193539 -0.0911336 0)
(-0.0361794 -0.116479 0)
(-0.0561642 -0.13585 0)
(-0.0783246 -0.149644 0)
(-0.101747 -0.158387 0)
(-0.125642 -0.162686 0)
(-0.149365 -0.163186 0)
(-0.172414 -0.160529 0)
(-0.194414 -0.155328 0)
(-0.215099 -0.148144 0)
(-0.234298 -0.139474 0)
(-0.251913 -0.129741 0)
(-0.267903 -0.119299 0)
(-0.28227 -0.10843 0)
(-0.295047 -0.0973515 0)
(-0.306284 -0.0862211 0)
(-0.316043 -0.0751461 0)
(-0.324387 -0.064189 0)
(-0.331379 -0.0533748 0)
(-0.337076 -0.0426983 0)
(-0.341525 -0.0321296 0)
(-0.344763 -0.0216205 0)
(-0.34681 -0.0111097 0)
(-0.347675 -0.000527781 0)
(-0.34735 0.0101971 0)
(-0.345812 0.0211346 0)
(-0.343021 0.0323462 0)
(-0.338923 0.0438796 0)
(-0.333448 0.0557618 0)
(-0.326515 0.0679919 0)
(-0.318033 0.0805333 0)
(-0.307905 0.0933044 0)
(-0.296035 0.10617 0)
(-0.282335 0.118929 0)
(-0.266737 0.131312 0)
(-0.249205 0.142967 0)
(-0.229751 0.153456 0)
(-0.208458 0.162259 0)
(-0.185497 0.168777 0)
(-0.161155 0.172347 0)
(-0.135856 0.172265 0)
(-0.110176 0.167826 0)
(-0.0848627 0.158365 0)
(-0.0608327 0.143314 0)
(-0.0391351 0.12226 0)
(-0.0208844 0.0949925 0)
(-0.0075014 0.061547 0)
(-0.00112044 0.0222488 0)
(-0.00101918 -0.0183241 0)
(-0.00679444 -0.0500632 0)
(-0.0189072 -0.0766936 0)
(-0.0354824 -0.0982183 0)
(-0.0553151 -0.114812 0)
(-0.0774868 -0.126781 0)
(-0.101129 -0.134538 0)
(-0.125471 -0.138559 0)
(-0.149871 -0.13936 0)
(-0.173808 -0.137457 0)
(-0.196877 -0.13335 0)
(-0.218774 -0.127502 0)
(-0.239286 -0.120325 0)
(-0.258273 -0.112178 0)
(-0.275653 -0.103362 0)
(-0.291392 -0.0941206 0)
(-0.305489 -0.0846444 0)
(-0.317966 -0.0750746 0)
(-0.328861 -0.0655087 0)
(-0.338219 -0.0560063 0)
(-0.346086 -0.0465948 0)
(-0.352507 -0.037275 0)
(-0.357517 -0.0280265 0)
(-0.361144 -0.0188124 0)
(-0.363403 -0.00958451 0)
(-0.364298 -0.000287973 0)
(-0.363817 0.00913439 0)
(-0.361933 0.0187371 0)
(-0.358609 0.0285673 0)
(-0.35379 0.038659 0)
(-0.347414 0.0490277 0)
(-0.339408 0.0596638 0)
(-0.329696 0.0705259 0)
(-0.3182 0.0815334 0)
(-0.304851 0.0925588 0)
(-0.289597 0.103421 0)
(-0.272409 0.113878 0)
(-0.253303 0.123623 0)
(-0.232344 0.132282 0)
(-0.209676 0.139414 0)
(-0.185528 0.144522 0)
(-0.16024 0.147064 0)
(-0.134279 0.146475 0)
(-0.108244 0.142197 0)
(-0.0828792 0.133718 0)
(-0.0590661 0.120609 0)
(-0.0377859 0.10257 0)
(-0.0200553 0.0794674 0)
(-0.0071614 0.0513556 0)
(-0.00105903 0.0185161 0)
(-0.000993513 -0.0148915 0)
(-0.00665254 -0.04073 0)
(-0.0185667 -0.0624768 0)
(-0.0349472 -0.080136 0)
(-0.0546568 -0.0938406 0)
(-0.0768277 -0.103825 0)
(-0.100627 -0.110403 0)
(-0.125305 -0.113945 0)
(-0.15022 -0.11485 0)
(-0.174843 -0.113525 0)
(-0.198746 -0.110364 0)
(-0.221597 -0.105737 0)
(-0.243152 -0.0999769 0)
(-0.263235 -0.0933763 0)
(-0.281734 -0.0861818 0)
(-0.298582 -0.078596 0)
(-0.313752 -0.0707787 0)
(-0.327242 -0.0628499 0)
(-0.339068 -0.0548941 0)
(-0.349258 -0.0469646 0)
(-0.357845 -0.0390881 0)
(-0.364858 -0.0312688 0)
(-0.370326 -0.0234933 0)
(-0.374268 -0.0157345 0)
(-0.376694 -0.00795579 0)
(-0.377601 -0.000114876 0)
(-0.376975 0.00783209 0)
(-0.374788 0.0159265 0)
(-0.371003 0.0242032 0)
(-0.365568 0.0326854 0)
(-0.358428 0.0413806 0)
(-0.349517 0.0502745 0)
(-0.338775 0.0593262 0)
(-0.326142 0.0684616 0)
(-0.311573 0.0775681 0)
(-0.295046 0.0864892 0)
(-0.276569 0.0950197 0)
(-0.256198 0.102903 0)
(-0.234047 0.10983 0)
(-0.210304 0.115442 0)
(-0.185245 0.119341 0)
(-0.15925 0.121096 0)
(-0.132815 0.120266 0)
(-0.106551 0.116422 0)
(-0.0811963 0.109176 0)
(-0.0575982 0.0982114 0)
(-0.0366812 0.0833147 0)
(-0.0193839 0.0644015 0)
(-0.00688848 0.0415333 0)
(-0.0010102 0.0149428 0)
(-0.000974638 -0.0115224 0)
(-0.00654763 -0.0315417 0)
(-0.0183138 -0.0484302 0)
(-0.0345475 -0.0621925 0)
(-0.0541613 -0.0729267 0)
(-0.076326 -0.0808053 0)
(-0.100237 -0.0860607 0)
(-0.12516 -0.0889669 0)
(-0.150459 -0.0898224 0)
(-0.175596 -0.0889328 0)
(-0.20013 -0.0865972 0)
(-0.223709 -0.0830971 0)
(-0.246063 -0.0786887 0)
(-0.266993 -0.0735975 0)
(-0.286359 -0.068016 0)
(-0.304073 -0.0621032 0)
(-0.320082 -0.0559857 0)
(-0.334367 -0.0497596 0)
(-0.346926 -0.0434933 0)
(-0.357772 -0.037231 0)
(-0.366924 -0.030996 0)
(-0.374405 -0.0247941 0)
(-0.380233 -0.0186169 0)
(-0.384419 -0.0124452 0)
(-0.38697 -0.0062525 0)
(-0.387878 -7.60495e-06 0)
(-0.387126 0.00632163 0)
(-0.384687 0.0127652 0)
(-0.380523 0.0193477 0)
(-0.374586 0.0260844 0)
(-0.366826 0.0329774 0)
(-0.357187 0.0400118 0)
(-0.345618 0.0471511 0)
(-0.332078 0.0543328 0)
(-0.316543 0.0614642 0)
(-0.299014 0.0684185 0)
(-0.279532 0.075032 0)
(-0.258183 0.0811019 0)
(-0.235119 0.086387 0)
(-0.210562 0.0906108 0)
(-0.184825 0.0934671 0)
(-0.158317 0.0946311 0)
(-0.13155 0.0937726 0)
(-0.105147 0.0905746 0)
(-0.0798316 0.0847542 0)
(-0.0564263 0.0760851 0)
(-0.0358093 0.06442 0)
(-0.0188584 0.0497079 0)
(-0.00667631 0.0320055 0)
(-0.000972539 0.0114958 0)
(-0.000961382 -0.0081994 0)
(-0.00647366 -0.0224588 0)
(-0.0181349 -0.0345084 0)
(-0.0342634 -0.0443523 0)
(-0.0538072 -0.0520579 0)
(-0.0759646 -0.0577438 0)
(-0.0999515 -0.0615696 0)
(-0.125046 -0.0637245 0)
(-0.150616 -0.0644152 0)
(-0.17612 -0.0638544 0)
(-0.201107 -0.0622515 0)
(-0.225212 -0.0598045 0)
(-0.248146 -0.0566943 0)
(-0.269692 -0.0530814 0)
(-0.289693 -0.0491032 0)
(-0.308041 -0.0448741 0)
(-0.324669 -0.0404855 0)
(-0.33954 -0.0360074 0)
(-0.35264 -0.0314902 0)
(-0.363972 -0.0269669 0)
(-0.373544 -0.0224555 0)
(-0.38137 -0.0179614 0)
(-0.387462 -0.0134797 0)
(-0.391827 -0.00899794 0)
(-0.394466 -0.00449802 0)
(-0.395369 4.11779e-05 0)
(-0.394518 0.00464156 0)
(-0.391884 0.00932337 0)
(-0.38743 0.0141027 0)
(-0.381111 0.0189888 0)
(-0.372882 0.0239814 0)
(-0.362693 0.0290676 0)
(-0.350505 0.0342188 0)
(-0.336288 0.0393877 0)
(-0.320034 0.0445055 0)
(-0.301765 0.0494791 0)
(-0.281544 0.0541894 0)
(-0.259482 0.05849 0)
(-0.235756 0.0622084 0)
(-0.210618 0.0651483 0)
(-0.184402 0.0670939 0)
(-0.157537 0.0678183 0)
(-0.13055 0.0670925 0)
(-0.104065 0.064699 0)
(-0.0787978 0.0604456 0)
(-0.0555486 0.054181 0)
(-0.0351616 0.0458093 0)
(-0.0184705 0.0353016 0)
(-0.00652049 0.0227029 0)
(-0.000945037 0.00814437 0)
(-0.000952952 -0.0049076 0)
(-0.00642648 -0.0134475 0)
(-0.0180205 -0.0206719 0)
(-0.0340813 -0.0265835 0)
(-0.0535794 -0.0312217 0)
(-0.0757307 -0.0346559 0)
(-0.0997648 -0.0369795 0)
(-0.124968 -0.0383034 0)
(-0.150711 -0.0387492 0)
(-0.176451 -0.0384423 0)
(-0.201731 -0.0375066 0)
(-0.226176 -0.0360596 0)
(-0.249487 -0.0342091 0)
(-0.271436 -0.032051 0)
(-0.291853 -0.0296679 0)
(-0.310617 -0.0271284 0)
(-0.327651 -0.024488 0)
(-0.342908 -0.0217891 0)
(-0.356366 -0.0190625 0)
(-0.368017 -0.0163286 0)
(-0.377866 -0.0135987 0)
(-0.385919 -0.0108766 0)
(-0.392186 -0.0081599 0)
(-0.396668 -0.00544144 0)
(-0.399363 -0.00271085 0)
(-0.40026 4.41271e-05 0)
(-0.39934 0.00283617 0)
(-0.396573 0.00567693 0)
(-0.391922 0.00857548 0)
(-0.385347 0.0115367 0)
(-0.376803 0.0145597 0)
(-0.366247 0.0176357 0)
(-0.353645 0.0207467 0)
(-0.338978 0.0238632 0)
(-0.322249 0.0269429 0)
(-0.303493 0.029929 0)
(-0.282786 0.032749 0)
(-0.260258 0.0353147 0)
(-0.236104 0.0375227 0)
(-0.21059 0.0392554 0)
(-0.184069 0.0403849 0)
(-0.156981 0.0407769 0)
(-0.12986 0.0402969 0)
(-0.103331 0.0388178 0)
(-0.0781038 0.0362282 0)
(-0.0549639 0.0324413 0)
(-0.0347326 0.0274033 0)
(-0.0182147 0.0210996 0)
(-0.00641809 0.0135588 0)
(-0.000927037 0.0048601 0)
(-0.000948855 -0.00163387 0)
(-0.00640352 -0.0044779 0)
(-0.0179647 -0.0068851 0)
(-0.0339924 -0.00885643 0)
(-0.0534679 -0.0104049 0)
(-0.0756158 -0.0115534 0)
(-0.0996726 -0.0123325 0)
(-0.124929 -0.0127789 0)
(-0.150756 -0.0129327 0)
(-0.176612 -0.0128353 0)
(-0.202035 -0.0125277 0)
(-0.226647 -0.012049 0)
(-0.250145 -0.0114348 0)
(-0.272292 -0.0107171 0)
(-0.292914 -0.00992338 0)
(-0.311884 -0.00907661 0)