/*--------------------------------*- C++ -*----------------------------------*\
  =========                 |
  \\      /  F ield         | OpenFOAM: The Open Source CFD Toolbox
   \\    /   O peration     | Website:  https://openfoam.org
    \\  /    A nd           | Version:  7
     \\/     M anipulation  |
\*---------------------------------------------------------------------------*/
FoamFile
{
    version     2.0;
    format      ascii;
    class       volScalarField;
    location    "0.0512";
    object      p;
}
// * * * * * * * * * * * * * * * * * * * * * * * * * * * * * * * * * * * * * //

dimensions      [0 2 -2 0 0 0 0];

internalField   nonuniform List<scalar> 
2500
(
-1.04814e-05
-0.000525379
-0.00211537
-0.00445694
-0.00719966
-0.0100386
-0.0127459
-0.0151429
-0.0170948
-0.0185035
-0.0193009
-0.0194433
-0.0189077
-0.0176877
-0.0157916
-0.01324
-0.0100638
-0.00630325
-0.00200613
0.00277283
0.0079731
0.0135291
0.0193707
0.0254245
0.0316137
0.0378595
0.0440814
0.0501981
0.0561287
0.0617931
0.0671135
0.0720156
0.0764296
0.0802921
0.083547
0.0861477
0.0880587
0.0892576
0.0897369
0.0895066
0.0885965
0.0870595
0.0849747
0.0824523
0.0796389
0.0767232
0.073942
0.0715918
0.0700423
0.0695767
0.000495845
-1.28332e-05
-0.00130205
-0.00316248
-0.00531793
-0.00755725
-0.00970029
-0.0115981
-0.0131327
-0.0142146
-0.0147785
-0.0147804
-0.0141942
-0.0130099
-0.0112304
-0.00887074
-0.00595573
-0.00251912
0.00139778
0.00574701
0.0104749
0.0155227
0.0208276
0.0263232
0.0319401
0.0376069
0.043251
0.0487989
0.0541778
0.0593157
0.0641433
0.0685946
0.0726082
0.0761287
0.0791083
0.0815078
0.0832986
0.0844645
0.085003
0.0849277
0.08427
0.0830815
0.0814365
0.0794342
0.0772021
0.0748974
0.0727071
0.0708438
0.0695723
0.0691112
0.00208047
0.0012773
-2.31571e-05
-0.00170295
-0.00359109
-0.00552258
-0.00735254
-0.00895844
-0.0102399
-0.0111182
-0.0115341
-0.0114465
-0.0108303
-0.00967399
-0.00797858
-0.00575581
-0.00302694
0.000178481
0.00382363
0.00786529
0.0122547
0.0169383
0.0218583
0.0269538
0.032161
0.0374139
0.0426456
0.0477885
0.0527753
0.0575403
0.0620197
0.0661535
0.0698859
0.0731671
0.0759542
0.0782128
0.0799184
0.0810579
0.081631
0.0816519
0.0811508
0.0801757
0.0787934
0.0770917
0.0751793
0.0731863
0.0712631
0.0695763
0.0682978
0.0675663
0.00445115
0.00314834
0.00163387
-7.34516e-05
-0.00189636
-0.00370459
-0.00538139
-0.00682831
-0.00796254
-0.00871731
-0.00904173
-0.00889977
-0.00826886
-0.00713865
-0.00550975
-0.00339254
-0.00080613
0.00222264
0.00566012
0.00946659
0.0135971
0.0180019
0.0226277
0.0274175
0.0323119
0.0372496
0.0421678
0.0470037
0.0516943
0.0561784
0.0603966
0.064293
0.0678158
0.0709189
0.0735628
0.0757159
0.0773558
0.0784707
0.0790605
0.0791383
0.0787312
0.0778816
0.0766483
0.0751063
0.0733469
0.0714765
0.0696176
0.0679038
0.0664203
0.0652004
0.00727931
0.00535725
0.00352017
0.00167189
-0.000198089
-0.00198739
-0.00360318
-0.00496909
-0.0060193
-0.00669946
-0.00696761
-0.00679385
-0.00615953
-0.00505644
-0.00348593
-0.00145802
0.00100936
0.00389124
0.00715634
0.0107678
0.0146836
0.0188575
0.0232396
0.0277767
0.032413
0.037091
0.0417517
0.046336
0.0507847
0.0550401
0.0590464
0.0627508
0.0661047
0.0690645
0.0715929
0.0736601
0.0752446
0.0763348
0.0769296
0.0770397
0.0766882
0.0759115
0.0747592
0.0732942
0.0715913
0.0697354
0.0678263
0.065971
0.0641714
0.0623473
0.0103056
0.0077172
0.00548969
0.00342011
0.00141834
-0.000434378
-0.0020645
-0.00341505
-0.00443573
-0.00508409
-0.00532723
-0.00514184
-0.00451388
-0.00343808
-0.00191734
3.77763e-05
0.00240976
0.00517473
0.00830305
0.0117599
0.0155058
0.0194972
0.0236869
0.0280247
0.0324581
0.0369325
0.0413921
0.0457807
0.0500422
0.0541215
0.0579654
0.0615236
0.0647493
0.0676008
0.0700419
0.0720434
0.0735838
0.0746507
0.0752411
0.0753626
0.0750336
0.074284
0.0731546
0.071697
0.0699712
0.0680437
0.0659963
0.0639164
0.0617296
0.0592517
0.0133374
0.0100712
0.00741401
0.00506726
0.00287081
0.000890972
-0.000813639
-0.00220245
-0.00323884
-0.00389133
-0.00413566
-0.00395524
-0.00334096
-0.00229099
-0.000810432
0.00108901
0.00338952
0.00606763
0.0090947
0.0124373
0.0160578
0.0199147
0.023963
0.0281549
0.0324402
0.0367668
0.0410814
0.0453299
0.0494585
0.0534139
0.0571449
0.0606024
0.0637409
0.0665194
0.068902
0.0708592
0.0723687
0.0734162
0.0739962
0.0741127
0.0737791
0.0730187
0.0718643
0.070357
0.0685444
0.0664778
0.0642255
0.0618619
0.0592454
0.0560997
0.016226
0.0122881
0.00918128
0.00652127
0.00408663
0.00193369
0.000109875
-0.00135784
-0.00244465
-0.00312884
-0.00339424
-0.00323073
-0.00263422
-0.0016066
-0.000155579
0.00170551
0.00395803
0.00657839
0.00953834
0.0128053
0.0163429
0.0201111
0.0240665
0.0281631
0.0323525
0.0365845
0.0408074
0.0449688
0.0490163
0.052898
0.0565634
0.0599642
0.0630554
0.0657957
0.0681487
0.0700839
0.0715773
0.0726123
0.0731802
0.073281
0.0729231
0.0721234
0.0709072
0.0693069
0.0673593
0.0651038
0.0625991
0.0599118
0.0568421
0.0530312
0.0188558
0.014259
0.0106936
0.00769768
0.00499537
0.0026369
0.000661539
-0.000914873
-0.00207758
-0.00281348
-0.00311375
-0.00297441
-0.00239629
-0.00138512
4.85564e-05
0.00188943
0.00411764
0.006709
0.00963519
0.0128641
0.0163598
0.0200834
0.0239927
0.0280429
0.0321867
0.0363753
0.040558
0.0446835
0.0487001
0.0525566
0.0562028
0.0595904
0.0626737
0.0654108
0.0677642
0.0697013
0.071196
0.0722288
0.0727875
0.0728677
0.0724727
0.0716136
0.070309
0.0685835
0.0664653
0.0639845
0.0611938
0.0581557
0.0546197
0.050152
0.0211351
0.0158925
0.011865
0.00851881
0.00552898
0.00294247
0.000792798
-0.000913315
-0.00216963
-0.00297057
-0.00331398
-0.00320156
-0.0026389
-0.00163557
-0.000205101
0.00163499
0.0038633
0.00645469
0.00938038
0.0126082
0.0161025
0.0198249
0.0237338
0.0277852
0.0319326
0.0361277
0.0403207
0.0444606
0.048496
0.0523755
0.0560486
0.0594663
0.062582
0.0653522
0.0677374
0.0697028
0.0712193
0.0722641
0.072821
0.0728811
0.0724429
0.0715119
0.0701004
0.0682269
0.0659123
0.0631799
0.0600787
0.0566708
0.0526597
0.0475429
0.0229884
0.0171097
0.0126184
0.00891264
0.00562202
0.00279227
0.000452962
-0.00139669
-0.00275772
-0.00363116
-0.00402084
-0.00393378
-0.00338012
-0.0023732
-0.000929616
0.000930726
0.00318465
0.00580576
0.00876449
0.0120282
0.0155613
0.0193254
0.0232791
0.0273787
0.0315782
0.0358294
0.0400826
0.0442868
0.0483902
0.052341
0.0560876
0.0595799
0.0627694
0.0656106
0.0680615
0.0700843
0.0716466
0.0727216
0.073289
0.0733353
0.072854
0.0718452
0.070316
0.0682791
0.0657502
0.0627469
0.0593172
0.0555249
0.0510311
0.045268
0.0243501
0.01784
0.0128829
0.00881116
0.00521084
0.00212794
-0.000410534
-0.00241173
-0.00388298
-0.00483118
-0.00526564
-0.00519831
-0.0046437
-0.00361886
-0.00214351
-0.00024005
0.00206636
0.00474785
0.00777381
0.0111109
0.014723
0.0185715
0.0226151
0.0268098
0.0311096
0.0354662
0.0398296
0.0441482
0.0483695
0.0524405
0.0563083
0.0599208
0.0632274
0.0661799
0.0687332
0.0708459
0.0724818
0.0736098
0.0742051
0.0742492
0.0737306
0.0726446
0.070993
0.0687841
0.0660288
0.0627408
0.0589685
0.0547793
0.0497939
0.0433807
0.02516
0.0180178
0.0125916
0.00814854
0.0042324
0.000890316
-0.00185239
-0.00400838
-0.00559058
-0.00661122
-0.00708467
-0.00702759
-0.00645868
-0.00539867
-0.00387043
-0.00189898
0.000488418
0.00326221
0.00639048
0.00983895
0.0135708
0.017547
0.0217255
0.0260624
0.030511
0.0350226
0.0395465
0.0440302
0.04842
0.0526614
0.0566996
0.06048
0.0639495
0.0670564
0.069752
0.0719911
0.0737327
0.0749412
0.0755868
0.0756459
0.0751018
0.0739448
0.0721722
0.0697879
0.0667991
0.0632165
0.05909
0.054492
0.0490035
0.0419292
0.02536
0.0175795
0.0116787
0.00685948
0.00262315
-0.000981354
-0.0039298
-0.00623985
-0.00792959
-0.00901622
-0.00951896
-0.00945895
-0.00885905
-0.00774367
-0.00613884
-0.00407232
-0.00157362
0.00132586
0.00459276
0.0081916
0.0120847
0.0162322
0.0205915
0.025118
0.0297644
0.0344812
0.0392168
0.0439173
0.0485276
0.0529912
0.0572509
0.0612495
0.0649304
0.0682383
0.0711201
0.0735261
0.0754105
0.0767321
0.0774558
0.0775527
0.0770006
0.0757847
0.0738977
0.0713395
0.0681142
0.0642299
0.0597392
0.0547201
0.0487137
0.0409596
0.0248915
0.0164612
0.0100783
0.00487771
0.000317902
-0.00355012
-0.00670291
-0.00916286
-0.010953
-0.0120954
-0.012614
-0.0125343
-0.0118834
-0.0106894
-0.00898162
-0.0067906
-0.00414827
-0.00108799
0.00235524
0.00614463
0.0102414
0.0146048
0.0191914
0.0239558
0.0288498
0.033823
0.0388224
0.0437929
0.0486773
0.053417
0.0579519
0.0622217
0.066166
0.0697251
0.0728415
0.0754599
0.077529
0.079002
0.0798376
0.0800008
0.079464
0.0782069
0.0762173
0.0734915
0.0700302
0.0658398
0.0609756
0.0555223
0.0489797
0.0405195
0.0236934
0.0145971
0.00772216
0.00213459
-0.00275124
-0.00688215
-0.0102354
-0.012838
-0.014718
-0.0159023
-0.0164195
-0.0162999
-0.0155746
-0.0142756
-0.0124357
-0.0100882
-0.00726773
-0.00400966
-0.000350776
0.00367069
0.0080148
0.0126396
0.017501
0.0225525
0.027745
0.0330268
0.0383438
0.0436389
0.0488531
0.053925
0.0587916
0.063389
0.0676524
0.0715176
0.0749215
0.0778031
0.0801048
0.0817733
0.0827607
0.0830254
0.0825333
0.0812584
0.0791836
0.0763008
0.0726077
0.0681087
0.0628625
0.0569608
0.0498599
0.0406604
0.0217005
0.0119176
0.00453852
-0.00144214
-0.00665596
-0.0110476
-0.0145949
-0.0173299
-0.0192858
-0.0204946
-0.0209897
-0.0208062
-0.0199796
-0.018546
-0.0165416
-0.0140031
-0.0109675
-0.00747256
-0.0035569
0.00073973
0.00537611
0.0103092
0.015494
0.0208828
0.0264258
0.0320699
0.0377595
0.0434359
0.0490376
0.0545006
0.0597586
0.0647435
0.0693861
0.0736169
0.0773667
0.0805681
0.0831566
0.0850714
0.0862573
0.0866652
0.0862541
0.0849913
0.0828541
0.0798298
0.0759127
0.071105
0.0654688
0.0591033
0.0514187
0.0414399
0.0188421
0.00834796
0.00045075
-0.00592963
-0.0114728
-0.0161213
-0.0198539
-0.0227082
-0.0247226
-0.0259344
-0.0263827
-0.0261075
-0.025149
-0.0235476
-0.0213433
-0.0185761
-0.0152858
-0.0115127
-0.00729715
-0.00268057
0.00229453
0.00758405
0.0131419
0.0189197
0.0248663
0.0309277
0.0370467
0.0431628
0.0492122
0.0551279
0.0608403
0.0662768
0.0713633
0.0760243
0.0801843
0.0837686
0.0867048
0.0889241
0.0903627
0.0909633
0.0906767
0.0894627
0.0872922
0.0841472
0.0800179
0.0749038
0.0688707
0.0620253
0.0537282
0.0429234
0.0150409
0.00380719
-0.00462398
-0.011411
-0.0172841
-0.0221839
-0.0260906
-0.0290474
-0.031099
-0.0322887
-0.0326612
-0.0322621
-0.0311369
-0.0293305
-0.0268872
-0.0238505
-0.0202632
-0.0161679
-0.0116072
-0.0066241
-0.00126226
0.00443315
0.0104152
0.0166345
0.0230393
0.0295744
0.0361812
0.0427974
0.049357
0.0557902
0.0620233
0.0679796
0.0735795
0.0787411
0.0833819
0.0874192
0.0907718
0.0933618
0.0951157
0.0959668
0.0958564
0.0947358
0.0925681
0.0893292
0.0850042
0.0795893
0.0731535
0.0658115
0.0568702
0.0451866
0.0102118
-0.00179331
-0.0107759
-0.0179766
-0.0241791
-0.0293225
-0.0333889
-0.0364279
-0.0384912
-0.0396286
-0.0398915
-0.0393317
-0.0380004
-0.0359476
-0.0332221
-0.0298713
-0.0259413
-0.0214773
-0.0165239
-0.0111255
-0.00532725
0.000824919
0.00728335
0.0139982
0.0209168
0.0279832
0.0351377
0.0423164
0.0494512
0.0564692
0.0632933
0.0698419
0.0760298
0.0817685
0.0869675
0.0915354
0.0953815
0.0984172
0.100558
0.101727
0.101854
0.10088
0.0987598
0.0954608
0.0909621
0.0852558
0.0784136
0.070558
0.0609381
0.0483171
0.00426095
-0.00855092
-0.0181038
-0.0257252
-0.0322552
-0.037632
-0.0418399
-0.0449363
-0.0469807
-0.0480304
-0.0481444
-0.0473814
-0.0457991
-0.0434534
-0.040398
-0.0366845
-0.0323625
-0.0274799
-0.0220835
-0.0162192
-0.0099331
-0.00327187
0.00371641
0.0109816
0.0184706
0.0261271
0.0338906
0.0416959
0.0494729
0.0571462
0.0646348
0.0718527
0.0787085
0.0851069
0.0909489
0.0961334
0.100559
0.104125
0.106736
0.108301
0.108737
0.107973
0.105954
0.102637
0.0979931
0.0920096
0.0847599
0.0763745
0.0660393
0.0524162
-0.00291539
-0.016573
-0.0267166
-0.0347652
-0.041619
-0.0472155
-0.0515425
-0.0546661
-0.0566547
-0.0575748
-0.0574938
-0.0564786
-0.0545943
-0.0519033
-0.0484649
-0.0443353
-0.039568
-0.0342137
-0.0283212
-0.0219379
-0.0151108
-0.00788684
-0.000314258
0.00755692
0.0156739
0.0239801
0.0324148
0.0409121
0.0494003
0.0578016
0.0660318
0.0740001
0.0816093
0.0887565
0.0953338
0.10123
0.106331
0.110524
0.113698
0.115748
0.116577
0.1161
0.114246
0.110963
0.106212
0.0999712
0.0923167
0.0833862
0.072297
0.0576013
-0.011432
-0.0259787
-0.0367348
-0.0452164
-0.0523877
-0.0581862
-0.0626042
-0.0657179
-0.0676067
-0.0683473
-0.0680173
-0.0666932
-0.0644483
-0.0613527
-0.0574719
-0.0528675
-0.0475967
-0.0417135
-0.0352687
-0.0283111
-0.0208879
-0.0130464
-0.00483423
0.00369922
0.0125018
0.0215178
0.0306866
0.0399422
0.049212
0.0584164
0.0674681
0.0762721
0.0847252
0.0927169
0.10013
0.106841
0.112725
0.117652
0.121497
0.124136
0.125456
0.125355
0.123745
0.120559
0.115747
0.109277
0.101226
0.0917368
0.079853
0.0640082
-0.0214163
-0.0369002
-0.0482924
-0.0572117
-0.0646909
-0.0706684
-0.0751421
-0.0782006
-0.0799361
-0.0804378
-0.0797952
-0.0780957
-0.0754229
-0.0718552
-0.0674654
-0.0623208
-0.0564832
-0.0500097
-0.042953
-0.0353629
-0.0272871
-0.018772
-0.00986432
-0.000612198
0.00893381
0.0187193
0.028685
0.0387655
0.048888
0.058972
0.0689278
0.0786563
0.0880488
0.0969872
0.105344
0.112985
0.119769
0.125552
0.130188
0.133537
0.135462
0.135842
0.134569
0.131559
0.126745
0.120084
0.111649
0.101591
0.088871
0.0717941
-0.0330099
-0.0494854
-0.0615392
-0.0708995
-0.0786726
-0.0847989
-0.0892842
-0.0922318
-0.0937491
-0.0939404
-0.0929095
-0.090757
-0.087578
-0.0834609
-0.0784869
-0.0727296
-0.0662556
-0.0591252
-0.0513933
-0.0431101
-0.0343231
-0.0250775
-0.0154184
-0.00539156
0.00495486
0.0155689
0.0263935
0.0373648
0.0484113
0.059452
0.070396
0.0811409
0.0915729
0.101566
0.110984
0.119679
0.127494
0.134267
0.139833
0.144027
0.146691
0.147676
0.146852
0.144113
0.139372
0.132568
0.123772
0.113139
0.0995396
0.0811406
-0.0463713
-0.0639006
-0.0766438
-0.0864462
-0.0944935
-0.10073
-0.105171
-0.107938
-0.109158
-0.108953
-0.107443
-0.104746
-0.10097
-0.0962143
-0.0905706
-0.0841194
-0.0769324
-0.0690734
-0.0605986
-0.051559
-0.0420007
-0.0319673
-0.021501
-0.0106444
0.000557996
0.0120578
0.0238015
0.0357282
0.0477685
0.0598429
0.0718599
0.0837151
0.0952903
0.106453
0.117056
0.126939
0.135929
0.143844
0.150495
0.155691
0.159246
0.160984
0.160744
0.158392
0.153815
0.146933
0.137808
0.126598
0.112077
0.0922577
-0.0616786
-0.0803343
-0.0937978
-0.10404
-0.112334
-0.11863
-0.122956
-0.125457
-0.126282
-0.125575
-0.123478
-0.120127
-0.115647
-0.110151
-0.103741
-0.0965043
-0.0885199
-0.0798541
-0.0705649
-0.0607025
-0.0503117
-0.0394329
-0.0281046
-0.0163649
-0.00425339
0.0081867
0.0209067
0.0338504
0.0469523
0.0601355
0.0733098
0.08637
0.0991949
0.111646
0.123566
0.134782
0.145104
0.154328
0.162239
0.168617
0.173243
0.175906
0.176409
0.174585
0.170288
0.163411
0.154003
0.142224
0.126736
0.105389
-0.0791338
-0.0990016
-0.11322
-0.123897
-0.1324
-0.138689
-0.14281
-0.144936
-0.145245
-0.143908
-0.141094
-0.13696
-0.131651
-0.125295
-0.118007
-0.109883
-0.101008
-0.0914507
-0.0812706
-0.0705169
-0.0592312
-0.04745
-0.0352067
-0.0225333
-0.00946294
0.00396787
0.0177172
0.0317353
0.0459625
0.0603264
0.0747401
0.0890996
0.103282
0.117144
0.13052
0.143225
0.155049
0.165767
0.175135
0.1829
0.188804
0.192595
0.194034
0.19291
0.189036
0.18227
0.172642
0.160309
0.143811
0.120816
-0.0989684
-0.120152
-0.135164
-0.146263
-0.154923
-0.161119
-0.16492
-0.166535
-0.166177
-0.164054
-0.160364
-0.155293
-0.149007
-0.141654
-0.13336
-0.124235
-0.114365
-0.103825
-0.0926739
-0.0809576
-0.0687144
-0.0559753
-0.0427665
-0.0291128
-0.0150388
-0.000572336
0.0142535
0.0293975
0.0448079
0.0604194
0.0761506
0.0919008
0.107548
0.122946
0.137923
0.15228
0.165792
0.178208
0.189254
0.198639
0.206062
0.211221
0.213825
0.213609
0.210337
0.203818
0.194056
0.181198
0.163646
0.13887
-0.121451
-0.144075
-0.159926
-0.171426
-0.180174
-0.186161
-0.189494
-0.190425
-0.189214
-0.186111
-0.181354
-0.17516
-0.167723
-0.159213
-0.14977
-0.139513
-0.128536
-0.116915
-0.104707
-0.091956
-0.0786933
-0.0649428
-0.0507225
-0.036047
-0.0209308
-0.00539091
0.0105508
0.0268642
0.043508
0.0604267
0.0775471
0.094775
0.111992
0.129051
0.145777
0.16196
0.177358
0.191695
0.204665
0.215936
0.225155
0.231964
0.236009
0.236959
0.234511
0.228413
0.218631
0.205294
0.186646
0.159937
-0.146896
-0.171118
-0.187858
-0.199726
-0.208463
-0.214092
-0.216763
-0.216789
-0.21449
-0.210169
-0.204112
-0.196575
-0.187784
-0.177931
-0.167174
-0.155642
-0.143435
-0.130627
-0.117274
-0.103415
-0.0890725
-0.0742616
-0.058989
-0.0432575
-0.0270689
-0.0104268
0.00666053
0.0241767
0.0420941
0.0603697
0.0789423
0.0977273
0.116613
0.135457
0.154082
0.172271
0.189766
0.206268
0.221436
0.234893
0.246231
0.255023
0.26084
0.263269
0.261922
0.256469
0.24682
0.233072
0.213288
0.184471
-0.175681
-0.201697
-0.219382
-0.231564
-0.240156
-0.245224
-0.246982
-0.245823
-0.242141
-0.236309
-0.228668
-0.219525
-0.209141
-0.197732
-0.185476
-0.17251
-0.158937
-0.144832
-0.130245
-0.115205
-0.0997271
-0.0838123
-0.0674545
-0.050642
-0.0333611
-0.0155993
0.00265138
0.0213914
0.0406096
0.0602797
0.0803555
0.100767
0.121413
0.14216
0.162832
0.183211
0.203026
0.221955
0.239625
0.25561
0.269438
0.280606
0.288594
0.292887
0.292992
0.288472
0.27916
0.265102
0.244146
0.213014
-0.208264
-0.23632
-0.255013
-0.267427
-0.275685
-0.27992
-0.280436
-0.277729
-0.272294
-0.264587
-0.255022
-0.24396
-0.231703
-0.218497
-0.204534
-0.18996
-0.174879
-0.159363
-0.143451
-0.127163
-0.1105
-0.0934461
-0.0759804
-0.0580732
-0.0396928
-0.0208077
-0.00139051
0.0185791
0.0391103
0.0601967
0.081812
0.103904
0.12639
0.149149
0.172014
0.194767
0.217134
0.238773
0.259278
0.278175
0.294923
0.308932
0.319572
0.326206
0.328203
0.324991
0.316288
0.302066
0.27991
0.246218
-0.245212
-0.275621
-0.295387
-0.307904
-0.315563
-0.318596
-0.317435
-0.312716
-0.30506
-0.295032
-0.283131
-0.269781
-0.25533
-0.240051
-0.224153
-0.207785
-0.191049
-0.174007
-0.156685
-0.139089
-0.121199
-0.102984
-0.0844006
-0.0653998
-0.0459282
-0.0259326
-0.00536287
0.0158244
0.037662
0.0601681
0.0833405
0.107151
0.13154
0.156406
0.181599
0.20691
0.232066
0.256714
0.280419
0.302658
0.322821
0.340218
0.354094
0.363658
0.36811
0.366693
0.35897
0.344793
0.321422
0.284872
-0.287241
-0.320405
-0.341305
-0.353724
-0.360405
-0.361733
-0.358319
-0.350987
-0.340523
-0.327625
-0.312894
-0.296826
-0.279814
-0.262159
-0.244079
-0.225723
-0.207182
-0.188504
-0.169696
-0.150742
-0.1316
-0.112216
-0.0925235
-0.072448
-0.0519122
-0.0308382
-0.00915014
0.0132218
0.0363381
0.060245
0.0849699
0.110515
0.136848
0.163898
0.191539
0.219583
0.247766
0.275734
0.303033
0.329097
0.353243
0.374674
0.392492
0.405723
0.413348
0.414369
0.40813
0.394303
0.369727
0.329951
-0.335274
-0.371708
-0.393784
-0.405791
-0.410949
-0.40988
-0.403446
-0.392726
-0.378717
-0.362281
-0.344133
-0.324849
-0.304865
-0.284504
-0.263984
-0.243444
-0.222957
-0.202546
-0.182192
-0.161849
-0.14145
-0.12091
-0.100136
-0.0790262
-0.0574754
-0.0353775
-0.0126283
0.0108717
0.0352139
0.0604774
0.0867238
0.113991
0.142285
0.171571
0.201759
0.232694
0.264136
0.295744
0.327056
0.357476
0.386253
0.412481
0.435098
0.452915
0.464638
0.468953
0.464897
0.451864
0.426137
0.382675
-0.390526
-0.430895
-0.454141
-0.465239
-0.468085
-0.463657
-0.45318
-0.438072
-0.419599
-0.398814
-0.376565
-0.3535
-0.330097
-0.306682
-0.283463
-0.260554
-0.237995
-0.215774
-0.193838
-0.172102
-0.150465
-0.12881
-0.10701
-0.0849317
-0.0624404
-0.039399
-0.015672
0.00887252
0.0343601
0.0609065
0.0886128
0.117559
0.147797
0.179338
0.212143
0.246103
0.281019
0.316583
0.352348
0.387703
0.421845
0.45376
0.482216
0.50577
0.522791
0.531551
0.530653
0.519075
0.492333
0.444603
-0.454638
-0.499797
-0.524102
-0.533501
-0.532875
-0.523749
-0.507863
-0.487083
-0.463005
-0.436906
-0.409765
-0.382299
-0.355001
-0.328183
-0.30202
-0.276581
-0.251858
-0.227787
-0.204267
-0.181169
-0.158349
-0.135651
-0.11291
-0.0899599
-0.0666319
-0.0427561
-0.0181636
0.0073121
0.0338336
0.0615565
0.0906259
0.121171
0.153296
0.187072
0.222521
0.259601
0.298176
0.337997
0.378659
0.419567
0.459893
0.498533
0.534082
0.564817
0.588698
0.603462
0.607108
0.597986
0.570508
0.517773
-0.529884
-0.580927
-0.60596
-0.612389
-0.606574
-0.590878
-0.567759
-0.539664
-0.508588
-0.476042
-0.443128
-0.410598
-0.378928
-0.348383
-0.31907
-0.290987
-0.264055
-0.238143
-0.213087
-0.188703
-0.164797
-0.141166
-0.117607
-0.0939159
-0.0698876
-0.0453184
-0.0200045
0.00625673
0.0336665
0.062423
0.0927193
0.124738
0.158647
0.194585
0.232654
0.272896
0.315267
0.359608
0.405596
0.452696
0.500099
0.546652
0.590797
0.630518
0.663302
0.686199
0.69638
0.691251
0.663596
0.604921
-0.619516
-0.677801
-0.702796
-0.704191
-0.690628
-0.665736
-0.632961
-0.59548
-0.555731
-0.515451
-0.475814
-0.437553
-0.40107
-0.366529
-0.33393
-0.303163
-0.274051
-0.246375
-0.219893
-0.194356
-0.169511
-0.145105
-0.120893
-0.0966287
-0.0720723
-0.0469845
-0.0211269
0.0057394
0.0338552
0.0634628
0.0948056
0.128125
0.163658
0.201623
0.242218
0.28559
0.33182
0.380876
0.432571
0.48649
0.541914
0.597709
0.652224
0.703174
0.747521
0.781478
0.801094
0.802366
0.775605
0.70985
-0.72836
-0.795463
-0.818779
-0.811758
-0.786613
-0.748853
-0.703238
-0.653805
-0.603432
-0.554009
-0.506688
-0.462085
-0.42044
-0.381745
-0.345834
-0.31245
-0.281284
-0.252008
-0.224289
-0.197799
-0.172221
-0.147251
-0.122593
-0.0979658
-0.0730908
-0.0476954
-0.0215073
0.00574772
0.0343488
0.0645823
0.0967429
0.131134
0.168065
0.207848
0.250786
0.29716
0.347203
0.401062
0.458746
0.520046
0.584429
0.650901
0.71783
0.782751
0.842113
0.891155
0.924463
0.93597
0.912163
0.838062
-0.86391
-0.941302
-0.959566
-0.938546
-0.896071
-0.840353
-0.777786
-0.713312
-0.650139
-0.590138
-0.534261
-0.482852
-0.435868
-0.393032
-0.353946
-0.318155
-0.285189
-0.254586
-0.225908
-0.198743
-0.172704
-0.147433
-0.122588
-0.0978488
-0.0729031
-0.0474468
-0.0211766
0.00621398
0.0350401
0.0656296
0.0983273
0.133498
0.171529
0.212828
0.25782
0.306938
0.360602
0.419189
0.482978
0.552068
0.626254
0.704853
0.786457
0.868617
0.947406
1.01705
1.07033
1.09825
1.08137
0.997912
-1.0384
-1.12635
-1.13276
-1.08852
-1.02015
-0.939523
-0.854848
-0.77179
-0.693567
-0.621692
-0.556633
-0.498236
-0.44601
-0.399299
-0.357393
-0.31959
-0.285229
-0.253698
-0.224443
-0.196963
-0.170804
-0.145552
-0.120825
-0.0962667
-0.071535
-0.046299
-0.0202292
0.00700851
0.0357601
0.0663906
0.0992906
0.134884
0.173632
0.216043
0.262669
0.314113
0.371011
0.43402
0.503767
0.580782
0.665367
0.757396
0.856003
0.959132
1.06284
1.16054
1.24305
1.29743
1.29513
1.20281
-1.27305
-1.36731
-1.34823
-1.26562
-1.15878
-1.04406
-0.931132
-0.825754
-0.730466
-0.645852
-0.571465
-0.506358
-0.449393
-0.399409
-0.355313
-0.316115
-0.280938
-0.249014
-0.219671
-0.192322
-0.16645
-0.141593
-0.117334
-0.0932857
-0.0690856
-0.0443817
-0.0188252
0.00793849
0.0362794
0.0665919
0.0993053
0.134894
0.173889
0.216892
0.264585
0.317741
0.377238
0.444047
0.519224
0.603858
0.698963
0.805291
0.922984
1.051
1.18614
1.32172
1.4469
1.54399
1.57123
1.47571
-1.60683
-1.68951
-1.61755
-1.47203
-1.30896
-1.14867
-1.00087
-0.869884
-0.756334
-0.659005
-0.57596
-0.505106
-0.444455
-0.392233
-0.346907
-0.307179
-0.271954
-0.240312
-0.211476
-0.184785
-0.159669
-0.13563
-0.112225
-0.0890494
-0.065726
-0.0418919
-0.0171877
0.00875258
0.0363132
0.065908
0.0979933
0.133082
0.171762
0.214715
0.262737
0.316769
0.377923
0.44751
0.527064
0.618341
0.723284
0.843889
0.981914
1.13827
1.31184
1.49747
1.68425
1.85014
1.93636
1.85825
-2.11177
-2.13065
-1.95213
-1.70516
-1.462
-1.24326
-1.05482
-0.896582
-0.765311
-0.65681
-0.566996
-0.492288
-0.429692
-0.376763
-0.331526
-0.292389
-0.258067
-0.227515
-0.199876
-0.174435
-0.150593
-0.127831
-0.105694
-0.0837749
-0.0616921
-0.0390829
-0.0155885
0.00915789
0.0355428
0.0639864
0.0949568
0.128989
0.166705
0.208843
0.256288
0.310116
0.371648
0.442512
0.524722
0.62076
0.733651
0.866988
1.02483
1.21128
1.42934
1.67866
1.95235
2.22783
2.42965
2.42597
-2.91867
-2.74086
-2.35964
-1.9555
-1.60244
-1.31285
-1.08092
-0.897014
-0.751291
-0.635236
-0.542023
-0.466373
-0.404257
-0.352603
-0.309063
-0.271824
-0.23947
-0.210884
-0.185169
-0.161593
-0.139549
-0.118522
-0.0980638
-0.0777752
-0.0572873
-0.036249
-0.0143133
0.00887475
0.0336911
0.0605466
0.0899039
0.122297
0.158357
0.198843
0.244686
0.297045
0.357384
0.427574
0.510037
0.607931
0.725392
0.867826
1.04221
1.25722
1.52287
1.84904
2.24097
2.6847
3.10208
3.3131
-4.32426
-3.56058
-2.81587
-2.18969
-1.69972
-1.33363
-1.06287
-0.860904
-0.708178
-0.590898
-0.499346
-0.426686
-0.368069
-0.32001
-0.279957
-0.24601
-0.216723
-0.190979
-0.167898
-0.146772
-0.127019
-0.108151
-0.0897457
-0.0714293
-0.0528576
-0.0337038
-0.0136452
0.00764911
0.0305305
0.0553852
0.0826505
0.112835
0.146546
0.184523
0.227684
0.277194
0.334556
0.401749
0.48142
0.577184
0.694057
0.839112
1.0224
1.25817
1.56662
1.97543
2.51439
3.19411
3.9937
4.82438
-7.15841
-4.55895
-3.13978
-2.2535
-1.64619
-1.23555
-0.95622
-0.760043
-0.617707
-0.511556
-0.430424
-0.367019
-0.316458
-0.275367
-0.241351
-0.212659
-0.187983
-0.166321
-0.146888
-0.129058
-0.11232
-0.096243
-0.0804582
-0.0646376
-0.0484802
-0.0316999
-0.0140134
0.00486881
0.0252558
0.0474878
0.0719508
0.0990956
0.129461
0.163707
0.202659
0.247369
0.299213
0.360026
0.432316
0.519607
0.626991
0.762061
0.936443
1.1685
1.48859
1.94697
2.61312
3.57164
5.07696
7.79569
-12.0268
-5.64173
-2.9755
-1.87679
-1.27998
-0.925585
-0.706283
-0.560793
-0.457945
-0.381963
-0.324011
-0.278686
-0.242482
-0.213005
-0.188548
-0.167857
-0.149981
-0.134185
-0.119888
-0.10662
-0.0939954
-0.0816863
-0.0694095
-0.0569117
-0.0439592
-0.0303285
-0.0157993
-0.000142988
0.0168824
0.035543
0.05614
0.0790232
0.104608
0.1334
0.166025
0.203273
0.24617
0.296066
0.354801
0.424946
0.510253
0.616465
0.752904
0.935977
1.19765
1.60176
2.26482
3.4584
6.24166
12.7524
)
;

boundaryField
{
    movingWall
    {
        type            zeroGradient;
    }
    fixedWalls
    {
        type            zeroGradient;
    }
    frontAndBack
    {
        type            empty;
    }
}


// ************************************************************************* //
