/*--------------------------------*- C++ -*----------------------------------*\
  =========                 |
  \\      /  F ield         | OpenFOAM: The Open Source CFD Toolbox
   \\    /   O peration     | Website:  https://openfoam.org
    \\  /    A nd           | Version:  7
     \\/     M anipulation  |
\*---------------------------------------------------------------------------*/
FoamFile
{
    version     2.0;
    format      ascii;
    class       volVectorField;
    location    "0.031";
    object      U;
}
// * * * * * * * * * * * * * * * * * * * * * * * * * * * * * * * * * * * * * //

dimensions      [0 1 -1 0 0 0 0];

internalField   nonuniform List<vector> 
2500
(
(0.290258 -0.152419 0)
(0.389556 -0.128243 0)
(0.565449 -0.0747358 0)
(0.683261 -0.0422259 0)
(0.752814 -0.0245155 0)
(0.797765 -0.0148664 0)
(0.828848 -0.00955231 0)
(0.851221 -0.00652398 0)
(0.867916 -0.00469649 0)
(0.88076 -0.00351968 0)
(0.890864 -0.00271509 0)
(0.898942 -0.00213708 0)
(0.905475 -0.00170556 0)
(0.910801 -0.00137392 0)
(0.915166 -0.00111334 0)
(0.918755 -0.000905028 0)
(0.921709 -0.000736059 0)
(0.924136 -0.000597203 0)
(0.926122 -0.000481618 0)
(0.927734 -0.000384065 0)
(0.929025 -0.000300418 0)
(0.930035 -0.000227325 0)
(0.930795 -0.000161984 0)
(0.931328 -0.000101974 0)
(0.931648 -4.51259e-05 0)
(0.931764 1.05693e-05 0)
(0.931676 6.70222e-05 0)
(0.93138 0.000126239 0)
(0.930863 0.000190287 0)
(0.930106 0.000261443 0)
(0.929082 0.000342318 0)
(0.927754 0.000436024 0)
(0.926073 0.000546394 0)
(0.92398 0.00067831 0)
(0.921393 0.00083819 0)
(0.918212 0.00103473 0)
(0.914302 0.00128015 0)
(0.909489 0.0015922 0)
(0.903536 0.00199797 0)
(0.896114 0.00254089 0)
(0.886757 0.00329499 0)
(0.874768 0.00439458 0)
(0.859057 0.00609832 0)
(0.837822 0.008927 0)
(0.808007 0.0139407 0)
(0.764338 0.0232315 0)
(0.69588 0.0407618 0)
(0.577945 0.0737439 0)
(0.398062 0.128748 0)
(0.293876 0.153792 0)
(0.00109415 -0.294912 0)
(0.016875 -0.298632 0)
(0.15232 -0.213003 0)
(0.282782 -0.145264 0)
(0.387821 -0.0995306 0)
(0.470853 -0.0696585 0)
(0.536035 -0.050268 0)
(0.587228 -0.0374378 0)
(0.627783 -0.0286564 0)
(0.660269 -0.0224213 0)
(0.68656 -0.0178416 0)
(0.708022 -0.0143782 0)
(0.725663 -0.0116947 0)
(0.740237 -0.00957404 0)
(0.752319 -0.00787051 0)
(0.762353 -0.00648309 0)
(0.770685 -0.00533928 0)
(0.777591 -0.00438543 0)
(0.783287 -0.00358072 0)
(0.787948 -0.00289323 0)
(0.79171 -0.0022973 0)
(0.794683 -0.0017718 0)
(0.796947 -0.00129876 0)
(0.798563 -0.000862481 0)
(0.799573 -0.000448773 0)
(0.799998 -4.43506e-05 0)
(0.799842 0.000363674 0)
(0.799093 0.00078839 0)
(0.79772 0.00124354 0)
(0.795671 0.00174414 0)
(0.792875 0.00230729 0)
(0.789235 0.00295307 0)
(0.784627 0.00370591 0)
(0.778888 0.00459638 0)
(0.771813 0.00566391 0)
(0.763142 0.00696072 0)
(0.752538 0.00855795 0)
(0.739567 0.0105554 0)
(0.723656 0.0130974 0)
(0.704045 0.0164002 0)
(0.6797 0.0207997 0)
(0.649202 0.0268377 0)
(0.610567 0.0354194 0)
(0.561019 0.0480969 0)
(0.49682 0.06753 0)
(0.413503 0.0980226 0)
(0.306158 0.145686 0)
(0.170454 0.217248 0)
(0.026891 0.307183 0)
(0.00518902 0.303021 0)
(-0.0329134 -0.25042 0)
(-0.0615959 -0.344043 0)
(-0.0115665 -0.310503 0)
(0.0705978 -0.251321 0)
(0.158482 -0.19567 0)
(0.240698 -0.150972 0)
(0.312892 -0.117158 0)
(0.374383 -0.0919635 0)
(0.426083 -0.073097 0)
(0.469355 -0.0587798 0)
(0.505553 -0.0477377 0)
(0.535865 -0.039081 0)
(0.561287 -0.03219 0)
(0.582636 -0.0266293 0)
(0.600574 -0.0220875 0)
(0.615641 -0.0183371 0)
(0.628278 -0.0152089 0)
(0.638841 -0.0125735 0)
(0.647622 -0.0103301 0)
(0.654857 -0.00839799 0)
(0.660738 -0.00671146 0)
(0.665416 -0.00521526 0)
(0.669006 -0.00386193 0)
(0.671596 -0.00260947 0)
(0.673245 -0.00141956 0)
(0.673983 -0.000256089 0)
(0.673817 0.000916202 0)
(0.672728 0.002133 0)
(0.67067 0.00343183 0)
(0.667571 0.00485356 0)
(0.663326 0.00644426 0)
(0.657795 0.00825766 0)
(0.650801 0.0103582 0)
(0.642116 0.0128255 0)
(0.631455 0.0157603 0)
(0.618462 0.0192932 0)
(0.602692 0.0235976 0)
(0.583586 0.0289087 0)
(0.560439 0.0355523 0)
(0.532369 0.043989 0)
(0.498264 0.0548814 0)
(0.456755 0.0691939 0)
(0.406219 0.0883299 0)
(0.344893 0.114288 0)
(0.271337 0.149714 0)
(0.185672 0.197374 0)
(0.0919197 0.257801 0)
(0.00168621 0.323143 0)
(-0.056978 0.361471 0)
(-0.0321737 0.263989 0)
(-0.0267719 -0.190643 0)
(-0.0654695 -0.332938 0)
(-0.064721 -0.351258 0)
(-0.0278985 -0.318789 0)
(0.0289041 -0.271308 0)
(0.0926097 -0.224554 0)
(0.155522 -0.184014 0)
(0.213859 -0.150608 0)
(0.266119 -0.123608 0)
(0.312024 -0.101886 0)
(0.35189 -0.0843606 0)
(0.386273 -0.070132 0)
(0.4158 -0.0584901 0)
(0.441077 -0.0488874 0)
(0.462656 -0.0409032 0)
(0.481025 -0.0342125 0)
(0.496605 -0.0285618 0)
(0.509756 -0.02375 0)
(0.520782 -0.0196153 0)
(0.529935 -0.0160251 0)
(0.537424 -0.0128685 0)
(0.543417 -0.0100506 0)
(0.548047 -0.00748856 0)
(0.551411 -0.00510793 0)
(0.553576 -0.00284012 0)
(0.554577 -0.000619927 0)
(0.55442 0.00161665 0)
(0.553082 0.0039345 0)
(0.550507 0.00640169 0)
(0.546608 0.00909198 0)
(0.541262 0.0120878 0)
(0.534307 0.0154842 0)
(0.525537 0.0193934 0)
(0.514696 0.0239516 0)
(0.501471 0.0293271 0)
(0.485479 0.0357328 0)
(0.466262 0.0434419 0)
(0.44327 0.0528102 0)
(0.41586 0.0643064 0)
(0.38329 0.078551 0)
(0.344747 0.0963633 0)
(0.299419 0.118805 0)
(0.246669 0.147187 0)
(0.1864 0.182944 0)
(0.119765 0.227147 0)
(0.0504234 0.279122 0)
(-0.0135918 0.333122 0)
(-0.0580692 0.371851 0)
(-0.0647625 0.355744 0)
(-0.0272979 0.204771 0)
(-0.0178578 -0.149165 0)
(-0.0532005 -0.302744 0)
(-0.0739277 -0.354411 0)
(-0.0672215 -0.349459 0)
(-0.0384853 -0.31846 0)
(0.00307428 -0.278808 0)
(0.0502538 -0.239099 0)
(0.0983076 -0.202961 0)
(0.14441 -0.171509 0)
(0.187076 -0.144718 0)
(0.22567 -0.122111 0)
(0.260056 -0.10309 0)
(0.29037 -0.087075 0)
(0.316885 -0.0735539 0)
(0.339928 -0.0620943 0)
(0.359838 -0.0523364 0)
(0.376939 -0.0439826 0)
(0.39153 -0.0367854 0)
(0.403875 -0.0305378 0)
(0.414204 -0.0250643 0)
(0.422713 -0.0202138 0)
(0.429564 -0.0158542 0)
(0.434884 -0.0118676 0)
(0.43877 -0.00814639 0)
(0.441286 -0.00458997 0)
(0.442466 -0.00110188 0)
(0.442314 0.0024131 0)
(0.440802 0.00605168 0)
(0.437869 0.00991504 0)
(0.433424 0.0141121 0)
(0.427338 0.0187633 0)
(0.419445 0.0240055 0)
(0.409537 0.0299972 0)
(0.397364 0.0369265 0)
(0.382629 0.0450196 0)
(0.364985 0.0545529 0)
(0.344039 0.0658669 0)
(0.319355 0.0793831 0)
(0.290477 0.0956218 0)
(0.256967 0.115216 0)
(0.218483 0.138908 0)
(0.174925 0.167508 0)
(0.126686 0.201738 0)
(0.0750617 0.241875 0)
(0.02285 0.286943 0)
(-0.0248872 0.33312 0)
(-0.060135 0.370858 0)
(-0.0723209 0.38056 0)
(-0.0544549 0.327817 0)
(-0.0186626 0.162383 0)
(-0.011446 -0.120847 0)
(-0.040407 -0.269571 0)
(-0.0682658 -0.339356 0)
(-0.0786053 -0.356083 0)
(-0.0702964 -0.34234 0)
(-0.0481221 -0.313654 0)
(-0.0172542 -0.279427 0)
(0.0180554 -0.24482 0)
(0.0547091 -0.212369 0)
(0.0906606 -0.183114 0)
(0.124673 -0.157302 0)
(0.156073 -0.134795 0)
(0.184563 -0.115286 0)
(0.210077 -0.0984172 0)
(0.232689 -0.0838334 0)
(0.252549 -0.0712057 0)
(0.269844 -0.0602392 0)
(0.284773 -0.0506738 0)
(0.29753 -0.0422805 0)
(0.308294 -0.0348569 0)
(0.317223 -0.0282233 0)
(0.324454 -0.0222175 0)
(0.330095 -0.0166915 0)
(0.334229 -0.0115076 0)
(0.336913 -0.00653525 0)
(0.338173 -0.00164779 0)
(0.338008 0.00328048 0)
(0.336388 0.00837744 0)
(0.333254 0.0137764 0)
(0.328514 0.0196197 0)
(0.322047 0.0260629 0)
(0.3137 0.0332793 0)
(0.303285 0.0414658 0)
(0.290587 0.0508491 0)
(0.275359 0.0616931 0)
(0.257335 0.0743068 0)
(0.236238 0.0890521 0)
(0.211805 0.106348 0)
(0.183829 0.126668 0)
(0.15222 0.150521 0)
(0.117113 0.178392 0)
(0.0790329 0.210619 0)
(0.0391267 0.247135 0)
(-0.000521509 0.28699 0)
(-0.0365562 0.327505 0)
(-0.0641482 0.362923 0)
(-0.0772039 0.382481 0)
(-0.0698324 0.368335 0)
(-0.0424532 0.294749 0)
(-0.0122063 0.132816 0)
(-0.00749845 -0.100761 0)
(-0.0306211 -0.239056 0)
(-0.0591564 -0.316894 0)
(-0.0779714 -0.348474 0)
(-0.0829558 -0.349376 0)
(-0.0756124 -0.332105 0)
(-0.0589455 -0.305436 0)
(-0.036099 -0.274999 0)
(-0.00978853 -0.244136 0)
(0.0179022 -0.214675 0)
(0.0454989 -0.187505 0)
(0.0720254 -0.162957 0)
(0.0968803 -0.141055 0)
(0.11973 -0.121657 0)
(0.140423 -0.104546 0)
(0.158928 -0.0894749 0)
(0.17529 -0.0761932 0)
(0.189594 -0.06446 0)
(0.201948 -0.0540489 0)
(0.212465 -0.0447498 0)
(0.221253 -0.0363676 0)
(0.228409 -0.028721 0)
(0.234016 -0.0216398 0)
(0.238134 -0.014962 0)
(0.240804 -0.0085318 0)
(0.242044 -0.0021962 0)
(0.241847 0.00419752 0)
(0.240183 0.0108049 0)
(0.236995 0.0177873 0)
(0.232203 0.0253156 0)
(0.2257 0.0335735 0)
(0.217359 0.042762 0)
(0.207031 0.053103 0)
(0.194551 0.0648439 0)
(0.179749 0.0782613 0)
(0.162461 0.0936623 0)
(0.142552 0.111383 0)
(0.119948 0.131778 0)
(0.0946878 0.155195 0)
(0.0669975 0.181926 0)
(0.0373928 0.212104 0)
(0.0068182 0.245532 0)
(-0.0231855 0.281387 0)
(-0.0503158 0.317737 0)
(-0.0714359 0.350845 0)
(-0.0827645 0.374224 0)
(-0.080522 0.377635 0)
(-0.0625378 0.346519 0)
(-0.0329253 0.263037 0)
(-0.00815367 0.111381 0)
(-0.00516757 -0.0859903 0)
(-0.0237494 -0.212473 0)
(-0.0504856 -0.292258 0)
(-0.0728691 -0.332973 0)
(-0.0858975 -0.345007 0)
(-0.089085 -0.337882 0)
(-0.0837128 -0.319106 0)
(-0.0717562 -0.294081 0)
(-0.0552743 -0.266427 0)
(-0.0360735 -0.238429 0)
(-0.0155915 -0.211436 0)
(0.00510056 -0.186176 0)
(0.0252463 -0.162985 0)
(0.0443404 -0.141952 0)
(0.0620667 -0.123024 0)
(0.0782465 -0.106065 0)
(0.092797 -0.0908976 0)
(0.105699 -0.0773253 0)
(0.116974 -0.0651454 0)
(0.126664 -0.0541568 0)
(0.134825 -0.0441639 0)
(0.141509 -0.0349771 0)
(0.146764 -0.0264131 0)
(0.150627 -0.0182936 0)
(0.153121 -0.0104437 0)
(0.154253 -0.00268992 0)
(0.15401 0.00514201 0)
(0.152363 0.0132296 0)
(0.149262 0.0217563 0)
(0.144643 0.0309138 0)
(0.138422 0.0409052 0)
(0.130504 0.0519472 0)
(0.120789 0.064272 0)
(0.109175 0.0781286 0)
(0.0955755 0.0937809 0)
(0.0799363 0.111503 0)
(0.062261 0.131566 0)
(0.0426495 0.154216 0)
(0.021348 0.179628 0)
(-0.00118314 0.207837 0)
(-0.0241866 0.238611 0)
(-0.0465152 0.271267 0)
(-0.066548 0.304387 0)
(-0.0821589 0.335421 0)
(-0.0908285 0.360185 0)
(-0.0900261 0.372327 0)
(-0.0779474 0.36298 0)
(-0.054823 0.321005 0)
(-0.0260904 0.234548 0)
(-0.00573097 0.0952749 0)
(-0.00377323 -0.0746639 0)
(-0.018998 -0.189585 0)
(-0.04327 -0.267839 0)
(-0.0666527 -0.313476 0)
(-0.084259 -0.333328 0)
(-0.0945796 -0.334427 0)
(-0.0977228 -0.322887 0)
(-0.0946859 -0.303524 0)
(-0.0868414 -0.279874 0)
(-0.0755847 -0.254391 0)
(-0.0621545 -0.228697 0)
(-0.0475667 -0.203803 0)
(-0.0326091 -0.180296 0)
(-0.0178654 -0.158476 0)
(-0.00374944 -0.138448 0)
(0.00945811 -0.120201 0)
(0.0215778 -0.103641 0)
(0.0325038 -0.0886319 0)
(0.0421817 -0.07501 0)
(0.0505914 -0.062597 0)
(0.0577333 -0.0512084 0)
(0.0636185 -0.040657 0)
(0.0682611 -0.0307556 0)
(0.0716723 -0.0213173 0)
(0.0738567 -0.0121557 0)
(0.0748097 -0.00308354 0)
(0.0745153 0.00608844 0)
(0.072946 0.0155528 0)
(0.0700632 0.0255074 0)
(0.0658183 0.0361565 0)
(0.0601566 0.0477122 0)
(0.0530213 0.0603949 0)
(0.0443612 0.0744325 0)
(0.034141 0.0900576 0)
(0.0223563 0.107501 0)
(0.00905336 0.126979 0)
(-0.0056439 0.148675 0)
(-0.0214985 0.1727 0)
(-0.0381168 0.199044 0)
(-0.0548973 0.227487 0)
(-0.0709769 0.257479 0)
(-0.0851867 0.28796 0)
(-0.0960409 0.317129 0)
(-0.101801 0.342151 0)
(-0.10068 0.358857 0)
(-0.0912749 0.361515 0)
(-0.0732075 0.342873 0)
(-0.0480324 0.294734 0)
(-0.0212745 0.209407 0)
(-0.00426438 0.0826736 0)
(-0.00290748 -0.0656078 0)
(-0.0156777 -0.169767 0)
(-0.0375488 -0.2446 0)
(-0.0606884 -0.292233 0)
(-0.0807184 -0.317157 0)
(-0.0957104 -0.324495 0)
(-0.105059 -0.319082 0)
(-0.10904 -0.305027 0)
(-0.108428 -0.285574 0)
(-0.104192 -0.263147 0)
(-0.0973012 -0.239473 0)
(-0.0886272 -0.215733 0)
(-0.078903 -0.192691 0)
(-0.0687154 -0.170813 0)
(-0.0585163 -0.150346 0)
(-0.0486421 -0.13139 0)
(-0.0393349 -0.11394 0)
(-0.0307633 -0.097926 0)
(-0.0230403 -0.0832298 0)
(-0.0162388 -0.0697054 0)
(-0.0104036 -0.0571882 0)
(-0.00556194 -0.0455024 0)
(-0.00173033 -0.0344647 0)
(0.00107895 -0.0238874 0)
(0.00285394 -0.0135795 0)
(0.00358013 -0.00334711 0)
(0.00323878 0.00700681 0)
(0.00180658 0.0176827 0)
(-0.000743686 0.0288847 0)
(-0.00444075 0.040821 0)
(-0.00931112 0.0537029 0)
(-0.0153734 0.0677434 0)
(-0.02263 0.0831534 0)
(-0.0310558 0.100135 0)
(-0.0405834 0.118871 0)
(-0.0510835 0.139508 0)
(-0.0623408 0.162125 0)
(-0.0740254 0.1867 0)
(-0.08566 0.213045 0)
(-0.0965886 0.240723 0)
(-0.105952 0.268938 0)
(-0.112683 0.296384 0)
(-0.115553 0.321073 0)
(-0.113277 0.340148 0)
(-0.104761 0.349737 0)
(-0.0894801 0.344929 0)
(-0.0679741 0.320007 0)
(-0.0424015 0.269072 0)
(-0.0178338 0.187208 0)
(-0.00333905 0.0724211 0)
(-0.00234533 -0.0580986 0)
(-0.0133107 -0.152391 0)
(-0.0330855 -0.222816 0)
(-0.0554449 -0.270472 0)
(-0.0766128 -0.298336 0)
(-0.0945773 -0.310127 0)
(-0.108346 -0.309611 0)
(-0.117704 -0.300202 0)
(-0.12296 -0.284758 0)
(-0.1247 -0.265545 0)
(-0.123614 -0.244281 0)
(-0.120391 -0.222213 0)
(-0.115658 -0.200215 0)
(-0.109952 -0.178866 0)
(-0.103717 -0.158523 0)
(-0.0973057 -0.139382 0)
(-0.0909908 -0.121518 0)
(-0.0849791 -0.104925 0)
(-0.0794237 -0.0895326 0)
(-0.0744361 -0.0752317 0)
(-0.0700967 -0.0618832 0)
(-0.066463 -0.0493284 0)
(-0.0635773 -0.0373947 0)
(-0.0614713 -0.0259001 0)
(-0.0601706 -0.0146556 0)
(-0.0596973 -0.00346717 0)
(-0.0600713 0.00786311 0)
(-0.0613106 0.0195363 0)
(-0.0634299 0.0317556 0)
(-0.0664386 0.0447248 0)
(-0.070336 0.0586459 0)
(-0.0751057 0.0737151 0)
(-0.0807069 0.0901168 0)
(-0.087064 0.108014 0)
(-0.0940526 0.127532 0)
(-0.101483 0.148742 0)
(-0.109081 0.171625 0)
(-0.116467 0.196032 0)
(-0.123138 0.221625 0)
(-0.128452 0.247803 0)
(-0.131628 0.273606 0)
(-0.131776 0.297602 0)
(-0.127964 0.317773 0)
(-0.119351 0.331415 0)
(-0.105412 0.335097 0)
(-0.0862526 0.324753 0)
(-0.0629407 0.295977 0)
(-0.0378118 0.244583 0)
(-0.0153111 0.167459 0)
(-0.00272432 0.0638053 0)
(-0.00196394 -0.0516802 0)
(-0.011585 -0.136929 0)
(-0.0296095 -0.202461 0)
(-0.0510092 -0.248829 0)
(-0.0725724 -0.278032 0)
(-0.0923709 -0.29278 0)
(-0.109234 -0.295989 0)
(-0.12264 -0.290445 0)
(-0.132555 -0.278605 0)
(-0.139251 -0.262514 0)
(-0.143165 -0.243798 0)
(-0.144794 -0.223701 0)
(-0.144638 -0.203139 0)
(-0.143155 -0.182759 0)
(-0.140747 -0.162996 0)
(-0.137753 -0.144118 0)
(-0.13445 -0.126267 0)
(-0.131061 -0.109493 0)
(-0.127761 -0.0937719 0)
(-0.124687 -0.0790313 0)
(-0.121942 -0.0651602 0)
(-0.119608 -0.0520206 0)
(-0.117743 -0.0394553 0)
(-0.116396 -0.027293 0)
(-0.115602 -0.0153525 0)
(-0.115388 -0.00344543 0)
(-0.115773 0.00862101 0)
(-0.116768 0.0210422 0)
(-0.118377 0.0340137 0)
(-0.120591 0.0477282 0)
(-0.123385 0.0623713 0)
(-0.126713 0.0781159 0)
(-0.130499 0.095114 0)
(-0.134629 0.113484 0)
(-0.138939 0.133295 0)
(-0.143203 0.154542 0)
(-0.147117 0.177118 0)
(-0.150292 0.200769 0)
(-0.152242 0.225045 0)
(-0.152387 0.249233 0)
(-0.150072 0.272288 0)
(-0.144611 0.29275 0)
(-0.135367 0.308682 0)
(-0.121883 0.31763 0)
(-0.104071 0.316651 0)
(-0.08245 0.302458 0)
(-0.0583543 0.271703 0)
(-0.0340674 0.22144 0)
(-0.0134065 0.149721 0)
(-0.00229436 0.0563793 0)
(-0.00169494 -0.0460548 0)
(-0.0102994 -0.122967 0)
(-0.0268891 -0.183398 0)
(-0.0473205 -0.227609 0)
(-0.0688655 -0.25697 0)
(-0.0897491 -0.27347 0)
(-0.108748 -0.279362 0)
(-0.125162 -0.276903 0)
(-0.138719 -0.268167 0)
(-0.14945 -0.254952 0)
(-0.157575 -0.238751 0)
(-0.163417 -0.22075 0)
(-0.167341 -0.201862 0)
(-0.169712 -0.182762 0)
(-0.170873 -0.163929 0)
(-0.171126 -0.145681 0)
(-0.170736 -0.128212 0)
(-0.169921 -0.111614 0)
(-0.168865 -0.0959068 0)
(-0.167714 -0.0810505 0)
(-0.166588 -0.0669623 0)
(-0.165579 -0.053527 0)
(-0.16476 -0.0406054 0)
(-0.164188 -0.0280406 0)
(-0.163904 -0.0156634 0)
(-0.163938 -0.00329606 0)
(-0.164307 0.00924426 0)
(-0.165016 0.022142 0)
(-0.166056 0.0355797 0)
(-0.167403 0.0497338 0)
(-0.169012 0.0647688 0)
(-0.170814 0.0808304 0)
(-0.172708 0.0980351 0)
(-0.174554 0.116457 0)
(-0.176165 0.136111 0)
(-0.1773 0.156926 0)
(-0.177653 0.178722 0)
(-0.176854 0.201167 0)
(-0.174466 0.223733 0)
(-0.170001 0.24565 0)
(-0.16295 0.265849 0)
(-0.15283 0.282918 0)
(-0.139269 0.295067 0)
(-0.122122 0.300137 0)
(-0.101615 0.295662 0)
(-0.0785203 0.279024 0)
(-0.0542695 0.247706 0)
(-0.0309871 0.199643 0)
(-0.0119279 0.133638 0)
(-0.00197957 0.0498512 0)
(-0.00149897 -0.0410207 0)
(-0.00932276 -0.110185 0)
(-0.0247434 -0.165455 0)
(-0.0442734 -0.20694 0)
(-0.0655815 -0.235595 0)
(-0.0870641 -0.252895 0)
(-0.107516 -0.260588 0)
(-0.126141 -0.260489 0)
(-0.142513 -0.254332 0)
(-0.156483 -0.243672 0)
(-0.168097 -0.229843 0)
(-0.177524 -0.213944 0)
(-0.185006 -0.19685 0)
(-0.190811 -0.179232 0)
(-0.195211 -0.161585 0)
(-0.198464 -0.144257 0)
(-0.200803 -0.127474 0)
(-0.202434 -0.111365 0)
(-0.203533 -0.0959795 0)
(-0.204248 -0.081309 0)
(-0.204701 -0.0672962 0)
(-0.204993 -0.0538485 0)
(-0.205201 -0.0408459 0)
(-0.205387 -0.0281485 0)
(-0.205596 -0.0156018 0)
(-0.205855 -0.00304226 0)
(-0.206179 0.00969906 0)
(-0.206567 0.0227918 0)
(-0.207 0.0364016 0)
(-0.20744 0.0506853 0)
(-0.207828 0.0657836 0)
(-0.208079 0.0818133 0)
(-0.208075 0.0988559 0)
(-0.207663 0.116944 0)
(-0.20665 0.136045 0)
(-0.204796 0.156036 0)
(-0.201814 0.176679 0)
(-0.197373 0.19759 0)
(-0.191106 0.218203 0)
(-0.182631 0.23773 0)
(-0.171585 0.25513 0)
(-0.157674 0.269084 0)
(-0.140751 0.277988 0)
(-0.120906 0.279984 0)
(-0.0985836 0.273041 0)
(-0.0746933 0.255096 0)
(-0.0506654 0.224267 0)
(-0.028426 0.179116 0)
(-0.010752 0.118927 0)
(-0.00174027 0.0440226 0)
(-0.00135242 -0.0364372 0)
(-0.00856822 -0.0983402 0)
(-0.0230364 -0.148468 0)
(-0.0417599 -0.186851 0)
(-0.0627263 -0.21417 0)
(-0.0844966 -0.23153 0)
(-0.105917 -0.240292 0)
(-0.126153 -0.241915 0)
(-0.144681 -0.237835 0)
(-0.161223 -0.229378 0)
(-0.175689 -0.217718 0)
(-0.188123 -0.203848 0)
(-0.198652 -0.188582 0)
(-0.207455 -0.172562 0)
(-0.214734 -0.15628 0)
(-0.220692 -0.140092 0)
(-0.225527 -0.124244 0)
(-0.229419 -0.108886 0)
(-0.23253 -0.0940944 0)
(-0.235001 -0.079883 0)
(-0.236951 -0.066218 0)
(-0.238478 -0.0530276 0)
(-0.239662 -0.040211 0)
(-0.240565 -0.0276464 0)
(-0.24123 -0.015196 0)
(-0.241683 -0.00271249 0)
(-0.241935 0.00995638 0)
(-0.241978 0.0229628 0)
(-0.241785 0.0364535 0)
(-0.241309 0.0505635 0)
(-0.240481 0.0654091 0)
(-0.239204 0.0810786 0)
(-0.237355 0.0976217 0)
(-0.234779 0.115035 0)
(-0.231286 0.133247 0)
(-0.226653 0.152095 0)
(-0.220626 0.171305 0)
(-0.212927 0.190466 0)
(-0.203269 0.209 0)
(-0.191377 0.226138 0)
(-0.177025 0.240902 0)
(-0.160085 0.252093 0)
(-0.140589 0.258306 0)
(-0.118804 0.257973 0)
(-0.0953114 0.249437 0)
(-0.0710844 0.231089 0)
(-0.0474977 0.201527 0)
(-0.0262754 0.159754 0)
(-0.0097981 0.105365 0)
(-0.00155294 0.0387526 0)
(-0.00124054 -0.0322029 0)
(-0.00797705 -0.0872451 0)
(-0.0216673 -0.132288 0)
(-0.0396849 -0.167325 0)
(-0.0602706 -0.192849 0)
(-0.0821327 -0.209698 0)
(-0.104183 -0.218935 0)
(-0.125582 -0.221731 0)
(-0.145747 -0.219269 0)
(-0.164312 -0.21267 0)
(-0.181085 -0.202949 0)
(-0.196005 -0.190987 0)
(-0.209107 -0.177523 0)
(-0.220485 -0.163155 0)
(-0.230273 -0.148352 0)
(-0.238623 -0.133467 0)
(-0.24569 -0.11875 0)
(-0.251626 -0.104363 0)
(-0.256572 -0.0903988 0)
(-0.260655 -0.0768896 0)
(-0.263984 -0.0638201 0)
(-0.266654 -0.0511375 0)
(-0.26874 -0.0387594 0)
(-0.2703 -0.0265815 0)
(-0.271375 -0.014484 0)
(-0.271987 -0.00233706 0)
(-0.272142 0.00999372 0)
(-0.271827 0.0226416 0)
(-0.271009 0.0357333 0)
(-0.269634 0.0493819 0)
(-0.267627 0.0636798 0)
(-0.264888 0.0786895 0)
(-0.261294 0.0944326 0)
(-0.256694 0.110877 0)
(-0.250914 0.127922 0)
(-0.243758 0.14538 0)
(-0.235013 0.162959 0)
(-0.224461 0.18024 0)
(-0.211895 0.196659 0)
(-0.197142 0.211493 0)
(-0.180101 0.223845 0)
(-0.16078 0.232653 0)
(-0.139351 0.236709 0)
(-0.116206 0.234705 0)
(-0.0920101 0.225308 0)
(-0.0677501 0.207266 0)
(-0.0447201 0.17954 0)
(-0.0244557 0.141445 0)
(-0.00901282 0.0927739 0)
(-0.00140309 0.0339375 0)
(-0.00115375 -0.0282429 0)
(-0.00750884 -0.0767539 0)
(-0.0205624 -0.116787 0)
(-0.0379705 -0.148319 0)
(-0.0581742 -0.171713 0)
(-0.0800085 -0.187611 0)
(-0.102452 -0.196845 0)
(-0.124681 -0.200355 0)
(-0.146079 -0.199109 0)
(-0.166222 -0.194045 0)
(-0.184842 -0.18603 0)
(-0.201796 -0.175831 0)
(-0.217039 -0.164106 0)
(-0.230596 -0.151399 0)
(-0.242537 -0.138145 0)
(-0.252963 -0.124678 0)
(-0.261989 -0.111243 0)
(-0.269735 -0.0980057 0)
(-0.276318 -0.0850672 0)
(-0.281847 -0.072472 0)
(-0.28642 -0.0602195 0)
(-0.29012 -0.0482727 0)
(-0.293018 -0.0365661 0)
(-0.295165 -0.0250124 0)
(-0.296597 -0.0135094 0)
(-0.297332 -0.00194506 0)
(-0.297372 0.00979652 0)
(-0.296698 0.0218295 0)
(-0.295272 0.0342606 0)
(-0.293038 0.0471819 0)
(-0.289917 0.0606639 0)
(-0.285813 0.0747466 0)
(-0.280605 0.0894291 0)
(-0.274158 0.104658 0)
(-0.266317 0.120314 0)
(-0.256918 0.136197 0)
(-0.245794 0.152012 0)
(-0.232788 0.167352 0)
(-0.217771 0.181685 0)
(-0.200663 0.194349 0)
(-0.181467 0.204543 0)
(-0.160304 0.211345 0)
(-0.137452 0.213733 0)
(-0.113386 0.210629 0)
(-0.0888174 0.200968 0)
(-0.0647181 0.183784 0)
(-0.0422928 0.158309 0)
(-0.0229097 0.124078 0)
(-0.00836014 0.0810074 0)
(-0.00128143 0.0294977 0)
(-0.00108571 -0.0245008 0)
(-0.00713542 -0.0667519 0)
(-0.0196675 -0.101855 0)
(-0.0365551 -0.129782 0)
(-0.0563972 -0.150803 0)
(-0.0781349 -0.165412 0)
(-0.100811 -0.174263 0)
(-0.123623 -0.178107 0)
(-0.145942 -0.17773 0)
(-0.167305 -0.173912 0)
(-0.187388 -0.16738 0)
(-0.205986 -0.158794 0)
(-0.22299 -0.148726 0)
(-0.238363 -0.13766 0)
(-0.252122 -0.125988 0)
(-0.26432 -0.114017 0)
(-0.275034 -0.10198 0)
(-0.284351 -0.0900361 0)
(-0.292364 -0.0782886 0)
(-0.299163 -0.0667892 0)
(-0.304831 -0.0555478 0)
(-0.30944 -0.0445403 0)
(-0.313051 -0.0337158 0)
(-0.31571 -0.0230032 0)
(-0.317445 -0.0123168 0)
(-0.318271 -0.00156203 0)
(-0.318182 0.00935886 0)
(-0.317158 0.0205415 0)
(-0.315158 0.0320734 0)
(-0.312123 0.0440277 0)
(-0.307977 0.0564556 0)
(-0.302627 0.0693788 0)
(-0.295964 0.0827796 0)
(-0.287867 0.0965908 0)
(-0.278206 0.110685 0)
(-0.266853 0.12486 0)
(-0.253686 0.138832 0)
(-0.238607 0.152219 0)
(-0.221558 0.164537 0)
(-0.20254 0.175192 0)
(-0.181645 0.183488 0)
(-0.15908 0.188638 0)
(-0.135201 0.18979 0)
(-0.11054 0.186068 0)
(-0.0858266 0.176628 0)
(-0.0620024 0.160728 0)
(-0.0401844 0.137805 0)
(-0.0215964 0.107545 0)
(-0.00781547 0.0699428 0)
(-0.00118184 0.02537 0)
(-0.00103208 -0.0209324 0)
(-0.00683695 -0.0571464 0)
(-0.0189431 -0.087397 0)
(-0.0353913 -0.111656 0)
(-0.0549045 -0.130127 0)
(-0.076511 -0.14319 0)
(-0.0993106 -0.151358 0)
(-0.122526 -0.155226 0)
(-0.145526 -0.155429 0)
(-0.167823 -0.152602 0)
(-0.189053 -0.147352 0)
(-0.208963 -0.140232 0)
(-0.227394 -0.131732 0)
(-0.244258 -0.12227 0)
(-0.259527 -0.11219 0)
(-0.27321 -0.101768 0)
(-0.28535 -0.0912136 0)
(-0.296005 -0.0806769 0)
(-0.305242 -0.0702564 0)
(-0.313133 -0.0600064 0)
(-0.319744 -0.0499433 0)
(-0.325136 -0.0400532 0)
(-0.32936 -0.0302976 0)
(-0.332452 -0.0206196 0)
(-0.334438 -0.0109492 0)
(-0.335324 -0.00120827 0)
(-0.335102 0.00868371 0)
(-0.333748 0.018805 0)
(-0.331219 0.0292256 0)
(-0.327458 0.0400017 0)
(-0.322392 0.0511689 0)
(-0.315933 0.0627345 0)
(-0.307987 0.0746701 0)
(-0.298449 0.086902 0)
(-0.287217 0.0993024 0)
(-0.274196 0.11168 0)
(-0.259308 0.123769 0)
(-0.24251 0.135226 0)
(-0.223804 0.14562 0)
(-0.203263 0.154438 0)
(-0.181048 0.161084 0)
(-0.157434 0.164901 0)
(-0.132834 0.165191 0)
(-0.107812 0.16125 0)
(-0.0831031 0.152419 0)
(-0.0596108 0.13813 0)
(-0.0383714 0.117973 0)
(-0.020487 0.091742 0)
(-0.00736186 0.059474 0)
(-0.00110021 0.0215023 0)
(-0.000989877 -0.0175026 0)
(-0.0065994 -0.0478614 0)
(-0.0183607 -0.0733306 0)
(-0.0344434 -0.0938847 0)
(-0.0536677 -0.109677 0)
(-0.0751317 -0.121 0)
(-0.0979843 -0.128249 0)
(-0.121473 -0.131892 0)
(-0.14497 -0.132435 0)
(-0.167973 -0.130387 0)
(-0.19009 -0.126242 0)
(-0.211033 -0.120455 0)
(-0.230601 -0.113433 0)
(-0.248668 -0.105529 0)
(-0.265166 -0.0970375 0)
(-0.28007 -0.0881955 0)
(-0.29339 -0.0791868 0)
(-0.305157 -0.0701456 0)
(-0.315418 -0.0611622 0)
(-0.324224 -0.0522889 0)
(-0.331627 -0.0435456 0)
(-0.337677 -0.0349254 0)
(-0.342413 -0.0264002 0)
(-0.345866 -0.0179256 0)
(-0.348052 -0.0094457 0)
(-0.348975 -0.000897856 0)
(-0.348622 0.00778277 0)
(-0.346967 0.0166584 0)
(-0.343967 0.0257837 0)
(-0.339566 0.0352004 0)
(-0.333695 0.0449315 0)
(-0.326277 0.0549749 0)
(-0.317228 0.0652964 0)
(-0.306464 0.0758226 0)
(-0.293907 0.0864331 0)
(-0.279494 0.0969535 0)
(-0.263189 0.107148 0)
(-0.244993 0.116717 0)
(-0.224964 0.125291 0)
(-0.203229 0.132436 0)
(-0.180006 0.137659 0)
(-0.155623 0.140422 0)
(-0.130529 0.140165 0)
(-0.10531 0.136333 0)
(-0.0806952 0.128415 0)
(-0.057549 0.115986 0)
(-0.036837 0.0987474 0)
(-0.0195612 0.0765682 0)
(-0.00698762 0.0495063 0)
(-0.00103373 0.0178499 0)
(-0.000957036 -0.0141824 0)
(-0.00641285 -0.0388327 0)
(-0.0178995 -0.0595829 0)
(-0.0336853 -0.0764117 0)
(-0.0526645 -0.0894335 0)
(-0.0739912 -0.0988678 0)
(-0.0968539 -0.105017 0)
(-0.120523 -0.10824 0)
(-0.144377 -0.10893 0)
(-0.167904 -0.107484 0)
(-0.190694 -0.104294 0)
(-0.212433 -0.0997225 0)
(-0.232889 -0.0940978 0)
(-0.251904 -0.0877064 0)
(-0.269379 -0.0807901 0)
(-0.285259 -0.0735459 0)
(-0.299529 -0.0661278 0)
(-0.312197 -0.05865 0)
(-0.323289 -0.0511911 0)
(-0.332841 -0.043798 0)
(-0.340891 -0.036491 0)
(-0.347476 -0.0292682 0)
(-0.352629 -0.0221094 0)
(-0.35637 -0.0149813 0)
(-0.358713 -0.00784046 0)
(-0.359655 -0.000638233 0)
(-0.359181 0.00667584 0)
(-0.357262 0.0141497 0)
(-0.353857 0.0218246 0)
(-0.348911 0.0297304 0)
(-0.342362 0.0378809 0)
(-0.334139 0.0462684 0)
(-0.324173 0.0548581 0)
(-0.312397 0.0635821 0)
(-0.298755 0.072334 0)
(-0.283213 0.0809629 0)
(-0.26577 0.0892693 0)
(-0.246467 0.0970018 0)
(-0.225404 0.103857 0)
(-0.202754 0.10948 0)
(-0.17878 0.113477 0)
(-0.153844 0.115422 0)
(-0.128424 0.114876 0)
(-0.103117 0.111412 0)
(-0.0786393 0.104646 0)
(-0.0558216 0.0942622 0)
(-0.0355698 0.0800493 0)
(-0.0188048 0.061925 0)
(-0.00668466 0.0399533 0)
(-0.000980481 0.0143736 0)
(-0.000932126 -0.0109472 0)
(-0.00627034 -0.0300045 0)
(-0.0175449 -0.0460881 0)
(-0.0330976 -0.0591813 0)
(-0.0518787 -0.0693667 0)
(-0.0730842 -0.0768046 0)
(-0.0959344 -0.0817168 0)
(-0.119719 -0.0843696 0)
(-0.143822 -0.0850543 0)
(-0.167729 -0.0840712 0)
(-0.191015 -0.0817143 0)
(-0.213349 -0.0782608 0)
(-0.234476 -0.0739625 0)
(-0.254213 -0.0690408 0)
(-0.272437 -0.0636838 0)
(-0.289071 -0.0580462 0)
(-0.304078 -0.05225 0)
(-0.317447 -0.0463865 0)
(-0.329189 -0.0405196 0)
(-0.339324 -0.0346883 0)
(-0.34788 -0.0289111 0)
(-0.354885 -0.0231884 0)
(-0.360362 -0.0175068 0)
(-0.364327 -0.0118419 0)
(-0.366786 -0.00616188 0)
(-0.367735 -0.000430414 0)
(-0.367155 0.00538993 0)
(-0.365017 0.0113345 0)
(-0.36128 0.0174329 0)
(-0.355892 0.0237059 0)
(-0.348795 0.0301606 0)
(-0.339928 0.0367874 0)
(-0.32923 0.0435548 0)
(-0.316652 0.0504053 0)
(-0.302157 0.0572511 0)
(-0.285735 0.0639702 0)
(-0.267413 0.0704033 0)
(-0.247263 0.076352 0)
(-0.22542 0.0815793 0)
(-0.202092 0.0858121 0)
(-0.177572 0.0887479 0)
(-0.152252 0.0900646 0)
(-0.126626 0.0894347 0)
(-0.101294 0.0865433 0)
(-0.0769632 0.0811091 0)
(-0.0544332 0.0729074 0)
(-0.0345622 0.0617925 0)
(-0.0182085 0.0477151 0)
(-0.00644745 0.0307341 0)
(-0.000939127 0.0110376 0)
(-0.000914168 -0.00777558 0)
(-0.00616705 -0.0213271 0)
(-0.0172867 -0.0327854 0)
(-0.0326671 -0.0421386 0)
(-0.0512982 -0.0494426 0)
(-0.0724068 -0.0548066 0)
(-0.0952364 -0.0583823 0)
(-0.119091 -0.0603529 0)
(-0.143362 -0.06092 0)
(-0.16753 -0.0602922 0)
(-0.191165 -0.058675 0)
(-0.21392 -0.0562632 0)
(-0.235527 -0.0532346 0)
(-0.255785 -0.0497464 0)
(-0.274551 -0.0459331 0)
(-0.291734 -0.0419057 0)
(-0.307279 -0.0377525 0)
(-0.321163 -0.03354 0)
(-0.333382 -0.0293151 0)
(-0.343946 -0.0251073 0)
(-0.352876 -0.0209308 0)
(-0.360189 -0.0167874 0)
(-0.365903 -0.0126684 0)
(-0.37003 -0.00855754 0)
(-0.372572 -0.00443291 0)
(-0.373521 -0.000269563 0)
(-0.372857 0.00395824 0)
(-0.37055 0.0082746 0)
(-0.366559 0.0126994 0)
(-0.360835 0.0172459 0)
(-0.353325 0.0219174 0)
(-0.343974 0.0267049 0)
(-0.332731 0.0315836 0)
(-0.319557 0.0365098 0)
(-0.304432 0.0414184 0)
(-0.287364 0.0462196 0)
(-0.2684 0.0507977 0)
(-0.247639 0.0550095 0)
(-0.225239 0.0586856 0)
(-0.201433 0.0616323 0)
(-0.176538 0.0636363 0)
(-0.150962 0.0644727 0)
(-0.125211 0.0639146 0)
(-0.0998883 0.0617458 0)
(-0.0756881 0.0577755 0)
(-0.0533878 0.0518533 0)
(-0.0338095 0.0438847 0)
(-0.0177658 0.0338418 0)
(-0.00627225 0.0217714 0)
(-0.000908772 0.00780867 0)
(-0.000902518 -0.00464802 0)
(-0.0060998 -0.0127548 0)
(-0.017118 -0.0196177 0)
(-0.0323846 -0.0252296 0)
(-0.0509153 -0.0296229 0)
(-0.0719565 -0.0328611 0)
(-0.0947672 -0.0350327 0)
(-0.118661 -0.0362448 0)
(-0.143034 -0.0366158 0)
(-0.167366 -0.0362685 0)
(-0.191222 -0.0353246 0)
(-0.214248 -0.0338995 0)
(-0.236163 -0.0320992 0)
(-0.256757 -0.0300175 0)
(-0.275876 -0.0277351 0)
(-0.293417 -0.0253188 0)
(-0.309314 -0.022822 0)
(-0.323535 -0.020285 0)
(-0.336066 -0.0177367 0)
(-0.346913 -0.0151952 0)
(-0.356087 -0.0126696 0)
(-0.363603 -0.0101613 0)
(-0.369473 -0.00766574 0)
(-0.373706 -0.00517345 0)
(-0.3763 -0.00267172 0)
(-0.377246 -0.000145961 0)
(-0.376524 0.00241885 0)
(-0.374101 0.0050367 0)
(-0.369939 0.00771901 0)
(-0.363991 0.010473 0)
(-0.356205 0.0133001 0)
(-0.346531 0.0161939 0)
(-0.334925 0.0191386 0)
(-0.321357 0.022107 0)
(-0.305816 0.025059 0)
(-0.288325 0.0279398 0)
(-0.268943 0.0306792 0)
(-0.247786 0.0331909 0)
(-0.225028 0.035373 0)
(-0.200918 0.03711 0)
(-0.175788 0.0382752 0)
(-0.150057 0.0387356 0)
(-0.124238 0.0383579 0)
(-0.0989331 0.037016 0)
(-0.0748297 0.0345992 0)
(-0.0526888 0.0310213 0)
(-0.0333089 0.0262292 0)
(-0.0174726 0.020209 0)
(-0.00615665 0.0129906 0)
(-0.000888829 0.0046553 0)
(-0.000896785 -0.00154641 0)
(-0.00606663 -0.00424458 0)
(-0.0170347 -0.00653012 0)
(-0.0322447 -0.00840069 0)
(-0.050725 -0.00986687 0)
(-0.0717317 -0.0109495 0)
(-0.0945314 -0.0116776 0)
(-0.118443 -0.0120866 0)
(-0.142864 -0.0122153 0)
(-0.167275 -0.0121045 0)
(-0.191238 -0.0117943 0)
(-0.214395 -0.011323 0)
(-0.236462 -0.0107257 0)
(-0.257221 -0.0100338 0)