/*--------------------------------*- C++ -*----------------------------------*\
  =========                 |
  \\      /  F ield         | OpenFOAM: The Open Source CFD Toolbox
   \\    /   O peration     | Website:  https://openfoam.org
    \\  /    A nd           | Version:  7
     \\/     M anipulation  |
\*---------------------------------------------------------------------------*/
FoamFile
{
    version     2.0;
    format      ascii;
    class       volVectorField;
    location    "0.0612";
    object      U;
}
// * * * * * * * * * * * * * * * * * * * * * * * * * * * * * * * * * * * * * //

dimensions      [0 1 -1 0 0 0 0];

internalField   nonuniform List<vector> 
2500
(
(2.99834e-05 -3.01011e-05 0)
(9.11702e-05 -3.68718e-05 0)
(0.000125929 -1.89142e-05 0)
(9.4502e-05 7.43268e-06 0)
(-1.52401e-05 3.44443e-05 0)
(-0.000201707 5.92991e-05 0)
(-0.000457853 8.08438e-05 0)
(-0.000774473 9.87379e-05 0)
(-0.00114132 0.000112997 0)
(-0.00154787 0.000123769 0)
(-0.0019837 0.000131255 0)
(-0.00243877 0.00013567 0)
(-0.00290351 0.000137238 0)
(-0.00336893 0.000136179 0)
(-0.00382662 0.00013271 0)
(-0.00426882 0.000127043 0)
(-0.00468841 0.000119384 0)
(-0.00507893 0.000109935 0)
(-0.00543456 9.88914e-05 0)
(-0.00575015 8.64467e-05 0)
(-0.00602121 7.27923e-05 0)
(-0.0062439 5.81194e-05 0)
(-0.00641505 4.26206e-05 0)
(-0.00653218 2.64914e-05 0)
(-0.00659349 9.93223e-06 0)
(-0.00659792 -6.85027e-06 0)
(-0.00654512 -2.3642e-05 0)
(-0.0064355 -4.02209e-05 0)
(-0.00627026 -5.63567e-05 0)
(-0.0060514 -7.1811e-05 0)
(-0.00578174 -8.63376e-05 0)
(-0.00546494 -9.96843e-05 0)
(-0.00510551 -0.000111594 0)
(-0.00470882 -0.000121809 0)
(-0.00428106 -0.000130071 0)
(-0.00382927 -0.000136127 0)
(-0.00336123 -0.000139731 0)
(-0.00288551 -0.000140648 0)
(-0.0024113 -0.000138658 0)
(-0.0019484 -0.00013356 0)
(-0.00150706 -0.000125176 0)
(-0.00109783 -0.000113355 0)
(-0.000731422 -9.79922e-05 0)
(-0.000418342 -7.90542e-05 0)
(-0.000168461 -5.66696e-05 0)
(9.74195e-06 -3.13585e-05 0)
(0.000110467 -4.43655e-06 0)
(0.000133325 2.10643e-05 0)
(9.24442e-05 3.78393e-05 0)
(2.95974e-05 2.95371e-05 0)
(3.71394e-05 -9.15122e-05 0)
(8.39449e-05 -8.3162e-05 0)
(3.52071e-05 1.74957e-05 0)
(-0.00016959 0.00015462 0)
(-0.000554461 0.000299671 0)
(-0.0011199 0.000438039 0)
(-0.00185412 0.000562085 0)
(-0.0027381 0.000668131 0)
(-0.00374872 0.000754645 0)
(-0.00486086 0.000821259 0)
(-0.00604872 0.00086827 0)
(-0.00728669 0.00089637 0)
(-0.0085499 0.000906489 0)
(-0.00981455 0.000899706 0)
(-0.0110582 0.000877187 0)
(-0.0122599 0.000840153 0)
(-0.0134004 0.000789853 0)
(-0.014462 0.000727553 0)
(-0.0154289 0.000654527 0)
(-0.0162868 0.000572058 0)
(-0.0170234 0.000481438 0)
(-0.0176282 0.000383973 0)
(-0.0180926 0.000280987 0)
(-0.0184098 0.00017383 0)
(-0.0185749 6.3885e-05 0)
(-0.0185851 -4.74286e-05 0)
(-0.0184397 -0.000158649 0)
(-0.0181398 -0.000268269 0)
(-0.017689 -0.000374742 0)
(-0.0170928 -0.000476477 0)
(-0.0163591 -0.000571854 0)
(-0.015498 -0.000659228 0)
(-0.0145219 -0.000736949 0)
(-0.0134455 -0.000803378 0)
(-0.0122856 -0.000856907 0)
(-0.0110611 -0.00089599 0)
(-0.00979307 -0.000919171 0)
(-0.00850414 -0.000925115 0)
(-0.00721869 -0.000912654 0)
(-0.0059623 -0.000880831 0)
(-0.00476143 -0.000828968 0)
(-0.00364285 -0.000756755 0)
(-0.00263297 -0.000664398 0)
(-0.00175683 -0.000552872 0)
(-0.00103671 -0.0004244 0)
(-0.000489984 -0.0002834 0)
(-0.000125909 -0.000138161 0)
(5.90711e-05 -3.90746e-06 0)
(9.22865e-05 9.12421e-05 0)
(3.81843e-05 9.24457e-05 0)
(2.01772e-05 -0.000127835 0)
(-1.33096e-05 -3.54563e-05 0)
(-0.000227534 0.000233101 0)
(-0.000673739 0.000578654 0)
(-0.00137529 0.000945543 0)
(-0.00233297 0.00130006 0)
(-0.00353164 0.00162233 0)
(-0.00494576 0.00190125 0)
(-0.00654337 0.00213107 0)
(-0.00828888 0.00230936 0)
(-0.010145 0.00243579 0)
(-0.0120739 0.00251137 0)
(-0.0140387 0.00253803 0)
(-0.0160035 0.00251826 0)
(-0.0179344 0.00245495 0)
(-0.0197992 0.00235126 0)
(-0.0215684 0.0022105 0)
(-0.0232147 0.00203611 0)
(-0.0247138 0.0018316 0)
(-0.0260435 0.00160055 0)
(-0.027185 0.00134658 0)
(-0.0281218 0.00107338 0)
(-0.0288405 0.00078471 0)
(-0.0293308 0.000484406 0)
(-0.0295853 0.000176392 0)
(-0.0295996 -0.000135305 0)
(-0.0293726 -0.000446548 0)
(-0.0289063 -0.000753093 0)
(-0.0282064 -0.00105059 0)
(-0.0272815 -0.00133459 0)
(-0.026144 -0.00160058 0)
(-0.0248096 -0.00184402 0)
(-0.0232975 -0.00206037 0)
(-0.0216301 -0.00224515 0)
(-0.0198335 -0.002394 0)
(-0.0179366 -0.0025028 0)
(-0.0159714 -0.00256771 0)
(-0.0139723 -0.0025853 0)
(-0.011976 -0.0025527 0)
(-0.0100209 -0.00246772 0)
(-0.00814616 -0.00232911 0)
(-0.00639113 -0.0021368 0)
(-0.00479398 -0.00189239 0)
(-0.00339025 -0.0015998 0)
(-0.00221079 -0.00126642 0)
(-0.00127893 -0.000905007 0)
(-0.000606604 -0.000536886 0)
(-0.000189131 -0.000196846 0)
(1.39511e-06 5.93761e-05 0)
(2.25449e-05 0.00013489 0)
(-4.61865e-06 -0.000100513 0)
(-0.000146734 0.000165412 0)
(-0.000569204 0.000678097 0)
(-0.00129678 0.00130397 0)
(-0.00234304 0.00196162 0)
(-0.00370507 0.00259788 0)
(-0.00536307 0.00317896 0)
(-0.0072856 0.00368443 0)
(-0.00943363 0.0041027 0)
(-0.0117634 0.00442802 0)
(-0.0142285 0.00465865 0)
(-0.0167818 0.00479552 0)
(-0.0193763 0.00484147 0)
(-0.0219666 0.00480059 0)
(-0.024509 0.00467789 0)
(-0.0269623 0.004479 0)
(-0.0292883 0.00420995 0)
(-0.0314518 0.00387712 0)
(-0.0334207 0.00348706 0)
(-0.0351666 0.00304653 0)
(-0.0366647 0.00256241 0)
(-0.0378937 0.00204175 0)
(-0.0388362 0.00149171 0)
(-0.0394786 0.000919634 0)
(-0.0398114 0.00033304 0)
(-0.039829 -0.000260372 0)
(-0.03953 -0.000852707 0)
(-0.0389172 -0.00143587 0)
(-0.037998 -0.0020016 0)
(-0.0367839 -0.00254147 0)
(-0.0352909 -0.00304695 0)
(-0.0335396 -0.00350949 0)
(-0.031555 -0.00392058 0)
(-0.0293663 -0.00427187 0)
(-0.027007 -0.00455531 0)
(-0.0245145 -0.0047633 0)
(-0.02193 -0.00488888 0)
(-0.0192976 -0.00492595 0)
(-0.0166641 -0.00486953 0)
(-0.0140782 -0.00471608 0)
(-0.0115894 -0.00446394 0)
(-0.00924695 -0.00411385 0)
(-0.00709832 -0.00366978 0)
(-0.00518733 -0.00314003 0)
(-0.0035518 -0.00253902 0)
(-0.00222072 -0.00189002 0)
(-0.00121021 -0.00122928 0)
(-0.000518648 -0.000611755 0)
(-0.000126652 -0.000119292 0)
(-1.08452e-06 0.000116907 0)
(-3.04669e-05 3.22195e-06 0)
(-0.000291162 0.000546262 0)
(-0.000941974 0.00138164 0)
(-0.00197205 0.00235264 0)
(-0.00337937 0.00335727 0)
(-0.00515364 0.00432517 0)
(-0.00726843 0.00520921 0)
(-0.00968577 0.00597926 0)
(-0.01236 0.00661717 0)
(-0.0152401 0.0071132 0)
(-0.0182724 0.00746358 0)
(-0.0214016 0.00766884 0)
(-0.0245729 0.00773256 0)
(-0.0277327 0.0076605 0)
(-0.0308293 0.00745999 0)
(-0.033814 0.00713947 0)
(-0.0366412 0.00670823 0)
(-0.039269 0.00617609 0)
(-0.0416591 0.00555333 0)
(-0.0437775 0.00485058 0)
(-0.0455945 0.00407873 0)
(-0.0470846 0.00324893 0)
(-0.0482269 0.00237262 0)
(-0.0490053 0.00146147 0)
(-0.0494083 0.00052745 0)
(-0.0494293 -0.000417186 0)
(-0.0490667 -0.00135988 0)
(-0.048324 -0.00228779 0)
(-0.0472098 -0.0031878 0)
(-0.0457383 -0.00404661 0)
(-0.0439286 -0.00485078 0)
(-0.0418052 -0.00558684 0)
(-0.0393981 -0.00624147 0)
(-0.036742 -0.00680162 0)
(-0.033877 -0.00725481 0)
(-0.0308475 -0.0075893 0)
(-0.0277022 -0.00779446 0)
(-0.0244934 -0.0078611 0)
(-0.0212762 -0.00778192 0)
(-0.0181079 -0.00755198 0)
(-0.0150466 -0.00716942 0)
(-0.0121497 -0.00663622 0)
(-0.00947258 -0.0059594 0)
(-0.00706641 -0.0051525 0)
(-0.00497572 -0.00423786 0)
(-0.00323589 -0.00324975 0)
(-0.00186935 -0.00223906 0)
(-0.000881269 -0.00127894 0)
(-0.000266658 -0.000472583 0)
(-2.60171e-05 2.49662e-05 0)
(-5.50305e-05 0.000183933 0)
(-0.000435043 0.00111476 0)
(-0.00132026 0.00235636 0)
(-0.00266121 0.00373826 0)
(-0.00443696 0.00514337 0)
(-0.00662708 0.00648737 0)
(-0.00919654 0.00771141 0)
(-0.0120997 0.00877631 0)
(-0.015284 0.00965739 0)
(-0.0186916 0.0103407 0)
(-0.0222618 0.0108204 0)
(-0.0259328 0.0110963 0)
(-0.0296426 0.0111727 0)
(-0.0333307 0.0110571 0)
(-0.036939 0.0107594 0)
(-0.0404122 0.010291 0)
(-0.0436986 0.00966496 0)
(-0.0467505 0.00889499 0)
(-0.0495246 0.00799563 0)
(-0.051982 0.00698196 0)
(-0.0540889 0.00586951 0)
(-0.0558164 0.00467424 0)
(-0.0571405 0.00341251 0)
(-0.0580429 0.00210106 0)
(-0.0585105 0.000757042 0)
(-0.0585358 -0.000601964 0)
(-0.058117 -0.00195798 0)
(-0.0572581 -0.00329264 0)
(-0.0559689 -0.00458721 0)
(-0.0542655 -0.00582271 0)
(-0.0521696 -0.00698001 0)
(-0.0497093 -0.00804 0)
(-0.0469183 -0.00898377 0)
(-0.0438364 -0.00979294 0)
(-0.0405087 -0.0104499 0)
(-0.0369857 -0.0109383 0)
(-0.0333225 -0.0112432 0)
(-0.0295782 -0.0113522 0)
(-0.0258151 -0.0112552 0)
(-0.0220978 -0.010946 0)
(-0.0184917 -0.0104225 0)
(-0.0150617 -0.00968819 0)
(-0.0118704 -0.00875337 0)
(-0.00897612 -0.00763717 0)
(-0.00643051 -0.00636989 0)
(-0.0042766 -0.00499646 0)
(-0.00254516 -0.00358098 0)
(-0.00125094 -0.00221195 0)
(-0.000406725 -0.00100887 0)
(-4.97886e-05 -0.000141727 0)
(-7.76556e-05 0.00043855 0)
(-0.00057362 0.00186999 0)
(-0.00169168 0.0036045 0)
(-0.00334408 0.00546463 0)
(-0.00548959 0.00732309 0)
(-0.00809584 0.00908495 0)
(-0.0111176 0.0106818 0)
(-0.0145004 0.0120667 0)
(-0.0181841 0.013209 0)
(-0.0221038 0.014091 0)
(-0.0261923 0.0147047 0)
(-0.0303812 0.0150494 0)
(-0.0346026 0.0151303 0)
(-0.0387898 0.0149567 0)
(-0.0428789 0.0145412 0)
(-0.0468092 0.0138988 0)
(-0.0505237 0.0130463 0)
(-0.0539699 0.0120018 0)
(-0.0571001 0.0107846 0)
(-0.0598716 0.00941477 0)
(-0.0622469 0.00791293 0)
(-0.064194 0.00630043 0)
(-0.0656868 0.00459913 0)
(-0.0667048 0.00283145 0)
(-0.0672336 0.00102036 0)
(-0.0672649 -0.000810652 0)
(-0.0667965 -0.00263752 0)
(-0.0658329 -0.00443571 0)
(-0.0643849 -0.00618021 0)
(-0.0624699 -0.00784572 0)
(-0.060112 -0.00940676 0)
(-0.0573419 -0.0108379 0)
(-0.0541966 -0.0121141 0)
(-0.0507199 -0.013211 0)
(-0.0469615 -0.0141052 0)
(-0.0429767 -0.0147753 0)
(-0.0388261 -0.0152018 0)
(-0.0345748 -0.0153684 0)
(-0.0302914 -0.0152622 0)
(-0.026047 -0.0148753 0)
(-0.0219138 -0.0142054 0)
(-0.0179637 -0.0132574 0)
(-0.0142664 -0.0120449 0)
(-0.0108877 -0.0105923 0)
(-0.0078872 -0.00893752 0)
(-0.00531684 -0.00713499 0)
(-0.00321743 -0.00526023 0)
(-0.00161514 -0.00341414 0)
(-0.000541976 -0.00172804 0)
(-7.17014e-05 -0.000380432 0)
(-9.84098e-05 0.000763166 0)
(-0.000705651 0.00280727 0)
(-0.00205157 0.00512291 0)
(-0.00401193 0.00753012 0)
(-0.00652511 0.00989526 0)
(-0.00954573 0.0121159 0)
(-0.0130172 0.0141162 0)
(-0.0168753 0.0158431 0)
(-0.0210514 0.0172611 0)
(-0.0254733 0.0183494 0)
(-0.0300671 0.0190983 0)
(-0.0347582 0.019507 0)
(-0.0394726 0.0195817 0)
(-0.0441386 0.0193339 0)
(-0.0486868 0.0187791 0)
(-0.0530517 0.0179361 0)
(-0.0571719 0.016826 0)
(-0.0609909 0.0154717 0)
(-0.064457 0.0138976 0)
(-0.0675243 0.0121289 0)
(-0.0701524 0.0101922 0)
(-0.0723067 0.00811439 0)
(-0.073959 0.00592346 0)
(-0.0750872 0.00364796 0)
(-0.0756756 0.00131714 0)
(-0.0757151 -0.00103903 0)
(-0.0752034 -0.00338992 0)
(-0.074145 -0.00570427 0)
(-0.0725515 -0.00795027 0)
(-0.0704413 -0.0100957 0)
(-0.0678403 -0.0121083 0)
(-0.0647813 -0.0139556 0)
(-0.0613042 -0.015606 0)
(-0.0574558 -0.0170284 0)
(-0.0532897 -0.0181935 0)
(-0.0488656 -0.0190741 0)
(-0.0442487 -0.0196455 0)
(-0.0395094 -0.0198874 0)
(-0.0347221 -0.0197836 0)
(-0.0299639 -0.0193241 0)
(-0.0253137 -0.0185063 0)
(-0.0208502 -0.017336 0)
(-0.0166506 -0.0158297 0)
(-0.0127887 -0.0140166 0)
(-0.009333 -0.0119412 0)
(-0.00634535 -0.0096663 0)
(-0.00387789 -0.00727691 0)
(-0.00196934 -0.00488357 0)
(-0.000671148 -0.00262608 0)
(-9.17848e-05 -0.000687427 0)
(-0.000117623 0.001154 0)
(-0.000831564 0.00392072 0)
(-0.00239943 0.0069063 0)
(-0.00466281 0.00993081 0)
(-0.00754011 0.012857 0)
(-0.0109725 0.0155776 0)
(-0.0148913 0.0180115 0)
(-0.0192217 0.020101 0)
(-0.0238859 0.0218073 0)
(-0.0288041 0.0231071 0)
(-0.0338951 0.0239899 0)
(-0.0390782 0.0244553 0)
(-0.0442738 0.0245111 0)
(-0.0494048 0.0241712 0)
(-0.0543973 0.0234547 0)
(-0.0591814 0.0223843 0)
(-0.0636917 0.0209858 0)
(-0.0678682 0.0192872 0)
(-0.071656 0.0173183 0)
(-0.0750064 0.0151103 0)
(-0.0778763 0.0126955 0)
(-0.0802294 0.0101073 0)
(-0.0820353 0.00737976 0)
(-0.0832706 0.00454813 0)
(-0.0839185 0.00164834 0)
(-0.0839693 -0.00128277 0)
(-0.0834202 -0.00420758 0)
(-0.0822758 -0.00708767 0)
(-0.0805479 -0.00988399 0)
(-0.0782559 -0.012557 0)
(-0.0754268 -0.015067 0)
(-0.0720952 -0.0173743 0)
(-0.0683032 -0.0194398 0)
(-0.0641002 -0.0212257 0)
(-0.059543 -0.0226959 0)
(-0.0546949 -0.0238167 0)
(-0.0496256 -0.0245584 0)
(-0.0444102 -0.0248954 0)
(-0.0391284 -0.0248082 0)
(-0.0338634 -0.0242842 0)
(-0.0287006 -0.0233196 0)
(-0.0237258 -0.0219208 0)
(-0.0190242 -0.0201066 0)
(-0.0146781 -0.0179101 0)
(-0.0107658 -0.0153814 0)
(-0.00736013 -0.0125902 0)
(-0.00452542 -0.00962918 0)
(-0.00231349 -0.00661649 0)
(-0.000794789 -0.00369801 0)
(-0.000110376 -0.00105917 0)
(-0.000135677 0.00160788 0)
(-0.000952493 0.00520482 0)
(-0.00273694 0.00894915 0)
(-0.00529852 0.0126622 0)
(-0.00853639 0.0162052 0)
(-0.0123782 0.0194677 0)
(-0.0167426 0.0223655 0)
(-0.0215436 0.0248378 0)
(-0.0266938 0.0268437 0)
(-0.032105 0.0283589 0)
(-0.0376889 0.0293727 0)
(-0.0433581 0.029886 0)
(-0.0490275 0.0299086 0)
(-0.0546149 0.0294576 0)
(-0.0600419 0.0285559 0)
(-0.0652348 0.0272308 0)
(-0.0701247 0.0255131 0)
(-0.0746482 0.0234363 0)
(-0.078748 0.021036 0)
(-0.0823727 0.0183494 0)
(-0.0854774 0.0154153 0)
(-0.0880237 0.0122735 0)
(-0.0899799 0.00896483 0)
(-0.0913213 0.00553133 0)
(-0.0920301 0.00201596 0)
(-0.0920957 -0.00153729 0)
(-0.0915151 -0.00508345 0)
(-0.0902925 -0.00857664 0)
(-0.08844 -0.0119702 0)
(-0.0859774 -0.0152168 0)
(-0.0829326 -0.0182691 0)
(-0.0793414 -0.0210794 0)
(-0.0752474 -0.0236012 0)
(-0.0707024 -0.0257888 0)
(-0.0657658 -0.0275991 0)
(-0.0605042 -0.0289917 0)
(-0.0549911 -0.0299306 0)
(-0.0493062 -0.0303848 0)
(-0.0435344 -0.0303307 0)
(-0.0377648 -0.0297523 0)
(-0.0320895 -0.0286443 0)
(-0.0266018 -0.0270126 0)
(-0.0213954 -0.0248775 0)
(-0.016562 -0.0222751 0)
(-0.0121902 -0.0192597 0)
(-0.0083649 -0.0159068 0)
(-0.00516304 -0.0123153 0)
(-0.00264985 -0.00860929 0)
(-0.000914257 -0.00493942 0)
(-0.000127891 -0.00149283 0)
(-0.000152933 0.00212241 0)
(-0.00106982 0.00665511 0)
(-0.00306675 0.0112468 0)
(-0.00592281 0.0157205 0)
(-0.00951861 0.019937 0)
(-0.0137682 0.0237844 0)
(-0.0185775 0.027177 0)
(-0.0238488 0.0300524 0)
(-0.0294847 0.0323689 0)
(-0.035388 0.0341024 0)
(-0.0414627 0.0352432 0)
(-0.0476151 0.0357942 0)
(-0.0537541 0.0357681 0)
(-0.0597927 0.0351859 0)
(-0.0656483 0.0340749 0)
(-0.0712432 0.0324673 0)
(-0.0765055 0.0303994 0)
(-0.0813692 0.0279108 0)
(-0.0857744 0.0250431 0)
(-0.0896678 0.0218399 0)
(-0.0930026 0.0183467 0)
(-0.095739 0.0146099 0)
(-0.0978441 0.0106775 0)
(-0.0992919 0.00659837 0)
(-0.100064 0.00242286 0)
(-0.100149 -0.0017977 0)
(-0.0995423 -0.00601077 0)
(-0.0982492 -0.0101627 0)
(-0.0962811 -0.0141991 0)
(-0.093658 -0.0180644 0)
(-0.090408 -0.0217031 0)
(-0.0865678 -0.0250596 0)
(-0.0821824 -0.0280789 0)
(-0.0773052 -0.0307075 0)
(-0.0719977 -0.0328943 0)
(-0.0663295 -0.0345917 0)
(-0.0603777 -0.0357566 0)
(-0.0542263 -0.0363524 0)
(-0.0479653 -0.0363498 0)
(-0.0416898 -0.0357294 0)
(-0.0354988 -0.0344829 0)
(-0.0294939 -0.0326151 0)
(-0.0237773 -0.0301466 0)
(-0.0184511 -0.0271154 0)
(-0.0136152 -0.0235792 0)
(-0.00936664 -0.0196177 0)
(-0.00579599 -0.0153349 0)
(-0.0029819 -0.0108598 0)
(-0.00103123 -0.00634733 0)
(-0.000144738 -0.00198645 0)
(-0.00016971 0.00269601 0)
(-0.00118496 0.00826856 0)
(-0.00339189 0.0137961 0)
(-0.00654035 0.0191032 0)
(-0.0104929 0.024051 0)
(-0.0151502 0.0285274 0)
(-0.0204049 0.0324462 0)
(-0.0261476 0.0357451 0)
(-0.03227 0.038383 0)
(-0.0386659 0.0403371 0)
(-0.0452315 0.0416 0)
(-0.051866 0.0421776 0)
(-0.0584727 0.0420864 0)
(-0.0649595 0.041352 0)
(-0.0712397 0.0400066 0)
(-0.0772322 0.0380883 0)
(-0.0828622 0.0356393 0)
(-0.0880611 0.0327053 0)
(-0.0927672 0.0293347 0)
(-0.0969254 0.0255778 0)
(-0.100488 0.0214868 0)
(-0.103413 0.0171151 0)
(-0.105666 0.0125178 0)
(-0.107222 0.00775115 0)
(-0.10806 0.00287268 0)
(-0.108169 -0.00205868 0)
(-0.107543 -0.0069827 0)
(-0.106187 -0.0118378 0)
(-0.104112 -0.0165615 0)
(-0.101338 -0.02109 0)
(-0.0978927 -0.0253593 0)
(-0.0938133 -0.0293051 0)
(-0.0891456 -0.032864 0)
(-0.0839442 -0.0359738 0)
(-0.0782726 -0.038575 0)
(-0.0722028 -0.0406119 0)
(-0.0658152 -0.042034 0)
(-0.0591979 -0.0427976 0)
(-0.0524461 -0.0428674 0)
(-0.045661 -0.0422191 0)
(-0.038949 -0.0408405 0)
(-0.0324198 -0.0387344 0)
(-0.0261856 -0.0359204 0)
(-0.0203588 -0.0324373 0)
(-0.0150516 -0.028345 0)
(-0.0103741 -0.0237264 0)
(-0.00643067 -0.0186896 0)
(-0.00331361 -0.0133681 0)
(-0.00114747 -0.00792064 0)
(-0.000161295 -0.0025391 0)
(-0.000186287 0.00332787 0)
(-0.00129924 0.0100436 0)
(-0.00371542 0.0165957 0)
(-0.00715605 0.0228096 0)
(-0.0114659 0.0285473 0)
(-0.0165322 0.0336973 0)
(-0.0222344 0.0381744 0)
(-0.0284505 0.0419175 0)
(-0.0350617 0.0448875 0)
(-0.041952 0.0470641 0)
(-0.0490094 0.0484434 0)
(-0.0561261 0.0490355 0)
(-0.0631995 0.0488618 0)
(-0.0701326 0.0479531 0)
(-0.0768347 0.0463477 0)
(-0.0832214 0.0440899 0)
(-0.0892153 0.0412286 0)
(-0.0947457 0.037816 0)
(-0.0997492 0.0339075 0)
(-0.104169 0.0295604 0)
(-0.107957 0.0248339 0)
(-0.111069 0.0197888 0)
(-0.113472 0.014487 0)
(-0.115138 0.00899235 0)
(-0.116046 0.00336967 0)
(-0.116184 -0.00231448 0)
(-0.115546 -0.00799212 0)
(-0.114135 -0.0135937 0)
(-0.111962 -0.0190484 0)
(-0.109046 -0.0242841 0)
(-0.105416 -0.0292279 0)
(-0.101107 -0.0338068 0)
(-0.0961656 -0.0379481 0)
(-0.0906478 -0.0415807 0)
(-0.0846183 -0.044636 0)
(-0.078151 -0.0470493 0)
(-0.0713296 -0.0487618 0)
(-0.064246 -0.0497217 0)
(-0.0570006 -0.049887 0)
(-0.0497009 -0.0492268 0)
(-0.0424606 -0.0477243 0)
(-0.0353985 -0.0453788 0)
(-0.0286369 -0.0422078 0)
(-0.0222997 -0.0382495 0)
(-0.0165117 -0.0335648 0)
(-0.0113969 -0.0282391 0)
(-0.00707389 -0.0223838 0)
(-0.00364909 -0.0161366 0)
(-0.0012647 -0.00966024 0)
(-0.000177904 -0.00315078 0)
(-0.000202901 0.00401784 0)
(-0.00141389 0.0119803 0)
(-0.00404024 0.0196459 0)
(-0.00777467 0.0268407 0)
(-0.0124442 0.0334277 0)
(-0.0179225 0.0392968 0)
(-0.0240754 0.0443645 0)
(-0.0307684 0.0485725 0)
(-0.0378713 0.0518847 0)
(-0.0452583 0.054285 0)
(-0.052809 0.0557742 0)
(-0.0604083 0.0563678 0)
(-0.0679476 0.0560931 0)
(-0.0753253 0.0549873 0)
(-0.0824466 0.0530956 0)
(-0.0892241 0.050469 0)
(-0.0955781 0.0471638 0)
(-0.101436 0.0432394 0)
(-0.106733 0.0387584 0)
(-0.111413 0.0337855 0)
(-0.115423 0.028387 0)
(-0.118723 0.022631 0)
(-0.121276 0.0165867 0)
(-0.123054 0.0103251 0)
(-0.124036 0.00391858 0)
(-0.124209 -0.00255884 0)
(-0.123566 -0.0090314 0)
(-0.122109 -0.0154216 0)
(-0.119848 -0.0216502 0)
(-0.116801 -0.0276367 0)
(-0.112995 -0.0332991 0)
(-0.108467 -0.0385552 0)
(-0.103262 -0.0433229 0)
(-0.0974365 -0.0475212 0)
(-0.0910558 -0.051072 0)
(-0.0841959 -0.0539008 0)
(-0.0769428 -0.0559393 0)
(-0.0693926 -0.0571268 0)
(-0.0616504 -0.0574128 0)
(-0.0538302 -0.0567593 0)
(-0.0460536 -0.0551431 0)
(-0.0384486 -0.0525584 0)
(-0.0311482 -0.0490195 0)
(-0.0242886 -0.0445627 0)
(-0.0180078 -0.0392489 0)
(-0.0124446 -0.0331648 0)
(-0.00773251 -0.0264248 0)
(-0.00399238 -0.0191703 0)
(-0.00138459 -0.011569 0)
(-0.000194872 -0.00382241 0)
(-0.000219753 0.00476642 0)
(-0.00153001 0.0140799 0)
(-0.00436904 0.0229488 0)
(-0.00840071 0.0311995 0)
(-0.0134341 0.0386958 0)
(-0.0193288 0.0453296 0)
(-0.0259369 0.0510204 0)
(-0.0331109 0.0557135 0)
(-0.040709 0.0593776 0)
(-0.0485954 0.0620019 0)
(-0.0566406 0.0635935 0)
(-0.0647224 0.0641743 0)
(-0.0727264 0.0637789 0)
(-0.080546 0.0624522 0)
(-0.0880827 0.0602467 0)
(-0.0952467 0.0572216 0)
(-0.101956 0.0534408 0)
(-0.108137 0.0489715 0)
(-0.113723 0.043884 0)
(-0.118657 0.0382504 0)
(-0.122889 0.0321446 0)
(-0.126374 0.0256417 0)
(-0.129078 0.0188184 0)
(-0.13097 0.0117527 0)
(-0.132031 0.00452448 0)
(-0.132244 -0.00278497 0)
(-0.131604 -0.0100922 0)
(-0.13011 -0.0173119 0)
(-0.127772 -0.0243565 0)
(-0.124605 -0.0311367 0)
(-0.120637 -0.0375617 0)
(-0.115902 -0.0435396 0)
(-0.110445 -0.0489785 0)
(-0.104322 -0.0537871 0)
(-0.0975987 -0.0578768 0)
(-0.0903524 -0.0611625 0)
(-0.0826714 -0.0635653 0)
(-0.0746551 -0.0650144 0)
(-0.0664137 -0.0654496 0)
(-0.0580676 -0.0648238 0)
(-0.0497464 -0.0631062 0)
(-0.0415877 -0.0602845 0)
(-0.0337358 -0.056368 0)
(-0.0263399 -0.05139 0)
(-0.0195522 -0.04541 0)
(-0.0135268 -0.0385152 0)
(-0.00841319 -0.0308223 0)
(-0.00434739 -0.0224769 0)
(-0.00150869 -0.013652 0)
(-0.000212478 -0.00455574 0)
(-0.000237017 0.00557464 0)
(-0.00164856 0.016345 0)
(-0.00470422 0.0265084 0)
(-0.00903824 0.0358906 0)
(-0.0144411 0.0443566 0)
(-0.0207581 0.0518009 0)
(-0.027827 0.0581468 0)
(-0.0354868 0.0633447 0)
(-0.0435838 0.0673693 0)
(-0.0519715 0.0702167 0)
(-0.0605118 0.0719014 0)
(-0.0690749 0.0724538 0)
(-0.0775406 0.0719167 0)
(-0.0857977 0.0703438 0)
(-0.0937443 0.0677964 0)
(-0.101288 0.0643423 0)
(-0.108346 0.0600539 0)
(-0.114842 0.0550068 0)
(-0.120711 0.0492793 0)
(-0.125895 0.0429513 0)
(-0.130343 0.036104 0)
(-0.134011 0.02882 0)
(-0.136864 0.0211831 0)
(-0.138874 0.0132784 0)
(-0.140016 0.00519258 0)
(-0.140277 -0.0029856 0)
(-0.139648 -0.0111654 0)
(-0.138128 -0.0192537 0)
(-0.135725 -0.027155 0)
(-0.132453 -0.0347712 0)
(-0.128337 -0.0420025 0)
(-0.123409 -0.0487471 0)
(-0.117714 -0.0549029 0)
(-0.111307 -0.0603678 0)
(-0.104252 -0.0650418 0)
(-0.0966286 -0.0688283 0)
(-0.0885257 -0.0716368 0)
(-0.0800463 -0.0733846 0)
(-0.0713051 -0.0740006 0)
(-0.0624287 -0.073427 0)
(-0.053555 -0.0716233 0)
(-0.0448317 -0.0685693 0)
(-0.0364149 -0.0642675 0)
(-0.0284673 -0.0587466 0)
(-0.0211564 -0.0520633 0)
(-0.0146526 -0.0443047 0)
(-0.0091223 -0.0355893 0)
(-0.00471781 -0.0260666 0)
(-0.00163845 -0.0159157 0)
(-0.000230978 -0.00535332 0)
(-0.000254846 0.00644401 0)
(-0.00177042 0.0187793 0)
(-0.00504797 0.0303298 0)
(-0.00969094 0.0409201 0)
(-0.0154704 0.0504165 0)
(-0.0222167 0.0587169 0)
(-0.0297527 0.0657493 0)
(-0.0379033 0.0714704 0)
(-0.0465023 0.0758624 0)
(-0.0553926 0.07893 0)
(-0.0644269 0.080697 0)
(-0.0734682 0.0812033 0)
(-0.0823903 0.0805018 0)
(-0.0910776 0.078656 0)
(-0.0994255 0.0757372 0)
(-0.107339 0.0718229 0)
(-0.114735 0.0669948 0)
(-0.121537 0.0613373 0)
(-0.127679 0.054937 0)
(-0.133104 0.047882 0)
(-0.137762 0.0402609 0)
(-0.141609 0.0321636 0)
(-0.14461 0.0236809 0)
(-0.146736 0.0149045 0)
(-0.147964 0.00592805 0)
(-0.148279 -0.003153 0)
(-0.14767 -0.0122408 0)
(-0.146137 -0.0212349 0)
(-0.143683 -0.0300317 0)
(-0.140321 -0.038525 0)
(-0.136074 -0.0466054 0)
(-0.130973 -0.0541617 0)
(-0.125058 -0.0610808 0)
(-0.118383 -0.0672493 0)
(-0.111012 -0.0725552 0)
(-0.103024 -0.0768892 0)
(-0.0945094 -0.0801478 0)
(-0.0855729 -0.0822353 0)
(-0.0763339 -0.0830674 0)
(-0.0669252 -0.0825742 0)
(-0.0574927 -0.0807036 0)
(-0.0481944 -0.077425 0)
(-0.0391989 -0.0727327 0)
(-0.0306833 -0.0666489 0)
(-0.0228312 -0.0592262 0)
(-0.0158305 -0.0505503 0)
(-0.00986588 -0.040741 0)
(-0.00510714 -0.0299519 0)
(-0.00177526 -0.0183689 0)
(-0.000250608 -0.00621843 0)
(-0.000273376 0.00737645 0)
(-0.00189636 0.0213876 0)
(-0.00540226 0.0344196 0)
(-0.0103621 0.0462955 0)
(-0.0165266 0.0568833 0)
(-0.0237102 0.0660846 0)
(-0.0317198 0.0738335 0)
(-0.040366 0.0800944 0)
(-0.0494694 0.0848588 0)
(-0.0588619 0.0881414 0)
(-0.068387 0.0899771 0)
(-0.0779003 0.0904172 0)
(-0.0872701 0.0895263 0)
(-0.0963769 0.0873791 0)
(-0.105113 0.0840583 0)
(-0.113383 0.0796518 0)
(-0.121103 0.0742515 0)
(-0.128196 0.0679513 0)
(-0.134598 0.0608466 0)
(-0.140252 0.0530335 0)
(-0.145109 0.0446084 0)
(-0.149127 0.0356682 0)
(-0.152272 0.0263102 0)
(-0.154514 0.0166328 0)
(-0.15583 0.00673575 0)
(-0.156205 -0.00327907 0)
(-0.155628 -0.0133073 0)
(-0.154094 -0.0232413 0)
(-0.151605 -0.0329703 0)
(-0.148174 -0.0423796 0)
(-0.143817 -0.0513511 0)
(-0.138563 -0.0597634 0)
(-0.132451 -0.0674925 0)
(-0.125531 -0.0744133 0)
(-0.117865 -0.0804006 0)
(-0.10953 -0.0853316 0)
(-0.100618 -0.0890883 0)
(-0.0912352 -0.0915603 0)
(-0.0815045 -0.0926486 0)
(-0.0715644 -0.0922685 0)
(-0.0615691 -0.0903545 0)
(-0.051687 -0.0868635 0)
(-0.0420996 -0.0817789 0)
(-0.0329992 -0.0751147 0)
(-0.0245865 -0.0669178 0)
(-0.0170686 -0.0572712 0)
(-0.0106496 -0.0462952 0)
(-0.0055187 -0.0341477 0)
(-0.00192041 -0.0210217 0)
(-0.000271596 -0.00715507 0)
(-0.000292731 0.00837431 0)
(-0.00202712 0.0241755 0)
(-0.00576891 0.0387856 0)
(-0.0110549 0.0520257 0)
(-0.0176138 0.0637656 0)
(-0.0252432 0.0739117 0)
(-0.0337332 0.0824052 0)
(-0.042879 0.08922 0)
(-0.0524877 0.0943585 0)
(-0.0623797 0.0978478 0)
(-0.0723893 0.0997355 0)
(-0.0823648 0.100086 0)
(-0.0921692 0.0989784 0)
(-0.10168 0.0964992 0)
(-0.110787 0.0927439 0)
(-0.119394 0.0878123 0)
(-0.127417 0.0818072 0)
(-0.134782 0.0748326 0)
(-0.141425 0.0669931 0)
(-0.147291 0.0583929 0)
(-0.152333 0.0491362 0)
(-0.156512 0.0393265 0)
(-0.159793 0.0290674 0)
(-0.162148 0.0184634 0)
(-0.163555 0.00761992 0)
(-0.163996 -0.00335548 0)
(-0.16346 -0.0143524 0)
(-0.16194 -0.0252571 0)
(-0.159437 -0.0359516 0)
(-0.155957 -0.0463135 0)
(-0.151516 -0.0562159 0)
(-0.146137 -0.0655275 0)
(-0.139856 -0.0741133 0)
(-0.132718 -0.0818356 0)
(-0.124783 -0.0885558 0)
(-0.116127 -0.0941362 0)
(-0.106838 -0.0984429 0)
(-0.0970256 -0.101349 0)
(-0.0868146 -0.102738 0)
(-0.0763488 -0.10251 0)
(-0.0657902 -0.100581 0)
(-0.0553178 -0.096895 0)
(-0.0451266 -0.091421 0)
(-0.0354247 -0.0841624 0)
(-0.0264315 -0.0751586 0)
(-0.0183743 -0.0644885 0)
(-0.0114789 -0.0522721 0)
(-0.00595569 -0.0386709 0)
(-0.00207519 -0.023886 0)
(-0.000294161 -0.00816788 0)
(-0.000313034 0.00944026 0)
(-0.0021634 0.0271497 0)
(-0.00614968 0.0434367 0)
(-0.011772 0.0581205 0)
(-0.0187358 0.0710728 0)
(-0.0268198 0.0822058 0)
(-0.0357967 0.0914695 0)
(-0.045445 0.098849 0)
(-0.0555577 0.10436 0)
(-0.0659436 0.108043 0)
(-0.0764273 0.109962 0)
(-0.0868503 0.110197 0)
(-0.0970707 0.108841 0)
(-0.106963 0.105996 0)
(-0.116416 0.101772 0)
(-0.125334 0.0962819 0)
(-0.133634 0.0896392 0)
(-0.141245 0.0819593 0)
(-0.148104 0.0733561 0)
(-0.15416 0.0639424 0)
(-0.159369 0.0538295 0)
(-0.163693 0.0431276 0)
(-0.167099 0.0319461 0)
(-0.169562 0.0203947 0)
(-0.171058 0.00858388 0)
(-0.171571 -0.00337386 0)
(-0.171087 -0.015363 0)
(-0.169599 -0.0272642 0)
(-0.167102 -0.0389532 0)
(-0.163601 -0.0503006 0)
(-0.159105 -0.0611709 0)
(-0.153634 -0.0714234 0)
(-0.147218 -0.0809118 0)
(-0.139898 -0.0894856 0)
(-0.131729 -0.0969918 0)
(-0.122783 -0.103277 0)
(-0.113146 -0.108189 0)
(-0.102928 -0.111584 0)
(-0.0922548 -0.113326 0)
(-0.0812749 -0.113293 0)
(-0.0701573 -0.111386 0)
(-0.0590919 -0.107528 0)
(-0.0482872 -0.101673 0)
(-0.0379682 -0.0938103 0)
(-0.0283741 -0.0839703 0)
(-0.0197546 -0.0722251 0)
(-0.012359 -0.0586935 0)
(-0.00642121 -0.0435404 0)
(-0.00224083 -0.0269752 0)
(-0.000318522 -0.00926217 0)
(-0.000334409 0.0105774 0)
(-0.00230592 0.0303175 0)
(-0.00654635 0.048383 0)
(-0.0125165 0.0645905 0)
(-0.0198961 0.0788147 0)
(-0.028444 0.0909746 0)
(-0.0379135 0.101031 0)
(-0.0480654 0.108981 0)
(-0.0586781 0.114857 0)
(-0.069548 0.118717 0)
(-0.0804905 0.120642 0)
(-0.0913403 0.12073 0)
(-0.101951 0.119091 0)
(-0.112196 0.115844 0)
(-0.121963 0.111115 0)
(-0.131158 0.105031 0)
(-0.139701 0.0977176 0)
(-0.147523 0.0893024 0)
(-0.154567 0.0799088 0)
(-0.160784 0.0696579 0)
(-0.166133 0.0586684 0)
(-0.170581 0.0470563 0)
(-0.174098 0.0349363 0)
(-0.176659 0.0224225 0)
(-0.178243 0.00962959 0)
(-0.178832 -0.00332602 0)
(-0.178412 -0.0163247 0)
(-0.176973 -0.0292424 0)
(-0.174507 -0.0419497 0)
(-0.171015 -0.0543106 0)
(-0.1665 -0.0661822 0)
(-0.160976 -0.0774142 0)
(-0.154468 -0.0878495 0)
(-0.147009 -0.0973245 0)
(-0.138649 -0.105671 0)
(-0.129454 -0.112719 0)
(-0.119508 -0.118297 0)
(-0.108917 -0.122241 0)
(-0.0978079 -0.124392 0)
(-0.0863327 -0.124608 0)
(-0.074667 -0.122765 0)
(-0.0630106 -0.118766 0)
(-0.0515861 -0.112545 0)
(-0.0406364 -0.104076 0)
(-0.0304217 -0.0933746 0)
(-0.021216 -0.0805052 0)
(-0.0132948 -0.0655836 0)
(-0.00691833 -0.0487772 0)
(-0.00241859 -0.0303041 0)
(-0.000344906 -0.0104439 0)
(-0.000356995 0.0117891 0)
(-0.00245547 0.0336873 0)
(-0.00696083 0.0536354 0)
(-0.0132913 0.0714475 0)
(-0.0210985 0.0870017 0)
(-0.0301194 0.100225 0)
(-0.040086 0.111091 0)
(-0.0507405 0.119614 0)
(-0.0618453 0.125842 0)
(-0.0731846 0.129856 0)
(-0.0845642 0.131755 0)
(-0.0958129 0.131658 0)
(-0.106781 0.129696 0)
(-0.11734 0.126008 0)
(-0.12738 0.120735 0)
(-0.136809 0.11402 0)
(-0.14555 0.106004 0)
(-0.153541 0.0968247 0)
(-0.160728 0.0866166 0)
(-0.167068 0.0755088 0)
(-0.172526 0.0636268 0)
(-0.177071 0.0510921 0)
(-0.180678 0.0380239 0)
(-0.183324 0.0245397 0)
(-0.184991 0.0107572 0)
(-0.185659 -0.00320427 0)
(-0.185315 -0.0172222 0)
(-0.183944 -0.0311692 0)
(-0.181537 -0.0449116 0)
(-0.178088 -0.0583081 0)
(-0.173595 -0.071209 0)
(-0.168066 -0.0834554 0)
(-0.161515 -0.0948794 0)
(-0.15397 -0.105304 0)
(-0.145473 -0.114547 0)
(-0.136082 -0.122418 0)
(-0.125875 -0.128726 0)
(-0.114955 -0.133285 0)
(-0.103447 -0.13591 0)
(-0.0915052 -0.136435 0)
(-0.07931 -0.134709 0)
(-0.0670713 -0.130609 0)
(-0.0550256 -0.124047 0)
(-0.0434344 -0.114975 0)
(-0.0325805 -0.103393 0)
(-0.0227647 -0.0893538 0)
(-0.0142913 -0.0729676 0)
(-0.00745018 -0.054404 0)
(-0.00260977 -0.0338893 0)
(-0.000373552 -0.0117197 0)
(-0.000380953 0.0130793 0)
(-0.00261296 0.0372683 0)
(-0.00739534 0.0592062 0)
(-0.0140999 0.0787041 0)
(-0.0223473 0.0956444 0)
(-0.0318498 0.109964 0)
(-0.0423166 0.121652 0)
(-0.0534694 0.130741 0)
(-0.0650542 0.137302 0)
(-0.0768419 0.141436 0)
(-0.0886296 0.143271 0)
(-0.10024 0.142946 0)
(-0.111522 0.140617 0)
(-0.122346 0.136443 0)
(-0.132606 0.130584 0)
(-0.142215 0.123201 0)
(-0.1511 0.114449 0)
(-0.159205 0.10448 0)
(-0.166485 0.0934359 0)
(-0.172902 0.0814559 0)
(-0.178427 0.0686713 0)
(-0.183036 0.0552084 0)
(-0.186706 0.0411898 0)
(-0.189421 0.0267354 0)
(-0.191161 0.0119646 0)
(-0.19191 -0.00300176 0)
(-0.191652 -0.0180397 0)
(-0.190371 -0.0330199 0)
(-0.188054 -0.0478059 0)
(-0.184687 -0.0622525 0)
(-0.180264 -0.0762042 0)
(-0.174783 -0.0894944 0)
(-0.16825 -0.101945 0)
(-0.160683 -0.113367 0)
(-0.152114 -0.12356 0)
(-0.142591 -0.132316 0)
(-0.132186 -0.139424 0)