/*--------------------------------*- C++ -*----------------------------------*\
  =========                 |
  \\      /  F ield         | OpenFOAM: The Open Source CFD Toolbox
   \\    /   O peration     | Website:  https://openfoam.org
    \\  /    A nd           | Version:  7
     \\/     M anipulation  |
\*---------------------------------------------------------------------------*/
FoamFile
{
    version     2.0;
    format      ascii;
    class       surfaceScalarField;
    location    "0.067";
    object      phi;
}
// * * * * * * * * * * * * * * * * * * * * * * * * * * * * * * * * * * * * * //

dimensions      [0 3 -1 0 0 0 0];

internalField   nonuniform List<scalar> 
4900
(
1.12298e-09
-1.1314e-09
2.28021e-09
-1.15723e-09
2.33836e-09
-5.81517e-11
9.03017e-10
1.43533e-09
-2.10423e-09
3.00724e-09
-6.59956e-09
4.49534e-09
-1.24201e-08
5.82051e-09
-1.93674e-08
6.94735e-09
-2.72305e-08
7.86306e-09
-3.57967e-08
8.56621e-09
-4.48582e-08
9.06156e-09
-5.42157e-08
9.35747e-09
-6.36801e-08
9.46443e-09
-7.30743e-08
9.39421e-09
-8.22337e-08
9.15933e-09
-9.10064e-08
8.77273e-09
-9.92539e-08
8.24754e-09
-1.06851e-07
7.59705e-09
-1.13686e-07
6.83457e-09
-1.19659e-07
5.97348e-09
-1.24686e-07
5.02723e-09
-1.28696e-07
4.00943e-09
-1.3163e-07
2.93386e-09
-1.33444e-07
1.8146e-09
-1.3411e-07
6.66065e-10
-1.33613e-07
-4.9692e-10
-1.31954e-07
-1.65908e-09
-1.2915e-07
-2.80465e-09
-1.25232e-07
-3.91743e-09
-1.20251e-07
-4.98077e-09
-1.14274e-07
-5.97767e-09
-1.07383e-07
-6.89089e-09
-9.96798e-08
-7.7031e-09
-9.12827e-08
-8.39709e-09
-8.23267e-08
-8.95596e-09
-7.29633e-08
-9.36343e-09
-6.33592e-08
-9.60411e-09
-5.36953e-08
-9.66387e-09
-4.41651e-08
-9.5302e-09
-3.49724e-08
-9.19268e-09
-2.63288e-08
-8.6436e-09
-1.845e-08
-7.87879e-09
-1.1551e-08
-6.899e-09
-5.8387e-09
-5.71234e-09
-1.49935e-09
-4.33935e-09
1.32499e-09
-2.82433e-09
2.57874e-09
-1.25375e-09
2.36039e-09
2.18382e-10
1.12495e-09
1.23549e-09
1.12499e-09
1.16544e-09
-2.29685e-09
1.29403e-09
-1.28583e-09
-1.24371e-09
2.47958e-09
-7.21669e-09
7.40833e-09
-1.68548e-08
1.26453e-08
-3.0049e-08
1.76896e-08
-4.64874e-08
2.2259e-08
-6.5742e-08
2.62019e-08
-8.73226e-08
2.94437e-08
-1.10712e-07
3.19555e-08
-1.35387e-07
3.37367e-08
-1.60834e-07
3.48046e-08
-1.86558e-07
3.51881e-08
-2.12087e-07
3.49235e-08
-2.3698e-07
3.40521e-08
-2.60826e-07
3.26185e-08
-2.83247e-07
3.06691e-08
-3.03902e-07
2.82519e-08
-3.22483e-07
2.54158e-08
-3.3872e-07
2.22105e-08
-3.5238e-07
1.86864e-08
-3.63265e-07
1.48948e-08
-3.71219e-07
1.08877e-08
-3.76122e-07
6.71842e-09
-3.77898e-07
2.44159e-09
-3.76508e-07
-1.88681e-09
-3.71958e-07
-6.20921e-09
-3.64296e-07
-1.04665e-08
-3.53616e-07
-1.45979e-08
-3.40055e-07
-1.85416e-08
-3.23798e-07
-2.22347e-08
-3.05075e-07
-2.56136e-08
-2.84163e-07
-2.86149e-08
-2.61384e-07
-3.11761e-08
-2.37104e-07
-3.32365e-08
-2.11729e-07
-3.47381e-08
-1.85706e-07
-3.5627e-08
-1.59515e-07
-3.58551e-08
-1.33664e-07
-3.53814e-08
-1.08682e-07
-3.41742e-08
-8.51115e-08
-3.22143e-08
-6.34917e-08
-2.94986e-08
-4.43448e-08
-2.60458e-08
-2.81504e-08
-2.19067e-08
-1.53096e-08
-1.71801e-08
-6.09211e-09
-1.20418e-08
-5.50787e-10
-6.79509e-09
1.62576e-09
-1.95822e-09
1.2468e-09
1.61438e-09
2.37181e-09
1.16313e-10
-2.41317e-09
-2.37509e-09
1.20557e-09
-9.04232e-09
9.14681e-09
-2.06741e-08
1.90401e-08
-3.75118e-08
2.9483e-08
-5.94101e-08
3.95878e-08
-8.5957e-08
4.88059e-08
-1.1657e-07
5.68145e-08
-1.50562e-07
6.34358e-08
-1.87192e-07
6.85858e-08
-2.25698e-07
7.22423e-08
-2.65318e-07
7.44247e-08
-3.0531e-07
7.51806e-08
-3.44964e-07
7.45768e-08
-3.83605e-07
7.26932e-08
-4.20605e-07
6.96188e-08
-4.55385e-07
6.54487e-08
-4.87416e-07
6.02827e-08
-5.16223e-07
5.42234e-08
-5.41389e-07
4.73761e-08
-5.62551e-07
3.98483e-08
-5.79406e-07
3.17497e-08
-5.9171e-07
2.31922e-08
-5.99282e-07
1.42903e-08
-6.02002e-07
5.16125e-09
-5.99814e-07
-4.07462e-09
-5.92729e-07
-1.32939e-08
-5.80826e-07
-2.23701e-08
-5.6425e-07
-3.11739e-08
-5.43218e-07
-3.95735e-08
-5.18017e-07
-4.74355e-08
-4.89004e-07
-5.4626e-08
-4.56608e-07
-6.10118e-08
-4.21322e-07
-6.64621e-08
-3.83707e-07
-7.08508e-08
-3.44387e-07
-7.40586e-08
-3.04038e-07
-7.59761e-08
-2.63386e-07
-7.6507e-08
-2.23195e-07
-7.55722e-08
-1.84254e-07
-7.31147e-08
-1.47363e-07
-6.91057e-08
-1.13308e-07
-6.35537e-08
-8.2837e-08
-5.65167e-08
-5.6623e-08
-4.81208e-08
-3.52133e-08
-3.85898e-08
-1.89632e-08
-2.82919e-08
-7.94199e-09
-1.78162e-08
-1.82186e-09
-8.07831e-09
2.80278e-10
-4.87803e-10
2.6521e-09
-1.33602e-09
-1.07715e-09
-7.22955e-09
7.09908e-09
-1.88698e-08
2.07871e-08
-3.68516e-08
3.70219e-08
-6.13041e-08
5.39355e-08
-9.19844e-08
7.02681e-08
-1.28373e-07
8.51942e-08
-1.69755e-07
9.81968e-08
-2.1529e-07
1.08971e-07
-2.64062e-07
1.17358e-07
-3.1512e-07
1.23299e-07
-3.67504e-07
1.26809e-07
-4.20275e-07
1.27951e-07
-4.72523e-07
1.26825e-07
-5.23384e-07
1.23554e-07
-5.72047e-07
1.18282e-07
-6.17763e-07
1.11164e-07
-6.59844e-07
1.02364e-07
-6.97675e-07
9.20545e-08
-7.30711e-07
8.04115e-08
-7.58479e-07
6.76168e-08
-7.80586e-07
5.38564e-08
-7.96714e-07
3.93205e-08
-8.06627e-07
2.42035e-08
-8.10171e-07
8.7052e-09
-8.07276e-07
-6.97013e-09
-7.97957e-07
-2.2613e-08
-7.82318e-07
-3.80089e-08
-7.60553e-07
-5.29391e-08
-7.32945e-07
-6.71814e-08
-6.99869e-07
-8.05112e-08
-6.61791e-07
-9.2704e-08
-6.19266e-07
-1.03537e-07
-5.72935e-07
-1.12793e-07
-5.23524e-07
-1.20262e-07
-4.71834e-07
-1.25749e-07
-4.18733e-07
-1.29076e-07
-3.65152e-07
-1.30089e-07
-3.1206e-07
-1.28664e-07
-2.60458e-07
-1.24717e-07
-2.1135e-07
-1.18214e-07
-1.65718e-07
-1.09186e-07
-1.24488e-07
-9.77465e-08
-8.84878e-08
-8.4121e-08
-5.83917e-08
-6.86859e-08
-3.46548e-08
-5.20289e-08
-1.74319e-08
-3.50391e-08
-6.48863e-09
-1.90215e-08
-1.11816e-09
-5.85829e-09
1.53393e-09
-2.88989e-09
1.81274e-09
-1.25212e-08
1.67303e-08
-2.95534e-08
3.78193e-08
-5.42688e-08
6.17374e-08
-8.65861e-08
8.62527e-08
-1.26106e-07
1.09788e-07
-1.72173e-07
1.31262e-07
-2.23941e-07
1.49965e-07
-2.80429e-07
1.65459e-07
-3.40571e-07
1.775e-07
-4.0326e-07
1.85988e-07
-4.67375e-07
1.90925e-07
-5.31812e-07
1.92388e-07
-5.95497e-07
1.9051e-07
-6.57409e-07
1.85466e-07
-7.16584e-07
1.77457e-07
-7.72129e-07
1.66709e-07
-8.23225e-07
1.5346e-07
-8.69135e-07
1.37965e-07
-9.09208e-07
1.20484e-07
-9.42879e-07
1.01288e-07
-9.69675e-07
8.06528e-08
-9.89218e-07
5.88632e-08
-1.00122e-06
3.62101e-08
-1.00551e-06
1.29917e-08
-1.00199e-06
-1.04865e-08
-9.90696e-07
-3.39118e-08
-9.71741e-07
-5.69644e-08
-9.45361e-07
-7.93186e-08
-9.11898e-07
-1.00644e-07
-8.71801e-07
-1.20608e-07
-8.25626e-07
-1.38879e-07
-7.74037e-07
-1.55127e-07
-7.17797e-07
-1.69033e-07
-6.57768e-07
-1.8029e-07
-5.94902e-07
-1.88615e-07
-5.30229e-07
-1.9375e-07
-4.64844e-07
-1.95474e-07
-3.99891e-07
-1.93616e-07
-3.36544e-07
-1.88064e-07
-2.75977e-07
-1.78781e-07
-2.19337e-07
-1.65826e-07
-1.67704e-07
-1.49379e-07
-1.22048e-07
-1.29778e-07
-8.3174e-08
-1.0756e-07
-5.16683e-08
-8.35346e-08
-2.78319e-08
-5.88756e-08
-1.16239e-08
-3.52294e-08
-2.62087e-09
-1.48614e-08
-1.08694e-09
-4.42306e-09
6.23579e-09
-1.78636e-08
3.01709e-08
-4.04366e-08
6.03923e-08
-7.2047e-08
9.33478e-08
-1.12341e-07
1.26547e-07
-1.60715e-07
1.58162e-07
-2.16347e-07
1.86894e-07
-2.78243e-07
2.1186e-07
-3.45282e-07
2.32497e-07
-4.1626e-07
2.48479e-07
-4.8993e-07
2.59658e-07
-5.65032e-07
2.66027e-07
-6.40321e-07
2.67676e-07
-7.14587e-07
2.64776e-07
-7.86672e-07
2.57552e-07
-8.55488e-07
2.46273e-07
-9.20019e-07
2.3124e-07
-9.79336e-07
2.12778e-07
-1.0326e-06
1.9123e-07
-1.07907e-06
1.66954e-07
-1.1181e-06
1.4032e-07
-1.14916e-06
1.1171e-07
-1.17181e-06
8.15125e-08
-1.18573e-06
5.01299e-08
-1.19071e-06
1.79726e-08
-1.18666e-06
-1.45386e-08
-1.1736e-06
-4.69733e-08
-1.15167e-06
-7.8892e-08
-1.12114e-06
-1.09847e-07
-1.0824e-06
-1.39386e-07
-1.03595e-06
-1.67053e-07
-9.82439e-07
-1.92394e-07
-9.22606e-07
-2.1496e-07
-8.57322e-07
-2.34316e-07
-7.87565e-07
-2.50048e-07
-7.14411e-07
-2.6177e-07
-6.39024e-07
-2.69137e-07
-5.62642e-07
-2.71856e-07
-4.86557e-07
-2.69701e-07
-4.12093e-07
-2.62529e-07
-3.40572e-07
-2.50301e-07
-2.73291e-07
-2.33107e-07
-2.11474e-07
-2.11196e-07
-1.56237e-07
-1.85015e-07
-1.08535e-07
-1.55262e-07
-6.91152e-08
-1.22954e-07
-3.8476e-08
-8.95147e-08
-1.68319e-08
-5.68736e-08
-4.10979e-09
-2.75835e-08
-5.19673e-09
-5.88698e-09
1.21228e-08
-2.30795e-08
4.73634e-08
-5.11827e-08
8.84954e-08
-8.97066e-08
1.31872e-07
-1.37992e-07
1.74832e-07
-1.95195e-07
2.15365e-07
-2.60299e-07
2.51998e-07
-3.32145e-07
2.83706e-07
-4.09463e-07
3.09816e-07
-4.90913e-07
3.29928e-07
-5.75114e-07
3.43859e-07
-6.60678e-07
3.51591e-07
-7.46237e-07
3.53235e-07
-8.30461e-07
3.49e-07
-9.12078e-07
3.39169e-07
-9.89889e-07
3.24084e-07
-1.06278e-06
3.04129e-07
-1.12972e-06
2.79721e-07
-1.1898e-06
2.51304e-07
-1.24218e-06
2.19341e-07
-1.28617e-06
1.84311e-07
-1.32117e-06
1.4671e-07
-1.34671e-06
1.07046e-07
-1.36242e-06
6.58404e-08
-1.36807e-06
2.36289e-08
-1.36357e-06
-1.90413e-08
-1.34893e-06
-6.16102e-08
-1.32432e-06
-1.03506e-07
-1.29002e-06
-1.44149e-07
-1.24645e-06
-1.82949e-07
-1.19419e-06
-2.19317e-07
-1.13392e-06
-2.52664e-07
-1.06647e-06
-2.8241e-07
-9.92792e-07
-3.07993e-07
-9.13961e-07
-3.28878e-07
-8.31161e-07
-3.4457e-07
-7.45671e-07
-3.54627e-07
-6.58854e-07
-3.58673e-07
-5.7213e-07
-3.56424e-07
-4.86959e-07
-3.477e-07
-4.04803e-07
-3.32456e-07
-3.27103e-07
-3.10808e-07
-2.5523e-07
-2.83069e-07
-1.90455e-07
-2.49789e-07
-1.33904e-07
-2.11813e-07
-8.65179e-08
-1.7034e-07
-4.9026e-08
-1.27007e-07
-2.19326e-08
-8.39669e-08
-5.53508e-09
-4.3981e-08
-1.07318e-08
-7.27171e-09
1.93945e-08
-2.81067e-08
6.81984e-08
-6.16513e-08
1.2204e-07
-1.07028e-07
1.77249e-07
-1.6326e-07
2.31064e-07
-2.2924e-07
2.81346e-07
-3.03738e-07
3.26495e-07
-3.85409e-07
3.65377e-07
-4.72825e-07
3.97232e-07
-5.64502e-07
4.21605e-07
-6.58928e-07
4.38286e-07
-7.54594e-07
4.47258e-07
-8.50017e-07
4.48658e-07
-9.43758e-07
4.42741e-07
-1.03445e-06
4.29856e-07
-1.12079e-06
4.10424e-07
-1.20157e-06
3.84918e-07
-1.27571e-06
3.53856e-07
-1.34219e-06
3.17789e-07
-1.40015e-06
2.77292e-07
-1.4488e-06
2.32966e-07
-1.48752e-06
1.85427e-07
-1.51578e-06
1.3531e-07
-1.53321e-06
8.32678e-08
-1.53955e-06
2.99673e-08
-1.53468e-06
-2.39072e-08
-1.51864e-06
-7.76566e-08
-1.49157e-06
-1.30568e-07
-1.45381e-06
-1.81916e-07
-1.40579e-06
-2.30968e-07
-1.34812e-06
-2.76987e-07
-1.28154e-06
-3.1924e-07
-1.20695e-06
-3.57005e-07
-1.12536e-06
-3.89582e-07
-1.03793e-06
-4.16307e-07
-9.45938e-07
-4.36562e-07
-8.50765e-07
-4.49799e-07
-7.53884e-07
-4.55554e-07
-6.56836e-07
-4.53472e-07
-5.61208e-07
-4.43328e-07
-4.68601e-07
-4.25064e-07
-3.80597e-07
-3.98812e-07
-2.98728e-07
-3.64938e-07
-2.24433e-07
-3.24084e-07
-1.59027e-07
-2.77219e-07
-1.03671e-07
-2.25697e-07
-5.93473e-08
-1.7133e-07
-2.68655e-08
-1.16449e-07
-6.88579e-09
-6.39607e-08
-1.76176e-08
-8.58465e-09
2.79791e-08
-3.29428e-08
9.25565e-08
-7.18134e-08
1.60911e-07
-1.23951e-07
2.29386e-07
-1.88057e-07
2.9517e-07
-2.62755e-07
3.56043e-07
-3.4658e-07
4.1032e-07
-4.3799e-07
4.56787e-07
-5.35385e-07
4.94627e-07
-6.37132e-07
5.23351e-07
-7.41585e-07
5.42738e-07
-8.47113e-07
5.52786e-07
-9.52124e-07
5.53668e-07
-1.05508e-06
5.45697e-07
-1.15452e-06
5.29292e-07
-1.24905e-06
5.04963e-07
-1.33742e-06
4.7328e-07
-1.41843e-06
4.3487e-07
-1.49104e-06
3.90398e-07
-1.55431e-06
3.4056e-07
-1.60742e-06
2.86081e-07
-1.64971e-06
2.27709e-07
-1.68061e-06
1.66212e-07
-1.69972e-06
1.02378e-07
-1.70677e-06
3.70169e-08
-1.70163e-06
-2.9045e-08
-1.68433e-06
-9.49615e-08
-1.65502e-06
-1.5987e-07
-1.61405e-06
-2.22894e-07
-1.56187e-06
-2.83146e-07
-1.49912e-06
-3.39735e-07
-1.42659e-06
-3.91773e-07
-1.3452e-06
-4.38388e-07
-1.25606e-06
-4.7873e-07
-1.16037e-06
-5.11994e-07
-1.0595e-06
-5.37433e-07
-9.54917e-07
-5.54379e-07
-8.48204e-07
-5.62267e-07
-7.41015e-07
-5.60661e-07
-6.35061e-07
-5.49282e-07
-5.32082e-07
-5.28043e-07
-4.33813e-07
-4.97081e-07
-3.41952e-07
-4.56799e-07
-2.58124e-07
-4.07912e-07
-1.83854e-07
-3.51489e-07
-1.20536e-07
-2.89015e-07
-6.9424e-08
-2.22442e-07
-3.16336e-08
-1.54239e-07
-8.17047e-09
-8.74238e-08
-2.5788e-08
-9.83966e-09
3.78188e-08
-3.7615e-08
1.20332e-07
-8.17008e-08
2.04997e-07
-1.40505e-07
2.8819e-07
-2.12414e-07
3.6708e-07
-2.95773e-07
4.39402e-07
-3.88876e-07
5.03422e-07
-4.89971e-07
5.57882e-07
-5.97276e-07
6.01932e-07
-7.08998e-07
6.35074e-07
-8.23354e-07
6.57095e-07
-9.38593e-07
6.68025e-07
-1.05301e-06
6.68087e-07
-1.16498e-06
6.57663e-07
-1.27294e-06
6.37257e-07
-1.37545e-06
6.07472e-07
-1.47116e-06
5.68989e-07
-1.55884e-06
5.22547e-07
-1.63737e-06
4.68933e-07
-1.70579e-06
4.08973e-07
-1.76323e-06
3.43521e-07
-1.80898e-06
2.73461e-07
-1.84247e-06
1.997e-07
-1.86326e-06
1.23171e-07
-1.87107e-06
4.4826e-08
-1.86575e-06
-3.43575e-08
-1.84733e-06
-1.13382e-07
-1.81598e-06
-1.91228e-07
-1.77201e-06
-2.66862e-07
-1.71592e-06
-3.39235e-07
-1.64836e-06
-4.07294e-07
-1.57014e-06
-4.69989e-07
-1.48225e-06
-5.26284e-07
-1.3858e-06
-5.75174e-07
-1.2821e-06
-6.15701e-07
-1.17256e-06
-6.46973e-07
-1.05874e-06
-6.68194e-07
-9.42327e-07
-6.78682e-07
-8.25081e-07
-6.77907e-07
-7.08842e-07
-6.65521e-07
-5.95494e-07
-6.41391e-07
-4.86932e-07
-6.05642e-07
-3.85035e-07
-5.58697e-07
-2.91628e-07
-5.01318e-07
-2.0846e-07
-4.34657e-07
-1.37175e-07
-3.60299e-07
-7.93065e-08
-2.80311e-07
-3.62727e-08
-1.97273e-07
-9.40535e-09
-1.14291e-07
-3.51934e-08
-1.10524e-08
4.88712e-08
-4.2163e-08
1.51442e-07
-9.13756e-08
2.54209e-07
-1.5677e-07
3.53584e-07
-2.36426e-07
4.46736e-07
-3.28408e-07
5.31385e-07
-4.30761e-07
6.05775e-07
-5.41514e-07
6.68635e-07
-6.58695e-07
7.19113e-07
-7.80344e-07
7.56723e-07
-9.04535e-07
7.81286e-07
-1.02939e-06
7.92881e-07
-1.1531e-06
7.918e-07
-1.27395e-06
7.78507e-07
-1.39029e-06
7.53602e-07
-1.50062e-06
7.17797e-07
-1.60352e-06
6.71886e-07
-1.6977e-06
6.16735e-07
-1.78203e-06
5.53258e-07
-1.85547e-06
4.82414e-07
-1.91715e-06
4.05197e-07
-1.96631e-06
3.22628e-07
-2.00237e-06
2.3576e-07
-2.02487e-06
1.45669e-07
-2.03351e-06
5.34596e-08
-2.02812e-06
-3.974e-08
-2.00873e-06
-1.32775e-07
-1.97549e-06
-2.24469e-07
-1.92873e-06
-3.13621e-07
-1.86895e-06
-3.99018e-07
-1.7968e-06
-4.79438e-07
-1.71313e-06
-5.53659e-07
-1.61894e-06
-6.20476e-07
-1.5154e-06
-6.78714e-07
-1.40385e-06
-7.27252e-07
-1.28578e-06
-7.65042e-07
-1.16283e-06
-7.91142e-07
-1.03677e-06
-8.04741e-07
-9.09486e-07
-8.05196e-07
-7.82939e-07
-7.92069e-07
-6.59164e-07
-7.65165e-07
-5.4023e-07
-7.24577e-07
-4.28205e-07
-6.70722e-07
-3.25132e-07
-6.04391e-07
-2.32997e-07
-5.26792e-07
-1.53708e-07
-4.39588e-07
-8.90805e-08
-3.44939e-07
-4.0834e-08
-2.45519e-07
-1.06092e-08
-1.44516e-07
-4.58026e-08
-1.22383e-08
6.11095e-08
-4.66309e-08
1.85835e-07
-1.00913e-07
3.08491e-07
-1.72851e-07
4.25522e-07
-2.60223e-07
5.34108e-07
-3.60814e-07
6.31975e-07
-4.72412e-07
7.17374e-07
-5.92823e-07
7.89046e-07
-7.19874e-07
8.46164e-07
-8.51433e-07
8.88282e-07
-9.85426e-07
9.15279e-07
-1.11985e-06
9.27304e-07
-1.25278e-06
9.24736e-07
-1.38242e-06
9.08139e-07
-1.50704e-06
8.78224e-07
-1.62506e-06
8.35823e-07
-1.73503e-06
7.81858e-07
-1.83562e-06
7.17324e-07
-1.92564e-06
6.43275e-07
-2.00403e-06
5.60807e-07
-2.06989e-06
4.71055e-07
-2.12245e-06
3.75187e-07
-2.16109e-06
2.74399e-07
-2.18534e-06
1.69917e-07
-2.19487e-06
6.29968e-08
-2.18953e-06
-4.50793e-08
-2.16931e-06
-1.52998e-07
-2.13436e-06
-2.5942e-07
-2.085e-06
-3.62979e-07
-2.02173e-06
-4.6229e-07
-1.94521e-06
-5.55956e-07
-1.85629e-06
-6.42578e-07
-1.756e-06
-7.20771e-07
-1.64553e-06
-7.89181e-07
-1.52627e-06
-8.4651e-07
-1.39977e-06
-8.91541e-07
-1.26775e-06
-9.23168e-07
-1.13206e-06
-9.40431e-07
-9.94695e-07
-9.42557e-07
-8.57767e-07
-9.28996e-07
-7.23463e-07
-8.99469e-07
-5.94031e-07
-8.54009e-07
-4.71744e-07
-7.93008e-07
-3.58875e-07
-7.17261e-07
-2.57661e-07
-6.28006e-07
-1.70284e-07
-5.26965e-07
-9.88486e-08
-4.16374e-07
-4.53748e-08
-2.98993e-07
-1.18013e-08
-1.7809e-07
-5.76039e-08
-1.34117e-08
7.45213e-08
-5.10624e-08
2.23486e-07
-1.10392e-07
3.67821e-07
-1.88861e-07
5.03991e-07
-2.8395e-07
6.29197e-07
-3.93161e-07
7.41187e-07
-5.14026e-07
8.3824e-07
-6.44116e-07
9.19135e-07
-7.81052e-07
9.831e-07
-9.22525e-07
1.02976e-06
-1.06631e-06
1.05906e-06
-1.21026e-06
1.07126e-06
-1.35237e-06
1.06684e-06
-1.49072e-06
1.04649e-06
-1.62354e-06
1.01104e-06
-1.74917e-06
9.6146e-07
-1.86612e-06
8.98809e-07
-1.97303e-06
8.24225e-07
-2.06865e-06
7.38904e-07
-2.15193e-06
6.44087e-07
-2.22194e-06
5.41057e-07
-2.27788e-06
4.31126e-07
-2.31912e-06
3.15639e-07
-2.34517e-06
1.95971e-07
-2.3557e-06
7.35278e-08
-2.35053e-06
-5.0252e-08
-2.32963e-06
-1.73897e-07
-2.29314e-06
-2.95904e-07
-2.24138e-06
-4.1474e-07
-2.17483e-06
-5.28843e-07
-2.09415e-06
-6.36639e-07
-2.00018e-06
-7.36544e-07
-1.89397e-06
-8.26984e-07
-1.77673e-06
-9.06417e-07
-1.64989e-06
-9.73352e-07
-1.51504e-06
-1.02639e-06
-1.37398e-06
-1.06423e-06
-1.22865e-06
-1.08576e-06
-1.08116e-06
-1.09005e-06
-9.33747e-07
-1.0764e-06
-7.88777e-07
-1.04444e-06
-6.48684e-07
-9.94103e-07
-5.1596e-07
-9.25733e-07
-3.93119e-07
-8.40102e-07
-2.82665e-07
-7.3846e-07
-1.87064e-07
-6.22565e-07
-1.08719e-07
-4.94719e-07
-4.99536e-08
-3.57759e-07
-1.3e-08
-2.15043e-07
-7.06039e-08
-1.45856e-08
8.91068e-08
-5.54984e-08
2.64399e-07
-1.19887e-07
4.32209e-07
-2.0491e-07
5.89014e-07
-3.0775e-07
7.32036e-07
-4.25623e-07
8.5906e-07
-5.55798e-07
9.68414e-07
-6.95605e-07
1.05894e-06
-8.42456e-07
1.12995e-06
-9.93856e-07
1.18116e-06
-1.14742e-06
1.21262e-06
-1.30088e-06
1.22472e-06
-1.45211e-06
1.21807e-06
-1.59911e-06
1.19349e-06
-1.74004e-06
1.15197e-06
-1.8732e-06
1.09462e-06
-1.99703e-06
1.02264e-06
-2.11015e-06
9.37346e-07
-2.21131e-06
8.40065e-07
-2.29942e-06
7.32195e-07
-2.37353e-06
6.15166e-07
-2.43284e-06
4.90439e-07
-2.47671e-06
3.59506e-07
-2.50463e-06
2.23892e-07
-2.51626e-06
8.51509e-08
-2.51138e-06
-5.51247e-08
-2.48997e-06
-1.95307e-07
-2.45215e-06
-3.3373e-07
-2.3982e-06
-4.68691e-07
-2.32859e-06
-5.98455e-07
-2.24396e-06
-7.21262e-07
-2.14517e-06
-8.35339e-07
-2.03324e-06
-9.38916e-07
-1.90941e-06
-1.03025e-06
-1.77512e-06
-1.10764e-06
-1.63202e-06
-1.16949e-06
-1.48196e-06
-1.2143e-06
-1.32697e-06
-1.24075e-06
-1.16928e-06
-1.24774e-06
-1.01128e-06
-1.23441e-06
-8.55485e-07
-1.20023e-06
-7.0454e-07
-1.14505e-06
-5.61165e-07
-1.06911e-06
-4.28133e-07
-9.73135e-07
-3.08227e-07
-8.58365e-07
-2.04212e-07
-7.2658e-07
-1.18802e-07
-5.8013e-07
-5.46274e-08
-4.21933e-07
-1.42229e-08
-2.55448e-07
-8.48269e-08
-1.57712e-08
1.04878e-07
-5.99765e-08
3.08604e-07
-1.2947e-07
5.01703e-07
-2.21105e-07
6.80649e-07
-3.3176e-07
8.42692e-07
-4.58364e-07
9.85663e-07
-5.97911e-07
1.10796e-06
-7.47487e-07
1.20852e-06
-9.04286e-07
1.28675e-06
-1.06562e-06
1.34249e-06
-1.22895e-06
1.37595e-06
-1.39188e-06
1.38765e-06
-1.55217e-06
1.37836e-06
-1.70774e-06
1.34906e-06
-1.85667e-06
1.3009e-06
-1.99723e-06
1.23517e-06
-2.12783e-06
1.15325e-06
-2.24706e-06
1.05657e-06
-2.35366e-06
9.4666e-07
-2.44651e-06
8.25052e-07
-2.52468e-06
6.93331e-07
-2.58735e-06
5.53109e-07
-2.63386e-06
4.06022e-07
-2.66371e-06
2.53742e-07
-2.67653e-06
9.79695e-08
-2.6721e-06
-5.95538e-08
-2.65036e-06
-2.17047e-07
-2.61141e-06
-3.72683e-07
-2.55551e-06
-5.24595e-07
-2.48309e-06
-6.7087e-07
-2.39479e-06
-8.09563e-07
-2.29142e-06
-9.38707e-07
-2.17401e-06
-1.05633e-06
-2.04379e-06
-1.16046e-06
-1.90223e-06
-1.2492e-06
-1.751e-06
-1.32072e-06
-1.59201e-06
-1.37329e-06
-1.42737e-06
-1.40538e-06
-1.25944e-06
-1.41567e-06
-1.09072e-06
-1.40312e-06
-9.23939e-07
-1.36702e-06
-7.61931e-07
-1.30706e-06
-6.07664e-07
-1.22337e-06
-4.64181e-07
-1.11662e-06
-3.34563e-07
-9.87983e-07
-2.2189e-07
-8.39253e-07
-1.292e-07
-6.7282e-07
-5.9451e-08
-4.91682e-07
-1.54863e-08
-2.99412e-07
-1.00313e-07
-1.69788e-08
1.21857e-07
-6.45303e-08
3.56155e-07
-1.39205e-07
5.76377e-07
-2.37541e-07
7.78985e-07
-3.56107e-07
9.61258e-07
-4.9153e-07
1.12109e-06
-6.40526e-07
1.25696e-06
-7.99929e-07
1.36792e-06
-9.66706e-07
1.45353e-06
-1.13798e-06
1.51377e-06
-1.31105e-06
1.54902e-06
-1.48337e-06
1.55998e-06
-1.65262e-06
1.5476e-06
-1.81662e-06
1.51306e-06
-1.97342e-06
1.4577e-06
-2.12123e-06
1.38298e-06
-2.25844e-06
1.29046e-06
-2.38362e-06
1.18176e-06
-2.49551e-06
1.05855e-06
-2.59301e-06
9.22544e-07
-2.67515e-06
7.75473e-07
-2.74113e-06
6.19095e-07
-2.7903e-06
4.55192e-07
-2.82214e-06
2.85575e-07
-2.83626e-06
1.12088e-07
-2.83242e-06
-6.33861e-08
-2.81055e-06
-2.38917e-07
-2.77071e-06
-4.12526e-07
-2.71313e-06
-5.82179e-07
-2.6382e-06
-7.45793e-07
-2.54653e-06
-9.01236e-07
-2.43889e-06
-1.04634e-06
-2.3163e-06
-1.17892e-06
-2.17996e-06
-1.2968e-06
-2.03135e-06
-1.39782e-06
-1.87216e-06
-1.4799e-06
-1.70435e-06
-1.5411e-06
-1.53012e-06
-1.57961e-06
-1.35191e-06
-1.59388e-06
-1.17239e-06
-1.58264e-06
-9.94456e-07
-1.54496e-06
-8.21166e-07
-1.48035e-06
-6.55741e-07
-1.3888e-06
-5.01513e-07
-1.27085e-06
-3.61878e-07
-1.12762e-06
-2.40252e-07
-9.60879e-07
-1.40017e-07
-7.73054e-07
-6.4476e-08
-5.67223e-07
-1.68054e-08
-3.47083e-07
-1.17119e-07
-1.82174e-08
1.40074e-07
-6.91902e-08
4.07128e-07
-1.4915e-07
6.56337e-07
-2.54306e-07
8.84142e-07
-3.80902e-07
1.08785e-06
-5.25253e-07
1.26544e-06
-6.83785e-07
1.41549e-06
-8.53069e-07
1.53721e-06
-1.02984e-06
1.6303e-06
-1.21103e-06
1.69495e-06
-1.39376e-06
1.73175e-06
-1.57537e-06
1.74159e-06
-1.75342e-06
1.72565e-06
-1.92568e-06
1.68533e-06
-2.09014e-06
1.62216e-06
-2.24497e-06
1.53782e-06
-2.38857e-06
1.43405e-06
-2.51949e-06
1.31268e-06
-2.63648e-06
1.17554e-06
-2.73845e-06
1.02451e-06
-2.82444e-06
8.61469e-07
-2.89367e-06
6.88324e-07
-2.94547e-06
5.06996e-07
-2.97933e-06
3.19431e-07
-2.99485e-06
1.27606e-07
-2.99177e-06
-6.646e-08
-2.96999e-06
-2.60699e-07
-2.92953e-06
-4.52985e-07
-2.87058e-06
-6.41128e-07
-2.7935e-06
-8.22875e-07
-2.69883e-06
-9.9591e-07
-2.5873e-06
-1.15787e-06
-2.45989e-06
-1.30634e-06
-2.31778e-06
-1.43891e-06
-2.16243e-06
-1.55317e-06
-1.99554e-06
-1.6468e-06
-1.8191e-06
-1.71754e-06
-1.63537e-06
-1.76334e-06
-1.44691e-06
-1.78234e-06
-1.25653e-06
-1.77302e-06
-1.0673e-06
-1.73419e-06
-8.82515e-07
-1.66514e-06
-7.05656e-07
-1.56566e-06
-5.40362e-07
-1.43614e-06
-3.90366e-07
-1.27761e-06
-2.59442e-07
-1.0918e-06
-1.51346e-07
-8.81151e-07
-6.97514e-08
-6.48817e-07
-1.81946e-08
-3.9864e-07
-1.35313e-07
-1.9495e-08
1.59569e-07
-7.39838e-08
4.61617e-07
-1.59357e-07
7.41711e-07
-2.71478e-07
9.96262e-07
-4.06244e-07
1.22262e-06
-5.59645e-07
1.41884e-06
-7.27802e-07
1.58365e-06
-9.0701e-07
1.71641e-06
-1.09377e-06
1.81706e-06
-1.2848e-06
1.88599e-06
-1.47707e-06
1.92402e-06
-1.6678e-06
1.93231e-06
-1.85443e-06
1.91229e-06
-2.03469e-06
1.86558e-06
-2.20651e-06
1.79398e-06
-2.36807e-06
1.69937e-06
-2.51774e-06
1.58373e-06
-2.65411e-06
1.44905e-06
-2.77593e-06
1.29736e-06
-2.88213e-06
1.13071e-06
-2.9718e-06
9.51133e-07
-3.04414e-06
7.6067e-07
-3.09852e-06
5.61377e-07
-3.13442e-06
3.55326e-07
-3.15143e-06
1.44616e-07
-3.14928e-06
-6.86082e-08
-3.12783e-06
-2.82152e-07
-3.08706e-06
-4.93753e-07
-3.02711e-06
-7.01075e-07
-2.94829e-06
-9.01701e-07
-2.85106e-06
-1.09314e-06
-2.73611e-06
-1.27281e-06
-2.60435e-06
-1.4381e-06
-2.45691e-06
-1.58634e-06
-2.29522e-06
-1.71486e-06
-2.12098e-06
-1.82104e-06
-1.93619e-06
-1.90233e-06
-1.74317e-06
-1.95636e-06
-1.54456e-06
-1.98095e-06
-1.34332e-06
-1.97426e-06
-1.14269e-06
-1.93481e-06
-9.46207e-07
-1.86162e-06
-7.57638e-07
-1.75423e-06
-5.8094e-07
-1.61284e-06
-4.20206e-07
-1.43835e-06
-2.79599e-07
-1.23241e-06
-1.63278e-07
-9.97472e-07
-7.5324e-08
-7.36771e-07
-1.96674e-08
-4.54296e-07
-1.54981e-07
-2.08192e-08
1.80389e-07
-7.89367e-08
5.19734e-07
-1.69877e-07
8.32651e-07
-2.89129e-07
1.11551e-06
-4.32224e-07
1.36572e-06
-5.94803e-07
1.58142e-06
-7.72665e-07
1.76151e-06
-9.61821e-07
1.90557e-06
-1.15852e-06
2.01376e-06
-1.35928e-06
2.08675e-06
-1.56091e-06
2.12565e-06
-1.76049e-06
2.13189e-06
-1.95539e-06
2.10719e-06
-2.14328e-06
2.05347e-06
-2.32207e-06
1.97277e-06
-2.48994e-06
1.86724e-06
-2.64527e-06
1.73906e-06
-2.78668e-06
1.59046e-06
-2.91297e-06
1.42365e-06
-3.02309e-06
1.24083e-06
-3.11616e-06
1.04421e-06
-3.19143e-06
8.35945e-07
-3.24829e-06
6.18228e-07
-3.2862e-06
3.93241e-07
-3.30478e-06
1.63194e-07
-3.30373e-06
-6.96608e-08
-3.28286e-06
-3.03014e-07
-3.24213e-06
-5.34482e-07
-3.18161e-06
-7.61594e-07
-3.10153e-06
-9.81782e-07
-3.0023e-06
-1.19238e-06
-2.8845e-06
-1.39061e-06
-2.74896e-06
-1.57364e-06
-2.59677e-06
-1.73853e-06
-2.42928e-06
-1.88235e-06
-2.24817e-06
-2.00216e-06
-2.05543e-06
-2.09507e-06
-1.85342e-06
-2.15837e-06
-1.64485e-06
-2.18951e-06
-1.43282e-06
-2.18629e-06
-1.22076e-06
-2.14688e-06
-1.01242e-06
-2.06995e-06
-8.11882e-07
-1.95477e-06
-6.23435e-07
-1.80128e-06
-4.51564e-07
-1.61022e-06
-3.00852e-07
-1.38312e-06
-1.759e-07
-1.12242e-06
-8.12385e-08
-8.31432e-07
-2.12373e-08
-5.14297e-07
-1.76218e-07
-2.21974e-08
2.02586e-07
-8.4074e-08
5.81611e-07
-1.80755e-07
9.29332e-07
-3.07325e-07
1.24208e-06
-4.58921e-07
1.51731e-06
-6.30808e-07
1.7533e-06
-8.18444e-07
1.94915e-06
-1.01754e-06
2.10466e-06
-1.22408e-06
2.2203e-06
-1.43438e-06
2.29705e-06
-1.64508e-06
2.33635e-06
-1.85316e-06
2.33996e-06
-2.0559e-06
2.30994e-06
-2.25094e-06
2.2485e-06
-2.43617e-06
2.15801e-06
-2.6098e-06
2.04086e-06
-2.77025e-06
1.89951e-06
-2.91618e-06
1.73639e-06
-3.04644e-06
1.55391e-06
-3.16004e-06
1.35444e-06
-3.25617e-06
1.14033e-06
-3.3341e-06
9.1388e-07
-3.39326e-06
6.77379e-07
-3.43313e-06
4.33116e-07
-3.45333e-06
1.83392e-07
-3.45354e-06
-6.94493e-08
-3.43355e-06
-3.23003e-07
-3.39325e-06
-5.74781e-07
-3.33265e-06
-8.22196e-07
-3.25189e-06
-1.06254e-06
-3.15128e-06
-1.29298e-06
-3.03132e-06
-1.51057e-06
-2.89274e-06
-1.71222e-06
-2.73651e-06
-1.89476e-06
-2.56391e-06
-2.05495e-06
-2.37655e-06
-2.18951e-06
-2.17641e-06
-2.29521e-06
-1.96586e-06
-2.36892e-06
-1.74767e-06
-2.4077e-06
-1.52503e-06
-2.40893e-06
-1.30157e-06
-2.37034e-06
-1.08129e-06
-2.29023e-06
-8.68546e-07
-2.16751e-06
-6.68014e-07
-2.00182e-06
-4.84592e-07
-1.79364e-06
-3.23322e-07
-1.54439e-06
-1.89295e-07
-1.25645e-06
-8.75389e-08
-9.33188e-07
-2.29172e-08
-5.78919e-07
-1.99135e-07
-2.36372e-08
2.26223e-07
-8.94211e-08
6.47395e-07
-1.9204e-07
1.03195e-06
-3.26135e-07
1.37618e-06
-4.86413e-07
1.67759e-06
-6.67733e-07
1.93462e-06
-8.65188e-07
2.1466e-06
-1.07416e-06
2.31364e-06
-1.29039e-06
2.43652e-06
-1.50995e-06
2.51662e-06
-1.72934e-06
2.55574e-06
-1.94542e-06
2.55604e-06
-2.15544e-06
2.51995e-06
-2.35698e-06
2.45005e-06
-2.54797e-06
2.349e-06
-2.72666e-06
2.21954e-06
-2.89152e-06
2.06437e-06
-3.04129e-06
1.88616e-06
-3.17489e-06
1.68751e-06
-3.29143e-06
1.47098e-06
-3.39013e-06
1.23904e-06
-3.47036e-06
9.9411e-07
-3.53157e-06
7.38587e-07
-3.57329e-06
4.74835e-07
-3.59513e-06
2.05231e-07
-3.59677e-06
-6.78124e-08
-3.57795e-06
-3.41818e-07
-3.53852e-06
-6.14216e-07
-3.47839e-06
-8.82321e-07
-3.39762e-06
-1.14331e-06
-3.29641e-06
-1.3942e-06
-3.17512e-06
-1.63186e-06
-3.03436e-06
-1.85299e-06
-2.87497e-06
-2.05415e-06
-2.69813e-06
-2.23179e-06
-2.50536e-06
-2.38229e-06
-2.29855e-06
-2.50201e-06
-2.08008e-06
-2.5874e-06
-1.85274e-06
-2.63505e-06
-1.61982e-06
-2.64184e-06
-1.38512e-06
-2.60505e-06
-1.15287e-06
-2.52249e-06
-9.27748e-07
-2.39263e-06
-7.14818e-07
-2.21475e-06
-5.19428e-07
-1.98903e-06
-3.47127e-07
-1.71669e-06
-2.03544e-07
-1.40003e-06
-9.42691e-08
-1.04246e-06
-2.47203e-08
-6.48468e-07
-2.23855e-07
-2.51469e-08
2.5137e-07
-9.50059e-08
7.17254e-07
-2.03782e-07
1.14073e-06
-3.45629e-07
1.51803e-06
-5.14777e-07
1.84674e-06
-7.05646e-07
2.12549e-06
-9.1293e-07
2.35389e-06
-1.13167e-06
2.53238e-06
-1.35733e-06
2.66218e-06
-1.58577e-06
2.74506e-06
-1.81333e-06
2.7833e-06
-2.03678e-06
2.77949e-06
-2.25332e-06
2.73649e-06
-2.46055e-06
2.65728e-06
-2.65644e-06
2.5449e-06
-2.83928e-06
2.40239e-06
-3.00767e-06
2.23276e-06
-3.16042e-06
2.03891e-06
-3.29658e-06
1.82367e-06
-3.41533e-06
1.58973e-06
-3.51601e-06
1.33972e-06
-3.59806e-06
1.07616e-06
-3.66098e-06
8.01512e-07
-3.70436e-06
5.18215e-07
-3.72782e-06
2.28691e-07
-3.73103e-06
-6.46028e-08
-3.7137e-06
-3.59143e-07
-3.67561e-06
-6.52307e-07
-3.6166e-06
-9.41336e-07
-3.53659e-06
-1.22331e-06
-3.43566e-06
-1.49513e-06
-3.31404e-06
-1.75349e-06
-3.17215e-06
-1.99488e-06
-3.01069e-06
-2.2156e-06
-2.83069e-06
-2.41179e-06
-2.63353e-06
-2.57945e-06
-2.42102e-06
-2.71452e-06
-2.19544e-06
-2.81297e-06
-1.95963e-06
-2.87086e-06
-1.71693e-06
-2.88453e-06
-1.47128e-06
-2.8507e-06
-1.22716e-06
-2.76661e-06
-9.89564e-07
-2.63022e-06
-7.63965e-07
-2.44034e-06
-5.56202e-07
-2.19679e-06
-3.72379e-07
-1.90052e-06
-2.1873e-07
-1.55368e-06
-1.01474e-07
-1.15972e-06
-2.66605e-08
-7.23281e-07
-2.50516e-07
-2.67362e-08
2.78106e-07
-1.00861e-07
7.91378e-07
-2.16041e-07
1.25591e-06
-3.65885e-07
1.66787e-06
-5.44099e-07
2.02495e-06
-7.44615e-07
2.32601e-06
-9.61696e-07
2.57097e-06
-1.19002e-06
2.76071e-06
-1.42475e-06
2.89691e-06
-1.66155e-06
2.98186e-06
-1.89659e-06
3.01834e-06
-2.12659e-06
3.00948e-06
-2.34871e-06
2.95861e-06
-2.5606e-06
2.86916e-06
-2.76029e-06
2.74459e-06
-2.94619e-06
2.58829e-06
-3.117e-06
2.40357e-06
-3.27168e-06
2.19359e-06
-3.40939e-06
1.96138e-06
-3.52947e-06
1.70981e-06
-3.63137e-06
1.44161e-06
-3.71462e-06
1.15941e-06
-3.77882e-06
8.65709e-07
-3.82359e-06
5.62991e-07
-3.8486e-06
2.53699e-07
-3.85351e-06
-5.96949e-08
-3.838e-06
-3.74655e-07
-3.80177e-06
-6.88533e-07
-3.74458e-06
-9.98534e-07
-3.66622e-06
-1.30167e-06
-3.5666e-06
-1.59474e-06
-3.44579e-06
-1.8743e-06
-3.30403e-06
-2.13664e-06
-3.14182e-06
-2.37782e-06
-2.95997e-06
-2.59363e-06
-2.75971e-06
-2.77972e-06
-2.54269e-06
-2.93154e-06
-2.31111e-06
-3.04455e-06
-2.06773e-06
-3.11424e-06
-1.81596e-06
-3.13631e-06
-1.55985e-06
-3.10682e-06
-1.30409e-06
-3.02237e-06
-1.05402e-06
-2.88029e-06
-8.15548e-07
-2.67882e-06
-5.95031e-07
-2.41731e-06
-3.99191e-07
-2.09636e-06
-2.34937e-07
-1.71794e-06
-1.09201e-07
-1.28546e-06
-2.87524e-08
-8.03729e-07
-2.79268e-07
-2.8417e-08
3.06523e-07
-1.07024e-07
8.69985e-07
-2.28885e-07
1.37777e-06
-3.86997e-07
1.82598e-06
-5.74478e-07
2.21243e-06
-7.84717e-07
2.53625e-06
-1.01151e-06
2.79776e-06
-1.24914e-06
2.99834e-06
-1.49246e-06
3.14023e-06
-1.73692e-06
3.22632e-06
-1.97858e-06
3.26e-06
-2.21407e-06
3.24498e-06
-2.4406e-06
3.18514e-06
-2.65587e-06
3.08443e-06
-2.85803e-06
2.94675e-06
-3.04562e-06
2.77588e-06
-3.2175e-06
2.57545e-06
-3.37281e-06
2.3489e-06
-3.51089e-06
2.09945e-06
-3.63121e-06
1.83014e-06
-3.73339e-06
1.54379e-06
-3.81708e-06