/*--------------------------------*- C++ -*----------------------------------*\
  =========                 |
  \\      /  F ield         | OpenFOAM: The Open Source CFD Toolbox
   \\    /   O peration     | Website:  https://openfoam.org
    \\  /    A nd           | Version:  7
     \\/     M anipulation  |
\*---------------------------------------------------------------------------*/
FoamFile
{
    version     2.0;
    format      ascii;
    class       volVectorField;
    location    "0.0258";
    object      U;
}
// * * * * * * * * * * * * * * * * * * * * * * * * * * * * * * * * * * * * * //

dimensions      [0 1 -1 0 0 0 0];

internalField   nonuniform List<vector> 
2500
(
(0.290267 -0.152427 0)
(0.389582 -0.128253 0)
(0.565483 -0.0747401 0)
(0.683283 -0.0422217 0)
(0.752801 -0.0245035 0)
(0.797694 -0.014847 0)
(0.828701 -0.00952679 0)
(0.850982 -0.00649407 0)
(0.867573 -0.00466365 0)
(0.880306 -0.00348519 0)
(0.890295 -0.00268004 0)
(0.898256 -0.00210239 0)
(0.904674 -0.00167198 0)
(0.909889 -0.00134204 0)
(0.914148 -0.00108366 0)
(0.917639 -0.000877895 0)
(0.920502 -0.000711752 0)
(0.922848 -0.000575922 0)
(0.924764 -0.000463499 0)
(0.926315 -0.000369192 0)
(0.927557 -0.000288835 0)
(0.928528 -0.000219045 0)
(0.929261 -0.000156996 0)
(0.929778 -0.000100246 0)
(0.930093 -4.66107e-05 0)
(0.930215 5.93568e-06 0)
(0.930145 5.93394e-05 0)
(0.929876 0.000115605 0)
(0.929397 0.000176823 0)
(0.928687 0.000245294 0)
(0.92772 0.00032366 0)
(0.926457 0.000415063 0)
(0.924851 0.000523369 0)
(0.922838 0.000653496 0)
(0.920338 0.000811894 0)
(0.917249 0.0010073 0)
(0.913435 0.00125194 0)
(0.90872 0.00156363 0)
(0.902866 0.00196945 0)
(0.895544 0.00251286 0)
(0.886284 0.00326789 0)
(0.874389 0.00436889 0)
(0.858767 0.00607453 0)
(0.837613 0.00890567 0)
(0.80787 0.0139225 0)
(0.764262 0.0232172 0)
(0.695853 0.0407525 0)
(0.577947 0.0737407 0)
(0.398076 0.128752 0)
(0.293883 0.153799 0)
(0.00110435 -0.294937 0)
(0.016898 -0.298655 0)
(0.152327 -0.212994 0)
(0.282728 -0.145212 0)
(0.387656 -0.0994412 0)
(0.470529 -0.0695291 0)
(0.535507 -0.0501049 0)
(0.586457 -0.0372488 0)
(0.626741 -0.0284488 0)
(0.658935 -0.022202 0)
(0.684922 -0.0176168 0)
(0.706075 -0.0141534 0)
(0.723409 -0.0114747 0)
(0.737684 -0.00936266 0)
(0.749479 -0.00767114 0)
(0.759244 -0.00629844 0)
(0.767328 -0.00517148 0)
(0.774008 -0.00423617 0)
(0.779505 -0.00345125 0)
(0.783994 -0.00278445 0)
(0.787613 -0.00220986 0)
(0.790472 -0.00170607 0)
(0.792653 -0.00125493 0)
(0.794217 -0.000840556 0)
(0.795204 -0.000448614 0)
(0.795637 -6.56725e-05 0)
(0.795519 0.000321314 0)
(0.794838 0.000725564 0)
(0.79356 0.00116097 0)
(0.791635 0.00164275 0)
(0.788988 0.00218817 0)
(0.785523 0.00281754 0)
(0.781111 0.00355548 0)
(0.775589 0.00443283 0)
(0.76875 0.00548922 0)
(0.760329 0.00677712 0)
(0.749987 0.00836787 0)
(0.737285 0.0103615 0)
(0.721649 0.0129024 0)
(0.702312 0.0162071 0)
(0.678239 0.0206116 0)
(0.648004 0.0266578 0)
(0.609619 0.0352511 0)
(0.560303 0.0479441 0)
(0.496314 0.0673967 0)
(0.413177 0.0979135 0)
(0.305978 0.145606 0)
(0.170381 0.217202 0)
(0.0268788 0.307172 0)
(0.00519254 0.303034 0)
(-0.0329083 -0.250456 0)
(-0.0616007 -0.34405 0)
(-0.0116313 -0.310431 0)
(0.0704035 -0.251146 0)
(0.158097 -0.195404 0)
(0.240064 -0.150607 0)
(0.311942 -0.116708 0)
(0.373065 -0.0914465 0)
(0.424357 -0.0725305 0)
(0.467193 -0.0581806 0)
(0.502935 -0.0471218 0)
(0.532783 -0.0384626 0)
(0.557743 -0.0315819 0)
(0.578639 -0.0260423 0)
(0.596142 -0.0215309 0)
(0.610799 -0.0178187 0)
(0.623054 -0.0147349 0)
(0.63327 -0.012149 0)
(0.641742 -0.009959 0)
(0.648708 -0.00808335 0)
(0.654363 -0.00645539 0)
(0.658859 -0.00501922 0)
(0.662314 -0.00372676 0)
(0.664814 -0.0025355 0)
(0.66642 -0.00140666 0)
(0.667162 -0.00030367 0)
(0.667046 0.000809145 0)
(0.666053 0.00196792 0)
(0.664135 0.00321064 0)
(0.661219 0.00457867 0)
(0.657197 0.00611865 0)
(0.651928 0.00788488 0)
(0.645231 0.00994243 0)
(0.636876 0.0123715 0)
(0.626573 0.0152736 0)
(0.613963 0.0187799 0)
(0.598595 0.0230644 0)
(0.579904 0.0283629 0)
(0.557182 0.0350016 0)
(0.529538 0.0434417 0)
(0.495855 0.0543462 0)
(0.454759 0.0686799 0)
(0.404616 0.0878467 0)
(0.343658 0.113846 0)
(0.270438 0.149324 0)
(0.185066 0.197048 0)
(0.0915575 0.257551 0)
(0.00151031 0.322979 0)
(-0.0570321 0.361397 0)
(-0.0321789 0.263987 0)
(-0.0267744 -0.19067 0)
(-0.0655116 -0.33289 0)
(-0.0648757 -0.351067 0)
(-0.0282619 -0.318426 0)
(0.0282718 -0.270769 0)
(0.0916515 -0.223849 0)
(0.15415 -0.183166 0)
(0.212016 -0.149642 0)
(0.263759 -0.122554 0)
(0.309114 -0.100772 0)
(0.348406 -0.0832146 0)
(0.382206 -0.0689795 0)
(0.411151 -0.0573539 0)
(0.435857 -0.0477876 0)
(0.456886 -0.0398571 0)
(0.474734 -0.0332348 0)
(0.489828 -0.0276645 0)
(0.502535 -0.022943 0)
(0.513163 -0.0189066 0)
(0.521968 -0.0154207 0)
(0.529163 -0.0123729 0)
(0.534918 -0.0096671 0)
(0.539367 -0.00721914 0)
(0.542609 -0.00495364 0)
(0.544712 -0.00280106 0)
(0.54571 -0.000695307 0)
(0.545609 0.00142845 0)
(0.544386 0.00363597 0)
(0.541983 0.00599625 0)
(0.538311 0.00858399 0)
(0.533245 0.0114827 0)
(0.52662 0.0147885 0)
(0.518227 0.0186149 0)
(0.507805 0.023099 0)
(0.495037 0.0284107 0)
(0.479534 0.034764 0)
(0.460832 0.0424331 0)
(0.438375 0.0517751 0)
(0.411512 0.0632595 0)
(0.379494 0.0775078 0)
(0.341501 0.0953401 0)
(0.29671 0.117819 0)
(0.244475 0.146256 0)
(0.184692 0.182087 0)
(0.118503 0.226385 0)
(0.0495552 0.278477 0)
(-0.0141278 0.332614 0)
(-0.0583433 0.371499 0)
(-0.0648572 0.355556 0)
(-0.0273116 0.204731 0)
(-0.0178686 -0.149161 0)
(-0.0532844 -0.302591 0)
(-0.0741828 -0.354038 0)
(-0.067742 -0.348836 0)
(-0.0393473 -0.317567 0)
(0.00179941 -0.27768 0)
(0.048489 -0.237764 0)
(0.0959921 -0.201454 0)
(0.141496 -0.169872 0)
(0.183527 -0.142992 0)
(0.221463 -0.120336 0)
(0.255181 -0.101304 0)
(0.284828 -0.0853114 0)
(0.310688 -0.0718437 0)
(0.333099 -0.060464 0)
(0.352409 -0.0508088 0)
(0.36895 -0.0425767 0)
(0.383026 -0.0355171 0)
(0.394908 -0.0294199 0)
(0.404832 -0.0241068 0)
(0.412996 -0.0194244 0)
(0.419566 -0.0152386 0)
(0.424671 -0.0114295 0)
(0.428409 -0.00788785 0)
(0.430845 -0.00451168 0)
(0.432016 -0.00120305 0)
(0.431922 0.00213462 0)
(0.430537 0.00559946 0)
(0.427798 0.00929411 0)
(0.423611 0.013329 0)
(0.417846 0.0178263 0)
(0.410332 0.0229246 0)
(0.400859 0.0287842 0)
(0.389171 0.0355951 0)
(0.374967 0.0435855 0)
(0.357892 0.0530336 0)
(0.337547 0.0642818 0)
(0.313489 0.0777532 0)
(0.285254 0.0939698 0)
(0.252393 0.113566 0)
(0.214557 0.137286 0)
(0.171635 0.16594 0)
(0.124009 0.200253 0)
(0.0729642 0.240502 0)
(0.0212883 0.285713 0)
(-0.0259725 0.332067 0)
(-0.0608155 0.370015 0)
(-0.0726764 0.379956 0)
(-0.054582 0.327469 0)
(-0.0186824 0.162285 0)
(-0.011464 -0.120789 0)
(-0.040528 -0.269267 0)
(-0.0686088 -0.338737 0)
(-0.0792681 -0.355123 0)
(-0.0713623 -0.341037 0)
(-0.0496669 -0.312037 0)
(-0.0193484 -0.277537 0)
(0.0153532 -0.242705 0)
(0.0513527 -0.210081 0)
(0.086615 -0.180706 0)
(0.119915 -0.154829 0)
(0.150595 -0.132306 0)
(0.178367 -0.112828 0)
(0.203176 -0.0960307 0)
(0.225106 -0.0815549 0)
(0.244318 -0.0690666 0)
(0.261007 -0.0582665 0)
(0.275379 -0.0488899 0)
(0.287633 -0.0407036 0)
(0.297955 -0.0335018 0)
(0.306507 -0.0271014 0)
(0.313428 -0.0213374 0)
(0.318831 -0.0160591 0)
(0.3228 -0.0111266 0)
(0.325393 -0.00640702 0)
(0.326636 -0.00177181 0)
(0.32653 0.00290676 0)
(0.325044 0.00775858 0)
(0.322116 0.012919 0)
(0.317653 0.0185327 0)
(0.311533 0.0247575 0)
(0.303596 0.0317693 0)
(0.293654 0.0397673 0)
(0.281485 0.0489812 0)
(0.266836 0.0596774 0)
(0.249434 0.0721677 0)
(0.228996 0.0868164 0)
(0.205252 0.104045 0)
(0.177983 0.12433 0)
(0.147091 0.14818 0)
(0.112701 0.176085 0)
(0.0753265 0.208384 0)
(0.0361026 0.245012 0)
(-0.00289874 0.285021 0)
(-0.0383346 0.325734 0)
(-0.065391 0.361395 0)
(-0.0779878 0.381243 0)
(-0.0702458 0.367429 0)
(-0.0426027 0.294207 0)
(-0.0122299 0.132646 0)
(-0.00752216 -0.100632 0)
(-0.0307709 -0.238562 0)
(-0.059568 -0.315981 0)
(-0.0787471 -0.347127 0)
(-0.08418 -0.347605 0)
(-0.0773596 -0.329948 0)
(-0.0612809 -0.302943 0)
(-0.0390764 -0.272229 0)
(-0.013449 -0.241154 0)
(0.0135266 -0.211548 0)
(0.0403879 -0.184298 0)
(0.0661729 -0.159731 0)
(0.09029 -0.137868 0)
(0.112416 -0.118561 0)
(0.13241 -0.101587 0)
(0.15025 -0.0866929 0)
(0.165989 -0.0736233 0)
(0.179719 -0.0621316 0)
(0.191554 -0.0519863 0)
(0.201614 -0.0429727 0)
(0.210011 -0.0348916 0)
(0.216846 -0.0275579 0)
(0.222203 -0.0207981 0)
(0.226147 -0.0144472 0)
(0.22872 -0.00834639 0)
(0.229939 -0.00234014 0)
(0.2298 0.00372698 0)
(0.228271 0.0100131 0)
(0.225294 0.0166826 0)
(0.220787 0.023909 0)
(0.214641 0.0318793 0)
(0.206726 0.0407976 0)
(0.196887 0.0508893 0)
(0.184957 0.0624054 0)
(0.170757 0.0756257 0)
(0.154119 0.0908611 0)
(0.134898 0.108451 0)
(0.113014 0.128753 0)
(0.0884957 0.152119 0)
(0.0615589 0.178842 0)
(0.0327086 0.209059 0)
(0.00287779 0.242577 0)
(-0.0264052 0.278572 0)
(-0.0528513 0.31512 0)
(-0.0733372 0.348483 0)
(-0.0840967 0.372176 0)
(-0.0813646 0.375963 0)
(-0.0629839 0.34528 0)
(-0.0330873 0.262278 0)
(-0.00817923 0.111129 0)
(-0.00519517 -0.0857781 0)
(-0.0239187 -0.211762 0)
(-0.0509425 -0.291016 0)
(-0.0737179 -0.331201 0)
(-0.0872207 -0.342734 0)
(-0.0909527 -0.335154 0)
(-0.0861838 -0.315986 0)
(-0.0748778 -0.290638 0)
(-0.0590825 -0.262739 0)
(-0.0405945 -0.234573 0)
(-0.0208407 -0.207487 0)
(-0.0008812 -0.182208 0)
(0.0185376 -0.159065 0)
(0.03692 -0.138143 0)
(0.0539591 -0.119381 0)
(0.069485 -0.102637 0)
(0.0834223 -0.0877274 0)
(0.0957591 -0.0744489 0)
(0.106523 -0.062593 0)
(0.115762 -0.0519533 0)
(0.123535 -0.0423291 0)
(0.1299 -0.0335264 0)
(0.134908 -0.0253577 0)
(0.138597 -0.017641 0)
(0.140993 -0.0101978 0)
(0.142102 -0.00285139 0)
(0.141915 0.00457595 0)
(0.140399 0.0122651 0)
(0.137507 0.0204028 0)
(0.13317 0.0291847 0)
(0.127302 0.0388175 0)
(0.119808 0.049522 0)
(0.11058 0.0615348 0)
(0.099513 0.075109 0)
(0.0865155 0.0905131 0)
(0.0715258 0.108025 0)
(0.0545404 0.127922 0)
(0.0356508 0.150451 0)
(0.0150942 0.175795 0)
(-0.00667917 0.203989 0)
(-0.0289231 0.234806 0)
(-0.0505021 0.267568 0)
(-0.0698078 0.300859 0)
(-0.0847279 0.332134 0)
(-0.0927568 0.357211 0)
(-0.0913788 0.36974 0)
(-0.0788042 0.360857 0)
(-0.0552772 0.319419 0)
(-0.0262554 0.233563 0)
(-0.00575692 0.0949379 0)
(-0.00380281 -0.0743599 0)
(-0.0191764 -0.188639 0)
(-0.0437465 -0.266249 0)
(-0.0675298 -0.311264 0)
(-0.0856146 -0.330539 0)
(-0.0964774 -0.331123 0)
(-0.100214 -0.31914 0)
(-0.0978102 -0.299417 0)
(-0.0906285 -0.275493 0)
(-0.0800546 -0.249824 0)
(-0.0673179 -0.224029 0)
(-0.053425 -0.199118 0)
(-0.039155 -0.17567 0)
(-0.025083 -0.15398 0)
(-0.0116149 -0.134148 0)
(0.000976237 -0.116151 0)
(0.0125181 -0.0998925 0)
(0.0229112 -0.0852273 0)
(0.0321069 -0.071985 0)
(0.0400901 -0.0599815 0)
(0.0468658 -0.0490263 0)
(0.0524488 -0.0389272 0)
(0.0568563 -0.0294922 0)
(0.0601019 -0.0205301 0)
(0.0621922 -0.01185 0)
(0.0631237 -0.00326079 0)
(0.0628811 0.00543076 0)
(0.0614367 0.0144213 0)
(0.0587513 0.0239128 0)
(0.0547751 0.0341139 0)
(0.0494509 0.0452413 0)
(0.0427193 0.0575204 0)
(0.0345253 0.071184 0)
(0.0248294 0.0864699 0)
(0.0136217 0.103614 0)
(0.000942244 0.122839 0)
(-0.013092 0.144331 0)
(-0.028252 0.168209 0)
(-0.0441529 0.194465 0)
(-0.0602032 0.222886 0)
(-0.0755502 0.252925 0)
(-0.0890367 0.283528 0)
(-0.0991893 0.312897 0)
(-0.104282 0.338202 0)
(-0.102543 0.355278 0)
(-0.0925824 0.358395 0)
(-0.0740359 0.340305 0)
(-0.0484717 0.292804 0)
(-0.0214339 0.208197 0)
(-0.00428934 0.0822521 0)
(-0.00293721 -0.0652097 0)
(-0.015855 -0.168584 0)
(-0.0380189 -0.242661 0)
(-0.0615477 -0.289585 0)
(-0.0820376 -0.313864 0)
(-0.0975451 -0.320632 0)
(-0.107452 -0.314735 0)
(-0.112022 -0.300289 0)
(-0.112023 -0.28054 0)
(-0.108414 -0.257914 0)
(-0.102155 -0.234136 0)
(-0.0941116 -0.210382 0)
(-0.0850093 -0.187413 0)
(-0.0754279 -0.165685 0)
(-0.0658125 -0.145439 0)
(-0.0564931 -0.126768 0)
(-0.0477059 -0.109659 0)
(-0.0396138 -0.0940345 0)
(-0.032325 -0.0797688 0)
(-0.0259077 -0.0667093 0)
(-0.0204028 -0.0546851 0)
(-0.0158339 -0.0435144 0)
(-0.0122148 -0.0330086 0)
(-0.00955519 -0.0229751 0)
(-0.00786533 -0.0132181 0)
(-0.00715843 -0.00353891 0)
(-0.00745252 0.00626397 0)
(-0.00877082 0.0163956 0)
(-0.0111409 0.0270652 0)
(-0.0145928 0.0384857 0)
(-0.0191546 0.0508739 0)
(-0.0248476 0.0644483 0)
(-0.0316772 0.0794257 0)
(-0.0396225 0.0960143 0)
(-0.0486206 0.114403 0)
(-0.058548 0.134744 0)
(-0.0691958 0.157123 0)
(-0.0802413 0.181524 0)
(-0.0912157 0.207764 0)
(-0.101472 0.235412 0)
(-0.11016 0.263678 0)
(-0.116225 0.291261 0)
(-0.118449 0.316177 0)
(-0.11556 0.335575 0)
(-0.106474 0.345588 0)
(-0.0906824 0.341308 0)
(-0.0687359 0.317018 0)
(-0.0428054 0.266818 0)
(-0.0179802 0.185786 0)
(-0.00336186 0.0719198 0)
(-0.0023735 -0.0576095 0)
(-0.0134772 -0.15098 0)
(-0.0335241 -0.220545 0)
(-0.0562419 -0.267413 0)
(-0.0778291 -0.294572 0)
(-0.0962587 -0.305748 0)
(-0.110526 -0.304716 0)
(-0.120406 -0.294892 0)
(-0.126199 -0.279138 0)
(-0.128484 -0.259719 0)
(-0.127944 -0.23835 0)
(-0.125264 -0.216275 0)
(-0.121063 -0.194361 0)
(-0.115875 -0.173181 0)
(-0.110138 -0.153084 0)
(-0.104198 -0.134258 0)
(-0.0983258 -0.116771 0)
(-0.092722 -0.100607 0)
(-0.0875359 -0.0856893 0)
(-0.0828753 -0.0719017 0)
(-0.0788171 -0.0590982 0)
(-0.0754159 -0.0471135 0)
(-0.0727112 -0.0357693 0)
(-0.0707327 -0.0248781 0)
(-0.0695043 -0.0142455 0)
(-0.0690468 -0.00367247 0)
(-0.0693793 0.00704414 0)
(-0.0705196 0.0181106 0)
(-0.0724827 0.0297356 0)
(-0.0752786 0.0421284 0)
(-0.0789083 0.0554971 0)
(-0.0833572 0.0700442 0)
(-0.0885873 0.0859606 0)
(-0.0945264 0.103416 0)
(-0.101054 0.122543 0)
(-0.107986 0.14342 0)
(-0.115052 0.166033 0)
(-0.121881 0.190241 0)
(-0.127976 0.215713 0)
(-0.132703 0.241854 0)
(-0.13529 0.267711 0)
(-0.134857 0.291858 0)
(-0.130482 0.312282 0)
(-0.121335 0.326283 0)
(-0.106901 0.330437 0)
(-0.0872973 0.320682 0)
(-0.0636024 0.292611 0)
(-0.0381625 0.242038 0)
(-0.015438 0.165847 0)
(-0.00274405 0.0632329 0)
(-0.00198906 -0.0511082 0)
(-0.011732 -0.135312 0)
(-0.0299939 -0.199893 0)
(-0.0517032 -0.245405 0)
(-0.0736247 -0.273854 0)
(-0.0938161 -0.287953 0)
(-0.111096 -0.290622 0)
(-0.124933 -0.284648 0)
(-0.135286 -0.27249 0)
(-0.142424 -0.25619 0)
(-0.146776 -0.237372 0)
(-0.148839 -0.217275 0)
(-0.149106 -0.196809 0)
(-0.148033 -0.176615 0)
(-0.146017 -0.157119 0)
(-0.143395 -0.138581 0)
(-0.14044 -0.121136 0)
(-0.137371 -0.104824 0)
(-0.134362 -0.0896147 0)
(-0.131545 -0.0754271 0)
(-0.129022 -0.0621435 0)
(-0.12687 -0.0496192 0)
(-0.125148 -0.0376908 0)
(-0.123901 -0.026181 0)
(-0.123164 -0.0149031 0)
(-0.122961 -0.00366304 0)
(-0.123311 0.00773755 0)
(-0.124226 0.0194998 0)
(-0.125709 0.031825 0)
(-0.127751 0.0449122 0)
(-0.130329 0.0589536 0)
(-0.133397 0.0741288 0)
(-0.136883 0.090597 0)
(-0.140674 0.108484 0)
(-0.14461 0.127866 0)
(-0.148469 0.148748 0)
(-0.151952 0.171027 0)
(-0.154675 0.194459 0)
(-0.156157 0.2186 0)
(-0.155826 0.242747 0)
(-0.153033 0.265858 0)
(-0.147101 0.286483 0)
(-0.137401 0.302689 0)
(-0.123485 0.312028 0)
(-0.105273 0.311563 0)
(-0.083293 0.298009 0)
(-0.0588883 0.268021 0)
(-0.0343504 0.218652 0)
(-0.0135089 0.14795 0)
(-0.00231026 0.0557473 0)
(-0.00171574 -0.0454121 0)
(-0.0104193 -0.121175 0)
(-0.0271998 -0.180581 0)
(-0.0478764 -0.223885 0)
(-0.0697009 -0.252456 0)
(-0.0908861 -0.268282 0)
(-0.1102 -0.27362 0)
(-0.126934 -0.270724 0)
(-0.140812 -0.261667 0)
(-0.151862 -0.248246 0)
(-0.1603 -0.231948 0)
(-0.166448 -0.213956 0)
(-0.170668 -0.195176 0)
(-0.173325 -0.176275 0)
(-0.174757 -0.157726 0)
(-0.175268 -0.139838 0)
(-0.175118 -0.122795 0)
(-0.174524 -0.106685 0)
(-0.173669 -0.091516 0)
(-0.172696 -0.0772421 0)
(-0.171722 -0.063773 0)
(-0.170839 -0.0509867 0)
(-0.170119 -0.0387373 0)
(-0.169616 -0.0268621 0)
(-0.169371 -0.0151856 0)
(-0.169411 -0.00352435 0)
(-0.169754 0.00831046 0)
(-0.170405 0.0205093 0)
(-0.171354 0.0332611 0)
(-0.172577 0.0467488 0)
(-0.17403 0.061144 0)
(-0.175645 0.0765996 0)
(-0.177321 0.0932398 0)
(-0.178922 0.111147 0)
(-0.180263 0.130343 0)
(-0.181105 0.150767 0)
(-0.181146 0.172246 0)
(-0.180018 0.194455 0)
(-0.177291 0.216877 0)
(-0.172481 0.238747 0)
(-0.165084 0.259006 0)
(-0.154623 0.276247 0)
(-0.140733 0.288687 0)
(-0.123274 0.294173 0)
(-0.102479 0.290244 0)
(-0.0791268 0.274285 0)
(-0.054654 0.243781 0)
(-0.0311911 0.196668 0)
(-0.0120019 0.131745 0)
(-0.00199108 0.0491734 0)
(-0.00151447 -0.0403231 0)
(-0.00940972 -0.108261 0)
(-0.0249646 -0.162451 0)
(-0.0446628 -0.202993 0)
(-0.0661571 -0.230836 0)
(-0.0878345 -0.247452 0)
(-0.108482 -0.254586 0)
(-0.127302 -0.254051 0)
(-0.143862 -0.247576 0)
(-0.158013 -0.236716 0)
(-0.1698 -0.222798 0)
(-0.179392 -0.206916 0)
(-0.187031 -0.189939 0)
(-0.192984 -0.172531 0)
(-0.197524 -0.15518 0)
(-0.200909 -0.138224 0)
(-0.203371 -0.121882 0)
(-0.205114 -0.106275 0)
(-0.206315 -0.0914446 0)
(-0.207121 -0.0773744 0)
(-0.207652 -0.0640002 0)
(-0.208009 -0.0512222 0)
(-0.208268 -0.038914 0)
(-0.208489 -0.0269292 0)
(-0.208716 -0.0151075 0)
(-0.208978 -0.00327888 0)
(-0.209287 0.00873145 0)
(-0.209641 0.0210995 0)
(-0.210022 0.0339975 0)
(-0.210392 0.0475891 0)
(-0.210692 0.0620225 0)
(-0.210836 0.0774218 0)
(-0.210709 0.0938769 0)
(-0.210158 0.111429 0)
(-0.20899 0.130053 0)
(-0.206967 0.149635 0)
(-0.203806 0.169947 0)
(-0.199176 0.190613 0)
(-0.192715 0.211074 0)
(-0.184042 0.230552 0)
(-0.172798 0.248014 0)
(-0.158692 0.262146 0)
(-0.141581 0.271353 0)
(-0.12156 0.273782 0)
(-0.0990743 0.267407 0)
(-0.0750381 0.250167 0)
(-0.0508846 0.220183 0)
(-0.0285428 0.176018 0)
(-0.0107947 0.116953 0)
(-0.00174702 0.0433144 0)
(-0.00136191 -0.035703 0)
(-0.00861783 -0.0963309 0)
(-0.0231565 -0.145349 0)
(-0.0419618 -0.182773 0)
(-0.0630103 -0.209274 0)
(-0.0848572 -0.225952 0)
(-0.106344 -0.23416 0)
(-0.126637 -0.235354 0)
(-0.145208 -0.230966 0)
(-0.161782 -0.222318 0)
(-0.176271 -0.210578 0)
(-0.18872 -0.196733 0)
(-0.199257 -0.18159 0)
(-0.208064 -0.165787 0)
(-0.215343 -0.149805 0)
(-0.2213 -0.133995 0)
(-0.226133 -0.118593 0)
(-0.230023 -0.103742 0)
(-0.233133 -0.0895109 0)
(-0.235604 -0.0759058 0)
(-0.237553 -0.0628856 0)
(-0.239081 -0.0503719 0)
(-0.240266 -0.0382574 0)
(-0.241168 -0.0264137 0)
(-0.241832 -0.0146972 0)
(-0.242283 -0.00295429 0)
(-0.242531 0.00897348 0)
(-0.242568 0.0212447 0)
(-0.242366 0.0340127 0)
(-0.241878 0.0474198 0)
(-0.241034 0.0615894 0)
(-0.239739 0.076618 0)
(-0.237867 0.0925631 0)
(-0.235265 0.10943 0)
(-0.231741 0.127156 0)
(-0.227075 0.145588 0)
(-0.221013 0.164461 0)
(-0.213277 0.183371 0)
(-0.203579 0.201751 0)
(-0.191647 0.218839 0)
(-0.177256 0.233666 0)
(-0.160278 0.245039 0)
(-0.140746 0.251561 0)
(-0.118927 0.251668 0)
(-0.095405 0.24371 0)
(-0.0711515 0.226078 0)
(-0.0475418 0.197374 0)
(-0.0263002 0.156602 0)
(-0.00980787 0.103355 0)
(-0.00155474 0.0380306 0)
(-0.00124357 -0.0314524 0)
(-0.0079866 -0.0852033 0)
(-0.021679 -0.129133 0)
(-0.039686 -0.163215 0)
(-0.0602431 -0.187931 0)
(-0.0820563 -0.204112 0)
(-0.104036 -0.21281 0)
(-0.125346 -0.215193 0)
(-0.145404 -0.212437 0)
(-0.163847 -0.205659 0)
(-0.180486 -0.195867 0)
(-0.195266 -0.183937 0)
(-0.208223 -0.1706 0)
(-0.219456 -0.15645 0)
(-0.229101 -0.141947 0)
(-0.237314 -0.127437 0)
(-0.244253 -0.113161 0)
(-0.25007 -0.099276 0)
(-0.25491 -0.0858659 0)
(-0.258898 -0.0729559 0)
(-0.262148 -0.0605241 0)
(-0.264752 -0.0485107 0)
(-0.266788 -0.0368273 0)
(-0.268312 -0.0253633 0)
(-0.269366 -0.0139928 0)
(-0.269972 -0.00258 0)
(-0.270136 0.00901569 0)
(-0.269844 0.0209339 0)
(-0.269061 0.033308 0)
(-0.267735 0.0462581 0)
(-0.265789 0.0598842 0)
(-0.263122 0.0742564 0)
(-0.25961 0.0894046 0)
(-0.255102 0.105306 0)
(-0.249423 0.121867 0)
(-0.242374 0.138911 0)
(-0.233743 0.156153 0)
(-0.223309 0.173185 0)
(-0.210865 0.189451 0)
(-0.196237 0.204235 0)
(-0.17932 0.216651 0)
(-0.160123 0.225641 0)
(-0.138815 0.230006 0)
(-0.115785 0.228441 0)
(-0.0916967 0.219618 0)
(-0.067533 0.202287 0)
(-0.0445853 0.175414 0)
(-0.0243866 0.138312 0)
(-0.00898915 0.0907754 0)
(-0.00139988 0.0332189 0)
(-0.00115017 -0.0274975 0)
(-0.00747721 -0.0747346 0)
(-0.0204627 -0.113677 0)
(-0.0377653 -0.144281 0)
(-0.057827 -0.166895 0)
(-0.0794843 -0.182151 0)
(-0.101719 -0.190872 0)
(-0.123711 -0.193991 0)
(-0.144849 -0.19247 0)
(-0.164714 -0.18724 0)
(-0.183044 -0.179163 0)
(-0.199701 -0.169001 0)
(-0.214646 -0.157405 0)
(-0.227909 -0.144911 0)
(-0.239565 -0.131949 0)
(-0.249719 -0.118846 0)
(-0.258491 -0.105839 0)
(-0.266002 -0.0930873 0)
(-0.272373 -0.0806845 0)
(-0.277716 -0.0686687 0)
(-0.28213 -0.0570326 0)
(-0.2857 -0.0457332 0)
(-0.288497 -0.0346987 0)
(-0.290573 -0.0238361 0)
(-0.291965 -0.0130373 0)
(-0.292692 -0.00218435 0)
(-0.292754 0.00884454 0)
(-0.292131 0.0201698 0)
(-0.290787 0.0319044 0)
(-0.288663 0.0441476 0)
(-0.285681 0.056977 0)
(-0.28174 0.0704404 0)
(-0.276722 0.0845447 0)
(-0.270485 0.0992452 0)
(-0.262876 0.114431 0)
(-0.253726 0.129911 0)
(-0.242866 0.1454 0)
(-0.230136 0.160498 0)
(-0.215403 0.174683 0)
(-0.198584 0.187299 0)
(-0.179678 0.197556 0)
(-0.158801 0.204536 0)
(-0.136226 0.207224 0)
(-0.112424 0.204548 0)
(-0.0880996 0.195445 0)
(-0.0642189 0.178952 0)
(-0.0419807 0.154305 0)
(-0.0227476 0.121037 0)
(-0.00830347 0.079067 0)
(-0.00127331 0.0287996 0)
(-0.00107558 -0.0237818 0)
(-0.00706302 -0.0648106 0)
(-0.0194575 -0.0988731 0)
(-0.0361456 -0.125919 0)
(-0.0557336 -0.146205 0)
(-0.0771679 -0.160212 0)
(-0.0994981 -0.168585 0)
(-0.121928 -0.172066 0)
(-0.143838 -0.171437 0)
(-0.164771 -0.167468 0)
(-0.18441 -0.160885 0)
(-0.202559 -0.152338 0)
(-0.219116 -0.142395 0)
(-0.234051 -0.131534 0)
(-0.247387 -0.120139 0)
(-0.259183 -0.108514 0)
(-0.269519 -0.0968807 0)
(-0.27849 -0.0853953 0)
(-0.286191 -0.0741535 0)
(-0.292715 -0.0632008 0)
(-0.298147 -0.0525412 0)
(-0.302564 -0.0421448 0)
(-0.306026 -0.0319551 0)
(-0.30858 -0.0218953 0)
(-0.310258 -0.0118744 0)
(-0.311072 -0.00179226 0)
(-0.311019 0.00845449 0)
(-0.310076 0.0189674 0)
(-0.308203 0.02984 0)
(-0.305339 0.0411521 0)
(-0.301407 0.0529619 0)
(-0.296311 0.0652982 0)
(-0.289941 0.0781511 0)
(-0.282171 0.0914616 0)
(-0.27287 0.10511 0)
(-0.261905 0.118904 0)
(-0.249149 0.132566 0)
(-0.2345 0.145725 0)
(-0.217893 0.157902 0)
(-0.199324 0.168514 0)
(-0.178879 0.17687 0)
(-0.156758 0.18219 0)
(-0.133309 0.183627 0)
(-0.109055 0.180311 0)
(-0.0847186 0.1714 0)
(-0.0612313 0.156155 0)
(-0.0397017 0.134015 0)
(-0.021345 0.104667 0)
(-0.00772715 0.0681062 0)
(-0.00116904 0.0247091 0)
(-0.00101572 -0.0202606 0)
(-0.00672564 -0.0553371 0)
(-0.0186277 -0.0846236 0)
(-0.0347867 -0.10807 0)
(-0.0539387 -0.125866 0)
(-0.0751213 -0.13838 0)
(-0.0974443 -0.146113 0)
(-0.12014 -0.149653 0)
(-0.142589 -0.149629 0)
(-0.164311 -0.146671 0)
(-0.184952 -0.141377 0)
(-0.204271 -0.134298 0)
(-0.222114 -0.125916 0)
(-0.238405 -0.116643 0)
(-0.25312 -0.10682 0)
(-0.266278 -0.0967158 0)
(-0.277927 -0.0865334 0)
(-0.28813 -0.0764177 0)
(-0.29696 -0.0664616 0)
(-0.304491 -0.0567134 0)
(-0.310796 -0.0471845 0)
(-0.315937 -0.0378556 0)
(-0.319967 -0.028683 0)
(-0.322925 -0.0196049 0)
(-0.324836 -0.0105461 0)
(-0.32571 -0.00142367 0)
(-0.325536 0.00784825 0)
(-0.324292 0.0173532 0)
(-0.321933 0.0271671 0)
(-0.318401 0.0373521 0)
(-0.31362 0.0479499 0)
(-0.307502 0.058975 0)
(-0.299946 0.070406 0)
(-0.290847 0.0821766 0)
(-0.280097 0.0941667 0)
(-0.267594 0.106192 0)
(-0.253257 0.117997 0)
(-0.237033 0.129244 0)
(-0.21892 0.13951 0)
(-0.19898 0.148288 0)
(-0.177366 0.154991 0)
(-0.154345 0.158965 0)
(-0.130317 0.159519 0)
(-0.105838 0.155953 0)
(-0.08163 0.147609 0)
(-0.0585855 0.133924 0)
(-0.0377292 0.114487 0)
(-0.0201523 0.0890946 0)
(-0.00724408 0.0577845 0)
(-0.00108307 0.0208942 0)
(-0.000967795 -0.0168975 0)
(-0.0064523 -0.0462349 0)
(-0.0179483 -0.0708412 0)
(-0.0336593 -0.0906711 0)
(-0.0524238 -0.105864 0)
(-0.0733531 -0.1167 0)
(-0.0956089 -0.123566 0)
(-0.118452 -0.126923 0)
(-0.141267 -0.127268 0)
(-0.163562 -0.125107 0)
(-0.184959 -0.120926 0)
(-0.205179 -0.115178 0)
(-0.224032 -0.108263 0)
(-0.241402 -0.10053 0)
(-0.257227 -0.0922678 0)
(-0.271494 -0.0837086 0)
(-0.284218 -0.0750309 0)
(-0.295439 -0.0663639 0)
(-0.305206 -0.057793 0)
(-0.313578 -0.0493656 0)
(-0.32061 -0.0410967 0)
(-0.326356 -0.032975 0)
(-0.330858 -0.0249679 0)
(-0.334148 -0.0170264 0)
(-0.336246 -0.00909037 0)
(-0.337155 -0.00109255 0)
(-0.336863 0.00703648 0)
(-0.335344 0.0153638 0)
(-0.332553 0.023949 0)
(-0.328434 0.0328394 0)
(-0.322916 0.0420636 0)
(-0.315917 0.0516257 0)
(-0.30735 0.0614978 0)
(-0.297126 0.0716132 0)
(-0.285161 0.0818585 0)
(-0.271387 0.092066 0)
(-0.25576 0.102008 0)
(-0.238272 0.11139 0)
(-0.218971 0.11985 0)
(-0.197975 0.126961 0)
(-0.175493 0.132235 0)
(-0.151837 0.135139 0)
(-0.127446 0.135118 0)
(-0.102893 0.131619 0)
(-0.0788913 0.124136 0)
(-0.0562936 0.112244 0)
(-0.0360507 0.0956471 0)
(-0.0191512 0.0742138 0)
(-0.00684328 0.0480038 0)
(-0.0010127 0.017309 0)
(-0.000929923 -0.0136615 0)
(-0.00623421 -0.0374346 0)
(-0.0174016 -0.0574457 0)
(-0.0327426 -0.073656 0)
(-0.0511752 -0.0861672 0)
(-0.0718693 -0.0951886 0)
(-0.0940295 -0.101014 0)
(-0.116941 -0.103996 0)
(-0.139999 -0.104519 0)
(-0.162702 -0.10298 0)
(-0.184655 -0.0997626 0)
(-0.205556 -0.0952259 0)
(-0.225185 -0.0896941 0)
(-0.243394 -0.0834494 0)
(-0.260093 -0.0767292 0)
(-0.275239 -0.0697262 0)
(-0.288822 -0.0625903 0)
(-0.300859 -0.0554314 0)
(-0.311383 -0.0483237 0)
(-0.320434 -0.0413103 0)
(-0.328057 -0.0344073 0)
(-0.334292 -0.027609 0)
(-0.339175 -0.0208915 0)
(-0.342731 -0.0142175 0)
(-0.344972 -0.00754003 0)
(-0.345899 -0.000806573 0)
(-0.345498 0.00603727 0)
(-0.343738 0.0130436 0)
(-0.340578 0.0202579 0)
(-0.335961 0.0277148 0)
(-0.329822 0.035433 0)
(-0.322089 0.0434098 0)
(-0.312684 0.0516161 0)
(-0.301537 0.0599897 0)
(-0.288586 0.06843 0)
(-0.273789 0.0767922 0)
(-0.257136 0.0848828 0)
(-0.238657 0.0924563 0)
(-0.218443 0.0992147 0)
(-0.196654 0.10481 0)
(-0.17354 0.108851 0)
(-0.14945 0.110917 0)
(-0.124847 0.110572 0)
(-0.100312 0.107394 0)
(-0.0765473 0.100999 0)
(-0.0543659 0.0910737 0)
(-0.0346581 0.0774073 0)
(-0.0183294 0.0599187 0)
(-0.00651727 0.038673 0)
(-0.000956074 0.0139127 0)
(-0.000900814 -0.0105256 0)
(-0.00606533 -0.0288741 0)
(-0.0169755 -0.0443616 0)
(-0.0320224 -0.0569571 0)
(-0.050184 -0.0667328 0)
(-0.070675 -0.07384 0)
(-0.0927343 -0.0784936 0)
(-0.115668 -0.0809539 0)
(-0.138879 -0.0815077 0)
(-0.161865 -0.0804507 0)
(-0.184218 -0.0780734 0)
(-0.205618 -0.0746493 0)
(-0.225824 -0.0704266 0)
(-0.244664 -0.0656234 0)
(-0.262026 -0.0604244 0)
(-0.277844 -0.0549808 0)
(-0.292089 -0.0494114 0)
(-0.304758 -0.0438039 0)
(-0.315869 -0.038219 0)
(-0.325449 -0.0326925 0)
(-0.333532 -0.0272395 0)
(-0.340148 -0.0218576 0)
(-0.345326 -0.0165302 0)
(-0.349085 -0.0112301 0)
(-0.351433 -0.00592219 0)
(-0.352367 -0.000567273 0)
(-0.351869 0.00487528 0)
(-0.349911 0.0104441 0)
(-0.346448 0.0161724 0)
(-0.341428 0.0220845 0)
(-0.334791 0.0281918 0)
(-0.32647 0.0344885 0)
(-0.316402 0.0409476 0)
(-0.304528 0.0475164 0)
(-0.290806 0.0541118 0)
(-0.275217 0.0606167 0)
(-0.257777 0.0668765 0)
(-0.238548 0.0726977 0)
(-0.217654 0.0778478 0)
(-0.195288 0.082058 0)
(-0.171729 0.0850298 0)
(-0.147353 0.0864443 0)
(-0.122639 0.0859771 0)
(-0.098169 0.0833154 0)
(-0.0746325 0.0781797 0)
(-0.0528117 0.0703464 0)
(-0.0335467 0.0596707 0)
(-0.017679 0.0461039 0)
(-0.00626102 0.029706 0)
(-0.000911942 0.0106675 0)
(-0.000879607 -0.00746544 0)
(-0.00594162 -0.0204962 0)
(-0.0166618 -0.0315172 0)
(-0.031489 -0.0405058 0)
(-0.0494442 -0.0475101 0)
(-0.0697749 -0.0526327 0)
(-0.0917449 -0.0560201 0)
(-0.114677 -0.0578509 0)
(-0.137981 -0.0583231 0)
(-0.161153 -0.0576422 0)
(-0.183779 -0.0560109 0)
(-0.205527 -0.0536212 0)
(-0.22614 -0.0506485 0)
(-0.245431 -0.0472474 0)
(-0.26327 -0.0435499 0)
(-0.279573 -0.0396647 0)
(-0.294298 -0.0356774 0)
(-0.307428 -0.0316521 0)
(-0.318968 -0.0276335 0)
(-0.328935 -0.0236485 0)
(-0.337354 -0.0197091 0)
(-0.34425 -0.0158149 0)
(-0.349644 -0.011955 0)
(-0.353549 -0.00811087 0)
(-0.355972 -0.00425848 0)
(-0.356906 -0.000370621 0)
(-0.356332 0.00358076 0)
(-0.354219 0.00762217 0)
(-0.350526 0.0117761 0)
(-0.345202 0.0160585 0)
(-0.33819 0.0204756 0)
(-0.32943 0.0250215 0)
(-0.318867 0.0296746 0)
(-0.306456 0.0343947 0)
(-0.292167 0.03912 0)
(-0.276 0.0437644 0)
(-0.257991 0.0482158 0)
(-0.238227 0.0523345 0)
(-0.216853 0.0559543 0)
(-0.194087 0.0588846 0)
(-0.17023 0.0609152 0)
(-0.145675 0.0618235 0)
(-0.120909 0.0613846 0)
(-0.0965163 0.0593842 0)
(-0.0731738 0.0556324 0)
(-0.0516388 0.04998 0)
(-0.0327142 0.0423327 0)
(-0.0171947 0.0326635 0)
(-0.00607121 0.0210195 0)
(-0.00087946 0.00753802 0)
(-0.000865743 -0.00445829 0)
(-0.00586043 -0.0122467 0)
(-0.0164552 -0.0188425 0)
(-0.0311364 -0.024232 0)
(-0.0489526 -0.0284427 0)
(-0.0691725 -0.0315339 0)
(-0.0910768 -0.033591 0)
(-0.113999 -0.0347183 0)
(-0.137354 -0.0350318 0)
(-0.16064 -0.0346526 0)
(-0.183435 -0.0337004 0)
(-0.205402 -0.0322891 0)
(-0.226275 -0.030523 0)
(-0.245855 -0.0284946 0)
(-0.264001 -0.0262829 0)
(-0.280619 -0.0239533 0)
(-0.295656 -0.0215576 0)
(-0.309086 -0.0191349 0)
(-0.320907 -0.0167122 0)
(-0.331128 -0.0143065 0)
(-0.339767 -0.0119253 0)
(-0.346846 -0.00956894 0)
(-0.35238 -0.00723126 0)
(-0.356381 -0.00490155 0)
(-0.358851 -0.00256576 0)
(-0.359782 -0.000207943 0)
(-0.359155 0.00218834 0)
(-0.356937 0.00463856 0)
(-0.353089 0.0071557 0)
(-0.347561 0.00974867 0)
(-0.340298 0.0124206 0)
(-0.331247 0.015167 0)
(-0.320357 0.0179742 0)
(-0.30759 0.0208169 0)
(-0.29293 0.0236572 0)
(-0.276386 0.0264425 0)
(-0.258009 0.0291046 0)
(-0.237899 0.0315595 0)
(-0.21622 0.0337074 0)
(-0.193203 0.0354346 0)
(-0.169164 0.036616 0)
(-0.144506 0.0371204 0)
(-0.119721 0.0368156 0)
(-0.0953935 0.0355764 0)
(-0.0721906 0.0332929 0)
(-0.0508532 0.0298795 0)
(-0.0321595 0.0252833 0)
(-0.0168734 0.0194909 0)
(-0.0059457 0.0125324 0)
(-0.000858076 0.00449036 0)
(-0.000858888 -0.00148255 0)
(-0.0058202 -0.0040736 0)
(-0.0163527 -0.00626933 0)
(-0.0309609 -0.00806514 0)
(-0.0487071 -0.00946998 0)
(-0.0688706 -0.0105033 0)
(-0.0907401 -0.011193 0)
(-0.113655 -0.0115735 0)
(-0.137033 -0.0116831 0)
(-0.160371 -0.0115616 0)
(-0.183248 -0.0112486 0)
(-0.205321 -0.010782 0)
(-0.22632 -0.0101963 0)