/*--------------------------------*- C++ -*----------------------------------*\
  =========                 |
  \\      /  F ield         | OpenFOAM: The Open Source CFD Toolbox
   \\    /   O peration     | Website:  https://openfoam.org
    \\  /    A nd           | Version:  7
     \\/     M anipulation  |
\*---------------------------------------------------------------------------*/
FoamFile
{
    version     2.0;
    format      ascii;
    class       volScalarField;
    location    "0.0218";
    object      p;
}
// * * * * * * * * * * * * * * * * * * * * * * * * * * * * * * * * * * * * * //

dimensions      [0 2 -2 0 0 0 0];

internalField   nonuniform List<scalar> 
2500
(
5.44204e-07
-0.000559591
-0.00193541
-0.00381289
-0.00586951
-0.00786259
-0.00961476
-0.0109949
-0.0119106
-0.0123005
-0.0121267
-0.0113705
-0.0100285
-0.00810925
-0.00563152
-0.00262201
0.00088605
0.00485397
0.00923858
0.0139932
0.0190682
0.0244114
0.0299684
0.0356834
0.041499
0.0473566
0.0531969
0.0589602
0.0645864
0.0700159
0.0751899
0.0800508
0.0845432
0.0886145
0.0922162
0.0953048
0.0978431
0.0998018
0.101161
0.101913
0.102062
0.101632
0.100664
0.0992281
0.0974213
0.0953816
0.0932906
0.0913961
0.0900188
0.0894698
0.000564964
6.68087e-06
-0.00109741
-0.00254175
-0.00411623
-0.00564058
-0.00697127
-0.00799665
-0.00863309
-0.00882109
-0.00852128
-0.0077111
-0.0063821
-0.00453755
-0.00219026
0.000638847
0.00392217
0.00762645
0.0117137
0.0161422
0.0208668
0.0258396
0.0310107
0.0363281
0.0417384
0.047187
0.0526187
0.0579777
0.0632085
0.068256
0.0730662
0.0775866
0.0817672
0.0855612
0.088926
0.0918244
0.0942254
0.0961057
0.0974516
0.0982603
0.0985421
0.0983224
0.097645
0.0965743
0.0951991
0.0936363
0.0920337
0.0905751
0.0894667
0.0889208
0.00194891
0.00111507
3.3288e-06
-0.00129301
-0.00265238
-0.00393892
-0.00503774
-0.00585669
-0.00632377
-0.00638549
-0.00600486
-0.00515941
-0.00383914
-0.00204481
0.000213796
0.00291918
0.00604724
0.00956832
0.013448
0.0176479
0.0221262
0.0268383
0.0317374
0.0367744
0.0418989
0.0470595
0.0522038
0.0572791
0.0622332
0.0670143
0.0715716
0.0758564
0.0798222
0.0834263
0.08663
0.0893997
0.0917085
0.0935366
0.0948734
0.0957185
0.0960835
0.0959936
0.0954895
0.0946294
0.0934901
0.0921683
0.0907829
0.0894723
0.0883595
0.0875456
0.00385273
0.00257526
0.00128642
-3.19718e-05
-0.00134016
-0.00253362
-0.00352105
-0.00422917
-0.00459878
-0.00458443
-0.00415389
-0.00328713
-0.00197488
-0.000217265
0.00197722
0.00459292
0.00760789
0.0109948
0.0147218
0.018753
0.0230491
0.027568
0.0322652
0.0370941
0.0420068
0.046954
0.0518858
0.0567522
0.061503
0.0660891
0.0704622
0.0745762
0.0783874
0.0818555
0.0849443
0.087623
0.0898667
0.0916575
0.0929861
0.0938525
0.0942674
0.0942537
0.0938473
0.093098
0.0920699
0.090841
0.0895066
0.0881745
0.0868889
0.0856373
0.00598136
0.00419497
0.00264696
0.00121876
-0.000125406
-0.00130548
-0.00225006
-0.00290336
-0.00321872
-0.00315936
-0.00269882
-0.00182061
-0.000517279
0.00121046
0.00335445
0.00589987
0.00882618
0.0121078
0.0157145
0.0196125
0.0237646
0.0281306
0.0326679
0.0373322
0.0420774
0.0468562
0.0516209
0.0563231
0.060915
0.0653491
0.0695794
0.0735617
0.0772541
0.0806183
0.08362
0.0862298
0.088424
0.0901857
0.0915056
0.092383
0.092827
0.0928568
0.0925025
0.0918056
0.0908176
0.0895994
0.0882271
0.0867844
0.0852415
0.0834859
0.0081215
0.00581379
0.00396381
0.00236741
0.000924275
-0.00030347
-0.00126009
-0.00190487
-0.00220273
-0.00212531
-0.00165225
-0.000771041
0.000523173
0.00222821
0.00433539
0.0068301
0.00969243
0.0128977
0.0164172
0.0202182
0.0242651
0.0285194
0.03294
0.037484
0.0421072
0.0467638
0.0514075
0.0559915
0.0604695
0.0647956
0.068925
0.072815
0.076425
0.0797178
0.0826601
0.0852232
0.0873839
0.0891252
0.090437
0.0913174
0.0917725
0.0918177
0.0914772
0.0907842
0.0897791
0.0885085
0.0870333
0.0854201
0.0835757
0.0813039
0.0101234
0.00730577
0.00513405
0.00333172
0.00174492
0.00042374
-0.000587669
-0.00126098
-0.00157125
-0.00149781
-0.00102617
-0.00014814
0.00113818
0.00282863
0.00491335
0.00737726
0.0102005
0.0133588
0.016824
0.0205645
0.0245455
0.0287296
0.0330768
0.0375456
0.0420926
0.0466734
0.0512427
0.0557548
0.0601645
0.0644265
0.0684973
0.0723347
0.0758988
0.0791529
0.0820639
0.0846032
0.0867472
0.088478
0.0897844
0.0906621
0.0911143
0.0911521
0.0907942
0.0900664
0.0889997
0.0876289
0.0860041
0.0841808
0.082014
0.0792367
0.0118777
0.00857215
0.00607293
0.00404242
0.00228259
0.000836184
-0.000260907
-0.000990162
-0.00133509
-0.00128187
-0.000821358
5.03725e-05
0.00133199
0.00301704
0.00509411
0.00754718
0.0103559
0.0134959
0.0169392
0.0206545
0.0246077
0.0287619
0.033078
0.037515
0.0420305
0.0465805
0.0511207
0.055606
0.0599913
0.0642324
0.0682855
0.072109
0.075663
0.0789106
0.0818183
0.0843568
0.0865016
0.0882335
0.0895392
0.0904121
0.0908521
0.0908661
0.0904676
0.0896762
0.0885152
0.0870103
0.0852045
0.083147
0.0806505
0.0773888
0.0133065
0.0095356
0.00670955
0.00443803
0.00248611
0.000892737
-0.00031177
-0.00111655
-0.00151188
-0.00148974
-0.00104593
-0.000180556
0.00110182
0.00279225
0.0048775
0.00734021
0.0101591
0.0133093
0.0167627
0.0204878
0.0244507
0.0286147
0.0329411
0.0373891
0.0419168
0.0464805
0.051036
0.0555385
0.0599432
0.0642054
0.0682816
0.0721296
0.0757091
0.0789824
0.0819152
0.0844769
0.0866414
0.0883878
0.0897005
0.09057
0.0909929
0.0909722
0.0905168
0.089641
0.0883622
0.0866995
0.0846914
0.0823848
0.0795575
0.0758326
0.0143529
0.0101347
0.00698398
0.00446364
0.00230692
0.0005515
-0.000775566
-0.00166923
-0.00212526
-0.00214051
-0.00171516
-0.000853119
0.000437907
0.00214641
0.00425705
0.00675087
0.0096054
0.0127949
0.0162904
0.0200604
0.0240704
0.0282838
0.0326616
0.0371632
0.0417465
0.046368
0.0509831
0.055547
0.0600142
0.06434
0.06848
0.0723913
0.0760325
0.0793647
0.082352
0.0849623
0.0871675
0.0889442
0.0902743
0.0911452
0.0915504
0.0914891
0.0909661
0.0899916
0.0885781
0.0867403
0.0845148
0.081949
0.0787907
0.0746184
0.0149737
0.0103193
0.00684466
0.0040696
0.00169881
-0.000229296
-0.00168929
-0.00268047
-0.00320302
-0.00325797
-0.00284937
-0.00198463
-0.000674532
0.00106676
0.00322169
0.00576943
0.00868604
0.0119445
0.0155151
0.0193653
0.0234602
0.0277626
0.0322332
0.0368311
0.0415137
0.0462371
0.0509563
0.0556257
0.0601995
0.0646316
0.0688769
0.072891
0.0766311
0.0800567
0.0831298
0.0858161
0.088085
0.0899105
0.0912715
0.0921524
0.0925432
0.0924396
0.0918431
0.0907601
0.0891999
0.0871741
0.0847194
0.0818854
0.0783939
0.073782
0.0151345
0.0100465
0.00624542
0.00320959
0.00061705
-0.00149172
-0.00309165
-0.00418536
-0.00477668
-0.00487018
-0.00447341
-0.00359707
-0.00225495
-0.000463934
0.00175604
0.00438212
0.00738858
0.0107469
0.0144262
0.0183928
0.0226109
0.0270426
0.0316479
0.0363851
0.0412111
0.046081
0.0509493
0.0557693
0.060494
0.0650763
0.0694694
0.0736273
0.0775052
0.0810604
0.0842525
0.0870446
0.089403
0.0912987
0.0927075
0.0936103
0.0939938
0.0938503
0.093178
0.0919807
0.0902651
0.0880409
0.0853462
0.0822346
0.0784034
0.0733503
0.0148051
0.00927734
0.00514294
0.00183884
-0.000982922
-0.0032789
-0.00502356
-0.00622212
-0.00688148
-0.00700938
-0.00661658
-0.00571694
-0.0043273
-0.00246732
-0.000159459
0.00257116
0.00569683
0.00918731
0.0130101
0.0171302
0.0215108
0.0261129
0.0308954
0.0358158
0.0408299
0.045892
0.0509552
0.0559717
0.0608932
0.0656707
0.0702557
0.0746
0.0786566
0.08238
0.085727
0.0886573
0.0911341
0.0931249
0.0946017
0.095542
0.0959289
0.0957513
0.0950046
0.09369
0.0918124
0.0893805
0.0864347
0.083034
0.0788517
0.0733455
0.0139564
0.00797408
0.00349457
-8.75495e-05
-0.00314673
-0.00563596
-0.00752869
-0.00883237
-0.00955657
-0.00971199
-0.00931251
-0.00837519
-0.00691993
-0.00496931
-0.00254852
0.00031486
0.00359088
0.00724731
0.0112498
0.0155621
0.0201456
0.02496
0.0299634
0.0351118
0.0403599
0.0456606
0.0509659
0.0562263
0.0613916
0.0664113
0.0712343
0.07581
0.0800886
0.0840215
0.0875622
0.0906667
0.0932943
0.0954086
0.0969776
0.0979747
0.0983793
0.098177
0.0973601
0.0959276
0.093883
0.0912343
0.0880252
0.0843209
0.07977
0.0737886
0.0125583
0.00609777
0.00125632
-0.00261631
-0.00592243
-0.00861104
-0.0106543
-0.0120616
-0.0128452
-0.0130188
-0.0125993
-0.0116072
-0.0100656
-0.00800008
-0.00543891
-0.00241234
0.00104718
0.00490521
0.00912544
0.0136697
0.0184978
0.0235682
0.0288372
0.0342597
0.0397888
0.0453762
0.0509721
0.0565253
0.0619837
0.0672943
0.0724037
0.0772585
0.0818055
0.0859926
0.0897693
0.0930877
0.0959025
0.0981728
0.0998622
0.10094
0.10138
0.101166
0.100286
0.0987372
0.0965215
0.0936467
0.0901603
0.0861344
0.0811911
0.0747021
0.0105772
0.00360643
-0.00161902
-0.00579769
-0.00936189
-0.0122564
-0.0144518
-0.0159599
-0.0167954
-0.0169753
-0.0165198
-0.015453
-0.0138013
-0.011594
-0.00886245
-0.00563987
-0.00196145
0.00213587
0.0066136
0.0114315
0.0165477
0.0219189
0.0274998
0.0332438
0.0391026
0.0450261
0.0509627
0.0568596
0.0626622
0.0683152
0.0737623
0.0789468
0.0838119
0.0883015
0.0923609
0.095937
0.09898
0.101444
0.103286
0.104472
0.104971
0.104761
0.103829
0.102167
0.0997771
0.0966665
0.0928868
0.0885173
0.0831515
0.0761119
0.00797494
0.000453173
-0.00518362
-0.00968696
-0.0135221
-0.0166294
-0.0189781
-0.0205824
-0.0214603
-0.021632
-0.0211217
-0.0199571
-0.0181689
-0.0157899
-0.012855
-0.00940091
-0.00546575
-0.00108915
0.00368792
0.00882304
0.0142724
0.0199908
0.0259315
0.032046
0.0382846
0.0445953
0.050925
0.0572184
0.0634189
0.0694683
0.0753073
0.0808755
0.0861124
0.0909572
0.0953502
0.0992332
0.10255
0.10525
0.107284
0.108611
0.109196
0.109012
0.10804
0.106271
0.103705
0.100349
0.0962574
0.0915186
0.0856933
0.0780496
0.00470614
-0.00341558
-0.00949628
-0.0143459
-0.0184664
-0.0217938
-0.0242962
-0.0259906
-0.0268988
-0.027045
-0.0264577
-0.0251692
-0.0232144
-0.0206305
-0.0174564
-0.0137324
-0.00949988
-0.00480157
0.00031894
0.00581687
0.0116464
0.0177602
0.02411
0.0306458
0.0373159
0.0440669
0.0508436
0.0575887
0.0642432
0.070746
0.0770345
0.0830445
0.0887111
0.0939685
0.0987516
0.102996
0.10664
0.109623
0.111894
0.113401
0.114105
0.113971
0.112978
0.111111
0.108369
0.104756
0.100333
0.095195
0.0888667
0.0805547
0.00071719
-0.00806179
-0.014624
-0.0198445
-0.0242662
-0.027821
-0.0304762
-0.0322525
-0.0331762
-0.0332764
-0.0325865
-0.031144
-0.0289889
-0.0261633
-0.0227104
-0.0186747
-0.0141013
-0.0090361
-0.00352563
0.00238287
0.00864132
0.0152007
0.0220108
0.02902
0.0361752
0.0434213
0.0507011
0.0579554
0.0651227
0.072139
0.0789381
0.085452
0.0916109
0.0973437
0.102579
0.107246
0.111274
0.114599
0.117156
0.11889
0.119752
0.119701
0.118708
0.116757
0.113839
0.10996
0.105184
0.0996132
0.0927317
0.0836763
-0.00405572
-0.0135575
-0.0206439
-0.0262624
-0.0310022
-0.0347913
-0.0375968
-0.0394441
-0.0403652
-0.0403947
-0.0395723
-0.0379414
-0.035548
-0.0324395
-0.0286643
-0.0242715
-0.0193104
-0.0138302
-0.00788063
-0.00151152
0.00522687
0.0122836
0.0196068
0.0271435
0.0348389
0.0426365
0.0504775
0.0583008
0.0660423
0.0736352
0.08101
0.0880943
0.0948132
0.10109
0.106846
0.112003
0.116483
0.120212
0.123116
0.125131
0.126198
0.126268
0.125306
0.123287
0.120199
0.116045
0.110891
0.104852
0.0973605
0.0874756
-0.00968836
-0.0199869
-0.0276447
-0.0336906
-0.038766
-0.0427953
-0.0457462
-0.0476502
-0.0485461
-0.0484756
-0.0474857
-0.0456268
-0.0429518
-0.0395145
-0.0353691
-0.0305697
-0.0251701
-0.0192236
-0.012783
-0.00590074
0.00137061
0.00897836
0.0168692
0.0249887
0.033281
0.0416882
0.0501503
0.0586044
0.0669842
0.0752202
0.0832394
0.0909651
0.0983171
0.105212
0.111565
0.117289
0.122296
0.126501
0.129822
0.132181
0.13351
0.13375
0.132853
0.13079
0.127542
0.123106
0.117553
0.111004
0.10284
0.0920283
-0.0162705
-0.0274481
-0.0357292
-0.0422338
-0.0476621
-0.0519355
-0.0550234
-0.0569652
-0.057808
-0.0576022
-0.0564035
-0.0542708
-0.0512651
-0.0474473
-0.0428784
-0.0376182
-0.0317256
-0.0252578
-0.018271
-0.0108206
-0.0029611
0.0052531
0.0137674
0.0225265
0.0314736
0.04055
0.0496946
0.0588431
0.0679276
0.0768761
0.0856122
0.094055
0.102119
0.109714
0.116747
0.123122
0.128741
0.133506
0.137324
0.140103
0.141762
0.142229
0.141445
0.13937
0.135976
0.131255
0.12528
0.118181
0.109275
0.0974273
-0.0239081
-0.0360558
-0.0450165
-0.0520121
-0.0578094
-0.0623278
-0.0655397
-0.0674943
-0.0682492
-0.0678654
-0.0664091
-0.0639494
-0.0605565
-0.0563
-0.0512484
-0.0454678
-0.0390226
-0.0319746
-0.0243834
-0.0163071
-0.00780225
0.00107544
0.0102705
0.0197269
0.0293875
0.0391934
0.049083
0.0589913
0.068849
0.078582
0.0881112
0.0973514
0.106212
0.114595
0.122401
0.129521
0.135848
0.141269
0.145677
0.148965
0.151035
0.1518
0.151187
0.149142
0.145626
0.140622
0.134205
0.126513
0.116789
0.103786
-0.0327262
-0.0459438
-0.0556442
-0.0631636
-0.0693439
-0.0741036
-0.0774201
-0.0793546
-0.0799781
-0.0793645
-0.0775925
-0.0747434
-0.0708984
-0.0661371
-0.0605363
-0.0541696
-0.0471072
-0.0394156
-0.0311581
-0.0223954
-0.0131859
-0.00358621
0.00634765
0.0165598
0.0269932
0.0375895
0.0482872
0.0590213
0.069722
0.080314
0.0907154
0.100838
0.110584
0.119853
0.128531
0.136502
0.143644
0.14983
0.154936
0.158837
0.161416
0.162566
0.162197
0.160237
0.156633
0.151357
0.144482
0.136154
0.125535
0.111244
-0.0428716
-0.0572681
-0.0677721
-0.0758474
-0.082421
-0.087412
-0.0908048
-0.0926765
-0.0931138
-0.0922068
-0.0900495
-0.0867377
-0.0823654
-0.0770237
-0.0707991
-0.0637733
-0.056023
-0.0476196
-0.0386302
-0.0291178
-0.0191423
-0.00876094
0.0019705
0.0129968
0.0242622
0.0357093
0.0472781
0.0589043
0.0705186
0.0820451
0.0934006
0.104493
0.115222
0.125477
0.135138
0.144076
0.152155
0.159231
0.16516
0.169796
0.173001
0.174643
0.174609
0.172807
0.169164
0.163635
0.156293
0.147288
0.135688
0.119965
-0.0545164
-0.0702107
-0.0815854
-0.0902471
-0.0972186
-0.102422
-0.105852
-0.107604
-0.107786
-0.106508
-0.103882
-0.10002
-0.0950332
-0.0890245
-0.0820917
-0.0743255
-0.0658097
-0.0566208
-0.0468296
-0.0365014
-0.0256968
-0.0144732
-0.00288533
0.00901319
0.0211687
0.0335261
0.0460277
0.0586114
0.0712095
0.0837468
0.0961397
0.108294
0.120106
0.131458
0.142221
0.152253
0.161404
0.169511
0.176407
0.181923
0.185892
0.188155
0.188571
0.18702
0.183404
0.177659
0.169848
0.16013
0.147462
0.130151
-0.0678623
-0.084984
-0.0972995
-0.106574
-0.11394
-0.119325
-0.122737
-0.124297
-0.124137
-0.122392
-0.119195
-0.114681
-0.108976
-0.102201
-0.0944637
-0.0858664
-0.0764996
-0.0664457
-0.0557785
-0.0445653
-0.032867
-0.0207401
-0.00823751
0.00458993
0.0176918
0.0310167
0.0445107
0.0581152
0.0717657
0.0853894
0.0989035
0.112214
0.125212
0.137777
0.149769
0.161036
0.17141
0.180708
0.188737
0.195301
0.2002
0.203242
0.204249
0.203068
0.199569
0.193661
0.185396
0.174934
0.161109
0.14204
-0.0831459
-0.101837
-0.115165
-0.125074
-0.13282
-0.138338
-0.141658
-0.14293
-0.142319
-0.139988
-0.136098
-0.130808
-0.124265
-0.116606
-0.107956
-0.0984261
-0.0881146
-0.0771093
-0.0654874
-0.0533173
-0.0406595
-0.0275685
-0.0140941
-0.000283215
0.0138184
0.0281646
0.0427068
0.0573919
0.0721602
0.0869433
0.101661
0.116221
0.130513
0.144411
0.15777
0.170424
0.182187
0.192855
0.202209
0.210017
0.216042
0.220052
0.221827
0.221168
0.217908
0.211915
0.203227
0.191999
0.176926
0.155918
-0.100644
-0.121059
-0.135475
-0.146032
-0.154126
-0.159709
-0.162836
-0.163697
-0.162496
-0.159431
-0.154698
-0.148484
-0.140961
-0.132286
-0.122598
-0.112021
-0.100661
-0.088611
-0.0759511
-0.0627497
-0.0490658
-0.0349507
-0.0204498
-0.00560452
0.00954585
0.0249622
0.0406032
0.0564233
0.07237
0.0883813
0.104382
0.120284
0.135978
0.151335
0.166204
0.180407
0.193742
0.205982
0.216876
0.226157
0.233542
0.238751
0.241509
0.241567
0.238701
0.232736
0.223678
0.211679
0.195271
0.172126
-0.120683
-0.142996
-0.158572
-0.169778
-0.178168
-0.183718
-0.186517
-0.186807
-0.18484
-0.180859
-0.1751
-0.167785
-0.159114
-0.149267
-0.138399
-0.126646
-0.114124
-0.100929
-0.0871436
-0.0728345
-0.0580581
-0.042861
-0.0272824
-0.0113565
0.00488581
0.0214145
0.0381978
0.0552001
0.0723786
0.0896802
0.107039
0.124371
0.141572
0.158515
0.175043
0.19097
0.206077
0.220112
0.232793
0.243808
0.252829
0.259513
0.263523
0.264541
0.262276
0.25649
0.247151
0.234394
0.216564
0.191072
-0.143647
-0.168051
-0.184865
-0.196703
-0.205306
-0.210684
-0.212976
-0.212487
-0.20953
-0.204406
-0.197398
-0.188769
-0.178753
-0.167552
-0.155342
-0.142271
-0.128462
-0.114015
-0.0990123
-0.0835181
-0.0675842
-0.0512506
-0.0345483
-0.0175021
-0.000132249
0.0175425
0.0355025
0.0537246
0.0721785
0.0908239
0.109606
0.128451
0.147262
0.165916
0.184256
0.202089
0.219181
0.235258
0.250001
0.263057
0.274035
0.282527
0.288116
0.290401
0.289004
0.283604
0.274115
0.26064
0.241311
0.21324
-0.169994
-0.196712
-0.214834
-0.227263
-0.235957
-0.240973
-0.242517
-0.240979
-0.23675
-0.230199
-0.22167
-0.211472
-0.199876
-0.187114
-0.173379
-0.158831
-0.1436
-0.127787
-0.111472
-0.0947162
-0.0775629
-0.0600435
-0.0421785
-0.0239807
-0.00545759
0.0133861
0.0325457
0.0520132
0.0717745
0.0918048
0.112065
0.132495
0.153011
0.173498
0.193803
0.21373
0.233035
0.251422
0.268538
0.283979
0.297293
0.30799
0.315561
0.319498
0.319314
0.314579
0.305128
0.291014
0.270117
0.239213
-0.20027
-0.229561
-0.249063
-0.262006
-0.270607
-0.274997
-0.275474
-0.272536
-0.266675
-0.258346
-0.247964
-0.235893
-0.222446
-0.207883
-0.192416
-0.176217
-0.159418
-0.142121
-0.1244
-0.106308
-0.0878791
-0.0691323
-0.050075
-0.0307055
-0.0110154
0.0090071
0.0293751
0.0500993
0.0711847
0.0926264
0.114405
0.136479
0.158783
0.181216
0.203635
0.225848
0.247604
0.26859
0.288421
0.306642
0.322732
0.336109
0.346151
0.352224
0.353698
0.349999
0.340851
0.326229
0.303713
0.26969
-0.235139
-0.267313
-0.288256
-0.301582
-0.309827
-0.313227
-0.312212
-0.307419
-0.299471
-0.288927
-0.276289
-0.261983
-0.246367
-0.229732
-0.212306
-0.194267
-0.175749
-0.156847
-0.137628
-0.118132
-0.0983801
-0.0783752
-0.0581086
-0.0375609
-0.0167051
0.00449034
0.0260592
0.0480339
0.0704425
0.0933039
0.116623
0.140384
0.164543
0.189022
0.213695
0.238382
0.262835
0.286727
0.309648
0.331094
0.350469
0.367088
0.380201
0.389014
0.392718
0.390551
0.382077
0.367152
0.342988
0.305523
-0.275419
-0.310854
-0.333282
-0.346781
-0.354289
-0.356199
-0.35312
-0.345882
-0.335269
-0.321973
-0.306592
-0.289625
-0.271478
-0.252465
-0.232831
-0.212755
-0.192363
-0.171741
-0.150939
-0.129983
-0.108873
-0.0875944
-0.0661176
-0.0444022
-0.0223997
-5.58562e-05
0.0226869
0.0458861
0.0695963
0.0938646
0.118725
0.144192
0.170254
0.196861
0.223915
0.251256
0.27865
0.305771
0.332188
0.357354
0.380598
0.401126
0.418037
0.430347
0.437021
0.437046
0.429762
0.414844
0.38904
0.347755
-0.322132
-0.361299
-0.385227
-0.398568
-0.404785
-0.404511
-0.398608
-0.388157
-0.374151
-0.35744
-0.338736
-0.318615
-0.297524
-0.275803
-0.253698
-0.231381
-0.208966
-0.186517
-0.164064
-0.141607
-0.119125
-0.0965764
-0.0739089
-0.0510573
-0.0279483
-0.00450201
0.0193657
0.0437407
0.0687075
0.0943453
0.120723
0.147891
0.175877
0.204669
0.234208
0.264368
0.294942
0.325618
0.355962
0.385393
0.413174
0.438395
0.459987
0.476741
0.487338
0.490439
0.485067
0.470618
0.443242
0.397682
-0.376589
-0.420087
-0.445467
-0.458129
-0.462254
-0.458831
-0.449083
-0.434425
-0.416111
-0.39518
-0.37247
-0.348629
-0.324143
-0.29936
-0.274516
-0.249765
-0.225192
-0.200831
-0.176681
-0.152709
-0.128864
-0.105076
-0.0812625
-0.0573312
-0.0331805
-0.00870233
0.0162168
0.0416935
0.0678457
0.0947884
0.12263
0.151464
0.181363
0.212366
0.244464
0.277581
0.311556
0.346112
0.38083
0.415119
0.448187
0.479015
0.506356
0.528739
0.544495
0.551858
0.549409
0.536123
0.507335
0.456947
-0.440515
-0.489112
-0.515779
-0.526942
-0.527796
-0.519879
-0.504919
-0.484772
-0.461013
-0.434896
-0.407386
-0.379198
-0.350834
-0.32263
-0.294794
-0.267437
-0.240602
-0.214277
-0.188418
-0.162952
-0.137788
-0.112823
-0.0879393
-0.0630139
-0.0379146
-0.0125024
0.0133672
0.0398441
0.0670817
0.0952343
0.124453
0.154882
0.186647
0.219848
0.254539
0.290715
0.328281
0.367021
0.406564
0.446338
0.485525
0.523017
0.557388
0.586878
0.609398
0.622628
0.624534
0.613455
0.583582
0.527673
-0.516247
-0.57093
-0.59849
-0.606846
-0.602694
-0.5884
-0.566401
-0.53912
-0.508518
-0.476077
-0.442877
-0.409669
-0.376937
-0.344974
-0.313926
-0.283837
-0.254684
-0.226394
-0.198864
-0.171969
-0.145575
-0.119533
-0.093692
-0.067892
-0.0419683
-0.0157503
0.0109396
0.0382854
0.0664776
0.095712
0.126187
0.1581
0.19164
0.226976
0.264244
0.303526
0.344823
0.388013
0.432812
0.478714
0.524922
0.57028
0.613206
0.651642
0.683009
0.704287
0.712597
0.70532
0.674978
0.612688
-0.607078
-0.66908
-0.696693
-0.70014
-0.688399
-0.66509
-0.633621
-0.597127
-0.557998
-0.517931
-0.478077
-0.439164
-0.401609
-0.365605
-0.331194
-0.298322
-0.266869
-0.236681
-0.207581
-0.179383
-0.151896
-0.124927
-0.0982808
-0.0717627
-0.0451735
-0.0183096
0.00903915
0.0370911
0.0660743
0.0962271
0.127797
0.161039
0.19621
0.233561
0.273324
0.31569
0.360784
0.408621
0.459057
0.511711
0.565882
0.620441
0.673711
0.72336
0.766275
0.798581
0.816257
0.815258
0.785597
0.71588
-0.717841
-0.7886
-0.814549
-0.809663
-0.786475
-0.750464
-0.706326
-0.658035
-0.608409
-0.559288
-0.511799
-0.466552
-0.423806
-0.383586
-0.345777
-0.310177
-0.276544
-0.244616
-0.214128
-0.18482
-0.156439
-0.128742
-0.101491
-0.0744514
-0.0473912
-0.0200749
0.00773911
0.0363022
0.0658788
0.0967488
0.129209
0.163575
0.200175
0.239352
0.281444
0.326777
0.375631
0.428206
0.484558
0.544518
0.607585
0.672771
0.738429
0.802046
0.859991
0.907398
0.938763
0.947953
0.921125
0.842833
-0.85599
-0.936835
-0.95767
-0.938831
-0.89842
-0.844595
-0.783656
-0.720458
-0.658133
-0.598498
-0.542477
-0.490412
-0.442282
-0.397849
-0.356769
-0.318648
-0.283083
-0.249685
-0.218085
-0.18794
-0.158933
-0.130764
-0.103153
-0.0758296
-0.0485291
-0.020987
0.00706678
0.0359136
0.065851
0.0971978
0.130299
0.165527
0.203288
0.244016
0.288172
0.336234
0.388671
0.445913
0.508294
0.575961
0.64875
0.725997
0.806289
0.887138
0.964536
1.03259
1.08399
1.10963
1.08971
1.00197
-1.03367
-1.12474
-1.13359
-1.09153
-1.0253
-0.946691
-0.863767
-0.782089
-0.704787
-0.633316
-0.568116
-0.509036
-0.45561
-0.407224
-0.363226
-0.322979
-0.28589
-0.251422
-0.219091
-0.188469
-0.159168
-0.130841
-0.103163
-0.0758321
-0.0485563
-0.0210463
0.00699167
0.0358635
0.0658947
0.0974381
0.130881
0.166651
0.205226
0.247137
0.292971
0.343371
0.399024
0.460639
0.528905
0.604407
0.687496
0.778079
0.875303
0.977087
1.07942
1.1756
1.25632
1.30853
1.30329
1.20676
-1.27197
-1.36887
-1.35204
-1.27159
-1.16696
-1.05433
-0.943251
-0.839325
-0.745004
-0.660811
-0.586274
-0.520451
-0.462231
-0.410501
-0.364224
-0.322475
-0.284449
-0.24945
-0.216879
-0.186223
-0.157031
-0.128908
-0.101498
-0.0744709
-0.0475141
-0.0203209
0.00741884
0.0360285
0.0658541
0.0972743
0.13071
0.166638
0.2056
0.248217
0.295199
0.34736
0.405622
0.471013
0.544648
0.627676
0.72117
0.825929
0.94213
1.06872
1.20246
1.33657
1.46008
1.55517
1.57966
1.48017
-1.60963
-1.6944
-1.62444
-1.48105
-1.32022
-1.16209
-1.0162
-0.886711
-0.77416
-0.677264
-0.594064
-0.522472
-0.460528
-0.406503
-0.358922
-0.316551
-0.278366
-0.243518
-0.211304
-0.181134
-0.15251
-0.125001
-0.0982258
-0.0718399
-0.0455194
-0.0189491
0.00818836
0.0362242
0.065515
0.0964545
0.129487
0.165123
0.203956
0.24668
0.294119
0.347247
0.407217
0.475393
0.553366
0.642956
0.746167
0.865056
1.00143
1.15623
1.32829
1.51245
1.69765
1.86173
1.9455
1.86385
-2.11842
-2.13877
-1.96202
-1.71719
-1.47615
-1.25969
-1.07322
-0.916524
-0.786295
-0.678263
-0.588317
-0.51288
-0.448982
-0.394222
-0.346677
-0.30482
-0.267434
-0.233547
-0.202372
-0.173272
-0.145717
-0.119257
-0.0935058
-0.0681141
-0.0427597
-0.0171308
0.00908602
0.0362187
0.0646219
0.0946913
0.126879
0.161711
0.199812
0.241927
0.288963
0.342023
0.402464
0.471963
0.552585
0.646875
0.757921
0.889384
1.04539
1.23007
1.44643
1.69426
1.96636
2.24017
2.43988
2.43327
-2.92878
-2.75188
-2.37225
-1.9705
-1.6189
-1.33194
-1.10211
-0.919838
-0.775248
-0.659748
-0.566477
-0.490153
-0.426765
-0.373282
-0.327404
-0.287379
-0.251861
-0.219803
-0.190384
-0.162947
-0.136959
-0.111978
-0.087626
-0.0635679
-0.0394962
-0.0151151
0.0098723
0.0357781
0.0629418
0.0917455
0.122631
0.156118
0.192835
0.233544
0.279191
0.330957
0.390338
0.459245
0.54015
0.636266
0.75179
0.892198
1.06453
1.27754
1.54128
1.86569
2.25597
2.6981
3.11368
3.32249
-4.33709
-3.57384
-2.83052
-2.20645
-1.71871
-1.35509
-1.08654
-0.886378
-0.734958
-0.618395
-0.526924
-0.453696
-0.393877
-0.344013
-0.301603
-0.264803
-0.23224
-0.202869
-0.175888
-0.150668
-0.126705
-0.103589
-0.0809702
-0.0585458
-0.036037
-0.0131772
0.0103021
0.0346837
0.0602781
0.0874378
0.116574
0.148178
0.182847
0.22132
0.264525
0.313644
0.370207
0.436226
0.514394
0.608375
0.723245
0.866139
1.04718
1.28069
1.58694
1.99368
2.53077
3.20883
4.00689
4.83595
-7.17282
-4.57351
-3.15574
-2.27169
-1.66701
-1.25911
-0.982339
-0.788333
-0.647634
-0.542485
-0.461662
-0.397855
-0.346187
-0.303318
-0.266902
-0.235252
-0.207133
-0.18162
-0.158015
-0.135776
-0.114474
-0.0937642
-0.0733563
-0.0529988
-0.0324623
-0.0115267
0.0100313
0.0324478
0.0559853
0.0809448
0.107681
0.136622
0.168292
0.203346
0.242612
0.287156
0.338375
0.398134
0.468982
0.554487
0.659798
0.792565
0.964484
1.19399
1.51152
1.96744
2.63132
3.58787
5.09162
7.80922
-12.0413
-5.65651
-2.99192
-1.89591
-1.30236
-0.951403
-0.735365
-0.592697
-0.492048
-0.417525
-0.360225
-0.314723
-0.277523
-0.246268
-0.219311
-0.195467
-0.17387
-0.153873
-0.134989
-0.116843
-0.0991426
-0.0816527
-0.0641787
-0.0465521
-0.0286185
-0.0102282
0.00877228
0.0285504
0.0492946
0.0712252
0.0946055
0.119756
0.147072
0.177046
0.210303
0.247641
0.290102
0.339064
0.3964
0.464726
0.547843
0.651551
0.785234
0.96537
1.22401
1.62507
2.2852
3.47616
6.25741
12.767
)
;

boundaryField
{
    movingWall
    {
        type            zeroGradient;
    }
    fixedWalls
    {
        type            zeroGradient;
    }
    frontAndBack
    {
        type            empty;
    }
}


// ************************************************************************* //
