/*--------------------------------*- C++ -*----------------------------------*\
  =========                 |
  \\      /  F ield         | OpenFOAM: The Open Source CFD Toolbox
   \\    /   O peration     | Website:  https://openfoam.org
    \\  /    A nd           | Version:  7
     \\/     M anipulation  |
\*---------------------------------------------------------------------------*/
FoamFile
{
    version     2.0;
    format      ascii;
    class       volScalarField;
    location    "0.0272";
    object      p;
}
// * * * * * * * * * * * * * * * * * * * * * * * * * * * * * * * * * * * * * //

dimensions      [0 2 -2 0 0 0 0];

internalField   nonuniform List<scalar> 
2500
(
-6.28242e-06
-0.000547697
-0.00195841
-0.00393551
-0.00615928
-0.00836631
-0.0103738
-0.0120382
-0.0132556
-0.0139537
-0.0140858
-0.0136254
-0.0125623
-0.0108999
-0.00865312
-0.00584587
-0.00251002
0.0013161
0.00558871
0.0102595
0.0152761
0.0205832
0.0261224
0.0318333
0.0376536
0.0435194
0.049366
0.0551279
0.0607398
0.0661367
0.071255
0.0760331
0.0804122
0.0843374
0.0877589
0.0906333
0.0929247
0.0946068
0.0956643
0.0960952
0.095913
0.0951495
0.0938585
0.0921196
0.0900457
0.087789
0.0855283
0.0835479
0.0821553
0.0816476
0.000510818
-2.13426e-05
-0.00116013
-0.0026977
-0.00441549
-0.00612574
-0.00767751
-0.00895005
-0.00985079
-0.0103118
-0.0102862
-0.00974468
-0.00867326
-0.00707051
-0.0049458
-0.00231758
0.000788027
0.00433831
0.00829501
0.0126152
0.0172517
0.0221543
0.0272697
0.0325424
0.0379149
0.0433285
0.0487234
0.0540394
0.0592165
0.0641954
0.0689184
0.0733297
0.0773769
0.0810116
0.0841902
0.0868759
0.0890392
0.0906597
0.0917278
0.092246
0.0922313
0.0917173
0.0907564
0.0894229
0.0878161
0.0860628
0.084317
0.0827702
0.0816445
0.0811399
0.00190766
0.00110688
-3.71716e-05
-0.00142112
-0.00291233
-0.00436882
-0.00566899
-0.00671323
-0.00742213
-0.0077352
-0.00760909
-0.00701558
-0.00593981
-0.00437848
-0.00233823
0.000165691
0.00311065
0.00646761
0.0102021
0.0142748
0.0186426
0.0232588
0.0280738
0.0330358
0.0380911
0.0431846
0.0482602
0.0532618
0.0581331
0.062819
0.0672656
0.0714217
0.0752389
0.078673
0.0816848
0.0842415
0.0863173
0.0878953
0.0889685
0.0895413
0.0896312
0.0892702
0.0885065
0.0874066
0.0860556
0.0845588
0.0830416
0.0816488
0.0805179
0.0797506
0.00389458
0.00264818
0.00132336
-8.30797e-05
-0.0015196
-0.0028758
-0.00405436
-0.00497556
-0.00557384
-0.00579778
-0.00560976
-0.00498478
-0.0039093
-0.00238
-0.000402568
0.00200942
0.00483542
0.00804882
0.0116177
0.0155057
0.0196724
0.0240739
0.0286637
0.0333929
0.0382106
0.0430647
0.0479022
0.0526698
0.0573143
0.0617835
0.0660268
0.0699958
0.0736453
0.0769338
0.0798251
0.0822887
0.084301
0.0858468
0.0869198
0.0875245
0.0876768
0.0874054
0.0867527
0.0857757
0.0845457
0.0831482
0.0816846
0.0802688
0.0789588
0.0777618
0.0061834
0.00440455
0.00280792
0.00128503
-0.000190046
-0.00153176
-0.0026633
-0.00352328
-0.00405971
-0.00423074
-0.00400531
-0.00336269
-0.00229181
-0.000790424
0.00113575
0.00347383
0.00620454
0.00930294
0.0127391
0.0164787
0.0204837
0.0247126
0.0291213
0.0336634
0.0382903
0.0429526
0.0475997
0.0521807
0.056645
0.0609427
0.0650258
0.068848
0.0723664
0.0755417
0.0783395
0.0807306
0.082693
0.0842116
0.0852803
0.0859022
0.0860908
0.0858703
0.0852768
0.0843577
0.083171
0.0817841
0.0802788
0.0787448
0.0771628
0.0754274
0.00853845
0.00620929
0.00429135
0.00258766
0.00100523
-0.000388708
-0.00153361
-0.00238402
-0.00290038
-0.00305009
-0.00280886
-0.00216075
-0.00109784
0.000380248
0.00226695
0.00454933
0.00720862
0.0102209
0.0135575
0.0171856
0.021069
0.0251681
0.0294407
0.0338421
0.0383261
0.042845
0.0473503
0.051793
0.0561244
0.0602965
0.0642628
0.0679789
0.0714033
0.0744979
0.0772293
0.0795692
0.0814955
0.0829932
0.0840548
0.0846816
0.0848837
0.0846809
0.0841025
0.0831869
0.0819804
0.080535
0.0789171
0.077199
0.0752969
0.0730232
0.0108095
0.00793165
0.00566602
0.0037383
0.00199854
0.000501492
-0.000704496
-0.00158718
-0.00211786
-0.00227242
-0.00203316
-0.00138905
-0.000335727
0.00112482
0.00298458
0.0052299
0.00784192
0.010797
0.0140674
0.0176212
0.0214233
0.0254355
0.0296169
0.0339245
0.0383136
0.0427378
0.04715
0.0515028
0.0557488
0.0598411
0.0637344
0.0673852
0.0707527
0.0737994
0.0764922
0.0788026
0.0807081
0.0821924
0.0832466
0.0838691
0.0840666
0.0838541
0.0832545
0.0822985
0.0810219
0.0794645
0.0776816
0.075734
0.0734831
0.0706675
0.0128778
0.009466
0.00684142
0.0046627
0.00273167
0.00109527
-0.000206941
-0.00115335
-0.00172444
-0.00190361
-0.00167927
-0.00104522
-7.57471e-07
0.00144942
0.00329543
0.00552245
0.008111
0.0110373
0.0142738
0.0177891
0.0215488
0.0255155
0.0296494
0.0339084
0.0382487
0.0426252
0.0469915
0.0513012
0.0555075
0.0595645
0.0634271
0.0670522
0.0703992
0.0734304
0.0761122
0.0784154
0.0803163
0.0817969
0.0828459
0.083459
0.0836392
0.0833966
0.0827485
0.0817185
0.0803344
0.0786263
0.0766417
0.0744351
0.071822
0.0684763
0.014656
0.0107278
0.00774052
0.00529403
0.00314884
0.00134762
-7.61183e-05
-0.00110916
-0.00173958
-0.00195728
-0.0017562
-0.00113471
-9.57749e-05
0.00135303
0.00319967
0.00542778
0.00801687
0.0109426
0.0141771
0.0176892
0.0214446
0.0254064
0.0295353
0.0337897
0.0381265
0.042501
0.0468675
0.0511798
0.0553914
0.0594566
0.0633303
0.066969
0.0703317
0.0733799
0.076079
0.0783984
0.0803125
0.0818013
0.0828509
0.0834537
0.0836088
0.083322
0.0826054
0.0814771
0.0799578
0.0780707
0.0758588
0.0733739
0.0703923
0.0665314
0.0160791
0.0116483
0.00829715
0.00557187
0.00319666
0.00121256
-0.000350707
-0.00148654
-0.00218924
-0.00245428
-0.00228053
-0.00167064
-0.000631166
0.000827367
0.00269057
0.00494027
0.00755464
0.0105084
0.0137731
0.0173171
0.0211061
0.0251032
0.0292692
0.0335627
0.0379406
0.0423585
0.0467707
0.051131
0.0553927
0.0595096
0.0634362
0.0671281
0.0705433
0.073642
0.0763879
0.0787486
0.0806962
0.082208
0.0832671
0.0838626
0.0839898
0.0836503
0.0828518
0.0816074
0.0799328
0.0778459
0.0753876
0.0726101
0.0692556
0.0648903
0.0170958
0.0121703
0.00845332
0.00544088
0.002824
0.000644059
-0.00107138
-0.00232087
-0.00310384
-0.00342054
-0.00327426
-0.00267166
-0.00162278
-0.000141136
0.00175639
0.00404959
0.00671503
0.00972619
0.0130536
0.0166651
0.0205258
0.0245985
0.0288436
0.0332196
0.0376834
0.04219
0.0466935
0.0511472
0.055504
0.0597166
0.0637385
0.0675242
0.0710299
0.074214
0.0770382
0.0794675
0.0814713
0.083024
0.0841052
0.0847005
0.0848016
0.0844059
0.0835172
0.0821446
0.0802998
0.0779972
0.0752774
0.0721951
0.0684618
0.0635955
0.0176636
0.0122437
0.00815639
0.00484898
0.00198102
-0.000404457
-0.00228079
-0.00365063
-0.00451772
-0.00488648
-0.00476423
-0.0041614
-0.00309146
-0.00157093
0.000380695
0.00274098
0.00548464
0.00858363
0.0120073
0.0157224
0.0196933
0.0238821
0.0282488
0.0327512
0.0373456
0.0419866
0.0466275
0.0512207
0.0557181
0.0600713
0.0642321
0.0681534
0.0717893
0.0750959
0.078032
0.08056
0.0826459
0.0842607
0.0853804
0.0859869
0.0860678
0.0856169
0.0846343
0.0831257
0.0810998
0.0785687
0.0755742
0.0721749
0.0680534
0.0626805
0.0177443
0.0118223
0.00735652
0.00374556
0.00061792
-0.00198076
-0.0040239
-0.00551752
-0.00646914
-0.00688692
-0.00678197
-0.00616834
-0.00506288
-0.00348519
-0.00145752
0.000995302
0.00384593
0.00706455
0.010619
0.0144748
0.0185953
0.0229416
0.0274728
0.032146
0.0369165
0.0417381
0.0465632
0.051343
0.0560278
0.0605677
0.0649127
0.0690134
0.0728213
0.0762897
0.0793745
0.0820343
0.0842317
0.0859336
0.0871122
0.0877452
0.0878162
0.0873154
0.0862392
0.0845904
0.0823755
0.0796049
0.0763227
0.0725928
0.0680688
0.0621743
0.0173009
0.010861
0.00600445
0.00207971
-0.00131628
-0.00413472
-0.00634854
-0.00796678
-0.00900038
-0.00946107
-0.00936358
-0.00872558
-0.00756736
-0.00591168
-0.00378369
-0.0012108
0.00177736
0.00514898
0.0088702
0.012905
0.0172155
0.0217615
0.026501
0.0313902
0.0363834
0.041433
0.0464902
0.0515047
0.0564252
0.0611998
0.0657762
0.0701023
0.0741268
0.0777996
0.0810729
0.0839014
0.0862435
0.0880618
0.0893239
0.0900031
0.0900789
0.0895373
0.0883714
0.0865815
0.0841717
0.0811515
0.0775682
0.0734917
0.0685459
0.0621049
0.0162947
0.00931346
0.00404938
-0.000201415
-0.00387507
-0.00691924
-0.00930612
-0.0110476
-0.012158
-0.0126526
-0.0125498
-0.0118709
-0.0106398
-0.00888255
-0.00662748
-0.00390475
-0.000746491
0.0028133
0.0067388
0.0109923
0.0155344
0.0203235
0.0253165
0.0304681
0.0357313
0.0410575
0.0463961
0.0516952
0.0569016
0.061961
0.0668184
0.0714189
0.0757076
0.0796309
0.0831364
0.0861747
0.0886991
0.0906675
0.0920425
0.0927923
0.0928919
0.092323
0.0910751
0.0891457
0.086537
0.0832578
0.0793587
0.0749167
0.0695241
0.062502
0.0146838
0.00712993
0.00143724
-0.00315416
-0.00711568
-0.0103913
-0.0129524
-0.0148137
-0.0159933
-0.0165099
-0.0163859
-0.0156466
-0.0143195
-0.0124344
-0.0100228
-0.00711798
-0.00375482
3.02887e-05
0.00419939
0.00871291
0.0135297
0.0186067
0.0238993
0.029361
0.0349433
0.040596
0.046267
0.0519025
0.0574469
0.0628436
0.0680346
0.0729616
0.0775659
0.0817894
0.0855755
0.0888692
0.0916187
0.0937761
0.0952985
0.0961485
0.0962958
0.0957175
0.094399
0.0923347
0.0895249
0.0859773
0.0817467
0.0769173
0.071047
0.0633994
0.0124208
0.0042557
-0.00189103
-0.00683986
-0.0111004
-0.014613
-0.0173481
-0.0193241
-0.0205626
-0.0210865
-0.0209224
-0.0200998
-0.0186504
-0.0166079
-0.0140075
-0.0108858
-0.00728051
-0.00323073
0.00122325
0.00603982
0.011176
0.0165872
0.0222272
0.028048
0.0339998
0.0400307
0.0460868
0.0521123
0.0580495
0.0638387
0.069419
0.0747281
0.0797033
0.0842818
0.0884013
0.0920016
0.0950244
0.0974157
0.0991259
0.100111
0.100336
0.099771
0.0983975
0.0962061
0.0931947
0.0893701
0.0847909
0.0795491
0.0731644
0.0648375
0.0094511
0.000629262
-0.00600107
-0.0113264
-0.015898
-0.0196526
-0.0225604
-0.0246434
-0.0259279
-0.0264411
-0.0262145
-0.0252824
-0.023681
-0.0214484
-0.0186237
-0.0152472
-0.0113599
-0.00700369
-0.00222141
0.00294319
0.00844521
0.0142384
0.020275
0.0265056
0.0328788
0.0393412
0.0458371
0.0523087
0.0586957
0.0649356
0.0709642
0.0767152
0.0821211
0.087114
0.0916258
0.0955896
0.0989405
0.101617
0.103562
0.104725
0.105063
0.104539
0.103131
0.100824
0.0976136
0.0935039
0.0885579
0.0828758
0.0759348
0.0668651
0.00571157
-0.00381931
-0.0109667
-0.0166894
-0.0215847
-0.0255859
-0.0286631
-0.0308432
-0.0321574
-0.0326384
-0.0323231
-0.0312512
-0.0294641
-0.0270048
-0.0239169
-0.0202445
-0.0160324
-0.0113255
-0.00616912
-0.000609463
0.00530668
0.0115314
0.0180154
0.0247079
0.031556
0.0385049
0.0454972
0.0524729
0.0593695
0.0661216
0.0726612
0.0789179
0.0848193
0.0902916
0.0952604
0.0996515
0.103392
0.106413
0.108648
0.110038
0.110531
0.110085
0.108668
0.106262
0.102857
0.0984558
0.0931246
0.0869718
0.079427
0.0695421
0.00112868
-0.00917
-0.0168716
-0.0230142
-0.0282459
-0.032497
-0.0357383
-0.0380022
-0.0393261
-0.0397492
-0.0393145
-0.038068
-0.0360572
-0.0333304
-0.0299362
-0.0259234
-0.0213404
-0.0162354
-0.0106568
-0.00465282
0.00172761
0.00843502
0.0154187
0.0226267
0.0300048
0.0374968
0.0450438
0.0525841
0.0600527
0.0673814
0.0744985
0.0813293
0.0877961
0.093819
0.0993163
0.104206
0.108406
0.111838
0.114427
0.116102
0.116803
0.116477
0.115085
0.112602
0.109012
0.104314
0.0985794
0.0919235
0.0837225
0.0729408
-0.004383
-0.0155145
-0.0238108
-0.0303969
-0.0359774
-0.04048
-0.0438769
-0.0462075
-0.0475165
-0.0478508
-0.0472607
-0.0457995
-0.0435216
-0.0404817
-0.0367338
-0.0323318
-0.0273281
-0.0217747
-0.0157228
-0.00922307
-0.00232622
0.00491672
0.0124539
0.0202322
0.0281966
0.0362898
0.0444518
0.0526191
0.0607246
0.0686974
0.0764623
0.0839402
0.0910479
0.0976987
0.103803
0.109271
0.11401
0.117931
0.120946
0.122975
0.123945
0.123792
0.122467
0.119935
0.116175
0.111181
0.105025
0.0978323
0.0889181
0.0771492
-0.0109226
-0.0229582
-0.0318926
-0.0389466
-0.0448871
-0.0496401
-0.0531801
-0.0555551
-0.0568189
-0.0570272
-0.0562393
-0.0545171
-0.0519229
-0.0485184
-0.0443642
-0.0395194
-0.0340413
-0.0279856
-0.0214065
-0.014357
-0.00688964
0.000943279
0.00908902
0.0174937
0.0261019
0.0348556
0.0436939
0.0525523
0.0613619
0.0700494
0.0785362
0.0867388
0.0945684
0.101931
0.10873
0.114864
0.120231
0.124728
0.128256
0.130719
0.132031
0.132115
0.130909
0.128368
0.12446
0.119173
0.112581
0.104817
0.0951283
0.0822727
-0.0186046
-0.0316219
-0.0412405
-0.0487866
-0.0550965
-0.0600949
-0.0637603
-0.0661511
-0.0673321
-0.0673697
-0.066334
-0.0642967
-0.0613295
-0.0575023
-0.052883
-0.0475367
-0.0415258
-0.0349099
-0.0277464
-0.0200907
-0.0119968
-0.00351798
0.00529249
0.0143806
0.0236907
0.0331649
0.042742
0.0523569
0.0619396
0.0714148
0.080701
0.0897104
0.0983486
0.106515
0.114103
0.121002
0.127096
0.13227
0.136409
0.139401
0.141142
0.141541
0.140519
0.138018
0.133993
0.128423
0.121384
0.113015
0.102488
0.0884379
-0.0275615
-0.0416442
-0.0519955
-0.0600575
-0.0667429
-0.0719765
-0.0757427
-0.0781123
-0.0791638
-0.0789766
-0.0776334
-0.0752179
-0.0718125
-0.0674966
-0.0623462
-0.0564333
-0.0498258
-0.0425876
-0.0347792
-0.0264581
-0.0176796
-0.00849765
0.00103455
0.0108634
0.0209339
0.0311888
0.0415675
0.0520051
0.0624312
0.0727691
0.0829351
0.0928376
0.102377
0.111445
0.119926
0.127698
0.134633
0.140597
0.14546
0.149091
0.151366
0.152174
0.151417
0.149018
0.14492
0.139088
0.131595
0.12259
0.111156
0.0957949
-0.0379456
-0.0531844
-0.0643191
-0.0729188
-0.0799813
-0.0854331
-0.0892662
-0.0915673
-0.0924313
-0.0919533
-0.0902314
-0.0873632
-0.0834438
-0.0785636
-0.0728079
-0.0662562
-0.0589823
-0.0510547
-0.042537
-0.0334886
-0.0239657
-0.0140223
-0.00371088
0.00691601
0.017805
0.0289004
0.0401431
0.0514695
0.0628096
0.0740866
0.0852151
0.0961005
0.106638
0.116713
0.126201
0.134966
0.142865
0.149749
0.155467
0.159865
0.162797
0.164128
0.163735
0.161521
0.157408
0.151344
0.1434
0.133729
0.12132
0.104522
-0.0499323
-0.0664252
-0.0783959
-0.0875527
-0.0949878
-0.100631
-0.104486
-0.106657
-0.107261
-0.106412
-0.104225
-0.100817
-0.0962948
-0.0907635
-0.0843183
-0.0770471
-0.0690303
-0.0603408
-0.0510452
-0.0412047
-0.0308758
-0.0201118
-0.00896387
0.00251775
0.0142821
0.0262764
0.0384442
0.0507243
0.0630486
0.0753411
0.0875162
0.0994772
0.111115
0.122309
0.132924
0.142813
0.151817
0.159767
0.166488
0.171804
0.175539
0.177529
0.177623
0.175696
0.171644
0.165396
0.157013
0.146654
0.133198
0.114829
-0.0637232
-0.0815775
-0.0944383
-0.104167
-0.111962
-0.117758
-0.121573
-0.123537
-0.12379
-0.12247
-0.119716
-0.115661
-0.110434
-0.104151
-0.0969206
-0.0888397
-0.0799953
-0.0704654
-0.0603192
-0.0496189
-0.038421
-0.026777
-0.0147357
-0.00234416
0.0103506
0.0232998
0.0364512
0.0497475
0.0631242
0.0765077
0.0898134
0.102944
0.115788
0.128219
0.140092
0.151247
0.161509
0.170689
0.178585
0.184992
0.189702
0.192515
0.193247
0.191736
0.187847
0.18148
0.172685
0.161622
0.147049
0.126965
-0.0795511
-0.0988843
-0.112691
-0.123002
-0.131131
-0.137024
-0.140718
-0.142375
-0.142163
-0.140251
-0.136803
-0.131978
-0.125923
-0.118772
-0.110647
-0.101655
-0.0918901
-0.0814346
-0.0703603
-0.05873
-0.0465987
-0.0340156
-0.0210257
-0.00767138
0.0060055
0.0199619
0.0341516
0.048523
0.0630168
0.0775639
0.0920829
0.106478
0.120635
0.134425
0.147694
0.16027
0.17196
0.182552
0.191818
0.199517
0.205404
0.209239
0.210792
0.209859
0.206263
0.199868
0.190706
0.178935
0.163174
0.14122
-0.0976849
-0.118628
-0.133438
-0.144332
-0.152755
-0.158668
-0.162135
-0.163354
-0.162535
-0.159879
-0.155586
-0.14984
-0.142814
-0.13466
-0.125516
-0.115498
-0.10471
-0.0932364
-0.0811519
-0.0685186
-0.0553891
-0.0418088
-0.0278174
-0.0134511
0.00125518
0.0162661
0.0315433
0.0470429
0.0627133
0.0784922
0.0943034
0.110055
0.125634
0.140908
0.155717
0.169879
0.183182
0.19539
0.206245
0.215469
0.222772
0.227863
0.230461
0.230308
0.227174
0.220874
0.211416
0.198946
0.18193
0.157937
-0.118437
-0.141139
-0.157012
-0.168477
-0.177132
-0.182959
-0.186058
-0.186674
-0.185066
-0.181481
-0.176155
-0.169309
-0.161142
-0.151829
-0.141522
-0.130352
-0.118426
-0.105835
-0.0926542
-0.0789431
-0.0647509
-0.0501173
-0.0350751
-0.0196527
-0.00387561
0.0122303
0.0286367
0.0453103
0.0622094
0.0792812
0.096458
0.113654
0.130761
0.147646
0.164146
0.180067
0.195183
0.209233
0.221925
0.232939
0.241936
0.248566
0.252482
0.253361
0.250903
0.244864
0.235209
0.22207
0.203736
0.177523
-0.142174
-0.166806
-0.183801
-0.195812
-0.204607
-0.210204
-0.212747
-0.212548
-0.209923
-0.205176
-0.198592
-0.19043
-0.180922
-0.170267
-0.158636
-0.146168
-0.132981
-0.119167
-0.104799
-0.0899343
-0.0746161
-0.0588768
-0.04274
-0.0262237
-0.00934246
0.00789005
0.0254583
0.0433417
0.0615119
0.0799286
0.0985358
0.117258
0.135994
0.154615
0.172958
0.190822
0.207964
0.224102
0.238909
0.252018
0.263034
0.271537
0.277105
0.279328
0.277822
0.27226
0.262553
0.248801
0.22909
0.200454
-0.169327
-0.196091
-0.214269
-0.226776
-0.235581
-0.240748
-0.242491
-0.2412
-0.237271
-0.231075
-0.222955
-0.213219
-0.202135
-0.189929
-0.176788
-0.162865
-0.148282
-0.133131
-0.117484
-0.101391
-0.0848868
-0.0679946
-0.0507264
-0.0330874
-0.0150785
0.0033015
0.0220523
0.0411695
0.0606408
0.0804422
0.100533
0.120852
0.141311
0.161789
0.182127
0.20212
0.221517
0.24001
0.25724
0.272792
0.286205
0.29698
0.304603
0.308559
0.308356
0.303557
0.293997
0.279725
0.258587
0.227302
-0.200414
-0.229555
-0.248976
-0.261893
-0.27052
-0.274989
-0.275605
-0.272867
-0.267269
-0.259267
-0.249276
-0.237659
-0.224723
-0.210724
-0.195867
-0.180315
-0.164191
-0.147587
-0.130567
-0.113174
-0.0954302
-0.0773461
-0.0589195
-0.0401401
-0.0209922
-0.00145726
0.0184829
0.0388429
0.0596303
0.0808411
0.102455
0.124429
0.146692
0.169139
0.191619
0.213932
0.235819
0.256956
0.276949
0.295335
0.311583
0.325104
0.335272
0.341445
0.342992
0.339335
0.330194
0.315544
0.292944
0.258751
-0.236064
-0.267881
-0.2886
-0.301794
-0.309974
-0.313377
-0.312435
-0.307789
-0.300061
-0.289813
-0.277544
-0.263679
-0.248573
-0.232508
-0.215707
-0.198337
-0.180522
-0.162346
-0.143864
-0.125105
-0.106077
-0.0867727
-0.0671734
-0.0472498
-0.0269668
-0.00628541
0.0148341
0.0364287
0.0585292
0.0811559
0.104313
0.127982
0.152116
0.17663
0.201391
0.226211
0.25083
0.274916
0.298045
0.319706
0.339295
0.356121
0.369429
0.378422
0.382292
0.380273
0.371928
0.357112
0.333034
0.295628
-0.277053
-0.311923
-0.333984
-0.347243
-0.354591
-0.356423
-0.35335
-0.3462
-0.335759
-0.322721
-0.307684
-0.291144
-0.273502
-0.255066
-0.236072
-0.216687
-0.197028
-0.177167
-0.157141
-0.136962
-0.116618
-0.0960814
-0.0753115
-0.0542574
-0.0328613
-0.0110606
0.0112087
0.0340094
0.0573993
0.0814269
0.106126
0.131509
0.157559
0.18422
0.211387
0.238891
0.266487
0.293838
0.320506
0.345933
0.369442
0.390234
0.407405
0.41997
0.426896
0.427173
0.420141
0.405473
0.379933
0.338949
-0.324363
-0.362763
-0.386184
-0.399179
-0.405143
-0.404708
-0.398736
-0.388311
-0.374425
-0.357931
-0.339542
-0.31983
-0.299239
-0.278101
-0.256652
-0.235052
-0.213402
-0.191751
-0.170116
-0.14848
-0.126808
-0.105046
-0.0831289
-0.0609791
-0.0385131
-0.0156423
0.00772501
0.0316803
0.0563119
0.0817008
0.107915
0.135005
0.16299
0.191854
0.221529
0.251879
0.282687
0.31363
0.344263
0.373997
0.402087
0.427621
0.449529
0.466604
0.477534
0.480984
0.475981
0.461922
0.434988
0.389979
-0.379261
-0.421805
-0.44655
-0.458765
-0.462544
-0.458875
-0.448983
-0.434284
-0.416034
-0.395275
-0.372848
-0.349399
-0.325408
-0.301214
-0.277046
-0.253039
-0.229266
-0.205744
-0.182456
-0.159353
-0.136368
-0.113415
-0.090398
-0.0672123
-0.043745
-0.0198779
0.00451047
0.0295432
0.0553421
0.0820247
0.109699
0.138456
0.168364
0.199455
0.23171
0.265044
0.299283
0.334138
0.36918
0.403808
0.437223
0.468406
0.496109
0.518868
0.535025
0.542823
0.540851
0.528085
0.499915
0.450324
-0.443431
-0.490914
-0.516832
-0.527455
-0.527876
-0.519629
-0.504447
-0.484188
-0.460433
-0.434443
-0.407185
-0.379371
-0.351499
-0.323895
-0.296754
-0.270173
-0.244176
-0.218736
-0.193788
-0.169242
-0.144991
-0.120913
-0.0968766
-0.0727447
-0.0483728
-0.0236114
0.00169327
0.0276978
0.0545605
0.0824381
0.111482
0.141834
0.173615
0.206916
0.241784
0.2782
0.316058
0.355128
0.395026
0.435172
0.474739
0.512619
0.547388
0.577297
0.600271
0.614006
0.616481
0.60604
0.576946
0.52207
-0.519174
-0.572619
-0.599338
-0.607072
-0.602404
-0.587698
-0.565398
-0.537934
-0.507277
-0.474917
-0.441938
-0.409089
-0.37685
-0.345501
-0.315174
-0.285897
-0.257626
-0.230269
-0.203702
-0.177784
-0.152358
-0.12726
-0.10232
-0.0773658
-0.0522181
-0.0266948
-0.000608854
0.0262314
0.0540221
0.0829618
0.11325
0.145081
0.178639
0.214085
0.251546
0.291091
0.332706
0.376255
0.421441
0.467743
0.51436
0.560133
0.603484
0.642368
0.674226
0.696061
0.705012
0.698469
0.669048
0.608002
-0.609755
-0.67044
-0.697146
-0.699904
-0.687572
-0.663771
-0.631924
-0.595177
-0.555934
-0.515906
-0.476247
-0.437685
-0.400627
-0.365256
-0.331597
-0.299576
-0.269052
-0.23985
-0.211771
-0.184608
-0.158149
-0.132183
-0.106498
-0.0808814
-0.0551215
-0.0290017
-0.00230157
0.0252058
0.0537547
0.0835868
0.114951
0.1481
0.183287
0.220753
0.260721
0.303369
0.348805
0.39703
0.447882
0.500967
0.555575
0.610571
0.664287
0.714402
0.757828
0.790721
0.809086
0.808892
0.780265
0.711969
-0.71999
-0.789407
-0.814413
-0.808786
-0.784939
-0.748362
-0.703772
-0.655163
-0.605372
-0.556253
-0.508939
-0.464039
-0.421802
-0.38224
-0.345218
-0.310512
-0.277859
-0.246973
-0.217565
-0.189354
-0.162066
-0.135435
-0.109207
-0.0831308
-0.0569586
-0.030442
-0.00332793
0.0246442
0.0537458
0.084261
0.116489
0.150743
0.187348
0.226638
0.268942
0.31457
0.363789
0.416779
0.473577
0.534
0.597532
0.66318
0.729302
0.793396
0.851859
0.899863
0.931937
0.941974
0.916255
0.839516
-0.857335
-0.936872
-0.956759
-0.937141
-0.896015
-0.841557
-0.780099
-0.716524
-0.653991
-0.59433
-0.538474
-0.48676
-0.439156
-0.39541
-0.355155
-0.317975
-0.283443
-0.251144
-0.220686
-0.191702
-0.163852
-0.136817
-0.110297
-0.0840032
-0.0576558
-0.030976
-0.00368157
0.024519
0.0539311
0.0848789
0.11771
0.152796
0.190541
0.231371
0.275737
0.324102
0.376919
0.4346
0.497458
0.565622
0.63891
0.716649
0.797425
0.878762
0.956678
1.02533
1.07743
1.10392
1.08514
0.999032
-1.03396
-1.12381
-1.13174
-1.08888
-1.02189
-0.942588
-0.859088
-0.776987
-0.699443
-0.627929
-0.56289
-0.504171
-0.451293
-0.403625
-0.360492
-0.321234
-0.28523
-0.251918
-0.220792
-0.191396
-0.163322
-0.136198
-0.109682
-0.0834539
-0.0572032
-0.0306265
-0.00341675
0.024743
0.0541872
0.0852749
0.118397
0.153983
0.192507
0.234495
0.280525
0.331224
0.387266
0.44934
0.518112
0.594146
0.677774
0.768887
0.866626
0.968916
1.07177
1.16853
1.24993
1.30296
1.29885
1.20395
-1.27098
-1.36682
-1.34912
-1.26787
-1.16244
-1.04908
-0.937372
-0.832989
-0.738404
-0.654158
-0.579785
-0.514336
-0.456687
-0.405705
-0.36033
-0.319614
-0.282724
-0.248939
-0.217635
-0.188271
-0.160376
-0.133532
-0.107362
-0.081516
-0.0556648
-0.0294854
-0.00265366
0.025166
0.0543296
0.0852233
0.118274
0.153959
0.19282
0.235472
0.28262
0.335064
0.393711
0.459571
0.533736
0.617331
0.711409
0.816747
0.933504
1.06064
1.19491
1.32959
1.45374
1.5496
1.57517
1.47724
-1.60724
-1.69114
-1.62039
-1.47619
-1.31454
-1.15564
-1.0091
-0.879127
-0.766297
-0.669342
-0.586308
-0.5151
-0.453744
-0.400493
-0.353847
-0.312549
-0.275547
-0.241969
-0.211083
-0.182275
-0.155023
-0.128872
-0.10342
-0.0783038
-0.053179
-0.0277144
-0.00157721
0.0255771
0.0541161
0.0844427
0.117008
0.152325
0.190988
0.23369
0.281247
0.334624
0.39496
0.463601
0.542117
0.632305
0.736145
0.855669
0.992663
1.14805
1.32069
1.50542
1.69124
1.85603
1.94076
1.86054
-2.11458
-2.1343
-1.95684
-1.71116
-1.46939
-1.25208
-1.06493
-0.907731
-0.777204
-0.669099
-0.579311
-0.504258
-0.440956
-0.386985
-0.340402
-0.299653
-0.263496
-0.230932
-0.20115
-0.173485
-0.147381
-0.122368
-0.0980337
-0.0740096
-0.0499532
-0.0255349
-0.000424531
0.02572
0.0532659
0.0826193
0.11424
0.14866
0.186504
0.22852
0.275608
0.328864
0.389634
0.459577
0.540743
0.635651
0.747367
0.879523
1.03622
1.22158
1.4386
1.68698
1.95972
2.23419
2.43475
2.42932
-2.9236
-2.74629
-2.366
-1.96317
-1.61137
-1.32331
-1.09272
-0.909911
-0.764988
-0.649384
-0.556247
-0.48029
-0.417492
-0.364804
-0.319906
-0.281021
-0.246776
-0.216099
-0.18814
-0.162217
-0.137771
-0.114334
-0.0915041
-0.0689243
-0.046266
-0.0232142
0.000546012
0.0253422
0.0515277
0.0794964
0.109699
0.142664
0.179022
0.219537
0.265153
0.317045
0.376699
0.446016
0.527448
0.624189
0.740413
0.88157
1.05468
1.26844
1.53292
1.85801
2.24895
2.69171
3.10802
3.31773
-4.33084
-3.56737
-2.82348
-2.19857
-1.71004
-1.34549
-1.07616
-0.875396
-0.72358
-0.606854
-0.515469
-0.442574
-0.383326
-0.334255
-0.29284
-0.257212
-0.225971
-0.198045
-0.172603
-0.148987
-0.126668
-0.105206
-0.084228
-0.0634066
-0.0424408
-0.021043
0.00107413
0.0242106
0.0486921
0.0748844
0.10321
0.134168
0.168362
0.206535
0.249612
0.298775
0.355544
0.421923
0.50059
0.595191
0.71078
0.85447
1.03635
1.27072
1.57783
1.98538
2.5232
3.20192
4.0006
4.83033
-7.16591
-4.56649
-3.14816
-2.26323
-1.65756
-1.24865
-0.970964
-0.776218
-0.635001
-0.529588
-0.448773
-0.385246
-0.334123
-0.292049
-0.256653
-0.226224
-0.199497
-0.175519
-0.153559
-0.133044
-0.113518
-0.0946046
-0.0759876
-0.0573893
-0.0385561
-0.0192456
0.000786091
0.0217937
0.0440567
0.067891
0.0936642
0.121814
0.152874
0.187502
0.226529
0.271021
0.322369
0.382431
0.453742
0.539858
0.645905
0.779515
0.952355
1.18283
1.50135
1.95823
2.62301
3.58035
5.08474
7.80281
-12.0343
-5.64936
-2.9841
-1.88702
-1.29223
-0.939989
-0.722767
-0.579116
-0.477744
-0.402798
-0.345391
-0.3001
-0.263421
-0.232976
-0.207092
-0.184554
-0.164463
-0.146139
-0.129059
-0.112813
-0.0970776
-0.0815843
-0.066109
-0.0504547
-0.0344409
-0.0178935
-0.000636532
0.017518
0.0367776
0.0573794
0.0796015
0.103777
0.130312
0.159706
0.192589
0.229761
0.27226
0.321462
0.379227
0.44816
0.532045
0.636662
0.771372
0.952625
1.21244
1.61469
2.27598
3.468
6.25007
12.7601
)
;

boundaryField
{
    movingWall
    {
        type            zeroGradient;
    }
    fixedWalls
    {
        type            zeroGradient;
    }
    frontAndBack
    {
        type            empty;
    }
}


// ************************************************************************* //
