/*--------------------------------*- C++ -*----------------------------------*\
  =========                 |
  \\      /  F ield         | OpenFOAM: The Open Source CFD Toolbox
   \\    /   O peration     | Website:  https://openfoam.org
    \\  /    A nd           | Version:  7
     \\/     M anipulation  |
\*---------------------------------------------------------------------------*/
FoamFile
{
    version     2.0;
    format      ascii;
    class       volScalarField;
    location    "0.0254";
    object      p;
}
// * * * * * * * * * * * * * * * * * * * * * * * * * * * * * * * * * * * * * //

dimensions      [0 2 -2 0 0 0 0];

internalField   nonuniform List<scalar> 
2500
(
-1.06478e-07
-0.000533099
-0.00192402
-0.00386336
-0.00602961
-0.00816689
-0.0100928
-0.0116678
-0.0127915
-0.013395
-0.0134342
-0.0128847
-0.0117385
-0.0100005
-0.00768655
-0.00482147
-0.00143752
0.00242692
0.00672836
0.011419
0.0164473
0.021759
0.027297
0.0330024
0.0388142
0.0446705
0.050508
0.0562633
0.0618726
0.0672726
0.0724013
0.0771983
0.081606
0.0855702
0.0890415
0.0919765
0.0943391
0.0961019
0.0972485
0.0977749
0.0976924
0.0970298
0.0958377
0.094192
0.0922009
0.0900115
0.087808
0.0858552
0.0844693
0.08395
0.000543019
8.62925e-06
-0.0011155
-0.00261671
-0.00428542
-0.00593495
-0.00741608
-0.00861095
-0.00942965
-0.00980684
-0.00969783
-0.00907546
-0.00792732
-0.00625333
-0.00406381
-0.00137793
0.00177774
0.00537037
0.00936187
0.0137096
0.0183673
0.0232853
0.0284114
0.0336912
0.0390687
0.0444863
0.0498857
0.0552081
0.060395
0.0653885
0.0701318
0.0745704
0.0786526
0.0823306
0.0855612
0.0883073
0.0905391
0.0922355
0.0933854
0.0939901
0.0940643
0.0936393
0.0927649
0.0915121
0.0899771
0.0882834
0.0865836
0.0850655
0.083947
0.0834308
0.00194126
0.00113651
4.26107e-06
-0.00134844
-0.00279523
-0.00419639
-0.00543237
-0.00640594
-0.00703989
-0.00727587
-0.00707241
-0.00640307
-0.0052545
-0.00362451
-0.0015206
0.00104132
0.00403816
0.00744075
0.0112147
0.015321
0.019717
0.0243566
0.0291913
0.0341699
0.03924
0.0443476
0.0494378
0.0544554
0.0593457
0.0640544
0.0685288
0.0727183
0.0765754
0.0800563
0.083122
0.0857394
0.0878824
0.0895334
0.0906843
0.091338
0.0915103
0.0912311
0.0905464
0.0895201
0.0882346
0.0867926
0.0853173
0.0839514
0.0828277
0.0820473
0.00390504
0.00265265
0.00134218
-3.35609e-05
-0.00142733
-0.00273081
-0.00384866
-0.00470315
-0.00523064
-0.00538161
-0.00512001
-0.00442234
-0.00327638
-0.00167978
0.000361016
0.00283178
0.00571155
0.00897356
0.012586
0.0165126
0.0207134
0.0251452
0.0297619
0.0345155
0.0393561
0.0442324
0.0490924
0.0538839
0.0585547
0.0630536
0.0673306
0.0713383
0.0750318
0.0783701
0.0813171
0.0838421
0.0859213
0.0875386
0.0886868
0.0893692
0.0896001
0.0894064
0.0888286
0.0879213
0.0867538
0.085409
0.0839866
0.0825981
0.0812971
0.0800821
0.00614453
0.00436788
0.00278983
0.00129937
-0.000132553
-0.00142226
-0.00249464
-0.00329004
-0.00375815
-0.00385876
-0.00356213
-0.00284878
-0.00170874
-0.000140628
0.00184917
0.0042472
0.00703378
0.0101838
0.0136674
0.0174505
0.0214951
0.0257604
0.0302026
0.0347761
0.0394331
0.044125
0.0488018
0.0534138
0.057911
0.0622445
0.0663667
0.0702323
0.0737985
0.0770266
0.0798821
0.0823358
0.0843652
0.0859548
0.0870974
0.0877951
0.08806
0.0879149
0.0873941
0.086543
0.0854178
0.0840837
0.0826208
0.0811167
0.0795494
0.0778145
0.00843488
0.00611693
0.00422355
0.00255596
0.00101901
-0.000321757
-0.00140732
-0.00219367
-0.00264266
-0.0027231
-0.00241176
-0.00169375
-0.000562095
0.000982887
0.00293404
0.0052779
0.00799536
0.0110623
0.0144501
0.0181262
0.0220544
0.0261955
0.0305076
0.0349468
0.0394674
0.0440224
0.0485639
0.0530438
0.057414
0.0616273
0.0656377
0.0694014
0.0728773
0.0760275
0.0788188
0.0812227
0.0832168
0.0847856
0.0859208
0.0866228
0.0869005
0.0867723
0.0862661
0.0854187
0.0842745
0.0828838
0.0813113
0.0796274
0.0777458
0.0754773
0.0106244
0.00777013
0.00553715
0.00365103
0.00196082
0.000519812
-0.00062507
-0.00144275
-0.00190567
-0.00199085
-0.00168143
-0.000967255
0.000155267
0.00168355
0.00360908
0.00591778
0.00859047
0.0116034
0.0149287
0.0185347
0.0223863
0.0264456
0.0306721
0.0350232
0.0394546
0.0439207
0.048375
0.0527705
0.0570605
0.0611989
0.0651407
0.068843
0.0722653
0.0753705
0.0781254
0.0805015
0.082476
0.0840323
0.0851606
0.0858587
0.0861323
0.0859951
0.0854688
0.0845826
0.0833709
0.0818719
0.0801393
0.0782321
0.0760102
0.0732109
0.0125977
0.00922419
0.00664212
0.00451202
0.00263609
0.00105996
-0.000178056
-0.00105727
-0.00155903
-0.00166763
-0.00137211
-0.000666961
0.000447866
0.0019672
0.00388078
0.0061734
0.00882531
0.0118126
0.0151077
0.0186792
0.0224929
0.0265116
0.0306955
0.0350032
0.0393911
0.0438147
0.0482282
0.0525855
0.0568407
0.060948
0.0648631
0.0685433
0.0719483
0.0750406
0.0777868
0.0801576
0.0821291
0.083683
0.0848075
0.0854975
0.0857552
0.0855897
0.0850173
0.0840603
0.0827451
0.0811005
0.0791727
0.0770144
0.0744407
0.071126
0.0142707
0.0103969
0.00746346
0.00507389
0.00299052
0.00125491
-0.000100477
-0.00106309
-0.00162162
-0.00176665
-0.00149254
-0.000798199
0.000312881
0.00183279
0.0037492
0.00604543
0.00870076
0.0116908
0.0149875
0.0185598
0.0223734
0.0263916
0.0305752
0.034883
0.0392722
0.0436986
0.0481168
0.0524812
0.0567459
0.0608654
0.0647952
0.0684922
0.0719158
0.0750277
0.0777934
0.0801824
0.082169
0.0837329
0.0848598
0.0855415
0.0857764
0.0855695
0.0849321
0.0838809
0.0824359
0.0806188
0.0784714
0.076044
0.0731138
0.0693006
0.0155811
0.0112222
0.00793712
0.00527799
0.00297225
0.00106
-0.000429897
-0.00149123
-0.00211869
-0.00230821
-0.00205891
-0.00137383
-0.000259898
0.00127212
0.00320766
0.00552828
0.00821195
0.0112333
0.0145638
0.0181719
0.0220232
0.0260809
0.030306
0.0346572
0.039092
0.043566
0.0480342
0.0524506
0.0567691
0.0609438
0.0649297
0.068683
0.0721617
0.0753265
0.0781412
0.0805736
0.0825957
0.0841847
0.0853233
0.0860002
0.0862102
0.0859541
0.085239
0.0840769
0.0824828
0.0804735
0.0780887
0.075379
0.0720891
0.0677895
0.0164804
0.0116451
0.00800712
0.00507075
0.0025317
0.000430536
-0.00120584
-0.00237611
-0.00307985
-0.0033176
-0.00309272
-0.00241209
-0.00128601
0.000271903
0.00224464
0.00461181
0.0073498
0.010432
0.0138289
0.0175083
0.0214352
0.0255725
0.0298808
0.0343187
0.0388433
0.04341
0.0479733
0.0524867
0.0569036
0.0611772
0.0652613
0.0691109
0.0726825
0.075935
0.0788301
0.0813331
0.0834135
0.0850456
0.0862088
0.0868884
0.0870756
0.0867674
0.0859669
0.0846825
0.0829253
0.0807087
0.0780723
0.0750691
0.0714146
0.0666333
0.0169287
0.0116178
0.00762294
0.00440198
0.00162068
-0.000678612
-0.00246971
-0.00375514
-0.00453858
-0.00482452
-0.00462021
-0.00393613
-0.00278586
-0.00118596
0.000844044
0.00328157
0.00610119
0.00927477
0.0127716
0.0165583
0.0205994
0.0248567
0.0292904
0.0338585
0.0385175
0.0432222
0.0479263
0.0525825
0.0571431
0.06156
0.0657856
0.069773
0.0734769
0.0768538
0.0798628
0.0824664
0.0846309
0.0863273
0.0875316
0.0882253
0.088396
0.088037
0.0871479
0.0857339
0.0838032
0.0813672
0.0784665
0.0751585
0.0711307
0.0658632
0.0168903
0.0110965
0.00673689
0.00322299
0.00019109
-0.00231373
-0.00426519
-0.00566893
-0.00653219
-0.006863
-0.00667222
-0.0059738
-0.00478461
-0.00312417
-0.00101472
0.00151882
0.00444897
0.00774582
0.0113772
0.0153084
0.0195028
0.0239214
0.0285234
0.0332659
0.0381046
0.0429933
0.0478847
0.0527303
0.0574809
0.062087
0.0664989
0.0706676
0.0745453
0.0780857
0.0812449
0.0839821
0.0862599
0.0880455
0.0893111
0.0900343
0.0901989
0.0897944
0.0888172
0.0872698
0.085158
0.0824919
0.0793146
0.0756885
0.071274
0.065506
0.0163308
0.0100384
0.00530181
0.00148479
-0.00180636
-0.00452321
-0.00663884
-0.00816163
-0.00910201
-0.0094714
-0.00928411
-0.00855757
-0.00731196
-0.00556993
-0.00335654
-0.000699281
0.00237211
0.00582573
0.00962762
0.0137417
0.0181298
0.0227519
0.0275659
0.0325279
0.0375925
0.0427123
0.0478386
0.0529216
0.0579102
0.062753
0.067398
0.0717938
0.0758894
0.0796355
0.0829845
0.0858916
0.0883156
0.0902194
0.0915707
0.0923431
0.0925159
0.0920752
0.0910139
0.0893319
0.0870333
0.0841273
0.0806601
0.0767002
0.07188
0.0655873
0.0152144
0.00839964
0.00326909
-0.000863577
-0.00442347
-0.0073585
-0.00964077
-0.0112813
-0.0122936
-0.0126925
-0.0124958
-0.0117245
-0.0104021
-0.0085548
-0.00621053
-0.00339959
-0.000154219
0.00349147
0.00750153
0.0118382
0.0164617
0.0213306
0.0264016
0.0316294
0.0369672
0.0423665
0.0477768
0.0531466
0.058423
0.0635522
0.0684797
0.0731509
0.0775118
0.081509
0.085091
0.0882088
0.0908162
0.0928715
0.0943375
0.095183
0.0953828
0.094919
0.093781
0.091966
0.0894766
0.086321
0.0825493
0.0782369
0.072986
0.0661343
0.013502
0.00613294
0.000586799
-0.00387653
-0.00771582
-0.0108751
-0.0133254
-0.0150805
-0.0161573
-0.0165738
-0.0163519
-0.0155161
-0.0140939
-0.0121147
-0.00960992
-0.00661292
-0.00315861
0.000716442
0.00497413
0.00957473
0.0144769
0.0196374
0.0250115
0.0305527
0.0362126
0.0419411
0.0476862
0.0533943
0.0590104
0.064478
0.06974
0.0747384
0.0794152
0.083713
0.0875758
0.0909492
0.0937822
0.0960274
0.0976421
0.0985897
0.09884
0.0983704
0.0971666
0.0952229
0.0925398
0.0891252
0.0850329
0.0803458
0.0746333
0.0671782
0.0111489
0.00318604
-0.00280198
-0.00761355
-0.0117441
-0.0151337
-0.0177524
-0.0196171
-0.0207483
-0.021168
-0.0209018
-0.0199788
-0.0184303
-0.0162897
-0.0135921
-0.0103739
-0.0066733
-0.00252936
0.00201738
0.00692513
0.0121506
0.0176491
0.0233742
0.0292778
0.0353101
0.0414192
0.0475515
0.0536514
0.0596614
0.0655225
0.0711742
0.0765548
0.0816024
0.0862548
0.0904507
0.0941303
0.0972364
0.0997154
0.101519
0.102603
0.102932
0.102479
0.101224
0.099159
0.0962813
0.0925982
0.0881677
0.0830803
0.0768693
0.0687566
0.00810355
-0.000500147
-0.00696081
-0.0121406
-0.0165753
-0.0202012
-0.0229875
-0.0249549
-0.0261279
-0.0265329
-0.0262004
-0.0251639
-0.0234593
-0.0211244
-0.0181982
-0.014721
-0.010734
-0.00627923
-0.00139981
0.00386022
0.00945568
0.01534
0.0214653
0.0277819
0.0342385
0.0407815
0.0473555
0.0539028
0.0603636
0.0666759
0.0727758
0.0785979
0.0840755
0.0891413
0.0937282
0.0977701
0.101203
0.103967
0.106004
0.107267
0.10771
0.107301
0.106014
0.103838
0.100767
0.0968063
0.0920185
0.0865023
0.0797498
0.0709155
0.00430563
-0.00499316
-0.0119615
-0.0175318
-0.0222845
-0.026152
-0.0291037
-0.0311642
-0.0323633
-0.0327325
-0.0323076
-0.0311275
-0.0292332
-0.0266674
-0.0234736
-0.0196961
-0.0153796
-0.0105694
-0.00531139
0.000348167
0.00636202
0.0126819
0.0192583
0.02604
0.0329743
0.0400061
0.0470782
0.0541309
0.0611019
0.0679264
0.0745368
0.0808636
0.0868352
0.0923787
0.0974206
0.101888
0.105709
0.108814
0.111141
0.112629
0.113228
0.112897
0.111604
0.109331
0.106071
0.101825
0.0966603
0.0906836
0.083341
0.0737112
-0.000315499
-0.0103707
-0.0178858
-0.0238708
-0.0289555
-0.0330694
-0.0361819
-0.0383232
-0.039529
-0.0398371
-0.0392893
-0.0379309
-0.0358089
-0.0329714
-0.0294669
-0.0253441
-0.0206519
-0.0154389
-0.00975371
-0.00364518
0.00283745
0.00964422
0.0167241
0.0240247
0.0314917
0.0390689
0.0466975
0.0543157
0.061859
0.0692596
0.0764466
0.0833459
0.0898808
0.0959723
0.10154
0.106503
0.11078
0.114294
0.116971
0.118743
0.119548
0.119336
0.118069
0.115721
0.112278
0.107742
0.10218
0.0957085
0.0877218
0.077213
-0.0058425
-0.0167223
-0.024827
-0.0312523
-0.0366832
-0.0410463
-0.0443124
-0.0465182
-0.0477069
-0.0479234
-0.0472172
-0.0456407
-0.0432477
-0.0400927
-0.0362298
-0.031713
-0.0265951
-0.0209285
-0.0147649
-0.00815566
-0.00115189
0.00619484
0.0138322
0.0217066
0.0297629
0.0379435
0.0461885
0.0544344
0.0626147
0.0706587
0.0784921
0.0860363
0.0932092
0.0999254
0.106097
0.111633
0.116445
0.120444
0.123544
0.125665
0.126736
0.126695
0.125494
0.123098
0.119487
0.114656
0.108678
0.101676
0.0929862
0.0815052
-0.0123719
-0.0241514
-0.032892
-0.0397841
-0.0455745
-0.0501874
-0.0535959
-0.0558451
-0.056987
-0.0570755
-0.0561688
-0.054328
-0.0516148
-0.0480909
-0.043817
-0.0388523
-0.0332547
-0.0270804
-0.0203842
-0.01322
-0.00564065
0.00230073
0.0105508
0.0190554
0.0277584
0.0366018
0.0455246
0.0544623
0.0633465
0.0721041
0.0806574
0.0889236
0.096815
0.104239
0.1111
0.117298
0.122732
0.127302
0.130909
0.133459
0.134868
0.13506
0.133974
0.131566
0.127807
0.122684
0.116272
0.108703
0.0992459
0.0866901
-0.0200163
-0.0327774
-0.0422033
-0.0495891
-0.0557504
-0.06061
-0.0641447
-0.0664098
-0.0674683
-0.0673846
-0.0662279
-0.064069
-0.0609791
-0.0570282
-0.0522843
-0.0468129
-0.0406769
-0.0339367
-0.0266505
-0.0188744
-0.0106631
-0.00207088
0.00684846
0.0160402
0.0254484
0.0350147
0.0446778
0.0543726
0.0640295
0.0735735
0.0829238
0.0919935
0.100689
0.108912
0.116556
0.123513
0.129668
0.134908
0.139118
0.142191
0.144023
0.144524
0.143617
0.141244
0.137365
0.131958
0.125098
0.116926
0.106633
0.0928907
-0.0289061
-0.0427379
-0.0529013
-0.0608074
-0.0673481
-0.0724463
-0.076084
-0.0783295
-0.0792588
-0.0789496
-0.0774836
-0.0749438
-0.0714121
-0.0669682
-0.0616882
-0.0556448
-0.0489065
-0.041538
-0.0336007
-0.0251533
-0.0162518
-0.00695109
0.0026948
0.0126315
0.0228034
0.033153
0.0436193
0.0541373
0.0646371
0.0750422
0.0852697
0.0952288
0.104821
0.11394
0.122471
0.130293
0.13728
0.143302
0.148229
0.151931
0.154289
0.155191
0.154541
0.152266
0.148307
0.142632
0.135316
0.126505
0.115305
0.100254
-0.039193
-0.0541917
-0.0651474
-0.0735988
-0.0805232
-0.085845
-0.0895537
-0.0917334
-0.0924765
-0.0918766
-0.0900306
-0.0870359
-0.0829869
-0.0779743
-0.0720841
-0.0653962
-0.0579855
-0.0499213
-0.0412683
-0.0320872
-0.0224353
-0.0123674
-0.00193715
0.0088021
0.0197962
0.0309889
0.042321
0.0537284
0.0651416
0.0764841
0.0876711
0.0986091
0.109194
0.119314
0.128843
0.13765
0.145594
0.152526
0.158297
0.162757
0.165761
0.167175
0.166881
0.16478
0.160797
0.154883
0.147109
0.137626
0.125447
0.108955
-0.051052
-0.0673221
-0.079127
-0.0881463
-0.0954525
-0.100973
-0.104709
-0.106764
-0.107249
-0.106279
-0.103968
-0.100431
-0.0957761
-0.0901083
-0.0835235
-0.0761105
-0.0679505
-0.0591178
-0.0496803
-0.0397004
-0.0292359
-0.0183414
-0.00706898
0.00452986
0.0164034
0.028498
0.0407571
0.0531189
0.0655158
0.077872
0.0901025
0.102111
0.113792
0.125023
0.135672
0.145594
0.154631
0.162618
0.169382
0.174748
0.178543
0.180604
0.180784
0.178959
0.175026
0.168916
0.160692
0.150511
0.137275
0.119203
-0.0646858
-0.082341
-0.0950538
-0.10466
-0.112337
-0.118021
-0.121725
-0.123577
-0.123716
-0.122276
-0.119398
-0.115213
-0.10985
-0.103427
-0.096052
-0.0878233
-0.0788294
-0.0691494
-0.0588541
-0.0480074
-0.0366669
-0.0248858
-0.0127141
-0.000200085
0.0126082
0.0256611
0.0389059
0.0522849
0.0657338
0.0791791
0.092537
0.105711
0.118591
0.131051
0.14295
0.154128
0.164414
0.173618
0.181544
0.187988
0.192744
0.195615
0.196418
0.194994
0.191209
0.184965
0.176314
0.165415
0.151047
0.131242
-0.080329
-0.0994938
-0.113175
-0.12338
-0.131407
-0.1372
-0.140793
-0.142345
-0.142023
-0.139994
-0.136423
-0.131467
-0.125274
-0.117979
-0.109705
-0.100559
-0.0906379
-0.0800251
-0.0687943
-0.05701
-0.0447288
-0.0320016
-0.0188748
-0.00539223
0.00840298
0.0224669
0.0367525
0.0512078
0.0657735
0.0803808
0.0949487
0.109382
0.12357
0.137381
0.150666
0.163255
0.174956
0.185561
0.194843
0.202564
0.208482
0.212358
0.213965
0.213102
0.209593
0.203304
0.194267
0.182641
0.167065
0.145364
-0.098254
-0.119066
-0.133778
-0.144586
-0.152925
-0.158752
-0.162129
-0.163252
-0.162329
-0.159561
-0.155145
-0.149269
-0.142103
-0.133802
-0.124503
-0.114326
-0.103374
-0.0917365
-0.0794878
-0.0666925
-0.0534053
-0.0396733
-0.025538
-0.0110373
0.00379264
0.0189152
0.0342912
0.0498763
0.0656187
0.0814562
0.0973134
0.113099
0.128701
0.143989
0.158806
0.172969
0.186272
0.198479
0.209335
0.218566
0.225883
0.230998
0.233632
0.23353
0.230462
0.224246
0.21489
0.202542
0.185684
0.161913
-0.118778
-0.141393
-0.157198
-0.168602
-0.177193
-0.182951
-0.185972
-0.186503
-0.184798
-0.181105
-0.17566
-0.168684
-0.160376
-0.150912
-0.140447
-0.129111
-0.117015
-0.104252
-0.0908989
-0.0770175
-0.0626592
-0.0478659
-0.0326724
-0.0171086
-0.00120213
0.0150201
0.0315287
0.0482897
0.0652612
0.0823905
0.0996104
0.116836
0.13396
0.150851
0.167349
0.183261
0.198364
0.2124
0.225078
0.236083
0.245077
0.251712
0.255645
0.256552
0.254138
0.248158
0.23858
0.225535
0.207326
0.181294
-0.142274
-0.166868
-0.18383
-0.195806
-0.20456
-0.210105
-0.212586
-0.212312
-0.2096
-0.204752
-0.198052
-0.189761
-0.180111
-0.169304
-0.157509
-0.144871
-0.131507
-0.117513
-0.102964
-0.0879204
-0.0724274
-0.0565196
-0.0402233
-0.0235584
-0.00654132
0.0108128
0.028487
0.0464603
0.0647037
0.0831771
0.101825
0.120572
0.139319
0.157939
0.17627
0.194115
0.211232
0.227342
0.242121
0.255205
0.2662
0.274689
0.280253
0.282482
0.280995
0.275465
0.265805
0.252116
0.232492
0.20399
-0.169181
-0.195962
-0.214145
-0.226645
-0.235432
-0.240568
-0.242265
-0.240912
-0.236906
-0.230616
-0.222386
-0.212523
-0.201298
-0.188936
-0.175628
-0.161529
-0.146762
-0.131423
-0.115586
-0.0993045
-0.0826164
-0.0655466
-0.0481101
-0.0303145
-0.0121627
0.0063447
0.025206
0.044416
0.0639618
0.0838194
0.103949
0.124289
0.144754
0.165223
0.18554
0.205504
0.224864
0.243316
0.260503
0.276014
0.289388
0.300131
0.307728
0.311667
0.311457
0.306662
0.297117
0.282872
0.26178
0.230574
-0.200026
-0.229241
-0.248706
-0.261648
-0.270282
-0.274741
-0.275329
-0.272544
-0.26688
-0.258793
-0.248698
-0.236957
-0.223881
-0.209725
-0.194697
-0.178963
-0.162648
-0.145848
-0.128629
-0.111037
-0.0930986
-0.0748269
-0.0562225
-0.0372778
-0.0179793
0.00168948
0.0217452
0.0422015
0.0630652
0.0843322
0.105982
0.127974
0.150238
0.172669
0.19512
0.217394
0.239233
0.260316
0.280253
0.298583
0.314776
0.328246
0.338367
0.3445
0.346014
0.34233
0.333171
0.318511
0.295911
0.261735
-0.235449
-0.267399
-0.288203
-0.301452
-0.309665
-0.31308
-0.312129
-0.307453
-0.299672
-0.289349
-0.276982
-0.262999
-0.247753
-0.23153
-0.214554
-0.196997
-0.178983
-0.160602
-0.141911
-0.122942
-0.103709
-0.0842067
-0.0644194
-0.044321
-0.0238789
-0.00305646
0.0181843
0.0398793
0.0620585
0.084742
0.107934
0.131618
0.155748
0.18024
0.204964
0.229735
0.254296
0.278316
0.301376
0.322967
0.342485
0.359243
0.372486
0.381417
0.385227
0.383152
0.374754
0.359889
0.335763
0.298308
-0.276237
-0.311297
-0.333484
-0.346828
-0.354237
-0.356104
-0.353042
-0.345879
-0.335399
-0.322298
-0.307171
-0.290518
-0.272738
-0.254143
-0.234971
-0.215392
-0.195526
-0.17545
-0.155204
-0.134805
-0.114243
-0.0934971
-0.072528
-0.0512888
-0.0297243
-0.00777456
0.0146225
0.0375283
0.0609999
0.0850855
0.109819
0.135214
0.161256
0.187889
0.215012
0.242458
0.269986
0.297261
0.323848
0.349192
0.372617
0.393326
0.410413
0.422896
0.429739
0.429931
0.422812
0.408055
0.382418
0.341317
-0.323383
-0.362029
-0.385614
-0.398723
-0.404774
-0.404398
-0.398459
-0.388038
-0.374129
-0.357584
-0.339114
-0.319294
-0.298569
-0.27727
-0.255639
-0.233839
-0.211973
-0.190097
-0.168229
-0.146361
-0.124459
-0.102475
-0.0803467
-0.0580003
-0.0353558
-0.0123271
0.0111753
0.0352413
0.0599584
0.0854072
0.111656
0.138756
0.166729
0.19556
0.225184
0.255469
0.286199
0.317056
0.347598
0.377238
0.405232
0.430669
0.45248
0.469455
0.48028
0.483619
0.478496
0.46431
0.43723
0.392036
-0.378167
-0.421007
-0.44595
-0.458307
-0.462197
-0.458612
-0.448774
-0.434098
-0.415842
-0.395046
-0.372548
-0.348996
-0.324872
-0.300517
-0.276161
-0.251946
-0.227948
-0.20419
-0.180657
-0.157308
-0.134079
-0.11089
-0.0876491
-0.0642547
-0.0405976
-0.0165627
0.007969
0.033119
0.0590081
0.0857534
0.113463
0.142229
0.172122
0.203175
0.235373
0.268634
0.302787
0.337547
0.372488
0.407013
0.440322
0.471398
0.498991
0.521636
0.537671
0.545335
0.543215
0.530287
0.501923
0.452081
-0.442283
-0.490103
-0.516249
-0.527038
-0.527595
-0.519454
-0.504348
-0.484133
-0.460389
-0.434374
-0.407055
-0.379144
-0.35114
-0.323372
-0.296039
-0.269242
-0.243009
-0.217319
-0.192113
-0.167307
-0.142797
-0.118468
-0.0941936
-0.0698395
-0.0452655
-0.0203254
0.00513209
0.0312617
0.0582203
0.0861644
0.115246
0.145606
0.177369
0.210629
0.245434
0.28177
0.319534
0.358501
0.398291
0.438324
0.477777
0.515541
0.550192
0.579976
0.602814
0.616398
0.618701
0.608066
0.578736
0.523546
-0.518042
-0.571853
-0.598822
-0.606745
-0.602235
-0.587657
-0.565455
-0.538055
-0.507426
-0.475054
-0.442024
-0.409082
-0.376712
-0.345195
-0.314669
-0.285165
-0.256646
-0.229026
-0.202187
-0.175993
-0.150292
-0.124928
-0.0997345
-0.0745432
-0.0491798
-0.0234655
0.00278407
0.0297586
0.0576525
0.086664
0.116992
0.148833
0.182372
0.217774
0.255168
0.294627
0.33614
0.379578
0.424647
0.470829
0.517324
0.562975
0.606202
0.644954
0.676667
0.698338
0.707099
0.700338
0.670643
0.609229
-0.608713
-0.669782
-0.696754
-0.699717
-0.687562
-0.663912
-0.632183
-0.59552
-0.556322
-0.516294
-0.476591
-0.437939
-0.400749
-0.365205
-0.331338
-0.299079
-0.268295
-0.238815
-0.210448
-0.182992
-0.156243
-0.129993
-0.104037
-0.078169
-0.0521783
-0.0258536
0.00102266
0.0286752
0.0573364
0.0872476
0.118657
0.151819
0.186988
0.224408
0.264305
0.306861
0.35219
0.400296
0.451022
0.503979
0.558459
0.613327
0.666913
0.716892
0.76017
0.792893
0.811056
0.810628
0.781699
0.712989
-0.719118
-0.78892
-0.814199
-0.808789
-0.785137
-0.74873
-0.704279
-0.655772
-0.606039
-0.556932
-0.509579
-0.464591
-0.422218
-0.382477
-0.345237
-0.310283
-0.277355
-0.246175
-0.216463
-0.187942
-0.160345
-0.133413
-0.106897
-0.0805512
-0.0541319
-0.0273948
-9.00735e-05
0.0280403
0.0572658
0.0878697
0.120151
0.154422
0.191013
0.230257
0.272488
0.318021
0.367127
0.419989
0.476654
0.53694
0.600336
0.665851
0.731839
0.795795
0.854109
0.901942
0.933811
0.943604
0.917566
0.840381
-0.856709
-0.936616
-0.956774
-0.937382
-0.896465
-0.842195
-0.780894
-0.717437
-0.654974
-0.595332
-0.53944
-0.487638
-0.439893
-0.395961
-0.355478
-0.318035
-0.283214
-0.250607
-0.219827
-0.190515
-0.162338
-0.134984
-0.108156
-0.0815742
-0.0549614
-0.0280434
-0.000541441
0.0278331
0.0573834
0.0884325
0.121327
0.156441
0.194176
0.234964
0.279258
0.327525
0.380225
0.437773
0.500488
0.568506
0.641649
0.719246
0.799884
0.881081
0.958849
1.02733
1.07923
1.10548
1.08637
0.999802
-1.03365
-1.12384
-1.13203
-1.0894
-1.02263
-0.943531
-0.860202
-0.778232
-0.700768
-0.629277
-0.564203
-0.505393
-0.452369
-0.404506
-0.361134
-0.321601
-0.285294
-0.251658
-0.220192
-0.190451
-0.162031
-0.134567
-0.107725
-0.0811876
-0.0546512
-0.027816
-0.000379137
0.0279734
0.0575736
0.0887789
0.121979
0.157604
0.19613
0.238083
0.284045
0.334648
0.390569
0.452504
0.521126
0.597005
0.680476
0.771437
0.869029
0.971175
1.07388
1.17048
1.25168
1.30448
1.30005
1.20469
-1.27104
-1.36718
-1.34972
-1.26869
-1.16349
-1.05035
-0.938826
-0.834582
-0.740082
-0.655863
-0.581455
-0.515911
-0.45811
-0.406924
-0.361301
-0.320299
-0.283092
-0.248967
-0.217306
-0.187579
-0.159319
-0.132114
-0.105595
-0.0794183
-0.0532585
-0.0267978
0.000283941
0.0283188
0.05766
0.0886917
0.121839
0.157581
0.196457
0.239086
0.286175
0.338528
0.397056
0.462774
0.536782
0.620212
0.714121
0.819292
0.935891
1.06287
1.197
1.33151
1.45548
1.55113
1.57639
1.47803
-1.6077
-1.69184
-1.62131
-1.47734
-1.31592
-1.15725
-1.0109
-0.88107
-0.76833
-0.671403
-0.588333
-0.517028
-0.455516
-0.402055
-0.355153
-0.313557
-0.276226
-0.242292
-0.211033
-0.181843
-0.154204
-0.127671
-0.101847
-0.0763747
-0.0509157
-0.0251435
0.00127015
0.028666
0.0574085
0.087898
0.120584
0.155979
0.194677
0.237373
0.284885
0.338179
0.398402
0.466903
0.545258
0.635271
0.73893
0.858272
0.995089
1.15031
1.32279
1.50736
1.693
1.8576
1.94206
1.86144
-2.11546
-2.13534
-1.95807
-1.71263
-1.47108
-1.25401
-1.06705
-0.910011
-0.779579
-0.671507
-0.581686
-0.506535
-0.443077
-0.388892
-0.342046
-0.300991
-0.264492
-0.231559
-0.201386
-0.173318
-0.146806
-0.121386
-0.0966529
-0.0722449
-0.0478251
-0.023069
0.0023484
0.0287652
0.0565451
0.0860911
0.117861
0.152386
0.190291
0.232322
0.279383
0.332572
0.393238
0.463047
0.544051
0.638779
0.750301
0.882259
1.03876
1.22393
1.44077
1.68899
1.96155
2.23583
2.43616
2.43041
-2.92485
-2.74765
-2.36753
-1.96496
-1.61332
-1.32553
-1.09515
-0.912506
-0.767688
-0.652126
-0.558963
-0.482914
-0.419962
-0.36706
-0.321894
-0.282695
-0.248097
-0.217035
-0.188668
-0.162319
-0.13744
-0.113568
-0.09031
-0.0673147
-0.0442598
-0.0208361
0.00326595
0.0283695
0.0548238
0.0830193
0.113405
0.146506
0.182953
0.223511
0.269123
0.320967
0.380533
0.449724
0.530999
0.627557
0.743579
0.884521
1.05741
1.27096
1.53523
1.86013
2.25088
2.69347
3.10958
3.31905
-4.33238
-3.56897
-2.82524
-2.20055
-1.71226
-1.34797
-1.07887
-0.878282
-0.726589
-0.609922
-0.518526
-0.44555
-0.386153
-0.336871
-0.295185
-0.259235
-0.227628
-0.1993
-0.173427
-0.149361
-0.12658
-0.104652
-0.083212
-0.0619393
-0.0405396
-0.0187315
0.00376647
0.0272494
0.0520386
0.0784957
0.10704
0.13817
0.172486
0.210731
0.253832
0.302969
0.359669
0.425935
0.504451
0.59887
0.71425
0.857711
1.03935
1.27348
1.58035
1.98767
2.52529
3.20382
4.00233
4.83188
-7.16763
-4.56824
-3.15006
-2.26537
-1.65998
-1.25136
-0.973944
-0.779416
-0.638357
-0.533032
-0.452229
-0.388638
-0.337375
-0.29509
-0.259418
-0.228655
-0.201543
-0.177138
-0.154718
-0.13372
-0.113694
-0.0942739
-0.0751516
-0.0560567
-0.0367432
-0.0169751
0.00348508
0.0248865
0.0475037
0.0716482
0.097684
0.126046
0.157266
0.192001
0.231082
0.275575
0.326873
0.386837
0.458006
0.54394
0.649773
0.783139
0.955717
1.18592
1.50416
1.96077
2.6253
3.58242
5.08664
7.80458
-12.036
-5.65114
-2.98606
-1.88928
-1.29484
-0.942962
-0.72608
-0.582716
-0.481561
-0.406749
-0.349389
-0.304056
-0.267246
-0.236589
-0.210416
-0.187522
-0.167015
-0.148226
-0.130641
-0.113862
-0.0975728
-0.0815154
-0.0654746
-0.0492618
-0.0327045
-0.0156361
0.00211256
0.0207232
0.0403975
0.0613677
0.0839079
0.108348
0.13509
0.164633
0.197606
0.234809
0.277282
0.326401
0.384031
0.452781
0.536441
0.640795
0.775211
0.956148
1.21563
1.61755
2.27852
3.47025
6.25209
12.762
)
;

boundaryField
{
    movingWall
    {
        type            zeroGradient;
    }
    fixedWalls
    {
        type            zeroGradient;
    }
    frontAndBack
    {
        type            empty;
    }
}


// ************************************************************************* //
