/*--------------------------------*- C++ -*----------------------------------*\
  =========                 |
  \\      /  F ield         | OpenFOAM: The Open Source CFD Toolbox
   \\    /   O peration     | Website:  https://openfoam.org
    \\  /    A nd           | Version:  7
     \\/     M anipulation  |
\*---------------------------------------------------------------------------*/
FoamFile
{
    version     2.0;
    format      ascii;
    class       volScalarField;
    location    "0.0526";
    object      p;
}
// * * * * * * * * * * * * * * * * * * * * * * * * * * * * * * * * * * * * * //

dimensions      [0 2 -2 0 0 0 0];

internalField   nonuniform List<scalar> 
2500
(
2.47089e-05
6.38533
9.05052
10.147
10.7406
11.0914
11.3068
11.4486
11.5481
11.6213
11.6772
11.7213
11.7572
11.7873
11.8132
11.8363
11.8573
11.877
11.8959
11.9143
11.9325
11.9507
11.9692
11.9881
12.0075
12.0275
12.0483
12.07
12.0928
12.1169
12.1425
12.1699
12.1995
12.2318
12.2673
12.3069
12.3515
12.4026
12.4619
12.5321
12.6169
12.7222
12.8572
13.0384
13.298
13.6997
14.3603
15.5515
18.3328
24.8422
4.868
7.46785
8.88606
9.77037
10.375
10.7826
11.0587
11.2518
11.3914
11.4954
11.5749
11.6375
11.688
11.7298
11.7654
11.7964
11.8241
11.8494
11.8731
11.8957
11.9176
11.9391
11.9606
11.9822
12.0042
12.0268
12.0502
12.0745
12.1001
12.1272
12.1562
12.1874
12.2213
12.2587
12.3002
12.3469
12.4003
12.4621
12.5349
12.6221
12.7291
12.8633
13.0365
13.2671
13.5854
14.042
14.7063
15.6631
17.1669
19.8843
7.70308
8.46702
9.21077
9.83508
10.3226
10.6859
10.9537
11.1529
11.3033
11.4187
11.5089
11.581
11.6397
11.6886
11.7303
11.7665
11.7987
11.828
11.8552
11.8808
11.9054
11.9294
11.9532
11.9769
12.001
12.0255
12.0508
12.0772
12.1049
12.1342
12.1656
12.1995
12.2364
12.2772
12.3226
12.3739
12.4326
12.5006
12.5807
12.6764
12.7929
12.9372
13.1195
13.354
13.661
14.0684
14.6059
15.2841
16.0822
16.9111
9.11086
9.28858
9.66873
10.071
10.4216
10.7084
10.9375
11.1188
11.2622
11.3765
11.4686
11.5438
11.6061
11.6587
11.7038
11.7434
11.7786
11.8107
11.8403
11.8683
11.895
11.9209
11.9465
11.9719
11.9976
12.0238
12.0506
12.0786
12.1079
12.1389
12.1721
12.2079
12.2469
12.2899
12.3378
12.3918
12.4533
12.5242
12.607
12.7049
12.822
12.9638
13.1373
13.3513
13.6158
13.9408
14.3314
14.7737
15.1893
15.3979
9.92098
9.90159
10.0788
10.3237
10.5643
10.7803
10.9659
11.1215
11.2505
11.3572
11.4459
11.5202
11.583
11.6369
11.6838
11.7252
11.7623
11.7963
11.8278
11.8575
11.8858
11.9134
11.9404
11.9673
11.9943
12.0218
12.05
12.0792
12.1098
12.1422
12.1767
12.2139
12.2544
12.2988
12.3482
12.4035
12.4661
12.5376
12.6201
12.7162
12.8288
12.9617
13.1188
13.3045
13.5216
13.77
14.0424
14.3163
14.5159
14.509
10.4301
10.3463
10.4166
10.5598
10.7202
10.8776
11.0224
11.1507
11.2619
11.3574
11.4393
11.5096
11.5705
11.6236
11.6705
11.7125
11.7505
11.7855
11.8181
11.8489
11.8785
11.9071
11.9353
11.9633
11.9914
12.0199
12.0491
12.0793
12.1109
12.1442
12.1797
12.2177
12.259
12.3042
12.354
12.4094
12.4716
12.5418
12.6218
12.7131
12.818
12.9383
13.0758
13.2316
13.4044
13.589
13.7745
13.9386
14.0221
13.94
10.7687
10.6726
10.6896
10.7697
10.8737
10.9853
11.0952
11.1977
11.2905
11.3731
11.4462
11.5107
11.5677
11.6185
11.6641
11.7055
11.7434
11.7786
11.8116
11.843
11.8732
11.9026
11.9315
11.9602
11.989
12.0183
12.0482
12.0792
12.1114
12.1453
12.1813
12.2197
12.2612
12.3064
12.3558
12.4103
12.4709
12.5385
12.6141
12.699
12.7941
12.9004
13.0178
13.1453
13.2798
13.4143
13.5379
13.6329
13.657
13.5568
11.0086
10.9181
10.9091
10.9506
11.0159
11.0932
11.1746
11.2546
11.3302
11.3999
11.4635
11.5211
11.5733
11.6207
11.6639
11.7038
11.7408
11.7754
11.8083
11.8397
11.8701
11.8998
11.9291
11.9583
11.9876
12.0173
12.0477
12.079
12.1116
12.1457
12.1818
12.2203
12.2615
12.3061
12.3545
12.4074
12.4654
12.5293
12.5997
12.6772
12.762
12.8541
12.9526
13.0553
13.1583
13.2548
13.3355
13.3873
13.3814
13.2839
11.1887
11.1079
11.0866
11.1045
11.1436
11.1958
11.255
11.3162
11.3765
11.4342
11.4884
11.5388
11.5855
11.6289
11.6692
11.7068
11.7423
11.7759
11.8081
11.8392
11.8694
11.899
11.9284
11.9576
11.9871
12.017
12.0475
12.079
12.1117
12.1458
12.1817
12.2198
12.2604
12.3039
12.3508
12.4016
12.4566
12.5162
12.5809
12.6506
12.7252
12.8041
12.8856
12.9674
13.0453
13.1135
13.1647
13.1897
13.1687
13.0796
11.3298
11.2585
11.2316
11.2351
11.2566
11.2907
11.3327
11.3787
11.4261
11.473
11.5184
11.5618
11.603
11.642
11.6789
11.714
11.7475
11.7797
11.8108
11.8411
11.8707
11.9
11.9292
11.9583
11.9877
12.0175
12.048
12.0794
12.1119
12.1457
12.1812
12.2187
12.2583
12.3005
12.3455
12.3938
12.4454
12.5006
12.5593
12.6215
12.6865
12.7534
12.8203
12.8848
12.9431
12.9905
13.0213
13.0295
13.0012
12.921
11.4442
11.3808
11.3516
11.3464
11.356
11.377
11.406
11.4399
11.4764
11.514
11.5515
11.5884
11.6242
11.6588
11.6922
11.7245
11.7558
11.7863
11.816
11.8453
11.8741
11.9028
11.9315
11.9603
11.9894
12.019
12.0492
12.0803
12.1124
12.1458
12.1806
12.2172
12.2556
12.2963
12.3392
12.3847
12.4328
12.4835
12.5366
12.5916
12.6479
12.7041
12.7587
12.8091
12.8522
12.8842
12.9009
12.8985
12.8669
12.7946
11.5391
11.482
11.4522
11.4415
11.4431
11.4547
11.4738
11.4982
11.5259
11.5556
11.5862
11.6171
11.6479
11.6783
11.7083
11.7377
11.7666
11.7952
11.8234
11.8514
11.8793
11.9071
11.9351
11.9634
11.992
12.0212
12.051
12.0816
12.1133
12.146
12.18
12.2156
12.2527
12.2916
12.3324
12.3751
12.4197
12.466
12.5137
12.5621
12.6105
12.6576
12.7018
12.7408
12.7722
12.7927
12.7997
12.7905
12.7577
12.6921
11.6191
11.5671
11.5374
11.5233
11.5194
11.5242
11.5359
11.5528
11.5733
11.5964
11.6211
11.6468
11.673
11.6995
11.7261
11.7527
11.7793
11.8059
11.8324
11.8591
11.8858
11.9128
11.94
11.9676
11.9956
12.0242
12.0535
12.0835
12.1145
12.1465
12.1796
12.214
12.2497
12.2869
12.3255
12.3654
12.4066
12.4487
12.4914
12.5339
12.5754
12.6146
12.6501
12.6801
12.7023
12.7144
12.7144
12.7009
12.6679
12.6078
11.6875
11.6393
11.6101
11.5939
11.5862
11.586
11.5921
11.6032
11.618
11.6356
11.6553
11.6764
11.6986
11.7215
11.745
11.7689
11.7932
11.8178
11.8427
11.8679
11.8934
11.9194
11.9457
11.9725
11.9999
12.0278
12.0564
12.0858
12.1161
12.1472
12.1794
12.2126
12.2469
12.2822
12.3186
12.3559
12.3939
12.4321
12.4702
12.5074
12.5429
12.5755
12.6039
12.6264
12.6415
12.6473
12.6425
12.6261
12.5934
12.538
11.7463
11.7011
11.6724
11.6549
11.6445
11.6407
11.6426
11.6492
11.6594
11.6726
11.688
11.7052
11.7239
11.7436
11.7643
11.7857
11.8078
11.8305
11.8537
11.8775
11.9018
11.9267
11.9521
11.9781
12.0047
12.0319
12.0598
12.0885
12.118
12.1483
12.1794
12.2114
12.2442
12.2778
12.3121
12.3469
12.3818
12.4165
12.4505
12.4831
12.5134
12.5403
12.5628
12.5795
12.589
12.5901
12.5817
12.5635
12.5315
12.4798
11.797
11.7542
11.726
11.7076
11.6954
11.6889
11.6876
11.6907
11.6973
11.7068
11.7188
11.7327
11.7482
11.7652
11.7833
11.8025
11.8225
11.8434
11.8651
11.8875
11.9106
11.9344
11.9589
11.984
12.0098
12.0363
12.0635
12.0914
12.1201
12.1495
12.1796
12.2104
12.2418
12.2738
12.3061
12.3385
12.3707
12.4022
12.4326
12.4611
12.4869
12.5091
12.5267
12.5387
12.5439
12.5413
12.5304
12.5111
12.4798
12.4314
11.8407
11.7997
11.7721
11.7531
11.7395
11.7311
11.7274
11.7277
11.7315
11.7381
11.7471
11.7583
11.7712
11.7857
11.8016
11.8187
11.837
11.8562
11.8764
11.8975
11.9195
11.9422
11.9657
11.99
12.015
12.0408
12.0673
12.0944
12.1223
12.1508
12.18
12.2096
12.2398
12.2701
12.3006
12.3309
12.3606
12.3893
12.4164
12.4414
12.4634
12.4817
12.4954
12.5035
12.5053
12.5
12.4873
12.4672
12.4367
12.3909
11.8782
11.8387
11.8115
11.7921
11.7776
11.7677
11.7622
11.7604
11.7618
11.7661
11.7728
11.7816
11.7924
11.8048
11.8188
11.8341
11.8507
11.8685
11.8874
11.9072
11.9281
11.9499
11.9725
11.996
12.0202
12.0453
12.071
12.0975
12.1246
12.1523
12.1805
12.2091
12.238
12.2669
12.2957
12.324
12.3515
12.3778
12.4021
12.4241
12.443
12.458
12.4684
12.4735
12.4726
12.4652
12.4512
12.4306
12.4008
12.3573
11.9101
11.8717
11.8448
11.8253
11.81
11.7991
11.7921
11.7887
11.7884
11.7907
11.7956
11.8025
11.8115
11.8221
11.8344
11.8482
11.8634
11.8799
11.8975
11.9163
11.9362
11.9571
11.9789
12.0016
12.0252
12.0495
12.0746
12.1004
12.1268
12.1537
12.1811
12.2087
12.2364
12.2641
12.2914
12.3181
12.3436
12.3677
12.3897
12.4092
12.4254
12.4377
12.4455
12.4481
12.4452
12.4362
12.4212
12.4004
12.3713
12.3297
11.9369
11.8993
11.8727
11.853
11.8373
11.8255
11.8175
11.8128
11.8111
11.812
11.8153
11.8207
11.8282
11.8374
11.8483
11.8608
11.8748
11.8901
11.9068
11.9246
11.9436
11.9637
11.9848
12.0068
12.0297
12.0535
12.0779
12.1031
12.1288
12.1551
12.1816
12.2084
12.2352
12.2617
12.2878
12.3129
12.3369
12.3591
12.3792
12.3965
12.4106
12.4207
12.4264
12.4271
12.4225
12.4124
12.3966
12.3757
12.3472
12.3071
11.9587
11.9218
11.8955
11.8756
11.8595
11.8472
11.8384
11.8327
11.8299
11.8297
11.8318
11.8361
11.8423
11.8504
11.8602
11.8716
11.8846
11.899
11.9147
11.9318
11.95
11.9694
11.9899
12.0113
12.0337
12.0569
12.0809
12.1055
12.1307
12.1563
12.1822
12.2082
12.2342
12.2598
12.2847
12.3087
12.3313
12.3521
12.3705
12.3861
12.3984
12.4068
12.4108
12.4101
12.4043
12.3932
12.3769
12.3559
12.3279
12.2892
11.976
11.9395
11.9134
11.8934
11.8771
11.8643
11.8549
11.8486
11.845
11.8439
11.8451
11.8485
11.8538
11.861
11.8699
11.8805
11.8926
11.9063
11.9213
11.9377
11.9554
11.9742
11.9942
12.0151
12.037
12.0598
12.0833
12.1075
12.1322
12.1574
12.1827
12.2082
12.2334
12.2582
12.2823
12.3053
12.3268
12.3464
12.3636
12.3779
12.3888
12.3959
12.3986
12.3968
12.39
12.3783
12.3617
12.3407
12.3131
12.2753
11.9888
11.9527
11.9266
11.9067
11.8902
11.8771
11.8673
11.8604
11.8563
11.8546
11.8551
11.8578
11.8625
11.869
11.8773
11.8872
11.8988
11.9119
11.9264
11.9423
11.9595
11.9779
11.9975
12.0181
12.0396
12.062
12.0852
12.1091
12.1334
12.1582
12.1831
12.2081
12.2328
12.2571
12.2805
12.3028
12.3235
12.3422
12.3584
12.3718
12.3817
12.3878
12.3896
12.387
12.3796
12.3673
12.3505
12.3295
12.3022
12.2652
11.9972
11.9613
11.9354
11.9154
11.8988
11.8855
11.8755
11.8683
11.8638
11.8617
11.8618
11.8641
11.8683
11.8744
11.8822
11.8918
11.903
11.9157
11.9299
11.9454
11.9623
11.9804
11.9997
12.02
12.0414
12.0635
12.0865
12.1101
12.1342
12.1587
12.1834
12.2081
12.2325
12.2563
12.2793
12.3011
12.3213
12.3394
12.355
12.3677
12.377
12.3824
12.3837
12.3805
12.3727
12.3602
12.3432
12.3222
12.2951
12.2586
12.0015
11.9657
11.9397
11.9198
11.9031
11.8897
11.8796
11.8722
11.8675
11.8653
11.8652
11.8672
11.8712
11.8771
11.8847
11.8941
11.9051
11.9176
11.9316
11.947
11.9637
11.9817
12.0008
12.0211
12.0422
12.0643
12.0872
12.1107
12.1347
12.159
12.1836
12.2081
12.2323
12.2559
12.2787
12.3003
12.3202
12.338
12.3533
12.3657
12.3746
12.3798
12.3808
12.3773
12.3693
12.3566
12.3396
12.3186
12.2916
12.2553
12.0015
11.9657
11.9397
11.9198
11.9031
11.8897
11.8796
11.8722
11.8675
11.8653
11.8652
11.8672
11.8712
11.8771
11.8847
11.8941
11.9051
11.9176
11.9316
11.947
11.9637
11.9817
12.0008
12.0211
12.0422
12.0643
12.0872
12.1107
12.1347
12.159
12.1836
12.2081
12.2323
12.2559
12.2787
12.3003
12.3202
12.338
12.3533
12.3657
12.3746
12.3798
12.3808
12.3773
12.3693
12.3566
12.3396
12.3186
12.2916
12.2553
11.9973
11.9613
11.9354
11.9154
11.8988
11.8855
11.8755
11.8683
11.8638
11.8617
11.8618
11.8641
11.8683
11.8744
11.8822
11.8918
11.903
11.9157
11.9299
11.9454
11.9623
11.9804
11.9997
12.02
12.0414
12.0635
12.0865
12.1101
12.1342
12.1587
12.1834
12.2081
12.2325
12.2563
12.2793
12.3011
12.3213
12.3394
12.355
12.3677
12.377
12.3824
12.3837
12.3805
12.3727
12.3602
12.3432
12.3222
12.2951
12.2586
11.9888
11.9527
11.9266
11.9067
11.8902
11.8771
11.8673
11.8604
11.8563
11.8546
11.8551
11.8578
11.8625
11.869
11.8773
11.8872
11.8988
11.9119
11.9264
11.9423
11.9595
11.9779
11.9975
12.0181
12.0396
12.062
12.0852
12.1091
12.1334
12.1582
12.1831
12.2081
12.2328
12.2571
12.2805
12.3028
12.3235
12.3422
12.3584
12.3718
12.3817
12.3878
12.3896
12.387
12.3796
12.3673
12.3505
12.3295
12.3022
12.2652
11.976
11.9395
11.9134
11.8935
11.8771
11.8643
11.855
11.8486
11.845
11.8439
11.8451
11.8485
11.8538
11.861
11.8699
11.8805
11.8926
11.9063
11.9214
11.9377
11.9554
11.9742
11.9942
12.0151
12.037
12.0598
12.0833
12.1075
12.1322
12.1574
12.1827
12.2082
12.2334
12.2582
12.2823
12.3053
12.3268
12.3464
12.3636
12.3779
12.3888
12.3959
12.3986
12.3968
12.39
12.3783
12.3617
12.3407
12.3131
12.2753
11.9587
11.9218
11.8955
11.8756
11.8596
11.8472
11.8384
11.8327
11.8299
11.8297
11.8318
11.8361
11.8423
11.8504
11.8602
11.8716
11.8846
11.899
11.9148
11.9318
11.9501
11.9694
11.9899
12.0113
12.0337
12.0569
12.0809
12.1055
12.1307
12.1563
12.1822
12.2083
12.2342
12.2598
12.2847
12.3087
12.3313
12.3521
12.3705
12.3861
12.3984
12.4068
12.4108
12.4101
12.4043
12.3932
12.3769
12.3559
12.3279
12.2892
11.9369
11.8993
11.8727
11.853
11.8373
11.8255
11.8175
11.8128
11.8111
11.812
11.8153
11.8207
11.8282
11.8374
11.8483
11.8608
11.8748
11.8901
11.9068
11.9246
11.9436
11.9637
11.9848
12.0068
12.0297
12.0535
12.0779
12.1031
12.1289
12.1551
12.1817
12.2084
12.2352
12.2617
12.2878
12.313
12.3369
12.3592
12.3792
12.3965
12.4106
12.4207
12.4264
12.4271
12.4226
12.4124
12.3966
12.3757
12.3472
12.3071
11.9101
11.8717
11.8449
11.8253
11.8101
11.7991
11.7922
11.7887
11.7884
11.7908
11.7956
11.8025
11.8115
11.8221
11.8344
11.8482
11.8634
11.8799
11.8976
11.9164
11.9362
11.9571
11.9789
12.0016
12.0252
12.0495
12.0746
12.1004
12.1268
12.1537
12.1811
12.2087
12.2364
12.2641
12.2914
12.3181
12.3436
12.3677
12.3898
12.4092
12.4254
12.4377
12.4455
12.4482
12.4452
12.4362
12.4212
12.4004
12.3713
12.3297
11.8782
11.8387
11.8115
11.7921
11.7776
11.7677
11.7622
11.7604
11.7618
11.7661
11.7728
11.7817
11.7924
11.8048
11.8188
11.8341
11.8507
11.8685
11.8874
11.9072
11.9281
11.9499
11.9725
11.996
12.0202
12.0453
12.071
12.0975
12.1246
12.1523
12.1805
12.2091
12.238
12.2669
12.2957
12.324
12.3515
12.3778
12.4022
12.4241
12.443
12.458
12.4684
12.4735
12.4726
12.4652
12.4512
12.4306
12.4008
12.3573
11.8407
11.7998
11.7721
11.7531
11.7396
11.7311
11.7274
11.7277
11.7315
11.7381
11.7471
11.7583
11.7712
11.7857
11.8016
11.8187
11.837
11.8562
11.8764
11.8975
11.9195
11.9422
11.9658
11.99
12.0151
12.0408
12.0673
12.0945
12.1223
12.1508
12.18
12.2097
12.2398
12.2701
12.3006
12.3309
12.3606
12.3893
12.4164
12.4414
12.4634
12.4817
12.4954
12.5035
12.5053
12.5
12.4873
12.4672
12.4367
12.3909
11.797
11.7542
11.7261
11.7076
11.6954
11.6889
11.6877
11.6907
11.6973
11.7068
11.7188
11.7327
11.7483
11.7652
11.7833
11.8025
11.8225
11.8434
11.8651
11.8875
11.9106
11.9344
11.9589
11.984
12.0098
12.0363
12.0635
12.0914
12.1201
12.1495
12.1796
12.2104
12.2419
12.2738
12.3061
12.3385
12.3707
12.4022
12.4326
12.4611
12.4869
12.5091
12.5267
12.5387
12.5439
12.5413
12.5305
12.5111
12.4798
12.4314
11.7463
11.7011
11.6724
11.6549
11.6445
11.6407
11.6426
11.6492
11.6594
11.6726
11.688
11.7053
11.7239
11.7436
11.7643
11.7857
11.8078
11.8305
11.8537
11.8775
11.9018
11.9267
11.9521
11.9781
12.0047
12.0319
12.0598
12.0885
12.118
12.1483
12.1794
12.2114
12.2442
12.2779
12.3121
12.3469
12.3818
12.4166
12.4505
12.4831
12.5134
12.5403
12.5628
12.5795
12.589
12.5901
12.5817
12.5636
12.5315
12.4799
11.6875
11.6393
11.6101
11.5939
11.5862
11.586
11.5921
11.6032
11.618
11.6356
11.6553
11.6764
11.6986
11.7215
11.745
11.7689
11.7932
11.8178
11.8427
11.8679
11.8935
11.9194
11.9457
11.9725
11.9999
12.0278
12.0565
12.0858
12.1161
12.1472
12.1794
12.2126
12.2469
12.2822
12.3186
12.3559
12.3939
12.4321
12.4702
12.5074
12.5429
12.5755
12.6039
12.6264
12.6415
12.6473
12.6425
12.6261
12.5934
12.538
11.6191
11.5671
11.5374
11.5233
11.5194
11.5242
11.5359
11.5528
11.5734
11.5964
11.6211
11.6468
11.673
11.6995
11.7261
11.7527
11.7793
11.8059
11.8324
11.8591
11.8858
11.9128
11.94
11.9676
11.9956
12.0242
12.0535
12.0835
12.1145
12.1465
12.1796
12.214
12.2497
12.2869
12.3255
12.3654
12.4066
12.4487
12.4914
12.5339
12.5754
12.6146
12.6501
12.6801
12.7023
12.7144
12.7144
12.7009
12.6679
12.6078
11.5391
11.482
11.4522
11.4416
11.4432
11.4547
11.4739
11.4982
11.5259
11.5556
11.5862
11.6171
11.6479
11.6783
11.7083
11.7377
11.7667
11.7952
11.8234
11.8514
11.8793
11.9072
11.9352
11.9634
11.9921
12.0212
12.051
12.0817
12.1133
12.146
12.1801
12.2156
12.2527
12.2916
12.3324
12.3751
12.4197
12.466
12.5137
12.5621
12.6105
12.6576
12.7018
12.7408
12.7722
12.7928
12.7997
12.7905
12.7577
12.6921
11.4442
11.3808
11.3516
11.3464
11.356
11.377
11.406
11.4399
11.4765
11.514
11.5516
11.5884
11.6242
11.6588
11.6923
11.7246
11.7558
11.7863
11.816
11.8453
11.8741
11.9028
11.9315
11.9603
11.9894
12.019
12.0492
12.0803
12.1124
12.1458
12.1806
12.2172
12.2557
12.2963
12.3393
12.3847
12.4328
12.4835
12.5366
12.5916
12.6479
12.7041
12.7587
12.8091
12.8522
12.8842
12.9009
12.8985
12.8669
12.7946
11.3299
11.2585
11.2316
11.2351
11.2567
11.2907
11.3327
11.3788
11.4261
11.473
11.5184
11.5618
11.603
11.642
11.6789
11.714
11.7475
11.7797
11.8108
11.8411
11.8708
11.9001
11.9292
11.9583
11.9877
12.0176
12.048
12.0794
12.1119
12.1458
12.1812
12.2187
12.2583
12.3005
12.3456
12.3938
12.4454
12.5006
12.5593
12.6215
12.6865
12.7534
12.8203
12.8848
12.9432
12.9905
13.0213
13.0295
13.0012
12.921
11.1887
11.1079
11.0866
11.1045
11.1436
11.1958
11.255
11.3162
11.3766
11.4342
11.4884
11.5388
11.5856
11.6289
11.6692
11.7069
11.7423
11.776
11.8081
11.8392
11.8694
11.899
11.9284
11.9577
11.9871
12.017
12.0476
12.079
12.1117
12.1458
12.1817
12.2198
12.2604
12.3039
12.3508
12.4016
12.4566
12.5162
12.5809
12.6506
12.7252
12.8041
12.8856
12.9674
13.0454
13.1136
13.1647
13.1897
13.1688
13.0796
11.0086
10.9181
10.9092
10.9506
11.0159
11.0932
11.1746
11.2547
11.3302
11.4
11.4635
11.5211
11.5733
11.6207
11.664
11.7038
11.7408
11.7755
11.8083
11.8398
11.8702
11.8998
11.9291
11.9583
11.9876
12.0173
12.0477
12.079
12.1116
12.1457
12.1818
12.2203
12.2615
12.3061
12.3545
12.4074
12.4655
12.5294
12.5997
12.6772
12.762
12.8541
12.9526
13.0553
13.1583
13.2548
13.3355
13.3873
13.3814
13.2839
10.7687
10.6726
10.6896
10.7698
10.8737
10.9853
11.0952
11.1977
11.2905
11.3731
11.4462
11.5107
11.5678
11.6186
11.6642
11.7055
11.7434
11.7786
11.8116
11.843
11.8732
11.9026
11.9315
11.9602
11.9891
12.0183
12.0482
12.0792
12.1114
12.1453
12.1813
12.2197
12.2612
12.3064
12.3558
12.4104
12.4709
12.5385
12.6141
12.699
12.7942
12.9004
13.0178
13.1453
13.2798
13.4143
13.5379
13.6329
13.657
13.5568
10.4301
10.3463
10.4166
10.5599
10.7202
10.8776
11.0225
11.1507
11.2619
11.3575
11.4393
11.5097
11.5705
11.6236
11.6706
11.7125
11.7505
11.7855
11.8181
11.8489
11.8785
11.9071
11.9353
11.9633
11.9914
12.0199
12.0491
12.0793
12.1109
12.1442
12.1797
12.2178
12.259
12.3042
12.354
12.4094
12.4716
12.5418
12.6218
12.7131
12.818
12.9383
13.0758
13.2316
13.4044
13.589
13.7745
13.9386
14.0221
13.94
9.92101
9.90162
10.0788
10.3237
10.5644
10.7803
10.9659
11.1215
11.2505
11.3573
11.4459
11.5202
11.583
11.6369
11.6838
11.7252
11.7624
11.7963
11.8278
11.8575
11.8859
11.9134
11.9404
11.9673
11.9943
12.0218
12.05
12.0792
12.1098
12.1422
12.1767
12.2139
12.2544
12.2988
12.3482
12.4035
12.4661
12.5376
12.6201
12.7162
12.8288
12.9617
13.1188
13.3045
13.5216
13.77
14.0424
14.3163
14.5159
14.509
9.11089
9.28862
9.66876
10.071
10.4216
10.7084
10.9375
11.1188
11.2623
11.3766
11.4686
11.5438
11.6061
11.6587
11.7039
11.7434
11.7786
11.8107
11.8403
11.8683
11.895
11.921
11.9465
11.972
11.9976
12.0238
12.0507
12.0786
12.1079
12.1389
12.1721
12.2079
12.2469
12.2899
12.3378
12.3918
12.4533
12.5242
12.607
12.7049
12.822
12.9638
13.1373
13.3513
13.6158
13.9408
14.3314
14.7737
15.1893
15.3979
7.70312
8.46706
9.2108
9.83511
10.3226
10.6859
10.9537
11.153
11.3033
11.4187
11.5089
11.581
11.6397
11.6886
11.7303
11.7665
11.7987
11.828
11.8552
11.8808
11.9054
11.9294
11.9532
11.9769
12.001
12.0255
12.0509
12.0772
12.1049
12.1342
12.1656
12.1995
12.2364
12.2772
12.3226
12.3739
12.4326
12.5006
12.5807
12.6764
12.7929
12.9372
13.1195
13.354
13.6611
14.0684
14.6059
15.2841
16.0822
16.9111
4.86804
7.46789
8.8861
9.7704
10.375
10.7826
11.0587
11.2518
11.3914
11.4954
11.5749
11.6375
11.688
11.7299
11.7654
11.7964
11.8241
11.8494
11.8731
11.8957
11.9176
11.9391
11.9606
11.9822
12.0042
12.0268
12.0502
12.0746
12.1002
12.1273
12.1562
12.1874
12.2213
12.2587
12.3002
12.3469
12.4003
12.4621
12.5349
12.6222
12.7291
12.8633
13.0365
13.2671
13.5854
14.042
14.7063
15.6631
17.1669
19.8843
8.90808e-05
6.38538
9.05056
10.147
10.7407
11.0914
11.3068
11.4486
11.5481
11.6213
11.6772
11.7213
11.7572
11.7873
11.8133
11.8363
11.8573
11.877
11.8959
11.9143
11.9325
11.9508
11.9692
11.9881
12.0075
12.0275
12.0483
12.07
12.0928
12.1169
12.1425
12.1699
12.1995
12.2318
12.2673
12.3069
12.3515
12.4026
12.4619
12.5321
12.6169
12.7222
12.8572
13.0385
13.298
13.6997
14.3603
15.5515
18.3328
24.8422
)
;

boundaryField
{
    movingWallTop
    {
        type            zeroGradient;
    }
    movingWallBottom
    {
        type            zeroGradient;
    }
    fixedWalls
    {
        type            zeroGradient;
    }
    frontAndBack
    {
        type            empty;
    }
}


// ************************************************************************* //
