/*--------------------------------*- C++ -*----------------------------------*\
  =========                 |
  \\      /  F ield         | OpenFOAM: The Open Source CFD Toolbox
   \\    /   O peration     | Website:  https://openfoam.org
    \\  /    A nd           | Version:  7
     \\/     M anipulation  |
\*---------------------------------------------------------------------------*/
FoamFile
{
    version     2.0;
    format      ascii;
    class       surfaceScalarField;
    location    "0.0526";
    object      phi;
}
// * * * * * * * * * * * * * * * * * * * * * * * * * * * * * * * * * * * * * //

dimensions      [0 3 -1 0 0 0 0];

internalField   nonuniform List<scalar> 
4900
(
5.45467e-06
-5.45468e-06
9.95322e-06
-4.49855e-06
1.2694e-05
-2.74079e-06
1.44122e-05
-1.71823e-06
1.55284e-05
-1.11614e-06
1.62814e-05
-7.53039e-07
1.68123e-05
-5.3092e-07
1.72027e-05
-3.90356e-07
1.74997e-05
-2.97028e-07
1.77317e-05
-2.31996e-07
1.79164e-05
-1.84731e-07
1.80656e-05
-1.49168e-07
1.81873e-05
-1.21657e-07
1.82872e-05
-9.9898e-08
1.83695e-05
-8.23765e-08
1.84376e-05
-6.8053e-08
1.84938e-05
-5.61876e-08
1.854e-05
-4.62356e-08
1.85778e-05
-3.77844e-08
1.86083e-05
-3.05126e-08
1.86325e-05
-2.41626e-08
1.8651e-05
-1.85226e-08
1.86644e-05
-1.34132e-08
1.86731e-05
-8.67797e-09
1.86773e-05
-4.17603e-09
1.8677e-05
2.2835e-10
1.86724e-05
4.65572e-09
1.86631e-05
9.24378e-09
1.8649e-05
1.41262e-08
1.86296e-05
1.94537e-08
1.86042e-05
2.53975e-08
1.8572e-05
3.21599e-08
1.8532e-05
3.99879e-08
1.84828e-05
4.91914e-08
1.84227e-05
6.0172e-08
1.83492e-05
7.34632e-08
1.82594e-05
8.97948e-08
1.81492e-05
1.10195e-07
1.8013e-05
1.36165e-07
1.78431e-05
1.69977e-07
1.76278e-05
2.15234e-07
1.73499e-05
2.77927e-07
1.69814e-05
3.68519e-07
1.64753e-05
5.06092e-07
1.57493e-05
7.26017e-07
1.46574e-05
1.09184e-06
1.29451e-05
1.7123e-06
1.0162e-05
2.78314e-06
5.55726e-06
4.60473e-06
5.55726e-06
-1.19253e-07
-5.33543e-06
1.83188e-06
-6.44968e-06
4.4134e-06
-5.32231e-06
6.72949e-06
-4.03432e-06
8.6098e-06
-2.99645e-06
1.00928e-05
-2.23603e-06
1.12581e-05
-1.69627e-06
1.218e-05
-1.31217e-06
1.29167e-05
-1.03377e-06
1.35119e-05
-8.27227e-07
1.39975e-05
-6.7034e-07
1.43969e-05
-5.48546e-07
1.47274e-05
-4.5216e-07
1.50021e-05
-3.74605e-07
1.5231e-05
-3.11297e-07
1.54219e-05
-2.58958e-07
1.55809e-05
-2.15179e-07
1.57129e-05
-1.78148e-07
1.58215e-05
-1.46462e-07
1.591e-05
-1.19014e-07
1.59808e-05
-9.49033e-08
1.60356e-05
-7.33802e-08
1.6076e-05
-5.38037e-08
1.6103e-05
-3.5609e-08
1.61171e-05
-1.82824e-08
1.61186e-05
-1.34193e-09
1.61076e-05
1.56855e-08
1.60836e-05
3.3276e-08
1.60458e-05
5.19328e-08
1.5993e-05
7.22058e-08
1.59237e-05
9.4718e-08
1.58356e-05
1.202e-07
1.57261e-05
1.49534e-07
1.55915e-05
1.83819e-07
1.54272e-05
2.24453e-07
1.52274e-05
2.73268e-07
1.49845e-05
3.32718e-07
1.46885e-05
4.06171e-07
1.43263e-05
4.98368e-07
1.38801e-05
6.16151e-07
1.33257e-05
7.69655e-07
1.26294e-05
9.74236e-07
1.17443e-05
1.25356e-06
1.06062e-05
1.64423e-06
9.13088e-06
2.20134e-06
7.22389e-06
2.99883e-06
4.83125e-06
4.10494e-06
2.12091e-06
5.49348e-06
1.07138e-08
6.71493e-06
5.56797e-06
-1.08241e-06
-4.25303e-06
-7.54049e-07
-6.77803e-06
5.8954e-07
-6.6659e-06
2.30183e-06
-5.74661e-06
4.0131e-06
-4.70773e-06
5.56472e-06
-3.78764e-06
6.90944e-06
-3.041e-06
8.05085e-06
-2.45358e-06
9.0115e-06
-1.99442e-06
9.81813e-06
-1.63385e-06
1.04958e-05
-1.34797e-06
1.10659e-05
-1.11868e-06
1.15463e-05
-9.32605e-07
1.19516e-05
-7.79885e-07
1.22935e-05
-6.53215e-07
1.25817e-05
-5.47105e-07
1.28239e-05
-4.5736e-07
1.30264e-05
-3.8072e-07
1.31946e-05
-3.14597e-07
1.33325e-05
-2.56898e-07
1.34435e-05
-2.0589e-07
1.35302e-05
-1.60108e-07
1.35947e-05
-1.18279e-07
1.36383e-05
-7.92675e-08
1.36621e-05
-4.20332e-08
1.36663e-05
-5.58997e-09
1.3651e-05
3.10323e-08
1.36154e-05
6.88126e-08
1.35586e-05
1.08784e-07
1.34787e-05
1.5207e-07
1.33735e-05
1.99935e-07
1.32398e-05
2.53847e-07
1.30738e-05
3.15555e-07
1.28704e-05
3.87202e-07
1.26234e-05
4.71471e-07
1.23249e-05
5.71792e-07
1.1965e-05
6.92635e-07
1.15312e-05
8.39929e-07
1.10079e-05
1.02166e-06
1.03754e-05
1.24871e-06
9.609e-06
1.53604e-06
8.67909e-06
1.90415e-06
7.55208e-06
2.38056e-06
6.1961e-06
3.00021e-06
4.5964e-06
3.80104e-06
2.79065e-06
4.80458e-06
9.37548e-07
5.95805e-06
-5.70835e-07
7.00186e-06
-1.03819e-06
7.18228e-06
4.52978e-06
-9.1303e-07
-3.34e-06
-1.34152e-06
-6.34954e-06
-9.36807e-07
-7.07062e-06
2.12591e-08
-6.70468e-06
1.23888e-06
-5.92534e-06
2.51657e-06
-5.06533e-06
3.74156e-06
-4.26599e-06
4.86115e-06
-3.57317e-06
5.85749e-06
-2.99077e-06
6.73075e-06
-2.50711e-06
7.48933e-06
-2.10656e-06
8.14473e-06
-1.77409e-06
8.70895e-06
-1.49682e-06
9.19327e-06
-1.26421e-06
9.60783e-06
-1.06778e-06
9.96148e-06
-9.00753e-07
1.02618e-05
-7.57699e-07
1.05153e-05
-6.34207e-07
1.07274e-05
-5.26659e-07
1.09025e-05
-4.32041e-07
1.10444e-05
-3.47796e-07
1.1156e-05
-2.71715e-07
1.12396e-05
-2.01843e-07
1.12967e-05
-1.36414e-07
1.13285e-05
-7.37856e-08
1.13353e-05
-1.23873e-08
1.1317e-05
4.93291e-08
1.12729e-05
1.12935e-07
1.12016e-05
1.8008e-07
1.11011e-05
2.52552e-07
1.09687e-05
3.32341e-07
1.08008e-05
4.21728e-07
1.0593e-05
5.23389e-07
1.03396e-05
6.40535e-07
1.0034e-05
7.77089e-07
9.66788e-06
9.37924e-07
9.23135e-06
1.12917e-06
8.71269e-06
1.35859e-06
8.09825e-06
1.6361e-06
7.37271e-06
1.97425e-06
6.52001e-06
2.38873e-06
5.52583e-06
2.89832e-06
4.38295e-06
3.52345e-06
3.10186e-06
4.2813e-06
1.73014e-06
5.17276e-06
3.82582e-07
6.15213e-06
-7.25075e-07
7.06571e-06
-1.26595e-06
7.54273e-06
-9.15925e-07
6.83226e-06
3.61386e-06
-6.64781e-07
-2.67522e-06
-1.29728e-06
-5.71704e-06
-1.41823e-06
-6.94967e-06
-1.04278e-06
-7.08012e-06
-3.25437e-07
-6.64269e-06
5.76274e-07
-5.96704e-06
1.54412e-06
-5.23384e-06
2.50222e-06
-4.53127e-06
3.40737e-06
-3.89592e-06
4.23821e-06
-3.33795e-06
4.98672e-06
-2.85507e-06
5.65257e-06
-2.43994e-06
6.23953e-06
-2.08378e-06
6.75328e-06
-1.77796e-06
7.20021e-06
-1.5147e-06
7.58667e-06
-1.28722e-06
7.91867e-06
-1.0897e-06
8.20165e-06
-9.17179e-07
8.44037e-06
-7.65387e-07
8.63898e-06
-6.30648e-07
8.80093e-06
-5.09743e-07
8.92903e-06
-3.99815e-07
9.02547e-06
-2.98285e-07
9.09183e-06
-2.02778e-07
9.1291e-06
-1.11055e-07
9.13767e-06
-2.09528e-08
9.11733e-06
6.96705e-08
9.06727e-06
1.62996e-07
8.98604e-06
2.61306e-07
8.87154e-06
3.67053e-07
8.72094e-06
4.82941e-07
8.53065e-06
6.12017e-07
8.29625e-06
7.57785e-07
8.01244e-06
9.24348e-07
7.67296e-06
1.11657e-06
7.27061e-06
1.34027e-06
6.79732e-06
1.60246e-06
6.24439e-06
1.91152e-06
5.6031e-06
2.27739e-06
4.86586e-06
2.71149e-06
4.02847e-06
3.22612e-06
3.09403e-06
3.83276e-06
2.07951e-06
4.53797e-06
1.02591e-06
5.3349e-06
1.19081e-08
6.18676e-06
-8.33307e-07
6.99735e-06
-1.32987e-06
7.56227e-06
-1.29318e-06
7.50604e-06
-6.85018e-07
6.2241e-06
2.92884e-06
-4.70799e-07
-2.20442e-06
-1.09976e-06
-5.08807e-06
-1.46823e-06
-6.58121e-06
-1.46958e-06
-7.07877e-06
-1.14957e-06
-6.9627e-06
-6.03155e-07
-6.51345e-06
7.60052e-08
-5.913e-06
8.14077e-07
-5.26934e-06
1.55945e-06
-4.64129e-06
2.27908e-06
-4.05758e-06
2.95359e-06
-3.52958e-06
3.57296e-06
-3.05931e-06
4.13322e-06
-2.64404e-06
4.63414e-06
-2.27888e-06
5.07768e-06
-1.95823e-06
5.46694e-06
-1.67648e-06
5.80554e-06
-1.42831e-06
6.0972e-06
-1.20884e-06
6.34547e-06
-1.01365e-06
6.55357e-06
-8.38752e-07
6.72434e-06
-6.80505e-07
6.86012e-06
-5.35593e-07
6.96277e-06
-4.00941e-07
7.03365e-06
-2.73656e-07
7.07357e-06
-1.50971e-07
7.0828e-06
-3.01847e-08
7.06107e-06
9.13977e-08
7.00754e-06
2.16522e-07
6.9208e-06
3.48051e-07
6.79882e-06
4.89035e-07
6.63897e-06
6.42789e-07
6.438e-06
8.12982e-07
6.19205e-06
1.00373e-06
5.89668e-06
1.21973e-06
5.54694e-06
1.4663e-06
5.13763e-06
1.74959e-06
4.66357e-06
2.07652e-06
4.12029e-06
2.4548e-06
3.50505e-06
2.89263e-06
2.81855e-06
3.39799e-06
2.06761e-06
3.97707e-06
1.26913e-06
4.63123e-06
4.55582e-07
5.35152e-06
-3.18503e-07
6.10899e-06
-9.70983e-07
6.83924e-06
-1.39304e-06
7.4194e-06
-1.46958e-06
7.63881e-06
-1.1362e-06
7.17267e-06
-4.96575e-07
5.58447e-06
2.43226e-06
-3.39849e-07
-1.86457e-06
-9.01949e-07
-4.52597e-06
-1.36408e-06
-6.11908e-06
-1.5848e-06
-6.85804e-06
-1.54567e-06
-7.00184e-06
-1.28869e-06
-6.77043e-06
-8.75161e-07
-6.32653e-06
-3.64132e-07
-5.78037e-06
1.96159e-07
-5.20158e-06
7.69896e-07
-4.63131e-06
1.33229e-06
-4.09198e-06
1.86727e-06
-3.59429e-06
2.36518e-06
-3.14194e-06
2.82087e-06
-2.73457e-06
3.23225e-06
-2.36961e-06
3.59917e-06
-2.0434e-06
3.9227e-06
-1.75184e-06
4.20456e-06
-1.4907e-06
4.44678e-06
-1.25587e-06
4.65141e-06
-1.04338e-06
4.82038e-06
-8.4948e-07
4.95539e-06
-6.70598e-07
5.05778e-06
-5.03336e-07
5.12854e-06
-3.4442e-07
5.16824e-06
-1.90668e-07
5.17699e-06
-3.89342e-08
5.15445e-06
1.13936e-07
5.09981e-06
2.71161e-07
5.01178e-06
4.36082e-07
4.8886e-06
6.12219e-07
4.72804e-06
8.03343e-07
4.52749e-06
1.01353e-06
4.28398e-06
1.24724e-06
3.99435e-06
1.50936e-06
3.65545e-06
1.80521e-06
3.26449e-06
2.14054e-06
2.81963e-06
2.52138e-06
2.32075e-06
2.95368e-06
1.77075e-06
3.44264e-06
1.17728e-06
3.99146e-06
5.55191e-07
4.59915e-06
-7.04124e-08
5.25684e-06
-6.60895e-07
5.942e-06
-1.16161e-06
6.6097e-06
-1.50287e-06
7.1805e-06
-1.6092e-06
7.52573e-06
-1.42438e-06
7.45399e-06
-9.59801e-07
6.70809e-06
-3.66588e-07
4.99126e-06
2.06568e-06
-2.54937e-07
-1.60963e-06
-7.41007e-07
-4.0399e-06
-1.2214e-06
-5.63868e-06
-1.55941e-06
-6.52003e-06
-1.70599e-06
-6.85526e-06
-1.66699e-06
-6.80943e-06
-1.47504e-06
-6.51847e-06
-1.17099e-06
-6.08442e-06
-7.93761e-07
-5.57881e-06
-3.7606e-07
-5.04901e-06
5.67585e-08
-4.5248e-06
4.86139e-07
-4.02367e-06
8.99187e-07
-3.55499e-06
1.28742e-06
-3.1228e-06
1.64562e-06
-2.72781e-06
1.97093e-06
-2.36871e-06
2.2621e-06
-2.04301e-06
2.51896e-06
-1.74756e-06
2.74197e-06
-1.47888e-06
2.93196e-06
-1.23336e-06
3.08985e-06
-1.00738e-06
3.21658e-06
-7.97324e-07
3.31291e-06
-5.99664e-07
3.37939e-06
-4.109e-07
3.41628e-06
-2.27567e-07
3.42355e-06
-4.62014e-08
3.4008e-06
1.3669e-07
3.34729e-06
3.24674e-07
3.26194e-06
5.21429e-07
3.14337e-06
7.30792e-07
2.98992e-06
9.56791e-07
2.79977e-06
1.20368e-06
2.57105e-06
1.47596e-06
2.30208e-06
1.77833e-06
1.99162e-06
2.11566e-06
1.63939e-06
2.49277e-06
1.24664e-06
2.91413e-06
8.17073e-07
3.38324e-06
3.57999e-07
3.90171e-06
-1.1815e-07
4.46761e-06
-5.92063e-07
5.07306e-06
-1.03579e-06
5.70056e-06
-1.41159e-06
6.3178e-06
-1.6727e-06
6.87081e-06
-1.76803e-06
7.27584e-06
-1.65419e-06
7.41189e-06
-1.31781e-06
7.11761e-06
-8.09385e-07
6.19966e-06
-2.81167e-07
4.46304e-06
1.78451e-06
-1.99358e-07
-1.41027e-06
-6.18188e-07
-3.62107e-06
-1.08412e-06
-5.17275e-06
-1.47883e-06
-6.12532e-06
-1.74284e-06
-6.59126e-06
-1.86064e-06
-6.69162e-06
-1.84349e-06
-6.53562e-06
-1.71556e-06
-6.21235e-06
-1.50484e-06
-5.78953e-06
-1.23791e-06
-5.31595e-06
-9.37559e-07
-4.82514e-06
-6.22086e-07
-4.33915e-06
-3.05448e-07
-3.87163e-06
2.13639e-09
-3.43038e-06
2.93502e-07
-3.01917e-06
5.6382e-07
-2.63903e-06
8.10034e-07
-2.28923e-06
1.03036e-06
-1.96789e-06
1.22388e-06
-1.67241e-06
1.39027e-06
-1.39975e-06
1.52951e-06
-1.14661e-06
1.64175e-06
-9.09571e-07
1.72719e-06
-6.85098e-07
1.78592e-06
-4.69631e-07
1.81792e-06
-2.59565e-07
1.82297e-06
-5.12582e-08
1.80067e-06
1.58989e-07
1.7504e-06
3.74948e-07
1.67135e-06
6.00485e-07
1.56256e-06
8.39576e-07
1.42304e-06
1.09631e-06
1.25183e-06
1.37489e-06
1.04821e-06
1.67958e-06
8.11958e-07
2.01459e-06
5.43662e-07
2.38396e-06
2.45227e-07
2.79121e-06
-7.95214e-08
3.23888e-06
-4.24051e-07
3.72777e-06
-7.78167e-07
4.25583e-06
-1.12697e-06
4.81641e-06
-1.44986e-06
5.39596e-06
-1.72002e-06
5.97072e-06
-1.9049e-06
6.50269e-06
-1.96891e-06
6.93481e-06
-1.87959e-06
7.18653e-06
-1.61898e-06
7.15128e-06
-1.20066e-06
6.69929e-06
-6.90696e-07
5.68969e-06
-2.24489e-07
3.99684e-06
1.56002e-06
-1.62015e-07
-1.24826e-06
-5.26259e-07
-3.25683e-06
-9.66067e-07
-4.73295e-06
-1.3836e-06
-5.70779e-06
-1.71936e-06
-6.2555e-06
-1.94688e-06
-6.4641e-06
-2.0631e-06
-6.41941e-06
-2.07898e-06
-6.19647e-06
-2.01224e-06
-5.85627e-06
-1.88249e-06
-5.4457e-06
-1.70836e-06
-4.99928e-06
-1.50611e-06
-4.5414e-06
-1.28913e-06
-4.0886e-06
-1.06803e-06
-3.65149e-06
-8.50881e-07
-3.23632e-06
-6.43645e-07
-2.84626e-06
-4.50609e-07
-2.48226e-06
-2.74749e-07
-2.14375e-06
-1.18068e-07
-1.82909e-06
1.81263e-08
-1.53594e-06
1.33007e-07
-1.2615e-06
2.26047e-07
-1.00261e-06
2.96887e-07
-7.55938e-07
3.45236e-07
-5.1798e-07
3.70803e-07
-2.85131e-07
3.73245e-07
-5.37007e-08
3.52156e-07
1.80077e-07
3.07065e-07
4.20039e-07
2.37466e-07
6.70084e-07
1.4288e-07
9.34162e-07
2.29482e-08
1.21624e-06
-1.22427e-07
1.52027e-06
-2.9289e-07
1.85004e-06
-4.87367e-07
2.20907e-06
-7.03726e-07
2.60032e-06
-9.38343e-07
3.02582e-06
-1.18557e-06
3.4861e-06
-1.43711e-06
3.97932e-06
-1.68142e-06
4.50013e-06
-1.90308e-06
5.03808e-06
-2.08259e-06
5.57547e-06
-2.19669e-06
6.08483e-06
-2.21997e-06
6.52596e-06
-2.12829e-06
6.84313e-06
-1.90494e-06
6.96319e-06
-1.54994e-06
6.79627e-06
-1.09172e-06
6.24107e-06
-5.98879e-07
5.19686e-06
-1.85678e-07
3.58363e-06
1.37434e-06
-1.36184e-07
-1.11207e-06
-4.57581e-07
-2.93543e-06
-8.6931e-07
-4.32122e-06
-1.29175e-06
-5.28535e-06
-1.66995e-06
-5.8773e-06
-1.97296e-06
-6.16108e-06
-2.18897e-06
-6.2034e-06
-2.31932e-06
-6.06613e-06
-2.37319e-06
-5.80239e-06
-2.36356e-06
-5.45533e-06
-2.30438e-06
-5.05845e-06
-2.20899e-06
-4.63679e-06
-2.08919e-06
-4.2084e-06
-1.95496e-06
-3.78572e-06
-1.81441e-06
-3.37688e-06
-1.67393e-06
-2.98674e-06
-1.53847e-06
-2.61773e-06
-1.41175e-06
-2.27047e-06
-1.29654e-06
-1.9443e-06
-1.19487e-06
-1.63762e-06
-1.1082e-06
-1.34816e-06
-1.03762e-06
-1.07319e-06
-9.83916e-07
-8.09638e-07
-9.47721e-07
-5.54175e-07
-9.29534e-07
-3.03318e-07
-9.29786e-07
-5.34487e-08
-9.48849e-07
1.9914e-07
-9.87026e-07
4.58216e-07
-1.04452e-06
7.27574e-07
-1.12135e-06
1.01099e-06
-1.21727e-06
1.31217e-06
-1.33163e-06
1.63462e-06
-1.46314e-06
1.98155e-06
-1.60969e-06
2.35561e-06
-1.76798e-06
2.75861e-06
-1.93323e-06
3.19107e-06
-2.09873e-06
3.6516e-06
-2.25546e-06
4.13604e-06
-2.39174e-06
4.63642e-06
-2.49315e-06
5.13948e-06
-2.54273e-06
5.62505e-06
-2.522e-06
6.06409e-06
-2.41296e-06
6.41693e-06
-2.20166e-06
6.63183e-06
-1.88345e-06
6.64498e-06
-1.46992e-06
6.38273e-06
-9.96381e-07
5.76754e-06
-5.27643e-07
4.72812e-06
-1.58089e-07
3.21408e-06
1.21625e-06
-1.17829e-07
-9.94243e-07
-4.06012e-07
-2.64725e-06
-7.91756e-07
-3.93547e-06
-1.21027e-06
-4.86683e-06
-1.61266e-06
-5.47492e-06
-1.96715e-06
-5.80659e-06
-2.25704e-06
-5.91351e-06
-2.47712e-06
-5.84605e-06
-2.62998e-06
-5.64954e-06
-2.72285e-06
-5.36246e-06
-2.76524e-06
-5.01607e-06
-2.76721e-06
-4.63482e-06
-2.73846e-06
-4.23715e-06
-2.68771e-06
-3.83647e-06
-2.62246e-06
-3.44213e-06
-2.54898e-06
-3.06022e-06
-2.47238e-06
-2.69433e-06
-2.39673e-06
-2.34611e-06
-2.32524e-06
-2.01579e-06
-2.26039e-06
-1.70246e-06
-2.2041e-06
-1.40445e-06
-2.15785e-06
-1.11945e-06
-2.12276e-06
-8.44732e-07
-2.09968e-06
-5.7725e-07
-2.08928e-06
-3.13721e-07
-2.09202e-06
-5.07046e-08
-2.10822e-06
2.15341e-07
-2.13801e-06
4.88003e-07
-2.18129e-06
7.70858e-07
-2.2377e-06
1.06739e-06
-2.30645e-06
1.38092e-06
-2.38627e-06
1.71444e-06
-2.47517e-06
2.07045e-06
-2.57027e-06
2.45072e-06
-2.66756e-06
2.8559e-06
-2.76161e-06
3.28513e-06
-2.84535e-06
3.73534e-06
-2.90987e-06
4.20056e-06
-2.94434e-06
4.67089e-06
-2.93622e-06
5.13136e-06
-2.87189e-06
5.56072e-06
-2.73789e-06
5.9301e-06
-2.52308e-06
6.20211e-06
-2.22173e-06
6.33049e-06
-1.83782e-06
6.26107e-06
-1.38977e-06
5.93468e-06
-9.14883e-07
5.29265e-06
-4.71693e-07
4.28493e-06
-1.37752e-07
2.88014e-06
1.0785e-06
-1.0449e-07
-8.89753e-07
-3.67012e-07
-2.38473e-06
-7.30255e-07
-3.57223e-06
-1.14105e-06
-4.45604e-06
-1.55651e-06
-5.05945e-06
-1.94596e-06
-5.41714e-06
-2.29032e-06
-5.56915e-06
-2.58014e-06
-5.55623e-06
-2.81318e-06
-5.4165e-06
-2.99204e-06
-5.18359e-06
-3.12224e-06
-4.88587e-06
-3.21073e-06
-4.54633e-06
-3.26488e-06
-4.183e-06
-3.29181e-06
-3.80954e-06
-3.29803e-06
-3.43591e-06
-3.28928e-06
-3.06897e-06
-3.27044e-06
-2.71317e-06
-3.2456e-06
-2.37095e-06
-3.21811e-06
-2.04328e-06
-3.19069e-06
-1.72989e-06
-3.16549e-06
-1.42964e-06
-3.14424e-06
-1.1407e-06
-3.12827e-06
-8.60709e-07
-3.11857e-06
-5.86944e-07
-3.1159e-06
-3.16399e-07
-3.12071e-06
-4.58894e-08
-3.13325e-06
2.27877e-07
-3.15346e-06
5.08221e-07
-3.18102e-06
7.9841e-07
-3.21519e-06
1.10156e-06
-3.2548e-06
1.42053e-06
-3.2981e-06
1.75774e-06
-3.34263e-06
2.11498e-06
-3.38506e-06
2.49314e-06
-3.42102e-06
2.89186e-06
-3.44494e-06
3.30905e-06
-3.44997e-06
3.74037e-06
-3.4279e-06
4.17849e-06
-3.36937e-06
4.61236e-06
-3.26425e-06
5.02625e-06
-3.10246e-06
5.39893e-06
-2.8753e-06
5.70294e-06
-2.57742e-06
5.90422e-06
-2.20943e-06
5.9625e-06
-1.78105e-06
5.83269e-06
-1.31428e-06
5.4679e-06
-8.45723e-07
4.8241e-06
-4.27078e-07
3.86628e-06
-1.22273e-07
2.57534e-06
9.56226e-07
-9.46231e-08
-7.9513e-07
-3.37307e-07
-2.14204e-06
-6.8173e-07
-3.22781e-06
-1.08366e-06
-4.05412e-06
-1.5056e-06
-4.63751e-06
-1.91878e-06
-5.00396e-06
-2.30329e-06
-5.18464e-06
-2.64711e-06
-5.2124e-06
-2.94458e-06
-5.11903e-06
-3.19472e-06
-4.93346e-06
-3.39969e-06
-4.68089e-06
-3.56363e-06
-4.38239e-06
-3.69163e-06
-4.055e-06
-3.78911e-06
-3.71206e-06
-3.86138e-06
-3.36364e-06
-3.91336e-06
-3.01699e-06
-3.94946e-06
-2.67707e-06
-3.97351e-06
-2.3469e-06
-3.98878e-06
-2.028e-06
-3.99801e-06
-1.72066e-06
-4.00344e-06
-1.42421e-06
-4.00687e-06
-1.13726e-06
-4.00974e-06
-8.5784e-07
-4.01312e-06
-5.83572e-07
-4.01774e-06
-3.11773e-07
-4.02406e-06
-3.95666e-08
-4.03222e-06
2.3603e-07
-4.04201e-06
5.18009e-07
-4.05287e-06
8.09275e-07
-4.06383e-06
1.11253e-06
-4.07343e-06
1.43013e-06
-4.0796e-06
1.76392e-06
-4.07963e-06
2.11502e-06
-4.07002e-06
2.48353e-06
-4.04638e-06
2.86822e-06
-4.00339e-06
3.26607e-06
-3.93482e-06
3.6718e-06
-3.83362e-06
4.07729e-06
-3.6922e-06
4.47094e-06
-3.50302e-06
4.83707e-06
-3.25942e-06
5.15532e-06
-2.95686e-06
5.40039e-06
-2.5947e-06
5.54206e-06
-2.17814e-06
5.54594e-06
-1.72054e-06
5.37509e-06
-1.24532e-06
4.99268e-06
-7.87052e-07
4.36583e-06
-3.9097e-07
3.4702e-06
-1.10177e-07
2.29454e-06
8.46049e-07
-8.72249e-08
-7.07905e-07
-3.14543e-07
-1.91473e-06
-6.4354e-07
-2.89881e-06
-1.0368e-06
-3.66086e-06
-1.46141e-06
-4.2129e-06
-1.89075e-06
-4.57462e-06
-2.30494e-06
-4.77044e-06
-2.69054e-06
-4.8268e-06
-3.03954e-06
-4.77003e-06
-3.34824e-06
-4.62476e-06
-3.61616e-06
-4.41298e-06
-3.84494e-06
-4.1536e-06
-4.03763e-06
-3.86231e-06
-4.19796e-06
-3.55173e-06
-4.32996e-06
-3.23164e-06
-4.4376e-06
-2.90935e-06
-4.52464e-06
-2.59003e-06
-4.59449e-06
-2.27705e-06
-4.65015e-06
-1.97234e-06
-4.69423e-06
-1.67659e-06
-4.72889e-06
-1.38955e-06
-4.75593e-06
-1.11022e-06
-4.77676e-06
-8.37008e-07
-4.79244e-06
-5.67888e-07
-4.8037e-06
-3.00521e-07
-4.8109e-06
-3.23665e-08
-4.81408e-06
2.39211e-07
-4.81291e-06
5.16842e-07
-4.80667e-06
8.03036e-07
-4.7942e-06
1.10006e-06
-4.77386e-06
1.40979e-06
-4.74346e-06
1.73351e-06
-4.7002e-06
2.07176e-06
-4.64064e-06
2.42397e-06
-4.56064e-06
2.78823e-06
-4.45545e-06
3.16087e-06
-4.31971e-06
3.53606e-06
-4.14774e-06
3.90532e-06
-3.9339e-06
4.2571e-06
-3.67314e-06
4.57631e-06
-3.3619e-06
4.84407e-06
-2.99915e-06
5.03764e-06
-2.58787e-06
5.13077e-06
-2.1365e-06
5.09457e-06
-1.66048e-06
4.89907e-06
-1.18337e-06
4.51557e-06
-7.37176e-07
3.91964e-06
-3.61375e-07
3.0944e-06
-1.00526e-07
2.03369e-06
7.45523e-07
-8.16228e-08
-6.26283e-07
-2.97016e-07
-1.69933e-06
-6.13527e-07
-2.5823e-06
-9.98939e-07
-3.27545e-06
-1.42412e-06
-3.78772e-06
-1.8645e-06
-4.13424e-06
-2.30076e-06
-4.33418e-06
-2.71869e-06
-4.40887e-06
-3.10877e-06
-4.37996e-06
-3.46531e-06
-4.26821e-06
-3.7857e-06
-4.09259e-06
-4.06957e-06
-3.86973e-06
-4.31812e-06
-3.61377e-06
-4.53353e-06
-3.33632e-06
-4.71856e-06
-3.04661e-06
-4.87622e-06
-2.7517e-06
-5.0095e-06
-2.45675e-06
-5.12127e-06
-2.16528e-06
-5.21418e-06
-1.87943e-06
-5.29055e-06
-1.60022e-06
-5.35239e-06
-1.32771e-06
-5.40138e-06
-1.06123e-06
-5.43885e-06
-7.99537e-07
-5.46579e-06
-5.40951e-07
-5.48284e-06
-2.83475e-07
-5.49029e-06
-2.49175e-08
-5.48807e-06
2.36999e-07
-5.47576e-06
5.04528e-07
-5.45251e-06
7.79784e-07
-5.41705e-06
1.06461e-06
-5.36769e-06
1.36042e-06
-5.3022e-06
1.66803e-06
-5.2179e-06
1.98745e-06
-5.11157e-06
2.31764e-06
-4.97954e-06
2.6562e-06
-4.81776e-06
2.99909e-06
-4.62195e-06
3.34024e-06
-4.38788e-06
3.67126e-06
-4.1118e-06
3.98102e-06
-3.791e-06
4.25551e-06
-3.42456e-06
4.47763e-06
-3.01432e-06
4.62741e-06
-2.56597e-06
4.68242e-06
-2.09011e-06
4.61871e-06
-1.60325e-06
4.41221e-06
-1.12834e-06
4.04067e-06
-6.94693e-07
3.48599e-06
-3.3688e-07
2.73659e-06
-9.27065e-08
1.78952e-06
6.52816e-07
-7.73518e-08
-5.48931e-07
-2.8348e-07
-1.4932e-06
-5.89979e-07
-2.2758e-06
-9.68597e-07
-2.89683e-06
-1.39325e-06
-3.36307e-06
-1.84125e-06
-3.68623e-06
-2.29398e-06
-3.88146e-06
-2.73698e-06
-3.96586e-06
-3.15973e-06
-3.95721e-06
-3.55513e-06
-3.87281e-06
-3.91892e-06
-3.72879e-06
-4.24908e-06
-3.53957e-06
-4.54525e-06
-3.3176e-06
-4.80823e-06
-3.07334e-06
-5.03959e-06
-2.81524e-06
-5.24138e-06
-2.54991e-06
-5.41583e-06
-2.2823e-06
-5.56521e-06
-2.01589e-06
-5.69171e-06
-1.75293e-06
-5.79735e-06
-1.49459e-06
-5.88388e-06
-1.24118e-06
-5.95279e-06
-9.92312e-07
-6.00529e-06
-7.47043e-07
-6.04223e-06
-5.04006e-07
-6.06417e-06
-2.61537e-07
-6.0713e-06
-1.77893e-08
-6.06346e-06
2.29161e-07
-6.04013e-06
4.812e-07
-6.00041e-06
7.4006e-07
-5.94299e-06
1.00719e-06
-5.86617e-06
1.2836e-06
-5.76785e-06
1.56971e-06
-5.64553e-06
1.86514e-06
-5.49639e-06
2.1685e-06
-5.31732e-06
2.47713e-06
-5.10508e-06
2.78685e-06
-4.85652e-06
3.09169e-06
-4.56886e-06
3.3836e-06
-4.24011e-06
3.65227e-06
-3.86959e-06
3.885e-06
-3.45865e-06
4.06669e-06
-3.01136e-06
4.18012e-06
-2.53538e-06
4.20644e-06
-2.0427e-06
4.12603e-06
-1.55021e-06
3.91972e-06
-1.07989e-06
3.57036e-06
-6.58503e-07
3.06459e-06
-3.16485e-07
2.39457e-06
-8.63055e-08
1.55934e-06
5.66511e-07
-7.40837e-08
-4.74847e-07
-2.73018e-07
-1.29427e-06
-5.71551e-07
-1.97727e-06
-9.44461e-07
-2.52392e-06
-1.36809e-06
-2.93944e-06
-1.82139e-06
-3.23294e-06
-2.28648e-06
-3.41636e-06
-2.74892e-06
-3.50343e-06
-3.19758e-06
-3.50855e-06
-3.62435e-06
-3.44604e-06
-4.02374e-06
-3.3294e-06
-4.3924e-06
-3.17091e-06
-4.72866e-06
-2.98134e-06
-5.03213e-06
-2.76987e-06
-5.30333e-06
-2.54404e-06
-5.54339e-06
-2.30985e-06
-5.75381e-06
-2.07188e-06
-5.93626e-06
-1.83344e-06
-6.09246e-06
-1.59673e-06
-6.22404e-06
-1.363e-06
-6.33249e-06
-1.13273e-06
-6.41908e-06
-9.05727e-07
-6.48482e-06
-6.81304e-07
-6.53044e-06
-4.58382e-07
-6.55637e-06
-2.35605e-07
-6.56271e-06
-1.14496e-08
-6.54922e-06
2.15669e-07
-6.51531e-06
4.47293e-07
-6.46006e-06
6.84802e-07
-6.38216e-06
9.29295e-07
-6.28002e-06
1.18145e-06
-6.15168e-06
1.44137e-06
-5.99495e-06
1.70841e-06
-5.80744e-06
1.98099e-06
-5.58669e-06
2.25637e-06
-5.33031e-06
2.53047e-06
-5.03625e-06
2.79762e-06
-4.70307e-06
3.05042e-06
-4.33037e-06
3.27957e-06
-3.91924e-06
3.47386e-06
-3.47283e-06
3.62028e-06
-2.99695e-06
3.70424e-06
-2.50065e-06
3.71015e-06
-1.99677e-06
3.62214e-06
-1.50214e-06
3.42509e-06
-1.03766e-06
3.10588e-06
-6.27762e-07
2.65469e-06
-2.99476e-07
2.06629e-06
-8.10403e-08
1.3409e-06
4.8547e-07
-7.15825e-08
-4.03264e-07
-2.64947e-07
-1.1009e-06
-5.57198e-07
-1.68502e-06
-9.25421e-07
-2.15569e-06
-1.34789e-06
-2.51697e-06
-1.80489e-06
-2.77594e-06
-2.27929e-06
-2.94196e-06
-2.75678e-06
-3.02594e-06
-3.22588e-06
-3.03945e-06
-3.6778e-06
-2.99413e-06
-4.10609e-06
-2.90111e-06
-4.50638e-06
-2.77062e-06
-4.87593e-06
-2.61179e-06
-5.21334e-06
-2.43246e-06
-5.51821e-06
-2.23916e-06
-5.79087e-06
-2.03719e-06
-6.03212e-06
-1.83063e-06
-6.24307e-06
-1.62249e-06
-6.42496e-06
-1.41484e-06
-6.57905e-06
-1.20891e-06
-6.70653e-06
-1.00525e-06
-6.80842e-06
-8.03832e-07
-6.88556e-06
-6.04165e-07
-6.93852e-06
-4.0542e-07
-6.96761e-06
-2.06519e-07
-6.97282e-06
-6.23631e-09
-6.95385e-06
1.96701e-07
-6.91008e-06
4.0352e-07
-6.84057e-06
6.1529e-07
-6.74409e-06
8.32814e-07
-6.61914e-06
1.0565e-06
-6.46402e-06
1.28625e-06
-6.27685e-06
1.52124e-06
-6.05572e-06
1.75986e-06
-5.79881e-06
1.99946e-06
-5.50456e-06
2.23623e-06
-5.17196e-06
2.46502e-06
-4.80078e-06
2.67924e-06
-4.39197e-06
2.87077e-06
-3.94811e-06
3.03e-06
-3.47378e-06
3.14595e-06
-2.97609e-06
3.20656e-06
-2.4651e-06
3.19915e-06
-1.95404e-06
3.11108e-06
-1.45952e-06
2.93058e-06
-1.00131e-06
2.64767e-06
-6.01836e-07
2.25522e-06
-2.85341e-07
1.74979e-06
-7.67135e-08
1.13228e-06
4.08757e-07
-6.96767e-08
-3.33588e-07
-2.5876e-07
-9.11821e-07
-5.46112e-07
-1.39767e-06
-9.10571e-07
-1.79124e-06
-1.33191e-06
-2.09564e-06
-1.79152e-06
-2.31632e-06
-2.27292e-06
-2.46056e-06
-2.762e-06
-2.53686e-06
-3.2471e-06
-2.55435e-06
-3.71894e-06
-2.5223e-06
-4.17039e-06
-2.44965e-06
-4.59626e-06
-2.34475e-06
-4.99299e-06
-2.21507e-06
-5.35833e-06
-2.06711e-06
-5.69111e-06
-1.90638e-06
-5.99096e-06
-1.73735e-06
-6.25805e-06
-1.56353e-06
-6.49299e-06
-1.38756e-06
-6.69658e-06
-1.21125e-06
-6.86972e-06
-1.03577e-06
-7.01331e-06
-8.61669e-07
-7.12813e-06
-6.89006e-07
-7.21484e-06
-5.17461e-07
-7.27384e-06
-3.46412e-07
-7.30534e-06
-1.75026e-07
-7.30923e-06
-2.34312e-09
-7.28516e-06
1.72628e-07
-7.23247e-06
3.50837e-07
-7.15027e-06
5.33086e-07
-7.03739e-06
7.19939e-07
-6.8925e-06
9.11611e-07
-6.71411e-06
1.10785e-06
-6.5007e-06
1.30783e-06
-6.25083e-06
1.50999e-06
-5.96329e-06
1.71192e-06
-5.63729e-06
1.91023e-06
-5.27272e-06
2.10045e-06
-4.87041e-06
2.27693e-06
-4.43247e-06
2.43283e-06
-3.96264e-06
2.56017e-06
-3.46666e-06
2.64996e-06
-2.95259e-06
2.69249e-06
-2.43113e-06
2.67769e-06
-1.91574e-06
2.59569e-06
-1.42263e-06
2.43747e-06
-9.7056e-07
2.19559e-06
-5.80258e-07
1.86492e-06
-2.73714e-07
1.44325e-06
-7.31864e-08
9.31749e-07
3.35571e-07
-6.82412e-08
-2.65347e-07
-2.54078e-07
-7.25985e-07
-5.37673e-07
-1.11407e-06
-8.99183e-07
-1.42973e-06
-1.31953e-06
-1.67529e-06
-1.78098e-06
-1.85487e-06
-2.2676e-06
-1.97394e-06
-2.7655e-06
-2.03896e-06
-3.26292e-06
-2.05692e-06
-3.75026e-06
-2.03495e-06
-4.21991e-06
-1.98001e-06
-4.66604e-06
-1.89861e-06
-5.08445e-06
-1.79666e-06
-5.47222e-06
-1.67934e-06
-5.82754e-06
-1.55106e-06
-6.14944e-06
-1.41544e-06
-6.43762e-06
-1.27536e-06
-6.69218e-06
-1.13299e-06
-6.91357e-06
-9.89866e-07
-7.10236e-06
-8.46985e-07
-7.25918e-06
-7.04853e-07
-7.3846e-06
-5.63585e-07
-7.47908e-06
-4.22975e-07
-7.54292e-06
-2.82575e-07
-7.57618e-06
-1.41764e-07
-7.57871e-06
1.82282e-10
-7.55008e-06
1.44004e-07
-7.48966e-06
2.90412e-07
-7.39656e-06
4.39986e-07
-7.26972e-06
5.931e-07
-7.10795e-06
7.49842e-07
-6.91001e-06
9.09909e-07
-6.67469e-06
1.07252e-06
-6.401e-06
1.2363e-06
-6.08826e-06
1.39918e-06
-5.73636e-06
1.55834e-06
-5.34598e-06
1.71006e-06
-4.9188e-06
1.84975e-06
-4.45789e-06
1.97191e-06
-3.96791e-06
2.07019e-06
-3.45546e-06
2.13751e-06
-2.9293e-06
2.16633e-06
-2.40056e-06
2.14894e-06
-1.88274e-06
2.07787e-06
-1.39167e-06
1.94641e-06
-9.45197e-07
1.74912e-06
-5.62683e-07
1.4824e-06
-2.64332e-07
1.1449e-06
-7.03608e-08
7.37778e-07
2.6521e-07
-6.71854e-08
-1.98161e-07
-2.50621e-07
-5.42549e-07
-5.31417e-07
-8.33274e-07
-8.90693e-07
-1.07045e-06
-1.31023e-06
-1.25576e-06
-1.77296e-06
-1.39213e-06
-2.2634e-06
-1.48351e-06
-2.76783e-06
-1.53453e-06
-3.2745e-06
-1.55026e-06
-3.77356e-06
-1.53589e-06
-4.25705e-06
-1.49652e-06
-4.71871e-06
-1.43695e-06
-5.15382e-06
-1.36155e-06
-5.55896e-06
-1.2742e-06
-5.93182e-06
-1.1782e-06
-6.27097e-06
-1.07629e-06
-6.57567e-06
-9.70664e-07
-6.84567e-06
-8.62985e-07
-7.08108e-06
-7.54456e-07
-7.28221e-06
-6.45856e-07
-7.44946e-06
-5.37608e-07
-7.58321e-06
-4.29832e-07
-7.68377e-06
-3.22408e-07
-7.75132e-06
-2.15028e-07
-7.78583e-06
-1.07255e-07
-7.78707e-06
1.42488e-09
-7.75461e-06
1.1154e-07
-7.68779e-06
2.23588e-07
-7.58576e-06
3.37965e-07
-7.44757e-06
4.54907e-07
-7.27216e-06
5.74428e-07
-7.05849e-06
6.96239e-07
-6.80565e-06
8.19684e-07
-6.51302e-06
9.4366e-07
-6.18038e-06
1.06654e-06
-5.80818e-06
1.18613e-06
-5.39771e-06
1.29959e-06
-4.95138e-06
1.40342e-06
-4.47295e-06
1.49349e-06
-3.96782e-06
1.56505e-06
-3.44321e-06
1.6129e-06
-2.90838e-06
1.6315e-06
-2.3747e-06
1.61527e-06
-1.85568e-06
1.55885e-06
-1.36676e-06
1.45749e-06
-9.25064e-07
1.30742e-06
-5.48866e-07
1.10621e-06
-2.57009e-07
8.53039e-07
-6.81677e-08
5.48936e-07
1.97042e-07
-6.64441e-08
-1.31717e-07
-2.48188e-07
-3.60806e-07
-5.26999e-07
-5.54463e-07
-8.84674e-07
-7.12776e-07
-1.3036e-06
-8.36834e-07
-1.7672e-06
-9.28529e-07
-2.2603e-06
-9.90404e-07
-2.76936e-06
-1.02547e-06
-3.28261e-06
-1.03701e-06
-3.79007e-06
-1.02843e-06
-4.28354e-06
-1.00305e-06
-4.75645e-06
-9.64041e-07
-5.20372e-06
-9.14291e-07
-5.62155e-06
-8.56368e-07
-6.00727e-06
-7.92478e-07
-6.35911e-06
-7.24459e-07
-6.67599e-06
-6.53782e-07
-6.9574e-06
-5.81579e-07
-7.20318e-06
-5.08668e-07
-7.41345e-06
-4.3559e-07
-7.58841e-06
-3.62644e-07
-7.72832e-06
-2.89927e-07
-7.83335e-06
-2.17375e-07
-7.90358e-06
-1.44798e-07
-7.93892e-06
-7.19163e-08
-7.93909e-06
1.59588e-09
-7.90363e-06
7.60781e-08
-7.83188e-06
1.51844e-07
-7.72306e-06
2.29139e-07
-7.57625e-06
3.08099e-07
-7.39053e-06
3.88707e-07
-7.16503e-06
4.70741e-07
-6.89908e-06
5.53731e-07
-6.59232e-06
6.36905e-07
-6.24493e-06
7.19147e-07
-5.85775e-06
7.98954e-07
-5.43257e-06
8.74407e-07
-4.9723e-06
9.43158e-07
-4.48125e-06
1.00244e-06
-3.96532e-06
1.04912e-06
-3.43217e-06
1.07975e-06
-2.8914e-06
1.09072e-06
-2.35453e-06
1.0784e-06
-1.83501e-06
1.03933e-06
-1.348e-06
9.7048e-07
-9.10048e-07
8.69468e-07
-5.38635e-07
7.34793e-07
-2.51615e-07
5.66019e-07
-6.65591e-08
3.63881e-07
1.30483e-07
-6.5973e-08
-6.57439e-08
-2.46639e-07
-1.8014e-07
-5.2418e-07
-2.76921e-07
-8.80823e-07
-3.56134e-07
-1.29934e-06
-4.18315e-07
-1.76348e-06
-4.64391e-07
-2.25827e-06
-4.9561e-07
-2.77029e-06
-5.13454e-07
-3.28776e-06
-5.1954e-07
-3.80065e-06
-5.15543e-07
-4.30059e-06
-5.03114e-07
-4.78081e-06
-4.8382e-07
-5.236e-06
-4.591e-07
-5.66213e-06
-4.30234e-07
-6.05629e-06
-3.98325e-07
-6.41645e-06
-3.64294e-07
-6.74135e-06
-3.2888e-07
-7.03028e-06
-2.92656e-07
-7.28291e-06
-2.56035e-07
-7.49921e-06
-2.19294e-07
-7.67926e-06
-1.82588e-07
-7.82322e-06
-1.4597e-07
-7.93118e-06
-1.09414e-07
-8.00315e-06
-7.28275e-08
-8.03899e-06
-3.6077e-08
-8.03839e-06
9.9711e-10
-8.00087e-06
3.85598e-08
-7.92579e-06
7.67628e-08
-7.81238e-06
1.15723e-07
-7.65978e-06
1.55502e-07
-7.46715e-06
1.96082e-07
-7.23376e-06
2.37345e-07
-6.95907e-06
2.79045e-07
-6.64295e-06
3.20785e-07
-6.2858e-06