/*--------------------------------*- C++ -*----------------------------------*\
  =========                 |
  \\      /  F ield         | OpenFOAM: The Open Source CFD Toolbox
   \\    /   O peration     | Website:  https://openfoam.org
    \\  /    A nd           | Version:  7
     \\/     M anipulation  |
\*---------------------------------------------------------------------------*/
FoamFile
{
    version     2.0;
    format      ascii;
    class       surfaceScalarField;
    location    "0.0626";
    object      phi;
}
// * * * * * * * * * * * * * * * * * * * * * * * * * * * * * * * * * * * * * //

dimensions      [0 3 -1 0 0 0 0];

internalField   nonuniform List<scalar> 
4900
(
1.10922e-09
-1.11584e-09
2.24623e-09
-1.13702e-09
2.2924e-09
-4.62172e-11
8.64e-10
1.42842e-09
-2.11755e-09
2.98157e-09
-6.56838e-09
4.45082e-09
-1.23268e-08
5.75845e-09
-1.91966e-08
6.86978e-09
-2.69689e-08
7.77237e-09
-3.54339e-08
8.46494e-09
-4.43862e-08
8.95229e-09
-5.36289e-08
9.24275e-09
-6.29757e-08
9.34678e-09
-7.22517e-08
9.27604e-09
-8.12947e-08
9.04293e-09
-8.99549e-08
8.66028e-09
-9.8096e-08
8.1411e-09
-1.05595e-07
7.4985e-09
-1.1234e-07
6.74565e-09
-1.18236e-07
5.89573e-09
-1.23198e-07
4.96201e-09
-1.27156e-07
3.95787e-09
-1.30053e-07
2.89689e-09
-1.31845e-07
1.79291e-09
-1.32506e-07
6.60088e-10
-1.32019e-07
-4.87008e-10
-1.30385e-07
-1.63337e-09
-1.27622e-07
-2.76352e-09
-1.2376e-07
-3.86153e-09
-1.18849e-07
-4.91101e-09
-1.12954e-07
-5.89525e-09
-1.06157e-07
-6.79726e-09
-9.85568e-08
-7.59996e-09
-9.02704e-08
-8.28635e-09
-8.14307e-08
-8.83975e-09
-7.21867e-08
-9.24403e-09
-6.27027e-08
-9.48396e-09
-5.31572e-08
-9.54549e-09
-4.3741e-08
-9.41619e-09
-3.46554e-08
-9.08564e-09
-2.61093e-08
-8.54611e-09
-1.8316e-08
-7.7933e-09
-1.14882e-08
-6.82779e-09
-5.83077e-09
-5.6574e-09
-1.52858e-09
-4.30217e-09
1.27696e-09
-2.80552e-09
2.52961e-09
-1.25264e-09
2.32547e-09
2.04146e-10
1.11114e-09
1.21432e-09
1.11112e-09
1.14571e-09
-2.26154e-09
1.25706e-09
-1.2484e-09
-1.26923e-09
2.48006e-09
-7.19292e-09
7.35211e-09
-1.67364e-08
1.2525e-08
-2.97904e-08
1.75048e-08
-4.60454e-08
2.20134e-08
-6.50776e-08
2.5902e-08
-8.64026e-08
2.90973e-08
-1.09509e-07
3.15714e-08
-1.33881e-07
3.33239e-08
-1.5901e-07
3.43723e-08
-1.84409e-07
3.47454e-08
-2.09612e-07
3.44793e-08
-2.34184e-07
3.36149e-08
-2.5772e-07
3.21963e-08
-2.79849e-07
3.02697e-08
-3.00232e-07
2.78823e-08
-3.18569e-07
2.50825e-08
-3.34593e-07
2.19193e-08
-3.48073e-07
1.84424e-08
-3.58818e-07
1.47022e-08
-3.66671e-07
1.07499e-08
-3.71516e-07
6.63801e-09
-3.73276e-07
2.42012e-09
-3.71914e-07
-1.84875e-09
-3.67435e-07
-6.11202e-09
-3.59887e-07
-1.03116e-08
-3.49361e-07
-1.43878e-08
-3.35992e-07
-1.82798e-08
-3.19962e-07
-2.19256e-08
-3.01496e-07
-2.52627e-08
-2.80868e-07
-2.82285e-08
-2.58393e-07
-3.07614e-08
-2.34431e-07
-3.28012e-08
-2.09385e-07
-3.42907e-08
-1.83692e-07
-3.51765e-08
-1.57827e-07
-3.54107e-08
-1.32291e-07
-3.49524e-08
-1.07606e-07
-3.37701e-08
-8.43079e-08
-3.18442e-08
-6.29301e-08
-2.91711e-08
-4.39891e-08
-2.57687e-08
-2.796e-08
-2.16865e-08
-1.52409e-08
-1.70212e-08
-6.10052e-09
-1.19459e-08
-5.93865e-10
-6.75925e-09
1.58242e-09
-1.97209e-09
1.22567e-09
1.57112e-09
2.33678e-09
1.05276e-10
-2.36688e-09
-2.37518e-09
1.23209e-09
-8.98689e-09
9.09179e-09
-2.05053e-08
1.88705e-08
-3.71652e-08
2.91849e-08
-5.88203e-08
3.916e-08
-8.50622e-08
4.82553e-08
-1.15314e-07
5.61534e-08
-1.48896e-07
6.26798e-08
-1.85077e-07
6.77524e-08
-2.23103e-07
7.13501e-08
-2.62224e-07
7.34927e-08
-3.01706e-07
7.42278e-08
-3.40849e-07
7.36218e-08
-3.78988e-07
7.17541e-08
-4.15504e-07
6.87128e-08
-4.49827e-07
6.45922e-08
-4.81435e-07
5.94906e-08
-5.09862e-07
5.35095e-08
-5.34695e-07
4.67528e-08
-5.55579e-07
3.93264e-08
-5.72215e-07
3.13382e-08
-5.84364e-07
2.28984e-08
-5.91845e-07
1.41195e-08
-5.94542e-07
5.11672e-09
-5.92399e-07
-3.99165e-09
-5.85427e-07
-1.30844e-08
-5.73701e-07
-2.20372e-08
-5.57366e-07
-3.0723e-08
-5.36634e-07
-3.9012e-08
-5.11786e-07
-4.67731e-08
-4.83175e-07
-5.38742e-08
-4.51219e-07
-6.0184e-08
-4.16407e-07
-6.55736e-08
-3.7929e-07
-6.9918e-08
-3.40482e-07
-7.30994e-08
-3.00649e-07
-7.50093e-08
-2.60508e-07
-7.55519e-08
-2.20812e-07
-7.46485e-08
-1.8234e-07
-7.22417e-08
-1.45882e-07
-6.83023e-08
-1.12216e-07
-6.28375e-08
-8.2081e-08
-5.59033e-08
-5.61445e-08
-4.76229e-08
-3.49497e-08
-3.8216e-08
-1.88505e-08
-2.80451e-08
-7.91948e-09
-1.76903e-08
-1.83639e-09
-8.05519e-09
2.66028e-10
-5.31279e-10
2.6028e-09
-1.32944e-09
-1.03745e-09
-7.17273e-09
7.0754e-09
-1.86986e-08
2.06176e-08
-3.64904e-08
3.66623e-08
-6.06724e-08
5.33669e-08
-9.10018e-08
6.94894e-08
-1.26963e-07
8.42166e-08
-1.6785e-07
9.70399e-08
-2.1283e-07
1.0766e-07
-2.60998e-07
1.15921e-07
-3.11415e-07
1.21767e-07
-3.63135e-07
1.25213e-07
-4.15229e-07
1.26322e-07
-4.66801e-07
1.25194e-07
-5.17e-07
1.21952e-07
-5.65025e-07
1.16738e-07
-6.10138e-07
1.09705e-07
-6.51664e-07
1.01016e-07
-6.88995e-07
9.08403e-08
-7.21594e-07
7.93521e-08
-7.48998e-07
6.67305e-08
-7.70818e-07
5.31583e-08
-7.86743e-07
3.88228e-08
-7.96538e-07
2.39153e-08
-8.00053e-07
8.63174e-09
-7.97218e-07
-6.82686e-09
-7.88048e-07
-2.22547e-08
-7.72644e-07
-3.74411e-08
-7.51196e-07
-5.21709e-08
-7.23983e-07
-6.62255e-08
-6.91372e-07
-7.93839e-08
-6.53821e-07
-9.14248e-08
-6.11876e-07
-1.02129e-07
-5.66169e-07
-1.11281e-07
-5.17413e-07
-1.18674e-07
-4.66398e-07
-1.24115e-07
-4.13979e-07
-1.27427e-07
-3.61074e-07
-1.28458e-07
-3.0864e-07
-1.27083e-07
-2.57664e-07
-1.23218e-07
-2.09138e-07
-1.16828e-07
-1.64033e-07
-1.07942e-07
-1.23267e-07
-9.66698e-08
-8.76576e-08
-8.32319e-08
-5.78755e-08
-6.79982e-08
-3.43733e-08
-5.15472e-08
-1.73087e-08
-3.4755e-08
-6.45468e-09
-1.89092e-08
-1.11771e-09
-5.86825e-09
1.4851e-09
-2.86396e-09
1.82652e-09
-1.23984e-08
1.66098e-08
-2.92492e-08
3.74684e-08
-5.36911e-08
6.11042e-08
-8.56401e-08
8.53159e-08
-1.24699e-07
1.08548e-07
-1.70218e-07
1.29736e-07
-2.2136e-07
1.48182e-07
-2.77155e-07
1.63454e-07
-3.3655e-07
1.75316e-07
-3.9845e-07
1.83667e-07
-4.61751e-07
1.88514e-07
-5.25361e-07
1.89932e-07
-5.88224e-07
1.88057e-07
-6.4933e-07
1.83058e-07
-7.0773e-07
1.75139e-07
-7.62545e-07
1.6452e-07
-8.12968e-07
1.51439e-07
-8.58274e-07
1.36146e-07
-8.9782e-07
1.18898e-07
-9.31051e-07
9.99617e-08
-9.57502e-07
7.96094e-08
-9.768e-07
5.81206e-08
-9.88666e-07
3.57813e-08
-9.92919e-07
1.28847e-08
-9.89477e-07
-1.0269e-08
-9.78359e-07
-3.33725e-08
-9.59689e-07
-5.61116e-08
-9.33694e-07
-7.8166e-08
-9.00708e-07
-9.92108e-08
-8.61174e-07
-1.18918e-07
-8.15637e-07
-1.36961e-07
-7.64751e-07
-1.53015e-07
-7.09266e-07
-1.66765e-07
-6.50032e-07
-1.77908e-07
-5.87986e-07
-1.86162e-07
-5.24142e-07
-1.91271e-07
-4.59582e-07
-1.93018e-07
-3.95434e-07
-1.9123e-07
-3.32857e-07
-1.85795e-07
-2.73011e-07
-1.76674e-07
-2.17031e-07
-1.63922e-07
-1.65984e-07
-1.47716e-07
-1.20832e-07
-1.28384e-07
-8.23742e-08
-1.06456e-07
-5.11929e-08
-8.27285e-08
-2.75903e-08
-5.83576e-08
-1.15315e-08
-3.4968e-08
-2.6033e-09
-1.47964e-08
-1.11821e-09
-4.37726e-09
6.20378e-09
-1.76724e-08
2.99049e-08
-3.99942e-08
5.97902e-08
-7.12448e-08
9.23549e-08
-1.11072e-07
1.25143e-07
-1.58875e-07
1.56352e-07
-2.13842e-07
1.84702e-07
-2.74987e-07
2.09327e-07
-3.41203e-07
2.2967e-07
-4.113e-07
2.45413e-07
-4.84046e-07
2.56414e-07
-5.58198e-07
2.62665e-07
-6.32526e-07
2.6426e-07
-7.05836e-07
2.61367e-07
-7.76989e-07
2.54212e-07
-8.4491e-07
2.4306e-07
-9.08599e-07
2.28209e-07
-9.67141e-07
2.09981e-07
-1.01971e-06
1.88715e-07
-1.06557e-06
1.64763e-07
-1.1041e-06
1.3849e-07
-1.13476e-06
1.1027e-07
-1.15713e-06
8.04895e-08
-1.17089e-06
4.95409e-08
-1.17584e-06
1.78285e-08
-1.17187e-06
-1.42344e-08
-1.15902e-06
-4.62247e-08
-1.13742e-06
-7.77104e-08
-1.10733e-06
-1.08252e-07
-1.06914e-06
-1.37403e-07
-1.02334e-06
-1.64715e-07
-9.70565e-07
-1.89741e-07
-9.11542e-07
-2.12038e-07
-8.4713e-07
-2.31177e-07
-7.7829e-07
-2.46748e-07
-7.06084e-07
-2.58368e-07
-6.31658e-07
-2.65697e-07
-5.56235e-07
-2.68441e-07
-4.81089e-07
-2.66376e-07
-4.07527e-07
-2.59358e-07
-3.36857e-07
-2.47344e-07
-2.70359e-07
-2.3042e-07
-2.09248e-07
-2.08828e-07
-1.54626e-07
-1.83006e-07
-1.07441e-07
-1.53641e-07
-6.84367e-08
-1.21732e-07
-3.811e-08
-8.86843e-08
-1.6678e-08
-5.64e-08
-4.07445e-09
-2.73999e-08
-5.19267e-09
-5.822e-09
1.20258e-08
-2.28213e-08
4.69043e-08
-5.06044e-08
8.75732e-08
-8.86835e-08
1.30434e-07
-1.36405e-07
1.72864e-07
-1.92931e-07
2.12879e-07
-2.57257e-07
2.49028e-07
-3.28235e-07
2.80304e-07
-4.04609e-07
3.06045e-07
-4.85055e-07
3.25858e-07
-5.68208e-07
3.39567e-07
-6.52699e-07
3.47156e-07
-7.37177e-07
3.48737e-07
-8.20329e-07
3.44519e-07
-9.00902e-07
3.34784e-07
-9.77712e-07
3.1987e-07
-1.04966e-06
3.00158e-07
-1.11574e-06
2.7606e-07
-1.17504e-06
2.48014e-07
-1.22675e-06
2.16476e-07
-1.27018e-06
1.81919e-07
-1.30474e-06
1.44831e-07
-1.32997e-06
1.05712e-07
-1.3455e-06
6.50748e-08
-1.35112e-06
2.3445e-08
-1.34671e-06
-1.86393e-08
-1.33231e-06
-6.06275e-08
-1.30806e-06
-1.01958e-07
-1.27425e-06
-1.42059e-07
-1.2313e-06
-1.80353e-07
-1.17976e-06
-2.16257e-07
-1.12031e-06
-2.49192e-07
-1.05376e-06
-2.78585e-07
-9.81058e-07
-3.03882e-07
-9.03253e-07
-3.24553e-07
-8.21513e-07
-3.40108e-07
-7.37102e-07
-3.50108e-07
-6.51362e-07
-3.54181e-07
-5.65699e-07
-3.5204e-07
-4.8155e-07
-3.43506e-07
-4.00364e-07
-3.2853e-07
-3.23563e-07
-3.07221e-07
-2.52507e-07
-2.79884e-07
-1.88454e-07
-2.47059e-07
-1.32519e-07
-2.09576e-07
-8.56384e-08
-1.68613e-07
-4.85368e-08
-1.25786e-07
-2.17183e-08
-8.32185e-08
-5.48246e-09
-4.36358e-08
-1.06751e-08
-7.18891e-09
1.92147e-08
-2.77856e-08
6.7501e-08
-6.09445e-08
1.20732e-07
-1.05796e-07
1.75286e-07
-1.61371e-07
2.28439e-07
-2.26576e-07
2.78083e-07
-3.0019e-07
3.22642e-07
-3.80884e-07
3.60998e-07
-4.67245e-07
3.92406e-07
-5.57806e-07
4.16419e-07
-6.51074e-07
4.32835e-07
-7.45558e-07
4.4164e-07
-8.39792e-07
4.42972e-07
-9.32359e-07
4.37087e-07
-1.02191e-06
4.2433e-07
-1.10715e-06
4.05119e-07
-1.18692e-06
3.79923e-07
-1.26011e-06
3.49254e-07
-1.32575e-06
3.13656e-07
-1.38297e-06
2.73696e-07
-1.43102e-06
2.29966e-07
-1.46926e-06
1.83073e-07
-1.49719e-06
1.33641e-07
-1.51443e-06
8.23116e-08
-1.52072e-06
2.97413e-08
-1.51597e-06
-2.33979e-08
-1.50017e-06
-7.6419e-08
-1.47351e-06
-1.28621e-07
-1.43628e-06
-1.7929e-07
-1.38893e-06
-2.27706e-07
-1.33204e-06
-2.73142e-07
-1.26636e-06
-3.14877e-07
-1.19275e-06
-3.52197e-07
-1.11222e-06
-3.84411e-07
-1.02591e-06
-4.10863e-07
-9.35075e-07
-4.3094e-07
-8.41084e-07
-4.44099e-07
-7.45387e-07
-4.49878e-07
-6.49506e-07
-4.4792e-07
-5.5501e-07
-4.38002e-07
-4.6348e-07
-4.20059e-07
-3.76484e-07
-3.94217e-07
-2.95535e-07
-3.60833e-07
-2.22061e-07
-3.20533e-07
-1.57366e-07
-2.74271e-07
-1.026e-07
-2.23379e-07
-5.87413e-08
-1.69645e-07
-2.65943e-08
-1.15366e-07
-6.81714e-09
-6.34129e-08
-1.74923e-08
-8.48578e-09
2.77004e-08
-3.25645e-08
9.15798e-08
-7.09892e-08
1.59157e-07
-1.22527e-07
2.26823e-07
-1.85893e-07
2.91805e-07
-2.59723e-07
3.51913e-07
-3.42568e-07
4.05487e-07
-4.32902e-07
4.51333e-07
-5.29144e-07
4.88647e-07
-6.29675e-07
5.16951e-07
-7.32872e-07
5.36032e-07
-8.37123e-07
5.45891e-07
-9.40853e-07
5.46703e-07
-1.04255e-06
5.3878e-07
-1.14076e-06
5.22541e-07
-1.23413e-06
4.98488e-07
-1.32139e-06
4.6719e-07
-1.4014e-06
4.29264e-07
-1.47311e-06
3.85366e-07
-1.5356e-06
3.36185e-07
-1.58807e-06
2.82434e-07
-1.62985e-06
2.24848e-07
-1.66039e-06
1.64185e-07
-1.6793e-06
1.0122e-07
-1.6863e-06
3.67468e-08
-1.68128e-06
-2.84208e-08
-1.66425e-06
-9.34516e-08
-1.63537e-06
-1.57497e-07
-1.59497e-06
-2.19696e-07
-1.5435e-06
-2.79173e-07
-1.48159e-06
-3.35053e-07
-1.41001e-06
-3.86459e-07
-1.32967e-06
-4.32529e-07
-1.24166e-06
-4.72426e-07
-1.14717e-06
-5.05352e-07
-1.04754e-06
-5.30568e-07
-9.44234e-07
-5.47409e-07
-8.38797e-07
-5.55314e-07
-7.32869e-07
-5.53848e-07
-6.28143e-07
-5.42729e-07
-5.26339e-07
-5.21864e-07
-4.29173e-07
-4.91383e-07
-3.38327e-07
-4.51679e-07
-2.55412e-07
-4.03448e-07
-1.81938e-07
-3.47745e-07
-1.19289e-07
-2.86028e-07
-6.87109e-08
-2.20223e-07
-3.13105e-08
-1.52766e-07
-8.08736e-09
-8.66361e-08
-2.55796e-08
-9.7267e-09
3.74271e-08
-3.71862e-08
1.19039e-07
-8.07725e-08
2.02743e-07
-1.3891e-07
2.84961e-07
-2.10004e-07
3.62899e-07
-2.92415e-07
4.34324e-07
-3.84453e-07
4.97525e-07
-4.84386e-07
5.51266e-07
-5.90451e-07
5.94711e-07
-7.00873e-07
6.27373e-07
-8.13889e-07
6.49049e-07
-9.27769e-07
6.5977e-07
-1.04083e-06
6.59765e-07
-1.15146e-06
6.49411e-07
-1.25813e-06
6.29212e-07
-1.35941e-06
5.99765e-07
-1.45396e-06
5.61746e-07
-1.54058e-06
5.15884e-07
-1.61818e-06
4.62957e-07
-1.68577e-06
4.03779e-07
-1.74253e-06
3.39193e-07
-1.78775e-06
2.70069e-07
-1.82086e-06
1.973e-07
-1.84144e-06
1.21801e-07
-1.84921e-06
4.45102e-08
-1.84402e-06
-3.36125e-08
-1.82588e-06
-1.11586e-07
-1.79497e-06
-1.88409e-07
-1.7516e-06
-2.63063e-07
-1.69626e-06
-3.34517e-07
-1.62958e-06
-4.01733e-07
-1.55236e-06
-4.63675e-07
-1.46557e-06
-5.19321e-07
-1.37032e-06
-5.67677e-07
-1.26788e-06
-6.07796e-07
-1.15965e-06
-6.38794e-07
-1.04718e-06
-6.59879e-07
-9.32119e-07
-6.70376e-07
-8.16215e-07
-6.69752e-07
-7.01286e-07
-6.57657e-07
-5.89197e-07
-6.33954e-07
-4.81823e-07
-5.98757e-07
-3.81024e-07
-5.52477e-07
-2.88611e-07
-4.95862e-07
-2.06316e-07
-4.30039e-07
-1.35772e-07
-3.56572e-07
-7.84982e-08
-2.77497e-07
-3.59038e-08
-1.9536e-07
-9.30955e-09
-1.1323e-07
-3.48892e-08
-1.09275e-08
4.83546e-08
-4.16912e-08
1.49803e-07
-9.03586e-08
2.5141e-07
-1.5503e-07
3.49633e-07
-2.33807e-07
4.41675e-07
-3.24772e-07
5.25289e-07
-4.25989e-07
5.98743e-07
-5.35508e-07
6.60785e-07
-6.51376e-07
7.1058e-07
-7.71655e-07
7.47652e-07
-8.94438e-07
7.71832e-07
-1.01787e-06
7.83203e-07
-1.14016e-06
7.82058e-07
-1.25961e-06
7.68861e-07
-1.37461e-06
7.44209e-07
-1.48365e-06
7.08807e-07
-1.58535e-06
6.63444e-07
-1.67844e-06
6.08974e-07
-1.76179e-06
5.46302e-07
-1.83438e-06
4.76373e-07
-1.89535e-06
4.00165e-07
-1.94397e-06
3.18687e-07
-1.97964e-06
2.32972e-07
-2.00192e-06
1.4408e-07
-2.01051e-06
5.30964e-08
-2.00525e-06
-3.88702e-08
-1.98615e-06
-1.30684e-07
-1.95337e-06
-2.21188e-07
-1.90724e-06
-3.09201e-07
-1.84822e-06
-3.93529e-07
-1.77699e-06
-4.72966e-07
-1.69436e-06
-5.46308e-07
-1.60131e-06
-6.12365e-07
-1.49901e-06
-6.69977e-07
-1.38878e-06
-7.18033e-07
-1.27208e-06
-7.55494e-07
-1.15053e-06
-7.81425e-07
-1.02589e-06
-7.95018e-07
-9.00007e-07
-7.95632e-07
-7.74838e-07
-7.82826e-07
-6.52392e-07
-7.56399e-07
-5.34716e-07
-7.16433e-07
-4.23861e-07
-6.63332e-07
-3.21852e-07
-5.97871e-07
-2.30657e-07
-5.21234e-07
-1.52169e-07
-4.35059e-07
-8.81901e-08
-3.41476e-07
-4.04257e-08
-2.43125e-07
-1.05026e-08
-1.43153e-07
-4.53918e-08
-1.21037e-08
6.04583e-08
-4.61241e-08
1.83823e-07
-9.9824e-08
3.0511e-07
-1.70994e-07
4.20803e-07
-2.57434e-07
5.28116e-07
-3.56952e-07
6.24807e-07
-4.67359e-07
7.09149e-07
-5.86479e-07
7.79904e-07
-7.12161e-07
8.36262e-07
-8.42296e-07
8.77787e-07
-9.74829e-07
9.04365e-07
-1.10778e-06
9.16152e-07
-1.23925e-06
9.13528e-07
-1.36744e-06
8.97056e-07
-1.49068e-06
8.67443e-07
-1.60739e-06
8.25515e-07
-1.71613e-06
7.72185e-07
-1.81559e-06
7.08438e-07
-1.9046e-06
6.35314e-07
-1.98212e-06
5.53896e-07
-2.04726e-06
4.65302e-07
-2.09926e-06
3.70683e-07
-2.1375e-06
2.71215e-07
-2.16152e-06
1.68104e-07
-2.17101e-06
6.25843e-08
-2.1658e-06
-4.40825e-08
-2.14588e-06
-1.50606e-07
-2.1114e-06
-2.55668e-07
-2.06267e-06
-3.57924e-07
-2.00019e-06
-4.56012e-07
-1.9246e-06
-5.48552e-07
-1.83675e-06
-6.34166e-07
-1.73763e-06
-7.11486e-07
-1.62843e-06
-7.79173e-07
-1.51052e-06
-8.35941e-07
-1.38543e-06
-8.80585e-07
-1.25485e-06
-9.12004e-07
-1.12062e-06
-9.29246e-07
-9.84721e-07
-9.31536e-07
-8.49224e-07
-9.18322e-07
-7.16304e-07
-8.8932e-07
-5.88187e-07
-8.4455e-07
-4.67127e-07
-7.84392e-07
-3.55378e-07
-7.09621e-07
-2.55158e-07
-6.21454e-07
-1.68633e-07
-5.21584e-07
-9.78904e-08
-4.12219e-07
-4.49339e-08
-2.96081e-07
-1.16858e-08
-1.76402e-07
-5.70776e-08
-1.32698e-08
7.3728e-08
-5.05292e-08
2.21083e-07
-1.09248e-07
3.63829e-07
-1.86915e-07
4.98469e-07
-2.81035e-07
6.22236e-07
-3.89134e-07
7.32906e-07
-5.08766e-07
8.28782e-07
-6.37524e-07
9.08663e-07
-7.73053e-07
9.71791e-07
-9.13065e-07
1.0178e-06
-1.05535e-06
1.04665e-06
-1.1978e-06
1.0586e-06
-1.33842e-06
1.05414e-06
-1.4753e-06
1.03394e-06
-1.60671e-06
9.98849e-07
-1.73101e-06
9.49812e-07
-1.84671e-06
8.87887e-07
-1.95247e-06
8.14197e-07
-2.04708e-06
7.29925e-07
-2.12948e-06
6.36296e-07
-2.19875e-06
5.34574e-07
-2.25412e-06
4.26052e-07
-2.29496e-06
3.12053e-07
-2.32078e-06
1.93929e-07
-2.33126e-06
7.30641e-08
-2.32622e-06
-4.91286e-08
-2.30562e-06
-1.71202e-07
-2.26961e-06
-2.91678e-07
-2.21849e-06
-4.09045e-07
-2.15273e-06
-5.21769e-07
-2.07299e-06
-6.28294e-07
-1.9801e-06
-7.27059e-07
-1.87507e-06
-8.1651e-07
-1.75913e-06
-8.95119e-07
-1.63366e-06
-9.61413e-07
-1.50024e-06
-1.014e-06
-1.36065e-06
-1.0516e-06
-1.21681e-06
-1.07309e-06
-1.07081e-06
-1.07754e-06
-9.24872e-07
-1.06426e-06
-7.81325e-07
-1.03287e-06
-6.42588e-07
-9.83287e-07
-5.11133e-07
-9.15847e-07
-3.89454e-07
-8.313e-07
-2.80036e-07
-7.30872e-07
-1.85326e-07
-6.16294e-07
-1.07708e-07
-4.89836e-07
-4.94873e-08
-3.54302e-07
-1.28776e-08
-2.13011e-07
-6.99552e-08
-1.44386e-08
8.81666e-08
-5.49477e-08
2.61592e-07
-1.18708e-07
4.2759e-07
-2.02907e-07
5.82668e-07
-3.04754e-07
7.24083e-07
-4.21491e-07
8.49643e-07
-5.50409e-07
9.577e-07
-6.88863e-07
1.04712e-06
-8.34286e-07
1.11721e-06
-9.84205e-07
1.16772e-06
-1.13626e-06
1.1987e-06
-1.2882e-06
1.21055e-06
-1.43792e-06
1.20386e-06
-1.58346e-06
1.17947e-06
-1.72296e-06
1.13836e-06
-1.85478e-06
1.08162e-06
-1.97736e-06
1.01047e-06
-2.08933e-06
9.26173e-07
-2.18947e-06
8.30066e-07
-2.2767e-06
7.23522e-07
-2.35008e-06
6.07951e-07
-2.40882e-06
4.84793e-07
-2.45228e-06
3.55516e-07
-2.47997e-06
2.2162e-07
-2.49154e-06
8.46338e-08
-2.48679e-06
-5.38771e-08
-2.46568e-06
-1.92312e-07
-2.42833e-06
-3.29031e-07
-2.37502e-06
-4.62358e-07
-2.3062e-06
-5.90585e-07
-2.22252e-06
-7.11976e-07
-2.1248e-06
-8.24781e-07
-2.01406e-06
-9.2725e-07
-1.89152e-06
-1.01766e-06
-1.7586e-06
-1.09433e-06
-1.61694e-06
-1.15566e-06
-1.46836e-06
-1.20018e-06
-1.31488e-06
-1.22657e-06
-1.1587e-06
-1.23372e-06
-1.00219e-06
-1.22078e-06
-8.47838e-07
-1.18722e-06
-6.98274e-07
-1.13285e-06
-5.56195e-07
-1.05793e-06
-4.24352e-07
-9.63143e-07
-3.0551e-07
-8.49714e-07
-2.02413e-07
-7.19392e-07
-1.17753e-07
-5.74496e-07
-5.4143e-08
-4.17912e-07
-1.40956e-08
-2.53059e-07
-8.40508e-08
-1.56219e-08
1.03788e-07
-5.94175e-08
3.05388e-07
-1.28275e-07
4.96447e-07
-2.19077e-07
6.73471e-07
-3.28731e-07
8.33737e-07
-4.5419e-07
9.75102e-07
-5.92475e-07
1.09598e-06
-7.40694e-07
1.19534e-06
-8.96064e-07
1.27258e-06
-1.05592e-06
1.32758e-06
-1.21775e-06
1.36053e-06
-1.37916e-06
1.37196e-06
-1.53795e-06
1.36265e-06
-1.69205e-06
1.33358e-06
-1.83958e-06
1.28589e-06
-1.9788e-06
1.22085e-06
-2.10816e-06
1.13983e-06
-2.22626e-06
1.04427e-06
-2.33184e-06
9.35648e-07
-2.42382e-06
8.15503e-07
-2.50126e-06
6.8539e-07
-2.56336e-06
5.46894e-07
-2.60948e-06
4.0163e-07
-2.63909e-06
2.51239e-07
-2.65186e-06
9.73965e-08
-2.64755e-06
-5.81867e-08
-2.6261e-06
-2.13758e-07
-2.58761e-06
-3.67521e-07
-2.53233e-06
-5.17635e-07
-2.4607e-06
-6.62218e-07
-2.37333e-06
-7.99351e-07
-2.27102e-06
-9.2709e-07
-2.15478e-06
-1.04348e-06
-2.02585e-06
-1.14659e-06
-1.88565e-06
-1.23453e-06
-1.73584e-06
-1.30546e-06
-1.57833e-06
-1.3577e-06
-1.41519e-06
-1.3897e-06
-1.24876e-06
-1.40015e-06
-1.08154e-06
-1.388e-06
-9.16201e-07
-1.35255e-06
-7.55581e-07
-1.29347e-06
-6.02619e-07
-1.21089e-06
-4.60338e-07
-1.10542e-06
-3.31797e-07
-9.78255e-07
-2.20056e-07
-8.31133e-07
-1.2813e-07
-6.66422e-07
-5.89558e-08
-4.87086e-07
-1.53559e-08
-2.96659e-07
-9.94067e-08
-1.68296e-08
1.20618e-07
-6.39725e-08
3.52531e-07
-1.38013e-07
5.70488e-07
-2.35522e-07
7.70979e-07
-3.53094e-07
9.51309e-07
-4.87382e-07
1.10939e-06
-6.3513e-07
1.24373e-06
-7.93191e-07
1.3534e-06
-9.58558e-07
1.43795e-06
-1.12838e-06
1.49739e-06
-1.29996e-06
1.53211e-06
-1.4708e-06
1.5428e-06
-1.63857e-06
1.53042e-06
-1.80114e-06
1.49615e-06
-1.95655e-06
1.4413e-06
-2.10305e-06
1.36734e-06
-2.23904e-06
1.27582e-06
-2.36311e-06
1.16834e-06
-2.47401e-06
1.04655e-06
-2.57064e-06
9.12137e-07
-2.65207e-06
7.66819e-07
-2.7175e-06
6.12322e-07
-2.76627e-06
4.50404e-07
-2.79788e-06
2.82844e-07
-2.81194e-06
1.11456e-07
-2.80822e-06
-6.19064e-08
-2.78663e-06
-2.35346e-07
-2.74724e-06
-4.06915e-07
-2.69026e-06
-5.74611e-07
-2.6161e-06
-7.36381e-07
-2.52533e-06
-8.90121e-07
-2.41872e-06
-1.03369e-06
-2.29728e-06
-1.16493e-06
-2.16219e-06
-1.28168e-06
-2.01491e-06
-1.3818e-06
-1.85713e-06
-1.46325e-06
-1.69077e-06
-1.52406e-06
-1.51801e-06
-1.56245e-06
-1.34128e-06
-1.57688e-06
-1.16324e-06
-1.56605e-06
-9.86734e-07
-1.52906e-06
-8.1482e-07
-1.46539e-06
-6.50693e-07
-1.37501e-06
-4.97663e-07
-1.25845e-06
-3.59103e-07
-1.11681e-06
-2.38409e-07
-9.51828e-07
-1.3894e-07
-7.65891e-07
-6.39775e-08
-5.62048e-07
-1.6674e-08
-3.43962e-07
-1.16081e-07
-1.80709e-08
1.38689e-07
-6.86432e-08
4.03103e-07
-1.47982e-07
6.49827e-07
-2.52329e-07
8.75326e-07
-3.77954e-07
1.07693e-06
-5.21199e-07
1.25264e-06
-6.78514e-07
1.40105e-06
-8.46493e-07
1.52138e-06
-1.02189e-06
1.61335e-06
-1.20166e-06
1.67716e-06
-1.38295e-06
1.7134e-06
-1.56312e-06
1.72297e-06
-1.73975e-06
1.70705e-06
-1.91061e-06
1.66701e-06
-2.07373e-06
1.60442e-06
-2.2273e-06
1.52091e-06
-2.36971e-06
1.41824e-06
-2.49956e-06
1.29818e-06
-2.61559e-06
1.16258e-06
-2.71672e-06
1.01327e-06
-2.80202e-06
8.52122e-07
-2.87071e-06
6.81008e-07
-2.92213e-06
5.01821e-07
-2.95576e-06
3.16474e-07
-2.97121e-06
1.26913e-07
-2.96824e-06
-6.48772e-08
-2.94673e-06
-2.56862e-07
-2.9067e-06
-4.46948e-07
-2.84833e-06
-6.32979e-07
-2.77197e-06
-8.12734e-07
-2.67817e-06
-9.83929e-07
-2.56764e-06
-1.14422e-06
-2.44133e-06
-1.29124e-06
-2.30043e-06
-1.42258e-06
-2.14636e-06
-1.53587e-06
-1.98083e-06
-1.62878e-06
-1.80579e-06
-1.69909e-06
-1.6235e-06
-1.74474e-06
-1.43648e-06
-1.76389e-06
-1.24754e-06
-1.755e-06
-1.0597e-06
-1.71689e-06
-8.76263e-07
-1.64883e-06
-7.00677e-07
-1.5506e-06
-5.36559e-07
-1.42257e-06
-3.87622e-07
-1.26575e-06
-2.57618e-07
-1.08183e-06
-1.50279e-07
-8.7323e-07
-6.9257e-08
-6.4307e-07
-1.80641e-08
-3.95155e-07
-1.34145e-07
-1.93539e-08
1.58043e-07
-7.34573e-08
4.57206e-07
-1.58235e-07
7.34604e-07
-2.69578e-07
9.86669e-07
-4.03413e-07
1.21077e-06
-5.55753e-07
1.40498e-06
-7.22744e-07
1.56804e-06
-9.00703e-07
1.69933e-06
-1.08615e-06
1.7988e-06
-1.27583e-06
1.86684e-06
-1.46672e-06
1.9043e-06
-1.65607e-06
1.91231e-06
-1.84134e-06
1.89232e-06
-2.02027e-06
1.84594e-06
-2.19081e-06
1.77496e-06
-2.35116e-06
1.68126e-06
-2.4997e-06
1.56678e-06
-2.63504e-06
1.43352e-06
-2.75594e-06
1.28348e-06
-2.86135e-06
1.11868e-06
-2.95035e-06
9.41123e-07
-3.02218e-06
7.52833e-07
-3.07619e-06
5.55828e-07
-3.11186e-06
3.52148e-07
-3.1288e-06
1.43858e-07
-3.12675e-06
-6.69339e-08
-3.10554e-06
-2.78068e-07
-3.06517e-06
-4.87317e-07
-3.00577e-06
-6.9238e-07
-2.92763e-06
-8.90874e-07
-2.83122e-06
-1.08034e-06
-2.71722e-06
-1.25823e-06
-2.5865e-06
-1.42195e-06
-2.44021e-06
-1.56887e-06
-2.27975e-06
-1.69633e-06
-2.1068e-06
-1.80173e-06
-1.92335e-06
-1.88254e-06
-1.7317e-06
-1.93639e-06
-1.53447e-06
-1.96112e-06
-1.3346e-06
-1.95487e-06
-1.13532e-06
-1.91617e-06
-9.40139e-07
-1.84401e-06
-7.52799e-07
-1.73794e-06
-5.7724e-07
-1.59813e-06
-4.17533e-07
-1.42546e-06
-2.7782e-07
-1.22155e-06
-1.62236e-07
-9.88814e-07
-7.48408e-08
-7.30466e-07
-1.95398e-08
-4.50456e-07
-1.53685e-07
-2.0686e-08
1.78729e-07
-7.84404e-08
5.14961e-07
-1.68819e-07
8.24983e-07
-2.87339e-07
1.10519e-06
-4.29558e-07
1.35299e-06
-5.9114e-07
1.56656e-06
-7.67907e-07
1.74481e-06
-9.55889e-07
1.88732e-06
-1.15136e-06
1.99427e-06
-1.35085e-06
2.06634e-06
-1.55118e-06
2.10463e-06
-1.74946e-06
2.1106e-06
-1.94309e-06
2.08594e-06
-2.12973e-06
2.03258e-06
-2.30732e-06
1.95255e-06
-2.47405e-06
1.84798e-06
-2.62832e-06
1.72106e-06
-2.76877e-06
1.57396e-06
-2.89419e-06
1.4089e-06
-3.00356e-06
1.22805e-06
-3.09601e-06
1.03357e-06
-3.17079e-06
8.27613e-07
-3.22728e-06
6.12323e-07
-3.26498e-06
3.89849e-07
-3.28349e-06
1.62367e-07
-3.28252e-06
-6.79087e-08
-3.26188e-06
-2.98707e-07
-3.22151e-06
-5.27681e-07
-3.1615e-06
-7.52396e-07
-3.08205e-06
-9.70319e-07
-2.98357e-06
-1.17882e-06
-2.86664e-06
-1.37516e-06
-2.73209e-06
-1.55651e-06
-2.58096e-06
-1.71999e-06
-2.41462e-06
-1.86268e-06
-2.23472e-06
-1.98164e-06
-2.04323e-06
-2.07403e-06
-1.84251e-06
-2.13711e-06
-1.63525e-06
-2.16838e-06
-1.42452e-06
-2.1656e-06
-1.21373e-06
-2.12696e-06
-1.00663e-06
-2.05111e-06
-8.07254e-07
-1.93731e-06
-6.19893e-07
-1.78549e-06
-4.49002e-07
-1.59635e-06
-2.99144e-07
-1.3714e-06
-1.74899e-07
-1.11306e-06
-8.07739e-08
-8.24591e-07
-2.11144e-08
-5.10115e-07
-1.74799e-07
-2.20748e-08
2.00804e-07
-8.36172e-08
5.76503e-07
-1.79782e-07
9.21148e-07
-3.0568e-07
1.23109e-06
-4.5647e-07
1.50378e-06
-6.27441e-07
1.73753e-06
-8.1407e-07
1.93144e-06
-1.01208e-06
2.08533e-06
-1.2175e-06
2.19968e-06
-1.42663e-06
2.27547e-06
-1.63614e-06
2.31414e-06
-1.84302e-06
2.31748e-06
-2.04459e-06
2.28751e-06
-2.23848e-06
2.22647e-06
-2.42261e-06
2.13668e-06
-2.59519e-06
2.02056e-06
-2.75466e-06
1.88053e-06
-2.89969e-06
1.719e-06
-3.02915e-06
1.53836e-06
-3.14207e-06
1.34096e-06
-3.23761e-06
1.12911e-06
-3.31508e-06
9.05087e-07
-3.3739e-06
6.7114e-07
-3.41357e-06
4.2952e-07
-3.4337e-06
1.82493e-07
-3.43397e-06
-6.76353e-08
-3.41418e-06
-3.18501e-07
-3.3742e-06
-5.67654e-07
-3.31405e-06
-8.12545e-07
-3.23387e-06
-1.0505e-06
-3.13395e-06
-1.27874e-06
-3.01478e-06
-1.49432e-06
-2.87709e-06
-1.69421e-06
-2.72183e-06
-1.87525e-06
-2.55028e-06
-2.03423e-06
-2.36403e-06
-2.16788e-06
-2.16505e-06
-2.27301e-06
-1.95569e-06
-2.34648e-06
-1.7387e-06
-2.38537e-06
-1.51727e-06
-2.38703e-06
-1.29499e-06
-2.34924e-06
-1.07585e-06
-2.27025e-06
-8.64199e-07
-2.14896e-06
-6.64682e-07
-1.98501e-06
-4.82179e-07
-1.77885e-06
-3.21712e-07
-1.53187e-06
-1.8835e-07
-1.24642e-06
-8.70998e-08
-9.25841e-07
-2.28009e-08
-5.74414e-07
-1.976e-07
-2.35275e-08
2.24331e-07
-8.90129e-08
6.41989e-07
-1.91171e-07
1.02331e-06
-3.24666e-07
1.36458e-06
-4.84224e-07
1.66334e-06
-6.64725e-07
1.91803e-06
-8.61279e-07
2.12799e-06
-1.06929e-06
2.29334e-06
-1.2845e-06
2.41489e-06
-1.50302e-06
2.49399e-06
-1.72134e-06
2.53247e-06
-1.93636e-06
2.53249e-06
-2.14531e-06
2.49647e-06
-2.34582e-06
2.42697e-06
-2.53582e-06
2.32669e-06
-2.71356e-06
2.1983e-06
-2.87754e-06
2.04451e-06
-3.0265e-06
1.86796e-06
-3.15938e-06
1.67124e-06
-3.27529e-06
1.45687e-06
-3.37346e-06
1.22729e-06
-3.45327e-06
9.84896e-07
-3.51417e-06
7.32037e-07
-3.5557e-06
4.71045e-07
-3.57746e-06
2.04257e-07
-3.57914e-06
-6.5954e-08
-3.56049e-06
-3.37152e-07
-3.52134e-06
-6.06808e-07
-3.4616e-06
-8.72276e-07
-3.38134e-06
-1.13077e-06
-3.28073e-06
-1.37935e-06
-3.16014e-06
-1.61491e-06
-3.02017e-06
-1.83418e-06
-2.86165e-06
-2.03377e-06
-2.68575e-06
-2.21013e-06
-2.49397e-06
-2.35967e-06
-2.2882e-06
-2.47877e-06
-2.07079e-06
-2.56389e-06
-1.84454e-06
-2.61162e-06
-1.61271e-06
-2.61886e-06
-1.37908e-06
-2.58287e-06
-1.14787e-06
-2.50146e-06
-9.2375e-07
-2.37309e-06
-7.11749e-07
-2.19701e-06
-5.17203e-07
-1.9734e-06
-3.45639e-07
-1.70343e-06
-2.0267e-07
-1.38939e-06
-9.38621e-08
-1.03465e-06
-2.46123e-08
-6.43664e-07
-2.22212e-07
-2.50525e-08
2.49384e-07
-9.4655e-08
7.11591e-07
-2.03035e-07
1.13169e-06
-3.44365e-07
1.50591e-06
-5.12894e-07
1.83187e-06
-7.03057e-07
2.10819e-06
-9.09564e-07
2.3345e-06
-1.12747e-06
2.51125e-06
-1.35225e-06
2.63966e-06
-1.57978e-06
2.72152e-06
-1.80642e-06
2.7591e-06
-2.02894e-06
2.75501e-06
-2.24456e-06
2.71208e-06
-2.45089e-06
2.6333e-06
-2.64591e-06
2.52171e-06
-2.82793e-06
2.38032e-06
-2.99554e-06
2.21212e-06
-3.14759e-06
2.02001e-06
-3.2831e-06
1.80676e-06
-3.4013e-06
1.57506e-06
-3.50151e-06
1.3275e-06
-3.58318e-06
1.06656e-06
-3.64582e-06
7.94682e-07
-3.68902e-06
5.14245e-07
-3.7124e-06
2.2764e-07
-3.71564e-06
-6.2719e-08
-3.69844e-06
-3.54349e-07
-3.66058e-06
-6.4467e-07
-3.60189e-06
-9.30963e-07
-3.52231e-06
-1.21035e-06
-3.4219e-06
-1.47976e-06
-3.30087e-06
-1.73594e-06
-3.15965e-06
-1.9754e-06
-2.99895e-06
-2.19447e-06
-2.81975e-06
-2.38932e-06
-2.62345e-06
-2.55597e-06
-2.41184e-06
-2.69038e-06
-2.1872e-06
-2.78852e-06
-1.95234e-06
-2.84649e-06
-1.7106e-06
-2.8606e-06
-1.46589e-06
-2.82757e-06
-1.22269e-06
-2.74466e-06
-9.85979e-07
-2.6098e-06
-7.61208e-07
-2.42178e-06
-5.54199e-07
-2.18041e-06
-3.71038e-07
-1.88659e-06
-2.17941e-07
-1.54249e-06
-1.01105e-07
-1.15148e-06
-2.65625e-08
-7.18207e-07
-2.48775e-07
-2.66594e-08
2.76043e-07
-1.00575e-07
7.85506e-07
-2.15432e-07
1.24654e-06
-3.64854e-07
1.65533e-06
-5.42562e-07
2.00957e-06
-7.42499e-07
2.30813e-06
-9.58942e-07
2.55094e-06
-1.18658e-06
2.73889e-06
-1.42059e-06
2.87366e-06
-1.65663e-06
2.95757e-06
-1.89091e-06
2.99338e-06
-2.12013e-06
2.98423e-06
-2.34148e-06
2.93344e-06
-2.55262e-06
2.84444e-06
-2.75158e-06
2.72067e-06
-2.93679e-06
2.56553e-06
-3.10694e-06
2.38228e-06
-3.26102e-06
2.17408e-06
-3.3982e-06
1.94393e-06
-3.5178e-06
1.69467e-06
-3.61929e-06
1.42899e-06
-3.70221e-06
1.14948e-06
-3.76616e-06
8.58631e-07
-3.81077e-06
5.58856e-07
-3.8357e-06
2.52568e-07
-3.84062e-06
-5.78058e-08
-3.8252e-06
-3.6977e-07
-3.78914e-06
-6.80721e-07
-3.7322e-06
-9.87903e-07
-3.65418e-06
-1.28837e-06
-3.55498e-06
-1.57896e-06
-3.43466e-06
-1.85626e-06
-3.29345e-06
-2.11661e-06
-3.13185e-06
-2.35607e-06
-2.95067e-06
-2.5705e-06
-2.75112e-06
-2.75552e-06
-2.53485e-06
-2.90665e-06
-2.30405e-06
-3.01933e-06
-2.06147e-06
-3.08906e-06
-1.8105e-06
-3.11156e-06
-1.55519e-06
-3.08289e-06
-1.30022e-06
-2.99963e-06
-1.05091e-06
-2.85911e-06
-8.13148e-07
-2.65955e-06
-5.93283e-07
-2.40027e-06
-3.98017e-07
-2.08186e-06
-2.34245e-07
-1.70626e-06
-1.08877e-07
-1.27685e-06
-2.86661e-08
-7.98418e-07
-2.77441e-07
-2.83596e-08
3.04403e-07
-1.06811e-07
8.63957e-07
-2.2843e-07
1.36816e-06
-3.86225e-07
1.81313e-06
-5.73323e-07
2.19667e-06
-7.83124e-07
2.51793e-06
-1.00943e-06
2.77724e-06
-1.24653e-06
2.97599e-06
-1.48929e-06
3.11643e-06
-1.73317e-06
3.20145e-06
-1.97424e-06
3.23444e-06
-2.20913e-06
3.21912e-06
-2.43506e-06
3.15937e-06
-2.64973e-06
3.05911e-06
-2.85131e-06
2.92225e-06
-3.03835e-06
2.75256e-06
-3.20971e-06
2.55364e-06
-3.36454e-06
2.32891e-06
-3.50218e-06
2.08157e-06
-3.62212e-06
1.81461e-06
-3.72396e-06
1.53084e-06
-3.80738e-06