/*--------------------------------*- C++ -*----------------------------------*\
  =========                 |
  \\      /  F ield         | OpenFOAM: The Open Source CFD Toolbox
   \\    /   O peration     | Website:  https://openfoam.org
    \\  /    A nd           | Version:  7
     \\/     M anipulation  |
\*---------------------------------------------------------------------------*/
FoamFile
{
    version     2.0;
    format      ascii;
    class       volScalarField;
    location    "0.003";
    object      p;
}
// * * * * * * * * * * * * * * * * * * * * * * * * * * * * * * * * * * * * * //

dimensions      [0 2 -2 0 0 0 0];

internalField   nonuniform List<scalar> 
2500
(
3.05434e-07
-6.48072
-9.22603
-10.3803
-11.0089
-11.3865
-11.6305
-11.8044
-11.9392
-12.05
-12.1448
-12.2281
-12.3026
-12.3703
-12.4324
-12.4899
-12.5436
-12.5941
-12.642
-12.6877
-12.7316
-12.7742
-12.8157
-12.8565
-12.8968
-12.9371
-12.9774
-13.0182
-13.0598
-13.1024
-13.1463
-13.192
-13.2397
-13.2899
-13.3431
-13.3997
-13.4603
-13.5257
-13.5968
-13.6748
-13.7619
-13.8615
-13.9805
-14.1323
-14.3462
-14.6824
-15.2493
-16.3106
-18.9411
-25.3024
-4.98677
-7.67509
-9.15206
-10.0827
-10.722
-11.1572
-11.4596
-11.6798
-11.8481
-11.9825
-12.0937
-12.1886
-12.2715
-12.3454
-12.4122
-12.4734
-12.5301
-12.5831
-12.633
-12.6806
-12.7262
-12.7702
-12.8131
-12.8552
-12.8969
-12.9384
-12.9801
-13.0223
-13.0653
-13.1095
-13.1552
-13.2029
-13.2529
-13.3059
-13.3624
-13.4232
-13.4893
-13.5617
-13.6424
-13.7337
-13.8394
-13.9655
-14.1215
-14.3237
-14.6001
-14.9983
-15.5844
-16.4439
-17.8354
-20.4124
-7.99066
-8.78399
-9.55754
-10.2145
-10.7313
-11.1199
-11.4115
-11.6345
-11.8096
-11.9509
-12.0682
-12.168
-12.2548
-12.3318
-12.401
-12.4642
-12.5225
-12.5768
-12.628
-12.6765
-12.723
-12.7679
-12.8116
-12.8545
-12.8969
-12.9392
-12.9817
-13.0247
-13.0685
-13.1136
-13.1604
-13.2092
-13.2607
-13.3152
-13.3737
-13.4369
-13.5059
-13.5821
-13.6676
-13.7651
-13.8784
-14.0133
-14.1783
-14.3861
-14.6551
-15.0112
-15.4835
-16.0869
-16.806
-17.5421
-9.52467
-9.69489
-10.0847
-10.5077
-10.8808
-11.1896
-11.4402
-11.6431
-11.8087
-11.9461
-12.0621
-12.1618
-12.2491
-12.3266
-12.3965
-12.4603
-12.5192
-12.574
-12.6257
-12.6747
-12.7216
-12.7668
-12.8109
-12.8541
-12.8969
-12.9395
-12.9823
-13.0256
-13.0699
-13.1154
-13.1626
-13.212
-13.264
-13.3192
-13.3784
-13.4424
-13.5124
-13.5897
-13.6761
-13.7741
-13.8868
-14.0187
-14.1755
-14.3646
-14.5951
-14.8757
-15.2129
-15.5962
-15.9519
-16.0989
-10.4235
-10.3777
-10.5524
-10.8089
-11.0662
-11.3007
-11.5058
-11.6815
-11.8311
-11.9591
-12.0696
-12.1661
-12.2515
-12.3279
-12.3971
-12.4605
-12.5192
-12.5739
-12.6254
-12.6744
-12.7212
-12.7665
-12.8106
-12.8538
-12.8966
-12.9392
-12.982
-13.0254
-13.0696
-13.1151
-13.1623
-13.2116
-13.2635
-13.3186
-13.3775
-13.4412
-13.5104
-13.5866
-13.6711
-13.7659
-13.8731
-13.9957
-14.1367
-14.2994
-14.4864
-14.6974
-14.9269
-15.1557
-15.3107
-15.2598
-10.9901
-10.8742
-10.9359
-11.0847
-11.2571
-11.4302
-11.5928
-11.74
-11.8707
-11.9863
-12.0886
-12.1797
-12.2613
-12.3352
-12.4026
-12.4647
-12.5223
-12.5763
-12.6272
-12.6756
-12.7221
-12.767
-12.8107
-12.8536
-12.896
-12.9383
-12.9808
-13.0238
-13.0676
-13.1127
-13.1594
-13.208
-13.2592
-13.3133
-13.3711
-13.4331
-13.5003
-13.5735
-13.6539
-13.7427
-13.8413
-13.9511
-14.0734
-14.2085
-14.3554
-14.5095
-14.6616
-14.7924
-14.8443
-14.7325
-11.3619
-11.2369
-11.2441
-11.3267
-11.4396
-11.5647
-11.6908
-11.8111
-11.9226
-12.0245
-12.1171
-12.2012
-12.2779
-12.3481
-12.4127
-12.4726
-12.5286
-12.5812
-12.631
-12.6785
-12.7241
-12.7682
-12.8112
-12.8535
-12.8952
-12.9369
-12.9787
-13.0209
-13.064
-13.1082
-13.1539
-13.2014
-13.2513
-13.3038
-13.3595
-13.4191
-13.483
-13.552
-13.6268
-13.7081
-13.7965
-13.8924
-13.9957
-14.1053
-14.2183
-14.3289
-14.4279
-14.4995
-14.5029
-14.3853
-11.6186
-11.5068
-11.4902
-11.5334
-11.6063
-11.6956
-11.7919
-11.8888
-11.9823
-12.0706
-12.153
-12.2294
-12.3002
-12.3658
-12.427
-12.4841
-12.5378
-12.5885
-12.6368
-12.6829
-12.7273
-12.7703
-12.8123
-12.8535
-12.8943
-12.935
-12.9758
-13.017
-13.0589
-13.1019
-13.1462
-13.1922
-13.2402
-13.2905
-13.3437
-13.4
-13.4599
-13.5239
-13.5924
-13.6655
-13.7433
-13.8257
-13.9117
-13.9995
-14.0856
-14.1644
-14.228
-14.2649
-14.2478
-14.1436
-11.806
-11.7129
-11.6877
-11.7083
-11.7548
-11.8183
-11.8915
-11.9688
-12.0463
-12.1219
-12.1941
-12.2626
-12.3271
-12.3878
-12.4449
-12.4988
-12.5497
-12.5981
-12.6444
-12.6888
-12.7316
-12.7732
-12.8138
-12.8538
-12.8933
-12.9327
-12.9722
-13.0121
-13.0526
-13.094
-13.1366
-13.1806
-13.2264
-13.2742
-13.3243
-13.377
-13.4325
-13.4912
-13.553
-13.6179
-13.6858
-13.7558
-13.8268
-13.8966
-13.962
-14.0182
-14.0588
-14.0761
-14.0519
-13.9655
-11.9499
-11.8749
-11.8484
-11.8565
-11.886
-11.9312
-11.9868
-12.0482
-12.112
-12.1761
-12.2389
-12.2996
-12.3577
-12.4132
-12.4659
-12.5162
-12.564
-12.6098
-12.6538
-12.6961
-12.737
-12.7769
-12.8159
-12.8543
-12.8924
-12.9302
-12.9682
-13.0065
-13.0453
-13.0849
-13.1255
-13.1673
-13.2105
-13.2554
-13.3022
-13.351
-13.402
-13.4552
-13.5105
-13.5677
-13.6264
-13.6855
-13.7439
-13.7995
-13.8493
-13.8895
-13.9154
-13.9219
-13.897
-13.8274
-12.0656
-12.006
-11.9815
-11.9829
-12.0016
-12.0339
-12.0763
-12.1251
-12.1775
-12.2315
-12.2857
-12.3391
-12.391
-12.4412
-12.4895
-12.5359
-12.5804
-12.6233
-12.6647
-12.7047
-12.7436
-12.7815
-12.8186
-12.8552
-12.8915
-12.9276
-12.9638
-13.0003
-13.0371
-13.0747
-13.113
-13.1524
-13.1929
-13.2348
-13.2781
-13.323
-13.3693
-13.4172
-13.4664
-13.5165
-13.5669
-13.6168
-13.6648
-13.7091
-13.7473
-13.7763
-13.7929
-13.7937
-13.7707
-13.7152
-12.1625
-12.1152
-12.0938
-12.0918
-12.1037
-12.1272
-12.1596
-12.1985
-12.2415
-12.287
-12.3334
-12.38
-12.4261
-12.4711
-12.515
-12.5574
-12.5986
-12.6384
-12.677
-12.7145
-12.751
-12.7868
-12.8219
-12.8565
-12.8908
-12.925
-12.9592
-12.9936
-13.0284
-13.0637
-13.0996
-13.1364
-13.1741
-13.2128
-13.2526
-13.2935
-13.3354
-13.3782
-13.4217
-13.4654
-13.5086
-13.5506
-13.5901
-13.6256
-13.6551
-13.6763
-13.687
-13.685
-13.6649
-13.6207
-12.2462
-12.2086
-12.1904
-12.187
-12.1946
-12.2118
-12.2369
-12.268
-12.3033
-12.3415
-12.3812
-12.4217
-12.4622
-12.5024
-12.5419
-12.5804
-12.6181
-12.6547
-12.6904
-12.7253
-12.7593
-12.7927
-12.8256
-12.858
-12.8902
-12.9223
-12.9544
-12.9866
-13.0191
-13.052
-13.0855
-13.1195
-13.1543
-13.1898
-13.2261
-13.2631
-13.3008
-13.3389
-13.3771
-13.415
-13.4521
-13.4874
-13.52
-13.5485
-13.5716
-13.5874
-13.5943
-13.591
-13.5739
-13.5386
-12.3204
-12.2903
-12.275
-12.2711
-12.276
-12.2888
-12.3084
-12.3334
-12.3625
-12.3945
-12.4284
-12.4634
-12.4989
-12.5345
-12.5697
-12.6045
-12.6386
-12.6721
-12.7048
-12.7369
-12.7684
-12.7993
-12.8298
-12.8599
-12.8899
-12.9197
-12.9495
-12.9794
-13.0095
-13.0399
-13.0708
-13.1021
-13.1339
-13.1662
-13.1991
-13.2324
-13.2659
-13.2996
-13.3331
-13.3659
-13.3976
-13.4273
-13.4543
-13.4774
-13.4956
-13.5075
-13.512
-13.5084
-13.494
-13.4656
-12.3874
-12.3631
-12.3503
-12.3465
-12.3497
-12.3594
-12.3748
-12.395
-12.419
-12.4458
-12.4746
-12.5048
-12.5357
-12.5669
-12.5982
-12.6293
-12.66
-12.6902
-12.72
-12.7492
-12.778
-12.8064
-12.8344
-12.8621
-12.8897
-12.9171
-12.9445
-12.972
-12.9997
-13.0275
-13.0557
-13.0842
-13.113
-13.1422
-13.1717
-13.2014
-13.2312
-13.2608
-13.29
-13.3183
-13.3453
-13.3703
-13.3927
-13.4116
-13.426
-13.4351
-13.4381
-13.4346
-13.4225
-13.3995
-12.4488
-12.429
-12.4184
-12.4149
-12.4169
-12.4244
-12.4366
-12.453
-12.4728
-12.4952
-12.5196
-12.5455
-12.5722
-12.5995
-12.627
-12.6545
-12.6818
-12.7089
-12.7357
-12.7621
-12.7881
-12.8139
-12.8393
-12.8646
-12.8896
-12.9146
-12.9396
-12.9646
-12.9897
-13.0149
-13.0404
-13.0661
-13.092
-13.1181
-13.1443
-13.1706
-13.1968
-13.2227
-13.2479
-13.2723
-13.2952
-13.3163
-13.3348
-13.3502
-13.3618
-13.3689
-13.3709
-13.3676
-13.3576
-13.3388
-12.5057
-12.4896
-12.4807
-12.4776
-12.479
-12.4847
-12.4945
-12.5078
-12.5241
-12.5428
-12.5634
-12.5853
-12.6083
-12.6319
-12.6559
-12.68
-12.7041
-12.728
-12.7518
-12.7754
-12.7987
-12.8217
-12.8446
-12.8672
-12.8898
-12.9122
-12.9347
-12.9571
-12.9796
-13.0022
-13.025
-13.0478
-13.0708
-13.0939
-13.117
-13.1401
-13.1629
-13.1853
-13.207
-13.2278
-13.2472
-13.2648
-13.2802
-13.2929
-13.3022
-13.3077
-13.3091
-13.3062
-13.2979
-13.2825
-12.5589
-12.5457
-12.5385
-12.5357
-12.5366
-12.5411
-12.5489
-12.5597
-12.5731
-12.5886
-12.6058
-12.6243
-12.6439
-12.6641
-12.6847
-12.7055
-12.7265
-12.7474
-12.7683
-12.789
-12.8095
-12.8299
-12.8501
-12.8701
-12.8901
-12.91
-12.9298
-12.9497
-12.9695
-12.9895
-13.0095
-13.0296
-13.0497
-13.0699
-13.0899
-13.1099
-13.1295
-13.1487
-13.1672
-13.1848
-13.2011
-13.2158
-13.2285
-13.2389
-13.2464
-13.2508
-13.2517
-13.2492
-13.2423
-13.2297
-12.6092
-12.5985
-12.5925
-12.5902
-12.5907
-12.5942
-12.6004
-12.6092
-12.62
-12.6328
-12.647
-12.6625
-12.6788
-12.6959
-12.7133
-12.7311
-12.749
-12.767
-12.785
-12.8028
-12.8206
-12.8382
-12.8558
-12.8732
-12.8905
-12.9078
-12.925
-12.9423
-12.9595
-12.9768
-12.9941
-13.0114
-13.0287
-13.046
-13.0631
-13.0801
-13.0968
-13.113
-13.1285
-13.1432
-13.1567
-13.1689
-13.1793
-13.1877
-13.1938
-13.1972
-13.1979
-13.1958
-13.1901
-13.1799
-12.657
-12.6484
-12.6435
-12.6416
-12.642
-12.6447
-12.6496
-12.6565
-12.6652
-12.6755
-12.6871
-12.6997
-12.7132
-12.7273
-12.7418
-12.7566
-12.7716
-12.7867
-12.8018
-12.8169
-12.8319
-12.8468
-12.8617
-12.8764
-12.8911
-12.9058
-12.9204
-12.9349
-12.9495
-12.9641
-12.9787
-12.9933
-13.0078
-13.0223
-13.0366
-13.0507
-13.0646
-13.078
-13.0908
-13.1028
-13.1139
-13.1237
-13.1321
-13.1389
-13.1437
-13.1464
-13.1469
-13.1452
-13.1406
-13.1324
-12.7028
-12.6961
-12.6922
-12.6907
-12.6909
-12.6929
-12.6967
-12.7021
-12.7089
-12.717
-12.7262
-12.7363
-12.747
-12.7583
-12.77
-12.782
-12.7942
-12.8065
-12.8188
-12.8311
-12.8433
-12.8555
-12.8677
-12.8798
-12.8918
-12.9038
-12.9158
-12.9277
-12.9396
-12.9515
-12.9634
-12.9753
-12.9871
-12.9988
-13.0104
-13.0218
-13.0329
-13.0437
-13.0539
-13.0635
-13.0723
-13.0801
-13.0867
-13.092
-13.0958
-13.0979
-13.0982
-13.0968
-13.0932
-13.0868
-12.7471
-12.742
-12.7391
-12.7379
-12.738
-12.7395
-12.7423
-12.7463
-12.7514
-12.7575
-12.7645
-12.7722
-12.7804
-12.7891
-12.7981
-12.8073
-12.8167
-12.8262
-12.8358
-12.8454
-12.8549
-12.8644
-12.8739
-12.8833
-12.8927
-12.902
-12.9113
-12.9206
-12.9298
-12.9391
-12.9483
-12.9574
-12.9665
-12.9756
-12.9845
-12.9932
-13.0017
-13.0099
-13.0177
-13.025
-13.0317
-13.0376
-13.0426
-13.0466
-13.0494
-13.051
-13.0513
-13.0502
-13.0475
-13.0427
-12.7902
-12.7866
-12.7846
-12.7837
-12.7837
-12.7847
-12.7866
-12.7894
-12.793
-12.7973
-12.8021
-12.8075
-12.8134
-12.8195
-12.8259
-12.8325
-12.8393
-12.8461
-12.8529
-12.8598
-12.8666
-12.8734
-12.8802
-12.887
-12.8937
-12.9003
-12.907
-12.9136
-12.9202
-12.9267
-12.9332
-12.9397
-12.9462
-12.9525
-12.9588
-12.965
-12.971
-12.9767
-12.9822
-12.9873
-12.992
-12.9961
-12.9996
-13.0024
-13.0044
-13.0055
-13.0057
-13.0049
-13.0031
-12.9998
-12.8325
-12.8303
-12.8291
-12.8285
-12.8285
-12.8291
-12.8302
-12.8318
-12.8339
-12.8364
-12.8393
-12.8426
-12.8461
-12.8498
-12.8537
-12.8577
-12.8618
-12.8659
-12.8701
-12.8743
-12.8784
-12.8826
-12.8867
-12.8907
-12.8948
-12.8988
-12.9028
-12.9067
-12.9106
-12.9145
-12.9183
-12.9222
-12.9259
-12.9297
-12.9334
-12.937
-12.9405
-12.9438
-12.947
-12.95
-12.9528
-12.9552
-12.9573
-12.959
-12.9602
-12.9608
-12.961
-12.9606
-12.9595
-12.9576
-12.8742
-12.8734
-12.873
-12.8728
-12.8727
-12.8728
-12.8732
-12.8737
-12.8744
-12.8752
-12.8762
-12.8774
-12.8786
-12.88
-12.8814
-12.8828
-12.8843
-12.8858
-12.8873
-12.8888
-12.8903
-12.8918
-12.8932
-12.8946
-12.896
-12.8973
-12.8986
-12.8999
-12.9011
-12.9024
-12.9035
-12.9047
-12.9059
-12.907
-12.9081
-12.9091
-12.9102
-12.9112
-12.9122
-12.9131
-12.914
-12.9147
-12.9154
-12.916
-12.9164
-12.9167
-12.9168
-12.9167
-12.9164
-12.9159
-12.9158
-12.9164
-12.9167
-12.9168
-12.9167
-12.9164
-12.916
-12.9154
-12.9147
-12.9139
-12.9131
-12.9121
-12.9112
-12.9102
-12.9091
-12.908
-12.9069
-12.9058
-12.9047
-12.9035
-12.9023
-12.9011
-12.8999
-12.8986
-12.8973
-12.896
-12.8946
-12.8932
-12.8918
-12.8903
-12.8889
-12.8874
-12.8859
-12.8844
-12.8829
-12.8814
-12.88
-12.8787
-12.8774
-12.8763
-12.8753
-12.8744
-12.8737
-12.8732
-12.8729
-12.8727
-12.8728
-12.873
-12.8735
-12.8743
-12.9576
-12.9595
-12.9605
-12.9609
-12.9608
-12.9601
-12.9589
-12.9573
-12.9552
-12.9528
-12.95
-12.947
-12.9438
-12.9404
-12.9369
-12.9333
-12.9297
-12.9259
-12.9221
-12.9183
-12.9145
-12.9106
-12.9067
-12.9028
-12.8988
-12.8948
-12.8908
-12.8867
-12.8826
-12.8784
-12.8743
-12.8701
-12.866
-12.8618
-12.8577
-12.8537
-12.8498
-12.8461
-12.8426
-12.8394
-12.8364
-12.8339
-12.8318
-12.8302
-12.8291
-12.8285
-12.8285
-12.8291
-12.8303
-12.8325
-12.9997
-13.0031
-13.0049
-13.0056
-13.0054
-13.0043
-13.0024
-12.9996
-12.9961
-12.9919
-12.9873
-12.9821
-12.9767
-12.9709
-12.9649
-12.9588
-12.9525
-12.9461
-12.9397
-12.9332
-12.9267
-12.9202
-12.9136
-12.907
-12.9004
-12.8937
-12.887
-12.8802
-12.8735
-12.8666
-12.8598
-12.8529
-12.8461
-12.8393
-12.8326
-12.826
-12.8196
-12.8134
-12.8076
-12.8022
-12.7973
-12.793
-12.7894
-12.7867
-12.7848
-12.7838
-12.7837
-12.7846
-12.7866
-12.7902
-13.0427
-13.0475
-13.0502
-13.0512
-13.051
-13.0494
-13.0466
-13.0426
-13.0376
-13.0317
-13.025
-13.0177
-13.0099
-13.0017
-12.9932
-12.9845
-12.9755
-12.9665
-12.9574
-12.9483
-12.9391
-12.9298
-12.9206
-12.9113
-12.902
-12.8927
-12.8833
-12.8739
-12.8645
-12.8549
-12.8454
-12.8358
-12.8263
-12.8168
-12.8073
-12.7981
-12.7891
-12.7804
-12.7722
-12.7645
-12.7576
-12.7515
-12.7463
-12.7423
-12.7395
-12.738
-12.7379
-12.7391
-12.742
-12.7471
-13.0868
-13.0932
-13.0968
-13.0982
-13.0978
-13.0957
-13.0919
-13.0867
-13.08
-13.0722
-13.0634
-13.0539
-13.0436
-13.0329
-13.0218
-13.0104
-12.9988
-12.9871
-12.9753
-12.9634
-12.9515
-12.9396
-12.9277
-12.9158
-12.9038
-12.8919
-12.8798
-12.8677
-12.8556
-12.8434
-12.8311
-12.8188
-12.8065
-12.7942
-12.782
-12.7701
-12.7584
-12.7471
-12.7363
-12.7262
-12.7171
-12.709
-12.7021
-12.6967
-12.6929
-12.6909
-12.6907
-12.6923
-12.6961
-12.7028
-13.1323
-13.1406
-13.1451
-13.1469
-13.1464
-13.1437
-13.1388
-13.1321
-13.1237
-13.1138
-13.1028
-13.0907
-13.0779
-13.0645
-13.0507
-13.0366
-13.0222
-13.0078
-12.9932
-12.9787
-12.9641
-12.9495
-12.935
-12.9204
-12.9058
-12.8911
-12.8764
-12.8617
-12.8468
-12.8319
-12.8169
-12.8018
-12.7867
-12.7716
-12.7566
-12.7418
-12.7273
-12.7132
-12.6998
-12.6871
-12.6755
-12.6652
-12.6565
-12.6496
-12.6447
-12.642
-12.6416
-12.6436
-12.6484
-12.657
-13.1798
-13.1901
-13.1957
-13.1979
-13.1972
-13.1937
-13.1877
-13.1793
-13.1688
-13.1567
-13.1432
-13.1285
-13.1129
-13.0967
-13.0801
-13.0631
-13.0459
-13.0287
-13.0114
-12.994
-12.9768
-12.9595
-12.9423
-12.925
-12.9078
-12.8905
-12.8732
-12.8558
-12.8383
-12.8206
-12.8029
-12.785
-12.767
-12.7491
-12.7311
-12.7134
-12.6959
-12.6788
-12.6625
-12.647
-12.6328
-12.6201
-12.6092
-12.6004
-12.5942
-12.5908
-12.5902
-12.5925
-12.5985
-12.6092
-13.2297
-13.2423
-13.2492
-13.2517
-13.2507
-13.2464
-13.2388
-13.2285
-13.2158
-13.2011
-13.1848
-13.1672
-13.1487
-13.1295
-13.1099
-13.0899
-13.0698
-13.0497
-13.0296
-13.0095
-12.9895
-12.9695
-12.9497
-12.9298
-12.91
-12.8901
-12.8701
-12.8501
-12.8299
-12.8095
-12.789
-12.7683
-12.7475
-12.7265
-12.7056
-12.6847
-12.6641
-12.6439
-12.6244
-12.6058
-12.5886
-12.5731
-12.5597
-12.5489
-12.5411
-12.5366
-12.5357
-12.5385
-12.5457
-12.5589
-13.2825
-13.2978
-13.3062
-13.3091
-13.3077
-13.3022
-13.2928
-13.2802
-13.2648
-13.2472
-13.2277
-13.207
-13.1853
-13.1629
-13.1401
-13.117
-13.0939
-13.0708
-13.0478
-13.025
-13.0022
-12.9796
-12.9571
-12.9347
-12.9122
-12.8898
-12.8672
-12.8446
-12.8217
-12.7987
-12.7754
-12.7518
-12.7281
-12.7041
-12.68
-12.6559
-12.6319
-12.6083
-12.5854
-12.5634
-12.5428
-12.5241
-12.5078
-12.4945
-12.4847
-12.479
-12.4776
-12.4807
-12.4896
-12.5057
-13.3388
-13.3576
-13.3676
-13.3709
-13.3688
-13.3618
-13.3502
-13.3348
-13.3162
-13.2952
-13.2722
-13.2479
-13.2226
-13.1968
-13.1706
-13.1443
-13.1181
-13.092
-13.0661
-13.0404
-13.0149
-12.9897
-12.9646
-12.9396
-12.9146
-12.8896
-12.8646
-12.8393
-12.8139
-12.7882
-12.7621
-12.7357
-12.7089
-12.6819
-12.6545
-12.627
-12.5995
-12.5722
-12.5455
-12.5196
-12.4952
-12.4728
-12.453
-12.4366
-12.4244
-12.4169
-12.4149
-12.4184
-12.429
-12.4488
-13.3994
-13.4225
-13.4345
-13.4381
-13.4351
-13.426
-13.4115
-13.3927
-13.3703
-13.3453
-13.3183
-13.29
-13.2608
-13.2312
-13.2014
-13.1717
-13.1422
-13.113
-13.0842
-13.0557
-13.0275
-12.9997
-12.972
-12.9445
-12.9171
-12.8897
-12.8621
-12.8344
-12.8064
-12.778
-12.7492
-12.72
-12.6902
-12.66
-12.6293
-12.5982
-12.5669
-12.5357
-12.5048
-12.4746
-12.4458
-12.419
-12.395
-12.3748
-12.3593
-12.3497
-12.3465
-12.3503
-12.3631
-12.3874
-13.4656
-13.494
-13.5084
-13.512
-13.5074
-13.4956
-13.4774
-13.4542
-13.4273
-13.3975
-13.3659
-13.3331
-13.2996
-13.2659
-13.2323
-13.1991
-13.1662
-13.1339
-13.1021
-13.0708
-13.0399
-13.0095
-12.9794
-12.9495
-12.9197
-12.8899
-12.8599
-12.8298
-12.7993
-12.7684
-12.7369
-12.7048
-12.6721
-12.6386
-12.6045
-12.5697
-12.5345
-12.4989
-12.4634
-12.4284
-12.3945
-12.3625
-12.3334
-12.3084
-12.2888
-12.276
-12.2711
-12.275
-12.2903
-12.3204
-13.5386
-13.5739
-13.591
-13.5942
-13.5873
-13.5716
-13.5485
-13.5199
-13.4873
-13.452
-13.415
-13.3771
-13.3389
-13.3008
-13.2631
-13.2261
-13.1898
-13.1543
-13.1195
-13.0855
-13.052
-13.0191
-12.9866
-12.9544
-12.9223
-12.8902
-12.8581
-12.8256
-12.7927
-12.7593
-12.7253
-12.6904
-12.6547
-12.6181
-12.5804
-12.5419
-12.5024
-12.4622
-12.4217
-12.3812
-12.3414
-12.3033
-12.268
-12.2369
-12.2118
-12.1945
-12.187
-12.1903
-12.2086
-12.2462
-13.6207
-13.6649
-13.685
-13.687
-13.6763
-13.6551
-13.6255
-13.5901
-13.5506
-13.5086
-13.4653
-13.4217
-13.3782
-13.3354
-13.2935
-13.2526
-13.2128
-13.1741
-13.1364
-13.0996
-13.0637
-13.0284
-12.9936
-12.9592
-12.925
-12.8908
-12.8565
-12.8219
-12.7868
-12.751
-12.7145
-12.677
-12.6384
-12.5986
-12.5574
-12.5149
-12.4711
-12.4261
-12.38
-12.3334
-12.2869
-12.2415
-12.1985
-12.1596
-12.1271
-12.1037
-12.0918
-12.0937
-12.1152
-12.1624
-13.7152
-13.7707
-13.7937
-13.7929
-13.7763
-13.7473
-13.7091
-13.6648
-13.6168
-13.5669
-13.5165
-13.4664
-13.4172
-13.3693
-13.3229
-13.2781
-13.2348
-13.1929
-13.1524
-13.113
-13.0747
-13.0372
-13.0003
-12.9638
-12.9276
-12.8915
-12.8552
-12.8186
-12.7815
-12.7436
-12.7047
-12.6647
-12.6233
-12.5804
-12.5359
-12.4895
-12.4412
-12.391
-12.339
-12.2857
-12.2315
-12.1775
-12.125
-12.0763
-12.0339
-12.0015
-11.9828
-11.9815
-12.006
-12.0656
-13.8273
-13.897
-13.9219
-13.9154
-13.8895
-13.8493
-13.7995
-13.7439
-13.6855
-13.6263
-13.5677
-13.5105
-13.4552
-13.402
-13.351
-13.3022
-13.2554
-13.2105
-13.1673
-13.1255
-13.0849
-13.0453
-13.0065
-12.9682
-12.9302
-12.8924
-12.8543
-12.8159
-12.7769
-12.737
-12.6961
-12.6537
-12.6098
-12.564
-12.5161
-12.4659
-12.4131
-12.3577
-12.2996
-12.2389
-12.1761
-12.112
-12.0481
-11.9867
-11.9311
-11.886
-11.8564
-11.8484
-11.8748
-11.9498
-13.9655
-14.0519
-14.0761
-14.0588
-14.0181
-13.962
-13.8966
-13.8267
-13.7558
-13.6857
-13.6179
-13.553
-13.4911
-13.4325
-13.377
-13.3243
-13.2742
-13.2264
-13.1807
-13.1366
-13.094
-13.0526
-13.0121
-12.9722
-12.9327
-12.8933
-12.8538
-12.8138
-12.7732
-12.7316
-12.6887
-12.6444
-12.5981
-12.5497
-12.4987
-12.4449
-12.3878
-12.3271
-12.2626
-12.1941
-12.1218
-12.0463
-11.9688
-11.8915
-11.8183
-11.7548
-11.7083
-11.6877
-11.7129
-11.8059
-14.1436
-14.2478
-14.2649
-14.2279
-14.1643
-14.0855
-13.9994
-13.9117
-13.8257
-13.7433
-13.6655
-13.5923
-13.5239
-13.4599
-13.4
-13.3437
-13.2905
-13.2402
-13.1922
-13.1462
-13.1019
-13.0589
-13.017
-12.9758
-12.935
-12.8943
-12.8535
-12.8123
-12.7703
-12.7272
-12.6829
-12.6367
-12.5885
-12.5378
-12.4841
-12.427
-12.3658
-12.3001
-12.2294
-12.1529
-12.0706
-11.9823
-11.8888
-11.7919
-11.6955
-11.6062
-11.5334
-11.4901
-11.5067
-11.6186
-14.3852
-14.5029
-14.4994
-14.4279
-14.3289
-14.2183
-14.1053
-13.9956
-13.8924
-13.7965
-13.7081
-13.6268
-13.552
-13.483
-13.4191
-13.3595
-13.3038
-13.2513
-13.2015
-13.1539
-13.1082
-13.064
-13.0209
-12.9787
-12.9369
-12.8952
-12.8535
-12.8112
-12.7682
-12.7241
-12.6785
-12.631
-12.5812
-12.5286
-12.4726
-12.4127
-12.3481
-12.2779
-12.2012
-12.1171
-12.0245
-11.9226
-11.8111
-11.6907
-11.5647
-11.4396
-11.3266
-11.244
-11.2368
-11.3618
-14.7324
-14.8443
-14.7924
-14.6616
-14.5095
-14.3554
-14.2085
-14.0733
-13.9511
-13.8413
-13.7427
-13.6539
-13.5735
-13.5003
-13.4332
-13.3711
-13.3133
-13.2592
-13.208
-13.1594
-13.1127
-13.0676
-13.0238
-12.9808
-12.9383
-12.896
-12.8536
-12.8107
-12.767
-12.7221
-12.6756
-12.6272
-12.5762
-12.5223
-12.4647
-12.4026
-12.3352
-12.2613
-12.1796
-12.0886
-11.9862
-11.8707
-11.7399
-11.5928
-11.4302
-11.2571
-11.0847
-10.9359
-10.8742
-10.9901
-15.2598
-15.3107
-15.1557
-14.9269
-14.6974
-14.4864
-14.2994
-14.1367
-13.9957
-13.8731
-13.7658
-13.6711
-13.5866
-13.5104
-13.4412
-13.3775
-13.3186
-13.2635
-13.2116
-13.1623
-13.1151
-13.0696
-13.0254
-12.982
-12.9392
-12.8966
-12.8538
-12.8106
-12.7665
-12.7212
-12.6743
-12.6254
-12.5739
-12.5191
-12.4605
-12.3971
-12.3279
-12.2514
-12.1661
-12.0695
-11.959
-11.831
-11.6814
-11.5058
-11.3007
-11.0661
-10.8089
-10.5524
-10.3777
-10.4234
-16.0989
-15.9519
-15.5962
-15.2129
-14.8757
-14.595
-14.3646
-14.1755
-14.0187
-13.8868
-13.7741
-13.6761
-13.5897
-13.5124
-13.4424
-13.3784
-13.3192
-13.264
-13.212
-13.1626
-13.1154
-13.0699
-13.0256
-12.9823
-12.9395
-12.8969
-12.8541
-12.8109
-12.7668
-12.7215
-12.6746
-12.6256
-12.574
-12.5192
-12.4603
-12.3965
-12.3266
-12.2491
-12.1618
-12.0621
-11.9461
-11.8087
-11.643
-11.4402
-11.1896
-10.8808
-10.5077
-10.0846
-9.69483
-9.52462
-17.5421
-16.806
-16.0869
-15.4835
-15.0112
-14.6551
-14.3861
-14.1783
-14.0133
-13.8783
-13.7651
-13.6676
-13.5822
-13.5059
-13.4369
-13.3737
-13.3153
-13.2607
-13.2092
-13.1604
-13.1136
-13.0685
-13.0247
-12.9817
-12.9392
-12.8969
-12.8545
-12.8116
-12.7679
-12.723
-12.6765
-12.6279
-12.5768
-12.5224
-12.4641
-12.401
-12.3317
-12.2548
-12.168
-12.0682
-11.9509
-11.8096
-11.6345
-11.4114
-11.1199
-10.7313
-10.2145
-9.55749
-8.78394
-7.9906
-20.4124
-17.8354
-16.4439
-15.5844
-14.9983
-14.6001
-14.3237
-14.1215
-13.9655
-13.8394
-13.7337
-13.6424
-13.5617
-13.4893
-13.4232
-13.3624
-13.3059
-13.253
-13.2029
-13.1552
-13.1095
-13.0653
-13.0223
-12.9801
-12.9384
-12.8969
-12.8552
-12.8131
-12.7702
-12.7261
-12.6806
-12.633
-12.583
-12.5301
-12.4734
-12.4122
-12.3454
-12.2715
-12.1886
-12.0937
-11.9824
-11.8481
-11.6797
-11.4595
-11.1572
-10.7219
-10.0826
-9.15201
-7.67504
-4.98672
-25.3024
-18.9411
-16.3106
-15.2493
-14.6824
-14.3462
-14.1323
-13.9805
-13.8615
-13.7619
-13.6748
-13.5968
-13.5257
-13.4603
-13.3997
-13.3431
-13.2899
-13.2397
-13.192
-13.1463
-13.1024
-13.0598
-13.0182
-12.9774
-12.9371
-12.8968
-12.8565
-12.8157
-12.7742
-12.7316
-12.6877
-12.642
-12.5941
-12.5436
-12.4899
-12.4323
-12.3702
-12.3026
-12.228
-12.1448
-12.05
-11.9392
-11.8044
-11.6304
-11.3864
-11.0089
-10.3803
-9.22598
-6.48067
4.99138e-05
)
;

boundaryField
{
    movingWallTop
    {
        type            zeroGradient;
    }
    movingWallBottom
    {
        type            zeroGradient;
    }
    fixedWalls
    {
        type            zeroGradient;
    }
    frontAndBack
    {
        type            empty;
    }
}


// ************************************************************************* //
