/*--------------------------------*- C++ -*----------------------------------*\
  =========                 |
  \\      /  F ield         | OpenFOAM: The Open Source CFD Toolbox
   \\    /   O peration     | Website:  https://openfoam.org
    \\  /    A nd           | Version:  7
     \\/     M anipulation  |
\*---------------------------------------------------------------------------*/
FoamFile
{
    version     2.0;
    format      ascii;
    class       surfaceScalarField;
    location    "0.003";
    object      phi;
}
// * * * * * * * * * * * * * * * * * * * * * * * * * * * * * * * * * * * * * //

dimensions      [0 3 -1 0 0 0 0];

internalField   nonuniform List<scalar> 
4900
(
-5.56641e-06
5.56641e-06
-1.0143e-05
4.57661e-06
-1.28603e-05
2.71732e-06
-1.448e-05
1.61964e-06
-1.54642e-05
9.8424e-07
-1.60776e-05
6.13357e-07
-1.64735e-05
3.9591e-07
-1.67394e-05
2.6588e-07
-1.69251e-05
1.85702e-07
-1.70597e-05
1.34576e-07
-1.71605e-05
1.0084e-07
-1.72383e-05
7.77777e-08
-1.72997e-05
6.14298e-08
-1.73491e-05
4.94115e-08
-1.73894e-05
4.02594e-08
-1.74224e-05
3.30567e-08
-1.74496e-05
2.72141e-08
-1.7472e-05
2.2342e-08
-1.74902e-05
1.81743e-08
-1.75047e-05
1.45233e-08
-1.75159e-05
1.12517e-08
-1.75242e-05
8.25498e-09
-1.75296e-05
5.45077e-09
-1.75324e-05
2.77064e-09
-1.75326e-05
1.58253e-10
-1.75301e-05
-2.44739e-09
-1.7525e-05
-5.0925e-09
-1.75172e-05
-7.83556e-09
-1.75065e-05
-1.07371e-08
-1.74926e-05
-1.38676e-08
-1.74753e-05
-1.73132e-08
-1.74541e-05
-2.11831e-08
-1.74285e-05
-2.5621e-08
-1.73976e-05
-3.08238e-08
-1.73606e-05
-3.707e-08
-1.73158e-05
-4.4768e-08
-1.72613e-05
-5.45372e-08
-1.71939e-05
-6.73435e-08
-1.71092e-05
-8.47316e-08
-1.7e-05
-1.09218e-07
-1.6855e-05
-1.44973e-07
-1.6656e-05
-1.9901e-07
-1.63727e-05
-2.83346e-07
-1.59537e-05
-4.18979e-07
-1.53109e-05
-6.42725e-07
-1.42944e-05
-1.01654e-06
-1.26543e-05
-1.64011e-06
-9.95981e-06
-2.69448e-06
-5.47064e-06
-4.48917e-06
-5.47064e-06
2.18616e-08
5.54455e-06
-1.9742e-06
6.57267e-06
-4.49493e-06
5.23805e-06
-6.64172e-06
3.76644e-06
-8.26905e-06
2.61157e-06
-9.45194e-06
1.79625e-06
-1.03019e-05
1.24589e-06
-1.09153e-05
8.79275e-07
-1.13641e-05
6.34449e-07
-1.16987e-05
4.69184e-07
-1.19536e-05
3.55715e-07
-1.21518e-05
2.76053e-07
-1.2309e-05
2.18622e-07
-1.24356e-05
1.7599e-07
-1.25387e-05
1.43372e-07
-1.26233e-05
1.17659e-07
-1.26929e-05
9.68013e-08
-1.275e-05
7.94219e-08
-1.27964e-05
6.457e-08
-1.28334e-05
5.1571e-08
-1.28621e-05
3.99307e-08
-1.28831e-05
2.92741e-08
-1.2897e-05
1.9305e-08
-1.2904e-05
9.7791e-09
-1.29043e-05
4.83192e-10
-1.2898e-05
-8.77505e-09
-1.28849e-05
-1.81898e-08
-1.28648e-05
-2.79585e-08
-1.28372e-05
-3.83017e-08
-1.28016e-05
-4.94756e-08
-1.27571e-05
-6.17938e-08
-1.27026e-05
-7.56551e-08
-1.26367e-05
-9.15857e-08
-1.25572e-05
-1.10303e-07
-1.24614e-05
-1.32815e-07
-1.23456e-05
-1.60578e-07
-1.22044e-05
-1.95746e-07
-1.20302e-05
-2.41568e-07
-1.18119e-05
-3.03003e-07
-1.15335e-05
-3.87672e-07
-1.11712e-05
-5.07281e-07
-1.06905e-05
-6.79717e-07
-1.00418e-05
-9.31998e-07
-9.15661e-06
-1.30418e-06
-7.94619e-06
-1.85315e-06
-6.31252e-06
-2.65022e-06
-4.19735e-06
-3.75528e-06
-1.75424e-06
-5.13759e-06
1.28466e-07
-6.37188e-06
-5.34217e-06
1.10976e-06
4.4348e-06
8.27874e-07
6.85455e-06
-3.97513e-07
6.46344e-06
-1.89496e-06
5.26388e-06
-3.30015e-06
4.01676e-06
-4.4805e-06
2.9766e-06
-5.42046e-06
2.18585e-06
-6.15136e-06
1.61017e-06
-6.71606e-06
1.19915e-06
-7.15415e-06
9.07271e-07
-7.49743e-06
6.99e-07
-7.76985e-06
5.48472e-07
-7.98882e-06
4.37593e-07
-8.16683e-06
3.53999e-07
-8.3128e-06
2.89337e-07
-8.43312e-06
2.37979e-07
-8.53242e-06
1.96105e-07
-8.61409e-06
1.61092e-07
-8.68062e-06
1.31098e-07
-8.73385e-06
1.048e-07
-8.77514e-06
8.12227e-08
-8.80548e-06
5.96188e-08
-8.82558e-06
3.9397e-08
-8.83587e-06
2.00677e-08
-8.83659e-06
1.20416e-09
-8.82778e-06
-1.75839e-08
-8.80928e-06
-3.66829e-08
-8.78075e-06
-5.64918e-08
-8.7416e-06
-7.74524e-08
-8.691e-06
-1.00078e-07
-8.6278e-06
-1.24995e-07
-8.55046e-06
-1.52995e-07
-8.45693e-06
-1.85114e-07
-8.34448e-06
-2.22752e-07
-8.20945e-06
-2.67845e-07
-8.04689e-06
-3.23134e-07
-7.85007e-06
-3.92565e-07
-7.60975e-06
-4.8189e-07
-7.31323e-06
-5.99524e-07
-6.94319e-06
-7.57714e-07
-6.47643e-06
-9.74038e-07
-5.8831e-06
-1.27305e-06
-5.12758e-06
-1.68752e-06
-4.17377e-06
-2.25798e-06
-3.00009e-06
-3.02683e-06
-1.63247e-06
-4.01784e-06
-2.07637e-07
-5.18012e-06
9.2315e-07
-6.26837e-06
1.12448e-06
-6.57321e-06
-4.2177e-06
1.00382e-06
3.43098e-06
1.57767e-06
6.2807e-06
1.3662e-06
6.67491e-06
6.67658e-07
5.96242e-06
-2.18618e-07
4.90304e-06
-1.10409e-06
3.86207e-06
-1.89784e-06
2.9796e-06
-2.57105e-06
2.28338e-06
-3.12641e-06
1.75451e-06
-3.57928e-06
1.36014e-06
-3.9478e-06
1.06753e-06
-4.24867e-06
8.49336e-07
-4.49567e-06
6.84595e-07
-4.69964e-06
5.57971e-07
-4.86886e-06
4.58558e-07
-5.00959e-06
3.78704e-07
-5.12653e-06
3.13041e-07
-5.22322e-06
2.57783e-07
-5.30234e-06
2.10217e-07
-5.3659e-06
1.68363e-07
-5.41541e-06
1.30737e-07
-5.45199e-06
9.61936e-08
-5.47641e-06
6.38179e-08
-5.48919e-06
3.28484e-08
-5.4906e-06
2.61945e-09
-5.48071e-06
-2.74826e-08
-5.45933e-06
-5.80593e-08
-5.42609e-06
-8.97348e-08
-5.38034e-06
-1.23196e-07
-5.32118e-06
-1.59236e-07
-5.24736e-06
-1.98816e-07
-5.15722e-06
-2.43138e-07
-5.04858e-06
-2.93758e-07
-4.91858e-06
-3.52743e-07
-4.76353e-06
-4.22898e-07
-4.57857e-06
-5.08095e-07
-4.35738e-06
-6.13753e-07
-4.0918e-06
-7.47477e-07
-3.77141e-06
-9.1991e-07
-3.38342e-06
-1.1457e-06
-2.91304e-06
-1.44442e-06
-2.34529e-06
-1.8408e-06
-1.66952e-06
-2.36329e-06
-8.88927e-07
-3.03857e-06
-3.78839e-08
-3.87788e-06
7.91228e-07
-4.84695e-06
1.41895e-06
-5.80784e-06
1.56933e-06
-6.41874e-06
9.75358e-07
-5.97924e-06
-3.24234e-06
7.73283e-07
2.65769e-06
1.60116e-06
5.45282e-06
1.9625e-06
6.31357e-06
1.87167e-06
6.05326e-06
1.48837e-06
5.28634e-06
9.67329e-07
4.38311e-06
4.15374e-07
3.53156e-06
-1.07841e-07
2.8066e-06
-5.75827e-07
2.2225e-06
-9.81377e-07
1.76569e-06
-1.3271e-06
1.41325e-06
-1.61958e-06
1.14182e-06
-1.86636e-06
9.31368e-07
-2.07445e-06
7.66061e-07
-2.24989e-06
6.33995e-07
-2.39761e-06
5.2643e-07
-2.52158e-06
4.37006e-07
-2.6249e-06
3.61101e-07
-2.71e-06
2.95324e-07
-2.77878e-06
2.37143e-07
-2.83268e-06
1.84632e-07
-2.87277e-06
1.36283e-07
-2.89983e-06
9.08779e-08
-2.91437e-06
4.73945e-08
-2.91669e-06
4.9344e-09
-2.90684e-06
-3.73336e-08
-2.88467e-06
-8.02228e-08
-2.84983e-06
-1.24575e-07
-2.80172e-06
-1.71312e-07
-2.73947e-06
-2.21487e-07
-2.66192e-06
-2.76364e-07
-2.56755e-06
-3.37504e-07
-2.45442e-06
-4.06894e-07
-2.32004e-06
-4.87123e-07
-2.16131e-06
-5.81627e-07
-1.97438e-06
-6.95024e-07
-1.75457e-06
-8.33563e-07
-1.49637e-06
-1.00568e-06
-1.19365e-06
-1.22262e-06
-8.40389e-07
-1.49897e-06
-4.32162e-07
-1.85264e-06
3.07287e-08
-2.30369e-06
5.37859e-07
-2.87042e-06
1.06011e-06
-3.56082e-06
1.53797e-06
-4.35574e-06
1.87064e-06
-5.17962e-06
1.91754e-06
-5.85474e-06
1.53912e-06
-6.04033e-06
7.34254e-07
-5.17437e-06
-2.50808e-06
5.69544e-07
2.08815e-06
1.395e-06
4.62736e-06
2.00732e-06
5.70125e-06
2.28541e-06
5.77517e-06
2.27483e-06
5.29692e-06
2.07094e-06
4.587e-06
1.76293e-06
3.83957e-06
1.41541e-06
3.15411e-06
1.06847e-06
2.56944e-06
7.436e-07
2.09056e-06
4.50314e-07
1.70653e-06
1.91157e-07
1.40098e-06
-3.49265e-08
1.15745e-06
-2.30579e-07
9.61714e-07
-3.98904e-07
8.02321e-07
-5.42914e-07
6.7044e-07
-6.65303e-07
5.59395e-07
-7.68366e-07
4.64165e-07
-8.53999e-07
3.80957e-07
-9.23733e-07
3.06877e-07
-9.78779e-07
2.39678e-07
-1.02007e-06
1.7757e-07
-1.04828e-06
1.19091e-07
-1.06388e-06
6.29963e-08
-1.06713e-06
8.18862e-09
-1.05812e-06
-4.63532e-08
-1.03671e-06
-1.01627e-07
-1.00262e-06
-1.58663e-07
-9.55356e-07
-2.18579e-07
-8.94203e-07
-2.8264e-07
-8.18223e-07
-3.52344e-07
-7.26216e-07
-4.29511e-07
-6.16692e-07
-5.16418e-07
-4.87851e-07
-6.15964e-07
-3.37575e-07
-7.31903e-07
-1.63471e-07
-8.69128e-07
3.6998e-08
-1.03403e-06
2.66209e-07
-1.23489e-06
5.2575e-07
-1.48216e-06
8.15282e-07
-1.7885e-06
1.13058e-06
-2.16795e-06
1.46048e-06
-2.63358e-06
1.78245e-06
-3.1924e-06
2.05728e-06
-3.83565e-06
2.2245e-06
-4.52296e-06
2.20378e-06
-5.15889e-06
1.91249e-06
-5.56346e-06
1.31617e-06
-5.44401e-06
5.33316e-07
-4.39151e-06
-1.97477e-06
4.16552e-07
1.6716e-06
1.14321e-06
3.9007e-06
1.81504e-06
5.02942e-06
2.27205e-06
5.31816e-06
2.4919e-06
5.07706e-06
2.5175e-06
4.56141e-06
2.40951e-06
3.94756e-06
2.22287e-06
3.34076e-06
1.99874e-06
2.79356e-06
1.76455e-06
2.32475e-06
1.53677e-06
1.93431e-06
1.32432e-06
1.61343e-06
1.13127e-06
1.3505e-06
9.58897e-07
1.13409e-06
8.06929e-07
9.54289e-07
6.74368e-07
8.03e-07
5.59946e-07
6.73817e-07
4.62366e-07
5.61744e-07
3.8043e-07
4.62893e-07
3.13092e-07
3.74215e-07
2.59479e-07
2.93291e-07
2.18892e-07
2.18158e-07
1.90799e-07
1.47184e-07
1.74827e-07
7.89678e-08
1.70757e-07
1.22593e-08
1.78512e-07
-5.41082e-08
1.9816e-07
-1.21275e-07
2.2991e-07
-1.90414e-07
2.74115e-07
-2.62784e-07
3.31273e-07
-3.39798e-07
4.02029e-07
-4.231e-07
4.8717e-07
-5.14652e-07
5.87611e-07
-6.16859e-07
7.04359e-07
-7.32712e-07
8.3843e-07
-8.65973e-07
9.90695e-07
-1.02139e-06
1.16161e-06
-1.20494e-06
1.35072e-06
-1.424e-06
1.5559e-06
-1.68735e-06
1.77212e-06
-2.00472e-06
1.98967e-06
-2.38549e-06
2.1918e-06
-2.83571e-06
2.35207e-06
-3.35266e-06
2.43227e-06
-3.91585e-06
2.38322e-06
-4.47391e-06
2.15244e-06
-4.92812e-06
1.70539e-06
-5.11641e-06
1.0672e-06
-4.80582e-06
3.8708e-07
-3.71139e-06
-1.58769e-06
3.06327e-07
1.36527e-06
9.09268e-07
3.29776e-06
1.54272e-06
4.39597e-06
2.05439e-06
4.80649e-06
2.391e-06
4.74046e-06
2.55961e-06
4.3928e-06
2.59436e-06
3.91281e-06
2.53527e-06
3.39985e-06
2.4177e-06
2.91113e-06
2.26874e-06
2.47371e-06
2.10728e-06
2.09577e-06
1.94554e-06
1.77518e-06
1.79088e-06
1.50515e-06
1.64742e-06
1.27755e-06
1.51716e-06
1.08455e-06
1.40088e-06
9.19277e-07
1.29865e-06
7.76054e-07
1.21014e-06
6.50248e-07
1.1349e-06
5.38137e-07
1.0724e-06
4.36714e-07
1.02215e-06
3.43536e-07
9.83737e-07
2.56576e-07
9.56798e-07
1.74122e-07
9.41084e-07
9.46824e-08
9.3643e-07
1.69126e-08
9.42769e-07
-6.04474e-08
9.60125e-07
-1.38631e-07
9.88609e-07
-2.18898e-07
1.02842e-06
-3.02592e-07
1.07982e-06
-3.91201e-07
1.14315e-06
-4.86425e-07
1.21875e-06
-5.90255e-07
1.30697e-06
-7.05077e-07
1.40803e-06
-8.3378e-07
1.52195e-06
-9.79889e-07
1.64826e-06
-1.1477e-06
1.78572e-06
-1.3424e-06
1.93177e-06
-1.57005e-06
2.08177e-06
-1.83735e-06
2.22799e-06
-2.15094e-06
2.35823e-06
-2.51574e-06
2.45444e-06
-2.93193e-06
2.49163e-06
-3.38985e-06
2.43818e-06
-3.86241e-06
2.25947e-06
-4.29519e-06
1.92733e-06
-4.59598e-06
1.43863e-06
-4.62771e-06
8.44261e-07
-4.21145e-06
2.83722e-07
-3.15085e-06
-1.30396e-06
2.27017e-07
1.13825e-06
7.12003e-07
2.81278e-06
1.26648e-06
3.84149e-06
1.7627e-06
4.31027e-06
2.13912e-06
4.36404e-06
2.38253e-06
4.14939e-06
2.50723e-06
3.78811e-06
2.53886e-06
3.36821e-06
2.50439e-06
2.94561e-06
2.42714e-06
2.55096e-06
2.32525e-06
2.19766e-06
2.21178e-06
1.88865e-06
2.09562e-06
1.62131e-06
1.98255e-06
1.39063e-06
1.87614e-06
1.19096e-06
1.77848e-06
1.01693e-06
1.69072e-06
8.63813e-07
1.61341e-06
7.27564e-07
1.54672e-06
6.0482e-07
1.49066e-06
4.92778e-07
1.4451e-06
3.89093e-07
1.4099e-06
2.91779e-07
1.3849e-06
1.99125e-07
1.36996e-06
1.09615e-07
1.365e-06
2.18712e-08
1.36997e-06
-6.54078e-08
1.38483e-06
-1.53495e-07
1.40962e-06
-2.43687e-07
1.44438e-06
-3.37351e-07
1.48916e-06
-4.35982e-07
1.54399e-06
-5.41256e-07
1.60883e-06
-6.55098e-07
1.68351e-06
-7.79755e-07
1.7676e-06
-9.17871e-07
1.86029e-06
-1.07257e-06
1.9601e-06
-1.24752e-06
2.06462e-06
-1.44692e-06
2.16995e-06
-1.67539e-06
2.27017e-06
-1.93757e-06
2.35648e-06
-2.23725e-06
2.41644e-06
-2.5757e-06
2.43336e-06
-2.94885e-06
2.38635e-06
-3.34283e-06
2.25196e-06
-3.72802e-06
2.00872e-06
-4.05195e-06
1.64586e-06
-4.23313e-06
1.17737e-06
-4.15921e-06
6.60107e-07
-3.69419e-06
2.10272e-07
-2.70102e-06
-1.09369e-06
1.69758e-07
9.68494e-07
5.53855e-07
2.42868e-06
1.02005e-06
3.3753e-06
1.46757e-06
3.86275e-06
1.83819e-06
3.99342e-06
2.1095e-06
3.87808e-06
2.28298e-06
3.61462e-06
2.37283e-06
3.27837e-06
2.39774e-06
2.9207e-06
2.37605e-06
2.57265e-06
2.3234e-06
2.25031e-06
2.25207e-06
1.95998e-06
2.17112e-06
1.70225e-06
2.08702e-06
1.47474e-06
2.00416e-06
1.27381e-06
1.92551e-06
1.09559e-06
1.85295e-06
9.36363e-07
1.78771e-06
7.9281e-07
1.73049e-06
6.62036e-07
1.68172e-06
5.41548e-07
1.64162e-06
4.29197e-07
1.61028e-06
3.23117e-07
1.58774e-06
2.21668e-07
1.57398e-06
1.23373e-07
1.56898e-06
2.68714e-08
1.5727e-06
-6.91276e-08
1.58509e-06
-1.6589e-07
1.60611e-06
-2.64697e-07
1.63565e-06
-3.66891e-07
1.67358e-06
-4.73914e-07
1.71968e-06
-5.87355e-07
1.77358e-06
-7.08997e-07
1.83469e-06
-8.40866e-07
1.90209e-06
-9.85276e-07
1.97438e-06
-1.14486e-06
2.04943e-06
-1.32257e-06
2.12413e-06
-1.52162e-06
2.19397e-06
-1.74523e-06
2.25263e-06
-1.99622e-06
2.29146e-06
-2.27607e-06
2.29912e-06
-2.58336e-06
2.26155e-06
-2.91127e-06
2.16268e-06
-3.24396e-06
1.98662e-06
-3.55196e-06
1.72194e-06
-3.78727e-06
1.36877e-06
-3.87995e-06
9.4847e-07
-3.73891e-06
5.14234e-07
-3.25995e-06
1.57654e-07
-2.34444e-06
-9.36039e-07
1.28377e-07
8.40118e-07
4.30952e-07
2.1261e-06
8.1467e-07
2.99158e-06
1.20243e-06
3.47499e-06
1.54393e-06
3.65192e-06
1.81431e-06
3.6077e-06
2.00783e-06
3.42111e-06
2.13059e-06
3.15561e-06
2.19445e-06
2.85684e-06
2.21282e-06
2.55427e-06
2.19826e-06
2.26487e-06
2.16136e-06
1.99688e-06
2.11056e-06
1.75306e-06
2.05222e-06
1.53307e-06
1.99105e-06
1.33499e-06
1.93039e-06
1.15625e-06
1.87262e-06
9.94133e-07
1.81937e-06
8.46056e-07
1.77177e-06
7.09644e-07
1.73054e-06
5.82771e-07
1.69619e-06
4.63546e-07
1.66903e-06
3.50284e-07
1.64923e-06
2.41466e-07
1.6369e-06
1.35704e-07
1.63207e-06
3.17005e-08
1.63472e-06
-7.17825e-08
1.64479e-06
-1.75962e-07
1.66216e-06
-2.82065e-07
1.68663e-06
-3.91362e-07
1.71792e-06
-5.052e-07
1.75559e-06
-6.25032e-07
1.79905e-06
-7.52451e-07
1.8474e-06
-8.89215e-07
1.89939e-06
-1.03726e-06
1.95324e-06
-1.19872e-06
2.0065e-06
-1.37583e-06
2.05576e-06
-1.57087e-06
2.09641e-06
-1.78589e-06
2.12238e-06
-2.02219e-06
2.12583e-06
-2.27953e-06
2.09717e-06
-2.5547e-06
2.02527e-06
-2.83938e-06
1.8986e-06
-3.11729e-06
1.70727e-06
-3.36063e-06
1.44675e-06
-3.52675e-06
1.12313e-06
-3.55633e-06
7.59468e-07
-3.37526e-06
4.01569e-07
-2.90205e-06
1.19771e-07
-2.06264e-06
-8.16268e-07
9.84322e-08
7.41685e-07
3.37216e-07
1.88732e-06
6.5009e-07
2.6787e-06
9.78788e-07
3.14629e-06
1.28187e-06
3.34883e-06
1.5356e-06
3.35398e-06
1.7308e-06
3.2259e-06
1.86845e-06
3.01797e-06
1.95526e-06
2.77002e-06
2.00048e-06
2.50906e-06
2.01361e-06
2.25174e-06
2.00334e-06
2.00715e-06
1.97697e-06
1.77943e-06
1.94037e-06
1.56967e-06
1.89808e-06
1.37727e-06
1.85356e-06
1.20077e-06
1.80937e-06
1.03833e-06
1.76738e-06
8.88043e-07
1.72896e-06
7.48065e-07
1.69508e-06
6.16655e-07
1.66642e-06
4.92209e-07
1.64344e-06
3.73256e-07
1.62647e-06
2.58437e-07
1.61569e-06
1.46488e-07
1.61118e-06
3.62105e-08
1.61294e-06
-7.35485e-08
1.62091e-06
-1.83924e-07
1.6349e-06
-2.96055e-07
1.65464e-06
-4.1111e-07
1.67975e-06
-5.30307e-07
1.70966e-06
-6.54937e-07
1.74358e-06
-7.86373e-07
1.78045e-06
-9.26087e-07
1.81882e-06
-1.07564e-06
1.85676e-06
-1.23665e-06
1.89168e-06
-1.41075e-06
1.9202e-06
-1.59939e-06
1.93796e-06
-1.80365e-06
1.93949e-06
-2.02371e-06
1.91809e-06
-2.25813e-06
1.86601e-06
-2.50262e-06
1.77492e-06
-2.74829e-06
1.63696e-06
-2.97933e-06
1.44666e-06
-3.17033e-06
1.20379e-06
-3.28388e-06
9.17143e-07
-3.26969e-06
6.08541e-07
-3.06665e-06
3.15781e-07
-2.60929e-06
9.23612e-08
-1.83922e-06
-7.23907e-07
7.66539e-08
6.65031e-07
2.66317e-07
1.69766e-06
5.20941e-07
2.42408e-06
7.96528e-07
2.8707e-06
1.05977e-06
3.08558e-06
1.28959e-06
3.12416e-06
1.47578e-06
3.03972e-06
1.61629e-06
2.87745e-06
1.71436e-06
2.67195e-06
1.77594e-06
2.44749e-06
1.80794e-06
2.21973e-06
1.81716e-06
1.99793e-06
1.80966e-06
1.78693e-06
1.79055e-06
1.58878e-06
1.764e-06
1.40382e-06
1.73331e-06
1.23145e-06
1.70105e-06
1.07059e-06
1.66916e-06
9.19934e-07
1.63912e-06
7.78099e-07
1.61205e-06
6.4373e-07
1.58874e-06
5.15518e-07
1.56977e-06
3.9222e-07
1.55555e-06
2.72659e-07
1.54633e-06
1.55715e-07
1.54222e-06
4.03154e-08
1.54326e-06
-7.45851e-08
1.54935e-06
-1.90015e-07
1.5603e-06
-3.07004e-07
1.57578e-06
-4.26596e-07
1.59534e-06
-5.49862e-07
1.61831e-06
-6.77912e-07
1.64384e-06
-8.11895e-07
1.67075e-06
-9.52996e-07
1.69752e-06
-1.10242e-06
1.72221e-06
-1.26134e-06
1.74228e-06
-1.43082e-06
1.75458e-06
-1.61169e-06
1.75517e-06
-1.80425e-06
1.73934e-06
-2.00788e-06
1.7016e-06
-2.22039e-06
1.63593e-06
-2.43695e-06
1.53633e-06
-2.64868e-06
1.39775e-06
-2.84075e-06
1.2177e-06
-2.99028e-06
9.98412e-07
-3.06459e-06
7.49405e-07
-3.02068e-06
4.9001e-07
-2.80726e-06
2.50757e-07
-2.37004e-06
7.23615e-08
-1.66083e-06
-6.51545e-07
6.06363e-08
6.04395e-07
2.12616e-07
1.54568e-06
4.20329e-07
2.21637e-06
6.50336e-07
2.6407e-06
8.76162e-07
2.85976e-06
1.07982e-06
2.9205e-06
1.25136e-06
2.86818e-06
1.38725e-06
2.74156e-06
1.48844e-06
2.57077e-06
1.5585e-06
2.37742e-06
1.60228e-06
2.17595e-06
1.62492e-06
1.9753e-06
1.63126e-06
1.78059e-06
1.62562e-06
1.59442e-06
1.61164e-06
1.4178e-06
1.59235e-06
1.25075e-06
1.57015e-06
1.09279e-06
1.54697e-06
9.43113e-07
1.52431e-06
8.00763e-07
1.50331e-06
6.64728e-07
1.48484e-06
5.33981e-07
1.46955e-06
4.07509e-07
1.45789e-06
2.84322e-07
1.45015e-06
1.63458e-07
1.44648e-06
4.39806e-08
1.44693e-06
-7.50307e-08
1.4514e-06
-1.94484e-07
1.45968e-06
-3.15284e-07
1.47142e-06
-4.38339e-07
1.48612e-06
-5.64566e-07
1.5031e-06
-6.9489e-07
1.52145e-06
-8.30238e-07
1.53998e-06
-9.71529e-07
1.5572e-06
-1.11964e-06
1.57123e-06
-1.27537e-06
1.57973e-06
-1.43932e-06
1.57984e-06
-1.6118e-06
1.56818e-06
-1.79258e-06
1.54079e-06
-1.98049e-06
1.49331e-06
-2.17291e-06
1.42122e-06
-2.36486e-06
1.32032e-06
-2.54778e-06
1.1876e-06
-2.70804e-06
1.02249e-06
-2.82516e-06
8.2838e-07
-2.87048e-06
6.14483e-07
-2.80679e-06
3.97302e-07
-2.59008e-06
2.01261e-07
-2.174e-06
5.75644e-08
-1.51713e-06
-5.93981e-07
4.86432e-08
5.55752e-07
1.71534e-07
1.42279e-06
3.41677e-07
2.04622e-06
5.33392e-07
2.44898e-06
7.25696e-07
2.66745e-06
9.03601e-07
2.74259e-06
1.05803e-06
2.71375e-06
1.1849e-06
2.61469e-06
1.28379e-06
2.47188e-06
1.35666e-06
2.30456e-06
1.40675e-06
2.12585e-06
1.43785e-06
1.9442e-06
1.45375e-06
1.76469e-06
1.45797e-06
1.5902e-06
1.45362e-06
1.42215e-06
1.44334e-06
1.26103e-06
1.42934e-06
1.10679e-06
1.41341e-06
9.59039e-07
1.397e-06
8.17173e-07
1.38124e-06
6.80486e-07
1.36702e-06
5.48209e-07
1.35498e-06
4.19545e-07
1.34561e-06
2.93691e-07
1.33922e-06
1.69844e-07
1.336e-06
4.72083e-08
1.33597e-06
-7.50041e-08
1.33906e-06
-1.97574e-07
1.34505e-06
-3.21277e-07
1.35359e-06
-4.4688e-07
1.36417e-06
-5.75146e-07
1.3761e-06
-7.0682e-07
1.38849e-06
-8.42625e-07
1.4002e-06
-9.83236e-07
1.40981e-06
-1.12925e-06
1.41558e-06
-1.28114e-06
1.41541e-06
-1.43916e-06
1.40683e-06
-1.60322e-06
1.38696e-06
-1.77271e-06
1.3526e-06
-1.94613e-06
1.30035e-06
-2.12067e-06
1.22689e-06
-2.2914e-06
1.1294e-06
-2.45029e-06
1.00626e-06
-2.5849e-06
8.58002e-07
-2.67691e-06
6.88458e-07
-2.70094e-06
5.05981e-07
-2.62431e-06
3.24377e-07
-2.40847e-06
1.6313e-07
-2.01275e-06
4.63989e-08
-1.4004e-06
-5.47582e-07
3.94503e-08
5.16301e-07
1.39567e-07
1.32267e-06
2.79467e-07
1.90632e-06
4.39197e-07
2.28925e-06
6.02112e-07
2.50454e-06
7.55881e-07
2.58882e-06
8.92562e-07
2.57707e-06
1.00805e-06
2.4992e-06
1.10119e-06
2.37874e-06
1.17286e-06
2.23288e-06
1.22518e-06
2.07354e-06
1.26085e-06
1.90853e-06
1.28277e-06
1.74276e-06
1.29377e-06
1.57921e-06
1.29641e-06
1.41951e-06
1.29297e-06
1.26447e-06
1.28538e-06
1.11438e-06
1.27528e-06
9.69141e-07
1.264e-06
8.28455e-07
1.25261e-06
6.91872e-07
1.24197e-06
5.58851e-07
1.23272e-06
4.28794e-07
1.22534e-06
3.0107e-07
1.22015e-06
1.75033e-07
1.21733e-06
5.00264e-08
1.21694e-06
-7.46071e-08
1.21888e-06
-1.9952e-07
1.22296e-06
-3.25359e-07
1.22884e-06
-4.52753e-07
1.23601e-06
-5.82316e-07
1.24382e-06
-7.14628e-07
1.25141e-06
-8.50223e-07
1.25774e-06
-9.89565e-07
1.26151e-06
-1.13302e-06
1.26116e-06
-1.28079e-06
1.25485e-06
-1.43285e-06
1.24048e-06
-1.58885e-06
1.21568e-06
-1.7479e-06
1.1779e-06
-1.90835e-06
1.12454e-06
-2.06731e-06
1.05321e-06
-2.22006e-06
9.62079e-07
-2.35916e-06
8.50448e-07
-2.47327e-06
7.1944e-07
-2.5459e-06
5.72852e-07
-2.55435e-06
4.17991e-07
-2.46945e-06
2.66261e-07
-2.25675e-06
1.33219e-07
-1.87971e-06
3.77665e-08
-1.30494e-06
-5.09815e-07
3.22107e-08
4.84091e-07
1.14146e-07
1.24073e-06
2.29393e-07
1.79108e-06
3.62291e-07
2.15635e-06
4.99605e-07
2.36722e-06
6.31273e-07
2.45716e-06
7.50523e-07
2.45782e-06
8.53527e-07
2.3962e-06
9.38806e-07
2.29346e-06
1.00657e-06
2.16512e-06
1.05811e-06
2.02199e-06
1.09535e-06
1.87128e-06
1.12047e-06
1.71765e-06
1.13567e-06
1.56401e-06
1.14304e-06
1.41213e-06
1.1445e-06
1.26302e-06
1.14171e-06
1.11717e-06
1.1361e-06
9.74753e-07
1.12887e-06
8.35685e-07
1.12101e-06
6.99734e-07
1.1133e-06
5.66555e-07
1.10637e-06
4.35727e-07
1.10066e-06
3.06777e-07
1.09649e-06
1.79202e-07
1.09404e-06
5.24773e-08
1.09336e-06
-7.39271e-08
1.09438e-06
-2.00542e-07
1.09691e-06
-3.27888e-07
1.10063e-06
-4.56467e-07
1.10506e-06
-5.86754e-07
1.10961e-06
-7.19178e-07
1.1135e-06
-8.5411e-07
1.11577e-06
-9.91833e-07
1.11527e-06
-1.13251e-06
1.11064e-06
-1.27616e-06
1.10032e-06
-1.42253e-06
1.08254e-06
-1.57108e-06
1.05541e-06
-1.72076e-06
1.0169e-06
-1.86984e-06
9.65076e-07
-2.01549e-06
8.98241e-07
-2.15323e-06
8.15265e-07
-2.27619e-06
7.16007e-07
-2.37401e-06
6.01846e-07
-2.43174e-06
4.76302e-07
-2.4288e-06
3.45608e-07
-2.33875e-06
2.19107e-07
-2.13024e-06
1.09234e-07
-1.76984e-06
3.09097e-08
-1.22662e-06
-4.78906e-07
2.63448e-08
4.57746e-07
9.34315e-08
1.17365e-06
1.88232e-07
1.69628e-06
2.98373e-07
2.04621e-06
4.1332e-07
2.25228e-06
5.24918e-07
2.34556e-06
6.27502e-07
2.35523e-06
7.17667e-07
2.30603e-06
7.93856e-07
2.21727e-06
8.55889e-07
2.10309e-06
9.04518e-07
1.97337e-06
9.41063e-07
1.83474e-06
9.67138e-07
1.69157e-06
9.8445e-07
1.5467e-06
9.94672e-07
1.40191e-06
9.99367e-07
1.25832e-06
9.99938e-07
1.1166e-06
9.97617e-07
9.77074e-07
9.93453e-07
8.39849e-07
9.88322e-07
7.04864e-07
9.82939e-07
5.71939e-07
9.77863e-07
4.40803e-07
9.73517e-07
3.11124e-07
9.70191e-07
1.82527e-07
9.68057e-07
5.46115e-08
9.67168e-07
-7.30381e-08
9.67464e-07
-2.00838e-07
9.68771e-07
-3.29195e-07
9.70796e-07
-4.58492e-07
9.73123e-07
-5.89081e-07
9.75203e-07
-7.21258e-07
9.76345e-07
-8.55252e-07
9.7571e-07
-9.91198e-07
9.72302e-07
-1.12911e-06
9.64965e-07
-1.26882e-06
9.52391e-07
-1.40996e-06
9.33141e-07
-1.55183e-06
9.05688e-07
-1.69331e-06
8.68486e-07
-1.83264e-06
8.20089e-07
-1.96709e-06
7.59322e-07
-2.09246e-06
6.85526e-07
-2.20239e-06
5.98882e-07
-2.28737e-06
5.00816e-07
-2.33367e-06
3.94443e-07
-2.32243e-06
2.84985e-07
-2.22929e-06
1.80034e-07
-2.02529e-06
8.95309e-08
-1.67934e-06
2.53095e-08
-1.1624e-06
-4.53596e-07
2.14566e-08
4.36289e-07
7.61178e-08
1.11899e-06
1.53615e-07
1.61878e-06
2.44164e-07
1.95566e-06
3.39397e-07
2.15704e-06
4.32762e-07
2.25219e-06
5.19596e-07
2.2684e-06
5.96975e-07
2.22865e-06
6.63416e-07
2.15083e-06
7.18538e-07
2.04797e-06
7.62734e-07
1.92917e-06
7.96899e-07
1.80057e-06
8.22207e-07
1.66627e-06
8.3996e-07
1.52894e-06
8.51474e-07
1.39039e-06
8.58007e-07
1.25179e-06
8.60718e-07
1.11389e-06
8.60636e-07
9.77155e-07
8.58659e-07
8.41826e-07
8.55545e-07
7.07978e-07
8.51919e-07
5.75565e-07
8.48277e-07
4.44444e-07
8.44998e-07
3.14403e-07
8.42345e-07
1.8518e-07
8.40475e-07
5.6482e-08
8.39439e-07
-7.20022e-08
8.39188e-07
-2.00587e-07
8.3957e-07
-3.29577e-07
8.40328e-07
-4.59251e-07
8.41099e-07
-5.89851e-07
8.41403e-07
-7.21562e-07
8.40646e-07
-8.54495e-07
8.38109e-07
-9.88661e-07
8.3295e-07
-1.12395e-06
8.24209e-07
-1.26008e-06
8.10814e-07
-1.39656e-06
7.91612e-07
-1.53263e-06
7.65404e-07
-1.6671e-06
7.31013e-07
-1.79825e-06
6.8738e-07
-1.92346e-06
6.33704e-07
-2.03879e-06
5.69634e-07
-2.13832e-06
4.95513e-07
-2.21325e-06
4.12682e-07
-2.25084e-06
3.23807e-07
-2.23356e-06
2.33183e-07
-2.13867e-06
1.46922e-07
-1.93903e-06
7.29371e-08
-1.60535e-06
2.06089e-08
-1.11007e-06
-4.32987e-07
1.72718e-08
4.19018e-07
6.12761e-08
1.07498e-06
1.23815e-07
1.55624e-06
1.97197e-07
1.88228e-06
2.74838e-07
2.0794e-06
3.51537e-07
2.17549e-06
4.23529e-07
2.19641e-06
4.88378e-07
2.16381e-06
5.44761e-07
2.09444e-06
5.92221e-07
2.00051e-06
6.30928e-07
1.89046e-06
6.61472e-07
1.77003e-06
6.84698e-07
1.64304e-06
7.0158e-07
1.51206e-06
7.13136e-07
1.37884e-06
7.20359e-07
1.24457e-06
7.24181e-07
1.11007e-06
7.25446e-07
9.75891e-07
7.24897e-07
8.42374e-07
7.23173e-07
7.09703e-07
7.20804e-07
5.77934e-07
7.18218e-07
4.4703e-07
7.1574e-07
3.1688e-07
7.13603e-07
1.87317e-07
7.11944e-07
5.81412e-08
7.10812e-07
-7.08702e-08
7.10168e-07
-1.99943e-07
7.09883e-07
-3.29293e-07
7.09743e-07
-4.5911e-07
7.09437e-07
-5.89545e-07
7.08565e-07
-7.20689e-07
7.06627e-07
-8.52557e-07
7.03028e-07
-9.85062e-07
6.97078e-07
-1.118e-06
6.87996e-07
-1.251e-06
6.74928e-07
-1.38349e-06
6.56967e-07
-1.51466e-06
6.3319e-07
-1.64333e-06
6.02715e-07
-1.76778e-06
5.64779e-07
-1.88552e-06
5.18847e-07
-1.99285e-06
4.64756e-07
-2.08423e-06
4.02906e-07
-2.1514e-06
3.3448e-07
-2.18241e-06
2.61685e-07
-2.16076e-06
1.87979e-07
-2.06496e-06
1.18212e-07
-1.86927e-06
5.86129e-08
-1.54575e-06
1.65584e-08
-1.06802e-06
-4.16429e-07
1.35961e-08
4.05422e-07
4.82359e-08
1.04034e-06
9.75535e-08
1.50692e-06
1.5561e-07
1.82422e-06
2.17319e-07
2.01769e-06
2.78637e-07
2.11418e-06
3.36604e-07
2.13844e-06
3.89257e-07
2.11115e-06
4.35477e-07
2.04822e-06
4.74814e-07
1.96117e-06
5.07306e-07
1.85797e-06
5.33331e-07
1.74401e-06
5.53487e-07
1.62289e-06
5.68487e-07
1.49706e-06
5.791e-07
1.36822e-06
5.86089e-07
1.23758e-06
5.90183e-07
1.10597e-06
5.92053e-07
9.7402e-07
5.92296e-07
8.42131e-07
5.9143e-07
7.10568e-07
5.89891e-07
5.79473e-07
5.88031e-07
4.4889e-07
5.86124e-07
3.18788e-07
5.84362e-07
1.89079e-07
5.82865e-07
5.96381e-08
5.81677e-07
-6.96817e-08
5.80768e-07
-1.99034e-07
5.80036e-07
-3.28561e-07
5.79306e-07
-4.5838e-07
5.78328e-07
-5.88568e-07
5.76777e-07
-7.19139e-07
5.74254e-07
-8.50033e-07
5.70281e-07
-9.8109e-07
5.64313e-07
-1.11203e-06
5.55738e-07
-1.24242e-06
5.43895e-07
-1.37165e-06
5.28091e-07
-1.49886e-06
5.07634e-07
-1.62287e-06
4.81878e-07
-1.74202e-06
4.50283e-07
-1.85392e-06
4.12499e-07
-1.95507e-06
3.68473e-07
-2.0402e-06
3.18589e-07
-2.10151e-06
2.63831e-07
-2.12766e-06
2.0596e-07
-2.10289e-06
1.47678e-07
-2.00668e-06
9.27399e-08
-1.81433e-06
4.59457e-08
-1.49896e-06
1.29796e-08
-1.03505e-06
-4.03449e-07
1.02879e-08
3.95134e-07
3.65006e-08
1.01413e-06
7.38727e-08
1.46955e-06
1.17977e-07
1.78012e-06
1.65021e-07
1.97065e-06
2.11977e-07
2.06722e-06
2.56606e-07
2.09381e-06
2.97398e-07
2.07036e-06
3.33462e-07
2.01216e-06
3.64401e-07
1.93023e-06
3.90188e-07
1.83218e-06
4.11057e-07
1.72314e-06
4.27416e-07
1.60653e-06
4.39772e-07
1.4847e-06
4.48683e-07
1.35931e-06
4.54716e-07
1.23154e-06
4.58419e-07
1.10227e-06
4.603e-07
9.72139e-07
4.60819e-07
8.41612e-07
4.60376e-07
7.11011e-07
4.59313e-07
5.80537e-07
4.57906e-07
4.50296e-07
4.56374e-07
3.20321e-07
4.54869e-07
1.90583e-07
4.5349e-07
6.10172e-08
4.52275e-07
-6.84658e-08
4.51203e-07
-1.97962e-07
4.50198e-07
-3.27557e-07
4.49129e-07
-4.57311e-07
4.47804e-07
-5.87243e-07
4.45976e-07
-7.17311e-07
4.43341e-07
-8.47398e-07
4.39538e-07
-9.77287e-07
4.34158e-07
-1.10665e-06
4.26745e-07
-1.23501e-06
4.1681e-07
-1.36171e-06
4.03849e-07
-1.4859e-06
3.87363e-07
-1.60638e-06
3.66896e-07
-1.72155e-06
3.42079e-07
-1.82911e-06
3.12687e-07
-1.92568e-06
2.78723e-07
-2.00624e-06
2.4051e-07
-2.0633e-06
1.98812e-07
-2.08596e-06
1.54959e-07
-2.05904e-06
1.10969e-07
-1.96269e-06
6.96232e-08
-1.77298e-06
3.44764e-08
-1.46381e-06
9.74057e-09
-1.01031e-06
-3.93709e-07
7.2397e-09
3.87894e-07
2.56905e-08
9.95679e-07
5.2029e-08
1.44321e-06
8.31759e-08
1.74897e-06
1.1649e-07
1.93734e-06
1.49854e-07
2.03386e-06
1.81688e-07
2.06198e-06
2.10914e-07
2.04114e-06
2.36876e-07
1.9862e-06
2.59264e-07
1.90784e-06
2.78026e-07
1.81342e-06
2.93298e-07
1.70786e-06
3.05342e-07
1.59448e-06
3.14499e-07
1.47555e-06
3.21149e-07
1.35266e-06
3.25685e-07
1.22701e-06
3.28491e-07
1.09947e-06
3.29928e-07
9.70703e-07
3.30322e-07
8.41218e-07
3.29964e-07
7.11369e-07
3.29098e-07
5.81402e-07
3.27929e-07
4.51466e-07
3.26615e-07
3.21635e-07
3.25271e-07
1.91926e-07
3.23972e-07
6.23167e-08
3.22747e-07
-6.72416e-08
3.21589e-07
-1.96803e-07
3.20446e-07
-3.26413e-07
3.19227e-07
-4.56092e-07
3.17803e-07
-5.85818e-07
3.16e-07
-7.15509e-07
3.13611e-07
-8.45008e-07
3.10386e-07
-9.74063e-07
3.06044e-07
-1.10231e-06
3.00275e-07
-1.22924e-06
2.92748e-07
-1.35419e-06
2.83122e-07
-1.47627e-06
2.71067e-07
-1.59433e-06
2.56282e-07
-1.70677e-06
2.3853e-07
-1.81135e-06
2.17674e-07
-1.90482e-06
1.93732e-07
-1.9823e-06
1.66941e-07
-2.03651e-06
1.37834e-07
-2.05685e-06
1.07329e-07
-2.02853e-06
7.68051e-08
-1.93217e-06
4.81677e-08
-1.74434e-06
2.3849e-08
-1.43949e-06
6.73997e-09
-9.93205e-07
-3.86969e-07
4.36584e-09
3.83528e-07
1.55018e-08
9.84543e-07
3.14235e-08
1.42729e-06
5.02919e-08
1.73011e-06
7.0523e-08
1.9171e-06
9.08384e-08
2.01354e-06
1.10275e-07
2.04254e-06
1.28164e-07
2.02325e-06
1.4409e-07
1.97027e-06
1.57847e-07
1.89409e-06
1.69384e-07
1.80188e-06
1.78771e-07
1.69848e-06
1.86154e-07
1.5871e-06
1.91732e-07
1.46997e-06
1.95733e-07
1.34866e-06
1.98393e-07
1.22435e-06
1.99946e-07
1.09791e-06
2.00613e-07
9.70036e-07
2.00596e-07
8.41235e-07
2.00076e-07
7.1189e-07
1.99206e-07
5.82272e-07
1.98114e-07
4.52557e-07
1.96903e-07
3.22846e-07
1.95646e-07
1.93183e-07
1.94395e-07
6.35684e-08
1.93172e-07
-6.60186e-08
1.91977e-07
-1.95608e-07
1.90785e-07
-3.25222e-07
1.89549e-07
-4.54856e-07
1.88194e-07
-5.84464e-07
1.86627e-07
-7.13942e-07
1.84729e-07
-8.4311e-07
1.82361e-07
-9.71695e-07
1.79365e-07
-1.09931e-06
1.75567e-07
-1.22544e-06
1.70781e-07
-1.3494e-06
1.64819e-07
-1.47031e-06
1.57497e-07
-1.58701e-06
1.48647e-07
-1.69792e-06
1.3814e-07
-1.80085e-06
1.25899e-07
-1.89258e-06
1.11937e-07
-1.96834e-06
9.63857e-08
-2.02096e-06
7.95447e-08
-2.04001e-06
6.19296e-08
-2.01092e-06
4.4322e-08
-1.91456e-06
2.78057e-08
-1.72783e-06
1.37749e-08
-1.42546e-06
3.89602e-09
-9.83326e-07
-3.83073e-07
1.59439e-09
3.81934e-07
5.67887e-09
9.80459e-07
1.15493e-08
1.42142e-06
1.8545e-08
1.72311e-06
2.60845e-08
1.90956e-06
3.36857e-08
2.00594e-06
4.09732e-08
2.03525e-06
4.76769e-08
2.01654e-06
5.36213e-08
1.96433e-06
5.87111e-08