/*--------------------------------*- C++ -*----------------------------------*\
  =========                 |
  \\      /  F ield         | OpenFOAM: The Open Source CFD Toolbox
   \\    /   O peration     | Website:  https://openfoam.org
    \\  /    A nd           | Version:  7
     \\/     M anipulation  |
\*---------------------------------------------------------------------------*/
FoamFile
{
    version     2.0;
    format      ascii;
    class       volVectorField;
    location    "0.007";
    object      U;
}
// * * * * * * * * * * * * * * * * * * * * * * * * * * * * * * * * * * * * * //

dimensions      [0 1 -1 0 0 0 0];

internalField   nonuniform List<vector> 
2500
(
(-0.29403 0.153936 0)
(-0.398297 0.128794 0)
(-0.577812 0.0736251 0)
(-0.694969 0.0405098 0)
(-0.762311 0.0228823 0)
(-0.80462 0.0135257 0)
(-0.832916 0.00847323 0)
(-0.852548 0.00562874 0)
(-0.866639 0.00392825 0)
(-0.877045 0.00284722 0)
(-0.884901 0.00212321 0)
(-0.890934 0.00161822 0)
(-0.895633 0.00125488 0)
(-0.899336 0.000986808 0)
(-0.902283 0.00078461 0)
(-0.904646 0.000628777 0)
(-0.906547 0.000505961 0)
(-0.908079 0.000406832 0)
(-0.909305 0.000324773 0)
(-0.910276 0.000255034 0)
(-0.911025 0.000194157 0)
(-0.911578 0.000139578 0)
(-0.911953 8.93534e-05 0)
(-0.91216 4.19511e-05 0)
(-0.912209 -3.89512e-06 0)
(-0.912101 -4.9334e-05 0)
(-0.911835 -9.54287e-05 0)
(-0.911407 -0.000143303 0)
(-0.910808 -0.000194234 0)
(-0.910023 -0.000249766 0)
(-0.909033 -0.000311877 0)
(-0.90781 -0.000383188 0)
(-0.906315 -0.00046727 0)
(-0.904497 -0.000569061 0)
(-0.902285 -0.000695485 0)
(-0.899584 -0.000856363 0)
(-0.896262 -0.00106584 0)
(-0.892139 -0.00134474 0)
(-0.886965 -0.00172479 0)
(-0.880387 -0.00225646 0)
(-0.871897 -0.00302465 0)
(-0.86074 -0.00418073 0)
(-0.845747 -0.00600957 0)
(-0.825017 -0.00906799 0)
(-0.79543 -0.014447 0)
(-0.751732 -0.0241994 0)
(-0.683087 -0.0420503 0)
(-0.565766 -0.0747219 0)
(-0.389945 -0.128374 0)
(-0.290422 -0.152571 0)
(-0.00522591 0.303224 0)
(-0.0264447 0.306773 0)
(-0.168465 0.216037 0)
(-0.301705 0.143773 0)
(-0.405829 0.0955649 0)
(-0.48535 0.0646893 0)
(-0.545367 0.0450257 0)
(-0.590532 0.0322537 0)
(-0.624746 0.0236938 0)
(-0.650925 0.0177728 0)
(-0.671161 0.0135632 0)
(-0.686961 0.0105013 0)
(-0.699411 0.00823103 0)
(-0.709305 0.00651846 0)
(-0.717223 0.00520483 0)
(-0.723593 0.00417945 0)
(-0.728732 0.00336371 0)
(-0.732873 0.00270103 0)
(-0.736191 0.00215024 0)
(-0.738811 0.00168112 0)
(-0.74083 0.00127119 0)
(-0.742313 0.000903488 0)
(-0.743309 0.000564898 0)
(-0.743851 0.000244896 0)
(-0.743956 -6.53775e-05 0)
(-0.743633 -0.000373893 0)
(-0.742878 -0.000688345 0)
(-0.741676 -0.00101681 0)
(-0.740002 -0.00136843 0)
(-0.737815 -0.00175414 0)
(-0.735059 -0.0021877 0)
(-0.731656 -0.00268695 0)
(-0.727502 -0.00327554 0)
(-0.722457 -0.00398523 0)
(-0.716334 -0.00485912 0)
(-0.708884 -0.00595623 0)
(-0.699773 -0.00735815 0)
(-0.688557 -0.00917921 0)
(-0.674641 -0.0115827 0)
(-0.657222 -0.014808 0)
(-0.635217 -0.0192172 0)
(-0.607149 -0.025378 0)
(-0.571002 -0.0342104 0)
(-0.524037 -0.0472432 0)
(-0.462709 -0.0670069 0)
(-0.38296 -0.0974274 0)
(-0.280449 -0.143864 0)
(-0.15164 -0.212383 0)
(-0.0169685 -0.298716 0)
(-0.00122734 -0.295289 0)
(0.032335 0.263746 0)
(0.0583248 0.359502 0)
(0.00241448 0.319223 0)
(-0.0837944 0.252148 0)
(-0.172496 0.190354 0)
(-0.252325 0.141719 0)
(-0.319515 0.1057 0)
(-0.374201 0.0795005 0)
(-0.418051 0.0604283 0)
(-0.453024 0.0464321 0)
(-0.480905 0.0360519 0)
(-0.503185 0.0282671 0)
(-0.521056 0.0223622 0)
(-0.535453 0.0178299 0)
(-0.547095 0.0143061 0)
(-0.556538 0.0115262 0)
(-0.564201 0.00929634 0)
(-0.570404 0.00747343 0)
(-0.575388 0.00595127 0)
(-0.579335 0.00465053 0)
(-0.582378 0.00351136 0)
(-0.584617 0.00248798 0)
(-0.586119 0.00154452 0)
(-0.586934 0.000651956 0)
(-0.587087 -0.000214361 0)
(-0.586591 -0.0010767 0)
(-0.585438 -0.00195669 0)
(-0.583609 -0.00287699 0)
(-0.581064 -0.00386304 0)
(-0.577744 -0.00494512 0)
(-0.573568 -0.00616075 0)
(-0.568423 -0.00755788 0)
(-0.562161 -0.00919896 0)
(-0.554587 -0.0111662 0)
(-0.545447 -0.0135688 0)
(-0.534409 -0.0165524 0)
(-0.521044 -0.0203119 0)
(-0.504801 -0.0251107 0)
(-0.484976 -0.0313063 0)
(-0.460676 -0.03939 0)
(-0.430793 -0.0500446 0)
(-0.393982 -0.0642262 0)
(-0.348699 -0.0832727 0)
(-0.293355 -0.109016 0)
(-0.226797 -0.143778 0)
(-0.149469 -0.189813 0)
(-0.0655075 -0.247138 0)
(0.0138339 -0.308141 0)
(0.0621747 -0.343364 0)
(0.0329226 -0.250742 0)
(0.0276261 0.203619 0)
(0.0668379 0.351232 0)
(0.0638423 0.363906 0)
(0.0245851 0.32217 0)
(-0.0330214 0.265785 0)
(-0.0950463 0.212102 0)
(-0.153745 0.166862 0)
(-0.205758 0.130686 0)
(-0.250199 0.102428 0)
(-0.287398 0.080564 0)
(-0.318183 0.0636856 0)
(-0.343514 0.0506318 0)
(-0.364309 0.0404898 0)
(-0.381371 0.0325558 0)
(-0.395373 0.0262919 0)
(-0.406862 0.0212886 0)
(-0.416272 0.0172346 0)
(-0.423946 0.0138935 0)
(-0.430149 0.0110857 0)
(-0.435083 0.00867454 0)
(-0.438903 0.00655501 0)
(-0.441723 0.00464577 0)
(-0.443625 0.00288233 0)
(-0.444665 0.00121193 0)
(-0.444875 -0.000410567 0)
(-0.444269 -0.00202613 0)
(-0.44284 -0.00367456 0)
(-0.440564 -0.00539739 0)
(-0.437395 -0.00724092 0)
(-0.433265 -0.00925958 0)
(-0.42808 -0.01152 0)
(-0.421713 -0.0141059 0)
(-0.414001 -0.0171243 0)
(-0.404731 -0.0207136 0)
(-0.393635 -0.0250527 0)
(-0.380375 -0.030374 0)
(-0.364531 -0.0369786 0)
(-0.345592 -0.0452559 0)
(-0.322947 -0.0557075 0)
(-0.295897 -0.0689764 0)
(-0.263679 -0.0858775 0)
(-0.225559 -0.107419 0)
(-0.181008 -0.13478 0)
(-0.130063 -0.169167 0)
(-0.0739729 -0.211341 0)
(-0.0162911 -0.260358 0)
(0.0355244 -0.310609 0)
(0.0685388 -0.346114 0)
(0.0667432 -0.330696 0)
(0.0269395 -0.190509 0)
(0.0190739 0.160015 0)
(0.0569356 0.320101 0)
(0.0790459 0.367727 0)
(0.0727346 0.353606 0)
(0.0446253 0.312364 0)
(0.0050015 0.263678 0)
(-0.0384302 0.217081 0)
(-0.0809231 0.176325 0)
(-0.119961 0.142282 0)
(-0.154496 0.114548 0)
(-0.184343 0.0922587 0)
(-0.209766 0.0744602 0)
(-0.231225 0.0602717 0)
(-0.249233 0.0489372 0)
(-0.264284 0.0398327 0)
(-0.276819 0.0324552 0)
(-0.287211 0.0264057 0)
(-0.295771 0.0213707 0)
(-0.302746 0.0171053 0)
(-0.308333 0.0134187 0)
(-0.312686 0.010162 0)
(-0.31592 0.00721759 0)
(-0.318119 0.00449096 0)
(-0.319343 0.00190402 0)
(-0.319625 -0.000610649 0)
(-0.31898 -0.00311446 0)
(-0.317403 -0.00566707 0)
(-0.314869 -0.00833044 0)
(-0.311332 -0.011173 0)
(-0.306726 -0.014274 0)
(-0.300956 -0.0177292 0)
(-0.293901 -0.0216567 0)
(-0.285405 -0.0262046 0)
(-0.275275 -0.0315595 0)
(-0.263273 -0.0379571 0)
(-0.249114 -0.0456935 0)
(-0.232464 -0.055138 0)
(-0.21295 -0.0667451 0)
(-0.190176 -0.0810644 0)
(-0.163764 -0.0987423 0)
(-0.133436 -0.120505 0)
(-0.0991492 -0.147094 0)
(-0.0613279 -0.179116 0)
(-0.0212265 -0.216689 0)
(0.0185651 -0.258735 0)
(0.0535223 -0.301577 0)
(0.0766484 -0.336448 0)
(0.0788849 -0.345685 0)
(0.0549962 -0.298259 0)
(0.0181434 -0.148222 0)
(0.0126313 0.129097 0)
(0.0450038 0.283567 0)
(0.0767014 0.350279 0)
(0.0900009 0.358551 0)
(0.0841288 0.334339 0)
(0.0646989 0.295579 0)
(0.0375074 0.253011 0)
(0.00708236 0.21231 0)
(-0.023498 0.176024 0)
(-0.0523971 0.144939 0)
(-0.0786783 0.118937 0)
(-0.101987 0.0974928 0)
(-0.122313 0.0799375 0)
(-0.139831 0.0655994 0)
(-0.154795 0.0538655 0)
(-0.167484 0.0442063 0)
(-0.178161 0.0361792 0)
(-0.187063 0.0294224 0)
(-0.194393 0.0236445 0)
(-0.200318 0.0186125 0)
(-0.204972 0.0141404 0)
(-0.20846 0.0100785 0)
(-0.21086 0.00630509 0)
(-0.212226 0.00271786 0)
(-0.212594 -0.000772037 0)
(-0.211977 -0.00424599 0)
(-0.210372 -0.007783 0)
(-0.207757 -0.0114646 0)
(-0.204094 -0.0153798 0)
(-0.199321 -0.0196306 0)
(-0.19336 -0.0243377 0)
(-0.186107 -0.0296471 0)
(-0.177435 -0.0357382 0)
(-0.167192 -0.0428312 0)
(-0.155201 -0.051196 0)
(-0.141267 -0.0611599 0)
(-0.125183 -0.0731131 0)
(-0.106755 -0.0875085 0)
(-0.0858368 -0.104852 0)
(-0.0623872 -0.125672 0)
(-0.0365684 -0.150454 0)
(-0.00888552 -0.179513 0)
(0.0196132 -0.212751 0)
(0.0470833 -0.249231 0)
(0.07063 -0.28645 0)
(0.0861951 -0.319183 0)
(0.0887828 -0.337843 0)
(0.073758 -0.326602 0)
(0.0424694 -0.262429 0)
(0.0117957 -0.118863 0)
(0.00853815 0.106357 0)
(0.0352465 0.248518 0)
(0.0687943 0.323451 0)
(0.0921789 0.347301 0)
(0.100982 0.338127 0)
(0.0971381 0.31058 0)
(0.0841678 0.274883 0)
(0.0655872 0.237429 0)
(0.0442809 0.201804 0)
(0.0223211 0.169741 0)
(0.001048 0.141846 0)
(-0.0187589 0.118086 0)
(-0.0367116 0.0981048 0)
(-0.0526748 0.0814089 0)
(-0.0666649 0.0674762 0)
(-0.0787798 0.0558128 0)
(-0.0891543 0.045979 0)
(-0.0979319 0.0375985 0)
(-0.10525 0.030357 0)
(-0.111229 0.0239956 0)
(-0.115974 0.0183027 0)
(-0.119567 0.0131047 0)
(-0.122075 0.00825756 0)
(-0.123543 0.00363892 0)
(-0.124003 -0.000858706 0)
(-0.123467 -0.00533416 0)
(-0.121936 -0.00988336 0)
(-0.119393 -0.0146046 0)
(-0.115808 -0.0196042 0)
(-0.111136 -0.0250017 0)
(-0.105316 -0.0309363 0)
(-0.0982746 -0.037573 0)
(-0.0899243 -0.045109 0)
(-0.0801679 -0.0537803 0)
(-0.0689043 -0.0638665 0)
(-0.056039 -0.0756931 0)
(-0.0415019 -0.0896278 0)
(-0.0252753 -0.106068 0)
(-0.00743704 -0.125409 0)
(0.0117779 -0.147992 0)
(0.0318907 -0.174 0)
(0.0520677 -0.203297 0)
(0.0709911 -0.235159 0)
(0.086739 -0.267866 0)
(0.0967554 -0.298103 0)
(0.0980494 -0.320166 0)
(0.0877603 -0.325095 0)
(0.0645202 -0.300087 0)
(0.0326742 -0.229162 0)
(0.00785732 -0.0976612 0)
(0.00603404 0.0891388 0)
(0.0279414 0.217169 0)
(0.0598399 0.293625 0)
(0.0873366 0.327113 0)
(0.104771 0.329699 0)
(0.111741 0.312623 0)
(0.109855 0.284741 0)
(0.101433 0.252313 0)
(0.0887862 0.219358 0)
(0.0738435 0.188209 0)
(0.0580476 0.160036 0)
(0.0423934 0.135261 0)
(0.0275157 0.113856 0)
(0.0137827 0.0955521 0)
(0.00137904 0.0799688 0)
(-0.00962989 0.0666937 0)
(-0.019251 0.0553295 0)
(-0.0275309 0.0455163 0)
(-0.034534 0.0369407 0)
(-0.0403293 0.0293362 0)
(-0.0449824 0.0224787 0)
(-0.0485503 0.0161802 0)
(-0.0510802 0.0102819 0)
(-0.0526075 0.0046468 0)
(-0.0531564 -0.000846649 0)
(-0.0527394 -0.0063109 0)
(-0.0513584 -0.0118549 0)
(-0.0490043 -0.0175898 0)
(-0.0456582 -0.0236341 0)
(-0.041292 -0.030119 0)
(-0.0358698 -0.0371944 0)
(-0.0293502 -0.0450336 0)
(-0.0216897 -0.0538389 0)
(-0.0128492 -0.0638444 0)
(-0.00280299 -0.0753177 0)
(0.00844689 -0.088555 0)
(0.0208498 -0.10387 0)
(0.0342767 -0.121569 0)
(0.0484797 -0.141907 0)
(0.0630391 -0.165011 0)
(0.0772993 -0.190773 0)
(0.0903005 -0.218672 0)
(0.100722 -0.247528 0)
(0.106872 -0.275164 0)
(0.106801 -0.297981 0)
(0.0986409 -0.310502 0)
(0.0812117 -0.305038 0)
(0.0551071 -0.271798 0)
(0.0255418 -0.200055 0)
(0.00548709 -0.0818479 0)
(0.00445879 0.0757245 0)
(0.0224842 0.189916 0)
(0.0513499 0.264137 0)
(0.0794854 0.302831 0)
(0.101249 0.313894 0)
(0.114998 0.305639 0)
(0.120992 0.285322 0)
(0.120497 0.258592 0)
(0.115148 0.229455 0)
(0.106534 0.200518 0)
(0.0959959 0.173319 0)
(0.0845721 0.148631 0)
(0.0730152 0.126722 0)
(0.0618383 0.107548 0)
(0.05137 0.0908893 0)
(0.0418051 0.0764425 0)
(0.0332458 0.0638793 0)
(0.0257338 0.0528808 0)
(0.0192741 0.0431549 0)
(0.0138505 0.0344437 0)
(0.00943732 0.0265238 0)
(0.00600613 0.0192029 0)
(0.00353021 0.0123153 0)
(0.00198719 0.00571594 0)
(0.00136043 -0.000725671 0)
(0.00163961 -0.00713076 0)
(0.00282075 -0.0136168 0)
(0.00490577 -0.0203029 0)
(0.00790157 -0.0273142 0)
(0.0118185 -0.0347875 0)
(0.0166682 -0.0428753 0)
(0.0224595 -0.05175 0)
(0.0291938 -0.0616067 0)
(0.036857 -0.0726638 0)
(0.0454085 -0.0851599 0)
(0.0547662 -0.0993443 0)
(0.0647856 -0.115458 0)
(0.0752332 -0.133702 0)
(0.0857536 -0.154183 0)
(0.0958312 -0.176833 0)
(0.104753 -0.201298 0)
(0.111577 -0.226779 0)
(0.11514 -0.251821 0)
(0.11411 -0.274073 0)
(0.107173 -0.290014 0)
(0.0933831 -0.29475 0)
(0.0726845 -0.282003 0)
(0.0466522 -0.244503 0)
(0.0203302 -0.175147 0)
(0.00401646 -0.0696738 0)
(0.00341051 0.0650278 0)
(0.0183018 0.166536 0)
(0.0437368 0.236631 0)
(0.070606 0.277497 0)
(0.0938427 0.294262 0)
(0.11129 0.292956 0)
(0.122381 0.279328 0)
(0.127582 0.258226 0)
(0.127908 0.23337 0)
(0.124548 0.207395 0)
(0.118632 0.18202 0)
(0.111125 0.158254 0)
(0.102795 0.136597 0)
(0.0942188 0.117201 0)
(0.0858105 0.100003 0)
(0.0778528 0.0848183 0)
(0.0705302 0.0714005 0)
(0.063956 0.0594875 0)
(0.0581943 0.0488236 0)
(0.053277 0.0391726 0)
(0.0492154 0.0303228 0)
(0.0460089 0.0220873 0)
(0.0436513 0.0143011 0)
(0.0421338 0.00681703 0)
(0.0414478 -0.000498418 0)
(0.041586 -0.00777038 0)
(0.0425427 -0.0151201 0)
(0.0443136 -0.0226695 0)
(0.0468943 -0.0305455 0)
(0.050279 -0.0388842 0)
(0.0544567 -0.0478339 0)
(0.0594079 -0.0575579 0)
(0.0650976 -0.0682353 0)
(0.0714679 -0.0800587 0)
(0.0784263 -0.0932274 0)
(0.0858317 -0.107934 0)
(0.0934765 -0.124342 0)
(0.101065 -0.142546 0)
(0.108192 -0.16252 0)
(0.114316 -0.184034 0)
(0.11875 -0.206555 0)
(0.120659 -0.22911 0)
(0.119102 -0.250129 0)
(0.113125 -0.267282 0)
(0.101955 -0.277333 0)
(0.0853109 -0.276094 0)
(0.0637936 -0.258576 0)
(0.039343 -0.219455 0)
(0.0164136 -0.154027 0)
(0.00305057 -0.0600543 0)
(0.00266972 0.0563697 0)
(0.0150012 0.146637 0)
(0.0370467 0.211825 0)
(0.0616854 0.252913 0)
(0.0846006 0.273236 0)
(0.103553 0.277137 0)
(0.117537 0.269085 0)
(0.126477 0.253113 0)
(0.130896 0.232526 0)
(0.1316 0.209823 0)
(0.129473 0.186762 0)
(0.125342 0.164481 0)
(0.119922 0.143636 0)
(0.11379 0.124537 0)
(0.107393 0.107258 0)
(0.101063 0.0917237 0)
(0.0950372 0.0777764 0)
(0.0894805 0.0652165 0)
(0.0845029 0.0538335 0)
(0.080175 0.0434223 0)
(0.0765399 0.0337915 0)
(0.0736219 0.0247667 0)
(0.0714331 0.0161904 0)
(0.0699778 0.00791952 0)
(0.0692555 -0.000177711 0)
(0.0692621 -0.00822543 0)
(0.0699912 -0.0163441 0)
(0.071433 -0.0246541 0)
(0.0735741 -0.0332792 0)
(0.0763947 -0.0423496 0)
(0.0798655 -0.0520041 0)
(0.0839437 -0.0623911 0)
(0.0885665 -0.0736675 0)
(0.0936431 -0.0859941 0)
(0.0990452 -0.0995266 0)
(0.104594 -0.114399 0)
(0.110049 -0.130699 0)
(0.115086 -0.148429 0)
(0.119295 -0.167449 0)
(0.122159 -0.187413 0)
(0.123065 -0.207672 0)
(0.121324 -0.22717 0)
(0.116227 -0.244337 0)
(0.107152 -0.256981 0)
(0.0937378 -0.26224 0)
(0.0761327 -0.256621 0)
(0.0552643 -0.236211 0)
(0.0330928 -0.197118 0)
(0.0133762 -0.1362 0)
(0.00237658 -0.05232 0)
(0.0021193 0.0493055 0)
(0.012335 0.129802 0)
(0.0312222 0.189942 0)
(0.0532207 0.230077 0)
(0.0747602 0.252397 0)
(0.0937419 0.260034 0)
(0.108986 0.256437 0)
(0.12009 0.2449 0)
(0.127213 0.228275 0)
(0.130847 0.20884 0)
(0.131635 0.188295 0)
(0.130243 0.167817 0)
(0.127293 0.148157 0)
(0.12332 0.129735 0)
(0.118766 0.112733 0)
(0.113977 0.0971757 0)
(0.109218 0.0829835 0)
(0.104684 0.0700218 0)
(0.100517 0.0581289 0)
(0.0968152 0.0471353 0)
(0.0936473 0.0368756 0)
(0.0910573 0.0271938 0)
(0.0890731 0.0179448 0)
(0.0877104 0.00899435 0)
(0.0869757 0.000217049 0)
(0.0868688 -0.00850624 0)
(0.0873826 -0.0172912 0)
(0.0885042 -0.0262527 0)
(0.0902126 -0.0355075 0)
(0.0924777 -0.0451761 0)
(0.0952565 -0.0553838 0)
(0.0984892 -0.0662602 0)
(0.102093 -0.0779367 0)
(0.105958 -0.0905403 0)
(0.109932 -0.104183 0)
(0.113821 -0.118944 0)
(0.117369 -0.134843 0)
(0.120259 -0.151804 0)
(0.1221 -0.169607 0)
(0.122431 -0.187823 0)
(0.120735 -0.205744 0)
(0.116474 -0.222301 0)
(0.10915 -0.235992 0)
(0.0984035 -0.244827 0)
(0.084159 -0.246331 0)
(0.066815 -0.237627 0)
(0.0474132 -0.21566 0)
(0.0277638 -0.177563 0)
(0.0109592 -0.121203 0)
(0.00188157 -0.0460373 0)
(0.00169561 0.0435216 0)
(0.0101491 0.115635 0)
(0.0261856 0.170941 0)
(0.0454578 0.209476 0)
(0.0650641 0.232706 0)
(0.0831459 0.242912 0)
(0.0985097 0.242756 0)
(0.110581 0.234909 0)
(0.119279 0.221788 0)
(0.124854 0.205418 0)
(0.127738 0.18738 0)
(0.128442 0.168833 0)
(0.127477 0.150566 0)
(0.125314 0.133068 0)
(0.122362 0.116604 0)
(0.118956 0.101274 0)
(0.115367 0.0870706 0)
(0.111804 0.073918 0)
(0.108425 0.0617022 0)
(0.105348 0.0502915 0)
(0.102658 0.0395491 0)
(0.100413 0.0293405 0)
(0.0986544 0.0195369 0)
(0.0974063 0.0100164 0)
(0.0966818 0.000663456 0)
(0.0964835 -0.00863283 0)
(0.0968053 -0.0179801 0)
(0.0976316 -0.0274848 0)
(0.0989371 -0.0372536 0)
(0.100684 -0.0473946 0)
(0.102821 -0.058017 0)
(0.105277 -0.06923 0)
(0.107958 -0.0811385 0)
(0.110743 -0.0938363 0)
(0.113472 -0.107394 0)
(0.115948 -0.121843 0)
(0.117921 -0.137146 0)
(0.119094 -0.153169 0)
(0.119115 -0.169633 0)
(0.117593 -0.186064 0)
(0.114111 -0.201734 0)
(0.108269 -0.215607 0)
(0.0997417 -0.226288 0)
(0.0883625 -0.232009 0)
(0.0742413 -0.230656 0)
(0.0578975 -0.219869 0)
(0.0403626 -0.197252 0)
(0.0232276 -0.160665 0)
(0.00900183 -0.108627 0)
(0.00150428 -0.0409057 0)
(0.00136225 0.0387824 0)
(0.00834337 0.103774 0)
(0.0218583 0.15464 0)
(0.0385019 0.191278 0)
(0.0559413 0.214695 0)
(0.0725865 0.226583 0)
(0.0873197 0.229012 0)
(0.0995018 0.224144 0)
(0.108908 0.214016 0)
(0.115613 0.200394 0)
(0.119883 0.184718 0)
(0.122089 0.168088 0)
(0.122634 0.151291 0)
(0.121913 0.134855 0)
(0.120287 0.119095 0)
(0.118066 0.104173 0)
(0.115509 0.0901372 0)
(0.112824 0.0769645 0)
(0.110176 0.0645848 0)
(0.107691 0.0529026 0)
(0.105464 0.0418104 0)
(0.103563 0.0311967 0)
(0.102036 0.0209511 0)
(0.100916 0.0109665 0)
(0.100221 0.00113928 0)
(0.0999545 -0.00863042 0)
(0.100113 -0.0184401 0)
(0.100679 -0.0283854 0)
(0.101625 -0.0385612 0)
(0.10291 -0.0490614 0)
(0.104477 -0.0599782 0)
(0.10625 -0.0713997 0)
(0.108131 -0.0834053 0)
(0.109995 -0.096058 0)
(0.111687 -0.109392 0)
(0.113013 -0.123398 0)
(0.113745 -0.137996 0)
(0.113614 -0.153007 0)
(0.112318 -0.168116 0)
(0.109535 -0.182831 0)
(0.104942 -0.196434 0)
(0.0982566 -0.207946 0)
(0.0892845 -0.216099 0)
(0.077994 -0.219337 0)
(0.0646011 -0.215863 0)
(0.0496632 -0.203738 0)
(0.0341354 -0.181062 0)
(0.0193744 -0.146207 0)
(0.00739975 -0.0981126 0)
(0.00120968 -0.0367036 0)
(0.00109668 0.0349016 0)
(0.0068472 0.0938896 0)
(0.0181635 0.140791 0)
(0.0323738 0.175458 0)
(0.0476152 0.198607 0)
(0.0625582 0.211525 0)
(0.0762041 0.215846 0)
(0.087917 0.213329 0)
(0.097396 0.205687 0)
(0.104601 0.194452 0)
(0.109674 0.180913 0)
(0.112867 0.16609 0)
(0.114488 0.150747 0)
(0.114855 0.13542 0)
(0.114276 0.120455 0)
(0.113025 0.106055 0)
(0.111338 0.0923142 0)
(0.109416 0.0792516 0)
(0.107417 0.0668356 0)
(0.105469 0.0550042 0)
(0.103671 0.0436776 0)
(0.102096 0.0327675 0)
(0.100797 0.0221827 0)
(0.0998102 0.0118317 0)
(0.0991567 0.00162488 0)
(0.0988445 -0.00852562 0)
(0.0988694 -0.0187054 0)
(0.0992153 -0.0289983 0)
(0.0998536 -0.039486 0)
(0.100742 -0.0502478 0)
(0.101822 -0.0613586 0)
(0.103017 -0.0728863 0)
(0.104231 -0.0848866 0)
(0.105343 -0.0973951 0)
(0.106204 -0.110416 0)
(0.106639 -0.123906 0)
(0.106441 -0.137753 0)
(0.105378 -0.15175 0)
(0.103198 -0.165562 0)
(0.0996443 -0.178697 0)
(0.0944748 -0.190465 0)
(0.087499 -0.199958 0)
(0.0786203 -0.206034 0)
(0.0678924 -0.207331 0)
(0.0555826 -0.202318 0)
(0.0422354 -0.189391 0)
(0.0286993 -0.16702 0)
(0.0161085 -0.133937 0)
(0.00608027 -0.0893515 0)
(0.000976138 -0.0332597 0)
(0.000883524 0.0317286 0)
(0.00560618 0.0856907 0)
(0.0150247 0.129124 0)
(0.0270398 0.161879 0)
(0.0401712 0.184497 0)
(0.053325 0.197985 0)
(0.0656363 0.203654 0)
(0.0765116 0.202957 0)
(0.0856227 0.197337 0)
(0.0928597 0.188123 0)
(0.0982754 0.176459 0)
(0.102031 0.16328 0)
(0.104351 0.149308 0)
(0.105486 0.135071 0)
(0.105689 0.120929 0)
(0.105193 0.107113 0)
(0.104211 0.093748 0)
(0.102921 0.0808874 0)
(0.101476 0.068532 0)
(0.0999972 0.0566488 0)
(0.0985813 0.0451838 0)
(0.0973028 0.0340706 0)
(0.0962166 0.0232365 0)
(0.0953605 0.0126063 0)
(0.0947578 0.00210449 0)
(0.0944182 -0.00834376 0)
(0.0943388 -0.0188117 0)
(0.0945047 -0.0293705 0)
(0.0948879 -0.0400887 0)
(0.0954471 -0.0510308 0)
(0.0961258 -0.0622552 0)
(0.096851 -0.0738113 0)
(0.0975306 -0.0857335 0)
(0.0980522 -0.0980341 0)
(0.0982809 -0.110692 0)
(0.0980594 -0.123639 0)
(0.0972089 -0.13674 0)
(0.0955333 -0.14977 0)
(0.0928276 -0.162388 0)
(0.0888919 -0.174114 0)
(0.0835513 -0.184295 0)
(0.0766854 -0.192097 0)
(0.0682642 -0.196497 0)
(0.0583907 -0.196301 0)
(0.0473471 -0.190198 0)
(0.0356358 -0.176843 0)
(0.0239896 -0.154981 0)
(0.0133437 -0.123597 0)
(0.00498871 -0.0820765 0)
(0.000789037 -0.0304384 0)
(0.000711435 0.02914 0)
(0.00457539 0.0789221 0)
(0.012366 0.119368 0)
(0.0224329 0.150354 0)
(0.0336047 0.17231 0)
(0.044992 0.186051 0)
(0.055863 0.192658 0)
(0.0656868 0.193345 0)
(0.0741391 0.189342 0)
(0.0810736 0.181804 0)
(0.086484 0.171746 0)
(0.0904639 0.160019 0)
(0.0931708 0.147296 0)
(0.094796 0.134086 0)
(0.095541 0.120751 0)
(0.0956022 0.107535 0)
(0.0951603 0.094588 0)
(0.0943749 0.0819875 0)
(0.0933824 0.0697608 0)
(0.0922962 0.0578996 0)
(0.0912079 0.0463722 0)
(0.090189 0.0351323 0)
(0.0892935 0.0241249 0)
(0.0885596 0.0132903 0)
(0.088011 0.00256686 0)
(0.0876588 -0.00810718 0)
(0.0875013 -0.0187926 0)
(0.0875252 -0.0295483 0)
(0.0877046 -0.0404295 0)
(0.0880008 -0.051487 0)
(0.0883612 -0.062764 0)
(0.0887183 -0.0742929 0)
(0.088988 -0.0860899 0)
(0.089069 -0.098148 0)
(0.0888421 -0.110426 0)
(0.0881708 -0.122837 0)
(0.0869037 -0.135231 0)
(0.0848792 -0.147373 0)
(0.0819342 -0.158925 0)
(0.0779166 -0.169425 0)
(0.0727039 -0.178263 0)
(0.0662265 -0.184674 0)
(0.0584973 -0.187741 0)
(0.0496426 -0.186413 0)
(0.0399357 -0.179555 0)
(0.029823 -0.166023 0)
(0.019924 -0.144766 0)
(0.0110013 -0.114945 0)
(0.00408133 -0.0760609 0)
(0.000637749 -0.0281307 0)
(0.000571521 0.0270355 0)
(0.00371633 0.0733656 0)
(0.0101136 0.111276 0)
(0.0184673 0.140676 0)
(0.0278543 0.161928 0)
(0.0375592 0.175718 0)
(0.0469744 0.182958 0)
(0.0556396 0.184682 0)
(0.0632534 0.181953 0)
(0.0696566 0.175781 0)
(0.0748071 0.167072 0)
(0.0787504 0.156597 0)
(0.0815925 0.14498 0)
(0.0834751 0.132704 0)
(0.0845559 0.120126 0)
(0.0849947 0.107496 0)
(0.0849428 0.0949772 0)
(0.0845375 0.0826666 0)
(0.0838986 0.0706116 0)
(0.0831279 0.0588241 0)
(0.0823091 0.0472915 0)
(0.0815087 0.0359851 0)
(0.0807778 0.0248659 0)
(0.0801529 0.0138887 0)
(0.0796578 0.00300504 0)
(0.0793037 -0.00783446 0)
(0.0790904 -0.0186787 0)
(0.0790065 -0.0295745 0)
(0.0790289 -0.0405652 0)
(0.0791228 -0.0516885 0)
(0.079241 -0.0629741 0)
(0.0793231 -0.0744397 0)
(0.0792947 -0.0860861 0)
(0.0790673 -0.0978904 0)
(0.0785384 -0.109797 0)
(0.0775925 -0.121704 0)
(0.0761041 -0.133451 0)
(0.073943 -0.144803 0)
(0.0709817 -0.155429 0)
(0.0671072 -0.164887 0)
(0.0622361 -0.172608 0)
(0.0563343 -0.177893 0)
(0.0494388 -0.179913 0)
(0.041682 -0.177738 0)
(0.0333139 -0.170371 0)
(0.0247194 -0.156822 0)
(0.0164127 -0.13619 0)
(0.00900919 -0.107763 0)
(0.00332187 -0.0711146 0)
(0.000514127 -0.0262498 0)
(0.000456634 0.025334 0)
(0.00299567 0.0688381 0)
(0.00819783 0.104627 0)
(0.0150492 0.132642 0)
(0.0228269 0.15321 0)
(0.030962 0.166924 0)
(0.0389584 0.174576 0)
(0.0464274 0.177066 0)
(0.0531012 0.175326 0)
(0.0588236 0.170252 0)
(0.0635336 0.162655 0)
(0.067245 0.153237 0)
(0.0700251 0.142574 0)
(0.0719763 0.131125 0)
(0.0732193 0.119233 0)
(0.0738809 0.10715 0)
(0.074085 0.0950469 0)
(0.0739466 0.083033 0)
(0.0735684 0.0711713 0)
(0.0730388 0.0594899 0)
(0.0724321 0.047992 0)
(0.0718081 0.036664 0)
(0.0712133 0.0254808 0)
(0.0706818 0.0144103 0)
(0.0702361 0.00341595 0)
(0.0698873 -0.00754015 0)
(0.0696365 -0.0184959 0)
(0.0694742 -0.0294873 0)
(0.0693808 -0.0405466 0)
(0.0693261 -0.0517001 0)
(0.0692692 -0.0629654 0)
(0.0691579 -0.0743479 0)
(0.0689285 -0.0858357 0)
(0.0685058 -0.0973934 0)
(0.0678041 -0.108953 0)
(0.066728 -0.120405 0)
(0.065176 -0.131584 0)
(0.0630451 -0.142253 0)
(0.0602375 -0.152092 0)
(0.0566708 -0.160682 0)
(0.0522904 -0.167492 0)
(0.0470846 -0.171878 0)
(0.041102 -0.173088 0)
(0.0344685 -0.170286 0)
(0.0274032 -0.162586 0)
(0.0202291 -0.149114 0)
(0.0133653 -0.129081 0)
(0.00730244 -0.101862 0)
(0.00267983 -0.0670813 0)
(0.000411751 -0.0247263 0)
(0.000360971 0.0239713 0)
(0.00238469 0.0651893 0)
(0.00655489 0.099231 0)
(0.0120853 0.12607 0)
(0.0184159 0.146009 0)
(0.0251001 0.159581 0)
(0.0317408 0.167491 0)
(0.038018 0.170539 0)
(0.0437026 0.169557 0)
(0.0486515 0.16535 0)
(0.0527973 0.158653 0)
(0.0561339 0.150108 0)
(0.0587016 0.14025 0)
(0.0605719 0.129512 0)
(0.0618352 0.118223 0)
(0.0625898 0.106632 0)
(0.0629347 0.0949129 0)
(0.0629639 0.0831845 0)
(0.0627626 0.0715204 0)
(0.0624058 0.0599611 0)
(0.0619571 0.0485228 0)
(0.0614688 0.0372043 0)
(0.0609819 0.0259924 0)
(0.0605269 0.014866 0)
(0.0601242 0.00379952 0)
(0.0597849 -0.00723508 0)
(0.0595107 -0.0182659 0)
(0.0592944 -0.0293193 0)
(0.05912 -0.0404177 0)
(0.0589624 -0.0515777 0)
(0.0587876 -0.0628068 0)
(0.0585521 -0.0741 0)
(0.0582032 -0.0854353 0)
(0.0576793 -0.0967674 0)
(0.0569105 -0.10802 0)
(0.0558206 -0.119077 0)
(0.0543292 -0.12977 0)
(0.0523568 -0.139867 0)
(0.0498298 -0.149057 0)
(0.0466894 -0.156941 0)
(0.0429007 -0.163023 0)
(0.0384655 -0.166704 0)
(0.033434 -0.167296 0)
(0.0279184 -0.164037 0)
(0.0221029 -0.156126 0)
(0.0162506 -0.142778 0)
(0.0106959 -0.123284 0)
(0.00582331 -0.0970849 0)
(0.00212957 -0.0638347 0)
(0.000325505 -0.0235062 0)
(0.000279839 0.0228971 0)
(0.00185893 0.0622989 0)
(0.00512792 0.0949331 0)
(0.00948764 0.1208 0)
(0.0145118 0.14019 0)
(0.0198575 0.153595 0)
(0.0252142 0.161656 0)
(0.0303265 0.165104 0)
(0.0350054 0.164693 0)
(0.0391272 0.161158 0)
(0.0426266 0.155174 0)
(0.045487 0.147334 0)
(0.0477299 0.138138 0)
(0.049404 0.127993 0)
(0.0505747 0.117217 0)
(0.0513166 0.106052 0)
(0.0517064 0.0946741 0)
(0.0518185 0.0832063 0)
(0.0517217 0.0717303 0)
(0.0514774 0.060296 0)
(0.0511384 0.0489295 0)
(0.0507485 0.0376396 0)
(0.0503426 0.026423 0)
(0.0499472 0.015268 0)
(0.0495802 0.00415793 0)
(0.0492519 -0.0069267 0)
(0.0489647 -0.0180056 0)
(0.0487137 -0.029097 0)
(0.0484866 -0.0402151 0)
(0.0482637 -0.0513683 0)
(0.048018 -0.0625558 0)
(0.0477149 -0.0737643 0)
(0.0473129 -0.0849639 0)
(0.0467633 -0.0961018 0)
(0.0460116 -0.107096 0)
(0.0449988 -0.117825 0)
(0.0436637 -0.128121 0)
(0.0419463 -0.137755 0)
(0.0397929 -0.146426 0)
(0.0371619 -0.153754 0)
(0.0340322 -0.159269 0)
(0.0304112 -0.162411 0)
(0.026345 -0.162541 0)
(0.0219267 -0.158953 0)
(0.0173043 -0.150914 0)
(0.0126844 -0.137702 0)
(0.00832542 -0.11867 0)
(0.00452138 -0.0933023 0)
(0.00164956 -0.0612753 0)
(0.000251304 -0.0225478 0)
(0.000209455 0.0220731 0)
(0.00139777 0.0600728 0)
(0.00386725 0.091608 0)
(0.00717605 0.116701 0)
(0.0110103 0.135635 0)
(0.0151153 0.148875 0)
(0.0192573 0.15702 0)
(0.0232403 0.160747 0)
(0.0269158 0.160756 0)
(0.0301825 0.157729 0)
(0.032983 0.152293 0)
(0.0352969 0.145005 0)
(0.0371336 0.136335 0)
(0.0385246 0.126668 0)
(0.0395159 0.116312 0)
(0.0401615 0.105501 0)
(0.0405189 0.094412 0)
(0.0406447 0.08317 0)
(0.0405921 0.0718622 0)
(0.0404094 0.0605451 0)
(0.0401383 0.0492523 0)
(0.0398141 0.0380005 0)
(0.0394653 0.0267939 0)
(0.0391137 0.0156286 0)
(0.0387745 0.00449485 0)
(0.0384569 -0.00661963 0)
(0.0381639 -0.0177279 0)
(0.0378928 -0.0288414 0)
(0.0376349 -0.0399681 0)
(0.0373759 -0.0511095 0)
(0.0370961 -0.0622585 0)
(0.0367698 -0.0733955 0)
(0.0363663 -0.0844844 0)
(0.0358495 -0.095467 0)
(0.0351795 -0.106257 0)
(0.0343129 -0.11673 0)
(0.0332053 -0.126719 0)
(0.0318136 -0.135997 0)
(0.0300999 -0.144273 0)
(0.0280359 -0.151181 0)
(0.0256085 -0.156272 0)
(0.0228263 -0.159017 0)
(0.0197264 -0.158811 0)
(0.0163803 -0.154994 0)
(0.0128993 -0.14688 0)
(0.00943681 -0.133795 0)
(0.00618307 -0.115134 0)
(0.00335295 -0.0904141 0)
(0.00122179 -0.0593266 0)
(0.000185875 -0.0218195 0)
(0.000146774 0.0214706 0)
(0.000983922 0.0584397 0)
(0.00272994 0.0891593 0)
(0.00507923 0.113669 0)
(0.00781472 0.132247 0)
(0.0107589 0.145345 0)
(0.0137463 0.15353 0)
(0.016636 0.157445 0)
(0.0193189 0.15775 0)
(0.0217184 0.155091 0)
(0.0237881 0.15006 0)
(0.0255085 0.143184 0)
(0.0268819 0.134911 0)
(0.027927 0.125611 0)
(0.028674 0.115581 0)
(0.0291601 0.10505 0)
(0.0294255 0.0941917 0)
(0.0295108 0.0831337 0)
(0.0294546 0.0719662 0)
(0.0292923 0.0607504 0)
(0.0290551 0.0495252 0)
(0.0287696 0.038313 0)
(0.0284575 0.0271237 0)
(0.0281358 0.015959 0)
(0.0278168 0.00481478 0)
(0.0275083 -0.00631611 0)
(0.0272137 -0.0174415 0)
(0.0269323 -0.028568 0)
(0.0266593 -0.0396985 0)
(0.0263857 -0.0508298 0)
(0.0260988 -0.06195 0)
(0.0257819 -0.0730349 0)
(0.0254147 -0.0840441 0)
(0.0249736 -0.0949157 0)
(0.0244319 -0.10556 0)
(0.023761 -0.115852 0)
(0.0229316 -0.125623 0)
(0.0219153 -0.13465 0)
(0.0206869 -0.142649 0)
(0.019228 -0.149263 0)
(0.0175304 -0.154059 0)
(0.0156001 -0.156529 0)
(0.0134624 -0.156094 0)
(0.0111655 -0.152125 0)
(0.00878428 -0.143967 0)
(0.00642172 -0.130983 0)
(0.00420559 -0.112596 0)
(0.00228022 -0.0883449 0)
(0.000831106 -0.0579323 0)
(0.000126573 -0.0212988 0)
(8.93201e-05 0.0210694 0)
(0.000602769 0.057348 0)
(0.00167885 0.0875161 0)
(0.00313403 0.111625 0)
(0.00483743 0.129953 0)
(0.00668058 0.142942 0)
(0.00856052 0.151142 0)
(0.0103879 0.155174 0)
(0.0120917 0.155673 0)
(0.0136204 0.153259 0)
(0.0149414 0.148504 0)
(0.0160388 0.141912 0)
(0.0169108 0.133917 0)
(0.017567 0.124876 0)
(0.0180246 0.115079 0)
(0.0183061 0.10475 0)
(0.0184365 0.0940619 0)
(0.0184415 0.0831415 0)
(0.0183461 0.0720812 0)
(0.0181734 0.060945 0)
(0.0179442 0.0497754 0)
(0.0176764 0.0385984 0)
(0.0173849 0.027428 0)
(0.0170817 0.0162694 0)
(0.0167759 0.00512249 0)
(0.0164739 -0.00601647 0)
(0.0161794 -0.0171519 0)
(0.0158935 -0.028287 0)
(0.015615 -0.0394215 0)
(0.0153405 -0.0505492 0)
(0.0150641 -0.0616549 0)
(0.014778 -0.0727117 0)
(0.0144721 -0.0836764 0)
(0.0141346 -0.0944845 0)
(0.0137518 -0.105045 0)
(0.0133091 -0.115231 0)
(0.0127908 -0.124873 0)
(0.0121816 -0.133753 0)
(0.0114676 -0.141586 0)
(0.0106379 -0.148025 0)
(0.00968665 -0.152644 0)
(0.00861539 -0.154949 0)
(0.00743562 -0.154376 0)
(0.00617133 -0.150315 0)
(0.00486117 -0.142134 0)
(0.00355979 -0.129214 0)
(0.00233627 -0.110999 0)
(0.00126997 -0.0870424 0)
(0.000464508 -0.0570535 0)
(7.12149e-05 -0.0209699 0)
(3.50253e-05 0.0208561 0)
(0.000241727 0.0567635 0)
(0.000681336 0.0866302 0)
(0.00128392 0.110515 0)
(0.00199837 0.1287 0)
(0.00278022 0.141621 0)
(0.00358514 0.149822 0)
(0.00437271 0.153913 0)
(0.0051091 0.154518 0)
(0.00576818 0.152241 0)
(0.00633185 0.147642 0)
(0.00678968 0.141215 0)
(0.00713811 0.133383 0)
(0.00737918 0.124498 0)
(0.00751921 0.114842 0)
(0.00756751 0.104638 0)
(0.00753516 0.0940567 0)
(0.00743402 0.0832245 0)
(0.00727597 0.0722346 0)
(0.00707235 0.0611526 0)