/*--------------------------------*- C++ -*----------------------------------*\
  =========                 |
  \\      /  F ield         | OpenFOAM: The Open Source CFD Toolbox
   \\    /   O peration     | Website:  https://openfoam.org
    \\  /    A nd           | Version:  7
     \\/     M anipulation  |
\*---------------------------------------------------------------------------*/
FoamFile
{
    version     2.0;
    format      ascii;
    class       volScalarField;
    location    "0.0292";
    object      p;
}
// * * * * * * * * * * * * * * * * * * * * * * * * * * * * * * * * * * * * * //

dimensions      [0 2 -2 0 0 0 0];

internalField   nonuniform List<scalar> 
2500
(
-1.0736e-05
-6.51137
-9.29536
-10.4896
-11.1532
-11.5576
-11.8193
-12.0021
-12.138
-12.2433
-12.3274
-12.396
-12.4529
-12.5008
-12.5414
-12.5761
-12.6059
-12.6318
-12.6543
-12.6739
-12.6911
-12.7063
-12.7198
-12.7319
-12.7429
-12.753
-12.7625
-12.7716
-12.7807
-12.7899
-12.7997
-12.8105
-12.8225
-12.8364
-12.8527
-12.8722
-12.8959
-12.925
-12.9612
-13.0069
-13.0657
-13.1427
-13.2468
-13.3937
-13.6144
-13.9701
-14.568
-15.6674
-18.3339
-24.7188
-4.95614
-7.6755
-9.18137
-10.1403
-10.8068
-11.2653
-11.5854
-11.8171
-11.9909
-12.1251
-12.2313
-12.3172
-12.3877
-12.4466
-12.4963
-12.5386
-12.5749
-12.6063
-12.6337
-12.6577
-12.679
-12.6979
-12.7149
-12.7304
-12.7446
-12.758
-12.7709
-12.7835
-12.7962
-12.8094
-12.8234
-12.8388
-12.856
-12.8758
-12.899
-12.9265
-12.9597
-13.0004
-13.0509
-13.1145
-13.1963
-13.3033
-13.4467
-13.644
-13.9246
-14.3364
-14.9446
-15.8315
-17.2509
-19.8502
-7.9268
-8.75834
-9.55846
-10.2385
-10.7777
-11.1866
-11.4949
-11.7303
-11.9129
-12.0571
-12.1729
-12.2672
-12.3453
-12.4106
-12.4658
-12.513
-12.5536
-12.5889
-12.6197
-12.6469
-12.671
-12.6926
-12.7122
-12.7302
-12.7469
-12.7628
-12.7781
-12.7933
-12.8087
-12.8248
-12.8419
-12.8606
-12.8816
-12.9055
-12.9332
-12.966
-13.0052
-13.0528
-13.1113
-13.1842
-13.2763
-13.3943
-13.548
-13.7511
-14.023
-14.3901
-14.881
-15.5078
-16.2528
-17.0162
-9.43762
-9.64972
-10.0678
-10.5119
-10.9039
-11.2301
-11.4955
-11.7101
-11.8838
-12.0254
-12.1417
-12.2382
-12.3191
-12.3874
-12.4457
-12.4958
-12.5391
-12.5769
-12.6102
-12.6396
-12.6659
-12.6896
-12.7111
-12.7311
-12.7497
-12.7675
-12.7848
-12.802
-12.8195
-12.8377
-12.8572
-12.8784
-12.902
-12.9287
-12.9596
-12.9956
-13.0383
-13.0895
-13.1515
-13.2273
-13.321
-13.4379
-13.5845
-13.7696
-14.0026
-14.2933
-14.6473
-15.0521
-15.4336
-15.6113
-10.3245
-10.3222
-10.5249
-10.8008
-11.0746
-11.3239
-11.5416
-11.7276
-11.8847
-12.0171
-12.1289
-12.2235
-12.3041
-12.3731
-12.4326
-12.4842
-12.5291
-12.5686
-12.6035
-12.6346
-12.6625
-12.6878
-12.711
-12.7325
-12.7528
-12.7721
-12.7911
-12.8099
-12.8291
-12.8491
-12.8703
-12.8934
-12.9189
-12.9476
-12.9804
-13.0184
-13.0628
-13.1153
-13.1777
-13.2527
-13.343
-13.4523
-13.5846
-13.744
-13.9337
-14.1536
-14.3978
-14.6455
-14.8244
-14.8055
-10.8922
-10.8159
-10.9031
-11.0696
-11.2566
-11.4421
-11.6154
-11.7711
-11.9084
-12.028
-12.1317
-12.2215
-12.2994
-12.3671
-12.4262
-12.4779
-12.5235
-12.5638
-12.5997
-12.6318
-12.6608
-12.6873
-12.7116
-12.7343
-12.7557
-12.7763
-12.7965
-12.8166
-12.837
-12.8583
-12.8808
-12.9051
-12.9318
-12.9616
-12.9953
-13.0339
-13.0784
-13.1302
-13.1908
-13.2619
-13.3456
-13.4438
-13.5585
-13.6908
-13.8399
-14.0015
-14.1657
-14.3121
-14.3846
-14.3021
-11.2752
-11.1817
-11.2102
-11.308
-11.4335
-11.569
-11.7038
-11.8312
-11.948
-12.0533
-12.1471
-12.2302
-12.3036
-12.3685
-12.4258
-12.4766
-12.5218
-12.5621
-12.5982
-12.6308
-12.6604
-12.6875
-12.7126
-12.7361
-12.7584
-12.7798
-12.8008
-12.8217
-12.843
-12.865
-12.8882
-12.9132
-12.9404
-12.9705
-13.0042
-13.0423
-13.0856
-13.1352
-13.1922
-13.2577
-13.3328
-13.4185
-13.515
-13.6219
-13.7363
-13.8525
-13.9606
-14.0443
-14.0641
-13.9703
-11.5488
-11.4588
-11.458
-11.5133
-11.5963
-11.694
-11.7974
-11.8999
-11.9975
-12.0884
-12.1715
-12.2469
-12.3148
-12.3757
-12.4304
-12.4794
-12.5234
-12.563
-12.5988
-12.6313
-12.661
-12.6884
-12.7138
-12.7377
-12.7604
-12.7823
-12.8037
-12.8251
-12.8468
-12.8692
-12.8927
-12.9177
-12.9448
-12.9746
-13.0074
-13.0442
-13.0854
-13.1318
-13.1842
-13.2431
-13.309
-13.3821
-13.4618
-13.5465
-13.6329
-13.7152
-13.785
-13.8306
-13.8252
-13.7381
-11.7547
-11.6739
-11.6588
-11.6879
-11.7419
-11.8117
-11.8902
-11.9716
-12.0522
-12.1295
-12.2022
-12.2695
-12.3312
-12.3876
-12.4389
-12.4854
-12.5276
-12.566
-12.6009
-12.6329
-12.6623
-12.6895
-12.7149
-12.7388
-12.7616
-12.7836
-12.8052
-12.8267
-12.8484
-12.8708
-12.8941
-12.9188
-12.9453
-12.9741
-13.0057
-13.0404
-13.0789
-13.1216
-13.1688
-13.2209
-13.2779
-13.3393
-13.4042
-13.4705
-13.535
-13.5926
-13.6368
-13.6593
-13.6424
-13.5663
-11.9159
-11.8448
-11.8231
-11.8361
-11.8703
-11.9196
-11.9788
-12.043
-12.1089
-12.174
-12.2366
-12.296
-12.3515
-12.4029
-12.4504
-12.494
-12.5339
-12.5706
-12.6043
-12.6353
-12.664
-12.6907
-12.7157
-12.7394
-12.762
-12.7838
-12.8052
-12.8265
-12.8479
-12.8699
-12.8927
-12.9167
-12.9422
-12.9697
-12.9995
-13.0319
-13.0673
-13.106
-13.148
-13.1935
-13.2421
-13.2932
-13.3454
-13.397
-13.4447
-13.4846
-13.5118
-13.5207
-13.4991
-13.4338
-12.0457
-11.9834
-11.9591
-11.9621
-11.9829
-12.0174
-12.0616
-12.112
-12.1654
-12.2197
-12.2732
-12.325
-12.3743
-12.4207
-12.4641
-12.5045
-12.5419
-12.5765
-12.6086
-12.6383
-12.666
-12.6919
-12.7162
-12.7393
-12.7614
-12.7828
-12.8037
-12.8245
-12.8454
-12.8667
-12.8887
-12.9117
-12.936
-12.9619
-12.9896
-13.0195
-13.0517
-13.0863
-13.1234
-13.1627
-13.2039
-13.246
-13.2879
-13.3277
-13.3628
-13.3901
-13.406
-13.4068
-13.3841
-13.3282
-12.1526
-12.0978
-12.073
-12.0699
-12.0815
-12.1052
-12.1381
-12.1772
-12.2203
-12.2652
-12.3107
-12.3554
-12.3988
-12.4402
-12.4795
-12.5165
-12.5511
-12.5834
-12.6136
-12.6418
-12.6682
-12.6929
-12.7164
-12.7386
-12.76
-12.7806
-12.8008
-12.8209
-12.841
-12.8614
-12.8824
-12.9042
-12.927
-12.9511
-12.9767
-13.004
-13.033
-13.0638
-13.0962
-13.13
-13.1646
-13.1992
-13.2326
-13.2633
-13.2891
-13.3075
-13.316
-13.3122
-13.2898
-13.242
-12.242
-12.1937
-12.1694
-12.1627
-12.1681
-12.1839
-12.2081
-12.2384
-12.2728
-12.3098
-12.348
-12.3864
-12.4242
-12.4608
-12.496
-12.5295
-12.5612
-12.591
-12.6191
-12.6455
-12.6704
-12.6939
-12.7161
-12.7373
-12.7577
-12.7774
-12.7968
-12.8159
-12.835
-12.8543
-12.8741
-12.8945
-12.9158
-12.9381
-12.9615
-12.9862
-13.0121
-13.0393
-13.0675
-13.0964
-13.1254
-13.1538
-13.1804
-13.204
-13.2229
-13.235
-13.2387
-13.2323
-13.2113
-13.1701
-12.3178
-12.275
-12.252
-12.2432
-12.2444
-12.2545
-12.272
-12.2952
-12.3226
-12.3528
-12.3847
-12.4173
-12.45
-12.4821
-12.5133
-12.5433
-12.572
-12.5993
-12.6251
-12.6496
-12.6727
-12.6947
-12.7156
-12.7356
-12.7548
-12.7734
-12.7917
-12.8097
-12.8277
-12.8458
-12.8643
-12.8832
-12.9028
-12.9232
-12.9445
-12.9667
-12.9897
-13.0136
-13.038
-13.0627
-13.087
-13.1102
-13.1315
-13.1497
-13.1634
-13.1712
-13.1718
-13.1642
-13.1449
-13.1093
-12.3826
-12.3448
-12.3232
-12.3134
-12.3119
-12.3178
-12.3302
-12.3479
-12.3695
-12.394
-12.4204
-12.4479
-12.4758
-12.5037
-12.5311
-12.5577
-12.5833
-12.608
-12.6315
-12.6539
-12.6752
-12.6955
-12.7149
-12.7335
-12.7514
-12.7688
-12.7858
-12.8026
-12.8193
-12.8361
-12.8532
-12.8706
-12.8885
-12.907
-12.9262
-12.946
-12.9664
-12.9873
-13.0084
-13.0293
-13.0497
-13.0688
-13.0858
-13.0998
-13.1098
-13.1146
-13.1133
-13.1053
-13.0879
-13.0572
-12.4387
-12.4052
-12.3854
-12.3752
-12.3719
-12.3748
-12.3834
-12.3966
-12.4135
-12.4332
-12.4549
-12.4778
-12.5015
-12.5254
-12.5491
-12.5724
-12.5952
-12.6171
-12.6382
-12.6584
-12.6778
-12.6963
-12.7141
-12.7312
-12.7477
-12.7637
-12.7794
-12.7948
-12.8102
-12.8256
-12.8412
-12.857
-12.8733
-12.8899
-12.907
-12.9246
-12.9426
-12.9608
-12.9789
-12.9968
-13.0138
-13.0295
-13.0432
-13.054
-13.0613
-13.064
-13.0617
-13.0539
-13.0384
-13.012
-12.4875
-12.458
-12.4399
-12.4299
-12.4255
-12.4264
-12.4321
-12.4418
-12.4549
-12.4705
-12.4881
-12.507
-12.5268
-12.547
-12.5673
-12.5875
-12.6073
-12.6266
-12.6453
-12.6634
-12.6807
-12.6974
-12.7134
-12.7289
-12.7438
-12.7584
-12.7726
-12.7867
-12.8006
-12.8145
-12.8286
-12.8428
-12.8574
-12.8722
-12.8874
-12.9029
-12.9186
-12.9344
-12.95
-12.9651
-12.9794
-12.9923
-13.0033
-13.0118
-13.0171
-13.0186
-13.0158
-13.0085
-12.9948
-12.9724
-12.5304
-12.5046
-12.4883
-12.4788
-12.4738
-12.4733
-12.4768
-12.4838
-12.4937
-12.5059
-12.52
-12.5353
-12.5517
-12.5685
-12.5857
-12.6029
-12.6199
-12.6366
-12.6529
-12.6687
-12.684
-12.6987
-12.7129
-12.7267
-12.7401
-12.753
-12.7658
-12.7783
-12.7907
-12.8032
-12.8157
-12.8283
-12.8412
-12.8542
-12.8676
-12.8811
-12.8947
-12.9083
-12.9217
-12.9345
-12.9465
-12.9571
-12.9661
-12.9727
-12.9766
-12.9773
-12.9744
-12.9678
-12.9561
-12.9372
-12.5684
-12.546
-12.5316
-12.5228
-12.5177
-12.5162
-12.5181
-12.5229
-12.5303
-12.5396
-12.5506
-12.5629
-12.5761
-12.5899
-12.6041
-12.6185
-12.6328
-12.647
-12.6609
-12.6744
-12.6876
-12.7004
-12.7128
-12.7248
-12.7365
-12.7479
-12.759
-12.77
-12.7809
-12.7917
-12.8026
-12.8137
-12.8248
-12.8362
-12.8477
-12.8594
-12.8711
-12.8827
-12.8941
-12.9049
-12.9149
-12.9237
-12.931
-12.9363
-12.9392
-12.9395
-12.9368
-12.9311
-12.9213
-12.9057
-12.6024
-12.5832
-12.5707
-12.5627
-12.5577
-12.5557
-12.5565
-12.5596
-12.5648
-12.5718
-12.5802
-12.5897
-12.6001
-12.6111
-12.6226
-12.6343
-12.646
-12.6578
-12.6693
-12.6807
-12.6918
-12.7026
-12.7131
-12.7233
-12.7333
-12.743
-12.7525
-12.7618
-12.7711
-12.7804
-12.7897
-12.7991
-12.8086
-12.8183
-12.828
-12.8379
-12.8478
-12.8576
-12.8671
-12.8762
-12.8845
-12.8918
-12.8977
-12.902
-12.9043
-12.9044
-12.9021
-12.8975
-12.8895
-12.877
-12.633
-12.617
-12.6063
-12.5993
-12.5947
-12.5924
-12.5923
-12.5942
-12.5977
-12.6026
-12.6087
-12.6159
-12.6237
-12.6322
-12.6411
-12.6503
-12.6596
-12.669
-12.6783
-12.6875
-12.6966
-12.7054
-12.714
-12.7224
-12.7306
-12.7386
-12.7464
-12.7541
-12.7617
-12.7694
-12.777
-12.7848
-12.7926
-12.8006
-12.8086
-12.8168
-12.825
-12.833
-12.8409
-12.8483
-12.8551
-12.8611
-12.8659
-12.8694
-12.8714
-12.8715
-12.8698
-12.8662
-12.8602
-12.8506
-12.661
-12.6479
-12.6392
-12.6333
-12.6292
-12.6268
-12.6262
-12.627
-12.6291
-12.6323
-12.6365
-12.6414
-12.647
-12.6532
-12.6597
-12.6666
-12.6736
-12.6807
-12.6879
-12.695
-12.702
-12.7088
-12.7155
-12.7221
-12.7285
-12.7347
-12.7408
-12.7468
-12.7528
-12.7588
-12.7647
-12.7708
-12.7769
-12.7832
-12.7896
-12.796
-12.8025
-12.8089
-12.8152
-12.8211
-12.8266
-12.8314
-12.8354
-12.8383
-12.8399
-12.8403
-12.8392
-12.8368
-12.8326
-12.8259
-12.6869
-12.6768
-12.6699
-12.6651
-12.6616
-12.6594
-12.6584
-12.6584
-12.6593
-12.6611
-12.6635
-12.6666
-12.6701
-12.6741
-12.6785
-12.6831
-12.688
-12.6929
-12.698
-12.703
-12.708
-12.7129
-12.7178
-12.7225
-12.727
-12.7315
-12.7359
-12.7402
-12.7444
-12.7487
-12.7529
-12.7573
-12.7617
-12.7662
-12.7709
-12.7756
-12.7804
-12.7853
-12.79
-12.7945
-12.7987
-12.8025
-12.8056
-12.808
-12.8096
-12.8102
-12.8099
-12.8087
-12.8063
-12.8024
-12.7113
-12.704
-12.6989
-12.6953
-12.6926
-12.6906
-12.6893
-12.6887
-12.6887
-12.6891
-12.69
-12.6913
-12.693
-12.6951
-12.6974
-12.7
-12.7027
-12.7056
-12.7086
-12.7117
-12.7147
-12.7178
-12.7207
-12.7236
-12.7264
-12.7291
-12.7317
-12.7342
-12.7367
-12.7392
-12.7417
-12.7443
-12.7469
-12.7497
-12.7526
-12.7556
-12.7587
-12.7619
-12.7651
-12.7683
-12.7713
-12.774
-12.7764
-12.7784
-12.7799
-12.7808
-12.7813
-12.7813
-12.7807
-12.7797
-12.7345
-12.73
-12.7269
-12.7245
-12.7224
-12.7208
-12.7194
-12.7183
-12.7174
-12.7167
-12.7162
-12.7159
-12.7159
-12.7161
-12.7165
-12.7171
-12.7179
-12.7189
-12.7199
-12.721
-12.7222
-12.7233
-12.7244
-12.7255
-12.7265
-12.7274
-12.7282
-12.7289
-12.7296
-12.7303
-12.731
-12.7318
-12.7326
-12.7336
-12.7347
-12.7359
-12.7373
-12.7388
-12.7405
-12.7422
-12.744
-12.7457
-12.7474
-12.749
-12.7504
-12.7517
-12.753
-12.7542
-12.7555
-12.7572
-12.7572
-12.7555
-12.7542
-12.753
-12.7517
-12.7504
-12.749
-12.7474
-12.7457
-12.744
-12.7422
-12.7405
-12.7388
-12.7373
-12.7359
-12.7347
-12.7336
-12.7326
-12.7318
-12.731
-12.7303
-12.7296
-12.7289
-12.7282
-12.7274
-12.7265
-12.7255
-12.7244
-12.7233
-12.7222
-12.721
-12.7199
-12.7189
-12.7179
-12.7171
-12.7165
-12.7161
-12.7159
-12.716
-12.7162
-12.7167
-12.7174
-12.7183
-12.7194
-12.7208
-12.7225
-12.7245
-12.7269
-12.7301
-12.7345
-12.7797
-12.7807
-12.7813
-12.7813
-12.7808
-12.7799
-12.7784
-12.7764
-12.774
-12.7713
-12.7683
-12.7651
-12.7619
-12.7587
-12.7556
-12.7526
-12.7497
-12.7469
-12.7443
-12.7417
-12.7392
-12.7367
-12.7342
-12.7317
-12.7291
-12.7264
-12.7236
-12.7207
-12.7178
-12.7147
-12.7117
-12.7086
-12.7056
-12.7027
-12.7
-12.6974
-12.6951
-12.693
-12.6914
-12.69
-12.6891
-12.6887
-12.6887
-12.6893
-12.6906
-12.6926
-12.6953
-12.6989
-12.704
-12.7113
-12.8024
-12.8063
-12.8087
-12.8099
-12.8102
-12.8096
-12.808
-12.8056
-12.8025
-12.7987
-12.7945
-12.79
-12.7852
-12.7804
-12.7756
-12.7709
-12.7662
-12.7617
-12.7573
-12.7529
-12.7487
-12.7444
-12.7402
-12.7359
-12.7315
-12.727
-12.7225
-12.7178
-12.7129
-12.708
-12.703
-12.698
-12.6929
-12.688
-12.6831
-12.6785
-12.6741
-12.6701
-12.6666
-12.6635
-12.6611
-12.6593
-12.6584
-12.6584
-12.6594
-12.6616
-12.6651
-12.6699
-12.6768
-12.6869
-12.8259
-12.8326
-12.8368
-12.8392
-12.8403
-12.8399
-12.8383
-12.8354
-12.8314
-12.8266
-12.8211
-12.8152
-12.8089
-12.8025
-12.796
-12.7896
-12.7832
-12.7769
-12.7708
-12.7647
-12.7588
-12.7528
-12.7468
-12.7408
-12.7347
-12.7285
-12.7221
-12.7155
-12.7088
-12.702
-12.695
-12.6879
-12.6807
-12.6736
-12.6666
-12.6597
-12.6532
-12.6471
-12.6414
-12.6365
-12.6323
-12.6291
-12.627
-12.6262
-12.6268
-12.6292
-12.6333
-12.6392
-12.648
-12.661
-12.8506
-12.8602
-12.8662
-12.8698
-12.8715
-12.8714
-12.8694
-12.8659
-12.8611
-12.8551
-12.8483
-12.8409
-12.833
-12.825
-12.8168
-12.8086
-12.8006
-12.7926
-12.7848
-12.777
-12.7694
-12.7617
-12.7541
-12.7464
-12.7386
-12.7306
-12.7224
-12.714
-12.7054
-12.6966
-12.6875
-12.6783
-12.669
-12.6596
-12.6503
-12.6411
-12.6322
-12.6237
-12.6159
-12.6088
-12.6026
-12.5977
-12.5942
-12.5924
-12.5924
-12.5947
-12.5993
-12.6063
-12.617
-12.633
-12.877
-12.8895
-12.8975
-12.9021
-12.9044
-12.9043
-12.902
-12.8977
-12.8918
-12.8845
-12.8762
-12.8671
-12.8576
-12.8478
-12.8379
-12.828
-12.8183
-12.8086
-12.7991
-12.7897
-12.7804
-12.7711
-12.7618
-12.7525
-12.743
-12.7333
-12.7234
-12.7131
-12.7026
-12.6918
-12.6807
-12.6693
-12.6578
-12.646
-12.6343
-12.6226
-12.6111
-12.6001
-12.5897
-12.5802
-12.5718
-12.5648
-12.5596
-12.5565
-12.5557
-12.5578
-12.5627
-12.5707
-12.5832
-12.6024
-12.9057
-12.9213
-12.9311
-12.9368
-12.9395
-12.9392
-12.9363
-12.9309
-12.9237
-12.9149
-12.9049
-12.8941
-12.8827
-12.8711
-12.8594
-12.8477
-12.8362
-12.8248
-12.8137
-12.8026
-12.7917
-12.7809
-12.77
-12.759
-12.7479
-12.7365
-12.7248
-12.7128
-12.7004
-12.6876
-12.6744
-12.6609
-12.647
-12.6328
-12.6185
-12.6041
-12.5899
-12.5761
-12.5629
-12.5506
-12.5396
-12.5303
-12.523
-12.5181
-12.5162
-12.5177
-12.5228
-12.5316
-12.546
-12.5684
-12.9372
-12.9561
-12.9678
-12.9744
-12.9773
-12.9766
-12.9727
-12.9661
-12.9571
-12.9465
-12.9345
-12.9217
-12.9083
-12.8947
-12.8811
-12.8676
-12.8542
-12.8412
-12.8283
-12.8157
-12.8032
-12.7907
-12.7783
-12.7658
-12.753
-12.7401
-12.7267
-12.7129
-12.6987
-12.684
-12.6687
-12.6529
-12.6366
-12.6199
-12.6029
-12.5857
-12.5685
-12.5517
-12.5353
-12.52
-12.5059
-12.4937
-12.4838
-12.4768
-12.4733
-12.4739
-12.4788
-12.4884
-12.5046
-12.5304
-12.9724
-12.9948
-13.0085
-13.0158
-13.0186
-13.0171
-13.0118
-13.0033
-12.9923
-12.9794
-12.9651
-12.95
-12.9344
-12.9186
-12.9029
-12.8874
-12.8722
-12.8574
-12.8429
-12.8286
-12.8145
-12.8006
-12.7867
-12.7726
-12.7584
-12.7438
-12.7289
-12.7134
-12.6974
-12.6807
-12.6634
-12.6453
-12.6267
-12.6074
-12.5875
-12.5674
-12.547
-12.5268
-12.507
-12.4881
-12.4705
-12.4549
-12.4419
-12.4321
-12.4264
-12.4255
-12.4299
-12.44
-12.458
-12.4875
-13.012
-13.0384
-13.0539
-13.0617
-13.064
-13.0613
-13.054
-13.0432
-13.0295
-13.0138
-12.9968
-12.9789
-12.9608
-12.9426
-12.9246
-12.907
-12.8899
-12.8733
-12.857
-12.8412
-12.8256
-12.8102
-12.7948
-12.7794
-12.7637
-12.7477
-12.7312
-12.7141
-12.6963
-12.6778
-12.6584
-12.6382
-12.6171
-12.5952
-12.5725
-12.5491
-12.5254
-12.5015
-12.4778
-12.4549
-12.4332
-12.4136
-12.3967
-12.3834
-12.3748
-12.3719
-12.3752
-12.3854
-12.4052
-12.4387
-13.0572
-13.0879
-13.1053
-13.1133
-13.1146
-13.1098
-13.0998
-13.0858
-13.0688
-13.0497
-13.0293
-13.0084
-12.9873
-12.9664
-12.946
-12.9262
-12.907
-12.8885
-12.8706
-12.8532
-12.8361
-12.8193
-12.8026
-12.7858
-12.7688
-12.7514
-12.7335
-12.7149
-12.6955
-12.6752
-12.6539
-12.6315
-12.608
-12.5834
-12.5577
-12.5311
-12.5037
-12.4758
-12.4479
-12.4204
-12.394
-12.3695
-12.3479
-12.3303
-12.3178
-12.3119
-12.3135
-12.3233
-12.3448
-12.3826
-13.1093
-13.1449
-13.1642
-13.1718
-13.1712
-13.1634
-13.1497
-13.1315
-13.1102
-13.087
-13.0627
-13.038
-13.0136
-12.9897
-12.9667
-12.9445
-12.9232
-12.9028
-12.8832
-12.8643
-12.8458
-12.8277
-12.8097
-12.7917
-12.7734
-12.7548
-12.7356
-12.7156
-12.6947
-12.6727
-12.6496
-12.6251
-12.5993
-12.572
-12.5433
-12.5133
-12.4821
-12.45
-12.4174
-12.3847
-12.3528
-12.3226
-12.2952
-12.272
-12.2545
-12.2444
-12.2432
-12.252
-12.275
-12.3178
-13.1701
-13.2113
-13.2323
-13.2387
-13.235
-13.2229
-13.204
-13.1804
-13.1538
-13.1254
-13.0964
-13.0675
-13.0393
-13.0121
-12.9862
-12.9615
-12.9381
-12.9158
-12.8945
-12.8741
-12.8543
-12.835
-12.8159
-12.7968
-12.7775
-12.7577
-12.7373
-12.7161
-12.6939
-12.6704
-12.6455
-12.6191
-12.591
-12.5612
-12.5295
-12.496
-12.4609
-12.4242
-12.3864
-12.348
-12.3098
-12.2728
-12.2384
-12.2081
-12.1839
-12.1682
-12.1628
-12.1695
-12.1937
-12.242
-13.242
-13.2898
-13.3122
-13.316
-13.3075
-13.2891
-13.2633
-13.2327
-13.1992
-13.1646
-13.13
-13.0962
-13.0638
-13.033
-13.004
-12.9767
-12.9511
-12.927
-12.9042
-12.8824
-12.8614
-12.841
-12.8209
-12.8009
-12.7806
-12.76
-12.7386
-12.7164
-12.693
-12.6682
-12.6418
-12.6136
-12.5834
-12.5511
-12.5165
-12.4795
-12.4403
-12.3988
-12.3554
-12.3107
-12.2653
-12.2203
-12.1773
-12.1381
-12.1052
-12.0816
-12.0699
-12.073
-12.0978
-12.1526
-13.3282
-13.3841
-13.4068
-13.406
-13.3901
-13.3628
-13.3277
-13.2879
-13.246
-13.2039
-13.1627
-13.1234
-13.0863
-13.0517
-13.0195
-12.9896
-12.9619
-12.936
-12.9117
-12.8887
-12.8667
-12.8454
-12.8245
-12.8037
-12.7828
-12.7614
-12.7393
-12.7162
-12.6919
-12.666
-12.6384
-12.6086
-12.5765
-12.5419
-12.5045
-12.4641
-12.4208
-12.3743
-12.325
-12.2733
-12.2197
-12.1654
-12.112
-12.0616
-12.0174
-11.9829
-11.9621
-11.9591
-11.9834
-12.0457
-13.4338
-13.4991
-13.5207
-13.5118
-13.4846
-13.4447
-13.397
-13.3455
-13.2932
-13.2421
-13.1935
-13.148
-13.106
-13.0673
-13.0319
-12.9995
-12.9697
-12.9422
-12.9167
-12.8927
-12.8699
-12.8479
-12.8265
-12.8052
-12.7838
-12.762
-12.7394
-12.7157
-12.6907
-12.664
-12.6353
-12.6043
-12.5706
-12.534
-12.494
-12.4504
-12.4029
-12.3515
-12.296
-12.2367
-12.174
-12.1089
-12.0431
-11.9788
-11.9196
-11.8703
-11.8361
-11.8231
-11.8448
-11.9159
-13.5663
-13.6424
-13.6593
-13.6368
-13.5926
-13.535
-13.4705
-13.4042
-13.3393
-13.2779
-13.2209
-13.1688
-13.1216
-13.0789
-13.0404
-13.0057
-12.9741
-12.9453
-12.9188
-12.8941
-12.8708
-12.8484
-12.8267
-12.8052
-12.7836
-12.7616
-12.7388
-12.7149
-12.6895
-12.6623
-12.6329
-12.6009
-12.566
-12.5276
-12.4854
-12.4389
-12.3876
-12.3312
-12.2695
-12.2022
-12.1296
-12.0523
-11.9717
-11.8902
-11.8117
-11.7419
-11.6879
-11.6589
-11.6739
-11.7547
-13.7381
-13.8252
-13.8306
-13.7851
-13.7152
-13.6329
-13.5465
-13.4618
-13.3821
-13.3091
-13.2431
-13.1842
-13.1318
-13.0854
-13.0442
-13.0074
-12.9746
-12.9448
-12.9177
-12.8927
-12.8692
-12.8468
-12.8251
-12.8037
-12.7823
-12.7604
-12.7377
-12.7138
-12.6884
-12.661
-12.6313
-12.5988
-12.563
-12.5234
-12.4794
-12.4304
-12.3757
-12.3148
-12.2469
-12.1715
-12.0884
-11.9976
-11.8999
-11.7974
-11.6941
-11.5963
-11.5134
-11.4581
-11.4588
-11.5488
-13.9703
-14.0641
-14.0443
-13.9606
-13.8525
-13.7363
-13.6219
-13.515
-13.4185
-13.3328
-13.2577
-13.1922
-13.1352
-13.0856
-13.0423
-13.0042
-12.9705
-12.9404
-12.9132
-12.8882
-12.865
-12.843
-12.8217
-12.8008
-12.7798
-12.7584
-12.7361
-12.7126
-12.6875
-12.6604
-12.6308
-12.5982
-12.5621
-12.5218
-12.4766
-12.4258
-12.3685
-12.3036
-12.2302
-12.1471
-12.0533
-11.9481
-11.8312
-11.7039
-11.5691
-11.4335
-11.308
-11.2102
-11.1817
-11.2752
-14.3021
-14.3846
-14.3121
-14.1657
-14.0015
-13.8399
-13.6908
-13.5585
-13.4438
-13.3456
-13.2619
-13.1908
-13.1302
-13.0784
-13.0339
-12.9953
-12.9616
-12.9318
-12.9051
-12.8808
-12.8583
-12.837
-12.8166
-12.7965
-12.7763
-12.7557
-12.7343
-12.7116
-12.6873
-12.6608
-12.6318
-12.5997
-12.5638
-12.5235
-12.478
-12.4262
-12.3672
-12.2994
-12.2215
-12.1317
-12.028
-11.9084
-11.7712
-11.6154
-11.4421
-11.2566
-11.0696
-10.9032
-10.8159
-10.8923
-14.8055
-14.8244
-14.6455
-14.3978
-14.1536
-13.9337
-13.744
-13.5846
-13.4523
-13.343
-13.2527
-13.1777
-13.1153
-13.0628
-13.0184
-12.9804
-12.9476
-12.9189
-12.8934
-12.8703
-12.8491
-12.8291
-12.8099
-12.7911
-12.7721
-12.7528
-12.7325
-12.711
-12.6878
-12.6626
-12.6346
-12.6035
-12.5686
-12.5291
-12.4842
-12.4326
-12.3731
-12.3041
-12.2235
-12.1289
-12.0171
-11.8847
-11.7276
-11.5417
-11.3239
-11.0747
-10.8008
-10.5249
-10.3223
-10.3245
-15.6113
-15.4336
-15.0521
-14.6473
-14.2933
-14.0026
-13.7696
-13.5846
-13.4379
-13.321
-13.2273
-13.1515
-13.0895
-13.0383
-12.9956
-12.9596
-12.9287
-12.902
-12.8784
-12.8572
-12.8377
-12.8195
-12.802
-12.7848
-12.7675
-12.7497
-12.7311
-12.7111
-12.6896
-12.6659
-12.6396
-12.6102
-12.577
-12.5391
-12.4958
-12.4457
-12.3875
-12.3191
-12.2383
-12.1417
-12.0254
-11.8839
-11.7101
-11.4955
-11.2301
-10.904
-10.5119
-10.0678
-9.64977
-9.43767
-17.0162
-16.2528
-15.5078
-14.881
-14.3901
-14.023
-13.7511
-13.548
-13.3943
-13.2763
-13.1842
-13.1113
-13.0528
-13.0052
-12.966
-12.9332
-12.9055
-12.8816
-12.8606
-12.8419
-12.8248
-12.8087
-12.7933
-12.7781
-12.7628
-12.7469
-12.7302
-12.7122
-12.6926
-12.671
-12.6469
-12.6197
-12.5889
-12.5536
-12.513
-12.4659
-12.4106
-12.3453
-12.2673
-12.1729
-12.0571
-11.913
-11.7303
-11.4949
-11.1866
-10.7777
-10.2386
-9.55852
-8.7584
-7.92686
-19.8502
-17.2509
-15.8315
-14.9446
-14.3364
-13.9246
-13.644
-13.4467
-13.3033
-13.1963
-13.1145
-13.0509
-13.0004
-12.9597
-12.9265
-12.899
-12.8758
-12.856
-12.8388
-12.8234
-12.8094
-12.7962
-12.7835
-12.7709
-12.758
-12.7446
-12.7304
-12.7149
-12.6979
-12.679
-12.6578
-12.6337
-12.6063
-12.5749
-12.5386
-12.4963
-12.4466
-12.3878
-12.3172
-12.2313
-12.1251
-11.9909
-11.8171
-11.5854
-11.2654
-10.8069
-10.1404
-9.18142
-7.67557
-4.95621
-24.7188
-18.3339
-15.6674
-14.568
-13.9701
-13.6144
-13.3937
-13.2468
-13.1427
-13.0657
-13.0069
-12.9612
-12.925
-12.8959
-12.8722
-12.8527
-12.8364
-12.8225
-12.8105
-12.7997
-12.7899
-12.7807
-12.7716
-12.7625
-12.753
-12.7429
-12.7319
-12.7198
-12.7063
-12.6911
-12.6739
-12.6543
-12.6318
-12.606
-12.5761
-12.5414
-12.5008
-12.453
-12.396
-12.3274
-12.2433
-12.138
-12.0021
-11.8194
-11.5577
-11.1533
-10.4897
-9.29542
-6.51144
-0.000105431
)
;

boundaryField
{
    movingWallTop
    {
        type            zeroGradient;
    }
    movingWallBottom
    {
        type            zeroGradient;
    }
    fixedWalls
    {
        type            zeroGradient;
    }
    frontAndBack
    {
        type            empty;
    }
}


// ************************************************************************* //
