/*--------------------------------*- C++ -*----------------------------------*\
  =========                 |
  \\      /  F ield         | OpenFOAM: The Open Source CFD Toolbox
   \\    /   O peration     | Website:  https://openfoam.org
    \\  /    A nd           | Version:  7
     \\/     M anipulation  |
\*---------------------------------------------------------------------------*/
FoamFile
{
    version     2.0;
    format      ascii;
    class       surfaceScalarField;
    location    "0.0292";
    object      phi;
}
// * * * * * * * * * * * * * * * * * * * * * * * * * * * * * * * * * * * * * //

dimensions      [0 3 -1 0 0 0 0];

internalField   nonuniform List<scalar> 
4900
(
-5.55621e-06
5.55622e-06
-1.0162e-05
4.60576e-06
-1.29488e-05
2.78679e-06
-1.4667e-05
1.71822e-06
-1.57665e-05
1.09953e-06
-1.65016e-05
7.35045e-07
-1.70177e-05
5.16105e-07
-1.73969e-05
3.79214e-07
-1.76859e-05
2.89047e-07
-1.79125e-05
2.26558e-07
-1.80938e-05
1.81308e-07
-1.82411e-05
1.47326e-07
-1.83621e-05
1.21026e-07
-1.84623e-05
1.00148e-07
-1.85455e-05
8.32026e-08
-1.86147e-05
6.9172e-08
-1.8672e-05
5.73362e-08
-1.87192e-05
4.71713e-08
-1.87575e-05
3.82856e-08
-1.87878e-05
3.0379e-08
-1.8811e-05
2.32151e-08
-1.88276e-05
1.66031e-08
-1.8838e-05
1.03836e-08
-1.88425e-05
4.41992e-09
-1.8841e-05
-1.411e-09
-1.88338e-05
-7.22185e-09
-1.88207e-05
-1.31242e-08
-1.88015e-05
-1.92303e-08
-1.87758e-05
-2.56599e-08
-1.87433e-05
-3.2546e-08
-1.87032e-05
-4.00426e-08
-1.86549e-05
-4.83345e-08
-1.85972e-05
-5.76506e-08
-1.85289e-05
-6.8283e-08
-1.84483e-05
-8.06144e-08
-1.83532e-05
-9.51603e-08
-1.82405e-05
-1.12633e-07
-1.81065e-05
-1.34049e-07
-1.79456e-05
-1.60902e-07
-1.77501e-05
-1.95482e-07
-1.75087e-05
-2.4144e-07
-1.72038e-05
-3.04857e-07
-1.68075e-05
-3.96297e-07
-1.62727e-05
-5.34772e-07
-1.5518e-05
-7.54708e-07
-1.44023e-05
-1.11571e-06
-1.26863e-05
-1.71603e-06
-9.94878e-06
-2.73752e-06
-5.45337e-06
-4.49541e-06
-5.45337e-06
-1.19491e-08
5.56817e-06
-2.12867e-06
6.72248e-06
-4.85132e-06
5.50944e-06
-7.2615e-06
4.1284e-06
-9.19036e-06
3.02839e-06
-1.0691e-05
2.23564e-06
-1.18569e-05
1.68205e-06
-1.27715e-05
1.29384e-06
-1.34985e-05
1.01602e-06
-1.40841e-05
8.12128e-07
-1.45613e-05
6.58571e-07
-1.49541e-05
5.40069e-07
-1.52796e-05
4.46549e-07
-1.55507e-05
3.71219e-07
-1.57769e-05
3.09385e-07
-1.59654e-05
2.57721e-07
-1.61219e-05
2.13813e-07
-1.62506e-05
1.75868e-07
-1.63548e-05
1.42525e-07
-1.64372e-05
1.12727e-07
-1.64996e-05
8.56326e-08
-1.65435e-05
6.05552e-08
-1.65701e-05
3.69188e-08
-1.65799e-05
1.42243e-08
-1.65733e-05
-7.97479e-09
-1.65504e-05
-3.00961e-08
-1.6511e-05
-5.25439e-08
-1.64545e-05
-7.57288e-08
-1.63801e-05
-1.00085e-07
-1.62865e-05
-1.26093e-07
-1.61723e-05
-1.54303e-07
-1.60352e-05
-1.85368e-07
-1.58728e-05
-2.20089e-07
-1.56816e-05
-2.59473e-07
-1.54574e-05
-3.04822e-07
-1.51947e-05
-3.57852e-07
-1.48865e-05
-4.20886e-07
-1.45234e-05
-4.9713e-07
-1.40932e-05
-5.91117e-07
-1.35792e-05
-7.09409e-07
-1.2959e-05
-8.61712e-07
-1.22012e-05
-1.06267e-06
-1.12628e-05
-1.33465e-06
-1.00858e-05
-1.71174e-06
-8.59626e-06
-2.24429e-06
-6.71411e-06
-2.99786e-06
-4.40017e-06
-4.02997e-06
-1.8234e-06
-5.3143e-06
1.22427e-07
-6.44123e-06
-5.33094e-06
1.03388e-06
4.53429e-06
5.53562e-07
7.2028e-06
-9.76351e-07
7.03935e-06
-2.85861e-06
6.01065e-06
-4.69984e-06
4.86962e-06
-6.34004e-06
3.87584e-06
-7.74031e-06
3.08232e-06
-8.91423e-06
2.46776e-06
-9.89264e-06
1.99443e-06
-1.07082e-05
1.62766e-06
-1.13897e-05
1.34008e-06
-1.1961e-05
1.11135e-06
-1.24411e-05
9.26638e-07
-1.2845e-05
7.75177e-07
-1.31847e-05
6.49083e-07
-1.34695e-05
5.42523e-07
-1.37068e-05
4.51117e-07
-1.39025e-05
3.7152e-07
-1.40611e-05
3.01139e-07
-1.41863e-05
2.37918e-07
-1.42808e-05
1.80201e-07
-1.43469e-05
1.26615e-07
-1.4386e-05
7.60005e-08
-1.43991e-05
2.73431e-08
-1.43868e-05
-2.02688e-08
-1.43492e-05
-6.76875e-08
-1.4286e-05
-1.15739e-07
-1.41965e-05
-1.65257e-07
-1.40795e-05
-2.17118e-07
-1.39333e-05
-2.7228e-07
-1.37557e-05
-3.31827e-07
-1.35441e-05
-3.97031e-07
-1.32948e-05
-4.69422e-07
-1.30033e-05
-5.5089e-07
-1.26643e-05
-6.43826e-07
-1.22709e-05
-7.51305e-07
-1.18144e-05
-8.77358e-07
-1.12842e-05
-1.02735e-06
-1.06668e-05
-1.2085e-06
-9.94556e-06
-1.43066e-06
-9.1e-06
-1.70727e-06
-8.10603e-06
-2.05664e-06
-6.93769e-06
-2.503e-06
-5.57289e-06
-3.07653e-06
-4.0082e-06
-3.80898e-06
-2.29049e-06
-4.71557e-06
-5.7749e-07
-5.74297e-06
7.62702e-07
-6.65449e-06
1.08593e-06
-6.76446e-06
-4.24501e-06
9.09074e-07
3.62522e-06
1.23963e-06
6.87224e-06
6.68142e-07
7.61084e-06
-4.79873e-07
7.15867e-06
-1.87603e-06
6.26578e-06
-3.30275e-06
5.30256e-06
-4.64376e-06
4.42333e-06
-5.84995e-06
3.67395e-06
-6.90943e-06
3.05391e-06
-7.82818e-06
2.54641e-06
-8.61942e-06
2.13131e-06
-9.29816e-06
1.79009e-06
-9.8788e-06
1.50729e-06
-1.03742e-05
1.27054e-06
-1.07952e-05
1.07014e-06
-1.11512e-05
8.98466e-07
-1.14496e-05
7.4956e-07
-1.16968e-05
6.18703e-07
-1.18978e-05
5.02125e-07
-1.20566e-05
3.96773e-07
-1.21766e-05
3.00129e-07
-1.226e-05
2.10083e-07
-1.23088e-05
1.24818e-07
-1.23242e-05
4.27401e-08
-1.23069e-05
-3.75986e-08
-1.22571e-05
-1.17551e-07
-1.21744e-05
-1.98426e-07
-1.20581e-05
-2.81538e-07
-1.19069e-05
-3.68257e-07
-1.17192e-05
-4.60056e-07
-1.14924e-05
-5.58583e-07
-1.12237e-05
-6.65728e-07
-1.09094e-05
-7.83722e-07
-1.05451e-05
-9.15255e-07
-1.01252e-05
-1.06363e-06
-9.64359e-06
-1.23297e-06
-9.09248e-06
-1.42846e-06
-8.46314e-06
-1.65669e-06
-7.74562e-06
-1.92602e-06
-6.92927e-06
-2.24701e-06
-6.00386e-06
-2.63268e-06
-4.96211e-06
-3.09839e-06
-3.80475e-06
-3.66035e-06
-2.55024e-06
-4.33104e-06
-1.25148e-06
-5.10774e-06
-2.09422e-08
-5.94611e-06
9.42835e-07
-6.70675e-06
1.3476e-06
-7.05925e-06
9.15876e-07
-6.33274e-06
-3.32913e-06
6.75774e-07
2.94944e-06
1.25884e-06
6.28918e-06
1.25652e-06
7.61316e-06
7.08964e-07
7.70623e-06
-1.97133e-07
7.17188e-06
-1.28021e-06
6.38563e-06
-2.40882e-06
5.55195e-06
-3.50243e-06
4.76756e-06
-4.51839e-06
4.06987e-06
-5.43818e-06
3.4662e-06
-6.25729e-06
2.95042e-06
-6.97866e-06
2.51146e-06
-7.60873e-06
2.13736e-06
-8.15519e-06
1.817e-06
-8.62579e-06
1.54074e-06
-9.02778e-06
1.30046e-06
-9.36762e-06
1.08939e-06
-9.65088e-06
9.01966e-07
-9.88231e-06
7.33559e-07
-1.00658e-05
5.80309e-07
-1.02047e-05
4.38957e-07
-1.03013e-05
3.06713e-07
-1.03576e-05
1.81143e-07
-1.0375e-05
6.0079e-08
-1.03541e-05
-5.84565e-08
-1.02953e-05
-1.76318e-07
-1.01985e-05
-2.95297e-07
-1.00628e-05
-4.17179e-07
-9.88729e-06
-5.43801e-07
-9.67023e-06
-6.77115e-07
-9.40956e-06
-8.19255e-07
-9.10267e-06
-9.72618e-07
-8.74643e-06
-1.13996e-06
-8.3372e-06
-1.32449e-06
-7.87079e-06
-1.53004e-06
-7.34259e-06
-1.76117e-06
-6.7477e-06
-2.02336e-06
-6.08125e-06
-2.32314e-06
-5.3391e-06
-2.66816e-06
-4.51903e-06
-3.06708e-06
-3.62281e-06
-3.52891e-06
-2.65972e-06
-4.06148e-06
-1.6522e-06
-4.66787e-06
-6.44182e-07
-5.33906e-06
2.88115e-07
-6.04003e-06
1.02662e-06
-6.68461e-06
1.41453e-06
-7.09465e-06
1.29877e-06
-6.94349e-06
6.66399e-07
-5.70037e-06
-2.66273e-06
4.85437e-07
2.464e-06
1.0949e-06
5.67971e-06
1.38155e-06
7.32651e-06
1.24404e-06
7.84374e-06
7.49082e-07
7.66683e-06
1.42499e-08
7.12047e-06
-8.49298e-07
6.4155e-06
-1.75734e-06
5.67561e-06
-2.65328e-06
4.9658e-06
-3.50276e-06
4.31568e-06
-4.2872e-06
3.73486e-06
-4.99823e-06
3.2225e-06
-5.63378e-06
2.77291e-06
-6.19537e-06
2.37858e-06
-6.68635e-06
2.03172e-06
-7.1109e-06
1.72501e-06
-7.47339e-06
1.45187e-06
-7.77796e-06
1.20654e-06
-8.02842e-06
9.84018e-07
-8.22808e-06
7.79963e-07
-8.37973e-06
5.90608e-07
-8.48566e-06
4.12647e-07
-8.54766e-06
2.43139e-07
-8.56701e-06
7.94302e-08
-8.54454e-06
-8.09211e-08
-8.48065e-06
-2.40213e-07
-8.37529e-06
-4.00661e-07
-8.22801e-06
-5.64455e-07
-8.03799e-06
-7.33821e-07
-7.80403e-06
-9.11079e-07
-7.52457e-06
-1.09871e-06
-7.19778e-06
-1.29942e-06
-6.82152e-06
-1.51622e-06
-6.39351e-06
-1.7525e-06
-5.91144e-06
-2.0121e-06
-5.37322e-06
-2.29939e-06
-4.77736e-06
-2.61922e-06
-4.12357e-06
-2.97692e-06
-3.41381e-06
-3.37793e-06
-2.65372e-06
-3.82717e-06
-1.85493e-06
-4.3277e-06
-1.03826e-06
-4.87815e-06
-2.37993e-07
-5.46814e-06
4.93353e-07
-6.07041e-06
1.0814e-06
-6.62808e-06
1.4324e-06
-7.03562e-06
1.45187e-06
-7.11412e-06
1.09514e-06
-6.58676e-06
4.70687e-07
-5.07591e-06
-2.19205e-06
3.53863e-07
2.11014e-06
9.12405e-07
5.12117e-06
1.32318e-06
6.91573e-06
1.43772e-06
7.7292e-06
1.24728e-06
7.85727e-06
8.10786e-07
7.55696e-06
2.0628e-07
7.02e-06
-4.9395e-07
6.37584e-06
-1.2329e-06
5.70475e-06
-1.96973e-06
5.05252e-06
-2.67737e-06
4.44249e-06
-3.33913e-06
3.88426e-06
-3.94576e-06
3.37954e-06
-4.4929e-06
2.92573e-06
-4.97938e-06
2.5182e-06
-5.40591e-06
2.15154e-06
-5.77427e-06
1.82024e-06
-6.08674e-06
1.51902e-06
-6.34575e-06
1.24302e-06
-6.55364e-06
9.87849e-07
-6.71253e-06
7.49504e-07
-6.82428e-06
5.24391e-07
-6.89038e-06
3.09239e-07
-6.91199e-06
1.01046e-07
-6.88993e-06
-1.02978e-07
-6.82468e-06
-3.05471e-07
-6.71637e-06
-5.08969e-07
-6.56486e-06
-7.1596e-07
-6.36975e-06
-9.28934e-07
-6.13039e-06
-1.15043e-06
-5.846e-06
-1.3831e-06
-5.51568e-06
-1.62974e-06
-5.13859e-06
-1.89331e-06
-4.71407e-06
-2.17701e-06
-4.24192e-06
-2.48425e-06
-3.72272e-06
-2.81859e-06
-3.15833e-06
-3.18361e-06
-2.5527e-06
-3.58256e-06
-1.9128e-06
-4.01782e-06
-1.25015e-06
-4.48982e-06
-5.82572e-07
-4.99527e-06
6.35083e-08
-5.52423e-06
6.5085e-07
-6.05548e-06
1.13005e-06
-6.54961e-06
1.44126e-06
-6.93929e-06
1.52277e-06
-7.11713e-06
1.33266e-06
-6.92401e-06
8.9004e-07
-6.14414e-06
3.37683e-07
-4.52356e-06
-1.85436e-06
2.67057e-07
1.84308e-06
7.56502e-07
4.63173e-06
1.20453e-06
6.4677e-06
1.46177e-06
7.47196e-06
1.48064e-06
7.83841e-06
1.27743e-06
7.76017e-06
8.98482e-07
7.39895e-06
3.97724e-07
6.8766e-06
-1.75347e-07
6.27782e-06
-7.80473e-07
5.65764e-06
-1.38739e-06
5.0494e-06
-1.97468e-06
4.47156e-06
-2.52804e-06
3.93289e-06
-3.03846e-06
3.43615e-06
-3.50078e-06
2.98051e-06
-3.9124e-06
2.56317e-06
-4.27251e-06
2.18034e-06
-4.58132e-06
1.82783e-06
-4.83972e-06
1.50142e-06
-5.04886e-06
1.197e-06
-5.21004e-06
9.10682e-07
-5.32449e-06
6.3884e-07
-5.39333e-06
3.78074e-07
-5.41748e-06
1.25205e-07
-5.3977e-06
-1.22758e-07
-5.33452e-06
-3.68654e-07
-5.22828e-06
-6.15211e-07
-5.07916e-06
-8.65082e-07
-4.88721e-06
-1.12088e-06
-4.65245e-06
-1.3852e-06
-4.3749e-06
-1.66066e-06
-4.05472e-06
-1.94992e-06
-3.69238e-06
-2.25564e-06
-3.28886e-06
-2.58053e-06
-2.84596e-06
-2.92716e-06
-2.36665e-06
-3.29791e-06
-1.85565e-06
-3.6946e-06
-1.32012e-06
-4.11809e-06
-7.70541e-07
-4.5674e-06
-2.21798e-07
-5.03857e-06
3.05607e-07
-5.52268e-06
7.84473e-07
-6.0031e-06
1.18044e-06
-6.45144e-06
1.4531e-06
-6.82228e-06
1.56049e-06
-7.04667e-06
1.46917e-06
-7.02581e-06
1.17289e-06
-6.62773e-06
7.20847e-07
-5.6921e-06
2.5047e-07
-4.05318e-06
-1.60389e-06
2.09107e-07
1.63398e-06
6.32672e-07
4.20816e-06
1.07591e-06
6.02446e-06
1.40648e-06
7.14139e-06
1.56144e-06
7.68345e-06
1.53038e-06
7.79123e-06
1.33446e-06
7.59487e-06
1.0093e-06
7.20175e-06
5.93537e-07
6.69358e-06
1.22574e-07
6.12861e-06
-3.74118e-07
5.54609e-06
-8.7354e-07
4.97098e-06
-1.35863e-06
4.41798e-06
-1.81725e-06
3.89478e-06
-2.24118e-06
3.40444e-06
-2.62509e-06
2.94708e-06
-2.96579e-06
2.52104e-06
-3.26159e-06
2.12363e-06
-3.51177e-06
1.7516e-06
-3.7163e-06
1.40153e-06
-3.87552e-06
1.0699e-06
-3.98999e-06
7.5331e-07
-4.06036e-06
4.48437e-07
-4.08727e-06
1.52115e-07
-4.07134e-06
-1.38684e-07
-4.01314e-06
-4.26855e-07
-3.91318e-06
-7.15172e-07
-3.77195e-06
-1.00631e-06
-3.58999e-06
-1.30284e-06
-3.36791e-06
-1.60728e-06
-3.10654e-06
-1.92203e-06
-2.80705e-06
-2.2494e-06
-2.47112e-06
-2.59158e-06
-2.10117e-06
-2.95048e-06
-1.70066e-06
-3.32766e-06
-1.27449e-06
-3.72408e-06
-8.29435e-07
-4.13966e-06
-3.74737e-07
-4.57278e-06
7.72491e-08
-5.01939e-06
5.10396e-07
-5.47171e-06
9.04265e-07
-5.91655e-06
1.23397e-06
-6.3328e-06
1.47097e-06
-6.68844e-06
1.58548e-06
-6.93679e-06
1.55176e-06
-7.01295e-06
1.35731e-06
-6.83136e-06
1.0167e-06
-6.28713e-06
5.88949e-07
-5.26434e-06
1.9238e-07
-3.65661e-06
-1.41151e-06
1.69062e-07
1.46491e-06
5.35831e-07
3.84139e-06
9.55672e-07
5.60462e-06
1.31756e-06
6.7795e-06
1.55621e-06
7.4448e-06
1.64656e-06
7.70088e-06
1.59208e-06
7.64935e-06
1.41291e-06
7.38092e-06
1.13655e-06
6.96995e-06
7.91605e-07
6.47355e-06
4.04301e-07
5.9334e-06
-3.12311e-09
5.3784e-06
-4.12801e-07
4.82766e-06
-8.10977e-07
4.29295e-06
-1.18743e-06
3.78089e-06
-1.53481e-06
3.29447e-06
-1.84805e-06
2.83428e-06
-2.12375e-06
2.39933e-06
-2.35983e-06
1.98767e-06
-2.55505e-06
1.59675e-06
-2.70887e-06
1.22372e-06
-2.82112e-06
8.65565e-07
-2.89196e-06
5.19277e-07
-2.92172e-06
1.81869e-07
-2.91084e-06
-1.49561e-07
-2.85988e-06
-4.77811e-07
-2.76949e-06
-8.05562e-07
-2.64044e-06
-1.13536e-06
-2.47365e-06
-1.46963e-06
-2.27031e-06
-1.81062e-06
-2.03195e-06
-2.16039e-06
-1.76059e-06
-2.52076e-06
-1.45892e-06
-2.89325e-06
-1.13049e-06
-3.2789e-06
-7.8004e-07
-3.67812e-06
-4.13751e-07
-4.09037e-06
-3.96612e-08
-4.51375e-06
3.31961e-07
-4.94441e-06
6.88232e-07
-5.37566e-06
1.01339e-06
-5.79687e-06
1.28878e-06
-6.19194e-06
1.49341e-06
-6.53743e-06
1.60537e-06
-6.80039e-06
1.60474e-06
-6.93616e-06
1.47853e-06
-6.88675e-06
1.22801e-06
-6.58084e-06
8.78112e-07
-5.93723e-06
4.87188e-07
-4.87342e-06
1.52339e-07
-3.32176e-06
-1.25917e-06
1.4022e-07
1.32469e-06
4.59486e-07
3.52213e-06
8.48838e-07
5.21527e-06
1.21728e-06
6.41106e-06
1.50349e-06
7.15859e-06
1.67578e-06
7.52859e-06
1.72628e-06
7.59885e-06
1.66335e-06
7.44384e-06
1.50464e-06
7.12866e-06
1.27164e-06
6.70655e-06
9.86145e-07
6.21889e-06
6.68157e-07
5.69639e-06
3.34881e-07
5.16093e-06
4.57081e-10
4.62738e-06
-3.23909e-07
4.10526e-06
-6.29605e-07
3.60016e-06
-9.10195e-07
3.11487e-06
-1.161e-06
2.65014e-06
-1.37875e-06
2.20542e-06
-1.5612e-06
1.77921e-06
-1.70697e-06
1.36948e-06
-1.81524e-06
9.73833e-07
-1.88566e-06
5.89697e-07
-1.91822e-06
2.14434e-07
-1.9132e-06
-1.54587e-07
-1.87108e-06
-5.19929e-07
-1.7926e-06
-8.84045e-07
-1.67872e-06
-1.24924e-06
-1.53072e-06
-1.61764e-06
-1.35021e-06
-1.99113e-06
-1.13928e-06
-2.37131e-06
-9.00629e-07
-2.75942e-06
-6.3767e-07
-3.15621e-06
-3.54777e-07
-3.56179e-06
-5.7477e-08
-3.97542e-06
2.47302e-07
-4.39515e-06
5.5099e-07
-4.81744e-06
8.43149e-07
-5.23657e-06
1.11134e-06
-5.64385e-06
1.34118e-06
-6.02671e-06
1.51669e-06
-6.36745e-06
1.6212e-06
-6.64194e-06
1.63906e-06
-6.81825e-06
1.55842e-06
-6.85553e-06
1.37541e-06
-6.70373e-06
1.09943e-06
-6.30486e-06
7.59275e-07
-5.59707e-06
4.0798e-07
-4.52212e-06
1.23633e-07
-3.03741e-06
-1.13554e-06
1.1856e-07
1.20613e-06
3.98171e-07
3.24252e-06
7.55294e-07
4.85815e-06
1.11592e-06
6.05043e-06
1.42524e-06
6.84927e-06
1.64978e-06
7.30404e-06
1.77511e-06
7.47352e-06
1.80129e-06
7.41767e-06
1.73799e-06
7.19196e-06
1.60021e-06
6.84433e-06
1.40505e-06
6.41405e-06
1.1695e-06
5.93194e-06
9.09178e-07
5.42126e-06
6.37664e-07
4.89889e-06
3.66323e-07
4.3766e-06
1.04354e-07
3.86213e-06
-1.40992e-07
3.36021e-06
-3.64142e-07
2.87329e-06
-5.60927e-07
2.4022e-06
-7.28315e-07
1.9466e-06
-8.64192e-07
1.50536e-06
-9.6717e-07
1.07681e-06
-1.03644e-06
6.58969e-07
-1.07167e-06
2.49663e-07
-1.07292e-06
-1.53341e-07
-1.04059e-06
-5.52253e-07
-9.75447e-07
-9.49189e-07
-8.78585e-07
-1.3461e-06
-7.51496e-07
-1.74473e-06
-5.96122e-07
-2.1465e-06
-4.14943e-07
-2.55249e-06
-2.11089e-07
-2.96327e-06
1.15318e-08
-3.37883e-06
2.48082e-07
-3.79834e-06
4.92637e-07
-4.21997e-06
7.38026e-07
-4.64053e-06
9.75706e-07
-5.05512e-06
1.19569e-06
-5.45655e-06
1.38661e-06
-5.83477e-06
1.53595e-06
-6.17606e-06
1.63068e-06
-6.46218e-06
1.65825e-06
-6.66951e-06
1.60829e-06
-6.7683e-06
1.47507e-06
-6.72231e-06
1.26066e-06
-6.48932e-06
9.7875e-07
-6.02295e-06
6.5819e-07
-5.27651e-06
3.45219e-07
-4.20915e-06
1.02234e-07
-2.79443e-06
-1.03331e-06
1.01647e-07
1.10449e-06
3.47786e-07
2.99638e-06
6.73242e-07
4.53269e-06
1.01782e-06
5.70585e-06
1.33379e-06
6.5333e-06
1.58865e-06
7.04918e-06
1.76468e-06
7.29749e-06
1.85649e-06
7.32586e-06
1.86774e-06
7.18071e-06
1.80796e-06
6.90411e-06
1.68981e-06
6.53219e-06
1.52709e-06
6.09467e-06
1.33329e-06
5.61505e-06
1.12085e-06
5.11133e-06
9.00656e-07
4.59679e-06
6.81934e-07
4.08086e-06
4.72273e-07
3.56987e-06
2.77759e-07
3.06781e-06
1.03151e-07
2.57681e-06
-4.7931e-08
2.09768e-06
-1.7282e-07
1.63025e-06
-2.69647e-07
1.17364e-06
-3.3721e-07
7.26532e-07
-3.74872e-07
2.87324e-07
-3.82483e-07
-1.4573e-07
-3.6034e-07
-5.74396e-07
-3.09165e-07
-1.00036e-06
-2.30112e-07
-1.42516e-06
-1.24794e-07
-1.85005e-06
4.66607e-09
-2.27596e-06
1.55562e-07
-2.70338e-06
3.24524e-07
-3.13223e-06
5.07414e-07
-3.56172e-06
6.99224e-07
-3.99015e-06
8.93973e-07
-4.41472e-06
1.08463e-06
-4.83119e-06
1.26308e-06
-5.23357e-06
1.42018e-06
-5.61365e-06
1.54594e-06
-5.96052e-06
1.62989e-06
-6.26001e-06
1.66182e-06
-6.4941e-06
1.63274e-06
-6.64042e-06
1.53643e-06
-6.67199e-06
1.37146e-06
-6.55734e-06
1.14352e-06
-6.26138e-06
8.67946e-07
-5.74738e-06
5.71778e-07
-4.98034e-06
2.94394e-07
-3.93177e-06
8.56896e-08
-2.58572e-06
-9.47618e-07
8.79684e-08
1.01652e-06
3.0538e-07
2.77896e-06
6.00579e-07
4.23749e-06
9.24445e-07
5.38199e-06
1.23598e-06
6.22176e-06
1.50505e-06
6.78012e-06
1.71281e-06
7.08973e-06
1.85058e-06
7.1881e-06
1.91775e-06
7.11354e-06
1.91949e-06
6.90237e-06
1.86463e-06
6.58706e-06
1.76385e-06
6.19545e-06
1.62841e-06
5.75049e-06
1.46921e-06
5.27053e-06
1.29626e-06
4.76974e-06
1.1184e-06
4.25872e-06
9.4316e-07
3.74511e-06
7.76802e-07
3.23417e-06
6.24395e-07
2.72922e-06
4.89936e-07
2.23214e-06
3.76477e-07
1.7437e-06
2.86252e-07
1.26386e-06
2.20784e-07
7.92001e-07
1.80974e-07
3.27134e-07
1.67171e-07
-1.31927e-07
1.79215e-07
-5.8644e-07
2.16459e-07
-1.03761e-06
2.77771e-07
-1.48647e-06
3.61513e-07
-1.93379e-06
4.65504e-07
-2.37995e-06
5.86972e-07
-2.82485e-06
7.22489e-07
-3.26775e-06
8.67902e-07
-3.70713e-06
1.01828e-06
-4.14053e-06
1.16784e-06
-4.56428e-06
1.30997e-06
-4.97332e-06
1.43724e-06
-5.36084e-06
1.54155e-06
-5.71796e-06
1.61439e-06
-6.03336e-06
1.64728e-06
-6.29291e-06
1.63246e-06
-6.47929e-06
1.56386e-06
-6.57182e-06
1.43833e-06
-6.54646e-06
1.25726e-06
-6.37627e-06
1.02825e-06
-6.03237e-06
7.66731e-07
-5.48586e-06
4.97028e-07
-4.71064e-06
2.52259e-07
-3.687e-06
7.24594e-08
-2.40592e-06
-8.75158e-07
7.65573e-08
9.39962e-07
2.68846e-07
2.58668e-06
5.3539e-07
3.97095e-06
8.35918e-07
5.08146e-06
1.13551e-06
5.92217e-06
1.40697e-06
6.50865e-06
1.63171e-06
6.865e-06
1.79929e-06
7.02052e-06
1.90624e-06
7.00659e-06
1.95447e-06
6.85413e-06
1.94963e-06
6.5919e-06
1.89963e-06
6.24544e-06
1.81352e-06
5.8366e-06
1.70057e-06
5.38349e-06
1.56965e-06
4.90065e-06
1.42892e-06
4.39945e-06
1.28557e-06
3.88846e-06
1.14577e-06
3.37397e-06
1.01464e-06
2.86034e-06
8.96361e-07
2.35042e-06
7.9422e-07
1.84585e-06
7.10693e-07
1.34739e-06
6.47545e-07
8.55149e-07
6.05894e-07
3.68786e-07
5.86272e-07
-1.12305e-07
5.88667e-07
-5.88835e-07
6.12545e-07
-1.06149e-06
6.56855e-07
-1.53078e-06
7.20022e-07
-1.99695e-06
7.99921e-07
-2.45985e-06
8.93843e-07
-2.91877e-06
9.98456e-07
-3.37236e-06
1.10977e-06
-3.81845e-06
1.2231e-06
-4.25386e-06
1.33308e-06
-4.67426e-06
1.43367e-06
-5.07391e-06
1.51826e-06
-5.44543e-06
1.57987e-06
-5.77957e-06
1.61144e-06
-6.06493e-06
1.60624e-06
-6.28771e-06
1.55859e-06
-6.43164e-06
1.46462e-06
-6.47785e-06
1.32336e-06
-6.4052e-06
1.13789e-06
-6.19079e-06
9.1654e-07
-5.81102e-06
6.73922e-07
-5.24325e-06
4.3136e-07
-4.46808e-06
2.16485e-07
-3.47212e-06
6.15469e-08
-2.25099e-06
-8.13612e-07
6.67728e-08
8.73189e-07
2.36677e-07
2.41677e-06
4.76079e-07
3.73154e-06
7.51828e-07
4.80571e-06
1.03432e-06
5.63968e-06
1.2995e-06
6.24347e-06
1.52977e-06
6.63473e-06
1.71406e-06
6.83624e-06
1.84713e-06
6.87352e-06
1.92854e-06
6.77272e-06
1.96144e-06
6.559e-06
1.95141e-06
6.25547e-06
1.90546e-06
5.88255e-06
1.83123e-06
5.45772e-06
1.73639e-06
4.99549e-06
1.62823e-06
4.50761e-06
1.51338e-06
4.00331e-06
1.39771e-06
3.48965e-06
1.28623e-06
2.97183e-06
1.18312e-06
2.45353e-06
1.09174e-06
1.93722e-06
1.01471e-06
1.42441e-06
9.53967e-07
9.15897e-07
9.10781e-07
4.11972e-07
8.85849e-07
-8.73731e-08
8.7931e-07
-5.82296e-07
8.90768e-07
-1.07294e-06
9.19306e-07
-1.55932e-06
9.63481e-07
-2.04113e-06
1.02131e-06
-2.51768e-06
1.09026e-06
-2.98772e-06
1.16722e-06
-3.44932e-06
1.24849e-06
-3.89971e-06
1.32977e-06
-4.33514e-06
1.40621e-06
-4.7507e-06
1.47245e-06
-5.14015e-06
1.52277e-06
-5.49575e-06
1.55126e-06
-5.80807e-06
1.55218e-06
-6.06584e-06
1.52032e-06
-6.25585e-06
1.45162e-06
-6.36293e-06
1.34383e-06
-6.37007e-06
1.1974e-06
-6.25877e-06
1.01626e-06
-6.00966e-06
8.08743e-07
-5.6035e-06
5.88097e-07
-5.0226e-06
3.72678e-07
-4.25266e-06
1.85391e-07
-3.28484e-06
5.22841e-08
-2.11788e-06
-7.61328e-07
5.81781e-08
8.15011e-07
2.07788e-07
2.26716e-06
4.21373e-07
3.51796e-06
6.71578e-07
4.5555e-06
9.33421e-07
5.37784e-06
1.18589e-06
5.99101e-06
1.41285e-06
6.40777e-06
1.6033e-06
6.64578e-06
1.75108e-06
6.72574e-06
1.85415e-06
6.66965e-06
1.91379e-06
6.49937e-06
1.93365e-06
6.2356e-06
1.919e-06
5.8972e-06
1.87596e-06
5.50076e-06
1.81096e-06
5.06049e-06
1.73036e-06
4.58821e-06
1.64013e-06
4.09354e-06
1.54567e-06
3.58411e-06
1.45173e-06
3.06577e-06
1.36234e-06
2.54292e-06
1.28085e-06
2.01872e-06
1.20991e-06
1.49536e-06
1.15152e-06
9.74285e-07
1.10709e-06
4.56405e-07
1.07744e-06
-5.77218e-08
1.06285e-06
-5.67709e-07
1.06309e-06
-1.07318e-06
1.07741e-06
-1.57363e-06
1.10454e-06
-2.06826e-06
1.14273e-06
-2.55587e-06
1.18969e-06
-3.03469e-06
1.24262e-06
-3.50226e-06
1.29821e-06
-3.95529e-06
1.35262e-06
-4.38955e-06
1.4016e-06
-4.79967e-06
1.4405e-06
-5.17905e-06
1.46447e-06
-5.51972e-06
1.46862e-06
-5.81222e-06
1.44833e-06
-6.04555e-06
1.39964e-06
-6.20716e-06
1.31972e-06
-6.28301e-06
1.20746e-06
-6.25781e-06
1.0641e-06
-6.11541e-06
8.93874e-07
-5.83943e-06
7.04576e-07
-5.4142e-06
5.0788e-07
-4.8259e-06
3.19322e-07
-4.0641e-06
1.57755e-07
-3.12327e-06
4.42109e-08
-2.00433e-06
-7.17117e-07
5.04676e-08
7.64543e-07
1.81384e-07
2.13625e-06
3.70273e-07
3.32907e-06
5.94561e-07
4.33122e-06
8.33262e-07
5.13913e-06
1.06825e-06
5.75602e-06
1.28507e-06
6.19095e-06
1.47327e-06
6.45757e-06
1.62635e-06
6.57267e-06
1.74128e-06
6.55471e-06
1.818e-06
6.42265e-06
1.85868e-06
6.19493e-06
1.86708e-06
5.8888e-06
1.84799e-06
5.51986e-06
1.80667e-06
5.1018e-06
1.74855e-06
4.64633e-06
1.67884e-06
4.16325e-06
1.60241e-06
3.66054e-06
1.52363e-06
3.14455e-06
1.44629e-06
2.62026e-06
1.37359e-06
2.09141e-06
1.30815e-06
1.5608e-06
1.25199e-06
1.03044e-06
1.20658e-06
5.01821e-07
1.17283e-06
-2.39784e-08
1.15118e-06
-5.46056e-07
1.14154e-06
-1.06354e-06
1.14336e-06
-1.57545e-06
1.1556e-06
-2.08051e-06
1.17677e-06
-2.57704e-06
1.20489e-06
-3.06281e-06
1.23753e-06
-3.5349e-06
1.27182e-06
-3.98958e-06
1.30446e-06
-4.42219e-06
1.3318e-06
-4.82701e-06
1.34991e-06
-5.19717e-06
1.35476e-06
-5.52457e-06
1.34236e-06
-5.79982e-06
1.30906e-06
-6.01225e-06
1.25186e-06
-6.14996e-06
1.16883e-06
-6.19999e-06
1.05959e-06
-6.14856e-06
9.25739e-07
-5.98156e-06
7.71388e-07
-5.68508e-06
6.03495e-07
-5.24631e-06
4.32056e-07
-4.65446e-06
2.69994e-07
-3.90204e-06
1.32676e-07
-2.98595e-06
3.70024e-08
-1.90866e-06
-6.80114e-07
4.34228e-08
7.21121e-07
1.56882e-07
2.02279e-06
3.22004e-07
3.16395e-06
5.20223e-07
4.133e-06
7.34036e-07
4.92532e-06
9.47993e-07
5.54207e-06
1.1494e-06
5.98954e-06
1.32866e-06
6.27831e-06
1.47935e-06
6.42198e-06
1.59795e-06
6.43611e-06
1.68347e-06
6.33713e-06
1.73696e-06
6.14144e-06
1.76098e-06
5.86477e-06
1.75916e-06
5.52168e-06
1.73571e-06
5.12524e-06
1.69513e-06
4.68691e-06
1.64189e-06
4.21649e-06
1.58027e-06
3.72216e-06
1.51417e-06
3.21065e-06
1.44708e-06
2.68735e-06
1.382e-06
2.15649e-06
1.3214e-06
1.62139e-06
1.26728e-06
1.08456e-06
1.22112e-06
5.47983e-07
1.18392e-06
1.3225e-08
1.15621e-06
-5.18348e-07
1.13808e-06
-1.04542e-06
1.12918e-06
-1.56655e-06
1.12872e-06
-2.08005e-06
1.1355e-06
-2.58382e-06
1.1479e-06
-3.07521e-06
1.1639e-06
-3.55089e-06
1.18109e-06
-4.00677e-06
1.19673e-06
-4.43783e-06
1.20778e-06
-4.83807e-06
1.21102e-06
-5.20041e-06
1.20314e-06
-5.5167e-06
1.18096e-06
-5.77764e-06
1.14161e-06
-5.9729e-06
1.08283e-06
-6.09118e-06
1.00332e-06
-6.12048e-06
9.03069e-07
-6.04831e-06
7.83747e-07
-5.86223e-06
6.49038e-07
-5.55037e-06
5.04887e-07
-5.10216e-06
3.59595e-07
-4.50917e-06
2.23683e-07
-3.76613e-06
1.09481e-07
-2.87175e-06
3.04239e-08
-1.8296e-06
-6.4969e-07
3.68836e-08
6.84237e-07
1.33842e-07
1.92583e-06
2.75959e-07
3.02183e-06
4.48089e-07
3.96087e-06
6.35784e-07
4.73763e-06
8.26069e-07
5.35178e-06
1.00801e-06
5.8076e-06
1.17306e-06
6.11325e-06
1.31518e-06
6.27987e-06
1.43068e-06
6.32061e-06
1.51802e-06
6.24979e-06
1.57744e-06
6.08202e-06
1.61058e-06
5.83164e-06
1.62006e-06
5.5122e-06
1.60917e-06
5.13613e-06
1.58156e-06
4.71452e-06
1.54097e-06
4.25708e-06
1.49105e-06
3.77208e-06
1.43523e-06
3.26647e-06
1.37662e-06
2.74596e-06
1.31795e-06
2.21517e-06
1.26153e-06
1.67781e-06
1.20924e-06
1.13685e-06
1.16255e-06
5.94672e-07
1.1225e-06
5.3272e-08
1.08973e-06
-4.85578e-07
1.06448e-06
-1.02016e-06
1.04659e-06
-1.54866e-06
1.03555e-06
-2.06901e-06
1.03047e-06
-2.57873e-06
1.03009e-06
-3.07483e-06
1.03283e-06
-3.55363e-06
1.03677e-06
-4.01071e-06
1.03971e-06
-4.44078e-06
1.03924e-06
-4.83759e-06
1.03276e-06
-5.19393e-06
1.01766e-06
-5.50159e-06
9.91415e-07
-5.75139e-06
9.51806e-07
-5.93329e-06
8.97129e-07
-6.03651e-06
8.26457e-07
-6.0498e-06
7.39931e-07
-5.96178e-06
6.39033e-07
-5.76134e-06
5.26835e-07
-5.43818e-06
4.08164e-07
-4.98349e-06
2.89651e-07
-4.39066e-06
1.79602e-07
-3.65608e-06
8.76662e-08
-2.77981e-06
2.43032e-08
-1.76624e-06
-6.25387e-07
3.07301e-08
6.53507e-07
1.11932e-07
1.84463e-06
2.31665e-07
2.9021e-06
3.77756e-07
3.81478e-06
5.38477e-07
4.5769e-06
7.03134e-07
5.18712e-06
8.62529e-07
5.64821e-06
1.00927e-06
5.96651e-06
1.13788e-06
6.15125e-06
1.2448e-06
6.21369e-06
1.32822e-06
6.16637e-06
1.38782e-06
6.02242e-06
1.4245e-06
5.79495e-06
1.44012e-06
5.49659e-06
1.43714e-06
5.13911e-06
1.41843e-06
4.73323e-06
1.38704e-06
4.28847e-06
1.346e-06
3.81312e-06
1.29825e-06
3.31422e-06
1.24647e-06
2.79773e-06
1.19309e-06
2.26855e-06
1.14021e-06
1.7307e-06
1.08956e-06
1.1875e-06
1.04256e-06
6.41673e-07
1.00026e-06
9.55728e-08
9.63371e-07
-4.4869e-07
9.32276e-07
-9.89066e-07
9.07027e-07
-1.52341e-06
8.87364e-07
-2.04935e-06
8.72715e-07
-2.56408e-06
8.62213e-07
-3.06433e-06
8.54706e-07
-3.54612e-06
8.48773e-07
-4.00478e-06
8.42762e-07
-4.43477e-06
8.34825e-07
-4.82965e-06
8.22988e-07
-5.1821e-06
8.05238e-07
-5.48384e-06
7.79638e-07
-5.72579e-06
7.44474e-07
-5.89812e-06
6.98432e-07
-5.99047e-06
6.40801e-07
-5.99217e-06
5.71682e-07
-5.89267e-06
4.92201e-07
-5.68186e-06
4.04688e-07
-5.35066e-06
3.12797e-07
-4.8916e-06
2.21529e-07
-4.29939e-06
1.37131e-07
-3.57168e-06
6.6845e-08
-2.70953e-06
1.85108e-08
-1.71791e-06
-6.06876e-07
2.48705e-08
6.28636e-07
9.08897e-08
1.77861e-06
1.88741e-07
2.80425e-06
3.08884e-07
3.69463e-06
4.42045e-07
4.44374e-06
5.79651e-07
5.04952e-06
7.14189e-07
5.51367e-06
8.3947e-07
5.84123e-06
9.50754e-07
6.03997e-06
1.04478e-06
6.11967e-06
1.11965e-06
6.09149e-06
1.17473e-06
5.96734e-06
1.21039e-06
5.75929e-06
1.22783e-06
5.47915e-06
1.22882e-06
5.13812e-06
1.21554e-06
4.74651e-06
1.19038e-06
4.31364e-06
1.15578e-06
3.84771e-06
1.11417e-06
3.35584e-06
1.0678e-06
2.8441e-06
1.01875e-06
2.31759e-06
9.68865e-07
1.78058e-06
9.19725e-07
1.23664e-06
8.72639e-07
6.88758e-07
8.28648e-07
1.39565e-07
7.88517e-07
-4.08559e-07
7.52751e-07
-9.533e-07
7.21595e-07
-1.49226e-06
6.95043e-07
-2.02279e-06
6.72843e-07
-2.54188e-06
6.54507e-07
-3.04599e-06
6.3932e-07
-3.53094e-06
6.2635e-07
-3.99181e-06
6.14472e-07
-4.42289e-06
6.02399e-07
-4.81758e-06
5.88723e-07
-5.16842e-06
5.7198e-07
-5.4671e-06
5.50736e-07
-5.70455e-06
5.23686e-07
-5.87107e-06
4.8979e-07
-5.95657e-06
4.48416e-07
-5.9508e-06
3.99496e-07
-5.84374e-06
3.43682e-07
-5.62604e-06
2.82479e-07
-5.28946e-06
2.18337e-07
-4.82745e-06
1.54669e-07
-4.23572e-06
9.57843e-08
-3.51279e-06
4.67175e-08
-2.66046e-06
1.29476e-08
-1.68414e-06
-5.93929e-07
1.9232e-08
6.09404e-07
7.05081e-08
1.72733e-06
1.46876e-07
2.72788e-06
2.41182e-07
3.60033e-06
3.46401e-07
4.33852e-06
4.55949e-07
4.93997e-06
5.6395e-07
5.40567e-06
6.65445e-07
5.73974e-06
7.56516e-07
5.9489e-06
8.34327e-07
6.04186e-06
8.97093e-07
6.02873e-06
9.43985e-07
5.92045e-06
9.75003e-07
5.72827e-06
9.90822e-07
5.46333e-06
9.9263e-07
5.13631e-06
9.8198e-07
4.75716e-06
9.60647e-07
4.33497e-06
9.30517e-07
3.87784e-06
8.93483e-07
3.39287e-06
8.51377e-07
2.88621e-06
8.05914e-07
2.36306e-06
7.58651e-07
1.82785e-06
7.10971e-07
1.28432e-06
6.64062e-07
7.35666e-07
6.1892e-07
1.84707e-07
5.76345e-07
-3.65984e-07
5.36943e-07
-9.13899e-07
5.01137e-07
-1.45645e-06
4.69164e-07
-1.99082e-06
4.41085e-07
-2.5138e-06
4.16784e-07
-3.02169e-06
3.95976e-07
-3.51013e-06
3.78209e-07
-3.97404e-06
3.62874e-07
-4.40755e-06
3.4922e-07
-4.80393e-06
3.36376e-07
-5.15558e-06
3.23385e-07
-5.45411e-06
3.09256e-07
-5.69042e-06
2.93024e-07
-5.85484e-06
2.73837e-07
-5.93738e-06
2.51054e-07
-5.92802e-06
2.24348e-07
-5.81704e-06
1.9382e-07
-5.59551e-06
1.60097e-07
-5.25574e-06
1.24408e-07
-4.79176e-06
8.86106e-08
-4.19993e-06
5.51681e-08
-3.47935e-06
2.70454e-08
-2.63234e-06
7.53559e-09
-1.66463e-06
-5.86393e-07
1.37546e-08
5.9565e-07
5.06127e-08
1.69047e-06
1.05805e-07
2.67269e-06
1.74388e-07
3.53175e-06
2.51438e-07
4.26147e-06
3.3226e-07
4.85915e-06
4.12567e-07
5.32536e-06
4.88642e-07
5.66366e-06
5.57444e-07
5.8801e-06
6.16663e-07
5.98264e-06
6.6472e-07
5.98067e-06
7.00732e-07
5.88444e-06
7.24432e-07
5.70457e-06
7.3608e-07
5.45169e-06
7.36353e-07
5.13604e-06
7.26244e-07
4.76727e-06
7.06961e-07
4.35425e-06
6.7984e-07
3.90496e-06
6.46271e-07
3.42644e-06
6.07638e-07
2.92484e-06
5.65279e-07
2.40542e-06
5.2045e-07
1.87268e-06
4.74306e-07
1.33046e-06
4.27891e-07
7.82082e-07
3.8213e-07
2.30468e-07
3.3783e-07
-3.21684e-07
2.95684e-07
-8.71752e-07
2.56269e-07
-1.41704e-06
2.20055e-07
-1.95461e-06
1.87399e-07
-2.48115e-06
1.5855e-07
-2.99284e-06
1.33643e-07
-3.48522e-06
1.12697e-07
-3.9531e-06
9.56071e-08
-4.39046e-06
8.2145e-08
-4.79046e-06
7.19555e-08
-5.14539e-06
6.45627e-08
-5.44672e-06
5.93834e-08
-5.68524e-06
5.57514e-08
-5.85121e-06
5.29549e-08
-5.93459e-06
5.02873e-08
-5.92535e-06
4.71109e-08
-5.81386e-06
4.29285e-08
-5.59133e-06
3.74578e-08
-5.25027e-06
3.06979e-08
-4.785e-06
2.29756e-08
-4.1922e-06
1.49603e-08
-3.47134e-06
7.63392e-09
-2.62501e-06
2.2111e-09
-1.6592e-06
-5.84182e-07